/*--------------------------------*- C++ -*----------------------------------*\
| =========                 |                                                 |
| \\      /  F ield         | OpenFOAM: The Open Source CFD Toolbox           |
|  \\    /   O peration     | Version:  v2012                                 |
|   \\  /    A nd           | Website:  www.openfoam.com                      |
|    \\/     M anipulation  |                                                 |
\*---------------------------------------------------------------------------*/
FoamFile
{
    version     2.0;
    format      ascii;
    class       volVectorField;
    location    "0";
    object      U;
}
// * * * * * * * * * * * * * * * * * * * * * * * * * * * * * * * * * * * * * //

dimensions      [0 1 -1 0 0 0 0];


internalField   nonuniform List<vector> 
4000
(
(1 2.99996e-15 0)
(1 2.75284e-15 0)
(1 -4.43237e-16 0)
(1 4.57811e-15 0)
(1 -4.841e-15 0)
(1 2.47553e-16 0)
(1 2.33609e-15 0)
(1 -2.69447e-15 0)
(1 5.49746e-16 0)
(1 -6.13987e-15 0)
(1 -2.26646e-15 0)
(1 -1.65831e-15 0)
(1 8.13658e-15 0)
(1 2.03068e-15 0)
(1 -2.86896e-15 0)
(1 -2.97794e-16 0)
(1 -1.44346e-16 0)
(1 -6.74126e-15 0)
(1 1.73516e-15 0)
(1 4.15564e-18 0)
(1 -4.6872e-16 0)
(1 1.14788e-16 0)
(1 -9.63798e-16 0)
(1 1.96613e-17 0)
(1 -2.98843e-15 0)
(1 -2.0707e-15 0)
(1 -2.38926e-15 0)
(1 2.013e-16 0)
(1 -2.4005e-15 0)
(1 4.27483e-15 0)
(1 -5.47952e-16 0)
(1 2.00905e-16 0)
(1 -2.14568e-15 0)
(1 4.15949e-15 0)
(1 -2.82072e-16 0)
(1 7.04575e-15 0)
(1 7.09456e-15 0)
(1 6.76691e-15 0)
(1 -1.75883e-15 0)
(1 -2.29409e-15 0)
(1 -5.33366e-15 0)
(1 -6.88921e-15 0)
(1 3.67948e-16 0)
(1 3.71163e-15 0)
(1 1.14001e-15 0)
(1 -3.66079e-15 0)
(1 1.56838e-15 0)
(1 -4.48122e-17 0)
(1 1.90404e-15 0)
(1 3.35999e-16 0)
(1 9.73936e-16 0)
(1 2.76586e-15 0)
(1 2.20802e-15 0)
(1 3.53781e-15 0)
(1 1.8131e-15 0)
(1 1.08048e-15 0)
(1 -1.19155e-15 0)
(1 3.68478e-15 0)
(1 3.82867e-16 0)
(1 2.23477e-15 0)
(1 -1.96682e-15 0)
(1 7.66152e-16 0)
(1 -2.87762e-15 0)
(1 -9.61664e-16 0)
(1 -1.57276e-15 0)
(1 1.49242e-15 0)
(1 -7.8976e-16 0)
(1 4.68974e-16 0)
(1 5.42395e-17 0)
(1 -5.65898e-16 0)
(1 -4.34166e-15 0)
(1 -3.59576e-15 0)
(1 -1.28111e-15 0)
(1 -2.76408e-15 0)
(1 -2.8879e-15 0)
(1 -4.18913e-15 0)
(1 -5.79312e-15 0)
(1 1.16814e-15 0)
(1 3.55292e-16 0)
(1 2.38133e-15 0)
(1 3.11908e-15 0)
(1 9.88461e-16 0)
(1 -7.38645e-16 0)
(1 8.64759e-16 0)
(1 -1.38216e-15 0)
(1 -1.18007e-15 0)
(1 -4.81104e-16 0)
(1 1.47635e-17 0)
(1 3.57843e-16 0)
(1 4.08566e-15 0)
(1 1.93004e-15 0)
(1 5.24735e-15 0)
(1 1.72521e-15 0)
(1 -7.3181e-17 0)
(1 -2.64661e-15 0)
(1 -1.59411e-15 0)
(1 -1.11555e-15 0)
(1 6.44068e-16 0)
(1 3.35113e-16 0)
(1 -1.21513e-15 0)
(1 3.95759e-15 0)
(1 2.26065e-15 0)
(1 7.94935e-16 0)
(1 4.89136e-15 0)
(1 -3.37146e-15 0)
(1 -4.07971e-15 0)
(1 1.34376e-15 0)
(1 -3.76862e-15 0)
(1 3.72388e-15 0)
(1 -3.18552e-15 0)
(1 -5.54348e-15 0)
(1 -3.37451e-15 0)
(1 9.77889e-15 0)
(1 5.00224e-15 0)
(1 7.67678e-16 0)
(1 1.12016e-15 0)
(1 2.64212e-15 0)
(1 -1.11841e-15 0)
(1 1.89629e-16 0)
(1 -1.19572e-15 0)
(1 -3.27361e-15 0)
(1 -1.38051e-15 0)
(1 -2.01365e-15 0)
(1 1.0488e-15 0)
(1 -6.7595e-15 0)
(1 -4.26848e-15 0)
(1 -3.21425e-15 0)
(1 -9.30322e-16 0)
(1 -1.80718e-15 0)
(1 9.02113e-16 0)
(1 1.29098e-16 0)
(1 1.39944e-16 0)
(1 -1.69898e-15 0)
(1 1.91421e-15 0)
(1 -2.49163e-15 0)
(1 1.09374e-14 0)
(1 6.60214e-15 0)
(1 5.12406e-15 0)
(1 -3.2817e-15 0)
(1 -2.97105e-16 0)
(1 -8.655e-15 0)
(1 -5.94219e-15 0)
(1 1.61667e-15 0)
(1 2.40773e-15 0)
(1 -4.84148e-15 0)
(1 -4.40534e-15 0)
(1 1.39498e-15 0)
(1 4.35636e-15 0)
(1 5.15994e-15 0)
(1 -1.62778e-15 0)
(1 -1.13953e-15 0)
(1 -1.63046e-15 0)
(1 -1.46195e-15 0)
(1 -1.22136e-15 0)
(1 4.53124e-15 0)
(1 5.19966e-15 0)
(1 -8.85166e-16 0)
(1 1.76331e-15 0)
(1 -1.37175e-16 0)
(1 -4.30415e-15 0)
(1 -5.17456e-15 0)
(1 -1.55321e-15 0)
(1 2.70842e-15 0)
(1 3.32926e-15 0)
(1 6.35679e-16 0)
(1 3.70736e-15 0)
(1 -1.43105e-15 0)
(1 2.34061e-15 0)
(1 -1.37249e-15 0)
(1 -5.70606e-15 0)
(1 -1.56581e-15 0)
(1 3.81381e-15 0)
(1 9.02757e-15 0)
(1 2.64031e-15 0)
(1 6.8419e-16 0)
(1 -5.69694e-15 0)
(1 -3.29074e-15 0)
(1 1.50543e-15 0)
(1 -1.11171e-16 0)
(1 5.24253e-15 0)
(1 7.03125e-15 0)
(1 -1.09629e-15 0)
(1 -4.45697e-15 0)
(1 2.34982e-15 0)
(1 -2.43571e-16 0)
(1 1.56177e-15 0)
(1 1.44932e-17 0)
(1 -2.2208e-15 0)
(1 -2.19997e-15 0)
(1 5.33433e-16 0)
(1 1.25064e-15 0)
(1 2.19984e-15 0)
(1 9.51782e-16 0)
(1 -1.38276e-15 0)
(1 -7.1327e-15 0)
(1 3.40076e-16 0)
(1 -1.27296e-15 0)
(1 2.97677e-15 0)
(1 3.06546e-16 0)
(1 -6.28785e-16 0)
(1 -2.7055e-15 0)
(1 3.73928e-15 0)
(1 -7.57526e-15 0)
(1 5.66052e-15 0)
(1 -5.30954e-16 0)
(1 3.10628e-16 0)
(1 3.01353e-15 0)
(1 4.35204e-15 0)
(1 -3.94118e-16 0)
(1 -3.31383e-15 0)
(1 -6.40675e-15 0)
(1 6.08828e-16 0)
(1 6.67294e-15 0)
(1 7.5031e-15 0)
(1 1.42535e-15 0)
(1 -4.7918e-16 0)
(1 -1.97815e-15 0)
(1 8.96798e-17 0)
(1 1.74517e-15 0)
(1 1.03905e-15 0)
(1 -1.15594e-15 0)
(1 -2.74508e-15 0)
(1 5.74057e-16 0)
(1 8.19226e-16 0)
(1 1.27378e-16 0)
(1 5.16757e-15 0)
(1 6.58547e-15 0)
(1 4.96036e-15 0)
(1 1.50892e-15 0)
(1 -3.22484e-15 0)
(1 -8.13485e-17 0)
(1 -2.03081e-15 0)
(1 -1.60754e-15 0)
(1 -9.85182e-15 0)
(1 7.21469e-16 0)
(1 8.03372e-15 0)
(1 9.67358e-16 0)
(1 5.99154e-15 0)
(1 5.23331e-15 0)
(1 4.66707e-15 0)
(1 6.56159e-15 0)
(1 -4.59742e-15 0)
(1 -6.70804e-16 0)
(1 -5.71507e-15 0)
(1 -4.4701e-15 0)
(1 -2.47616e-16 0)
(1 4.66637e-15 0)
(1 5.52005e-15 0)
(1 -3.39538e-15 0)
(1 -5.07689e-15 0)
(1 -2.2099e-15 0)
(1 -1.21187e-15 0)
(1 1.70163e-15 0)
(1 4.45084e-16 0)
(1 4.40932e-15 0)
(1 5.01521e-15 0)
(1 1.78996e-15 0)
(1 1.47327e-16 0)
(1 -3.24269e-15 0)
(1 -5.53978e-15 0)
(1 -1.27112e-15 0)
(1 -4.28581e-15 0)
(1 3.20018e-15 0)
(1 4.42767e-15 0)
(1 1.1477e-15 0)
(1 1.5954e-15 0)
(1 -3.17701e-16 0)
(1 2.57681e-16 0)
(1 -2.18236e-15 0)
(1 -1.9576e-15 0)
(1 4.91261e-16 0)
(1 -1.97378e-15 0)
(1 2.40342e-15 0)
(1 -5.05074e-16 0)
(1 3.97185e-16 0)
(1 -3.63942e-15 0)
(1 -2.51444e-15 0)
(1 1.0442e-16 0)
(1 -3.47901e-16 0)
(1 8.97773e-16 0)
(1 3.00025e-15 0)
(1 1.32612e-15 0)
(1 -4.33314e-15 0)
(1 -9.25515e-16 0)
(1 2.53987e-16 0)
(1 4.99369e-15 0)
(1 3.66822e-15 0)
(1 -8.9401e-16 0)
(1 -2.45079e-15 0)
(1 -7.79615e-16 0)
(1 -7.03624e-16 0)
(1 5.09471e-16 0)
(1 -7.39963e-16 0)
(1 -8.81148e-16 0)
(1 -3.76933e-15 0)
(1 -5.95821e-16 0)
(1 -3.13282e-15 0)
(1 5.50213e-16 0)
(1 8.28354e-16 0)
(1 -1.28022e-16 0)
(1 -2.41519e-16 0)
(1 -3.44531e-15 0)
(1 -7.77393e-15 0)
(1 -2.05148e-15 0)
(1 2.9059e-15 0)
(1 3.04095e-15 0)
(1 6.17673e-15 0)
(1 3.82982e-15 0)
(1 -3.78377e-16 0)
(1 -2.93287e-15 0)
(1 -3.97971e-15 0)
(1 7.06928e-15 0)
(1 7.77106e-15 0)
(1 1.11135e-14 0)
(1 -3.49158e-15 0)
(1 -1.02121e-15 0)
(1 1.0076e-15 0)
(1 -6.95826e-15 0)
(1 -2.05617e-15 0)
(1 3.36094e-15 0)
(1 4.54906e-15 0)
(1 2.77158e-15 0)
(1 8.85116e-15 0)
(1 6.848e-15 0)
(1 7.00664e-15 0)
(1 5.76577e-15 0)
(1 2.50774e-16 0)
(1 1.95161e-15 0)
(1 5.07126e-16 0)
(1 -2.24069e-15 0)
(1 -5.30303e-15 0)
(1 -1.09703e-15 0)
(1 -7.97141e-15 0)
(1 -1.09382e-14 0)
(1 -4.8135e-16 0)
(1 4.27319e-16 0)
(1 4.77066e-15 0)
(1 9.25292e-15 0)
(1 1.20099e-14 0)
(1 2.69302e-15 0)
(1 9.77539e-15 0)
(1 -8.3023e-15 0)
(1 -6.61525e-15 0)
(1 -8.08176e-15 0)
(1 5.09757e-15 0)
(1 5.1334e-15 0)
(1 1.03098e-14 0)
(1 4.56124e-15 0)
(1 9.27022e-16 0)
(1 -4.2509e-15 0)
(1 -1.79388e-15 0)
(1 1.20568e-15 0)
(1 -7.83052e-16 0)
(1 2.18935e-15 0)
(1 -3.1306e-15 0)
(1 -2.08651e-15 0)
(1 5.93188e-15 0)
(1 -1.23177e-16 0)
(1 -9.05201e-15 0)
(1 2.06849e-15 0)
(1 -4.1926e-16 0)
(1 -3.21565e-15 0)
(1 5.86336e-16 0)
(1 9.28042e-16 0)
(1 3.17478e-15 0)
(1 -2.99205e-16 0)
(1 -6.50041e-16 0)
(1 -5.3718e-15 0)
(1 -1.4021e-15 0)
(1 3.08579e-16 0)
(1 -4.05172e-15 0)
(1 -9.1524e-15 0)
(1 -8.03523e-15 0)
(1 -7.94946e-15 0)
(1 -9.92445e-16 0)
(1 1.44611e-15 0)
(1 -2.33251e-16 0)
(1 2.18171e-15 0)
(1 6.10676e-15 0)
(1 1.1448e-15 0)
(1 2.48716e-15 0)
(1 3.68995e-15 0)
(1 -7.64364e-16 0)
(1 -4.28512e-15 0)
(1 -3.10405e-16 0)
(1 4.55809e-15 0)
(1 1.13144e-14 0)
(1 6.34027e-15 0)
(1 3.73455e-15 0)
(1 1.92202e-15 0)
(1 -1.33656e-15 0)
(1 2.35694e-15 0)
(1 -7.58639e-16 0)
(1 -6.61095e-16 0)
(1 -2.33806e-15 0)
(1 -4.97979e-15 0)
(1 -5.01598e-15 0)
(1 -5.35932e-15 0)
(1 -3.82406e-15 0)
(1 4.54988e-16 0)
(1 4.63901e-15 0)
(1 -4.08084e-15 0)
(1 1.34289e-15 0)
(1 -2.85369e-15 0)
(1 1.11826e-14 0)
(1 1.83467e-15 0)
(1 -4.77291e-15 0)
(1 -6.42963e-15 0)
(1 -8.7631e-15 0)
(1 -4.61359e-15 0)
(1 4.3904e-15 0)
(1 2.32115e-15 0)
(1 4.7975e-15 0)
(1 3.06258e-15 0)
(1 9.17943e-15 0)
(1 -5.13358e-16 0)
(1 -2.43265e-15 0)
(1 -9.55904e-16 0)
(1 -1.77715e-15 0)
(1 -7.06192e-15 0)
(1 2.06865e-15 0)
(1 -1.49691e-16 0)
(1 6.05967e-15 0)
(1 8.7762e-15 0)
(1 1.52827e-14 0)
(1 1.01926e-14 0)
(1 3.39809e-15 0)
(1 5.84726e-16 0)
(1 4.86174e-15 0)
(1 -7.0888e-16 0)
(1 -4.20048e-15 0)
(1 -2.53783e-15 0)
(1 -5.34404e-15 0)
(1 3.01795e-15 0)
(1 -8.92584e-15 0)
(1 -7.09928e-15 0)
(1 1.33472e-15 0)
(1 -7.68812e-19 0)
(1 6.57017e-15 0)
(1 4.07396e-15 0)
(1 2.00448e-15 0)
(1 9.49963e-16 0)
(1 -6.81819e-15 0)
(1 -3.20796e-15 0)
(1 -2.74127e-15 0)
(1 3.12863e-15 0)
(1 5.06593e-15 0)
(1 5.34419e-15 0)
(1 5.25581e-15 0)
(1 -1.64412e-15 0)
(1 -4.88065e-16 0)
(1 -3.83981e-15 0)
(1 -3.70852e-15 0)
(1 -2.17286e-15 0)
(1 -4.2656e-15 0)
(1 -3.60608e-16 0)
(1 8.90415e-15 0)
(1 1.11352e-15 0)
(1 -6.98135e-16 0)
(1 6.43071e-15 0)
(1 5.52582e-17 0)
(1 -1.50362e-15 0)
(1 4.6592e-15 0)
(1 2.18072e-15 0)
(1 5.43404e-15 0)
(1 4.26526e-15 0)
(1 -4.2678e-16 0)
(1 -5.64971e-15 0)
(1 -3.39681e-19 0)
(1 -1.30629e-15 0)
(1 -6.54889e-15 0)
(1 9.72804e-16 0)
(1 -1.51635e-15 0)
(1 -1.5672e-15 0)
(1 5.16072e-16 0)
(1 -1.87819e-15 0)
(1 -2.00342e-15 0)
(1 -3.25577e-15 0)
(1 6.36969e-15 0)
(1 7.80184e-15 0)
(1 2.05979e-15 0)
(1 -1.76095e-16 0)
(1 2.81298e-15 0)
(1 7.8275e-16 0)
(1 5.10103e-15 0)
(1 3.58676e-15 0)
(1 6.93835e-15 0)
(1 2.94172e-15 0)
(1 3.94815e-15 0)
(1 -1.83406e-15 0)
(1 1.53523e-15 0)
(1 -2.71464e-15 0)
(1 2.73584e-15 0)
(1 4.08298e-16 0)
(1 2.03607e-15 0)
(1 -2.94205e-15 0)
(1 -5.08565e-15 0)
(1 -4.71437e-15 0)
(1 2.23509e-15 0)
(1 4.63844e-15 0)
(1 -1.02175e-15 0)
(1 1.49937e-15 0)
(1 5.15503e-16 0)
(1 1.86231e-15 0)
(1 1.59067e-15 0)
(1 3.53232e-15 0)
(1 -9.48197e-15 0)
(1 -6.76118e-15 0)
(1 -8.74323e-15 0)
(1 -4.89162e-15 0)
(1 7.82433e-15 0)
(1 6.53555e-17 0)
(1 5.36378e-15 0)
(1 2.12735e-15 0)
(1 1.29791e-14 0)
(1 2.43382e-15 0)
(1 -6.42154e-15 0)
(1 -6.94487e-15 0)
(1 -2.6096e-16 0)
(1 -8.60459e-15 0)
(1 1.0998e-14 0)
(1 1.56565e-14 0)
(1 1.05312e-14 0)
(1 2.71727e-15 0)
(1 6.25016e-15 0)
(1 8.64093e-16 0)
(1 1.29793e-15 0)
(1 3.96761e-15 0)
(1 1.84469e-15 0)
(1 -1.31853e-15 0)
(1 -4.64434e-15 0)
(1 -6.86193e-15 0)
(1 -4.47517e-15 0)
(1 4.94977e-15 0)
(1 1.39754e-15 0)
(1 -8.12198e-17 0)
(1 3.34423e-15 0)
(1 3.73678e-15 0)
(1 6.72139e-15 0)
(1 2.40104e-16 0)
(1 2.84795e-15 0)
(1 2.7446e-15 0)
(1 1.78498e-15 0)
(1 4.739e-15 0)
(1 -3.35864e-16 0)
(1 2.71517e-15 0)
(1 1.34696e-15 0)
(1 4.3321e-15 0)
(1 -5.50849e-16 0)
(1 -2.54366e-15 0)
(1 -2.63935e-15 0)
(1 2.81969e-15 0)
(1 3.29747e-15 0)
(1 -6.86512e-15 0)
(1 -7.6838e-15 0)
(1 1.8928e-15 0)
(1 6.04075e-15 0)
(1 6.69092e-15 0)
(1 9.65712e-15 0)
(1 6.42576e-15 0)
(1 6.19766e-16 0)
(1 4.51364e-16 0)
(1 3.75572e-15 0)
(1 -1.41826e-16 0)
(1 2.44762e-15 0)
(1 3.85083e-15 0)
(1 1.31845e-15 0)
(1 7.66378e-15 0)
(1 9.73606e-15 0)
(1 1.10244e-14 0)
(1 9.0707e-16 0)
(1 -9.16233e-17 0)
(1 -2.72668e-15 0)
(1 -1.26783e-15 0)
(1 -5.71953e-15 0)
(1 -9.29933e-15 0)
(1 -1.06321e-15 0)
(1 2.58313e-16 0)
(1 7.65833e-16 0)
(1 3.85777e-15 0)
(1 2.19303e-15 0)
(1 5.7915e-15 0)
(1 2.11461e-15 0)
(1 2.16218e-15 0)
(1 -3.0733e-16 0)
(1 -1.37579e-15 0)
(1 2.88823e-15 0)
(1 1.7024e-15 0)
(1 1.44577e-15 0)
(1 8.78447e-16 0)
(1 -1.0065e-15 0)
(1 1.26151e-15 0)
(1 3.91723e-16 0)
(1 8.2193e-15 0)
(1 3.29966e-15 0)
(1 3.20878e-15 0)
(1 2.15785e-15 0)
(1 1.92582e-15 0)
(1 9.27614e-15 0)
(1 6.81596e-15 0)
(1 -5.11398e-16 0)
(1 -8.94749e-16 0)
(1 7.88708e-15 0)
(1 3.2886e-15 0)
(1 -3.32083e-15 0)
(1 2.37211e-15 0)
(1 -6.62996e-16 0)
(1 -5.91635e-15 0)
(1 -4.67215e-16 0)
(1 8.19607e-16 0)
(1 -4.28657e-15 0)
(1 8.82247e-16 0)
(1 3.33639e-15 0)
(1 7.51993e-15 0)
(1 5.53341e-16 0)
(1 3.49689e-15 0)
(1 -6.40475e-16 0)
(1 -5.7849e-15 0)
(1 -6.80092e-15 0)
(1 7.50775e-15 0)
(1 1.06667e-14 0)
(1 1.76102e-14 0)
(1 1.22357e-15 0)
(1 -1.3469e-15 0)
(1 -1.06104e-15 0)
(1 1.60101e-15 0)
(1 -1.00938e-15 0)
(1 1.99171e-15 0)
(1 7.82888e-16 0)
(1 1.81809e-15 0)
(1 -1.1392e-16 0)
(1 8.89355e-16 0)
(1 -4.81486e-16 0)
(1 -5.59475e-15 0)
(1 3.98072e-16 0)
(1 -4.6358e-16 0)
(1 3.11671e-15 0)
(1 2.42619e-15 0)
(1 5.7092e-15 0)
(1 5.98892e-15 0)
(1 1.75372e-14 0)
(1 5.46323e-15 0)
(1 6.75716e-15 0)
(1 -1.62864e-15 0)
(1 4.26654e-15 0)
(1 3.96847e-16 0)
(1 -3.87914e-15 0)
(1 -2.55538e-15 0)
(1 4.70897e-16 0)
(1 2.70146e-15 0)
(1 -3.25974e-16 0)
(1 -7.85997e-15 0)
(1 -7.54693e-15 0)
(1 -3.30778e-15 0)
(1 -2.30891e-15 0)
(1 2.754e-15 0)
(1 1.16785e-15 0)
(1 5.54015e-15 0)
(1 5.22287e-15 0)
(1 4.34689e-16 0)
(1 6.21929e-15 0)
(1 9.62316e-15 0)
(1 4.98942e-15 0)
(1 2.57196e-15 0)
(1 2.16041e-15 0)
(1 -4.46279e-15 0)
(1 -2.97411e-15 0)
(1 6.18637e-15 0)
(1 5.18615e-15 0)
(1 2.19357e-15 0)
(1 2.66489e-15 0)
(1 -4.11555e-15 0)
(1 -5.52726e-15 0)
(1 5.07636e-16 0)
(1 -2.01724e-15 0)
(1 2.5882e-15 0)
(1 6.98507e-15 0)
(1 1.05848e-14 0)
(1 2.74548e-15 0)
(1 3.18926e-15 0)
(1 3.4421e-15 0)
(1 1.77677e-15 0)
(1 3.84162e-15 0)
(1 -4.1531e-16 0)
(1 1.12417e-15 0)
(1 6.78678e-15 0)
(1 9.47309e-15 0)
(1 5.47052e-15 0)
(1 3.1127e-15 0)
(1 3.48478e-15 0)
(1 9.01415e-16 0)
(1 7.23672e-15 0)
(1 5.57241e-15 0)
(1 5.98984e-15 0)
(1 1.88766e-15 0)
(1 7.05347e-15 0)
(1 1.08195e-14 0)
(1 8.45652e-15 0)
(1 4.89459e-15 0)
(1 8.16475e-15 0)
(1 5.73265e-16 0)
(1 3.27664e-16 0)
(1 8.86941e-16 0)
(1 -4.53721e-17 0)
(1 3.4662e-15 0)
(1 -2.12778e-15 0)
(1 2.42055e-15 0)
(1 -3.68112e-15 0)
(1 -3.70098e-15 0)
(1 2.17135e-15 0)
(1 -7.39839e-15 0)
(1 5.43431e-15 0)
(1 1.06767e-15 0)
(1 9.56618e-15 0)
(1 -1.38153e-15 0)
(1 1.75392e-15 0)
(1 -1.77181e-15 0)
(1 7.42668e-15 0)
(1 -3.93574e-15 0)
(1 1.18197e-14 0)
(1 -1.52432e-15 0)
(1 3.24009e-15 0)
(1 -5.30746e-15 0)
(1 -3.02766e-16 0)
(1 -4.45656e-15 0)
(1 6.5463e-15 0)
(1 3.04684e-15 0)
(1 -7.73886e-16 0)
(1 5.56327e-15 0)
(1 8.32965e-15 0)
(1 1.60862e-16 0)
(1 1.05959e-15 0)
(1 -4.20257e-15 0)
(1 -7.2594e-15 0)
(1 -6.28175e-15 0)
(1 -2.24188e-15 0)
(1 -8.24691e-16 0)
(1 1.85321e-15 0)
(1 7.75855e-15 0)
(1 1.45691e-14 0)
(1 6.12079e-15 0)
(1 -1.92152e-15 0)
(1 -1.86506e-15 0)
(1 -3.32793e-15 0)
(1 4.16927e-15 0)
(1 6.84931e-15 0)
(1 6.36582e-16 0)
(1 2.91104e-15 0)
(1 3.70564e-15 0)
(1 4.45981e-15 0)
(1 4.30705e-15 0)
(1 -2.68366e-15 0)
(1 -3.161e-15 0)
(1 3.16611e-15 0)
(1 6.80929e-15 0)
(1 7.6548e-16 0)
(1 -1.87731e-16 0)
(1 -5.50245e-15 0)
(1 1.71441e-15 0)
(1 -2.07625e-15 0)
(1 1.49751e-14 0)
(1 1.20382e-14 0)
(1 5.5572e-15 0)
(1 6.69057e-15 0)
(1 4.94703e-15 0)
(1 -1.63186e-15 0)
(1 4.71626e-17 0)
(1 3.53341e-16 0)
(1 -4.88458e-16 0)
(1 1.19122e-16 0)
(1 7.01972e-15 0)
(1 5.18137e-15 0)
(1 4.67936e-16 0)
(1 1.87547e-15 0)
(1 4.33744e-15 0)
(1 4.29351e-15 0)
(1 -1.5648e-15 0)
(1 4.26672e-15 0)
(1 6.41979e-15 0)
(1 3.3426e-15 0)
(1 2.62864e-15 0)
(1 -3.05443e-15 0)
(1 2.75353e-15 0)
(1 1.15361e-16 0)
(1 3.22246e-15 0)
(1 5.24389e-15 0)
(1 2.79407e-15 0)
(1 -6.4102e-16 0)
(1 1.81023e-15 0)
(1 1.71306e-16 0)
(1 4.20625e-15 0)
(1 4.43427e-15 0)
(1 7.46101e-15 0)
(1 6.35874e-15 0)
(1 1.05505e-14 0)
(1 6.31257e-15 0)
(1 6.36099e-15 0)
(1 1.08122e-14 0)
(1 6.78078e-15 0)
(1 1.3405e-14 0)
(1 -2.24925e-15 0)
(1 -7.49856e-16 0)
(1 -4.52453e-15 0)
(1 -5.99073e-15 0)
(1 -4.05501e-15 0)
(1 -1.51348e-15 0)
(1 -1.96804e-15 0)
(1 3.76839e-15 0)
(1 -3.39538e-15 0)
(1 2.04374e-15 0)
(1 -3.44573e-15 0)
(1 8.17005e-15 0)
(1 1.06175e-14 0)
(1 9.9651e-15 0)
(1 -2.8162e-15 0)
(1 -1.87243e-15 0)
(1 -3.83093e-17 0)
(1 7.52842e-15 0)
(1 -3.05635e-15 0)
(1 1.39384e-15 0)
(1 -5.58635e-15 0)
(1 5.66985e-15 0)
(1 1.27463e-14 0)
(1 1.38936e-14 0)
(1 -1.31192e-16 0)
(1 2.18733e-15 0)
(1 -6.43185e-15 0)
(1 -4.54242e-15 0)
(1 -1.68578e-16 0)
(1 -2.63878e-15 0)
(1 -6.80702e-15 0)
(1 -5.02339e-15 0)
(1 -1.03636e-14 0)
(1 -7.50307e-15 0)
(1 7.7702e-16 0)
(1 7.14567e-15 0)
(1 5.19861e-15 0)
(1 5.26816e-15 0)
(1 6.79969e-15 0)
(1 6.1107e-15 0)
(1 -1.11327e-14 0)
(1 -1.56301e-15 0)
(1 4.50391e-16 0)
(1 3.84611e-15 0)
(1 8.29645e-15 0)
(1 9.97364e-15 0)
(1 7.8125e-15 0)
(1 3.54701e-15 0)
(1 1.97332e-15 0)
(1 -3.37782e-15 0)
(1 2.9677e-15 0)
(1 1.11045e-14 0)
(1 7.3505e-15 0)
(1 -4.146e-15 0)
(1 5.15977e-15 0)
(1 1.99712e-15 0)
(1 3.78845e-15 0)
(1 -1.15471e-15 0)
(1 3.8716e-15 0)
(1 1.87472e-15 0)
(1 6.11416e-15 0)
(1 -9.86037e-16 0)
(1 -1.20354e-16 0)
(1 -3.26834e-15 0)
(1 -1.96012e-15 0)
(1 1.70121e-15 0)
(1 1.04724e-14 0)
(1 1.56429e-14 0)
(1 1.241e-14 0)
(1 1.33852e-14 0)
(1 1.38678e-14 0)
(1 1.12782e-14 0)
(1 7.76144e-15 0)
(1 7.33323e-16 0)
(1 1.45463e-15 0)
(1 -2.67681e-15 0)
(1 -1.13626e-15 0)
(1 4.83295e-15 0)
(1 4.4477e-15 0)
(1 3.76507e-15 0)
(1 7.64666e-15 0)
(1 7.69628e-15 0)
(1 1.98235e-15 0)
(1 -5.39025e-16 0)
(1 -7.2572e-16 0)
(1 -2.18339e-15 0)
(1 -2.7641e-15 0)
(1 -1.77998e-15 0)
(1 1.23947e-15 0)
(1 -1.51557e-15 0)
(1 4.69366e-15 0)
(1 2.55917e-15 0)
(1 6.68889e-15 0)
(1 1.06937e-14 0)
(1 1.88543e-14 0)
(1 1.78966e-14 0)
(1 1.7767e-14 0)
(1 1.68495e-14 0)
(1 1.87106e-14 0)
(1 2.17908e-14 0)
(1 -2.02977e-16 0)
(1 2.83278e-15 0)
(1 4.69693e-15 0)
(1 2.47017e-15 0)
(1 -7.77554e-15 0)
(1 1.899e-15 0)
(1 -2.07875e-15 0)
(1 -5.48888e-16 0)
(1 1.65238e-15 0)
(1 -3.78229e-15 0)
(1 -3.54452e-15 0)
(1 -2.16391e-15 0)
(1 5.46602e-15 0)
(1 -8.46966e-16 0)
(1 5.67681e-15 0)
(1 1.24837e-15 0)
(1 2.40744e-15 0)
(1 5.32072e-15 0)
(1 6.47375e-15 0)
(1 -1.13783e-15 0)
(1 -7.50757e-15 0)
(1 -1.34569e-14 0)
(1 5.85985e-15 0)
(1 1.0607e-14 0)
(1 6.87379e-15 0)
(1 4.71547e-15 0)
(1 5.43942e-15 0)
(1 8.12624e-16 0)
(1 -6.72155e-15 0)
(1 -4.53098e-15 0)
(1 3.26727e-15 0)
(1 9.05276e-16 0)
(1 3.55205e-15 0)
(1 -5.1021e-15 0)
(1 -2.4743e-15 0)
(1 -5.49394e-15 0)
(1 -8.40789e-16 0)
(1 1.82687e-15 0)
(1 2.74374e-15 0)
(1 2.00618e-15 0)
(1 -2.12956e-15 0)
(1 6.26169e-15 0)
(1 4.88852e-15 0)
(1 6.23226e-15 0)
(1 7.44039e-15 0)
(1 1.20664e-15 0)
(1 1.51209e-15 0)
(1 -1.75271e-15 0)
(1 3.35576e-15 0)
(1 5.73543e-15 0)
(1 2.79007e-15 0)
(1 1.52793e-15 0)
(1 3.50119e-15 0)
(1 4.85367e-15 0)
(1 5.2154e-15 0)
(1 6.1229e-15 0)
(1 4.53577e-15 0)
(1 6.77534e-15 0)
(1 -3.33716e-15 0)
(1 4.28133e-15 0)
(1 2.08052e-15 0)
(1 2.20696e-15 0)
(1 5.57405e-15 0)
(1 4.42417e-15 0)
(1 1.48163e-15 0)
(1 4.84866e-15 0)
(1 1.31242e-14 0)
(1 1.3297e-14 0)
(1 1.70663e-14 0)
(1 1.0958e-14 0)
(1 7.11199e-15 0)
(1 3.85103e-15 0)
(1 3.9092e-15 0)
(1 -2.01124e-16 0)
(1 1.2806e-15 0)
(1 2.29235e-15 0)
(1 8.3603e-15 0)
(1 5.71395e-15 0)
(1 5.07399e-15 0)
(1 2.01861e-15 0)
(1 4.77339e-15 0)
(1 1.25918e-16 0)
(1 1.03834e-15 0)
(1 1.78447e-15 0)
(1 -3.09974e-15 0)
(1 4.15129e-15 0)
(1 8.54105e-16 0)
(1 1.5723e-15 0)
(1 5.16558e-15 0)
(1 8.31984e-17 0)
(1 9.48445e-15 0)
(1 3.87002e-15 0)
(1 7.5856e-15 0)
(1 8.04756e-15 0)
(1 1.63786e-14 0)
(1 1.55692e-14 0)
(1 1.64229e-14 0)
(1 1.47562e-14 0)
(1 2.76416e-14 0)
(1 2.44989e-14 0)
(1 1.03733e-15 0)
(1 3.04975e-17 0)
(1 2.12659e-15 0)
(1 -3.22732e-16 0)
(1 -7.10584e-15 0)
(1 -3.5176e-15 0)
(1 -4.07891e-16 0)
(1 -7.36757e-15 0)
(1 -1.88476e-16 0)
(1 -4.54744e-16 0)
(1 1.21938e-15 0)
(1 -8.60398e-15 0)
(1 -6.53129e-15 0)
(1 2.21591e-15 0)
(1 9.83859e-15 0)
(1 1.29053e-14 0)
(1 1.65857e-14 0)
(1 4.554e-15 0)
(1 1.40154e-14 0)
(1 3.10475e-16 0)
(1 3.088e-16 0)
(1 -1.34737e-14 0)
(1 -8.42122e-15 0)
(1 -9.99068e-15 0)
(1 -4.76471e-15 0)
(1 -9.16026e-15 0)
(1 7.65896e-15 0)
(1 -8.5759e-16 0)
(1 -4.86589e-15 0)
(1 1.42896e-15 0)
(1 6.94259e-15 0)
(1 -5.78934e-15 0)
(1 -6.62118e-16 0)
(1 2.77549e-15 0)
(1 -7.99847e-16 0)
(1 -6.45367e-15 0)
(1 -8.25624e-16 0)
(1 5.31469e-15 0)
(1 -1.66164e-15 0)
(1 -5.78967e-16 0)
(1 -3.71811e-15 0)
(1 1.92122e-15 0)
(1 3.29949e-15 0)
(1 8.24399e-15 0)
(1 5.73985e-15 0)
(1 5.03567e-15 0)
(1 1.07297e-14 0)
(1 4.83659e-15 0)
(1 7.19361e-15 0)
(1 1.84492e-15 0)
(1 3.97918e-15 0)
(1 -1.24662e-16 0)
(1 3.07556e-15 0)
(1 8.52163e-15 0)
(1 3.03049e-15 0)
(1 2.95539e-15 0)
(1 5.36786e-15 0)
(1 1.14989e-15 0)
(1 1.02446e-15 0)
(1 1.50649e-15 0)
(1 6.399e-15 0)
(1 2.19878e-15 0)
(1 3.2088e-15 0)
(1 4.10063e-15 0)
(1 5.3293e-15 0)
(1 1.15791e-14 0)
(1 8.25905e-15 0)
(1 3.24958e-15 0)
(1 9.26687e-15 0)
(1 1.21982e-14 0)
(1 1.5653e-14 0)
(1 8.90879e-15 0)
(1 3.81148e-15 0)
(1 -3.0548e-15 0)
(1 6.79452e-16 0)
(1 3.46177e-15 0)
(1 1.01061e-14 0)
(1 9.68851e-15 0)
(1 1.01712e-14 0)
(1 6.51997e-15 0)
(1 2.47437e-15 0)
(1 2.40572e-15 0)
(1 2.5288e-15 0)
(1 5.49847e-15 0)
(1 -2.86058e-15 0)
(1 -5.74924e-15 0)
(1 -2.85015e-15 0)
(1 4.17511e-15 0)
(1 1.52771e-15 0)
(1 1.67145e-15 0)
(1 3.93508e-15 0)
(1 6.63118e-15 0)
(1 1.03061e-14 0)
(1 9.66638e-15 0)
(1 1.57058e-14 0)
(1 7.02452e-15 0)
(1 1.07349e-14 0)
(1 9.46543e-15 0)
(1 1.98055e-14 0)
(1 1.67358e-14 0)
(1 2.33785e-15 0)
(1 -3.8066e-15 0)
(1 3.67884e-15 0)
(1 -1.02267e-15 0)
(1 -2.21244e-15 0)
(1 -4.02175e-15 0)
(1 -1.65883e-15 0)
(1 -3.30411e-15 0)
(1 -7.63738e-15 0)
(1 2.84233e-15 0)
(1 4.87773e-15 0)
(1 5.64747e-15 0)
(1 1.72142e-15 0)
(1 3.12689e-15 0)
(1 -7.19948e-15 0)
(1 -9.08082e-16 0)
(1 7.86503e-15 0)
(1 3.01089e-17 0)
(1 5.05567e-15 0)
(1 -9.18538e-15 0)
(1 6.25815e-15 0)
(1 4.93236e-15 0)
(1 2.11257e-15 0)
(1 3.29564e-15 0)
(1 5.82461e-15 0)
(1 2.01689e-15 0)
(1 -2.26579e-17 0)
(1 -2.87825e-16 0)
(1 2.35137e-15 0)
(1 2.02789e-15 0)
(1 -3.59744e-15 0)
(1 -5.62932e-15 0)
(1 -6.08448e-15 0)
(1 1.18539e-15 0)
(1 -4.19283e-15 0)
(1 -1.48188e-15 0)
(1 -3.98135e-15 0)
(1 1.30411e-15 0)
(1 -2.81033e-15 0)
(1 -3.51059e-15 0)
(1 5.0794e-15 0)
(1 7.36806e-15 0)
(1 6.72345e-15 0)
(1 6.71332e-15 0)
(1 -3.85484e-16 0)
(1 4.80338e-15 0)
(1 1.16672e-14 0)
(1 9.93834e-15 0)
(1 4.72211e-15 0)
(1 -1.76292e-15 0)
(1 1.46599e-15 0)
(1 -2.79176e-15 0)
(1 1.64393e-15 0)
(1 8.64607e-15 0)
(1 8.59511e-15 0)
(1 6.77129e-15 0)
(1 -4.41484e-15 0)
(1 2.25865e-15 0)
(1 5.67901e-15 0)
(1 3.66403e-15 0)
(1 4.90023e-15 0)
(1 1.4102e-15 0)
(1 -1.6283e-15 0)
(1 2.74976e-15 0)
(1 1.0412e-14 0)
(1 5.43515e-15 0)
(1 5.56723e-15 0)
(1 8.2204e-15 0)
(1 3.1901e-15 0)
(1 1.14153e-14 0)
(1 1.32179e-14 0)
(1 1.46362e-14 0)
(1 3.87103e-15 0)
(1 3.80641e-15 0)
(1 -1.55272e-15 0)
(1 -1.37663e-15 0)
(1 -1.56028e-16 0)
(1 5.73719e-15 0)
(1 2.05089e-15 0)
(1 1.03773e-14 0)
(1 8.16754e-15 0)
(1 1.3653e-14 0)
(1 5.00821e-15 0)
(1 3.10284e-15 0)
(1 5.58541e-15 0)
(1 -7.38525e-15 0)
(1 -8.96765e-16 0)
(1 6.40407e-15 0)
(1 -7.51802e-16 0)
(1 5.58634e-16 0)
(1 -1.84009e-15 0)
(1 6.08518e-15 0)
(1 1.23095e-14 0)
(1 1.12979e-14 0)
(1 1.26041e-14 0)
(1 1.30542e-14 0)
(1 1.40696e-14 0)
(1 1.1027e-14 0)
(1 1.14552e-14 0)
(1 1.21642e-14 0)
(1 2.54446e-15 0)
(1 1.55006e-15 0)
(1 -5.47986e-15 0)
(1 -2.09752e-15 0)
(1 -1.90207e-15 0)
(1 -8.65866e-16 0)
(1 -3.0194e-15 0)
(1 1.91901e-15 0)
(1 -7.10307e-15 0)
(1 2.28664e-15 0)
(1 6.73172e-15 0)
(1 1.94707e-14 0)
(1 -2.64053e-15 0)
(1 -2.44821e-15 0)
(1 -7.3975e-15 0)
(1 -2.41024e-15 0)
(1 -4.4851e-15 0)
(1 1.56949e-14 0)
(1 1.10649e-14 0)
(1 1.36188e-14 0)
(1 2.48041e-15 0)
(1 -1.28457e-14 0)
(1 -2.23839e-14 0)
(1 -9.6674e-15 0)
(1 -8.014e-15 0)
(1 6.2122e-15 0)
(1 -5.66225e-16 0)
(1 4.29142e-15 0)
(1 6.54641e-15 0)
(1 3.74531e-16 0)
(1 -4.17936e-15 0)
(1 -2.37292e-15 0)
(1 -1.30729e-15 0)
(1 -3.09182e-15 0)
(1 -7.70125e-15 0)
(1 -6.72622e-16 0)
(1 -4.83223e-15 0)
(1 -5.03161e-15 0)
(1 1.97199e-15 0)
(1 2.24595e-15 0)
(1 6.20029e-15 0)
(1 4.01787e-15 0)
(1 -3.73159e-17 0)
(1 2.49921e-15 0)
(1 7.18478e-15 0)
(1 1.05183e-14 0)
(1 6.73243e-15 0)
(1 1.92378e-14 0)
(1 9.97824e-15 0)
(1 9.61797e-15 0)
(1 -5.1485e-15 0)
(1 -8.33744e-16 0)
(1 1.07278e-15 0)
(1 4.6806e-15 0)
(1 3.27316e-15 0)
(1 1.43528e-15 0)
(1 -6.03252e-15 0)
(1 7.77527e-16 0)
(1 -4.54195e-15 0)
(1 -4.17918e-15 0)
(1 -1.93647e-15 0)
(1 4.91038e-15 0)
(1 8.51393e-15 0)
(1 1.4975e-14 0)
(1 1.14533e-14 0)
(1 5.60942e-15 0)
(1 6.73663e-15 0)
(1 6.84853e-15 0)
(1 4.01169e-15 0)
(1 6.48915e-16 0)
(1 -2.56466e-15 0)
(1 3.63857e-15 0)
(1 3.74528e-15 0)
(1 1.5085e-14 0)
(1 6.75526e-15 0)
(1 2.56257e-15 0)
(1 -3.17191e-15 0)
(1 -2.41108e-15 0)
(1 -1.36839e-15 0)
(1 6.83557e-15 0)
(1 6.21459e-15 0)
(1 9.58149e-15 0)
(1 4.19553e-15 0)
(1 7.64863e-15 0)
(1 5.61629e-15 0)
(1 6.33076e-15 0)
(1 5.09498e-15 0)
(1 3.59514e-15 0)
(1 1.09294e-15 0)
(1 1.79502e-15 0)
(1 1.04637e-15 0)
(1 5.17048e-15 0)
(1 1.08716e-15 0)
(1 4.08658e-15 0)
(1 2.93216e-15 0)
(1 1.27526e-14 0)
(1 1.11955e-14 0)
(1 9.58544e-15 0)
(1 3.50524e-15 0)
(1 6.53379e-15 0)
(1 -8.06278e-16 0)
(1 4.97159e-15 0)
(1 -3.08696e-15 0)
(1 -5.24407e-15 0)
(1 -1.95097e-15 0)
(1 -8.71381e-15 0)
(1 -3.86833e-15 0)
(1 5.72095e-15 0)
(1 8.9286e-15 0)
(1 7.24659e-15 0)
(1 5.62501e-15 0)
(1 8.80584e-16 0)
(1 -4.49927e-15 0)
(1 -1.80826e-15 0)
(1 2.48572e-16 0)
(1 1.0802e-15 0)
(1 -5.87408e-15 0)
(1 3.58378e-15 0)
(1 -1.25557e-15 0)
(1 1.19914e-14 0)
(1 -3.80873e-15 0)
(1 -3.10111e-16 0)
(1 -1.4051e-14 0)
(1 -2.97005e-15 0)
(1 3.58386e-15 0)
(1 2.9379e-15 0)
(1 1.71412e-15 0)
(1 -4.3234e-15 0)
(1 -9.97783e-17 0)
(1 -1.23035e-15 0)
(1 -2.00896e-16 0)
(1 -4.79276e-15 0)
(1 -3.12594e-15 0)
(1 -1.20591e-14 0)
(1 -4.94691e-15 0)
(1 7.76853e-15 0)
(1 1.61081e-15 0)
(1 1.50536e-16 0)
(1 1.20267e-15 0)
(1 -4.31621e-15 0)
(1 1.3837e-15 0)
(1 5.27219e-15 0)
(1 5.7969e-15 0)
(1 7.27047e-15 0)
(1 1.01169e-14 0)
(1 4.74783e-15 0)
(1 5.04295e-15 0)
(1 7.16571e-15 0)
(1 6.61849e-15 0)
(1 4.41624e-15 0)
(1 -1.05429e-15 0)
(1 2.31209e-15 0)
(1 2.41274e-15 0)
(1 4.77461e-16 0)
(1 1.63436e-15 0)
(1 5.55668e-15 0)
(1 8.47195e-15 0)
(1 6.85946e-15 0)
(1 -3.48291e-15 0)
(1 1.88953e-15 0)
(1 3.22814e-16 0)
(1 1.9399e-15 0)
(1 2.79854e-15 0)
(1 8.36944e-15 0)
(1 -2.63081e-15 0)
(1 1.46314e-14 0)
(1 1.2763e-14 0)
(1 8.2313e-15 0)
(1 7.30044e-15 0)
(1 3.53267e-15 0)
(1 -3.08267e-15 0)
(1 -5.1506e-16 0)
(1 5.76033e-15 0)
(1 1.23031e-14 0)
(1 9.5323e-15 0)
(1 1.05971e-14 0)
(1 7.35981e-15 0)
(1 6.70553e-15 0)
(1 5.20449e-15 0)
(1 1.19585e-14 0)
(1 6.54313e-15 0)
(1 2.17707e-15 0)
(1 6.06761e-16 0)
(1 5.45933e-15 0)
(1 4.91414e-15 0)
(1 8.63039e-15 0)
(1 6.87886e-15 0)
(1 4.2945e-15 0)
(1 3.98478e-15 0)
(1 1.5526e-15 0)
(1 -9.93589e-16 0)
(1 6.78025e-15 0)
(1 3.78364e-15 0)
(1 2.1025e-15 0)
(1 3.1382e-15 0)
(1 1.1939e-14 0)
(1 1.36663e-14 0)
(1 9.11406e-15 0)
(1 4.40936e-15 0)
(1 5.44649e-15 0)
(1 5.11401e-16 0)
(1 2.20735e-16 0)
(1 8.09948e-16 0)
(1 -6.23298e-15 0)
(1 9.07002e-15 0)
(1 -1.12128e-14 0)
(1 -8.85354e-15 0)
(1 -9.30294e-15 0)
(1 2.60497e-15 0)
(1 1.29116e-15 0)
(1 9.81875e-15 0)
(1 -3.80321e-15 0)
(1 1.14677e-14 0)
(1 5.2372e-16 0)
(1 2.09583e-15 0)
(1 -2.87702e-15 0)
(1 -3.40498e-15 0)
(1 -1.2166e-14 0)
(1 -1.24066e-14 0)
(1 -6.39372e-15 0)
(1 -3.55183e-15 0)
(1 1.03159e-14 0)
(1 6.62479e-15 0)
(1 9.54896e-15 0)
(1 2.09e-14 0)
(1 6.94866e-15 0)
(1 1.92998e-15 0)
(1 -3.16643e-15 0)
(1 -9.118e-15 0)
(1 -8.46474e-15 0)
(1 -5.54913e-15 0)
(1 -1.37934e-15 0)
(1 -3.33736e-15 0)
(1 -1.17647e-14 0)
(1 9.39875e-16 0)
(1 -3.1637e-15 0)
(1 6.04067e-15 0)
(1 9.01871e-15 0)
(1 -2.74025e-15 0)
(1 -2.7201e-15 0)
(1 1.57897e-15 0)
(1 9.32712e-15 0)
(1 9.17336e-15 0)
(1 7.97754e-15 0)
(1 -7.73519e-16 0)
(1 -1.68332e-16 0)
(1 1.87122e-15 0)
(1 -4.39404e-15 0)
(1 5.81707e-16 0)
(1 6.65048e-15 0)
(1 9.07352e-15 0)
(1 9.94196e-15 0)
(1 3.97992e-15 0)
(1 4.63269e-15 0)
(1 6.43128e-15 0)
(1 3.04727e-15 0)
(1 7.26415e-15 0)
(1 5.09332e-15 0)
(1 3.34571e-15 0)
(1 4.06127e-15 0)
(1 -2.47172e-15 0)
(1 -6.82274e-16 0)
(1 -4.91788e-16 0)
(1 3.9983e-16 0)
(1 7.18278e-15 0)
(1 6.23178e-15 0)
(1 1.154e-14 0)
(1 1.17262e-14 0)
(1 1.45248e-14 0)
(1 1.19857e-14 0)
(1 4.57845e-15 0)
(1 4.5357e-15 0)
(1 1.08056e-14 0)
(1 3.23938e-15 0)
(1 6.76082e-15 0)
(1 1.09302e-14 0)
(1 9.86919e-15 0)
(1 4.40428e-15 0)
(1 8.10708e-15 0)
(1 7.90544e-15 0)
(1 8.82209e-15 0)
(1 -1.05142e-15 0)
(1 2.98759e-15 0)
(1 -2.6637e-15 0)
(1 3.26682e-15 0)
(1 1.75599e-15 0)
(1 7.28745e-15 0)
(1 -6.7863e-16 0)
(1 -2.40365e-15 0)
(1 1.54519e-15 0)
(1 1.82451e-15 0)
(1 3.3578e-15 0)
(1 9.15309e-15 0)
(1 1.18502e-14 0)
(1 7.94793e-15 0)
(1 7.61467e-15 0)
(1 7.17653e-15 0)
(1 7.9498e-15 0)
(1 6.43193e-15 0)
(1 7.11763e-15 0)
(1 -1.944e-15 0)
(1 -4.18751e-15 0)
(1 -4.76716e-15 0)
(1 -5.74485e-16 0)
(1 6.09713e-15 0)
(1 3.83906e-15 0)
(1 1.34788e-14 0)
(1 6.57617e-15 0)
(1 -4.42415e-15 0)
(1 -9.73012e-15 0)
(1 -1.89358e-15 0)
(1 -8.88193e-15 0)
(1 4.39758e-15 0)
(1 -1.95478e-15 0)
(1 -1.82035e-15 0)
(1 -4.60311e-15 0)
(1 2.51164e-15 0)
(1 5.5859e-16 0)
(1 -6.8932e-15 0)
(1 1.32495e-16 0)
(1 -1.53904e-15 0)
(1 3.39297e-15 0)
(1 1.43057e-15 0)
(1 -9.65099e-15 0)
(1 -3.63389e-15 0)
(1 2.02899e-15 0)
(1 -4.38839e-15 0)
(1 -3.9523e-15 0)
(1 -1.606e-15 0)
(1 -4.61825e-15 0)
(1 4.22536e-16 0)
(1 -3.19811e-15 0)
(1 -2.50957e-15 0)
(1 4.67947e-15 0)
(1 3.33617e-15 0)
(1 -8.95721e-16 0)
(1 5.00606e-15 0)
(1 -6.38465e-16 0)
(1 -7.43606e-15 0)
(1 4.00912e-15 0)
(1 4.84403e-15 0)
(1 2.64897e-15 0)
(1 5.06487e-15 0)
(1 2.32384e-15 0)
(1 -3.24382e-15 0)
(1 -2.11582e-15 0)
(1 3.1448e-15 0)
(1 -2.66617e-15 0)
(1 5.97515e-15 0)
(1 1.01501e-14 0)
(1 1.19275e-14 0)
(1 1.01065e-14 0)
(1 6.02485e-15 0)
(1 1.47035e-15 0)
(1 2.93471e-15 0)
(1 -6.81568e-15 0)
(1 4.90078e-15 0)
(1 2.07647e-15 0)
(1 7.62179e-15 0)
(1 -2.02355e-15 0)
(1 -6.11674e-15 0)
(1 3.67903e-15 0)
(1 4.68618e-16 0)
(1 2.54787e-15 0)
(1 7.14102e-15 0)
(1 -3.40489e-15 0)
(1 -3.06772e-15 0)
(1 3.11235e-15 0)
(1 1.16456e-14 0)
(1 6.39977e-15 0)
(1 4.14442e-15 0)
(1 6.30194e-15 0)
(1 1.42507e-14 0)
(1 7.36723e-15 0)
(1 8.52814e-15 0)
(1 4.13332e-15 0)
(1 2.87488e-15 0)
(1 2.6955e-15 0)
(1 1.64866e-14 0)
(1 6.51509e-15 0)
(1 3.54124e-15 0)
(1 4.64148e-15 0)
(1 7.51127e-15 0)
(1 4.61245e-15 0)
(1 5.44405e-15 0)
(1 1.5055e-16 0)
(1 -1.84684e-15 0)
(1 -5.22866e-15 0)
(1 -3.85967e-15 0)
(1 2.62246e-15 0)
(1 8.40521e-15 0)
(1 3.01494e-15 0)
(1 1.23444e-14 0)
(1 7.27913e-15 0)
(1 9.58019e-15 0)
(1 5.22338e-15 0)
(1 1.32101e-15 0)