/*--------------------------------*- C++ -*----------------------------------*\
| =========                 |                                                 |
| \\      /  F ield         | OpenFOAM: The Open Source CFD Toolbox           |
|  \\    /   O peration     | Version:  v2012                                 |
|   \\  /    A nd           | Website:  www.openfoam.com                      |
|    \\/     M anipulation  |                                                 |
\*---------------------------------------------------------------------------*/
FoamFile
{
    version     2.0;
    format      ascii;
    class       volVectorField;
    location    "0";
    object      U;
}
// * * * * * * * * * * * * * * * * * * * * * * * * * * * * * * * * * * * * * //

dimensions      [0 1 -1 0 0 0 0];


internalField   nonuniform List<vector> 
4000
(
(1 -3.0297e-15 0)
(1 7.45646e-15 0)
(1 -5.69941e-15 0)
(1 6.78555e-15 0)
(1 -1.09265e-15 0)
(1 -3.25818e-15 0)
(1 5.22099e-15 0)
(1 -2.46146e-15 0)
(1 -1.75194e-15 0)
(1 -1.01897e-15 0)
(1 1.25258e-15 0)
(1 3.86176e-15 0)
(1 3.53422e-15 0)
(1 -2.28357e-16 0)
(1 6.35024e-15 0)
(1 -3.84954e-15 0)
(1 -3.69377e-15 0)
(1 -5.32501e-15 0)
(1 -1.08087e-15 0)
(1 -2.42119e-15 0)
(1 -1.50946e-15 0)
(1 -9.12253e-15 0)
(1 -1.34609e-15 0)
(1 -4.56589e-15 0)
(1 6.61746e-15 0)
(1 -2.90261e-15 0)
(1 6.67015e-15 0)
(1 1.54735e-15 0)
(1 4.15967e-15 0)
(1 6.83706e-15 0)
(1 3.90896e-15 0)
(1 -1.89665e-15 0)
(1 -5.24301e-15 0)
(1 -3.62911e-15 0)
(1 2.08707e-16 0)
(1 2.1235e-15 0)
(1 9.13279e-15 0)
(1 4.5975e-15 0)
(1 1.64685e-15 0)
(1 -1.68867e-15 0)
(1 -4.10801e-15 0)
(1 -6.16072e-15 0)
(1 -2.55677e-15 0)
(1 3.83538e-15 0)
(1 2.9452e-15 0)
(1 -1.55169e-15 0)
(1 3.35318e-15 0)
(1 -2.06835e-15 0)
(1 -4.82128e-15 0)
(1 4.93048e-16 0)
(1 -1.88622e-15 0)
(1 7.29799e-15 0)
(1 3.64104e-17 0)
(1 2.43981e-15 0)
(1 -7.14148e-16 0)
(1 -6.38073e-15 0)
(1 -1.06078e-15 0)
(1 1.19774e-15 0)
(1 5.52714e-15 0)
(1 3.92398e-15 0)
(1 3.42342e-15 0)
(1 4.11921e-16 0)
(1 3.51046e-15 0)
(1 -1.73269e-15 0)
(1 -1.12034e-15 0)
(1 4.28893e-17 0)
(1 -1.58514e-16 0)
(1 1.07062e-15 0)
(1 -3.21217e-15 0)
(1 5.89676e-16 0)
(1 -5.18851e-15 0)
(1 -1.39196e-15 0)
(1 2.50088e-16 0)
(1 -9.84811e-16 0)
(1 -6.28333e-15 0)
(1 -3.19074e-15 0)
(1 -2.72974e-15 0)
(1 5.52351e-16 0)
(1 1.18483e-15 0)
(1 2.07146e-15 0)
(1 5.07634e-15 0)
(1 8.34046e-16 0)
(1 1.55876e-15 0)
(1 -1.5525e-16 0)
(1 -3.97072e-15 0)
(1 -6.43256e-16 0)
(1 -4.29873e-15 0)
(1 -6.3855e-16 0)
(1 6.71589e-15 0)
(1 2.64254e-15 0)
(1 -2.99177e-16 0)
(1 6.59564e-16 0)
(1 -4.87858e-15 0)
(1 5.79358e-16 0)
(1 -2.28403e-15 0)
(1 -5.50842e-15 0)
(1 -1.75953e-15 0)
(1 -2.90814e-16 0)
(1 1.30515e-15 0)
(1 1.27605e-16 0)
(1 9.96885e-16 0)
(1 3.09956e-15 0)
(1 -4.94237e-15 0)
(1 7.12469e-15 0)
(1 -3.49901e-16 0)
(1 -6.43164e-15 0)
(1 7.29358e-15 0)
(1 -4.59554e-15 0)
(1 -8.25933e-16 0)
(1 -2.2747e-15 0)
(1 -1.3654e-15 0)
(1 3.94408e-15 0)
(1 1.02435e-14 0)
(1 7.98399e-15 0)
(1 6.01463e-15 0)
(1 -6.47077e-15 0)
(1 -6.2216e-15 0)
(1 -8.25308e-15 0)
(1 -2.92532e-15 0)
(1 -3.99257e-15 0)
(1 -1.50444e-15 0)
(1 -1.11902e-14 0)
(1 -2.56532e-15 0)
(1 -1.00726e-14 0)
(1 8.2695e-15 0)
(1 -3.86637e-15 0)
(1 8.92867e-15 0)
(1 1.78011e-15 0)
(1 5.06697e-15 0)
(1 6.17056e-15 0)
(1 6.34501e-15 0)
(1 4.12342e-16 0)
(1 -7.17878e-15 0)
(1 -1.7814e-15 0)
(1 -4.93369e-16 0)
(1 3.02083e-15 0)
(1 7.50177e-15 0)
(1 7.39461e-15 0)
(1 7.08146e-16 0)
(1 -5.26896e-15 0)
(1 -9.28823e-15 0)
(1 -9.12927e-15 0)
(1 -3.87146e-15 0)
(1 2.56974e-15 0)
(1 4.1607e-15 0)
(1 -4.28794e-15 0)
(1 2.96756e-15 0)
(1 1.01861e-15 0)
(1 3.33863e-15 0)
(1 -4.94055e-15 0)
(1 -7.2816e-15 0)
(1 8.10513e-16 0)
(1 1.30309e-15 0)
(1 2.70599e-15 0)
(1 7.76562e-16 0)
(1 5.31326e-16 0)
(1 2.80354e-15 0)
(1 5.36726e-15 0)
(1 1.2559e-15 0)
(1 2.61515e-15 0)
(1 -6.38758e-15 0)
(1 -1.90886e-15 0)
(1 3.07651e-15 0)
(1 1.36594e-15 0)
(1 3.41046e-15 0)
(1 1.41275e-15 0)
(1 -3.54096e-15 0)
(1 -2.42434e-15 0)
(1 -5.35413e-15 0)
(1 -1.82833e-15 0)
(1 -2.16035e-15 0)
(1 -2.81416e-16 0)
(1 5.56713e-15 0)
(1 1.49723e-15 0)
(1 6.7407e-16 0)
(1 -3.95761e-15 0)
(1 1.20519e-15 0)
(1 2.686e-15 0)
(1 3.10322e-15 0)
(1 2.8637e-15 0)
(1 4.67424e-15 0)
(1 -2.11759e-15 0)
(1 1.93335e-15 0)
(1 2.07164e-15 0)
(1 1.98594e-15 0)
(1 7.78261e-16 0)
(1 -3.26765e-15 0)
(1 -2.99274e-15 0)
(1 1.76554e-16 0)
(1 6.26641e-16 0)
(1 1.42805e-15 0)
(1 1.95525e-15 0)
(1 -4.58639e-15 0)
(1 7.89783e-16 0)
(1 -5.00784e-15 0)
(1 -2.98307e-15 0)
(1 -2.2184e-15 0)
(1 3.2787e-15 0)
(1 -3.588e-15 0)
(1 -4.30926e-15 0)
(1 2.68503e-15 0)
(1 -7.04741e-15 0)
(1 -8.31914e-16 0)
(1 -6.26534e-15 0)
(1 4.31511e-15 0)
(1 9.23869e-16 0)
(1 8.01599e-15 0)
(1 4.49002e-15 0)
(1 -1.38074e-15 0)
(1 -1.89455e-15 0)
(1 -4.25661e-16 0)
(1 5.07743e-15 0)
(1 6.36968e-15 0)
(1 1.26413e-14 0)
(1 -1.39747e-15 0)
(1 -1.81976e-15 0)
(1 -3.27673e-15 0)
(1 -6.13504e-16 0)
(1 -8.87836e-16 0)
(1 -8.59451e-16 0)
(1 -1.91609e-16 0)
(1 -1.10755e-15 0)
(1 -9.81262e-15 0)
(1 -1.01524e-14 0)
(1 -1.94743e-15 0)
(1 6.43095e-15 0)
(1 1.0507e-14 0)
(1 8.93844e-15 0)
(1 1.22577e-14 0)
(1 1.04295e-14 0)
(1 1.05021e-14 0)
(1 1.17574e-15 0)
(1 -6.71437e-16 0)
(1 -5.20448e-15 0)
(1 -4.65043e-15 0)
(1 -3.46534e-15 0)
(1 -3.58363e-15 0)
(1 5.73928e-15 0)
(1 -5.75036e-16 0)
(1 -5.55637e-15 0)
(1 -4.52067e-15 0)
(1 -5.11235e-15 0)
(1 -8.12907e-15 0)
(1 -4.87185e-15 0)
(1 -9.21622e-16 0)
(1 -9.68711e-16 0)
(1 1.17085e-15 0)
(1 5.19655e-15 0)
(1 -7.68249e-16 0)
(1 -2.22129e-15 0)
(1 -3.83665e-16 0)
(1 -2.90316e-16 0)
(1 3.38919e-15 0)
(1 -2.23866e-15 0)
(1 3.61477e-15 0)
(1 8.85864e-15 0)
(1 4.17871e-15 0)
(1 2.75431e-15 0)
(1 -2.60702e-15 0)
(1 -4.74344e-15 0)
(1 -6.79312e-15 0)
(1 2.11408e-15 0)
(1 3.74925e-15 0)
(1 -7.15644e-16 0)
(1 5.13994e-15 0)
(1 2.37787e-15 0)
(1 -2.08901e-15 0)
(1 -4.10969e-15 0)
(1 -8.4698e-16 0)
(1 -2.28255e-15 0)
(1 -4.07882e-16 0)
(1 1.79818e-16 0)
(1 -1.33899e-15 0)
(1 2.07701e-16 0)
(1 4.07343e-17 0)
(1 -2.66421e-16 0)
(1 -6.84332e-16 0)
(1 5.60066e-16 0)
(1 -1.01152e-15 0)
(1 4.13635e-15 0)
(1 -9.69403e-16 0)
(1 -4.11637e-15 0)
(1 -5.90994e-16 0)
(1 -2.68026e-15 0)
(1 4.95724e-15 0)
(1 -1.5124e-16 0)
(1 6.76699e-16 0)
(1 -2.60107e-15 0)
(1 -5.5076e-15 0)
(1 -2.30893e-15 0)
(1 4.35139e-16 0)
(1 1.92587e-15 0)
(1 -1.38655e-15 0)
(1 -8.38006e-17 0)
(1 -2.87566e-15 0)
(1 -2.54339e-15 0)
(1 -3.03416e-15 0)
(1 -1.81805e-15 0)
(1 -4.01998e-15 0)
(1 -2.07931e-15 0)
(1 3.31688e-15 0)
(1 -6.74219e-15 0)
(1 -3.2093e-15 0)
(1 -1.12153e-14 0)
(1 6.36989e-15 0)
(1 -6.85364e-16 0)
(1 7.19182e-15 0)
(1 4.37886e-15 0)
(1 -2.25987e-15 0)
(1 7.63345e-16 0)
(1 5.73065e-15 0)
(1 1.28767e-14 0)
(1 6.06828e-15 0)
(1 5.01878e-15 0)
(1 3.67768e-15 0)
(1 -1.24701e-15 0)
(1 -4.44127e-16 0)
(1 -6.30069e-15 0)
(1 -1.38937e-14 0)
(1 3.11621e-16 0)
(1 1.38569e-15 0)
(1 3.73016e-15 0)
(1 -2.41983e-15 0)
(1 9.43903e-16 0)
(1 3.49848e-15 0)
(1 3.79891e-15 0)
(1 7.84823e-15 0)
(1 1.05423e-14 0)
(1 1.04902e-14 0)
(1 9.71444e-15 0)
(1 6.59156e-15 0)
(1 1.22561e-15 0)
(1 1.99995e-15 0)
(1 -6.42352e-17 0)
(1 1.67689e-16 0)
(1 -4.60952e-15 0)
(1 -3.70593e-15 0)
(1 -4.19757e-15 0)
(1 -9.32194e-16 0)
(1 2.92735e-15 0)
(1 4.62456e-15 0)
(1 -4.08176e-15 0)
(1 -8.6344e-15 0)
(1 -6.00229e-15 0)
(1 -3.7331e-15 0)
(1 5.46671e-15 0)
(1 5.96073e-15 0)
(1 3.78008e-15 0)
(1 -3.34616e-15 0)
(1 4.22088e-15 0)
(1 4.55621e-15 0)
(1 8.08334e-16 0)
(1 -5.39183e-15 0)
(1 -7.48299e-15 0)
(1 3.68398e-16 0)
(1 1.59808e-15 0)
(1 1.25737e-15 0)
(1 -6.59806e-16 0)
(1 -4.66024e-15 0)
(1 -1.74367e-15 0)
(1 3.65159e-15 0)
(1 5.15336e-15 0)
(1 3.17446e-15 0)
(1 5.15193e-15 0)
(1 1.07206e-15 0)
(1 3.71964e-16 0)
(1 -4.09347e-15 0)
(1 -3.84254e-15 0)
(1 -4.30087e-15 0)
(1 -2.69633e-15 0)
(1 -3.4823e-15 0)
(1 2.1309e-15 0)
(1 -2.75978e-15 0)
(1 -1.0329e-15 0)
(1 2.84712e-16 0)
(1 -3.47309e-15 0)
(1 1.49077e-15 0)
(1 -4.71908e-15 0)
(1 2.56324e-15 0)
(1 5.94162e-15 0)
(1 1.01133e-15 0)
(1 2.96696e-15 0)
(1 -1.40919e-15 0)
(1 -6.76958e-16 0)
(1 -9.85926e-16 0)
(1 -1.14961e-16 0)
(1 5.32489e-15 0)
(1 1.03264e-15 0)
(1 3.04081e-15 0)
(1 7.97351e-17 0)
(1 -2.53835e-15 0)
(1 -2.34175e-16 0)
(1 -9.4647e-16 0)
(1 1.25295e-15 0)
(1 -3.33175e-16 0)
(1 -8.06929e-15 0)
(1 -7.80992e-15 0)
(1 -5.09405e-15 0)
(1 -5.0587e-15 0)
(1 -1.58503e-15 0)
(1 2.83476e-15 0)
(1 -8.53972e-16 0)
(1 -7.80629e-15 0)
(1 -1.15816e-15 0)
(1 2.86556e-15 0)
(1 3.63935e-16 0)
(1 7.7288e-16 0)
(1 2.01758e-16 0)
(1 -1.37751e-15 0)
(1 -4.17674e-15 0)
(1 5.53863e-15 0)
(1 1.41295e-15 0)
(1 6.22573e-15 0)
(1 -1.83271e-15 0)
(1 1.14665e-14 0)
(1 2.15133e-15 0)
(1 4.36034e-15 0)
(1 -8.54645e-15 0)
(1 -1.03171e-14 0)
(1 -9.82309e-15 0)
(1 -2.20425e-15 0)
(1 -2.63376e-15 0)
(1 5.25886e-15 0)
(1 9.75449e-15 0)
(1 1.32544e-14 0)
(1 4.93738e-15 0)
(1 7.47652e-15 0)
(1 9.60572e-15 0)
(1 9.71761e-15 0)
(1 3.46759e-15 0)
(1 7.35594e-15 0)
(1 5.37766e-15 0)
(1 2.00881e-15 0)
(1 1.70895e-16 0)
(1 -4.66567e-15 0)
(1 -1.07927e-14 0)
(1 -6.08548e-15 0)
(1 -8.17708e-15 0)
(1 -5.44806e-15 0)
(1 -4.51066e-16 0)
(1 -2.8487e-15 0)
(1 -4.73465e-15 0)
(1 -3.15736e-15 0)
(1 -2.86166e-15 0)
(1 -2.00804e-15 0)
(1 7.63274e-16 0)
(1 3.88645e-15 0)
(1 3.35254e-15 0)
(1 4.14155e-15 0)
(1 6.52965e-15 0)
(1 -1.11483e-15 0)
(1 -3.97262e-15 0)
(1 -5.20263e-15 0)
(1 -1.96341e-16 0)
(1 4.09268e-15 0)
(1 7.6313e-15 0)
(1 5.05312e-15 0)
(1 6.58414e-16 0)
(1 -2.57258e-15 0)
(1 -3.97953e-15 0)
(1 -4.06593e-16 0)
(1 -3.10675e-16 0)
(1 3.09826e-15 0)
(1 6.20692e-15 0)
(1 1.61916e-15 0)
(1 -1.32273e-15 0)
(1 -1.85599e-15 0)
(1 -2.9222e-15 0)
(1 -2.0357e-15 0)
(1 -3.01857e-16 0)
(1 1.34153e-15 0)
(1 6.96807e-16 0)
(1 4.11616e-15 0)
(1 -1.66451e-15 0)
(1 2.94417e-15 0)
(1 -1.62816e-15 0)
(1 7.03014e-15 0)
(1 1.07607e-15 0)
(1 7.47336e-15 0)
(1 4.41683e-15 0)
(1 2.14688e-15 0)
(1 -8.24677e-16 0)
(1 -6.2812e-16 0)
(1 4.52031e-15 0)
(1 -4.88742e-16 0)
(1 2.87229e-15 0)
(1 1.85808e-15 0)
(1 -9.84458e-16 0)
(1 -1.25289e-15 0)
(1 -5.96545e-15 0)
(1 -2.26709e-15 0)
(1 -2.46716e-15 0)
(1 -7.6694e-16 0)
(1 2.43324e-16 0)
(1 -2.22177e-15 0)
(1 -3.90282e-15 0)
(1 -3.21707e-15 0)
(1 -6.00953e-16 0)
(1 -5.77495e-15 0)
(1 -1.59859e-15 0)
(1 -2.54864e-15 0)
(1 -2.00946e-15 0)
(1 -5.23561e-15 0)
(1 3.82808e-15 0)
(1 -4.27202e-15 0)
(1 6.6082e-15 0)
(1 -5.91843e-15 0)
(1 -4.94799e-15 0)
(1 9.6268e-16 0)
(1 5.33945e-16 0)
(1 1.04096e-14 0)
(1 -7.89727e-16 0)
(1 1.52708e-16 0)
(1 1.05694e-15 0)
(1 4.24451e-15 0)
(1 4.447e-15 0)
(1 4.0388e-15 0)
(1 3.67882e-17 0)
(1 3.50712e-15 0)
(1 -3.67724e-15 0)
(1 4.4688e-15 0)
(1 -2.72907e-15 0)
(1 8.5949e-16 0)
(1 3.67337e-15 0)
(1 3.05611e-15 0)
(1 8.17272e-16 0)
(1 4.04361e-15 0)
(1 1.37883e-14 0)
(1 1.04539e-14 0)
(1 1.54809e-14 0)
(1 4.20078e-15 0)
(1 2.80144e-15 0)
(1 -6.44027e-15 0)
(1 -5.8391e-15 0)
(1 -3.11526e-15 0)
(1 1.86837e-15 0)
(1 1.00994e-15 0)
(1 1.72859e-15 0)
(1 -4.63847e-15 0)
(1 -6.30839e-15 0)
(1 -4.28462e-15 0)
(1 -1.48892e-15 0)
(1 4.80482e-15 0)
(1 5.7034e-15 0)
(1 4.77386e-16 0)
(1 -4.77387e-15 0)
(1 -6.2718e-15 0)
(1 -4.69602e-15 0)
(1 3.19978e-15 0)
(1 7.88845e-15 0)
(1 1.43239e-15 0)
(1 -2.12253e-16 0)
(1 -1.58666e-15 0)
(1 -1.19471e-15 0)
(1 4.5303e-15 0)
(1 5.30763e-15 0)
(1 1.9188e-15 0)
(1 -3.88896e-16 0)
(1 8.27761e-15 0)
(1 2.73288e-15 0)
(1 6.26771e-15 0)
(1 -7.35394e-16 0)
(1 2.83411e-16 0)
(1 -3.55519e-15 0)
(1 2.37736e-15 0)
(1 3.5737e-15 0)
(1 7.21159e-15 0)
(1 7.90172e-15 0)
(1 1.26811e-14 0)
(1 1.23461e-14 0)
(1 4.30146e-15 0)
(1 -5.32367e-15 0)
(1 -7.58286e-16 0)
(1 -2.21454e-15 0)
(1 -6.05004e-15 0)
(1 -5.32698e-15 0)
(1 -6.94307e-15 0)
(1 1.44613e-15 0)
(1 4.10642e-15 0)
(1 1.21381e-14 0)
(1 5.78155e-15 0)
(1 2.9463e-15 0)
(1 4.25193e-15 0)
(1 9.73215e-16 0)
(1 -2.36988e-15 0)
(1 -1.59636e-15 0)
(1 -1.72976e-15 0)
(1 -2.51785e-15 0)
(1 -6.12446e-15 0)
(1 -2.27982e-15 0)
(1 -2.64108e-15 0)
(1 -1.63373e-16 0)
(1 -3.3334e-15 0)
(1 -2.26031e-15 0)
(1 -4.86706e-16 0)
(1 -6.86592e-16 0)
(1 4.32843e-15 0)
(1 1.87715e-15 0)
(1 5.35466e-15 0)
(1 6.51212e-15 0)
(1 -4.92026e-15 0)
(1 -1.72461e-15 0)
(1 -1.44601e-15 0)
(1 8.72619e-15 0)
(1 -1.55232e-15 0)
(1 -2.70503e-15 0)
(1 -1.35461e-14 0)
(1 -1.03717e-14 0)
(1 3.85186e-16 0)
(1 2.49261e-15 0)
(1 1.40665e-14 0)
(1 -3.17534e-16 0)
(1 1.55512e-15 0)
(1 6.92519e-16 0)
(1 2.23697e-15 0)
(1 2.89945e-15 0)
(1 1.05216e-14 0)
(1 4.57635e-15 0)
(1 4.43748e-15 0)
(1 1.13773e-14 0)
(1 6.93405e-15 0)
(1 -1.31587e-15 0)
(1 1.42993e-15 0)
(1 -4.63414e-15 0)
(1 -9.73924e-15 0)
(1 -2.52683e-15 0)
(1 -2.917e-15 0)
(1 1.02575e-14 0)
(1 8.78876e-15 0)
(1 1.27842e-14 0)
(1 1.1875e-14 0)
(1 3.06543e-15 0)
(1 -6.63128e-15 0)
(1 -8.33008e-15 0)
(1 2.83387e-16 0)
(1 7.33165e-15 0)
(1 2.98506e-15 0)
(1 2.97172e-17 0)
(1 -1.15826e-15 0)
(1 -5.42047e-15 0)
(1 -2.57303e-15 0)
(1 -3.168e-15 0)
(1 9.44556e-15 0)
(1 5.36424e-15 0)
(1 -1.12218e-15 0)
(1 -2.98013e-15 0)
(1 -1.00199e-14 0)
(1 -7.59876e-15 0)
(1 1.06043e-14 0)
(1 8.96063e-15 0)
(1 5.07483e-15 0)
(1 3.19707e-17 0)
(1 6.22648e-16 0)
(1 -2.15895e-15 0)
(1 -2.68944e-15 0)
(1 3.30501e-15 0)
(1 1.69708e-15 0)
(1 -9.82951e-16 0)
(1 -1.29099e-15 0)
(1 4.68295e-15 0)
(1 4.63837e-15 0)
(1 6.75001e-15 0)
(1 2.7612e-15 0)
(1 6.81958e-16 0)
(1 -1.81098e-15 0)
(1 -1.72505e-16 0)
(1 -9.53601e-16 0)
(1 4.89839e-15 0)
(1 4.19564e-15 0)
(1 7.05382e-16 0)
(1 1.80333e-15 0)
(1 -2.12266e-15 0)
(1 -2.43759e-15 0)
(1 1.69846e-15 0)
(1 5.42293e-15 0)
(1 2.74098e-15 0)
(1 -1.01151e-15 0)
(1 2.84286e-15 0)
(1 4.96516e-15 0)
(1 7.61721e-15 0)
(1 7.39741e-15 0)
(1 4.54907e-15 0)
(1 4.10623e-15 0)
(1 2.98473e-15 0)
(1 1.00497e-15 0)
(1 4.40551e-16 0)
(1 2.8873e-15 0)
(1 8.73792e-16 0)
(1 2.0523e-15 0)
(1 5.30154e-15 0)
(1 2.88517e-16 0)
(1 4.21832e-15 0)
(1 2.05053e-15 0)
(1 -1.0594e-15 0)
(1 2.34706e-15 0)
(1 3.61565e-15 0)
(1 3.58191e-15 0)
(1 4.1395e-15 0)
(1 5.92962e-15 0)
(1 6.85295e-15 0)
(1 -7.52241e-15 0)
(1 4.89685e-15 0)
(1 -2.38942e-15 0)
(1 5.72875e-15 0)
(1 1.22899e-15 0)
(1 -4.67093e-15 0)
(1 -3.68696e-15 0)
(1 -7.28739e-15 0)
(1 -1.82898e-15 0)
(1 -1.66638e-15 0)
(1 -1.92969e-15 0)
(1 -8.12176e-15 0)
(1 4.58276e-15 0)
(1 3.81382e-15 0)
(1 8.82058e-15 0)
(1 7.79527e-15 0)
(1 5.26033e-15 0)
(1 6.82009e-15 0)
(1 9.30427e-15 0)
(1 6.68185e-15 0)
(1 -6.41819e-15 0)
(1 -9.49512e-15 0)
(1 -8.15995e-15 0)
(1 2.6536e-16 0)
(1 -2.63907e-15 0)
(1 1.1306e-14 0)
(1 4.62174e-15 0)
(1 1.06539e-14 0)
(1 1.97299e-16 0)
(1 -5.55887e-15 0)
(1 5.08603e-15 0)
(1 2.41039e-15 0)
(1 6.49578e-16 0)
(1 1.29396e-15 0)
(1 1.34491e-15 0)
(1 -1.4985e-15 0)
(1 1.13128e-15 0)
(1 1.26397e-16 0)
(1 3.2613e-15 0)
(1 -6.29573e-15 0)
(1 -6.03151e-15 0)
(1 -4.35097e-15 0)
(1 5.66864e-15 0)
(1 4.32471e-15 0)
(1 6.43771e-15 0)
(1 5.44909e-15 0)
(1 -2.34914e-15 0)
(1 4.28476e-15 0)
(1 -1.39896e-15 0)
(1 1.28688e-15 0)
(1 -1.98359e-15 0)
(1 2.26868e-15 0)
(1 5.27414e-15 0)
(1 5.41433e-15 0)
(1 2.12543e-15 0)
(1 1.77641e-15 0)
(1 6.44619e-15 0)
(1 -1.10892e-15 0)
(1 -6.67249e-16 0)
(1 -3.30887e-15 0)
(1 3.20559e-15 0)
(1 7.09486e-15 0)
(1 9.07083e-15 0)
(1 1.48952e-15 0)
(1 3.02085e-15 0)
(1 5.4671e-15 0)
(1 6.52639e-15 0)
(1 1.75127e-15 0)
(1 1.55504e-15 0)
(1 -2.02883e-15 0)
(1 1.97348e-15 0)
(1 8.1018e-15 0)
(1 4.46094e-15 0)
(1 2.61813e-15 0)
(1 6.20484e-15 0)
(1 1.03294e-14 0)
(1 4.5589e-15 0)
(1 5.26869e-15 0)
(1 3.54993e-15 0)
(1 3.01654e-15 0)
(1 1.11116e-15 0)
(1 -3.91958e-15 0)
(1 -1.03272e-15 0)
(1 2.53927e-15 0)
(1 3.38108e-15 0)
(1 4.62504e-15 0)
(1 -2.83212e-15 0)
(1 -1.7596e-16 0)
(1 4.41832e-15 0)
(1 1.45467e-16 0)
(1 2.46934e-15 0)
(1 -1.12801e-15 0)
(1 3.35653e-16 0)
(1 -2.72396e-16 0)
(1 2.18203e-15 0)
(1 3.45118e-15 0)
(1 7.654e-16 0)
(1 3.24604e-15 0)
(1 4.95788e-15 0)
(1 1.1354e-14 0)
(1 -3.27702e-16 0)
(1 -1.47057e-15 0)
(1 4.6636e-15 0)
(1 -1.01401e-14 0)
(1 -4.70099e-15 0)
(1 -7.03385e-15 0)
(1 1.56108e-15 0)
(1 -2.4503e-15 0)
(1 -6.97501e-15 0)
(1 3.23731e-15 0)
(1 -2.96822e-15 0)
(1 7.78408e-15 0)
(1 2.75711e-15 0)
(1 8.22898e-15 0)
(1 1.61478e-15 0)
(1 1.02464e-14 0)
(1 2.13009e-15 0)
(1 1.63441e-14 0)
(1 9.37792e-15 0)
(1 -2.02364e-15 0)
(1 -3.49064e-15 0)
(1 2.24848e-15 0)
(1 -9.48066e-15 0)
(1 3.61976e-16 0)
(1 -3.14754e-15 0)
(1 4.34455e-16 0)
(1 6.80427e-15 0)
(1 -7.45563e-16 0)
(1 -1.11102e-14 0)
(1 -8.89037e-16 0)
(1 -1.47431e-14 0)
(1 -3.43911e-15 0)
(1 3.46327e-15 0)
(1 1.19307e-14 0)
(1 4.49945e-15 0)
(1 4.60358e-15 0)
(1 2.95206e-15 0)
(1 8.37255e-16 0)
(1 4.13098e-15 0)
(1 -1.1147e-15 0)
(1 -4.29583e-15 0)
(1 9.19541e-15 0)
(1 8.22559e-15 0)
(1 1.33946e-14 0)
(1 1.72896e-14 0)
(1 9.93126e-15 0)
(1 3.29032e-15 0)
(1 1.38402e-15 0)
(1 -9.19713e-15 0)
(1 -1.26993e-14 0)
(1 -5.90456e-15 0)
(1 2.17775e-15 0)
(1 3.50076e-15 0)
(1 4.41761e-15 0)
(1 1.36622e-15 0)
(1 -2.40181e-15 0)
(1 4.18909e-15 0)
(1 7.9475e-15 0)
(1 4.6729e-15 0)
(1 3.36865e-15 0)
(1 4.07281e-15 0)
(1 6.07334e-15 0)
(1 -6.18017e-15 0)
(1 -1.67054e-16 0)
(1 -1.63562e-15 0)
(1 1.47244e-14 0)
(1 1.65162e-14 0)
(1 1.42788e-14 0)
(1 1.335e-14 0)
(1 1.59778e-14 0)
(1 3.81147e-15 0)
(1 4.33336e-15 0)
(1 5.32117e-15 0)
(1 1.35151e-15 0)
(1 -7.39506e-15 0)
(1 -2.46183e-15 0)
(1 2.38688e-16 0)
(1 2.04747e-15 0)
(1 -1.16421e-15 0)
(1 1.10195e-14 0)
(1 6.27928e-15 0)
(1 1.16794e-14 0)
(1 3.79313e-15 0)
(1 -1.55639e-15 0)
(1 -1.98327e-15 0)
(1 -6.36056e-15 0)
(1 -2.04004e-15 0)
(1 1.88451e-15 0)
(1 3.03449e-15 0)
(1 2.54153e-15 0)
(1 3.39182e-15 0)
(1 -3.32824e-15 0)
(1 3.60898e-15 0)
(1 3.89379e-15 0)
(1 1.13123e-14 0)
(1 9.03584e-15 0)
(1 1.01328e-14 0)
(1 1.14113e-14 0)
(1 1.74009e-14 0)
(1 1.7847e-14 0)
(1 3.58197e-15 0)
(1 3.70161e-16 0)
(1 4.12583e-15 0)
(1 -3.84298e-15 0)
(1 -5.04704e-15 0)
(1 -1.94109e-15 0)
(1 -1.5243e-15 0)
(1 5.2127e-15 0)
(1 1.76357e-15 0)
(1 3.70398e-15 0)
(1 -1.10537e-15 0)
(1 8.41788e-15 0)
(1 6.13204e-15 0)
(1 -3.05088e-15 0)
(1 -8.85779e-16 0)
(1 -2.81437e-15 0)
(1 3.83654e-15 0)
(1 5.52923e-15 0)
(1 -4.71237e-15 0)
(1 -9.33607e-15 0)
(1 -1.76216e-15 0)
(1 2.77644e-15 0)
(1 2.15585e-15 0)
(1 -4.03728e-15 0)
(1 4.88492e-15 0)
(1 7.60219e-15 0)
(1 1.24675e-14 0)
(1 -6.57495e-15 0)
(1 2.91662e-16 0)
(1 -2.51749e-15 0)
(1 -8.34454e-15 0)
(1 -3.74981e-15 0)
(1 9.59892e-16 0)
(1 4.13564e-16 0)
(1 -2.71943e-15 0)
(1 1.08123e-15 0)
(1 -3.72213e-15 0)
(1 -5.84253e-16 0)
(1 -5.04406e-15 0)
(1 3.8532e-15 0)
(1 -5.46901e-16 0)
(1 8.93348e-15 0)
(1 4.40324e-15 0)
(1 1.05546e-14 0)
(1 5.87706e-15 0)
(1 2.7183e-15 0)
(1 -2.71222e-16 0)
(1 -4.27565e-15 0)
(1 6.20641e-15 0)
(1 1.68647e-17 0)
(1 6.6054e-15 0)
(1 4.5224e-15 0)
(1 9.0691e-16 0)
(1 2.45795e-15 0)
(1 2.90689e-15 0)
(1 8.39674e-16 0)
(1 6.0558e-15 0)
(1 6.08545e-15 0)
(1 1.59674e-15 0)
(1 6.61981e-15 0)
(1 5.58119e-15 0)
(1 7.9276e-15 0)
(1 7.15217e-15 0)
(1 1.08036e-14 0)
(1 6.9862e-15 0)
(1 1.42553e-15 0)
(1 6.92959e-15 0)
(1 1.0132e-14 0)
(1 1.27869e-14 0)
(1 6.28649e-15 0)
(1 3.28843e-15 0)
(1 8.08438e-15 0)
(1 1.24123e-16 0)
(1 4.62167e-15 0)
(1 -2.30435e-15 0)
(1 -1.45117e-17 0)
(1 5.89634e-15 0)
(1 7.60235e-15 0)
(1 6.79762e-15 0)
(1 7.28192e-15 0)
(1 6.03824e-15 0)
(1 6.73508e-15 0)
(1 -2.2652e-15 0)
(1 -2.55819e-15 0)
(1 -3.2496e-16 0)
(1 -4.00581e-15 0)
(1 4.54346e-15 0)
(1 1.31549e-15 0)
(1 1.04285e-15 0)
(1 2.35343e-15 0)
(1 5.00825e-15 0)
(1 3.57758e-16 0)
(1 7.11855e-15 0)
(1 2.71647e-15 0)
(1 9.10935e-15 0)
(1 6.86508e-15 0)
(1 1.09428e-14 0)
(1 1.32893e-14 0)
(1 2.52636e-14 0)
(1 1.96857e-14 0)
(1 3.30771e-16 0)
(1 7.0643e-16 0)
(1 -3.4647e-15 0)
(1 1.88667e-15 0)
(1 -2.46931e-15 0)
(1 -2.01829e-16 0)
(1 1.18287e-15 0)
(1 1.47199e-17 0)
(1 5.76722e-15 0)
(1 -1.12191e-14 0)
(1 -1.27956e-14 0)
(1 4.93483e-16 0)
(1 -1.79773e-16 0)
(1 -7.21697e-16 0)
(1 5.95154e-15 0)
(1 2.5478e-15 0)
(1 1.13338e-14 0)
(1 -4.84254e-15 0)
(1 2.36725e-15 0)
(1 -2.68502e-15 0)
(1 -1.60168e-15 0)
(1 -1.23414e-15 0)
(1 -9.98805e-16 0)
(1 -6.13998e-15 0)
(1 -4.23366e-15 0)
(1 4.71194e-15 0)
(1 1.53365e-14 0)
(1 8.22728e-15 0)
(1 8.71595e-15 0)
(1 -9.12162e-15 0)
(1 -5.35769e-15 0)
(1 -5.82955e-15 0)
(1 -3.88934e-15 0)
(1 3.61974e-16 0)
(1 6.83022e-15 0)
(1 2.41435e-15 0)
(1 -9.39065e-16 0)
(1 2.53804e-15 0)
(1 -4.43999e-16 0)
(1 6.27897e-15 0)
(1 1.19429e-14 0)
(1 -4.75126e-15 0)
(1 3.0806e-15 0)
(1 1.0545e-16 0)
(1 -1.87103e-15 0)
(1 -2.10817e-15 0)
(1 3.76199e-15 0)
(1 1.41167e-15 0)
(1 8.32536e-15 0)
(1 4.05528e-15 0)
(1 1.3294e-15 0)
(1 1.41862e-15 0)
(1 3.98735e-15 0)
(1 5.98571e-15 0)
(1 1.04847e-14 0)
(1 3.66188e-15 0)
(1 9.43235e-15 0)
(1 -6.62005e-16 0)
(1 5.64734e-15 0)
(1 4.02954e-16 0)
(1 1.04171e-14 0)
(1 -1.00461e-15 0)
(1 1.04465e-14 0)
(1 9.93676e-16 0)
(1 7.66258e-15 0)
(1 2.14368e-15 0)
(1 1.06345e-14 0)
(1 5.79472e-15 0)
(1 9.26572e-15 0)
(1 3.45672e-15 0)
(1 1.31023e-14 0)
(1 4.52144e-15 0)
(1 -1.74094e-16 0)
(1 -1.42938e-15 0)
(1 -4.67679e-16 0)
(1 4.92655e-15 0)
(1 1.03983e-14 0)
(1 5.9106e-15 0)
(1 8.4911e-15 0)
(1 5.20662e-16 0)
(1 6.86318e-15 0)
(1 1.06614e-16 0)
(1 6.07128e-15 0)
(1 7.25788e-16 0)
(1 2.48246e-17 0)
(1 7.20123e-15 0)
(1 1.29385e-15 0)
(1 1.57997e-15 0)
(1 2.87176e-15 0)
(1 1.62463e-16 0)
(1 4.74976e-15 0)
(1 1.84295e-15 0)
(1 2.05789e-15 0)
(1 3.3492e-16 0)
(1 2.06422e-15 0)
(1 6.70879e-15 0)
(1 1.2037e-14 0)
(1 1.0481e-14 0)
(1 1.10243e-14 0)
(1 1.27753e-14 0)
(1 4.42834e-15 0)
(1 -5.91083e-15 0)
(1 1.48064e-15 0)
(1 -1.04756e-15 0)
(1 -9.82865e-16 0)
(1 -5.06394e-15 0)
(1 -3.87097e-15 0)
(1 -3.57527e-15 0)
(1 5.95611e-15 0)
(1 1.15519e-14 0)
(1 3.6728e-15 0)
(1 1.7584e-15 0)
(1 -1.65804e-15 0)
(1 -1.94607e-15 0)
(1 -6.97167e-15 0)
(1 2.82722e-15 0)
(1 5.81126e-15 0)
(1 -4.29418e-15 0)
(1 -2.57027e-16 0)
(1 -3.71598e-15 0)
(1 -5.75036e-15 0)
(1 -3.68842e-15 0)
(1 -7.35494e-16 0)
(1 9.5791e-15 0)
(1 2.78561e-15 0)
(1 -5.61015e-16 0)
(1 1.66601e-15 0)
(1 4.88598e-15 0)
(1 9.15984e-15 0)
(1 4.44718e-15 0)
(1 8.77377e-16 0)
(1 -1.40236e-15 0)
(1 -7.21615e-15 0)
(1 -3.83775e-15 0)
(1 7.18695e-16 0)
(1 -8.01019e-15 0)
(1 -4.36566e-15 0)
(1 -5.28296e-15 0)
(1 1.9258e-15 0)
(1 3.55924e-16 0)
(1 9.21e-15 0)
(1 -4.26906e-15 0)
(1 -3.49481e-15 0)
(1 -8.65453e-15 0)
(1 5.75295e-15 0)
(1 7.33194e-15 0)
(1 1.45589e-14 0)
(1 9.42914e-15 0)
(1 2.69846e-15 0)
(1 -1.25631e-15 0)
(1 -7.81191e-16 0)
(1 2.92117e-15 0)
(1 4.30201e-15 0)
(1 1.2781e-14 0)
(1 1.34626e-14 0)
(1 8.24584e-15 0)
(1 2.01274e-15 0)
(1 1.63563e-15 0)
(1 -2.0271e-15 0)
(1 -4.69495e-16 0)
(1 7.16152e-15 0)
(1 1.19898e-14 0)
(1 7.63714e-15 0)
(1 -7.89145e-16 0)
(1 -4.70914e-15 0)
(1 4.24351e-15 0)
(1 7.18662e-15 0)
(1 7.11018e-15 0)
(1 1.99362e-15 0)
(1 5.96304e-15 0)
(1 1.05126e-14 0)
(1 4.11726e-15 0)
(1 6.04756e-15 0)
(1 2.43486e-15 0)
(1 3.8763e-15 0)
(1 3.3199e-15 0)
(1 4.83076e-15 0)
(1 5.64761e-15 0)
(1 8.23631e-15 0)
(1 3.4802e-15 0)
(1 1.2958e-14 0)
(1 7.77068e-15 0)
(1 4.96427e-15 0)
(1 7.01762e-16 0)
(1 -2.66419e-15 0)
(1 2.88872e-15 0)
(1 -3.01791e-15 0)
(1 2.02675e-15 0)
(1 3.29047e-15 0)
(1 3.51361e-17 0)
(1 5.15985e-15 0)
(1 4.88957e-15 0)
(1 3.28998e-15 0)
(1 4.44919e-15 0)
(1 3.63422e-15 0)
(1 1.55377e-14 0)
(1 1.25009e-14 0)
(1 9.34262e-15 0)
(1 5.44713e-16 0)
(1 6.95219e-15 0)
(1 5.92839e-15 0)
(1 1.97462e-16 0)
(1 -3.29134e-15 0)
(1 -3.25448e-15 0)
(1 2.16383e-15 0)
(1 5.14591e-15 0)
(1 2.05267e-15 0)
(1 -2.06829e-15 0)
(1 -2.33639e-15 0)
(1 8.09323e-15 0)
(1 9.08595e-15 0)
(1 -4.04482e-15 0)
(1 4.09175e-15 0)
(1 7.17554e-15 0)
(1 2.08449e-15 0)
(1 -6.0202e-15 0)
(1 -1.0279e-14 0)
(1 -7.76062e-15 0)
(1 -1.09354e-15 0)
(1 -2.80745e-15 0)
(1 -2.71338e-15 0)
(1 -6.2306e-15 0)
(1 1.31697e-15 0)
(1 -2.49561e-15 0)
(1 1.27481e-14 0)
(1 3.34269e-15 0)
(1 -3.144e-15 0)
(1 -1.13561e-15 0)
(1 -3.07403e-16 0)
(1 -3.11335e-15 0)
(1 -3.9295e-15 0)
(1 -1.25212e-15 0)
(1 -5.73285e-15 0)
(1 1.36636e-15 0)
(1 1.61415e-15 0)
(1 1.58023e-15 0)
(1 4.84126e-15 0)
(1 3.71953e-16 0)
(1 3.24367e-15 0)
(1 -2.51157e-15 0)
(1 -1.05021e-14 0)
(1 -1.36142e-17 0)
(1 -2.7401e-15 0)
(1 -3.4113e-15 0)
(1 -1.84165e-15 0)
(1 6.77094e-15 0)
(1 7.96146e-15 0)
(1 1.44487e-14 0)
(1 3.54346e-15 0)
(1 4.87287e-15 0)
(1 1.67636e-15 0)
(1 -1.07592e-15 0)
(1 2.84097e-15 0)
(1 6.96822e-15 0)
(1 8.33718e-15 0)
(1 3.2491e-15 0)
(1 4.53945e-15 0)
(1 2.48681e-15 0)
(1 -7.03286e-15 0)
(1 -1.3762e-15 0)
(1 2.16594e-15 0)
(1 1.25861e-14 0)
(1 1.33214e-14 0)
(1 1.63587e-14 0)
(1 9.4185e-15 0)
(1 1.17729e-15 0)
(1 -5.6825e-15 0)
(1 5.45111e-16 0)
(1 -1.76872e-15 0)
(1 1.64933e-15 0)
(1 9.28699e-16 0)
(1 7.09995e-15 0)
(1 6.82851e-15 0)
(1 1.03027e-14 0)
(1 9.54607e-15 0)
(1 3.32662e-15 0)
(1 -4.10324e-15 0)
(1 5.38144e-15 0)
(1 6.89808e-15 0)
(1 7.84876e-15 0)
(1 4.25093e-15 0)
(1 5.84503e-15 0)
(1 -9.90037e-16 0)
(1 2.91889e-15 0)
(1 4.31054e-15 0)
(1 3.44122e-15 0)
(1 -8.16976e-16 0)
(1 1.7278e-15 0)
(1 -2.83937e-15 0)
(1 2.7529e-15 0)
(1 2.45956e-15 0)
(1 3.26463e-15 0)
(1 2.40482e-15 0)
(1 9.81736e-16 0)
(1 2.86473e-15 0)
(1 1.06717e-14 0)
(1 5.91569e-15 0)
(1 6.76492e-15 0)
(1 2.83757e-15 0)
(1 7.15268e-15 0)
(1 -3.0707e-15 0)
(1 9.50838e-15 0)
(1 -6.84189e-15 0)
(1 -2.00375e-15 0)
(1 5.45651e-15 0)
(1 5.67011e-15 0)
(1 1.67114e-15 0)
(1 4.71013e-15 0)
(1 -1.79295e-15 0)
(1 -6.27745e-15 0)
(1 1.15027e-15 0)
(1 7.40716e-15 0)
(1 2.89421e-15 0)
(1 1.03659e-14 0)
(1 -2.00621e-15 0)
(1 -1.58041e-14 0)
(1 -1.28169e-14 0)
(1 1.71387e-15 0)
(1 4.32361e-15 0)
(1 -1.81781e-15 0)
(1 1.19107e-15 0)
(1 -9.62884e-15 0)
(1 -2.78489e-15 0)
(1 -8.0085e-15 0)
(1 8.10082e-15 0)
(1 -2.48294e-15 0)
(1 1.14254e-15 0)
(1 4.58807e-17 0)
(1 9.50752e-16 0)
(1 -4.02686e-15 0)
(1 -5.159e-15 0)
(1 2.7261e-15 0)
(1 2.63808e-15 0)
(1 5.44241e-15 0)
(1 8.98658e-15 0)
(1 3.83037e-15 0)
(1 4.34038e-15 0)
(1 -1.10393e-15 0)
(1 -8.47782e-16 0)
(1 -3.75713e-15 0)
(1 -1.238e-14 0)
(1 -5.17096e-15 0)
(1 -5.1139e-16 0)
(1 1.48659e-14 0)
(1 3.65262e-15 0)
(1 3.47543e-15 0)
(1 -2.89304e-15 0)
(1 5.54928e-15 0)
(1 3.21098e-15 0)
(1 3.09863e-15 0)
(1 -5.79711e-16 0)
(1 -4.88192e-15 0)
(1 8.37019e-15 0)
(1 -8.93432e-16 0)
(1 3.89416e-15 0)
(1 8.72254e-15 0)
(1 1.04518e-14 0)
(1 1.0411e-14 0)
(1 1.04526e-14 0)
(1 2.90566e-15 0)
(1 3.96745e-16 0)
(1 3.76976e-16 0)
(1 5.1531e-16 0)
(1 8.39888e-15 0)
(1 7.36707e-15 0)
(1 1.01147e-14 0)
(1 3.57478e-15 0)
(1 4.13587e-15 0)
(1 6.07027e-16 0)
(1 1.74407e-15 0)
(1 3.36995e-15 0)
(1 5.07757e-15 0)
(1 1.08418e-14 0)
(1 1.25331e-14 0)
(1 9.6029e-15 0)
(1 1.28911e-14 0)
(1 3.19504e-15 0)
(1 7.09976e-15 0)
(1 9.40175e-15 0)
(1 7.93851e-15 0)
(1 2.40187e-15 0)
(1 5.13704e-15 0)
(1 3.77844e-15 0)
(1 4.4392e-15 0)
(1 3.86862e-15 0)
(1 1.03586e-15 0)
(1 -2.65294e-15 0)
(1 5.50312e-15 0)
(1 3.98782e-15 0)
(1 3.59454e-15 0)
(1 -1.3043e-16 0)
(1 3.8619e-15 0)
(1 4.19798e-15 0)
(1 3.62646e-15 0)
(1 -2.37266e-16 0)
(1 2.62763e-15 0)
(1 8.35022e-15 0)
(1 8.93543e-15 0)
(1 8.53858e-15 0)
(1 8.99236e-15 0)
(1 1.64452e-15 0)
(1 3.28185e-15 0)
(1 5.82528e-15 0)
(1 5.48988e-15 0)
(1 6.32671e-15 0)
(1 -1.87648e-15 0)
(1 -9.89539e-15 0)
(1 -7.93195e-15 0)
(1 1.45514e-15 0)
(1 6.98266e-15 0)
(1 6.14179e-16 0)
(1 1.01089e-14 0)
(1 -3.75036e-15 0)
(1 -8.0186e-15 0)
(1 -1.29182e-14 0)
(1 -1.18962e-14 0)
(1 -1.78541e-14 0)
(1 7.53318e-15 0)
(1 -9.65381e-15 0)
(1 -3.75386e-15 0)
(1 -2.62723e-15 0)
(1 1.44919e-15 0)
(1 8.12985e-15 0)
(1 1.08953e-14 0)
(1 6.59729e-15 0)
(1 7.10286e-15 0)
(1 -1.39046e-15 0)
(1 -2.09807e-15 0)
(1 -2.56095e-15 0)
(1 4.55831e-16 0)
(1 -2.05655e-15 0)
(1 3.4988e-15 0)
(1 2.86988e-15 0)
(1 -7.57988e-15 0)
(1 -4.41601e-15 0)
(1 -4.68706e-15 0)
(1 -1.26608e-15 0)
(1 3.11352e-15 0)
(1 1.54009e-15 0)
(1 5.99737e-16 0)
(1 3.99131e-15 0)
(1 1.26739e-15 0)
(1 -1.05202e-15 0)
(1 8.6152e-15 0)
(1 7.33713e-15 0)
(1 8.0242e-15 0)
(1 -4.67542e-15 0)
(1 -6.16358e-16 0)
(1 3.20658e-15 0)
(1 -2.71739e-15 0)
(1 7.42985e-15 0)
(1 4.59254e-15 0)
(1 9.57377e-16 0)
(1 -1.65433e-15 0)
(1 7.30341e-16 0)
(1 7.94018e-15 0)
(1 3.82051e-15 0)
(1 5.07583e-15 0)
(1 6.58307e-15 0)
(1 8.39032e-15 0)
(1 1.1082e-14 0)
(1 5.02434e-15 0)
(1 4.33446e-15 0)
(1 3.18729e-15 0)
(1 5.97061e-15 0)
(1 6.14567e-15 0)
(1 1.06498e-14 0)
(1 1.02935e-14 0)
(1 6.24254e-15 0)
(1 4.69019e-15 0)
(1 7.42771e-16 0)
(1 1.15708e-14 0)
(1 1.18253e-14 0)
(1 1.12967e-14 0)
(1 1.1616e-14 0)
(1 9.94766e-15 0)
(1 8.69062e-15 0)
(1 7.71227e-15 0)
(1 7.95331e-15 0)
(1 5.67342e-15 0)
(1 6.77817e-15 0)
(1 3.25679e-15 0)
(1 3.0961e-15 0)
(1 6.32787e-15 0)
(1 1.57282e-15 0)
(1 -5.20149e-15 0)
(1 -4.82796e-15 0)
(1 -2.14967e-15 0)
(1 -5.57877e-16 0)
(1 -1.60652e-15 0)
(1 1.58882e-16 0)
(1 3.74086e-15 0)
(1 7.42927e-15 0)
(1 5.7918e-15 0)
(1 9.65755e-15 0)
(1 1.93753e-15 0)
(1 7.41405e-15 0)
(1 8.96461e-15 0)
(1 1.12273e-14 0)
(1 1.09292e-14 0)
(1 -1.71446e-15 0)
(1 -1.51679e-15 0)
(1 -1.20726e-15 0)
(1 7.8088e-15 0)
(1 7.45199e-16 0)
(1 3.0496e-15 0)
(1 9.18437e-15 0)
(1 5.51422e-15 0)
(1 -4.89483e-16 0)
(1 9.25618e-16 0)
(1 -8.06978e-15 0)
(1 -6.04008e-15 0)
(1 -7.85867e-15 0)
(1 -5.51607e-15 0)
(1 3.86287e-15 0)
(1 1.47601e-15 0)
(1 -2.38987e-15 0)
(1 -1.4249e-14 0)
(1 -1.28093e-14 0)
(1 -4.45781e-15 0)
(1 3.99182e-16 0)
(1 1.10504e-14 0)
(1 1.27617e-15 0)
(1 -2.31603e-15 0)
(1 -1.36537e-14 0)
(1 1.57645e-15 0)
(1 -2.88087e-15 0)
(1 4.09178e-15 0)
(1 -4.67991e-15 0)
(1 1.89429e-15 0)
(1 2.70979e-15 0)
(1 2.32834e-15 0)
(1 7.95582e-15 0)
(1 3.53423e-15 0)
(1 2.20827e-16 0)
(1 5.56042e-15 0)
(1 1.83093e-15 0)
(1 3.53445e-15 0)
(1 1.20508e-15 0)
(1 6.08409e-16 0)
(1 9.37001e-15 0)
(1 8.0445e-15 0)
(1 4.35254e-15 0)
(1 -1.01868e-14 0)
(1 -1.07189e-14 0)
(1 -7.67071e-15 0)
(1 -4.63375e-15 0)
(1 -2.71297e-15 0)
(1 2.69415e-15 0)
(1 9.17144e-16 0)
(1 7.36885e-15 0)
(1 7.95418e-15 0)
(1 2.1024e-15 0)
(1 9.25959e-16 0)
(1 2.76618e-15 0)
(1 3.8636e-15 0)
(1 8.92089e-15 0)
(1 3.02546e-15 0)
(1 3.13199e-15 0)
(1 4.06211e-15 0)
(1 1.23767e-15 0)
(1 -4.49876e-15 0)
(1 6.92069e-15 0)
(1 -2.28227e-15 0)
(1 8.45395e-15 0)
(1 6.74814e-16 0)
(1 6.58373e-15 0)
(1 4.04966e-15 0)
(1 8.44426e-15 0)
(1 5.17169e-15 0)
(1 5.31289e-15 0)
(1 5.29433e-15 0)
(1 8.42163e-15 0)
(1 8.36877e-15 0)
(1 1.09718e-14 0)
(1 1.26095e-15 0)
(1 8.43492e-15 0)
(1 5.9473e-15 0)
(1 5.7118e-15 0)
(1 5.99361e-15 0)
(1 7.99283e-16 0)
(1 2.83097e-15 0)
(1 3.66437e-15 0)
(1 2.78852e-15 0)
(1 -7.98897e-16 0)
(1 -1.68268e-15 0)
(1 -2.22701e-15 0)
(1 -3.23621e-15 0)
(1 -9.57252e-16 0)
(1 2.29661e-15 0)
(1 8.4031e-15 0)
(1 8.56072e-15 0)
(1 6.76839e-15 0)
(1 -3.88927e-16 0)