/*--------------------------------*- C++ -*----------------------------------*\
| =========                 |                                                 |
| \\      /  F ield         | OpenFOAM: The Open Source CFD Toolbox           |
|  \\    /   O peration     | Version:  v2012                                 |
|   \\  /    A nd           | Website:  www.openfoam.com                      |
|    \\/     M anipulation  |                                                 |
\*---------------------------------------------------------------------------*/
FoamFile
{
    version     2.0;
    format      ascii;
    class       volVectorField;
    location    "0";
    object      uRec;
}
// * * * * * * * * * * * * * * * * * * * * * * * * * * * * * * * * * * * * * //

dimensions      [0 1 -1 0 0 0 0];


internalField   nonuniform List<vector> 
4000
(
(1 1.48156e-15 0)
(1 4.52038e-16 0)
(1 -1.54157e-15 0)
(1 7.75937e-17 0)
(1 1.18811e-16 0)
(1 2.68448e-16 0)
(1 2.2145e-15 0)
(1 -8.70677e-16 0)
(1 3.21074e-15 0)
(1 -4.98008e-16 0)
(1 -3.27137e-15 0)
(1 1.325e-16 0)
(1 1.41015e-15 0)
(1 8.68251e-16 0)
(1 -1.10803e-15 0)
(1 7.25939e-16 0)
(1 -1.29685e-16 0)
(1 -5.13937e-16 0)
(1 1.7776e-15 0)
(1 1.70007e-15 0)
(1 4.13805e-16 0)
(1 1.65722e-15 0)
(1 -1.53462e-15 0)
(1 1.18106e-15 0)
(1 -1.15769e-15 0)
(1 -5.63117e-16 0)
(1 4.23832e-16 0)
(1 -1.39251e-15 0)
(1 -1.76915e-16 0)
(1 -2.16204e-16 0)
(1 1.51865e-15 0)
(1 2.17994e-15 0)
(1 -6.79283e-16 0)
(1 -6.82374e-16 0)
(1 7.17893e-17 0)
(1 -7.47763e-16 0)
(1 -7.18823e-16 0)
(1 1.68952e-15 0)
(1 1.01141e-15 0)
(1 -1.18689e-15 0)
(1 2.79492e-16 0)
(1 -1.70006e-15 0)
(1 -4.25638e-16 0)
(1 2.20025e-15 0)
(1 1.56722e-15 0)
(1 -1.06972e-15 0)
(1 6.3536e-16 0)
(1 -2.18945e-16 0)
(1 6.14572e-16 0)
(1 -1.4907e-16 0)
(1 4.15746e-17 0)
(1 7.44622e-16 0)
(1 7.55186e-16 0)
(1 2.74424e-15 0)
(1 1.85095e-15 0)
(1 1.99699e-15 0)
(1 5.59295e-16 0)
(1 2.30165e-17 0)
(1 -3.10961e-17 0)
(1 4.11817e-16 0)
(1 -1.1956e-15 0)
(1 -1.19075e-15 0)
(1 -7.30599e-16 0)
(1 6.22923e-16 0)
(1 5.7751e-16 0)
(1 5.12923e-16 0)
(1 -1.72127e-16 0)
(1 -3.85163e-16 0)
(1 3.7479e-16 0)
(1 -8.39251e-16 0)
(1 -3.82556e-16 0)
(1 3.12397e-16 0)
(1 -3.2032e-16 0)
(1 -3.00346e-16 0)
(1 -1.16064e-15 0)
(1 -1.50219e-15 0)
(1 -4.39201e-16 0)
(1 -4.49942e-17 0)
(1 1.65695e-16 0)
(1 8.98546e-16 0)
(1 6.51037e-16 0)
(1 1.09904e-15 0)
(1 -8.46213e-16 0)
(1 7.73128e-17 0)
(1 -1.14839e-15 0)
(1 -8.26333e-16 0)
(1 1.09619e-15 0)
(1 1.00442e-15 0)
(1 4.17017e-16 0)
(1 1.03837e-15 0)
(1 2.32544e-16 0)
(1 4.04437e-17 0)
(1 1.16416e-15 0)
(1 1.43082e-15 0)
(1 -3.00543e-16 0)
(1 -4.95494e-16 0)
(1 5.01815e-16 0)
(1 4.21125e-16 0)
(1 -5.0476e-16 0)
(1 -4.88764e-16 0)
(1 1.05739e-15 0)
(1 1.96791e-15 0)
(1 -1.54253e-15 0)
(1 -6.40399e-17 0)
(1 -9.86563e-16 0)
(1 1.21736e-15 0)
(1 2.51961e-15 0)
(1 -3.50212e-16 0)
(1 3.22286e-15 0)
(1 1.23447e-15 0)
(1 -1.32527e-15 0)
(1 -8.42817e-16 0)
(1 6.95041e-16 0)
(1 -4.32532e-16 0)
(1 -1.43567e-15 0)
(1 2.79643e-15 0)
(1 1.19575e-15 0)
(1 4.22563e-16 0)
(1 2.03033e-15 0)
(1 1.55842e-15 0)
(1 6.92689e-16 0)
(1 1.30402e-15 0)
(1 -1.40646e-15 0)
(1 8.71197e-16 0)
(1 -1.33386e-15 0)
(1 2.93324e-16 0)
(1 2.19017e-15 0)
(1 -2.28681e-15 0)
(1 4.71708e-17 0)
(1 3.36613e-16 0)
(1 1.94138e-16 0)
(1 2.16453e-15 0)
(1 -2.07282e-15 0)
(1 -1.90643e-16 0)
(1 1.32839e-15 0)
(1 2.25563e-17 0)
(1 9.56182e-16 0)
(1 3.17764e-15 0)
(1 -6.20075e-16 0)
(1 -1.99056e-15 0)
(1 -1.84087e-15 0)
(1 -1.57421e-15 0)
(1 -1.89941e-16 0)
(1 2.49177e-15 0)
(1 1.49682e-15 0)
(1 -3.11251e-16 0)
(1 2.2166e-15 0)
(1 2.34587e-15 0)
(1 2.74937e-15 0)
(1 1.75732e-15 0)
(1 1.35295e-15 0)
(1 1.48175e-16 0)
(1 1.06695e-15 0)
(1 1.06509e-15 0)
(1 1.75252e-15 0)
(1 7.51968e-16 0)
(1 1.45933e-15 0)
(1 1.70198e-15 0)
(1 1.21381e-15 0)
(1 -1.0359e-15 0)
(1 8.73165e-16 0)
(1 8.68933e-16 0)
(1 -1.37036e-16 0)
(1 8.62172e-16 0)
(1 2.73844e-16 0)
(1 1.61324e-15 0)
(1 -1.37427e-15 0)
(1 -9.14307e-16 0)
(1 8.65943e-16 0)
(1 -5.79451e-16 0)
(1 -8.22851e-16 0)
(1 4.03257e-16 0)
(1 1.60794e-15 0)
(1 3.81691e-16 0)
(1 4.36778e-16 0)
(1 -7.66106e-16 0)
(1 3.82335e-16 0)
(1 1.2107e-15 0)
(1 -7.61041e-17 0)
(1 2.26342e-15 0)
(1 1.70265e-15 0)
(1 9.73536e-16 0)
(1 5.4847e-16 0)
(1 -4.76026e-16 0)
(1 -7.398e-16 0)
(1 -1.15061e-15 0)
(1 3.40012e-17 0)
(1 1.21929e-15 0)
(1 7.40825e-16 0)
(1 1.91554e-15 0)
(1 5.06173e-16 0)
(1 -3.34604e-16 0)
(1 2.17911e-15 0)
(1 1.88937e-15 0)
(1 -1.55473e-15 0)
(1 -3.24828e-16 0)
(1 1.07679e-15 0)
(1 -7.41399e-16 0)
(1 -1.1357e-15 0)
(1 -9.85922e-16 0)
(1 -1.24691e-15 0)
(1 3.35887e-15 0)
(1 -1.51539e-15 0)
(1 7.95924e-16 0)
(1 -6.82906e-16 0)
(1 1.2474e-15 0)
(1 2.29438e-15 0)
(1 4.65769e-15 0)
(1 -4.61016e-16 0)
(1 -2.65972e-16 0)
(1 6.76414e-16 0)
(1 1.85662e-15 0)
(1 1.68667e-15 0)
(1 1.0512e-16 0)
(1 2.98943e-16 0)
(1 1.88992e-15 0)
(1 2.14123e-15 0)
(1 3.13176e-15 0)
(1 4.6223e-16 0)
(1 8.56688e-16 0)
(1 4.95555e-16 0)
(1 -1.7887e-15 0)
(1 2.3539e-16 0)
(1 -7.53974e-17 0)
(1 3.26266e-15 0)
(1 2.44645e-15 0)
(1 2.88813e-15 0)
(1 -1.42148e-15 0)
(1 1.84069e-16 0)
(1 8.28959e-16 0)
(1 -2.20573e-16 0)
(1 -1.34537e-15 0)
(1 -3.71919e-16 0)
(1 3.62569e-16 0)
(1 -2.45593e-16 0)
(1 1.41753e-15 0)
(1 2.22275e-16 0)
(1 3.40426e-15 0)
(1 2.45839e-15 0)
(1 -1.63148e-15 0)
(1 -4.95794e-16 0)
(1 -2.33159e-16 0)
(1 7.49841e-16 0)
(1 2.75841e-16 0)
(1 1.45347e-15 0)
(1 4.83407e-16 0)
(1 2.14974e-15 0)
(1 4.36496e-15 0)
(1 3.43193e-15 0)
(1 2.26909e-15 0)
(1 3.56121e-15 0)
(1 1.2408e-15 0)
(1 2.25286e-15 0)
(1 -5.60316e-16 0)
(1 1.7327e-15 0)
(1 1.33421e-15 0)
(1 3.01747e-15 0)
(1 3.43686e-15 0)
(1 4.18962e-15 0)
(1 9.0503e-16 0)
(1 -1.20431e-16 0)
(1 1.21711e-15 0)
(1 5.94733e-16 0)
(1 -7.57655e-16 0)
(1 -1.86852e-16 0)
(1 4.69141e-16 0)
(1 -3.87851e-16 0)
(1 2.09791e-16 0)
(1 1.81433e-15 0)
(1 3.05054e-16 0)
(1 5.66931e-16 0)
(1 -5.26588e-16 0)
(1 -5.19837e-16 0)
(1 -1.37702e-15 0)
(1 7.53033e-16 0)
(1 -5.52828e-16 0)
(1 8.44921e-16 0)
(1 4.97609e-16 0)
(1 9.63459e-16 0)
(1 1.91653e-16 0)
(1 3.11135e-16 0)
(1 1.44411e-15 0)
(1 1.53699e-15 0)
(1 1.67988e-16 0)
(1 -3.19265e-16 0)
(1 4.18874e-16 0)
(1 -7.44325e-16 0)
(1 1.29889e-15 0)
(1 7.62485e-16 0)
(1 2.23438e-15 0)
(1 1.04436e-15 0)
(1 9.22917e-16 0)
(1 3.05178e-16 0)
(1 1.51343e-15 0)
(1 -5.50274e-16 0)
(1 1.02609e-15 0)
(1 1.36286e-15 0)
(1 -1.89147e-15 0)
(1 -3.93351e-16 0)
(1 -7.08065e-16 0)
(1 -3.92214e-16 0)
(1 1.55035e-15 0)
(1 -4.13215e-16 0)
(1 -1.50576e-15 0)
(1 2.22095e-15 0)
(1 7.85358e-16 0)
(1 3.65165e-15 0)
(1 4.58804e-15 0)
(1 1.30349e-15 0)
(1 -1.21539e-16 0)
(1 -1.26225e-15 0)
(1 2.9427e-15 0)
(1 -4.60622e-16 0)
(1 2.49919e-15 0)
(1 3.99682e-15 0)
(1 -3.5609e-17 0)
(1 2.57959e-15 0)
(1 2.12929e-15 0)
(1 1.94887e-16 0)
(1 4.07816e-15 0)
(1 9.38369e-17 0)
(1 9.15848e-16 0)
(1 3.31486e-16 0)
(1 8.36933e-16 0)
(1 5.53088e-15 0)
(1 2.31151e-15 0)
(1 2.3782e-15 0)
(1 -9.16353e-16 0)
(1 1.0712e-15 0)
(1 1.0764e-15 0)
(1 6.98e-16 0)
(1 -1.43629e-16 0)
(1 1.69949e-16 0)
(1 -1.97259e-16 0)
(1 -1.21823e-15 0)
(1 -7.03582e-16 0)
(1 -7.99846e-16 0)
(1 1.88871e-16 0)
(1 3.66651e-15 0)
(1 4.16339e-16 0)
(1 2.91585e-15 0)
(1 3.78765e-16 0)
(1 -1.2693e-16 0)
(1 1.08844e-15 0)
(1 3.06914e-15 0)
(1 2.71836e-15 0)
(1 1.99489e-15 0)
(1 3.55366e-15 0)
(1 3.44697e-15 0)
(1 2.72436e-15 0)
(1 4.25955e-15 0)
(1 2.83886e-15 0)
(1 2.70941e-15 0)
(1 2.33659e-15 0)
(1 3.27421e-15 0)
(1 2.9824e-15 0)
(1 4.27271e-15 0)
(1 4.61106e-15 0)
(1 3.80337e-15 0)
(1 3.93348e-15 0)
(1 1.68866e-15 0)
(1 -1.58867e-15 0)
(1 -6.81517e-16 0)
(1 1.40569e-16 0)
(1 -2.98989e-17 0)
(1 4.77691e-16 0)
(1 5.27496e-16 0)
(1 1.84255e-15 0)
(1 2.4946e-16 0)
(1 -3.91289e-16 0)
(1 4.57872e-16 0)
(1 -1.83078e-15 0)
(1 -1.82036e-15 0)
(1 -1.78243e-15 0)
(1 -8.18333e-16 0)
(1 1.54152e-15 0)
(1 2.93333e-15 0)
(1 6.37922e-16 0)
(1 3.00665e-15 0)
(1 1.07505e-15 0)
(1 -1.40412e-15 0)
(1 2.53513e-15 0)
(1 2.45143e-16 0)
(1 1.10692e-15 0)
(1 7.79824e-16 0)
(1 -3.16035e-16 0)
(1 1.97994e-15 0)
(1 5.73033e-16 0)
(1 1.64539e-15 0)
(1 1.93695e-15 0)
(1 4.43094e-16 0)
(1 2.41706e-15 0)
(1 9.81151e-16 0)
(1 1.95015e-15 0)
(1 1.20899e-15 0)
(1 4.67587e-16 0)
(1 4.70078e-16 0)
(1 7.7524e-16 0)
(1 -1.65177e-15 0)
(1 -1.75086e-15 0)
(1 1.09651e-15 0)
(1 -6.00159e-16 0)
(1 2.54557e-15 0)
(1 -3.85338e-16 0)
(1 2.5492e-15 0)
(1 2.13393e-15 0)
(1 1.31605e-15 0)
(1 5.70956e-16 0)
(1 3.49646e-15 0)
(1 2.37695e-15 0)
(1 2.13266e-15 0)
(1 3.45331e-15 0)
(1 1.25079e-16 0)
(1 9.16508e-16 0)
(1 2.75025e-15 0)
(1 1.8384e-15 0)
(1 4.20074e-15 0)
(1 2.20601e-15 0)
(1 9.68178e-16 0)
(1 4.63926e-16 0)
(1 1.00259e-15 0)
(1 3.41236e-15 0)
(1 1.8992e-15 0)
(1 2.38228e-15 0)
(1 -4.03238e-16 0)
(1 -2.11197e-16 0)
(1 -2.98127e-16 0)
(1 1.36544e-15 0)
(1 1.30064e-15 0)
(1 2.78894e-16 0)
(1 3.25814e-16 0)
(1 1.76342e-15 0)
(1 -1.56377e-15 0)
(1 3.20932e-15 0)
(1 -4.37967e-16 0)
(1 -1.88442e-15 0)
(1 8.84679e-16 0)
(1 -9.73358e-16 0)
(1 2.16335e-15 0)
(1 3.3303e-15 0)
(1 3.22248e-15 0)
(1 9.00031e-16 0)
(1 -1.27597e-15 0)
(1 5.19858e-16 0)
(1 4.90535e-16 0)
(1 4.62777e-15 0)
(1 3.81582e-15 0)
(1 5.46523e-15 0)
(1 4.18188e-15 0)
(1 4.04801e-15 0)
(1 2.78968e-15 0)
(1 2.14786e-15 0)
(1 1.92746e-15 0)
(1 3.39075e-15 0)
(1 3.53005e-15 0)
(1 2.50253e-15 0)
(1 3.34543e-15 0)
(1 3.18079e-15 0)
(1 2.18513e-15 0)
(1 3.0695e-15 0)
(1 5.29651e-15 0)
(1 9.51625e-16 0)
(1 1.55973e-15 0)
(1 1.06313e-15 0)
(1 1.63355e-15 0)
(1 2.4162e-15 0)
(1 2.39452e-15 0)
(1 2.38492e-15 0)
(1 -1.20196e-15 0)
(1 1.19748e-15 0)
(1 -1.67645e-15 0)
(1 -9.45024e-16 0)
(1 1.65941e-15 0)
(1 1.28717e-16 0)
(1 -1.05899e-16 0)
(1 1.18893e-15 0)
(1 2.22116e-15 0)
(1 1.24938e-15 0)
(1 1.61463e-15 0)
(1 1.28438e-15 0)
(1 1.21658e-16 0)
(1 2.77296e-16 0)
(1 6.25529e-17 0)
(1 1.61004e-16 0)
(1 2.47633e-15 0)
(1 9.45992e-16 0)
(1 2.31546e-15 0)
(1 1.16166e-15 0)
(1 1.53094e-15 0)
(1 1.03885e-15 0)
(1 1.32268e-15 0)
(1 1.75804e-15 0)
(1 3.15618e-15 0)
(1 1.84204e-15 0)
(1 3.06127e-15 0)
(1 9.3851e-16 0)
(1 -3.65906e-16 0)
(1 1.08927e-15 0)
(1 -1.07149e-15 0)
(1 -2.6482e-16 0)
(1 4.04665e-16 0)
(1 -9.55068e-16 0)
(1 3.36242e-15 0)
(1 2.94282e-15 0)
(1 7.33263e-16 0)
(1 1.82299e-15 0)
(1 5.93841e-17 0)
(1 2.63863e-15 0)
(1 2.25476e-15 0)
(1 2.56178e-15 0)
(1 4.38502e-15 0)
(1 3.45061e-15 0)
(1 2.06912e-15 0)
(1 1.3039e-15 0)
(1 1.96013e-15 0)
(1 2.79074e-15 0)
(1 1.50905e-15 0)
(1 1.91176e-15 0)
(1 7.46455e-16 0)
(1 -1.73388e-15 0)
(1 1.75092e-15 0)
(1 1.42517e-15 0)
(1 6.19006e-15 0)
(1 4.06748e-15 0)
(1 1.8117e-15 0)
(1 2.19943e-15 0)
(1 4.40469e-16 0)
(1 2.42555e-15 0)
(1 -2.08972e-15 0)
(1 3.92716e-17 0)
(1 -1.32434e-15 0)
(1 8.31405e-16 0)
(1 -6.28936e-16 0)
(1 2.52257e-15 0)
(1 -6.63009e-17 0)
(1 6.6133e-16 0)
(1 2.72492e-15 0)
(1 2.25961e-15 0)
(1 1.32233e-15 0)
(1 2.0277e-15 0)
(1 2.25976e-15 0)
(1 2.59421e-15 0)
(1 5.59654e-16 0)
(1 1.57071e-16 0)
(1 2.46425e-15 0)
(1 3.96877e-15 0)
(1 4.01613e-15 0)
(1 5.62736e-15 0)
(1 5.47075e-15 0)
(1 4.21534e-15 0)
(1 1.94471e-15 0)
(1 3.45571e-15 0)
(1 4.57075e-15 0)
(1 4.231e-15 0)
(1 2.58762e-15 0)
(1 3.824e-15 0)
(1 4.52396e-15 0)
(1 4.26035e-15 0)
(1 4.73678e-15 0)
(1 5.99528e-15 0)
(1 2.46419e-15 0)
(1 1.6318e-15 0)
(1 1.07195e-15 0)
(1 7.67549e-16 0)
(1 2.44687e-15 0)
(1 2.74933e-15 0)
(1 3.71467e-15 0)
(1 1.66125e-15 0)
(1 1.37354e-15 0)
(1 6.0376e-16 0)
(1 1.19883e-15 0)
(1 9.95161e-16 0)
(1 2.05676e-15 0)
(1 2.24955e-16 0)
(1 3.60735e-16 0)
(1 7.34634e-16 0)
(1 1.84368e-15 0)
(1 2.4719e-15 0)
(1 -9.55066e-16 0)
(1 -2.82253e-16 0)
(1 1.52592e-15 0)
(1 1.84277e-15 0)
(1 1.16669e-15 0)
(1 1.77389e-15 0)
(1 7.99213e-16 0)
(1 6.55184e-16 0)
(1 -1.64881e-16 0)
(1 -7.81252e-16 0)
(1 1.78692e-16 0)
(1 1.19544e-15 0)
(1 2.36713e-15 0)
(1 2.32527e-15 0)
(1 3.16613e-15 0)
(1 3.42154e-15 0)
(1 4.08454e-15 0)
(1 3.14337e-15 0)
(1 1.01533e-15 0)
(1 -1.09192e-15 0)
(1 1.74217e-15 0)
(1 2.12026e-15 0)
(1 1.08039e-16 0)
(1 4.19495e-16 0)
(1 3.26699e-15 0)
(1 1.27211e-15 0)
(1 1.86135e-15 0)
(1 5.58116e-16 0)
(1 2.52838e-15 0)
(1 6.63711e-15 0)
(1 2.09919e-15 0)
(1 4.12648e-15 0)
(1 2.77635e-15 0)
(1 1.45e-15 0)
(1 7.97833e-16 0)
(1 3.2662e-15 0)
(1 1.95249e-15 0)
(1 4.35606e-15 0)
(1 1.68883e-15 0)
(1 8.07183e-16 0)
(1 4.30346e-16 0)
(1 2.91746e-15 0)
(1 2.40659e-15 0)
(1 -7.62343e-16 0)
(1 4.06881e-15 0)
(1 -1.67646e-15 0)
(1 3.64406e-15 0)
(1 1.45374e-15 0)
(1 1.52076e-15 0)
(1 1.18425e-15 0)
(1 6.99301e-16 0)
(1 1.62454e-15 0)
(1 1.15783e-15 0)
(1 1.25616e-15 0)
(1 2.0152e-15 0)
(1 -1.08468e-15 0)
(1 1.77607e-16 0)
(1 2.87299e-15 0)
(1 6.82293e-16 0)
(1 2.24266e-15 0)
(1 -9.91076e-16 0)
(1 3.91211e-15 0)
(1 2.19118e-15 0)
(1 2.95853e-15 0)
(1 3.11647e-15 0)
(1 1.41372e-15 0)
(1 3.28647e-15 0)
(1 4.35948e-15 0)
(1 5.45798e-15 0)
(1 2.70586e-15 0)
(1 4.35421e-15 0)
(1 3.62319e-15 0)
(1 2.78982e-15 0)
(1 3.6993e-15 0)
(1 4.73615e-15 0)
(1 4.7647e-15 0)
(1 3.33361e-15 0)
(1 3.45939e-15 0)
(1 4.93346e-15 0)
(1 5.62769e-15 0)
(1 5.47404e-15 0)
(1 5.34658e-15 0)
(1 2.49796e-15 0)
(1 3.69849e-15 0)
(1 2.03349e-15 0)
(1 2.2539e-15 0)
(1 1.2453e-15 0)
(1 7.72555e-16 0)
(1 5.31374e-16 0)
(1 2.6441e-15 0)
(1 2.36028e-15 0)
(1 3.85597e-16 0)
(1 3.74495e-15 0)
(1 2.23759e-15 0)
(1 -2.41597e-17 0)
(1 -2.24058e-16 0)
(1 -3.78837e-16 0)
(1 3.38375e-15 0)
(1 1.34898e-15 0)
(1 3.89457e-15 0)
(1 1.12072e-15 0)
(1 6.94832e-16 0)
(1 1.8004e-15 0)
(1 1.82419e-15 0)
(1 2.37597e-15 0)
(1 1.67458e-15 0)
(1 1.20038e-15 0)
(1 2.51476e-15 0)
(1 1.25835e-15 0)
(1 1.78181e-15 0)
(1 1.6697e-15 0)
(1 1.72929e-15 0)
(1 2.24085e-15 0)
(1 2.93918e-15 0)
(1 3.9898e-15 0)
(1 3.60284e-15 0)
(1 1.97527e-15 0)
(1 3.48888e-15 0)
(1 2.05709e-15 0)
(1 1.1674e-15 0)
(1 1.80456e-15 0)
(1 1.16113e-15 0)
(1 -2.69068e-16 0)
(1 1.05489e-15 0)
(1 -4.30747e-16 0)
(1 1.44129e-15 0)
(1 3.37459e-15 0)
(1 2.48009e-15 0)
(1 2.39664e-15 0)
(1 4.14732e-15 0)
(1 5.71214e-15 0)
(1 6.31736e-15 0)
(1 3.76286e-15 0)
(1 -1.34202e-17 0)
(1 2.56057e-15 0)
(1 1.92554e-15 0)
(1 2.37249e-15 0)
(1 4.92166e-15 0)
(1 3.32531e-15 0)
(1 4.83658e-15 0)
(1 1.4802e-15 0)
(1 1.50203e-15 0)
(1 1.92618e-15 0)
(1 -1.20146e-15 0)
(1 1.6509e-15 0)
(1 -4.92001e-16 0)
(1 -1.73579e-15 0)
(1 -3.16543e-15 0)
(1 -1.11755e-15 0)
(1 5.65796e-16 0)
(1 4.18033e-15 0)
(1 5.02167e-15 0)
(1 5.80266e-15 0)
(1 1.4598e-15 0)
(1 2.08475e-15 0)
(1 -2.01329e-15 0)
(1 -1.72039e-15 0)
(1 7.86404e-16 0)
(1 1.09258e-16 0)
(1 2.05663e-15 0)
(1 4.26482e-15 0)
(1 6.35771e-15 0)
(1 2.19397e-15 0)
(1 1.01552e-15 0)
(1 2.53124e-15 0)
(1 -7.28946e-17 0)
(1 9.49614e-16 0)
(1 5.27529e-15 0)
(1 6.75487e-15 0)
(1 5.13313e-15 0)
(1 2.86845e-15 0)
(1 4.55348e-15 0)
(1 5.37536e-15 0)
(1 3.76639e-15 0)
(1 2.23892e-15 0)
(1 6.05186e-15 0)
(1 7.17687e-15 0)
(1 7.48495e-15 0)
(1 3.98409e-15 0)
(1 4.39792e-15 0)
(1 4.24181e-15 0)
(1 1.57192e-15 0)
(1 1.62318e-15 0)
(1 5.15454e-15 0)
(1 5.89896e-15 0)
(1 5.28932e-15 0)
(1 2.65518e-15 0)
(1 2.12416e-15 0)
(1 2.07127e-15 0)
(1 1.48756e-15 0)
(1 2.31477e-15 0)
(1 2.02635e-15 0)
(1 2.07393e-15 0)
(1 1.52436e-15 0)
(1 1.36043e-15 0)
(1 -1.60608e-16 0)
(1 1.11629e-15 0)
(1 3.20529e-15 0)
(1 9.99249e-16 0)
(1 1.11717e-15 0)
(1 9.54127e-16 0)
(1 4.86465e-16 0)
(1 2.47397e-15 0)
(1 7.61383e-16 0)
(1 2.81665e-15 0)
(1 1.75727e-15 0)
(1 4.38341e-16 0)
(1 2.17429e-15 0)
(1 2.33107e-15 0)
(1 2.78632e-15 0)
(1 2.96326e-15 0)
(1 3.82926e-16 0)
(1 2.04476e-15 0)
(1 2.88593e-15 0)
(1 4.29394e-15 0)
(1 3.85379e-15 0)
(1 3.01989e-15 0)
(1 3.24623e-15 0)
(1 1.04017e-15 0)
(1 1.64611e-15 0)
(1 2.38746e-15 0)
(1 2.47515e-15 0)
(1 -2.99338e-16 0)
(1 -3.36039e-16 0)
(1 -7.15465e-16 0)
(1 1.81481e-15 0)
(1 1.56111e-15 0)
(1 5.33383e-15 0)
(1 2.60706e-15 0)
(1 1.7843e-15 0)
(1 6.00026e-15 0)
(1 2.74507e-15 0)
(1 3.12572e-15 0)
(1 9.62729e-16 0)
(1 2.2591e-15 0)
(1 3.88392e-15 0)
(1 3.13995e-15 0)
(1 3.64462e-15 0)
(1 1.90111e-15 0)
(1 4.53657e-15 0)
(1 4.72397e-15 0)
(1 4.98821e-16 0)
(1 -9.58264e-16 0)
(1 4.82675e-16 0)
(1 1.89715e-15 0)
(1 4.59931e-15 0)
(1 3.91046e-16 0)
(1 -1.49065e-15 0)
(1 4.98443e-16 0)
(1 -3.65899e-16 0)
(1 2.3975e-15 0)
(1 3.72805e-15 0)
(1 2.98555e-15 0)
(1 -6.01177e-16 0)
(1 3.91906e-16 0)
(1 -4.11814e-16 0)
(1 -1.21413e-15 0)
(1 8.53088e-16 0)
(1 2.30894e-15 0)
(1 3.71326e-15 0)
(1 3.40585e-15 0)
(1 2.57817e-15 0)
(1 9.89048e-17 0)
(1 1.91817e-15 0)
(1 2.81535e-15 0)
(1 2.79427e-15 0)
(1 5.67385e-15 0)
(1 2.59445e-15 0)
(1 5.39358e-15 0)
(1 4.37976e-15 0)
(1 2.24088e-15 0)
(1 4.73926e-15 0)
(1 5.10822e-15 0)
(1 6.79625e-15 0)
(1 4.16677e-15 0)
(1 6.81087e-15 0)
(1 8.04839e-15 0)
(1 7.23101e-15 0)
(1 6.44062e-15 0)
(1 2.66473e-15 0)
(1 6.21706e-15 0)
(1 3.08286e-15 0)
(1 5.14612e-15 0)
(1 2.79004e-15 0)
(1 3.98534e-15 0)
(1 6.00839e-15 0)
(1 -5.8365e-16 0)
(1 2.82739e-15 0)
(1 1.62802e-15 0)
(1 1.00767e-15 0)
(1 5.76125e-15 0)
(1 4.13778e-15 0)
(1 4.19876e-15 0)
(1 1.33519e-15 0)
(1 2.91338e-15 0)
(1 1.0716e-15 0)
(1 2.19089e-15 0)
(1 2.82322e-15 0)
(1 1.41456e-15 0)
(1 1.38898e-15 0)
(1 2.90216e-15 0)
(1 3.68667e-15 0)
(1 2.89418e-15 0)
(1 2.73442e-15 0)
(1 1.27913e-15 0)
(1 1.27495e-15 0)
(1 -4.39255e-16 0)
(1 -5.18254e-16 0)
(1 8.26287e-16 0)
(1 1.12648e-15 0)
(1 2.1229e-15 0)
(1 1.82404e-15 0)
(1 1.50369e-15 0)
(1 2.91927e-15 0)
(1 3.29787e-15 0)
(1 4.64862e-15 0)
(1 4.90417e-15 0)
(1 4.02716e-15 0)
(1 2.90001e-15 0)
(1 3.18575e-15 0)
(1 4.05963e-15 0)
(1 4.0115e-15 0)
(1 4.01292e-16 0)
(1 6.9089e-16 0)
(1 2.72951e-15 0)
(1 4.8158e-16 0)
(1 2.27434e-15 0)
(1 2.15235e-18 0)
(1 3.5923e-15 0)
(1 3.49951e-15 0)
(1 4.53795e-15 0)
(1 2.32947e-15 0)
(1 2.07605e-15 0)
(1 6.10306e-15 0)
(1 3.30283e-15 0)
(1 4.39095e-15 0)
(1 4.12973e-15 0)
(1 1.62192e-15 0)
(1 1.22024e-15 0)
(1 2.34858e-15 0)
(1 3.56927e-15 0)
(1 4.26664e-15 0)
(1 5.26416e-16 0)
(1 5.22328e-16 0)
(1 -3.74111e-15 0)
(1 1.31776e-15 0)
(1 2.40943e-15 0)
(1 2.80903e-15 0)
(1 4.14337e-16 0)
(1 2.25243e-15 0)
(1 2.06385e-15 0)
(1 2.67222e-16 0)
(1 3.5841e-16 0)
(1 2.21955e-15 0)
(1 1.54052e-15 0)
(1 1.91271e-15 0)
(1 2.31242e-15 0)
(1 6.09985e-16 0)
(1 -5.7227e-16 0)
(1 1.93417e-15 0)
(1 -2.31813e-16 0)
(1 -8.60958e-16 0)
(1 1.50376e-15 0)
(1 4.17578e-15 0)
(1 4.37322e-15 0)
(1 4.98127e-15 0)
(1 6.61298e-15 0)
(1 2.25488e-15 0)
(1 3.37381e-15 0)
(1 3.46159e-15 0)
(1 4.09571e-15 0)
(1 5.41604e-15 0)
(1 2.80856e-15 0)
(1 3.16634e-15 0)
(1 6.36374e-15 0)
(1 6.48358e-15 0)
(1 8.44243e-15 0)
(1 7.05093e-15 0)
(1 5.54973e-15 0)
(1 1.84335e-15 0)
(1 5.26401e-15 0)
(1 6.22659e-15 0)
(1 6.55445e-15 0)
(1 5.41044e-15 0)
(1 2.32071e-15 0)
(1 3.92161e-15 0)
(1 3.09372e-15 0)
(1 1.17375e-15 0)
(1 3.50047e-15 0)
(1 3.29765e-15 0)
(1 5.45597e-15 0)
(1 5.16663e-15 0)
(1 4.84417e-15 0)
(1 2.31195e-15 0)
(1 1.27311e-15 0)
(1 1.77414e-15 0)
(1 2.14189e-15 0)
(1 1.00367e-15 0)
(1 1.60788e-15 0)
(1 9.19677e-16 0)
(1 3.56628e-15 0)
(1 2.3109e-15 0)
(1 2.96095e-15 0)
(1 2.05692e-15 0)
(1 1.00255e-15 0)
(1 1.70476e-15 0)
(1 -1.43082e-16 0)
(1 1.60229e-15 0)
(1 3.00626e-15 0)
(1 3.32887e-15 0)
(1 9.88139e-16 0)
(1 2.18078e-15 0)
(1 3.53617e-15 0)
(1 2.78981e-15 0)
(1 2.74298e-15 0)
(1 1.29973e-15 0)
(1 6.08731e-15 0)
(1 2.45041e-15 0)
(1 3.85738e-15 0)
(1 4.53568e-15 0)
(1 4.24472e-15 0)
(1 4.15242e-15 0)
(1 2.06585e-16 0)
(1 9.63953e-16 0)
(1 2.06697e-15 0)
(1 1.53897e-15 0)
(1 8.8443e-16 0)
(1 -1.46616e-15 0)
(1 4.14289e-15 0)
(1 1.8624e-15 0)
(1 4.11784e-15 0)
(1 6.29741e-15 0)
(1 3.24119e-15 0)
(1 4.60452e-15 0)
(1 1.75961e-15 0)
(1 2.09719e-15 0)
(1 2.43667e-15 0)
(1 1.36889e-15 0)
(1 5.12717e-15 0)
(1 4.19285e-15 0)
(1 4.31483e-15 0)
(1 3.1201e-15 0)
(1 -4.18183e-16 0)
(1 -1.03492e-15 0)
(1 -4.05481e-15 0)
(1 -6.03804e-16 0)
(1 -1.64923e-15 0)
(1 5.6178e-15 0)
(1 3.40513e-15 0)
(1 4.18046e-15 0)
(1 1.35772e-15 0)
(1 -9.95388e-16 0)
(1 -6.25071e-16 0)
(1 1.69127e-15 0)
(1 1.03532e-15 0)
(1 1.94369e-15 0)
(1 1.62037e-15 0)
(1 -1.26424e-15 0)
(1 6.60396e-16 0)
(1 -1.22089e-16 0)
(1 -2.82253e-16 0)
(1 3.91063e-16 0)
(1 3.40811e-15 0)
(1 3.69483e-15 0)
(1 3.78525e-15 0)
(1 4.11629e-15 0)
(1 4.42609e-15 0)
(1 4.816e-15 0)
(1 3.7302e-15 0)
(1 4.29057e-15 0)
(1 6.83574e-15 0)
(1 4.12339e-15 0)
(1 4.88472e-15 0)
(1 4.70055e-15 0)
(1 7.04347e-15 0)
(1 7.83602e-15 0)
(1 7.46124e-15 0)
(1 6.12065e-15 0)
(1 5.05331e-15 0)
(1 4.28654e-15 0)
(1 4.76825e-15 0)
(1 4.40083e-15 0)
(1 5.05639e-15 0)
(1 6.13169e-15 0)
(1 3.51206e-15 0)
(1 3.44098e-15 0)
(1 5.70667e-15 0)
(1 2.98704e-15 0)
(1 3.23308e-15 0)
(1 3.07284e-15 0)
(1 -1.36706e-15 0)
(1 2.19008e-15 0)
(1 3.58426e-15 0)
(1 5.55916e-15 0)
(1 3.13108e-15 0)
(1 2.2617e-15 0)
(1 1.22216e-15 0)
(1 -8.04934e-16 0)
(1 4.48354e-15 0)
(1 1.42637e-15 0)
(1 5.27334e-16 0)
(1 3.6713e-15 0)
(1 4.54924e-15 0)
(1 3.54005e-15 0)
(1 4.76145e-15 0)
(1 1.86053e-15 0)
(1 2.35452e-16 0)
(1 1.47823e-15 0)
(1 1.35295e-15 0)
(1 3.3777e-17 0)
(1 8.83619e-17 0)
(1 1.60148e-16 0)
(1 5.89301e-15 0)
(1 2.3895e-15 0)
(1 3.28723e-15 0)
(1 2.32438e-15 0)
(1 4.78377e-15 0)
(1 3.58342e-15 0)
(1 3.54421e-15 0)
(1 3.39467e-15 0)
(1 2.77917e-15 0)
(1 3.08301e-15 0)
(1 1.2308e-16 0)
(1 1.22575e-15 0)
(1 7.31777e-16 0)
(1 2.63292e-15 0)
(1 -4.84187e-16 0)
(1 4.5189e-15 0)
(1 1.68015e-15 0)
(1 2.80803e-15 0)
(1 2.23859e-15 0)
(1 4.06792e-15 0)
(1 4.43439e-15 0)
(1 1.79806e-15 0)
(1 3.18279e-15 0)
(1 3.32178e-15 0)
(1 3.84939e-15 0)
(1 1.51135e-15 0)
(1 2.47815e-15 0)
(1 1.83986e-16 0)
(1 5.57278e-15 0)
(1 2.59931e-16 0)
(1 5.93103e-17 0)
(1 2.30215e-15 0)
(1 2.32184e-15 0)
(1 1.82872e-16 0)
(1 1.02919e-15 0)
(1 1.73005e-15 0)
(1 3.3602e-15 0)
(1 1.9851e-15 0)
(1 1.96346e-15 0)
(1 -5.81138e-16 0)
(1 3.34505e-16 0)
(1 5.90168e-16 0)
(1 -1.7121e-15 0)
(1 -5.75101e-16 0)
(1 -8.74511e-16 0)
(1 5.45526e-16 0)
(1 5.01391e-16 0)
(1 -5.56979e-16 0)
(1 1.35672e-15 0)
(1 2.87736e-15 0)
(1 4.86374e-15 0)
(1 3.89984e-15 0)
(1 2.20073e-15 0)
(1 5.90091e-15 0)
(1 4.29534e-15 0)
(1 3.30329e-15 0)
(1 4.48413e-15 0)
(1 1.21989e-15 0)
(1 5.87728e-15 0)
(1 4.19141e-15 0)
(1 5.55606e-15 0)
(1 6.25423e-15 0)
(1 6.36048e-15 0)
(1 7.3334e-15 0)
(1 6.15089e-15 0)
(1 1.67673e-15 0)
(1 4.23068e-15 0)
(1 5.24008e-15 0)
(1 5.19908e-15 0)
(1 3.78461e-15 0)
(1 6.528e-15 0)
(1 6.22269e-15 0)
(1 7.4098e-15 0)
(1 3.74938e-15 0)
(1 3.97224e-15 0)
(1 4.79522e-15 0)
(1 1.76854e-15 0)
(1 2.58673e-15 0)
(1 1.14258e-15 0)
(1 1.6421e-15 0)
(1 4.43884e-15 0)
(1 3.74622e-15 0)
(1 1.79725e-16 0)
(1 9.55296e-16 0)
(1 1.03311e-15 0)
(1 -5.17776e-16 0)
(1 1.35867e-15 0)
(1 2.10559e-15 0)
(1 1.38076e-15 0)
(1 5.20114e-15 0)
(1 4.53354e-15 0)
(1 3.36179e-15 0)
(1 4.094e-15 0)
(1 4.05047e-16 0)
(1 2.63236e-15 0)
(1 2.48749e-15 0)
(1 -1.6439e-16 0)
(1 2.67078e-16 0)
(1 2.01668e-15 0)
(1 3.3193e-15 0)
(1 3.62005e-15 0)
(1 1.01703e-15 0)
(1 1.77059e-15 0)
(1 3.20397e-15 0)
(1 3.46449e-15 0)
(1 5.53309e-15 0)
(1 4.30766e-15 0)
(1 3.85727e-15 0)
(1 2.27195e-15 0)
(1 1.20185e-15 0)
(1 1.13213e-16 0)
(1 1.29264e-15 0)
(1 4.98129e-17 0)
(1 -2.52092e-16 0)
(1 2.2523e-15 0)
(1 1.95893e-15 0)
(1 1.06333e-15 0)
(1 2.94516e-15 0)
(1 1.92356e-15 0)
(1 4.29336e-15 0)
(1 4.51185e-15 0)
(1 1.37398e-15 0)
(1 2.8168e-15 0)
(1 2.57498e-15 0)
(1 4.41808e-15 0)
(1 2.24272e-15 0)
(1 3.56471e-16 0)
(1 2.76437e-15 0)
(1 5.51067e-15 0)
(1 4.46565e-15 0)
(1 3.72785e-15 0)
(1 2.89415e-15 0)
(1 -2.56733e-15 0)
(1 -3.52228e-15 0)
(1 1.96599e-15 0)
(1 -4.49758e-16 0)
(1 7.55165e-16 0)
(1 1.10623e-15 0)
(1 3.1279e-15 0)
(1 1.27333e-15 0)
(1 -1.44128e-15 0)
(1 -7.251e-16 0)
(1 -2.21928e-15 0)
(1 -3.00388e-15 0)
(1 2.29275e-15 0)
(1 -2.59131e-17 0)
(1 1.42566e-15 0)
(1 -1.80631e-15 0)
(1 2.08836e-15 0)
(1 3.79967e-15 0)
(1 5.34343e-15 0)
(1 4.07224e-15 0)
(1 1.95029e-15 0)
(1 4.70696e-15 0)
(1 2.59779e-15 0)
(1 5.60398e-15 0)
(1 4.7174e-15 0)
(1 4.91036e-15 0)
(1 2.86479e-15 0)
(1 5.1301e-15 0)
(1 5.74404e-15 0)
(1 4.64923e-15 0)
(1 6.81977e-15 0)
(1 6.50971e-15 0)
(1 5.31339e-15 0)
(1 5.85984e-15 0)
(1 4.66823e-15 0)
(1 5.40379e-15 0)
(1 1.43644e-15 0)
(1 3.70788e-15 0)
(1 2.39825e-15 0)
(1 3.70842e-15 0)
(1 4.66301e-15 0)
(1 4.46929e-15 0)
(1 5.95364e-15 0)
(1 5.29654e-15 0)
(1 4.91613e-15 0)
(1 3.36568e-15 0)
(1 3.42528e-15 0)
(1 1.75642e-15 0)
(1 -2.44331e-15 0)
(1 2.67274e-16 0)
(1 1.46045e-15 0)
(1 3.00808e-15 0)
(1 2.49199e-15 0)
(1 2.42729e-15 0)
(1 -6.17338e-16 0)
(1 2.06361e-15 0)
(1 3.79778e-15 0)
(1 1.00327e-15 0)
(1 1.10641e-15 0)
(1 1.59525e-15 0)
(1 1.83759e-15 0)
(1 2.54986e-15 0)
(1 3.60584e-15 0)
(1 2.20418e-15 0)
(1 1.58114e-15 0)
(1 3.35841e-15 0)
(1 2.95925e-15 0)
(1 4.45037e-15 0)
(1 8.02264e-16 0)
(1 2.026e-15 0)
(1 2.15176e-15 0)
(1 1.5822e-15 0)
(1 3.33664e-15 0)
(1 3.49812e-15 0)
(1 1.63894e-15 0)
(1 2.39044e-15 0)
(1 1.42374e-15 0)
(1 4.8614e-16 0)
(1 3.27173e-16 0)
(1 5.56786e-16 0)
(1 7.72956e-16 0)
(1 4.08347e-16 0)
(1 2.64843e-15 0)
(1 9.87715e-16 0)
(1 1.89915e-15 0)
(1 1.31341e-15 0)
(1 3.00313e-15 0)
(1 5.33374e-15 0)
(1 4.73591e-15 0)
(1 3.52122e-15 0)
(1 1.53612e-15 0)
(1 5.43942e-16 0)
(1 6.43843e-16 0)
(1 4.39526e-15 0)
(1 1.9605e-15 0)
(1 4.60734e-15 0)
(1 -9.04941e-16 0)
(1 2.96539e-15 0)
(1 2.82571e-15 0)
(1 4.00088e-15 0)
(1 -1.18813e-15 0)
(1 -5.35583e-16 0)
(1 -6.58954e-16 0)
(1 1.78241e-15 0)
(1 2.00864e-15 0)
(1 1.51256e-16 0)
(1 2.73139e-15 0)
(1 2.18661e-16 0)
(1 -5.41034e-16 0)
(1 -4.32712e-15 0)
(1 -1.50686e-15 0)
(1 -1.11894e-15 0)
(1 -2.0802e-15 0)
(1 -1.53367e-16 0)
(1 2.30799e-15 0)
(1 -2.6338e-16 0)
(1 3.34589e-15 0)
(1 1.18598e-15 0)
(1 1.44713e-15 0)
(1 2.11628e-15 0)
(1 6.7298e-15 0)
(1 4.48184e-15 0)
(1 4.06068e-15 0)
(1 6.15475e-15 0)
(1 2.11137e-15 0)
(1 6.66783e-15 0)
(1 1.25238e-15 0)
(1 2.57022e-15 0)
(1 1.2928e-15 0)
(1 3.62308e-15 0)
(1 7.6372e-15 0)
(1 7.51418e-15 0)
(1 4.02972e-15 0)
(1 9.10755e-15 0)
(1 5.44062e-15 0)
(1 5.37911e-15 0)
(1 3.29842e-15 0)
(1 4.74466e-15 0)
(1 3.727e-15 0)
(1 2.66104e-15 0)
(1 2.60434e-15 0)
(1 6.79292e-15 0)
(1 2.88169e-15 0)
(1 4.08393e-15 0)
(1 5.23845e-15 0)
(1 3.94771e-15 0)
(1 2.25776e-15 0)
(1 1.22706e-15 0)
(1 -2.05195e-15 0)
(1 3.59156e-15 0)
(1 3.08412e-15 0)
(1 3.17399e-15 0)
(1 1.68761e-15 0)
(1 4.08821e-15 0)
(1 1.60186e-15 0)
(1 3.22691e-15 0)
(1 1.94197e-15 0)
(1 -8.49464e-16 0)
(1 1.76322e-15 0)
(1 2.20112e-15 0)
(1 5.98293e-17 0)
(1 3.00864e-15 0)
(1 2.46566e-15 0)
(1 1.85327e-15 0)
(1 1.66059e-15 0)
(1 3.53866e-15 0)
(1 2.27736e-15 0)
(1 2.82925e-15 0)
(1 2.65568e-15 0)
(1 2.4723e-15 0)
(1 2.47844e-15 0)
(1 3.53457e-15 0)
(1 1.96129e-15 0)
(1 2.84519e-15 0)
(1 1.44294e-15 0)
(1 2.8981e-15 0)
(1 7.34246e-16 0)
(1 2.885e-16 0)
(1 6.54288e-17 0)
(1 1.17658e-15 0)
(1 2.89596e-16 0)
(1 1.46244e-15 0)
(1 1.02183e-15 0)
(1 2.73344e-15 0)
(1 3.45146e-16 0)
(1 1.31707e-15 0)
(1 3.6849e-15 0)
(1 5.18445e-16 0)
(1 6.12842e-15 0)
(1 5.47968e-15 0)
(1 4.83755e-15 0)
(1 -5.93396e-16 0)
(1 -1.63267e-16 0)
(1 3.03573e-15 0)
(1 -2.02855e-16 0)
(1 3.38084e-15 0)
(1 -2.69052e-15 0)
(1 2.65404e-15 0)
(1 4.49686e-15 0)
(1 1.51307e-15 0)
(1 3.87449e-15 0)
(1 -1.84391e-16 0)
(1 -2.11383e-15 0)
(1 -1.88753e-15 0)
(1 -1.00908e-15 0)
(1 -9.15245e-17 0)
(1 6.33814e-16 0)
(1 -7.04645e-16 0)
(1 -6.51827e-16 0)
(1 -1.02201e-15 0)
(1 -8.99929e-17 0)
(1 1.32258e-16 0)
(1 -1.5615e-15 0)
(1 1.21219e-15 0)
(1 -1.25462e-15 0)
(1 1.1924e-15 0)
(1 2.7072e-15 0)
(1 -4.90713e-16 0)
(1 -5.85669e-16 0)
(1 1.26409e-15 0)
(1 6.15327e-15 0)
(1 3.04988e-15 0)
(1 5.2021e-15 0)
(1 3.34545e-15 0)
(1 8.63218e-17 0)
(1 3.50563e-15 0)
(1 2.30339e-15 0)
(1 1.7731e-15 0)
(1 3.11885e-15 0)
(1 5.70609e-15 0)
(1 8.01386e-15 0)
(1 7.31655e-15 0)
(1 7.52946e-15 0)
(1 7.46625e-15 0)
(1 4.30192e-15 0)
(1 5.89451e-15 0)
(1 4.26278e-15 0)
(1 3.02677e-15 0)
(1 4.59197e-15 0)
(1 2.37428e-15 0)
(1 5.39512e-15 0)
(1 3.40251e-15 0)
(1 4.34178e-15 0)
(1 4.3148e-15 0)
(1 4.42637e-15 0)
(1 3.72997e-15 0)
(1 3.90638e-15 0)
(1 2.5881e-15 0)
(1 4.05138e-15 0)
(1 1.43643e-15 0)
(1 4.55302e-16 0)
(1 1.36608e-15 0)
(1 1.06278e-15 0)
(1 2.05738e-15 0)
(1 1.73907e-15 0)
(1 2.95297e-15 0)
(1 1.10729e-16 0)
(1 -8.83372e-16 0)
(1 2.52612e-15 0)
(1 1.55827e-15 0)
(1 5.21513e-16 0)
(1 1.84752e-15 0)
(1 1.6769e-15 0)
(1 2.619e-15 0)
(1 1.83384e-15 0)
(1 3.59779e-15 0)
(1 2.41174e-15 0)
(1 1.25465e-15 0)
(1 1.58076e-15 0)
(1 1.19647e-15 0)
(1 1.82829e-15 0)
(1 3.4474e-15 0)
(1 2.25542e-15 0)
(1 1.63495e-15 0)
(1 4.55256e-17 0)
(1 1.72933e-15 0)
(1 2.42392e-15 0)
(1 2.44819e-15 0)
(1 -2.78299e-16 0)
(1 1.40294e-15 0)
(1 1.049e-15 0)
(1 7.70701e-16 0)
(1 3.70228e-15 0)
(1 2.68711e-15 0)
(1 3.55396e-15 0)
(1 2.33963e-15 0)
(1 2.67416e-15 0)
(1 -1.78234e-16 0)
(1 1.23631e-15 0)
(1 2.32402e-15 0)
(1 3.61012e-15 0)
(1 2.24533e-15 0)
(1 3.46041e-16 0)
(1 -1.83797e-16 0)
(1 1.05673e-15 0)
(1 2.09298e-15 0)
(1 4.52188e-15 0)
(1 -3.23869e-17 0)
(1 -4.01956e-17 0)
(1 -1.65156e-15 0)
(1 3.99194e-15 0)
(1 3.79852e-16 0)
(1 -2.01636e-15 0)
(1 -1.92098e-15 0)
(1 -9.85522e-16 0)
(1 1.41137e-15 0)
(1 -3.18535e-15 0)
(1 -1.90325e-16 0)
(1 -3.18819e-15 0)
(1 7.58437e-16 0)
(1 -1.15438e-15 0)
(1 -1.17919e-15 0)
(1 9.45718e-17 0)
(1 -9.66879e-16 0)
(1 -8.16893e-16 0)
(1 -2.08312e-16 0)
(1 -6.38179e-16 0)
(1 6.82293e-16 0)
(1 1.75322e-15 0)
(1 2.0691e-15 0)
(1 8.41161e-16 0)
(1 4.33034e-15 0)
(1 3.87783e-15 0)
(1 3.70941e-15 0)
(1 2.74833e-15 0)
(1 1.57578e-15 0)
(1 8.0849e-16 0)
(1 -4.57208e-16 0)
(1 5.63248e-15 0)
(1 8.73866e-15 0)
(1 7.14017e-15 0)
(1 5.78294e-15 0)
(1 8.06774e-15 0)
(1 5.02485e-15 0)
(1 3.74903e-15 0)
(1 4.84892e-15 0)
(1 3.28255e-15 0)
(1 2.57157e-15 0)
(1 1.75658e-15 0)
(1 3.70475e-15 0)
(1 3.49722e-15 0)
(1 4.83615e-16 0)
(1 6.2889e-15 0)
(1 2.43495e-15 0)
(1 1.84454e-15 0)
(1 1.983e-15 0)
(1 2.42632e-15 0)
(1 3.09436e-15 0)
(1 2.1883e-15 0)
(1 -1.11631e-15 0)
(1 1.07499e-15 0)
(1 2.61007e-15 0)
(1 1.03676e-15 0)
(1 1.62639e-15 0)
(1 1.55696e-15 0)
(1 1.80191e-15 0)
(1 1.19843e-15 0)
(1 2.17223e-15 0)
(1 -8.8403e-16 0)
(1 -4.60339e-16 0)
(1 1.76795e-15 0)
(1 1.57125e-15 0)
(1 1.86919e-15 0)
(1 1.84221e-15 0)
(1 2.34822e-15 0)
(1 3.99981e-15 0)
(1 3.41394e-15 0)
(1 2.04733e-15 0)
(1 3.25278e-16 0)
(1 1.04018e-15 0)
(1 1.7753e-15 0)
(1 1.67246e-15 0)
(1 9.25281e-16 0)
(1 1.7791e-16 0)
(1 8.0808e-16 0)
(1 1.31477e-16 0)
(1 2.54514e-15 0)
(1 2.59719e-15 0)
(1 -2.39421e-16 0)
(1 9.24277e-16 0)
(1 1.40843e-15 0)
(1 2.26032e-15 0)
(1 3.5443e-15 0)
(1 1.8734e-15 0)
(1 3.76903e-15 0)
(1 3.12473e-15 0)
(1 1.26286e-15 0)
(1 1.94348e-15 0)
(1 -2.79447e-16 0)