/*--------------------------------*- C++ -*----------------------------------*\
| =========                 |                                                 |
| \\      /  F ield         | OpenFOAM: The Open Source CFD Toolbox           |
|  \\    /   O peration     | Version:  v2012                                 |
|   \\  /    A nd           | Website:  www.openfoam.com                      |
|    \\/     M anipulation  |                                                 |
\*---------------------------------------------------------------------------*/
FoamFile
{
    version     2.0;
    format      ascii;
    class       surfaceScalarField;
    location    "17.5";
    object      phi;
}
// * * * * * * * * * * * * * * * * * * * * * * * * * * * * * * * * * * * * * //

dimensions      [0 3 -1 0 0 0 0];
oriented        oriented;


internalField   nonuniform List<scalar> 
130560
(
3.26029e-06
-3.26029e-06
6.52076e-06
-3.26047e-06
9.7816e-06
-3.26083e-06
1.3043e-05
-3.26138e-06
1.63051e-05
-3.2621e-06
1.95681e-05
-3.26299e-06
2.28321e-05
-3.26407e-06
2.60974e-05
-3.26532e-06
2.93642e-05
-3.26673e-06
3.26325e-05
-3.26832e-06
3.59026e-05
-3.27007e-06
3.91746e-05
-3.27198e-06
4.24486e-05
-3.27405e-06
4.57249e-05
-3.27628e-06
4.90035e-05
-3.27865e-06
5.22847e-05
-3.28116e-06
5.55685e-05
-3.28381e-06
5.88551e-05
-3.28659e-06
6.21446e-05
-3.28949e-06
6.54371e-05
-3.29251e-06
6.87327e-05
-3.29564e-06
7.20316e-05
-3.29887e-06
7.53338e-05
-3.3022e-06
7.86394e-05
-3.30561e-06
8.19485e-05
-3.30909e-06
8.52611e-05
-3.31264e-06
8.85774e-05
-3.31625e-06
9.18973e-05
-3.31989e-06
9.52209e-05
-3.32357e-06
9.85481e-05
-3.32727e-06
0.000101879
-3.33098e-06
0.000105214
-3.33469e-06
0.000108552
-3.33837e-06
0.000111894
-3.34202e-06
0.00011524
-3.34562e-06
0.000118589
-3.34915e-06
0.000121942
-3.35261e-06
0.000125298
-3.35596e-06
0.000128657
-3.3592e-06
0.000132019
-3.36231e-06
0.000135384
-3.36527e-06
0.000138752
-3.36805e-06
0.000142123
-3.37064e-06
0.000145496
-3.37301e-06
0.000148871
-3.37515e-06
0.000152248
-3.37703e-06
0.000155627
-3.37863e-06
0.000159007
-3.37992e-06
0.000162388
-3.38088e-06
0.000165769
-3.38149e-06
0.000169151
-3.38171e-06
0.000172532
-3.38153e-06
0.000175913
-3.38091e-06
0.000179293
-3.37982e-06
0.000182671
-3.37823e-06
0.000186047
-3.37613e-06
0.000189421
-3.37347e-06
0.000192791
-3.37022e-06
0.000196157
-3.36636e-06
0.000199519
-3.36184e-06
0.000202876
-3.35665e-06
0.000206227
-3.35073e-06
0.000209571
-3.34407e-06
0.000212907
-3.33663e-06
0.000216236
-3.32836e-06
0.000219555
-3.31925e-06
0.000222864
-3.30924e-06
0.000226163
-3.29831e-06
0.000229449
-3.28642e-06
0.000232723
-3.27353e-06
0.000235982
-3.25962e-06
0.000239227
-3.24463e-06
0.000242455
-3.22854e-06
0.000245667
-3.21131e-06
0.00024886
-3.19291e-06
0.000252033
-3.1733e-06
0.000255185
-3.15244e-06
0.000258316
-3.13031e-06
0.000261422
-3.10687e-06
0.000264505
-3.08208e-06
0.00026756
-3.05592e-06
0.000270589
-3.02835e-06
0.000273588
-2.99935e-06
0.000276557
-2.96889e-06
0.000279494
-2.93693e-06
0.000282397
-2.90347e-06
0.000285266
-2.86846e-06
0.000288098
-2.83189e-06
0.000290892
-2.79374e-06
0.000293646
-2.75398e-06
0.000296358
-2.71262e-06
0.000299028
-2.66962e-06
0.000301653
-2.62498e-06
0.000304231
-2.57869e-06
0.000306762
-2.53074e-06
0.000309243
-2.48113e-06
0.000311673
-2.42985e-06
0.00031405
-2.37691e-06
0.000316372
-2.32232e-06
0.000318638
-2.26607e-06
0.000320847
-2.20818e-06
0.000322995
-2.14866e-06
0.000325083
-2.08754e-06
0.000327108
-2.02482e-06
0.000329068
-1.96053e-06
0.000330963
-1.89471e-06
0.00033279
-1.82737e-06
0.000334549
-1.75856e-06
0.000336237
-1.6883e-06
0.000337854
-1.61664e-06
0.000339397
-1.54363e-06
0.000340867
-1.4693e-06
0.00034226
-1.39371e-06
0.000343577
-1.31691e-06
0.000344816
-1.23895e-06
0.000345976
-1.1599e-06
0.000347056
-1.07981e-06
0.000348055
-9.98755e-07
0.000348972
-9.1679e-07
0.000349806
-8.33988e-07
0.000350556
-7.5042e-07
0.000351222
-6.66158e-07
0.000351803
-5.81277e-07
0.000352299
-4.95853e-07
0.000352709
-4.09963e-07
0.000353033
-3.23686e-07
0.00035327
-2.37102e-07
0.00035342
-1.50291e-07
0.000353484
-6.33337e-08
0.00035346
2.36881e-08
0.000353349
1.10693e-07
0.000353152
1.97601e-07
0.000352867
2.8433e-07
0.000352496
3.70801e-07
0.00035204
4.56934e-07
0.000351497
5.4265e-07
0.000350869
6.27874e-07
0.000350156
7.12529e-07
0.00034936
7.96541e-07
0.00034848
8.79838e-07
0.000347518
9.62351e-07
0.000346474
1.04401e-06
0.000345349
1.12475e-06
0.000344144
1.20451e-06
0.000342861
1.28323e-06
0.0003415
1.36085e-06
0.000340063
1.43732e-06
0.00033855
1.51258e-06
0.000336964
1.58659e-06
0.000335305
1.65929e-06
0.000333574
1.73065e-06
0.000331773
1.80063e-06
0.000329904
1.86919e-06
0.000327968
1.9363e-06
0.000325966
2.00193e-06
0.0003239
2.06605e-06
0.000321771
2.12863e-06
0.000319582
2.18967e-06
0.000317332
2.24913e-06
0.000315025
2.30701e-06
0.000312662
2.3633e-06
0.000310244
2.41798e-06
0.000307773
2.47105e-06
0.000305251
2.52251e-06
0.000302678
2.57236e-06
0.000300058
2.6206e-06
0.00029739
2.66724e-06
0.000294678
2.71228e-06
0.000291922
2.75574e-06
0.000289125
2.79762e-06
0.000286287
2.83794e-06
0.00028341
2.87672e-06
0.000280496
2.91397e-06
0.000277546
2.94971e-06
0.000274562
2.98397e-06
0.000271546
3.01676e-06
0.000268498
3.04811e-06
0.00026542
3.07806e-06
0.000262313
3.10661e-06
0.000259179
3.1338e-06
0.000256019
3.15967e-06
0.000252835
3.18423e-06
0.000249628
3.20752e-06
0.000246398
3.22957e-06
0.000243148
3.25041e-06
0.000239878
3.27007e-06
0.000236589
3.28859e-06
0.000233283
3.306e-06
0.000229961
3.32233e-06
0.000226623
3.33761e-06
0.000223271
3.35188e-06
0.000219906
3.36517e-06
0.000216529
3.37752e-06
0.00021314
3.38895e-06
0.00020974
3.3995e-06
0.000206331
3.40921e-06
0.000202913
3.4181e-06
0.000199487
3.42622e-06
0.000196053
3.43358e-06
0.000192613
3.44022e-06
0.000189167
3.44618e-06
0.000185715
3.45149e-06
0.000182259
3.45617e-06
0.000178799
3.46025e-06
0.000175335
3.46377e-06
0.000171868
3.46675e-06
0.000168399
3.46923e-06
0.000164928
3.47122e-06
0.000161455
3.47277e-06
0.000157981
3.47388e-06
0.000154506
3.4746e-06
0.000151032
3.47494e-06
0.000147557
3.47494e-06
0.000144082
3.47461e-06
0.000140608
3.47397e-06
0.000137135
3.47306e-06
0.000133663
3.47189e-06
0.000130193
3.47049e-06
0.000126724
3.46887e-06
0.000123257
3.46706e-06
0.000119792
3.46508e-06
0.000116329
3.46294e-06
0.000112868
3.46066e-06
0.00010941
3.45827e-06
0.000105954
3.45578e-06
0.000102501
3.4532e-06
9.90501e-05
3.45056e-06
9.56023e-05
3.44786e-06
9.21571e-05
3.44512e-06
8.87148e-05
3.44237e-06
8.52752e-05
3.4396e-06
8.18384e-05
3.43683e-06
7.84043e-05
3.43408e-06
7.49729e-05
3.43136e-06
7.15442e-05
3.42868e-06
6.81182e-05
3.42604e-06
6.46947e-05
3.42347e-06
6.12737e-05
3.42097e-06
5.78552e-05
3.41854e-06
5.4439e-05
3.41621e-06
5.1025e-05
3.41397e-06
4.76132e-05
3.41183e-06
4.42034e-05
3.4098e-06
4.07955e-05
3.4079e-06
3.73894e-05
3.40611e-06
3.39849e-05
3.40445e-06
3.0582e-05
3.40293e-06
2.71805e-05
3.40155e-06
2.37801e-05
3.40031e-06
2.03809e-05
3.39922e-06
1.69827e-05
3.39827e-06
1.35852e-05
3.39748e-06
1.01883e-05
3.39685e-06
6.79195e-06
3.39637e-06
3.39589e-06
3.39605e-06
3.39589e-06
3.26011e-06
-6.5204e-06
6.52041e-06
-6.52077e-06
9.78106e-06
-6.52149e-06
1.30423e-05
-6.52258e-06
1.63042e-05
-6.52402e-06
1.9567e-05
-6.52582e-06
2.28309e-05
-6.52797e-06
2.6096e-05
-6.53046e-06
2.93626e-05
-6.5333e-06
3.26308e-05
-6.53648e-06
3.59007e-05
-6.53999e-06
3.91725e-05
-6.54381e-06
4.24464e-05
-6.54796e-06
4.57226e-05
-6.55241e-06
4.90011e-05
-6.55715e-06
5.22821e-05
-6.56218e-06
5.55658e-05
-6.56749e-06
5.88522e-05
-6.57305e-06
6.21416e-05
-6.57887e-06
6.5434e-05
-6.58491e-06
6.87295e-05
-6.59118e-06
7.20283e-05
-6.59766e-06
7.53304e-05
-6.60431e-06
7.8636e-05
-6.61114e-06
8.1945e-05
-6.61812e-06
8.52576e-05
-6.62523e-06
8.85738e-05
-6.63245e-06
9.18937e-05
-6.63976e-06
9.52172e-05
-6.64713e-06
9.85445e-05
-6.65454e-06
0.000101875
-6.66197e-06
0.00010521
-6.66939e-06
0.000108549
-6.67677e-06
0.000111891
-6.68408e-06
0.000115236
-6.6913e-06
0.000118586
-6.69839e-06
0.000121938
-6.70531e-06
0.000125294
-6.71204e-06
0.000128654
-6.71855e-06
0.000132016
-6.72478e-06
0.000135382
-6.73071e-06
0.00013875
-6.73629e-06
0.000142121
-6.74149e-06
0.000145494
-6.74626e-06
0.000148869
-6.75056e-06
0.000152247
-6.75435e-06
0.000155626
-6.75757e-06
0.000159006
-6.76018e-06
0.000162387
-6.76213e-06
0.000165769
-6.76337e-06
0.000169151
-6.76384e-06
0.000172533
-6.7635e-06
0.000175914
-6.76228e-06
0.000179295
-6.76013e-06
0.000182674
-6.757e-06
0.00018605
-6.75281e-06
0.000189424
-6.74752e-06
0.000192795
-6.74106e-06
0.000196162
-6.73336e-06
0.000199525
-6.72437e-06
0.000202882
-6.71401e-06
0.000206234
-6.70222e-06
0.000209578
-6.68893e-06
0.000212916
-6.67407e-06
0.000216245
-6.65758e-06
0.000219565
-6.63938e-06
0.000222875
-6.61941e-06
0.000226175
-6.59758e-06
0.000229462
-6.57384e-06
0.000232737
-6.5481e-06
0.000235997
-6.5203e-06
0.000239243
-6.49037e-06
0.000242473
-6.45822e-06
0.000245685
-6.4238e-06
0.000248879
-6.38703e-06
0.000252054
-6.34784e-06
0.000255208
-6.30617e-06
0.000258339
-6.26193e-06
0.000261447
-6.21508e-06
0.000264531
-6.16554e-06
0.000267588
-6.11325e-06
0.000270618
-6.05814e-06
0.000273619
-6.00017e-06
0.000276589
-5.93927e-06
0.000279528
-5.87538e-06
0.000282433
-5.80847e-06
0.000285303
-5.73847e-06
0.000288136
-5.66536e-06
0.000290931
-5.58907e-06
0.000293687
-5.50959e-06
0.000296401
-5.42686e-06
0.000299073
-5.34088e-06
0.000301699
-5.25161e-06
0.00030428
-5.15904e-06
0.000306812
-5.06314e-06
0.000309295
-4.96392e-06
0.000311726
-4.86136e-06
0.000314105
-4.75548e-06
0.000316429
-4.64628e-06
0.000318696
-4.53377e-06
0.000320906
-4.41798e-06
0.000323057
-4.29893e-06
0.000325146
-4.17666e-06
0.000327172
-4.0512e-06
0.000329134
-3.9226e-06
0.00033103
-3.79092e-06
0.000332859
-3.65622e-06
0.000334619
-3.51855e-06
0.000336309
-3.378e-06
0.000337927
-3.23464e-06
0.000339472
-3.08857e-06
0.000340942
-2.93986e-06
0.000342337
-2.78863e-06
0.000343655
-2.63497e-06
0.000344895
-2.479e-06
0.000346056
-2.32083e-06
0.000347137
-2.1606e-06
0.000348137
-1.99841e-06
0.000349054
-1.83441e-06
0.000349889
-1.66874e-06
0.00035064
-1.50153e-06
0.000351307
-1.33293e-06
0.000351889
-1.16309e-06
0.000352385
-9.92167e-07
0.000352796
-8.20309e-07
0.00035312
-6.47676e-07
0.000353357
-4.74427e-07
0.000353507
-3.00724e-07
0.000353571
-1.26728e-07
0.000353547
4.73966e-08
0.000353436
2.21488e-07
0.000353238
3.95385e-07
0.000352954
5.68923e-07
0.000352583
7.41944e-07
0.000352125
9.14288e-07
0.000351582
1.0858e-06
0.000350954
1.25632e-06
0.000350241
1.4257e-06
0.000349443
1.5938e-06
0.000348563
1.76046e-06
0.000347599
1.92556e-06
0.000346554
2.08894e-06
0.000345429
2.25049e-06
0.000344223
2.41007e-06
0.000342939
2.56757e-06
0.000341577
2.72286e-06
0.000340138
2.87585e-06
0.000338624
3.02642e-06
0.000337037
3.17448e-06
0.000335376
3.31993e-06
0.000333644
3.46269e-06
0.000331842
3.60269e-06
0.000329971
3.73984e-06
0.000328033
3.87409e-06
0.00032603
4.00537e-06
0.000323962
4.13363e-06
0.000321832
4.25882e-06
0.000319641
4.38091e-06
0.00031739
4.49985e-06
0.000315082
4.61562e-06
0.000312717
4.7282e-06
0.000310297
4.83757e-06
0.000307825
4.94371e-06
0.0003053
5.04664e-06
0.000302726
5.14633e-06
0.000300104
5.24281e-06
0.000297435
5.33608e-06
0.000294721
5.42615e-06
0.000291964
5.51305e-06
0.000289165
5.5968e-06
0.000286326
5.67743e-06
0.000283447
5.75496e-06
0.000280532
5.82944e-06
0.000277581
5.9009e-06
0.000274595
5.9694e-06
0.000271577
6.03496e-06
0.000268527
6.09764e-06
0.000265448
6.1575e-06
0.00026234
6.21458e-06
0.000259205
6.26894e-06
0.000256044
6.32063e-06
0.000252858
6.36973e-06
0.00024965
6.41628e-06
0.000246419
6.46034e-06
0.000243167
6.50199e-06
0.000239896
6.54129e-06
0.000236606
6.5783e-06
0.000233299
6.61308e-06
0.000229976
6.6457e-06
0.000226637
6.67623e-06
0.000223284
6.70474e-06
0.000219918
6.73129e-06
0.00021654
6.75595e-06
0.00021315
6.77878e-06
0.00020975
6.79985e-06
0.00020634
6.81923e-06
0.000202921
6.83699e-06
0.000199494
6.85318e-06
0.00019606
6.86787e-06
0.000192619
6.88113e-06
0.000189172
6.89302e-06
0.00018572
6.9036e-06
0.000182263
6.91293e-06
0.000178802
6.92107e-06
0.000175338
6.92807e-06
0.000171871
6.93401e-06
0.000168401
6.93894e-06
0.000164929
6.9429e-06
0.000161456
6.94596e-06
0.000157982
6.94817e-06
0.000154507
6.94958e-06
0.000151031
6.95024e-06
0.000147556
6.9502e-06
0.000144081
6.94951e-06
0.000140607
6.94822e-06
0.000137134
6.94637e-06
0.000133662
6.94401e-06
0.000130191
6.94119e-06
0.000126722
6.93793e-06
0.000123255
6.93429e-06
0.000119789
6.9303e-06
0.000116326
6.92601e-06
0.000112865
6.92144e-06
0.000109407
6.91664e-06
0.000105951
6.91164e-06
0.000102498
6.90647e-06
9.90474e-05
6.90117e-06
9.55995e-05
6.89576e-06
9.21543e-05
6.89027e-06
8.8712e-05
6.88474e-06
8.52724e-05
6.87919e-06
8.18356e-05
6.87365e-06
7.84015e-05
6.86814e-06
7.49702e-05
6.86268e-06
7.15416e-05
6.8573e-06
6.81156e-05
6.85203e-06
6.46922e-05
6.84687e-06
6.12713e-05
6.84186e-06
5.78528e-05
6.837e-06
5.44367e-05
6.83232e-06
5.10229e-05
6.82783e-06
4.76111e-05
6.82355e-06
4.42015e-05
6.81949e-06
4.07937e-05
6.81567e-06
3.73877e-05
6.81209e-06
3.39834e-05
6.80877e-06
3.05806e-05
6.80572e-06
2.71792e-05
6.80295e-06
2.3779e-05
6.80047e-06
2.038e-05
6.79828e-06
1.69819e-05
6.79639e-06
1.35845e-05
6.79481e-06
1.01878e-05
6.79354e-06
6.79163e-06
6.79258e-06
3.39573e-06
6.79195e-06
6.79163e-06
3.25975e-06
-9.78015e-06
6.51968e-06
-9.7807e-06
9.77997e-06
-9.78179e-06
1.30408e-05
-9.78342e-06
1.63024e-05
-9.78558e-06
1.95648e-05
-9.78828e-06
2.28284e-05
-9.79151e-06
2.60932e-05
-9.79527e-06
2.93594e-05
-9.79953e-06
3.26273e-05
-9.80431e-06
3.58968e-05
-9.80958e-06
3.91684e-05
-9.81533e-06
4.2442e-05
-9.82156e-06
4.57178e-05
-9.82824e-06
4.8996e-05
-9.83537e-06
5.22768e-05
-9.84293e-06
5.55602e-05
-9.8509e-06
5.88464e-05
-9.85927e-06
6.21355e-05
-9.86801e-06
6.54277e-05
-9.8771e-06
6.87231e-05
-9.88652e-06
7.20217e-05
-9.89625e-06
7.53236e-05
-9.90626e-06
7.8629e-05
-9.91653e-06
8.19379e-05
-9.92702e-06
8.52504e-05
-9.93771e-06
8.85665e-05
-9.94857e-06
9.18863e-05
-9.95956e-06
9.52098e-05
-9.97065e-06
9.8537e-05
-9.9818e-06
0.000101868
-9.99297e-06
0.000105203
-1.00041e-05
0.000108541
-1.00152e-05
0.000111883
-1.00262e-05
0.000115229
-1.00371e-05
0.000118579
-1.00478e-05
0.000121932
-1.00582e-05
0.000125288
-1.00684e-05
0.000128647
-1.00782e-05
0.00013201
-1.00876e-05
0.000135376
-1.00965e-05
0.000138745
-1.01049e-05
0.000142116
-1.01128e-05
0.00014549
-1.012e-05
0.000148866
-1.01265e-05
0.000152243
-1.01322e-05
0.000155623
-1.01371e-05
0.000159004
-1.01411e-05
0.000162386
-1.01441e-05
0.000165768
-1.0146e-05
0.000169151
-1.01468e-05
0.000172534
-1.01463e-05
0.000175917
-1.01446e-05
0.000179298
-1.01414e-05
0.000182678
-1.01368e-05
0.000186055
-1.01306e-05
0.000189431
-1.01227e-05
0.000192803
-1.01131e-05
0.000196171
-1.01017e-05
0.000199535
-1.00883e-05
0.000202894
-1.00728e-05
0.000206247
-1.00552e-05
0.000209593
-1.00354e-05
0.000212932
-1.00132e-05
0.000216263
-9.98851e-06
0.000219585
-9.9613e-06
0.000222897
-9.93142e-06
0.000226198
-9.89878e-06
0.000229488
-9.86325e-06
0.000232764
-9.82473e-06
0.000236027
-9.78312e-06
0.000239275
-9.73831e-06
0.000242507
-9.69018e-06
0.000245722
-9.63864e-06
0.000248918
-9.58357e-06
0.000252095
-9.52488e-06
0.000255252
-9.46245e-06
0.000258386
-9.39618e-06
0.000261497
-9.32598e-06
0.000264583
-9.25175e-06
0.000267643
-9.17338e-06
0.000270676
-9.0908e-06
0.00027368
-9.00391e-06
0.000276653
-8.91263e-06
0.000279594
-8.81687e-06
0.000282503
-8.71655e-06
0.000285376
-8.61162e-06
0.000288212
-8.50199e-06
0.000291011
-8.38761e-06
0.00029377
-8.26842e-06
0.000296487
-8.14438e-06
0.000299162
-8.01543e-06
0.000301792
-7.88155e-06
0.000304375
-7.7427e-06
0.000306911
-7.59887e-06
0.000309397
-7.45004e-06
0.000311832
-7.29621e-06
0.000314214
-7.13737e-06
0.000316541
-6.97355e-06
0.000318812
-6.80477e-06
0.000321025
-6.63104e-06
0.000323179
-6.45243e-06
0.000325271
-6.26897e-06
0.000327301
-6.08072e-06
0.000329266
-5.88776e-06
0.000331165
-5.69017e-06
0.000332997
-5.48802e-06
0.00033476
-5.28143e-06
0.000336452
-5.07051e-06
0.000338073
-4.85536e-06
0.000339621
-4.63613e-06
0.000341094
-4.41295e-06
0.000342491
-4.18597e-06
0.000343811
-3.95534e-06
0.000345054
-3.72124e-06
0.000346217
-3.48384e-06
0.000347299
-3.24333e-06
0.000348301
-2.99988e-06
0.00034922
-2.75371e-06
0.000350056
-2.50503e-06
0.000350809
-2.25403e-06
0.000351477
-2.00095e-06
0.00035206
-1.746e-06
0.000352557
-1.48942e-06
0.000352968
-1.23143e-06
0.000353293
-9.72282e-07
0.000353531
-7.12207e-07
0.000353681
-4.5145e-07
0.000353745
-1.90254e-07
0.000353721
7.11372e-08
0.00035361
3.32478e-07
0.000353412
5.93524e-07
0.000353127
8.54033e-07
0.000352755
1.11376e-06
0.000352297
1.37247e-06
0.000351753
1.62993e-06
0.000351123
1.8859e-06
0.000350409
2.14016e-06
0.00034961
2.39249e-06
0.000348728
2.64266e-06
0.000347763
2.89047e-06
0.000346716
3.13571e-06
0.000345588
3.37819e-06
0.000344381
3.61772e-06
0.000343094
3.8541e-06
0.00034173
4.08718e-06
0.000340289
4.31679e-06
0.000338773
4.54277e-06
0.000337182
4.76497e-06
0.000335519
4.98326e-06
0.000333784
5.1975e-06
0.000331979
5.40758e-06
0.000330105
5.6134e-06
0.000328165
5.81484e-06
0.000326158
6.01183e-06
0.000324088
6.20428e-06
0.000321954
6.39212e-06
0.00031976
6.57529e-06
0.000317506
6.75373e-06
0.000315194
6.92742e-06
0.000312826
7.09631e-06
0.000310403
7.26037e-06
0.000307927
7.4196e-06
0.0003054
7.57399e-06
0.000302823
7.72353e-06
0.000300197
7.86823e-06
0.000297525
8.00811e-06
0.000294808
8.1432e-06
0.000292048
8.27352e-06
0.000289246
8.3991e-06
0.000286403
8.52e-06
0.000283522
8.63626e-06
0.000280603
8.74793e-06
0.000277649
8.85507e-06
0.000274661
8.95775e-06
0.00027164
9.05604e-06
0.000268587
9.15e-06
0.000265505
9.23972e-06
0.000262394
9.32527e-06
0.000259257
9.40674e-06
0.000256093
9.48421e-06
0.000252905
9.55777e-06
0.000249694
9.62752e-06
0.000246461
9.69354e-06
0.000243207
9.75593e-06
0.000239933
9.8148e-06
0.000236641
9.87022e-06
0.000233332
9.92231e-06
0.000230006
9.97116e-06
0.000226666
1.00169e-05
0.000223311
1.00596e-05
0.000219943
1.00993e-05
0.000216563
1.01362e-05
0.000213171
1.01704e-05
0.000209769
1.02019e-05
0.000206357
1.02309e-05
0.000202937
1.02574e-05
0.000199509
1.02816e-05
0.000196073
1.03036e-05
0.000192631
1.03234e-05
0.000189182
1.03412e-05
0.000185729
1.0357e-05
0.000182271
1.03709e-05
0.000178809
1.0383e-05
0.000175344
1.03935e-05
0.000171875
1.04023e-05
0.000168405
1.04096e-05
0.000164932
1.04155e-05
0.000161458
1.042e-05
0.000157983
1.04232e-05
0.000154507
1.04253e-05
0.000151031
1.04262e-05
0.000147555
1.04261e-05
0.00014408
1.0425e-05
0.000140605
1.0423e-05
0.000137131
1.04202e-05
0.000133659
1.04166e-05
0.000130188
1.04123e-05
0.000126718
1.04074e-05
0.000123251
1.04019e-05
0.000119785
1.03958e-05
0.000116322
1.03894e-05
0.000112861
1.03825e-05
0.000109402
1.03752e-05
0.000105946
1.03677e-05
0.000102493
1.03599e-05
9.9042e-05
1.03519e-05
9.5594e-05
1.03437e-05
9.21488e-05
1.03355e-05
8.87064e-05
1.03271e-05
8.52668e-05
1.03188e-05
8.18301e-05
1.03104e-05
7.83961e-05
1.03021e-05
7.49648e-05
1.02939e-05
7.15363e-05
1.02858e-05
6.81104e-05
1.02779e-05
6.46872e-05
1.02701e-05
6.12664e-05
1.02626e-05
5.78482e-05
1.02553e-05
5.44322e-05
1.02482e-05
5.10186e-05
1.02415e-05
4.76071e-05
1.0235e-05
4.41976e-05
1.02289e-05
4.07901e-05
1.02232e-05
3.73844e-05
1.02178e-05
3.39803e-05
1.02128e-05
3.05778e-05
1.02082e-05
2.71767e-05
1.02041e-05
2.37769e-05
1.02003e-05
2.03781e-05
1.0197e-05
1.69803e-05
1.01942e-05
1.35833e-05
1.01918e-05
1.01869e-05
1.01899e-05
6.79099e-06
1.01885e-05
3.39541e-06
1.01875e-05
1.0187e-05
3.2592e-06
-1.30394e-05
6.51859e-06
-1.30401e-05
9.77834e-06
-1.30415e-05
1.30386e-05
-1.30437e-05
1.62997e-05
-1.30466e-05
1.95616e-05
-1.30502e-05
2.28246e-05
-1.30545e-05
2.60889e-05
-1.30596e-05
2.93546e-05
-1.30653e-05
3.2622e-05
-1.30716e-05
3.58911e-05
-1.30787e-05
3.91621e-05
-1.30864e-05
4.24353e-05
-1.30947e-05
4.57106e-05
-1.31036e-05
4.89884e-05
-1.31132e-05
5.22688e-05
-1.31233e-05
5.55518e-05
-1.31339e-05
5.88376e-05
-1.31451e-05
6.21264e-05
-1.31568e-05
6.54183e-05
-1.31689e-05
6.87133e-05
-1.31815e-05
7.20116e-05
-1.31946e-05
7.53133e-05
-1.3208e-05
7.86185e-05
-1.32217e-05
8.19272e-05
-1.32357e-05
8.52395e-05
-1.325e-05
8.85555e-05
-1.32645e-05
9.18751e-05
-1.32793e-05
9.51986e-05
-1.32941e-05
9.85258e-05
-1.3309e-05
0.000101857
-1.3324e-05
0.000105192
-1.33389e-05
0.00010853
-1.33538e-05
0.000111873
-1.33686e-05
0.000115219
-1.33831e-05
0.000118568
-1.33974e-05
0.000121921
-1.34114e-05
0.000125278
-1.3425e-05
0.000128638
-1.34382e-05
0.000132001
-1.34508e-05
0.000135368
-1.34628e-05
0.000138737
-1.34741e-05
0.000142109
-1.34847e-05
0.000145483
-1.34944e-05
0.00014886
-1.35032e-05
0.000152238
-1.35109e-05
0.000155619
-1.35176e-05
0.000159001
-1.3523e-05
0.000162384
-1.35271e-05
0.000165768
-1.35298e-05
0.000169152
-1.3531e-05
0.000172536
-1.35305e-05
0.00017592
-1.35283e-05
0.000179302
-1.35242e-05
0.000182684
-1.35182e-05
0.000186063
-1.35101e-05
0.00018944
-1.34997e-05
0.000192814
-1.34871e-05
0.000196184
-1.34719e-05
0.00019955
-1.34542e-05
0.000202911
-1.34337e-05
0.000206267
-1.34104e-05
0.000209615
-1.33841e-05
0.000212957
-1.33547e-05
0.00021629
-1.3322e-05
0.000219615
-1.32859e-05
0.00022293
-1.32462e-05
0.000226234
-1.32028e-05
0.000229526
-1.31556e-05
0.000232806
-1.31045e-05
0.000236072
-1.30491e-05
0.000239323
-1.29896e-05
0.000242559
-1.29256e-05
0.000245777
-1.2857e-05
0.000248977
-1.27837e-05
0.000252158
-1.27056e-05
0.000255318
-1.26226e-05
0.000258456
-1.25344e-05
0.000261571
-1.24409e-05
0.000264661
-1.23421e-05
0.000267726
-1.22377e-05
0.000270763
-1.21278e-05
0.000273771
-1.20121e-05
0.000276749
-1.18905e-05
0.000279695
-1.17629e-05
0.000282607
-1.16293e-05
0.000285485
-1.14895e-05
0.000288327
-1.13434e-05
0.00029113
-1.1191e-05
0.000293894
-1.10321e-05
0.000296616
-1.08668e-05
0.000299296
-1.06949e-05
0.000301931
-1.05165e-05
0.000304519
-1.03314e-05
0.00030706
-1.01396e-05
0.000309551
-9.94117e-06
0.000311991
-9.73605e-06
0.000314378
-9.52425e-06
0.00031671
-9.30579e-06
0.000318986
-9.08069e-06
0.000321204
-8.849e-06
0.000323362
-8.61077e-06
0.000325459
-8.36606e-06
0.000327494
-8.11496e-06
0.000329463
-7.85756e-06
0.000331367
-7.59396e-06
0.000333203
-7.32428e-06
0.000334971
-7.04865e-06
0.000336667
-6.76723e-06
0.000338292
-6.48017e-06
0.000339844
-6.18765e-06
0.000341321
-5.88984e-06
0.000342722
-5.58695e-06
0.000344045
-5.2792e-06
0.000345291
-4.96679e-06
0.000346457
-4.64997e-06
0.000347543
-4.32898e-06
0.000348547
-4.00408e-06
0.000349469
-3.67554e-06
0.000350307
-3.34362e-06
0.000351062
-3.00862e-06
0.000351732
-2.67083e-06
0.000352316
-2.33054e-06
0.000352815
-1.98807e-06
0.000353227
-1.64372e-06
0.000353553
-1.29781e-06
0.000353791
-9.50672e-07
0.000353942
-6.02617e-07
0.000354006
-2.53975e-07
0.000353982
9.49266e-08
0.000353871
4.43761e-07
0.000353672
7.92201e-07
0.000353387
1.13992e-06
0.000353014
1.4866e-06
0.000352554
1.83191e-06
0.000352009
2.17555e-06
0.000351377
2.5172e-06
0.000350661
2.85656e-06
0.00034986
3.19333e-06
0.000348976
3.52722e-06
0.000348008
3.85795e-06
0.000346959
4.18525e-06
0.000345828
4.50884e-06
0.000344617
4.82849e-06
0.000343327
5.14395e-06
0.000341959
5.45498e-06
0.000340515
5.76136e-06
0.000338995
6.06289e-06
0.0003374
6.35938e-06
0.000335733
6.65062e-06
0.000333994
6.93647e-06
0.000332185
7.21675e-06
0.000330307
7.49132e-06
0.000328362
7.76005e-06
0.000326351
8.02283e-06
0.000324275
8.27953e-06
0.000322138
8.53008e-06
0.000319938
8.77439e-06
0.00031768
9.01238e-06
0.000315363
9.24402e-06
0.00031299
9.46924e-06
0.000310563
9.68802e-06
0.000308082
9.90033e-06
0.00030555
1.01062e-05
0.000302968
1.03056e-05
0.000300337
1.04985e-05
0.000297661
1.06849e-05
0.000294939
1.0865e-05
0.000292174
1.10387e-05
0.000289367
1.12061e-05
0.000286519
1.13672e-05
0.000283633
1.15221e-05
0.00028071
1.16709e-05
0.000277752
1.18137e-05
0.000274759
1.19505e-05
0.000271734
1.20814e-05
0.000268677
1.22066e-05
0.000265591
1.23261e-05
0.000262476
1.244e-05
0.000259334
1.25485e-05
0.000256167
1.26517e-05
0.000252975
1.27496e-05
0.00024976
1.28425e-05
0.000246523
1.29304e-05
0.000243266
1.30134e-05
0.000239989
1.30917e-05
0.000236693
1.31655e-05
0.000233381
1.32348e-05
0.000230052
1.32998e-05
0.000226709
1.33606e-05
0.000223351
1.34173e-05
0.00021998
1.34701e-05
0.000216597
1.35192e-05
0.000213203
1.35646e-05
0.000209798
1.36065e-05
0.000206384
1.3645e-05
0.000202961
1.36802e-05
0.000199531
1.37124e-05
0.000196093
1.37415e-05
0.000192648
1.37678e-05
0.000189198
1.37913e-05
0.000185743
1.38122e-05
0.000182283
1.38306e-05
0.00017882
1.38466e-05
0.000175353
1.38604e-05
0.000171883
1.38721e-05
0.000168411
1.38817e-05
0.000164937
1.38894e-05
0.000161461
1.38953e-05
0.000157985
1.38995e-05
0.000154508
1.39021e-05
0.000151031
1.39033e-05
0.000147554
1.3903e-05
0.000144078
1.39014e-05
0.000140602
1.38987e-05
0.000137128
1.38948e-05
0.000133654
1.38899e-05
0.000130183
1.38841e-05
0.000126713
1.38774e-05
0.000123245
1.387e-05
0.000119779
1.38618e-05
0.000116315
1.38531e-05
0.000112853
1.38438e-05
0.000109395
1.38341e-05
0.000105938
1.38239e-05
0.000102485
1.38135e-05
9.90339e-05
1.38027e-05
9.55858e-05
1.37918e-05
9.21405e-05
1.37807e-05
8.86981e-05
1.37696e-05
8.52585e-05
1.37584e-05
8.18218e-05
1.37472e-05
7.83879e-05
1.3736e-05
7.49567e-05
1.3725e-05
7.15284e-05
1.37142e-05
6.81027e-05
1.37036e-05
6.46796e-05
1.36932e-05
6.12591e-05
1.36831e-05
5.78411e-05
1.36733e-05
5.44255e-05
1.36639e-05
5.10122e-05
1.36548e-05
4.7601e-05
1.36462e-05
4.41919e-05
1.3638e-05
4.07847e-05
1.36303e-05
3.73794e-05
1.36231e-05
3.39758e-05
1.36165e-05
3.05737e-05
1.36103e-05
2.7173e-05
1.36048e-05
2.37736e-05
1.35998e-05
2.03753e-05
1.35954e-05
1.69779e-05
1.35916e-05
1.35813e-05
1.35884e-05
1.01854e-05
1.35858e-05
6.79003e-06
1.35839e-05
3.39493e-06
1.35826e-05
1.3582e-05
3.25847e-06
-1.62978e-05
6.51713e-06
-1.62987e-05
9.77616e-06
-1.63006e-05
1.30357e-05
-1.63033e-05
1.62961e-05
-1.63069e-05
1.95573e-05
-1.63115e-05
2.28196e-05
-1.63169e-05
2.60832e-05
-1.63232e-05
2.93483e-05
-1.63303e-05
3.26149e-05
-1.63383e-05
3.58834e-05
-1.63471e-05
3.91538e-05
-1.63568e-05
4.24263e-05
-1.63672e-05
4.57011e-05
-1.63784e-05
4.89783e-05
-1.63904e-05
5.22581e-05
-1.64031e-05
5.55406e-05
-1.64164e-05
5.88259e-05
-1.64304e-05
6.21142e-05
-1.64451e-05
6.54056e-05
-1.64604e-05
6.87003e-05
-1.64762e-05
7.19982e-05
-1.64925e-05
7.52995e-05
-1.65093e-05
7.86044e-05
-1.65265e-05
8.19128e-05
-1.65442e-05
8.52249e-05
-1.65621e-05
8.85407e-05
-1.65803e-05
9.18603e-05
-1.65988e-05
9.51836e-05
-1.66175e-05
9.85108e-05
-1.66362e-05
0.000101842
-1.6655e-05
0.000105177
-1.66738e-05
0.000108515
-1.66925e-05
0.000111858
-1.67111e-05
0.000115204
-1.67294e-05
0.000118554
-1.67474e-05
0.000121908
-1.6765e-05
0.000125265
-1.67821e-05
0.000128625
-1.67987e-05
0.000131989
-1.68146e-05
0.000135356
-1.68298e-05
0.000138726
-1.68441e-05
0.000142099
-1.68575e-05
0.000145474
-1.68698e-05
0.000148852
-1.68809e-05
0.000152232
-1.68908e-05
0.000155613
-1.68993e-05
0.000158997
-1.69062e-05
0.000162381
-1.69115e-05
0.000165766
-1.69151e-05
0.000169152
-1.69167e-05
0.000172538
-1.69164e-05
0.000175924
-1.69138e-05
0.000179308
-1.6909e-05
0.000182692
-1.69016e-05
0.000186074
-1.68917e-05
0.000189453
-1.6879e-05
0.000192829
-1.68634e-05
0.000196202
-1.68448e-05
0.000199571
-1.68228e-05
0.000202935
-1.67975e-05
0.000206293
-1.67687e-05
0.000209645
-1.6736e-05
0.000212989
-1.66995e-05
0.000216326
-1.66589e-05
0.000219654
-1.6614e-05
0.000222973
-1.65647e-05
0.000226281
-1.65108e-05
0.000229577
-1.6452e-05
0.000232861
-1.63883e-05
0.000236131
-1.63194e-05
0.000239387
-1.62452e-05
0.000242627
-1.61655e-05
0.00024585
-1.60801e-05
0.000249055
-1.59888e-05
0.000252241
-1.58914e-05
0.000255406
-1.57878e-05
0.00025855
-1.56778e-05
0.00026167
-1.55612e-05
0.000264766
-1.54379e-05
0.000267836
-1.53077e-05
0.000270878
-1.51705e-05
0.000273892
-1.50261e-05
0.000276876
-1.48743e-05
0.000279828
-1.4715e-05
0.000282747
-1.45481e-05
0.000285631
-1.43736e-05
0.000288479
-1.41911e-05
0.000291289
-1.40007e-05
0.000294059
-1.38023e-05
0.000296788
-1.35957e-05
0.000299474
-1.3381e-05
0.000302116
-1.3158e-05
0.000304711
-1.29267e-05
0.000307258
-1.2687e-05
0.000309756
-1.2439e-05
0.000312203
-1.21826e-05
0.000314596
-1.19178e-05
0.000316935
-1.16447e-05
0.000319218
-1.13632e-05
0.000321442
-1.10735e-05
0.000323607
-1.07756e-05
0.00032571
-1.04696e-05
0.000327751
-1.01555e-05
0.000329727
-9.83355e-06
0.000331637
-9.50383e-06
0.000333479
-9.16648e-06
0.000335252
-8.82168e-06
0.000336954
-8.4696e-06
0.000338585
-8.11045e-06
0.000340141
-7.74445e-06
0.000341623
-7.37182e-06
0.000343029
-6.99281e-06
0.000344358
-6.6077e-06
0.000345608
-6.21675e-06
0.000346778
-5.82027e-06
0.000347868
-5.41855e-06
0.000348875
-5.01193e-06
0.000349801
-4.60073e-06
0.000350642
-4.1853e-06
0.0003514
-3.766e-06
0.000352072
-3.3432e-06
0.000352659
-2.91727e-06
0.000353159
-2.48859e-06
0.000353573
-2.05757e-06
0.0003539
-1.62459e-06
0.000354139
-1.19005e-06
0.000354291
-7.54373e-07
0.000354355
-3.17958e-07
0.000354331
1.18782e-07
0.00035422
5.55437e-07
0.00035402
9.91595e-07
0.000353733
1.42685e-06
0.000353359
1.86079e-06
0.000352898
2.29303e-06
0.00035235
2.72315e-06
0.000351717
3.15079e-06
0.000350998
3.57554e-06
0.000350194
3.99705e-06
0.000349306
4.41494e-06
0.000348335
4.82886e-06
0.000347282
5.23847e-06
0.000346148
5.64345e-06
0.000344933
6.04346e-06
0.000343638
6.43822e-06
0.000342266
6.82742e-06
0.000340816
7.21079e-06
0.000339291
7.58807e-06
0.000337692
7.95901e-06
0.000336019
8.32339e-06
0.000334274
8.681e-06
0.000332459
9.03162e-06
0.000330576
9.37508e-06
0.000328625
9.71122e-06
0.000326607
1.00399e-05
0.000324526
1.0361e-05
0.000322382
1.06743e-05
0.000320176
1.09798e-05
0.000317911
1.12774e-05
0.000315588
1.1567e-05
0.000313209
1.18486e-05
0.000310775
1.21221e-05
0.000308288
1.23875e-05
0.000305749
1.26448e-05
0.000303161
1.2894e-05
0.000300524
1.31351e-05
0.000297841
1.33682e-05
0.000295112
1.35932e-05
0.000292341
1.38102e-05
0.000289528
1.40193e-05
0.000286674
1.42206e-05
0.000283782
1.44142e-05
0.000280853
1.46e-05
0.000277889
1.47783e-05
0.00027489