/*--------------------------------*- C++ -*----------------------------------*\
| =========                 |                                                 |
| \\      /  F ield         | OpenFOAM: The Open Source CFD Toolbox           |
|  \\    /   O peration     | Version:  v2012                                 |
|   \\  /    A nd           | Website:  www.openfoam.com                      |
|    \\/     M anipulation  |                                                 |
\*---------------------------------------------------------------------------*/
FoamFile
{
    version     2.0;
    format      ascii;
    class       surfaceScalarField;
    location    "9.5";
    object      phi;
}
// * * * * * * * * * * * * * * * * * * * * * * * * * * * * * * * * * * * * * //

dimensions      [0 3 -1 0 0 0 0];
oriented        oriented;


internalField   nonuniform List<scalar> 
130560
(
3.70727e-06
-3.70727e-06
7.4146e-06
-3.70733e-06
1.11221e-05
-3.70746e-06
1.48297e-05
-3.70765e-06
1.85376e-05
-3.7079e-06
2.22458e-05
-3.7082e-06
2.59544e-05
-3.70856e-06
2.96633e-05
-3.70897e-06
3.33728e-05
-3.70941e-06
3.70827e-05
-3.7099e-06
4.07931e-05
-3.71041e-06
4.4504e-05
-3.71094e-06
4.82155e-05
-3.71148e-06
5.19275e-05
-3.71202e-06
5.564e-05
-3.71255e-06
5.93531e-05
-3.71307e-06
6.30667e-05
-3.71355e-06
6.67806e-05
-3.71398e-06
7.0495e-05
-3.71436e-06
7.42096e-05
-3.71466e-06
7.79245e-05
-3.71487e-06
8.16395e-05
-3.71498e-06
8.53545e-05
-3.71497e-06
8.90693e-05
-3.71481e-06
9.27838e-05
-3.7145e-06
9.64978e-05
-3.71401e-06
0.000100211
-3.71332e-06
0.000103924
-3.71242e-06
0.000107635
-3.71127e-06
0.000111345
-3.70986e-06
0.000115053
-3.70817e-06
0.000118759
-3.70616e-06
0.000122463
-3.70382e-06
0.000126164
-3.70113e-06
0.000129862
-3.69805e-06
0.000133557
-3.69455e-06
0.000137247
-3.69062e-06
0.000140933
-3.68623e-06
0.000144615
-3.68134e-06
0.000148291
-3.67593e-06
0.000151961
-3.66996e-06
0.000155624
-3.66342e-06
0.00015928
-3.65626e-06
0.000162929
-3.64846e-06
0.000166569
-3.63999e-06
0.0001702
-3.63082e-06
0.00017382
-3.62092e-06
0.000177431
-3.61025e-06
0.00018103
-3.59878e-06
0.000184616
-3.58648e-06
0.000188189
-3.57333e-06
0.000191749
-3.55928e-06
0.000195293
-3.54432e-06
0.000198821
-3.5284e-06
0.000202333
-3.5115e-06
0.000205826
-3.49359e-06
0.000209301
-3.47464e-06
0.000212756
-3.45461e-06
0.000216189
-3.43349e-06
0.0002196
-3.41124e-06
0.000222988
-3.38783e-06
0.000226351
-3.36325e-06
0.000229689
-3.33747e-06
0.000232999
-3.31045e-06
0.000236282
-3.28219e-06
0.000239534
-3.25265e-06
0.000242756
-3.22183e-06
0.000245946
-3.18969e-06
0.000249102
-3.15623e-06
0.000252223
-3.12142e-06
0.000255309
-3.08526e-06
0.000258356
-3.04774e-06
0.000261365
-3.00884e-06
0.000264334
-2.96855e-06
0.000267261
-2.92687e-06
0.000270144
-2.8838e-06
0.000272984
-2.83933e-06
0.000275777
-2.79347e-06
0.000278523
-2.74622e-06
0.000281221
-2.69757e-06
0.000283869
-2.64755e-06
0.000286465
-2.59617e-06
0.000289008
-2.54342e-06
0.000291498
-2.48933e-06
0.000293931
-2.43392e-06
0.000296309
-2.3772e-06
0.000298628
-2.3192e-06
0.000300888
-2.25994e-06
0.000303087
-2.19946e-06
0.000305225
-2.13776e-06
0.0003073
-2.0749e-06
0.000309311
-2.01091e-06
0.000311257
-1.94581e-06
0.000313136
-1.87965e-06
0.000314949
-1.81248e-06
0.000316693
-1.74432e-06
0.000318368
-1.67524e-06
0.000319974
-1.60526e-06
0.000321508
-1.53445e-06
0.000322971
-1.46285e-06
0.000324361
-1.39051e-06
0.000325679
-1.31749e-06
0.000326923
-1.24383e-06
0.000328092
-1.16961e-06
0.000329187
-1.09486e-06
0.000330207
-1.01965e-06
0.000331151
-9.44044e-07
0.000332019
-8.68089e-07
0.000332811
-7.91849e-07
0.000333526
-7.15383e-07
0.000334165
-6.3875e-07
0.000334727
-5.62011e-07
0.000335212
-4.85224e-07
0.000335621
-4.0845e-07
0.000335952
-3.31747e-07
0.000336208
-2.55174e-07
0.000336386
-1.78789e-07
0.000336489
-1.02649e-07
0.000336516
-2.68097e-08
0.000336467
4.86732e-08
0.000336343
1.23746e-07
0.000336145
1.98355e-07
0.000335873
2.72449e-07
0.000335527
3.45978e-07
0.000335108
4.18894e-07
0.000334617
4.91148e-07
0.000334054
5.62697e-07
0.00033342
6.33496e-07
0.000332717
7.03504e-07
0.000331944
7.7268e-07
0.000331103
8.40987e-07
0.000330195
9.08389e-07
0.00032922
9.7485e-07
0.00032818
1.04034e-06
0.000327075
1.10483e-06
0.000325907
1.16829e-06
0.000324676
1.23069e-06
0.000323384
1.29201e-06
0.000322032
1.35223e-06
0.00032062
1.41133e-06
0.000319151
1.46929e-06
0.000317625
1.52609e-06
0.000316043
1.58173e-06
0.000314407
1.63618e-06
0.000312718
1.68944e-06
0.000310976
1.7415e-06
0.000309184
1.79236e-06
0.000307342
1.842e-06
0.000305451
1.89043e-06
0.000303514
1.93765e-06
0.00030153
1.98365e-06
0.000299501
2.02843e-06
0.000297429
2.07201e-06
0.000295315
2.11438e-06
0.00029316
2.15555e-06
0.000290964
2.19553e-06
0.00028873
2.23433e-06
0.000286458
2.27195e-06
0.000284149
2.30841e-06
0.000281806
2.34372e-06
0.000279428
2.37789e-06
0.000277017
2.41093e-06
0.000274574
2.44287e-06
0.0002721
2.47371e-06
0.000269597
2.50347e-06
0.000267065
2.53218e-06
0.000264505
2.55984e-06
0.000261918
2.58647e-06
0.000259306
2.6121e-06
0.000256669
2.63674e-06
0.000254009
2.66041e-06
0.000251326
2.68313e-06
0.000248621
2.70493e-06
0.000245895
2.72581e-06
0.000243149
2.74581e-06
0.000240384
2.76494e-06
0.000237601
2.78323e-06
0.0002348
2.80069e-06
0.000231983
2.81735e-06
0.00022915
2.83323e-06
0.000226302
2.84835e-06
0.000223439
2.86272e-06
0.000220562
2.87638e-06
0.000217673
2.88934e-06
0.000214771
2.90162e-06
0.000211858
2.91325e-06
0.000208934
2.92424e-06
0.000205999
2.93462e-06
0.000203055
2.9444e-06
0.000200101
2.95361e-06
0.000197139
2.96226e-06
0.000194169
2.97038e-06
0.000191191
2.97798e-06
0.000188206
2.98509e-06
0.000185214
2.99171e-06
0.000182216
2.99788e-06
0.000179212
3.0036e-06
0.000176204
3.0089e-06
0.00017319
3.0138e-06
0.000170171
3.0183e-06
0.000167149
3.02243e-06
0.000164123
3.02621e-06
0.000161093
3.02964e-06
0.00015806
3.03275e-06
0.000155025
3.03556e-06
0.000151987
3.03807e-06
0.000148946
3.0403e-06
0.000145904
3.04227e-06
0.00014286
3.04398e-06
0.000139815
3.04546e-06
0.000136768
3.04672e-06
0.00013372
3.04777e-06
0.000130672
3.04862e-06
0.000127622
3.04928e-06
0.000124573
3.04978e-06
0.000121522
3.05011e-06
0.000118472
3.05029e-06
0.000115422
3.05033e-06
0.000112372
3.05025e-06
0.000109322
3.05004e-06
0.000106272
3.04973e-06
0.000103223
3.04932e-06
0.000100174
3.04883e-06
9.71254e-05
3.04825e-06
9.40778e-05
3.0476e-06
9.1031e-05
3.04689e-06
8.79848e-05
3.04612e-06
8.49395e-05
3.04531e-06
8.18951e-05
3.04446e-06
7.88515e-05
3.04358e-06
7.58088e-05
3.04267e-06
7.27671e-05
3.04174e-06
6.97263e-05
3.04081e-06
6.66864e-05
3.03986e-06
6.36475e-05
3.03892e-06
6.06095e-05
3.03798e-06
5.75724e-05
3.03706e-06
5.45363e-05
3.03615e-06
5.1501e-05
3.03526e-06
4.84666e-05
3.03439e-06
4.54331e-05
3.03356e-06
4.24003e-05
3.03276e-06
3.93683e-05
3.03199e-06
3.6337e-05
3.03127e-06
3.33065e-05
3.03059e-06
3.02765e-05
3.02995e-06
2.72471e-05
3.02937e-06
2.42183e-05
3.02884e-06
2.11899e-05
3.02836e-06
1.8162e-05
3.02793e-06
1.51344e-05
3.02757e-06
1.21072e-05
3.02726e-06
9.08017e-06
3.02701e-06
6.05334e-06
3.02683e-06
3.02664e-06
3.0267e-06
3.02664e-06
3.7072e-06
-7.41447e-06
7.41447e-06
-7.4146e-06
1.11219e-05
-7.41486e-06
1.48295e-05
-7.41524e-06
1.85373e-05
-7.41574e-06
2.22455e-05
-7.41636e-06
2.5954e-05
-7.41708e-06
2.96629e-05
-7.41789e-06
3.33723e-05
-7.41879e-06
3.70821e-05
-7.41976e-06
4.07925e-05
-7.42079e-06
4.45035e-05
-7.42186e-06
4.82149e-05
-7.42295e-06
5.1927e-05
-7.42405e-06
5.56395e-05
-7.42513e-06
5.93526e-05
-7.42616e-06
6.30662e-05
-7.42714e-06
6.67803e-05
-7.42802e-06
7.04947e-05
-7.42879e-06
7.42094e-05
-7.42941e-06
7.79244e-05
-7.42985e-06
8.16395e-05
-7.43008e-06
8.53546e-05
-7.43007e-06
8.90696e-05
-7.42978e-06
9.27843e-05
-7.42918e-06
9.64985e-05
-7.42822e-06
0.000100212
-7.42686e-06
0.000103925
-7.42507e-06
0.000107636
-7.4228e-06
0.000111346
-7.42001e-06
0.000115055
-7.41664e-06
0.000118761
-7.41266e-06
0.000122466
-7.40801e-06
0.000126167
-7.40264e-06
0.000129865
-7.3965e-06
0.00013356
-7.38955e-06
0.000137252
-7.38171e-06
0.000140938
-7.37295e-06
0.00014462
-7.3632e-06
0.000148297
-7.3524e-06
0.000151967
-7.34051e-06
0.000155631
-7.32745e-06
0.000159288
-7.31316e-06
0.000162937
-7.2976e-06
0.000166578
-7.28069e-06
0.000170209
-7.26238e-06
0.000173831
-7.2426e-06
0.000177442
-7.22129e-06
0.000181042
-7.19838e-06
0.000184629
-7.17382e-06
0.000188203
-7.14755e-06
0.000191764
-7.11949e-06
0.000195309
-7.08959e-06
0.000198838
-7.05778e-06
0.000202351
-7.02401e-06
0.000205845
-6.98822e-06
0.000209321
-6.95034e-06
0.000212777
-6.91032e-06
0.000216211
-6.8681e-06
0.000219624
-6.82363e-06
0.000223013
-6.77685e-06
0.000226377
-6.72771e-06
0.000229716
-6.67616e-06
0.000233028
-6.62215e-06
0.000236311
-6.56565e-06
0.000239565
-6.5066e-06
0.000242788
-6.44496e-06
0.000245979
-6.3807e-06
0.000249137
-6.3138e-06
0.00025226
-6.2442e-06
0.000255346
-6.17189e-06
0.000258395
-6.09685e-06
0.000261406
-6.01905e-06
0.000264375
-5.93848e-06
0.000267304
-5.85513e-06
0.000270189
-5.76899e-06
0.00027303
-5.68006e-06
0.000275824
-5.58833e-06
0.000278572
-5.49382e-06
0.000281271
-5.39653e-06
0.00028392
-5.29648e-06
0.000286517
-5.19369e-06
0.000289062
-5.08818e-06
0.000291553
-4.97999e-06
0.000293988
-4.86914e-06
0.000296367
-4.75569e-06
0.000298687
-4.63966e-06
0.000300948
-4.52112e-06
0.000303149
-4.40011e-06
0.000305288
-4.2767e-06
0.000307364
-4.15094e-06
0.000309376
-4.02291e-06
0.000311323
-3.89268e-06
0.000313203
-3.76033e-06
0.000315017
-3.62593e-06
0.000316762
-3.48958e-06
0.000318438
-3.35136e-06
0.000320044
-3.21136e-06
0.00032158
-3.06968e-06
0.000323043
-2.92643e-06
0.000324434
-2.7817e-06
0.000325752
-2.6356e-06
0.000326997
-2.48824e-06
0.000328167
-2.33973e-06
0.000329262
-2.19018e-06
0.000330282
-2.03971e-06
0.000331227
-1.88843e-06
0.000332095
-1.73646e-06
0.000332887
-1.58392e-06
0.000333603
-1.43093e-06
0.000334242
-1.27761e-06
0.000334804
-1.12407e-06
0.000335289
-9.70435e-07
0.000335697
-8.16828e-07
0.000336029
-6.63364e-07
0.000336284
-5.1016e-07
0.000336462
-3.57333e-07
0.000336565
-2.04996e-07
0.000336591
-5.32622e-08
0.000336542
9.77576e-08
0.000336418
2.47955e-07
0.000336219
3.97225e-07
0.000335946
5.45464e-07
0.000335599
6.9257e-07
0.00033518
8.38448e-07
0.000334688
9.83003e-07
0.000334125
1.12614e-06
0.00033349
1.26778e-06
0.000332786
1.40784e-06
0.000332012
1.54623e-06
0.000331171
1.68288e-06
0.000330261
1.81772e-06
0.000329285
1.95067e-06
0.000328244
2.08168e-06
0.000327138
2.21069e-06
0.000325969
2.33763e-06
0.000324737
2.46246e-06
0.000323444
2.58512e-06
0.000322091
2.70558e-06
0.000320678
2.8238e-06
0.000319208
2.93973e-06
0.00031768
3.05336e-06
0.000316097
3.16464e-06
0.00031446
3.27355e-06
0.000312769
3.38008e-06
0.000311027
3.48421e-06
0.000309233
3.58593e-06
0.00030739
3.68522e-06
0.000305498
3.78208e-06
0.000303559
3.87651e-06
0.000301575
3.96851e-06
0.000299545
4.05808e-06
0.000297472
4.14523e-06
0.000295356
4.22996e-06
0.000293199
4.3123e-06
0.000291003
4.39225e-06
0.000288767
4.46983e-06
0.000286494
4.54506e-06
0.000284185
4.61797e-06
0.00028184
4.68857e-06
0.000279461
4.7569e-06
0.000277049
4.82297e-06
0.000274605
4.88683e-06
0.00027213
4.9485e-06
0.000269625
5.00801e-06
0.000267092
5.0654e-06
0.000264531
5.1207e-06
0.000261944
5.17395e-06
0.000259331
5.22518e-06
0.000256693
5.27444e-06
0.000254032
5.32177e-06
0.000251348
5.36719e-06
0.000248642
5.41076e-06
0.000245915
5.45251e-06
0.000243168
5.49249e-06
0.000240403
5.53073e-06
0.000237619
5.56728e-06
0.000234817
5.60219e-06
0.000231999
5.63549e-06
0.000229165
5.66722e-06
0.000226316
5.69743e-06
0.000223452
5.72616e-06
0.000220575
5.75346e-06
0.000217685
5.77936e-06
0.000214783
5.8039e-06
0.000211869
5.82714e-06
0.000208944
5.8491e-06
0.000206009
5.86983e-06
0.000203064
5.88938e-06
0.00020011
5.90777e-06
0.000197147
5.92506e-06
0.000194176
5.94128e-06
0.000191198
5.95646e-06
0.000188212
5.97065e-06
0.00018522
5.98388e-06
0.000182222
5.9962e-06
0.000179218
6.00763e-06
0.000176208
6.01821e-06
0.000173194
6.02798e-06
0.000170176
6.03697e-06
0.000167153
6.04522e-06
0.000164126
6.05275e-06
0.000161096
6.05961e-06
0.000158063
6.06582e-06
0.000155027
6.07141e-06
0.000151989
6.07641e-06
0.000148948
6.08086e-06
0.000145906
6.08478e-06
0.000142862
6.0882e-06
0.000139816
6.09115e-06
0.000136769
6.09365e-06
0.000133721
6.09573e-06
0.000130672
6.09742e-06
0.000127623
6.09874e-06
0.000124573
6.09971e-06
0.000121523
6.10036e-06
0.000118472
6.10072e-06
0.000115422
6.10079e-06
0.000112371
6.10061e-06
0.000109321
6.10019e-06
0.000106271
6.09956e-06
0.000103222
6.09873e-06
0.000100173
6.09773e-06
9.71248e-05
6.09657e-06
9.40771e-05
6.09526e-06
9.10302e-05
6.09383e-06
8.7984e-05
6.09229e-06
8.49387e-05
6.09066e-06
8.18942e-05
6.08895e-06
7.88506e-05
6.08718e-06
7.58079e-05
6.08536e-06
7.27661e-05
6.0835e-06
6.97253e-05
6.08162e-06
6.66854e-05
6.07973e-06
6.36465e-05
6.07784e-06
6.06086e-05
6.07596e-06
5.75715e-05
6.0741e-06
5.45354e-05
6.07228e-06
5.15002e-05
6.07049e-06
4.84658e-05
6.06876e-06
4.54323e-05
6.06709e-06
4.23995e-05
6.06548e-06
3.93676e-05
6.06395e-06
3.63364e-05
6.0625e-06
3.33058e-05
6.06113e-06
3.02759e-05
6.05986e-06
2.72466e-05
6.05869e-06
2.42178e-05
6.05762e-06
2.11895e-05
6.05666e-06
1.81616e-05
6.05581e-06
1.51341e-05
6.05508e-06
1.21069e-05
6.05446e-06
9.07998e-06
6.05396e-06
6.05322e-06
6.05359e-06
3.02658e-06
6.05334e-06
6.05322e-06
3.70708e-06
-1.11215e-05
7.41422e-06
-1.11217e-05
1.11215e-05
-1.11221e-05
1.4829e-05
-1.11227e-05
1.85367e-05
-1.11235e-05
2.22447e-05
-1.11244e-05
2.59532e-05
-1.11255e-05
2.9662e-05
-1.11267e-05
3.33713e-05
-1.11281e-05
3.70811e-05
-1.11296e-05
4.07915e-05
-1.11311e-05
4.45024e-05
-1.11328e-05
4.82138e-05
-1.11344e-05
5.19259e-05
-1.11361e-05
5.56385e-05
-1.11377e-05
5.93517e-05
-1.11393e-05
6.30653e-05
-1.11408e-05
6.67795e-05
-1.11422e-05
7.04941e-05
-1.11434e-05
7.4209e-05
-1.11443e-05
7.79242e-05
-1.1145e-05
8.16395e-05
-1.11454e-05
8.53549e-05
-1.11455e-05
8.90702e-05
-1.11451e-05
9.27852e-05
-1.11442e-05
9.64998e-05
-1.11428e-05
0.000100214
-1.11408e-05
0.000103927
-1.11382e-05
0.000107639
-1.11349e-05
0.00011135
-1.11307e-05
0.000115059
-1.11257e-05
0.000118766
-1.11198e-05
0.000122471
-1.11129e-05
0.000126173
-1.11049e-05
0.000129872
-1.10958e-05
0.000133568
-1.10854e-05
0.00013726
-1.10737e-05
0.000140948
-1.10607e-05
0.000144631
-1.10461e-05
0.000148309
-1.103e-05
0.00015198
-1.10122e-05
0.000155645
-1.09927e-05
0.000159304
-1.09713e-05
0.000162954
-1.09481e-05
0.000166596
-1.09228e-05
0.000170229
-1.08954e-05
0.000173852
-1.08658e-05
0.000177465
-1.08339e-05
0.000181066
-1.07996e-05
0.000184655
-1.07629e-05
0.000188231
-1.07235e-05
0.000191793
-1.06815e-05
0.000195341
-1.06368e-05
0.000198872
-1.05891e-05
0.000202387
-1.05386e-05
0.000205883
-1.04849e-05
0.000209361
-1.04282e-05
0.000212819
-1.03682e-05
0.000216256
-1.0305e-05
0.000219671
-1.02383e-05
0.000223062
-1.01682e-05
0.000226429
-1.00946e-05
0.00022977
-1.00173e-05
0.000233084
-9.93636e-06
0.00023637
-9.85165e-06
0.000239627
-9.76312e-06
0.000242852
-9.67072e-06
0.000246046
-9.57437e-06
0.000249206
-9.47405e-06
0.000252332
-9.36969e-06
0.000255421
-9.26126e-06
0.000258473
-9.14872e-06
0.000261486
-9.03204e-06
0.000264459
-8.9112e-06
0.00026739
-8.78619e-06
0.000270278
-8.65698e-06
0.000273121
-8.52357e-06
0.000275919
-8.38598e-06
0.000278669
-8.24419e-06
0.000281371
-8.09824e-06
0.000284023
-7.94814e-06
0.000286623
-7.79392e-06
0.00028917
-7.63563e-06
0.000291664
-7.47329e-06
0.000294102
-7.30698e-06
0.000296483
-7.13674e-06
0.000298806
-6.96264e-06
0.000301069
-6.78476e-06
0.000303272
-6.60317e-06
0.000305414
-6.41797e-06
0.000307492
-6.22925e-06
0.000309506
-6.03712e-06
0.000311455
-5.84168e-06
0.000313338
-5.64305e-06
0.000315153
-5.44134e-06
0.0003169
-5.2367e-06
0.000318578
-5.02925e-06
0.000320186
-4.81914e-06
0.000321723
-4.6065e-06
0.000323188
-4.39149e-06
0.00032458
-4.17426e-06
0.0003259
-3.95498e-06
0.000327145
-3.7338e-06
0.000328317
-3.51089e-06
0.000329413
-3.28643e-06
0.000330434
-3.06057e-06
0.000331379
-2.83351e-06
0.000332248
-2.60541e-06
0.00033304
-2.37645e-06
0.000333756
-2.14681e-06
0.000334395
-1.91667e-06
0.000334957
-1.68622e-06
0.000335443
-1.45562e-06
0.000335851
-1.22506e-06
0.000336182
-9.9472e-07
0.000336437
-7.6477e-07
0.000336615
-5.35386e-07
0.000336717
-3.0674e-07
0.000336742
-7.90012e-08
0.000336692
1.47664e-07
0.000336567
3.73093e-07
0.000336367
5.97126e-07
0.000336093
8.1961e-07
0.000335745
1.04039e-06
0.000335324
1.25933e-06
0.000334831
1.47627e-06
0.000334266
1.69109e-06
0.00033363
1.90366e-06
0.000332924
2.11384e-06
0.000332149
2.32152e-06
0.000331305
2.52659e-06
0.000330394
2.72893e-06
0.000329416
2.92844e-06
0.000328373
3.12503e-06
0.000327265
3.31861e-06
0.000326094
3.50908e-06
0.00032486
3.69639e-06
0.000323564
3.88044e-06
0.000322209
4.06118e-06
0.000320794
4.23855e-06
0.000319321
4.41249e-06
0.000317792
4.58296e-06
0.000316206
4.74991e-06
0.000314567
4.91331e-06
0.000312874
5.07313e-06
0.000311129
5.22934e-06
0.000309333
5.38192e-06
0.000307487
5.53087e-06
0.000305593
5.67616e-06
0.000303652
5.81781e-06
0.000301664
5.9558e-06
0.000299632
6.09015e-06
0.000297557
6.22085e-06
0.000295439
6.34794e-06
0.000293279
6.47143e-06
0.00029108
6.59133e-06
0.000288842
6.70768e-06
0.000286567
6.8205e-06
0.000284255
6.92983e-06
0.000281908
7.0357e-06
0.000279527
7.13816e-06
0.000277113
7.23724e-06
0.000274666
7.33298e-06
0.000272189
7.42544e-06
0.000269683
7.51467e-06
0.000267147
7.60071e-06
0.000264585
7.68361e-06
0.000261995
7.76344e-06
0.00025938
7.84025e-06
0.00025674
7.91409e-06
0.000254077
7.98502e-06
0.000251391
8.05311e-06
0.000248684
8.11841e-06
0.000245955
8.18098e-06
0.000243207
8.2409e-06
0.000240439
8.29821e-06
0.000237653
8.35299e-06
0.00023485
8.40529e-06
0.000232031
8.45518e-06
0.000229195
8.50273e-06
0.000226345
8.548e-06
0.00022348
8.59104e-06
0.000220601
8.63193e-06
0.00021771
8.67073e-06
0.000214806
8.70749e-06
0.000211891
8.74229e-06
0.000208965
8.77519e-06
0.000206029
8.80624e-06
0.000203083
8.83551e-06
0.000200127
8.86305e-06
0.000197163
8.88893e-06
0.000194191
8.9132e-06
0.000191212
8.93593e-06
0.000188225
8.95717e-06
0.000185232
8.97697e-06
0.000182233
8.9954e-06
0.000179228
9.0125e-06
0.000176218
9.02833e-06
0.000173203
9.04294e-06
0.000170184
9.05639e-06
0.00016716
9.06872e-06
0.000164133
9.07998e-06
0.000161102
9.09022e-06
0.000158069
9.09949e-06
0.000155032
9.10784e-06
0.000151993
9.11531e-06
0.000148952
9.12195e-06
0.000145909
9.12779e-06
0.000142865
9.13289e-06
0.000139818
9.13728e-06
0.000136771
9.141e-06
0.000133723
9.14409e-06
0.000130674
9.14659e-06
0.000127624
9.14854e-06
0.000124574
9.14997e-06
0.000121523
9.15092e-06
0.000118472
9.15142e-06
0.000115422
9.15151e-06
0.000112371
9.15121e-06
0.000109321
9.15056e-06
0.000106271
9.14959e-06
0.000103221
9.14832e-06
0.000100172
9.14679e-06
9.71235e-05
9.14503e-06
9.40757e-05
9.14305e-06
9.10286e-05
9.14088e-06
8.79824e-05
9.13855e-06
8.4937e-05
9.13609e-06
8.18924e-05
9.13351e-06
7.88487e-05
9.13083e-06
7.5806e-05
9.12808e-06
7.27642e-05
9.12528e-06
6.97234e-05
9.12244e-06
6.66836e-05
9.11959e-06
6.36447e-05
9.11674e-06
6.06067e-05
9.11391e-06
5.75697e-05
9.11111e-06
5.45336e-05
9.10836e-06
5.14984e-05
9.10568e-06
4.84641e-05
9.10307e-06
4.54307e-05
9.10055e-06
4.2398e-05
9.09813e-06
3.93661e-05
9.09582e-06
3.6335e-05
9.09363e-06
3.33046e-05
9.09158e-06
3.02747e-05
9.08967e-06
2.72455e-05
9.0879e-06
2.42169e-05
9.08629e-06
2.11887e-05
9.08485e-06
1.81609e-05
9.08357e-06
1.51335e-05
9.08247e-06
1.21064e-05
9.08154e-06
9.07961e-06
9.08079e-06
6.05297e-06
9.08023e-06
3.02645e-06
9.07986e-06
9.07967e-06
3.70688e-06
-1.48284e-05
7.41383e-06
-1.48287e-05
1.11209e-05
-1.48292e-05
1.48282e-05
-1.483e-05
1.85358e-05
-1.4831e-05
2.22436e-05
-1.48323e-05
2.59519e-05
-1.48338e-05
2.96606e-05
-1.48354e-05
3.33698e-05
-1.48373e-05
3.70796e-05
-1.48393e-05
4.07898e-05
-1.48414e-05
4.45007e-05
-1.48436e-05
4.82122e-05
-1.48459e-05
5.19242e-05
-1.48482e-05
5.56369e-05
-1.48504e-05
5.93502e-05
-1.48526e-05
6.3064e-05
-1.48546e-05
6.67783e-05
-1.48565e-05
7.04931e-05
-1.48582e-05
7.42083e-05
-1.48595e-05
7.79238e-05
-1.48605e-05
8.16395e-05
-1.48611e-05
8.53553e-05
-1.48613e-05
8.90711e-05
-1.48608e-05
9.27866e-05
-1.48598e-05
9.65018e-05
-1.4858e-05
0.000100216
-1.48555e-05
0.00010393
-1.48521e-05
0.000107643
-1.48477e-05
0.000111355
-1.48423e-05
0.000115065
-1.48358e-05
0.000118773
-1.4828e-05
0.000122479
-1.48189e-05
0.000126182
-1.48084e-05
0.000129883
-1.47963e-05
0.00013358
-1.47826e-05
0.000137273
-1.47671e-05
0.000140963
-1.47498e-05
0.000144647
-1.47306e-05
0.000148326
-1.47092e-05
0.000152
-1.46857e-05
0.000155667
-1.46598e-05
0.000159327
-1.46315e-05
0.000162979
-1.46006e-05
0.000166624
-1.4567e-05
0.000170259
-1.45306e-05
0.000173884
-1.44913e-05
0.000177499
-1.44489e-05
0.000181103
-1.44034e-05
0.000184695
-1.43545e-05
0.000188273
-1.43022e-05
0.000191838
-1.42463e-05
0.000195388
-1.41868e-05
0.000198923
-1.41234e-05
0.00020244
-1.40561e-05
0.00020594
-1.39848e-05
0.000209421
-1.39093e-05
0.000212882
-1.38294e-05
0.000216323
-1.37452e-05
0.000219741
-1.36565e-05
0.000223136
-1.35631e-05
0.000226506
-1.34651e-05
0.000229851
-1.33621e-05
0.000233169
-1.32543e-05
0.000236459
-1.31415e-05
0.000239719
-1.30235e-05
0.000242949
-1.29004e-05
0.000246146
-1.2772e-05
0.000249311
-1.26383e-05
0.00025244
-1.24993e-05
0.000255534
-1.23547e-05
0.00025859
-1.22047e-05
0.000261607
-1.20492e-05
0.000264584
-1.18881e-05
0.000267519
-1.17214e-05
0.000270411
-1.15492e-05
0.000273259
-1.13713e-05
0.000276061
-1.11878e-05
0.000278815
-1.09987e-05
0.000281521
-1.08041e-05
0.000284177
-1.06039e-05
0.000286781
-1.03982e-05
0.000289333
-1.01871e-05
0.00029183
-9.97059e-06
0.000294272
-9.74874e-06
0.000296657
-9.52165e-06
0.000298984
-9.2894e-06
0.000301251
-9.0521e-06
0.000303458
-8.80985e-06
0.000305602
-8.56277e-06
0.000307684
-8.31098e-06
0.000309702
-8.05463e-06
0.000311654
-7.79387e-06
0.00031354
-7.52883e-06
0.000315358
-7.2597e-06
0.000317108
-6.98663e-06
0.000318788
-6.70982e-06
0.000320399
-6.42944e-06
0.000321938
-6.14569e-06
0.000323405
-5.85877e-06
0.0003248
-5.56888e-06
0.000326121
-5.27625e-06
0.000327368
-4.98109e-06
0.000328541
-4.68362e-06
0.000329639
-4.38406e-06
0.000330661
-4.08265e-06
0.000331607
-3.77962e-06
0.000332477
-3.47521e-06
0.00033327
-3.16965e-06
0.000333986
-2.86319e-06
0.000334626
-2.55606e-06
0.000335188
-2.24851e-06
0.000335673
-1.94077e-06
0.000336081
-1.63308e-06
0.000336412
-1.32568e-06
0.000336666
-1.01881e-06
0.000336843
-7.12701e-07
0.000336944
-4.07577e-07
0.000336969
-1.03667e-07
0.000336918
1.98806e-07
0.000336791
4.99626e-07
0.00033659
7.98578e-07
0.000336314
1.09546e-06
0.000335964
1.39006e-06
0.000335541
1.68219e-06
0.000335046
1.97167e-06
0.000334479
2.2583e-06
0.000333841
2.54191e-06
0.000333132
2.82234e-06
0.000332354
3.09943e-06
0.000331508
3.37302e-06
0.000330594
3.64296e-06
0.000329613
3.90913e-06
0.000328567
4.17139e-06
0.000327456
4.42962e-06
0.000326281
4.68372e-06
0.000325044
4.93357e-06
0.000323745
5.17907e-06
0.000322386
5.42015e-06
0.000320968
5.65673e-06
0.000319492
5.88873e-06
0.000317959
6.11608e-06
0.00031637
6.33874e-06
0.000314727
6.55665e-06
0.00031303
6.76978e-06
0.000311281
6.97809e-06
0.000309482
7.18156e-06
0.000307632
7.38017e-06
0.000305735
7.5739e-06
0.00030379
7.76276e-06
0.000301799
7.94674e-06
0.000299763
8.12585e-06
0.000297684
8.30011e-06
0.000295562
8.46953e-06
0.000293399
8.63414e-06
0.000291197
8.79397e-06
0.000288955
8.94905e-06
0.000286676
9.09943e-06
0.000284361
9.24515e-06
0.000282011
9.38625e-06
0.000279626
9.52279e-06
0.000277208
9.65483e-06
0.000274759
9.78242e-06
0.000272279
9.90562e-06
0.000269769
1.00245e-05
0.00026723
1.01391e-05
0.000264664
1.02496e-05
0.000262072
1.0356e-05
0.000259454
1.04583e-05
0.000256811
1.05566e-05
0.000254145
1.06511e-05
0.000251457
1.07418e-05
0.000248746
1.08288e-05
0.000246015
1.09121e-05
0.000243264
1.09919e-05
0.000240494
1.10682e-05
0.000237706
1.11412e-05
0.0002349
1.12108e-05
0.000232078
1.12772e-05
0.00022924
1.13405e-05
0.000226388
1.14008e-05
0.000223521
1.14581e-05
0.00022064
1.15125e-05
0.000217747
1.15641e-05
0.000214841
1.16131e-05
0.000211924
1.16594e-05
0.000208996
1.17031e-05
0.000206058
1.17444e-05
0.00020311
1.17834e-05
0.000200153
1.182e-05
0.000197188
1.18544e-05
0.000194214
1.18867e-05
0.000191233
1.19169e-05
0.000188245
1.19451e-05
0.000185251
1.19714e-05
0.00018225
1.19959e-05
0.000179244
1.20186e-05
0.000176233
1.20397e-05
0.000173217
1.20591e-05
0.000170196
1.20769e-05
0.000167172
1.20933e-05
0.000164143
1.21082e-05
0.000161112
1.21218e-05
0.000158077
1.21341e-05
0.00015504
1.21452e-05
0.000152
1.21551e-05
0.000148958
1.21638e-05
0.000145914
1.21716e-05
0.000142869
1.21783e-05
0.000139822
1.21841e-05
0.000136774
1.2189e-05
0.000133725
1.2193e-05
0.000130676
1.21963e-05
0.000127625
1.21989e-05
0.000124575
1.22007e-05
0.000121524
1.22019e-05
0.000118472
1.22025e-05
0.000115421
1.22026e-05
0.00011237
1.22022e-05
0.00010932
1.22012e-05
0.000106269
1.21999e-05
0.000103219
1.21982e-05
0.00010017
1.21961e-05
9.71215e-05
1.21937e-05
9.40735e-05
1.2191e-05
9.10263e-05
1.21881e-05
8.79799e-05
1.2185e-05
8.49344e-05
1.21816e-05
8.18897e-05
1.21782e-05
7.8846e-05
1.21746e-05
7.58032e-05
1.21709e-05
7.27614e-05
1.21671e-05
6.97206e-05
1.21633e-05
6.66807e-05
1.21595e-05
6.36418e-05
1.21556e-05
6.06039e-05
1.21518e-05
5.7567e-05
1.21481e-05
5.45309e-05
1.21444e-05
5.14958e-05
1.21408e-05
4.84616e-05
1.21373e-05
4.54282e-05
1.21339e-05
4.23957e-05
1.21307e-05
3.9364e-05
1.21276e-05
3.6333e-05
1.21246e-05
3.33026e-05
1.21219e-05
3.0273e-05
1.21193e-05
2.72439e-05
1.2117e-05
2.42154e-05
1.21148e-05
2.11874e-05
1.21129e-05
1.81598e-05
1.21112e-05
1.51326e-05
1.21097e-05
1.21057e-05
1.21084e-05
9.07905e-06
1.21074e-05
6.05259e-06
1.21067e-05
3.02626e-06
1.21062e-05
1.21059e-05
3.70661e-06
-1.8535e-05
7.4133e-06
-1.85354e-05
1.11201e-05
-1.8536e-05
1.48272e-05
-1.8537e-05
1.85345e-05
-1.85384e-05
2.22422e-05
-1.854e-05
2.59502e-05
-1.85418e-05
2.96588e-05
-1.8544e-05
3.33678e-05
-1.85463e-05
3.70774e-05
-1.85489e-05
4.07876e-05
-1.85516e-05
4.44984e-05
-1.85544e-05
4.82099e-05
-1.85573e-05
5.1922e-05
-1.85603e-05
5.56347e-05
-1.85632e-05
5.93481e-05
-1.8566e-05
6.30621e-05
-1.85686e-05
6.67767e-05
-1.85711e-05
7.04917e-05
-1.85732e-05
7.42073e-05
-1.85751e-05
7.79232e-05
-1.85765e-05
8.16394e-05
-1.85773e-05
8.53557e-05
-1.85776e-05
8.90721e-05
-1.85772e-05
9.27884e-05
-1.8576e-05
9.65044e-05
-1.8574e-05
0.00010022
-1.8571e-05
0.000103935
-1.85669e-05
0.000107649
-1.85616e-05
0.000111361
-1.8555e-05
0.000115073
-1.8547e-05
0.000118782
-1.85375e-05
0.000122489
-1.85263e-05
0.000126194
-1.85133e-05
0.000129897
-1.84984e-05
0.000133595
-1.84815e-05
0.000137291
-1.84624e-05
0.000140982
-1.8441e-05
0.000144668
-1.84171e-05
0.00014835
-1.83907e-05
0.000152026
-1.83614e-05
0.000155695
-1.83293e-05
0.000159358
-1.82941e-05
0.000163013
-1.82558e-05
0.00016666
-1.8214e-05
0.000170298
-1.81688e-05
0.000173927
-1.81199e-05
0.000177545
-1.80672e-05
0.000181152
-1.80104e-05
0.000184747
-1.79496e-05
0.000188329
-1.78845e-05
0.000191898
-1.78148e-05
0.000195452
-1.77406e-05
0.00019899
-1.76617e-05
0.000202512
-1.75778e-05
0.000206016
-1.74888e-05
0.000209501
-1.73946e-05
0.000212967
-1.72951e-05
0.000216411
-1.719e-05
0.000219834
-1.70793e-05
0.000223234
-1.69628e-05
0.000226609
-1.68404e-05
0.000229959
-1.67119e-05
0.000233282
-1.65773e-05
0.000236577
-1.64364e-05
0.000239842
-1.62891e-05
0.000243077
-1.61354e-05
0.00024628
-1.5975e-05
0.00024945
-1.5808e-05
0.000252585
-1.56343e-05
0.000255684
-1.54537e-05
0.000258745
-1.52663e-05
0.000261768
-1.50719e-05
0.000264751
-1.48706e-05
0.000267691
-1.46623e-05
0.000270589
-1.4447e-05
0.000273443
-1.42246e-05
0.00027625
-1.39952e-05
0.00027901
-1.37589e-05
0.000281721
-1.35155e-05
0.000284383
-1.32652e-05
0.000286993
-1.3008e-05
0.000289549
-1.2744e-05
0.000292052
-1.24732e-05
0.000294499
-1.21957e-05
0.000296889
-1.19117e-05
0.000299221
-1.16212e-05
0.000301493
-1.13244e-05
0.000303705
-1.10214e-05
0.000305854
-1.07123e-05
0.000307941
-1.03973e-05
0.000309962
-1.00766e-05
0.000311919
-9.75032e-06
0.000313809
-9.41872e-06
0.000315631
-9.08198e-06
0.000317385
-8.74031e-06
0.000319069
-8.39394e-06
0.000320683
-8.0431e-06
0.000322225
-7.68804e-06
0.000323695
-7.32901e-06
0.000325093
-6.96626e-06
0.000326416
-6.60006e-06
0.000327666
-6.23069e-06
0.000328841
-5.85842e-06
0.00032994
-5.48354e-06
0.000330964
-5.10635e-06
0.000331911
-4.72712e-06
0.000332782
-4.34616e-06
0.000333576
-3.96377e-06
0.000334294
-3.58024e-06
0.000334933
-3.19588e-06
0.000335496
-2.81099e-06
0.000335981
-2.42586e-06
0.000336389
-2.04081e-06
0.000336719
-1.65612e-06
0.000336972
-1.2721e-06
0.000337149
-8.89028e-07
0.000337248
-5.072e-07
0.000337272
-1.26896e-07
0.000337219
2.51603e-07
0.00033709
6.28025e-07
0.000336887
1.0021e-06
0.000336609
1.37358e-06
0.000336257
1.7422e-06
0.000335831
2.10772e-06
0.000335333
2.4699e-06
0.000334763
2.82852e-06
0.000334121
3.18335e-06
0.000333409
3.53419e-06
0.000332628
3.88083e-06
0.000331778
4.22309e-06
0.00033086
4.56078e-06
0.000329875
4.89373e-06
0.000328825
5.22178e-06
0.00032771
5.54478e-06
0.000326531
5.86259e-06
0.000325289
6.17508e-06
0.000323986
6.48213e-06
0.000322623
6.78363e-06
0.0003212
7.07949e-06
0.000319719
7.3696e-06
0.000318181
7.6539e-06
0.000316588
7.93231e-06
0.00031494
8.20478e-06
0.000313238
8.47125e-06
0.000311485
8.73168e-06
0.00030968
8.98605e-06
0.000307826
9.23433e-06
0.000305923
9.47651e-06
0.000303974
9.71258e-06
0.000301978
9.94254e-06
0.000299937
1.01664e-05
0.000297853
1.03842e-05
0.000295727
1.05959e-05
0.000293559
1.08016e-05
0.000291352
1.10014e-05
0.000289106
1.11951e-05
0.000286822
1.1383e-05
0.000284502
1.15651e-05
0.000282147
1.17414e-05
0.000279758
1.19119e-05
0.000277336
1.20769e-05
0.000274882
1.22362e-05
0.000272398
1.23901e-05
0.000269884
1.25386e-05
0.000267341
1.26818e-05
0.000264771
1.28197e-05
0.000262174
1.29525e-05
0.000259552
1.30803e-05
0.000256906
1.32031e-05
0.000254236
1.3321e-05
0.000251544
1.34342e-05
0.00024883
1.35428e-05
0.000246095
1.36468e-05
0.00024334
1.37464e-05
0.000240567
1.38416e-05
0.000237776
1.39326e-05