/*--------------------------------*- C++ -*----------------------------------*\
| =========                 |                                                 |
| \\      /  F ield         | OpenFOAM: The Open Source CFD Toolbox           |
|  \\    /   O peration     | Version:  v2012                                 |
|   \\  /    A nd           | Website:  www.openfoam.com                      |
|    \\/     M anipulation  |                                                 |
\*---------------------------------------------------------------------------*/
FoamFile
{
    version     2.0;
    format      ascii;
    class       volScalarField;
    location    "9.5";
    object      W;
}
// * * * * * * * * * * * * * * * * * * * * * * * * * * * * * * * * * * * * * //

dimensions      [0 0 -1 0 0 0 0];


internalField   nonuniform List<scalar> 
65536
(
1.46313e-17
1.49506e-17
1.58169e-17
1.72498e-17
1.92859e-17
2.19794e-17
2.54031e-17
2.96502e-17
3.48362e-17
4.11017e-17
4.86153e-17
5.75778e-17
6.82261e-17
8.08385e-17
9.5741e-17
1.13313e-16
1.33998e-16
1.58306e-16
1.86833e-16
2.20263e-16
2.59388e-16
3.0512e-16
3.58504e-16
4.20743e-16
4.93216e-16
5.77499e-16
6.75393e-16
7.88953e-16
9.2052e-16
1.07276e-15
1.24869e-15
1.45174e-15
1.6858e-15
1.95525e-15
2.26505e-15
2.62076e-15
3.02868e-15
3.49584e-15
4.03015e-15
4.64047e-15
5.33668e-15
6.12981e-15
7.03216e-15
8.05739e-15
9.22066e-15
1.05388e-14
1.20304e-14
1.37159e-14
1.56181e-14
1.77617e-14
2.01742e-14
2.28854e-14
2.59281e-14
2.93382e-14
3.31546e-14
3.74196e-14
4.21794e-14
4.74837e-14
5.33864e-14
5.99457e-14
6.72239e-14
7.52884e-14
8.42109e-14
9.40685e-14
1.04943e-13
1.16922e-13
1.30097e-13
1.44568e-13
1.60436e-13
1.77812e-13
1.96809e-13
2.17548e-13
2.40152e-13
2.64752e-13
2.91482e-13
3.20482e-13
3.51895e-13
3.85868e-13
4.22549e-13
4.62092e-13
5.0465e-13
5.50379e-13
5.99433e-13
6.51965e-13
7.08128e-13
7.6807e-13
8.31934e-13
8.99857e-13
9.71971e-13
1.0484e-12
1.12924e-12
1.2146e-12
1.30456e-12
1.39919e-12
1.49853e-12
1.60262e-12
1.71144e-12
1.82499e-12
1.94321e-12
2.06604e-12
2.19335e-12
2.32501e-12
2.46084e-12
2.60063e-12
2.74413e-12
2.89104e-12
3.04103e-12
3.19372e-12
3.34869e-12
3.50549e-12
3.66359e-12
3.82247e-12
3.98151e-12
4.14009e-12
4.29753e-12
4.45313e-12
4.60613e-12
4.75577e-12
4.90125e-12
5.04173e-12
5.17639e-12
5.30437e-12
5.42482e-12
5.53689e-12
5.63974e-12
5.73256e-12
5.81456e-12
5.88498e-12
5.94313e-12
5.98835e-12
6.02006e-12
6.03776e-12
6.04103e-12
6.02953e-12
6.00304e-12
5.96143e-12
5.9047e-12
5.83296e-12
5.74644e-12
5.6455e-12
5.53063e-12
5.40242e-12
5.26162e-12
5.10906e-12
4.9457e-12
4.7726e-12
4.5909e-12
4.40183e-12
4.2067e-12
4.00684e-12
3.80364e-12
3.59851e-12
3.39286e-12
3.18809e-12
2.98558e-12
2.78666e-12
2.59259e-12
2.40458e-12
2.22374e-12
2.05111e-12
1.88759e-12
1.73399e-12
1.59101e-12
1.45921e-12
1.33906e-12
1.23086e-12
1.13483e-12
1.05106e-12
9.79512e-13
9.20042e-13
8.72399e-13
8.36225e-13
8.11063e-13
7.9636e-13
7.91474e-13
7.95675e-13
8.08155e-13
8.28031e-13
8.54352e-13
8.86107e-13
9.22235e-13
9.61632e-13
1.00317e-12
1.04569e-12
1.08806e-12
1.12914e-12
1.16784e-12
1.20312e-12
1.23402e-12
1.25965e-12
1.27927e-12
1.29224e-12
1.29808e-12
1.29644e-12
1.28717e-12
1.27026e-12
1.24586e-12
1.21429e-12
1.17602e-12
1.13163e-12
1.08184e-12
1.02744e-12
9.69302e-13
9.08321e-13
8.45422e-13
7.81513e-13
7.17471e-13
6.54117e-13
5.92198e-13
5.32378e-13
4.75218e-13
4.21179e-13
3.70614e-13
3.23774e-13
2.80808e-13
2.41772e-13
2.0664e-13
1.75317e-13
1.47643e-13
1.23416e-13
1.02395e-13
8.43199e-14
6.89137e-14
5.58977e-14
4.49968e-14
3.59465e-14
2.84976e-14
2.24193e-14
1.75021e-14
1.35581e-14
1.04217e-14
7.94875e-15
6.01546e-15
4.51688e-15
3.36511e-15
2.48737e-15
1.82411e-15
1.32717e-15
9.57972e-16
6.85999e-16
4.87337e-16
3.43449e-16
2.40111e-16
1.66523e-16
1.14561e-16
7.81807e-17
5.29252e-17
3.55424e-17
2.3682e-17
1.56625e-17
1.02938e-17
6.74286e-18
4.43536e-18
2.98321e-18
2.13372e-18
1.73489e-18
2.15136e-17
2.19818e-17
2.32537e-17
2.53579e-17
2.8348e-17
3.23034e-17
3.73308e-17
4.35669e-17
5.11809e-17
6.03788e-17
7.14079e-17
8.4562e-17
1.00188e-16
1.18694e-16
1.40557e-16
1.66333e-16
1.96667e-16
2.3231e-16
2.7413e-16
3.23128e-16
3.8046e-16
4.47456e-16
5.25644e-16
6.16777e-16
7.22864e-16
8.46201e-16
9.89411e-16
1.15548e-15
1.34782e-15
1.57029e-15
1.82728e-15
2.12377e-15
2.46537e-15
2.85844e-15
3.31014e-15
3.82851e-15
4.42263e-15
5.10265e-15
5.87993e-15
6.7672e-15
7.77864e-15
8.93007e-15
1.02391e-14
1.17251e-14
1.34099e-14
1.53173e-14
1.74738e-14
1.99083e-14
2.2653e-14
2.57429e-14
2.92165e-14
3.31158e-14
3.74869e-14
4.23795e-14
4.78481e-14
5.39515e-14
6.07534e-14
6.83225e-14
7.67329e-14
8.60643e-14
9.64019e-14
1.07837e-13
1.20467e-13
1.34396e-13
1.49733e-13
1.66595e-13
1.85105e-13
2.05392e-13
2.27594e-13
2.5185e-13
2.78311e-13
3.0713e-13
3.38468e-13
3.72489e-13
4.09363e-13
4.49265e-13
4.92372e-13
5.38864e-13
5.88924e-13
6.42734e-13
7.00477e-13
7.62334e-13
8.28485e-13
8.99104e-13
9.74359e-13
1.05441e-12
1.13942e-12
1.22951e-12
1.32483e-12
1.42549e-12
1.53157e-12
1.64316e-12
1.76032e-12
1.88308e-12
2.01144e-12
2.14537e-12
2.28484e-12
2.42975e-12
2.57997e-12
2.73536e-12
2.8957e-12
3.06077e-12
3.23027e-12
3.40388e-12
3.58123e-12
3.76188e-12
3.94538e-12
4.13119e-12
4.31876e-12
4.50747e-12
4.69666e-12
4.88561e-12
5.07358e-12
5.25977e-12
5.44335e-12
5.62345e-12
5.79916e-12
5.96957e-12
6.13372e-12
6.29066e-12
6.43942e-12
6.57903e-12
6.70853e-12
6.82698e-12
6.93346e-12
7.02708e-12
7.10701e-12
7.17247e-12
7.22273e-12
7.25716e-12
7.2752e-12
7.27639e-12
7.26037e-12
7.22689e-12
7.17583e-12
7.1072e-12
7.02112e-12
6.91787e-12
6.79785e-12
6.66161e-12
6.50984e-12
6.34336e-12
6.16311e-12
5.97019e-12
5.76576e-12
5.55114e-12
5.32769e-12
5.09689e-12
4.86026e-12
4.61936e-12
4.37581e-12
4.13119e-12
3.88712e-12
3.64516e-12
3.40684e-12
3.17364e-12
2.94694e-12
2.72805e-12
2.51816e-12
2.31835e-12
2.1296e-12
1.95272e-12
1.78843e-12
1.63727e-12
1.49968e-12
1.37594e-12
1.2662e-12
1.17048e-12
1.08869e-12
1.02058e-12
9.65826e-13
9.23958e-13
8.94421e-13
8.76551e-13
8.69596e-13
8.72713e-13
8.84976e-13
9.05385e-13
9.32873e-13
9.66312e-13
1.00452e-12
1.04629e-12
1.09037e-12
1.13551e-12
1.18046e-12
1.22399e-12
1.26492e-12
1.30213e-12
1.33458e-12
1.36135e-12
1.38161e-12
1.3947e-12
1.40011e-12
1.39749e-12
1.38667e-12
1.36766e-12
1.34065e-12
1.30597e-12
1.26415e-12
1.21582e-12
1.16175e-12
1.10281e-12
1.03992e-12
9.74059e-13
9.06213e-13
8.37356e-13
7.68425e-13
7.00295e-13
6.33763e-13
5.69533e-13
5.08202e-13
4.50256e-13
3.96068e-13
3.45899e-13
2.99902e-13
2.58134e-13
2.2056e-13
1.87074e-13
1.57501e-13
1.31622e-13
1.09176e-13
8.98816e-14
7.34419e-14
5.9557e-14
4.7932e-14
3.82833e-14
3.0344e-14
2.38673e-14
1.8629e-14
1.44285e-14
1.10888e-14
8.45615e-15
6.39843e-15
4.80372e-15
3.57828e-15
2.64457e-15
1.93914e-15
1.41068e-15
1.01813e-15
7.2899e-16
5.17821e-16
3.64893e-16
2.55078e-16
1.76885e-16
1.21679e-16
8.30312e-17
5.62042e-17
3.77415e-17
2.51454e-17
1.66292e-17
1.09284e-17
7.15809e-18
4.70819e-18
3.16652e-18
2.2647e-18
1.84137e-18
3.79051e-17
3.87276e-17
4.09648e-17
4.46666e-17
4.99272e-17
5.68857e-17
6.57297e-17
7.66989e-17
9.00905e-17
1.06266e-16
1.25659e-16
1.48786e-16
1.76254e-16
2.0878e-16
2.47198e-16
2.92482e-16
3.45766e-16
4.08361e-16
4.81785e-16
5.67792e-16
6.68402e-16
7.85938e-16
9.23069e-16
1.08285e-15
1.2688e-15
1.4849e-15
1.73573e-15
2.02649e-15
2.3631e-15
2.75227e-15
3.20163e-15
3.71979e-15
4.31649e-15
5.00271e-15
5.79084e-15
6.69476e-15
7.7301e-15
8.91432e-15
1.0267e-14
1.18099e-14
1.35673e-14
1.55664e-14
1.7837e-14
2.04125e-14
2.33295e-14
2.66287e-14
3.03548e-14
3.45567e-14
3.92885e-14
4.46091e-14
5.0583e-14
5.72802e-14
6.47774e-14
7.31572e-14
8.25096e-14
9.29315e-14
1.04527e-13
1.1741e-13
1.31699e-13
1.47524e-13
1.65023e-13
1.84342e-13
2.05636e-13
2.29071e-13
2.54819e-13
2.83064e-13
3.13997e-13
3.47818e-13
3.84738e-13
4.24971e-13
4.68744e-13
5.16287e-13
5.67838e-13
6.2364e-13
6.8394e-13
7.48988e-13
8.19035e-13
8.94335e-13
9.75138e-13
1.06169e-12
1.15424e-12
1.25301e-12
1.35825e-12
1.47015e-12
1.58893e-12
1.71476e-12
1.84781e-12
1.98822e-12
2.13612e-12
2.29158e-12
2.45468e-12
2.62542e-12
2.80381e-12
2.98979e-12
3.18325e-12
3.38407e-12
3.59205e-12
3.80695e-12
4.02848e-12
4.25629e-12
4.48996e-12
4.72904e-12
4.97299e-12
5.22123e-12
5.47312e-12
5.72792e-12
5.98489e-12
6.24317e-12
6.50188e-12
6.76007e-12
7.01674e-12
7.27083e-12
7.52125e-12
7.76684e-12
8.00644e-12
8.23884e-12
8.4628e-12
8.67708e-12
8.88043e-12
9.0716e-12
9.24936e-12
9.41248e-12
9.55978e-12
9.69014e-12
9.80247e-12
9.89576e-12
9.96908e-12
1.00216e-11
1.00526e-11
1.00614e-11
1.00475e-11
1.00107e-11
9.95063e-12
9.86732e-12
9.76085e-12
9.63151e-12
9.47974e-12
9.30617e-12
9.11158e-12
8.89693e-12
8.66336e-12
8.41215e-12
8.14473e-12
7.86268e-12
7.5677e-12
7.26158e-12
6.94623e-12
6.62361e-12
6.29575e-12
5.96468e-12
5.63247e-12
5.30115e-12
4.97273e-12
4.64915e-12
4.33227e-12
4.02386e-12
3.72557e-12
3.43892e-12
3.16528e-12
2.90587e-12
2.66175e-12
2.43378e-12
2.2227e-12
2.02905e-12
1.85318e-12
1.6953e-12
1.55545e-12
1.4335e-12
1.3292e-12
1.24214e-12
1.17176e-12
1.1174e-12
1.07827e-12
1.05348e-12
1.04202e-12
1.04282e-12
1.05468e-12
1.07635e-12
1.1065e-12
1.14376e-12
1.18668e-12
1.2338e-12
1.28363e-12
1.33467e-12
1.38546e-12
1.43455e-12
1.48056e-12
1.52219e-12
1.55823e-12
1.58762e-12
1.60944e-12
1.62292e-12
1.62751e-12
1.62281e-12
1.60866e-12
1.58509e-12
1.55233e-12
1.51082e-12
1.46115e-12
1.4041e-12
1.34055e-12
1.27151e-12
1.19807e-12
1.12134e-12
1.04247e-12
9.62577e-13
8.82727e-13
8.03923e-13
7.27073e-13
6.52974e-13
5.82301e-13
5.15601e-13
4.53288e-13
3.95651e-13
3.42854e-13
2.9495e-13
2.51891e-13
2.13543e-13
1.79702e-13
1.50106e-13
1.24454e-13
1.02416e-13
8.36492e-14
6.78077e-14
5.45515e-14
4.35543e-14
3.45096e-14
2.71345e-14
2.11722e-14
1.63931e-14
1.25949e-14
9.60185e-15
7.26331e-15
5.45157e-15
4.05982e-15
2.99972e-15
2.19903e-15
1.59938e-15
1.15407e-15
8.26158e-16
5.86726e-16
4.13371e-16
2.88914e-16
2.00315e-16
1.37774e-16
9.39996e-17
6.36195e-17
4.2715e-17
2.84552e-17
1.88157e-17
1.23638e-17
8.09737e-18
5.3254e-18
3.58123e-18
2.56104e-18
2.08217e-18
7.04362e-17
7.1961e-17
7.61122e-17
8.2982e-17
9.27444e-17
1.05658e-16
1.22069e-16
1.42423e-16
1.67269e-16
1.97277e-16
2.33251e-16
2.76144e-16
3.27084e-16
3.87392e-16
4.58616e-16
5.42556e-16
6.41305e-16
7.57288e-16
8.93311e-16
1.05261e-15
1.23891e-15
1.45651e-15
1.71031e-15
2.00597e-15
2.34993e-15
2.74955e-15
3.21325e-15
3.75058e-15
4.37241e-15
5.09107e-15
5.92052e-15
6.87657e-15
7.97703e-15
9.24199e-15
1.06941e-14
1.23586e-14
1.4264e-14
1.64421e-14
1.89285e-14
2.17627e-14
2.49888e-14
2.86556e-14
3.28174e-14
3.75341e-14
4.28718e-14
4.89035e-14
5.57091e-14
6.33764e-14
7.20017e-14
8.16899e-14
9.25553e-14
1.04722e-13
1.18326e-13
1.33511e-13
1.50436e-13
1.69271e-13
1.90197e-13
2.13409e-13
2.39116e-13
2.67539e-13
2.98915e-13
3.33493e-13
3.71537e-13
4.13325e-13
4.59147e-13
5.09309e-13
5.64129e-13
6.23937e-13
6.89073e-13
7.59889e-13
8.36746e-13
9.20014e-13
1.01006e-12
1.10728e-12
1.21204e-12
1.32472e-12
1.4457e-12
1.57536e-12
1.71405e-12
1.86214e-12
2.01995e-12
2.1878e-12
2.36599e-12
2.55478e-12
2.75441e-12
2.96508e-12
3.18696e-12
3.42015e-12
3.66474e-12
3.92074e-12
4.1881e-12
4.46672e-12
4.75645e-12
5.05703e-12
5.36817e-12
5.68948e-12
6.02048e-12
6.36064e-12
6.70933e-12
7.06582e-12
7.42931e-12
7.79891e-12
8.17364e-12
8.55244e-12
8.93414e-12
9.31751e-12
9.70124e-12
1.00839e-11
1.04641e-11
1.08403e-11
1.12108e-11
1.1574e-11
1.19282e-11
1.22718e-11
1.26029e-11
1.29198e-11
1.32207e-11
1.35038e-11
1.37674e-11
1.40098e-11
1.42294e-11
1.44245e-11
1.45937e-11
1.47355e-11
1.48486e-11
1.49319e-11
1.49844e-11
1.50051e-11
1.49934e-11
1.49488e-11
1.48709e-11
1.47596e-11
1.46151e-11
1.44377e-11
1.42279e-11
1.39865e-11
1.37146e-11
1.34134e-11
1.30844e-11
1.27293e-11
1.235e-11
1.19485e-11
1.15272e-11
1.10885e-11
1.06349e-11
1.01692e-11
9.69396e-12
9.21213e-12
8.72652e-12
8.23995e-12
7.75524e-12
7.27514e-12
6.80229e-12
6.33924e-12
5.88839e-12
5.45198e-12
5.03206e-12
4.63047e-12
4.24886e-12
3.88864e-12
3.55099e-12
3.23685e-12
2.94693e-12
2.68172e-12
2.44147e-12
2.22621e-12
2.03577e-12
1.86979e-12
1.7277e-12
1.60877e-12
1.51213e-12
1.43673e-12
1.3814e-12
1.34485e-12
1.32567e-12
1.32235e-12
1.33328e-12
1.35678e-12
1.3911e-12
1.43441e-12
1.48487e-12
1.5406e-12
1.59969e-12
1.66028e-12
1.7205e-12
1.77856e-12
1.83277e-12
1.88151e-12
1.92333e-12
1.95694e-12
1.98122e-12
1.99527e-12
1.99843e-12
1.99028e-12
1.97063e-12
1.93956e-12
1.8974e-12
1.84469e-12
1.78219e-12
1.71087e-12
1.63184e-12
1.54632e-12
1.45565e-12
1.3612e-12
1.26435e-12
1.16646e-12
1.06881e-12
9.72608e-13
8.78946e-13
7.8877e-13
7.02882e-13
6.21925e-13
5.46384e-13
4.76589e-13
4.12723e-13
3.54833e-13
3.02846e-13
2.56589e-13
2.15803e-13
1.80161e-13
1.49293e-13
1.22793e-13
1.00242e-13
8.12193e-14
6.53106e-14
5.21211e-14
4.12795e-14
3.24441e-14
2.53049e-14
1.95853e-14
1.50418e-14
1.14632e-14
8.66837e-15
6.50401e-15
4.84204e-15
3.57659e-15
2.62117e-15
1.90587e-15
1.37486e-15
9.8396e-16
6.98624e-16
4.92093e-16
3.43858e-16
2.3836e-16
1.63908e-16
1.11808e-16
7.56587e-17
5.07894e-17
3.38286e-17
2.23653e-17
1.4694e-17
9.62211e-18
6.32728e-18
4.25438e-18
3.04204e-18
2.47301e-18
1.31917e-16
1.34768e-16
1.42532e-16
1.55383e-16
1.73646e-16
1.97803e-16
2.28502e-16
2.66573e-16
3.13043e-16
3.69165e-16
4.36435e-16
5.16638e-16
6.11875e-16
7.24614e-16
8.57739e-16
1.01461e-15
1.19913e-15
1.41582e-15
1.6699e-15
1.96741e-15
2.31529e-15
2.7215e-15
3.19522e-15
3.74692e-15
4.38859e-15
5.13391e-15
5.99849e-15
7.00005e-15
8.15876e-15
9.49744e-15
1.1042e-14
1.28215e-14
1.48691e-14
1.72217e-14
1.99212e-14
2.30141e-14
2.65528e-14
3.05959e-14
3.52086e-14
4.04634e-14
4.64411e-14
5.32311e-14
6.09323e-14
6.9654e-14
7.95166e-14
9.06523e-14
1.03206e-13
1.17338e-13
1.3322e-13
1.51042e-13
1.7101e-13
1.93346e-13
2.18291e-13
2.46106e-13
2.77069e-13
3.11483e-13
3.49667e-13
3.91965e-13
4.38743e-13
4.90387e-13
5.47308e-13
6.09938e-13
6.7873e-13
7.54162e-13
8.36728e-13
9.26946e-13
1.02535e-12
1.13249e-12
1.24894e-12
1.37526e-12
1.51206e-12
1.65993e-12
1.81946e-12
1.99126e-12
2.17592e-12
2.37403e-12
2.58615e-12
2.81284e-12
3.05464e-12
3.31203e-12
3.58548e-12
3.87541e-12
4.18218e-12
4.50612e-12
4.84747e-12
5.2064e-12
5.58303e-12
5.97737e-12
6.38936e-12
6.81882e-12
7.26549e-12
7.72898e-12
8.20881e-12
8.70436e-12
9.21491e-12
9.73958e-12
1.02774e-11
1.08272e-11
1.13878e-11
1.19578e-11
1.25356e-11
1.31196e-11
1.37081e-11
1.42991e-11
1.48906e-11
1.54805e-11
1.60665e-11
1.66464e-11
1.72177e-11
1.7778e-11
1.83246e-11
1.88551e-11
1.93667e-11
1.98569e-11
2.0323e-11
2.07623e-11
2.11724e-11
2.15507e-11
2.18948e-11
2.22023e-11
2.2471e-11
2.26988e-11
2.28839e-11
2.30245e-11
2.3119e-11
2.31662e-11
2.31651e-11
2.31148e-11
2.30148e-11
2.2865e-11
2.26654e-11
2.24164e-11
2.21187e-11
2.17735e-11
2.1382e-11
2.0946e-11
2.04675e-11
1.99489e-11
1.93927e-11
1.8802e-11
1.81798e-11
1.75295e-11
1.68548e-11
1.61594e-11
1.54473e-11
1.47224e-11
1.39889e-11
1.32508e-11
1.25122e-11
1.17772e-11
1.10497e-11
1.03335e-11
9.63208e-12
8.949e-12
8.28738e-12
7.65009e-12
7.03977e-12
6.45869e-12
5.90884e-12
5.39185e-12
4.90905e-12
4.4614e-12
4.04956e-12
3.67385e-12
3.3343e-12
3.03063e-12
2.76232e-12
2.52856e-12
2.32832e-12
2.16036e-12
2.02324e-12
1.91533e-12
1.83486e-12
1.77991e-12
1.74843e-12
1.73827e-12
1.74717e-12
1.77278e-12
1.81272e-12
1.86451e-12
1.92567e-12
1.99369e-12
2.06608e-12
2.14036e-12
2.21415e-12
2.28511e-12
2.35108e-12
2.41e-12
2.46004e-12
2.49956e-12
2.52719e-12
2.54183e-12
2.54267e-12
2.52922e-12
2.50129e-12
2.45902e-12
2.40287e-12
2.33357e-12
2.25213e-12
2.15976e-12
2.05792e-12
1.94817e-12
1.83219e-12
1.71172e-12
1.58849e-12
1.46421e-12
1.34049e-12
1.21882e-12
1.10056e-12
9.86872e-13
8.78742e-13
7.76954e-13
6.82092e-13
5.94546e-13
5.14524e-13
4.42064e-13
3.77057e-13
3.19268e-13
2.68357e-13
2.23907e-13
1.85439e-13
1.5244e-13
1.2438e-13
1.00725e-13
8.09561e-14
6.45764e-14
5.11207e-14
4.01612e-14
3.13106e-14
2.42237e-14
1.85969e-14
1.41671e-14
1.07091e-14
8.03241e-15
5.97788e-15
4.41416e-15
3.23399e-15
2.35077e-15
1.69531e-15
1.21298e-15
8.61005e-16
6.0632e-16
4.23576e-16
2.93553e-16
2.01818e-16
1.3764e-16
9.31205e-17
6.25e-17
4.16211e-17
2.75126e-17
1.80729e-17
1.18329e-17
7.77985e-18
5.23028e-18
3.73932e-18
3.03957e-18
2.45819e-16
2.51122e-16
2.65575e-16
2.89497e-16
3.23494e-16
3.68461e-16
4.25605e-16
4.96468e-16
5.82961e-16
6.87407e-16
8.12594e-16
9.61833e-16
1.13903e-15
1.34877e-15
1.59641e-15
1.88818e-15
2.23133e-15
2.63426e-15
3.10664e-15
3.65967e-15
4.30622e-15
5.06106e-15
5.94116e-15
6.96592e-15
8.15755e-15
9.54134e-15
1.11461e-14
1.30047e-14
1.51543e-14
1.7637e-14
2.05005e-14
2.37986e-14
2.75921e-14
3.19491e-14
3.69463e-14
4.26694e-14
4.92146e-14
5.66889e-14
6.52119e-14
7.49161e-14
8.5949e-14
9.84736e-14
1.1267e-13
1.28737e-13
1.46893e-13
1.67377e-13
1.90453e-13
2.16407e-13
2.45551e-13
2.78227e-13
3.14801e-13
3.55673e-13
4.01273e-13
4.52064e-13
5.08542e-13
5.71238e-13
6.4072e-13
7.1759e-13
8.02487e-13
8.96088e-13
9.99103e-13
1.11228e-12
1.2364e-12
1.37228e-12
1.52076e-12
1.68271e-12
1.85905e-12
2.05067e-12
2.25854e-12
2.48358e-12
2.72677e-12
2.98907e-12
3.27142e-12
3.57478e-12
3.90007e-12
4.24817e-12
4.61995e-12
5.01621e-12
5.43771e-12
5.88513e-12
6.35908e-12
6.86008e-12
7.38854e-12
7.94477e-12
8.52896e-12
9.14116e-12
9.78128e-12
1.04491e-11
1.11441e-11
1.18659e-11
1.26135e-11
1.33861e-11
1.41826e-11
1.50015e-11
1.58414e-11
1.67005e-11
1.75768e-11
1.84682e-11
1.93722e-11
2.02864e-11
2.1208e-11
2.21339e-11
2.30612e-11
2.39864e-11
2.49061e-11
2.58168e-11
2.67147e-11
2.7596e-11
2.84567e-11
2.9293e-11
3.01008e-11
3.08761e-11
3.16148e-11
3.2313e-11
3.29667e-11
3.35722e-11
3.41258e-11
3.46238e-11
3.5063e-11
3.54401e-11
3.57524e-11
3.59971e-11
3.6172e-11
3.6275e-11
3.63046e-11
3.62595e-11
3.61387e-11
3.5942e-11
3.56693e-11
3.53211e-11
3.48983e-11
3.44023e-11
3.38351e-11
3.3199e-11
3.24967e-11
3.17316e-11
3.09074e-11
3.00282e-11
2.90984e-11
2.81229e-11
2.7107e-11
2.60559e-11
2.49755e-11
2.38715e-11
2.27499e-11
2.16167e-11
2.0478e-11
1.93397e-11
1.82078e-11
1.70881e-11
1.59859e-11
1.49067e-11
1.38552e-11
1.28361e-11
1.18537e-11
1.09116e-11
1.00131e-11
9.16117e-12
8.35807e-12
7.60569e-12
6.90542e-12
6.25817e-12
5.66439e-12
5.12409e-12
4.63685e-12
4.20188e-12
3.81801e-12
3.48374e-12
3.19729e-12
2.95657e-12
2.7593e-12
2.60295e-12
2.48483e-12
2.40206e-12
2.35165e-12
2.33047e-12
2.33531e-12
2.36287e-12
2.4098e-12
2.47269e-12
2.54815e-12
2.63277e-12
2.72318e-12
2.81611e-12
2.90835e-12
2.99686e-12
3.07878e-12
3.15145e-12
3.21248e-12
3.2598e-12
3.29165e-12
3.30664e-12
3.30378e-12
3.28249e-12
3.24258e-12
3.18429e-12
3.10824e-12
3.01545e-12
2.90725e-12
2.78526e-12
2.65136e-12
2.5076e-12
2.35615e-12
2.19926e-12
2.03916e-12
1.87803e-12
1.71792e-12
1.56075e-12
1.4082e-12
1.26178e-12
1.1227e-12
9.91936e-13
8.70217e-13
7.58011e-13
6.55555e-13
5.62874e-13
4.79804e-13
4.06023e-13
3.4108e-13
2.84422e-13
2.35429e-13
1.93432e-13
1.57745e-13
1.27681e-13
1.02573e-13
8.17814e-14
6.47118e-14
5.08166e-14
3.96013e-14
3.06255e-14
2.35026e-14
1.78976e-14
1.35242e-14
1.01404e-14
7.54418e-15
5.56897e-15
4.0788e-15
2.96399e-15
2.13695e-15
1.52855e-15
1.08473e-15
7.6368e-16
5.33383e-16
3.6957e-16
2.54025e-16
1.73211e-16
1.17163e-16
7.86223e-17
5.23484e-17
3.45978e-17
2.27236e-17
1.48755e-17
9.77879e-18
6.57314e-18
4.69872e-18
3.81907e-18
4.54211e-16
4.63995e-16
4.90673e-16
5.34834e-16
5.97593e-16
6.80604e-16
7.86091e-16
9.16897e-16
1.07655e-15
1.26932e-15
1.50036e-15
1.77577e-15
2.10275e-15
2.48974e-15
2.94661e-15
3.48486e-15
4.11782e-15
4.86093e-15
5.73204e-15
6.75172e-15
7.94364e-15
9.33499e-15
1.09569e-14
1.28451e-14
1.50404e-14
1.75891e-14
2.05441e-14
2.39657e-14
2.79219e-14
3.24901e-14
3.77574e-14
4.38223e-14
5.07957e-14
5.88022e-14
6.79816e-14
7.84905e-14
9.05036e-14
1.04216e-13
1.19845e-13
1.37631e-13
1.57842e-13
1.80772e-13
2.06747e-13
2.36127e-13
2.69305e-13
3.06713e-13
3.48822e-13
3.96147e-13
4.49247e-13
5.0873e-13
5.75252e-13
6.49523e-13
7.32304e-13
8.24416e-13
9.26732e-13
1.04019e-12
1.16578e-12
1.30455e-12
1.45763e-12
1.62617e-12
1.81142e-12
2.01465e-12
2.23719e-12
2.48044e-12
2.74583e-12
3.03482e-12
3.34891e-12
3.68964e-12
4.05854e-12
4.45716e-12
4.88706e-12
5.34977e-12
5.84679e-12
6.37959e-12
6.94957e-12
7.55808e-12
8.20637e-12
8.89558e-12
9.62675e-12
1.04008e-11
1.12183e-11
1.20801e-11
1.29863e-11
1.39372e-11
1.49326e-11
1.59723e-11
1.70557e-11
1.81819e-11
1.93498e-11
2.05579e-11
2.18045e-11
2.30875e-11
2.44046e-11
2.57529e-11
2.71295e-11
2.8531e-11
2.99537e-11
3.13935e-11
3.28462e-11
3.43071e-11
3.57713e-11
3.72337e-11
3.86889e-11
4.01313e-11
4.15551e-11
4.29543e-11
4.43229e-11
4.56547e-11
4.69434e-11
4.81829e-11
4.93669e-11
5.04892e-11
5.15439e-11
5.25249e-11
5.34267e-11
5.42437e-11
5.49708e-11
5.56031e-11
5.61361e-11
5.65658e-11
5.68886e-11
5.71013e-11
5.72014e-11
5.71868e-11
5.70562e-11
5.68087e-11
5.64442e-11
5.59632e-11
5.53669e-11
5.46572e-11
5.38366e-11
5.29085e-11
5.18768e-11
5.07461e-11
4.95216e-11
4.82093e-11
4.68156e-11
4.53475e-11
4.38124e-11
4.22183e-11
4.05733e-11
3.88861e-11
3.71654e-11
3.54202e-11
3.36594e-11
3.1892e-11
3.0127e-11
2.83731e-11
2.66386e-11
2.49318e-11
2.32603e-11
2.16314e-11
2.00519e-11
1.85278e-11
1.70646e-11
1.56672e-11
1.43398e-11
1.30856e-11
1.19076e-11
1.08076e-11
9.78692e-12
8.84628e-12
7.98564e-12
7.20437e-12
6.50128e-12
5.87466e-12
5.32231e-12
4.84162e-12
4.42957e-12
4.08283e-12
3.79778e-12
3.57052e-12
3.39698e-12
3.27289e-12
3.19383e-12
3.15529e-12
3.15264e-12
3.18121e-12
3.23627e-12
3.31311e-12
3.40701e-12
3.51332e-12
3.62746e-12
3.74498e-12
3.8616e-12
3.97327e-12
4.07617e-12
4.16682e-12
4.24209e-12
4.29928e-12
4.33613e-12
4.35087e-12
4.34226e-12
4.30959e-12
4.2527e-12
4.17196e-12
4.06826e-12
3.94295e-12
3.79785e-12
3.63511e-12
3.45722e-12
3.26687e-12
3.06693e-12
2.86031e-12
2.64992e-12
2.43857e-12
2.22895e-12
2.02348e-12
1.82437e-12
1.63349e-12
1.45242e-12
1.28239e-12
1.12429e-12
9.78692e-13
8.4588e-13
7.25851e-13
6.18364e-13
5.22977e-13
4.39084e-13
3.6595e-13
3.02755e-13
2.48623e-13
2.02654e-13
1.63954e-13
1.31652e-13
1.0492e-13
8.29856e-14
6.51397e-14
5.07431e-14
3.92269e-14
3.00923e-14
2.29077e-14
1.73041e-14
1.29702e-14
9.64642e-15
7.11863e-15
5.21228e-15
3.78659e-15
2.7293e-15
1.95175e-15
1.38471e-15
9.74641e-16
6.80572e-16
4.71453e-16
3.23988e-16
2.20872e-16
1.49374e-16
1.0022e-16
6.67172e-17
4.40872e-17
2.89516e-17
1.89497e-17
1.24552e-17
8.37097e-18
5.98305e-18
4.86251e-18
8.31473e-16
8.49359e-16
8.98151e-16
9.78925e-16
1.09372e-15
1.24555e-15
1.4385e-15
1.67774e-15
1.96972e-15
2.32228e-15
2.74479e-15
3.24841e-15
3.84628e-15
4.55384e-15
5.3891e-15
6.37304e-15
7.53e-15
8.88817e-15
1.04801e-14
1.23433e-14
1.4521e-14
1.70626e-14
2.00251e-14
2.34733e-14
2.74815e-14
3.21343e-14
3.75277e-14
4.37713e-14
5.09888e-14
5.93206e-14
6.8925e-14
7.99807e-14
9.26886e-14
1.07275e-13
1.23991e-13
1.43122e-13
1.64983e-13
1.89926e-13
2.18342e-13
2.50666e-13
2.87377e-13
3.29007e-13
3.7614e-13
4.29419e-13
4.89548e-13
5.57299e-13
6.33513e-13
7.19105e-13
8.15071e-13
9.22485e-13
1.04251e-12
1.1764e-12
1.3255e-12
1.49123e-12
1.67515e-12
1.87887e-12
2.10414e-12
2.35276e-12
2.62668e-12
2.92789e-12
3.25852e-12
3.62075e-12
4.01685e-12
4.44915e-12
4.92007e-12
5.43204e-12
5.98756e-12
6.58914e-12
7.23929e-12
7.94051e-12
8.69527e-12
9.506e-12
1.0375e-11
1.13046e-11
1.22968e-11
1.33536e-11
1.44768e-11
1.56679e-11
1.69283e-11
1.82589e-11
1.96606e-11
2.11336e-11
2.26782e-11
2.42939e-11
2.598e-11
2.77353e-11
2.95582e-11
3.14464e-11
3.33974e-11
3.5408e-11
3.74746e-11
3.95929e-11
4.17583e-11
4.39655e-11
4.62088e-11
4.84818e-11
5.07779e-11
5.30898e-11
5.54097e-11
5.77298e-11
6.00414e-11
6.23357e-11
6.46038e-11
6.68361e-11
6.90233e-11
7.11556e-11
7.32233e-11
7.52166e-11
7.71257e-11
7.8941e-11
8.06532e-11
8.22529e-11
8.37313e-11
8.50798e-11
8.62903e-11
8.73553e-11
8.82678e-11
8.90213e-11
8.96103e-11
9.00298e-11
9.02756e-11
9.03445e-11
9.02342e-11
8.99431e-11
8.94708e-11
8.88178e-11
8.79856e-11
8.69768e-11
8.5795e-11
8.44446e-11
8.29314e-11
8.12619e-11
7.94436e-11
7.7485e-11
7.53954e-11
7.3185e-11
7.08646e-11
6.84456e-11
6.59404e-11
6.33613e-11
6.07215e-11
5.8034e-11
5.53125e-11
5.25703e-11
4.98208e-11
4.70773e-11
4.43527e-11
4.16596e-11
3.901e-11
3.64153e-11
3.38861e-11
3.14324e-11
2.90631e-11
2.67864e-11
2.46093e-11
2.25379e-11
2.05773e-11
1.87313e-11
1.7003e-11
1.53943e-11
1.39059e-11
1.2538e-11
1.12895e-11
1.01587e-11
9.14312e-12
8.23942e-12
7.44378e-12
6.75179e-12
6.15855e-12
5.65879e-12
5.24685e-12
4.91683e-12
4.66256e-12
4.47773e-12
4.35585e-12
4.29038e-12
4.27469e-12
4.30212e-12
4.36603e-12
4.45981e-12
4.57694e-12
4.711e-12
4.85575e-12
5.00514e-12
5.15339e-12
5.29505e-12
5.42506e-12
5.53877e-12
5.63208e-12
5.70145e-12
5.74393e-12
5.75726e-12
5.73988e-12
5.69092e-12
5.61026e-12
5.49846e-12
5.35676e-12
5.18703e-12
4.99169e-12
4.77365e-12
4.53619e-12
4.2829e-12
4.01753e-12
3.74391e-12
3.46586e-12
3.18706e-12
2.91096e-12
2.64075e-12
2.37924e-12
2.12888e-12
1.89165e-12
1.66913e-12
1.46243e-12
1.27228e-12
1.09898e-12
9.42496e-13
8.02481e-13
6.78327e-13
5.69215e-13
4.74166e-13
3.9209e-13
3.21831e-13
2.62205e-13
2.12038e-13
1.70189e-13
1.35575e-13
1.07188e-13
8.41047e-14
6.54918e-14
5.06099e-14
3.88109e-14
2.95346e-14
2.23027e-14
1.67116e-14
1.24253e-14
9.16666e-15
6.70997e-15
4.87332e-15
3.51168e-15
2.51062e-15
1.78079e-15
1.25314e-15
8.74857e-16
6.05915e-16
4.1631e-16
2.83757e-16
1.91869e-16
1.28709e-16
8.56684e-17
5.66015e-17
3.71641e-17
2.43215e-17
1.59837e-17
1.07409e-17
7.67587e-18
6.23773e-18
1.50764e-15
1.54003e-15
1.62843e-15
1.77479e-15
1.98279e-15
2.25791e-15
2.6075e-15
3.04098e-15
3.57001e-15
4.20875e-15
4.97421e-15
5.88656e-15
6.96961e-15
8.25127e-15
9.76415e-15
1.15462e-14
1.36415e-14
1.61009e-14
1.89834e-14
2.23567e-14
2.62989e-14
3.08996e-14
3.62612e-14
4.25011e-14
4.97532e-14
5.817e-14
6.79253e-14
7.92158e-14
9.2265e-14
1.07325e-13
1.24682e-13
1.44656e-13
1.67609e-13
1.93946e-13
2.24122e-13
2.58643e-13
2.98077e-13
3.43053e-13
3.94271e-13
4.52507e-13
5.18617e-13
5.93549e-13
6.78342e-13
7.7414e-13
8.82193e-13
1.00387e-12
1.14065e-12
1.29417e-12
1.46616e-12
1.65854e-12
1.87332e-12
2.11272e-12
2.37907e-12
2.67489e-12
3.00283e-12
3.36573e-12
3.76658e-12
4.20851e-12
4.69483e-12
5.22899e-12
5.81456e-12
6.45525e-12
7.1549e-12
7.91741e-12
8.74679e-12
9.64709e-12
1.06224e-11
1.16768e-11
1.28143e-11
1.4039e-11
1.53547e-11
1.67652e-11
1.8274e-11
1.98845e-11
2.15999e-11
2.34227e-11
2.53555e-11
2.74002e-11
2.95583e-11
3.18307e-11
3.42179e-11
3.67198e-11
3.93353e-11
4.20631e-11
4.49008e-11
4.78453e-11
5.08929e-11
5.40387e-11
5.72774e-11
6.06024e-11
6.40067e-11
6.7482e-11
7.10196e-11
7.46095e-11
7.82414e-11
8.19038e-11
8.55847e-11
8.92715e-11
9.29507e-11
9.66086e-11
1.00231e-10
1.03802e-10
1.07309e-10
1.10734e-10
1.14063e-10
1.1728e-10
1.2037e-10
1.23318e-10
1.26109e-10
1.28728e-10
1.31161e-10
1.33394e-10
1.35416e-10
1.37213e-10
1.38776e-10
1.40092e-10
1.41155e-10
1.41955e-10
1.42487e-10
1.42744e-10
1.42723e-10
1.42422e-10
1.41838e-10
1.40974e-10
1.39829e-10
1.38409e-10
1.36717e-10
1.34761e-10
1.32548e-10
1.30088e-10
1.27392e-10
1.24472e-10
1.21341e-10
1.18015e-10
1.1451e-10
1.10841e-10
1.07028e-10
1.03089e-10
9.90424e-11
9.49087e-11
9.07077e-11
8.64597e-11
8.2185e-11
7.79035e-11
7.36351e-11
6.9399e-11
6.52137e-11
6.10972e-11
5.70663e-11
5.31368e-11
4.93232e-11
4.56388e-11
4.20955e-11
3.87038e-11
3.54726e-11
3.24092e-11
2.95194e-11
2.68076e-11
2.42765e-11
2.19274e-11
1.97602e-11
1.77735e-11
1.59646e-11
1.43299e-11
1.28644e-11
1.15624e-11
1.04175e-11
9.42239e-12
8.56934e-12
7.85005e-12
7.25588e-12
6.77784e-12
6.40677e-12
6.1333e-12
5.948e-12
5.84137e-12
5.80392e-12
5.82619e-12
5.89882e-12
6.01259e-12
6.15842e-12
6.32747e-12
6.51119e-12
6.70135e-12
6.89013e-12
7.0702e-12
7.23477e-12
7.37769e-12
7.49351e-12
7.57756e-12
7.62604e-12
7.63601e-12
7.60548e-12
7.53343e-12
7.41977e-12
7.26534e-12
7.07187e-12
6.84192e-12
6.57874e-12
6.28623e-12
5.96876e-12
5.63108e-12
5.27815e-12
4.91503e-12
4.54671e-12
4.178e-12
3.81343e-12
3.45712e-12
3.11273e-12
2.78341e-12
2.4717e-12
2.17963e-12
1.90859e-12
1.65947e-12
1.43263e-12
1.22797e-12
1.045e-12
8.82869e-13
7.40487e-13
6.1654e-13
5.09581e-13
4.18079e-13
3.40472e-13
2.75213e-13
2.20804e-13
1.75825e-13
1.38957e-13
1.08991e-13
8.48401e-14
6.55388e-14
5.02425e-14
3.82215e-14
2.88534e-14
2.16137e-14
1.60654e-14
1.18488e-14
8.67096e-15
6.29594e-15
4.53569e-15
3.24195e-15
2.299e-15
1.61746e-15
1.12896e-15
7.81749e-16
5.3702e-16
3.65967e-16
2.47414e-16
1.65942e-16
1.10434e-16
7.29531e-17
4.78935e-17
3.13388e-17
2.05925e-17
1.3836e-17
9.88651e-18
8.03348e-18
2.70761e-15
2.76574e-15
2.92439e-15
3.18709e-15
3.56043e-15
4.05424e-15
4.68173e-15
5.45977e-15
6.40929e-15
7.55571e-15
8.92951e-15
1.05669e-14
1.25105e-14
1.48105e-14
1.75253e-14
2.0723e-14
2.44824e-14
2.88949e-14
3.40661e-14
4.01174e-14
4.71885e-14
5.54398e-14
6.50549e-14
7.62438e-14
8.92459e-14
1.04334e-13
1.21819e-13
1.42053e-13
1.65433e-13
1.92412e-13
2.23498e-13
2.59264e-13
3.00354e-13
3.47489e-13
4.01479e-13
4.63225e-13
5.33735e-13
6.14126e-13
7.05641e-13
8.09654e-13
9.27682e-13
1.0614e-12
1.21264e-12
1.38342e-12
1.57595e-12
1.79263e-12
2.03607e-12
2.30911e-12
2.61482e-12
2.9565e-12
3.33771e-12
3.76226e-12
4.23423e-12
4.75795e-12
5.33803e-12
5.97932e-12
6.68696e-12
7.46632e-12
8.32301e-12
9.26289e-12
1.0292e-11
1.14166e-11
1.2643e-11
1.39778e-11
1.54276e-11
1.6999e-11
1.86986e-11
2.05332e-11
2.2509e-11
2.46325e-11
2.69096e-11
2.93462e-11
3.19475e-11
3.47185e-11
3.76634e-11
4.07861e-11
4.40894e-11
4.75757e-11
5.12461e-11
5.51012e-11
5.91401e-11
6.33612e-11
6.77615e-11
7.23369e-11
7.70818e-11
8.19895e-11
8.70519e-11
9.22593e-11
9.7601e-11
1.03065e-10
1.08636e-10
1.14301e-10
1.20042e-10
1.25843e-10
1.31684e-10
1.37544e-10
1.43405e-10
1.49242e-10
1.55034e-10
1.60758e-10
1.66388e-10
1.71902e-10
1.77274e-10
1.8248e-10
1.87496e-10
1.92296e-10
1.96858e-10
2.01158e-10
2.05173e-10
2.08883e-10
2.12266e-10
2.15303e-10
2.17977e-10
2.20271e-10
2.22171e-10
2.23665e-10
2.2474e-10
2.25389e-10
2.25604e-10
2.25382e-10
2.2472e-10
2.23617e-10
2.22077e-10
2.20104e-10
2.17705e-10
2.14889e-10
2.11667e-10
2.08054e-10
2.04066e-10
1.9972e-10
1.95037e-10
1.90038e-10
1.84747e-10
1.79189e-10
1.7339e-10
1.67379e-10
1.61183e-10
1.54832e-10
1.48357e-10
1.41788e-10
1.35154e-10
1.28488e-10
1.21818e-10