/*--------------------------------*- C++ -*----------------------------------*\
| =========                 |                                                 |
| \\      /  F ield         | OpenFOAM: The Open Source CFD Toolbox           |
|  \\    /   O peration     | Version:  v2012                                 |
|   \\  /    A nd           | Website:  www.openfoam.com                      |
|    \\/     M anipulation  |                                                 |
\*---------------------------------------------------------------------------*/
FoamFile
{
    version     2.0;
    format      ascii;
    class       surfaceScalarField;
    location    "9.5";
    object      phi;
}
// * * * * * * * * * * * * * * * * * * * * * * * * * * * * * * * * * * * * * //

dimensions      [0 3 -1 0 0 0 0];
oriented        oriented;


internalField   nonuniform List<scalar> 
130560
(
3.70258e-06
-3.70258e-06
7.40523e-06
-3.70265e-06
1.1108e-05
-3.70278e-06
1.4811e-05
-3.70296e-06
1.85142e-05
-3.70321e-06
2.22177e-05
-3.70351e-06
2.59216e-05
-3.70387e-06
2.96258e-05
-3.70427e-06
3.33305e-05
-3.70471e-06
3.70357e-05
-3.70518e-06
4.07414e-05
-3.70569e-06
4.44476e-05
-3.70621e-06
4.81544e-05
-3.70675e-06
5.18616e-05
-3.70728e-06
5.55694e-05
-3.70781e-06
5.92778e-05
-3.70831e-06
6.29865e-05
-3.70878e-06
6.66957e-05
-3.70921e-06
7.04053e-05
-3.70957e-06
7.41152e-05
-3.70987e-06
7.78253e-05
-3.71007e-06
8.15354e-05
-3.71017e-06
8.52456e-05
-3.71014e-06
8.89556e-05
-3.70998e-06
9.26652e-05
-3.70966e-06
9.63744e-05
-3.70916e-06
0.000100083
-3.70846e-06
0.00010379
-3.70755e-06
0.000107497
-3.70639e-06
0.000111202
-3.70497e-06
0.000114905
-3.70327e-06
0.000118606
-3.70126e-06
0.000122305
-3.69891e-06
0.000126001
-3.69621e-06
0.000129695
-3.69312e-06
0.000133384
-3.68962e-06
0.00013707
-3.68569e-06
0.000140751
-3.68129e-06
0.000144427
-3.6764e-06
0.000148098
-3.67098e-06
0.000151764
-3.66502e-06
0.000155422
-3.65848e-06
0.000159073
-3.65132e-06
0.000162717
-3.64353e-06
0.000166352
-3.63507e-06
0.000169978
-3.6259e-06
0.000173594
-3.61601e-06
0.000177199
-3.60535e-06
0.000180793
-3.59389e-06
0.000184375
-3.58161e-06
0.000187943
-3.56848e-06
0.000191498
-3.55446e-06
0.000195037
-3.53951e-06
0.000198561
-3.52362e-06
0.000202067
-3.50675e-06
0.000205556
-3.48887e-06
0.000209026
-3.46995e-06
0.000212476
-3.44996e-06
0.000215905
-3.42888e-06
0.000219312
-3.40667e-06
0.000222695
-3.38331e-06
0.000226054
-3.35878e-06
0.000229387
-3.33305e-06
0.000232693
-3.30609e-06
0.000235971
-3.27788e-06
0.000239219
-3.24841e-06
0.000242437
-3.21765e-06
0.000245623
-3.18558e-06
0.000248775
-3.15219e-06
0.000251892
-3.11747e-06
0.000254974
-3.08139e-06
0.000258018
-3.04395e-06
0.000261023
-3.00513e-06
0.000263988
-2.96494e-06
0.000266911
-2.92335e-06
0.000269791
-2.88038e-06
0.000272627
-2.83602e-06
0.000275418
-2.79026e-06
0.000278161
-2.74311e-06
0.000280855
-2.69459e-06
0.0002835
-2.64468e-06
0.000286093
-2.59341e-06
0.000288634
-2.54079e-06
0.000291121
-2.48683e-06
0.000293553
-2.43154e-06
0.000295928
-2.37495e-06
0.000298245
-2.31709e-06
0.000300503
-2.25797e-06
0.0003027
-2.19761e-06
0.000304836
-2.13606e-06
0.00030691
-2.07335e-06
0.000308919
-2.00949e-06
0.000310864
-1.94454e-06
0.000312742
-1.87854e-06
0.000314554
-1.81151e-06
0.000316297
-1.7435e-06
0.000317972
-1.67457e-06
0.000319577
-1.60474e-06
0.000321111
-1.53408e-06
0.000322573
-1.46263e-06
0.000323964
-1.39045e-06
0.000325281
-1.31758e-06
0.000326525
-1.24408e-06
0.000327695
-1.17e-06
0.000328791
-1.09541e-06
0.000329811
-1.02035e-06
0.000330756
-9.4489e-07
0.000331625
-8.69082e-07
0.000332418
-7.92988e-07
0.000333135
-7.16666e-07
0.000333775
-6.40175e-07
0.000334338
-5.63575e-07
0.000334825
-4.86927e-07
0.000335236
-4.10288e-07
0.000335569
-3.33717e-07
0.000335827
-2.57274e-07
0.000336008
-1.81015e-07
0.000336113
-1.04998e-07
0.000336142
-2.92792e-08
0.000336096
4.60869e-08
0.000335975
1.21046e-07
0.000335779
1.95546e-07
0.00033551
2.69534e-07
0.000335167
3.42961e-07
0.000334751
4.15778e-07
0.000334263
4.87939e-07
0.000333704
5.59397e-07
0.000333074
6.3011e-07
0.000332374
7.00036e-07
0.000331604
7.69134e-07
0.000330767
8.37367e-07
0.000329862
9.04698e-07
0.000328891
9.71095e-07
0.000327855
1.03652e-06
0.000326754
1.10095e-06
0.000325589
1.16436e-06
0.000324363
1.22671e-06
0.000323075
1.28799e-06
0.000321727
1.34817e-06
0.000320319
1.40723e-06
0.000318854
1.46516e-06
0.000317332
1.52193e-06
0.000315755
1.57754e-06
0.000314123
1.63197e-06
0.000312437
1.68522e-06
0.0003107
1.73726e-06
0.000308912
1.78811e-06
0.000307074
1.83774e-06
0.000305188
1.88617e-06
0.000303255
1.93338e-06
0.000301275
1.97938e-06
0.000299251
2.02417e-06
0.000297184
2.06776e-06
0.000295073
2.11014e-06
0.000292922
2.15132e-06
0.000290731
2.19132e-06
0.000288501
2.23013e-06
0.000286233
2.26777e-06
0.000283929
2.30426e-06
0.000281589
2.33959e-06
0.000279215
2.37379e-06
0.000276808
2.40686e-06
0.00027437
2.43883e-06
0.0002719
2.4697e-06
0.0002694
2.4995e-06
0.000266872
2.52824e-06
0.000264316
2.55593e-06
0.000261734
2.58261e-06
0.000259125
2.60827e-06
0.000256492
2.63295e-06
0.000253836
2.65666e-06
0.000251156
2.67943e-06
0.000248455
2.70127e-06
0.000245733
2.7222e-06
0.000242991
2.74224e-06
0.000240229
2.76142e-06
0.000237449
2.77975e-06
0.000234652
2.79726e-06
0.000231838
2.81397e-06
0.000229008
2.82989e-06
0.000226163
2.84506e-06
0.000223304
2.85948e-06
0.00022043
2.87319e-06
0.000217544
2.8862e-06
0.000214646
2.89853e-06
0.000211736
2.9102e-06
0.000208814
2.92125e-06
0.000205883
2.93167e-06
0.000202941
2.9415e-06
0.00019999
2.95076e-06
0.000197031
2.95946e-06
0.000194063
2.96762e-06
0.000191088
2.97527e-06
0.000188106
2.98242e-06
0.000185117
2.98909e-06
0.000182121
2.99531e-06
0.00017912
3.00108e-06
0.000176114
3.00642e-06
0.000173102
3.01136e-06
0.000170086
3.01591e-06
0.000167066
3.02008e-06
0.000164042
3.0239e-06
0.000161015
3.02738e-06
0.000157985
3.03053e-06
0.000154951
3.03338e-06
0.000151915
3.03593e-06
0.000148877
3.0382e-06
0.000145837
3.04021e-06
0.000142795
3.04196e-06
0.000139751
3.04348e-06
0.000136707
3.04478e-06
0.000133661
3.04586e-06
0.000130614
3.04675e-06
0.000127567
3.04745e-06
0.000124519
3.04798e-06
0.00012147
3.04834e-06
0.000118422
3.04856e-06
0.000115373
3.04863e-06
0.000112324
3.04858e-06
0.000109276
3.0484e-06
0.000106228
3.04812e-06
0.00010318
3.04774e-06
0.000100133
3.04727e-06
9.70862e-05
3.04672e-06
9.40401e-05
3.0461e-06
9.09947e-05
3.04542e-06
8.795e-05
3.04467e-06
8.49061e-05
3.04389e-06
8.18631e-05
3.04306e-06
7.88209e-05
3.0422e-06
7.57795e-05
3.04131e-06
7.27391e-05
3.04041e-06
6.96996e-05
3.03949e-06
6.66611e-05
3.03857e-06
6.36234e-05
3.03764e-06
6.05867e-05
3.03672e-06
5.75509e-05
3.03582e-06
5.4516e-05
3.03492e-06
5.14819e-05
3.03405e-06
4.84487e-05
3.0332e-06
4.54163e-05
3.03238e-06
4.23848e-05
3.03159e-06
3.93539e-05
3.03083e-06
3.63238e-05
3.03012e-06
3.32944e-05
3.02945e-06
3.02655e-05
3.02883e-06
2.72373e-05
3.02825e-06
2.42096e-05
3.02772e-06
2.11823e-05
3.02725e-06
1.81555e-05
3.02683e-06
1.5129e-05
3.02647e-06
1.21028e-05
3.02617e-06
9.07691e-06
3.02592e-06
6.05117e-06
3.02574e-06
3.02556e-06
3.02562e-06
3.02556e-06
3.70252e-06
-7.40511e-06
7.40511e-06
-7.40523e-06
1.11078e-05
-7.40549e-06
1.48107e-05
-7.40587e-06
1.85139e-05
-7.40636e-06
2.22173e-05
-7.40697e-06
2.59212e-05
-7.40768e-06
2.96254e-05
-7.40849e-06
3.33301e-05
-7.40938e-06
3.70352e-05
-7.41034e-06
4.07409e-05
-7.41136e-06
4.44471e-05
-7.41241e-06
4.81538e-05
-7.41349e-06
5.18611e-05
-7.41457e-06
5.55689e-05
-7.41563e-06
5.92773e-05
-7.41665e-06
6.29861e-05
-7.41761e-06
6.66954e-05
-7.41848e-06
7.0405e-05
-7.41922e-06
7.4115e-05
-7.41982e-06
7.78252e-05
-7.42025e-06
8.15355e-05
-7.42046e-06
8.52457e-05
-7.42043e-06
8.89559e-05
-7.42012e-06
9.26657e-05
-7.41949e-06
9.63751e-05
-7.41851e-06
0.000100084
-7.41714e-06
0.000103792
-7.41533e-06
0.000107498
-7.41304e-06
0.000111203
-7.41023e-06
0.000114907
-7.40685e-06
0.000118609
-7.40285e-06
0.000122308
-7.39818e-06
0.000126004
-7.3928e-06
0.000129698
-7.38665e-06
0.000133388
-7.37968e-06
0.000137074
-7.37184e-06
0.000140756
-7.36307e-06
0.000144433
-7.35332e-06
0.000148104
-7.34252e-06
0.00015177
-7.33062e-06
0.000155429
-7.31756e-06
0.000159081
-7.30329e-06
0.000162725
-7.28773e-06
0.000166361
-7.27084e-06
0.000169988
-7.25254e-06
0.000173604
-7.23278e-06
0.000177211
-7.21149e-06
0.000180805
-7.18861e-06
0.000184388
-7.16409e-06
0.000187957
-7.13784e-06
0.000191513
-7.10983e-06
0.000195053
-7.07997e-06
0.000198578
-7.04822e-06
0.000202085
-7.01451e-06
0.000205575
-6.97878e-06
0.000209046
-6.94096e-06
0.000212497
-6.90102e-06
0.000215927
-6.85888e-06
0.000219335
-6.81449e-06
0.00022272
-6.7678e-06
0.00022608
-6.71876e-06
0.000229414
-6.66731e-06
0.000232721
-6.61342e-06
0.000236
-6.55703e-06
0.00023925
-6.49811e-06
0.000242469
-6.4366e-06
0.000245656
-6.37249e-06
0.000248809
-6.30572e-06
0.000251928
-6.23628e-06
0.000255011
-6.16414e-06
0.000258056
-6.08926e-06
0.000261063
-6.01164e-06
0.000264029
-5.93126e-06
0.000266954
-5.8481e-06
0.000269836
-5.76215e-06
0.000272673
-5.67342e-06
0.000275465
-5.58191e-06
0.000278209
-5.48761e-06
0.000280905
-5.39055e-06
0.000283551
-5.29073e-06
0.000286146
-5.18818e-06
0.000288688
-5.08291e-06
0.000291176
-4.97497e-06
0.000293609
-4.86438e-06
0.000295985
-4.75119e-06
0.000298304
-4.63543e-06
0.000300563
-4.51716e-06
0.000302762
-4.39643e-06
0.000304899
-4.27329e-06
0.000306973
-4.14783e-06
0.000308984
-4.02009e-06
0.00031093
-3.89015e-06
0.000312809
-3.75809e-06
0.000314622
-3.62399e-06
0.000316366
-3.48794e-06
0.000318042
-3.35002e-06
0.000319647
-3.21032e-06
0.000321182
-3.06895e-06
0.000322645
-2.926e-06
0.000324036
-2.78158e-06
0.000325355
-2.63579e-06
0.000326599
-2.48873e-06
0.00032777
-2.34052e-06
0.000328866
-2.19128e-06
0.000329886
-2.04111e-06
0.000330832
-1.89012e-06
0.000331701
-1.73845e-06
0.000332494
-1.5862e-06
0.000333211
-1.4335e-06
0.000333851
-1.28046e-06
0.000334415
-1.1272e-06
0.000334902
-9.73842e-07
0.000335312
-8.20505e-07
0.000335646
-6.67306e-07
0.000335903
-5.14362e-07
0.000336084
-3.61788e-07
0.000336188
-2.09698e-07
0.000336217
-5.82047e-08
0.000336171
9.25814e-08
0.000336049
2.42553e-07
0.000335853
3.91603e-07
0.000335583
5.39629e-07
0.00033524
6.86532e-07
0.000334823
8.32213e-07
0.000334334
9.7658e-07
0.000333774
1.11954e-06
0.000333143
1.26101e-06
0.000332443
1.4009e-06
0.000331673
1.53913e-06
0.000330834
1.67564e-06
0.000329929
1.81033e-06
0.000328957
1.94316e-06
0.000327919
2.07404e-06
0.000326817
2.20293e-06
0.000325652
2.32977e-06
0.000324424
2.4545e-06
0.000323135
2.57708e-06
0.000321786
2.69746e-06
0.000320377
2.8156e-06
0.000318911
2.93147e-06
0.000317388
3.04503e-06
0.000315809
3.15626e-06
0.000314176
3.26513e-06
0.000312489
3.37163e-06
0.000310751
3.47573e-06
0.000308962
3.57742e-06
0.000307123
3.6767e-06
0.000305235
3.77355e-06
0.000303301
3.86798e-06
0.00030132
3.95998e-06
0.000299295
4.04956e-06
0.000297226
4.13672e-06
0.000295114
4.22147e-06
0.000292962
4.30384e-06
0.000290769
4.38382e-06
0.000288538
4.46143e-06
0.000286269
4.53671e-06
0.000283964
4.60966e-06
0.000281623
4.68031e-06
0.000279248
4.74869e-06
0.00027684
4.81483e-06
0.0002744
4.87874e-06
0.00027193
4.94048e-06
0.000269429
5.00006e-06
0.0002669
5.05752e-06
0.000264343
5.11289e-06
0.000261759
5.16622e-06
0.00025915
5.21753e-06
0.000256516
5.26687e-06
0.000253858
5.31428e-06
0.000251178
5.35979e-06
0.000248476
5.40344e-06
0.000245753
5.44528e-06
0.00024301
5.48535e-06
0.000240247
5.52368e-06
0.000237467
5.56033e-06
0.000234669
5.59533e-06
0.000231854
5.62872e-06
0.000229023
5.66055e-06
0.000226178
5.69085e-06
0.000223317
5.71968e-06
0.000220443
5.74707e-06
0.000217557
5.77307e-06
0.000214657
5.79771e-06
0.000211747
5.82104e-06
0.000208825
5.8431e-06
0.000205892
5.86393e-06
0.00020295
5.88358e-06
0.000199999
5.90207e-06
0.000197039
5.91945e-06
0.000194071
5.93576e-06
0.000191095
5.95104e-06
0.000188112
5.96532e-06
0.000185123
5.97865e-06
0.000182127
5.99105e-06
0.000179125
6.00258e-06
0.000176119
6.01325e-06
0.000173107
6.02311e-06
0.000170091
6.03219e-06
0.00016707
6.04052e-06
0.000164046
6.04814e-06
0.000161018
6.05509e-06
0.000157987
6.06138e-06
0.000154954
6.06705e-06
0.000151917
6.07214e-06
0.000148879
6.07667e-06
0.000145839
6.08067e-06
0.000142796
6.08416e-06
0.000139753
6.08719e-06
0.000136708
6.08976e-06
0.000133662
6.09192e-06
0.000130615
6.09368e-06
0.000127567
6.09507e-06
0.000124519
6.09611e-06
0.00012147
6.09683e-06
0.000118422
6.09725e-06
0.000115373
6.09739e-06
0.000112324
6.09727e-06
0.000109276
6.09691e-06
0.000106228
6.09634e-06
0.00010318
6.09557e-06
0.000100132
6.09462e-06
9.70855e-05
6.09352e-06
9.40394e-05
6.09226e-06
9.09939e-05
6.09088e-06
8.79492e-05
6.0894e-06
8.49053e-05
6.08781e-06
8.18622e-05
6.08615e-06
7.882e-05
6.08442e-06
7.57786e-05
6.08265e-06
7.27382e-05
6.08083e-06
6.96987e-05
6.07899e-06
6.66601e-05
6.07714e-06
6.36225e-05
6.07528e-06
6.05858e-05
6.07344e-06
5.755e-05
6.07162e-06
5.45151e-05
6.06982e-06
5.14811e-05
6.06807e-06
4.84479e-05
6.06636e-06
4.54155e-05
6.06472e-06
4.2384e-05
6.06314e-06
3.93532e-05
6.06163e-06
3.63231e-05
6.0602e-06
3.32937e-05
6.05885e-06
3.02649e-05
6.0576e-06
2.72368e-05
6.05645e-06
2.42091e-05
6.05539e-06
2.11819e-05
6.05445e-06
1.81551e-05
6.05361e-06
1.51287e-05
6.05288e-06
1.21026e-05
6.05228e-06
9.07673e-06
6.05179e-06
6.05105e-06
6.05142e-06
3.02549e-06
6.05117e-06
6.05105e-06
3.70239e-06
-1.11075e-05
7.40485e-06
-1.11077e-05
1.11074e-05
-1.11081e-05
1.48102e-05
-1.11087e-05
1.85133e-05
-1.11094e-05
2.22166e-05
-1.11103e-05
2.59204e-05
-1.11114e-05
2.96245e-05
-1.11126e-05
3.33291e-05
-1.1114e-05
3.70342e-05
-1.11154e-05
4.07398e-05
-1.1117e-05
4.4446e-05
-1.11186e-05
4.81528e-05
-1.11202e-05
5.18601e-05
-1.11219e-05
5.55679e-05
-1.11235e-05
5.92763e-05
-1.11251e-05
6.29853e-05
-1.11265e-05
6.66946e-05
-1.11279e-05
7.04044e-05
-1.1129e-05
7.41146e-05
-1.113e-05
7.7825e-05
-1.11306e-05
8.15355e-05
-1.1131e-05
8.52461e-05
-1.1131e-05
8.89565e-05
-1.11306e-05
9.26667e-05
-1.11297e-05
9.63765e-05
-1.11283e-05
0.000100086
-1.11263e-05
0.000103794
-1.11236e-05
0.000107501
-1.11202e-05
0.000111207
-1.11161e-05
0.000114911
-1.1111e-05
0.000118613
-1.11051e-05
0.000122313
-1.10982e-05
0.000126011
-1.10902e-05
0.000129705
-1.1081e-05
0.000133396
-1.10706e-05
0.000137083
-1.10589e-05
0.000140766
-1.10458e-05
0.000144444
-1.10313e-05
0.000148116
-1.10152e-05
0.000151783
-1.09974e-05
0.000155443
-1.09779e-05
0.000159097
-1.09565e-05
0.000162742
-1.09333e-05
0.000166379
-1.0908e-05
0.000170007
-1.08806e-05
0.000173626
-1.08511e-05
0.000177234
-1.08192e-05
0.00018083
-1.0785e-05
0.000184414
-1.07483e-05
0.000187985
-1.0709e-05
0.000191542
-1.0667e-05
0.000195085
-1.06223e-05
0.000198611
-1.05748e-05
0.000202121
-1.05243e-05
0.000205613
-1.04708e-05
0.000209086
-1.04141e-05
0.000212539
-1.03543e-05
0.000215972
-1.02911e-05
0.000219382
-1.02246e-05
0.000222769
-1.01546e-05
0.000226131
-1.00811e-05
0.000229468
-1.0004e-05
0.000232778
-9.92325e-06
0.000236059
-9.83872e-06
0.000239312
-9.75038e-06
0.000242533
-9.65817e-06
0.000245723
-9.56204e-06
0.000248879
-9.46193e-06
0.000252
-9.35781e-06
0.000255086
-9.24962e-06
0.000258134
-9.13733e-06
0.000261143
-9.02092e-06
0.000264112
-8.90035e-06
0.00026704
-8.77562e-06
0.000269924
-8.64671e-06
0.000272765
-8.51361e-06
0.000275559
-8.37633e-06
0.000278306
-8.23488e-06
0.000281005
-8.08926e-06
0.000283654
-7.93951e-06
0.000286251
-7.78565e-06
0.000288796
-7.62772e-06
0.000291287
-7.46576e-06
0.000293722
-7.29983e-06
0.000296101
-7.12998e-06
0.000298422
-6.95628e-06
0.000300684
-6.77881e-06
0.000302885
-6.59764e-06
0.000305024
-6.41286e-06
0.000307101
-6.22457e-06
0.000309114
-6.03287e-06
0.000311062
-5.83787e-06
0.000312943
-5.63968e-06
0.000314758
-5.43843e-06
0.000316504
-5.23424e-06
0.000318181
-5.02724e-06
0.000319789
-4.81758e-06
0.000321325
-4.6054e-06
0.00032279
-4.39085e-06
0.000324182
-4.17408e-06
0.000325502
-3.95526e-06
0.000326748
-3.73454e-06
0.000327919
-3.51208e-06
0.000329016
-3.28807e-06
0.000330037
-3.06267e-06
0.000330983
-2.83605e-06
0.000331853
-2.60839e-06
0.000332647
-2.37987e-06
0.000333364
-2.15067e-06
0.000334005
-1.92096e-06
0.000334568
-1.69092e-06
0.000335055
-1.46074e-06
0.000335465
-1.23059e-06
0.000335799
-1.00064e-06
0.000336055
-7.7108e-07
0.000336236
-5.42076e-07
0.00033634
-3.13801e-07
0.000336368
-8.64234e-08
0.000336321
1.39891e-07
0.000336198
3.6498e-07
0.000336001
5.88684e-07
0.00033573
8.10849e-07
0.000335385
1.03132e-06
0.000334967
1.24996e-06
0.000334477
1.46663e-06
0.000333916
1.68118e-06
0.000333283
1.89348e-06
0.000332581
2.10342e-06
0.000331809
2.31087e-06
0.000330969
2.51571e-06
0.000330062
2.71784e-06
0.000329088
2.91716e-06
0.000328048
3.11356e-06
0.000326944
3.30697e-06
0.000325776
3.49729e-06
0.000324546
3.68444e-06
0.000323255
3.86836e-06
0.000321904
4.04898e-06
0.000320493
4.22624e-06
0.000319024
4.40008e-06
0.000317499
4.57046e-06
0.000315918
4.73734e-06
0.000314282
4.90067e-06
0.000312594
5.06043e-06
0.000310853
5.2166e-06
0.000309061
5.36915e-06
0.00030722
5.51807e-06
0.00030533
5.66336e-06
0.000303393
5.805e-06
0.00030141
5.94299e-06
0.000299382
6.07735e-06
0.000297311
6.20809e-06
0.000295197
6.33521e-06
0.000293042
6.45873e-06
0.000290847
6.57868e-06
0.000288613
6.69508e-06
0.000286342
6.80797e-06
0.000284034
6.91736e-06
0.000281691
7.02331e-06
0.000279314
7.12585e-06
0.000276904
7.22501e-06
0.000274462
7.32085e-06
0.000271989
7.41341e-06
0.000269486
7.50273e-06
0.000266955
7.58888e-06
0.000264396
7.6719e-06
0.00026181
7.75184e-06
0.000259199
7.82876e-06
0.000256563
7.90272e-06
0.000253904
7.97378e-06
0.000251222
8.042e-06
0.000248518
8.10743e-06
0.000245793
8.17014e-06
0.000243048
8.23019e-06
0.000240284
8.28764e-06
0.000237502
8.34255e-06
0.000234702
8.395e-06
0.000231886
8.44503e-06
0.000229054
8.49272e-06
0.000226206
8.53813e-06
0.000223345
8.58132e-06
0.000220469
8.62235e-06
0.000217581
8.6613e-06
0.000214681
8.69821e-06
0.000211769
8.73315e-06
0.000208846
8.76619e-06
0.000205912
8.79739e-06
0.000202969
8.8268e-06
0.000200016
8.85449e-06
0.000197055
8.88051e-06
0.000194086
8.90493e-06
0.000191109
8.9278e-06
0.000188126
8.94918e-06
0.000185135
8.96912e-06
0.000182138
8.98769e-06
0.000179136
9.00492e-06
0.000176128
9.02089e-06
0.000173116
9.03564e-06
0.000170099
9.04921e-06
0.000167078
9.06167e-06
0.000164053
9.07307e-06
0.000161024
9.08344e-06
0.000157993
9.09284e-06
0.000154959
9.10131e-06
0.000151922
9.1089e-06
0.000148883
9.11566e-06
0.000145842
9.12162e-06
0.000142799
9.12684e-06
0.000139755
9.13134e-06
0.00013671
9.13517e-06
0.000133663
9.13837e-06
0.000130616
9.14098e-06
0.000127568
9.14304e-06
0.00012452
9.14457e-06
0.000121471
9.14562e-06
0.000118422
9.14622e-06
0.000115373
9.1464e-06
0.000112324
9.1462e-06
0.000109275
9.14564e-06
0.000106227
9.14476e-06
0.000103179
9.14358e-06
0.000100131
9.14214e-06
9.70843e-05
9.14045e-06
9.4038e-05
9.13855e-06
9.09924e-05
9.13646e-06
8.79476e-05
9.13421e-06
8.49036e-05
9.13182e-06
8.18605e-05
9.12931e-06
7.88182e-05
9.1267e-06
7.57768e-05
9.12402e-06
7.27364e-05
9.12128e-06
6.96969e-05
9.1185e-06
6.66583e-05
9.11571e-06
6.36207e-05
9.11291e-06
6.0584e-05
9.11013e-06
5.75482e-05
9.10738e-06
5.45133e-05
9.10468e-06
5.14794e-05
9.10204e-06
4.84462e-05
9.09948e-06
4.5414e-05
9.097e-06
4.23825e-05
9.09461e-06
3.93518e-05
9.09234e-06
3.63218e-05
9.09019e-06
3.32925e-05
9.08817e-06
3.02638e-05
9.08628e-06
2.72357e-05
9.08454e-06
2.42081e-05
9.08296e-06
2.11811e-05
9.08153e-06
1.81544e-05
9.08027e-06
1.51281e-05
9.07918e-06
1.21021e-05
9.07827e-06
9.07636e-06
9.07753e-06
6.0508e-06
9.07698e-06
3.02537e-06
9.07661e-06
9.07642e-06
3.7022e-06
-1.48097e-05
7.40447e-06
-1.481e-05
1.11069e-05
-1.48105e-05
1.48095e-05
-1.48113e-05
1.85124e-05
-1.48123e-05
2.22155e-05
-1.48135e-05
2.59191e-05
-1.4815e-05
2.96231e-05
-1.48166e-05
3.33276e-05
-1.48185e-05
3.70327e-05
-1.48205e-05
4.07382e-05
-1.48226e-05
4.44444e-05
-1.48247e-05
4.81511e-05
-1.4827e-05
5.18584e-05
-1.48292e-05
5.55664e-05
-1.48314e-05
5.92749e-05
-1.48336e-05
6.29839e-05
-1.48356e-05
6.66935e-05
-1.48374e-05
7.04035e-05
-1.4839e-05
7.41139e-05
-1.48404e-05
7.78246e-05
-1.48413e-05
8.15355e-05
-1.48419e-05
8.52465e-05
-1.4842e-05
8.89574e-05
-1.48415e-05
9.26681e-05
-1.48404e-05
9.63785e-05
-1.48386e-05
0.000100088
-1.4836e-05
0.000103797
-1.48326e-05
0.000107505
-1.48282e-05
0.000111212
-1.48227e-05
0.000114917
-1.48162e-05
0.00011862
-1.48084e-05
0.000122321
-1.47992e-05
0.00012602
-1.47887e-05
0.000129715
-1.47766e-05
0.000133408
-1.47629e-05
0.000137096
-1.47474e-05
0.00014078
-1.47301e-05
0.00014446
-1.47108e-05
0.000148134
-1.46894e-05
0.000151803
-1.46659e-05
0.000155465
-1.464e-05
0.00015912
-1.46117e-05
0.000162767
-1.45808e-05
0.000166407
-1.45473e-05
0.000170037
-1.45109e-05
0.000173658
-1.44717e-05
0.000177268
-1.44293e-05
0.000180867
-1.43838e-05
0.000184453
-1.4335e-05
0.000188027
-1.42828e-05
0.000191587
-1.4227e-05
0.000195132
-1.41675e-05
0.000198662
-1.41043e-05
0.000202175
-1.40371e-05
0.00020567
-1.39659e-05
0.000209146
-1.38905e-05
0.000212603
-1.38108e-05
0.000216038
-1.37267e-05
0.000219452
-1.36382e-05
0.000222842
-1.3545e-05
0.000226208
-1.34471e-05
0.000229549
-1.33444e-05
0.000232862
-1.32368e-05
0.000236148
-1.31242e-05
0.000239404
-1.30065e-05
0.000242629
-1.28837e-05
0.000245823
-1.27556e-05
0.000248983
-1.26222e-05
0.000252109
-1.24834e-05
0.000255198
-1.23392e-05
0.00025825
-1.21895e-05
0.000261264
-1.20343e-05
0.000264237
-1.18736e-05
0.000267169
-1.17073e-05
0.000270058
-1.15355e-05
0.000272902
-1.1358e-05
0.000275701
-1.11749e-05
0.000278452
-1.09863e-05
0.000281155
-1.07921e-05
0.000283808
-1.05924e-05
0.000286409
-1.03872e-05
0.000288958
-1.01766e-05
0.000291453
-9.96053e-06
0.000293892
-9.7392e-06
0.000296275
-9.51263e-06
0.0002986
-9.28092e-06
0.000300865
-9.04416e-06
0.00030307
-8.80246e-06
0.000305213
-8.55595e-06
0.000307293
-8.30473e-06
0.000309309
-8.04897e-06
0.00031126
-7.78878e-06
0.000313145
-7.52434e-06
0.000314962
-7.2558e-06
0.000316711
-6.98334e-06
0.000318391
-6.70713e-06
0.000320001
-6.42736e-06
0.00032154
-6.14422e-06
0.000323007
-5.85791e-06
0.000324401
-5.56864e-06
0.000325723
-5.27663e-06
0.00032697
-4.98207e-06
0.000328143
-4.68521e-06
0.000329241
-4.38626e-06
0.000330264
-4.08545e-06
0.000331211
-3.78302e-06
0.000332082
-3.4792e-06
0.000332876
-3.17423e-06
0.000333594
-2.86834e-06
0.000334235
-2.56179e-06
0.000334799
-2.25479e-06
0.000335286
-1.9476e-06
0.000335695
-1.64046e-06
0.000336028
-1.33359e-06
0.000336285
-1.02724e-06
0.000336464
-7.21636e-07
0.000336567
-4.17007e-07
0.000336594
-1.13579e-07
0.000336546
1.88426e-07
0.000336422
4.88791e-07
0.000336223
7.87304e-07
0.000335951
1.08376e-06
0.000335604
1.37795e-06
0.000335184
1.66969e-06
0.000334692
1.95879e-06
0.000334128
2.24506e-06
0.000333493
2.52833e-06
0.000332788
2.80843e-06
0.000332014
3.0852e-06
0.000331171
3.35849e-06
0.000330261
3.62816e-06
0.000329284
3.89407e-06
0.000328241
4.15608e-06
0.000327134
4.41409e-06
0.000325964
4.66797e-06
0.00032473
4.91762e-06
0.000323436
5.16295e-06
0.000322081
5.40387e-06
0.000320667
5.64029e-06
0.000319195
5.87216e-06
0.000317666
6.0994e-06
0.000316081
6.32195e-06
0.000314442
6.53978e-06
0.00031275
6.75284e-06
0.000311005
6.96109e-06
0.00030921
7.16451e-06
0.000307365
7.36309e-06
0.000305471
7.55681e-06
0.000303531
7.74566e-06
0.000301544
7.92965e-06
0.000299513
8.10878e-06
0.000297438
8.28307e-06
0.00029532
8.45253e-06
0.000293162
8.6172e-06
0.000290964
8.77709e-06
0.000288726
8.93225e-06
0.000286452
9.08271e-06
0.000284141
9.22852e-06
0.000281794
9.36972e-06
0.000279414
9.50637e-06
0.000277
9.63852e-06
0.000274555
9.76623e-06
0.000272079
9.88957e-06
0.000269573
1.00086e-05
0.000267038
1.01234e-05
0.000264476
1.0234e-05
0.000261887
1.03405e-05
0.000259273
1.0443e-05
0.000256634
1.05415e-05
0.000253972
1.06361e-05
0.000251287
1.0727e-05
0.00024858
1.08141e-05
0.000245853
1.08977e-05
0.000243105
1.09776e-05
0.000240339
1.10541e-05
0.000237554
1.11273e-05
0.000234752
1.11971e-05
0.000231934
1.12637e-05
0.000229099
1.13272e-05
0.00022625
1.13876e-05
0.000223386
1.14451e-05
0.000220508
1.14997e-05
0.000217618
1.15516e-05
0.000214716
1.16007e-05
0.000211802
1.16472e-05
0.000208877
1.16911e-05
0.000205942
1.17326e-05
0.000202997
1.17718e-05
0.000200042
1.18086e-05
0.00019708
1.18432e-05
0.000194109
1.18756e-05
0.000191131
1.19061e-05
0.000188146
1.19345e-05
0.000185154
1.1961e-05
0.000182156
1.19856e-05
0.000179152
1.20085e-05
0.000176143
1.20298e-05
0.00017313
1.20493e-05
0.000170111
1.20674e-05
0.000167089
1.20839e-05
0.000164063
1.2099e-05
0.000161034
1.21128e-05
0.000158002
1.21252e-05
0.000154966
1.21365e-05
0.000151929
1.21465e-05
0.000148889
1.21554e-05
0.000145847
1.21633e-05
0.000142804
1.21702e-05
0.000139759
1.21762e-05
0.000136713
1.21812e-05
0.000133666
1.21854e-05
0.000130618
1.21888e-05
0.00012757
1.21915e-05
0.000124521
1.21935e-05
0.000121471
1.21949e-05
0.000118422
1.21956e-05
0.000115373
1.21958e-05
0.000112323
1.21955e-05
0.000109274
1.21947e-05
0.000106226
1.21935e-05
0.000103177
1.21919e-05
0.00010013
1.21899e-05
9.70824e-05
1.21876e-05
9.40359e-05
1.2185e-05
9.09902e-05
1.21822e-05
8.79452e-05
1.21792e-05
8.49011e-05
1.21759e-05
8.18579e-05
1.21726e-05
7.88155e-05
1.21691e-05
7.57741e-05
1.21654e-05
7.27336e-05
1.21618e-05
6.96941e-05
1.2158e-05
6.66555e-05
1.21543e-05
6.36179e-05
1.21505e-05
6.05812e-05
1.21468e-05
5.75455e-05
1.21431e-05
5.45107e-05
1.21395e-05
5.14768e-05
1.21359e-05
4.84438e-05
1.21325e-05
4.54116e-05
1.21292e-05
4.23802e-05
1.2126e-05
3.93496e-05
1.21229e-05
3.63198e-05
1.21201e-05
3.32906e-05
1.21173e-05
3.02621e-05
1.21148e-05
2.72341e-05
1.21125e-05
2.42067e-05
1.21104e-05
2.11798e-05
1.21084e-05
1.81533e-05
1.21068e-05
1.51272e-05
1.21053e-05
1.21014e-05
1.21041e-05
9.07581e-06
1.21031e-05
6.05043e-06
1.21023e-05
3.02519e-06
1.21019e-05
1.21016e-05
3.70194e-06
-1.85116e-05
7.40395e-06
-1.8512e-05
1.11061e-05
-1.85126e-05
1.48085e-05
-1.85136e-05
1.85111e-05
-1.85149e-05
2.22141e-05
-1.85165e-05
2.59175e-05
-1.85184e-05
2.96213e-05
-1.85205e-05
3.33257e-05
-1.85228e-05
3.70306e-05
-1.85254e-05
4.0736e-05
-1.8528e-05
4.44421e-05
-1.85308e-05
4.81489e-05
-1.85337e-05
5.18562e-05
-1.85366e-05
5.55642e-05
-1.85394e-05
5.92729e-05
-1.85422e-05
6.29821e-05
-1.85448e-05
6.66919e-05
-1.85472e-05
7.04022e-05
-1.85493e-05
7.41129e-05
-1.85511e-05
7.7824e-05
-1.85524e-05
8.15354e-05
-1.85533e-05
8.5247e-05
-1.85535e-05
8.89585e-05
-1.85531e-05
9.26699e-05
-1.85518e-05
9.63811e-05
-1.85497e-05
0.000100092
-1.85467e-05
0.000103802
-1.85425e-05
0.000107511
-1.85372e-05
0.000111218
-1.85305e-05
0.000114925
-1.85225e-05
0.000118629
-1.85129e-05
0.000122332
-1.85017e-05
0.000126032
-1.84887e-05
0.000129729
-1.84738e-05
0.000133423
-1.84568e-05
0.000137113
-1.84377e-05
0.0001408
-1.84163e-05
0.000144481
-1.83924e-05
0.000148158
-1.83659e-05
0.000151829
-1.83367e-05
0.000155493
-1.83046e-05
0.000159151
-1.82694e-05
0.000162801
-1.82311e-05
0.000166443
-1.81894e-05
0.000170076
-1.81442e-05
0.0001737
-1.80953e-05
0.000177313
-1.80426e-05
0.000180915
-1.7986e-05
0.000184506
-1.79252e-05
0.000188083
-1.78602e-05
0.000191647
-1.77907e-05
0.000195196
-1.77166e-05
0.000198729
-1.76377e-05
0.000202246
-1.75539e-05
0.000205745
-1.74651e-05
0.000209226
-1.73711e-05
0.000212687
-1.72717e-05
0.000216127
-1.71669e-05
0.000219545
-1.70564e-05
0.00022294
-1.69401e-05
0.000226311
-1.68179e-05
0.000229656
-1.66897e-05
0.000232975
-1.65554e-05
0.000236265
-1.64148e-05
0.000239527
-1.62678e-05
0.000242757
-1.61144e-05
0.000245956
-1.59544e-05
0.000249122
-1.57878e-05
0.000252253
-1.56144e-05
0.000255348
-1.54342e-05
0.000258406
-1.52472e-05
0.000261425
-1.50533e-05
0.000264403
-1.48525e-05
0.000267341
-1.46446e-05
0.000270235
-1.44298e-05
0.000273085
-1.4208e-05
0.000275889
-1.39791e-05
0.000278646
-1.37433e-05
0.000281355
-1.35005e-05
0.000284013
-1.32508e-05
0.00028662
-1.29942e-05
0.000289174
-1.27308e-05
0.000291674
-1.24606e-05
0.000294119
-1.21838e-05
0.000296507
-1.19004e-05
0.000298836
-1.16106e-05
0.000301107
-1.13144e-05
0.000303316
-1.10121e-05
0.000305464
-1.07037e-05
0.000307549
-1.03895e-05
0.000309569
-1.00695e-05
0.000311524
-9.74395e-06
0.000313413
-9.4131e-06
0.000315234
-9.07711e-06
0.000316987
-8.73619e-06
0.000318671
-8.39058e-06
0.000320284
-8.04051e-06
0.000321826
-7.68621e-06
0.000323296
-7.32794e-06
0.000324693
-6.96596e-06
0.000326017
-6.60053e-06
0.000327267
-6.23192e-06
0.000328442
-5.86042e-06
0.000329542
-5.4863e-06
0.000330567
-5.10985e-06
0.000331515
-4.73138e-06
0.000332387
-4.35116e-06
0.000333182
-3.9695e-06
0.000333901
-3.58669e-06
0.000334542
-3.20305e-06
0.000335106
-2.81886e-06
0.000335593
-2.43443e-06
0.000336002
-2.05005e-06
0.000336335
-1.66603e-06
0.00033659
-1.28266e-06
0.000336769
-9.00221e-07
0.000336871
-5.19012e-07
0.000336897
-1.39312e-07
0.000336846
2.386e-07
0.000336721
6.14454e-07
0.00033652
9.87983e-07
0.000336245
1.35893e-06
0.000335896
1.72703e-06
0.000335473
2.09206e-06
0.000334978
2.45377e-06
0.000334412
2.81194e-06
0.000333774
3.16634e-06
0.000333065
3.51676e-06
0.000332287
3.86302e-06
0.000331441
4.2049e-06
0.000330527
4.54224e-06
0.000329546
4.87487e-06
0.0003285
5.20261e-06
0.000327388
5.52533e-06
0.000326213
5.84287e-06
0.000324976
6.15512e-06
0.000323677
6.46195e-06
0.000322318
6.76324e-06
0.000320899
7.05891e-06
0.000319422
7.34886e-06
0.000317889
7.63301e-06
0.000316299
7.9113e-06
0.000314655
8.18366e-06
0.000312958
8.45004e-06
0.000311209
8.71041e-06
0.000309409
8.96472e-06
0.000307559
9.21297e-06
0.00030566
9.45512e-06
0.000303715
9.69119e-06
0.000301723
9.92116e-06
0.000299687
1.0145e-05
0.000297607
1.03629e-05
0.000295485
1.05747e-05
0.000293322
1.07804e-05
0.000291119
1.09802e-05
0.000288877
1.11741e-05
0.000286598
1.13621e-05
0.000284282
1.15443e-05
0.000281931
1.17207e-05
0.000279546
1.18914e-05
0.000277128
1.20565e-05
0.000274678
1.2216e-05
0.000272198
1.237e-05
0.000269687
1.25187e-05
0.000267149
1.2662e-05
0.000264583
1.28002e-05
0.00026199
1.29331e-05
0.000259372
1.30611e-05
0.000256729
1.31841e-05
0.000254063
1.33023e-05
0.000251374
1.34157e-05
0.000248664
1.35245e-05
0.000245933
1.36287e-05
0.000243182
1.37285e-05
0.000240412