/*--------------------------------*- C++ -*----------------------------------*\
| =========                 |                                                 |
| \\      /  F ield         | OpenFOAM: The Open Source CFD Toolbox           |
|  \\    /   O peration     | Version:  v2012                                 |
|   \\  /    A nd           | Website:  www.openfoam.com                      |
|    \\/     M anipulation  |                                                 |
\*---------------------------------------------------------------------------*/
FoamFile
{
    version     2.0;
    format      ascii;
    class       volVectorField;
    location    "9.5";
    object      Psi;
}
// * * * * * * * * * * * * * * * * * * * * * * * * * * * * * * * * * * * * * //

dimensions      [0 2 -1 0 0 0 0];


internalField   nonuniform List<vector> 
65536
(
(0 0 9.25583e-06)
(0 0 2.77677e-05)
(0 0 4.628e-05)
(0 0 6.47931e-05)
(0 0 8.33073e-05)
(0 0 0.000101823)
(0 0 0.00012034)
(0 0 0.000138859)
(0 0 0.000157381)
(0 0 0.000175904)
(0 0 0.00019443)
(0 0 0.000212959)
(0 0 0.00023149)
(0 0 0.000250024)
(0 0 0.000268561)
(0 0 0.0002871)
(0 0 0.000305642)
(0 0 0.000324186)
(0 0 0.000342732)
(0 0 0.00036128)
(0 0 0.000379829)
(0 0 0.000398379)
(0 0 0.00041693)
(0 0 0.000435479)
(0 0 0.000454028)
(0 0 0.000472575)
(0 0 0.000491118)
(0 0 0.000509658)
(0 0 0.000528193)
(0 0 0.000546721)
(0 0 0.000565242)
(0 0 0.000583753)
(0 0 0.000602253)
(0 0 0.000620742)
(0 0 0.000639215)
(0 0 0.000657672)
(0 0 0.000676111)
(0 0 0.000694529)
(0 0 0.000712924)
(0 0 0.000731294)
(0 0 0.000749634)
(0 0 0.000767944)
(0 0 0.00078622)
(0 0 0.000804458)
(0 0 0.000822656)
(0 0 0.00084081)
(0 0 0.000858916)
(0 0 0.000876972)
(0 0 0.000894971)
(0 0 0.000912912)
(0 0 0.00093079)
(0 0 0.000948599)
(0 0 0.000966336)
(0 0 0.000983997)
(0 0 0.00100158)
(0 0 0.00101907)
(0 0 0.00103647)
(0 0 0.00105377)
(0 0 0.00107097)
(0 0 0.00108806)
(0 0 0.00110504)
(0 0 0.0011219)
(0 0 0.00113863)
(0 0 0.00115523)
(0 0 0.0011717)
(0 0 0.00118802)
(0 0 0.00120419)
(0 0 0.0012202)
(0 0 0.00123605)
(0 0 0.00125173)
(0 0 0.00126723)
(0 0 0.00128255)
(0 0 0.00129767)
(0 0 0.0013126)
(0 0 0.00132733)
(0 0 0.00134184)
(0 0 0.00135614)
(0 0 0.00137021)
(0 0 0.00138405)
(0 0 0.00139765)
(0 0 0.001411)
(0 0 0.0014241)
(0 0 0.00143694)
(0 0 0.00144952)
(0 0 0.00146182)
(0 0 0.00147384)
(0 0 0.00148558)
(0 0 0.00149702)
(0 0 0.00150816)
(0 0 0.001519)
(0 0 0.00152953)
(0 0 0.00153975)
(0 0 0.00154964)
(0 0 0.0015592)
(0 0 0.00156843)
(0 0 0.00157732)
(0 0 0.00158587)
(0 0 0.00159408)
(0 0 0.00160193)
(0 0 0.00160943)
(0 0 0.00161657)
(0 0 0.00162334)
(0 0 0.00162975)
(0 0 0.00163579)
(0 0 0.00164146)
(0 0 0.00164675)
(0 0 0.00165167)
(0 0 0.00165621)
(0 0 0.00166037)
(0 0 0.00166415)
(0 0 0.00166754)
(0 0 0.00167056)
(0 0 0.00167319)
(0 0 0.00167543)
(0 0 0.0016773)
(0 0 0.00167878)
(0 0 0.00167987)
(0 0 0.00168059)
(0 0 0.00168093)
(0 0 0.00168089)
(0 0 0.00168048)
(0 0 0.00167969)
(0 0 0.00167853)
(0 0 0.001677)
(0 0 0.0016751)
(0 0 0.00167284)
(0 0 0.00167023)
(0 0 0.00166725)
(0 0 0.00166393)
(0 0 0.00166026)
(0 0 0.00165624)
(0 0 0.00165189)
(0 0 0.0016472)
(0 0 0.00164218)
(0 0 0.00163683)
(0 0 0.00163117)
(0 0 0.00162519)
(0 0 0.0016189)
(0 0 0.00161231)
(0 0 0.00160542)
(0 0 0.00159824)
(0 0 0.00159077)
(0 0 0.00158302)
(0 0 0.001575)
(0 0 0.0015667)
(0 0 0.00155814)
(0 0 0.00154933)
(0 0 0.00154026)
(0 0 0.00153095)
(0 0 0.0015214)
(0 0 0.00151161)
(0 0 0.0015016)
(0 0 0.00149137)
(0 0 0.00148092)
(0 0 0.00147026)
(0 0 0.0014594)
(0 0 0.00144835)
(0 0 0.0014371)
(0 0 0.00142566)
(0 0 0.00141405)
(0 0 0.00140226)
(0 0 0.00139031)
(0 0 0.00137819)
(0 0 0.00136592)
(0 0 0.00135349)
(0 0 0.00134092)
(0 0 0.0013282)
(0 0 0.00131535)
(0 0 0.00130237)
(0 0 0.00128926)
(0 0 0.00127604)
(0 0 0.00126269)
(0 0 0.00124924)
(0 0 0.00123567)
(0 0 0.00122201)
(0 0 0.00120825)
(0 0 0.00119439)
(0 0 0.00118044)
(0 0 0.00116641)
(0 0 0.0011523)
(0 0 0.00113811)
(0 0 0.00112384)
(0 0 0.00110951)
(0 0 0.0010951)
(0 0 0.00108064)
(0 0 0.00106611)
(0 0 0.00105153)
(0 0 0.00103689)
(0 0 0.00102221)
(0 0 0.00100747)
(0 0 0.000992693)
(0 0 0.000977872)
(0 0 0.000963011)
(0 0 0.000948114)
(0 0 0.000933181)
(0 0 0.000918217)
(0 0 0.000903223)
(0 0 0.000888201)
(0 0 0.000873153)
(0 0 0.000858082)
(0 0 0.000842989)
(0 0 0.000827875)
(0 0 0.000812744)
(0 0 0.000797596)
(0 0 0.000782434)
(0 0 0.000767258)
(0 0 0.000752069)
(0 0 0.000736871)
(0 0 0.000721662)
(0 0 0.000706446)
(0 0 0.000691223)
(0 0 0.000675994)
(0 0 0.00066076)
(0 0 0.000645522)
(0 0 0.000630281)
(0 0 0.000615038)
(0 0 0.000599793)
(0 0 0.000584548)
(0 0 0.000569303)
(0 0 0.000554058)
(0 0 0.000538815)
(0 0 0.000523573)
(0 0 0.000508333)
(0 0 0.000493096)
(0 0 0.000477862)
(0 0 0.000462632)
(0 0 0.000447404)
(0 0 0.000432181)
(0 0 0.000416962)
(0 0 0.000401747)
(0 0 0.000386537)
(0 0 0.000371331)
(0 0 0.000356129)
(0 0 0.000340932)
(0 0 0.00032574)
(0 0 0.000310553)
(0 0 0.00029537)
(0 0 0.000280192)
(0 0 0.000265018)
(0 0 0.000249848)
(0 0 0.000234683)
(0 0 0.000219521)
(0 0 0.000204364)
(0 0 0.00018921)
(0 0 0.00017406)
(0 0 0.000158913)
(0 0 0.000143769)
(0 0 0.000128628)
(0 0 0.000113489)
(0 0 9.83526e-05)
(0 0 8.32181e-05)
(0 0 6.80852e-05)
(0 0 5.29537e-05)
(0 0 3.78233e-05)
(0 0 2.26937e-05)
(0 0 7.56451e-06)
(0 0 2.77674e-05)
(0 0 8.33026e-05)
(0 0 0.000138839)
(0 0 0.000194378)
(0 0 0.000249921)
(0 0 0.000305467)
(0 0 0.000361019)
(0 0 0.000416576)
(0 0 0.000472139)
(0 0 0.00052771)
(0 0 0.000583288)
(0 0 0.000638874)
(0 0 0.000694468)
(0 0 0.00075007)
(0 0 0.00080568)
(0 0 0.000861299)
(0 0 0.000916924)
(0 0 0.000972557)
(0 0 0.0010282)
(0 0 0.00108384)
(0 0 0.00113949)
(0 0 0.00119514)
(0 0 0.00125079)
(0 0 0.00130644)
(0 0 0.00136209)
(0 0 0.00141773)
(0 0 0.00147336)
(0 0 0.00152898)
(0 0 0.00158458)
(0 0 0.00164017)
(0 0 0.00169573)
(0 0 0.00175127)
(0 0 0.00180677)
(0 0 0.00186224)
(0 0 0.00191766)
(0 0 0.00197304)
(0 0 0.00202835)
(0 0 0.00208361)
(0 0 0.0021388)
(0 0 0.00219391)
(0 0 0.00224893)
(0 0 0.00230387)
(0 0 0.0023587)
(0 0 0.00241342)
(0 0 0.00246801)
(0 0 0.00252248)
(0 0 0.0025768)
(0 0 0.00263097)
(0 0 0.00268497)
(0 0 0.0027388)
(0 0 0.00279244)
(0 0 0.00284587)
(0 0 0.00289909)
(0 0 0.00295207)
(0 0 0.00300481)
(0 0 0.00305729)
(0 0 0.0031095)
(0 0 0.00316141)
(0 0 0.00321302)
(0 0 0.0032643)
(0 0 0.00331524)
(0 0 0.00336582)
(0 0 0.00341603)
(0 0 0.00346584)
(0 0 0.00351524)
(0 0 0.0035642)
(0 0 0.00361272)
(0 0 0.00366076)
(0 0 0.00370831)
(0 0 0.00375535)
(0 0 0.00380187)
(0 0 0.00384783)
(0 0 0.00389322)
(0 0 0.00393801)
(0 0 0.0039822)
(0 0 0.00402575)
(0 0 0.00406864)
(0 0 0.00411086)
(0 0 0.00415238)
(0 0 0.00419319)
(0 0 0.00423326)
(0 0 0.00427257)
(0 0 0.0043111)
(0 0 0.00434883)
(0 0 0.00438574)
(0 0 0.00442181)
(0 0 0.00445702)
(0 0 0.00449136)
(0 0 0.0045248)
(0 0 0.00455732)
(0 0 0.00458892)
(0 0 0.00461956)
(0 0 0.00464924)
(0 0 0.00467793)
(0 0 0.00470563)
(0 0 0.00473231)
(0 0 0.00475797)
(0 0 0.00478258)
(0 0 0.00480614)
(0 0 0.00482864)
(0 0 0.00485006)
(0 0 0.00487039)
(0 0 0.00488962)
(0 0 0.00490774)
(0 0 0.00492475)
(0 0 0.00494063)
(0 0 0.00495539)
(0 0 0.004969)
(0 0 0.00498148)
(0 0 0.00499282)
(0 0 0.00500301)
(0 0 0.00501205)
(0 0 0.00501994)
(0 0 0.00502668)
(0 0 0.00503227)
(0 0 0.00503671)
(0 0 0.00504)
(0 0 0.00504216)
(0 0 0.00504317)
(0 0 0.00504305)
(0 0 0.0050418)
(0 0 0.00503943)
(0 0 0.00503594)
(0 0 0.00503135)
(0 0 0.00502566)
(0 0 0.00501889)
(0 0 0.00501103)
(0 0 0.00500211)
(0 0 0.00499213)
(0 0 0.00498111)
(0 0 0.00496906)
(0 0 0.00495599)
(0 0 0.00494192)
(0 0 0.00492685)
(0 0 0.00491082)
(0 0 0.00489382)
(0 0 0.00487588)
(0 0 0.00485701)
(0 0 0.00483723)
(0 0 0.00481656)
(0 0 0.00479501)
(0 0 0.00477259)
(0 0 0.00474934)
(0 0 0.00472525)
(0 0 0.00470036)
(0 0 0.00467468)
(0 0 0.00464823)
(0 0 0.00462102)
(0 0 0.00459308)
(0 0 0.00456442)
(0 0 0.00453506)
(0 0 0.00450502)
(0 0 0.00447431)
(0 0 0.00444297)
(0 0 0.00441099)
(0 0 0.0043784)
(0 0 0.00434523)
(0 0 0.00431148)
(0 0 0.00427717)
(0 0 0.00424233)
(0 0 0.00420696)
(0 0 0.00417109)
(0 0 0.00413473)
(0 0 0.0040979)
(0 0 0.00406061)
(0 0 0.00402289)
(0 0 0.00398474)
(0 0 0.00394619)
(0 0 0.00390724)
(0 0 0.00386791)
(0 0 0.00382822)
(0 0 0.00378819)
(0 0 0.00374782)
(0 0 0.00370712)
(0 0 0.00366612)
(0 0 0.00362483)
(0 0 0.00358326)
(0 0 0.00354141)
(0 0 0.00349931)
(0 0 0.00345697)
(0 0 0.00341439)
(0 0 0.00337159)
(0 0 0.00332858)
(0 0 0.00328537)
(0 0 0.00324197)
(0 0 0.00319839)
(0 0 0.00315464)
(0 0 0.00311073)
(0 0 0.00306667)
(0 0 0.00302246)
(0 0 0.00297812)
(0 0 0.00293365)
(0 0 0.00288907)
(0 0 0.00284437)
(0 0 0.00279958)
(0 0 0.00275468)
(0 0 0.00270969)
(0 0 0.00266463)
(0 0 0.00261948)
(0 0 0.00257427)
(0 0 0.00252898)
(0 0 0.00248364)
(0 0 0.00243825)
(0 0 0.0023928)
(0 0 0.00234731)
(0 0 0.00230178)
(0 0 0.00225622)
(0 0 0.00221062)
(0 0 0.00216499)
(0 0 0.00211934)
(0 0 0.00207367)
(0 0 0.00202799)
(0 0 0.00198228)
(0 0 0.00193657)
(0 0 0.00189084)
(0 0 0.00184511)
(0 0 0.00179938)
(0 0 0.00175364)
(0 0 0.00170791)
(0 0 0.00166217)
(0 0 0.00161644)
(0 0 0.00157072)
(0 0 0.001525)
(0 0 0.00147929)
(0 0 0.00143358)
(0 0 0.00138789)
(0 0 0.00134221)
(0 0 0.00129654)
(0 0 0.00125088)
(0 0 0.00120524)
(0 0 0.0011596)
(0 0 0.00111399)
(0 0 0.00106838)
(0 0 0.00102279)
(0 0 0.000977216)
(0 0 0.000931654)
(0 0 0.000886105)
(0 0 0.00084057)
(0 0 0.000795049)
(0 0 0.00074954)
(0 0 0.000704044)
(0 0 0.00065856)
(0 0 0.000613088)
(0 0 0.000567627)
(0 0 0.000522177)
(0 0 0.000476736)
(0 0 0.000431304)
(0 0 0.000385881)
(0 0 0.000340465)
(0 0 0.000295056)
(0 0 0.000249652)
(0 0 0.000204254)
(0 0 0.00015886)
(0 0 0.000113469)
(0 0 6.80806e-05)
(0 0 2.26934e-05)
(0 0 4.62784e-05)
(0 0 0.000138836)
(0 0 0.000231396)
(0 0 0.00032396)
(0 0 0.00041653)
(0 0 0.000509106)
(0 0 0.000601691)
(0 0 0.000694286)
(0 0 0.000786891)
(0 0 0.000879508)
(0 0 0.000972138)
(0 0 0.00106478)
(0 0 0.00115744)
(0 0 0.00125011)
(0 0 0.00134279)
(0 0 0.00143549)
(0 0 0.0015282)
(0 0 0.00162092)
(0 0 0.00171365)
(0 0 0.0018064)
(0 0 0.00189914)
(0 0 0.0019919)
(0 0 0.00208465)
(0 0 0.0021774)
(0 0 0.00227015)
(0 0 0.00236289)
(0 0 0.00245561)
(0 0 0.00254832)
(0 0 0.002641)
(0 0 0.00273364)
(0 0 0.00282625)
(0 0 0.00291882)
(0 0 0.00301133)
(0 0 0.00310378)
(0 0 0.00319616)
(0 0 0.00328845)
(0 0 0.00338066)
(0 0 0.00347276)
(0 0 0.00356475)
(0 0 0.00365661)
(0 0 0.00374833)
(0 0 0.00383989)
(0 0 0.00393129)
(0 0 0.00402249)
(0 0 0.0041135)
(0 0 0.00420429)
(0 0 0.00429484)
(0 0 0.00438513)
(0 0 0.00447515)
(0 0 0.00456488)
(0 0 0.00465429)
(0 0 0.00474336)
(0 0 0.00483207)
(0 0 0.00492039)
(0 0 0.00500831)
(0 0 0.00509579)
(0 0 0.00518282)
(0 0 0.00526936)
(0 0 0.00535539)
(0 0 0.00544088)
(0 0 0.0055258)
(0 0 0.00561012)
(0 0 0.00569382)
(0 0 0.00577686)
(0 0 0.00585921)
(0 0 0.00594084)
(0 0 0.00602172)
(0 0 0.00610181)
(0 0 0.00618109)
(0 0 0.00625951)
(0 0 0.00633706)
(0 0 0.00641368)
(0 0 0.00648935)
(0 0 0.00656404)
(0 0 0.0066377)
(0 0 0.0067103)
(0 0 0.00678182)
(0 0 0.00685221)
(0 0 0.00692144)
(0 0 0.00698947)
(0 0 0.00705627)
(0 0 0.00712181)
(0 0 0.00718605)
(0 0 0.00724895)
(0 0 0.00731049)
(0 0 0.00737063)
(0 0 0.00742934)
(0 0 0.00748659)
(0 0 0.00754234)
(0 0 0.00759657)
(0 0 0.00764925)
(0 0 0.00770034)
(0 0 0.00774982)
(0 0 0.00779766)
(0 0 0.00784384)
(0 0 0.00788833)
(0 0 0.0079311)
(0 0 0.00797214)
(0 0 0.00801143)
(0 0 0.00804893)
(0 0 0.00808464)
(0 0 0.00811853)
(0 0 0.00815059)
(0 0 0.0081808)
(0 0 0.00820916)
(0 0 0.00823564)
(0 0 0.00826024)
(0 0 0.00828294)
(0 0 0.00830374)
(0 0 0.00832264)
(0 0 0.00833962)
(0 0 0.00835469)
(0 0 0.00836784)
(0 0 0.00837907)
(0 0 0.00838839)
(0 0 0.00839579)
(0 0 0.00840128)
(0 0 0.00840486)
(0 0 0.00840654)
(0 0 0.00840633)
(0 0 0.00840425)
(0 0 0.00840029)
(0 0 0.00839447)
(0 0 0.00838681)
(0 0 0.00837732)
(0 0 0.00836601)
(0 0 0.0083529)
(0 0 0.00833802)
(0 0 0.00832138)
(0 0 0.008303)
(0 0 0.00828289)
(0 0 0.0082611)
(0 0 0.00823763)
(0 0 0.00821251)
(0 0 0.00818576)
(0 0 0.00815742)
(0 0 0.0081275)
(0 0 0.00809603)
(0 0 0.00806305)
(0 0 0.00802857)
(0 0 0.00799263)
(0 0 0.00795526)
(0 0 0.00791648)
(0 0 0.00787632)
(0 0 0.00783481)
(0 0 0.00779199)
(0 0 0.00774789)
(0 0 0.00770252)
(0 0 0.00765593)
(0 0 0.00760814)
(0 0 0.00755919)
(0 0 0.0075091)
(0 0 0.00745791)
(0 0 0.00740564)
(0 0 0.00735232)
(0 0 0.007298)
(0 0 0.00724268)
(0 0 0.00718641)
(0 0 0.00712922)
(0 0 0.00707112)
(0 0 0.00701216)
(0 0 0.00695236)
(0 0 0.00689174)
(0 0 0.00683034)
(0 0 0.00676818)
(0 0 0.00670529)
(0 0 0.00664169)
(0 0 0.00657741)
(0 0 0.00651248)
(0 0 0.00644692)
(0 0 0.00638076)
(0 0 0.00631402)
(0 0 0.00624671)
(0 0 0.00617888)
(0 0 0.00611053)
(0 0 0.0060417)
(0 0 0.00597239)
(0 0 0.00590264)
(0 0 0.00583246)
(0 0 0.00576187)
(0 0 0.0056909)
(0 0 0.00561955)
(0 0 0.00554786)
(0 0 0.00547583)
(0 0 0.00540348)
(0 0 0.00533084)
(0 0 0.00525791)
(0 0 0.00518472)
(0 0 0.00511127)
(0 0 0.00503758)
(0 0 0.00496367)
(0 0 0.00488956)
(0 0 0.00481524)
(0 0 0.00474074)
(0 0 0.00466607)
(0 0 0.00459123)
(0 0 0.00451625)
(0 0 0.00444113)
(0 0 0.00436588)
(0 0 0.00429051)
(0 0 0.00421504)
(0 0 0.00413947)
(0 0 0.0040638)
(0 0 0.00398806)
(0 0 0.00391223)
(0 0 0.00383635)
(0 0 0.0037604)
(0 0 0.0036844)
(0 0 0.00360835)
(0 0 0.00353226)
(0 0 0.00345614)
(0 0 0.00337999)
(0 0 0.00330382)
(0 0 0.00322762)
(0 0 0.00315141)
(0 0 0.00307519)
(0 0 0.00299897)
(0 0 0.00292274)
(0 0 0.00284651)
(0 0 0.00277028)
(0 0 0.00269406)
(0 0 0.00261785)
(0 0 0.00254165)
(0 0 0.00246547)
(0 0 0.00238929)
(0 0 0.00231314)
(0 0 0.002237)
(0 0 0.00216088)
(0 0 0.00208479)
(0 0 0.00200871)
(0 0 0.00193266)
(0 0 0.00185663)
(0 0 0.00178062)
(0 0 0.00170464)
(0 0 0.00162868)
(0 0 0.00155274)
(0 0 0.00147683)
(0 0 0.00140094)
(0 0 0.00132507)
(0 0 0.00124922)
(0 0 0.00117339)
(0 0 0.00109759)
(0 0 0.0010218)
(0 0 0.000946034)
(0 0 0.000870284)
(0 0 0.00079455)
(0 0 0.000718831)
(0 0 0.000643126)
(0 0 0.000567434)
(0 0 0.000491753)
(0 0 0.000416082)
(0 0 0.000340419)
(0 0 0.000264763)
(0 0 0.000189113)
(0 0 0.000113466)
(0 0 3.78218e-05)
(0 0 6.47886e-05)
(0 0 0.000194367)
(0 0 0.000323949)
(0 0 0.000453536)
(0 0 0.000583132)
(0 0 0.000712737)
(0 0 0.000842354)
(0 0 0.000971985)
(0 0 0.00110163)
(0 0 0.00123129)
(0 0 0.00136098)
(0 0 0.00149067)
(0 0 0.00162039)
(0 0 0.00175013)
(0 0 0.00187989)
(0 0 0.00200967)
(0 0 0.00213946)
(0 0 0.00226928)
(0 0 0.0023991)
(0 0 0.00252894)
(0 0 0.00265879)
(0 0 0.00278865)
(0 0 0.00291851)
(0 0 0.00304837)
(0 0 0.00317822)
(0 0 0.00330806)
(0 0 0.00343788)
(0 0 0.00356768)
(0 0 0.00369744)
(0 0 0.00382715)
(0 0 0.00395682)
(0 0 0.00408642)
(0 0 0.00421595)
(0 0 0.00434539)
(0 0 0.00447474)
(0 0 0.00460397)
(0 0 0.00473307)
(0 0 0.00486203)
(0 0 0.00499083)
(0 0 0.00511945)
(0 0 0.00524788)
(0 0 0.00537609)
(0 0 0.00550406)
(0 0 0.00563177)
(0 0 0.00575921)
(0 0 0.00588633)
(0 0 0.00601313)
(0 0 0.00613957)
(0 0 0.00626563)
(0 0 0.00639127)
(0 0 0.00651647)
(0 0 0.0066412)
(0 0 0.00676543)
(0 0 0.00688912)
(0 0 0.00701224)
(0 0 0.00713475)
(0 0 0.00725663)
(0 0 0.00737782)
(0 0 0.0074983)
(0 0 0.00761802)
(0 0 0.00773695)
(0 0 0.00785505)
(0 0 0.00797227)
(0 0 0.00808856)
(0 0 0.0082039)
(0 0 0.00831822)
(0 0 0.0084315)
(0 0 0.00854368)
(0 0 0.00865471)
(0 0 0.00876456)
(0 0 0.00887316)
(0 0 0.00898048)
(0 0 0.00908647)
(0 0 0.00919108)
(0 0 0.00929426)
(0 0 0.00939595)
(0 0 0.00949612)
(0 0 0.00959472)
(0 0 0.00969169)
(0 0 0.00978698)
(0 0 0.00988055)
(0 0 0.00997235)
(0 0 0.0100623)
(0 0 0.0101504)
(0 0 0.0102366)
(0 0 0.0103209)
(0 0 0.0104031)
(0 0 0.0104833)
(0 0 0.0105614)
(0 0 0.0106374)
(0 0 0.0107112)
(0 0 0.0107827)
(0 0 0.010852)
(0 0 0.0109191)
(0 0 0.0109837)
(0 0 0.0110461)
(0 0 0.011106)
(0 0 0.0111635)
(0 0 0.0112185)
(0 0 0.011271)
(0 0 0.011321)
(0 0 0.0113685)
(0 0 0.0114134)
(0 0 0.0114557)
(0 0 0.0114954)
(0 0 0.0115325)
(0 0 0.011567)
(0 0 0.0115988)
(0 0 0.0116279)
(0 0 0.0116544)
(0 0 0.0116782)
(0 0 0.0116993)
(0 0 0.0117177)
(0 0 0.0117334)
(0 0 0.0117464)
(0 0 0.0117568)
(0 0 0.0117645)
(0 0 0.0117695)
(0 0 0.0117718)
(0 0 0.0117715)
(0 0 0.0117686)
(0 0 0.011763)
(0 0 0.0117548)
(0 0 0.0117441)
(0 0 0.0117308)
(0 0 0.0117149)
(0 0 0.0116966)
(0 0 0.0116757)
(0 0 0.0116524)
(0 0 0.0116266)
(0 0 0.0115984)
(0 0 0.0115679)
(0 0 0.011535)
(0 0 0.0114998)
(0 0 0.0114623)
(0 0 0.0114226)
(0 0 0.0113807)
(0 0 0.0113366)
(0 0 0.0112904)
(0 0 0.011242)
(0 0 0.0111917)
(0 0 0.0111393)
(0 0 0.011085)
(0 0 0.0110287)
(0 0 0.0109706)
(0 0 0.0109106)
(0 0 0.0108488)
(0 0 0.0107852)
(0 0 0.01072)
(0 0 0.010653)
(0 0 0.0105845)
(0 0 0.0105143)
(0 0 0.0104426)
(0 0 0.0103694)
(0 0 0.0102947)
(0 0 0.0102186)
(0 0 0.0101411)
(0 0 0.0100623)
(0 0 0.00998216)
(0 0 0.00990079)
(0 0 0.0098182)
(0 0 0.00973444)
(0 0 0.00964954)
(0 0 0.00956353)
(0 0 0.00947647)
(0 0 0.00938839)
(0 0 0.00929932)
(0 0 0.00920929)
(0 0 0.00911836)
(0 0 0.00902654)
(0 0 0.00893388)
(0 0 0.0088404)
(0 0 0.00874615)
(0 0 0.00865115)
(0 0 0.00855543)
(0 0 0.00845903)
(0 0 0.00836197)
(0 0 0.00826429)
(0 0 0.00816601)
(0 0 0.00806716)
(0 0 0.00796777)
(0 0 0.00786786)
(0 0 0.00776747)
(0 0 0.0076666)
(0 0 0.0075653)
(0 0 0.00746357)
(0 0 0.00736145)
(0 0 0.00725896)
(0 0 0.00715611)
(0 0 0.00705293)
(0 0 0.00694944)
(0 0 0.00684565)
(0 0 0.00674159)
(0 0 0.00663727)
(0 0 0.00653272)
(0 0 0.00642793)
(0 0 0.00632294)
(0 0 0.00621776)
(0 0 0.0061124)
(0 0 0.00600687)
(0 0 0.0059012)
(0 0 0.00579538)
(0 0 0.00568944)
(0 0 0.00558338)
(0 0 0.00547722)
(0 0 0.00537097)
(0 0 0.00526463)
(0 0 0.00515822)
(0 0 0.00505175)
(0 0 0.00494522)
(0 0 0.00483864)
(0 0 0.00473202)
(0 0 0.00462537)
(0 0 0.00451869)
(0 0 0.00441199)
(0 0 0.00430528)
(0 0 0.00419856)
(0 0 0.00409183)
(0 0 0.00398511)
(0 0 0.00387839)
(0 0 0.00377168)
(0 0 0.00366498)
(0 0 0.00355829)
(0 0 0.00345163)
(0 0 0.00334499)
(0 0 0.00323837)
(0 0 0.00313178)
(0 0 0.00302521)
(0 0 0.00291867)
(0 0 0.00281217)
(0 0 0.00270569)
(0 0 0.00259925)
(0 0 0.00249284)
(0 0 0.00238646)
(0 0 0.00228012)
(0 0 0.0021738)
(0 0 0.00206753)
(0 0 0.00196128)
(0 0 0.00185506)
(0 0 0.00174888)
(0 0 0.00164272)
(0 0 0.0015366)
(0 0 0.0014305)
(0 0 0.00132442)
(0 0 0.00121837)
(0 0 0.00111235)
(0 0 0.00100634)
(0 0 0.000900359)
(0 0 0.000794392)
(0 0 0.00068844)
(0 0 0.000582503)
(0 0 0.000476577)
(0 0 0.000370661)
(0 0 0.000264752)
(0 0 0.000158849)
(0 0 5.29494e-05)
(0 0 8.32977e-05)
(0 0 0.000249895)
(0 0 0.000416496)
(0 0 0.000583105)
(0 0 0.000749724)
(0 0 0.000916356)
(0 0 0.001083)
(0 0 0.00124967)
(0 0 0.00141635)
(0 0 0.00158306)
(0 0 0.00174979)
(0 0 0.00191655)
(0 0 0.00208333)
(0 0 0.00225014)
(0 0 0.00241697)
(0 0 0.00258383)
(0 0 0.00275071)
(0 0 0.00291761)
(0 0 0.00308454)
(0 0 0.00325148)
(0 0 0.00341844)
(0 0 0.00358541)
(0 0 0.00375238)
(0 0 0.00391935)
(0 0 0.00408631)
(0 0 0.00425326)
(0 0 0.00442018)
(0 0 0.00458707)
(0 0 0.00475392)
(0 0 0.00492072)
(0 0 0.00508745)
(0 0 0.0052541)
(0 0 0.00542065)
(0 0 0.0055871)
(0 0 0.00575342)
(0 0 0.0059196)
(0 0 0.00608562)
(0 0 0.00625145)
(0 0 0.00641708)
(0 0 0.00658249)
(0 0 0.00674764)
(0 0 0.00691252)
(0 0 0.00707709)
(0 0 0.00724134)
(0 0 0.00740522)
(0 0 0.00756871)
(0 0 0.00773178)
(0 0 0.00789439)
(0 0 0.00805652)
(0 0 0.00821811)
(0 0 0.00837914)
(0 0 0.00853956)
(0 0 0.00869933)
(0 0 0.00885842)
(0 0 0.00901678)
(0 0 0.00917435)
(0 0 0.00933111)
(0 0 0.009487)
(0 0 0.00964197)
(0 0 0.00979597)
(0 0 0.00994895)
(0 0 0.0101009)
(0 0 0.0102516)
(0 0 0.0104012)
(0 0 0.0105496)
(0 0 0.0106967)
(0 0 0.0108424)
(0 0 0.0109867)
(0 0 0.0111295)
(0 0 0.0112708)
(0 0 0.0114106)
(0 0 0.0115486)
(0 0 0.011685)
(0 0 0.0118196)
(0 0 0.0119523)
(0 0 0.0120831)
(0 0 0.012212)
(0 0 0.0123389)
(0 0 0.0124636)
(0 0 0.0125862)
(0 0 0.0127066)
(0 0 0.0128247)
(0 0 0.0129405)
(0 0 0.0130539)
(0 0 0.0131648)
(0 0 0.0132732)
(0 0 0.013379)
(0 0 0.0134821)
(0 0 0.0135826)
(0 0 0.0136804)
(0 0 0.0137753)
(0 0 0.0138674)
(0 0 0.0139566)
(0 0 0.0140428)
(0 0 0.014126)
(0 0 0.0142062)
(0 0 0.0142833)
(0 0 0.0143572)
(0 0 0.014428)
(0 0 0.0144956)
(0 0 0.01456)
(0 0 0.014621)
(0 0 0.0146788)
(0 0 0.0147333)
(0 0 0.0147844)
(0 0 0.0148321)
(0 0 0.0148764)
(0 0 0.0149173)
(0 0 0.0149548)
(0 0 0.0149888)
(0 0 0.0150194)
(0 0 0.0150465)
(0 0 0.0150702)
(0 0 0.0150904)
(0 0 0.0151071)
(0 0 0.0151204)
(0 0 0.0151303)
(0 0 0.0151367)
(0 0 0.0151397)
(0 0 0.0151393)
(0 0 0.0151355)
(0 0 0.0151283)
(0 0 0.0151178)
(0 0 0.0151039)
(0 0 0.0150868)
(0 0 0.0150664)
(0 0 0.0150427)
(0 0 0.0150158)
(0 0 0.0149858)
(0 0 0.0149526)
(0 0 0.0149163)
(0 0 0.014877)
(0 0 0.0148347)
(0 0 0.0147893)
(0 0 0.0147411)
(0 0 0.01469)
(0 0 0.014636)
(0 0 0.0145792)
(0 0 0.0145198)
(0 0 0.0144576)
(0 0 0.0143928)
(0 0 0.0143254)
(0 0 0.0142554)
(0 0 0.014183)
(0 0 0.0141082)
(0 0 0.014031)
(0 0 0.0139515)
(0 0 0.0138697)
(0 0 0.0137857)
(0 0 0.0136996)
(0 0 0.0136113)
(0 0 0.013521)
(0 0 0.0134287)
(0 0 0.0133345)
(0 0 0.0132384)
(0 0 0.0131405)
(0 0 0.0130408)
(0 0 0.0129394)
(0 0 0.0128364)
(0 0 0.0127317)
(0 0 0.0126254)
(0 0 0.0125177)
(0 0 0.0124084)
(0 0 0.0122978)
(0 0 0.0121858)
(0 0 0.0120725)
(0 0 0.0119579)
(0 0 0.0118421)
(0 0 0.0117251)
(0 0 0.011607)
(0 0 0.0114878)
(0 0 0.0113676)
(0 0 0.0112463)
(0 0 0.0111241)
(0 0 0.011001)
(0 0 0.010877)
(0 0 0.0107522)
(0 0 0.0106265)
(0 0 0.0105001)
(0 0 0.010373)
(0 0 0.0102452)
(0 0 0.0101167)
(0 0 0.00998754)
(0 0 0.00985782)
(0 0 0.00972753)
(0 0 0.0095967)
(0 0 0.00946537)
(0 0 0.00933355)
(0 0 0.00920128)
(0 0 0.00906859)
(0 0 0.0089355)
(0 0 0.00880203)
(0 0 0.0086682)
(0 0 0.00853405)
(0 0 0.00839959)
(0 0 0.00826484)
(0 0 0.00812983)
(0 0 0.00799457)
(0 0 0.00785908)
(0 0 0.00772338)
(0 0 0.00758749)
(0 0 0.00745142)
(0 0 0.00731519)
(0 0 0.00717881)
(0 0 0.0070423)
(0 0 0.00690567)
(0 0 0.00676894)
(0 0 0.00663211)
(0 0 0.0064952)
(0 0 0.00635822)
(0 0 0.00622118)
(0 0 0.00608409)
(0 0 0.00594695)
(0 0 0.00580978)
(0 0 0.00567259)
(0 0 0.00553538)
(0 0 0.00539815)
(0 0 0.00526093)
(0 0 0.0051237)
(0 0 0.00498648)
(0 0 0.00484928)
(0 0 0.00471209)
(0 0 0.00457492)
(0 0 0.00443777)
(0 0 0.00430066)
(0 0 0.00416357)
(0 0 0.00402652)
(0 0 0.00388951)
(0 0 0.00375253)
(0 0 0.00361559)
(0 0 0.00347869)
(0 0 0.00334184)
(0 0 0.00320502)
(0 0 0.00306825)
(0 0 0.00293152)
(0 0 0.00279484)
(0 0 0.00265819)
(0 0 0.00252159)
(0 0 0.00238503)
(0 0 0.00224851)
(0 0 0.00211202)
(0 0 0.00197558)
(0 0 0.00183916)
(0 0 0.00170279)
(0 0 0.00156644)
(0 0 0.00143013)
(0 0 0.00129384)
(0 0 0.00115757)
(0 0 0.00102133)
(0 0 0.000885114)
(0 0 0.000748912)
(0 0 0.000612725)
(0 0 0.000476551)
(0 0 0.000340387)
(0 0 0.000204229)
(0 0 6.80759e-05)
(0 0 0.000101805)
(0 0 0.000305418)
(0 0 0.000509036)
(0 0 0.000712663)
(0 0 0.000916303)
(0 0 0.00111996)
(0 0 0.00132364)
(0 0 0.00152733)
(0 0 0.00173106)
(0 0 0.00193481)
(0 0 0.00213859)
(0 0 0.0023424)
(0 0 0.00254624)
(0 0 0.00275012)
(0 0 0.00295402)
(0 0 0.00315796)
(0 0 0.00336193)
(0 0 0.00356593)
(0 0 0.00376996)
(0 0 0.00397401)
(0 0 0.00417807)
(0 0 0.00438215)
(0 0 0.00458624)
(0 0 0.00479033)
(0 0 0.00499441)
(0 0 0.00519847)
(0 0 0.00540251)
(0 0 0.00560651)
(0 0 0.00581046)
(0 0 0.00601435)
(0 0 0.00621816)
(0 0 0.00642187)
(0 0 0.00662547)
(0 0 0.00682894)
(0 0 0.00703226)
(0 0 0.0072354)
(0 0 0.00743835)
(0 0 0.00764108)
(0 0 0.00784357)
(0 0 0.00804578)
(0 0 0.00824768)
(0 0 0.00844925)
(0 0 0.00865046)
(0 0 0.00885126)
(0 0 0.00905162)
(0 0 0.00925151)
(0 0 0.00945089)
(0 0 0.00964971)
(0 0 0.00984793)
(0 0 0.0100455)
(0 0 0.0102424)
(0 0 0.0104386)
(0 0 0.0106339)
(0 0 0.0108285)
(0 0 0.0110221)
(0 0 0.0112148)
(0 0 0.0114065)
(0 0 0.0115971)
(0 0 0.0117866)
(0 0 0.0119749)
(0 0 0.012162)
(0 0 0.0123478)
(0 0 0.0125322)
(0 0 0.0127151)
(0 0 0.0128966)
(0 0 0.0130765)
(0 0 0.0132547)
(0 0 0.0134312)
(0 0 0.0136059)
(0 0 0.0137787)
(0 0 0.0139496)
(0 0 0.0141185)
(0 0 0.0142853)
(0 0 0.0144499)
(0 0 0.0146122)
(0 0 0.0147723)
(0 0 0.0149299)
(0 0 0.0150851)
(0 0 0.0152377)
(0 0 0.0153877)
(0 0 0.0155349)
(0 0 0.0156794)
(0 0 0.015821)
(0 0 0.0159597)
(0 0 0.0160954)
(0 0 0.016228)
(0 0 0.0163574)
(0 0 0.0164837)
(0 0 0.0166066)
(0 0 0.0167261)
(0 0 0.0168423)
(0 0 0.0169549)
(0 0 0.017064)
(0 0 0.0171695)
(0 0 0.0172713)
(0 0 0.0173694)
(0 0 0.0174637)
(0 0 0.0175542)
(0 0 0.0176408)
(0 0 0.0177235)
(0 0 0.0178022)
(0 0 0.0178769)
(0 0 0.0179476)
(0 0 0.0180142)
(0 0 0.0180766)
(0 0 0.018135)
(0 0 0.0181892)
(0 0 0.0182392)
(0 0 0.018285)
(0 0 0.0183266)
(0 0 0.018364)
(0 0 0.0183972)
(0 0 0.0184261)
(0 0 0.0184508)
(0 0 0.0184713)
(0 0 0.0184876)
(0 0 0.0184996)
(0 0 0.0185074)
(0 0 0.018511)
(0 0 0.0185105)
(0 0 0.0185058)
(0 0 0.018497)
(0 0 0.0184841)
(0 0 0.0184671)
(0 0 0.0184461)
(0 0 0.018421)
(0 0 0.0183921)
(0 0 0.0183591)
(0 0 0.0183224)
(0 0 0.0182817)
(0 0 0.0182373)
(0 0 0.0181891)
(0 0 0.0181373)
(0 0 0.0180818)
(0 0 0.0180228)
(0 0 0.0179602)
(0 0 0.0178941)
(0 0 0.0178246)
(0 0 0.0177518)
(0 0 0.0176757)
(0 0 0.0175964)
(0 0 0.0175139)
(0 0 0.0174284)
(0 0 0.0173398)
(0 0 0.0172482)
(0 0 0.0171537)
(0 0 0.0170564)
(0 0 0.0169563)
(0 0 0.0168536)
(0 0 0.0167482)
(0 0 0.0166402)
(0 0 0.0165297)
(0 0 0.0164169)
(0 0 0.0163016)
(0 0 0.016184)
(0 0 0.0160643)
(0 0 0.0159423)
(0 0 0.0158183)
(0 0 0.0156922)
(0 0 0.0155641)
(0 0 0.0154342)
(0 0 0.0153023)
(0 0 0.0151687)
(0 0 0.0150334)
(0 0 0.0148964)
(0 0 0.0147578)
(0 0 0.0146177)
(0 0 0.0144761)
(0 0 0.014333)
(0 0 0.0141886)
(0 0 0.0140428)
(0 0 0.0138957)
(0 0 0.0137475)
(0 0 0.013598)
(0 0 0.0134475)
(0 0 0.0132959)
(0 0 0.0131432)
(0 0 0.0129896)
(0 0 0.012835)
(0 0 0.0126795)
(0 0 0.0125232)
(0 0 0.0123661)
(0 0 0.0122082)
(0 0 0.0120496)
(0 0 0.0118903)
(0 0 0.0117303)
(0 0 0.0115698)
(0 0 0.0114086)
(0 0 0.0112469)
(0 0 0.0110847)
(0 0 0.0109219)
(0 0 0.0107588)
(0 0 0.0105951)
(0 0 0.0104311)
(0 0 0.0102668)
(0 0 0.010102)
(0 0 0.00993697)
(0 0 0.00977161)
(0 0 0.00960598)
(0 0 0.00944009)
(0 0 0.00927396)
(0 0 0.00910762)
(0 0 0.00894109)
(0 0 0.00877437)
(0 0 0.0086075)
(0 0 0.00844049)
(0 0 0.00827334)
(0 0 0.00810608)
(0 0 0.00793873)
(0 0 0.00777129)
(0 0 0.00760377)
(0 0 0.00743619)
(0 0 0.00726857)
(0 0 0.0071009)
(0 0 0.0069332)
(0 0 0.00676549)
(0 0 0.00659776)
(0 0 0.00643002)
(0 0 0.00626229)
(0 0 0.00609457)
(0 0 0.00592686)
(0 0 0.00575918)
(0 0 0.00559152)
(0 0 0.00542389)
(0 0 0.0052563)
(0 0 0.00508874)
(0 0 0.00492123)
(0 0 0.00475376)
(0 0 0.00458634)
(0 0 0.00441897)
(0 0 0.00425165)
(0 0 0.00408438)
(0 0 0.00391716)
(0 0 0.00375)
(0 0 0.00358289)
(0 0 0.00341583)
(0 0 0.00324882)
(0 0 0.00308186)
(0 0 0.00291495)
(0 0 0.0027481)
(0 0 0.00258129)
(0 0 0.00241452)
(0 0 0.0022478)
(0 0 0.00208112)
(0 0 0.00191448)
(0 0 0.00174788)
(0 0 0.00158131)
(0 0 0.00141477)
(0 0 0.00124826)
(0 0 0.00108177)
(0 0 0.000915306)
(0 0 0.000748861)
(0 0 0.000582431)
(0 0 0.000416014)
(0 0 0.000249605)
(0 0 8.3201e-05)
(0 0 0.000120311)
(0 0 0.000360935)
(0 0 0.000601566)
(0 0 0.000842208)
(0 0 0.00108287)
(0 0 0.00132354)
(0 0 0.00156424)
(0 0 0.00180497)
(0 0 0.00204573)
(0 0 0.00228652)
(0 0 0.00252735)
(0 0 0.00276821)
(0 0 0.00300912)
(0 0 0.00325006)
(0 0 0.00349104)
(0 0 0.00373207)
(0 0 0.00397313)
(0 0 0.00421422)
(0 0 0.00445535)
(0 0 0.00469651)
(0 0 0.00493769)
(0 0 0.00517889)
(0 0 0.00542011)
(0 0 0.00566132)
(0 0 0.00590253)
(0 0 0.00614372)
(0 0 0.00638488)
(0 0 0.006626)
(0 0 0.00686706)
(0 0 0.00710806)
(0 0 0.00734896)
(0 0 0.00758975)
(0 0 0.00783041)
(0 0 0.00807093)
(0 0 0.00831126)
(0 0 0.0085514)
(0 0 0.00879131)
(0 0 0.00903096)
(0 0 0.00927033)
(0 0 0.00950937)
(0 0 0.00974806)
(0 0 0.00998636)
(0 0 0.0102242)
(0 0 0.0104616)
(0 0 0.0106985)
(0 0 0.0109348)
(0 0 0.0111706)
(0 0 0.0114056)
(0 0 0.01164)
(0 0 0.0118736)
(0 0 0.0121064)
(0 0 0.0123383)
(0 0 0.0125693)
(0 0 0.0127994)
(0 0 0.0130283)
(0 0 0.0132562)
(0 0 0.0134829)
(0 0 0.0137083)
(0 0 0.0139324)
(0 0 0.0141551)
(0 0 0.0143764)
(0 0 0.0145961)
(0 0 0.0148142)
(0 0 0.0150306)
(0 0 0.0152452)
(0 0 0.0154579)
(0 0 0.0156687)
(0 0 0.0158774)
(0 0 0.0160841)
(0 0 0.0162885)
(0 0 0.0164907)
(0 0 0.0166904)
(0 0 0.0168877)
(0 0 0.0170824)
(0 0 0.0172745)
(0 0 0.0174638)
(0 0 0.0176503)
(0 0 0.0178339)
(0 0 0.0180144)
(0 0 0.0181918)
(0 0 0.018366)
(0 0 0.018537)
(0 0 0.0187045)
(0 0 0.0188686)
(0 0 0.0190291)
(0 0 0.019186)
(0 0 0.0193391)
(0 0 0.0194885)
(0 0 0.0196339)
(0 0 0.0197754)
(0 0 0.0199128)
(0 0 0.020046)
(0 0 0.0201751)
(0 0 0.0202999)
(0 0 0.0204204)
(0 0 0.0205364)
(0 0 0.020648)
(0 0 0.020755)
(0 0 0.0208575)
(0 0 0.0209553)
(0 0 0.0210484)
(0 0 0.0211368)
(0 0 0.0212204)
(0 0 0.0212991)
(0 0 0.0213731)
(0 0 0.0214421)
(0 0 0.0215062)
(0 0 0.0215653)
(0 0 0.0216195)
(0 0 0.0216687)
(0 0 0.0217129)
(0 0 0.0217522)
(0 0 0.0217864)
(0 0 0.0218155)
(0 0 0.0218397)
(0 0 0.0218589)
(0 0 0.0218731)
(0 0 0.0218823)
(0 0 0.0218865)
(0 0 0.0218859)
(0 0 0.0218803)
(0 0 0.0218698)
(0 0 0.0218544)
(0 0 0.0218343)
(0 0 0.0218094)
(0 0 0.0217797)
(0 0 0.0217453)
(0 0 0.0217063)
(0 0 0.0216627)
(0 0 0.0216146)
(0 0 0.021562)
(0 0 0.021505)
(0 0 0.0214436)
(0 0 0.0213779)
(0 0 0.0213079)
(0 0 0.0212338)
(0 0 0.0211556)
(0 0 0.0210734)
(0 0 0.0209872)
(0 0 0.0208971)
(0 0 0.0208032)
(0 0 0.0207056)
(0 0 0.0206043)
(0 0 0.0204994)
(0 0 0.0203911)
(0 0 0.0202793)
(0 0 0.0201641)
(0 0 0.0200457)
(0 0 0.0199241)
(0 0 0.0197994)
(0 0 0.0196716)
(0 0 0.0195409)
(0 0 0.0194073)
(0 0 0.019271)
(0 0 0.0191319)
(0 0 0.0189902)
(0 0 0.0188459)
(0 0 0.0186991)
(0 0 0.01855)
(0 0 0.0183985)
(0 0 0.0182447)
(0 0 0.0180888)
(0 0 0.0179308)
(0 0 0.0177707)
(0 0 0.0176087)
(0 0 0.0174447)
(0 0 0.017279)
(0 0 0.0171115)
(0 0 0.0169423)
(0 0 0.0167714)
(0 0 0.016599)
(0 0 0.0164251)
(0 0 0.0162498)
(0 0 0.0160731)
(0 0 0.015895)
(0 0 0.0157157)
(0 0 0.0155352)
(0 0 0.0153535)
(0 0 0.0151707)
(0 0 0.0149869)
(0 0 0.0148021)
(0 0 0.0146163)
(0 0 0.0144296)
(0 0 0.0142421)
(0 0 0.0140537)
(0 0 0.0138646)
(0 0 0.0136747)
(0 0 0.0134842)
(0 0 0.013293)
(0 0 0.0131012)
(0 0 0.0129088)
(0 0 0.0127159)
(0 0 0.0125225)
(0 0 0.0123286)
(0 0 0.0121343)
(0 0 0.0119395)
(0 0 0.0117444)
(0 0 0.0115489)
(0 0 0.0113531)
(0 0 0.011157)
(0 0 0.0109606)
(0 0 0.010764)
(0 0 0.0105672)
(0 0 0.0103701)
(0 0 0.0101728)
(0 0 0.00997543)
(0 0 0.00977786)