/*--------------------------------*- C++ -*----------------------------------*\
| =========                 |                                                 |
| \\      /  F ield         | OpenFOAM: The Open Source CFD Toolbox           |
|  \\    /   O peration     | Version:  v2012                                 |
|   \\  /    A nd           | Website:  www.openfoam.com                      |
|    \\/     M anipulation  |                                                 |
\*---------------------------------------------------------------------------*/
FoamFile
{
    version     2.0;
    format      ascii;
    class       volVectorField;
    location    "9.5";
    object      U;
}
// * * * * * * * * * * * * * * * * * * * * * * * * * * * * * * * * * * * * * //

dimensions      [0 1 -1 0 0 0 0];


internalField   nonuniform List<vector> 
65536
(
(0.000754664 -0.00075467 0)
(0.002264 -0.000754683 0)
(0.00377338 -0.000754709 0)
(0.00528283 -0.000754747 0)
(0.00679236 -0.000754797 0)
(0.008302 -0.000754858 0)
(0.00981178 -0.00075493 0)
(0.0113217 -0.000755012 0)
(0.0128318 -0.000755101 0)
(0.0143421 -0.000755198 0)
(0.0158526 -0.0007553 0)
(0.0173633 -0.000755407 0)
(0.0188742 -0.000755515 0)
(0.0203854 -0.000755623 0)
(0.0218967 -0.00075573 0)
(0.0234083 -0.000755832 0)
(0.0249201 -0.000755928 0)
(0.026432 -0.000756014 0)
(0.0279441 -0.000756088 0)
(0.0294564 -0.000756147 0)
(0.0309687 -0.000756187 0)
(0.0324812 -0.000756207 0)
(0.0339936 -0.000756201 0)
(0.035506 -0.000756166 0)
(0.0370183 -0.0007561 0)
(0.0385304 -0.000755997 0)
(0.0400423 -0.000755854 0)
(0.0415539 -0.000755666 0)
(0.043065 -0.000755429 0)
(0.0445756 -0.000755139 0)
(0.0460856 -0.000754791 0)
(0.0475949 -0.000754379 0)
(0.0491032 -0.0007539 0)
(0.0506105 -0.000753348 0)
(0.0521167 -0.000752717 0)
(0.0536215 -0.000752003 0)
(0.0551248 -0.0007512 0)
(0.0566264 -0.000750301 0)
(0.0581261 -0.000749303 0)
(0.0596237 -0.000748198 0)
(0.061119 -0.000746981 0)
(0.0626118 -0.000745646 0)
(0.0641017 -0.000744186 0)
(0.0655886 -0.000742596 0)
(0.0670722 -0.00074087 0)
(0.0685522 -0.000739001 0)
(0.0700284 -0.000736982 0)
(0.0715003 -0.000734808 0)
(0.0729678 -0.000732472 0)
(0.0744304 -0.000729967 0)
(0.0758878 -0.000727288 0)
(0.0773397 -0.000724428 0)
(0.0787857 -0.000721381 0)
(0.0802254 -0.000718141 0)
(0.0816585 -0.0007147 0)
(0.0830844 -0.000711054 0)
(0.0845029 -0.000707197 0)
(0.0859134 -0.000703121 0)
(0.0873156 -0.000698822 0)
(0.088709 -0.000694295 0)
(0.090093 -0.000689533 0)
(0.0914673 -0.000684531 0)
(0.0928314 -0.000679285 0)
(0.0941847 -0.000673789 0)
(0.0955268 -0.000668039 0)
(0.0968571 -0.000662031 0)
(0.0981752 -0.00065576 0)
(0.0994804 -0.000649224 0)
(0.100772 -0.000642418 0)
(0.10205 -0.000635339 0)
(0.103314 -0.000627985 0)
(0.104563 -0.000620353 0)
(0.105796 -0.000612441 0)
(0.107013 -0.000604248 0)
(0.108213 -0.000595772 0)
(0.109396 -0.000587013 0)
(0.110561 -0.000577971 0)
(0.111708 -0.000568645 0)
(0.112836 -0.000559036 0)
(0.113945 -0.000549145 0)
(0.115033 -0.000538974 0)
(0.116101 -0.000528525 0)
(0.117147 -0.0005178 0)
(0.118172 -0.000506802 0)
(0.119175 -0.000495535 0)
(0.120155 -0.000484002 0)
(0.121111 -0.000472209 0)
(0.122044 -0.00046016 0)
(0.122952 -0.000447861 0)
(0.123835 -0.000435317 0)
(0.124694 -0.000422535 0)
(0.125526 -0.000409523 0)
(0.126332 -0.000396287 0)
(0.127111 -0.000382835 0)
(0.127863 -0.000369175 0)
(0.128588 -0.000355317 0)
(0.129285 -0.000341268 0)
(0.129953 -0.000327039 0)
(0.130593 -0.00031264 0)
(0.131204 -0.000298079 0)
(0.131786 -0.000283369 0)
(0.132338 -0.000268519 0)
(0.13286 -0.000253541 0)
(0.133352 -0.000238446 0)
(0.133814 -0.000223245 0)
(0.134245 -0.000207949 0)
(0.134646 -0.000192572 0)
(0.135015 -0.000177123 0)
(0.135354 -0.000161617 0)
(0.135662 -0.000146064 0)
(0.135938 -0.000130476 0)
(0.136184 -0.000114867 0)
(0.136398 -9.92469e-05 0)
(0.136581 -8.36292e-05 0)
(0.136732 -6.80254e-05 0)
(0.136853 -5.24476e-05 0)
(0.136942 -3.69073e-05 0)
(0.137 -2.14163e-05 0)
(0.137028 -5.98587e-06 0)
(0.137024 9.37263e-06 0)
(0.13699 2.46483e-05 0)
(0.136926 3.98302e-05 0)
(0.136831 5.49081e-05 0)
(0.136706 6.98717e-05 0)
(0.136551 8.4711e-05 0)
(0.136367 9.94166e-05 0)
(0.136153 0.000113979 0)
(0.135911 0.00012839 0)
(0.13564 0.00014264 0)
(0.13534 0.000156722 0)
(0.135013 0.000170628 0)
(0.134657 0.000184349 0)
(0.134275 0.000197881 0)
(0.133866 0.000211215 0)
(0.13343 0.000224346 0)
(0.132968 0.000237268 0)
(0.132481 0.000249976 0)
(0.131968 0.000262464 0)
(0.131431 0.000274729 0)
(0.130869 0.000286766 0)
(0.130283 0.000298572 0)
(0.129674 0.000310143 0)
(0.129042 0.000321477 0)
(0.128388 0.000332571 0)
(0.127712 0.000343423 0)
(0.127014 0.000354031 0)
(0.126296 0.000364393 0)
(0.125556 0.00037451 0)
(0.124797 0.00038438 0)
(0.124019 0.000394004 0)
(0.123221 0.00040338 0)
(0.122405 0.000412509 0)
(0.121571 0.000421393 0)
(0.120719 0.000430031 0)
(0.11985 0.000438426 0)
(0.118965 0.000446578 0)
(0.118064 0.00045449 0)
(0.117147 0.000462163 0)
(0.116215 0.000469599 0)
(0.115268 0.000476801 0)
(0.114307 0.000483772 0)
(0.113333 0.000490514 0)
(0.112345 0.00049703 0)
(0.111345 0.000503324 0)
(0.110332 0.000509398 0)
(0.109307 0.000515257 0)
(0.10827 0.000520903 0)
(0.107223 0.00052634 0)
(0.106165 0.000531572 0)
(0.105096 0.000536604 0)
(0.104018 0.000541438 0)
(0.102931 0.000546079 0)
(0.101834 0.000550531 0)
(0.100728 0.000554798 0)
(0.0996144 0.000558884 0)
(0.0984925 0.000562794 0)
(0.097363 0.000566532 0)
(0.0962262 0.000570102 0)
(0.0950825 0.000573508 0)
(0.093932 0.000576755 0)
(0.0927753 0.000579847 0)
(0.0916125 0.000582788 0)
(0.090444 0.000585583 0)
(0.08927 0.000588235 0)
(0.0880909 0.00059075 0)
(0.0869069 0.000593131 0)
(0.0857183 0.000595382 0)
(0.0845252 0.000597508 0)
(0.0833281 0.000599513 0)
(0.0821271 0.0006014 0)
(0.0809224 0.000603174 0)
(0.0797143 0.00060484 0)
(0.0785029 0.0006064 0)
(0.0772886 0.000607858 0)
(0.0760714 0.000609219 0)
(0.0748516 0.000610486 0)
(0.0736294 0.000611663 0)
(0.0724049 0.000612753 0)
(0.0711783 0.000613761 0)
(0.0699497 0.000614689 0)
(0.0687194 0.00061554 0)
(0.0674875 0.00061632 0)
(0.0662541 0.000617029 0)
(0.0650193 0.000617673 0)
(0.0637833 0.000618254 0)
(0.0625463 0.000618774 0)
(0.0613082 0.000619238 0)
(0.0600693 0.000619648 0)
(0.0588295 0.000620006 0)
(0.0575892 0.000620316 0)
(0.0563482 0.000620581 0)
(0.0551068 0.000620803 0)
(0.053865 0.000620984 0)
(0.0526228 0.000621127 0)
(0.0513804 0.000621235 0)
(0.0501379 0.00062131 0)
(0.0488952 0.000621355 0)
(0.0476524 0.00062137 0)
(0.0464097 0.00062136 0)
(0.045167 0.000621325 0)
(0.0439243 0.000621268 0)
(0.0426819 0.000621191 0)
(0.0414396 0.000621096 0)
(0.0401975 0.000620984 0)
(0.0389556 0.000620858 0)
(0.037714 0.000620719 0)
(0.0364727 0.000620568 0)
(0.0352317 0.000620408 0)
(0.0339911 0.00062024 0)
(0.0327508 0.000620065 0)
(0.0315108 0.000619885 0)
(0.0302712 0.000619701 0)
(0.029032 0.000619514 0)
(0.0277932 0.000619326 0)
(0.0265547 0.000619138 0)
(0.0253166 0.000618951 0)
(0.0240789 0.000618766 0)
(0.0228416 0.000618584 0)
(0.0216046 0.000618406 0)
(0.0203679 0.000618233 0)
(0.0191317 0.000618066 0)
(0.0178957 0.000617905 0)
(0.01666 0.000617752 0)
(0.0154247 0.000617606 0)
(0.0141896 0.00061747 0)
(0.0129548 0.000617343 0)
(0.0117203 0.000617225 0)
(0.0104859 0.000617118 0)
(0.0092518 0.000617022 0)
(0.00801785 0.000616937 0)
(0.00678406 0.000616863 0)
(0.00555041 0.000616802 0)
(0.00431687 0.000616752 0)
(0.00308342 0.000616715 0)
(0.00185002 0.00061669 0)
(0.000616671 0.000616677 0)
(0.000754651 -0.002264 0)
(0.00226397 -0.00226404 0)
(0.00377332 -0.00226411 0)
(0.00528274 -0.00226423 0)
(0.00679225 -0.00226438 0)
(0.00830187 -0.00226457 0)
(0.00981163 -0.00226478 0)
(0.0113215 -0.00226503 0)
(0.0128316 -0.0022653 0)
(0.0143419 -0.00226559 0)
(0.0158524 -0.0022659 0)
(0.0173631 -0.00226622 0)
(0.018874 -0.00226654 0)
(0.0203852 -0.00226687 0)
(0.0218965 -0.00226719 0)
(0.0234081 -0.0022675 0)
(0.0249199 -0.00226779 0)
(0.0264319 -0.00226805 0)
(0.027944 -0.00226828 0)
(0.0294563 -0.00226846 0)
(0.0309687 -0.00226858 0)
(0.0324811 -0.00226864 0)
(0.0339936 -0.00226863 0)
(0.0355061 -0.00226853 0)
(0.0370185 -0.00226834 0)
(0.0385307 -0.00226803 0)
(0.0400426 -0.00226761 0)
(0.0415543 -0.00226705 0)
(0.0430656 -0.00226634 0)
(0.0445763 -0.00226547 0)
(0.0460864 -0.00226443 0)
(0.0475958 -0.00226321 0)
(0.0491043 -0.00226177 0)
(0.0506117 -0.00226012 0)
(0.052118 -0.00225823 0)
(0.053623 -0.0022561 0)
(0.0551265 -0.00225369 0)
(0.0566283 -0.002251 0)
(0.0581282 -0.00224801 0)
(0.059626 -0.00224471 0)
(0.0611216 -0.00224106 0)
(0.0626145 -0.00223706 0)
(0.0641048 -0.00223269 0)
(0.0655919 -0.00222793 0)
(0.0670758 -0.00222275 0)
(0.0685561 -0.00221715 0)
(0.0700326 -0.0022111 0)
(0.0715048 -0.00220458 0)
(0.0729726 -0.00219758 0)
(0.0744356 -0.00219008 0)
(0.0758934 -0.00218204 0)
(0.0773456 -0.00217347 0)
(0.078792 -0.00216434 0)
(0.0802321 -0.00215462 0)
(0.0816656 -0.00214431 0)
(0.0830919 -0.00213337 0)
(0.0845108 -0.00212181 0)
(0.0859218 -0.00210959 0)
(0.0873244 -0.0020967 0)
(0.0887182 -0.00208312 0)
(0.0901028 -0.00206884 0)
(0.0914776 -0.00205384 0)
(0.0928421 -0.0020381 0)
(0.094196 -0.00202162 0)
(0.0955386 -0.00200437 0)
(0.0968694 -0.00198635 0)
(0.098188 -0.00196755 0)
(0.0994938 -0.00194794 0)
(0.100786 -0.00192752 0)
(0.102065 -0.00190629 0)
(0.103329 -0.00188423 0)
(0.104578 -0.00186134 0)
(0.105812 -0.0018376 0)
(0.107029 -0.00181302 0)
(0.10823 -0.0017876 0)
(0.109414 -0.00176132 0)
(0.11058 -0.00173419 0)
(0.111727 -0.00170622 0)
(0.112856 -0.00167739 0)
(0.113965 -0.00164771 0)
(0.115054 -0.0016172 0)
(0.116122 -0.00158585 0)
(0.117169 -0.00155367 0)
(0.118194 -0.00152067 0)
(0.119198 -0.00148687 0)
(0.120178 -0.00145227 0)
(0.121135 -0.00141688 0)
(0.122068 -0.00138073 0)
(0.122977 -0.00134383 0)
(0.123861 -0.00130619 0)
(0.124719 -0.00126784 0)
(0.125552 -0.00122879 0)
(0.126358 -0.00118907 0)
(0.127138 -0.00114871 0)
(0.127891 -0.00110772 0)
(0.128616 -0.00106614 0)
(0.129313 -0.00102398 0)
(0.129982 -0.000981287 0)
(0.130622 -0.000938078 0)
(0.131233 -0.000894387 0)
(0.131815 -0.000850245 0)
(0.132367 -0.000805685 0)
(0.13289 -0.00076074 0)
(0.133382 -0.000715442 0)
(0.133844 -0.000669827 0)
(0.134276 -0.000623929 0)
(0.134676 -0.000577784 0)
(0.135046 -0.000531428 0)
(0.135385 -0.000484896 0)
(0.135693 -0.000438224 0)
(0.13597 -0.00039145 0)
(0.136215 -0.000344609 0)
(0.136429 -0.000297738 0)
(0.136612 -0.000250873 0)
(0.136764 -0.00020405 0)
(0.136884 -0.000157304 0)
(0.136973 -0.000110672 0)
(0.137031 -6.41874e-05 0)
(0.137059 -1.78851e-05 0)
(0.137055 2.82014e-05 0)
(0.137021 7.4039e-05 0)
(0.136956 0.000119595 0)
(0.136861 0.000164839 0)
(0.136736 0.00020974 0)
(0.136581 0.000254267 0)
(0.136396 0.000298393 0)
(0.136182 0.00034209 0)
(0.135939 0.00038533 0)
(0.135668 0.000428089 0)
(0.135368 0.000470342 0)
(0.13504 0.000512066 0)
(0.134685 0.000553239 0)
(0.134302 0.00059384 0)
(0.133892 0.000633848 0)
(0.133456 0.000673247 0)
(0.132994 0.000712018 0)
(0.132506 0.000750146 0)
(0.131993 0.000787616 0)
(0.131455 0.000824415 0)
(0.130893 0.00086053 0)
(0.130307 0.000895951 0)
(0.129697 0.000930667 0)
(0.129065 0.000964671 0)
(0.12841 0.000997954 0)
(0.127733 0.00103051 0)
(0.127035 0.00106234 0)
(0.126316 0.00109343 0)
(0.125576 0.00112378 0)
(0.124817 0.00115339 0)
(0.124038 0.00118226 0)
(0.123239 0.00121039 0)
(0.122423 0.00123777 0)
(0.121588 0.00126442 0)
(0.120736 0.00129034 0)
(0.119867 0.00131552 0)
(0.118981 0.00133997 0)
(0.118079 0.00136371 0)
(0.117162 0.00138672 0)
(0.116229 0.00140903 0)
(0.115282 0.00143063 0)
(0.114321 0.00145154 0)
(0.113346 0.00147177 0)
(0.112358 0.00149131 0)
(0.111357 0.00151019 0)
(0.110344 0.00152841 0)
(0.109318 0.00154598 0)
(0.108281 0.00156292 0)
(0.107234 0.00157922 0)
(0.106175 0.00159492 0)
(0.105106 0.00161001 0)
(0.104028 0.00162451 0)
(0.10294 0.00163842 0)
(0.101842 0.00165178 0)
(0.100737 0.00166457 0)
(0.0996223 0.00167683 0)
(0.0985001 0.00168855 0)
(0.0973703 0.00169976 0)
(0.0962332 0.00171047 0)
(0.0950891 0.00172068 0)
(0.0939383 0.00173042 0)
(0.0927813 0.00173969 0)
(0.0916182 0.00174851 0)
(0.0904494 0.00175689 0)
(0.0892752 0.00176484 0)
(0.0880958 0.00177238 0)
(0.0869115 0.00177952 0)
(0.0857226 0.00178627 0)
(0.0845293 0.00179264 0)
(0.083332 0.00179865 0)
(0.0821307 0.00180431 0)
(0.0809258 0.00180963 0)
(0.0797175 0.00181462 0)
(0.0785059 0.0018193 0)
(0.0772914 0.00182367 0)
(0.076074 0.00182775 0)
(0.074854 0.00183155 0)
(0.0736316 0.00183507 0)
(0.0724069 0.00183834 0)
(0.0711802 0.00184136 0)
(0.0699515 0.00184414 0)
(0.0687211 0.00184669 0)
(0.067489 0.00184903 0)
(0.0662554 0.00185115 0)
(0.0650205 0.00185308 0)
(0.0637844 0.00185482 0)
(0.0625472 0.00185638 0)
(0.061309 0.00185777 0)
(0.06007 0.00185899 0)
(0.0588302 0.00186007 0)
(0.0575897 0.00186099 0)
(0.0563487 0.00186178 0)
(0.0551072 0.00186245 0)
(0.0538653 0.00186299 0)
(0.0526231 0.00186342 0)
(0.0513806 0.00186374 0)
(0.050138 0.00186396 0)
(0.0488952 0.00186409 0)
(0.0476524 0.00186414 0)
(0.0464096 0.0018641 0)
(0.0451669 0.001864 0)
(0.0439242 0.00186382 0)
(0.0426817 0.00186359 0)
(0.0414393 0.0018633 0)
(0.0401972 0.00186297 0)
(0.0389553 0.00186259 0)
(0.0377137 0.00186217 0)
(0.0364724 0.00186171 0)
(0.0352314 0.00186123 0)
(0.0339907 0.00186073 0)
(0.0327504 0.0018602 0)
(0.0315104 0.00185966 0)
(0.0302709 0.0018591 0)
(0.0290316 0.00185854 0)
(0.0277928 0.00185798 0)
(0.0265543 0.00185741 0)
(0.0253162 0.00185685 0)
(0.0240785 0.00185629 0)
(0.0228412 0.00185575 0)
(0.0216042 0.00185521 0)
(0.0203676 0.00185469 0)
(0.0191313 0.00185419 0)
(0.0178954 0.00185371 0)
(0.0166597 0.00185325 0)
(0.0154244 0.00185281 0)
(0.0141894 0.0018524 0)
(0.0129546 0.00185202 0)
(0.01172 0.00185167 0)
(0.0104857 0.00185134 0)
(0.00925162 0.00185105 0)
(0.00801769 0.0018508 0)
(0.00678393 0.00185058 0)
(0.0055503 0.00185039 0)
(0.00431678 0.00185024 0)
(0.00308335 0.00185013 0)
(0.00184999 0.00185006 0)
(0.000616658 0.00185002 0)
(0.000754625 -0.00377329 0)
(0.00226389 -0.00377335 0)
(0.00377319 -0.00377348 0)
(0.00528256 -0.00377368 0)
(0.00679202 -0.00377393 0)
(0.0083016 -0.00377424 0)
(0.00981132 -0.0037746 0)
(0.0113212 -0.00377502 0)
(0.0128313 -0.00377547 0)
(0.0143415 -0.00377596 0)
(0.015852 -0.00377648 0)
(0.0173627 -0.00377702 0)
(0.0188736 -0.00377757 0)
(0.0203847 -0.00377813 0)
(0.0218961 -0.00377867 0)
(0.0234077 -0.0037792 0)
(0.0249195 -0.00377969 0)
(0.0264315 -0.00378013 0)
(0.0279437 -0.00378052 0)
(0.0294561 -0.00378082 0)
(0.0309685 -0.00378104 0)
(0.0324811 -0.00378116 0)
(0.0339937 -0.00378115 0)
(0.0355063 -0.00378099 0)
(0.0370188 -0.00378068 0)
(0.0385311 -0.00378019 0)
(0.0400433 -0.00377949 0)
(0.0415551 -0.00377857 0)
(0.0430666 -0.00377741 0)
(0.0445775 -0.00377598 0)
(0.0460879 -0.00377427 0)
(0.0475975 -0.00377224 0)
(0.0491063 -0.00376986 0)
(0.0506141 -0.00376713 0)
(0.0521207 -0.003764 0)
(0.053626 -0.00376046 0)
(0.0551299 -0.00375647 0)
(0.0566321 -0.00375201 0)
(0.0581324 -0.00374704 0)
(0.0596307 -0.00374155 0)
(0.0611266 -0.0037355 0)
(0.0626201 -0.00372885 0)
(0.0641108 -0.00372158 0)
(0.0655985 -0.00371366 0)
(0.067083 -0.00370506 0)
(0.0685639 -0.00369575 0)
(0.0700409 -0.00368569 0)
(0.0715138 -0.00367485 0)
(0.0729823 -0.0036632 0)
(0.0744459 -0.00365071 0)
(0.0759044 -0.00363734 0)
(0.0773574 -0.00362308 0)
(0.0788046 -0.00360787 0)
(0.0802455 -0.0035917 0)
(0.0816797 -0.00357453 0)
(0.0831069 -0.00355633 0)
(0.0845267 -0.00353707 0)
(0.0859385 -0.00351672 0)
(0.0873421 -0.00349526 0)
(0.0887368 -0.00347264 0)
(0.0901223 -0.00344886 0)
(0.0914981 -0.00342388 0)
(0.0928636 -0.00339767 0)
(0.0942184 -0.00337021 0)
(0.0955621 -0.00334149 0)
(0.0968939 -0.00331146 0)
(0.0982136 -0.00328013 0)
(0.0995205 -0.00324746 0)
(0.100814 -0.00321345 0)
(0.102094 -0.00317807 0)
(0.103359 -0.00314131 0)
(0.104609 -0.00310316 0)
(0.105844 -0.00306361 0)
(0.107063 -0.00302265 0)
(0.108265 -0.00298028 0)
(0.109449 -0.00293648 0)
(0.110616 -0.00289127 0)
(0.111765 -0.00284464 0)
(0.112895 -0.00279659 0)
(0.114005 -0.00274713 0)
(0.115095 -0.00269626 0)
(0.116164 -0.002644 0)
(0.117213 -0.00259036 0)
(0.118239 -0.00253535 0)
(0.119243 -0.002479 0)
(0.120225 -0.00242131 0)
(0.121183 -0.00236232 0)
(0.122117 -0.00230205 0)
(0.123027 -0.00224052 0)
(0.123911 -0.00217777 0)
(0.124771 -0.00211383 0)
(0.125605 -0.00204873 0)
(0.126412 -0.00198251 0)
(0.127193 -0.00191521 0)
(0.127946 -0.00184687 0)
(0.128672 -0.00177753 0)
(0.12937 -0.00170724 0)
(0.130039 -0.00163605 0)
(0.13068 -0.001564 0)
(0.131292 -0.00149115 0)
(0.131874 -0.00141754 0)
(0.132427 -0.00134324 0)
(0.13295 -0.00126829 0)
(0.133443 -0.00119276 0)
(0.133905 -0.00111669 0)
(0.134337 -0.00104016 0)
(0.134738 -0.000963209 0)
(0.135108 -0.000885908 0)
(0.135447 -0.000808314 0)
(0.135755 -0.000730488 0)
(0.136032 -0.00065249 0)
(0.136278 -0.000574382 0)
(0.136492 -0.000496223 0)
(0.136674 -0.000418074 0)
(0.136826 -0.000339996 0)
(0.136946 -0.000262048 0)
(0.137035 -0.000184289 0)
(0.137093 -0.000106776 0)
(0.13712 -2.95685e-05 0)
(0.137116 4.7279e-05 0)
(0.137082 0.000123711 0)
(0.137016 0.000199673 0)
(0.136921 0.000275113 0)
(0.136795 0.000349981 0)
(0.13664 0.000424225 0)
(0.136455 0.000497799 0)
(0.13624 0.000570656 0)
(0.135997 0.000642752 0)
(0.135725 0.000714045 0)
(0.135424 0.000784492 0)
(0.135095 0.000854057 0)
(0.134739 0.000922701 0)
(0.134356 0.00099039 0)
(0.133945 0.00105709 0)
(0.133508 0.00112278 0)
(0.133045 0.00118741 0)
(0.132556 0.00125097 0)
(0.132042 0.00131344 0)
(0.131503 0.00137478 0)
(0.13094 0.00143499 0)
(0.130353 0.00149403 0)
(0.129743 0.0015519 0)
(0.12911 0.00160859 0)
(0.128454 0.00166406 0)
(0.127776 0.00171833 0)
(0.127077 0.00177138 0)
(0.126357 0.0018232 0)
(0.125616 0.00187378 0)
(0.124856 0.00192314 0)
(0.124076 0.00197125 0)
(0.123276 0.00201813 0)
(0.122459 0.00206378 0)
(0.121623 0.00210819 0)
(0.12077 0.00215137 0)
(0.1199 0.00219334 0)
(0.119013 0.00223409 0)
(0.118111 0.00227364 0)
(0.117192 0.00231199 0)
(0.116259 0.00234916 0)
(0.115311 0.00238516 0)
(0.114349 0.00242 0)
(0.113373 0.0024537 0)
(0.112384 0.00248626 0)
(0.111382 0.00251771 0)
(0.110367 0.00254807 0)
(0.109341 0.00257734 0)
(0.108304 0.00260556 0)
(0.107255 0.00263272 0)
(0.106196 0.00265887 0)
(0.105126 0.002684 0)
(0.104047 0.00270815 0)
(0.102958 0.00273134 0)
(0.10186 0.00275358 0)
(0.100753 0.00277489 0)
(0.0996383 0.0027953 0)
(0.0985154 0.00281483 0)
(0.0973849 0.0028335 0)
(0.0962471 0.00285133 0)
(0.0951024 0.00286834 0)
(0.093951 0.00288455 0)
(0.0927933 0.00289999 0)
(0.0916297 0.00291467 0)
(0.0904603 0.00292862 0)
(0.0892855 0.00294186 0)
(0.0881056 0.00295442 0)
(0.0869208 0.0029663 0)
(0.0857314 0.00297753 0)
(0.0845376 0.00298814 0)
(0.0833397 0.00299815 0)
(0.082138 0.00300756 0)
(0.0809327 0.00301642 0)
(0.0797239 0.00302472 0)
(0.078512 0.0030325 0)
(0.077297 0.00303978 0)
(0.0760793 0.00304656 0)
(0.0748589 0.00305288 0)
(0.0736361 0.00305875 0)
(0.0724111 0.00306418 0)
(0.0711841 0.0030692 0)
(0.0699551 0.00307382 0)
(0.0687243 0.00307806 0)
(0.067492 0.00308194 0)
(0.0662581 0.00308548 0)
(0.065023 0.00308868 0)
(0.0637866 0.00309157 0)
(0.0625492 0.00309415 0)
(0.0613108 0.00309646 0)
(0.0600715 0.00309849 0)
(0.0588315 0.00310027 0)
(0.0575909 0.00310181 0)
(0.0563497 0.00310312 0)
(0.055108 0.00310421 0)
(0.0538659 0.00310511 0)
(0.0526236 0.00310581 0)
(0.051381 0.00310634 0)
(0.0501382 0.0031067 0)
(0.0488953 0.00310691 0)
(0.0476524 0.00310698 0)
(0.0464095 0.00310692 0)
(0.0451667 0.00310674 0)
(0.0439239 0.00310644 0)
(0.0426813 0.00310605 0)
(0.0414389 0.00310556 0)
(0.0401967 0.00310499 0)
(0.0389548 0.00310435 0)
(0.0377131 0.00310365 0)
(0.0364718 0.00310289 0)
(0.0352307 0.00310208 0)
(0.03399 0.00310123 0)
(0.0327497 0.00310035 0)
(0.0315097 0.00309944 0)
(0.0302701 0.00309852 0)
(0.0290309 0.00309758 0)
(0.027792 0.00309663 0)
(0.0265536 0.00309568 0)
(0.0253155 0.00309474 0)
(0.0240778 0.00309381 0)
(0.0228405 0.0030929 0)
(0.0216035 0.003092 0)
(0.0203669 0.00309113 0)
(0.0191307 0.00309029 0)
(0.0178947 0.00308949 0)
(0.0166591 0.00308872 0)
(0.0154238 0.00308799 0)
(0.0141888 0.0030873 0)
(0.0129541 0.00308666 0)
(0.0117196 0.00308607 0)
(0.0104853 0.00308554 0)
(0.00925125 0.00308505 0)
(0.00801737 0.00308463 0)
(0.00678366 0.00308426 0)
(0.00555008 0.00308395 0)
(0.00431661 0.0030837 0)
(0.00308323 0.00308351 0)
(0.00184991 0.00308338 0)
(0.000616633 0.00308332 0)
(0.000754585 -0.00528251 0)
(0.00226377 -0.0052826 0)
(0.00377299 -0.00528279 0)
(0.00528229 -0.00528306 0)
(0.00679168 -0.00528342 0)
(0.00830119 -0.00528386 0)
(0.00981085 -0.00528438 0)
(0.0113207 -0.00528496 0)
(0.0128307 -0.00528561 0)
(0.0143409 -0.00528631 0)
(0.0158513 -0.00528705 0)
(0.017362 -0.00528782 0)
(0.0188729 -0.0052886 0)
(0.020384 -0.00528939 0)
(0.0218954 -0.00529017 0)
(0.0234071 -0.00529092 0)
(0.0249189 -0.00529162 0)
(0.026431 -0.00529227 0)
(0.0279433 -0.00529283 0)
(0.0294557 -0.00529328 0)
(0.0309683 -0.00529361 0)
(0.032481 -0.00529379 0)
(0.0339938 -0.0052938 0)
(0.0355065 -0.00529362 0)
(0.0370192 -0.0052932 0)
(0.0385318 -0.00529254 0)
(0.0400442 -0.0052916 0)
(0.0415564 -0.00529034 0)
(0.0430681 -0.00528875 0)
(0.0445794 -0.00528679 0)
(0.0460901 -0.00528441 0)
(0.0476001 -0.0052816 0)
(0.0491093 -0.00527832 0)
(0.0506176 -0.00527453 0)
(0.0521247 -0.00527019 0)
(0.0536305 -0.00526527 0)
(0.0551349 -0.00525972 0)
(0.0566377 -0.00525351 0)
(0.0581386 -0.00524661 0)
(0.0596376 -0.00523896 0)
(0.0611342 -0.00523052 0)
(0.0626284 -0.00522126 0)
(0.0641199 -0.00521113 0)
(0.0656084 -0.00520009 0)
(0.0670937 -0.00518809 0)
(0.0685755 -0.00517509 0)
(0.0700534 -0.00516105 0)
(0.0715273 -0.00514592 0)
(0.0729967 -0.00512966 0)
(0.0744614 -0.00511221 0)
(0.075921 -0.00509355 0)
(0.0773751 -0.00507362 0)
(0.0788234 -0.00505238 0)
(0.0802654 -0.00502978 0)
(0.0817009 -0.00500578 0)
(0.0831294 -0.00498034 0)
(0.0845504 -0.00495342 0)
(0.0859636 -0.00492497 0)
(0.0873685 -0.00489496 0)
(0.0887646 -0.00486334 0)
(0.0901515 -0.00483008 0)
(0.0915288 -0.00479514 0)
(0.0928958 -0.00475848 0)
(0.0942521 -0.00472008 0)
(0.0955973 -0.00467989 0)
(0.0969308 -0.00463789 0)
(0.098252 -0.00459405 0)
(0.0995605 -0.00454834 0)
(0.100856 -0.00450074 0)
(0.102137 -0.00445123 0)
(0.103404 -0.00439978 0)
(0.104656 -0.00434638 0)
(0.105892 -0.00429102 0)
(0.107113 -0.00423369 0)
(0.108316 -0.00417437 0)
(0.109503 -0.00411306 0)
(0.110672 -0.00404976 0)
(0.111822 -0.00398447 0)
(0.112953 -0.0039172 0)
(0.114065 -0.00384794 0)
(0.115157 -0.00377672 0)
(0.116228 -0.00370353 0)
(0.117278 -0.00362842 0)
(0.118306 -0.00355138 0)
(0.119312 -0.00347246 0)
(0.120295 -0.00339167 0)
(0.121254 -0.00330904 0)
(0.12219 -0.00322462 0)
(0.123101 -0.00313845 0)
(0.123987 -0.00305055 0)
(0.124848 -0.00296098 0)
(0.125683 -0.00286979 0)
(0.126492 -0.00277703 0)
(0.127274 -0.00268275 0)
(0.128029 -0.00258701 0)
(0.128756 -0.00248987 0)
(0.129455 -0.0023914 0)
(0.130125 -0.00229166 0)
(0.130767 -0.00219072 0)
(0.13138 -0.00208866 0)
(0.131963 -0.00198553 0)
(0.132517 -0.00188143 0)
(0.13304 -0.00177643 0)
(0.133534 -0.0016706 0)
(0.133997 -0.00156403 0)
(0.134429 -0.0014568 0)
(0.134831 -0.00134899 0)
(0.135201 -0.00124068 0)
(0.135541 -0.00113196 0)
(0.135849 -0.00102292 0)
(0.136126 -0.000913641 0)
(0.136371 -0.000804204 0)
(0.136586 -0.000694698 0)
(0.136768 -0.000585206 0)
(0.13692 -0.000475813 0)
(0.13704 -0.000366603 0)
(0.137129 -0.000257659 0)
(0.137186 -0.000149061 0)
(0.137213 -4.08914e-05 0)
(0.137208 6.67722e-05 0)
(0.137173 0.000173852 0)
(0.137107 0.000280273 0)
(0.137011 0.000385961 0)
(0.136885 0.000490844 0)
(0.136729 0.000594854 0)
(0.136543 0.000697922 0)
(0.136327 0.000799984 0)
(0.136083 0.000900978 0)
(0.13581 0.00100084 0)
(0.135508 0.00109953 0)
(0.135178 0.00119697 0)
(0.134821 0.00129312 0)
(0.134436 0.00138793 0)
(0.134025 0.00148135 0)
(0.133586 0.00157335 0)
(0.133122 0.00166388 0)
(0.132632 0.0017529 0)
(0.132117 0.00184038 0)
(0.131576 0.00192629 0)
(0.131012 0.00201061 0)
(0.130424 0.00209329 0)
(0.129812 0.00217433 0)
(0.129177 0.0022537 0)
(0.12852 0.00233139 0)
(0.127841 0.00240737 0)
(0.12714 0.00248165 0)
(0.126418 0.0025542 0)
(0.125676 0.00262503 0)
(0.124914 0.00269412 0)
(0.124133 0.00276148 0)
(0.123332 0.00282711 0)
(0.122513 0.00289101 0)
(0.121676 0.00295318 0)
(0.120821 0.00301363 0)
(0.11995 0.00307237 0)
(0.119061 0.00312942 0)
(0.118157 0.00318477 0)
(0.117238 0.00323845 0)
(0.116303 0.00329047 0)
(0.115353 0.00334085 0)
(0.11439 0.0033896 0)
(0.113412 0.00343676 0)
(0.112422 0.00348233 0)
(0.111419 0.00352634 0)
(0.110403 0.00356881 0)
(0.109376 0.00360977 0)
(0.108337 0.00364924 0)
(0.107287 0.00368725 0)
(0.106226 0.00372382 0)
(0.105156 0.00375898 0)
(0.104075 0.00379277 0)
(0.102985 0.0038252 0)
(0.101886 0.0038563 0)
(0.100778 0.00388611 0)
(0.0996623 0.00391466 0)
(0.0985383 0.00394197 0)
(0.0974068 0.00396807 0)
(0.096268 0.003993 0)
(0.0951223 0.00401679 0)
(0.09397 0.00403945 0)
(0.0928114 0.00406104 0)
(0.0916469 0.00408156 0)
(0.0904766 0.00410107 0)
(0.089301 0.00411957 0)
(0.0881202 0.00413712 0)
(0.0869346 0.00415372 0)
(0.0857445 0.00416943 0)
(0.08455 0.00418425 0)
(0.0833514 0.00419823 0)
(0.082149 0.00421138 0)
(0.080943 0.00422375 0)
(0.0797336 0.00423535 0)
(0.078521 0.00424621 0)
(0.0773054 0.00425637 0)
(0.0760871 0.00426584 0)
(0.0748662 0.00427466 0)
(0.0736429 0.00428285 0)
(0.0724174 0.00429043 0)
(0.0711898 0.00429743 0)
(0.0699604 0.00430388 0)
(0.0687292 0.0043098 0)
(0.0674964 0.00431521 0)
(0.0662622 0.00432013 0)
(0.0650266 0.00432459 0)
(0.0637899 0.00432861 0)
(0.0625521 0.00433221 0)
(0.0613134 0.00433542 0)
(0.0600738 0.00433825 0)
(0.0588335 0.00434072 0)
(0.0575926 0.00434285 0)
(0.0563511 0.00434467 0)
(0.0551092 0.00434618 0)
(0.0538669 0.00434741 0)
(0.0526243 0.00434838 0)
(0.0513815 0.00434911 0)
(0.0501385 0.0043496 0)
(0.0488955 0.00434988 0)
(0.0476524 0.00434996 0)
(0.0464094 0.00434986 0)
(0.0451664 0.00434958 0)
(0.0439235 0.00434916 0)
(0.0426808 0.00434859 0)
(0.0414383 0.0043479 0)
(0.040196 0.00434709 0)
(0.038954 0.00434619 0)
(0.0377123 0.00434519 0)
(0.0364708 0.00434411 0)
(0.0352297 0.00434297 0)
(0.033989 0.00434177 0)
(0.0327486 0.00434053 0)
(0.0315086 0.00433925 0)
(0.030269 0.00433794 0)
(0.0290297 0.00433662 0)
(0.0277909 0.00433528 0)
(0.0265524 0.00433395 0)
(0.0253144 0.00433263 0)
(0.0240767 0.00433132 0)
(0.0228394 0.00433003 0)
(0.0216025 0.00432877 0)
(0.0203659 0.00432755 0)
(0.0191297 0.00432636 0)
(0.0178938 0.00432523 0)
(0.0166582 0.00432415 0)
(0.015423 0.00432312 0)
(0.014188 0.00432216 0)
(0.0129533 0.00432126 0)
(0.0117189 0.00432043 0)
(0.0104847 0.00431968 0)
(0.00925071 0.004319 0)
(0.0080169 0.0043184 0)
(0.00678325 0.00431788 0)
(0.00554974 0.00431744 0)
(0.00431634 0.00431709 0)
(0.00308304 0.00431683 0)
(0.0018498 0.00431665 0)
(0.000616595 0.00431656 0)
(0.000754531 -0.00679164 0)
(0.00226361 -0.00679176 0)
(0.00377273 -0.006792 0)
(0.00528192 -0.00679236 0)
(0.00679122 -0.00679283 0)
(0.00830064 -0.00679341 0)
(0.00981021 -0.00679408 0)
(0.01132 -0.00679485 0)
(0.0128299 -0.0067957 0)
(0.0143401 -0.00679661 0)
(0.0158505 -0.00679758 0)
(0.0173611 -0.00679859 0)
(0.018872 -0.00679963 0)
(0.0203831 -0.00680067 0)
(0.0218945 -0.00680169 0)
(0.0234062 -0.00680269 0)
(0.0249181 -0.00680363 0)
(0.0264303 -0.00680449 0)
(0.0279427 -0.00680524 0)
(0.0294553 -0.00680586 0)
(0.030968 -0.00680633 0)
(0.0324809 -0.0068066 0)
(0.0339938 -0.00680666 0)
(0.0355068 -0.00680646 0)
(0.0370198 -0.00680598 0)
(0.0385327 -0.00680518 0)
(0.0400455 -0.00680401 0)
(0.041558 -0.00680246 0)
(0.0430701 -0.00680046 0)
(0.0445819 -0.00679799 0)
(0.046093 -0.006795 0)
(0.0476036 -0.00679145 0)
(0.0491133 -0.00678729 0)
(0.0506222 -0.00678247 0)
(0.0521299 -0.00677696 0)
(0.0536365 -0.0067707 0)
(0.0551416 -0.00676363 0)
(0.0566451 -0.00675572 0)
(0.0581469 -0.00674691 0)
(0.0596467 -0.00673714 0)
(0.0611443 -0.00672637 0)
(0.0626395 -0.00671454 0)
(0.064132 -0.00670159 0)
(0.0656216 -0.00668746 0)
(0.067108 -0.00667211 0)
(0.0685909 -0.00665548 0)
(0.0700701 -0.0066375 0)
(0.0715452 -0.00661812 0)
(0.0730159 -0.00659729 0)
(0.074482 -0.00657494 0)
(0.075943 -0.00655102 0)
(0.0773986 -0.00652547 0)
(0.0788484 -0.00649823 0)
(0.080292 -0.00646925 0)
(0.0817291 -0.00643848 0)
(0.0831593 -0.00640584 0)
(0.084582 -0.0063713 0)
(0.085997 -0.00633479 0)
(0.0874037 -0.00629627 0)
(0.0888017 -0.00625569 0)
(0.0901905 -0.00621299 0)
(0.0915696 -0.00616812 0)
(0.0929386 -0.00612105 0)
(0.094297 -0.00607173 0)
(0.0956442 -0.00602011 0)
(0.0969798 -0.00596615 0)
(0.0983031 -0.00590983 0)
(0.0996138 -0.00585111 0)
(0.100911 -0.00578994 0)
(0.102195 -0.00572632 0)
(0.103464 -0.0056602 0)
(0.104718 -0.00559157 0)
(0.105957 -0.00552042 0)
(0.107179 -0.00544671 0)
(0.108385 -0.00537046 0)
(0.109574 -0.00529164 0)
(0.110745 -0.00521025 0)
(0.111898 -0.0051263 0)
(0.113031 -0.00503979 0)
(0.114145 -0.00495073 0)
(0.115239 -0.00485913 0)
(0.116313 -0.00476501 0)
(0.117365 -0.00466839 0)
(0.118395 -0.0045693 0)
(0.119403 -0.00446778 0)
(0.120388 -0.00436385 0)
(0.12135 -0.00425756 0)
(0.122287 -0.00414896 0)
(0.123201 -0.00403809 0)
(0.124089 -0.003925 0)
(0.124952 -0.00380976 0)
(0.125789 -0.00369242 0)
(0.126599 -0.00357306 0)
(0.127383 -0.00345175 0)
(0.128139 -0.00332855 0)
(0.128868 -0.00320355 0)
(0.129568 -0.00307683 0)
(0.13024 -0.00294848 0)
(0.130883 -0.00281858 0)
(0.131497 -0.00268722 0)
(0.132082 -0.00255451 0)
(0.132636 -0.00242053 0)
(0.133161 -0.00228539 0)
(0.133655 -0.00214919 0)
(0.134119 -0.00201203 0)
(0.134552 -0.00187402 0)
(0.134954 -0.00173526 0)
(0.135325 -0.00159586 0)
(0.135665 -0.00145594 0)
(0.135974 -0.0013156 0)
(0.136251 -0.00117495 0)
(0.136497 -0.0010341 0)
(0.136711 -0.000893158 0)
(0.136893 -0.000752238 0)
(0.137045 -0.000611447 0)
(0.137165 -0.000470893 0)
(0.137253 -0.000330682 0)
(0.13731 -0.000190919 0)
(0.137336 -5.17082e-05 0)
(0.137331 8.68489e-05 0)
(0.137295 0.000224653 0)
(0.137229 0.000361605 0)
(0.137132 0.000497612 0)
(0.137004 0.000632582 0)
(0.136847 0.000766423 0)
(0.13666 0.00089905 0)
(0.136443 0.00103038 0)
(0.136198 0.00116033 0)
(0.135923 0.00128883 0)
(0.13562 0.0014158 0)
(0.135289 0.00154117 0)