/*--------------------------------*- C++ -*----------------------------------*\
| =========                 |                                                 |
| \\      /  F ield         | OpenFOAM: The Open Source CFD Toolbox           |
|  \\    /   O peration     | Version:  v2012                                 |
|   \\  /    A nd           | Website:  www.openfoam.com                      |
|    \\/     M anipulation  |                                                 |
\*---------------------------------------------------------------------------*/
FoamFile
{
    version     2.0;
    format      ascii;
    class       volVectorField;
    location    "0";
    object      uRec;
}
// * * * * * * * * * * * * * * * * * * * * * * * * * * * * * * * * * * * * * //

dimensions      [0 1 -1 0 0 0 0];


internalField   nonuniform List<vector> 
4000
(
(1 9.12986e-16 0)
(1 1.46166e-15 0)
(1 -1.11444e-15 0)
(1 -7.45439e-16 0)
(1 1.26749e-15 0)
(1 -4.94761e-16 0)
(1 2.38694e-15 0)
(1 -1.55868e-15 0)
(1 3.09532e-15 0)
(1 1.55635e-15 0)
(1 -3.55344e-15 0)
(1 7.57693e-17 0)
(1 9.60608e-16 0)
(1 7.74665e-16 0)
(1 -7.25624e-16 0)
(1 5.32706e-16 0)
(1 -1.63267e-15 0)
(1 -1.10533e-15 0)
(1 1.57904e-15 0)
(1 1.25076e-15 0)
(1 2.95045e-16 0)
(1 2.66336e-15 0)
(1 -2.99054e-16 0)
(1 2.57239e-15 0)
(1 -2.97139e-16 0)
(1 -4.81339e-16 0)
(1 1.25577e-15 0)
(1 -2.00105e-15 0)
(1 -2.02398e-18 0)
(1 -6.50363e-16 0)
(1 1.19118e-15 0)
(1 2.17565e-15 0)
(1 -9.45124e-16 0)
(1 -1.03816e-15 0)
(1 1.97564e-16 0)
(1 -1.82626e-15 0)
(1 -1.33687e-15 0)
(1 8.83397e-16 0)
(1 2.54051e-15 0)
(1 -1.44551e-16 0)
(1 1.72919e-15 0)
(1 -1.90154e-15 0)
(1 -6.08734e-16 0)
(1 8.21584e-16 0)
(1 1.98261e-15 0)
(1 -1.43024e-15 0)
(1 1.25833e-15 0)
(1 2.38739e-16 0)
(1 7.36215e-17 0)
(1 6.90514e-17 0)
(1 -6.74284e-16 0)
(1 8.35465e-16 0)
(1 4.31029e-16 0)
(1 2.91869e-15 0)
(1 1.72142e-15 0)
(1 1.50239e-15 0)
(1 4.16697e-16 0)
(1 -4.39866e-16 0)
(1 6.34884e-16 0)
(1 1.82528e-15 0)
(1 -8.18342e-16 0)
(1 -1.79807e-15 0)
(1 -7.27566e-16 0)
(1 1.18995e-15 0)
(1 5.76974e-16 0)
(1 4.18846e-16 0)
(1 2.02345e-16 0)
(1 -5.63159e-16 0)
(1 9.71174e-16 0)
(1 -9.85327e-16 0)
(1 -3.49363e-16 0)
(1 5.28122e-16 0)
(1 -4.02924e-16 0)
(1 -5.02139e-16 0)
(1 -9.29117e-16 0)
(1 -1.66806e-15 0)
(1 -1.4556e-16 0)
(1 -3.15728e-16 0)
(1 5.19383e-16 0)
(1 1.0024e-15 0)
(1 6.81638e-16 0)
(1 1.96848e-15 0)
(1 -9.70169e-16 0)
(1 9.85504e-17 0)
(1 -1.2893e-15 0)
(1 -1.19256e-15 0)
(1 6.0212e-16 0)
(1 9.4231e-16 0)
(1 1.16964e-15 0)
(1 7.68783e-16 0)
(1 1.41466e-16 0)
(1 -7.27352e-16 0)
(1 1.30838e-15 0)
(1 1.82434e-15 0)
(1 -7.08493e-16 0)
(1 -1.31912e-15 0)
(1 4.17636e-16 0)
(1 1.22904e-15 0)
(1 -3.97322e-16 0)
(1 -2.84355e-16 0)
(1 3.83584e-16 0)
(1 4.04856e-15 0)
(1 -1.43359e-15 0)
(1 -1.57444e-15 0)
(1 -4.97665e-16 0)
(1 9.84087e-16 0)
(1 2.49816e-15 0)
(1 -1.07161e-15 0)
(1 3.56024e-15 0)
(1 2.20218e-15 0)
(1 -8.87607e-16 0)
(1 -2.82191e-16 0)
(1 3.06033e-16 0)
(1 -1.13043e-15 0)
(1 -1.53543e-15 0)
(1 2.82067e-15 0)
(1 -1.81588e-16 0)
(1 3.4677e-16 0)
(1 2.17964e-15 0)
(1 1.52098e-15 0)
(1 3.77946e-16 0)
(1 1.16673e-15 0)
(1 -6.93201e-16 0)
(1 1.95305e-15 0)
(1 -6.06116e-17 0)
(1 6.4884e-16 0)
(1 3.4925e-15 0)
(1 -2.76566e-15 0)
(1 -2.25325e-16 0)
(1 8.70669e-16 0)
(1 -2.55668e-16 0)
(1 2.7798e-15 0)
(1 -1.6951e-15 0)
(1 -1.16009e-15 0)
(1 1.57022e-15 0)
(1 -1.52026e-15 0)
(1 5.60003e-16 0)
(1 3.28943e-15 0)
(1 1.62836e-15 0)
(1 -6.89687e-16 0)
(1 -7.82658e-16 0)
(1 -1.98133e-15 0)
(1 -1.62273e-15 0)
(1 5.19209e-16 0)
(1 1.6305e-15 0)
(1 -5.45267e-16 0)
(1 3.84806e-15 0)
(1 3.50819e-15 0)
(1 3.3908e-15 0)
(1 1.92364e-15 0)
(1 9.25305e-16 0)
(1 4.06847e-17 0)
(1 2.71587e-15 0)
(1 1.77219e-15 0)
(1 1.72688e-15 0)
(1 3.5924e-16 0)
(1 1.35682e-15 0)
(1 2.51948e-15 0)
(1 1.65479e-15 0)
(1 -9.63555e-16 0)
(1 5.45153e-16 0)
(1 5.29696e-16 0)
(1 -3.56718e-16 0)
(1 1.25754e-15 0)
(1 -1.89039e-16 0)
(1 1.62739e-15 0)
(1 -1.78986e-15 0)
(1 -1.6264e-15 0)
(1 1.54989e-15 0)
(1 -7.21174e-16 0)
(1 -9.9694e-16 0)
(1 2.18518e-16 0)
(1 1.35554e-15 0)
(1 -7.17895e-16 0)
(1 5.21762e-16 0)
(1 -2.0113e-17 0)
(1 8.7834e-16 0)
(1 1.89254e-15 0)
(1 4.23833e-16 0)
(1 2.40903e-15 0)
(1 1.03745e-15 0)
(1 1.94248e-15 0)
(1 1.68616e-15 0)
(1 -1.08136e-15 0)
(1 -2.21567e-16 0)
(1 -1.38802e-15 0)
(1 -5.95386e-16 0)
(1 4.01184e-16 0)
(1 1.38238e-15 0)
(1 2.31702e-15 0)
(1 3.65314e-16 0)
(1 -1.24581e-15 0)
(1 3.1956e-15 0)
(1 2.48424e-15 0)
(1 -2.38628e-15 0)
(1 -1.43707e-15 0)
(1 1.35087e-15 0)
(1 2.32855e-16 0)
(1 -9.48342e-16 0)
(1 -8.83442e-16 0)
(1 -5.44266e-16 0)
(1 3.29333e-15 0)
(1 -4.54889e-16 0)
(1 -7.79803e-17 0)
(1 -6.11771e-16 0)
(1 1.48064e-15 0)
(1 2.67911e-15 0)
(1 5.80001e-15 0)
(1 -1.01605e-15 0)
(1 -6.76523e-16 0)
(1 1.53599e-15 0)
(1 2.55342e-15 0)
(1 2.24624e-15 0)
(1 -9.43501e-16 0)
(1 6.32276e-17 0)
(1 1.15292e-15 0)
(1 2.49865e-15 0)
(1 2.80748e-15 0)
(1 4.12388e-16 0)
(1 2.08673e-15 0)
(1 3.39661e-16 0)
(1 -1.85865e-15 0)
(1 -1.43351e-17 0)
(1 5.48893e-16 0)
(1 3.87243e-15 0)
(1 3.41986e-15 0)
(1 3.22519e-15 0)
(1 -2.56039e-15 0)
(1 -3.16003e-16 0)
(1 1.56887e-15 0)
(1 8.52849e-16 0)
(1 -1.16235e-15 0)
(1 6.5155e-16 0)
(1 1.3945e-15 0)
(1 -5.57779e-17 0)
(1 3.19694e-16 0)
(1 -8.2133e-16 0)
(1 2.5631e-15 0)
(1 3.11172e-15 0)
(1 -1.97632e-15 0)
(1 -9.92958e-16 0)
(1 -1.97292e-16 0)
(1 -1.85061e-16 0)
(1 -5.5166e-16 0)
(1 6.61625e-16 0)
(1 1.0157e-15 0)
(1 1.56508e-15 0)
(1 5.14902e-15 0)
(1 6.1814e-15 0)
(1 3.92097e-15 0)
(1 4.52215e-15 0)
(1 1.59112e-15 0)
(1 3.60153e-15 0)
(1 -1.09529e-15 0)
(1 1.56988e-15 0)
(1 9.38599e-18 0)
(1 2.7988e-15 0)
(1 3.93365e-15 0)
(1 5.1893e-15 0)
(1 1.08638e-15 0)
(1 1.52562e-16 0)
(1 1.23279e-15 0)
(1 1.3053e-15 0)
(1 -1.49727e-15 0)
(1 -7.05852e-16 0)
(1 3.37124e-16 0)
(1 -8.36138e-16 0)
(1 4.6563e-16 0)
(1 2.43144e-15 0)
(1 9.34793e-16 0)
(1 1.04029e-15 0)
(1 2.24888e-16 0)
(1 -5.25714e-17 0)
(1 -2.20643e-15 0)
(1 6.71334e-17 0)
(1 8.38675e-17 0)
(1 5.98896e-16 0)
(1 1.45279e-15 0)
(1 1.73334e-15 0)
(1 4.98336e-16 0)
(1 -5.64902e-16 0)
(1 8.75488e-16 0)
(1 3.00129e-15 0)
(1 -9.33128e-18 0)
(1 3.68962e-16 0)
(1 5.20577e-16 0)
(1 -1.3201e-15 0)
(1 2.37735e-16 0)
(1 6.3634e-16 0)
(1 2.86647e-15 0)
(1 1.16165e-15 0)
(1 8.95381e-16 0)
(1 3.7333e-16 0)
(1 2.295e-15 0)
(1 -8.74302e-16 0)
(1 2.64594e-16 0)
(1 1.77281e-15 0)
(1 -2.02495e-15 0)
(1 -9.66494e-18 0)
(1 -3.63023e-16 0)
(1 -1.07993e-16 0)
(1 2.23115e-15 0)
(1 1.3339e-15 0)
(1 -9.80135e-16 0)
(1 1.82342e-15 0)
(1 -3.06186e-16 0)
(1 2.99556e-15 0)
(1 5.69328e-15 0)
(1 9.56975e-16 0)
(1 1.38166e-16 0)
(1 -7.75178e-16 0)
(1 4.41795e-15 0)
(1 -1.81318e-16 0)
(1 1.00492e-15 0)
(1 5.29229e-15 0)
(1 -8.68964e-16 0)
(1 2.80359e-15 0)
(1 1.87975e-16 0)
(1 -1.00229e-15 0)
(1 5.40124e-15 0)
(1 -7.26795e-18 0)
(1 1.64769e-15 0)
(1 3.32523e-16 0)
(1 9.01948e-16 0)
(1 5.81522e-15 0)
(1 4.04359e-15 0)
(1 3.46135e-15 0)
(1 -3.10085e-16 0)
(1 7.19787e-16 0)
(1 2.16045e-15 0)
(1 9.72487e-16 0)
(1 -5.20341e-17 0)
(1 8.44257e-16 0)
(1 1.95252e-15 0)
(1 1.4946e-16 0)
(1 -6.43501e-16 0)
(1 -1.77183e-15 0)
(1 -1.03422e-15 0)
(1 3.56602e-15 0)
(1 9.02997e-16 0)
(1 2.84164e-15 0)
(1 3.65258e-16 0)
(1 -5.90704e-16 0)
(1 4.72534e-16 0)
(1 1.8616e-15 0)
(1 2.84573e-15 0)
(1 1.4582e-15 0)
(1 4.61861e-15 0)
(1 5.489e-15 0)
(1 4.88461e-15 0)
(1 5.53492e-15 0)
(1 3.42814e-15 0)
(1 2.72407e-15 0)
(1 2.33034e-15 0)
(1 3.61162e-15 0)
(1 2.24239e-15 0)
(1 3.82624e-15 0)
(1 5.08182e-15 0)
(1 5.01111e-15 0)
(1 5.01233e-15 0)
(1 2.31095e-15 0)
(1 -1.44235e-15 0)
(1 -5.78555e-16 0)
(1 -2.42017e-17 0)
(1 -9.6642e-16 0)
(1 4.96728e-16 0)
(1 -7.58778e-17 0)
(1 3.37372e-15 0)
(1 6.23042e-16 0)
(1 8.56284e-18 0)
(1 1.01992e-15 0)
(1 -2.33731e-16 0)
(1 -6.61474e-16 0)
(1 -1.28476e-15 0)
(1 -1.82076e-15 0)
(1 5.61628e-16 0)
(1 3.17536e-15 0)
(1 1.07252e-15 0)
(1 3.09502e-15 0)
(1 2.27832e-15 0)
(1 -1.48326e-15 0)
(1 2.57005e-15 0)
(1 9.78674e-16 0)
(1 1.54794e-15 0)
(1 1.22101e-15 0)
(1 -5.58231e-16 0)
(1 1.23044e-15 0)
(1 2.1221e-16 0)
(1 1.59375e-15 0)
(1 2.40012e-15 0)
(1 2.9891e-16 0)
(1 2.37934e-15 0)
(1 7.94534e-16 0)
(1 2.25326e-15 0)
(1 1.76373e-15 0)
(1 8.25281e-16 0)
(1 7.62697e-16 0)
(1 6.76846e-16 0)
(1 -1.86715e-15 0)
(1 -1.71299e-15 0)
(1 8.5444e-16 0)
(1 -2.79823e-16 0)
(1 3.03754e-15 0)
(1 -9.82079e-16 0)
(1 9.74062e-16 0)
(1 2.28228e-15 0)
(1 1.31957e-15 0)
(1 1.7465e-15 0)
(1 6.31413e-15 0)
(1 3.86926e-15 0)
(1 2.81299e-15 0)
(1 4.37035e-15 0)
(1 -4.43316e-16 0)
(1 -1.05489e-15 0)
(1 2.52884e-15 0)
(1 2.25253e-15 0)
(1 4.99291e-15 0)
(1 3.42697e-15 0)
(1 1.11065e-15 0)
(1 3.94751e-16 0)
(1 4.607e-16 0)
(1 2.7006e-15 0)
(1 2.44751e-15 0)
(1 3.26771e-15 0)
(1 -2.12279e-16 0)
(1 2.1285e-17 0)
(1 -3.26476e-16 0)
(1 2.15788e-15 0)
(1 1.35784e-15 0)
(1 1.42801e-16 0)
(1 1.45669e-15 0)
(1 3.18731e-15 0)
(1 -1.00656e-15 0)
(1 3.90683e-15 0)
(1 -6.96798e-16 0)
(1 -1.68511e-15 0)
(1 3.0819e-16 0)
(1 -4.42112e-16 0)
(1 1.5998e-15 0)
(1 3.54025e-15 0)
(1 3.01681e-15 0)
(1 7.46148e-16 0)
(1 -1.478e-15 0)
(1 9.72584e-16 0)
(1 2.62681e-16 0)
(1 4.95482e-15 0)
(1 5.43009e-15 0)
(1 7.63972e-15 0)
(1 5.29358e-15 0)
(1 4.33915e-15 0)
(1 3.94958e-15 0)
(1 2.61569e-15 0)
(1 1.94602e-15 0)
(1 4.19086e-15 0)
(1 4.13085e-15 0)
(1 3.48367e-15 0)
(1 3.11568e-15 0)
(1 3.60106e-15 0)
(1 8.67163e-16 0)
(1 1.33089e-15 0)
(1 5.13449e-15 0)
(1 1.27244e-15 0)
(1 1.60152e-15 0)
(1 1.49527e-15 0)
(1 1.48157e-15 0)
(1 1.9144e-15 0)
(1 1.57868e-15 0)
(1 3.28057e-15 0)
(1 -1.12353e-15 0)
(1 2.0569e-15 0)
(1 -7.20423e-16 0)
(1 -3.73973e-16 0)
(1 2.66378e-15 0)
(1 6.57798e-16 0)
(1 -8.26279e-17 0)
(1 5.87578e-16 0)
(1 3.3222e-15 0)
(1 3.18502e-15 0)
(1 2.43764e-15 0)
(1 1.02456e-15 0)
(1 2.6021e-16 0)
(1 1.13905e-15 0)
(1 4.46313e-16 0)
(1 4.68702e-16 0)
(1 2.54748e-15 0)
(1 -8.08838e-18 0)
(1 2.14542e-15 0)
(1 9.84763e-16 0)
(1 8.47271e-16 0)
(1 1.68398e-15 0)
(1 1.1195e-15 0)
(1 1.27251e-15 0)
(1 3.23682e-15 0)
(1 1.41585e-15 0)
(1 3.54454e-15 0)
(1 1.55051e-15 0)
(1 2.0104e-16 0)
(1 1.22188e-15 0)
(1 -2.42952e-15 0)
(1 -8.17909e-16 0)
(1 3.73014e-16 0)
(1 -2.16425e-15 0)
(1 3.19164e-15 0)
(1 2.82284e-15 0)
(1 1.17527e-15 0)
(1 1.80192e-15 0)
(1 1.4477e-15 0)
(1 3.85773e-15 0)
(1 4.2116e-15 0)
(1 4.22504e-15 0)
(1 5.88378e-15 0)
(1 3.60191e-15 0)
(1 6.22191e-16 0)
(1 1.446e-15 0)
(1 1.07549e-15 0)
(1 2.92335e-15 0)
(1 1.48925e-15 0)
(1 2.86577e-15 0)
(1 1.26282e-15 0)
(1 -1.59324e-15 0)
(1 1.32218e-15 0)
(1 8.40783e-17 0)
(1 6.26723e-15 0)
(1 4.52454e-15 0)
(1 1.0258e-15 0)
(1 3.14819e-15 0)
(1 1.1218e-15 0)
(1 1.51175e-15 0)
(1 -8.81497e-16 0)
(1 4.85197e-16 0)
(1 2.32621e-16 0)
(1 2.33648e-15 0)
(1 1.0597e-15 0)
(1 2.7936e-15 0)
(1 -2.12231e-15 0)
(1 1.39689e-15 0)
(1 2.85897e-15 0)
(1 3.29617e-15 0)
(1 9.10459e-16 0)
(1 1.94464e-15 0)
(1 2.66164e-15 0)
(1 2.53759e-15 0)
(1 -1.72212e-16 0)
(1 -4.48313e-16 0)
(1 2.61725e-15 0)
(1 4.49983e-15 0)
(1 4.214e-15 0)
(1 6.90775e-15 0)
(1 7.5613e-15 0)
(1 6.03263e-15 0)
(1 3.01538e-15 0)
(1 3.70098e-15 0)
(1 5.16173e-15 0)
(1 5.42108e-15 0)
(1 3.27491e-15 0)
(1 3.8459e-15 0)
(1 4.8092e-15 0)
(1 4.59477e-15 0)
(1 3.93608e-15 0)
(1 6.18603e-15 0)
(1 3.65771e-15 0)
(1 9.21347e-16 0)
(1 5.90038e-16 0)
(1 7.15893e-16 0)
(1 3.0011e-15 0)
(1 2.56294e-15 0)
(1 5.14866e-15 0)
(1 2.05533e-15 0)
(1 1.57669e-15 0)
(1 7.52506e-16 0)
(1 1.93388e-15 0)
(1 1.71216e-15 0)
(1 2.93621e-15 0)
(1 2.77161e-16 0)
(1 -2.05385e-17 0)
(1 3.56174e-16 0)
(1 1.90364e-15 0)
(1 4.52512e-15 0)
(1 1.16509e-15 0)
(1 -2.69985e-16 0)
(1 1.16168e-15 0)
(1 2.37336e-15 0)
(1 8.37635e-16 0)
(1 2.45023e-15 0)
(1 1.21377e-15 0)
(1 6.83161e-16 0)
(1 4.25018e-16 0)
(1 -1.33344e-15 0)
(1 -5.02982e-16 0)
(1 1.34901e-15 0)
(1 2.26838e-15 0)
(1 1.98313e-15 0)
(1 3.56442e-15 0)
(1 3.9546e-15 0)
(1 5.19908e-15 0)
(1 3.45476e-15 0)
(1 1.30264e-15 0)
(1 -1.8409e-15 0)
(1 9.42034e-16 0)
(1 1.98083e-15 0)
(1 -5.35583e-16 0)
(1 3.111e-16 0)
(1 3.13963e-15 0)
(1 8.70746e-16 0)
(1 3.56261e-15 0)
(1 -3.29906e-16 0)
(1 2.02567e-15 0)
(1 6.96294e-15 0)
(1 2.68211e-15 0)
(1 4.25516e-15 0)
(1 4.82305e-15 0)
(1 1.54634e-15 0)
(1 1.07338e-15 0)
(1 4.37586e-15 0)
(1 2.19946e-15 0)
(1 5.77978e-15 0)
(1 3.62816e-15 0)
(1 6.36167e-16 0)
(1 1.39388e-15 0)
(1 2.0367e-15 0)
(1 2.32712e-15 0)
(1 -4.08197e-15 0)
(1 4.83407e-15 0)
(1 -4.40083e-16 0)
(1 4.34584e-15 0)
(1 1.92793e-15 0)
(1 1.82506e-15 0)
(1 9.4681e-16 0)
(1 1.98156e-15 0)
(1 3.44981e-15 0)
(1 1.38782e-15 0)
(1 1.66239e-15 0)
(1 3.52031e-15 0)
(1 -5.45187e-16 0)
(1 9.93021e-17 0)
(1 3.95864e-15 0)
(1 3.16779e-15 0)
(1 2.93639e-15 0)
(1 -1.91974e-15 0)
(1 2.62137e-15 0)
(1 8.62164e-16 0)
(1 1.70098e-15 0)
(1 2.9086e-15 0)
(1 2.16452e-15 0)
(1 3.77569e-15 0)
(1 5.30685e-15 0)
(1 6.5919e-15 0)
(1 4.21246e-15 0)
(1 4.94678e-15 0)
(1 5.68493e-15 0)
(1 4.20515e-15 0)
(1 4.32642e-15 0)
(1 6.0449e-15 0)
(1 6.41926e-15 0)
(1 3.86754e-15 0)
(1 3.46042e-15 0)
(1 4.32009e-15 0)
(1 5.31561e-15 0)
(1 5.55266e-15 0)
(1 5.66305e-15 0)
(1 1.52864e-15 0)
(1 3.07479e-15 0)
(1 1.63233e-15 0)
(1 2.27355e-15 0)
(1 1.35878e-15 0)
(1 5.75306e-16 0)
(1 8.84777e-16 0)
(1 3.08938e-15 0)
(1 3.10436e-15 0)
(1 2.22484e-16 0)
(1 4.5445e-15 0)
(1 3.85043e-15 0)
(1 5.67596e-16 0)
(1 2.62188e-16 0)
(1 8.26353e-17 0)
(1 3.66004e-15 0)
(1 1.55867e-15 0)
(1 3.80418e-15 0)
(1 2.45477e-15 0)
(1 1.78069e-15 0)
(1 2.56782e-15 0)
(1 2.49371e-15 0)
(1 2.66931e-15 0)
(1 2.47996e-15 0)
(1 1.46003e-15 0)
(1 2.7773e-15 0)
(1 9.01875e-16 0)
(1 1.80884e-15 0)
(1 1.95555e-15 0)
(1 1.38374e-15 0)
(1 1.767e-15 0)
(1 3.07663e-15 0)
(1 4.23934e-15 0)
(1 4.26917e-15 0)
(1 2.63155e-15 0)
(1 3.91888e-15 0)
(1 1.05041e-15 0)
(1 2.13556e-16 0)
(1 2.0445e-15 0)
(1 9.57356e-16 0)
(1 -6.02143e-16 0)
(1 6.8192e-16 0)
(1 1.71713e-16 0)
(1 1.15865e-15 0)
(1 3.64734e-15 0)
(1 2.93194e-15 0)
(1 1.28044e-15 0)
(1 4.18272e-15 0)
(1 6.61692e-15 0)
(1 7.62215e-15 0)
(1 4.9865e-15 0)
(1 -1.2317e-15 0)
(1 3.68975e-15 0)
(1 1.52194e-15 0)
(1 3.08886e-15 0)
(1 5.92819e-15 0)
(1 4.59254e-15 0)
(1 6.46101e-15 0)
(1 4.07485e-15 0)
(1 -1.04515e-15 0)
(1 7.27347e-16 0)
(1 -3.27236e-15 0)
(1 9.44687e-16 0)
(1 6.71364e-16 0)
(1 6.50384e-16 0)
(1 -3.57168e-15 0)
(1 -1.81096e-15 0)
(1 7.90904e-16 0)
(1 3.87623e-15 0)
(1 5.08425e-15 0)
(1 8.3902e-15 0)
(1 2.13195e-15 0)
(1 2.88863e-15 0)
(1 -8.52227e-16 0)
(1 9.98477e-16 0)
(1 1.08052e-15 0)
(1 1.07581e-15 0)
(1 1.52991e-15 0)
(1 2.44954e-15 0)
(1 5.59809e-15 0)
(1 1.97552e-15 0)
(1 1.74648e-15 0)
(1 4.42827e-15 0)
(1 1.40254e-15 0)
(1 1.29523e-15 0)
(1 6.11545e-15 0)
(1 8.0901e-15 0)
(1 7.04426e-15 0)
(1 2.67592e-15 0)
(1 5.13193e-15 0)
(1 7.18583e-15 0)
(1 5.36052e-15 0)
(1 2.17401e-15 0)
(1 6.21453e-15 0)
(1 7.78782e-15 0)
(1 8.80576e-15 0)
(1 4.35929e-15 0)
(1 3.00032e-15 0)
(1 5.51898e-15 0)
(1 1.2122e-15 0)
(1 -9.62554e-16 0)
(1 4.98537e-15 0)
(1 6.38684e-15 0)
(1 6.02745e-15 0)
(1 2.40605e-15 0)
(1 2.97706e-15 0)
(1 3.05616e-15 0)
(1 1.08131e-15 0)
(1 3.26313e-15 0)
(1 3.42789e-15 0)
(1 3.68655e-15 0)
(1 2.37616e-15 0)
(1 1.67324e-15 0)
(1 -5.41518e-17 0)
(1 1.14006e-15 0)
(1 4.57549e-15 0)
(1 2.4379e-15 0)
(1 1.01256e-15 0)
(1 1.08165e-15 0)
(1 5.84834e-16 0)
(1 3.67501e-15 0)
(1 1.147e-15 0)
(1 3.42772e-15 0)
(1 3.31195e-15 0)
(1 -3.13437e-16 0)
(1 2.21099e-15 0)
(1 2.44348e-15 0)
(1 3.66359e-15 0)
(1 3.49792e-15 0)
(1 -9.2157e-16 0)
(1 1.03084e-15 0)
(1 3.6639e-15 0)
(1 3.90946e-15 0)
(1 4.37438e-15 0)
(1 3.77234e-15 0)
(1 3.97175e-15 0)
(1 -6.4862e-17 0)
(1 5.28843e-16 0)
(1 2.32593e-15 0)
(1 1.98397e-15 0)
(1 -1.59913e-16 0)
(1 -1.12389e-16 0)
(1 -5.53904e-16 0)
(1 1.98122e-15 0)
(1 1.65153e-15 0)
(1 5.738e-15 0)
(1 2.38909e-15 0)
(1 4.6122e-16 0)
(1 5.93281e-15 0)
(1 3.94759e-15 0)
(1 3.67762e-15 0)
(1 1.7154e-15 0)
(1 2.8796e-15 0)
(1 4.4886e-15 0)
(1 4.94479e-15 0)
(1 4.85889e-15 0)
(1 2.73681e-15 0)
(1 4.79264e-15 0)
(1 5.62099e-15 0)
(1 -1.19668e-16 0)
(1 -3.16199e-15 0)
(1 8.28392e-16 0)
(1 -1.43582e-16 0)
(1 3.08199e-15 0)
(1 1.06347e-15 0)
(1 -1.40802e-15 0)
(1 1.76976e-15 0)
(1 -6.87278e-16 0)
(1 1.36634e-15 0)
(1 4.78908e-15 0)
(1 5.30371e-15 0)
(1 1.11375e-15 0)
(1 2.69984e-15 0)
(1 1.26386e-15 0)
(1 2.99929e-16 0)
(1 1.17423e-15 0)
(1 1.97672e-15 0)
(1 4.40567e-15 0)
(1 4.02404e-15 0)
(1 3.52993e-15 0)
(1 1.14238e-15 0)
(1 3.03415e-15 0)
(1 4.18638e-15 0)
(1 2.79384e-15 0)
(1 6.28193e-15 0)
(1 2.23598e-15 0)
(1 5.96724e-15 0)
(1 5.51983e-15 0)
(1 2.87232e-15 0)
(1 4.96861e-15 0)
(1 5.82677e-15 0)
(1 7.40748e-15 0)
(1 4.12849e-15 0)
(1 7.77804e-15 0)
(1 9.55615e-15 0)
(1 8.02144e-15 0)
(1 7.33378e-15 0)
(1 2.62499e-15 0)
(1 6.94835e-15 0)
(1 2.95719e-15 0)
(1 4.78056e-15 0)
(1 3.55845e-15 0)
(1 2.83168e-15 0)
(1 6.45357e-15 0)
(1 -1.33492e-15 0)
(1 3.7389e-15 0)
(1 2.7043e-15 0)
(1 -1.4632e-16 0)
(1 6.75133e-15 0)
(1 5.02814e-15 0)
(1 5.25844e-15 0)
(1 9.37419e-16 0)
(1 3.05027e-15 0)
(1 1.18727e-15 0)
(1 1.3951e-15 0)
(1 4.04655e-15 0)
(1 2.4441e-15 0)
(1 2.31963e-15 0)
(1 1.78578e-15 0)
(1 4.59705e-15 0)
(1 4.0851e-15 0)
(1 4.22039e-15 0)
(1 1.87369e-15 0)
(1 3.0166e-15 0)
(1 -4.39387e-16 0)
(1 -1.11456e-16 0)
(1 7.95978e-16 0)
(1 2.12444e-15 0)
(1 2.4595e-15 0)
(1 2.00621e-15 0)
(1 1.70431e-15 0)
(1 3.45633e-15 0)
(1 3.85868e-15 0)
(1 5.60156e-15 0)
(1 5.30412e-15 0)
(1 4.37074e-15 0)
(1 2.1064e-15 0)
(1 1.21164e-15 0)
(1 3.90374e-15 0)
(1 3.81875e-15 0)
(1 3.85037e-16 0)
(1 7.29113e-16 0)
(1 2.30151e-15 0)
(1 -5.92357e-17 0)
(1 2.86505e-15 0)
(1 1.52556e-16 0)
(1 4.08689e-15 0)
(1 3.20322e-15 0)
(1 4.39358e-15 0)
(1 4.19644e-15 0)
(1 2.83138e-15 0)
(1 8.94726e-15 0)
(1 4.43044e-15 0)
(1 4.73672e-15 0)
(1 3.90573e-15 0)
(1 1.71961e-15 0)
(1 5.70015e-16 0)
(1 2.51847e-15 0)
(1 2.88828e-15 0)
(1 5.37837e-15 0)
(1 5.00103e-16 0)
(1 1.68724e-15 0)
(1 -3.84618e-15 0)
(1 3.519e-16 0)
(1 2.70382e-15 0)
(1 3.67997e-15 0)
(1 6.6374e-16 0)
(1 1.35321e-15 0)
(1 2.67173e-15 0)
(1 5.90904e-16 0)
(1 -1.60866e-18 0)
(1 4.27149e-15 0)
(1 3.06929e-15 0)
(1 3.95568e-15 0)
(1 3.39001e-15 0)
(1 1.75907e-15 0)
(1 -1.02216e-15 0)
(1 1.83964e-15 0)
(1 5.2744e-16 0)
(1 -2.53638e-16 0)
(1 1.05739e-15 0)
(1 4.60602e-15 0)
(1 4.89713e-15 0)
(1 5.43093e-15 0)
(1 8.21026e-15 0)
(1 3.64323e-15 0)
(1 4.61785e-15 0)
(1 4.30552e-15 0)
(1 4.99764e-15 0)
(1 6.24238e-15 0)
(1 3.16306e-15 0)
(1 3.43701e-15 0)
(1 6.91922e-15 0)
(1 8.08522e-15 0)
(1 9.72573e-15 0)
(1 6.9816e-15 0)
(1 4.68517e-15 0)
(1 1.59916e-15 0)
(1 5.35319e-15 0)
(1 5.814e-15 0)
(1 6.79377e-15 0)
(1 6.64519e-15 0)
(1 3.15369e-15 0)
(1 3.51462e-15 0)
(1 4.27507e-15 0)
(1 1.36189e-15 0)
(1 3.24666e-15 0)
(1 3.30176e-15 0)
(1 5.27573e-15 0)
(1 5.17704e-15 0)
(1 5.44334e-15 0)
(1 3.05502e-15 0)
(1 1.82956e-15 0)
(1 1.98576e-15 0)
(1 2.59826e-15 0)
(1 2.36009e-15 0)
(1 2.99226e-15 0)
(1 1.66006e-15 0)
(1 3.21068e-15 0)
(1 3.02839e-15 0)
(1 4.15999e-15 0)
(1 3.73292e-15 0)
(1 2.07561e-15 0)
(1 2.68267e-15 0)
(1 7.25557e-16 0)
(1 5.82646e-16 0)
(1 2.84202e-15 0)
(1 3.45206e-15 0)
(1 1.10286e-15 0)
(1 2.18654e-15 0)
(1 4.81797e-15 0)
(1 2.38395e-15 0)
(1 4.07922e-15 0)
(1 1.50351e-15 0)
(1 6.8455e-15 0)
(1 2.96098e-15 0)
(1 2.63942e-15 0)
(1 3.78497e-15 0)
(1 3.69417e-15 0)
(1 3.91542e-15 0)
(1 1.4178e-17 0)
(1 5.8874e-16 0)
(1 1.8749e-15 0)
(1 2.6891e-15 0)
(1 5.05743e-16 0)
(1 -1.10531e-15 0)
(1 4.48165e-15 0)
(1 3.24624e-15 0)
(1 5.28992e-15 0)
(1 7.10776e-15 0)
(1 2.73228e-15 0)
(1 6.80421e-15 0)
(1 2.53533e-15 0)
(1 2.6778e-15 0)
(1 1.38157e-15 0)
(1 -1.29031e-15 0)
(1 2.48833e-15 0)
(1 3.82168e-15 0)
(1 4.60685e-15 0)
(1 4.45696e-15 0)
(1 -3.86735e-16 0)
(1 4.59257e-16 0)
(1 -3.26996e-15 0)
(1 1.46559e-15 0)
(1 -1.61902e-15 0)
(1 8.18982e-15 0)
(1 5.44705e-15 0)
(1 5.46496e-15 0)
(1 2.66948e-15 0)
(1 -2.38261e-15 0)
(1 -1.709e-15 0)
(1 3.00423e-15 0)
(1 1.21286e-15 0)
(1 2.63633e-15 0)
(1 3.7973e-15 0)
(1 3.52806e-16 0)
(1 1.18367e-15 0)
(1 -1.50957e-15 0)
(1 -4.09325e-16 0)
(1 9.20785e-16 0)
(1 5.90482e-15 0)
(1 4.49176e-15 0)
(1 3.51277e-15 0)
(1 3.37009e-15 0)
(1 5.43754e-15 0)
(1 5.51566e-15 0)
(1 4.38482e-15 0)
(1 4.87833e-15 0)
(1 8.9402e-15 0)
(1 6.30597e-15 0)
(1 5.10033e-15 0)
(1 5.24147e-15 0)
(1 7.85791e-15 0)
(1 8.76351e-15 0)
(1 8.44571e-15 0)
(1 6.85464e-15 0)
(1 5.95201e-15 0)
(1 4.02151e-15 0)
(1 5.775e-15 0)
(1 4.60466e-15 0)
(1 5.389e-15 0)
(1 5.55235e-15 0)
(1 4.45798e-15 0)
(1 2.97654e-15 0)
(1 6.26378e-15 0)
(1 3.66207e-15 0)
(1 2.99878e-15 0)
(1 3.72992e-15 0)
(1 -1.9705e-15 0)
(1 1.33025e-15 0)
(1 3.51119e-15 0)
(1 5.6452e-15 0)
(1 3.69179e-15 0)
(1 3.05324e-15 0)
(1 1.74829e-15 0)
(1 -8.99654e-16 0)
(1 5.44733e-15 0)
(1 1.43859e-15 0)
(1 2.25067e-16 0)
(1 3.24815e-15 0)
(1 5.51621e-15 0)
(1 4.81911e-15 0)
(1 7.79169e-15 0)
(1 2.738e-15 0)
(1 1.18628e-15 0)
(1 2.50464e-15 0)
(1 2.66596e-15 0)
(1 -2.58116e-16 0)
(1 6.29037e-16 0)
(1 -6.37117e-16 0)
(1 7.15263e-15 0)
(1 2.05427e-15 0)
(1 3.47074e-15 0)
(1 2.62176e-15 0)
(1 4.95168e-15 0)
(1 4.65735e-15 0)
(1 3.64812e-15 0)
(1 4.83042e-15 0)
(1 1.59236e-15 0)
(1 2.26712e-15 0)
(1 -3.56316e-16 0)
(1 1.52407e-15 0)
(1 8.2812e-16 0)
(1 3.73372e-15 0)
(1 -1.27009e-15 0)
(1 3.81828e-15 0)
(1 7.39789e-16 0)
(1 3.80458e-15 0)
(1 4.43711e-15 0)
(1 5.56473e-15 0)
(1 5.02429e-15 0)
(1 6.30381e-16 0)
(1 1.48387e-15 0)
(1 3.29259e-15 0)
(1 4.69464e-15 0)
(1 2.12731e-15 0)
(1 3.07432e-15 0)
(1 -2.49033e-16 0)
(1 5.54287e-15 0)
(1 1.92547e-15 0)
(1 1.12872e-16 0)
(1 2.67128e-15 0)
(1 2.26145e-15 0)
(1 3.13111e-16 0)
(1 1.56756e-15 0)
(1 1.11199e-15 0)
(1 4.20841e-15 0)
(1 3.2758e-15 0)
(1 3.14358e-15 0)
(1 -7.19029e-17 0)
(1 1.8128e-15 0)
(1 2.43202e-15 0)
(1 -9.72567e-16 0)
(1 -9.49497e-16 0)
(1 -6.33884e-16 0)
(1 1.20912e-15 0)
(1 2.72683e-15 0)
(1 -1.28502e-15 0)
(1 2.01281e-15 0)
(1 2.65254e-15 0)
(1 5.80348e-15 0)
(1 3.24683e-15 0)
(1 6.36853e-16 0)
(1 5.27543e-15 0)
(1 6.67255e-15 0)
(1 4.57664e-15 0)
(1 6.18218e-15 0)
(1 2.16893e-15 0)
(1 7.01774e-15 0)
(1 6.53427e-15 0)
(1 5.96082e-15 0)
(1 6.77336e-15 0)
(1 6.90157e-15 0)
(1 7.35092e-15 0)
(1 6.6388e-15 0)
(1 1.34691e-15 0)
(1 5.02127e-15 0)
(1 5.46787e-15 0)
(1 5.87772e-15 0)
(1 4.10096e-15 0)
(1 7.59963e-15 0)
(1 6.34757e-15 0)
(1 8.20908e-15 0)
(1 4.66472e-15 0)
(1 2.6596e-15 0)
(1 3.91346e-15 0)
(1 1.47101e-15 0)
(1 2.48198e-15 0)
(1 1.54025e-15 0)
(1 8.00544e-16 0)
(1 5.06079e-15 0)
(1 4.14652e-15 0)
(1 7.26293e-17 0)
(1 2.11207e-15 0)
(1 3.13224e-15 0)
(1 -2.43245e-17 0)
(1 2.47272e-15 0)
(1 1.66877e-15 0)
(1 1.33898e-15 0)
(1 5.21815e-15 0)
(1 6.0508e-15 0)
(1 4.10419e-15 0)
(1 5.65001e-15 0)
(1 8.85881e-16 0)
(1 2.76795e-15 0)
(1 4.57748e-15 0)
(1 6.69663e-16 0)
(1 1.42368e-16 0)
(1 2.44243e-15 0)
(1 5.26939e-15 0)
(1 5.69798e-15 0)
(1 2.48424e-15 0)
(1 1.22257e-15 0)
(1 3.35624e-15 0)
(1 2.37228e-15 0)
(1 6.22938e-15 0)
(1 4.81521e-15 0)
(1 4.73427e-15 0)
(1 1.47798e-15 0)
(1 2.90328e-16 0)
(1 4.03637e-16 0)
(1 1.23062e-15 0)
(1 3.94451e-16 0)
(1 5.32738e-16 0)
(1 2.90081e-15 0)
(1 2.16835e-15 0)
(1 2.3522e-15 0)
(1 3.22104e-15 0)
(1 1.94115e-15 0)
(1 5.2217e-15 0)
(1 6.83985e-15 0)
(1 1.4261e-15 0)
(1 1.47186e-15 0)
(1 1.2883e-15 0)
(1 4.37606e-15 0)
(1 1.51321e-15 0)
(1 6.45147e-16 0)
(1 5.69798e-16 0)
(1 4.7449e-15 0)
(1 3.65428e-15 0)
(1 6.07117e-15 0)
(1 5.89211e-15 0)
(1 7.16885e-16 0)
(1 -4.6069e-15 0)
(1 5.95994e-15 0)
(1 -1.45174e-16 0)
(1 -1.32373e-15 0)
(1 -3.7672e-16 0)
(1 2.23158e-15 0)
(1 2.93085e-15 0)
(1 1.6054e-16 0)
(1 1.49724e-15 0)
(1 -1.41299e-15 0)
(1 -1.64079e-15 0)
(1 3.63803e-15 0)
(1 1.3928e-15 0)
(1 3.18068e-15 0)
(1 -1.00338e-15 0)
(1 1.77289e-15 0)
(1 3.66212e-15 0)
(1 4.10363e-15 0)
(1 4.13983e-15 0)
(1 3.16834e-16 0)
(1 4.99333e-15 0)
(1 2.81736e-15 0)
(1 6.97929e-15 0)
(1 6.82498e-15 0)
(1 5.08458e-15 0)
(1 2.82467e-15 0)
(1 5.51526e-15 0)
(1 6.8525e-15 0)
(1 5.53757e-15 0)
(1 9.17717e-15 0)
(1 8.23499e-15 0)
(1 6.17886e-15 0)
(1 6.67065e-15 0)
(1 4.64416e-15 0)
(1 7.01544e-15 0)
(1 1.03694e-15 0)
(1 3.63777e-15 0)
(1 2.26077e-15 0)
(1 4.3263e-15 0)
(1 4.93805e-15 0)
(1 5.16342e-15 0)
(1 5.40745e-15 0)
(1 4.24265e-15 0)
(1 5.1973e-15 0)
(1 3.3902e-15 0)
(1 2.67599e-15 0)
(1 1.85725e-15 0)
(1 -2.00045e-15 0)
(1 1.28756e-15 0)
(1 2.01314e-15 0)
(1 3.08725e-15 0)
(1 3.36116e-15 0)
(1 3.28464e-15 0)
(1 3.06335e-16 0)
(1 2.61772e-15 0)
(1 5.70671e-15 0)
(1 2.56528e-15 0)
(1 1.89133e-15 0)
(1 1.13439e-15 0)
(1 1.87235e-15 0)
(1 2.51261e-15 0)
(1 4.15106e-15 0)
(1 3.53101e-15 0)
(1 2.12013e-15 0)
(1 4.25311e-15 0)
(1 3.42216e-15 0)
(1 6.25616e-15 0)
(1 1.85231e-15 0)
(1 2.96618e-15 0)
(1 3.51837e-15 0)
(1 1.46488e-15 0)
(1 3.84114e-15 0)
(1 4.59055e-15 0)
(1 1.46121e-15 0)
(1 2.11821e-15 0)
(1 9.18478e-16 0)
(1 -3.81524e-16 0)
(1 6.28414e-16 0)
(1 4.92363e-16 0)
(1 -3.15452e-17 0)
(1 1.49308e-15 0)
(1 3.68482e-15 0)
(1 3.92947e-15 0)
(1 3.51359e-15 0)
(1 1.27187e-15 0)
(1 6.386e-17 0)
(1 2.48021e-15 0)
(1 4.73289e-15 0)
(1 4.90976e-15 0)
(1 3.1512e-15 0)
(1 1.77653e-15 0)
(1 2.5093e-16 0)
(1 2.83449e-15 0)
(1 5.56964e-16 0)
(1 3.45729e-15 0)
(1 -6.16871e-16 0)
(1 1.5094e-15 0)
(1 5.0795e-15 0)
(1 5.11357e-15 0)
(1 2.34963e-15 0)
(1 -7.79456e-16 0)
(1 -2.56306e-16 0)
(1 2.65075e-15 0)
(1 2.46525e-15 0)
(1 -6.56845e-17 0)
(1 3.75576e-15 0)
(1 2.2553e-15 0)
(1 5.42095e-16 0)
(1 -3.67103e-15 0)
(1 2.01618e-16 0)
(1 1.32958e-15 0)
(1 -9.64376e-16 0)
(1 -1.56509e-15 0)
(1 2.55805e-15 0)
(1 -9.15703e-16 0)
(1 3.59787e-15 0)
(1 1.49062e-15 0)
(1 1.2135e-15 0)
(1 1.86023e-15 0)
(1 8.05575e-15 0)
(1 6.78776e-15 0)
(1 3.66133e-15 0)
(1 6.8901e-15 0)
(1 2.00851e-15 0)
(1 8.38391e-15 0)
(1 1.95825e-15 0)
(1 2.43803e-15 0)
(1 1.62267e-15 0)
(1 3.13234e-15 0)
(1 8.48734e-15 0)
(1 9.58713e-15 0)
(1 4.21448e-15 0)
(1 9.79867e-15 0)
(1 5.78355e-15 0)
(1 5.86631e-15 0)
(1 3.27755e-15 0)
(1 3.88585e-15 0)
(1 3.17552e-15 0)
(1 2.57196e-15 0)
(1 1.85506e-15 0)
(1 6.44459e-15 0)
(1 4.34613e-15 0)
(1 3.4133e-15 0)
(1 4.76828e-15 0)
(1 4.22505e-15 0)
(1 2.045e-15 0)
(1 2.15105e-15 0)
(1 -1.40472e-15 0)
(1 4.77932e-15 0)
(1 4.73156e-15 0)
(1 3.4527e-15 0)
(1 1.5701e-15 0)
(1 4.69455e-15 0)
(1 1.87735e-15 0)
(1 4.52166e-15 0)
(1 3.11804e-15 0)
(1 -9.86925e-16 0)
(1 2.27928e-15 0)
(1 3.14749e-15 0)
(1 3.3314e-16 0)
(1 3.90246e-15 0)
(1 3.64165e-15 0)
(1 2.3376e-15 0)
(1 1.59302e-15 0)
(1 4.61307e-15 0)
(1 4.28589e-15 0)
(1 4.23267e-15 0)
(1 3.24489e-15 0)
(1 2.5789e-15 0)
(1 3.85989e-15 0)
(1 4.96074e-15 0)
(1 2.83121e-15 0)
(1 3.32045e-15 0)
(1 1.12404e-15 0)
(1 4.06645e-15 0)
(1 3.69604e-16 0)
(1 -1.94558e-15 0)
(1 8.50344e-17 0)
(1 2.21167e-15 0)
(1 4.33942e-16 0)
(1 3.60469e-15 0)
(1 1.13898e-15 0)
(1 4.43522e-15 0)
(1 -1.74492e-16 0)
(1 1.74938e-15 0)
(1 3.3764e-15 0)
(1 -8.58617e-17 0)
(1 5.3336e-15 0)
(1 5.22136e-15 0)
(1 4.98753e-15 0)
(1 -1.84005e-15 0)
(1 -2.16818e-15 0)
(1 3.36322e-15 0)
(1 -3.08702e-15 0)
(1 6.49349e-15 0)
(1 -3.19251e-16 0)
(1 3.84415e-15 0)
(1 6.49758e-15 0)
(1 4.1095e-16 0)
(1 3.2845e-15 0)
(1 1.46952e-15 0)
(1 -3.21797e-15 0)
(1 -2.38297e-15 0)
(1 -6.82401e-16 0)
(1 1.36192e-15 0)
(1 2.3337e-15 0)
(1 1.82211e-16 0)
(1 -2.86495e-18 0)
(1 2.67709e-16 0)
(1 1.154e-15 0)
(1 8.66985e-16 0)
(1 -4.61527e-16 0)
(1 1.18658e-15 0)
(1 -2.5562e-15 0)
(1 6.64062e-16 0)
(1 3.18538e-15 0)
(1 1.03558e-16 0)
(1 -5.23937e-17 0)
(1 1.68924e-15 0)
(1 8.72442e-15 0)
(1 4.58212e-15 0)
(1 6.39959e-15 0)
(1 4.19633e-15 0)
(1 -1.21248e-15 0)
(1 5.13628e-15 0)
(1 2.21862e-15 0)
(1 5.8611e-16 0)
(1 2.06573e-15 0)
(1 5.89475e-15 0)
(1 7.89261e-15 0)
(1 7.91345e-15 0)
(1 7.18956e-15 0)
(1 8.4518e-15 0)
(1 4.84468e-15 0)
(1 6.43556e-15 0)
(1 5.52386e-15 0)
(1 3.58122e-15 0)
(1 5.2657e-15 0)
(1 1.78917e-15 0)
(1 5.08371e-15 0)
(1 3.47231e-15 0)
(1 5.45208e-15 0)
(1 4.8936e-15 0)
(1 4.68329e-15 0)
(1 3.45258e-15 0)
(1 3.93585e-15 0)
(1 2.47402e-15 0)
(1 4.18793e-15 0)
(1 2.25463e-15 0)
(1 1.41349e-15 0)
(1 2.39092e-15 0)
(1 1.06378e-15 0)
(1 2.81612e-15 0)
(1 1.93429e-15 0)
(1 4.97323e-15 0)
(1 1.1696e-15 0)
(1 -1.88417e-15 0)
(1 2.73016e-15 0)
(1 3.24105e-15 0)
(1 5.14078e-16 0)
(1 3.55872e-15 0)
(1 2.37643e-15 0)
(1 2.14595e-15 0)
(1 1.54317e-15 0)
(1 4.96974e-15 0)
(1 3.57754e-15 0)
(1 1.89278e-15 0)
(1 2.85314e-15 0)
(1 1.96565e-15 0)
(1 3.45428e-15 0)
(1 4.42773e-15 0)
(1 4.07144e-15 0)
(1 1.5785e-15 0)
(1 -8.13817e-17 0)
(1 2.63804e-15 0)
(1 2.16538e-15 0)
(1 1.33925e-15 0)
(1 -5.22272e-17 0)
(1 2.19957e-15 0)
(1 1.755e-15 0)
(1 1.23069e-15 0)
(1 3.19238e-15 0)
(1 3.24822e-15 0)
(1 2.5884e-15 0)
(1 2.30441e-15 0)
(1 3.66522e-15 0)
(1 1.22746e-15 0)
(1 2.30797e-16 0)
(1 1.51605e-15 0)
(1 3.34843e-15 0)
(1 1.20811e-15 0)
(1 2.84171e-16 0)
(1 5.33538e-16 0)
(1 -1.06104e-15 0)
(1 2.64683e-15 0)
(1 5.17459e-15 0)
(1 1.62106e-15 0)
(1 3.79665e-16 0)
(1 -4.65759e-16 0)
(1 2.96733e-15 0)
(1 2.28963e-15 0)
(1 -1.64249e-15 0)
(1 -1.2366e-15 0)
(1 6.4284e-16 0)
(1 3.99183e-15 0)
(1 -2.75334e-15 0)
(1 -2.95572e-16 0)
(1 -1.78184e-15 0)
(1 1.18429e-15 0)
(1 1.19254e-16 0)
(1 -1.81176e-15 0)
(1 4.99417e-16 0)
(1 -3.01513e-16 0)
(1 -1.66291e-15 0)
(1 4.30722e-16 0)
(1 -6.15468e-16 0)
(1 1.11407e-15 0)
(1 2.46707e-15 0)
(1 4.76729e-15 0)
(1 2.4592e-15 0)
(1 4.88736e-15 0)
(1 3.54304e-15 0)
(1 2.81704e-15 0)
(1 3.53573e-15 0)
(1 1.48153e-15 0)
(1 1.28123e-16 0)
(1 -3.30386e-15 0)
(1 4.85767e-15 0)
(1 9.13483e-15 0)
(1 8.57315e-15 0)
(1 5.9399e-15 0)
(1 9.03e-15 0)
(1 7.39739e-15 0)
(1 4.09039e-15 0)
(1 4.58566e-15 0)
(1 2.77642e-15 0)
(1 2.386e-15 0)
(1 2.26733e-15 0)
(1 3.11496e-15 0)
(1 3.33549e-15 0)
(1 -1.25489e-15 0)
(1 5.97512e-15 0)
(1 4.37145e-15 0)
(1 3.81004e-15 0)
(1 3.38398e-15 0)
(1 2.78879e-15 0)
(1 2.37551e-15 0)
(1 2.07471e-15 0)
(1 -1.53009e-15 0)
(1 1.0692e-15 0)
(1 4.14056e-15 0)
(1 1.54042e-15 0)
(1 1.95015e-15 0)
(1 1.81253e-15 0)
(1 2.51683e-15 0)
(1 1.24504e-15 0)
(1 2.95684e-15 0)
(1 -5.49412e-16 0)
(1 -2.59572e-16 0)
(1 3.31241e-15 0)
(1 2.26319e-15 0)
(1 2.0109e-15 0)
(1 1.50674e-15 0)
(1 3.16904e-15 0)
(1 5.35647e-15 0)
(1 4.77931e-15 0)
(1 2.56768e-15 0)
(1 2.12782e-15 0)
(1 2.88603e-15 0)
(1 3.34222e-15 0)
(1 3.1956e-15 0)
(1 2.37239e-15 0)
(1 1.21254e-17 0)
(1 1.4584e-15 0)
(1 -2.3538e-16 0)
(1 2.40796e-15 0)
(1 3.02986e-15 0)
(1 -4.25359e-16 0)
(1 1.33978e-15 0)
(1 8.44515e-16 0)
(1 1.4874e-15 0)
(1 3.87966e-15 0)
(1 3.67077e-15 0)
(1 4.99623e-15 0)
(1 4.1156e-15 0)
(1 -3.71551e-17 0)
(1 1.29879e-15 0)
(1 -1.01893e-15 0)
(1 -1.48812e-15 0)
(1 8.78331e-16 0)
(1 5.70375e-15 0)