/*--------------------------------*- C++ -*----------------------------------*\
| =========                 |                                                 |
| \\      /  F ield         | OpenFOAM: The Open Source CFD Toolbox           |
|  \\    /   O peration     | Version:  v2012                                 |
|   \\  /    A nd           | Website:  www.openfoam.com                      |
|    \\/     M anipulation  |                                                 |
\*---------------------------------------------------------------------------*/
FoamFile
{
    version     2.0;
    format      ascii;
    class       volScalarField;
    location    "0";
    object      p;
}
// * * * * * * * * * * * * * * * * * * * * * * * * * * * * * * * * * * * * * //

dimensions      [0 2 -2 0 0 0 0];


internalField   nonuniform List<scalar> 
4000
(
0.128245
0.108916
0.0750074
0.0137887
-0.0480409
0.140635
0.0286799
0.000641944
-0.0851093
-0.178118
0.0285348
0.019184
0.0402909
-0.0616776
-0.0307957
-0.0556393
-0.303472
-0.0714945
0.0704028
0.230395
-0.0341439
-0.0365898
-0.0306691
-0.0882473
-0.0133545
-0.117339
-0.091837
-0.146101
-0.145035
-0.188093
-0.0522266
0.145071
0.233532
0.186212
0.139617
0.360571
0.142791
0.0161744
-0.0209607
0.0367248
-0.0316985
-0.0963872
0.0075144
0.0177618
0.146062
0.156656
0.0323302
-0.154688
-0.196175
-0.162418
-0.256901
-0.132597
-0.0238872
-0.0575085
0.020832
0.129593
0.0619421
0.0725258
0.189869
0.198218
0.252843
0.299482
0.35788
0.296193
0.122614
-0.0940675
-0.112628
-0.105442
-0.243985
-0.175596
-0.175139
-0.222355
-0.0531993
0.0202942
0.101554
0.0688285
0.152786
0.13671
0.181726
0.293122
0.248717
0.149349
0.277272
0.224371
0.0398587
0.166351
0.223629
-0.0468905
-0.195228
-0.177161
-0.135815
-0.135427
-0.0574337
-0.0745892
-0.00926003
0.0894678
-0.0465337
-0.105793
-0.0588219
0.041534
0.104617
0.0991766
0.0539136
0.117884
0.0415082
-0.0133694
-0.0218423
0.023635
-0.0322857
-0.127772
-0.0787103
-0.0138899
0.0732905
-0.0258174
-0.123478
-0.0652516
-0.0978498
-0.116472
0.0251422
0.110937
-0.00754964
-0.00838174
-0.0366014
-0.0603606
0.033532
-0.139359
-0.160161
-0.222184
-0.141887
-0.0899103
0.097892
0.0728305
0.0779245
0.235985
0.247611
0.245907
0.175637
0.0839391
-0.00336012
-0.0669799
-0.0438161
-0.0326359
0.0121478
0.0163194
0.168345
0.102598
-0.0360366
-0.127686
-0.236714
-0.159517
-0.171376
-0.153273
-0.0607842
-0.0152464
-0.0469177
0.0361032
0.135969
0.130022
0.245901
0.267811
0.183348
0.338385
0.369361
0.261079
0.124636
-0.0531531
-0.0917199
-0.157132
-0.143907
-0.255333
-0.224399
-0.152332
-0.0540441
-0.0259105
0.0783405
0.145255
0.154234
0.15861
0.180308
0.257881
0.210913
0.190344
0.246884
0.147311
0.104716
0.191692
0.144882
0.044983
-0.177989
-0.191009
-0.141723
-0.13916
-0.0671847
-0.040939
-0.0103017
0.0245398
-0.070049
-0.0265296
-0.0474437
-0.0109462
0.131897
0.117602
0.0527818
0.154839
0.0312553
-0.0463086
-0.0442635
-0.0528708
-0.00201442
-0.130844
-0.0542281
0.03325
0.082794
-0.159672
-0.308979
-0.049923
-0.0774324
-0.00321365
0.0859598
0.139039
0.132254
-0.0288821
-0.124928
-0.0949607
-0.0056357
-0.129117
-0.0936111
-0.16807
-0.131286
-0.0812642
0.0454129
0.075664
0.0925949
0.170976
0.21062
0.244819
0.193957
0.0499365
-0.0316373
-0.0235809
0.0429268
-0.0288027
0.0549962
0.0709058
0.0968266
0.108093
-0.0050256
-0.176286
-0.241707
-0.171263
-0.124573
-0.144273
-0.127282
0.0156924
0.0770254
0.0546931
0.0782146
0.0935232
0.17889
0.287646
0.179166
0.334879
0.325514
0.31959
0.146793
-0.0607322
-0.0661065
-0.157144
-0.158203
-0.310102
-0.276417
-0.19962
-0.0462149
0.0146908
0.101238
0.102448
0.181488
0.249863
0.144065
0.241845
0.221045
0.308889
0.247607
0.153869
0.111355
0.08836
0.121644
0.0237232
-0.114799
-0.189694
-0.146192
-0.072118
-0.0471959
-0.0921843
0.0234808
0.0545592
-0.0342136
-0.0567198
-0.0730939
-0.00262161
0.108451
0.0855877
0.017556
0.0790006
0.0592653
-0.052609
-0.0327733
-0.00558041
0.0511219
-0.15385
-0.109208
-0.0200212
-0.0217896
-0.104133
-0.159575
-0.177497
-0.0738697
0.0394566
0.0259534
0.0974265
0.167285
0.0967868
-0.0671102
-0.0970951
-0.0573873
-0.186493
-0.187624
-0.230655
-0.106481
-0.0743968
0.0489911
0.107108
0.081497
0.176751
0.189526
0.235399
0.12895
-0.0402646
-0.122587
-0.0153395
0.0607033
0.0608946
0.0680174
0.0940247
0.0460432
0.0507913
-0.106492
-0.194022
-0.166017
-0.112801
-0.184031
-0.0971382
-0.122501
0.000868041
0.111688
0.0755906
0.079154
0.0900281
0.212565
0.253083
0.248561
0.352563
0.311046
0.301652
0.129981
-0.0422251
-0.118697
-0.227898
-0.195338
-0.28408
-0.173825
-0.103773
-0.0615652
-0.0613231
0.0651943
0.200705
0.197939
0.236251
0.205348
0.178462
0.18011
0.252175
0.239155
0.189465
0.0547485
0.0936661
0.109079
0.0208649
-0.0984771
-0.16181
-0.189064
-0.116846
-0.0135654
-0.0986892
-0.0447732
0.0662655
0.0287475
-0.0570731
-0.0877547
-0.00939803
0.0451216
0.0535124
0.0422524
0.0327262
0.0769376
-0.0678979
-0.0642491
-0.0155225
-0.00119079
-0.0761108
-0.0889599
-0.110892
-0.0421599
-0.111946
-0.124219
-0.215457
-0.0902845
0.173698
0.104871
0.103771
0.0466172
0.0553723
-0.0917312
-0.0852225
-0.070752
-0.16811
-0.187724
-0.174504
-0.156073
-0.0709823
0.024247
0.126162
0.147594
0.129273
0.128323
0.183108
0.122803
0.0675166
-0.0813038
-0.0450718
0.0768842
0.00574905
-0.0231536
0.0473136
0.0340949
-0.0109486
-0.104139
-0.155524
-0.170967
-0.201094
-0.117433
-0.0709983
-0.103774
-0.0615678
0.0775131
0.119899
0.121822
0.119041
0.092461
0.201332
0.296402
0.32765
0.237151
0.240106
0.0996845
-0.00229473
-0.102117
-0.20637
-0.199912
-0.186242
-0.236846
-0.111489
-0.146427
-0.093981
0.0409606
0.154728
0.199944
0.274378
0.213063
0.216299
0.109869
0.219455
0.226332
0.179156
0.0296751
-0.00792511
0.041202
-0.00390292
-0.0673716
-0.111922
-0.103471
-0.122177
-0.085799
-0.120421
-0.110001
0.00930868
0.0352652
-0.00480018
-0.0216448
-0.0410275
-0.00764385
-0.0124011
0.00234506
-0.0265329
0.00660023
-0.0314246
0.0154329
0.0213276
-0.0504322
-0.11121
-0.0700908
-0.186915
-0.031897
-0.110593
-0.119938
-0.0807313
-0.0678176
-0.00527307
0.124354
0.232576
0.124278
0.0252871
0.0162768
-0.131901
-0.125026
-0.153892
-0.227113
-0.182801
-0.158202
-0.00836443
0.022761
0.0502705
0.0292706
0.080791
0.170584
0.150971
0.138918
0.0486418
-0.0124363
-0.0178918
-0.0073559
0.0690218
-0.0106855
0.0548052
-0.0277481
-0.0913955
-0.143684
-0.204671
-0.135664
-0.0772823
-0.101227
-0.000134481
-0.114944
0.0256466
0.099637
0.058356
0.103797
0.0592496
0.0346364
0.12847
0.366691
0.262933
0.259664
0.271166
0.0714043
-0.104219
-0.127017
-0.114123
-0.23451
-0.190258
-0.157932
-0.145753
-0.156813
-0.0769858
0.102734
0.168384
0.165635
0.276844
0.153526
0.130578
0.148727
0.167915
0.141758
0.127621
0.0219689
-0.0142186
0.0377012
-0.0112863
-0.0287866
-0.0865472
-0.0847817
-0.0610396
-0.134677
-0.117202
-0.104847
-0.0603223
0.0287405
-0.0139765
-0.0288996
0.00698057
-0.0277605
-0.016042
-0.0944586
-0.0468039
-0.0242639
0.0960051
-0.00238458
0.00459854
-0.0369507
-0.122769
-0.0199656
-0.157434
-0.120903
-0.019253
-0.109074
-0.158278
0.038942
0.120053
0.19432
0.0724508
-0.0332088
0.0379719
0.0606196
0.0498131
-0.0209157
-0.183429
-0.311364
-0.20213
-0.106661
-0.0685638
-0.0526338
0.0630668
0.122546
0.0569267
0.171682
0.248224
0.0871856
0.020947
-0.00948966
0.0498797
-0.0180921
-0.0107102
-0.0572377
0.0204722
-0.03076
-0.0933289
-0.118576
-0.233806
-0.12808
-0.00511871
-0.0711497
-0.0327355
-0.0199969
0.0319465
0.0610429
-0.0645503
0.0112767
0.0630171
0.11722
0.205364
0.280816
0.237394
0.225275
0.148338
0.0438352
-0.0568555
-0.132312
-0.134501
-0.137512
-0.114278
-0.220026
-0.252831
-0.137278
-0.0168619
0.00344054
0.0686503
0.14367
0.269663
0.184451
0.157274
0.108072
0.132508
0.0728311
0.0880275
0.0559509
-0.0967697
-0.0689721
-0.0118877
-0.00126528
-0.0649165
-0.103704
-0.0415432
-0.0599881
-0.145496
-0.148066
-0.138393
0.00739593
-0.00302682
0.0105861
0.0291927
-0.0527423
-0.0431457
-0.1061
-0.0346666
-0.0736034
0.0284757
0.0681754
0.0535069
-0.0355435
-0.112695
-0.0993101
-0.153247
-0.0207004
-0.02424
-0.0478758
-0.130294
0.0189373
0.125117
0.150091
0.0886372
0.0581838
0.0926794
0.113209
-0.0670765
-0.154849
-0.133751
-0.267124
-0.187635
-0.152996
-0.102227
-0.0422576
0.0011654
0.0290029
0.119945
0.10609
0.242727
0.135915
0.0223834
0.000545975
0.00595195
0.0751354
-0.00326267
-0.0748338
-0.136432
-0.132543
-0.129992
-0.0617496
-0.123653
-0.139826
-0.0232659
0.0055633
-0.0333397
-0.0529217
0.0146995
0.0368425
-0.0739591
0.103129
0.0121228
0.145029
0.166293
0.20735
0.221539
0.243361
0.116886
0.0844039
-0.0433326
-0.155746
-0.0815712
-0.185692
-0.159568
-0.222403
-0.25755
-0.174633
-0.0188441
0.0210197
0.0758055
0.0913431
0.188187
0.231421
0.205941
0.143464
0.0630907
0.0593962
0.0110817
-0.0450853
-0.0953294
-0.07744
-0.0371445
-0.033015
-0.10595
-0.0867092
-0.0121773
0.0321364
-0.0867166
-0.1828
-0.163663
-0.1045
-0.0211884
-0.0223999
0.0212677
-0.0316095
0.00516134
-0.103401
-0.167321
0.00212717
0.086052
0.0857453
0.0268392
-0.00337781
-0.0685099
-0.10016
-0.0608455
-0.032885
-0.0416348
-0.0406582
-0.0923125
-0.0377901
0.143781
0.099724
0.064879
0.143807
0.0811481
0.141374
0.112313
-0.0575615
-0.162529
-0.163607
-0.255692
-0.260918
-0.116491
-0.0850388
-0.0537704
0.0998373
0.146131
0.132281
0.168952
0.266327
0.116436
0.051375
-0.0789178
-0.0851399
0.0478608
0.0742904
-0.0570877
-0.0704976
-0.132747
-0.0917019
-0.174603
-0.175135
-0.0837126
0.0277883
0.0173571
-0.0334064
-0.042019
-0.0716443
-0.0459413
0.0618093
0.0502699
0.166637
0.127804
0.130646
0.186782
0.213825
0.14009
0.125337
-0.0748589
-0.149473
-0.125183
-0.153383
-0.203447
-0.222525
-0.213872
-0.208608
-0.0622574
0.0142436
0.00891221
0.055888
0.219366
0.252568
0.176787
0.0718668
0.0475283
0.0147414
-0.05273
-0.0648638
-0.0488814
-0.10139
-0.0730908
-0.0611049
-0.0764697
-0.0456603
-0.0447994
0.00813474
-0.0906754
-0.13057
-0.115119
-0.0867361
-0.099302
-0.0267669
-0.0473825
-0.0435387
-0.0565959
-0.116817
-0.0856813
-0.0459746
0.0842717
0.02065
0.0609262
0.203521
-0.0311267
-0.161152
-0.0404683
0.0258795
-0.053702
0.00132009
0.0302705
-0.0214341
0.0745636
0.0886702
0.000220415
0.250408
0.163095
0.0181714
-0.0567199
-0.0897083
0.000560373
-0.0131714
-0.171717
-0.209488
-0.112142
-0.174569
-0.0154946
0.0757367
0.0781576
0.109909
0.123088
0.158844
0.0521589
0.0457775
0.101624
0.0857803
0.0112479
-0.0206463
-0.0836036
-0.0877613
-0.226395
-0.155197
-0.0863494
-0.153943
-0.0641839
0.0393984
0.0278894
-0.0350079
-0.0482673
-0.0698097
-0.0925356
-0.0145187
0.100666
0.144454
0.064158
0.154364
0.158799
0.217099
0.116803
0.0934712
-0.0807414
-0.108266
-0.150276
-0.201665
-0.185458
-0.262302
-0.231717
-0.131254
-0.0405987
-0.0418266
-0.00942188
0.0449931
0.178329
0.300912
0.140023
0.0719084
0.0294345
-0.070844
-0.117907
-0.0696499
-0.108438
-0.145277
-0.103222
-0.119386
-0.106467
-0.0254925
-0.0675869
0.0114331
-0.0949577
-0.16466
-0.151893
-0.0949904
-0.0629012
-0.0024427
-0.0183056
-0.060841
-0.0713576
-0.0609436
-0.0538158
-0.0488299
0.0938289
0.0491885
0.0760185
0.136817
0.0559976
-0.137232
-0.0489789
-0.043208
-0.0244973
0.02805
0.107142
-0.000880697
0.022959
0.0745912
0.0746886
0.343529
0.285036
0.0674139
0.00226622
0.0284862
-0.101378
-0.152067
-0.166834
-0.164578
-0.0410656
-0.128841
-0.0800247
-0.00333501
0.125888
0.11462
0.0303552
0.140293
0.17641
0.189651
0.0355688
-0.00660359
-0.0408539
0.0326756
-0.0822435
-0.152002
-0.135308
-0.117805
-0.106716
-0.149384
-0.101672
0.0385678
-0.0596011
-0.0346673
-0.152263
-0.0931662
-0.0164612
0.042989
0.151567
0.180741
0.0434382
0.166717
0.0960479
0.140918
0.0460769
0.00629433
-0.0536433
-0.0880598
-0.132613
-0.211949
-0.210941
-0.123441
-0.232174
-0.200287
-0.0935659
-0.0464072
0.0217527
0.0763999
0.151842
0.206814
0.104513
0.0312288
-0.0462069
-0.0372485
0.0247923
-0.116062
-0.136967
-0.145374
-0.186633
-0.153066
-0.0872153
-0.0581166
0.00895977
0.0327843
-0.117404
-0.160302
-0.0687843
-0.0475163
-0.118647
-0.0727196
-0.0717606
-0.106595
-0.110893
-0.0548364
0.023549
-0.0377381
0.0462085
0.0878525
0.0609386
0.139218
0.0319597
-0.0786127
0.011427
-0.0463254
0.00798697
-0.0150172
0.097306
0.0511794
0.0525873
0.0442703
0.256717
0.353454
0.224046
0.0548149
0.010525
0.0225568
-0.139596
-0.123273
-0.0556112
-0.0732527
-0.0869375
-0.0304989
0.0570558
-0.117792
-0.0744419
0.0623303
0.115741
0.127695
0.235588
0.135238
0.0277647
0.0820739
0.00240967
-0.0309965
-0.0769665
-0.238384
-0.194738
-0.141852
-0.0407479
-0.0470411
-0.0701267
-0.0407218
0.0421674
-0.0394475
-0.113187
-0.0477011
0.00982598
-0.00870107
0.0771813
0.133158
0.0252518
0.0742113
0.129835
0.0999644
0.0787178
0.0751107
-0.0101795
-0.120337
-0.165588
-0.182474
-0.342342
-0.245744
-0.149219
-0.0546394
0.00411756
-0.0992746
-0.108315
-0.0143745
0.157532
0.091346
0.0602897
0.0561365
-0.0540352
-0.0397717
-0.0570081
0.0402281
-0.172674
-0.220393
-0.171925
-0.105626
-0.140604
-0.0744666
-0.0105411
0.0382564
-0.10894
-0.185117
-0.183037
-0.0249281
0.0567374
-0.0471821
-0.0028653
-0.0940385
-0.104968
-0.00752001
0.00669836
0.0070002
0.0487367
0.104661
0.090931
0.0988384
0.0542328
-0.0262283
-0.0145016
-0.18037
0.0563508
0.0809444
0.105945
0.136772
0.100844
0.0296602
0.123657
0.269433
0.237233
0.16407
0.0205014
0.0509779
0.0734157
-0.0874082
-0.177508
-0.15658
-0.0342083
0.013533
0.00108643
-0.00915395
-0.0316397
-0.0156234
0.0893652
0.13262
0.141108
0.131244
0.091879
0.0612605
0.0195018
-0.0897457
-0.0296401
-0.204545
-0.236889
-0.122106
-0.0219486
-0.0714982
-0.0179751
0.0650421
0.0238347
-0.139982
-0.111666
-0.082041
-0.00824258
0.0348457
0.019712
0.132224
0.0574365
0.0460459
0.0582586
0.044222
0.0128426
-0.00504002
0.012105
-0.0212487
-0.118227
-0.195462
-0.359536
-0.260515
-0.0869104
0.000520328
0.000516258
-0.114988
-0.100759
-0.0654731
0.0919701
0.0156992
0.0133433
0.0373385
-0.0272969
-0.00775044
-0.105087
-0.0576589
-0.121473
-0.157614
-0.21127
-0.142935
-0.167713
-0.0917472
0.0214933
0.0367512
-0.0987308
-0.122643
-0.10942
-0.00381641
0.00838867
0.0402049
-0.00036219
-0.0755046
-0.097063
0.0288361
0.0348027
-0.018516
0.0110841
0.128603
0.127272
0.0953116
0.0803344
-0.0553716
-0.0738295
-0.038254
0.0485303
0.0901277
0.0345765
0.0432764
0.081891
0.0471246
0.263857
0.431813
0.416398
0.163389
-0.0330256
0.00908443
-0.028351
0.0779856
-0.156967
-0.122614
-0.0346447
0.027588
0.068703
-0.0211908
-0.117702
-0.0192307
0.08994
-0.0226285
0.0540949
0.210922
0.152659
0.0935603
0.0332986
-0.150042
-0.148248
-0.187622
-0.162025
-0.076977
-0.0721197
-0.0368598
0.0198768
0.00900598
-0.110647
-0.137243
-0.0590331
-0.114298
0.0101386
0.0571761
0.0561684
0.0688982
-0.00684281
0.00908188
0.0102925
-0.0565466
-0.0179887
-0.0458287
-0.0478744
-0.0828913
-0.0725174
-0.151336
-0.208139
-0.259504
-0.215861
-0.122215
-0.0299406
-0.000884511
-0.0330274
0.00994761
0.0126167
-0.00170278
-0.0763888
0.00471861
0.0189031
-0.0115846
-0.130776
-0.0736716
-0.0834286
-0.109828
-0.130821
-0.136712
-0.170342
-0.107543
0.0266895
0.00309877
-0.138637
-0.0949541
-0.0468696
0.0339945
0.09718
0.000725989
0.018818
-0.117094
-0.0998241
0.0486486
0.0373084
0.000358446
0.0637177
0.0739453
0.0674837
0.098396
0.147202
-0.0340073
-0.134726
-0.0853371
-0.0252785
0.118288
0.142688
0.1612
0.097643
0.134337
0.31417
0.271799
0.286392
0.148823
0.100815
0.0231282
-0.0511296
-0.0471471
-0.0157574
-0.00295331
0.0389461
-0.0169544
0.00679335
0.0377295
-0.0833692
-0.0988744
0.0226153
0.178781
0.103011
0.156018
0.129837
-0.0189888
-0.0974633
-0.0657334
-0.0924254
-0.202018
-0.0931937
-0.0979817
-0.133837
-0.101616
-0.0152718
0.0482894
-0.0352661
-0.112987
-0.108991
-0.102993
0.0617082
0.0827283
0.0322579
0.0146691
0.0094244
-0.00127693
-0.0457096
-0.111721
-0.088556
-0.069552
-0.0262872
-0.0419774
-0.0906375
-0.187979
-0.145163
-0.23813
-0.188886
-0.0138933
-0.0271035
-0.0550139
-0.0518639
0.059078
0.0938052
-0.12704
-0.210651
-0.0138969
0.0326915
0.0437672
-0.14213
-0.0835189
-0.046298
-0.0749
-0.169526
-0.0780907
-0.0763784
-0.0899108
-0.0476977
-0.0118724
-0.200844
-0.13299
0.0429572
0.12803
0.164714
0.0454123
0.0330256
-0.0624688
-0.0501114
0.0101912
-0.0855053
-0.014456
0.199357
0.140539
0.0429203
0.135309
0.131959
0.00608956
-0.102984
-0.151903
-0.00753335
0.065883
0.136
0.272594
0.254679
0.102575
0.203322
0.221497
0.302198
0.253843
0.120355
-0.0125408
-0.0279859
-0.160479
-0.0589499
0.0470911
0.00542097
-0.0127533
0.0403339
-0.0311798
-0.0532928
-0.0912155
0.058905
0.028923
0.145349
0.108673
0.0897532
-0.00865814
-0.0129329
-0.0275917
-0.0776584
-0.230772
-0.233386
-0.0148129
-0.0744268
-0.156085
-0.0180053
0.148635
-0.136232
-0.108753
-0.103043
-0.0388956
0.0917592
0.0368912
0.0723634
-0.0290557
-0.0145079
-0.0651124
-0.013631
-0.142349
-0.0549331
-0.0921006
-0.0616662
-0.114749
-0.129976
-0.153759
-0.051658
-0.15112
-0.10686
-0.0518019
-0.0623183
-0.0550512
-0.0319898
-0.019361
-0.0281207
-0.0753558
-0.047292
-0.0209604
-0.0724316
0.0618662
-0.0223664
-0.178372
-0.1636
0.00938313
-0.0522404
-0.0559496
-0.111769
-0.143242
-0.00363807
-0.0246073
-0.0381098
0.0173779
0.0618265
0.0791677
0.0785412
0.140803
0.137208
-0.00830813
-0.104723
-0.00999269
-0.00673449
-0.0207352
0.0773098
0.107045
0.0991995
0.129732
0.0936537
0.059367
-0.0603514
-0.117419
-0.0063468
0.0610515
0.213181
0.203605
0.0740227
0.201339
0.349462
0.400425
0.23863
0.133603
0.0193644
-0.0516051
-0.019083
-0.102681
-0.0434854
-0.109205
-0.0154601
-0.0673305
0.0286726
-0.114031
-0.0164475
-0.00907481
0.0394048
0.0513038
0.120288
0.104013
0.0125109
-0.00438881
0.0738737
-0.0667739
-0.101577
-0.220459
-0.115462
-0.0258962
-0.0927061
-0.0570463
-0.0857471
-0.0657014
-0.0217866
-0.0506503
0.000877948
0.047238
0.0328832
0.0407888
-0.0013438
0.0134385
-0.0175559
-0.0842558
-0.00700028
-0.0997467
-0.0852004
-0.0520599
-0.098482
-0.156453
-0.0691177
-0.0121651
0.000660992
-0.254238
-0.0699483
-0.0229965
-0.0549676
-0.0229686
-0.0391065
-0.0283796
-0.0854404
-0.0695461
-0.0648458
-0.0958261
0.0123667
0.0547646
-0.108621
-0.0658182
-0.0220886
-0.0401201
-0.0736458
-0.0839404
-0.0555618
-0.0574222
0.013605
-0.0951452
-0.0386668
0.0366087
0.120362
0.113387
0.0754049
0.191103
0.0807612
-0.0415733
-0.0804739
-0.0128309
-0.0331811
0.00912689
0.0702399
0.0806064
0.0932494
0.136656
0.124272
0.0820455
-0.0409608
-0.0870604
0.0171508
0.0673139
0.129253
0.248116
0.168133
0.241517
0.278721
0.31353
0.183197
0.112681
-0.0574822
-0.145333
-0.0727497
-0.13945
-0.0776505
-0.0301626
-0.0539414
-0.060666
-0.0674557
-0.162301
0.0377196
-0.0516562
0.0640454
0.0639203
0.0571492
0.0549853
0.0426482
0.0596182
0.0287424
-0.0758272
-0.0653122
-0.113599
-0.0313451
-0.0294484
-0.0627667
-0.112717
-0.0661115
-0.149029
-0.0765391
0.0158394
0.0411428
0.129735
0.00997426
0.0591621
-0.000837983
0.0344706
-0.0215444
-0.119464
-0.028949
-0.03803
-0.0313198
-0.0681654
-0.144046
-0.110234
-0.0659444
0.01809
-0.0161916
-0.162631
-0.0828989
-0.0167817
0.0133752
-0.0277277
-0.0904869
-0.0381482
-0.0516664
-0.00588934
-0.115552
-0.048001
-0.0299012
-0.0072564
-0.0509926
-0.00729332
-0.0260441
-0.156177
-0.08211
0.0268593
-0.00541031
-0.0820414
0.0014323
0.0204654
0.0317975
0.074358
0.112193
0.154115
0.0826583
0.116465
0.093541
-0.0727019
-0.0418008
0.0126214
-0.00164475
0.00856481
-0.0160546
0.0196962
0.0781385
0.141994
0.0643282
0.0613515
0.0361106
-0.00776193
-0.0346215
-0.0404414
0.153762
0.225924
0.212091
0.191001
0.260726
0.273192
0.224806
0.0157664
-0.103547
-0.0982337
0.00556909
-0.150379
-0.128776
-0.0725433
-0.150823
-0.141394
-0.00329669
-0.0183233
-0.0353426
-0.150909
0.0290423
0.114659
0.0076547
0.146731
0.1058
-0.00602598
0.0225167
-0.0310516
-0.0701489
-0.0478509
-0.0305587
-0.0100054
-0.0310214
-0.0935712
-0.0773728
-0.0983199
-0.092697
-0.0209811
0.121781
0.155187
0.0215077
0.0170365
-0.0310547
-0.0188833
0.0203833
-0.0134402
-0.097066
-0.080445
-0.0474206
-0.0651513
-0.0773585
-0.0496519
-0.054698
-0.0712322
-0.0188076
0.00572103
-0.0420601
-0.0189426
-0.0333687
0.00210998
-0.016802
-0.0287855
-0.139669
-0.0767597
-0.00427241
0.0167721
-0.00478268
0.0677843
-0.0363153
-0.0654626
-0.0847472
-0.087772
-0.00876805
-0.0587523
-0.0604279
0.0254098
0.0697634
0.0603523
-0.00564054
0.0161663
0.0851237
0.16779
0.221375
0.171172
0.0617158
-0.0977207
-0.0338425
0.0380019
-0.0190022
-0.0298577
0.0210393
0.0154785
0.0993199
0.0986293
0.0348069
0.0238038
0.114114
-0.0168937
-0.0400167
0.0386476
0.181324
0.22651
0.0550053
0.139104
0.305006
0.397441
0.123492
-0.0556453
-0.123431
-0.0818547
-0.100249
-0.0671962
-0.142887
-0.156419
-0.0433964
-0.247062
-0.144231
-0.0543545
-0.0475133
-0.182111
-0.0244461
0.136476
0.0186445
0.0669635
0.112628
-0.100364
-0.00819192
-0.00699054
-0.0140463
-0.0267277
0.044091
0.0836159
-0.00239482
-0.0457317
-0.0900728
-0.178396
-0.0745411
0.0571655
0.0745919
0.0188774
0.0566737
0.0392162
-0.00361836
0.0245121
0.0273936
-0.0459735
-0.0660367
-0.0686797
-0.0997791
-0.0422093
-0.0540898
-0.00244235
-0.0165608
0.0304862
0.0233712
-0.0123187
-0.0173361
0.0395039
-0.0583861
-0.108138
-0.0156186
0.0276073
-0.0429135
-0.0427047
0.00336173
-0.0462194
0.0209515
-0.044975
-0.0417057
-0.048717
-0.0771216
-0.0624533
0.0319179
-0.0457458
0.0195173
0.0739372
0.050717
0.0709016
0.0187105
0.0218287
0.110813
0.209165
0.152711
0.160454
0.00190421
-0.111074
-0.0580888
-0.0433794
-0.0546785
-0.00416774
0.0362404
0.0119368
0.0410833
0.0552711
0.0855495
0.0923872
0.0309131
-0.0235143
-0.101909
0.0468739
0.206953
0.16248
0.0709812
0.260875
0.312998
0.264747
0.102338
-0.06708
-0.0851168
-0.108354
-0.0310543
-0.130136
-0.154309
-0.216871
-0.0918614
-0.17996
-0.0903398
-0.1092
-0.116546
-0.176753
-0.0119965
-0.0021272
-0.00118922
0.0625422
0.0438212
-0.0204112
-0.0307291
-0.0142999
0.0215826
0.0853114
0.164667
0.0999268
-0.0154575
-0.0969511
-0.0906402
-0.127926
-0.173715
0.0652077
0.1442
0.0184548
-0.00209315
0.113855
-0.00313488
-0.036501
0.0245841
-0.0440922
-0.0120241
-0.0967836
-0.0860077
-0.0158652
-0.0568168
0.00672563
-0.00967182
0.057363
0.137999
0.0422706
-0.0920461
-0.100909
-0.0230508
-0.0392185
0.0211516
0.025894
0.0156687
-0.0359343
0.0254576
0.0532282
-0.0559564
-0.152695
0.0489868
0.0329647
-0.0597679
-0.134154
-0.058347
-0.0649727
0.0193644
0.0571482
0.161963
0.0823248
0.0538171
0.0561213
0.0992234
0.189121
0.156767
0.165153
0.0179764
-0.121811
-0.0811675
-0.0813226
-0.0232726
-0.0329392
-0.0491832
0.0156332
0.0126681
0.0390004
0.0142169
0.0110928
0.029329
0.0105148
0.0274397
0.0200067
-0.0300609
0.0452962
0.156425
0.322338
0.307409
0.145788
0.0388947
-0.00998143
-0.0640925
-0.0823829
-0.104934
-0.130925
-0.153372
-0.194553
-0.119272
-0.0879368
-0.116034
-0.14804
-0.164295
-0.201126
-0.044875
-0.0808008
-0.00961035
0.0312697
0.0265117
0.0409584
0.0746079
0.0171871
0.00828456
0.0871544
0.250656
0.185289
0.0254679
0.020376
-0.00883294
-0.141707
-0.0770954
-0.0163145
0.00729581
-0.0219659
-0.0126051
0.00318136
0.0195922
-0.0190123
0.00492612
-0.00413615
0.0292047
-0.0631397
-0.169667
-0.0680968
0.0557571
0.0673074
0.0548849
0.165713
0.111888
0.0352851
-0.164384
-0.131603
-0.0325474
0.0458092
-0.0168108
0.087503
0.0889072
0.0113886
-0.0672053
-0.0243939
-0.103152
0.000659511
0.00699442
-0.0231972
-0.113141
-0.052365
0.0340976
0.00204712
0.0158986
-0.00369137
0.103674
0.150303
0.141953
0.0160753
0.0841025
0.206518
0.112584
0.0863169
0.00686402
-0.15948
-0.105793
-0.0725574
-0.0125449
-0.0222133
-0.0283453
-0.0333934
0.00597113
0.0816081
-0.055344
-0.0568159
0.0823459
-0.000422888
-0.115409
-0.0621312
-0.0121798
0.0586926
0.191639
0.246588
0.281361
0.163751
0.0164953
-0.0924196
-0.0244653
-0.0201596
-0.015467
-0.0968474
-0.160307
-0.167822
-0.0759511
-0.188124
-0.204169
-0.131866
-0.157506
-0.130234
-0.0461127
-0.00443943
-0.0362056
-0.0758197
0.0718647
-0.000583549
-0.0410292
0.121415
0.220066
0.166954
0.236275
0.187935
0.0717312
0.130318
-0.0340427
-0.0834273
-0.00245096
-0.0581316
-0.127219
0.000358511
-0.00370195
0.0196745
-0.0193869
-0.0587021
0.107982
-0.0148595
0.0391555
0.00243927
-0.164246
-0.0630135
-0.00254403
0.0517778
0.0998594
0.212762
0.0461034
-0.113678
-0.15505
0.0256111
-0.0488532
0.0563296
0.0239758
-0.0356689
0.0854144
0.0366694
-0.0373653
-0.143643
0.0171754
0.166323
0.00494582
-0.160896
-0.0752526
0.0213693
0.026077
0.0284183
0.0760223
0.103317
0.103286
0.114003
0.0707103
0.00103127
0.122574
0.188014
0.174956
0.0934867
0.00586869
-0.120404
-0.145768
-0.0724575
-0.0746436
-0.127221
0.0792775
0.133021
-0.0103302
-0.0307945
-0.191955
-0.112898
0.200073
0.0290537
-0.169278
-0.121389
-0.179975
-0.0551058
0.11211
0.349369
0.258267
-0.0501679
-0.0669788
0.0511483
-0.0229875
-0.170675
-0.129395
-0.0597086
-0.0147961
-0.18991
-0.172301
-0.204018
-0.135492
-0.0979916
-0.172099
-0.131962
-0.152123
-0.136446
-0.0256919
0.121262
0.0872529
0.0456087
0.0314097
0.142886
0.238172
0.19473
0.137862
0.145616
0.142149
0.267597
0.0261528
-0.0782814
-0.0307811
-0.0636062
-0.0747227
-0.0948641
-0.0537943
0.0170387
-0.0354845
0.00165672
0.0210168
-0.0200708
0.0279022
0.0150059
-0.0162449
-0.0855276
-0.0384488
-0.0286997
0.0851121
0.141094
0.115623
-0.0386951
-0.12688
-0.0473001
0.0614052
0.0762572
-0.0433368
0.0433438
0.0262998
0.0482739
-0.0355238
-0.0405733
0.0690467
0.0213823
-0.0763252
-0.0579382
-0.0632498
-0.024824
0.0862472
0.110267
0.102918
0.130363
0.0747419
0.126823
0.091472
0.103599
0.165405
0.238411
0.0669669
-0.00707924
-0.0101486
-0.167616
-0.167264
0.00193839
-4.80259e-05
-0.166269
0.0123141
-0.0238474
-0.0346202
-0.0659519
-0.0239915
-0.0423514
-0.00854997
0.0476313
-0.13742
-0.243844
-0.113578
0.0465785
-0.0219467
0.183714
0.221005
-0.0494953
-0.109017
-0.00810328
-0.0497264
-0.122484
-0.0654743
-0.0480083
-0.0839392
-0.135819
-0.180184
-0.169935
-0.238962
-0.160795
-0.215876
-0.181067
-0.137549
-0.148459
-0.0617805
0.126704
0.0911036
0.01591
0.0952387
0.170641
0.206267
0.16206
0.193351
0.291411
0.190427
0.102095
0.0284729
0.157422
-0.0478085
-0.0512731
-0.152731
-0.149956
0.00381284
0.134474
-0.114943
-0.0993061
0.0324645
-0.04537
0.0410751
0.134762
0.00689585
-0.108309
-0.0637522
0.0374691
0.194478
0.0928142
0.0103227
-0.117691
-0.134212
-0.0658868
0.0416198
0.0772626
0.0410243
0.0903105
0.0205845
-0.0418822
-0.0503431
0.00555837
0.104996
-0.0248756
-0.060503
-0.103469
0.088969
-0.000225795
0.0438232
0.0400971
0.071905
0.14136
0.107749
0.149472
0.116568
0.0852773
0.0849451
0.0985282
0.0934096
0.0394876
0.0169415
-0.167456
-0.128835
-0.0503425
-0.034327
-0.0318329
-0.0482307
-0.0435136
-0.00614015
-0.0073168
0.0201252
-0.106786
-0.142785
-0.142696
-0.0994412
-0.10965
-0.146643
0.018303
-0.033951
-0.0225199
0.0267818
0.022389
-0.0373872
-0.0430356
0.0392897
-0.130666
-0.132119
-0.235193
-0.104796
0.0209829
-0.0674233
-0.0921862
-0.246168
-0.28247
-0.306307
-0.211562
-0.145855
-0.0543646
-0.0114596
0.00580242
0.0754654
0.136627
0.125511
0.162297
0.218942
0.187573
0.194737
0.205153
0.185126
0.14884
0.0736954
0.0523196
0.0311731
-0.0348997
-0.0824482
-0.104471
-0.0871033
0.0659732
0.0208675
-0.0790345
-0.0632296
-0.0143494
0.0582587
0.0421434
0.0682269
-0.040358
-0.0748874
0.00198878
0.18362
0.0508161
-0.000242569
-0.00876453
-0.010497
-0.0862538
-0.0726234
0.0170096
-0.0412693
0.101937
-0.00560318
-0.0308308
0.0854206
0.163475
-0.0669814
-0.0340473
-0.0737483
-0.148557
0.0663301
0.0160782
0.0471515
0.0419026
0.0830433
0.176382
0.0824851
0.102722
0.0885224
0.0819605
0.0823452
0.147708
0.070094
-0.0166165
-0.0241803
-0.16835
-0.0598562
-0.0395683
0.00334556
-0.00894146
-0.0550792
-0.164678
-0.0935366
0.0502009
0.0509564
-0.000313243
-0.150085
-0.12748
-0.132195
-0.218178
-0.210319
-0.00831071
0.0993593
-0.0595486
-0.0606501
-0.00228856
0.0181935
0.055906
-0.0770783
-0.139715
-0.0217595
-0.117593
-0.082209
-0.0802669
-0.119109
-0.166394
-0.254544
-0.314869
-0.281447
-0.200152
-0.116415
-0.0350194
-0.0492481
0.0114625
0.0785212
0.119046
0.128083
0.131432
0.226951
0.2578
0.207589
0.146287
0.185488
0.153138
0.142942
0.0318471
0.018298
-0.0330398
-0.130848
-0.0791542
0.0244294
0.0481926
-0.0221039
-0.123004
-0.074932
0.00789643
0.0326075
0.0843447
0.114953
-0.00241227
-0.0142599
0.0314657
0.146599
0.0785016
-0.0911734
-0.0867168
-0.0999991
-0.0302854
-0.00375036
0.0388546
0.0512665
0.0502685
0.0305897
0.0433842
-0.0323654
0.0101945
-0.0232265
-0.108036
-0.0223657
0.046557
0.0319677
0.0387123
0.106152
-0.014629
0.0927292
0.198322
0.0479757
0.0786132
0.0423995
0.100204
0.0349474
0.0206121
0.0872921
-0.00585266
-0.0225127
-0.0711471
-0.0462353
0.0312427
0.0435984
-0.00518173
-0.0651227
-0.118345
-0.10075
0.0191334
0.00306475
-0.0789828
-0.0821872
-0.125362
-0.193113
-0.191162
-0.102893
-0.0530538
-0.00510616
-0.0304969
-0.0963083
0.0137405
0.0701816
-0.114736
-0.123141
-0.023482
0.163896
-0.0608116
-0.0574033
-0.190816
-0.148807
-0.151858
-0.288691
-0.237478
-0.232003
-0.278156
-0.260271
-0.0880564
-0.0027228
0.0692942
0.118132
0.0894454
0.146564
0.15745
0.245885
0.217739
0.286812
0.164073
0.0814077
0.184624
0.159335
0.0310221
0.0951131
-0.0046439
-0.112849
-0.07754
-0.0300061
0.00127467
-0.0754179
-0.0960647
-0.0756596
0.00616123
0.00707239
0.0321017
0.124032
0.0374744
0.0219724
0.0992964
0.132457
-0.0187761
-0.0471543
0.0542574
-0.0366728
-0.138172
-0.0522532
-0.0156477
0.0746896
0.0483558
0.0136805
-0.0205806
-0.0404081
0.102153
-0.0779956
-0.0717727
0.00832389
-0.0104493
0.0715729
0.0255251
0.102145
0.0107831
0.10342
0.206031
0.0383373
0.0420057
0.055149
0.0555029
0.0143951
-0.0240648
0.0248607
0.0356843
0.0048491
-0.0353556
0.0100322
0.116558
0.0711858
-0.0428429
-0.0928768
-0.0879958
-0.0461645
0.0158561
-0.0185854
-0.122805
-0.0740356
-0.173058
-0.186965
-0.212204
-0.123121
0.0252163
-0.011179
0.0150193
0.0853338
-0.100617
-0.0740997
-0.0255156
-0.0172693
0.0618584
0.00332006
0.0331174
-0.00404514
-0.059975
-0.189773
-0.217319
-0.307629
-0.256316
-0.266832
-0.232015
-0.22767
-0.104983
-0.0179508
0.0638444
0.117819
0.123644
0.167734
0.124299
0.259245
0.217644
0.255212
0.0896176
0.177875
0.225315
0.15427
0.120498
0.0295605
-0.0535628
-0.177122
-0.0627285
-0.0102516
-0.0168661
-0.0416715
-0.0719148
-0.0397137
-0.0258191
0.0115271
0.0798728
0.131589
0.0448149
-0.0155278
0.100501
0.14387
0.0837121
-0.0700712
-0.172393
-0.124887
-0.00381065
0.0540354