/*--------------------------------*- C++ -*----------------------------------*\
| =========                 |                                                 |
| \\      /  F ield         | OpenFOAM: The Open Source CFD Toolbox           |
|  \\    /   O peration     | Version:  v2012                                 |
|   \\  /    A nd           | Website:  www.openfoam.com                      |
|    \\/     M anipulation  |                                                 |
\*---------------------------------------------------------------------------*/
FoamFile
{
    version     2.0;
    format      ascii;
    class       volVectorField;
    location    "0";
    object      U;
}
// * * * * * * * * * * * * * * * * * * * * * * * * * * * * * * * * * * * * * //

dimensions      [0 1 -1 0 0 0 0];


internalField   nonuniform List<vector> 
4000
(
(-0.00394109 -0.0350383 0)
(0.0316782 -0.0709527 0)
(-0.000431118 0.0809748 0)
(-0.112426 0.0594747 0)
(-0.158738 0.0401835 0)
(0.007906 -0.0598933 0)
(-0.208559 -0.00459697 0)
(0.0363686 -0.0257952 0)
(0.0700283 -0.0718363 0)
(0.091663 0.0617929 0)
(0.0378813 0.0827151 0)
(0.0219215 -0.0307701 0)
(-0.033779 -0.0517204 0)
(-0.102304 -0.0253951 0)
(0.0236516 0.0821461 0)
(0.0230052 0.0562422 0)
(-0.0160174 0.109139 0)
(-0.123235 -0.0938391 0)
(-0.0868908 -0.0806957 0)
(0.181354 0.0315532 0)
(0.044401 0.00448843 0)
(0.00310854 0.036732 0)
(-0.0255648 -0.0618162 0)
(0.061248 0.00151304 0)
(0.0119973 0.086802 0)
(0.0400696 0.011121 0)
(0.0305885 0.029039 0)
(-0.026926 -0.0344138 0)
(-0.0579964 -0.0894623 0)
(-0.0774441 -0.0964276 0)
(-0.00627943 0.0829625 0)
(-0.0842888 0.115287 0)
(-0.0909807 -0.0256399 0)
(0.059102 -0.090305 0)
(0.110481 -0.0724461 0)
(0.0201144 0.00353878 0)
(-0.0282688 0.0795869 0)
(0.013385 -0.0846561 0)
(0.141734 -0.0674907 0)
(0.214274 0.103185 0)
(-0.00348878 0.0797637 0)
(-0.0439139 -0.00352042 0)
(0.0112373 0.0285599 0)
(-0.0416813 -0.0173977 0)
(-0.0945145 -0.00920953 0)
(0.00866194 -0.0248001 0)
(0.122247 0.00322095 0)
(-0.0183842 0.0656511 0)
(0.0024004 0.0239077 0)
(-0.076462 -0.0754079 0)
(0.141569 -0.0631874 0)
(0.0555131 0.0645738 0)
(-0.0101941 -0.0129933 0)
(-0.0142393 -0.0576116 0)
(0.0519475 0.073087 0)
(-0.0100908 0.0586205 0)
(-0.0127109 0.0123102 0)
(-0.0267258 0.0247018 0)
(0.0436902 -0.0582553 0)
(0.0461848 -0.150914 0)
(-0.00716813 -0.0217754 0)
(-0.0169634 0.114552 0)
(0.0162742 0.0508711 0)
(-0.0416682 0.0031192 0)
(-0.0379469 -0.0316394 0)
(0.101076 0.0191155 0)
(-0.116511 -0.0227478 0)
(0.0233634 -0.0887271 0)
(-0.0325097 -0.0422061 0)
(-0.0668394 0.121288 0)
(-0.124678 0.0276 0)
(0.0849017 0.039283 0)
(-0.022254 -0.0327539 0)
(0.0187284 -0.0262674 0)
(-0.0298926 0.0206948 0)
(-0.0504717 -0.00631708 0)
(-0.0858333 -0.0125237 0)
(0.187901 0.0257216 0)
(0.086912 -0.0915893 0)
(0.0408028 0.0439594 0)
(0.0196332 0.0462423 0)
(-0.0782719 -0.0285398 0)
(-0.0649146 0.0302061 0)
(-0.00555218 0.0112912 0)
(0.000683459 -0.0416857 0)
(0.0561713 -0.065253 0)
(0.0722177 -0.0181774 0)
(-0.0295091 0.0655697 0)
(0.0157297 0.0108602 0)
(0.0606721 -0.0805694 0)
(0.0516425 0.0028855 0)
(-0.0415797 0.0173482 0)
(0.213752 0.0222184 0)
(-0.124213 0.0665992 0)
(-0.0697834 -0.0213093 0)
(-0.0600641 -0.0228859 0)
(-0.00845877 0.0154331 0)
(0.15442 -0.028411 0)
(-0.0455114 0.0494324 0)
(0.00988877 0.0182419 0)
(0.024323 -0.0760385 0)
(-0.0408483 -0.0672301 0)
(0.0112619 0.108899 0)
(-0.00106854 0.146474 0)
(0.063732 0.0181242 0)
(-0.0427934 -0.195151 0)
(0.0480933 0.0540373 0)
(-0.0174946 -0.00885214 0)
(0.0720007 -0.0817655 0)
(-0.280461 0.0880223 0)
(0.0220679 -0.00575705 0)
(0.0471405 -0.0638148 0)
(0.0493887 0.0350619 0)
(0.00485302 0.0711401 0)
(-0.00100321 -0.0965556 0)
(0.0156773 0.00274442 0)
(-0.00768289 0.163452 0)
(0.0327566 -0.049625 0)
(0.115365 -0.162315 0)
(-0.115599 0.0211684 0)
(0.00541686 0.148929 0)
(-0.0285972 -0.037368 0)
(0.000991532 -0.141489 0)
(0.0463581 0.102097 0)
(-0.0160374 0.0487085 0)
(0.0162913 -0.155653 0)
(-0.0818953 0.0210034 0)
(0.120128 0.173126 0)
(-0.112144 -0.0546545 0)
(-0.1741 -0.0978795 0)
(-0.150107 0.0786827 0)
(0.168815 -0.0195879 0)
(-0.0904309 0.0479285 0)
(-0.0363064 -0.095864 0)
(-0.00689134 -0.0691223 0)
(0.0326759 0.0563943 0)
(0.0367309 -0.0638142 0)
(-0.00864113 -0.166744 0)
(-0.00622545 0.0219613 0)
(0.00715348 0.164483 0)
(0.0133816 0.0262304 0)
(-0.00922477 -0.0359078 0)
(0.0267679 0.103577 0)
(-0.0778833 -0.000624732 0)
(0.00516364 -0.0672068 0)
(0.00108242 -0.0324789 0)
(0.0303153 0.0265575 0)
(0.0164436 0.0457887 0)
(0.0520733 0.114209 0)
(0.165196 -0.135132 0)
(-0.183931 -0.0414229 0)
(0.0886442 0.0192572 0)
(0.0161437 0.00729629 0)
(-0.0113801 -0.0304018 0)
(0.0369353 0.0329034 0)
(0.0363616 0.0759945 0)
(-0.164238 -0.0614611 0)
(0.0797445 -0.123969 0)
(0.148744 0.159008 0)
(-0.0261287 0.132026 0)
(-0.206296 -0.0911436 0)
(-0.0145302 0.0341238 0)
(0.0475546 -0.0410308 0)
(0.138984 0.0486503 0)
(-0.0417695 -0.0130145 0)
(-0.0762543 -0.0800453 0)
(0.174272 0.0202618 0)
(-0.101513 0.000241318 0)
(-0.0174504 0.0514499 0)
(0.0249547 0.0607741 0)
(0.055385 -0.109027 0)
(0.0840354 -0.0475595 0)
(0.0303433 -0.0262173 0)
(0.0335053 0.00735613 0)
(-0.0836303 0.0368799 0)
(0.0141116 -0.0170838 0)
(0.0412951 -0.0384477 0)
(0.0249124 -0.0130472 0)
(0.0533872 -0.0703852 0)
(-0.0878832 0.143619 0)
(-0.00361061 0.0832886 0)
(0.0513797 -0.0945142 0)
(-0.016375 -0.0629567 0)
(0.0258929 0.0166808 0)
(0.0407653 -0.0392916 0)
(-0.112813 -0.0398358 0)
(-0.0597083 0.0287125 0)
(-0.0540965 0.11308 0)
(-0.0117894 -0.0159056 0)
(-0.0503196 -0.0343147 0)
(-0.0175567 0.0106108 0)
(-0.0456191 -0.0704199 0)
(-0.0149704 -0.0196332 0)
(0.0348391 0.228325 0)
(-0.00991555 -0.0446876 0)
(-0.0420659 -0.0805625 0)
(0.0290939 -0.0110291 0)
(0.000356546 -0.017864 0)
(0.0256339 0.0891125 0)
(-0.0627268 0.0633644 0)
(0.0034796 -0.0143205 0)
(0.0029857 -0.0550578 0)
(-0.000578233 0.00949502 0)
(0.00519798 0.156999 0)
(0.000712092 -0.0194763 0)
(0.0106272 -0.091735 0)
(0.00343187 0.0235381 0)
(-0.0167141 0.0354863 0)
(0.0243782 -0.0439394 0)
(-0.124949 0.0353732 0)
(0.0288243 -0.0168029 0)
(-0.0183715 -0.102096 0)
(0.0753089 0.0661505 0)
(0.118757 0.0660143 0)
(-0.00669737 -0.0573418 0)
(-0.0543322 -0.0741644 0)
(-0.0385769 0.0781841 0)
(0.0173944 0.0602906 0)
(0.0270531 -0.107676 0)
(-0.0288811 0.0181102 0)
(0.0131917 0.0930197 0)
(-0.0709827 -0.0614305 0)
(-0.00972246 -0.0110416 0)
(0.0422451 -0.000813208 0)
(0.144942 -0.0815628 0)
(-0.0177938 -0.00645617 0)
(-0.0959089 0.140842 0)
(0.012613 0.0533549 0)
(-0.069186 -0.122345 0)
(-0.107274 -0.0729407 0)
(0.0956634 0.0806598 0)
(-0.0275735 0.063033 0)
(-0.20567 0.014393 0)
(0.174622 -0.182281 0)
(0.125498 -0.0131021 0)
(0.154939 0.0552901 0)
(0.0115331 -0.0292273 0)
(-0.194783 -0.00355973 0)
(0.128824 -0.003352 0)
(0.0352663 0.0147455 0)
(-0.174136 0.0745318 0)
(-0.0128641 -0.0850277 0)
(-0.0476948 -0.0134803 0)
(0.142976 0.0707562 0)
(-0.0366118 -0.00968926 0)
(-0.0242577 0.0216376 0)
(-0.0687424 0.052254 0)
(0.056604 -0.109705 0)
(-0.00757695 0.0579701 0)
(0.0634874 0.0582017 0)
(-0.08992 0.0386593 0)
(0.0128479 -0.0809848 0)
(-0.0362412 -0.000206753 0)
(-0.070541 0.00300928 0)
(-0.0680655 -0.0686999 0)
(0.0325037 0.0353855 0)
(0.0637474 -0.0645052 0)
(0.000883578 -0.0561206 0)
(0.0510345 0.071731 0)
(0.0372702 0.109351 0)
(0.011505 0.0266696 0)
(0.233198 -0.0870466 0)
(0.0157758 0.0076364 0)
(-0.00587439 0.07345 0)
(0.133306 0.0548092 0)
(-0.133417 0.0583596 0)
(-0.0546428 -0.105457 0)
(0.00197869 -0.0845798 0)
(0.100054 0.0280593 0)
(0.177494 -0.0622387 0)
(0.0279159 -0.0150493 0)
(0.0379999 0.0237923 0)
(0.0442528 0.0090412 0)
(-0.0204938 0.0675677 0)
(0.0468934 0.0174133 0)
(-0.284381 0.0302398 0)
(0.0524744 -0.0145585 0)
(0.0504241 -0.202339 0)
(0.0270969 -0.105345 0)
(0.00528007 0.261857 0)
(0.0233188 0.115065 0)
(-0.000380388 -0.139792 0)
(0.0378651 -0.051048 0)
(-0.086516 0.0863364 0)
(-0.0326389 -0.0581271 0)
(0.105078 -0.0656601 0)
(0.0111987 0.0744491 0)
(0.0274756 0.118525 0)
(-0.0713175 0.0182848 0)
(-0.242163 -0.0632298 0)
(-0.04073 -0.0621056 0)
(-0.035479 0.0407111 0)
(-0.167726 -0.0355133 0)
(-0.0211854 0.108155 0)
(0.0381105 0.0550286 0)
(0.0329575 -0.0629514 0)
(-0.0126858 -0.159175 0)
(-0.0676193 0.0373216 0)
(-0.00536563 0.0808291 0)
(-0.0113392 0.0568891 0)
(0.000877792 0.0517148 0)
(0.013389 -0.149941 0)
(0.00580227 0.0076776 0)
(0.0395339 0.138176 0)
(-0.0857427 0.0856842 0)
(-0.00238995 0.0172223 0)
(0.0995195 -0.0935023 0)
(-0.142965 -0.0591167 0)
(-0.0736125 -0.0268687 0)
(0.0992437 0.0264277 0)
(0.0559707 -0.0564983 0)
(-0.0858396 -0.0350734 0)
(0.0668788 0.134788 0)
(0.00928333 -0.0169598 0)
(0.0200164 0.0158724 0)
(0.0239962 -0.0288644 0)
(0.0168002 0.0849043 0)
(0.017636 -0.00252828 0)
(-0.0149497 -0.0398017 0)
(0.00210863 0.0277381 0)
(-0.00681068 0.138797 0)
(0.0900384 -0.108773 0)
(0.053768 0.00704153 0)
(0.0644059 -0.148159 0)
(0.177471 -0.0619086 0)
(-0.0217491 0.0133009 0)
(-0.0197985 0.211506 0)
(0.0862866 0.160046 0)
(-0.18395 -0.108061 0)
(-0.165231 -0.218989 0)
(0.0746947 -0.018859 0)
(-0.0105157 0.223247 0)
(0.192975 0.0400831 0)
(0.126199 -0.261884 0)
(0.0128254 -0.0672676 0)
(0.0264079 0.0588803 0)
(-0.106362 0.0520691 0)
(0.14486 -0.00273629 0)
(-0.0342186 -0.0988689 0)
(-0.00566976 0.0579629 0)
(0.00124169 0.145375 0)
(0.062183 -0.0616995 0)
(-0.0373475 -0.0854559 0)
(0.0820335 0.105272 0)
(0.0833959 0.0227361 0)
(0.133267 -0.00904339 0)
(0.00514249 0.0266398 0)
(0.0501844 -0.0389061 0)
(0.0432928 0.0456915 0)
(-0.0529911 0.055283 0)
(-0.00382893 -0.0206515 0)
(0.070907 0.0546884 0)
(-0.0144148 -0.136943 0)
(0.0309142 -0.063786 0)
(-0.01092 -0.115302 0)
(0.0258372 -0.0350219 0)
(0.109984 0.0991645 0)
(-0.0341333 0.0393519 0)
(-0.0500907 -0.0497872 0)
(-0.18371 0.0193725 0)
(0.101491 0.0883386 0)
(0.0418219 -0.0444429 0)
(-0.00142247 0.0528345 0)
(0.0893489 -0.0996136 0)
(0.0434391 0.00518791 0)
(0.102287 0.20318 0)
(0.109918 0.0212611 0)
(-0.149498 -0.210388 0)
(-0.00621143 -0.00821166 0)
(0.0326084 0.0480662 0)
(-0.0296079 -0.00176833 0)
(-0.109263 0.0664102 0)
(0.0443395 -0.0419527 0)
(0.0446229 0.0628816 0)
(0.079431 0.148734 0)
(-0.0019252 -0.0171081 0)
(-0.0058104 -0.218016 0)
(0.102626 -0.112916 0)
(-0.154791 0.0136493 0)
(0.0688285 0.17591 0)
(-0.0115591 0.126393 0)
(-0.0218221 -0.0978407 0)
(0.0315135 0.0108509 0)
(0.0515155 -0.0397142 0)
(0.0854067 -0.0833897 0)
(0.0501054 -0.0397924 0)
(0.0412576 0.0759898 0)
(0.191988 0.112394 0)
(0.0616247 0.108012 0)
(0.0145871 -0.0779346 0)
(0.107704 -0.0616804 0)
(0.0125358 0.0401315 0)
(-0.0591447 0.000443209 0)
(-0.104009 -0.0613254 0)
(0.121897 0.0253848 0)
(0.0484637 -0.0784441 0)
(0.0062106 -0.0336619 0)
(-0.0410225 0.11696 0)
(-0.122588 0.00398886 0)
(0.111945 -0.0148166 0)
(0.000724014 0.0427498 0)
(0.000411441 -0.0972599 0)
(-0.188465 0.0325457 0)
(-0.00211358 0.129128 0)
(0.184316 0.0414869 0)
(-0.0755741 -0.0720875 0)
(-0.0331561 -0.0754725 0)
(-0.0145865 -0.0453358 0)
(-0.0878547 0.0210561 0)
(0.0764469 -0.0289421 0)
(-0.0724944 -0.00931039 0)
(-0.046563 0.00167917 0)
(0.121627 0.0672526 0)
(-0.0478325 0.123247 0)
(-0.00347323 -0.160698 0)
(-0.033497 -0.0646187 0)
(-0.0322824 -0.096781 0)
(0.0650496 0.0418831 0)
(0.101071 0.0685934 0)
(0.0237719 0.0609971 0)
(0.123131 0.0742974 0)
(-0.0261549 0.0460463 0)
(0.0877961 -0.147855 0)
(0.127979 -0.228258 0)
(-0.18978 -0.00779015 0)
(-0.201126 0.163934 0)
(0.0744638 0.1124 0)
(0.105274 0.0758199 0)
(0.204586 0.0519185 0)
(0.0718008 -0.117302 0)
(-0.103566 -0.125565 0)
(-0.140029 0.021242 0)
(0.135153 -0.0565229 0)
(0.139139 -0.0121015 0)
(-0.155145 0.0493197 0)
(-0.0866308 0.040058 0)
(-0.164701 -0.0177146 0)
(0.0168625 -0.0701357 0)
(0.0242418 -0.0506899 0)
(-0.105274 0.0319005 0)
(-0.00963259 -0.0203773 0)
(0.0268922 -0.00494386 0)
(0.0385736 0.0578474 0)
(-0.0201347 -0.0742188 0)
(0.0808985 0.0823172 0)
(0.0805656 0.119456 0)
(0.00300566 -0.101212 0)
(0.225808 -0.117504 0)
(-0.0299407 0.106974 0)
(-0.0794567 0.127852 0)
(-0.0711211 -0.108025 0)
(0.118537 0.00559185 0)
(0.147399 0.0253729 0)
(-0.197127 -0.0160602 0)
(0.128473 -0.148722 0)
(-0.105827 -0.0589625 0)
(-0.148786 0.120364 0)
(0.0246867 0.113108 0)
(0.0132747 0.052354 0)
(-0.0407447 0.0297523 0)
(-0.0193299 -0.124666 0)
(0.0133008 -0.00505822 0)
(0.0831776 0.0110862 0)
(-0.061011 -0.0123027 0)
(-0.075364 0.00416336 0)
(-0.0605959 0.101548 0)
(0.0340319 0.0544078 0)
(0.00198026 -0.0732595 0)
(-0.0505215 0.0269814 0)
(-0.0857557 -0.00920805 0)
(-0.00619097 0.016311 0)
(0.0260635 -0.0481711 0)
(0.0611388 0.0240466 0)
(0.00421348 0.0396938 0)
(-0.00738072 0.13953 0)
(-5.31562e-05 -0.0373904 0)
(0.026871 -0.218335 0)
(-0.0698193 -0.170378 0)
(0.160601 0.0931299 0)
(-0.156673 0.22608 0)
(-0.0380431 0.107483 0)
(0.0756096 -0.0938786 0)
(-0.00712438 -0.0320654 0)
(0.00858924 -0.00996114 0)
(-0.154185 -0.0683489 0)
(-0.0134457 -0.0871195 0)
(0.136196 -0.0300435 0)
(0.00408453 0.0924793 0)
(0.0969477 0.137403 0)
(0.0431857 -0.0115748 0)
(-0.0826728 0.0333062 0)
(-0.158716 0.00541672 0)
(-0.0278787 -0.0136096 0)
(-0.0384133 -0.0551972 0)
(0.0297149 -0.0487451 0)
(0.00603928 -0.0361754 0)
(-0.00556586 0.0825082 0)
(0.0648256 0.0843286 0)
(0.0753413 -0.0427895 0)
(0.0251319 -0.0794551 0)
(0.00103626 0.0321208 0)
(0.00305942 -0.0340755 0)
(0.0499066 0.0388253 0)
(-0.0363358 0.0841373 0)
(-0.00267735 0.0603565 0)
(-0.0192132 -0.0542299 0)
(-0.0267328 -0.0843978 0)
(-0.0464406 -0.0198488 0)
(-0.0594627 -0.0114296 0)
(0.00554962 -0.125531 0)
(0.10248 0.093759 0)
(0.00721378 0.143196 0)
(-0.00789111 -0.124621 0)
(0.0631963 -0.0199653 0)
(0.116458 0.0104679 0)
(0.00638333 0.0732714 0)
(0.0199369 -0.0159806 0)
(-0.0632941 -0.00521293 0)
(0.0140857 0.0413828 0)
(0.0237035 0.0214104 0)
(0.00758188 -0.0361111 0)
(0.0147802 0.0283364 0)
(0.0210352 -0.214777 0)
(0.124821 0.0302381 0)
(-0.0651476 0.0860185 0)
(0.0372104 0.0420763 0)
(0.0438379 0.0048503 0)
(-0.0673507 0.0293376 0)
(0.0160437 -0.0723823 0)
(-0.0407235 -0.0138352 0)
(0.0109979 0.0287155 0)
(0.0790115 -0.13266 0)
(0.0130744 -0.116876 0)
(-0.0611703 0.0911901 0)
(0.0318568 0.121527 0)
(-0.0411092 -0.0158378 0)
(-0.0212595 0.010838 0)
(-0.0221346 -0.00128586 0)
(0.00353786 -0.0509895 0)
(0.10666 0.0171631 0)
(-0.0413934 -0.0132368 0)
(-0.027828 0.0142351 0)
(-0.033352 -0.0127673 0)
(0.0150077 -0.085823 0)
(-0.00187529 -0.0745661 0)
(0.0775673 0.138763 0)
(0.0693527 0.00596815 0)
(0.0319395 -0.10005 0)
(-0.0858996 0.0712437 0)
(-0.0129402 0.210331 0)
(0.0984569 -0.0644175 0)
(0.0297226 -0.149079 0)
(-0.0103071 0.135814 0)
(-0.00815767 -0.0834068 0)
(-0.0548821 -0.150721 0)
(-0.067738 0.044945 0)
(0.0571401 0.0544353 0)
(-0.00315699 0.163958 0)
(-0.0183117 -0.0321076 0)
(0.0407873 -0.156943 0)
(-0.0472317 -0.0253042 0)
(-0.0640382 0.0631632 0)
(0.0246907 -0.0232225 0)
(0.0437092 0.0375843 0)
(-0.0119211 0.0707381 0)
(0.0668796 0.0715081 0)
(0.111786 -0.0407457 0)
(0.0450246 0.0444432 0)
(0.018478 0.0566628 0)
(-0.0154419 -0.0950094 0)
(-0.0201706 -0.0324217 0)
(-0.00977792 0.0940166 0)
(0.0185957 0.0640709 0)
(-0.131534 0.0577647 0)
(-0.11758 0.106995 0)
(0.0241823 -0.113214 0)
(0.0287932 -0.200087 0)
(0.0263152 -0.263816 0)
(-0.0597582 0.136967 0)
(0.0687737 0.367935 0)
(-0.0894354 -0.00826133 0)
(0.0518416 -0.171572 0)
(-0.116369 -0.0402636 0)
(0.150238 0.198937 0)
(-0.0785194 -0.133408 0)
(-0.0252826 -0.190613 0)
(-0.174303 0.0399742 0)
(-0.0439059 0.105854 0)
(0.0873716 -0.0429354 0)
(0.0903213 0.0201839 0)
(-0.0781255 0.160069 0)
(0.0368583 0.00825374 0)
(0.0844687 -0.192908 0)
(0.106644 -0.0104927 0)
(0.11562 0.0256875 0)
(0.00122116 -0.00190205 0)
(-0.0423201 0.0548611 0)
(0.00839554 0.00789344 0)
(0.135534 -0.0309114 0)
(0.0506584 -0.0476819 0)
(0.00324405 0.0367531 0)
(0.00863122 -0.0861689 0)
(0.00698289 0.029143 0)
(0.00819908 0.17123 0)
(0.00482076 -0.0134298 0)
(0.0042965 0.033841 0)
(0.00487789 -0.156909 0)
(0.0397998 -0.0613402 0)
(0.0257305 0.00993045 0)
(-0.0274707 -0.127043 0)
(0.0167581 0.119014 0)
(-0.00105757 0.126399 0)
(0.00120063 -0.140427 0)
(0.0131165 -0.0498347 0)
(0.0775732 0.0384294 0)
(-0.00414535 0.00232532 0)
(0.020074 0.155574 0)
(-0.0132543 0.0085441 0)
(-0.0150901 -0.00905699 0)
(8.94363e-05 -0.0381005 0)
(0.0134653 0.145162 0)
(0.0545102 -0.0980417 0)
(0.0640976 -0.375332 0)
(0.00605981 -0.101057 0)
(-0.0370433 0.229581 0)
(0.103399 0.167234 0)
(0.0370508 0.0760954 0)
(-0.0488353 0.1678 0)
(-0.0181942 -0.0501258 0)
(-0.00855386 -0.11883 0)
(0.0703132 -0.0117552 0)
(0.055542 -0.208773 0)
(0.000795789 0.00298002 0)
(-0.0412003 0.0939632 0)
(0.102157 0.0249698 0)
(-0.00250627 -0.0465654 0)
(0.065515 -0.0677022 0)
(0.00720842 -0.0326362 0)
(0.0351603 0.0145402 0)
(-0.0611252 0.00667356 0)
(0.175592 0.097352 0)
(0.154827 -0.0473856 0)
(0.0652088 -0.157179 0)
(0.142008 -0.0446289 0)
(0.0649015 -0.0399225 0)
(-0.0765717 0.0950923 0)
(0.0421461 0.0343579 0)
(0.000581572 0.0700049 0)
(0.0326196 0.141057 0)
(0.177005 -0.00139106 0)
(-0.00479404 0.0132913 0)
(-0.0829333 0.0224609 0)
(-0.0277537 0.036259 0)
(0.136492 -0.117156 0)
(-0.0250363 -0.175074 0)
(-0.0519968 0.036539 0)
(-0.0358599 0.156144 0)
(-0.0438861 -0.0249872 0)
(0.0101049 -0.15715 0)
(0.139257 -0.096272 0)
(-0.0198401 0.101734 0)
(0.0616609 0.123238 0)
(-0.0620463 0.0650009 0)
(-0.0277126 -0.00919816 0)
(0.0038714 0.0866832 0)
(-0.281611 -0.0256139 0)
(0.00424711 -0.0238945 0)
(-0.000702321 0.00821602 0)
(0.017816 0.0791649 0)
(-0.00664702 -0.0161133 0)
(-0.00978146 -0.199827 0)
(-0.00426658 0.0250066 0)
(0.0646551 0.111048 0)
(0.00998689 0.0902312 0)
(0.0754351 0.112025 0)
(-0.0762812 -0.115027 0)
(-0.0275839 -0.197543 0)
(0.0427097 -0.0313314 0)
(-0.0240182 0.0577209 0)
(-0.0178718 0.144735 0)
(0.208456 0.0779923 0)
(0.0297614 -0.137208 0)
(-0.0994044 -0.128945 0)
(0.117122 0.0660278 0)
(0.203983 -0.0205608 0)
(-0.109313 0.0311566 0)
(-0.0249372 0.00475113 0)
(0.0683823 -0.0365827 0)
(0.130536 -0.0245497 0)
(-0.183276 0.104749 0)
(0.0331054 0.0517154 0)
(0.234358 -0.0794715 0)
(-0.0905056 -0.0753483 0)
(0.140283 0.0103666 0)
(0.0388119 0.00982594 0)
(0.0211553 -0.00378041 0)
(0.00995092 0.0993111 0)
(-0.0575199 -0.0357882 0)
(0.0313109 -0.0646701 0)
(-0.0631322 0.029745 0)
(0.00271935 -0.0200483 0)
(0.0107708 0.0139782 0)
(0.0185329 -0.00982544 0)
(0.200814 0.0312518 0)
(0.0241335 -0.0670737 0)
(0.040942 0.111683 0)
(0.166355 0.00144411 0)
(0.0270708 -0.0893766 0)
(-0.194437 -0.0682207 0)
(-0.101417 -0.0230288 0)
(0.17966 0.0506533 0)
(0.0614292 0.0742888 0)
(-0.145615 -0.010364 0)
(-0.0432628 -0.0681019 0)
(-0.0321419 -0.016662 0)
(0.0141146 -0.0815701 0)
(0.0932362 0.126035 0)
(0.00973599 0.0631508 0)
(-0.00123254 0.105385 0)
(0.0431431 0.160361 0)
(-0.0254337 -0.0752199 0)
(0.0454371 -0.0883229 0)
(-0.0445221 -0.0458603 0)
(-0.0858144 -0.17104 0)
(0.111644 -0.0561466 0)
(0.141615 0.219284 0)
(0.226399 0.12486 0)
(0.0321639 -0.117977 0)
(0.0729872 0.0141387 0)
(0.0286935 -0.144666 0)
(0.191347 -0.0153699 0)
(0.0318267 0.0652115 0)
(-0.0201377 -0.021305 0)
(0.0159752 0.0402175 0)
(0.0347943 0.00195677 0)
(-0.0177367 0.00893693 0)
(0.0601894 -0.0570277 0)
(-0.0221823 -0.0464908 0)
(0.114129 -0.0172327 0)
(-0.148943 -0.0466159 0)
(0.0206613 0.00110067 0)
(0.0659495 -0.0894991 0)
(0.00761087 -0.0415934 0)
(-0.0246566 -0.0359998 0)
(-0.111403 0.0830358 0)
(0.172497 0.0264107 0)
(0.160203 -0.136608 0)
(0.0984614 0.0675069 0)
(0.0279097 0.169614 0)
(0.12735 -0.0816391 0)
(0.132238 0.00802359 0)
(0.0424794 0.216714 0)
(0.190346 -0.0506404 0)
(0.103781 -0.196796 0)
(0.0639689 -0.0381292 0)
(0.131246 0.0921428 0)
(-0.0903688 0.215568 0)
(0.0543644 0.0552934 0)
(-0.000237774 -0.1823 0)
(-0.0972547 -0.124574 0)
(-0.0793411 0.0373146 0)
(0.0304787 0.0658943 0)
(0.0333202 0.0583839 0)
(-0.00270224 0.0310184 0)
(-0.0511058 0.132242 0)
(-0.0703423 -0.0927904 0)
(0.185766 -0.0285438 0)
(-0.116982 0.120416 0)
(-0.0179803 -0.0232736 0)
(0.260523 -0.103478 0)
(0.0882148 0.0724481 0)
(-0.017437 0.0100373 0)
(0.00361797 -0.0288091 0)
(0.00712599 0.093136 0)
(0.0134198 0.152454 0)
(0.031254 -0.0939677 0)
(0.166936 -0.241019 0)
(-0.110571 -0.000440025 0)
(-0.0191511 0.0284303 0)
(0.0326604 0.0017418 0)
(-0.0222308 0.0999564 0)
(0.173241 0.0214191 0)
(-0.172457 -0.135189 0)
(0.143801 -0.153753 0)
(-0.00271955 0.1778 0)
(0.125385 0.114163 0)
(0.0683044 -0.107322 0)
(-0.154979 -0.131412 0)
(-0.128026 0.115355 0)
(0.0631315 0.13731 0)
(0.0336921 -0.111767 0)
(0.0252117 -0.0801966 0)
(0.00732045 0.00833867 0)
(0.0852062 0.00323053 0)
(0.135302 -0.0278288 0)
(0.0277742 0.101816 0)
(-0.0402964 0.107503 0)
(0.0451006 -0.0308522 0)
(-0.0280787 -0.0408507 0)
(-0.0255874 0.00494757 0)
(0.000622944 -0.00375427 0)
(-0.00657967 -0.029321 0)
(0.00737278 0.0256281 0)
(0.00031504 -0.00640795 0)
(0.0593996 -0.0320609 0)
(0.0109994 0.0893249 0)
(-0.023421 0.0245276 0)
(0.00621566 -0.0366773 0)
(0.0259391 -0.0342331 0)
(-0.194852 -0.0146872 0)
(-0.0212469 -0.167953 0)
(-0.0102443 0.140298 0)
(0.0169879 0.212271 0)
(-0.0369774 -0.189562 0)
(-0.0528898 0.0235713 0)
(-0.0496625 0.1377 0)
(-0.110315 -0.042146 0)
(-0.098347 0.0312418 0)
(-0.0525737 -0.0668972 0)
(0.17374 0.129529 0)
(0.269892 0.151094 0)
(-0.188111 -0.07282 0)
(-0.00235338 -0.096632 0)
(-0.041324 -0.0933835 0)
(-0.0987164 -0.183245 0)
(0.0382315 -0.0494086 0)
(0.320516 0.218626 0)
(-0.0447732 0.137547 0)
(0.184771 -0.0435016 0)
(-0.117719 -0.182889 0)
(-0.053453 -0.0958498 0)
(0.038461 0.121499 0)
(0.00213866 0.0951966 0)
(0.0501431 -0.041045 0)
(-0.0184072 -0.0822164 0)
(-0.0261603 -0.00223505 0)
(0.159908 -0.0662085 0)
(0.149939 -0.040938 0)
(0.0581192 0.137354 0)
(0.0955319 0.0317336 0)
(-0.0139131 -0.168513 0)
(-0.0146154 -0.00298268 0)
(0.0862609 0.0547239 0)
(0.0948314 0.0306605 0)
(-0.0208995 -0.033484 0)
(0.0434428 -0.0876355 0)
(-0.016993 -0.105207 0)
(-0.0245715 0.213696 0)
(-0.03211 0.158706 0)
(0.10148 -0.124997 0)
(-0.0265814 -0.1305 0)
(0.107412 0.0422646 0)
(0.156009 -0.030447 0)
(-0.0280101 -0.156209 0)
(0.0236227 0.139243 0)
(-0.084853 0.186645 0)
(-0.0336097 0.0433737 0)
(-0.191933 -0.0244512 0)
(0.106733 -0.104107 0)
(-0.0239858 -0.03433 0)
(-0.00501773 0.0674519 0)
(0.0353342 0.0543157 0)
(0.0192196 -0.0261116 0)
(-0.0583346 -0.0125159 0)
(-0.00272419 0.0406984 0)
(0.120078 -0.0619061 0)
(-0.0989252 0.0741402 0)
(0.0858367 0.0662845 0)
(-0.0108353 -0.0664179 0)
(-0.0752446 -0.0358648 0)
(-0.0232249 -0.0253888 0)
(0.198485 -0.0456914 0)
(0.0874659 0.0454673 0)
(-0.034778 0.0927267 0)
(0.122651 -0.00992354 0)
(0.201821 -0.0982904 0)
(0.0180733 -0.121544 0)
(-0.0181338 0.107043 0)
(-0.0234004 0.0121944 0)
(0.0136004 -0.0752786 0)
(-0.0058581 0.0307701 0)
(0.0422609 0.0622222 0)
(0.0136204 -0.0383406 0)
(0.00431581 -0.208717 0)
(-0.0365987 0.115426 0)
(-0.0537711 0.104668 0)
(0.0301527 -0.0307234 0)
(0.0540955 0.0349718 0)
(-0.173151 -0.0113712 0)
(0.0796041 0.00889003 0)
(0.0127003 0.0245637 0)
(-0.00456308 -0.104921 0)
(0.045545 -0.133586 0)
(-0.0511299 -0.0178519 0)
(0.0109343 0.0447981 0)
(-0.0366098 0.122318 0)
(-0.0568616 0.150411 0)
(0.0313823 -0.0439819 0)
(0.0380967 -0.0556536 0)
(-0.0182382 0.00752786 0)
(0.00031153 0.0164742 0)
(0.0030476 -0.0169537 0)
(-0.0101299 -0.00829683 0)
(-0.0257228 -0.0516811 0)
(-0.0173649 0.0117882 0)
(0.00507403 0.114953 0)
(-0.0561172 -0.0616671 0)
(0.081036 -0.0567954 0)
(-0.0336066 0.0938851 0)
(-0.066256 0.0558463 0)
(-0.0861319 -0.109359 0)
(-0.0972006 -0.126813 0)
(-0.0720916 0.250597 0)
(0.107474 -0.0789328 0)
(0.0260844 -0.228264 0)
(0.00313222 0.0961253 0)
(0.145249 -0.0119358 0)
(0.111295 0.183672 0)
(-0.0705162 -0.170974 0)
(-0.0284173 0.00569926 0)
(0.0359159 0.318276 0)
(0.253705 -0.018127 0)
(0.194193 -0.0698955 0)
(-0.0741549 -0.10306 0)
(-0.0489632 -0.182311 0)
(0.0968075 0.0249848 0)
(0.00812492 0.162254 0)
(0.166208 0.111915 0)
(-0.0215212 -0.0346641 0)
(-0.12813 0.00246369 0)
(-0.032636 -0.0805156 0)
(0.0519028 -0.071143 0)
(0.047281 -0.00595131 0)
(-0.0205656 0.0363848 0)
(-0.0462323 0.0895697 0)
(-0.0582072 -0.0954633 0)
(0.0120079 -0.171164 0)
(0.0239821 0.00438192 0)
(-0.02857 0.114529 0)
(-0.0501687 -0.0202276 0)
(-0.107593 -0.0441431 0)
(-0.0828681 -0.00454752 0)
(0.00901076 0.000186572 0)
(0.0248696 -0.0464875 0)
(0.00678807 0.0225518 0)
(0.193801 -0.0609967 0)
(0.100849 -0.00199622 0)
(0.0770221 0.223728 0)
(-0.00628061 0.0570405 0)
(0.0497267 -0.0948861 0)
(0.014267 -0.0421496 0)
(-0.176154 0.0206413 0)
(-0.00939391 -0.0646861 0)
(0.0549967 -0.000252493 0)
(-0.0341972 -0.0202275 0)
(0.0030668 -0.0230553 0)
(0.0368676 0.278018 0)
(0.017474 0.054539 0)
(0.0120703 -0.272908 0)
(0.0207013 -0.080096 0)
(0.0500277 0.143854 0)
(0.0564582 -0.0032417 0)
(0.187722 0.0859174 0)
(-0.0478125 0.000593095 0)
(0.0812832 -0.159136 0)
(-0.0507347 0.0781275 0)
(0.00556187 0.0428937 0)
(0.169004 -0.0360809 0)
(0.0981538 0.00807047 0)
(0.0423569 0.0751667 0)
(0.153156 -0.103378 0)
(0.0757715 -0.0650952 0)
(0.0143272 0.0162656 0)
(-0.0551747 0.108735 0)
(0.135514 -0.0985961 0)
(-0.0589177 -0.0975192 0)
(0.074977 0.0722395 0)
(0.0441055 0.184174 0)
(0.00448673 -0.0173645 0)
(-0.0205953 0.0602376 0)
(-0.024791 -0.0511766 0)
(-0.0324 0.00227323 0)
(0.0518887 -0.0854803 0)
(-0.00010676 -0.0712267 0)
(0.0207998 0.0936926 0)
(-0.106661 0.0754066 0)
(0.0320516 -0.0768608 0)
(-0.0973744 0.0164716 0)
(-0.046582 0.0327972 0)
(-0.00627013 -0.143463 0)
(0.0391682 0.0170083 0)
(0.0851041 0.0077117 0)
(0.00486444 -0.111855 0)
(-0.058213 0.0531595 0)
(0.0420041 -0.034908 0)
(0.0600068 0.143644 0)
(-0.039154 0.164272 0)
(0.0572648 -0.180953 0)
(0.0264768 -0.0493456 0)
(0.0751527 0.0674074 0)
(0.00086773 -0.018657 0)
(0.00384741 0.0704154 0)
(0.00507591 -0.0805876 0)
(0.00609263 -0.0786211 0)
(0.00391548 0.0909531 0)
(-0.0242198 0.0491184 0)
(-0.000817449 0.0236432 0)
(-0.00640425 -0.0407043 0)
(-0.0003862 0.0162444 0)
(-9.92511e-06 0.0940886 0)
(-0.00564915 0.04881 0)
(-0.00731503 -0.157146 0)
(0.00484623 -0.0910557 0)
(0.0722778 0.050544 0)
(-0.0510482 0.047751 0)
(0.00306963 -0.114191 0)
(0.0160619 0.0921817 0)
(0.0223735 0.0886309 0)
(0.0262778 -0.0167228 0)
(-0.118307 -0.05332 0)
(0.0166271 -0.0347082 0)
(0.08361 0.0922746 0)
(0.0344253 0.0498095 0)
(0.321657 0.0672959 0)
(-0.0883352 -0.142094 0)
(-0.0718507 -0.196205 0)
(0.00449929 0.056011 0)
(-0.0156454 0.0980094 0)
(0.014892 -0.0186298 0)
(0.12387 0.11811 0)
(-0.035033 -0.0150245 0)
(0.0280037 -0.00266396 0)
(-0.0403556 -0.0844077 0)
(-0.0688125 0.011092 0)
(-0.01942 0.106094 0)
(0.136503 -0.0879752 0)
(0.100724 -0.193148 0)
(-0.0332578 0.124343 0)
(-0.0996405 0.10469 0)
(0.0818567 -0.0764592 0)
(0.0447257 -0.106886 0)
(0.100874 -0.00706193 0)
(-0.0443071 0.154592 0)
(0.00461638 -0.0176134 0)
(0.0228903 -0.128011 0)
(0.05934 -0.183625 0)
(0.073668 0.107621 0)
(0.165272 0.0661495 0)
(0.120569 0.0190071 0)
(-0.0552335 0.042556 0)
(0.00681336 0.0291472 0)
(-0.0227173 0.0158801 0)
(-0.038908 -0.0406851 0)
(0.0440841 0.0502669 0)
(0.00841578 -0.0294822 0)
(-0.0936385 -0.0803351 0)
(0.0428781 0.268613 0)
(0.0975283 0.0874216 0)
(0.0384071 -0.258685 0)
(0.0171499 -0.0626063 0)
(-0.0469443 0.0843009 0)
(0.0166737 -0.0146994 0)
(0.025515 0.0143774 0)
(-0.00852451 0.0133568 0)
(0.054774 -0.0755044 0)
(-0.0136378 0.0269948 0)
(0.159704 0.0780112 0)
(0.0958435 0.0116929 0)
(-0.0432231 0.113193 0)
(-0.00570659 0.00826138 0)
(0.00631795 -0.110575 0)
(0.196833 -0.0329958 0)
(-0.0210145 -0.0609703 0)
(-0.00485699 -0.0527538 0)
(0.0539604 0.0392585 0)
(-0.15103 0.12356 0)
(-0.0479788 0.052154 0)
(0.229228 -0.150066 0)
(0.0327272 -0.00922888 0)
(0.0794602 0.0833038 0)
(0.0658379 0.00993529 0)
(-0.0137037 -0.0198405 0)
(0.0205326 -0.122579 0)
(0.00853462 0.0154194 0)
(0.0393712 0.112981 0)
(0.00421669 0.0811883 0)
(-0.00981527 0.0723085 0)
(-0.0136655 -0.0903238 0)
(-0.0389715 0.0429138 0)
(-0.119418 -0.095582 0)
(-0.0116995 -0.0740987 0)
(0.0504449 0.0227196 0)
(0.0177204 -0.00712625 0)
(-0.0881293 -0.00565621 0)
(-0.0118483 0.0223071 0)
(-0.0559697 0.145092 0)
(0.127268 0.0151362 0)
(0.0438081 -0.108151 0)
(0.0017674 -0.0288715 0)
(0.00484857 0.0477147 0)
(0.000392117 0.0179178 0)
(0.00357298 0.00748149 0)
(-0.00641633 -0.0679243 0)
(-0.00053353 -0.000363065 0)
(0.00295173 0.0767807 0)
(-0.0001827 -0.0441308 0)
(0.0482072 0.0631517 0)
(-0.0917175 -0.0441037 0)
(0.000223356 0.0838998 0)
(-0.0129378 0.0409796 0)
(-0.00807288 -0.159716 0)
(0.012845 0.0172971 0)
(0.0486066 0.00611576 0)
(0.0354755 0.179921 0)
(0.0248591 0.070444 0)
(0.0173892 -0.274845 0)
(0.0126605 0.0257358 0)
(-0.00146798 0.0727874 0)
(0.0778728 0.00692155 0)
(-0.0436587 -0.0926734 0)
(-0.108837 0.0992412 0)
(-0.0944838 0.0485013 0)
(0.0875616 -0.0823432 0)
(-0.0654846 -0.0571684 0)
(-0.0210338 0.0516376 0)
(-0.00103323 -0.0345651 0)
(-0.0588754 -0.0470139 0)
(0.0204908 0.0687757 0)
(-0.100101 0.0276384 0)
(0.0495411 -0.0131341 0)
(0.0144328 -0.100204 0)
(0.184787 -0.0592969 0)
(0.150517 0.0512734 0)
(-0.124751 0.126517 0)
(-0.0979739 -0.0104691 0)
(-0.0343716 -0.149517 0)
(0.0337492 -0.0972645 0)
(-0.058442 0.0775602 0)
(-0.00508772 0.08342 0)
(0.142672 -0.19601 0)
(0.0161082 -0.0615575 0)
(0.00123056 0.0537089 0)
(0.0125194 0.0800027 0)
(0.0245873 0.0993585 0)
(-0.0630529 -0.106783 0)
(0.0451343 -0.26562 0)
(0.0464208 -0.0122319 0)
(0.0308703 0.0718493 0)
(-0.0021315 0.143234 0)
(0.0069754 0.0259438 0)
(-0.0575835 0.119888 0)
(-0.0472673 -0.0996332 0)
(0.0622147 -0.0374375 0)
(-0.0259917 0.00207511 0)
(-0.0389471 0.0181706 0)
(-0.0382202 0.198005 0)
(0.00717793 -0.072559 0)
(0.0260469 -0.00957746 0)
(0.0638322 0.00331469 0)
(0.00418807 -0.107277 0)
(0.00486009 -0.0536054 0)
(0.0387178 0.0876857 0)
(-0.0184859 -0.0714846 0)
(0.00396251 0.0717381 0)
(0.0433363 -0.0225846 0)
(0.0120226 -0.0471106 0)
(-0.0534121 0.173354 0)
(0.0453441 0.0415441 0)
(-0.0721688 -0.0270521 0)
(0.143584 -0.0984957 0)
(0.0149868 -0.175619 0)
(-0.0787401 0.00683761 0)
(-0.00725804 0.184077 0)
(-0.00973166 -0.0232155 0)
(0.012837 0.0489405 0)
(-0.0925637 -0.0359027 0)
(0.0641681 -0.0219705 0)
(0.0215483 0.00736546 0)
(-0.0655619 0.0913875 0)
(-0.0517142 0.0409731 0)
(-0.00335268 0.00331938 0)
(-0.0281214 0.0160829 0)
(0.0212845 -0.0917693 0)
(-0.11388 -0.0676061 0)
(0.00176762 0.0696476 0)