/*--------------------------------*- C++ -*----------------------------------*\
| =========                 |                                                 |
| \\      /  F ield         | OpenFOAM: The Open Source CFD Toolbox           |
|  \\    /   O peration     | Version:  v2012                                 |
|   \\  /    A nd           | Website:  www.openfoam.com                      |
|    \\/     M anipulation  |                                                 |
\*---------------------------------------------------------------------------*/
FoamFile
{
    version     2.0;
    format      ascii;
    class       volVectorField;
    location    "0";
    object      uRec;
}
// * * * * * * * * * * * * * * * * * * * * * * * * * * * * * * * * * * * * * //

dimensions      [0 1 -1 0 0 0 0];


internalField   nonuniform List<vector> 
4000
(
(1 1.8364e-16 0)
(1 4.50721e-15 0)
(1 1.26358e-15 0)
(1 -4.19664e-15 0)
(1 2.97227e-15 0)
(1 -8.09061e-16 0)
(1 2.40362e-15 0)
(1 -2.1987e-15 0)
(1 -1.69868e-15 0)
(1 4.95495e-15 0)
(1 -3.31046e-15 0)
(1 -9.60492e-16 0)
(1 1.31639e-15 0)
(1 1.35647e-16 0)
(1 -2.59761e-16 0)
(1 -2.07238e-15 0)
(1 -3.76504e-15 0)
(1 -4.0248e-15 0)
(1 2.05303e-18 0)
(1 -2.57548e-15 0)
(1 -7.21811e-16 0)
(1 3.05343e-15 0)
(1 2.93392e-15 0)
(1 4.56638e-15 0)
(1 1.45931e-15 0)
(1 -3.06402e-17 0)
(1 8.42003e-16 0)
(1 -2.8032e-15 0)
(1 -2.75357e-15 0)
(1 2.5352e-16 0)
(1 -8.54838e-16 0)
(1 2.31954e-15 0)
(1 -1.5627e-15 0)
(1 5.04496e-16 0)
(1 3.007e-15 0)
(1 -1.01894e-16 0)
(1 2.22697e-16 0)
(1 7.12341e-16 0)
(1 4.84887e-15 0)
(1 5.536e-16 0)
(1 2.03344e-15 0)
(1 -3.1472e-15 0)
(1 -1.41956e-15 0)
(1 -3.26685e-15 0)
(1 1.54968e-15 0)
(1 -2.28195e-15 0)
(1 4.46218e-16 0)
(1 7.38318e-16 0)
(1 -9.99944e-16 0)
(1 1.29657e-15 0)
(1 -1.12606e-15 0)
(1 1.68622e-15 0)
(1 7.95975e-17 0)
(1 1.52193e-15 0)
(1 7.74966e-16 0)
(1 -6.15797e-16 0)
(1 -2.09911e-15 0)
(1 -1.32292e-15 0)
(1 1.40637e-15 0)
(1 7.00211e-15 0)
(1 1.52961e-15 0)
(1 -1.81871e-15 0)
(1 -6.54051e-16 0)
(1 7.88013e-16 0)
(1 -9.48205e-16 0)
(1 -9.7017e-16 0)
(1 1.60206e-15 0)
(1 -7.1844e-16 0)
(1 2.28916e-15 0)
(1 -1.1514e-15 0)
(1 -1.13933e-15 0)
(1 -2.76525e-16 0)
(1 -2.30657e-16 0)
(1 -1.40169e-15 0)
(1 -5.89783e-16 0)
(1 -3.27334e-15 0)
(1 -6.15217e-16 0)
(1 -2.53556e-15 0)
(1 1.21019e-15 0)
(1 2.55518e-15 0)
(1 -2.75298e-17 0)
(1 2.29677e-15 0)
(1 -1.3445e-15 0)
(1 -6.89294e-16 0)
(1 -2.10006e-15 0)
(1 -1.15137e-15 0)
(1 -2.15359e-15 0)
(1 1.2218e-15 0)
(1 2.62132e-15 0)
(1 1.53054e-15 0)
(1 6.62337e-16 0)
(1 -1.68445e-15 0)
(1 1.51891e-16 0)
(1 1.80852e-15 0)
(1 -2.88016e-15 0)
(1 -3.85396e-15 0)
(1 -7.26473e-16 0)
(1 3.82075e-15 0)
(1 5.29646e-16 0)
(1 -6.08346e-16 0)
(1 -7.32313e-17 0)
(1 9.44305e-15 0)
(1 1.07682e-15 0)
(1 -6.45537e-15 0)
(1 9.13071e-16 0)
(1 1.62018e-16 0)
(1 2.05458e-15 0)
(1 -4.18578e-15 0)
(1 -8.09903e-16 0)
(1 1.8303e-15 0)
(1 -1.3126e-15 0)
(1 1.94992e-15 0)
(1 2.201e-15 0)
(1 -1.00172e-15 0)
(1 -1.64452e-15 0)
(1 -1.33217e-15 0)
(1 -3.12237e-15 0)
(1 -1.09514e-15 0)
(1 1.5442e-15 0)
(1 -2.6039e-15 0)
(1 -1.88885e-15 0)
(1 3.11938e-16 0)
(1 -3.12165e-16 0)
(1 3.1444e-15 0)
(1 -8.46912e-16 0)
(1 4.72221e-16 0)
(1 1.95747e-15 0)
(1 -3.33072e-15 0)
(1 -4.59657e-15 0)
(1 2.36944e-15 0)
(1 -2.10487e-15 0)
(1 4.01951e-15 0)
(1 -3.97637e-16 0)
(1 -1.75343e-15 0)
(1 1.70309e-15 0)
(1 -2.29762e-15 0)
(1 -4.79974e-17 0)
(1 3.58102e-15 0)
(1 5.25607e-15 0)
(1 1.19602e-15 0)
(1 -1.33643e-15 0)
(1 -2.71543e-15 0)
(1 -6.19501e-15 0)
(1 -5.60011e-15 0)
(1 -2.20917e-15 0)
(1 -4.1186e-15 0)
(1 2.81701e-15 0)
(1 3.69357e-15 0)
(1 3.18894e-15 0)
(1 1.24467e-15 0)
(1 -9.55365e-16 0)
(1 -5.53406e-16 0)
(1 5.83117e-15 0)
(1 2.47687e-15 0)
(1 2.32794e-15 0)
(1 -4.17264e-16 0)
(1 -2.71703e-15 0)
(1 2.14782e-15 0)
(1 -1.40252e-15 0)
(1 -3.35138e-15 0)
(1 -2.31607e-15 0)
(1 6.45501e-17 0)
(1 4.23287e-16 0)
(1 2.35945e-15 0)
(1 -7.96095e-16 0)
(1 1.88325e-15 0)
(1 -1.60534e-15 0)
(1 -2.55527e-15 0)
(1 1.59036e-15 0)
(1 -1.33814e-15 0)
(1 -1.99984e-15 0)
(1 8.59086e-16 0)
(1 2.17588e-15 0)
(1 -2.80765e-15 0)
(1 -6.44342e-16 0)
(1 2.12951e-16 0)
(1 7.11521e-17 0)
(1 2.07651e-15 0)
(1 1.03244e-15 0)
(1 3.73913e-15 0)
(1 -2.10718e-15 0)
(1 9.76263e-17 0)
(1 2.86465e-15 0)
(1 -2.46045e-15 0)
(1 2.78631e-16 0)
(1 -2.28764e-16 0)
(1 -4.35183e-15 0)
(1 -3.96638e-15 0)
(1 -6.2033e-16 0)
(1 1.42408e-15 0)
(1 -1.18718e-15 0)
(1 -4.23375e-15 0)
(1 3.05604e-15 0)
(1 1.98761e-15 0)
(1 -5.81306e-15 0)
(1 -4.67489e-15 0)
(1 1.07097e-15 0)
(1 4.90905e-15 0)
(1 3.64951e-16 0)
(1 -7.2e-16 0)
(1 1.01974e-15 0)
(1 3.57651e-15 0)
(1 3.56084e-16 0)
(1 -6.86291e-16 0)
(1 -1.77057e-15 0)
(1 1.09453e-15 0)
(1 1.10141e-15 0)
(1 5.34862e-15 0)
(1 -2.74589e-15 0)
(1 -2.93818e-15 0)
(1 -5.91679e-16 0)
(1 4.34653e-15 0)
(1 4.64214e-15 0)
(1 -1.90012e-15 0)
(1 -1.09179e-15 0)
(1 -4.17524e-15 0)
(1 -1.77821e-15 0)
(1 -1.8512e-15 0)
(1 1.4436e-16 0)
(1 4.11156e-15 0)
(1 -8.46474e-16 0)
(1 1.56891e-16 0)
(1 -1.55972e-16 0)
(1 2.56247e-15 0)
(1 2.30432e-15 0)
(1 4.02879e-15 0)
(1 1.57748e-15 0)
(1 -4.16897e-15 0)
(1 -4.05052e-15 0)
(1 5.04619e-17 0)
(1 2.19853e-15 0)
(1 -3.33058e-15 0)
(1 1.32106e-15 0)
(1 2.05877e-15 0)
(1 8.62055e-16 0)
(1 -5.63164e-16 0)
(1 -1.99919e-15 0)
(1 7.55627e-16 0)
(1 2.9209e-15 0)
(1 -2.79862e-16 0)
(1 -3.65371e-15 0)
(1 -8.01803e-16 0)
(1 -5.32209e-15 0)
(1 -6.5178e-15 0)
(1 -5.0547e-15 0)
(1 -1.22909e-15 0)
(1 -2.80463e-15 0)
(1 1.5198e-15 0)
(1 6.18313e-15 0)
(1 4.07691e-15 0)
(1 2.29537e-15 0)
(1 1.78973e-15 0)
(1 7.32441e-15 0)
(1 -4.88085e-16 0)
(1 1.09651e-15 0)
(1 -3.88603e-15 0)
(1 -9.11522e-16 0)
(1 5.75692e-16 0)
(1 1.21173e-15 0)
(1 -3.80738e-15 0)
(1 -1.99796e-15 0)
(1 -8.45075e-17 0)
(1 2.64294e-15 0)
(1 -1.89154e-15 0)
(1 -1.80428e-15 0)
(1 1.23679e-15 0)
(1 -1.38518e-15 0)
(1 1.10978e-15 0)
(1 1.41035e-15 0)
(1 1.41306e-15 0)
(1 1.35144e-15 0)
(1 2.86675e-15 0)
(1 1.91094e-15 0)
(1 -3.91261e-15 0)
(1 -3.7942e-15 0)
(1 -1.10975e-15 0)
(1 -1.39565e-15 0)
(1 9.4303e-16 0)
(1 2.31322e-15 0)
(1 -1.28864e-15 0)
(1 -4.24163e-15 0)
(1 -4.18281e-15 0)
(1 1.2882e-15 0)
(1 -1.26078e-15 0)
(1 -3.49341e-17 0)
(1 7.94932e-16 0)
(1 -3.31383e-15 0)
(1 -5.54022e-15 0)
(1 -2.84269e-15 0)
(1 1.09364e-15 0)
(1 -7.26414e-16 0)
(1 -1.93773e-15 0)
(1 -7.64295e-16 0)
(1 1.37194e-15 0)
(1 -2.02539e-15 0)
(1 -3.52944e-15 0)
(1 1.39359e-15 0)
(1 -1.36689e-15 0)
(1 5.68796e-17 0)
(1 7.19689e-16 0)
(1 8.6246e-16 0)
(1 2.46301e-15 0)
(1 3.52498e-15 0)
(1 -8.08142e-17 0)
(1 -1.77079e-15 0)
(1 -2.7969e-15 0)
(1 -7.75648e-16 0)
(1 7.32394e-15 0)
(1 1.04455e-15 0)
(1 -9.02087e-16 0)
(1 -1.115e-15 0)
(1 7.38167e-15 0)
(1 2.05635e-15 0)
(1 -5.09719e-15 0)
(1 3.02024e-15 0)
(1 -4.60077e-15 0)
(1 -1.87767e-15 0)
(1 -7.72001e-15 0)
(1 -6.50682e-15 0)
(1 7.13713e-15 0)
(1 -1.35187e-17 0)
(1 3.12165e-15 0)
(1 2.75406e-15 0)
(1 2.90273e-15 0)
(1 6.14954e-15 0)
(1 6.18682e-15 0)
(1 1.67023e-15 0)
(1 1.20967e-16 0)
(1 -4.17535e-15 0)
(1 1.09148e-15 0)
(1 -2.47937e-15 0)
(1 -3.49694e-15 0)
(1 -2.06566e-15 0)
(1 3.97226e-15 0)
(1 4.39418e-15 0)
(1 1.57926e-15 0)
(1 -8.58523e-16 0)
(1 -1.88714e-15 0)
(1 2.2524e-15 0)
(1 8.79852e-16 0)
(1 5.17955e-16 0)
(1 -3.449e-15 0)
(1 -4.96965e-15 0)
(1 -6.90301e-15 0)
(1 -3.38384e-15 0)
(1 5.49933e-16 0)
(1 -1.47516e-15 0)
(1 8.45096e-16 0)
(1 5.53235e-15 0)
(1 4.69542e-15 0)
(1 4.56192e-15 0)
(1 2.7228e-15 0)
(1 1.77415e-15 0)
(1 8.72521e-16 0)
(1 8.27898e-19 0)
(1 -3.43827e-15 0)
(1 -1.9548e-15 0)
(1 -3.13667e-16 0)
(1 1.40498e-15 0)
(1 3.91542e-15 0)
(1 -2.38627e-17 0)
(1 -1.15816e-15 0)
(1 -1.23375e-15 0)
(1 -5.45383e-16 0)
(1 -3.93436e-15 0)
(1 -1.18561e-15 0)
(1 -3.59472e-15 0)
(1 4.05446e-15 0)
(1 1.17635e-15 0)
(1 7.84896e-16 0)
(1 1.67425e-15 0)
(1 1.75548e-15 0)
(1 5.18228e-16 0)
(1 -2.34215e-15 0)
(1 -6.22037e-15 0)
(1 -3.85882e-15 0)
(1 9.00052e-16 0)
(1 2.62097e-16 0)
(1 3.808e-16 0)
(1 3.45502e-15 0)
(1 -3.11182e-15 0)
(1 -1.55279e-15 0)
(1 -6.42386e-16 0)
(1 -1.25147e-15 0)
(1 5.13489e-16 0)
(1 -1.38677e-15 0)
(1 -7.56523e-16 0)
(1 -2.69959e-15 0)
(1 -7.25967e-16 0)
(1 -1.18676e-16 0)
(1 -2.01249e-15 0)
(1 -7.87566e-16 0)
(1 -2.05866e-15 0)
(1 4.16009e-16 0)
(1 7.06468e-16 0)
(1 -1.8385e-15 0)
(1 -1.4359e-15 0)
(1 -2.9786e-15 0)
(1 -3.31046e-15 0)
(1 -1.239e-15 0)
(1 1.38554e-15 0)
(1 -3.24714e-16 0)
(1 2.06276e-15 0)
(1 -3.17507e-15 0)
(1 -1.36632e-15 0)
(1 1.25278e-16 0)
(1 -1.66646e-15 0)
(1 -1.17321e-15 0)
(1 7.47729e-15 0)
(1 4.03171e-15 0)
(1 4.46813e-15 0)
(1 4.01516e-15 0)
(1 -2.77961e-15 0)
(1 -9.24616e-15 0)
(1 -1.03654e-16 0)
(1 -8.00768e-17 0)
(1 3.70544e-15 0)
(1 2.90017e-15 0)
(1 -9.60898e-16 0)
(1 -2.89503e-15 0)
(1 -2.60804e-15 0)
(1 -5.81382e-15 0)
(1 4.58319e-15 0)
(1 8.09364e-15 0)
(1 4.88154e-15 0)
(1 1.42813e-15 0)
(1 -1.28476e-15 0)
(1 8.50458e-16 0)
(1 5.62076e-16 0)
(1 -3.01981e-15 0)
(1 9.59632e-16 0)
(1 2.24327e-15 0)
(1 -2.27279e-15 0)
(1 2.14316e-15 0)
(1 -3.34098e-15 0)
(1 -2.47328e-15 0)
(1 -2.99794e-15 0)
(1 -2.67517e-16 0)
(1 -1.98319e-16 0)
(1 1.14413e-15 0)
(1 -3.06096e-16 0)
(1 -1.43719e-15 0)
(1 -6.42048e-15 0)
(1 -1.72194e-15 0)
(1 -6.52725e-15 0)
(1 -1.25924e-15 0)
(1 3.66029e-15 0)
(1 6.01152e-15 0)
(1 4.0656e-15 0)
(1 -6.06457e-16 0)
(1 5.10115e-15 0)
(1 -1.64876e-17 0)
(1 -3.43381e-16 0)
(1 2.02685e-15 0)
(1 2.26562e-15 0)
(1 3.04906e-15 0)
(1 -8.03214e-16 0)
(1 2.19283e-16 0)
(1 -5.01956e-15 0)
(1 -7.13504e-15 0)
(1 1.15039e-16 0)
(1 1.26326e-16 0)
(1 7.99556e-16 0)
(1 2.93348e-16 0)
(1 6.68324e-16 0)
(1 -1.7498e-15 0)
(1 -3.81441e-15 0)
(1 1.73172e-15 0)
(1 4.69909e-16 0)
(1 2.56554e-15 0)
(1 1.975e-15 0)
(1 2.00122e-15 0)
(1 2.95616e-15 0)
(1 1.27203e-16 0)
(1 -3.48133e-15 0)
(1 -2.22088e-15 0)
(1 3.91836e-16 0)
(1 5.38284e-15 0)
(1 1.25073e-15 0)
(1 -1.32266e-16 0)
(1 -2.32782e-15 0)
(1 -3.19697e-16 0)
(1 -4.57922e-16 0)
(1 -2.38276e-15 0)
(1 6.77941e-16 0)
(1 -5.66576e-15 0)
(1 -1.18431e-15 0)
(1 -2.36797e-15 0)
(1 -4.13726e-15 0)
(1 -1.23321e-15 0)
(1 -2.50836e-15 0)
(1 -3.29685e-15 0)
(1 4.5763e-16 0)
(1 -1.63413e-15 0)
(1 1.16563e-15 0)
(1 -1.87256e-16 0)
(1 -1.75805e-15 0)
(1 -1.75044e-15 0)
(1 -5.45885e-15 0)
(1 -1.85243e-15 0)
(1 -7.70985e-16 0)
(1 -4.30847e-15 0)
(1 7.30035e-16 0)
(1 7.93425e-16 0)
(1 -2.67177e-16 0)
(1 5.10022e-16 0)
(1 1.01511e-15 0)
(1 6.34897e-16 0)
(1 2.84367e-15 0)
(1 4.94269e-15 0)
(1 8.66068e-15 0)
(1 2.06386e-15 0)
(1 -5.05808e-15 0)
(1 -3.15479e-16 0)
(1 -1.03818e-15 0)
(1 -2.35308e-15 0)
(1 -1.43746e-15 0)
(1 -2.82036e-15 0)
(1 1.166e-16 0)
(1 -2.65844e-15 0)
(1 1.45833e-15 0)
(1 -2.25567e-15 0)
(1 6.15896e-15 0)
(1 3.70031e-15 0)
(1 -2.03338e-15 0)
(1 3.20746e-15 0)
(1 8.76076e-16 0)
(1 -5.52118e-15 0)
(1 1.3504e-15 0)
(1 -2.62832e-15 0)
(1 5.44053e-16 0)
(1 -1.48468e-15 0)
(1 2.38773e-15 0)
(1 2.03799e-15 0)
(1 -5.70577e-15 0)
(1 2.57292e-15 0)
(1 4.08746e-15 0)
(1 4.17521e-15 0)
(1 -9.5471e-16 0)
(1 -4.65879e-15 0)
(1 -3.36227e-17 0)
(1 -2.18685e-15 0)
(1 -4.22547e-15 0)
(1 -3.31044e-15 0)
(1 -2.31946e-15 0)
(1 -1.72355e-16 0)
(1 -1.53728e-15 0)
(1 3.13907e-15 0)
(1 3.37861e-15 0)
(1 4.87874e-15 0)
(1 2.19538e-15 0)
(1 3.2791e-16 0)
(1 1.81551e-15 0)
(1 3.22471e-15 0)
(1 1.72402e-15 0)
(1 8.83276e-16 0)
(1 2.36473e-15 0)
(1 2.34755e-15 0)
(1 3.73989e-17 0)
(1 1.57741e-15 0)
(1 3.59984e-15 0)
(1 -3.35976e-15 0)
(1 -1.88638e-15 0)
(1 -3.46284e-15 0)
(1 6.97488e-16 0)
(1 -9.14936e-16 0)
(1 6.19427e-15 0)
(1 4.70261e-15 0)
(1 4.12157e-15 0)
(1 5.13807e-15 0)
(1 4.54276e-15 0)
(1 3.52046e-15 0)
(1 2.99801e-15 0)
(1 -1.36604e-15 0)
(1 -5.90762e-15 0)
(1 -5.3412e-15 0)
(1 -2.38464e-15 0)
(1 5.17151e-15 0)
(1 3.155e-15 0)
(1 -4.37366e-15 0)
(1 -3.46893e-15 0)
(1 1.13775e-15 0)
(1 -4.07048e-15 0)
(1 -3.76762e-16 0)
(1 -2.32807e-15 0)
(1 -5.26985e-15 0)
(1 -1.85665e-15 0)
(1 -4.96522e-15 0)
(1 -4.91708e-15 0)
(1 -1.84987e-15 0)
(1 -2.39486e-15 0)
(1 -2.75141e-15 0)
(1 1.25969e-15 0)
(1 2.47197e-15 0)
(1 4.87595e-15 0)
(1 2.77219e-15 0)
(1 6.07708e-16 0)
(1 -2.77122e-15 0)
(1 -7.32743e-16 0)
(1 1.36914e-15 0)
(1 -2.50052e-15 0)
(1 -1.56366e-15 0)
(1 4.76526e-15 0)
(1 -1.47507e-15 0)
(1 4.00096e-15 0)
(1 -3.69973e-15 0)
(1 -2.30054e-15 0)
(1 2.11528e-15 0)
(1 1.07478e-15 0)
(1 -5.94343e-17 0)
(1 5.40625e-15 0)
(1 -1.33338e-16 0)
(1 -5.69092e-16 0)
(1 5.47794e-15 0)
(1 -8.05096e-16 0)
(1 5.64352e-15 0)
(1 4.25764e-15 0)
(1 -3.19722e-15 0)
(1 3.80919e-16 0)
(1 9.88862e-16 0)
(1 4.2018e-15 0)
(1 -6.91683e-15 0)
(1 1.1791e-15 0)
(1 -9.58639e-16 0)
(1 -2.21412e-15 0)
(1 -5.32813e-16 0)
(1 -1.67928e-15 0)
(1 -3.16102e-15 0)
(1 7.56092e-16 0)
(1 5.30675e-15 0)
(1 -2.36355e-15 0)
(1 8.30043e-16 0)
(1 2.82164e-15 0)
(1 -4.64591e-16 0)
(1 -2.73586e-15 0)
(1 3.29631e-15 0)
(1 8.70887e-15 0)
(1 2.3897e-15 0)
(1 -5.00201e-15 0)
(1 -6.2035e-15 0)
(1 5.80522e-17 0)
(1 -5.45264e-15 0)
(1 1.68972e-15 0)
(1 -2.03426e-15 0)
(1 6.82961e-16 0)
(1 -1.05299e-15 0)
(1 -1.27393e-15 0)
(1 2.58401e-16 0)
(1 6.60991e-16 0)
(1 8.25105e-15 0)
(1 1.6558e-15 0)
(1 -1.51583e-15 0)
(1 1.14237e-15 0)
(1 5.3176e-15 0)
(1 2.28238e-15 0)
(1 -1.47721e-15 0)
(1 -2.20924e-15 0)
(1 7.3654e-16 0)
(1 1.95016e-15 0)
(1 3.49815e-15 0)
(1 -2.50929e-15 0)
(1 -1.84062e-15 0)
(1 -2.19449e-15 0)
(1 -4.95659e-16 0)
(1 -2.17086e-15 0)
(1 -3.12832e-15 0)
(1 -1.4608e-15 0)
(1 3.95828e-15 0)
(1 4.28183e-15 0)
(1 7.54705e-16 0)
(1 3.52227e-15 0)
(1 4.34866e-15 0)
(1 -5.82467e-17 0)
(1 -2.75867e-16 0)
(1 1.0363e-15 0)
(1 1.99294e-15 0)
(1 1.68085e-15 0)
(1 8.1e-16 0)
(1 1.45554e-15 0)
(1 -3.16154e-16 0)
(1 -3.44715e-16 0)
(1 -4.21925e-16 0)
(1 -1.84388e-15 0)
(1 -1.70778e-15 0)
(1 -2.35752e-15 0)
(1 -9.82962e-16 0)
(1 -2.32298e-15 0)
(1 -1.94e-15 0)
(1 1.58144e-16 0)
(1 -3.99833e-15 0)
(1 -3.59208e-15 0)
(1 6.89353e-16 0)
(1 1.29608e-15 0)
(1 2.92301e-15 0)
(1 1.66567e-15 0)
(1 4.7916e-15 0)
(1 -2.39886e-16 0)
(1 -1.38185e-15 0)
(1 2.26486e-15 0)
(1 1.49639e-15 0)
(1 -3.43678e-16 0)
(1 -2.38825e-15 0)
(1 1.81687e-15 0)
(1 -2.6847e-15 0)
(1 3.0736e-15 0)
(1 -4.45173e-16 0)
(1 -3.47237e-15 0)
(1 -5.52669e-16 0)
(1 3.42908e-15 0)
(1 7.05144e-15 0)
(1 6.21609e-16 0)
(1 -5.9928e-15 0)
(1 2.43998e-15 0)
(1 9.62984e-16 0)
(1 -1.32142e-15 0)
(1 6.62919e-15 0)
(1 5.06545e-16 0)
(1 9.61728e-15 0)
(1 7.28868e-15 0)
(1 -4.56495e-15 0)
(1 -6.00378e-15 0)
(1 -7.7592e-15 0)
(1 -7.93089e-15 0)
(1 -8.24401e-16 0)
(1 2.42742e-15 0)
(1 -5.56464e-15 0)
(1 -3.95304e-15 0)
(1 1.06749e-15 0)
(1 -9.94869e-16 0)
(1 6.74174e-16 0)
(1 7.40998e-15 0)
(1 1.81454e-15 0)
(1 -1.53536e-15 0)
(1 -2.34195e-15 0)
(1 4.28836e-16 0)
(1 -2.61602e-15 0)
(1 -2.61158e-15 0)
(1 -1.06768e-15 0)
(1 -1.48235e-15 0)
(1 5.23771e-15 0)
(1 -1.7938e-15 0)
(1 -2.30072e-15 0)
(1 4.1572e-15 0)
(1 8.53356e-16 0)
(1 -1.12405e-15 0)
(1 1.10282e-15 0)
(1 3.29393e-15 0)
(1 4.44181e-15 0)
(1 -1.73664e-15 0)
(1 5.22904e-16 0)
(1 5.19498e-15 0)
(1 3.03241e-15 0)
(1 -1.86664e-15 0)
(1 2.06289e-15 0)
(1 5.65508e-15 0)
(1 5.16621e-15 0)
(1 2.91815e-16 0)
(1 -6.1704e-15 0)
(1 5.54167e-15 0)
(1 -1.03608e-15 0)
(1 -6.3258e-15 0)
(1 -2.84035e-16 0)
(1 2.01355e-15 0)
(1 2.45182e-15 0)
(1 -1.97167e-15 0)
(1 1.77402e-15 0)
(1 3.44896e-15 0)
(1 -2.29734e-15 0)
(1 3.47395e-15 0)
(1 3.651e-15 0)
(1 7.02185e-15 0)
(1 6.00271e-15 0)
(1 2.08279e-15 0)
(1 2.5906e-16 0)
(1 1.36453e-15 0)
(1 5.49603e-15 0)
(1 3.42919e-15 0)
(1 -2.74423e-15 0)
(1 -2.36142e-15 0)
(1 -4.63456e-15 0)
(1 -2.56062e-16 0)
(1 -4.29997e-15 0)
(1 -2.17069e-15 0)
(1 5.9085e-16 0)
(1 -7.21709e-15 0)
(1 -2.64179e-15 0)
(1 -1.83449e-15 0)
(1 5.4819e-16 0)
(1 -1.05568e-16 0)
(1 -8.39675e-15 0)
(1 -6.16884e-15 0)
(1 4.3493e-16 0)
(1 -1.7336e-15 0)
(1 2.93139e-15 0)
(1 4.3829e-15 0)
(1 5.28975e-15 0)
(1 -1.40878e-15 0)
(1 -2.71972e-16 0)
(1 2.37002e-15 0)
(1 3.40894e-15 0)
(1 -5.65098e-16 0)
(1 7.9993e-16 0)
(1 -3.8192e-15 0)
(1 -1.95974e-15 0)
(1 -3.28416e-15 0)
(1 2.59985e-15 0)
(1 -1.39902e-15 0)
(1 -3.6892e-15 0)
(1 3.32032e-16 0)
(1 5.80677e-15 0)
(1 2.16488e-15 0)
(1 4.44743e-15 0)
(1 3.34162e-15 0)
(1 3.24386e-15 0)
(1 2.43675e-15 0)
(1 1.8123e-15 0)
(1 1.48742e-15 0)
(1 4.49723e-15 0)
(1 2.58045e-15 0)
(1 -4.15305e-15 0)
(1 -1.06165e-14 0)
(1 1.81396e-15 0)
(1 -5.81913e-15 0)
(1 -3.73909e-15 0)
(1 5.83583e-16 0)
(1 -3.53309e-15 0)
(1 -4.61506e-16 0)
(1 -5.85137e-15 0)
(1 -5.69819e-15 0)
(1 7.46915e-16 0)
(1 5.0686e-15 0)
(1 -6.00486e-16 0)
(1 1.10614e-15 0)
(1 9.71653e-16 0)
(1 6.12513e-16 0)
(1 1.8758e-17 0)
(1 -3.8425e-15 0)
(1 2.176e-15 0)
(1 9.21333e-16 0)
(1 4.41508e-15 0)
(1 -3.72476e-15 0)
(1 -4.26011e-16 0)
(1 1.71531e-15 0)
(1 -1.9229e-17 0)
(1 5.01891e-15 0)
(1 7.05159e-16 0)
(1 2.03476e-15 0)
(1 1.35548e-15 0)
(1 -3.0381e-15 0)
(1 -3.39341e-15 0)
(1 3.42207e-15 0)
(1 5.11416e-15 0)
(1 1.384e-15 0)
(1 3.63162e-15 0)
(1 7.05001e-15 0)
(1 5.18786e-15 0)
(1 4.90121e-15 0)
(1 -2.19603e-15 0)
(1 5.26025e-15 0)
(1 -2.04524e-15 0)
(1 -4.58618e-16 0)
(1 6.8285e-17 0)
(1 -5.43239e-15 0)
(1 -1.11079e-15 0)
(1 -6.18963e-15 0)
(1 5.65205e-16 0)
(1 8.98454e-15 0)
(1 1.25688e-16 0)
(1 8.81798e-15 0)
(1 9.58508e-15 0)
(1 9.82591e-15 0)
(1 3.30356e-15 0)
(1 4.13329e-15 0)
(1 1.31188e-15 0)
(1 -2.92696e-15 0)
(1 1.86846e-15 0)
(1 1.46878e-15 0)
(1 -9.85911e-16 0)
(1 -6.58364e-15 0)
(1 -1.16023e-16 0)
(1 1.84692e-15 0)
(1 2.61878e-15 0)
(1 -2.8113e-15 0)
(1 1.33215e-15 0)
(1 -6.19227e-15 0)
(1 -5.23869e-15 0)
(1 -6.38437e-15 0)
(1 -2.90059e-15 0)
(1 -3.51435e-15 0)
(1 -3.00481e-15 0)
(1 -2.69767e-15 0)
(1 -7.28109e-16 0)
(1 2.81285e-15 0)
(1 6.4739e-15 0)
(1 8.63746e-15 0)
(1 7.22223e-15 0)
(1 3.58707e-15 0)
(1 -6.39324e-16 0)
(1 6.72421e-15 0)
(1 8.38991e-15 0)
(1 1.29618e-16 0)
(1 7.75117e-16 0)
(1 -9.94918e-16 0)
(1 -7.38837e-16 0)
(1 -5.86278e-16 0)
(1 3.51977e-17 0)
(1 7.29541e-16 0)
(1 -2.52952e-16 0)
(1 1.1079e-15 0)
(1 2.29558e-15 0)
(1 1.46923e-16 0)
(1 8.71629e-15 0)
(1 4.80622e-15 0)
(1 -8.56206e-16 0)
(1 1.90421e-15 0)
(1 -4.14496e-16 0)
(1 -5.79511e-16 0)
(1 1.54921e-15 0)
(1 -4.40873e-16 0)
(1 8.11789e-17 0)
(1 -6.31587e-15 0)
(1 -2.91047e-15 0)
(1 -2.11857e-15 0)
(1 -3.06636e-15 0)
(1 5.75948e-16 0)
(1 1.57349e-15 0)
(1 -1.57371e-15 0)
(1 -7.99053e-15 0)
(1 -2.35598e-15 0)
(1 -2.0739e-15 0)
(1 -3.0959e-15 0)
(1 5.24101e-15 0)
(1 3.85256e-15 0)
(1 2.99212e-15 0)
(1 1.84453e-15 0)
(1 -6.19568e-16 0)
(1 -4.62148e-15 0)
(1 -4.79167e-15 0)
(1 -3.10859e-15 0)
(1 -1.94655e-15 0)
(1 -3.11554e-15 0)
(1 2.96651e-15 0)
(1 1.82848e-15 0)
(1 3.52781e-15 0)
(1 6.18575e-15 0)
(1 2.26818e-15 0)
(1 2.92265e-17 0)
(1 -1.18262e-15 0)
(1 1.86947e-15 0)
(1 3.03304e-15 0)
(1 9.89727e-16 0)
(1 -1.23441e-15 0)
(1 1.75664e-15 0)
(1 5.48413e-15 0)
(1 6.17523e-15 0)
(1 3.81485e-15 0)
(1 2.24399e-16 0)
(1 -7.75929e-16 0)
(1 -9.65795e-17 0)
(1 5.06259e-17 0)
(1 2.34033e-15 0)
(1 6.71971e-15 0)
(1 4.53947e-15 0)
(1 -9.79875e-16 0)
(1 2.93972e-15 0)
(1 -6.64066e-16 0)
(1 2.99647e-15 0)
(1 4.94929e-15 0)
(1 5.20566e-15 0)
(1 5.00324e-15 0)
(1 5.07529e-15 0)
(1 4.49523e-15 0)
(1 2.92845e-15 0)
(1 1.71224e-16 0)
(1 4.75859e-16 0)
(1 2.67617e-15 0)
(1 5.1054e-15 0)
(1 -1.471e-15 0)
(1 -2.92382e-15 0)
(1 -1.60013e-15 0)
(1 7.17806e-16 0)
(1 -9.21992e-16 0)
(1 -2.56129e-15 0)
(1 -2.22839e-15 0)
(1 -3.0846e-15 0)
(1 -6.82508e-15 0)
(1 -4.24152e-15 0)
(1 -3.13385e-15 0)
(1 -3.08571e-15 0)
(1 -2.87456e-15 0)
(1 3.9741e-15 0)
(1 -4.00395e-15 0)
(1 6.66022e-15 0)
(1 -1.00131e-15 0)
(1 8.04296e-15 0)
(1 5.59978e-15 0)
(1 1.41851e-15 0)
(1 5.58576e-15 0)
(1 1.02295e-14 0)
(1 8.78334e-15 0)
(1 3.35258e-16 0)
(1 -3.26617e-15 0)
(1 6.07166e-16 0)
(1 2.54749e-15 0)
(1 -1.64301e-15 0)
(1 -2.72187e-15 0)
(1 9.38719e-16 0)
(1 2.66839e-15 0)
(1 3.94251e-15 0)
(1 1.44939e-15 0)
(1 -4.38462e-15 0)
(1 3.3729e-15 0)
(1 1.42651e-16 0)
(1 2.93919e-15 0)
(1 7.7708e-16 0)
(1 -3.20778e-15 0)
(1 -4.46533e-15 0)
(1 -3.14168e-16 0)
(1 3.78523e-15 0)
(1 2.63959e-15 0)
(1 -4.11084e-15 0)
(1 -1.72317e-15 0)
(1 -5.63065e-15 0)
(1 -1.59157e-15 0)
(1 -7.54092e-15 0)
(1 4.25066e-15 0)
(1 6.22348e-15 0)
(1 1.73505e-15 0)
(1 2.5522e-15 0)
(1 -8.12007e-15 0)
(1 -7.55426e-15 0)
(1 -5.54051e-16 0)
(1 -4.27682e-16 0)
(1 -9.77763e-16 0)
(1 4.07367e-15 0)
(1 -6.54873e-16 0)
(1 -8.96783e-16 0)
(1 -9.06813e-15 0)
(1 -4.0761e-15 0)
(1 -2.5658e-15 0)
(1 5.41662e-15 0)
(1 4.15373e-15 0)
(1 -8.52471e-16 0)
(1 1.23774e-15 0)
(1 3.60242e-15 0)
(1 2.59845e-15 0)
(1 2.22971e-15 0)
(1 9.62919e-16 0)
(1 7.30364e-15 0)
(1 4.90491e-15 0)
(1 -1.11947e-15 0)
(1 -1.07575e-15 0)
(1 3.71486e-15 0)
(1 5.29725e-15 0)
(1 5.92771e-15 0)
(1 3.56658e-15 0)
(1 5.72762e-15 0)
(1 -7.3343e-16 0)
(1 5.05689e-15 0)
(1 1.51753e-15 0)
(1 2.63596e-15 0)
(1 -1.67889e-16 0)
(1 2.84586e-15 0)
(1 -1.04916e-15 0)
(1 4.56969e-15 0)
(1 7.80057e-15 0)
(1 1.14628e-15 0)
(1 4.69348e-15 0)
(1 5.69792e-17 0)
(1 7.49743e-16 0)
(1 4.21074e-15 0)
(1 3.90918e-15 0)
(1 1.49516e-15 0)
(1 9.61588e-16 0)
(1 -1.21655e-15 0)
(1 -4.10777e-15 0)
(1 4.21654e-15 0)
(1 3.18212e-15 0)
(1 -1.08785e-15 0)
(1 -4.84873e-15 0)
(1 -3.712e-16 0)
(1 -1.72333e-15 0)
(1 6.06307e-15 0)
(1 -2.89458e-15 0)
(1 -4.03349e-15 0)
(1 -4.40352e-15 0)
(1 -8.50428e-16 0)
(1 -4.07835e-15 0)
(1 -3.58703e-15 0)
(1 -6.20636e-15 0)
(1 2.65724e-15 0)
(1 -1.79139e-15 0)
(1 5.95745e-16 0)
(1 8.71128e-16 0)
(1 2.21247e-15 0)
(1 4.10421e-15 0)
(1 2.86802e-15 0)
(1 1.06751e-14 0)
(1 5.46915e-15 0)
(1 4.56749e-15 0)
(1 -6.04346e-16 0)
(1 -1.02816e-15 0)
(1 1.32885e-15 0)
(1 3.14272e-15 0)
(1 -3.4803e-15 0)
(1 -2.72033e-15 0)
(1 -5.26541e-15 0)
(1 1.48523e-15 0)
(1 2.3236e-15 0)
(1 3.48639e-15 0)
(1 4.23577e-15 0)
(1 -2.05386e-15 0)
(1 -6.90704e-15 0)
(1 3.43886e-16 0)
(1 1.67596e-15 0)
(1 2.1426e-15 0)
(1 3.57533e-15 0)
(1 -1.57911e-15 0)
(1 -5.10717e-17 0)
(1 7.37528e-16 0)
(1 -3.94362e-16 0)
(1 -6.12377e-16 0)
(1 -3.01907e-15 0)
(1 -4.17347e-15 0)
(1 -1.36654e-15 0)
(1 -4.67189e-15 0)
(1 2.61563e-15 0)
(1 2.86075e-15 0)
(1 2.23544e-15 0)
(1 -2.50742e-15 0)
(1 -7.85769e-16 0)
(1 1.20167e-15 0)
(1 -1.9764e-15 0)
(1 -4.51651e-15 0)
(1 -5.42849e-15 0)
(1 -2.9871e-15 0)
(1 4.66173e-15 0)
(1 -6.45385e-15 0)
(1 -3.24536e-15 0)
(1 -3.43556e-15 0)
(1 3.31902e-15 0)
(1 1.5668e-16 0)
(1 -4.59537e-15 0)
(1 -1.24999e-15 0)
(1 6.83746e-15 0)
(1 5.64177e-15 0)
(1 7.18106e-15 0)
(1 3.89535e-15 0)
(1 1.46098e-15 0)
(1 5.37775e-15 0)
(1 -1.07332e-15 0)
(1 1.89746e-15 0)
(1 2.90982e-15 0)
(1 4.88137e-15 0)
(1 6.09552e-15 0)
(1 -3.33622e-15 0)
(1 -3.50939e-16 0)
(1 2.60961e-15 0)
(1 5.38377e-15 0)
(1 3.0265e-15 0)
(1 5.23604e-15 0)
(1 3.05925e-16 0)
(1 3.23631e-15 0)
(1 5.16259e-15 0)
(1 -1.49408e-16 0)
(1 6.36882e-17 0)
(1 6.99674e-16 0)
(1 2.49559e-15 0)
(1 3.29802e-15 0)
(1 1.41199e-16 0)
(1 6.53842e-15 0)
(1 4.68293e-15 0)
(1 -2.02305e-15 0)
(1 2.29052e-15 0)
(1 3.90623e-15 0)
(1 -4.96706e-16 0)
(1 9.78748e-16 0)
(1 -3.78665e-15 0)
(1 -4.90315e-15 0)
(1 -2.00403e-15 0)
(1 3.64592e-15 0)
(1 2.04423e-15 0)
(1 2.25273e-15 0)
(1 -3.48708e-15 0)
(1 -4.24199e-15 0)
(1 -1.72356e-16 0)
(1 -4.32785e-15 0)
(1 -5.61491e-15 0)
(1 -4.77344e-15 0)
(1 4.35655e-15 0)
(1 1.66892e-15 0)
(1 3.58649e-15 0)
(1 -1.81415e-15 0)
(1 3.59216e-15 0)
(1 -1.42127e-15 0)
(1 4.35075e-15 0)
(1 7.3021e-15 0)
(1 6.85705e-15 0)
(1 3.05851e-15 0)
(1 2.39107e-15 0)
(1 2.21905e-15 0)
(1 -2.71205e-16 0)
(1 -7.83293e-16 0)
(1 1.48794e-15 0)
(1 1.08222e-15 0)
(1 7.15207e-16 0)
(1 1.30339e-15 0)
(1 1.44147e-15 0)
(1 -3.20185e-15 0)
(1 5.2823e-15 0)
(1 1.17543e-14 0)
(1 6.0481e-15 0)
(1 -4.57185e-15 0)
(1 -5.46145e-15 0)
(1 -4.29019e-15 0)
(1 -4.48053e-15 0)
(1 -4.05615e-15 0)
(1 -2.87093e-15 0)
(1 -4.5859e-16 0)
(1 -4.23305e-16 0)
(1 4.63969e-15 0)
(1 2.63367e-15 0)
(1 9.47954e-16 0)
(1 -1.26918e-14 0)
(1 7.83557e-15 0)
(1 -1.7619e-15 0)
(1 -9.75226e-15 0)
(1 -3.02723e-15 0)
(1 -4.42435e-15 0)
(1 3.16942e-15 0)
(1 -2.40617e-16 0)
(1 4.07649e-15 0)
(1 -2.76765e-15 0)
(1 -1.7777e-15 0)
(1 3.97689e-16 0)
(1 7.74206e-16 0)
(1 5.24026e-16 0)
(1 -3.55274e-15 0)
(1 -3.12466e-15 0)
(1 1.05129e-15 0)
(1 -2.67636e-15 0)
(1 6.29336e-16 0)
(1 -7.41577e-15 0)
(1 3.04979e-16 0)
(1 1.12387e-15 0)
(1 7.30612e-15 0)
(1 1.08772e-14 0)
(1 5.96305e-15 0)
(1 2.11371e-16 0)
(1 1.54109e-15 0)
(1 -3.73015e-16 0)
(1 1.6214e-15 0)
(1 6.45038e-15 0)
(1 7.6894e-15 0)
(1 3.17572e-15 0)
(1 3.81039e-15 0)
(1 -2.91871e-15 0)
(1 6.77501e-15 0)
(1 -3.69279e-15 0)
(1 5.75921e-16 0)
(1 -5.31209e-16 0)
(1 4.78943e-15 0)
(1 5.56357e-15 0)
(1 8.55257e-15 0)
(1 3.23402e-15 0)
(1 -4.84942e-16 0)
(1 3.09573e-15 0)
(1 1.89532e-15 0)
(1 -1.89282e-15 0)
(1 -2.62558e-16 0)
(1 -6.06971e-16 0)
(1 2.76425e-15 0)
(1 3.6847e-15 0)
(1 1.8627e-15 0)
(1 2.77148e-15 0)
(1 1.37243e-15 0)
(1 -2.5488e-15 0)
(1 -5.35719e-15 0)
(1 1.99927e-15 0)
(1 2.98684e-15 0)
(1 -2.12337e-15 0)
(1 -3.44786e-15 0)
(1 -3.49683e-15 0)
(1 -1.65217e-15 0)
(1 -2.19545e-15 0)
(1 2.74693e-15 0)
(1 -4.64085e-15 0)
(1 -1.26058e-15 0)
(1 -3.18343e-15 0)
(1 2.23887e-15 0)
(1 2.1317e-16 0)
(1 -1.08119e-15 0)
(1 7.73794e-16 0)
(1 -3.45666e-15 0)
(1 2.39926e-16 0)
(1 5.42836e-15 0)
(1 2.59869e-15 0)
(1 2.31243e-15 0)
(1 7.083e-16 0)
(1 1.01268e-15 0)
(1 5.09519e-16 0)
(1 9.07011e-16 0)
(1 -3.87757e-15 0)
(1 2.31454e-15 0)
(1 2.60903e-15 0)
(1 6.99579e-15 0)
(1 3.16926e-15 0)
(1 8.13812e-16 0)
(1 -5.61063e-15 0)
(1 -3.67074e-15 0)
(1 3.43096e-15 0)
(1 4.46612e-15 0)
(1 3.4282e-15 0)
(1 1.60122e-15 0)
(1 -5.11608e-15 0)
(1 -6.48496e-15 0)
(1 -8.32973e-15 0)
(1 -6.02481e-15 0)
(1 -3.26646e-15 0)
(1 -4.57867e-15 0)
(1 4.51189e-15 0)
(1 4.03961e-15 0)
(1 8.20781e-15 0)
(1 -3.34067e-15 0)
(1 -1.38871e-15 0)
(1 7.09205e-16 0)
(1 -4.64377e-15 0)
(1 -6.51702e-15 0)
(1 -6.82734e-16 0)
(1 2.9549e-15 0)
(1 1.81236e-15 0)
(1 -5.29192e-15 0)
(1 -2.39202e-15 0)
(1 3.91494e-16 0)
(1 -1.81413e-16 0)
(1 -4.11964e-15 0)
(1 -5.97556e-16 0)
(1 -4.37928e-15 0)
(1 1.4497e-15 0)
(1 -8.83521e-16 0)
(1 -2.90982e-16 0)
(1 -2.63185e-15 0)
(1 4.47402e-15 0)
(1 6.66033e-15 0)
(1 4.89984e-16 0)
(1 5.96098e-15 0)
(1 1.1096e-15 0)
(1 8.07163e-15 0)
(1 2.14006e-15 0)
(1 -1.87737e-15 0)
(1 -1.58688e-15 0)
(1 -4.16223e-15 0)
(1 3.75285e-15 0)
(1 6.85646e-15 0)
(1 -1.26614e-15 0)
(1 7.63348e-15 0)
(1 6.15021e-15 0)
(1 4.27898e-15 0)
(1 -8.80753e-16 0)
(1 -9.96324e-16 0)
(1 4.82718e-16 0)
(1 2.15309e-15 0)
(1 -8.77008e-16 0)
(1 2.75573e-15 0)
(1 6.83886e-15 0)
(1 5.64228e-15 0)
(1 2.6507e-15 0)
(1 5.26793e-15 0)
(1 -1.52345e-16 0)
(1 3.41002e-15 0)
(1 -1.40692e-16 0)
(1 3.77463e-15 0)
(1 6.16356e-15 0)
(1 2.55385e-15 0)
(1 7.88191e-17 0)
(1 1.10311e-15 0)
(1 -5.72774e-16 0)
(1 5.26175e-15 0)
(1 5.01769e-15 0)
(1 -1.21347e-15 0)
(1 -3.24224e-15 0)
(1 -1.7576e-15 0)
(1 -5.3564e-15 0)
(1 -9.76693e-16 0)
(1 -1.30546e-15 0)
(1 -2.02968e-15 0)
(1 -5.49782e-15 0)
(1 8.31468e-16 0)
(1 2.45268e-15 0)
(1 5.81755e-16 0)
(1 1.4796e-15 0)
(1 -2.09323e-15 0)
(1 -1.02526e-16 0)
(1 8.94545e-16 0)
(1 5.80631e-16 0)
(1 2.37618e-15 0)
(1 1.85349e-16 0)
(1 7.45587e-15 0)
(1 1.1341e-15 0)
(1 -3.47011e-15 0)
(1 -2.42382e-16 0)
(1 3.97517e-15 0)
(1 1.21647e-15 0)
(1 5.64184e-15 0)
(1 1.29464e-16 0)
(1 2.15366e-15 0)
(1 -3.30418e-15 0)
(1 -4.39328e-15 0)
(1 2.29162e-15 0)
(1 -1.57835e-15 0)
(1 2.88802e-15 0)
(1 9.51061e-16 0)
(1 4.11696e-15 0)
(1 -6.39017e-15 0)
(1 -7.51966e-15 0)
(1 -3.23268e-15 0)
(1 -1.41973e-14 0)
(1 2.72255e-15 0)
(1 8.92483e-16 0)
(1 5.31569e-17 0)
(1 3.86823e-15 0)
(1 -3.7834e-15 0)
(1 -1.11012e-15 0)
(1 1.25675e-14 0)
(1 1.9643e-15 0)
(1 4.24011e-16 0)
(1 -2.80138e-15 0)
(1 -2.01705e-15 0)
(1 -2.11389e-15 0)
(1 -3.9235e-15 0)
(1 -2.60457e-15 0)
(1 -1.59495e-15 0)
(1 -1.9209e-15 0)
(1 -4.573e-15 0)
(1 8.14732e-16 0)
(1 -2.15448e-15 0)
(1 -3.29342e-15 0)
(1 5.14746e-16 0)
(1 1.30388e-15 0)
(1 -1.8151e-15 0)
(1 -1.01519e-17 0)
(1 5.58671e-16 0)
(1 1.0491e-14 0)
(1 4.68246e-15 0)
(1 4.55397e-15 0)
(1 3.63638e-15 0)
(1 -5.27288e-15 0)
(1 4.13931e-15 0)
(1 -1.94164e-15 0)
(1 -5.56495e-15 0)
(1 -8.75624e-16 0)
(1 2.90573e-15 0)
(1 2.39086e-15 0)
(1 4.12359e-15 0)
(1 1.9379e-15 0)
(1 6.9515e-15 0)
(1 6.65466e-15 0)
(1 6.01886e-15 0)
(1 6.94382e-15 0)
(1 3.05533e-15 0)
(1 3.51881e-15 0)
(1 -2.36013e-15 0)
(1 1.62285e-15 0)
(1 1.63817e-15 0)
(1 8.033e-15 0)
(1 6.95523e-15 0)
(1 6.22254e-15 0)
(1 4.56671e-15 0)
(1 5.26104e-15 0)
(1 3.73214e-15 0)
(1 3.62723e-15 0)
(1 6.39982e-15 0)
(1 3.09542e-15 0)
(1 2.35211e-15 0)
(1 -1.51366e-15 0)
(1 3.22171e-15 0)
(1 9.7237e-16 0)
(1 5.72018e-15 0)
(1 1.42863e-15 0)
(1 -7.84551e-15 0)
(1 -5.18609e-17 0)
(1 2.98158e-16 0)
(1 -4.86243e-15 0)
(1 -1.48153e-15 0)
(1 -2.58139e-15 0)
(1 -8.01131e-15 0)
(1 -5.80194e-15 0)
(1 -1.58835e-15 0)
(1 -2.13173e-16 0)
(1 -2.12916e-15 0)
(1 4.33261e-16 0)
(1 -1.17284e-15 0)
(1 3.28805e-15 0)
(1 3.55058e-15 0)
(1 6.92598e-15 0)
(1 -5.30647e-16 0)
(1 -2.09922e-15 0)
(1 4.60202e-15 0)
(1 2.62103e-15 0)
(1 2.39093e-15 0)
(1 -5.94186e-16 0)
(1 1.96793e-15 0)
(1 9.93586e-16 0)
(1 7.13054e-16 0)
(1 1.81425e-15 0)
(1 3.94403e-15 0)
(1 2.77421e-15 0)
(1 3.22813e-16 0)
(1 2.0709e-15 0)
(1 2.16315e-15 0)
(1 -4.86976e-15 0)
(1 -4.75434e-15 0)
(1 3.31298e-17 0)
(1 -4.52532e-15 0)
(1 -4.04096e-16 0)
(1 -2.74629e-15 0)
(1 -7.5217e-15 0)
(1 -5.81968e-16 0)
(1 2.34774e-16 0)
(1 2.07924e-15 0)
(1 -1.51145e-15 0)
(1 1.42846e-15 0)
(1 -4.89503e-15 0)
(1 3.01937e-15 0)
(1 -3.84391e-15 0)
(1 2.22029e-17 0)
(1 -7.28987e-17 0)
(1 7.97851e-15 0)
(1 -5.87288e-15 0)
(1 -4.38527e-15 0)
(1 -3.30699e-15 0)
(1 -3.89542e-15 0)
(1 8.38446e-16 0)
(1 -3.69222e-15 0)
(1 3.30321e-15 0)
(1 1.94948e-16 0)
(1 -2.53664e-15 0)
(1 5.43996e-16 0)
(1 -2.59866e-15 0)
(1 -9.37493e-16 0)
(1 -1.5182e-15 0)
(1 8.4987e-15 0)
(1 5.606e-15 0)
(1 3.43126e-15 0)
(1 8.50303e-16 0)
(1 -5.33978e-15 0)
(1 5.30704e-15 0)
(1 9.57247e-18 0)
(1 3.82289e-16 0)
(1 -9.98724e-15 0)
(1 4.11275e-16 0)
(1 5.1414e-15 0)
(1 7.81647e-15 0)
(1 6.06042e-16 0)
(1 6.80347e-15 0)
(1 8.92249e-15 0)
(1 5.26785e-15 0)
(1 2.96416e-15 0)
(1 2.641e-15 0)
(1 -6.99052e-16 0)
(1 1.93015e-15 0)
(1 1.18483e-15 0)
(1 9.63408e-16 0)
(1 -3.46958e-15 0)
(1 3.41176e-15 0)
(1 5.90369e-15 0)
(1 7.03277e-15 0)
(1 5.34665e-15 0)
(1 5.58619e-15 0)
(1 2.99325e-15 0)
(1 3.28069e-15 0)
(1 -1.05058e-15 0)
(1 1.11378e-15 0)
(1 5.48774e-15 0)
(1 2.57629e-16 0)
(1 -9.77734e-16 0)
(1 -1.10168e-15 0)
(1 1.82839e-15 0)
(1 -3.88044e-17 0)
(1 2.24389e-15 0)
(1 -1.82911e-15 0)
(1 -4.74529e-15 0)
(1 2.17359e-15 0)
(1 -2.27455e-15 0)
(1 -4.06309e-15 0)
(1 -8.21176e-15 0)
(1 -4.34298e-15 0)
(1 -2.21745e-15 0)