/*--------------------------------*- C++ -*----------------------------------*\
| =========                 |                                                 |
| \\      /  F ield         | OpenFOAM: The Open Source CFD Toolbox           |
|  \\    /   O peration     | Version:  v2012                                 |
|   \\  /    A nd           | Website:  www.openfoam.com                      |
|    \\/     M anipulation  |                                                 |
\*---------------------------------------------------------------------------*/
FoamFile
{
    version     2.0;
    format      ascii;
    class       volScalarField;
    location    "0";
    object      p;
}
// * * * * * * * * * * * * * * * * * * * * * * * * * * * * * * * * * * * * * //

dimensions      [0 2 -2 0 0 0 0];


internalField   nonuniform List<scalar> 
4000
(
4.6245e-13
4.62048e-13
4.61193e-13
4.61368e-13
4.63346e-13
4.66936e-13
4.59543e-13
4.51012e-13
4.49019e-13
4.42597e-13
4.49666e-13
4.56802e-13
4.46156e-13
4.34706e-13
4.27964e-13
4.24413e-13
4.15291e-13
4.19924e-13
4.1183e-13
3.96799e-13
3.78566e-13
3.69431e-13
3.61384e-13
3.58374e-13
3.46296e-13
3.42569e-13
3.38021e-13
3.32293e-13
3.25351e-13
3.23469e-13
3.10821e-13
2.96178e-13
2.987e-13
2.95888e-13
2.82966e-13
2.82586e-13
2.69789e-13
2.62463e-13
2.47629e-13
2.36905e-13
2.31498e-13
2.30884e-13
2.26795e-13
2.1287e-13
2.04336e-13
1.93833e-13
1.80545e-13
1.71963e-13
1.73652e-13
1.6041e-13
1.55645e-13
1.46685e-13
1.36669e-13
1.3435e-13
1.27778e-13
1.20161e-13
1.10889e-13
1.12457e-13
1.12366e-13
1.20395e-13
1.14042e-13
1.08018e-13
1.0723e-13
1.00923e-13
1.02043e-13
1.00759e-13
9.38745e-14
9.15385e-14
8.7887e-14
8.65403e-14
8.87796e-14
9.28209e-14
9.18476e-14
9.1576e-14
9.30579e-14
9.38824e-14
9.30357e-14
9.1234e-14
8.80197e-14
8.66417e-14
7.71377e-14
7.50103e-14
7.54652e-14
7.47705e-14
6.80787e-14
6.70068e-14
5.58139e-14
5.25315e-14
5.17461e-14
5.89202e-14
5.63229e-14
5.04111e-14
4.20778e-14
3.64305e-14
3.88883e-14
2.83651e-14
2.10195e-14
1.5576e-14
4.02755e-15
3.94597e-15
4.58798e-13
4.61232e-13
4.63007e-13
4.62914e-13
4.65387e-13
4.61985e-13
4.5774e-13
4.54824e-13
4.52315e-13
4.43097e-13
4.44976e-13
4.50757e-13
4.4714e-13
4.4214e-13
4.2902e-13
4.23268e-13
4.18039e-13
4.17967e-13
4.07284e-13
3.98041e-13
3.82616e-13
3.69522e-13
3.6146e-13
3.5968e-13
3.44609e-13
3.44613e-13
3.37308e-13
3.33119e-13
3.20651e-13
3.21925e-13
3.15939e-13
3.01056e-13
2.94138e-13
2.90136e-13
2.80355e-13
2.79162e-13
2.73226e-13
2.64426e-13
2.55294e-13
2.4213e-13
2.33958e-13
2.26783e-13
2.17758e-13
2.14255e-13
2.04352e-13
1.95759e-13
1.79905e-13
1.70201e-13
1.66589e-13
1.62037e-13
1.56247e-13
1.4675e-13
1.41119e-13
1.33511e-13
1.28008e-13
1.21454e-13
1.10662e-13
1.09006e-13
1.15548e-13
1.15608e-13
1.15945e-13
1.09978e-13
1.08377e-13
1.00605e-13
1.00185e-13
1.0224e-13
9.15939e-14
9.04523e-14
8.8581e-14
8.61415e-14
9.42662e-14
9.24392e-14
9.398e-14
9.1286e-14
9.43062e-14
9.39859e-14
9.35893e-14
8.66659e-14
8.50848e-14
8.3889e-14
8.01072e-14
7.66519e-14
7.66325e-14
7.65366e-14
6.63311e-14
6.70697e-14
5.79229e-14
5.26476e-14
5.19218e-14
5.381e-14
5.4674e-14
5.19546e-14
4.70963e-14
4.06154e-14
3.86555e-14
2.43898e-14
2.10551e-14
1.24384e-14
6.56687e-15
4.29992e-15
4.61566e-13
4.61169e-13
4.61327e-13
4.6426e-13
4.66868e-13
4.63579e-13
4.59476e-13
4.57928e-13
4.47139e-13
4.45665e-13
4.45645e-13
4.47232e-13
4.46099e-13
4.3678e-13
4.28677e-13
4.23795e-13
4.15669e-13
4.15785e-13
4.08618e-13
3.99056e-13
3.85371e-13
3.71577e-13
3.63097e-13
3.61077e-13
3.49285e-13
3.4045e-13
3.38423e-13
3.33784e-13
3.21697e-13
3.20138e-13
3.14639e-13
3.04738e-13
2.94959e-13
2.91379e-13
2.82624e-13
2.824e-13
2.73573e-13
2.63913e-13
2.5278e-13
2.4233e-13
2.32447e-13
2.21271e-13
2.19316e-13
2.16841e-13
2.07222e-13
1.94576e-13
1.79018e-13
1.64346e-13
1.67081e-13
1.67278e-13
1.55704e-13
1.48582e-13
1.39633e-13
1.28475e-13
1.27765e-13
1.2195e-13
1.17174e-13
1.11331e-13
1.17166e-13
1.15325e-13
1.10529e-13
1.03627e-13
1.03772e-13
1.03273e-13
1.00975e-13
1.00034e-13
9.30512e-14
9.28285e-14
9.20326e-14
8.48312e-14
8.38906e-14
9.00752e-14
9.28491e-14
9.70214e-14
9.50781e-14
9.45221e-14
9.22354e-14
8.79878e-14
8.678e-14
8.03014e-14
8.62187e-14
8.20095e-14
6.97945e-14
6.99755e-14
6.9805e-14
6.68432e-14
6.22233e-14
5.74105e-14
5.42139e-14
5.04648e-14
5.38586e-14
4.9694e-14
4.4921e-14
4.45755e-14
3.80323e-14
2.63063e-14
2.43298e-14
1.50064e-14
8.42362e-15
4.20269e-15
4.60678e-13
4.63516e-13
4.58582e-13
4.61062e-13
4.69745e-13
4.58489e-13
4.60653e-13
4.56124e-13
4.52953e-13
4.4986e-13
4.42813e-13
4.41695e-13
4.42311e-13
4.41405e-13
4.34098e-13
4.26557e-13
4.16752e-13
4.11376e-13
4.04054e-13
3.98955e-13
3.90251e-13
3.73547e-13
3.64887e-13
3.59177e-13
3.4617e-13
3.37861e-13
3.37508e-13
3.3403e-13
3.25469e-13
3.20437e-13
3.17901e-13
3.09936e-13
2.98422e-13
2.85309e-13
2.73272e-13
2.83345e-13
2.75247e-13
2.60635e-13
2.52589e-13
2.41018e-13
2.35542e-13
2.27577e-13
2.20229e-13
2.08805e-13
2.02927e-13
1.9043e-13
1.78037e-13
1.72765e-13
1.68171e-13
1.62208e-13
1.51004e-13
1.45051e-13
1.38253e-13
1.3412e-13
1.30849e-13
1.24244e-13
1.18814e-13
1.12761e-13
1.15657e-13
1.12171e-13
1.0985e-13
1.07574e-13
1.03652e-13
1.05879e-13
1.01945e-13
9.64587e-14
9.27041e-14
9.47451e-14
9.34476e-14
8.95628e-14
9.13672e-14
9.40135e-14
9.44861e-14
9.42083e-14
9.59243e-14
9.43867e-14
9.23015e-14
9.02885e-14
8.68709e-14
8.07224e-14
7.86616e-14
8.1901e-14
7.20686e-14
6.78649e-14
6.7361e-14
6.35919e-14
6.30398e-14
6.0314e-14
5.13599e-14
4.94284e-14
5.47064e-14
4.93483e-14
4.78782e-14
4.06561e-14
3.90526e-14
3.09131e-14
2.77058e-14
1.82867e-14
1.20567e-14
2.48768e-15
4.65991e-13
4.66889e-13
4.60321e-13
4.58587e-13
4.60154e-13
4.5811e-13
4.60923e-13
4.5782e-13
4.54697e-13
4.50575e-13
4.4229e-13
4.41208e-13
4.45521e-13
4.41188e-13
4.37269e-13
4.23607e-13
4.16917e-13
4.22234e-13
4.04381e-13
3.92554e-13
3.83388e-13
3.73052e-13
3.62604e-13
3.60114e-13
3.5514e-13
3.45354e-13
3.41791e-13
3.32959e-13
3.26535e-13
3.21189e-13
3.16929e-13
3.11483e-13
3.00223e-13
2.84254e-13
2.77954e-13
2.80898e-13
2.68585e-13
2.58891e-13
2.49297e-13
2.41163e-13
2.33911e-13
2.29083e-13
2.1907e-13
2.05456e-13
1.99857e-13
1.87633e-13
1.83159e-13
1.70688e-13
1.66863e-13
1.5918e-13
1.53752e-13
1.47839e-13
1.43389e-13
1.36153e-13
1.30559e-13
1.20468e-13
1.21429e-13
1.19654e-13
1.11822e-13
1.07804e-13
1.11335e-13
1.06413e-13
1.02465e-13
1.04931e-13
1.01767e-13
1.04965e-13
1.01448e-13
9.02198e-14
8.9755e-14
9.13425e-14
8.75192e-14
9.51731e-14
9.47704e-14
9.4483e-14
9.01913e-14
9.08331e-14
9.26142e-14
9.38525e-14
8.43024e-14
8.09001e-14
8.08342e-14
8.11547e-14
6.93022e-14
6.55406e-14
6.52385e-14
6.08664e-14
6.33449e-14
6.18046e-14
5.41962e-14
5.16198e-14
4.78133e-14
4.92904e-14
4.82526e-14
4.40018e-14
4.23881e-14
3.26758e-14
2.90425e-14
1.93847e-14
1.19316e-14
-1.73548e-15
4.63072e-13
4.6996e-13
4.6251e-13
4.51051e-13
4.61486e-13
4.70585e-13
4.67394e-13
4.57491e-13
4.50831e-13
4.38132e-13
4.43187e-13
4.44562e-13
4.46756e-13
4.39639e-13
4.37703e-13
4.34283e-13
4.19115e-13
4.13499e-13
4.02823e-13
4.01215e-13
3.88549e-13
3.73596e-13
3.56372e-13
3.51653e-13
3.48459e-13
3.4753e-13
3.40972e-13
3.34998e-13
3.28715e-13
3.25243e-13
3.23222e-13
3.10077e-13
2.93079e-13
2.87378e-13
2.84434e-13
2.77942e-13
2.74523e-13
2.57466e-13
2.42476e-13
2.36191e-13
2.3201e-13
2.29654e-13
2.179e-13
2.07018e-13
2.02067e-13
1.82351e-13
1.77585e-13
1.72552e-13
1.65992e-13
1.58076e-13
1.52209e-13
1.44869e-13
1.40172e-13
1.39501e-13
1.26003e-13
1.21864e-13
1.22482e-13
1.18063e-13
1.13652e-13
1.07999e-13
1.14774e-13
1.10008e-13
1.09492e-13
1.05078e-13
1.01828e-13
1.01517e-13
1.07419e-13
9.05085e-14
9.26065e-14
9.70932e-14
8.95321e-14
9.28124e-14
9.38128e-14
9.54318e-14
9.18467e-14
9.60358e-14
9.54477e-14
8.67738e-14
7.50956e-14
8.22142e-14
8.29044e-14
8.08226e-14
6.87594e-14
6.48249e-14
6.35439e-14
6.5511e-14
6.25237e-14
5.73458e-14
5.48487e-14
5.2286e-14
4.69903e-14
4.82375e-14
4.5481e-14
4.07816e-14
4.02146e-14
3.66569e-14
2.27547e-14
1.52477e-14
7.57012e-15
2.17643e-16
4.68026e-13
4.67682e-13
4.63879e-13
4.60094e-13
4.60085e-13
4.70153e-13
4.65971e-13
4.54696e-13
4.50889e-13
4.35067e-13
4.42561e-13
4.47551e-13
4.44239e-13
4.41114e-13
4.37761e-13
4.35116e-13
4.25975e-13
4.20902e-13
4.00129e-13
3.92867e-13
3.74593e-13
3.72158e-13
3.7366e-13
3.70765e-13
3.55629e-13
3.50195e-13
3.42434e-13
3.32127e-13
3.3267e-13
3.30998e-13
3.26562e-13
3.11483e-13
2.9189e-13
2.82392e-13
2.82641e-13
2.773e-13
2.76119e-13
2.59257e-13
2.48063e-13
2.39165e-13
2.24832e-13
2.21599e-13
2.08862e-13
2.08603e-13
2.02615e-13
1.88516e-13
1.80213e-13
1.70683e-13
1.66146e-13
1.53193e-13
1.45245e-13
1.47216e-13
1.42181e-13
1.42523e-13
1.28521e-13
1.19453e-13
1.23019e-13
1.16384e-13
1.15869e-13
1.13039e-13
1.1344e-13
1.13815e-13
1.13298e-13
1.12107e-13
1.03414e-13
1.02825e-13
1.00663e-13
9.04411e-14
8.86917e-14
9.78708e-14
9.90022e-14
9.66628e-14
9.50379e-14
9.71372e-14
8.93878e-14
8.81149e-14
9.10752e-14
8.56158e-14
8.01804e-14
8.10654e-14
7.86439e-14
7.9544e-14
7.57669e-14
7.0024e-14
6.2679e-14
6.15927e-14
5.73914e-14
5.59042e-14
5.50829e-14
5.51098e-14
4.93273e-14
4.43295e-14
4.29523e-14
4.17436e-14
4.15947e-14
3.02042e-14
2.20126e-14
1.53891e-14
7.79221e-15
2.28135e-15
4.65423e-13
4.64055e-13
4.60802e-13
4.63334e-13
4.67537e-13
4.73534e-13
4.67274e-13
4.57139e-13
4.47184e-13
4.40419e-13
4.44098e-13
4.4723e-13
4.42083e-13
4.42592e-13
4.41165e-13
4.34115e-13
4.28806e-13
4.19293e-13
4.00443e-13
3.91566e-13
3.88542e-13
3.83362e-13
3.74694e-13
3.61613e-13
3.49849e-13
3.48322e-13
3.4344e-13
3.36117e-13
3.29166e-13
3.29888e-13
3.22918e-13
3.14544e-13
3.0057e-13
2.93336e-13
2.8487e-13
2.76116e-13
2.75431e-13
2.57414e-13
2.45078e-13
2.30887e-13
2.25769e-13
2.26158e-13
2.13387e-13
2.13058e-13
2.00074e-13
1.94322e-13
1.804e-13
1.68001e-13
1.59356e-13
1.50328e-13
1.54915e-13
1.52395e-13
1.39365e-13
1.347e-13
1.27289e-13
1.20668e-13
1.2294e-13
1.18288e-13
1.18704e-13
1.09914e-13
1.15636e-13
1.17284e-13
1.1631e-13
1.13589e-13
1.104e-13
1.09307e-13
1.02688e-13
9.23576e-14
9.20885e-14
9.53358e-14
1.01193e-13
9.91792e-14
9.23492e-14
9.06943e-14
8.66588e-14
8.68775e-14
9.00119e-14
8.74792e-14
8.06761e-14
8.3722e-14
8.14908e-14
8.03907e-14
7.55364e-14
6.56785e-14
5.87652e-14
6.26732e-14
5.81281e-14
5.49983e-14
5.35907e-14
5.76404e-14
4.66491e-14
4.10679e-14
4.44636e-14
4.32826e-14
3.76533e-14
2.39972e-14
2.06738e-14
1.51775e-14
6.36442e-15
-5.10156e-17
4.71306e-13
4.70944e-13
4.66375e-13
4.60954e-13
4.65292e-13
4.70978e-13
4.64887e-13
4.61664e-13
4.47585e-13
4.45314e-13
4.45339e-13
4.45281e-13
4.4015e-13
4.4267e-13
4.44311e-13
4.36288e-13
4.27351e-13
4.21259e-13
4.03289e-13
3.92546e-13
3.87227e-13
3.77186e-13
3.77794e-13
3.70933e-13
3.61035e-13
3.49432e-13
3.4497e-13
3.34612e-13
3.27396e-13
3.33564e-13
3.30482e-13
3.15373e-13
3.02513e-13
2.90582e-13
2.85528e-13
2.7578e-13
2.7179e-13
2.56264e-13
2.44707e-13
2.4114e-13
2.35126e-13
2.25226e-13
2.10109e-13
2.03145e-13
1.97129e-13
1.9136e-13
1.83511e-13
1.68153e-13
1.64953e-13
1.49216e-13
1.50457e-13
1.46451e-13
1.45287e-13
1.3573e-13
1.29579e-13
1.26617e-13
1.26919e-13
1.19815e-13
1.19889e-13
1.11513e-13
1.12499e-13
1.17855e-13
1.17757e-13
1.15687e-13
1.09294e-13
1.08891e-13
1.03431e-13
9.42071e-14
8.97546e-14
9.19672e-14
9.69283e-14
1.00564e-13
9.45e-14
9.58731e-14
8.98113e-14
8.72929e-14
8.6251e-14
8.646e-14
8.39173e-14
8.32245e-14
8.00069e-14
8.09344e-14
7.66003e-14
6.55395e-14
6.28063e-14
6.17783e-14
5.89521e-14
5.4349e-14
5.35064e-14
5.66981e-14
4.92909e-14
3.83972e-14
4.0112e-14
4.14944e-14
3.69895e-14
2.4855e-14
1.94198e-14
1.14276e-14
5.46511e-15
-2.05428e-15
4.73514e-13
4.72287e-13
4.71291e-13
4.66675e-13
4.6619e-13
4.69412e-13
4.66867e-13
4.60595e-13
4.55373e-13
4.42983e-13
4.46242e-13
4.4588e-13
4.41675e-13
4.49191e-13
4.48839e-13
4.35485e-13
4.27212e-13
4.22362e-13
4.12639e-13
3.94309e-13
3.82358e-13
3.69047e-13
3.71094e-13
3.6897e-13
3.66133e-13
3.5812e-13
3.51342e-13
3.36344e-13
3.27774e-13
3.30601e-13
3.28129e-13
3.17481e-13
3.06595e-13
2.91053e-13
2.79733e-13
2.74102e-13
2.74175e-13
2.5801e-13
2.4632e-13
2.41275e-13
2.37431e-13
2.23142e-13
2.0957e-13
2.02637e-13
1.98833e-13
1.92718e-13
1.86407e-13
1.72168e-13
1.62134e-13
1.49882e-13
1.49925e-13
1.47983e-13
1.45476e-13
1.3867e-13
1.28255e-13
1.27913e-13
1.24709e-13
1.21674e-13
1.21221e-13
1.18044e-13
1.1829e-13
1.23428e-13
1.21698e-13
1.18458e-13
1.09459e-13
1.0204e-13
9.51093e-14
9.37162e-14
9.27313e-14
9.61984e-14
1.00129e-13
1.01973e-13
9.42976e-14
9.62741e-14
9.02751e-14
8.63683e-14
8.71641e-14
8.5254e-14
8.14308e-14
8.18021e-14
7.77456e-14
8.00125e-14
8.02425e-14
6.73531e-14
6.07022e-14
6.25493e-14
5.76333e-14
5.40767e-14
5.39343e-14
5.74385e-14
4.47739e-14
3.45568e-14
3.64406e-14
4.10494e-14
2.39239e-14
1.71389e-14
2.38725e-14
1.12272e-14
7.6116e-15
-2.62499e-15
4.72516e-13
4.73357e-13
4.71801e-13
4.71976e-13
4.70032e-13
4.66781e-13
4.70304e-13
4.57915e-13
4.56213e-13
4.54443e-13
4.49598e-13
4.42834e-13
4.43763e-13
4.4431e-13
4.47296e-13
4.44144e-13
4.29965e-13
4.21976e-13
4.12411e-13
4.02699e-13
3.92475e-13
3.69111e-13
3.66441e-13
3.72532e-13
3.64241e-13
3.52822e-13
3.47547e-13
3.40024e-13
3.31276e-13
3.27917e-13
3.23732e-13
3.14097e-13
3.05379e-13
2.97506e-13
2.86657e-13
2.78248e-13
2.66082e-13
2.57281e-13
2.49119e-13
2.41946e-13
2.37936e-13
2.21842e-13
2.04205e-13
2.01025e-13
1.99803e-13
1.94919e-13
1.83778e-13
1.67884e-13
1.56701e-13
1.55988e-13
1.58434e-13
1.47201e-13
1.42371e-13
1.35904e-13
1.30277e-13
1.28432e-13
1.26755e-13
1.31354e-13
1.22574e-13
1.12684e-13
1.15987e-13
1.15682e-13
1.19055e-13
1.20329e-13
1.14705e-13
9.98625e-14
9.78086e-14
9.46331e-14
9.11137e-14
1.0114e-13
1.00116e-13
1.01991e-13
9.86189e-14
9.70033e-14
8.29557e-14
8.04607e-14
8.44251e-14
8.82554e-14
8.64507e-14
8.52156e-14
7.97175e-14
8.37839e-14
7.26576e-14
6.66655e-14
5.54125e-14
5.88736e-14
5.96643e-14
5.34904e-14
5.51437e-14
5.27614e-14
4.37806e-14
3.70771e-14
3.30303e-14
3.58213e-14
2.41987e-14
2.12299e-14
1.88134e-14
1.00625e-15
5.26996e-15
1.29736e-17
4.74934e-13
4.76628e-13
4.77331e-13
4.75818e-13
4.71563e-13
4.71575e-13
4.67704e-13
4.63507e-13
4.56992e-13
4.50781e-13
4.55461e-13
4.46215e-13
4.39496e-13
4.43482e-13
4.43944e-13
4.35738e-13
4.37545e-13
4.30043e-13
4.15685e-13
4.023e-13
3.90384e-13
3.80862e-13
3.76901e-13
3.71315e-13
3.62397e-13
3.55673e-13
3.45188e-13
3.41114e-13
3.31022e-13
3.29102e-13
3.30027e-13
3.18466e-13
2.98476e-13
2.92248e-13
2.83571e-13
2.78819e-13
2.69128e-13
2.65948e-13
2.55319e-13
2.44317e-13
2.35082e-13
2.17155e-13
2.049e-13
1.98235e-13
1.95421e-13
1.9245e-13
1.85566e-13
1.78766e-13
1.63887e-13
1.57091e-13
1.53274e-13
1.52319e-13
1.37034e-13
1.3662e-13
1.28173e-13
1.29985e-13
1.28311e-13
1.30386e-13
1.22916e-13
1.21587e-13
1.17627e-13
1.21859e-13
1.20101e-13
1.17665e-13
1.04786e-13
1.00245e-13
9.98334e-14
9.67023e-14
9.12708e-14
9.60908e-14
1.00276e-13
1.08567e-13
1.04845e-13
9.50195e-14
8.12844e-14
7.64497e-14
7.69031e-14
8.11679e-14
8.93365e-14
8.61341e-14
8.2158e-14
8.28397e-14
7.32802e-14
6.49883e-14
6.60049e-14
5.78789e-14
4.76039e-14
5.63376e-14
5.79174e-14
5.52427e-14
3.83173e-14
2.99456e-14
3.09135e-14
3.24336e-14
2.14063e-14
1.97126e-14
1.4716e-14
7.71658e-15
8.891e-16
-1.90763e-16
4.76432e-13
4.79249e-13
4.75147e-13
4.79082e-13
4.75915e-13
4.73259e-13
4.72865e-13
4.62558e-13
4.56791e-13
4.49298e-13
4.52639e-13
4.46426e-13
4.47129e-13
4.52925e-13
4.47336e-13
4.38823e-13
4.37195e-13
4.33709e-13
4.21679e-13
4.06261e-13
3.81596e-13
3.69878e-13
3.69011e-13
3.7045e-13
3.63064e-13
3.59676e-13
3.5064e-13
3.40282e-13
3.3482e-13
3.33011e-13
3.31401e-13
3.14305e-13
3.02733e-13
2.97209e-13
2.87426e-13
2.80143e-13
2.67059e-13
2.66912e-13
2.55174e-13
2.45002e-13
2.29419e-13
2.17892e-13
2.04323e-13
2.02356e-13
1.95196e-13
1.87956e-13
1.84695e-13
1.79191e-13
1.70299e-13
1.61509e-13
1.56414e-13
1.50207e-13
1.32706e-13
1.29497e-13
1.32283e-13
1.4065e-13
1.3307e-13
1.27416e-13
1.22127e-13
1.16586e-13
1.19526e-13
1.16799e-13
1.15743e-13
1.1166e-13
1.09816e-13
1.06693e-13
9.92119e-14
1.01042e-13
9.3364e-14
9.92703e-14
9.97189e-14
1.0763e-13
1.07187e-13
9.72998e-14
8.28838e-14
7.64148e-14
8.12784e-14
8.28732e-14
8.32087e-14
7.69491e-14
7.71438e-14
8.47995e-14
7.73469e-14
6.49166e-14
6.0548e-14
5.80685e-14
4.91265e-14
5.46245e-14
5.86495e-14
5.48757e-14
3.70381e-14
2.97219e-14
2.85939e-14
2.53555e-14
2.6908e-14
2.08691e-14
1.07582e-14
2.81325e-15
9.77795e-16
-1.18738e-15
4.76398e-13
4.87583e-13
4.83118e-13
4.77961e-13
4.78517e-13
4.70366e-13
4.70969e-13
4.67193e-13
4.5706e-13
4.47157e-13
4.51808e-13
4.49404e-13
4.53445e-13
4.49151e-13
4.45122e-13
4.35299e-13
4.30213e-13
4.25301e-13
4.20311e-13
4.102e-13
4.07263e-13
3.92496e-13
3.80402e-13
3.63105e-13
3.50611e-13
3.50658e-13
3.4893e-13
3.40237e-13
3.34202e-13
3.33995e-13
3.32868e-13
3.18601e-13
3.02023e-13
2.96451e-13
2.83455e-13
2.80539e-13
2.74151e-13
2.67096e-13
2.53042e-13
2.47977e-13
2.34388e-13
2.20728e-13
2.02865e-13
1.9496e-13
1.93898e-13
1.89682e-13
1.80752e-13
1.81455e-13
1.759e-13
1.68976e-13
1.57656e-13
1.42247e-13
1.3369e-13
1.33743e-13
1.34533e-13
1.41589e-13
1.38211e-13
1.35166e-13
1.25119e-13
1.18593e-13
1.19388e-13
1.11621e-13
1.10229e-13
1.14606e-13
1.13992e-13
1.07202e-13
1.05293e-13
1.02314e-13
9.86995e-14
1.03612e-13
1.05359e-13
1.03362e-13
9.97592e-14
9.51035e-14
8.95171e-14
7.79581e-14
7.71806e-14
7.52508e-14
7.75431e-14
7.75102e-14
7.90983e-14
8.44556e-14
7.37308e-14
6.40717e-14
5.97336e-14
5.61534e-14
5.22953e-14
5.60586e-14
5.91991e-14
4.55848e-14
4.20041e-14
3.55157e-14
2.98893e-14
2.51213e-14
1.89451e-14
1.8568e-14
1.12202e-14
5.80234e-15
2.4275e-15
-7.74818e-16
4.7803e-13
4.8461e-13
4.87522e-13
4.78706e-13
4.79161e-13
4.7762e-13
4.65471e-13
4.57406e-13
4.55928e-13
4.57698e-13
4.5751e-13
4.54723e-13
4.55218e-13
4.50495e-13
4.42142e-13
4.37571e-13
4.37983e-13
4.3052e-13
4.21455e-13
4.07144e-13
3.86171e-13
3.75676e-13
3.69151e-13
3.59561e-13
3.63393e-13
3.61536e-13
3.55739e-13
3.4525e-13
3.3398e-13
3.29359e-13
3.32228e-13
3.21941e-13
3.07865e-13
2.95149e-13
2.76914e-13
2.82138e-13
2.7849e-13
2.67911e-13
2.59712e-13
2.47862e-13
2.32564e-13
2.16327e-13
2.03629e-13
1.99378e-13
1.96839e-13
1.90596e-13
1.89251e-13
1.81302e-13
1.73471e-13
1.6677e-13
1.56424e-13
1.42204e-13
1.35113e-13
1.28397e-13
1.37239e-13
1.40764e-13
1.40082e-13
1.41743e-13
1.24527e-13
1.13333e-13
1.22933e-13
1.15549e-13
1.16096e-13
1.10449e-13
1.11308e-13
1.01661e-13
1.03302e-13
1.04004e-13
1.04126e-13
1.05227e-13
1.06188e-13
1.02709e-13
1.0248e-13
9.53988e-14
8.41402e-14
7.32441e-14
7.6961e-14
8.02111e-14
7.93321e-14
7.69053e-14
8.40531e-14
8.77616e-14
7.84538e-14
5.98836e-14
5.42921e-14
5.09573e-14
5.01187e-14
5.58535e-14
5.63642e-14
4.95441e-14
4.39917e-14
3.49331e-14
3.10296e-14
2.22463e-14
1.8585e-14
1.54758e-14
1.41728e-14
1.65472e-15
3.61747e-15
9.29641e-16
4.79958e-13
4.88696e-13
4.86387e-13
4.76251e-13
4.79402e-13
4.86224e-13
4.77473e-13
4.63999e-13
4.48803e-13
4.49113e-13
4.55272e-13
4.55621e-13
4.54198e-13
4.51942e-13
4.44306e-13
4.37595e-13
4.38163e-13
4.32683e-13
4.19254e-13
4.06125e-13
3.96727e-13
3.84688e-13
3.66588e-13
3.50524e-13
3.59517e-13
3.62976e-13
3.5505e-13
3.4964e-13
3.4347e-13
3.31629e-13
3.30639e-13
3.22786e-13
3.07824e-13
2.9047e-13
2.79401e-13
2.8364e-13
2.73899e-13
2.7045e-13
2.55691e-13
2.45695e-13
2.34765e-13
2.15849e-13
2.08126e-13
2.00332e-13
1.9712e-13
1.88495e-13
1.90621e-13
1.84101e-13
1.76397e-13
1.60523e-13
1.50742e-13
1.45024e-13
1.38247e-13
1.31318e-13
1.42231e-13
1.45564e-13
1.38294e-13
1.39074e-13
1.30068e-13
1.24505e-13
1.20406e-13
1.12691e-13
1.13177e-13
1.11254e-13
1.07443e-13
1.05051e-13
9.80016e-14
1.00593e-13
1.01555e-13
1.10239e-13
1.05673e-13
1.03933e-13
1.04984e-13
9.54975e-14
8.2563e-14
7.26494e-14
7.69741e-14
8.0674e-14
7.75864e-14
7.91323e-14
8.636e-14
8.29803e-14
7.88174e-14
6.32201e-14
5.34959e-14
4.93999e-14
4.92056e-14
5.42101e-14
4.9918e-14
4.61923e-14
4.13765e-14
3.84132e-14
2.82517e-14
2.30172e-14
2.19161e-14
1.90279e-14
1.44852e-14
5.69448e-15
5.0659e-16
2.17924e-15
4.88753e-13
4.86353e-13
4.79051e-13
4.76287e-13
4.76628e-13
4.75661e-13
4.68929e-13
4.73691e-13
4.65933e-13
4.58336e-13
4.59962e-13
4.55687e-13
4.51775e-13
4.51258e-13
4.40421e-13
4.38543e-13
4.3376e-13
4.34308e-13
4.22455e-13
4.05587e-13
3.88231e-13
3.71592e-13
3.71591e-13
3.6406e-13
3.58166e-13
3.63136e-13
3.60331e-13
3.45225e-13
3.36307e-13
3.2526e-13
3.27077e-13
3.23989e-13
3.02151e-13
2.90828e-13
2.84459e-13
2.85947e-13
2.81407e-13
2.6915e-13
2.57962e-13
2.40644e-13
2.31699e-13
2.18373e-13
2.07654e-13
2.03276e-13
2.01956e-13
1.9428e-13
1.87464e-13
1.78634e-13
1.74834e-13
1.60278e-13
1.52377e-13
1.46226e-13
1.41407e-13
1.36787e-13
1.39763e-13
1.44953e-13
1.36709e-13
1.40027e-13
1.33232e-13
1.28268e-13
1.19503e-13
1.16286e-13
1.17876e-13
1.13672e-13
1.10754e-13
1.07001e-13
9.65313e-14
9.55445e-14
1.01439e-13
1.11705e-13
1.03366e-13
1.02166e-13
9.90564e-14
9.64723e-14
9.23428e-14
7.72058e-14
7.1318e-14
7.31241e-14
7.88105e-14
8.31849e-14
9.02076e-14
8.39961e-14
7.42614e-14
5.82967e-14
5.22565e-14
5.43509e-14
5.15327e-14
5.00256e-14
4.91078e-14
4.54012e-14
3.89047e-14
3.71647e-14
2.7779e-14
2.65228e-14
2.03003e-14
1.77441e-14
1.23248e-14
8.98131e-15
7.22734e-15
-1.04469e-15
4.87238e-13
4.84656e-13
4.83347e-13
4.80681e-13
4.85239e-13
4.84444e-13
4.72225e-13
4.61052e-13
4.55639e-13
4.58236e-13
4.61577e-13
4.62458e-13
4.53612e-13
4.42135e-13
4.29774e-13
4.33845e-13
4.37192e-13
4.30273e-13
4.24454e-13
4.08135e-13
3.95987e-13
3.70746e-13
3.66548e-13
3.62895e-13
3.60912e-13
3.59294e-13
3.55308e-13
3.46395e-13
3.39185e-13
3.30444e-13
3.28164e-13
3.21417e-13
3.04892e-13
2.91399e-13
2.77188e-13
2.84023e-13
2.74366e-13
2.68746e-13
2.5634e-13
2.46881e-13
2.37166e-13
2.18634e-13
2.01131e-13
2.00193e-13
2.04224e-13
1.97066e-13
1.90839e-13
1.72475e-13
1.73698e-13
1.64329e-13
1.51184e-13
1.44587e-13
1.46791e-13
1.38562e-13
1.42067e-13
1.45449e-13
1.39583e-13
1.36274e-13
1.34016e-13
1.26038e-13
1.19872e-13
1.22179e-13
1.2068e-13
1.18253e-13
1.09225e-13
1.02701e-13
9.40915e-14
9.82252e-14
1.01588e-13
9.79798e-14
9.71145e-14
1.02476e-13
1.04163e-13
9.74223e-14
8.99485e-14
8.28506e-14
7.81824e-14
7.78336e-14
7.96387e-14
8.17657e-14
8.76863e-14
8.20576e-14
7.52025e-14
6.57316e-14
5.20063e-14
4.58359e-14
4.52561e-14
5.23183e-14
5.1998e-14
4.23156e-14
3.84159e-14
3.29934e-14
3.17523e-14
2.69072e-14
2.32418e-14
1.57532e-14
1.31373e-14
7.50963e-15
5.31145e-15
-2.15325e-15
4.79383e-13
4.87808e-13
4.85501e-13
4.80928e-13
4.83312e-13
4.77062e-13
4.74151e-13
4.70784e-13
4.61083e-13
4.62847e-13
4.58594e-13
4.53597e-13
4.52818e-13
4.44388e-13
4.37244e-13
4.31259e-13
4.35091e-13
4.29691e-13
4.17145e-13
4.07179e-13
3.90095e-13
3.72855e-13
3.71663e-13
3.67052e-13
3.57776e-13
3.52644e-13
3.57024e-13
3.46753e-13
3.3978e-13
3.2759e-13
3.2187e-13
3.1759e-13
3.01464e-13
2.91083e-13
2.79895e-13
2.85389e-13
2.83189e-13
2.68374e-13
2.53426e-13
2.39365e-13
2.33671e-13
2.20169e-13
2.1298e-13
2.06818e-13
2.03492e-13
1.91412e-13
1.8993e-13
1.83069e-13
1.7115e-13
1.58092e-13
1.5144e-13
1.44434e-13
1.44581e-13
1.44664e-13
1.44658e-13
1.44922e-13
1.4102e-13
1.35558e-13
1.3351e-13
1.27023e-13
1.29577e-13
1.20822e-13
1.1602e-13
1.15873e-13
1.03783e-13
1.04734e-13
9.69853e-14
9.73004e-14
9.66355e-14
9.60323e-14
9.7338e-14
1.03322e-13
1.00789e-13
9.87834e-14
9.18966e-14
8.335e-14
8.28071e-14
7.84068e-14
7.31384e-14
7.19722e-14
8.83074e-14
9.09739e-14
7.35724e-14
6.03433e-14
5.37503e-14
5.46362e-14
5.43703e-14
5.09086e-14
4.14012e-14
4.35551e-14
3.7705e-14
3.7503e-14
3.10166e-14
2.55025e-14
2.2352e-14
1.73731e-14
1.00945e-14
7.59903e-15
3.02108e-15
1.96273e-15
4.86308e-13
4.86173e-13
4.91976e-13
4.83678e-13
4.78058e-13
4.73371e-13
4.76803e-13
4.76164e-13
4.67537e-13
4.63202e-13
4.53531e-13
4.55096e-13
4.50781e-13
4.48051e-13
4.41474e-13
4.294e-13
4.28732e-13
4.19754e-13
4.16501e-13
4.10093e-13
3.93835e-13
3.77278e-13
3.69547e-13
3.63752e-13
3.57011e-13
3.50626e-13
3.5491e-13
3.44887e-13
3.39466e-13
3.25915e-13
3.20734e-13
3.12513e-13
3.01887e-13
2.93691e-13
2.82005e-13
2.79509e-13
2.76985e-13
2.65122e-13
2.50489e-13
2.37765e-13
2.26573e-13
2.17684e-13
2.2528e-13
2.12396e-13
2.03755e-13
1.98887e-13
1.91516e-13
1.74984e-13
1.70776e-13
1.63175e-13
1.52202e-13
1.45631e-13
1.45855e-13
1.42345e-13
1.38206e-13
1.38601e-13
1.44454e-13
1.39601e-13
1.33905e-13
1.27859e-13
1.2617e-13
1.18267e-13
1.17108e-13
1.15934e-13
1.08675e-13
1.10869e-13
9.6936e-14
9.35267e-14
1.00388e-13
9.56068e-14
9.56917e-14
9.84133e-14
9.74223e-14
9.25093e-14
9.27194e-14
8.94517e-14
8.45094e-14
7.74298e-14
7.72924e-14
7.97525e-14
8.10518e-14
8.63235e-14
7.85922e-14
7.06626e-14
6.29969e-14
4.66962e-14
4.88858e-14
5.10197e-14
4.40103e-14
4.45356e-14
3.65603e-14
3.31224e-14
3.34569e-14
3.0213e-14
2.23392e-14
1.68927e-14
1.01444e-14
3.76396e-15
6.37453e-15
3.7568e-15
4.89435e-13
4.87984e-13
4.85425e-13
4.83524e-13
4.7839e-13
4.76037e-13
4.74143e-13
4.7644e-13
4.74252e-13
4.61806e-13
4.54886e-13
4.5817e-13
4.53664e-13
4.48217e-13
4.40074e-13
4.332e-13
4.27356e-13
4.23069e-13
4.12694e-13
4.00279e-13
3.90641e-13
3.7673e-13
3.64952e-13
3.58079e-13
3.54108e-13
3.56155e-13
3.53018e-13
3.42371e-13
3.40214e-13
3.29501e-13
3.22831e-13
3.13013e-13
3.01214e-13
2.96509e-13
2.7485e-13
2.70095e-13
2.68141e-13
2.64115e-13
2.56251e-13
2.4328e-13
2.31929e-13
2.23228e-13
2.17252e-13
2.11824e-13
2.05782e-13
1.99671e-13
1.90851e-13
1.76811e-13
1.72198e-13
1.63948e-13
1.49078e-13
1.41821e-13
1.45146e-13
1.4535e-13
1.4154e-13
1.44937e-13
1.4669e-13
1.33294e-13
1.37882e-13
1.3035e-13
1.22032e-13
1.20436e-13
1.08529e-13
1.10763e-13
1.08043e-13
1.1173e-13
9.92241e-14
9.24168e-14
9.15897e-14
9.72196e-14
9.7986e-14
9.3469e-14
9.26422e-14
9.41079e-14
9.5386e-14
9.22159e-14
8.36758e-14
8.5437e-14
8.1056e-14
8.14301e-14
7.97963e-14
7.67577e-14
7.97148e-14
7.49553e-14
5.91415e-14
5.10895e-14
4.69895e-14
5.24093e-14
4.52743e-14
4.79272e-14
4.10581e-14
2.96537e-14
3.32865e-14
2.80216e-14
2.03097e-14
1.56526e-14
1.22742e-14
1.46617e-14
5.552e-15
4.52544e-16
4.89478e-13
4.86662e-13
4.88719e-13
4.84591e-13
4.79894e-13
4.72716e-13
4.73464e-13
4.76664e-13
4.79917e-13
4.66919e-13
4.54147e-13
4.52539e-13
4.51426e-13
4.44083e-13
4.36089e-13
4.28099e-13
4.20214e-13
4.1909e-13
4.12375e-13
4.03419e-13
3.92353e-13
3.81764e-13
3.7044e-13
3.59105e-13
3.53209e-13
3.53924e-13
3.50225e-13
3.42468e-13
3.33216e-13
3.26888e-13
3.23252e-13
3.16385e-13
3.05068e-13
2.97789e-13
2.72882e-13
2.67579e-13
2.64581e-13
2.59163e-13
2.49492e-13
2.39296e-13
2.32106e-13
2.27845e-13
2.17796e-13
2.11765e-13
2.1045e-13
1.99091e-13
1.91063e-13
1.74824e-13
1.68225e-13
1.58875e-13
1.59301e-13
1.49382e-13
1.46577e-13
1.41568e-13
1.39702e-13
1.44417e-13
1.36066e-13
1.33243e-13
1.32961e-13
1.27023e-13
1.31665e-13
1.24207e-13
1.13984e-13
1.11542e-13
1.10764e-13
1.12541e-13
1.04158e-13
1.00507e-13
9.07802e-14
9.25397e-14
8.79897e-14
9.08642e-14
9.87736e-14
9.48792e-14
9.49553e-14
8.56347e-14
8.60922e-14
8.65197e-14
8.56045e-14
8.37852e-14
8.57216e-14
8.16241e-14
7.60346e-14
7.3855e-14
6.49137e-14
5.53803e-14
4.85645e-14
5.50075e-14
5.38285e-14
4.20174e-14
3.24844e-14
3.26062e-14
3.3333e-14
2.68466e-14
2.40332e-14
2.10093e-14
1.33967e-14
6.42564e-15
-1.48217e-15
-1.26323e-15
4.83309e-13
4.86825e-13
4.87463e-13
4.86343e-13
4.78811e-13
4.7405e-13
4.74679e-13
4.70857e-13
4.78674e-13
4.65726e-13
4.56908e-13
4.5871e-13
4.53949e-13
4.40331e-13
4.33235e-13
4.24439e-13
4.26427e-13
4.19325e-13
4.10437e-13
4.02219e-13
3.84844e-13
3.67867e-13
3.65772e-13
3.63983e-13
3.62945e-13
3.51179e-13
3.46555e-13
3.36396e-13
3.29327e-13
3.35161e-13
3.2576e-13
3.00487e-13
2.94919e-13
2.90792e-13
2.8371e-13
2.71492e-13
2.66848e-13
2.6122e-13
2.5145e-13
2.41343e-13
2.31968e-13
2.22613e-13
2.15389e-13
2.14673e-13
2.14341e-13
2.0049e-13
1.91085e-13
1.76647e-13
1.72719e-13
1.62655e-13
1.50853e-13
1.49618e-13
1.50334e-13
1.41729e-13
1.38427e-13
1.38278e-13
1.31544e-13
1.33461e-13
1.3912e-13
1.29529e-13
1.2479e-13
1.28185e-13
1.19688e-13
1.12837e-13
1.09266e-13
1.07374e-13
1.02331e-13
1.02811e-13
9.62828e-14
9.11061e-14
8.66106e-14
9.22096e-14
9.93067e-14
9.29052e-14
9.55667e-14
8.51831e-14
8.17261e-14
8.91942e-14
9.64684e-14
8.92964e-14
8.44011e-14
8.03182e-14
7.61587e-14
6.84361e-14
5.48238e-14
5.51007e-14
5.35126e-14
5.52492e-14
5.482e-14
4.34239e-14
3.98308e-14
3.59603e-14
3.35561e-14
2.79246e-14
1.98093e-14
1.47363e-14
1.6242e-14
1.01215e-14
6.83107e-16
-3.56713e-16
4.86844e-13
4.80497e-13
4.80293e-13
4.73395e-13
4.74938e-13
4.85447e-13
4.92329e-13
4.80813e-13
4.75929e-13
4.59709e-13
4.60533e-13
4.56972e-13
4.46796e-13
4.37338e-13
4.28768e-13
4.24767e-13
4.23517e-13
4.16836e-13
4.09669e-13
4.01148e-13
3.85427e-13
3.67649e-13
3.68742e-13
3.59637e-13
3.49081e-13
3.51545e-13
3.49114e-13
3.40709e-13
3.32354e-13
3.28745e-13
3.16282e-13
3.12045e-13
3.01714e-13
2.89593e-13
2.81185e-13
2.74941e-13
2.67785e-13
2.54996e-13
2.48421e-13
2.3692e-13
2.35235e-13
2.24678e-13
2.22502e-13
2.13572e-13
2.08708e-13
1.94701e-13
1.86308e-13
1.80031e-13
1.8111e-13
1.66743e-13
1.49221e-13
1.50654e-13
1.44891e-13
1.38459e-13
1.36503e-13
1.40178e-13
1.37384e-13
1.34157e-13
1.3343e-13
1.23856e-13
1.35968e-13
1.34256e-13
1.25647e-13
1.15971e-13
1.12763e-13
1.09238e-13
1.09405e-13
1.0316e-13
9.52348e-14
9.45491e-14
9.46342e-14
9.04325e-14
8.80859e-14
8.8722e-14
9.37355e-14
8.18572e-14
8.446e-14
9.25033e-14
9.54086e-14
9.32029e-14
8.5947e-14
8.25109e-14
7.53059e-14
6.89836e-14
6.04289e-14
5.55018e-14
5.64142e-14
5.8921e-14
5.06808e-14
4.37544e-14
3.97186e-14
3.83632e-14
2.90022e-14
3.07041e-14
2.40328e-14
1.78011e-14
1.26127e-14
6.74238e-15
-5.49864e-15
-4.27007e-15
4.82214e-13
4.79453e-13
4.82297e-13
4.83146e-13
4.74668e-13
4.78455e-13
4.83082e-13
4.75397e-13
4.73661e-13
4.73942e-13
4.67075e-13
4.55053e-13
4.43636e-13
4.42381e-13
4.29386e-13
4.22814e-13
4.21795e-13
4.17365e-13
4.11059e-13
3.98805e-13
3.77273e-13
3.66301e-13
3.62021e-13
3.57045e-13
3.48954e-13
3.5527e-13
3.50143e-13
3.37341e-13
3.30036e-13
3.23493e-13
3.20892e-13
3.09119e-13
3.02623e-13
2.92021e-13
2.86078e-13
2.74502e-13
2.60473e-13
2.56984e-13
2.50828e-13
2.34424e-13
2.33641e-13
2.247e-13
2.24172e-13
2.08146e-13
2.06232e-13
1.96343e-13
1.9483e-13
1.83666e-13
1.77204e-13