/*--------------------------------*- C++ -*----------------------------------*\
| =========                 |                                                 |
| \\      /  F ield         | OpenFOAM: The Open Source CFD Toolbox           |
|  \\    /   O peration     | Version:  v2012                                 |
|   \\  /    A nd           | Website:  www.openfoam.com                      |
|    \\/     M anipulation  |                                                 |
\*---------------------------------------------------------------------------*/
FoamFile
{
    version     2.0;
    format      ascii;
    class       volVectorField;
    location    "0";
    object      U;
}
// * * * * * * * * * * * * * * * * * * * * * * * * * * * * * * * * * * * * * //

dimensions      [0 1 -1 0 0 0 0];


internalField   nonuniform List<vector> 
4000
(
(1 -3.34712e-15 0)
(1 8.96274e-15 0)
(1 -1.18751e-15 0)
(1 -1.60662e-15 0)
(1 -3.47942e-16 0)
(1 -1.96872e-15 0)
(1 1.50825e-15 0)
(1 1.42879e-15 0)
(1 -4.60668e-16 0)
(1 -1.65378e-15 0)
(1 2.12373e-15 0)
(1 -5.46491e-16 0)
(1 3.66184e-15 0)
(1 1.88575e-15 0)
(1 6.82141e-15 0)
(1 -2.71426e-16 0)
(1 -6.53212e-15 0)
(1 -8.74721e-15 0)
(1 -2.69557e-15 0)
(1 -3.48548e-15 0)
(1 1.69557e-15 0)
(1 -1.10991e-14 0)
(1 1.37429e-15 0)
(1 -5.83943e-15 0)
(1 5.65598e-15 0)
(1 -4.81048e-15 0)
(1 3.49072e-15 0)
(1 4.52135e-15 0)
(1 5.13371e-15 0)
(1 8.60605e-15 0)
(1 4.39167e-15 0)
(1 -5.24581e-15 0)
(1 -4.06423e-15 0)
(1 2.77814e-15 0)
(1 1.65505e-15 0)
(1 4.53746e-15 0)
(1 5.60271e-15 0)
(1 1.12617e-15 0)
(1 -6.37795e-16 0)
(1 -1.8303e-15 0)
(1 -1.09438e-15 0)
(1 -2.4926e-15 0)
(1 -4.3426e-15 0)
(1 -3.58649e-15 0)
(1 -5.67064e-16 0)
(1 1.72496e-15 0)
(1 2.53508e-15 0)
(1 4.12765e-15 0)
(1 -3.30887e-15 0)
(1 -7.13351e-16 0)
(1 2.87465e-16 0)
(1 1.49643e-15 0)
(1 -8.76155e-16 0)
(1 -6.81256e-16 0)
(1 3.43203e-15 0)
(1 -4.9096e-15 0)
(1 -2.3272e-15 0)
(1 -1.03576e-15 0)
(1 2.53551e-15 0)
(1 6.43942e-15 0)
(1 4.81041e-15 0)
(1 2.87181e-15 0)
(1 1.09689e-15 0)
(1 -2.96846e-15 0)
(1 -3.43078e-15 0)
(1 9.91895e-17 0)
(1 -2.20998e-15 0)
(1 6.86289e-15 0)
(1 6.98261e-16 0)
(1 1.66573e-16 0)
(1 -5.88588e-15 0)
(1 -2.35493e-15 0)
(1 -1.72581e-15 0)
(1 -2.34162e-15 0)
(1 -4.24405e-15 0)
(1 -1.72429e-15 0)
(1 -2.55934e-15 0)
(1 -3.35258e-16 0)
(1 1.91368e-15 0)
(1 -8.25422e-16 0)
(1 2.00532e-16 0)
(1 1.80161e-15 0)
(1 5.00584e-17 0)
(1 1.36167e-15 0)
(1 7.03138e-16 0)
(1 -2.26223e-15 0)
(1 1.13528e-15 0)
(1 -2.00536e-15 0)
(1 -3.95569e-17 0)
(1 7.22435e-15 0)
(1 4.89874e-16 0)
(1 2.66196e-15 0)
(1 -5.29073e-15 0)
(1 -2.60214e-15 0)
(1 -4.8457e-16 0)
(1 -1.41101e-15 0)
(1 -2.51156e-15 0)
(1 -2.77879e-15 0)
(1 -4.91685e-16 0)
(1 4.8847e-17 0)
(1 -3.81618e-16 0)
(1 5.53345e-15 0)
(1 2.8425e-15 0)
(1 -5.54001e-15 0)
(1 3.47051e-15 0)
(1 -2.86894e-15 0)
(1 9.35274e-16 0)
(1 1.2331e-16 0)
(1 1.2957e-15 0)
(1 -6.41591e-15 0)
(1 6.24818e-15 0)
(1 1.70884e-15 0)
(1 4.23601e-15 0)
(1 7.77213e-15 0)
(1 1.06976e-14 0)
(1 7.2589e-17 0)
(1 -1.00209e-14 0)
(1 -1.41961e-14 0)
(1 -3.55186e-15 0)
(1 -4.25134e-15 0)
(1 2.13853e-15 0)
(1 -1.37547e-14 0)
(1 2.05742e-15 0)
(1 -7.00448e-15 0)
(1 5.04485e-15 0)
(1 -7.17709e-15 0)
(1 1.21153e-15 0)
(1 4.74582e-15 0)
(1 3.0157e-15 0)
(1 8.73437e-15 0)
(1 6.00175e-15 0)
(1 3.39358e-15 0)
(1 9.21027e-16 0)
(1 -1.86078e-15 0)
(1 -2.36001e-15 0)
(1 1.62152e-15 0)
(1 4.43089e-15 0)
(1 6.83404e-15 0)
(1 -1.03594e-15 0)
(1 -2.03832e-15 0)
(1 -1.91522e-15 0)
(1 -5.39463e-15 0)
(1 -7.07037e-15 0)
(1 -7.1468e-15 0)
(1 -1.67444e-16 0)
(1 -3.49857e-17 0)
(1 -2.40435e-16 0)
(1 3.83282e-15 0)
(1 -2.29385e-16 0)
(1 -8.50231e-16 0)
(1 -1.86052e-15 0)
(1 3.5896e-16 0)
(1 -5.39331e-16 0)
(1 2.78247e-16 0)
(1 1.49289e-16 0)
(1 1.55202e-15 0)
(1 -1.47852e-15 0)
(1 2.66383e-15 0)
(1 -1.44834e-15 0)
(1 4.47799e-15 0)
(1 1.2143e-15 0)
(1 -2.36764e-16 0)
(1 5.09161e-15 0)
(1 1.97579e-15 0)
(1 -2.99609e-15 0)
(1 -8.3561e-16 0)
(1 -3.56467e-15 0)
(1 3.38787e-15 0)
(1 -6.60945e-16 0)
(1 -3.98426e-15 0)
(1 1.30405e-15 0)
(1 -3.02345e-15 0)
(1 1.815e-15 0)
(1 1.54447e-15 0)
(1 3.00186e-15 0)
(1 8.7214e-17 0)
(1 -1.85559e-15 0)
(1 1.47499e-15 0)
(1 6.17147e-15 0)
(1 -6.23259e-16 0)
(1 -1.12776e-15 0)
(1 -8.48711e-16 0)
(1 3.10373e-17 0)
(1 4.63919e-15 0)
(1 2.22493e-15 0)
(1 1.69531e-15 0)
(1 -2.8736e-15 0)
(1 -3.82674e-15 0)
(1 -4.44316e-15 0)
(1 2.77603e-15 0)
(1 3.59325e-15 0)
(1 4.44305e-15 0)
(1 -6.44495e-15 0)
(1 -3.89218e-15 0)
(1 -2.52456e-15 0)
(1 3.37183e-15 0)
(1 -2.39122e-15 0)
(1 -2.62841e-16 0)
(1 -1.30724e-16 0)
(1 -1.45585e-15 0)
(1 3.23408e-15 0)
(1 -7.22166e-15 0)
(1 3.24625e-15 0)
(1 -9.23375e-15 0)
(1 2.8012e-15 0)
(1 2.21575e-15 0)
(1 1.37707e-15 0)
(1 1.82821e-15 0)
(1 4.9668e-15 0)
(1 -3.12116e-16 0)
(1 3.18491e-15 0)
(1 4.0185e-15 0)
(1 2.36578e-15 0)
(1 1.33156e-14 0)
(1 2.43351e-15 0)
(1 -2.37663e-15 0)
(1 -7.05708e-15 0)
(1 -6.49576e-15 0)
(1 -3.58819e-15 0)
(1 4.32778e-15 0)
(1 2.47925e-15 0)
(1 4.17713e-15 0)
(1 -7.44887e-15 0)
(1 -5.40127e-15 0)
(1 -3.87031e-15 0)
(1 -4.82297e-15 0)
(1 2.13631e-15 0)
(1 7.97018e-15 0)
(1 1.14859e-14 0)
(1 9.52545e-15 0)
(1 7.3733e-15 0)
(1 9.47915e-15 0)
(1 5.08435e-15 0)
(1 3.49526e-15 0)
(1 4.96947e-16 0)
(1 -4.5056e-15 0)
(1 -6.70055e-15 0)
(1 1.73516e-15 0)
(1 3.70512e-15 0)
(1 -3.53556e-15 0)
(1 -7.46233e-15 0)
(1 -6.74476e-15 0)
(1 -8.5332e-15 0)
(1 -7.36301e-15 0)
(1 -7.77765e-15 0)
(1 4.63965e-15 0)
(1 1.01151e-15 0)
(1 1.2854e-15 0)
(1 3.47896e-15 0)
(1 -1.02982e-15 0)
(1 2.61382e-16 0)
(1 4.69475e-16 0)
(1 3.57941e-15 0)
(1 5.52945e-17 0)
(1 -3.37558e-15 0)
(1 2.54975e-15 0)
(1 6.35015e-16 0)
(1 2.99398e-16 0)
(1 -1.55948e-15 0)
(1 -8.54143e-16 0)
(1 4.12334e-15 0)
(1 -1.99766e-15 0)
(1 3.74759e-15 0)
(1 6.51136e-16 0)
(1 6.74922e-17 0)
(1 6.10528e-17 0)
(1 2.55096e-15 0)
(1 5.91505e-16 0)
(1 1.16045e-15 0)
(1 -4.72611e-16 0)
(1 1.38999e-15 0)
(1 -2.51102e-15 0)
(1 -2.69587e-15 0)
(1 -9.76962e-16 0)
(1 -5.68062e-16 0)
(1 2.80819e-15 0)
(1 -4.68694e-15 0)
(1 -1.62728e-16 0)
(1 3.37546e-15 0)
(1 -1.70174e-15 0)
(1 -2.08362e-15 0)
(1 -5.08508e-15 0)
(1 -6.47947e-17 0)
(1 -6.18794e-16 0)
(1 6.83374e-15 0)
(1 3.35727e-15 0)
(1 -5.89729e-16 0)
(1 -1.34584e-16 0)
(1 -5.8429e-15 0)
(1 -2.1057e-15 0)
(1 -4.23973e-15 0)
(1 -2.21161e-15 0)
(1 -4.08817e-16 0)
(1 1.01594e-15 0)
(1 -1.66176e-15 0)
(1 -1.545e-15 0)
(1 -3.48795e-15 0)
(1 -2.76393e-16 0)
(1 -6.72321e-16 0)
(1 3.91975e-16 0)
(1 3.67971e-15 0)
(1 -8.33276e-15 0)
(1 4.46209e-16 0)
(1 -1.14917e-14 0)
(1 1.00412e-15 0)
(1 1.91988e-15 0)
(1 4.14182e-15 0)
(1 3.95211e-15 0)
(1 -2.24429e-15 0)
(1 3.01097e-15 0)
(1 3.96852e-15 0)
(1 8.5502e-15 0)
(1 1.3068e-14 0)
(1 7.52404e-15 0)
(1 3.59754e-15 0)
(1 -2.6461e-15 0)
(1 -5.47401e-15 0)
(1 -7.77321e-15 0)
(1 -1.01596e-14 0)
(1 -1.50657e-15 0)
(1 3.04914e-15 0)
(1 4.24989e-15 0)
(1 3.27409e-15 0)
(1 5.08842e-15 0)
(1 -2.12043e-15 0)
(1 2.82338e-15 0)
(1 5.36955e-15 0)
(1 3.56028e-15 0)
(1 1.14928e-14 0)
(1 7.13841e-15 0)
(1 5.95475e-15 0)
(1 3.63211e-15 0)
(1 2.4196e-15 0)
(1 2.53224e-16 0)
(1 3.73586e-15 0)
(1 1.32759e-15 0)
(1 -2.07781e-15 0)
(1 -6.1286e-15 0)
(1 7.41139e-15 0)
(1 1.6086e-15 0)
(1 -3.6698e-15 0)
(1 -2.58699e-15 0)
(1 -5.53629e-15 0)
(1 -8.65263e-15 0)
(1 -9.25117e-15 0)
(1 4.94263e-15 0)
(1 7.07424e-15 0)
(1 5.42647e-15 0)
(1 2.98869e-15 0)
(1 2.52732e-15 0)
(1 3.49928e-15 0)
(1 -2.86004e-15 0)
(1 -4.02489e-15 0)
(1 -3.33148e-15 0)
(1 -2.54883e-15 0)
(1 -2.98357e-15 0)
(1 -5.0106e-15 0)
(1 -3.28098e-15 0)
(1 -1.73879e-15 0)
(1 -1.44161e-15 0)
(1 6.09256e-15 0)
(1 7.43741e-15 0)
(1 3.07905e-15 0)
(1 5.00389e-15 0)
(1 2.34158e-15 0)
(1 -1.71247e-15 0)
(1 9.90914e-17 0)
(1 -2.64637e-15 0)
(1 -1.47262e-15 0)
(1 -2.3471e-15 0)
(1 -5.30122e-15 0)
(1 -2.16009e-16 0)
(1 -2.55683e-15 0)
(1 -3.81428e-15 0)
(1 -2.36442e-15 0)
(1 -3.37459e-17 0)
(1 -1.46338e-16 0)
(1 1.74021e-15 0)
(1 5.25484e-16 0)
(1 -2.1635e-15 0)
(1 -1.48449e-15 0)
(1 3.50753e-15 0)
(1 -4.59447e-17 0)
(1 -3.34442e-15 0)
(1 6.22224e-15 0)
(1 4.00855e-15 0)
(1 6.40454e-15 0)
(1 5.35819e-15 0)
(1 -4.01933e-16 0)
(1 1.23516e-15 0)
(1 -4.18538e-15 0)
(1 -4.03369e-15 0)
(1 7.81121e-16 0)
(1 -3.75331e-16 0)
(1 -2.8852e-15 0)
(1 -3.04156e-15 0)
(1 -9.77023e-15 0)
(1 -8.49378e-15 0)
(1 -1.48029e-15 0)
(1 8.77325e-16 0)
(1 2.36593e-15 0)
(1 -6.5747e-16 0)
(1 -3.71499e-15 0)
(1 -6.41323e-15 0)
(1 1.17489e-16 0)
(1 2.73126e-15 0)
(1 1.75685e-15 0)
(1 -4.5392e-16 0)
(1 -5.98596e-15 0)
(1 1.6382e-15 0)
(1 2.62786e-15 0)
(1 1.66881e-15 0)
(1 1.38546e-14 0)
(1 -3.56788e-15 0)
(1 1.19739e-14 0)
(1 4.52861e-15 0)
(1 -9.9123e-16 0)
(1 -1.01774e-14 0)
(1 -6.95141e-15 0)
(1 -1.32064e-14 0)
(1 -3.26726e-15 0)
(1 -3.56149e-15 0)
(1 1.31505e-14 0)
(1 1.27065e-14 0)
(1 1.32253e-14 0)
(1 7.22798e-15 0)
(1 6.50591e-15 0)
(1 -2.5236e-15 0)
(1 6.52373e-15 0)
(1 5.62069e-15 0)
(1 2.69946e-15 0)
(1 7.77304e-15 0)
(1 1.19936e-14 0)
(1 1.57011e-15 0)
(1 -5.77162e-15 0)
(1 -7.0288e-15 0)
(1 -5.57386e-15 0)
(1 -4.93016e-15 0)
(1 -3.81974e-15 0)
(1 -3.38058e-15 0)
(1 -4.79963e-15 0)
(1 -3.78274e-15 0)
(1 -1.78234e-15 0)
(1 -8.4191e-15 0)
(1 -5.28741e-15 0)
(1 -2.34672e-15 0)
(1 3.02615e-15 0)
(1 1.00262e-14 0)
(1 8.66301e-15 0)
(1 5.71598e-15 0)
(1 1.53343e-16 0)
(1 -2.04264e-15 0)
(1 -5.80532e-15 0)
(1 -3.1197e-15 0)
(1 3.14493e-16 0)
(1 3.38518e-15 0)
(1 2.52981e-15 0)
(1 4.05166e-15 0)
(1 -1.99278e-15 0)
(1 -8.90499e-16 0)
(1 2.5666e-15 0)
(1 2.32482e-15 0)
(1 3.07029e-15 0)
(1 3.34432e-15 0)
(1 6.21764e-16 0)
(1 1.01277e-15 0)
(1 4.32358e-17 0)
(1 -5.25622e-15 0)
(1 1.626e-16 0)
(1 -1.06954e-15 0)
(1 3.49626e-15 0)
(1 -9.54295e-16 0)
(1 5.06123e-16 0)
(1 -3.8604e-15 0)
(1 3.77114e-15 0)
(1 -3.13696e-15 0)
(1 3.21778e-15 0)
(1 5.39965e-15 0)
(1 6.94732e-15 0)
(1 3.25482e-15 0)
(1 -4.01978e-15 0)
(1 3.82853e-15 0)
(1 1.9168e-16 0)
(1 5.22924e-15 0)
(1 8.6114e-16 0)
(1 6.00659e-15 0)
(1 3.6536e-15 0)
(1 1.907e-16 0)
(1 9.71762e-16 0)
(1 -5.71821e-15 0)
(1 1.49146e-15 0)
(1 -5.43626e-15 0)
(1 -2.2463e-15 0)
(1 -3.98451e-15 0)
(1 -3.29303e-15 0)
(1 1.84637e-15 0)
(1 -7.14787e-15 0)
(1 -5.40977e-15 0)
(1 9.96763e-16 0)
(1 1.47379e-15 0)
(1 -3.5163e-15 0)
(1 4.2553e-15 0)
(1 -4.75211e-15 0)
(1 1.33318e-16 0)
(1 -2.31976e-15 0)
(1 5.78068e-16 0)
(1 -3.60216e-15 0)
(1 -8.95341e-15 0)
(1 1.03832e-15 0)
(1 1.47688e-15 0)
(1 1.81298e-15 0)
(1 4.7369e-15 0)
(1 6.3155e-15 0)
(1 -2.40279e-16 0)
(1 4.1178e-15 0)
(1 5.43999e-15 0)
(1 3.43844e-15 0)
(1 -1.16893e-15 0)
(1 5.3368e-15 0)
(1 -4.27706e-15 0)
(1 2.68834e-15 0)
(1 9.2621e-15 0)
(1 3.44134e-15 0)
(1 -3.44053e-15 0)
(1 -8.57184e-16 0)
(1 -2.84441e-15 0)
(1 -6.5958e-15 0)
(1 6.12185e-15 0)
(1 9.9813e-15 0)
(1 1.83514e-14 0)
(1 9.09307e-15 0)
(1 1.26115e-14 0)
(1 1.08674e-14 0)
(1 4.75264e-15 0)
(1 -4.98716e-15 0)
(1 -6.56141e-15 0)
(1 -7.54364e-15 0)
(1 1.6766e-15 0)
(1 -3.66456e-15 0)
(1 -7.42465e-15 0)
(1 -8.81184e-15 0)
(1 -5.00843e-15 0)
(1 2.61937e-15 0)
(1 4.34327e-15 0)
(1 3.48913e-15 0)
(1 -4.01323e-15 0)
(1 -4.04237e-15 0)
(1 -1.7942e-16 0)
(1 1.32804e-15 0)
(1 4.22756e-15 0)
(1 5.31853e-15 0)
(1 3.14759e-15 0)
(1 -5.01042e-15 0)
(1 -5.62582e-15 0)
(1 1.15002e-15 0)
(1 -3.39698e-16 0)
(1 2.51805e-15 0)
(1 1.13926e-15 0)
(1 8.39225e-15 0)
(1 5.8241e-15 0)
(1 7.92146e-15 0)
(1 1.12703e-15 0)
(1 -1.48137e-15 0)
(1 -3.76268e-15 0)
(1 2.50066e-15 0)
(1 5.51114e-15 0)
(1 6.06323e-15 0)
(1 7.6392e-15 0)
(1 1.04785e-14 0)
(1 1.70188e-14 0)
(1 6.34154e-15 0)
(1 -1.28878e-15 0)
(1 -3.23997e-15 0)
(1 -3.74196e-15 0)
(1 -9.11742e-15 0)
(1 -8.3335e-15 0)
(1 -7.05976e-15 0)
(1 2.01762e-15 0)
(1 6.68454e-15 0)
(1 6.58027e-15 0)
(1 -7.50441e-17 0)
(1 5.17892e-15 0)
(1 9.02188e-15 0)
(1 5.1151e-15 0)
(1 -3.1337e-15 0)
(1 2.4219e-15 0)
(1 4.37789e-15 0)
(1 5.90599e-16 0)
(1 -3.21146e-15 0)
(1 -3.52765e-15 0)
(1 -5.32965e-15 0)
(1 -4.24366e-15 0)
(1 -1.96595e-15 0)
(1 -5.99159e-17 0)
(1 -1.07432e-15 0)
(1 -3.31597e-15 0)
(1 3.32649e-15 0)
(1 2.98568e-15 0)
(1 5.40158e-15 0)
(1 4.72882e-15 0)
(1 -4.74734e-15 0)
(1 -8.74844e-16 0)
(1 -2.22786e-15 0)
(1 5.10392e-15 0)
(1 4.6023e-18 0)
(1 -2.65616e-15 0)
(1 -4.81708e-15 0)
(1 -1.27162e-14 0)
(1 5.07315e-15 0)
(1 -1.27513e-15 0)
(1 4.72807e-15 0)
(1 1.65431e-15 0)
(1 1.91555e-15 0)
(1 6.41427e-15 0)
(1 4.46746e-16 0)
(1 2.01604e-15 0)
(1 7.24445e-15 0)
(1 6.25959e-15 0)
(1 5.37868e-15 0)
(1 6.96147e-15 0)
(1 4.21007e-15 0)
(1 6.07376e-15 0)
(1 -8.14863e-16 0)
(1 1.88784e-15 0)
(1 -9.06186e-15 0)
(1 -3.49306e-15 0)
(1 -3.8132e-15 0)
(1 1.07497e-15 0)
(1 4.67005e-15 0)
(1 1.13792e-14 0)
(1 1.42468e-14 0)
(1 1.07324e-14 0)
(1 3.34499e-15 0)
(1 -7.09945e-15 0)
(1 -2.43523e-15 0)
(1 1.61004e-15 0)
(1 3.96325e-15 0)
(1 -4.51394e-16 0)
(1 3.12595e-15 0)
(1 -2.13024e-15 0)
(1 -2.47049e-15 0)
(1 -4.75269e-15 0)
(1 1.91518e-15 0)
(1 1.27011e-14 0)
(1 6.28921e-15 0)
(1 -9.59958e-15 0)
(1 -6.40995e-15 0)
(1 -4.05689e-16 0)
(1 4.70275e-15 0)
(1 2.86652e-15 0)
(1 8.15334e-15 0)
(1 4.2171e-16 0)
(1 -5.21797e-15 0)
(1 -5.09577e-15 0)
(1 -2.46216e-15 0)
(1 4.20486e-15 0)
(1 3.79687e-16 0)
(1 -3.18395e-15 0)
(1 1.57443e-16 0)
(1 3.94633e-15 0)
(1 4.80761e-15 0)
(1 7.08654e-15 0)
(1 1.04995e-15 0)
(1 6.67783e-15 0)
(1 5.05867e-15 0)
(1 6.77921e-16 0)
(1 4.94918e-16 0)
(1 6.59145e-16 0)
(1 2.33148e-15 0)
(1 9.77577e-17 0)
(1 -4.51911e-16 0)
(1 1.13798e-15 0)
(1 3.42519e-16 0)
(1 1.70847e-15 0)
(1 -1.97088e-16 0)
(1 2.47962e-15 0)
(1 3.81886e-15 0)
(1 5.59457e-15 0)
(1 3.32967e-15 0)
(1 2.32544e-15 0)
(1 3.84092e-15 0)
(1 3.87988e-15 0)
(1 6.71163e-15 0)
(1 5.83842e-15 0)
(1 3.15042e-15 0)
(1 4.92493e-15 0)
(1 8.24374e-15 0)
(1 6.92408e-15 0)
(1 -9.11565e-16 0)
(1 4.31168e-16 0)
(1 -2.11301e-15 0)
(1 3.44468e-15 0)
(1 -5.07015e-17 0)
(1 -4.2913e-16 0)
(1 4.5313e-16 0)
(1 2.6439e-15 0)
(1 7.86494e-15 0)
(1 4.91831e-15 0)
(1 6.70464e-15 0)
(1 7.29079e-15 0)
(1 -1.58041e-15 0)
(1 -1.8366e-15 0)
(1 -4.91612e-15 0)
(1 5.0292e-15 0)
(1 8.72532e-16 0)
(1 -1.7093e-15 0)
(1 8.1697e-16 0)
(1 -6.85707e-15 0)
(1 1.53296e-16 0)
(1 -7.05812e-15 0)
(1 -9.8679e-16 0)
(1 -3.13482e-15 0)
(1 -4.56042e-16 0)
(1 8.74858e-15 0)
(1 7.29794e-15 0)
(1 5.32871e-15 0)
(1 3.17349e-15 0)
(1 5.94202e-15 0)
(1 6.5625e-15 0)
(1 9.61267e-15 0)
(1 -4.62104e-15 0)
(1 -1.67183e-15 0)
(1 -1.04569e-14 0)
(1 -2.33366e-15 0)
(1 -3.34957e-15 0)
(1 9.35323e-15 0)
(1 1.03367e-14 0)
(1 1.73526e-15 0)
(1 -1.01074e-15 0)
(1 -2.75336e-15 0)
(1 6.88502e-15 0)
(1 3.42158e-15 0)
(1 8.23839e-16 0)
(1 5.70819e-15 0)
(1 5.42628e-15 0)
(1 -8.34873e-16 0)
(1 6.0224e-16 0)
(1 -2.91575e-15 0)
(1 -1.02197e-15 0)
(1 -5.46175e-15 0)
(1 -4.24981e-15 0)
(1 -2.75818e-15 0)
(1 6.85749e-17 0)
(1 8.60304e-15 0)
(1 5.78322e-15 0)
(1 2.50165e-15 0)
(1 6.42126e-18 0)
(1 2.08513e-15 0)
(1 2.8787e-15 0)
(1 -6.63601e-16 0)
(1 1.35751e-15 0)
(1 9.64596e-16 0)
(1 9.73794e-15 0)
(1 2.63593e-15 0)
(1 -4.50041e-16 0)
(1 -3.25128e-15 0)
(1 3.79407e-15 0)
(1 -2.23531e-15 0)
(1 5.67352e-16 0)
(1 2.25433e-15 0)
(1 5.43936e-15 0)
(1 4.6073e-15 0)
(1 5.84074e-15 0)
(1 3.72617e-15 0)
(1 2.46507e-15 0)
(1 6.05668e-15 0)
(1 7.56722e-15 0)
(1 4.84029e-15 0)
(1 2.81672e-15 0)
(1 -1.35896e-15 0)
(1 7.04391e-15 0)
(1 4.53156e-15 0)
(1 1.17788e-15 0)
(1 3.28797e-15 0)
(1 1.41986e-15 0)
(1 7.06805e-15 0)
(1 9.95315e-15 0)
(1 5.99418e-15 0)
(1 -5.9676e-16 0)
(1 -8.78671e-16 0)
(1 1.58513e-15 0)
(1 -3.23653e-15 0)
(1 -2.5372e-15 0)
(1 7.85066e-15 0)
(1 8.38445e-15 0)
(1 4.91052e-15 0)
(1 3.06826e-15 0)
(1 9.10242e-16 0)
(1 -6.47416e-16 0)
(1 -4.58985e-16 0)
(1 2.10685e-15 0)
(1 9.40002e-16 0)
(1 6.22188e-16 0)
(1 9.26932e-16 0)
(1 1.58551e-15 0)
(1 1.38234e-15 0)
(1 1.3706e-16 0)
(1 5.10979e-15 0)
(1 6.64774e-15 0)
(1 1.32379e-14 0)
(1 1.143e-15 0)
(1 -2.86926e-15 0)
(1 4.37145e-15 0)
(1 -6.21556e-15 0)
(1 -2.88089e-15 0)
(1 -8.34753e-15 0)
(1 -2.18404e-15 0)
(1 5.62327e-15 0)
(1 -1.27951e-14 0)
(1 -3.94418e-15 0)
(1 5.99774e-15 0)
(1 5.99725e-15 0)
(1 1.50482e-15 0)
(1 7.95489e-15 0)
(1 6.55123e-15 0)
(1 3.47397e-15 0)
(1 -1.66234e-16 0)
(1 7.03716e-15 0)
(1 3.21832e-15 0)
(1 7.4274e-15 0)
(1 -8.50574e-15 0)
(1 -6.36232e-16 0)
(1 -3.97517e-16 0)
(1 2.53976e-15 0)
(1 6.97792e-15 0)
(1 8.05408e-15 0)
(1 -4.11794e-15 0)
(1 -7.82808e-16 0)
(1 -1.0113e-14 0)
(1 -3.67051e-15 0)
(1 -4.82778e-15 0)
(1 -3.74033e-15 0)
(1 -3.88813e-15 0)
(1 7.10249e-15 0)
(1 8.97742e-15 0)
(1 1.92058e-15 0)
(1 1.34781e-15 0)
(1 1.54183e-15 0)
(1 1.70829e-15 0)
(1 1.3148e-15 0)
(1 -4.26519e-15 0)
(1 7.15963e-15 0)
(1 4.51734e-15 0)
(1 7.80987e-15 0)
(1 1.15168e-14 0)
(1 1.57534e-14 0)
(1 4.14054e-15 0)
(1 -1.64897e-15 0)
(1 -4.87083e-15 0)
(1 -4.45486e-15 0)
(1 -3.67254e-15 0)
(1 3.03554e-15 0)
(1 4.28288e-15 0)
(1 1.71234e-15 0)
(1 9.16976e-16 0)
(1 -5.66196e-15 0)
(1 -3.17231e-15 0)
(1 6.09969e-15 0)
(1 6.96392e-15 0)
(1 8.9436e-15 0)
(1 -1.54823e-15 0)
(1 8.4713e-15 0)
(1 -8.70217e-15 0)
(1 -2.17494e-15 0)
(1 2.07927e-15 0)
(1 1.30465e-14 0)
(1 1.62368e-14 0)
(1 1.68768e-14 0)
(1 1.76563e-14 0)
(1 1.65222e-14 0)
(1 7.91623e-15 0)
(1 7.20275e-15 0)
(1 1.46888e-15 0)
(1 -3.85126e-16 0)
(1 -8.52606e-15 0)
(1 -3.43446e-15 0)
(1 2.4218e-15 0)
(1 2.8394e-15 0)
(1 -1.87603e-15 0)
(1 4.99868e-15 0)
(1 3.34404e-15 0)
(1 8.58499e-15 0)
(1 5.93628e-15 0)
(1 6.10064e-15 0)
(1 1.95771e-15 0)
(1 -3.90263e-15 0)
(1 -4.0758e-15 0)
(1 5.96243e-16 0)
(1 3.52449e-15 0)
(1 1.3905e-15 0)
(1 4.22039e-15 0)
(1 1.79964e-15 0)
(1 6.13124e-15 0)
(1 5.39823e-15 0)
(1 8.7506e-15 0)
(1 6.11568e-15 0)
(1 9.53262e-15 0)
(1 1.27215e-14 0)
(1 1.97765e-14 0)
(1 2.16975e-14 0)
(1 9.12101e-16 0)
(1 1.6092e-15 0)
(1 6.12186e-15 0)
(1 1.9118e-15 0)
(1 -7.79764e-15 0)
(1 -8.14151e-16 0)
(1 -2.83402e-15 0)
(1 3.53479e-15 0)
(1 -4.68232e-15 0)
(1 -1.48045e-16 0)
(1 6.37177e-15 0)
(1 3.49502e-15 0)
(1 6.80987e-15 0)
(1 1.73547e-15 0)
(1 2.54846e-15 0)
(1 -1.64879e-15 0)
(1 1.3971e-15 0)
(1 2.0291e-15 0)
(1 -4.2576e-15 0)
(1 -5.93935e-15 0)
(1 -5.69661e-15 0)
(1 -7.78254e-15 0)
(1 1.05577e-14 0)
(1 4.94157e-15 0)
(1 9.32266e-15 0)
(1 4.65104e-15 0)
(1 2.86757e-15 0)
(1 -9.08697e-16 0)
(1 1.15994e-15 0)
(1 -4.6721e-16 0)
(1 -3.26631e-15 0)
(1 -8.8152e-15 0)
(1 -5.85006e-15 0)
(1 -1.27002e-15 0)
(1 -6.38627e-15 0)
(1 -6.70393e-16 0)
(1 2.87513e-15 0)
(1 4.48383e-15 0)
(1 -2.0076e-15 0)
(1 3.27846e-15 0)
(1 1.7554e-15 0)
(1 7.59584e-15 0)
(1 6.78995e-15 0)
(1 5.17028e-15 0)
(1 4.11012e-15 0)
(1 5.04324e-15 0)
(1 -1.78395e-16 0)
(1 -3.90632e-15 0)
(1 -3.23315e-15 0)
(1 1.68313e-15 0)
(1 7.06902e-15 0)
(1 1.0326e-14 0)
(1 3.46316e-15 0)
(1 2.56409e-15 0)
(1 2.43535e-15 0)
(1 6.48348e-15 0)
(1 -1.00855e-15 0)
(1 4.26097e-15 0)
(1 -5.22971e-16 0)
(1 8.97133e-15 0)
(1 3.44926e-15 0)
(1 4.36809e-15 0)
(1 8.08109e-15 0)
(1 6.00023e-15 0)
(1 8.56535e-15 0)
(1 5.21905e-15 0)
(1 1.0785e-14 0)
(1 1.40404e-14 0)
(1 1.16728e-14 0)
(1 9.5053e-15 0)
(1 3.48654e-16 0)
(1 5.07141e-15 0)
(1 3.50111e-16 0)
(1 -1.7651e-15 0)
(1 -3.5622e-16 0)
(1 6.83672e-15 0)
(1 8.23976e-15 0)
(1 6.71967e-15 0)
(1 6.0651e-15 0)
(1 5.46219e-15 0)
(1 5.3302e-16 0)
(1 1.12003e-15 0)
(1 2.78648e-15 0)
(1 1.75226e-15 0)
(1 3.34e-15 0)
(1 -2.0809e-15 0)
(1 3.24705e-15 0)
(1 1.02069e-15 0)
(1 4.93972e-15 0)
(1 -3.72961e-15 0)
(1 4.35461e-15 0)
(1 5.412e-15 0)
(1 7.84879e-15 0)
(1 2.31237e-15 0)
(1 9.95609e-15 0)
(1 6.2979e-15 0)
(1 9.91641e-15 0)
(1 1.41052e-14 0)
(1 2.71846e-14 0)
(1 2.24368e-14 0)
(1 -1.85099e-16 0)
(1 3.27484e-16 0)
(1 -9.27974e-16 0)
(1 3.36405e-15 0)
(1 -4.34752e-15 0)
(1 -2.60227e-15 0)
(1 -7.94852e-16 0)
(1 -4.57372e-15 0)
(1 9.04824e-16 0)
(1 -6.01275e-15 0)
(1 -1.02489e-14 0)
(1 -2.6485e-15 0)
(1 7.13742e-15 0)
(1 -2.92312e-15 0)
(1 7.11245e-15 0)
(1 2.01255e-15 0)
(1 9.39906e-15 0)
(1 7.56971e-16 0)
(1 -2.92417e-15 0)
(1 -3.95638e-15 0)
(1 2.52953e-15 0)
(1 -8.36837e-16 0)
(1 1.187e-15 0)
(1 -5.27862e-15 0)
(1 -3.53375e-15 0)
(1 -2.66043e-15 0)
(1 6.79031e-15 0)
(1 6.99451e-15 0)
(1 8.98309e-15 0)
(1 2.50871e-15 0)
(1 1.84256e-15 0)
(1 -1.02403e-14 0)
(1 -1.17144e-14 0)
(1 -5.18146e-15 0)
(1 3.67719e-15 0)
(1 7.98133e-15 0)
(1 6.04667e-15 0)
(1 3.49653e-15 0)
(1 -4.31703e-16 0)
(1 -3.38669e-15 0)
(1 1.24583e-14 0)
(1 3.54434e-15 0)
(1 9.48868e-15 0)
(1 -4.17491e-15 0)
(1 1.66766e-15 0)
(1 3.10295e-17 0)
(1 4.97041e-15 0)
(1 -3.3935e-15 0)
(1 -7.06266e-16 0)
(1 6.75452e-15 0)
(1 5.50598e-15 0)
(1 4.00868e-15 0)
(1 8.70411e-15 0)
(1 1.93406e-15 0)
(1 3.5739e-15 0)
(1 1.89624e-15 0)
(1 4.54341e-15 0)
(1 -1.72404e-15 0)
(1 7.25542e-15 0)
(1 1.39768e-15 0)
(1 1.14748e-14 0)
(1 -3.5691e-15 0)
(1 9.72846e-15 0)
(1 2.2877e-15 0)
(1 5.73664e-15 0)
(1 4.82963e-16 0)
(1 1.31181e-14 0)
(1 1.44057e-14 0)
(1 1.31994e-14 0)
(1 3.56959e-15 0)
(1 8.9881e-15 0)
(1 2.71827e-15 0)
(1 3.91943e-16 0)
(1 -4.91211e-15 0)
(1 -1.63681e-15 0)
(1 4.39303e-15 0)
(1 1.34598e-14 0)
(1 8.74001e-15 0)
(1 8.39782e-15 0)
(1 9.842e-16 0)
(1 3.46287e-15 0)
(1 -1.7363e-15 0)
(1 4.5003e-15 0)
(1 4.55469e-15 0)
(1 4.33525e-15 0)
(1 1.55113e-15 0)
(1 7.44173e-15 0)
(1 3.48321e-15 0)
(1 5.01427e-15 0)
(1 -1.35834e-15 0)
(1 -8.96015e-16 0)
(1 3.06158e-15 0)
(1 5.38953e-15 0)
(1 4.59491e-15 0)
(1 2.61944e-15 0)
(1 3.75299e-15 0)
(1 9.03752e-15 0)
(1 1.54193e-14 0)
(1 1.68336e-14 0)
(1 1.20182e-14 0)
(1 3.41366e-15 0)
(1 -6.84838e-15 0)
(1 3.6092e-15 0)
(1 -8.76307e-16 0)
(1 -1.17008e-15 0)
(1 -9.73692e-15 0)
(1 -7.13217e-15 0)
(1 -1.35403e-15 0)
(1 1.12149e-15 0)
(1 9.38252e-15 0)
(1 8.00326e-15 0)
(1 5.12227e-15 0)
(1 6.073e-16 0)
(1 -5.44208e-15 0)
(1 -1.56382e-15 0)
(1 5.92238e-15 0)
(1 9.44103e-15 0)
(1 -6.19689e-15 0)
(1 -1.2235e-14 0)
(1 -6.71268e-15 0)
(1 -4.12409e-16 0)
(1 4.08304e-15 0)
(1 -2.53661e-15 0)
(1 5.91406e-15 0)
(1 8.20962e-15 0)
(1 4.1913e-15 0)
(1 1.21479e-15 0)
(1 3.14424e-16 0)
(1 3.79267e-15 0)
(1 5.28296e-15 0)
(1 4.68507e-15 0)
(1 -8.25455e-16 0)
(1 -6.0358e-15 0)
(1 -1.02638e-14 0)
(1 -3.36257e-15 0)
(1 -4.47735e-16 0)
(1 5.82239e-16 0)
(1 -5.36874e-15 0)
(1 1.58473e-15 0)
(1 -3.64787e-15 0)
(1 6.25875e-15 0)
(1 2.99764e-16 0)
(1 8.16555e-17 0)
(1 -1.27685e-14 0)
(1 2.59154e-15 0)
(1 1.09017e-14 0)
(1 1.88404e-14 0)
(1 1.2348e-14 0)
(1 6.79542e-15 0)
(1 2.44071e-15 0)
(1 -4.41225e-15 0)
(1 -3.36996e-15 0)
(1 2.36371e-15 0)
(1 8.95265e-15 0)
(1 8.6605e-15 0)
(1 3.98871e-15 0)
(1 3.20279e-15 0)
(1 1.81408e-15 0)
(1 5.71909e-15 0)
(1 5.93959e-16 0)
(1 1.82233e-15 0)
(1 8.78948e-15 0)
(1 4.97313e-15 0)
(1 2.2049e-15 0)
(1 2.06556e-15 0)
(1 1.24635e-15 0)
(1 6.19227e-15 0)
(1 6.69112e-15 0)
(1 4.81298e-15 0)
(1 4.81202e-15 0)
(1 9.04045e-15 0)
(1 1.10281e-14 0)
(1 2.10817e-15 0)
(1 -2.10124e-15 0)
(1 3.99989e-15 0)
(1 2.43495e-15 0)
(1 6.24875e-15 0)
(1 6.99413e-15 0)
(1 1.1127e-14 0)
(1 3.16771e-15 0)
(1 4.86988e-15 0)
(1 1.13467e-14 0)
(1 8.06598e-15 0)
(1 7.37223e-15 0)
(1 -1.61682e-15 0)
(1 -3.02377e-15 0)
(1 1.96641e-15 0)
(1 1.90944e-15 0)
(1 4.25377e-15 0)
(1 1.64934e-15 0)
(1 -8.01976e-16 0)
(1 6.41456e-15 0)
(1 5.24451e-15 0)
(1 7.41508e-15 0)
(1 1.31788e-15 0)
(1 1.57743e-14 0)
(1 1.42583e-14 0)
(1 1.40742e-14 0)
(1 3.13933e-15 0)
(1 4.03459e-15 0)
(1 4.59875e-15 0)
(1 1.83557e-16 0)
(1 -3.0416e-15 0)
(1 8.08847e-16 0)
(1 4.16194e-16 0)
(1 5.96111e-16 0)
(1 1.08104e-15 0)
(1 1.77829e-15 0)
(1 -2.55e-15 0)
(1 6.85645e-15 0)
(1 9.40355e-15 0)
(1 1.27358e-14 0)
(1 -3.77214e-15 0)
(1 -2.22526e-15 0)
(1 -7.90837e-15 0)
(1 -4.82921e-16 0)
(1 2.73561e-15 0)
(1 -5.64337e-15 0)
(1 -2.7132e-15 0)
(1 -8.68411e-16 0)
(1 6.20026e-15 0)
(1 -7.70068e-15 0)
(1 -5.45612e-15 0)
(1 -1.14794e-14 0)
(1 -1.18488e-15 0)
(1 7.68786e-15 0)
(1 4.52094e-15 0)
(1 -2.35096e-15 0)
(1 -3.94793e-15 0)
(1 -2.25724e-15 0)
(1 7.2811e-17 0)
(1 5.65696e-16 0)
(1 1.22071e-15 0)
(1 -2.76808e-15 0)
(1 -5.97776e-15 0)
(1 3.75372e-15 0)
(1 7.67758e-15 0)
(1 5.52581e-15 0)
(1 -2.8161e-16 0)
(1 -6.28355e-16 0)
(1 -1.00225e-14 0)
(1 -3.88571e-15 0)
(1 -5.33148e-15 0)
(1 2.5928e-15 0)
(1 2.22838e-15 0)
(1 8.08467e-15 0)
(1 8.81159e-15 0)
(1 1.3522e-14 0)
(1 8.26027e-15 0)
(1 -4.39418e-16 0)
(1 1.07542e-15 0)
(1 -2.63327e-15 0)
(1 2.21812e-15 0)
(1 5.82126e-15 0)
(1 6.73415e-15 0)
(1 3.65372e-15 0)
(1 5.59111e-16 0)
(1 1.89243e-15 0)
(1 -1.2779e-15 0)
(1 -8.45996e-16 0)
(1 -3.18818e-15 0)
(1 7.06882e-15 0)
(1 1.76566e-14 0)
(1 1.63607e-14 0)
(1 1.2815e-14 0)
(1 6.04994e-15 0)
(1 -3.25905e-15 0)
(1 -4.46371e-15 0)
(1 -5.67194e-15 0)
(1 4.80273e-15 0)
(1 6.23324e-15 0)
(1 5.7037e-15 0)
(1 2.83238e-15 0)
(1 1.07518e-14 0)
(1 1.13554e-14 0)
(1 3.29524e-15 0)
(1 -3.52228e-15 0)
(1 4.84927e-15 0)
(1 4.92259e-15 0)
(1 5.40778e-15 0)
(1 5.25778e-15 0)
(1 6.45645e-15 0)
(1 2.06614e-15 0)
(1 3.82315e-15 0)
(1 5.14268e-15 0)
(1 7.12829e-15 0)
(1 -2.57655e-16 0)
(1 8.92761e-16 0)
(1 -1.65606e-15 0)
(1 5.07918e-16 0)
(1 3.77451e-15 0)
(1 1.69189e-15 0)
(1 7.62152e-16 0)
(1 4.37589e-15 0)
(1 3.31527e-15 0)
(1 1.242e-14 0)
(1 8.16758e-15 0)
(1 7.75951e-15 0)
(1 4.80721e-15 0)
(1 6.37031e-15 0)
(1 -4.06371e-15 0)
(1 7.24841e-15 0)
(1 -1.30858e-15 0)
(1 -3.31155e-15 0)
(1 2.46867e-15 0)
(1 3.49576e-15 0)
(1 1.01186e-15 0)
(1 6.75848e-15 0)
(1 7.04442e-15 0)
(1 -1.81585e-15 0)
(1 -5.56134e-15 0)
(1 5.04352e-15 0)
(1 7.07097e-16 0)
(1 6.14448e-15 0)
(1 2.08626e-16 0)
(1 -5.01881e-15 0)
(1 -7.64894e-15 0)
(1 -4.6866e-15 0)
(1 4.00174e-15 0)
(1 -5.81255e-15 0)
(1 -7.12004e-16 0)
(1 -1.08552e-14 0)
(1 -4.16989e-15 0)
(1 -2.62782e-15 0)
(1 1.25421e-15 0)
(1 -1.38149e-15 0)
(1 7.373e-16 0)
(1 -2.11893e-16 0)
(1 -8.11165e-15 0)
(1 -1.84483e-15 0)
(1 -8.35516e-16 0)
(1 -3.24229e-16 0)
(1 1.84801e-15 0)
(1 -2.94082e-15 0)
(1 1.1741e-14 0)
(1 1.41015e-14 0)
(1 8.32274e-15 0)
(1 2.98078e-15 0)
(1 -4.28652e-15 0)
(1 -3.51545e-15 0)
(1 -1.19629e-14 0)
(1 -2.71591e-15 0)
(1 -7.12104e-15 0)
(1 1.23375e-14 0)
(1 7.56867e-15 0)
(1 2.9213e-15 0)
(1 2.85259e-15 0)
(1 6.29729e-15 0)
(1 9.42904e-15 0)
(1 -3.24015e-16 0)
(1 -3.40863e-15 0)
(1 -7.13064e-15 0)
(1 2.767e-15 0)
(1 -1.2187e-15 0)
(1 3.86118e-15 0)
(1 3.24312e-15 0)
(1 8.65757e-15 0)
(1 9.97506e-15 0)
(1 9.78288e-15 0)
(1 4.44956e-15 0)
(1 4.6227e-15 0)
(1 9.80784e-16 0)
(1 -1.02254e-15 0)
(1 4.21052e-15 0)
(1 1.4316e-14 0)
(1 1.42236e-14 0)
(1 2.60063e-15 0)
(1 1.74552e-15 0)
(1 5.78877e-15 0)
(1 6.95258e-15 0)
(1 5.85536e-15 0)
(1 -1.32471e-15 0)
(1 5.17355e-15 0)
(1 1.52831e-14 0)
(1 6.81216e-15 0)
(1 6.84796e-15 0)
(1 7.27237e-15 0)
(1 1.06412e-14 0)
(1 7.13316e-15 0)
(1 9.89265e-15 0)
(1 4.52445e-15 0)
(1 4.31071e-17 0)
(1 -4.50208e-16 0)
(1 2.99961e-15 0)
(1 9.15335e-15 0)
(1 1.00204e-14 0)
(1 -1.5723e-15 0)
(1 1.57356e-15 0)
(1 2.55922e-16 0)
(1 4.7807e-15 0)
(1 2.12269e-15 0)
(1 6.36176e-16 0)
(1 -5.45508e-16 0)
(1 5.25524e-15 0)
(1 7.74747e-15 0)
(1 5.77849e-15 0)
(1 8.66033e-15 0)
(1 8.60285e-15 0)
(1 1.43744e-14 0)
(1 1.01463e-14 0)
(1 9.81664e-16 0)
(1 2.33615e-15 0)
(1 3.27568e-15 0)
(1 4.2915e-15 0)
(1 7.5401e-15 0)
(1 -4.56977e-16 0)
(1 -1.21812e-14 0)
(1 -8.29583e-15 0)
(1 3.19198e-15 0)
(1 6.87601e-15 0)
(1 7.94263e-16 0)
(1 1.85214e-16 0)
(1 1.54267e-15 0)
(1 7.50866e-15 0)
(1 -7.76081e-15 0)
(1 -3.45876e-15 0)
(1 -1.53696e-14 0)
(1 -9.97575e-15 0)
(1 -1.05084e-15 0)
(1 -9.84608e-15 0)
(1 -6.17779e-15 0)
(1 8.11762e-15 0)
(1 1.45355e-15 0)
(1 1.42411e-14 0)
(1 1.00795e-14 0)
(1 3.95007e-16 0)
(1 -3.24855e-15 0)
(1 -2.08523e-15 0)
(1 -3.85962e-15 0)
(1 4.65992e-16 0)
(1 -3.05121e-15 0)
(1 3.93192e-15 0)
(1 1.15162e-15 0)
(1 -8.8437e-15 0)
(1 -2.88118e-15 0)
(1 -9.26572e-16 0)
(1 2.92062e-15 0)
(1 -9.52187e-16 0)
(1 1.22944e-16 0)
(1 3.31066e-15 0)
(1 3.62744e-15 0)
(1 6.1436e-15 0)
(1 -6.82956e-15 0)
(1 3.36316e-15 0)
(1 1.01659e-15 0)
(1 1.1776e-14 0)
(1 7.7151e-15 0)
(1 -2.84572e-15 0)
(1 1.4219e-15 0)
(1 2.01571e-15 0)
(1 -1.22258e-15 0)
(1 5.20722e-15 0)
(1 7.43306e-16 0)
(1 3.14437e-15 0)
(1 -9.51577e-16 0)
(1 1.58215e-15 0)
(1 4.47014e-15 0)
(1 4.15726e-15 0)
(1 4.21972e-15 0)
(1 7.54147e-15 0)
(1 9.74052e-15 0)
(1 6.31089e-15 0)
(1 2.1218e-15 0)
(1 7.28711e-15 0)
(1 9.6283e-15 0)
(1 6.84866e-15 0)
(1 6.78171e-15 0)
(1 8.16032e-15 0)
(1 1.21593e-14 0)
(1 1.02192e-14 0)
(1 2.31138e-15 0)
(1 7.2155e-15 0)
(1 4.17439e-15 0)
(1 6.66443e-15 0)
(1 8.71607e-15 0)
(1 1.29877e-14 0)
(1 1.34202e-14 0)
(1 4.9371e-15 0)
(1 6.62184e-15 0)
(1 9.3458e-15 0)
(1 5.41802e-15 0)
(1 2.7611e-15 0)
(1 2.46179e-15 0)
(1 4.36806e-15 0)
(1 4.67644e-15 0)
(1 1.26268e-15 0)
(1 -1.83417e-15 0)
(1 -8.57076e-15 0)
(1 -1.34034e-15 0)
(1 2.37879e-16 0)
(1 2.82863e-15 0)
(1 4.92541e-15 0)
(1 5.45079e-15 0)
(1 3.741e-15 0)
(1 9.92297e-15 0)
(1 5.53976e-15 0)
(1 1.0748e-14 0)
(1 1.18076e-14 0)
(1 1.2298e-14 0)
(1 1.0158e-14 0)
(1 -1.4195e-15 0)
(1 -2.38471e-15 0)
(1 -3.06209e-15 0)
(1 8.46824e-15 0)
(1 1.26623e-15 0)
(1 6.15827e-15 0)
(1 7.90231e-15 0)
(1 8.50002e-15 0)
(1 -2.78111e-16 0)
(1 1.91547e-15 0)
(1 -6.17646e-15 0)
(1 -1.32418e-14 0)
(1 7.53954e-16 0)
(1 -5.25783e-16 0)
(1 1.75165e-16 0)
(1 -1.99452e-15 0)
(1 -4.74298e-16 0)
(1 -1.00357e-14 0)
(1 -1.30004e-14 0)
(1 -2.75927e-15 0)
(1 -4.00002e-15 0)
(1 6.23671e-15 0)
(1 2.33635e-15 0)
(1 -4.1323e-15 0)
(1 -6.25604e-15 0)
(1 -7.1663e-15 0)
(1 -9.59219e-15 0)
(1 -4.82909e-15 0)
(1 2.45711e-15 0)
(1 -5.44669e-15 0)
(1 2.41091e-15 0)
(1 4.78536e-15 0)
(1 4.82756e-15 0)
(1 9.36699e-15 0)
(1 -3.63512e-16 0)
(1 4.64214e-15 0)
(1 7.95919e-15 0)
(1 3.38664e-16 0)
(1 2.32789e-15 0)
(1 2.27273e-15 0)
(1 3.71177e-15 0)
(1 6.33141e-15 0)
(1 7.51444e-15 0)
(1 -3.30402e-15 0)
(1 -9.62796e-15 0)
(1 -9.01728e-15 0)
(1 1.4184e-15 0)
(1 2.66305e-15 0)
(1 -2.54643e-15 0)
(1 -2.0354e-16 0)
(1 7.63387e-15 0)
(1 6.87519e-15 0)
(1 2.9944e-15 0)
(1 -2.63827e-15 0)
(1 -8.13888e-16 0)
(1 3.25924e-15 0)
(1 7.8824e-15 0)
(1 2.04433e-15 0)
(1 5.16312e-17 0)
(1 -8.83887e-18 0)
(1 5.05026e-15 0)
(1 -5.8187e-15 0)
(1 4.34479e-15 0)
(1 6.77365e-15 0)
(1 2.75384e-15 0)
(1 3.09934e-15 0)
(1 9.47818e-15 0)
(1 3.93123e-15 0)
(1 1.22316e-14 0)
(1 4.16543e-15 0)
(1 5.60223e-15 0)
(1 5.43882e-15 0)
(1 8.20132e-15 0)
(1 4.7968e-15 0)
(1 1.07951e-14 0)
(1 8.60443e-15 0)
(1 8.30938e-15 0)
(1 1.76652e-15 0)
(1 8.14868e-15 0)
(1 1.10302e-14 0)
(1 1.73897e-15 0)
(1 4.53128e-15 0)
(1 1.73749e-16 0)
(1 2.82999e-15 0)
(1 1.84465e-15 0)
(1 -5.59309e-15 0)
(1 -2.34482e-15 0)
(1 -6.22273e-15 0)
(1 -1.98016e-15 0)
(1 2.5327e-15 0)
(1 9.83232e-15 0)
(1 4.31748e-15 0)
(1 8.83023e-15 0)
(1 5.48294e-15 0)
(1 8.57933e-15 0)
(1 7.31894e-15 0)
(1 9.97695e-15 0)