/*--------------------------------*- C++ -*----------------------------------*\
| =========                 |                                                 |
| \\      /  F ield         | OpenFOAM: The Open Source CFD Toolbox           |
|  \\    /   O peration     | Version:  v2012                                 |
|   \\  /    A nd           | Website:  www.openfoam.com                      |
|    \\/     M anipulation  |                                                 |
\*---------------------------------------------------------------------------*/
FoamFile
{
    version     2.0;
    format      ascii;
    class       surfaceScalarField;
    location    "0.25";
    object      phi;
}
// * * * * * * * * * * * * * * * * * * * * * * * * * * * * * * * * * * * * * //

dimensions      [0 3 -1 0 0 0 0];
oriented        oriented;


internalField   nonuniform List<scalar> 
130560
(
3.33614e-06
-3.33614e-06
6.67205e-06
-3.33591e-06
1.00075e-05
-3.33546e-06
1.33423e-05
-3.33478e-06
1.66762e-05
-3.33388e-06
2.00089e-05
-3.33275e-06
2.33403e-05
-3.33138e-06
2.66701e-05
-3.32978e-06
2.9998e-05
-3.32795e-06
3.33239e-05
-3.32587e-06
3.66475e-05
-3.32355e-06
3.99684e-05
-3.32099e-06
4.32866e-05
-3.31817e-06
4.66017e-05
-3.3151e-06
4.99135e-05
-3.31177e-06
5.32217e-05
-3.30817e-06
5.6526e-05
-3.3043e-06
5.98261e-05
-3.30015e-06
6.31218e-05
-3.29572e-06
6.64128e-05
-3.29099e-06
6.96988e-05
-3.28597e-06
7.29794e-05
-3.28065e-06
7.62545e-05
-3.27501e-06
7.95235e-05
-3.26905e-06
8.27863e-05
-3.26276e-06
8.60424e-05
-3.25614e-06
8.92916e-05
-3.24917e-06
9.25334e-05
-3.24185e-06
9.57676e-05
-3.23417e-06
9.89937e-05
-3.22612e-06
0.000102211
-3.21768e-06
0.00010542
-3.20886e-06
0.00010862
-3.19964e-06
0.00011181
-3.19001e-06
0.00011499
-3.17996e-06
0.000118159
-3.16948e-06
0.000121318
-3.15857e-06
0.000124465
-3.14722e-06
0.000127601
-3.1354e-06
0.000130724
-3.12312e-06
0.000133834
-3.11037e-06
0.000136931
-3.09713e-06
0.000140015
-3.0834e-06
0.000143084
-3.06917e-06
0.000146138
-3.05442e-06
0.000149177
-3.03915e-06
0.000152201
-3.02336e-06
0.000155208
-3.00702e-06
0.000158198
-2.99015e-06
0.000161171
-2.97271e-06
0.000164125
-2.95472e-06
0.000167061
-2.93615e-06
0.000169978
-2.91701e-06
0.000172876
-2.89729e-06
0.000175753
-2.87698e-06
0.000178609
-2.85608e-06
0.000181443
-2.83457e-06
0.000184256
-2.81246e-06
0.000187046
-2.78974e-06
0.000189812
-2.76641e-06
0.000192554
-2.74246e-06
0.000195272
-2.71788e-06
0.000197965
-2.69269e-06
0.000200632
-2.66687e-06
0.000203272
-2.64042e-06
0.000205886
-2.61335e-06
0.000208471
-2.58564e-06
0.000211029
-2.55731e-06
0.000213557
-2.52835e-06
0.000216056
-2.49877e-06
0.000218524
-2.46856e-06
0.000220962
-2.43773e-06
0.000223368
-2.40628e-06
0.000225742
-2.37421e-06
0.000228084
-2.34154e-06
0.000230392
-2.30826e-06
0.000232667
-2.27437e-06
0.000234907
-2.23989e-06
0.000237111
-2.20483e-06
0.000239281
-2.16918e-06
0.000241413
-2.13296e-06
0.00024351
-2.09617e-06
0.000245568
-2.05883e-06
0.000247589
-2.02094e-06
0.000249572
-1.9825e-06
0.000251515
-1.94354e-06
0.00025342
-1.90406e-06
0.000255284
-1.86408e-06
0.000257107
-1.82359e-06
0.00025889
-1.78263e-06
0.000260631
-1.74118e-06
0.00026233
-1.69928e-06
0.000263987
-1.65693e-06
0.000265601
-1.61414e-06
0.000267172
-1.57093e-06
0.0002687
-1.52731e-06
0.000270183
-1.48329e-06
0.000271622
-1.43889e-06
0.000273016
-1.39412e-06
0.000274365
-1.34899e-06
0.000275668
-1.30352e-06
0.000276926
-1.25773e-06
0.000278138
-1.21162e-06
0.000279303
-1.16521e-06
0.000280421
-1.11851e-06
0.000281493
-1.07154e-06
0.000282517
-1.02432e-06
0.000283494
-9.76847e-07
0.000284423
-9.29146e-07
0.000285305
-8.8123e-07
0.000286138
-8.3311e-07
0.000286922
-7.84802e-07
0.000287659
-7.36318e-07
0.000288346
-6.87672e-07
0.000288985
-6.38877e-07
0.000289575
-5.89946e-07
0.000290116
-5.40893e-07
0.000290608
-4.9173e-07
0.00029105
-4.4247e-07
0.000291444
-3.93125e-07
0.000291787
-3.43709e-07
0.000292081
-2.94233e-07
0.000292326
-2.4471e-07
0.000292521
-1.95152e-07
0.000292667
-1.45571e-07
0.000292763
-9.59787e-08
0.000292809
-4.63875e-08
0.000292806
3.19105e-09
0.000292753
5.27452e-08
0.000292651
1.02263e-07
0.000292499
1.51734e-07
0.000292298
2.01146e-07
0.000292048
2.50486e-07
0.000291748
2.99745e-07
0.000291399
3.4891e-07
0.000291001
3.9797e-07
0.000290554
4.46914e-07
0.000290058
4.9573e-07
0.000289514
5.44406e-07
0.000288921
5.92931e-07
0.00028828
6.41294e-07
0.00028759
6.89482e-07
0.000286853
7.37485e-07
0.000286068
7.85291e-07
0.000285235
8.32887e-07
0.000284354
8.80263e-07
0.000283427
9.27405e-07
0.000282453
9.74304e-07
0.000281432
1.02095e-06
0.000280364
1.06732e-06
0.000279251
1.11341e-06
0.000278092
1.15922e-06
0.000276887
1.20471e-06
0.000275637
1.2499e-06
0.000274342
1.29475e-06
0.000273003
1.33927e-06
0.00027162
1.38343e-06
0.000270192
1.42723e-06
0.000268722
1.47065e-06
0.000267208
1.51369e-06
0.000265652
1.55633e-06
0.000264053
1.59856e-06
0.000262413
1.64037e-06
0.000260731
1.68175e-06
0.000259008
1.72269e-06
0.000257245
1.76317e-06
0.000255442
1.80319e-06
0.000253599
1.84274e-06
0.000251718
1.8818e-06
0.000249797
1.92037e-06
0.000247839
1.95843e-06
0.000245843
1.99599e-06
0.00024381
2.03302e-06
0.00024174
2.06952e-06
0.000239635
2.10549e-06
0.000237494
2.14092e-06
0.000235318
2.17579e-06
0.000233108
2.2101e-06
0.000230864
2.24385e-06
0.000228587
2.27703e-06
0.000226277
2.30964e-06
0.000223936
2.34166e-06
0.000221563
2.3731e-06
0.000219159
2.40395e-06
0.000216724
2.43421e-06
0.000214261
2.46388e-06
0.000211768
2.49295e-06
0.000209246
2.52142e-06
0.000206697
2.54929e-06
0.00020412
2.57656e-06
0.000201517
2.60322e-06
0.000198888
2.62929e-06
0.000196233
2.65476e-06
0.000193553
2.67963e-06
0.00019085
2.7039e-06
0.000188122
2.72757e-06
0.000185371
2.75065e-06
0.000182598
2.77315e-06
0.000179803
2.79505e-06
0.000176987
2.81638e-06
0.00017415
2.83713e-06
0.000171292
2.8573e-06
0.000168415
2.87691e-06
0.000165519
2.89595e-06
0.000162605
2.91444e-06
0.000159673
2.93238e-06
0.000156723
2.94978e-06
0.000153756
2.96664e-06
0.000150773
2.98297e-06
0.000147774
2.99878e-06
0.00014476
3.01408e-06
0.000141732
3.02887e-06
0.000138688
3.04316e-06
0.000135631
3.05696e-06
0.000132561
3.07028e-06
0.000129478
3.08313e-06
0.000126382
3.09551e-06
0.000123275
3.10744e-06
0.000120156
3.11892e-06
0.000117026
3.12996e-06
0.000113886
3.14058e-06
0.000110735
3.15078e-06
0.000107574
3.16056e-06
0.000104404
3.16994e-06
0.000101225
3.17893e-06
9.80378e-05
3.18754e-06
9.48421e-05
3.19577e-06
9.16384e-05
3.20363e-06
8.84273e-05
3.21114e-06
8.5209e-05
3.21829e-06
8.19839e-05
3.22511e-06
7.87523e-05
3.23159e-06
7.55146e-05
3.23774e-06
7.2271e-05
3.24358e-06
6.90219e-05
3.2491e-06
6.57676e-05
3.25432e-06
6.25083e-05
3.25925e-06
5.92445e-05
3.26388e-06
5.59762e-05
3.26823e-06
5.27039e-05
3.2723e-06
4.94278e-05
3.27611e-06
4.61482e-05
3.27964e-06
4.28652e-05
3.28292e-06
3.95793e-05
3.28594e-06
3.62906e-05
3.28871e-06
3.29994e-05
3.29123e-06
2.97058e-05
3.29352e-06
2.64103e-05
3.29556e-06
2.31129e-05
3.29737e-06
1.9814e-05
3.29894e-06
1.65137e-05
3.30029e-06
1.32123e-05
3.3014e-06
9.90999e-06
3.3023e-06
6.60703e-06
3.30296e-06
3.30363e-06
3.30341e-06
3.30363e-06
3.33636e-06
-6.6725e-06
6.6725e-06
-6.67205e-06
1.00082e-05
-6.67115e-06
1.33432e-05
-6.66979e-06
1.66773e-05
-6.66799e-06
2.00103e-05
-6.66572e-06
2.33419e-05
-6.66299e-06
2.66719e-05
-6.6598e-06
3.00001e-05
-6.65613e-06
3.33262e-05
-6.65199e-06
3.665e-05
-6.64735e-06
3.99712e-05
-6.64223e-06
4.32897e-05
-6.6366e-06
4.6605e-05
-6.63046e-06
4.99171e-05
-6.6238e-06
5.32255e-05
-6.61661e-06
5.65301e-05
-6.60888e-06
5.98305e-05
-6.60058e-06
6.31265e-05
-6.59173e-06
6.64178e-05
-6.58229e-06
6.97041e-05
-6.57225e-06
7.2985e-05
-6.5616e-06
7.62604e-05
-6.55034e-06
7.95298e-05
-6.53843e-06
8.27928e-05
-6.52586e-06
8.60493e-05
-6.51262e-06
8.92989e-05
-6.4987e-06
9.25411e-05
-6.48406e-06
9.57756e-05
-6.46871e-06
9.90021e-05
-6.45261e-06
0.00010222
-6.43575e-06
0.000105429
-6.41811e-06
0.000108629
-6.39968e-06
0.00011182
-6.38043e-06
0.000115
-6.36034e-06
0.00011817
-6.3394e-06
0.000121329
-6.31759e-06
0.000124477
-6.29489e-06
0.000127613
-6.27127e-06
0.000130736
-6.24672e-06
0.000133847
-6.22122e-06
0.000136945
-6.19476e-06
0.000140029
-6.1673e-06
0.000143098
-6.13884e-06
0.000146153
-6.10936e-06
0.000149193
-6.07884e-06
0.000152217
-6.04725e-06
0.000155224
-6.01459e-06
0.000158215
-5.98084e-06
0.000161188
-5.94598e-06
0.000164144
-5.91e-06
0.00016708
-5.87288e-06
0.000169998
-5.83461e-06
0.000172896
-5.79517e-06
0.000175774
-5.75456e-06
0.00017863
-5.71275e-06
0.000181465
-5.66975e-06
0.000184278
-5.62553e-06
0.000187069
-5.58009e-06
0.000189836
-5.53343e-06
0.000192579
-5.48553e-06
0.000195297
-5.43639e-06
0.000197991
-5.386e-06
0.000200658
-5.33436e-06
0.000203299
-5.28147e-06
0.000205913
-5.22732e-06
0.0002085
-5.17191e-06
0.000211057
-5.11525e-06
0.000213586
-5.05733e-06
0.000216086
-4.99816e-06
0.000218555
-4.93774e-06
0.000220993
-4.87607e-06
0.0002234
-4.81317e-06
0.000225775
-4.74904e-06
0.000228117
-4.68368e-06
0.000230426
-4.61711e-06
0.000232701
-4.54934e-06
0.000234942
-4.48038e-06
0.000237147
-4.41024e-06
0.000239317
-4.33894e-06
0.00024145
-4.26649e-06
0.000243547
-4.1929e-06
0.000245606
-4.11821e-06
0.000247628
-4.04241e-06
0.000249611
-3.96554e-06
0.000251555
-3.88761e-06
0.000253459
-3.80864e-06
0.000255324
-3.72865e-06
0.000257148
-3.64767e-06
0.000258931
-3.56573e-06
0.000260673
-3.48283e-06
0.000262373
-3.39901e-06
0.00026403
-3.31429e-06
0.000265645
-3.2287e-06
0.000267216
-3.14227e-06
0.000268744
-3.05501e-06
0.000270227
-2.96696e-06
0.000271667
-2.87815e-06
0.000273061
-2.78859e-06
0.00027441
-2.69833e-06
0.000275714
-2.60738e-06
0.000276972
-2.51577e-06
0.000278184
-2.42354e-06
0.00027935
-2.3307e-06
0.000280468
-2.2373e-06
0.00028154
-2.14335e-06
0.000282565
-2.04888e-06
0.000283542
-1.95393e-06
0.000284471
-1.85851e-06
0.000285353
-1.76266e-06
0.000286186
-1.66641e-06
0.000286971
-1.56978e-06
0.000287707
-1.4728e-06
0.000288395
-1.37549e-06
0.000289034
-1.27789e-06
0.000289624
-1.18002e-06
0.000290165
-1.0819e-06
0.000290657
-9.83559e-07
0.0002911
-8.85026e-07
0.000291493
-7.86324e-07
0.000291837
-6.87479e-07
0.000292131
-5.88515e-07
0.000292376
-4.89457e-07
0.000292571
-3.90328e-07
0.000292716
-2.91154e-07
0.000292812
-1.91959e-07
0.000292859
-9.27644e-08
0.000292856
6.40437e-09
0.000292803
1.05524e-07
0.000292701
2.04572e-07
0.000292549
3.03525e-07
0.000292348
4.0236e-07
0.000292097
5.01053e-07
0.000291797
5.99582e-07
0.000291448
6.97924e-07
0.00029105
7.96056e-07
0.000290603
8.93954e-07
0.000290107
9.91597e-07
0.000289563
1.08896e-06
0.000288969
1.18602e-06
0.000288328
1.28276e-06
0.000287638
1.37915e-06
0.000286901
1.47517e-06
0.000286115
1.57079e-06
0.000285282
1.66599e-06
0.000284402
1.76076e-06
0.000283474
1.85505e-06
0.000282499
1.94886e-06
0.000281478
2.04216e-06
0.000280411
2.13492e-06
0.000279297
2.22712e-06
0.000278137
2.31873e-06
0.000276932
2.40974e-06
0.000275682
2.50012e-06
0.000274387
2.58984e-06
0.000273047
2.67888e-06
0.000271664
2.76722e-06
0.000270236
2.85483e-06
0.000268765
2.94169e-06
0.000267251
3.02778e-06
0.000265694
3.11307e-06
0.000264095
3.19755e-06
0.000262454
3.28118e-06
0.000260772
3.36395e-06
0.000259049
3.44583e-06
0.000257285
3.52681e-06
0.000255482
3.60686e-06
0.000253638
3.68596e-06
0.000251756
3.76409e-06
0.000249835
3.84124e-06
0.000247876
3.91738e-06
0.00024588
3.99249e-06
0.000243846
4.06657e-06
0.000241776
4.13958e-06
0.00023967
4.21153e-06
0.000237529
4.28238e-06
0.000235352
4.35213e-06
0.000233142
4.42077e-06
0.000230897
4.48827e-06
0.00022862
4.55464e-06
0.000226309
4.61985e-06
0.000223967
4.68391e-06
0.000221594
4.74679e-06
0.000219189
4.8085e-06
0.000216754
4.86902e-06
0.00021429
4.92836e-06
0.000211796
4.98649e-06
0.000209274
5.04344e-06
0.000206724
5.09918e-06
0.000204147
5.15371e-06
0.000201543
5.20705e-06
0.000198913
5.25918e-06
0.000196258
5.31012e-06
0.000193578
5.35985e-06
0.000190873
5.40839e-06
0.000188145
5.45573e-06
0.000185394
5.5019e-06
0.00018262
5.54688e-06
0.000179825
5.59069e-06
0.000177008
5.63333e-06
0.00017417
5.67482e-06
0.000171312
5.71517e-06
0.000168435
5.75438e-06
0.000165538
5.79246e-06
0.000162623
5.82944e-06
0.00015969
5.86531e-06
0.00015674
5.9001e-06
0.000153773
5.93381e-06
0.000150789
5.96646e-06
0.00014779
5.99808e-06
0.000144775
6.02866e-06
0.000141746
6.05823e-06
0.000138702
6.0868e-06
0.000135645
6.1144e-06
0.000132574
6.14103e-06
0.00012949
6.16672e-06
0.000126394
6.19148e-06
0.000123287
6.21532e-06
0.000120167
6.23828e-06
0.000117037
6.26036e-06
0.000113896
6.28158e-06
0.000110745
6.30196e-06
0.000107584
6.32152e-06
0.000104413
6.34028e-06
0.000101234
6.35825e-06
9.80461e-05
6.37546e-06
9.485e-05
6.39191e-06
9.1646e-05
6.40763e-06
8.84345e-05
6.42263e-06
8.52159e-05
6.43693e-06
8.19904e-05
6.45055e-06
7.87585e-05
6.4635e-06
7.55204e-05
6.4758e-06
7.22766e-05
6.48746e-06
6.90271e-05
6.4985e-06
6.57725e-05
6.50894e-06
6.2513e-05
6.51878e-06
5.92488e-05
6.52804e-06
5.59803e-05
6.53674e-06
5.27077e-05
6.54488e-06
4.94314e-05
6.55248e-06
4.61515e-05
6.55955e-06
4.28683e-05
6.5661e-06
3.95821e-05
6.57213e-06
3.62931e-05
6.57767e-06
3.30017e-05
6.58271e-06
2.97079e-05
6.58727e-06
2.64121e-05
6.59135e-06
2.31145e-05
6.59497e-06
1.98153e-05
6.59811e-06
1.65148e-05
6.6008e-06
1.32132e-05
6.60303e-06
9.91066e-06
6.60482e-06
6.60748e-06
6.60615e-06
3.30385e-06
6.60703e-06
6.60748e-06
3.33681e-06
-1.00093e-05
6.6734e-06
-1.00086e-05
1.00095e-05
-1.00073e-05
1.3345e-05
-1.00053e-05
1.66796e-05
-1.00026e-05
2.0013e-05
-9.99916e-06
2.33451e-05
-9.99507e-06
2.66756e-05
-9.99029e-06
3.00042e-05
-9.9848e-06
3.33308e-05
-9.97859e-06
3.66551e-05
-9.97165e-06
3.99769e-05
-9.96397e-06
4.32958e-05
-9.95554e-06
4.66117e-05
-9.94635e-06
4.99243e-05
-9.93637e-06
5.32333e-05
-9.9256e-06
5.65384e-05
-9.91401e-06
5.98394e-05
-9.90159e-06
6.3136e-05
-9.88831e-06
6.64279e-05
-9.87417e-06
6.97147e-05
-9.85914e-06
7.29963e-05
-9.84319e-06
7.62723e-05
-9.8263e-06
7.95423e-05
-9.80846e-06
8.28061e-05
-9.78963e-06
8.60633e-05
-9.7698e-06
8.93135e-05
-9.74893e-06
9.25564e-05
-9.727e-06
9.57917e-05
-9.70399e-06
9.9019e-05
-9.67986e-06
0.000102238
-9.6546e-06
0.000105448
-9.62817e-06
0.000108649
-9.60054e-06
0.00011184
-9.57169e-06
0.000115021
-9.54158e-06
0.000118192
-9.5102e-06
0.000121352
-9.4775e-06
0.000124501
-9.44347e-06
0.000127637
-9.40807e-06
0.000130762
-9.37127e-06
0.000133874
-9.33305e-06
0.000136972
-9.29337e-06
0.000140057
-9.25221e-06
0.000143128
-9.20955e-06
0.000146184
-9.16534e-06
0.000149225
-9.11958e-06
0.00015225
-9.07222e-06
0.000155258
-9.02326e-06
0.00015825
-8.97265e-06
0.000161224
-8.92038e-06
0.000164181
-8.86643e-06
0.000167119
-8.81076e-06
0.000170038
-8.75337e-06
0.000172937
-8.69423e-06
0.000175815
-8.63332e-06
0.000178673
-8.57063e-06
0.00018151
-8.50613e-06
0.000184324
-8.43982e-06
0.000187115
-8.37168e-06
0.000189884
-8.30169e-06
0.000192628
-8.22985e-06
0.000195348
-8.15614e-06
0.000198042
-8.08057e-06
0.000200711
-8.00311e-06
0.000203353
-7.92377e-06
0.000205969
-7.84255e-06
0.000208556
-7.75944e-06
0.000211115
-7.67444e-06
0.000213646
-7.58756e-06
0.000216146
-7.4988e-06
0.000218617
-7.40816e-06
0.000221056
-7.31566e-06
0.000223464
-7.22129e-06
0.00022584
-7.12508e-06
0.000228184
-7.02704e-06
0.000230494
-6.92717e-06
0.00023277
-6.8255e-06
0.000235012
-6.72204e-06
0.000237218
-6.61681e-06
0.000239389
-6.50984e-06
0.000241524
-6.40115e-06
0.000243622
-6.29075e-06
0.000245682
-6.17868e-06
0.000247705
-6.06497e-06
0.000249689
-5.94963e-06
0.000251634
-5.83271e-06
0.000253539
-5.71423e-06
0.000255405
-5.59422e-06
0.00025723
-5.47273e-06
0.000259014
-5.34977e-06
0.000260757
-5.2254e-06
0.000262457
-5.09964e-06
0.000264116
-4.97253e-06
0.000265731
-4.84411e-06
0.000267303
-4.71443e-06
0.000268832
-4.58351e-06
0.000270316
-4.4514e-06
0.000271756
-4.31814e-06
0.000273151
-4.18378e-06
0.000274501
-4.04834e-06
0.000275806
-3.91188e-06
0.000277064
-3.77444e-06
0.000278277
-3.63605e-06
0.000279443
-3.49677e-06
0.000280562
-3.35662e-06
0.000281635
-3.21566e-06
0.00028266
-3.07393e-06
0.000283637
-2.93146e-06
0.000284567
-2.78831e-06
0.000285449
-2.6445e-06
0.000286283
-2.50009e-06
0.000287068
-2.35511e-06
0.000287805
-2.20961e-06
0.000288493
-2.06361e-06
0.000289132
-1.91718e-06
0.000289722
-1.77033e-06
0.000290264
-1.62312e-06
0.000290756
-1.47558e-06
0.000291198
-1.32775e-06
0.000291592
-1.17967e-06
0.000291936
-1.03137e-06
0.00029223
-8.8289e-07
0.000292475
-7.34273e-07
0.00029267
-5.8555e-07
0.000292816
-4.36759e-07
0.000292912
-2.87936e-07
0.000292958
-1.39115e-07
0.000292955
9.66709e-09
0.000292902
1.58376e-07
0.000292799
3.06977e-07
0.000292648
4.55435e-07
0.000292446
6.03716e-07
0.000292195
7.51784e-07
0.000291895
8.99606e-07
0.000291546
1.04715e-06
0.000291148
1.19437e-06
0.000290701
1.34125e-06
0.000290204
1.48774e-06
0.00028966
1.63382e-06
0.000289066
1.77944e-06
0.000288424
1.92457e-06
0.000287734
2.06919e-06
0.000286996
2.21324e-06
0.00028621
2.35671e-06
0.000285377
2.49954e-06
0.000284496
2.64172e-06
0.000283568
2.78319e-06
0.000282593
2.92393e-06
0.000281571
3.06391e-06
0.000280503
3.20308e-06
0.000279388
3.34141e-06
0.000278228
3.47886e-06
0.000277023
3.6154e-06
0.000275772
3.751e-06
0.000274476
3.88561e-06
0.000273136
4.0192e-06
0.000271751
4.15174e-06
0.000270323
4.28318e-06
0.000268851
4.41351e-06
0.000267336
4.54267e-06
0.000265779
4.67064e-06
0.000264179
4.79737e-06
0.000262537
4.92285e-06
0.000260854
5.04703e-06
0.00025913
5.16988e-06
0.000257365
5.29137e-06
0.000255561
5.41147e-06
0.000253717
5.53015e-06
0.000251833
5.64737e-06
0.000249911
5.76311e-06
0.000247951
5.87734e-06
0.000245954
5.99004e-06
0.000243919
6.10117e-06
0.000241848
6.21072e-06
0.000239741
6.31865e-06
0.000237598
6.42495e-06
0.000235421
6.52959e-06
0.000233209
6.63256e-06
0.000230964
6.73384e-06
0.000228685
6.8334e-06
0.000226373
6.93123e-06
0.00022403
7.02732e-06
0.000221655
7.12166e-06
0.000219249
7.21423e-06
0.000216813
7.30502e-06
0.000214348
7.39403e-06
0.000211853
7.48124e-06
0.00020933
7.56665e-06
0.000206779
7.65027e-06
0.0002042
7.73208e-06
0.000201595
7.81208e-06
0.000198964
7.89028e-06
0.000196308
7.96667e-06
0.000193626
8.04127e-06
0.000190921
8.11407e-06
0.000188191
8.18508e-06
0.000185439
8.25432e-06
0.000182664
8.32178e-06
0.000179867
8.38749e-06
0.000177049
8.45145e-06
0.00017421
8.51367e-06
0.000171351
8.57417e-06
0.000168473
8.63297e-06
0.000165575
8.69009e-06
0.000162659
8.74553e-06
0.000159725
8.79932e-06
0.000156773
8.85149e-06
0.000153805
8.90204e-06
0.000150821
8.951e-06
0.00014782
8.9984e-06
0.000144805
9.04426e-06
0.000141774
9.08859e-06
0.00013873
9.13143e-06
0.000135671
9.1728e-06
0.0001326
9.21273e-06
0.000129515
9.25124e-06
0.000126418
9.28835e-06
0.00012331
9.3241e-06
0.000120189
9.35851e-06
0.000117058
9.39161e-06
0.000113916
9.42342e-06
0.000110764
9.45397e-06
0.000107602
9.48329e-06
0.000104431
9.5114e-06
0.000101251
9.53834e-06
9.80626e-05
9.56412e-06
9.48657e-05
9.58878e-06
9.1661e-05
9.61234e-06
8.84488e-05
9.63482e-06
8.52295e-05
9.65625e-06
8.20034e-05
9.67666e-06
7.87708e-05
9.69607e-06
7.55321e-05
9.71449e-06
7.22876e-05
9.73197e-06
6.90376e-05
9.74852e-06
6.57824e-05
9.76415e-06
6.25222e-05
9.7789e-06
5.92575e-05
9.79277e-06
5.59885e-05
9.8058e-06
5.27153e-05
9.818e-06
4.94384e-05
9.82939e-06
4.6158e-05
9.83997e-06
4.28743e-05
9.84978e-06
3.95876e-05
9.85883e-06
3.62982e-05
9.86712e-06
3.30062e-05
9.87468e-06
2.9712e-05
9.88151e-06
2.64157e-05
9.88762e-06
2.31176e-05
9.89303e-06
1.9818e-05
9.89774e-06
1.6517e-05
9.90177e-06
1.3215e-05
9.90512e-06
9.912e-06
9.90778e-06
6.60837e-06
9.90978e-06
3.30429e-06
9.91111e-06
9.91177e-06
3.33749e-06
-1.33468e-05
6.67475e-06
-1.33459e-05
1.00116e-05
-1.33441e-05
1.33477e-05
-1.33414e-05
1.6683e-05
-1.33378e-05
2.00171e-05
-1.33333e-05
2.33499e-05
-1.33279e-05
2.66811e-05
-1.33215e-05
3.00105e-05
-1.33142e-05
3.33378e-05
-1.33059e-05
3.66628e-05
-1.32967e-05
3.99853e-05
-1.32865e-05
4.3305e-05
-1.32752e-05
4.66217e-05
-1.3263e-05
4.99351e-05
-1.32497e-05
5.32449e-05
-1.32354e-05
5.65508e-05
-1.322e-05
5.98527e-05
-1.32034e-05
6.31501e-05
-1.31858e-05
6.64429e-05
-1.3167e-05
6.97307e-05
-1.31469e-05
7.30132e-05
-1.31257e-05
7.62902e-05
-1.31032e-05
7.95612e-05
-1.30795e-05
8.2826e-05
-1.30544e-05
8.60842e-05
-1.3028e-05
8.93355e-05
-1.30002e-05
9.25795e-05
-1.2971e-05
9.58159e-05
-1.29404e-05
9.90443e-05
-1.29083e-05
0.000102264
-1.28746e-05
0.000105476
-1.28394e-05
0.000108678
-1.28026e-05
0.00011187
-1.27642e-05
0.000115053
-1.27241e-05
0.000118225
-1.26823e-05
0.000121386
-1.26388e-05
0.000124536
-1.25934e-05
0.000127674
-1.25463e-05
0.0001308
-1.24972e-05
0.000133913
-1.24463e-05
0.000137013
-1.23935e-05
0.0001401
-1.23386e-05
0.000143172
-1.22818e-05
0.00014623
-1.22229e-05
0.000149272
-1.21619e-05
0.000152299
-1.20988e-05
0.000155309
-1.20336e-05
0.000158302
-1.19661e-05
0.000161278
-1.18965e-05
0.000164237
-1.18246e-05
0.000167176
-1.17504e-05
0.000170097
-1.16739e-05
0.000172998
-1.15951e-05
0.000175878
-1.15139e-05
0.000178738
-1.14303e-05
0.000181576
-1.13443e-05
0.000184392
-1.12559e-05
0.000187186
-1.11651e-05
0.000189956
-1.10718e-05
0.000192702
-1.0976e-05
0.000195423
-1.08778e-05
0.00019812
-1.0777e-05
0.000200791
-1.06737e-05
0.000203435
-1.0568e-05
0.000206052
-1.04597e-05
0.000208641
-1.03489e-05
0.000211202
-1.02355e-05
0.000213734
-1.01197e-05
0.000216237
-1.00013e-05
0.000218709
-9.88045e-06
0.000221151
-9.7571e-06
0.000223561
-9.63126e-06
0.000225939
-9.50296e-06
0.000228284
-9.37221e-06
0.000230596
-9.23903e-06
0.000232874
-9.10344e-06
0.000235117
-8.96547e-06
0.000237325
-8.82514e-06
0.000239498
-8.68247e-06
0.000241634
-8.53751e-06
0.000243734
-8.39027e-06
0.000245796
-8.2408e-06
0.00024782
-8.08914e-06
0.000249806
-7.93531e-06
0.000251752
-7.77937e-06
0.00025366
-7.62134e-06
0.000255527
-7.46128e-06
0.000257353
-7.29923e-06
0.000259139
-7.13524e-06
0.000260882
-6.96935e-06
0.000262584
-6.80161e-06
0.000264244
-6.63208e-06
0.000265861
-6.46079e-06
0.000267434
-6.28782e-06
0.000268964
-6.1132e-06
0.000270449
-5.93699e-06
0.00027189
-5.75925e-06
0.000273287
-5.58003e-06
0.000274638
-5.39939e-06
0.000275943
-5.21738e-06
0.000277203
-5.03405e-06
0.000278416
-4.84947e-06
0.000279583
-4.66369e-06
0.000280703
-4.47677e-06
0.000281776
-4.28875e-06
0.000282802
-4.09971e-06
0.00028378
-3.90969e-06
0.000284711
-3.71875e-06
0.000285593
-3.52695e-06
0.000286428
-3.33434e-06
0.000287213
-3.14097e-06
0.000287951
-2.9469e-06
0.000288639
-2.75218e-06
0.000289279
-2.55687e-06
0.00028987
-2.36102e-06
0.000290411
-2.16467e-06
0.000290904
-1.96789e-06
0.000291347
-1.77073e-06
0.00029174
-1.57322e-06
0.000292084
-1.37543e-06
0.000292379
-1.17741e-06
0.000292624
-9.79192e-07
0.000292819
-7.8084e-07
0.000292964
-5.82396e-07
0.00029306
-3.83909e-07
0.000293107
-1.85427e-07
0.000293103
1.30041e-08
0.00029305
2.11337e-07
0.000292948
4.09526e-07
0.000292796
6.07524e-07
0.000292594
8.05285e-07
0.000292343
1.00276e-06
0.000292043
1.19991e-06
0.000291693
1.39669e-06
0.000291295
1.59304e-06
0.000290847
1.78893e-06
0.000290351
1.98431e-06
0.000289805
2.17913e-06
0.000289211
2.37335e-06
0.000288569
2.56691e-06
0.000287878
2.75978e-06
0.00028714
2.95191e-06
0.000286353
3.14325e-06
0.000285519
3.33375e-06
0.000284637
3.52337e-06
0.000283708
3.71206e-06
0.000282733
3.89978e-06
0.00028171
4.08646e-06
0.000280641
4.27208e-06
0.000279526
4.45657e-06
0.000278365
4.6399e-06
0.000277158
4.82201e-06
0.000275906
5.00286e-06
0.00027461
5.1824e-06
0.000273268
5.36057e-06
0.000271883
5.53735e-06
0.000270453
5.71266e-06
0.00026898
5.88648e-06
0.000267464
6.05875e-06
0.000265905
6.22943e-06
0.000264304
6.39846e-06
0.000262661
6.56581e-06
0.000260977
6.73144e-06
0.000259251
6.89529e-06
0.000257485
7.05733e-06
0.000255679
7.21751e-06
0.000253834
7.37579e-06
0.000251949
7.53213e-06
0.000250026
7.6865e-06
0.000248064
7.83885e-06
0.000246065
7.98915e-06
0.000244029
8.13737e-06
0.000241956
8.28346e-06
0.000239847
8.42741e-06
0.000237703
8.56918e-06
0.000235524
8.70873e-06
0.00023331
8.84605e-06
0.000231063
8.98111e-06
0.000228783
9.11388e-06
0.00022647
9.24435e-06
0.000224124
9.37249e-06
0.000221748
9.49829e-06
0.00021934
9.62174e-06
0.000216902
9.7428e-06
0.000214435
9.86149e-06
0.000211938
9.97778e-06
0.000209413
1.00917e-05
0.000206861
1.02032e-05
0.00020428
1.03122e-05
0.000201674
1.04189e-05
0.000199041
1.05232e-05
0.000196382
1.0625e-05
0.000193699
1.07245e-05
0.000190992
1.08215e-05
0.00018826
1.09162e-05
0.000185506
1.10085e-05
0.00018273
1.10984e-05
0.000179931
1.1186e-05
0.000177111
1.12713e-05
0.000174271
1.13542e-05
0.00017141
1.14349e-05
0.00016853
1.15133e-05
0.00016563
1.15894e-05
0.000162713
1.16633e-05
0.000159777
1.1735e-05
0.000156824
1.18045e-05
0.000153854
1.18719e-05
0.000150868
1.19371e-05
0.000147866
1.20003e-05
0.000144849
1.20614e-05
0.000141817
1.21204e-05
0.000138771
1.21775e-05
0.000135711
1.22327e-05
0.000132638
1.22858e-05
0.000129552
1.23372e-05
0.000126454
1.23866e-05
0.000123344
1.24342e-05
0.000120222
1.24801e-05
0.00011709
1.25241e-05
0.000113947
1.25665e-05
0.000110793
1.26072e-05
0.000107631
1.26463e-05
0.000104458
1.26837e-05
0.000101277
1.27196e-05
9.80872e-05
1.27539e-05
9.48892e-05
1.27868e-05
9.16834e-05
1.28181e-05
8.84702e-05
1.28481e-05
8.52499e-05
1.28766e-05
8.20227e-05
1.29038e-05
7.87892e-05
1.29296e-05
7.55496e-05
1.29541e-05
7.23041e-05
1.29774e-05
6.90532e-05
1.29994e-05
6.57971e-05
1.30203e-05
6.25361e-05
1.30399e-05
5.92705e-05
1.30584e-05
5.60006e-05
1.30757e-05
5.27267e-05
1.30919e-05
4.9449e-05
1.31071e-05
4.61678e-05
1.31212e-05
4.28834e-05
1.31342e-05
3.95959e-05
1.31463e-05
3.63057e-05
1.31573e-05
3.3013e-05
1.31674e-05
2.97181e-05
1.31765e-05
2.64211e-05
1.31846e-05
2.31224e-05
1.31918e-05
1.9822e-05
1.31981e-05
1.65204e-05
1.32034e-05
1.32176e-05
1.32079e-05
9.91399e-06
1.32114e-05
6.60969e-06
1.32141e-05
3.30496e-06
1.32158e-05
1.32167e-05
3.33839e-06
-1.66852e-05
6.67655e-06
-1.66841e-05
1.00143e-05
-1.66818e-05
1.33513e-05
-1.66785e-05
1.66875e-05
-1.6674e-05
2.00225e-05
-1.66683e-05
2.33563e-05
-1.66616e-05
2.66884e-05
-1.66536e-05
3.00187e-05
-1.66445e-05
3.3347e-05
-1.66342e-05
3.66731e-05
-1.66227e-05
3.99966e-05
-1.661e-05
4.33173e-05
-1.6596e-05
4.6635e-05
-1.65807e-05
4.99494e-05
-1.65642e-05
5.32603e-05
-1.65463e-05
5.65674e-05
-1.6527e-05
5.98704e-05
-1.65064e-05
6.3169e-05
-1.64844e-05
6.6463e-05
-1.64609e-05
6.9752e-05
-1.6436e-05
7.30357e-05
-1.64095e-05
7.63139e-05
-1.63814e-05
7.95863e-05
-1.63518e-05
8.28524e-05
-1.63205e-05
8.6112e-05
-1.62876e-05
8.93647e-05
-1.62529e-05
9.26102e-05
-1.62165e-05
9.5848e-05
-1.61783e-05
9.90779e-05
-1.61382e-05
0.0001023
-1.60962e-05
0.000105512
-1.60523e-05
0.000108716
-1.60063e-05
0.00011191
-1.59584e-05
0.000115094
-1.59083e-05
0.000118268
-1.58562e-05
0.000121431
-1.58018e-05
0.000124583
-1.57452e-05
0.000127723
-1.56863e-05
0.000130851
-1.56251e-05
0.000133966
-1.55615e-05
0.000137068
-1.54955e-05
0.000140157
-1.54271e-05
0.000143231
-1.53561e-05
0.000146291
-1.52825e-05
0.000149335
-1.52064e-05
0.000152364
-1.51275e-05
0.000155376
-1.5046e-05
0.000158372
-1.49618e-05
0.00016135
-1.48748e-05
0.000164311
-1.4785e-05
0.000167253
-1.46923e-05
0.000170176
-1.45967e-05
0.000173079
-1.44982e-05
0.000175962
-1.43968e-05
0.000178824
-1.42924e-05
0.000181664
-1.4185e-05
0.000184483
-1.40745e-05
0.000187279
-1.3961e-05
0.000190051
-1.38444e-05
0.0001928
-1.37247e-05
0.000195524
-1.36019e-05
0.000198223
-1.3476e-05
0.000200896
-1.33469e-05
0.000203543
-1.32147e-05
0.000206163
-1.30793e-05
0.000208755
-1.29408e-05
0.000211318
-1.27991e-05
0.000213853
-1.26543e-05
0.000216358
-1.25063e-05
0.000218833
-1.23552e-05
0.000221277
-1.2201e-05
0.000223689
-1.20437e-05
0.000226069
-1.18833e-05
0.000228417
-1.17198e-05
0.000230731
-1.15533e-05
0.000233012
-1.13838e-05
0.000235257
-1.12113e-05
0.000237468
-1.10358e-05
0.000239643
-1.08574e-05
0.000241782
-1.06761e-05
0.000243883
-1.0492e-05
0.000245948
-1.03051e-05
0.000247974
-1.01155e-05
0.000249962
-9.92311e-06
0.00025191
-9.7281e-06
0.00025382
-9.53049e-06
0.000255689
-9.33033e-06
0.000257517
-9.12768e-06
0.000259304
-8.9226e-06
0.00026105
-8.71515e-06
0.000262754
-8.50538e-06
0.000264415
-8.29337e-06
0.000266034
-8.07917e-06
0.000267609
-7.86285e-06
0.00026914
-7.64447e-06
0.000270627
-7.42411e-06
0.00027207
-7.20184e-06
0.000273467
-6.97771e-06
0.00027482
-6.7518e-06
0.000276127
-6.52418e-06
0.000277387
-6.29492e-06
0.000278602
-6.06409e-06
0.00027977
-5.83176e-06
0.000280891
-5.598e-06
0.000281966
-5.36288e-06
0.000282992
-5.12647e-06
0.000283971
-4.88884e-06
0.000284903
-4.65006e-06
0.000285786
-4.4102e-06
0.000286621
-4.16933e-06
0.000287408
-3.92752e-06
0.000288145
-3.68483e-06
0.000288835
-3.44134e-06
0.000289475
-3.1971e-06
0.000290066
-2.95219e-06
0.000290608
-2.70666e-06
0.000291101
-2.46059e-06
0.000291544
-2.21404e-06
0.000291938
-1.96706e-06
0.000292282
-1.71973e-06
0.000292577
-1.47211e-06
0.000292822
-1.22425e-06
0.000293017
-9.76219e-07
0.000293163
-7.28075e-07
0.000293259
-4.79878e-07
0.000293305
-2.31686e-07
0.000293302
1.64403e-08
0.000293249
2.64444e-07
0.000293146
5.12266e-07
0.000292994
7.5985e-07
0.000292792
1.00714e-06
0.00029254
1.25407e-06
0.00029224
1.50059e-06
0.00029189
1.74665e-06
0.000291491
1.99218e-06
0.000291042
2.23713e-06
0.000290545
2.48143e-06
0.000289999
2.72505e-06
0.000289405
2.9679e-06
0.000288762
3.20995e-06
0.00028807
3.45112e-06
0.000287331
3.69137e-06
0.000286544
3.93063e-06
0.000285709
4.16885e-06
0.000284826
4.40596e-06
0.000283896
4.64191e-06
0.000282919
4.87664e-06
0.000281896
5.11009e-06
0.000280826
5.3422e-06
0.000279709
5.57291e-06
0.000278547
5.80216e-06
0.000277339
6.02989e-06
0.000276086
6.25603e-06
0.000274788
6.48054e-06
0.000273445
6.70336e-06
0.000272058
6.92441e-06
0.000270627
7.14364e-06
0.000269152
7.361e-06
0.000267635
7.57642e-06
0.000266074
7.78986e-06
0.000264471
8.00124e-06
0.000262827
8.21051e-06
0.000261141
8.41762e-06
0.000259413
8.62252e-06
0.000257646
8.82514e-06
0.000255838
9.02544e-06
0.00025399
9.22337e-06
0.000252103
9.41887e-06
0.000250178
9.6119e-06
0.000248214
9.80241e-06
0.000246213
9.99035e-06
0.000244175
1.01757e-05
0.0002421
1.03584e-05
0.000239989
1.05384e-05
0.000237843
1.07156e-05
0.000235661