/*--------------------------------*- C++ -*----------------------------------*\
| =========                 |                                                 |
| \\      /  F ield         | OpenFOAM: The Open Source CFD Toolbox           |
|  \\    /   O peration     | Version:  v2012                                 |
|   \\  /    A nd           | Website:  www.openfoam.com                      |
|    \\/     M anipulation  |                                                 |
\*---------------------------------------------------------------------------*/
FoamFile
{
    version     2.0;
    format      ascii;
    class       volVectorField;
    location    "0.25";
    object      U;
}
// * * * * * * * * * * * * * * * * * * * * * * * * * * * * * * * * * * * * * //

dimensions      [0 1 -1 0 0 0 0];


internalField   nonuniform List<vector> 
65536
(
(0.000679644 -0.000679622 0)
(0.00203889 -0.000679575 0)
(0.00339799 -0.000679483 0)
(0.00475687 -0.000679345 0)
(0.00611542 -0.000679161 0)
(0.00747355 -0.00067893 0)
(0.00883118 -0.000678652 0)
(0.0101882 -0.000678326 0)
(0.0115445 -0.000677952 0)
(0.0129001 -0.000677529 0)
(0.0142547 -0.000677057 0)
(0.0156083 -0.000676534 0)
(0.0169609 -0.00067596 0)
(0.0183122 -0.000675334 0)
(0.0196623 -0.000674655 0)
(0.0210109 -0.000673921 0)
(0.022358 -0.000673133 0)
(0.0237035 -0.000672287 0)
(0.0250472 -0.000671384 0)
(0.0263891 -0.000670421 0)
(0.027729 -0.000669398 0)
(0.0290667 -0.000668312 0)
(0.0304023 -0.000667163 0)
(0.0317354 -0.000665949 0)
(0.0330661 -0.000664668 0)
(0.0343942 -0.000663318 0)
(0.0357195 -0.000661898 0)
(0.0370419 -0.000660407 0)
(0.0383612 -0.000658841 0)
(0.0396773 -0.0006572 0)
(0.04099 -0.000655481 0)
(0.0422993 -0.000653683 0)
(0.0436049 -0.000651804 0)
(0.0449066 -0.000649842 0)
(0.0462043 -0.000647794 0)
(0.0474979 -0.00064566 0)
(0.048787 -0.000643437 0)
(0.0500717 -0.000641123 0)
(0.0513516 -0.000638715 0)
(0.0526266 -0.000636214 0)
(0.0538966 -0.000633615 0)
(0.0551612 -0.000630918 0)
(0.0564203 -0.00062812 0)
(0.0576738 -0.00062522 0)
(0.0589213 -0.000622215 0)
(0.0601628 -0.000619105 0)
(0.0613979 -0.000615886 0)
(0.0626264 -0.000612558 0)
(0.0638482 -0.000609119 0)
(0.065063 -0.000605567 0)
(0.0662706 -0.000601901 0)
(0.0674707 -0.000598119 0)
(0.0686632 -0.00059422 0)
(0.0698477 -0.000590202 0)
(0.0710241 -0.000586064 0)
(0.0721921 -0.000581805 0)
(0.0733514 -0.000577423 0)
(0.0745019 -0.000572919 0)
(0.0756432 -0.00056829 0)
(0.0767752 -0.000563536 0)
(0.0778975 -0.000558657 0)
(0.0790099 -0.000553651 0)
(0.0801122 -0.000548518 0)
(0.0812041 -0.000543258 0)
(0.0822854 -0.00053787 0)
(0.0833558 -0.000532354 0)
(0.0844149 -0.000526711 0)
(0.0854627 -0.000520939 0)
(0.0864988 -0.00051504 0)
(0.087523 -0.000509013 0)
(0.088535 -0.000502859 0)
(0.0895346 -0.000496578 0)
(0.0905214 -0.000490171 0)
(0.0914954 -0.000483639 0)
(0.0924561 -0.000476983 0)
(0.0934034 -0.000470203 0)
(0.0943371 -0.000463301 0)
(0.0952568 -0.000456278 0)
(0.0961623 -0.000449134 0)
(0.0970534 -0.000441873 0)
(0.0979299 -0.000434494 0)
(0.0987915 -0.000427 0)
(0.099638 -0.000419393 0)
(0.100469 -0.000411674 0)
(0.101285 -0.000403845 0)
(0.102085 -0.000395909 0)
(0.102869 -0.000387867 0)
(0.103636 -0.000379721 0)
(0.104388 -0.000371475 0)
(0.105122 -0.000363129 0)
(0.10584 -0.000354687 0)
(0.106541 -0.000346151 0)
(0.107225 -0.000337524 0)
(0.107891 -0.000328808 0)
(0.10854 -0.000320006 0)
(0.109171 -0.00031112 0)
(0.109785 -0.000302153 0)
(0.11038 -0.000293109 0)
(0.110957 -0.000283989 0)
(0.111516 -0.000274796 0)
(0.112057 -0.000265534 0)
(0.112578 -0.000256206 0)
(0.113081 -0.000246813 0)
(0.113566 -0.000237359 0)
(0.114031 -0.000227847 0)
(0.114477 -0.000218279 0)
(0.114904 -0.000208659 0)
(0.115312 -0.000198989 0)
(0.1157 -0.000189273 0)
(0.116069 -0.000179512 0)
(0.116418 -0.00016971 0)
(0.116748 -0.000159869 0)
(0.117058 -0.000149993 0)
(0.117348 -0.000140083 0)
(0.117618 -0.000130144 0)
(0.117868 -0.000120176 0)
(0.118099 -0.000110184 0)
(0.118309 -0.000100169 0)
(0.118499 -9.01344e-05 0)
(0.11867 -8.00827e-05 0)
(0.11882 -7.00163e-05 0)
(0.11895 -5.99378e-05 0)
(0.11906 -4.98496e-05 0)
(0.119149 -3.97544e-05 0)
(0.119219 -2.96544e-05 0)
(0.119268 -1.95522e-05 0)
(0.119297 -9.45018e-06 0)
(0.119306 6.49282e-07 0)
(0.119294 1.07438e-05 0)
(0.119263 2.0831e-05 0)
(0.119211 3.09084e-05 0)
(0.119139 4.09739e-05 0)
(0.119047 5.10249e-05 0)
(0.118935 6.10593e-05 0)
(0.118803 7.10745e-05 0)
(0.118651 8.10684e-05 0)
(0.118478 9.10385e-05 0)
(0.118286 0.000100983 0)
(0.118074 0.000110898 0)
(0.117843 0.000120783 0)
(0.117591 0.000130635 0)
(0.11732 0.000140451 0)
(0.117029 0.00015023 0)
(0.116719 0.000159968 0)
(0.11639 0.000169663 0)
(0.116041 0.000179314 0)
(0.115672 0.000188917 0)
(0.115285 0.000198471 0)
(0.114878 0.000207972 0)
(0.114453 0.000217419 0)
(0.114009 0.000226808 0)
(0.113546 0.000236138 0)
(0.113064 0.000245407 0)
(0.112564 0.00025461 0)
(0.112045 0.000263747 0)
(0.111509 0.000272815 0)
(0.110954 0.000281812 0)
(0.110382 0.000290734 0)
(0.109791 0.00029958 0)
(0.109183 0.000308347 0)
(0.108558 0.000317033 0)
(0.107915 0.000325636 0)
(0.107255 0.000334153 0)
(0.106578 0.000342582 0)
(0.105885 0.000350921 0)
(0.105174 0.000359167 0)
(0.104448 0.000367319 0)
(0.103705 0.000375375 0)
(0.102946 0.000383332 0)
(0.102172 0.000391189 0)
(0.101381 0.000398943 0)
(0.100576 0.000406593 0)
(0.0997549 0.000414137 0)
(0.0989191 0.000421573 0)
(0.0980685 0.0004289 0)
(0.0972034 0.000436116 0)
(0.0963239 0.000443219 0)
(0.0954304 0.00045021 0)
(0.094523 0.000457085 0)
(0.0936019 0.000463844 0)
(0.0926675 0.000470486 0)
(0.0917199 0.00047701 0)
(0.0907593 0.000483414 0)
(0.0897861 0.000489699 0)
(0.0888004 0.000495864 0)
(0.0878025 0.000501907 0)
(0.0867927 0.000507829 0)
(0.0857711 0.000513628 0)
(0.084738 0.000519306 0)
(0.0836938 0.000524861 0)
(0.0826385 0.000530294 0)
(0.0815725 0.000535604 0)
(0.0804959 0.000540792 0)
(0.0794092 0.000545858 0)
(0.0783124 0.000550803 0)
(0.0772058 0.000555626 0)
(0.0760898 0.000560328 0)
(0.0749644 0.000564911 0)
(0.07383 0.000569374 0)
(0.0726868 0.000573718 0)
(0.071535 0.000577945 0)
(0.0703749 0.000582055 0)
(0.0692067 0.00058605 0)
(0.0680306 0.00058993 0)
(0.0668468 0.000593697 0)
(0.0656557 0.000597352 0)
(0.0644573 0.000600897 0)
(0.063252 0.000604332 0)
(0.0620399 0.000607659 0)
(0.0608212 0.00061088 0)
(0.0595962 0.000613997 0)
(0.0583651 0.00061701 0)
(0.0571281 0.000619922 0)
(0.0558853 0.000622734 0)
(0.0546371 0.000625448 0)
(0.0533835 0.000628066 0)
(0.0521247 0.000630589 0)
(0.050861 0.000633019 0)
(0.0495925 0.000635359 0)
(0.0483195 0.000637609 0)
(0.047042 0.000639772 0)
(0.0457603 0.000641849 0)
(0.0444745 0.000643843 0)
(0.0431849 0.000645755 0)
(0.0418914 0.000647587 0)
(0.0405944 0.000649341 0)
(0.039294 0.000651018 0)
(0.0379903 0.00065262 0)
(0.0366834 0.00065415 0)
(0.0353736 0.000655608 0)
(0.0340609 0.000656996 0)
(0.0327456 0.000658316 0)
(0.0314276 0.00065957 0)
(0.0301072 0.00066076 0)
(0.0287845 0.000661885 0)
(0.0274596 0.000662949 0)
(0.0261326 0.000663953 0)
(0.0248037 0.000664897 0)
(0.023473 0.000665784 0)
(0.0221405 0.000666614 0)
(0.0208065 0.000667389 0)
(0.0194709 0.00066811 0)
(0.018134 0.000668778 0)
(0.0167958 0.000669393 0)
(0.0154564 0.000669958 0)
(0.0141159 0.000670472 0)
(0.0127744 0.000670937 0)
(0.0114321 0.000671353 0)
(0.010089 0.000671722 0)
(0.00874514 0.000672043 0)
(0.00740074 0.000672317 0)
(0.00605583 0.000672545 0)
(0.00471051 0.000672726 0)
(0.00336488 0.000672862 0)
(0.00201902 0.000672953 0)
(0.00067302 0.000672998 0)
(0.000679689 -0.00203891 0)
(0.00203902 -0.00203877 0)
(0.00339822 -0.0020385 0)
(0.00475718 -0.00203808 0)
(0.00611583 -0.00203753 0)
(0.00747406 -0.00203684 0)
(0.00883178 -0.002036 0)
(0.0101889 -0.00203502 0)
(0.0115453 -0.0020339 0)
(0.012901 -0.00203264 0)
(0.0142557 -0.00203122 0)
(0.0156094 -0.00202965 0)
(0.0169621 -0.00202793 0)
(0.0183135 -0.00202605 0)
(0.0196637 -0.00202402 0)
(0.0210124 -0.00202182 0)
(0.0223596 -0.00201945 0)
(0.0237052 -0.00201692 0)
(0.0250491 -0.00201421 0)
(0.0263911 -0.00201132 0)
(0.0277311 -0.00200825 0)
(0.029069 -0.002005 0)
(0.0304046 -0.00200155 0)
(0.0317379 -0.00199791 0)
(0.0330687 -0.00199407 0)
(0.0343969 -0.00199002 0)
(0.0357224 -0.00198577 0)
(0.0370449 -0.00198129 0)
(0.0383644 -0.0019766 0)
(0.0396806 -0.00197168 0)
(0.0409935 -0.00196652 0)
(0.0423029 -0.00196113 0)
(0.0436087 -0.00195549 0)
(0.0449106 -0.00194961 0)
(0.0462085 -0.00194347 0)
(0.0475022 -0.00193707 0)
(0.0487916 -0.0019304 0)
(0.0500764 -0.00192346 0)
(0.0513565 -0.00191624 0)
(0.0526317 -0.00190874 0)
(0.0539018 -0.00190094 0)
(0.0551667 -0.00189285 0)
(0.056426 -0.00188446 0)
(0.0576797 -0.00187576 0)
(0.0589274 -0.00186675 0)
(0.0601691 -0.00185742 0)
(0.0614044 -0.00184777 0)
(0.0626331 -0.00183779 0)
(0.0638552 -0.00182747 0)
(0.0650702 -0.00181682 0)
(0.066278 -0.00180582 0)
(0.0674784 -0.00179447 0)
(0.0686711 -0.00178278 0)
(0.0698558 -0.00177072 0)
(0.0710325 -0.00175831 0)
(0.0722007 -0.00174554 0)
(0.0733603 -0.00173239 0)
(0.074511 -0.00171888 0)
(0.0756526 -0.001705 0)
(0.0767848 -0.00169073 0)
(0.0779074 -0.0016761 0)
(0.07902 -0.00166108 0)
(0.0801226 -0.00164568 0)
(0.0812148 -0.0016299 0)
(0.0822963 -0.00161374 0)
(0.0833669 -0.00159719 0)
(0.0844263 -0.00158026 0)
(0.0854744 -0.00156294 0)
(0.0865107 -0.00154525 0)
(0.0875352 -0.00152717 0)
(0.0885474 -0.0015087 0)
(0.0895472 -0.00148986 0)
(0.0905344 -0.00147064 0)
(0.0915085 -0.00145104 0)
(0.0924695 -0.00143107 0)
(0.0934171 -0.00141073 0)
(0.094351 -0.00139002 0)
(0.0952709 -0.00136895 0)
(0.0961767 -0.00134752 0)
(0.097068 -0.00132574 0)
(0.0979447 -0.0013036 0)
(0.0988066 -0.00128112 0)
(0.0996533 -0.00125829 0)
(0.100485 -0.00123513 0)
(0.101301 -0.00121164 0)
(0.102101 -0.00118783 0)
(0.102885 -0.0011637 0)
(0.103653 -0.00113927 0)
(0.104404 -0.00111452 0)
(0.105139 -0.00108948 0)
(0.105857 -0.00106416 0)
(0.106558 -0.00103855 0)
(0.107242 -0.00101266 0)
(0.107909 -0.000986511 0)
(0.108558 -0.000960102 0)
(0.109189 -0.000933442 0)
(0.109803 -0.000906539 0)
(0.110398 -0.000879403 0)
(0.110976 -0.00085204 0)
(0.111535 -0.000824461 0)
(0.112075 -0.000796672 0)
(0.112597 -0.000768682 0)
(0.1131 -0.000740501 0)
(0.113585 -0.000712137 0)
(0.11405 -0.000683598 0)
(0.114496 -0.000654892 0)
(0.114923 -0.000626029 0)
(0.115331 -0.000597017 0)
(0.11572 -0.000567864 0)
(0.116088 -0.000538579 0)
(0.116438 -0.00050917 0)
(0.116767 -0.000479645 0)
(0.117077 -0.000450013 0)
(0.117368 -0.000420282 0)
(0.117638 -0.00039046 0)
(0.117888 -0.000360555 0)
(0.118119 -0.000330575 0)
(0.118329 -0.000300528 0)
(0.11852 -0.000270422 0)
(0.11869 -0.000240264 0)
(0.11884 -0.000210063 0)
(0.11897 -0.000179825 0)
(0.11908 -0.000149558 0)
(0.119169 -0.00011927 0)
(0.119239 -8.89673e-05 0)
(0.119288 -5.86582e-05 0)
(0.119317 -2.83497e-05 0)
(0.119326 1.95102e-06 0)
(0.119314 3.22369e-05 0)
(0.119283 6.25008e-05 0)
(0.119231 9.27356e-05 0)
(0.119159 0.000122934 0)
(0.119067 0.00015309 0)
(0.118955 0.000183195 0)
(0.118823 0.000213243 0)
(0.118671 0.000243227 0)
(0.118498 0.00027314 0)
(0.118306 0.000302974 0)
(0.118094 0.000332724 0)
(0.117863 0.000362381 0)
(0.117611 0.000391938 0)
(0.11734 0.00042139 0)
(0.117049 0.000450727 0)
(0.116739 0.000479945 0)
(0.116409 0.000509034 0)
(0.11606 0.000537988 0)
(0.115691 0.000566801 0)
(0.115304 0.000595463 0)
(0.114897 0.00062397 0)
(0.114472 0.000652312 0)
(0.114027 0.000680483 0)
(0.113564 0.000708476 0)
(0.113082 0.000736283 0)
(0.112582 0.000763897 0)
(0.112064 0.00079131 0)
(0.111527 0.000818516 0)
(0.110972 0.000845508 0)
(0.110399 0.000872277 0)
(0.109809 0.000898817 0)
(0.109201 0.000925121 0)
(0.108575 0.000951181 0)
(0.107932 0.000976992 0)
(0.107272 0.00100254 0)
(0.106595 0.00102783 0)
(0.105901 0.00105285 0)
(0.105191 0.0010776 0)
(0.104464 0.00110205 0)
(0.103721 0.00112622 0)
(0.102962 0.0011501 0)
(0.102187 0.00117367 0)
(0.101397 0.00119693 0)
(0.100591 0.00121988 0)
(0.0997699 0.00124252 0)
(0.0989339 0.00126483 0)
(0.0980831 0.00128681 0)
(0.0972177 0.00130846 0)
(0.0963381 0.00132977 0)
(0.0954443 0.00135074 0)
(0.0945367 0.00137137 0)
(0.0936154 0.00139165 0)
(0.0926807 0.00141158 0)
(0.0917328 0.00143115 0)
(0.0907721 0.00145036 0)
(0.0897986 0.00146922 0)
(0.0888127 0.00148771 0)
(0.0878145 0.00150584 0)
(0.0868044 0.00152361 0)
(0.0857826 0.00154101 0)
(0.0847493 0.00155804 0)
(0.0837048 0.00157471 0)
(0.0826492 0.001591 0)
(0.081583 0.00160694 0)
(0.0805062 0.0016225 0)
(0.0794192 0.0016377 0)
(0.0783222 0.00165253 0)
(0.0772154 0.001667 0)
(0.0760991 0.00168111 0)
(0.0749735 0.00169485 0)
(0.0738388 0.00170824 0)
(0.0726954 0.00172127 0)
(0.0715434 0.00173395 0)
(0.070383 0.00174628 0)
(0.0692146 0.00175827 0)
(0.0680382 0.0017699 0)
(0.0668543 0.0017812 0)
(0.0656629 0.00179217 0)
(0.0644643 0.0018028 0)
(0.0632588 0.0018131 0)
(0.0620464 0.00182308 0)
(0.0608276 0.00183275 0)
(0.0596024 0.00184209 0)
(0.0583711 0.00185113 0)
(0.0571338 0.00185987 0)
(0.0558909 0.0018683 0)
(0.0546424 0.00187644 0)
(0.0533886 0.00188429 0)
(0.0521297 0.00189186 0)
(0.0508658 0.00189915 0)
(0.0495972 0.00190617 0)
(0.0483239 0.00191292 0)
(0.0470463 0.0019194 0)
(0.0457644 0.00192563 0)
(0.0444785 0.00193161 0)
(0.0431886 0.00193735 0)
(0.041895 0.00194284 0)
(0.0405979 0.0019481 0)
(0.0392973 0.00195313 0)
(0.0379934 0.00195794 0)
(0.0366864 0.00196252 0)
(0.0353765 0.00196689 0)
(0.0340637 0.00197106 0)
(0.0327481 0.00197502 0)
(0.0314301 0.00197878 0)
(0.0301095 0.00198234 0)
(0.0287867 0.00198572 0)
(0.0274617 0.00198891 0)
(0.0261346 0.00199192 0)
(0.0248056 0.00199475 0)
(0.0234747 0.00199741 0)
(0.0221422 0.0019999 0)
(0.020808 0.00200222 0)
(0.0194723 0.00200438 0)
(0.0181353 0.00200639 0)
(0.0167969 0.00200823 0)
(0.0154574 0.00200992 0)
(0.0141169 0.00201147 0)
(0.0127753 0.00201286 0)
(0.0114329 0.00201411 0)
(0.0100896 0.00201521 0)
(0.00874574 0.00201618 0)
(0.00740124 0.002017 0)
(0.00605624 0.00201768 0)
(0.00471083 0.00201823 0)
(0.0033651 0.00201863 0)
(0.00201915 0.0020189 0)
(0.000673066 0.00201904 0)
(0.000679781 -0.00339833 0)
(0.0020393 -0.0033981 0)
(0.00339868 -0.00339765 0)
(0.00475783 -0.00339696 0)
(0.00611666 -0.00339604 0)
(0.00747508 -0.00339488 0)
(0.00883299 -0.00339349 0)
(0.0101903 -0.00339187 0)
(0.0115469 -0.00339 0)
(0.0129027 -0.00338789 0)
(0.0142577 -0.00338553 0)
(0.0156116 -0.00338292 0)
(0.0169645 -0.00338006 0)
(0.0183161 -0.00337693 0)
(0.0196665 -0.00337354 0)
(0.0210155 -0.00336988 0)
(0.0223629 -0.00336594 0)
(0.0237087 -0.00336172 0)
(0.0250528 -0.00335721 0)
(0.026395 -0.00335241 0)
(0.0277353 -0.0033473 0)
(0.0290734 -0.00334188 0)
(0.0304093 -0.00333614 0)
(0.0317429 -0.00333008 0)
(0.033074 -0.00332368 0)
(0.0344025 -0.00331694 0)
(0.0357282 -0.00330985 0)
(0.037051 -0.0033024 0)
(0.0383708 -0.00329458 0)
(0.0396873 -0.00328638 0)
(0.0410006 -0.0032778 0)
(0.0423103 -0.00326882 0)
(0.0436164 -0.00325943 0)
(0.0449186 -0.00324963 0)
(0.0462168 -0.00323941 0)
(0.0475109 -0.00322874 0)
(0.0488006 -0.00321764 0)
(0.0500858 -0.00320608 0)
(0.0513663 -0.00319405 0)
(0.0526419 -0.00318155 0)
(0.0539124 -0.00316857 0)
(0.0551777 -0.00315509 0)
(0.0564374 -0.00314111 0)
(0.0576915 -0.00312662 0)
(0.0589396 -0.0031116 0)
(0.0601817 -0.00309606 0)
(0.0614175 -0.00307998 0)
(0.0626467 -0.00306335 0)
(0.0638691 -0.00304616 0)
(0.0650846 -0.00302841 0)
(0.0662929 -0.00301008 0)
(0.0674937 -0.00299118 0)
(0.0686869 -0.00297169 0)
(0.0698722 -0.00295161 0)
(0.0710493 -0.00293092 0)
(0.072218 -0.00290963 0)
(0.0733781 -0.00288773 0)
(0.0745293 -0.00286521 0)
(0.0756714 -0.00284208 0)
(0.0768041 -0.00281831 0)
(0.0779271 -0.00279392 0)
(0.0790403 -0.00276889 0)
(0.0801434 -0.00274323 0)
(0.0812361 -0.00271693 0)
(0.0823181 -0.00268999 0)
(0.0833892 -0.00266241 0)
(0.0844492 -0.00263419 0)
(0.0854977 -0.00260533 0)
(0.0865346 -0.00257584 0)
(0.0875595 -0.0025457 0)
(0.0885723 -0.00251493 0)
(0.0895726 -0.00248352 0)
(0.0905602 -0.00245148 0)
(0.0915349 -0.00241882 0)
(0.0924964 -0.00238553 0)
(0.0934445 -0.00235163 0)
(0.0943788 -0.00231711 0)
(0.0952992 -0.00228199 0)
(0.0962055 -0.00224627 0)
(0.0970973 -0.00220995 0)
(0.0979745 -0.00217305 0)
(0.0988368 -0.00213557 0)
(0.099684 -0.00209753 0)
(0.100516 -0.00205892 0)
(0.101332 -0.00201977 0)
(0.102133 -0.00198007 0)
(0.102917 -0.00193985 0)
(0.103685 -0.00189911 0)
(0.104437 -0.00185787 0)
(0.105173 -0.00181613 0)
(0.105891 -0.00177391 0)
(0.106593 -0.00173122 0)
(0.107277 -0.00168807 0)
(0.107944 -0.00164447 0)
(0.108593 -0.00160045 0)
(0.109225 -0.00155601 0)
(0.109839 -0.00151116 0)
(0.110435 -0.00146592 0)
(0.111012 -0.00142031 0)
(0.111571 -0.00137433 0)
(0.112112 -0.00132801 0)
(0.112634 -0.00128135 0)
(0.113138 -0.00123437 0)
(0.113623 -0.00118709 0)
(0.114088 -0.00113951 0)
(0.114535 -0.00109166 0)
(0.114962 -0.00104355 0)
(0.11537 -0.000995185 0)
(0.115759 -0.000946587 0)
(0.116128 -0.000897769 0)
(0.116477 -0.000848745 0)
(0.116807 -0.000799528 0)
(0.117117 -0.000750133 0)
(0.117407 -0.000700572 0)
(0.117678 -0.00065086 0)
(0.117928 -0.000601009 0)
(0.118159 -0.000551034 0)
(0.118369 -0.000500947 0)
(0.11856 -0.000450761 0)
(0.11873 -0.00040049 0)
(0.11888 -0.000350145 0)
(0.11901 -0.00029974 0)
(0.11912 -0.000249287 0)
(0.11921 -0.000198799 0)
(0.119279 -0.000148287 0)
(0.119328 -9.77636e-05 0)
(0.119357 -4.72415e-05 0)
(0.119366 3.26774e-06 0)
(0.119355 5.37521e-05 0)
(0.119323 0.0001042 0)
(0.119271 0.000154599 0)
(0.119199 0.000204938 0)
(0.119107 0.000255205 0)
(0.118995 0.000305388 0)
(0.118863 0.000355476 0)
(0.11871 0.000405457 0)
(0.118538 0.00045532 0)
(0.118346 0.000505052 0)
(0.118134 0.000554642 0)
(0.117902 0.000604078 0)
(0.11765 0.000653348 0)
(0.117379 0.000702442 0)
(0.117088 0.000751346 0)
(0.116778 0.000800049 0)
(0.116448 0.000848539 0)
(0.116098 0.000896805 0)
(0.11573 0.000944833 0)
(0.115342 0.000992613 0)
(0.114935 0.00104013 0)
(0.114509 0.00108738 0)
(0.114065 0.00113434 0)
(0.113601 0.001181 0)
(0.113119 0.00122735 0)
(0.112619 0.00127338 0)
(0.1121 0.00131908 0)
(0.111563 0.00136443 0)
(0.111008 0.00140943 0)
(0.110435 0.00145405 0)
(0.109844 0.00149829 0)
(0.109236 0.00154214 0)
(0.10861 0.00158558 0)
(0.107966 0.0016286 0)
(0.107306 0.0016712 0)
(0.106629 0.00171336 0)
(0.105934 0.00175506 0)
(0.105224 0.00179631 0)
(0.104497 0.00183708 0)
(0.103753 0.00187737 0)
(0.102994 0.00191716 0)
(0.102218 0.00195645 0)
(0.101428 0.00199523 0)
(0.100621 0.00203349 0)
(0.0997999 0.00207122 0)
(0.0989634 0.00210841 0)
(0.0981122 0.00214505 0)
(0.0972464 0.00218114 0)
(0.0963663 0.00221667 0)
(0.095472 0.00225162 0)
(0.0945639 0.002286 0)
(0.0936422 0.00231981 0)
(0.092707 0.00235302 0)
(0.0917587 0.00238564 0)
(0.0907974 0.00241767 0)
(0.0898235 0.0024491 0)
(0.0888371 0.00247992 0)
(0.0878385 0.00251014 0)
(0.0868279 0.00253975 0)
(0.0858056 0.00256875 0)
(0.0847718 0.00259714 0)
(0.0837267 0.00262492 0)
(0.0826707 0.00265208 0)
(0.081604 0.00267863 0)
(0.0805267 0.00270457 0)
(0.0794392 0.0027299 0)
(0.0783417 0.00275462 0)
(0.0772344 0.00277873 0)
(0.0761176 0.00280224 0)
(0.0749915 0.00282515 0)
(0.0738564 0.00284746 0)
(0.0727125 0.00286918 0)
(0.07156 0.00289031 0)
(0.0703992 0.00291086 0)
(0.0692303 0.00293082 0)
(0.0680535 0.00295022 0)
(0.0668691 0.00296905 0)
(0.0656773 0.00298732 0)
(0.0644783 0.00300503 0)
(0.0632723 0.0030222 0)
(0.0620595 0.00303883 0)
(0.0608402 0.00305493 0)
(0.0596146 0.0030705 0)
(0.0583829 0.00308556 0)
(0.0571453 0.00310011 0)
(0.0559019 0.00311416 0)
(0.0546531 0.00312772 0)
(0.0533989 0.0031408 0)
(0.0521396 0.00315341 0)
(0.0508753 0.00316555 0)
(0.0496063 0.00317724 0)
(0.0483327 0.00318848 0)
(0.0470547 0.00319929 0)
(0.0457725 0.00320967 0)
(0.0444863 0.00321963 0)
(0.0431961 0.00322918 0)
(0.0419022 0.00323833 0)
(0.0406047 0.00324709 0)
(0.0393038 0.00325547 0)
(0.0379997 0.00326347 0)
(0.0366924 0.00327111 0)
(0.0353822 0.00327839 0)
(0.0340691 0.00328532 0)
(0.0327533 0.00329192 0)
(0.0314349 0.00329818 0)
(0.0301142 0.00330412 0)
(0.0287911 0.00330974 0)
(0.0274658 0.00331505 0)
(0.0261385 0.00332006 0)
(0.0248092 0.00332478 0)
(0.0234781 0.0033292 0)
(0.0221454 0.00333335 0)
(0.020811 0.00333722 0)
(0.0194751 0.00334082 0)
(0.0181378 0.00334415 0)
(0.0167993 0.00334722 0)
(0.0154596 0.00335004 0)
(0.0141188 0.00335261 0)
(0.0127771 0.00335493 0)
(0.0114344 0.00335701 0)
(0.010091 0.00335885 0)
(0.00874693 0.00336045 0)
(0.00740224 0.00336182 0)
(0.00605706 0.00336296 0)
(0.00471147 0.00336386 0)
(0.00336556 0.00336454 0)
(0.00201942 0.00336499 0)
(0.000673156 0.00336522 0)
(0.000679919 -0.00475799 0)
(0.00203971 -0.00475767 0)
(0.00339937 -0.00475703 0)
(0.00475879 -0.00475606 0)
(0.0061179 -0.00475478 0)
(0.0074766 -0.00475317 0)
(0.0088348 -0.00475122 0)
(0.0101924 -0.00474895 0)
(0.0115493 -0.00474634 0)
(0.0129054 -0.00474339 0)
(0.0142607 -0.0047401 0)
(0.0156149 -0.00473645 0)
(0.0169681 -0.00473245 0)
(0.01832 -0.00472808 0)
(0.0196707 -0.00472334 0)
(0.02102 -0.00471822 0)
(0.0223678 -0.00471272 0)
(0.023714 -0.00470682 0)
(0.0250584 -0.00470051 0)
(0.026401 -0.00469379 0)
(0.0277416 -0.00468665 0)
(0.0290801 -0.00467907 0)
(0.0304164 -0.00467105 0)
(0.0317504 -0.00466257 0)
(0.0330819 -0.00465363 0)
(0.0344108 -0.00464421 0)
(0.0357369 -0.00463429 0)
(0.0370602 -0.00462387 0)
(0.0383804 -0.00461294 0)
(0.0396974 -0.00460148 0)
(0.0410111 -0.00458948 0)
(0.0423213 -0.00457692 0)
(0.0436279 -0.00456379 0)
(0.0449306 -0.00455008 0)
(0.0462294 -0.00453578 0)
(0.047524 -0.00452086 0)
(0.0488142 -0.00450533 0)
(0.0501 -0.00448916 0)
(0.051381 -0.00447233 0)
(0.0526572 -0.00445485 0)
(0.0539283 -0.00443668 0)
(0.0551941 -0.00441783 0)
(0.0564545 -0.00439827 0)
(0.0577092 -0.00437799 0)
(0.058958 -0.00435699 0)
(0.0602007 -0.00433524 0)
(0.0614371 -0.00431274 0)
(0.062667 -0.00428946 0)
(0.0638901 -0.00426541 0)
(0.0651063 -0.00424057 0)
(0.0663152 -0.00421493 0)
(0.0675168 -0.00418847 0)
(0.0687107 -0.0041612 0)
(0.0698966 -0.00413309 0)
(0.0710745 -0.00410414 0)
(0.0722439 -0.00407434 0)
(0.0734047 -0.00404369 0)
(0.0745567 -0.00401217 0)
(0.0756995 -0.00397978 0)
(0.076833 -0.00394652 0)
(0.0779568 -0.00391237 0)
(0.0790708 -0.00387733 0)
(0.0801746 -0.00384141 0)
(0.081268 -0.00380459 0)
(0.0823508 -0.00376688 0)
(0.0834227 -0.00372827 0)
(0.0844834 -0.00368877 0)
(0.0855327 -0.00364836 0)
(0.0865704 -0.00360706 0)
(0.0875961 -0.00356487 0)
(0.0886096 -0.00352179 0)
(0.0896107 -0.00347781 0)
(0.0905991 -0.00343295 0)
(0.0915745 -0.00338722 0)
(0.0925368 -0.00334061 0)
(0.0934855 -0.00329314 0)
(0.0944206 -0.0032448 0)
(0.0953418 -0.00319562 0)
(0.0962487 -0.0031456 0)
(0.0971413 -0.00309475 0)
(0.0980192 -0.00304308 0)
(0.0988821 -0.00299059 0)
(0.09973 -0.00293732 0)
(0.100563 -0.00288326 0)
(0.101379 -0.00282843 0)
(0.102181 -0.00277284 0)
(0.102966 -0.00271652 0)
(0.103735 -0.00265947 0)
(0.104487 -0.00260171 0)
(0.105223 -0.00254326 0)
(0.105942 -0.00248413 0)
(0.106644 -0.00242434 0)
(0.107329 -0.00236392 0)
(0.107996 -0.00230287 0)
(0.108646 -0.00224121 0)
(0.109279 -0.00217897 0)
(0.109893 -0.00211617 0)
(0.110489 -0.00205282 0)
(0.111067 -0.00198894 0)
(0.111627 -0.00192455 0)
(0.112168 -0.00185968 0)
(0.112691 -0.00179434 0)
(0.113195 -0.00172855 0)
(0.113679 -0.00166233 0)
(0.114145 -0.00159571 0)
(0.114592 -0.0015287 0)
(0.11502 -0.00146132 0)
(0.115428 -0.00139359 0)
(0.115817 -0.00132553 0)
(0.116186 -0.00125717 0)
(0.116536 -0.00118851 0)
(0.116866 -0.00111959 0)
(0.117176 -0.00105042 0)
(0.117467 -0.000981013 0)
(0.117738 -0.000911397 0)
(0.117988 -0.000841588 0)
(0.118219 -0.000771604 0)
(0.118429 -0.000701464 0)
(0.11862 -0.000631186 0)
(0.11879 -0.000560788 0)
(0.118941 -0.000490288 0)
(0.119071 -0.000419704 0)
(0.119181 -0.000349052 0)
(0.11927 -0.000278351 0)
(0.11934 -0.000207617 0)
(0.119389 -0.000136868 0)
(0.119418 -6.61199e-05 0)
(0.119427 4.60972e-06 0)
(0.119415 7.53044e-05 0)
(0.119384 0.000145948 0)
(0.119332 0.000216523 0)
(0.11926 0.000287014 0)
(0.119168 0.000357404 0)
(0.119055 0.000427677 0)
(0.118923 0.000497817 0)
(0.11877 0.000567806 0)
(0.118598 0.00063763 0)
(0.118406 0.000707271 0)
(0.118193 0.000776714 0)
(0.117961 0.000845941 0)
(0.117709 0.000914936 0)
(0.117438 0.000983683 0)
(0.117147 0.00105217 0)
(0.116836 0.00112037 0)
(0.116506 0.00118827 0)
(0.116156 0.00125586 0)
(0.115787 0.00132312 0)
(0.115399 0.00139002 0)
(0.114992 0.00145657 0)
(0.114566 0.00152273 0)
(0.114121 0.00158849 0)
(0.113657 0.00165383 0)
(0.113175 0.00171874 0)
(0.112674 0.0017832 0)
(0.112155 0.0018472 0)
(0.111617 0.00191071 0)
(0.111062 0.00197371 0)
(0.110488 0.0020362 0)
(0.109897 0.00209816 0)
(0.109288 0.00215956 0)
(0.108661 0.0022204 0)
(0.108018 0.00228065 0)
(0.107357 0.0023403 0)
(0.106679 0.00239933 0)
(0.105984 0.00245773 0)
(0.105273 0.00251549 0)
(0.104545 0.00257258 0)
(0.103801 0.002629 0)
(0.103041 0.00268473 0)
(0.102265 0.00273975 0)
(0.101474 0.00279406 0)
(0.100667 0.00284763 0)
(0.0998448 0.00290046 0)
(0.0990077 0.00295254 0)
(0.0981558 0.00300385 0)
(0.0972893 0.00305438 0)
(0.0964085 0.00310413 0)
(0.0955136 0.00315308 0)
(0.0946048 0.00320122 0)
(0.0936824 0.00324855 0)
(0.0927465 0.00329506 0)
(0.0917975 0.00334073 0)
(0.0908355 0.00338558 0)
(0.0898608 0.00342958 0)
(0.0888737 0.00347274 0)
(0.0878743 0.00351505 0)
(0.086863 0.00355651 0)
(0.08584 0.00359711 0)
(0.0848054 0.00363686 0)
(0.0837597 0.00367574 0)
(0.0827029 0.00371377 0)
(0.0816354 0.00375094 0)
(0.0805575 0.00378726 0)
(0.0794692 0.00382271 0)
(0.078371 0.00385732 0)
(0.077263 0.00389107 0)
(0.0761455 0.00392398 0)
(0.0750187 0.00395605 0)
(0.0738828 0.00398728 0)
(0.0727382 0.00401768 0)
(0.071585 0.00404725 0)
(0.0704235 0.00407601 0)
(0.0692539 0.00410396 0)
(0.0680764 0.0041311 0)
(0.0668913 0.00415745 0)
(0.0656988 0.00418302 0)
(0.0644992 0.00420781 0)
(0.0632925 0.00423183 0)
(0.0620791 0.0042551 0)
(0.0608592 0.00427763 0)
(0.059633 0.00429942 0)
(0.0584007 0.00432049 0)
(0.0571624 0.00434085 0)
(0.0559185 0.00436051 0)
(0.054669 0.00437949 0)
(0.0534143 0.00439779 0)
(0.0521544 0.00441542 0)
(0.0508896 0.00443241 0)
(0.0496201 0.00444876 0)
(0.0483459 0.00446449 0)
(0.0470674 0.0044796 0)
(0.0457847 0.00449412 0)
(0.0444979 0.00450805 0)
(0.0432073 0.00452141 0)
(0.0419129 0.00453421 0)
(0.040615 0.00454646 0)
(0.0393136 0.00455817 0)
(0.038009 0.00456937 0)
(0.0367013 0.00458005 0)
(0.0353907 0.00459023 0)
(0.0340772 0.00459993 0)
(0.032761 0.00460915 0)
(0.0314422 0.0046179 0)
(0.0301211 0.00462621 0)
(0.0287976 0.00463407 0)
(0.027472 0.00464149 0)
(0.0261443 0.0046485 0)
(0.0248147 0.00465509 0)
(0.0234833 0.00466128 0)
(0.0221502 0.00466708 0)
(0.0208154 0.00467248 0)
(0.0194792 0.00467752 0)
(0.0181417 0.00468217 0)
(0.0168028 0.00468647 0)
(0.0154628 0.00469041 0)
(0.0141217 0.004694 0)
(0.0127797 0.00469724 0)
(0.0114368 0.00470015 0)
(0.0100931 0.00470272 0)
(0.00874871 0.00470496 0)
(0.00740374 0.00470687 0)
(0.00605828 0.00470846 0)
(0.00471241 0.00470973 0)
(0.00336623 0.00471067 0)
(0.00201983 0.0047113 0)
(0.000673291 0.00471162 0)
(0.000680102 -0.00611796 0)
(0.00204026 -0.00611755 0)
(0.00340028 -0.00611673 0)
(0.00476008 -0.00611549 0)
(0.00611956 -0.00611384 0)
(0.00747863 -0.00611178 0)
(0.00883721 -0.00610929 0)
(0.0101952 -0.00610637 0)
(0.0115525 -0.00610303 0)
(0.012909 -0.00609924 0)
(0.0142646 -0.00609501 0)
(0.0156193 -0.00609034 0)
(0.0169728 -0.0060852 0)
(0.0183252 -0.0060796 0)
(0.0196764 -0.00607352 0)
(0.0210261 -0.00606695 0)
(0.0223743 -0.00605989 0)
(0.0237209 -0.00605232 0)
(0.0250658 -0.00604423 0)
(0.0264089 -0.0060356 0)
(0.02775 -0.00602644 0)
(0.029089 -0.00601671 0)
(0.0304258 -0.00600642 0)
(0.0317603 -0.00599554 0)
(0.0330924 -0.00598406 0)
(0.0344218 -0.00597197 0)
(0.0357485 -0.00595924 0)
(0.0370724 -0.00594587 0)
(0.0383932 -0.00593183 0)
(0.0397108 -0.00591712 0)
(0.0410251 -0.00590171 0)
(0.042336 -0.00588558 0)
(0.0436432 -0.00586873 0)
(0.0449466 -0.00585112 0)
(0.0462461 -0.00583276 0)
(0.0475414 -0.00581361 0)
(0.0488324 -0.00579366 0)
(0.0501188 -0.00577289 0)
(0.0514006 -0.00575128 0)
(0.0526776 -0.00572882 0)
(0.0539495 -0.00570549 0)
(0.0552161 -0.00568127 0)
(0.0564773 -0.00565615 0)
(0.0577328 -0.0056301 0)
(0.0589824 -0.00560312 0)
(0.060226 -0.00557517 0)
(0.0614633 -0.00554626 0)
(0.062694 -0.00551636 0)
(0.0639181 -0.00548546 0)
(0.0651351 -0.00545354 0)
(0.066345 -0.00542059 0)
(0.0675475 -0.00538659 0)
(0.0687423 -0.00535154 0)
(0.0699292 -0.00531541 0)
(0.071108 -0.00527821 0)
(0.0722785 -0.00523991 0)
(0.0734403 -0.00520051 0)
(0.0745932 -0.00516 0)
(0.075737 -0.00511836 0)
(0.0768715 -0.0050756 0)
(0.0779964 -0.00503171 0)
(0.0791113 -0.00498667 0)
(0.0802162 -0.00494049 0)
(0.0813106 -0.00489315 0)
(0.0823944 -0.00484467 0)
(0.0834674 -0.00479503 0)
(0.0845291 -0.00474424 0)
(0.0855795 -0.00469229 0)
(0.0866181 -0.00463919 0)
(0.0876448 -0.00458493 0)
(0.0886594 -0.00452953 0)
(0.0896615 -0.00447299 0)
(0.0906509 -0.0044153 0)
(0.0916273 -0.00435649 0)
(0.0925905 -0.00429655 0)
(0.0935403 -0.0042355 0)
(0.0944764 -0.00417335 0)
(0.0953985 -0.0041101 0)
(0.0963064 -0.00404577 0)
(0.0971999 -0.00398037 0)
(0.0980787 -0.00391391 0)
(0.0989426 -0.00384641 0)
(0.0997914 -0.00377789 0)
(0.100625 -0.00370836 0)
(0.101443 -0.00363784 0)
(0.102245 -0.00356635 0)
(0.103031 -0.00349391 0)
(0.1038 -0.00342053 0)
(0.104554 -0.00334624 0)
(0.10529 -0.00327106 0)
(0.10601 -0.00319501 0)
(0.106713 -0.00311811 0)
(0.107398 -0.00304039 0)
(0.108067 -0.00296186 0)
(0.108717 -0.00288256 0)
(0.10935 -0.00280251 0)
(0.109965 -0.00272173 0)
(0.110562 -0.00264024 0)
(0.111141 -0.00255808 0)
(0.111701 -0.00247526 0)
(0.112243 -0.00239182 0)
(0.112766 -0.00230777 0)
(0.11327 -0.00222315 0)
(0.113755 -0.00213798 0)
(0.114222 -0.00205229 0)
(0.114669 -0.0019661 0)
(0.115097 -0.00187943 0)
(0.115506 -0.00179232 0)
(0.115895 -0.00170478 0)
(0.116265 -0.00161685 0)
(0.116615 -0.00152855 0)
(0.116945 -0.0014399 0)
(0.117256 -0.00135093 0)
(0.117546 -0.00126167 0)
(0.117817 -0.00117213 0)
(0.118068 -0.00108234 0)
(0.118299 -0.00099233 0)
(0.11851 -0.000902119 0)
(0.1187 -0.00081173 0)
(0.118871 -0.000721188 0)
(0.119021 -0.000630515 0)
(0.119152 -0.000539733 0)
(0.119262 -0.000448866 0)
(0.119351 -0.000357935 0)