/*--------------------------------*- C++ -*----------------------------------*\
| =========                 |                                                 |
| \\      /  F ield         | OpenFOAM: The Open Source CFD Toolbox           |
|  \\    /   O peration     | Version:  v2012                                 |
|   \\  /    A nd           | Website:  www.openfoam.com                      |
|    \\/     M anipulation  |                                                 |
\*---------------------------------------------------------------------------*/
FoamFile
{
    version     2.0;
    format      ascii;
    class       volScalarField;
    location    "0";
    object      pRec;
}
// * * * * * * * * * * * * * * * * * * * * * * * * * * * * * * * * * * * * * //

dimensions      [0 2 -2 0 0 0 0];


internalField   nonuniform List<scalar> 
4000
(
-6.76197e-13
-6.71052e-13
-6.7203e-13
-6.74385e-13
-6.72538e-13
-6.73466e-13
-6.71417e-13
-6.66519e-13
-6.57599e-13
-6.53145e-13
-6.53668e-13
-6.4844e-13
-6.40251e-13
-6.28178e-13
-6.14397e-13
-6.08465e-13
-6.04816e-13
-6.02548e-13
-5.95492e-13
-5.83742e-13
-5.73414e-13
-5.66364e-13
-5.61429e-13
-5.52836e-13
-5.42326e-13
-5.31674e-13
-5.28936e-13
-5.24014e-13
-5.17817e-13
-5.06493e-13
-4.91942e-13
-4.84752e-13
-4.82106e-13
-4.79396e-13
-4.74208e-13
-4.69966e-13
-4.60077e-13
-4.43193e-13
-4.26686e-13
-4.2237e-13
-4.21793e-13
-4.19504e-13
-4.18945e-13
-4.13398e-13
-4.0374e-13
-3.94979e-13
-3.8603e-13
-3.77008e-13
-3.68689e-13
-3.61332e-13
-3.53605e-13
-3.46265e-13
-3.395e-13
-3.31393e-13
-3.23929e-13
-3.1207e-13
-3.04683e-13
-3.02181e-13
-2.9993e-13
-2.96859e-13
-2.88917e-13
-2.81954e-13
-2.7232e-13
-2.61227e-13
-2.53238e-13
-2.4601e-13
-2.41413e-13
-2.32855e-13
-2.22213e-13
-2.1511e-13
-2.07657e-13
-1.99663e-13
-1.86513e-13
-1.79121e-13
-1.77088e-13
-1.72757e-13
-1.67595e-13
-1.60798e-13
-1.50914e-13
-1.37506e-13
-1.25391e-13
-1.19455e-13
-1.10729e-13
-1.05655e-13
-9.97662e-14
-9.39908e-14
-8.56692e-14
-7.81848e-14
-7.49638e-14
-7.06775e-14
-6.51134e-14
-5.85029e-14
-5.24814e-14
-4.83761e-14
-3.91856e-14
-3.08179e-14
-2.3889e-14
-1.65238e-14
-8.84725e-15
-2.02823e-15
-6.7306e-13
-6.7158e-13
-6.74399e-13
-6.74397e-13
-6.7522e-13
-6.72242e-13
-6.68914e-13
-6.66781e-13
-6.61446e-13
-6.55894e-13
-6.5042e-13
-6.45934e-13
-6.38622e-13
-6.28044e-13
-6.17561e-13
-6.11575e-13
-6.07117e-13
-6.01092e-13
-5.93521e-13
-5.86805e-13
-5.76205e-13
-5.64688e-13
-5.57914e-13
-5.50085e-13
-5.4027e-13
-5.34273e-13
-5.30358e-13
-5.24676e-13
-5.16743e-13
-5.03467e-13
-4.94661e-13
-4.87871e-13
-4.81631e-13
-4.76308e-13
-4.71662e-13
-4.66482e-13
-4.58588e-13
-4.46035e-13
-4.32841e-13
-4.26039e-13
-4.21763e-13
-4.19439e-13
-4.16098e-13
-4.11818e-13
-4.04618e-13
-3.95002e-13
-3.84881e-13
-3.7704e-13
-3.6856e-13
-3.59168e-13
-3.52577e-13
-3.45367e-13
-3.39819e-13
-3.32792e-13
-3.25254e-13
-3.14515e-13
-3.0429e-13
-3.005e-13
-2.98239e-13
-2.95417e-13
-2.90947e-13
-2.82125e-13
-2.73013e-13
-2.62915e-13
-2.55117e-13
-2.46279e-13
-2.39088e-13
-2.31816e-13
-2.24488e-13
-2.16497e-13
-2.07594e-13
-1.99723e-13
-1.90832e-13
-1.8233e-13
-1.77076e-13
-1.69107e-13
-1.66275e-13
-1.58738e-13
-1.48081e-13
-1.36235e-13
-1.26369e-13
-1.20666e-13
-1.14319e-13
-1.07456e-13
-9.85001e-14
-9.21392e-14
-8.37285e-14
-7.62489e-14
-7.33821e-14
-6.93161e-14
-6.62535e-14
-6.09755e-14
-5.58801e-14
-4.62719e-14
-3.78041e-14
-3.13928e-14
-2.33123e-14
-1.66342e-14
-1.00781e-14
-3.74121e-15
-6.72493e-13
-6.71569e-13
-6.73631e-13
-6.76455e-13
-6.77174e-13
-6.73274e-13
-6.67959e-13
-6.65718e-13
-6.59503e-13
-6.55611e-13
-6.51306e-13
-6.45321e-13
-6.37914e-13
-6.29362e-13
-6.19455e-13
-6.12629e-13
-6.06165e-13
-5.99917e-13
-5.93947e-13
-5.8543e-13
-5.75439e-13
-5.66594e-13
-5.586e-13
-5.50862e-13
-5.41861e-13
-5.36669e-13
-5.3134e-13
-5.23075e-13
-5.14478e-13
-5.01848e-13
-4.94916e-13
-4.88018e-13
-4.81315e-13
-4.78137e-13
-4.73598e-13
-4.6752e-13
-4.57124e-13
-4.47169e-13
-4.36724e-13
-4.2616e-13
-4.20958e-13
-4.16547e-13
-4.16196e-13
-4.12188e-13
-4.05131e-13
-3.95023e-13
-3.83302e-13
-3.74485e-13
-3.69818e-13
-3.647e-13
-3.53991e-13
-3.45964e-13
-3.3757e-13
-3.29773e-13
-3.23179e-13
-3.15175e-13
-3.04936e-13
-3.02774e-13
-3.02342e-13
-2.97219e-13
-2.88857e-13
-2.77652e-13
-2.69927e-13
-2.64004e-13
-2.57559e-13
-2.49584e-13
-2.41616e-13
-2.31195e-13
-2.23087e-13
-2.1332e-13
-2.04945e-13
-1.97429e-13
-1.87944e-13
-1.8176e-13
-1.76671e-13
-1.7103e-13
-1.6567e-13
-1.58624e-13
-1.47787e-13
-1.37428e-13
-1.30989e-13
-1.22318e-13
-1.1051e-13
-1.04219e-13
-9.84869e-14
-9.44117e-14
-8.80632e-14
-7.9706e-14
-7.33211e-14
-6.74998e-14
-6.37369e-14
-6.0763e-14
-5.42703e-14
-4.66618e-14
-3.73536e-14
-2.92474e-14
-2.40301e-14
-1.75175e-14
-1.34397e-14
-4.31624e-15
-6.73474e-13
-6.7425e-13
-6.74925e-13
-6.7137e-13
-6.7554e-13
-6.70722e-13
-6.68177e-13
-6.65986e-13
-6.63328e-13
-6.57569e-13
-6.49699e-13
-6.41096e-13
-6.34141e-13
-6.29418e-13
-6.27366e-13
-6.17773e-13
-6.04439e-13
-5.97121e-13
-5.92834e-13
-5.84439e-13
-5.75637e-13
-5.68093e-13
-5.59078e-13
-5.45471e-13
-5.3807e-13
-5.34549e-13
-5.30478e-13
-5.25025e-13
-5.14853e-13
-5.05633e-13
-4.98671e-13
-4.90219e-13
-4.82042e-13
-4.76415e-13
-4.69485e-13
-4.67025e-13
-4.57784e-13
-4.46005e-13
-4.37846e-13
-4.285e-13
-4.23824e-13
-4.20818e-13
-4.15855e-13
-4.09602e-13
-4.0062e-13
-3.91758e-13
-3.83317e-13
-3.77717e-13
-3.70208e-13
-3.59092e-13
-3.50415e-13
-3.4493e-13
-3.39449e-13
-3.33552e-13
-3.22539e-13
-3.16224e-13
-3.07209e-13
-3.0187e-13
-3.01341e-13
-2.95522e-13
-2.87426e-13
-2.79396e-13
-2.73799e-13
-2.66341e-13
-2.57302e-13
-2.48406e-13
-2.40523e-13
-2.31287e-13
-2.23492e-13
-2.15663e-13
-2.08389e-13
-2.00472e-13
-1.9083e-13
-1.83025e-13
-1.76245e-13
-1.69739e-13
-1.65536e-13
-1.58221e-13
-1.47743e-13
-1.37831e-13
-1.30226e-13
-1.2265e-13
-1.12554e-13
-1.03181e-13
-9.77071e-14
-9.29218e-14
-8.6271e-14
-7.88259e-14
-7.15877e-14
-6.80039e-14
-6.58265e-14
-6.14451e-14
-5.57962e-14
-4.53909e-14
-3.68604e-14
-3.14991e-14
-2.55713e-14
-1.68903e-14
-1.07302e-14
-4.13753e-15
-6.74044e-13
-6.78093e-13
-6.74747e-13
-6.70737e-13
-6.67681e-13
-6.71015e-13
-6.70691e-13
-6.68462e-13
-6.62282e-13
-6.5486e-13
-6.47071e-13
-6.4258e-13
-6.33415e-13
-6.28033e-13
-6.26504e-13
-6.2046e-13
-6.10898e-13
-6.01086e-13
-5.90034e-13
-5.79568e-13
-5.74922e-13
-5.67176e-13
-5.53931e-13
-5.4499e-13
-5.41265e-13
-5.36718e-13
-5.3175e-13
-5.24047e-13
-5.17027e-13
-5.07989e-13
-4.99241e-13
-4.90999e-13
-4.82128e-13
-4.76654e-13
-4.70792e-13
-4.66542e-13
-4.56633e-13
-4.46111e-13
-4.35863e-13
-4.2872e-13
-4.24187e-13
-4.22503e-13
-4.15965e-13
-4.08237e-13
-3.98898e-13
-3.8882e-13
-3.82078e-13
-3.76523e-13
-3.69269e-13
-3.62557e-13
-3.53927e-13
-3.46967e-13
-3.39628e-13
-3.33042e-13
-3.22441e-13
-3.14839e-13
-3.08423e-13
-3.03307e-13
-3.00781e-13
-2.9459e-13
-2.87656e-13
-2.7983e-13
-2.71651e-13
-2.65591e-13
-2.59747e-13
-2.52997e-13
-2.44609e-13
-2.32424e-13
-2.23372e-13
-2.12969e-13
-2.05054e-13
-1.98164e-13
-1.91034e-13
-1.83026e-13
-1.73214e-13
-1.67097e-13
-1.64613e-13
-1.57891e-13
-1.50139e-13
-1.39878e-13
-1.31251e-13
-1.24514e-13
-1.12193e-13
-1.0214e-13
-9.47809e-14
-9.00496e-14
-8.65061e-14
-8.12527e-14
-7.37226e-14
-6.92136e-14
-6.48423e-14
-6.11201e-14
-5.38047e-14
-4.84281e-14
-4.07962e-14
-3.17657e-14
-2.52213e-14
-1.88773e-14
-1.03154e-14
-1.62209e-15
-6.70883e-13
-6.79373e-13
-6.75949e-13
-6.67909e-13
-6.71821e-13
-6.74413e-13
-6.72368e-13
-6.68326e-13
-6.60547e-13
-6.48502e-13
-6.44956e-13
-6.41648e-13
-6.37969e-13
-6.29284e-13
-6.2305e-13
-6.21819e-13
-6.12209e-13
-6.03501e-13
-5.95042e-13
-5.82689e-13
-5.72148e-13
-5.61465e-13
-5.4559e-13
-5.41796e-13
-5.41993e-13
-5.39831e-13
-5.31847e-13
-5.23772e-13
-5.16237e-13
-5.10419e-13
-5.00076e-13
-4.90748e-13
-4.83168e-13
-4.79427e-13
-4.75494e-13
-4.65345e-13
-4.54506e-13
-4.4623e-13
-4.35846e-13
-4.30979e-13
-4.26463e-13
-4.22778e-13
-4.14408e-13
-4.08319e-13
-3.99016e-13
-3.8757e-13
-3.79174e-13
-3.7333e-13
-3.69394e-13
-3.62424e-13
-3.55261e-13
-3.46492e-13
-3.38618e-13
-3.30575e-13
-3.21242e-13
-3.16118e-13
-3.10921e-13
-3.04225e-13
-2.9942e-13
-2.95029e-13
-2.89909e-13
-2.80775e-13
-2.72144e-13
-2.65426e-13
-2.56602e-13
-2.51077e-13
-2.44926e-13
-2.33656e-13
-2.24346e-13
-2.15987e-13
-2.06512e-13
-1.98318e-13
-1.92286e-13
-1.84488e-13
-1.74867e-13
-1.69455e-13
-1.6349e-13
-1.54812e-13
-1.4955e-13
-1.41836e-13
-1.33991e-13
-1.23652e-13
-1.10032e-13
-1.00381e-13
-9.57748e-14
-9.19614e-14
-8.78736e-14
-7.95768e-14
-7.27886e-14
-6.8522e-14
-6.46078e-14
-6.13605e-14
-5.22153e-14
-4.72735e-14
-4.03935e-14
-3.40934e-14
-2.55351e-14
-1.80351e-14
-8.57101e-15
-5.03861e-16
-6.75478e-13
-6.7584e-13
-6.75193e-13
-6.72235e-13
-6.69264e-13
-6.72735e-13
-6.71854e-13
-6.66094e-13
-6.58349e-13
-6.49291e-13
-6.41708e-13
-6.41074e-13
-6.39803e-13
-6.30409e-13
-6.24341e-13
-6.19854e-13
-6.16472e-13
-6.08247e-13
-5.92083e-13
-5.75674e-13
-5.61244e-13
-5.56424e-13
-5.54951e-13
-5.52138e-13
-5.46131e-13
-5.39275e-13
-5.29764e-13
-5.21816e-13
-5.17169e-13
-5.12187e-13
-5.02778e-13
-4.89716e-13
-4.83836e-13
-4.75585e-13
-4.7013e-13
-4.63385e-13
-4.56527e-13
-4.50687e-13
-4.40203e-13
-4.29554e-13
-4.22805e-13
-4.17509e-13
-4.12966e-13
-4.08876e-13
-4.0197e-13
-3.91922e-13
-3.8106e-13
-3.72173e-13
-3.66237e-13
-3.62393e-13
-3.55503e-13
-3.4998e-13
-3.41323e-13
-3.30974e-13
-3.22709e-13
-3.16942e-13
-3.10126e-13
-2.99485e-13
-2.95609e-13
-2.9461e-13
-2.94371e-13
-2.85928e-13
-2.74454e-13
-2.63206e-13
-2.53792e-13
-2.4753e-13
-2.39718e-13
-2.29659e-13
-2.20599e-13
-2.15723e-13
-2.14117e-13
-2.03743e-13
-1.93301e-13
-1.87254e-13
-1.77893e-13
-1.68049e-13
-1.59489e-13
-1.51029e-13
-1.45599e-13
-1.40551e-13
-1.33217e-13
-1.23164e-13
-1.14717e-13
-1.0577e-13
-9.86032e-14
-8.91766e-14
-8.5183e-14
-8.06748e-14
-7.37858e-14
-7.01109e-14
-6.41151e-14
-5.70513e-14
-5.22787e-14
-4.62525e-14
-3.99487e-14
-3.20609e-14
-2.52515e-14
-1.64799e-14
-8.86903e-15
-2.66775e-15
-6.74165e-13
-6.7328e-13
-6.71429e-13
-6.73168e-13
-6.75225e-13
-6.74761e-13
-6.71183e-13
-6.64392e-13
-6.56426e-13
-6.50159e-13
-6.45486e-13
-6.40454e-13
-6.36396e-13
-6.2821e-13
-6.24378e-13
-6.20217e-13
-6.16288e-13
-6.08232e-13
-5.87833e-13
-5.77717e-13
-5.72885e-13
-5.65374e-13
-5.54807e-13
-5.45873e-13
-5.43026e-13
-5.358e-13
-5.26138e-13
-5.20766e-13
-5.15191e-13
-5.09444e-13
-5.03025e-13
-4.94886e-13
-4.89117e-13
-4.82095e-13
-4.70946e-13
-4.6265e-13
-4.55018e-13
-4.46327e-13
-4.38929e-13
-4.30049e-13
-4.23619e-13
-4.19766e-13
-4.13466e-13
-4.11875e-13
-4.06731e-13
-3.924e-13
-3.77256e-13
-3.65221e-13
-3.64861e-13
-3.63651e-13
-3.59511e-13
-3.53152e-13
-3.41292e-13
-3.30886e-13
-3.20198e-13
-3.14247e-13
-3.10772e-13
-3.05066e-13
-2.97528e-13
-2.92448e-13
-2.90484e-13
-2.83141e-13
-2.75472e-13
-2.66981e-13
-2.58709e-13
-2.49574e-13
-2.40909e-13
-2.31598e-13
-2.24989e-13
-2.17709e-13
-2.10161e-13
-2.03829e-13
-1.92032e-13
-1.79796e-13
-1.72837e-13
-1.67922e-13
-1.62876e-13
-1.54735e-13
-1.49673e-13
-1.43146e-13
-1.34081e-13
-1.23421e-13
-1.1133e-13
-1.00791e-13
-9.29355e-14
-8.89027e-14
-8.60982e-14
-8.20692e-14
-7.52543e-14
-6.86705e-14
-6.19837e-14
-5.67969e-14
-5.2358e-14
-4.75649e-14
-3.86215e-14
-3.05412e-14
-2.47424e-14
-1.79314e-14
-1.02602e-14
-1.30643e-15
-6.76103e-13
-6.77098e-13
-6.72702e-13
-6.67761e-13
-6.70619e-13
-6.72858e-13
-6.72588e-13
-6.64955e-13
-6.54182e-13
-6.51714e-13
-6.463e-13
-6.3738e-13
-6.31076e-13
-6.28452e-13
-6.26353e-13
-6.22479e-13
-6.16238e-13
-6.06164e-13
-5.9194e-13
-5.79475e-13
-5.71422e-13
-5.62889e-13
-5.57852e-13
-5.51559e-13
-5.43483e-13
-5.33664e-13
-5.25264e-13
-5.20652e-13
-5.18329e-13
-5.10009e-13
-5.03824e-13
-4.96085e-13
-4.85905e-13
-4.75734e-13
-4.7108e-13
-4.63835e-13
-4.547e-13
-4.46255e-13
-4.40303e-13
-4.34019e-13
-4.29277e-13
-4.21936e-13
-4.10412e-13
-4.03861e-13
-3.99778e-13
-3.93165e-13
-3.82001e-13
-3.73563e-13
-3.67693e-13
-3.6162e-13
-3.55665e-13
-3.49104e-13
-3.4006e-13
-3.31969e-13
-3.24194e-13
-3.1919e-13
-3.11999e-13
-3.05411e-13
-2.98181e-13
-2.93646e-13
-2.877e-13
-2.80687e-13
-2.74185e-13
-2.66566e-13
-2.56116e-13
-2.46101e-13
-2.40027e-13
-2.32572e-13
-2.24472e-13
-2.1706e-13
-2.08764e-13
-2.04195e-13
-1.95867e-13
-1.85793e-13
-1.74388e-13
-1.68024e-13
-1.63855e-13
-1.56192e-13
-1.50041e-13
-1.41062e-13
-1.34084e-13
-1.24122e-13
-1.11808e-13
-1.0221e-13
-9.49947e-14
-8.94506e-14
-8.66807e-14
-8.13763e-14
-7.49653e-14
-6.84913e-14
-6.14394e-14
-5.61074e-14
-4.93812e-14
-4.44859e-14
-3.81365e-14
-3.07802e-14
-2.36839e-14
-1.47685e-14
-6.82763e-15
1.1965e-15
-6.7557e-13
-6.7486e-13
-6.75244e-13
-6.71881e-13
-6.68916e-13
-6.70572e-13
-6.69889e-13
-6.67267e-13
-6.60264e-13
-6.48091e-13
-6.40857e-13
-6.34701e-13
-6.31896e-13
-6.30666e-13
-6.27351e-13
-6.2154e-13
-6.12843e-13
-6.07106e-13
-5.99077e-13
-5.84182e-13
-5.71309e-13
-5.59072e-13
-5.53843e-13
-5.47645e-13
-5.44157e-13
-5.38152e-13
-5.29013e-13
-5.22928e-13
-5.16892e-13
-5.1057e-13
-5.04269e-13
-4.95781e-13
-4.86362e-13
-4.75453e-13
-4.6845e-13
-4.62319e-13
-4.57067e-13
-4.47052e-13
-4.4159e-13
-4.35079e-13
-4.25504e-13
-4.16417e-13
-4.09422e-13
-4.03976e-13
-4.02187e-13
-3.97545e-13
-3.86344e-13
-3.75451e-13
-3.68018e-13
-3.59663e-13
-3.53137e-13
-3.48646e-13
-3.41327e-13
-3.32911e-13
-3.24689e-13
-3.17748e-13
-3.1143e-13
-3.04705e-13
-2.98235e-13
-2.95296e-13
-2.90976e-13
-2.86532e-13
-2.79833e-13
-2.67108e-13
-2.53275e-13
-2.39735e-13
-2.32687e-13
-2.27794e-13
-2.23734e-13
-2.22702e-13
-2.16188e-13
-2.05978e-13
-1.9824e-13
-1.87626e-13
-1.75093e-13
-1.65611e-13
-1.61044e-13
-1.54554e-13
-1.49569e-13
-1.40369e-13
-1.33026e-13
-1.24334e-13
-1.13744e-13
-1.05575e-13
-9.61676e-14
-8.80632e-14
-8.37911e-14
-7.85278e-14
-7.40407e-14
-6.80226e-14
-6.01044e-14
-5.18322e-14
-4.60739e-14
-4.18929e-14
-3.44652e-14
-2.69501e-14
-1.96391e-14
-1.32492e-14
-4.99846e-15
4.59836e-16
-6.73714e-13
-6.7294e-13
-6.71924e-13
-6.73402e-13
-6.73811e-13
-6.68431e-13
-6.66694e-13
-6.63615e-13
-6.5851e-13
-6.52837e-13
-6.41655e-13
-6.33392e-13
-6.32253e-13
-6.32889e-13
-6.28096e-13
-6.23712e-13
-6.12108e-13
-6.05201e-13
-5.98097e-13
-5.85058e-13
-5.74982e-13
-5.6023e-13
-5.50749e-13
-5.46272e-13
-5.41094e-13
-5.36017e-13
-5.31332e-13
-5.24682e-13
-5.18461e-13
-5.12052e-13
-5.03709e-13
-4.94721e-13
-4.8511e-13
-4.77103e-13
-4.72121e-13
-4.64268e-13
-4.55618e-13
-4.47186e-13
-4.42253e-13
-4.3315e-13
-4.25646e-13
-4.1645e-13
-4.10136e-13
-4.07458e-13
-4.0429e-13
-3.9602e-13
-3.83925e-13
-3.71724e-13
-3.65238e-13
-3.5833e-13
-3.55626e-13
-3.5066e-13
-3.40772e-13
-3.32399e-13
-3.23952e-13
-3.20988e-13
-3.1427e-13
-3.06967e-13
-2.9785e-13
-2.8969e-13
-2.87165e-13
-2.79549e-13
-2.74746e-13
-2.69517e-13
-2.56308e-13
-2.428e-13
-2.33405e-13
-2.26809e-13
-2.24293e-13
-2.25201e-13
-2.16588e-13
-2.08541e-13
-1.98854e-13
-1.87104e-13
-1.73305e-13
-1.62295e-13
-1.60632e-13
-1.57172e-13
-1.52674e-13
-1.43646e-13
-1.36533e-13
-1.27609e-13
-1.13465e-13
-1.02426e-13
-9.20529e-14
-8.27639e-14
-8.42546e-14
-8.19065e-14
-7.40025e-14
-6.67994e-14
-5.7924e-14
-5.14513e-14
-4.54614e-14
-3.99535e-14
-3.60425e-14
-2.98001e-14
-1.65613e-14
-5.21614e-15
2.17779e-15
-5.14379e-16
-6.76038e-13
-6.74252e-13
-6.7219e-13
-6.73363e-13
-6.72421e-13
-6.67517e-13
-6.67943e-13
-6.64594e-13
-6.58177e-13
-6.50687e-13
-6.42799e-13
-6.3605e-13
-6.28733e-13
-6.26369e-13
-6.23972e-13
-6.1906e-13
-6.15027e-13
-6.09951e-13
-6.00136e-13
-5.86254e-13
-5.74187e-13
-5.66444e-13
-5.56595e-13
-5.47452e-13
-5.41459e-13
-5.30812e-13
-5.27487e-13
-5.24368e-13
-5.19858e-13
-5.13997e-13
-5.05657e-13
-4.95406e-13
-4.84208e-13
-4.74504e-13
-4.69355e-13
-4.62413e-13
-4.57205e-13
-4.49842e-13
-4.44017e-13
-4.32194e-13
-4.24377e-13
-4.13756e-13
-4.09729e-13
-4.09363e-13
-4.02857e-13
-3.95453e-13
-3.84653e-13
-3.7459e-13
-3.66144e-13
-3.58033e-13
-3.52493e-13
-3.48975e-13
-3.41123e-13
-3.35334e-13
-3.285e-13
-3.19801e-13
-3.13018e-13
-3.05402e-13
-2.97476e-13
-2.91676e-13
-2.89196e-13
-2.88786e-13
-2.7899e-13
-2.66854e-13
-2.49432e-13
-2.40171e-13
-2.33481e-13
-2.29243e-13
-2.23834e-13
-2.20383e-13
-2.13989e-13
-2.11766e-13
-2.04979e-13
-1.91949e-13
-1.72556e-13
-1.56824e-13
-1.54369e-13
-1.5765e-13
-1.53816e-13
-1.43599e-13
-1.35337e-13
-1.25068e-13
-1.14977e-13
-1.06182e-13
-9.56501e-14
-8.53715e-14
-7.93577e-14
-7.81855e-14
-7.25448e-14
-6.5408e-14
-5.59592e-14
-5.06445e-14
-4.50837e-14
-3.85234e-14
-3.18297e-14
-2.64428e-14
-1.54101e-14
-6.27563e-15
-6.94335e-16
-4.01255e-16
-6.73955e-13
-6.73263e-13
-6.6605e-13
-6.74279e-13
-6.74106e-13
-6.71285e-13
-6.65216e-13
-6.59118e-13
-6.53778e-13
-6.46295e-13
-6.4232e-13
-6.37913e-13
-6.36566e-13
-6.3093e-13
-6.25527e-13
-6.22047e-13
-6.17318e-13
-6.10955e-13
-6.00654e-13
-5.86671e-13
-5.69109e-13
-5.56021e-13
-5.48255e-13
-5.45972e-13
-5.41018e-13
-5.35971e-13
-5.299e-13
-5.23762e-13
-5.20307e-13
-5.16411e-13
-5.08309e-13
-4.959e-13
-4.86268e-13
-4.78454e-13
-4.74002e-13
-4.64237e-13
-4.54282e-13
-4.48697e-13
-4.42033e-13
-4.32031e-13
-4.22539e-13
-4.18366e-13
-4.13697e-13
-4.0771e-13
-3.97952e-13
-3.88813e-13
-3.82328e-13
-3.74778e-13
-3.67855e-13
-3.61505e-13
-3.55142e-13
-3.49601e-13
-3.39289e-13
-3.30187e-13
-3.31056e-13
-3.30192e-13
-3.16159e-13
-3.01746e-13
-2.9273e-13
-2.86001e-13
-2.83687e-13
-2.8086e-13
-2.79741e-13
-2.70213e-13
-2.54237e-13
-2.45251e-13
-2.32419e-13
-2.29891e-13
-2.23984e-13
-2.18385e-13
-2.13487e-13
-2.11967e-13
-2.05374e-13
-1.90216e-13
-1.7443e-13
-1.60895e-13
-1.56429e-13
-1.58332e-13
-1.50348e-13
-1.40431e-13
-1.3383e-13
-1.25885e-13
-1.17624e-13
-1.07285e-13
-9.68117e-14
-8.51049e-14
-7.88215e-14
-7.77255e-14
-7.07329e-14
-6.32811e-14
-5.5792e-14
-4.9527e-14
-4.24882e-14
-3.71141e-14
-3.23037e-14
-2.49801e-14
-1.54946e-14
-7.49258e-15
9.27647e-17
1.13183e-15
-6.70642e-13
-6.79479e-13
-6.74096e-13
-6.6961e-13
-6.70348e-13
-6.69304e-13
-6.6479e-13
-6.64059e-13
-6.54958e-13
-6.4258e-13
-6.38373e-13
-6.374e-13
-6.34921e-13
-6.32602e-13
-6.28466e-13
-6.19937e-13
-6.09988e-13
-6.03199e-13
-5.97766e-13
-5.88613e-13
-5.81274e-13
-5.73377e-13
-5.62312e-13
-5.46383e-13
-5.33193e-13
-5.26667e-13
-5.28436e-13
-5.25347e-13
-5.21204e-13
-5.17746e-13
-5.08699e-13
-4.97242e-13
-4.8312e-13
-4.71516e-13
-4.65556e-13
-4.6079e-13
-4.60081e-13
-4.54369e-13
-4.42735e-13
-4.35892e-13
-4.24528e-13
-4.15044e-13
-4.12246e-13
-4.05619e-13
-3.9696e-13
-3.88496e-13
-3.79604e-13
-3.74838e-13
-3.70428e-13
-3.63648e-13
-3.5604e-13
-3.47512e-13
-3.41097e-13
-3.34107e-13
-3.29415e-13
-3.23692e-13
-3.18043e-13
-3.10098e-13
-3.0188e-13
-2.91104e-13
-2.82619e-13
-2.76351e-13
-2.71015e-13
-2.65481e-13
-2.55875e-13
-2.47589e-13
-2.38136e-13
-2.30998e-13
-2.24461e-13
-2.19801e-13
-2.15954e-13
-2.07641e-13
-1.99682e-13
-1.90593e-13
-1.76819e-13
-1.65845e-13
-1.56629e-13
-1.53484e-13
-1.49641e-13
-1.4135e-13
-1.34716e-13
-1.24076e-13
-1.1576e-13
-1.05977e-13
-9.53067e-14
-8.61602e-14
-8.11485e-14
-7.61525e-14
-7.13192e-14
-6.28909e-14
-5.6067e-14
-5.19122e-14
-4.47368e-14
-3.67325e-14
-2.81487e-14
-2.03859e-14
-1.41576e-14
-8.87471e-15
-2.24658e-15
6.49182e-16
-6.69475e-13
-6.73809e-13
-6.74996e-13
-6.70742e-13
-6.70343e-13
-6.71566e-13
-6.62099e-13
-6.52307e-13
-6.48169e-13
-6.46332e-13
-6.44213e-13
-6.41356e-13
-6.38467e-13
-6.3389e-13
-6.2899e-13
-6.20907e-13
-6.14414e-13
-6.1092e-13
-6.02543e-13
-5.88329e-13
-5.70725e-13
-5.57199e-13
-5.49275e-13
-5.40968e-13
-5.39983e-13
-5.37745e-13
-5.32573e-13
-5.2429e-13
-5.19303e-13
-5.17283e-13
-5.10737e-13
-5.00369e-13
-4.87828e-13
-4.71708e-13
-4.61766e-13
-4.60879e-13
-4.60912e-13
-4.55517e-13
-4.47889e-13
-4.36585e-13
-4.22832e-13
-4.13313e-13
-4.05458e-13
-4.01594e-13
-3.96907e-13
-3.90769e-13
-3.83859e-13
-3.75757e-13
-3.70203e-13
-3.69983e-13
-3.62234e-13
-3.46075e-13
-3.36774e-13
-3.29601e-13
-3.24522e-13
-3.22246e-13
-3.18234e-13
-3.09028e-13
-2.97423e-13
-2.89252e-13
-2.85496e-13
-2.8112e-13
-2.74224e-13
-2.65376e-13
-2.51887e-13
-2.42164e-13
-2.36482e-13
-2.33457e-13
-2.27576e-13
-2.19601e-13
-2.12997e-13
-2.07509e-13
-1.9985e-13
-1.89095e-13
-1.77819e-13
-1.62773e-13
-1.54827e-13
-1.52721e-13
-1.51878e-13
-1.46354e-13
-1.37549e-13
-1.26966e-13
-1.15284e-13
-1.03427e-13
-9.42004e-14
-8.63838e-14
-8.10741e-14
-7.46706e-14
-6.89097e-14
-6.20149e-14
-5.61481e-14
-5.07105e-14
-4.48205e-14
-3.68663e-14
-2.7636e-14
-1.82375e-14
-1.1037e-14
-6.2839e-15
-6.67366e-16
1.92188e-16
-6.68178e-13
-6.75752e-13
-6.75975e-13
-6.7208e-13
-6.69088e-13
-6.73804e-13
-6.70825e-13
-6.58173e-13
-6.41972e-13
-6.38986e-13
-6.38397e-13
-6.39922e-13
-6.38924e-13
-6.36837e-13
-6.3167e-13
-6.21902e-13
-6.12774e-13
-6.05942e-13
-5.94422e-13
-5.85673e-13
-5.78025e-13
-5.65065e-13
-5.53882e-13
-5.41313e-13
-5.39665e-13
-5.37354e-13
-5.34353e-13
-5.28524e-13
-5.20329e-13
-5.16038e-13
-5.07712e-13
-4.96293e-13
-4.86767e-13
-4.72218e-13
-4.60317e-13
-4.58477e-13
-4.59307e-13
-4.56151e-13
-4.47489e-13
-4.37337e-13
-4.20991e-13
-4.1163e-13
-4.08825e-13
-4.04235e-13
-3.96969e-13
-3.89754e-13
-3.8617e-13
-3.79722e-13
-3.70749e-13
-3.60854e-13
-3.54133e-13
-3.4835e-13
-3.40529e-13
-3.28229e-13
-3.28635e-13
-3.25413e-13
-3.171e-13
-3.11011e-13
-3.04172e-13
-2.91155e-13
-2.83812e-13
-2.78412e-13
-2.69715e-13
-2.62207e-13
-2.52097e-13
-2.44085e-13
-2.34738e-13
-2.31065e-13
-2.24397e-13
-2.22363e-13
-2.15213e-13
-2.10105e-13
-2.03014e-13
-1.89167e-13
-1.74819e-13
-1.62842e-13
-1.57778e-13
-1.53279e-13
-1.48571e-13
-1.42707e-13
-1.36575e-13
-1.27507e-13
-1.1585e-13
-1.03914e-13
-9.70043e-14
-8.86921e-14
-8.12817e-14
-7.49526e-14
-6.91513e-14
-6.05325e-14
-5.39954e-14
-4.85144e-14
-4.12668e-14
-3.33838e-14
-2.69629e-14
-2.20217e-14
-9.99757e-15
-3.04296e-15
2.03981e-15
8.95878e-16
-6.74118e-13
-6.7342e-13
-6.6952e-13
-6.65887e-13
-6.67913e-13
-6.62782e-13
-6.59433e-13
-6.60526e-13
-6.57483e-13
-6.50903e-13
-6.46531e-13
-6.38861e-13
-6.33483e-13
-6.32296e-13
-6.30037e-13
-6.2383e-13
-6.15661e-13
-6.1192e-13
-6.01226e-13
-5.85475e-13
-5.67258e-13
-5.55883e-13
-5.49991e-13
-5.48069e-13
-5.41078e-13
-5.38456e-13
-5.3421e-13
-5.27125e-13
-5.20907e-13
-5.14995e-13
-5.07709e-13
-4.95526e-13
-4.84173e-13
-4.72138e-13
-4.63397e-13
-4.61297e-13
-4.62765e-13
-4.56124e-13
-4.45894e-13
-4.36094e-13
-4.21976e-13
-4.09874e-13
-4.07191e-13
-4.04216e-13
-4.00316e-13
-3.90386e-13
-3.81564e-13
-3.78384e-13
-3.73986e-13
-3.63457e-13
-3.53481e-13
-3.48496e-13
-3.42316e-13
-3.31271e-13
-3.24169e-13
-3.20872e-13
-3.1481e-13
-3.10043e-13
-3.0497e-13
-2.9636e-13
-2.85975e-13
-2.78671e-13
-2.69238e-13
-2.61917e-13
-2.55067e-13
-2.45275e-13
-2.35123e-13
-2.26153e-13
-2.21817e-13
-2.22809e-13
-2.141e-13
-2.08435e-13
-2.01648e-13
-1.89827e-13
-1.78276e-13
-1.66066e-13
-1.54879e-13
-1.48909e-13
-1.48059e-13
-1.47429e-13
-1.40484e-13
-1.26095e-13
-1.14538e-13
-1.01715e-13
-9.66978e-14
-9.08968e-14
-8.35891e-14
-7.35306e-14
-6.48751e-14
-5.94027e-14
-5.39561e-14
-4.75862e-14
-4.24763e-14
-3.48999e-14
-2.61068e-14
-1.79586e-14
-1.04658e-14
-4.20583e-15
1.86391e-15
2.28962e-15
-6.7339e-13
-6.72329e-13
-6.69596e-13
-6.67075e-13
-6.73223e-13
-6.70802e-13
-6.59792e-13
-6.53806e-13
-6.501e-13
-6.47867e-13
-6.46934e-13
-6.4573e-13
-6.35354e-13
-6.28003e-13
-6.25681e-13
-6.2123e-13
-6.17496e-13
-6.10401e-13
-5.98959e-13
-5.83406e-13
-5.70394e-13
-5.57429e-13
-5.4853e-13
-5.48211e-13
-5.47535e-13
-5.38524e-13
-5.31202e-13
-5.27399e-13
-5.24628e-13
-5.17511e-13
-5.09708e-13
-4.96689e-13
-4.83573e-13
-4.71187e-13
-4.60382e-13
-4.59669e-13
-4.57448e-13
-4.54924e-13
-4.49726e-13
-4.39091e-13
-4.24774e-13
-4.14157e-13
-4.07545e-13
-3.98836e-13
-3.97038e-13
-3.91357e-13
-3.84396e-13
-3.75525e-13
-3.69569e-13
-3.63688e-13
-3.54231e-13
-3.4846e-13
-3.41906e-13
-3.32601e-13
-3.2991e-13
-3.2501e-13
-3.13374e-13
-3.04458e-13
-3.01434e-13
-2.94199e-13
-2.87739e-13
-2.78206e-13
-2.7084e-13
-2.639e-13
-2.55006e-13
-2.43588e-13
-2.36816e-13
-2.2671e-13
-2.18495e-13
-2.16819e-13
-2.13817e-13
-2.09367e-13
-2.032e-13
-1.90219e-13
-1.77404e-13
-1.6628e-13
-1.57846e-13
-1.50739e-13
-1.50232e-13
-1.46126e-13
-1.38036e-13
-1.27214e-13
-1.1583e-13
-1.03602e-13
-9.53456e-14
-8.6323e-14
-7.94443e-14
-7.52963e-14
-6.9168e-14
-5.95969e-14
-5.30063e-14
-4.62508e-14
-3.95211e-14
-3.2403e-14
-2.45698e-14
-1.91968e-14
-1.19959e-14
-2.77707e-15
2.34594e-15
4.59942e-16
-6.68659e-13
-6.70993e-13
-6.71043e-13
-6.69696e-13
-6.68307e-13
-6.63008e-13
-6.5913e-13
-6.56282e-13
-6.55554e-13
-6.52696e-13
-6.483e-13
-6.4438e-13
-6.38174e-13
-6.30067e-13
-6.24584e-13
-6.1817e-13
-6.15413e-13
-6.08768e-13
-5.97041e-13
-5.85652e-13
-5.71009e-13
-5.58594e-13
-5.53374e-13
-5.48856e-13
-5.40752e-13
-5.36604e-13
-5.34914e-13
-5.31049e-13
-5.23879e-13
-5.13707e-13
-5.05371e-13
-4.95616e-13
-4.83201e-13
-4.71951e-13
-4.63266e-13
-4.64515e-13
-4.64069e-13
-4.56337e-13
-4.45406e-13
-4.32303e-13
-4.22192e-13
-4.16982e-13
-4.08822e-13
-3.99355e-13
-3.94461e-13
-3.88151e-13
-3.86452e-13
-3.84671e-13
-3.73813e-13
-3.6037e-13
-3.51697e-13
-3.4944e-13
-3.42675e-13
-3.32008e-13
-3.27947e-13
-3.2389e-13
-3.16698e-13
-3.07248e-13
-2.99699e-13
-2.92495e-13
-2.8976e-13
-2.81211e-13
-2.71754e-13
-2.6299e-13
-2.51604e-13
-2.43057e-13
-2.34468e-13
-2.27968e-13
-2.19893e-13
-2.14962e-13
-2.10114e-13
-2.09542e-13
-2.04221e-13
-1.90386e-13
-1.77495e-13
-1.66459e-13
-1.59836e-13
-1.53786e-13
-1.46019e-13
-1.3787e-13
-1.39746e-13
-1.33319e-13
-1.17137e-13
-1.04824e-13
-9.50401e-14
-8.44638e-14
-7.73902e-14
-7.45146e-14
-6.87857e-14
-5.97429e-14
-5.19255e-14
-4.68353e-14
-4.00577e-14
-3.12717e-14
-2.66407e-14
-1.77944e-14
-9.0705e-15
-1.62137e-15
3.10236e-15
7.1477e-17
-6.74888e-13
-6.72104e-13
-6.69713e-13
-6.67164e-13
-6.62996e-13
-6.60978e-13
-6.58446e-13
-6.58558e-13
-6.56884e-13
-6.5356e-13
-6.47535e-13
-6.43625e-13
-6.38492e-13
-6.3294e-13
-6.26185e-13
-6.16972e-13
-6.07563e-13
-6.01737e-13
-5.96923e-13
-5.89788e-13
-5.73767e-13
-5.62328e-13
-5.53808e-13
-5.46713e-13
-5.42535e-13
-5.38725e-13
-5.35509e-13
-5.31917e-13
-5.2218e-13
-5.16113e-13
-5.06599e-13
-4.94999e-13
-4.81656e-13
-4.69886e-13
-4.65518e-13
-4.64447e-13
-4.61213e-13
-4.54815e-13
-4.44777e-13
-4.33928e-13
-4.22695e-13
-4.14275e-13
-4.09587e-13
-4.03723e-13
-3.98597e-13
-3.9226e-13
-3.82966e-13
-3.76492e-13
-3.72283e-13
-3.64149e-13
-3.58058e-13
-3.4937e-13
-3.40751e-13
-3.33069e-13
-3.26898e-13
-3.19334e-13
-3.15535e-13
-3.09054e-13
-2.99904e-13
-2.93259e-13
-2.90443e-13
-2.83664e-13
-2.7264e-13
-2.61358e-13
-2.52527e-13
-2.43495e-13
-2.34124e-13
-2.26521e-13
-2.19941e-13
-2.15159e-13
-2.12169e-13
-2.10497e-13
-2.03133e-13
-1.87943e-13
-1.76369e-13
-1.66467e-13
-1.59335e-13
-1.52797e-13
-1.48703e-13
-1.436e-13
-1.36648e-13
-1.28201e-13
-1.17987e-13
-1.07307e-13
-9.96379e-14
-8.55623e-14
-7.66475e-14
-7.15761e-14
-6.79843e-14
-5.70301e-14
-4.96086e-14
-4.61437e-14
-4.37681e-14
-3.25488e-14
-2.23433e-14
-1.68207e-14
-1.0215e-14
2.61556e-16
1.66344e-15
-9.36372e-16
-6.77099e-13
-6.71238e-13
-6.65932e-13
-6.66189e-13
-6.59499e-13
-6.60704e-13
-6.58777e-13
-6.59865e-13
-6.59896e-13
-6.51857e-13
-6.46694e-13
-6.44567e-13
-6.4288e-13
-6.34691e-13
-6.2638e-13
-6.1975e-13
-6.12037e-13
-6.01701e-13
-5.95442e-13
-5.8365e-13
-5.73902e-13
-5.62534e-13
-5.51271e-13
-5.45068e-13
-5.41404e-13
-5.42032e-13
-5.3624e-13
-5.30741e-13
-5.22297e-13
-5.14995e-13
-5.07026e-13
-4.96973e-13
-4.82085e-13
-4.71971e-13
-4.6406e-13
-4.60787e-13
-4.60075e-13
-4.55243e-13
-4.45315e-13
-4.34189e-13
-4.25889e-13
-4.16884e-13
-4.0881e-13
-4.0258e-13
-3.96794e-13
-3.90587e-13
-3.83476e-13
-3.78715e-13
-3.74187e-13
-3.65208e-13
-3.5524e-13
-3.45738e-13
-3.40227e-13
-3.35205e-13
-3.29835e-13
-3.23753e-13
-3.1662e-13
-3.07793e-13
-3.01951e-13
-2.97215e-13
-2.92062e-13
-2.82694e-13
-2.69392e-13
-2.59789e-13
-2.50861e-13
-2.41976e-13
-2.32621e-13
-2.27316e-13
-2.2e-13
-2.18449e-13
-2.13205e-13
-2.06891e-13
-1.97311e-13
-1.85744e-13
-1.75207e-13
-1.64845e-13
-1.62803e-13
-1.59492e-13
-1.49922e-13
-1.40788e-13
-1.33858e-13
-1.26329e-13
-1.17017e-13
-1.06179e-13
-9.49581e-14
-8.29808e-14
-7.7864e-14
-7.38051e-14
-6.68619e-14
-6.20452e-14
-5.64591e-14
-4.61012e-14
-3.73609e-14
-3.0796e-14
-2.23906e-14
-1.4357e-14
-8.14456e-15
-4.72636e-15
-1.50251e-15
-1.27943e-15
-6.7495e-13
-6.69686e-13
-6.67764e-13
-6.65836e-13
-6.6333e-13
-6.60335e-13
-6.56083e-13
-6.58844e-13
-6.59165e-13
-6.55348e-13
-6.49685e-13
-6.43901e-13
-6.41994e-13
-6.33503e-13
-6.23609e-13
-6.1452e-13
-6.06406e-13
-6.02335e-13
-5.96278e-13
-5.86263e-13
-5.75158e-13
-5.63927e-13
-5.53692e-13
-5.48577e-13
-5.46261e-13
-5.39988e-13
-5.33252e-13
-5.25356e-13
-5.18571e-13
-5.15206e-13
-5.07868e-13
-5.01106e-13
-4.89859e-13
-4.78552e-13
-4.62626e-13
-4.57391e-13
-4.55732e-13
-4.51738e-13
-4.44508e-13
-4.34235e-13
-4.27607e-13
-4.17268e-13
-4.11148e-13
-4.01319e-13
-3.97252e-13
-3.91652e-13
-3.87568e-13
-3.80123e-13
-3.70802e-13
-3.58733e-13
-3.54072e-13
-3.50684e-13
-3.43826e-13
-3.31952e-13
-3.25291e-13
-3.19244e-13
-3.12204e-13
-3.10447e-13
-3.03187e-13
-3.01087e-13
-3.00409e-13
-2.80186e-13
-2.67609e-13
-2.61487e-13
-2.53518e-13
-2.4431e-13
-2.34867e-13
-2.28189e-13
-2.17671e-13
-2.13123e-13
-2.09024e-13
-2.0959e-13
-2.01673e-13
-1.88953e-13
-1.7315e-13
-1.61055e-13
-1.62212e-13
-1.58067e-13
-1.49599e-13
-1.43587e-13
-1.36011e-13
-1.26786e-13
-1.15551e-13
-1.04744e-13
-9.57174e-14
-8.43063e-14
-7.71406e-14
-7.39875e-14
-6.78664e-14
-5.80894e-14
-5.0872e-14
-4.5791e-14
-3.78904e-14
-3.03727e-14
-2.58613e-14
-2.00767e-14
-8.37313e-15
-1.81292e-15
2.99212e-15
-2.57383e-17
-6.69805e-13
-6.71745e-13
-6.71417e-13
-6.65733e-13
-6.60926e-13
-6.61394e-13
-6.59967e-13
-6.5651e-13
-6.57314e-13
-6.54261e-13
-6.51223e-13
-6.47312e-13
-6.40522e-13
-6.32149e-13
-6.24457e-13
-6.17945e-13
-6.13448e-13
-6.09065e-13
-5.9855e-13
-5.84097e-13
-5.67552e-13
-5.54696e-13
-5.50721e-13
-5.50647e-13
-5.47195e-13
-5.39382e-13
-5.30561e-13
-5.25672e-13
-5.18626e-13
-5.16265e-13
-5.11701e-13
-4.98137e-13
-4.85241e-13
-4.76509e-13
-4.68427e-13
-4.63037e-13
-4.57938e-13
-4.50554e-13
-4.43712e-13
-4.35565e-13
-4.25998e-13
-4.16708e-13
-4.08025e-13
-4.0346e-13
-4.02006e-13
-3.93218e-13
-3.8537e-13
-3.74279e-13
-3.71826e-13
-3.64942e-13
-3.53908e-13
-3.49295e-13
-3.43098e-13
-3.35062e-13
-3.2847e-13
-3.16249e-13
-3.05633e-13
-3.08498e-13
-3.11079e-13
-3.02694e-13
-2.93057e-13
-2.82242e-13
-2.71013e-13