/*--------------------------------*- C++ -*----------------------------------*\
| =========                 |                                                 |
| \\      /  F ield         | OpenFOAM: The Open Source CFD Toolbox           |
|  \\    /   O peration     | Version:  v2012                                 |
|   \\  /    A nd           | Website:  www.openfoam.com                      |
|    \\/     M anipulation  |                                                 |
\*---------------------------------------------------------------------------*/
FoamFile
{
    version     2.0;
    format      ascii;
    class       volVectorField;
    location    "0";
    object      uRec;
}
// * * * * * * * * * * * * * * * * * * * * * * * * * * * * * * * * * * * * * //

dimensions      [0 1 -1 0 0 0 0];


internalField   nonuniform List<vector> 
4000
(
(1 4.85271e-15 0)
(1 -1.56368e-18 0)
(1 3.7087e-16 0)
(1 -2.37559e-15 0)
(1 -9.56955e-16 0)
(1 -1.11073e-15 0)
(1 1.43528e-15 0)
(1 2.01171e-15 0)
(1 7.3804e-15 0)
(1 -3.12714e-15 0)
(1 -7.38582e-15 0)
(1 -9.87962e-16 0)
(1 3.00484e-15 0)
(1 2.34891e-15 0)
(1 -3.72554e-15 0)
(1 1.47065e-15 0)
(1 -7.51721e-16 0)
(1 -1.53298e-15 0)
(1 2.86263e-15 0)
(1 2.29711e-15 0)
(1 7.36628e-16 0)
(1 1.85275e-15 0)
(1 -3.47234e-15 0)
(1 1.78727e-15 0)
(1 -2.7096e-15 0)
(1 4.19401e-16 0)
(1 -1.98707e-15 0)
(1 -2.92007e-15 0)
(1 -1.44967e-15 0)
(1 -3.06843e-16 0)
(1 2.63732e-15 0)
(1 2.82232e-15 0)
(1 -7.96134e-16 0)
(1 -1.5494e-15 0)
(1 -1.21886e-15 0)
(1 -1.13906e-15 0)
(1 -5.38304e-16 0)
(1 3.51799e-15 0)
(1 1.38486e-15 0)
(1 -2.46303e-15 0)
(1 -2.95355e-16 0)
(1 -4.2596e-15 0)
(1 -2.01556e-15 0)
(1 2.58922e-15 0)
(1 2.18415e-15 0)
(1 -2.46699e-15 0)
(1 -7.19883e-16 0)
(1 4.57462e-16 0)
(1 1.79727e-15 0)
(1 1.55178e-16 0)
(1 1.90597e-15 0)
(1 4.50683e-16 0)
(1 4.0434e-15 0)
(1 3.85372e-15 0)
(1 4.64064e-15 0)
(1 5.93717e-15 0)
(1 7.88857e-17 0)
(1 -1.31909e-15 0)
(1 -3.89343e-15 0)
(1 -6.29166e-16 0)
(1 -3.42518e-15 0)
(1 -1.38537e-15 0)
(1 -1.27291e-15 0)
(1 2.05561e-15 0)
(1 -1.59402e-15 0)
(1 3.77643e-16 0)
(1 -1.1918e-15 0)
(1 8.1661e-16 0)
(1 1.03841e-15 0)
(1 -2.12952e-15 0)
(1 -7.9793e-16 0)
(1 7.81265e-16 0)
(1 -4.13531e-15 0)
(1 -3.51849e-15 0)
(1 -2.94519e-15 0)
(1 -2.73417e-15 0)
(1 -9.49513e-16 0)
(1 -2.2306e-15 0)
(1 -5.01201e-16 0)
(1 1.78505e-15 0)
(1 1.63493e-16 0)
(1 2.83698e-15 0)
(1 -2.37583e-15 0)
(1 -2.67034e-15 0)
(1 -4.04445e-15 0)
(1 -1.74294e-15 0)
(1 4.09714e-15 0)
(1 3.99349e-15 0)
(1 -2.92108e-16 0)
(1 3.87508e-15 0)
(1 1.67623e-15 0)
(1 1.17218e-15 0)
(1 1.85196e-15 0)
(1 1.84834e-15 0)
(1 -1.23561e-15 0)
(1 1.13085e-15 0)
(1 1.47139e-15 0)
(1 8.18884e-16 0)
(1 -2.08206e-15 0)
(1 -2.5291e-15 0)
(1 2.8094e-15 0)
(1 3.94268e-15 0)
(1 3.88022e-16 0)
(1 -2.82921e-15 0)
(1 -3.89703e-15 0)
(1 -1.30969e-16 0)
(1 8.58151e-16 0)
(1 2.53329e-15 0)
(1 8.25545e-15 0)
(1 1.47052e-15 0)
(1 -3.99062e-15 0)
(1 -3.8385e-15 0)
(1 -1.17096e-15 0)
(1 -4.21583e-15 0)
(1 -5.08608e-15 0)
(1 6.24519e-15 0)
(1 3.0594e-15 0)
(1 4.10244e-16 0)
(1 2.2586e-15 0)
(1 2.26996e-15 0)
(1 2.21054e-15 0)
(1 4.0689e-16 0)
(1 -3.19392e-15 0)
(1 2.71608e-15 0)
(1 -4.58449e-15 0)
(1 -1.35921e-15 0)
(1 -2.3574e-15 0)
(1 -6.32769e-15 0)
(1 -1.87368e-15 0)
(1 4.04486e-16 0)
(1 -7.46535e-16 0)
(1 1.26422e-15 0)
(1 -1.90608e-15 0)
(1 -9.24277e-16 0)
(1 1.83415e-15 0)
(1 -7.72384e-16 0)
(1 8.86895e-16 0)
(1 4.85915e-15 0)
(1 -3.59606e-15 0)
(1 -5.22678e-15 0)
(1 -6.01199e-15 0)
(1 -4.11755e-15 0)
(1 -1.45732e-15 0)
(1 3.74252e-15 0)
(1 1.75892e-15 0)
(1 -1.36218e-15 0)
(1 4.75482e-16 0)
(1 2.30296e-15 0)
(1 3.67069e-15 0)
(1 2.73718e-15 0)
(1 2.52674e-15 0)
(1 -1.92443e-15 0)
(1 2.97872e-15 0)
(1 1.498e-15 0)
(1 3.3115e-15 0)
(1 9.79084e-16 0)
(1 -6.03694e-16 0)
(1 1.43663e-16 0)
(1 -4.51436e-16 0)
(1 -4.83102e-15 0)
(1 2.85118e-17 0)
(1 2.36499e-16 0)
(1 1.0127e-15 0)
(1 2.41118e-15 0)
(1 -2.59056e-15 0)
(1 2.70349e-16 0)
(1 -3.71252e-15 0)
(1 -1.5736e-15 0)
(1 2.61685e-15 0)
(1 -1.64688e-15 0)
(1 -2.0868e-16 0)
(1 2.05988e-16 0)
(1 1.72714e-15 0)
(1 -5.95516e-16 0)
(1 7.11141e-16 0)
(1 -1.83338e-16 0)
(1 5.68791e-16 0)
(1 -1.04965e-16 0)
(1 5.31603e-16 0)
(1 6.40789e-15 0)
(1 1.47258e-15 0)
(1 6.34454e-16 0)
(1 -2.3536e-15 0)
(1 -4.76258e-15 0)
(1 -5.19691e-15 0)
(1 -1.79291e-15 0)
(1 8.42269e-16 0)
(1 3.1649e-15 0)
(1 -1.4033e-15 0)
(1 3.25171e-15 0)
(1 -1.33205e-16 0)
(1 -1.80256e-15 0)
(1 2.26321e-15 0)
(1 3.81436e-15 0)
(1 -3.8448e-15 0)
(1 1.96894e-15 0)
(1 1.91878e-15 0)
(1 -3.1967e-16 0)
(1 -2.74596e-15 0)
(1 -4.15315e-15 0)
(1 -3.96571e-15 0)
(1 7.85223e-15 0)
(1 -6.02912e-15 0)
(1 4.21801e-15 0)
(1 -5.74832e-15 0)
(1 1.08927e-15 0)
(1 8.8768e-16 0)
(1 6.7916e-15 0)
(1 3.56193e-16 0)
(1 6.63483e-16 0)
(1 -1.70377e-16 0)
(1 1.08989e-15 0)
(1 1.82223e-15 0)
(1 -1.39532e-15 0)
(1 1.21014e-16 0)
(1 -9.81938e-16 0)
(1 1.20707e-15 0)
(1 3.01061e-15 0)
(1 -3.11448e-15 0)
(1 1.38853e-15 0)
(1 -1.33166e-16 0)
(1 -4.40629e-15 0)
(1 7.43967e-16 0)
(1 2.64601e-15 0)
(1 6.35903e-15 0)
(1 8.12538e-16 0)
(1 2.14775e-15 0)
(1 -7.30392e-15 0)
(1 -1.94025e-15 0)
(1 -1.3652e-15 0)
(1 -2.54395e-15 0)
(1 -4.83277e-15 0)
(1 -2.1722e-15 0)
(1 4.69547e-16 0)
(1 1.67838e-15 0)
(1 3.50827e-15 0)
(1 -2.54414e-16 0)
(1 3.46048e-15 0)
(1 1.93851e-15 0)
(1 -5.87107e-15 0)
(1 -4.54492e-15 0)
(1 -4.9075e-15 0)
(1 1.58334e-16 0)
(1 -2.00495e-15 0)
(1 1.85158e-16 0)
(1 -2.63758e-16 0)
(1 4.37404e-15 0)
(1 4.25698e-15 0)
(1 4.8629e-15 0)
(1 1.66128e-15 0)
(1 5.37504e-15 0)
(1 6.9841e-16 0)
(1 3.04406e-15 0)
(1 -7.65348e-16 0)
(1 9.09425e-16 0)
(1 -1.2278e-15 0)
(1 1.72027e-15 0)
(1 3.60271e-15 0)
(1 6.05166e-15 0)
(1 -2.0833e-15 0)
(1 -1.59622e-15 0)
(1 -1.71182e-15 0)
(1 3.93611e-16 0)
(1 -1.86125e-15 0)
(1 -3.39678e-15 0)
(1 -1.55754e-15 0)
(1 -1.75667e-15 0)
(1 -2.35563e-16 0)
(1 3.01146e-15 0)
(1 8.33437e-16 0)
(1 6.29938e-16 0)
(1 -3.60956e-15 0)
(1 -8.73244e-16 0)
(1 -3.60221e-15 0)
(1 -5.90044e-16 0)
(1 -3.59823e-15 0)
(1 -3.68367e-16 0)
(1 -3.63809e-15 0)
(1 1.683e-15 0)
(1 -6.83261e-16 0)
(1 -4.3101e-16 0)
(1 -1.46772e-15 0)
(1 -3.316e-16 0)
(1 -1.59482e-15 0)
(1 -3.26206e-15 0)
(1 1.05643e-15 0)
(1 -2.28456e-15 0)
(1 2.28653e-15 0)
(1 -8.40591e-16 0)
(1 2.76993e-15 0)
(1 -1.28726e-15 0)
(1 7.44459e-16 0)
(1 -1.57408e-15 0)
(1 3.23436e-15 0)
(1 -6.82886e-16 0)
(1 2.94973e-15 0)
(1 1.04984e-15 0)
(1 -2.75185e-15 0)
(1 -1.62592e-15 0)
(1 -3.54832e-15 0)
(1 -6.42446e-16 0)
(1 -2.96735e-16 0)
(1 -3.97699e-15 0)
(1 -3.52778e-15 0)
(1 2.55795e-15 0)
(1 2.59118e-15 0)
(1 5.03249e-15 0)
(1 4.67572e-15 0)
(1 2.41475e-15 0)
(1 -3.3871e-15 0)
(1 -4.72364e-15 0)
(1 -2.90516e-16 0)
(1 -1.93609e-15 0)
(1 7.49895e-15 0)
(1 7.40675e-15 0)
(1 -3.04679e-15 0)
(1 7.88299e-16 0)
(1 -7.98777e-17 0)
(1 -1.79947e-15 0)
(1 4.60402e-15 0)
(1 7.08067e-17 0)
(1 9.62897e-17 0)
(1 -1.26192e-15 0)
(1 2.61353e-15 0)
(1 1.0497e-14 0)
(1 5.78238e-15 0)
(1 5.72324e-15 0)
(1 -2.4545e-15 0)
(1 7.09606e-16 0)
(1 -3.48074e-15 0)
(1 -1.90796e-15 0)
(1 -5.94585e-15 0)
(1 -4.91876e-15 0)
(1 -6.23305e-15 0)
(1 -4.26939e-15 0)
(1 -2.3295e-15 0)
(1 9.70711e-17 0)
(1 -9.90009e-16 0)
(1 5.43186e-15 0)
(1 -4.23332e-15 0)
(1 2.49632e-15 0)
(1 -3.98964e-15 0)
(1 -2.07641e-15 0)
(1 -1.61524e-15 0)
(1 1.61897e-15 0)
(1 2.44005e-15 0)
(1 3.25546e-15 0)
(1 4.69347e-15 0)
(1 4.29235e-15 0)
(1 1.1055e-15 0)
(1 5.37024e-15 0)
(1 4.77817e-15 0)
(1 4.17583e-15 0)
(1 3.80179e-15 0)
(1 3.26613e-15 0)
(1 2.98088e-15 0)
(1 2.84068e-15 0)
(1 2.9559e-15 0)
(1 5.53248e-15 0)
(1 3.35321e-15 0)
(1 -5.44588e-16 0)
(1 -7.46542e-15 0)
(1 -3.96348e-15 0)
(1 -3.11742e-15 0)
(1 -1.69467e-15 0)
(1 2.54787e-16 0)
(1 8.23726e-17 0)
(1 1.32696e-15 0)
(1 -1.1388e-15 0)
(1 -3.61356e-15 0)
(1 -2.46075e-15 0)
(1 -6.71399e-15 0)
(1 -5.74527e-15 0)
(1 -6.28823e-15 0)
(1 -4.74921e-15 0)
(1 1.17265e-15 0)
(1 2.83384e-15 0)
(1 7.62899e-16 0)
(1 3.0216e-15 0)
(1 -2.21824e-15 0)
(1 -4.03949e-15 0)
(1 -9.24721e-16 0)
(1 -2.43736e-15 0)
(1 -2.34936e-15 0)
(1 -1.32436e-15 0)
(1 -6.0887e-16 0)
(1 5.16194e-15 0)
(1 2.56484e-15 0)
(1 2.76654e-15 0)
(1 3.1144e-15 0)
(1 -2.27626e-16 0)
(1 3.49952e-15 0)
(1 7.00275e-17 0)
(1 2.59073e-15 0)
(1 8.79835e-16 0)
(1 3.99175e-17 0)
(1 -8.45083e-17 0)
(1 -1.15069e-15 0)
(1 -6.98492e-15 0)
(1 -4.98456e-15 0)
(1 3.74978e-15 0)
(1 -3.87519e-15 0)
(1 6.45465e-15 0)
(1 -4.9105e-15 0)
(1 5.19476e-15 0)
(1 5.14165e-16 0)
(1 -2.70703e-15 0)
(1 -5.33384e-15 0)
(1 1.24609e-15 0)
(1 2.36447e-15 0)
(1 4.49808e-15 0)
(1 5.82952e-15 0)
(1 -2.05442e-16 0)
(1 -1.24457e-15 0)
(1 1.66366e-15 0)
(1 4.81235e-16 0)
(1 3.97139e-15 0)
(1 1.2193e-16 0)
(1 -2.17663e-15 0)
(1 -2.7754e-15 0)
(1 -2.31564e-16 0)
(1 3.11438e-15 0)
(1 2.22255e-15 0)
(1 2.1809e-15 0)
(1 -1.95738e-15 0)
(1 -7.61632e-16 0)
(1 -3.53585e-15 0)
(1 2.54463e-15 0)
(1 6.36523e-16 0)
(1 -1.42534e-15 0)
(1 -4.22969e-15 0)
(1 -4.63651e-16 0)
(1 -7.06278e-15 0)
(1 3.46504e-15 0)
(1 -4.34317e-15 0)
(1 -4.75898e-15 0)
(1 -3.0239e-16 0)
(1 -4.03238e-15 0)
(1 3.34131e-16 0)
(1 6.38973e-17 0)
(1 9.88065e-16 0)
(1 -3.33645e-15 0)
(1 -6.28329e-15 0)
(1 -3.17922e-15 0)
(1 -3.77902e-15 0)
(1 4.98421e-15 0)
(1 1.60837e-15 0)
(1 8.33591e-15 0)
(1 5.45646e-15 0)
(1 3.88597e-15 0)
(1 8.84895e-16 0)
(1 1.12686e-15 0)
(1 -5.26174e-17 0)
(1 2.72394e-15 0)
(1 1.39735e-15 0)
(1 -1.13544e-15 0)
(1 1.07483e-15 0)
(1 2.43129e-16 0)
(1 1.12078e-15 0)
(1 3.82673e-15 0)
(1 5.51979e-15 0)
(1 -1.06305e-15 0)
(1 1.44507e-16 0)
(1 -1.40642e-15 0)
(1 5.10869e-15 0)
(1 5.06854e-15 0)
(1 4.71403e-15 0)
(1 1.35301e-15 0)
(1 -4.33985e-15 0)
(1 -1.1305e-15 0)
(1 -5.71842e-15 0)
(1 -3.95748e-15 0)
(1 1.0476e-15 0)
(1 -1.37036e-15 0)
(1 -3.21229e-15 0)
(1 -9.41925e-16 0)
(1 -1.50343e-15 0)
(1 7.64718e-16 0)
(1 -1.12303e-15 0)
(1 1.11006e-15 0)
(1 -3.79854e-15 0)
(1 -3.72916e-15 0)
(1 -4.63587e-15 0)
(1 -3.81968e-15 0)
(1 2.68883e-15 0)
(1 -5.90954e-16 0)
(1 4.54144e-15 0)
(1 1.2239e-15 0)
(1 4.00136e-15 0)
(1 2.34551e-16 0)
(1 2.86175e-15 0)
(1 9.77814e-18 0)
(1 4.77225e-15 0)
(1 2.54348e-15 0)
(1 5.18759e-15 0)
(1 -6.73758e-16 0)
(1 -1.3712e-15 0)
(1 -5.18131e-16 0)
(1 -3.12054e-15 0)
(1 9.08476e-16 0)
(1 -5.34447e-17 0)
(1 -2.56716e-16 0)
(1 8.0923e-15 0)
(1 3.89709e-15 0)
(1 -6.34317e-16 0)
(1 -5.70267e-15 0)
(1 -5.17429e-15 0)
(1 -5.69759e-16 0)
(1 -3.76009e-15 0)
(1 1.2389e-15 0)
(1 4.48228e-15 0)
(1 1.02458e-14 0)
(1 6.31772e-15 0)
(1 -2.16738e-15 0)
(1 -5.10888e-16 0)
(1 2.02548e-16 0)
(1 -6.67829e-16 0)
(1 -2.68619e-15 0)
(1 -6.38339e-15 0)
(1 -9.32534e-15 0)
(1 -1.14328e-15 0)
(1 6.79237e-15 0)
(1 1.445e-14 0)
(1 6.38242e-15 0)
(1 5.65379e-16 0)
(1 -6.12127e-16 0)
(1 -3.97531e-15 0)
(1 8.73509e-16 0)
(1 -8.43716e-15 0)
(1 -2.8463e-15 0)
(1 -6.44869e-15 0)
(1 7.46653e-16 0)
(1 -2.40848e-15 0)
(1 6.8526e-15 0)
(1 -2.4655e-15 0)
(1 8.73017e-16 0)
(1 1.69348e-15 0)
(1 1.02468e-15 0)
(1 -3.43401e-15 0)
(1 -1.94149e-15 0)
(1 -3.94786e-15 0)
(1 1.22362e-16 0)
(1 -4.25373e-15 0)
(1 -4.09639e-15 0)
(1 1.81595e-15 0)
(1 3.92081e-15 0)
(1 3.93063e-15 0)
(1 6.00038e-15 0)
(1 6.25337e-15 0)
(1 3.44373e-15 0)
(1 -6.35931e-16 0)
(1 1.56717e-15 0)
(1 4.35472e-15 0)
(1 3.78974e-15 0)
(1 -2.51245e-16 0)
(1 7.35892e-16 0)
(1 3.12866e-15 0)
(1 4.2519e-15 0)
(1 1.20837e-15 0)
(1 8.90392e-15 0)
(1 8.16168e-16 0)
(1 4.06023e-16 0)
(1 -3.96675e-15 0)
(1 -1.29149e-15 0)
(1 3.51753e-15 0)
(1 5.41454e-15 0)
(1 7.82267e-15 0)
(1 4.18434e-15 0)
(1 2.86125e-15 0)
(1 2.53312e-15 0)
(1 3.8481e-15 0)
(1 3.00597e-15 0)
(1 1.50902e-15 0)
(1 -2.51964e-15 0)
(1 -3.37868e-15 0)
(1 -5.15995e-15 0)
(1 -2.63163e-15 0)
(1 -1.37119e-15 0)
(1 -4.40869e-15 0)
(1 -2.76767e-15 0)
(1 -2.77534e-15 0)
(1 1.44365e-16 0)
(1 -2.81999e-15 0)
(1 1.20615e-15 0)
(1 -4.23998e-15 0)
(1 -5.20662e-15 0)
(1 -3.84595e-15 0)
(1 -3.45742e-15 0)
(1 -6.92255e-16 0)
(1 5.18541e-17 0)
(1 2.60979e-15 0)
(1 2.32333e-15 0)
(1 5.43945e-15 0)
(1 5.73218e-15 0)
(1 9.03662e-15 0)
(1 5.44757e-15 0)
(1 2.71036e-15 0)
(1 -1.43618e-15 0)
(1 4.95751e-15 0)
(1 5.54265e-15 0)
(1 -4.59156e-16 0)
(1 -4.54651e-16 0)
(1 7.41746e-15 0)
(1 1.86757e-17 0)
(1 1.60257e-15 0)
(1 -4.08054e-15 0)
(1 4.74593e-15 0)
(1 9.40274e-15 0)
(1 -5.75794e-16 0)
(1 2.23478e-15 0)
(1 -4.61013e-15 0)
(1 2.69158e-15 0)
(1 -3.30557e-15 0)
(1 5.64541e-15 0)
(1 -2.13011e-15 0)
(1 4.06936e-15 0)
(1 -2.1095e-15 0)
(1 -4.03317e-15 0)
(1 -3.79812e-15 0)
(1 7.95022e-16 0)
(1 2.16637e-15 0)
(1 -2.02311e-16 0)
(1 1.29163e-15 0)
(1 -7.2496e-15 0)
(1 3.71178e-15 0)
(1 -2.63736e-15 0)
(1 3.32771e-15 0)
(1 -1.8375e-15 0)
(1 -1.58755e-15 0)
(1 -9.47257e-16 0)
(1 -1.10015e-15 0)
(1 -2.68468e-16 0)
(1 4.4403e-15 0)
(1 -3.6053e-15 0)
(1 -3.29709e-15 0)
(1 3.57178e-16 0)
(1 -2.05503e-15 0)
(1 1.94616e-15 0)
(1 -5.36773e-15 0)
(1 3.72637e-15 0)
(1 -9.88216e-17 0)
(1 4.71794e-15 0)
(1 7.35845e-16 0)
(1 -1.68523e-16 0)
(1 1.47884e-15 0)
(1 2.88065e-15 0)
(1 4.09575e-15 0)
(1 -9.96201e-16 0)
(1 2.71501e-15 0)
(1 -1.58962e-16 0)
(1 -7.12651e-16 0)
(1 -3.62282e-16 0)
(1 3.34151e-15 0)
(1 1.64755e-15 0)
(1 4.00548e-16 0)
(1 8.95219e-16 0)
(1 4.45329e-15 0)
(1 5.12741e-15 0)
(1 4.51797e-15 0)
(1 4.87878e-15 0)
(1 1.62876e-15 0)
(1 3.61234e-15 0)
(1 4.73625e-16 0)
(1 1.39435e-15 0)
(1 -1.34518e-15 0)
(1 -2.01763e-15 0)
(1 9.01617e-17 0)
(1 4.09511e-15 0)
(1 4.55696e-15 0)
(1 1.12317e-15 0)
(1 5.88299e-15 0)
(1 2.06044e-15 0)
(1 -3.39296e-15 0)
(1 -3.20875e-15 0)
(1 -2.51474e-15 0)
(1 4.6989e-15 0)
(1 -1.2871e-16 0)
(1 3.90958e-15 0)
(1 -1.697e-15 0)
(1 -4.22204e-15 0)
(1 -1.80297e-15 0)
(1 -1.19637e-15 0)
(1 -6.01484e-16 0)
(1 -4.56366e-16 0)
(1 -1.73511e-15 0)
(1 2.68361e-15 0)
(1 5.4985e-16 0)
(1 3.17915e-15 0)
(1 3.95078e-16 0)
(1 4.6295e-16 0)
(1 2.63261e-16 0)
(1 4.62643e-15 0)
(1 6.03841e-15 0)
(1 6.54959e-15 0)
(1 3.35196e-15 0)
(1 8.3856e-15 0)
(1 6.50222e-15 0)
(1 4.90791e-15 0)
(1 5.25485e-15 0)
(1 3.82592e-15 0)
(1 1.48078e-15 0)
(1 -2.18863e-15 0)
(1 -5.07964e-15 0)
(1 -1.46638e-15 0)
(1 3.28495e-15 0)
(1 3.86801e-15 0)
(1 2.08718e-15 0)
(1 5.23599e-15 0)
(1 6.52565e-15 0)
(1 6.92709e-15 0)
(1 -1.33068e-16 0)
(1 -2.87002e-15 0)
(1 -1.23509e-15 0)
(1 4.75679e-15 0)
(1 -4.29023e-16 0)
(1 5.89377e-15 0)
(1 1.86967e-15 0)
(1 7.45362e-15 0)
(1 -3.35124e-16 0)
(1 2.96651e-15 0)
(1 -1.00441e-15 0)
(1 -7.45057e-15 0)
(1 -5.41279e-15 0)
(1 -1.39564e-14 0)
(1 -1.29231e-14 0)
(1 -1.34023e-14 0)
(1 -2.98212e-15 0)
(1 -2.4471e-15 0)
(1 1.10773e-14 0)
(1 8.76148e-15 0)
(1 1.01957e-14 0)
(1 -8.3065e-16 0)
(1 -5.64135e-18 0)
(1 -7.46786e-15 0)
(1 -4.87554e-15 0)
(1 -2.75651e-15 0)
(1 -4.64885e-15 0)
(1 2.07239e-16 0)
(1 5.01506e-15 0)
(1 1.01156e-14 0)
(1 1.12746e-15 0)
(1 -4.69507e-15 0)
(1 -5.93804e-15 0)
(1 -7.39365e-15 0)
(1 -4.08951e-15 0)
(1 4.22846e-15 0)
(1 8.43464e-15 0)
(1 3.5632e-15 0)
(1 2.72937e-15 0)
(1 2.10131e-15 0)
(1 6.01839e-15 0)
(1 2.84203e-16 0)
(1 -1.07528e-15 0)
(1 4.30497e-15 0)
(1 9.17657e-15 0)
(1 8.94325e-15 0)
(1 2.52583e-15 0)
(1 1.63984e-15 0)
(1 1.08995e-16 0)
(1 -3.87155e-15 0)
(1 -3.50246e-15 0)
(1 7.05536e-15 0)
(1 9.85096e-15 0)
(1 1.09944e-14 0)
(1 1.4386e-15 0)
(1 -5.29678e-16 0)
(1 3.45224e-15 0)
(1 2.31296e-15 0)
(1 3.50012e-15 0)
(1 3.5166e-15 0)
(1 2.83803e-15 0)
(1 7.85536e-16 0)
(1 9.4975e-16 0)
(1 -2.30576e-15 0)
(1 5.3446e-16 0)
(1 1.58601e-15 0)
(1 -2.17557e-15 0)
(1 -3.29302e-15 0)
(1 -5.31704e-15 0)
(1 -6.00617e-15 0)
(1 -2.52255e-16 0)
(1 -3.48619e-15 0)
(1 -6.54219e-16 0)
(1 -2.74721e-15 0)
(1 -9.22667e-16 0)
(1 2.1658e-15 0)
(1 2.22687e-15 0)
(1 1.34136e-15 0)
(1 1.68911e-15 0)
(1 -2.46764e-15 0)
(1 1.71176e-16 0)
(1 3.68749e-15 0)
(1 6.61385e-15 0)
(1 7.34644e-15 0)
(1 6.34008e-15 0)
(1 8.2631e-15 0)
(1 4.20269e-15 0)
(1 6.48963e-15 0)
(1 7.5853e-15 0)
(1 9.28485e-15 0)
(1 -9.40938e-16 0)
(1 -4.349e-15 0)
(1 -7.30937e-15 0)
(1 1.49297e-16 0)
(1 -2.47421e-16 0)
(1 1.02483e-14 0)
(1 1.61613e-15 0)
(1 2.50913e-15 0)
(1 4.63826e-15 0)
(1 -3.97906e-15 0)
(1 1.4909e-16 0)
(1 -3.90604e-15 0)
(1 2.94222e-15 0)
(1 5.17482e-15 0)
(1 4.1513e-15 0)
(1 3.07115e-15 0)
(1 -3.15086e-15 0)
(1 3.05311e-15 0)
(1 1.38283e-16 0)
(1 -2.60115e-15 0)
(1 -7.06285e-15 0)
(1 -4.09711e-15 0)
(1 1.20363e-15 0)
(1 3.50591e-15 0)
(1 -3.57724e-15 0)
(1 -4.48218e-15 0)
(1 -2.84341e-15 0)
(1 -9.65714e-16 0)
(1 3.05907e-15 0)
(1 2.8663e-15 0)
(1 3.49924e-15 0)
(1 -6.09278e-15 0)
(1 -8.5903e-15 0)
(1 -8.9231e-15 0)
(1 -4.38306e-15 0)
(1 1.47256e-16 0)
(1 8.08932e-16 0)
(1 4.71607e-15 0)
(1 2.73372e-15 0)
(1 1.61346e-15 0)
(1 -5.40195e-15 0)
(1 -6.07339e-15 0)
(1 -3.27546e-15 0)
(1 -2.1855e-15 0)
(1 6.8946e-15 0)
(1 5.28591e-16 0)
(1 6.88795e-15 0)
(1 1.88798e-15 0)
(1 -1.31322e-15 0)
(1 3.72515e-15 0)
(1 4.40121e-15 0)
(1 7.55361e-15 0)
(1 2.57224e-15 0)
(1 9.38614e-15 0)
(1 1.16641e-14 0)
(1 8.69903e-15 0)
(1 5.16747e-15 0)
(1 -3.91279e-15 0)
(1 5.21506e-15 0)
(1 -5.48038e-16 0)
(1 2.66019e-15 0)
(1 -1.63174e-15 0)
(1 3.63322e-15 0)
(1 5.5166e-15 0)
(1 -5.27275e-15 0)
(1 -2.31486e-16 0)
(1 1.34272e-15 0)
(1 5.02809e-15 0)
(1 1.39162e-14 0)
(1 9.7933e-15 0)
(1 1.09768e-14 0)
(1 4.38958e-15 0)
(1 6.25726e-15 0)
(1 -5.2402e-18 0)
(1 1.4294e-15 0)
(1 3.17088e-16 0)
(1 -8.09122e-16 0)
(1 9.60832e-16 0)
(1 1.89637e-15 0)
(1 1.31374e-16 0)
(1 1.32468e-15 0)
(1 -1.78083e-15 0)
(1 -2.87431e-15 0)
(1 -3.1644e-15 0)
(1 -6.12853e-15 0)
(1 -5.17287e-15 0)
(1 -5.18382e-15 0)
(1 -3.30212e-15 0)
(1 -2.72655e-16 0)
(1 -3.76189e-16 0)
(1 -8.61654e-16 0)
(1 3.96592e-15 0)
(1 5.51077e-15 0)
(1 1.00842e-14 0)
(1 1.08996e-14 0)
(1 1.16754e-14 0)
(1 1.14933e-14 0)
(1 1.16823e-14 0)
(1 1.4547e-14 0)
(1 1.60837e-14 0)
(1 -6.05688e-16 0)
(1 4.3141e-16 0)
(1 5.06758e-15 0)
(1 -8.74939e-16 0)
(1 6.60457e-16 0)
(1 -5.12353e-15 0)
(1 3.12109e-15 0)
(1 -2.4885e-17 0)
(1 3.95817e-15 0)
(1 -3.43072e-15 0)
(1 -6.87884e-16 0)
(1 4.50155e-15 0)
(1 4.55783e-15 0)
(1 5.28433e-15 0)
(1 2.24238e-15 0)
(1 -1.07741e-15 0)
(1 -6.38225e-15 0)
(1 8.96221e-16 0)
(1 3.18967e-15 0)
(1 5.83333e-15 0)
(1 -4.35629e-15 0)
(1 -9.79932e-15 0)
(1 -1.48211e-14 0)
(1 1.80793e-15 0)
(1 1.22169e-15 0)
(1 4.74109e-15 0)
(1 -1.65356e-15 0)
(1 5.97222e-15 0)
(1 -5.75765e-16 0)
(1 -8.67299e-16 0)
(1 -4.77019e-15 0)
(1 2.23775e-15 0)
(1 -2.20657e-15 0)
(1 -3.65685e-16 0)
(1 -1.67952e-15 0)
(1 -2.22775e-15 0)
(1 -4.24134e-15 0)
(1 1.08582e-15 0)
(1 -5.00526e-15 0)
(1 -6.71325e-15 0)
(1 -1.91744e-15 0)
(1 1.43844e-15 0)
(1 5.13165e-15 0)
(1 2.34809e-15 0)
(1 4.60496e-15 0)
(1 -4.19991e-15 0)
(1 -4.06897e-16 0)
(1 2.2641e-15 0)
(1 -1.99776e-15 0)
(1 4.67174e-15 0)
(1 -2.03036e-15 0)
(1 4.01772e-16 0)
(1 7.54449e-15 0)
(1 6.49374e-15 0)
(1 9.92833e-15 0)
(1 9.30224e-15 0)
(1 4.5855e-15 0)
(1 -2.95205e-15 0)
(1 2.88177e-15 0)
(1 6.71595e-15 0)
(1 8.01261e-15 0)
(1 3.89079e-15 0)
(1 1.43784e-15 0)
(1 -2.66533e-16 0)
(1 2.0453e-15 0)
(1 2.17091e-15 0)
(1 6.28983e-15 0)
(1 8.6151e-15 0)
(1 1.46648e-14 0)
(1 1.21849e-14 0)
(1 7.34916e-15 0)
(1 1.3377e-15 0)
(1 1.0921e-15 0)
(1 6.707e-16 0)
(1 1.70538e-15 0)
(1 -8.40848e-16 0)
(1 1.90863e-15 0)
(1 -4.57551e-16 0)
(1 2.82099e-15 0)
(1 -1.75858e-15 0)
(1 1.06042e-16 0)
(1 -2.99329e-15 0)
(1 -3.45775e-15 0)
(1 -3.03607e-15 0)
(1 -5.22769e-15 0)
(1 6.64526e-17 0)
(1 1.26515e-15 0)
(1 3.48485e-15 0)
(1 -1.98335e-17 0)
(1 -7.14972e-16 0)
(1 4.11491e-15 0)
(1 2.48817e-15 0)
(1 4.40523e-15 0)
(1 4.80092e-15 0)
(1 1.42829e-14 0)
(1 6.91574e-15 0)
(1 1.11512e-14 0)
(1 1.08527e-14 0)
(1 1.78038e-14 0)
(1 1.79405e-14 0)
(1 -5.18866e-16 0)
(1 1.11987e-15 0)
(1 1.88745e-15 0)
(1 -8.85059e-16 0)
(1 -4.6358e-15 0)
(1 -8.11723e-15 0)
(1 7.38106e-16 0)
(1 -4.58936e-15 0)
(1 4.33731e-15 0)
(1 1.05915e-14 0)
(1 5.2996e-15 0)
(1 -5.48954e-16 0)
(1 -4.39502e-16 0)
(1 -1.21129e-15 0)
(1 -7.47771e-16 0)
(1 -1.81808e-15 0)
(1 5.02268e-15 0)
(1 5.2784e-15 0)
(1 5.24088e-15 0)
(1 2.20764e-15 0)
(1 -6.48273e-15 0)
(1 -9.79985e-15 0)
(1 -1.58765e-14 0)
(1 -5.14566e-15 0)
(1 -7.36685e-15 0)
(1 5.37362e-15 0)
(1 2.52579e-15 0)
(1 5.57414e-15 0)
(1 -1.49878e-15 0)
(1 -2.70638e-15 0)
(1 -7.64959e-15 0)
(1 9.907e-16 0)
(1 -3.98903e-16 0)
(1 7.88513e-16 0)
(1 -3.27985e-15 0)
(1 -6.02884e-15 0)
(1 -2.07276e-16 0)
(1 -4.80782e-15 0)
(1 -6.08886e-15 0)
(1 -7.51561e-15 0)
(1 -7.01896e-16 0)
(1 3.67303e-15 0)
(1 4.96392e-15 0)
(1 1.68262e-15 0)
(1 1.7831e-15 0)
(1 3.54286e-16 0)
(1 2.30899e-15 0)
(1 2.907e-15 0)
(1 5.24025e-15 0)
(1 2.53624e-15 0)
(1 7.03751e-15 0)
(1 5.25411e-15 0)
(1 8.92131e-15 0)
(1 7.65402e-15 0)
(1 5.85431e-15 0)
(1 3.21454e-15 0)
(1 1.28347e-15 0)
(1 1.18845e-15 0)
(1 1.1177e-15 0)
(1 2.24351e-15 0)
(1 5.46918e-15 0)
(1 6.69814e-15 0)
(1 2.32335e-15 0)
(1 3.8873e-15 0)
(1 8.71597e-15 0)
(1 5.30072e-15 0)
(1 3.70652e-15 0)
(1 3.64035e-15 0)
(1 -3.74889e-15 0)
(1 4.50861e-15 0)
(1 4.27046e-15 0)
(1 1.20478e-14 0)
(1 5.5272e-15 0)
(1 -2.12498e-16 0)
(1 -9.21021e-17 0)
(1 -4.57236e-15 0)
(1 7.2009e-15 0)
(1 3.88616e-16 0)
(1 -1.63712e-16 0)
(1 5.69019e-15 0)
(1 2.90876e-15 0)
(1 2.82645e-15 0)
(1 3.27198e-15 0)
(1 -2.22856e-15 0)
(1 -4.35775e-15 0)
(1 -6.32365e-15 0)
(1 -5.14089e-16 0)
(1 -5.14443e-15 0)
(1 -2.8803e-15 0)
(1 -2.8789e-15 0)
(1 9.51357e-15 0)
(1 3.62633e-16 0)
(1 5.66248e-15 0)
(1 4.12778e-15 0)
(1 1.09819e-14 0)
(1 7.28745e-15 0)
(1 8.13736e-15 0)
(1 8.7881e-15 0)
(1 1.29379e-14 0)
(1 1.32187e-14 0)
(1 -1.90438e-16 0)
(1 7.57784e-16 0)
(1 -1.44077e-15 0)
(1 3.16044e-15 0)
(1 -5.88145e-15 0)
(1 4.77041e-15 0)
(1 -4.43253e-15 0)
(1 1.3986e-15 0)
(1 -3.22345e-15 0)
(1 2.46989e-15 0)
(1 5.1351e-15 0)
(1 -2.29314e-16 0)
(1 1.89824e-15 0)
(1 1.48243e-15 0)
(1 5.84254e-15 0)
(1 -4.83808e-15 0)
(1 1.07917e-15 0)
(1 -8.09406e-15 0)
(1 4.24675e-15 0)
(1 -1.04585e-14 0)
(1 -3.95702e-15 0)
(1 4.93677e-16 0)
(1 4.50833e-15 0)
(1 -1.03914e-15 0)
(1 4.42928e-15 0)
(1 7.56181e-16 0)
(1 4.59971e-15 0)
(1 2.65884e-15 0)
(1 6.75208e-16 0)
(1 -5.00417e-15 0)
(1 -4.56188e-15 0)
(1 -5.74564e-15 0)
(1 -6.23882e-15 0)
(1 -5.74285e-15 0)
(1 -4.9009e-15 0)
(1 -4.03018e-15 0)
(1 -1.47642e-15 0)
(1 -3.41651e-15 0)
(1 -1.38623e-15 0)
(1 -4.25527e-16 0)
(1 3.51895e-15 0)
(1 5.18324e-15 0)
(1 5.88107e-16 0)
(1 6.95061e-15 0)
(1 -7.5539e-16 0)
(1 -6.55418e-16 0)
(1 1.65452e-15 0)
(1 -2.82553e-15 0)
(1 9.17233e-15 0)
(1 4.01875e-15 0)
(1 6.94539e-15 0)
(1 5.43592e-15 0)
(1 3.38599e-15 0)
(1 3.69018e-15 0)
(1 2.93821e-15 0)
(1 -8.46722e-15 0)
(1 -2.07752e-15 0)
(1 1.45511e-15 0)
(1 6.84159e-15 0)
(1 2.57976e-15 0)
(1 9.99633e-15 0)
(1 7.39037e-15 0)
(1 1.06882e-14 0)
(1 5.75084e-15 0)
(1 1.0465e-14 0)
(1 6.45311e-15 0)
(1 -3.03115e-16 0)
(1 2.09601e-15 0)
(1 -2.34861e-15 0)
(1 2.04418e-16 0)
(1 8.32398e-15 0)
(1 9.62304e-15 0)
(1 -3.57278e-16 0)
(1 -2.08365e-15 0)
(1 -1.96025e-15 0)
(1 -4.64554e-15 0)
(1 -8.96029e-16 0)
(1 -1.43369e-15 0)
(1 -1.1658e-15 0)
(1 9.3822e-15 0)
(1 3.28799e-15 0)
(1 5.47711e-15 0)
(1 5.75428e-15 0)
(1 -1.13972e-15 0)
(1 1.54461e-15 0)
(1 -4.99149e-15 0)
(1 -3.72972e-15 0)
(1 -5.08739e-15 0)
(1 6.26813e-16 0)
(1 5.03798e-15 0)
(1 3.56112e-15 0)
(1 -4.72958e-16 0)
(1 2.9001e-15 0)
(1 5.25498e-15 0)
(1 5.73264e-15 0)
(1 1.08894e-14 0)
(1 1.13864e-14 0)
(1 1.20851e-14 0)
(1 7.94492e-15 0)
(1 6.28024e-15 0)
(1 1.44195e-16 0)
(1 2.23068e-15 0)
(1 -4.64317e-15 0)
(1 -4.11643e-15 0)
(1 -3.30003e-16 0)
(1 -3.87663e-15 0)
(1 -4.4146e-15 0)
(1 2.9024e-15 0)
(1 -2.3826e-15 0)
(1 3.44611e-15 0)
(1 4.29916e-15 0)
(1 3.76525e-15 0)
(1 -1.10931e-15 0)
(1 -1.88783e-15 0)
(1 -6.58533e-16 0)
(1 -2.58635e-15 0)
(1 -2.01674e-15 0)
(1 6.73651e-15 0)
(1 1.1234e-14 0)
(1 6.72692e-15 0)
(1 5.11605e-15 0)
(1 -1.2509e-15 0)
(1 -1.30775e-14 0)
(1 -1.56647e-14 0)
(1 -5.22187e-15 0)
(1 -1.76718e-15 0)
(1 -8.59284e-16 0)
(1 -5.97805e-16 0)
(1 4.83264e-15 0)
(1 -1.07651e-15 0)
(1 -5.52689e-15 0)
(1 -9.27089e-15 0)
(1 -8.00541e-15 0)
(1 -9.1036e-15 0)
(1 3.03329e-15 0)
(1 -2.33309e-15 0)
(1 1.33156e-16 0)
(1 -5.1864e-15 0)
(1 -1.67451e-16 0)
(1 4.48769e-15 0)
(1 8.09605e-15 0)
(1 2.98603e-15 0)
(1 -3.62427e-15 0)
(1 2.92739e-15 0)
(1 -1.53934e-15 0)
(1 6.82581e-15 0)
(1 4.69026e-15 0)
(1 7.65457e-15 0)
(1 5.15582e-15 0)
(1 5.77065e-15 0)
(1 3.89004e-15 0)
(1 2.07532e-15 0)
(1 2.60635e-15 0)
(1 3.32883e-15 0)
(1 1.0694e-15 0)
(1 5.4398e-15 0)
(1 -3.88531e-16 0)
(1 3.46628e-15 0)
(1 -5.79181e-15 0)
(1 -1.21742e-15 0)
(1 -5.72525e-15 0)
(1 1.18584e-15 0)
(1 4.35526e-15 0)
(1 7.95449e-15 0)
(1 1.31943e-14 0)
(1 1.26025e-14 0)
(1 9.99864e-15 0)
(1 4.52136e-15 0)
(1 3.16564e-15 0)
(1 -1.69496e-15 0)
(1 -7.69438e-15 0)
(1 -4.52124e-15 0)
(1 2.08109e-15 0)
(1 6.23193e-15 0)
(1 2.69729e-15 0)
(1 2.42096e-15 0)
(1 -6.46847e-15 0)
(1 -1.93117e-15 0)
(1 9.58911e-16 0)
(1 -1.13853e-15 0)
(1 -4.5872e-16 0)
(1 1.96743e-15 0)
(1 1.53818e-15 0)
(1 2.37255e-15 0)
(1 2.72632e-15 0)
(1 2.21145e-15 0)
(1 5.46488e-17 0)
(1 3.64946e-15 0)
(1 4.47185e-15 0)
(1 4.59998e-15 0)
(1 -8.45173e-16 0)
(1 1.64235e-15 0)
(1 -1.87512e-16 0)
(1 1.94134e-15 0)
(1 2.5619e-15 0)
(1 6.10759e-15 0)
(1 5.71331e-15 0)
(1 6.30037e-15 0)
(1 3.67684e-15 0)
(1 2.52056e-15 0)
(1 5.95668e-16 0)
(1 3.01066e-16 0)
(1 -1.09395e-15 0)
(1 -4.95904e-15 0)
(1 -1.5278e-15 0)
(1 -4.55271e-15 0)
(1 -1.42001e-15 0)
(1 -1.56239e-15 0)
(1 6.17999e-15 0)
(1 1.05586e-14 0)
(1 4.85501e-15 0)
(1 1.02886e-16 0)
(1 -6.80568e-15 0)
(1 -7.52339e-15 0)
(1 -4.91357e-15 0)
(1 8.50117e-15 0)
(1 1.38933e-15 0)
(1 5.38726e-15 0)
(1 -8.74792e-15 0)
(1 2.11984e-15 0)
(1 -3.648e-15 0)
(1 6.94191e-15 0)
(1 -8.70111e-15 0)
(1 -1.99241e-15 0)
(1 -6.52348e-15 0)
(1 6.16021e-15 0)
(1 1.83374e-15 0)
(1 -1.28665e-15 0)
(1 2.61297e-15 0)
(1 -2.39098e-15 0)
(1 -4.5408e-15 0)
(1 -1.58365e-14 0)
(1 -1.01521e-14 0)
(1 -9.99151e-15 0)
(1 -3.82251e-15 0)
(1 3.84927e-15 0)
(1 6.84958e-15 0)
(1 -1.12535e-15 0)
(1 2.06869e-15 0)
(1 -2.82472e-15 0)
(1 -1.21911e-15 0)
(1 -6.46974e-17 0)
(1 7.62512e-15 0)
(1 1.98314e-15 0)
(1 7.924e-15 0)
(1 1.0317e-14 0)
(1 2.89238e-15 0)
(1 8.60531e-15 0)
(1 -1.75137e-15 0)
(1 -9.7154e-16 0)
(1 -7.85745e-15 0)
(1 -3.02553e-15 0)
(1 1.86359e-15 0)
(1 9.61234e-15 0)
(1 8.68024e-16 0)
(1 1.37265e-14 0)
(1 5.48932e-15 0)
(1 4.82417e-15 0)
(1 -2.91721e-15 0)
(1 4.65025e-15 0)
(1 -1.2391e-15 0)
(1 3.57894e-16 0)
(1 -4.9526e-16 0)
(1 9.88319e-15 0)
(1 2.32745e-15 0)
(1 9.37304e-15 0)
(1 1.08215e-14 0)
(1 7.29147e-15 0)
(1 2.41646e-15 0)
(1 8.84263e-16 0)
(1 -7.90057e-15 0)
(1 5.03662e-15 0)
(1 3.3136e-15 0)
(1 7.73301e-15 0)
(1 9.21445e-16 0)
(1 5.52252e-15 0)
(1 -2.23723e-16 0)
(1 6.10744e-15 0)
(1 3.18711e-15 0)
(1 -4.18603e-15 0)
(1 1.32839e-15 0)
(1 -5.41694e-16 0)
(1 -4.12395e-15 0)
(1 1.4477e-15 0)
(1 1.26209e-15 0)
(1 4.08052e-15 0)
(1 1.21912e-16 0)
(1 4.33328e-15 0)
(1 2.33792e-15 0)
(1 3.05616e-15 0)
(1 4.17851e-15 0)
(1 4.34001e-15 0)
(1 -1.29388e-16 0)
(1 2.8943e-15 0)
(1 5.88759e-16 0)
(1 6.5804e-15 0)
(1 4.51957e-15 0)
(1 8.0316e-15 0)
(1 3.43603e-15 0)
(1 2.53636e-15 0)
(1 -4.58358e-16 0)
(1 1.27306e-15 0)
(1 -3.03808e-15 0)
(1 -3.72495e-15 0)
(1 -3.07157e-15 0)
(1 1.19549e-15 0)
(1 -2.47116e-15 0)
(1 -5.07127e-15 0)
(1 3.66906e-15 0)
(1 -3.02732e-15 0)
(1 7.69162e-15 0)
(1 3.93429e-15 0)
(1 5.88773e-15 0)
(1 -4.02499e-15 0)
(1 2.48102e-16 0)
(1 3.58133e-15 0)
(1 -2.46825e-15 0)
(1 -6.38713e-15 0)
(1 -1.00976e-14 0)
(1 9.77048e-16 0)
(1 2.84008e-15 0)
(1 1.99203e-15 0)
(1 5.51042e-15 0)
(1 1.47169e-15 0)
(1 -3.53277e-15 0)
(1 -5.66663e-15 0)
(1 -2.64751e-15 0)
(1 -2.88721e-15 0)
(1 -2.71209e-15 0)
(1 -5.17546e-15 0)
(1 -4.18597e-15 0)
(1 -4.38923e-15 0)
(1 -1.66589e-15 0)
(1 -1.02101e-15 0)
(1 -1.80184e-15 0)
(1 3.40603e-15 0)
(1 -1.68534e-15 0)
(1 -9.79685e-17 0)
(1 1.77769e-15 0)
(1 -5.49818e-15 0)
(1 -7.68373e-15 0)
(1 -5.606e-17 0)
(1 8.41116e-15 0)
(1 3.03088e-15 0)
(1 5.76984e-15 0)
(1 3.20718e-15 0)
(1 1.22678e-16 0)
(1 -8.7855e-16 0)
(1 -4.63949e-15 0)
(1 -8.82947e-16 0)
(1 -9.17331e-16 0)
(1 5.31799e-15 0)
(1 8.04968e-15 0)
(1 1.24018e-14 0)
(1 1.19767e-14 0)
(1 8.34701e-15 0)
(1 5.56746e-15 0)
(1 6.19921e-15 0)
(1 2.60078e-15 0)
(1 -1.44187e-16 0)
(1 3.29221e-15 0)
(1 7.13889e-16 0)
(1 6.63669e-15 0)
(1 2.4518e-15 0)
(1 7.66011e-15 0)
(1 7.09538e-15 0)
(1 1.02338e-14 0)
(1 6.63075e-15 0)
(1 1.01435e-14 0)
(1 6.84377e-15 0)
(1 9.07806e-15 0)
(1 8.28968e-16 0)
(1 -3.49054e-15 0)
(1 9.56121e-16 0)
(1 -2.77631e-16 0)
(1 2.91405e-15 0)
(1 2.10783e-15 0)
(1 4.24121e-15 0)
(1 -1.11593e-16 0)
(1 -3.33919e-15 0)
(1 2.49725e-15 0)
(1 -2.84866e-16 0)
(1 -3.98061e-15 0)
(1 -3.78918e-16 0)
(1 1.03617e-15 0)
(1 2.79388e-15 0)
(1 3.82283e-16 0)
(1 3.79496e-15 0)
(1 6.29146e-16 0)
(1 1.29799e-16 0)
(1 1.09448e-15 0)
(1 -3.92353e-16 0)
(1 2.98063e-15 0)
(1 3.73439e-15 0)
(1 3.25061e-15 0)
(1 1.44423e-15 0)
(1 -7.09691e-16 0)
(1 6.57358e-15 0)
(1 8.24089e-15 0)
(1 8.06363e-15 0)
(1 -1.47442e-15 0)
(1 -6.62659e-16 0)
(1 -1.84004e-15 0)
(1 -2.77663e-15 0)
(1 6.83229e-15 0)
(1 5.30459e-15 0)
(1 8.11878e-15 0)
(1 3.7535e-15 0)
(1 -2.61685e-16 0)
(1 -9.23334e-15 0)
(1 -3.03833e-15 0)
(1 -5.20242e-15 0)
(1 3.9445e-15 0)
(1 -1.4633e-15 0)
(1 -3.717e-15 0)
(1 -8.19667e-15 0)
(1 -3.24434e-15 0)
(1 3.88622e-15 0)
(1 6.15115e-15 0)
(1 -4.97966e-15 0)
(1 -3.10506e-15 0)
(1 -1.05842e-14 0)
(1 7.96602e-15 0)
(1 -4.38223e-16 0)
(1 -2.30185e-16 0)
(1 -6.72227e-15 0)
(1 -3.40175e-15 0)
(1 -5.07436e-15 0)
(1 -1.12367e-14 0)
(1 -6.48615e-15 0)
(1 -8.10583e-15 0)
(1 2.12413e-15 0)
(1 -2.37046e-15 0)
(1 1.33961e-15 0)
(1 -1.10122e-15 0)
(1 -1.16773e-15 0)
(1 -3.40274e-15 0)
(1 -2.04022e-15 0)
(1 -1.86381e-15 0)
(1 1.1372e-15 0)
(1 -2.69189e-15 0)
(1 -1.27047e-15 0)
(1 3.30257e-15 0)
(1 1.08916e-14 0)
(1 8.16808e-15 0)
(1 5.15815e-15 0)
(1 4.00717e-15 0)
(1 -1.43258e-15 0)
(1 -5.66871e-15 0)
(1 -8.30115e-15 0)
(1 8.18733e-15 0)
(1 1.29348e-14 0)
(1 1.09778e-14 0)
(1 5.86829e-15 0)
(1 1.00813e-14 0)
(1 2.99764e-15 0)
(1 1.9672e-15 0)
(1 2.97731e-15 0)
(1 1.29602e-15 0)
(1 -5.78375e-15 0)
(1 -1.08833e-15 0)
(1 4.37157e-15 0)
(1 2.56144e-15 0)
(1 8.74357e-16 0)
(1 7.7469e-15 0)
(1 -3.63253e-16 0)
(1 5.0376e-16 0)
(1 1.47776e-15 0)
(1 6.38066e-15 0)
(1 5.01382e-15 0)
(1 5.73496e-15 0)
(1 -1.79919e-15 0)
(1 1.99419e-15 0)
(1 4.40047e-15 0)
(1 2.08445e-15 0)
(1 3.14949e-15 0)
(1 1.09779e-15 0)
(1 4.10406e-15 0)
(1 -3.00303e-17 0)
(1 4.78847e-15 0)
(1 -3.04611e-15 0)
(1 -1.94776e-16 0)
(1 1.01033e-15 0)
(1 2.80982e-15 0)
(1 2.95761e-15 0)
(1 9.10899e-16 0)
(1 4.56447e-16 0)
(1 2.66785e-15 0)
(1 1.19612e-15 0)
(1 -2.04733e-16 0)