/*--------------------------------*- C++ -*----------------------------------*\
| =========                 |                                                 |
| \\      /  F ield         | OpenFOAM: The Open Source CFD Toolbox           |
|  \\    /   O peration     | Version:  v2012                                 |
|   \\  /    A nd           | Website:  www.openfoam.com                      |
|    \\/     M anipulation  |                                                 |
\*---------------------------------------------------------------------------*/
FoamFile
{
    version     2.0;
    format      ascii;
    class       surfaceScalarField;
    location    "4.5";
    object      phi;
}
// * * * * * * * * * * * * * * * * * * * * * * * * * * * * * * * * * * * * * //

dimensions      [0 3 -1 0 0 0 0];
oriented        oriented;


internalField   nonuniform List<scalar> 
130560
(
3.6158e-06
-3.6158e-06
7.23144e-06
-3.61564e-06
1.08467e-05
-3.61529e-06
1.44615e-05
-3.61478e-06
1.80756e-05
-3.61409e-06
2.16888e-05
-3.61322e-06
2.5301e-05
-3.61216e-06
2.89119e-05
-3.61091e-06
3.25214e-05
-3.60947e-06
3.61292e-05
-3.60784e-06
3.97352e-05
-3.606e-06
4.33391e-05
-3.60395e-06
4.69408e-05
-3.60169e-06
5.054e-05
-3.5992e-06
5.41365e-05
-3.59648e-06
5.773e-05
-3.59352e-06
6.13203e-05
-3.59031e-06
6.49072e-05
-3.58684e-06
6.84903e-05
-3.58311e-06
7.20694e-05
-3.57909e-06
7.56442e-05
-3.57477e-06
7.92143e-05
-3.57016e-06
8.27795e-05
-3.56522e-06
8.63395e-05
-3.55995e-06
8.98938e-05
-3.55434e-06
9.34422e-05
-3.54837e-06
9.69842e-05
-3.54203e-06
0.00010052
-3.53531e-06
0.000104048
-3.52817e-06
0.000107568
-3.52063e-06
0.000111081
-3.51264e-06
0.000114585
-3.50421e-06
0.00011808
-3.49531e-06
0.000121566
-3.48593e-06
0.000125042
-3.47604e-06
0.000128508
-3.46564e-06
0.000131963
-3.4547e-06
0.000135406
-3.44322e-06
0.000138837
-3.43116e-06
0.000142256
-3.41851e-06
0.000145661
-3.40526e-06
0.000149052
-3.39138e-06
0.000152429
-3.37687e-06
0.000155791
-3.3617e-06
0.000159137
-3.34585e-06
0.000162466
-3.32931e-06
0.000165778
-3.31206e-06
0.000169072
-3.29408e-06
0.000172348
-3.27536e-06
0.000175603
-3.25589e-06
0.000178839
-3.23564e-06
0.000182054
-3.21461e-06
0.000185246
-3.19277e-06
0.000188417
-3.17012e-06
0.000191563
-3.14663e-06
0.000194686
-3.1223e-06
0.000197783
-3.09711e-06
0.000200854
-3.07106e-06
0.000203898
-3.04413e-06
0.000206914
-3.01631e-06
0.000209902
-2.9876e-06
0.00021286
-2.95798e-06
0.000215787
-2.92745e-06
0.000218683
-2.896e-06
0.000221547
-2.86363e-06
0.000224377
-2.83033e-06
0.000227173
-2.79611e-06
0.000229934
-2.76095e-06
0.000232659
-2.72486e-06
0.000235347
-2.68784e-06
0.000237997
-2.6499e-06
0.000240608
-2.61102e-06
0.000243179
-2.57122e-06
0.00024571
-2.53051e-06
0.000248198
-2.48889e-06
0.000250645
-2.44636e-06
0.000253048
-2.40295e-06
0.000255406
-2.35865e-06
0.00025772
-2.31348e-06
0.000259987
-2.26745e-06
0.000262208
-2.22058e-06
0.000264381
-2.17289e-06
0.000266505
-2.12439e-06
0.00026858
-2.07509e-06
0.000270605
-2.02503e-06
0.000272579
-1.97422e-06
0.000274502
-1.92267e-06
0.000276373
-1.87043e-06
0.00027819
-1.8175e-06
0.000279954
-1.76392e-06
0.000281664
-1.70971e-06
0.000283319
-1.6549e-06
0.000284918
-1.59951e-06
0.000286462
-1.54357e-06
0.000287949
-1.48712e-06
0.000289379
-1.43017e-06
0.000290752
-1.37278e-06
0.000292067
-1.31496e-06
0.000293323
-1.25674e-06
0.000294522
-1.19817e-06
0.000295661
-1.13927e-06
0.000296741
-1.08008e-06
0.000297762
-1.02063e-06
0.000298723
-9.60952e-07
0.000299624
-9.01082e-07
0.000300465
-8.41053e-07
0.000301246
-7.80899e-07
0.000301966
-7.20655e-07
0.000302627
-6.60353e-07
0.000303227
-6.00026e-07
0.000303766
-5.39709e-07
0.000304246
-4.79433e-07
0.000304665
-4.19232e-07
0.000305024
-3.59137e-07
0.000305323
-2.99182e-07
0.000305563
-2.39396e-07
0.000305743
-1.79811e-07
0.000305863
-1.20456e-07
0.000305924
-6.13608e-08
0.000305927
-2.55384e-09
0.000305871
5.59401e-08
0.000305757
1.14092e-07
0.000305585
1.71877e-07
0.000305356
2.29271e-07
0.00030507
2.86249e-07
0.000304727
3.42787e-07
0.000304328
3.98865e-07
0.000303873
4.5446e-07
0.000303364
5.09552e-07
0.0003028
5.64122e-07
0.000302182
6.18151e-07
0.00030151
6.71623e-07
0.000300785
7.24521e-07
0.000300009
7.76828e-07
0.00029918
8.28531e-07
0.0002983
8.79616e-07
0.00029737
9.30071e-07
0.00029639
9.79884e-07
0.000295361
1.02904e-06
0.000294284
1.07754e-06
0.000293159
1.12537e-06
0.000291986
1.17253e-06
0.000290767
1.21899e-06
0.000289502
1.26477e-06
0.000288192
1.30985e-06
0.000286838
1.35423e-06
0.00028544
1.39791e-06
0.000283999
1.44087e-06
0.000282516
1.48313e-06
0.000280992
1.52467e-06
0.000279426
1.5655e-06
0.00027782
1.60562e-06
0.000276175
1.64503e-06
0.000274492
1.68373e-06
0.00027277
1.72172e-06
0.000271011
1.759e-06
0.000269215
1.79557e-06
0.000267384
1.83144e-06
0.000265517
1.86661e-06
0.000263616
1.90109e-06
0.000261681
1.93488e-06
0.000259713
1.96799e-06
0.000257713
2.00042e-06
0.000255681
2.03217e-06
0.000253618
2.06325e-06
0.000251524
2.09366e-06
0.0002494
2.12342e-06
0.000247248
2.15252e-06
0.000245067
2.18097e-06
0.000242858
2.20879e-06
0.000240622
2.23598e-06
0.00023836
2.26254e-06
0.000236071
2.28848e-06
0.000233757
2.31382e-06
0.000231419
2.33855e-06
0.000229056
2.36269e-06
0.00022667
2.38624e-06
0.000224261
2.40921e-06
0.000221829
2.43161e-06
0.000219376
2.45345e-06
0.000216901
2.47473e-06
0.000214405
2.49547e-06
0.00021189
2.51566e-06
0.000209354
2.53533e-06
0.0002068
2.55447e-06
0.000204227
2.5731e-06
0.000201636
2.59122e-06
0.000199027
2.60885e-06
0.000196401
2.62599e-06
0.000193758
2.64264e-06
0.000191099
2.65882e-06
0.000188425
2.67454e-06
0.000185735
2.6898e-06
0.00018303
2.70461e-06
0.000180311
2.71898e-06
0.000177579
2.73292e-06
0.000174832
2.74643e-06
0.000172073
2.75953e-06
0.0001693
2.77223e-06
0.000166516
2.78452e-06
0.000163719
2.79642e-06
0.000160911
2.80794e-06
0.000158092
2.81909e-06
0.000155263
2.82986e-06
0.000152422
2.84028e-06
0.000149572
2.85034e-06
0.000146712
2.86006e-06
0.000143842
2.86944e-06
0.000140964
2.87849e-06
0.000138077
2.88722e-06
0.000135181
2.89564e-06
0.000132277
2.90375e-06
0.000129366
2.91156e-06
0.000126447
2.91908e-06
0.00012352
2.92631e-06
0.000120587
2.93327e-06
0.000117647
2.93996e-06
0.000114701
2.94638e-06
0.000111748
2.95254e-06
0.00010879
2.95846e-06
0.000105826
2.96413e-06
0.000102856
2.96956e-06
9.98813e-05
2.97476e-06
9.69015e-05
2.97973e-06
9.39171e-05
2.98449e-06
9.0928e-05
2.98903e-06
8.79347e-05
2.99337e-06
8.49371e-05
2.9975e-06
8.19357e-05
3.00144e-06
7.89305e-05
3.00519e-06
7.59218e-05
3.00876e-06
7.29096e-05
3.01214e-06
6.98943e-05
3.01535e-06
6.68759e-05
3.01838e-06
6.38546e-05
3.02125e-06
6.08307e-05
3.02396e-06
5.78042e-05
3.02651e-06
5.47753e-05
3.02891e-06
5.17441e-05
3.03116e-06
4.87108e-05
3.03326e-06
4.56756e-05
3.03522e-06
4.26386e-05
3.03705e-06
3.95998e-05
3.03873e-06
3.65595e-05
3.04029e-06
3.35178e-05
3.04171e-06
3.04748e-05
3.04301e-06
2.74306e-05
3.04418e-06
2.43854e-05
3.04523e-06
2.13393e-05
3.04616e-06
1.82923e-05
3.04697e-06
1.52446e-05
3.04766e-06
1.21964e-05
3.04824e-06
9.14769e-06
3.0487e-06
6.09865e-06
3.04904e-06
3.04938e-06
3.04927e-06
3.04938e-06
3.61597e-06
-7.23176e-06
7.23178e-06
-7.23145e-06
1.08473e-05
-7.23077e-06
1.44622e-05
-7.22975e-06
1.80765e-05
-7.22836e-06
2.16899e-05
-7.22662e-06
2.53022e-05
-7.22451e-06
2.89133e-05
-7.22202e-06
3.2523e-05
-7.21915e-06
3.61311e-05
-7.21588e-06
3.97373e-05
-7.21221e-06
4.33414e-05
-7.20812e-06
4.69434e-05
-7.2036e-06
5.05428e-05
-7.19863e-06
5.41395e-05
-7.19321e-06
5.77333e-05
-7.1873e-06
6.13239e-05
-7.18089e-06
6.4911e-05
-7.17396e-06
6.84944e-05
-7.1665e-06
7.20738e-05
-7.15847e-06
7.56489e-05
-7.14986e-06
7.92193e-05
-7.14063e-06
8.27849e-05
-7.13077e-06
8.63452e-05
-7.12026e-06
8.98999e-05
-7.10905e-06
9.34486e-05
-7.09713e-06
9.69911e-05
-7.08446e-06
0.000100527
-7.07102e-06
0.000104055
-7.05677e-06
0.000107576
-7.04169e-06
0.00011109
-7.02574e-06
0.000114594
-7.00889e-06
0.00011809
-6.9911e-06
0.000121576
-6.97236e-06
0.000125053
-6.9526e-06
0.000128519
-6.93182e-06
0.000131974
-6.90996e-06
0.000135418
-6.88701e-06
0.00013885
-6.86291e-06
0.000142269
-6.83763e-06
0.000145675
-6.81114e-06
0.000149067
-6.78341e-06
0.000152445
-6.7544e-06
0.000155807
-6.72407e-06
0.000159153
-6.69239e-06
0.000162483
-6.65932e-06
0.000165796
-6.62484e-06
0.000169091
-6.58891e-06
0.000172367
-6.55149e-06
0.000175624
-6.51256e-06
0.00017886
-6.47208e-06
0.000182076
-6.43003e-06
0.000185269
-6.38636e-06
0.00018844
-6.34107e-06
0.000191588
-6.29411e-06
0.000194711
-6.24546e-06
0.000197809
-6.1951e-06
0.000200881
-6.143e-06
0.000203926
-6.08915e-06
0.000206943
-6.03352e-06
0.000209932
-5.9761e-06
0.00021289
-5.91687e-06
0.000215819
-5.85581e-06
0.000218716
-5.79292e-06
0.00022158
-5.72819e-06
0.000224412
-5.6616e-06
0.000227209
-5.59315e-06
0.00022997
-5.52284e-06
0.000232696
-5.45066e-06
0.000235385
-5.37662e-06
0.000238036
-5.30072e-06
0.000240648
-5.22296e-06
0.00024322
-5.14336e-06
0.000245751
-5.06193e-06
0.000248241
-4.97868e-06
0.000250688
-4.89362e-06
0.000253092
-4.80678e-06
0.000255452
-4.71817e-06
0.000257766
-4.62781e-06
0.000260034
-4.53575e-06
0.000262256
-4.44199e-06
0.00026443
-4.34659e-06
0.000266555
-4.24956e-06
0.000268631
-4.15096e-06
0.000270656
-4.05081e-06
0.000272631
-3.94916e-06
0.000274555
-3.84606e-06
0.000276426
-3.74154e-06
0.000278244
-3.63567e-06
0.000280009
-3.52848e-06
0.000281719
-3.42003e-06
0.000283374
-3.31037e-06
0.000284974
-3.19956e-06
0.000286518
-3.08766e-06
0.000288006
-2.97472e-06
0.000289437
-2.86081e-06
0.00029081
-2.74598e-06
0.000292125
-2.63031e-06
0.000293382
-2.51385e-06
0.000294581
-2.39667e-06
0.00029572
-2.27884e-06
0.000296801
-2.16043e-06
0.000297822
-2.04149e-06
0.000298783
-1.9221e-06
0.000299684
-1.80232e-06
0.000300525
-1.68223e-06
0.000301306
-1.56189e-06
0.000302027
-1.44137e-06
0.000302687
-1.32073e-06
0.000303287
-1.20005e-06
0.000303827
-1.07938e-06
0.000304306
-9.58794e-07
0.000304725
-8.38359e-07
0.000305084
-7.18139e-07
0.000305383
-5.98196e-07
0.000305623
-4.78595e-07
0.000305802
-3.59395e-07
0.000305922
-2.40656e-07
0.000305984
-1.22437e-07
0.000305986
-4.79402e-09
0.000305929
1.12219e-07
0.000305815
2.28549e-07
0.000305643
3.44145e-07
0.000305413
4.58956e-07
0.000305126
5.72935e-07
0.000304783
6.86035e-07
0.000304384
7.98212e-07
0.000303929
9.09422e-07
0.000303419
1.01963e-06
0.000302854
1.12878e-06
0.000302235
1.23686e-06
0.000301563
1.34382e-06
0.000300838
1.44963e-06
0.000300061
1.55426e-06
0.000299232
1.65768e-06
0.000298351
1.75986e-06
0.000297421
1.86078e-06
0.00029644
1.96042e-06
0.00029541
2.05875e-06
0.000294332
2.15576e-06
0.000293206
2.25142e-06
0.000292033
2.34574e-06
0.000290813
2.43868e-06
0.000289548
2.53024e-06
0.000288237
2.6204e-06
0.000286882
2.70917e-06
0.000285484
2.79652e-06
0.000284042
2.88246e-06
0.000282558
2.96697e-06
0.000281033
3.05006e-06
0.000279467
3.13172e-06
0.00027786
3.21196e-06
0.000276214
3.29078e-06
0.00027453
3.36817e-06
0.000272808
3.44414e-06
0.000271048
3.5187e-06
0.000269252
3.59184e-06
0.00026742
3.66358e-06
0.000265552
3.73393e-06
0.00026365
3.80288e-06
0.000261715
3.87046e-06
0.000259746
3.93666e-06
0.000257745
4.00151e-06
0.000255712
4.065e-06
0.000253648
4.12716e-06
0.000251554
4.18798e-06
0.00024943
4.24748e-06
0.000247277
4.30568e-06
0.000245095
4.36259e-06
0.000242886
4.41821e-06
0.000240649
4.47258e-06
0.000238386
4.52569e-06
0.000236097
4.57757e-06
0.000233782
4.62823e-06
0.000231443
4.67769e-06
0.00022908
4.72596e-06
0.000226693
4.77306e-06
0.000224283
4.81899e-06
0.000221851
4.86379e-06
0.000219397
4.90745e-06
0.000216922
4.95001e-06
0.000214426
4.99147e-06
0.00021191
5.03186e-06
0.000209374
5.07118e-06
0.000206819
5.10946e-06
0.000204245
5.14671e-06
0.000201654
5.18295e-06
0.000199044
5.21819e-06
0.000196418
5.25245e-06
0.000193775
5.28575e-06
0.000191115
5.31811e-06
0.00018844
5.34953e-06
0.00018575
5.38004e-06
0.000183045
5.40966e-06
0.000180326
5.43839e-06
0.000177592
5.46626e-06
0.000174845
5.49329e-06
0.000172086
5.51948e-06
0.000169313
5.54486e-06
0.000166528
5.56944e-06
0.000163731
5.59324e-06
0.000160923
5.61627e-06
0.000158103
5.63855e-06
0.000155273
5.66009e-06
0.000152433
5.68091e-06
0.000149582
5.70103e-06
0.000146721
5.72046e-06
0.000143852
5.73922e-06
0.000140973
5.75731e-06
0.000138085
5.77477e-06
0.000135189
5.79159e-06
0.000132285
5.8078e-06
0.000129373
5.82342e-06
0.000126454
5.83845e-06
0.000123527
5.85291e-06
0.000120594
5.86682e-06
0.000117654
5.88018e-06
0.000114707
5.89302e-06
0.000111754
5.90534e-06
0.000108796
5.91716e-06
0.000105831
5.92849e-06
0.000102861
5.93935e-06
9.98864e-05
5.94975e-06
9.69064e-05
5.95969e-06
9.39217e-05
5.9692e-06
9.09325e-05
5.97828e-06
8.79389e-05
5.98695e-06
8.49412e-05
5.99521e-06
8.19396e-05
6.00308e-06
7.89342e-05
6.01058e-06
7.59253e-05
6.0177e-06
7.29129e-05
6.02446e-06
6.98974e-05
6.03087e-06
6.68789e-05
6.03693e-06
6.38574e-05
6.04267e-06
6.08333e-05
6.04808e-06
5.78066e-05
6.05318e-06
5.47776e-05
6.05797e-06
5.17463e-05
6.06247e-06
4.87129e-05
6.06667e-06
4.56775e-05
6.07059e-06
4.26403e-05
6.07423e-06
3.96014e-05
6.0776e-06
3.6561e-05
6.08071e-06
3.35192e-05
6.08356e-06
3.0476e-05
6.08615e-06
2.74317e-05
6.08849e-06
2.43864e-05
6.09059e-06
2.13401e-05
6.09244e-06
1.8293e-05
6.09406e-06
1.52452e-05
6.09544e-06
1.21969e-05
6.09659e-06
9.14805e-06
6.09751e-06
6.09889e-06
6.0982e-06
3.0495e-06
6.09866e-06
6.09888e-06
3.61634e-06
-1.08481e-05
7.2325e-06
-1.08476e-05
1.08483e-05
-1.08466e-05
1.44636e-05
-1.08451e-05
1.80783e-05
-1.0843e-05
2.16921e-05
-1.08404e-05
2.53048e-05
-1.08372e-05
2.89163e-05
-1.08335e-05
3.25264e-05
-1.08292e-05
3.61348e-05
-1.08243e-05
3.97415e-05
-1.08188e-05
4.33461e-05
-1.08127e-05
4.69484e-05
-1.0806e-05
5.05483e-05
-1.07985e-05
5.41456e-05
-1.07904e-05
5.77398e-05
-1.07816e-05
6.13309e-05
-1.0772e-05
6.49186e-05
-1.07616e-05
6.85026e-05
-1.07505e-05
7.20825e-05
-1.07384e-05
7.56582e-05
-1.07256e-05
7.92294e-05
-1.07118e-05
8.27956e-05
-1.0697e-05
8.63566e-05
-1.06813e-05
8.9912e-05
-1.06645e-05
9.34615e-05
-1.06466e-05
9.70047e-05
-1.06277e-05
0.000100541
-1.06075e-05
0.000104071
-1.05862e-05
0.000107593
-1.05636e-05
0.000111107
-1.05397e-05
0.000114612
-1.05145e-05
0.000118109
-1.04879e-05
0.000121596
-1.04598e-05
0.000125074
-1.04302e-05
0.000128541
-1.03991e-05
0.000131998
-1.03663e-05
0.000135443
-1.03319e-05
0.000138876
-1.02958e-05
0.000142296
-1.0258e-05
0.000145703
-1.02183e-05
0.000149096
-1.01767e-05
0.000152475
-1.01333e-05
0.000155839
-1.00878e-05
0.000159187
-1.00403e-05
0.000162518
-9.99077e-06
0.000165833
-9.93908e-06
0.000169129
-9.88522e-06
0.000172407
-9.82914e-06
0.000175665
-9.77078e-06
0.000178903
-9.7101e-06
0.00018212
-9.64706e-06
0.000185315
-9.5816e-06
0.000188488
-9.51369e-06
0.000191637
-9.44328e-06
0.000194762
-9.37034e-06
0.000197861
-9.29483e-06
0.000200935
-9.21671e-06
0.000203982
-9.13595e-06
0.000207001
-9.05253e-06
0.000209991
-8.96641e-06
0.000212952
-8.87758e-06
0.000215882
-8.78602e-06
0.000218781
-8.6917e-06
0.000221647
-8.5946e-06
0.000224481
-8.49473e-06
0.000227279
-8.39206e-06
0.000230043
-8.28659e-06
0.000232771
-8.17833e-06
0.000235461
-8.06726e-06
0.000238114
-7.9534e-06
0.000240728
-7.83676e-06
0.000243302
-7.71735e-06
0.000245835
-7.59518e-06
0.000248327
-7.47028e-06
0.000250776
-7.34267e-06
0.000253181
-7.21237e-06
0.000255543
-7.07943e-06
0.000257859
-6.94387e-06
0.000260129
-6.80573e-06
0.000262352
-6.66506e-06
0.000264527
-6.52191e-06
0.000266654
-6.37633e-06
0.000268731
-6.22837e-06
0.000270759
-6.07809e-06
0.000272735
-5.92557e-06
0.00027466
-5.77085e-06
0.000276532
-5.61402e-06
0.000278352
-5.45515e-06
0.000280118
-5.2943e-06
0.000281829
-5.13156e-06
0.000283486
-4.967e-06
0.000285087
-4.80072e-06
0.000286632
-4.63279e-06
0.000288121
-4.4633e-06
0.000289552
-4.29236e-06
0.000290926
-4.12004e-06
0.000292242
-3.94645e-06
0.0002935
-3.77168e-06
0.000294699
-3.59583e-06
0.000295839
-3.419e-06
0.00029692
-3.24129e-06
0.000297942
-3.0628e-06
0.000298903
-2.88363e-06
0.000299805
-2.70389e-06
0.000300646
-2.52366e-06
0.000301427
-2.34307e-06
0.000302148
-2.1622e-06
0.000302809
-1.98116e-06
0.000303409
-1.80005e-06
0.000303948
-1.61896e-06
0.000304427
-1.43801e-06
0.000304846
-1.25728e-06
0.000305205
-1.07687e-06
0.000305504
-8.96875e-07
0.000305743
-7.17397e-07
0.000305922
-5.38522e-07
0.000306041
-3.60342e-07
0.000306102
-1.82942e-07
0.000306103
-6.4067e-09
0.000306047
1.6918e-07
0.000305931
3.4374e-07
0.000305758
5.17196e-07
0.000305528
6.89474e-07
0.00030524
8.60501e-07
0.000304896
1.03021e-06
0.000304496
1.19852e-06
0.00030404
1.36539e-06
0.000303529
1.53074e-06
0.000302963
1.69453e-06
0.000302343
1.85668e-06
0.00030167
2.01716e-06
0.000300943
2.17592e-06
0.000300165
2.3329e-06
0.000299334
2.48806e-06
0.000298453
2.64136e-06
0.000297521
2.79277e-06
0.000296539
2.94226e-06
0.000295508
3.08978e-06
0.000294428
3.23531e-06
0.000293301
3.37883e-06
0.000292127
3.52032e-06
0.000290905
3.65975e-06
0.000289639
3.7971e-06
0.000288327
3.93236e-06
0.00028697
4.06551e-06
0.00028557
4.19655e-06
0.000284127
4.32546e-06
0.000282642
4.45223e-06
0.000281115
4.57687e-06
0.000279548
4.69937e-06
0.00027794
4.81973e-06
0.000276293
4.93795e-06
0.000274607
5.05403e-06
0.000272883
5.16798e-06
0.000271122
5.27981e-06
0.000269324
5.38952e-06
0.000267491
5.49713e-06
0.000265622
5.60263e-06
0.000263719
5.70605e-06
0.000261782
5.80741e-06
0.000259812
5.9067e-06
0.000257809
6.00396e-06
0.000255775
6.09919e-06
0.00025371
6.1924e-06
0.000251614
6.28362e-06
0.000249489
6.37286e-06
0.000247334
6.46014e-06
0.000245151
6.54548e-06
0.000242941
6.6289e-06
0.000240703
6.71043e-06
0.000238438
6.79008e-06
0.000236148
6.86789e-06
0.000233833
6.94386e-06
0.000231492
7.01803e-06
0.000229128
7.09042e-06
0.00022674
7.16104e-06
0.000224329
7.22992e-06
0.000221896
7.29709e-06
0.00021944
7.36257e-06
0.000216964
7.42639e-06
0.000214467
7.48856e-06
0.00021195
7.54912e-06
0.000209413
7.60809e-06
0.000206857
7.66548e-06
0.000204282
7.72134e-06
0.000201689
7.77568e-06
0.000199079
7.82852e-06
0.000196452
7.87989e-06
0.000193808
7.92982e-06
0.000191147
7.97833e-06
0.000188471
8.02545e-06
0.00018578
8.07119e-06
0.000183074
8.11559e-06
0.000180354
8.15867e-06
0.00017762
8.20046e-06
0.000174872
8.24098e-06
0.000172111
8.28025e-06
0.000169338
8.31829e-06
0.000166552
8.35515e-06
0.000163755
8.39082e-06
0.000160946
8.42535e-06
0.000158125
8.45875e-06
0.000155294
8.49104e-06
0.000152453
8.52226e-06
0.000149602
8.55242e-06
0.000146741
8.58155e-06
0.00014387
8.60966e-06
0.000140991
8.63679e-06
0.000138103
8.66295e-06
0.000135206
8.68817e-06
0.000132301
8.71247e-06
0.000129389
8.73587e-06
0.000126469
8.7584e-06
0.000123542
8.78007e-06
0.000120608
8.80091e-06
0.000117667
8.82094e-06
0.00011472
8.84018e-06
0.000111766
8.85865e-06
0.000108807
8.87636e-06
0.000105842
8.89335e-06
0.000102872
8.90962e-06
9.98966e-05
8.92519e-06
9.69162e-05
8.94009e-06
9.39311e-05
8.95434e-06
9.09414e-05
8.96795e-06
8.79474e-05
8.98093e-06
8.49493e-05
8.99332e-06
8.19473e-05
9.00511e-06
7.89415e-05
9.01634e-06
7.59322e-05
9.02701e-06
7.29195e-05
9.03713e-06
6.99037e-05
9.04674e-06
6.68848e-05
9.05583e-06
6.3863e-05
9.06442e-06
6.08386e-05
9.07253e-06
5.78116e-05
9.08017e-06
5.47822e-05
9.08735e-06
5.17506e-05
9.09408e-06
4.87169e-05
9.10037e-06
4.56813e-05
9.10624e-06
4.26438e-05
9.1117e-06
3.96046e-05
9.11675e-06
3.6564e-05
9.1214e-06
3.35219e-05
9.12566e-06
3.04785e-05
9.12954e-06
2.74339e-05
9.13305e-06
2.43883e-05
9.13619e-06
2.13418e-05
9.13897e-06
1.82944e-05
9.14139e-06
1.52464e-05
9.14346e-06
1.21978e-05
9.14519e-06
9.14875e-06
9.14656e-06
6.09936e-06
9.14759e-06
3.04974e-06
9.14828e-06
9.14862e-06
3.61687e-06
-1.4465e-05
7.23357e-06
-1.44643e-05
1.08499e-05
-1.4463e-05
1.44658e-05
-1.44609e-05
1.8081e-05
-1.44582e-05
2.16953e-05
-1.44547e-05
2.53086e-05
-1.44505e-05
2.89207e-05
-1.44456e-05
3.25314e-05
-1.44399e-05
3.61404e-05
-1.44334e-05
3.97477e-05
-1.44261e-05
4.3353e-05
-1.4418e-05
4.6956e-05
-1.4409e-05
5.05566e-05
-1.43992e-05
5.41546e-05
-1.43884e-05
5.77496e-05
-1.43766e-05
6.13415e-05
-1.43639e-05
6.493e-05
-1.43501e-05
6.85148e-05
-1.43353e-05
7.20957e-05
-1.43193e-05
7.56723e-05
-1.43022e-05
7.92444e-05
-1.42838e-05
8.28116e-05
-1.42642e-05
8.63737e-05
-1.42433e-05
8.99302e-05
-1.4221e-05
9.34808e-05
-1.41973e-05
9.70252e-05
-1.4172e-05
0.000100563
-1.41453e-05
0.000104094
-1.41169e-05
0.000107617
-1.40869e-05
0.000111132
-1.40551e-05
0.000114639
-1.40215e-05
0.000118138
-1.39861e-05
0.000121626
-1.39487e-05
0.000125106
-1.39094e-05
0.000128575
-1.38679e-05
0.000132033
-1.38244e-05
0.000135479
-1.37786e-05
0.000138914
-1.37305e-05
0.000142336
-1.36801e-05
0.000145745
-1.36273e-05
0.00014914
-1.3572e-05
0.000152521
-1.35141e-05
0.000155887
-1.34536e-05
0.000159237
-1.33903e-05
0.000162571
-1.33243e-05
0.000165887
-1.32555e-05
0.000169186
-1.31838e-05
0.000172465
-1.31091e-05
0.000175726
-1.30313e-05
0.000178966
-1.29505e-05
0.000182186
-1.28665e-05
0.000185384
-1.27793e-05
0.000188559
-1.26888e-05
0.00019171
-1.2595e-05
0.000194838
-1.24978e-05
0.00019794
-1.23972e-05
0.000201017
-1.22931e-05
0.000204066
-1.21854e-05
0.000207088
-1.20742e-05
0.000210081
-1.19595e-05
0.000213044
-1.1841e-05
0.000215977
-1.1719e-05
0.000218879
-1.15932e-05
0.000221748
-1.14638e-05
0.000224584
-1.13307e-05
0.000227386
-1.11938e-05
0.000230152
-1.10532e-05
0.000232883
-1.09088e-05
0.000235576
-1.07607e-05
0.000238232
-1.06089e-05
0.000240848
-1.04533e-05
0.000243425
-1.02941e-05
0.000245961
-1.01312e-05
0.000248455
-9.9646e-06
0.000250907
-9.7944e-06
0.000253315
-9.62063e-06
0.000255679
-9.44331e-06
0.000257998
-9.2625e-06
0.00026027
-9.07825e-06
0.000262496
-8.89062e-06
0.000264674
-8.69967e-06
0.000266803
-8.50547e-06
0.000268882
-8.3081e-06
0.000270912
-8.10764e-06
0.000272891
-7.90417e-06
0.000274817
-7.69778e-06
0.000276692
-7.48856e-06
0.000278513
-7.2766e-06
0.000280281
-7.06202e-06
0.000281995
-6.8449e-06
0.000283653
-6.62536e-06
0.000285256
-6.40352e-06
0.000286802
-6.17947e-06
0.000288292
-5.95335e-06
0.000289725
-5.72528e-06
0.000291101
-5.49538e-06
0.000292418
-5.26377e-06
0.000293677
-5.0306e-06
0.000294877
-4.79598e-06
0.000296018
-4.56005e-06
0.0002971
-4.32295e-06
0.000298122
-4.0848e-06
0.000299084
-3.84575e-06
0.000299986
-3.60593e-06
0.000300828
-3.36547e-06
0.000301609
-3.12452e-06
0.00030233
-2.8832e-06
0.000302991
-2.64166e-06
0.000303591
-2.40002e-06
0.00030413
-2.15843e-06
0.000304609
-1.917e-06
0.000305028
-1.67587e-06
0.000305386
-1.43518e-06
0.000305684
-1.19505e-06
0.000305922
-9.55602e-07
0.000306101
-7.16963e-07
0.00030622
-4.79252e-07
0.000306279
-2.42586e-07
0.00030628
-7.07642e-09
0.000306222
2.27164e-07
0.000306106
4.60033e-07
0.000305932
6.91425e-07
0.0003057
9.21242e-07
0.000305411
1.14939e-06
0.000305065
1.37576e-06
0.000304664
1.60029e-06
0.000304206
1.82287e-06
0.000303693
2.04343e-06
0.000303126
2.2619e-06
0.000302505
2.47819e-06
0.000301829
2.69224e-06
0.000301101
2.90398e-06
0.000300321
3.11335e-06
0.000299489
3.3203e-06
0.000298605
3.52476e-06
0.000297671
3.72669e-06
0.000296688
3.92605e-06
0.000295655
4.12279e-06
0.000294573
4.31688e-06
0.000293444
4.50828e-06
0.000292267
4.69696e-06
0.000291044
4.88289e-06
0.000289775
5.06605e-06
0.000288461
5.24642e-06
0.000287102
5.42398e-06
0.0002857
5.59871e-06
0.000284255
5.7706e-06
0.000282768
5.93964e-06
0.000281239
6.10582e-06
0.000279669
6.26916e-06
0.000278059
6.42963e-06
0.00027641
6.58725e-06
0.000274722
6.74203e-06
0.000272996
6.89396e-06
0.000271232
7.04305e-06
0.000269433
7.18932e-06
0.000267597
7.33277e-06
0.000265726
7.47343e-06
0.000263821
7.61131e-06
0.000261882
7.74642e-06
0.00025991
7.87879e-06
0.000257905
8.00844e-06
0.000255869
8.13539e-06
0.000253802
8.25965e-06
0.000251704
8.38124e-06
0.000249577
8.5002e-06
0.000247421
8.61654e-06
0.000245236
8.7303e-06
0.000243023
8.84149e-06
0.000240783
8.95016e-06
0.000238517
9.05633e-06
0.000236225
9.16004e-06
0.000233908
9.2613e-06
0.000231565
9.36016e-06
0.000229199
9.45663e-06
0.00022681
9.55076e-06
0.000224397
9.64257e-06
0.000221962
9.7321e-06
0.000219505
9.81937e-06
0.000217027
9.90442e-06
0.000214528
9.98728e-06
0.00021201
1.0068e-05
0.000209471
1.01466e-05
0.000206913
1.02231e-05
0.000204337
1.02975e-05
0.000201743
1.03699e-05
0.000199131
1.04403e-05
0.000196502
1.05088e-05
0.000193857
1.05753e-05
0.000191195
1.064e-05
0.000188518
1.07027e-05
0.000185825
1.07637e-05
0.000183118
1.08229e-05
0.000180397
1.08803e-05
0.000177661
1.09359e-05
0.000174912
1.09899e-05
0.00017215
1.10422e-05
0.000169376
1.10929e-05
0.000166589
1.1142e-05
0.00016379
1.11896e-05
0.00016098
1.12356e-05
0.000158158
1.12801e-05
0.000155326
1.13231e-05
0.000152484
1.13647e-05
0.000149631
1.14049e-05
0.000146769
1.14437e-05
0.000143898
1.14811e-05
0.000141017
1.15172e-05
0.000138128
1.15521e-05
0.000135231
1.15857e-05
0.000132325
1.1618e-05
0.000129412
1.16492e-05
0.000126491
1.16792e-05
0.000123563
1.17081e-05
0.000120628
1.17358e-05
0.000117687
1.17625e-05
0.000114739
1.17881e-05
0.000111785
1.18127e-05
0.000108825
1.18363e-05
0.000105859
1.18589e-05
0.000102888
1.18806e-05
9.99119e-05
1.19013e-05
9.69309e-05
1.19212e-05
9.39451e-05
1.19401e-05
9.09548e-05
1.19583e-05
8.79602e-05
1.19755e-05
8.49615e-05
1.1992e-05
8.19588e-05
1.20077e-05
7.89525e-05
1.20227e-05
7.59427e-05
1.20369e-05
7.29294e-05
1.20504e-05
6.9913e-05
1.20631e-05
6.68936e-05
1.20752e-05
6.38714e-05
1.20867e-05
6.08465e-05
1.20975e-05
5.7819e-05
1.21076e-05
5.47892e-05
1.21172e-05
5.17571e-05
1.21261e-05
4.8723e-05
1.21345e-05
4.56869e-05
1.21423e-05
4.2649e-05
1.21496e-05
3.96095e-05
1.21563e-05
3.65684e-05
1.21625e-05
3.35259e-05
1.21682e-05
3.04821e-05
1.21733e-05
2.74371e-05
1.2178e-05
2.43911e-05
1.21822e-05
2.13443e-05
1.21859e-05
1.82966e-05
1.21891e-05
1.52482e-05
1.21918e-05
1.21992e-05
1.21941e-05
9.14981e-06
1.2196e-05
6.10006e-06
1.21973e-05
3.05009e-06
1.21983e-05
1.21987e-05
3.61757e-06
-1.80825e-05
7.23499e-06
-1.80817e-05
1.08521e-05
-1.808e-05
1.44686e-05
-1.80775e-05
1.80846e-05
-1.80741e-05
2.16996e-05
-1.80698e-05
2.53137e-05
-1.80646e-05
2.89265e-05
-1.80584e-05
3.2538e-05
-1.80514e-05
3.61479e-05
-1.80433e-05
3.9756e-05
-1.80342e-05
4.33621e-05
-1.80241e-05
4.69661e-05
-1.8013e-05
5.05676e-05
-1.80007e-05
5.41665e-05
-1.79873e-05
5.77626e-05
-1.79727e-05
6.13555e-05
-1.79568e-05
6.49451e-05
-1.79397e-05
6.85311e-05
-1.79212e-05
7.21131e-05
-1.79014e-05
7.5691e-05
-1.788e-05
7.92643e-05
-1.78572e-05
8.28329e-05
-1.78328e-05
8.63963e-05
-1.78067e-05
8.99543e-05
-1.7779e-05
9.35064e-05
-1.77494e-05
9.70524e-05
-1.7718e-05
0.000100592
-1.76847e-05
0.000104124
-1.76493e-05
0.000107649
-1.76119e-05
0.000111166
-1.75723e-05
0.000114675
-1.75304e-05
0.000118175
-1.74863e-05
0.000121666
-1.74397e-05
0.000125148
-1.73906e-05
0.000128619
-1.7339e-05
0.000132079
-1.72846e-05
0.000135528
-1.72275e-05
0.000138965
-1.71676e-05
0.000142389
-1.71047e-05
0.000145801
-1.70388e-05
0.000149199
-1.69698e-05
0.000152582
-1.68976e-05
0.000155951
-1.6822e-05
0.000159304
-1.67431e-05
0.00016264
-1.66608e-05
0.000165959
-1.65749e-05
0.000169261
-1.64853e-05
0.000172544
-1.63921e-05
0.000175808
-1.6295e-05
0.000179051
-1.61941e-05
0.000182274
-1.60892e-05
0.000185475
-1.59803e-05
0.000188653
-1.58673e-05
0.000191808
-1.57501e-05
0.000194939
-1.56287e-05
0.000198045
-1.5503e-05
0.000201125
-1.53729e-05
0.000204178
-1.52385e-05
0.000207203
-1.50996e-05
0.0002102
-1.49561e-05
0.000213167
-1.48082e-05
0.000216104
-1.46556e-05
0.000219009
-1.44985e-05
0.000221882
-1.43367e-05
0.000224722
-1.41703e-05
0.000227527
-1.39992e-05
0.000230297
-1.38235e-05
0.000233032
-1.3643e-05
0.000235729
-1.34579e-05
0.000238388
-1.32681e-05
0.000241008
-1.30736e-05
0.000243589
-1.28745e-05
0.000246128
-1.26708e-05
0.000248626
-1.24625e-05
0.000251082
-1.22497e-05
0.000253493
-1.20324e-05
0.000255861
-1.18107e-05
0.000258183
-1.15846e-05
0.000260459
-1.13542e-05
0.000262688
-1.11195e-05
0.000264869
-1.08807e-05
0.000267001
-1.06378e-05
0.000269084
-1.03909e-05
0.000271116
-1.01402e-05
0.000273098
-9.8857e-06
0.000275028
-9.62754e-06
0.000276905
-9.36583e-06
0.000278729
-9.1007e-06
0.000280499
-8.83227e-06
0.000282215
-8.56067e-06
0.000283876
-8.28604e-06
0.000285481
-8.00851e-06
0.00028703
-7.72824e-06
0.000288522
-7.44536e-06
0.000289956
-7.16004e-06
0.000291333
-6.87242e-06
0.000292652
-6.58268e-06
0.000293913
-6.29096e-06
0.000295114
-5.99744e-06
0.000296256
-5.70228e-06
0.000297339
-5.40565e-06
0.000298362
-5.10771e-06
0.000299325
-4.80864e-06
0.000300228
-4.50861e-06
0.00030107
-4.20778e-06
0.000301852
-3.90634e-06
0.000302573
-3.60444e-06
0.000303234
-3.30226e-06
0.000303833
-2.99996e-06
0.000304373
-2.69772e-06
0.000304851
-2.39569e-06
0.00030527
-2.09405e-06
0.000305627
-1.79294e-06
0.000305925
-1.49254e-06
0.000306162
-1.19301e-06
0.00030634
-8.94484e-07
0.000306458
-5.97127e-07
0.000306516
-3.0108e-07
0.000306516
-6.4849e-09
0.000306456
2.86518e-07
0.000306338
5.77798e-07
0.000306163
8.67228e-07
0.000305929
1.15468e-06
0.000305639
1.44003e-06
0.000305291
1.72318e-06
0.000304887
2.00399e-06
0.000304428
2.28237e-06
0.000303913
2.55822e-06
0.000303344
2.83144e-06
0.00030272
3.10193e-06
0.000302043
3.36961e-06
0.000301312
3.63441e-06
0.000300529
3.89623e-06
0.000299695
4.15501e-06
0.000298809
4.41068e-06
0.000297872
4.66318e-06
0.000296886
4.91246e-06
0.00029585
5.15846e-06
0.000294766
5.40114e-06
0.000293634
5.64044e-06
0.000292454
5.87635e-06
0.000291228
6.10881e-06
0.000289957
6.3378e-06
0.00028864
6.5633e-06
0.000287278
6.78527e-06
0.000285873
7.0037e-06
0.000284425
7.21858e-06
0.000282935
7.42989e-06
0.000281403
7.63764e-06
0.000279831
7.8418e-06
0.000278218
8.04239e-06
0.000276566
8.23942e-06
0.000274875
8.43287e-06
0.000273146
8.62277e-06
0.00027138
8.80912e-06
0.000269577
8.99193e-06
0.000267739
9.17122e-06
0.000265865
9.34701e-06
0.000263957
9.51933e-06
0.000262016
9.68819e-06
0.000260041
9.85362e-06
0.000258034
1.00156e-05
0.000255995
1.01743e-05
0.000253925
1.03296e-05
0.000251825
1.04815e-05
0.000249695
1.06302e-05
0.000247536
1.07755e-05
0.000245348
1.09177e-05
0.000243133
1.10566e-05
0.000240891
1.11924e-05
0.000238622
1.13251e-05
0.000236327
1.14546e-05
0.000234008
1.15812e-05
0.000231663
1.17047e-05
0.000229295
1.18252e-05
0.000226903