/*--------------------------------*- C++ -*----------------------------------*\
| =========                 |                                                 |
| \\      /  F ield         | OpenFOAM: The Open Source CFD Toolbox           |
|  \\    /   O peration     | Version:  v2012                                 |
|   \\  /    A nd           | Website:  www.openfoam.com                      |
|    \\/     M anipulation  |                                                 |
\*---------------------------------------------------------------------------*/
FoamFile
{
    version     2.0;
    format      ascii;
    class       volVectorField;
    location    "4.5";
    object      W;
}
// * * * * * * * * * * * * * * * * * * * * * * * * * * * * * * * * * * * * * //

dimensions      [0 0 -1 0 0 0 0];


internalField   nonuniform List<vector> 
65536
(
(0 -0 -5.32519e-08)
(0 -0 -1.39513e-07)
(0 -0 2.83866e-08)
(0 -0 3.29916e-08)
(0 -0 -1.96816e-09)
(0 -0 -4.49439e-08)
(0 -0 -8.56349e-08)
(0 -0 -1.22533e-07)
(0 -0 -1.57257e-07)
(0 -0 -1.92042e-07)
(0 -0 -2.28291e-07)
(0 -0 -2.66495e-07)
(0 -0 -3.06442e-07)
(0 -0 -3.47534e-07)
(0 -0 -3.89089e-07)
(0 -0 -4.30253e-07)
(0 -0 -4.70636e-07)
(0 -0 -5.1022e-07)
(0 -0 -5.49105e-07)
(0 -0 -5.87497e-07)
(0 -0 -6.2539e-07)
(0 -0 -6.6283e-07)
(0 -0 -6.99833e-07)
(0 -0 -7.36416e-07)
(0 -0 -7.73051e-07)
(0 -0 -8.10067e-07)
(0 -0 -8.47267e-07)
(0 -0 -8.84291e-07)
(0 -0 -9.2063e-07)
(0 -0 -9.55884e-07)
(0 -0 -9.90108e-07)
(0 -0 -1.02343e-06)
(0 -0 -1.0559e-06)
(0 -0 -1.08767e-06)
(0 -0 -1.11877e-06)
(0 -0 -1.1491e-06)
(0 -0 -1.17878e-06)
(0 -0 -1.20791e-06)
(0 -0 -1.23644e-06)
(0 -0 -1.26447e-06)
(0 -0 -1.29225e-06)
(0 -0 -1.32012e-06)
(0 -0 -1.34864e-06)
(0 -0 -1.37862e-06)
(0 -0 -1.41059e-06)
(0 -0 -1.44455e-06)
(0 -0 -1.48015e-06)
(0 -0 -1.51681e-06)
(0 -0 -1.55372e-06)
(0 -0 -1.59011e-06)
(0 -0 -1.62535e-06)
(0 -0 -1.6589e-06)
(0 -0 -1.69047e-06)
(0 -0 -1.72023e-06)
(0 -0 -1.74866e-06)
(0 -0 -1.77625e-06)
(0 -0 -1.80347e-06)
(0 -0 -1.83098e-06)
(0 -0 -1.85949e-06)
(0 -0 -1.88947e-06)
(0 -0 -1.92097e-06)
(0 -0 -1.95353e-06)
(0 -0 -1.9862e-06)
(0 -0 -2.01795e-06)
(0 -0 -2.04823e-06)
(0 -0 -2.07705e-06)
(0 -0 -2.10465e-06)
(0 -0 -2.13141e-06)
(0 -0 -2.15801e-06)
(0 -0 -2.18542e-06)
(0 -0 -2.21439e-06)
(0 -0 -2.24489e-06)
(0 -0 -2.27608e-06)
(0 -0 -2.30672e-06)
(0 -0 -2.33564e-06)
(0 -0 -2.36205e-06)
(0 -0 -2.38562e-06)
(0 -0 -2.4064e-06)
(0 -0 -2.42485e-06)
(0 -0 -2.44197e-06)
(0 -0 -2.45924e-06)
(0 -0 -2.47818e-06)
(0 -0 -2.49965e-06)
(0 -0 -2.52364e-06)
(0 -0 -2.54958e-06)
(0 -0 -2.57655e-06)
(0 -0 -2.60338e-06)
(0 -0 -2.62859e-06)
(0 -0 -2.65069e-06)
(0 -0 -2.66875e-06)
(0 -0 -2.68279e-06)
(0 -0 -2.69382e-06)
(0 -0 -2.70363e-06)
(0 -0 -2.7142e-06)
(0 -0 -2.72717e-06)
(0 -0 -2.74325e-06)
(0 -0 -2.76219e-06)
(0 -0 -2.78308e-06)
(0 -0 -2.80456e-06)
(0 -0 -2.82517e-06)
(0 -0 -2.84375e-06)
(0 -0 -2.85977e-06)
(0 -0 -2.87328e-06)
(0 -0 -2.88477e-06)
(0 -0 -2.8947e-06)
(0 -0 -2.90318e-06)
(0 -0 -2.91008e-06)
(0 -0 -2.91536e-06)
(0 -0 -2.91939e-06)
(0 -0 -2.92301e-06)
(0 -0 -2.92751e-06)
(0 -0 -2.93428e-06)
(0 -0 -2.94431e-06)
(0 -0 -2.95792e-06)
(0 -0 -2.97462e-06)
(0 -0 -2.99317e-06)
(0 -0 -3.0118e-06)
(0 -0 -3.0286e-06)
(0 -0 -3.04201e-06)
(0 -0 -3.05122e-06)
(0 -0 -3.05622e-06)
(0 -0 -3.05767e-06)
(0 -0 -3.05658e-06)
(0 -0 -3.05398e-06)
(0 -0 -3.05065e-06)
(0 -0 -3.04689e-06)
(0 -0 -3.04253e-06)
(0 -0 -3.03725e-06)
(0 -0 -3.03094e-06)
(0 -0 -3.02404e-06)
(0 -0 -3.01762e-06)
(0 -0 -3.01317e-06)
(0 -0 -3.01194e-06)
(0 -0 -3.01457e-06)
(0 -0 -3.02095e-06)
(0 -0 -3.02975e-06)
(0 -0 -3.03855e-06)
(0 -0 -3.0448e-06)
(0 -0 -3.04647e-06)
(0 -0 -3.04277e-06)
(0 -0 -3.03431e-06)
(0 -0 -3.02293e-06)
(0 -0 -3.01084e-06)
(0 -0 -3.00006e-06)
(0 -0 -2.99189e-06)
(0 -0 -2.9866e-06)
(0 -0 -2.98343e-06)
(0 -0 -2.98087e-06)
(0 -0 -2.97715e-06)
(0 -0 -2.97076e-06)
(0 -0 -2.96106e-06)
(0 -0 -2.94854e-06)
(0 -0 -2.93453e-06)
(0 -0 -2.92032e-06)
(0 -0 -2.90659e-06)
(0 -0 -2.89298e-06)
(0 -0 -2.87812e-06)
(0 -0 -2.86017e-06)
(0 -0 -2.83796e-06)
(0 -0 -2.81171e-06)
(0 -0 -2.78336e-06)
(0 -0 -2.75612e-06)
(0 -0 -2.73306e-06)
(0 -0 -2.71593e-06)
(0 -0 -2.70484e-06)
(0 -0 -2.6979e-06)
(0 -0 -2.69247e-06)
(0 -0 -2.6859e-06)
(0 -0 -2.67654e-06)
(0 -0 -2.66377e-06)
(0 -0 -2.64818e-06)
(0 -0 -2.63093e-06)
(0 -0 -2.61344e-06)
(0 -0 -2.59676e-06)
(0 -0 -2.58151e-06)
(0 -0 -2.56755e-06)
(0 -0 -2.55391e-06)
(0 -0 -2.53934e-06)
(0 -0 -2.52293e-06)
(0 -0 -2.50451e-06)
(0 -0 -2.4843e-06)
(0 -0 -2.46291e-06)
(0 -0 -2.44086e-06)
(0 -0 -2.41826e-06)
(0 -0 -2.39514e-06)
(0 -0 -2.37151e-06)
(0 -0 -2.3475e-06)
(0 -0 -2.32324e-06)
(0 -0 -2.29885e-06)
(0 -0 -2.27445e-06)
(0 -0 -2.25003e-06)
(0 -0 -2.2252e-06)
(0 -0 -2.19945e-06)
(0 -0 -2.17241e-06)
(0 -0 -2.1441e-06)
(0 -0 -2.11514e-06)
(0 -0 -2.08646e-06)
(0 -0 -2.05868e-06)
(0 -0 -2.0319e-06)
(0 -0 -2.00555e-06)
(0 -0 -1.97878e-06)
(0 -0 -1.95076e-06)
(0 -0 -1.92103e-06)
(0 -0 -1.8897e-06)
(0 -0 -1.85743e-06)
(0 -0 -1.82487e-06)
(0 -0 -1.79234e-06)
(0 -0 -1.75973e-06)
(0 -0 -1.72653e-06)
(0 -0 -1.69213e-06)
(0 -0 -1.65622e-06)
(0 -0 -1.61892e-06)
(0 -0 -1.58063e-06)
(0 -0 -1.542e-06)
(0 -0 -1.50365e-06)
(0 -0 -1.46585e-06)
(0 -0 -1.4287e-06)
(0 -0 -1.3921e-06)
(0 -0 -1.35566e-06)
(0 -0 -1.31888e-06)
(0 -0 -1.28126e-06)
(0 -0 -1.24247e-06)
(0 -0 -1.2024e-06)
(0 -0 -1.16124e-06)
(0 -0 -1.11941e-06)
(0 -0 -1.07752e-06)
(0 -0 -1.03631e-06)
(0 -0 -9.9623e-07)
(0 -0 -9.57408e-07)
(0 -0 -9.1971e-07)
(0 -0 -8.82824e-07)
(0 -0 -8.46483e-07)
(0 -0 -8.10557e-07)
(0 -0 -7.74852e-07)
(0 -0 -7.39087e-07)
(0 -0 -7.02982e-07)
(0 -0 -6.66403e-07)
(0 -0 -6.29397e-07)
(0 -0 -5.92086e-07)
(0 -0 -5.54532e-07)
(0 -0 -5.16789e-07)
(0 -0 -4.79003e-07)
(0 -0 -4.41335e-07)
(0 -0 -4.03864e-07)
(0 -0 -3.66479e-07)
(0 -0 -3.28969e-07)
(0 -0 -2.91208e-07)
(0 -0 -2.53367e-07)
(0 -0 -2.15892e-07)
(0 -0 -1.79378e-07)
(0 -0 -1.44481e-07)
(0 -0 -1.11905e-07)
(0 -0 -8.23519e-08)
(0 -0 -5.62323e-08)
(0 -0 -3.32323e-08)
(0 -0 -1.11233e-08)
(0 -0 -1.55534e-07)
(0 -0 -4.05525e-07)
(0 -0 -2.30212e-07)
(0 -0 -2.64749e-07)
(0 -0 -3.4713e-07)
(0 -0 -4.3608e-07)
(0 -0 -5.19163e-07)
(0 -0 -5.9724e-07)
(0 -0 -6.75492e-07)
(0 -0 -7.5842e-07)
(0 -0 -8.48504e-07)
(0 -0 -9.46258e-07)
(0 -0 -1.05033e-06)
(0 -0 -1.15866e-06)
(0 -0 -1.26925e-06)
(0 -0 -1.38044e-06)
(0 -0 -1.49112e-06)
(0 -0 -1.60061e-06)
(0 -0 -1.70865e-06)
(0 -0 -1.81507e-06)
(0 -0 -1.91992e-06)
(0 -0 -2.02385e-06)
(0 -0 -2.12748e-06)
(0 -0 -2.23143e-06)
(0 -0 -2.33623e-06)
(0 -0 -2.44173e-06)
(0 -0 -2.54744e-06)
(0 -0 -2.65273e-06)
(0 -0 -2.75673e-06)
(0 -0 -2.85881e-06)
(0 -0 -2.95875e-06)
(0 -0 -3.05627e-06)
(0 -0 -3.15134e-06)
(0 -0 -3.24429e-06)
(0 -0 -3.33541e-06)
(0 -0 -3.42499e-06)
(0 -0 -3.51321e-06)
(0 -0 -3.59972e-06)
(0 -0 -3.68411e-06)
(0 -0 -3.76667e-06)
(0 -0 -3.84834e-06)
(0 -0 -3.9306e-06)
(0 -0 -4.01544e-06)
(0 -0 -4.10474e-06)
(0 -0 -4.19951e-06)
(0 -0 -4.29984e-06)
(0 -0 -4.40501e-06)
(0 -0 -4.5134e-06)
(0 -0 -4.62272e-06)
(0 -0 -4.73064e-06)
(0 -0 -4.83506e-06)
(0 -0 -4.93431e-06)
(0 -0 -5.02756e-06)
(0 -0 -5.11505e-06)
(0 -0 -5.19776e-06)
(0 -0 -5.27718e-06)
(0 -0 -5.35542e-06)
(0 -0 -5.43495e-06)
(0 -0 -5.51789e-06)
(0 -0 -5.60534e-06)
(0 -0 -5.69723e-06)
(0 -0 -5.79222e-06)
(0 -0 -5.88788e-06)
(0 -0 -5.98147e-06)
(0 -0 -6.07099e-06)
(0 -0 -6.15564e-06)
(0 -0 -6.23592e-06)
(0 -0 -6.31358e-06)
(0 -0 -6.39128e-06)
(0 -0 -6.47174e-06)
(0 -0 -6.5566e-06)
(0 -0 -6.64569e-06)
(0 -0 -6.73699e-06)
(0 -0 -6.82721e-06)
(0 -0 -6.9127e-06)
(0 -0 -6.9906e-06)
(0 -0 -7.05963e-06)
(0 -0 -7.12029e-06)
(0 -0 -7.17463e-06)
(0 -0 -7.22602e-06)
(0 -0 -7.27854e-06)
(0 -0 -7.33591e-06)
(0 -0 -7.40046e-06)
(0 -0 -7.47268e-06)
(0 -0 -7.55134e-06)
(0 -0 -7.63358e-06)
(0 -0 -7.71521e-06)
(0 -0 -7.7914e-06)
(0 -0 -7.85796e-06)
(0 -0 -7.91265e-06)
(0 -0 -7.95585e-06)
(0 -0 -7.99048e-06)
(0 -0 -8.02134e-06)
(0 -0 -8.05396e-06)
(0 -0 -8.09302e-06)
(0 -0 -8.14096e-06)
(0 -0 -8.19738e-06)
(0 -0 -8.25959e-06)
(0 -0 -8.32351e-06)
(0 -0 -8.38481e-06)
(0 -0 -8.44021e-06)
(0 -0 -8.48826e-06)
(0 -0 -8.52927e-06)
(0 -0 -8.56451e-06)
(0 -0 -8.59509e-06)
(0 -0 -8.62124e-06)
(0 -0 -8.6426e-06)
(0 -0 -8.65914e-06)
(0 -0 -8.6719e-06)
(0 -0 -8.68324e-06)
(0 -0 -8.69668e-06)
(0 -0 -8.71614e-06)
(0 -0 -8.74483e-06)
(0 -0 -8.78417e-06)
(0 -0 -8.83303e-06)
(0 -0 -8.88772e-06)
(0 -0 -8.94288e-06)
(0 -0 -8.99288e-06)
(0 -0 -9.03319e-06)
(0 -0 -9.06144e-06)
(0 -0 -9.07753e-06)
(0 -0 -9.08327e-06)
(0 -0 -9.08162e-06)
(0 -0 -9.07557e-06)
(0 -0 -9.06741e-06)
(0 -0 -9.05812e-06)
(0 -0 -9.04725e-06)
(0 -0 -9.03378e-06)
(0 -0 -9.01725e-06)
(0 -0 -8.99867e-06)
(0 -0 -8.98088e-06)
(0 -0 -8.96809e-06)
(0 -0 -8.96428e-06)
(0 -0 -8.97163e-06)
(0 -0 -8.98957e-06)
(0 -0 -9.01407e-06)
(0 -0 -9.03825e-06)
(0 -0 -9.05474e-06)
(0 -0 -9.05806e-06)
(0 -0 -9.04622e-06)
(0 -0 -9.02116e-06)
(0 -0 -8.98798e-06)
(0 -0 -8.95311e-06)
(0 -0 -8.92246e-06)
(0 -0 -8.89973e-06)
(0 -0 -8.88543e-06)
(0 -0 -8.87696e-06)
(0 -0 -8.86975e-06)
(0 -0 -8.85871e-06)
(0 -0 -8.83984e-06)
(0 -0 -8.81147e-06)
(0 -0 -8.77482e-06)
(0 -0 -8.73344e-06)
(0 -0 -8.6913e-06)
(0 -0 -8.65066e-06)
(0 -0 -8.61055e-06)
(0 -0 -8.56677e-06)
(0 -0 -8.51375e-06)
(0 -0 -8.44777e-06)
(0 -0 -8.3696e-06)
(0 -0 -8.28522e-06)
(0 -0 -8.20392e-06)
(0 -0 -8.13493e-06)
(0 -0 -8.0836e-06)
(0 -0 -8.05013e-06)
(0 -0 -8.02932e-06)
(0 -0 -8.01332e-06)
(0 -0 -7.99415e-06)
(0 -0 -7.96649e-06)
(0 -0 -7.92848e-06)
(0 -0 -7.88161e-06)
(0 -0 -7.82959e-06)
(0 -0 -7.77661e-06)
(0 -0 -7.72613e-06)
(0 -0 -7.67957e-06)
(0 -0 -7.63648e-06)
(0 -0 -7.59427e-06)
(0 -0 -7.54982e-06)
(0 -0 -7.50046e-06)
(0 -0 -7.44526e-06)
(0 -0 -7.38465e-06)
(0 -0 -7.31998e-06)
(0 -0 -7.25297e-06)
(0 -0 -7.18461e-06)
(0 -0 -7.11497e-06)
(0 -0 -7.04375e-06)
(0 -0 -6.97084e-06)
(0 -0 -6.89671e-06)
(0 -0 -6.8222e-06)
(0 -0 -6.74792e-06)
(0 -0 -6.67369e-06)
(0 -0 -6.59822e-06)
(0 -0 -6.51977e-06)
(0 -0 -6.43732e-06)
(0 -0 -6.3511e-06)
(0 -0 -6.26284e-06)
(0 -0 -6.17514e-06)
(0 -0 -6.08998e-06)
(0 -0 -6.00776e-06)
(0 -0 -5.92716e-06)
(0 -0 -5.84559e-06)
(0 -0 -5.76062e-06)
(0 -0 -5.67101e-06)
(0 -0 -5.57719e-06)
(0 -0 -5.48088e-06)
(0 -0 -5.38397e-06)
(0 -0 -5.28727e-06)
(0 -0 -5.19029e-06)
(0 -0 -5.09136e-06)
(0 -0 -4.98873e-06)
(0 -0 -4.88138e-06)
(0 -0 -4.76976e-06)
(0 -0 -4.65522e-06)
(0 -0 -4.53969e-06)
(0 -0 -4.42501e-06)
(0 -0 -4.31238e-06)
(0 -0 -4.20212e-06)
(0 -0 -4.09388e-06)
(0 -0 -3.98658e-06)
(0 -0 -3.87869e-06)
(0 -0 -3.76867e-06)
(0 -0 -3.65534e-06)
(0 -0 -3.53831e-06)
(0 -0 -3.41811e-06)
(0 -0 -3.29616e-06)
(0 -0 -3.17438e-06)
(0 -0 -3.05466e-06)
(0 -0 -2.93827e-06)
(0 -0 -2.82554e-06)
(0 -0 -2.7162e-06)
(0 -0 -2.60961e-06)
(0 -0 -2.50494e-06)
(0 -0 -2.40138e-06)
(0 -0 -2.29808e-06)
(0 -0 -2.19438e-06)
(0 -0 -2.08971e-06)
(0 -0 -1.98373e-06)
(0 -0 -1.87627e-06)
(0 -0 -1.76734e-06)
(0 -0 -1.6572e-06)
(0 -0 -1.5464e-06)
(0 -0 -1.43552e-06)
(0 -0 -1.32483e-06)
(0 -0 -1.21413e-06)
(0 -0 -1.10299e-06)
(0 -0 -9.91051e-07)
(0 -0 -8.78384e-07)
(0 -0 -7.65544e-07)
(0 -0 -6.53566e-07)
(0 -0 -5.43889e-07)
(0 -0 -4.38479e-07)
(0 -0 -3.39709e-07)
(0 -0 -2.49902e-07)
(0 -0 -1.70354e-07)
(0 -0 -1.00196e-07)
(0 -0 -3.34953e-08)
(0 -0 -4.48201e-07)
(0 -0 -9.45871e-07)
(0 -0 -8.84458e-07)
(0 -0 -9.33409e-07)
(0 -0 -1.01608e-06)
(0 -0 -1.10615e-06)
(0 -0 -1.19487e-06)
(0 -0 -1.28411e-06)
(0 -0 -1.37961e-06)
(0 -0 -1.48668e-06)
(0 -0 -1.60835e-06)
(0 -0 -1.7446e-06)
(0 -0 -1.89321e-06)
(0 -0 -2.05084e-06)
(0 -0 -2.21393e-06)
(0 -0 -2.37954e-06)
(0 -0 -2.54545e-06)
(0 -0 -2.71036e-06)
(0 -0 -2.87371e-06)
(0 -0 -3.03542e-06)
(0 -0 -3.19595e-06)
(0 -0 -3.35588e-06)
(0 -0 -3.51586e-06)
(0 -0 -3.67675e-06)
(0 -0 -3.8389e-06)
(0 -0 -4.00227e-06)
(0 -0 -4.1666e-06)
(0 -0 -4.33097e-06)
(0 -0 -4.49415e-06)
(0 -0 -4.65513e-06)
(0 -0 -4.81304e-06)
(0 -0 -4.9676e-06)
(0 -0 -5.11921e-06)
(0 -0 -5.26834e-06)
(0 -0 -5.41536e-06)
(0 -0 -5.56042e-06)
(0 -0 -5.70304e-06)
(0 -0 -5.84238e-06)
(0 -0 -5.97813e-06)
(0 -0 -6.11086e-06)
(0 -0 -6.24209e-06)
(0 -0 -6.37443e-06)
(0 -0 -6.51115e-06)
(0 -0 -6.65513e-06)
(0 -0 -6.80819e-06)
(0 -0 -6.97081e-06)
(0 -0 -7.1417e-06)
(0 -0 -7.31794e-06)
(0 -0 -7.49581e-06)
(0 -0 -7.67145e-06)
(0 -0 -7.84113e-06)
(0 -0 -8.00194e-06)
(0 -0 -8.15235e-06)
(0 -0 -8.29234e-06)
(0 -0 -8.42323e-06)
(0 -0 -8.54777e-06)
(0 -0 -8.66996e-06)
(0 -0 -8.79419e-06)
(0 -0 -8.92417e-06)
(0 -0 -9.06218e-06)
(0 -0 -9.20839e-06)
(0 -0 -9.36058e-06)
(0 -0 -9.51467e-06)
(0 -0 -9.66598e-06)
(0 -0 -9.81068e-06)
(0 -0 -9.94682e-06)
(0 -0 -1.00751e-05)
(0 -0 -1.01989e-05)
(0 -0 -1.03229e-05)
(0 -0 -1.04513e-05)
(0 -0 -1.05866e-05)
(0 -0 -1.07288e-05)
(0 -0 -1.08749e-05)
(0 -0 -1.10197e-05)
(0 -0 -1.11572e-05)
(0 -0 -1.12824e-05)
(0 -0 -1.13931e-05)
(0 -0 -1.14906e-05)
(0 -0 -1.15786e-05)
(0 -0 -1.1663e-05)
(0 -0 -1.17503e-05)
(0 -0 -1.18462e-05)
(0 -0 -1.19546e-05)
(0 -0 -1.20764e-05)
(0 -0 -1.22094e-05)
(0 -0 -1.23483e-05)
(0 -0 -1.24856e-05)
(0 -0 -1.26135e-05)
(0 -0 -1.27256e-05)
(0 -0 -1.28184e-05)
(0 -0 -1.28925e-05)
(0 -0 -1.29525e-05)
(0 -0 -1.3006e-05)
(0 -0 -1.30615e-05)
(0 -0 -1.31266e-05)
(0 -0 -1.32051e-05)
(0 -0 -1.32968e-05)
(0 -0 -1.33973e-05)
(0 -0 -1.35002e-05)
(0 -0 -1.3599e-05)
(0 -0 -1.36889e-05)
(0 -0 -1.37677e-05)
(0 -0 -1.3836e-05)
(0 -0 -1.38954e-05)
(0 -0 -1.39474e-05)
(0 -0 -1.39924e-05)
(0 -0 -1.40296e-05)
(0 -0 -1.40587e-05)
(0 -0 -1.40806e-05)
(0 -0 -1.40991e-05)
(0 -0 -1.41196e-05)
(0 -0 -1.41489e-05)
(0 -0 -1.41926e-05)
(0 -0 -1.42534e-05)
(0 -0 -1.43297e-05)
(0 -0 -1.4416e-05)
(0 -0 -1.45041e-05)
(0 -0 -1.45854e-05)
(0 -0 -1.46525e-05)
(0 -0 -1.47013e-05)
(0 -0 -1.47311e-05)
(0 -0 -1.47447e-05)
(0 -0 -1.47468e-05)
(0 -0 -1.47421e-05)
(0 -0 -1.47343e-05)
(0 -0 -1.47248e-05)
(0 -0 -1.47132e-05)
(0 -0 -1.46977e-05)
(0 -0 -1.46772e-05)
(0 -0 -1.46528e-05)
(0 -0 -1.46284e-05)
(0 -0 -1.46103e-05)
(0 -0 -1.4605e-05)
(0 -0 -1.46159e-05)
(0 -0 -1.4642e-05)
(0 -0 -1.46767e-05)
(0 -0 -1.47102e-05)
(0 -0 -1.47316e-05)
(0 -0 -1.4733e-05)
(0 -0 -1.4712e-05)
(0 -0 -1.46719e-05)
(0 -0 -1.46207e-05)
(0 -0 -1.45682e-05)
(0 -0 -1.45232e-05)
(0 -0 -1.4491e-05)
(0 -0 -1.4472e-05)
(0 -0 -1.44618e-05)
(0 -0 -1.44528e-05)
(0 -0 -1.44371e-05)
(0 -0 -1.44083e-05)
(0 -0 -1.43639e-05)
(0 -0 -1.43061e-05)
(0 -0 -1.42404e-05)
(0 -0 -1.41734e-05)
(0 -0 -1.4109e-05)
(0 -0 -1.40455e-05)
(0 -0 -1.3976e-05)
(0 -0 -1.38913e-05)
(0 -0 -1.37851e-05)
(0 -0 -1.36585e-05)
(0 -0 -1.3521e-05)
(0 -0 -1.3388e-05)
(0 -0 -1.32747e-05)
(0 -0 -1.31905e-05)
(0 -0 -1.31359e-05)
(0 -0 -1.31027e-05)
(0 -0 -1.30779e-05)
(0 -0 -1.30485e-05)
(0 -0 -1.3005e-05)
(0 -0 -1.2944e-05)
(0 -0 -1.28674e-05)
(0 -0 -1.27815e-05)
(0 -0 -1.26931e-05)
(0 -0 -1.26086e-05)
(0 -0 -1.25303e-05)
(0 -0 -1.24579e-05)
(0 -0 -1.23875e-05)
(0 -0 -1.23141e-05)
(0 -0 -1.22334e-05)
(0 -0 -1.21434e-05)
(0 -0 -1.20447e-05)
(0 -0 -1.19398e-05)
(0 -0 -1.1831e-05)
(0 -0 -1.17198e-05)
(0 -0 -1.16061e-05)
(0 -0 -1.14891e-05)
(0 -0 -1.13687e-05)
(0 -0 -1.12459e-05)
(0 -0 -1.11225e-05)
(0 -0 -1.09996e-05)
(0 -0 -1.08767e-05)
(0 -0 -1.07517e-05)
(0 -0 -1.06214e-05)
(0 -0 -1.04839e-05)
(0 -0 -1.03394e-05)
(0 -0 -1.01909e-05)
(0 -0 -1.00427e-05)
(0 -0 -9.89833e-06)
(0 -0 -9.75893e-06)
(0 -0 -9.62259e-06)
(0 -0 -9.48534e-06)
(0 -0 -9.34344e-06)
(0 -0 -9.19516e-06)
(0 -0 -9.04147e-06)
(0 -0 -8.88497e-06)
(0 -0 -8.72836e-06)
(0 -0 -8.57239e-06)
(0 -0 -8.41569e-06)
(0 -0 -8.25507e-06)
(0 -0 -8.08754e-06)
(0 -0 -7.91147e-06)
(0 -0 -7.72775e-06)
(0 -0 -7.53901e-06)
(0 -0 -7.34881e-06)
(0 -0 -7.16037e-06)
(0 -0 -6.97588e-06)
(0 -0 -6.7961e-06)
(0 -0 -6.62037e-06)
(0 -0 -6.44703e-06)
(0 -0 -6.2735e-06)
(0 -0 -6.09707e-06)
(0 -0 -5.91556e-06)
(0 -0 -5.72809e-06)
(0 -0 -5.53536e-06)
(0 -0 -5.33978e-06)
(0 -0 -5.14449e-06)
(0 -0 -4.95246e-06)
(0 -0 -4.76583e-06)
(0 -0 -4.58536e-06)
(0 -0 -4.41055e-06)
(0 -0 -4.24024e-06)
(0 -0 -4.07299e-06)
(0 -0 -3.90747e-06)
(0 -0 -3.74242e-06)
(0 -0 -3.57675e-06)
(0 -0 -3.40946e-06)
(0 -0 -3.23971e-06)
(0 -0 -3.06709e-06)
(0 -0 -2.89172e-06)
(0 -0 -2.71423e-06)
(0 -0 -2.53546e-06)
(0 -0 -2.35614e-06)
(0 -0 -2.1766e-06)
(0 -0 -1.99657e-06)
(0 -0 -1.81557e-06)
(0 -0 -1.6331e-06)
(0 -0 -1.44916e-06)
(0 -0 -1.26437e-06)
(0 -0 -1.08032e-06)
(0 -0 -8.99546e-07)
(0 -0 -7.25522e-07)
(0 -0 -5.62282e-07)
(0 -0 -4.13619e-07)
(0 -0 -2.81713e-07)
(0 -0 -1.65425e-07)
(0 -0 -5.53778e-08)
(0 -0 -5.2525e-07)
(0 -0 -1.15485e-06)
(0 -0 -1.27452e-06)
(0 -0 -1.41614e-06)
(0 -0 -1.55118e-06)
(0 -0 -1.67413e-06)
(0 -0 -1.78705e-06)
(0 -0 -1.8977e-06)
(0 -0 -2.01539e-06)
(0 -0 -2.14776e-06)
(0 -0 -2.29879e-06)
(0 -0 -2.46876e-06)
(0 -0 -2.65517e-06)
(0 -0 -2.85382e-06)
(0 -0 -3.06033e-06)
(0 -0 -3.27088e-06)
(0 -0 -3.48274e-06)
(0 -0 -3.69428e-06)
(0 -0 -3.90466e-06)
(0 -0 -4.11377e-06)
(0 -0 -4.32178e-06)
(0 -0 -4.52912e-06)
(0 -0 -4.73666e-06)
(0 -0 -4.94521e-06)
(0 -0 -5.15523e-06)
(0 -0 -5.36698e-06)
(0 -0 -5.57999e-06)
(0 -0 -5.79317e-06)
(0 -0 -6.00528e-06)
(0 -0 -6.21504e-06)
(0 -0 -6.42157e-06)
(0 -0 -6.62485e-06)
(0 -0 -6.82529e-06)
(0 -0 -7.02339e-06)
(0 -0 -7.21954e-06)
(0 -0 -7.41338e-06)
(0 -0 -7.60376e-06)
(0 -0 -7.78943e-06)
(0 -0 -7.9698e-06)
(0 -0 -8.14542e-06)
(0 -0 -8.31853e-06)
(0 -0 -8.49311e-06)
(0 -0 -8.67376e-06)
(0 -0 -8.86462e-06)
(0 -0 -9.06855e-06)
(0 -0 -9.28621e-06)
(0 -0 -9.51571e-06)
(0 -0 -9.75309e-06)
(0 -0 -9.99321e-06)
(0 -0 -1.02303e-05)
(0 -0 -1.04588e-05)
(0 -0 -1.06746e-05)
(0 -0 -1.0875e-05)
(0 -0 -1.10597e-05)
(0 -0 -1.12302e-05)
(0 -0 -1.13907e-05)
(0 -0 -1.15471e-05)
(0 -0 -1.17059e-05)
(0 -0 -1.18731e-05)
(0 -0 -1.20527e-05)
(0 -0 -1.22452e-05)
(0 -0 -1.24475e-05)
(0 -0 -1.26539e-05)
(0 -0 -1.28574e-05)
(0 -0 -1.30522e-05)
(0 -0 -1.32349e-05)
(0 -0 -1.34062e-05)
(0 -0 -1.35704e-05)
(0 -0 -1.37341e-05)
(0 -0 -1.39036e-05)
(0 -0 -1.40824e-05)
(0 -0 -1.42707e-05)
(0 -0 -1.44643e-05)
(0 -0 -1.46561e-05)
(0 -0 -1.48383e-05)
(0 -0 -1.50043e-05)
(0 -0 -1.51512e-05)
(0 -0 -1.52806e-05)
(0 -0 -1.53982e-05)
(0 -0 -1.55127e-05)
(0 -0 -1.56331e-05)
(0 -0 -1.57672e-05)
(0 -0 -1.59196e-05)
(0 -0 -1.60913e-05)
(0 -0 -1.62785e-05)
(0 -0 -1.64736e-05)
(0 -0 -1.66665e-05)
(0 -0 -1.68464e-05)
(0 -0 -1.70046e-05)
(0 -0 -1.71365e-05)
(0 -0 -1.72428e-05)
(0 -0 -1.73296e-05)
(0 -0 -1.74069e-05)
(0 -0 -1.74858e-05)
(0 -0 -1.75756e-05)
(0 -0 -1.76816e-05)
(0 -0 -1.78036e-05)
(0 -0 -1.79365e-05)
(0 -0 -1.80723e-05)
(0 -0 -1.82028e-05)
(0 -0 -1.83224e-05)
(0 -0 -1.84287e-05)
(0 -0 -1.85225e-05)
(0 -0 -1.86058e-05)
(0 -0 -1.86801e-05)
(0 -0 -1.87452e-05)
(0 -0 -1.87997e-05)
(0 -0 -1.88422e-05)
(0 -0 -1.88735e-05)
(0 -0 -1.88978e-05)
(0 -0 -1.89227e-05)
(0 -0 -1.89576e-05)
(0 -0 -1.90104e-05)
(0 -0 -1.90854e-05)
(0 -0 -1.91816e-05)
(0 -0 -1.92925e-05)
(0 -0 -1.94081e-05)
(0 -0 -1.95172e-05)
(0 -0 -1.96101e-05)
(0 -0 -1.96807e-05)
(0 -0 -1.97279e-05)
(0 -0 -1.97547e-05)
(0 -0 -1.97668e-05)
(0 -0 -1.97703e-05)
(0 -0 -1.97699e-05)
(0 -0 -1.97677e-05)
(0 -0 -1.97631e-05)
(0 -0 -1.97538e-05)
(0 -0 -1.9738e-05)
(0 -0 -1.97165e-05)
(0 -0 -1.96935e-05)
(0 -0 -1.96759e-05)
(0 -0 -1.96715e-05)
(0 -0 -1.96846e-05)
(0 -0 -1.97138e-05)
(0 -0 -1.97516e-05)
(0 -0 -1.97864e-05)
(0 -0 -1.98057e-05)
(0 -0 -1.9801e-05)
(0 -0 -1.97701e-05)
(0 -0 -1.97178e-05)
(0 -0 -1.96545e-05)
(0 -0 -1.95922e-05)
(0 -0 -1.95413e-05)
(0 -0 -1.95075e-05)
(0 -0 -1.94904e-05)
(0 -0 -1.9484e-05)
(0 -0 -1.94781e-05)
(0 -0 -1.94622e-05)
(0 -0 -1.94281e-05)
(0 -0 -1.93727e-05)
(0 -0 -1.92992e-05)
(0 -0 -1.92151e-05)
(0 -0 -1.91293e-05)
(0 -0 -1.90468e-05)
(0 -0 -1.89656e-05)
(0 -0 -1.88762e-05)
(0 -0 -1.8766e-05)
(0 -0 -1.86263e-05)
(0 -0 -1.84579e-05)
(0 -0 -1.82735e-05)
(0 -0 -1.80941e-05)
(0 -0 -1.79409e-05)
(0 -0 -1.78275e-05)
(0 -0 -1.77554e-05)
(0 -0 -1.77137e-05)
(0 -0 -1.76846e-05)
(0 -0 -1.76494e-05)
(0 -0 -1.75947e-05)
(0 -0 -1.75149e-05)
(0 -0 -1.74123e-05)
(0 -0 -1.7295e-05)
(0 -0 -1.71731e-05)
(0 -0 -1.70556e-05)
(0 -0 -1.69471e-05)
(0 -0 -1.68472e-05)
(0 -0 -1.67511e-05)
(0 -0 -1.6652e-05)
(0 -0 -1.65442e-05)
(0 -0 -1.64247e-05)
(0 -0 -1.62943e-05)
(0 -0 -1.61561e-05)
(0 -0 -1.60127e-05)
(0 -0 -1.58655e-05)
(0 -0 -1.57142e-05)
(0 -0 -1.55577e-05)
(0 -0 -1.53959e-05)
(0 -0 -1.52305e-05)
(0 -0 -1.50641e-05)
(0 -0 -1.48985e-05)
(0 -0 -1.47327e-05)
(0 -0 -1.45635e-05)
(0 -0 -1.43862e-05)
(0 -0 -1.41976e-05)
(0 -0 -1.39979e-05)
(0 -0 -1.3791e-05)
(0 -0 -1.35832e-05)
(0 -0 -1.33798e-05)
(0 -0 -1.3183e-05)
(0 -0 -1.29909e-05)
(0 -0 -1.2799e-05)
(0 -0 -1.26028e-05)
(0 -0 -1.24002e-05)
(0 -0 -1.21929e-05)
(0 -0 -1.19841e-05)
(0 -0 -1.17767e-05)
(0 -0 -1.15708e-05)
(0 -0 -1.13632e-05)
(0 -0 -1.11487e-05)
(0 -0 -1.09228e-05)
(0 -0 -1.06837e-05)
(0 -0 -1.04329e-05)
(0 -0 -1.01746e-05)
(0 -0 -9.9143e-06)
(0 -0 -9.65688e-06)
(0 -0 -9.40558e-06)
(0 -0 -9.16178e-06)
(0 -0 -8.92478e-06)
(0 -0 -8.69213e-06)
(0 -0 -8.46023e-06)
(0 -0 -8.2249e-06)
(0 -0 -7.98272e-06)
(0 -0 -7.73218e-06)
(0 -0 -7.47415e-06)
(0 -0 -7.21179e-06)
(0 -0 -6.94953e-06)
(0 -0 -6.69152e-06)
(0 -0 -6.44056e-06)
(0 -0 -6.19772e-06)
(0 -0 -5.96237e-06)
(0 -0 -5.73294e-06)
(0 -0 -5.50755e-06)
(0 -0 -5.28446e-06)
(0 -0 -5.0621e-06)
(0 -0 -4.839e-06)
(0 -0 -4.61374e-06)
(0 -0 -4.38517e-06)
(0 -0 -4.15263e-06)
(0 -0 -3.91628e-06)
(0 -0 -3.67696e-06)
(0 -0 -3.43582e-06)
(0 -0 -3.19378e-06)
(0 -0 -2.95126e-06)
(0 -0 -2.70797e-06)
(0 -0 -2.46325e-06)
(0 -0 -2.21643e-06)
(0 -0 -1.96742e-06)
(0 -0 -1.71699e-06)
(0 -0 -1.4672e-06)
(0 -0 -1.22154e-06)
(0 -0 -9.84841e-07)
(0 -0 -7.62753e-07)
(0 -0 -5.60567e-07)
(0 -0 -3.8138e-07)
(0 -0 -2.23743e-07)
(0 -0 -7.48951e-08)
(0 -0 -5.41991e-07)
(0 -0 -1.24589e-06)
(0 -0 -1.50998e-06)
(0 -0 -1.7498e-06)
(0 -0 -1.95209e-06)
(0 -0 -2.12249e-06)
(0 -0 -2.27108e-06)
(0 -0 -2.41094e-06)
(0 -0 -2.55503e-06)
(0 -0 -2.71323e-06)
(0 -0 -2.89092e-06)
(0 -0 -3.08918e-06)
(0 -0 -3.30561e-06)
(0 -0 -3.53605e-06)
(0 -0 -3.77584e-06)
(0 -0 -4.021e-06)
(0 -0 -4.26862e-06)
(0 -0 -4.51679e-06)
(0 -0 -4.76457e-06)
(0 -0 -5.01148e-06)
(0 -0 -5.25733e-06)
(0 -0 -5.50245e-06)
(0 -0 -5.74748e-06)
(0 -0 -5.99305e-06)
(0 -0 -6.23995e-06)
(0 -0 -6.48851e-06)
(0 -0 -6.73834e-06)
(0 -0 -6.98859e-06)
(0 -0 -7.23804e-06)
(0 -0 -7.48545e-06)
(0 -0 -7.7303e-06)
(0 -0 -7.97269e-06)
(0 -0 -8.21306e-06)
(0 -0 -8.45199e-06)
(0 -0 -8.68946e-06)
(0 -0 -8.92435e-06)
(0 -0 -9.15479e-06)
(0 -0 -9.37897e-06)
(0 -0 -9.59578e-06)
(0 -0 -9.80587e-06)
(0 -0 -1.00123e-05)
(0 -0 -1.02203e-05)
(0 -0 -1.04356e-05)
(0 -0 -1.06639e-05)
(0 -0 -1.0909e-05)
(0 -0 -1.11717e-05)
(0 -0 -1.14499e-05)
(0 -0 -1.17387e-05)
(0 -0 -1.20317e-05)
(0 -0 -1.23213e-05)
(0 -0 -1.26002e-05)
(0 -0 -1.28623e-05)
(0 -0 -1.31038e-05)
(0 -0 -1.33234e-05)
(0 -0 -1.35232e-05)
(0 -0 -1.37086e-05)
(0 -0 -1.38875e-05)
(0 -0 -1.40692e-05)
(0 -0 -1.42623e-05)
(0 -0 -1.44729e-05)
(0 -0 -1.47024e-05)
(0 -0 -1.49469e-05)
(0 -0 -1.51988e-05)
(0 -0 -1.54486e-05)
(0 -0 -1.56878e-05)
(0 -0 -1.59117e-05)
(0 -0 -1.61204e-05)
(0 -0 -1.63192e-05)
(0 -0 -1.65162e-05)
(0 -0 -1.67194e-05)
(0 -0 -1.69341e-05)
(0 -0 -1.71604e-05)
(0 -0 -1.73931e-05)
(0 -0 -1.76233e-05)
(0 -0 -1.78413e-05)
(0 -0 -1.80395e-05)
(0 -0 -1.82147e-05)
(0 -0 -1.83693e-05)
(0 -0 -1.85111e-05)
(0 -0 -1.86513e-05)
(0 -0 -1.88016e-05)
(0 -0 -1.89714e-05)
(0 -0 -1.91661e-05)
(0 -0 -1.93859e-05)
(0 -0 -1.96253e-05)
(0 -0 -1.98743e-05)
(0 -0 -2.01202e-05)
(0 -0 -2.03501e-05)
(0 -0 -2.05537e-05)
(0 -0 -2.07254e-05)
(0 -0 -2.08657e-05)
(0 -0 -2.09815e-05)
(0 -0 -2.10842e-05)
(0 -0 -2.11866e-05)
(0 -0 -2.12994e-05)
(0 -0 -2.14288e-05)
(0 -0 -2.1575e-05)
(0 -0 -2.17328e-05)
(0 -0 -2.18937e-05)
(0 -0 -2.20491e-05)
(0 -0 -2.21928e-05)
(0 -0 -2.23228e-05)
(0 -0 -2.24402e-05)
(0 -0 -2.25471e-05)
(0 -0 -2.26447e-05)
(0 -0 -2.27317e-05)
(0 -0 -2.28055e-05)
(0 -0 -2.28631e-05)
(0 -0 -2.29047e-05)
(0 -0 -2.29346e-05)
(0 -0 -2.29619e-05)
(0 -0 -2.29982e-05)
(0 -0 -2.30538e-05)
(0 -0 -2.31352e-05)
(0 -0 -2.32427e-05)
(0 -0 -2.33702e-05)
(0 -0 -2.35067e-05)
(0 -0 -2.36393e-05)
(0 -0 -2.37565e-05)
(0 -0 -2.38505e-05)
(0 -0 -2.39187e-05)
(0 -0 -2.3964e-05)
(0 -0 -2.39923e-05)
(0 -0 -2.40108e-05)
(0 -0 -2.40251e-05)
(0 -0 -2.40377e-05)
(0 -0 -2.4048e-05)
(0 -0 -2.40534e-05)
(0 -0 -2.40515e-05)
(0 -0 -2.40423e-05)
(0 -0 -2.40295e-05)
(0 -0 -2.40196e-05)
(0 -0 -2.40197e-05)
(0 -0 -2.40342e-05)
(0 -0 -2.40617e-05)
(0 -0 -2.40949e-05)
(0 -0 -2.41221e-05)
(0 -0 -2.41316e-05)
(0 -0 -2.41158e-05)
(0 -0 -2.4074e-05)
(0 -0 -2.40126e-05)
(0 -0 -2.39434e-05)
(0 -0 -2.38794e-05)
(0 -0 -2.38312e-05)
(0 -0 -2.38038e-05)
(0 -0 -2.37952e-05)
(0 -0 -2.37976e-05)
(0 -0 -2.37991e-05)
(0 -0 -2.37872e-05)
(0 -0 -2.37525e-05)
(0 -0 -2.36919e-05)
(0 -0 -2.36092e-05)
(0 -0 -2.35137e-05)
(0 -0 -2.34161e-05)
(0 -0 -2.33223e-05)
(0 -0 -2.32299e-05)
(0 -0 -2.31272e-05)
(0 -0 -2.29989e-05)
(0 -0 -2.28337e-05)
(0 -0 -2.26323e-05)
(0 -0 -2.241e-05)
(0 -0 -2.21926e-05)
(0 -0 -2.2007e-05)
(0 -0 -2.1871e-05)
(0 -0 -2.17872e-05)
(0 -0 -2.17428e-05)
(0 -0 -2.17151e-05)
(0 -0 -2.16802e-05)
(0 -0 -2.162e-05)
(0 -0 -2.15264e-05)
(0 -0 -2.1402e-05)
(0 -0 -2.12566e-05)
(0 -0 -2.11037e-05)
(0 -0 -2.09551e-05)
(0 -0 -2.0818e-05)
(0 -0 -2.06925e-05)
(0 -0 -2.05734e-05)
(0 -0 -2.04523e-05)
(0 -0 -2.0322e-05)
(0 -0 -2.01787e-05)
(0 -0 -2.0023e-05)
(0 -0 -1.98582e-05)
(0 -0 -1.96874e-05)
(0 -0 -1.95115e-05)
(0 -0 -1.93298e-05)
(0 -0 -1.91411e-05)
(0 -0 -1.89455e-05)
(0 -0 -1.87454e-05)
(0 -0 -1.85442e-05)
(0 -0 -1.8344e-05)
(0 -0 -1.81433e-05)
(0 -0 -1.79373e-05)
(0 -0 -1.77195e-05)
(0 -0 -1.74853e-05)
(0 -0 -1.72346e-05)
(0 -0 -1.69724e-05)
(0 -0 -1.67068e-05)
(0 -0 -1.64451e-05)
(0 -0 -1.61912e-05)
(0 -0 -1.59438e-05)
(0 -0 -1.56986e-05)
(0 -0 -1.54511e-05)
(0 -0 -1.51999e-05)
(0 -0 -1.49468e-05)
(0 -0 -1.46957e-05)
(0 -0 -1.44488e-05)
(0 -0 -1.42044e-05)
(0 -0 -1.39567e-05)
(0 -0 -1.3698e-05)
(0 -0 -1.34222e-05)
(0 -0 -1.31273e-05)
(0 -0 -1.28158e-05)
(0 -0 -1.24943e-05)
(0 -0 -1.21701e-05)
(0 -0 -1.185e-05)
(0 -0 -1.15386e-05)
(0 -0 -1.12379e-05)
(0 -0 -1.09473e-05)
(0 -0 -1.06636e-05)
(0 -0 -1.03819e-05)
(0 -0 -1.00966e-05)
(0 -0 -9.80271e-06)
(0 -0 -9.49797e-06)
(0 -0 -9.18347e-06)
(0 -0 -8.86319e-06)
(0 -0 -8.54267e-06)
(0 -0 -8.22719e-06)
(0 -0 -7.92005e-06)
(0 -0 -7.62232e-06)
(0 -0 -7.33317e-06)
(0 -0 -7.0507e-06)
(0 -0 -6.77273e-06)
(0 -0 -6.49738e-06)
(0 -0 -6.22294e-06)
(0 -0 -5.94779e-06)
(0 -0 -5.67032e-06)
(0 -0 -5.38911e-06)
(0 -0 -5.1033e-06)
(0 -0 -4.81295e-06)
(0 -0 -4.519e-06)
(0 -0 -4.22283e-06)
(0 -0 -3.92553e-06)
(0 -0 -3.62758e-06)
(0 -0 -3.32867e-06)
(0 -0 -3.028e-06)
(0 -0 -2.72472e-06)
(0 -0 -2.41861e-06)
(0 -0 -2.11054e-06)
(0 -0 -1.80295e-06)
(0 -0 -1.50016e-06)
(0 -0 -1.20829e-06)
(0 -0 -9.34527e-07)
(0 -0 -6.85675e-07)
(0 -0 -4.65714e-07)
(0 -0 -2.72886e-07)
(0 -0 -9.13069e-08)
(0 -0 -5.36883e-07)
(0 -0 -1.27718e-06)
(0 -0 -1.64084e-06)
(0 -0 -1.95996e-06)
(0 -0 -2.22482e-06)
(0 -0 -2.44448e-06)
(0 -0 -2.63276e-06)
(0 -0 -2.80579e-06)
(0 -0 -2.97867e-06)
(0 -0 -3.16283e-06)
(0 -0 -3.3649e-06)
(0 -0 -3.58668e-06)
(0 -0 -3.82647e-06)
(0 -0 -4.08054e-06)
(0 -0 -4.34469e-06)
(0 -0 -4.61523e-06)
(0 -0 -4.8893e-06)
(0 -0 -5.16502e-06)
(0 -0 -5.44117e-06)
(0 -0 -5.71674e-06)
(0 -0 -5.99132e-06)
(0 -0 -6.26484e-06)
(0 -0 -6.53749e-06)
(0 -0 -6.80998e-06)
(0 -0 -7.08312e-06)
(0 -0 -7.35739e-06)
(0 -0 -7.63285e-06)
(0 -0 -7.909e-06)
(0 -0 -8.18486e-06)
(0 -0 -8.45969e-06)
(0 -0 -8.73323e-06)
(0 -0 -9.00566e-06)
(0 -0 -9.2776e-06)
(0 -0 -9.54947e-06)
(0 -0 -9.82056e-06)
(0 -0 -1.0089e-05)
(0 -0 -1.0352e-05)
(0 -0 -1.06069e-05)
(0 -0 -1.08522e-05)
(0 -0 -1.10887e-05)
(0 -0 -1.13201e-05)
(0 -0 -1.15524e-05)
(0 -0 -1.17931e-05)
(0 -0 -1.2049e-05)
(0 -0 -1.23245e-05)
(0 -0 -1.26209e-05)
(0 -0 -1.29361e-05)
(0 -0 -1.32647e-05)
(0 -0 -1.35989e-05)
(0 -0 -1.39299e-05)
(0 -0 -1.42487e-05)
(0 -0 -1.45474e-05)
(0 -0 -1.48203e-05)
(0 -0 -1.50652e-05)
(0 -0 -1.52842e-05)
(0 -0 -1.54838e-05)
(0 -0 -1.56742e-05)
(0 -0 -1.58678e-05)
(0 -0 -1.60764e-05)
(0 -0 -1.63082e-05)
(0 -0 -1.65658e-05)
(0 -0 -1.6845e-05)
(0 -0 -1.71362e-05)
(0 -0 -1.7427e-05)
(0 -0 -1.77061e-05)
(0 -0 -1.79667e-05)
(0 -0 -1.82085e-05)
(0 -0 -1.84373e-05)
(0 -0 -1.86624e-05)
(0 -0 -1.88935e-05)
(0 -0 -1.91371e-05)
(0 -0 -1.93935e-05)
(0 -0 -1.96568e-05)
(0 -0 -1.99166e-05)
(0 -0 -2.01613e-05)
(0 -0 -2.03826e-05)
(0 -0 -2.05773e-05)
(0 -0 -2.07493e-05)
(0 -0 -2.09084e-05)
(0 -0 -2.10685e-05)
(0 -0 -2.12435e-05)
(0 -0 -2.14442e-05)
(0 -0 -2.16765e-05)
(0 -0 -2.19392e-05)
(0 -0 -2.22252e-05)
(0 -0 -2.25223e-05)
(0 -0 -2.28159e-05)
(0 -0 -2.30917e-05)
(0 -0 -2.33381e-05)
(0 -0 -2.3549e-05)
(0 -0 -2.37246e-05)
(0 -0 -2.38717e-05)
(0 -0 -2.40019e-05)
(0 -0 -2.41282e-05)
(0 -0 -2.42621e-05)
(0 -0 -2.44104e-05)
(0 -0 -2.4574e-05)
(0 -0 -2.47484e-05)
(0 -0 -2.49258e-05)
(0 -0 -2.50982e-05)
(0 -0 -2.52601e-05)
(0 -0 -2.541e-05)
(0 -0 -2.55489e-05)
(0 -0 -2.5679e-05)
(0 -0 -2.58006e-05)
(0 -0 -2.59113e-05)
(0 -0 -2.60065e-05)
(0 -0 -2.60815e-05)
(0 -0 -2.61353e-05)
(0 -0 -2.61718e-05)
(0 -0 -2.62009e-05)
(0 -0 -2.62356e-05)
(0 -0 -2.6289e-05)
(0 -0 -2.63697e-05)
(0 -0 -2.64803e-05)
(0 -0 -2.66159e-05)
(0 -0 -2.6766e-05)
(0 -0 -2.69171e-05)
(0 -0 -2.70561e-05)
(0 -0 -2.71736e-05)
(0 -0 -2.72654e-05)
(0 -0 -2.7333e-05)
(0 -0 -2.73821e-05)
(0 -0 -2.74199e-05)
(0 -0 -2.74529e-05)
(0 -0 -2.74845e-05)
(0 -0 -2.75147e-05)
(0 -0 -2.75412e-05)
(0 -0 -2.75608e-05)
(0 -0 -2.75725e-05)
(0 -0 -2.75783e-05)
(0 -0 -2.7583e-05)
(0 -0 -2.75918e-05)
(0 -0 -2.76081e-05)
(0 -0 -2.76305e-05)
(0 -0 -2.76525e-05)
(0 -0 -2.76644e-05)
(0 -0 -2.7657e-05)
(0 -0 -2.76256e-05)
(0 -0 -2.75716e-05)
(0 -0 -2.75035e-05)
(0 -0 -2.74335e-05)
(0 -0 -2.73744e-05)
(0 -0 -2.73355e-05)
(0 -0 -2.732e-05)
(0 -0 -2.73241e-05)
(0 -0 -2.73381e-05)
(0 -0 -2.7349e-05)
(0 -0 -2.73434e-05)
(0 -0 -2.73119e-05)
(0 -0 -2.72511e-05)
(0 -0 -2.71655e-05)
(0 -0 -2.70656e-05)
(0 -0 -2.69628e-05)
(0 -0 -2.6864e-05)
(0 -0 -2.67663e-05)
(0 -0 -2.66565e-05)
(0 -0 -2.6517e-05)
(0 -0 -2.63348e-05)
(0 -0 -2.61105e-05)
(0 -0 -2.58613e-05)
(0 -0 -2.56171e-05)
(0 -0 -2.54095e-05)
(0 -0 -2.526e-05)
(0 -0 -2.51724e-05)
(0 -0 -2.51322e-05)
(0 -0 -2.51124e-05)
(0 -0 -2.50836e-05)
(0 -0 -2.50232e-05)
(0 -0 -2.49205e-05)
(0 -0 -2.4778e-05)
(0 -0 -2.46076e-05)
(0 -0 -2.44261e-05)
(0 -0 -2.42485e-05)
(0 -0 -2.40847e-05)
(0 -0 -2.39359e-05)
(0 -0 -2.37963e-05)
(0 -0 -2.36564e-05)
(0 -0 -2.35073e-05)
(0 -0 -2.33446e-05)
(0 -0 -2.31684e-05)
(0 -0 -2.29823e-05)
(0 -0 -2.27894e-05)
(0 -0 -2.25908e-05)