/*--------------------------------*- C++ -*----------------------------------*\
| =========                 |                                                 |
| \\      /  F ield         | OpenFOAM: The Open Source CFD Toolbox           |
|  \\    /   O peration     | Version:  v2012                                 |
|   \\  /    A nd           | Website:  www.openfoam.com                      |
|    \\/     M anipulation  |                                                 |
\*---------------------------------------------------------------------------*/
FoamFile
{
    version     2.0;
    format      ascii;
    class       volVectorField;
    location    "0";
    object      uRec;
}
// * * * * * * * * * * * * * * * * * * * * * * * * * * * * * * * * * * * * * //

dimensions      [0 1 -1 0 0 0 0];


internalField   nonuniform List<vector> 
4000
(
(1 4.9898e-15 0)
(1 -2.55025e-16 0)
(1 5.35677e-16 0)
(1 -2.09445e-15 0)
(1 -8.87017e-16 0)
(1 -9.35861e-16 0)
(1 1.46887e-15 0)
(1 1.33822e-15 0)
(1 7.68254e-15 0)
(1 -3.01124e-15 0)
(1 -7.47206e-15 0)
(1 -9.38988e-16 0)
(1 2.77563e-15 0)
(1 2.32107e-15 0)
(1 -3.81751e-15 0)
(1 1.68207e-15 0)
(1 -8.87803e-16 0)
(1 -1.54468e-15 0)
(1 3.1718e-15 0)
(1 2.47356e-15 0)
(1 3.71563e-16 0)
(1 2.33524e-15 0)
(1 -3.42293e-15 0)
(1 2.44579e-15 0)
(1 -2.62081e-15 0)
(1 5.864e-16 0)
(1 -1.74136e-15 0)
(1 -3.38482e-15 0)
(1 -1.56533e-15 0)
(1 -9.61504e-16 0)
(1 2.6966e-15 0)
(1 3.03334e-15 0)
(1 -1.02922e-15 0)
(1 -1.72167e-15 0)
(1 -1.18583e-15 0)
(1 -1.41462e-15 0)
(1 -9.19874e-16 0)
(1 3.46619e-15 0)
(1 1.60832e-15 0)
(1 -2.32527e-15 0)
(1 2.98811e-16 0)
(1 -4.20348e-15 0)
(1 -1.90196e-15 0)
(1 2.5056e-15 0)
(1 1.98143e-15 0)
(1 -2.72942e-15 0)
(1 -7.62826e-16 0)
(1 4.19682e-16 0)
(1 2.01043e-15 0)
(1 4.17932e-17 0)
(1 1.75825e-15 0)
(1 4.2589e-16 0)
(1 4.0328e-15 0)
(1 4.17069e-15 0)
(1 4.43497e-15 0)
(1 6.24008e-15 0)
(1 1.42787e-16 0)
(1 -1.24174e-15 0)
(1 -3.94161e-15 0)
(1 -7.75721e-16 0)
(1 -3.6256e-15 0)
(1 -1.71172e-15 0)
(1 -1.32127e-15 0)
(1 2.42454e-15 0)
(1 -1.27885e-15 0)
(1 2.42535e-16 0)
(1 -1.25644e-15 0)
(1 3.08801e-16 0)
(1 1.18481e-15 0)
(1 -2.21205e-15 0)
(1 -6.50982e-16 0)
(1 9.44269e-16 0)
(1 -4.00179e-15 0)
(1 -3.79337e-15 0)
(1 -3.06883e-15 0)
(1 -2.78141e-15 0)
(1 -7.87383e-16 0)
(1 -2.00772e-15 0)
(1 -3.47139e-16 0)
(1 2.02763e-15 0)
(1 1.40932e-16 0)
(1 2.86522e-15 0)
(1 -2.4073e-15 0)
(1 -2.68708e-15 0)
(1 -4.1904e-15 0)
(1 -2.16094e-15 0)
(1 3.91649e-15 0)
(1 4.163e-15 0)
(1 -2.39863e-16 0)
(1 3.68282e-15 0)
(1 1.62346e-15 0)
(1 9.00226e-16 0)
(1 2.09057e-15 0)
(1 2.07448e-15 0)
(1 -1.21536e-15 0)
(1 8.71094e-16 0)
(1 1.4927e-15 0)
(1 9.99143e-16 0)
(1 -1.93259e-15 0)
(1 -2.40259e-15 0)
(1 2.88266e-15 0)
(1 3.959e-15 0)
(1 5.39677e-16 0)
(1 -2.73708e-15 0)
(1 -4.26116e-15 0)
(1 -2.81806e-18 0)
(1 8.29276e-16 0)
(1 1.90327e-15 0)
(1 8.50546e-15 0)
(1 1.76787e-15 0)
(1 -3.80192e-15 0)
(1 -3.94882e-15 0)
(1 -1.41052e-15 0)
(1 -4.55406e-15 0)
(1 -5.61096e-15 0)
(1 6.48497e-15 0)
(1 2.84621e-15 0)
(1 5.7195e-16 0)
(1 2.56764e-15 0)
(1 2.30505e-15 0)
(1 1.82431e-15 0)
(1 6.78359e-16 0)
(1 -3.41377e-15 0)
(1 3.35101e-15 0)
(1 -4.31672e-15 0)
(1 -9.00151e-16 0)
(1 -1.85807e-15 0)
(1 -7.04657e-15 0)
(1 -1.96283e-15 0)
(1 9.89781e-18 0)
(1 -7.03354e-16 0)
(1 1.13745e-15 0)
(1 -2.08043e-15 0)
(1 -1.1591e-15 0)
(1 2.03781e-15 0)
(1 -1.23922e-15 0)
(1 6.15364e-16 0)
(1 4.818e-15 0)
(1 -3.42324e-15 0)
(1 -5.0715e-15 0)
(1 -5.70121e-15 0)
(1 -4.11088e-15 0)
(1 -1.36963e-15 0)
(1 3.32276e-15 0)
(1 1.48732e-15 0)
(1 -1.68071e-15 0)
(1 9.35457e-16 0)
(1 2.69064e-15 0)
(1 4.23481e-15 0)
(1 2.54107e-15 0)
(1 2.57917e-15 0)
(1 -2.34593e-15 0)
(1 2.9699e-15 0)
(1 1.7912e-15 0)
(1 3.44169e-15 0)
(1 1.0263e-15 0)
(1 -1.94002e-16 0)
(1 1.42636e-16 0)
(1 -1.64376e-16 0)
(1 -5.00868e-15 0)
(1 1.57437e-16 0)
(1 1.84997e-16 0)
(1 5.47931e-16 0)
(1 2.44047e-15 0)
(1 -2.65596e-15 0)
(1 1.57105e-16 0)
(1 -4.03792e-15 0)
(1 -2.18742e-15 0)
(1 2.81458e-15 0)
(1 -1.61698e-15 0)
(1 -2.70036e-16 0)
(1 4.02343e-16 0)
(1 1.73817e-15 0)
(1 -8.44328e-16 0)
(1 3.70832e-16 0)
(1 -1.07035e-16 0)
(1 8.77084e-16 0)
(1 1.6521e-16 0)
(1 5.54729e-16 0)
(1 6.68443e-15 0)
(1 1.6991e-15 0)
(1 4.91685e-16 0)
(1 -2.14167e-15 0)
(1 -4.93222e-15 0)
(1 -5.28857e-15 0)
(1 -2.42316e-15 0)
(1 7.80495e-16 0)
(1 3.19004e-15 0)
(1 -1.18092e-15 0)
(1 3.16651e-15 0)
(1 -1.30519e-16 0)
(1 -2.0967e-15 0)
(1 2.48073e-15 0)
(1 3.98159e-15 0)
(1 -4.11333e-15 0)
(1 1.57542e-15 0)
(1 2.01787e-15 0)
(1 -5.42066e-16 0)
(1 -2.56686e-15 0)
(1 -3.86802e-15 0)
(1 -4.04009e-15 0)
(1 8.37155e-15 0)
(1 -6.19923e-15 0)
(1 4.33399e-15 0)
(1 -5.52849e-15 0)
(1 1.07815e-15 0)
(1 1.1216e-15 0)
(1 7.06577e-15 0)
(1 -2.35128e-16 0)
(1 4.28093e-16 0)
(1 -4.90209e-17 0)
(1 1.03344e-15 0)
(1 1.70668e-15 0)
(1 -1.82993e-15 0)
(1 1.01525e-16 0)
(1 -7.18095e-16 0)
(1 1.43968e-15 0)
(1 3.57096e-15 0)
(1 -3.63644e-15 0)
(1 1.04475e-15 0)
(1 -3.6428e-16 0)
(1 -5.07661e-15 0)
(1 4.24512e-16 0)
(1 2.75602e-15 0)
(1 7.49677e-15 0)
(1 1.54094e-15 0)
(1 2.87413e-15 0)
(1 -7.69544e-15 0)
(1 -2.33584e-15 0)
(1 -1.57784e-15 0)
(1 -2.91514e-15 0)
(1 -5.25773e-15 0)
(1 -2.31275e-15 0)
(1 2.40606e-17 0)
(1 1.42293e-15 0)
(1 3.20857e-15 0)
(1 -2.23166e-16 0)
(1 3.65755e-15 0)
(1 2.33366e-15 0)
(1 -6.0963e-15 0)
(1 -4.51796e-15 0)
(1 -5.0446e-15 0)
(1 1.35356e-16 0)
(1 -2.25057e-15 0)
(1 4.87533e-17 0)
(1 -8.90806e-16 0)
(1 4.22639e-15 0)
(1 4.50863e-15 0)
(1 5.48445e-15 0)
(1 1.97387e-15 0)
(1 5.81617e-15 0)
(1 4.49144e-16 0)
(1 3.07329e-15 0)
(1 -8.66989e-16 0)
(1 1.34836e-15 0)
(1 -1.38436e-15 0)
(1 1.92222e-15 0)
(1 3.47601e-15 0)
(1 6.62357e-15 0)
(1 -1.91385e-15 0)
(1 -1.39393e-15 0)
(1 -1.4257e-15 0)
(1 3.83222e-17 0)
(1 -2.29442e-15 0)
(1 -3.89425e-15 0)
(1 -1.80147e-15 0)
(1 -2.24005e-15 0)
(1 -3.34624e-16 0)
(1 3.18116e-15 0)
(1 9.94951e-16 0)
(1 8.54291e-16 0)
(1 -3.5314e-15 0)
(1 -9.59977e-16 0)
(1 -3.72188e-15 0)
(1 -5.85048e-16 0)
(1 -3.60187e-15 0)
(1 -4.8303e-17 0)
(1 -3.58894e-15 0)
(1 1.62833e-15 0)
(1 -6.8762e-16 0)
(1 -6.73795e-16 0)
(1 -1.34301e-15 0)
(1 -2.86963e-16 0)
(1 -1.63642e-15 0)
(1 -3.57e-15 0)
(1 7.69379e-16 0)
(1 -2.37405e-15 0)
(1 2.12319e-15 0)
(1 -6.72029e-16 0)
(1 3.03699e-15 0)
(1 -1.12243e-15 0)
(1 6.78013e-16 0)
(1 -1.82761e-15 0)
(1 3.04418e-15 0)
(1 -9.60849e-16 0)
(1 3.04488e-15 0)
(1 1.28365e-15 0)
(1 -3.20447e-15 0)
(1 -1.41597e-15 0)
(1 -3.36891e-15 0)
(1 -6.80872e-16 0)
(1 1.94223e-16 0)
(1 -3.90307e-15 0)
(1 -3.31609e-15 0)
(1 2.9614e-15 0)
(1 2.57784e-15 0)
(1 5.12738e-15 0)
(1 4.46703e-15 0)
(1 2.08119e-15 0)
(1 -3.85093e-15 0)
(1 -5.01033e-15 0)
(1 -1.89724e-16 0)
(1 -2.37944e-15 0)
(1 7.33279e-15 0)
(1 7.79505e-15 0)
(1 -3.13445e-15 0)
(1 1.19596e-15 0)
(1 7.6455e-17 0)
(1 -2.33864e-15 0)
(1 4.77416e-15 0)
(1 -5.34152e-16 0)
(1 -3.07711e-16 0)
(1 -1.67313e-15 0)
(1 2.49432e-15 0)
(1 1.10325e-14 0)
(1 6.03286e-15 0)
(1 6.34509e-15 0)
(1 -2.09405e-15 0)
(1 7.76988e-16 0)
(1 -3.39368e-15 0)
(1 -2.14617e-15 0)
(1 -5.74057e-15 0)
(1 -5.03502e-15 0)
(1 -6.38755e-15 0)
(1 -4.87205e-15 0)
(1 -2.80641e-15 0)
(1 -1.63427e-16 0)
(1 -9.9926e-16 0)
(1 5.60988e-15 0)
(1 -4.23626e-15 0)
(1 2.4178e-15 0)
(1 -4.25134e-15 0)
(1 -2.40918e-15 0)
(1 -1.24871e-15 0)
(1 1.4305e-15 0)
(1 2.01512e-15 0)
(1 2.72803e-15 0)
(1 4.69857e-15 0)
(1 4.43774e-15 0)
(1 1.69371e-15 0)
(1 5.46713e-15 0)
(1 4.78889e-15 0)
(1 4.15293e-15 0)
(1 3.80251e-15 0)
(1 3.63778e-15 0)
(1 3.31007e-15 0)
(1 3.21791e-15 0)
(1 3.25139e-15 0)
(1 5.8805e-15 0)
(1 3.93233e-15 0)
(1 -4.06997e-16 0)
(1 -7.95e-15 0)
(1 -4.37293e-15 0)
(1 -3.50286e-15 0)
(1 -2.27166e-15 0)
(1 -9.55404e-17 0)
(1 -2.05449e-16 0)
(1 1.65552e-15 0)
(1 -1.10483e-15 0)
(1 -3.35001e-15 0)
(1 -2.14285e-15 0)
(1 -6.71215e-15 0)
(1 -5.88072e-15 0)
(1 -6.28232e-15 0)
(1 -4.7423e-15 0)
(1 1.34724e-15 0)
(1 3.01673e-15 0)
(1 6.81242e-16 0)
(1 3.4713e-15 0)
(1 -2.43353e-15 0)
(1 -4.40582e-15 0)
(1 -8.06245e-16 0)
(1 -2.57569e-15 0)
(1 -2.27504e-15 0)
(1 -1.57871e-15 0)
(1 -1.12677e-15 0)
(1 4.87687e-15 0)
(1 2.26062e-15 0)
(1 2.67988e-15 0)
(1 3.11913e-15 0)
(1 -3.38353e-16 0)
(1 3.52411e-15 0)
(1 -2.36454e-17 0)
(1 2.48364e-15 0)
(1 1.01198e-15 0)
(1 1.88746e-16 0)
(1 2.8593e-16 0)
(1 -6.30047e-16 0)
(1 -7.06168e-15 0)
(1 -5.21153e-15 0)
(1 3.87576e-15 0)
(1 -4.07636e-15 0)
(1 6.677e-15 0)
(1 -4.91778e-15 0)
(1 4.87398e-15 0)
(1 6.4471e-16 0)
(1 -2.68191e-15 0)
(1 -5.42948e-15 0)
(1 1.82462e-15 0)
(1 2.67919e-15 0)
(1 4.33778e-15 0)
(1 6.14504e-15 0)
(1 -4.993e-16 0)
(1 -1.33116e-15 0)
(1 1.25139e-15 0)
(1 3.95931e-16 0)
(1 4.25089e-15 0)
(1 3.88364e-16 0)
(1 -2.05725e-15 0)
(1 -3.0095e-15 0)
(1 -5.99796e-16 0)
(1 3.38916e-15 0)
(1 2.06555e-15 0)
(1 2.43963e-15 0)
(1 -2.69422e-15 0)
(1 -9.68905e-16 0)
(1 -3.61261e-15 0)
(1 2.81484e-15 0)
(1 5.71464e-16 0)
(1 -1.63862e-15 0)
(1 -4.73508e-15 0)
(1 -4.1332e-16 0)
(1 -7.55665e-15 0)
(1 3.63646e-15 0)
(1 -4.64632e-15 0)
(1 -5.0543e-15 0)
(1 -1.78138e-16 0)
(1 -4.0567e-15 0)
(1 5.22944e-16 0)
(1 4.19497e-16 0)
(1 7.4504e-16 0)
(1 -3.52853e-15 0)
(1 -6.76254e-15 0)
(1 -3.11898e-15 0)
(1 -3.86917e-15 0)
(1 5.4565e-15 0)
(1 1.96158e-15 0)
(1 8.33379e-15 0)
(1 5.3151e-15 0)
(1 3.80997e-15 0)
(1 5.21406e-16 0)
(1 1.19605e-15 0)
(1 -1.13735e-17 0)
(1 3.0585e-15 0)
(1 1.66272e-15 0)
(1 -9.00933e-16 0)
(1 1.13423e-15 0)
(1 2.88733e-16 0)
(1 8.94267e-16 0)
(1 3.83404e-15 0)
(1 5.61996e-15 0)
(1 -1.55364e-15 0)
(1 -9.37357e-17 0)
(1 -1.84316e-15 0)
(1 4.71212e-15 0)
(1 5.07683e-15 0)
(1 4.78235e-15 0)
(1 1.76563e-15 0)
(1 -4.64765e-15 0)
(1 -8.47591e-16 0)
(1 -5.91494e-15 0)
(1 -4.0296e-15 0)
(1 1.17995e-15 0)
(1 -1.13432e-15 0)
(1 -3.13775e-15 0)
(1 -6.79891e-16 0)
(1 -1.36825e-15 0)
(1 8.53506e-16 0)
(1 -8.99632e-16 0)
(1 5.41623e-16 0)
(1 -3.80293e-15 0)
(1 -4.26657e-15 0)
(1 -4.56832e-15 0)
(1 -4.207e-15 0)
(1 2.73547e-15 0)
(1 -1.08923e-15 0)
(1 4.20046e-15 0)
(1 8.26853e-16 0)
(1 3.62307e-15 0)
(1 2.67799e-16 0)
(1 2.66597e-15 0)
(1 9.07048e-18 0)
(1 4.85589e-15 0)
(1 2.59429e-15 0)
(1 5.50175e-15 0)
(1 -4.95168e-16 0)
(1 -1.20548e-15 0)
(1 -1.83354e-18 0)
(1 -3.48741e-15 0)
(1 6.02545e-16 0)
(1 7.42409e-17 0)
(1 -9.61912e-16 0)
(1 8.31313e-15 0)
(1 3.60346e-15 0)
(1 -2.12908e-16 0)
(1 -5.61725e-15 0)
(1 -5.04077e-15 0)
(1 3.45342e-16 0)
(1 -3.50667e-15 0)
(1 1.71802e-15 0)
(1 4.3857e-15 0)
(1 9.99267e-15 0)
(1 6.01698e-15 0)
(1 -2.25064e-15 0)
(1 -5.2643e-16 0)
(1 4.74223e-16 0)
(1 -1.0581e-15 0)
(1 -2.72503e-15 0)
(1 -6.88982e-15 0)
(1 -9.72187e-15 0)
(1 -1.50688e-15 0)
(1 6.52294e-15 0)
(1 1.50428e-14 0)
(1 6.92543e-15 0)
(1 7.96308e-16 0)
(1 -2.23206e-16 0)
(1 -3.38738e-15 0)
(1 5.34204e-16 0)
(1 -9.07117e-15 0)
(1 -3.92409e-15 0)
(1 -7.43924e-15 0)
(1 3.62465e-16 0)
(1 -3.11112e-15 0)
(1 7.18901e-15 0)
(1 -2.65119e-15 0)
(1 9.18864e-16 0)
(1 1.95686e-15 0)
(1 1.20988e-15 0)
(1 -3.15627e-15 0)
(1 -1.41488e-15 0)
(1 -3.71221e-15 0)
(1 2.09622e-16 0)
(1 -4.77867e-15 0)
(1 -5.23843e-15 0)
(1 1.46987e-15 0)
(1 3.89271e-15 0)
(1 3.95474e-15 0)
(1 6.24149e-15 0)
(1 6.87229e-15 0)
(1 3.57941e-15 0)
(1 -6.72707e-16 0)
(1 1.51863e-15 0)
(1 4.56986e-15 0)
(1 4.12354e-15 0)
(1 -3.48539e-16 0)
(1 8.50586e-16 0)
(1 3.10283e-15 0)
(1 4.5566e-15 0)
(1 1.24755e-15 0)
(1 8.9732e-15 0)
(1 6.87359e-16 0)
(1 1.58562e-16 0)
(1 -4.24022e-15 0)
(1 -1.70867e-15 0)
(1 3.46791e-15 0)
(1 5.47958e-15 0)
(1 8.11313e-15 0)
(1 4.22565e-15 0)
(1 2.65774e-15 0)
(1 1.81599e-15 0)
(1 3.41177e-15 0)
(1 2.98617e-15 0)
(1 2.09157e-15 0)
(1 -2.45052e-15 0)
(1 -3.05213e-15 0)
(1 -5.07843e-15 0)
(1 -2.39401e-15 0)
(1 -1.12065e-15 0)
(1 -4.69361e-15 0)
(1 -2.87362e-15 0)
(1 -2.99404e-15 0)
(1 -1.00683e-16 0)
(1 -3.16985e-15 0)
(1 9.68783e-16 0)
(1 -4.16375e-15 0)
(1 -5.53236e-15 0)
(1 -4.40007e-15 0)
(1 -4.09236e-15 0)
(1 -1.09925e-15 0)
(1 -7.20882e-17 0)
(1 2.60085e-15 0)
(1 2.25244e-15 0)
(1 5.47902e-15 0)
(1 5.89666e-15 0)
(1 9.43163e-15 0)
(1 6.02159e-15 0)
(1 2.69716e-15 0)
(1 -1.59255e-15 0)
(1 4.99049e-15 0)
(1 5.52945e-15 0)
(1 -2.99714e-16 0)
(1 -6.64962e-16 0)
(1 7.97526e-15 0)
(1 -4.71784e-16 0)
(1 1.60133e-15 0)
(1 -4.40429e-15 0)
(1 4.46626e-15 0)
(1 1.0483e-14 0)
(1 -8.06372e-16 0)
(1 2.7883e-15 0)
(1 -4.69702e-15 0)
(1 2.34688e-15 0)
(1 -3.36068e-15 0)
(1 5.68951e-15 0)
(1 -1.39257e-15 0)
(1 4.39519e-15 0)
(1 -1.90092e-15 0)
(1 -4.66058e-15 0)
(1 -4.06302e-15 0)
(1 6.41494e-16 0)
(1 1.71274e-15 0)
(1 -1.51266e-15 0)
(1 1.46523e-15 0)
(1 -7.88666e-15 0)
(1 4.73073e-15 0)
(1 -2.15588e-15 0)
(1 3.65906e-15 0)
(1 -1.72468e-15 0)
(1 -1.80648e-15 0)
(1 -1.13998e-15 0)
(1 -1.37857e-15 0)
(1 -9.14944e-16 0)
(1 4.19775e-15 0)
(1 -3.58188e-15 0)
(1 -3.15635e-15 0)
(1 4.27843e-16 0)
(1 -2.26827e-15 0)
(1 2.20706e-15 0)
(1 -5.58572e-15 0)
(1 3.79719e-15 0)
(1 -5.24414e-16 0)
(1 4.39586e-15 0)
(1 2.28494e-16 0)
(1 -6.94707e-16 0)
(1 1.22046e-15 0)
(1 2.97119e-15 0)
(1 4.53104e-15 0)
(1 -4.64503e-16 0)
(1 2.67751e-15 0)
(1 -2.36643e-16 0)
(1 -6.43663e-16 0)
(1 -1.1947e-16 0)
(1 3.49524e-15 0)
(1 1.8523e-15 0)
(1 2.1226e-16 0)
(1 9.18159e-16 0)
(1 4.44652e-15 0)
(1 5.32169e-15 0)
(1 4.60267e-15 0)
(1 4.94707e-15 0)
(1 1.12908e-15 0)
(1 3.35312e-15 0)
(1 -8.9969e-19 0)
(1 1.01786e-15 0)
(1 -1.44559e-15 0)
(1 -2.20639e-15 0)
(1 4.72273e-17 0)
(1 4.11294e-15 0)
(1 4.58499e-15 0)
(1 8.77966e-16 0)
(1 6.05167e-15 0)
(1 2.30727e-15 0)
(1 -3.30265e-15 0)
(1 -3.33395e-15 0)
(1 -2.69451e-15 0)
(1 4.79354e-15 0)
(1 -2.72711e-16 0)
(1 4.10707e-15 0)
(1 -1.66901e-15 0)
(1 -3.9927e-15 0)
(1 -2.01116e-15 0)
(1 -1.31501e-15 0)
(1 -7.94943e-16 0)
(1 -6.48468e-16 0)
(1 -1.90047e-15 0)
(1 2.53069e-15 0)
(1 4.87982e-17 0)
(1 2.7844e-15 0)
(1 1.13788e-16 0)
(1 6.93449e-17 0)
(1 9.71981e-17 0)
(1 4.5265e-15 0)
(1 6.24991e-15 0)
(1 6.67982e-15 0)
(1 3.36394e-15 0)
(1 8.41277e-15 0)
(1 6.33907e-15 0)
(1 4.66805e-15 0)
(1 5.32048e-15 0)
(1 3.75364e-15 0)
(1 1.41393e-15 0)
(1 -1.96779e-15 0)
(1 -5.11649e-15 0)
(1 -1.17434e-15 0)
(1 2.81841e-15 0)
(1 3.90949e-15 0)
(1 1.62777e-15 0)
(1 5.36716e-15 0)
(1 7.0726e-15 0)
(1 7.65374e-15 0)
(1 3.36256e-16 0)
(1 -3.20578e-15 0)
(1 -1.19778e-15 0)
(1 4.4587e-15 0)
(1 -1.85171e-16 0)
(1 5.79066e-15 0)
(1 2.32916e-15 0)
(1 7.48784e-15 0)
(1 -2.25296e-16 0)
(1 2.29873e-15 0)
(1 -1.06819e-15 0)
(1 -8.19102e-15 0)
(1 -4.71695e-15 0)
(1 -1.37661e-14 0)
(1 -1.28437e-14 0)
(1 -1.43284e-14 0)
(1 -4.30226e-15 0)
(1 -2.91944e-15 0)
(1 1.05146e-14 0)
(1 9.43996e-15 0)
(1 1.09392e-14 0)
(1 -8.40904e-16 0)
(1 2.60553e-16 0)
(1 -8.16905e-15 0)
(1 -4.95442e-15 0)
(1 -2.53323e-15 0)
(1 -4.62741e-15 0)
(1 1.02737e-16 0)
(1 4.69307e-15 0)
(1 1.01092e-14 0)
(1 1.15883e-15 0)
(1 -4.60247e-15 0)
(1 -5.85042e-15 0)
(1 -7.63935e-15 0)
(1 -4.36374e-15 0)
(1 4.44865e-15 0)
(1 8.83674e-15 0)
(1 3.66416e-15 0)
(1 1.86683e-15 0)
(1 1.80039e-15 0)
(1 5.97781e-15 0)
(1 7.96462e-16 0)
(1 -1.3122e-15 0)
(1 4.46996e-15 0)
(1 9.39354e-15 0)
(1 9.59253e-15 0)
(1 2.58453e-15 0)
(1 1.7539e-15 0)
(1 -1.75383e-16 0)
(1 -4.0743e-15 0)
(1 -4.26659e-15 0)
(1 6.88214e-15 0)
(1 9.89101e-15 0)
(1 1.11932e-14 0)
(1 1.66948e-15 0)
(1 -7.29755e-16 0)
(1 3.27498e-15 0)
(1 2.02547e-15 0)
(1 3.46296e-15 0)
(1 3.59481e-15 0)
(1 2.99808e-15 0)
(1 7.6521e-16 0)
(1 9.64265e-16 0)
(1 -2.45744e-15 0)
(1 5.54295e-16 0)
(1 1.86046e-15 0)
(1 -2.31789e-15 0)
(1 -3.33984e-15 0)
(1 -5.45699e-15 0)
(1 -6.21814e-15 0)
(1 -4.62763e-16 0)
(1 -3.60473e-15 0)
(1 -5.96349e-16 0)
(1 -2.84843e-15 0)
(1 -1.5928e-15 0)
(1 1.75783e-15 0)
(1 1.88941e-15 0)
(1 1.48337e-15 0)
(1 1.59791e-15 0)
(1 -2.93808e-15 0)
(1 -2.4057e-16 0)
(1 3.49897e-15 0)
(1 6.71429e-15 0)
(1 7.39558e-15 0)
(1 6.23663e-15 0)
(1 8.32167e-15 0)
(1 4.09568e-15 0)
(1 6.23692e-15 0)
(1 7.70981e-15 0)
(1 9.16163e-15 0)
(1 -1.20847e-15 0)
(1 -3.89044e-15 0)
(1 -8.01144e-15 0)
(1 4.1166e-16 0)
(1 -3.15709e-16 0)
(1 1.06893e-14 0)
(1 1.6514e-15 0)
(1 1.48671e-15 0)
(1 5.41797e-15 0)
(1 -4.14594e-15 0)
(1 3.20514e-16 0)
(1 -4.09872e-15 0)
(1 3.0565e-15 0)
(1 5.44966e-15 0)
(1 4.34063e-15 0)
(1 3.59497e-15 0)
(1 -2.7679e-15 0)
(1 3.61335e-15 0)
(1 1.88169e-16 0)
(1 -3.23537e-15 0)
(1 -7.68438e-15 0)
(1 -4.42085e-15 0)
(1 1.07844e-15 0)
(1 3.35414e-15 0)
(1 -4.14632e-15 0)
(1 -5.27595e-15 0)
(1 -3.29127e-15 0)
(1 -1.85469e-15 0)
(1 3.05248e-15 0)
(1 3.00081e-15 0)
(1 4.22865e-15 0)
(1 -5.57308e-15 0)
(1 -7.7862e-15 0)
(1 -8.91203e-15 0)
(1 -4.99297e-15 0)
(1 2.30797e-16 0)
(1 7.96156e-16 0)
(1 4.70199e-15 0)
(1 2.65923e-15 0)
(1 1.45694e-15 0)
(1 -5.08817e-15 0)
(1 -5.90742e-15 0)
(1 -3.10689e-15 0)
(1 -2.57292e-15 0)
(1 6.76261e-15 0)
(1 -5.4276e-17 0)
(1 6.75859e-15 0)
(1 1.69433e-15 0)
(1 -1.76631e-15 0)
(1 3.63137e-15 0)
(1 4.28085e-15 0)
(1 7.51149e-15 0)
(1 2.33662e-15 0)
(1 9.30996e-15 0)
(1 1.21812e-14 0)
(1 9.17986e-15 0)
(1 5.89042e-15 0)
(1 -3.89486e-15 0)
(1 5.30249e-15 0)
(1 -5.32997e-16 0)
(1 2.92172e-15 0)
(1 -1.77687e-15 0)
(1 3.62032e-15 0)
(1 5.80705e-15 0)
(1 -5.8783e-15 0)
(1 -4.9829e-16 0)
(1 8.50982e-16 0)
(1 4.19762e-15 0)
(1 1.39904e-14 0)
(1 9.4719e-15 0)
(1 1.09133e-14 0)
(1 4.10542e-15 0)
(1 6.1938e-15 0)
(1 -1.96561e-16 0)
(1 1.46506e-15 0)
(1 7.38856e-16 0)
(1 -9.74797e-16 0)
(1 9.80952e-16 0)
(1 1.98732e-15 0)
(1 2.35408e-16 0)
(1 1.30965e-15 0)
(1 -1.40468e-15 0)
(1 -3.31562e-15 0)
(1 -3.24312e-15 0)
(1 -6.77289e-15 0)
(1 -5.3367e-15 0)
(1 -5.17207e-15 0)
(1 -3.36173e-15 0)
(1 -6.2695e-16 0)
(1 -6.80835e-16 0)
(1 -1.34836e-15 0)
(1 3.78586e-15 0)
(1 5.32341e-15 0)
(1 1.00517e-14 0)
(1 1.09094e-14 0)
(1 1.16137e-14 0)
(1 1.14217e-14 0)
(1 1.14874e-14 0)
(1 1.4475e-14 0)
(1 1.59108e-14 0)
(1 -5.92483e-16 0)
(1 3.65118e-16 0)
(1 4.93418e-15 0)
(1 -1.22883e-15 0)
(1 9.09826e-16 0)
(1 -5.60018e-15 0)
(1 3.51465e-15 0)
(1 2.51933e-16 0)
(1 4.14165e-15 0)
(1 -3.12293e-15 0)
(1 -8.01996e-16 0)
(1 5.30614e-15 0)
(1 4.56108e-15 0)
(1 5.69076e-15 0)
(1 1.6961e-15 0)
(1 -1.29957e-15 0)
(1 -6.61461e-15 0)
(1 9.1592e-16 0)
(1 3.26938e-15 0)
(1 6.24374e-15 0)
(1 -4.12317e-15 0)
(1 -9.48129e-15 0)
(1 -1.61263e-14 0)
(1 1.28084e-15 0)
(1 1.14322e-15 0)
(1 4.60233e-15 0)
(1 -2.18362e-15 0)
(1 5.67014e-15 0)
(1 -3.99769e-16 0)
(1 -1.12287e-15 0)
(1 -4.84509e-15 0)
(1 2.36581e-15 0)
(1 -1.92717e-15 0)
(1 1.50332e-16 0)
(1 -1.38605e-15 0)
(1 -2.11987e-15 0)
(1 -4.79574e-15 0)
(1 1.11534e-15 0)
(1 -5.43321e-15 0)
(1 -7.5323e-15 0)
(1 -2.31063e-15 0)
(1 1.26319e-15 0)
(1 5.26868e-15 0)
(1 2.46128e-15 0)
(1 5.09075e-15 0)
(1 -4.15204e-15 0)
(1 -3.75226e-16 0)
(1 2.35939e-15 0)
(1 -1.9187e-15 0)
(1 4.46174e-15 0)
(1 -2.46354e-15 0)
(1 -2.81019e-16 0)
(1 7.53958e-15 0)
(1 6.52638e-15 0)
(1 1.04851e-14 0)
(1 9.29012e-15 0)
(1 4.62646e-15 0)
(1 -3.41393e-15 0)
(1 3.09046e-15 0)
(1 6.41767e-15 0)
(1 8.32509e-15 0)
(1 3.9898e-15 0)
(1 1.36025e-15 0)
(1 -1.42397e-16 0)
(1 1.64444e-15 0)
(1 1.80198e-15 0)
(1 6.10384e-15 0)
(1 8.12321e-15 0)
(1 1.46579e-14 0)
(1 1.22421e-14 0)
(1 7.84489e-15 0)
(1 1.07234e-15 0)
(1 9.98472e-16 0)
(1 7.22381e-16 0)
(1 1.71634e-15 0)
(1 -9.21447e-16 0)
(1 1.64063e-15 0)
(1 -4.76069e-16 0)
(1 2.87553e-15 0)
(1 -1.7018e-15 0)
(1 2.86898e-16 0)
(1 -2.77367e-15 0)
(1 -3.61537e-15 0)
(1 -3.16466e-15 0)
(1 -5.87629e-15 0)
(1 -1.93322e-16 0)
(1 1.19799e-15 0)
(1 2.99579e-15 0)
(1 -5.06672e-16 0)
(1 -8.48164e-16 0)
(1 3.98269e-15 0)
(1 2.50622e-15 0)
(1 4.08484e-15 0)
(1 4.51284e-15 0)
(1 1.43687e-14 0)
(1 6.74901e-15 0)
(1 1.12827e-14 0)
(1 1.08218e-14 0)
(1 1.72464e-14 0)
(1 1.78178e-14 0)
(1 -5.97391e-16 0)
(1 8.84633e-16 0)
(1 2.00382e-15 0)
(1 -5.44317e-16 0)
(1 -4.71034e-15 0)
(1 -8.27418e-15 0)
(1 1.10289e-15 0)
(1 -3.98542e-15 0)
(1 4.47653e-15 0)
(1 1.09756e-14 0)
(1 5.54928e-15 0)
(1 -1.3097e-16 0)
(1 -9.58132e-16 0)
(1 -9.22497e-16 0)
(1 -1.03551e-15 0)
(1 -2.13159e-15 0)
(1 4.50749e-15 0)
(1 5.00458e-15 0)
(1 5.17794e-15 0)
(1 2.23816e-15 0)
(1 -6.58035e-15 0)
(1 -9.85777e-15 0)
(1 -1.62498e-14 0)
(1 -4.76835e-15 0)
(1 -7.60637e-15 0)
(1 6.074e-15 0)
(1 2.56535e-15 0)
(1 6.1464e-15 0)
(1 -1.56828e-15 0)
(1 -2.83543e-15 0)
(1 -7.72827e-15 0)
(1 6.80478e-16 0)
(1 -5.95934e-16 0)
(1 8.29862e-16 0)
(1 -3.04832e-15 0)
(1 -6.5605e-15 0)
(1 -3.89651e-16 0)
(1 -5.14071e-15 0)
(1 -6.58848e-15 0)
(1 -7.66464e-15 0)
(1 -8.54352e-16 0)
(1 3.36276e-15 0)
(1 4.94935e-15 0)
(1 1.43999e-15 0)
(1 1.88595e-15 0)
(1 6.4326e-16 0)
(1 2.11096e-15 0)
(1 2.82703e-15 0)
(1 5.70826e-15 0)
(1 2.22496e-15 0)
(1 6.84461e-15 0)
(1 5.24575e-15 0)
(1 9.12063e-15 0)
(1 8.15185e-15 0)
(1 6.28648e-15 0)
(1 3.42008e-15 0)
(1 1.51178e-15 0)
(1 1.22042e-15 0)
(1 1.2134e-15 0)
(1 1.94297e-15 0)
(1 5.41554e-15 0)
(1 6.76211e-15 0)
(1 2.18622e-15 0)
(1 3.90103e-15 0)
(1 8.83068e-15 0)
(1 5.04325e-15 0)
(1 3.25667e-15 0)
(1 3.37944e-15 0)
(1 -4.73604e-15 0)
(1 4.15485e-15 0)
(1 4.20143e-15 0)
(1 1.20723e-14 0)
(1 5.86586e-15 0)
(1 9.3724e-17 0)
(1 -1.28099e-16 0)
(1 -5.06361e-15 0)
(1 7.14939e-15 0)
(1 -3.52477e-16 0)
(1 -1.00173e-15 0)
(1 5.86558e-15 0)
(1 3.31772e-15 0)
(1 2.96188e-15 0)
(1 3.77558e-15 0)
(1 -2.24865e-15 0)
(1 -4.35541e-15 0)
(1 -6.40823e-15 0)
(1 -8.78682e-16 0)
(1 -5.70046e-15 0)
(1 -3.39572e-15 0)
(1 -3.54128e-15 0)
(1 9.88115e-15 0)
(1 2.73823e-16 0)
(1 5.36535e-15 0)
(1 3.95449e-15 0)
(1 1.10016e-14 0)
(1 7.43828e-15 0)
(1 8.11036e-15 0)
(1 8.72497e-15 0)
(1 1.26536e-14 0)
(1 1.32542e-14 0)
(1 -4.28435e-16 0)
(1 8.90843e-16 0)
(1 -1.4951e-15 0)
(1 3.43831e-15 0)
(1 -5.97297e-15 0)
(1 5.26618e-15 0)
(1 -4.24175e-15 0)
(1 1.48044e-15 0)
(1 -2.74579e-15 0)
(1 2.28867e-15 0)
(1 4.99784e-15 0)
(1 -9.39567e-16 0)
(1 1.56193e-15 0)
(1 1.38805e-15 0)
(1 6.53007e-15 0)
(1 -4.7155e-15 0)
(1 5.60771e-16 0)
(1 -8.45579e-15 0)
(1 4.74104e-15 0)
(1 -1.05143e-14 0)
(1 -4.09659e-15 0)
(1 5.00935e-16 0)
(1 4.43303e-15 0)
(1 -1.90983e-15 0)
(1 3.97745e-15 0)
(1 8.58802e-16 0)
(1 4.84264e-15 0)
(1 2.90417e-15 0)
(1 9.51184e-16 0)
(1 -5.23466e-15 0)
(1 -4.46218e-15 0)
(1 -5.53739e-15 0)
(1 -6.43251e-15 0)
(1 -5.87063e-15 0)
(1 -5.2988e-15 0)
(1 -4.29724e-15 0)
(1 -1.64206e-15 0)
(1 -3.61692e-15 0)
(1 -1.24246e-15 0)
(1 -3.09727e-16 0)
(1 3.60331e-15 0)
(1 4.90647e-15 0)
(1 4.79123e-17 0)
(1 7.30492e-15 0)
(1 -4.96651e-16 0)
(1 -8.3624e-16 0)
(1 1.43279e-15 0)
(1 -3.61898e-15 0)
(1 9.31675e-15 0)
(1 4.00643e-15 0)
(1 7.23305e-15 0)
(1 5.80052e-15 0)
(1 3.75511e-15 0)
(1 3.83533e-15 0)
(1 2.66034e-15 0)
(1 -9.18155e-15 0)
(1 -2.24397e-15 0)
(1 1.2184e-15 0)
(1 6.7858e-15 0)
(1 2.66397e-15 0)
(1 1.03252e-14 0)
(1 7.74084e-15 0)
(1 1.08441e-14 0)
(1 5.48606e-15 0)
(1 1.02607e-14 0)
(1 6.43344e-15 0)
(1 -6.89959e-16 0)
(1 1.83625e-15 0)
(1 -2.52927e-15 0)
(1 -1.60372e-16 0)
(1 8.0292e-15 0)
(1 9.41594e-15 0)
(1 -4.76383e-16 0)
(1 -2.08357e-15 0)
(1 -1.81502e-15 0)
(1 -5.14594e-15 0)
(1 -7.13821e-16 0)
(1 -1.49526e-15 0)
(1 -1.70502e-15 0)
(1 9.56803e-15 0)
(1 3.54571e-15 0)
(1 5.1214e-15 0)
(1 5.75495e-15 0)
(1 -1.66025e-15 0)
(1 1.98277e-15 0)
(1 -4.57685e-15 0)
(1 -4.196e-15 0)
(1 -5.2088e-15 0)
(1 8.6718e-17 0)
(1 5.0595e-15 0)
(1 3.99676e-15 0)
(1 -7.51976e-16 0)
(1 2.4897e-15 0)
(1 4.91551e-15 0)
(1 5.78173e-15 0)
(1 1.0842e-14 0)
(1 1.12061e-14 0)
(1 1.21362e-14 0)
(1 8.11918e-15 0)
(1 6.25008e-15 0)
(1 1.29072e-16 0)
(1 2.12781e-15 0)
(1 -4.46119e-15 0)
(1 -4.38094e-15 0)
(1 2.62754e-16 0)
(1 -3.92054e-15 0)
(1 -4.30708e-15 0)
(1 2.9706e-15 0)
(1 -2.15005e-15 0)
(1 3.27006e-15 0)
(1 4.0771e-15 0)
(1 3.46148e-15 0)
(1 -3.77905e-16 0)
(1 -2.09851e-15 0)
(1 -2.98056e-16 0)
(1 -3.4191e-15 0)
(1 -2.64104e-15 0)
(1 5.59895e-15 0)
(1 1.12585e-14 0)
(1 6.42006e-15 0)
(1 5.73637e-15 0)
(1 -1.2001e-16 0)
(1 -1.25712e-14 0)
(1 -1.57734e-14 0)
(1 -4.78212e-15 0)
(1 -2.01173e-15 0)
(1 -7.75584e-16 0)
(1 -1.05404e-15 0)
(1 4.94339e-15 0)
(1 -9.67741e-16 0)
(1 -5.6766e-15 0)
(1 -9.0329e-15 0)
(1 -8.46141e-15 0)
(1 -9.49326e-15 0)
(1 3.09678e-15 0)
(1 -2.48851e-15 0)
(1 -3.76369e-17 0)
(1 -5.60843e-15 0)
(1 -1.77526e-16 0)
(1 4.35463e-15 0)
(1 8.29258e-15 0)
(1 3.28086e-15 0)
(1 -3.98228e-15 0)
(1 3.15757e-15 0)
(1 -1.65579e-15 0)
(1 6.72559e-15 0)
(1 4.63151e-15 0)
(1 7.11572e-15 0)
(1 4.24401e-15 0)
(1 5.98078e-15 0)
(1 4.24051e-15 0)
(1 2.56145e-15 0)
(1 3.18411e-15 0)
(1 3.86829e-15 0)
(1 8.99988e-16 0)
(1 5.82208e-15 0)
(1 -4.88602e-16 0)
(1 3.44141e-15 0)
(1 -6.21366e-15 0)
(1 -1.19396e-15 0)
(1 -5.92208e-15 0)
(1 1.11347e-15 0)
(1 4.17456e-15 0)
(1 7.5326e-15 0)
(1 1.29309e-14 0)
(1 1.23896e-14 0)
(1 1.01991e-14 0)
(1 4.71531e-15 0)
(1 3.40573e-15 0)
(1 -1.78143e-15 0)
(1 -8.52584e-15 0)
(1 -4.78273e-15 0)
(1 1.88865e-15 0)
(1 6.2491e-15 0)
(1 2.86871e-15 0)
(1 2.35345e-15 0)
(1 -6.45982e-15 0)
(1 -1.66692e-15 0)
(1 1.20721e-15 0)
(1 -1.46879e-15 0)
(1 -7.23626e-16 0)
(1 1.3792e-15 0)
(1 1.31454e-15 0)
(1 2.21233e-15 0)
(1 2.81977e-15 0)
(1 2.00138e-15 0)
(1 -1.64184e-17 0)
(1 3.56038e-15 0)
(1 4.62012e-15 0)
(1 5.04933e-15 0)
(1 -1.23578e-15 0)
(1 1.55455e-15 0)
(1 -2.65427e-16 0)
(1 1.67743e-15 0)
(1 2.4989e-15 0)
(1 5.93863e-15 0)
(1 5.56752e-15 0)
(1 6.31141e-15 0)
(1 3.67729e-15 0)
(1 2.28844e-15 0)
(1 6.47994e-16 0)
(1 4.57004e-16 0)
(1 -1.58155e-15 0)
(1 -4.60471e-15 0)
(1 -1.36552e-15 0)
(1 -4.16089e-15 0)
(1 -1.32966e-15 0)
(1 -1.79559e-15 0)
(1 5.5515e-15 0)
(1 1.04325e-14 0)
(1 4.97886e-15 0)
(1 5.53977e-16 0)
(1 -6.54449e-15 0)
(1 -7.67042e-15 0)
(1 -5.43762e-15 0)
(1 8.29358e-15 0)
(1 1.57554e-15 0)
(1 5.38783e-15 0)
(1 -9.54039e-15 0)
(1 2.04719e-15 0)
(1 -3.41923e-15 0)
(1 7.45209e-15 0)
(1 -8.10927e-15 0)
(1 -1.6741e-15 0)
(1 -6.67374e-15 0)
(1 5.95045e-15 0)
(1 2.36837e-15 0)
(1 -1.24916e-15 0)
(1 3.43848e-15 0)
(1 -2.16504e-15 0)
(1 -4.17508e-15 0)
(1 -1.6174e-14 0)
(1 -1.02776e-14 0)
(1 -1.01303e-14 0)
(1 -4.68048e-15 0)
(1 2.8391e-15 0)
(1 6.67067e-15 0)
(1 -1.5981e-15 0)
(1 2.35424e-15 0)
(1 -2.97991e-15 0)
(1 -1.17361e-15 0)
(1 -8.43742e-17 0)
(1 8.48947e-15 0)
(1 2.31618e-15 0)
(1 7.41977e-15 0)
(1 1.05421e-14 0)
(1 2.52328e-15 0)
(1 9.13695e-15 0)
(1 -2.33747e-15 0)
(1 -8.16854e-16 0)
(1 -8.17762e-15 0)
(1 -2.79621e-15 0)
(1 1.88687e-15 0)
(1 9.93669e-15 0)
(1 8.50328e-16 0)
(1 1.42323e-14 0)
(1 5.54667e-15 0)
(1 4.65374e-15 0)
(1 -3.24711e-15 0)
(1 4.21313e-15 0)
(1 -1.43389e-15 0)
(1 -1.31903e-16 0)
(1 -7.30109e-16 0)
(1 9.93138e-15 0)
(1 1.99148e-15 0)
(1 9.08257e-15 0)
(1 1.06733e-14 0)
(1 7.26748e-15 0)
(1 2.07089e-15 0)
(1 9.09356e-16 0)
(1 -8.05395e-15 0)
(1 5.55091e-15 0)
(1 3.59552e-15 0)
(1 7.62771e-15 0)
(1 1.02763e-15 0)
(1 5.82056e-15 0)
(1 -5.10185e-16 0)
(1 5.73566e-15 0)
(1 2.94251e-15 0)
(1 -4.94059e-15 0)
(1 1.21005e-15 0)
(1 -4.56581e-16 0)
(1 -4.3421e-15 0)
(1 1.74238e-15 0)
(1 1.31627e-15 0)
(1 3.52336e-15 0)
(1 1.42153e-16 0)
(1 4.23179e-15 0)
(1 2.61074e-15 0)
(1 3.06598e-15 0)
(1 3.74772e-15 0)
(1 4.23711e-15 0)
(1 -1.54739e-17 0)
(1 3.22937e-15 0)
(1 4.51818e-16 0)
(1 6.73463e-15 0)
(1 4.2468e-15 0)
(1 8.01839e-15 0)
(1 3.12154e-15 0)
(1 1.96962e-15 0)
(1 -5.3656e-16 0)
(1 1.40437e-15 0)
(1 -2.83288e-15 0)
(1 -3.58113e-15 0)
(1 -3.28477e-15 0)
(1 1.55342e-15 0)
(1 -2.4558e-15 0)
(1 -4.6986e-15 0)
(1 3.88612e-15 0)
(1 -3.17279e-15 0)
(1 8.09784e-15 0)
(1 3.81856e-15 0)
(1 5.45478e-15 0)
(1 -5.06292e-15 0)
(1 -8.57668e-16 0)
(1 3.73632e-15 0)
(1 -2.4707e-15 0)
(1 -5.52575e-15 0)
(1 -1.06335e-14 0)
(1 2.00541e-15 0)
(1 3.43261e-15 0)
(1 1.93836e-15 0)
(1 5.24011e-15 0)
(1 9.31125e-16 0)
(1 -4.14944e-15 0)
(1 -6.28847e-15 0)
(1 -2.84692e-15 0)
(1 -2.3563e-15 0)
(1 -2.06373e-15 0)
(1 -4.91635e-15 0)
(1 -4.15e-15 0)
(1 -4.53089e-15 0)
(1 -1.64541e-15 0)
(1 -1.05732e-15 0)
(1 -2.22219e-15 0)
(1 3.413e-15 0)
(1 -2.36889e-15 0)
(1 -2.90139e-16 0)
(1 1.99298e-15 0)
(1 -5.59614e-15 0)
(1 -7.83156e-15 0)
(1 -1.95284e-16 0)
(1 9.38054e-15 0)
(1 3.18725e-15 0)
(1 6.08708e-15 0)
(1 3.00849e-15 0)
(1 -6.82253e-16 0)
(1 -3.0495e-16 0)
(1 -4.82955e-15 0)
(1 -1.33378e-15 0)
(1 -1.47397e-15 0)
(1 4.94513e-15 0)
(1 8.15146e-15 0)
(1 1.2396e-14 0)
(1 1.26056e-14 0)
(1 8.23892e-15 0)
(1 5.46211e-15 0)
(1 6.44917e-15 0)
(1 2.7668e-15 0)
(1 -3.22246e-16 0)
(1 3.3652e-15 0)
(1 3.1913e-16 0)
(1 6.83471e-15 0)
(1 2.18726e-15 0)
(1 7.63082e-15 0)
(1 7.22243e-15 0)
(1 1.03761e-14 0)
(1 6.2146e-15 0)
(1 9.71984e-15 0)
(1 6.71826e-15 0)
(1 9.48866e-15 0)
(1 9.37059e-16 0)
(1 -3.50802e-15 0)
(1 9.98313e-16 0)
(1 -4.77936e-16 0)
(1 2.78613e-15 0)
(1 1.87161e-15 0)
(1 4.33604e-15 0)
(1 -1.76196e-16 0)
(1 -3.82031e-15 0)
(1 2.19659e-15 0)
(1 -1.68831e-16 0)
(1 -4.14021e-15 0)
(1 -4.32461e-16 0)
(1 6.02012e-16 0)
(1 2.65747e-15 0)
(1 1.96899e-16 0)
(1 4.17872e-15 0)
(1 7.00416e-16 0)
(1 -3.44054e-16 0)
(1 1.07136e-15 0)
(1 -5.61573e-16 0)
(1 2.86995e-15 0)
(1 4.0646e-15 0)
(1 3.35673e-15 0)
(1 1.64888e-15 0)
(1 -1.3081e-15 0)
(1 6.26021e-15 0)
(1 8.23928e-15 0)
(1 7.76083e-15 0)
(1 -1.49223e-15 0)
(1 -5.51333e-16 0)
(1 -1.47459e-15 0)
(1 -2.83144e-15 0)
(1 6.56965e-15 0)
(1 5.29368e-15 0)
(1 7.9372e-15 0)
(1 3.65442e-15 0)
(1 2.79416e-16 0)
(1 -9.15053e-15 0)
(1 -2.84513e-15 0)
(1 -5.24389e-15 0)
(1 3.56921e-15 0)
(1 -1.63353e-15 0)
(1 -4.40554e-15 0)
(1 -7.84691e-15 0)
(1 -4.17386e-15 0)
(1 3.91828e-15 0)
(1 6.86159e-15 0)
(1 -4.49642e-15 0)
(1 -2.94755e-15 0)
(1 -1.07854e-14 0)
(1 7.85634e-15 0)
(1 -1.45966e-16 0)
(1 -1.27974e-16 0)
(1 -6.21133e-15 0)
(1 -2.55304e-15 0)
(1 -4.19454e-15 0)
(1 -1.11095e-14 0)
(1 -6.12693e-15 0)
(1 -8.59206e-15 0)
(1 2.08137e-15 0)
(1 -2.71328e-15 0)
(1 6.1941e-16 0)
(1 -1.4632e-15 0)
(1 -1.61317e-15 0)
(1 -4.10132e-15 0)
(1 -2.15121e-15 0)
(1 -1.69877e-15 0)
(1 1.76093e-15 0)
(1 -2.17279e-15 0)
(1 -1.26626e-15 0)
(1 2.65619e-15 0)
(1 1.06401e-14 0)
(1 8.58839e-15 0)
(1 5.21344e-15 0)
(1 4.0672e-15 0)
(1 -1.62853e-15 0)
(1 -6.08089e-15 0)
(1 -9.14839e-15 0)
(1 8.07014e-15 0)
(1 1.31937e-14 0)
(1 1.13336e-14 0)
(1 6.12015e-15 0)
(1 1.06327e-14 0)
(1 3.35181e-15 0)
(1 1.92856e-15 0)
(1 3.32899e-15 0)
(1 1.44615e-15 0)
(1 -5.83684e-15 0)
(1 -1.87426e-15 0)
(1 4.15337e-15 0)
(1 2.32474e-15 0)
(1 3.6932e-16 0)
(1 8.24593e-15 0)
(1 -2.64648e-16 0)
(1 6.8213e-16 0)
(1 1.46525e-15 0)
(1 6.4561e-15 0)
(1 5.07564e-15 0)
(1 5.35539e-15 0)
(1 -1.97183e-15 0)
(1 1.59311e-15 0)
(1 4.61514e-15 0)
(1 1.72975e-15 0)
(1 3.03647e-15 0)
(1 7.81976e-16 0)
(1 3.86047e-15 0)
(1 -5.76876e-17 0)
(1 4.37637e-15 0)
(1 -3.20204e-15 0)
(1 -5.88291e-16 0)
(1 1.27276e-15 0)
(1 2.70518e-15 0)
(1 2.92707e-15 0)
(1 1.11027e-15 0)
(1 5.06246e-16 0)
(1 3.15975e-15 0)
(1 1.49525e-15 0)