/*--------------------------------*- C++ -*----------------------------------*\
| =========                 |                                                 |
| \\      /  F ield         | OpenFOAM: The Open Source CFD Toolbox           |
|  \\    /   O peration     | Version:  v2012                                 |
|   \\  /    A nd           | Website:  www.openfoam.com                      |
|    \\/     M anipulation  |                                                 |
\*---------------------------------------------------------------------------*/
FoamFile
{
    version     2.0;
    format      ascii;
    class       volVectorField;
    location    "0";
    object      uRec;
}
// * * * * * * * * * * * * * * * * * * * * * * * * * * * * * * * * * * * * * //

dimensions      [0 1 -1 0 0 0 0];


internalField   nonuniform List<vector> 
4000
(
(1 4.50145e-15 0)
(1 1.36023e-16 0)
(1 -1.26471e-15 0)
(1 7.80788e-16 0)
(1 -1.69729e-16 0)
(1 -1.19973e-16 0)
(1 3.77504e-15 0)
(1 -3.97969e-15 0)
(1 9.24455e-15 0)
(1 -1.9326e-15 0)
(1 -8.21428e-15 0)
(1 1.05554e-16 0)
(1 1.96211e-15 0)
(1 1.91126e-15 0)
(1 -3.34649e-15 0)
(1 2.41546e-15 0)
(1 -2.21538e-15 0)
(1 -2.51847e-15 0)
(1 4.84799e-15 0)
(1 3.63719e-15 0)
(1 -1.67906e-15 0)
(1 4.14445e-15 0)
(1 -3.33307e-15 0)
(1 5.35537e-15 0)
(1 -1.46758e-15 0)
(1 -2.40722e-17 0)
(1 1.55235e-15 0)
(1 -5.60954e-15 0)
(1 -1.22548e-15 0)
(1 -3.7318e-15 0)
(1 3.6993e-15 0)
(1 4.63472e-15 0)
(1 -3.09527e-15 0)
(1 -3.03296e-15 0)
(1 -6.31783e-16 0)
(1 -2.99452e-15 0)
(1 -2.56102e-15 0)
(1 3.51292e-15 0)
(1 3.50557e-15 0)
(1 -2.41574e-15 0)
(1 2.95896e-15 0)
(1 -4.60218e-15 0)
(1 -1.5102e-15 0)
(1 2.94124e-15 0)
(1 1.68144e-15 0)
(1 -4.26457e-15 0)
(1 1.69937e-16 0)
(1 -5.39798e-16 0)
(1 2.11739e-15 0)
(1 -1.01252e-15 0)
(1 -3.98786e-16 0)
(1 1.11225e-15 0)
(1 2.42615e-15 0)
(1 6.86626e-15 0)
(1 3.02012e-15 0)
(1 5.90992e-15 0)
(1 5.89864e-16 0)
(1 -5.16128e-16 0)
(1 -2.0679e-15 0)
(1 -3.8221e-16 0)
(1 -4.06025e-15 0)
(1 -4.18319e-15 0)
(1 -1.84297e-15 0)
(1 3.51022e-15 0)
(1 1.341e-15 0)
(1 -1.61469e-16 0)
(1 -1.51557e-15 0)
(1 -2.53924e-15 0)
(1 1.51644e-15 0)
(1 -2.56815e-15 0)
(1 -7.04519e-16 0)
(1 1.61934e-15 0)
(1 -2.13861e-15 0)
(1 -4.1416e-15 0)
(1 -4.51722e-15 0)
(1 -3.83043e-15 0)
(1 -4.16192e-16 0)
(1 -1.65047e-16 0)
(1 8.44495e-16 0)
(1 3.14141e-15 0)
(1 8.21581e-16 0)
(1 2.99951e-15 0)
(1 -2.67092e-15 0)
(1 -1.64748e-15 0)
(1 -4.42869e-15 0)
(1 -4.44498e-15 0)
(1 2.00684e-15 0)
(1 3.87909e-15 0)
(1 7.90549e-16 0)
(1 2.24908e-15 0)
(1 6.96829e-16 0)
(1 -9.34029e-16 0)
(1 2.84904e-15 0)
(1 3.4081e-15 0)
(1 -1.06013e-15 0)
(1 -1.85735e-15 0)
(1 1.16692e-15 0)
(1 1.73347e-15 0)
(1 -9.13438e-16 0)
(1 -1.16907e-15 0)
(1 2.99355e-15 0)
(1 4.78718e-15 0)
(1 -1.22121e-15 0)
(1 -1.18086e-15 0)
(1 -5.75338e-15 0)
(1 8.53086e-16 0)
(1 3.03884e-15 0)
(1 -3.38496e-15 0)
(1 9.21361e-15 0)
(1 2.54997e-15 0)
(1 -2.97436e-15 0)
(1 -3.72022e-15 0)
(1 -1.36387e-15 0)
(1 -4.6354e-15 0)
(1 -6.99946e-15 0)
(1 7.03835e-15 0)
(1 1.543e-16 0)
(1 -8.26501e-16 0)
(1 4.20644e-15 0)
(1 2.03331e-15 0)
(1 -1.25075e-15 0)
(1 1.02902e-15 0)
(1 -4.77796e-15 0)
(1 4.37116e-15 0)
(1 -1.63791e-15 0)
(1 9.95254e-16 0)
(1 4.53241e-15 0)
(1 -1.02001e-14 0)
(1 -1.48698e-15 0)
(1 -1.10945e-15 0)
(1 5.34794e-16 0)
(1 2.17317e-15 0)
(1 -5.18596e-15 0)
(1 -2.88494e-15 0)
(1 2.82793e-15 0)
(1 -3.50043e-15 0)
(1 1.63628e-16 0)
(1 6.41041e-15 0)
(1 -1.88408e-15 0)
(1 -5.73724e-15 0)
(1 -5.03716e-15 0)
(1 -5.57136e-15 0)
(1 -1.95847e-15 0)
(1 1.07288e-15 0)
(1 4.32164e-16 0)
(1 -4.05561e-15 0)
(1 4.59186e-15 0)
(1 5.00284e-15 0)
(1 7.40989e-15 0)
(1 8.88219e-16 0)
(1 1.39042e-15 0)
(1 -3.96612e-15 0)
(1 1.79627e-15 0)
(1 2.84248e-15 0)
(1 3.3599e-15 0)
(1 3.01755e-16 0)
(1 2.91256e-15 0)
(1 1.80708e-15 0)
(1 1.84214e-15 0)
(1 -5.38308e-15 0)
(1 5.32363e-16 0)
(1 8.07353e-17 0)
(1 -2.32205e-15 0)
(1 1.95102e-15 0)
(1 -1.93377e-15 0)
(1 6.32959e-16 0)
(1 -6.3478e-15 0)
(1 -5.82081e-15 0)
(1 2.85482e-15 0)
(1 -1.81753e-15 0)
(1 -1.79675e-15 0)
(1 1.31399e-15 0)
(1 2.76374e-15 0)
(1 -1.67897e-15 0)
(1 -1.31241e-15 0)
(1 -9.82036e-16 0)
(1 2.4272e-15 0)
(1 2.59878e-15 0)
(1 4.45817e-16 0)
(1 6.67847e-15 0)
(1 3.33131e-15 0)
(1 1.98732e-16 0)
(1 8.02241e-17 0)
(1 -4.49078e-15 0)
(1 -4.15934e-15 0)
(1 -6.18097e-15 0)
(1 -5.85941e-16 0)
(1 2.06903e-15 0)
(1 5.42926e-16 0)
(1 2.97644e-15 0)
(1 3.19886e-16 0)
(1 -2.99074e-15 0)
(1 3.89006e-15 0)
(1 4.36045e-15 0)
(1 -6.06272e-15 0)
(1 -1.93616e-15 0)
(1 2.34516e-15 0)
(1 -2.15102e-15 0)
(1 -2.39091e-15 0)
(1 -2.27646e-15 0)
(1 -3.64396e-15 0)
(1 9.56649e-15 0)
(1 -5.887e-15 0)
(1 1.8901e-15 0)
(1 -3.09535e-15 0)
(1 1.30603e-15 0)
(1 4.04769e-15 0)
(1 9.65734e-15 0)
(1 -4.42553e-15 0)
(1 -2.42586e-15 0)
(1 4.663e-16 0)
(1 2.03594e-15 0)
(1 1.55492e-15 0)
(1 -3.15542e-15 0)
(1 -7.92099e-16 0)
(1 1.86133e-15 0)
(1 2.73326e-15 0)
(1 6.80446e-15 0)
(1 -5.47253e-15 0)
(1 -1.6228e-15 0)
(1 -1.89485e-15 0)
(1 -9.25453e-15 0)
(1 -3.28604e-15 0)
(1 -9.90144e-17 0)
(1 1.25868e-14 0)
(1 6.56821e-15 0)
(1 8.29709e-15 0)
(1 -7.38999e-15 0)
(1 -2.20069e-15 0)
(1 1.19761e-16 0)
(1 -3.07446e-15 0)
(1 -6.80028e-15 0)
(1 -2.78152e-15 0)
(1 -2.57234e-15 0)
(1 -1.91247e-15 0)
(1 3.7734e-17 0)
(1 -1.64997e-15 0)
(1 6.06938e-15 0)
(1 5.11902e-15 0)
(1 -8.22128e-15 0)
(1 -4.96727e-15 0)
(1 -5.65652e-15 0)
(1 -1.78344e-15 0)
(1 -4.29351e-15 0)
(1 -9.6744e-16 0)
(1 -4.52912e-15 0)
(1 2.2134e-15 0)
(1 7.11569e-15 0)
(1 8.65339e-15 0)
(1 3.27712e-15 0)
(1 7.60988e-15 0)
(1 -1.21784e-15 0)
(1 2.99457e-15 0)
(1 -3.7611e-15 0)
(1 3.20131e-15 0)
(1 -1.4057e-15 0)
(1 4.0124e-15 0)
(1 3.77496e-15 0)
(1 9.37346e-15 0)
(1 -9.18162e-16 0)
(1 -1.40648e-15 0)
(1 1.39381e-15 0)
(1 -1.34015e-15 0)
(1 -5.46838e-15 0)
(1 -5.69726e-15 0)
(1 -2.75534e-15 0)
(1 -4.9321e-15 0)
(1 -1.32599e-15 0)
(1 4.2906e-15 0)
(1 1.19825e-15 0)
(1 1.78642e-15 0)
(1 -2.61351e-15 0)
(1 -2.23057e-15 0)
(1 -5.09196e-15 0)
(1 -2.55855e-16 0)
(1 -2.91124e-15 0)
(1 1.58112e-15 0)
(1 -1.60388e-15 0)
(1 8.64183e-16 0)
(1 -1.16209e-15 0)
(1 -2.80014e-15 0)
(1 7.30216e-17 0)
(1 1.013e-15 0)
(1 -2.40945e-15 0)
(1 -3.96584e-15 0)
(1 -1.50031e-15 0)
(1 -3.55248e-15 0)
(1 5.54025e-16 0)
(1 -3.77663e-16 0)
(1 4.52163e-15 0)
(1 6.74476e-16 0)
(1 4.1389e-16 0)
(1 -2.79957e-15 0)
(1 1.69975e-15 0)
(1 -3.5596e-15 0)
(1 2.40538e-15 0)
(1 2.78505e-15 0)
(1 -6.58329e-15 0)
(1 -7.19294e-16 0)
(1 -1.99399e-15 0)
(1 -7.31573e-16 0)
(1 2.97634e-15 0)
(1 -2.77971e-15 0)
(1 -4.76379e-15 0)
(1 5.39902e-15 0)
(1 9.97589e-16 0)
(1 6.62575e-15 0)
(1 5.46086e-15 0)
(1 -9.99571e-16 0)
(1 -5.91727e-15 0)
(1 -6.27433e-15 0)
(1 3.31662e-15 0)
(1 -4.73747e-15 0)
(1 5.10295e-15 0)
(1 9.93527e-15 0)
(1 -3.80933e-15 0)
(1 3.39908e-15 0)
(1 9.13281e-16 0)
(1 -6.8726e-15 0)
(1 5.90286e-15 0)
(1 -4.51451e-15 0)
(1 -2.39135e-15 0)
(1 -4.46179e-15 0)
(1 7.64106e-16 0)
(1 1.39159e-14 0)
(1 6.55028e-15 0)
(1 9.04469e-15 0)
(1 -3.30066e-16 0)
(1 2.44904e-15 0)
(1 2.71855e-16 0)
(1 -1.65511e-15 0)
(1 -3.12646e-15 0)
(1 -3.54571e-15 0)
(1 -5.00131e-15 0)
(1 -7.62153e-15 0)
(1 -6.76264e-15 0)
(1 -4.45388e-15 0)
(1 -3.01874e-15 0)
(1 6.70539e-15 0)
(1 -2.83911e-15 0)
(1 2.47824e-15 0)
(1 -5.38517e-15 0)
(1 -6.18162e-15 0)
(1 -4.41444e-16 0)
(1 2.74444e-16 0)
(1 6.9436e-17 0)
(1 -8.04889e-16 0)
(1 4.6923e-15 0)
(1 4.53254e-15 0)
(1 5.07001e-15 0)
(1 6.38513e-15 0)
(1 3.26714e-15 0)
(1 2.32844e-15 0)
(1 1.64029e-15 0)
(1 4.76074e-15 0)
(1 4.20012e-15 0)
(1 5.83355e-15 0)
(1 6.0951e-15 0)
(1 6.88976e-15 0)
(1 7.26498e-15 0)
(1 1.20826e-15 0)
(1 -9.25201e-15 0)
(1 -6.12727e-15 0)
(1 -4.54597e-15 0)
(1 -5.28737e-15 0)
(1 -2.61593e-15 0)
(1 -2.45182e-15 0)
(1 3.62781e-15 0)
(1 -1.21788e-15 0)
(1 -1.9771e-15 0)
(1 -9.8441e-17 0)
(1 -5.88446e-15 0)
(1 -6.58936e-15 0)
(1 -6.64466e-15 0)
(1 -4.94672e-15 0)
(1 2.14397e-15 0)
(1 5.09097e-15 0)
(1 -8.24219e-16 0)
(1 6.3443e-15 0)
(1 -2.42556e-15 0)
(1 -7.51e-15 0)
(1 1.97422e-15 0)
(1 -3.34591e-15 0)
(1 -1.28895e-15 0)
(1 -2.47639e-15 0)
(1 -4.76364e-15 0)
(1 2.50479e-15 0)
(1 -5.31914e-16 0)
(1 1.52816e-15 0)
(1 2.74941e-15 0)
(1 -1.6298e-15 0)
(1 3.27515e-15 0)
(1 -4.70333e-16 0)
(1 2.18546e-15 0)
(1 1.43695e-15 0)
(1 6.2122e-17 0)
(1 1.19878e-15 0)
(1 1.79565e-15 0)
(1 -6.69152e-15 0)
(1 -5.97674e-15 0)
(1 3.93744e-15 0)
(1 -4.47933e-15 0)
(1 5.95692e-15 0)
(1 -4.59376e-15 0)
(1 2.16059e-15 0)
(1 2.05585e-15 0)
(1 -1.34254e-15 0)
(1 -4.19104e-15 0)
(1 5.53895e-15 0)
(1 3.35848e-15 0)
(1 2.57487e-15 0)
(1 6.65761e-15 0)
(1 -2.41293e-15 0)
(1 -2.26778e-15 0)
(1 1.36258e-15 0)
(1 4.70349e-16 0)
(1 6.83006e-15 0)
(1 9.29274e-16 0)
(1 -2.85402e-15 0)
(1 -5.71156e-15 0)
(1 -3.67731e-15 0)
(1 4.58178e-15 0)
(1 1.53679e-15 0)
(1 5.28664e-15 0)
(1 -5.72404e-15 0)
(1 -2.84893e-15 0)
(1 -3.09251e-15 0)
(1 3.93184e-15 0)
(1 1.06375e-15 0)
(1 -1.9764e-15 0)
(1 -4.92296e-15 0)
(1 1.65649e-15 0)
(1 -8.60347e-15 0)
(1 5.19085e-15 0)
(1 -6.48202e-15 0)
(1 -9.19764e-15 0)
(1 -8.5228e-16 0)
(1 -6.081e-15 0)
(1 9.16778e-16 0)
(1 3.68281e-15 0)
(1 1.45728e-16 0)
(1 -4.90878e-15 0)
(1 -1.01313e-14 0)
(1 -4.04153e-15 0)
(1 -5.22559e-15 0)
(1 7.19529e-15 0)
(1 4.56984e-15 0)
(1 8.51135e-15 0)
(1 4.18412e-15 0)
(1 4.08132e-15 0)
(1 -1.51317e-15 0)
(1 -7.16892e-18 0)
(1 -1.4751e-15 0)
(1 4.02582e-15 0)
(1 3.49972e-15 0)
(1 1.27912e-15 0)
(1 1.87457e-15 0)
(1 1.00746e-15 0)
(1 -1.18014e-15 0)
(1 2.45734e-15 0)
(1 7.28255e-15 0)
(1 -4.16642e-15 0)
(1 -1.07042e-15 0)
(1 -3.03519e-15 0)
(1 7.7925e-16 0)
(1 3.79944e-15 0)
(1 4.30711e-15 0)
(1 4.5044e-15 0)
(1 -6.54488e-15 0)
(1 1.19088e-15 0)
(1 -6.65675e-15 0)
(1 -4.56876e-15 0)
(1 2.77798e-15 0)
(1 -8.27114e-16 0)
(1 -2.32891e-15 0)
(1 6.8565e-16 0)
(1 1.99399e-15 0)
(1 1.10969e-15 0)
(1 1.74412e-15 0)
(1 -3.09734e-15 0)
(1 -4.03074e-15 0)
(1 -6.48317e-15 0)
(1 -4.07862e-15 0)
(1 -5.09752e-15 0)
(1 2.55737e-15 0)
(1 -3.17757e-15 0)
(1 1.90394e-15 0)
(1 -2.07417e-15 0)
(1 -1.2624e-16 0)
(1 -8.02415e-16 0)
(1 1.95016e-16 0)
(1 -8.12702e-17 0)
(1 5.01723e-15 0)
(1 2.5254e-15 0)
(1 6.40465e-15 0)
(1 6.75076e-16 0)
(1 -1.23859e-15 0)
(1 2.8617e-15 0)
(1 -5.82746e-15 0)
(1 -1.57034e-15 0)
(1 4.92939e-16 0)
(1 -5.89914e-15 0)
(1 7.69945e-15 0)
(1 2.70151e-15 0)
(1 5.73182e-16 0)
(1 -2.04403e-15 0)
(1 -4.27999e-15 0)
(1 5.06339e-15 0)
(1 1.07031e-18 0)
(1 4.2087e-15 0)
(1 5.07002e-15 0)
(1 5.60642e-15 0)
(1 2.19854e-15 0)
(1 -2.46808e-15 0)
(1 -4.79565e-16 0)
(1 3.00421e-15 0)
(1 -2.52416e-15 0)
(1 -1.44457e-15 0)
(1 -7.48691e-15 0)
(1 -1.19966e-14 0)
(1 -3.29827e-15 0)
(1 1.42148e-15 0)
(1 1.64627e-14 0)
(1 9.50209e-15 0)
(1 1.856e-15 0)
(1 2.758e-15 0)
(1 7.78697e-17 0)
(1 1.42608e-15 0)
(1 -1.04594e-14 0)
(1 -6.56838e-15 0)
(1 -1.11993e-14 0)
(1 -9.13453e-16 0)
(1 -7.00542e-15 0)
(1 6.43372e-15 0)
(1 -4.77147e-15 0)
(1 -3.85251e-16 0)
(1 2.91316e-15 0)
(1 2.07157e-15 0)
(1 -2.11557e-15 0)
(1 1.47168e-15 0)
(1 -1.29772e-15 0)
(1 4.7357e-16 0)
(1 -7.02848e-15 0)
(1 -1.11784e-14 0)
(1 -1.35562e-15 0)
(1 2.28343e-15 0)
(1 2.44023e-15 0)
(1 6.98191e-15 0)
(1 9.95186e-15 0)
(1 4.27093e-15 0)
(1 -1.8933e-15 0)
(1 1.23984e-15 0)
(1 4.8573e-15 0)
(1 5.01277e-15 0)
(1 -8.63983e-16 0)
(1 1.82445e-15 0)
(1 2.84508e-15 0)
(1 4.85359e-15 0)
(1 3.70637e-15 0)
(1 9.58929e-15 0)
(1 7.22869e-16 0)
(1 -2.10576e-15 0)
(1 -5.05946e-15 0)
(1 -4.58296e-15 0)
(1 2.51135e-15 0)
(1 5.09611e-15 0)
(1 9.69315e-15 0)
(1 3.96067e-15 0)
(1 2.05547e-15 0)
(1 -1.51719e-15 0)
(1 5.72245e-16 0)
(1 6.85221e-16 0)
(1 4.89385e-15 0)
(1 -2.51306e-15 0)
(1 -1.81442e-15 0)
(1 -3.74762e-15 0)
(1 -7.30812e-16 0)
(1 2.02508e-15 0)
(1 -6.44129e-15 0)
(1 -3.71378e-15 0)
(1 -3.0023e-15 0)
(1 -1.21399e-15 0)
(1 -3.80558e-15 0)
(1 -5.63821e-16 0)
(1 -3.16324e-15 0)
(1 -5.62082e-15 0)
(1 -7.2396e-15 0)
(1 -8.5007e-15 0)
(1 -5.00775e-15 0)
(1 -1.75613e-15 0)
(1 1.29222e-15 0)
(1 1.282e-15 0)
(1 4.79871e-15 0)
(1 6.2948e-15 0)
(1 1.01867e-14 0)
(1 8.30209e-15 0)
(1 2.25441e-15 0)
(1 -3.36312e-15 0)
(1 4.98542e-15 0)
(1 5.94263e-15 0)
(1 -2.04054e-16 0)
(1 -1.76456e-15 0)
(1 9.03031e-15 0)
(1 -1.99084e-15 0)
(1 1.30712e-15 0)
(1 -5.97911e-15 0)
(1 1.63849e-16 0)
(1 1.46747e-14 0)
(1 -1.54526e-15 0)
(1 6.65233e-15 0)
(1 -1.25399e-15 0)
(1 -1.63344e-15 0)
(1 -3.66919e-15 0)
(1 4.40938e-15 0)
(1 2.72695e-15 0)
(1 6.59231e-15 0)
(1 5.14694e-16 0)
(1 -6.80592e-15 0)
(1 -4.85387e-15 0)
(1 1.27444e-15 0)
(1 -9.62722e-16 0)
(1 -1.11029e-14 0)
(1 4.62974e-15 0)
(1 -1.17437e-14 0)
(1 8.64512e-15 0)
(1 7.0567e-16 0)
(1 3.3753e-15 0)
(1 4.2525e-16 0)
(1 -1.33156e-15 0)
(1 2.71438e-16 0)
(1 -7.52498e-16 0)
(1 -3.06907e-15 0)
(1 1.69181e-15 0)
(1 -5.68619e-15 0)
(1 -2.82623e-15 0)
(1 2.54029e-15 0)
(1 -3.1586e-15 0)
(1 2.58143e-15 0)
(1 -8.05088e-15 0)
(1 3.85217e-15 0)
(1 -3.38283e-15 0)
(1 7.97457e-16 0)
(1 -1.80809e-15 0)
(1 -3.80227e-15 0)
(1 -7.05777e-16 0)
(1 2.36389e-15 0)
(1 5.85543e-15 0)
(1 1.22058e-15 0)
(1 3.07783e-15 0)
(1 -3.24053e-17 0)
(1 -4.07758e-16 0)
(1 1.28566e-15 0)
(1 4.05181e-15 0)
(1 3.20949e-15 0)
(1 -1.60167e-15 0)
(1 6.01056e-16 0)
(1 3.93996e-15 0)
(1 6.09261e-15 0)
(1 5.12779e-15 0)
(1 6.11131e-15 0)
(1 -1.96423e-15 0)
(1 2.05366e-15 0)
(1 -2.84663e-15 0)
(1 -1.0075e-15 0)
(1 -2.15589e-15 0)
(1 -3.25935e-15 0)
(1 -1.15501e-15 0)
(1 4.06469e-15 0)
(1 4.15327e-15 0)
(1 -1.55568e-15 0)
(1 7.14317e-15 0)
(1 3.49427e-15 0)
(1 -3.15327e-15 0)
(1 -3.92922e-15 0)
(1 -4.27391e-15 0)
(1 5.25338e-15 0)
(1 -1.49201e-15 0)
(1 5.42951e-15 0)
(1 -1.37393e-15 0)
(1 -2.00421e-15 0)
(1 -1.95901e-15 0)
(1 -1.39077e-15 0)
(1 -6.4912e-16 0)
(1 -1.29859e-15 0)
(1 -2.52296e-15 0)
(1 1.46399e-15 0)
(1 -2.81373e-15 0)
(1 -8.0005e-17 0)
(1 -1.5328e-15 0)
(1 -2.0226e-15 0)
(1 -8.63189e-16 0)
(1 3.2781e-15 0)
(1 7.11747e-15 0)
(1 6.76564e-15 0)
(1 2.83637e-15 0)
(1 7.53813e-15 0)
(1 4.22587e-15 0)
(1 2.28435e-15 0)
(1 5.56819e-15 0)
(1 3.66104e-15 0)
(1 -9.94635e-16 0)
(1 8.07395e-16 0)
(1 -5.37072e-15 0)
(1 1.63127e-15 0)
(1 1.34464e-15 0)
(1 2.23816e-15 0)
(1 -1.6978e-15 0)
(1 4.49201e-15 0)
(1 1.00474e-14 0)
(1 1.16315e-14 0)
(1 3.81365e-15 0)
(1 -7.06276e-15 0)
(1 -4.45624e-17 0)
(1 4.64276e-16 0)
(1 2.25653e-15 0)
(1 6.0273e-15 0)
(1 5.14086e-15 0)
(1 7.50102e-15 0)
(1 3.22104e-16 0)
(1 -2.83232e-15 0)
(1 -2.00351e-15 0)
(1 -1.3414e-14 0)
(1 -4.81187e-16 0)
(1 -9.07376e-15 0)
(1 -1.04018e-14 0)
(1 -1.66769e-14 0)
(1 -1.13511e-14 0)
(1 -4.26393e-15 0)
(1 5.91831e-15 0)
(1 1.17703e-14 0)
(1 1.56762e-14 0)
(1 -3.357e-16 0)
(1 2.48244e-15 0)
(1 -1.11987e-14 0)
(1 -6.14303e-15 0)
(1 -1.35166e-15 0)
(1 -3.68656e-15 0)
(1 -8.39885e-16 0)
(1 2.69048e-15 0)
(1 8.31736e-15 0)
(1 -5.02716e-16 0)
(1 -4.527e-15 0)
(1 -3.12102e-15 0)
(1 -8.56609e-15 0)
(1 -5.93176e-15 0)
(1 5.86375e-15 0)
(1 1.0066e-14 0)
(1 4.51687e-15 0)
(1 -4.86732e-15 0)
(1 2.56436e-16 0)
(1 4.40365e-15 0)
(1 2.38982e-15 0)
(1 -3.2607e-15 0)
(1 5.99716e-15 0)
(1 9.99139e-15 0)
(1 1.25179e-14 0)
(1 2.31862e-15 0)
(1 2.02853e-15 0)
(1 -8.18467e-16 0)
(1 -5.64101e-15 0)
(1 -7.96896e-15 0)
(1 5.77388e-15 0)
(1 9.88386e-15 0)
(1 1.04007e-14 0)
(1 2.80438e-15 0)
(1 -4.50975e-16 0)
(1 1.99241e-15 0)
(1 -2.15844e-16 0)
(1 3.10253e-15 0)
(1 2.97085e-15 0)
(1 3.49413e-15 0)
(1 1.052e-15 0)
(1 6.80617e-16 0)
(1 -3.78642e-15 0)
(1 -2.28082e-17 0)
(1 4.79889e-15 0)
(1 -2.31207e-15 0)
(1 -2.69093e-15 0)
(1 -5.22031e-15 0)
(1 -6.57865e-15 0)
(1 -1.11339e-15 0)
(1 -4.78449e-15 0)
(1 4.57168e-16 0)
(1 -1.84736e-15 0)
(1 -5.71469e-15 0)
(1 -5.50757e-16 0)
(1 -5.46722e-16 0)
(1 2.3944e-15 0)
(1 1.59817e-15 0)
(1 -6.3395e-15 0)
(1 -2.17445e-15 0)
(1 1.75444e-15 0)
(1 6.62802e-15 0)
(1 6.74108e-15 0)
(1 4.82693e-15 0)
(1 7.28588e-15 0)
(1 1.5189e-15 0)
(1 3.36131e-15 0)
(1 7.65162e-15 0)
(1 8.29687e-15 0)
(1 -2.72391e-15 0)
(1 -1.27026e-15 0)
(1 -9.22548e-15 0)
(1 7.39191e-16 0)
(1 -9.26194e-16 0)
(1 1.05797e-14 0)
(1 1.46561e-15 0)
(1 -5.44057e-15 0)
(1 9.69528e-15 0)
(1 -3.09753e-15 0)
(1 1.37264e-15 0)
(1 -4.58172e-15 0)
(1 1.57556e-15 0)
(1 6.6881e-15 0)
(1 4.37729e-15 0)
(1 6.87758e-15 0)
(1 -4.53824e-16 0)
(1 8.42468e-15 0)
(1 3.83111e-15 0)
(1 -7.12978e-15 0)
(1 -1.21627e-14 0)
(1 -6.24031e-15 0)
(1 -1.21115e-15 0)
(1 3.95989e-15 0)
(1 -6.70789e-15 0)
(1 -9.6783e-15 0)
(1 -4.8312e-15 0)
(1 -7.78752e-15 0)
(1 1.28738e-15 0)
(1 4.68997e-15 0)
(1 6.45737e-15 0)
(1 -2.91783e-15 0)
(1 -1.21338e-15 0)
(1 -5.4754e-15 0)
(1 -8.25409e-15 0)
(1 -2.15446e-16 0)
(1 1.01979e-15 0)
(1 4.2975e-15 0)
(1 2.42965e-15 0)
(1 -3.45967e-16 0)
(1 -4.25529e-15 0)
(1 -2.31024e-15 0)
(1 -2.66431e-16 0)
(1 -2.89749e-15 0)
(1 6.95814e-15 0)
(1 -2.86038e-15 0)
(1 5.1374e-15 0)
(1 1.14146e-16 0)
(1 -6.47312e-15 0)
(1 8.10084e-16 0)
(1 1.7252e-15 0)
(1 6.24397e-15 0)
(1 3.21476e-17 0)
(1 8.06649e-15 0)
(1 1.36095e-14 0)
(1 1.01792e-14 0)
(1 9.13226e-15 0)
(1 -2.5994e-15 0)
(1 6.58533e-15 0)
(1 -1.86562e-16 0)
(1 4.75233e-15 0)
(1 -1.36096e-15 0)
(1 2.03268e-15 0)
(1 8.1543e-15 0)
(1 -9.45258e-15 0)
(1 1.04904e-15 0)
(1 -8.3938e-16 0)
(1 -1.54734e-15 0)
(1 1.42587e-14 0)
(1 8.41975e-15 0)
(1 8.80048e-15 0)
(1 8.87655e-16 0)
(1 4.63628e-15 0)
(1 -1.90402e-15 0)
(1 3.5185e-16 0)
(1 3.13596e-15 0)
(1 -2.28058e-15 0)
(1 -3.22138e-16 0)
(1 1.45706e-15 0)
(1 3.03125e-15 0)
(1 1.46095e-15 0)
(1 2.66229e-15 0)
(1 -4.45074e-15 0)
(1 -2.99022e-15 0)
(1 -1.02034e-14 0)
(1 -7.48168e-15 0)
(1 -4.60913e-15 0)
(1 -3.02962e-15 0)
(1 -1.80095e-15 0)
(1 -2.29571e-15 0)
(1 -3.90597e-15 0)
(1 1.88314e-15 0)
(1 3.87041e-15 0)
(1 8.77615e-15 0)
(1 1.05911e-14 0)
(1 9.51952e-15 0)
(1 8.52965e-15 0)
(1 9.05874e-15 0)
(1 1.37203e-14 0)
(1 1.41517e-14 0)
(1 1.36039e-16 0)
(1 -1.58287e-16 0)
(1 4.31101e-15 0)
(1 -4.11404e-15 0)
(1 1.76735e-15 0)
(1 -8.27296e-15 0)
(1 5.06483e-15 0)
(1 3.22847e-15 0)
(1 5.18718e-15 0)
(1 -3.76416e-16 0)
(1 -1.4509e-15 0)
(1 1.15465e-14 0)
(1 3.4802e-15 0)
(1 6.69206e-15 0)
(1 -4.41682e-16 0)
(1 -3.86842e-15 0)
(1 -6.48668e-15 0)
(1 3.89498e-16 0)
(1 2.62834e-15 0)
(1 6.70087e-15 0)
(1 -3.70642e-15 0)
(1 -5.05072e-15 0)
(1 -2.14482e-14 0)
(1 -3.04743e-15 0)
(1 1.78402e-15 0)
(1 4.18692e-15 0)
(1 -4.24011e-15 0)
(1 1.71592e-15 0)
(1 1.65785e-15 0)
(1 -3.41844e-15 0)
(1 -4.97909e-15 0)
(1 2.40141e-15 0)
(1 -1.78293e-16 0)
(1 2.96598e-15 0)
(1 6.94646e-16 0)
(1 -1.70792e-15 0)
(1 -8.73568e-15 0)
(1 6.6729e-16 0)
(1 -7.97545e-15 0)
(1 -1.17577e-14 0)
(1 -5.08978e-15 0)
(1 1.91498e-15 0)
(1 5.54655e-15 0)
(1 4.64433e-15 0)
(1 8.87193e-15 0)
(1 -3.00061e-15 0)
(1 -4.13923e-16 0)
(1 5.19792e-16 0)
(1 -7.97468e-16 0)
(1 2.15116e-15 0)
(1 -4.94176e-15 0)
(1 -4.8559e-15 0)
(1 6.12471e-15 0)
(1 6.09005e-15 0)
(1 1.32164e-14 0)
(1 8.18194e-15 0)
(1 3.88083e-15 0)
(1 -6.13655e-15 0)
(1 4.60566e-15 0)
(1 5.4285e-15 0)
(1 9.59014e-15 0)
(1 5.71397e-15 0)
(1 2.21911e-17 0)
(1 2.66319e-15 0)
(1 5.16349e-16 0)
(1 -1.99939e-15 0)
(1 4.40079e-15 0)
(1 4.65351e-15 0)
(1 1.31435e-14 0)
(1 1.14032e-14 0)
(1 1.05231e-14 0)
(1 9.1207e-16 0)
(1 -7.67046e-16 0)
(1 8.15187e-16 0)
(1 1.10395e-15 0)
(1 -1.69715e-15 0)
(1 -6.70406e-16 0)
(1 -1.48844e-15 0)
(1 3.59883e-15 0)
(1 1.46838e-17 0)
(1 2.05912e-15 0)
(1 -8.35778e-17 0)
(1 -4.26101e-15 0)
(1 -3.13303e-15 0)
(1 -9.13398e-15 0)
(1 -3.117e-15 0)
(1 1.60424e-15 0)
(1 4.35706e-16 0)
(1 -4.18914e-15 0)
(1 -1.21945e-15 0)
(1 3.09035e-15 0)
(1 2.26618e-15 0)
(1 2.31899e-15 0)
(1 6.61881e-16 0)
(1 1.41643e-14 0)
(1 4.26713e-15 0)
(1 1.05049e-14 0)
(1 1.10586e-14 0)
(1 1.34321e-14 0)
(1 1.57354e-14 0)
(1 -8.32453e-16 0)
(1 -3.96181e-16 0)
(1 2.08356e-15 0)
(1 2.03165e-15 0)
(1 -4.52005e-15 0)
(1 -9.46481e-15 0)
(1 4.33135e-15 0)
(1 3.27332e-16 0)
(1 5.22362e-15 0)
(1 1.06964e-14 0)
(1 3.50254e-15 0)
(1 4.11366e-15 0)
(1 -4.14357e-15 0)
(1 -6.90964e-16 0)
(1 -2.49317e-15 0)
(1 -5.26372e-15 0)
(1 3.00459e-15 0)
(1 2.55607e-15 0)
(1 4.50223e-15 0)
(1 1.79284e-15 0)
(1 -6.75746e-15 0)
(1 -9.056e-15 0)
(1 -1.75271e-14 0)
(1 -3.69714e-15 0)
(1 -9.29803e-15 0)
(1 1.2224e-14 0)
(1 5.08742e-15 0)
(1 9.99285e-15 0)
(1 -1.61732e-16 0)
(1 -5.64954e-15 0)
(1 -6.72824e-15 0)
(1 -1.14063e-15 0)
(1 -2.72787e-15 0)
(1 4.83874e-16 0)
(1 -1.15485e-16 0)
(1 -8.72265e-15 0)
(1 -2.55197e-15 0)
(1 -6.82016e-15 0)
(1 -8.95753e-15 0)
(1 -7.0298e-15 0)
(1 1.208e-15 0)
(1 5.10465e-16 0)
(1 3.81335e-15 0)
(1 -2.18682e-16 0)
(1 2.2658e-15 0)
(1 2.73925e-15 0)
(1 4.59123e-16 0)
(1 9.72798e-16 0)
(1 8.73247e-15 0)
(1 -1.83949e-16 0)
(1 3.28171e-15 0)
(1 3.02054e-15 0)
(1 9.0919e-15 0)
(1 1.05564e-14 0)
(1 9.37939e-15 0)
(1 4.81984e-15 0)
(1 3.25754e-15 0)
(1 6.14939e-16 0)
(1 2.85993e-15 0)
(1 2.21911e-16 0)
(1 5.20874e-15 0)
(1 6.60652e-15 0)
(1 1.85031e-15 0)
(1 2.56766e-15 0)
(1 9.59973e-15 0)
(1 1.9663e-15 0)
(1 1.60661e-15 0)
(1 2.52128e-15 0)
(1 -1.0096e-14 0)
(1 6.59876e-16 0)
(1 5.17453e-15 0)
(1 1.144e-14 0)
(1 6.64631e-15 0)
(1 1.98397e-15 0)
(1 -9.57507e-16 0)
(1 -8.08028e-15 0)
(1 7.38121e-15 0)
(1 -4.30115e-15 0)
(1 -6.33905e-15 0)
(1 4.99801e-15 0)
(1 6.7988e-15 0)
(1 3.72017e-15 0)
(1 7.96827e-15 0)
(1 -1.64022e-15 0)
(1 -4.58025e-15 0)
(1 -4.21841e-15 0)
(1 -3.09852e-15 0)
(1 -8.42585e-15 0)
(1 -6.53287e-15 0)
(1 -7.99229e-15 0)
(1 1.15804e-14 0)
(1 -1.25505e-16 0)
(1 2.97872e-15 0)
(1 1.65605e-15 0)
(1 9.84192e-15 0)
(1 7.68246e-15 0)
(1 7.89249e-15 0)
(1 8.39694e-15 0)
(1 9.05541e-15 0)
(1 1.19858e-14 0)
(1 -1.16808e-15 0)
(1 1.05091e-15 0)
(1 -1.42864e-15 0)
(1 4.54101e-15 0)
(1 -6.6271e-15 0)
(1 7.37734e-15 0)
(1 -2.79661e-15 0)
(1 1.45333e-15 0)
(1 1.4465e-15 0)
(1 3.20009e-15 0)
(1 4.30828e-15 0)
(1 -5.20059e-15 0)
(1 -9.25812e-16 0)
(1 -3.83916e-16 0)
(1 7.25756e-15 0)
(1 -3.00093e-15 0)
(1 -2.09212e-15 0)
(1 -1.01541e-14 0)
(1 7.79324e-15 0)
(1 -8.91304e-15 0)
(1 -6.15801e-15 0)
(1 4.96783e-16 0)
(1 2.67295e-15 0)
(1 -5.95542e-15 0)
(1 -3.93625e-16 0)
(1 1.17076e-15 0)
(1 6.50982e-15 0)
(1 4.24917e-15 0)
(1 3.57026e-15 0)
(1 -5.20631e-15 0)
(1 -2.39947e-15 0)
(1 -2.63028e-15 0)
(1 -8.54102e-15 0)
(1 -7.12472e-15 0)
(1 -7.96266e-15 0)
(1 -5.51871e-15 0)
(1 -3.47678e-15 0)
(1 -6.79614e-15 0)
(1 -3.84904e-16 0)
(1 8.42461e-16 0)
(1 5.96952e-15 0)
(1 1.78649e-15 0)
(1 -4.43414e-15 0)
(1 7.16235e-15 0)
(1 2.80843e-15 0)
(1 -8.16849e-16 0)
(1 2.39085e-15 0)
(1 -8.17414e-15 0)
(1 8.13812e-15 0)
(1 2.194e-15 0)
(1 5.95974e-15 0)
(1 6.5255e-15 0)
(1 5.57504e-15 0)
(1 6.6454e-15 0)
(1 2.66328e-15 0)
(1 -1.15348e-14 0)
(1 -1.87541e-15 0)
(1 4.44732e-16 0)
(1 4.68668e-15 0)
(1 1.93819e-15 0)
(1 1.10654e-14 0)
(1 9.926e-15 0)
(1 1.22873e-14 0)
(1 2.18466e-15 0)
(1 5.32049e-15 0)
(1 6.12949e-15 0)
(1 -2.3185e-15 0)
(1 6.98536e-16 0)
(1 -2.94929e-15 0)
(1 -1.51902e-15 0)
(1 6.82884e-15 0)
(1 6.77932e-15 0)
(1 -2.08391e-15 0)
(1 -1.81014e-15 0)
(1 -3.52619e-16 0)
(1 -8.14878e-15 0)
(1 2.36275e-16 0)
(1 -6.08947e-16 0)
(1 -3.78331e-15 0)
(1 9.44388e-15 0)
(1 6.90275e-15 0)
(1 2.88407e-15 0)
(1 6.07829e-15 0)
(1 -5.53069e-15 0)
(1 2.98782e-15 0)
(1 4.22326e-17 0)
(1 -7.68262e-15 0)
(1 -5.71594e-15 0)
(1 -2.41065e-15 0)
(1 4.20627e-15 0)
(1 6.71977e-15 0)
(1 -2.74672e-15 0)
(1 -1.05148e-15 0)
(1 2.54081e-15 0)
(1 5.31061e-15 0)
(1 1.17386e-14 0)
(1 9.50347e-15 0)
(1 1.15773e-14 0)
(1 7.22251e-15 0)
(1 4.88377e-15 0)
(1 5.09156e-16 0)
(1 1.20409e-15 0)
(1 -2.94672e-15 0)
(1 -5.77638e-15 0)
(1 3.68659e-15 0)
(1 -2.05035e-15 0)
(1 -2.82436e-15 0)
(1 2.45895e-15 0)
(1 -7.84558e-16 0)
(1 3.57539e-15 0)
(1 4.03303e-15 0)
(1 -1.58098e-15 0)
(1 3.31974e-15 0)
(1 -2.39064e-15 0)
(1 3.23253e-15 0)
(1 -7.21414e-15 0)
(1 -7.6825e-15 0)
(1 -4.06435e-15 0)
(1 8.70366e-15 0)
(1 3.7934e-15 0)
(1 8.52975e-15 0)
(1 6.85551e-15 0)
(1 -8.62426e-15 0)
(1 -1.53216e-14 0)
(1 1.70513e-15 0)
(1 -4.37857e-15 0)
(1 -3.71321e-16 0)
(1 -3.21771e-15 0)
(1 5.10286e-15 0)
(1 2.3877e-16 0)
(1 -6.81423e-15 0)
(1 -5.71801e-15 0)
(1 -1.08926e-14 0)
(1 -1.17706e-14 0)
(1 3.13748e-15 0)
(1 -3.46089e-15 0)
(1 5.50446e-17 0)
(1 -8.88982e-15 0)
(1 2.10671e-16 0)
(1 3.08342e-15 0)
(1 7.21179e-15 0)
(1 4.6751e-15 0)
(1 -5.90271e-15 0)
(1 4.38035e-15 0)
(1 -2.15745e-15 0)
(1 6.58282e-15 0)
(1 4.15555e-15 0)
(1 3.55079e-15 0)
(1 -3.23872e-15 0)
(1 5.29055e-15 0)
(1 5.571e-15 0)
(1 3.52478e-15 0)
(1 7.21276e-15 0)
(1 7.21461e-15 0)
(1 1.00331e-15 0)
(1 6.56293e-15 0)
(1 1.83742e-16 0)
(1 3.43853e-15 0)
(1 -9.0352e-15 0)
(1 -1.01258e-15 0)
(1 -5.78974e-15 0)
(1 1.28677e-15 0)
(1 4.64381e-15 0)
(1 5.57563e-15 0)
(1 1.02676e-14 0)
(1 9.01148e-15 0)
(1 9.01408e-15 0)
(1 4.81994e-15 0)
(1 3.98304e-15 0)
(1 -9.54047e-16 0)
(1 -1.30877e-14 0)
(1 -4.86716e-15 0)
(1 3.17882e-16 0)
(1 5.73832e-15 0)
(1 4.20055e-15 0)
(1 2.00515e-15 0)
(1 -6.72704e-15 0)
(1 1.2012e-15 0)
(1 4.76469e-15 0)
(1 -2.94159e-15 0)
(1 -2.30256e-15 0)
(1 -2.49114e-15 0)
(1 -9.08626e-16 0)
(1 5.95097e-16 0)
(1 3.90359e-15 0)
(1 1.69045e-16 0)
(1 -1.34697e-15 0)
(1 2.76627e-15 0)
(1 3.58287e-15 0)
(1 8.15664e-15 0)
(1 -3.76678e-15 0)
(1 5.80607e-16 0)
(1 -2.12131e-16 0)
(1 -6.73723e-16 0)
(1 3.04257e-15 0)
(1 5.53694e-15 0)
(1 2.89824e-15 0)
(1 5.80641e-15 0)
(1 3.48387e-15 0)
(1 1.18542e-15 0)
(1 2.94351e-16 0)
(1 1.85963e-15 0)
(1 -4.30644e-15 0)
(1 -2.18293e-15 0)
(1 1.59374e-15 0)
(1 -5.61795e-16 0)
(1 -1.96368e-16 0)
(1 -2.79323e-15 0)
(1 6.16986e-17 0)
(1 7.57371e-15 0)
(1 5.42759e-15 0)
(1 4.14284e-15 0)
(1 -3.25574e-15 0)
(1 -6.33847e-15 0)
(1 -8.47998e-15 0)
(1 3.70861e-15 0)
(1 -1.95731e-16 0)
(1 5.33425e-15 0)
(1 -1.22628e-14 0)
(1 1.04944e-15 0)
(1 7.98278e-16 0)
(1 7.98959e-15 0)
(1 -5.00438e-15 0)
(1 -2.419e-15 0)
(1 -5.38961e-15 0)
(1 2.77895e-15 0)
(1 5.85573e-15 0)
(1 -1.2764e-15 0)
(1 8.05513e-15 0)
(1 -7.81681e-16 0)
(1 -1.97036e-15 0)
(1 -1.56415e-14 0)
(1 -8.2236e-15 0)
(1 -7.88878e-15 0)
(1 -9.42656e-15 0)
(1 -4.61676e-15 0)
(1 4.67688e-15 0)
(1 -5.03815e-15 0)
(1 4.31372e-15 0)
(1 -3.52318e-15 0)
(1 -2.74641e-15 0)
(1 -9.80354e-16 0)
(1 1.3312e-14 0)
(1 6.73039e-15 0)
(1 3.17779e-15 0)
(1 1.07142e-14 0)
(1 -2.22611e-15 0)
(1 1.17009e-14 0)
(1 -6.70044e-15 0)
(1 -1.46958e-15 0)
(1 -9.77477e-15 0)
(1 -2.14292e-15 0)
(1 5.39066e-15 0)
(1 9.99052e-15 0)
(1 -1.27239e-16 0)
(1 1.60521e-14 0)
(1 5.82624e-15 0)
(1 4.37144e-15 0)
(1 -2.94786e-15 0)
(1 1.38333e-15 0)
(1 -1.5163e-15 0)
(1 -3.37125e-15 0)
(1 -2.46141e-15 0)
(1 1.09054e-14 0)
(1 8.47759e-16 0)
(1 6.45033e-15 0)
(1 8.96669e-15 0)
(1 6.32644e-15 0)
(1 -1.72069e-16 0)
(1 3.31705e-16 0)
(1 -8.62448e-15 0)
(1 8.56116e-15 0)
(1 6.32696e-15 0)
(1 6.67865e-15 0)
(1 1.5962e-15 0)
(1 8.54904e-15 0)
(1 -1.43694e-15 0)
(1 3.92671e-15 0)
(1 1.53352e-15 0)
(1 -8.88091e-15 0)
(1 1.30633e-16 0)
(1 9.68051e-16 0)
(1 -5.65078e-15 0)
(1 3.61663e-15 0)
(1 1.90984e-15 0)
(1 -8.88613e-16 0)
(1 -8.06245e-16 0)
(1 3.59015e-15 0)
(1 3.09028e-15 0)
(1 3.23202e-15 0)
(1 4.37668e-16 0)
(1 2.44156e-15 0)
(1 1.48646e-15 0)
(1 5.815e-15 0)
(1 -7.28785e-17 0)
(1 6.01456e-15 0)
(1 2.07694e-15 0)
(1 7.35492e-15 0)
(1 1.65215e-15 0)
(1 -6.75398e-16 0)
(1 -6.58938e-16 0)
(1 2.1832e-15 0)
(1 -7.51753e-16 0)
(1 -3.55754e-16 0)
(1 -3.0451e-15 0)
(1 3.81042e-15 0)
(1 -4.24221e-15 0)
(1 -2.5596e-15 0)
(1 4.84827e-15 0)
(1 -3.70748e-15 0)
(1 1.03212e-14 0)
(1 5.72304e-15 0)
(1 2.55073e-15 0)
(1 -1.20996e-14 0)
(1 -1.08072e-14 0)
(1 2.20091e-15 0)
(1 -6.18331e-15 0)
(1 3.34764e-15 0)
(1 -1.4272e-14 0)
(1 6.64909e-15 0)
(1 7.65988e-15 0)
(1 1.24246e-15 0)
(1 5.24581e-15 0)
(1 -2.59346e-15 0)
(1 -8.31676e-15 0)
(1 -9.01292e-15 0)
(1 -4.43361e-15 0)
(1 6.34704e-16 0)
(1 2.45186e-15 0)
(1 -2.19655e-15 0)
(1 -3.17366e-15 0)
(1 -3.9624e-15 0)
(1 -9.61518e-16 0)
(1 -1.91661e-15 0)
(1 -6.43134e-15 0)
(1 1.73132e-15 0)
(1 -7.36188e-15 0)
(1 -1.01847e-15 0)
(1 3.88986e-15 0)
(1 -5.14187e-15 0)
(1 -6.98676e-15 0)
(1 -1.21452e-15 0)
(1 1.45728e-14 0)
(1 4.15803e-15 0)
(1 8.66632e-15 0)
(1 2.49011e-15 0)
(1 -7.81525e-15 0)
(1 3.09322e-15 0)
(1 -4.89126e-15 0)
(1 -5.49379e-15 0)
(1 -4.68422e-15 0)
(1 2.51178e-15 0)
(1 9.03928e-15 0)
(1 9.95403e-15 0)
(1 1.3652e-14 0)
(1 8.38004e-15 0)
(1 2.74282e-15 0)
(1 7.40386e-15 0)
(1 3.73922e-15 0)
(1 -9.72032e-16 0)
(1 4.9597e-15 0)
(1 -1.95536e-15 0)
(1 7.89284e-15 0)
(1 1.33614e-15 0)
(1 6.87104e-15 0)
(1 7.81057e-15 0)
(1 1.03286e-14 0)
(1 4.42208e-15 0)
(1 6.23091e-15 0)
(1 4.66232e-15 0)
(1 1.0291e-14 0)
(1 2.07885e-15 0)
(1 -2.14192e-15 0)
(1 1.80814e-15 0)
(1 -6.35084e-16 0)
(1 2.62145e-15 0)
(1 1.30038e-15 0)
(1 5.40188e-15 0)
(1 -1.21784e-15 0)
(1 -6.42215e-15 0)
(1 1.35961e-15 0)
(1 9.24088e-16 0)
(1 -4.3132e-15 0)
(1 2.62002e-16 0)
(1 -2.12996e-15 0)
(1 8.02695e-16 0)
(1 -1.81386e-15 0)
(1 5.24651e-15 0)
(1 1.11056e-15 0)
(1 -3.5571e-15 0)
(1 1.65905e-16 0)
(1 -1.36932e-15 0)
(1 1.49874e-15 0)
(1 6.13547e-15 0)
(1 3.84539e-15 0)
(1 2.32752e-15 0)
(1 -3.64705e-15 0)
(1 3.65718e-15 0)
(1 7.8852e-15 0)
(1 6.39729e-15 0)
(1 -1.66064e-15 0)
(1 9.64235e-16 0)
(1 9.40295e-16 0)
(1 -1.42343e-15 0)
(1 4.53544e-15 0)
(1 4.35018e-15 0)
(1 5.96057e-15 0)
(1 2.48967e-15 0)
(1 3.78309e-15 0)
(1 -6.96007e-15 0)
(1 -2.78314e-15 0)
(1 -3.87582e-15 0)
(1 3.11434e-16 0)
(1 -2.40918e-15 0)
(1 -8.02466e-15 0)
(1 -5.32103e-15 0)
(1 -8.71797e-15 0)
(1 8.6354e-16 0)
(1 9.08038e-15 0)
(1 -2.13935e-15 0)
(1 -2.15139e-15 0)
(1 -8.90361e-15 0)
(1 7.59024e-15 0)
(1 1.22483e-15 0)
(1 -3.71315e-15 0)
(1 -3.58765e-15 0)
(1 1.01539e-15 0)
(1 3.93519e-15 0)
(1 -8.86766e-15 0)
(1 -1.40299e-15 0)
(1 -1.0115e-14 0)
(1 2.49327e-15 0)
(1 -3.43066e-15 0)
(1 -4.21392e-15 0)
(1 -2.7241e-15 0)
(1 -4.09722e-15 0)
(1 -6.80813e-15 0)
(1 -2.09512e-15 0)
(1 -1.24691e-15 0)
(1 4.23069e-15 0)
(1 3.13304e-15 0)
(1 1.51889e-15 0)
(1 -1.62105e-15 0)
(1 6.36586e-15 0)
(1 7.63761e-15 0)
(1 3.66188e-15 0)
(1 2.16739e-15 0)
(1 -3.48514e-15 0)
(1 -8.4169e-15 0)
(1 -1.40847e-14 0)
(1 6.65613e-15 0)
(1 1.49206e-14 0)
(1 1.16531e-14 0)
(1 6.41118e-15 0)
(1 1.32853e-14 0)
(1 5.66997e-15 0)
(1 1.44297e-15 0)
(1 5.32895e-15 0)
(1 1.58339e-15 0)
(1 -4.0846e-15 0)
(1 -6.18462e-15 0)
(1 1.43419e-15 0)
(1 1.65903e-15 0)
(1 -4.62064e-15 0)
(1 1.2475e-14 0)
(1 1.51454e-15 0)
(1 2.78627e-15 0)
(1 1.69745e-15 0)
(1 5.69628e-15 0)
(1 5.33912e-15 0)
(1 2.687e-15 0)
(1 -4.13008e-15 0)
(1 -2.96087e-16 0)
(1 6.03462e-15 0)
(1 2.43448e-16 0)
(1 1.98453e-15 0)
(1 3.07731e-16 0)
(1 1.96742e-15 0)
(1 3.66219e-16 0)
(1 2.46196e-15 0)
(1 -4.95169e-15 0)
(1 -4.0615e-15 0)
(1 2.50148e-15 0)
(1 1.34028e-15 0)
(1 1.46166e-15 0)
(1 1.12863e-15 0)
(1 6.86825e-16 0)
(1 6.07302e-15 0)