/*--------------------------------*- C++ -*----------------------------------*\
| =========                 |                                                 |
| \\      /  F ield         | OpenFOAM: The Open Source CFD Toolbox           |
|  \\    /   O peration     | Version:  v2012                                 |
|   \\  /    A nd           | Website:  www.openfoam.com                      |
|    \\/     M anipulation  |                                                 |
\*---------------------------------------------------------------------------*/
FoamFile
{
    version     2.0;
    format      ascii;
    class       volScalarField;
    location    "0";
    object      p;
}
// * * * * * * * * * * * * * * * * * * * * * * * * * * * * * * * * * * * * * //

dimensions      [0 2 -2 0 0 0 0];


internalField   nonuniform List<scalar> 
4000
(
3.2854e-13
3.30054e-13
3.30758e-13
3.37028e-13
3.42844e-13
3.28658e-13
3.26732e-13
3.26354e-13
3.21571e-13
3.20842e-13
3.26451e-13
3.29071e-13
3.23826e-13
3.07988e-13
2.98988e-13
2.95657e-13
2.93277e-13
2.90784e-13
2.89429e-13
2.78356e-13
2.64263e-13
2.53826e-13
2.51405e-13
2.47511e-13
2.46897e-13
2.39267e-13
2.33439e-13
2.31765e-13
2.22063e-13
2.26006e-13
2.20364e-13
2.06233e-13
1.95729e-13
2.002e-13
2.04599e-13
1.95791e-13
1.87674e-13
1.7383e-13
1.62298e-13
1.63173e-13
1.61852e-13
1.58664e-13
1.69897e-13
1.67506e-13
1.67466e-13
1.63828e-13
1.61267e-13
1.58969e-13
1.53255e-13
1.56386e-13
1.5451e-13
1.50624e-13
1.44005e-13
1.40594e-13
1.39082e-13
1.25437e-13
1.24875e-13
1.20899e-13
1.23272e-13
1.23795e-13
1.16966e-13
1.1521e-13
1.10082e-13
1.12668e-13
1.13362e-13
1.15412e-13
1.09937e-13
1.06489e-13
1.01211e-13
1.05891e-13
1.00931e-13
9.92153e-14
9.23442e-14
8.65834e-14
8.58518e-14
8.47824e-14
8.6791e-14
7.85335e-14
6.32955e-14
4.77779e-14
4.06698e-14
3.73293e-14
4.14211e-14
3.67689e-14
3.04923e-14
2.86021e-14
2.17034e-14
1.90168e-14
2.44246e-14
2.33299e-14
1.53288e-14
1.09846e-14
6.06378e-15
9.99281e-15
9.6291e-15
9.39845e-15
8.22281e-15
1.14513e-14
7.6853e-15
1.43798e-15
3.23846e-13
3.32511e-13
3.36273e-13
3.36255e-13
3.36662e-13
3.33259e-13
3.29593e-13
3.28404e-13
3.22861e-13
3.22668e-13
3.24924e-13
3.2547e-13
3.17549e-13
3.08961e-13
3.05665e-13
2.95437e-13
2.94965e-13
2.92185e-13
2.87266e-13
2.80828e-13
2.69589e-13
2.55901e-13
2.46157e-13
2.44833e-13
2.45203e-13
2.40726e-13
2.3506e-13
2.30667e-13
2.22186e-13
2.19462e-13
2.19516e-13
2.08779e-13
2.02117e-13
1.9426e-13
1.96106e-13
1.94932e-13
1.88069e-13
1.7638e-13
1.74553e-13
1.63072e-13
1.60278e-13
1.59281e-13
1.63653e-13
1.66092e-13
1.70173e-13
1.67961e-13
1.59356e-13
1.53497e-13
1.53941e-13
1.57157e-13
1.51431e-13
1.50189e-13
1.46125e-13
1.42764e-13
1.37945e-13
1.31218e-13
1.22901e-13
1.19258e-13
1.18656e-13
1.19003e-13
1.2263e-13
1.16298e-13
1.13843e-13
1.12789e-13
1.11435e-13
1.11707e-13
1.09908e-13
1.0715e-13
1.0637e-13
1.04929e-13
1.02406e-13
9.56395e-14
9.12863e-14
9.39388e-14
9.03012e-14
8.36002e-14
8.44014e-14
7.52917e-14
6.22011e-14
5.15094e-14
4.02082e-14
3.41271e-14
3.83786e-14
4.0126e-14
3.14787e-14
2.32155e-14
2.10648e-14
1.99495e-14
2.23108e-14
1.90178e-14
1.87251e-14
1.36785e-14
1.04539e-14
8.8836e-15
9.08729e-15
8.57426e-15
9.50724e-15
1.01972e-14
8.44149e-15
3.46798e-15
3.26058e-13
3.28453e-13
3.33435e-13
3.35872e-13
3.40429e-13
3.36614e-13
3.31159e-13
3.29687e-13
3.20736e-13
3.20414e-13
3.18194e-13
3.18918e-13
3.16614e-13
3.12915e-13
3.07853e-13
2.97841e-13
2.96346e-13
2.92284e-13
2.86232e-13
2.77235e-13
2.61041e-13
2.59446e-13
2.49332e-13
2.45178e-13
2.45707e-13
2.37129e-13
2.34979e-13
2.28835e-13
2.21944e-13
2.23067e-13
2.1542e-13
2.08671e-13
1.99227e-13
2.00873e-13
1.9954e-13
1.96116e-13
1.88316e-13
1.78875e-13
1.71498e-13
1.58945e-13
1.59635e-13
1.58087e-13
1.6306e-13
1.68876e-13
1.73206e-13
1.66527e-13
1.54003e-13
1.50726e-13
1.52137e-13
1.58638e-13
1.5626e-13
1.49261e-13
1.46121e-13
1.40517e-13
1.38797e-13
1.32541e-13
1.2625e-13
1.20749e-13
1.22539e-13
1.17537e-13
1.20867e-13
1.16073e-13
1.09101e-13
1.10368e-13
1.1079e-13
1.13567e-13
1.13712e-13
1.10396e-13
1.07152e-13
1.02455e-13
1.00621e-13
9.20781e-14
9.19151e-14
9.28526e-14
9.299e-14
8.34856e-14
8.06399e-14
7.44888e-14
6.10289e-14
5.17791e-14
4.4477e-14
3.4025e-14
3.79596e-14
4.04388e-14
3.22929e-14
2.79935e-14
2.63362e-14
2.23385e-14
2.22604e-14
1.78705e-14
1.57914e-14
1.27574e-14
1.10885e-14
8.17789e-15
7.96223e-15
5.3167e-15
9.09402e-15
8.12779e-15
7.53087e-15
2.67709e-15
3.26968e-13
3.28863e-13
3.3525e-13
3.33041e-13
3.39391e-13
3.32677e-13
3.30601e-13
3.25859e-13
3.25454e-13
3.20568e-13
3.14253e-13
3.14608e-13
3.14524e-13
3.13404e-13
3.11936e-13
3.0621e-13
2.95777e-13
2.88152e-13
2.81318e-13
2.72546e-13
2.62755e-13
2.57818e-13
2.50879e-13
2.39405e-13
2.42566e-13
2.37452e-13
2.31929e-13
2.30067e-13
2.23435e-13
2.2024e-13
2.21764e-13
2.06011e-13
1.99198e-13
1.97318e-13
1.93355e-13
1.92059e-13
1.8698e-13
1.79547e-13
1.76754e-13
1.6355e-13
1.65148e-13
1.59037e-13
1.64233e-13
1.65509e-13
1.71381e-13
1.59691e-13
1.55234e-13
1.5644e-13
1.54543e-13
1.50661e-13
1.5072e-13
1.45697e-13
1.45419e-13
1.44953e-13
1.41495e-13
1.33691e-13
1.26987e-13
1.22139e-13
1.22695e-13
1.20948e-13
1.1829e-13
1.14289e-13
1.12683e-13
1.08993e-13
1.09978e-13
1.12275e-13
1.13929e-13
1.09858e-13
1.06307e-13
1.06796e-13
1.02146e-13
9.81389e-14
8.9979e-14
9.58906e-14
9.26176e-14
8.43423e-14
8.25143e-14
7.22963e-14
6.17282e-14
5.27961e-14
4.34358e-14
4.03933e-14
3.94249e-14
3.54543e-14
3.2431e-14
2.86314e-14
2.32868e-14
2.43831e-14
2.09164e-14
1.91489e-14
1.76006e-14
1.12459e-14
9.47767e-15
8.28597e-15
8.69155e-15
7.16285e-15
1.00196e-14
6.36604e-15
5.46599e-15
2.14428e-15
3.26848e-13
3.2946e-13
3.30603e-13
3.29817e-13
3.30454e-13
3.3225e-13
3.26277e-13
3.30454e-13
3.23606e-13
3.19506e-13
3.09578e-13
3.11141e-13
3.12682e-13
3.13219e-13
3.09684e-13
3.01062e-13
2.94372e-13
2.87393e-13
2.74871e-13
2.66525e-13
2.60027e-13
2.55525e-13
2.48355e-13
2.41091e-13
2.45994e-13
2.38596e-13
2.33213e-13
2.23708e-13
2.22961e-13
2.2031e-13
2.17062e-13
2.06514e-13
2.03885e-13
1.98039e-13
1.9024e-13
1.91709e-13
1.9043e-13
1.77022e-13
1.66248e-13
1.60318e-13
1.69455e-13
1.6789e-13
1.65195e-13
1.64243e-13
1.6847e-13
1.61973e-13
1.54986e-13
1.51975e-13
1.57739e-13
1.54893e-13
1.53166e-13
1.48395e-13
1.47103e-13
1.44393e-13
1.38901e-13
1.33631e-13
1.32643e-13
1.24575e-13
1.21661e-13
1.21301e-13
1.18569e-13
1.12193e-13
1.12722e-13
1.11759e-13
1.11684e-13
1.10764e-13
1.19554e-13
1.10142e-13
1.06522e-13
1.06992e-13
1.06095e-13
9.77851e-14
8.9975e-14
9.28541e-14
8.62183e-14
8.71552e-14
8.26469e-14
7.03897e-14
6.36119e-14
5.66341e-14
4.88079e-14
4.33167e-14
3.89933e-14
3.43373e-14
3.18155e-14
3.00162e-14
2.66984e-14
2.82742e-14
2.31618e-14
1.80735e-14
1.62212e-14
1.14692e-14
9.50439e-15
9.02818e-15
1.21381e-14
7.04169e-15
1.27241e-14
6.83931e-15
2.73546e-15
-1.74361e-15
3.21438e-13
3.3005e-13
3.28939e-13
3.2165e-13
3.29447e-13
3.34113e-13
3.31897e-13
3.28321e-13
3.22721e-13
3.10918e-13
3.07878e-13
3.08762e-13
3.09768e-13
3.05422e-13
3.04709e-13
3.00513e-13
2.99115e-13
2.842e-13
2.71644e-13
2.64715e-13
2.57997e-13
2.48944e-13
2.35013e-13
2.37529e-13
2.40949e-13
2.39305e-13
2.33279e-13
2.23045e-13
2.21149e-13
2.21309e-13
2.20116e-13
2.03329e-13
2.0005e-13
1.95577e-13
1.92123e-13
1.94561e-13
1.89708e-13
1.76664e-13
1.65796e-13
1.62522e-13
1.72482e-13
1.71993e-13
1.71457e-13
1.6598e-13
1.67046e-13
1.55731e-13
1.51755e-13
1.5323e-13
1.58916e-13
1.4845e-13
1.52345e-13
1.4727e-13
1.44808e-13
1.4559e-13
1.36454e-13
1.36393e-13
1.29853e-13
1.23969e-13
1.29634e-13
1.2365e-13
1.19387e-13
1.14686e-13
1.1651e-13
1.10766e-13
1.07869e-13
1.116e-13
1.18418e-13
1.08865e-13
1.09008e-13
1.07029e-13
1.08408e-13
1.03323e-13
9.56604e-14
9.40075e-14
8.84376e-14
8.77091e-14
8.47938e-14
6.92283e-14
6.10706e-14
5.74881e-14
5.48085e-14
4.54574e-14
3.87574e-14
3.42925e-14
3.01563e-14
3.10251e-14
2.88934e-14
2.73791e-14
2.4739e-14
1.94527e-14
1.94861e-14
1.38264e-14
1.01576e-14
1.25724e-14
1.12715e-14
1.32265e-14
1.36026e-14
4.81715e-15
1.59695e-15
-2.21144e-15
3.22962e-13
3.20435e-13
3.24402e-13
3.27227e-13
3.24089e-13
3.2738e-13
3.27586e-13
3.2337e-13
3.209e-13
3.09399e-13
3.02403e-13
3.05548e-13
3.08701e-13
3.05145e-13
3.00643e-13
3.0134e-13
2.94151e-13
2.80714e-13
2.65642e-13
2.62887e-13
2.50777e-13
2.44009e-13
2.4076e-13
2.40837e-13
2.42541e-13
2.41821e-13
2.33471e-13
2.21708e-13
2.21495e-13
2.19241e-13
2.18087e-13
2.05254e-13
1.99136e-13
1.86311e-13
1.92088e-13
1.87564e-13
1.89241e-13
1.85769e-13
1.7846e-13
1.64404e-13
1.64718e-13
1.68485e-13
1.64295e-13
1.68137e-13
1.63858e-13
1.56914e-13
1.51291e-13
1.59375e-13
1.55889e-13
1.48682e-13
1.5493e-13
1.53719e-13
1.4988e-13
1.42884e-13
1.36005e-13
1.32765e-13
1.30965e-13
1.25986e-13
1.26073e-13
1.24873e-13
1.2188e-13
1.15422e-13
1.17511e-13
1.1443e-13
1.07744e-13
1.12281e-13
1.13445e-13
1.0343e-13
1.01989e-13
1.07072e-13
1.13427e-13
1.0835e-13
9.86112e-14
9.6221e-14
8.8911e-14
8.80002e-14
8.25992e-14
7.14629e-14
6.05897e-14
5.45866e-14
4.83784e-14
4.68641e-14
4.41532e-14
3.66745e-14
3.47931e-14
3.22674e-14
3.38519e-14
2.97639e-14
2.65938e-14
2.02409e-14
2.08417e-14
1.23061e-14
8.47135e-15
1.48254e-14
1.13286e-14
1.23663e-14
1.23691e-14
6.4164e-15
1.79147e-15
5.99234e-16
3.18118e-13
3.15545e-13
3.1679e-13
3.22948e-13
3.26631e-13
3.24522e-13
3.24126e-13
3.20851e-13
3.18703e-13
3.11811e-13
3.03968e-13
3.00443e-13
3.01095e-13
2.99102e-13
2.95338e-13
2.96389e-13
2.9128e-13
2.79687e-13
2.60373e-13
2.57022e-13
2.52902e-13
2.47763e-13
2.40467e-13
2.40313e-13
2.36593e-13
2.3467e-13
2.28467e-13
2.2303e-13
2.18774e-13
2.192e-13
2.11043e-13
2.08829e-13
2.04283e-13
1.9707e-13
1.94044e-13
1.86657e-13
1.83675e-13
1.8335e-13
1.73277e-13
1.59725e-13
1.66029e-13
1.75184e-13
1.67015e-13
1.71629e-13
1.67589e-13
1.61857e-13
1.4978e-13
1.42624e-13
1.47234e-13
1.54811e-13
1.61318e-13
1.54816e-13
1.48439e-13
1.42065e-13
1.40245e-13
1.33585e-13
1.28971e-13
1.28362e-13
1.24944e-13
1.21005e-13
1.25752e-13
1.19494e-13
1.18479e-13
1.14658e-13
1.13791e-13
1.13376e-13
1.15524e-13
1.04202e-13
1.11329e-13
1.12507e-13
1.08261e-13
1.02433e-13
9.77386e-14
9.09416e-14
8.44783e-14
8.53791e-14
8.31893e-14
7.31789e-14
6.25879e-14
5.73935e-14
4.85015e-14
4.84766e-14
4.22659e-14
2.96909e-14
3.09861e-14
3.07504e-14
3.63351e-14
3.08948e-14
2.79662e-14
2.17115e-14
1.92379e-14
1.30059e-14
1.07699e-14
1.77359e-14
1.30715e-14
1.19844e-14
1.28058e-14
7.27933e-15
1.94233e-15
-4.59078e-16
3.1467e-13
3.16463e-13
3.14745e-13
3.13082e-13
3.16974e-13
3.20297e-13
3.18898e-13
3.18412e-13
3.08377e-13
3.09404e-13
3.05474e-13
2.97083e-13
2.94886e-13
2.95414e-13
2.92651e-13
2.93422e-13
2.90407e-13
2.75542e-13
2.54037e-13
2.55766e-13
2.51373e-13
2.42314e-13
2.48837e-13
2.40525e-13
2.32727e-13
2.31801e-13
2.25099e-13
2.2219e-13
2.22356e-13
2.18158e-13
2.15659e-13
2.10359e-13
2.06069e-13
1.98944e-13
1.94213e-13
1.84867e-13
1.70789e-13
1.74594e-13
1.77526e-13
1.83246e-13
1.75754e-13
1.65788e-13
1.58538e-13
1.63249e-13
1.65514e-13
1.55435e-13
1.55414e-13
1.55225e-13
1.5502e-13
1.51601e-13
1.5369e-13
1.49618e-13
1.46226e-13
1.41511e-13
1.41795e-13
1.37859e-13
1.33175e-13
1.28586e-13
1.2497e-13
1.24725e-13
1.26432e-13
1.22028e-13
1.19986e-13
1.17685e-13
1.10689e-13
1.155e-13
1.13823e-13
1.09728e-13
1.06469e-13
1.06539e-13
1.03031e-13
1.0639e-13
1.03391e-13
9.16221e-14
8.46653e-14
8.40987e-14
8.44727e-14
7.31403e-14
6.58681e-14
5.80943e-14
5.12544e-14
4.67698e-14
4.7378e-14
3.86958e-14
3.33444e-14
3.16659e-14
3.60312e-14
3.42657e-14
2.47375e-14
2.36525e-14
1.68405e-14
1.17855e-14
9.24184e-15
1.57826e-14
1.80381e-14
1.23605e-14
8.39022e-15
9.49498e-15
-9.01821e-16
-3.31831e-15
3.14121e-13
3.15514e-13
3.13892e-13
3.14231e-13
3.11364e-13
3.14074e-13
3.1779e-13
3.10606e-13
3.06597e-13
3.03958e-13
2.94528e-13
2.94999e-13
2.93551e-13
2.9896e-13
2.9163e-13
2.82087e-13
2.77703e-13
2.77271e-13
2.62397e-13
2.50727e-13
2.45952e-13
2.38204e-13
2.36232e-13
2.33383e-13
2.33257e-13
2.33715e-13
2.24514e-13
2.19548e-13
2.21277e-13
2.15514e-13
2.1664e-13
2.10869e-13
1.98939e-13
1.97075e-13
1.90483e-13
1.86317e-13
1.85149e-13
1.82382e-13
1.74064e-13
1.70766e-13
1.69095e-13
1.68562e-13
1.62711e-13
1.58865e-13
1.63499e-13
1.642e-13
1.59196e-13
1.52316e-13
1.49305e-13
1.48285e-13
1.51993e-13
1.50616e-13
1.49401e-13
1.40463e-13
1.37719e-13
1.36397e-13
1.35127e-13
1.3158e-13
1.26995e-13
1.29352e-13
1.26613e-13
1.23983e-13
1.24528e-13
1.24573e-13
1.11303e-13
1.09817e-13
1.06059e-13
1.07121e-13
1.07563e-13
1.0878e-13
1.03112e-13
1.06748e-13
1.03446e-13
9.22709e-14
8.64662e-14
8.13271e-14
8.47897e-14
7.19262e-14
6.12053e-14
5.91894e-14
5.20248e-14
4.55016e-14
5.36846e-14
4.45878e-14
3.70304e-14
3.75704e-14
3.67151e-14
2.6634e-14
2.81588e-14
2.57037e-14
1.35077e-14
4.9227e-15
9.68821e-15
1.37693e-14
1.53075e-14
1.63202e-14
9.62361e-15
9.33783e-15
-3.77678e-15
-3.33977e-15
3.12814e-13
3.11802e-13
3.10892e-13
3.11097e-13
3.11457e-13
3.04499e-13
3.14416e-13
3.06452e-13
3.03983e-13
3.05834e-13
2.96097e-13
2.90401e-13
2.87663e-13
2.9256e-13
2.8425e-13
2.8336e-13
2.77468e-13
2.71697e-13
2.61542e-13
2.53739e-13
2.44947e-13
2.34972e-13
2.32992e-13
2.32829e-13
2.27548e-13
2.25607e-13
2.23529e-13
2.23953e-13
2.1845e-13
2.13971e-13
2.17075e-13
2.07947e-13
2.00764e-13
2.00077e-13
1.91341e-13
1.89295e-13
1.81552e-13
1.74267e-13
1.76733e-13
1.7512e-13
1.71173e-13
1.63102e-13
1.59968e-13
1.62137e-13
1.70571e-13
1.66686e-13
1.60478e-13
1.49455e-13
1.43906e-13
1.44442e-13
1.55705e-13
1.5702e-13
1.42104e-13
1.37897e-13
1.31895e-13
1.33124e-13
1.42471e-13
1.36982e-13
1.31735e-13
1.2201e-13
1.22268e-13
1.24127e-13
1.24538e-13
1.29826e-13
1.21162e-13
1.06789e-13
1.07379e-13
1.0446e-13
1.0767e-13
1.07341e-13
1.04258e-13
1.05582e-13
1.01798e-13
9.15564e-14
8.76386e-14
7.85931e-14
8.46424e-14
7.6855e-14
6.35791e-14
6.48382e-14
5.55975e-14
5.30063e-14
5.01587e-14
4.29728e-14
3.51218e-14
3.53969e-14
4.15638e-14
3.67763e-14
2.72607e-14
2.33022e-14
1.31395e-14
6.59443e-15
1.14176e-14
1.71307e-14
1.37924e-14
1.69478e-14
4.49681e-15
2.85621e-15
-7.21934e-15
-2.86588e-15
3.12056e-13
3.10236e-13
3.09871e-13
3.08388e-13
3.09196e-13
3.02916e-13
3.06596e-13
3.07461e-13
2.95776e-13
3.01166e-13
2.94874e-13
2.87794e-13
2.7753e-13
2.85645e-13
2.81408e-13
2.72663e-13
2.73943e-13
2.70988e-13
2.63587e-13
2.52473e-13
2.37584e-13
2.38733e-13
2.40844e-13
2.33174e-13
2.19151e-13
2.20471e-13
2.18251e-13
2.18923e-13
2.19842e-13
2.222e-13
2.18015e-13
2.06749e-13
1.97622e-13
1.95581e-13
1.93149e-13
1.90559e-13
1.81786e-13
1.73234e-13
1.7648e-13
1.79248e-13
1.6727e-13
1.58519e-13
1.63441e-13
1.6643e-13
1.68666e-13
1.65603e-13
1.63968e-13
1.53923e-13
1.45491e-13
1.41897e-13
1.46537e-13
1.44745e-13
1.42825e-13
1.36312e-13
1.38942e-13
1.34895e-13
1.38913e-13
1.3448e-13
1.34118e-13
1.29409e-13
1.28297e-13
1.31031e-13
1.26106e-13
1.25925e-13
1.14497e-13
9.72903e-14
1.06726e-13
1.09708e-13
1.05016e-13
1.09312e-13
1.00684e-13
1.05355e-13
1.09989e-13
9.75458e-14
8.37612e-14
7.17691e-14
7.4012e-14
7.74148e-14
6.69404e-14
6.36393e-14
6.03205e-14
5.72894e-14
5.72052e-14
4.68297e-14
4.63482e-14
3.90185e-14
3.91887e-14
3.28599e-14
2.36591e-14
2.49585e-14
1.10963e-14
8.52477e-15
1.08288e-14
1.70287e-14
1.43368e-14
1.82771e-14
6.2976e-15
2.4687e-16
-6.03872e-15
-3.12601e-15
3.08417e-13
3.07768e-13
3.01947e-13
3.06947e-13
3.02543e-13
3.03759e-13
3.04184e-13
3.04535e-13
2.97322e-13
2.88839e-13
2.81358e-13
2.88925e-13
2.89662e-13
2.84584e-13
2.77776e-13
2.7479e-13
2.70473e-13
2.67628e-13
2.65791e-13
2.49484e-13
2.38104e-13
2.31511e-13
2.24715e-13
2.20964e-13
2.22136e-13
2.1593e-13
2.19607e-13
2.24627e-13
2.19117e-13
2.20995e-13
2.14424e-13
2.05344e-13
2.02181e-13
1.96056e-13
1.96529e-13
1.90366e-13
1.79353e-13
1.71027e-13
1.76671e-13
1.74445e-13
1.66654e-13
1.5907e-13
1.66668e-13
1.69122e-13
1.6602e-13
1.61252e-13
1.63252e-13
1.55312e-13
1.47083e-13
1.40203e-13
1.47375e-13
1.44382e-13
1.34e-13
1.33435e-13
1.42329e-13
1.46681e-13
1.35992e-13
1.36246e-13
1.34755e-13
1.29252e-13
1.24432e-13
1.23265e-13
1.25109e-13
1.24411e-13
1.22638e-13
1.03659e-13
1.03537e-13
1.06499e-13
1.04076e-13
1.0953e-13
9.6885e-14
1.0252e-13
1.05245e-13
9.65748e-14
8.20568e-14
7.66583e-14
7.93289e-14
7.6315e-14
6.9689e-14
6.52367e-14
6.31306e-14
5.96648e-14
5.65818e-14
5.1142e-14
4.76272e-14
4.31132e-14
4.07413e-14
4.05779e-14
2.78754e-14
2.71476e-14
1.80333e-14
7.93292e-15
5.93824e-15
1.62086e-14
1.62523e-14
1.31447e-14
5.63722e-15
4.0011e-15
-2.18704e-16
-1.31479e-15
3.01258e-13
3.10512e-13
3.04286e-13
3.00434e-13
2.98238e-13
2.99809e-13
2.98879e-13
2.98096e-13
2.90263e-13
2.85203e-13
2.85602e-13
2.86298e-13
2.84985e-13
2.87946e-13
2.72965e-13
2.71744e-13
2.66035e-13
2.58273e-13
2.61058e-13
2.49014e-13
2.40168e-13
2.44043e-13
2.36942e-13
2.26273e-13
2.10365e-13
2.06495e-13
2.08478e-13
2.21306e-13
2.23937e-13
2.20957e-13
2.13925e-13
2.0399e-13
1.95729e-13
1.93059e-13
1.89108e-13
1.89577e-13
1.91355e-13
1.78256e-13
1.68599e-13
1.75772e-13
1.7407e-13
1.62062e-13
1.68216e-13
1.65109e-13
1.68056e-13
1.59607e-13
1.58758e-13
1.54049e-13
1.51246e-13
1.4957e-13
1.43852e-13
1.39129e-13
1.36567e-13
1.34252e-13
1.40863e-13
1.42865e-13
1.41423e-13
1.35445e-13
1.36187e-13
1.32434e-13
1.25782e-13
1.21346e-13
1.19291e-13
1.2293e-13
1.13518e-13
1.07904e-13
1.08364e-13
1.08474e-13
1.04285e-13
1.01336e-13
9.60616e-14
1.02618e-13
1.03377e-13
9.66342e-14
8.26012e-14
8.0017e-14
7.55185e-14
7.36048e-14
7.12715e-14
6.92246e-14
6.30048e-14
5.74371e-14
5.6922e-14
5.45295e-14
4.73312e-14
4.55841e-14
4.3259e-14
3.80835e-14
3.18235e-14
2.4327e-14
1.85875e-14
1.61916e-14
1.97811e-14
1.42352e-14
1.09686e-14
1.27382e-14
7.6096e-15
5.13048e-15
3.61232e-17
-1.52067e-15
3.00685e-13
3.0111e-13
3.01117e-13
2.99599e-13
2.98413e-13
2.98783e-13
2.93452e-13
2.84536e-13
2.8219e-13
2.89966e-13
2.89189e-13
2.88054e-13
2.85784e-13
2.83641e-13
2.73884e-13
2.68254e-13
2.68406e-13
2.65167e-13
2.59104e-13
2.42855e-13
2.34662e-13
2.28623e-13
2.24127e-13
2.20498e-13
2.20007e-13
2.17129e-13
2.21963e-13
2.19227e-13
2.16504e-13
2.08344e-13
2.14307e-13
2.08109e-13
1.99459e-13
1.89598e-13
1.85402e-13
1.85112e-13
1.87947e-13
1.81209e-13
1.75943e-13
1.74506e-13
1.73467e-13
1.70289e-13
1.65872e-13
1.64385e-13
1.66636e-13
1.59567e-13
1.64141e-13
1.53151e-13
1.5177e-13
1.52929e-13
1.49289e-13
1.3738e-13
1.26718e-13
1.34827e-13
1.34233e-13
1.4084e-13
1.42013e-13
1.34354e-13
1.35333e-13
1.27919e-13
1.26385e-13
1.24738e-13
1.22827e-13
1.23818e-13
1.07077e-13
1.05075e-13
1.06114e-13
1.08517e-13
1.07678e-13
9.92613e-14
9.53168e-14
1.01729e-13
1.00157e-13
9.23329e-14
8.83368e-14
7.70151e-14
7.46381e-14
6.7731e-14
7.6472e-14
7.50663e-14
7.11533e-14
6.57002e-14
5.69481e-14
5.27076e-14
4.67239e-14
4.35102e-14
4.05514e-14
4.6668e-14
3.28985e-14
2.34378e-14
2.09236e-14
2.15485e-14
2.1846e-14
1.73813e-14
1.11935e-14
1.06724e-14
8.00596e-16
3.35863e-15
-5.81384e-15
-3.47289e-16
2.9601e-13
3.02955e-13
3.03239e-13
2.99921e-13
2.96923e-13
2.98743e-13
2.94426e-13
2.86736e-13
2.72472e-13
2.78775e-13
2.80157e-13
2.8475e-13
2.84987e-13
2.8137e-13
2.79816e-13
2.72127e-13
2.64063e-13
2.54402e-13
2.50913e-13
2.41461e-13
2.38833e-13
2.36971e-13
2.22969e-13
2.16382e-13
2.17563e-13
2.16496e-13
2.23994e-13
2.21844e-13
2.17319e-13
2.08982e-13
2.11256e-13
2.0121e-13
1.97477e-13
1.90028e-13
1.86082e-13
1.85147e-13
1.84714e-13
1.83776e-13
1.80375e-13
1.81217e-13
1.7382e-13
1.7021e-13
1.72002e-13
1.63565e-13
1.64958e-13
1.6147e-13
1.64018e-13
1.56648e-13
1.52533e-13
1.45262e-13
1.39218e-13
1.40851e-13
1.35236e-13
1.30497e-13
1.41188e-13
1.42356e-13
1.40039e-13
1.35753e-13
1.37585e-13
1.29367e-13
1.2119e-13
1.22879e-13
1.20465e-13
1.21025e-13
1.079e-13
1.06401e-13
1.00399e-13
1.04311e-13
1.0351e-13
1.02937e-13
9.46553e-14
1.01551e-13
1.05572e-13
9.65404e-14
8.30488e-14
7.74715e-14
7.82526e-14
7.39637e-14
7.6161e-14
6.96315e-14
6.89512e-14
6.6538e-14
6.25759e-14
5.86544e-14
4.74635e-14
4.6981e-14
4.6753e-14
4.25124e-14
3.02738e-14
2.72901e-14
2.21363e-14
2.26009e-14
1.80891e-14
1.55666e-14
1.13839e-14
1.23573e-14
1.92773e-15
2.55689e-15
-1.06191e-14
-4.31845e-15
2.99175e-13
3.00882e-13
2.95527e-13
2.92644e-13
2.91849e-13
2.9068e-13
2.84628e-13
2.90125e-13
2.86213e-13
2.86503e-13
2.85593e-13
2.78928e-13
2.77371e-13
2.80196e-13
2.77007e-13
2.66734e-13
2.6229e-13
2.65039e-13
2.48525e-13
2.41417e-13
2.26228e-13
2.23621e-13
2.23705e-13
2.30057e-13
2.20784e-13
2.20049e-13
2.22927e-13
2.21028e-13
2.13256e-13
2.09064e-13
2.11352e-13
1.98977e-13
1.92596e-13
1.78505e-13
1.82266e-13
1.84602e-13
1.91813e-13
1.91427e-13
1.82418e-13
1.82623e-13
1.77486e-13
1.692e-13
1.67791e-13
1.65412e-13
1.66845e-13
1.69061e-13
1.5658e-13
1.52732e-13
1.5417e-13
1.48566e-13
1.44656e-13
1.38364e-13
1.33113e-13
1.32792e-13
1.32375e-13
1.35714e-13
1.39829e-13
1.37528e-13
1.37044e-13
1.33112e-13
1.23436e-13
1.20646e-13
1.17702e-13
1.17986e-13
1.15418e-13
1.07071e-13
1.00321e-13
9.9585e-14
9.31491e-14
1.00567e-13
1.05553e-13
1.00436e-13
9.98847e-14
9.78494e-14
8.75071e-14
7.58045e-14
7.6073e-14
6.95784e-14
7.99484e-14
7.88754e-14
8.26896e-14
6.71996e-14
6.0522e-14
5.73608e-14
4.61552e-14
5.04377e-14
4.57805e-14
3.77593e-14
3.04795e-14
3.07404e-14
2.70606e-14
2.13185e-14
2.06531e-14
1.97353e-14
1.20552e-14
5.46338e-15
7.09354e-16
1.556e-15
-9.30766e-15
-1.79796e-15
2.97541e-13
2.98013e-13
2.97444e-13
2.98287e-13
2.96537e-13
2.97174e-13
2.83622e-13
2.79809e-13
2.77988e-13
2.83275e-13
2.85559e-13
2.82048e-13
2.75484e-13
2.72273e-13
2.70285e-13
2.67384e-13
2.65414e-13
2.5766e-13
2.48978e-13
2.35885e-13
2.26501e-13
2.28349e-13
2.20393e-13
2.26678e-13
2.25055e-13
2.19777e-13
2.19929e-13
2.17736e-13
2.16138e-13
2.06398e-13
2.11316e-13
2.05559e-13
1.98729e-13
1.76415e-13
1.71848e-13
1.8162e-13
1.85837e-13
1.94526e-13
1.89723e-13
1.95067e-13
1.87296e-13
1.71663e-13
1.5738e-13
1.56497e-13
1.68931e-13
1.75288e-13
1.61718e-13
1.51232e-13
1.52045e-13
1.50231e-13
1.45889e-13
1.40015e-13
1.33474e-13
1.30916e-13
1.34704e-13
1.39699e-13
1.36605e-13
1.31082e-13
1.32281e-13
1.29175e-13
1.23701e-13
1.2035e-13
1.2099e-13
1.20011e-13
1.11416e-13
1.03139e-13
1.02522e-13
1.02204e-13
9.39145e-14
9.56642e-14
9.91453e-14
1.05629e-13
1.02844e-13
9.86769e-14
8.63566e-14
8.03723e-14
7.97257e-14
8.26515e-14
7.90865e-14
7.29371e-14
7.29743e-14
7.27712e-14
6.71053e-14
6.2899e-14
5.03663e-14
4.1409e-14
4.30332e-14
3.92273e-14
3.09537e-14
3.09506e-14
2.80725e-14
2.24814e-14
1.62163e-14
1.84348e-14
1.40545e-14
4.75103e-15
1.17666e-15
3.1067e-15
-7.3316e-15
-4.88077e-15
2.9178e-13
2.97604e-13
2.97176e-13
2.91319e-13
2.88908e-13
2.92709e-13
2.87619e-13
2.87122e-13
2.86922e-13
2.87964e-13
2.80499e-13
2.75693e-13
2.71756e-13
2.7282e-13
2.67614e-13
2.59156e-13
2.65922e-13
2.61094e-13
2.48641e-13
2.41077e-13
2.24265e-13
2.23771e-13
2.22422e-13
2.27463e-13
2.19397e-13
2.13409e-13
2.24572e-13
2.24267e-13
2.13019e-13
2.07182e-13
2.07132e-13
1.98065e-13
1.91955e-13
1.78682e-13
1.75728e-13
1.8929e-13
1.93087e-13
1.94759e-13
1.87737e-13
1.85867e-13
1.85108e-13
1.7242e-13
1.67232e-13
1.66361e-13
1.65613e-13
1.65816e-13
1.62626e-13
1.58953e-13
1.48163e-13
1.4457e-13
1.45757e-13
1.41584e-13
1.35738e-13
1.36717e-13
1.30687e-13
1.39554e-13
1.39535e-13
1.29349e-13
1.25454e-13
1.27657e-13
1.30703e-13
1.24919e-13
1.22866e-13
1.17164e-13
1.08401e-13
1.03594e-13
1.02666e-13
1.03514e-13
9.85884e-14
9.50509e-14
9.32112e-14
1.05434e-13
1.08606e-13
9.98238e-14
8.24449e-14
8.35488e-14
8.24974e-14
7.94237e-14
7.47413e-14
7.18493e-14
7.66107e-14
7.83692e-14
6.29774e-14
5.43828e-14
5.20622e-14
4.98388e-14
4.72777e-14
3.86975e-14
3.56437e-14
3.26615e-14
2.40524e-14
2.55735e-14
1.69138e-14
1.59081e-14
1.47473e-14
7.09475e-15
8.77655e-16
-2.75942e-15
-6.60119e-15
-3.01999e-16
2.94468e-13
2.95079e-13
2.92258e-13
2.90605e-13
2.86883e-13
2.87704e-13
2.88089e-13
2.90616e-13
2.84063e-13
2.81755e-13
2.77511e-13
2.73693e-13
2.73643e-13
2.74308e-13
2.67126e-13
2.59898e-13
2.57982e-13
2.51456e-13
2.45706e-13
2.41884e-13
2.31669e-13
2.26334e-13
2.22908e-13
2.21745e-13
2.22729e-13
2.20493e-13
2.25944e-13
2.20544e-13
2.11194e-13
2.07085e-13
2.05045e-13
2.00471e-13
1.91639e-13
1.75952e-13
1.81324e-13
1.86582e-13
1.87358e-13
1.92473e-13
1.87571e-13
1.83993e-13
1.88751e-13
1.78722e-13
1.70822e-13
1.6583e-13
1.67399e-13
1.67971e-13
1.64332e-13
1.49422e-13
1.49831e-13
1.52067e-13
1.49671e-13
1.42861e-13
1.34574e-13
1.37296e-13
1.29267e-13
1.33898e-13
1.33091e-13
1.34869e-13
1.25515e-13
1.2493e-13
1.281e-13
1.25259e-13
1.26006e-13
1.18557e-13
1.12932e-13
1.05656e-13
1.02767e-13
1.00191e-13
1.01567e-13
9.58364e-14
9.66646e-14
1.01999e-13
1.00729e-13
9.85572e-14
8.54305e-14
8.75194e-14
8.19982e-14
7.70686e-14
8.14988e-14
7.65507e-14
7.84273e-14
7.14496e-14
6.77352e-14
6.61369e-14
5.64969e-14
4.314e-14
4.01546e-14
3.79305e-14
3.84097e-14
3.12481e-14
2.17672e-14
2.70063e-14
2.29965e-14
1.67347e-14
1.57383e-14
6.23511e-15
-2.4144e-16
-6.09474e-15
-5.53833e-15
3.50281e-15
2.96825e-13
2.91867e-13
2.84772e-13
2.89351e-13
2.82851e-13
2.84431e-13
2.85124e-13
2.91101e-13
2.87058e-13
2.76749e-13
2.78049e-13
2.75385e-13
2.79188e-13
2.7235e-13
2.68743e-13
2.6227e-13
2.67704e-13
2.55121e-13
2.40907e-13
2.33647e-13
2.28914e-13
2.29821e-13
2.2127e-13
2.19006e-13
2.19482e-13
2.2249e-13
2.25091e-13
2.14999e-13
2.10159e-13
2.07185e-13
2.02973e-13
1.99e-13
1.94594e-13
1.82651e-13
1.76659e-13
1.80377e-13
1.8849e-13
1.93708e-13
1.88019e-13
1.86685e-13
1.87008e-13
1.78803e-13
1.75879e-13
1.69257e-13
1.63715e-13
1.60279e-13
1.59974e-13
1.57335e-13
1.58046e-13
1.52981e-13
1.42459e-13
1.40951e-13
1.3738e-13
1.37839e-13
1.30608e-13
1.3803e-13
1.32456e-13
1.33804e-13
1.31255e-13
1.33606e-13
1.30049e-13
1.26075e-13
1.18072e-13
1.09766e-13
1.17291e-13
1.09932e-13
1.0248e-13
9.77202e-14
9.69802e-14
1.02155e-13
9.68155e-14
9.91813e-14
9.41372e-14
9.36349e-14
8.50841e-14
8.73591e-14
8.45366e-14
8.61959e-14
8.23679e-14
7.98254e-14
7.11337e-14
6.92757e-14
6.6345e-14
5.95875e-14
5.46889e-14
4.53241e-14
4.19452e-14
4.16402e-14
4.19683e-14
3.82316e-14
2.90927e-14
2.55844e-14
2.15054e-14
1.66868e-14
1.1708e-14
5.16028e-15
1.82939e-15
-2.34991e-15
-7.00161e-15
5.2944e-16
2.94132e-13
2.87402e-13
2.88258e-13
2.87546e-13
2.82673e-13
2.85711e-13
2.86393e-13
2.84338e-13
2.88971e-13
2.8235e-13
2.76664e-13
2.72633e-13
2.79294e-13
2.69788e-13
2.66712e-13
2.64917e-13
2.60981e-13
2.48496e-13
2.43452e-13
2.39694e-13
2.32541e-13
2.31354e-13
2.20339e-13
2.22618e-13
2.25799e-13
2.19797e-13
2.1766e-13
2.07949e-13
2.06353e-13
2.06856e-13
1.99612e-13
2.00734e-13
2.01038e-13
1.93167e-13
1.79794e-13
1.81525e-13
1.84554e-13
1.88954e-13
1.90219e-13
1.88487e-13
1.85096e-13
1.74987e-13
1.76072e-13
1.74019e-13
1.66728e-13
1.56004e-13
1.6301e-13
1.63153e-13
1.48539e-13
1.47154e-13
1.47944e-13
1.38939e-13
1.39048e-13
1.38151e-13
1.31335e-13
1.30294e-13
1.30075e-13
1.34174e-13
1.29693e-13
1.33879e-13
1.38063e-13
1.22209e-13
1.15686e-13
1.14497e-13
1.23797e-13
1.09177e-13
1.05909e-13
9.85577e-14
9.96877e-14
9.56661e-14
9.38182e-14
9.89338e-14
9.61807e-14
9.69291e-14
8.66998e-14
7.64385e-14
8.64292e-14
8.73953e-14
8.5535e-14
8.35527e-14
7.66334e-14
7.39118e-14
6.23649e-14
5.47186e-14
5.3794e-14
5.1321e-14
4.46779e-14
4.05317e-14
4.32369e-14
3.55973e-14
3.07977e-14
2.44377e-14
1.94083e-14
1.57595e-14
1.60639e-14
1.21451e-14
2.82734e-15
-1.23055e-14
-8.73528e-15
-1.64967e-15
2.87355e-13
2.89851e-13
2.89615e-13
2.85833e-13
2.81051e-13
2.87363e-13
2.84717e-13
2.81789e-13
2.83507e-13
2.8046e-13
2.80641e-13
2.78981e-13
2.77057e-13
2.72064e-13
2.66553e-13
2.65931e-13
2.62261e-13
2.57883e-13
2.49241e-13
2.39009e-13
2.23113e-13
2.20234e-13
2.24858e-13
2.20878e-13
2.25036e-13
2.18326e-13
2.1602e-13
2.08141e-13
2.06739e-13
2.06357e-13
2.03639e-13
1.96864e-13
1.92564e-13
1.89082e-13
1.83809e-13
1.85257e-13
1.9019e-13
1.89152e-13
1.92686e-13
1.86981e-13
1.85777e-13
1.75761e-13
1.73988e-13
1.73702e-13
1.69493e-13
1.58033e-13
1.61378e-13
1.5192e-13
1.50543e-13
1.49119e-13
1.42819e-13
1.38492e-13
1.39442e-13
1.39859e-13
1.34316e-13
1.26267e-13
1.17784e-13
1.32552e-13
1.44598e-13
1.34806e-13
1.26602e-13
1.23999e-13
1.17515e-13
1.16001e-13
1.19051e-13
1.08885e-13
9.78699e-14
9.81405e-14
1.06157e-13
9.69679e-14
9.70682e-14
9.68214e-14
9.03572e-14
9.29486e-14
8.64381e-14
8.19634e-14
8.53252e-14
8.42746e-14
8.84318e-14
8.81142e-14
7.80459e-14
7.0819e-14
5.89433e-14
5.62557e-14
5.15075e-14
4.92082e-14
4.88426e-14
3.95651e-14
3.74988e-14
3.62248e-14
3.34054e-14
2.94536e-14
2.18308e-14
1.56363e-14
1.82689e-14
8.54253e-15
5.44828e-15
-5.73336e-15
-1.11604e-14
-1.76352e-15
2.90835e-13
2.84009e-13
2.84168e-13
2.7808e-13
2.82412e-13
2.88459e-13
2.88887e-13
2.91575e-13
2.84319e-13
2.76484e-13
2.79095e-13
2.70521e-13
2.70294e-13
2.73578e-13
2.73575e-13
2.71188e-13
2.59616e-13
2.61676e-13
2.48485e-13
2.34917e-13
2.31705e-13
2.29093e-13
2.23794e-13
2.19314e-13
2.19673e-13
2.22665e-13
2.16988e-13
2.06733e-13
2.0789e-13
2.04933e-13
1.99369e-13
1.96239e-13
1.97379e-13
1.91961e-13
1.82627e-13
1.87747e-13
1.89131e-13
1.87558e-13
1.82911e-13
1.84502e-13
1.86827e-13
1.84041e-13
1.7799e-13
1.69919e-13
1.67935e-13
1.61004e-13
1.5498e-13
1.53238e-13
1.49412e-13
1.45939e-13
1.39416e-13
1.39629e-13
1.36539e-13
1.30163e-13
1.30392e-13
1.28523e-13
1.2649e-13
1.30802e-13
1.36081e-13
1.28589e-13
1.30442e-13
1.23491e-13
1.18963e-13
1.16254e-13
1.20151e-13
1.08659e-13
1.0497e-13
1.04908e-13
1.05349e-13
1.0009e-13
9.46725e-14
9.42364e-14
8.93669e-14
8.40256e-14
8.39059e-14
8.7537e-14
8.94154e-14
8.70528e-14
8.36971e-14
8.28363e-14
7.97332e-14
6.7771e-14
6.14806e-14
6.13838e-14
5.67821e-14
5.46422e-14
5.25408e-14
3.7593e-14
3.37369e-14
3.57709e-14
3.21043e-14
2.66276e-14
2.06471e-14
1.96788e-14
2.18427e-14
1.14374e-14
-5.56406e-16
-9.85104e-15
-8.99717e-15
-2.54896e-15
2.86409e-13
2.837e-13
2.84116e-13
2.83479e-13
2.85047e-13
2.83243e-13
2.86514e-13
2.80496e-13
2.83533e-13
2.84957e-13
2.817e-13
2.71128e-13
2.67496e-13
2.75049e-13
2.73997e-13
2.66225e-13
2.63056e-13
2.60618e-13
2.52199e-13
2.38078e-13
2.36512e-13
2.27666e-13
2.23173e-13
2.16687e-13
2.18697e-13
2.23527e-13
2.1821e-13
2.0812e-13
2.06651e-13
2.04372e-13
2.02781e-13
1.98565e-13
1.96215e-13
1.96914e-13
1.91335e-13
1.8196e-13
1.87101e-13
1.90186e-13
1.82743e-13
1.7897e-13
1.81603e-13
1.76307e-13
1.77911e-13
1.70657e-13
1.67917e-13
1.6153e-13