/*--------------------------------*- C++ -*----------------------------------*\
| =========                 |                                                 |
| \\      /  F ield         | OpenFOAM: The Open Source CFD Toolbox           |
|  \\    /   O peration     | Version:  v2012                                 |
|   \\  /    A nd           | Website:  www.openfoam.com                      |
|    \\/     M anipulation  |                                                 |
\*---------------------------------------------------------------------------*/
FoamFile
{
    version     2.0;
    format      ascii;
    class       volVectorField;
    location    "70";
    object      Usup;
}
// * * * * * * * * * * * * * * * * * * * * * * * * * * * * * * * * * * * * * //

dimensions      [0 1 -1 0 0 0 0];


internalField   nonuniform List<vector> 
4000
(
(-9.50162e-17 -2.13243e-16 0)
(6.43487e-17 -8.96235e-17 0)
(1.79832e-16 7.91046e-17 0)
(-6.0705e-17 -2.21399e-17 0)
(-6.55014e-16 -4.65998e-16 0)
(-1.43326e-15 -7.76132e-16 0)
(-1.70885e-15 -4.26518e-16 0)
(-1.86382e-15 -4.31097e-16 0)
(-1.93074e-15 -5.11504e-16 0)
(-1.83025e-15 -1.01655e-15 0)
(-1.97818e-15 -1.34146e-15 0)
(-2.54107e-15 -1.55737e-15 0)
(-2.80921e-15 -1.54837e-15 0)
(-2.68938e-15 -1.23967e-15 0)
(-2.50408e-15 -1.42973e-15 0)
(-2.27396e-15 -1.71575e-15 0)
(-2.06717e-15 -2.12573e-15 0)
(-2.11009e-15 -2.45794e-15 0)
(-2.5944e-15 -2.7583e-15 0)
(-2.83116e-15 -2.73584e-15 0)
(-2.87727e-15 -2.59873e-15 0)
(-2.7008e-15 -2.299e-15 0)
(-2.28518e-15 -2.35064e-15 0)
(-2.04464e-15 -2.27647e-15 0)
(-1.75477e-15 -2.25126e-15 0)
(-1.47862e-15 -2.16936e-15 0)
(-1.43046e-15 -2.36315e-15 0)
(-1.66835e-15 -2.34767e-15 0)
(-1.76133e-15 -2.37749e-15 0)
(-1.65097e-15 -2.5662e-15 0)
(-1.72938e-15 -2.51535e-15 0)
(-1.75717e-15 -2.57205e-15 0)
(-1.81765e-15 -2.88858e-15 0)
(-2.26271e-15 -3.31778e-15 0)
(-2.77808e-15 -3.36241e-15 0)
(-3.42656e-15 -3.13715e-15 0)
(-3.91782e-15 -2.7246e-15 0)
(-3.66087e-15 -2.14325e-15 0)
(-2.90992e-15 -1.75069e-15 0)
(-2.3485e-15 -2.25473e-15 0)
(-2.00805e-15 -2.24031e-15 0)
(-1.3348e-15 -2.03162e-15 0)
(-7.45717e-16 -1.78798e-15 0)
(-5.05019e-16 -1.77835e-15 0)
(-6.50501e-16 -1.72079e-15 0)
(-4.91805e-16 -1.40275e-15 0)
(5.70916e-16 -1.32545e-15 0)
(1.35909e-15 -1.74122e-15 0)
(1.17194e-15 -1.82873e-15 0)
(1.20764e-15 -1.43085e-15 0)
(1.22898e-15 -1.67196e-15 0)
(1.07529e-15 -1.45952e-15 0)
(1.01067e-15 -1.39098e-15 0)
(9.50269e-16 -1.26318e-15 0)
(7.70075e-16 -1.11804e-15 0)
(7.40938e-16 -7.47268e-16 0)
(1.33131e-15 -7.36797e-16 0)
(1.57757e-15 -9.25262e-16 0)
(1.501e-15 -9.1411e-16 0)
(1.19406e-15 -9.35705e-16 0)
(8.49228e-16 -8.9209e-16 0)
(6.47088e-16 -8.47538e-16 0)
(7.64303e-16 -4.93405e-16 0)
(8.90384e-16 -3.45415e-16 0)
(6.49639e-16 -3.70923e-16 0)
(6.11515e-16 -1.81602e-16 0)
(4.61232e-16 -4.58601e-17 0)
(-1.09888e-17 -6.89594e-17 0)
(-1.99378e-16 2.00261e-16 0)
(-4.32662e-16 4.17219e-16 0)
(-1.15258e-15 2.08556e-16 0)
(-1.77872e-15 3.1005e-16 0)
(-2.19383e-15 5.14999e-16 0)
(-2.23099e-15 9.10074e-16 0)
(-1.62259e-15 1.07557e-15 0)
(-1.15518e-15 1.14814e-15 0)
(-1.42768e-15 8.78443e-16 0)
(-1.92602e-15 7.7619e-16 0)
(-2.01006e-15 8.99882e-16 0)
(-2.18396e-15 1.03223e-15 0)
(-2.39294e-15 1.26042e-15 0)
(-2.53377e-15 7.90441e-16 0)
(-2.74741e-15 3.97911e-16 0)
(-2.43507e-15 5.28766e-16 0)
(-2.00447e-15 4.64465e-16 0)
(-2.20784e-15 1.27451e-16 0)
(-2.88391e-15 8.14458e-17 0)
(-2.85782e-15 2.31719e-16 0)
(-2.55973e-15 -1.98861e-16 0)
(-2.54941e-15 -2.1208e-16 0)
(-2.5142e-15 -1.60096e-17 0)
(-2.41145e-15 1.05269e-16 0)
(-2.11911e-15 1.94898e-16 0)
(-1.85431e-15 -6.86546e-17 0)
(-1.36828e-15 -1.16176e-16 0)
(-9.57973e-16 -2.86345e-16 0)
(-9.14718e-16 -2.35604e-16 0)
(-8.51119e-16 -4.12623e-17 0)
(-4.41039e-16 1.05261e-16 0)
(-1.8387e-16 1.77279e-17 0)
(1.7738e-17 -3.32741e-16 0)
(3.87549e-16 -2.68132e-16 0)
(2.22764e-16 -3.28847e-16 0)
(-9.25845e-16 -5.99494e-16 0)
(-2.51401e-15 -1.24726e-15 0)
(-3.68717e-15 -1.62282e-15 0)
(-4.32038e-15 -1.29354e-15 0)
(-5.14989e-15 -1.57713e-15 0)
(-5.79105e-15 -2.06908e-15 0)
(-5.96284e-15 -2.80167e-15 0)
(-6.21169e-15 -3.59887e-15 0)
(-7.1374e-15 -4.36371e-15 0)
(-7.37846e-15 -4.44445e-15 0)
(-7.37074e-15 -4.28413e-15 0)
(-7.42573e-15 -4.43071e-15 0)
(-7.10136e-15 -5.0757e-15 0)
(-6.74473e-15 -6.26482e-15 0)
(-6.81088e-15 -7.51386e-15 0)
(-7.49595e-15 -8.18464e-15 0)
(-7.70843e-15 -8.06539e-15 0)
(-7.5926e-15 -8.045e-15 0)
(-7.30523e-15 -7.44739e-15 0)
(-6.56594e-15 -7.05071e-15 0)
(-5.84856e-15 -6.77411e-15 0)
(-5.13156e-15 -6.53457e-15 0)
(-4.6725e-15 -6.51213e-15 0)
(-4.5868e-15 -6.79166e-15 0)
(-4.88328e-15 -6.98391e-15 0)
(-5.23819e-15 -7.00173e-15 0)
(-5.04973e-15 -7.46606e-15 0)
(-5.13603e-15 -7.85667e-15 0)
(-5.5672e-15 -8.12782e-15 0)
(-6.1575e-15 -8.85139e-15 0)
(-7.01279e-15 -9.66721e-15 0)
(-7.80038e-15 -9.74188e-15 0)
(-8.91265e-15 -9.17979e-15 0)
(-9.62934e-15 -8.12547e-15 0)
(-9.08435e-15 -6.90567e-15 0)
(-8.25183e-15 -6.28723e-15 0)
(-7.09515e-15 -6.93534e-15 0)
(-5.46207e-15 -6.78436e-15 0)
(-3.6494e-15 -6.08418e-15 0)
(-2.33639e-15 -5.40568e-15 0)
(-1.71371e-15 -5.0689e-15 0)
(-1.40926e-15 -4.79103e-15 0)
(-7.01193e-16 -4.25286e-15 0)
(1.03779e-15 -4.11293e-15 0)
(2.68014e-15 -4.82824e-15 0)
(3.26096e-15 -4.76916e-15 0)
(3.29707e-15 -4.42984e-15 0)
(3.21826e-15 -4.77108e-15 0)
(3.17574e-15 -4.36837e-15 0)
(2.95737e-15 -4.28968e-15 0)
(2.86146e-15 -3.86401e-15 0)
(2.73168e-15 -3.4985e-15 0)
(2.68516e-15 -2.61332e-15 0)
(3.39739e-15 -2.36193e-15 0)
(3.93486e-15 -2.43521e-15 0)
(3.90307e-15 -2.3409e-15 0)
(3.26042e-15 -2.68569e-15 0)
(2.53907e-15 -2.78011e-15 0)
(2.28997e-15 -2.61181e-15 0)
(2.47951e-15 -2.0008e-15 0)
(2.32989e-15 -1.59905e-15 0)
(1.85869e-15 -1.18918e-15 0)
(1.72706e-15 -2.69751e-16 0)
(1.06849e-15 -3.36026e-17 0)
(8.92416e-17 3.22865e-17 0)
(-4.07386e-16 3.70785e-16 0)
(-1.57315e-15 7.0638e-16 0)
(-3.32635e-15 7.15718e-16 0)
(-4.53221e-15 1.10123e-15 0)
(-5.31215e-15 1.53288e-15 0)
(-5.45737e-15 2.6137e-15 0)
(-4.58453e-15 3.09429e-15 0)
(-4.04878e-15 3.21407e-15 0)
(-4.69958e-15 2.75838e-15 0)
(-5.42587e-15 2.64294e-15 0)
(-5.6185e-15 3.01721e-15 0)
(-6.01142e-15 3.08283e-15 0)
(-6.96624e-15 3.31222e-15 0)
(-7.79298e-15 2.23115e-15 0)
(-7.72612e-15 1.57794e-15 0)
(-6.90924e-15 1.64859e-15 0)
(-6.49661e-15 1.37357e-15 0)
(-6.89542e-15 6.98866e-16 0)
(-7.77652e-15 5.0266e-16 0)
(-8.08566e-15 6.98642e-16 0)
(-7.66275e-15 -3.23507e-16 0)
(-7.07368e-15 -4.78514e-16 0)
(-6.79545e-15 -2.20731e-16 0)
(-6.51741e-15 7.97563e-17 0)
(-6.06304e-15 3.13703e-16 0)
(-5.38602e-15 1.37139e-16 0)
(-4.15514e-15 -3.58374e-16 0)
(-3.08255e-15 -8.98516e-16 0)
(-2.47388e-15 -7.91495e-16 0)
(-2.0393e-15 -2.13091e-16 0)
(-1.2814e-15 1.96615e-17 0)
(-6.02647e-16 -1.75851e-16 0)
(1.55342e-17 -1.70733e-16 0)
(2.02577e-16 -3.0191e-16 0)
(-2.58197e-16 -9.50734e-16 0)
(-1.80067e-15 -1.57e-15 0)
(-3.93648e-15 -1.90974e-15 0)
(-5.66367e-15 -2.16151e-15 0)
(-6.97425e-15 -2.35041e-15 0)
(-8.45934e-15 -3.05902e-15 0)
(-9.3206e-15 -3.63759e-15 0)
(-9.74203e-15 -4.26178e-15 0)
(-1.05184e-14 -5.41259e-15 0)
(-1.15482e-14 -6.69441e-15 0)
(-1.17532e-14 -7.02561e-15 0)
(-1.16942e-14 -7.51834e-15 0)
(-1.18246e-14 -7.66555e-15 0)
(-1.19825e-14 -8.576e-15 0)
(-1.19655e-14 -1.04574e-14 0)
(-1.18151e-14 -1.22647e-14 0)
(-1.19915e-14 -1.31978e-14 0)
(-1.2188e-14 -1.33545e-14 0)
(-1.19355e-14 -1.33078e-14 0)
(-1.10583e-14 -1.27793e-14 0)
(-1.00743e-14 -1.17569e-14 0)
(-9.20739e-15 -1.13143e-14 0)
(-8.37729e-15 -1.06992e-14 0)
(-7.90592e-15 -1.05838e-14 0)
(-7.84856e-15 -1.09937e-14 0)
(-8.13566e-15 -1.15414e-14 0)
(-8.61228e-15 -1.15744e-14 0)
(-8.80293e-15 -1.21329e-14 0)
(-8.94894e-15 -1.2947e-14 0)
(-9.51472e-15 -1.38364e-14 0)
(-1.04973e-14 -1.5082e-14 0)
(-1.15196e-14 -1.59864e-14 0)
(-1.23037e-14 -1.58694e-14 0)
(-1.34191e-14 -1.50468e-14 0)
(-1.41641e-14 -1.36266e-14 0)
(-1.37182e-14 -1.23546e-14 0)
(-1.28883e-14 -1.19281e-14 0)
(-1.11203e-14 -1.15461e-14 0)
(-8.32971e-15 -1.08863e-14 0)
(-5.53865e-15 -9.80504e-15 0)
(-3.64839e-15 -9.11877e-15 0)
(-2.65746e-15 -8.35658e-15 0)
(-2.0228e-15 -7.92348e-15 0)
(-8.77991e-16 -7.28613e-15 0)
(1.28326e-15 -6.8739e-15 0)
(3.6673e-15 -6.9366e-15 0)
(4.73391e-15 -7.17429e-15 0)
(4.75509e-15 -7.66024e-15 0)
(4.92989e-15 -7.82828e-15 0)
(4.94669e-15 -7.56997e-15 0)
(4.76731e-15 -7.18369e-15 0)
(4.78267e-15 -6.25654e-15 0)
(4.78286e-15 -5.80298e-15 0)
(4.84241e-15 -4.84992e-15 0)
(5.52156e-15 -4.08914e-15 0)
(6.10018e-15 -3.89292e-15 0)
(5.69633e-15 -3.87998e-15 0)
(4.66894e-15 -4.25067e-15 0)
(3.9991e-15 -4.24011e-15 0)
(3.82832e-15 -4.08384e-15 0)
(4.0145e-15 -3.62565e-15 0)
(3.8976e-15 -2.85516e-15 0)
(3.56719e-15 -1.76835e-15 0)
(2.94347e-15 -5.06562e-16 0)
(1.47098e-15 -1.93931e-16 0)
(9.9055e-19 1.83513e-16 0)
(-9.49361e-16 5.14504e-16 0)
(-2.55491e-15 8.05919e-16 0)
(-4.87686e-15 1.58848e-15 0)
(-6.7208e-15 2.48423e-15 0)
(-7.6438e-15 3.01511e-15 0)
(-7.85058e-15 4.08549e-15 0)
(-7.28574e-15 4.83294e-15 0)
(-6.9928e-15 4.81492e-15 0)
(-7.84291e-15 4.74137e-15 0)
(-8.55817e-15 4.97741e-15 0)
(-9.04866e-15 5.16547e-15 0)
(-9.87302e-15 4.90181e-15 0)
(-1.14595e-14 4.53462e-15 0)
(-1.26534e-14 3.76937e-15 0)
(-1.22694e-14 3.16037e-15 0)
(-1.13185e-14 2.70219e-15 0)
(-1.09958e-14 2.15538e-15 0)
(-1.14587e-14 1.3299e-15 0)
(-1.23003e-14 9.3574e-16 0)
(-1.29757e-14 9.49939e-16 0)
(-1.25672e-14 1.06906e-16 0)
(-1.13654e-14 -2.85036e-16 0)
(-1.06783e-14 -3.23411e-16 0)
(-1.00822e-14 9.06462e-17 0)
(-9.32367e-15 3.75856e-16 0)
(-8.637e-15 3.43342e-16 0)
(-7.22705e-15 -5.84647e-16 0)
(-5.3126e-15 -1.2544e-15 0)
(-3.80115e-15 -1.37185e-15 0)
(-3.00653e-15 -7.64617e-16 0)
(-2.183e-15 -4.28205e-16 0)
(-8.38862e-16 -3.97256e-16 0)
(-1.99163e-17 -1.64133e-17 0)
(-1.99315e-16 -2.17119e-16 0)
(-1.15908e-15 -1.23091e-15 0)
(-2.85329e-15 -2.29333e-15 0)
(-5.28251e-15 -2.8424e-15 0)
(-7.55968e-15 -2.92074e-15 0)
(-9.49871e-15 -3.32506e-15 0)
(-1.13372e-14 -4.15809e-15 0)
(-1.2453e-14 -5.05736e-15 0)
(-1.34927e-14 -6.13766e-15 0)
(-1.47811e-14 -7.28871e-15 0)
(-1.57712e-14 -8.50611e-15 0)
(-1.58948e-14 -9.21314e-15 0)
(-1.58798e-14 -1.02913e-14 0)
(-1.61554e-14 -1.13801e-14 0)
(-1.69431e-14 -1.26324e-14 0)
(-1.71627e-14 -1.43232e-14 0)
(-1.66807e-14 -1.5815e-14 0)
(-1.65186e-14 -1.72573e-14 0)
(-1.62754e-14 -1.83652e-14 0)
(-1.56616e-14 -1.81015e-14 0)
(-1.4359e-14 -1.74132e-14 0)
(-1.31552e-14 -1.64027e-14 0)
(-1.21808e-14 -1.55976e-14 0)
(-1.1178e-14 -1.48265e-14 0)
(-1.10748e-14 -1.47316e-14 0)
(-1.13259e-14 -1.52411e-14 0)
(-1.14258e-14 -1.59646e-14 0)
(-1.19115e-14 -1.64494e-14 0)
(-1.24072e-14 -1.69863e-14 0)
(-1.29479e-14 -1.79985e-14 0)
(-1.40155e-14 -1.94565e-14 0)
(-1.51185e-14 -2.0972e-14 0)
(-1.57456e-14 -2.19513e-14 0)
(-1.61577e-14 -2.17599e-14 0)
(-1.71198e-14 -2.09847e-14 0)
(-1.78824e-14 -1.92833e-14 0)
(-1.77014e-14 -1.79229e-14 0)
(-1.65433e-14 -1.72969e-14 0)
(-1.40081e-14 -1.62369e-14 0)
(-1.05889e-14 -1.52317e-14 0)
(-7.38034e-15 -1.37681e-14 0)
(-5.01797e-15 -1.26736e-14 0)
(-3.55191e-15 -1.19032e-14 0)
(-2.47675e-15 -1.13804e-14 0)
(-7.19198e-16 -1.04018e-14 0)
(1.90571e-15 -9.32046e-15 0)
(4.26813e-15 -9.20505e-15 0)
(5.16994e-15 -1.00228e-14 0)
(5.61841e-15 -1.05351e-14 0)
(6.2606e-15 -1.07377e-14 0)
(6.6369e-15 -1.04438e-14 0)
(6.87327e-15 -9.88815e-15 0)
(6.77941e-15 -8.87203e-15 0)
(6.65174e-15 -8.1181e-15 0)
(6.99572e-15 -7.03034e-15 0)
(7.54731e-15 -5.96271e-15 0)
(7.77164e-15 -5.63038e-15 0)
(7.23309e-15 -5.68836e-15 0)
(6.21848e-15 -5.44082e-15 0)
(5.41348e-15 -5.26483e-15 0)
(5.10664e-15 -5.13689e-15 0)
(5.51557e-15 -4.46533e-15 0)
(5.5894e-15 -3.38569e-15 0)
(5.07154e-15 -1.88071e-15 0)
(3.87797e-15 -9.29174e-16 0)
(1.90921e-15 -4.48839e-16 0)
(8.14541e-17 1.48129e-17 0)
(-1.38461e-15 6.08836e-16 0)
(-3.24812e-15 1.17904e-15 0)
(-5.78082e-15 2.45388e-15 0)
(-8.30789e-15 3.86837e-15 0)
(-9.75134e-15 4.82562e-15 0)
(-1.0025e-14 5.50955e-15 0)
(-9.79437e-15 6.19123e-15 0)
(-9.74147e-15 6.22074e-15 0)
(-1.04883e-14 6.83686e-15 0)
(-1.15466e-14 7.30236e-15 0)
(-1.25788e-14 7.01458e-15 0)
(-1.38318e-14 6.60069e-15 0)
(-1.55685e-14 5.93019e-15 0)
(-1.68833e-14 5.39545e-15 0)
(-1.67464e-14 4.63828e-15 0)
(-1.57643e-14 3.79748e-15 0)
(-1.5476e-14 2.88783e-15 0)
(-1.59275e-14 2.00918e-15 0)
(-1.65359e-14 1.48516e-15 0)
(-1.72285e-14 1.15426e-15 0)
(-1.68947e-14 7.03332e-16 0)
(-1.54515e-14 1.40721e-16 0)
(-1.423e-14 7.05399e-17 0)
(-1.32123e-14 3.44638e-16 0)
(-1.23928e-14 4.31587e-16 0)
(-1.17836e-14 8.82615e-17 0)
(-1.00907e-14 -5.96953e-16 0)
(-7.55638e-15 -1.27589e-15 0)
(-5.32187e-15 -1.56387e-15 0)
(-3.89402e-15 -1.37773e-15 0)
(-2.79333e-15 -1.03506e-15 0)
(-1.00716e-15 -5.03763e-16 0)
(-1.10632e-16 -9.0425e-17 0)
(-7.91387e-16 -3.95862e-16 0)
(-2.30713e-15 -1.46397e-15 0)
(-4.18249e-15 -2.90341e-15 0)
(-6.47981e-15 -3.43713e-15 0)
(-9.05153e-15 -3.20247e-15 0)
(-1.17556e-14 -3.89436e-15 0)
(-1.42899e-14 -5.11964e-15 0)
(-1.58902e-14 -6.93777e-15 0)
(-1.69862e-14 -8.46374e-15 0)
(-1.83696e-14 -9.3112e-15 0)
(-1.95836e-14 -1.03696e-14 0)
(-2.00651e-14 -1.13356e-14 0)
(-2.04655e-14 -1.28695e-14 0)
(-2.07528e-14 -1.47704e-14 0)
(-2.13211e-14 -1.62183e-14 0)
(-2.14856e-14 -1.73684e-14 0)
(-2.12708e-14 -1.88303e-14 0)
(-2.13724e-14 -2.07244e-14 0)
(-2.04611e-14 -2.21454e-14 0)
(-1.88708e-14 -2.22084e-14 0)
(-1.7233e-14 -2.1493e-14 0)
(-1.58034e-14 -2.09083e-14 0)
(-1.47095e-14 -1.95346e-14 0)
(-1.4023e-14 -1.91512e-14 0)
(-1.42102e-14 -1.95793e-14 0)
(-1.46284e-14 -2.02269e-14 0)
(-1.49195e-14 -2.07659e-14 0)
(-1.53507e-14 -2.16743e-14 0)
(-1.60599e-14 -2.21266e-14 0)
(-1.70922e-14 -2.33526e-14 0)
(-1.8333e-14 -2.51621e-14 0)
(-1.9397e-14 -2.66831e-14 0)
(-1.97391e-14 -2.74248e-14 0)
(-1.98518e-14 -2.72066e-14 0)
(-2.03626e-14 -2.64961e-14 0)
(-2.08611e-14 -2.50275e-14 0)
(-2.09119e-14 -2.37388e-14 0)
(-1.95862e-14 -2.24367e-14 0)
(-1.65884e-14 -2.106e-14 0)
(-1.24374e-14 -1.99886e-14 0)
(-8.45117e-15 -1.82108e-14 0)
(-5.98338e-15 -1.62686e-14 0)
(-4.44583e-15 -1.51764e-14 0)
(-2.76482e-15 -1.43894e-14 0)
(-2.39389e-16 -1.34767e-14 0)
(2.35943e-15 -1.23333e-14 0)
(4.28398e-15 -1.24674e-14 0)
(5.51587e-15 -1.31694e-14 0)
(6.38648e-15 -1.34183e-14 0)
(7.38133e-15 -1.35261e-14 0)
(8.0547e-15 -1.30618e-14 0)
(8.44331e-15 -1.25545e-14 0)
(8.62269e-15 -1.18154e-14 0)
(8.7175e-15 -1.06061e-14 0)
(9.13745e-15 -9.3759e-15 0)
(9.47036e-15 -8.2042e-15 0)
(9.33754e-15 -7.52327e-15 0)
(8.7941e-15 -7.03561e-15 0)
(7.68302e-15 -6.39882e-15 0)
(6.58516e-15 -5.98893e-15 0)
(6.45428e-15 -5.45872e-15 0)
(7.06556e-15 -4.39661e-15 0)
(7.26695e-15 -3.31276e-15 0)
(6.45124e-15 -2.50163e-15 0)
(4.59114e-15 -1.70164e-15 0)
(2.15346e-15 -8.34423e-16 0)
(3.07231e-17 -2.31706e-16 0)
(-1.65042e-15 7.45053e-16 0)
(-3.64661e-15 1.80635e-15 0)
(-6.3091e-15 3.31083e-15 0)
(-9.26923e-15 4.864e-15 0)
(-1.13806e-14 6.37731e-15 0)
(-1.21281e-14 7.2918e-15 0)
(-1.21303e-14 8.02679e-15 0)
(-1.19598e-14 8.04507e-15 0)
(-1.2738e-14 8.86168e-15 0)
(-1.44982e-14 8.99406e-15 0)
(-1.60228e-14 8.72067e-15 0)
(-1.74982e-14 8.30937e-15 0)
(-1.95002e-14 7.56116e-15 0)
(-2.10019e-14 7.00083e-15 0)
(-2.09705e-14 6.2277e-15 0)
(-2.01189e-14 5.16032e-15 0)
(-1.97902e-14 4.0373e-15 0)
(-2.0053e-14 3.13054e-15 0)
(-2.063e-14 2.28259e-15 0)
(-2.1249e-14 1.56993e-15 0)
(-2.08468e-14 1.19558e-15 0)
(-1.91095e-14 7.58511e-16 0)
(-1.7457e-14 6.72878e-16 0)
(-1.62748e-14 4.71398e-16 0)
(-1.53671e-14 5.83079e-17 0)
(-1.4545e-14 -1.95881e-16 0)
(-1.26193e-14 -6.76911e-16 0)
(-9.68065e-15 -1.31073e-15 0)
(-6.88704e-15 -1.68581e-15 0)
(-5.02083e-15 -1.85656e-15 0)
(-3.3373e-15 -1.46873e-15 0)
(-9.81248e-16 -4.9791e-16 0)
(-1.84202e-16 -1.4861e-16 0)
(-1.2492e-15 -9.40534e-16 0)
(-3.4611e-15 -1.81919e-15 0)
(-5.3618e-15 -2.85997e-15 0)
(-7.29714e-15 -3.65169e-15 0)
(-1.04741e-14 -4.2398e-15 0)
(-1.42158e-14 -4.92846e-15 0)
(-1.75169e-14 -6.58786e-15 0)
(-1.93988e-14 -8.61053e-15 0)
(-2.02111e-14 -1.02943e-14 0)
(-2.16185e-14 -1.13776e-14 0)
(-2.31238e-14 -1.24839e-14 0)
(-2.39291e-14 -1.36897e-14 0)
(-2.48036e-14 -1.52546e-14 0)
(-2.51125e-14 -1.7133e-14 0)
(-2.53929e-14 -1.89187e-14 0)
(-2.56763e-14 -2.00979e-14 0)
(-2.58418e-14 -2.1743e-14 0)
(-2.57793e-14 -2.36636e-14 0)
(-2.42735e-14 -2.5266e-14 0)
(-2.20654e-14 -2.57796e-14 0)
(-2.01366e-14 -2.4942e-14 0)
(-1.82001e-14 -2.40013e-14 0)
(-1.70875e-14 -2.3465e-14 0)
(-1.71405e-14 -2.38955e-14 0)
(-1.7594e-14 -2.47812e-14 0)
(-1.78295e-14 -2.57035e-14 0)
(-1.81277e-14 -2.62563e-14 0)
(-1.86265e-14 -2.69771e-14 0)
(-1.94866e-14 -2.75834e-14 0)
(-2.12224e-14 -2.87226e-14 0)
(-2.27803e-14 -3.05127e-14 0)
(-2.34559e-14 -3.2318e-14 0)
(-2.32328e-14 -3.30343e-14 0)
(-2.30053e-14 -3.2666e-14 0)
(-2.33642e-14 -3.2031e-14 0)
(-2.37772e-14 -3.09836e-14 0)
(-2.34675e-14 -2.92777e-14 0)
(-2.16896e-14 -2.73186e-14 0)
(-1.8563e-14 -2.57163e-14 0)
(-1.39682e-14 -2.45244e-14 0)
(-9.17823e-15 -2.27891e-14 0)
(-6.38757e-15 -2.07719e-14 0)
(-4.8916e-15 -1.86365e-14 0)
(-3.10565e-15 -1.72382e-14 0)
(-2.24959e-16 -1.61924e-14 0)
(2.50277e-15 -1.56555e-14 0)
(4.27849e-15 -1.60274e-14 0)
(5.67375e-15 -1.64924e-14 0)
(6.96015e-15 -1.64271e-14 0)
(8.38486e-15 -1.63235e-14 0)
(9.36436e-15 -1.57136e-14 0)
(9.8906e-15 -1.50582e-14 0)
(1.03737e-14 -1.43553e-14 0)
(1.06733e-14 -1.30448e-14 0)
(1.1089e-14 -1.17701e-14 0)
(1.13526e-14 -1.04762e-14 0)
(1.11239e-14 -9.37096e-15 0)
(1.04802e-14 -8.48834e-15 0)
(9.21631e-15 -7.60447e-15 0)
(8.06985e-15 -6.3583e-15 0)
(7.96199e-15 -5.21107e-15 0)
(8.49856e-15 -3.89137e-15 0)
(8.07905e-15 -3.2627e-15 0)
(6.97559e-15 -3.05781e-15 0)
(5.36714e-15 -2.53817e-15 0)
(2.70383e-15 -1.74657e-15 0)
(3.15062e-16 -5.25515e-16 0)
(-1.52087e-15 1.00275e-15 0)
(-3.75554e-15 2.62476e-15 0)
(-6.70584e-15 4.71863e-15 0)
(-9.93821e-15 6.21009e-15 0)
(-1.2406e-14 7.79519e-15 0)
(-1.36075e-14 8.96294e-15 0)
(-1.42355e-14 9.75085e-15 0)
(-1.42912e-14 9.86876e-15 0)
(-1.51918e-14 1.03047e-14 0)
(-1.73552e-14 1.05455e-14 0)
(-1.91036e-14 1.07803e-14 0)
(-2.10066e-14 1.00901e-14 0)
(-2.31145e-14 8.97521e-15 0)
(-2.46439e-14 8.84351e-15 0)
(-2.49923e-14 8.14633e-15 0)
(-2.42965e-14 6.89576e-15 0)
(-2.38936e-14 5.60596e-15 0)
(-2.41786e-14 4.34298e-15 0)
(-2.46816e-14 3.2395e-15 0)
(-2.49786e-14 2.43479e-15 0)
(-2.42855e-14 2.00098e-15 0)
(-2.23832e-14 1.83775e-15 0)
(-2.06528e-14 1.18738e-15 0)
(-1.94427e-14 5.04864e-16 0)
(-1.81318e-14 -3.40854e-16 0)
(-1.69682e-14 -5.4249e-16 0)
(-1.49116e-14 -9.85169e-16 0)
(-1.16708e-14 -1.56603e-15 0)
(-8.51645e-15 -1.73684e-15 0)
(-5.99116e-15 -1.92664e-15 0)
(-3.56118e-15 -1.21531e-15 0)
(-9.68563e-16 -3.25946e-16 0)
(-5.46221e-16 -2.96346e-16 0)
(-1.89849e-15 -1.47283e-15 0)
(-4.01467e-15 -2.50926e-15 0)
(-6.37382e-15 -3.14975e-15 0)
(-8.97671e-15 -4.04132e-15 0)
(-1.2143e-14 -5.42466e-15 0)
(-1.62764e-14 -6.49814e-15 0)
(-2.03725e-14 -8.03882e-15 0)
(-2.25069e-14 -9.85959e-15 0)
(-2.33764e-14 -1.15723e-14 0)
(-2.47607e-14 -1.32604e-14 0)
(-2.64434e-14 -1.46199e-14 0)
(-2.75655e-14 -1.60233e-14 0)
(-2.86728e-14 -1.75377e-14 0)
(-2.92572e-14 -1.92131e-14 0)
(-2.94011e-14 -2.12749e-14 0)
(-2.95429e-14 -2.2487e-14 0)
(-2.99654e-14 -2.41858e-14 0)
(-3.01282e-14 -2.58721e-14 0)
(-2.82364e-14 -2.72572e-14 0)
(-2.48326e-14 -2.78112e-14 0)
(-2.20217e-14 -2.76336e-14 0)
(-2.06434e-14 -2.69244e-14 0)
(-2.03589e-14 -2.79626e-14 0)
(-2.05305e-14 -2.92577e-14 0)
(-2.09398e-14 -3.01513e-14 0)
(-2.10461e-14 -3.08785e-14 0)
(-2.11975e-14 -3.16316e-14 0)
(-2.17389e-14 -3.20124e-14 0)
(-2.28802e-14 -3.29051e-14 0)
(-2.49628e-14 -3.42437e-14 0)
(-2.69304e-14 -3.57371e-14 0)
(-2.74949e-14 -3.72195e-14 0)
(-2.65597e-14 -3.80092e-14 0)
(-2.59764e-14 -3.80253e-14 0)
(-2.61845e-14 -3.77617e-14 0)
(-2.59092e-14 -3.68371e-14 0)
(-2.50689e-14 -3.51097e-14 0)
(-2.33733e-14 -3.25753e-14 0)
(-2.03217e-14 -3.06094e-14 0)
(-1.53433e-14 -2.87074e-14 0)
(-9.96012e-15 -2.66234e-14 0)
(-6.39624e-15 -2.47749e-14 0)
(-4.53126e-15 -2.23086e-14 0)
(-2.88893e-15 -2.05102e-14 0)
(-2.40704e-16 -1.88204e-14 0)
(2.04983e-15 -1.90071e-14 0)
(3.88993e-15 -1.99151e-14 0)
(5.96392e-15 -2.00942e-14 0)
(7.63887e-15 -1.90176e-14 0)
(9.30399e-15 -1.85563e-14 0)
(1.05622e-14 -1.80673e-14 0)
(1.11381e-14 -1.75231e-14 0)
(1.1885e-14 -1.65745e-14 0)
(1.24758e-14 -1.52111e-14 0)
(1.29615e-14 -1.37083e-14 0)
(1.32368e-14 -1.23937e-14 0)
(1.2816e-14 -1.11716e-14 0)
(1.204e-14 -1.01601e-14 0)
(1.10415e-14 -8.78947e-15 0)
(9.92227e-15 -6.80742e-15 0)
(9.59867e-15 -5.03757e-15 0)
(9.5609e-15 -3.8883e-15 0)
(8.64048e-15 -3.48942e-15 0)
(7.38798e-15 -3.06406e-15 0)
(5.53765e-15 -2.90529e-15 0)
(3.12246e-15 -2.08268e-15 0)
(9.8024e-16 -3.92218e-16 0)
(-1.0183e-15 1.51993e-15 0)
(-3.24306e-15 3.54327e-15 0)
(-6.6461e-15 5.64564e-15 0)
(-1.05697e-14 7.32785e-15 0)
(-1.33999e-14 8.94189e-15 0)
(-1.50834e-14 1.00538e-14 0)
(-1.61033e-14 1.0745e-14 0)
(-1.64006e-14 1.16052e-14 0)
(-1.73169e-14 1.19971e-14 0)
(-1.94807e-14 1.25178e-14 0)
(-2.19506e-14 1.26418e-14 0)
(-2.46632e-14 1.20459e-14 0)
(-2.6465e-14 1.12816e-14 0)
(-2.78185e-14 1.09412e-14 0)
(-2.87069e-14 1.00108e-14 0)
(-2.83303e-14 8.72345e-15 0)
(-2.80207e-14 7.07178e-15 0)
(-2.81509e-14 5.81925e-15 0)
(-2.83741e-14 4.72406e-15 0)
(-2.8422e-14 3.90797e-15 0)
(-2.73884e-14 3.32695e-15 0)
(-2.55717e-14 2.96192e-15 0)
(-2.39844e-14 1.57087e-15 0)
(-2.25499e-14 5.7577e-16 0)
(-2.08191e-14 -3.44243e-16 0)
(-1.91758e-14 -8.40377e-16 0)
(-1.69772e-14 -1.08174e-15 0)
(-1.32949e-14 -1.51567e-15 0)
(-9.70442e-15 -1.31864e-15 0)
(-6.72252e-15 -1.47866e-15 0)
(-3.8265e-15 -9.37697e-16 0)
(-1.15297e-15 -2.88858e-16 0)
(-7.61887e-16 -4.82223e-16 0)
(-2.50007e-15 -1.49481e-15 0)
(-4.75777e-15 -2.73277e-15 0)
(-7.06937e-15 -3.99967e-15 0)
(-1.01225e-14 -4.94993e-15 0)
(-1.40231e-14 -6.4143e-15 0)
(-1.84519e-14 -8.08127e-15 0)
(-2.28321e-14 -9.31865e-15 0)
(-2.53211e-14 -1.12809e-14 0)
(-2.64704e-14 -1.30146e-14 0)
(-2.80106e-14 -1.49714e-14 0)
(-2.96513e-14 -1.67317e-14 0)
(-3.08539e-14 -1.80805e-14 0)
(-3.21436e-14 -1.94611e-14 0)
(-3.30103e-14 -2.10818e-14 0)
(-3.30654e-14 -2.31789e-14 0)
(-3.31785e-14 -2.44314e-14 0)
(-3.37825e-14 -2.61099e-14 0)
(-3.35659e-14 -2.72147e-14 0)
(-3.12706e-14 -2.80816e-14 0)
(-2.79042e-14 -2.89958e-14 0)
(-2.49795e-14 -3.04274e-14 0)
(-2.38244e-14 -3.11888e-14 0)
(-2.40524e-14 -3.25443e-14 0)
(-2.38739e-14 -3.39985e-14 0)
(-2.38189e-14 -3.48925e-14 0)
(-2.39119e-14 -3.56676e-14 0)
(-2.39729e-14 -3.64734e-14 0)
(-2.46443e-14 -3.65796e-14 0)
(-2.63256e-14 -3.75021e-14 0)
(-2.86647e-14 -3.92313e-14 0)
(-3.05312e-14 -4.0854e-14 0)
(-3.09238e-14 -4.20909e-14 0)
(-2.9865e-14 -4.27564e-14 0)
(-2.90721e-14 -4.32647e-14 0)
(-2.88605e-14 -4.31616e-14 0)
(-2.81766e-14 -4.22899e-14 0)
(-2.64883e-14 -4.09063e-14 0)
(-2.41685e-14 -3.78895e-14 0)
(-2.09999e-14 -3.47627e-14 0)
(-1.57121e-14 -3.23247e-14 0)
(-1.02961e-14 -3.03707e-14 0)
(-6.53619e-15 -2.86856e-14 0)
(-4.39082e-15 -2.65015e-14 0)
(-2.50108e-15 -2.42454e-14 0)
(-4.20225e-16 -2.23654e-14 0)
(1.02535e-15 -2.22065e-14 0)
(3.36793e-15 -2.262e-14 0)
(6.68736e-15 -2.28e-14 0)
(8.80639e-15 -2.20378e-14 0)
(1.00667e-14 -2.13392e-14 0)
(1.12981e-14 -2.04508e-14 0)
(1.22973e-14 -1.96813e-14 0)
(1.34814e-14 -1.84301e-14 0)
(1.42666e-14 -1.69735e-14 0)
(1.47102e-14 -1.55386e-14 0)
(1.48081e-14 -1.40049e-14 0)
(1.43525e-14 -1.28588e-14 0)
(1.37515e-14 -1.14851e-14 0)
(1.30705e-14 -9.45818e-15 0)
(1.20353e-14 -7.44542e-15 0)
(1.10963e-14 -5.21031e-15 0)
(1.0376e-14 -4.30143e-15 0)
(9.13962e-15 -3.72254e-15 0)
(7.52893e-15 -3.4608e-15 0)
(5.829e-15 -3.27114e-15 0)
(3.85288e-15 -1.95967e-15 0)
(1.77543e-15 1.33011e-16 0)
(-3.43303e-16 2.21649e-15 0)
(-2.98521e-15 4.34947e-15 0)
(-6.72606e-15 6.20621e-15 0)
(-1.08133e-14 8.30076e-15 0)
(-1.41195e-14 1.03713e-14 0)
(-1.6329e-14 1.16275e-14 0)
(-1.73978e-14 1.24242e-14 0)
(-1.78925e-14 1.34987e-14 0)
(-1.92576e-14 1.40399e-14 0)
(-2.18379e-14 1.45826e-14 0)
(-2.46234e-14 1.42275e-14 0)
(-2.73785e-14 1.38995e-14 0)
(-2.94673e-14 1.39767e-14 0)
(-3.1246e-14 1.3193e-14 0)
(-3.23699e-14 1.19655e-14 0)
(-3.2239e-14 1.05247e-14 0)
(-3.18137e-14 8.98517e-15 0)
(-3.16711e-14 7.57983e-15 0)
(-3.18043e-14 6.27775e-15 0)
(-3.16234e-14 5.32859e-15 0)
(-3.04346e-14 4.61345e-15 0)
(-2.88973e-14 3.89928e-15 0)
(-2.73331e-14 2.53292e-15 0)
(-2.54151e-14 9.79548e-16 0)
(-2.33184e-14 -3.18439e-16 0)
(-2.11953e-14 -9.08177e-16 0)
(-1.86131e-14 -1.02693e-15 0)
(-1.4577e-14 -9.66823e-16 0)
(-1.07775e-14 -1.14905e-15 0)
(-7.59862e-15 -1.43405e-15 0)
(-4.22058e-15 -1.13308e-15 0)
(-1.25963e-15 -4.45243e-16 0)
(-8.35627e-16 -5.35457e-16 0)
(-2.87169e-15 -1.60544e-15 0)
(-5.64561e-15 -2.76331e-15 0)
(-8.29297e-15 -4.1168e-15 0)
(-1.1565e-14 -5.91923e-15 0)
(-1.57879e-14 -7.66905e-15 0)
(-2.02681e-14 -9.28523e-15 0)
(-2.50635e-14 -1.06618e-14 0)
(-2.80059e-14 -1.26199e-14 0)
(-2.92745e-14 -1.49215e-14 0)
(-3.10409e-14 -1.67897e-14 0)
(-3.25948e-14 -1.8449e-14 0)
(-3.37049e-14 -1.96853e-14 0)
(-3.52254e-14 -2.10304e-14 0)
(-3.6502e-14 -2.26033e-14 0)
(-3.65045e-14 -2.46408e-14 0)
(-3.64448e-14 -2.62799e-14 0)
(-3.68492e-14 -2.7309e-14 0)
(-3.6487e-14 -2.78347e-14 0)
(-3.44975e-14 -2.92492e-14 0)
(-3.15126e-14 -3.13202e-14 0)
(-2.85525e-14 -3.37357e-14 0)
(-2.70496e-14 -3.5689e-14 0)
(-2.71917e-14 -3.67737e-14 0)
(-2.69471e-14 -3.74062e-14 0)
(-2.6805e-14 -3.8392e-14 0)
(-2.68323e-14 -3.95155e-14 0)
(-2.65213e-14 -4.0756e-14 0)
(-2.72201e-14 -4.12946e-14 0)
(-2.96653e-14 -4.21902e-14 0)
(-3.24081e-14 -4.37363e-14 0)
(-3.4188e-14 -4.54566e-14 0)
(-3.42397e-14 -4.71407e-14 0)
(-3.29554e-14 -4.79512e-14 0)
(-3.1957e-14 -4.84342e-14 0)
(-3.1225e-14 -4.79562e-14 0)
(-2.99714e-14 -4.6791e-14 0)
(-2.73833e-14 -4.49078e-14 0)
(-2.41019e-14 -4.23329e-14 0)
(-2.10574e-14 -3.90341e-14 0)
(-1.6437e-14 -3.647e-14 0)
(-1.10474e-14 -3.47638e-14 0)
(-6.72619e-15 -3.27141e-14 0)
(-3.84646e-15 -3.0968e-14 0)
(-1.83889e-15 -2.8217e-14 0)
(-1.60043e-16 -2.61512e-14 0)
(9.8487e-16 -2.50397e-14 0)
(3.06208e-15 -2.47551e-14 0)
(6.41312e-15 -2.48426e-14 0)
(9.06652e-15 -2.49548e-14 0)
(1.10808e-14 -2.41386e-14 0)
(1.25825e-14 -2.25003e-14 0)
(1.35656e-14 -2.14204e-14 0)
(1.49212e-14 -2.02438e-14 0)
(1.5724e-14 -1.88923e-14 0)
(1.63205e-14 -1.71989e-14 0)
(1.64099e-14 -1.5457e-14 0)
(1.58583e-14 -1.39438e-14 0)
(1.56675e-14 -1.21919e-14 0)
(1.50257e-14 -1.00155e-14 0)
(1.39016e-14 -8.15234e-15 0)
(1.2572e-14 -5.87444e-15 0)
(1.10897e-14 -4.47795e-15 0)
(9.43201e-15 -3.71198e-15 0)
(7.59228e-15 -3.66274e-15 0)
(6.16965e-15 -3.53085e-15 0)
(4.76637e-15 -2.17514e-15 0)
(2.76628e-15 5.13949e-16 0)
(3.44593e-16 2.78453e-15 0)
(-2.51116e-15 5.33227e-15 0)
(-6.39709e-15 7.62314e-15 0)
(-1.05835e-14 9.82951e-15 0)
(-1.43946e-14 1.20614e-14 0)
(-1.73151e-14 1.35365e-14 0)
(-1.87142e-14 1.44679e-14 0)
(-1.94105e-14 1.51355e-14 0)
(-2.09141e-14 1.59195e-14 0)
(-2.3926e-14 1.66077e-14 0)
(-2.72147e-14 1.62403e-14 0)
(-2.97698e-14 1.60429e-14 0)
(-3.20399e-14 1.60595e-14 0)
(-3.44511e-14 1.53761e-14 0)
(-3.58824e-14 1.41331e-14 0)
(-3.57579e-14 1.24858e-14 0)
(-3.54134e-14 1.0821e-14 0)
(-3.53326e-14 9.05616e-15 0)
(-3.51508e-14 7.47072e-15 0)
(-3.46531e-14 6.38389e-15 0)
(-3.32797e-14 5.60422e-15 0)
(-3.17191e-14 4.78816e-15 0)
(-3.04702e-14 3.70541e-15 0)
(-2.86542e-14 1.74014e-15 0)
(-2.58385e-14 1.67158e-16 0)
(-2.29197e-14 -5.58907e-16 0)
(-1.98212e-14 -9.39094e-16 0)
(-1.57713e-14 -6.093e-16 0)
(-1.20491e-14 -1.38575e-15 0)
(-8.37507e-15 -1.63883e-15 0)
(-4.49525e-15 -1.24201e-15 0)
(-1.20351e-15 -5.79632e-16 0)
(-9.39399e-16 -8.17734e-16 0)
(-3.15762e-15 -2.02297e-15 0)
(-6.10323e-15 -3.2873e-15 0)
(-9.37347e-15 -4.23928e-15 0)
(-1.32042e-14 -6.20394e-15 0)
(-1.74489e-14 -8.27416e-15 0)
(-2.2068e-14 -1.01323e-14 0)
(-2.71381e-14 -1.20332e-14 0)
(-3.07136e-14 -1.36299e-14 0)
(-3.21684e-14 -1.60444e-14 0)
(-3.35712e-14 -1.84756e-14 0)
(-3.50426e-14 -2.04005e-14 0)
(-3.62666e-14 -2.1428e-14 0)
(-3.80122e-14 -2.27308e-14 0)
(-3.95565e-14 -2.41898e-14 0)
(-3.97968e-14 -2.56768e-14 0)
(-3.92807e-14 -2.74273e-14 0)
(-3.91588e-14 -2.81226e-14 0)
(-3.92981e-14 -2.89096e-14 0)
(-3.81861e-14 -3.03943e-14 0)
(-3.55733e-14 -3.33817e-14 0)
(-3.25504e-14 -3.66575e-14 0)
(-3.03829e-14 -3.92571e-14 0)
(-2.9596e-14 -4.05275e-14 0)
(-2.9306e-14 -4.11767e-14 0)
(-2.95918e-14 -4.24217e-14 0)
(-2.98803e-14 -4.33001e-14 0)
(-2.9553e-14 -4.44016e-14 0)
(-3.0046e-14 -4.57752e-14 0)
(-3.25742e-14 -4.67518e-14 0)
(-3.56525e-14 -4.7977e-14 0)
(-3.77724e-14 -4.98812e-14 0)
(-3.7655e-14 -5.15751e-14 0)
(-3.58611e-14 -5.23305e-14 0)
(-3.42329e-14 -5.27995e-14 0)
(-3.28573e-14 -5.21217e-14 0)
(-3.10988e-14 -5.06875e-14 0)
(-2.82279e-14 -4.85493e-14 0)
(-2.46155e-14 -4.63445e-14 0)
(-2.11094e-14 -4.38904e-14 0)
(-1.65737e-14 -4.10534e-14 0)
(-1.1066e-14 -3.89534e-14 0)
(-6.77741e-15 -3.66126e-14 0)
(-3.60585e-15 -3.46693e-14 0)
(-9.72708e-16 -3.18751e-14 0)
(3.96718e-16 -3.01438e-14 0)
(9.98437e-16 -2.89142e-14 0)
(2.88098e-15 -2.77283e-14 0)
(6.2727e-15 -2.68255e-14 0)
(9.35689e-15 -2.66164e-14 0)
(1.21434e-14 -2.53354e-14 0)
(1.37528e-14 -2.41594e-14 0)
(1.4551e-14 -2.3172e-14 0)
(1.60374e-14 -2.20876e-14 0)
(1.72761e-14 -2.07833e-14 0)
(1.8054e-14 -1.85881e-14 0)
(1.80379e-14 -1.65228e-14 0)
(1.75729e-14 -1.46577e-14 0)
(1.7402e-14 -1.29859e-14 0)
(1.67035e-14 -1.12262e-14 0)
(1.5605e-14 -9.05185e-15 0)
(1.41509e-14 -6.76737e-15 0)
(1.21154e-14 -4.81033e-15 0)
(9.65289e-15 -3.85914e-15 0)
(7.30644e-15 -3.45362e-15 0)
(6.26246e-15 -2.96015e-15 0)
(5.82819e-15 -1.36716e-15 0)
(4.05634e-15 1.20642e-15 0)
(1.44717e-15 3.8096e-15 0)
(-1.57272e-15 6.47958e-15 0)
(-5.9476e-15 9.02971e-15 0)
(-1.04339e-14 1.13701e-14 0)
(-1.45918e-14 1.34478e-14 0)
(-1.80244e-14 1.52586e-14 0)
(-1.99109e-14 1.60963e-14 0)
(-2.0707e-14 1.67289e-14 0)
(-2.22307e-14 1.77301e-14 0)
(-2.58175e-14 1.85001e-14 0)
(-2.93994e-14 1.88694e-14 0)
(-3.19986e-14 1.86113e-14 0)
(-3.45465e-14 1.82181e-14 0)
(-3.73233e-14 1.72159e-14 0)
(-3.91954e-14 1.58619e-14 0)
(-3.9382e-14 1.4214e-14 0)
(-3.90206e-14 1.20847e-14 0)
(-3.8768e-14 1.01999e-14 0)
(-3.83184e-14 8.762e-15 0)
(-3.74215e-14 7.42813e-15 0)
(-3.58654e-14 6.90423e-15 0)
(-3.43358e-14 5.779e-15 0)
(-3.33549e-14 4.567e-15 0)
(-3.14924e-14 2.75185e-15 0)
(-2.81434e-14 1.48546e-15 0)
(-2.47772e-14 4.54327e-16 0)