/*--------------------------------*- C++ -*----------------------------------*\
| =========                 |                                                 |
| \\      /  F ield         | OpenFOAM: The Open Source CFD Toolbox           |
|  \\    /   O peration     | Version:  v2012                                 |
|   \\  /    A nd           | Website:  www.openfoam.com                      |
|    \\/     M anipulation  |                                                 |
\*---------------------------------------------------------------------------*/
FoamFile
{
    version     2.0;
    format      ascii;
    class       volVectorField;
    location    "70";
    object      Usup;
}
// * * * * * * * * * * * * * * * * * * * * * * * * * * * * * * * * * * * * * //

dimensions      [0 1 -1 0 0 0 0];


internalField   nonuniform List<vector> 
4000
(
(-1.35012e-16 -1.48712e-16 0)
(-4.47096e-17 9.07899e-17 0)
(1.75195e-16 1.78585e-16 0)
(1.96948e-16 3.40966e-16 0)
(2.72699e-16 3.89009e-16 0)
(-1.51619e-16 1.66166e-16 0)
(-9.69523e-16 -1.93306e-16 0)
(-1.55476e-15 3.27463e-16 0)
(-1.3847e-15 9.53955e-16 0)
(-9.3576e-16 1.08828e-15 0)
(-1.00093e-15 7.09196e-16 0)
(-1.52044e-15 4.25128e-16 0)
(-2.14915e-15 7.64004e-16 0)
(-2.11747e-15 1.18378e-15 0)
(-1.51244e-15 1.33647e-15 0)
(-1.36451e-15 8.08487e-16 0)
(-2.24273e-15 5.598e-16 0)
(-3.24552e-15 8.23268e-16 0)
(-3.40396e-15 1.20116e-15 0)
(-3.17297e-15 1.13103e-15 0)
(-3.0772e-15 1.17013e-15 0)
(-3.02907e-15 9.05058e-16 0)
(-2.83568e-15 8.45031e-16 0)
(-2.65748e-15 7.40173e-16 0)
(-2.63216e-15 8.73723e-16 0)
(-2.08295e-15 1.09896e-15 0)
(-1.55031e-15 1.08194e-15 0)
(-1.72676e-15 9.61961e-16 0)
(-2.48532e-15 9.47894e-16 0)
(-2.19984e-15 1.49085e-15 0)
(-1.28797e-15 1.63055e-15 0)
(-1.47637e-15 1.45488e-15 0)
(-1.53354e-15 1.42745e-15 0)
(-9.4315e-16 1.32837e-15 0)
(-7.15234e-16 8.66746e-16 0)
(-1.06266e-15 5.95288e-16 0)
(-1.64036e-15 8.54368e-16 0)
(-1.56716e-15 1.24163e-15 0)
(-5.98398e-16 1.49931e-15 0)
(5.10858e-16 1.64875e-15 0)
(1.33567e-15 1.19413e-15 0)
(1.04566e-15 4.55371e-16 0)
(4.17981e-16 2.36626e-16 0)
(2.62491e-16 3.98413e-16 0)
(3.15746e-16 6.5556e-16 0)
(3.03681e-16 1.00989e-15 0)
(2.57882e-16 6.77318e-16 0)
(3.98971e-16 5.6978e-16 0)
(6.05977e-16 7.58644e-16 0)
(9.76173e-16 7.32016e-16 0)
(1.12396e-15 4.34533e-16 0)
(6.20387e-16 2.67551e-16 0)
(3.89791e-16 6.84251e-16 0)
(6.57584e-16 6.09281e-16 0)
(1.23677e-15 6.51261e-16 0)
(1.85831e-15 8.40583e-16 0)
(2.01533e-15 6.94845e-16 0)
(2.08405e-15 6.67056e-16 0)
(1.91818e-15 7.52167e-16 0)
(1.52375e-15 6.08113e-16 0)
(1.38928e-15 4.80786e-16 0)
(1.32624e-15 2.4199e-16 0)
(1.30034e-15 2.75143e-16 0)
(1.39731e-15 5.35352e-16 0)
(1.85451e-15 7.70523e-16 0)
(2.31649e-15 5.65502e-16 0)
(2.167e-15 4.85539e-16 0)
(2.18619e-15 7.23806e-16 0)
(2.58245e-15 1.03754e-15 0)
(2.84401e-15 8.71596e-16 0)
(3.12742e-15 5.82801e-16 0)
(2.78246e-15 6.0189e-16 0)
(2.04556e-15 8.21321e-16 0)
(2.13221e-15 8.71748e-16 0)
(2.77145e-15 7.49244e-16 0)
(3.06343e-15 5.82473e-16 0)
(2.75442e-15 5.33376e-16 0)
(2.66299e-15 5.26124e-16 0)
(2.44657e-15 4.83973e-16 0)
(2.29944e-15 6.06442e-16 0)
(2.60011e-15 5.33214e-16 0)
(2.51529e-15 6.36611e-16 0)
(2.41551e-15 8.76261e-16 0)
(3.21397e-15 8.23801e-16 0)
(3.80394e-15 1.29549e-16 0)
(3.34724e-15 6.98643e-17 0)
(3.29286e-15 4.26767e-16 0)
(3.67662e-15 2.41557e-16 0)
(3.35353e-15 5.48808e-17 0)
(3.14123e-15 2.5001e-16 0)
(3.43663e-15 1.12366e-16 0)
(2.87734e-15 -1.16605e-16 0)
(1.96906e-15 1.31727e-16 0)
(1.47345e-15 2.36098e-16 0)
(1.31498e-15 1.65515e-16 0)
(1.3121e-15 4.01356e-16 0)
(1.60579e-15 5.85729e-16 0)
(1.85269e-15 2.2583e-16 0)
(1.47673e-15 2.86375e-16 0)
(6.61002e-16 1.52516e-16 0)
(-3.23014e-17 -1.88051e-16 0)
(1.3846e-16 1.20029e-16 0)
(3.8951e-16 3.54994e-16 0)
(3.59296e-16 6.19062e-16 0)
(2.36281e-17 8.16255e-16 0)
(-1.3127e-15 6.13759e-16 0)
(-2.54348e-15 2.91189e-16 0)
(-3.11044e-15 1.05737e-15 0)
(-3.24551e-15 2.29705e-15 0)
(-3.28442e-15 2.75095e-15 0)
(-3.82431e-15 2.35534e-15 0)
(-4.42628e-15 1.79834e-15 0)
(-5.19694e-15 2.41538e-15 0)
(-5.3806e-15 3.27425e-15 0)
(-5.09934e-15 3.5326e-15 0)
(-5.32007e-15 2.73553e-15 0)
(-6.58769e-15 2.27359e-15 0)
(-8.23578e-15 2.52691e-15 0)
(-9.03267e-15 3.21484e-15 0)
(-8.96648e-15 3.12344e-15 0)
(-8.8954e-15 3.02591e-15 0)
(-8.7833e-15 2.67811e-15 0)
(-8.20695e-15 2.61014e-15 0)
(-7.59765e-15 2.65071e-15 0)
(-7.05991e-15 3.16081e-15 0)
(-5.98718e-15 3.39182e-15 0)
(-5.15417e-15 2.98428e-15 0)
(-5.4099e-15 2.93373e-15 0)
(-6.15741e-15 3.24588e-15 0)
(-5.43898e-15 4.43042e-15 0)
(-4.24173e-15 4.52553e-15 0)
(-4.42723e-15 4.24973e-15 0)
(-4.26789e-15 4.07388e-15 0)
(-3.42477e-15 3.74494e-15 0)
(-3.05038e-15 2.85684e-15 0)
(-3.11504e-15 2.53406e-15 0)
(-3.58127e-15 2.96804e-15 0)
(-3.21059e-15 3.64332e-15 0)
(-1.23715e-15 4.08486e-15 0)
(7.416e-16 4.00697e-15 0)
(1.89424e-15 2.9873e-15 0)
(1.71395e-15 1.70601e-15 0)
(1.23827e-15 1.42699e-15 0)
(1.20571e-15 1.4847e-15 0)
(1.39303e-15 2.12799e-15 0)
(9.53263e-16 2.24727e-15 0)
(5.99381e-16 1.9874e-15 0)
(1.33118e-15 1.8899e-15 0)
(1.91532e-15 2.2471e-15 0)
(2.33001e-15 2.29586e-15 0)
(2.51622e-15 1.55242e-15 0)
(2.18656e-15 1.3161e-15 0)
(1.88469e-15 2.02118e-15 0)
(2.2472e-15 1.9815e-15 0)
(3.75141e-15 1.95212e-15 0)
(4.98877e-15 2.05307e-15 0)
(5.33724e-15 2.08068e-15 0)
(5.68785e-15 2.19573e-15 0)
(5.25861e-15 2.18597e-15 0)
(4.32539e-15 1.75169e-15 0)
(3.91242e-15 1.29857e-15 0)
(3.88384e-15 6.55759e-16 0)
(4.25592e-15 7.57041e-16 0)
(4.73337e-15 1.69026e-15 0)
(5.39585e-15 2.27742e-15 0)
(6.15361e-15 1.83945e-15 0)
(6.42077e-15 1.67459e-15 0)
(6.9061e-15 2.10901e-15 0)
(7.45746e-15 2.66176e-15 0)
(7.64993e-15 2.3721e-15 0)
(8.30182e-15 1.88459e-15 0)
(7.99593e-15 1.66339e-15 0)
(6.67786e-15 1.96722e-15 0)
(6.5745e-15 2.2418e-15 0)
(7.6211e-15 2.51587e-15 0)
(8.27998e-15 2.06589e-15 0)
(7.90033e-15 1.60377e-15 0)
(7.65366e-15 1.70231e-15 0)
(7.31083e-15 1.78136e-15 0)
(7.03458e-15 2.20509e-15 0)
(7.5413e-15 2.0471e-15 0)
(7.73075e-15 1.96923e-15 0)
(7.66479e-15 1.96802e-15 0)
(8.57047e-15 1.83555e-15 0)
(9.75733e-15 6.97664e-16 0)
(9.88399e-15 4.64064e-16 0)
(9.70405e-15 1.25377e-15 0)
(9.89018e-15 9.51006e-16 0)
(9.5673e-15 1.46149e-16 0)
(9.11443e-15 4.5767e-16 0)
(9.02479e-15 3.94339e-16 0)
(7.99634e-15 -1.21238e-16 0)
(6.23317e-15 2.50945e-16 0)
(4.72022e-15 6.21081e-16 0)
(4.26901e-15 8.58795e-16 0)
(4.33652e-15 1.25677e-15 0)
(4.32693e-15 1.39201e-15 0)
(4.48473e-15 7.91376e-16 0)
(3.64561e-15 9.36894e-16 0)
(1.39374e-15 2.98603e-16 0)
(-6.48429e-17 2.13846e-17 0)
(1.14402e-16 2.24797e-16 0)
(3.42619e-16 3.97766e-16 0)
(2.22087e-16 4.42615e-16 0)
(-3.76439e-16 8.25749e-16 0)
(-2.24541e-15 9.65786e-16 0)
(-3.91874e-15 1.60308e-15 0)
(-4.53884e-15 2.16496e-15 0)
(-4.77806e-15 3.31591e-15 0)
(-5.30114e-15 3.79948e-15 0)
(-6.46714e-15 3.64522e-15 0)
(-7.24727e-15 3.28249e-15 0)
(-7.89665e-15 3.90673e-15 0)
(-8.35735e-15 5.09903e-15 0)
(-8.57505e-15 5.57358e-15 0)
(-9.22924e-15 5.10678e-15 0)
(-1.09054e-14 4.71058e-15 0)
(-1.28334e-14 4.54277e-15 0)
(-1.39806e-14 4.88297e-15 0)
(-1.42966e-14 4.94753e-15 0)
(-1.42162e-14 4.51989e-15 0)
(-1.38916e-14 4.28264e-15 0)
(-1.29473e-14 4.26528e-15 0)
(-1.18111e-14 4.47465e-15 0)
(-1.10947e-14 5.05332e-15 0)
(-1.01756e-14 5.35901e-15 0)
(-8.95229e-15 5.00545e-15 0)
(-8.62105e-15 5.38521e-15 0)
(-9.02768e-15 6.12517e-15 0)
(-8.34957e-15 7.20583e-15 0)
(-7.25488e-15 7.17325e-15 0)
(-7.27892e-15 6.78052e-15 0)
(-6.98427e-15 6.37592e-15 0)
(-5.99825e-15 6.03285e-15 0)
(-5.2821e-15 4.93793e-15 0)
(-4.91747e-15 5.13649e-15 0)
(-5.15551e-15 5.34076e-15 0)
(-4.44094e-15 5.76891e-15 0)
(-2.06409e-15 6.02225e-15 0)
(2.70425e-16 5.76254e-15 0)
(1.84542e-15 4.86526e-15 0)
(2.16541e-15 3.89606e-15 0)
(1.85266e-15 3.39778e-15 0)
(2.03981e-15 2.89749e-15 0)
(2.12067e-15 3.20365e-15 0)
(1.47982e-15 2.93242e-15 0)
(1.37962e-15 3.4219e-15 0)
(2.34952e-15 3.54119e-15 0)
(3.21699e-15 3.5737e-15 0)
(3.43028e-15 3.48427e-15 0)
(3.6234e-15 2.98634e-15 0)
(3.75715e-15 3.01007e-15 0)
(3.55503e-15 3.54363e-15 0)
(3.93835e-15 3.7305e-15 0)
(5.83695e-15 3.59081e-15 0)
(7.74921e-15 3.36361e-15 0)
(8.56727e-15 3.50354e-15 0)
(8.83512e-15 3.55263e-15 0)
(8.01725e-15 3.07305e-15 0)
(6.73337e-15 2.44218e-15 0)
(6.11416e-15 1.82645e-15 0)
(6.34004e-15 1.36324e-15 0)
(7.57129e-15 1.73654e-15 0)
(8.46551e-15 2.61174e-15 0)
(8.82344e-15 3.09928e-15 0)
(9.61642e-15 2.88953e-15 0)
(1.03968e-14 3.17839e-15 0)
(1.13327e-14 3.64936e-15 0)
(1.19524e-14 3.83982e-15 0)
(1.20819e-14 3.7292e-15 0)
(1.27762e-14 3.45386e-15 0)
(1.25384e-14 2.69331e-15 0)
(1.13215e-14 3.10086e-15 0)
(1.14837e-14 4.0308e-15 0)
(1.24237e-14 4.29796e-15 0)
(1.26626e-14 3.41034e-15 0)
(1.25254e-14 2.99133e-15 0)
(1.25818e-14 3.31882e-15 0)
(1.22763e-14 3.63944e-15 0)
(1.18163e-14 3.9915e-15 0)
(1.20785e-14 3.63891e-15 0)
(1.22599e-14 3.33947e-15 0)
(1.24722e-14 2.90041e-15 0)
(1.36722e-14 2.61222e-15 0)
(1.5139e-14 1.59612e-15 0)
(1.59318e-14 1.05088e-15 0)
(1.57928e-14 1.46338e-15 0)
(1.52303e-14 1.4446e-15 0)
(1.49049e-14 4.24283e-16 0)
(1.47241e-14 4.59581e-16 0)
(1.40784e-14 5.58544e-16 0)
(1.25192e-14 2.37105e-16 0)
(1.04196e-14 5.67093e-16 0)
(8.42661e-15 1.03926e-15 0)
(7.50275e-15 1.93808e-15 0)
(7.09017e-15 2.08065e-15 0)
(6.67442e-15 1.94586e-15 0)
(6.71049e-15 1.46011e-15 0)
(5.12021e-15 1.10803e-15 0)
(1.75815e-15 2.41595e-16 0)
(-1.25311e-16 1.81913e-16 0)
(-1.35083e-16 6.0803e-16 0)
(-1.46207e-16 5.783e-16 0)
(-2.38421e-16 5.87374e-16 0)
(-9.11668e-16 8.12289e-16 0)
(-2.84727e-15 1.7747e-15 0)
(-4.78864e-15 3.15873e-15 0)
(-5.803e-15 3.7579e-15 0)
(-6.35302e-15 4.20171e-15 0)
(-7.50071e-15 4.26131e-15 0)
(-9.04816e-15 4.50589e-15 0)
(-9.75837e-15 4.99592e-15 0)
(-1.00733e-14 5.34479e-15 0)
(-1.06958e-14 6.40867e-15 0)
(-1.173e-14 7.09891e-15 0)
(-1.30175e-14 7.34656e-15 0)
(-1.50713e-14 7.22354e-15 0)
(-1.72758e-14 6.81492e-15 0)
(-1.85167e-14 6.42443e-15 0)
(-1.91634e-14 6.42916e-15 0)
(-1.92451e-14 6.29031e-15 0)
(-1.86246e-14 5.97598e-15 0)
(-1.7364e-14 5.66447e-15 0)
(-1.5869e-14 5.70023e-15 0)
(-1.47356e-14 6.14819e-15 0)
(-1.36456e-14 7.07537e-15 0)
(-1.21646e-14 7.45611e-15 0)
(-1.14328e-14 8.03442e-15 0)
(-1.16723e-14 9.00762e-15 0)
(-1.10899e-14 9.76737e-15 0)
(-1.02366e-14 9.70888e-15 0)
(-1.02151e-14 9.19367e-15 0)
(-9.55423e-15 8.62549e-15 0)
(-8.61154e-15 8.29011e-15 0)
(-7.434e-15 7.32303e-15 0)
(-6.45107e-15 7.41875e-15 0)
(-6.63801e-15 7.52578e-15 0)
(-5.56464e-15 7.89832e-15 0)
(-2.75594e-15 8.12464e-15 0)
(-9.36865e-17 7.747e-15 0)
(1.6661e-15 6.79071e-15 0)
(2.1025e-15 6.01935e-15 0)
(1.81983e-15 5.22947e-15 0)
(2.25448e-15 4.77981e-15 0)
(2.61907e-15 4.25909e-15 0)
(2.39386e-15 4.33049e-15 0)
(2.48885e-15 4.76919e-15 0)
(3.19519e-15 4.89827e-15 0)
(4.04244e-15 4.99562e-15 0)
(4.49802e-15 5.08529e-15 0)
(4.99437e-15 4.9314e-15 0)
(5.38838e-15 4.94199e-15 0)
(5.32564e-15 5.3883e-15 0)
(5.71263e-15 5.80334e-15 0)
(7.74061e-15 5.77273e-15 0)
(1.00254e-14 5.20329e-15 0)
(1.11191e-14 4.66917e-15 0)
(1.12452e-14 4.22538e-15 0)
(1.02433e-14 3.41166e-15 0)
(8.95859e-15 2.86957e-15 0)
(8.49429e-15 2.30786e-15 0)
(9.16277e-15 2.24e-15 0)
(1.06689e-14 2.76687e-15 0)
(1.16157e-14 3.07764e-15 0)
(1.21036e-14 3.31985e-15 0)
(1.33402e-14 4.00206e-15 0)
(1.45166e-14 4.68595e-15 0)
(1.53488e-14 5.09766e-15 0)
(1.6004e-14 5.02689e-15 0)
(1.63035e-14 4.97902e-15 0)
(1.67036e-14 4.70478e-15 0)
(1.67233e-14 4.21831e-15 0)
(1.63279e-14 4.92993e-15 0)
(1.61929e-14 5.91317e-15 0)
(1.63092e-14 5.89469e-15 0)
(1.67456e-14 4.94596e-15 0)
(1.72232e-14 4.62012e-15 0)
(1.73958e-14 5.02825e-15 0)
(1.69243e-14 5.6154e-15 0)
(1.61257e-14 5.71587e-15 0)
(1.63432e-14 5.09912e-15 0)
(1.66904e-14 4.72249e-15 0)
(1.70185e-14 3.99001e-15 0)
(1.82172e-14 3.54348e-15 0)
(1.97854e-14 2.45224e-15 0)
(2.10524e-14 1.70726e-15 0)
(2.12661e-14 1.64568e-15 0)
(2.03898e-14 1.60955e-15 0)
(1.97888e-14 9.18144e-16 0)
(1.97026e-14 7.2379e-16 0)
(1.87988e-14 5.7753e-16 0)
(1.69201e-14 7.6787e-16 0)
(1.44495e-14 1.1087e-15 0)
(1.22406e-14 1.7238e-15 0)
(1.07688e-14 2.5682e-15 0)
(9.58034e-15 2.66315e-15 0)
(8.76201e-15 2.41954e-15 0)
(8.21951e-15 1.86091e-15 0)
(6.02489e-15 7.90496e-16 0)
(2.14002e-15 6.3931e-17 0)
(-1.59229e-16 1.28024e-16 0)
(-5.25155e-16 8.94367e-16 0)
(-8.2642e-16 1.09194e-15 0)
(-1.01335e-15 1.60254e-15 0)
(-1.29341e-15 2.06914e-15 0)
(-2.89779e-15 3.17261e-15 0)
(-5.54468e-15 4.11032e-15 0)
(-7.4698e-15 4.7125e-15 0)
(-8.5006e-15 4.69317e-15 0)
(-9.45835e-15 4.41733e-15 0)
(-1.0689e-14 5.22731e-15 0)
(-1.19045e-14 6.64386e-15 0)
(-1.26431e-14 7.66013e-15 0)
(-1.32141e-14 8.0636e-15 0)
(-1.43127e-14 8.24961e-15 0)
(-1.60111e-14 8.77592e-15 0)
(-1.88751e-14 8.80884e-15 0)
(-2.17358e-14 8.88309e-15 0)
(-2.30646e-14 8.26901e-15 0)
(-2.33879e-14 7.56503e-15 0)
(-2.35339e-14 7.39673e-15 0)
(-2.31839e-14 7.43488e-15 0)
(-2.17046e-14 7.03677e-15 0)
(-1.96403e-14 6.91264e-15 0)
(-1.78243e-14 7.53656e-15 0)
(-1.64383e-14 8.78012e-15 0)
(-1.50198e-14 9.55468e-15 0)
(-1.39829e-14 1.02331e-14 0)
(-1.40553e-14 1.08782e-14 0)
(-1.37526e-14 1.18912e-14 0)
(-1.30672e-14 1.18362e-14 0)
(-1.29999e-14 1.15982e-14 0)
(-1.21192e-14 1.10796e-14 0)
(-1.09453e-14 1.05878e-14 0)
(-9.52648e-15 1.01289e-14 0)
(-8.1062e-15 9.63129e-15 0)
(-7.81646e-15 9.85061e-15 0)
(-6.38071e-15 1.03517e-14 0)
(-3.57258e-15 1.00404e-14 0)
(-1.02962e-15 9.64282e-15 0)
(1.09735e-15 8.77282e-15 0)
(1.94225e-15 7.58918e-15 0)
(1.96039e-15 6.7257e-15 0)
(2.37526e-15 6.63734e-15 0)
(2.90825e-15 6.08293e-15 0)
(3.09111e-15 6.03759e-15 0)
(3.21563e-15 5.97716e-15 0)
(4.20368e-15 5.95855e-15 0)
(5.37197e-15 6.55767e-15 0)
(5.72801e-15 6.96093e-15 0)
(6.09313e-15 7.12088e-15 0)
(6.80164e-15 7.18653e-15 0)
(7.11819e-15 7.23928e-15 0)
(7.58382e-15 7.51799e-15 0)
(9.35854e-15 7.85161e-15 0)
(1.15048e-14 7.00505e-15 0)
(1.28549e-14 5.9606e-15 0)
(1.31485e-14 4.81962e-15 0)
(1.22935e-14 3.534e-15 0)
(1.11175e-14 3.15486e-15 0)
(1.07926e-14 2.95524e-15 0)
(1.18581e-14 2.96369e-15 0)
(1.35394e-14 3.29035e-15 0)
(1.45536e-14 3.40078e-15 0)
(1.56497e-14 4.01587e-15 0)
(1.72512e-14 5.05137e-15 0)
(1.82392e-14 5.80948e-15 0)
(1.90147e-14 5.97735e-15 0)
(1.97084e-14 6.28556e-15 0)
(2.00311e-14 6.63902e-15 0)
(2.05913e-14 6.42481e-15 0)
(2.10602e-14 6.39028e-15 0)
(2.08383e-14 7.12572e-15 0)
(2.05404e-14 7.41528e-15 0)
(2.02864e-14 7.73426e-15 0)
(2.04802e-14 7.30445e-15 0)
(2.13755e-14 6.72963e-15 0)
(2.20685e-14 6.75192e-15 0)
(2.14948e-14 7.15881e-15 0)
(2.01807e-14 7.27196e-15 0)
(2.02418e-14 6.81413e-15 0)
(2.05578e-14 5.97772e-15 0)
(2.10478e-14 5.11224e-15 0)
(2.24401e-14 4.37651e-15 0)
(2.40573e-14 3.39891e-15 0)
(2.574e-14 2.75254e-15 0)
(2.61323e-14 2.28574e-15 0)
(2.50217e-14 1.81408e-15 0)
(2.43057e-14 1.55723e-15 0)
(2.41038e-14 1.23322e-15 0)
(2.31718e-14 7.63797e-16 0)
(2.11437e-14 1.11724e-15 0)
(1.83751e-14 1.42143e-15 0)
(1.58365e-14 2.01869e-15 0)
(1.37886e-14 2.62533e-15 0)
(1.19904e-14 2.7434e-15 0)
(1.05612e-14 2.51959e-15 0)
(9.31118e-15 1.86068e-15 0)
(6.59287e-15 7.17977e-16 0)
(2.5778e-15 -9.98661e-18 0)
(-1.47943e-16 4.55118e-16 0)
(-7.55861e-16 1.20133e-15 0)
(-1.22064e-15 1.85794e-15 0)
(-1.35275e-15 3.08552e-15 0)
(-1.9063e-15 3.67214e-15 0)
(-3.93146e-15 4.14714e-15 0)
(-6.74797e-15 4.6112e-15 0)
(-8.93645e-15 5.12339e-15 0)
(-1.05037e-14 5.33422e-15 0)
(-1.1361e-14 5.63947e-15 0)
(-1.20204e-14 6.28822e-15 0)
(-1.29936e-14 7.70735e-15 0)
(-1.44689e-14 9.39037e-15 0)
(-1.60581e-14 9.6397e-15 0)
(-1.7335e-14 9.62137e-15 0)
(-1.91503e-14 9.61586e-15 0)
(-2.20645e-14 9.58966e-15 0)
(-2.52712e-14 1.01509e-14 0)
(-2.74636e-14 9.84945e-15 0)
(-2.79686e-14 8.78348e-15 0)
(-2.75271e-14 8.0176e-15 0)
(-2.69671e-14 8.12259e-15 0)
(-2.56086e-14 8.53423e-15 0)
(-2.30608e-14 8.66679e-15 0)
(-2.0557e-14 8.93926e-15 0)
(-1.89525e-14 9.88157e-15 0)
(-1.75137e-14 1.09191e-14 0)
(-1.65813e-14 1.16727e-14 0)
(-1.63019e-14 1.23663e-14 0)
(-1.58796e-14 1.37311e-14 0)
(-1.55174e-14 1.40578e-14 0)
(-1.5412e-14 1.37212e-14 0)
(-1.45167e-14 1.313e-14 0)
(-1.31084e-14 1.25001e-14 0)
(-1.15554e-14 1.23198e-14 0)
(-9.73074e-15 1.18928e-14 0)
(-8.78098e-15 1.21772e-14 0)
(-7.51915e-15 1.27115e-14 0)
(-4.60906e-15 1.20905e-14 0)
(-1.55183e-15 1.15955e-14 0)
(2.93508e-16 1.06231e-14 0)
(1.14582e-15 9.24616e-15 0)
(1.87723e-15 8.53618e-15 0)
(2.66693e-15 8.26756e-15 0)
(3.1869e-15 8.09569e-15 0)
(3.47366e-15 7.59973e-15 0)
(3.77887e-15 7.31834e-15 0)
(5.21203e-15 7.38304e-15 0)
(6.64654e-15 7.81402e-15 0)
(7.05465e-15 8.38042e-15 0)
(7.53575e-15 8.79555e-15 0)
(8.05283e-15 8.85989e-15 0)
(8.40314e-15 8.6483e-15 0)
(9.36729e-15 8.92566e-15 0)
(1.10276e-14 9.29341e-15 0)
(1.27572e-14 8.67493e-15 0)
(1.39952e-14 7.51725e-15 0)
(1.41691e-14 5.51485e-15 0)
(1.38251e-14 3.76115e-15 0)
(1.33622e-14 3.47168e-15 0)
(1.32105e-14 3.71927e-15 0)
(1.43534e-14 4.00021e-15 0)
(1.61143e-14 4.11e-15 0)
(1.75582e-14 4.22718e-15 0)
(1.90968e-14 4.93262e-15 0)
(2.08329e-14 5.56543e-15 0)
(2.17402e-14 6.31909e-15 0)
(2.25954e-14 6.61544e-15 0)
(2.37267e-14 7.46396e-15 0)
(2.39238e-14 8.44e-15 0)
(2.42179e-14 9.02486e-15 0)
(2.50007e-14 9.3864e-15 0)
(2.48684e-14 9.52506e-15 0)
(2.45156e-14 9.45632e-15 0)
(2.42559e-14 9.63494e-15 0)
(2.4169e-14 9.55295e-15 0)
(2.50434e-14 9.0566e-15 0)
(2.59594e-14 9.12471e-15 0)
(2.55742e-14 8.9509e-15 0)
(2.42043e-14 8.66702e-15 0)
(2.38597e-14 8.23295e-15 0)
(2.41039e-14 7.33833e-15 0)
(2.47693e-14 6.84359e-15 0)
(2.61953e-14 5.73231e-15 0)
(2.80804e-14 4.60682e-15 0)
(2.98366e-14 3.85122e-15 0)
(3.01776e-14 3.13275e-15 0)
(2.93452e-14 2.5251e-15 0)
(2.86001e-14 2.6201e-15 0)
(2.79695e-14 2.12104e-15 0)
(2.70373e-14 1.34997e-15 0)
(2.50376e-14 1.03935e-15 0)
(2.19556e-14 1.33256e-15 0)
(1.91926e-14 1.96919e-15 0)
(1.66737e-14 2.63698e-15 0)
(1.4255e-14 2.39226e-15 0)
(1.22534e-14 2.29541e-15 0)
(1.03175e-14 1.86302e-15 0)
(7.14673e-15 9.46482e-16 0)
(2.93511e-15 2.56724e-16 0)
(-5.05106e-16 9.42375e-16 0)
(-1.37823e-15 1.91666e-15 0)
(-1.49247e-15 2.82057e-15 0)
(-1.89511e-15 4.147e-15 0)
(-2.95623e-15 4.75929e-15 0)
(-4.9615e-15 5.08449e-15 0)
(-7.94536e-15 5.55315e-15 0)
(-1.04177e-14 5.91784e-15 0)
(-1.1924e-14 6.4438e-15 0)
(-1.28621e-14 7.11256e-15 0)
(-1.35938e-14 7.87994e-15 0)
(-1.43972e-14 8.86329e-15 0)
(-1.63481e-14 9.6301e-15 0)
(-1.85017e-14 1.0243e-14 0)
(-2.01159e-14 1.07317e-14 0)
(-2.2188e-14 1.0372e-14 0)
(-2.50479e-14 1.01386e-14 0)
(-2.85062e-14 1.04806e-14 0)
(-3.13296e-14 1.05766e-14 0)
(-3.21584e-14 1.0286e-14 0)
(-3.14787e-14 9.58815e-15 0)
(-3.01864e-14 9.51177e-15 0)
(-2.85167e-14 9.79379e-15 0)
(-2.63104e-14 9.82554e-15 0)
(-2.36005e-14 9.79037e-15 0)
(-2.13235e-14 1.04197e-14 0)
(-1.97231e-14 1.15931e-14 0)
(-1.86473e-14 1.24593e-14 0)
(-1.79818e-14 1.38553e-14 0)
(-1.76189e-14 1.51249e-14 0)
(-1.78124e-14 1.58051e-14 0)
(-1.8037e-14 1.57424e-14 0)
(-1.6986e-14 1.50914e-14 0)
(-1.51247e-14 1.43696e-14 0)
(-1.31858e-14 1.42354e-14 0)
(-1.10555e-14 1.41061e-14 0)
(-9.64171e-15 1.40459e-14 0)
(-8.35184e-15 1.44354e-14 0)
(-5.68336e-15 1.41596e-14 0)
(-2.76485e-15 1.35289e-14 0)
(-7.41138e-16 1.21358e-14 0)
(6.89359e-16 1.11435e-14 0)
(1.77985e-15 1.05458e-14 0)
(2.77461e-15 1.00719e-14 0)
(3.30319e-15 9.7438e-15 0)
(3.57568e-15 8.95975e-15 0)
(4.30612e-15 8.5163e-15 0)
(6.0413e-15 8.89236e-15 0)
(7.82267e-15 9.34058e-15 0)
(8.41255e-15 9.81901e-15 0)
(8.63824e-15 9.94811e-15 0)
(9.10999e-15 9.83803e-15 0)
(9.84234e-15 9.64662e-15 0)
(1.10559e-14 1.00157e-14 0)
(1.25405e-14 1.01042e-14 0)
(1.39286e-14 9.59706e-15 0)
(1.45637e-14 8.52812e-15 0)
(1.46339e-14 6.72021e-15 0)
(1.51697e-14 5.16451e-15 0)
(1.55467e-14 4.39204e-15 0)
(1.5721e-14 4.58429e-15 0)
(1.68031e-14 5.15157e-15 0)
(1.85449e-14 5.35198e-15 0)
(2.02489e-14 5.75471e-15 0)
(2.2033e-14 6.0651e-15 0)
(2.40018e-14 6.39319e-15 0)
(2.50679e-14 6.96852e-15 0)
(2.62256e-14 7.85852e-15 0)
(2.77102e-14 8.99289e-15 0)
(2.80839e-14 1.00302e-14 0)
(2.83687e-14 1.13656e-14 0)
(2.86174e-14 1.20576e-14 0)
(2.81581e-14 1.17933e-14 0)
(2.79892e-14 1.16395e-14 0)
(2.78501e-14 1.14888e-14 0)
(2.76619e-14 1.15663e-14 0)
(2.87472e-14 1.17456e-14 0)
(2.97327e-14 1.18908e-14 0)
(2.89559e-14 1.13409e-14 0)
(2.75342e-14 1.05678e-14 0)
(2.72746e-14 9.87815e-15 0)
(2.77167e-14 9.06796e-15 0)
(2.82553e-14 8.26006e-15 0)
(2.94043e-14 7.19778e-15 0)
(3.1458e-14 5.96218e-15 0)
(3.35225e-14 5.15556e-15 0)
(3.4008e-14 4.60495e-15 0)
(3.33774e-14 4.03253e-15 0)
(3.25064e-14 3.8945e-15 0)
(3.13151e-14 3.25433e-15 0)
(3.00513e-14 2.32253e-15 0)
(2.82192e-14 1.20002e-15 0)
(2.54852e-14 1.14699e-15 0)
(2.25483e-14 1.86689e-15 0)
(1.92079e-14 2.35187e-15 0)
(1.62303e-14 2.28245e-15 0)
(1.40336e-14 2.0966e-15 0)
(1.14785e-14 2.03765e-15 0)
(7.75105e-15 1.36877e-15 0)
(3.09742e-15 4.80973e-16 0)
(-7.04728e-16 1.25127e-15 0)
(-1.89753e-15 2.99024e-15 0)
(-2.08996e-15 4.14281e-15 0)
(-2.49149e-15 4.86923e-15 0)
(-3.90977e-15 5.47615e-15 0)
(-6.2421e-15 5.85179e-15 0)
(-9.28237e-15 6.83919e-15 0)
(-1.16991e-14 7.46225e-15 0)
(-1.33087e-14 7.90966e-15 0)
(-1.42529e-14 8.35705e-15 0)
(-1.4959e-14 8.88508e-15 0)
(-1.62281e-14 9.37816e-15 0)
(-1.82776e-14 9.65547e-15 0)
(-2.03691e-14 1.06839e-14 0)
(-2.26612e-14 1.13178e-14 0)
(-2.53254e-14 1.10481e-14 0)
(-2.80546e-14 1.06633e-14 0)
(-3.1326e-14 1.07685e-14 0)
(-3.42203e-14 1.1486e-14 0)
(-3.54484e-14 1.17215e-14 0)
(-3.48879e-14 1.07945e-14 0)
(-3.35536e-14 1.06227e-14 0)
(-3.1982e-14 1.03757e-14 0)
(-2.94693e-14 1.04872e-14 0)
(-2.62805e-14 1.06552e-14 0)
(-2.35139e-14 1.1109e-14 0)
(-2.16216e-14 1.21132e-14 0)
(-2.02515e-14 1.31564e-14 0)
(-1.93955e-14 1.48933e-14 0)
(-1.91946e-14 1.62856e-14 0)
(-1.94801e-14 1.68762e-14 0)
(-2.00074e-14 1.73435e-14 0)
(-1.92439e-14 1.65814e-14 0)
(-1.70997e-14 1.5636e-14 0)
(-1.47553e-14 1.58095e-14 0)
(-1.25105e-14 1.59986e-14 0)
(-1.07761e-14 1.59658e-14 0)
(-9.20896e-15 1.59937e-14 0)
(-6.53332e-15 1.59042e-14 0)
(-3.77839e-15 1.5346e-14 0)
(-1.73759e-15 1.42826e-14 0)
(6.43735e-17 1.3328e-14 0)
(1.44952e-15 1.18148e-14 0)
(2.65011e-15 1.05463e-14 0)
(3.12816e-15 1.02561e-14 0)
(3.51297e-15 1.01064e-14 0)
(4.86468e-15 9.98523e-15 0)
(7.16303e-15 1.05364e-14 0)
(8.89468e-15 1.10979e-14 0)
(9.2929e-15 1.10767e-14 0)
(9.56227e-15 1.07354e-14 0)
(1.00679e-14 1.04329e-14 0)
(1.10175e-14 1.04821e-14 0)
(1.24693e-14 1.07676e-14 0)
(1.37909e-14 1.09355e-14 0)
(1.49683e-14 1.04235e-14 0)
(1.5509e-14 9.40791e-15 0)
(1.55269e-14 8.217e-15 0)
(1.60913e-14 6.87204e-15 0)
(1.70271e-14 5.78536e-15 0)
(1.79711e-14 5.81817e-15 0)
(1.9255e-14 6.3713e-15 0)
(2.10726e-14 6.70999e-15 0)
(2.28234e-14 7.231e-15 0)
(2.45726e-14 7.51588e-15 0)
(2.67888e-14 7.38632e-15 0)
(2.83951e-14 8.34955e-15 0)
(2.99372e-14 9.72697e-15 0)
(3.14324e-14 1.08982e-14 0)
(3.19978e-14 1.19227e-14 0)
(3.22115e-14 1.35366e-14 0)
(3.19473e-14 1.42501e-14 0)
(3.12996e-14 1.45877e-14 0)
(3.1139e-14 1.47007e-14 0)
(3.11647e-14 1.42122e-14 0)
(3.14282e-14 1.41493e-14 0)
(3.24418e-14 1.43996e-14 0)
(3.28973e-14 1.42298e-14 0)
(3.19138e-14 1.37781e-14 0)
(3.05356e-14 1.31618e-14 0)
(3.02851e-14 1.22724e-14 0)
(3.05901e-14 1.11368e-14 0)
(3.12358e-14 9.86916e-15 0)
(3.25101e-14 8.91471e-15 0)
(3.47072e-14 7.92923e-15 0)
(3.70218e-14 7.22457e-15 0)
(3.75072e-14 6.69804e-15 0)
(3.68602e-14 5.88771e-15 0)
(3.58488e-14 5.1589e-15 0)
(3.43176e-14 4.42766e-15 0)
(3.26154e-14 3.53139e-15 0)
(3.07567e-14 2.19064e-15 0)
(2.84618e-14 1.33436e-15 0)
(2.55014e-14 1.46311e-15 0)
(2.18088e-14 1.81053e-15 0)
(1.83037e-14 2.50005e-15 0)
(1.56957e-14 2.16315e-15 0)
(1.27414e-14 1.81734e-15 0)
(8.2456e-15 1.30031e-15 0)
(3.12438e-15 5.03727e-16 0)
(-8.3009e-16 1.47365e-15 0)
(-2.3464e-15 3.60528e-15 0)
(-3.04085e-15 5.27451e-15 0)
(-3.78772e-15 6.05312e-15 0)
(-5.13639e-15 6.42641e-15 0)
(-6.96605e-15 6.8457e-15 0)
(-9.9275e-15 8.10346e-15 0)
(-1.29884e-14 8.99412e-15 0)
(-1.48307e-14 9.2018e-15 0)
(-1.59281e-14 9.70004e-15 0)
(-1.68598e-14 9.73496e-15 0)
(-1.80963e-14 9.70713e-15 0)
(-1.99109e-14 1.00803e-14 0)
(-2.20624e-14 1.09644e-14 0)
(-2.4895e-14 1.15371e-14 0)
(-2.79866e-14 1.14847e-14 0)
(-3.08399e-14 1.11113e-14 0)
(-3.37316e-14 1.10078e-14 0)
(-3.66491e-14 1.19736e-14 0)
(-3.88038e-14 1.23149e-14 0)
(-3.84609e-14 1.10944e-14 0)
(-3.66303e-14 1.04135e-14 0)
(-3.4647e-14 1.07187e-14 0)
(-3.19747e-14 1.15262e-14 0)
(-2.88099e-14 1.18734e-14 0)
(-2.56876e-14 1.19786e-14 0)
(-2.34097e-14 1.29844e-14 0)
(-2.15448e-14 1.41469e-14 0)
(-2.03619e-14 1.5644e-14 0)
(-2.05627e-14 1.70013e-14 0)
(-2.11376e-14 1.74226e-14 0)
(-2.20441e-14 1.79246e-14 0)
(-2.171e-14 1.77946e-14 0)
(-1.88324e-14 1.67608e-14 0)
(-1.57243e-14 1.6759e-14 0)
(-1.3397e-14 1.72284e-14 0)
(-1.17257e-14 1.7785e-14 0)
(-1.00647e-14 1.76485e-14 0)
(-7.38683e-15 1.75983e-14 0)
(-4.7467e-15 1.66826e-14 0)
(-2.61623e-15 1.57822e-14 0)
(-1.1818e-15 1.44317e-14 0)
(-5.17667e-17 1.30935e-14 0)
(2.06527e-15 1.15592e-14 0)
(3.61345e-15 1.12286e-14 0)
(4.19823e-15 1.14603e-14 0)
(5.63431e-15 1.16067e-14 0)
(8.06929e-15 1.1834e-14 0)
(9.63451e-15 1.21502e-14 0)
(9.76811e-15 1.20459e-14 0)
(9.99544e-15 1.15202e-14 0)
(1.09681e-14 1.11364e-14 0)
(1.23612e-14 1.13528e-14 0)
(1.39096e-14 1.17355e-14 0)
(1.50669e-14 1.16172e-14 0)
(1.58368e-14 1.12354e-14 0)
(1.6198e-14 1.03208e-14 0)
(1.62136e-14 9.07853e-15 0)
(1.69775e-14 8.01022e-15 0)
(1.84965e-14 7.65164e-15 0)
(2.00027e-14 7.91609e-15 0)
(2.14521e-14 8.60405e-15 0)
(2.33418e-14 8.59007e-15 0)
(2.52112e-14 8.58405e-15 0)
(2.67499e-14 8.8175e-15 0)
(2.94665e-14 8.98449e-15 0)
(3.18925e-14 9.97805e-15 0)
(3.34479e-14 1.1734e-14 0)
(3.49012e-14 1.32257e-14 0)
(3.58025e-14 1.45886e-14 0)
(3.60281e-14 1.627e-14 0)
(3.54774e-14 1.7109e-14 0)
(3.46971e-14 1.80637e-14 0)
(3.40359e-14 1.81245e-14 0)
(3.38812e-14 1.7457e-14 0)
(3.43434e-14 1.69889e-14 0)
(3.54464e-14 1.66023e-14 0)
(3.60043e-14 1.64246e-14 0)
(3.49885e-14 1.64489e-14 0)
(3.33445e-14 1.59002e-14 0)
(3.2818e-14 1.49073e-14 0)
(3.31111e-14 1.36236e-14 0)
(3.39179e-14 1.24038e-14 0)
(3.53987e-14 1.13472e-14 0)
(3.77258e-14 1.02815e-14 0)
(4.01615e-14 9.24982e-15 0)
(4.05337e-14 8.5438e-15 0)
(3.9641e-14 7.81922e-15 0)
(3.86311e-14 6.97902e-15 0)
(3.70342e-14 6.0467e-15 0)
(3.49573e-14 4.80207e-15 0)
(3.27162e-14 3.28145e-15 0)
(3.05693e-14 2.17796e-15 0)
(2.79917e-14 1.65729e-15 0)
(2.45211e-14 2.04061e-15 0)
(2.04826e-14 2.48609e-15 0)
(1.6941e-14 2.20587e-15 0)
(1.36314e-14 1.32373e-15 0)
(8.92126e-15 1.0401e-15 0)
(3.29478e-15 5.26521e-16 0)
(-1.00466e-15 1.47515e-15 0)
(-2.66856e-15 3.96568e-15 0)
(-3.5827e-15 6.08057e-15 0)
(-4.77941e-15 7.51579e-15 0)
(-6.39913e-15 8.30114e-15 0)
(-8.09824e-15 8.53033e-15 0)
(-1.08708e-14 8.96487e-15 0)
(-1.41811e-14 9.42366e-15 0)
(-1.6229e-14 9.83843e-15 0)
(-1.74712e-14 1.04254e-14 0)
(-1.87535e-14 1.06843e-14 0)
(-1.99792e-14 1.05872e-14 0)
(-2.15742e-14 1.08719e-14 0)
(-2.3741e-14 1.1344e-14 0)
(-2.69478e-14 1.12267e-14 0)
(-3.0535e-14 1.12364e-14 0)
(-3.35218e-14 1.10176e-14 0)
(-3.6005e-14 1.09684e-14 0)
(-3.8726e-14 1.16627e-14 0)
(-4.16586e-14 1.20515e-14 0)
(-4.1884e-14 1.16447e-14 0)
(-3.94005e-14 1.08862e-14 0)
(-3.66511e-14 1.12277e-14 0)
(-3.39765e-14 1.1978e-14 0)
(-3.11356e-14 1.25045e-14 0)
(-2.76894e-14 1.28789e-14 0)
(-2.48073e-14 1.39894e-14 0)
(-2.28514e-14 1.50583e-14 0)
(-2.16152e-14 1.60526e-14 0)
(-2.19525e-14 1.68647e-14 0)
(-2.25981e-14 1.72182e-14 0)
(-2.32489e-14 1.79365e-14 0)
(-2.33224e-14 1.881e-14 0)
(-2.0783e-14 1.84688e-14 0)
(-1.7023e-14 1.80221e-14 0)
(-1.40436e-14 1.84782e-14 0)
(-1.24107e-14 1.90081e-14 0)
(-1.0923e-14 1.88306e-14 0)
(-8.43904e-15 1.86333e-14 0)
(-5.93297e-15 1.77412e-14 0)
(-3.86361e-15 1.68003e-14 0)
(-2.07894e-15 1.55469e-14 0)
(-5.69976e-16 1.47553e-14 0)
(1.5936e-15 1.36456e-14 0)
(3.56857e-15 1.28054e-14 0)
(4.49113e-15 1.2204e-14 0)
(6.024e-15 1.22958e-14 0)
(8.63365e-15 1.25352e-14 0)
(1.0311e-14 1.2751e-14 0)
(1.02818e-14 1.26652e-14 0)
(1.05392e-14 1.26071e-14 0)
(1.17888e-14 1.24753e-14 0)
(1.35093e-14 1.23967e-14 0)
(1.49326e-14 1.26683e-14 0)
(1.59145e-14 1.21633e-14 0)
(1.67223e-14 1.18866e-14 0)
(1.68278e-14 1.10104e-14 0)
(1.6905e-14 1.00821e-14 0)
(1.82676e-14 9.44861e-15 0)
(2.03169e-14 9.46429e-15 0)
(2.21621e-14 1.00616e-14 0)
(2.33841e-14 1.06113e-14 0)
(2.48546e-14 1.05919e-14 0)
(2.6974e-14 1.04966e-14 0)
(2.90574e-14 1.07877e-14 0)
(3.20523e-14 1.17179e-14 0)
(3.50503e-14 1.27235e-14 0)
(3.71773e-14 1.44256e-14 0)
(3.85897e-14 1.5849e-14 0)
(3.94817e-14 1.77364e-14 0)
(3.94743e-14 1.9037e-14 0)
(3.88183e-14 2.03082e-14 0)
(3.77257e-14 2.12483e-14 0)
(3.6492e-14 2.1214e-14 0)
(3.62437e-14 2.04923e-14 0)
(3.68226e-14 1.96537e-14 0)
(3.81515e-14 1.95175e-14 0)
(3.90057e-14 1.94059e-14 0)
(3.78459e-14 1.93663e-14 0)
(3.58215e-14 1.86612e-14 0)
(3.51402e-14 1.76631e-14 0)
(3.53932e-14 1.6467e-14 0)
(3.63192e-14 1.51209e-14 0)
(3.78054e-14 1.37348e-14 0)
(4.0088e-14 1.2495e-14 0)
(4.26869e-14 1.1239e-14 0)
(4.33593e-14 1.00959e-14 0)
(4.25083e-14 9.61918e-15 0)
(4.11672e-14 9.04185e-15 0)
(3.90891e-14 7.87261e-15 0)
(3.66351e-14 6.22594e-15 0)
(3.44983e-14 4.65912e-15 0)
(3.25072e-14 3.68466e-15 0)
(3.01731e-14 2.93883e-15 0)
(2.66984e-14 3.18454e-15 0)
(2.21891e-14 3.07146e-15 0)
(1.80582e-14 2.38873e-15 0)
(1.45158e-14 9.41126e-16 0)
(9.66703e-15 5.1384e-16 0)
(3.35316e-15 3.72114e-16 0)
(-1.05894e-15 1.78316e-15 0)
(-2.89158e-15 4.81284e-15 0)
(-4.02326e-15 6.97643e-15 0)
(-5.50034e-15 8.45556e-15 0)
(-7.58882e-15 9.53791e-15 0)
(-9.6163e-15 9.76814e-15 0)
(-1.24175e-14 9.74502e-15 0)
(-1.55524e-14 9.64948e-15 0)
(-1.73969e-14 1.01357e-14 0)
(-1.87334e-14 1.07424e-14 0)
(-2.0315e-14 1.11609e-14 0)
(-2.16969e-14 1.13161e-14 0)
(-2.32703e-14 1.14049e-14 0)
(-2.59027e-14 1.14169e-14 0)
(-2.92647e-14 1.08402e-14 0)
(-3.26197e-14 1.0535e-14 0)
(-3.56965e-14 1.06863e-14 0)
(-3.80761e-14 1.10754e-14 0)
(-4.07966e-14 1.11409e-14 0)
(-4.38413e-14 1.13328e-14 0)
(-4.43727e-14 1.17816e-14 0)
(-4.19726e-14 1.18869e-14 0)
(-3.88139e-14 1.21201e-14 0)
(-3.58989e-14 1.24608e-14 0)
(-3.28707e-14 1.3278e-14 0)
(-2.91539e-14 1.38805e-14 0)
(-2.61817e-14 1.4464e-14 0)
(-2.4204e-14 1.53337e-14 0)
(-2.2998e-14 1.6104e-14 0)
(-2.34439e-14 1.6839e-14 0)
(-2.38476e-14 1.7466e-14 0)
(-2.4119e-14 1.79743e-14 0)
(-2.43006e-14 1.89514e-14 0)