/*--------------------------------*- C++ -*----------------------------------*\
| =========                 |                                                 |
| \\      /  F ield         | OpenFOAM: The Open Source CFD Toolbox           |
|  \\    /   O peration     | Version:  v2012                                 |
|   \\  /    A nd           | Website:  www.openfoam.com                      |
|    \\/     M anipulation  |                                                 |
\*---------------------------------------------------------------------------*/
FoamFile
{
    version     2.0;
    format      ascii;
    class       volVectorField;
    location    "70";
    object      Usup;
}
// * * * * * * * * * * * * * * * * * * * * * * * * * * * * * * * * * * * * * //

dimensions      [0 1 -1 0 0 0 0];


internalField   nonuniform List<vector> 
4000
(
(-2.84428e-16 -1.61166e-16 0)
(-4.53174e-16 -3.54102e-17 0)
(-4.77303e-16 -2.271e-16 0)
(-7.58072e-16 -3.34557e-16 0)
(-1.05525e-15 -4.4691e-16 0)
(-1.74588e-15 -6.83034e-16 0)
(-2.36558e-15 -6.97167e-16 0)
(-2.6296e-15 -6.08215e-16 0)
(-2.4618e-15 -7.59088e-16 0)
(-1.99524e-15 -1.12609e-15 0)
(-2.23812e-15 -1.67643e-15 0)
(-3.28315e-15 -1.79308e-15 0)
(-4.55228e-15 -1.70413e-15 0)
(-4.53025e-15 -9.96344e-16 0)
(-3.46461e-15 -1.25853e-15 0)
(-3.03982e-15 -1.50437e-15 0)
(-2.96233e-15 -1.29243e-15 0)
(-3.11556e-15 -1.45828e-15 0)
(-3.27513e-15 -1.63192e-15 0)
(-3.15887e-15 -1.84346e-15 0)
(-3.02715e-15 -1.8819e-15 0)
(-2.92773e-15 -1.96306e-15 0)
(-3.03339e-15 -2.01291e-15 0)
(-2.90775e-15 -1.95113e-15 0)
(-2.55808e-15 -1.62015e-15 0)
(-2.5859e-15 -1.67814e-15 0)
(-3.07075e-15 -1.56431e-15 0)
(-3.32222e-15 -1.62371e-15 0)
(-3.12285e-15 -1.9003e-15 0)
(-3.30477e-15 -1.65779e-15 0)
(-3.3906e-15 -7.95688e-16 0)
(-2.93649e-15 -8.45244e-16 0)
(-2.3631e-15 -1.05532e-15 0)
(-2.1845e-15 -1.34641e-15 0)
(-2.40068e-15 -1.52907e-15 0)
(-3.27422e-15 -1.7204e-15 0)
(-4.36898e-15 -1.36112e-15 0)
(-4.36399e-15 -8.98377e-16 0)
(-3.98452e-15 -8.89227e-16 0)
(-3.4938e-15 -1.01151e-15 0)
(-3.04408e-15 -1.44496e-15 0)
(-2.86407e-15 -1.8532e-15 0)
(-3.03925e-15 -2.00978e-15 0)
(-3.50506e-15 -1.6654e-15 0)
(-3.93932e-15 -1.53063e-15 0)
(-4.5859e-15 -1.49635e-15 0)
(-5.29722e-15 -1.40859e-15 0)
(-5.60534e-15 -1.27287e-15 0)
(-5.60966e-15 -1.11459e-15 0)
(-5.38589e-15 -7.90464e-16 0)
(-5.3927e-15 -9.38667e-16 0)
(-5.74051e-15 -1.23579e-15 0)
(-6.11767e-15 -1.31221e-15 0)
(-6.55479e-15 -1.33053e-15 0)
(-6.94854e-15 -1.27143e-15 0)
(-6.95483e-15 -9.81367e-16 0)
(-6.31241e-15 -1.04858e-15 0)
(-5.71856e-15 -1.10315e-15 0)
(-5.6328e-15 -1.10287e-15 0)
(-5.74117e-15 -1.26158e-15 0)
(-6.03763e-15 -1.41035e-15 0)
(-6.65905e-15 -1.45387e-15 0)
(-7.61832e-15 -1.5744e-15 0)
(-8.52544e-15 -1.50121e-15 0)
(-9.21359e-15 -1.27001e-15 0)
(-9.85293e-15 -1.03438e-15 0)
(-1.03982e-14 -9.65981e-16 0)
(-1.09124e-14 -7.56899e-16 0)
(-1.08918e-14 -6.36332e-16 0)
(-1.07896e-14 -6.26538e-16 0)
(-1.10851e-14 -5.4519e-16 0)
(-1.11172e-14 -2.32978e-16 0)
(-1.13621e-14 -2.03236e-16 0)
(-1.14388e-14 1.64716e-16 0)
(-1.10853e-14 6.21305e-17 0)
(-1.12199e-14 -6.04276e-18 0)
(-1.14949e-14 1.07328e-16 0)
(-1.15797e-14 -9.75095e-17 0)
(-1.16921e-14 -3.5369e-16 0)
(-1.20049e-14 -3.52188e-16 0)
(-1.18607e-14 8.51069e-17 0)
(-1.1034e-14 1.5647e-16 0)
(-1.08235e-14 1.10157e-18 0)
(-1.1282e-14 1.25041e-16 0)
(-1.09867e-14 2.95876e-16 0)
(-1.06262e-14 2.2239e-16 0)
(-1.02768e-14 1.79815e-16 0)
(-9.32068e-15 -5.30896e-18 0)
(-8.61068e-15 -3.98624e-16 0)
(-8.34231e-15 -5.59579e-16 0)
(-8.19001e-15 -2.99573e-16 0)
(-7.89315e-15 -1.47926e-16 0)
(-7.43237e-15 -7.52023e-17 0)
(-6.69373e-15 4.13842e-17 0)
(-5.96796e-15 9.89521e-17 0)
(-5.56808e-15 -5.14316e-17 0)
(-4.72717e-15 -7.53309e-17 0)
(-3.71183e-15 -1.95263e-16 0)
(-2.52206e-15 4.71654e-17 0)
(-8.88881e-16 1.32816e-17 0)
(-4.21141e-16 -2.37228e-16 0)
(-1.05856e-15 -2.06221e-16 0)
(-1.5829e-15 -7.55721e-16 0)
(-2.32072e-15 -1.15924e-15 0)
(-3.3616e-15 -1.46365e-15 0)
(-4.93538e-15 -1.78597e-15 0)
(-6.19158e-15 -1.9582e-15 0)
(-7.0349e-15 -2.27044e-15 0)
(-7.22367e-15 -2.66356e-15 0)
(-6.89769e-15 -3.36947e-15 0)
(-7.46557e-15 -4.55017e-15 0)
(-9.30336e-15 -5.21174e-15 0)
(-1.12804e-14 -4.77401e-15 0)
(-1.16348e-14 -3.44185e-15 0)
(-1.03892e-14 -3.82762e-15 0)
(-9.05083e-15 -4.31063e-15 0)
(-8.73403e-15 -4.41194e-15 0)
(-9.258e-15 -4.69773e-15 0)
(-9.56011e-15 -4.93801e-15 0)
(-9.24289e-15 -5.35512e-15 0)
(-8.86188e-15 -5.65203e-15 0)
(-8.65489e-15 -5.84139e-15 0)
(-8.66158e-15 -5.92416e-15 0)
(-8.09498e-15 -5.79533e-15 0)
(-7.5542e-15 -5.08444e-15 0)
(-7.80935e-15 -5.14916e-15 0)
(-8.74856e-15 -4.86805e-15 0)
(-9.58119e-15 -4.70958e-15 0)
(-9.11665e-15 -4.97662e-15 0)
(-8.58015e-15 -4.4619e-15 0)
(-8.85162e-15 -2.98014e-15 0)
(-8.70063e-15 -2.776e-15 0)
(-7.72964e-15 -3.01085e-15 0)
(-7.37234e-15 -3.81685e-15 0)
(-7.91344e-15 -4.42396e-15 0)
(-9.43574e-15 -4.81503e-15 0)
(-1.11943e-14 -3.9507e-15 0)
(-1.16564e-14 -3.27379e-15 0)
(-1.13577e-14 -3.33183e-15 0)
(-1.06313e-14 -3.48288e-15 0)
(-9.88894e-15 -4.32769e-15 0)
(-9.33268e-15 -5.20135e-15 0)
(-9.22793e-15 -5.45969e-15 0)
(-1.01232e-14 -4.99961e-15 0)
(-1.15531e-14 -4.79443e-15 0)
(-1.31949e-14 -4.83734e-15 0)
(-1.47901e-14 -4.30618e-15 0)
(-1.56086e-14 -3.54885e-15 0)
(-1.56592e-14 -2.90861e-15 0)
(-1.5626e-14 -2.46897e-15 0)
(-1.62475e-14 -3.04834e-15 0)
(-1.70233e-14 -3.6091e-15 0)
(-1.77799e-14 -3.99805e-15 0)
(-1.87301e-14 -3.96039e-15 0)
(-1.93612e-14 -3.83588e-15 0)
(-1.94508e-14 -3.01392e-15 0)
(-1.8455e-14 -2.86002e-15 0)
(-1.72143e-14 -3.02039e-15 0)
(-1.70848e-14 -3.28407e-15 0)
(-1.75454e-14 -3.7531e-15 0)
(-1.83568e-14 -4.47351e-15 0)
(-1.99957e-14 -4.60336e-15 0)
(-2.22834e-14 -4.8566e-15 0)
(-2.43612e-14 -4.36233e-15 0)
(-2.61704e-14 -3.84531e-15 0)
(-2.80421e-14 -3.11798e-15 0)
(-2.95566e-14 -3.00658e-15 0)
(-3.07883e-14 -2.52877e-15 0)
(-3.11776e-14 -2.0205e-15 0)
(-3.12273e-14 -2.01789e-15 0)
(-3.1642e-14 -1.81641e-15 0)
(-3.19158e-14 -9.72233e-16 0)
(-3.2401e-14 -5.65053e-16 0)
(-3.26768e-14 1.79345e-16 0)
(-3.24564e-14 6.65222e-17 0)
(-3.25717e-14 -5.17434e-17 0)
(-3.32372e-14 2.6817e-16 0)
(-3.37717e-14 1.81696e-16 0)
(-3.39003e-14 -5.37964e-16 0)
(-3.3894e-14 -6.82313e-16 0)
(-3.3421e-14 2.55014e-16 0)
(-3.22263e-14 4.7872e-16 0)
(-3.16034e-14 -7.50422e-17 0)
(-3.1913e-14 1.34364e-16 0)
(-3.13381e-14 8.44138e-16 0)
(-3.0488e-14 6.94425e-16 0)
(-2.94071e-14 5.53163e-16 0)
(-2.74318e-14 3.96245e-17 0)
(-2.55879e-14 -9.35607e-16 0)
(-2.41164e-14 -1.42087e-15 0)
(-2.31537e-14 -9.89601e-16 0)
(-2.22787e-14 -5.14727e-16 0)
(-2.08963e-14 -1.97173e-16 0)
(-1.89336e-14 1.01829e-17 0)
(-1.71178e-14 -2.12893e-17 0)
(-1.56065e-14 -2.60065e-17 0)
(-1.31704e-14 -1.4428e-16 0)
(-1.00588e-14 -3.90015e-16 0)
(-6.56234e-15 -9.25991e-18 0)
(-2.39408e-15 -4.26121e-18 0)
(-5.79036e-16 -1.59634e-16 0)
(-1.72636e-15 -4.83488e-16 0)
(-2.77937e-15 -1.3487e-15 0)
(-3.8932e-15 -2.41559e-15 0)
(-5.39032e-15 -2.67303e-15 0)
(-7.67735e-15 -3.29912e-15 0)
(-9.84814e-15 -3.32839e-15 0)
(-1.12156e-14 -3.94057e-15 0)
(-1.15838e-14 -4.40502e-15 0)
(-1.17177e-14 -5.52842e-15 0)
(-1.292e-14 -7.25032e-15 0)
(-1.48532e-14 -8.40946e-15 0)
(-1.67345e-14 -7.5251e-15 0)
(-1.7611e-14 -6.18381e-15 0)
(-1.66563e-14 -6.18015e-15 0)
(-1.51402e-14 -7.04333e-15 0)
(-1.45943e-14 -7.75027e-15 0)
(-1.49379e-14 -8.20466e-15 0)
(-1.53273e-14 -8.59856e-15 0)
(-1.50948e-14 -8.987e-15 0)
(-1.45505e-14 -9.23642e-15 0)
(-1.40988e-14 -9.38547e-15 0)
(-1.39339e-14 -9.59612e-15 0)
(-1.29668e-14 -9.58389e-15 0)
(-1.23699e-14 -9.0066e-15 0)
(-1.284e-14 -8.62205e-15 0)
(-1.38456e-14 -8.35271e-15 0)
(-1.49757e-14 -7.7516e-15 0)
(-1.45137e-14 -7.27452e-15 0)
(-1.35701e-14 -6.73813e-15 0)
(-1.37919e-14 -5.62509e-15 0)
(-1.38545e-14 -4.89645e-15 0)
(-1.31711e-14 -5.0261e-15 0)
(-1.3072e-14 -6.40719e-15 0)
(-1.36957e-14 -7.28987e-15 0)
(-1.51802e-14 -7.29557e-15 0)
(-1.72927e-14 -6.73164e-15 0)
(-1.84014e-14 -6.24324e-15 0)
(-1.81539e-14 -6.36889e-15 0)
(-1.73937e-14 -6.46417e-15 0)
(-1.67189e-14 -6.99512e-15 0)
(-1.58871e-14 -7.5735e-15 0)
(-1.55926e-14 -8.37312e-15 0)
(-1.68504e-14 -8.38902e-15 0)
(-1.90515e-14 -8.45714e-15 0)
(-2.11524e-14 -8.23461e-15 0)
(-2.29414e-14 -7.10339e-15 0)
(-2.42296e-14 -5.61257e-15 0)
(-2.49278e-14 -4.57829e-15 0)
(-2.57212e-14 -4.51911e-15 0)
(-2.68531e-14 -5.39352e-15 0)
(-2.79263e-14 -6.06256e-15 0)
(-2.8903e-14 -6.40426e-15 0)
(-3.00223e-14 -6.01071e-15 0)
(-3.06199e-14 -5.92826e-15 0)
(-3.063e-14 -5.31552e-15 0)
(-2.98465e-14 -4.7058e-15 0)
(-2.87029e-14 -4.92829e-15 0)
(-2.87163e-14 -5.54267e-15 0)
(-2.96748e-14 -6.44162e-15 0)
(-3.08836e-14 -7.17394e-15 0)
(-3.30677e-14 -7.41455e-15 0)
(-3.60873e-14 -7.7467e-15 0)
(-3.90118e-14 -7.20457e-15 0)
(-4.18408e-14 -6.19058e-15 0)
(-4.48567e-14 -5.39087e-15 0)
(-4.73609e-14 -5.13996e-15 0)
(-4.8984e-14 -4.52818e-15 0)
(-4.99536e-14 -3.70034e-15 0)
(-5.04565e-14 -3.29369e-15 0)
(-5.07596e-14 -2.38197e-15 0)
(-5.10713e-14 -1.64042e-15 0)
(-5.18823e-14 -1.15453e-15 0)
(-5.25527e-14 -4.50759e-16 0)
(-5.26444e-14 -3.00745e-16 0)
(-5.27056e-14 -1.15161e-16 0)
(-5.34191e-14 2.36433e-16 0)
(-5.45778e-14 3.8348e-16 0)
(-5.49935e-14 2.39912e-17 0)
(-5.43002e-14 -3.07123e-16 0)
(-5.33733e-14 3.65834e-16 0)
(-5.23678e-14 6.59323e-16 0)
(-5.14485e-14 2.39262e-16 0)
(-5.08641e-14 1.82492e-16 0)
(-4.999e-14 9.62402e-16 0)
(-4.90074e-14 7.62865e-16 0)
(-4.73438e-14 5.76546e-16 0)
(-4.47443e-14 -2.43799e-16 0)
(-4.19595e-14 -1.24734e-15 0)
(-3.91611e-14 -1.65808e-15 0)
(-3.70158e-14 -1.33256e-15 0)
(-3.53009e-14 -8.5108e-16 0)
(-3.31466e-14 -1.34526e-16 0)
(-3.03082e-14 -1.68098e-16 0)
(-2.72411e-14 -3.41817e-16 0)
(-2.44703e-14 -8.11944e-17 0)
(-2.07297e-14 -2.49087e-16 0)
(-1.56855e-14 -3.7629e-16 0)
(-1.00395e-14 -2.56291e-16 0)
(-3.63346e-15 -4.63147e-17 0)
(-7.17232e-16 -2.21544e-16 0)
(-2.36916e-15 -9.39158e-16 0)
(-4.20159e-15 -2.09899e-15 0)
(-5.4732e-15 -3.52096e-15 0)
(-7.36443e-15 -4.19396e-15 0)
(-1.01286e-14 -4.92828e-15 0)
(-1.26374e-14 -4.99913e-15 0)
(-1.47176e-14 -5.57354e-15 0)
(-1.5836e-14 -6.47443e-15 0)
(-1.6917e-14 -8.09194e-15 0)
(-1.84378e-14 -9.88666e-15 0)
(-1.97501e-14 -1.10823e-14 0)
(-2.11577e-14 -1.03544e-14 0)
(-2.25261e-14 -9.23974e-15 0)
(-2.2462e-14 -9.0582e-15 0)
(-2.11787e-14 -9.93845e-15 0)
(-2.03298e-14 -1.06953e-14 0)
(-2.06043e-14 -1.11016e-14 0)
(-2.08782e-14 -1.17623e-14 0)
(-2.03628e-14 -1.26359e-14 0)
(-1.96578e-14 -1.25503e-14 0)
(-1.92895e-14 -1.27248e-14 0)
(-1.90921e-14 -1.31613e-14 0)
(-1.7794e-14 -1.25713e-14 0)
(-1.68288e-14 -1.20687e-14 0)
(-1.74165e-14 -1.14642e-14 0)
(-1.85585e-14 -1.12816e-14 0)
(-1.95369e-14 -1.0965e-14 0)
(-1.92158e-14 -9.91339e-15 0)
(-1.82735e-14 -9.04562e-15 0)
(-1.82927e-14 -8.17688e-15 0)
(-1.86628e-14 -7.36693e-15 0)
(-1.88458e-14 -7.43346e-15 0)
(-1.90352e-14 -8.89984e-15 0)
(-1.91199e-14 -9.64186e-15 0)
(-2.06403e-14 -9.66259e-15 0)
(-2.31064e-14 -9.57053e-15 0)
(-2.45008e-14 -9.24198e-15 0)
(-2.44933e-14 -9.30763e-15 0)
(-2.36614e-14 -9.25768e-15 0)
(-2.29237e-14 -9.43454e-15 0)
(-2.25506e-14 -9.6211e-15 0)
(-2.249e-14 -1.09256e-14 0)
(-2.37309e-14 -1.1379e-14 0)
(-2.61257e-14 -1.16402e-14 0)
(-2.81955e-14 -1.08571e-14 0)
(-3.01217e-14 -9.65559e-15 0)
(-3.19505e-14 -8.09185e-15 0)
(-3.36404e-14 -6.98109e-15 0)
(-3.54046e-14 -6.79387e-15 0)
(-3.7057e-14 -7.31961e-15 0)
(-3.81589e-14 -7.96213e-15 0)
(-3.89576e-14 -8.08547e-15 0)
(-4.03903e-14 -7.69865e-15 0)
(-4.14274e-14 -7.61476e-15 0)
(-4.12492e-14 -7.59438e-15 0)
(-4.05485e-14 -6.8998e-15 0)
(-3.98886e-14 -6.98956e-15 0)
(-4.03398e-14 -8.0049e-15 0)
(-4.14533e-14 -9.12931e-15 0)
(-4.28593e-14 -9.44999e-15 0)
(-4.58063e-14 -9.93234e-15 0)
(-4.95205e-14 -1.01911e-14 0)
(-5.27144e-14 -9.82342e-15 0)
(-5.63214e-14 -8.63168e-15 0)
(-6.05566e-14 -7.82888e-15 0)
(-6.37592e-14 -7.18995e-15 0)
(-6.5792e-14 -6.56394e-15 0)
(-6.71218e-14 -5.57469e-15 0)
(-6.76753e-14 -4.51385e-15 0)
(-6.84034e-14 -3.18794e-15 0)
(-6.94451e-14 -2.61121e-15 0)
(-7.03578e-14 -2.05467e-15 0)
(-7.11125e-14 -1.24321e-15 0)
(-7.13381e-14 -9.78677e-16 0)
(-7.15033e-14 -4.10664e-16 0)
(-7.24808e-14 4.1295e-17 0)
(-7.37535e-14 1.95927e-16 0)
(-7.43622e-14 5.78933e-16 0)
(-7.35704e-14 6.0452e-16 0)
(-7.22006e-14 7.40278e-16 0)
(-7.10036e-14 8.78212e-16 0)
(-6.99671e-14 5.91851e-16 0)
(-6.88804e-14 3.98208e-16 0)
(-6.75647e-14 4.84372e-16 0)
(-6.62584e-14 1.28632e-16 0)
(-6.41676e-14 1.22655e-16 0)
(-6.09948e-14 -6.15062e-16 0)
(-5.70854e-14 -1.17455e-15 0)
(-5.30934e-14 -1.26979e-15 0)
(-5.00145e-14 -1.30261e-15 0)
(-4.72522e-14 -1.02973e-15 0)
(-4.43791e-14 -4.15977e-16 0)
(-4.08947e-14 -1.12213e-16 0)
(-3.6496e-14 -4.95474e-16 0)
(-3.24629e-14 -4.26229e-16 0)
(-2.73817e-14 -5.72771e-16 0)
(-2.06791e-14 -5.46763e-16 0)
(-1.31031e-14 -6.75584e-16 0)
(-4.68137e-15 -3.36484e-16 0)
(-8.90252e-16 -6.67185e-16 0)
(-3.00704e-15 -1.89151e-15 0)
(-5.35408e-15 -3.1705e-15 0)
(-7.07163e-15 -4.47958e-15 0)
(-9.15783e-15 -5.48211e-15 0)
(-1.21758e-14 -6.05762e-15 0)
(-1.53316e-14 -6.77948e-15 0)
(-1.82115e-14 -7.92017e-15 0)
(-2.00496e-14 -9.29266e-15 0)
(-2.15054e-14 -1.12432e-14 0)
(-2.3248e-14 -1.23766e-14 0)
(-2.43468e-14 -1.30233e-14 0)
(-2.54116e-14 -1.29421e-14 0)
(-2.70771e-14 -1.28515e-14 0)
(-2.75139e-14 -1.25276e-14 0)
(-2.64922e-14 -1.23868e-14 0)
(-2.54711e-14 -1.32266e-14 0)
(-2.57106e-14 -1.3974e-14 0)
(-2.6433e-14 -1.42717e-14 0)
(-2.55953e-14 -1.52843e-14 0)
(-2.44478e-14 -1.54677e-14 0)
(-2.42915e-14 -1.56982e-14 0)
(-2.34918e-14 -1.59647e-14 0)
(-2.1751e-14 -1.51033e-14 0)
(-2.10937e-14 -1.44509e-14 0)
(-2.18855e-14 -1.40784e-14 0)
(-2.33149e-14 -1.4243e-14 0)
(-2.40024e-14 -1.3927e-14 0)
(-2.32364e-14 -1.27694e-14 0)
(-2.24655e-14 -1.14527e-14 0)
(-2.26596e-14 -1.06484e-14 0)
(-2.322e-14 -1.0227e-14 0)
(-2.40551e-14 -1.03658e-14 0)
(-2.45402e-14 -1.10256e-14 0)
(-2.4528e-14 -1.1496e-14 0)
(-2.60989e-14 -1.19762e-14 0)
(-2.86474e-14 -1.18301e-14 0)
(-3.02424e-14 -1.19346e-14 0)
(-3.02398e-14 -1.19582e-14 0)
(-2.94302e-14 -1.1756e-14 0)
(-2.88316e-14 -1.18099e-14 0)
(-2.89472e-14 -1.20012e-14 0)
(-2.92783e-14 -1.28656e-14 0)
(-3.04945e-14 -1.33195e-14 0)
(-3.2717e-14 -1.35136e-14 0)
(-3.4785e-14 -1.30688e-14 0)
(-3.70116e-14 -1.21333e-14 0)
(-3.9199e-14 -1.09187e-14 0)
(-4.15363e-14 -9.81016e-15 0)
(-4.40413e-14 -9.35951e-15 0)
(-4.63197e-14 -9.2223e-15 0)
(-4.77301e-14 -9.31432e-15 0)
(-4.86302e-14 -9.47764e-15 0)
(-5.02333e-14 -9.49031e-15 0)
(-5.15729e-14 -9.39418e-15 0)
(-5.13441e-14 -9.41836e-15 0)
(-5.06293e-14 -8.96957e-15 0)
(-5.07438e-14 -9.30965e-15 0)
(-5.17689e-14 -1.06739e-14 0)
(-5.28189e-14 -1.1456e-14 0)
(-5.45451e-14 -1.16907e-14 0)
(-5.80488e-14 -1.23729e-14 0)
(-6.20885e-14 -1.23515e-14 0)
(-6.56948e-14 -1.2148e-14 0)
(-6.9902e-14 -1.1559e-14 0)
(-7.48873e-14 -1.07296e-14 0)
(-7.88848e-14 -9.63343e-15 0)
(-8.13603e-14 -8.6129e-15 0)
(-8.28342e-14 -7.24547e-15 0)
(-8.37232e-14 -5.8561e-15 0)
(-8.49288e-14 -4.67368e-15 0)
(-8.62576e-14 -3.95834e-15 0)
(-8.72639e-14 -3.07856e-15 0)
(-8.84012e-14 -1.95052e-15 0)
(-8.88288e-14 -1.44117e-15 0)
(-8.8929e-14 -8.44776e-16 0)
(-9.01353e-14 -3.89664e-16 0)
(-9.14758e-14 -1.36247e-17 0)
(-9.20193e-14 5.80282e-16 0)
(-9.13818e-14 1.18273e-15 0)
(-8.99859e-14 1.16821e-15 0)
(-8.86818e-14 1.22039e-15 0)
(-8.73717e-14 6.46112e-16 0)
(-8.58632e-14 3.2668e-16 0)
(-8.42539e-14 6.92536e-17 0)
(-8.22419e-14 -3.09028e-16 0)
(-7.95259e-14 -4.00943e-16 0)
(-7.57948e-14 -6.1754e-16 0)
(-7.0962e-14 -7.75578e-16 0)
(-6.62604e-14 -8.63757e-16 0)
(-6.23315e-14 -1.28328e-15 0)
(-5.85135e-14 -1.16536e-15 0)
(-5.4508e-14 -8.81998e-16 0)
(-5.03434e-14 -3.42176e-16 0)
(-4.51914e-14 -6.60911e-16 0)
(-3.97877e-14 -7.57749e-16 0)
(-3.33151e-14 -7.09808e-16 0)
(-2.51625e-14 -1.04626e-15 0)
(-1.58897e-14 -7.64024e-16 0)
(-5.31709e-15 -3.95663e-16 0)
(-1.00565e-15 -1.0161e-15 0)
(-3.39356e-15 -2.95415e-15 0)
(-6.15884e-15 -4.31151e-15 0)
(-8.19826e-15 -5.4772e-15 0)
(-1.05942e-14 -7.00306e-15 0)
(-1.42223e-14 -8.18492e-15 0)
(-1.81591e-14 -9.29463e-15 0)
(-2.16044e-14 -1.07922e-14 0)
(-2.40832e-14 -1.20031e-14 0)
(-2.57144e-14 -1.36897e-14 0)
(-2.70594e-14 -1.45719e-14 0)
(-2.8295e-14 -1.49432e-14 0)
(-2.98489e-14 -1.54415e-14 0)
(-3.14299e-14 -1.56398e-14 0)
(-3.14319e-14 -1.52767e-14 0)
(-3.09785e-14 -1.47618e-14 0)
(-3.07474e-14 -1.5245e-14 0)
(-3.06141e-14 -1.62898e-14 0)
(-3.10785e-14 -1.72675e-14 0)
(-3.04511e-14 -1.79672e-14 0)
(-2.91226e-14 -1.83302e-14 0)
(-2.8763e-14 -1.76655e-14 0)
(-2.77173e-14 -1.6932e-14 0)
(-2.57052e-14 -1.6704e-14 0)
(-2.50956e-14 -1.66815e-14 0)
(-2.63563e-14 -1.66759e-14 0)
(-2.76781e-14 -1.71955e-14 0)
(-2.78216e-14 -1.65628e-14 0)
(-2.68544e-14 -1.52315e-14 0)
(-2.6211e-14 -1.40577e-14 0)
(-2.68648e-14 -1.32024e-14 0)
(-2.78583e-14 -1.2863e-14 0)
(-2.881e-14 -1.31885e-14 0)
(-2.9373e-14 -1.33955e-14 0)
(-2.96612e-14 -1.37317e-14 0)
(-3.12172e-14 -1.41454e-14 0)
(-3.38924e-14 -1.40369e-14 0)
(-3.57311e-14 -1.40276e-14 0)
(-3.56303e-14 -1.37782e-14 0)
(-3.48511e-14 -1.4011e-14 0)
(-3.4459e-14 -1.42783e-14 0)
(-3.48816e-14 -1.45656e-14 0)
(-3.54233e-14 -1.4771e-14 0)
(-3.67882e-14 -1.48661e-14 0)
(-3.92935e-14 -1.48485e-14 0)
(-4.13854e-14 -1.4654e-14 0)
(-4.35852e-14 -1.41651e-14 0)
(-4.60272e-14 -1.36381e-14 0)
(-4.88989e-14 -1.2768e-14 0)
(-5.19206e-14 -1.22567e-14 0)
(-5.45125e-14 -1.15386e-14 0)
(-5.64103e-14 -1.12154e-14 0)
(-5.77374e-14 -1.09302e-14 0)
(-5.95219e-14 -1.10197e-14 0)
(-6.09986e-14 -1.1101e-14 0)
(-6.08399e-14 -1.10101e-14 0)
(-6.05388e-14 -1.07975e-14 0)
(-6.14046e-14 -1.15679e-14 0)
(-6.25445e-14 -1.29321e-14 0)
(-6.34466e-14 -1.36733e-14 0)
(-6.56856e-14 -1.40974e-14 0)
(-6.96243e-14 -1.45168e-14 0)
(-7.40709e-14 -1.44541e-14 0)
(-7.83211e-14 -1.45461e-14 0)
(-8.29228e-14 -1.43913e-14 0)
(-8.81437e-14 -1.38877e-14 0)
(-9.24111e-14 -1.26812e-14 0)
(-9.52569e-14 -1.1107e-14 0)
(-9.71224e-14 -9.15777e-15 0)
(-9.8458e-14 -7.2883e-15 0)
(-1.00219e-13 -5.74047e-15 0)
(-1.01925e-13 -4.9535e-15 0)
(-1.02888e-13 -4.27511e-15 0)
(-1.04176e-13 -3.17664e-15 0)
(-1.0498e-13 -2.11889e-15 0)
(-1.05344e-13 -1.59197e-15 0)
(-1.06616e-13 -1.04592e-15 0)
(-1.07855e-13 -2.25745e-16 0)
(-1.08267e-13 4.81085e-16 0)
(-1.07752e-13 9.10517e-16 0)
(-1.06431e-13 9.77442e-16 0)
(-1.05127e-13 1.26054e-15 0)
(-1.0376e-13 9.93287e-16 0)
(-1.01756e-13 4.42232e-16 0)
(-9.96418e-14 -1.16403e-17 0)
(-9.71826e-14 -5.50921e-16 0)
(-9.37559e-14 -7.10054e-16 0)
(-8.92619e-14 -2.6396e-16 0)
(-8.3819e-14 -2.86685e-16 0)
(-7.8561e-14 -6.06949e-16 0)
(-7.38287e-14 -1.03642e-15 0)
(-6.89405e-14 -1.25142e-15 0)
(-6.39857e-14 -1.20951e-15 0)
(-5.89842e-14 -1.10446e-15 0)
(-5.29072e-14 -9.69359e-16 0)
(-4.62604e-14 -1.19592e-15 0)
(-3.87724e-14 -5.53047e-16 0)
(-2.90699e-14 -9.30627e-16 0)
(-1.79484e-14 -3.50499e-16 0)
(-6.06105e-15 -1.64968e-16 0)
(-1.28749e-15 -1.37839e-15 0)
(-3.84659e-15 -3.87199e-15 0)
(-6.58703e-15 -5.70896e-15 0)
(-9.42387e-15 -7.08593e-15 0)
(-1.25409e-14 -9.1411e-15 0)
(-1.62651e-14 -1.06247e-14 0)
(-2.06118e-14 -1.19896e-14 0)
(-2.44354e-14 -1.33643e-14 0)
(-2.71948e-14 -1.44383e-14 0)
(-2.91443e-14 -1.52414e-14 0)
(-3.06477e-14 -1.61986e-14 0)
(-3.2164e-14 -1.71215e-14 0)
(-3.36877e-14 -1.76943e-14 0)
(-3.51093e-14 -1.73605e-14 0)
(-3.52172e-14 -1.72236e-14 0)
(-3.48974e-14 -1.72886e-14 0)
(-3.50597e-14 -1.74805e-14 0)
(-3.56896e-14 -1.81755e-14 0)
(-3.61751e-14 -1.97982e-14 0)
(-3.48842e-14 -2.01635e-14 0)
(-3.27169e-14 -1.99896e-14 0)
(-3.17325e-14 -1.88801e-14 0)
(-3.12353e-14 -1.79418e-14 0)
(-3.00092e-14 -1.85782e-14 0)
(-2.95346e-14 -1.92647e-14 0)
(-3.07887e-14 -1.92768e-14 0)
(-3.18576e-14 -1.91563e-14 0)
(-3.1288e-14 -1.85229e-14 0)
(-3.02034e-14 -1.74655e-14 0)
(-2.98296e-14 -1.65471e-14 0)
(-3.06509e-14 -1.56551e-14 0)
(-3.20805e-14 -1.51565e-14 0)
(-3.33597e-14 -1.50608e-14 0)
(-3.39977e-14 -1.523e-14 0)
(-3.44096e-14 -1.58509e-14 0)
(-3.60167e-14 -1.6311e-14 0)
(-3.86195e-14 -1.63399e-14 0)
(-4.03915e-14 -1.62763e-14 0)
(-4.0745e-14 -1.59016e-14 0)
(-4.04383e-14 -1.62407e-14 0)
(-4.00263e-14 -1.63411e-14 0)
(-4.03423e-14 -1.65823e-14 0)
(-4.0922e-14 -1.65764e-14 0)
(-4.25112e-14 -1.67785e-14 0)
(-4.51723e-14 -1.66013e-14 0)
(-4.76077e-14 -1.61842e-14 0)
(-5.03035e-14 -1.60986e-14 0)
(-5.2871e-14 -1.6137e-14 0)
(-5.58094e-14 -1.58194e-14 0)
(-5.89646e-14 -1.50581e-14 0)
(-6.19053e-14 -1.36616e-14 0)
(-6.41634e-14 -1.28946e-14 0)
(-6.58902e-14 -1.27834e-14 0)
(-6.8248e-14 -1.28073e-14 0)
(-6.98672e-14 -1.25302e-14 0)
(-6.97475e-14 -1.19887e-14 0)
(-6.99392e-14 -1.2157e-14 0)
(-7.15188e-14 -1.32582e-14 0)
(-7.29531e-14 -1.4608e-14 0)
(-7.39303e-14 -1.59441e-14 0)
(-7.62513e-14 -1.67404e-14 0)
(-8.04294e-14 -1.67369e-14 0)
(-8.5412e-14 -1.6761e-14 0)
(-9.02085e-14 -1.68537e-14 0)
(-9.52312e-14 -1.67285e-14 0)
(-1.00628e-13 -1.64874e-14 0)
(-1.04908e-13 -1.5601e-14 0)
(-1.07759e-13 -1.36871e-14 0)
(-1.09781e-13 -1.12872e-14 0)
(-1.11595e-13 -8.99637e-15 0)
(-1.14119e-13 -7.51789e-15 0)
(-1.16515e-13 -6.18913e-15 0)
(-1.17634e-13 -5.50823e-15 0)
(-1.18752e-13 -4.75915e-15 0)
(-1.19791e-13 -3.31616e-15 0)
(-1.2041e-13 -2.4634e-15 0)
(-1.21495e-13 -1.52983e-15 0)
(-1.22743e-13 -3.60493e-16 0)
(-1.23504e-13 4.68354e-16 0)
(-1.23145e-13 5.44236e-16 0)
(-1.2152e-13 1.05167e-15 0)
(-1.19991e-13 1.15987e-15 0)
(-1.1872e-13 1.1372e-15 0)
(-1.16671e-13 6.14803e-16 0)
(-1.1424e-13 -2.21837e-16 0)
(-1.11044e-13 -4.02621e-16 0)
(-1.06485e-13 -2.04656e-16 0)
(-1.01408e-13 2.66077e-16 0)
(-9.58088e-14 2.82545e-16 0)
(-9.00189e-14 -2.99441e-16 0)
(-8.45563e-14 -7.20246e-16 0)
(-7.88309e-14 -1.26895e-15 0)
(-7.28897e-14 -1.64232e-15 0)
(-6.67953e-14 -1.72038e-15 0)
(-5.98575e-14 -1.48326e-15 0)
(-5.18734e-14 -1.53914e-15 0)
(-4.31127e-14 -3.92103e-16 0)
(-3.24221e-14 -4.69027e-17 0)
(-2.0004e-14 -7.06109e-17 0)
(-6.79559e-15 -2.93281e-16 0)
(-1.39238e-15 -1.70901e-15 0)
(-4.21463e-15 -4.53996e-15 0)
(-7.20486e-15 -7.05534e-15 0)
(-1.04301e-14 -9.25613e-15 0)
(-1.39144e-14 -1.12464e-14 0)
(-1.80146e-14 -1.27402e-14 0)
(-2.27958e-14 -1.43171e-14 0)
(-2.68778e-14 -1.55378e-14 0)
(-2.97141e-14 -1.64389e-14 0)
(-3.19831e-14 -1.68585e-14 0)
(-3.41003e-14 -1.79507e-14 0)
(-3.56825e-14 -1.89843e-14 0)
(-3.6841e-14 -1.92762e-14 0)
(-3.82867e-14 -1.86997e-14 0)
(-3.88277e-14 -1.86546e-14 0)
(-3.8762e-14 -1.93836e-14 0)
(-3.90849e-14 -1.99928e-14 0)
(-4.00659e-14 -2.01951e-14 0)
(-4.03304e-14 -2.09721e-14 0)
(-3.84063e-14 -2.10675e-14 0)
(-3.60034e-14 -2.10071e-14 0)
(-3.50854e-14 -2.09304e-14 0)
(-3.5328e-14 -2.03342e-14 0)
(-3.45238e-14 -2.08243e-14 0)
(-3.34876e-14 -2.13328e-14 0)
(-3.42146e-14 -2.13288e-14 0)
(-3.51429e-14 -2.054e-14 0)
(-3.46828e-14 -1.99393e-14 0)
(-3.35792e-14 -1.92516e-14 0)
(-3.31127e-14 -1.82287e-14 0)
(-3.41155e-14 -1.73835e-14 0)
(-3.57369e-14 -1.71786e-14 0)
(-3.72575e-14 -1.67995e-14 0)
(-3.84947e-14 -1.70805e-14 0)
(-3.92249e-14 -1.78837e-14 0)
(-4.06313e-14 -1.84905e-14 0)
(-4.32136e-14 -1.84277e-14 0)
(-4.50067e-14 -1.83491e-14 0)
(-4.54007e-14 -1.80899e-14 0)
(-4.51437e-14 -1.79075e-14 0)
(-4.48755e-14 -1.7898e-14 0)
(-4.54876e-14 -1.84581e-14 0)
(-4.63697e-14 -1.86667e-14 0)
(-4.80834e-14 -1.93841e-14 0)
(-5.06931e-14 -1.88419e-14 0)
(-5.34615e-14 -1.83786e-14 0)
(-5.6613e-14 -1.80856e-14 0)
(-5.94742e-14 -1.80823e-14 0)
(-6.23059e-14 -1.83285e-14 0)
(-6.50482e-14 -1.74606e-14 0)
(-6.81328e-14 -1.6231e-14 0)
(-7.14658e-14 -1.49201e-14 0)
(-7.38513e-14 -1.45432e-14 0)
(-7.59609e-14 -1.44114e-14 0)
(-7.74225e-14 -1.35558e-14 0)
(-7.79442e-14 -1.26565e-14 0)
(-7.91841e-14 -1.32853e-14 0)
(-8.12872e-14 -1.45883e-14 0)
(-8.30642e-14 -1.61062e-14 0)
(-8.41633e-14 -1.78104e-14 0)
(-8.61798e-14 -1.89599e-14 0)
(-9.04624e-14 -1.90398e-14 0)
(-9.6005e-14 -1.91961e-14 0)
(-1.0123e-13 -1.92889e-14 0)
(-1.06673e-13 -1.91489e-14 0)
(-1.12372e-13 -1.89587e-14 0)
(-1.16359e-13 -1.82104e-14 0)
(-1.18927e-13 -1.59527e-14 0)
(-1.21229e-13 -1.35705e-14 0)
(-1.23841e-13 -1.12421e-14 0)
(-1.26808e-13 -9.29046e-15 0)
(-1.2951e-13 -7.4974e-15 0)
(-1.31227e-13 -6.43115e-15 0)
(-1.32207e-13 -5.48069e-15 0)
(-1.33118e-13 -4.19379e-15 0)
(-1.33984e-13 -3.01424e-15 0)
(-1.3509e-13 -1.98951e-15 0)
(-1.36402e-13 -6.70505e-16 0)
(-1.37524e-13 1.90858e-16 0)
(-1.37043e-13 5.84939e-16 0)
(-1.35376e-13 1.41916e-15 0)
(-1.34022e-13 1.37079e-15 0)
(-1.32573e-13 1.21428e-15 0)
(-1.30516e-13 9.10217e-16 0)
(-1.27376e-13 2.05899e-16 0)
(-1.23252e-13 6.79824e-16 0)
(-1.18313e-13 8.57809e-16 0)
(-1.12807e-13 8.05951e-16 0)
(-1.06903e-13 6.07379e-16 0)
(-1.00656e-13 2.46048e-16 0)
(-9.45078e-14 -3.82425e-16 0)
(-8.80912e-14 -1.05119e-15 0)
(-8.11723e-14 -1.95602e-15 0)
(-7.39632e-14 -2.24334e-15 0)
(-6.59621e-14 -1.55423e-15 0)
(-5.65839e-14 -1.18374e-15 0)
(-4.65821e-14 -3.47053e-16 0)
(-3.53792e-14 1.9412e-16 0)
(-2.22082e-14 -1.12841e-16 0)
(-7.35036e-15 -2.72794e-16 0)
(-1.5302e-15 -1.79696e-15 0)
(-4.66982e-15 -5.2187e-15 0)
(-8.05379e-15 -8.11893e-15 0)
(-1.1557e-14 -1.07294e-14 0)
(-1.51634e-14 -1.30507e-14 0)
(-1.95441e-14 -1.50216e-14 0)
(-2.45902e-14 -1.6586e-14 0)
(-2.87482e-14 -1.75737e-14 0)
(-3.16818e-14 -1.80319e-14 0)
(-3.44755e-14 -1.86563e-14 0)
(-3.70793e-14 -1.96114e-14 0)
(-3.85908e-14 -2.0447e-14 0)
(-3.94242e-14 -2.04618e-14 0)
(-4.09809e-14 -1.97381e-14 0)
(-4.23225e-14 -1.98853e-14 0)
(-4.26718e-14 -2.10371e-14 0)
(-4.2577e-14 -2.18486e-14 0)
(-4.34237e-14 -2.1738e-14 0)
(-4.38981e-14 -2.13475e-14 0)
(-4.20389e-14 -2.16935e-14 0)
(-3.97778e-14 -2.2616e-14 0)
(-3.84241e-14 -2.35633e-14 0)
(-3.83673e-14 -2.30971e-14 0)
(-3.79826e-14 -2.24796e-14 0)
(-3.71862e-14 -2.23053e-14 0)
(-3.75446e-14 -2.22393e-14 0)
(-3.82462e-14 -2.15595e-14 0)
(-3.78262e-14 -2.08025e-14 0)
(-3.65014e-14 -2.02899e-14 0)
(-3.60737e-14 -1.96795e-14 0)
(-3.75542e-14 -1.92461e-14 0)
(-3.93925e-14 -1.89075e-14 0)
(-4.1124e-14 -1.87256e-14 0)
(-4.27747e-14 -1.92021e-14 0)
(-4.36228e-14 -1.99679e-14 0)
(-4.48287e-14 -2.03222e-14 0)
(-4.71727e-14 -2.01511e-14 0)
(-4.90282e-14 -1.95671e-14 0)
(-4.95097e-14 -1.9246e-14 0)
(-4.95833e-14 -1.92594e-14 0)
(-4.99365e-14 -1.99518e-14 0)
(-5.06857e-14 -2.09222e-14 0)
(-5.17276e-14 -2.11473e-14 0)
(-5.31881e-14 -2.16272e-14 0)
(-5.54684e-14 -2.08322e-14 0)
(-5.86141e-14 -2.0417e-14 0)
(-6.21867e-14 -1.98878e-14 0)
(-6.56773e-14 -1.97677e-14 0)
(-6.84828e-14 -2.01925e-14 0)
(-7.1033e-14 -1.94507e-14 0)
(-7.41125e-14 -1.86206e-14 0)
(-7.74514e-14 -1.7081e-14 0)
(-8.0485e-14 -1.59937e-14 0)
(-8.29088e-14 -1.57041e-14 0)
(-8.43531e-14 -1.50195e-14 0)
(-8.56904e-14 -1.41621e-14 0)
(-8.7865e-14 -1.47431e-14 0)
(-9.04969e-14 -1.59031e-14 0)
(-9.27003e-14 -1.74702e-14 0)
(-9.39866e-14 -1.88121e-14 0)
(-9.58117e-14 -2.00169e-14 0)
(-1.0007e-13 -2.10034e-14 0)
(-1.05958e-13 -2.15857e-14 0)
(-1.1148e-13 -2.18693e-14 0)
(-1.17241e-13 -2.19177e-14 0)
(-1.23102e-13 -2.16915e-14 0)
(-1.26705e-13 -2.06443e-14 0)
(-1.29109e-13 -1.83999e-14 0)
(-1.31736e-13 -1.58336e-14 0)
(-1.34427e-13 -1.31275e-14 0)
(-1.37814e-13 -1.03664e-14 0)
(-1.41248e-13 -8.51061e-15 0)
(-1.43297e-13 -7.14076e-15 0)
(-1.44492e-13 -5.95901e-15 0)
(-1.45535e-13 -5.08466e-15 0)
(-1.46458e-13 -3.90876e-15 0)
(-1.47488e-13 -2.92795e-15 0)
(-1.48831e-13 -1.12257e-15 0)
(-1.50163e-13 -1.72539e-17 0)
(-1.49619e-13 1.01854e-15 0)
(-1.4801e-13 1.77283e-15 0)
(-1.46794e-13 2.04707e-15 0)
(-1.45195e-13 1.86401e-15 0)
(-1.4293e-13 1.80847e-15 0)
(-1.39197e-13 1.45599e-15 0)
(-1.34509e-13 1.5654e-15 0)
(-1.29381e-13 1.57596e-15 0)
(-1.23522e-13 1.44415e-15 0)
(-1.17003e-13 1.0824e-15 0)
(-1.10299e-13 9.63445e-16 0)
(-1.03747e-13 1.39578e-16 0)
(-9.68107e-14 -4.54352e-16 0)
(-8.9062e-14 -1.58632e-15 0)
(-8.01441e-14 -1.93176e-15 0)
(-7.09397e-14 -1.09071e-15 0)
(-6.09304e-14 -5.4691e-16 0)
(-4.9998e-14 -3.19624e-16 0)
(-3.799e-14 1.23917e-16 0)
(-2.38567e-14 -1.86698e-17 0)
(-7.79907e-15 7.10771e-17 0)
(-1.73392e-15 -2.26605e-15 0)
(-5.08476e-15 -6.12334e-15 0)
(-8.60129e-15 -9.26473e-15 0)
(-1.24746e-14 -1.1957e-14 0)
(-1.65e-14 -1.45423e-14 0)
(-2.0991e-14 -1.67875e-14 0)
(-2.59298e-14 -1.82839e-14 0)
(-3.00102e-14 -1.94975e-14 0)
(-3.33237e-14 -1.98412e-14 0)
(-3.66391e-14 -2.02964e-14 0)
(-3.95309e-14 -2.10461e-14 0)
(-4.09728e-14 -2.15304e-14 0)
(-4.14546e-14 -2.16144e-14 0)
(-4.33761e-14 -2.13753e-14 0)
(-4.55855e-14 -2.16678e-14 0)
(-4.62228e-14 -2.22461e-14 0)
(-4.5776e-14 -2.25817e-14 0)
(-4.59919e-14 -2.29962e-14 0)
(-4.66815e-14 -2.20496e-14 0)
(-4.57902e-14 -2.20456e-14 0)
(-4.38813e-14 -2.33081e-14 0)
(-4.19844e-14 -2.49282e-14 0)
(-4.11154e-14 -2.54107e-14 0)
(-4.05671e-14 -2.41831e-14 0)
(-3.9985e-14 -2.36494e-14 0)
(-4.03987e-14 -2.3643e-14 0)
(-4.08857e-14 -2.29011e-14 0)
(-4.06186e-14 -2.1546e-14 0)
(-3.9692e-14 -2.10442e-14 0)
(-3.93503e-14 -2.11639e-14 0)
(-4.06209e-14 -2.11053e-14 0)
(-4.25057e-14 -2.04095e-14 0)
(-4.47275e-14 -2.03472e-14 0)
(-4.67979e-14 -2.04632e-14 0)
(-4.76116e-14 -2.11173e-14 0)
(-4.85303e-14 -2.16097e-14 0)
(-5.0635e-14 -2.19022e-14 0)
(-5.25265e-14 -2.09088e-14 0)
(-5.35611e-14 -2.04719e-14 0)
(-5.42533e-14 -2.09085e-14 0)
(-5.49145e-14 -2.18641e-14 0)
(-5.54504e-14 -2.28255e-14 0)
(-5.62939e-14 -2.32124e-14 0)
(-5.76366e-14 -2.30639e-14 0)
(-6.0016e-14 -2.24536e-14 0)
(-6.34401e-14 -2.21083e-14 0)
(-6.7282e-14 -2.17577e-14 0)
(-7.13145e-14 -2.15858e-14 0)
(-7.41461e-14 -2.14423e-14 0)
(-7.64078e-14 -2.05055e-14 0)
(-7.93357e-14 -1.97209e-14 0)
(-8.28988e-14 -1.86055e-14 0)
(-8.66107e-14 -1.81714e-14 0)
(-8.94084e-14 -1.74666e-14 0)
(-9.08286e-14 -1.64855e-14 0)
(-9.26473e-14 -1.59612e-14 0)
(-9.57443e-14 -1.61653e-14 0)
(-9.89794e-14 -1.72616e-14 0)
(-1.01357e-13 -1.89263e-14 0)
(-1.02739e-13 -2.01421e-14 0)
(-1.05133e-13 -2.109e-14 0)
(-1.0968e-13 -2.30135e-14 0)
(-1.15494e-13 -2.37099e-14 0)
(-1.21151e-13 -2.42783e-14 0)
(-1.27048e-13 -2.44729e-14 0)
(-1.32743e-13 -2.36883e-14 0)
(-1.35995e-13 -2.23581e-14 0)
(-1.38126e-13 -2.03799e-14 0)
(-1.40687e-13 -1.76436e-14 0)
(-1.43672e-13 -1.46334e-14 0)
(-1.47702e-13 -1.20338e-14 0)
(-1.51789e-13 -9.73176e-15 0)
(-1.54292e-13 -8.03335e-15 0)
(-1.55859e-13 -6.89823e-15 0)
(-1.56933e-13 -6.24226e-15 0)
(-1.57817e-13 -5.27034e-15 0)
(-1.58492e-13 -3.73857e-15 0)
(-1.59674e-13 -1.54586e-15 0)
(-1.61245e-13 3.25988e-16 0)
(-1.60818e-13 1.74286e-15 0)
(-1.59414e-13 2.28503e-15 0)
(-1.58357e-13 2.79391e-15 0)