/*--------------------------------*- C++ -*----------------------------------*\
| =========                 |                                                 |
| \\      /  F ield         | OpenFOAM: The Open Source CFD Toolbox           |
|  \\    /   O peration     | Version:  v2012                                 |
|   \\  /    A nd           | Website:  www.openfoam.com                      |
|    \\/     M anipulation  |                                                 |
\*---------------------------------------------------------------------------*/
FoamFile
{
    version     2.0;
    format      ascii;
    class       volVectorField;
    location    "0";
    object      U;
}
// * * * * * * * * * * * * * * * * * * * * * * * * * * * * * * * * * * * * * //

dimensions      [0 1 -1 0 0 0 0];


internalField   nonuniform List<vector> 
4000
(
(1 3.99266e-15 0)
(1 1.44511e-15 0)
(1 1.64266e-15 0)
(1 -1.00115e-16 0)
(1 -1.05373e-15 0)
(1 -5.16266e-15 0)
(1 -5.6178e-16 0)
(1 6.64492e-15 0)
(1 5.37605e-15 0)
(1 -5.53192e-15 0)
(1 -4.23309e-15 0)
(1 9.92054e-16 0)
(1 3.93695e-15 0)
(1 4.3728e-15 0)
(1 -1.20399e-15 0)
(1 -8.52057e-15 0)
(1 6.68066e-17 0)
(1 4.26608e-15 0)
(1 -1.7263e-16 0)
(1 -5.52826e-16 0)
(1 -5.01957e-15 0)
(1 -3.06835e-15 0)
(1 -1.25501e-15 0)
(1 -2.21433e-15 0)
(1 2.8183e-15 0)
(1 4.39439e-15 0)
(1 5.21725e-16 0)
(1 1.40455e-15 0)
(1 2.40675e-15 0)
(1 3.80281e-16 0)
(1 -3.24648e-15 0)
(1 -8.03051e-15 0)
(1 -2.2028e-15 0)
(1 -2.62093e-15 0)
(1 -5.20111e-16 0)
(1 -8.46542e-16 0)
(1 7.92458e-15 0)
(1 2.6341e-15 0)
(1 4.16784e-15 0)
(1 -2.07974e-15 0)
(1 -6.27325e-15 0)
(1 -6.74752e-15 0)
(1 2.80156e-15 0)
(1 4.41737e-15 0)
(1 2.3817e-15 0)
(1 -5.94587e-17 0)
(1 -4.06773e-15 0)
(1 -2.88262e-16 0)
(1 1.26977e-15 0)
(1 4.28501e-15 0)
(1 2.61146e-15 0)
(1 4.42554e-15 0)
(1 3.77557e-15 0)
(1 2.6276e-15 0)
(1 2.68633e-15 0)
(1 7.36565e-16 0)
(1 -4.50064e-15 0)
(1 1.82401e-15 0)
(1 -7.63483e-16 0)
(1 1.76517e-15 0)
(1 -6.55726e-16 0)
(1 1.67728e-15 0)
(1 2.0117e-15 0)
(1 -1.51658e-15 0)
(1 -1.44076e-15 0)
(1 -9.24329e-16 0)
(1 -9.05911e-16 0)
(1 3.96146e-15 0)
(1 -2.96712e-15 0)
(1 -1.80175e-15 0)
(1 -2.31153e-15 0)
(1 7.61655e-16 0)
(1 -3.02848e-15 0)
(1 -4.47044e-15 0)
(1 -5.6811e-15 0)
(1 -2.60987e-15 0)
(1 -2.04826e-15 0)
(1 -5.44922e-16 0)
(1 3.07637e-16 0)
(1 2.44514e-15 0)
(1 8.38002e-16 0)
(1 2.25429e-15 0)
(1 9.95371e-16 0)
(1 -7.45911e-15 0)
(1 -7.21169e-15 0)
(1 4.34694e-15 0)
(1 3.53295e-15 0)
(1 3.2908e-15 0)
(1 2.81366e-15 0)
(1 3.02684e-15 0)
(1 5.21472e-16 0)
(1 2.46728e-15 0)
(1 -1.58257e-15 0)
(1 -3.26825e-16 0)
(1 -1.4857e-15 0)
(1 4.65249e-15 0)
(1 -1.78952e-15 0)
(1 -2.02216e-15 0)
(1 -4.62953e-16 0)
(1 -2.23333e-15 0)
(1 2.59746e-15 0)
(1 3.07749e-15 0)
(1 1.78756e-15 0)
(1 1.53589e-15 0)
(1 -1.76898e-15 0)
(1 -7.30308e-15 0)
(1 -2.50697e-15 0)
(1 8.20894e-15 0)
(1 6.69712e-15 0)
(1 8.86509e-16 0)
(1 -5.47289e-15 0)
(1 -2.19523e-15 0)
(1 4.52843e-15 0)
(1 2.46507e-15 0)
(1 -9.37052e-16 0)
(1 -1.22426e-14 0)
(1 1.18842e-15 0)
(1 8.92776e-15 0)
(1 -1.59767e-16 0)
(1 1.01183e-15 0)
(1 -5.03092e-15 0)
(1 -1.61447e-15 0)
(1 3.41635e-15 0)
(1 9.54862e-16 0)
(1 7.91731e-16 0)
(1 -3.41623e-15 0)
(1 -6.99028e-15 0)
(1 -1.18751e-15 0)
(1 5.06765e-15 0)
(1 -1.35419e-15 0)
(1 2.30134e-15 0)
(1 -5.11841e-15 0)
(1 -1.07259e-15 0)
(1 4.39573e-16 0)
(1 -3.37539e-15 0)
(1 -4.8432e-16 0)
(1 6.29378e-15 0)
(1 -5.08326e-16 0)
(1 -3.77114e-15 0)
(1 -5.18356e-15 0)
(1 -7.34425e-15 0)
(1 -9.3451e-16 0)
(1 6.03784e-15 0)
(1 8.67524e-15 0)
(1 4.85213e-15 0)
(1 -2.99151e-15 0)
(1 -2.37983e-15 0)
(1 -3.83498e-15 0)
(1 1.12187e-15 0)
(1 -2.72236e-15 0)
(1 -8.9433e-16 0)
(1 2.17879e-15 0)
(1 3.78223e-15 0)
(1 1.32731e-15 0)
(1 6.50484e-15 0)
(1 5.82425e-15 0)
(1 -4.9967e-16 0)
(1 3.38744e-16 0)
(1 -4.25604e-15 0)
(1 -1.64911e-15 0)
(1 -3.97972e-15 0)
(1 -4.18362e-15 0)
(1 4.43193e-15 0)
(1 3.78703e-15 0)
(1 -3.56451e-17 0)
(1 -6.84531e-15 0)
(1 -2.5517e-15 0)
(1 3.2934e-15 0)
(1 -2.59798e-15 0)
(1 -2.23227e-15 0)
(1 1.49985e-15 0)
(1 3.65663e-15 0)
(1 3.21491e-15 0)
(1 8.81065e-16 0)
(1 2.1417e-15 0)
(1 -5.29231e-15 0)
(1 8.6691e-16 0)
(1 2.1522e-15 0)
(1 5.7381e-15 0)
(1 6.90405e-15 0)
(1 1.31169e-15 0)
(1 -3.0065e-15 0)
(1 1.50456e-15 0)
(1 -5.92479e-15 0)
(1 -7.00512e-15 0)
(1 5.32069e-15 0)
(1 3.73833e-15 0)
(1 9.56741e-16 0)
(1 -7.72842e-18 0)
(1 1.16143e-15 0)
(1 -3.14278e-15 0)
(1 3.99788e-16 0)
(1 -2.14596e-15 0)
(1 1.34567e-15 0)
(1 -2.11836e-15 0)
(1 6.72824e-15 0)
(1 -4.21545e-15 0)
(1 1.51833e-15 0)
(1 -3.84215e-15 0)
(1 -7.21052e-15 0)
(1 -4.31238e-15 0)
(1 4.49036e-15 0)
(1 -5.2637e-15 0)
(1 4.46264e-15 0)
(1 -3.49734e-15 0)
(1 -3.68787e-16 0)
(1 2.71523e-15 0)
(1 5.91274e-15 0)
(1 3.57338e-15 0)
(1 1.98902e-15 0)
(1 -1.11618e-15 0)
(1 -3.04116e-15 0)
(1 1.08934e-14 0)
(1 4.60581e-15 0)
(1 -1.13384e-15 0)
(1 -6.92252e-15 0)
(1 -6.0614e-15 0)
(1 -4.30054e-16 0)
(1 2.53597e-15 0)
(1 -2.53204e-15 0)
(1 -3.49114e-15 0)
(1 2.76429e-15 0)
(1 4.71595e-15 0)
(1 6.19467e-15 0)
(1 2.97618e-15 0)
(1 -1.35062e-15 0)
(1 -1.82353e-15 0)
(1 -4.26724e-16 0)
(1 7.28038e-15 0)
(1 -9.24566e-16 0)
(1 6.55626e-15 0)
(1 -4.09633e-15 0)
(1 -2.54202e-15 0)
(1 -5.17217e-15 0)
(1 -1.12459e-15 0)
(1 1.03328e-15 0)
(1 -2.32113e-15 0)
(1 -6.74555e-15 0)
(1 -5.18554e-15 0)
(1 -8.95834e-16 0)
(1 -3.31074e-15 0)
(1 -1.06028e-15 0)
(1 1.63807e-15 0)
(1 4.36005e-15 0)
(1 8.43047e-15 0)
(1 1.99516e-15 0)
(1 7.57486e-15 0)
(1 -1.5161e-15 0)
(1 3.96147e-17 0)
(1 -1.66843e-15 0)
(1 3.55366e-15 0)
(1 1.53442e-15 0)
(1 2.40199e-15 0)
(1 6.18573e-16 0)
(1 7.55415e-15 0)
(1 8.11604e-15 0)
(1 3.25805e-15 0)
(1 -4.67805e-16 0)
(1 -3.17107e-15 0)
(1 -6.26886e-15 0)
(1 -2.6589e-15 0)
(1 -2.22695e-15 0)
(1 1.99869e-15 0)
(1 6.37182e-15 0)
(1 -1.0432e-15 0)
(1 -5.50334e-15 0)
(1 -1.35908e-15 0)
(1 -1.4286e-15 0)
(1 -2.11358e-15 0)
(1 -1.97047e-15 0)
(1 -1.91718e-15 0)
(1 -3.15587e-15 0)
(1 4.59494e-15 0)
(1 3.78825e-15 0)
(1 -1.24792e-15 0)
(1 -6.31501e-15 0)
(1 -2.61217e-15 0)
(1 -1.5494e-15 0)
(1 4.80128e-15 0)
(1 2.74126e-15 0)
(1 -5.54128e-16 0)
(1 -4.09954e-15 0)
(1 5.20523e-16 0)
(1 -1.1752e-15 0)
(1 -1.7781e-15 0)
(1 9.36106e-16 0)
(1 2.02885e-15 0)
(1 1.006e-15 0)
(1 -1.25761e-15 0)
(1 -9.35441e-16 0)
(1 -1.48198e-15 0)
(1 9.87792e-16 0)
(1 -8.78986e-16 0)
(1 9.02863e-15 0)
(1 2.00749e-16 0)
(1 1.74612e-15 0)
(1 -3.30903e-15 0)
(1 -2.57963e-16 0)
(1 -6.1439e-15 0)
(1 -6.2912e-15 0)
(1 8.45714e-16 0)
(1 -6.02262e-15 0)
(1 -5.10752e-15 0)
(1 -4.58305e-15 0)
(1 2.66602e-15 0)
(1 8.82603e-15 0)
(1 8.74814e-15 0)
(1 -5.49582e-16 0)
(1 2.44448e-15 0)
(1 -5.09317e-15 0)
(1 3.94112e-15 0)
(1 -4.11575e-15 0)
(1 4.04062e-15 0)
(1 1.39034e-14 0)
(1 6.69587e-15 0)
(1 5.86866e-15 0)
(1 -5.8357e-15 0)
(1 -1.01641e-14 0)
(1 5.307e-15 0)
(1 -3.35519e-15 0)
(1 -3.12983e-15 0)
(1 -4.30481e-16 0)
(1 2.37305e-15 0)
(1 8.2451e-15 0)
(1 8.02087e-15 0)
(1 1.31475e-14 0)
(1 5.604e-15 0)
(1 7.67817e-15 0)
(1 4.86375e-15 0)
(1 -3.59933e-15 0)
(1 1.85287e-15 0)
(1 -1.19465e-14 0)
(1 -4.47817e-15 0)
(1 -1.09029e-14 0)
(1 2.22786e-16 0)
(1 -3.90299e-15 0)
(1 -3.17928e-15 0)
(1 -2.22508e-15 0)
(1 1.70182e-15 0)
(1 -6.01429e-15 0)
(1 2.46742e-15 0)
(1 -3.56777e-15 0)
(1 3.81735e-15 0)
(1 -3.6814e-15 0)
(1 2.97253e-15 0)
(1 7.72264e-15 0)
(1 5.32908e-15 0)
(1 6.02356e-15 0)
(1 3.7503e-15 0)
(1 3.55321e-15 0)
(1 3.02887e-15 0)
(1 5.65283e-15 0)
(1 3.60261e-15 0)
(1 5.32352e-15 0)
(1 5.22359e-15 0)
(1 3.22672e-15 0)
(1 1.94451e-17 0)
(1 -1.58253e-15 0)
(1 3.07015e-15 0)
(1 -4.08108e-15 0)
(1 8.91821e-16 0)
(1 2.47376e-16 0)
(1 1.44615e-15 0)
(1 -1.53534e-15 0)
(1 1.15138e-15 0)
(1 3.64179e-15 0)
(1 -1.4642e-15 0)
(1 -7.81983e-15 0)
(1 -8.45353e-15 0)
(1 -4.89103e-15 0)
(1 -2.00515e-15 0)
(1 -3.33335e-15 0)
(1 -3.70341e-16 0)
(1 5.09692e-16 0)
(1 -7.50267e-15 0)
(1 -4.1759e-15 0)
(1 1.86356e-15 0)
(1 1.59075e-15 0)
(1 1.5572e-15 0)
(1 -2.97528e-15 0)
(1 3.18334e-15 0)
(1 -3.83242e-16 0)
(1 1.20148e-16 0)
(1 -1.65082e-15 0)
(1 -1.86127e-15 0)
(1 3.26245e-15 0)
(1 5.21401e-15 0)
(1 5.687e-15 0)
(1 6.71302e-15 0)
(1 2.35706e-15 0)
(1 4.31919e-15 0)
(1 9.45283e-16 0)
(1 2.26008e-15 0)
(1 4.5707e-15 0)
(1 -8.13088e-16 0)
(1 -3.12589e-15 0)
(1 -3.42211e-15 0)
(1 -8.60985e-15 0)
(1 -8.94272e-15 0)
(1 -1.48713e-15 0)
(1 4.98822e-15 0)
(1 -2.85636e-15 0)
(1 1.25222e-15 0)
(1 -2.77788e-15 0)
(1 5.53445e-15 0)
(1 4.21301e-16 0)
(1 -1.24415e-15 0)
(1 -4.74748e-15 0)
(1 -3.19648e-15 0)
(1 -5.42484e-15 0)
(1 1.27603e-14 0)
(1 5.48559e-15 0)
(1 1.39554e-15 0)
(1 9.89699e-16 0)
(1 5.62422e-15 0)
(1 5.41904e-15 0)
(1 3.97693e-16 0)
(1 -6.60057e-15 0)
(1 -6.57971e-15 0)
(1 -5.91572e-15 0)
(1 4.47519e-15 0)
(1 -6.09782e-16 0)
(1 -3.97203e-15 0)
(1 2.76147e-15 0)
(1 7.38302e-15 0)
(1 8.28475e-15 0)
(1 1.8421e-15 0)
(1 8.83946e-15 0)
(1 5.14661e-15 0)
(1 1.77986e-15 0)
(1 2.09357e-15 0)
(1 6.84252e-16 0)
(1 -3.36972e-15 0)
(1 -2.47846e-16 0)
(1 -7.95426e-15 0)
(1 -9.47746e-15 0)
(1 -9.85887e-15 0)
(1 -6.9256e-15 0)
(1 -3.68347e-15 0)
(1 -4.27381e-15 0)
(1 -6.64782e-17 0)
(1 -3.94752e-15 0)
(1 2.30243e-15 0)
(1 3.0691e-15 0)
(1 9.21729e-16 0)
(1 2.68584e-15 0)
(1 -1.42659e-15 0)
(1 8.71513e-15 0)
(1 4.9126e-15 0)
(1 2.44339e-15 0)
(1 6.32681e-16 0)
(1 3.59297e-15 0)
(1 3.78214e-16 0)
(1 4.67636e-15 0)
(1 6.00162e-16 0)
(1 9.51517e-16 0)
(1 3.17948e-15 0)
(1 -1.33418e-15 0)
(1 2.45145e-15 0)
(1 1.66087e-15 0)
(1 -1.78895e-15 0)
(1 1.53124e-15 0)
(1 1.18412e-15 0)
(1 2.88901e-15 0)
(1 1.19439e-14 0)
(1 6.5287e-15 0)
(1 5.98862e-16 0)
(1 -6.28773e-15 0)
(1 -2.76832e-15 0)
(1 -6.12268e-15 0)
(1 -2.76198e-15 0)
(1 7.31272e-16 0)
(1 9.16673e-16 0)
(1 1.34837e-15 0)
(1 -1.59782e-15 0)
(1 -1.61603e-15 0)
(1 2.23896e-16 0)
(1 7.20757e-16 0)
(1 1.0626e-15 0)
(1 2.59223e-15 0)
(1 4.33507e-16 0)
(1 -1.73565e-15 0)
(1 -1.87497e-15 0)
(1 -1.35688e-15 0)
(1 5.28634e-15 0)
(1 3.49817e-15 0)
(1 3.95923e-15 0)
(1 3.10785e-15 0)
(1 4.10732e-15 0)
(1 1.14441e-15 0)
(1 7.11525e-15 0)
(1 -5.76868e-16 0)
(1 3.02539e-15 0)
(1 1.69247e-16 0)
(1 5.07876e-15 0)
(1 -2.30351e-15 0)
(1 -4.19246e-16 0)
(1 -3.66285e-15 0)
(1 -2.52914e-15 0)
(1 3.90069e-15 0)
(1 -8.5336e-16 0)
(1 3.11468e-15 0)
(1 3.78307e-15 0)
(1 4.16192e-15 0)
(1 -2.78982e-15 0)
(1 -9.89441e-15 0)
(1 -3.7539e-15 0)
(1 1.22117e-15 0)
(1 7.63677e-16 0)
(1 -6.52818e-16 0)
(1 3.87795e-15 0)
(1 1.46133e-14 0)
(1 7.33784e-15 0)
(1 -3.97981e-15 0)
(1 3.48842e-15 0)
(1 -1.26889e-15 0)
(1 2.65214e-15 0)
(1 -2.34899e-15 0)
(1 -1.2775e-14 0)
(1 -7.0482e-15 0)
(1 3.26182e-15 0)
(1 1.20672e-14 0)
(1 6.35898e-15 0)
(1 3.51283e-15 0)
(1 5.02591e-15 0)
(1 2.62647e-15 0)
(1 4.88211e-15 0)
(1 4.12132e-15 0)
(1 4.59302e-15 0)
(1 8.01403e-15 0)
(1 -4.23829e-15 0)
(1 -1.12237e-16 0)
(1 -5.28581e-15 0)
(1 1.011e-15 0)
(1 -4.20284e-15 0)
(1 2.84266e-15 0)
(1 -7.37746e-15 0)
(1 -4.78346e-15 0)
(1 -6.15327e-15 0)
(1 2.4255e-15 0)
(1 -7.66067e-15 0)
(1 3.18068e-15 0)
(1 1.02945e-15 0)
(1 1.10338e-14 0)
(1 4.98341e-15 0)
(1 -2.61101e-15 0)
(1 -2.84361e-16 0)
(1 4.58864e-15 0)
(1 5.84362e-15 0)
(1 8.27771e-15 0)
(1 4.17628e-15 0)
(1 3.9425e-15 0)
(1 3.16208e-15 0)
(1 4.79988e-15 0)
(1 4.07997e-15 0)
(1 2.91795e-15 0)
(1 -2.58159e-15 0)
(1 -2.99549e-15 0)
(1 -8.98092e-16 0)
(1 7.55111e-15 0)
(1 4.58721e-15 0)
(1 4.1445e-15 0)
(1 -4.82083e-15 0)
(1 3.83133e-15 0)
(1 7.40107e-15 0)
(1 6.64531e-15 0)
(1 6.1926e-15 0)
(1 6.15303e-15 0)
(1 1.02673e-14 0)
(1 9.67145e-15 0)
(1 9.31116e-15 0)
(1 -6.58378e-17 0)
(1 1.7352e-16 0)
(1 -1.67277e-15 0)
(1 -4.01559e-15 0)
(1 -6.74704e-15 0)
(1 -6.20233e-15 0)
(1 -2.43301e-15 0)
(1 2.05561e-15 0)
(1 5.75216e-15 0)
(1 -3.2795e-16 0)
(1 4.30598e-15 0)
(1 -6.58489e-16 0)
(1 -2.39693e-15 0)
(1 -1.52589e-15 0)
(1 -2.81273e-15 0)
(1 -3.38315e-15 0)
(1 2.40499e-16 0)
(1 -1.47042e-15 0)
(1 3.23052e-15 0)
(1 3.60831e-15 0)
(1 3.34067e-15 0)
(1 2.6204e-15 0)
(1 6.02114e-15 0)
(1 8.41271e-15 0)
(1 4.50377e-16 0)
(1 5.73962e-15 0)
(1 4.39775e-15 0)
(1 9.81975e-15 0)
(1 7.96114e-15 0)
(1 -1.6032e-15 0)
(1 1.05531e-16 0)
(1 5.50515e-15 0)
(1 4.70646e-15 0)
(1 -8.22602e-16 0)
(1 -4.26329e-15 0)
(1 1.50688e-15 0)
(1 6.41437e-15 0)
(1 2.04732e-15 0)
(1 3.92636e-15 0)
(1 -5.21431e-15 0)
(1 4.28853e-16 0)
(1 -3.53121e-15 0)
(1 4.64714e-15 0)
(1 2.1506e-15 0)
(1 1.81076e-16 0)
(1 -1.27548e-16 0)
(1 -7.80652e-16 0)
(1 2.19995e-15 0)
(1 5.5443e-15 0)
(1 1.70398e-15 0)
(1 5.98794e-15 0)
(1 -1.52975e-15 0)
(1 9.17723e-16 0)
(1 -6.85468e-15 0)
(1 -8.85966e-15 0)
(1 4.58732e-15 0)
(1 2.03232e-15 0)
(1 6.55756e-15 0)
(1 8.00532e-15 0)
(1 6.21147e-15 0)
(1 9.3452e-16 0)
(1 -1.18216e-15 0)
(1 -3.59943e-15 0)
(1 -1.66325e-15 0)
(1 -3.61524e-15 0)
(1 -4.51847e-15 0)
(1 2.06677e-15 0)
(1 -1.61959e-15 0)
(1 -5.99502e-16 0)
(1 -9.47132e-16 0)
(1 1.58538e-14 0)
(1 1.13027e-14 0)
(1 7.81076e-15 0)
(1 -7.98657e-15 0)
(1 -6.49533e-15 0)
(1 -4.94369e-15 0)
(1 2.1686e-15 0)
(1 5.82313e-15 0)
(1 4.10911e-15 0)
(1 7.07443e-15 0)
(1 -7.88101e-16 0)
(1 2.62815e-15 0)
(1 -1.6887e-15 0)
(1 5.02839e-15 0)
(1 3.8579e-16 0)
(1 3.46653e-15 0)
(1 4.01176e-16 0)
(1 1.93794e-15 0)
(1 5.14145e-15 0)
(1 9.95542e-15 0)
(1 4.55105e-15 0)
(1 2.22079e-15 0)
(1 -9.78307e-16 0)
(1 -1.28166e-15 0)
(1 2.01467e-15 0)
(1 1.96983e-15 0)
(1 4.29838e-15 0)
(1 1.48722e-15 0)
(1 8.22629e-15 0)
(1 8.78155e-15 0)
(1 -6.74173e-16 0)
(1 -4.34617e-15 0)
(1 -8.54549e-16 0)
(1 2.44528e-15 0)
(1 2.96114e-15 0)
(1 9.20047e-15 0)
(1 2.60731e-15 0)
(1 1.12188e-15 0)
(1 -2.78011e-15 0)
(1 3.69492e-15 0)
(1 4.5982e-15 0)
(1 1.7685e-15 0)
(1 1.72691e-15 0)
(1 -7.50014e-16 0)
(1 2.52734e-15 0)
(1 2.37974e-15 0)
(1 5.33585e-15 0)
(1 3.6872e-15 0)
(1 7.6551e-15 0)
(1 2.82833e-15 0)
(1 6.29252e-15 0)
(1 2.73731e-15 0)
(1 9.50007e-15 0)
(1 5.05255e-15 0)
(1 6.08755e-15 0)
(1 8.97876e-15 0)
(1 1.08969e-14 0)
(1 6.29888e-15 0)
(1 6.51324e-15 0)
(1 3.55446e-16 0)
(1 -1.65928e-15 0)
(1 -4.58103e-15 0)
(1 -3.22332e-15 0)
(1 2.04292e-15 0)
(1 5.67151e-15 0)
(1 1.28925e-15 0)
(1 7.13131e-15 0)
(1 -4.15856e-15 0)
(1 -1.82613e-15 0)
(1 -3.67484e-15 0)
(1 -3.37999e-15 0)
(1 2.40349e-15 0)
(1 1.44066e-14 0)
(1 3.12334e-15 0)
(1 8.89534e-15 0)
(1 2.86398e-15 0)
(1 5.13219e-15 0)
(1 7.32723e-15 0)
(1 3.81949e-16 0)
(1 1.2059e-15 0)
(1 -8.20468e-15 0)
(1 -1.28388e-14 0)
(1 -1.13712e-14 0)
(1 -9.9721e-15 0)
(1 -8.82889e-15 0)
(1 7.07027e-15 0)
(1 7.94954e-15 0)
(1 1.28036e-14 0)
(1 4.27029e-15 0)
(1 9.749e-15 0)
(1 -1.63751e-15 0)
(1 -5.44594e-15 0)
(1 -3.31817e-15 0)
(1 3.4797e-15 0)
(1 -6.18152e-15 0)
(1 -1.3985e-15 0)
(1 2.53008e-15 0)
(1 4.92581e-15 0)
(1 -2.37063e-15 0)
(1 5.52716e-15 0)
(1 -6.1356e-15 0)
(1 -2.75187e-15 0)
(1 -3.8206e-15 0)
(1 -3.25504e-16 0)
(1 3.87323e-15 0)
(1 3.87859e-15 0)
(1 5.46336e-15 0)
(1 7.33677e-15 0)
(1 2.71011e-15 0)
(1 8.32909e-15 0)
(1 2.92737e-15 0)
(1 7.15797e-15 0)
(1 3.30626e-15 0)
(1 5.42284e-15 0)
(1 4.59854e-15 0)
(1 6.14417e-15 0)
(1 -1.32126e-16 0)
(1 -2.81316e-15 0)
(1 -1.0219e-15 0)
(1 1.72136e-15 0)
(1 1.06251e-14 0)
(1 1.14402e-14 0)
(1 8.40609e-15 0)
(1 1.62825e-15 0)
(1 3.09802e-15 0)
(1 7.82268e-15 0)
(1 3.30742e-15 0)
(1 4.18347e-16 0)
(1 3.95698e-15 0)
(1 3.04029e-15 0)
(1 5.3384e-15 0)
(1 6.47149e-15 0)
(1 1.52461e-15 0)
(1 3.16908e-15 0)
(1 5.65064e-15 0)
(1 5.39108e-15 0)
(1 -1.51046e-15 0)
(1 8.21794e-17 0)
(1 -4.53963e-15 0)
(1 -2.8367e-15 0)
(1 -7.46422e-16 0)
(1 4.21273e-16 0)
(1 1.95714e-15 0)
(1 3.53373e-15 0)
(1 2.40028e-15 0)
(1 5.06823e-15 0)
(1 2.36409e-16 0)
(1 5.33899e-16 0)
(1 5.18427e-15 0)
(1 4.38204e-15 0)
(1 5.29017e-15 0)
(1 1.33188e-15 0)
(1 3.36845e-15 0)
(1 7.90516e-15 0)
(1 1.02324e-14 0)
(1 1.03492e-14 0)
(1 1.52668e-14 0)
(1 6.66121e-15 0)
(1 1.08366e-14 0)
(1 -1.80167e-15 0)
(1 -4.78842e-15 0)
(1 -5.4175e-15 0)
(1 -9.63177e-15 0)
(1 9.91036e-16 0)
(1 9.06529e-15 0)
(1 6.18701e-15 0)
(1 4.58362e-15 0)
(1 -4.32035e-15 0)
(1 -2.46724e-15 0)
(1 -4.32257e-15 0)
(1 -5.39712e-16 0)
(1 5.44817e-15 0)
(1 1.54107e-14 0)
(1 7.2607e-15 0)
(1 7.97361e-15 0)
(1 -2.35074e-15 0)
(1 5.86529e-15 0)
(1 9.45418e-16 0)
(1 -3.85703e-15 0)
(1 -8.9848e-15 0)
(1 -4.5696e-15 0)
(1 6.82718e-15 0)
(1 1.84786e-15 0)
(1 -8.59862e-15 0)
(1 -1.53823e-15 0)
(1 4.05376e-15 0)
(1 5.82724e-15 0)
(1 1.65588e-16 0)
(1 2.72259e-15 0)
(1 -4.17889e-15 0)
(1 -4.25514e-15 0)
(1 -1.3017e-14 0)
(1 -3.94377e-15 0)
(1 3.67205e-15 0)
(1 5.30316e-15 0)
(1 3.83866e-15 0)
(1 3.22693e-15 0)
(1 -2.8677e-15 0)
(1 -2.23638e-15 0)
(1 2.78278e-15 0)
(1 -4.12794e-15 0)
(1 -1.21611e-16 0)
(1 1.63269e-15 0)
(1 1.36496e-14 0)
(1 9.51691e-15 0)
(1 8.8212e-15 0)
(1 -2.86506e-15 0)
(1 5.73123e-15 0)
(1 1.54332e-15 0)
(1 4.82524e-15 0)
(1 8.24602e-15 0)
(1 7.39195e-15 0)
(1 1.11933e-14 0)
(1 4.64887e-15 0)
(1 9.49174e-15 0)
(1 8.29845e-16 0)
(1 -4.66346e-15 0)
(1 5.97282e-15 0)
(1 6.26463e-17 0)
(1 4.70706e-15 0)
(1 -3.71424e-15 0)
(1 1.01802e-15 0)
(1 -1.83441e-15 0)
(1 1.05662e-15 0)
(1 1.69555e-15 0)
(1 9.27989e-15 0)
(1 2.16307e-14 0)
(1 1.08442e-14 0)
(1 1.55164e-14 0)
(1 1.19225e-14 0)
(1 1.23845e-14 0)
(1 1.00304e-14 0)
(1 1.12145e-15 0)
(1 5.93122e-16 0)
(1 1.27999e-15 0)
(1 2.91999e-15 0)
(1 5.6511e-15 0)
(1 8.7657e-15 0)
(1 -7.75137e-16 0)
(1 -1.18902e-15 0)
(1 -7.51737e-16 0)
(1 3.5116e-15 0)
(1 6.72375e-16 0)
(1 -2.94757e-15 0)
(1 -1.41932e-15 0)
(1 8.46125e-16 0)
(1 -3.96418e-15 0)
(1 1.80346e-15 0)
(1 2.26914e-15 0)
(1 2.60609e-15 0)
(1 4.38122e-15 0)
(1 5.22104e-15 0)
(1 7.11613e-15 0)
(1 1.1377e-14 0)
(1 1.74401e-14 0)
(1 1.95568e-14 0)
(1 2.09002e-14 0)
(1 2.17992e-14 0)
(1 2.09489e-14 0)
(1 -2.04459e-16 0)
(1 6.41837e-16 0)
(1 4.07028e-15 0)
(1 1.64958e-15 0)
(1 -2.28187e-16 0)
(1 -2.88484e-15 0)
(1 3.9184e-15 0)
(1 -2.90767e-15 0)
(1 4.57222e-15 0)
(1 2.231e-15 0)
(1 4.9508e-15 0)
(1 -1.43331e-15 0)
(1 1.14926e-15 0)
(1 -3.54087e-15 0)
(1 2.60087e-15 0)
(1 -1.29498e-15 0)
(1 -3.36069e-15 0)
(1 3.24582e-15 0)
(1 -1.02767e-15 0)
(1 4.3552e-15 0)
(1 -7.41813e-15 0)
(1 -5.09796e-15 0)
(1 2.21277e-15 0)
(1 7.50394e-15 0)
(1 1.26711e-17 0)
(1 6.04773e-15 0)
(1 3.92555e-15 0)
(1 4.67463e-15 0)
(1 -5.66051e-15 0)
(1 3.69742e-15 0)
(1 -3.1795e-15 0)
(1 7.90099e-15 0)
(1 -2.76043e-15 0)
(1 1.67547e-15 0)
(1 -8.91712e-15 0)
(1 -3.34952e-15 0)
(1 -3.78316e-15 0)
(1 -2.72143e-15 0)
(1 -5.64568e-15 0)
(1 6.00144e-15 0)
(1 2.11109e-15 0)
(1 4.12639e-15 0)
(1 4.54539e-16 0)
(1 4.54909e-15 0)
(1 -2.83535e-15 0)
(1 -4.02818e-15 0)
(1 3.70962e-15 0)
(1 -4.32331e-16 0)
(1 3.69549e-15 0)
(1 7.36472e-15 0)
(1 9.12064e-15 0)
(1 6.59859e-15 0)
(1 7.02966e-15 0)
(1 4.7313e-15 0)
(1 3.64974e-15 0)
(1 5.17605e-15 0)
(1 2.36774e-15 0)
(1 1.4319e-16 0)
(1 1.05981e-14 0)
(1 1.12526e-14 0)
(1 7.42282e-15 0)
(1 6.61618e-17 0)
(1 6.3391e-15 0)
(1 2.10758e-15 0)
(1 2.03377e-15 0)
(1 4.57807e-15 0)
(1 6.68399e-15 0)
(1 1.5046e-14 0)
(1 2.25436e-14 0)
(1 1.65199e-14 0)
(1 3.74698e-15 0)
(1 7.41432e-15 0)
(1 2.15455e-15 0)
(1 -2.9102e-16 0)
(1 9.52583e-17 0)
(1 5.86224e-15 0)
(1 1.06715e-14 0)
(1 9.15683e-15 0)
(1 5.39736e-15 0)
(1 9.5556e-16 0)
(1 2.98218e-15 0)
(1 -2.73998e-16 0)
(1 -3.08359e-15 0)
(1 -2.51686e-15 0)
(1 -7.90579e-16 0)
(1 3.24396e-15 0)
(1 4.41921e-15 0)
(1 5.84729e-15 0)
(1 3.59287e-15 0)
(1 2.7843e-15 0)
(1 4.28823e-15 0)
(1 5.22421e-15 0)
(1 8.70361e-15 0)
(1 1.15337e-14 0)
(1 1.63783e-14 0)
(1 1.1412e-14 0)
(1 1.74079e-14 0)
(1 1.25986e-14 0)
(1 2.64424e-14 0)
(1 2.47231e-14 0)
(1 -1.02276e-15 0)
(1 1.83128e-15 0)
(1 -3.36152e-15 0)
(1 -1.54606e-16 0)
(1 -5.19063e-15 0)
(1 -2.20038e-15 0)
(1 -2.74078e-15 0)
(1 -5.16452e-15 0)
(1 4.94188e-15 0)
(1 6.12405e-15 0)
(1 6.67422e-15 0)
(1 1.67884e-15 0)
(1 2.83046e-15 0)
(1 -9.28109e-15 0)
(1 -3.33142e-15 0)
(1 -3.66082e-16 0)
(1 9.66967e-15 0)
(1 -3.87949e-16 0)
(1 1.68459e-15 0)
(1 3.04614e-15 0)
(1 2.38085e-15 0)
(1 2.69695e-15 0)
(1 -5.71529e-15 0)
(1 -3.03018e-15 0)
(1 5.0003e-15 0)
(1 1.40378e-15 0)
(1 -2.33302e-15 0)
(1 -6.93332e-15 0)
(1 -3.29655e-15 0)
(1 -2.69006e-15 0)
(1 -5.44853e-15 0)
(1 5.41086e-15 0)
(1 6.59047e-15 0)
(1 7.44684e-15 0)
(1 -7.89848e-15 0)
(1 -3.52572e-15 0)
(1 1.66813e-16 0)
(1 -2.29341e-16 0)
(1 -8.2996e-16 0)
(1 -1.22546e-15 0)
(1 -3.0461e-15 0)
(1 -9.16669e-16 0)
(1 6.45599e-16 0)
(1 -1.77226e-15 0)
(1 -1.84486e-15 0)
(1 -5.24527e-15 0)
(1 5.12126e-15 0)
(1 5.28727e-15 0)
(1 5.35778e-15 0)
(1 1.31738e-14 0)
(1 1.72895e-14 0)
(1 1.23131e-14 0)
(1 1.24366e-14 0)
(1 1.70642e-15 0)
(1 1.08434e-15 0)
(1 -8.60502e-16 0)
(1 -4.17127e-16 0)
(1 1.42212e-15 0)
(1 -1.14234e-15 0)
(1 7.78075e-15 0)
(1 9.22692e-15 0)
(1 8.26277e-15 0)
(1 7.89234e-15 0)
(1 3.12486e-15 0)
(1 1.6209e-15 0)
(1 7.99987e-15 0)
(1 8.17685e-15 0)
(1 -1.46924e-15 0)
(1 1.05521e-14 0)
(1 1.06147e-14 0)
(1 9.00121e-15 0)
(1 8.78273e-15 0)
(1 7.04403e-15 0)
(1 8.30057e-16 0)
(1 4.78208e-15 0)
(1 9.89991e-15 0)
(1 8.8927e-15 0)
(1 9.18694e-15 0)
(1 1.01075e-14 0)
(1 8.53585e-15 0)
(1 1.36188e-15 0)
(1 6.91094e-16 0)
(1 2.40743e-16 0)
(1 -1.68843e-15 0)
(1 2.91437e-15 0)
(1 -1.84879e-15 0)
(1 8.68486e-16 0)
(1 2.66248e-15 0)
(1 4.03449e-15 0)
(1 1.02293e-15 0)
(1 6.12725e-15 0)
(1 1.28155e-15 0)
(1 1.1558e-14 0)
(1 2.78096e-15 0)
(1 1.39881e-14 0)
(1 6.57472e-15 0)
(1 1.05292e-14 0)
(1 9.75152e-15 0)
(1 1.99145e-14 0)
(1 2.21292e-14 0)
(1 1.61669e-15 0)
(1 -2.72402e-15 0)
(1 -1.2909e-15 0)
(1 2.29422e-15 0)
(1 -2.22513e-15 0)
(1 1.22262e-15 0)
(1 -8.48034e-15 0)
(1 5.85542e-15 0)
(1 -4.00068e-16 0)
(1 1.00227e-14 0)
(1 4.92019e-15 0)
(1 6.27704e-15 0)
(1 5.87501e-15 0)
(1 -1.94112e-15 0)
(1 -7.06462e-15 0)
(1 -4.36077e-15 0)
(1 2.99734e-15 0)
(1 -9.92917e-15 0)
(1 8.16901e-16 0)
(1 -1.22188e-14 0)
(1 7.49402e-16 0)
(1 4.00799e-15 0)
(1 1.32212e-14 0)
(1 9.0957e-15 0)
(1 8.34662e-15 0)
(1 9.33443e-16 0)
(1 -4.76123e-15 0)
(1 1.85836e-15 0)
(1 3.16689e-15 0)
(1 4.5792e-17 0)
(1 -2.80742e-15 0)
(1 -5.02937e-15 0)
(1 8.679e-16 0)
(1 -3.31261e-16 0)
(1 -1.69386e-15 0)
(1 -9.93151e-15 0)
(1 4.26566e-15 0)
(1 1.23935e-15 0)
(1 -3.01966e-15 0)
(1 -5.94477e-15 0)
(1 -2.72627e-15 0)
(1 6.15315e-15 0)
(1 3.596e-15 0)
(1 -3.80679e-15 0)
(1 -5.69637e-15 0)
(1 2.56914e-15 0)
(1 -6.22854e-16 0)
(1 7.08239e-15 0)
(1 1.00291e-14 0)
(1 1.31786e-14 0)
(1 1.4969e-14 0)
(1 9.94788e-15 0)
(1 1.70115e-15 0)
(1 1.33889e-15 0)
(1 4.76534e-15 0)
(1 -3.18979e-15 0)
(1 -4.59277e-15 0)
(1 -2.89173e-15 0)
(1 2.01164e-15 0)
(1 9.04322e-15 0)
(1 2.20762e-14 0)
(1 9.92242e-15 0)
(1 6.1822e-15 0)
(1 8.5113e-16 0)
(1 1.31492e-14 0)
(1 3.09843e-15 0)
(1 4.98429e-15 0)
(1 6.68404e-15 0)
(1 -1.28532e-15 0)
(1 5.82771e-15 0)
(1 1.36372e-14 0)
(1 1.23109e-14 0)
(1 6.99772e-15 0)
(1 -1.57711e-15 0)
(1 4.04955e-15 0)
(1 6.42919e-15 0)
(1 2.8958e-15 0)
(1 7.16675e-15 0)
(1 4.11583e-15 0)
(1 3.73115e-15 0)
(1 4.6589e-15 0)
(1 6.86964e-15 0)
(1 7.46052e-15 0)
(1 8.36139e-15 0)
(1 3.99219e-15 0)
(1 -6.3851e-15 0)
(1 3.59014e-16 0)
(1 1.50873e-15 0)
(1 9.3e-15 0)
(1 2.36054e-16 0)
(1 6.29536e-15 0)
(1 5.26491e-15 0)
(1 8.9982e-15 0)
(1 2.73538e-15 0)
(1 9.44781e-15 0)
(1 1.66947e-14 0)
(1 1.24491e-14 0)
(1 9.99185e-15 0)
(1 9.75367e-15 0)
(1 1.63111e-14 0)
(1 3.16595e-15 0)
(1 3.11104e-16 0)
(1 -5.14874e-15 0)
(1 -7.19012e-16 0)
(1 -9.70351e-16 0)
(1 -4.35945e-15 0)
(1 -5.20038e-15 0)
(1 9.08788e-16 0)
(1 -1.58291e-15 0)
(1 1.3042e-15 0)
(1 7.12866e-15 0)
(1 8.65337e-15 0)
(1 3.55111e-15 0)
(1 3.21185e-15 0)
(1 -6.67181e-15 0)
(1 -2.89847e-16 0)
(1 -3.45128e-15 0)
(1 8.16025e-15 0)
(1 7.42454e-15 0)
(1 5.56742e-15 0)
(1 5.44854e-15 0)
(1 -5.65883e-15 0)
(1 -4.78448e-15 0)
(1 -6.13076e-15 0)
(1 2.51567e-15 0)
(1 -2.45376e-15 0)
(1 -6.9641e-15 0)
(1 3.11307e-15 0)
(1 2.41373e-16 0)
(1 -3.84121e-15 0)
(1 -4.51119e-15 0)
(1 -1.18337e-14 0)
(1 -1.78667e-15 0)
(1 -4.15063e-15 0)
(1 4.9408e-15 0)
(1 6.62436e-15 0)
(1 6.96765e-15 0)
(1 -5.13284e-15 0)
(1 -2.42303e-15 0)
(1 1.07962e-15 0)
(1 -1.26801e-15 0)
(1 2.91882e-15 0)
(1 -4.50864e-15 0)
(1 -1.07448e-14 0)
(1 -4.8235e-15 0)
(1 8.87349e-15 0)
(1 2.56681e-15 0)
(1 1.65425e-14 0)
(1 1.60396e-14 0)
(1 1.44148e-14 0)
(1 4.26383e-15 0)
(1 7.23554e-15 0)
(1 -1.00147e-15 0)
(1 1.75842e-15 0)
(1 3.68128e-15 0)
(1 1.7069e-15 0)
(1 -4.62417e-15 0)
(1 -2.06936e-15 0)
(1 -3.51018e-15 0)
(1 5.33972e-16 0)
(1 -2.89491e-15 0)
(1 5.95603e-15 0)
(1 2.78356e-15 0)
(1 1.54753e-14 0)
(1 1.42193e-14 0)
(1 8.73174e-15 0)
(1 9.80183e-16 0)
(1 6.49853e-15 0)
(1 5.41182e-15 0)
(1 -1.35798e-15 0)
(1 4.55567e-15 0)
(1 -9.19815e-16 0)
(1 5.35575e-15 0)
(1 6.94481e-15 0)
(1 6.58036e-15 0)
(1 1.45098e-15 0)
(1 -8.77728e-16 0)
(1 4.55898e-15 0)
(1 -2.49638e-15 0)
(1 6.68144e-15 0)
(1 5.66698e-15 0)
(1 1.07434e-14 0)
(1 7.32894e-15 0)
(1 9.66231e-15 0)
(1 2.12051e-15 0)
(1 3.59002e-15 0)
(1 4.07645e-15 0)
(1 9.4039e-15 0)
(1 6.31491e-15 0)
(1 4.56606e-15 0)
(1 6.80768e-15 0)
(1 7.15758e-15 0)
(1 -2.0439e-15 0)
(1 2.18948e-15 0)
(1 2.98551e-15 0)
(1 1.10318e-14 0)
(1 9.32781e-15 0)
(1 7.403e-15 0)
(1 4.0316e-15 0)
(1 8.29143e-15 0)
(1 -5.39533e-16 0)
(1 4.32291e-15 0)
(1 -3.51952e-15 0)
(1 -6.76373e-15 0)
(1 -1.9189e-15 0)
(1 -3.54761e-15 0)
(1 -1.39556e-15 0)
(1 -1.05952e-15 0)
(1 5.9081e-15 0)
(1 6.72469e-15 0)
(1 7.37113e-15 0)
(1 1.49135e-15 0)
(1 -5.40141e-15 0)
(1 5.70875e-16 0)
(1 -5.04694e-15 0)
(1 3.62175e-15 0)
(1 -1.86712e-16 0)
(1 5.34001e-15 0)
(1 -9.24652e-15 0)
(1 7.09356e-15 0)
(1 -5.03051e-15 0)
(1 3.04192e-15 0)
(1 -9.14289e-15 0)
(1 -5.39893e-16 0)
(1 6.68341e-15 0)
(1 7.2894e-15 0)
(1 -7.53027e-16 0)
(1 2.37597e-16 0)
(1 -1.89205e-15 0)
(1 -2.55774e-17 0)
(1 -7.50182e-15 0)
(1 -8.5361e-15 0)
(1 -3.9633e-15 0)
(1 -6.19085e-15 0)
(1 7.76186e-15 0)
(1 1.39639e-14 0)
(1 6.70832e-15 0)
(1 -1.89351e-15 0)
(1 -4.90891e-15 0)
(1 -1.05589e-14 0)
(1 -6.82909e-15 0)
(1 -3.9059e-15 0)
(1 -1.72591e-15 0)
(1 -5.89116e-16 0)
(1 1.17559e-14 0)
(1 9.57697e-15 0)
(1 1.14836e-14 0)
(1 7.14093e-15 0)
(1 3.25798e-15 0)
(1 3.91653e-15 0)
(1 -7.04094e-15 0)
(1 5.18091e-15 0)
(1 2.46783e-15 0)
(1 7.78913e-15 0)
(1 2.10135e-15 0)
(1 6.70113e-15 0)
(1 6.56397e-15 0)
(1 1.40555e-14 0)
(1 1.38037e-16 0)
(1 4.60636e-15 0)
(1 -6.66604e-15 0)
(1 2.43722e-15 0)
(1 -3.22153e-15 0)
(1 9.55216e-15 0)
(1 -3.92709e-15 0)
(1 1.11678e-14 0)
(1 6.1015e-15 0)
(1 1.3022e-14 0)
(1 5.18511e-15 0)
(1 -1.21472e-15 0)
(1 7.63881e-16 0)
(1 -2.9972e-16 0)
(1 4.85116e-15 0)
(1 2.06719e-14 0)
(1 7.0455e-15 0)
(1 3.65711e-15 0)
(1 4.91055e-15 0)
(1 9.87527e-15 0)
(1 1.08998e-14 0)
(1 1.11659e-14 0)
(1 2.65194e-15 0)
(1 4.00173e-15 0)
(1 8.85717e-15 0)
(1 3.39797e-15 0)
(1 -1.60711e-16 0)
(1 1.09948e-14 0)
(1 5.32233e-15 0)
(1 1.07568e-14 0)
(1 5.0945e-15 0)
(1 9.49305e-15 0)
(1 1.16028e-14 0)
(1 6.66406e-15 0)
(1 1.67733e-15 0)
(1 2.34279e-15 0)
(1 -1.80704e-15 0)
(1 3.9113e-15 0)
(1 5.79102e-15 0)
(1 1.24218e-14 0)
(1 8.67685e-15 0)
(1 8.88575e-15 0)
(1 1.75514e-15 0)
(1 -4.31244e-16 0)
(1 2.18703e-15 0)
(1 -5.15252e-15 0)
(1 -7.27268e-16 0)
(1 -4.23165e-15 0)
(1 -4.70353e-16 0)
(1 -9.35902e-15 0)
(1 -6.22376e-16 0)
(1 6.23022e-15 0)
(1 2.56579e-15 0)
(1 1.38455e-15 0)
(1 4.91151e-15 0)
(1 -9.72002e-16 0)
(1 5.60853e-15 0)
(1 -3.75198e-15 0)
(1 2.09692e-15 0)
(1 -9.36672e-15 0)
(1 -8.66444e-15 0)
(1 3.23275e-15 0)
(1 -4.40026e-15 0)
(1 2.4977e-15 0)
(1 5.72097e-15 0)
(1 6.33337e-15 0)
(1 5.59988e-15 0)
(1 5.98995e-15 0)
(1 6.17199e-15 0)
(1 -3.62862e-15 0)
(1 -6.37437e-15 0)
(1 -4.62565e-15 0)
(1 -3.30704e-15 0)
(1 -5.13941e-16 0)
(1 2.56995e-15 0)
(1 1.38088e-16 0)
(1 3.25928e-15 0)
(1 5.8871e-15 0)
(1 -2.21839e-15 0)
(1 8.54945e-16 0)
(1 -4.01065e-15 0)
(1 -1.1667e-14 0)
(1 -5.00829e-15 0)
(1 -7.23959e-15 0)
(1 -2.4961e-15 0)
(1 1.11003e-14 0)
(1 6.70998e-15 0)
(1 6.33343e-15 0)
(1 1.00239e-14 0)
(1 -2.49363e-15 0)
(1 -5.62126e-15 0)
(1 -4.58383e-15 0)
(1 5.64343e-15 0)
(1 8.7179e-15 0)
(1 8.81511e-15 0)
(1 1.17094e-14 0)
(1 7.93575e-15 0)
(1 5.10042e-15 0)
(1 9.36073e-15 0)
(1 6.72744e-15 0)
(1 4.20296e-15 0)
(1 7.63957e-15 0)
(1 6.55761e-15 0)
(1 3.29913e-15 0)
(1 4.09716e-15 0)
(1 -2.07692e-16 0)
(1 4.71557e-15 0)
(1 8.49797e-16 0)
(1 7.97647e-15 0)
(1 1.41538e-14 0)
(1 1.58856e-14 0)
(1 8.80013e-15 0)
(1 6.39944e-15 0)
(1 3.5502e-15 0)
(1 1.67629e-15 0)
(1 1.25876e-14 0)
(1 8.27633e-15 0)
(1 9.79973e-15 0)
(1 7.00164e-15 0)
(1 4.29803e-15 0)
(1 6.91869e-15 0)
(1 7.26062e-15 0)
(1 9.40922e-15 0)
(1 5.29308e-15 0)
(1 3.03115e-15 0)
(1 4.92524e-15 0)
(1 2.66458e-15 0)
(1 1.19069e-15 0)
(1 1.56066e-15 0)
(1 2.86722e-15 0)
(1 1.30191e-15 0)
(1 8.21899e-15 0)
(1 5.26968e-15 0)
(1 5.61094e-15 0)
(1 8.29694e-15 0)
(1 2.36161e-15 0)
(1 8.31429e-15 0)
(1 5.84005e-16 0)
(1 6.68595e-15 0)
(1 1.03607e-14 0)
(1 1.19691e-14 0)
(1 1.19787e-14 0)
(1 -2.33331e-15 0)
(1 -4.10529e-15 0)
(1 -7.1373e-16 0)
(1 -1.58737e-15 0)
(1 6.56412e-15 0)
(1 4.49511e-15 0)
(1 1.46499e-14 0)
(1 4.01241e-15 0)
(1 -1.7774e-15 0)
(1 -1.0379e-14 0)
(1 -1.07473e-14 0)
(1 -3.51031e-15 0)
(1 2.92971e-15 0)
(1 -5.58725e-15 0)
(1 1.23776e-15 0)
(1 -5.05234e-15 0)
(1 -1.36179e-15 0)
(1 -8.88284e-16 0)
(1 -3.05721e-15 0)
(1 -7.9579e-15 0)
(1 6.34218e-15 0)
(1 1.07979e-15 0)
(1 7.93044e-15 0)
(1 3.19022e-16 0)
(1 -1.3398e-15 0)
(1 -2.21578e-15 0)
(1 -4.17644e-15 0)
(1 -9.58406e-15 0)
(1 -8.77733e-15 0)
(1 -8.33097e-15 0)
(1 8.30426e-16 0)
(1 4.03022e-15 0)
(1 8.20596e-15 0)
(1 4.8498e-15 0)
(1 -1.73312e-15 0)
(1 5.97931e-15 0)
(1 -5.79971e-15 0)
(1 7.68349e-16 0)
(1 -1.76535e-15 0)
(1 1.53135e-15 0)
(1 -6.17867e-15 0)
(1 -7.03183e-15 0)
(1 7.92852e-15 0)
(1 7.04399e-15 0)
(1 6.90093e-15 0)
(1 -2.0356e-15 0)
(1 7.14949e-16 0)
(1 -3.88117e-16 0)
(1 1.16253e-15 0)
(1 -7.18559e-16 0)
(1 1.06729e-14 0)
(1 8.65989e-15 0)
(1 1.0824e-14 0)
(1 4.35878e-15 0)
(1 2.90796e-15 0)
(1 -6.6864e-16 0)
(1 5.90889e-15 0)
(1 -7.26954e-16 0)
(1 3.26546e-15 0)
(1 -2.13111e-15 0)
(1 6.88601e-16 0)
(1 6.74382e-16 0)
(1 5.25392e-15 0)
(1 1.09111e-15 0)
(1 4.41433e-15 0)
(1 -4.62983e-15 0)
(1 -2.75366e-15 0)
(1 -4.06969e-15 0)
(1 9.26756e-15 0)
(1 6.08165e-15 0)
(1 6.88571e-15 0)
(1 5.22486e-15 0)
(1 8.28212e-15 0)
(1 1.11225e-14 0)
(1 1.37342e-14 0)
(1 9.66175e-15 0)
(1 2.97411e-15 0)
(1 1.45554e-15 0)
(1 1.68258e-15 0)
(1 1.10474e-14 0)
(1 7.85512e-15 0)
(1 1.01827e-14 0)
(1 3.07052e-15 0)
(1 1.3651e-14 0)
(1 1.04115e-14 0)
(1 7.57275e-15 0)
(1 1.35014e-15 0)
(1 -4.11585e-15 0)
(1 -3.78271e-15 0)
(1 4.78777e-15 0)
(1 -1.26684e-15 0)
(1 3.78413e-16 0)
(1 3.04108e-15 0)
(1 4.26101e-15 0)
(1 8.30307e-15 0)
(1 8.81229e-15 0)