/*--------------------------------*- C++ -*----------------------------------*\
| =========                 |                                                 |
| \\      /  F ield         | OpenFOAM: The Open Source CFD Toolbox           |
|  \\    /   O peration     | Version:  v2012                                 |
|   \\  /    A nd           | Website:  www.openfoam.com                      |
|    \\/     M anipulation  |                                                 |
\*---------------------------------------------------------------------------*/
FoamFile
{
    version     2.0;
    format      ascii;
    class       surfaceScalarField;
    location    "1";
    object      phi;
}
// * * * * * * * * * * * * * * * * * * * * * * * * * * * * * * * * * * * * * //

dimensions      [0 3 -1 0 0 0 0];
oriented        oriented;


internalField   nonuniform List<scalar> 
130560
(
3.3897e-06
-3.3897e-06
6.77917e-06
-3.38947e-06
1.01682e-05
-3.38901e-06
1.35565e-05
-3.38833e-06
1.69439e-05
-3.38742e-06
2.03302e-05
-3.38628e-06
2.37151e-05
-3.3849e-06
2.70984e-05
-3.38328e-06
3.04798e-05
-3.38143e-06
3.38592e-05
-3.37934e-06
3.72361e-05
-3.37699e-06
4.06105e-05
-3.3744e-06
4.39821e-05
-3.37155e-06
4.73505e-05
-3.36844e-06
5.07156e-05
-3.36506e-06
5.4077e-05
-3.36141e-06
5.74345e-05
-3.35749e-06
6.07878e-05
-3.35327e-06
6.41365e-05
-3.34877e-06
6.74805e-05
-3.34396e-06
7.08194e-05
-3.33885e-06
7.41528e-05
-3.33342e-06
7.74805e-05
-3.32767e-06
8.0802e-05
-3.32159e-06
8.41172e-05
-3.31517e-06
8.74256e-05
-3.30839e-06
9.07269e-05
-3.30126e-06
9.40206e-05
-3.29376e-06
9.73065e-05
-3.28588e-06
0.000100584
-3.27761e-06
0.000103853
-3.26894e-06
0.000107113
-3.25986e-06
0.000110363
-3.25036e-06
0.000113604
-3.24044e-06
0.000116834
-3.23007e-06
0.000120053
-3.21925e-06
0.000123261
-3.20797e-06
0.000126457
-3.19621e-06
0.000129641
-3.18398e-06
0.000132812
-3.17124e-06
0.00013597
-3.15801e-06
0.000139115
-3.14425e-06
0.000142245
-3.12997e-06
0.00014536
-3.11516e-06
0.00014846
-3.0998e-06
0.000151544
-3.08388e-06
0.000154611
-3.0674e-06
0.000157661
-3.05034e-06
0.000160694
-3.0327e-06
0.000163708
-3.01446e-06
0.000166704
-2.99562e-06
0.00016968
-2.97617e-06
0.000172636
-2.9561e-06
0.000175572
-2.93541e-06
0.000178486
-2.91408e-06
0.000181378
-2.89211e-06
0.000184247
-2.8695e-06
0.000187094
-2.84624e-06
0.000189916
-2.82232e-06
0.000192714
-2.79774e-06
0.000195486
-2.7725e-06
0.000198233
-2.74658e-06
0.000200953
-2.72e-06
0.000203646
-2.69274e-06
0.00020631
-2.66481e-06
0.000208947
-2.6362e-06
0.000211553
-2.60692e-06
0.00021413
-2.57696e-06
0.000216677
-2.54633e-06
0.000219192
-2.51502e-06
0.000221675
-2.48305e-06
0.000224125
-2.4504e-06
0.000226542
-2.4171e-06
0.000228925
-2.38314e-06
0.000231274
-2.34852e-06
0.000233587
-2.31326e-06
0.000235865
-2.27735e-06
0.000238105
-2.24082e-06
0.000240309
-2.20366e-06
0.000242475
-2.16588e-06
0.000244602
-2.1275e-06
0.000246691
-2.08852e-06
0.00024874
-2.04895e-06
0.000250749
-2.00881e-06
0.000252717
-1.96811e-06
0.000254644
-1.92686e-06
0.000256529
-1.88507e-06
0.000258372
-1.84275e-06
0.000260171
-1.79993e-06
0.000261928
-1.75661e-06
0.000263641
-1.7128e-06
0.000265309
-1.66854e-06
0.000266933
-1.62382e-06
0.000268512
-1.57866e-06
0.000270045
-1.53309e-06
0.000271532
-1.48712e-06
0.000272973
-1.44076e-06
0.000274367
-1.39404e-06
0.000275714
-1.34696e-06
0.000277013
-1.29956e-06
0.000278265
-1.25183e-06
0.000279469
-1.20381e-06
0.000280625
-1.1555e-06
0.000281731
-1.10693e-06
0.00028279
-1.05812e-06
0.000283799
-1.00907e-06
0.000284758
-9.59821e-07
0.000285669
-9.10373e-07
0.00028653
-8.60749e-07
0.000287341
-8.10966e-07
0.000288102
-7.6104e-07
0.000288813
-7.10989e-07
0.000289473
-6.60829e-07
0.000290084
-6.10577e-07
0.000290644
-5.60248e-07
0.000291154
-5.09858e-07
0.000291614
-4.59424e-07
0.000292022
-4.0896e-07
0.000292381
-3.58482e-07
0.000292689
-3.08005e-07
0.000292947
-2.57543e-07
0.000293154
-2.0711e-07
0.00029331
-1.56721e-07
0.000293417
-1.06389e-07
0.000293473
-5.6128e-08
0.000293479
-5.95064e-09
0.000293435
4.413e-08
0.000293341
9.41013e-08
0.000293197
1.43951e-07
0.000293003
1.93667e-07
0.00029276
2.43237e-07
0.000292467
2.92649e-07
0.000292125
3.41893e-07
0.000291734
3.90957e-07
0.000291294
4.39831e-07
0.000290806
4.88502e-07
0.000290269
5.36961e-07
0.000289684
5.85198e-07
0.000289051
6.33202e-07
0.00028837
6.80962e-07
0.000287641
7.2847e-07
0.000286865
7.75715e-07
0.000286043
8.22687e-07
0.000285173
8.69377e-07
0.000284258
9.15775e-07
0.000283296
9.61872e-07
0.000282288
1.00766e-06
0.000281235
1.05313e-06
0.000280137
1.09826e-06
0.000278994
1.14307e-06
0.000277806
1.18752e-06
0.000276574
1.23162e-06
0.000275299
1.27535e-06
0.00027398
1.31871e-06
0.000272619
1.36169e-06
0.000271214
1.40428e-06
0.000269768
1.44647e-06
0.00026828
1.48825e-06
0.00026675
1.52962e-06
0.00026518
1.57056e-06
0.000263568
1.61107e-06
0.000261917
1.65114e-06
0.000260227
1.69076e-06
0.000258497
1.72993e-06
0.000256728
1.76863e-06
0.000254921
1.80687e-06
0.000253076
1.84463e-06
0.000251195
1.8819e-06
0.000249276
1.91868e-06
0.000247321
1.95496e-06
0.00024533
1.99075e-06
0.000243304
2.02602e-06
0.000241243
2.06077e-06
0.000239148
2.09501e-06
0.00023702
2.12872e-06
0.000234858
2.16189e-06
0.000232663
2.19453e-06
0.000230437
2.22664e-06
0.000228178
2.25819e-06
0.000225889
2.2892e-06
0.00022357
2.31966e-06
0.00022122
2.34957e-06
0.000218841
2.37892e-06
0.000216433
2.40771e-06
0.000213997
2.43595e-06
0.000211534
2.46362e-06
0.000209043
2.49073e-06
0.000206526
2.51727e-06
0.000203983
2.54326e-06
0.000201414
2.56868e-06
0.00019882
2.59354e-06
0.000196202
2.61784e-06
0.000193561
2.64158e-06
0.000190896
2.66476e-06
0.000188209
2.68739e-06
0.000185499
2.70947e-06
0.000182768
2.73099e-06
0.000180016
2.75197e-06
0.000177244
2.77241e-06
0.000174452
2.79231e-06
0.00017164
2.81167e-06
0.000168809
2.8305e-06
0.000165961
2.84881e-06
0.000163094
2.8666e-06
0.00016021
2.88388e-06
0.000157309
2.90065e-06
0.000154393
2.91692e-06
0.00015146
2.93269e-06
0.000148512
2.94798e-06
0.000145549
2.96278e-06
0.000142572
2.97711e-06
0.000139581
2.99097e-06
0.000136577
3.00437e-06
0.000133559
3.01732e-06
0.00013053
3.02982e-06
0.000127488
3.04188e-06
0.000124434
3.05352e-06
0.000121369
3.06473e-06
0.000118294
3.07554e-06
0.000115208
3.08593e-06
0.000112112
3.09593e-06
0.000109006
3.10554e-06
0.000105892
3.11476e-06
0.000102768
3.12362e-06
9.9636e-05
3.1321e-06
9.64958e-05
3.14023e-06
9.33477e-05
3.14801e-06
9.01923e-05
3.15545e-06
8.70297e-05
3.16256e-06
8.38604e-05
3.16933e-06
8.06846e-05
3.17579e-06
7.75027e-05
3.18193e-06
7.43149e-05
3.18777e-06
7.11216e-05
3.19331e-06
6.7923e-05
3.19856e-06
6.47195e-05
3.20352e-06
6.15113e-05
3.2082e-06
5.82987e-05
3.21261e-06
5.5082e-05
3.21675e-06
5.18613e-05
3.22063e-06
4.86371e-05
3.22426e-06
4.54094e-05
3.22763e-06
4.21787e-05
3.23075e-06
3.89451e-05
3.23364e-06
3.57088e-05
3.23628e-06
3.24701e-05
3.23869e-06
2.92292e-05
3.24087e-06
2.59864e-05
3.24282e-06
2.27418e-05
3.24455e-06
1.94958e-05
3.24606e-06
1.62484e-05
3.24734e-06
1.3e-05
3.24841e-06
9.75077e-06
3.24926e-06
6.50086e-06
3.2499e-06
3.25054e-06
3.25033e-06
3.25054e-06
3.38992e-06
-6.77962e-06
6.77961e-06
-6.77916e-06
1.01689e-05
-6.77825e-06
1.35574e-05
-6.77689e-06
1.69451e-05
-6.77507e-06
2.03316e-05
-6.77278e-06
2.37167e-05
-6.77003e-06
2.71002e-05
-6.76681e-06
3.04819e-05
-6.7631e-06
3.38615e-05
-6.75892e-06
3.72387e-05
-6.75424e-06
4.06134e-05
-6.74905e-06
4.39852e-05
-6.74336e-06
4.73539e-05
-6.73714e-06
5.07192e-05
-6.7304e-06
5.40809e-05
-6.72311e-06
5.74387e-05
-6.71526e-06
6.07922e-05
-6.70684e-06
6.41413e-05
-6.69784e-06
6.74856e-05
-6.68823e-06
7.08247e-05
-6.67802e-06
7.41585e-05
-6.66717e-06
7.74865e-05
-6.65568e-06
8.08084e-05
-6.64352e-06
8.41239e-05
-6.63068e-06
8.74327e-05
-6.61715e-06
9.07343e-05
-6.60289e-06
9.40285e-05
-6.5879e-06
9.73147e-05
-6.57214e-06
0.000100593
-6.55561e-06
0.000103862
-6.53829e-06
0.000107122
-6.52014e-06
0.000110373
-6.50116e-06
0.000113614
-6.48131e-06
0.000116845
-6.46059e-06
0.000120064
-6.43896e-06
0.000123273
-6.41641e-06
0.000126469
-6.39291e-06
0.000129654
-6.36844e-06
0.000132826
-6.34299e-06
0.000135984
-6.31653e-06
0.000139129
-6.28903e-06
0.000142259
-6.26049e-06
0.000145375
-6.23087e-06
0.000148475
-6.20015e-06
0.00015156
-6.16833e-06
0.000154628
-6.13537e-06
0.000157679
-6.10126e-06
0.000160712
-6.06599e-06
0.000163727
-6.02952e-06
0.000166723
-5.99185e-06
0.0001697
-5.95296e-06
0.000172657
-5.91283e-06
0.000175593
-5.87145e-06
0.000178508
-5.8288e-06
0.0001814
-5.78487e-06
0.000184271
-5.73966e-06
0.000187117
-5.69313e-06
0.00018994
-5.6453e-06
0.000192739
-5.59614e-06
0.000195512
-5.54566e-06
0.000198259
-5.49384e-06
0.00020098
-5.44067e-06
0.000203673
-5.38616e-06
0.000206339
-5.33029e-06
0.000208976
-5.27308e-06
0.000211583
-5.21451e-06
0.000214161
-5.15459e-06
0.000216708
-5.09333e-06
0.000219224
-5.03071e-06
0.000221707
-4.96676e-06
0.000224158
-4.90147e-06
0.000226576
-4.83486e-06
0.00022896
-4.76693e-06
0.000231309
-4.69769e-06
0.000233623
-4.62715e-06
0.000235901
-4.55534e-06
0.000238142
-4.48226e-06
0.000240347
-4.40793e-06
0.000242513
-4.33237e-06
0.000244641
-4.25559e-06
0.00024673
-4.17763e-06
0.00024878
-4.09848e-06
0.000250789
-4.01819e-06
0.000252758
-3.93677e-06
0.000254685
-3.85425e-06
0.000256571
-3.77066e-06
0.000258414
-3.68601e-06
0.000260215
-3.60035e-06
0.000261972
-3.51369e-06
0.000263685
-3.42607e-06
0.000265354
-3.33752e-06
0.000266978
-3.24807e-06
0.000268557
-3.15775e-06
0.000270091
-3.06659e-06
0.000271578
-2.97463e-06
0.000273019
-2.8819e-06
0.000274414
-2.78843e-06
0.000275761
-2.69426e-06
0.000277061
-2.59943e-06
0.000278313
-2.50396e-06
0.000279517
-2.40789e-06
0.000280673
-2.31127e-06
0.00028178
-2.21411e-06
0.000282839
-2.11647e-06
0.000283848
-2.01836e-06
0.000284808
-1.91984e-06
0.000285718
-1.82092e-06
0.000286579
-1.72166e-06
0.00028739
-1.62208e-06
0.000288152
-1.52221e-06
0.000288863
-1.42209e-06
0.000289524
-1.32175e-06
0.000290134
-1.22123e-06
0.000290695
-1.12056e-06
0.000291205
-1.01976e-06
0.000291664
-9.18879e-07
0.000292073
-8.17937e-07
0.000292431
-7.16966e-07
0.000292739
-6.15997e-07
0.000292997
-5.15059e-07
0.000293204
-4.14179e-07
0.000293361
-3.13387e-07
0.000293467
-2.1271e-07
0.000293523
-1.12174e-07
0.000293529
-1.18066e-08
0.000293485
8.83674e-08
0.00029339
1.88322e-07
0.000293246
2.88034e-07
0.000293053
3.87477e-07
0.000292809
4.86629e-07
0.000292516
5.85466e-07
0.000292174
6.83965e-07
0.000291783
7.82104e-07
0.000291343
8.79861e-07
0.000290854
9.77215e-07
0.000290317
1.07414e-06
0.000289732
1.17063e-06
0.000289098
1.26664e-06
0.000288417
1.36218e-06
0.000287688
1.4572e-06
0.000286912
1.5517e-06
0.000286089
1.64565e-06
0.00028522
1.73904e-06
0.000284304
1.83185e-06
0.000283342
1.92405e-06
0.000282334
2.01564e-06
0.00028128
2.10658e-06
0.000280181
2.19686e-06
0.000279038
2.28648e-06
0.00027785
2.37539e-06
0.000276618
2.4636e-06
0.000275342
2.55107e-06
0.000274023
2.6378e-06
0.000272661
2.72377e-06
0.000271257
2.80895e-06
0.00026981
2.89334e-06
0.000268321
2.97691e-06
0.000266791
3.05965e-06
0.00026522
3.14155e-06
0.000263609
3.22257e-06
0.000261957
3.30272e-06
0.000260266
3.38198e-06
0.000258535
3.46032e-06
0.000256766
3.53774e-06
0.000254959
3.61421e-06
0.000253114
3.68973e-06
0.000251231
3.76429e-06
0.000249312
3.83786e-06
0.000247357
3.91043e-06
0.000245366
3.982e-06
0.000243339
4.05255e-06
0.000241278
4.12206e-06
0.000239182
4.19054e-06
0.000237053
4.25796e-06
0.000234891
4.32432e-06
0.000232695
4.38961e-06
0.000230468
4.45381e-06
0.00022821
4.51693e-06
0.00022592
4.57896e-06
0.0002236
4.63988e-06
0.000221249
4.6997e-06
0.00021887
4.7584e-06
0.000216462
4.81599e-06
0.000214025
4.87245e-06
0.000211561
4.9278e-06
0.00020907
4.98202e-06
0.000206552
5.03511e-06
0.000204008
5.08708e-06
0.000201439
5.13792e-06
0.000198845
5.18764e-06
0.000196226
5.23624e-06
0.000193584
5.28372e-06
0.000190919
5.33008e-06
0.000188231
5.37534e-06
0.000185521
5.41948e-06
0.000182789
5.46253e-06
0.000180037
5.50448e-06
0.000177264
5.54535e-06
0.000174471
5.58514e-06
0.000171659
5.62387e-06
0.000168828
5.66153e-06
0.000165978
5.69815e-06
0.000163111
5.73372e-06
0.000160227
5.76827e-06
0.000157326
5.8018e-06
0.000154408
5.83433e-06
0.000151475
5.86587e-06
0.000148527
5.89644e-06
0.000145564
5.92603e-06
0.000142586
5.95468e-06
0.000139595
5.9824e-06
0.00013659
6.00919e-06
0.000133572
6.03508e-06
0.000130542
6.06008e-06
0.000127499
6.0842e-06
0.000124445
6.10746e-06
0.00012138
6.12988e-06
0.000118304
6.15148e-06
0.000115218
6.17226e-06
0.000112122
6.19225e-06
0.000109016
6.21146e-06
0.000105901
6.2299e-06
0.000102777
6.2476e-06
9.96442e-05
6.26457e-06
9.65036e-05
6.28082e-06
9.33552e-05
6.29637e-06
9.01994e-05
6.31124e-06
8.70365e-05
6.32544e-06
8.38669e-05
6.33898e-06
8.06908e-05
6.35189e-06
7.75086e-05
6.36417e-06
7.43205e-05
6.37584e-06
7.11269e-05
6.38691e-06
6.7928e-05
6.3974e-06
6.47242e-05
6.40732e-06
6.15158e-05
6.41668e-06
5.83029e-05
6.42549e-06
5.50859e-05
6.43377e-06
5.1865e-05
6.44152e-06
4.86405e-05
6.44877e-06
4.54126e-05
6.45551e-06
4.21816e-05
6.46175e-06
3.89477e-05
6.46751e-06
3.57112e-05
6.4728e-06
3.24723e-05
6.47761e-06
2.92312e-05
6.48197e-06
2.59881e-05
6.48587e-06
2.27434e-05
6.48932e-06
1.94971e-05
6.49233e-06
1.62495e-05
6.4949e-06
1.30009e-05
6.49704e-06
9.75141e-06
6.49874e-06
6.50129e-06
6.50002e-06
3.25075e-06
6.50087e-06
6.50129e-06
3.39038e-06
-1.017e-05
6.78052e-06
-1.01693e-05
1.01702e-05
-1.0168e-05
1.35592e-05
-1.01659e-05
1.69474e-05
-1.01632e-05
2.03343e-05
-1.01598e-05
2.37199e-05
-1.01556e-05
2.71039e-05
-1.01508e-05
3.04861e-05
-1.01453e-05
3.38662e-05
-1.0139e-05
3.72439e-05
-1.0132e-05
4.06191e-05
-1.01242e-05
4.39914e-05
-1.01157e-05
4.73606e-05
-1.01064e-05
5.07265e-05
-1.00963e-05
5.40888e-05
-1.00854e-05
5.74471e-05
-1.00736e-05
6.08013e-05
-1.0061e-05
6.41509e-05
-1.00475e-05
6.74958e-05
-1.00331e-05
7.08356e-05
-1.00178e-05
7.417e-05
-1.00016e-05
7.74987e-05
-9.98435e-06
8.08213e-05
-9.96614e-06
8.41375e-05
-9.9469e-06
8.7447e-05
-9.92662e-06
9.07493e-05
-9.90526e-06
9.40442e-05
-9.88279e-06
9.73313e-05
-9.85919e-06
0.00010061
-9.83442e-06
0.00010388
-9.80845e-06
0.000107141
-9.78126e-06
0.000110393
-9.75281e-06
0.000113635
-9.72307e-06
0.000116866
-9.69201e-06
0.000120087
-9.6596e-06
0.000123296
-9.62579e-06
0.000126494
-9.59057e-06
0.000129679
-9.5539e-06
0.000132852
-9.51575e-06
0.000136012
-9.47608e-06
0.000139157
-9.43486e-06
0.000142289
-9.39207e-06
0.000145406
-9.34766e-06
0.000148507
-9.30162e-06
0.000151593
-9.25391e-06
0.000154662
-9.2045e-06
0.000157714
-9.15336e-06
0.000160749
-9.10046e-06
0.000163765
-9.04578e-06
0.000166762
-8.9893e-06
0.00016974
-8.93098e-06
0.000172698
-8.87081e-06
0.000175636
-8.80875e-06
0.000178552
-8.7448e-06
0.000181446
-8.67893e-06
0.000184317
-8.61111e-06
0.000187165
-8.54134e-06
0.00018999
-8.4696e-06
0.000192789
-8.39588e-06
0.000195564
-8.32016e-06
0.000198312
-8.24243e-06
0.000201035
-8.16269e-06
0.000203729
-8.08092e-06
0.000206396
-7.99713e-06
0.000209034
-7.91131e-06
0.000211643
-7.82346e-06
0.000214222
-7.73358e-06
0.000216771
-7.64167e-06
0.000219288
-7.54774e-06
0.000221773
-7.45181e-06
0.000224225
-7.35386e-06
0.000226644
-7.25393e-06
0.000229029
-7.15202e-06
0.00023138
-7.04815e-06
0.000233695
-6.94233e-06
0.000235974
-6.8346e-06
0.000238217
-6.72496e-06
0.000240422
-6.61344e-06
0.00024259
-6.50007e-06
0.000244719
-6.38488e-06
0.00024681
-6.2679e-06
0.00024886
-6.14916e-06
0.000250871
-6.02869e-06
0.000252841
-5.90654e-06
0.000254769
-5.78272e-06
0.000256656
-5.6573e-06
0.0002585
-5.5303e-06
0.000260301
-5.40176e-06
0.000262059
-5.27174e-06
0.000263774
-5.14027e-06
0.000265444
-5.00741e-06
0.000267069
-4.87319e-06
0.000268649
-4.73767e-06
0.000270183
-4.60089e-06
0.000271671
-4.46291e-06
0.000273113
-4.32377e-06
0.000274508
-4.18353e-06
0.000275856
-4.04223e-06
0.000277157
-3.89993e-06
0.000278409
-3.75669e-06
0.000279614
-3.61254e-06
0.00028077
-3.46756e-06
0.000281878
-3.32178e-06
0.000282937
-3.17527e-06
0.000283946
-3.02807e-06
0.000284907
-2.88024e-06
0.000285818
-2.73183e-06
0.000286679
-2.58289e-06
0.00028749
-2.43347e-06
0.000288252
-2.28363e-06
0.000288963
-2.13341e-06
0.000289624
-1.98286e-06
0.000290235
-1.83204e-06
0.000290795
-1.68099e-06
0.000291305
-1.52976e-06
0.000291765
-1.37839e-06
0.000292174
-1.22694e-06
0.000292532
-1.07545e-06
0.00029284
-9.23958e-07
0.000293098
-7.72514e-07
0.000293305
-6.2116e-07
0.000293461
-4.69938e-07
0.000293568
-3.18888e-07
0.000293623
-1.68052e-07
0.000293629
-1.74681e-08
0.000293585
1.32824e-07
0.00029349
2.82788e-07
0.000293346
4.32385e-07
0.000293152
5.8158e-07
0.000292908
7.30336e-07
0.000292615
8.7862e-07
0.000292272
1.0264e-06
0.000291881
1.17363e-06
0.00029144
1.3203e-06
0.000290951
1.46635e-06
0.000290414
1.61177e-06
0.000289828
1.75652e-06
0.000289194
1.90057e-06
0.000288512
2.0439e-06
0.000287783
2.18646e-06
0.000287006
2.32823e-06
0.000286183
2.46919e-06
0.000285313
2.60929e-06
0.000284396
2.74853e-06
0.000283433
2.88685e-06
0.000282424
3.02425e-06
0.00028137
3.16069e-06
0.000280271
3.29614e-06
0.000279127
3.43058e-06
0.000277938
3.56398e-06
0.000276706
3.69631e-06
0.000275429
3.82754e-06
0.000274109
3.95766e-06
0.000272746
4.08663e-06
0.000271341
4.21443e-06
0.000269893
4.34103e-06
0.000268404
4.46641e-06
0.000266873
4.59054e-06
0.000265301
4.7134e-06
0.000263689
4.83496e-06
0.000262036
4.9552e-06
0.000260344
5.0741e-06
0.000258613
5.19164e-06
0.000256843
5.30778e-06
0.000255034
5.42251e-06
0.000253188
5.53581e-06
0.000251305
5.64766e-06
0.000249385
5.75803e-06
0.000247428
5.86691e-06
0.000245436
5.97427e-06
0.000243409
6.08011e-06
0.000241346
6.1844e-06
0.00023925
6.28712e-06
0.000237119
6.38827e-06
0.000234956
6.48782e-06
0.00023276
6.58576e-06
0.000230531
6.68208e-06
0.000228272
6.77677e-06
0.000225981
6.86981e-06
0.000223659
6.96121e-06
0.000221308
7.05093e-06
0.000218928
7.13899e-06
0.000216518
7.22538e-06
0.00021408
7.31008e-06
0.000211615
7.3931e-06
0.000209123
7.47443e-06
0.000206604
7.55407e-06
0.000204059
7.63203e-06
0.000201488
7.70829e-06
0.000198893
7.78287e-06
0.000196274
7.85576e-06
0.00019363
7.92697e-06
0.000190964
7.99651e-06
0.000188275
8.06438e-06
0.000185564
8.1306e-06
0.000182831
8.19516e-06
0.000180078
8.25808e-06
0.000177304
8.31938e-06
0.00017451
8.37905e-06
0.000171696
8.43713e-06
0.000168864
8.49361e-06
0.000166014
8.54852e-06
0.000163146
8.60187e-06
0.00016026
8.65368e-06
0.000157358
8.70396e-06
0.00015444
8.75274e-06
0.000151506
8.80003e-06
0.000148556
8.84586e-06
0.000145592
8.89024e-06
0.000142614
8.93319e-06
0.000139621
8.97475e-06
0.000136616
9.01492e-06
0.000133597
9.05373e-06
0.000130566
9.09121e-06
0.000127523
9.12737e-06
0.000124468
9.16225e-06
0.000121402
9.19586e-06
0.000118325
9.22823e-06
0.000115238
9.25939e-06
0.000112141
9.28935e-06
0.000109034
9.31814e-06
0.000105918
9.34579e-06
0.000102794
9.37232e-06
9.96604e-05
9.39775e-06
9.65191e-05
9.4221e-06
9.33701e-05
9.44541e-06
9.02136e-05
9.4677e-06
8.70501e-05
9.48898e-06
8.38798e-05
9.50927e-06
8.07031e-05
9.52862e-06
7.75202e-05
9.54702e-06
7.43315e-05
9.56451e-06
7.11374e-05
9.5811e-06
6.79379e-05
9.59681e-06
6.47336e-05
9.61168e-06
6.15246e-05
9.6257e-06
5.83112e-05
9.63891e-06
5.50936e-05
9.65131e-06
5.18722e-05
9.66293e-06
4.86472e-05
9.67378e-06
4.54188e-05
9.68388e-06
4.21873e-05
9.69323e-06
3.8953e-05
9.70186e-06
3.5716e-05
9.70978e-06
3.24766e-05
9.717e-06
2.92351e-05
9.72352e-06
2.59916e-05
9.72937e-06
2.27464e-05
9.73454e-06
1.94996e-05
9.73905e-06
1.62516e-05
9.7429e-06
1.30026e-05
9.7461e-06
9.75268e-06
9.74865e-06
6.50214e-06
9.75056e-06
3.25118e-06
9.75183e-06
9.75246e-06
3.39106e-06
-1.3561e-05
6.78189e-06
-1.35601e-05
1.01723e-05
-1.35583e-05
1.3562e-05
-1.35556e-05
1.69508e-05
-1.3552e-05
2.03385e-05
-1.35474e-05
2.37248e-05
-1.35419e-05
2.71095e-05
-1.35355e-05
3.04924e-05
-1.35281e-05
3.38732e-05
-1.35198e-05
3.72517e-05
-1.35105e-05
4.06276e-05
-1.35002e-05
4.40007e-05
-1.34888e-05
4.73708e-05
-1.34764e-05
5.07375e-05
-1.3463e-05
5.41005e-05
-1.34484e-05
5.74597e-05
-1.34328e-05
6.08148e-05
-1.3416e-05
6.41653e-05
-1.33981e-05
6.75111e-05
-1.33789e-05
7.08519e-05
-1.33586e-05
7.41872e-05
-1.33369e-05
7.75169e-05
-1.3314e-05
8.08405e-05
-1.32898e-05
8.41578e-05
-1.32642e-05
8.74684e-05
-1.32372e-05
9.07718e-05
-1.32087e-05
9.40679e-05
-1.31788e-05
9.73561e-05
-1.31474e-05
0.000100636
-1.31144e-05
0.000103907
-1.30798e-05
0.00010717
-1.30436e-05
0.000110423
-1.30058e-05
0.000113666
-1.29662e-05
0.000116899
-1.29248e-05
0.000120121
-1.28816e-05
0.000123331
-1.28366e-05
0.000126531
-1.27897e-05
0.000129718
-1.27408e-05
0.000132892
-1.269e-05
0.000136053
-1.26372e-05
0.0001392
-1.25823e-05
0.000142334
-1.25253e-05
0.000145452
-1.24661e-05
0.000148555
-1.24048e-05
0.000151642
-1.23412e-05
0.000154713
-1.22753e-05
0.000157767
-1.22072e-05
0.000160803
-1.21367e-05
0.000163821
-1.20639e-05
0.000166821
-1.19886e-05
0.000169801
-1.19109e-05
0.00017276
-1.18307e-05
0.0001757
-1.1748e-05
0.000178618
-1.16627e-05
0.000181514
-1.15749e-05
0.000184387
-1.14845e-05
0.000187237
-1.13915e-05
0.000190063
-1.12959e-05
0.000192865
-1.11976e-05
0.000195642
-1.10967e-05
0.000198392
-1.0993e-05
0.000201116
-1.08867e-05
0.000203813
-1.07777e-05
0.000206482
-1.0666e-05
0.000209122
-1.05516e-05
0.000211733
-1.04344e-05
0.000214314
-1.03146e-05
0.000216865
-1.0192e-05
0.000219384
-1.00668e-05
0.000221871
-9.93886e-06
0.000224325
-9.80825e-06
0.000226746
-9.67498e-06
0.000229133
-9.53908e-06
0.000231486
-9.40055e-06
0.000233803
-9.25944e-06
0.000236084
-9.11575e-06
0.000238328
-8.96953e-06
0.000240536
-8.8208e-06
0.000242705
-8.6696e-06
0.000244836
-8.51597e-06
0.000246928
-8.35994e-06
0.000248981
-8.20157e-06
0.000250993
-8.04089e-06
0.000252964
-7.87795e-06
0.000254894
-7.71281e-06
0.000256783
-7.54551e-06
0.000258629
-7.37611e-06
0.000260431
-7.20467e-06
0.000262191
-7.03123e-06
0.000263907
-6.85587e-06
0.000265578
-6.67865e-06
0.000267204
-6.49961e-06
0.000268785
-6.31884e-06
0.000270321
-6.1364e-06
0.00027181
-5.95234e-06
0.000273253
-5.76674e-06
0.000274649
-5.57967e-06
0.000275998
-5.3912e-06
0.0002773
-5.20138e-06
0.000278553
-5.01031e-06
0.000279759
-4.81804e-06
0.000280916
-4.62464e-06
0.000282024
-4.43019e-06
0.000283084
-4.23476e-06
0.000284094
-4.03841e-06
0.000285055
-3.84122e-06
0.000285967
-3.64326e-06
0.000286828
-3.44459e-06
0.00028764
-3.24529e-06
0.000288402
-3.04542e-06
0.000289114
-2.84505e-06
0.000289775
-2.64424e-06
0.000290386
-2.44307e-06
0.000290947
-2.2416e-06
0.000291457
-2.03988e-06
0.000291916
-1.83799e-06
0.000292325
-1.63599e-06
0.000292684
-1.43393e-06
0.000292992
-1.23187e-06
0.000293249
-1.02988e-06
0.000293456
-8.28009e-07
0.000293612
-6.26315e-07
0.000293718
-4.24853e-07
0.000293774
-2.23676e-07
0.000293779
-2.28373e-08
0.000293735
1.77612e-07
0.00029364
3.7762e-07
0.000293495
5.7714e-07
0.0002933
7.76121e-07
0.000293056
9.74518e-07
0.000292763
1.17228e-06
0.00029242
1.36937e-06
0.000292028
1.56574e-06
0.000291587
1.76134e-06
0.000291097
1.95613e-06
0.000290558
2.15007e-06
0.000289972
2.34312e-06
0.000289337
2.53523e-06
0.000288655
2.72638e-06
0.000287925
2.9165e-06
0.000287147
3.10558e-06
0.000286323
3.29357e-06
0.000285452
3.48042e-06
0.000284534
3.66611e-06
0.00028357
3.85059e-06
0.000282561
4.03383e-06
0.000281506
4.21579e-06
0.000280406
4.39643e-06
0.00027926
4.57573e-06
0.000278071
4.75363e-06
0.000276837
4.93011e-06
0.000275559
5.10513e-06
0.000274238
5.27866e-06
0.000272874
5.45066e-06
0.000271468
5.6211e-06
0.000270019
5.78994e-06
0.000268528
5.95715e-06
0.000266996
6.1227e-06
0.000265423
6.28655e-06
0.000263809
6.44867e-06
0.000262155
6.60903e-06
0.000260462
6.7676e-06
0.000258729
6.92434e-06
0.000256957
7.07923e-06
0.000255148
7.23224e-06
0.0002533
7.38334e-06
0.000251415
7.5325e-06
0.000249494
7.67969e-06
0.000247536
7.8249e-06
0.000245542
7.96808e-06
0.000243513
8.10922e-06
0.000241449
8.2483e-06
0.000239351
8.38529e-06
0.000237219
8.52017e-06
0.000235054
8.65293e-06
0.000232856
8.78354e-06
0.000230626
8.91198e-06
0.000228365
9.03825e-06
0.000226072
9.16232e-06
0.000223749
9.28419e-06
0.000221396
9.40384e-06
0.000219014
9.52127e-06
0.000216603
9.63645e-06
0.000214163
9.7494e-06
0.000211696
9.86009e-06
0.000209202
9.96854e-06
0.000206682
1.00747e-05
0.000204135
1.01787e-05
0.000201563
1.02803e-05
0.000198966
1.03798e-05
0.000196345
1.0477e-05
0.0001937
1.05719e-05
0.000191032
1.06646e-05
0.000188341
1.07551e-05
0.000185628
1.08434e-05
0.000182894
1.09294e-05
0.000180139
1.10133e-05
0.000177363
1.1095e-05
0.000174568
1.11746e-05
0.000171753
1.1252e-05
0.000168919
1.13273e-05
0.000166067
1.14004e-05
0.000163198
1.14716e-05
0.000160311
1.15406e-05
0.000157407
1.16076e-05
0.000154487
1.16726e-05
0.000151552
1.17357e-05
0.000148601
1.17967e-05
0.000145635
1.18559e-05
0.000142655
1.19131e-05
0.000139661
1.19685e-05
0.000136654
1.2022e-05
0.000133634
1.20737e-05
0.000130602
1.21237e-05
0.000127557
1.21718e-05
0.000124501
1.22183e-05
0.000121434
1.22631e-05
0.000118356
1.23062e-05
0.000115268
1.23477e-05
0.00011217
1.23876e-05
0.000109062
1.2426e-05
0.000105945
1.24628e-05
0.000102819
1.24981e-05
9.96847e-05
1.2532e-05
9.65424e-05
1.25644e-05
9.33923e-05
1.25955e-05
9.02349e-05
1.26252e-05
8.70704e-05
1.26535e-05
8.38991e-05
1.26805e-05
8.07214e-05
1.27063e-05
7.75377e-05
1.27308e-05
7.43481e-05
1.27541e-05
7.11531e-05
1.27762e-05
6.79528e-05
1.27971e-05
6.47476e-05
1.28169e-05
6.15378e-05
1.28355e-05
5.83235e-05
1.28531e-05
5.51052e-05
1.28696e-05
5.1883e-05
1.28851e-05
4.86573e-05
1.28995e-05
4.54282e-05
1.2913e-05
4.2196e-05
1.29254e-05
3.89609e-05
1.29369e-05
3.57232e-05
1.29475e-05
3.24831e-05
1.29571e-05
2.92409e-05
1.29658e-05
2.59967e-05
1.29735e-05
2.27509e-05
1.29804e-05
1.95035e-05
1.29864e-05
1.62548e-05
1.29915e-05
1.30051e-05
1.29958e-05
9.75459e-06
1.29992e-05
6.50341e-06
1.30017e-05
3.25181e-06
1.30034e-05
1.30043e-05
3.39196e-06
-1.6953e-05
6.7837e-06
-1.69519e-05
1.0175e-05
-1.69496e-05
1.35656e-05
-1.69462e-05
1.69553e-05
-1.69417e-05
2.03439e-05
-1.6936e-05
2.37312e-05
-1.69292e-05
2.71169e-05
-1.69212e-05
3.05007e-05
-1.6912e-05
3.38825e-05
-1.69016e-05
3.7262e-05
-1.689e-05
4.0639e-05
-1.68771e-05
4.40131e-05
-1.6863e-05
4.73842e-05
-1.68475e-05
5.0752e-05
-1.68308e-05
5.41162e-05
-1.68126e-05
5.74765e-05
-1.67931e-05
6.08327e-05
-1.67722e-05
6.41845e-05
-1.67498e-05
6.75315e-05
-1.6726e-05
7.08735e-05
-1.67006e-05
7.42102e-05
-1.66736e-05
7.75412e-05
-1.6645e-05
8.08662e-05
-1.66148e-05
8.41848e-05
-1.65828e-05
8.74968e-05
-1.65492e-05
9.08018e-05
-1.65137e-05
9.40993e-05
-1.64764e-05
9.73891e-05
-1.64372e-05
0.000100671
-1.6396e-05
0.000103944
-1.63529e-05
0.000107208
-1.63077e-05
0.000110462
-1.62604e-05
0.000113707
-1.6211e-05
0.000116942
-1.61594e-05
0.000120166
-1.61055e-05
0.000123378
-1.60493e-05
0.000126579
-1.59907e-05
0.000129768
-1.59298e-05
0.000132945
-1.58663e-05
0.000136108
-1.58003e-05
0.000139257
-1.57318e-05
0.000142393
-1.56606e-05
0.000145513
-1.55867e-05
0.000148619
-1.55101e-05
0.000151708
-1.54307e-05
0.000154781
-1.53485e-05
0.000157838
-1.52634e-05
0.000160876
-1.51754e-05
0.000163897
-1.50843e-05
0.000166898
-1.49903e-05
0.000169881
-1.48932e-05
0.000172843
-1.4793e-05
0.000175785
-1.46897e-05
0.000178705
-1.45832e-05
0.000181604
-1.44735e-05
0.00018448
-1.43605e-05
0.000187333
-1.42443e-05
0.000190162
-1.41248e-05
0.000192966
-1.4002e-05
0.000195745
-1.38759e-05
0.000198499
-1.37463e-05
0.000201225
-1.36135e-05
0.000203925
-1.34772e-05
0.000206596
-1.33376e-05
0.000209239
-1.31945e-05
0.000211853
-1.30481e-05
0.000214437
-1.28983e-05
0.00021699
-1.27451e-05
0.000219512
-1.25885e-05
0.000222001
-1.24286e-05
0.000224458
-1.22653e-05
0.000226882
-1.20987e-05
0.000229272
-1.19288e-05
0.000231627
-1.17556e-05
0.000233946
-1.15791e-05
0.00023623
-1.13994e-05
0.000238477
-1.12166e-05
0.000240687
-1.10306e-05
0.000242859
-1.08416e-05
0.000244992
-1.06494e-05
0.000247087
-1.04543e-05
0.000249142
-1.02563e-05
0.000251156
-1.00553e-05
0.00025313
-9.85158e-06
0.000255062
-9.64505e-06
0.000256952
-9.43583e-06
0.0002588
-9.22397e-06
0.000260605
-9.00956e-06
0.000262366
-8.79266e-06
0.000264084
-8.57334e-06
0.000265757
-8.35169e-06
0.000267385
-8.12778e-06
0.000268968
-7.90169e-06
0.000270505
-7.67351e-06
0.000271996
-7.44331e-06
0.00027344
-7.21119e-06
0.000274838
-6.97722e-06
0.000276188
-6.7415e-06
0.000277491
-6.5041e-06
0.000278746
-6.26512e-06
0.000279952
-6.02465e-06
0.000281111
-5.78278e-06
0.00028222
-5.53958e-06
0.00028328
-5.29516e-06
0.000284291
-5.0496e-06
0.000285253
-4.80298e-06
0.000286165
-4.55539e-06
0.000287028
-4.30693e-06
0.00028784
-4.05768e-06
0.000288602
-3.80771e-06
0.000289314
-3.55712e-06
0.000289976
-3.306e-06
0.000290588
-3.05441e-06
0.000291148
-2.80245e-06
0.000291659
-2.55018e-06
0.000292118
-2.29771e-06
0.000292528
-2.04508e-06
0.000292886
-1.7924e-06
0.000293194
-1.53972e-06
0.000293451
-1.28712e-06
0.000293658
-1.03468e-06
0.000293814
-7.82459e-07
0.00029392
-5.3053e-07
0.000293975
-2.78961e-07
0.00029398
-2.78159e-08
0.000293935
2.2284e-07
0.000293839
4.72944e-07
0.000293694
7.22433e-07
0.000293499
9.71249e-07
0.000293254
1.21933e-06
0.00029296
1.46662e-06
0.000292616
1.71307e-06
0.000292223
1.95861e-06
0.000291781
2.20319e-06
0.000291291
2.44676e-06
0.000290751
2.68926e-06
0.000290164
2.93065e-06
0.000289528
3.17087e-06
0.000288845
3.40987e-06
0.000288114
3.64761e-06
0.000287335
3.88402e-06
0.00028651
4.11908e-06
0.000285637
4.35272e-06
0.000284719
4.58489e-06
0.000283754
4.81557e-06
0.000282743
5.04468e-06
0.000281686
5.2722e-06
0.000280585
5.49808e-06
0.000279438
5.72226e-06
0.000278247
5.94471e-06
0.000277012
6.16538e-06
0.000275733
6.38422e-06
0.00027441
6.6012e-06
0.000273045
6.81626e-06
0.000271636
7.02937e-06
0.000270186
7.24048e-06
0.000268693
7.44956e-06
0.00026716
7.65655e-06
0.000265585
7.86143e-06
0.000263969
8.06414e-06
0.000262314
8.26465e-06
0.000260618
8.46291e-06
0.000258884
8.6589e-06
0.00025711
8.85257e-06
0.000255299
9.04389e-06
0.000253449
9.23281e-06
0.000251563
9.41931e-06
0.000249639
9.60335e-06
0.000247679
9.7849e-06
0.000245683
9.96393e-06
0.000243652
1.01404e-05
0.000241586
1.03143e-05
0.000239486
1.04856e-05
0.000237352
1.06542e-05
0.000235184
1.08202e-05
0.000232984