/*--------------------------------*- C++ -*----------------------------------*\
| =========                 |                                                 |
| \\      /  F ield         | OpenFOAM: The Open Source CFD Toolbox           |
|  \\    /   O peration     | Version:  v2012                                 |
|   \\  /    A nd           | Website:  www.openfoam.com                      |
|    \\/     M anipulation  |                                                 |
\*---------------------------------------------------------------------------*/
FoamFile
{
    version     2.0;
    format      ascii;
    class       volScalarField;
    location    "1";
    object      W;
}
// * * * * * * * * * * * * * * * * * * * * * * * * * * * * * * * * * * * * * //

dimensions      [0 0 -1 0 0 0 0];


internalField   nonuniform List<scalar> 
65536
(
5.37625e-21
6.25556e-21
8.09531e-21
1.09718e-20
1.50816e-20
2.0769e-20
2.85447e-20
3.9114e-20
5.34235e-20
7.27277e-20
9.86806e-20
1.33453e-19
1.79881e-19
2.41661e-19
3.23587e-19
4.31854e-19
5.74442e-19
7.61585e-19
1.00636e-18
1.32541e-18
1.73983e-18
2.27629e-18
2.96831e-18
3.85792e-18
4.99757e-18
6.45246e-18
8.30335e-18
1.06498e-17
1.36142e-17
1.73461e-17
2.20278e-17
2.78805e-17
3.51714e-17
4.4222e-17
5.54174e-17
6.92171e-17
8.61665e-17
1.06911e-16
1.32209e-16
1.62952e-16
2.00178e-16
2.45091e-16
2.99086e-16
3.63764e-16
4.40958e-16
5.32759e-16
6.41531e-16
7.69942e-16
9.20982e-16
1.09798e-15
1.30465e-15
1.54504e-15
1.82363e-15
2.14528e-15
2.51524e-15
2.93914e-15
3.42302e-15
3.97323e-15
4.59645e-15
5.29963e-15
6.0899e-15
6.97455e-15
7.96091e-15
9.05624e-15
1.02677e-14
1.16019e-14
1.30655e-14
1.4664e-14
1.64026e-14
1.82853e-14
2.03152e-14
2.24941e-14
2.48223e-14
2.72984e-14
2.99196e-14
3.2681e-14
3.55756e-14
3.85945e-14
4.17266e-14
4.49587e-14
4.82752e-14
5.16586e-14
5.50892e-14
5.85457e-14
6.20046e-14
6.54413e-14
6.88298e-14
7.21431e-14
7.53538e-14
7.84341e-14
8.13562e-14
8.40932e-14
8.6619e-14
8.89087e-14
9.09394e-14
9.26904e-14
9.41433e-14
9.52827e-14
9.60964e-14
9.65755e-14
9.67147e-14
9.65123e-14
9.59704e-14
9.50948e-14
9.38951e-14
9.23844e-14
9.05792e-14
8.8499e-14
8.61664e-14
8.36063e-14
8.08459e-14
7.79143e-14
7.48417e-14
7.16596e-14
6.84e-14
6.50951e-14
6.17769e-14
5.8477e-14
5.52262e-14
5.20541e-14
4.89888e-14
4.60572e-14
4.32842e-14
4.06929e-14
3.83044e-14
3.61378e-14
3.42099e-14
3.25357e-14
3.11278e-14
2.99967e-14
2.9151e-14
2.85969e-14
2.83386e-14
2.83782e-14
2.87156e-14
2.93488e-14
3.02733e-14
3.14827e-14
3.29682e-14
3.47189e-14
3.67215e-14
3.89603e-14
4.14174e-14
4.40727e-14
4.69035e-14
4.98852e-14
5.2991e-14
5.61919e-14
5.94576e-14
6.27559e-14
6.60535e-14
6.93163e-14
7.25095e-14
7.55984e-14
7.85485e-14
8.13261e-14
8.38988e-14
8.62362e-14
8.83098e-14
9.00941e-14
9.15665e-14
9.27081e-14
9.35038e-14
9.39426e-14
9.40176e-14
9.37267e-14
9.30718e-14
9.20596e-14
9.07008e-14
8.90101e-14
8.70061e-14
8.47109e-14
8.21491e-14
7.93484e-14
7.63382e-14
7.31493e-14
6.98136e-14
6.63635e-14
6.2831e-14
5.92478e-14
5.56443e-14
5.20495e-14
4.84907e-14
4.49928e-14
4.15783e-14
3.82675e-14
3.50775e-14
3.20229e-14
2.91154e-14
2.63643e-14
2.37758e-14
2.1354e-14
1.91006e-14
1.70152e-14
1.50954e-14
1.33374e-14
1.17359e-14
1.02843e-14
8.97519e-15
7.80056e-15
6.75177e-15
5.81993e-15
4.99604e-15
4.2711e-15
3.63629e-15
3.08305e-15
2.60318e-15
2.18892e-15
1.83298e-15
1.52856e-15
1.26943e-15
1.04985e-15
8.64664e-16
7.09189e-16
5.79257e-16
4.71167e-16
3.81657e-16
3.07868e-16
2.47313e-16
1.97844e-16
1.57612e-16
1.25039e-16
9.87859e-17
7.77201e-17
6.08921e-17
4.75093e-17
3.69134e-17
2.85613e-17
2.2007e-17
1.68862e-17
1.2903e-17
9.8183e-18
7.43994e-18
5.61422e-18
4.21888e-18
3.15712e-18
2.35273e-18
1.74598e-18
1.29031e-18
9.49584e-19
6.95921e-19
5.07894e-19
3.69124e-19
2.67152e-19
1.92544e-19
1.38193e-19
9.87716e-20
7.03013e-20
4.98291e-20
3.51723e-20
2.47273e-20
1.73258e-20
1.21339e-20
8.58368e-21
6.32881e-21
5.1982e-21
7.15563e-21
8.32617e-21
1.07752e-20
1.46043e-20
2.0075e-20
2.76454e-20
3.79955e-20
5.2064e-20
7.11105e-20
9.6805e-20
1.31348e-19
1.77629e-19
2.39422e-19
3.21645e-19
4.30676e-19
5.7476e-19
7.64511e-19
1.01354e-18
1.33925e-18
1.76377e-18
2.31518e-18
3.02891e-18
3.94956e-18
5.133e-18
6.64897e-18
8.58414e-18
1.10458e-17
1.41664e-17
1.81085e-17
2.30707e-17
2.92954e-17
3.70763e-17
4.67682e-17
5.8798e-17
7.36771e-17
9.20151e-17
1.14536e-16
1.42096e-16
1.75702e-16
2.16535e-16
2.65971e-16
3.25607e-16
3.97291e-16
4.83144e-16
5.85595e-16
7.07408e-16
8.51717e-16
1.02205e-15
1.22236e-15
1.45705e-15
1.73102e-15
2.04963e-15
2.41878e-15
2.84489e-15
3.33488e-15
3.89618e-15
4.53673e-15
5.2649e-15
6.08946e-15
7.01955e-15
8.06453e-15
9.23396e-15
1.05374e-14
1.19844e-14
1.35842e-14
1.53457e-14
1.72771e-14
1.93859e-14
2.16786e-14
2.41604e-14
2.68351e-14
2.97049e-14
3.27699e-14
3.60284e-14
3.9476e-14
4.31062e-14
4.69096e-14
5.08742e-14
5.49853e-14
5.92249e-14
6.35727e-14
6.80053e-14
7.24967e-14
7.70185e-14
8.15401e-14
8.60288e-14
9.04506e-14
9.47699e-14
9.89508e-14
1.02957e-13
1.06752e-13
1.10301e-13
1.1357e-13
1.16526e-13
1.1914e-13
1.21386e-13
1.23238e-13
1.24679e-13
1.25692e-13
1.26267e-13
1.26396e-13
1.26078e-13
1.25317e-13
1.24121e-13
1.22503e-13
1.2048e-13
1.18074e-13
1.15312e-13
1.12224e-13
1.08842e-13
1.05202e-13
1.01342e-13
9.73022e-14
9.31237e-14
8.8848e-14
8.45173e-14
8.01731e-14
7.58565e-14
7.16074e-14
6.7464e-14
6.34628e-14
5.96382e-14
5.60224e-14
5.2645e-14
4.95328e-14
4.67102e-14
4.41988e-14
4.20172e-14
4.01814e-14
3.87046e-14
3.75971e-14
3.68666e-14
3.6518e-14
3.65534e-14
3.69724e-14
3.77716e-14
3.8945e-14
4.04837e-14
4.23761e-14
4.46075e-14
4.71606e-14
5.00147e-14
5.31467e-14
5.65301e-14
6.01359e-14
6.3932e-14
6.7884e-14
7.19547e-14
7.61049e-14
8.02937e-14
8.44783e-14
8.86151e-14
9.26599e-14
9.65684e-14
1.00297e-13
1.03802e-13
1.07044e-13
1.09983e-13
1.12585e-13
1.14815e-13
1.16647e-13
1.18057e-13
1.19026e-13
1.19541e-13
1.19593e-13
1.19179e-13
1.18305e-13
1.16977e-13
1.1521e-13
1.13023e-13
1.10441e-13
1.07492e-13
1.04207e-13
1.00621e-13
9.67725e-14
9.27006e-14
8.84457e-14
8.40489e-14
7.9551e-14
7.49919e-14
7.04102e-14
6.58426e-14
6.13233e-14
5.68839e-14
5.25528e-14
4.83551e-14
4.43125e-14
4.04433e-14
3.67621e-14
3.32802e-14
3.00055e-14
2.69428e-14
2.40941e-14
2.14586e-14
1.90333e-14
1.68131e-14
1.47911e-14
1.29589e-14
1.13071e-14
9.82541e-15
8.50277e-15
7.32793e-15
6.28943e-15
5.37588e-15
4.57609e-15
3.87923e-15
3.27493e-15
2.75335e-15
2.30527e-15
1.92214e-15
1.59606e-15
1.31981e-15
1.08686e-15
8.9132e-16
7.27932e-16
5.9203e-16
4.79504e-16
3.86756e-16
3.10652e-16
2.48489e-16
1.97939e-16
1.57018e-16
1.24039e-16
9.758e-17
7.64458e-17
5.964e-17
4.63353e-17
3.58489e-17
2.76204e-17
2.11921e-17
1.61922e-17
1.23205e-17
9.33551e-18
7.04429e-18
5.29327e-18
3.96095e-18
2.95164e-18
2.19035e-18
1.61865e-18
1.19118e-18
8.72957e-19
6.37081e-19
4.63003e-19
3.35089e-19
2.41504e-19
1.7333e-19
1.23883e-19
8.81738e-20
6.24965e-20
4.41135e-20
3.1013e-20
2.173e-20
1.52182e-20
1.07653e-20
7.93703e-21
6.51905e-21
1.09876e-20
1.27851e-20
1.65459e-20
2.24256e-20
3.0826e-20
4.24504e-20
5.83426e-20
7.9944e-20
1.09188e-19
1.48638e-19
2.01673e-19
2.72726e-19
3.67593e-19
4.93818e-19
6.61193e-19
8.82368e-19
1.17363e-18
1.55587e-18
2.05577e-18
2.7073e-18
3.55351e-18
4.64877e-18
6.06147e-18
7.87728e-18
1.02031e-17
1.31719e-17
1.69482e-17
2.17348e-17
2.77808e-17
3.53909e-17
4.49361e-17
5.68664e-17
7.17253e-17
9.01665e-17
1.12973e-16
1.41077e-16
1.75589e-16
2.17816e-16
2.693e-16
3.31846e-16
4.07559e-16
4.98881e-16
6.08633e-16
7.40057e-16
8.96862e-16
1.08327e-15
1.30406e-15
1.56461e-15
1.87096e-15
2.22982e-15
2.64864e-15
3.13561e-15
3.69969e-15
4.35065e-15
5.09901e-15
5.95607e-15
6.93388e-15
8.04513e-15
9.30315e-15
1.07217e-14
1.23151e-14
1.40977e-14
1.60839e-14
1.82881e-14
2.07243e-14
2.34057e-14
2.63447e-14
2.95525e-14
3.30386e-14
3.68107e-14
4.08744e-14
4.52325e-14
4.9885e-14
5.48288e-14
6.00572e-14
6.55596e-14
7.13216e-14
7.73245e-14
8.35456e-14
8.99574e-14
9.65286e-14
1.03224e-13
1.10003e-13
1.16822e-13
1.23636e-13
1.30395e-13
1.37046e-13
1.43537e-13
1.49812e-13
1.55818e-13
1.61499e-13
1.66802e-13
1.71677e-13
1.76076e-13
1.79953e-13
1.83269e-13
1.8599e-13
1.88086e-13
1.89535e-13
1.9032e-13
1.90433e-13
1.89873e-13
1.88645e-13
1.86763e-13
1.84247e-13
1.81124e-13
1.77429e-13
1.73202e-13
1.68487e-13
1.63336e-13
1.57802e-13
1.51943e-13
1.45819e-13
1.39493e-13
1.33027e-13
1.26485e-13
1.19928e-13
1.13418e-13
1.07015e-13
1.00776e-13
9.47549e-14
8.90029e-14
8.35675e-14
7.84925e-14
7.38176e-14
6.95784e-14
6.58064e-14
6.25288e-14
5.97686e-14
5.75447e-14
5.58718e-14
5.47605e-14
5.42173e-14
5.42446e-14
5.48408e-14
5.60004e-14
5.77135e-14
5.99663e-14
6.27407e-14
6.60145e-14
6.97612e-14
7.395e-14
7.85457e-14
8.3509e-14
8.87963e-14
9.43602e-14
1.00149e-13
1.06108e-13
1.1218e-13
1.18303e-13
1.24416e-13
1.30453e-13
1.3635e-13
1.42041e-13
1.47464e-13
1.52555e-13
1.57254e-13
1.61507e-13
1.65259e-13
1.68466e-13
1.71087e-13
1.73086e-13
1.74439e-13
1.75125e-13
1.75134e-13
1.74463e-13
1.73118e-13
1.71111e-13
1.68465e-13
1.65208e-13
1.61376e-13
1.57011e-13
1.52159e-13
1.46873e-13
1.41208e-13
1.35221e-13
1.28972e-13
1.22521e-13
1.15927e-13
1.09249e-13
1.02543e-13
9.58614e-14
8.9255e-14
8.27692e-14
7.64452e-14
7.03192e-14
6.44226e-14
5.87814e-14
5.34168e-14
4.83448e-14
4.35766e-14
3.9119e-14
3.49743e-14
3.11413e-14
2.76152e-14
2.43883e-14
2.14505e-14
1.87894e-14
1.63909e-14
1.42401e-14
1.23207e-14
1.06162e-14
9.10998e-15
7.7853e-15
6.62587e-15
5.61588e-15
4.74024e-15
3.98463e-15
3.33565e-15
2.78084e-15
2.30874e-15
1.90887e-15
1.57173e-15
1.28878e-15
1.05239e-15
8.5581e-16
6.93065e-16
5.58942e-16
4.48907e-16
3.59039e-16
2.85971e-16
2.26828e-16
1.7917e-16
1.40938e-16
1.10403e-16
8.61252e-17
6.69068e-17
5.17609e-17
3.98772e-17
3.05941e-17
2.33745e-17
1.77843e-17
1.34748e-17
1.01671e-17
7.63947e-18
5.71633e-18
4.25953e-18
3.16078e-18
2.33569e-18
1.71881e-18
1.25958e-18
9.1921e-19
6.68024e-19
4.83456e-19
3.48427e-19
2.50066e-19
1.78725e-19
1.27205e-19
9.01605e-20
6.36397e-20
4.47401e-20
3.13481e-20
2.19537e-20
1.55297e-20
1.14493e-20
9.40337e-21
1.76687e-20
2.05589e-20
2.66061e-20
3.60605e-20
4.95676e-20
6.82584e-20
9.38108e-20
1.28542e-19
1.75559e-19
2.38985e-19
3.24248e-19
4.38474e-19
5.90978e-19
7.93886e-19
1.06293e-18
1.41844e-18
1.88658e-18
2.50093e-18
3.30434e-18
4.35137e-18
5.7112e-18
7.47113e-18
9.741e-18
1.26584e-17
1.6395e-17
2.11641e-17
2.723e-17
3.49181e-17
4.46283e-17
5.68494e-17
7.21767e-17
9.13322e-17
1.15188e-16
1.44791e-16
1.81398e-16
2.26504e-16
2.81886e-16
3.49642e-16
4.32242e-16
5.32576e-16
6.54015e-16
8.00469e-16
9.76454e-16
1.18716e-15
1.43852e-15
1.73728e-15
2.09108e-15
2.50854e-15
2.99928e-15
3.57403e-15
4.24468e-15
5.0243e-15
5.9272e-15
6.96892e-15
8.16626e-15
9.53722e-15
1.11009e-14
1.28776e-14
1.48885e-14
1.71554e-14
1.9701e-14
2.2548e-14
2.57194e-14
2.92378e-14
3.31253e-14
3.74029e-14
4.20898e-14
4.72036e-14
5.27592e-14
5.87685e-14
6.52398e-14
7.21774e-14
7.95808e-14
8.74443e-14
9.5757e-14
1.04501e-13
1.13654e-13
1.23185e-13
1.33057e-13
1.43227e-13
1.53643e-13
1.6425e-13
1.74983e-13
1.85773e-13
1.96546e-13
2.07224e-13
2.17723e-13
2.2796e-13
2.37847e-13
2.47298e-13
2.56227e-13
2.64549e-13
2.72186e-13
2.79061e-13
2.85104e-13
2.90254e-13
2.94456e-13
2.97665e-13
2.99846e-13
3.00977e-13
3.01043e-13
3.00044e-13
2.9799e-13
2.94903e-13
2.90818e-13
2.85778e-13
2.79839e-13
2.73064e-13
2.65526e-13
2.57305e-13
2.48488e-13
2.39167e-13
2.29436e-13
2.19393e-13
2.09139e-13
1.98772e-13
1.88391e-13
1.78092e-13
1.67968e-13
1.5811e-13
1.48601e-13
1.39522e-13
1.30946e-13
1.22942e-13
1.1557e-13
1.08887e-13
1.02939e-13
9.77695e-14
9.34128e-14
8.98975e-14
8.72454e-14
8.54722e-14
8.45867e-14
8.45919e-14
8.5484e-14
8.72533e-14
8.98835e-14
9.3352e-14
9.76298e-14
1.02681e-13
1.08464e-13
1.1493e-13
1.22023e-13
1.29681e-13
1.37837e-13
1.46416e-13
1.55338e-13
1.64517e-13
1.73864e-13
1.83285e-13
1.92681e-13
2.01955e-13
2.11005e-13
2.19731e-13
2.28036e-13
2.35822e-13
2.42999e-13
2.4948e-13
2.55186e-13
2.60046e-13
2.63998e-13
2.66991e-13
2.68984e-13
2.6995e-13
2.69873e-13
2.68749e-13
2.66588e-13
2.63412e-13
2.59255e-13
2.54162e-13
2.48188e-13
2.41399e-13
2.33868e-13
2.25675e-13
2.16905e-13
2.07647e-13
1.97994e-13
1.88036e-13
1.77866e-13
1.67573e-13
1.57244e-13
1.46959e-13
1.36795e-13
1.26822e-13
1.17102e-13
1.07691e-13
9.8636e-14
8.99773e-14
8.17463e-14
7.39672e-14
6.66568e-14
5.98248e-14
5.34747e-14
4.7604e-14
4.22051e-14
3.72659e-14
3.27703e-14
2.86992e-14
2.50311e-14
2.17424e-14
1.88084e-14
1.62036e-14
1.39023e-14
1.18788e-14
1.01081e-14
8.56599e-15
7.22926e-15
6.076e-15
5.08567e-15
4.2392e-15
3.51904e-15
2.90917e-15
2.39505e-15
1.96365e-15
1.60329e-15
1.30365e-15
1.05563e-15
8.51254e-16
6.83604e-16
5.46698e-16
4.35398e-16
3.4532e-16
2.72743e-16
2.14526e-16
1.68035e-16
1.31073e-16
1.01818e-16
7.87633e-17
6.06761e-17
4.65484e-17
3.55617e-17
2.70553e-17
2.04982e-17
1.54656e-17
1.16201e-17
8.69453e-18
6.47845e-18
4.80714e-18
3.55216e-18
2.61389e-18
1.91546e-18
1.39781e-18
1.01581e-18
7.35135e-19
5.29799e-19
3.80229e-19
2.71749e-19
1.93411e-19
1.37084e-19
9.6759e-20
6.80231e-20
4.76612e-20
3.33778e-20
2.36104e-20
1.74062e-20
1.42953e-20
2.86696e-20
3.33585e-20
4.31696e-20
5.85085e-20
8.04224e-20
1.10746e-19
1.522e-19
2.08544e-19
2.84817e-19
3.87705e-19
5.26013e-19
7.11297e-19
9.58661e-19
1.28777e-18
1.72413e-18
2.3007e-18
3.05992e-18
4.05618e-18
5.35898e-18
7.05676e-18
9.26159e-18
1.2115e-17
1.5795e-17
2.05244e-17
2.65815e-17
3.43118e-17
4.41432e-17
5.6603e-17
7.23387e-17
9.21418e-17
1.16976e-16
1.4801e-16
1.86655e-16
2.34607e-16
2.93897e-16
3.66946e-16
4.56626e-16
5.66332e-16
7.00055e-16
8.62469e-16
1.05902e-15
1.29603e-15
1.58079e-15
1.92169e-15
2.32829e-15
2.81151e-15
3.38367e-15
4.05864e-15
4.85198e-15
5.78098e-15
6.86478e-15
8.12446e-15
9.58304e-15
1.12656e-14
1.3199e-14
1.54124e-14
1.79364e-14
2.08036e-14
2.40479e-14
2.77045e-14
3.18094e-14
3.63994e-14
4.1511e-14
4.71805e-14
5.34429e-14
6.03316e-14
6.78774e-14
7.61079e-14
8.50467e-14
9.47123e-14
1.05117e-13
1.16268e-13
1.28164e-13
1.40794e-13
1.5414e-13
1.68174e-13
1.82856e-13
1.98139e-13
2.13961e-13
2.30253e-13
2.46931e-13
2.63904e-13
2.8107e-13
2.98317e-13
3.15526e-13
3.3257e-13
3.49317e-13
3.6563e-13
3.81373e-13
3.96405e-13
4.10589e-13
4.23793e-13
4.35888e-13
4.46754e-13
4.56281e-13
4.64371e-13
4.70937e-13
4.75912e-13
4.79239e-13
4.80883e-13
4.80824e-13
4.79064e-13
4.7562e-13
4.7053e-13
4.63849e-13
4.5565e-13
4.46022e-13
4.35068e-13
4.22907e-13
4.09666e-13
3.95485e-13
3.80511e-13
3.64896e-13
3.48796e-13
3.32371e-13
3.15778e-13
2.99175e-13
2.82714e-13
2.66543e-13
2.50804e-13
2.3563e-13
2.21149e-13
2.07476e-13
1.94717e-13
1.8297e-13
1.72319e-13
1.62841e-13
1.546e-13
1.4765e-13
1.42034e-13
1.37785e-13
1.34928e-13
1.33473e-13
1.33424e-13
1.34774e-13
1.37506e-13
1.41593e-13
1.46997e-13
1.53671e-13
1.61558e-13
1.70591e-13
1.80691e-13
1.91771e-13
2.03732e-13
2.16466e-13
2.29856e-13
2.43775e-13
2.5809e-13
2.72657e-13
2.87331e-13
3.01958e-13
3.16383e-13
3.30449e-13
3.44e-13
3.56882e-13
3.68946e-13
3.80049e-13
3.90058e-13
3.98851e-13
4.06317e-13
4.12362e-13
4.16906e-13
4.19888e-13
4.21267e-13
4.21018e-13
4.19138e-13
4.15644e-13
4.10571e-13
4.03973e-13
3.95922e-13
3.86506e-13
3.75828e-13
3.64002e-13
3.51154e-13
3.37416e-13
3.22929e-13
3.07835e-13
2.92277e-13
2.76399e-13
2.60339e-13
2.4423e-13
2.282e-13
2.12367e-13
1.96837e-13
1.8171e-13
1.67068e-13
1.52987e-13
1.39527e-13
1.26736e-13
1.14651e-13
1.03299e-13
9.26925e-14
8.28373e-14
7.37288e-14
6.53547e-14
5.76956e-14
5.07263e-14
4.44168e-14
3.87332e-14
3.36386e-14
2.90946e-14
2.50613e-14
2.14986e-14
1.83667e-14
1.56266e-14
1.32407e-14
1.11729e-14
9.38925e-15
7.85787e-15
6.54916e-15
5.43592e-15
4.4933e-15
3.69881e-15
3.03223e-15
2.47551e-15
2.01265e-15
1.62958e-15
1.31395e-15
1.05508e-15
8.43701e-16
6.71878e-16
5.32831e-16
4.2081e-16
3.30962e-16
2.59219e-16
2.02186e-16
1.57047e-16
1.21479e-16
9.3577e-17
7.17843e-17
5.48382e-17
4.17187e-17
3.1606e-17
2.38452e-17
1.79153e-17
1.34042e-17
9.98729e-18
7.41048e-18
5.47565e-18
4.02918e-18
2.95248e-18
2.15452e-18
1.56568e-18
1.13304e-18
8.16543e-19
5.86008e-19
4.18811e-19
2.98073e-19
2.11261e-19
1.49115e-19
1.04828e-19
7.34485e-20
5.14363e-20
3.63838e-20
2.68224e-20
2.2028e-20
4.64602e-20
5.40572e-20
6.9954e-20
9.48076e-20
1.30314e-19
1.79445e-19
2.4661e-19
3.37896e-19
4.61468e-19
6.28152e-19
8.52213e-19
1.15237e-18
1.55307e-18
2.08617e-18
2.79297e-18
3.72684e-18
4.95648e-18
6.56997e-18
8.67981e-18
1.14292e-17
1.49994e-17
1.96197e-17
2.55779e-17
3.32349e-17
4.30407e-17
5.55544e-17
7.14682e-17
9.16352e-17
1.17102e-16
1.4915e-16
1.89336e-16
2.3955e-16
3.02072e-16
3.79646e-16
4.75552e-16
5.93701e-16
7.38736e-16
9.16136e-16
1.13235e-15
1.39492e-15
1.71265e-15
2.09573e-15
2.55592e-15
3.10676e-15
3.76369e-15
4.54428e-15
5.4684e-15
6.55843e-15
7.8394e-15
9.33916e-15
1.10885e-14
1.31214e-14
1.54749e-14
1.81892e-14
2.13078e-14
2.4877e-14
2.89464e-14
3.35681e-14
3.87964e-14
4.46879e-14
5.13002e-14
5.86921e-14
6.69219e-14
7.60476e-14
8.6125e-14
9.72072e-14
1.09343e-13
1.22576e-13
1.36944e-13
1.52475e-13
1.69189e-13
1.87095e-13
2.0619e-13
2.26457e-13
2.47865e-13
2.70367e-13
2.93901e-13
3.18385e-13
3.43723e-13
3.698e-13
3.96484e-13
4.23625e-13
4.5106e-13
4.78608e-13
5.06078e-13
5.33267e-13
5.59963e-13
5.85947e-13
6.10999e-13
6.34897e-13
6.57422e-13
6.7836e-13
6.9751e-13
7.14681e-13
7.29697e-13
7.42404e-13
7.52667e-13
7.60377e-13
7.6545e-13
7.67829e-13
7.67488e-13
7.64429e-13
7.58686e-13
7.50319e-13
7.3942e-13
7.26108e-13
7.10526e-13
6.92843e-13
6.73248e-13
6.51947e-13
6.29163e-13
6.05133e-13
5.80099e-13
5.54312e-13
5.28024e-13
5.01488e-13
4.74952e-13
4.4866e-13
4.22846e-13
3.97734e-13
3.73536e-13
3.50451e-13
3.28661e-13
3.08334e-13
2.89622e-13
2.72658e-13
2.5756e-13
2.44428e-13
2.33345e-13
2.24377e-13
2.17576e-13
2.12974e-13
2.10589e-13
2.10424e-13
2.12464e-13
2.16682e-13
2.23031e-13
2.3145e-13
2.41865e-13
2.54181e-13
2.68292e-13
2.84073e-13
3.01383e-13
3.20067e-13
3.39954e-13
3.60859e-13
3.82581e-13
4.04911e-13
4.27624e-13
4.50489e-13
4.73268e-13
4.95717e-13
5.1759e-13
5.38645e-13
5.5864e-13
5.77344e-13
5.94536e-13
6.10007e-13
6.23568e-13
6.35049e-13
6.44304e-13
6.51212e-13
6.55678e-13
6.5764e-13
6.57062e-13
6.53943e-13
6.48309e-13
6.40218e-13
6.29756e-13
6.17038e-13
6.02202e-13
5.85409e-13
5.6684e-13
5.4669e-13
5.25169e-13
5.02494e-13
4.78888e-13
4.54574e-13
4.29775e-13
4.04707e-13
3.79577e-13
3.54582e-13
3.29905e-13
3.05713e-13
2.82156e-13
2.59366e-13
2.37455e-13
2.16518e-13
1.9663e-13
1.77845e-13
1.60204e-13
1.43728e-13
1.28422e-13
1.14281e-13
1.01283e-13
8.93975e-14
7.85854e-14
6.87992e-14
5.99858e-14
5.20876e-14
4.50444e-14
3.87942e-14
3.32743e-14
2.84229e-14
2.41791e-14
2.04846e-14
1.72833e-14
1.45223e-14
1.21522e-14
1.01271e-14
8.40468e-15
6.94648e-15
5.7176e-15
4.68671e-15
3.82583e-15
3.11019e-15
2.51797e-15
2.03009e-15
1.62998e-15
1.30331e-15
1.0378e-15
8.22958e-16
6.49891e-16
5.11094e-16
4.00275e-16
3.12185e-16
2.42472e-16
1.87546e-16
1.4446e-16
1.10811e-16
8.46476e-17
6.4393e-17
4.87816e-17
3.68016e-17
2.76485e-17
2.06856e-17
1.54119e-17
1.14351e-17
8.44915e-18
6.21697e-18
4.5555e-18
3.32418e-18
2.4156e-18
1.74806e-18
1.25974e-18
9.04053e-19
6.461e-19
4.59829e-19
3.25901e-19
2.30027e-19
1.61708e-19
1.133e-19
7.93434e-20
5.61231e-20
4.13733e-20
3.39771e-20
7.50175e-20
8.72814e-20
1.12945e-19
1.53069e-19
2.1039e-19
2.89706e-19
3.98131e-19
5.4549e-19
7.44964e-19
1.01402e-18
1.37568e-18
1.86015e-18
2.50688e-18
3.36727e-18
4.50796e-18
6.01504e-18
7.99935e-18
1.0603e-17
1.40073e-17
1.84434e-17
2.42037e-17
3.16576e-17
4.12695e-17
5.36211e-17
6.94379e-17
8.96214e-17
1.15287e-16
1.4781e-16
1.88877e-16
2.40551e-16
3.05342e-16
3.86295e-16
4.87083e-16
6.12121e-16
7.66693e-16
9.57098e-16
1.1908e-15
1.47663e-15
1.82496e-15
2.24793e-15
2.75968e-15
3.37661e-15
4.11764e-15
5.00452e-15
6.06205e-15
7.31849e-15
8.80574e-15
1.05597e-14
1.26206e-14
1.50332e-14
1.78468e-14
2.11158e-14
2.48997e-14
2.92629e-14
3.42749e-14
4.00103e-14
4.65479e-14
5.39713e-14
6.23673e-14
7.18261e-14
8.24399e-14
9.43021e-14
1.07506e-13
1.22143e-13
1.38303e-13
1.5607e-13
1.7552e-13
1.96723e-13
2.19737e-13
2.44606e-13
2.71362e-13
3.00017e-13
3.30564e-13
3.62974e-13
3.97197e-13
4.33156e-13
4.70747e-13
5.09843e-13
5.50284e-13
5.91885e-13
6.34434e-13
6.77692e-13
7.21394e-13
7.65252e-13
8.08959e-13
8.52191e-13
8.94608e-13
9.35864e-13
9.75604e-13
1.01348e-12
1.04913e-12
1.08223e-12
1.11246e-12
1.13951e-12
1.16311e-12
1.18301e-12
1.199e-12
1.21091e-12
1.21862e-12
1.22203e-12
1.2211e-12
1.21585e-12
1.20634e-12
1.19265e-12
1.17495e-12
1.15343e-12
1.12831e-12
1.09987e-12
1.06841e-12
1.03427e-12
9.97796e-13
9.59367e-13
9.19371e-13
8.78208e-13
8.36277e-13
7.9398e-13
7.5171e-13
7.09853e-13
6.68779e-13
6.28841e-13
5.90375e-13
5.53691e-13
5.19077e-13
4.86795e-13
4.57082e-13
4.30147e-13
4.06171e-13
3.85309e-13
3.67691e-13
3.53416e-13
3.42561e-13
3.35175e-13
3.31283e-13
3.30884e-13
3.33953e-13
3.40442e-13
3.50275e-13
3.63355e-13
3.79557e-13
3.98735e-13
4.20716e-13
4.45301e-13
4.72269e-13
5.01374e-13
5.32346e-13
5.64893e-13
5.98701e-13
6.33438e-13
6.68756e-13
7.04291e-13
7.39671e-13
7.74515e-13
8.08442e-13
8.4107e-13
8.72028e-13
9.00954e-13
9.27505e-13
9.5136e-13
9.72225e-13
9.89839e-13
1.00398e-12
1.01445e-12
1.02112e-12
1.02389e-12
1.02271e-12
1.01757e-12
1.00853e-12
9.95676e-13
9.79147e-13
9.59121e-13
9.35818e-13
9.09489e-13
8.80417e-13
8.48909e-13
8.1529e-13
7.79899e-13
7.43083e-13
7.0519e-13
6.66564e-13
6.2754e-13
5.88441e-13
5.49571e-13
5.11212e-13
4.73623e-13
4.37035e-13
4.01652e-13
3.67646e-13
3.35163e-13
3.04317e-13
2.75192e-13
2.47848e-13
2.22317e-13
1.98607e-13
1.76705e-13
1.5658e-13
1.38183e-13
1.2145e-13
1.06309e-13
9.26757e-14
8.0461e-14
6.95707e-14
5.99085e-14
5.1377e-14
4.38801e-14
3.73235e-14
3.16163e-14
2.6672e-14
2.24084e-14
1.8749e-14
1.56227e-14
1.29641e-14
1.07137e-14
8.8174e-15
7.22686e-15
5.89881e-15
4.79494e-15
3.88156e-15
3.12919e-15
2.51223e-15
2.00858e-15
1.59926e-15
1.26809e-15
1.00134e-15
7.87423e-16
6.16645e-16
4.80906e-16
3.73493e-16
2.88869e-16
2.22493e-16
1.70658e-16
1.30357e-16
9.91597e-17
7.51158e-17
5.66659e-17
4.25703e-17
3.18482e-17
2.37277e-17
1.76044e-17
1.30071e-17
9.57039e-18
7.0125e-18
5.11692e-18
3.71823e-18
2.69065e-18
1.93896e-18
1.39147e-18
9.94419e-19
7.07713e-19
5.01579e-19
3.54018e-19
2.48869e-19
1.74367e-19
1.22106e-19
8.63694e-20
6.36689e-20
5.22856e-20
1.20634e-19
1.4035e-19
1.81613e-19
2.46124e-19
3.38285e-19
4.65804e-19
6.40121e-19
8.77026e-19
1.1977e-18
1.63023e-18
2.21161e-18
2.99036e-18
4.02992e-18
5.41286e-18
7.24625e-18
9.66843e-18
1.28575e-17
1.70416e-17
2.25123e-17
2.96406e-17
3.88962e-17
5.08725e-17
6.63152e-17
8.61583e-17
1.11567e-16
1.43988e-16
1.85212e-16
2.37446e-16
3.03398e-16
3.86379e-16
4.90415e-16
6.20391e-16
7.82199e-16
9.82921e-16
1.23103e-15
1.53663e-15
1.91168e-15
2.37034e-15
2.92923e-15
3.60779e-15
4.42869e-15
5.41819e-15
6.6066e-15
8.02871e-15
9.72425e-15
1.17384e-14
1.41222e-14
1.69332e-14
2.02355e-14
2.41006e-14
2.86075e-14
3.38431e-14
3.99022e-14
4.68877e-14
5.49106e-14
6.40895e-14
7.45504e-14
8.6426e-14
9.98549e-14
1.1498e-13
1.31949e-13
1.50909e-13
1.72009e-13
1.95393e-13
2.21204e-13
2.49573e-13
2.80622e-13
3.1446e-13
3.51178e-13
3.90845e-13
4.33507e-13
4.79182e-13
5.27858e-13
5.79485e-13
6.33981e-13
6.91219e-13
7.51034e-13
8.13217e-13
8.77514e-13
9.43626e-13
1.01121e-12
1.07989e-12
1.14924e-12
1.2188e-12
1.28808e-12
1.35656e-12
1.4237e-12
1.48896e-12
1.55176e-12
1.61156e-12
1.6678e-12
1.71994e-12
1.76747e-12
1.80993e-12
1.84688e-12
1.87793e-12
1.90276e-12
1.92109e-12
1.93274e-12
1.93756e-12
1.93551e-12
1.9266e-12
1.91093e-12
1.88867e-12
1.86007e-12
1.82542e-12
1.78511e-12
1.73956e-12
1.68927e-12
1.63476e-12
1.5766e-12
1.51539e-12
1.45174e-12
1.38629e-12
1.31967e-12
1.25251e-12
1.18543e-12
1.11905e-12
1.05394e-12
9.90665e-13
9.29745e-13
8.71668e-13
8.16886e-13
7.65807e-13
7.188e-13
6.76188e-13
6.38254e-13
6.05236e-13
5.7733e-13
5.5469e-13
5.3743e-13
5.25622e-13
5.19299e-13
5.18455e-13
5.23046e-13
5.32988e-13
5.48161e-13
5.68405e-13
5.93523e-13
6.23278e-13
6.57396e-13
6.95565e-13
7.37434e-13
7.82615e-13
8.30684e-13
8.81183e-13
9.33621e-13
9.87478e-13
1.04221e-12
1.09725e-12
1.15202e-12
1.20592e-12
1.25837e-12
1.30877e-12
1.35654e-12
1.40113e-12
1.442e-12
1.47867e-12
1.51067e-12
1.5376e-12
1.55913e-12
1.57496e-12
1.58488e-12
1.58874e-12
1.58648e-12
1.5781e-12
1.56366e-12
1.54333e-12
1.51732e-12
1.48591e-12
1.44944e-12
1.40831e-12
1.36296e-12
1.31387e-12
1.26153e-12
1.20648e-12
1.14926e-12
1.09041e-12
1.03045e-12
9.69905e-13
9.09275e-13
8.49028e-13
7.896e-13
7.31389e-13
6.7475e-13
6.19996e-13
5.67392e-13
5.1716e-13
4.69474e-13
4.24464e-13
3.82217e-13
3.42783e-13
3.06171e-13
2.72361e-13
2.41301e-13
2.12914e-13
1.87102e-13
1.6375e-13
1.42728e-13
1.23898e-13
1.07113e-13
9.22235e-14
7.90791e-14
6.75307e-14
5.74326e-14
4.86443e-14
4.10318e-14
3.44686e-14
2.88363e-14
2.40252e-14
1.99345e-14
1.64723e-14
1.35554e-14
1.1109e-14
9.06667e-15
7.36929e-15
5.96497e-15
4.80834e-15
3.85999e-15
3.08588e-15
2.45683e-15
1.94792e-15
1.53804e-15
1.20939e-15
9.47029e-16
7.38515e-16
5.73526e-16
4.43553e-16
3.41614e-16
2.62012e-16
2.00127e-16
1.52224e-16
1.15308e-16
8.69819e-17
6.53422e-17
4.88825e-17
3.64173e-17
2.70182e-17
1.99617e-17
1.4687e-17
1.07613e-17
7.85209e-18
5.70559e-18
4.12866e-18
2.97516e-18
2.13503e-18
1.52577e-18
1.08585e-18
7.69561e-19
5.43152e-19
3.81822e-19
2.67514e-19
1.87333e-19
1.32503e-19
9.76749e-20
8.02097e-20
1.93181e-19
2.24748e-19
2.90813e-19
3.94103e-19
5.41661e-19
7.45827e-19
1.02491e-18
1.40419e-18
1.91757e-18
2.60999e-18
3.54066e-18
4.78726e-18
6.45129e-18
8.66486e-18
1.15993e-17
1.5476e-17
2.05799e-17
2.7276e-17
3.60307e-17
4.74372e-17
6.22473e-17
8.14096e-17
1.06117e-16
1.37862e-16
1.78509e-16
2.3037e-16
2.96309e-16
3.79853e-16
4.85329e-16
6.18028e-16
7.84386e-16
9.92204e-16
1.2509e-15
1.57178e-15
1.96837e-15
2.45681e-15
3.05621e-15
3.78915e-15
4.68214e-15
5.76625e-15
7.07761e-15
8.65811e-15
1.05561e-14
1.2827e-14
1.55342e-14
1.87497e-14
2.25548e-14
2.70411e-14
3.23107e-14
3.84775e-14
4.56672e-14
5.40179e-14
6.36804e-14
7.48184e-14
8.7608e-14
1.02238e-13
1.18908e-13
1.37828e-13
1.59219e-13
1.83307e-13
2.10325e-13
2.40506e-13
2.74086e-13
3.11294e-13
3.52351e-13
3.97466e-13
4.46832e-13
5.00616e-13
5.58961e-13
6.21975e-13
6.89727e-13
7.62241e-13
8.39493e-13
9.21404e-13
1.00783e-12
1.09858e-12
1.19338e-12
1.2919e-12
1.39372e-12
1.49837e-12
1.6053e-12
1.71392e-12
1.82353e-12
1.93342e-12
2.04281e-12
2.15087e-12
2.25674e-12
2.35956e-12
2.45844e-12
2.55249e-12
2.64084e-12
2.72266e-12
2.79714e-12
2.86354e-12
2.92117e-12
2.96944e-12
3.00784e-12
3.03594e-12
3.05346e-12
3.06018e-12
3.05604e-12
3.04107e-12
3.01544e-12
2.97942e-12
2.9334e-12
2.87788e-12
2.81347e-12
2.74084e-12
2.66078e-12
2.57412e-12
2.48177e-12
2.38466e-12
2.28378e-12
2.18012e-12
2.07468e-12
1.96847e-12
1.86244e-12
1.75757e-12
1.65477e-12
1.5549e-12
1.45879e-12
1.3672e-12
1.28083e-12
1.20031e-12
1.12623e-12
1.05907e-12
9.99274e-13
9.47211e-13
9.03177e-13
8.67405e-13
8.40065e-13
8.21262e-13
8.11039e-13
8.09378e-13
8.16201e-13
8.31371e-13
8.54691e-13
8.85905e-13
9.24697e-13
9.70693e-13
1.02346e-12
1.0825e-12
1.14727e-12
1.21715e-12
1.29149e-12
1.36957e-12
1.45061e-12
1.53382e-12
1.61834e-12
1.70329e-12
1.78777e-12
1.87087e-12
1.95167e-12
2.02925e-12
2.10272e-12
2.17122e-12
2.23393e-12
2.29009e-12
2.33901e-12
2.38006e-12
2.41272e-12
2.43656e-12
2.45126e-12
2.45659e-12
2.45245e-12
2.43886e-12
2.41593e-12
2.38392e-12
2.34315e-12
2.29407e-12
2.23722e-12
2.17321e-12
2.10273e-12
2.02651e-12
1.94533e-12
1.86002e-12
1.7714e-12
1.68031e-12
1.58756e-12
1.49396e-12
1.40027e-12
1.30722e-12
1.21547e-12
1.12563e-12
1.03825e-12
9.53814e-13
8.72719e-13
7.95305e-13
7.21837e-13
6.52513e-13
5.87464e-13
5.26761e-13
4.70418e-13
4.18399e-13
3.70624e-13
3.2697e-13
2.87286e-13
2.51391e-13
2.19086e-13
1.90153e-13
1.64369e-13
1.415e-13
1.21316e-13
1.03586e-13
8.80848e-14
7.45967e-14
6.29151e-14
5.28453e-14
4.4205e-14
3.68256e-14
3.05521e-14
2.52431e-14
2.07709e-14
1.70207e-14
1.38901e-14
1.12887e-14
9.13664e-15
7.36437e-15
5.91138e-15
4.72549e-15
3.7619e-15
2.98244e-15
2.35471e-15
1.85141e-15
1.44968e-15
1.13042e-15
8.77819e-16
6.78846e-16
5.228e-16
4.00957e-16
3.06237e-16
2.32924e-16
1.76428e-16
1.33082e-16
9.99686e-17
7.47833e-17
5.5711e-17
4.13307e-17
3.05351e-17
2.24657e-17
1.64602e-17
1.201e-17
8.72662e-18
6.31455e-18
4.55022e-18
3.26524e-18
2.33341e-18
1.66059e-18
1.17687e-18
8.30611e-19
5.83888e-19
4.0908e-19
2.86462e-19
2.02615e-19
1.49354e-19
1.22645e-19
3.08068e-19
3.58396e-19
4.63731e-19
6.2842e-19
8.63688e-19
1.18921e-18
1.63416e-18
2.23884e-18
3.05729e-18
4.16114e-18
5.64475e-18
7.63192e-18
1.02844e-17
1.38127e-17
1.84899e-17
2.46687e-17
3.28029e-17
4.34743e-17
5.74258e-17
7.56023e-17
9.92011e-17
1.29733e-16
1.69098e-16
2.19674e-16
2.84426e-16
3.67039e-16
4.72069e-16
6.05132e-16
7.73115e-16
9.84437e-16
1.24934e-15
1.58024e-15
1.9921e-15
2.50293e-15
3.13425e-15
3.91168e-15
4.86563e-15
6.03199e-15
7.45291e-15
9.17774e-15
1.12639e-14
1.37779e-14
1.67966e-14
2.04079e-14
2.47125e-14
2.98246e-14
3.58733e-14
4.30037e-14
5.1378e-14
6.11766e-14
7.25986e-14
8.58629e-14
1.01208e-13
1.18894e-13
1.39199e-13
1.62421e-13
1.88876e-13
2.18897e-13
2.52831e-13
2.91036e-13
3.33878e-13
3.81727e-13
4.34951e-13
4.93911e-13
5.58956e-13
6.30413e-13
7.0858e-13
7.93723e-13
8.8606e-13
9.85758e-13
1.09292e-12
1.20758e-12
1.3297e-12
1.45913e-12
1.59567e-12
1.73897e-12
1.88862e-12
2.04406e-12
2.20467e-12
2.36967e-12
2.5382e-12
2.70929e-12
2.88188e-12
3.05481e-12
3.22684e-12
3.39668e-12
3.56299e-12
3.72437e-12
3.87944e-12
4.0268e-12
4.16509e-12
4.29299e-12
4.40924e-12
4.51268e-12
4.60225e-12
4.67701e-12
4.73616e-12
4.77908e-12
4.80529e-12
4.8145e-12
4.80661e-12
4.78168e-12
4.74e-12
4.68201e-12
4.60833e-12
4.51977e-12
4.41729e-12
4.30198e-12
4.17505e-12
4.03785e-12
3.8918e-12
3.73838e-12
3.57913e-12
3.41562e-12
3.24941e-12
3.08208e-12
2.91516e-12
2.75013e-12
2.58844e-12
2.43143e-12
2.28038e-12
2.13648e-12
2.00083e-12
1.8744e-12
1.75808e-12
1.65263e-12
1.55874e-12
1.47696e-12
1.40773e-12
1.35143e-12
1.30829e-12
1.27846e-12
1.26201e-12
1.25889e-12
1.26896e-12
1.29201e-12
1.32771e-12
1.37565e-12
1.43534e-12
1.50618e-12
1.58748e-12
1.67848e-12
1.77831e-12
1.88601e-12
2.00056e-12
2.12083e-12