/*--------------------------------*- C++ -*----------------------------------*\
| =========                 |                                                 |
| \\      /  F ield         | OpenFOAM: The Open Source CFD Toolbox           |
|  \\    /   O peration     | Version:  v2012                                 |
|   \\  /    A nd           | Website:  www.openfoam.com                      |
|    \\/     M anipulation  |                                                 |
\*---------------------------------------------------------------------------*/
FoamFile
{
    version     2.0;
    format      ascii;
    class       volVectorField;
    location    "0";
    object      uRec;
}
// * * * * * * * * * * * * * * * * * * * * * * * * * * * * * * * * * * * * * //

dimensions      [0 1 -1 0 0 0 0];


internalField   nonuniform List<vector> 
4000
(
(1 7.80006e-16 0)
(1 1.44187e-15 0)
(1 -9.4399e-16 0)
(1 -8.20412e-16 0)
(1 1.41282e-15 0)
(1 -1.80851e-16 0)
(1 2.22266e-15 0)
(1 -1.77828e-15 0)
(1 2.63887e-15 0)
(1 1.70598e-15 0)
(1 -3.22035e-15 0)
(1 1.25538e-16 0)
(1 8.85828e-16 0)
(1 6.43758e-16 0)
(1 -4.34016e-16 0)
(1 5.60027e-16 0)
(1 -1.67631e-15 0)
(1 -1.29151e-15 0)
(1 1.55484e-15 0)
(1 9.4174e-16 0)
(1 1.82951e-16 0)
(1 2.38834e-15 0)
(1 -6.23772e-17 0)
(1 2.64411e-15 0)
(1 -1.61885e-16 0)
(1 -3.94335e-16 0)
(1 1.34653e-15 0)
(1 -1.87558e-15 0)
(1 -9.93147e-19 0)
(1 -5.75386e-16 0)
(1 1.20568e-15 0)
(1 2.19027e-15 0)
(1 -9.15065e-16 0)
(1 -8.50885e-16 0)
(1 4.57603e-16 0)
(1 -1.66771e-15 0)
(1 -1.3003e-15 0)
(1 8.34158e-16 0)
(1 2.48338e-15 0)
(1 -8.19928e-18 0)
(1 1.8989e-15 0)
(1 -1.62946e-15 0)
(1 -5.63808e-16 0)
(1 5.58423e-16 0)
(1 1.68043e-15 0)
(1 -1.41605e-15 0)
(1 1.15213e-15 0)
(1 3.19934e-16 0)
(1 7.31578e-17 0)
(1 7.09634e-17 0)
(1 -6.30459e-16 0)
(1 8.99381e-16 0)
(1 4.55816e-16 0)
(1 2.74897e-15 0)
(1 1.53944e-15 0)
(1 1.27548e-15 0)
(1 2.9073e-16 0)
(1 -4.35349e-16 0)
(1 6.90635e-16 0)
(1 1.99269e-15 0)
(1 -5.82803e-16 0)
(1 -1.70771e-15 0)
(1 -5.68289e-16 0)
(1 1.23111e-15 0)
(1 5.42028e-16 0)
(1 2.94032e-16 0)
(1 2.26701e-16 0)
(1 -6.85215e-16 0)
(1 1.02959e-15 0)
(1 -8.94971e-16 0)
(1 -3.53185e-16 0)
(1 5.37942e-16 0)
(1 -1.49508e-16 0)
(1 -5.19619e-16 0)
(1 -8.75279e-16 0)
(1 -1.66079e-15 0)
(1 -5.20932e-17 0)
(1 -2.54263e-16 0)
(1 6.82313e-16 0)
(1 1.15309e-15 0)
(1 5.66465e-16 0)
(1 1.80672e-15 0)
(1 -8.17087e-16 0)
(1 1.61287e-16 0)
(1 -1.26896e-15 0)
(1 -1.24368e-15 0)
(1 3.87474e-16 0)
(1 1.04167e-15 0)
(1 1.23313e-15 0)
(1 7.84198e-16 0)
(1 1.69054e-16 0)
(1 -8.09972e-16 0)
(1 1.16938e-15 0)
(1 1.751e-15 0)
(1 -7.97768e-16 0)
(1 -1.48527e-15 0)
(1 3.74421e-16 0)
(1 1.36866e-15 0)
(1 -2.78913e-16 0)
(1 -2.46259e-16 0)
(1 3.80964e-16 0)
(1 3.9932e-15 0)
(1 -1.14699e-15 0)
(1 -1.67358e-15 0)
(1 -2.51822e-16 0)
(1 1.1178e-15 0)
(1 2.42776e-15 0)
(1 -1.5121e-15 0)
(1 3.14275e-15 0)
(1 2.09655e-15 0)
(1 -5.85277e-16 0)
(1 1.11001e-16 0)
(1 5.7868e-16 0)
(1 -9.69349e-16 0)
(1 -1.32571e-15 0)
(1 2.64357e-15 0)
(1 -4.20346e-16 0)
(1 1.24416e-16 0)
(1 2.17052e-15 0)
(1 1.08051e-15 0)
(1 3.94738e-16 0)
(1 9.85192e-16 0)
(1 -6.71237e-16 0)
(1 1.98202e-15 0)
(1 9.68856e-17 0)
(1 9.23214e-16 0)
(1 3.50339e-15 0)
(1 -2.57517e-15 0)
(1 -2.77896e-16 0)
(1 9.48421e-16 0)
(1 -1.00691e-16 0)
(1 2.81169e-15 0)
(1 -1.41772e-15 0)
(1 -9.55624e-16 0)
(1 1.79545e-15 0)
(1 -1.50987e-15 0)
(1 4.1423e-16 0)
(1 3.16661e-15 0)
(1 1.83527e-15 0)
(1 -3.76883e-16 0)
(1 -4.48331e-16 0)
(1 -1.68868e-15 0)
(1 -1.69194e-15 0)
(1 6.19172e-17 0)
(1 1.29983e-15 0)
(1 -5.95285e-16 0)
(1 3.87837e-15 0)
(1 3.6419e-15 0)
(1 3.44716e-15 0)
(1 1.88654e-15 0)
(1 8.7336e-16 0)
(1 4.9288e-17 0)
(1 2.82225e-15 0)
(1 1.99686e-15 0)
(1 1.80948e-15 0)
(1 3.73951e-16 0)
(1 1.26493e-15 0)
(1 2.5251e-15 0)
(1 1.55492e-15 0)
(1 -8.63859e-16 0)
(1 6.52704e-16 0)
(1 5.98917e-16 0)
(1 -3.35006e-16 0)
(1 1.32006e-15 0)
(1 -1.18009e-16 0)
(1 1.5723e-15 0)
(1 -1.75864e-15 0)
(1 -1.74985e-15 0)
(1 1.48448e-15 0)
(1 -6.59329e-16 0)
(1 -1.03334e-15 0)
(1 3.54329e-16 0)
(1 1.43894e-15 0)
(1 -8.29016e-16 0)
(1 2.91104e-16 0)
(1 1.01117e-16 0)
(1 9.85389e-16 0)
(1 2.09214e-15 0)
(1 6.33978e-16 0)
(1 2.58863e-15 0)
(1 9.31302e-16 0)
(1 1.75453e-15 0)
(1 1.98623e-15 0)
(1 -9.24757e-16 0)
(1 -1.21484e-16 0)
(1 -1.35615e-15 0)
(1 -7.68012e-16 0)
(1 3.56176e-16 0)
(1 1.33514e-15 0)
(1 2.26434e-15 0)
(1 3.73229e-16 0)
(1 -1.32036e-15 0)
(1 3.03621e-15 0)
(1 2.3683e-15 0)
(1 -2.44815e-15 0)
(1 -1.58863e-15 0)
(1 1.38641e-15 0)
(1 4.29341e-16 0)
(1 -6.98335e-16 0)
(1 -6.68316e-16 0)
(1 -2.42436e-16 0)
(1 3.07237e-15 0)
(1 -2.83943e-16 0)
(1 -1.3076e-16 0)
(1 -3.87823e-16 0)
(1 1.41772e-15 0)
(1 2.61586e-15 0)
(1 5.50294e-15 0)
(1 -1.17993e-15 0)
(1 -6.58619e-16 0)
(1 1.63003e-15 0)
(1 2.84045e-15 0)
(1 2.33634e-15 0)
(1 -6.76204e-16 0)
(1 1.96989e-16 0)
(1 1.13604e-15 0)
(1 2.20185e-15 0)
(1 2.68897e-15 0)
(1 2.80483e-16 0)
(1 2.16355e-15 0)
(1 4.98921e-16 0)
(1 -1.46146e-15 0)
(1 -1.16513e-16 0)
(1 5.58176e-16 0)
(1 3.93923e-15 0)
(1 3.58332e-15 0)
(1 3.36151e-15 0)
(1 -2.37985e-15 0)
(1 -4.25359e-16 0)
(1 1.56966e-15 0)
(1 9.79622e-16 0)
(1 -9.74317e-16 0)
(1 8.69166e-16 0)
(1 1.67934e-15 0)
(1 2.60484e-16 0)
(1 4.26537e-16 0)
(1 -5.41978e-16 0)
(1 2.67947e-15 0)
(1 3.20351e-15 0)
(1 -1.71432e-15 0)
(1 -9.79609e-16 0)
(1 -7.52649e-17 0)
(1 -4.69411e-16 0)
(1 -8.2089e-16 0)
(1 3.60497e-16 0)
(1 8.44346e-16 0)
(1 1.45877e-15 0)
(1 4.98062e-15 0)
(1 6.14632e-15 0)
(1 4.14508e-15 0)
(1 4.46491e-15 0)
(1 1.73157e-15 0)
(1 3.84887e-15 0)
(1 -6.47141e-16 0)
(1 1.84031e-15 0)
(1 9.09456e-17 0)
(1 2.69837e-15 0)
(1 3.71681e-15 0)
(1 4.9638e-15 0)
(1 9.99516e-16 0)
(1 2.65042e-16 0)
(1 1.32084e-15 0)
(1 1.27087e-15 0)
(1 -1.41641e-15 0)
(1 -6.31645e-16 0)
(1 4.69721e-16 0)
(1 -9.11451e-16 0)
(1 5.40481e-16 0)
(1 2.34667e-15 0)
(1 1.02134e-15 0)
(1 1.13381e-15 0)
(1 5.00133e-16 0)
(1 3.40796e-17 0)
(1 -2.06041e-15 0)
(1 -2.69562e-17 0)
(1 2.49193e-16 0)
(1 7.58888e-16 0)
(1 1.4989e-15 0)
(1 1.88425e-15 0)
(1 5.54233e-16 0)
(1 -5.21887e-16 0)
(1 7.27705e-16 0)
(1 2.93365e-15 0)
(1 1.58387e-16 0)
(1 5.21781e-16 0)
(1 6.7215e-16 0)
(1 -1.17365e-15 0)
(1 1.09658e-16 0)
(1 6.28539e-16 0)
(1 2.84561e-15 0)
(1 1.1432e-15 0)
(1 7.62317e-16 0)
(1 3.80822e-16 0)
(1 2.15464e-15 0)
(1 -8.54795e-16 0)
(1 1.29537e-16 0)
(1 1.79695e-15 0)
(1 -1.93562e-15 0)
(1 1.63487e-16 0)
(1 -1.57351e-16 0)
(1 6.02735e-17 0)
(1 2.27138e-15 0)
(1 1.50368e-15 0)
(1 -7.33775e-16 0)
(1 1.79942e-15 0)
(1 -4.02574e-16 0)
(1 2.77173e-15 0)
(1 5.58519e-15 0)
(1 9.31457e-16 0)
(1 2.10228e-16 0)
(1 -4.67591e-16 0)
(1 4.80298e-15 0)
(1 2.5903e-17 0)
(1 6.11703e-16 0)
(1 5.12288e-15 0)
(1 -8.42386e-16 0)
(1 2.75432e-15 0)
(1 1.04929e-16 0)
(1 -1.27038e-15 0)
(1 5.4239e-15 0)
(1 -4.99509e-17 0)
(1 1.93128e-15 0)
(1 5.69447e-16 0)
(1 1.04623e-15 0)
(1 5.62252e-15 0)
(1 3.88221e-15 0)
(1 3.56074e-15 0)
(1 8.29917e-17 0)
(1 8.14255e-16 0)
(1 2.38253e-15 0)
(1 1.09761e-15 0)
(1 3.05996e-16 0)
(1 9.55164e-16 0)
(1 2.36398e-15 0)
(1 5.42401e-16 0)
(1 -1.21345e-16 0)
(1 -1.39148e-15 0)
(1 -7.34777e-16 0)
(1 3.46096e-15 0)
(1 1.27984e-15 0)
(1 2.73804e-15 0)
(1 4.66518e-16 0)
(1 -6.94272e-16 0)
(1 4.91777e-16 0)
(1 1.56537e-15 0)
(1 2.67028e-15 0)
(1 1.35811e-15 0)
(1 4.49219e-15 0)
(1 5.54861e-15 0)
(1 5.08698e-15 0)
(1 5.52572e-15 0)
(1 3.48938e-15 0)
(1 2.82361e-15 0)
(1 2.34622e-15 0)
(1 3.63492e-15 0)
(1 2.29773e-15 0)
(1 3.72341e-15 0)
(1 4.70411e-15 0)
(1 4.81399e-15 0)
(1 5.0694e-15 0)
(1 2.29295e-15 0)
(1 -1.18417e-15 0)
(1 -4.68344e-16 0)
(1 1.86319e-16 0)
(1 -1.12593e-15 0)
(1 3.6174e-16 0)
(1 -2.75759e-16 0)
(1 3.43264e-15 0)
(1 7.94619e-16 0)
(1 2.96912e-16 0)
(1 1.19272e-15 0)
(1 4.14195e-17 0)
(1 -4.40886e-16 0)
(1 -9.88072e-16 0)
(1 -1.59187e-15 0)
(1 6.35613e-16 0)
(1 3.15179e-15 0)
(1 1.15002e-15 0)
(1 3.19339e-15 0)
(1 2.45962e-15 0)
(1 -1.22508e-15 0)
(1 2.59576e-15 0)
(1 1.04785e-15 0)
(1 1.69975e-15 0)
(1 1.37411e-15 0)
(1 -4.10917e-16 0)
(1 1.24085e-15 0)
(1 1.52341e-16 0)
(1 1.63149e-15 0)
(1 2.31469e-15 0)
(1 3.4877e-16 0)
(1 2.26781e-15 0)
(1 7.82638e-16 0)
(1 2.17581e-15 0)
(1 1.74027e-15 0)
(1 8.01321e-16 0)
(1 8.12997e-16 0)
(1 7.01986e-16 0)
(1 -1.74144e-15 0)
(1 -1.70701e-15 0)
(1 8.48423e-16 0)
(1 -2.16639e-16 0)
(1 2.82922e-15 0)
(1 -8.38428e-16 0)
(1 8.42228e-16 0)
(1 2.2398e-15 0)
(1 1.38395e-15 0)
(1 1.70122e-15 0)
(1 6.45924e-15 0)
(1 4.00829e-15 0)
(1 2.8614e-15 0)
(1 4.46741e-15 0)
(1 -2.84032e-16 0)
(1 -1.17523e-15 0)
(1 2.36502e-15 0)
(1 2.31046e-15 0)
(1 5.07882e-15 0)
(1 3.46214e-15 0)
(1 1.2104e-15 0)
(1 3.56137e-16 0)
(1 4.17576e-16 0)
(1 2.44735e-15 0)
(1 2.96283e-15 0)
(1 3.77593e-15 0)
(1 1.15728e-16 0)
(1 2.62753e-16 0)
(1 -1.22564e-16 0)
(1 2.22686e-15 0)
(1 1.54161e-15 0)
(1 1.44307e-16 0)
(1 1.56176e-15 0)
(1 3.31025e-15 0)
(1 -6.00591e-16 0)
(1 3.9895e-15 0)
(1 -4.0255e-16 0)
(1 -1.1166e-15 0)
(1 5.21022e-16 0)
(1 -8.14599e-17 0)
(1 1.80825e-15 0)
(1 3.6958e-15 0)
(1 2.94616e-15 0)
(1 8.61478e-16 0)
(1 -1.48612e-15 0)
(1 1.11589e-15 0)
(1 2.58195e-16 0)
(1 4.85506e-15 0)
(1 5.4964e-15 0)
(1 7.50349e-15 0)
(1 5.43546e-15 0)
(1 4.28338e-15 0)
(1 4.17591e-15 0)
(1 2.75649e-15 0)
(1 2.22151e-15 0)
(1 4.35221e-15 0)
(1 4.41157e-15 0)
(1 3.84313e-15 0)
(1 3.17987e-15 0)
(1 3.61227e-15 0)
(1 8.00681e-16 0)
(1 1.08175e-15 0)
(1 4.86091e-15 0)
(1 1.1703e-15 0)
(1 1.64409e-15 0)
(1 1.33361e-15 0)
(1 1.22889e-15 0)
(1 1.61703e-15 0)
(1 1.34434e-15 0)
(1 3.26591e-15 0)
(1 -8.41027e-16 0)
(1 2.27412e-15 0)
(1 -2.60809e-16 0)
(1 -1.16957e-17 0)
(1 2.71507e-15 0)
(1 8.49245e-16 0)
(1 4.87953e-17 0)
(1 8.22813e-16 0)
(1 3.36026e-15 0)
(1 3.65611e-15 0)
(1 2.68166e-15 0)
(1 1.1879e-15 0)
(1 4.80798e-16 0)
(1 1.39513e-15 0)
(1 8.15512e-16 0)
(1 6.24825e-16 0)
(1 2.62171e-15 0)
(1 -9.07658e-17 0)
(1 2.01605e-15 0)
(1 9.00925e-16 0)
(1 7.20711e-16 0)
(1 1.71801e-15 0)
(1 1.14639e-15 0)
(1 1.31473e-15 0)
(1 3.10543e-15 0)
(1 1.40573e-15 0)
(1 3.41713e-15 0)
(1 1.58241e-15 0)
(1 1.84045e-16 0)
(1 1.25001e-15 0)
(1 -2.56017e-15 0)
(1 -1.04548e-15 0)
(1 3.00806e-16 0)
(1 -2.29637e-15 0)
(1 3.0062e-15 0)
(1 2.56543e-15 0)
(1 1.45741e-15 0)
(1 2.01628e-15 0)
(1 1.513e-15 0)
(1 3.88923e-15 0)
(1 4.24827e-15 0)
(1 4.57266e-15 0)
(1 5.89425e-15 0)
(1 3.41169e-15 0)
(1 4.21879e-16 0)
(1 1.73744e-15 0)
(1 1.2402e-15 0)
(1 3.00175e-15 0)
(1 1.5106e-15 0)
(1 2.83537e-15 0)
(1 1.62397e-15 0)
(1 -1.06341e-15 0)
(1 1.59798e-15 0)
(1 3.32092e-17 0)
(1 6.25354e-15 0)
(1 4.53826e-15 0)
(1 1.17e-15 0)
(1 3.28628e-15 0)
(1 1.41463e-15 0)
(1 1.16795e-15 0)
(1 -5.88629e-16 0)
(1 3.55016e-16 0)
(1 3.45457e-16 0)
(1 2.33741e-15 0)
(1 1.44987e-15 0)
(1 3.23429e-15 0)
(1 -1.70677e-15 0)
(1 1.91309e-15 0)
(1 3.53501e-15 0)
(1 3.7553e-15 0)
(1 1.22121e-15 0)
(1 1.71953e-15 0)
(1 2.8098e-15 0)
(1 2.37638e-15 0)
(1 -1.69852e-17 0)
(1 -5.16674e-16 0)
(1 2.70574e-15 0)
(1 4.47431e-15 0)
(1 4.1919e-15 0)
(1 6.70853e-15 0)
(1 7.44694e-15 0)
(1 6.1795e-15 0)
(1 3.3857e-15 0)
(1 3.76127e-15 0)
(1 5.10649e-15 0)
(1 5.53297e-15 0)
(1 3.6719e-15 0)
(1 4.15923e-15 0)
(1 4.96075e-15 0)
(1 4.83827e-15 0)
(1 4.07695e-15 0)
(1 5.77789e-15 0)
(1 3.74173e-15 0)
(1 8.65289e-16 0)
(1 6.12146e-16 0)
(1 3.5189e-16 0)
(1 2.84738e-15 0)
(1 2.3513e-15 0)
(1 5.12498e-15 0)
(1 2.2406e-15 0)
(1 1.7081e-15 0)
(1 9.83815e-16 0)
(1 2.07229e-15 0)
(1 2.04853e-15 0)
(1 3.16499e-15 0)
(1 5.22008e-16 0)
(1 2.1318e-17 0)
(1 4.29636e-16 0)
(1 1.98008e-15 0)
(1 4.76956e-15 0)
(1 1.56983e-15 0)
(1 1.72458e-16 0)
(1 1.43612e-15 0)
(1 2.6389e-15 0)
(1 1.04473e-15 0)
(1 2.60009e-15 0)
(1 1.44551e-15 0)
(1 6.96716e-16 0)
(1 5.53452e-16 0)
(1 -1.19028e-15 0)
(1 -4.50328e-16 0)
(1 1.43449e-15 0)
(1 2.28857e-15 0)
(1 1.89059e-15 0)
(1 3.53099e-15 0)
(1 3.82022e-15 0)
(1 5.23171e-15 0)
(1 3.45676e-15 0)
(1 1.24791e-15 0)
(1 -1.7118e-15 0)
(1 7.19269e-16 0)
(1 1.7437e-15 0)
(1 -5.90815e-16 0)
(1 1.28457e-16 0)
(1 3.29722e-15 0)
(1 6.21074e-16 0)
(1 3.6146e-15 0)
(1 -2.69637e-16 0)
(1 1.83963e-15 0)
(1 6.81282e-15 0)
(1 2.69918e-15 0)
(1 4.23379e-15 0)
(1 5.02104e-15 0)
(1 1.60552e-15 0)
(1 1.4222e-15 0)
(1 4.5536e-15 0)
(1 2.57092e-15 0)
(1 5.86693e-15 0)
(1 4.00175e-15 0)
(1 8.5923e-16 0)
(1 1.83563e-15 0)
(1 2.41365e-15 0)
(1 2.49885e-15 0)
(1 -3.98228e-15 0)
(1 4.62056e-15 0)
(1 -2.80243e-16 0)
(1 4.28408e-15 0)
(1 2.02909e-15 0)
(1 1.7917e-15 0)
(1 1.03045e-15 0)
(1 2.02534e-15 0)
(1 3.69495e-15 0)
(1 1.49726e-15 0)
(1 1.84349e-15 0)
(1 3.59834e-15 0)
(1 4.7779e-17 0)
(1 4.59015e-16 0)
(1 4.22071e-15 0)
(1 3.83074e-15 0)
(1 3.39717e-15 0)
(1 -1.56863e-15 0)
(1 2.39742e-15 0)
(1 1.04124e-15 0)
(1 1.31976e-15 0)
(1 3.01272e-15 0)
(1 2.16569e-15 0)
(1 4.12979e-15 0)
(1 5.23929e-15 0)
(1 6.46564e-15 0)
(1 4.40411e-15 0)
(1 5.1871e-15 0)
(1 6.22175e-15 0)
(1 4.494e-15 0)
(1 4.48189e-15 0)
(1 5.9281e-15 0)
(1 6.68283e-15 0)
(1 4.06358e-15 0)
(1 3.63434e-15 0)
(1 4.31225e-15 0)
(1 5.35824e-15 0)
(1 5.5211e-15 0)
(1 5.63389e-15 0)
(1 1.39699e-15 0)
(1 2.88917e-15 0)
(1 1.39313e-15 0)
(1 2.19738e-15 0)
(1 1.35449e-15 0)
(1 4.96937e-16 0)
(1 8.95748e-16 0)
(1 3.13908e-15 0)
(1 3.12671e-15 0)
(1 2.65283e-16 0)
(1 4.38972e-15 0)
(1 4.02574e-15 0)
(1 1.01228e-15 0)
(1 5.43027e-16 0)
(1 5.01038e-16 0)
(1 3.74069e-15 0)
(1 1.83149e-15 0)
(1 3.9142e-15 0)
(1 2.75798e-15 0)
(1 2.30716e-15 0)
(1 2.82375e-15 0)
(1 2.84437e-15 0)
(1 2.82117e-15 0)
(1 2.66277e-15 0)
(1 1.66938e-15 0)
(1 2.80866e-15 0)
(1 9.95828e-16 0)
(1 1.84071e-15 0)
(1 2.14084e-15 0)
(1 1.37464e-15 0)
(1 1.86816e-15 0)
(1 3.09784e-15 0)
(1 4.26547e-15 0)
(1 4.18146e-15 0)
(1 2.74875e-15 0)
(1 3.90851e-15 0)
(1 1.00284e-15 0)
(1 2.21913e-17 0)
(1 2.00363e-15 0)
(1 8.87454e-16 0)
(1 -5.98439e-16 0)
(1 6.2395e-16 0)
(1 3.17503e-16 0)
(1 1.27707e-15 0)
(1 3.40468e-15 0)
(1 2.84535e-15 0)
(1 1.24527e-15 0)
(1 3.97496e-15 0)
(1 6.61356e-15 0)
(1 7.60794e-15 0)
(1 4.9697e-15 0)
(1 -1.21172e-15 0)
(1 3.86766e-15 0)
(1 1.63319e-15 0)
(1 3.29193e-15 0)
(1 5.99647e-15 0)
(1 4.63411e-15 0)
(1 6.69595e-15 0)
(1 4.5408e-15 0)
(1 -6.1218e-16 0)
(1 7.40521e-16 0)
(1 -2.89369e-15 0)
(1 9.92926e-16 0)
(1 1.00722e-15 0)
(1 1.02774e-15 0)
(1 -3.15976e-15 0)
(1 -1.78425e-15 0)
(1 1.05496e-15 0)
(1 3.38872e-15 0)
(1 4.9255e-15 0)
(1 8.27511e-15 0)
(1 2.53902e-15 0)
(1 3.0209e-15 0)
(1 -5.9551e-16 0)
(1 1.30593e-15 0)
(1 1.3817e-15 0)
(1 1.18918e-15 0)
(1 2.07529e-15 0)
(1 2.77206e-15 0)
(1 5.74656e-15 0)
(1 1.92774e-15 0)
(1 2.13577e-15 0)
(1 4.8606e-15 0)
(1 2.04256e-15 0)
(1 1.75826e-15 0)
(1 6.12941e-15 0)
(1 7.99353e-15 0)
(1 7.05685e-15 0)
(1 2.69385e-15 0)
(1 5.06665e-15 0)
(1 7.19273e-15 0)
(1 5.80782e-15 0)
(1 2.57228e-15 0)
(1 6.44932e-15 0)
(1 7.71269e-15 0)
(1 8.77692e-15 0)
(1 4.54873e-15 0)
(1 3.12644e-15 0)
(1 5.68892e-15 0)
(1 1.60369e-15 0)
(1 -1.01455e-15 0)
(1 4.47991e-15 0)
(1 5.94841e-15 0)
(1 5.64729e-15 0)
(1 2.36263e-15 0)
(1 2.91976e-15 0)
(1 3.09886e-15 0)
(1 1.05179e-15 0)
(1 3.29435e-15 0)
(1 3.46068e-15 0)
(1 4.04217e-15 0)
(1 2.78977e-15 0)
(1 2.00646e-15 0)
(1 3.61873e-16 0)
(1 1.54968e-15 0)
(1 4.86648e-15 0)
(1 2.84866e-15 0)
(1 1.38922e-15 0)
(1 1.36846e-15 0)
(1 7.8553e-16 0)
(1 3.75845e-15 0)
(1 1.43881e-15 0)
(1 3.5187e-15 0)
(1 3.52605e-15 0)
(1 -2.6911e-16 0)
(1 2.3235e-15 0)
(1 2.59998e-15 0)
(1 3.90101e-15 0)
(1 3.59571e-15 0)
(1 -8.32157e-16 0)
(1 1.0306e-15 0)
(1 3.70229e-15 0)
(1 3.8728e-15 0)
(1 4.40209e-15 0)
(1 3.72951e-15 0)
(1 3.93676e-15 0)
(1 -1.00449e-16 0)
(1 3.83793e-16 0)
(1 2.25301e-15 0)
(1 1.91342e-15 0)
(1 -1.52617e-16 0)
(1 2.50996e-16 0)
(1 -6.29018e-16 0)
(1 2.03614e-15 0)
(1 1.41801e-15 0)
(1 5.46675e-15 0)
(1 2.20473e-15 0)
(1 2.86876e-16 0)
(1 5.78909e-15 0)
(1 4.22964e-15 0)
(1 3.99471e-15 0)
(1 2.16144e-15 0)
(1 3.13017e-15 0)
(1 4.45191e-15 0)
(1 4.97987e-15 0)
(1 5.06523e-15 0)
(1 3.21804e-15 0)
(1 5.23362e-15 0)
(1 5.74247e-15 0)
(1 1.04295e-16 0)
(1 -2.90463e-15 0)
(1 1.10588e-15 0)
(1 -2.42964e-16 0)
(1 2.71621e-15 0)
(1 1.25982e-15 0)
(1 -1.24287e-15 0)
(1 1.78959e-15 0)
(1 -7.11102e-16 0)
(1 1.21338e-15 0)
(1 4.60155e-15 0)
(1 5.48661e-15 0)
(1 1.53685e-15 0)
(1 3.35431e-15 0)
(1 1.88986e-15 0)
(1 6.60333e-16 0)
(1 1.51162e-15 0)
(1 1.88388e-15 0)
(1 4.51151e-15 0)
(1 4.29038e-15 0)
(1 4.02289e-15 0)
(1 1.52471e-15 0)
(1 3.58882e-15 0)
(1 4.59022e-15 0)
(1 3.23517e-15 0)
(1 6.28766e-15 0)
(1 2.55351e-15 0)
(1 5.95471e-15 0)
(1 5.54892e-15 0)
(1 2.67325e-15 0)
(1 4.7595e-15 0)
(1 5.98874e-15 0)
(1 7.54488e-15 0)
(1 4.33345e-15 0)
(1 7.67753e-15 0)
(1 9.51306e-15 0)
(1 8.1599e-15 0)
(1 7.59494e-15 0)
(1 3.01611e-15 0)
(1 6.97234e-15 0)
(1 3.15562e-15 0)
(1 4.73933e-15 0)
(1 3.6765e-15 0)
(1 2.54206e-15 0)
(1 5.99639e-15 0)
(1 -1.40826e-15 0)
(1 3.76113e-15 0)
(1 3.12218e-15 0)
(1 -1.02636e-16 0)
(1 6.64848e-15 0)
(1 5.09584e-15 0)
(1 5.48167e-15 0)
(1 1.27982e-15 0)
(1 3.16835e-15 0)
(1 1.50592e-15 0)
(1 1.46158e-15 0)
(1 4.23772e-15 0)
(1 2.69557e-15 0)
(1 2.53163e-15 0)
(1 1.82237e-15 0)
(1 4.77691e-15 0)
(1 4.37796e-15 0)
(1 4.72176e-15 0)
(1 2.0934e-15 0)
(1 3.43475e-15 0)
(1 -3.29654e-16 0)
(1 1.84879e-16 0)
(1 9.37942e-16 0)
(1 2.33982e-15 0)
(1 2.56014e-15 0)
(1 2.18499e-15 0)
(1 1.85234e-15 0)
(1 3.58904e-15 0)
(1 4.10496e-15 0)
(1 5.75874e-15 0)
(1 5.52317e-15 0)
(1 4.31479e-15 0)
(1 2.08207e-15 0)
(1 9.48042e-16 0)
(1 3.71967e-15 0)
(1 3.78047e-15 0)
(1 4.22195e-16 0)
(1 7.55262e-16 0)
(1 2.10821e-15 0)
(1 -3.06588e-17 0)
(1 2.70672e-15 0)
(1 3.84138e-16 0)
(1 4.08223e-15 0)
(1 3.39681e-15 0)
(1 4.22234e-15 0)
(1 4.27178e-15 0)
(1 3.01419e-15 0)
(1 9.17698e-15 0)
(1 4.62633e-15 0)
(1 4.92229e-15 0)
(1 3.87854e-15 0)
(1 2.00602e-15 0)
(1 1.07541e-15 0)
(1 2.78736e-15 0)
(1 2.94044e-15 0)
(1 5.01255e-15 0)
(1 7.34815e-16 0)
(1 1.85861e-15 0)
(1 -3.33272e-15 0)
(1 2.93193e-16 0)
(1 2.78977e-15 0)
(1 3.54087e-15 0)
(1 6.92411e-16 0)
(1 9.43167e-16 0)
(1 2.81507e-15 0)
(1 8.41516e-16 0)
(1 1.89314e-16 0)
(1 4.21956e-15 0)
(1 3.40283e-15 0)
(1 4.28174e-15 0)
(1 3.84392e-15 0)
(1 2.11564e-15 0)
(1 -5.9006e-16 0)
(1 1.82002e-15 0)
(1 8.38248e-16 0)
(1 2.29157e-16 0)
(1 1.57238e-15 0)
(1 4.89402e-15 0)
(1 5.15877e-15 0)
(1 5.77909e-15 0)
(1 8.2502e-15 0)
(1 4.02547e-15 0)
(1 4.58026e-15 0)
(1 4.42965e-15 0)
(1 5.2522e-15 0)
(1 6.40477e-15 0)
(1 3.60833e-15 0)
(1 3.60868e-15 0)
(1 6.9204e-15 0)
(1 8.107e-15 0)
(1 9.78453e-15 0)
(1 7.09614e-15 0)
(1 4.83912e-15 0)
(1 1.85074e-15 0)
(1 5.33398e-15 0)
(1 5.60651e-15 0)
(1 6.80448e-15 0)
(1 6.86484e-15 0)
(1 3.53611e-15 0)
(1 3.58878e-15 0)
(1 4.06009e-15 0)
(1 1.39466e-15 0)
(1 3.26384e-15 0)
(1 3.13946e-15 0)
(1 5.12127e-15 0)
(1 5.11687e-15 0)
(1 5.51631e-15 0)
(1 3.14557e-15 0)
(1 2.06717e-15 0)
(1 2.20521e-15 0)
(1 2.78652e-15 0)
(1 2.67524e-15 0)
(1 3.31266e-15 0)
(1 2.04004e-15 0)
(1 3.41124e-15 0)
(1 3.32142e-15 0)
(1 4.35625e-15 0)
(1 3.98133e-15 0)
(1 2.3599e-15 0)
(1 2.83135e-15 0)
(1 1.02357e-15 0)
(1 7.69958e-16 0)
(1 2.91716e-15 0)
(1 3.35339e-15 0)
(1 1.41525e-15 0)
(1 2.45419e-15 0)
(1 5.04562e-15 0)
(1 2.48454e-15 0)
(1 4.35713e-15 0)
(1 1.55911e-15 0)
(1 6.88941e-15 0)
(1 3.14441e-15 0)
(1 2.70934e-15 0)
(1 3.74588e-15 0)
(1 3.63746e-15 0)
(1 3.7945e-15 0)
(1 3.93091e-17 0)
(1 2.86182e-16 0)
(1 1.93962e-15 0)
(1 2.85776e-15 0)
(1 7.41363e-16 0)
(1 -8.37208e-16 0)
(1 4.59898e-15 0)
(1 3.44082e-15 0)
(1 5.32805e-15 0)
(1 6.5544e-15 0)
(1 2.47223e-15 0)
(1 6.70007e-15 0)
(1 2.7092e-15 0)
(1 3.4401e-15 0)
(1 1.87226e-15 0)
(1 -6.67089e-16 0)
(1 2.26671e-15 0)
(1 3.63461e-15 0)
(1 4.41026e-15 0)
(1 4.33212e-15 0)
(1 -2.82047e-16 0)
(1 7.69624e-16 0)
(1 -2.81138e-15 0)
(1 1.69609e-15 0)
(1 -1.5848e-15 0)
(1 8.21175e-15 0)
(1 5.7099e-15 0)
(1 5.66564e-15 0)
(1 3.19269e-15 0)
(1 -1.98862e-15 0)
(1 -1.64531e-15 0)
(1 2.68462e-15 0)
(1 1.25844e-15 0)
(1 2.59485e-15 0)
(1 4.30352e-15 0)
(1 7.49332e-16 0)
(1 1.7561e-15 0)
(1 -1.28841e-15 0)
(1 1.52644e-16 0)
(1 1.31888e-15 0)
(1 6.42018e-15 0)
(1 4.90682e-15 0)
(1 3.93123e-15 0)
(1 3.65036e-15 0)
(1 5.66999e-15 0)
(1 5.70603e-15 0)
(1 4.37388e-15 0)
(1 4.95789e-15 0)
(1 8.99396e-15 0)
(1 6.32782e-15 0)
(1 4.91952e-15 0)
(1 5.27242e-15 0)
(1 8.08203e-15 0)
(1 8.9143e-15 0)
(1 8.79587e-15 0)
(1 7.02773e-15 0)
(1 6.46844e-15 0)
(1 4.07448e-15 0)
(1 6.16068e-15 0)
(1 4.52595e-15 0)
(1 5.53887e-15 0)
(1 5.24126e-15 0)
(1 4.52627e-15 0)
(1 2.99685e-15 0)
(1 6.17866e-15 0)
(1 3.78107e-15 0)
(1 3.01165e-15 0)
(1 3.85746e-15 0)
(1 -1.58767e-15 0)
(1 1.4596e-15 0)
(1 3.42484e-15 0)
(1 5.30038e-15 0)
(1 3.68709e-15 0)
(1 3.11482e-15 0)
(1 1.69282e-15 0)
(1 -6.8814e-16 0)
(1 5.68084e-15 0)
(1 1.93422e-15 0)
(1 5.58821e-16 0)
(1 3.30426e-15 0)
(1 5.80965e-15 0)
(1 4.81419e-15 0)
(1 8.02451e-15 0)
(1 2.77749e-15 0)
(1 1.60277e-15 0)
(1 2.74064e-15 0)
(1 3.04648e-15 0)
(1 1.7568e-16 0)
(1 9.48574e-16 0)
(1 -2.75097e-16 0)
(1 7.18367e-15 0)
(1 2.38871e-15 0)
(1 3.4032e-15 0)
(1 2.72625e-15 0)
(1 4.67394e-15 0)
(1 4.76961e-15 0)
(1 3.65727e-15 0)
(1 5.14021e-15 0)
(1 1.61687e-15 0)
(1 2.07498e-15 0)
(1 -3.55462e-16 0)
(1 1.3674e-15 0)
(1 9.85559e-16 0)
(1 3.6657e-15 0)
(1 -9.27212e-16 0)
(1 3.60176e-15 0)
(1 7.05723e-16 0)
(1 3.60393e-15 0)
(1 4.55865e-15 0)
(1 5.43208e-15 0)
(1 5.07739e-15 0)
(1 7.57444e-16 0)
(1 1.38238e-15 0)
(1 3.40991e-15 0)
(1 5.01191e-15 0)
(1 2.75767e-15 0)
(1 3.36868e-15 0)
(1 2.49506e-16 0)
(1 5.29031e-15 0)
(1 2.2904e-15 0)
(1 2.19752e-16 0)
(1 2.48719e-15 0)
(1 1.83116e-15 0)
(1 7.87318e-17 0)
(1 1.60103e-15 0)
(1 1.34345e-15 0)
(1 4.38731e-15 0)
(1 3.53139e-15 0)
(1 3.42674e-15 0)
(1 1.40805e-16 0)
(1 2.17963e-15 0)
(1 2.72157e-15 0)
(1 -5.78242e-16 0)
(1 -8.02899e-16 0)
(1 -4.76078e-16 0)
(1 1.37765e-15 0)
(1 3.16152e-15 0)
(1 -1.01192e-15 0)
(1 2.36516e-15 0)
(1 3.00622e-15 0)
(1 6.13325e-15 0)
(1 3.41323e-15 0)
(1 7.78061e-16 0)
(1 5.09742e-15 0)
(1 7.12532e-15 0)
(1 5.00389e-15 0)
(1 6.50166e-15 0)
(1 2.48788e-15 0)
(1 6.87375e-15 0)
(1 6.68966e-15 0)
(1 5.92296e-15 0)
(1 6.98117e-15 0)
(1 7.30975e-15 0)
(1 7.76837e-15 0)
(1 6.94657e-15 0)
(1 1.57652e-15 0)
(1 5.20719e-15 0)
(1 5.58519e-15 0)
(1 5.93939e-15 0)
(1 4.18417e-15 0)
(1 7.41828e-15 0)
(1 6.30626e-15 0)
(1 7.89233e-15 0)
(1 4.79011e-15 0)
(1 2.52664e-15 0)
(1 3.7087e-15 0)
(1 1.58992e-15 0)
(1 2.71107e-15 0)
(1 1.85576e-15 0)
(1 7.84995e-16 0)
(1 4.79967e-15 0)
(1 3.88933e-15 0)
(1 2.73865e-16 0)
(1 2.36462e-15 0)
(1 3.49689e-15 0)
(1 3.82323e-16 0)
(1 3.00792e-15 0)
(1 1.90314e-15 0)
(1 1.48362e-15 0)
(1 5.12775e-15 0)
(1 6.37742e-15 0)
(1 4.22855e-15 0)
(1 5.71137e-15 0)
(1 1.17842e-15 0)
(1 3.06863e-15 0)
(1 4.8566e-15 0)
(1 9.34255e-16 0)
(1 5.46996e-16 0)
(1 2.36829e-15 0)
(1 5.6097e-15 0)
(1 5.85128e-15 0)
(1 3.11358e-15 0)
(1 1.39979e-15 0)
(1 3.68296e-15 0)
(1 2.45256e-15 0)
(1 6.17534e-15 0)
(1 4.91086e-15 0)
(1 4.80655e-15 0)
(1 1.46567e-15 0)
(1 1.60936e-16 0)
(1 5.12305e-16 0)
(1 1.21004e-15 0)
(1 5.13478e-16 0)
(1 6.14393e-16 0)
(1 3.10393e-15 0)
(1 2.31059e-15 0)
(1 2.54793e-15 0)
(1 3.29259e-15 0)
(1 2.05888e-15 0)
(1 5.39934e-15 0)
(1 7.09232e-15 0)
(1 2.01405e-15 0)
(1 1.72262e-15 0)
(1 1.21555e-15 0)
(1 4.28846e-15 0)
(1 1.2258e-15 0)
(1 6.34812e-16 0)
(1 2.45958e-16 0)
(1 4.45013e-15 0)
(1 3.09994e-15 0)
(1 5.95608e-15 0)
(1 6.07492e-15 0)
(1 1.39564e-15 0)
(1 -4.27565e-15 0)
(1 6.31103e-15 0)
(1 2.1323e-16 0)
(1 -1.02888e-15 0)
(1 -2.2029e-16 0)
(1 1.96054e-15 0)
(1 3.01319e-15 0)
(1 5.50118e-16 0)
(1 2.07768e-15 0)
(1 -1.22457e-15 0)
(1 -1.2116e-15 0)
(1 3.69051e-15 0)
(1 1.76259e-15 0)
(1 3.37751e-15 0)
(1 -4.1404e-16 0)
(1 2.07967e-15 0)
(1 3.96005e-15 0)
(1 3.95343e-15 0)
(1 4.27958e-15 0)
(1 3.84303e-16 0)
(1 5.18434e-15 0)
(1 3.17638e-15 0)
(1 6.98595e-15 0)
(1 7.21047e-15 0)
(1 5.02452e-15 0)
(1 2.79693e-15 0)
(1 5.57004e-15 0)
(1 6.87861e-15 0)
(1 5.84919e-15 0)
(1 9.43863e-15 0)
(1 8.686e-15 0)
(1 6.32832e-15 0)
(1 6.9149e-15 0)
(1 4.63187e-15 0)
(1 7.24854e-15 0)
(1 1.27031e-15 0)
(1 3.92087e-15 0)
(1 2.50198e-15 0)
(1 4.67811e-15 0)
(1 5.18227e-15 0)
(1 5.27707e-15 0)
(1 5.19521e-15 0)
(1 3.86384e-15 0)
(1 4.91149e-15 0)
(1 3.31861e-15 0)
(1 2.56281e-15 0)
(1 1.88999e-15 0)
(1 -1.6379e-15 0)
(1 1.65007e-15 0)
(1 2.24596e-15 0)
(1 3.26685e-15 0)
(1 3.71988e-15 0)
(1 3.42232e-15 0)
(1 5.48412e-16 0)
(1 2.63729e-15 0)
(1 5.91107e-15 0)
(1 2.86969e-15 0)
(1 2.0265e-15 0)
(1 1.25382e-15 0)
(1 2.0613e-15 0)
(1 2.82786e-15 0)
(1 4.27855e-15 0)
(1 3.94325e-15 0)
(1 2.28475e-15 0)
(1 4.32468e-15 0)
(1 3.50593e-15 0)
(1 6.40239e-15 0)
(1 2.18799e-15 0)
(1 3.1207e-15 0)
(1 3.74439e-15 0)
(1 1.62238e-15 0)
(1 3.95889e-15 0)
(1 4.73545e-15 0)
(1 1.78445e-15 0)
(1 2.24337e-15 0)
(1 1.00103e-15 0)
(1 -3.26044e-16 0)
(1 5.10868e-16 0)
(1 7.32368e-16 0)
(1 -1.82733e-16 0)
(1 1.85103e-15 0)
(1 3.64914e-15 0)
(1 4.26199e-15 0)
(1 3.65575e-15 0)
(1 1.54687e-15 0)
(1 5.40536e-17 0)
(1 2.27695e-15 0)
(1 4.68691e-15 0)
(1 5.14047e-15 0)
(1 3.67483e-15 0)
(1 2.18439e-15 0)
(1 3.15937e-16 0)
(1 2.32497e-15 0)
(1 4.77654e-16 0)
(1 2.94886e-15 0)
(1 -4.06639e-16 0)
(1 1.14956e-15 0)
(1 5.22803e-15 0)
(1 5.04469e-15 0)
(1 3.28966e-15 0)
(1 -3.3811e-16 0)
(1 -8.52079e-17 0)
(1 2.50058e-15 0)
(1 2.33042e-15 0)
(1 -7.50368e-17 0)
(1 3.74519e-15 0)
(1 2.48225e-15 0)
(1 9.43069e-16 0)
(1 -3.31441e-15 0)
(1 4.53623e-16 0)
(1 1.75191e-15 0)
(1 -5.21098e-16 0)
(1 -1.35543e-15 0)
(1 2.68359e-15 0)
(1 -4.67615e-16 0)
(1 3.87827e-15 0)
(1 1.97282e-15 0)
(1 1.59495e-15 0)
(1 1.9993e-15 0)
(1 7.9757e-15 0)
(1 6.9589e-15 0)
(1 3.48439e-15 0)
(1 6.79169e-15 0)
(1 2.17117e-15 0)
(1 8.57629e-15 0)
(1 2.39224e-15 0)
(1 2.75452e-15 0)
(1 1.9493e-15 0)
(1 3.17917e-15 0)
(1 8.41036e-15 0)
(1 9.37908e-15 0)
(1 4.37826e-15 0)
(1 9.68941e-15 0)
(1 6.00448e-15 0)
(1 5.96292e-15 0)
(1 3.57576e-15 0)
(1 3.84933e-15 0)
(1 3.5047e-15 0)
(1 2.62352e-15 0)
(1 2.08229e-15 0)
(1 6.04232e-15 0)
(1 4.72763e-15 0)
(1 3.60967e-15 0)
(1 4.35891e-15 0)
(1 4.15279e-15 0)
(1 1.91401e-15 0)
(1 2.40982e-15 0)
(1 -8.6969e-16 0)
(1 4.98865e-15 0)
(1 4.89529e-15 0)
(1 3.45404e-15 0)
(1 1.83477e-15 0)
(1 4.71284e-15 0)
(1 1.93067e-15 0)
(1 4.55665e-15 0)
(1 3.56418e-15 0)
(1 -5.53928e-16 0)
(1 2.37825e-15 0)
(1 3.27469e-15 0)
(1 6.02209e-16 0)
(1 4.15947e-15 0)
(1 3.81107e-15 0)
(1 2.46166e-15 0)
(1 1.79394e-15 0)
(1 4.74655e-15 0)
(1 4.65131e-15 0)
(1 4.46345e-15 0)
(1 3.4604e-15 0)
(1 2.65434e-15 0)
(1 4.05518e-15 0)
(1 5.13126e-15 0)
(1 3.05409e-15 0)
(1 3.47083e-15 0)
(1 1.22193e-15 0)
(1 4.19045e-15 0)
(1 6.05842e-16 0)
(1 -1.84303e-15 0)
(1 8.33529e-18 0)
(1 2.44064e-15 0)
(1 6.73995e-16 0)
(1 3.91635e-15 0)
(1 1.11156e-15 0)
(1 4.37633e-15 0)
(1 -1.56532e-16 0)
(1 1.87193e-15 0)
(1 3.49338e-15 0)
(1 2.73668e-16 0)
(1 5.34839e-15 0)
(1 5.03116e-15 0)
(1 4.8388e-15 0)
(1 -1.8135e-15 0)
(1 -2.37168e-15 0)
(1 3.11197e-15 0)
(1 -3.29509e-15 0)
(1 6.51919e-15 0)
(1 -7.65405e-19 0)
(1 4.0524e-15 0)
(1 6.45046e-15 0)
(1 4.47264e-16 0)
(1 2.89735e-15 0)
(1 2.33747e-15 0)
(1 -2.51534e-15 0)
(1 -1.91781e-15 0)
(1 -7.81646e-16 0)
(1 1.40609e-15 0)
(1 2.33485e-15 0)
(1 3.76872e-16 0)
(1 6.29623e-17 0)
(1 4.14638e-16 0)
(1 1.22985e-15 0)
(1 7.0101e-16 0)
(1 -1.52165e-16 0)
(1 1.34265e-15 0)
(1 -2.08973e-15 0)
(1 1.02155e-15 0)
(1 3.43372e-15 0)
(1 6.10354e-16 0)
(1 5.76458e-16 0)
(1 1.96832e-15 0)
(1 8.7079e-15 0)
(1 4.49913e-15 0)
(1 6.33248e-15 0)
(1 4.32719e-15 0)
(1 -1.06793e-15 0)
(1 5.59533e-15 0)
(1 2.51344e-15 0)
(1 7.22607e-16 0)
(1 2.307e-15 0)
(1 5.80546e-15 0)
(1 7.57849e-15 0)
(1 7.55251e-15 0)
(1 7.11257e-15 0)
(1 8.25116e-15 0)
(1 5.05942e-15 0)
(1 6.53838e-15 0)
(1 5.78685e-15 0)
(1 3.80661e-15 0)
(1 5.40054e-15 0)
(1 1.82782e-15 0)
(1 5.12333e-15 0)
(1 3.46582e-15 0)
(1 5.55254e-15 0)
(1 5.04035e-15 0)
(1 4.68174e-15 0)
(1 3.40826e-15 0)
(1 3.75655e-15 0)
(1 2.63012e-15 0)
(1 4.27619e-15 0)
(1 2.69935e-15 0)
(1 1.69411e-15 0)
(1 2.5332e-15 0)
(1 1.20282e-15 0)
(1 3.01369e-15 0)
(1 2.09814e-15 0)
(1 5.11548e-15 0)
(1 1.51573e-15 0)
(1 -1.6213e-15 0)
(1 2.79442e-15 0)
(1 3.4754e-15 0)
(1 8.43125e-16 0)
(1 3.71541e-15 0)
(1 2.63952e-15 0)
(1 2.18893e-15 0)
(1 1.65854e-15 0)
(1 5.03046e-15 0)
(1 3.93535e-15 0)
(1 2.0001e-15 0)
(1 3.15587e-15 0)
(1 2.15033e-15 0)
(1 3.8061e-15 0)
(1 4.75647e-15 0)
(1 4.53245e-15 0)
(1 1.86172e-15 0)
(1 -5.63566e-18 0)
(1 2.79803e-15 0)
(1 2.31187e-15 0)
(1 1.3743e-15 0)
(1 -5.12819e-17 0)
(1 2.32068e-15 0)
(1 1.72746e-15 0)
(1 1.43035e-15 0)
(1 2.87365e-15 0)
(1 3.25207e-15 0)
(1 2.47677e-15 0)
(1 2.34975e-15 0)
(1 3.89455e-15 0)
(1 1.82148e-15 0)
(1 4.10257e-16 0)
(1 1.36491e-15 0)
(1 3.19799e-15 0)
(1 1.16772e-15 0)
(1 4.89844e-16 0)
(1 9.41362e-16 0)
(1 -1.21815e-15 0)
(1 2.36372e-15 0)
(1 4.97762e-15 0)
(1 1.85143e-15 0)
(1 4.06728e-16 0)
(1 -4.49978e-17 0)
(1 2.41987e-15 0)
(1 2.46175e-15 0)
(1 -1.35193e-15 0)
(1 -6.36293e-16 0)
(1 1.0057e-15 0)
(1 4.4954e-15 0)
(1 -2.5955e-15 0)
(1 -1.51872e-16 0)
(1 -1.94217e-15 0)
(1 1.1176e-15 0)
(1 1.67138e-16 0)
(1 -1.71245e-15 0)
(1 8.49375e-16 0)
(1 2.12723e-17 0)
(1 -1.26885e-15 0)
(1 6.42046e-16 0)
(1 -2.04534e-16 0)
(1 1.39354e-15 0)
(1 2.76449e-15 0)
(1 5.00092e-15 0)
(1 2.48677e-15 0)
(1 4.67219e-15 0)
(1 3.44998e-15 0)
(1 2.56191e-15 0)
(1 3.82627e-15 0)
(1 1.78989e-15 0)
(1 5.63419e-16 0)
(1 -3.26115e-15 0)
(1 4.73119e-15 0)
(1 8.85285e-15 0)
(1 8.46057e-15 0)
(1 5.80837e-15 0)
(1 8.94214e-15 0)
(1 7.68624e-15 0)
(1 4.4921e-15 0)
(1 4.75047e-15 0)
(1 3.07167e-15 0)
(1 2.52005e-15 0)
(1 2.22819e-15 0)
(1 3.00366e-15 0)
(1 3.20108e-15 0)
(1 -9.70755e-16 0)
(1 5.80735e-15 0)
(1 4.38479e-15 0)
(1 4.19288e-15 0)
(1 3.49581e-15 0)
(1 3.12598e-15 0)
(1 2.60512e-15 0)
(1 2.08049e-15 0)
(1 -1.3202e-15 0)
(1 1.02343e-15 0)
(1 4.14869e-15 0)
(1 1.46736e-15 0)
(1 2.00497e-15 0)
(1 1.91704e-15 0)
(1 2.77295e-15 0)
(1 1.45128e-15 0)
(1 3.06736e-15 0)
(1 -2.84312e-16 0)
(1 -1.00937e-16 0)
(1 3.61991e-15 0)
(1 2.33848e-15 0)
(1 2.10096e-15 0)
(1 1.53859e-15 0)
(1 3.3151e-15 0)
(1 5.56888e-15 0)
(1 5.15542e-15 0)
(1 2.88777e-15 0)
(1 2.54643e-15 0)
(1 3.29271e-15 0)
(1 3.59602e-15 0)
(1 3.43731e-15 0)
(1 2.63005e-15 0)
(1 1.83336e-16 0)
(1 1.61352e-15 0)
(1 -1.3097e-16 0)
(1 2.37087e-15 0)
(1 3.10332e-15 0)
(1 -5.17664e-16 0)
(1 1.51074e-15 0)
(1 4.7586e-16 0)
(1 1.4814e-15 0)
(1 3.61264e-15 0)
(1 3.9592e-15 0)
(1 5.03646e-15 0)
(1 4.34057e-15 0)
(1 1.97867e-16 0)
(1 1.48683e-15 0)
(1 -8.27877e-16 0)
(1 -1.44614e-15 0)
(1 1.00337e-15 0)