/*--------------------------------*- C++ -*----------------------------------*\
| =========                 |                                                 |
| \\      /  F ield         | OpenFOAM: The Open Source CFD Toolbox           |
|  \\    /   O peration     | Version:  v2012                                 |
|   \\  /    A nd           | Website:  www.openfoam.com                      |
|    \\/     M anipulation  |                                                 |
\*---------------------------------------------------------------------------*/
FoamFile
{
    version     2.0;
    format      ascii;
    class       volVectorField;
    location    "0";
    object      U;
}
// * * * * * * * * * * * * * * * * * * * * * * * * * * * * * * * * * * * * * //

dimensions      [0 1 -1 0 0 0 0];


internalField   nonuniform List<vector> 
4000
(
(1 -2.94207e-15 0)
(1 7.01884e-15 0)
(1 -4.92904e-15 0)
(1 7.21394e-15 0)
(1 -1.35798e-15 0)
(1 -2.85706e-15 0)
(1 5.21343e-15 0)
(1 -3.38981e-15 0)
(1 -8.38078e-16 0)
(1 -1.40087e-15 0)
(1 1.04806e-15 0)
(1 4.11079e-15 0)
(1 2.12563e-15 0)
(1 5.83842e-17 0)
(1 6.71411e-15 0)
(1 -2.95336e-15 0)
(1 -3.47873e-15 0)
(1 -5.75886e-15 0)
(1 -9.922e-16 0)
(1 -1.8507e-15 0)
(1 -2.84458e-15 0)
(1 -1.01766e-14 0)
(1 -1.2024e-15 0)
(1 -3.35626e-15 0)
(1 6.82982e-15 0)
(1 -2.61653e-15 0)
(1 6.35782e-15 0)
(1 1.36342e-15 0)
(1 4.5665e-15 0)
(1 6.63287e-15 0)
(1 4.05794e-15 0)
(1 -1.90362e-15 0)
(1 -6.24998e-15 0)
(1 -3.48841e-15 0)
(1 1.46446e-16 0)
(1 2.51153e-15 0)
(1 9.58052e-15 0)
(1 4.69167e-15 0)
(1 2.78517e-15 0)
(1 -2.59221e-15 0)
(1 -5.05933e-15 0)
(1 -5.86375e-15 0)
(1 -9.17273e-16 0)
(1 4.4152e-15 0)
(1 1.53095e-15 0)
(1 -1.61284e-15 0)
(1 3.25122e-15 0)
(1 -2.72976e-15 0)
(1 -4.65297e-15 0)
(1 1.79475e-16 0)
(1 -1.17791e-15 0)
(1 7.95187e-15 0)
(1 -7.13035e-16 0)
(1 2.61129e-15 0)
(1 -7.8105e-16 0)
(1 -6.07169e-15 0)
(1 -1.53167e-15 0)
(1 1.32305e-15 0)
(1 5.00475e-15 0)
(1 3.95586e-15 0)
(1 4.18725e-15 0)
(1 1.02226e-15 0)
(1 3.31566e-15 0)
(1 -2.42465e-15 0)
(1 -7.11126e-16 0)
(1 5.39634e-16 0)
(1 -6.39515e-16 0)
(1 5.3398e-16 0)
(1 -3.03714e-15 0)
(1 1.73112e-16 0)
(1 -5.15436e-15 0)
(1 -9.60335e-16 0)
(1 4.92485e-16 0)
(1 -1.30924e-15 0)
(1 -6.76144e-15 0)
(1 -3.49115e-15 0)
(1 -2.44443e-15 0)
(1 1.16604e-15 0)
(1 1.57191e-15 0)
(1 3.2608e-15 0)
(1 5.27045e-15 0)
(1 2.36753e-16 0)
(1 7.8757e-16 0)
(1 -9.95073e-16 0)
(1 -3.58621e-15 0)
(1 -5.04419e-16 0)
(1 -4.40721e-15 0)
(1 9.50032e-16 0)
(1 5.68657e-15 0)
(1 2.48573e-15 0)
(1 -5.4204e-16 0)
(1 -1.67512e-16 0)
(1 -4.00798e-15 0)
(1 3.96681e-16 0)
(1 -3.16677e-15 0)
(1 -5.3723e-15 0)
(1 -1.31827e-15 0)
(1 -7.13542e-16 0)
(1 1.10649e-15 0)
(1 4.02105e-16 0)
(1 1.29516e-15 0)
(1 1.98211e-15 0)
(1 -3.45593e-15 0)
(1 7.78549e-15 0)
(1 -1.59043e-15 0)
(1 -5.23899e-15 0)
(1 7.1855e-15 0)
(1 -5.62677e-15 0)
(1 3.06953e-16 0)
(1 -3.32136e-15 0)
(1 -2.16338e-15 0)
(1 4.81017e-15 0)
(1 9.83288e-15 0)
(1 7.6827e-15 0)
(1 5.87915e-15 0)
(1 -4.47128e-15 0)
(1 -5.57316e-15 0)
(1 -9.84509e-15 0)
(1 -2.97692e-15 0)
(1 -3.13173e-15 0)
(1 -2.94827e-15 0)
(1 -1.28467e-14 0)
(1 -2.54572e-15 0)
(1 -8.66409e-15 0)
(1 8.75659e-15 0)
(1 -2.8754e-15 0)
(1 8.94138e-15 0)
(1 6.03521e-16 0)
(1 4.59247e-15 0)
(1 5.71507e-15 0)
(1 6.92586e-15 0)
(1 3.84315e-16 0)
(1 -7.02189e-15 0)
(1 -1.27309e-15 0)
(1 -7.44806e-16 0)
(1 2.95905e-15 0)
(1 6.93915e-15 0)
(1 7.99331e-15 0)
(1 1.04727e-15 0)
(1 -6.89731e-15 0)
(1 -1.0027e-14 0)
(1 -7.58658e-15 0)
(1 -1.48929e-15 0)
(1 2.64028e-15 0)
(1 2.32837e-15 0)
(1 -4.72644e-15 0)
(1 3.08388e-15 0)
(1 9.05495e-16 0)
(1 2.94402e-15 0)
(1 -6.20006e-15 0)
(1 -6.59694e-15 0)
(1 1.41142e-15 0)
(1 1.21326e-15 0)
(1 2.33162e-15 0)
(1 1.55062e-15 0)
(1 6.54514e-16 0)
(1 2.58541e-15 0)
(1 5.42028e-15 0)
(1 2.06496e-15 0)
(1 1.40095e-15 0)
(1 -6.19902e-15 0)
(1 -1.05479e-15 0)
(1 3.48344e-15 0)
(1 1.6019e-15 0)
(1 3.56238e-15 0)
(1 1.24752e-15 0)
(1 -4.32143e-15 0)
(1 -2.56728e-15 0)
(1 -4.98517e-15 0)
(1 -2.06123e-15 0)
(1 -3.15626e-15 0)
(1 6.21331e-16 0)
(1 6.03766e-15 0)
(1 1.28378e-15 0)
(1 -4.56179e-16 0)
(1 -4.50323e-15 0)
(1 2.22444e-15 0)
(1 3.43172e-15 0)
(1 4.01902e-15 0)
(1 4.06029e-15 0)
(1 4.1676e-15 0)
(1 -3.37301e-15 0)
(1 1.4618e-15 0)
(1 1.77903e-15 0)
(1 2.09587e-15 0)
(1 8.57768e-16 0)
(1 -2.17746e-15 0)
(1 -2.64771e-15 0)
(1 -5.24042e-16 0)
(1 9.74732e-18 0)
(1 1.59185e-15 0)
(1 1.61456e-15 0)
(1 -3.66031e-15 0)
(1 -1.04518e-16 0)
(1 -6.77987e-15 0)
(1 -3.20322e-15 0)
(1 -1.74505e-15 0)
(1 2.79974e-15 0)
(1 -4.16816e-15 0)
(1 -3.43674e-15 0)
(1 2.53092e-15 0)
(1 -7.43984e-15 0)
(1 -8.83794e-17 0)
(1 -5.70012e-15 0)
(1 3.66973e-15 0)
(1 1.4508e-15 0)
(1 8.88114e-15 0)
(1 3.45271e-15 0)
(1 -1.70569e-15 0)
(1 -2.56994e-15 0)
(1 -7.4887e-16 0)
(1 5.30995e-15 0)
(1 7.28269e-15 0)
(1 1.19635e-14 0)
(1 -1.02336e-15 0)
(1 -3.53552e-16 0)
(1 -2.24398e-15 0)
(1 -1.72259e-15 0)
(1 -1.41564e-15 0)
(1 -1.4774e-15 0)
(1 -7.9559e-16 0)
(1 -2.40705e-15 0)
(1 -1.03127e-14 0)
(1 -1.01635e-14 0)
(1 4.33051e-16 0)
(1 7.85952e-15 0)
(1 1.00286e-14 0)
(1 8.50446e-15 0)
(1 1.20354e-14 0)
(1 1.09132e-14 0)
(1 1.04038e-14 0)
(1 5.03837e-17 0)
(1 -1.2653e-15 0)
(1 -5.51001e-15 0)
(1 -3.66984e-15 0)
(1 -2.98683e-15 0)
(1 -3.52196e-15 0)
(1 5.53688e-15 0)
(1 -1.89044e-15 0)
(1 -5.16911e-15 0)
(1 -3.93493e-15 0)
(1 -4.11062e-15 0)
(1 -7.90587e-15 0)
(1 -5.44248e-15 0)
(1 -9.41874e-16 0)
(1 -1.58253e-15 0)
(1 1.05174e-15 0)
(1 3.88732e-15 0)
(1 -8.39138e-16 0)
(1 -2.04125e-15 0)
(1 -1.93674e-16 0)
(1 -6.82066e-16 0)
(1 3.68021e-15 0)
(1 -1.63333e-15 0)
(1 4.83899e-15 0)
(1 8.81994e-15 0)
(1 3.71404e-15 0)
(1 2.12069e-15 0)
(1 -2.74276e-15 0)
(1 -5.72555e-15 0)
(1 -5.74101e-15 0)
(1 3.31812e-15 0)
(1 3.84514e-15 0)
(1 -2.65666e-16 0)
(1 5.34735e-15 0)
(1 1.25467e-15 0)
(1 -3.31486e-15 0)
(1 -4.25667e-15 0)
(1 -3.90908e-16 0)
(1 -1.57159e-15 0)
(1 2.44396e-16 0)
(1 4.85539e-17 0)
(1 -1.17402e-15 0)
(1 -2.28277e-16 0)
(1 -5.326e-16 0)
(1 -7.02475e-16 0)
(1 9.99058e-17 0)
(1 1.45727e-15 0)
(1 5.92398e-16 0)
(1 4.52016e-15 0)
(1 -3.25752e-15 0)
(1 -4.14298e-15 0)
(1 -9.93158e-16 0)
(1 -3.17093e-15 0)
(1 4.31623e-15 0)
(1 2.96205e-16 0)
(1 1.12361e-15 0)
(1 -2.85887e-15 0)
(1 -5.28619e-15 0)
(1 -2.0353e-15 0)
(1 1.71343e-15 0)
(1 1.52484e-15 0)
(1 -1.8828e-15 0)
(1 -8.28878e-16 0)
(1 -4.06076e-15 0)
(1 -3.13645e-15 0)
(1 -2.79649e-15 0)
(1 -1.36986e-15 0)
(1 -3.94894e-15 0)
(1 -1.44841e-15 0)
(1 3.05532e-15 0)
(1 -6.87639e-15 0)
(1 -2.37582e-15 0)
(1 -1.05324e-14 0)
(1 5.75226e-15 0)
(1 -1.06619e-16 0)
(1 8.11439e-15 0)
(1 3.24877e-15 0)
(1 -2.84271e-15 0)
(1 1.69369e-16 0)
(1 6.05482e-15 0)
(1 1.25764e-14 0)
(1 5.40124e-15 0)
(1 5.31807e-15 0)
(1 4.19329e-15 0)
(1 4.02358e-16 0)
(1 4.4043e-16 0)
(1 -7.66138e-15 0)
(1 -1.34767e-14 0)
(1 6.92369e-16 0)
(1 9.98942e-17 0)
(1 1.91877e-15 0)
(1 -3.58084e-15 0)
(1 2.2846e-15 0)
(1 4.29658e-15 0)
(1 3.9589e-15 0)
(1 9.0804e-15 0)
(1 1.00787e-14 0)
(1 1.0294e-14 0)
(1 1.00823e-14 0)
(1 6.86751e-15 0)
(1 2.30382e-15 0)
(1 1.11778e-15 0)
(1 -4.58004e-16 0)
(1 4.37313e-17 0)
(1 -4.65841e-15 0)
(1 -3.35674e-15 0)
(1 -5.31689e-15 0)
(1 -1.77843e-15 0)
(1 4.40267e-15 0)
(1 4.16736e-15 0)
(1 -4.86345e-15 0)
(1 -8.96712e-15 0)
(1 -5.89751e-15 0)
(1 -3.30792e-15 0)
(1 4.55535e-15 0)
(1 5.43187e-15 0)
(1 2.6553e-15 0)
(1 -2.97062e-15 0)
(1 5.30055e-15 0)
(1 4.80983e-15 0)
(1 -5.73177e-16 0)
(1 -5.94897e-15 0)
(1 -5.17945e-15 0)
(1 1.10159e-15 0)
(1 1.43669e-15 0)
(1 1.07824e-15 0)
(1 -2.78053e-16 0)
(1 -5.03024e-15 0)
(1 -1.37996e-15 0)
(1 3.84831e-15 0)
(1 4.40372e-15 0)
(1 3.51153e-15 0)
(1 5.04207e-15 0)
(1 1.82332e-15 0)
(1 -2.05946e-16 0)
(1 -5.06555e-15 0)
(1 -4.30775e-15 0)
(1 -4.62445e-15 0)
(1 -2.17933e-15 0)
(1 -2.37079e-15 0)
(1 1.25435e-15 0)
(1 -2.77254e-15 0)
(1 -5.98284e-16 0)
(1 -3.6721e-16 0)
(1 -4.27547e-15 0)
(1 2.61577e-15 0)
(1 -3.75631e-15 0)
(1 5.26889e-15 0)
(1 5.20179e-15 0)
(1 -6.64181e-16 0)
(1 3.15626e-15 0)
(1 -1.67033e-15 0)
(1 -1.60619e-15 0)
(1 -1.96396e-15 0)
(1 1.38292e-16 0)
(1 4.91861e-15 0)
(1 2.02352e-15 0)
(1 3.05429e-15 0)
(1 -2.82172e-16 0)
(1 -1.82353e-15 0)
(1 -4.58467e-16 0)
(1 -1.05234e-15 0)
(1 1.45055e-15 0)
(1 -1.13643e-15 0)
(1 -8.83843e-15 0)
(1 -6.78035e-15 0)
(1 -5.60809e-15 0)
(1 -5.46422e-15 0)
(1 -1.25446e-15 0)
(1 2.81096e-15 0)
(1 -1.37193e-15 0)
(1 -7.43018e-15 0)
(1 -4.44947e-16 0)
(1 1.85076e-15 0)
(1 8.91677e-16 0)
(1 1.42206e-15 0)
(1 1.12841e-16 0)
(1 -1.99938e-15 0)
(1 -3.77892e-15 0)
(1 5.62552e-15 0)
(1 2.81231e-16 0)
(1 6.17604e-15 0)
(1 -1.30153e-15 0)
(1 1.18465e-14 0)
(1 3.61091e-15 0)
(1 5.03497e-15 0)
(1 -8.82745e-15 0)
(1 -9.65857e-15 0)
(1 -1.03405e-14 0)
(1 -3.91183e-15 0)
(1 -4.38035e-15 0)
(1 4.39773e-15 0)
(1 1.18337e-14 0)
(1 1.41261e-14 0)
(1 5.24335e-15 0)
(1 8.75635e-15 0)
(1 9.42175e-15 0)
(1 8.93916e-15 0)
(1 3.12908e-15 0)
(1 6.2983e-15 0)
(1 5.10793e-15 0)
(1 2.66894e-15 0)
(1 1.20939e-15 0)
(1 -5.24313e-15 0)
(1 -1.1509e-14 0)
(1 -5.70136e-15 0)
(1 -8.93794e-15 0)
(1 -5.57369e-15 0)
(1 4.85832e-16 0)
(1 -3.14734e-15 0)
(1 -4.82906e-15 0)
(1 -2.74893e-15 0)
(1 -3.03911e-15 0)
(1 -2.35647e-15 0)
(1 -2.10093e-16 0)
(1 3.35516e-15 0)
(1 3.0738e-15 0)
(1 4.90666e-15 0)
(1 6.30602e-15 0)
(1 -1.7307e-15 0)
(1 -3.76418e-15 0)
(1 -4.99089e-15 0)
(1 8.0775e-16 0)
(1 4.84688e-15 0)
(1 7.74592e-15 0)
(1 5.11148e-15 0)
(1 6.68472e-18 0)
(1 -2.29744e-15 0)
(1 -3.73114e-15 0)
(1 -8.27607e-16 0)
(1 -9.37138e-16 0)
(1 3.40176e-15 0)
(1 6.24362e-15 0)
(1 1.04314e-15 0)
(1 -1.65609e-15 0)
(1 -1.71037e-15 0)
(1 -2.55968e-15 0)
(1 -1.95932e-15 0)
(1 -4.50932e-16 0)
(1 1.2518e-16 0)
(1 1.62572e-16 0)
(1 4.13056e-15 0)
(1 -1.0275e-15 0)
(1 3.16623e-15 0)
(1 -1.42337e-16 0)
(1 7.17009e-15 0)
(1 2.90718e-16 0)
(1 9.82943e-15 0)
(1 3.63092e-15 0)
(1 1.38256e-15 0)
(1 -2.3969e-15 0)
(1 -3.36478e-16 0)
(1 3.88676e-15 0)
(1 -6.4547e-16 0)
(1 2.65569e-15 0)
(1 2.16095e-15 0)
(1 -4.41473e-16 0)
(1 -1.83255e-15 0)
(1 -7.55784e-15 0)
(1 -2.33695e-15 0)
(1 -1.50772e-15 0)
(1 -7.08906e-16 0)
(1 8.4182e-16 0)
(1 -2.74242e-15 0)
(1 -3.77839e-15 0)
(1 -3.27822e-15 0)
(1 -2.27072e-15 0)
(1 -6.24708e-15 0)
(1 -1.19046e-15 0)
(1 -2.69986e-15 0)
(1 -2.58986e-15 0)
(1 -5.44244e-15 0)
(1 2.78579e-15 0)
(1 -3.23412e-15 0)
(1 6.77396e-15 0)
(1 -6.03909e-15 0)
(1 -3.76436e-15 0)
(1 1.14279e-15 0)
(1 2.35108e-15 0)
(1 1.01081e-14 0)
(1 -2.94443e-15 0)
(1 8.08177e-16 0)
(1 1.4825e-15 0)
(1 5.3381e-15 0)
(1 5.04747e-15 0)
(1 3.72419e-15 0)
(1 4.22385e-16 0)
(1 2.68188e-15 0)
(1 -3.8236e-15 0)
(1 2.03852e-15 0)
(1 -4.12094e-15 0)
(1 3.45201e-15 0)
(1 4.2824e-15 0)
(1 3.89857e-15 0)
(1 2.0471e-15 0)
(1 5.23063e-15 0)
(1 1.29631e-14 0)
(1 9.69664e-15 0)
(1 1.47741e-14 0)
(1 1.41564e-15 0)
(1 -2.3207e-16 0)
(1 -5.64004e-15 0)
(1 -3.72002e-15 0)
(1 -1.23815e-15 0)
(1 2.66537e-15 0)
(1 1.08602e-15 0)
(1 1.49881e-15 0)
(1 -5.04943e-15 0)
(1 -6.31062e-15 0)
(1 -3.43623e-15 0)
(1 -1.07922e-15 0)
(1 5.33016e-15 0)
(1 4.34593e-15 0)
(1 -3.42232e-16 0)
(1 -4.90792e-15 0)
(1 -7.1038e-15 0)
(1 -4.70323e-15 0)
(1 4.65767e-15 0)
(1 6.87716e-15 0)
(1 1.85982e-16 0)
(1 1.22631e-15 0)
(1 -1.47178e-16 0)
(1 -1.29192e-15 0)
(1 5.37096e-15 0)
(1 5.19086e-15 0)
(1 1.56598e-15 0)
(1 -1.38944e-15 0)
(1 7.83987e-15 0)
(1 2.84559e-15 0)
(1 6.48586e-15 0)
(1 -1.70181e-16 0)
(1 -5.31898e-17 0)
(1 -3.48668e-15 0)
(1 1.707e-15 0)
(1 3.67187e-15 0)
(1 7.45347e-15 0)
(1 8.49129e-15 0)
(1 1.25639e-14 0)
(1 1.14303e-14 0)
(1 3.97683e-15 0)
(1 -6.04898e-15 0)
(1 -6.48401e-16 0)
(1 -1.77141e-15 0)
(1 -5.52266e-15 0)
(1 -4.62873e-15 0)
(1 -7.13047e-15 0)
(1 2.00478e-15 0)
(1 5.97263e-15 0)
(1 1.20656e-14 0)
(1 4.38848e-15 0)
(1 1.88263e-15 0)
(1 4.52594e-15 0)
(1 -9.70428e-17 0)
(1 -2.87996e-15 0)
(1 -1.17186e-15 0)
(1 -1.78419e-15 0)
(1 -2.7855e-15 0)
(1 -6.11192e-15 0)
(1 -2.1569e-15 0)
(1 -2.75641e-15 0)
(1 -9.59601e-16 0)
(1 -3.80743e-15 0)
(1 -1.00677e-15 0)
(1 -3.22911e-16 0)
(1 -6.8097e-16 0)
(1 2.8342e-15 0)
(1 1.72828e-15 0)
(1 6.24573e-15 0)
(1 6.96844e-15 0)
(1 -4.33256e-15 0)
(1 -2.45104e-15 0)
(1 -1.14387e-16 0)
(1 7.72238e-15 0)
(1 -2.38193e-15 0)
(1 -3.58288e-15 0)
(1 -1.3887e-14 0)
(1 -8.38688e-15 0)
(1 4.24391e-16 0)
(1 5.04944e-15 0)
(1 1.3769e-14 0)
(1 -2.5185e-15 0)
(1 1.73548e-15 0)
(1 1.1828e-15 0)
(1 3.86866e-15 0)
(1 3.87835e-15 0)
(1 1.00927e-14 0)
(1 3.88254e-15 0)
(1 4.21156e-15 0)
(1 1.26575e-14 0)
(1 5.86014e-15 0)
(1 -2.90789e-15 0)
(1 2.09078e-15 0)
(1 -6.30517e-15 0)
(1 -8.47711e-15 0)
(1 -1.56107e-15 0)
(1 -1.96569e-15 0)
(1 1.0172e-14 0)
(1 7.86095e-15 0)
(1 1.2374e-14 0)
(1 1.09204e-14 0)
(1 1.83773e-15 0)
(1 -6.02227e-15 0)
(1 -6.65528e-15 0)
(1 1.42666e-15 0)
(1 7.12737e-15 0)
(1 2.31147e-15 0)
(1 1.30927e-16 0)
(1 -1.38504e-15 0)
(1 -5.80612e-15 0)
(1 -2.1719e-15 0)
(1 -2.20138e-15 0)
(1 9.08852e-15 0)
(1 4.48983e-15 0)
(1 -1.39778e-15 0)
(1 -4.37575e-15 0)
(1 -1.21839e-14 0)
(1 -5.67974e-15 0)
(1 1.17834e-14 0)
(1 8.47043e-15 0)
(1 5.13502e-15 0)
(1 3.97158e-16 0)
(1 3.10491e-16 0)
(1 -2.82027e-15 0)
(1 -1.74995e-15 0)
(1 3.54662e-15 0)
(1 1.31275e-15 0)
(1 -8.24442e-16 0)
(1 -1.06358e-15 0)
(1 4.59034e-15 0)
(1 5.67066e-15 0)
(1 6.61411e-15 0)
(1 1.42718e-15 0)
(1 -3.11247e-17 0)
(1 -1.62182e-15 0)
(1 2.42039e-16 0)
(1 -4.37063e-16 0)
(1 5.34207e-15 0)
(1 2.98691e-15 0)
(1 5.51605e-16 0)
(1 1.91717e-15 0)
(1 -2.49409e-15 0)
(1 -2.34137e-15 0)
(1 1.97629e-15 0)
(1 5.5482e-15 0)
(1 9.78381e-16 0)
(1 -8.2453e-16 0)
(1 4.91381e-15 0)
(1 5.24385e-15 0)
(1 8.66688e-15 0)
(1 6.72305e-15 0)
(1 3.87639e-15 0)
(1 3.55434e-15 0)
(1 2.22019e-15 0)
(1 1.34911e-15 0)
(1 2.1472e-16 0)
(1 2.47847e-15 0)
(1 1.15898e-15 0)
(1 2.55405e-15 0)
(1 4.90325e-15 0)
(1 2.8669e-16 0)
(1 4.00893e-15 0)
(1 1.23758e-15 0)
(1 -1.42699e-16 0)
(1 2.65567e-15 0)
(1 2.48101e-15 0)
(1 2.97255e-15 0)
(1 4.26382e-15 0)
(1 5.81281e-15 0)
(1 7.36339e-15 0)
(1 -7.24604e-15 0)
(1 5.44092e-15 0)
(1 -3.22248e-15 0)
(1 6.32819e-15 0)
(1 -2.26548e-16 0)
(1 -5.78725e-15 0)
(1 -3.54132e-15 0)
(1 -6.70659e-15 0)
(1 -1.69043e-15 0)
(1 -1.1013e-15 0)
(1 -2.3281e-15 0)
(1 -6.97639e-15 0)
(1 4.8041e-15 0)
(1 4.1776e-15 0)
(1 9.59873e-15 0)
(1 8.19997e-15 0)
(1 5.5364e-15 0)
(1 6.61055e-15 0)
(1 9.84939e-15 0)
(1 5.12215e-15 0)
(1 -6.98015e-15 0)
(1 -9.25717e-15 0)
(1 -7.94632e-15 0)
(1 5.01345e-16 0)
(1 -1.86105e-15 0)
(1 1.16665e-14 0)
(1 3.63947e-15 0)
(1 1.00719e-14 0)
(1 -1.36749e-15 0)
(1 -5.17534e-15 0)
(1 5.89509e-15 0)
(1 2.70418e-15 0)
(1 7.71244e-16 0)
(1 1.17945e-15 0)
(1 1.2595e-15 0)
(1 -1.52914e-15 0)
(1 1.92119e-15 0)
(1 6.63731e-16 0)
(1 3.19275e-15 0)
(1 -6.66033e-15 0)
(1 -6.23794e-15 0)
(1 -3.69006e-15 0)
(1 5.60019e-15 0)
(1 3.57042e-15 0)
(1 6.46966e-15 0)
(1 4.6301e-15 0)
(1 -2.38379e-15 0)
(1 4.43865e-15 0)
(1 -2.364e-15 0)
(1 6.21807e-16 0)
(1 -1.64208e-15 0)
(1 2.0104e-15 0)
(1 4.9732e-15 0)
(1 6.52533e-15 0)
(1 2.85973e-15 0)
(1 2.32515e-15 0)
(1 5.6337e-15 0)
(1 -1.57902e-15 0)
(1 -2.05317e-15 0)
(1 -3.05849e-15 0)
(1 4.91486e-15 0)
(1 7.45019e-15 0)
(1 8.591e-15 0)
(1 8.29372e-16 0)
(1 3.43289e-15 0)
(1 5.14883e-15 0)
(1 6.27036e-15 0)
(1 1.44037e-15 0)
(1 1.51839e-15 0)
(1 -2.67269e-15 0)
(1 1.79481e-15 0)
(1 8.9705e-15 0)
(1 4.52293e-15 0)
(1 3.16407e-15 0)
(1 6.72791e-15 0)
(1 9.34788e-15 0)
(1 4.28975e-15 0)
(1 6.83093e-15 0)
(1 3.88972e-15 0)
(1 3.18583e-15 0)
(1 2.32112e-16 0)
(1 -4.54027e-15 0)
(1 -1.85409e-15 0)
(1 2.82184e-15 0)
(1 4.35356e-15 0)
(1 3.49455e-15 0)
(1 -3.78493e-15 0)
(1 7.41815e-16 0)
(1 4.25395e-15 0)
(1 -7.52968e-16 0)
(1 1.44967e-15 0)
(1 -8.56983e-16 0)
(1 5.52437e-16 0)
(1 -4.82522e-16 0)
(1 2.23077e-15 0)
(1 3.27211e-15 0)
(1 3.94655e-16 0)
(1 2.90576e-15 0)
(1 4.9016e-15 0)
(1 1.14068e-14 0)
(1 -1.31519e-15 0)
(1 -4.52439e-18 0)
(1 3.7454e-15 0)
(1 -1.06068e-14 0)
(1 -5.30615e-15 0)
(1 -6.74166e-15 0)
(1 1.26177e-15 0)
(1 -3.89557e-15 0)
(1 -6.17431e-15 0)
(1 2.14934e-15 0)
(1 -1.279e-15 0)
(1 9.37773e-15 0)
(1 1.91546e-15 0)
(1 8.70583e-15 0)
(1 2.06479e-15 0)
(1 1.18905e-14 0)
(1 2.89406e-15 0)
(1 1.7243e-14 0)
(1 8.7957e-15 0)
(1 -1.39725e-15 0)
(1 -3.94699e-15 0)
(1 -4.96742e-16 0)
(1 -1.06931e-14 0)
(1 1.78328e-15 0)
(1 -3.66638e-15 0)
(1 2.3288e-15 0)
(1 6.46357e-15 0)
(1 -3.88182e-15 0)
(1 -1.15498e-14 0)
(1 -1.5466e-15 0)
(1 -1.44334e-14 0)
(1 -1.51374e-15 0)
(1 4.66568e-15 0)
(1 1.23569e-14 0)
(1 4.26999e-15 0)
(1 4.58592e-15 0)
(1 2.94335e-15 0)
(1 1.71086e-15 0)
(1 4.13131e-15 0)
(1 -1.99685e-15 0)
(1 -4.13437e-15 0)
(1 1.006e-14 0)
(1 8.66975e-15 0)
(1 1.29928e-14 0)
(1 1.6687e-14 0)
(1 9.23488e-15 0)
(1 4.6556e-15 0)
(1 6.62745e-16 0)
(1 -1.11993e-14 0)
(1 -1.33233e-14 0)
(1 -5.18117e-15 0)
(1 2.64302e-15 0)
(1 4.57168e-15 0)
(1 4.53896e-15 0)
(1 1.55838e-15 0)
(1 -1.74766e-15 0)
(1 3.80735e-15 0)
(1 7.26653e-15 0)
(1 4.10032e-15 0)
(1 4.74699e-15 0)
(1 4.81205e-15 0)
(1 5.61608e-15 0)
(1 -5.4427e-15 0)
(1 -9.71856e-16 0)
(1 -1.88556e-15 0)
(1 1.4366e-14 0)
(1 1.61161e-14 0)
(1 1.38576e-14 0)
(1 1.32529e-14 0)
(1 1.61758e-14 0)
(1 2.78579e-15 0)
(1 5.57119e-15 0)
(1 5.89313e-15 0)
(1 1.45286e-15 0)
(1 -7.87811e-15 0)
(1 -2.86452e-15 0)
(1 5.27865e-16 0)
(1 2.18915e-15 0)
(1 -2.69405e-16 0)
(1 1.19417e-14 0)
(1 5.83544e-15 0)
(1 1.14425e-14 0)
(1 2.35247e-15 0)
(1 -8.16339e-17 0)
(1 -2.00854e-15 0)
(1 -6.2649e-15 0)
(1 -1.53803e-15 0)
(1 1.12038e-15 0)
(1 2.05186e-15 0)
(1 2.66293e-15 0)
(1 1.96623e-15 0)
(1 -3.70462e-15 0)
(1 4.58606e-15 0)
(1 3.53186e-15 0)
(1 1.17299e-14 0)
(1 8.82483e-15 0)
(1 9.17317e-15 0)
(1 1.11598e-14 0)
(1 1.76567e-14 0)
(1 1.75207e-14 0)
(1 3.23824e-15 0)
(1 7.14702e-16 0)
(1 3.9322e-15 0)
(1 -4.28549e-15 0)
(1 -4.90379e-15 0)
(1 -3.46643e-15 0)
(1 -1.13335e-15 0)
(1 6.24511e-15 0)
(1 2.80412e-15 0)
(1 2.00496e-15 0)
(1 -1.12417e-15 0)
(1 1.04277e-14 0)
(1 5.47328e-15 0)
(1 -4.20909e-15 0)
(1 3.12235e-16 0)
(1 -2.55627e-15 0)
(1 4.08207e-15 0)
(1 5.16626e-15 0)
(1 -5.74415e-15 0)
(1 -7.56111e-15 0)
(1 -1.05863e-15 0)
(1 9.84773e-16 0)
(1 4.84795e-16 0)
(1 -3.15931e-15 0)
(1 6.24058e-15 0)
(1 8.81004e-15 0)
(1 1.11743e-14 0)
(1 -8.48536e-15 0)
(1 -2.56362e-16 0)
(1 -3.61696e-15 0)
(1 -7.58455e-15 0)
(1 -2.01939e-15 0)
(1 1.03074e-15 0)
(1 9.0312e-16 0)
(1 -3.07807e-15 0)
(1 4.41331e-17 0)
(1 -4.24357e-15 0)
(1 -2.68298e-16 0)
(1 -3.74231e-15 0)
(1 4.06729e-15 0)
(1 -7.81595e-16 0)
(1 8.98214e-15 0)
(1 4.79994e-15 0)
(1 1.06325e-14 0)
(1 4.69192e-15 0)
(1 2.40907e-15 0)
(1 6.13456e-16 0)
(1 -3.2357e-15 0)
(1 5.45429e-15 0)
(1 -1.0095e-15 0)
(1 6.87087e-15 0)
(1 4.15277e-15 0)
(1 1.60208e-15 0)
(1 1.84479e-15 0)
(1 2.62792e-15 0)
(1 3.14287e-15 0)
(1 6.63605e-15 0)
(1 4.32249e-15 0)
(1 1.99278e-15 0)
(1 7.33113e-15 0)
(1 5.78579e-15 0)
(1 7.25726e-15 0)
(1 6.38806e-15 0)
(1 1.16183e-14 0)
(1 6.60424e-15 0)
(1 1.83684e-15 0)
(1 6.77792e-15 0)
(1 9.58599e-15 0)
(1 1.17866e-14 0)
(1 6.75219e-15 0)
(1 5.00781e-15 0)
(1 8.47146e-15 0)
(1 1.76229e-16 0)
(1 4.56872e-15 0)
(1 -4.04683e-15 0)
(1 -1.43966e-16 0)
(1 6.41091e-15 0)
(1 7.71192e-15 0)
(1 6.92423e-15 0)
(1 8.20268e-15 0)
(1 6.29126e-15 0)
(1 6.28978e-15 0)
(1 -2.76376e-15 0)
(1 -2.23462e-15 0)
(1 -1.08006e-15 0)
(1 -3.66169e-15 0)
(1 4.59121e-15 0)
(1 6.45844e-16 0)
(1 2.34213e-16 0)
(1 2.60126e-15 0)
(1 4.15191e-15 0)
(1 1.84337e-16 0)
(1 7.9083e-15 0)
(1 3.20048e-15 0)
(1 9.50924e-15 0)
(1 6.33579e-15 0)
(1 1.05939e-14 0)
(1 1.26979e-14 0)
(1 2.48849e-14 0)
(1 1.98928e-14 0)
(1 2.852e-16 0)
(1 1.91839e-16 0)
(1 -4.55708e-15 0)
(1 2.82195e-15 0)
(1 -1.72862e-15 0)
(1 -7.35975e-16 0)
(1 1.54353e-15 0)
(1 1.73895e-15 0)
(1 5.45669e-15 0)
(1 -1.31977e-14 0)
(1 -1.26989e-14 0)
(1 8.8488e-16 0)
(1 -7.56493e-17 0)
(1 1.97229e-16 0)
(1 5.89273e-15 0)
(1 2.17891e-15 0)
(1 1.13495e-14 0)
(1 -4.95564e-15 0)
(1 2.61946e-15 0)
(1 -4.67342e-15 0)
(1 -1.5929e-15 0)
(1 -7.74027e-16 0)
(1 -2.26186e-16 0)
(1 -6.09469e-15 0)
(1 -4.29719e-15 0)
(1 5.47679e-15 0)
(1 1.51158e-14 0)
(1 7.36418e-15 0)
(1 7.27583e-15 0)
(1 -9.90821e-15 0)
(1 -2.92114e-15 0)
(1 -4.69975e-15 0)
(1 -3.14732e-15 0)
(1 5.85133e-16 0)
(1 5.66018e-15 0)
(1 1.28913e-15 0)
(1 -8.60976e-16 0)
(1 3.01609e-15 0)
(1 3.2066e-16 0)
(1 6.51007e-15 0)
(1 1.06381e-14 0)
(1 -5.53932e-15 0)
(1 4.03517e-15 0)
(1 -1.55044e-17 0)
(1 -3.34187e-15 0)
(1 -1.02571e-15 0)
(1 5.30749e-15 0)
(1 2.06748e-15 0)
(1 7.20326e-15 0)
(1 1.4905e-15 0)
(1 1.11963e-15 0)
(1 2.57173e-15 0)
(1 5.67492e-15 0)
(1 7.32751e-15 0)
(1 9.72022e-15 0)
(1 3.83423e-15 0)
(1 9.71776e-15 0)
(1 -2.10298e-15 0)
(1 5.57586e-15 0)
(1 1.25776e-15 0)
(1 1.01274e-14 0)
(1 -9.49345e-16 0)
(1 9.74629e-15 0)
(1 1.62687e-15 0)
(1 7.88691e-15 0)
(1 1.98343e-15 0)
(1 1.04134e-14 0)
(1 4.93859e-15 0)
(1 8.32874e-15 0)
(1 3.29727e-15 0)
(1 1.36546e-14 0)
(1 4.1852e-15 0)
(1 3.9695e-16 0)
(1 -6.96441e-16 0)
(1 -3.78549e-16 0)
(1 4.5435e-15 0)
(1 9.49508e-15 0)
(1 6.48087e-15 0)
(1 9.20118e-15 0)
(1 4.81693e-16 0)
(1 6.53057e-15 0)
(1 -4.77917e-17 0)
(1 5.9394e-15 0)
(1 -1.08116e-15 0)
(1 7.25077e-16 0)
(1 7.21413e-15 0)
(1 1.25194e-16 0)
(1 1.35181e-15 0)
(1 3.25655e-15 0)
(1 -5.14287e-17 0)
(1 4.32e-15 0)
(1 1.22396e-15 0)
(1 2.62244e-15 0)
(1 2.95947e-16 0)
(1 3.27448e-15 0)
(1 6.66022e-15 0)
(1 1.02451e-14 0)
(1 8.79653e-15 0)
(1 1.13064e-14 0)
(1 1.37719e-14 0)
(1 4.21909e-15 0)
(1 -6.45249e-15 0)
(1 1.23333e-15 0)
(1 -5.55577e-16 0)
(1 -5.43237e-16 0)
(1 -3.88881e-15 0)
(1 -4.12244e-15 0)
(1 -3.19111e-15 0)
(1 6.82213e-15 0)
(1 1.05622e-14 0)
(1 2.55118e-15 0)
(1 1.84524e-15 0)
(1 -6.42268e-16 0)
(1 -2.16252e-15 0)
(1 -8.41212e-15 0)
(1 2.92263e-15 0)
(1 6.08796e-15 0)
(1 -3.27124e-15 0)
(1 9.28097e-16 0)
(1 -5.24601e-15 0)
(1 -6.53685e-15 0)
(1 -4.03773e-15 0)
(1 4.80733e-16 0)
(1 8.93963e-15 0)
(1 8.98804e-16 0)
(1 3.7297e-16 0)
(1 3.11406e-15 0)
(1 4.95854e-15 0)
(1 8.90111e-15 0)
(1 3.91325e-15 0)
(1 1.45916e-15 0)
(1 -8.14476e-16 0)
(1 -6.19332e-15 0)
(1 -2.78956e-15 0)
(1 -5.60899e-16 0)
(1 -9.18993e-15 0)
(1 -4.20284e-15 0)
(1 -5.09856e-15 0)
(1 2.39808e-15 0)
(1 1.00941e-15 0)
(1 9.21248e-15 0)
(1 -4.5235e-15 0)
(1 -3.51758e-15 0)
(1 -8.1772e-15 0)
(1 4.4006e-15 0)
(1 7.08511e-15 0)
(1 1.51682e-14 0)
(1 9.18474e-15 0)
(1 2.33954e-15 0)
(1 -1.21832e-15 0)
(1 -6.30097e-17 0)
(1 3.88559e-15 0)
(1 5.04865e-15 0)
(1 1.39215e-14 0)
(1 1.32414e-14 0)
(1 7.04015e-15 0)
(1 1.46147e-15 0)
(1 3.57879e-16 0)
(1 -2.9152e-15 0)
(1 8.29352e-16 0)
(1 8.42674e-15 0)
(1 1.20619e-14 0)
(1 7.32456e-15 0)
(1 -2.69054e-15 0)
(1 -5.10087e-15 0)
(1 4.65067e-15 0)
(1 7.42221e-15 0)
(1 6.51014e-15 0)
(1 9.97291e-16 0)
(1 6.94875e-15 0)
(1 1.02524e-14 0)
(1 3.63927e-15 0)
(1 7.03327e-15 0)
(1 1.70009e-15 0)
(1 4.45938e-15 0)
(1 2.28822e-15 0)
(1 4.05347e-15 0)
(1 7.26127e-15 0)
(1 9.2332e-15 0)
(1 3.15103e-15 0)
(1 1.21568e-14 0)
(1 7.18768e-15 0)
(1 4.78266e-15 0)
(1 -3.41467e-16 0)
(1 -1.4304e-15 0)
(1 2.94663e-15 0)
(1 -3.28737e-15 0)
(1 2.12133e-15 0)
(1 2.56823e-15 0)
(1 3.29963e-16 0)
(1 5.8341e-15 0)
(1 4.0317e-15 0)
(1 2.88836e-15 0)
(1 3.38826e-15 0)
(1 4.77596e-15 0)
(1 1.58973e-14 0)
(1 1.10057e-14 0)
(1 8.60469e-15 0)
(1 1.44396e-15 0)
(1 7.56161e-15 0)
(1 5.93836e-15 0)
(1 -5.43554e-16 0)
(1 -3.59491e-15 0)
(1 -2.99336e-15 0)
(1 3.50939e-15 0)
(1 5.14094e-15 0)
(1 1.30861e-15 0)
(1 -1.63807e-15 0)
(1 -1.82622e-15 0)
(1 8.14432e-15 0)
(1 6.97366e-15 0)
(1 -3.17016e-15 0)
(1 5.83468e-15 0)
(1 6.93298e-15 0)
(1 1.20184e-15 0)
(1 -7.87804e-15 0)
(1 -1.0549e-14 0)
(1 -7.60578e-15 0)
(1 -2.22367e-15 0)
(1 -5.0071e-15 0)
(1 -1.98251e-15 0)
(1 -4.0644e-15 0)
(1 2.08125e-15 0)
(1 -1.30571e-15 0)
(1 1.33971e-14 0)
(1 1.84421e-15 0)
(1 -3.37771e-15 0)
(1 2.95648e-16 0)
(1 -4.58991e-16 0)
(1 -3.65098e-15 0)
(1 -3.68074e-15 0)
(1 -8.18174e-16 0)
(1 -5.49199e-15 0)
(1 1.77435e-15 0)
(1 2.94109e-16 0)
(1 3.50054e-16 0)
(1 4.77468e-15 0)
(1 3.45941e-16 0)
(1 3.89304e-15 0)
(1 -1.96918e-15 0)
(1 -1.03151e-14 0)
(1 5.18379e-16 0)
(1 -3.15662e-15 0)
(1 -4.20043e-15 0)
(1 -2.37058e-15 0)
(1 7.80821e-15 0)
(1 8.13339e-15 0)
(1 1.45586e-14 0)
(1 3.30534e-15 0)
(1 6.10504e-15 0)
(1 2.40759e-15 0)
(1 -3.60593e-16 0)
(1 2.86759e-15 0)
(1 7.96588e-15 0)
(1 7.46494e-15 0)
(1 3.3085e-15 0)
(1 4.01377e-15 0)
(1 1.86177e-15 0)
(1 -7.47389e-15 0)
(1 -7.2961e-16 0)
(1 2.87585e-15 0)
(1 1.15389e-14 0)
(1 1.29138e-14 0)
(1 1.65981e-14 0)
(1 8.87289e-15 0)
(1 1.18506e-15 0)
(1 -5.2345e-15 0)
(1 8.45785e-16 0)
(1 -1.87051e-15 0)
(1 1.34444e-15 0)
(1 7.21469e-16 0)
(1 6.68158e-15 0)
(1 6.54823e-15 0)
(1 9.91206e-15 0)
(1 9.1056e-15 0)
(1 2.8264e-15 0)
(1 -3.77067e-15 0)
(1 6.36278e-15 0)
(1 7.19528e-15 0)
(1 7.15625e-15 0)
(1 4.50996e-15 0)
(1 5.64561e-15 0)
(1 -9.16261e-16 0)
(1 3.49309e-15 0)
(1 3.62479e-15 0)
(1 3.4893e-15 0)
(1 -1.09774e-15 0)
(1 1.58658e-15 0)
(1 -3.56024e-15 0)
(1 3.68763e-15 0)
(1 2.94473e-15 0)
(1 3.08732e-15 0)
(1 1.13687e-15 0)
(1 2.19143e-16 0)
(1 3.57734e-15 0)
(1 1.07995e-14 0)
(1 5.25156e-15 0)
(1 6.32439e-15 0)
(1 3.28871e-15 0)
(1 7.60119e-15 0)
(1 -3.4849e-15 0)
(1 9.35615e-15 0)
(1 -7.27891e-15 0)
(1 -1.39361e-15 0)
(1 5.57903e-15 0)
(1 5.85008e-15 0)
(1 1.44777e-15 0)
(1 4.82552e-15 0)
(1 -2.44795e-15 0)
(1 -5.42916e-15 0)
(1 2.73692e-15 0)
(1 5.83018e-15 0)
(1 2.56592e-15 0)
(1 1.10462e-14 0)
(1 -3.33073e-15 0)
(1 -1.60568e-14 0)
(1 -1.25134e-14 0)
(1 1.2392e-15 0)
(1 2.37825e-15 0)
(1 -1.31274e-15 0)
(1 1.57291e-15 0)
(1 -7.81795e-15 0)
(1 -2.49492e-15 0)
(1 -8.10086e-15 0)
(1 9.47995e-15 0)
(1 -3.51958e-15 0)
(1 1.7478e-15 0)
(1 5.92369e-16 0)
(1 6.4834e-16 0)
(1 -5.11005e-15 0)
(1 -2.61251e-15 0)
(1 3.25228e-15 0)
(1 2.73243e-15 0)
(1 5.71037e-15 0)
(1 6.83444e-15 0)
(1 3.14597e-15 0)
(1 4.12307e-15 0)
(1 -1.07289e-15 0)
(1 -4.44678e-16 0)
(1 -3.51577e-15 0)
(1 -1.20847e-14 0)
(1 -4.56202e-15 0)
(1 -1.88203e-16 0)
(1 1.40232e-14 0)
(1 3.07167e-15 0)
(1 3.30593e-15 0)
(1 -2.85623e-15 0)
(1 7.2465e-15 0)
(1 3.04625e-15 0)
(1 4.584e-15 0)
(1 -2.43573e-16 0)
(1 -3.78643e-15 0)
(1 8.68518e-15 0)
(1 -1.03438e-15 0)
(1 3.16999e-15 0)
(1 7.86475e-15 0)
(1 9.92363e-15 0)
(1 1.05713e-14 0)
(1 1.10137e-14 0)
(1 2.52935e-15 0)
(1 1.4694e-15 0)
(1 -4.03692e-16 0)
(1 1.35466e-16 0)
(1 8.07834e-15 0)
(1 6.75097e-15 0)
(1 1.05838e-14 0)
(1 2.82337e-15 0)
(1 3.7549e-15 0)
(1 8.08392e-16 0)
(1 1.42379e-15 0)
(1 3.34849e-15 0)
(1 5.86735e-15 0)
(1 1.04037e-14 0)
(1 1.18964e-14 0)
(1 1.02281e-14 0)
(1 1.30307e-14 0)
(1 2.5151e-15 0)
(1 7.24007e-15 0)
(1 9.31457e-15 0)
(1 7.8845e-15 0)
(1 3.4055e-15 0)
(1 5.03138e-15 0)
(1 3.29301e-15 0)
(1 5.03556e-15 0)
(1 2.60433e-15 0)
(1 7.40891e-16 0)
(1 -1.76499e-15 0)
(1 5.39911e-15 0)
(1 3.24314e-15 0)
(1 3.73447e-15 0)
(1 3.43978e-16 0)
(1 3.77651e-15 0)
(1 2.36293e-15 0)
(1 2.77148e-15 0)
(1 -1.46189e-16 0)
(1 3.14268e-15 0)
(1 8.35588e-15 0)
(1 8.52129e-15 0)
(1 8.66734e-15 0)
(1 9.2248e-15 0)
(1 1.5772e-15 0)
(1 2.29249e-15 0)
(1 5.80937e-15 0)
(1 5.78006e-15 0)
(1 6.61633e-15 0)
(1 -1.78961e-15 0)
(1 -9.80498e-15 0)
(1 -7.39013e-15 0)
(1 1.16966e-15 0)
(1 6.7492e-15 0)
(1 1.85012e-15 0)
(1 9.38901e-15 0)
(1 -5.34089e-15 0)
(1 -8.23098e-15 0)
(1 -1.35699e-14 0)
(1 -1.24844e-14 0)
(1 -1.58486e-14 0)
(1 7.83133e-15 0)
(1 -1.14672e-14 0)
(1 -8.30646e-16 0)
(1 -3.30228e-15 0)
(1 2.06377e-15 0)
(1 8.41154e-15 0)
(1 9.97746e-15 0)
(1 7.18271e-15 0)
(1 7.44418e-15 0)
(1 -8.64341e-16 0)
(1 -2.16033e-15 0)
(1 -2.06368e-15 0)
(1 7.71125e-16 0)
(1 -1.30015e-15 0)
(1 3.5625e-15 0)
(1 2.50623e-15 0)
(1 -8.03281e-15 0)
(1 -5.21515e-15 0)
(1 -4.79024e-15 0)
(1 -1.0444e-15 0)
(1 3.72123e-15 0)
(1 9.07846e-16 0)
(1 1.69313e-16 0)
(1 4.53821e-15 0)
(1 1.34968e-15 0)
(1 -4.4888e-16 0)
(1 8.70955e-15 0)
(1 8.50743e-15 0)
(1 6.38067e-15 0)
(1 -4.90516e-15 0)
(1 6.74046e-16 0)
(1 3.29316e-15 0)
(1 -1.63321e-15 0)
(1 7.38051e-15 0)
(1 2.59287e-15 0)
(1 1.09828e-15 0)
(1 -2.08281e-15 0)
(1 2.61462e-15 0)
(1 7.63129e-15 0)
(1 3.03893e-15 0)
(1 4.81187e-15 0)
(1 7.25037e-15 0)
(1 8.35581e-15 0)
(1 1.00409e-14 0)
(1 4.53076e-15 0)
(1 4.07383e-15 0)
(1 3.29206e-15 0)
(1 6.68441e-15 0)
(1 6.88119e-15 0)
(1 1.04378e-14 0)
(1 9.60333e-15 0)
(1 5.61398e-15 0)
(1 4.06313e-15 0)
(1 2.1178e-15 0)
(1 1.2714e-14 0)
(1 1.14705e-14 0)
(1 1.05126e-14 0)
(1 1.10584e-14 0)
(1 9.56686e-15 0)
(1 8.93035e-15 0)
(1 7.82478e-15 0)
(1 7.8126e-15 0)
(1 6.46449e-15 0)
(1 6.78704e-15 0)
(1 2.78307e-15 0)
(1 3.98645e-15 0)
(1 6.10114e-15 0)
(1 8.65867e-16 0)
(1 -5.71509e-15 0)
(1 -4.56306e-15 0)
(1 -3.26636e-15 0)
(1 -7.9394e-16 0)
(1 -1.81408e-15 0)
(1 1.2365e-16 0)
(1 3.95628e-15 0)
(1 6.01034e-15 0)
(1 6.26868e-15 0)
(1 8.51588e-15 0)
(1 1.73293e-15 0)
(1 8.85807e-15 0)
(1 8.79721e-15 0)
(1 1.11719e-14 0)
(1 1.07356e-14 0)
(1 -1.89572e-15 0)
(1 -2.67926e-15 0)
(1 -9.43066e-16 0)
(1 8.44948e-15 0)
(1 5.63379e-16 0)
(1 3.14151e-15 0)
(1 9.39971e-15 0)
(1 4.79728e-15 0)
(1 -6.54119e-16 0)
(1 9.39846e-16 0)
(1 -8.0839e-15 0)
(1 -5.57462e-15 0)
(1 -8.36712e-15 0)
(1 -4.98228e-15 0)
(1 3.22799e-15 0)
(1 8.6239e-16 0)
(1 -2.22276e-15 0)
(1 -1.42029e-14 0)
(1 -1.21539e-14 0)
(1 -3.73623e-15 0)
(1 7.14397e-16 0)
(1 1.06958e-14 0)
(1 3.94345e-16 0)
(1 -2.10048e-15 0)
(1 -1.19468e-14 0)
(1 3.18435e-15 0)
(1 -2.73291e-15 0)
(1 3.88731e-15 0)
(1 -3.48023e-15 0)
(1 4.2409e-15 0)
(1 1.02112e-15 0)
(1 2.06839e-15 0)
(1 7.21038e-15 0)
(1 2.26284e-15 0)
(1 4.9246e-16 0)
(1 4.94338e-15 0)
(1 1.08025e-15 0)
(1 3.75112e-15 0)
(1 1.30387e-15 0)
(1 1.18726e-15 0)
(1 1.00072e-14 0)
(1 8.00509e-15 0)
(1 3.74936e-15 0)
(1 -1.11218e-14 0)
(1 -8.54781e-15 0)
(1 -7.3516e-15 0)
(1 -5.27441e-15 0)
(1 -3.2242e-15 0)
(1 3.46232e-15 0)
(1 1.41476e-15 0)
(1 7.41374e-15 0)
(1 7.43146e-15 0)
(1 2.23448e-15 0)
(1 9.45368e-16 0)
(1 2.76846e-15 0)
(1 3.43082e-15 0)
(1 8.31855e-15 0)
(1 3.36005e-15 0)
(1 4.20683e-15 0)
(1 4.57643e-15 0)
(1 -1.07205e-15 0)
(1 -3.83792e-15 0)
(1 5.95461e-15 0)
(1 -1.83773e-15 0)
(1 1.00255e-14 0)
(1 -2.13095e-16 0)
(1 7.52719e-15 0)
(1 3.94309e-15 0)
(1 8.34279e-15 0)
(1 5.47102e-15 0)
(1 4.34508e-15 0)
(1 5.22268e-15 0)
(1 8.67225e-15 0)
(1 8.5272e-15 0)
(1 9.37992e-15 0)
(1 1.03213e-15 0)
(1 9.77433e-15 0)
(1 4.35814e-15 0)
(1 5.00018e-15 0)
(1 6.35069e-15 0)
(1 1.93813e-15 0)
(1 2.8809e-15 0)
(1 2.79273e-15 0)
(1 2.29093e-15 0)
(1 6.36406e-16 0)
(1 -1.21999e-15 0)
(1 -2.45123e-15 0)
(1 -3.22397e-15 0)
(1 -1.00696e-15 0)
(1 2.0189e-15 0)
(1 8.95699e-15 0)
(1 8.0172e-15 0)
(1 5.16746e-15 0)
(1 -1.23396e-15 0)