/*--------------------------------*- C++ -*----------------------------------*\
| =========                 |                                                 |
| \\      /  F ield         | OpenFOAM: The Open Source CFD Toolbox           |
|  \\    /   O peration     | Version:  v2012                                 |
|   \\  /    A nd           | Website:  www.openfoam.com                      |
|    \\/     M anipulation  |                                                 |
\*---------------------------------------------------------------------------*/
FoamFile
{
    version     2.0;
    format      ascii;
    class       volVectorField;
    location    "0";
    object      U;
}
// * * * * * * * * * * * * * * * * * * * * * * * * * * * * * * * * * * * * * //

dimensions      [0 1 -1 0 0 0 0];


internalField   nonuniform List<vector> 
4000
(
(0.00117124 0.0434475 0)
(-0.0446111 -0.0143642 0)
(0.0247408 -0.119282 0)
(0.132578 0.0516276 0)
(-0.237786 0.0511159 0)
(0.17668 0.0397132 0)
(-0.100234 -0.0318312 0)
(0.00962784 0.00164617 0)
(-0.0348697 0.0477497 0)
(-0.0711163 0.00629256 0)
(-0.132577 -0.193052 0)
(0.259101 0.0389658 0)
(-0.00745347 0.0650112 0)
(0.0943115 -0.00611479 0)
(0.0182032 0.00314907 0)
(-0.0279168 -0.0664666 0)
(0.053284 -0.0125712 0)
(0.0397302 0.0766221 0)
(0.0133126 0.136036 0)
(-0.186079 -0.0780785 0)
(-0.0831975 -0.113872 0)
(0.0533106 0.0297419 0)
(0.17612 0.0917308 0)
(-0.0134533 0.0449212 0)
(-0.087804 -0.038942 0)
(-0.0773253 -0.000545411 0)
(-0.0185104 0.0489354 0)
(0.104568 0.0219304 0)
(-0.00175388 -0.0478227 0)
(-0.142808 -0.063338 0)
(0.0431779 -0.0605739 0)
(0.0469094 0.0203621 0)
(0.0872418 -0.0500889 0)
(0.0658218 0.0117221 0)
(-0.054715 0.141925 0)
(0.0452803 -0.167296 0)
(0.0525522 -0.0415112 0)
(-0.00568995 0.1477 0)
(-0.129925 -0.00977043 0)
(0.0951529 -0.0486682 0)
(0.0596967 -0.00412843 0)
(0.0741385 0.0939399 0)
(-0.028803 -0.0381044 0)
(-0.0146365 0.0726501 0)
(-0.0904538 -0.024872 0)
(0.0950705 -0.153132 0)
(-0.000753068 0.0766278 0)
(0.0288189 0.023941 0)
(-0.0386704 -0.0182418 0)
(0.0659247 0.00533955 0)
(0.128031 0.0164645 0)
(0.00662198 -0.0337528 0)
(0.0482394 0.053346 0)
(-0.0983513 0.150375 0)
(-0.0592329 -0.0821829 0)
(0.0116249 -0.116532 0)
(0.0520035 0.035077 0)
(0.0375247 0.035923 0)
(-0.111889 0.0866853 0)
(-0.199453 0.107142 0)
(0.00173848 -0.173643 0)
(0.139948 -0.0856153 0)
(0.0172298 -0.0176616 0)
(0.056215 0.0598939 0)
(-0.029884 0.0395992 0)
(-0.0684097 -0.0600274 0)
(0.120696 -0.00741857 0)
(-0.0250317 -0.0220574 0)
(0.0618135 0.0579518 0)
(-0.035467 0.0551905 0)
(-0.0591737 -0.084399 0)
(-0.0173681 0.0490844 0)
(0.0294421 0.0757128 0)
(-0.0794605 -0.0254095 0)
(0.0603725 -0.0697467 0)
(0.0667247 -0.0309527 0)
(0.101539 0.00462556 0)
(0.0162936 0.0626013 0)
(-0.0339391 0.0303378 0)
(0.00789067 -0.0678434 0)
(-0.0367895 -0.00413073 0)
(0.0124715 0.0460333 0)
(-0.00140452 -0.0692958 0)
(0.138639 0.017397 0)
(-0.0696017 0.0790477 0)
(-0.189305 -0.0305317 0)
(0.20718 -0.0410938 0)
(-0.0131082 0.0142213 0)
(-0.110297 0.0949078 0)
(-0.0322854 -0.0408808 0)
(0.0304309 -0.0719651 0)
(-0.0228855 0.0583844 0)
(-0.115195 0.044081 0)
(0.0361777 -0.127947 0)
(0.0159934 0.0283791 0)
(0.0217019 0.0610608 0)
(0.00609427 0.0188493 0)
(-0.0563219 0.0233763 0)
(0.0466803 -0.0428734 0)
(0.0476342 0.00437992 0)
(0.00322115 0.0597791 0)
(0.0740313 -0.0260054 0)
(-0.183983 -0.106613 0)
(0.0037576 0.125281 0)
(-0.0232343 0.0644381 0)
(0.0852391 -0.0710302 0)
(0.0522036 -0.0724892 0)
(-0.0233051 -0.0229827 0)
(0.0276716 0.0329782 0)
(0.232945 -0.00344568 0)
(-0.091886 -0.046765 0)
(-0.0647801 0.103 0)
(-0.0588939 -0.0205935 0)
(-0.0312861 -0.113767 0)
(0.00330616 0.0947424 0)
(0.0419173 -0.0611987 0)
(0.0483062 -0.0679741 0)
(-0.033897 0.11469 0)
(0.018208 0.111798 0)
(0.110889 -0.100442 0)
(-0.026443 -0.0944836 0)
(0.0606982 0.0580558 0)
(0.096314 0.0631188 0)
(-0.00361535 0.00438734 0)
(-0.0328956 0.0976477 0)
(0.0458894 -0.0324285 0)
(0.046936 -0.0597416 0)
(0.0193764 -0.0264399 0)
(0.0400923 0.0315882 0)
(0.148932 -0.0788825 0)
(-0.00481245 0.0104855 0)
(0.144724 0.0982392 0)
(-0.162678 -0.127615 0)
(-0.0808774 -0.0364287 0)
(-0.125614 0.127461 0)
(0.054017 0.0152824 0)
(-0.279997 0.0671534 0)
(-0.097082 0.0338525 0)
(-0.00155824 -0.0920088 0)
(0.0157605 -0.133347 0)
(-0.019433 -0.0662688 0)
(-0.00081794 0.0033869 0)
(-0.0184096 -0.0527569 0)
(0.114406 0.0940675 0)
(0.17868 0.0112302 0)
(0.0215698 -0.0681336 0)
(-0.000278833 0.0612212 0)
(-0.0356059 0.0486808 0)
(0.0325949 -0.0326105 0)
(-0.00254009 -0.00236158 0)
(0.0720879 0.0195902 0)
(-0.022269 0.0769872 0)
(-0.162622 -0.0177617 0)
(0.104931 -0.0114104 0)
(0.0332274 0.0211188 0)
(-0.00100355 -0.159334 0)
(-0.0212977 0.0218335 0)
(0.116395 0.170064 0)
(0.0559376 -0.0409845 0)
(0.151054 -0.0605626 0)
(0.0305641 -0.0826771 0)
(0.065249 -0.00909374 0)
(0.182196 -0.030203 0)
(-0.0697466 0.0487794 0)
(0.0703605 0.0376964 0)
(0.0301029 -0.0666467 0)
(-0.0156132 -0.0392949 0)
(-0.0728825 -0.0426159 0)
(0.0265087 -0.00581553 0)
(0.0830382 0.0839234 0)
(-0.126324 0.00250164 0)
(-0.00270969 0.0627081 0)
(0.0705594 -0.019805 0)
(0.0742806 -0.0909793 0)
(0.0369414 0.00506798 0)
(-0.0315703 -0.0326465 0)
(-0.000963931 -0.0247233 0)
(0.00150256 0.141038 0)
(0.0166165 0.0645679 0)
(0.0951453 -0.063173 0)
(-0.0057841 -0.000252912 0)
(-0.0096638 0.103161 0)
(-0.146463 -0.104349 0)
(0.0679588 -0.0810102 0)
(-0.0208408 0.111817 0)
(0.0626473 -0.0537704 0)
(0.0804199 -0.0527754 0)
(-0.0702587 -0.0258114 0)
(0.207513 0.0903429 0)
(-0.0620835 0.0451214 0)
(0.0431458 -0.0931256 0)
(0.0129134 -0.000303082 0)
(-0.0853841 0.112116 0)
(-0.0399029 -0.0590921 0)
(-0.102363 0.0216758 0)
(-0.00125073 0.0787642 0)
(0.0116798 -0.0589132 0)
(0.0123196 -0.00543405 0)
(0.0264637 -0.0482027 0)
(0.0130961 0.00348299 0)
(-0.00446603 0.0385438 0)
(-0.00200239 0.00116544 0)
(-0.00983384 -0.0338789 0)
(-0.0188213 0.0602579 0)
(0.00401862 0.00516671 0)
(-0.0192236 -0.12043 0)
(0.0113502 -0.020966 0)
(0.0215048 -0.0140659 0)
(-0.0123088 -0.0512461 0)
(0.0290926 0.0479101 0)
(0.0805103 0.0919523 0)
(0.0527218 0.141079 0)
(-0.0512318 -0.0536704 0)
(0.0715386 -0.110542 0)
(0.000775074 0.0555737 0)
(0.000606252 -0.0129288 0)
(0.0220748 -0.0721713 0)
(-0.0277545 0.0298906 0)
(-0.0513703 0.102608 0)
(0.0314475 -0.0349517 0)
(0.0322499 -0.0910427 0)
(0.0342203 0.0629465 0)
(-0.0369117 0.0916713 0)
(-0.0353445 0.0549936 0)
(0.0381803 -0.0727467 0)
(0.0677935 0.0348239 0)
(0.0623574 -0.0400588 0)
(0.0700507 -0.014833 0)
(0.132711 0.0379878 0)
(-0.000661961 -0.102583 0)
(-0.144499 -0.00143745 0)
(0.0815319 -0.0369215 0)
(0.179868 0.112112 0)
(-0.127223 0.0840571 0)
(-0.174729 -0.0663378 0)
(-0.171009 0.100381 0)
(0.101682 0.0412277 0)
(0.142821 -0.0866636 0)
(0.0118187 -0.187495 0)
(0.0411931 -0.087357 0)
(0.0399999 0.0463514 0)
(-0.0617642 0.0264379 0)
(-0.0818942 -0.00983183 0)
(-0.0153251 -0.0375462 0)
(0.0513276 -0.0141186 0)
(0.0173733 0.0491661 0)
(0.0184934 0.0874218 0)
(-0.0648269 0.0574176 0)
(-0.00383889 -0.024505 0)
(-0.0238142 -0.0186127 0)
(0.0981282 0.003994 0)
(0.106686 0.0798576 0)
(0.0118744 -0.00459423 0)
(0.103669 -0.0770406 0)
(0.0309783 -0.0034668 0)
(0.330713 -0.0303039 0)
(-0.0694757 0.0367714 0)
(-0.252287 0.030916 0)
(-0.0740861 -0.0894217 0)
(0.0891078 -0.00348548 0)
(0.0675628 -0.0730044 0)
(-0.0384004 -0.0736898 0)
(0.0542943 0.058136 0)
(-0.0713052 0.0993928 0)
(-0.152404 0.00453459 0)
(0.162962 -0.0311144 0)
(-0.0225181 -0.042222 0)
(0.00626129 -0.0373121 0)
(-0.0782392 -0.0630211 0)
(0.0471699 0.0476308 0)
(0.128555 0.0794233 0)
(-0.0208112 0.0532671 0)
(-0.0349817 -0.0438409 0)
(-0.0132132 -0.115843 0)
(0.0787161 0.0261001 0)
(0.0967179 -0.00557225 0)
(-0.146897 0.0270398 0)
(0.142472 0.198549 0)
(0.00111768 -0.042565 0)
(0.0938983 -0.113707 0)
(-0.0334089 0.0899628 0)
(-0.0801478 0.0600157 0)
(0.0257428 -0.0403307 0)
(-0.0180419 -0.065045 0)
(0.00421737 0.0654147 0)
(-0.050881 -0.0855626 0)
(-0.0421572 -0.0562802 0)
(-0.069659 -0.0527708 0)
(-0.0744235 0.087684 0)
(0.0147619 0.0726108 0)
(0.202882 -0.0166161 0)
(-0.190912 0.0489932 0)
(0.0350007 0.0929074 0)
(-0.108545 -0.0367986 0)
(0.0610491 -0.0217211 0)
(0.0684419 0.00466949 0)
(0.0657455 -0.0263313 0)
(0.127314 -0.0417618 0)
(0.0591134 0.0695976 0)
(0.00731697 0.0243993 0)
(0.000878084 0.032106 0)
(-0.00387897 0.0279486 0)
(0.00224151 -0.0555939 0)
(-0.0406007 0.0784527 0)
(0.103908 -0.0421544 0)
(-0.218411 -0.0591393 0)
(-0.0235145 0.0452927 0)
(0.162926 0.0465468 0)
(0.00898417 -0.0305814 0)
(-0.145111 -0.00886059 0)
(-0.056654 0.00363271 0)
(0.0434633 0.0238208 0)
(0.024828 -0.0291098 0)
(0.0105935 0.0141709 0)
(-0.0281506 0.0419588 0)
(-0.0559122 -0.0311011 0)
(0.00071086 -0.106057 0)
(-0.0736529 -0.000664409 0)
(-0.196551 0.129713 0)
(0.0228815 -0.159746 0)
(0.0292097 -0.0303429 0)
(-0.106938 0.168348 0)
(-0.106806 0.00546549 0)
(0.137511 0.0383104 0)
(0.00608879 0.0126261 0)
(-0.018308 0.140853 0)
(0.014911 -0.186776 0)
(-0.0463598 -0.0841148 0)
(0.145491 0.124367 0)
(0.140609 0.171087 0)
(-0.250899 -0.0770623 0)
(-0.0823335 -0.236663 0)
(-0.10959 0.0916828 0)
(0.0635536 0.0729543 0)
(0.0113509 0.0848614 0)
(0.0859762 -0.032609 0)
(0.0353093 -0.148568 0)
(-0.111227 0.0962869 0)
(0.0817774 -0.143686 0)
(-0.0365596 -0.0592294 0)
(-0.105116 0.109614 0)
(-0.0911197 0.116442 0)
(-0.0690213 -0.0772698 0)
(0.0553014 -0.127735 0)
(0.0309064 0.00912645 0)
(0.0271115 -0.0987293 0)
(-0.0662588 0.0376371 0)
(-0.0404653 0.122996 0)
(-0.000858649 0.0858207 0)
(0.117024 0.0498464 0)
(-0.0951767 -0.0138636 0)
(-0.00534414 -0.10086 0)
(-0.0378783 0.147531 0)
(-0.0242919 0.117518 0)
(-0.011636 -0.148802 0)
(0.00885847 -0.0850615 0)
(-0.0534092 0.156925 0)
(0.0400154 0.0837405 0)
(0.010683 -0.0994817 0)
(0.190821 -0.0307765 0)
(-0.055093 -0.083462 0)
(-0.00699109 -0.0388566 0)
(-0.0607237 0.0433451 0)
(0.045665 0.0544174 0)
(0.0609112 -0.0158496 0)
(0.0292026 -0.0503629 0)
(0.116385 -0.118431 0)
(0.00821256 0.0839324 0)
(-0.110896 0.0138684 0)
(-0.00778011 -0.00912253 0)
(-0.0469967 0.0412918 0)
(0.0269504 0.0605353 0)
(0.00543664 0.0353919 0)
(0.0193469 -0.192397 0)
(-0.105506 -0.102912 0)
(-0.00677218 0.105658 0)
(-0.0311418 0.0744678 0)
(0.0940973 0.0339783 0)
(0.0774738 -0.0244485 0)
(-0.128112 0.00629867 0)
(-0.107544 0.0647616 0)
(0.072508 0.048107 0)
(0.018389 -0.0752341 0)
(-0.0535043 0.0187542 0)
(-0.0678748 0.036692 0)
(-0.0555062 -0.0447102 0)
(0.0021367 -0.0994133 0)
(-0.150616 -0.0181998 0)
(-0.0419933 0.0382529 0)
(0.047247 -0.0320833 0)
(0.0146405 0.0413855 0)
(0.0100074 0.139655 0)
(0.0142056 0.0144141 0)
(-0.0347642 -0.0870122 0)
(-0.0741027 0.0655031 0)
(-0.00733336 -0.0181193 0)
(0.0450891 -0.0653066 0)
(-0.0618128 -0.04874 0)
(0.113401 0.139856 0)
(-0.0420226 0.0469912 0)
(0.00467565 -0.0169613 0)
(-0.000742583 0.0380067 0)
(0.227663 -0.0338525 0)
(0.0388402 0.0296673 0)
(-0.0987559 0.062257 0)
(0.037925 -0.010268 0)
(0.0194759 -0.0911763 0)
(0.05272 -0.029917 0)
(-0.0652578 0.140212 0)
(-0.10704 -0.0328583 0)
(-0.0283401 -0.00523059 0)
(0.062395 -0.0413485 0)
(-0.0845927 -0.0507407 0)
(-0.00914443 0.014527 0)
(0.000244373 0.0947316 0)
(-0.0134964 0.0801988 0)
(0.00413481 -0.0800263 0)
(-0.110202 0.051148 0)
(0.00974669 -0.087575 0)
(-0.195646 -0.0976123 0)
(-0.306723 0.0286852 0)
(0.0718251 0.0768876 0)
(0.0393959 0.102709 0)
(-0.00925142 -0.0465934 0)
(0.104904 0.0353509 0)
(0.198617 -0.0634963 0)
(-0.0406277 -0.137842 0)
(-0.100344 -0.00864485 0)
(-0.00170877 0.0540335 0)
(0.0926071 0.0751254 0)
(0.0898803 0.110649 0)
(0.168464 -0.0316664 0)
(-0.0598474 0.0493923 0)
(-0.0577301 -0.0387236 0)
(0.137681 -0.0569934 0)
(0.0393852 -0.0500961 0)
(0.0593289 -0.0759916 0)
(-0.0198637 -0.0135743 0)
(0.0279795 -0.0391183 0)
(0.0881939 0.114846 0)
(-0.0466907 0.0840155 0)
(0.00448508 -0.05672 0)
(-0.0146765 -0.11524 0)
(-0.00864008 -0.138157 0)
(0.0589761 -0.0404558 0)
(0.170655 0.0799881 0)
(-0.0888214 0.00768103 0)
(-0.260797 0.110679 0)
(-0.124045 -0.0409507 0)
(0.0449521 0.0996138 0)
(0.0303102 0.0980377 0)
(-0.0592269 -0.0628065 0)
(0.0822152 0.0365294 0)
(0.119164 0.0805337 0)
(-0.121777 0.00708753 0)
(-0.101557 -0.078862 0)
(-0.0730295 0.0731191 0)
(0.0179522 -0.0816809 0)
(0.0424197 -0.0577582 0)
(-0.0895358 0.0322717 0)
(-0.0211325 -0.00392448 0)
(-0.0431173 -0.128765 0)
(0.00418 -0.0523469 0)
(-0.0627201 0.151147 0)
(-0.0103198 0.0342081 0)
(0.132767 -0.143902 0)
(0.0144223 -0.0772919 0)
(-0.0265233 0.111682 0)
(-0.00162358 0.0898796 0)
(-0.0004151 -0.0429078 0)
(-0.0498171 -0.0408235 0)
(-0.0112717 0.0814282 0)
(-0.00338194 -0.0820931 0)
(-0.0382911 -0.101409 0)
(-0.131145 -0.0373661 0)
(0.067959 0.0492504 0)
(-0.0297287 0.0866421 0)
(-0.00165222 0.0859282 0)
(-0.0432488 0.0349571 0)
(0.0823447 0.0103652 0)
(0.0855916 -0.0253659 0)
(-0.0857524 -0.056173 0)
(0.0488544 -0.053772 0)
(0.0208854 0.134038 0)
(0.0966615 0.00159985 0)
(-0.127106 -0.0588144 0)
(0.0366024 -0.0296724 0)
(-0.0788529 -0.0936891 0)
(-0.0549815 -0.0224709 0)
(0.00838041 0.0750021 0)
(-0.025173 0.019967 0)
(0.142609 0.0256051 0)
(0.0138166 -0.000910318 0)
(-0.0899773 0.0752145 0)
(-0.114809 0.0725852 0)
(0.0275147 -0.108081 0)
(0.0488474 -0.152635 0)
(-0.0135223 -0.0196274 0)
(0.075533 0.050319 0)
(0.0410211 0.0146438 0)
(-0.00329786 -0.0298787 0)
(0.00241873 0.00805157 0)
(0.0167503 -0.0152587 0)
(-0.021469 0.0802922 0)
(-0.00441273 -0.0255196 0)
(0.00620981 0.0191158 0)
(0.057022 -0.0891386 0)
(-0.0994287 -0.051826 0)
(0.119264 0.203507 0)
(0.00784545 0.0479218 0)
(-0.124717 -0.0854101 0)
(0.0797457 -0.010376 0)
(-0.0135004 -0.039236 0)
(0.0224854 0.0524734 0)
(-0.165745 0.0238925 0)
(-0.0147209 -0.0545627 0)
(0.0393094 -0.102381 0)
(0.0352989 0.169621 0)
(-0.0733361 0.0157441 0)
(-0.00109409 -0.0346089 0)
(-0.0192219 0.00962032 0)
(-0.00832677 0.0173288 0)
(0.0493447 0.177801 0)
(-0.0876888 -0.0913001 0)
(0.0207344 -0.103339 0)
(-0.166827 0.0724735 0)
(-0.103865 0.0618317 0)
(0.0949483 -0.103933 0)
(0.00368889 -0.0635696 0)
(-0.039512 -0.0747146 0)
(-0.000840277 0.0185738 0)
(-0.0838037 0.0857909 0)
(-0.00556217 0.0494539 0)
(-0.0630654 0.00554537 0)
(0.084883 -0.224841 0)
(0.037989 -0.0397358 0)
(0.0179485 0.161446 0)
(-0.110849 -0.0904613 0)
(-0.158296 -0.256688 0)
(0.0628881 0.110992 0)
(0.129259 0.218904 0)
(0.0588728 -0.00900151 0)
(0.0357217 -0.0313629 0)
(-0.0074387 -0.0157593 0)
(-0.00173868 -0.127069 0)
(-0.0222227 0.0112828 0)
(0.0187756 0.173101 0)
(-0.0423368 0.0873846 0)
(-0.0344438 -0.0751858 0)
(-0.108151 -0.0223239 0)
(-0.0394408 0.019198 0)
(0.0207983 0.0126103 0)
(0.0132957 0.0283843 0)
(0.0357458 0.175709 0)
(-0.0669863 -0.101472 0)
(-0.0143809 -0.0370091 0)
(-0.033497 0.032919 0)
(-0.00686745 -0.0586726 0)
(-0.0931199 0.00985884 0)
(-0.0579085 0.0144658 0)
(0.0961637 -0.0937652 0)
(0.0114334 -0.151681 0)
(-0.0084327 0.052092 0)
(-0.0135374 0.122983 0)
(0.0183793 -0.0895307 0)
(0.0225476 -0.104439 0)
(0.0128069 0.0221435 0)
(0.026135 -0.00735881 0)
(0.0204445 0.0215135 0)
(0.0753496 0.0249357 0)
(0.0177322 0.0768525 0)
(-0.0031944 0.0418916 0)
(0.0821701 -0.103926 0)
(-0.0488782 -0.0732382 0)
(0.163156 -0.043564 0)
(-0.178277 0.0760576 0)
(0.0614067 0.200193 0)
(-0.000906017 0.0424517 0)
(0.000386635 -0.135306 0)
(-0.0585301 0.000517823 0)
(0.0862047 0.10548 0)
(0.0780886 0.0195521 0)
(-0.143234 -0.105061 0)
(-0.00781312 -0.017897 0)
(0.254063 0.100682 0)
(-0.0530376 0.056061 0)
(0.115965 -0.0497423 0)
(-0.0530561 -0.138147 0)
(0.0600133 0.0811428 0)
(0.0645096 -0.00509896 0)
(0.00733709 -0.0441903 0)
(0.0417305 0.10868 0)
(-0.055754 0.0208059 0)
(-0.00368348 0.0548941 0)
(-0.00976347 -0.00917614 0)
(0.00928092 -0.103992 0)
(0.0882876 -0.0649965 0)
(-0.0947389 -0.0415415 0)
(-0.115448 0.0124856 0)
(-0.0291134 0.032326 0)
(-0.000228443 -0.0384078 0)
(0.00322524 0.104467 0)
(0.00686036 -0.0771971 0)
(-0.00840199 -0.0745884 0)
(0.026005 0.0931402 0)
(0.0424576 0.118484 0)
(-0.0406081 0.033591 0)
(-0.0265935 -0.0634055 0)
(-0.0758185 0.138602 0)
(0.0260206 0.053479 0)
(0.0515154 -0.182814 0)
(0.00430194 -0.150491 0)
(0.00231823 0.149237 0)
(0.0480067 0.000337109 0)
(-0.0295845 -0.0677366 0)
(-0.0078779 -0.0361227 0)
(-0.0184886 -0.0649213 0)
(-0.0751351 0.0823988 0)
(-0.00869919 0.0968181 0)
(0.00751063 -0.0955374 0)
(-0.0213372 -0.0773968 0)
(-0.0536539 0.0530215 0)
(0.0179801 0.13097 0)
(0.0223181 0.0810958 0)
(-0.0441767 -0.0903949 0)
(-0.0967665 -0.0863686 0)
(0.00801719 -0.176067 0)
(0.028271 -0.00860169 0)
(-0.0982545 0.227786 0)
(-0.224952 0.0361551 0)
(-0.0185943 -0.0497742 0)
(0.0137232 0.0293915 0)
(-0.00162809 -0.0574438 0)
(0.103812 -0.0513988 0)
(-0.117945 -0.0430878 0)
(0.0910565 0.052383 0)
(-0.145705 0.0474866 0)
(0.0399267 -0.0704203 0)
(-0.18627 -0.146146 0)
(-0.170288 0.0496146 0)
(-0.145723 0.11419 0)
(-0.257048 0.00779271 0)
(-0.0811482 -0.12549 0)
(0.014688 -0.0444942 0)
(0.0468038 -0.0223092 0)
(0.0610005 0.0450789 0)
(-0.0274223 0.123869 0)
(0.0374158 0.0239534 0)
(-0.0285147 0.0233083 0)
(-0.139765 0.0498256 0)
(0.0423447 -0.0299249 0)
(0.0162348 -0.0942217 0)
(0.0749036 -0.0352175 0)
(0.0903636 0.193382 0)
(0.049896 0.0286661 0)
(-0.276508 -0.111648 0)
(0.156204 -0.0364057 0)
(-0.0187961 0.191805 0)
(0.091635 0.0884188 0)
(0.00566958 -0.239307 0)
(-0.0506054 -0.079538 0)
(-0.110408 -0.0375087 0)
(-0.0092222 0.0809593 0)
(0.103915 -0.0126678 0)
(-0.0714545 -0.0568105 0)
(0.0352388 -0.0970906 0)
(-0.0404466 -0.0504808 0)
(0.0107561 0.0607067 0)
(-0.000790649 -0.0484165 0)
(0.0243606 0.0838753 0)
(0.0332307 0.153558 0)
(-0.00675302 -0.074514 0)
(-0.0309272 -0.0499251 0)
(-0.0325829 0.0274295 0)
(-0.141605 -0.0504382 0)
(-0.0845499 0.0266722 0)
(0.0794849 0.126886 0)
(0.0501858 -0.102588 0)
(0.0548859 -0.0400698 0)
(0.057817 0.0538615 0)
(-0.137954 0.0729704 0)
(0.0634369 0.119794 0)
(0.113132 -0.0762518 0)
(-0.261121 -0.195823 0)
(0.0887193 0.0130036 0)
(-0.100975 0.0730661 0)
(0.0941801 -0.0739761 0)
(0.0130431 -0.0211797 0)
(-0.13466 -0.0359183 0)
(0.156565 -0.0158375 0)
(0.071566 0.0670715 0)
(-0.0466654 0.0346969 0)
(0.0586785 0.0402703 0)
(-0.157192 0.0926956 0)
(0.0250629 -0.0451503 0)
(0.124594 -0.0892196 0)
(0.0613233 -0.0356918 0)
(-0.0652305 0.0512773 0)
(-0.103218 -0.0276752 0)
(0.110578 -0.0584558 0)
(0.0080492 0.0174608 0)
(0.00723772 0.0209062 0)
(-0.0104953 0.0102729 0)
(-0.185546 -0.127981 0)
(-0.0768802 0.129049 0)
(-0.138494 0.0755711 0)
(0.215261 0.0162473 0)
(0.0654972 -0.0747301 0)
(0.168692 0.0183013 0)
(-0.0308377 0.201837 0)
(-0.233281 -0.138856 0)
(0.0767022 -0.121104 0)
(0.125586 0.0278049 0)
(0.0382059 -0.0448117 0)
(-0.025599 -0.047189 0)
(-0.0327546 0.0136652 0)
(-0.0992641 -0.00206637 0)
(-0.0270243 0.0601279 0)
(0.00500252 -0.137096 0)
(-0.0090886 -0.189146 0)
(0.0175334 0.193072 0)
(-0.00715444 0.0833148 0)
(0.0430408 0.000492828 0)
(-0.0148176 0.177135 0)
(-0.0776121 0.00359086 0)
(-0.0539931 -0.131783 0)
(-0.0836636 -0.0694272 0)
(-0.0243711 0.0149919 0)
(-0.00309254 0.172812 0)
(-0.0869066 0.000863708 0)
(-0.0642676 -0.0191944 0)
(-0.00880828 -0.00508892 0)
(0.0269747 -0.0303211 0)
(0.0443771 -0.0838219 0)
(0.0432423 -0.0374239 0)
(0.0270949 0.0173441 0)
(-0.0659832 0.115176 0)
(0.0260427 0.0731787 0)
(-0.0158687 0.0679829 0)
(-0.0797123 -0.0635165 0)
(-0.10677 -0.0443688 0)
(0.0905886 0.00100189 0)
(0.00566878 -0.227887 0)
(0.00393053 -0.181527 0)
(0.116599 0.145486 0)
(-0.207658 0.127383 0)
(0.018777 0.00664912 0)
(0.0262003 -0.0394201 0)
(-0.0147842 0.0116311 0)
(0.157791 0.145579 0)
(-0.148681 0.107469 0)
(-0.0720597 -0.0994967 0)
(-0.187337 0.0619577 0)
(-0.0252244 0.0759613 0)
(8.87205e-05 -0.00596266 0)
(-0.124759 -0.0741277 0)
(-0.0904604 -0.124375 0)
(-0.00295394 -0.0131651 0)
(0.0501371 0.169513 0)
(0.0753509 -0.109894 0)
(-0.0930398 -0.121699 0)
(-0.0661917 -0.0128445 0)
(-0.0858428 -0.0408652 0)
(0.0123409 -0.0425065 0)
(0.0654262 0.0988803 0)
(0.0636183 -0.0285448 0)
(-0.228499 -0.0372851 0)
(-0.0231837 -0.0533895 0)
(-0.00546933 -0.0462489 0)
(-0.138508 0.0471789 0)
(0.0957923 0.0930224 0)
(0.00288434 0.00415036 0)
(0.0398678 0.00778423 0)
(-0.00597634 -0.0419072 0)
(0.0396942 -0.0229525 0)
(-0.0807271 0.0541652 0)
(-0.0967586 0.0368597 0)
(0.0644265 -0.0575909 0)
(0.032988 -0.0140285 0)
(0.00625971 0.00823584 0)
(0.163108 0.0845541 0)
(0.259649 0.00165256 0)
(0.207983 0.188244 0)
(-0.0513067 0.0127226 0)
(0.00463815 -0.186311 0)
(-0.0800414 -0.0162003 0)
(0.0854897 0.00852109 0)
(-0.11531 0.0357521 0)
(-0.104291 -0.0981559 0)
(-0.0165298 -0.103725 0)
(0.0106355 0.0304527 0)
(-0.0513813 0.0608571 0)
(-0.0280591 0.117312 0)
(-0.0756966 0.0677334 0)
(-0.155281 -0.0534346 0)
(-0.0836003 -0.129918 0)
(0.103832 -0.00267965 0)
(-0.0124385 0.11478 0)
(0.102309 -0.0469957 0)
(0.0380445 -0.0846542 0)
(0.00179859 0.0424043 0)
(0.0180709 -0.0306713 0)
(0.00629862 0.0789031 0)
(0.0120852 -0.0491072 0)
(0.0306037 0.0806135 0)
(-0.04943 0.0533792 0)
(0.00278017 -0.125279 0)
(0.0474119 -0.0249688 0)
(0.0326008 0.0606593 0)
(-0.00148438 0.16864 0)
(0.0208255 -0.153262 0)
(0.050292 0.00356003 0)
(-0.0765742 0.000807774 0)
(-0.0184699 -0.0345595 0)
(-0.0314 -0.0938065 0)
(-0.077577 0.0223144 0)
(0.139823 0.0432179 0)
(0.10587 -0.0349054 0)
(0.0131222 0.101412 0)
(-0.260293 -0.16525 0)
(-0.0197898 -0.0941968 0)
(0.128652 0.195237 0)
(-0.0621117 0.0986986 0)
(0.0122121 0.0658479 0)
(0.0991999 -0.00240665 0)
(-0.00793482 -0.189158 0)
(0.0199039 -0.154907 0)
(-0.0128817 0.0425255 0)
(0.211201 0.207974 0)
(0.256621 0.098137 0)
(0.0359696 -0.0841749 0)
(-0.00506199 0.0197619 0)
(0.0356232 -0.0913994 0)
(0.0347868 -0.0759836 0)
(-0.136226 0.0295951 0)
(-0.0669812 0.0356193 0)
(-0.166369 0.067188 0)
(0.150684 0.0789762 0)
(0.132484 0.00219512 0)
(-0.126838 -0.103445 0)
(0.112722 0.033636 0)
(-0.101111 -0.041494 0)
(0.0857223 -0.0717477 0)
(0.0247573 -0.054862 0)
(0.0467051 0.000794688 0)
(0.191398 0.0488684 0)
(0.120644 0.0772945 0)
(-0.0945291 -0.111827 0)
(0.00494315 -0.00389382 0)
(-0.1507 0.18757 0)
(-0.0213655 0.0971845 0)
(-0.0770457 -0.121966 0)
(0.0308031 0.0489057 0)
(0.0929616 0.154514 0)
(-0.0390295 -0.0340181 0)
(0.0357853 -0.0555116 0)
(0.151804 -0.0891828 0)
(0.0636055 0.0572099 0)
(-0.035417 0.019905 0)
(0.0669884 -0.158202 0)
(-0.113323 -0.0947897 0)
(0.0284478 0.11147 0)
(-0.0701154 0.0219791 0)
(-0.0568445 -0.136975 0)
(0.0384368 -0.0193166 0)
(-0.0569533 -0.00482446 0)
(-0.0809196 0.0706477 0)
(-0.0426428 0.00896588 0)
(0.0220091 -0.0922872 0)
(-0.248481 0.0261109 0)
(-0.0218437 0.0504789 0)
(-0.0531901 -0.0278963 0)
(0.0126277 -0.0291558 0)
(-0.0990732 -0.0505995 0)
(0.0682331 0.0783256 0)
(-0.119799 0.10111 0)
(0.0157721 0.0089357 0)
(-0.109549 -0.115356 0)
(0.00970055 -0.017584 0)
(0.0161874 0.0292526 0)
(0.0242655 0.0111698 0)
(-0.0172375 -0.0488447 0)
(0.0337824 0.232095 0)
(-0.00445232 0.169517 0)
(0.0133083 -0.135632 0)
(-0.0456644 -0.0235419 0)
(0.070718 -0.0161469 0)
(-0.0343784 0.049548 0)
(0.0293559 -0.00543213 0)
(-0.0799754 -0.125873 0)
(-0.0423497 -0.0720059 0)
(-0.0157853 0.13095 0)
(-0.012063 0.121224 0)
(0.128 0.0310334 0)
(0.014782 -0.0229096 0)
(-0.0641172 -0.117889 0)
(0.0149608 0.0207432 0)
(-0.00969135 -0.0328979 0)
(-0.0114187 -0.128758 0)
(0.00182922 -0.0230878 0)
(0.00456019 -0.00809503 0)
(0.000342491 0.0465363 0)
(0.00718057 0.049539 0)
(0.0545628 -0.0540712 0)
(-0.0071862 0.0569972 0)
(-0.00919658 0.092717 0)
(-0.0226919 -0.0545122 0)
(-0.00941096 -0.075582 0)
(0.133235 -0.0238076 0)
(0.0587722 0.110374 0)
(0.0125777 0.173405 0)
(-0.0621875 -0.0800982 0)
(-0.0741174 -0.206775 0)
(-0.231343 0.0807568 0)
(0.0474025 -0.014166 0)
(-0.0412542 -0.0814907 0)
(0.124523 -0.0228276 0)
(0.0770464 -0.030742 0)
(-0.0684164 0.181339 0)
(0.0740981 -0.11817 0)
(0.0520534 -0.308096 0)
(-0.0347368 0.204277 0)
(-0.0036164 0.179891 0)
(-0.157656 -0.0144717 0)
(0.106067 -0.0259305 0)
(-0.101771 -0.0823168 0)
(-0.192307 -0.131683 0)
(-0.120764 0.00621345 0)
(0.0398749 0.0328693 0)
(-0.0179654 0.0558993 0)
(-0.0316294 0.0744546 0)
(-0.00678787 0.0831121 0)
(0.0218434 -0.028116 0)
(0.0399195 -0.115785 0)
(0.0143424 -0.066933 0)
(0.14079 0.0849019 0)
(0.021395 -0.0179894 0)
(0.0014472 -0.0202289 0)
(0.0272886 0.264146 0)
(-0.0323712 0.0175993 0)
(0.184678 -0.121611 0)
(0.0214901 -0.0753373 0)
(0.0879998 -0.0470081 0)
(-0.031455 -0.0271776 0)
(-0.0384344 -0.0995268 0)
(-0.173039 0.134681 0)
(-0.0303431 0.00152568 0)
(0.0447259 -0.085071 0)
(0.151983 0.0947816 0)
(0.015295 0.139192 0)
(-0.0110771 -0.0836156 0)
(0.122391 -0.10448 0)
(0.0851284 0.0326174 0)
(-0.0477691 0.0877074 0)
(-0.0209451 0.0871574 0)
(0.022336 -0.116171 0)
(0.0709284 -0.203851 0)
(0.00632497 0.158291 0)
(-0.0741113 0.0967488 0)
(-0.0355912 -0.135932 0)
(-0.00759731 0.00535274 0)
(-0.0790566 0.0952882 0)
(-0.0195762 0.0125151 0)
(0.0126887 -0.0623707 0)
(0.147242 -0.0167958 0)
(-0.0794128 -0.0224088 0)
(-0.213556 0.0101106 0)
(0.0631159 -0.0295859 0)
(-0.0120639 0.123019 0)
(0.00808899 0.0831584 0)
(-0.189174 -0.107057 0)
(-0.0260574 -0.0740522 0)
(-0.0394944 -0.0593836 0)
(-0.040326 -0.0804013 0)
(-0.0626269 0.0752948 0)
(0.0677717 0.106875 0)
(-0.00849375 -0.0609869 0)
(-0.0593019 -0.134402 0)
(0.0914781 -0.0532241 0)
(0.0196039 0.0171444 0)
(0.0837314 0.0883181 0)
(-0.212441 0.0443199 0)
(0.0230668 0.100856 0)
(-0.0198085 0.0537397 0)
(0.0653933 -0.0431605 0)
(-0.0447966 -0.0231964 0)
(-0.035894 -0.0701227 0)
(0.0266201 0.0292379 0)
(0.0564011 0.0279399 0)
(0.0207902 0.0439542 0)
(-0.0198164 -0.0554955 0)
(-0.0103332 -0.0394816 0)
(0.0160846 0.0437675 0)
(0.082051 0.0556121 0)
(-0.0682698 0.0700028 0)
(0.0426395 -0.124943 0)
(0.10392 0.00445207 0)
(0.00799973 0.00662204 0)
(-0.0104055 -0.171672 0)
(-0.0395625 -0.0844991 0)
(0.000870992 -0.0133918 0)
(0.00258319 -0.0268069 0)
(0.000419012 0.100281 0)
(0.00321098 0.089712 0)
(0.000261709 -0.10816 0)
(0.0149635 0.0254121 0)
(-0.00355173 0.0546524 0)
(-0.000588388 -0.188665 0)
(0.00622673 0.00704929 0)
(-0.000171838 0.188653 0)
(0.0386944 0.243227 0)
(-0.0438597 -0.0473647 0)
(-0.104854 -0.194344 0)
(0.0988887 0.00796534 0)
(0.0466835 -0.0645122 0)
(0.00299269 -0.216114 0)
(-0.00110623 -0.0255546 0)
(0.0101254 0.0757078 0)
(0.0465623 -0.0553667 0)
(0.0252658 -0.0140868 0)
(-0.0474322 0.0497355 0)
(-0.0227127 0.0536587 0)
(0.043591 0.0192628 0)
(-0.0450087 0.0348814 0)
(0.0717984 -0.0171839 0)
(-0.0274493 0.164425 0)
(-0.0161291 0.0972029 0)
(0.0279671 -0.174495 0)
(-0.00601603 -0.073337 0)
(-0.145111 -0.0472206 0)
(0.0867199 0.0909141 0)
(-0.0187427 0.103073 0)
(0.0295026 -0.00197226 0)
(0.0221186 -0.0591152 0)
(-0.0164935 -0.0298052 0)
(-0.0180673 0.0927663 0)
(-0.063294 -0.0113508 0)
(-0.00992405 -0.107614 0)
(0.0780731 0.204158 0)
(-0.0485347 0.0690333 0)
(0.0278098 -0.0952041 0)
(-0.0296905 -0.0395725 0)
(-0.0235727 -0.124542 0)
(0.0203371 -0.115179 0)
(-0.0353196 0.0712161 0)
(0.0160723 0.019994 0)
(0.000624169 -0.106952 0)
(-0.0498638 -0.0922093 0)
(0.0696714 0.100514 0)
(-0.0106718 0.143923 0)
(0.045362 0.0259077 0)
(-0.0631612 -0.0235097 0)
(0.087787 0.00810269 0)
(0.0152286 -0.0348272 0)
(-0.018148 0.0336674 0)
(0.110709 -0.00171472 0)
(-0.0212254 -0.125122 0)
(0.0575965 0.052311 0)
(0.0867592 0.096423 0)
(-0.0400789 -0.102334 0)
(0.0387935 -0.065565 0)
(0.0229536 0.0681908 0)
(0.0454883 0.0862543 0)
(0.010983 -0.0495373 0)
(0.00940075 -0.0995264 0)
(0.0360512 0.163601 0)
(-0.00982978 -0.00558998 0)
(-0.0143417 -0.156305 0)
(-0.11046 0.105564 0)
(0.0110716 -0.00337414 0)
(-0.0947918 -0.0954916 0)
(0.0939658 -0.0334088 0)
(0.116196 0.0442877 0)
(0.048725 0.0175478 0)
(0.0728748 -0.127076 0)
(0.217456 0.00585593 0)
(0.206523 0.10084 0)
(-0.170352 0.159448 0)
(0.0338343 -0.140432 0)
(-0.192085 -0.0370934 0)
(-0.0248139 0.123177 0)
(0.00964769 0.133611 0)
(0.0282567 0.0527056 0)
(0.00291796 -0.0375474 0)
(0.0150817 -0.0716985 0)
(-0.0049634 -0.0669915 0)
(-0.00450113 0.00637881 0)
(0.0260061 -0.0173478 0)
(-0.0272862 -0.00895398 0)
(0.00813968 0.0174873 0)
(0.0780106 0.0082358 0)
(-0.0603838 -0.101827 0)
(0.101105 0.0186682 0)
(0.0977108 -0.0402247 0)
(-0.0304276 0.0012219 0)
(0.151269 0.00145149 0)
(0.0136429 -0.016736 0)
(0.0114682 0.0336175 0)
(-0.0032662 -0.0808338 0)
(-0.0336465 -0.0139059 0)
(0.00163864 -0.0293125 0)
(0.0100213 0.081831 0)
(0.00667978 0.0900285 0)
(0.00134579 -0.0107375 0)
(-0.00265862 -0.0528944 0)
(-0.00283125 0.0953635 0)
(-0.00303115 -0.0378714 0)
(-0.0604673 -0.101959 0)
(0.0040208 -0.0731772 0)
(0.00745206 0.245966 0)
(0.0176818 0.108075 0)
(0.00187199 -0.0899367 0)
(0.00252358 -0.174891 0)
(0.0522877 -0.234489 0)
(0.0637195 0.131522 0)
(-0.0266893 0.000612178 0)
(0.0403194 -0.11395 0)
(0.0152465 0.050978 0)
(0.0330937 0.164934 0)
(0.0227899 -0.00775059 0)
(0.0112578 -0.16038 0)
(0.133067 -0.0204084 0)
(-0.0655862 0.124772 0)
(0.084006 0.00328948 0)
(0.0310429 0.0830105 0)
(0.000718671 0.0130982 0)
(-0.0148943 -0.149734 0)
(0.16892 -0.0563291 0)
(-0.0225955 0.0312348 0)
(0.00806483 0.17146 0)
(0.168922 0.114854 0)
(-0.101127 -0.0371733 0)
(-0.11017 0.0154179 0)
(-0.000780624 -0.0426703 0)
(-0.00493096 -0.0516928 0)
(-0.054929 0.0494949 0)
(0.0844919 -0.0157873 0)
(-0.159344 -0.00284266 0)
(-0.0388748 0.0962427 0)
(0.0244135 0.0377947 0)
(0.00167148 -0.0006633 0)
(0.010476 -0.0975949 0)
(-0.00551143 -0.107305 0)
(-0.0446468 -0.0529839 0)
(0.0195651 0.0488455 0)
(-0.0242793 -0.0379514 0)
(0.0162647 -0.0342432 0)
(-0.0100746 -0.0137101 0)
(0.0123607 0.00411465 0)
(-0.00338113 0.134832 0)
(0.0754862 -0.0364486 0)
(0.116924 0.0503401 0)
(-0.0240745 0.0112594 0)
(0.0275396 -0.0644599 0)
(0.0438997 0.0290877 0)
(0.0226071 0.0893976 0)
(0.00810679 -0.0322209 0)
(0.0122713 -0.0565691 0)
(-0.034603 0.0227046 0)
(0.00684149 0.000970676 0)
(0.0202051 0.00585625 0)
(-0.0206338 -0.01942 0)
(0.00103337 0.134935 0)
(-0.00332655 -0.0126029 0)
(0.0235076 -0.0616189 0)
(-0.0395486 -0.0330137 0)
(0.0221714 0.0643799 0)
(0.0908128 0.0881061 0)
(-0.233518 0.0502844 0)
(-0.0334571 -0.0376226 0)
(-0.117983 -0.0637211 0)
(-0.0477588 -0.20648 0)
(-0.0410337 0.0610885 0)
(-0.0223687 0.165116 0)
(-0.0528901 -0.00592396 0)
(-0.0750232 -0.0560287 0)
(-0.0123817 0.0706949 0)
(0.118194 0.0304501 0)
(0.327541 -0.0781112 0)
(-0.04855 0.0193568 0)
(0.0327507 -0.0103687 0)
(0.0985987 -0.0514168 0)