/*--------------------------------*- C++ -*----------------------------------*\
| =========                 |                                                 |
| \\      /  F ield         | OpenFOAM: The Open Source CFD Toolbox           |
|  \\    /   O peration     | Version:  v2012                                 |
|   \\  /    A nd           | Website:  www.openfoam.com                      |
|    \\/     M anipulation  |                                                 |
\*---------------------------------------------------------------------------*/
FoamFile
{
    version     2.0;
    format      ascii;
    class       volVectorField;
    location    "70";
    object      Usup;
}
// * * * * * * * * * * * * * * * * * * * * * * * * * * * * * * * * * * * * * //

dimensions      [0 1 -1 0 0 0 0];


internalField   nonuniform List<vector> 
4000
(
(0.000149836 -1.78214e-05 0)
(0.00037382 -0.000103209 0)
(0.000542695 -0.000129369 0)
(0.000785307 -0.000129691 0)
(0.00109854 -0.000156695 0)
(0.00143654 -0.000178769 0)
(0.00178739 -0.00017388 0)
(0.00220753 -0.000207555 0)
(0.00257966 -0.000304516 0)
(0.0027858 -0.000365512 0)
(0.00301212 -0.000316136 0)
(0.00330684 -0.000335538 0)
(0.00356376 -0.000383803 0)
(0.00376411 -0.000458202 0)
(0.00388872 -0.000521107 0)
(0.00404095 -0.000509842 0)
(0.00420614 -0.000536041 0)
(0.00440494 -0.000490283 0)
(0.00465928 -0.00048862 0)
(0.0048665 -0.000532947 0)
(0.00506971 -0.000506651 0)
(0.00528068 -0.000472446 0)
(0.00548642 -0.000500171 0)
(0.00567883 -0.000489365 0)
(0.0058412 -0.000520295 0)
(0.00596932 -0.00058408 0)
(0.00611417 -0.000645781 0)
(0.00630482 -0.000595171 0)
(0.00655137 -0.000567165 0)
(0.00677878 -0.000522666 0)
(0.00690649 -0.000540935 0)
(0.00701483 -0.00052567 0)
(0.00710334 -0.000553144 0)
(0.00719099 -0.000520951 0)
(0.00732766 -0.000484983 0)
(0.00747951 -0.000498905 0)
(0.00771029 -0.000474673 0)
(0.00794858 -0.000496206 0)
(0.00801886 -0.000554259 0)
(0.00802973 -0.000502076 0)
(0.0081349 -0.00045145 0)
(0.00822811 -0.000441641 0)
(0.00834315 -0.000394141 0)
(0.00855463 -0.000374623 0)
(0.0087636 -0.000360169 0)
(0.0089425 -0.0003235 0)
(0.0091023 -0.000326442 0)
(0.00926004 -0.000349362 0)
(0.00941217 -0.000356596 0)
(0.00957533 -0.000356569 0)
(0.00970754 -0.000389255 0)
(0.00977852 -0.000361534 0)
(0.00987365 -0.000350156 0)
(0.00996039 -0.00035702 0)
(0.0100379 -0.00033903 0)
(0.0101005 -0.000366866 0)
(0.010063 -0.000364257 0)
(0.0100812 -0.000332956 0)
(0.0102298 -0.000334639 0)
(0.0103874 -0.000331282 0)
(0.0105427 -0.000336107 0)
(0.0106539 -0.000324034 0)
(0.0107551 -0.000321769 0)
(0.0108795 -0.000323604 0)
(0.011006 -0.000333114 0)
(0.0111468 -0.000298586 0)
(0.0112697 -0.000272102 0)
(0.0113984 -0.000213713 0)
(0.0114916 -0.00020893 0)
(0.0115714 -0.000176179 0)
(0.0116816 -0.000159335 0)
(0.0117578 -0.000204466 0)
(0.0117295 -0.000237209 0)
(0.0116264 -0.000193873 0)
(0.0116507 -0.00011788 0)
(0.0117552 -4.69775e-05 0)
(0.0118134 -6.78059e-05 0)
(0.0118463 -5.45306e-05 0)
(0.0118189 -5.29774e-06 0)
(0.0117374 -1.21892e-05 0)
(0.0116353 -4.58615e-05 0)
(0.0115484 -2.71089e-05 0)
(0.0114186 -2.75047e-05 0)
(0.01125 3.12912e-05 0)
(0.0111084 8.29342e-05 0)
(0.0109819 0.000105048 0)
(0.0107962 8.58044e-05 0)
(0.0104949 7.56426e-05 0)
(0.0101315 8.64791e-05 0)
(0.00972249 0.000137887 0)
(0.00932759 0.000121233 0)
(0.00894095 9.29075e-05 0)
(0.00847921 9.22353e-05 0)
(0.00791497 0.000134538 0)
(0.00725332 0.000129329 0)
(0.00649357 7.35361e-05 0)
(0.00561636 2.48456e-05 0)
(0.00452144 -2.30255e-05 0)
(0.00313023 -2.15319e-05 0)
(0.00134899 -2.2013e-05 0)
(0.000363865 -6.64299e-05 0)
(0.00104063 -0.000262768 0)
(0.00167931 -0.000354513 0)
(0.00239793 -0.000394158 0)
(0.00325557 -0.000475132 0)
(0.00422669 -0.000519023 0)
(0.00521184 -0.000544071 0)
(0.00624447 -0.000641234 0)
(0.00722319 -0.000822128 0)
(0.00801969 -0.000976213 0)
(0.00874449 -0.000990352 0)
(0.00946841 -0.00104811 0)
(0.0101446 -0.00119097 0)
(0.0107217 -0.0013654 0)
(0.0112222 -0.0015131 0)
(0.0117205 -0.00153616 0)
(0.0122499 -0.00155908 0)
(0.0128483 -0.00150163 0)
(0.0134605 -0.0015151 0)
(0.0140834 -0.0015219 0)
(0.0147324 -0.00150479 0)
(0.0152916 -0.00148055 0)
(0.0158575 -0.00148622 0)
(0.0164023 -0.00149931 0)
(0.0168287 -0.00160261 0)
(0.0172222 -0.00174815 0)
(0.0177552 -0.0018274 0)
(0.0183639 -0.00174159 0)
(0.0190034 -0.00166237 0)
(0.0195675 -0.00163411 0)
(0.0199515 -0.00166791 0)
(0.0202865 -0.00159516 0)
(0.0205951 -0.00160363 0)
(0.0209408 -0.00155456 0)
(0.0213018 -0.00150254 0)
(0.0217407 -0.0015033 0)
(0.0223251 -0.00143885 0)
(0.0228474 -0.00148271 0)
(0.0231714 -0.00158245 0)
(0.0233958 -0.0014724 0)
(0.0236613 -0.00136438 0)
(0.0239593 -0.00129601 0)
(0.0243311 -0.00120129 0)
(0.024855 -0.00115172 0)
(0.0254275 -0.00105675 0)
(0.025921 -0.000965989 0)
(0.0263416 -0.000974873 0)
(0.0267903 -0.00104132 0)
(0.0272433 -0.00106812 0)
(0.0276656 -0.00111311 0)
(0.0280556 -0.00114019 0)
(0.0283383 -0.00113096 0)
(0.0285859 -0.0010704 0)
(0.0288414 -0.00105443 0)
(0.0290476 -0.00101405 0)
(0.0292107 -0.00106627 0)
(0.0292597 -0.00103694 0)
(0.0293726 -0.000987379 0)
(0.0297191 -0.00101258 0)
(0.0301298 -0.00101265 0)
(0.030548 -0.000984252 0)
(0.0308864 -0.000976463 0)
(0.0311878 -0.000966046 0)
(0.0315298 -0.000976308 0)
(0.031916 -0.000945535 0)
(0.032324 -0.00086571 0)
(0.0326903 -0.000801379 0)
(0.0330192 -0.00066007 0)
(0.0332736 -0.000604131 0)
(0.0335205 -0.000526265 0)
(0.0337321 -0.000509878 0)
(0.0338761 -0.000557581 0)
(0.0339093 -0.000598614 0)
(0.0338212 -0.000520924 0)
(0.0338955 -0.000344685 0)
(0.0340305 -0.000227419 0)
(0.034116 -0.000197772 0)
(0.0342214 -0.000163556 0)
(0.0341207 -8.17269e-05 0)
(0.0338443 -8.47698e-05 0)
(0.0335831 -0.000134211 0)
(0.0333246 -6.73381e-05 0)
(0.0329743 1.03815e-05 0)
(0.0325452 0.000136273 0)
(0.0320738 0.000206247 0)
(0.031572 0.000260139 0)
(0.0309464 0.000237805 0)
(0.0301061 0.000231127 0)
(0.029116 0.000276076 0)
(0.0279344 0.000339726 0)
(0.0266959 0.000351537 0)
(0.0254902 0.000328377 0)
(0.024126 0.000328071 0)
(0.022435 0.000348712 0)
(0.020393 0.000303839 0)
(0.0180877 0.000204843 0)
(0.0154471 8.06293e-05 0)
(0.0122491 4.74307e-07 0)
(0.00827216 -2.10569e-05 0)
(0.00331106 -2.80326e-05 0)
(0.000566252 -0.00011741 0)
(0.00168172 -0.000394383 0)
(0.00279151 -0.000535447 0)
(0.0039789 -0.000597886 0)
(0.00536242 -0.00073977 0)
(0.00690324 -0.000816964 0)
(0.00843556 -0.000953944 0)
(0.0100199 -0.00108127 0)
(0.0115309 -0.00129954 0)
(0.0128259 -0.00150835 0)
(0.0140482 -0.00163804 0)
(0.015202 -0.00173611 0)
(0.0162551 -0.00196297 0)
(0.0172149 -0.00222328 0)
(0.0180969 -0.00250027 0)
(0.0189862 -0.0026134 0)
(0.0198857 -0.00258163 0)
(0.0208286 -0.00253404 0)
(0.021838 -0.00257549 0)
(0.0228366 -0.0025165 0)
(0.0238155 -0.00248108 0)
(0.0247574 -0.0024789 0)
(0.0256624 -0.00242258 0)
(0.0264701 -0.0024635 0)
(0.0271639 -0.0026437 0)
(0.027892 -0.00284706 0)
(0.0288125 -0.00290786 0)
(0.0297957 -0.00286585 0)
(0.0307384 -0.00277303 0)
(0.0315757 -0.00281811 0)
(0.0322879 -0.00279133 0)
(0.0328886 -0.00270021 0)
(0.0333893 -0.00263521 0)
(0.0339571 -0.00255484 0)
(0.0345637 -0.00247675 0)
(0.035294 -0.00245413 0)
(0.0361512 -0.0024096 0)
(0.0368962 -0.00243349 0)
(0.0374949 -0.00248635 0)
(0.0379708 -0.00240283 0)
(0.0384323 -0.00229019 0)
(0.0389362 -0.00218005 0)
(0.0395321 -0.00201228 0)
(0.04037 -0.00188129 0)
(0.0412647 -0.00173853 0)
(0.041991 -0.00162962 0)
(0.0426231 -0.00161341 0)
(0.0433344 -0.00167756 0)
(0.0440477 -0.00174272 0)
(0.0447365 -0.00180799 0)
(0.0453659 -0.00182245 0)
(0.0458669 -0.00185948 0)
(0.0463169 -0.00182277 0)
(0.0467103 -0.001823 0)
(0.0470218 -0.00173533 0)
(0.0473058 -0.00173914 0)
(0.0474804 -0.00170764 0)
(0.0476807 -0.00162881 0)
(0.0481957 -0.00166142 0)
(0.0488634 -0.00167021 0)
(0.0495023 -0.00164292 0)
(0.0500316 -0.00163457 0)
(0.0505337 -0.00160729 0)
(0.0511081 -0.00156579 0)
(0.0517458 -0.00145279 0)
(0.0523647 -0.00135687 0)
(0.0529613 -0.00126884 0)
(0.0534894 -0.00113175 0)
(0.0538818 -0.00102326 0)
(0.0542355 -0.000931063 0)
(0.0545389 -0.000921155 0)
(0.0547619 -0.000906263 0)
(0.0548465 -0.000907634 0)
(0.0548302 -0.000799358 0)
(0.0549367 -0.000573668 0)
(0.0550853 -0.000447832 0)
(0.0551846 -0.000340494 0)
(0.0552695 -0.000305555 0)
(0.0550916 -0.000262626 0)
(0.0546578 -0.000219748 0)
(0.0542635 -0.000176778 0)
(0.053875 -5.86122e-05 0)
(0.0532957 9.42205e-05 0)
(0.0525378 0.000252242 0)
(0.0517273 0.00031369 0)
(0.0508553 0.00040937 0)
(0.049776 0.000399363 0)
(0.0484251 0.000407353 0)
(0.0468078 0.000467506 0)
(0.0449098 0.000494642 0)
(0.0428927 0.000534832 0)
(0.0408203 0.000538124 0)
(0.0384758 0.000544482 0)
(0.0356455 0.000544101 0)
(0.0323055 0.00045958 0)
(0.0284934 0.000327691 0)
(0.024139 0.000182219 0)
(0.0189488 7.55562e-05 0)
(0.0125915 4.64775e-05 0)
(0.00486271 1.01176e-05 0)
(0.000740415 -0.000152637 0)
(0.00229551 -0.000499145 0)
(0.00391902 -0.000702252 0)
(0.00553519 -0.000792259 0)
(0.00736805 -0.000916448 0)
(0.00939637 -0.00111613 0)
(0.0114419 -0.00136644 0)
(0.0135291 -0.00151438 0)
(0.0155015 -0.00176126 0)
(0.0173067 -0.00200725 0)
(0.0190051 -0.00221018 0)
(0.020529 -0.00245844 0)
(0.0219015 -0.00271953 0)
(0.0231788 -0.00303061 0)
(0.0244547 -0.00340065 0)
(0.0258306 -0.00363443 0)
(0.0271417 -0.00368034 0)
(0.0283821 -0.00361531 0)
(0.0297279 -0.00360961 0)
(0.0311239 -0.00354913 0)
(0.0324362 -0.00346887 0)
(0.033705 -0.00341055 0)
(0.0349138 -0.0033464 0)
(0.0359293 -0.00342568 0)
(0.0368442 -0.003668 0)
(0.0379081 -0.00385998 0)
(0.0392131 -0.00390364 0)
(0.040558 -0.00390288 0)
(0.0417781 -0.00389544 0)
(0.0429059 -0.00392715 0)
(0.0439261 -0.00383489 0)
(0.0447683 -0.00377274 0)
(0.0455165 -0.00366021 0)
(0.0463216 -0.0035256 0)
(0.0471259 -0.00343697 0)
(0.0480655 -0.00336003 0)
(0.0491757 -0.00330859 0)
(0.0501583 -0.00334726 0)
(0.0509926 -0.00336458 0)
(0.0517119 -0.00329535 0)
(0.0523913 -0.00317751 0)
(0.0531552 -0.00306395 0)
(0.0540209 -0.00280247 0)
(0.0550748 -0.00256584 0)
(0.0562058 -0.00244674 0)
(0.057171 -0.00231806 0)
(0.0580081 -0.00225493 0)
(0.0589207 -0.00226758 0)
(0.0598745 -0.00235054 0)
(0.0608083 -0.00245267 0)
(0.0616442 -0.00251674 0)
(0.0623332 -0.00252867 0)
(0.0629467 -0.0025529 0)
(0.06355 -0.0026062 0)
(0.064032 -0.00252071 0)
(0.064396 -0.00245731 0)
(0.0647167 -0.00243339 0)
(0.0650409 -0.00230208 0)
(0.065674 -0.00225511 0)
(0.0665324 -0.00227814 0)
(0.0673806 -0.00231353 0)
(0.0681218 -0.0022814 0)
(0.0688424 -0.00217579 0)
(0.0696484 -0.00202258 0)
(0.0704792 -0.00185138 0)
(0.0712715 -0.00175162 0)
(0.0720521 -0.00169203 0)
(0.072754 -0.00157562 0)
(0.0732908 -0.00146471 0)
(0.0737398 -0.00134063 0)
(0.0741295 -0.00128639 0)
(0.0744252 -0.00125734 0)
(0.0745883 -0.00124271 0)
(0.0746735 -0.00109914 0)
(0.0748032 -0.00080625 0)
(0.0749249 -0.000622804 0)
(0.0749828 -0.000517924 0)
(0.0750074 -0.000468602 0)
(0.0747772 -0.000470525 0)
(0.0742617 -0.000367713 0)
(0.0737314 -0.000231271 0)
(0.0731582 -5.26701e-05 0)
(0.0723571 0.000163456 0)
(0.0712981 0.000362295 0)
(0.070151 0.00046948 0)
(0.0688765 0.000566418 0)
(0.0673185 0.000563783 0)
(0.0654718 0.000559646 0)
(0.0632578 0.000606833 0)
(0.0606671 0.000654398 0)
(0.0578826 0.000721395 0)
(0.0549671 0.00074921 0)
(0.0516913 0.000758487 0)
(0.0477397 0.000722929 0)
(0.0430771 0.000643409 0)
(0.0378224 0.000504504 0)
(0.0318406 0.000358883 0)
(0.0248081 0.000170355 0)
(0.0163193 0.00015265 0)
(0.00614964 7.26855e-05 0)
(0.000914189 -0.000166686 0)
(0.00287287 -0.000541039 0)
(0.00497085 -0.000839647 0)
(0.00706666 -0.00102395 0)
(0.00927929 -0.00119056 0)
(0.0116858 -0.0014527 0)
(0.0142443 -0.00168646 0)
(0.0168231 -0.00191386 0)
(0.0192154 -0.00214313 0)
(0.0214317 -0.00239576 0)
(0.0234949 -0.00273162 0)
(0.0254142 -0.00317535 0)
(0.0271827 -0.0035816 0)
(0.0287688 -0.00389288 0)
(0.0303669 -0.00422944 0)
(0.0321344 -0.00452879 0)
(0.0338953 -0.00470669 0)
(0.0355321 -0.00472768 0)
(0.037207 -0.00464329 0)
(0.0389262 -0.0045266 0)
(0.0405604 -0.00443073 0)
(0.042136 -0.00432759 0)
(0.0435681 -0.00430076 0)
(0.0447559 -0.00449781 0)
(0.0459479 -0.00472809 0)
(0.0473866 -0.00485381 0)
(0.0490139 -0.00483715 0)
(0.0506111 -0.00482335 0)
(0.0521094 -0.00486719 0)
(0.0535646 -0.00489267 0)
(0.0548557 -0.00481234 0)
(0.0559418 -0.00474257 0)
(0.0569431 -0.00462796 0)
(0.057939 -0.00447005 0)
(0.058966 -0.00439475 0)
(0.060153 -0.00423921 0)
(0.0614213 -0.00416995 0)
(0.0625913 -0.00422167 0)
(0.0636938 -0.00422531 0)
(0.0646604 -0.00416488 0)
(0.0655507 -0.00401237 0)
(0.0665783 -0.00386311 0)
(0.0677184 -0.00358729 0)
(0.0689457 -0.00334559 0)
(0.0702748 -0.00317849 0)
(0.0714717 -0.00303127 0)
(0.0724987 -0.00291968 0)
(0.0735843 -0.00285994 0)
(0.0746928 -0.00296861 0)
(0.0758297 -0.00312504 0)
(0.0769226 -0.00323436 0)
(0.07781 -0.00322374 0)
(0.0785569 -0.00322951 0)
(0.0793317 -0.00326722 0)
(0.0800043 -0.00327859 0)
(0.0804954 -0.00322256 0)
(0.0809618 -0.00317186 0)
(0.081449 -0.00300318 0)
(0.0821716 -0.00284318 0)
(0.0831363 -0.00285033 0)
(0.0841882 -0.0029125 0)
(0.0851918 -0.00283673 0)
(0.0861505 -0.00263168 0)
(0.0871416 -0.0023895 0)
(0.0881074 -0.00216235 0)
(0.0890049 -0.00204075 0)
(0.0899576 -0.00199307 0)
(0.0908424 -0.00192882 0)
(0.0915245 -0.00185194 0)
(0.0920824 -0.00172478 0)
(0.0925189 -0.00163097 0)
(0.0928567 -0.00159424 0)
(0.0931038 -0.00154879 0)
(0.0933286 -0.00136536 0)
(0.0934985 -0.00108612 0)
(0.0935403 -0.000869466 0)
(0.0935379 -0.000714885 0)
(0.0934794 -0.000604976 0)
(0.0931946 -0.000603441 0)
(0.0926297 -0.000471143 0)
(0.0919781 -0.000279393 0)
(0.0912598 -4.38435e-05 0)
(0.0902269 0.00022391 0)
(0.0888389 0.000438384 0)
(0.0873218 0.00057484 0)
(0.0856379 0.000648769 0)
(0.0836203 0.000687046 0)
(0.0812835 0.000725062 0)
(0.0785212 0.000761752 0)
(0.0753013 0.000820672 0)
(0.0717833 0.000945383 0)
(0.0680119 0.00102981 0)
(0.0637506 0.00104369 0)
(0.0587254 0.000941326 0)
(0.0528791 0.00086665 0)
(0.0462437 0.0006996 0)
(0.0386812 0.000533005 0)
(0.0299606 0.000329071 0)
(0.0195802 0.000246682 0)
(0.00722963 0.000111033 0)
(0.00108414 -0.000210324 0)
(0.00341197 -0.000548915 0)
(0.00593689 -0.0009199 0)
(0.00844812 -0.00122162 0)
(0.011063 -0.00144184 0)
(0.0139153 -0.00168953 0)
(0.0168795 -0.00193346 0)
(0.0198627 -0.00226565 0)
(0.0226833 -0.00258735 0)
(0.0252351 -0.00290931 0)
(0.0275793 -0.00328463 0)
(0.0298031 -0.00378752 0)
(0.0319855 -0.00434319 0)
(0.0339852 -0.0047182 0)
(0.0359064 -0.00507546 0)
(0.0380166 -0.00538565 0)
(0.0401455 -0.00567871 0)
(0.0421957 -0.0057748 0)
(0.0442637 -0.0056186 0)
(0.0462862 -0.00544925 0)
(0.048199 -0.00532812 0)
(0.0500166 -0.00529205 0)
(0.0515897 -0.00540198 0)
(0.0529836 -0.00560315 0)
(0.0545007 -0.0057175 0)
(0.0562832 -0.00572895 0)
(0.0582239 -0.00572726 0)
(0.0600582 -0.00573149 0)
(0.0617784 -0.00575386 0)
(0.0635079 -0.00576677 0)
(0.0650788 -0.00571498 0)
(0.0663992 -0.00561113 0)
(0.0676477 -0.00553727 0)
(0.0688551 -0.00536469 0)
(0.0700956 -0.00522614 0)
(0.0714781 -0.00506782 0)
(0.0728859 -0.00504175 0)
(0.0742505 -0.00507532 0)
(0.0755753 -0.00506882 0)
(0.0767981 -0.00498035 0)
(0.0779321 -0.0047957 0)
(0.07919 -0.00460521 0)
(0.0805501 -0.00436199 0)
(0.0819748 -0.00413499 0)
(0.0835008 -0.00392167 0)
(0.08489 -0.00378889 0)
(0.0861188 -0.0036404 0)
(0.0873113 -0.003517 0)
(0.0885296 -0.00362667 0)
(0.0898628 -0.00377314 0)
(0.0911923 -0.00389145 0)
(0.0922975 -0.00390363 0)
(0.0931893 -0.00391485 0)
(0.0940793 -0.00392981 0)
(0.0949009 -0.00399459 0)
(0.0955662 -0.00394655 0)
(0.0962218 -0.00384595 0)
(0.0968955 -0.00364419 0)
(0.0976982 -0.00344464 0)
(0.0987166 -0.00338745 0)
(0.0999622 -0.00341261 0)
(0.101239 -0.00326884 0)
(0.10242 -0.00301183 0)
(0.103579 -0.0027286 0)
(0.104655 -0.00247707 0)
(0.105639 -0.00228578 0)
(0.106686 -0.0021558 0)
(0.107694 -0.00217177 0)
(0.108532 -0.00212695 0)
(0.109213 -0.00206647 0)
(0.109716 -0.00202777 0)
(0.110108 -0.00199261 0)
(0.110461 -0.00181824 0)
(0.110764 -0.00157622 0)
(0.110944 -0.00132309 0)
(0.11098 -0.00109888 0)
(0.110929 -0.000912147 0)
(0.110755 -0.000751329 0)
(0.110387 -0.000673344 0)
(0.109781 -0.00052717 0)
(0.109023 -0.00027055 0)
(0.108127 -8.28414e-06 0)
(0.106854 0.000232628 0)
(0.105161 0.00043992 0)
(0.103287 0.000619454 0)
(0.101216 0.000745942 0)
(0.0987853 0.000811802 0)
(0.0959516 0.000881627 0)
(0.0926208 0.000943775 0)
(0.0888147 0.00101678 0)
(0.0846154 0.00116859 0)
(0.0800138 0.00132927 0)
(0.074794 0.00131022 0)
(0.0687342 0.00122635 0)
(0.0617109 0.00114659 0)
(0.0537721 0.000944128 0)
(0.0448099 0.000710245 0)
(0.0345244 0.000550315 0)
(0.0224145 0.0003252 0)
(0.008183 0.000102824 0)
(0.00130079 -0.000224347 0)
(0.00397059 -0.000566011 0)
(0.00680767 -0.00093964 0)
(0.00975726 -0.0013331 0)
(0.0127822 -0.00159133 0)
(0.0159675 -0.00187074 0)
(0.0192729 -0.0022176 0)
(0.0226016 -0.00264148 0)
(0.0257901 -0.00304785 0)
(0.0287264 -0.00352362 0)
(0.0313846 -0.0039467 0)
(0.0338685 -0.00439579 0)
(0.0363957 -0.00493847 0)
(0.03876 -0.00544307 0)
(0.041011 -0.00587917 0)
(0.0434135 -0.0062272 0)
(0.0459117 -0.00654881 0)
(0.0484567 -0.00662993 0)
(0.0509037 -0.00649917 0)
(0.0531699 -0.00640535 0)
(0.0552718 -0.00640166 0)
(0.0572333 -0.00643988 0)
(0.0590344 -0.00653523 0)
(0.0607485 -0.00655393 0)
(0.0625956 -0.00657534 0)
(0.0646245 -0.0065086 0)
(0.0667557 -0.00648873 0)
(0.0688294 -0.00653147 0)
(0.0708076 -0.00655468 0)
(0.0727884 -0.00656459 0)
(0.0746155 -0.00658352 0)
(0.0761481 -0.00647553 0)
(0.0776164 -0.0063855 0)
(0.0790706 -0.00624996 0)
(0.080499 -0.00606192 0)
(0.0820176 -0.00590648 0)
(0.0835578 -0.00586505 0)
(0.0851162 -0.0058321 0)
(0.0866954 -0.00584607 0)
(0.0881685 -0.00575318 0)
(0.0895088 -0.00562056 0)
(0.0909632 -0.00541386 0)
(0.0925285 -0.00514305 0)
(0.0941471 -0.00484519 0)
(0.0958291 -0.00462252 0)
(0.0974012 -0.00449312 0)
(0.0988376 -0.00433355 0)
(0.100138 -0.00422155 0)
(0.101436 -0.00428803 0)
(0.102935 -0.00438329 0)
(0.104472 -0.00449166 0)
(0.105759 -0.0045698 0)
(0.106803 -0.00459623 0)
(0.107817 -0.00461297 0)
(0.1088 -0.00462345 0)
(0.109665 -0.00457755 0)
(0.110496 -0.00444423 0)
(0.111317 -0.00427549 0)
(0.112213 -0.00405077 0)
(0.113308 -0.00388382 0)
(0.114729 -0.00374707 0)
(0.116249 -0.00357943 0)
(0.11762 -0.00335161 0)
(0.118914 -0.00310464 0)
(0.120114 -0.00286191 0)
(0.121213 -0.00259779 0)
(0.12229 -0.00240254 0)
(0.123367 -0.00238364 0)
(0.124334 -0.00238237 0)
(0.125084 -0.00236989 0)
(0.125662 -0.00232235 0)
(0.126219 -0.00228129 0)
(0.126698 -0.00202148 0)
(0.127026 -0.00171927 0)
(0.127201 -0.00147262 0)
(0.127183 -0.00129267 0)
(0.127086 -0.00113837 0)
(0.126849 -0.000967958 0)
(0.126393 -0.000802399 0)
(0.125733 -0.00061285 0)
(0.124871 -0.000283448 0)
(0.123774 6.75102e-06 0)
(0.122259 0.000274191 0)
(0.120304 0.000511458 0)
(0.11812 0.00075805 0)
(0.115646 0.000870573 0)
(0.112768 0.000929439 0)
(0.109483 0.000993441 0)
(0.105643 0.00112032 0)
(0.101267 0.00125022 0)
(0.096443 0.00141278 0)
(0.0910098 0.00156268 0)
(0.0848443 0.00152999 0)
(0.077836 0.00145659 0)
(0.0697246 0.00138979 0)
(0.0605355 0.00123877 0)
(0.0502829 0.000979924 0)
(0.0385603 0.000763763 0)
(0.0248573 0.000431625 0)
(0.00903325 0.000135686 0)
(0.00147314 -0.00022205 0)
(0.00449349 -0.000664916 0)
(0.00764612 -0.00097958 0)
(0.0109307 -0.00133617 0)
(0.0143386 -0.00170689 0)
(0.0178508 -0.00209817 0)
(0.0214417 -0.00255886 0)
(0.0251114 -0.00302589 0)
(0.0286104 -0.00348937 0)
(0.0318448 -0.00406433 0)
(0.0348784 -0.00459275 0)
(0.0376577 -0.00499456 0)
(0.040416 -0.005524 0)
(0.0430848 -0.0061469 0)
(0.0456897 -0.00662569 0)
(0.048437 -0.00698816 0)
(0.0513057 -0.00722282 0)
(0.0542267 -0.00736135 0)
(0.0569578 -0.0074121 0)
(0.0594161 -0.00738859 0)
(0.0617541 -0.00740839 0)
(0.0640124 -0.00742377 0)
(0.0661027 -0.00743758 0)
(0.0680423 -0.00743515 0)
(0.0701021 -0.00739608 0)
(0.0723853 -0.00732402 0)
(0.0747086 -0.00723908 0)
(0.0769675 -0.00725494 0)
(0.0791595 -0.00728641 0)
(0.0813269 -0.00731932 0)
(0.0834037 -0.00739222 0)
(0.0852085 -0.00732287 0)
(0.0868702 -0.00715393 0)
(0.0885364 -0.00702008 0)
(0.0901763 -0.00685529 0)
(0.0918347 -0.00671379 0)
(0.093533 -0.00664175 0)
(0.0952301 -0.00657802 0)
(0.0969623 -0.006563 0)
(0.0986494 -0.00653567 0)
(0.100223 -0.00645945 0)
(0.101943 -0.00621153 0)
(0.10374 -0.00583543 0)
(0.105509 -0.00546684 0)
(0.107295 -0.00524887 0)
(0.109023 -0.00514229 0)
(0.110618 -0.00502219 0)
(0.112014 -0.00497317 0)
(0.113435 -0.00493798 0)
(0.115077 -0.00491748 0)
(0.116739 -0.00501325 0)
(0.118205 -0.00514989 0)
(0.119424 -0.00520194 0)
(0.120591 -0.00521903 0)
(0.121712 -0.00520962 0)
(0.122728 -0.00520255 0)
(0.123718 -0.00504974 0)
(0.124708 -0.00485078 0)
(0.12577 -0.00460019 0)
(0.126995 -0.00432465 0)
(0.12852 -0.00399713 0)
(0.130145 -0.00379415 0)
(0.131666 -0.00363326 0)
(0.133115 -0.00344916 0)
(0.134475 -0.0031994 0)
(0.135687 -0.00290783 0)
(0.136801 -0.00268725 0)
(0.137895 -0.00260436 0)
(0.138932 -0.00262167 0)
(0.139823 -0.00264103 0)
(0.14049 -0.00256051 0)
(0.141146 -0.00243976 0)
(0.141765 -0.00220692 0)
(0.142098 -0.00190736 0)
(0.142199 -0.00164952 0)
(0.142146 -0.00149733 0)
(0.142029 -0.00133345 0)
(0.141757 -0.00114849 0)
(0.141241 -0.000936792 0)
(0.140534 -0.000657011 0)
(0.139563 -0.000318786 0)
(0.138268 -6.8432e-06 0)
(0.136531 0.000286521 0)
(0.13432 0.000561899 0)
(0.131768 0.000849084 0)
(0.12888 0.000993211 0)
(0.125629 0.00107072 0)
(0.121945 0.00116975 0)
(0.117637 0.00130966 0)
(0.1127 0.0014759 0)
(0.107215 0.00165237 0)
(0.101015 0.00174276 0)
(0.0940028 0.00175652 0)
(0.0860977 0.00168415 0)
(0.0769872 0.00161747 0)
(0.0666529 0.00150701 0)
(0.0551568 0.00126191 0)
(0.0421051 0.000971698 0)
(0.0270235 0.000614286 0)
(0.00977074 0.000211686 0)
(0.00161099 -0.000240073 0)
(0.0049937 -0.000713979 0)
(0.00851692 -0.00108636 0)
(0.0120606 -0.00145692 0)
(0.0157083 -0.00186879 0)
(0.0194856 -0.002328 0)
(0.0233978 -0.00287847 0)
(0.027384 -0.00340717 0)
(0.0311419 -0.00402572 0)
(0.0346625 -0.00458434 0)
(0.0380601 -0.00509497 0)
(0.0411335 -0.0055559 0)
(0.0440663 -0.00613213 0)
(0.0470149 -0.00679383 0)
(0.049986 -0.00728172 0)
(0.0530826 -0.00763704 0)
(0.0562502 -0.00784932 0)
(0.0594285 -0.00805089 0)
(0.0624872 -0.00824746 0)
(0.065263 -0.00826068 0)
(0.0678162 -0.00820084 0)
(0.070254 -0.00815089 0)
(0.0725311 -0.0081665 0)
(0.074737 -0.00819849 0)
(0.0770787 -0.00815145 0)
(0.079576 -0.00812284 0)
(0.0820696 -0.00804949 0)
(0.0844773 -0.00802196 0)
(0.086854 -0.00805466 0)
(0.0892044 -0.00804592 0)
(0.0914947 -0.00804869 0)
(0.0935813 -0.00800853 0)
(0.0954637 -0.00783896 0)
(0.0972755 -0.00766732 0)
(0.0990664 -0.00755236 0)
(0.100871 -0.00747911 0)
(0.102705 -0.00744169 0)
(0.104566 -0.0073866 0)
(0.106457 -0.00731357 0)
(0.108309 -0.00723136 0)
(0.110144 -0.00707231 0)
(0.112155 -0.00676179 0)
(0.114151 -0.00642647 0)
(0.116 -0.00615746 0)
(0.11784 -0.00599121 0)
(0.119689 -0.00583954 0)
(0.121428 -0.00571098 0)
(0.123002 -0.00566147 0)
(0.124604 -0.0055269 0)
(0.126318 -0.00543677 0)
(0.128034 -0.00550493 0)
(0.129632 -0.00564112 0)
(0.131028 -0.0057292 0)
(0.132338 -0.00576468 0)
(0.133579 -0.00578887 0)
(0.134783 -0.00573636 0)
(0.135987 -0.00557074 0)
(0.137116 -0.00527387 0)
(0.13831 -0.0049653 0)
(0.139711 -0.00465585 0)
(0.141332 -0.00431576 0)
(0.142986 -0.00407907 0)
(0.144598 -0.00391202 0)
(0.146208 -0.00372107 0)
(0.147732 -0.00341983 0)
(0.149046 -0.00312109 0)
(0.150191 -0.00286143 0)
(0.151297 -0.00276274 0)
(0.15237 -0.00275568 0)
(0.153348 -0.00282642 0)
(0.154158 -0.00282559 0)
(0.154924 -0.00262394 0)
(0.1556 -0.00238108 0)
(0.155981 -0.00210429 0)
(0.156052 -0.00180018 0)
(0.155938 -0.0015949 0)
(0.155798 -0.00138672 0)
(0.155486 -0.0011994 0)
(0.154941 -0.00101067 0)
(0.154158 -0.000698358 0)
(0.153045 -0.000390362 0)
(0.151576 -5.61562e-05 0)
(0.149628 0.000258561 0)
(0.147189 0.000535979 0)
(0.144349 0.000885375 0)
(0.141075 0.00114851 0)
(0.137419 0.00125804 0)
(0.133329 0.00136794 0)
(0.128573 0.00147572 0)
(0.123135 0.00165485 0)
(0.117034 0.00185528 0)
(0.110116 0.001974 0)
(0.102309 0.00199458 0)
(0.0935496 0.00189441 0)
(0.0835356 0.00182359 0)
(0.072151 0.00169972 0)
(0.0595127 0.00147991 0)
(0.0452776 0.00119539 0)
(0.0289167 0.000787243 0)
(0.0103765 0.0002707 0)
(0.00175662 -0.000235582 0)
(0.0054213 -0.000686125 0)
(0.00922541 -0.00118874 0)
(0.013063 -0.00169423 0)
(0.0169946 -0.00217577 0)
(0.0209992 -0.00261818 0)
(0.0251351 -0.00312529 0)
(0.0293476 -0.00371475 0)
(0.033409 -0.00441999 0)
(0.0372938 -0.00504108 0)
(0.0409543 -0.00558808 0)
(0.0442227 -0.00614667 0)
(0.0473526 -0.0067252 0)
(0.0505881 -0.00736434 0)
(0.0539048 -0.0078591 0)
(0.0573286 -0.00821066 0)
(0.0607746 -0.00846193 0)
(0.0641643 -0.00864715 0)
(0.0674848 -0.00887542 0)
(0.0705766 -0.00898977 0)
(0.0733994 -0.009009 0)
(0.0760332 -0.00892406 0)
(0.0784863 -0.00883434 0)
(0.0808865 -0.0087864 0)
(0.0833971 -0.00876192 0)
(0.0860981 -0.00876821 0)
(0.0888116 -0.00875187 0)
(0.0913762 -0.00872842 0)
(0.0939299 -0.00875119 0)
(0.0964856 -0.0086987 0)
(0.0989418 -0.00862464 0)
(0.10122 -0.00857355 0)
(0.103317 -0.00847071 0)
(0.105276 -0.00834043 0)
(0.107173 -0.00827407 0)
(0.109099 -0.00823197 0)
(0.111106 -0.00819283 0)
(0.113146 -0.00810489 0)
(0.115211 -0.00797021 0)
(0.11727 -0.00781456 0)
(0.11932 -0.00757227 0)
(0.12148 -0.00727538 0)
(0.12356 -0.00705483 0)
(0.12552 -0.00692044 0)
(0.127538 -0.00674612 0)
(0.129554 -0.00647322 0)
(0.131386 -0.00627159 0)
(0.133091 -0.00618366 0)
(0.134838 -0.00608055 0)
(0.136614 -0.00600237 0)
(0.13838 -0.00603345 0)
(0.140088 -0.00612178 0)
(0.141626 -0.00617325 0)
(0.143075 -0.00622409 0)
(0.144486 -0.00625497 0)
(0.145861 -0.0061547 0)
(0.147248 -0.00594996 0)
(0.148564 -0.00563526 0)
(0.149858 -0.00523734 0)
(0.151334 -0.00484207 0)
(0.153035 -0.00454953 0)
(0.154765 -0.00433363 0)
(0.156482 -0.00414981 0)
(0.158256 -0.0038976 0)
(0.159915 -0.00356831 0)
(0.161308 -0.00333184 0)
(0.162472 -0.00309675 0)
(0.163562 -0.0029485 0)
(0.164636 -0.00289506 0)
(0.165661 -0.00295365 0)
(0.166642 -0.00293624 0)
(0.167563 -0.00277419 0)
(0.168295 -0.00250484 0)
(0.168702 -0.00219136 0)
(0.16875 -0.00187438 0)
(0.168593 -0.00158108 0)
(0.168394 -0.00135568 0)
(0.167998 -0.00123181 0)
(0.167418 -0.00104526 0)
(0.166592 -0.000733547 0)
(0.165375 -0.000455902 0)
(0.163764 -0.000114147 0)
(0.161601 0.000221445 0)
(0.158964 0.00055761 0)
(0.155874 0.000964027 0)
(0.1522 0.00128308 0)
(0.148138 0.00141923 0)
(0.143656 0.00150608 0)
(0.138497 0.00164056 0)
(0.132613 0.00182263 0)
(0.125947 0.00202493 0)
(0.118347 0.00212173 0)
(0.109766 0.00213614 0)
(0.100236 0.00205862 0)
(0.0893926 0.0019108 0)
(0.0770743 0.00173328 0)
(0.063432 0.00158611 0)
(0.0480774 0.00133115 0)
(0.0305592 0.000894998 0)
(0.0108995 0.000301481 0)
(0.00190382 -0.000257588 0)
(0.00580732 -0.000736392 0)
(0.00982047 -0.00128888 0)
(0.0139083 -0.00185946 0)
(0.0181326 -0.00241784 0)
(0.0224235 -0.00292519 0)
(0.02676 -0.00342037 0)
(0.0311298 -0.0039926 0)
(0.0353866 -0.00465454 0)
(0.0395354 -0.00535267 0)
(0.0434779 -0.00611349 0)
(0.0470128 -0.00677003 0)
(0.0503562 -0.00726674 0)
(0.0538219 -0.00781553 0)
(0.0574471 -0.00833648 0)
(0.0611543 -0.00870814 0)
(0.064867 -0.00902719 0)
(0.0684776 -0.00922915 0)
(0.0719977 -0.00943993 0)
(0.0753305 -0.00957798 0)
(0.0784274 -0.00963865 0)
(0.0813358 -0.0096307 0)
(0.0839691 -0.00949204 0)
(0.0865032 -0.00938548 0)
(0.089174 -0.00931375 0)
(0.0920271 -0.00925394 0)
(0.0948976 -0.00929505 0)
(0.0976246 -0.00932552 0)
(0.100363 -0.00934676 0)
(0.103118 -0.00929487 0)
(0.105732 -0.00918953 0)
(0.108156 -0.00911463 0)
(0.110406 -0.00904478 0)
(0.112496 -0.00897077 0)
(0.114522 -0.00893284 0)
(0.116603 -0.00886042 0)
(0.118763 -0.00880657 0)
(0.120984 -0.00873824 0)
(0.123211 -0.00856072 0)
(0.125425 -0.00833307 0)
(0.127647 -0.00807284 0)
(0.129925 -0.00779545 0)
(0.132086 -0.00764988 0)
(0.134188 -0.00753038 0)
(0.136415 -0.00731318 0)
(0.13857 -0.00706499 0)
(0.140453 -0.00685178 0)
(0.142229 -0.00672132 0)
(0.144091 -0.0066362 0)
(0.145963 -0.00653488 0)
(0.147803 -0.00648413 0)
(0.149622 -0.00652491 0)
(0.151269 -0.00656067 0)
(0.152811 -0.00660572 0)
(0.154371 -0.0066372 0)
(0.155954 -0.00650269 0)
(0.157517 -0.00625553 0)
(0.15899 -0.00591268 0)
(0.160448 -0.00547555 0)
(0.161977 -0.00502468 0)
(0.163675 -0.00471742 0)
(0.165457 -0.0045261 0)
(0.167302 -0.00428756 0)
(0.169223 -0.00399309 0)
(0.170931 -0.00369656 0)
(0.172364 -0.00354986 0)
(0.173619 -0.00336675 0)
(0.174753 -0.00319124 0)
(0.175817 -0.00302369 0)
(0.176892 -0.00294719 0)
(0.177964 -0.0028493 0)
(0.178992 -0.00278983 0)
(0.17983 -0.00258364 0)
(0.180269 -0.00227159 0)
(0.180321 -0.00193264 0)
(0.180103 -0.00152347 0)
(0.17977 -0.0012637 0)
(0.179322 -0.00118315 0)
(0.178765 -0.000973939 0)
(0.177854 -0.000689611 0)
(0.176517 -0.000452955 0)
(0.17479 -0.000138202 0)
(0.172478 0.000163402 0)
(0.169669 0.000541065 0)
(0.166325 0.000914286 0)
(0.162285 0.00126993 0)
(0.15781 0.00153133 0)
(0.152981 0.00163204 0)
(0.14746 0.00181088 0)
(0.141135 0.0019955 0)
(0.133924 0.00213768 0)
(0.125704 0.00214713 0)
(0.11648 0.00217375 0)
(0.10618 0.0021429 0)
(0.0945384 0.00192307 0)
(0.0814667 0.00172031 0)
(0.0669594 0.00158032 0)
(0.0505942 0.00130553 0)
(0.0319958 0.000881612 0)
(0.0113316 0.000303886 0)
(0.00202703 -0.000266114 0)
(0.00614923 -0.00081911 0)
(0.0103646 -0.00139961 0)
(0.0146713 -0.00202409 0)
(0.0191209 -0.00263199 0)
(0.0236434 -0.00322064 0)
(0.0282021 -0.00372704 0)
(0.0327597 -0.00428956 0)
(0.0371905 -0.004963 0)
(0.0414565 -0.00565234 0)
(0.0455912 -0.00648485 0)
(0.049486 -0.00722084 0)
(0.0531153 -0.00778951 0)
(0.0567415 -0.00827361 0)
(0.0605861 -0.00878469 0)
(0.0645466 -0.00918687 0)
(0.0684976 -0.00949672 0)
(0.0723403 -0.00973831 0)
(0.0760753 -0.00994913 0)
(0.0796392 -0.0100722 0)
(0.0829255 -0.0100618 0)
(0.0860561 -0.0100537 0)
(0.0889257 -0.0100308 0)
(0.0916145 -0.00994596 0)
(0.0944222 -0.00981 0)
(0.0973653 -0.00973421 0)
(0.100331 -0.00976932 0)
(0.103223 -0.00985448 0)
(0.106144 -0.00988807 0)
(0.109092 -0.00984407 0)
(0.111858 -0.00975647 0)
(0.114396 -0.00964872 0)