/*--------------------------------*- C++ -*----------------------------------*\
| =========                 |                                                 |
| \\      /  F ield         | OpenFOAM: The Open Source CFD Toolbox           |
|  \\    /   O peration     | Version:  v2012                                 |
|   \\  /    A nd           | Website:  www.openfoam.com                      |
|    \\/     M anipulation  |                                                 |
\*---------------------------------------------------------------------------*/
FoamFile
{
    version     2.0;
    format      ascii;
    class       surfaceScalarField;
    location    "1.75";
    object      phi;
}
// * * * * * * * * * * * * * * * * * * * * * * * * * * * * * * * * * * * * * //

dimensions      [0 3 -1 0 0 0 0];
oriented        oriented;


internalField   nonuniform List<scalar> 
130560
(
3.4426e-06
-3.4426e-06
6.88497e-06
-3.44237e-06
1.03269e-05
-3.44192e-06
1.37681e-05
-3.44125e-06
1.72085e-05
-3.44035e-06
2.06477e-05
-3.43922e-06
2.40856e-05
-3.43785e-06
2.75218e-05
-3.43626e-06
3.09562e-05
-3.43442e-06
3.43886e-05
-3.43235e-06
3.78186e-05
-3.43003e-06
4.12461e-05
-3.42745e-06
4.46707e-05
-3.42463e-06
4.80922e-05
-3.42154e-06
5.15104e-05
-3.41818e-06
5.4925e-05
-3.41455e-06
5.83356e-05
-3.41064e-06
6.1742e-05
-3.40644e-06
6.5144e-05
-3.40194e-06
6.85411e-05
-3.39714e-06
7.19331e-05
-3.39203e-06
7.53197e-05
-3.38659e-06
7.87006e-05
-3.38083e-06
8.20753e-05
-3.37473e-06
8.54436e-05
-3.36827e-06
8.8805e-05
-3.36146e-06
9.21593e-05
-3.35428e-06
9.5506e-05
-3.34671e-06
9.88448e-05
-3.33876e-06
0.000102175
-3.3304e-06
0.000105497
-3.32162e-06
0.000108809
-3.31243e-06
0.000112112
-3.30279e-06
0.000115405
-3.29271e-06
0.000118687
-3.28217e-06
0.000121958
-3.27115e-06
0.000125218
-3.25965e-06
0.000128465
-3.24765e-06
0.0001317
-3.23515e-06
0.000134923
-3.22212e-06
0.000138131
-3.20857e-06
0.000141326
-3.19447e-06
0.000144505
-3.17981e-06
0.00014767
-3.16459e-06
0.000150819
-3.14878e-06
0.000153951
-3.13239e-06
0.000157067
-3.1154e-06
0.000160164
-3.09779e-06
0.000163244
-3.07957e-06
0.000166305
-3.06071e-06
0.000169346
-3.04121e-06
0.000172367
-3.02106e-06
0.000175367
-3.00024e-06
0.000178346
-2.97876e-06
0.000181303
-2.95661e-06
0.000184236
-2.93377e-06
0.000187147
-2.91023e-06
0.000190033
-2.886e-06
0.000192894
-2.86107e-06
0.000195729
-2.83543e-06
0.000198538
-2.80908e-06
0.00020132
-2.782e-06
0.000204074
-2.75421e-06
0.0002068
-2.72569e-06
0.000209496
-2.69645e-06
0.000212163
-2.66649e-06
0.000214799
-2.63579e-06
0.000217403
-2.60438e-06
0.000219975
-2.57223e-06
0.000222515
-2.53937e-06
0.000225021
-2.50578e-06
0.000227492
-2.47148e-06
0.000229928
-2.43647e-06
0.000232329
-2.40075e-06
0.000234694
-2.36433e-06
0.000237021
-2.32722e-06
0.00023931
-2.28942e-06
0.000241561
-2.25095e-06
0.000243773
-2.2118e-06
0.000245945
-2.172e-06
0.000248077
-2.13156e-06
0.000250167
-2.09048e-06
0.000252216
-2.04878e-06
0.000254222
-2.00646e-06
0.000256186
-1.96356e-06
0.000258106
-1.92007e-06
0.000259982
-1.87602e-06
0.000261813
-1.83142e-06
0.0002636
-1.78628e-06
0.00026534
-1.74063e-06
0.000267035
-1.69448e-06
0.000268683
-1.64785e-06
0.000270283
-1.60076e-06
0.000271837
-1.55323e-06
0.000273342
-1.50527e-06
0.000274799
-1.45691e-06
0.000276207
-1.40816e-06
0.000277566
-1.35905e-06
0.000278876
-1.3096e-06
0.000280135
-1.25983e-06
0.000281345
-1.20975e-06
0.000282504
-1.1594e-06
0.000283613
-1.10878e-06
0.000284671
-1.05793e-06
0.000285678
-1.00686e-06
0.000286634
-9.5559e-07
0.000287538
-9.04149e-07
0.00028839
-8.52553e-07
0.000289191
-8.00823e-07
0.00028994
-7.48981e-07
0.000290637
-6.97046e-07
0.000291282
-6.45039e-07
0.000291875
-5.9298e-07
0.000292416
-5.40887e-07
0.000292905
-4.88781e-07
0.000293342
-4.3668e-07
0.000293726
-3.84604e-07
0.000294059
-3.32569e-07
0.000294339
-2.80594e-07
0.000294568
-2.28696e-07
0.000294745
-1.76893e-07
0.00029487
-1.25201e-07
0.000294944
-7.36362e-08
0.000294966
-2.2214e-08
0.000294937
2.905e-08
0.000294857
8.01411e-08
0.000294726
1.31045e-07
0.000294544
1.81747e-07
0.000294312
2.32235e-07
0.000294029
2.82494e-07
0.000293697
3.32513e-07
0.000293314
3.8228e-07
0.000292883
4.31781e-07
0.000292402
4.81007e-07
0.000291872
5.29945e-07
0.000291293
5.78586e-07
0.000290666
6.26919e-07
0.000289991
6.74934e-07
0.000289269
7.22621e-07
0.000288499
7.69972e-07
0.000287682
8.16977e-07
0.000286818
8.63628e-07
0.000285908
9.09916e-07
0.000284952
9.55833e-07
0.000283951
1.00137e-06
0.000282904
1.04652e-06
0.000281813
1.09128e-06
0.000280678
1.13564e-06
0.000279498
1.17959e-06
0.000278275
1.22313e-06
0.000277009
1.26625e-06
0.0002757
1.30894e-06
0.000274348
1.3512e-06
0.000272955
1.39302e-06
0.000271521
1.43439e-06
0.000270046
1.47531e-06
0.00026853
1.51578e-06
0.000266974
1.55579e-06
0.000265379
1.59533e-06
0.000263744
1.6344e-06
0.000262071
1.67299e-06
0.00026036
1.71111e-06
0.000258612
1.74874e-06
0.000256826
1.78588e-06
0.000255003
1.82252e-06
0.000253144
1.85867e-06
0.00025125
1.89431e-06
0.000249321
1.92945e-06
0.000247357
1.96408e-06
0.000245358
1.9982e-06
0.000243327
2.03181e-06
0.000241262
2.06489e-06
0.000239164
2.09745e-06
0.000237035
2.12949e-06
0.000234874
2.16101e-06
0.000232682
2.19199e-06
0.000230459
2.22245e-06
0.000228207
2.25237e-06
0.000225925
2.28176e-06
0.000223615
2.31061e-06
0.000221276
2.33893e-06
0.000218909
2.36672e-06
0.000216515
2.39396e-06
0.000214094
2.42067e-06
0.000211647
2.44685e-06
0.000209175
2.47249e-06
0.000206677
2.49759e-06
0.000204155
2.52216e-06
0.000201609
2.5462e-06
0.000199039
2.56971e-06
0.000196447
2.59268e-06
0.000193831
2.61513e-06
0.000191194
2.63706e-06
0.000188536
2.65846e-06
0.000185857
2.67935e-06
0.000183157
2.69972e-06
0.000180437
2.71958e-06
0.000177698
2.73893e-06
0.000174941
2.75778e-06
0.000172164
2.77613e-06
0.00016937
2.79399e-06
0.000166559
2.81135e-06
0.000163731
2.82824e-06
0.000160886
2.84464e-06
0.000158026
2.86057e-06
0.00015515
2.87603e-06
0.000152259
2.89103e-06
0.000149353
2.90558e-06
0.000146433
2.91967e-06
0.0001435
2.93333e-06
0.000140554
2.94655e-06
0.000137594
2.95933e-06
0.000134622
2.9717e-06
0.000131639
2.98365e-06
0.000128644
2.99519e-06
0.000125637
3.00634e-06
0.00012262
3.01708e-06
0.000119593
3.02745e-06
0.000116555
3.03743e-06
0.000113508
3.04704e-06
0.000110452
3.05628e-06
0.000107387
3.06517e-06
0.000104313
3.07371e-06
0.000101231
3.0819e-06
9.81415e-05
3.08976e-06
9.50442e-05
3.09729e-06
9.19397e-05
3.1045e-06
8.88283e-05
3.11139e-06
8.57103e-05
3.11798e-06
8.2586e-05
3.12426e-06
7.94558e-05
3.13025e-06
7.63198e-05
3.13596e-06
7.31785e-05
3.14138e-06
7.00319e-05
3.14652e-06
6.68805e-05
3.1514e-06
6.37245e-05
3.15601e-06
6.05642e-05
3.16036e-06
5.73997e-05
3.16446e-06
5.42314e-05
3.16832e-06
5.10595e-05
3.17193e-06
4.78842e-05
3.1753e-06
4.47057e-05
3.17844e-06
4.15244e-05
3.18135e-06
3.83403e-05
3.18404e-06
3.51538e-05
3.1865e-06
3.19651e-05
3.18875e-06
2.87743e-05
3.19078e-06
2.55817e-05
3.1926e-06
2.23875e-05
3.19421e-06
1.91919e-05
3.19562e-06
1.5995e-05
3.19682e-06
1.27972e-05
3.19782e-06
9.59861e-06
3.19861e-06
6.3994e-06
3.19921e-06
3.1998e-06
3.1996e-06
3.1998e-06
3.44282e-06
-6.88542e-06
6.88541e-06
-6.88497e-06
1.03276e-05
-6.88407e-06
1.3769e-05
-6.88272e-06
1.72096e-05
-6.88092e-06
2.06491e-05
-6.87866e-06
2.40871e-05
-6.87594e-06
2.75236e-05
-6.87275e-06
3.09583e-05
-6.86909e-06
3.43909e-05
-6.86494e-06
3.78212e-05
-6.8603e-06
4.12489e-05
-6.85516e-06
4.46738e-05
-6.84951e-06
4.80956e-05
-6.84334e-06
5.1514e-05
-6.83663e-06
5.49288e-05
-6.82938e-06
5.83398e-05
-6.82156e-06
6.17465e-05
-6.81317e-06
6.51487e-05
-6.80418e-06
6.85462e-05
-6.79459e-06
7.19385e-05
-6.78438e-06
7.53255e-05
-6.77352e-06
7.87066e-05
-6.762e-06
8.20817e-05
-6.7498e-06
8.54503e-05
-6.7369e-06
8.88122e-05
-6.72329e-06
9.21668e-05
-6.70893e-06
9.55139e-05
-6.69381e-06
9.88531e-05
-6.67791e-06
0.000102184
-6.66121e-06
0.000105506
-6.64367e-06
0.000108819
-6.62529e-06
0.000112122
-6.60603e-06
0.000115415
-6.58588e-06
0.000118698
-6.5648e-06
0.000121969
-6.54278e-06
0.00012523
-6.51979e-06
0.000128478
-6.49581e-06
0.000131713
-6.47082e-06
0.000134936
-6.44478e-06
0.000138145
-6.41768e-06
0.00014134
-6.38949e-06
0.000144521
-6.36018e-06
0.000147686
-6.32975e-06
0.000150835
-6.29815e-06
0.000153968
-6.26538e-06
0.000157084
-6.23141e-06
0.000160183
-6.19621e-06
0.000163263
-6.15976e-06
0.000166324
-6.12206e-06
0.000169366
-6.08307e-06
0.000172388
-6.04277e-06
0.000175389
-6.00116e-06
0.000178368
-5.9582e-06
0.000181325
-5.9139e-06
0.00018426
-5.86822e-06
0.000187171
-5.82117e-06
0.000190057
-5.77271e-06
0.000192919
-5.72285e-06
0.000195755
-5.67157e-06
0.000198565
-5.61887e-06
0.000201348
-5.56473e-06
0.000204103
-5.50914e-06
0.000206829
-5.45211e-06
0.000209526
-5.39363e-06
0.000212194
-5.3337e-06
0.00021483
-5.27232e-06
0.000217435
-5.20948e-06
0.000220008
-5.14519e-06
0.000222548
-5.07945e-06
0.000225055
-5.01228e-06
0.000227527
-4.94367e-06
0.000229964
-4.87364e-06
0.000232366
-4.8022e-06
0.000234731
-4.72935e-06
0.000237058
-4.65512e-06
0.000239349
-4.57952e-06
0.0002416
-4.50256e-06
0.000243813
-4.42426e-06
0.000245985
-4.34465e-06
0.000248117
-4.26375e-06
0.000250209
-4.18158e-06
0.000252258
-4.09816e-06
0.000254265
-4.01352e-06
0.000256229
-3.9277e-06
0.00025815
-3.84071e-06
0.000260026
-3.75259e-06
0.000261858
-3.66337e-06
0.000263645
-3.57308e-06
0.000265386
-3.48176e-06
0.000267081
-3.38944e-06
0.00026873
-3.29617e-06
0.000270331
-3.20196e-06
0.000271884
-3.10688e-06
0.00027339
-3.01094e-06
0.000274847
-2.9142e-06
0.000276256
-2.81669e-06
0.000277615
-2.71845e-06
0.000278925
-2.61953e-06
0.000280185
-2.51996e-06
0.000281395
-2.41979e-06
0.000282555
-2.31905e-06
0.000283664
-2.2178e-06
0.000284722
-2.11607e-06
0.000285729
-2.01391e-06
0.000286685
-1.91136e-06
0.000287589
-1.80845e-06
0.000288442
-1.70524e-06
0.000289243
-1.60176e-06
0.000289992
-1.49806e-06
0.000290689
-1.39417e-06
0.000291334
-1.29013e-06
0.000291927
-1.18599e-06
0.000292468
-1.08179e-06
0.000292957
-9.77559e-07
0.000293394
-8.73339e-07
0.000293778
-7.69167e-07
0.000294111
-6.65079e-07
0.000294391
-5.61112e-07
0.00029462
-4.573e-07
0.000294797
-3.53678e-07
0.000294922
-2.50277e-07
0.000294995
-1.47131e-07
0.000295017
-4.42718e-08
0.000294988
5.82711e-08
0.000294908
1.60468e-07
0.000294776
2.62289e-07
0.000294594
3.63707e-07
0.000294362
4.64695e-07
0.000294079
5.65227e-07
0.000293746
6.65278e-07
0.000293364
7.64822e-07
0.000292932
8.63837e-07
0.000292451
9.62299e-07
0.00029192
1.06019e-06
0.000291341
1.15748e-06
0.000290714
1.25415e-06
0.000290039
1.35019e-06
0.000289316
1.44558e-06
0.000288546
1.54029e-06
0.000287728
1.63431e-06
0.000286864
1.72762e-06
0.000285954
1.8202e-06
0.000284998
1.91204e-06
0.000283996
2.00313e-06
0.000282949
2.09344e-06
0.000281858
2.18297e-06
0.000280721
2.27169e-06
0.000279541
2.3596e-06
0.000278318
2.44668e-06
0.000277051
2.53292e-06
0.000275742
2.61831e-06
0.00027439
2.70283e-06
0.000272997
2.78647e-06
0.000271562
2.86923e-06
0.000270086
2.95108e-06
0.00026857
3.03202e-06
0.000267014
3.11204e-06
0.000265418
3.19113e-06
0.000263783
3.26927e-06
0.00026211
3.34647e-06
0.000260398
3.4227e-06
0.000258649
3.49796e-06
0.000256862
3.57224e-06
0.000255039
3.64554e-06
0.00025318
3.71784e-06
0.000251285
3.78913e-06
0.000249355
3.85942e-06
0.000247391
3.92868e-06
0.000245392
3.99692e-06
0.00024336
4.06413e-06
0.000241294
4.1303e-06
0.000239196
4.19543e-06
0.000237066
4.25951e-06
0.000234905
4.32254e-06
0.000232712
4.38451e-06
0.000230489
4.44542e-06
0.000228236
4.50527e-06
0.000225954
4.56405e-06
0.000223643
4.62176e-06
0.000221304
4.6784e-06
0.000218936
4.73397e-06
0.000216542
4.78846e-06
0.000214121
4.84189e-06
0.000211673
4.89423e-06
0.0002092
4.94551e-06
0.000206702
4.99572e-06
0.000204179
5.04486e-06
0.000201633
5.09293e-06
0.000199062
5.13994e-06
0.000196469
5.18589e-06
0.000193853
5.23079e-06
0.000191216
5.27464e-06
0.000188557
5.31745e-06
0.000185877
5.35922e-06
0.000183177
5.39996e-06
0.000180457
5.43967e-06
0.000177717
5.47837e-06
0.000174959
5.51606e-06
0.000172182
5.55276e-06
0.000169388
5.58847e-06
0.000166576
5.62319e-06
0.000163747
5.65695e-06
0.000160902
5.68975e-06
0.000158041
5.72161e-06
0.000155165
5.75252e-06
0.000152273
5.78252e-06
0.000149367
5.8116e-06
0.000146447
5.83979e-06
0.000143513
5.86709e-06
0.000140566
5.89352e-06
0.000137607
5.91909e-06
0.000134634
5.94382e-06
0.00013165
5.96771e-06
0.000128655
5.99079e-06
0.000125648
6.01307e-06
0.000122631
6.03456e-06
0.000119603
6.05527e-06
0.000116565
6.07523e-06
0.000113518
6.09444e-06
0.000110461
6.11292e-06
0.000107395
6.13069e-06
0.000104321
6.14776e-06
0.000101239
6.16414e-06
9.8149e-05
6.17985e-06
9.50514e-05
6.1949e-06
9.19466e-05
6.20931e-06
8.88349e-05
6.22309e-06
8.57166e-05
6.23626e-06
8.25921e-05
6.24882e-06
7.94615e-05
6.2608e-06
7.63253e-05
6.27219e-06
7.31836e-05
6.28303e-06
7.00368e-05
6.29331e-06
6.68852e-05
6.30306e-06
6.37289e-05
6.31228e-06
6.05683e-05
6.32098e-06
5.74036e-05
6.32918e-06
5.4235e-05
6.33688e-06
5.10629e-05
6.3441e-06
4.78873e-05
6.35084e-06
4.47086e-05
6.35712e-06
4.15271e-05
6.36293e-06
3.83428e-05
6.3683e-06
3.51561e-05
6.37323e-06
3.19671e-05
6.37772e-06
2.87761e-05
6.38178e-06
2.55833e-05
6.38541e-06
2.23889e-05
6.38863e-06
1.91931e-05
6.39144e-06
1.5996e-05
6.39384e-06
1.2798e-05
6.39583e-06
9.59921e-06
6.39742e-06
6.3998e-06
6.39861e-06
3.2e-06
6.3994e-06
6.3998e-06
3.44327e-06
-1.03287e-05
6.88631e-06
-1.0328e-05
1.03289e-05
-1.03267e-05
1.37708e-05
-1.03246e-05
1.72119e-05
-1.0322e-05
2.06518e-05
-1.03186e-05
2.40903e-05
-1.03145e-05
2.75273e-05
-1.03097e-05
3.09624e-05
-1.03042e-05
3.43955e-05
-1.0298e-05
3.78263e-05
-1.02911e-05
4.12545e-05
-1.02834e-05
4.46799e-05
-1.02749e-05
4.81023e-05
-1.02657e-05
5.15213e-05
-1.02556e-05
5.49367e-05
-1.02448e-05
5.83482e-05
-1.02331e-05
6.17555e-05
-1.02205e-05
6.51583e-05
-1.0207e-05
6.85564e-05
-1.01927e-05
7.19494e-05
-1.01774e-05
7.5337e-05
-1.01611e-05
7.87188e-05
-1.01438e-05
8.20946e-05
-1.01256e-05
8.5464e-05
-1.01063e-05
8.88265e-05
-1.00859e-05
9.21819e-05
-1.00643e-05
9.55298e-05
-1.00417e-05
9.88698e-05
-1.00179e-05
0.000102201
-9.99284e-06
0.000105524
-9.96657e-06
0.000108838
-9.93903e-06
0.000112142
-9.91017e-06
0.000115436
-9.87997e-06
0.00011872
-9.84838e-06
0.000121992
-9.81538e-06
0.000125254
-9.78093e-06
0.000128503
-9.74499e-06
0.000131739
-9.70752e-06
0.000134963
-9.6685e-06
0.000138173
-9.62787e-06
0.00014137
-9.58562e-06
0.000144551
-9.54169e-06
0.000147717
-9.49607e-06
0.000150868
-9.44871e-06
0.000154002
-9.39957e-06
0.000157119
-9.34864e-06
0.000160219
-9.29587e-06
0.0001633
-9.24123e-06
0.000166363
-9.18469e-06
0.000169406
-9.12623e-06
0.000172429
-9.06581e-06
0.000175432
-9.00341e-06
0.000178412
-8.939e-06
0.000181371
-8.87256e-06
0.000184307
-8.80406e-06
0.000187219
-8.73349e-06
0.000190107
-8.66083e-06
0.00019297
-8.58605e-06
0.000195808
-8.50914e-06
0.000198619
-8.43009e-06
0.000201403
-8.34889e-06
0.00020416
-8.26552e-06
0.000206888
-8.17998e-06
0.000209586
-8.09227e-06
0.000212255
-8.00237e-06
0.000214893
-7.91029e-06
0.0002175
-7.81603e-06
0.000220074
-7.71959e-06
0.000222615
-7.62098e-06
0.000225123
-7.52021e-06
0.000227597
-7.41729e-06
0.000230036
-7.31223e-06
0.000232438
-7.20505e-06
0.000234805
-7.09576e-06
0.000237134
-6.9844e-06
0.000239426
-6.87097e-06
0.000241679
-6.75551e-06
0.000243892
-6.63804e-06
0.000246066
-6.5186e-06
0.0002482
-6.39721e-06
0.000250292
-6.27392e-06
0.000252343
-6.14876e-06
0.000254351
-6.02177e-06
0.000256316
-5.89299e-06
0.000258238
-5.76247e-06
0.000260116
-5.63025e-06
0.000261949
-5.49638e-06
0.000263736
-5.36091e-06
0.000265479
-5.22389e-06
0.000267175
-5.08537e-06
0.000268824
-4.9454e-06
0.000270426
-4.80406e-06
0.00027198
-4.66138e-06
0.000273487
-4.51742e-06
0.000274945
-4.37226e-06
0.000276354
-4.22594e-06
0.000277714
-4.07853e-06
0.000279025
-3.9301e-06
0.000280286
-3.78069e-06
0.000281496
-3.63038e-06
0.000282656
-3.47923e-06
0.000283766
-3.3273e-06
0.000284824
-3.17465e-06
0.000285832
-3.02136e-06
0.000286788
-2.86747e-06
0.000287693
-2.71307e-06
0.000288546
-2.55819e-06
0.000289347
-2.40292e-06
0.000290096
-2.24732e-06
0.000290793
-2.09143e-06
0.000291438
-1.93533e-06
0.000292031
-1.77907e-06
0.000292572
-1.62272e-06
0.000293061
-1.46632e-06
0.000293498
-1.30995e-06
0.000293882
-1.15364e-06
0.000294215
-9.97469e-07
0.000294495
-8.41475e-07
0.000294723
-6.85715e-07
0.0002949
-5.30239e-07
0.000295025
-3.75098e-07
0.000295098
-2.2034e-07
0.00029512
-6.60124e-08
0.00029509
8.78391e-08
0.000295009
2.4117e-07
0.000294878
3.93937e-07
0.000294695
5.46098e-07
0.000294463
6.97613e-07
0.000294179
8.48443e-07
0.000293846
9.98549e-07
0.000293463
1.14789e-06
0.00029303
1.29645e-06
0.000292548
1.44417e-06
0.000292018
1.59102e-06
0.000291438
1.73699e-06
0.00029081
1.88203e-06
0.000290134
2.02611e-06
0.000289411
2.16921e-06
0.00028864
2.3113e-06
0.000287822
2.45235e-06
0.000286957
2.59233e-06
0.000286046
2.73123e-06
0.000285089
2.86901e-06
0.000284086
3.00566e-06
0.000283039
3.14114e-06
0.000281946
3.27545e-06
0.000280809
3.40855e-06
0.000279629
3.54044e-06
0.000278404
3.67107e-06
0.000277137
3.80045e-06
0.000275826
3.92855e-06
0.000274474
4.05534e-06
0.00027308
4.18082e-06
0.000271644
4.30497e-06
0.000270167
4.42776e-06
0.00026865
4.54919e-06
0.000267093
4.66923e-06
0.000265496
4.78787e-06
0.00026386
4.9051e-06
0.000262186
5.0209e-06
0.000260473
5.13526e-06
0.000258723
5.24817e-06
0.000256936
5.3596e-06
0.000255112
5.46955e-06
0.000253251
5.57801e-06
0.000251356
5.68496e-06
0.000249425
5.7904e-06
0.000247459
5.8943e-06
0.000245459
5.99667e-06
0.000243426
6.09749e-06
0.000241359
6.19676e-06
0.00023926
6.29446e-06
0.000237129
6.39059e-06
0.000234967
6.48513e-06
0.000232773
6.5781e-06
0.000230549
6.66947e-06
0.000228295
6.75924e-06
0.000226012
6.84741e-06
0.0002237
6.93398e-06
0.000221359
7.01894e-06
0.000218991
7.10229e-06
0.000216595
7.18404e-06
0.000214173
7.26417e-06
0.000211724
7.34269e-06
0.00020925
7.4196e-06
0.000206751
7.49491e-06
0.000204227
7.56862e-06
0.00020168
7.64072e-06
0.000199108
7.71123e-06
0.000196514
7.78016e-06
0.000193897
7.8475e-06
0.000191259
7.91327e-06
0.000188599
7.97747e-06
0.000185918
8.04011e-06
0.000183217
8.10121e-06
0.000180495
8.16078e-06
0.000177755
8.21882e-06
0.000174996
8.27534e-06
0.000172218
8.33037e-06
0.000169423
8.38392e-06
0.00016661
8.436e-06
0.00016378
8.48662e-06
0.000160934
8.53581e-06
0.000158072
8.58358e-06
0.000155195
8.62994e-06
0.000152302
8.67492e-06
0.000149395
8.71853e-06
0.000146474
8.76079e-06
0.00014354
8.80173e-06
0.000140592
8.84135e-06
0.000137631
8.87969e-06
0.000134658
8.91676e-06
0.000131673
8.95259e-06
0.000128677
8.98719e-06
0.00012567
9.02059e-06
0.000122651
9.0528e-06
0.000119623
9.08386e-06
0.000116584
9.11377e-06
0.000113536
9.14257e-06
0.000110479
9.17028e-06
0.000107412
9.19691e-06
0.000104338
9.22249e-06
0.000101255
9.24705e-06
9.81641e-05
9.2706e-06
9.50658e-05
9.29316e-06
9.19604e-05
9.31476e-06
8.88481e-05
9.33541e-06
8.57292e-05
9.35514e-06
8.2604e-05
9.37397e-06
7.94729e-05
9.39191e-06
7.63361e-05
9.409e-06
7.31939e-05
9.42523e-06
7.00466e-05
9.44065e-06
6.68944e-05
9.45525e-06
6.37376e-05
9.46906e-06
6.05765e-05
9.4821e-06
5.74113e-05
9.49439e-06
5.42422e-05
9.50593e-06
5.10696e-05
9.51674e-06
4.78936e-05
9.52684e-06
4.47145e-05
9.53625e-06
4.15324e-05
9.54496e-06
3.83477e-05
9.553e-06
3.51606e-05
9.56038e-06
3.19712e-05
9.56711e-06
2.87798e-05
9.57319e-06
2.55865e-05
9.57864e-06
2.23917e-05
9.58347e-06
1.91955e-05
9.58767e-06
1.5998e-05
9.59127e-06
1.27996e-05
9.59425e-06
9.6004e-06
9.59664e-06
6.40059e-06
9.59842e-06
3.2004e-06
9.5996e-06
9.60019e-06
3.44394e-06
-1.37726e-05
6.88766e-06
-1.37717e-05
1.03309e-05
-1.37699e-05
1.37735e-05
-1.37673e-05
1.72153e-05
-1.37637e-05
2.06559e-05
-1.37592e-05
2.40951e-05
-1.37538e-05
2.75328e-05
-1.37474e-05
3.09687e-05
-1.37401e-05
3.44025e-05
-1.37318e-05
3.7834e-05
-1.37226e-05
4.1263e-05
-1.37124e-05
4.46892e-05
-1.37011e-05
4.81123e-05
-1.36888e-05
5.15322e-05
-1.36755e-05
5.49484e-05
-1.3661e-05
5.83608e-05
-1.36454e-05
6.1769e-05
-1.36287e-05
6.51727e-05
-1.36108e-05
6.85717e-05
-1.35917e-05
7.19657e-05
-1.35713e-05
7.53543e-05
-1.35497e-05
7.87371e-05
-1.35267e-05
8.2114e-05
-1.35024e-05
8.54844e-05
-1.34767e-05
8.88481e-05
-1.34495e-05
9.22046e-05
-1.34209e-05
9.55537e-05
-1.33908e-05
9.88949e-05
-1.3359e-05
0.000102228
-1.33257e-05
0.000105552
-1.32907e-05
0.000108867
-1.32541e-05
0.000112172
-1.32157e-05
0.000115468
-1.31754e-05
0.000118753
-1.31334e-05
0.000122027
-1.30894e-05
0.00012529
-1.30436e-05
0.00012854
-1.29957e-05
0.000131779
-1.29458e-05
0.000135004
-1.28938e-05
0.000138216
-1.28397e-05
0.000141414
-1.27834e-05
0.000144597
-1.27249e-05
0.000147765
-1.26641e-05
0.000150917
-1.2601e-05
0.000154053
-1.25356e-05
0.000157172
-1.24677e-05
0.000160274
-1.23974e-05
0.000163357
-1.23246e-05
0.000166422
-1.22492e-05
0.000169467
-1.21713e-05
0.000172492
-1.20908e-05
0.000175496
-1.20077e-05
0.000178479
-1.19218e-05
0.00018144
-1.18333e-05
0.000184377
-1.1742e-05
0.000187292
-1.16479e-05
0.000190182
-1.15511e-05
0.000193047
-1.14514e-05
0.000195887
-1.13489e-05
0.000198701
-1.12435e-05
0.000201487
-1.11352e-05
0.000204245
-1.10241e-05
0.000206975
-1.091e-05
0.000209676
-1.07931e-05
0.000212347
-1.06732e-05
0.000214987
-1.05504e-05
0.000217596
-1.04248e-05
0.000220173
-1.02962e-05
0.000222716
-1.01647e-05
0.000225226
-1.00303e-05
0.000227702
-9.89304e-06
0.000230143
-9.75294e-06
0.000232548
-9.61e-06
0.000234916
-9.46426e-06
0.000237248
-9.31573e-06
0.000239541
-9.16445e-06
0.000241796
-9.01046e-06
0.000244012
-8.85379e-06
0.000246188
-8.69448e-06
0.000248323
-8.53258e-06
0.000250417
-8.36814e-06
0.00025247
-8.20119e-06
0.00025448
-8.03181e-06
0.000256447
-7.86004e-06
0.00025837
-7.68594e-06
0.00026025
-7.50957e-06
0.000262084
-7.331e-06
0.000263874
-7.15029e-06
0.000265617
-6.96751e-06
0.000267315
-6.78273e-06
0.000268965
-6.59603e-06
0.000270569
-6.40747e-06
0.000272124
-6.21715e-06
0.000273632
-6.02512e-06
0.000275091
-5.83147e-06
0.000276502
-5.63629e-06
0.000277863
-5.43965e-06
0.000279174
-5.24163e-06
0.000280436
-5.04233e-06
0.000281647
-4.84182e-06
0.000282808
-4.64018e-06
0.000283918
-4.43751e-06
0.000284978
-4.23388e-06
0.000285986
-4.02939e-06
0.000286942
-3.82411e-06
0.000287847
-3.61814e-06
0.000288701
-3.41155e-06
0.000289502
-3.20442e-06
0.000290252
-2.99685e-06
0.000290949
-2.78891e-06
0.000291595
-2.58068e-06
0.000292188
-2.37225e-06
0.000292729
-2.16369e-06
0.000293218
-1.95507e-06
0.000293654
-1.74648e-06
0.000294038
-1.53799e-06
0.000294371
-1.32968e-06
0.000294651
-1.1216e-06
0.000294879
-9.13843e-07
0.000295055
-7.06465e-07
0.00029518
-4.99534e-07
0.000295252
-2.93117e-07
0.000295274
-8.72758e-08
0.000295244
1.17929e-07
0.000295162
3.22437e-07
0.00029503
5.26191e-07
0.000294847
7.29136e-07
0.000294613
9.31217e-07
0.000294329
1.13238e-06
0.000293995
1.33258e-06
0.000293612
1.53176e-06
0.000293178
1.72988e-06
0.000292695
1.9269e-06
0.000292164
2.12276e-06
0.000291583
2.31742e-06
0.000290954
2.51085e-06
0.000290277
2.70301e-06
0.000289553
2.89385e-06
0.000288781
3.08334e-06
0.000287962
3.27145e-06
0.000287096
3.45814e-06
0.000286184
3.64337e-06
0.000285226
3.82712e-06
0.000284222
4.00935e-06
0.000283173
4.19003e-06
0.000282079
4.36914e-06
0.000280941
4.54664e-06
0.000279759
4.72252e-06
0.000278534
4.89673e-06
0.000277265
5.06926e-06
0.000275953
5.24008e-06
0.000274599
5.40917e-06
0.000273204
5.5765e-06
0.000271767
5.74206e-06
0.000270289
5.90581e-06
0.00026877
6.06773e-06
0.000267211
6.22781e-06
0.000265613
6.38603e-06
0.000263976
6.54236e-06
0.0002623
6.69678e-06
0.000260586
6.84928e-06
0.000258834
6.99984e-06
0.000257046
7.14844e-06
0.00025522
7.29506e-06
0.000253358
7.43969e-06
0.000251461
7.58231e-06
0.000249529
7.7229e-06
0.000247561
7.86146e-06
0.00024556
7.99797e-06
0.000243525
8.13241e-06
0.000241457
8.26478e-06
0.000239357
8.39506e-06
0.000237224
8.52324e-06
0.00023506
8.64931e-06
0.000232865
8.77327e-06
0.000230639
8.89511e-06
0.000228383
9.01481e-06
0.000226098
9.13238e-06
0.000223785
9.24781e-06
0.000221442
9.36109e-06
0.000219072
9.47223e-06
0.000216675
9.58122e-06
0.000214251
9.68806e-06
0.000211801
9.79276e-06
0.000209326
9.8953e-06
0.000206825
9.99571e-06
0.000204299
1.0094e-05
0.00020175
1.01901e-05
0.000199177
1.02841e-05
0.000196581
1.0376e-05
0.000193963
1.04658e-05
0.000191323
1.05535e-05
0.000188661
1.0639e-05
0.000185979
1.07226e-05
0.000183276
1.0804e-05
0.000180553
1.08834e-05
0.000177811
1.09608e-05
0.000175051
1.10361e-05
0.000172272
1.11095e-05
0.000169475
1.11808e-05
0.00016666
1.12503e-05
0.000163829
1.13177e-05
0.000160982
1.13833e-05
0.000158118
1.1447e-05
0.00015524
1.15087e-05
0.000152346
1.15687e-05
0.000149438
1.16268e-05
0.000146515
1.16831e-05
0.000143579
1.17377e-05
0.00014063
1.17905e-05
0.000137668
1.18416e-05
0.000134694
1.1891e-05
0.000131708
1.19387e-05
0.00012871
1.19848e-05
0.000125702
1.20293e-05
0.000122682
1.20722e-05
0.000119653
1.21136e-05
0.000116613
1.21534e-05
0.000113564
1.21918e-05
0.000110505
1.22287e-05
0.000107438
1.22642e-05
0.000104362
1.22983e-05
0.000101278
1.2331e-05
9.81866e-05
1.23623e-05
9.50874e-05
1.23924e-05
9.1981e-05
1.24211e-05
8.88678e-05
1.24486e-05
8.5748e-05
1.24749e-05
8.2622e-05
1.25e-05
7.949e-05
1.25239e-05
7.63523e-05
1.25466e-05
7.32093e-05
1.25683e-05
7.00612e-05
1.25888e-05
6.69082e-05
1.26082e-05
6.37506e-05
1.26266e-05
6.05888e-05
1.2644e-05
5.74228e-05
1.26603e-05
5.4253e-05
1.26757e-05
5.10797e-05
1.26901e-05
4.7903e-05
1.27035e-05
4.47232e-05
1.27161e-05
4.15405e-05
1.27277e-05
3.83551e-05
1.27384e-05
3.51673e-05
1.27482e-05
3.19772e-05
1.27571e-05
2.87852e-05
1.27652e-05
2.55913e-05
1.27725e-05
2.23959e-05
1.27789e-05
1.9199e-05
1.27845e-05
1.6001e-05
1.27893e-05
1.2802e-05
1.27933e-05
9.60218e-06
1.27964e-05
6.40178e-06
1.27988e-05
3.20099e-06
1.28004e-05
1.28012e-05
3.44483e-06
-1.72175e-05
6.88944e-06
-1.72163e-05
1.03336e-05
-1.72141e-05
1.37771e-05
-1.72108e-05
1.72198e-05
-1.72063e-05
2.06613e-05
-1.72007e-05
2.41015e-05
-1.71939e-05
2.75401e-05
-1.7186e-05
3.09769e-05
-1.71769e-05
3.44117e-05
-1.71666e-05
3.78443e-05
-1.71551e-05
4.12743e-05
-1.71424e-05
4.47015e-05
-1.71283e-05
4.81257e-05
-1.7113e-05
5.15466e-05
-1.70964e-05
5.4964e-05
-1.70784e-05
5.83775e-05
-1.70589e-05
6.17869e-05
-1.70381e-05
6.51919e-05
-1.70158e-05
6.85921e-05
-1.69919e-05
7.19874e-05
-1.69666e-05
7.53773e-05
-1.69396e-05
7.87615e-05
-1.69109e-05
8.21397e-05
-1.68806e-05
8.55116e-05
-1.68486e-05
8.88767e-05
-1.68147e-05
9.22348e-05
-1.6779e-05
9.55854e-05
-1.67414e-05
9.89282e-05
-1.67018e-05
0.000102263
-1.66603e-05
0.000105589
-1.66166e-05
0.000108905
-1.65709e-05
0.000112213
-1.65229e-05
0.00011551
-1.64728e-05
0.000118797
-1.64203e-05
0.000122073
-1.63654e-05
0.000125337
-1.63082e-05
0.00012859
-1.62484e-05
0.000131831
-1.61861e-05
0.000135058
-1.61213e-05
0.000138272
-1.60537e-05
0.000141472
-1.59834e-05
0.000144658
-1.59104e-05
0.000147828
-1.58345e-05
0.000150983
-1.57557e-05
0.000154121
-1.5674e-05
0.000157243
-1.55892e-05
0.000160347
-1.55014e-05
0.000163432
-1.54105e-05
0.0001665
-1.53164e-05
0.000169547
-1.52191e-05
0.000172575
-1.51185e-05
0.000175582
-1.50146e-05
0.000178567
-1.49074e-05
0.000181531
-1.47967e-05
0.000184472
-1.46827e-05
0.000187389
-1.45651e-05
0.000190282
-1.44441e-05
0.00019315
-1.43195e-05
0.000195993
-1.41914e-05
0.000198809
-1.40597e-05
0.000201598
-1.39244e-05
0.00020436
-1.37855e-05
0.000207092
-1.3643e-05
0.000209796
-1.34968e-05
0.00021247
-1.3347e-05
0.000215113
-1.31935e-05
0.000217725
-1.30364e-05
0.000220304
-1.28756e-05
0.000222851
-1.27112e-05
0.000225364
-1.25432e-05
0.000227842
-1.23717e-05
0.000230286
-1.21965e-05
0.000232694
-1.20178e-05
0.000235065
-1.18355e-05
0.000237399
-1.16498e-05
0.000239695
-1.14607e-05
0.000241953
-1.12681e-05
0.000244171
-1.10722e-05
0.00024635
-1.0873e-05
0.000248488
-1.06705e-05
0.000250584
-1.04648e-05
0.000252639
-1.02561e-05
0.000254652
-1.00442e-05
0.000256621
-9.82941e-06
0.000258547
-9.61167e-06
0.000260428
-9.39109e-06
0.000262265
-9.16775e-06
0.000264056
-8.94174e-06
0.000265802
-8.71313e-06
0.000267501
-8.48202e-06
0.000269154
-8.24851e-06
0.000270759
-8.01267e-06
0.000272316
-7.77461e-06
0.000273826
-7.53443e-06
0.000275286
-7.29222e-06
0.000276698
-7.04809e-06
0.000278061
-6.80213e-06
0.000279374
-6.55446e-06
0.000280636
-6.30517e-06
0.000281849
-6.05437e-06
0.000283011
-5.80217e-06
0.000284122
-5.54867e-06
0.000285182
-5.29398e-06
0.000286191
-5.03821e-06
0.000287148
-4.78145e-06
0.000288054
-4.52383e-06
0.000288908
-4.26543e-06
0.00028971
-4.00637e-06
0.00029046
-3.74675e-06
0.000291158
-3.48668e-06
0.000291803
-3.22624e-06
0.000292396
-2.96555e-06
0.000292937
-2.7047e-06
0.000293426
-2.4438e-06
0.000293863
-2.18292e-06
0.000294247
-1.92217e-06
0.000294579
-1.66164e-06
0.000294859
-1.40142e-06
0.000295086
-1.14159e-06
0.000295262
-8.82241e-07
0.000295386
-6.23457e-07
0.000295458
-3.65318e-07
0.000295479
-1.07901e-07
0.000295448
1.48716e-07
0.000295366
4.04459e-07
0.000295233
6.59257e-07
0.000295049
9.13039e-07
0.000294815
1.16574e-06
0.00029453
1.41729e-06
0.000294195
1.66763e-06
0.00029381
1.9167e-06
0.000293375
2.16443e-06
0.000292891
2.41078e-06
0.000292358
2.65569e-06
0.000291777
2.8991e-06
0.000291147
3.14096e-06
0.000290468
3.38122e-06
0.000289742
3.61985e-06
0.000288969
3.85678e-06
0.000288148
4.09197e-06
0.000287281
4.32539e-06
0.000286367
4.557e-06
0.000285408
4.78674e-06
0.000284403
5.01458e-06
0.000283352
5.24049e-06
0.000282257
5.46443e-06
0.000281117
5.68636e-06
0.000279933
5.90625e-06
0.000278706
6.12407e-06
0.000277436
6.33978e-06
0.000276122
6.55335e-06
0.000274767
6.76476e-06
0.000273369
6.97397e-06
0.00027193
7.18095e-06
0.00027045
7.38568e-06
0.00026893
7.58813e-06
0.00026737
7.78827e-06
0.00026577
7.98607e-06
0.00026413
8.18152e-06
0.000262453
8.37459e-06
0.000260737
8.56524e-06
0.000258983
8.75347e-06
0.000257192
8.93925e-06
0.000255365
9.12256e-06
0.000253501
9.30338e-06
0.000251602
9.48168e-06
0.000249667
9.65745e-06
0.000247698
9.83067e-06
0.000245695
1.00013e-05
0.000243658
1.01694e-05
0.000241587
1.03349e-05
0.000239485
1.04978e-05
0.00023735
1.0658e-05
0.000235184
1.08156e-05
0.000232986
1.09706e-05
0.000230759