/*--------------------------------*- C++ -*----------------------------------*\
| =========                 |                                                 |
| \\      /  F ield         | OpenFOAM: The Open Source CFD Toolbox           |
|  \\    /   O peration     | Version:  v2012                                 |
|   \\  /    A nd           | Website:  www.openfoam.com                      |
|    \\/     M anipulation  |                                                 |
\*---------------------------------------------------------------------------*/
FoamFile
{
    version     2.0;
    format      ascii;
    class       volScalarField;
    location    "1.75";
    object      Psi_z;
}
// * * * * * * * * * * * * * * * * * * * * * * * * * * * * * * * * * * * * * //

dimensions      [0 2 -1 0 0 0 0];


internalField   nonuniform List<scalar> 
65536
(
8.60825e-06
2.58242e-05
4.30384e-05
6.02498e-05
7.74573e-05
9.46597e-05
0.000111856
0.000129045
0.000146225
0.000163395
0.000180555
0.000197702
0.000214836
0.000231955
0.000249057
0.000266143
0.000283209
0.000300255
0.00031728
0.000334281
0.000351258
0.000368208
0.00038513
0.000402022
0.000418883
0.000435711
0.000452504
0.00046926
0.000485977
0.000502654
0.000519287
0.000535876
0.000552418
0.00056891
0.000585351
0.000601737
0.000618068
0.00063434
0.00065055
0.000666697
0.000682777
0.000698788
0.000714727
0.000730592
0.000746378
0.000762085
0.000777708
0.000793244
0.00080869
0.000824044
0.000839302
0.000854461
0.000869518
0.000884468
0.00089931
0.000914039
0.000928652
0.000943145
0.000957515
0.000971759
0.000985873
0.000999854
0.0010137
0.0010274
0.00104096
0.00105437
0.00106762
0.00108073
0.00109367
0.00110645
0.00111907
0.00113151
0.00114378
0.00115588
0.00116779
0.00117952
0.00119106
0.00120242
0.00121357
0.00122453
0.00123529
0.00124585
0.0012562
0.00126634
0.00127626
0.00128597
0.00129546
0.00130473
0.00131377
0.00132259
0.00133118
0.00133953
0.00134765
0.00135553
0.00136318
0.00137058
0.00137774
0.00138466
0.00139133
0.00139775
0.00140392
0.00140984
0.00141551
0.00142092
0.00142608
0.00143099
0.00143563
0.00144002
0.00144415
0.00144802
0.00145163
0.00145498
0.00145807
0.00146091
0.00146347
0.00146578
0.00146783
0.00146962
0.00147115
0.00147242
0.00147343
0.00147418
0.00147467
0.0014749
0.00147488
0.0014746
0.00147407
0.00147328
0.00147224
0.00147095
0.0014694
0.00146761
0.00146557
0.00146328
0.00146075
0.00145797
0.00145495
0.00145169
0.00144819
0.00144445
0.00144048
0.00143627
0.00143183
0.00142716
0.00142226
0.00141714
0.00141179
0.00140621
0.00140042
0.00139441
0.00138818
0.00138174
0.00137508
0.00136822
0.00136114
0.00135386
0.00134638
0.0013387
0.00133081
0.00132274
0.00131446
0.001306
0.00129734
0.0012885
0.00127948
0.00127027
0.00126089
0.00125132
0.00124159
0.00123168
0.0012216
0.00121135
0.00120095
0.00119038
0.00117965
0.00116876
0.00115772
0.00114653
0.0011352
0.00112371
0.00111209
0.00110032
0.00108842
0.00107638
0.00106421
0.00105191
0.00103949
0.00102694
0.00101427
0.00100147
0.000988569
0.000975549
0.000962418
0.00094918
0.000935835
0.000922388
0.00090884
0.000895194
0.000881453
0.000867619
0.000853695
0.000839682
0.000825584
0.000811403
0.000797142
0.000782801
0.000768385
0.000753895
0.000739334
0.000724703
0.000710005
0.000695242
0.000680416
0.00066553
0.000650585
0.000635583
0.000620527
0.000605418
0.000590258
0.000575049
0.000559793
0.000544492
0.000529148
0.000513761
0.000498335
0.00048287
0.000467368
0.000451831
0.00043626
0.000420658
0.000405024
0.000389361
0.000373671
0.000357954
0.000342213
0.000326447
0.000310659
0.00029485
0.000279021
0.000263174
0.000247309
0.000231428
0.000215531
0.000199621
0.000183698
0.000167763
0.000151817
0.000135862
0.000119898
0.000103927
8.79492e-05
7.19659e-05
5.59781e-05
3.99868e-05
2.39931e-05
7.99786e-06
2.58253e-05
7.74741e-05
0.000129118
0.000180753
0.000232377
0.000283985
0.000335575
0.000387142
0.000438684
0.000490196
0.000541676
0.000593119
0.000644521
0.000695879
0.000747189
0.000798447
0.000849647
0.000900787
0.000951862
0.00100287
0.0010538
0.00110465
0.00115542
0.0012061
0.00125668
0.00130717
0.00135755
0.00140782
0.00145797
0.001508
0.00155791
0.00160767
0.0016573
0.00170678
0.0017561
0.00180527
0.00185426
0.00190308
0.00195171
0.00200016
0.0020484
0.00209643
0.00214425
0.00219185
0.00223921
0.00228634
0.00233321
0.00237982
0.00242616
0.00247223
0.002518
0.00256348
0.00260866
0.00265351
0.00269804
0.00274223
0.00278607
0.00282956
0.00287267
0.00291541
0.00295775
0.0029997
0.00304123
0.00308234
0.00312302
0.00316325
0.00320303
0.00324234
0.00328117
0.00331952
0.00335737
0.0033947
0.00343152
0.00346781
0.00350356
0.00353875
0.00357338
0.00360744
0.00364092
0.0036738
0.00370608
0.00373775
0.0037688
0.00379922
0.003829
0.00385813
0.0038866
0.00391441
0.00394154
0.00396799
0.00399376
0.00401882
0.00404319
0.00406684
0.00408978
0.00411199
0.00413348
0.00415423
0.00417424
0.0041935
0.00421202
0.00422978
0.00424679
0.00426303
0.00427851
0.00429322
0.00430715
0.00432032
0.00433271
0.00434432
0.00435516
0.00436521
0.00437448
0.00438297
0.00439068
0.00439761
0.00440376
0.00440912
0.0044137
0.00441751
0.00442053
0.00442278
0.00442426
0.00442496
0.00442489
0.00442406
0.00442245
0.00442009
0.00441697
0.00441309
0.00440846
0.00440308
0.00439695
0.00439009
0.00438249
0.00437415
0.00436509
0.00435531
0.00434481
0.00433359
0.00432167
0.00430905
0.00429573
0.00428172
0.00426702
0.00425164
0.00423559
0.00421887
0.00420148
0.00418344
0.00416475
0.00414542
0.00412545
0.00410485
0.00408363
0.00406179
0.00403934
0.00401629
0.00399264
0.0039684
0.00394358
0.00391818
0.00389222
0.0038657
0.00383862
0.003811
0.00378283
0.00375414
0.00372493
0.0036952
0.00366496
0.00363423
0.003603
0.00357129
0.0035391
0.00350644
0.00347332
0.00343975
0.00340574
0.00337129
0.00333641
0.00330111
0.0032654
0.00322928
0.00319277
0.00315587
0.00311859
0.00308093
0.00304292
0.00300454
0.00296582
0.00292676
0.00288736
0.00284765
0.00280761
0.00276727
0.00272662
0.00268568
0.00264445
0.00260295
0.00256117
0.00251913
0.00247684
0.00243429
0.0023915
0.00234848
0.00230523
0.00226176
0.00221807
0.00217418
0.00213008
0.00208579
0.00204131
0.00199665
0.00195181
0.00190681
0.00186163
0.00181631
0.00177082
0.0017252
0.00167943
0.00163352
0.00158749
0.00154132
0.00149504
0.00144865
0.00140214
0.00135553
0.00130881
0.001262
0.0012151
0.00116811
0.00112104
0.00107389
0.00102666
0.000979364
0.000931999
0.000884571
0.000837083
0.000789539
0.000741943
0.000694298
0.000646608
0.000598876
0.000551106
0.0005033
0.000455462
0.000407595
0.000359703
0.000311788
0.000263853
0.000215902
0.000167938
0.000119963
7.19808e-05
2.39941e-05
4.3044e-05
0.000129129
0.000215206
0.000301268
0.000387311
0.000473329
0.000559316
0.000645266
0.000731172
0.000817031
0.000902834
0.000988576
0.00107425
0.00115985
0.00124537
0.00133081
0.00141615
0.00150138
0.00158651
0.00167153
0.00175642
0.00184118
0.0019258
0.00201027
0.00209458
0.00217873
0.0022627
0.00234649
0.00243009
0.00251348
0.00259666
0.00267961
0.00276233
0.00284481
0.00292702
0.00300897
0.00309063
0.003172
0.00325307
0.00333381
0.00341423
0.0034943
0.00357401
0.00365334
0.00373229
0.00381084
0.00388897
0.00396666
0.00404391
0.0041207
0.004197
0.00427282
0.00434811
0.00442288
0.00449711
0.00457077
0.00464385
0.00471634
0.00478821
0.00485944
0.00493003
0.00499995
0.00506918
0.00513771
0.00520552
0.00527259
0.00533889
0.00540443
0.00546916
0.00553308
0.00559618
0.00565842
0.00571979
0.00578028
0.00583987
0.00589854
0.00595627
0.00601305
0.00606885
0.00612367
0.00617748
0.00623028
0.00628204
0.00633274
0.00638238
0.00643094
0.00647841
0.00652476
0.00656999
0.00661409
0.00665704
0.00669882
0.00673944
0.00677887
0.0068171
0.00685413
0.00688994
0.00692453
0.00695789
0.00699
0.00702087
0.00705048
0.00707882
0.0071059
0.0071317
0.00715622
0.00717945
0.00720139
0.00722205
0.0072414
0.00725946
0.00727622
0.00729167
0.00730583
0.00731868
0.00733022
0.00734046
0.0073494
0.00735704
0.00736338
0.00736842
0.00737217
0.00737462
0.00737579
0.00737567
0.00737428
0.0073716
0.00736766
0.00736245
0.00735598
0.00734826
0.00733929
0.00732908
0.00731763
0.00730496
0.00729106
0.00727596
0.00725965
0.00724214
0.00722344
0.00720357
0.00718252
0.00716031
0.00713695
0.00711245
0.00708681
0.00706005
0.00703218
0.0070032
0.00697313
0.00694197
0.00690975
0.00687646
0.00684212
0.00680674
0.00677033
0.00673291
0.00669448
0.00665505
0.00661465
0.00657327
0.00653094
0.00648766
0.00644344
0.0063983
0.00635226
0.00630531
0.00625749
0.00620879
0.00615923
0.00610883
0.00605759
0.00600553
0.00595267
0.00589901
0.00584458
0.00578937
0.00573341
0.00567671
0.00561929
0.00556115
0.0055023
0.00544277
0.00538257
0.00532171
0.0052602
0.00519806
0.00513529
0.00507192
0.00500796
0.00494341
0.0048783
0.00481264
0.00474643
0.00467969
0.00461244
0.00454469
0.00447645
0.00440773
0.00433855
0.00426892
0.00419884
0.00412834
0.00405742
0.0039861
0.00391439
0.0038423
0.00376984
0.00369702
0.00362385
0.00355035
0.00347653
0.00340239
0.00332795
0.00325321
0.00317819
0.0031029
0.00302735
0.00295154
0.00287548
0.00279919
0.00272268
0.00264595
0.00256901
0.00249187
0.00241453
0.00233702
0.00225932
0.00218146
0.00210344
0.00202527
0.00194695
0.00186849
0.0017899
0.00171118
0.00163235
0.0015534
0.00147435
0.0013952
0.00131596
0.00123663
0.00115721
0.00107773
0.00099817
0.000918549
0.000838869
0.000759135
0.000679354
0.00059953
0.000519668
0.000439774
0.000359852
0.000279908
0.000199947
0.000119973
3.99918e-05
6.02655e-05
0.000180792
0.000301308
0.000421803
0.000542272
0.000662704
0.000783094
0.000903432
0.00102371
0.00114392
0.00126405
0.0013841
0.00150406
0.00162391
0.00174364
0.00186326
0.00198275
0.00210209
0.00222128
0.00234031
0.00245917
0.00257784
0.00269632
0.00281459
0.00293265
0.00305047
0.00316804
0.00328536
0.00340241
0.00351917
0.00363564
0.00375179
0.00386761
0.00398309
0.00409821
0.00421295
0.00432729
0.00444123
0.00455474
0.0046678
0.0047804
0.00489252
0.00500413
0.00511522
0.00522577
0.00533576
0.00544516
0.00555396
0.00566213
0.00576965
0.0058765
0.00598266
0.0060881
0.0061928
0.00629674
0.00639989
0.00650223
0.00660373
0.00670437
0.00680413
0.00690298
0.00700089
0.00709784
0.00719381
0.00728877
0.00738268
0.00747554
0.00756731
0.00765797
0.00774748
0.00783584
0.007923
0.00800895
0.00809366
0.00817711
0.00825927
0.00834011
0.00841963
0.00849778
0.00857454
0.00864991
0.00872384
0.00879632
0.00886733
0.00893685
0.00900485
0.00907132
0.00913624
0.00919958
0.00926133
0.00932148
0.00937999
0.00943687
0.00949208
0.00954563
0.00959748
0.00964763
0.00969607
0.00974278
0.00978775
0.00983097
0.00987244
0.00991213
0.00995004
0.00998617
0.0100205
0.010053
0.0100838
0.0101127
0.0101398
0.0101651
0.0101885
0.0102102
0.01023
0.010248
0.0102641
0.0102785
0.010291
0.0103017
0.0103105
0.0103176
0.0103228
0.0103263
0.0103279
0.0103277
0.0103258
0.010322
0.0103165
0.0103092
0.0103001
0.0102893
0.0102767
0.0102624
0.0102464
0.0102286
0.0102092
0.010188
0.0101652
0.0101407
0.0101145
0.0100866
0.0100572
0.0100261
0.00999334
0.00995902
0.00992311
0.00988563
0.00984659
0.00980601
0.0097639
0.00972026
0.00967513
0.00962851
0.00958042
0.00953087
0.00947989
0.00942748
0.00937366
0.00931845
0.00926186
0.00920392
0.00914464
0.00908402
0.00902211
0.0089589
0.00889442
0.00882868
0.0087617
0.00869351
0.00862411
0.00855352
0.00848178
0.00840888
0.00833485
0.00825971
0.00818348
0.00810618
0.00802781
0.00794842
0.007868
0.00778658
0.00770419
0.00762083
0.00753653
0.0074513
0.00736517
0.00727815
0.00719026
0.00710152
0.00701195
0.00692157
0.0068304
0.00673845
0.00664574
0.00655229
0.00645813
0.00636325
0.0062677
0.00617148
0.0060746
0.0059771
0.00587898
0.00578026
0.00568096
0.00558109
0.00548068
0.00537973
0.00527827
0.00517631
0.00507386
0.00497095
0.00486758
0.00476377
0.00465953
0.00455489
0.00444985
0.00434443
0.00423864
0.00413249
0.00402601
0.00391919
0.00381206
0.00370462
0.00359689
0.00348888
0.0033806
0.00327207
0.00316329
0.00305427
0.00294503
0.00283558
0.00272592
0.00261607
0.00250603
0.00239582
0.00228544
0.00217491
0.00206423
0.00195341
0.00184246
0.00173139
0.00162021
0.00150892
0.00139753
0.00128605
0.00117449
0.00106286
0.000951155
0.000839394
0.000727581
0.000615722
0.000503824
0.000391895
0.000279943
0.000167972
5.5992e-05
7.74909e-05
0.000232468
0.000387429
0.000542366
0.000697267
0.000852123
0.00100692
0.00116166
0.00131632
0.00147089
0.00162536
0.00177972
0.00193396
0.00208807
0.00224204
0.00239585
0.00254949
0.00270295
0.00285621
0.00300927
0.00316211
0.00331471
0.00346706
0.00361914
0.00377094
0.00392245
0.00407364
0.0042245
0.00437502
0.00452516
0.00467493
0.00482429
0.00497323
0.00512173
0.00526977
0.00541732
0.00556437
0.00571089
0.00585686
0.00600226
0.00614706
0.00629124
0.00643478
0.00657765
0.00671982
0.00686126
0.00700196
0.00714188
0.00728099
0.00741927
0.00755669
0.00769322
0.00782883
0.00796348
0.00809716
0.00822982
0.00836144
0.00849199
0.00862143
0.00874973
0.00887686
0.00900279
0.00912749
0.00925092
0.00937305
0.00949384
0.00961327
0.00973131
0.00984791
0.00996304
0.0100767
0.0101888
0.0102993
0.0104083
0.0105156
0.0106213
0.0107253
0.0108276
0.0109281
0.0110268
0.0111238
0.0112189
0.0113121
0.0114034
0.0114928
0.0115803
0.0116658
0.0117493
0.0118308
0.0119102
0.0119875
0.0120628
0.012136
0.012207
0.0122758
0.0123425
0.012407
0.0124693
0.0125294
0.0125873
0.0126428
0.0126962
0.0127472
0.012796
0.0128424
0.0128866
0.0129284
0.0129679
0.0130051
0.01304
0.0130725
0.0131027
0.0131305
0.013156
0.0131791
0.0131999
0.0132183
0.0132344
0.0132481
0.0132595
0.0132686
0.0132753
0.0132797
0.0132818
0.0132816
0.0132791
0.0132742
0.0132671
0.0132577
0.013246
0.0132321
0.0132159
0.0131975
0.0131769
0.013154
0.013129
0.0131018
0.0130724
0.0130408
0.0130072
0.0129713
0.0129334
0.0128934
0.0128513
0.0128072
0.012761
0.0127128
0.0126626
0.0126104
0.0125562
0.0125001
0.012442
0.012382
0.0123202
0.0122564
0.0121909
0.0121235
0.0120542
0.0119832
0.0119104
0.0118359
0.0117597
0.0116817
0.0116021
0.0115208
0.0114378
0.0113533
0.0112671
0.0111794
0.0110902
0.0109994
0.0109071
0.0108134
0.0107181
0.0106215
0.0105235
0.010424
0.0103233
0.0102211
0.0101177
0.010013
0.00990703
0.00979982
0.0096914
0.00958179
0.00947102
0.00935911
0.00924607
0.00913195
0.00901676
0.00890052
0.00878327
0.00866502
0.00854579
0.00842561
0.00830451
0.0081825
0.00805961
0.00793587
0.00781129
0.00768589
0.00755971
0.00743276
0.00730506
0.00717663
0.0070475
0.00691768
0.00678721
0.00665608
0.00652434
0.006392
0.00625907
0.00612557
0.00599153
0.00585697
0.00572189
0.00558633
0.00545029
0.00531379
0.00517686
0.0050395
0.00490174
0.00476358
0.00462505
0.00448617
0.00434693
0.00420737
0.00406749
0.00392731
0.00378684
0.00364609
0.00350509
0.00336383
0.00322234
0.00308062
0.0029387
0.00279657
0.00265425
0.00251175
0.00236909
0.00222627
0.0020833
0.0019402
0.00179698
0.00165363
0.00151019
0.00136665
0.00122302
0.00107931
0.000935539
0.000791708
0.000647827
0.000503907
0.000359956
0.000215982
7.19956e-05
9.47213e-05
0.000284158
0.000473576
0.000662963
0.000852308
0.0010416
0.00123082
0.00141996
0.00160901
0.00179795
0.00198677
0.00217546
0.002364
0.00255238
0.00274059
0.0029286
0.00311641
0.003304
0.00349135
0.00367845
0.00386528
0.00405182
0.00423805
0.00442397
0.00460953
0.00479474
0.00497957
0.00516399
0.00534799
0.00553154
0.00571462
0.00589722
0.0060793
0.00626084
0.00644181
0.0066222
0.00680197
0.0069811
0.00715956
0.00733731
0.00751434
0.00769062
0.0078661
0.00804077
0.00821458
0.00838752
0.00855953
0.0087306
0.00890069
0.00906976
0.00923777
0.0094047
0.0095705
0.00973514
0.00989859
0.0100608
0.0102217
0.0103814
0.0105396
0.0106965
0.010852
0.0110059
0.0111584
0.0113093
0.0114587
0.0116064
0.0117524
0.0118967
0.0120393
0.0121801
0.0123191
0.0124562
0.0125913
0.0127246
0.0128558
0.012985
0.0131122
0.0132373
0.0133602
0.0134809
0.0135994
0.0137157
0.0138297
0.0139414
0.0140508
0.0141577
0.0142623
0.0143644
0.014464
0.0145611
0.0146557
0.0147477
0.0148372
0.014924
0.0150082
0.0150898
0.0151687
0.0152448
0.0153183
0.015389
0.015457
0.0155222
0.0155846
0.0156442
0.015701
0.015755
0.0158061
0.0158545
0.0158999
0.0159425
0.0159823
0.0160191
0.0160532
0.0160843
0.0161126
0.016138
0.0161605
0.0161801
0.0161969
0.0162109
0.0162219
0.0162301
0.0162355
0.016238
0.0162378
0.0162346
0.0162287
0.01622
0.0162085
0.0161942
0.0161772
0.0161574
0.0161348
0.0161096
0.0160816
0.016051
0.0160177
0.0159818
0.0159432
0.015902
0.0158582
0.0158118
0.0157628
0.0157114
0.0156574
0.0156009
0.0155419
0.0154805
0.0154167
0.0153504
0.0152818
0.0152108
0.0151375
0.0150618
0.0149839
0.0149037
0.0148212
0.0147366
0.0146498
0.0145608
0.0144696
0.0143764
0.0142811
0.0141837
0.0140843
0.0139829
0.0138795
0.0137741
0.0136669
0.0135578
0.0134467
0.0133339
0.0132193
0.0131029
0.0129847
0.0128648
0.0127433
0.01262
0.0124952
0.0123687
0.0122407
0.0121111
0.01198
0.0118475
0.0117135
0.011578
0.0114412
0.011303
0.0111635
0.0110226
0.0108805
0.0107371
0.0105926
0.0104468
0.0102999
0.0101518
0.0100026
0.00985239
0.0097011
0.00954879
0.00939548
0.00924121
0.009086
0.00892988
0.00877287
0.008615
0.0084563
0.00829678
0.00813648
0.00797542
0.00781363
0.00765112
0.00748792
0.00732406
0.00715955
0.00699442
0.0068287
0.00666239
0.00649553
0.00632813
0.00616022
0.00599181
0.00582292
0.00565358
0.00548379
0.00531359
0.00514298
0.00497199
0.00480063
0.00462892
0.00445687
0.0042845
0.00411183
0.00393887
0.00376564
0.00359215
0.00341841
0.00324444
0.00307026
0.00289587
0.00272129
0.00254653
0.00237161
0.00219654
0.00202132
0.00184598
0.00167052
0.00149495
0.0013193
0.00114355
0.000967743
0.000791871
0.00061595
0.000439991
0.000264006
8.80037e-05
0.000111958
0.000335866
0.000559753
0.000783604
0.0010074
0.00123114
0.0014548
0.00167836
0.00190181
0.00212513
0.00234832
0.00257135
0.0027942
0.00301687
0.00323933
0.00346156
0.00368356
0.00390529
0.00412674
0.0043479
0.00456874
0.00478924
0.00500938
0.00522914
0.00544849
0.00566742
0.0058859
0.0061039
0.0063214
0.00653838
0.00675481
0.00697066
0.0071859
0.00740051
0.00761445
0.0078277
0.00804022
0.00825198
0.00846295
0.00867309
0.00888238
0.00909078
0.00929824
0.00950474
0.00971023
0.00991469
0.0101181
0.0103203
0.0105214
0.0107213
0.0109199
0.0111173
0.0113133
0.011508
0.0117013
0.011893
0.0120833
0.0122721
0.0124592
0.0126447
0.0128285
0.0130106
0.0131909
0.0133693
0.0135459
0.0137206
0.0138933
0.0140639
0.0142325
0.014399
0.0145633
0.0147254
0.0148853
0.0150428
0.015198
0.0153508
0.0155012
0.0156491
0.0157944
0.0159372
0.0160774
0.0162149
0.0163497
0.0164818
0.0166111
0.0167376
0.0168612
0.0169819
0.0170997
0.0172146
0.0173264
0.0174352
0.017541
0.0176437
0.0177433
0.0178397
0.017933
0.018023
0.0181099
0.0181935
0.0182739
0.018351
0.0184248
0.0184952
0.0185624
0.0186262
0.0186867
0.0187438
0.0187976
0.0188479
0.0188949
0.0189385
0.0189787
0.0190155
0.0190489
0.0190789
0.0191055
0.0191288
0.0191486
0.019165
0.0191781
0.0191878
0.0191941
0.0191971
0.0191967
0.019193
0.019186
0.0191757
0.019162
0.0191451
0.019125
0.0191015
0.0190749
0.019045
0.0190119
0.0189757
0.0189363
0.0188938
0.0188481
0.0187994
0.0187475
0.0186927
0.0186348
0.0185739
0.0185101
0.0184433
0.0183735
0.0183009
0.0182254
0.018147
0.0180659
0.0179819
0.0178952
0.0178057
0.0177136
0.0176187
0.0175212
0.0174211
0.0173185
0.0172132
0.0171055
0.0169952
0.0168825
0.0167673
0.0166498
0.0165299
0.0164076
0.0162831
0.0161562
0.0160272
0.0158959
0.0157625
0.015627
0.0154893
0.0153496
0.0152079
0.0150641
0.0149184
0.0147708
0.0146213
0.0144699
0.0143167
0.0141617
0.014005
0.0138465
0.0136864
0.0135246
0.0133612
0.0131963
0.0130297
0.0128617
0.0126922
0.0125213
0.0123489
0.0121752
0.0120002
0.0118238
0.0116462
0.0114673
0.0112873
0.011106
0.0109237
0.0107402
0.0105556
0.01037
0.0101833
0.00999572
0.00980714
0.00961764
0.00942724
0.00923597
0.00904386
0.00885094
0.00865723
0.00846276
0.00826755
0.00807164
0.00787505
0.0076778
0.00747992
0.00728143
0.00708235
0.00688272
0.00668254
0.00648184
0.00628065
0.00607898
0.00587686
0.0056743
0.00547133
0.00526797
0.00506422
0.00486012
0.00465568
0.00445092
0.00424585
0.00404049
0.00383486
0.00362897
0.00342284
0.00321649
0.00300993
0.00280318
0.00259624
0.00238914
0.00218189
0.0019745
0.00176699
0.00155936
0.00135164
0.00114384
0.000935963
0.000728031
0.000520054
0.000312045
0.000104017
0.000129202
0.000387596
0.000645966
0.000904295
0.00116257
0.00142076
0.00167887
0.00193686
0.00219473
0.00245246
0.00271002
0.00296741
0.00322459
0.00348156
0.00373829
0.00399477
0.00425096
0.00450686
0.00476244
0.00501767
0.00527254
0.00552702
0.00578108
0.00603471
0.00628787
0.00654055
0.0067927
0.00704431
0.00729535
0.00754578
0.00779558
0.00804471
0.00829314
0.00854084
0.00878778
0.00903392
0.00927922
0.00952365
0.00976717
0.0100097
0.0102513
0.0104919
0.0107313
0.0109697
0.0112069
0.0114429
0.0116777
0.0119112
0.0121433
0.0123741
0.0126034
0.0128312
0.0130576
0.0132823
0.0135054
0.0137268
0.0139465
0.0141644
0.0143804
0.0145946
0.0148068
0.015017
0.0152252
0.0154312
0.0156351
0.0158367
0.0160361
0.0162332
0.0164278
0.01662
0.0168098
0.0169969
0.0171815
0.0173634
0.0175426
0.0177191
0.0178927
0.0180634
0.0182313
0.0183961
0.018558
0.0187168
0.0188724
0.0190249
0.0191742
0.0193202
0.019463
0.0196024
0.0197384
0.019871
0.0200002
0.0201258
0.0202479
0.0203665
0.0204815
0.0205928
0.0207005
0.0208045
0.0209047
0.0210013
0.0210941
0.021183
0.0212682
0.0213496
0.0214271
0.0215008
0.0215706
0.0216365
0.0216986
0.0217567
0.0218109
0.0218612
0.0219076
0.0219501
0.0219886
0.0220233
0.022054
0.0220808
0.0221036
0.0221226
0.0221377
0.0221488
0.0221561
0.0221595
0.022159
0.0221547
0.0221466
0.0221346
0.0221189
0.0220993
0.022076
0.0220489
0.0220181
0.0219836
0.0219454
0.0219035
0.021858
0.0218089
0.0217561
0.0216998
0.02164
0.0215766
0.0215098
0.0214395
0.0213657
0.0212885
0.021208
0.0211241
0.0210369
0.0209465
0.0208527
0.0207558
0.0206556
0.0205523
0.0204459
0.0203364
0.0202239
0.0201083
0.0199897
0.0198682
0.0197438
0.0196165
0.0194863
0.0193534
0.0192176
0.0190792
0.0189381
0.0187943
0.0186478
0.0184988
0.0183473
0.0181933
0.0180368
0.0178779
0.0177166
0.0175529
0.017387
0.0172188
0.0170483
0.0168757
0.0167009
0.0165241
0.0163452
0.0161642
0.0159813
0.0157964
0.0156097
0.015421
0.0152306
0.0150384
0.0148444
0.0146487
0.0144514
0.0142525
0.014052
0.0138499
0.0136463
0.0134413
0.0132348
0.0130269
0.0128177
0.0126072
0.0123954
0.0121823
0.0119681
0.0117527
0.0115361
0.0113184
0.0110997
0.0108799
0.0106592
0.0104374
0.0102147
0.00999115
0.00976669
0.00954139
0.00931527
0.00908837
0.00886071
0.00863232
0.00840323
0.00817346
0.00794305
0.00771202
0.00748039
0.00724819
0.00701544
0.00678217
0.00654839
0.00631414
0.00607944
0.0058443
0.00560875
0.00537281
0.0051365
0.00489983
0.00466283
0.00442553
0.00418792
0.00395004
0.0037119
0.00347352
0.00323492
0.00299611
0.00275711
0.00251794
0.0022786
0.00203913
0.00179953
0.00155981
0.00132
0.00108011
0.000840156
0.000600148
0.000360104
0.000120037
0.000146453
0.000439351
0.000732221
0.00102504
0.0013178
0.00161048
0.00190305
0.0021955
0.0024878
0.00277995
0.00307191
0.00336367
0.0036552
0.00394649
0.00423751
0.00452825
0.00481867
0.00510875
0.00539847
0.0056878
0.00597673
0.00626521
0.00655322
0.00684075
0.00712775
0.00741419
0.00770005
0.0079853
0.00826989
0.00855381
0.00883701
0.00911946
0.00940111
0.00968195
0.00996191
0.010241
0.0105191
0.0107962
0.0110723
0.0113474
0.0116213
0.011894
0.0121656
0.0124358
0.0127048
0.0129724
0.0132386
0.0135034
0.0137666
0.0140283
0.0142883
0.0145467
0.0148033
0.0150582
0.0153112
0.0155623
0.0158114
0.0160585
0.0163035
0.0165464
0.0167871
0.0170255
0.0172616
0.0174952
0.0177265
0.0179552
0.0181813
0.0184048
0.0186256
0.0188436
0.0190588
0.0192711
0.0194804
0.0196867
0.01989
0.0200901
0.020287
0.0204807
0.0206711
0.0208581
0.0210416
0.0212217
0.0213983
0.0215713
0.0217406
0.0219062
0.0220681
0.0222262
0.0223805
0.0225309
0.0226774
0.0228199
0.0229584
0.0230929
0.0232233
0.0233495
0.0234717
0.0235896
0.0237033
0.0238128
0.023918
0.0240189
0.0241155
0.0242078
0.0242957
0.0243793
0.0244584
0.0245332
0.0246035
0.0246694
0.0247309
0.0247879
0.0248405
0.0248886
0.0249323
0.0249715
0.0250063
0.0250367
0.0250626
0.0250841
0.0251011
0.0251137
0.0251219
0.0251258
0.0251252
0.0251203
0.025111
0.0250974
0.0250795
0.0250573
0.0250308
0.025
0.0249651
0.0249259
0.0248825
0.024835
0.0247833
0.0247276
0.0246677
0.0246038
0.0245359
0.0244641
0.0243882
0.0243084
0.0242247
0.0241372
0.0240459
0.0239507
0.0238518
0.0237492
0.0236428
0.0235329
0.0234193
0.0233021
0.0231814
0.0230572
0.0229295
0.0227984
0.0226639
0.0225261
0.022385
0.0222406
0.022093
0.0219422
0.0217882
0.0216312
0.0214711
0.0213081
0.021142
0.020973
0.0208012
0.0206265
0.020449
0.0202688
0.0200858
0.0199003
0.0197121
0.0195213
0.019328
0.0191323
0.0189341
0.0187335
0.0185306
0.0183254
0.018118
0.0179084
0.0176966
0.0174827
0.0172667
0.0170488
0.0168288
0.0166069
0.0163832
0.0161576
0.0159302
0.0157011
0.0154702
0.0152378
0.0150036
0.014768
0.0145307
0.014292
0.0140519
0.0138103
0.0135674
0.0133231
0.0130776
0.0128308
0.0125828
0.0123336
0.0120833
0.0118319
0.0115794
0.011326
0.0110715
0.010816
0.0105597
0.0103024
0.0100443
0.00978542
0.0095257
0.00926522
0.00900401
0.00874209
0.0084795
0.00821627
0.00795242
0.00768797
0.00742296
0.00715741
0.00689135
0.00662479
0.00635777
0.00609031
0.00582243
0.00555415
0.0052855
0.00501649
0.00474715
0.0044775
0.00420755
0.00393734
0.00366687
0.00339617
0.00312525
0.00285414
0.00258285
0.0023114
0.0020398
0.00176808
0.00149625
0.00122433
0.000952333
0.000680279
0.000408184
0.000136064
0.000163715
0.000491134
0.000818522
0.00114586
0.00147312
0.00180029
0.00212735
0.00245427
0.00278103
0.00310761
0.003434
0.00376015
0.00408606
0.00441169
0.00473703
0.00506204
0.00538671
0.005711
0.00603489
0.00635835
0.00668135
0.00700387
0.00732586
0.00764731
0.00796817
0.00828842
0.00860802
0.00892693
0.00924512
0.00956256
0.00987919
0.010195
0.0105099
0.0108239
0.011137
0.011449
0.01176
0.0120698
0.0123786
0.0126861
0.0129924
0.0132974
0.013601
0.0139033
0.0142041
0.0145033
0.014801
0.0150971
0.0153915
0.0156841
0.015975
0.0162639
0.0165509
0.016836
0.0171189
0.0173997
0.0176784
0.0179548
0.0182288
0.0185005
0.0187697
0.0190363
0.0193004
0.0195617
0.0198204
0.0200762
0.0203291
0.0205791
0.0208261
0.02107
0.0213107
0.0215482
0.0217823
0.0220131
0.0222405
0.0224644
0.0226847
0.0229013
0.0231143
0.0233234
0.0235288
0.0237302
0.0239277
0.0241212
0.0243107
0.0244959
0.0246771
0.0248539
0.0250265
0.0251948
0.0253586
0.025518
0.025673
0.0258234
0.0259692
0.0261104
0.026247
0.0263789
0.0265061
0.0266286
0.0267463
0.0268591
0.0269672
0.0270704
0.0271687
0.0272621
0.0273506
0.0274342
0.0275128
0.0275865
0.0276552
0.027719
0.0277778
0.0278316
0.0278804
0.0279243
0.0279631
0.027997
0.028026
0.0280499
0.028069
0.028083
0.0280922
0.0280964
0.0280957
0.0280902
0.0280798
0.0280645
0.0280444
0.0280195
0.0279898
0.0279554
0.0279162
0.0278724
0.0278238
0.0277706
0.0277128
0.0276504
0.0275834
0.0275119
0.0274359
0.0273554
0.0272706
0.0271813
0.0270877
0.0269897
0.0268875
0.026781
0.0266704
0.0265555
0.0264366
0.0263135
0.0261865
0.0260554
0.0259203
0.0257814
0.0256386
0.0254919
0.0253415
0.0251873
0.0250294
0.0248679
0.0247028
0.0245341
0.0243619
0.0241863
0.0240073
0.0238248
0.0236391
0.0234501
0.0232579
0.0230625
0.022864
0.0226624
0.0224578
0.0222502
0.0220397
0.0218264
0.0216102
0.0213913
0.0211696
0.0209453
0.0207184
0.0204889
0.0202569
0.0200225
0.0197856
0.0195464
0.0193049
0.0190611
0.0188151
0.018567
0.0183168
0.0180645
0.0178102
0.017554
0.0172958
0.0170359
0.0167741
0.0165105
0.0162452
0.0159783
0.0157098
0.0154396
0.015168
0.0148949
0.0146203
0.0143444
0.014067
0.0137884
0.0135086
0.0132275
0.0129452
0.0126617
0.0123772
0.0120916
0.011805
0.0115174
0.0112288
0.0109393
0.0106489
0.0103577
0.0100657
0.00977284
0.00947927
0.00918497
0.00888998
0.00859434
0.00829806
0.00800119
0.00770374
0.00740575
0.00710723
0.00680823
0.00650876
0.00620884
0.00590851
0.00560778
0.00530669
0.00500524
0.00470348
0.00440141
0.00409905
0.00379644
0.00349359
0.00319052
0.00288725
0.00258381
0.0022802
0.00197646
0.00167259
0.00136862
0.00106457
0.000760452
0.000456289
0.000152099
0.000180986
0.000542947
0.000904875
0.00126675
0.00162854
0.00199023
0.00235179
0.0027132
0.00307444
0.00343549
0.00379631
0.00415688
0.00451718
0.00487719
0.00523686
0.00559618
0.00595512
0.00631365
0.00667174
0.00702936
0.00738647
0.00774305
0.00809905
0.00845445
0.00880922
0.0091633
0.00951667
0.00986929
0.0102211
0.0105721
0.0109222
0.0112714
0.0116196
0.0119668
0.012313
0.012658
0.0130019
0.0133446
0.013686
0.0140261
0.0143648
0.0147021
0.0150379
0.0153722
0.0157048
0.0160358
0.0163651
0.0166925
0.0170181
0.0173418
0.0176634
0.017983
0.0183005
0.0186158
0.0189288
0.0192394
0.0195476
0.0198533
0.0201565
0.020457
0.0207548
0.0210497
0.0213418
0.021631
0.0219171
0.0222001
0.0224799
0.0227565
0.0230297
0.0232995
0.0235658
0.0238285
0.0240876
0.024343
0.0245945
0.0248422
0.0250859
0.0253256
0.0255612
0.0257926
0.0260198
0.0262427
0.0264612
0.0266753
0.0268849
0.0270899
0.0272902
0.0274859
0.0276768
0.027863
0.0280442
0.0282206
0.028392
0.0285584
0.0287198
0.028876
0.0290271
0.029173
0.0293137
0.0294492
0.0295793
0.0297042
0.0298237
0.0299378
0.0300465
0.0301499
0.0302477
0.0303402
0.0304271
0.0305086
0.0305846
0.0306551
0.0307201
0.0307796
0.0308335
0.030882
0.0309249
0.0309624
0.0309943
0.0310208
0.0310418
0.0310573
0.0310673
0.031072
0.0310712
0.031065
0.0310534
0.0310364
0.0310141
0.0309865
0.0309536
0.0309155
0.0308721
0.0308235
0.0307697
0.0307108
0.0306468
0.0305777
0.0305036
0.0304244
0.0303403
0.0302512
0.0301573
0.0300585
0.0299549
0.0298465
0.0297334
0.0296156
0.0294931
0.029366
0.0292344
0.0290983
0.0289577
0.0288126
0.0286632
0.0285095
0.0283515
0.0281892
0.0280228
0.0278522
0.0276775
0.0274989
0.0273162
0.0271296
0.0269391
0.0267448
0.0265467
0.0263449
0.0261395
0.0259304
0.0257177
0.0255016
0.025282
0.025059
0.0248327
0.0246031
0.0243703
0.0241343
0.0238952
0.023653
0.0234078
0.0231597
0.0229087
0.0226549
0.0223983
0.0221389
0.021877
0.0216124
0.0213453
0.0210756
0.0208036
0.0205292
0.0202524
0.0199734
0.0196922
0.0194088
0.0191233
0.0188358
0.0185462
0.0182548
0.0179614