/*--------------------------------*- C++ -*----------------------------------*\
| =========                 |                                                 |
| \\      /  F ield         | OpenFOAM: The Open Source CFD Toolbox           |
|  \\    /   O peration     | Version:  v2012                                 |
|   \\  /    A nd           | Website:  www.openfoam.com                      |
|    \\/     M anipulation  |                                                 |
\*---------------------------------------------------------------------------*/
FoamFile
{
    version     2.0;
    format      ascii;
    class       volScalarField;
    location    "1.75";
    object      W;
}
// * * * * * * * * * * * * * * * * * * * * * * * * * * * * * * * * * * * * * //

dimensions      [0 0 -1 0 0 0 0];


internalField   nonuniform List<scalar> 
65536
(
1.10989e-20
1.24687e-20
1.54287e-20
2.01533e-20
2.69655e-20
3.63772e-20
4.91325e-20
6.62578e-20
8.91266e-20
1.19547e-19
1.59877e-19
2.13177e-19
2.83398e-19
3.75624e-19
4.96376e-19
6.53986e-19
8.59066e-19
1.12508e-18
1.46907e-18
1.91249e-18
2.48231e-18
3.21227e-18
4.14446e-18
5.33117e-18
6.83715e-18
8.74231e-18
1.11449e-17
1.41652e-17
1.79501e-17
2.26782e-17
2.85659e-17
3.58742e-17
4.49173e-17
5.60713e-17
6.97851e-17
8.65924e-17
1.07125e-16
1.32128e-16
1.62478e-16
1.99198e-16
2.43482e-16
2.96716e-16
3.60501e-16
4.36678e-16
5.27359e-16
6.34949e-16
7.62184e-16
9.12152e-16
1.08833e-15
1.29461e-15
1.53533e-15
1.81529e-15
2.1398e-15
2.51467e-15
2.94623e-15
3.44137e-15
4.00749e-15
4.65253e-15
5.38492e-15
6.21358e-15
7.14783e-15
8.1974e-15
9.37227e-15
1.06826e-14
1.21388e-14
1.3751e-14
1.55293e-14
1.74834e-14
1.96226e-14
2.19552e-14
2.44889e-14
2.72301e-14
3.01838e-14
3.33534e-14
3.67406e-14
4.0345e-14
4.41638e-14
4.81918e-14
5.24214e-14
5.68418e-14
6.14396e-14
6.61982e-14
7.10981e-14
7.61169e-14
8.12289e-14
8.64058e-14
9.16168e-14
9.68283e-14
1.02005e-13
1.07109e-13
1.12103e-13
1.16946e-13
1.21598e-13
1.2602e-13
1.30172e-13
1.34016e-13
1.37516e-13
1.40638e-13
1.43351e-13
1.45627e-13
1.47443e-13
1.48779e-13
1.4962e-13
1.49957e-13
1.49785e-13
1.49105e-13
1.47923e-13
1.46251e-13
1.44105e-13
1.41508e-13
1.38485e-13
1.35069e-13
1.31293e-13
1.27197e-13
1.22822e-13
1.18212e-13
1.13412e-13
1.08469e-13
1.03432e-13
9.83487e-14
9.32659e-14
8.82307e-14
8.32887e-14
7.84835e-14
7.38567e-14
6.94477e-14
6.5293e-14
6.14266e-14
5.78791e-14
5.46784e-14
5.18491e-14
4.94123e-14
4.73862e-14
4.57857e-14
4.46221e-14
4.39039e-14
4.36361e-14
4.38202e-14
4.44548e-14
4.55349e-14
4.70521e-14
4.89947e-14
5.13475e-14
5.40916e-14
5.72047e-14
6.06608e-14
6.44302e-14
6.84799e-14
7.27732e-14
7.72702e-14
8.19279e-14
8.67004e-14
9.15393e-14
9.63942e-14
1.01213e-13
1.05943e-13
1.10531e-13
1.14923e-13
1.19068e-13
1.22915e-13
1.26416e-13
1.29529e-13
1.32211e-13
1.34427e-13
1.36147e-13
1.37348e-13
1.3801e-13
1.38122e-13
1.37681e-13
1.36688e-13
1.35154e-13
1.33093e-13
1.30529e-13
1.27491e-13
1.24011e-13
1.20129e-13
1.15887e-13
1.11332e-13
1.0651e-13
1.01472e-13
9.62681e-14
9.09477e-14
8.556e-14
8.01521e-14
7.47686e-14
6.94512e-14
6.4238e-14
5.91632e-14
5.42569e-14
4.95448e-14
4.50482e-14
4.07838e-14
3.67644e-14
3.29983e-14
2.94902e-14
2.62411e-14
2.32488e-14
2.05084e-14
1.80124e-14
1.57513e-14
1.37141e-14
1.18882e-14
1.02604e-14
8.8167e-15
7.54295e-15
6.42492e-15
5.44856e-15
4.60026e-15
3.86694e-15
3.23619e-15
2.69638e-15
2.2367e-15
1.84718e-15
1.51875e-15
1.24319e-15
1.01312e-15
8.21969e-16
6.63924e-16
5.33887e-16
4.27413e-16
3.40652e-16
2.70296e-16
2.13517e-16
1.67914e-16
1.31463e-16
1.02466e-16
7.95091e-17
6.14205e-17
4.72355e-17
3.61644e-17
2.75646e-17
2.0916e-17
1.58002e-17
1.18823e-17
8.89603e-18
6.63049e-18
4.91983e-18
3.63419e-18
2.67252e-18
1.95653e-18
1.42596e-18
1.03461e-18
7.47316e-19
5.37382e-19
3.84693e-19
2.74157e-19
1.94508e-19
1.37383e-19
9.66043e-20
6.76374e-20
4.71754e-20
3.28339e-20
2.29247e-20
1.62921e-20
1.21881e-20
1.01744e-20
1.45924e-20
1.63932e-20
2.02847e-20
2.64962e-20
3.54519e-20
4.78249e-20
6.45931e-20
8.71052e-20
1.17166e-19
1.57152e-19
2.10162e-19
2.80216e-19
3.72504e-19
4.93706e-19
6.52386e-19
8.59488e-19
1.12895e-18
1.47845e-18
1.93035e-18
2.51283e-18
3.26129e-18
4.21999e-18
5.44417e-18
7.00243e-18
8.97971e-18
1.14808e-17
1.46345e-17
1.85986e-17
2.35654e-17
2.97692e-17
3.74933e-17
4.70796e-17
5.89395e-17
7.35654e-17
9.15446e-17
1.13575e-16
1.40484e-16
1.73245e-16
2.13003e-16
2.61096e-16
3.19083e-16
3.88773e-16
4.72254e-16
5.71929e-16
6.9055e-16
8.31253e-16
9.97599e-16
1.19361e-15
1.42381e-15
1.69325e-15
2.00757e-15
2.37302e-15
2.79647e-15
3.28545e-15
3.84819e-15
4.49357e-15
5.23118e-15
6.07127e-15
7.02473e-15
8.10303e-15
9.31821e-15
1.06827e-14
1.22094e-14
1.39114e-14
1.58017e-14
1.78935e-14
2.01996e-14
2.27323e-14
2.55032e-14
2.85229e-14
3.18009e-14
3.53451e-14
3.91616e-14
4.32544e-14
4.7625e-14
5.22725e-14
5.71929e-14
6.23789e-14
6.78199e-14
7.35017e-14
7.94063e-14
8.55121e-14
9.17931e-14
9.82201e-14
1.0476e-13
1.11375e-13
1.18026e-13
1.24669e-13
1.31259e-13
1.37748e-13
1.44086e-13
1.50222e-13
1.56105e-13
1.61684e-13
1.6691e-13
1.71734e-13
1.7611e-13
1.79996e-13
1.83353e-13
1.86146e-13
1.88347e-13
1.89931e-13
1.90882e-13
1.91187e-13
1.90844e-13
1.89852e-13
1.88223e-13
1.85973e-13
1.83122e-13
1.79702e-13
1.75746e-13
1.71296e-13
1.66396e-13
1.61096e-13
1.5545e-13
1.49514e-13
1.43346e-13
1.37006e-13
1.30555e-13
1.24054e-13
1.17563e-13
1.1114e-13
1.04843e-13
9.87272e-14
9.28437e-14
8.72417e-14
8.19665e-14
7.706e-14
7.256e-14
6.85006e-14
6.49114e-14
6.18183e-14
5.92429e-14
5.72026e-14
5.57108e-14
5.47767e-14
5.44055e-14
5.45982e-14
5.53517e-14
5.66589e-14
5.85083e-14
6.08842e-14
6.37669e-14
6.71319e-14
7.09507e-14
7.51903e-14
7.98133e-14
8.4778e-14
9.00386e-14
9.55452e-14
1.01244e-13
1.07079e-13
1.12989e-13
1.18913e-13
1.24786e-13
1.30544e-13
1.3612e-13
1.4145e-13
1.46471e-13
1.51121e-13
1.55342e-13
1.59081e-13
1.62289e-13
1.64924e-13
1.66948e-13
1.68334e-13
1.6906e-13
1.69114e-13
1.6849e-13
1.67194e-13
1.65238e-13
1.62641e-13
1.59434e-13
1.55651e-13
1.51334e-13
1.46531e-13
1.41295e-13
1.35682e-13
1.2975e-13
1.23561e-13
1.17176e-13
1.10655e-13
1.04059e-13
9.74436e-14
9.08638e-14
8.437e-14
7.80082e-14
7.18196e-14
6.58404e-14
6.01015e-14
5.46281e-14
4.94405e-14
4.45534e-14
3.99768e-14
3.57157e-14
3.1771e-14
2.81398e-14
2.48157e-14
2.17894e-14
1.9049e-14
1.65808e-14
1.43695e-14
1.23988e-14
1.06516e-14
9.11056e-15
7.75837e-15
6.57789e-15
5.55255e-15
4.66643e-15
3.90447e-15
3.25254e-15
2.69752e-15
2.22734e-15
1.83099e-15
1.49851e-15
1.22099e-15
9.90454e-16
7.99889e-16
6.43125e-16
5.14791e-16
4.10236e-16
3.25465e-16
2.57063e-16
2.02135e-16
1.58236e-16
1.2332e-16
9.56808e-17
7.39055e-17
5.68315e-17
4.35072e-17
3.31584e-17
2.51584e-17
1.90035e-17
1.42902e-17
1.0698e-17
7.97302e-18
5.91561e-18
4.3695e-18
3.21307e-18
2.35215e-18
1.71421e-18
1.2437e-18
8.98307e-19
6.45933e-19
4.62386e-19
3.29516e-19
2.33778e-19
1.65115e-19
1.16103e-19
8.12879e-20
5.66955e-20
3.94593e-20
2.75502e-20
1.95788e-20
1.46466e-20
1.22268e-20
2.22624e-20
2.50091e-20
3.09452e-20
4.04202e-20
5.40808e-20
7.29533e-20
9.85287e-20
1.32863e-19
1.78709e-19
2.39688e-19
3.20523e-19
4.27342e-19
5.68054e-19
7.52838e-19
9.94743e-19
1.31044e-18
1.72115e-18
2.25382e-18
2.94248e-18
3.83005e-18
4.9704e-18
6.43092e-18
8.29565e-18
1.0669e-17
1.36801e-17
1.74883e-17
2.22896e-17
2.83236e-17
3.58829e-17
4.53231e-17
5.70747e-17
7.1657e-17
8.96942e-17
1.11934e-16
1.39267e-16
1.72752e-16
2.13642e-16
2.63413e-16
3.238e-16
3.96828e-16
4.84857e-16
5.90624e-16
7.17285e-16
8.68474e-16
1.04834e-15
1.26163e-15
1.51371e-15
1.81064e-15
2.15924e-15
2.56713e-15
3.04278e-15
3.59558e-15
4.23586e-15
4.97494e-15
5.82512e-15
6.79975e-15
7.91315e-15
9.18065e-15
1.06185e-14
1.22438e-14
1.40745e-14
1.61291e-14
1.84267e-14
2.09865e-14
2.3828e-14
2.69706e-14
3.04328e-14
3.42329e-14
3.83877e-14
4.29126e-14
4.7821e-14
5.31242e-14
5.88306e-14
6.49454e-14
7.14702e-14
7.84026e-14
8.57357e-14
9.34579e-14
1.01552e-13
1.09997e-13
1.18764e-13
1.27821e-13
1.37127e-13
1.46638e-13
1.56305e-13
1.66071e-13
1.75877e-13
1.85657e-13
1.95343e-13
2.04864e-13
2.14147e-13
2.23116e-13
2.31696e-13
2.39811e-13
2.4739e-13
2.54361e-13
2.60658e-13
2.66219e-13
2.70989e-13
2.74918e-13
2.77965e-13
2.80097e-13
2.8129e-13
2.8153e-13
2.80813e-13
2.79143e-13
2.76538e-13
2.73023e-13
2.68633e-13
2.63412e-13
2.57415e-13
2.50702e-13
2.43341e-13
2.35407e-13
2.26979e-13
2.18139e-13
2.08976e-13
1.99576e-13
1.90028e-13
1.80423e-13
1.70846e-13
1.61384e-13
1.52119e-13
1.43131e-13
1.34493e-13
1.26276e-13
1.18545e-13
1.11358e-13
1.0477e-13
9.88275e-14
9.35722e-14
8.90396e-14
8.52591e-14
8.22541e-14
8.00419e-14
7.8634e-14
7.8036e-14
7.82474e-14
7.9262e-14
8.10676e-14
8.36462e-14
8.69738e-14
9.10202e-14
9.57493e-14
1.01119e-13
1.0708e-13
1.1358e-13
1.20556e-13
1.27944e-13
1.35671e-13
1.43661e-13
1.51833e-13
1.60102e-13
1.6838e-13
1.76575e-13
1.84597e-13
1.92352e-13
1.99752e-13
2.06705e-13
2.13128e-13
2.1894e-13
2.24066e-13
2.28439e-13
2.32002e-13
2.34704e-13
2.36506e-13
2.37382e-13
2.37315e-13
2.363e-13
2.34345e-13
2.31468e-13
2.27701e-13
2.23085e-13
2.1767e-13
2.11517e-13
2.04694e-13
1.97274e-13
1.89338e-13
1.80967e-13
1.72248e-13
1.63265e-13
1.54103e-13
1.44847e-13
1.35574e-13
1.26361e-13
1.17276e-13
1.08385e-13
9.97421e-14
9.13988e-14
8.33967e-14
7.57705e-14
6.85473e-14
6.1747e-14
5.53826e-14
4.94606e-14
4.39816e-14
3.89407e-14
3.43286e-14
3.01317e-14
2.63332e-14
2.29136e-14
1.98514e-14
1.71236e-14
1.47061e-14
1.25748e-14
1.07054e-14
9.07399e-15
7.65749e-15
6.43376e-15
5.38186e-15
4.48215e-15
3.71642e-15
3.06793e-15
2.52144e-15
2.06315e-15
1.6807e-15
1.36309e-15
1.10062e-15
8.84752e-16
7.08074e-16
5.64166e-16
4.47512e-16
3.53404e-16
2.77847e-16
2.17474e-16
1.69463e-16
1.31464e-16
1.01532e-16
7.80658e-17
5.97561e-17
4.55372e-17
3.4547e-17
2.60925e-17
1.96192e-17
1.46861e-17
1.09443e-17
8.11952e-18
5.99695e-18
4.40949e-18
3.22777e-18
2.3522e-18
1.70649e-18
1.23251e-18
8.86199e-19
6.34351e-19
4.52047e-19
3.20697e-19
2.26499e-19
1.59261e-19
1.11502e-19
7.7767e-20
5.41236e-20
3.77879e-20
2.68536e-20
2.00882e-20
1.67689e-20
3.59433e-20
4.03768e-20
4.9959e-20
6.52534e-20
8.73039e-20
1.17766e-19
1.59046e-19
2.1446e-19
2.88449e-19
3.86855e-19
5.17298e-19
6.89658e-19
9.16693e-19
1.21481e-18
1.60506e-18
2.11431e-18
2.77677e-18
3.63586e-18
4.74644e-18
6.17764e-18
8.01626e-18
1.03708e-17
1.33767e-17
1.72019e-17
2.20545e-17
2.8191e-17
3.59264e-17
4.56466e-17
5.78221e-17
7.30246e-17
9.19462e-17
1.15422e-16
1.44454e-16
1.80243e-16
2.24221e-16
2.78087e-16
3.4385e-16
4.23881e-16
5.20959e-16
6.38332e-16
7.79781e-16
9.49687e-16
1.15311e-15
1.39585e-15
1.68457e-15
2.02683e-15
2.43121e-15
2.9074e-15
3.46626e-15
4.11996e-15
4.882e-15
5.76733e-15
6.79238e-15
7.97515e-15
9.33521e-15
1.08937e-14
1.26734e-14
1.46985e-14
1.69947e-14
1.95892e-14
2.25102e-14
2.57868e-14
2.9449e-14
3.35271e-14
3.80517e-14
4.30528e-14
4.85596e-14
5.46002e-14
6.12006e-14
6.83846e-14
7.61725e-14
8.45812e-14
9.36231e-14
1.03305e-13
1.13629e-13
1.24589e-13
1.36174e-13
1.48364e-13
1.6113e-13
1.74438e-13
1.8824e-13
2.02484e-13
2.17107e-13
2.32036e-13
2.47192e-13
2.62486e-13
2.77822e-13
2.93099e-13
3.08207e-13
3.23034e-13
3.37464e-13
3.51381e-13
3.64665e-13
3.772e-13
3.88872e-13
3.99573e-13
4.09199e-13
4.17655e-13
4.24857e-13
4.3073e-13
4.35211e-13
4.38253e-13
4.3982e-13
4.39894e-13
4.3847e-13
4.35562e-13
4.31196e-13
4.25417e-13
4.18281e-13
4.09863e-13
4.00247e-13
3.89531e-13
3.77823e-13
3.65241e-13
3.5191e-13
3.37961e-13
3.23529e-13
3.08751e-13
2.93767e-13
2.78713e-13
2.63725e-13
2.48936e-13
2.34471e-13
2.20452e-13
2.06993e-13
1.94201e-13
1.82173e-13
1.70998e-13
1.60758e-13
1.51522e-13
1.43352e-13
1.363e-13
1.30409e-13
1.25711e-13
1.22231e-13
1.19984e-13
1.18975e-13
1.19201e-13
1.2065e-13
1.23301e-13
1.27124e-13
1.3208e-13
1.3812e-13
1.45189e-13
1.5322e-13
1.62137e-13
1.71857e-13
1.82287e-13
1.93325e-13
2.04863e-13
2.16784e-13
2.28964e-13
2.41276e-13
2.53586e-13
2.65758e-13
2.77655e-13
2.89139e-13
3.00074e-13
3.10329e-13
3.19776e-13
3.28297e-13
3.35783e-13
3.42134e-13
3.47265e-13
3.51106e-13
3.53599e-13
3.54707e-13
3.54407e-13
3.52695e-13
3.49585e-13
3.45107e-13
3.39309e-13
3.32254e-13
3.2402e-13
3.14699e-13
3.04393e-13
2.93213e-13
2.81278e-13
2.68712e-13
2.55642e-13
2.42196e-13
2.285e-13
2.14677e-13
2.00844e-13
1.87113e-13
1.73586e-13
1.60356e-13
1.47509e-13
1.35114e-13
1.23236e-13
1.11923e-13
1.01214e-13
9.11389e-14
8.17149e-14
7.2951e-14
6.4847e-14
5.73949e-14
5.05801e-14
4.43818e-14
3.87745e-14
3.37289e-14
2.92124e-14
2.51908e-14
2.16282e-14
1.84885e-14
1.57356e-14
1.33341e-14
1.12497e-14
9.44957e-15
7.90267e-15
6.58e-15
5.45463e-15
4.50185e-15
3.69914e-15
3.02616e-15
2.46471e-15
1.99856e-15
1.61342e-15
1.29675e-15
1.03762e-15
8.26596e-16
6.55574e-16
5.17632e-16
4.06904e-16
3.18443e-16
2.48107e-16
1.92448e-16
1.48613e-16
1.14252e-16
8.7445e-17
6.66302e-17
5.05442e-17
3.8171e-17
2.86984e-17
2.14805e-17
1.60063e-17
1.1874e-17
8.76932e-18
6.44753e-18
4.71932e-18
3.43894e-18
2.49476e-18
1.80174e-18
1.29542e-18
9.27236e-19
6.60734e-19
4.68729e-19
3.31038e-19
2.3276e-19
1.62955e-19
1.1365e-19
7.90957e-20
5.52215e-20
3.92416e-20
2.93541e-20
2.45031e-20
5.89204e-20
6.61859e-20
8.18898e-20
1.06955e-19
1.43092e-19
1.93013e-19
2.60658e-19
3.51462e-19
4.72696e-19
6.33929e-19
8.4764e-19
1.13001e-18
1.50192e-18
1.99025e-18
2.62943e-18
3.46346e-18
4.54834e-18
5.95508e-18
7.77348e-18
1.01166e-17
1.31265e-17
1.69806e-17
2.19002e-17
2.81602e-17
3.61005e-17
4.61402e-17
5.87945e-17
7.46934e-17
9.46055e-17
1.19464e-16
1.504e-16
1.88775e-16
2.36225e-16
2.9471e-16
3.66562e-16
4.54552e-16
5.61958e-16
6.9264e-16
8.51123e-16
1.0427e-15
1.27352e-15
1.55071e-15
1.8825e-15
2.27833e-15
2.74901e-15
3.30682e-15
3.96569e-15
4.74134e-15
5.6514e-15
6.71556e-15
7.95569e-15
9.396e-15
1.10631e-14
1.29859e-14
1.51963e-14
1.77281e-14
2.06182e-14
2.39056e-14
2.76317e-14
3.18398e-14
3.65755e-14
4.18854e-14
4.78175e-14
5.44203e-14
6.17423e-14
6.98313e-14
7.87338e-14
8.8494e-14
9.91529e-14
1.10747e-13
1.2331e-13
1.36865e-13
1.51432e-13
1.6702e-13
1.8363e-13
2.01253e-13
2.19866e-13
2.39436e-13
2.59917e-13
2.81248e-13
3.03354e-13
3.26148e-13
3.49526e-13
3.73372e-13
3.97554e-13
4.21931e-13
4.46347e-13
4.70637e-13
4.94628e-13
5.1814e-13
5.40986e-13
5.62979e-13
5.83931e-13
6.03658e-13
6.21978e-13
6.3872e-13
6.53722e-13
6.66836e-13
6.77928e-13
6.86885e-13
6.93609e-13
6.98029e-13
7.00094e-13
6.99777e-13
6.97078e-13
6.92019e-13
6.84651e-13
6.75046e-13
6.633e-13
6.49534e-13
6.33887e-13
6.16518e-13
5.976e-13
5.77324e-13
5.55889e-13
5.33505e-13
5.10387e-13
4.86753e-13
4.62822e-13
4.38814e-13
4.14939e-13
3.91407e-13
3.68415e-13
3.46153e-13
3.24798e-13
3.04516e-13
2.85457e-13
2.67759e-13
2.51544e-13
2.36922e-13
2.23984e-13
2.12808e-13
2.03457e-13
1.95979e-13
1.90409e-13
1.86764e-13
1.85051e-13
1.85261e-13
1.87371e-13
1.91345e-13
1.97133e-13
2.04671e-13
2.13881e-13
2.24672e-13
2.3694e-13
2.50564e-13
2.65413e-13
2.81342e-13
2.98192e-13
3.15793e-13
3.33966e-13
3.52519e-13
3.71254e-13
3.89967e-13
4.08449e-13
4.26488e-13
4.43876e-13
4.60404e-13
4.75872e-13
4.90088e-13
5.02872e-13
5.1406e-13
5.23502e-13
5.31072e-13
5.36663e-13
5.40194e-13
5.41608e-13
5.40875e-13
5.37992e-13
5.32983e-13
5.25897e-13
5.16811e-13
5.05824e-13
4.93056e-13
4.7865e-13
4.62761e-13
4.45562e-13
4.27235e-13
4.0797e-13
3.87959e-13
3.67397e-13
3.46475e-13
3.2538e-13
3.04291e-13
2.83374e-13
2.62785e-13
2.42665e-13
2.23138e-13
2.04313e-13
1.86283e-13
1.69122e-13
1.52888e-13
1.37622e-13
1.2335e-13
1.10085e-13
9.78242e-14
8.65555e-14
7.62549e-14
6.68904e-14
5.84223e-14
5.08055e-14
4.39902e-14
3.79239e-14
3.2552e-14
2.78194e-14
2.36713e-14
2.00539e-14
1.6915e-14
1.42051e-14
1.18771e-14
9.88706e-15
8.19438e-15
6.76167e-15
5.55493e-15
4.54348e-15
3.69983e-15
2.99956e-15
2.4211e-15
1.94558e-15
1.55654e-15
1.2398e-15
9.83138e-16
7.76162e-16
6.10047e-16
4.77359e-16
3.71876e-16
2.88417e-16
2.22696e-16
1.71187e-16
1.31008e-16
9.98135e-17
7.57089e-17
5.71701e-17
4.29789e-17
3.21666e-17
2.39672e-17
1.77784e-17
1.31289e-17
9.65223e-18
7.06458e-18
5.14762e-18
3.7341e-18
2.69666e-18
1.93877e-18
1.38767e-18
9.88788e-19
7.01426e-19
4.95362e-19
3.48289e-19
2.4383e-19
1.70051e-19
1.18345e-19
8.26218e-20
5.87111e-20
4.39166e-20
3.66579e-20
9.66898e-20
1.08609e-19
1.34373e-19
1.75495e-19
2.3478e-19
3.16674e-19
4.27642e-19
5.76592e-19
7.75448e-19
1.0399e-18
1.3904e-18
1.85348e-18
2.46337e-18
3.2641e-18
4.31213e-18
5.67953e-18
7.45804e-18
9.76403e-18
1.27446e-17
1.65848e-17
2.15173e-17
2.78327e-17
3.58933e-17
4.61487e-17
5.91554e-17
7.55994e-17
9.63228e-17
1.22357e-16
1.54957e-16
1.95652e-16
2.46286e-16
3.09087e-16
3.86728e-16
4.82407e-16
5.99936e-16
7.43837e-16
9.19458e-16
1.1331e-15
1.39213e-15
1.70519e-15
2.0823e-15
2.53508e-15
3.07691e-15
3.72317e-15
4.49143e-15
5.4017e-15
6.4766e-15
7.74167e-15
9.22555e-15
1.09602e-14
1.29811e-14
1.53274e-14
1.80423e-14
2.11728e-14
2.477e-14
2.88891e-14
3.35893e-14
3.89335e-14
4.49887e-14
5.18246e-14
5.95142e-14
6.81327e-14
7.77569e-14
8.84645e-14
1.00333e-13
1.13438e-13
1.27855e-13
1.43652e-13
1.60895e-13
1.79642e-13
1.99942e-13
2.21835e-13
2.45347e-13
2.70493e-13
2.9727e-13
3.25661e-13
3.55628e-13
3.87114e-13
4.2004e-13
4.54308e-13
4.89794e-13
5.26352e-13
5.63815e-13
6.01993e-13
6.40673e-13
6.79624e-13
7.18595e-13
7.57321e-13
7.95521e-13
8.32906e-13
8.69179e-13
9.04039e-13
9.37187e-13
9.68328e-13
9.97175e-13
1.02346e-12
1.04692e-12
1.06733e-12
1.08447e-12
1.09818e-12
1.1083e-12
1.11473e-12
1.11738e-12
1.11623e-12
1.11127e-12
1.10256e-12
1.09018e-12
1.07425e-12
1.05493e-12
1.03241e-12
1.00694e-12
9.78756e-13
9.4815e-13
9.15423e-13
8.80898e-13
8.44909e-13
8.078e-13
7.69919e-13
7.31615e-13
6.93231e-13
6.55105e-13
6.17564e-13
5.80921e-13
5.4547e-13
5.1149e-13
4.79238e-13
4.48948e-13
4.20834e-13
3.95083e-13
3.71862e-13
3.51309e-13
3.33543e-13
3.18657e-13
3.06721e-13
2.97782e-13
2.91865e-13
2.88972e-13
2.89085e-13
2.92163e-13
2.98144e-13
3.06944e-13
3.1846e-13
3.32567e-13
3.49117e-13
3.67943e-13
3.88857e-13
4.1165e-13
4.36093e-13
4.6194e-13
4.88925e-13
5.16767e-13
5.45169e-13
5.73826e-13
6.02421e-13
6.30631e-13
6.58132e-13
6.84601e-13
7.09721e-13
7.33186e-13
7.54702e-13
7.73996e-13
7.90817e-13
8.04942e-13
8.1618e-13
8.24371e-13
8.29395e-13
8.31169e-13
8.29653e-13
8.24847e-13
8.1679e-13
8.05565e-13
7.91291e-13
7.74125e-13
7.54254e-13
7.31899e-13
7.07303e-13
6.80729e-13
6.52459e-13
6.22782e-13
5.91997e-13
5.60398e-13
5.2828e-13
4.95927e-13
4.63608e-13
4.3158e-13
4.00077e-13
3.69313e-13
3.39476e-13
3.1073e-13
2.83213e-13
2.57037e-13
2.32288e-13
2.09027e-13
1.87293e-13
1.671e-13
1.48445e-13
1.31307e-13
1.15648e-13
1.01417e-13
8.85543e-14
7.69885e-14
6.66437e-14
5.74389e-14
4.92907e-14
4.21145e-14
3.58265e-14
3.03446e-14
2.55894e-14
2.14852e-14
1.79603e-14
1.49481e-14
1.23865e-14
1.02189e-14
8.39361e-15
6.86407e-15
5.58856e-15
4.53005e-15
3.65586e-15
2.93736e-15
2.34966e-15
1.87125e-15
1.48366e-15
1.17115e-15
9.20382e-16
7.20106e-16
5.60916e-16
4.34981e-16
3.35825e-16
2.58123e-16
1.97519e-16
1.50473e-16
1.14124e-16
8.61708e-17
6.47754e-17
4.84758e-17
3.61164e-17
2.67885e-17
1.97813e-17
1.4542e-17
1.06428e-17
7.75447e-18
5.62481e-18
4.06187e-18
2.92015e-18
2.08999e-18
1.48917e-18
1.05635e-18
7.45989e-19
5.24488e-19
3.67173e-19
2.56065e-19
1.78201e-19
1.24406e-19
8.84007e-20
6.61226e-20
5.51921e-20
1.58183e-19
1.77675e-19
2.19813e-19
2.8707e-19
3.8403e-19
5.17964e-19
6.99436e-19
9.43013e-19
1.26818e-18
1.70059e-18
2.27366e-18
3.03075e-18
4.0278e-18
5.33676e-18
7.04983e-18
9.28477e-18
1.21914e-17
1.59598e-17
2.08301e-17
2.71047e-17
3.51631e-17
4.54797e-17
5.86458e-17
7.53952e-17
9.66357e-17
1.23486e-16
1.5732e-16
1.99819e-16
2.53031e-16
3.19443e-16
4.02067e-16
5.04528e-16
6.31181e-16
7.87235e-16
9.78893e-16
1.21352e-15
1.49981e-15
1.848e-15
2.27011e-15
2.78015e-15
3.39442e-15
4.13178e-15
5.01397e-15
6.06594e-15
7.31622e-15
8.79722e-15
1.05457e-14
1.26029e-14
1.50152e-14
1.78345e-14
2.1118e-14
2.49292e-14
2.93377e-14
3.44194e-14
4.02568e-14
4.69388e-14
5.45608e-14
6.32243e-14
7.30364e-14
8.41096e-14
9.65607e-14
1.1051e-13
1.26081e-13
1.43397e-13
1.62582e-13
1.83757e-13
2.07039e-13
2.3254e-13
2.60359e-13
2.9059e-13
3.23307e-13
3.58572e-13
3.96425e-13
4.36883e-13
4.79942e-13
5.25565e-13
5.7369e-13
6.24221e-13
6.77026e-13
7.31942e-13
7.88767e-13
8.47264e-13
9.07158e-13
9.6814e-13
1.02987e-12
1.09197e-12
1.15403e-12
1.21564e-12
1.27633e-12
1.33565e-12
1.39313e-12
1.44827e-12
1.50061e-12
1.54967e-12
1.59501e-12
1.63619e-12
1.67282e-12
1.70452e-12
1.73097e-12
1.7519e-12
1.76709e-12
1.77635e-12
1.7796e-12
1.77678e-12
1.7679e-12
1.75306e-12
1.73239e-12
1.70611e-12
1.67447e-12
1.6378e-12
1.59647e-12
1.55089e-12
1.50152e-12
1.44885e-12
1.3934e-12
1.33569e-12
1.27627e-12
1.2157e-12
1.15454e-12
1.09331e-12
1.03257e-12
9.72807e-13
9.14529e-13
8.58194e-13
8.04235e-13
7.53052e-13
7.05009e-13
6.60434e-13
6.19616e-13
5.82807e-13
5.5022e-13
5.22032e-13
4.9838e-13
4.79366e-13
4.65056e-13
4.55479e-13
4.50631e-13
4.50476e-13
4.54941e-13
4.63922e-13
4.77283e-13
4.94853e-13
5.16431e-13
5.41783e-13
5.70642e-13
6.02712e-13
6.37663e-13
6.75137e-13
7.14748e-13
7.56082e-13
7.98701e-13
8.42148e-13
8.85947e-13
9.2961e-13
9.7264e-13
1.01454e-12
1.05481e-12
1.09297e-12
1.12855e-12
1.1611e-12
1.19021e-12
1.21549e-12
1.23662e-12
1.2533e-12
1.26529e-12
1.27241e-12
1.27456e-12
1.27166e-12
1.26373e-12
1.25084e-12
1.23312e-12
1.21075e-12
1.18398e-12
1.15311e-12
1.11847e-12
1.08045e-12
1.03944e-12
9.95878e-13
9.50212e-13
9.02894e-13
8.54379e-13
8.05113e-13
7.55529e-13
7.0604e-13
6.57031e-13
6.0886e-13
5.6185e-13
5.16284e-13
4.72412e-13
4.30438e-13
3.90532e-13
3.5282e-13
3.17393e-13
2.84305e-13
2.53579e-13
2.25206e-13
1.9915e-13
1.75353e-13
1.53735e-13
1.34201e-13
1.16644e-13
1.00946e-13
8.69823e-14
7.46255e-14
6.37462e-14
5.42164e-14
4.59107e-14
3.8708e-14
3.2493e-14
2.71568e-14
2.25978e-14
1.87218e-14
1.54427e-14
1.26821e-14
1.03693e-14
8.44105e-15
6.84117e-15
5.52012e-15
4.43457e-15
3.54679e-15
2.82424e-15
2.23896e-15
1.76713e-15
1.38858e-15
1.08629e-15
8.4605e-16
6.56025e-16
5.06427e-16
3.89212e-16
2.978e-16
2.26848e-16
1.72033e-16
1.29885e-16
9.76277e-17
7.30557e-17
5.44253e-17
4.03658e-17
2.98051e-17
2.19095e-17
1.60339e-17
1.16818e-17
8.47309e-18
6.1184e-18
4.39841e-18
3.14787e-18
2.24284e-18
1.5909e-18
1.12345e-18
7.89845e-19
5.52922e-19
3.85595e-19
2.68336e-19
1.87326e-19
1.33106e-19
9.95585e-20
8.30984e-20
2.57706e-19
2.89452e-19
3.58081e-19
4.67622e-19
6.25537e-19
8.43663e-19
1.1392e-18
1.53585e-18
2.06535e-18
2.76942e-18
3.70249e-18
4.93509e-18
6.55826e-18
8.68905e-18
1.14775e-17
1.51151e-17
1.98456e-17
2.59781e-17
3.39031e-17
4.41123e-17
5.72226e-17
7.40052e-17
9.5421e-17
1.22662e-16
1.57204e-16
2.00864e-16
2.55873e-16
3.24961e-16
4.11453e-16
5.19388e-16
6.53649e-16
8.20122e-16
1.02587e-15
1.27934e-15
1.59059e-15
1.97154e-15
2.43631e-15
3.00147e-15
3.68648e-15
4.51402e-15
5.51045e-15
6.70631e-15
8.13675e-15
9.84212e-15
1.18685e-14
1.42682e-14
1.71005e-14
2.04322e-14
2.43381e-14
2.89014e-14
3.42148e-14
4.03802e-14
4.75097e-14
5.57255e-14
6.51599e-14
7.5956e-14
8.82666e-14
1.02254e-13
1.18091e-13
1.35956e-13
1.56037e-13
1.78525e-13
2.03617e-13
2.3151e-13
2.624e-13
2.96479e-13
3.33932e-13
3.74934e-13
4.19643e-13
4.68203e-13
5.2073e-13
5.77317e-13
6.38023e-13
7.02871e-13
7.71845e-13
8.44884e-13
9.21879e-13
1.00267e-12
1.08704e-12
1.17472e-12
1.26538e-12
1.35864e-12
1.45404e-12
1.5511e-12
1.64925e-12
1.7479e-12
1.84639e-12
1.94405e-12
2.04015e-12
2.13395e-12
2.22469e-12
2.31162e-12
2.39398e-12
2.47102e-12
2.54204e-12
2.60635e-12
2.66333e-12
2.7124e-12
2.75306e-12
2.78489e-12
2.80755e-12
2.82077e-12
2.82442e-12
2.81842e-12
2.80283e-12
2.77779e-12
2.74354e-12
2.70043e-12
2.6489e-12
2.58945e-12
2.5227e-12
2.44931e-12
2.37002e-12
2.2856e-12
2.19687e-12
2.10469e-12
2.00992e-12
1.91344e-12
1.81613e-12
1.71883e-12
1.62238e-12
1.52759e-12
1.43523e-12
1.34602e-12
1.26063e-12
1.17968e-12
1.10373e-12
1.03329e-12
9.68807e-13
9.10654e-13
8.59158e-13
8.14581e-13
7.77127e-13
7.46941e-13
7.24115e-13
7.08681e-13
7.00621e-13
6.99865e-13
7.06289e-13
7.19719e-13
7.39931e-13
7.66652e-13
7.99558e-13
8.38277e-13
8.82388e-13
9.31422e-13
9.84865e-13
1.04216e-12
1.10269e-12
1.16583e-12
1.2309e-12
1.29718e-12
1.36395e-12
1.43045e-12
1.49592e-12
1.55959e-12
1.62071e-12
1.67853e-12
1.73235e-12
1.78147e-12
1.82528e-12
1.8632e-12
1.89472e-12
1.9194e-12
1.9369e-12
1.94694e-12
1.94937e-12
1.9441e-12
1.93115e-12
1.91064e-12
1.88278e-12
1.84787e-12
1.80628e-12
1.75847e-12
1.70497e-12
1.64636e-12
1.58326e-12
1.51633e-12
1.44626e-12
1.37373e-12
1.29944e-12
1.22407e-12
1.14828e-12
1.07269e-12
9.97892e-13
9.2442e-13
8.52763e-13
7.83352e-13
7.16556e-13
6.52687e-13
5.91994e-13
5.34667e-13
4.80839e-13
4.30589e-13
3.83946e-13
3.40892e-13
3.0137e-13
2.65287e-13
2.32522e-13
2.02926e-13
1.76335e-13
1.52567e-13
1.31432e-13
1.12735e-13
9.62782e-14
8.18672e-14
6.93109e-14
5.84251e-14
4.90345e-14
4.09738e-14
3.40887e-14
2.82367e-14
2.32869e-14
1.91208e-14
1.56312e-14
1.27224e-14
1.03094e-14
8.31737e-15
6.68074e-15
5.34254e-15
4.25357e-15
3.37164e-15
2.66078e-15
2.09053e-15
1.63524e-15
1.27345e-15
9.87322e-16
7.62096e-16
5.85645e-16
4.48056e-16
3.41272e-16
2.58786e-16
1.95366e-16
1.46835e-16
1.09869e-16
8.18447e-17
6.06978e-17
4.48148e-17
3.29409e-17
2.41055e-17
1.75615e-17
1.27371e-17
9.19694e-18
6.6112e-18
4.73131e-18
3.37089e-18
2.39096e-18
1.68837e-18
1.18697e-18
8.30898e-19
5.79432e-19
4.03216e-19
2.81478e-19
2e-19
1.49587e-19
1.24852e-19
4.17988e-19
4.69458e-19
5.80739e-19
7.58357e-19
1.01441e-18
1.36807e-18
1.84722e-18
2.49029e-18
3.34868e-18
4.49002e-18
6.00248e-18
8.00034e-18
1.06311e-17
1.40843e-17
1.8603e-17
2.44974e-17
3.21621e-17
4.20975e-17
5.4936e-17
7.14733e-17
9.2708e-17
1.19888e-16
1.54568e-16
1.98678e-16
2.54602e-16
3.25281e-16
4.14321e-16
5.26136e-16
6.66101e-16
8.40742e-16
1.05795e-15
1.32723e-15
1.65999e-15
2.06987e-15
2.5731e-15
3.18894e-15
3.94012e-15
4.85342e-15
5.96016e-15
7.29693e-15
8.90623e-15
1.08372e-14
1.31464e-14
1.58989e-14
1.91687e-14
2.30401e-14
2.76083e-14
3.29806e-14
3.9277e-14
4.66313e-14
5.51921e-14
6.51228e-14
7.6603e-14
8.98283e-14
1.05011e-13
1.22379e-13
1.42176e-13
1.64664e-13
1.90114e-13
2.18814e-13
2.51062e-13
2.87162e-13
3.27426e-13
3.72165e-13
4.21691e-13
4.76306e-13
5.36302e-13
6.01951e-13
6.73505e-13
7.51181e-13
8.35161e-13
9.25585e-13
1.02254e-12
1.12605e-12
1.23609e-12
1.35254e-12
1.47522e-12
1.60386e-12
1.73812e-12
1.87755e-12
2.02161e-12
2.16968e-12
2.32105e-12
2.47491e-12
2.63036e-12
2.78646e-12
2.94215e-12
3.09635e-12
3.24792e-12
3.39567e-12
3.5384e-12
3.67492e-12
3.80402e-12
3.92454e-12
4.03535e-12
4.1354e-12
4.2237e-12
4.29936e-12
4.36161e-12
4.4098e-12
4.44339e-12
4.46202e-12
4.46547e-12
4.45366e-12
4.4267e-12
4.38483e-12
4.32848e-12
4.25819e-12
4.17469e-12
4.07881e-12
3.97152e-12
3.85389e-12
3.72709e-12
3.59237e-12
3.45102e-12
3.30439e-12
3.15386e-12
3.0008e-12
2.84659e-12
2.69256e-12
2.54004e-12
2.39027e-12
2.24446e-12
2.10372e-12
1.9691e-12
1.84155e-12
1.72195e-12
1.61105e-12
1.50955e-12
1.41801e-12
1.33693e-12
1.2667e-12
1.20761e-12
1.15987e-12
1.1236e-12
1.09884e-12
1.08554e-12
1.08357e-12
1.09272e-12
1.1127e-12
1.14316e-12
1.18364e-12
1.23364e-12
1.29257e-12
1.35976e-12
1.43447e-12
1.51592e-12
1.60322e-12
1.69543e-12
1.79157e-12
1.89058e-12
1.99138e-12
2.09283e-12
2.19379e-12
2.29308e-12
2.38954e-12
2.48202e-12
2.56937e-12
2.65052e-12
2.72444e-12
2.79018e-12
2.84686e-12
2.89374e-12
2.93015e-12
2.95558e-12
2.96964e-12
2.97208e-12
2.9628e-12
2.94184e-12
2.90941e-12
2.86582e-12
2.81154e-12
2.74718e-12
2.67343e-12
2.59109e-12
2.50106e-12
2.4043e-12
2.30181e-12
2.19464e-12
2.08383e-12
1.97044e-12
1.85551e-12
1.74002e-12
1.62493e-12
1.51112e-12
1.3994e-12
1.29051e-12
1.1851e-12
1.08371e-12
9.86815e-13
8.94785e-13
8.07901e-13
7.26357e-13
6.50266e-13
5.79667e-13
5.14527e-13
4.54754e-13
4.00204e-13
3.50687e-13
3.05976e-13
2.65817e-13
2.29934e-13
1.98036e-13
1.69826e-13
1.45004e-13
1.23274e-13
1.04345e-13
8.79391e-14
7.37903e-14
6.16484e-14
5.12798e-14
4.24689e-14
3.50182e-14
2.87484e-14
2.34979e-14
1.91221e-14
1.5493e-14
1.24975e-14
1.00369e-14
8.0253e-15
6.38865e-15
5.06338e-15
3.99534e-15
3.13869e-15
2.45483e-15
1.9115e-15
1.48185e-15
1.1437e-15
8.78803e-16
6.72276e-16
5.12007e-16
3.8822e-16
2.93056e-16
2.20239e-16
1.64781e-16
1.22741e-16
9.10211e-17
6.71988e-17
4.93911e-17
3.61412e-17
2.63282e-17
1.90945e-17
1.37866e-17
9.91003e-18
7.09178e-18
5.05244e-18
3.58353e-18
2.53039e-18
1.77888e-18
1.2452e-18
8.68321e-19
6.04231e-19
4.2179e-19
2.99686e-19
2.24138e-19
1.8707e-19
6.7492e-19
7.57997e-19
9.37624e-19
1.22433e-18
1.63764e-18
2.20849e-18
2.98185e-18
4.01973e-18
5.40504e-18
7.2469e-18
9.68752e-18
1.29112e-17
1.71558e-17
2.27271e-17
3.00168e-17
3.95251e-17
5.18882e-17
6.79126e-17
8.86174e-17
1.15285e-16
1.49525e-16
1.93346e-16
2.49255e-16
3.20357e-16
4.10494e-16
5.24399e-16
6.67879e-16
8.48035e-16
1.07352e-15
1.35483e-15
1.70466e-15
2.13829e-15
2.67407e-15
3.33392e-15
4.14392e-15
5.13501e-15
6.34372e-15
7.81301e-15
9.5932e-15
1.1743e-14
1.43305e-14
1.74346e-14
2.11461e-14
2.5569e-14
3.0822e-14
3.70399e-14
4.43753e-14
5.29997e-14
6.31051e-14
7.49054e-14
8.86376e-14
1.04563e-13
1.22968e-13
1.44164e-13
1.6849e-13
1.96308e-13
2.28008e-13
2.64002e-13
3.04726e-13
3.50633e-13
4.02195e-13
4.59896e-13
5.24226e-13
5.95679e-13
6.74743e-13
7.61895e-13
8.57592e-13
9.6226e-13
1.07629e-12
1.20001e-12
1.33371e-12
1.4776e-12
1.6318e-12
1.79633e-12
1.97114e-12
2.15603e-12
2.3507e-12
2.5547e-12
2.76746e-12
2.98827e-12
3.21625e-12
3.45041e-12
3.68959e-12
3.9325e-12
4.17773e-12
4.42373e-12
4.66886e-12
4.91139e-12
5.14948e-12
5.3813e-12
5.60493e-12
5.81848e-12
6.02007e-12
6.20787e-12
6.38011e-12
6.53516e-12
6.67147e-12
6.78767e-12
6.88256e-12
6.95515e-12
7.00464e-12
7.03048e-12
7.03236e-12
7.0102e-12
6.9642e-12
6.89479e-12
6.80266e-12
6.68874e-12
6.55415e-12
6.40028e-12
6.22865e-12
6.04098e-12
5.83913e-12
5.62506e-12
5.40084e-12
5.1686e-12
4.93049e-12
4.68867e-12
4.44529e-12
4.20246e-12
3.96222e-12
3.72652e-12
3.49722e-12
3.27606e-12
3.06465e-12
2.86445e-12
2.6768e-12
2.50288e-12
2.34372e-12
2.20018e-12
2.073e-12
1.96276e-12
1.86989e-12
1.79468e-12
1.73729e-12
1.69775e-12
1.67595e-12
1.67166e-12
1.68454e-12
1.71412e-12
1.75981e-12
1.8209e-12
1.89659e-12
1.98594e-12
2.08792e-12
2.20137e-12
2.32506e-12