/*--------------------------------*- C++ -*----------------------------------*\
| =========                 |                                                 |
| \\      /  F ield         | OpenFOAM: The Open Source CFD Toolbox           |
|  \\    /   O peration     | Version:  v2012                                 |
|   \\  /    A nd           | Website:  www.openfoam.com                      |
|    \\/     M anipulation  |                                                 |
\*---------------------------------------------------------------------------*/
FoamFile
{
    version     2.0;
    format      ascii;
    class       volVectorField;
    location    "0";
    object      U;
}
// * * * * * * * * * * * * * * * * * * * * * * * * * * * * * * * * * * * * * //

dimensions      [0 1 -1 0 0 0 0];


internalField   nonuniform List<vector> 
4000
(
(1 -8.23826e-16 0)
(1 3.01424e-15 0)
(1 -1.76065e-15 0)
(1 2.45128e-15 0)
(1 8.92213e-16 0)
(1 -1.96494e-16 0)
(1 -1.77431e-15 0)
(1 1.04823e-15 0)
(1 3.00465e-16 0)
(1 -5.77084e-15 0)
(1 1.47798e-16 0)
(1 2.35764e-15 0)
(1 4.22465e-15 0)
(1 1.61649e-15 0)
(1 2.25526e-15 0)
(1 3.41373e-15 0)
(1 -7.96322e-16 0)
(1 -8.61259e-15 0)
(1 -2.28803e-15 0)
(1 -6.05771e-15 0)
(1 3.73194e-16 0)
(1 -1.54679e-14 0)
(1 2.75217e-15 0)
(1 -2.98386e-15 0)
(1 3.44338e-15 0)
(1 2.20688e-16 0)
(1 -2.92878e-15 0)
(1 3.07423e-15 0)
(1 5.3143e-15 0)
(1 9.49015e-15 0)
(1 4.84813e-15 0)
(1 -8.09789e-16 0)
(1 -1.15422e-15 0)
(1 3.48862e-15 0)
(1 -1.66636e-15 0)
(1 4.8213e-15 0)
(1 5.25482e-15 0)
(1 3.26859e-15 0)
(1 -2.52693e-15 0)
(1 -2.5916e-15 0)
(1 -1.26324e-15 0)
(1 2.46423e-16 0)
(1 -1.49356e-15 0)
(1 -7.26356e-16 0)
(1 -3.26038e-15 0)
(1 -2.35258e-15 0)
(1 1.52228e-15 0)
(1 2.45842e-15 0)
(1 -8.04039e-16 0)
(1 2.06673e-15 0)
(1 1.78814e-15 0)
(1 2.75288e-15 0)
(1 4.75594e-15 0)
(1 -1.75592e-15 0)
(1 -1.48301e-15 0)
(1 -4.23205e-15 0)
(1 -2.93069e-16 0)
(1 -1.80501e-15 0)
(1 -1.26881e-15 0)
(1 3.21934e-15 0)
(1 1.36829e-15 0)
(1 1.64484e-15 0)
(1 2.3427e-15 0)
(1 2.46053e-16 0)
(1 -4.61032e-15 0)
(1 -2.6699e-16 0)
(1 -1.74567e-15 0)
(1 3.28928e-15 0)
(1 1.40433e-15 0)
(1 1.75551e-15 0)
(1 -3.86872e-15 0)
(1 6.16345e-16 0)
(1 -4.55237e-15 0)
(1 -2.76664e-15 0)
(1 -4.59419e-15 0)
(1 -9.0709e-16 0)
(1 -1.95842e-15 0)
(1 -1.71453e-15 0)
(1 3.94192e-15 0)
(1 -3.07199e-16 0)
(1 9.55731e-16 0)
(1 1.90397e-15 0)
(1 -1.12694e-15 0)
(1 -3.46901e-15 0)
(1 1.64387e-15 0)
(1 -9.91972e-16 0)
(1 -7.34604e-16 0)
(1 5.90278e-15 0)
(1 3.17362e-16 0)
(1 2.45353e-15 0)
(1 1.58227e-15 0)
(1 1.41193e-15 0)
(1 -3.35378e-15 0)
(1 -4.51786e-15 0)
(1 -2.47797e-15 0)
(1 -3.72979e-16 0)
(1 1.78015e-15 0)
(1 2.12029e-15 0)
(1 -2.58838e-15 0)
(1 -2.61441e-15 0)
(1 3.9847e-15 0)
(1 -3.43327e-15 0)
(1 1.59111e-15 0)
(1 5.69204e-15 0)
(1 3.17558e-15 0)
(1 -3.66363e-15 0)
(1 -2.35157e-15 0)
(1 -2.5463e-15 0)
(1 5.15387e-15 0)
(1 -7.23858e-15 0)
(1 1.70909e-16 0)
(1 5.99804e-15 0)
(1 4.87106e-15 0)
(1 2.86706e-15 0)
(1 5.12149e-15 0)
(1 5.61304e-15 0)
(1 1.59746e-15 0)
(1 -1.29277e-14 0)
(1 -3.66386e-15 0)
(1 -8.56473e-15 0)
(1 2.69193e-15 0)
(1 -1.53432e-14 0)
(1 2.44476e-15 0)
(1 -6.58006e-15 0)
(1 6.28723e-15 0)
(1 -1.58031e-15 0)
(1 -6.04649e-15 0)
(1 1.10519e-15 0)
(1 1.28856e-15 0)
(1 7.09793e-15 0)
(1 4.70807e-15 0)
(1 -3.10716e-15 0)
(1 4.50437e-17 0)
(1 8.21695e-15 0)
(1 1.82393e-15 0)
(1 6.36509e-15 0)
(1 1.73041e-15 0)
(1 4.06619e-15 0)
(1 -4.29343e-15 0)
(1 -5.2959e-15 0)
(1 -3.71192e-15 0)
(1 -2.85159e-15 0)
(1 -2.93611e-15 0)
(1 -2.3623e-15 0)
(1 -4.17625e-15 0)
(1 -1.77515e-15 0)
(1 -1.3756e-15 0)
(1 1.85249e-15 0)
(1 1.60095e-15 0)
(1 3.0682e-15 0)
(1 -1.86971e-15 0)
(1 1.73086e-15 0)
(1 8.01116e-16 0)
(1 3.45147e-15 0)
(1 -8.22973e-17 0)
(1 -3.08047e-15 0)
(1 -3.39007e-15 0)
(1 1.68889e-15 0)
(1 -2.35246e-15 0)
(1 2.51864e-15 0)
(1 -1.31249e-15 0)
(1 1.51368e-15 0)
(1 6.93842e-15 0)
(1 2.7636e-15 0)
(1 -9.32246e-16 0)
(1 -1.90338e-15 0)
(1 -3.21343e-15 0)
(1 -1.04466e-15 0)
(1 1.25288e-15 0)
(1 -7.48337e-17 0)
(1 2.74319e-16 0)
(1 5.12523e-16 0)
(1 1.30799e-15 0)
(1 -6.75124e-17 0)
(1 -2.20498e-15 0)
(1 3.18311e-15 0)
(1 2.96255e-15 0)
(1 -2.47138e-16 0)
(1 7.62513e-15 0)
(1 2.40097e-15 0)
(1 -1.74785e-15 0)
(1 3.344e-15 0)
(1 -4.22317e-15 0)
(1 -1.67571e-15 0)
(1 3.11892e-15 0)
(1 1.5972e-15 0)
(1 -3.23158e-15 0)
(1 9.31106e-16 0)
(1 -4.94374e-15 0)
(1 -5.7562e-16 0)
(1 -2.39043e-16 0)
(1 1.5458e-15 0)
(1 -6.20349e-15 0)
(1 -2.01665e-15 0)
(1 -1.47791e-15 0)
(1 1.419e-15 0)
(1 2.51592e-15 0)
(1 7.2846e-15 0)
(1 -4.56785e-15 0)
(1 -4.86624e-15 0)
(1 5.64306e-15 0)
(1 -9.13836e-15 0)
(1 -2.28901e-15 0)
(1 4.10772e-16 0)
(1 2.54806e-16 0)
(1 -1.19187e-15 0)
(1 3.18722e-16 0)
(1 -5.22256e-16 0)
(1 2.83529e-15 0)
(1 3.59061e-15 0)
(1 2.47693e-15 0)
(1 8.14131e-15 0)
(1 -2.03411e-15 0)
(1 1.16389e-14 0)
(1 3.75066e-15 0)
(1 -4.49352e-15 0)
(1 -1.05369e-15 0)
(1 -8.54322e-16 0)
(1 -5.00277e-15 0)
(1 6.47384e-16 0)
(1 3.32469e-15 0)
(1 5.33257e-15 0)
(1 -7.99306e-15 0)
(1 -6.34309e-15 0)
(1 -1.98198e-15 0)
(1 -1.75946e-16 0)
(1 1.78983e-15 0)
(1 4.26492e-15 0)
(1 5.67327e-15 0)
(1 7.16161e-15 0)
(1 2.51175e-15 0)
(1 2.50969e-17 0)
(1 3.48367e-15 0)
(1 8.72528e-15 0)
(1 8.87963e-15 0)
(1 5.39537e-15 0)
(1 3.05936e-15 0)
(1 8.58154e-16 0)
(1 -7.01295e-15 0)
(1 -4.60884e-15 0)
(1 -2.97495e-15 0)
(1 -7.13745e-15 0)
(1 -1.08907e-14 0)
(1 -8.46104e-15 0)
(1 -6.0441e-15 0)
(1 2.72635e-15 0)
(1 2.93252e-15 0)
(1 1.56252e-15 0)
(1 -3.88398e-17 0)
(1 1.03554e-15 0)
(1 8.64859e-16 0)
(1 4.87301e-15 0)
(1 1.71972e-15 0)
(1 4.55348e-15 0)
(1 1.18533e-15 0)
(1 3.16398e-16 0)
(1 -3.10027e-15 0)
(1 4.83344e-16 0)
(1 -3.74038e-15 0)
(1 -6.65075e-15 0)
(1 1.12908e-16 0)
(1 1.73786e-15 0)
(1 3.45308e-15 0)
(1 1.33987e-15 0)
(1 2.95233e-15 0)
(1 2.61808e-16 0)
(1 -1.39269e-15 0)
(1 3.19838e-17 0)
(1 4.16225e-16 0)
(1 2.48559e-15 0)
(1 4.14854e-15 0)
(1 -1.83004e-15 0)
(1 -1.85668e-15 0)
(1 -2.83408e-15 0)
(1 -3.50503e-15 0)
(1 1.03465e-15 0)
(1 9.93114e-16 0)
(1 -4.13437e-16 0)
(1 1.68012e-15 0)
(1 -8.15729e-16 0)
(1 1.61496e-15 0)
(1 -6.54164e-15 0)
(1 -4.09852e-15 0)
(1 -1.79638e-15 0)
(1 6.48059e-15 0)
(1 3.98171e-15 0)
(1 -1.33779e-15 0)
(1 1.25493e-16 0)
(1 -3.65346e-15 0)
(1 -1.31226e-16 0)
(1 -3.30269e-15 0)
(1 2.05312e-15 0)
(1 -3.63158e-15 0)
(1 -4.19604e-15 0)
(1 -1.59764e-15 0)
(1 7.28279e-16 0)
(1 -9.75481e-16 0)
(1 2.97684e-15 0)
(1 -2.20418e-16 0)
(1 -1.61687e-15 0)
(1 5.25633e-15 0)
(1 -8.45708e-15 0)
(1 -6.17133e-15 0)
(1 -2.06812e-15 0)
(1 6.23785e-15 0)
(1 -3.50815e-16 0)
(1 5.70938e-16 0)
(1 3.31052e-15 0)
(1 1.65785e-16 0)
(1 -8.33164e-16 0)
(1 8.38259e-15 0)
(1 6.06207e-15 0)
(1 4.23452e-15 0)
(1 1.06651e-14 0)
(1 4.02699e-15 0)
(1 -5.75786e-15 0)
(1 -1.82067e-15 0)
(1 -4.97723e-16 0)
(1 -6.58239e-15 0)
(1 -5.21271e-15 0)
(1 3.92092e-15 0)
(1 7.63482e-15 0)
(1 -2.17298e-15 0)
(1 5.84779e-15 0)
(1 1.59891e-15 0)
(1 5.88356e-17 0)
(1 4.35181e-15 0)
(1 4.11123e-15 0)
(1 7.14856e-15 0)
(1 6.60302e-15 0)
(1 3.42708e-15 0)
(1 -9.0834e-16 0)
(1 -2.02784e-15 0)
(1 -3.48478e-17 0)
(1 5.02297e-15 0)
(1 2.41424e-15 0)
(1 6.47583e-15 0)
(1 -1.63886e-15 0)
(1 -2.61337e-16 0)
(1 1.56281e-15 0)
(1 1.86995e-15 0)
(1 -3.38602e-15 0)
(1 -8.64937e-15 0)
(1 -6.06979e-15 0)
(1 -7.39102e-15 0)
(1 -2.3502e-16 0)
(1 9.75867e-15 0)
(1 6.61505e-15 0)
(1 2.14358e-15 0)
(1 2.42566e-15 0)
(1 4.12095e-15 0)
(1 3.8705e-15 0)
(1 2.6487e-17 0)
(1 -4.3858e-15 0)
(1 -5.50274e-15 0)
(1 7.87827e-16 0)
(1 -1.32099e-15 0)
(1 -7.04247e-15 0)
(1 -5.7395e-15 0)
(1 -5.56831e-15 0)
(1 8.34647e-16 0)
(1 4.13815e-15 0)
(1 4.47259e-15 0)
(1 4.63275e-15 0)
(1 1.8861e-15 0)
(1 -1.62185e-15 0)
(1 -2.37086e-15 0)
(1 3.36371e-18 0)
(1 -1.89145e-15 0)
(1 6.98382e-16 0)
(1 -8.27637e-16 0)
(1 -6.73662e-17 0)
(1 -3.33157e-15 0)
(1 -6.64317e-15 0)
(1 -2.19123e-15 0)
(1 -1.03405e-15 0)
(1 5.14491e-16 0)
(1 1.19832e-15 0)
(1 1.0853e-15 0)
(1 2.85872e-15 0)
(1 5.12375e-15 0)
(1 -3.82875e-15 0)
(1 -2.48998e-15 0)
(1 -3.97572e-15 0)
(1 -1.13069e-15 0)
(1 5.19731e-15 0)
(1 5.16468e-15 0)
(1 6.9393e-15 0)
(1 5.60662e-15 0)
(1 3.14773e-15 0)
(1 1.06342e-15 0)
(1 -1.2759e-15 0)
(1 -1.58645e-15 0)
(1 -1.59265e-15 0)
(1 -4.36881e-15 0)
(1 -4.60618e-15 0)
(1 -3.13136e-15 0)
(1 -8.1758e-15 0)
(1 -4.62338e-15 0)
(1 -1.49771e-15 0)
(1 3.65403e-15 0)
(1 -1.5035e-15 0)
(1 -3.68597e-15 0)
(1 1.2578e-15 0)
(1 6.07039e-15 0)
(1 2.95932e-16 0)
(1 -6.67474e-15 0)
(1 -3.21664e-15 0)
(1 -3.86857e-15 0)
(1 -1.87452e-15 0)
(1 4.2005e-15 0)
(1 1.00687e-16 0)
(1 1.10482e-14 0)
(1 4.44856e-16 0)
(1 1.11839e-14 0)
(1 4.41457e-15 0)
(1 2.18463e-15 0)
(1 -8.01165e-15 0)
(1 -6.73808e-15 0)
(1 -1.06871e-14 0)
(1 -7.0154e-15 0)
(1 -6.5722e-15 0)
(1 1.47688e-14 0)
(1 1.09613e-14 0)
(1 1.50765e-14 0)
(1 3.0153e-15 0)
(1 1.87902e-15 0)
(1 7.66591e-15 0)
(1 5.17651e-15 0)
(1 5.16595e-15 0)
(1 5.07545e-15 0)
(1 -2.30872e-15 0)
(1 1.67276e-17 0)
(1 -1.22099e-15 0)
(1 1.00556e-15 0)
(1 2.78199e-16 0)
(1 1.9032e-15 0)
(1 2.09602e-16 0)
(1 -2.47427e-15 0)
(1 -6.78359e-15 0)
(1 -5.89261e-15 0)
(1 -5.76483e-15 0)
(1 -4.451e-15 0)
(1 -4.72311e-15 0)
(1 -5.53712e-15 0)
(1 -4.79029e-15 0)
(1 3.07945e-15 0)
(1 7.31453e-15 0)
(1 8.24499e-15 0)
(1 9.59521e-15 0)
(1 4.86914e-15 0)
(1 -2.50261e-16 0)
(1 -4.45877e-15 0)
(1 -2.44329e-15 0)
(1 -5.7528e-16 0)
(1 2.68873e-15 0)
(1 1.92606e-16 0)
(1 -3.77448e-15 0)
(1 3.0805e-15 0)
(1 4.91696e-15 0)
(1 -3.64963e-15 0)
(1 -2.72619e-15 0)
(1 3.30917e-15 0)
(1 2.43912e-15 0)
(1 4.5367e-15 0)
(1 -3.61732e-15 0)
(1 1.13009e-15 0)
(1 -1.54409e-15 0)
(1 1.59395e-15 0)
(1 3.54329e-16 0)
(1 4.87799e-15 0)
(1 1.07445e-16 0)
(1 1.21974e-15 0)
(1 -5.27467e-15 0)
(1 -1.90621e-15 0)
(1 -1.35869e-15 0)
(1 3.81199e-15 0)
(1 4.25498e-15 0)
(1 -1.0875e-15 0)
(1 8.38178e-15 0)
(1 3.44552e-15 0)
(1 3.42666e-15 0)
(1 -3.86218e-15 0)
(1 4.30025e-15 0)
(1 -4.21595e-16 0)
(1 3.82287e-15 0)
(1 5.1825e-15 0)
(1 -2.89444e-16 0)
(1 5.47132e-15 0)
(1 -2.51489e-15 0)
(1 4.42688e-15 0)
(1 -4.39219e-15 0)
(1 -3.12497e-15 0)
(1 5.12952e-15 0)
(1 -4.40589e-15 0)
(1 -8.85621e-15 0)
(1 -3.3484e-15 0)
(1 -6.50019e-15 0)
(1 -5.54847e-15 0)
(1 3.28156e-16 0)
(1 -3.47499e-15 0)
(1 4.9204e-15 0)
(1 -1.10505e-15 0)
(1 3.5517e-15 0)
(1 1.54042e-15 0)
(1 1.68809e-15 0)
(1 -8.72459e-15 0)
(1 -1.17153e-14 0)
(1 -7.86823e-15 0)
(1 1.44514e-15 0)
(1 2.7349e-15 0)
(1 2.1103e-15 0)
(1 9.27947e-15 0)
(1 4.43648e-15 0)
(1 9.35982e-16 0)
(1 5.82077e-15 0)
(1 7.05601e-15 0)
(1 -1.23184e-15 0)
(1 1.45005e-15 0)
(1 -1.34396e-15 0)
(1 -8.29585e-16 0)
(1 1.04736e-14 0)
(1 1.10706e-14 0)
(1 5.70917e-16 0)
(1 -2.47589e-15 0)
(1 -8.24418e-15 0)
(1 -5.22497e-15 0)
(1 5.84073e-15 0)
(1 4.5731e-15 0)
(1 9.29564e-15 0)
(1 6.28508e-15 0)
(1 8.83232e-15 0)
(1 3.04353e-15 0)
(1 5.20955e-15 0)
(1 3.28429e-15 0)
(1 8.5429e-15 0)
(1 8.62922e-15 0)
(1 2.48674e-15 0)
(1 -1.31684e-14 0)
(1 -1.59108e-14 0)
(1 -4.83647e-15 0)
(1 -4.33132e-15 0)
(1 4.14697e-15 0)
(1 9.78175e-16 0)
(1 3.36228e-15 0)
(1 -1.76907e-15 0)
(1 4.92896e-16 0)
(1 -4.20484e-15 0)
(1 4.81038e-16 0)
(1 8.5966e-16 0)
(1 4.47402e-15 0)
(1 3.21223e-15 0)
(1 -9.53126e-16 0)
(1 -5.0944e-17 0)
(1 2.66301e-15 0)
(1 -2.93825e-16 0)
(1 -6.21873e-16 0)
(1 5.53445e-16 0)
(1 5.65474e-15 0)
(1 4.40204e-15 0)
(1 2.9245e-15 0)
(1 -1.61861e-15 0)
(1 -1.35182e-15 0)
(1 -5.52872e-15 0)
(1 4.86228e-16 0)
(1 5.03274e-15 0)
(1 8.62083e-15 0)
(1 9.13339e-15 0)
(1 1.06628e-14 0)
(1 1.74724e-14 0)
(1 9.73128e-15 0)
(1 1.72148e-15 0)
(1 -4.73303e-15 0)
(1 -2.96444e-15 0)
(1 -7.85468e-15 0)
(1 -8.14203e-15 0)
(1 -7.01697e-15 0)
(1 -1.36502e-15 0)
(1 2.01489e-15 0)
(1 1.44627e-14 0)
(1 9.50528e-15 0)
(1 5.7198e-15 0)
(1 -3.49715e-16 0)
(1 1.28165e-15 0)
(1 -3.00453e-15 0)
(1 -2.24966e-15 0)
(1 9.13831e-16 0)
(1 2.79292e-15 0)
(1 3.78838e-15 0)
(1 -6.68658e-17 0)
(1 -2.73018e-15 0)
(1 3.59843e-16 0)
(1 -2.07378e-15 0)
(1 -3.62202e-15 0)
(1 1.81338e-15 0)
(1 -3.90716e-15 0)
(1 1.66951e-15 0)
(1 2.65994e-15 0)
(1 2.03885e-15 0)
(1 3.55726e-15 0)
(1 -4.51557e-15 0)
(1 1.57524e-16 0)
(1 6.95647e-16 0)
(1 1.38633e-15 0)
(1 5.90554e-15 0)
(1 2.47084e-15 0)
(1 5.62377e-16 0)
(1 -1.54564e-14 0)
(1 -2.2474e-15 0)
(1 -2.86289e-15 0)
(1 -1.98442e-15 0)
(1 2.97823e-15 0)
(1 6.42369e-15 0)
(1 7.84988e-15 0)
(1 5.12124e-16 0)
(1 2.69837e-15 0)
(1 7.83617e-15 0)
(1 6.25764e-15 0)
(1 4.1018e-15 0)
(1 8.24719e-15 0)
(1 1.56355e-15 0)
(1 1.15068e-14 0)
(1 -4.7577e-15 0)
(1 -2.70049e-15 0)
(1 -9.87984e-15 0)
(1 -9.09068e-15 0)
(1 6.01991e-16 0)
(1 6.16341e-15 0)
(1 8.77332e-15 0)
(1 3.76305e-15 0)
(1 6.99241e-15 0)
(1 4.97316e-15 0)
(1 4.18769e-15 0)
(1 -4.60384e-16 0)
(1 -3.30081e-16 0)
(1 -4.14394e-16 0)
(1 6.20358e-15 0)
(1 2.55544e-15 0)
(1 -4.43604e-16 0)
(1 -3.9799e-15 0)
(1 1.20769e-15 0)
(1 1.11497e-15 0)
(1 3.02446e-15 0)
(1 3.57322e-15 0)
(1 5.22454e-15 0)
(1 -9.90491e-16 0)
(1 -6.26978e-15 0)
(1 -7.84634e-15 0)
(1 1.06082e-14 0)
(1 9.36825e-15 0)
(1 7.16452e-15 0)
(1 -1.06364e-15 0)
(1 -5.15714e-15 0)
(1 -5.86642e-16 0)
(1 -2.69334e-15 0)
(1 3.49163e-16 0)
(1 2.57634e-15 0)
(1 6.51321e-18 0)
(1 -2.65536e-15 0)
(1 -1.78486e-15 0)
(1 2.77221e-15 0)
(1 4.35121e-15 0)
(1 3.8879e-15 0)
(1 1.42979e-15 0)
(1 -5.14649e-16 0)
(1 1.44163e-15 0)
(1 5.63527e-15 0)
(1 4.1407e-15 0)
(1 5.04845e-15 0)
(1 6.60937e-15 0)
(1 -8.63677e-16 0)
(1 -2.17244e-15 0)
(1 -2.65129e-15 0)
(1 4.99493e-15 0)
(1 6.63284e-15 0)
(1 -1.41294e-16 0)
(1 -1.37942e-15 0)
(1 1.76661e-15 0)
(1 4.29197e-15 0)
(1 6.0903e-15 0)
(1 6.33647e-15 0)
(1 6.92656e-15 0)
(1 2.11112e-15 0)
(1 7.81475e-16 0)
(1 2.49532e-15 0)
(1 3.0662e-15 0)
(1 5.20992e-15 0)
(1 8.58093e-15 0)
(1 3.88207e-15 0)
(1 3.02981e-15 0)
(1 2.6437e-16 0)
(1 2.40146e-15 0)
(1 4.38808e-16 0)
(1 8.96199e-16 0)
(1 6.54354e-15 0)
(1 3.25061e-15 0)
(1 2.04722e-15 0)
(1 4.40267e-15 0)
(1 4.17654e-15 0)
(1 5.01421e-15 0)
(1 -1.6016e-15 0)
(1 -8.39234e-16 0)
(1 -4.26307e-15 0)
(1 3.48854e-15 0)
(1 4.88123e-15 0)
(1 5.06472e-16 0)
(1 4.55209e-15 0)
(1 -6.94962e-15 0)
(1 -3.33643e-15 0)
(1 -5.00221e-15 0)
(1 -1.28521e-14 0)
(1 -1.00874e-16 0)
(1 2.92653e-15 0)
(1 1.0299e-14 0)
(1 1.26032e-14 0)
(1 6.89438e-15 0)
(1 5.66282e-16 0)
(1 7.01092e-15 0)
(1 1.39457e-15 0)
(1 1.66599e-14 0)
(1 -4.82387e-15 0)
(1 2.56793e-16 0)
(1 -1.47882e-14 0)
(1 -8.94985e-15 0)
(1 -8.04887e-15 0)
(1 6.85156e-15 0)
(1 1.1036e-14 0)
(1 9.28772e-15 0)
(1 6.36638e-15 0)
(1 -5.62167e-15 0)
(1 -4.88156e-15 0)
(1 -1.94483e-15 0)
(1 3.55021e-15 0)
(1 4.71561e-15 0)
(1 3.4241e-15 0)
(1 -4.11884e-15 0)
(1 -6.67778e-16 0)
(1 1.01957e-14 0)
(1 4.27036e-15 0)
(1 -4.68385e-15 0)
(1 -1.12777e-14 0)
(1 7.50433e-16 0)
(1 -4.99366e-15 0)
(1 5.10846e-15 0)
(1 7.48628e-15 0)
(1 2.87903e-15 0)
(1 -2.77758e-15 0)
(1 -2.1248e-15 0)
(1 7.15245e-15 0)
(1 5.86429e-15 0)
(1 6.04947e-15 0)
(1 -2.48907e-15 0)
(1 7.40978e-15 0)
(1 7.21243e-15 0)
(1 4.90326e-15 0)
(1 -2.85615e-15 0)
(1 2.89903e-15 0)
(1 -5.36092e-15 0)
(1 -2.11122e-15 0)
(1 -2.34456e-15 0)
(1 -2.83157e-16 0)
(1 3.28374e-15 0)
(1 5.84442e-15 0)
(1 5.26991e-15 0)
(1 2.8186e-15 0)
(1 2.79586e-15 0)
(1 8.01457e-15 0)
(1 5.73428e-15 0)
(1 6.12503e-15 0)
(1 -1.13089e-15 0)
(1 2.96659e-15 0)
(1 8.8194e-15 0)
(1 5.31992e-15 0)
(1 3.15524e-15 0)
(1 4.60749e-15 0)
(1 1.82194e-15 0)
(1 3.54542e-15 0)
(1 5.10891e-15 0)
(1 -2.06376e-15 0)
(1 -1.71155e-15 0)
(1 2.69444e-15 0)
(1 1.5844e-15 0)
(1 1.89857e-15 0)
(1 -1.63296e-15 0)
(1 6.80294e-15 0)
(1 8.25699e-15 0)
(1 3.57772e-15 0)
(1 9.60807e-16 0)
(1 -5.66107e-16 0)
(1 -1.27743e-15 0)
(1 4.32568e-15 0)
(1 6.67563e-16 0)
(1 4.06556e-15 0)
(1 6.61528e-15 0)
(1 4.87982e-15 0)
(1 3.08007e-15 0)
(1 -4.97312e-16 0)
(1 4.02333e-15 0)
(1 4.52849e-15 0)
(1 1.15622e-14 0)
(1 1.47066e-15 0)
(1 -2.60369e-15 0)
(1 4.28428e-15 0)
(1 -2.94538e-15 0)
(1 1.70309e-16 0)
(1 -3.90027e-15 0)
(1 -3.71354e-15 0)
(1 6.22307e-15 0)
(1 -1.19221e-14 0)
(1 -6.81046e-15 0)
(1 -3.06418e-15 0)
(1 6.77379e-15 0)
(1 7.88552e-15 0)
(1 5.74746e-15 0)
(1 4.40319e-15 0)
(1 1.15937e-14 0)
(1 1.08049e-15 0)
(1 1.0827e-14 0)
(1 -2.61592e-15 0)
(1 2.03089e-15 0)
(1 4.76726e-15 0)
(1 -8.6472e-16 0)
(1 -8.11124e-15 0)
(1 -2.49247e-15 0)
(1 1.43649e-15 0)
(1 1.01118e-14 0)
(1 4.66042e-15 0)
(1 3.97381e-15 0)
(1 -4.04688e-15 0)
(1 -6.20078e-15 0)
(1 -1.66606e-14 0)
(1 -8.33935e-15 0)
(1 -4.28221e-15 0)
(1 3.30977e-15 0)
(1 8.3379e-15 0)
(1 6.40792e-15 0)
(1 -3.22931e-16 0)
(1 3.25381e-15 0)
(1 3.72076e-15 0)
(1 3.28714e-15 0)
(1 -4.62453e-15 0)
(1 4.38802e-15 0)
(1 2.87383e-15 0)
(1 9.97985e-15 0)
(1 4.47234e-15 0)
(1 7.68187e-15 0)
(1 7.87085e-15 0)
(1 3.54313e-15 0)
(1 -9.48365e-15 0)
(1 -4.65384e-15 0)
(1 2.1477e-15 0)
(1 4.05819e-15 0)
(1 1.14203e-14 0)
(1 6.02928e-15 0)
(1 2.70613e-15 0)
(1 -2.41095e-15 0)
(1 -4.95446e-15 0)
(1 4.01307e-15 0)
(1 -4.84441e-15 0)
(1 4.94671e-15 0)
(1 -2.66239e-15 0)
(1 5.71366e-15 0)
(1 -1.49987e-15 0)
(1 -6.97818e-15 0)
(1 -1.37984e-15 0)
(1 1.28486e-14 0)
(1 1.62276e-14 0)
(1 1.56887e-14 0)
(1 1.67418e-14 0)
(1 1.33504e-14 0)
(1 8.7393e-15 0)
(1 1.32067e-14 0)
(1 7.09023e-15 0)
(1 2.14953e-15 0)
(1 -7.261e-15 0)
(1 -4.13108e-15 0)
(1 -4.67271e-16 0)
(1 1.71844e-15 0)
(1 -1.71943e-15 0)
(1 8.354e-15 0)
(1 8.09287e-15 0)
(1 5.00959e-15 0)
(1 6.11672e-15 0)
(1 2.53948e-15 0)
(1 -2.92204e-15 0)
(1 -3.29469e-15 0)
(1 -5.06276e-15 0)
(1 2.60234e-16 0)
(1 4.41782e-15 0)
(1 3.1743e-15 0)
(1 4.37686e-15 0)
(1 5.75787e-15 0)
(1 8.94774e-15 0)
(1 8.09854e-15 0)
(1 1.0763e-14 0)
(1 6.19654e-15 0)
(1 1.13456e-14 0)
(1 1.19217e-14 0)
(1 1.51187e-14 0)
(1 2.07537e-14 0)
(1 8.21576e-16 0)
(1 2.76977e-15 0)
(1 7.44962e-15 0)
(1 -4.55694e-16 0)
(1 -3.81537e-15 0)
(1 2.54527e-15 0)
(1 2.85242e-16 0)
(1 1.96412e-15 0)
(1 -5.96525e-15 0)
(1 -8.34605e-15 0)
(1 3.1832e-15 0)
(1 1.71098e-15 0)
(1 6.87602e-15 0)
(1 4.73293e-15 0)
(1 5.88965e-15 0)
(1 3.77729e-15 0)
(1 1.03283e-15 0)
(1 4.28006e-15 0)
(1 1.68297e-16 0)
(1 -1.24779e-14 0)
(1 5.83898e-16 0)
(1 -1.0827e-14 0)
(1 5.17646e-16 0)
(1 2.69144e-15 0)
(1 4.03541e-15 0)
(1 1.13229e-14 0)
(1 6.68934e-15 0)
(1 3.38793e-16 0)
(1 3.22762e-15 0)
(1 -3.79405e-16 0)
(1 -9.54103e-15 0)
(1 -9.68961e-15 0)
(1 -5.09864e-15 0)
(1 -4.0141e-15 0)
(1 -3.7254e-15 0)
(1 3.47054e-15 0)
(1 2.15903e-15 0)
(1 6.32811e-16 0)
(1 4.73556e-15 0)
(1 9.2309e-15 0)
(1 5.60181e-15 0)
(1 2.54439e-15 0)
(1 7.20803e-15 0)
(1 1.99621e-15 0)
(1 -6.17985e-15 0)
(1 4.12005e-15 0)
(1 -1.13608e-15 0)
(1 2.34616e-15 0)
(1 -4.96055e-15 0)
(1 6.85641e-15 0)
(1 5.97739e-15 0)
(1 9.19902e-15 0)
(1 6.54768e-15 0)
(1 4.63428e-15 0)
(1 2.02613e-15 0)
(1 6.90389e-15 0)
(1 7.29964e-16 0)
(1 9.21821e-15 0)
(1 -2.80218e-15 0)
(1 2.17213e-15 0)
(1 3.62001e-15 0)
(1 4.30182e-15 0)
(1 7.81348e-15 0)
(1 4.72004e-15 0)
(1 5.08616e-15 0)
(1 8.65482e-15 0)
(1 1.02487e-14 0)
(1 1.00211e-14 0)
(1 1.32807e-14 0)
(1 7.83486e-15 0)
(1 2.79496e-15 0)
(1 2.6006e-15 0)
(1 2.09877e-15 0)
(1 5.97455e-15 0)
(1 6.87221e-16 0)
(1 4.47061e-15 0)
(1 4.26869e-15 0)
(1 5.71652e-15 0)
(1 6.94197e-15 0)
(1 5.19677e-15 0)
(1 1.82549e-15 0)
(1 5.95085e-16 0)
(1 2.89795e-15 0)
(1 -8.64636e-16 0)
(1 1.11399e-15 0)
(1 6.67973e-16 0)
(1 5.26607e-15 0)
(1 8.2646e-16 0)
(1 7.97522e-15 0)
(1 3.93563e-15 0)
(1 4.21243e-15 0)
(1 3.45246e-15 0)
(1 6.6173e-15 0)
(1 8.67312e-15 0)
(1 1.14452e-14 0)
(1 5.55902e-15 0)
(1 1.3043e-14 0)
(1 8.73652e-15 0)
(1 2.41786e-14 0)
(1 2.21661e-14 0)
(1 1.55092e-16 0)
(1 -5.88189e-16 0)
(1 1.55057e-15 0)
(1 4.47649e-15 0)
(1 -3.75972e-15 0)
(1 1.75897e-15 0)
(1 -2.60724e-16 0)
(1 -8.87634e-15 0)
(1 3.06766e-15 0)
(1 -9.63524e-15 0)
(1 8.86716e-16 0)
(1 -1.18996e-14 0)
(1 3.94865e-15 0)
(1 8.02263e-15 0)
(1 8.88348e-15 0)
(1 7.7912e-15 0)
(1 3.26746e-15 0)
(1 -1.11771e-15 0)
(1 6.22516e-15 0)
(1 -5.20847e-15 0)
(1 -2.75108e-15 0)
(1 -8.25627e-15 0)
(1 -5.19981e-15 0)
(1 -5.86615e-15 0)
(1 -5.67902e-15 0)
(1 1.57552e-15 0)
(1 7.5841e-15 0)
(1 8.53903e-15 0)
(1 8.06558e-15 0)
(1 -5.80436e-16 0)
(1 -7.15431e-15 0)
(1 -6.24801e-15 0)
(1 -5.24506e-15 0)
(1 -4.46292e-15 0)
(1 -4.28566e-16 0)
(1 5.66064e-15 0)
(1 6.88146e-15 0)
(1 3.22288e-15 0)
(1 5.56957e-15 0)
(1 5.95824e-16 0)
(1 1.13517e-14 0)
(1 1.45209e-17 0)
(1 1.18923e-14 0)
(1 -2.31661e-15 0)
(1 -1.95147e-15 0)
(1 -3.29018e-15 0)
(1 9.03996e-16 0)
(1 2.92635e-15 0)
(1 7.69528e-16 0)
(1 1.00909e-15 0)
(1 6.02079e-15 0)
(1 7.04474e-15 0)
(1 6.0461e-15 0)
(1 4.18051e-15 0)
(1 7.23982e-15 0)
(1 1.73662e-15 0)
(1 3.53848e-15 0)
(1 -3.34188e-15 0)
(1 8.08853e-15 0)
(1 -3.52159e-15 0)
(1 9.93317e-15 0)
(1 -5.33284e-15 0)
(1 8.05642e-15 0)
(1 6.77828e-15 0)
(1 1.1712e-14 0)
(1 2.99018e-15 0)
(1 8.32671e-15 0)
(1 7.05e-15 0)
(1 8.52452e-15 0)
(1 7.47008e-15 0)
(1 6.21913e-15 0)
(1 2.77388e-15 0)
(1 6.00039e-15 0)
(1 -2.13451e-15 0)
(1 -2.76347e-15 0)
(1 4.70264e-15 0)
(1 1.16238e-14 0)
(1 1.26094e-14 0)
(1 1.20358e-14 0)
(1 4.00529e-15 0)
(1 1.50018e-15 0)
(1 3.70005e-15 0)
(1 2.85195e-15 0)
(1 -4.19952e-15 0)
(1 -5.1301e-16 0)
(1 -1.1089e-15 0)
(1 6.03891e-15 0)
(1 2.49942e-15 0)
(1 6.46889e-15 0)
(1 7.02739e-15 0)
(1 5.19404e-15 0)
(1 2.81419e-15 0)
(1 3.11072e-15 0)
(1 1.1502e-15 0)
(1 5.75105e-15 0)
(1 8.52316e-15 0)
(1 1.18293e-14 0)
(1 1.12031e-14 0)
(1 1.39397e-14 0)
(1 1.17194e-14 0)
(1 3.45712e-15 0)
(1 -4.28997e-15 0)
(1 3.06452e-15 0)
(1 -1.19066e-15 0)
(1 1.43986e-15 0)
(1 -7.48775e-16 0)
(1 -4.02762e-15 0)
(1 -8.38432e-15 0)
(1 -3.72154e-15 0)
(1 4.32234e-15 0)
(1 6.40928e-15 0)
(1 7.07089e-15 0)
(1 1.8531e-15 0)
(1 -1.36763e-15 0)
(1 -6.43648e-17 0)
(1 4.87641e-15 0)
(1 8.81265e-15 0)
(1 -1.55012e-15 0)
(1 -2.61199e-15 0)
(1 -7.80018e-15 0)
(1 -1.15532e-14 0)
(1 -8.75318e-15 0)
(1 -6.71077e-16 0)
(1 7.48347e-15 0)
(1 1.10674e-14 0)
(1 4.63268e-15 0)
(1 6.36702e-15 0)
(1 4.27555e-15 0)
(1 5.45632e-15 0)
(1 3.23288e-15 0)
(1 -1.5104e-15 0)
(1 -7.77531e-15 0)
(1 -6.27518e-15 0)
(1 -7.08445e-15 0)
(1 1.42892e-15 0)
(1 -7.29653e-17 0)
(1 -5.47931e-16 0)
(1 -6.31345e-15 0)
(1 5.32651e-15 0)
(1 1.46502e-15 0)
(1 9.65801e-15 0)
(1 -1.54381e-15 0)
(1 -9.07696e-16 0)
(1 -7.55163e-15 0)
(1 4.71321e-15 0)
(1 2.52431e-15 0)
(1 1.31318e-14 0)
(1 1.01486e-14 0)
(1 7.95892e-15 0)
(1 1.63007e-15 0)
(1 2.42329e-15 0)
(1 4.59887e-15 0)
(1 4.69147e-16 0)
(1 5.83963e-15 0)
(1 8.35212e-15 0)
(1 3.46387e-15 0)
(1 6.42451e-16 0)
(1 1.01764e-15 0)
(1 5.30813e-15 0)
(1 2.8088e-15 0)
(1 1.62195e-15 0)
(1 3.11924e-15 0)
(1 5.98522e-15 0)
(1 5.46493e-15 0)
(1 6.61735e-15 0)
(1 2.01704e-15 0)
(1 3.06815e-15 0)
(1 8.06999e-15 0)
(1 -9.64914e-17 0)
(1 5.85394e-15 0)
(1 4.06222e-15 0)
(1 1.35396e-15 0)
(1 1.07075e-14 0)
(1 3.43429e-15 0)
(1 3.45922e-15 0)
(1 2.93925e-15 0)
(1 7.19952e-15 0)
(1 1.79657e-15 0)
(1 6.86012e-15 0)
(1 8.99084e-15 0)
(1 8.03533e-15 0)
(1 1.18062e-14 0)
(1 7.44645e-15 0)
(1 4.4311e-15 0)
(1 1.10095e-15 0)
(1 -8.10712e-15 0)
(1 -1.14604e-15 0)
(1 3.93777e-15 0)
(1 3.55725e-15 0)
(1 8.9874e-15 0)
(1 4.34962e-15 0)
(1 8.14256e-15 0)
(1 3.14696e-15 0)
(1 7.55295e-15 0)
(1 4.38787e-15 0)
(1 1.08031e-14 0)
(1 8.99224e-15 0)
(1 1.66977e-14 0)
(1 4.16045e-15 0)
(1 3.69937e-15 0)
(1 4.03523e-15 0)
(1 4.1114e-15 0)
(1 -4.52318e-15 0)
(1 -2.31265e-15 0)
(1 -4.96896e-16 0)
(1 1.62354e-15 0)
(1 2.06032e-15 0)
(1 3.38835e-15 0)
(1 -3.51962e-15 0)
(1 1.30928e-14 0)
(1 4.61858e-15 0)
(1 1.16535e-14 0)
(1 1.4417e-15 0)
(1 -4.59542e-15 0)
(1 -8.43373e-15 0)
(1 -5.94146e-15 0)
(1 1.55779e-15 0)
(1 4.40005e-15 0)
(1 5.12899e-15 0)
(1 -2.86387e-15 0)
(1 -6.69671e-15 0)
(1 -4.83779e-15 0)
(1 -7.30489e-15 0)
(1 -8.04351e-15 0)
(1 -4.66594e-15 0)
(1 1.71129e-15 0)
(1 9.41436e-15 0)
(1 -1.83017e-15 0)
(1 -2.99706e-15 0)
(1 -5.25791e-15 0)
(1 3.32138e-16 0)
(1 -5.25485e-15 0)
(1 -6.0258e-15 0)
(1 4.69573e-15 0)
(1 1.75214e-15 0)
(1 5.00934e-15 0)
(1 3.60461e-15 0)
(1 6.47895e-15 0)
(1 5.93937e-15 0)
(1 2.29311e-15 0)
(1 -9.30776e-15 0)
(1 -5.16764e-15 0)
(1 -9.63098e-15 0)
(1 -2.50423e-15 0)
(1 6.30799e-15 0)
(1 7.24956e-15 0)
(1 5.27869e-15 0)
(1 6.71868e-15 0)
(1 1.38505e-14 0)
(1 6.84058e-15 0)
(1 -1.76891e-15 0)
(1 4.69393e-16 0)
(1 6.16225e-16 0)
(1 3.86293e-15 0)
(1 3.63526e-15 0)
(1 4.5395e-15 0)
(1 1.76089e-15 0)
(1 3.88676e-15 0)
(1 -2.56569e-15 0)
(1 -1.72072e-15 0)
(1 -4.15884e-15 0)
(1 8.0284e-15 0)
(1 1.35659e-14 0)
(1 1.79787e-14 0)
(1 1.17977e-14 0)
(1 6.17992e-15 0)
(1 -8.78746e-16 0)
(1 1.01356e-15 0)
(1 -2.777e-15 0)
(1 -6.18502e-16 0)
(1 2.73357e-15 0)
(1 6.45091e-15 0)
(1 5.54439e-15 0)
(1 8.90426e-15 0)
(1 1.08701e-14 0)
(1 5.10657e-15 0)
(1 -7.0806e-15 0)
(1 -1.48786e-15 0)
(1 5.9731e-15 0)
(1 6.25724e-15 0)
(1 4.81094e-15 0)
(1 7.28708e-15 0)
(1 5.14178e-15 0)
(1 3.62339e-15 0)
(1 2.58481e-15 0)
(1 6.30917e-15 0)
(1 2.22126e-15 0)
(1 2.6055e-15 0)
(1 1.65489e-15 0)
(1 4.40408e-15 0)
(1 2.20905e-15 0)
(1 3.32279e-15 0)
(1 -6.27731e-16 0)
(1 4.59003e-15 0)
(1 4.30834e-16 0)
(1 6.73722e-15 0)
(1 1.04381e-14 0)
(1 1.09836e-14 0)
(1 6.84061e-15 0)
(1 7.40845e-15 0)
(1 -3.30484e-15 0)
(1 8.52491e-15 0)
(1 -1.68205e-15 0)
(1 -2.97561e-15 0)
(1 -2.0701e-15 0)
(1 -7.65465e-16 0)
(1 3.09442e-16 0)
(1 8.26617e-15 0)
(1 1.26941e-14 0)
(1 1.21363e-14 0)
(1 -1.50607e-15 0)
(1 -1.90685e-15 0)
(1 -1.48324e-17 0)
(1 3.15502e-16 0)
(1 -2.53162e-15 0)
(1 -5.36634e-15 0)
(1 -2.14229e-15 0)
(1 9.49969e-16 0)
(1 2.94808e-15 0)
(1 -4.59687e-15 0)
(1 -7.22151e-15 0)
(1 -6.93001e-15 0)
(1 -5.41981e-15 0)
(1 -5.96081e-15 0)
(1 -7.79348e-16 0)
(1 3.45872e-16 0)
(1 -2.63975e-15 0)
(1 4.44373e-16 0)
(1 -2.64168e-15 0)
(1 -6.03026e-15 0)
(1 -3.98576e-15 0)
(1 -4.59179e-15 0)
(1 -4.04686e-15 0)
(1 -2.00142e-16 0)
(1 9.55769e-15 0)
(1 1.31679e-14 0)
(1 9.35626e-15 0)
(1 9.23415e-15 0)
(1 -1.59123e-15 0)
(1 4.5586e-15 0)
(1 -6.82879e-15 0)
(1 -4.61625e-15 0)
(1 -6.26134e-15 0)
(1 5.71027e-15 0)
(1 8.90114e-15 0)
(1 2.11885e-15 0)
(1 1.69464e-15 0)
(1 1.70088e-15 0)
(1 8.54392e-15 0)
(1 6.664e-15 0)
(1 3.99818e-16 0)
(1 -6.3779e-15 0)
(1 -1.1267e-15 0)
(1 -6.13193e-15 0)
(1 5.23133e-15 0)
(1 7.02918e-15 0)
(1 8.37153e-15 0)
(1 4.28785e-15 0)
(1 8.06834e-15 0)
(1 4.95733e-15 0)
(1 2.21104e-15 0)
(1 -2.5265e-16 0)
(1 3.99995e-15 0)
(1 6.16336e-15 0)
(1 1.2079e-14 0)
(1 1.18271e-14 0)
(1 4.69056e-15 0)
(1 3.62912e-15 0)
(1 2.23687e-15 0)
(1 3.93107e-15 0)
(1 5.46581e-15 0)
(1 1.01624e-14 0)
(1 3.67285e-15 0)
(1 8.12847e-15 0)
(1 6.19574e-15 0)
(1 7.24961e-15 0)
(1 1.05438e-15 0)
(1 1.21989e-14 0)
(1 1.39822e-14 0)
(1 5.85207e-15 0)
(1 3.76637e-15 0)
(1 -5.31571e-17 0)
(1 1.71837e-15 0)
(1 9.83311e-17 0)
(1 3.14216e-15 0)
(1 9.76697e-15 0)
(1 2.54016e-15 0)
(1 2.74276e-15 0)
(1 6.23806e-15 0)
(1 7.56867e-15 0)
(1 1.26637e-16 0)
(1 1.85976e-15 0)
(1 -1.37001e-15 0)
(1 -1.70963e-16 0)
(1 5.02547e-16 0)
(1 5.34645e-15 0)
(1 1.7042e-14 0)
(1 1.10096e-14 0)
(1 1.46175e-14 0)
(1 1.30986e-14 0)
(1 1.669e-16 0)
(1 4.85426e-15 0)
(1 3.28155e-15 0)
(1 -1.96578e-15 0)
(1 2.63308e-16 0)
(1 3.40225e-15 0)
(1 -5.20558e-15 0)
(1 -7.49125e-15 0)
(1 3.66339e-15 0)
(1 6.976e-15 0)
(1 3.93004e-15 0)
(1 5.06887e-15 0)
(1 -6.47799e-15 0)
(1 3.76039e-16 0)
(1 2.78984e-15 0)
(1 -8.38861e-15 0)
(1 -4.61746e-15 0)
(1 -8.09141e-15 0)
(1 -4.93204e-15 0)
(1 -3.20364e-15 0)
(1 -1.15713e-14 0)
(1 2.5767e-15 0)
(1 9.95396e-15 0)
(1 1.67451e-14 0)
(1 1.3784e-14 0)
(1 7.74353e-15 0)
(1 -8.96791e-15 0)
(1 -1.01177e-14 0)
(1 -8.39235e-15 0)
(1 -2.17177e-15 0)
(1 -4.36386e-15 0)
(1 -1.05319e-15 0)
(1 3.13553e-16 0)
(1 -8.67072e-15 0)
(1 3.09673e-15 0)
(1 -1.21854e-15 0)
(1 7.15532e-15 0)
(1 5.84268e-15 0)
(1 -1.20193e-15 0)
(1 4.44469e-15 0)
(1 3.45804e-16 0)
(1 7.64408e-15 0)
(1 -1.30372e-15 0)
(1 2.13218e-15 0)
(1 1.0758e-15 0)
(1 -1.38852e-16 0)
(1 2.36327e-15 0)
(1 4.2217e-16 0)
(1 -9.70948e-17 0)
(1 8.8987e-15 0)
(1 6.81222e-15 0)
(1 3.79841e-15 0)
(1 -4.91273e-15 0)
(1 3.58952e-16 0)
(1 8.11714e-15 0)
(1 4.31597e-15 0)
(1 4.86512e-15 0)
(1 1.74354e-15 0)
(1 3.71955e-15 0)
(1 3.41409e-15 0)
(1 6.22614e-15 0)
(1 4.87279e-15 0)
(1 6.21849e-15 0)
(1 7.43776e-15 0)
(1 9.76269e-15 0)
(1 6.65102e-15 0)
(1 1.18283e-14 0)
(1 9.61712e-15 0)
(1 1.04012e-14 0)
(1 9.2345e-15 0)
(1 8.01908e-15 0)
(1 8.32235e-15 0)
(1 3.22097e-15 0)
(1 2.08428e-15 0)
(1 5.54563e-15 0)
(1 6.93649e-15 0)
(1 8.37494e-15 0)
(1 7.33051e-15 0)
(1 8.5018e-15 0)
(1 1.10388e-14 0)
(1 4.29111e-15 0)
(1 -4.53697e-16 0)
(1 3.90134e-15 0)
(1 3.13244e-15 0)
(1 5.15666e-15 0)
(1 -4.10899e-16 0)
(1 -1.02715e-15 0)
(1 -1.59588e-15 0)
(1 1.30746e-15 0)
(1 6.09668e-16 0)
(1 1.40089e-15 0)
(1 -3.61616e-16 0)
(1 6.92689e-15 0)
(1 3.87792e-15 0)
(1 8.62424e-15 0)
(1 5.23277e-15 0)
(1 9.53906e-15 0)
(1 1.21769e-14 0)
(1 1.63086e-14 0)
(1 1.41649e-14 0)
(1 -7.47438e-16 0)
(1 4.89633e-16 0)
(1 -6.94352e-15 0)
(1 6.36042e-15 0)
(1 4.81395e-16 0)
(1 6.34024e-15 0)
(1 9.32301e-15 0)
(1 1.067e-14 0)
(1 4.41321e-15 0)
(1 -7.37193e-16 0)
(1 -1.10387e-15 0)
(1 -1.05257e-14 0)
(1 -4.05373e-15 0)
(1 -2.50589e-15 0)
(1 2.40418e-15 0)
(1 -3.32258e-16 0)
(1 -3.45645e-15 0)
(1 -3.96782e-15 0)
(1 -8.35789e-15 0)
(1 -7.14688e-15 0)
(1 -4.82551e-15 0)
(1 -3.34665e-15 0)
(1 1.70255e-15 0)
(1 -3.34457e-15 0)
(1 2.11611e-15 0)
(1 -9.777e-16 0)
(1 -2.77283e-15 0)
(1 -1.34446e-14 0)
(1 -1.25491e-14 0)
(1 -3.30349e-15 0)
(1 -4.75797e-15 0)
(1 4.53293e-15 0)
(1 9.53478e-16 0)
(1 1.0185e-14 0)
(1 4.53e-15 0)
(1 5.62189e-15 0)
(1 8.05442e-15 0)
(1 1.41475e-15 0)
(1 7.91609e-16 0)
(1 -2.42514e-15 0)
(1 2.44537e-15 0)
(1 5.08729e-15 0)
(1 7.50797e-15 0)
(1 1.94997e-15 0)
(1 -5.96311e-15 0)
(1 -4.28784e-15 0)
(1 -1.01217e-16 0)
(1 -2.99712e-16 0)
(1 1.73935e-15 0)
(1 -1.78587e-15 0)
(1 8.78924e-15 0)
(1 5.95556e-15 0)
(1 1.46271e-15 0)
(1 3.25483e-16 0)
(1 1.10567e-15 0)
(1 4.84764e-16 0)
(1 8.2778e-15 0)
(1 4.24318e-15 0)
(1 1.64454e-15 0)
(1 -5.72116e-15 0)
(1 1.09308e-15 0)
(1 2.17577e-15 0)
(1 7.1367e-16 0)
(1 1.14848e-14 0)
(1 2.12206e-15 0)
(1 -5.77231e-15 0)
(1 7.05599e-15 0)
(1 4.07031e-15 0)
(1 1.52897e-14 0)
(1 5.96188e-15 0)
(1 8.48711e-15 0)
(1 6.763e-15 0)
(1 8.21893e-15 0)
(1 1.86338e-15 0)
(1 8.06875e-15 0)
(1 1.20091e-15 0)
(1 7.01908e-15 0)
(1 9.37743e-15 0)
(1 5.43498e-15 0)
(1 1.24748e-14 0)
(1 -1.47274e-15 0)
(1 6.13219e-15 0)
(1 2.58026e-15 0)
(1 3.87543e-15 0)
(1 -1.02815e-15 0)
(1 -3.73856e-15 0)
(1 -1.21284e-15 0)
(1 -2.38233e-15 0)
(1 -1.84108e-15 0)
(1 7.28888e-16 0)
(1 7.09201e-15 0)
(1 1.42498e-15 0)
(1 6.87338e-15 0)
(1 3.99122e-15 0)
(1 4.6384e-15 0)