/*--------------------------------*- C++ -*----------------------------------*\
| =========                 |                                                 |
| \\      /  F ield         | OpenFOAM: The Open Source CFD Toolbox           |
|  \\    /   O peration     | Version:  v2012                                 |
|   \\  /    A nd           | Website:  www.openfoam.com                      |
|    \\/     M anipulation  |                                                 |
\*---------------------------------------------------------------------------*/
FoamFile
{
    version     2.0;
    format      ascii;
    class       volVectorField;
    location    "70";
    object      Usup;
}
// * * * * * * * * * * * * * * * * * * * * * * * * * * * * * * * * * * * * * //

dimensions      [0 1 -1 0 0 0 0];


internalField   nonuniform List<vector> 
4000
(
(-0.000455081 -0.00165582 0)
(0.000787344 -0.00210139 0)
(0.00342968 -0.00399534 0)
(0.00761707 -0.00295683 0)
(0.0119746 -0.00642443 0)
(0.0132218 -0.00603771 0)
(0.0124804 -0.00982812 0)
(0.00766746 -0.0117129 0)
(0.00609684 -0.00834753 0)
(0.0108601 -0.00751161 0)
(0.0131599 -0.0102563 0)
(0.0115666 -0.0120601 0)
(0.0119436 -0.011888 0)
(0.0155467 -0.0115459 0)
(0.0186492 -0.0152155 0)
(0.0175781 -0.0184866 0)
(0.0119318 -0.016731 0)
(0.00975808 -0.012067 0)
(0.00771858 -0.0131067 0)
(0.00294812 -0.0144751 0)
(0.000421279 -0.013963 0)
(-0.00117918 -0.0116665 0)
(-0.00635224 -0.0103687 0)
(-0.0104394 -0.00896716 0)
(-0.0120672 -0.0071208 0)
(-0.015447 -0.00645894 0)
(-0.0172216 -0.00482 0)
(-0.0193816 -0.00504105 0)
(-0.0192487 -0.00380839 0)
(-0.0186936 -0.00543747 0)
(-0.0209213 -0.00458232 0)
(-0.0219086 -0.00318864 0)
(-0.0218323 -0.00121814 0)
(-0.016085 0.000489134 0)
(-0.0101124 0.000764819 0)
(-0.00804072 0.00412265 0)
(-0.00909926 0.00508842 0)
(-0.00870985 0.00667457 0)
(-0.00409172 0.00751199 0)
(-0.00380166 0.00913782 0)
(-0.00253001 0.0119088 0)
(0.000429905 0.0127355 0)
(0.00170168 0.0129022 0)
(0.00228589 0.013526 0)
(0.00142477 0.015268 0)
(0.00477182 0.0177053 0)
(0.00837698 0.0149965 0)
(0.00814752 0.0117683 0)
(0.00850421 0.0113178 0)
(0.00491508 0.0112863 0)
(0.00139942 0.0136015 0)
(0.00317009 0.0140316 0)
(0.00355042 0.0135069 0)
(0.00344698 0.0129176 0)
(0.00485108 0.0116111 0)
(0.00593217 0.0113952 0)
(0.00960226 0.0118151 0)
(0.0107827 0.0106516 0)
(0.00810651 0.00786296 0)
(0.00519556 0.00574844 0)
(0.00327589 0.00418533 0)
(0.0061897 0.0022588 0)
(0.00755463 0.000603591 0)
(0.00684583 -0.000615389 0)
(0.00825517 -0.000226576 0)
(0.00585561 -0.00258403 0)
(0.00237504 -0.00165253 0)
(0.00404517 -0.00253885 0)
(0.00624606 -0.00512588 0)
(0.00507728 -0.00660476 0)
(0.00143599 -0.00747536 0)
(0.000439068 -0.0063817 0)
(0.00138308 -0.00725367 0)
(-0.00103686 -0.0111172 0)
(-0.000783646 -0.0118695 0)
(0.00358411 -0.010097 0)
(0.00712882 -0.0107173 0)
(0.00941473 -0.0122897 0)
(0.0101486 -0.0147199 0)
(0.00755384 -0.0142111 0)
(0.00482165 -0.0142184 0)
(0.00603353 -0.0148847 0)
(0.00803418 -0.0128847 0)
(0.007108 -0.0144276 0)
(0.00355318 -0.0159625 0)
(0.000373723 -0.0153034 0)
(-0.00381712 -0.0142585 0)
(-0.0060931 -0.0125594 0)
(-0.00697324 -0.0121296 0)
(-0.00570764 -0.012248 0)
(-0.00544085 -0.0113116 0)
(-0.0064402 -0.010622 0)
(-0.00450888 -0.00942995 0)
(-0.00495531 -0.00792637 0)
(-0.00709628 -0.00900118 0)
(-0.0105435 -0.00729987 0)
(-0.0108992 -0.00477565 0)
(-0.0094582 -0.00392679 0)
(-0.00635753 -0.000758887 0)
(-0.00168858 -0.000190676 0)
(0.00105486 -0.00452 0)
(0.00435568 -0.00808157 0)
(0.0116714 -0.0101099 0)
(0.020079 -0.0107176 0)
(0.0291561 -0.0153607 0)
(0.0322613 -0.019005 0)
(0.028982 -0.0280813 0)
(0.0254828 -0.0336078 0)
(0.0248271 -0.0291079 0)
(0.0290973 -0.0260289 0)
(0.0321879 -0.0304459 0)
(0.0326277 -0.0339084 0)
(0.0357951 -0.0339942 0)
(0.0401692 -0.0381341 0)
(0.0432429 -0.0457331 0)
(0.0443546 -0.050515 0)
(0.038486 -0.0481431 0)
(0.02963 -0.0395813 0)
(0.018444 -0.040504 0)
(0.00830883 -0.0415053 0)
(0.00327941 -0.0407134 0)
(-0.00251896 -0.0369267 0)
(-0.0154997 -0.0344883 0)
(-0.0255999 -0.0266322 0)
(-0.0322509 -0.0216199 0)
(-0.0407306 -0.0198167 0)
(-0.0467689 -0.0173762 0)
(-0.0522454 -0.0152091 0)
(-0.0540971 -0.0116081 0)
(-0.0542181 -0.012889 0)
(-0.0561369 -0.0109599 0)
(-0.0569389 -0.00744733 0)
(-0.0548882 -0.00496664 0)
(-0.0436296 0.000216718 0)
(-0.0290808 0.00337884 0)
(-0.0225272 0.0107236 0)
(-0.0237941 0.015074 0)
(-0.0213956 0.0201317 0)
(-0.0118596 0.022329 0)
(-0.00774151 0.0269227 0)
(-0.00426318 0.0354192 0)
(0.000592226 0.0387564 0)
(0.00425643 0.0401734 0)
(0.00758342 0.0437862 0)
(0.00899858 0.0464485 0)
(0.0129669 0.0493341 0)
(0.0163776 0.0442814 0)
(0.018604 0.0397917 0)
(0.0209845 0.0356066 0)
(0.0158989 0.0329498 0)
(0.00940587 0.0397885 0)
(0.00975286 0.0423953 0)
(0.00998775 0.040831 0)
(0.00990086 0.0394881 0)
(0.0134181 0.0378912 0)
(0.0179758 0.0364636 0)
(0.0245655 0.0332985 0)
(0.0245748 0.027679 0)
(0.0187448 0.0221355 0)
(0.0135676 0.0172604 0)
(0.0100499 0.0131828 0)
(0.0149534 0.0090137 0)
(0.0182751 0.000815134 0)
(0.018927 -0.00102203 0)
(0.0198687 -0.00197515 0)
(0.0153676 -0.00651815 0)
(0.00987452 -0.0058675 0)
(0.0096713 -0.00833535 0)
(0.0127569 -0.0141158 0)
(0.0113468 -0.0184856 0)
(0.00603929 -0.0218235 0)
(0.00334628 -0.0220888 0)
(0.000550967 -0.0250025 0)
(-0.00330068 -0.0308888 0)
(0.00218231 -0.0326055 0)
(0.0114217 -0.0323443 0)
(0.0171797 -0.033983 0)
(0.0212695 -0.0387128 0)
(0.024348 -0.0431021 0)
(0.021204 -0.0433743 0)
(0.0150485 -0.0437752 0)
(0.0181041 -0.0423577 0)
(0.0203795 -0.0397993 0)
(0.0150141 -0.0416663 0)
(0.00844792 -0.0451116 0)
(0.00201142 -0.0449435 0)
(-0.00702014 -0.0424752 0)
(-0.0135126 -0.0395445 0)
(-0.0174799 -0.0371787 0)
(-0.0155272 -0.0347169 0)
(-0.0146899 -0.0333835 0)
(-0.0161483 -0.0317592 0)
(-0.0126642 -0.0288864 0)
(-0.0156602 -0.025946 0)
(-0.0203609 -0.0259764 0)
(-0.0245626 -0.021575 0)
(-0.0261137 -0.0152146 0)
(-0.0221211 -0.0133192 0)
(-0.0147507 -0.00576374 0)
(-0.00563032 -0.00136543 0)
(0.00215402 -0.00560949 0)
(0.0095811 -0.0130834 0)
(0.020274 -0.0164027 0)
(0.0313631 -0.0203394 0)
(0.0419501 -0.0215214 0)
(0.0436541 -0.0323036 0)
(0.0404719 -0.0434679 0)
(0.0402104 -0.0530709 0)
(0.0436501 -0.0508106 0)
(0.0477639 -0.046016 0)
(0.0497014 -0.0495033 0)
(0.051892 -0.0555672 0)
(0.0540813 -0.056566 0)
(0.057553 -0.0661624 0)
(0.0637364 -0.0729516 0)
(0.0666206 -0.0751515 0)
(0.0608366 -0.0761898 0)
(0.0475257 -0.0718839 0)
(0.0293256 -0.0713942 0)
(0.014162 -0.0669867 0)
(0.00509663 -0.064795 0)
(-0.00490756 -0.0630911 0)
(-0.0198712 -0.0598312 0)
(-0.0337917 -0.0457392 0)
(-0.0487519 -0.0390745 0)
(-0.0630794 -0.0341811 0)
(-0.0714826 -0.029106 0)
(-0.0783182 -0.0244134 0)
(-0.0830137 -0.0199884 0)
(-0.0848766 -0.0194117 0)
(-0.086376 -0.0169762 0)
(-0.0874823 -0.010661 0)
(-0.0825232 -0.00601231 0)
(-0.0651139 0.000293188 0)
(-0.0452504 0.00450498 0)
(-0.0347992 0.0141914 0)
(-0.0342422 0.023701 0)
(-0.0308649 0.0335251 0)
(-0.0183099 0.0401814 0)
(-0.00830119 0.0470091 0)
(-0.00245358 0.0591065 0)
(0.0020475 0.0652809 0)
(0.00843465 0.0698313 0)
(0.0133491 0.0750641 0)
(0.0145614 0.0760698 0)
(0.0187768 0.077709 0)
(0.0234218 0.0740616 0)
(0.0255649 0.0705124 0)
(0.026701 0.0658034 0)
(0.0259585 0.0607969 0)
(0.0213567 0.0644276 0)
(0.0175861 0.0679946 0)
(0.0160881 0.0658042 0)
(0.0172607 0.0659532 0)
(0.021785 0.0642134 0)
(0.0256097 0.0594551 0)
(0.0317816 0.0524123 0)
(0.0330726 0.0437074 0)
(0.0273489 0.0369594 0)
(0.0206764 0.0299322 0)
(0.0166291 0.0230797 0)
(0.0192441 0.0162134 0)
(0.0244211 0.00404955 0)
(0.0289008 -0.000672494 0)
(0.0284385 -0.00428519 0)
(0.0232848 -0.00959909 0)
(0.0166287 -0.0104173 0)
(0.0141022 -0.0148204 0)
(0.0163186 -0.0221501 0)
(0.0143573 -0.0288869 0)
(0.00822533 -0.0348589 0)
(0.00459065 -0.0387308 0)
(0.000866678 -0.0453327 0)
(-0.00257148 -0.0496861 0)
(0.00436635 -0.0522591 0)
(0.0164289 -0.0562492 0)
(0.0240095 -0.0590343 0)
(0.029528 -0.0654891 0)
(0.0349607 -0.068988 0)
(0.0319191 -0.0719795 0)
(0.0265095 -0.0725261 0)
(0.0298615 -0.0687878 0)
(0.0299937 -0.0687623 0)
(0.0210021 -0.0680598 0)
(0.0109364 -0.0710117 0)
(0.00296314 -0.0730354 0)
(-0.00887071 -0.0694351 0)
(-0.0180555 -0.0666648 0)
(-0.0228006 -0.0638761 0)
(-0.0225824 -0.057447 0)
(-0.0233812 -0.0551519 0)
(-0.024394 -0.0498189 0)
(-0.0206358 -0.0471552 0)
(-0.0249805 -0.0451287 0)
(-0.0304896 -0.0429555 0)
(-0.0344531 -0.0374439 0)
(-0.0375457 -0.0276541 0)
(-0.0317383 -0.0227265 0)
(-0.0193687 -0.0127224 0)
(-0.00773736 -0.00426317 0)
(0.00299703 -0.00509 0)
(0.0127425 -0.015237 0)
(0.0265792 -0.0227947 0)
(0.0422432 -0.0278798 0)
(0.0516679 -0.032821 0)
(0.0502915 -0.0446659 0)
(0.0479002 -0.0553183 0)
(0.0523949 -0.0661142 0)
(0.062236 -0.0672504 0)
(0.0652634 -0.0648985 0)
(0.0632254 -0.0686124 0)
(0.0669859 -0.0769505 0)
(0.0694685 -0.0811082 0)
(0.0722308 -0.090046 0)
(0.0817678 -0.0950118 0)
(0.0841113 -0.0995723 0)
(0.0762566 -0.103214 0)
(0.0609606 -0.104036 0)
(0.0415227 -0.10102 0)
(0.0231506 -0.0937783 0)
(0.00688773 -0.0879691 0)
(-0.0074239 -0.0832759 0)
(-0.0216496 -0.0796124 0)
(-0.0390736 -0.0683136 0)
(-0.060885 -0.0609114 0)
(-0.0782019 -0.0516245 0)
(-0.0905882 -0.0413205 0)
(-0.101272 -0.0354678 0)
(-0.108901 -0.0289462 0)
(-0.112107 -0.0270475 0)
(-0.111128 -0.0218221 0)
(-0.109773 -0.0126517 0)
(-0.104117 -0.00327431 0)
(-0.0856677 0.0033314 0)
(-0.0601279 0.00817533 0)
(-0.0431025 0.0188865 0)
(-0.0396151 0.0303057 0)
(-0.0343702 0.0452071 0)
(-0.0208771 0.0623415 0)
(-0.00751939 0.0730785 0)
(0.000690091 0.0838796 0)
(0.00542497 0.0932875 0)
(0.0129554 0.0998493 0)
(0.017378 0.102955 0)
(0.0195843 0.105311 0)
(0.0247942 0.106817 0)
(0.0286482 0.103329 0)
(0.0319149 0.0984357 0)
(0.032992 0.0961373 0)
(0.0315289 0.0920442 0)
(0.0289142 0.0891857 0)
(0.0248642 0.0910862 0)
(0.0233346 0.0901283 0)
(0.024925 0.091184 0)
(0.0271835 0.0879034 0)
(0.0307395 0.0779153 0)
(0.0375654 0.0701814 0)
(0.0388961 0.0587998 0)
(0.0326405 0.0501836 0)
(0.0248388 0.0432039 0)
(0.0199995 0.0326368 0)
(0.0218251 0.0218075 0)
(0.0276185 0.0111289 0)
(0.0344916 0.0023628 0)
(0.0343751 -0.00496697 0)
(0.0295866 -0.0121151 0)
(0.022171 -0.0156842 0)
(0.0165425 -0.0229043 0)
(0.0176589 -0.0314368 0)
(0.015326 -0.0396899 0)
(0.00898543 -0.046277 0)
(0.00369667 -0.0532916 0)
(-0.000273607 -0.0644362 0)
(-0.0015336 -0.069754 0)
(0.00619077 -0.074292 0)
(0.0199613 -0.0775614 0)
(0.0289179 -0.0822259 0)
(0.0360344 -0.0895115 0)
(0.0427423 -0.0938023 0)
(0.0402271 -0.0984279 0)
(0.0368117 -0.0973154 0)
(0.0392099 -0.0952855 0)
(0.03801 -0.0979 0)
(0.0269316 -0.0962641 0)
(0.0123444 -0.0982416 0)
(0.0036289 -0.0988575 0)
(-0.00906308 -0.0962889 0)
(-0.0217582 -0.0916627 0)
(-0.0265206 -0.0879521 0)
(-0.0265191 -0.0803128 0)
(-0.0276083 -0.075383 0)
(-0.0299005 -0.0668121 0)
(-0.0294447 -0.0644393 0)
(-0.0345224 -0.0641844 0)
(-0.0395891 -0.0595749 0)
(-0.0410795 -0.0520198 0)
(-0.0436017 -0.042008 0)
(-0.0371984 -0.030955 0)
(-0.0225868 -0.0195985 0)
(-0.00856359 -0.00738398 0)
(0.00311918 -0.00603015 0)
(0.0145297 -0.0169741 0)
(0.0317274 -0.0261424 0)
(0.0484044 -0.0329073 0)
(0.0575206 -0.0430154 0)
(0.0571955 -0.0532054 0)
(0.0553756 -0.0643884 0)
(0.0617958 -0.0741657 0)
(0.0753458 -0.0814311 0)
(0.0793546 -0.0872675 0)
(0.0753637 -0.0915753 0)
(0.0786451 -0.096517 0)
(0.0817403 -0.102309 0)
(0.0857893 -0.108154 0)
(0.0949852 -0.112886 0)
(0.0960916 -0.120868 0)
(0.0878557 -0.12794 0)
(0.0730113 -0.131049 0)
(0.0534317 -0.128255 0)
(0.0322393 -0.121312 0)
(0.0130285 -0.112792 0)
(-0.00699467 -0.103315 0)
(-0.0258815 -0.0972333 0)
(-0.0454703 -0.0895496 0)
(-0.0694417 -0.0816341 0)
(-0.0883155 -0.0699141 0)
(-0.10475 -0.058006 0)
(-0.118572 -0.0487417 0)
(-0.128923 -0.0386608 0)
(-0.133348 -0.0320709 0)
(-0.130183 -0.0226357 0)
(-0.127321 -0.011382 0)
(-0.121116 -0.0029828 0)
(-0.101608 0.00695287 0)
(-0.072437 0.0179857 0)
(-0.0515073 0.0298656 0)
(-0.0430577 0.0413777 0)
(-0.03066 0.0588241 0)
(-0.0159688 0.0796334 0)
(-0.00570963 0.0966284 0)
(0.00395154 0.109255 0)
(0.0100344 0.121958 0)
(0.0159843 0.129346 0)
(0.0214777 0.131663 0)
(0.0249632 0.134837 0)
(0.0285503 0.134166 0)
(0.0316422 0.130483 0)
(0.0363587 0.125643 0)
(0.0383098 0.122007 0)
(0.0361182 0.118702 0)
(0.0348257 0.113739 0)
(0.0323619 0.112972 0)
(0.0308595 0.114497 0)
(0.0314963 0.114601 0)
(0.0296632 0.108592 0)
(0.032278 0.0946565 0)
(0.0393468 0.0842837 0)
(0.0407339 0.0728099 0)
(0.0375094 0.060645 0)
(0.028067 0.0525581 0)
(0.0203291 0.0410848 0)
(0.0229752 0.0272035 0)
(0.0299182 0.016114 0)
(0.0366475 0.00562357 0)
(0.0366394 -0.00356224 0)
(0.0327056 -0.0132092 0)
(0.0243213 -0.0204301 0)
(0.0171877 -0.0295666 0)
(0.0178336 -0.0394461 0)
(0.0158056 -0.051255 0)
(0.00861063 -0.0589973 0)
(0.000144566 -0.0676023 0)
(-0.00297273 -0.0799676 0)
(-0.00142108 -0.0882459 0)
(0.00860804 -0.0922149 0)
(0.0236063 -0.0949546 0)
(0.0315137 -0.10106 0)
(0.0397006 -0.107612 0)
(0.047918 -0.11508 0)
(0.0480858 -0.122209 0)
(0.0461023 -0.122986 0)
(0.0452938 -0.121359 0)
(0.043247 -0.123606 0)
(0.0314419 -0.125311 0)
(0.0149313 -0.124739 0)
(0.00471284 -0.122237 0)
(-0.0088649 -0.123261 0)
(-0.0218811 -0.115522 0)
(-0.0277405 -0.10951 0)
(-0.0287407 -0.101846 0)
(-0.0304022 -0.0953386 0)
(-0.0346254 -0.0872225 0)
(-0.0381527 -0.0828107 0)
(-0.0424862 -0.0808534 0)
(-0.0447166 -0.0730318 0)
(-0.0465186 -0.062017 0)
(-0.0474706 -0.0530015 0)
(-0.0394375 -0.0377923 0)
(-0.0237878 -0.0244471 0)
(-0.00738573 -0.00793046 0)
(0.00427094 -0.00745476 0)
(0.0171715 -0.0190371 0)
(0.0356434 -0.0286042 0)
(0.0528253 -0.0370557 0)
(0.0619791 -0.0511518 0)
(0.0614301 -0.0644338 0)
(0.0601395 -0.0750381 0)
(0.0678606 -0.0801652 0)
(0.0812567 -0.0900184 0)
(0.0877081 -0.103324 0)
(0.0876913 -0.11118 0)
(0.0914635 -0.115474 0)
(0.0941196 -0.120005 0)
(0.0980085 -0.124339 0)
(0.105169 -0.131211 0)
(0.103233 -0.139497 0)
(0.0946697 -0.14702 0)
(0.0811455 -0.151341 0)
(0.0627511 -0.152785 0)
(0.0415964 -0.148393 0)
(0.0198886 -0.141503 0)
(-0.00370767 -0.129751 0)
(-0.0268385 -0.115054 0)
(-0.0502041 -0.107282 0)
(-0.0756961 -0.0981728 0)
(-0.0959434 -0.0858256 0)
(-0.115015 -0.0722662 0)
(-0.130809 -0.0590844 0)
(-0.142979 -0.044817 0)
(-0.148139 -0.0345162 0)
(-0.144138 -0.0250904 0)
(-0.142578 -0.0126376 0)
(-0.135285 -0.00268755 0)
(-0.110765 0.0144653 0)
(-0.0789124 0.0307937 0)
(-0.0567222 0.0424729 0)
(-0.0446252 0.0554544 0)
(-0.0280544 0.0753778 0)
(-0.0102941 0.0947354 0)
(0.00152803 0.116256 0)
(0.0109388 0.132633 0)
(0.0160127 0.146621 0)
(0.0197545 0.155866 0)
(0.0245557 0.157844 0)
(0.0277904 0.158733 0)
(0.0310297 0.157772 0)
(0.0343722 0.157613 0)
(0.0392615 0.153198 0)
(0.0420378 0.147003 0)
(0.039384 0.141609 0)
(0.0382886 0.135472 0)
(0.0391062 0.132092 0)
(0.0387844 0.134 0)
(0.0358138 0.133538 0)
(0.0290829 0.125194 0)
(0.0309022 0.11195 0)
(0.0408012 0.0980688 0)
(0.0413646 0.0875203 0)
(0.0373058 0.0730528 0)
(0.029309 0.0569623 0)
(0.0196595 0.0449318 0)
(0.0216189 0.0301662 0)
(0.0298315 0.018026 0)
(0.0377781 0.00870242 0)
(0.0375891 -0.00221324 0)
(0.0331292 -0.0144193 0)
(0.0248724 -0.0242761 0)
(0.0163202 -0.0344286 0)
(0.0145527 -0.0468583 0)
(0.012605 -0.0627537 0)
(0.00728813 -0.0729005 0)
(-0.00241486 -0.0817524 0)
(-0.00656998 -0.0914123 0)
(-0.00138937 -0.102609 0)
(0.0116087 -0.106886 0)
(0.0258228 -0.110525 0)
(0.0341404 -0.116373 0)
(0.0418582 -0.122498 0)
(0.0487309 -0.129854 0)
(0.0506698 -0.141202 0)
(0.0525597 -0.146742 0)
(0.0523942 -0.146833 0)
(0.0467078 -0.147493 0)
(0.0347241 -0.152462 0)
(0.0192856 -0.148715 0)
(0.00489112 -0.145627 0)
(-0.00846872 -0.145124 0)
(-0.0199502 -0.138291 0)
(-0.0278735 -0.130084 0)
(-0.0297996 -0.122413 0)
(-0.0323422 -0.115445 0)
(-0.0376991 -0.107396 0)
(-0.0431805 -0.10146 0)
(-0.0473007 -0.0941368 0)
(-0.0473533 -0.0823872 0)
(-0.049294 -0.0695196 0)
(-0.0492094 -0.0579249 0)
(-0.0391428 -0.0404164 0)
(-0.0226304 -0.0244682 0)
(-0.00670729 -0.00836986 0)
(0.00475226 -0.0085717 0)
(0.0191584 -0.0210335 0)
(0.0389392 -0.0329203 0)
(0.0533684 -0.0428002 0)
(0.0602899 -0.0608665 0)
(0.0637006 -0.0754703 0)
(0.0686812 -0.0827704 0)
(0.0762482 -0.0842744 0)
(0.0845048 -0.0945564 0)
(0.0909486 -0.109476 0)
(0.0945814 -0.121907 0)
(0.101098 -0.131002 0)
(0.104614 -0.136482 0)
(0.106824 -0.141234 0)
(0.112033 -0.148694 0)
(0.110288 -0.156005 0)
(0.10129 -0.163023 0)
(0.0862001 -0.170789 0)
(0.0675231 -0.172969 0)
(0.0463788 -0.173933 0)
(0.0261612 -0.166955 0)
(0.00528881 -0.151924 0)
(-0.023128 -0.13213 0)
(-0.0531751 -0.125342 0)
(-0.0796236 -0.114313 0)
(-0.100388 -0.100144 0)
(-0.12053 -0.0855767 0)
(-0.1372 -0.0671046 0)
(-0.152019 -0.0503923 0)
(-0.16134 -0.0361562 0)
(-0.156892 -0.0255912 0)
(-0.152768 -0.014316 0)
(-0.140967 0.00228704 0)
(-0.113511 0.022762 0)
(-0.0844435 0.0420607 0)
(-0.0618719 0.0548541 0)
(-0.0432843 0.0705634 0)
(-0.0221105 0.0893428 0)
(-0.00212208 0.110479 0)
(0.0100041 0.133756 0)
(0.0180729 0.153548 0)
(0.0226891 0.170032 0)
(0.0233226 0.179019 0)
(0.0258903 0.180619 0)
(0.0301649 0.178816 0)
(0.0356512 0.177891 0)
(0.0384002 0.179193 0)
(0.0401854 0.175983 0)
(0.0422064 0.169031 0)
(0.0403097 0.162207 0)
(0.0405911 0.15605 0)
(0.0443144 0.152716 0)
(0.0455067 0.15107 0)
(0.039421 0.147197 0)
(0.0292096 0.139324 0)
(0.0288204 0.128511 0)
(0.0387492 0.111456 0)
(0.0401317 0.0961597 0)
(0.0327476 0.0798979 0)
(0.0247203 0.0591613 0)
(0.0175839 0.04633 0)
(0.0199163 0.0350057 0)
(0.0306402 0.0214019 0)
(0.0378915 0.0109416 0)
(0.0351452 -0.0030923 0)
(0.0311281 -0.0161255 0)
(0.0233076 -0.0288337 0)
(0.013409 -0.0399635 0)
(0.00897681 -0.0551298 0)
(0.00768651 -0.070567 0)
(0.00472962 -0.0832259 0)
(-0.00407584 -0.0947273 0)
(-0.00918167 -0.10297 0)
(-0.00340115 -0.111853 0)
(0.013068 -0.117148 0)
(0.0282701 -0.122395 0)
(0.0357822 -0.129174 0)
(0.0439167 -0.137842 0)
(0.0486657 -0.145535 0)
(0.0497924 -0.158202 0)
(0.0551138 -0.164548 0)
(0.0564595 -0.167115 0)
(0.0488521 -0.167968 0)
(0.0376262 -0.173311 0)
(0.0237205 -0.173236 0)
(0.007398 -0.168926 0)
(-0.0071739 -0.162768 0)
(-0.0179349 -0.156553 0)
(-0.026038 -0.145902 0)
(-0.0302508 -0.138163 0)
(-0.0335264 -0.133259 0)
(-0.0401476 -0.125932 0)
(-0.0457157 -0.117776 0)
(-0.0472648 -0.106218 0)
(-0.0468452 -0.0895513 0)
(-0.0498948 -0.074834 0)
(-0.0480151 -0.058787 0)
(-0.0367898 -0.0393412 0)
(-0.0219947 -0.0216802 0)
(-0.00561902 -0.00769219 0)
(0.00571068 -0.00842944 0)
(0.0197542 -0.0208542 0)
(0.0393471 -0.0348781 0)
(0.0522259 -0.0499502 0)
(0.0586239 -0.067494 0)
(0.0668045 -0.078128 0)
(0.0758738 -0.0859226 0)
(0.0820648 -0.0896624 0)
(0.0863135 -0.0986007 0)
(0.0919856 -0.112796 0)
(0.0970116 -0.13093 0)
(0.106445 -0.142621 0)
(0.112482 -0.14948 0)
(0.114545 -0.154295 0)
(0.118644 -0.161255 0)
(0.11485 -0.17011 0)
(0.102748 -0.178813 0)
(0.0886999 -0.186756 0)
(0.0705279 -0.189048 0)
(0.0508144 -0.192698 0)
(0.0352496 -0.185142 0)
(0.0153018 -0.172344 0)
(-0.019654 -0.153138 0)
(-0.0550116 -0.140521 0)
(-0.0802027 -0.128491 0)
(-0.102394 -0.112727 0)
(-0.122129 -0.0988173 0)
(-0.13935 -0.0788375 0)
(-0.156754 -0.0595994 0)
(-0.167642 -0.0360732 0)
(-0.166082 -0.0206133 0)
(-0.159343 -0.00745823 0)
(-0.143536 0.0102519 0)
(-0.114405 0.0279394 0)
(-0.084981 0.0469173 0)
(-0.061924 0.0657397 0)
(-0.0418111 0.0870478 0)
(-0.0175764 0.104414 0)
(0.00719183 0.127493 0)
(0.0216861 0.152913 0)
(0.0296683 0.176804 0)
(0.0302126 0.191041 0)
(0.0262092 0.195691 0)
(0.0260228 0.19709 0)
(0.0300801 0.195467 0)
(0.0379758 0.192809 0)
(0.0415972 0.192506 0)
(0.0418539 0.191771 0)
(0.0428854 0.187784 0)
(0.0413327 0.182075 0)
(0.0431532 0.176686 0)
(0.0476816 0.171385 0)
(0.0474975 0.165899 0)
(0.0406358 0.158345 0)
(0.0295952 0.149905 0)
(0.0254526 0.140565 0)
(0.0326895 0.124073 0)
(0.0341711 0.102158 0)
(0.0261186 0.0822203 0)
(0.0204339 0.0610989 0)
(0.0174361 0.0485221 0)
(0.0185785 0.0386321 0)
(0.0271511 0.023563 0)
(0.0343959 0.0107627 0)
(0.0317715 -0.00241858 0)
(0.0275931 -0.0178498 0)
(0.0199749 -0.0343377 0)
(0.00886764 -0.0457358 0)
(0.0031971 -0.0618362 0)
(0.0023513 -0.0763797 0)
(-0.000753472 -0.0910344 0)
(-0.00769165 -0.102428 0)
(-0.0100806 -0.11136 0)
(-0.00249906 -0.115921 0)
(0.01381 -0.121348 0)
(0.0278552 -0.130105 0)
(0.0346018 -0.141215 0)
(0.0423219 -0.151711 0)
(0.0464448 -0.161732 0)
(0.0490049 -0.171032 0)
(0.0574381 -0.178016 0)
(0.0599674 -0.181085 0)
(0.0504089 -0.184272 0)
(0.036747 -0.188378 0)
(0.0255709 -0.191994 0)
(0.0125179 -0.187452 0)
(-0.00261709 -0.178793 0)
(-0.0137685 -0.16946 0)
(-0.0231887 -0.159799 0)
(-0.0315726 -0.151657 0)
(-0.0363313 -0.148583 0)
(-0.040985 -0.141307 0)
(-0.0449006 -0.130851 0)
(-0.044219 -0.115654 0)
(-0.0432801 -0.0955936 0)
(-0.0467562 -0.0790717 0)
(-0.0438891 -0.0574654 0)
(-0.0329274 -0.0361013 0)
(-0.0204721 -0.018968 0)
(-0.00633556 -0.00561609 0)
(0.00597907 -0.00732645 0)
(0.0194519 -0.0211907 0)
(0.0359512 -0.0356883 0)
(0.0474836 -0.0538965 0)
(0.0579531 -0.0668753 0)
(0.0690887 -0.0768698 0)
(0.079779 -0.0853911 0)
(0.0871705 -0.0932492 0)
(0.0884362 -0.100936 0)
(0.088823 -0.114893 0)
(0.094911 -0.135822 0)
(0.11011 -0.150936 0)
(0.118714 -0.159808 0)
(0.120362 -0.163848 0)
(0.121426 -0.170324 0)
(0.116416 -0.182074 0)
(0.105282 -0.190827 0)
(0.09136 -0.197639 0)
(0.0716867 -0.201565 0)
(0.0531748 -0.204888 0)
(0.0401439 -0.198815 0)
(0.0227857 -0.189388 0)
(-0.010801 -0.176377 0)
(-0.0509763 -0.158615 0)
(-0.0796102 -0.141036 0)
(-0.102995 -0.123341 0)
(-0.123426 -0.106943 0)
(-0.138854 -0.0881592 0)
(-0.152971 -0.0642376 0)
(-0.166165 -0.0386477 0)
(-0.169602 -0.0193476 0)
(-0.163226 0.000181179 0)
(-0.146662 0.0182664 0)
(-0.116119 0.0333966 0)
(-0.083534 0.0519227 0)
(-0.0562436 0.0752744 0)
(-0.0355467 0.101055 0)
(-0.00979564 0.124656 0)
(0.0194298 0.148432 0)
(0.0354472 0.170972 0)
(0.0385103 0.193463 0)
(0.0320657 0.204343 0)
(0.0261624 0.208932 0)
(0.0267986 0.209605 0)
(0.0305199 0.208071 0)
(0.0391125 0.205136 0)
(0.0450536 0.203177 0)
(0.0454981 0.203612 0)
(0.0448297 0.202283 0)
(0.042559 0.198149 0)
(0.0436314 0.193249 0)
(0.0477459 0.183366 0)
(0.047796 0.175685 0)
(0.0401231 0.167208 0)
(0.0292229 0.155356 0)
(0.0235075 0.145995 0)
(0.0246585 0.131327 0)
(0.0237671 0.10699 0)
(0.0170029 0.0847109 0)
(0.0142593 0.0658399 0)
(0.0151726 0.0511673 0)
(0.0154326 0.0382122 0)
(0.0237322 0.0240531 0)
(0.0320047 0.0116894 0)
(0.0268509 -0.00356806 0)
(0.0198332 -0.0210007 0)
(0.014359 -0.0395113 0)
(0.00412374 -0.0507062 0)
(-0.00322801 -0.0658465 0)
(-0.0040336 -0.0810088 0)
(-0.00517263 -0.0968779 0)
(-0.010104 -0.10517 0)
(-0.0102776 -0.113365 0)
(-0.00172932 -0.117384 0)
(0.0121107 -0.124048 0)
(0.023759 -0.135488 0)
(0.0306093 -0.149864 0)
(0.0399532 -0.162301 0)
(0.0456294 -0.172667 0)
(0.0486037 -0.179082 0)
(0.0576846 -0.186582 0)
(0.0605799 -0.192022 0)
(0.0505439 -0.19871 0)
(0.0369164 -0.202583 0)
(0.0269209 -0.203829 0)
(0.0169437 -0.199658 0)
(0.00315817 -0.190568 0)
(-0.00948828 -0.180281 0)
(-0.0208592 -0.170529 0)
(-0.0320409 -0.163535 0)
(-0.0378369 -0.159674 0)
(-0.0407231 -0.152049 0)
(-0.0420208 -0.139352 0)
(-0.0379485 -0.120889 0)
(-0.037859 -0.0998852 0)
(-0.040871 -0.0809278 0)
(-0.0362477 -0.0563849 0)
(-0.0288026 -0.0341973 0)
(-0.0199981 -0.0190033 0)
(-0.00727395 -0.00565073 0)
(0.00507161 -0.00732119 0)
(0.016986 -0.0214146 0)
(0.031848 -0.0341647 0)
(0.0452197 -0.0497979 0)
(0.0576825 -0.0607719 0)
(0.0695415 -0.0722766 0)
(0.0807668 -0.0802208 0)
(0.0882369 -0.094035 0)
(0.0886918 -0.105998 0)
(0.0852862 -0.119174 0)
(0.0900007 -0.135539 0)
(0.108608 -0.152589 0)
(0.122748 -0.165386 0)
(0.126061 -0.170736 0)
(0.123387 -0.178261 0)
(0.116144 -0.189407 0)
(0.105218 -0.197797 0)
(0.0916371 -0.206905 0)
(0.0724222 -0.21021 0)
(0.0560504 -0.209034 0)
(0.0455799 -0.204003 0)
(0.0263202 -0.200102 0)
(-0.00690958 -0.194802 0)
(-0.0431557 -0.177028 0)
(-0.0723466 -0.152819 0)
(-0.098932 -0.135001 0)
(-0.120863 -0.116455 0)
(-0.134935 -0.0926529 0)
(-0.149045 -0.0666691 0)
(-0.16433 -0.0451992 0)
(-0.167493 -0.0218578 0)
(-0.161178 -0.000156314 0)
(-0.147433 0.0233753 0)
(-0.116194 0.0449509 0)
(-0.0784657 0.0655549 0)
(-0.0474903 0.087573 0)
(-0.0244055 0.112316 0)
(0.00126263 0.141669 0)
(0.0282122 0.163709 0)
(0.0447188 0.18311 0)
(0.0470254 0.200206 0)
(0.0371936 0.211496 0)
(0.0283141 0.218772 0)
(0.0260568 0.222309 0)
(0.0296622 0.219835 0)
(0.0391799 0.215005 0)
(0.0469066 0.212872 0)
(0.0489199 0.214191 0)
(0.0475655 0.212722 0)
(0.0441051 0.208555 0)
(0.0422554 0.202451 0)
(0.0452301 0.191871 0)
(0.0465642 0.180111 0)
(0.0371331 0.170527 0)
(0.0259377 0.155383 0)
(0.020174 0.143616 0)
(0.0167446 0.129295 0)
(0.0128244 0.107536 0)
(0.00882588 0.0887884 0)
(0.00864032 0.0711101 0)
(0.00981792 0.052274 0)
(0.0111142 0.038722 0)
(0.0198494 0.0259375 0)
(0.0259507 0.00821125 0)
(0.0191912 -0.0112489 0)
(0.0121508 -0.0255958 0)
(0.00861588 -0.0398732 0)
(-0.000518356 -0.0522958 0)
(-0.00959094 -0.0662562 0)
(-0.0114153 -0.0804228 0)
(-0.00982985 -0.0964563 0)
(-0.0113507 -0.104905 0)
(-0.0106429 -0.110577 0)
(-0.00178247 -0.116593 0)
(0.00939845 -0.126883 0)
(0.018197 -0.139816 0)
(0.0246063 -0.153634 0)
(0.0355029 -0.167288 0)
(0.0439985 -0.180384 0)
(0.0482628 -0.18579 0)
(0.0566427 -0.192417 0)
(0.0586317 -0.19876 0)
(0.0487244 -0.20666 0)
(0.037219 -0.210198 0)
(0.0298243 -0.207524 0)
(0.0220465 -0.205463 0)
(0.00901915 -0.197435 0)
(-0.00397691 -0.187451 0)
(-0.0180057 -0.176372 0)
(-0.0327266 -0.170797 0)
(-0.0388468 -0.165471 0)
(-0.0386752 -0.157821 0)
(-0.0361698 -0.14206 0)
(-0.0308176 -0.122861 0)
(-0.0308307 -0.102389 0)
(-0.0328639 -0.0809209 0)
(-0.0285846 -0.056481 0)
(-0.0252236 -0.0357306 0)
(-0.0196326 -0.0209781 0)
(-0.00786277 -0.0071223 0)
(0.00425875 -0.00658435 0)
(0.0157635 -0.0181018 0)
(0.0292802 -0.0274543 0)
(0.0413221 -0.041411 0)
(0.0547412 -0.0545046 0)
(0.0684536 -0.0673947 0)
(0.0780316 -0.0763766 0)
(0.083162 -0.0918373 0)
(0.0856137 -0.107403 0)
(0.0834262 -0.122162 0)
(0.0871891 -0.131956 0)
(0.105301 -0.145691 0)
(0.122464 -0.16141 0)
(0.127515 -0.170009 0)
(0.123328 -0.180334 0)
(0.116123 -0.193152 0)
(0.104351 -0.202598 0)
(0.0914974 -0.209445 0)
(0.0762575 -0.213337 0)
(0.0603893 -0.211509 0)
(0.045633 -0.209187 0)
(0.0246222 -0.20818 0)
(-0.00261185 -0.204803 0)
(-0.0326026 -0.189373 0)
(-0.0646717 -0.165967 0)
(-0.0953287 -0.144635 0)
(-0.114011 -0.124411 0)
(-0.126092 -0.0982068 0)
(-0.143458 -0.0723845 0)
(-0.15951 -0.0489574 0)
(-0.163052 -0.0230198 0)
(-0.156176 -0.00215304 0)
(-0.138744 0.0249691 0)
(-0.108865 0.0558441 0)
(-0.0740386 0.0803151 0)
(-0.0414756 0.0991437 0)
(-0.0129434 0.122878 0)
(0.0133942 0.152461 0)
(0.0379434 0.173663 0)
(0.0529762 0.191741 0)
(0.052681 0.203873 0)
(0.0415279 0.21321 0)
(0.0322987 0.223716 0)
(0.0279667 0.228715 0)
(0.027529 0.230702 0)
(0.0381275 0.224708 0)
(0.0500792 0.221933 0)
(0.0522223 0.22034 0)
(0.0484665 0.217638 0)
(0.0435152 0.210398 0)
(0.0404461 0.203316 0)
(0.0408873 0.196737 0)
(0.0421121 0.183874 0)
(0.0323696 0.169351 0)
(0.0202547 0.153282 0)
(0.015481 0.137976 0)
(0.0095331 0.122302 0)
(0.00552127 0.103907 0)
(0.00177343 0.0893621 0)
(-0.00112052 0.0723523 0)
(0.0026698 0.0538183 0)
(0.00717169 0.0388526 0)
(0.0121494 0.0211757 0)
(0.0152132 0.000573194 0)
(0.0121961 -0.0136156 0)
(0.00860296 -0.0228478 0)
(0.00413902 -0.0357325 0)
(-0.00626342 -0.0522686 0)
(-0.0152726 -0.0650476 0)
(-0.0179309 -0.0782135 0)
(-0.0151184 -0.0922098 0)
(-0.0125745 -0.10223 0)
(-0.0109676 -0.106007 0)
(-0.00568482 -0.114388 0)
(0.00331143 -0.125486 0)
(0.0126582 -0.139412 0)
(0.0192283 -0.154571 0)
(0.0292089 -0.169111 0)
(0.0408271 -0.182886 0)
(0.0481503 -0.187533 0)
(0.0558228 -0.193464 0)
(0.0567466 -0.200311 0)
(0.0474275 -0.207789 0)
(0.0399416 -0.210088 0)
(0.0321912 -0.205238 0)
(0.0241143 -0.203056 0)
(0.014047 -0.199059 0)
(0.00155429 -0.188948 0)
(-0.0150626 -0.180736 0)
(-0.0323563 -0.175602 0)
(-0.0383803 -0.168333 0)
(-0.03523 -0.158202 0)
(-0.0295687 -0.141213 0)
(-0.0234725 -0.12176 0)
(-0.0230606 -0.101886 0)
(-0.024396 -0.0796361 0)
(-0.0214321 -0.0587527 0)
(-0.0221375 -0.0414353 0)
(-0.019312 -0.0252899 0)
(-0.00757452 -0.00875995 0)
(0.00385228 -0.0048846 0)
(0.0148376 -0.0134232 0)
(0.025988 -0.0217191 0)
(0.0358257 -0.0327052 0)
(0.0490243 -0.0452325 0)
(0.0643108 -0.0596447 0)
(0.0743024 -0.0713321 0)
(0.0777013 -0.0820023 0)
(0.0794547 -0.0957529 0)
(0.0810044 -0.115216 0)
(0.087031 -0.126193 0)
(0.101606 -0.137536 0)
(0.119528 -0.150658 0)
(0.126418 -0.163478 0)
(0.119796 -0.175594 0)
(0.111859 -0.189695 0)
(0.103484 -0.202018 0)
(0.0916849 -0.207398 0)
(0.0761449 -0.212106 0)
(0.06132 -0.213666 0)
(0.0470047 -0.216155 0)
(0.0251656 -0.214121 0)
(-0.000820829 -0.209422 0)
(-0.0255972 -0.194918 0)
(-0.0534942 -0.178751 0)
(-0.0851584 -0.158715 0)
(-0.105855 -0.132579 0)
(-0.1177 -0.10449 0)
(-0.135232 -0.07638 0)
(-0.151271 -0.050111 0)
(-0.156598 -0.0225928 0)
(-0.149144 -0.00232896 0)
(-0.127252 0.0244222 0)
(-0.0967125 0.0571702 0)
(-0.0662081 0.0854465 0)
(-0.0338464 0.108379 0)
(-0.000714508 0.133578 0)
(0.0253685 0.159205 0)
(0.0462107 0.180064 0)
(0.0584197 0.194552 0)
(0.0566392 0.205752 0)
(0.0478735 0.21488 0)
(0.0379457 0.227381 0)
(0.0314128 0.234761 0)
(0.028737 0.237164 0)
(0.0363428 0.231211 0)
(0.0486638 0.226716 0)
(0.0518513 0.219516 0)
(0.0472396 0.2162 0)
(0.0412602 0.208408 0)
(0.0404518 0.200802 0)
(0.0396308 0.194424 0)
(0.0355136 0.182396 0)
(0.0240688 0.165338 0)
(0.012597 0.147152 0)
(0.00736423 0.130298 0)
(0.00182822 0.112812 0)
(-0.00118437 0.0964559 0)
(-0.00417739 0.0835021 0)
(-0.00738795 0.0710521 0)
(-0.00485836 0.0571663 0)
(-0.00312704 0.0380027 0)
(0.00123205 0.0148676 0)
(0.00963384 -0.00326182 0)
(0.0109414 -0.0121537 0)
(0.00454651 -0.0189403 0)
(-0.00467751 -0.0331148 0)
(-0.0140404 -0.0487725 0)
(-0.020912 -0.0608122 0)
(-0.0238614 -0.0742688 0)
(-0.0201247 -0.0865917 0)
(-0.0142059 -0.0965441 0)
(-0.0122676 -0.101691 0)
(-0.00866972 -0.109303 0)
(-0.00137513 -0.12085 0)
(0.00464731 -0.134805 0)
(0.0107636 -0.148394 0)
(0.0227099 -0.164162 0)
(0.0383191 -0.179538 0)
(0.0479512 -0.186627 0)
(0.0540489 -0.193113 0)
(0.053964 -0.200933 0)