/*--------------------------------*- C++ -*----------------------------------*\
| =========                 |                                                 |
| \\      /  F ield         | OpenFOAM: The Open Source CFD Toolbox           |
|  \\    /   O peration     | Version:  v2012                                 |
|   \\  /    A nd           | Website:  www.openfoam.com                      |
|    \\/     M anipulation  |                                                 |
\*---------------------------------------------------------------------------*/
FoamFile
{
    version     2.0;
    format      ascii;
    class       volVectorField;
    location    "0";
    object      uRec;
}
// * * * * * * * * * * * * * * * * * * * * * * * * * * * * * * * * * * * * * //

dimensions      [0 1 -1 0 0 0 0];


internalField   nonuniform List<vector> 
4000
(
(1 1.32799e-15 0)
(1 -3.25823e-17 0)
(1 -1.1654e-15 0)
(1 1.34824e-16 0)
(1 1.49112e-17 0)
(1 6.63065e-16 0)
(1 1.3355e-15 0)
(1 -3.39035e-16 0)
(1 2.65396e-15 0)
(1 -1.07819e-15 0)
(1 -2.34844e-15 0)
(1 2.23062e-16 0)
(1 1.2341e-15 0)
(1 8.10537e-16 0)
(1 -4.65702e-16 0)
(1 8.94565e-16 0)
(1 1.83339e-16 0)
(1 -4.8367e-16 0)
(1 1.52816e-15 0)
(1 1.15678e-15 0)
(1 3.57787e-16 0)
(1 1.76765e-16 0)
(1 -1.50815e-15 0)
(1 3.8704e-16 0)
(1 -1.03235e-15 0)
(1 -3.30501e-16 0)
(1 1.58241e-16 0)
(1 -6.42957e-16 0)
(1 2.14455e-16 0)
(1 2.71835e-16 0)
(1 1.68958e-15 0)
(1 1.62035e-15 0)
(1 -4.19968e-16 0)
(1 -3.55257e-16 0)
(1 4.15282e-18 0)
(1 -3.61316e-16 0)
(1 -3.68158e-16 0)
(1 1.55736e-15 0)
(1 1.73047e-16 0)
(1 -1.14261e-15 0)
(1 1.73943e-17 0)
(1 -1.00681e-15 0)
(1 -3.50286e-16 0)
(1 1.99374e-15 0)
(1 8.2136e-16 0)
(1 -7.28196e-16 0)
(1 2.2957e-16 0)
(1 6.47262e-17 0)
(1 6.18166e-16 0)
(1 -1.91216e-16 0)
(1 5.27904e-16 0)
(1 6.64473e-16 0)
(1 1.12174e-15 0)
(1 2.03404e-15 0)
(1 1.64215e-15 0)
(1 1.64247e-15 0)
(1 4.14761e-16 0)
(1 2.56126e-17 0)
(1 -4.25867e-16 0)
(1 -1.19238e-16 0)
(1 -9.34901e-16 0)
(1 -5.35728e-16 0)
(1 -2.37793e-16 0)
(1 5.64835e-16 0)
(1 1.75849e-16 0)
(1 3.6859e-16 0)
(1 -3.8865e-16 0)
(1 -3.43373e-17 0)
(1 1.75282e-16 0)
(1 -5.24538e-16 0)
(1 -4.02578e-16 0)
(1 3.63465e-16 0)
(1 -2.86682e-16 0)
(1 -4.26372e-16 0)
(1 -1.15641e-15 0)
(1 -1.09096e-15 0)
(1 -3.16814e-16 0)
(1 7.75903e-17 0)
(1 2.1145e-16 0)
(1 7.29322e-16 0)
(1 3.4401e-16 0)
(1 6.29757e-16 0)
(1 -4.61803e-16 0)
(1 -9.16883e-17 0)
(1 -1.07403e-15 0)
(1 -6.66783e-16 0)
(1 1.23061e-15 0)
(1 1.17249e-15 0)
(1 1.41326e-16 0)
(1 1.21759e-15 0)
(1 2.74803e-16 0)
(1 3.09334e-16 0)
(1 6.56569e-16 0)
(1 8.30728e-16 0)
(1 -2.19342e-16 0)
(1 -6.18879e-18 0)
(1 5.22483e-16 0)
(1 1.20527e-16 0)
(1 -5.63813e-16 0)
(1 -5.80278e-16 0)
(1 1.15233e-15 0)
(1 7.88942e-16 0)
(1 -8.64089e-16 0)
(1 3.26393e-16 0)
(1 -4.84764e-16 0)
(1 1.03023e-15 0)
(1 1.75815e-15 0)
(1 -4.22403e-17 0)
(1 2.83771e-15 0)
(1 6.84337e-16 0)
(1 -7.52578e-16 0)
(1 -4.87777e-16 0)
(1 8.92282e-16 0)
(1 -1.57453e-17 0)
(1 -6.72221e-16 0)
(1 2.51122e-15 0)
(1 1.15839e-15 0)
(1 -2.09032e-17 0)
(1 1.51147e-15 0)
(1 8.52171e-16 0)
(1 1.22771e-15 0)
(1 2.97572e-16 0)
(1 -1.28257e-15 0)
(1 2.45403e-16 0)
(1 -1.08391e-15 0)
(1 2.72473e-16 0)
(1 1.04192e-15 0)
(1 -1.47003e-15 0)
(1 4.44369e-16 0)
(1 3.63704e-16 0)
(1 6.92789e-16 0)
(1 1.422e-15 0)
(1 -1.39408e-15 0)
(1 4.02385e-16 0)
(1 1.28479e-15 0)
(1 3.5312e-16 0)
(1 7.46376e-16 0)
(1 2.4006e-15 0)
(1 -1.31073e-15 0)
(1 -1.90264e-15 0)
(1 -1.52538e-15 0)
(1 -9.57651e-16 0)
(1 2.12915e-16 0)
(1 2.40888e-15 0)
(1 1.19979e-15 0)
(1 9.59417e-17 0)
(1 1.39907e-15 0)
(1 1.8461e-15 0)
(1 2.12309e-15 0)
(1 1.57196e-15 0)
(1 1.33514e-15 0)
(1 2.83231e-16 0)
(1 7.27559e-16 0)
(1 1.12598e-15 0)
(1 1.62269e-15 0)
(1 8.02804e-16 0)
(1 1.1465e-15 0)
(1 1.25454e-15 0)
(1 8.16383e-16 0)
(1 -4.94467e-16 0)
(1 1.21767e-15 0)
(1 8.69602e-16 0)
(1 3.00497e-16 0)
(1 8.56168e-16 0)
(1 2.22872e-16 0)
(1 9.6213e-16 0)
(1 -1.11482e-15 0)
(1 -4.9518e-16 0)
(1 6.13503e-16 0)
(1 -4.01651e-16 0)
(1 -4.67157e-16 0)
(1 4.14418e-16 0)
(1 1.3908e-15 0)
(1 4.77322e-16 0)
(1 2.76114e-16 0)
(1 -4.77321e-16 0)
(1 3.95585e-16 0)
(1 1.01789e-15 0)
(1 3.29751e-16 0)
(1 2.2138e-15 0)
(1 1.4148e-15 0)
(1 5.14084e-16 0)
(1 3.04392e-16 0)
(1 -3.44502e-16 0)
(1 -1.026e-15 0)
(1 -8.24036e-16 0)
(1 2.39913e-16 0)
(1 1.59056e-15 0)
(1 2.80856e-16 0)
(1 1.64295e-15 0)
(1 4.27535e-16 0)
(1 2.48875e-17 0)
(1 1.06644e-15 0)
(1 1.33944e-15 0)
(1 -1.01622e-15 0)
(1 4.70694e-16 0)
(1 8.88565e-16 0)
(1 -7.68172e-16 0)
(1 -9.16601e-16 0)
(1 -9.49443e-16 0)
(1 -8.36068e-16 0)
(1 2.38968e-15 0)
(1 -1.44761e-15 0)
(1 9.81808e-16 0)
(1 -4.38718e-16 0)
(1 9.20114e-16 0)
(1 1.70484e-15 0)
(1 3.33418e-15 0)
(1 1.11038e-16 0)
(1 4.89466e-16 0)
(1 9.43806e-16 0)
(1 1.74604e-15 0)
(1 1.3233e-15 0)
(1 1.15253e-15 0)
(1 7.76848e-16 0)
(1 1.71812e-15 0)
(1 1.34759e-15 0)
(1 2.61793e-15 0)
(1 -5.64649e-17 0)
(1 6.4675e-16 0)
(1 8.92609e-16 0)
(1 -8.28907e-16 0)
(1 6.84577e-17 0)
(1 -2.87e-16 0)
(1 2.52244e-15 0)
(1 1.47892e-15 0)
(1 2.3262e-15 0)
(1 -9.00043e-16 0)
(1 5.63415e-16 0)
(1 6.68618e-16 0)
(1 -2.63803e-16 0)
(1 -6.54603e-16 0)
(1 -2.25949e-16 0)
(1 6.90918e-16 0)
(1 4.31517e-16 0)
(1 1.76332e-15 0)
(1 7.80212e-16 0)
(1 2.98832e-15 0)
(1 1.54485e-15 0)
(1 -1.59041e-15 0)
(1 -5.87789e-16 0)
(1 -4.82167e-16 0)
(1 5.25256e-16 0)
(1 3.77721e-16 0)
(1 1.23845e-15 0)
(1 5.57287e-16 0)
(1 2.49246e-15 0)
(1 3.4292e-15 0)
(1 2.33291e-15 0)
(1 1.89327e-15 0)
(1 3.04965e-15 0)
(1 1.3684e-15 0)
(1 1.82906e-15 0)
(1 4.46945e-16 0)
(1 1.78592e-15 0)
(1 1.82339e-15 0)
(1 2.55269e-15 0)
(1 2.82049e-15 0)
(1 3.26562e-15 0)
(1 7.88981e-16 0)
(1 2.24647e-16 0)
(1 9.28599e-16 0)
(1 4.03347e-16 0)
(1 -1.30586e-16 0)
(1 1.92325e-16 0)
(1 4.61971e-16 0)
(1 -2.26564e-16 0)
(1 2.37016e-16 0)
(1 1.45623e-15 0)
(1 2.55955e-16 0)
(1 4.99363e-16 0)
(1 -6.84218e-16 0)
(1 -5.61698e-16 0)
(1 -6.53175e-16 0)
(1 7.96247e-16 0)
(1 -3.75744e-16 0)
(1 8.53632e-16 0)
(1 -6.9139e-17 0)
(1 9.2162e-16 0)
(1 2.34099e-16 0)
(1 8.13794e-16 0)
(1 9.44655e-16 0)
(1 8.14432e-16 0)
(1 2.84168e-16 0)
(1 -2.09452e-16 0)
(1 6.18905e-16 0)
(1 -2.66332e-16 0)
(1 1.65476e-15 0)
(1 6.29986e-16 0)
(1 1.71569e-15 0)
(1 5.01792e-16 0)
(1 7.7802e-16 0)
(1 2.0067e-16 0)
(1 1.19908e-15 0)
(1 -2.30556e-16 0)
(1 1.24292e-15 0)
(1 8.76151e-16 0)
(1 -1.3468e-15 0)
(1 -2.83769e-16 0)
(1 -7.60838e-16 0)
(1 -2.33776e-17 0)
(1 7.09252e-16 0)
(1 -8.4446e-16 0)
(1 -1.24673e-15 0)
(1 2.33553e-15 0)
(1 1.29112e-15 0)
(1 3.35317e-15 0)
(1 3.36791e-15 0)
(1 1.27625e-15 0)
(1 8.27588e-17 0)
(1 -4.09456e-16 0)
(1 2.31415e-15 0)
(1 -5.55036e-17 0)
(1 3.02165e-15 0)
(1 3.48567e-15 0)
(1 3.88041e-16 0)
(1 2.169e-15 0)
(1 2.26351e-15 0)
(1 3.97311e-16 0)
(1 2.8243e-15 0)
(1 1.6402e-16 0)
(1 1.04417e-15 0)
(1 3.49629e-16 0)
(1 9.19434e-16 0)
(1 4.10336e-15 0)
(1 1.3894e-15 0)
(1 2.28886e-15 0)
(1 -3.92132e-16 0)
(1 1.73193e-15 0)
(1 7.68258e-16 0)
(1 9.80495e-16 0)
(1 1.05203e-16 0)
(1 7.51422e-17 0)
(1 -7.15552e-16 0)
(1 -1.11492e-15 0)
(1 -5.28369e-17 0)
(1 2.90522e-17 0)
(1 5.73539e-16 0)
(1 2.87141e-15 0)
(1 3.2261e-16 0)
(1 2.27184e-15 0)
(1 5.0502e-16 0)
(1 7.8777e-17 0)
(1 1.27031e-15 0)
(1 2.37194e-15 0)
(1 2.29747e-15 0)
(1 2.26678e-15 0)
(1 3.26331e-15 0)
(1 2.78452e-15 0)
(1 2.14378e-15 0)
(1 3.59457e-15 0)
(1 2.74429e-15 0)
(1 2.70833e-15 0)
(1 2.22233e-15 0)
(1 2.95145e-15 0)
(1 3.23785e-15 0)
(1 3.73458e-15 0)
(1 3.33294e-15 0)
(1 3.10611e-15 0)
(1 2.92855e-15 0)
(1 1.42181e-15 0)
(1 -9.99222e-16 0)
(1 -2.29977e-16 0)
(1 6.08516e-16 0)
(1 3.67085e-16 0)
(1 5.90402e-16 0)
(1 6.76518e-16 0)
(1 1.17885e-15 0)
(1 2.07621e-16 0)
(1 -3.52418e-16 0)
(1 9.81508e-17 0)
(1 -1.75122e-15 0)
(1 -1.5951e-15 0)
(1 -1.2934e-15 0)
(1 -8.79499e-17 0)
(1 1.74924e-15 0)
(1 2.3122e-15 0)
(1 6.60541e-16 0)
(1 2.55828e-15 0)
(1 4.76142e-16 0)
(1 -5.62538e-16 0)
(1 2.01896e-15 0)
(1 -1.48052e-17 0)
(1 8.70339e-16 0)
(1 6.26097e-16 0)
(1 1.8723e-16 0)
(1 2.21224e-15 0)
(1 9.69299e-16 0)
(1 1.76417e-15 0)
(1 1.65756e-15 0)
(1 6.04443e-16 0)
(1 2.03894e-15 0)
(1 9.98762e-16 0)
(1 1.57901e-15 0)
(1 7.32927e-16 0)
(1 3.4223e-16 0)
(1 3.07656e-16 0)
(1 5.32879e-16 0)
(1 -1.48242e-15 0)
(1 -1.69183e-15 0)
(1 1.13373e-15 0)
(1 -5.55084e-16 0)
(1 2.02998e-15 0)
(1 -4.68344e-17 0)
(1 2.79062e-15 0)
(1 1.87934e-15 0)
(1 1.24866e-15 0)
(1 1.84652e-16 0)
(1 2.21906e-15 0)
(1 1.89003e-15 0)
(1 2.07127e-15 0)
(1 3.14398e-15 0)
(1 1.18416e-15 0)
(1 1.62984e-15 0)
(1 2.59148e-15 0)
(1 1.99505e-15 0)
(1 3.51174e-15 0)
(1 1.20318e-15 0)
(1 6.69839e-16 0)
(1 1.98755e-16 0)
(1 1.11962e-15 0)
(1 3.09227e-15 0)
(1 2.32092e-15 0)
(1 2.02321e-15 0)
(1 -1.68243e-16 0)
(1 2.08439e-16 0)
(1 -7.09682e-17 0)
(1 1.25024e-15 0)
(1 1.43479e-15 0)
(1 4.6696e-16 0)
(1 5.97055e-17 0)
(1 1.24599e-15 0)
(1 -8.87873e-16 0)
(1 2.517e-15 0)
(1 -6.855e-17 0)
(1 -9.03026e-16 0)
(1 1.04048e-15 0)
(1 -7.74197e-16 0)
(1 1.8902e-15 0)
(1 2.45301e-15 0)
(1 2.43196e-15 0)
(1 5.36382e-16 0)
(1 -8.5175e-16 0)
(1 3.85624e-16 0)
(1 7.94918e-16 0)
(1 3.99104e-15 0)
(1 2.82373e-15 0)
(1 4.57096e-15 0)
(1 4.05504e-15 0)
(1 3.99835e-15 0)
(1 2.43572e-15 0)
(1 2.30535e-15 0)
(1 2.16774e-15 0)
(1 3.11291e-15 0)
(1 3.28542e-15 0)
(1 2.29203e-15 0)
(1 3.2726e-15 0)
(1 2.79525e-15 0)
(1 2.62654e-15 0)
(1 3.46422e-15 0)
(1 4.45229e-15 0)
(1 7.6061e-16 0)
(1 1.51906e-15 0)
(1 8.33748e-16 0)
(1 1.70134e-15 0)
(1 2.30385e-15 0)
(1 2.55991e-15 0)
(1 1.69003e-15 0)
(1 -7.46275e-16 0)
(1 8.33367e-16 0)
(1 -1.13806e-15 0)
(1 -6.54783e-16 0)
(1 1.19795e-15 0)
(1 9.71537e-17 0)
(1 2.73702e-16 0)
(1 1.31243e-15 0)
(1 1.59744e-15 0)
(1 1.29978e-15 0)
(1 1.28058e-15 0)
(1 1.58426e-15 0)
(1 2.34237e-16 0)
(1 4.41598e-16 0)
(1 1.60609e-17 0)
(1 3.13173e-16 0)
(1 2.08359e-15 0)
(1 1.30086e-15 0)
(1 2.17051e-15 0)
(1 1.10962e-15 0)
(1 1.94681e-15 0)
(1 8.6315e-16 0)
(1 1.71716e-15 0)
(1 1.67388e-15 0)
(1 2.51054e-15 0)
(1 1.73949e-15 0)
(1 2.37725e-15 0)
(1 5.31043e-16 0)
(1 -4.96592e-16 0)
(1 7.88892e-16 0)
(1 -7.54732e-16 0)
(1 -2.26854e-16 0)
(1 2.06042e-16 0)
(1 -2.93885e-17 0)
(1 3.1239e-15 0)
(1 2.54512e-15 0)
(1 1.0964e-15 0)
(1 1.37836e-15 0)
(1 -4.11046e-16 0)
(1 1.77263e-15 0)
(1 1.37885e-15 0)
(1 2.22792e-15 0)
(1 3.23515e-15 0)
(1 3.66186e-15 0)
(1 2.9007e-15 0)
(1 1.57968e-15 0)
(1 2.09635e-15 0)
(1 2.88076e-15 0)
(1 1.81185e-15 0)
(1 1.72013e-15 0)
(1 8.4659e-16 0)
(1 -1.02362e-15 0)
(1 1.73972e-15 0)
(1 2.29e-15 0)
(1 5.47914e-15 0)
(1 3.17232e-15 0)
(1 1.82916e-15 0)
(1 1.18756e-15 0)
(1 -6.39076e-17 0)
(1 2.14008e-15 0)
(1 -1.92645e-15 0)
(1 3.68861e-16 0)
(1 -1.27737e-15 0)
(1 1.16765e-15 0)
(1 -2.33445e-16 0)
(1 2.91493e-15 0)
(1 7.36126e-16 0)
(1 9.88658e-16 0)
(1 2.76662e-15 0)
(1 1.94671e-15 0)
(1 8.37786e-16 0)
(1 1.0365e-15 0)
(1 1.25988e-15 0)
(1 1.79007e-15 0)
(1 9.13959e-16 0)
(1 4.75218e-16 0)
(1 2.86989e-15 0)
(1 3.50946e-15 0)
(1 3.7928e-15 0)
(1 4.32402e-15 0)
(1 4.35105e-15 0)
(1 3.66869e-15 0)
(1 2.30167e-15 0)
(1 3.31095e-15 0)
(1 3.85751e-15 0)
(1 3.72934e-15 0)
(1 2.89495e-15 0)
(1 3.81301e-15 0)
(1 4.17023e-15 0)
(1 4.11454e-15 0)
(1 4.51104e-15 0)
(1 5.1272e-15 0)
(1 2.16576e-15 0)
(1 1.90559e-15 0)
(1 9.58013e-16 0)
(1 5.92814e-16 0)
(1 2.24425e-15 0)
(1 2.78558e-15 0)
(1 3.18379e-15 0)
(1 1.77369e-15 0)
(1 1.5899e-15 0)
(1 1.21481e-15 0)
(1 1.50526e-15 0)
(1 1.36069e-15 0)
(1 1.57558e-15 0)
(1 3.97527e-16 0)
(1 4.54582e-16 0)
(1 5.52204e-16 0)
(1 1.27866e-15 0)
(1 1.39646e-15 0)
(1 -8.30456e-16 0)
(1 1.01085e-15 0)
(1 1.84087e-15 0)
(1 1.8243e-15 0)
(1 1.49911e-15 0)
(1 1.66665e-15 0)
(1 5.30145e-16 0)
(1 5.16349e-16 0)
(1 -1.2162e-16 0)
(1 -1.18885e-16 0)
(1 6.39676e-16 0)
(1 1.17801e-15 0)
(1 2.24777e-15 0)
(1 2.09444e-15 0)
(1 2.65912e-15 0)
(1 2.52935e-15 0)
(1 3.48084e-15 0)
(1 2.27438e-15 0)
(1 8.58441e-16 0)
(1 -4.03993e-16 0)
(1 1.61191e-15 0)
(1 1.75759e-15 0)
(1 1.29224e-16 0)
(1 3.45348e-16 0)
(1 3.05498e-15 0)
(1 1.21974e-15 0)
(1 1.55558e-15 0)
(1 9.61008e-16 0)
(1 2.83928e-15 0)
(1 5.45634e-15 0)
(1 1.91828e-15 0)
(1 3.50252e-15 0)
(1 1.72611e-15 0)
(1 1.8813e-15 0)
(1 1.26083e-15 0)
(1 3.11124e-15 0)
(1 2.06827e-15 0)
(1 3.46626e-15 0)
(1 1.56671e-15 0)
(1 1.56404e-15 0)
(1 1.05785e-15 0)
(1 3.20062e-15 0)
(1 2.03043e-15 0)
(1 9.13801e-16 0)
(1 2.626e-15 0)
(1 -1.49385e-15 0)
(1 2.82763e-15 0)
(1 5.46262e-16 0)
(1 1.3455e-15 0)
(1 1.1353e-15 0)
(1 4.44454e-16 0)
(1 1.07704e-15 0)
(1 1.43956e-15 0)
(1 1.30094e-15 0)
(1 1.74788e-15 0)
(1 -5.52632e-16 0)
(1 3.37771e-16 0)
(1 2.10359e-15 0)
(1 3.11114e-16 0)
(1 2.2057e-15 0)
(1 -2.78229e-16 0)
(1 3.58196e-15 0)
(1 1.90139e-15 0)
(1 2.87085e-15 0)
(1 2.68371e-15 0)
(1 1.69589e-15 0)
(1 3.41585e-15 0)
(1 3.654e-15 0)
(1 4.54426e-15 0)
(1 2.20573e-15 0)
(1 4.43849e-15 0)
(1 3.22615e-15 0)
(1 2.97476e-15 0)
(1 3.62682e-15 0)
(1 3.93307e-15 0)
(1 3.99037e-15 0)
(1 3.1069e-15 0)
(1 3.68414e-15 0)
(1 5.06657e-15 0)
(1 5.20419e-15 0)
(1 4.82033e-15 0)
(1 4.56997e-15 0)
(1 2.73482e-15 0)
(1 3.66688e-15 0)
(1 2.02763e-15 0)
(1 2.23947e-15 0)
(1 1.39449e-15 0)
(1 9.84217e-16 0)
(1 9.08663e-16 0)
(1 2.37925e-15 0)
(1 2.036e-15 0)
(1 6.99887e-16 0)
(1 2.98064e-15 0)
(1 1.77923e-15 0)
(1 4.15464e-16 0)
(1 1.17385e-16 0)
(1 1.74048e-16 0)
(1 2.96161e-15 0)
(1 1.33222e-15 0)
(1 3.36366e-15 0)
(1 9.92684e-16 0)
(1 9.00239e-16 0)
(1 1.72333e-15 0)
(1 1.95894e-15 0)
(1 2.20433e-15 0)
(1 1.67174e-15 0)
(1 1.24248e-15 0)
(1 2.32847e-15 0)
(1 1.4942e-15 0)
(1 2.04633e-15 0)
(1 1.49299e-15 0)
(1 1.88476e-15 0)
(1 2.28644e-15 0)
(1 2.61526e-15 0)
(1 3.43921e-15 0)
(1 2.84352e-15 0)
(1 1.83691e-15 0)
(1 2.93809e-15 0)
(1 2.2585e-15 0)
(1 1.36607e-15 0)
(1 1.67036e-15 0)
(1 1.1356e-15 0)
(1 4.21411e-18 0)
(1 8.25582e-16 0)
(1 -6.71339e-16 0)
(1 1.73328e-15 0)
(1 2.65533e-15 0)
(1 2.68026e-15 0)
(1 3.01018e-15 0)
(1 3.8106e-15 0)
(1 4.85301e-15 0)
(1 4.74719e-15 0)
(1 2.85092e-15 0)
(1 6.30137e-16 0)
(1 2.2616e-15 0)
(1 2.62463e-15 0)
(1 2.76587e-15 0)
(1 4.26411e-15 0)
(1 2.96522e-15 0)
(1 4.12649e-15 0)
(1 1.22754e-15 0)
(1 3.24929e-15 0)
(1 2.10325e-15 0)
(1 8.43103e-17 0)
(1 1.21952e-15 0)
(1 -1.41672e-15 0)
(1 -2.60277e-15 0)
(1 -2.28765e-15 0)
(1 -1.74506e-16 0)
(1 6.45372e-16 0)
(1 3.78993e-15 0)
(1 3.95655e-15 0)
(1 4.15804e-15 0)
(1 1.21964e-15 0)
(1 1.61839e-15 0)
(1 -1.6398e-15 0)
(1 -1.48782e-15 0)
(1 7.33391e-16 0)
(1 -2.68303e-16 0)
(1 2.63808e-15 0)
(1 4.60105e-15 0)
(1 5.29529e-15 0)
(1 1.54958e-15 0)
(1 1.05545e-15 0)
(1 1.51662e-15 0)
(1 4.25031e-16 0)
(1 1.51354e-15 0)
(1 4.57198e-15 0)
(1 5.59938e-15 0)
(1 4.05546e-15 0)
(1 3.39628e-15 0)
(1 4.01355e-15 0)
(1 4.69893e-15 0)
(1 3.66346e-15 0)
(1 3.31366e-15 0)
(1 5.83096e-15 0)
(1 6.15936e-15 0)
(1 6.28743e-15 0)
(1 4.27086e-15 0)
(1 4.94816e-15 0)
(1 3.39458e-15 0)
(1 2.03284e-15 0)
(1 2.1213e-15 0)
(1 4.46476e-15 0)
(1 5.16367e-15 0)
(1 4.65197e-15 0)
(1 2.70227e-15 0)
(1 1.77836e-15 0)
(1 2.13936e-15 0)
(1 2.08537e-15 0)
(1 2.04259e-15 0)
(1 1.67488e-15 0)
(1 1.86882e-15 0)
(1 1.50934e-15 0)
(1 1.65644e-15 0)
(1 4.6363e-16 0)
(1 1.5164e-15 0)
(1 2.53462e-15 0)
(1 9.801e-16 0)
(1 1.45455e-15 0)
(1 8.39999e-16 0)
(1 4.30673e-16 0)
(1 1.96132e-15 0)
(1 1.04422e-15 0)
(1 2.2975e-15 0)
(1 1.25061e-15 0)
(1 1.26866e-15 0)
(1 2.46267e-15 0)
(1 2.49449e-15 0)
(1 2.32569e-15 0)
(1 2.38786e-15 0)
(1 1.09239e-15 0)
(1 2.33428e-15 0)
(1 2.54796e-15 0)
(1 4.03695e-15 0)
(1 3.33916e-15 0)
(1 2.32487e-15 0)
(1 2.65667e-15 0)
(1 1.28313e-15 0)
(1 1.90297e-15 0)
(1 2.24779e-15 0)
(1 2.60033e-15 0)
(1 -4.8266e-17 0)
(1 -2.81247e-16 0)
(1 -4.1142e-16 0)
(1 1.85626e-15 0)
(1 1.56652e-15 0)
(1 4.67566e-15 0)
(1 2.37354e-15 0)
(1 2.65899e-15 0)
(1 4.77258e-15 0)
(1 1.85553e-15 0)
(1 2.96303e-15 0)
(1 1.01573e-15 0)
(1 2.47931e-15 0)
(1 3.48549e-15 0)
(1 3.01525e-15 0)
(1 3.64834e-15 0)
(1 1.98733e-15 0)
(1 4.32468e-15 0)
(1 3.7898e-15 0)
(1 1.26953e-15 0)
(1 3.21707e-16 0)
(1 2.65075e-16 0)
(1 2.04945e-15 0)
(1 3.70749e-15 0)
(1 2.79085e-16 0)
(1 -7.9311e-16 0)
(1 1.87014e-16 0)
(1 5.0032e-16 0)
(1 2.23952e-15 0)
(1 2.45422e-15 0)
(1 1.58717e-15 0)
(1 -9.98623e-16 0)
(1 -3.5251e-16 0)
(1 -5.38391e-16 0)
(1 -8.175e-16 0)
(1 9.83216e-16 0)
(1 1.87123e-15 0)
(1 3.09185e-15 0)
(1 3.12888e-15 0)
(1 2.35747e-15 0)
(1 3.21024e-16 0)
(1 1.84216e-15 0)
(1 2.3782e-15 0)
(1 3.10004e-15 0)
(1 4.88963e-15 0)
(1 3.06903e-15 0)
(1 4.96907e-15 0)
(1 3.74619e-15 0)
(1 1.96148e-15 0)
(1 4.36871e-15 0)
(1 4.68622e-15 0)
(1 6.23494e-15 0)
(1 4.45202e-15 0)
(1 6.37583e-15 0)
(1 6.8783e-15 0)
(1 6.51088e-15 0)
(1 5.58499e-15 0)
(1 3.2057e-15 0)
(1 5.27642e-15 0)
(1 3.4946e-15 0)
(1 4.64107e-15 0)
(1 2.77941e-15 0)
(1 3.91752e-15 0)
(1 4.82387e-15 0)
(1 1.27272e-16 0)
(1 2.86161e-15 0)
(1 1.84423e-15 0)
(1 2.31338e-15 0)
(1 5.2527e-15 0)
(1 3.82007e-15 0)
(1 3.95093e-15 0)
(1 2.09293e-15 0)
(1 2.82485e-15 0)
(1 1.37441e-15 0)
(1 2.14769e-15 0)
(1 2.05876e-15 0)
(1 1.23927e-15 0)
(1 1.54999e-15 0)
(1 3.14706e-15 0)
(1 3.08399e-15 0)
(1 2.54963e-15 0)
(1 2.25956e-15 0)
(1 1.45733e-15 0)
(1 1.07379e-15 0)
(1 -1.7224e-16 0)
(1 -1.55881e-16 0)
(1 7.21687e-16 0)
(1 9.16193e-16 0)
(1 2.13059e-15 0)
(1 1.87628e-15 0)
(1 1.66994e-15 0)
(1 2.98178e-15 0)
(1 3.22974e-15 0)
(1 4.1538e-15 0)
(1 4.28522e-15 0)
(1 3.36856e-15 0)
(1 3.13019e-15 0)
(1 3.56481e-15 0)
(1 3.87964e-15 0)
(1 4.1971e-15 0)
(1 3.90958e-16 0)
(1 7.32563e-16 0)
(1 2.90356e-15 0)
(1 8.74205e-16 0)
(1 1.84794e-15 0)
(1 3.86568e-16 0)
(1 3.38706e-15 0)
(1 3.46344e-15 0)
(1 3.75986e-15 0)
(1 1.61573e-15 0)
(1 2.45399e-15 0)
(1 4.7691e-15 0)
(1 3.2555e-15 0)
(1 4.57245e-15 0)
(1 3.68697e-15 0)
(1 2.05396e-15 0)
(1 1.55379e-15 0)
(1 2.42352e-15 0)
(1 3.2768e-15 0)
(1 3.03728e-15 0)
(1 9.7836e-16 0)
(1 -2.08284e-16 0)
(1 -2.823e-15 0)
(1 1.65528e-15 0)
(1 2.0453e-15 0)
(1 2.22447e-15 0)
(1 4.20212e-16 0)
(1 2.50319e-15 0)
(1 1.7458e-15 0)
(1 5.85583e-16 0)
(1 -4.20262e-17 0)
(1 6.42654e-16 0)
(1 4.53831e-16 0)
(1 1.08894e-15 0)
(1 1.59086e-15 0)
(1 4.86487e-16 0)
(1 1.8187e-16 0)
(1 1.8043e-15 0)
(1 5.60128e-17 0)
(1 -5.45023e-17 0)
(1 2.40602e-15 0)
(1 3.66806e-15 0)
(1 4.18242e-15 0)
(1 4.34782e-15 0)
(1 4.78039e-15 0)
(1 1.82312e-15 0)
(1 2.63568e-15 0)
(1 3.47082e-15 0)
(1 3.46893e-15 0)
(1 5.15903e-15 0)
(1 3.32606e-15 0)
(1 3.87675e-15 0)
(1 6.1771e-15 0)
(1 5.74046e-15 0)
(1 7.40585e-15 0)
(1 6.82614e-15 0)
(1 5.51549e-15 0)
(1 2.46223e-15 0)
(1 4.97287e-15 0)
(1 5.9677e-15 0)
(1 6.29685e-15 0)
(1 4.72098e-15 0)
(1 2.68322e-15 0)
(1 3.77685e-15 0)
(1 2.46295e-15 0)
(1 1.83372e-15 0)
(1 3.66805e-15 0)
(1 3.25632e-15 0)
(1 5.44947e-15 0)
(1 5.03943e-15 0)
(1 4.07718e-15 0)
(1 1.84084e-15 0)
(1 1.22631e-15 0)
(1 1.90306e-15 0)
(1 2.03597e-15 0)
(1 9.69055e-16 0)
(1 1.51405e-15 0)
(1 1.53362e-15 0)
(1 3.73812e-15 0)
(1 2.15203e-15 0)
(1 2.27787e-15 0)
(1 1.50777e-15 0)
(1 9.74233e-16 0)
(1 1.24939e-15 0)
(1 1.78347e-16 0)
(1 2.1475e-15 0)
(1 2.91816e-15 0)
(1 3.0515e-15 0)
(1 1.59937e-15 0)
(1 2.17656e-15 0)
(1 2.92302e-15 0)
(1 2.94298e-15 0)
(1 2.22123e-15 0)
(1 1.73493e-15 0)
(1 5.36542e-15 0)
(1 2.20033e-15 0)
(1 4.29836e-15 0)
(1 4.03042e-15 0)
(1 4.41798e-15 0)
(1 4.29632e-15 0)
(1 1.64706e-16 0)
(1 9.92872e-16 0)
(1 2.05494e-15 0)
(1 1.44492e-15 0)
(1 1.12791e-15 0)
(1 -7.73018e-16 0)
(1 3.81315e-15 0)
(1 9.86726e-16 0)
(1 3.72357e-15 0)
(1 5.12739e-15 0)
(1 3.44037e-15 0)
(1 3.21746e-15 0)
(1 2.24645e-15 0)
(1 2.70508e-15 0)
(1 3.05548e-15 0)
(1 2.65081e-15 0)
(1 5.2369e-15 0)
(1 3.70323e-15 0)
(1 3.1928e-15 0)
(1 2.11544e-15 0)
(1 -2.50787e-16 0)
(1 -1.08443e-15 0)
(1 -3.37589e-15 0)
(1 -7.4252e-16 0)
(1 -1.22926e-15 0)
(1 4.18695e-15 0)
(1 2.4748e-15 0)
(1 3.56556e-15 0)
(1 1.33265e-15 0)
(1 2.30497e-16 0)
(1 -8.11485e-16 0)
(1 5.49278e-16 0)
(1 3.69405e-16 0)
(1 1.10894e-15 0)
(1 8.00987e-16 0)
(1 -1.03695e-15 0)
(1 1.32549e-15 0)
(1 6.963e-16 0)
(1 6.17385e-16 0)
(1 3.06108e-16 0)
(1 3.01374e-15 0)
(1 3.49625e-15 0)
(1 4.41665e-15 0)
(1 3.63183e-15 0)
(1 3.58214e-15 0)
(1 3.71795e-15 0)
(1 3.05131e-15 0)
(1 3.92308e-15 0)
(1 5.32638e-15 0)
(1 3.59194e-15 0)
(1 5.03408e-15 0)
(1 5.05596e-15 0)
(1 7.0569e-15 0)
(1 6.94891e-15 0)
(1 6.92679e-15 0)
(1 5.50043e-15 0)
(1 4.86514e-15 0)
(1 4.15142e-15 0)
(1 4.59278e-15 0)
(1 4.00073e-15 0)
(1 5.3245e-15 0)
(1 5.42291e-15 0)
(1 3.52364e-15 0)
(1 3.80681e-15 0)
(1 5.16742e-15 0)
(1 2.58095e-15 0)
(1 3.54811e-15 0)
(1 2.9294e-15 0)
(1 -2.37601e-17 0)
(1 2.72628e-15 0)
(1 2.91556e-15 0)
(1 4.64435e-15 0)
(1 2.81721e-15 0)
(1 1.61207e-15 0)
(1 8.61572e-16 0)
(1 4.72504e-17 0)
(1 4.34656e-15 0)
(1 1.91404e-15 0)
(1 1.30503e-15 0)
(1 3.95975e-15 0)
(1 4.08259e-15 0)
(1 2.88542e-15 0)
(1 3.31865e-15 0)
(1 1.19861e-15 0)
(1 6.68506e-16 0)
(1 1.17292e-15 0)
(1 1.65356e-15 0)
(1 5.49324e-16 0)
(1 6.59346e-16 0)
(1 1.09301e-15 0)
(1 4.91995e-15 0)
(1 2.40575e-15 0)
(1 2.85616e-15 0)
(1 2.07233e-15 0)
(1 3.99769e-15 0)
(1 3.14008e-15 0)
(1 3.34572e-15 0)
(1 3.0329e-15 0)
(1 3.22514e-15 0)
(1 3.15585e-15 0)
(1 3.69615e-16 0)
(1 8.92269e-16 0)
(1 8.58728e-16 0)
(1 2.13792e-15 0)
(1 4.38483e-16 0)
(1 4.16404e-15 0)
(1 1.60409e-15 0)
(1 2.20077e-15 0)
(1 1.63746e-15 0)
(1 3.57371e-15 0)
(1 4.19896e-15 0)
(1 2.64828e-15 0)
(1 3.87673e-15 0)
(1 3.26811e-15 0)
(1 3.99576e-15 0)
(1 1.66472e-15 0)
(1 2.64005e-15 0)
(1 4.70706e-16 0)
(1 4.24435e-15 0)
(1 -3.74801e-16 0)
(1 -3.00255e-16 0)
(1 1.38854e-15 0)
(1 1.74509e-15 0)
(1 3.79967e-16 0)
(1 1.63816e-15 0)
(1 2.30283e-15 0)
(1 2.76883e-15 0)
(1 1.54141e-15 0)
(1 1.4869e-15 0)
(1 -5.52613e-16 0)
(1 1.1227e-16 0)
(1 -3.83376e-16 0)
(1 -1.5932e-15 0)
(1 -1.01094e-15 0)
(1 -6.4957e-16 0)
(1 1.93943e-16 0)
(1 1.58445e-16 0)
(1 1.60892e-17 0)
(1 1.6178e-15 0)
(1 2.82348e-15 0)
(1 4.20966e-15 0)
(1 3.77306e-15 0)
(1 2.65517e-15 0)
(1 4.78155e-15 0)
(1 3.23083e-15 0)
(1 2.8534e-15 0)
(1 3.86602e-15 0)
(1 1.4239e-15 0)
(1 5.59471e-15 0)
(1 3.87854e-15 0)
(1 5.54887e-15 0)
(1 6.09198e-15 0)
(1 6.19096e-15 0)
(1 6.88636e-15 0)
(1 5.7194e-15 0)
(1 2.19231e-15 0)
(1 4.22588e-15 0)
(1 4.82798e-15 0)
(1 4.87973e-15 0)
(1 3.58209e-15 0)
(1 5.86811e-15 0)
(1 6.21925e-15 0)
(1 6.66502e-15 0)
(1 3.73819e-15 0)
(1 4.60225e-15 0)
(1 4.44437e-15 0)
(1 2.02131e-15 0)
(1 2.87331e-15 0)
(1 1.11865e-15 0)
(1 1.60295e-15 0)
(1 3.45492e-15 0)
(1 3.14098e-15 0)
(1 9.5459e-16 0)
(1 7.09924e-16 0)
(1 8.0276e-16 0)
(1 4.36231e-17 0)
(1 1.71627e-15 0)
(1 2.28939e-15 0)
(1 1.92548e-15 0)
(1 4.89312e-15 0)
(1 3.74617e-15 0)
(1 3.0944e-15 0)
(1 3.4708e-15 0)
(1 1.03749e-15 0)
(1 2.72225e-15 0)
(1 1.26012e-15 0)
(1 1.35558e-16 0)
(1 7.02559e-16 0)
(1 1.98693e-15 0)
(1 2.8325e-15 0)
(1 2.82047e-15 0)
(1 1.25565e-15 0)
(1 2.10489e-15 0)
(1 3.09871e-15 0)
(1 3.34157e-15 0)
(1 5.00553e-15 0)
(1 3.89431e-15 0)
(1 3.73376e-15 0)
(1 2.12275e-15 0)
(1 1.18691e-15 0)
(1 1.854e-16 0)
(1 1.51895e-15 0)
(1 -2.75897e-17 0)
(1 -2.90754e-16 0)
(1 2.16464e-15 0)
(1 1.71549e-15 0)
(1 9.66599e-16 0)
(1 3.06769e-15 0)
(1 2.16294e-15 0)
(1 4.11391e-15 0)
(1 3.7689e-15 0)
(1 2.47071e-15 0)
(1 3.19141e-15 0)
(1 2.70861e-15 0)
(1 3.81633e-15 0)
(1 1.92523e-15 0)
(1 8.54595e-16 0)
(1 3.09898e-15 0)
(1 5.18222e-15 0)
(1 3.41646e-15 0)
(1 2.38538e-15 0)
(1 1.55566e-15 0)
(1 -2.61456e-15 0)
(1 -2.6684e-15 0)
(1 3.5669e-16 0)
(1 1.35006e-16 0)
(1 1.97818e-15 0)
(1 1.16842e-15 0)
(1 2.46399e-15 0)
(1 1.13521e-17 0)
(1 -1.47457e-15 0)
(1 -1.77109e-15 0)
(1 -2.43093e-15 0)
(1 -2.71637e-15 0)
(1 1.65735e-15 0)
(1 -1.34907e-17 0)
(1 1.37749e-15 0)
(1 -6.92388e-16 0)
(1 2.18287e-15 0)
(1 3.56381e-15 0)
(1 4.49221e-15 0)
(1 3.2912e-15 0)
(1 2.00546e-15 0)
(1 4.07713e-15 0)
(1 2.33792e-15 0)
(1 4.47116e-15 0)
(1 3.87077e-15 0)
(1 4.47168e-15 0)
(1 3.53503e-15 0)
(1 5.02619e-15 0)
(1 5.43037e-15 0)
(1 4.60313e-15 0)
(1 5.71697e-15 0)
(1 5.82432e-15 0)
(1 4.93254e-15 0)
(1 5.73404e-15 0)
(1 4.69357e-15 0)
(1 4.87929e-15 0)
(1 2.11374e-15 0)
(1 3.77907e-15 0)
(1 2.33297e-15 0)
(1 3.93392e-15 0)
(1 4.80241e-15 0)
(1 4.51858e-15 0)
(1 6.11263e-15 0)
(1 5.44861e-15 0)
(1 4.16171e-15 0)
(1 2.91419e-15 0)
(1 3.19275e-15 0)
(1 1.59307e-15 0)
(1 -1.48586e-15 0)
(1 3.34287e-16 0)
(1 1.46093e-15 0)
(1 3.16478e-15 0)
(1 2.63324e-15 0)
(1 2.16123e-15 0)
(1 -6.95759e-16 0)
(1 1.86058e-15 0)
(1 2.94867e-15 0)
(1 7.50244e-16 0)
(1 1.14007e-15 0)
(1 2.05495e-15 0)
(1 2.08664e-15 0)
(1 2.76304e-15 0)
(1 3.14538e-15 0)
(1 1.97735e-15 0)
(1 1.6699e-15 0)
(1 2.96239e-15 0)
(1 2.77527e-15 0)
(1 3.39107e-15 0)
(1 8.02662e-16 0)
(1 1.82748e-15 0)
(1 1.63426e-15 0)
(1 1.9266e-15 0)
(1 2.79261e-15 0)
(1 3.00771e-15 0)
(1 2.17538e-15 0)
(1 2.50713e-15 0)
(1 1.58714e-15 0)
(1 8.02494e-16 0)
(1 2.98462e-18 0)
(1 1.08574e-15 0)
(1 1.07422e-15 0)
(1 2.90354e-16 0)
(1 1.88116e-15 0)
(1 3.68121e-16 0)
(1 1.67193e-15 0)
(1 1.882e-15 0)
(1 4.49462e-15 0)
(1 5.91179e-15 0)
(1 4.19059e-15 0)
(1 2.97101e-15 0)
(1 1.30067e-15 0)
(1 6.16482e-16 0)
(1 1.14568e-15 0)
(1 4.43117e-15 0)
(1 2.50137e-15 0)
(1 4.1619e-15 0)
(1 -5.16308e-16 0)
(1 2.42094e-15 0)
(1 1.34072e-15 0)
(1 2.74324e-15 0)
(1 -1.66221e-15 0)
(1 1.02067e-16 0)
(1 -9.37142e-16 0)
(1 1.38734e-15 0)
(1 1.49684e-15 0)
(1 3.6398e-16 0)
(1 1.66768e-15 0)
(1 -6.47565e-16 0)
(1 -1.27218e-15 0)
(1 -4.38398e-15 0)
(1 -2.00346e-15 0)
(1 -1.64406e-15 0)
(1 -1.2412e-15 0)
(1 1.28125e-15 0)
(1 2.57407e-15 0)
(1 8.18862e-16 0)
(1 2.53883e-15 0)
(1 1.26935e-15 0)
(1 1.14549e-15 0)
(1 1.86568e-15 0)
(1 4.86159e-15 0)
(1 3.21603e-15 0)
(1 3.99906e-15 0)
(1 5.05868e-15 0)
(1 2.47249e-15 0)
(1 5.65625e-15 0)
(1 1.9351e-15 0)
(1 3.11408e-15 0)
(1 1.43344e-15 0)
(1 3.49272e-15 0)
(1 6.23964e-15 0)
(1 6.19937e-15 0)
(1 4.48765e-15 0)
(1 8.05755e-15 0)
(1 5.31063e-15 0)
(1 5.33558e-15 0)
(1 3.92621e-15 0)
(1 5.14836e-15 0)
(1 3.9932e-15 0)
(1 2.7242e-15 0)
(1 3.16155e-15 0)
(1 6.02804e-15 0)
(1 3.13537e-15 0)
(1 4.58378e-15 0)
(1 4.6271e-15 0)
(1 3.49692e-15 0)
(1 2.27205e-15 0)
(1 1.36865e-15 0)
(1 -1.1859e-15 0)
(1 3.26719e-15 0)
(1 2.25741e-15 0)
(1 3.26167e-15 0)
(1 1.87653e-15 0)
(1 3.5815e-15 0)
(1 1.43327e-15 0)
(1 2.69e-15 0)
(1 1.9976e-15 0)
(1 -1.52633e-16 0)
(1 1.80899e-15 0)
(1 1.62264e-15 0)
(1 4.22369e-16 0)
(1 2.57554e-15 0)
(1 2.07996e-15 0)
(1 2.18119e-15 0)
(1 1.81572e-15 0)
(1 2.96036e-15 0)
(1 1.79601e-15 0)
(1 2.53375e-15 0)
(1 2.37222e-15 0)
(1 2.36216e-15 0)
(1 1.86537e-15 0)
(1 2.79723e-15 0)
(1 1.63733e-15 0)
(1 2.60425e-15 0)
(1 1.82349e-15 0)
(1 2.54347e-15 0)
(1 1.56637e-15 0)
(1 1.52297e-15 0)
(1 1.43565e-17 0)
(1 1.21857e-15 0)
(1 4.6646e-16 0)
(1 9.08687e-16 0)
(1 9.06619e-16 0)
(1 2.27069e-15 0)
(1 7.04858e-16 0)
(1 1.4675e-15 0)
(1 3.57264e-15 0)
(1 1.57958e-15 0)
(1 5.65902e-15 0)
(1 4.77366e-15 0)
(1 4.14866e-15 0)
(1 6.14824e-16 0)
(1 9.69778e-16 0)
(1 2.73756e-15 0)
(1 8.62665e-16 0)
(1 1.47708e-15 0)
(1 -2.47273e-15 0)
(1 2.17487e-15 0)
(1 2.91205e-15 0)
(1 1.714e-15 0)
(1 2.9715e-15 0)
(1 2.03183e-16 0)
(1 -9.84282e-16 0)
(1 -1.36688e-15 0)
(1 -1.39091e-15 0)
(1 -8.25641e-16 0)
(1 -3.33227e-16 0)
(1 -9.15631e-16 0)
(1 -1.24138e-15 0)
(1 -1.36165e-15 0)
(1 -3.9126e-16 0)
(1 -4.46175e-16 0)
(1 -1.42985e-15 0)
(1 1.35239e-15 0)
(1 -2.87308e-16 0)
(1 1.15215e-15 0)
(1 2.08653e-15 0)
(1 -1.81178e-16 0)
(1 -3.69546e-16 0)
(1 1.25473e-15 0)
(1 3.82942e-15 0)
(1 1.95999e-15 0)
(1 4.06989e-15 0)
(1 3.04027e-15 0)
(1 1.50212e-15 0)
(1 3.00064e-15 0)
(1 2.40752e-15 0)
(1 2.7362e-15 0)
(1 3.59735e-15 0)
(1 5.36662e-15 0)
(1 6.89304e-15 0)
(1 6.58592e-15 0)
(1 7.34942e-15 0)
(1 6.35135e-15 0)
(1 4.34661e-15 0)
(1 5.46008e-15 0)
(1 3.92506e-15 0)
(1 3.2954e-15 0)
(1 4.63471e-15 0)
(1 3.19154e-15 0)
(1 5.50027e-15 0)
(1 3.48776e-15 0)
(1 4.14914e-15 0)
(1 4.01305e-15 0)
(1 4.27516e-15 0)
(1 3.66262e-15 0)
(1 3.81339e-15 0)
(1 2.98951e-15 0)
(1 3.93404e-15 0)
(1 1.37684e-15 0)
(1 1.9954e-16 0)
(1 1.20774e-15 0)
(1 1.33304e-15 0)
(1 1.97117e-15 0)
(1 1.76594e-15 0)
(1 2.07128e-15 0)
(1 3.0141e-16 0)
(1 3.65902e-16 0)
(1 2.17206e-15 0)
(1 1.08541e-15 0)
(1 7.54496e-16 0)
(1 1.48616e-15 0)
(1 1.89948e-15 0)
(1 2.85467e-15 0)
(1 1.79853e-15 0)
(1 2.7703e-15 0)
(1 1.98025e-15 0)
(1 1.0371e-15 0)
(1 1.33177e-15 0)
(1 9.16217e-16 0)
(1 1.67769e-15 0)
(1 2.74269e-15 0)
(1 1.89422e-15 0)
(1 1.68684e-15 0)
(1 5.36448e-16 0)
(1 2.01153e-15 0)
(1 2.94111e-15 0)
(1 2.8853e-15 0)
(1 -2.47485e-16 0)
(1 1.2e-15 0)
(1 4.71953e-16 0)
(1 1.06943e-15 0)
(1 3.2935e-15 0)
(1 2.68788e-15 0)
(1 3.80706e-15 0)
(1 2.966e-15 0)
(1 2.589e-15 0)
(1 8.89731e-17 0)
(1 1.75481e-15 0)
(1 1.84792e-15 0)
(1 3.47738e-15 0)
(1 2.44501e-15 0)
(1 7.83388e-16 0)
(1 1.57834e-16 0)
(1 1.54035e-15 0)
(1 1.53801e-15 0)
(1 3.46445e-15 0)
(1 -7.85929e-16 0)
(1 -2.82633e-16 0)
(1 -1.83893e-15 0)
(1 3.48826e-15 0)
(1 -3.41027e-16 0)
(1 -1.10889e-15 0)
(1 -1.83015e-15 0)
(1 -1.31598e-15 0)
(1 -4.77723e-16 0)
(1 -3.45629e-15 0)
(1 -9.28365e-16 0)
(1 -3.72612e-15 0)
(1 7.89476e-16 0)
(1 -1.61155e-15 0)
(1 -3.51849e-16 0)
(1 -3.31008e-16 0)
(1 -5.81249e-16 0)
(1 -2.13275e-16 0)
(1 -5.29803e-16 0)
(1 -1.31915e-16 0)
(1 6.09149e-16 0)
(1 1.41046e-15 0)
(1 7.30092e-16 0)
(1 5.83021e-16 0)
(1 3.73844e-15 0)
(1 3.35718e-15 0)
(1 3.56753e-15 0)
(1 2.53976e-15 0)
(1 1.93338e-15 0)
(1 1.15272e-15 0)
(1 6.39509e-16 0)
(1 5.69376e-15 0)
(1 7.66455e-15 0)
(1 6.1819e-15 0)
(1 5.46073e-15 0)
(1 7.00195e-15 0)
(1 4.35567e-15 0)
(1 4.13097e-15 0)
(1 4.68518e-15 0)
(1 3.49402e-15 0)
(1 2.44296e-15 0)
(1 1.94713e-15 0)
(1 3.69717e-15 0)
(1 3.4986e-15 0)
(1 2.2799e-15 0)
(1 5.50942e-15 0)
(1 1.55117e-15 0)
(1 1.74708e-15 0)
(1 1.57404e-15 0)
(1 3.02209e-15 0)
(1 3.268e-15 0)
(1 2.29976e-15 0)
(1 -3.80554e-16 0)
(1 1.1338e-15 0)
(1 1.75372e-15 0)
(1 1.08863e-15 0)
(1 1.86665e-15 0)
(1 1.62895e-15 0)
(1 1.89835e-15 0)
(1 9.49112e-16 0)
(1 2.08152e-15 0)
(1 -7.88373e-16 0)
(1 3.02918e-16 0)
(1 1.15159e-15 0)
(1 1.48563e-15 0)
(1 1.83521e-15 0)
(1 1.85661e-15 0)
(1 2.02186e-15 0)
(1 3.19247e-15 0)
(1 2.56314e-15 0)
(1 1.78294e-15 0)
(1 3.94009e-17 0)
(1 5.64437e-16 0)
(1 1.2431e-15 0)
(1 1.22424e-15 0)
(1 6.70554e-16 0)
(1 7.35044e-16 0)
(1 9.08484e-16 0)
(1 9.62155e-16 0)
(1 2.76687e-15 0)
(1 2.43762e-15 0)
(1 -1.33156e-16 0)
(1 5.83028e-16 0)
(1 1.4697e-15 0)
(1 2.79467e-15 0)
(1 3.0553e-15 0)
(1 1.64501e-15 0)
(1 3.33696e-15 0)
(1 3.13738e-15 0)
(1 2.34916e-15 0)
(1 2.08998e-15 0)
(1 1.67381e-16 0)
(1 -8.59848e-16 0)
(1 7.2716e-16 0)
(1 2.05127e-15 0)
(1 7.1191e-16 0)
(1 1.08767e-15 0)