/*--------------------------------*- C++ -*----------------------------------*\
| =========                 |                                                 |
| \\      /  F ield         | OpenFOAM: The Open Source CFD Toolbox           |
|  \\    /   O peration     | Version:  v2012                                 |
|   \\  /    A nd           | Website:  www.openfoam.com                      |
|    \\/     M anipulation  |                                                 |
\*---------------------------------------------------------------------------*/
FoamFile
{
    version     2.0;
    format      ascii;
    class       volScalarField;
    location    "2.5";
    object      Psi_z;
}
// * * * * * * * * * * * * * * * * * * * * * * * * * * * * * * * * * * * * * //

dimensions      [0 2 -1 0 0 0 0];


internalField   nonuniform List<scalar> 
65536
(
8.73129e-06
2.61934e-05
4.36539e-05
6.11119e-05
7.8566e-05
9.60154e-05
0.000113459
0.000130895
0.000148323
0.000165741
0.000183149
0.000200545
0.000217927
0.000235296
0.000252649
0.000269984
0.000287301
0.000304599
0.000321875
0.000339129
0.000356358
0.000373561
0.000390737
0.000407884
0.000424999
0.000442082
0.00045913
0.000476142
0.000493115
0.000510048
0.000526938
0.000543783
0.000560581
0.00057733
0.000594027
0.000610671
0.000627257
0.000643785
0.000660251
0.000676652
0.000692986
0.000709251
0.000725442
0.000741558
0.000757594
0.000773549
0.000789419
0.000805201
0.000820891
0.000836486
0.000851983
0.000867379
0.000882669
0.000897851
0.00091292
0.000927874
0.000942708
0.000957419
0.000972003
0.000986456
0.00100078
0.00101496
0.00102899
0.00104289
0.00105663
0.00107022
0.00108365
0.00109692
0.00111002
0.00112295
0.00113571
0.0011483
0.0011607
0.00117292
0.00118495
0.00119678
0.00120842
0.00121986
0.0012311
0.00124213
0.00125295
0.00126356
0.00127395
0.00128412
0.00129407
0.00130379
0.00131327
0.00132253
0.00133155
0.00134033
0.00134888
0.00135717
0.00136523
0.00137303
0.00138058
0.00138788
0.00139493
0.00140172
0.00140825
0.00141452
0.00142052
0.00142627
0.00143175
0.00143696
0.00144191
0.00144659
0.00145101
0.00145515
0.00145902
0.00146263
0.00146596
0.00146902
0.00147181
0.00147434
0.00147659
0.00147857
0.00148028
0.00148172
0.00148289
0.0014838
0.00148444
0.00148481
0.00148491
0.00148475
0.00148433
0.00148365
0.0014827
0.0014815
0.00148004
0.00147832
0.00147635
0.00147412
0.00147165
0.00146892
0.00146595
0.00146273
0.00145927
0.00145556
0.00145162
0.00144744
0.00144303
0.00143838
0.0014335
0.00142839
0.00142306
0.0014175
0.00141172
0.00140573
0.00139952
0.00139309
0.00138645
0.0013796
0.00137255
0.00136529
0.00135784
0.00135018
0.00134232
0.00133428
0.00132604
0.00131761
0.001309
0.00130021
0.00129123
0.00128208
0.00127276
0.00126326
0.00125359
0.00124375
0.00123375
0.00122359
0.00121327
0.00120279
0.00119216
0.00118138
0.00117046
0.00115938
0.00114816
0.00113681
0.00112531
0.00111368
0.00110192
0.00109003
0.00107801
0.00106587
0.00105361
0.00104123
0.00102873
0.00101612
0.00100339
0.000990559
0.00097762
0.000964577
0.000951433
0.000938191
0.000924851
0.000911418
0.000897894
0.00088428
0.000870579
0.000856794
0.000842927
0.00082898
0.000814955
0.000800855
0.000786681
0.000772436
0.000758123
0.000743742
0.000729297
0.000714789
0.00070022
0.000685592
0.000670908
0.000656168
0.000641375
0.000626531
0.000611638
0.000596697
0.00058171
0.000566678
0.000551605
0.00053649
0.000521336
0.000506144
0.000490915
0.000475652
0.000460356
0.000445028
0.000429669
0.000414281
0.000398866
0.000383424
0.000367957
0.000352466
0.000336952
0.000321417
0.000305862
0.000290287
0.000274695
0.000259086
0.000243461
0.000227821
0.000212167
0.000196501
0.000180823
0.000165135
0.000149437
0.00013373
0.000118015
0.000102294
8.6566e-05
7.08336e-05
5.5097e-05
3.93573e-05
2.36153e-05
7.87191e-06
2.61944e-05
7.85816e-05
0.000130964
0.000183339
0.000235703
0.000288052
0.000340383
0.000392693
0.000444977
0.000497234
0.000549458
0.000601647
0.000653796
0.000705903
0.000757962
0.000809971
0.000861924
0.000913818
0.000965648
0.00101741
0.0010691
0.00112071
0.00117224
0.00122368
0.00127503
0.00132628
0.00137743
0.00142846
0.00147939
0.00153019
0.00158086
0.0016314
0.00168179
0.00173204
0.00178214
0.00183207
0.00188183
0.00193142
0.00198082
0.00203002
0.00207903
0.00212782
0.0021764
0.00222475
0.00227286
0.00232073
0.00236835
0.00241569
0.00246277
0.00250956
0.00255605
0.00260224
0.00264812
0.00269366
0.00273888
0.00278374
0.00282825
0.00287238
0.00291614
0.0029595
0.00300246
0.00304501
0.00308713
0.00312881
0.00317004
0.00321081
0.0032511
0.00329091
0.00333023
0.00336903
0.00340732
0.00344507
0.00348228
0.00351894
0.00355503
0.00359054
0.00362547
0.0036598
0.00369351
0.00372661
0.00375908
0.0037909
0.00382207
0.00385258
0.00388243
0.00391159
0.00394006
0.00396783
0.00399489
0.00402125
0.00404687
0.00407177
0.00409593
0.00411934
0.004142
0.0041639
0.00418504
0.00420541
0.004225
0.00424381
0.00426183
0.00427907
0.00429551
0.00431116
0.004326
0.00434005
0.00435328
0.00436571
0.00437734
0.00438815
0.00439815
0.00440734
0.00441571
0.00442328
0.00443003
0.00443597
0.00444111
0.00444543
0.00444895
0.00445166
0.00445357
0.00445469
0.004455
0.00445453
0.00445326
0.00445121
0.00444837
0.00444476
0.00444037
0.00443522
0.0044293
0.00442262
0.00441519
0.00440701
0.00439809
0.00438843
0.00437804
0.00436693
0.0043551
0.00434256
0.00432931
0.00431536
0.00430073
0.0042854
0.0042694
0.00425273
0.0042354
0.0042174
0.00419876
0.00417948
0.00415956
0.00413902
0.00411786
0.00409608
0.00407371
0.00405073
0.00402717
0.00400303
0.00397831
0.00395303
0.0039272
0.00390081
0.00387388
0.00384643
0.00381844
0.00378994
0.00376093
0.00373142
0.00370142
0.00367093
0.00363997
0.00360854
0.00357665
0.0035443
0.00351151
0.00347829
0.00344463
0.00341056
0.00337608
0.00334119
0.0033059
0.00327023
0.00323417
0.00319774
0.00316095
0.0031238
0.0030863
0.00304846
0.00301029
0.00297179
0.00293297
0.00289384
0.0028544
0.00281467
0.00277465
0.00273435
0.00269377
0.00265293
0.00261183
0.00257047
0.00252886
0.00248702
0.00244494
0.00240264
0.00236012
0.00231738
0.00227444
0.00223129
0.00218796
0.00214443
0.00210072
0.00205684
0.00201278
0.00196856
0.00192418
0.00187965
0.00183496
0.00179014
0.00174518
0.00170008
0.00165486
0.00160951
0.00156405
0.00151847
0.00147278
0.00142699
0.0013811
0.00133511
0.00128904
0.00124287
0.00119662
0.0011503
0.0011039
0.00105742
0.00101088
0.000964273
0.000917606
0.000870881
0.000824103
0.000777274
0.000730398
0.000683477
0.000636515
0.000589516
0.000542481
0.000495415
0.000448319
0.000401197
0.000354052
0.000306887
0.000259703
0.000212505
0.000165294
0.000118074
7.08472e-05
2.36162e-05
4.36591e-05
0.000130975
0.000218283
0.000305578
0.000392854
0.000480107
0.000567329
0.000654516
0.000741661
0.000828759
0.000915804
0.00100279
0.00108971
0.00117656
0.00126333
0.00135001
0.00143661
0.0015231
0.00160949
0.00169577
0.00178192
0.00186794
0.00195383
0.00203957
0.00212516
0.00221058
0.00229583
0.0023809
0.00246578
0.00255045
0.00263491
0.00271915
0.00280315
0.00288691
0.00297041
0.00305364
0.00313658
0.00321924
0.00330158
0.0033836
0.00346528
0.00354662
0.00362759
0.00370818
0.00378838
0.00386817
0.00394754
0.00402646
0.00410493
0.00418292
0.00426043
0.00433742
0.00441389
0.00448982
0.00456518
0.00463997
0.00471416
0.00478773
0.00486067
0.00493296
0.00500457
0.00507549
0.0051457
0.00521518
0.00528391
0.00535187
0.00541904
0.00548541
0.00555095
0.00561563
0.00567946
0.00574239
0.00580443
0.00586553
0.0059257
0.0059849
0.00604312
0.00610035
0.00615655
0.00621172
0.00626584
0.0063189
0.00637086
0.00642173
0.00647147
0.00652008
0.00656754
0.00661384
0.00665896
0.00670288
0.00674561
0.00678711
0.00682738
0.00686641
0.00690418
0.00694069
0.00697593
0.00700988
0.00704254
0.00707389
0.00710394
0.00713267
0.00716008
0.00718616
0.00721091
0.00723431
0.00725638
0.0072771
0.00729647
0.00731449
0.00733116
0.00734647
0.00736043
0.00737304
0.00738429
0.00739419
0.00740275
0.00740995
0.00741582
0.00742034
0.00742352
0.00742537
0.00742589
0.00742509
0.00742298
0.00741955
0.00741482
0.0074088
0.00740148
0.00739288
0.00738301
0.00737188
0.00735949
0.00734585
0.00733098
0.00731487
0.00729755
0.00727903
0.0072593
0.00723839
0.0072163
0.00719305
0.00716864
0.0071431
0.00711642
0.00708863
0.00705973
0.00702973
0.00699866
0.00696651
0.00693331
0.00689906
0.00686378
0.00682748
0.00679018
0.00675188
0.0067126
0.00667235
0.00663115
0.00658901
0.00654594
0.00650196
0.00645707
0.0064113
0.00636465
0.00631714
0.00626878
0.00621959
0.00616958
0.00611876
0.00606714
0.00601475
0.00596159
0.00590767
0.00585301
0.00579763
0.00574153
0.00568473
0.00562725
0.00556909
0.00551027
0.0054508
0.0053907
0.00532998
0.00526865
0.00520673
0.00514422
0.00508114
0.00501751
0.00495334
0.00488863
0.0048234
0.00475767
0.00469144
0.00462474
0.00455756
0.00448992
0.00442184
0.00435333
0.00428439
0.00421504
0.0041453
0.00407516
0.00400465
0.00393377
0.00386253
0.00379096
0.00371904
0.00364681
0.00357426
0.0035014
0.00342825
0.00335482
0.00328111
0.00320714
0.00313291
0.00305843
0.00298372
0.00290878
0.00283361
0.00275823
0.00268265
0.00260687
0.0025309
0.00245476
0.00237843
0.00230194
0.00222529
0.00214849
0.00207155
0.00199446
0.00191725
0.00183991
0.00176245
0.00168487
0.00160719
0.00152941
0.00145153
0.00137356
0.00129551
0.00121738
0.00113918
0.0010609
0.000982566
0.000904172
0.000825724
0.000747228
0.000668689
0.000590111
0.000511498
0.000432856
0.000354189
0.000275501
0.000196798
0.000118083
3.93619e-05
6.11266e-05
0.000183376
0.000305615
0.000427836
0.000550031
0.000672192
0.000794311
0.000916381
0.00103839
0.00116034
0.00128221
0.001404
0.0015257
0.00164729
0.00176878
0.00189015
0.00201139
0.00213249
0.00225345
0.00237425
0.00249487
0.00261532
0.00273557
0.00285562
0.00297546
0.00309506
0.00321443
0.00333354
0.00345238
0.00357094
0.0036892
0.00380715
0.00392477
0.00404204
0.00415896
0.00427549
0.00439164
0.00450737
0.00462267
0.00473751
0.00485189
0.00496578
0.00507917
0.00519202
0.00530432
0.00541605
0.00552718
0.0056377
0.00574758
0.00585679
0.00596532
0.00607314
0.00618022
0.00628654
0.00639208
0.00649681
0.0066007
0.00670373
0.00680587
0.00690709
0.00700738
0.00710669
0.00720502
0.00730232
0.00739857
0.00749374
0.00758781
0.00768074
0.00777252
0.00786311
0.00795249
0.00804063
0.0081275
0.00821308
0.00829734
0.00838024
0.00846178
0.00854192
0.00862063
0.0086979
0.00877369
0.00884799
0.00892076
0.00899199
0.00906166
0.00912974
0.0091962
0.00926104
0.00932422
0.00938574
0.00944557
0.00950369
0.00956008
0.00961474
0.00966764
0.00971877
0.00976811
0.00981565
0.00986139
0.0099053
0.00994737
0.00998761
0.010026
0.0100625
0.0100972
0.0101299
0.0101608
0.0101898
0.010217
0.0102422
0.0102655
0.010287
0.0103065
0.0103242
0.0103399
0.0103538
0.0103657
0.0103758
0.010384
0.0103904
0.0103948
0.0103974
0.0103981
0.010397
0.010394
0.0103892
0.0103826
0.0103741
0.0103639
0.0103518
0.010338
0.0103224
0.010305
0.0102859
0.0102651
0.0102425
0.0102183
0.0101923
0.0101647
0.0101354
0.0101045
0.0100719
0.0100377
0.0100019
0.00996457
0.00992564
0.00988517
0.00984316
0.00979963
0.00975461
0.00970811
0.00966015
0.00961074
0.0095599
0.00950766
0.00945402
0.00939901
0.00934265
0.00928495
0.00922593
0.00916561
0.00910402
0.00904116
0.00897706
0.00891173
0.0088452
0.00877748
0.00870859
0.00863856
0.00856739
0.00849511
0.00842174
0.00834729
0.00827179
0.00819525
0.00811769
0.00803914
0.0079596
0.0078791
0.00779766
0.0077153
0.00763202
0.00754787
0.00746284
0.00737696
0.00729024
0.00720272
0.00711439
0.00702529
0.00693542
0.00684482
0.00675348
0.00666144
0.00656871
0.0064753
0.00638123
0.00628653
0.0061912
0.00609526
0.00599873
0.00590163
0.00580397
0.00570576
0.00560703
0.00550778
0.00540804
0.00530781
0.00520712
0.00510598
0.00500439
0.00490238
0.00479996
0.00469714
0.00459394
0.00449036
0.00438643
0.00428215
0.00417754
0.0040726
0.00396736
0.00386182
0.00375599
0.00364989
0.00354352
0.00343691
0.00333004
0.00322295
0.00311563
0.0030081
0.00290037
0.00279244
0.00268433
0.00257604
0.00246759
0.00235897
0.00225021
0.00214131
0.00203227
0.00192311
0.00181383
0.00170444
0.00159494
0.00148535
0.00137568
0.00126592
0.00115608
0.00104618
0.00093622
0.000826204
0.000716139
0.000606034
0.000495893
0.000385724
0.000275533
0.000165326
5.51098e-05
7.85981e-05
0.00023579
0.000392967
0.000550122
0.000707243
0.00086432
0.00102134
0.0011783
0.00133519
0.00149199
0.0016487
0.0018053
0.00196178
0.00211814
0.00227435
0.00243042
0.00258632
0.00274204
0.00289757
0.0030529
0.00320801
0.00336289
0.00351752
0.00367189
0.00382599
0.00397979
0.00413328
0.00428645
0.00443927
0.00459173
0.0047438
0.00489548
0.00504673
0.00519754
0.00534789
0.00549775
0.00564711
0.00579594
0.00594421
0.00609191
0.006239
0.00638547
0.00653128
0.00667641
0.00682083
0.00696452
0.00710745
0.00724958
0.00739089
0.00753135
0.00767093
0.00780959
0.00794731
0.00808406
0.00821979
0.00835449
0.00848811
0.00862062
0.00875199
0.00888218
0.00901116
0.0091389
0.00926536
0.00939051
0.00951431
0.00963672
0.00975771
0.00987725
0.00999529
0.0101118
0.0102268
0.0103401
0.0104519
0.010562
0.0106703
0.010777
0.0108819
0.0109849
0.0110862
0.0111856
0.011283
0.0113786
0.0114722
0.0115638
0.0116535
0.011741
0.0118265
0.0119099
0.0119912
0.0120703
0.0121472
0.012222
0.0122945
0.0123648
0.0124329
0.0124986
0.0125621
0.0126233
0.0126821
0.0127385
0.0127927
0.0128444
0.0128938
0.0129407
0.0129853
0.0130274
0.0130672
0.0131045
0.0131394
0.0131718
0.0132018
0.0132294
0.0132545
0.0132772
0.0132974
0.0133153
0.0133307
0.0133436
0.0133541
0.0133623
0.013368
0.0133713
0.0133722
0.0133707
0.0133669
0.0133607
0.0133522
0.0133413
0.0133281
0.0133126
0.0132948
0.0132747
0.0132524
0.0132278
0.013201
0.0131719
0.0131407
0.0131073
0.0130718
0.0130341
0.0129943
0.0129524
0.0129084
0.0128624
0.0128143
0.0127642
0.0127122
0.0126581
0.0126021
0.0125442
0.0124844
0.0124227
0.0123591
0.0122937
0.0122265
0.0121575
0.0120868
0.0120143
0.0119401
0.0118642
0.0117866
0.0117074
0.0116265
0.0115441
0.01146
0.0113745
0.0112874
0.0111988
0.0111087
0.0110171
0.0109242
0.0108298
0.0107341
0.010637
0.0105385
0.0104388
0.0103377
0.0102354
0.0101319
0.0100272
0.00992124
0.00981414
0.00970591
0.00959655
0.00948611
0.00937459
0.00926202
0.00914843
0.00903384
0.00891827
0.00880174
0.00868428
0.00856591
0.00844665
0.00832653
0.00820556
0.00808376
0.00796117
0.00783779
0.00771366
0.00758878
0.00746319
0.0073369
0.00720993
0.0070823
0.00695404
0.00682515
0.00669566
0.00656559
0.00643496
0.00630378
0.00617207
0.00603985
0.00590714
0.00577395
0.0056403
0.0055062
0.00537168
0.00523674
0.00510141
0.0049657
0.00482961
0.00469318
0.0045564
0.0044193
0.00428189
0.00414418
0.00400618
0.00386791
0.00372938
0.0035906
0.00345159
0.00331234
0.00317289
0.00303323
0.00289338
0.00275334
0.00261314
0.00247277
0.00233226
0.0021916
0.00205081
0.0019099
0.00176887
0.00162774
0.00148651
0.0013452
0.00120381
0.00106235
0.000920823
0.000779247
0.000637627
0.00049597
0.000354285
0.000212579
7.0861e-05
9.60745e-05
0.000288218
0.000480344
0.000672442
0.000864499
0.0010565
0.00124844
0.0014403
0.00163208
0.00182375
0.0020153
0.00220672
0.002398
0.00258913
0.00278008
0.00297085
0.00316142
0.00335177
0.0035419
0.00373177
0.00392138
0.00411071
0.00429974
0.00448845
0.00467682
0.00486483
0.00505247
0.00523971
0.00542652
0.0056129
0.00579881
0.00598423
0.00616914
0.00635351
0.00653731
0.00672053
0.00690312
0.00708507
0.00726634
0.00744691
0.00762674
0.00780581
0.00798408
0.00816152
0.00833809
0.00851377
0.00868851
0.00886229
0.00903507
0.0092068
0.00937746
0.00954701
0.0097154
0.00988259
0.0100486
0.0102133
0.0103766
0.0105387
0.0106993
0.0108585
0.0110162
0.0111724
0.011327
0.0114801
0.0116314
0.0117811
0.0119291
0.0120753
0.0122196
0.0123621
0.0125027
0.0126413
0.0127779
0.0129125
0.0130451
0.0131755
0.0133037
0.0134298
0.0135536
0.0136751
0.0137943
0.0139112
0.0140257
0.0141377
0.0142473
0.0143544
0.0144589
0.0145609
0.0146603
0.014757
0.0148511
0.0149426
0.0150313
0.0151172
0.0152004
0.0152808
0.0153584
0.0154332
0.0155051
0.0155742
0.0156403
0.0157036
0.015764
0.0158214
0.0158759
0.0159274
0.015976
0.0160216
0.0160642
0.0161039
0.0161405
0.0161742
0.016205
0.0162327
0.0162574
0.0162792
0.016298
0.0163138
0.0163267
0.0163366
0.0163436
0.0163476
0.0163487
0.0163469
0.0163422
0.0163346
0.0163241
0.0163108
0.0162946
0.0162756
0.0162539
0.0162293
0.0162019
0.0161719
0.016139
0.0161035
0.0160653
0.0160245
0.015981
0.0159349
0.0158862
0.0158349
0.0157812
0.0157249
0.0156661
0.0156048
0.0155411
0.015475
0.0154065
0.0153357
0.0152626
0.0151871
0.0151094
0.0150294
0.0149472
0.0148629
0.0147763
0.0146877
0.0145969
0.0145041
0.0144092
0.0143123
0.0142135
0.0141126
0.0140099
0.0139053
0.0137987
0.0136904
0.0135803
0.0134683
0.0133547
0.0132393
0.0131222
0.0130035
0.0128831
0.0127611
0.0126376
0.0125125
0.0123859
0.0122579
0.0121284
0.0119974
0.0118651
0.0117314
0.0115963
0.01146
0.0113224
0.0111835
0.0110434
0.0109021
0.0107596
0.010616
0.0104713
0.0103255
0.0101786
0.0100307
0.00988181
0.00973193
0.0095811
0.00942933
0.00927667
0.00912312
0.00896872
0.0088135
0.00865747
0.00850066
0.00834309
0.00818479
0.00802578
0.00786608
0.00770571
0.0075447
0.00738306
0.00722082
0.007058
0.00689462
0.00673069
0.00656624
0.00640129
0.00623585
0.00606995
0.0059036
0.00573681
0.00556961
0.00540202
0.00523404
0.0050657
0.00489701
0.00472799
0.00455865
0.00438901
0.00421907
0.00404887
0.0038784
0.00370768
0.00353673
0.00336556
0.00319417
0.0030226
0.00285083
0.0026789
0.0025068
0.00233455
0.00216217
0.00198966
0.00181703
0.00164429
0.00147146
0.00129855
0.00112556
0.000952506
0.000779398
0.000606244
0.000433056
0.000259844
8.66162e-05
0.000113557
0.000340664
0.000567752
0.000794805
0.00102181
0.00124875
0.00147562
0.0017024
0.00192907
0.00215562
0.00238203
0.00260829
0.00283438
0.00306029
0.003286
0.00351149
0.00373675
0.00396175
0.00418648
0.00441091
0.00463504
0.00485883
0.00508228
0.00530534
0.00552801
0.00575026
0.00597206
0.00619339
0.00641423
0.00663455
0.00685432
0.00707351
0.0072921
0.00751005
0.00772733
0.00794392
0.00815978
0.00837488
0.00858919
0.00880266
0.00901526
0.00922696
0.00943772
0.0096475
0.00985626
0.010064
0.0102706
0.010476
0.0106803
0.0108833
0.0110851
0.0112856
0.0114847
0.0116824
0.0118786
0.0120733
0.0122665
0.0124581
0.012648
0.0128363
0.0130228
0.0132075
0.0133903
0.0135713
0.0137503
0.0139273
0.0141022
0.0142751
0.0144458
0.0146143
0.0147805
0.0149445
0.0151061
0.0152652
0.015422
0.0155762
0.0157278
0.0158769
0.0160233
0.016167
0.016308
0.0164462
0.0165816
0.0167141
0.0168437
0.0169703
0.0170939
0.0172145
0.017332
0.0174465
0.0175577
0.0176658
0.0177707
0.0178724
0.0179708
0.0180658
0.0181576
0.018246
0.0183311
0.0184127
0.0184909
0.0185657
0.0186371
0.018705
0.0187694
0.0188303
0.0188878
0.0189417
0.0189921
0.0190389
0.0190823
0.0191221
0.0191584
0.0191912
0.0192204
0.0192461
0.0192683
0.019287
0.0193022
0.0193139
0.0193221
0.0193268
0.0193281
0.019326
0.0193204
0.0193113
0.0192989
0.0192832
0.019264
0.0192415
0.0192157
0.0191866
0.0191543
0.0191187
0.0190799
0.0190378
0.0189926
0.0189443
0.0188929
0.0188383
0.0187807
0.0187201
0.0186564
0.0185898
0.0185203
0.0184479
0.0183725
0.0182943
0.0182134
0.0181296
0.0180431
0.0179538
0.0178619
0.0177673
0.0176701
0.0175703
0.017468
0.0173632
0.0172558
0.0171461
0.0170339
0.0169193
0.0168024
0.0166832
0.0165617
0.0164379
0.016312
0.0161839
0.0160536
0.0159213
0.0157869
0.0156505
0.015512
0.0153716
0.0152293
0.0150851
0.014939
0.0147912
0.0146415
0.0144901
0.0143369
0.0141821
0.0140256
0.0138676
0.0137079
0.0135467
0.013384
0.0132198
0.0130541
0.0128871
0.0127186
0.0125489
0.0123778
0.0122054
0.0120317
0.0118569
0.0116809
0.0115037
0.0113253
0.0111459
0.0109654
0.0107839
0.0106014
0.0104179
0.0102334
0.0100481
0.00986178
0.00967464
0.00948667
0.00929788
0.0091083
0.00891796
0.00872689
0.0085351
0.00834263
0.00814949
0.00795571
0.00776132
0.00756633
0.00737077
0.00717466
0.00697802
0.00678087
0.00658323
0.00638512
0.00618657
0.00598758
0.00578818
0.00558839
0.00538823
0.00518771
0.00498684
0.00478565
0.00458416
0.00438237
0.00418031
0.00397798
0.00377541
0.0035726
0.00336958
0.00316636
0.00296294
0.00275935
0.0025556
0.00235169
0.00214765
0.00194349
0.00173921
0.00153483
0.00133036
0.00112582
0.000921213
0.000716554
0.000511853
0.000307124
0.000102376
0.000131047
0.000393132
0.000655195
0.000917218
0.00117919
0.00144108
0.00170289
0.0019646
0.00222618
0.00248762
0.00274891
0.00301003
0.00327095
0.00353166
0.00379214
0.00405237
0.00431233
0.004572
0.00483135
0.00509037
0.00534904
0.00560732
0.00586519
0.00612264
0.00637963
0.00663613
0.00689213
0.00714758
0.00740247
0.00765675
0.00791041
0.0081634
0.00841569
0.00866726
0.00891806
0.00916806
0.00941722
0.0096655
0.00991287
0.0101593
0.0104047
0.0106491
0.0108923
0.0111345
0.0113755
0.0116153
0.0118538
0.0120909
0.0123268
0.0125612
0.0127941
0.0130255
0.0132554
0.0134836
0.0137102
0.013935
0.014158
0.0143792
0.0145985
0.0148158
0.0150312
0.0152444
0.0154555
0.0156645
0.0158711
0.0160755
0.0162775
0.0164771
0.0166742
0.0168688
0.0170607
0.01725
0.0174366
0.0176204
0.0178013
0.0179794
0.0181545
0.0183267
0.0184957
0.0186617
0.0188245
0.0189841
0.0191404
0.0192934
0.019443
0.0195892
0.019732
0.0198712
0.0200069
0.020139
0.0202675
0.0203923
0.0205135
0.0206308
0.0207444
0.0208542
0.0209601
0.0210622
0.0211604
0.0212547
0.021345
0.0214313
0.0215137
0.0215921
0.0216665
0.0217368
0.0218031
0.0218653
0.0219235
0.0219776
0.0220276
0.0220735
0.0221154
0.0221532
0.0221869
0.0222166
0.0222422
0.0222637
0.0222812
0.0222947
0.0223041
0.0223096
0.022311
0.0223085
0.022302
0.0222915
0.0222772
0.0222589
0.0222367
0.0222108
0.0221809
0.0221473
0.0221099
0.0220688
0.0220239
0.0219753
0.0219231
0.0218673
0.0218078
0.0217448
0.0216783
0.0216082
0.0215347
0.0214578
0.0213775
0.0212938
0.0212068
0.0211165
0.021023
0.0209262
0.0208263
0.0207232
0.0206171
0.0205078
0.0203956
0.0202804
0.0201622
0.0200411
0.0199172
0.0197905
0.0196609
0.0195286
0.0193936
0.019256
0.0191157
0.0189728
0.0188274
0.0186795
0.0185291
0.0183763
0.0182212
0.0180636
0.0179038
0.0177417
0.0175774
0.0174109
0.0172423
0.0170716
0.0168988
0.016724
0.0165472
0.0163685
0.0161878
0.0160053
0.015821
0.0156349
0.0154471
0.0152575
0.0150663
0.0148735
0.014679
0.014483
0.0142855
0.0140865
0.0138861
0.0136843
0.0134811
0.0132765
0.0130707
0.0128636
0.0126553
0.0124457
0.012235
0.0120232
0.0118103
0.0115963
0.0113813
0.0111653
0.0109484
0.0107305
0.0105117
0.010292
0.0100714
0.00985007
0.00962792
0.00940501
0.00918136
0.00895699
0.00873195
0.00850624
0.0082799
0.00805295
0.00782542
0.00759732
0.00736868
0.00713952
0.00690988
0.00667975
0.00644918
0.00621817
0.00598675
0.00575494
0.00552276
0.00529022
0.00505734
0.00482415
0.00459066
0.00435688
0.00412283
0.00388854
0.00365401
0.00341927
0.00318432
0.00294918
0.00271387
0.0024784
0.00224279
0.00200705
0.0017712
0.00153524
0.0012992
0.00106308
0.000826904
0.00059068
0.000354421
0.000118143
0.000148544
0.000445624
0.000742678
0.00103969
0.00133664
0.0016335
0.00193027
0.00222692
0.00252344
0.00281979
0.00311597
0.00341196
0.00370773
0.00400326
0.00429853
0.00459352
0.00488821
0.00518256
0.00547657
0.0057702
0.00606342
0.00635621
0.00664855
0.0069404
0.00723174
0.00752253
0.00781274
0.00810234
0.00839131
0.00867959
0.00896717
0.00925399
0.00954003
0.00982525
0.0101096
0.010393
0.0106755
0.010957
0.0112375
0.0115169
0.0117952
0.0120723
0.0123481
0.0126227
0.012896
0.0131678
0.0134383
0.0137072
0.0139747
0.0142405
0.0145046
0.0147671
0.0150277
0.0152866
0.0155435
0.0157984
0.0160514
0.0163022
0.0165509
0.0167974
0.0170416
0.0172835
0.0175229
0.0177599
0.0179943
0.0182261
0.0184552
0.0186816
0.0189052
0.0191258
0.0193436
0.0195583
0.0197699
0.0199784
0.0201836
0.0203856
0.0205843
0.0207795
0.0209713
0.0211595
0.0213442
0.0215252
0.0217025
0.021876
0.0220458
0.0222116
0.0223735
0.0225315
0.0226854
0.0228353
0.022981
0.0231226
0.0232599
0.0233931
0.0235219
0.0236464
0.0237666
0.0238823
0.0239937
0.0241006
0.024203
0.024301
0.0243944
0.0244832
0.0245675
0.0246473
0.0247224
0.024793
0.0248589
0.0249203
0.024977
0.025029
0.0250765
0.0251193
0.0251576
0.0251912
0.0252201
0.0252445
0.0252643
0.0252796
0.0252902
0.0252963
0.0252979
0.025295
0.0252875
0.0252756
0.0252593
0.0252385
0.0252134
0.0251838
0.0251499
0.0251118
0.0250693
0.0250226
0.0249716
0.0249165
0.0248572
0.0247938
0.0247264
0.0246549
0.0245793
0.0244999
0.0244165
0.0243292
0.024238
0.0241431
0.0240444
0.0239419
0.0238358
0.023726
0.0236127
0.0234957
0.0233753
0.0232514
0.0231241
0.0229934
0.0228594
0.022722
0.0225814
0.0224377
0.0222907
0.0221407
0.0219876
0.0218314
0.0216723
0.0215103
0.0213454
0.0211776
0.0210071
0.0208338
0.0206578
0.0204791
0.0202979
0.0201141
0.0199277
0.0197389
0.0195477
0.0193541
0.0191581
0.0189599
0.0187594
0.0185567
0.0183519
0.0181449
0.0179359
0.0177249
0.0175119
0.0172969
0.0170801
0.0168614
0.016641
0.0164187
0.0161948
0.0159692
0.0157419
0.015513
0.0152826
0.0150507
0.0148173
0.0145825
0.0143463
0.0141087
0.0138698
0.0136297
0.0133883
0.0131457
0.0129019
0.012657
0.012411
0.012164
0.0119159
0.0116668
0.0114168
0.0111658
0.010914
0.0106613
0.0104077
0.0101534
0.00989823
0.00964236
0.00938576
0.00912848
0.00887053
0.00861195
0.00835276
0.00809299
0.00783265
0.00757178
0.0073104
0.00704853
0.00678619
0.00652342
0.00626022
0.00599662
0.00573264
0.0054683
0.00520362
0.00493862
0.00467332
0.00440774
0.00414189
0.0038758
0.00360947
0.00334294
0.00307621
0.0028093
0.00254223
0.00227502
0.00200767
0.00174021
0.00147265
0.00120501
0.000937303
0.00066954
0.000401739
0.000133915
0.000166051
0.000498144
0.000830207
0.00116222
0.00149417
0.00182602
0.00215777
0.00248939
0.00282085
0.00315214
0.00348324
0.00381411
0.00414475
0.00447512
0.00480521
0.00513498
0.00546442
0.00579349
0.00612217
0.00645043
0.00677824
0.00710557
0.0074324
0.00775868
0.0080844
0.0084095
0.00873397
0.00905776
0.00938083
0.00970315
0.0100247
0.0103454
0.0106652
0.0109841
0.011302
0.011619
0.0119349
0.0122496
0.0125633
0.0128757
0.0131868
0.0134967
0.0138052
0.0141122
0.0144178
0.0147219
0.0150243
0.0153251
0.0156242
0.0159214
0.0162169
0.0165104
0.0168019
0.0170914
0.0173788
0.0176639
0.0179469
0.0182274
0.0185056
0.0187813
0.0190545
0.019325
0.0195928
0.0198579
0.0201201
0.0203794
0.0206357
0.020889
0.021139
0.0213859
0.0216295
0.0218697
0.0221064
0.0223396
0.0225692
0.0227952
0.0230174
0.0232359
0.0234504
0.023661
0.0238676
0.0240701
0.0242684
0.0244626
0.0246524
0.024838
0.0250191
0.0251958
0.025368
0.0255356
0.0256987
0.025857
0.0260107
0.0261596
0.0263037
0.026443
0.0265774
0.0267069
0.0268314
0.026951
0.0270656
0.0271751
0.0272796
0.027379
0.0274732
0.0275624
0.0276464
0.0277253
0.027799
0.0278676
0.027931
0.0279892
0.0280422
0.0280901
0.0281328
0.0281703
0.0282027
0.0282299
0.028252
0.028269
0.0282808
0.0282876
0.0282893
0.028286
0.0282776
0.0282642
0.0282459
0.0282226
0.0281944
0.0281613
0.0281233
0.0280805
0.0280329
0.0279806
0.0279236
0.0278618
0.0277955
0.0277245
0.027649
0.0275689
0.0274844
0.0273954
0.0273021
0.0272044
0.0271024
0.0269961
0.0268857
0.026771
0.0266523
0.0265295
0.0264026
0.0262718
0.0261371
0.0259984
0.025856
0.0257098
0.0255598
0.0254062
0.0252489
0.0250881
0.0249237
0.0247558
0.0245846
0.0244099
0.0242319
0.0240507
0.0238662
0.0236786
0.0234878
0.0232939
0.0230971
0.0228973
0.0226945
0.0224889
0.0222805
0.0220694
0.0218555
0.0216389
0.0214198
0.0211981
0.0209738
0.0207472
0.0205181
0.0202866
0.0200529
0.0198169
0.0195787
0.0193383
0.0190958
0.0188513
0.0186047
0.0183562
0.0181057
0.0178534
0.0175993
0.0173434
0.0170857
0.0168264
0.0165654
0.0163028
0.0160387
0.015773
0.0155059
0.0152374
0.0149675
0.0146962
0.0144236
0.0141498
0.0138748
0.0135985
0.0133212
0.0130427
0.0127631
0.0124825
0.0122009
0.0119184
0.0116349
0.0113505
0.0110653
0.0107792
0.0104923
0.0102047
0.0099163
0.00962721
0.00933743
0.00904701
0.00875597
0.00846433
0.00817211
0.00787936
0.00758609
0.00729232
0.00699808
0.0067034
0.00640829
0.00611279
0.00581691
0.00552066
0.00522409
0.0049272
0.00463001
0.00433256
0.00403484
0.00373689
0.00343873
0.00314036
0.00284182
0.00254311
0.00224426
0.00194528
0.00164619
0.00134701
0.00104775
0.000748438
0.000449079
0.000149696
0.000183568
0.000550693
0.000917786
0.00128483
0.00165179
0.00201866
0.0023854
0.002752
0.00311844
0.00348468
0.00385072
0.00421651
0.00458204
0.00494728
0.0053122
0.00567679
0.006041
0.00640481
0.00676819
0.00713111
0.00749354
0.00785544
0.00821679
0.00857754
0.00893767
0.00929713
0.00965588
0.0100139
0.0103711
0.0107275
0.011083
0.0114376
0.0117913
0.0121439
0.0124955
0.012846
0.0131953
0.0135434
0.0138902
0.0142357
0.0145798
0.0149225
0.0152637
0.0156033
0.0159412
0.0162775
0.016612
0.0169447
0.0172755
0.0176043
0.017931
0.0182557
0.0185782
0.0188984
0.0192162
0.0195317
0.0198447
0.020155
0.0204628
0.0207678
0.0210699
0.0213692
0.0216655
0.0219588
0.0222489
0.0225357
0.0228193
0.0230995
0.0233761
0.0236493
0.0239187
0.0241845
0.0244464
0.0247045
0.0249585
0.0252085
0.0254544
0.0256961
0.0259335
0.0261665
0.026395
0.0266191
0.0268386
0.0270534
0.0272634
0.0274687
0.0276692
0.0278647
0.0280552
0.0282406
0.028421
0.0285962
0.0287662
0.028931
0.0290904
0.0292445
0.0293932
0.0295364
0.0296742
0.0298065
0.0299332
0.0300543
0.0301699
0.0302798
0.0303841
0.0304827
0.0305756
0.0306628
0.0307443
0.0308201
0.0308902
0.0309546
0.0310132
0.0310661
0.0311132
0.0311547
0.0311904
0.0312205
0.0312449
0.0312636
0.0312766
0.031284
0.0312858
0.031282
0.0312727
0.0312578
0.0312374
0.0312116
0.0311803
0.0311436
0.0311015
0.0310541
0.0310014
0.0309434
0.0308802
0.0308118
0.0307384
0.0306598
0.0305761
0.0304875
0.0303939
0.0302954
0.0301921
0.030084
0.0299711
0.0298534
0.0297312
0.0296043
0.0294729
0.029337
0.0291966
0.0290518
0.0289027
0.0287493
0.0285917
0.0284299
0.028264
0.028094
0.02792
0.027742
0.0275601
0.0273744
0.0271849
0.0269917
0.0267948
0.0265943
0.0263902
0.0261826
0.0259716
0.0257572
0.0255394
0.0253183
0.0250941
0.0248666
0.0246361
0.0244025
0.0241659
0.0239264
0.023684
0.0234388
0.0231907
0.02294
0.0226866
0.0224306
0.0221721
0.0219111
0.0216476
0.0213817
0.0211136
0.0208431
0.0205704
0.0202955
0.0200186
0.0197395
0.0194585
0.0191754
0.0188905
0.0186037
0.0183151