/*--------------------------------*- C++ -*----------------------------------*\
| =========                 |                                                 |
| \\      /  F ield         | OpenFOAM: The Open Source CFD Toolbox           |
|  \\    /   O peration     | Version:  v2012                                 |
|   \\  /    A nd           | Website:  www.openfoam.com                      |
|    \\/     M anipulation  |                                                 |
\*---------------------------------------------------------------------------*/
FoamFile
{
    version     2.0;
    format      ascii;
    class       volVectorField;
    location    "2.5";
    object      U;
}
// * * * * * * * * * * * * * * * * * * * * * * * * * * * * * * * * * * * * * //

dimensions      [0 1 -1 0 0 0 0];


internalField   nonuniform List<vector> 
65536
(
(0.000711464 -0.000711472 0)
(0.00213437 -0.000711439 0)
(0.0035572 -0.000711345 0)
(0.0049798 -0.000711215 0)
(0.00640208 -0.000711039 0)
(0.00782397 -0.000710818 0)
(0.00924537 -0.00071055 0)
(0.0106662 -0.000710235 0)
(0.0120863 -0.000709873 0)
(0.0135057 -0.000709463 0)
(0.0149242 -0.000709004 0)
(0.0163417 -0.000708495 0)
(0.0177582 -0.000707936 0)
(0.0191735 -0.000707324 0)
(0.0205875 -0.000706659 0)
(0.0220002 -0.000705939 0)
(0.0234113 -0.000705162 0)
(0.0248209 -0.000704326 0)
(0.0262287 -0.000703431 0)
(0.0276346 -0.000702473 0)
(0.0290386 -0.000701452 0)
(0.0304405 -0.000700365 0)
(0.0318401 -0.00069921 0)
(0.0332374 -0.000697985 0)
(0.0346321 -0.000696688 0)
(0.0360242 -0.000695316 0)
(0.0374134 -0.000693868 0)
(0.0387997 -0.000692341 0)
(0.0401828 -0.000690733 0)
(0.0415627 -0.00068904 0)
(0.042939 -0.000687261 0)
(0.0443118 -0.000685392 0)
(0.0456807 -0.000683432 0)
(0.0470456 -0.000681377 0)
(0.0484063 -0.000679225 0)
(0.0497625 -0.000676973 0)
(0.0511142 -0.000674618 0)
(0.0524611 -0.000672159 0)
(0.0538029 -0.00066959 0)
(0.0551395 -0.000666911 0)
(0.0564707 -0.000664119 0)
(0.0577961 -0.000661211 0)
(0.0591156 -0.000658184 0)
(0.0604289 -0.000655035 0)
(0.0617358 -0.000651763 0)
(0.0630361 -0.000648365 0)
(0.0643294 -0.000644837 0)
(0.0656155 -0.000641177 0)
(0.0668942 -0.000637383 0)
(0.0681652 -0.000633453 0)
(0.0694281 -0.000629384 0)
(0.0706828 -0.000625174 0)
(0.0719289 -0.00062082 0)
(0.0731662 -0.000616322 0)
(0.0743943 -0.000611677 0)
(0.075613 -0.000606883 0)
(0.076822 -0.00060194 0)
(0.0780209 -0.000596845 0)
(0.0792095 -0.000591597 0)
(0.0803874 -0.000586194 0)
(0.0815544 -0.000580636 0)
(0.0827101 -0.000574921 0)
(0.0838542 -0.000569048 0)
(0.0849864 -0.000563018 0)
(0.0861064 -0.000556829 0)
(0.0872138 -0.000550482 0)
(0.0883084 -0.000543976 0)
(0.0893899 -0.000537311 0)
(0.0904578 -0.000530488 0)
(0.0915119 -0.000523507 0)
(0.0925519 -0.000516368 0)
(0.0935775 -0.000509071 0)
(0.0945883 -0.000501619 0)
(0.0955841 -0.000494011 0)
(0.0965645 -0.00048625 0)
(0.0975292 -0.000478337 0)
(0.098478 -0.000470274 0)
(0.0994104 -0.000462064 0)
(0.100326 -0.000453708 0)
(0.101225 -0.000445208 0)
(0.102107 -0.000436569 0)
(0.102972 -0.00042779 0)
(0.103819 -0.000418876 0)
(0.104647 -0.00040983 0)
(0.105458 -0.000400653 0)
(0.10625 -0.000391349 0)
(0.107023 -0.000381923 0)
(0.107778 -0.000372379 0)
(0.108513 -0.000362719 0)
(0.109229 -0.00035295 0)
(0.109925 -0.000343074 0)
(0.110601 -0.000333096 0)
(0.111257 -0.00032302 0)
(0.111893 -0.00031285 0)
(0.112509 -0.000302591 0)
(0.113104 -0.000292247 0)
(0.113678 -0.000281823 0)
(0.114231 -0.000271324 0)
(0.114763 -0.000260755 0)
(0.115274 -0.00025012 0)
(0.115764 -0.000239425 0)
(0.116232 -0.000228675 0)
(0.116678 -0.000217873 0)
(0.117103 -0.000207027 0)
(0.117506 -0.00019614 0)
(0.117888 -0.000185218 0)
(0.118247 -0.000174267 0)
(0.118585 -0.000163292 0)
(0.1189 -0.000152296 0)
(0.119194 -0.000141286 0)
(0.119465 -0.000130265 0)
(0.119715 -0.000119239 0)
(0.119942 -0.000108211 0)
(0.120148 -9.71864e-05 0)
(0.120331 -8.61703e-05 0)
(0.120492 -7.51671e-05 0)
(0.120632 -6.41812e-05 0)
(0.120749 -5.3217e-05 0)
(0.120844 -4.22789e-05 0)
(0.120918 -3.13708e-05 0)
(0.12097 -2.04967e-05 0)
(0.121 -9.66013e-06 0)
(0.121008 1.13563e-06 0)
(0.120995 1.18854e-05 0)
(0.120961 2.25867e-05 0)
(0.120905 3.32354e-05 0)
(0.120828 4.38276e-05 0)
(0.120729 5.43599e-05 0)
(0.12061 6.48292e-05 0)
(0.12047 7.52332e-05 0)
(0.120309 8.55696e-05 0)
(0.120128 9.58362e-05 0)
(0.119926 0.000106031 0)
(0.119703 0.00011615 0)
(0.119461 0.000126193 0)
(0.119198 0.000136155 0)
(0.118916 0.000146036 0)
(0.118614 0.000155831 0)
(0.118293 0.00016554 0)
(0.117952 0.00017516 0)
(0.117592 0.000184691 0)
(0.117213 0.000194129 0)
(0.116815 0.000203476 0)
(0.116399 0.000212728 0)
(0.115964 0.000221886 0)
(0.115511 0.000230947 0)
(0.11504 0.00023991 0)
(0.114551 0.000248774 0)
(0.114045 0.000257538 0)
(0.113521 0.0002662 0)
(0.11298 0.000274759 0)
(0.112422 0.000283217 0)
(0.111847 0.000291572 0)
(0.111255 0.000299824 0)
(0.110647 0.000307972 0)
(0.110023 0.000316015 0)
(0.109383 0.000323951 0)
(0.108727 0.00033178 0)
(0.108056 0.0003395 0)
(0.107369 0.000347112 0)
(0.106667 0.000354617 0)
(0.105951 0.000362014 0)
(0.105219 0.000369303 0)
(0.104473 0.000376483 0)
(0.103713 0.000383555 0)
(0.102939 0.000390518 0)
(0.102151 0.000397372 0)
(0.101349 0.000404117 0)
(0.100534 0.000410752 0)
(0.099706 0.000417277 0)
(0.0988649 0.000423692 0)
(0.0980111 0.000429998 0)
(0.0971448 0.000436194 0)
(0.0962662 0.000442281 0)
(0.0953755 0.000448259 0)
(0.094473 0.000454129 0)
(0.0935588 0.00045989 0)
(0.0926333 0.000465542 0)
(0.0916965 0.000471086 0)
(0.0907488 0.000476521 0)
(0.0897903 0.000481849 0)
(0.0888212 0.000487069 0)
(0.0878418 0.000492183 0)
(0.0868523 0.000497189 0)
(0.0858529 0.00050209 0)
(0.0848438 0.000506885 0)
(0.0838252 0.000511575 0)
(0.0827974 0.00051616 0)
(0.0817604 0.000520642 0)
(0.0807147 0.000525021 0)
(0.0796602 0.000529298 0)
(0.0785973 0.000533474 0)
(0.0775262 0.000537548 0)
(0.076447 0.000541523 0)
(0.0753599 0.000545399 0)
(0.0742653 0.000549175 0)
(0.0731631 0.000552855 0)
(0.0720537 0.000556438 0)
(0.0709372 0.000559926 0)
(0.0698139 0.00056332 0)
(0.0686838 0.000566621 0)
(0.0675473 0.000569829 0)
(0.0664044 0.000572947 0)
(0.0652553 0.000575975 0)
(0.0641003 0.000578914 0)
(0.0629396 0.000581765 0)
(0.0617732 0.000584531 0)
(0.0606013 0.000587211 0)
(0.0594242 0.000589809 0)
(0.058242 0.000592324 0)
(0.0570548 0.000594759 0)
(0.0558628 0.000597114 0)
(0.0546662 0.00059939 0)
(0.0534652 0.00060159 0)
(0.0522598 0.000603714 0)
(0.0510502 0.000605764 0)
(0.0498366 0.000607742 0)
(0.0486191 0.000609647 0)
(0.0473979 0.000611483 0)
(0.0461731 0.00061325 0)
(0.0449448 0.00061495 0)
(0.0437132 0.000616585 0)
(0.0424784 0.000618155 0)
(0.0412405 0.000619662 0)
(0.0399996 0.000621108 0)
(0.038756 0.000622493 0)
(0.0375096 0.000623819 0)
(0.0362606 0.000625086 0)
(0.0350091 0.000626298 0)
(0.0337553 0.000627453 0)
(0.0324993 0.000628555 0)
(0.031241 0.000629604 0)
(0.0299808 0.000630601 0)
(0.0287185 0.000631548 0)
(0.0274545 0.000632445 0)
(0.0261887 0.000633293 0)
(0.0249213 0.000634094 0)
(0.0236522 0.000634849 0)
(0.0223818 0.000635558 0)
(0.0211099 0.000636223 0)
(0.0198368 0.000636844 0)
(0.0185625 0.000637422 0)
(0.0172871 0.000637958 0)
(0.0160106 0.000638453 0)
(0.0147332 0.000638907 0)
(0.0134549 0.000639321 0)
(0.0121758 0.000639695 0)
(0.0108961 0.000640031 0)
(0.00961566 0.000640329 0)
(0.00833469 0.000640588 0)
(0.00705325 0.00064081 0)
(0.00577139 0.000640995 0)
(0.00448921 0.000641143 0)
(0.00320676 0.000641254 0)
(0.00192414 0.000641328 0)
(0.000641401 0.000641365 0)
(0.000711501 -0.00213446 0)
(0.0021345 -0.00213433 0)
(0.00355742 -0.00213406 0)
(0.00498011 -0.00213368 0)
(0.00640248 -0.00213315 0)
(0.00782446 -0.00213249 0)
(0.00924595 -0.00213168 0)
(0.0106669 -0.00213074 0)
(0.0120871 -0.00212966 0)
(0.0135066 -0.00212843 0)
(0.0149252 -0.00212705 0)
(0.0163428 -0.00212553 0)
(0.0177594 -0.00212385 0)
(0.0191748 -0.00212202 0)
(0.020589 -0.00212002 0)
(0.0220017 -0.00211786 0)
(0.023413 -0.00211553 0)
(0.0248226 -0.00211303 0)
(0.0262306 -0.00211034 0)
(0.0276366 -0.00210747 0)
(0.0290407 -0.00210441 0)
(0.0304428 -0.00210115 0)
(0.0318425 -0.00209769 0)
(0.0332399 -0.00209401 0)
(0.0346348 -0.00209013 0)
(0.036027 -0.00208601 0)
(0.0374164 -0.00208167 0)
(0.0388029 -0.00207709 0)
(0.0401862 -0.00207227 0)
(0.0415662 -0.00206719 0)
(0.0429428 -0.00206186 0)
(0.0443157 -0.00205626 0)
(0.0456848 -0.00205038 0)
(0.0470498 -0.00204422 0)
(0.0484107 -0.00203776 0)
(0.0497672 -0.00203101 0)
(0.0511191 -0.00202395 0)
(0.0524662 -0.00201657 0)
(0.0538083 -0.00200887 0)
(0.0551451 -0.00200084 0)
(0.0564764 -0.00199246 0)
(0.0578021 -0.00198374 0)
(0.0591219 -0.00197466 0)
(0.0604354 -0.00196522 0)
(0.0617426 -0.0019554 0)
(0.0630431 -0.00194521 0)
(0.0643367 -0.00193463 0)
(0.0656231 -0.00192365 0)
(0.066902 -0.00191227 0)
(0.0681733 -0.00190048 0)
(0.0694365 -0.00188828 0)
(0.0706915 -0.00187565 0)
(0.0719379 -0.00186259 0)
(0.0731755 -0.0018491 0)
(0.0744039 -0.00183517 0)
(0.0756229 -0.00182079 0)
(0.0768321 -0.00180596 0)
(0.0780314 -0.00179067 0)
(0.0792202 -0.00177493 0)
(0.0803985 -0.00175872 0)
(0.0815658 -0.00174205 0)
(0.0827218 -0.0017249 0)
(0.0838662 -0.00170729 0)
(0.0849987 -0.0016892 0)
(0.086119 -0.00167063 0)
(0.0872268 -0.00165159 0)
(0.0883217 -0.00163207 0)
(0.0894035 -0.00161207 0)
(0.0904717 -0.0015916 0)
(0.0915262 -0.00157066 0)
(0.0925665 -0.00154924 0)
(0.0935924 -0.00152735 0)
(0.0946035 -0.00150499 0)
(0.0955996 -0.00148217 0)
(0.0965803 -0.00145888 0)
(0.0975453 -0.00143514 0)
(0.0984944 -0.00141095 0)
(0.0994271 -0.00138632 0)
(0.100343 -0.00136124 0)
(0.101243 -0.00133574 0)
(0.102125 -0.00130982 0)
(0.10299 -0.00128348 0)
(0.103837 -0.00125674 0)
(0.104666 -0.00122959 0)
(0.105477 -0.00120206 0)
(0.106269 -0.00117415 0)
(0.107043 -0.00114586 0)
(0.107797 -0.00111723 0)
(0.108533 -0.00108824 0)
(0.109249 -0.00105893 0)
(0.109945 -0.0010293 0)
(0.110621 -0.000999361 0)
(0.111278 -0.000969128 0)
(0.111914 -0.000938613 0)
(0.112529 -0.000907829 0)
(0.113125 -0.000876792 0)
(0.113699 -0.000845514 0)
(0.114252 -0.000814012 0)
(0.114784 -0.0007823 0)
(0.115295 -0.000750392 0)
(0.115785 -0.000718302 0)
(0.116253 -0.000686044 0)
(0.1167 -0.000653635 0)
(0.117125 -0.00062109 0)
(0.117528 -0.000588424 0)
(0.11791 -0.000555654 0)
(0.118269 -0.000522795 0)
(0.118607 -0.000489863 0)
(0.118923 -0.000456872 0)
(0.119216 -0.000423836 0)
(0.119488 -0.000390768 0)
(0.119737 -0.000357683 0)
(0.119965 -0.000324595 0)
(0.12017 -0.000291517 0)
(0.120353 -0.000258464 0)
(0.120515 -0.000225449 0)
(0.120654 -0.000192487 0)
(0.120771 -0.00015959 0)
(0.120866 -0.000126772 0)
(0.12094 -9.40433e-05 0)
(0.120992 -6.14171e-05 0)
(0.121022 -2.89038e-05 0)
(0.12103 3.48585e-06 0)
(0.121017 3.57396e-05 0)
(0.120982 6.78471e-05 0)
(0.120926 9.97965e-05 0)
(0.120849 0.000131576 0)
(0.120751 0.000163176 0)
(0.120631 0.000194588 0)
(0.120491 0.000225803 0)
(0.12033 0.000256815 0)
(0.120148 0.000287618 0)
(0.119946 0.000318204 0)
(0.119724 0.000348566 0)
(0.119481 0.000378695 0)
(0.119218 0.000408585 0)
(0.118936 0.000438227 0)
(0.118634 0.000467615 0)
(0.118312 0.000496743 0)
(0.117971 0.000525606 0)
(0.117611 0.000554198 0)
(0.117232 0.000582516 0)
(0.116834 0.000610556 0)
(0.116417 0.000638315 0)
(0.115983 0.000665789 0)
(0.115529 0.000692974 0)
(0.115058 0.000719865 0)
(0.114569 0.000746458 0)
(0.114063 0.000772749 0)
(0.113538 0.000798734 0)
(0.112997 0.000824414 0)
(0.112439 0.000849787 0)
(0.111864 0.000874853 0)
(0.111272 0.00089961 0)
(0.110664 0.000924055 0)
(0.110039 0.000948183 0)
(0.109399 0.000971992 0)
(0.108743 0.000995477 0)
(0.108071 0.00101864 0)
(0.107385 0.00104148 0)
(0.106682 0.00106399 0)
(0.105965 0.00108618 0)
(0.105234 0.00110805 0)
(0.104488 0.00112959 0)
(0.103727 0.0011508 0)
(0.102953 0.00117169 0)
(0.102165 0.00119225 0)
(0.101363 0.00121249 0)
(0.100548 0.00123239 0)
(0.0997191 0.00125197 0)
(0.0988778 0.00127121 0)
(0.0980238 0.00129013 0)
(0.0971572 0.00130872 0)
(0.0962784 0.00132698 0)
(0.0953875 0.00134491 0)
(0.0944847 0.00136252 0)
(0.0935704 0.0013798 0)
(0.0926446 0.00139676 0)
(0.0917076 0.00141339 0)
(0.0907597 0.0014297 0)
(0.0898009 0.00144568 0)
(0.0888317 0.00146134 0)
(0.0878521 0.00147668 0)
(0.0868624 0.0014917 0)
(0.0858627 0.0015064 0)
(0.0848534 0.00152078 0)
(0.0838346 0.00153485 0)
(0.0828066 0.00154861 0)
(0.0817694 0.00156205 0)
(0.0807234 0.00157519 0)
(0.0796688 0.00158802 0)
(0.0786057 0.00160054 0)
(0.0775344 0.00161276 0)
(0.076455 0.00162469 0)
(0.0753677 0.00163631 0)
(0.0742728 0.00164764 0)
(0.0731705 0.00165868 0)
(0.0720609 0.00166943 0)
(0.0709442 0.00167989 0)
(0.0698207 0.00169007 0)
(0.0686904 0.00169997 0)
(0.0675537 0.0017096 0)
(0.0664106 0.00171895 0)
(0.0652614 0.00172803 0)
(0.0641062 0.00173685 0)
(0.0629453 0.0017454 0)
(0.0617787 0.00175369 0)
(0.0606067 0.00176173 0)
(0.0594294 0.00176952 0)
(0.058247 0.00177707 0)
(0.0570597 0.00178437 0)
(0.0558675 0.00179143 0)
(0.0546708 0.00179826 0)
(0.0534696 0.00180486 0)
(0.052264 0.00181123 0)
(0.0510543 0.00181738 0)
(0.0498406 0.00182331 0)
(0.0486229 0.00182903 0)
(0.0474016 0.00183453 0)
(0.0461766 0.00183983 0)
(0.0449482 0.00184493 0)
(0.0437165 0.00184983 0)
(0.0424815 0.00185454 0)
(0.0412435 0.00185906 0)
(0.0400025 0.0018634 0)
(0.0387587 0.00186755 0)
(0.0375122 0.00187153 0)
(0.0362631 0.00187533 0)
(0.0350116 0.00187896 0)
(0.0337576 0.00188243 0)
(0.0325015 0.00188573 0)
(0.0312431 0.00188888 0)
(0.0299828 0.00189187 0)
(0.0287204 0.0018947 0)
(0.0274563 0.00189739 0)
(0.0261904 0.00189994 0)
(0.0249228 0.00190234 0)
(0.0236537 0.0019046 0)
(0.0223832 0.00190673 0)
(0.0211113 0.00190872 0)
(0.0198381 0.00191059 0)
(0.0185636 0.00191232 0)
(0.0172881 0.00191393 0)
(0.0160116 0.00191541 0)
(0.0147341 0.00191677 0)
(0.0134557 0.00191801 0)
(0.0121766 0.00191914 0)
(0.0108967 0.00192014 0)
(0.00961623 0.00192104 0)
(0.00833519 0.00192181 0)
(0.00705366 0.00192248 0)
(0.00577173 0.00192303 0)
(0.00448947 0.00192348 0)
(0.00320695 0.00192381 0)
(0.00192425 0.00192403 0)
(0.000641438 0.00192414 0)
(0.000711601 -0.00355753 0)
(0.00213479 -0.00355732 0)
(0.00355788 -0.0035569 0)
(0.00498074 -0.00355626 0)
(0.00640329 -0.00355539 0)
(0.00782545 -0.00355429 0)
(0.00924713 -0.00355295 0)
(0.0106682 -0.00355138 0)
(0.0120887 -0.00354958 0)
(0.0135083 -0.00354753 0)
(0.0149271 -0.00354524 0)
(0.016345 -0.00354271 0)
(0.0177618 -0.00353992 0)
(0.0191774 -0.00353687 0)
(0.0205918 -0.00353355 0)
(0.0220048 -0.00352995 0)
(0.0234163 -0.00352607 0)
(0.0248262 -0.00352191 0)
(0.0262343 -0.00351744 0)
(0.0276407 -0.00351266 0)
(0.029045 -0.00350756 0)
(0.0304473 -0.00350214 0)
(0.0318474 -0.00349637 0)
(0.0332451 -0.00349026 0)
(0.0346402 -0.00348378 0)
(0.0360328 -0.00347694 0)
(0.0374225 -0.00346971 0)
(0.0388093 -0.00346209 0)
(0.0401929 -0.00345406 0)
(0.0415733 -0.00344561 0)
(0.0429502 -0.00343672 0)
(0.0443234 -0.00342739 0)
(0.0456929 -0.0034176 0)
(0.0470584 -0.00340734 0)
(0.0484197 -0.00339659 0)
(0.0497766 -0.00338535 0)
(0.0511289 -0.00337359 0)
(0.0524764 -0.0033613 0)
(0.0538189 -0.00334848 0)
(0.0551562 -0.0033351 0)
(0.056488 -0.00332115 0)
(0.0578142 -0.00330662 0)
(0.0591344 -0.0032915 0)
(0.0604484 -0.00327577 0)
(0.0617561 -0.00325942 0)
(0.0630571 -0.00324244 0)
(0.0643512 -0.00322481 0)
(0.0656382 -0.00320652 0)
(0.0669177 -0.00318757 0)
(0.0681895 -0.00316793 0)
(0.0694533 -0.00314759 0)
(0.0707088 -0.00312655 0)
(0.0719558 -0.00310479 0)
(0.073194 -0.00308231 0)
(0.074423 -0.00305909 0)
(0.0756426 -0.00303513 0)
(0.0768524 -0.00301042 0)
(0.0780523 -0.00298495 0)
(0.0792418 -0.00295872 0)
(0.0804207 -0.00293171 0)
(0.0815886 -0.00290392 0)
(0.0827452 -0.00287535 0)
(0.0838903 -0.00284599 0)
(0.0850234 -0.00281584 0)
(0.0861444 -0.0027849 0)
(0.0872528 -0.00275316 0)
(0.0883483 -0.00272063 0)
(0.0894307 -0.00268731 0)
(0.0904996 -0.00265319 0)
(0.0915547 -0.00261828 0)
(0.0925957 -0.00258258 0)
(0.0936222 -0.00254609 0)
(0.094634 -0.00250882 0)
(0.0956306 -0.00247077 0)
(0.096612 -0.00243196 0)
(0.0975776 -0.00239238 0)
(0.0985272 -0.00235206 0)
(0.0994606 -0.00231099 0)
(0.100377 -0.0022692 0)
(0.101277 -0.00222669 0)
(0.10216 -0.00218348 0)
(0.103025 -0.00213957 0)
(0.103873 -0.00209499 0)
(0.104702 -0.00204974 0)
(0.105514 -0.00200383 0)
(0.106307 -0.0019573 0)
(0.107081 -0.00191015 0)
(0.107836 -0.00186241 0)
(0.108572 -0.00181409 0)
(0.109288 -0.00176522 0)
(0.109985 -0.00171582 0)
(0.110662 -0.00166591 0)
(0.111319 -0.0016155 0)
(0.111955 -0.00156463 0)
(0.112571 -0.00151331 0)
(0.113166 -0.00146156 0)
(0.113741 -0.00140942 0)
(0.114295 -0.0013569 0)
(0.114827 -0.00130403 0)
(0.115338 -0.00125083 0)
(0.115828 -0.00119733 0)
(0.116297 -0.00114355 0)
(0.116744 -0.00108952 0)
(0.117169 -0.00103526 0)
(0.117572 -0.000980799 0)
(0.117954 -0.000926165 0)
(0.118314 -0.000871383 0)
(0.118651 -0.000816479 0)
(0.118967 -0.000761477 0)
(0.119261 -0.0007064 0)
(0.119532 -0.000651271 0)
(0.119782 -0.000596113 0)
(0.120009 -0.00054095 0)
(0.120214 -0.000485804 0)
(0.120398 -0.0004307 0)
(0.120559 -0.000375661 0)
(0.120698 -0.000320709 0)
(0.120815 -0.000265866 0)
(0.120911 -0.000211155 0)
(0.120984 -0.000156594 0)
(0.121036 -0.000102204 0)
(0.121065 -4.80033e-05 0)
(0.121074 5.99012e-06 0)
(0.12106 5.97584e-05 0)
(0.121025 0.000113282 0)
(0.120969 0.000166542 0)
(0.120892 0.000219519 0)
(0.120793 0.000272196 0)
(0.120673 0.000324558 0)
(0.120533 0.000376594 0)
(0.120371 0.000428291 0)
(0.12019 0.000479639 0)
(0.119987 0.000530624 0)
(0.119764 0.000581235 0)
(0.119521 0.000631458 0)
(0.119258 0.000681281 0)
(0.118976 0.000730691 0)
(0.118673 0.000779677 0)
(0.118351 0.00082823 0)
(0.11801 0.000876339 0)
(0.117649 0.000923998 0)
(0.11727 0.0009712 0)
(0.116872 0.00101794 0)
(0.116455 0.00106421 0)
(0.116019 0.00111 0)
(0.115566 0.00115531 0)
(0.115094 0.00120014 0)
(0.114605 0.00124446 0)
(0.114098 0.00128828 0)
(0.113573 0.00133159 0)
(0.113032 0.0013744 0)
(0.112473 0.00141669 0)
(0.111897 0.00145846 0)
(0.111305 0.00149973 0)
(0.110697 0.00154047 0)
(0.110072 0.00158069 0)
(0.109431 0.00162037 0)
(0.108775 0.00165951 0)
(0.108102 0.00169812 0)
(0.107415 0.00173618 0)
(0.106713 0.0017737 0)
(0.105995 0.00181069 0)
(0.105263 0.00184713 0)
(0.104516 0.00188304 0)
(0.103756 0.0019184 0)
(0.102981 0.00195321 0)
(0.102192 0.00198748 0)
(0.10139 0.0020212 0)
(0.100574 0.00205438 0)
(0.0997453 0.002087 0)
(0.0989036 0.00211908 0)
(0.0980491 0.00215061 0)
(0.0971821 0.00218159 0)
(0.0963028 0.00221202 0)
(0.0954115 0.00224191 0)
(0.0945083 0.00227126 0)
(0.0935935 0.00230006 0)
(0.0926673 0.00232832 0)
(0.0917299 0.00235603 0)
(0.0907815 0.00238321 0)
(0.0898223 0.00240984 0)
(0.0888526 0.00243594 0)
(0.0878726 0.0024615 0)
(0.0868825 0.00248654 0)
(0.0858824 0.00251104 0)
(0.0848727 0.00253501 0)
(0.0838535 0.00255845 0)
(0.082825 0.00258138 0)
(0.0817874 0.00260378 0)
(0.080741 0.00262567 0)
(0.0796859 0.00264705 0)
(0.0786224 0.00266792 0)
(0.0775507 0.00268829 0)
(0.0764709 0.00270816 0)
(0.0753833 0.00272753 0)
(0.074288 0.00274641 0)
(0.0731853 0.0027648 0)
(0.0720753 0.00278271 0)
(0.0709582 0.00280015 0)
(0.0698343 0.00281711 0)
(0.0687037 0.00283361 0)
(0.0675666 0.00284965 0)
(0.0664231 0.00286523 0)
(0.0652736 0.00288036 0)
(0.064118 0.00289505 0)
(0.0629567 0.0029093 0)
(0.0617898 0.00292312 0)
(0.0606174 0.00293652 0)
(0.0594398 0.0029495 0)
(0.0582571 0.00296207 0)
(0.0570694 0.00297423 0)
(0.055877 0.002986 0)
(0.0546799 0.00299738 0)
(0.0534784 0.00300837 0)
(0.0522725 0.00301898 0)
(0.0510625 0.00302923 0)
(0.0498485 0.0030391 0)
(0.0486306 0.00304863 0)
(0.0474089 0.0030578 0)
(0.0461837 0.00306663 0)
(0.044955 0.00307512 0)
(0.043723 0.00308328 0)
(0.0424878 0.00309113 0)
(0.0412495 0.00309866 0)
(0.0400083 0.00310588 0)
(0.0387643 0.0031128 0)
(0.0375175 0.00311942 0)
(0.0362682 0.00312575 0)
(0.0350164 0.0031318 0)
(0.0337623 0.00313757 0)
(0.0325059 0.00314307 0)
(0.0312473 0.00314831 0)
(0.0299867 0.00315329 0)
(0.0287242 0.00315802 0)
(0.0274599 0.0031625 0)
(0.0261938 0.00316674 0)
(0.024926 0.00317074 0)
(0.0236567 0.0031745 0)
(0.022386 0.00317805 0)
(0.0211139 0.00318137 0)
(0.0198405 0.00318447 0)
(0.0185659 0.00318735 0)
(0.0172902 0.00319003 0)
(0.0160135 0.0031925 0)
(0.0147359 0.00319477 0)
(0.0134573 0.00319683 0)
(0.012178 0.0031987 0)
(0.010898 0.00320038 0)
(0.00961737 0.00320187 0)
(0.00833617 0.00320316 0)
(0.00705449 0.00320427 0)
(0.00577241 0.00320519 0)
(0.00448999 0.00320593 0)
(0.00320732 0.00320648 0)
(0.00192448 0.00320685 0)
(0.000641513 0.00320704 0)
(0.000711739 -0.00498084 0)
(0.0021352 -0.00498056 0)
(0.00355856 -0.00497997 0)
(0.00498169 -0.00497907 0)
(0.00640451 -0.00497786 0)
(0.00782695 -0.00497632 0)
(0.00924891 -0.00497446 0)
(0.0106703 -0.00497227 0)
(0.012091 -0.00496975 0)
(0.013511 -0.00496689 0)
(0.0149301 -0.0049637 0)
(0.0163482 -0.00496016 0)
(0.0177654 -0.00495626 0)
(0.0191813 -0.004952 0)
(0.020596 -0.00494736 0)
(0.0220093 -0.00494234 0)
(0.0234212 -0.00493692 0)
(0.0248314 -0.0049311 0)
(0.02624 -0.00492485 0)
(0.0276467 -0.00491818 0)
(0.0290515 -0.00491105 0)
(0.0304542 -0.00490347 0)
(0.0318546 -0.00489542 0)
(0.0332527 -0.00488687 0)
(0.0346484 -0.00487782 0)
(0.0360414 -0.00486826 0)
(0.0374316 -0.00485816 0)
(0.0388188 -0.0048475 0)
(0.040203 -0.00483627 0)
(0.0415838 -0.00482446 0)
(0.0429613 -0.00481204 0)
(0.0443351 -0.004799 0)
(0.0457051 -0.00478531 0)
(0.0470712 -0.00477097 0)
(0.0484331 -0.00475594 0)
(0.0497906 -0.00474021 0)
(0.0511435 -0.00472377 0)
(0.0524917 -0.00470659 0)
(0.0538348 -0.00468865 0)
(0.0551728 -0.00466993 0)
(0.0565053 -0.00465043 0)
(0.0578322 -0.0046301 0)
(0.0591531 -0.00460895 0)
(0.0604679 -0.00458695 0)
(0.0617764 -0.00456408 0)
(0.0630782 -0.00454032 0)
(0.0643731 -0.00451566 0)
(0.0656608 -0.00449008 0)
(0.0669411 -0.00446356 0)
(0.0682137 -0.00443608 0)
(0.0694784 -0.00440762 0)
(0.0707348 -0.00437818 0)
(0.0719826 -0.00434773 0)
(0.0732217 -0.00431627 0)
(0.0744516 -0.00428378 0)
(0.0756721 -0.00425024 0)
(0.0768829 -0.00421566 0)
(0.0780836 -0.00418001 0)
(0.0792741 -0.00414329 0)
(0.0804539 -0.00410549 0)
(0.0816227 -0.0040666 0)
(0.0827803 -0.0040266 0)
(0.0839263 -0.0039855 0)
(0.0850605 -0.0039433 0)
(0.0861824 -0.00389998 0)
(0.0872917 -0.00385554 0)
(0.0883882 -0.00381 0)
(0.0894716 -0.00376335 0)
(0.0905414 -0.00371558 0)
(0.0915975 -0.0036667 0)
(0.0926394 -0.00361671 0)
(0.0936669 -0.00356562 0)
(0.0946796 -0.00351343 0)
(0.0956772 -0.00346016 0)
(0.0966594 -0.00340581 0)
(0.0976259 -0.00335039 0)
(0.0985765 -0.00329392 0)
(0.0995107 -0.00323642 0)
(0.100428 -0.00317789 0)
(0.101329 -0.00311836 0)
(0.102213 -0.00305784 0)
(0.103079 -0.00299636 0)
(0.103927 -0.00293391 0)
(0.104758 -0.00287054 0)
(0.10557 -0.00280625 0)
(0.106363 -0.00274108 0)
(0.107138 -0.00267505 0)
(0.107894 -0.00260818 0)
(0.108631 -0.00254051 0)
(0.109348 -0.00247206 0)
(0.110045 -0.00240287 0)
(0.110722 -0.00233296 0)
(0.11138 -0.00226237 0)
(0.112017 -0.00219111 0)
(0.112633 -0.00211923 0)
(0.113229 -0.00204675 0)
(0.113804 -0.00197371 0)
(0.114358 -0.00190015 0)
(0.114891 -0.0018261 0)
(0.115403 -0.00175159 0)
(0.115893 -0.00167665 0)
(0.116362 -0.00160133 0)
(0.116809 -0.00152565 0)
(0.117235 -0.00144965 0)
(0.117638 -0.00137337 0)
(0.11802 -0.00129685 0)
(0.11838 -0.00122012 0)
(0.118718 -0.00114322 0)
(0.119034 -0.00106618 0)
(0.119327 -0.000989035 0)
(0.119599 -0.00091182 0)
(0.119848 -0.000834565 0)
(0.120076 -0.000757303 0)
(0.120281 -0.000680067 0)
(0.120464 -0.000602889 0)
(0.120625 -0.000525802 0)
(0.120764 -0.000448839 0)
(0.120882 -0.00037203 0)
(0.120977 -0.000295404 0)
(0.12105 -0.000218992 0)
(0.121101 -0.000142819 0)
(0.121131 -6.69117e-05 0)
(0.121139 8.70397e-06 0)
(0.121125 8.40029e-05 0)
(0.12109 0.000158958 0)
(0.121033 0.000233544 0)
(0.120956 0.000307733 0)
(0.120857 0.000381503 0)
(0.120737 0.000454833 0)
(0.120596 0.000527704 0)
(0.120434 0.000600102 0)
(0.120251 0.000672008 0)
(0.120049 0.000743406 0)
(0.119825 0.000814278 0)
(0.119582 0.000884606 0)
(0.119319 0.000954371 0)
(0.119035 0.00102356 0)
(0.118732 0.00109215 0)
(0.11841 0.00116014 0)
(0.118068 0.0012275 0)
(0.117707 0.00129424 0)
(0.117327 0.00136033 0)
(0.116928 0.00142578 0)
(0.11651 0.00149056 0)
(0.116074 0.00155468 0)
(0.11562 0.00161813 0)
(0.115148 0.00168089 0)
(0.114658 0.00174295 0)
(0.11415 0.0018043 0)
(0.113625 0.00186495 0)
(0.113083 0.00192488 0)
(0.112524 0.00198409 0)
(0.111948 0.00204258 0)
(0.111355 0.00210035 0)
(0.110746 0.0021574 0)
(0.11012 0.0022137 0)
(0.109479 0.00226926 0)
(0.108822 0.00232407 0)
(0.108149 0.00237812 0)
(0.107461 0.00243141 0)
(0.106758 0.00248395 0)
(0.10604 0.00253573 0)
(0.105307 0.00258675 0)
(0.10456 0.00263701 0)
(0.103798 0.00268652 0)
(0.103023 0.00273526 0)
(0.102233 0.00278324 0)
(0.10143 0.00283045 0)
(0.100614 0.0028769 0)
(0.0997846 0.00292257 0)
(0.0989422 0.00296748 0)
(0.098087 0.00301162 0)
(0.0972194 0.00305499 0)
(0.0963394 0.0030976 0)
(0.0954475 0.00313944 0)
(0.0945436 0.00318053 0)
(0.0936281 0.00322085 0)
(0.0927013 0.00326041 0)
(0.0917632 0.00329921 0)
(0.0908142 0.00333725 0)
(0.0898544 0.00337454 0)
(0.088884 0.00341107 0)
(0.0879033 0.00344686 0)
(0.0869126 0.0034819 0)
(0.0859119 0.00351619 0)
(0.0849015 0.00354975 0)
(0.0838817 0.00358257 0)
(0.0828525 0.00361466 0)
(0.0818144 0.00364602 0)
(0.0807673 0.00367666 0)
(0.0797117 0.00370658 0)
(0.0786475 0.0037358 0)
(0.0775752 0.00376431 0)
(0.0764948 0.00379212 0)
(0.0754066 0.00381924 0)
(0.0743107 0.00384566 0)
(0.0732074 0.00387141 0)
(0.0720968 0.00389647 0)
(0.0709792 0.00392087 0)
(0.0698547 0.00394462 0)
(0.0687235 0.00396771 0)
(0.0675858 0.00399015 0)
(0.0664419 0.00401196 0)
(0.0652917 0.00403314 0)
(0.0641357 0.00405369 0)
(0.0629738 0.00407363 0)
(0.0618064 0.00409297 0)
(0.0606335 0.00411172 0)
(0.0594554 0.00412988 0)
(0.0582722 0.00414747 0)
(0.057084 0.00416449 0)
(0.0558911 0.00418096 0)
(0.0546936 0.00419687 0)
(0.0534916 0.00421225 0)
(0.0522853 0.0042271 0)
(0.0510748 0.00424143 0)
(0.0498603 0.00425525 0)
(0.048642 0.00426857 0)
(0.0474199 0.0042814 0)
(0.0461943 0.00429375 0)
(0.0449652 0.00430564 0)
(0.0437328 0.00431706 0)
(0.0424972 0.00432803 0)
(0.0412585 0.00433856 0)
(0.040017 0.00434866 0)
(0.0387726 0.00435833 0)
(0.0375255 0.0043676 0)
(0.0362758 0.00437645 0)
(0.0350237 0.00438491 0)
(0.0337692 0.00439299 0)
(0.0325124 0.00440068 0)
(0.0312536 0.00440801 0)
(0.0299927 0.00441497 0)
(0.0287299 0.00442158 0)
(0.0274652 0.00442784 0)
(0.0261988 0.00443377 0)
(0.0249308 0.00443936 0)
(0.0236612 0.00444463 0)
(0.0223902 0.00444958 0)
(0.0211178 0.00445422 0)
(0.0198442 0.00445856 0)
(0.0185693 0.0044626 0)
(0.0172934 0.00446634 0)
(0.0160164 0.00446979 0)
(0.0147385 0.00447296 0)
(0.0134598 0.00447585 0)
(0.0121802 0.00447847 0)
(0.0108999 0.00448081 0)
(0.00961907 0.00448288 0)
(0.00833764 0.0044847 0)
(0.00705573 0.00448624 0)
(0.00577342 0.00448753 0)
(0.00449078 0.00448857 0)
(0.00320788 0.00448934 0)
(0.00192481 0.00448986 0)
(0.000641625 0.00449012 0)
(0.000711921 -0.00640449 0)
(0.00213575 -0.00640412 0)
(0.00355946 -0.00640337 0)
(0.00498295 -0.00640221 0)
(0.00640614 -0.00640065 0)
(0.00782895 -0.00639868 0)
(0.00925128 -0.0063963 0)
(0.010673 -0.00639349 0)
(0.0120941 -0.00639026 0)
(0.0135145 -0.00638661 0)
(0.014934 -0.00638251 0)
(0.0163526 -0.00637797 0)
(0.0177701 -0.00637297 0)
(0.0191865 -0.00636751 0)
(0.0206016 -0.00636157 0)
(0.0220154 -0.00635513 0)
(0.0234277 -0.00634818 0)
(0.0248385 -0.00634072 0)
(0.0262475 -0.00633271 0)
(0.0276547 -0.00632415 0)
(0.02906 -0.00631501 0)
(0.0304632 -0.00630529 0)
(0.0318643 -0.00629496 0)
(0.033263 -0.006284 0)
(0.0346592 -0.00627239 0)
(0.0360528 -0.00626012 0)
(0.0374436 -0.00624716 0)
(0.0388315 -0.00623349 0)
(0.0402163 -0.00621909 0)
(0.0415979 -0.00620393 0)
(0.042976 -0.00618799 0)
(0.0443506 -0.00617125 0)
(0.0457214 -0.00615369 0)
(0.0470882 -0.00613527 0)
(0.0484509 -0.00611599 0)
(0.0498092 -0.0060958 0)
(0.051163 -0.0060747 0)
(0.052512 -0.00605264 0)
(0.0538561 -0.00602961 0)
(0.0551949 -0.00600558 0)
(0.0565284 -0.00598052 0)
(0.0578562 -0.00595443 0)
(0.0591781 -0.00592726 0)
(0.0604939 -0.00589901 0)
(0.0618033 -0.00586963 0)
(0.0631061 -0.00583912 0)
(0.0644021 -0.00580745 0)
(0.0656909 -0.00577458 0)
(0.0669723 -0.00574051 0)
(0.068246 -0.00570521 0)
(0.0695118 -0.00566865 0)
(0.0707694 -0.00563082 0)
(0.0720184 -0.0055917 0)
(0.0732586 -0.00555127 0)
(0.0744897 -0.00550951 0)
(0.0757114 -0.00546642 0)
(0.0769234 -0.00542197 0)
(0.0781254 -0.00537615 0)
(0.0793171 -0.00532896 0)
(0.0804981 -0.00528037 0)
(0.0816682 -0.00523037 0)
(0.0828271 -0.00517896 0)
(0.0839744 -0.00512613 0)
(0.0851098 -0.00507187 0)
(0.086233 -0.00501617 0)
(0.0873436 -0.00495905 0)
(0.0884414 -0.00490049 0)
(0.089526 -0.0048405 0)
(0.0905972 -0.00477908 0)
(0.0916545 -0.00471623 0)
(0.0926976 -0.00465195 0)
(0.0937264 -0.00458625 0)
(0.0947403 -0.00451914 0)
(0.0957392 -0.00445063 0)
(0.0967226 -0.00438073 0)
(0.0976904 -0.00430945 0)
(0.0986421 -0.00423683 0)
(0.0995775 -0.00416287 0)
(0.100496 -0.00408759 0)
(0.101398 -0.00401103 0)
(0.102283 -0.00393318 0)
(0.10315 -0.00385409 0)
(0.104 -0.00377377 0)
(0.104831 -0.00369225 0)
(0.105644 -0.00360956 0)
(0.106439 -0.00352572 0)
(0.107215 -0.00344078 0)
(0.107971 -0.00335476 0)
(0.108709 -0.00326771 0)
(0.109427 -0.00317966 0)
(0.110125 -0.00309065 0)
(0.110803 -0.00300071 0)
(0.111461 -0.00290989 0)
(0.112099 -0.00281822 0)
(0.112716 -0.00272574 0)
(0.113313 -0.0026325 0)
(0.113889 -0.00253853 0)
(0.114443 -0.0024439 0)
(0.114977 -0.00234863 0)
(0.115489 -0.00225277 0)
(0.11598 -0.00215637 0)
(0.116449 -0.00205946 0)
(0.116897 -0.0019621 0)
(0.117322 -0.00186433 0)
(0.117726 -0.00176619 0)
(0.118108 -0.00166775 0)
(0.118468 -0.00156903 0)
(0.118806 -0.0014701 0)
(0.119122 -0.00137099 0)
(0.119416 -0.00127174 0)
(0.119688 -0.00117241 0)
(0.119937 -0.00107302 0)
(0.120165 -0.00097363 0)
(0.12037 -0.000874271 0)
(0.120553 -0.000774987 0)
(0.120714 -0.000675822 0)
(0.120853 -0.000576817 0)
(0.12097 -0.000478011 0)
(0.121065 -0.000379443 0)
(0.121138 -0.00028115 0)
(0.121189 -0.000183166 0)
(0.121218 -8.55269e-05 0)
(0.121226 1.17361e-05 0)
(0.121212 0.000108589 0)