/*--------------------------------*- C++ -*----------------------------------*\
| =========                 |                                                 |
| \\      /  F ield         | OpenFOAM: The Open Source CFD Toolbox           |
|  \\    /   O peration     | Version:  v2012                                 |
|   \\  /    A nd           | Website:  www.openfoam.com                      |
|    \\/     M anipulation  |                                                 |
\*---------------------------------------------------------------------------*/
FoamFile
{
    version     2.0;
    format      ascii;
    class       volVectorField;
    location    "0";
    object      U;
}
// * * * * * * * * * * * * * * * * * * * * * * * * * * * * * * * * * * * * * //

dimensions      [0 1 -1 0 0 0 0];


internalField   nonuniform List<vector> 
4000
(
(1 2.8115e-15 0)
(1 3.2451e-15 0)
(1 -1.00805e-15 0)
(1 4.48096e-15 0)
(1 -4.24766e-15 0)
(1 -1.48893e-16 0)
(1 4.37254e-15 0)
(1 -2.48071e-15 0)
(1 -8.31356e-16 0)
(1 -6.26497e-15 0)
(1 -1.58618e-15 0)
(1 -1.6842e-15 0)
(1 7.50402e-15 0)
(1 2.9393e-15 0)
(1 -4.16509e-15 0)
(1 -1.19831e-15 0)
(1 1.92702e-15 0)
(1 -5.36765e-15 0)
(1 -1.32132e-15 0)
(1 5.41022e-16 0)
(1 -5.09295e-16 0)
(1 1.8669e-17 0)
(1 -1.20351e-15 0)
(1 1.10805e-15 0)
(1 -4.57197e-16 0)
(1 -3.45419e-15 0)
(1 -1.99043e-15 0)
(1 1.16408e-16 0)
(1 -1.4426e-15 0)
(1 3.53963e-15 0)
(1 -1.71868e-15 0)
(1 -1.77386e-16 0)
(1 -2.06997e-15 0)
(1 5.04989e-15 0)
(1 5.37114e-17 0)
(1 6.79011e-15 0)
(1 5.98905e-15 0)
(1 6.85597e-15 0)
(1 -1.72001e-15 0)
(1 -4.25755e-15 0)
(1 -3.35958e-15 0)
(1 -7.48861e-15 0)
(1 2.57563e-16 0)
(1 3.01109e-15 0)
(1 3.28784e-15 0)
(1 -3.01327e-15 0)
(1 2.51606e-16 0)
(1 1.83083e-16 0)
(1 2.9487e-15 0)
(1 3.05403e-15 0)
(1 1.46525e-16 0)
(1 1.3836e-15 0)
(1 -2.18824e-16 0)
(1 2.87789e-15 0)
(1 3.03131e-15 0)
(1 2.32705e-15 0)
(1 -2.74914e-15 0)
(1 3.49553e-15 0)
(1 5.01136e-16 0)
(1 3.21284e-15 0)
(1 -1.35244e-15 0)
(1 1.12176e-15 0)
(1 -3.49316e-15 0)
(1 -1.69445e-15 0)
(1 -2.17076e-15 0)
(1 1.20619e-15 0)
(1 1.2324e-15 0)
(1 1.61781e-15 0)
(1 -1.25156e-15 0)
(1 -1.03548e-15 0)
(1 -3.51432e-15 0)
(1 -4.19635e-15 0)
(1 -2.7163e-15 0)
(1 -1.54138e-15 0)
(1 -3.41772e-15 0)
(1 -2.52976e-15 0)
(1 -6.31183e-15 0)
(1 -2.85696e-16 0)
(1 1.02814e-15 0)
(1 1.90662e-15 0)
(1 4.14123e-15 0)
(1 1.42643e-15 0)
(1 -2.4161e-15 0)
(1 1.27475e-15 0)
(1 8.68791e-16 0)
(1 -1.84321e-15 0)
(1 -1.17067e-15 0)
(1 1.62009e-16 0)
(1 5.87303e-16 0)
(1 4.22373e-15 0)
(1 4.83021e-16 0)
(1 3.38001e-15 0)
(1 2.04768e-15 0)
(1 8.93879e-16 0)
(1 -1.53931e-15 0)
(1 -1.92179e-15 0)
(1 -1.11311e-15 0)
(1 1.06823e-15 0)
(1 3.65889e-17 0)
(1 -9.55607e-16 0)
(1 3.46246e-15 0)
(1 3.01761e-15 0)
(1 1.45152e-16 0)
(1 3.6438e-15 0)
(1 -2.27255e-15 0)
(1 -4.02968e-15 0)
(1 2.27282e-15 0)
(1 -4.02629e-15 0)
(1 2.25096e-15 0)
(1 -1.71645e-15 0)
(1 -4.54041e-15 0)
(1 -4.37739e-15 0)
(1 8.01337e-15 0)
(1 5.63633e-15 0)
(1 6.84367e-17 0)
(1 -1.35833e-16 0)
(1 2.68346e-15 0)
(1 3.27749e-16 0)
(1 4.65011e-16 0)
(1 -7.89005e-16 0)
(1 -3.34913e-15 0)
(1 -1.32577e-15 0)
(1 -2.50335e-15 0)
(1 2.1917e-15 0)
(1 -3.45067e-15 0)
(1 -4.56207e-15 0)
(1 -3.87441e-15 0)
(1 -2.19784e-15 0)
(1 -6.41278e-16 0)
(1 -3.86518e-16 0)
(1 -1.87011e-15 0)
(1 6.23927e-17 0)
(1 -1.38326e-15 0)
(1 3.89183e-15 0)
(1 -4.80328e-15 0)
(1 1.01276e-14 0)
(1 7.59368e-15 0)
(1 6.07471e-15 0)
(1 -4.62504e-15 0)
(1 -2.2176e-15 0)
(1 -6.3735e-15 0)
(1 -5.87865e-15 0)
(1 8.48859e-16 0)
(1 3.15095e-15 0)
(1 -3.66956e-15 0)
(1 -6.72692e-15 0)
(1 -1.05952e-15 0)
(1 5.01359e-15 0)
(1 7.46188e-15 0)
(1 2.36227e-15 0)
(1 -1.42875e-15 0)
(1 -3.02015e-15 0)
(1 -1.50777e-15 0)
(1 -1.77501e-15 0)
(1 3.5733e-15 0)
(1 5.38925e-15 0)
(1 -1.75324e-15 0)
(1 -7.40241e-16 0)
(1 -8.78993e-16 0)
(1 -1.94483e-15 0)
(1 -2.94563e-15 0)
(1 -2.41561e-16 0)
(1 1.99655e-15 0)
(1 3.19196e-15 0)
(1 -9.23317e-16 0)
(1 4.20908e-15 0)
(1 -2.68734e-16 0)
(1 2.64588e-15 0)
(1 -6.1798e-16 0)
(1 -5.29102e-15 0)
(1 -1.99678e-15 0)
(1 7.38394e-16 0)
(1 7.82719e-15 0)
(1 5.54057e-15 0)
(1 9.90339e-16 0)
(1 -3.43611e-15 0)
(1 -3.77777e-15 0)
(1 -3.65307e-16 0)
(1 5.66568e-16 0)
(1 3.48524e-15 0)
(1 6.53947e-15 0)
(1 5.72208e-16 0)
(1 -4.11127e-15 0)
(1 2.05638e-15 0)
(1 2.23252e-15 0)
(1 6.78373e-16 0)
(1 -1.3055e-15 0)
(1 -3.50847e-15 0)
(1 -3.19533e-15 0)
(1 7.22246e-16 0)
(1 1.43702e-15 0)
(1 1.45115e-15 0)
(1 2.87914e-16 0)
(1 6.8604e-16 0)
(1 -6.23384e-15 0)
(1 -6.66147e-16 0)
(1 -9.38861e-16 0)
(1 2.8347e-15 0)
(1 -5.369e-16 0)
(1 -6.64598e-16 0)
(1 -3.38829e-15 0)
(1 4.58952e-15 0)
(1 -7.69971e-15 0)
(1 4.39691e-15 0)
(1 4.62124e-16 0)
(1 9.77838e-16 0)
(1 2.0626e-15 0)
(1 6.29957e-15 0)
(1 9.92473e-16 0)
(1 -2.85131e-15 0)
(1 -5.75191e-15 0)
(1 -6.18242e-16 0)
(1 4.65903e-15 0)
(1 6.80518e-15 0)
(1 1.19504e-16 0)
(1 -2.43547e-16 0)
(1 -1.32613e-16 0)
(1 -1.31119e-15 0)
(1 1.23129e-15 0)
(1 1.91964e-15 0)
(1 -6.2345e-16 0)
(1 -3.51164e-15 0)
(1 4.85123e-16 0)
(1 2.78502e-15 0)
(1 -2.69972e-16 0)
(1 4.18789e-15 0)
(1 7.60495e-15 0)
(1 6.88352e-15 0)
(1 2.37378e-15 0)
(1 -3.83507e-15 0)
(1 -1.79951e-15 0)
(1 -3.64349e-15 0)
(1 -1.16907e-15 0)
(1 -8.44796e-15 0)
(1 -1.63858e-15 0)
(1 9.03503e-15 0)
(1 1.75864e-15 0)
(1 3.53207e-15 0)
(1 4.86162e-15 0)
(1 4.19751e-15 0)
(1 6.1336e-15 0)
(1 -3.11521e-15 0)
(1 -1.26645e-15 0)
(1 -3.56553e-15 0)
(1 -2.89055e-15 0)
(1 -1.47026e-15 0)
(1 1.68477e-15 0)
(1 6.05917e-15 0)
(1 2.75495e-16 0)
(1 -3.33712e-15 0)
(1 -2.19595e-15 0)
(1 -2.42236e-15 0)
(1 3.43809e-15 0)
(1 -1.14495e-15 0)
(1 2.64092e-15 0)
(1 3.35632e-15 0)
(1 1.55673e-15 0)
(1 -6.97949e-16 0)
(1 -2.57234e-15 0)
(1 -5.40825e-15 0)
(1 3.95094e-16 0)
(1 -2.11346e-15 0)
(1 1.02895e-15 0)
(1 4.59772e-15 0)
(1 8.13892e-16 0)
(1 2.68009e-15 0)
(1 3.78272e-16 0)
(1 -4.46841e-16 0)
(1 -1.73521e-15 0)
(1 -2.48104e-15 0)
(1 -1.67626e-16 0)
(1 -3.16646e-15 0)
(1 2.1937e-15 0)
(1 -3.30344e-16 0)
(1 -3.84125e-16 0)
(1 -1.76689e-15 0)
(1 -2.08354e-15 0)
(1 -1.19055e-15 0)
(1 -5.46318e-16 0)
(1 -7.23883e-17 0)
(1 1.9605e-15 0)
(1 1.82907e-15 0)
(1 -1.9694e-15 0)
(1 -1.03695e-16 0)
(1 -1.35629e-17 0)
(1 3.34469e-15 0)
(1 2.7357e-15 0)
(1 -8.21327e-16 0)
(1 -3.21683e-15 0)
(1 -8.2153e-17 0)
(1 1.84876e-17 0)
(1 5.88813e-16 0)
(1 -1.80164e-15 0)
(1 -5.78624e-16 0)
(1 -3.23055e-15 0)
(1 3.65279e-17 0)
(1 -3.24232e-15 0)
(1 -1.48854e-15 0)
(1 1.22848e-15 0)
(1 6.68627e-16 0)
(1 -6.15901e-16 0)
(1 -2.17228e-15 0)
(1 -7.99088e-15 0)
(1 -4.02643e-15 0)
(1 3.53298e-15 0)
(1 4.6105e-15 0)
(1 6.85766e-15 0)
(1 5.73441e-15 0)
(1 -1.75168e-15 0)
(1 -3.02197e-15 0)
(1 -4.38792e-15 0)
(1 5.37808e-15 0)
(1 7.09582e-15 0)
(1 1.1716e-14 0)
(1 -2.17412e-15 0)
(1 -3.91058e-15 0)
(1 2.80913e-15 0)
(1 -4.95225e-15 0)
(1 -4.6205e-15 0)
(1 3.88442e-15 0)
(1 5.30513e-15 0)
(1 -6.7241e-16 0)
(1 7.83596e-15 0)
(1 1.19148e-14 0)
(1 8.9288e-15 0)
(1 3.00539e-15 0)
(1 -9.34853e-16 0)
(1 3.23353e-15 0)
(1 1.52538e-15 0)
(1 -1.0688e-15 0)
(1 -7.64698e-15 0)
(1 -3.20327e-15 0)
(1 -7.11874e-15 0)
(1 -1.0619e-14 0)
(1 -1.2795e-15 0)
(1 6.38721e-17 0)
(1 4.31798e-15 0)
(1 6.92253e-15 0)
(1 1.27387e-14 0)
(1 6.28493e-16 0)
(1 1.05473e-14 0)
(1 -6.13351e-15 0)
(1 -5.94458e-15 0)
(1 -9.55028e-15 0)
(1 5.1172e-15 0)
(1 5.38338e-15 0)
(1 9.2744e-15 0)
(1 4.26504e-15 0)
(1 4.06366e-15 0)
(1 -3.5607e-16 0)
(1 -2.41949e-15 0)
(1 1.18767e-15 0)
(1 -1.45624e-15 0)
(1 1.92059e-15 0)
(1 -2.60973e-15 0)
(1 -5.76172e-15 0)
(1 3.27531e-15 0)
(1 5.03403e-15 0)
(1 -7.55495e-15 0)
(1 -1.5587e-16 0)
(1 1.63197e-15 0)
(1 -2.82953e-15 0)
(1 3.39288e-16 0)
(1 1.27321e-15 0)
(1 3.51994e-15 0)
(1 -2.73987e-16 0)
(1 -3.30958e-17 0)
(1 -5.54564e-15 0)
(1 -2.24066e-15 0)
(1 8.17764e-16 0)
(1 -3.46801e-15 0)
(1 -8.76257e-15 0)
(1 -7.76859e-15 0)
(1 -9.54189e-15 0)
(1 -3.26801e-15 0)
(1 1.80608e-15 0)
(1 6.30044e-16 0)
(1 1.04703e-15 0)
(1 6.24894e-15 0)
(1 7.9816e-16 0)
(1 9.55673e-16 0)
(1 4.03692e-15 0)
(1 1.66499e-15 0)
(1 -1.43875e-15 0)
(1 -3.34468e-16 0)
(1 1.65256e-15 0)
(1 9.35777e-15 0)
(1 6.24053e-15 0)
(1 4.17599e-15 0)
(1 3.27443e-15 0)
(1 -1.79278e-15 0)
(1 1.30233e-15 0)
(1 7.61267e-16 0)
(1 -7.65977e-16 0)
(1 -2.04485e-15 0)
(1 -5.28809e-15 0)
(1 -5.34123e-15 0)
(1 -5.62355e-15 0)
(1 -3.6905e-15 0)
(1 8.55229e-16 0)
(1 5.10896e-15 0)
(1 -3.8198e-15 0)
(1 8.14704e-16 0)
(1 -2.90025e-15 0)
(1 9.38904e-15 0)
(1 4.02133e-15 0)
(1 -3.50714e-15 0)
(1 -6.08979e-15 0)
(1 -8.15628e-15 0)
(1 -4.07485e-15 0)
(1 3.43078e-15 0)
(1 2.37523e-15 0)
(1 2.43501e-15 0)
(1 2.374e-15 0)
(1 1.06998e-14 0)
(1 4.22251e-16 0)
(1 -2.41685e-15 0)
(1 -1.956e-15 0)
(1 -1.12017e-15 0)
(1 -1.03279e-14 0)
(1 2.78357e-15 0)
(1 7.74179e-16 0)
(1 6.35494e-15 0)
(1 9.28853e-15 0)
(1 1.28071e-14 0)
(1 1.01297e-14 0)
(1 5.10393e-15 0)
(1 6.44933e-16 0)
(1 4.86153e-15 0)
(1 1.19011e-15 0)
(1 -4.67895e-15 0)
(1 -2.85054e-15 0)
(1 -6.90468e-15 0)
(1 3.26111e-15 0)
(1 -8.60135e-15 0)
(1 -1.02898e-14 0)
(1 1.3996e-15 0)
(1 1.73817e-16 0)
(1 5.95361e-15 0)
(1 2.2511e-15 0)
(1 2.24808e-15 0)
(1 2.90469e-15 0)
(1 -5.10278e-15 0)
(1 -3.88194e-15 0)
(1 -4.82597e-15 0)
(1 2.3647e-15 0)
(1 5.83833e-15 0)
(1 5.64394e-15 0)
(1 8.14915e-15 0)
(1 1.10473e-15 0)
(1 -1.59657e-16 0)
(1 -3.74803e-15 0)
(1 -7.1089e-15 0)
(1 -1.37516e-15 0)
(1 -4.53517e-15 0)
(1 -3.28099e-15 0)
(1 6.62975e-15 0)
(1 5.18843e-15 0)
(1 1.70449e-16 0)
(1 5.32157e-15 0)
(1 1.64581e-15 0)
(1 -2.05081e-15 0)
(1 5.52842e-15 0)
(1 3.48534e-15 0)
(1 6.07123e-15 0)
(1 4.18656e-15 0)
(1 6.04438e-16 0)
(1 -6.2456e-15 0)
(1 -1.23535e-15 0)
(1 -3.30303e-16 0)
(1 -6.79612e-15 0)
(1 -7.54502e-16 0)
(1 9.99121e-17 0)
(1 -4.66677e-15 0)
(1 1.41133e-15 0)
(1 -1.0953e-16 0)
(1 -8.62833e-16 0)
(1 -5.27348e-15 0)
(1 4.34448e-15 0)
(1 7.32599e-15 0)
(1 1.85492e-15 0)
(1 -3.81235e-16 0)
(1 4.23694e-15 0)
(1 3.2298e-15 0)
(1 5.62335e-15 0)
(1 2.12329e-15 0)
(1 6.94278e-15 0)
(1 2.66404e-15 0)
(1 3.38307e-15 0)
(1 -2.11756e-15 0)
(1 1.98701e-15 0)
(1 -2.60325e-15 0)
(1 3.212e-15 0)
(1 5.81784e-16 0)
(1 1.31097e-15 0)
(1 -2.1693e-15 0)
(1 -3.90997e-15 0)
(1 -4.92741e-15 0)
(1 1.21948e-16 0)
(1 4.33073e-15 0)
(1 -8.14155e-16 0)
(1 1.36495e-15 0)
(1 7.53966e-16 0)
(1 1.32172e-15 0)
(1 -9.06642e-16 0)
(1 7.54516e-15 0)
(1 -6.30021e-15 0)
(1 -6.85772e-15 0)
(1 -8.59842e-15 0)
(1 -5.89269e-15 0)
(1 8.62101e-15 0)
(1 2.06456e-15 0)
(1 3.00525e-15 0)
(1 -1.40609e-15 0)
(1 1.17058e-14 0)
(1 6.49483e-15 0)
(1 -3.97999e-15 0)
(1 -1.11502e-14 0)
(1 -3.64042e-16 0)
(1 -9.62228e-15 0)
(1 8.58575e-15 0)
(1 1.8888e-14 0)
(1 1.36303e-14 0)
(1 1.49204e-15 0)
(1 2.02971e-15 0)
(1 2.03561e-15 0)
(1 3.70994e-15 0)
(1 4.48099e-15 0)
(1 3.25119e-15 0)
(1 4.21549e-16 0)
(1 -3.99658e-15 0)
(1 -8.18138e-15 0)
(1 -6.46431e-15 0)
(1 3.61196e-15 0)
(1 1.27257e-15 0)
(1 3.75893e-16 0)
(1 1.4211e-15 0)
(1 1.2627e-15 0)
(1 6.08127e-15 0)
(1 8.37841e-16 0)
(1 3.47758e-15 0)
(1 6.18945e-15 0)
(1 2.3467e-15 0)
(1 4.85278e-15 0)
(1 -2.36825e-15 0)
(1 1.64689e-15 0)
(1 7.30088e-16 0)
(1 4.76239e-15 0)
(1 2.81281e-15 0)
(1 6.31831e-16 0)
(1 -1.70835e-15 0)
(1 6.80224e-18 0)
(1 4.4321e-15 0)
(1 -4.1456e-15 0)
(1 -9.02623e-15 0)
(1 -1.116e-15 0)
(1 3.89727e-15 0)
(1 6.2586e-15 0)
(1 1.04289e-14 0)
(1 7.84421e-15 0)
(1 1.20261e-15 0)
(1 7.59916e-16 0)
(1 3.03463e-15 0)
(1 9.00056e-16 0)
(1 3.62586e-15 0)
(1 5.09019e-15 0)
(1 1.14643e-15 0)
(1 6.52451e-15 0)
(1 9.61989e-15 0)
(1 1.17908e-14 0)
(1 9.37752e-16 0)
(1 -3.65592e-16 0)
(1 -1.60691e-15 0)
(1 -3.7378e-15 0)
(1 -3.43265e-15 0)
(1 -8.33906e-15 0)
(1 -4.05443e-15 0)
(1 -5.0676e-16 0)
(1 5.11203e-17 0)
(1 4.18158e-15 0)
(1 2.58076e-15 0)
(1 5.12589e-15 0)
(1 2.47737e-15 0)
(1 3.99095e-15 0)
(1 -1.84659e-16 0)
(1 -3.84498e-15 0)
(1 2.48454e-15 0)
(1 2.60711e-15 0)
(1 1.85615e-15 0)
(1 1.14693e-15 0)
(1 -2.65239e-16 0)
(1 2.2936e-15 0)
(1 -1.68591e-15 0)
(1 5.2803e-15 0)
(1 5.37863e-15 0)
(1 5.43674e-15 0)
(1 3.1329e-15 0)
(1 1.4606e-15 0)
(1 7.57934e-15 0)
(1 6.48924e-15 0)
(1 -3.25863e-17 0)
(1 -5.74623e-16 0)
(1 7.71841e-15 0)
(1 3.14442e-15 0)
(1 -3.10688e-15 0)
(1 2.60793e-15 0)
(1 1.34637e-15 0)
(1 -4.82714e-15 0)
(1 -2.88792e-15 0)
(1 5.56276e-16 0)
(1 -3.47958e-15 0)
(1 -1.74988e-15 0)
(1 2.09619e-15 0)
(1 7.67886e-15 0)
(1 2.13637e-15 0)
(1 4.47776e-15 0)
(1 -9.15515e-16 0)
(1 -5.39928e-15 0)
(1 -7.10034e-15 0)
(1 8.39587e-15 0)
(1 8.1156e-15 0)
(1 1.57346e-14 0)
(1 1.94613e-15 0)
(1 -3.25826e-15 0)
(1 5.20375e-16 0)
(1 2.36114e-15 0)
(1 5.85753e-16 0)
(1 8.21312e-16 0)
(1 1.87911e-15 0)
(1 3.57574e-15 0)
(1 1.66463e-15 0)
(1 -6.11523e-16 0)
(1 -3.67672e-16 0)
(1 -6.65432e-15 0)
(1 6.46475e-16 0)
(1 -1.39513e-15 0)
(1 1.40973e-15 0)
(1 1.89079e-15 0)
(1 4.30241e-15 0)
(1 3.84265e-15 0)
(1 1.76111e-14 0)
(1 1.0194e-14 0)
(1 7.95877e-15 0)
(1 -2.3476e-15 0)
(1 2.78633e-15 0)
(1 -2.34551e-15 0)
(1 -4.41924e-15 0)
(1 -2.5521e-15 0)
(1 2.616e-15 0)
(1 4.27504e-15 0)
(1 7.51067e-16 0)
(1 -6.91217e-15 0)
(1 -6.84729e-15 0)
(1 -2.95669e-15 0)
(1 -2.99685e-15 0)
(1 5.63653e-16 0)
(1 6.03311e-16 0)
(1 2.8373e-15 0)
(1 6.88668e-15 0)
(1 1.32564e-15 0)
(1 4.4085e-15 0)
(1 8.9401e-15 0)
(1 7.08266e-15 0)
(1 3.8646e-15 0)
(1 3.41864e-15 0)
(1 -2.22105e-15 0)
(1 -4.59796e-15 0)
(1 5.42573e-15 0)
(1 6.18452e-15 0)
(1 2.46713e-15 0)
(1 2.34403e-15 0)
(1 -1.83794e-15 0)
(1 -6.81687e-15 0)
(1 3.94609e-16 0)
(1 -4.97393e-17 0)
(1 1.47451e-15 0)
(1 2.55612e-15 0)
(1 1.01976e-14 0)
(1 3.16238e-15 0)
(1 2.72049e-15 0)
(1 5.04819e-15 0)
(1 1.20191e-15 0)
(1 3.9342e-15 0)
(1 1.49507e-15 0)
(1 2.09989e-15 0)
(1 4.41778e-15 0)
(1 8.98189e-15 0)
(1 6.81167e-15 0)
(1 4.17399e-15 0)
(1 3.51174e-15 0)
(1 4.40891e-16 0)
(1 6.39344e-15 0)
(1 4.39687e-15 0)
(1 5.53353e-15 0)
(1 2.47299e-15 0)
(1 8.63398e-15 0)
(1 1.10728e-14 0)
(1 9.03963e-15 0)
(1 3.3942e-15 0)
(1 6.96842e-15 0)
(1 7.56182e-16 0)
(1 1.04383e-16 0)
(1 1.20032e-15 0)
(1 1.23609e-15 0)
(1 4.50055e-15 0)
(1 -2.64315e-15 0)
(1 2.05359e-15 0)
(1 -2.01484e-15 0)
(1 -3.64797e-15 0)
(1 3.75555e-16 0)
(1 -7.86057e-15 0)
(1 1.74846e-15 0)
(1 2.25514e-15 0)
(1 1.15424e-14 0)
(1 2.71823e-16 0)
(1 3.30781e-15 0)
(1 -3.0315e-15 0)
(1 6.56158e-15 0)
(1 -4.65249e-15 0)
(1 1.00042e-14 0)
(1 -1.5727e-15 0)
(1 2.57001e-15 0)
(1 -5.04529e-15 0)
(1 -8.83916e-16 0)
(1 -5.00679e-15 0)
(1 6.73591e-15 0)
(1 7.56928e-15 0)
(1 2.08412e-17 0)
(1 1.90956e-15 0)
(1 8.81718e-15 0)
(1 2.42508e-15 0)
(1 1.46453e-15 0)
(1 -2.45606e-15 0)
(1 -8.43641e-15 0)
(1 -4.48721e-15 0)
(1 -3.477e-15 0)
(1 -9.73877e-16 0)
(1 1.38121e-15 0)
(1 4.93021e-15 0)
(1 1.22199e-14 0)
(1 6.59403e-15 0)
(1 -1.877e-15 0)
(1 -1.76168e-16 0)
(1 -2.97052e-15 0)
(1 1.6056e-15 0)
(1 6.06198e-15 0)
(1 2.43664e-16 0)
(1 2.14258e-15 0)
(1 5.14036e-15 0)
(1 5.60789e-15 0)
(1 4.57875e-15 0)
(1 -2.17982e-15 0)
(1 -2.22726e-15 0)
(1 3.08645e-15 0)
(1 8.87409e-15 0)
(1 -1.32441e-15 0)
(1 -1.54493e-15 0)
(1 -7.47063e-15 0)
(1 1.72361e-15 0)
(1 -2.95394e-15 0)
(1 1.25564e-14 0)
(1 1.46408e-14 0)
(1 9.43527e-15 0)
(1 6.64781e-15 0)
(1 5.24625e-15 0)
(1 1.62165e-15 0)
(1 1.54846e-15 0)
(1 8.38509e-16 0)
(1 -1.19877e-15 0)
(1 -3.70826e-15 0)
(1 5.7938e-15 0)
(1 8.08633e-15 0)
(1 2.06171e-16 0)
(1 -2.47348e-16 0)
(1 4.08145e-15 0)
(1 6.5439e-15 0)
(1 -1.15849e-15 0)
(1 5.65819e-16 0)
(1 3.00348e-15 0)
(1 3.01302e-15 0)
(1 4.64095e-15 0)
(1 -2.37637e-15 0)
(1 2.1392e-15 0)
(1 1.27211e-15 0)
(1 3.68945e-15 0)
(1 4.43325e-15 0)
(1 3.17551e-15 0)
(1 4.06943e-16 0)
(1 2.54319e-15 0)
(1 4.83927e-16 0)
(1 1.83994e-15 0)
(1 2.56391e-15 0)
(1 7.80131e-15 0)
(1 6.08296e-15 0)
(1 1.09143e-14 0)
(1 9.68623e-15 0)
(1 7.0428e-15 0)
(1 1.02134e-14 0)
(1 6.26166e-15 0)
(1 1.23074e-14 0)
(1 -2.35997e-15 0)
(1 -1.57444e-15 0)
(1 -4.29594e-15 0)
(1 -5.33889e-15 0)
(1 -3.14627e-15 0)
(1 3.30315e-16 0)
(1 -1.96091e-16 0)
(1 2.43605e-15 0)
(1 -5.70683e-15 0)
(1 4.65887e-16 0)
(1 -1.90347e-15 0)
(1 5.30124e-15 0)
(1 9.26462e-15 0)
(1 1.29404e-14 0)
(1 -3.97391e-16 0)
(1 -2.51818e-15 0)
(1 9.279e-16 0)
(1 9.14191e-15 0)
(1 -6.14013e-15 0)
(1 1.72958e-16 0)
(1 -3.85144e-15 0)
(1 5.23082e-15 0)
(1 1.07365e-14 0)
(1 1.43604e-14 0)
(1 -4.80221e-16 0)
(1 3.46477e-15 0)
(1 -4.54939e-15 0)
(1 -6.02062e-15 0)
(1 -1.37211e-17 0)
(1 -7.96103e-16 0)
(1 -8.40417e-15 0)
(1 -6.0711e-15 0)
(1 -9.07188e-15 0)
(1 -7.63227e-15 0)
(1 7.99351e-17 0)
(1 7.43372e-15 0)
(1 5.42576e-15 0)
(1 3.52799e-15 0)
(1 3.79199e-15 0)
(1 6.78257e-15 0)
(1 -8.55078e-15 0)
(1 -3.74991e-15 0)
(1 6.49116e-16 0)
(1 5.74755e-15 0)
(1 7.05595e-15 0)
(1 8.75157e-15 0)
(1 7.4212e-15 0)
(1 3.40559e-15 0)
(1 3.76951e-15 0)
(1 -1.5554e-15 0)
(1 1.38545e-15 0)
(1 1.06221e-14 0)
(1 1.07974e-14 0)
(1 -3.72151e-15 0)
(1 4.01793e-15 0)
(1 1.82077e-17 0)
(1 3.33799e-15 0)
(1 -1.82695e-15 0)
(1 5.03268e-15 0)
(1 1.56917e-15 0)
(1 4.79387e-15 0)
(1 1.19517e-16 0)
(1 5.16239e-16 0)
(1 -1.38967e-15 0)
(1 -2.29595e-15 0)
(1 2.42838e-15 0)
(1 1.02277e-14 0)
(1 1.50807e-14 0)
(1 1.59649e-14 0)
(1 1.24334e-14 0)
(1 1.19756e-14 0)
(1 1.16745e-14 0)
(1 7.93626e-15 0)
(1 3.32576e-16 0)
(1 -5.77491e-16 0)
(1 -1.077e-15 0)
(1 -2.01194e-15 0)
(1 2.25625e-15 0)
(1 4.97789e-15 0)
(1 3.63121e-15 0)
(1 6.67732e-15 0)
(1 8.00172e-15 0)
(1 2.5611e-15 0)
(1 1.56026e-16 0)
(1 -1.35929e-15 0)
(1 -2.10688e-15 0)
(1 -1.61718e-15 0)
(1 -2.63357e-15 0)
(1 2.90196e-15 0)
(1 5.04246e-17 0)
(1 2.08226e-15 0)
(1 1.68732e-15 0)
(1 6.32665e-15 0)
(1 9.37997e-15 0)
(1 1.68991e-14 0)
(1 1.88679e-14 0)
(1 2.08935e-14 0)
(1 1.8137e-14 0)
(1 1.77867e-14 0)
(1 2.08913e-14 0)
(1 -6.45037e-18 0)
(1 2.05522e-15 0)
(1 4.98912e-15 0)
(1 3.8631e-15 0)
(1 -7.39293e-15 0)
(1 7.55401e-16 0)
(1 2.34527e-16 0)
(1 -3.74106e-16 0)
(1 6.3097e-16 0)
(1 -3.59371e-15 0)
(1 -2.66976e-15 0)
(1 -2.2971e-15 0)
(1 4.18166e-15 0)
(1 -1.87255e-15 0)
(1 7.73554e-15 0)
(1 5.89215e-16 0)
(1 1.32108e-15 0)
(1 5.20813e-15 0)
(1 5.84466e-15 0)
(1 -9.18432e-16 0)
(1 -5.60034e-15 0)
(1 -1.30071e-14 0)
(1 3.77767e-15 0)
(1 1.07364e-14 0)
(1 7.86828e-15 0)
(1 5.65444e-15 0)
(1 5.70357e-15 0)
(1 2.92701e-15 0)
(1 -5.1067e-15 0)
(1 -8.03257e-15 0)
(1 1.86294e-15 0)
(1 1.36789e-15 0)
(1 5.67665e-15 0)
(1 -3.37529e-15 0)
(1 -3.93354e-15 0)
(1 -4.18487e-15 0)
(1 -1.78545e-15 0)
(1 -1.11309e-15 0)
(1 -2.2246e-15 0)
(1 4.59907e-15 0)
(1 -1.18586e-15 0)
(1 6.43466e-15 0)
(1 4.77319e-15 0)
(1 6.19914e-15 0)
(1 9.25517e-15 0)
(1 6.47297e-16 0)
(1 1.91278e-15 0)
(1 -1.28556e-15 0)
(1 2.73759e-15 0)
(1 5.6901e-15 0)
(1 3.29745e-15 0)
(1 2.6759e-15 0)
(1 3.0193e-15 0)
(1 4.23056e-15 0)
(1 3.43325e-15 0)
(1 7.08816e-15 0)
(1 3.50626e-15 0)
(1 6.50407e-15 0)
(1 7.91079e-16 0)
(1 3.32315e-15 0)
(1 1.55067e-15 0)
(1 1.61204e-15 0)
(1 4.56488e-15 0)
(1 5.38781e-15 0)
(1 3.17824e-15 0)
(1 3.28187e-15 0)
(1 1.26733e-14 0)
(1 1.39932e-14 0)
(1 1.78824e-14 0)
(1 1.19806e-14 0)
(1 7.70452e-15 0)
(1 5.37337e-15 0)
(1 3.39263e-15 0)
(1 7.86962e-18 0)
(1 3.31229e-17 0)
(1 2.49839e-15 0)
(1 6.74829e-15 0)
(1 4.34064e-15 0)
(1 5.8281e-15 0)
(1 2.04281e-15 0)
(1 4.3258e-15 0)
(1 -9.81892e-16 0)
(1 1.07624e-15 0)
(1 1.84713e-15 0)
(1 -2.31177e-15 0)
(1 5.03515e-15 0)
(1 2.96252e-15 0)
(1 8.85291e-17 0)
(1 5.51018e-15 0)
(1 1.11128e-15 0)
(1 8.33416e-15 0)
(1 4.11853e-15 0)
(1 6.82907e-15 0)
(1 6.92591e-15 0)
(1 1.3827e-14 0)
(1 1.48741e-14 0)
(1 2.12437e-14 0)
(1 1.51526e-14 0)
(1 2.60742e-14 0)
(1 2.37525e-14 0)
(1 8.56551e-16 0)
(1 1.1237e-16 0)
(1 2.56701e-15 0)
(1 7.33576e-16 0)
(1 -6.7507e-15 0)
(1 -5.31806e-15 0)
(1 -1.80629e-16 0)
(1 -5.47009e-15 0)
(1 4.77725e-16 0)
(1 -1.15013e-15 0)
(1 3.35251e-16 0)
(1 -4.59354e-15 0)
(1 -6.8307e-15 0)
(1 -5.68059e-17 0)
(1 1.16832e-14 0)
(1 1.08547e-14 0)
(1 1.26562e-14 0)
(1 3.86434e-15 0)
(1 1.70744e-14 0)
(1 1.39998e-15 0)
(1 2.11323e-15 0)
(1 -1.1398e-14 0)
(1 -9.13592e-15 0)
(1 -1.10353e-14 0)
(1 -4.65196e-15 0)
(1 -9.81675e-15 0)
(1 5.96005e-15 0)
(1 3.94562e-15 0)
(1 -6.60539e-15 0)
(1 -4.42104e-15 0)
(1 7.19997e-15 0)
(1 -1.33719e-15 0)
(1 1.41179e-15 0)
(1 2.16406e-15 0)
(1 -6.47274e-16 0)
(1 -4.85538e-15 0)
(1 -3.82555e-15 0)
(1 1.32512e-15 0)
(1 -4.02406e-15 0)
(1 1.89486e-15 0)
(1 -2.97665e-15 0)
(1 2.0114e-15 0)
(1 3.98614e-15 0)
(1 6.85224e-15 0)
(1 5.73143e-15 0)
(1 4.57414e-15 0)
(1 9.21065e-15 0)
(1 4.60026e-15 0)
(1 7.33158e-15 0)
(1 3.87264e-15 0)
(1 7.26143e-15 0)
(1 -1.25718e-16 0)
(1 2.47168e-15 0)
(1 9.7669e-15 0)
(1 3.40083e-15 0)
(1 -1.12263e-17 0)
(1 1.71459e-15 0)
(1 3.0441e-15 0)
(1 1.7412e-15 0)
(1 1.05267e-15 0)
(1 7.90752e-15 0)
(1 3.73457e-15 0)
(1 2.33052e-15 0)
(1 4.47025e-15 0)
(1 6.76737e-15 0)
(1 1.04265e-14 0)
(1 8.62868e-15 0)
(1 3.94846e-15 0)
(1 5.69529e-15 0)
(1 1.18852e-14 0)
(1 1.78937e-14 0)
(1 1.05123e-14 0)
(1 5.5731e-15 0)
(1 -1.00344e-15 0)
(1 -1.26756e-16 0)
(1 2.36293e-15 0)
(1 1.06328e-14 0)
(1 1.08247e-14 0)
(1 7.76673e-15 0)
(1 4.84201e-15 0)
(1 1.05225e-15 0)
(1 2.16222e-15 0)
(1 3.48752e-15 0)
(1 5.11416e-15 0)
(1 -1.36056e-15 0)
(1 -3.76631e-15 0)
(1 -3.73916e-15 0)
(1 2.48159e-15 0)
(1 1.55196e-15 0)
(1 4.9249e-16 0)
(1 5.47475e-15 0)
(1 6.14559e-15 0)
(1 1.05118e-14 0)
(1 7.92386e-15 0)
(1 1.64364e-14 0)
(1 6.80698e-15 0)
(1 1.1765e-14 0)
(1 1.07537e-14 0)
(1 2.07528e-14 0)
(1 1.68601e-14 0)
(1 2.4576e-15 0)
(1 -4.02646e-15 0)
(1 3.43846e-15 0)
(1 9.91283e-17 0)
(1 -1.51407e-15 0)
(1 -4.20446e-15 0)
(1 -2.22585e-15 0)
(1 -2.29097e-15 0)
(1 -7.05821e-15 0)
(1 2.51412e-15 0)
(1 4.0705e-15 0)
(1 6.13668e-15 0)
(1 5.79259e-16 0)
(1 5.71016e-15 0)
(1 -6.0662e-15 0)
(1 -3.70838e-15 0)
(1 4.89495e-15 0)
(1 -8.86942e-16 0)
(1 8.00545e-15 0)
(1 -8.57814e-15 0)
(1 5.61172e-15 0)
(1 7.9685e-15 0)
(1 2.1435e-15 0)
(1 -1.18251e-17 0)
(1 4.65255e-15 0)
(1 4.46864e-15 0)
(1 2.41136e-15 0)
(1 -7.92526e-16 0)
(1 1.57862e-15 0)
(1 6.94112e-16 0)
(1 -3.80896e-15 0)
(1 -3.29497e-15 0)
(1 -6.34675e-15 0)
(1 2.8812e-15 0)
(1 -3.3009e-15 0)
(1 -1.06674e-15 0)
(1 -4.88066e-15 0)
(1 -2.80574e-15 0)
(1 -3.04776e-15 0)
(1 -4.68283e-15 0)
(1 3.26173e-15 0)
(1 7.31806e-15 0)
(1 8.30694e-15 0)
(1 6.25836e-15 0)
(1 9.47999e-16 0)
(1 5.71908e-15 0)
(1 1.12107e-14 0)
(1 8.87465e-15 0)
(1 5.0675e-15 0)
(1 -1.83833e-15 0)
(1 3.69978e-15 0)
(1 -6.45092e-16 0)
(1 -6.74254e-16 0)
(1 8.34212e-15 0)
(1 7.32382e-15 0)
(1 4.06862e-15 0)
(1 -3.99557e-15 0)
(1 2.88818e-15 0)
(1 6.74662e-15 0)
(1 4.37969e-15 0)
(1 3.69079e-15 0)
(1 2.45339e-15 0)
(1 -8.6679e-16 0)
(1 1.16437e-15 0)
(1 1.17576e-14 0)
(1 6.85763e-15 0)
(1 4.47842e-15 0)
(1 6.7089e-15 0)
(1 2.1726e-15 0)
(1 1.11617e-14 0)
(1 1.48665e-14 0)
(1 1.5339e-14 0)
(1 2.42077e-15 0)
(1 2.95497e-15 0)
(1 6.04621e-16 0)
(1 2.13555e-17 0)
(1 -1.38483e-15 0)
(1 5.38405e-15 0)
(1 2.01781e-15 0)
(1 8.70704e-15 0)
(1 7.83626e-15 0)
(1 1.40986e-14 0)
(1 5.86349e-15 0)
(1 2.09822e-15 0)
(1 5.62236e-15 0)
(1 -5.35264e-15 0)
(1 -3.15004e-15 0)
(1 6.80535e-15 0)
(1 1.70579e-15 0)
(1 1.29706e-15 0)
(1 -2.65822e-15 0)
(1 3.47149e-15 0)
(1 1.18696e-14 0)
(1 1.17215e-14 0)
(1 1.17428e-14 0)
(1 1.28105e-14 0)
(1 1.17159e-14 0)
(1 1.43965e-14 0)
(1 1.28089e-14 0)
(1 1.22174e-14 0)
(1 2.28326e-15 0)
(1 1.46765e-15 0)
(1 -4.39133e-15 0)
(1 -2.10574e-15 0)
(1 -1.86437e-15 0)
(1 -7.20407e-16 0)
(1 -4.36313e-15 0)
(1 2.26836e-15 0)
(1 -5.62185e-15 0)
(1 2.61709e-15 0)
(1 2.53628e-15 0)
(1 2.07203e-14 0)
(1 2.15494e-15 0)
(1 -3.60801e-15 0)
(1 -9.73631e-15 0)
(1 -2.32278e-15 0)
(1 -5.54248e-15 0)
(1 1.54617e-14 0)
(1 1.23338e-14 0)
(1 1.60553e-14 0)
(1 2.31765e-15 0)
(1 -9.9284e-15 0)
(1 -2.36138e-14 0)
(1 -1.233e-14 0)
(1 -9.83706e-15 0)
(1 3.78092e-15 0)
(1 1.60655e-15 0)
(1 4.30984e-15 0)
(1 7.60484e-15 0)
(1 1.32649e-15 0)
(1 -4.90505e-15 0)
(1 -1.00911e-15 0)
(1 -1.76633e-15 0)
(1 -1.06238e-15 0)
(1 -4.66792e-15 0)
(1 -1.51636e-15 0)
(1 -4.32932e-15 0)
(1 -5.93358e-15 0)
(1 1.35407e-15 0)
(1 1.43191e-16 0)
(1 4.59698e-15 0)
(1 4.32035e-15 0)
(1 2.27122e-16 0)
(1 1.94311e-16 0)
(1 7.1954e-15 0)
(1 1.37074e-14 0)
(1 7.00479e-15 0)
(1 1.71664e-14 0)
(1 8.38969e-15 0)
(1 1.10902e-14 0)
(1 -3.97912e-15 0)
(1 -2.59517e-16 0)
(1 9.36716e-16 0)
(1 5.02587e-15 0)
(1 3.25468e-15 0)
(1 2.42252e-15 0)
(1 -6.94126e-15 0)
(1 -6.76255e-16 0)
(1 -3.7991e-15 0)
(1 -3.65326e-15 0)
(1 -3.53945e-15 0)
(1 5.41065e-15 0)
(1 7.83645e-15 0)
(1 1.36109e-14 0)
(1 1.25354e-14 0)
(1 6.52532e-15 0)
(1 6.83226e-15 0)
(1 6.5017e-15 0)
(1 4.06903e-15 0)
(1 1.19467e-15 0)
(1 -3.05118e-15 0)
(1 4.6604e-15 0)
(1 1.55181e-15 0)
(1 1.22417e-14 0)
(1 9.20878e-15 0)
(1 3.58479e-15 0)
(1 -2.54385e-15 0)
(1 -1.93979e-15 0)
(1 -1.67225e-15 0)
(1 5.94024e-15 0)
(1 6.43542e-15 0)
(1 1.04597e-14 0)
(1 4.21163e-15 0)
(1 7.20024e-15 0)
(1 5.6705e-15 0)
(1 5.54254e-15 0)
(1 3.66184e-15 0)
(1 5.48786e-15 0)
(1 2.35897e-15 0)
(1 3.0137e-15 0)
(1 -6.22858e-16 0)
(1 3.82576e-15 0)
(1 1.30966e-15 0)
(1 4.4917e-15 0)
(1 2.94684e-15 0)
(1 1.14202e-14 0)
(1 1.07016e-14 0)
(1 1.19252e-14 0)
(1 5.464e-15 0)
(1 6.34759e-15 0)
(1 -7.47215e-16 0)
(1 4.65364e-15 0)
(1 -2.57406e-15 0)
(1 -5.20993e-15 0)
(1 -5.15484e-16 0)
(1 -8.00841e-15 0)
(1 -6.47802e-15 0)
(1 6.38657e-15 0)
(1 1.1455e-14 0)
(1 7.74289e-15 0)
(1 4.17161e-15 0)
(1 4.41368e-16 0)
(1 -5.4449e-15 0)
(1 -2.75636e-15 0)
(1 4.85956e-16 0)
(1 2.11536e-15 0)
(1 -4.894e-15 0)
(1 3.92044e-15 0)
(1 -3.04935e-15 0)
(1 1.22645e-14 0)
(1 -3.60436e-15 0)
(1 1.83384e-15 0)
(1 -1.38825e-14 0)
(1 -5.66231e-15 0)
(1 2.71078e-15 0)
(1 -5.34121e-16 0)
(1 1.10764e-15 0)
(1 -5.1707e-16 0)
(1 -1.35777e-15 0)
(1 -4.44897e-16 0)
(1 2.43318e-15 0)
(1 -4.39283e-15 0)
(1 -3.59159e-15 0)
(1 -9.46738e-15 0)
(1 -3.96917e-15 0)
(1 6.13118e-15 0)
(1 1.94497e-16 0)
(1 5.60049e-16 0)
(1 1.97921e-15 0)
(1 -7.10053e-15 0)
(1 -1.96985e-15 0)
(1 4.179e-15 0)
(1 7.75302e-15 0)
(1 8.495e-15 0)
(1 1.2898e-14 0)
(1 8.03246e-15 0)
(1 3.05856e-15 0)
(1 5.36466e-15 0)
(1 4.69801e-15 0)
(1 5.54016e-15 0)
(1 -7.74929e-17 0)
(1 3.12136e-15 0)
(1 3.97482e-15 0)
(1 -1.05322e-15 0)
(1 2.40481e-15 0)
(1 7.93879e-15 0)
(1 6.1892e-15 0)
(1 5.8633e-15 0)
(1 -2.95669e-15 0)
(1 -4.38908e-17 0)
(1 3.82237e-16 0)
(1 2.12232e-15 0)
(1 1.65353e-15 0)
(1 1.08564e-14 0)
(1 -3.88425e-15 0)
(1 1.21325e-14 0)
(1 1.3707e-14 0)
(1 8.57746e-15 0)
(1 7.13895e-15 0)
(1 3.94837e-15 0)
(1 -2.24409e-15 0)
(1 -3.2082e-15 0)
(1 4.82979e-15 0)
(1 1.35861e-14 0)
(1 9.92372e-15 0)
(1 9.83584e-15 0)
(1 1.00604e-14 0)
(1 9.47286e-15 0)
(1 3.46377e-15 0)
(1 8.16747e-15 0)
(1 6.60352e-15 0)
(1 5.43551e-15 0)
(1 1.31081e-15 0)
(1 5.36701e-15 0)
(1 5.16523e-15 0)
(1 7.89861e-15 0)
(1 5.71215e-15 0)
(1 5.48488e-15 0)
(1 4.45835e-15 0)
(1 3.87982e-15 0)
(1 4.26595e-16 0)
(1 3.52633e-15 0)
(1 2.99123e-15 0)
(1 3.50334e-15 0)
(1 3.49318e-15 0)
(1 1.00579e-14 0)
(1 1.54477e-14 0)
(1 1.08302e-14 0)
(1 5.37678e-15 0)
(1 5.49762e-15 0)
(1 6.2298e-16 0)
(1 1.2201e-16 0)
(1 2.60051e-15 0)
(1 -7.19726e-15 0)
(1 8.79537e-15 0)
(1 -8.64092e-15 0)
(1 -1.13703e-14 0)
(1 -9.91925e-15 0)
(1 6.10218e-15 0)
(1 -4.7354e-16 0)
(1 1.13901e-14 0)
(1 -5.56889e-15 0)
(1 8.45593e-15 0)
(1 2.29072e-15 0)
(1 1.21675e-15 0)
(1 -3.38722e-15 0)
(1 -3.24515e-15 0)
(1 -1.32048e-14 0)
(1 -9.46108e-15 0)
(1 -5.57262e-15 0)
(1 -5.11798e-15 0)
(1 8.70763e-15 0)
(1 1.17667e-14 0)
(1 7.84621e-15 0)
(1 1.65315e-14 0)
(1 7.38392e-15 0)
(1 2.12361e-15 0)
(1 -2.10326e-15 0)
(1 -7.6389e-15 0)
(1 -8.0027e-15 0)
(1 -4.6654e-15 0)
(1 -2.62667e-15 0)
(1 -9.49919e-17 0)
(1 -1.05379e-14 0)
(1 -2.18877e-15 0)
(1 -2.48199e-15 0)
(1 3.4807e-15 0)
(1 1.07102e-14 0)
(1 -5.77572e-16 0)
(1 -7.32186e-15 0)
(1 -9.61122e-16 0)
(1 8.98529e-15 0)
(1 1.01109e-14 0)
(1 1.19176e-14 0)
(1 4.34277e-15 0)
(1 -6.33113e-17 0)
(1 2.47885e-16 0)
(1 -6.39801e-15 0)
(1 -3.12112e-15 0)
(1 5.17715e-15 0)
(1 9.40762e-15 0)
(1 1.21001e-14 0)
(1 6.07535e-15 0)
(1 5.31282e-15 0)
(1 6.14163e-15 0)
(1 3.94044e-15 0)
(1 6.73411e-15 0)
(1 4.27867e-15 0)
(1 2.36938e-15 0)
(1 4.62957e-15 0)
(1 -1.19103e-15 0)
(1 -1.41689e-15 0)
(1 1.61835e-15 0)
(1 -1.09755e-15 0)
(1 4.67376e-15 0)
(1 6.00089e-15 0)
(1 1.17541e-14 0)
(1 1.25288e-14 0)
(1 1.43055e-14 0)
(1 1.11673e-14 0)
(1 6.84806e-15 0)
(1 1.5187e-15 0)
(1 8.56644e-15 0)
(1 4.7664e-15 0)
(1 6.97177e-15 0)
(1 1.21379e-14 0)
(1 1.10131e-14 0)
(1 4.81891e-15 0)
(1 7.08911e-15 0)
(1 6.72244e-15 0)
(1 1.04399e-14 0)
(1 2.09022e-16 0)
(1 2.64705e-15 0)
(1 -3.00421e-15 0)
(1 2.6949e-15 0)
(1 1.12616e-15 0)
(1 5.74908e-15 0)
(1 2.77495e-15 0)
(1 -1.25425e-15 0)
(1 1.24398e-15 0)
(1 1.2842e-15 0)
(1 2.0677e-15 0)
(1 7.01499e-15 0)
(1 1.2328e-14 0)
(1 9.34628e-15 0)
(1 6.64826e-15 0)
(1 7.24939e-15 0)
(1 9.53936e-15 0)
(1 8.04351e-15 0)
(1 7.62773e-15 0)
(1 -2.39033e-15 0)
(1 -2.48439e-15 0)
(1 -3.84761e-15 0)
(1 -2.29467e-15 0)
(1 7.33798e-15 0)
(1 3.74786e-15 0)
(1 1.22315e-14 0)
(1 6.35134e-15 0)
(1 -1.36955e-15 0)
(1 -1.02701e-14 0)
(1 -2.31262e-15 0)
(1 -8.93151e-15 0)
(1 2.29446e-15 0)
(1 -2.93928e-16 0)
(1 -2.38144e-15 0)
(1 -4.94103e-15 0)
(1 8.61022e-16 0)
(1 2.03892e-15 0)
(1 -7.28076e-15 0)
(1 6.27253e-16 0)
(1 8.05629e-16 0)
(1 3.54412e-15 0)
(1 4.07471e-15 0)
(1 -1.1116e-14 0)
(1 -6.59962e-15 0)
(1 5.66684e-16 0)
(1 -2.34733e-15 0)
(1 -5.08446e-15 0)
(1 -7.70038e-16 0)
(1 -3.85768e-15 0)
(1 -2.18179e-17 0)
(1 -1.82331e-15 0)
(1 5.93422e-16 0)
(1 5.04932e-15 0)
(1 2.83589e-15 0)
(1 -2.46769e-15 0)
(1 5.24316e-15 0)
(1 3.14423e-15 0)
(1 -7.10034e-15 0)
(1 -8.71106e-16 0)
(1 3.66115e-15 0)
(1 3.73701e-15 0)
(1 3.39186e-15 0)
(1 6.16561e-15 0)
(1 -1.73191e-15 0)
(1 -4.46585e-15 0)
(1 4.75717e-15 0)
(1 -3.07654e-15 0)
(1 2.65121e-15 0)
(1 9.20943e-15 0)
(1 1.28272e-14 0)
(1 1.12074e-14 0)
(1 6.91151e-15 0)
(1 2.66413e-15 0)
(1 3.36739e-15 0)
(1 -7.43409e-15 0)
(1 3.86204e-15 0)
(1 1.52892e-15 0)
(1 5.83147e-15 0)
(1 1.78232e-15 0)
(1 -6.00797e-15 0)
(1 1.56929e-15 0)
(1 1.27734e-15 0)
(1 2.88867e-16 0)
(1 5.29248e-15 0)
(1 -4.41382e-15 0)
(1 -1.6656e-15 0)
(1 3.82083e-15 0)
(1 1.09471e-14 0)
(1 7.75994e-15 0)
(1 4.63333e-15 0)
(1 3.55011e-15 0)
(1 1.21094e-14 0)
(1 9.35424e-15 0)
(1 8.90948e-15 0)
(1 4.61902e-15 0)
(1 5.42056e-15 0)
(1 2.11238e-15 0)
(1 1.6189e-14 0)
(1 8.80375e-15 0)
(1 2.0549e-15 0)
(1 3.31796e-15 0)
(1 7.37251e-15 0)
(1 5.41705e-15 0)
(1 6.07247e-15 0)
(1 3.56678e-16 0)
(1 -2.13004e-15 0)
(1 -4.5978e-15 0)
(1 -2.70529e-15 0)
(1 -6.62854e-16 0)
(1 5.80083e-15 0)
(1 4.06704e-15 0)
(1 1.24004e-14 0)
(1 8.21729e-15 0)
(1 9.24714e-15 0)
(1 8.13015e-15 0)
(1 2.14995e-15 0)