/*--------------------------------*- C++ -*----------------------------------*\
| =========                 |                                                 |
| \\      /  F ield         | OpenFOAM: The Open Source CFD Toolbox           |
|  \\    /   O peration     | Version:  v2012                                 |
|   \\  /    A nd           | Website:  www.openfoam.com                      |
|    \\/     M anipulation  |                                                 |
\*---------------------------------------------------------------------------*/
FoamFile
{
    version     2.0;
    format      ascii;
    class       volVectorField;
    location    "10";
    object      U;
}
// * * * * * * * * * * * * * * * * * * * * * * * * * * * * * * * * * * * * * //

dimensions      [0 1 -1 0 0 0 0];


internalField   nonuniform List<vector> 
65536
(
(0.000752155 -0.000752179 0)
(0.00225651 -0.000752191 0)
(0.0037609 -0.000752235 0)
(0.00526538 -0.000752291 0)
(0.00677 -0.000752366 0)
(0.00827478 -0.000752457 0)
(0.00977976 -0.000752563 0)
(0.011285 -0.000752685 0)
(0.0127904 -0.000752821 0)
(0.0142962 -0.00075297 0)
(0.0158023 -0.00075313 0)
(0.0173087 -0.000753299 0)
(0.0188154 -0.000753477 0)
(0.0203225 -0.00075366 0)
(0.02183 -0.000753847 0)
(0.0233378 -0.000754035 0)
(0.0248461 -0.000754223 0)
(0.0263547 -0.000754407 0)
(0.0278637 -0.000754585 0)
(0.029373 -0.000754753 0)
(0.0308826 -0.000754909 0)
(0.0323926 -0.000755049 0)
(0.0339028 -0.00075517 0)
(0.0354133 -0.000755269 0)
(0.0369239 -0.000755341 0)
(0.0384346 -0.000755382 0)
(0.0399454 -0.000755389 0)
(0.0414562 -0.000755357 0)
(0.0429668 -0.000755282 0)
(0.0444773 -0.000755159 0)
(0.0459875 -0.000754984 0)
(0.0474972 -0.000754751 0)
(0.0490065 -0.000754455 0)
(0.0505151 -0.000754092 0)
(0.0520229 -0.000753656 0)
(0.0535297 -0.000753142 0)
(0.0550355 -0.000752543 0)
(0.0565399 -0.000751855 0)
(0.0580429 -0.000751071 0)
(0.0595443 -0.000750186 0)
(0.0610437 -0.000749192 0)
(0.0625411 -0.000748086 0)
(0.0640362 -0.000746859 0)
(0.0655286 -0.000745505 0)
(0.0670183 -0.000744019 0)
(0.0685048 -0.000742394 0)
(0.0699879 -0.000740622 0)
(0.0714674 -0.000738698 0)
(0.0729429 -0.000736615 0)
(0.074414 -0.000734366 0)
(0.0758804 -0.000731945 0)
(0.0773419 -0.000729345 0)
(0.078798 -0.000726558 0)
(0.0802483 -0.00072358 0)
(0.0816924 -0.000720402 0)
(0.08313 -0.000717019 0)
(0.0845607 -0.000713424 0)
(0.0859839 -0.000709611 0)
(0.0873993 -0.000705573 0)
(0.0888064 -0.000701305 0)
(0.0902047 -0.000696801 0)
(0.0915938 -0.000692054 0)
(0.0929731 -0.00068706 0)
(0.0943422 -0.000681812 0)
(0.0957006 -0.000676307 0)
(0.0970477 -0.000670539 0)
(0.098383 -0.000664503 0)
(0.0997059 -0.000658195 0)
(0.101016 -0.000651612 0)
(0.102313 -0.000644749 0)
(0.103595 -0.000637603 0)
(0.104863 -0.000630171 0)
(0.106116 -0.000622452 0)
(0.107353 -0.000614441 0)
(0.108574 -0.000606139 0)
(0.109778 -0.000597543 0)
(0.110965 -0.000588653 0)
(0.112133 -0.000579468 0)
(0.113283 -0.000569988 0)
(0.114413 -0.000560215 0)
(0.115524 -0.000550148 0)
(0.116614 -0.00053979 0)
(0.117683 -0.000529142 0)
(0.118731 -0.000518208 0)
(0.119756 -0.00050699 0)
(0.120759 -0.000495493 0)
(0.121738 -0.000483719 0)
(0.122694 -0.000471675 0)
(0.123625 -0.000459365 0)
(0.124532 -0.000446794 0)
(0.125413 -0.00043397 0)
(0.126268 -0.000420899 0)
(0.127097 -0.000407589 0)
(0.127898 -0.000394046 0)
(0.128673 -0.00038028 0)
(0.12942 -0.000366299 0)
(0.130138 -0.000352112 0)
(0.130828 -0.000337728 0)
(0.131489 -0.000323159 0)
(0.132121 -0.000308413 0)
(0.132723 -0.000293502 0)
(0.133295 -0.000278437 0)
(0.133837 -0.000263228 0)
(0.134348 -0.000247889 0)
(0.134829 -0.00023243 0)
(0.135278 -0.000216863 0)
(0.135696 -0.000201201 0)
(0.136083 -0.000185457 0)
(0.136438 -0.000169643 0)
(0.136761 -0.000153771 0)
(0.137053 -0.000137854 0)
(0.137313 -0.000121905 0)
(0.137541 -0.000105938 0)
(0.137737 -8.99639e-05 0)
(0.1379 -7.39962e-05 0)
(0.138032 -5.80475e-05 0)
(0.138133 -4.21303e-05 0)
(0.138201 -2.62569e-05 0)
(0.138237 -1.04394e-05 0)
(0.138243 5.31003e-06 0)
(0.138216 2.09797e-05 0)
(0.138158 3.65581e-05 0)
(0.13807 5.20341e-05 0)
(0.13795 6.73966e-05 0)
(0.1378 8.26351e-05 0)
(0.137619 9.77392e-05 0)
(0.137409 0.000112699 0)
(0.137168 0.000127505 0)
(0.136899 0.000142148 0)
(0.1366 0.000156619 0)
(0.136272 0.00017091 0)
(0.135916 0.000185012 0)
(0.135532 0.000198919 0)
(0.13512 0.000212622 0)
(0.134681 0.000226117 0)
(0.134215 0.000239395 0)
(0.133723 0.000252452 0)
(0.133205 0.000265282 0)
(0.132662 0.000277879 0)
(0.132093 0.000290241 0)
(0.1315 0.000302362 0)
(0.130883 0.000314239 0)
(0.130243 0.000325869 0)
(0.12958 0.00033725 0)
(0.128894 0.000348378 0)
(0.128186 0.000359251 0)
(0.127456 0.00036987 0)
(0.126706 0.000380231 0)
(0.125935 0.000390335 0)
(0.125144 0.00040018 0)
(0.124334 0.000409768 0)
(0.123505 0.000419098 0)
(0.122657 0.000428171 0)
(0.121792 0.000436987 0)
(0.120909 0.000445549 0)
(0.120009 0.000453857 0)
(0.119093 0.000461913 0)
(0.118162 0.00046972 0)
(0.117214 0.00047728 0)
(0.116252 0.000484595 0)
(0.115276 0.000491667 0)
(0.114285 0.000498501 0)
(0.113281 0.000505098 0)
(0.112264 0.000511463 0)
(0.111235 0.000517599 0)
(0.110194 0.000523509 0)
(0.109141 0.000529198 0)
(0.108077 0.000534668 0)
(0.107002 0.000539925 0)
(0.105917 0.000544971 0)
(0.104822 0.000549812 0)
(0.103717 0.000554452 0)
(0.102604 0.000558895 0)
(0.101481 0.000563145 0)
(0.100351 0.000567207 0)
(0.0992123 0.000571086 0)
(0.0980662 0.000574785 0)
(0.0969129 0.00057831 0)
(0.0957528 0.000581665 0)
(0.0945861 0.000584855 0)
(0.0934131 0.000587884 0)
(0.0922343 0.000590756 0)
(0.0910499 0.000593477 0)
(0.0898602 0.000596051 0)
(0.0886655 0.000598483 0)
(0.0874661 0.000600776 0)
(0.0862622 0.000602935 0)
(0.0850542 0.000604966 0)
(0.0838422 0.000606871 0)
(0.0826265 0.000608656 0)
(0.0814074 0.000610325 0)
(0.080185 0.000611881 0)
(0.0789597 0.00061333 0)
(0.0777316 0.000614675 0)
(0.0765008 0.00061592 0)
(0.0752677 0.000617069 0)
(0.0740324 0.000618127 0)
(0.0727951 0.000619096 0)
(0.0715559 0.000619982 0)
(0.070315 0.000620786 0)
(0.0690726 0.000621514 0)
(0.0678289 0.000622169 0)
(0.0665838 0.000622754 0)
(0.0653377 0.000623272 0)
(0.0640906 0.000623727 0)
(0.0628427 0.000624123 0)
(0.0615941 0.000624462 0)
(0.0603448 0.000624747 0)
(0.059095 0.000624981 0)
(0.0578448 0.000625169 0)
(0.0565942 0.000625311 0)
(0.0553434 0.000625412 0)
(0.0540925 0.000625473 0)
(0.0528414 0.000625498 0)
(0.0515904 0.000625489 0)
(0.0503394 0.000625448 0)
(0.0490885 0.000625379 0)
(0.0478378 0.000625283 0)
(0.0465873 0.000625162 0)
(0.0453371 0.000625019 0)
(0.0440872 0.000624856 0)
(0.0428376 0.000624675 0)
(0.0415884 0.000624478 0)
(0.0403397 0.000624267 0)
(0.0390913 0.000624043 0)
(0.0378434 0.000623809 0)
(0.036596 0.000623567 0)
(0.0353491 0.000623317 0)
(0.0341027 0.000623062 0)
(0.0328568 0.000622803 0)
(0.0316115 0.000622542 0)
(0.0303666 0.000622279 0)
(0.0291223 0.000622017 0)
(0.0278785 0.000621756 0)
(0.0266353 0.000621498 0)
(0.0253925 0.000621244 0)
(0.0241502 0.000620995 0)
(0.0229085 0.000620752 0)
(0.0216672 0.000620516 0)
(0.0204264 0.000620289 0)
(0.019186 0.00062007 0)
(0.0179461 0.000619861 0)
(0.0167065 0.000619662 0)
(0.0154674 0.000619475 0)
(0.0142286 0.0006193 0)
(0.0129902 0.000619137 0)
(0.011752 0.000618987 0)
(0.0105142 0.000618851 0)
(0.00927662 0.000618729 0)
(0.00803926 0.000618621 0)
(0.00680211 0.000618528 0)
(0.00556513 0.00061845 0)
(0.00432829 0.000618388 0)
(0.00309155 0.000618341 0)
(0.00185491 0.000618309 0)
(0.000618302 0.000618293 0)
(0.000752143 -0.00225649 0)
(0.00225646 -0.00225654 0)
(0.00376082 -0.00225666 0)
(0.00526526 -0.00225683 0)
(0.00676985 -0.00225705 0)
(0.0082746 -0.00225733 0)
(0.00977955 -0.00225765 0)
(0.0112847 -0.00225802 0)
(0.0127902 -0.00225843 0)
(0.0142959 -0.00225887 0)
(0.0158019 -0.00225935 0)
(0.0173083 -0.00225986 0)
(0.0188151 -0.0022604 0)
(0.0203222 -0.00226095 0)
(0.0218296 -0.00226151 0)
(0.0233375 -0.00226208 0)
(0.0248457 -0.00226265 0)
(0.0263544 -0.0022632 0)
(0.0278633 -0.00226374 0)
(0.0293727 -0.00226425 0)
(0.0308824 -0.00226472 0)
(0.0323924 -0.00226514 0)
(0.0339026 -0.00226551 0)
(0.0354131 -0.00226581 0)
(0.0369238 -0.00226603 0)
(0.0384346 -0.00226616 0)
(0.0399454 -0.00226618 0)
(0.0414563 -0.00226609 0)
(0.042967 -0.00226587 0)
(0.0444776 -0.00226551 0)
(0.0459879 -0.00226499 0)
(0.0474978 -0.00226429 0)
(0.0490072 -0.00226341 0)
(0.0505159 -0.00226233 0)
(0.0520239 -0.00226102 0)
(0.0535309 -0.00225949 0)
(0.0550368 -0.0022577 0)
(0.0565414 -0.00225564 0)
(0.0580446 -0.00225329 0)
(0.0595462 -0.00225064 0)
(0.0610459 -0.00224767 0)
(0.0625435 -0.00224435 0)
(0.0640388 -0.00224068 0)
(0.0655315 -0.00223663 0)
(0.0670214 -0.00223217 0)
(0.0685082 -0.00222731 0)
(0.0699917 -0.002222 0)
(0.0714714 -0.00221623 0)
(0.0729472 -0.00220999 0)
(0.0744187 -0.00220325 0)
(0.0758855 -0.00219599 0)
(0.0773473 -0.0021882 0)
(0.0788038 -0.00217985 0)
(0.0802545 -0.00217092 0)
(0.081699 -0.00216139 0)
(0.0831371 -0.00215125 0)
(0.0845681 -0.00214047 0)
(0.0859918 -0.00212904 0)
(0.0874077 -0.00211693 0)
(0.0888152 -0.00210413 0)
(0.090214 -0.00209062 0)
(0.0916036 -0.00207639 0)
(0.0929834 -0.00206141 0)
(0.094353 -0.00204567 0)
(0.0957119 -0.00202916 0)
(0.0970595 -0.00201186 0)
(0.0983954 -0.00199376 0)
(0.0997189 -0.00197484 0)
(0.101029 -0.00195509 0)
(0.102327 -0.00193451 0)
(0.10361 -0.00191307 0)
(0.104878 -0.00189078 0)
(0.106132 -0.00186762 0)
(0.10737 -0.00184359 0)
(0.108591 -0.00181869 0)
(0.109796 -0.0017929 0)
(0.110983 -0.00176623 0)
(0.112152 -0.00173867 0)
(0.113302 -0.00171024 0)
(0.114433 -0.00168091 0)
(0.115544 -0.00165071 0)
(0.116635 -0.00161963 0)
(0.117705 -0.00158769 0)
(0.118753 -0.00155488 0)
(0.119779 -0.00152123 0)
(0.120782 -0.00148673 0)
(0.121762 -0.0014514 0)
(0.122719 -0.00141526 0)
(0.12365 -0.00137833 0)
(0.124557 -0.00134061 0)
(0.125439 -0.00130213 0)
(0.126294 -0.00126291 0)
(0.127123 -0.00122297 0)
(0.127926 -0.00118233 0)
(0.128701 -0.00114103 0)
(0.129448 -0.00109907 0)
(0.130167 -0.0010565 0)
(0.130857 -0.00101334 0)
(0.131519 -0.000969621 0)
(0.132151 -0.000925373 0)
(0.132753 -0.000880629 0)
(0.133326 -0.000835421 0)
(0.133868 -0.000789784 0)
(0.134379 -0.000743753 0)
(0.13486 -0.000697363 0)
(0.135309 -0.000650651 0)
(0.135728 -0.000603653 0)
(0.136114 -0.000556407 0)
(0.13647 -0.000508951 0)
(0.136793 -0.000461322 0)
(0.137085 -0.00041356 0)
(0.137345 -0.000365701 0)
(0.137573 -0.000317785 0)
(0.137769 -0.00026985 0)
(0.137932 -0.000221934 0)
(0.138064 -0.000174076 0)
(0.138164 -0.000126311 0)
(0.138233 -7.86787e-05 0)
(0.138269 -3.12143e-05 0)
(0.138274 1.60459e-05 0)
(0.138247 6.30666e-05 0)
(0.13819 0.000109813 0)
(0.138101 0.000156252 0)
(0.137981 0.000202351 0)
(0.13783 0.000248076 0)
(0.13765 0.000293399 0)
(0.137439 0.000338288 0)
(0.137198 0.000382715 0)
(0.136928 0.000426652 0)
(0.136628 0.000470074 0)
(0.1363 0.000512954 0)
(0.135944 0.000555269 0)
(0.135559 0.000596996 0)
(0.135147 0.000638114 0)
(0.134708 0.000678603 0)
(0.134242 0.000718443 0)
(0.133749 0.000757619 0)
(0.133231 0.000796113 0)
(0.132687 0.000833911 0)
(0.132118 0.000871 0)
(0.131524 0.000907367 0)
(0.130907 0.000943001 0)
(0.130266 0.000977894 0)
(0.129602 0.00101204 0)
(0.128916 0.00104542 0)
(0.128207 0.00107805 0)
(0.127477 0.0011099 0)
(0.126727 0.00114099 0)
(0.125955 0.0011713 0)
(0.125164 0.00120083 0)
(0.124353 0.0012296 0)
(0.123523 0.00125759 0)
(0.122675 0.0012848 0)
(0.121809 0.00131125 0)
(0.120926 0.00133693 0)
(0.120026 0.00136186 0)
(0.119109 0.00138602 0)
(0.118177 0.00140944 0)
(0.117229 0.00143212 0)
(0.116267 0.00145406 0)
(0.11529 0.00147527 0)
(0.114299 0.00149577 0)
(0.113294 0.00151556 0)
(0.112277 0.00153465 0)
(0.111247 0.00155305 0)
(0.110205 0.00157078 0)
(0.109152 0.00158784 0)
(0.108088 0.00160425 0)
(0.107012 0.00162001 0)
(0.105927 0.00163515 0)
(0.104831 0.00164967 0)
(0.103726 0.00166358 0)
(0.102612 0.00167691 0)
(0.10149 0.00168965 0)
(0.100359 0.00170183 0)
(0.09922 0.00171346 0)
(0.0980735 0.00172456 0)
(0.0969199 0.00173513 0)
(0.0957594 0.00174519 0)
(0.0945924 0.00175475 0)
(0.0934191 0.00176383 0)
(0.09224 0.00177245 0)
(0.0910553 0.00178061 0)
(0.0898653 0.00178832 0)
(0.0886703 0.00179561 0)
(0.0874706 0.00180249 0)
(0.0862665 0.00180896 0)
(0.0850582 0.00181505 0)
(0.0838459 0.00182076 0)
(0.08263 0.00182611 0)
(0.0814107 0.00183111 0)
(0.0801881 0.00183578 0)
(0.0789626 0.00184012 0)
(0.0777342 0.00184415 0)
(0.0765033 0.00184788 0)
(0.07527 0.00185132 0)
(0.0740345 0.00185449 0)
(0.072797 0.0018574 0)
(0.0715577 0.00186005 0)
(0.0703166 0.00186246 0)
(0.0690741 0.00186464 0)
(0.0678302 0.0018666 0)
(0.066585 0.00186835 0)
(0.0653388 0.0018699 0)
(0.0640916 0.00187126 0)
(0.0628435 0.00187245 0)
(0.0615947 0.00187346 0)
(0.0603454 0.00187431 0)
(0.0590955 0.00187501 0)
(0.0578451 0.00187557 0)
(0.0565945 0.001876 0)
(0.0553436 0.0018763 0)
(0.0540926 0.00187648 0)
(0.0528415 0.00187655 0)
(0.0515904 0.00187652 0)
(0.0503394 0.0018764 0)
(0.0490884 0.00187618 0)
(0.0478377 0.00187589 0)
(0.0465871 0.00187553 0)
(0.0453369 0.0018751 0)
(0.0440869 0.00187461 0)
(0.0428373 0.00187406 0)
(0.0415881 0.00187347 0)
(0.0403393 0.00187283 0)
(0.0390909 0.00187216 0)
(0.037843 0.00187146 0)
(0.0365956 0.00187073 0)
(0.0353487 0.00186998 0)
(0.0341022 0.00186921 0)
(0.0328564 0.00186843 0)
(0.031611 0.00186765 0)
(0.0303661 0.00186686 0)
(0.0291218 0.00186607 0)
(0.027878 0.00186528 0)
(0.0266348 0.00186451 0)
(0.025392 0.00186375 0)
(0.0241498 0.001863 0)
(0.022908 0.00186227 0)
(0.0216668 0.00186156 0)
(0.020426 0.00186088 0)
(0.0191856 0.00186022 0)
(0.0179457 0.00185959 0)
(0.0167062 0.00185899 0)
(0.0154671 0.00185843 0)
(0.0142283 0.00185791 0)
(0.0129899 0.00185742 0)
(0.0117518 0.00185697 0)
(0.010514 0.00185656 0)
(0.0092764 0.00185619 0)
(0.00803907 0.00185587 0)
(0.00680195 0.00185559 0)
(0.00556499 0.00185535 0)
(0.00432818 0.00185517 0)
(0.00309148 0.00185503 0)
(0.00185486 0.00185493 0)
(0.000618286 0.00185488 0)
(0.0007521 -0.00376076 0)
(0.00225634 -0.00376085 0)
(0.00376063 -0.00376103 0)
(0.00526502 -0.00376131 0)
(0.00676953 -0.00376168 0)
(0.00827422 -0.00376214 0)
(0.00977911 -0.00376268 0)
(0.0112842 -0.00376329 0)
(0.0127896 -0.00376398 0)
(0.0142953 -0.00376473 0)
(0.0158013 -0.00376554 0)
(0.0173077 -0.00376639 0)
(0.0188144 -0.00376729 0)
(0.0203214 -0.00376822 0)
(0.0218289 -0.00376916 0)
(0.0233368 -0.00377012 0)
(0.024845 -0.00377107 0)
(0.0263537 -0.003772 0)
(0.0278627 -0.00377291 0)
(0.0293721 -0.00377377 0)
(0.0308818 -0.00377456 0)
(0.0323919 -0.00377528 0)
(0.0339022 -0.00377591 0)
(0.0354128 -0.00377642 0)
(0.0369236 -0.0037768 0)
(0.0384345 -0.00377702 0)
(0.0399455 -0.00377708 0)
(0.0414565 -0.00377694 0)
(0.0429675 -0.00377659 0)
(0.0444782 -0.003776 0)
(0.0459888 -0.00377515 0)
(0.0474989 -0.00377401 0)
(0.0490085 -0.00377256 0)
(0.0505175 -0.00377077 0)
(0.0520258 -0.00376862 0)
(0.0535331 -0.00376607 0)
(0.0550394 -0.00376311 0)
(0.0565444 -0.0037597 0)
(0.058048 -0.00375581 0)
(0.05955 -0.00375141 0)
(0.0610501 -0.00374648 0)
(0.0625482 -0.00374097 0)
(0.064044 -0.00373487 0)
(0.0655373 -0.00372814 0)
(0.0670277 -0.00372074 0)
(0.0685151 -0.00371264 0)
(0.0699991 -0.00370382 0)
(0.0714795 -0.00369423 0)
(0.072956 -0.00368385 0)
(0.0744281 -0.00367264 0)
(0.0758956 -0.00366057 0)
(0.0773582 -0.0036476 0)
(0.0788154 -0.0036337 0)
(0.0802669 -0.00361884 0)
(0.0817122 -0.00360298 0)
(0.0831511 -0.0035861 0)
(0.084583 -0.00356816 0)
(0.0860076 -0.00354912 0)
(0.0874243 -0.00352897 0)
(0.0888328 -0.00350765 0)
(0.0902326 -0.00348516 0)
(0.0916231 -0.00346146 0)
(0.093004 -0.00343651 0)
(0.0943746 -0.0034103 0)
(0.0957346 -0.0033828 0)
(0.0970832 -0.00335398 0)
(0.0984201 -0.00332382 0)
(0.0997447 -0.0032923 0)
(0.101056 -0.0032594 0)
(0.102355 -0.0032251 0)
(0.103639 -0.00318939 0)
(0.104909 -0.00315224 0)
(0.106163 -0.00311365 0)
(0.107402 -0.00307361 0)
(0.108625 -0.0030321 0)
(0.109831 -0.00298913 0)
(0.111019 -0.00294468 0)
(0.112189 -0.00289875 0)
(0.113341 -0.00285135 0)
(0.114473 -0.00280248 0)
(0.115585 -0.00275214 0)
(0.116677 -0.00270033 0)
(0.117748 -0.00264708 0)
(0.118797 -0.0025924 0)
(0.119825 -0.00253629 0)
(0.120829 -0.00247878 0)
(0.12181 -0.00241989 0)
(0.122767 -0.00235964 0)
(0.1237 -0.00229806 0)
(0.124608 -0.00223517 0)
(0.125491 -0.00217102 0)
(0.126347 -0.00210562 0)
(0.127177 -0.00203903 0)
(0.127981 -0.00197128 0)
(0.128756 -0.0019024 0)
(0.129504 -0.00183245 0)
(0.130224 -0.00176146 0)
(0.130915 -0.0016895 0)
(0.131578 -0.0016166 0)
(0.13221 -0.00154281 0)
(0.132813 -0.0014682 0)
(0.133386 -0.00139282 0)
(0.133929 -0.00131672 0)
(0.134441 -0.00123996 0)
(0.134922 -0.0011626 0)
(0.135372 -0.00108471 0)
(0.135791 -0.00100634 0)
(0.136178 -0.000927551 0)
(0.136533 -0.000848415 0)
(0.136857 -0.000768991 0)
(0.137149 -0.000689343 0)
(0.137409 -0.000609536 0)
(0.137637 -0.000529633 0)
(0.137833 -0.000449699 0)
(0.137996 -0.000369797 0)
(0.138128 -0.000289991 0)
(0.138228 -0.000210343 0)
(0.138296 -0.000130914 0)
(0.138332 -5.17666e-05 0)
(0.138337 2.70398e-05 0)
(0.13831 0.000105446 0)
(0.138252 0.000183395 0)
(0.138163 0.00026083 0)
(0.138042 0.000337696 0)
(0.137891 0.00041394 0)
(0.13771 0.000489511 0)
(0.137498 0.000564358 0)
(0.137257 0.000638434 0)
(0.136986 0.000711692 0)
(0.136686 0.000784089 0)
(0.136357 0.000855583 0)
(0.136 0.000926133 0)
(0.135615 0.000995702 0)
(0.135202 0.00106425 0)
(0.134761 0.00113176 0)
(0.134294 0.00119818 0)
(0.133801 0.00126349 0)
(0.133282 0.00132766 0)
(0.132737 0.00139067 0)
(0.132167 0.0014525 0)
(0.131573 0.00151312 0)
(0.130954 0.00157252 0)
(0.130312 0.00163069 0)
(0.129647 0.0016876 0)
(0.12896 0.00174325 0)
(0.128251 0.00179763 0)
(0.12752 0.00185072 0)
(0.126768 0.00190253 0)
(0.125995 0.00195305 0)
(0.125203 0.00200228 0)
(0.124391 0.00205022 0)
(0.12356 0.00209686 0)
(0.122711 0.00214222 0)
(0.121844 0.0021863 0)
(0.12096 0.0022291 0)
(0.120059 0.00227063 0)
(0.119141 0.0023109 0)
(0.118208 0.00234992 0)
(0.117259 0.00238771 0)
(0.116296 0.00242427 0)
(0.115318 0.00245961 0)
(0.114326 0.00249377 0)
(0.11332 0.00252674 0)
(0.112302 0.00255854 0)
(0.111272 0.0025892 0)
(0.110229 0.00261873 0)
(0.109175 0.00264716 0)
(0.108109 0.00267449 0)
(0.107033 0.00270075 0)
(0.105947 0.00272596 0)
(0.10485 0.00275014 0)
(0.103745 0.00277332 0)
(0.10263 0.00279551 0)
(0.101507 0.00281674 0)
(0.100375 0.00283703 0)
(0.0992353 0.0028564 0)
(0.0980882 0.00287487 0)
(0.0969338 0.00289247 0)
(0.0957727 0.00290922 0)
(0.094605 0.00292515 0)
(0.0934311 0.00294027 0)
(0.0922513 0.00295461 0)
(0.091066 0.00296819 0)
(0.0898755 0.00298104 0)
(0.0886799 0.00299317 0)
(0.0874797 0.00300461 0)
(0.086275 0.00301539 0)
(0.0850662 0.00302552 0)
(0.0838535 0.00303502 0)
(0.0826371 0.00304393 0)
(0.0814173 0.00305225 0)
(0.0801943 0.00306001 0)
(0.0789683 0.00306723 0)
(0.0777396 0.00307393 0)
(0.0765083 0.00308014 0)
(0.0752746 0.00308587 0)
(0.0740387 0.00309113 0)
(0.0728009 0.00309596 0)
(0.0715612 0.00310037 0)
(0.0703199 0.00310438 0)
(0.069077 0.003108 0)
(0.0678328 0.00311125 0)
(0.0665874 0.00311416 0)
(0.0653409 0.00311673 0)
(0.0640934 0.00311899 0)
(0.0628451 0.00312096 0)
(0.0615961 0.00312263 0)
(0.0603465 0.00312404 0)
(0.0590964 0.0031252 0)
(0.0578459 0.00312612 0)
(0.0565951 0.00312682 0)
(0.0553441 0.00312731 0)
(0.0540929 0.0031276 0)
(0.0528417 0.00312772 0)
(0.0515904 0.00312766 0)
(0.0503393 0.00312744 0)
(0.0490882 0.00312708 0)
(0.0478373 0.00312659 0)
(0.0465867 0.00312598 0)
(0.0453364 0.00312525 0)
(0.0440863 0.00312442 0)
(0.0428366 0.00312351 0)
(0.0415874 0.00312251 0)
(0.0403385 0.00312145 0)
(0.0390901 0.00312032 0)
(0.0378421 0.00311914 0)
(0.0365947 0.00311792 0)
(0.0353477 0.00311667 0)
(0.0341013 0.00311538 0)
(0.0328554 0.00311408 0)
(0.03161 0.00311276 0)
(0.0303652 0.00311145 0)
(0.0291208 0.00311013 0)
(0.0278771 0.00310882 0)
(0.0266338 0.00310752 0)
(0.0253911 0.00310625 0)
(0.0241488 0.003105 0)
(0.0229071 0.00310378 0)
(0.0216659 0.00310259 0)
(0.0204251 0.00310145 0)
(0.0191848 0.00310035 0)
(0.0179449 0.0030993 0)
(0.0167054 0.00309831 0)
(0.0154664 0.00309737 0)
(0.0142277 0.00309649 0)
(0.0129893 0.00309567 0)
(0.0117512 0.00309492 0)
(0.0105135 0.00309423 0)
(0.00927596 0.00309362 0)
(0.00803869 0.00309308 0)
(0.00680162 0.00309262 0)
(0.00556472 0.00309222 0)
(0.00432797 0.00309191 0)
(0.00309133 0.00309167 0)
(0.00185477 0.00309152 0)
(0.000618256 0.00309144 0)
(0.000752043 -0.00526494 0)
(0.00225617 -0.00526507 0)
(0.00376036 -0.00526533 0)
(0.00526464 -0.00526572 0)
(0.00676905 -0.00526624 0)
(0.00827364 -0.00526689 0)
(0.00977844 -0.00526765 0)
(0.0112835 -0.00526851 0)
(0.0127888 -0.00526948 0)
(0.0142944 -0.00527054 0)
(0.0158003 -0.00527169 0)
(0.0173066 -0.0052729 0)
(0.0188133 -0.00527417 0)
(0.0203204 -0.00527548 0)
(0.0218278 -0.00527682 0)
(0.0233357 -0.00527818 0)
(0.0248439 -0.00527953 0)
(0.0263526 -0.00528085 0)
(0.0278617 -0.00528214 0)
(0.0293711 -0.00528336 0)
(0.0308809 -0.0052845 0)
(0.0323911 -0.00528553 0)
(0.0339016 -0.00528643 0)
(0.0354123 -0.00528717 0)
(0.0369233 -0.00528773 0)
(0.0384344 -0.00528808 0)
(0.0399456 -0.00528819 0)
(0.0414569 -0.00528803 0)
(0.0429681 -0.00528757 0)
(0.0444792 -0.00528677 0)
(0.04599 -0.00528561 0)
(0.0475005 -0.00528405 0)
(0.0490105 -0.00528206 0)
(0.05052 -0.00527959 0)
(0.0520287 -0.00527661 0)
(0.0535365 -0.00527309 0)
(0.0550433 -0.00526898 0)
(0.0565489 -0.00526425 0)
(0.0580531 -0.00525884 0)
(0.0595557 -0.00525273 0)
(0.0610565 -0.00524587 0)
(0.0625553 -0.00523821 0)
(0.0640518 -0.00522971 0)
(0.0655458 -0.00522032 0)
(0.0670371 -0.00521001 0)
(0.0685254 -0.00519873 0)
(0.0700103 -0.00518642 0)
(0.0714916 -0.00517304 0)
(0.072969 -0.00515856 0)
(0.0744422 -0.00514291 0)
(0.0759108 -0.00512605 0)
(0.0773744 -0.00510794 0)
(0.0788328 -0.00508853 0)
(0.0802854 -0.00506777 0)
(0.081732 -0.00504562 0)
(0.0831721 -0.00502203 0)
(0.0846053 -0.00499695 0)
(0.0860312 -0.00497035 0)
(0.0874494 -0.00494217 0)
(0.0888593 -0.00491237 0)
(0.0902605 -0.00488092 0)
(0.0916525 -0.00484777 0)
(0.0930348 -0.00481289 0)
(0.094407 -0.00477623 0)
(0.0957685 -0.00473776 0)
(0.0971188 -0.00469744 0)
(0.0984573 -0.00465525 0)
(0.0997836 -0.00461115 0)
(0.101097 -0.00456512 0)
(0.102397 -0.00451713 0)
(0.103683 -0.00446715 0)
(0.104954 -0.00441516 0)
(0.106211 -0.00436115 0)
(0.107452 -0.0043051 0)
(0.108676 -0.00424701 0)
(0.109883 -0.00418685 0)
(0.111073 -0.00412462 0)
(0.112245 -0.00406032 0)
(0.113399 -0.00399396 0)
(0.114533 -0.00392552 0)
(0.115647 -0.00385503 0)
(0.11674 -0.0037825 0)
(0.117813 -0.00370793 0)
(0.118864 -0.00363134 0)
(0.119893 -0.00355277 0)
(0.120899 -0.00347222 0)
(0.121882 -0.00338974 0)
(0.122841 -0.00330536 0)
(0.123775 -0.0032191 0)
(0.124685 -0.00313102 0)
(0.125569 -0.00304116 0)
(0.126427 -0.00294956 0)
(0.127258 -0.00285627 0)
(0.128063 -0.00276136 0)
(0.12884 -0.00266487 0)
(0.129589 -0.00256687 0)
(0.13031 -0.00246743 0)
(0.131003 -0.0023666 0)
(0.131666 -0.00226447 0)
(0.1323 -0.0021611 0)
(0.132904 -0.00205657 0)
(0.133477 -0.00195095 0)
(0.134021 -0.00184433 0)
(0.134534 -0.00173678 0)
(0.135015 -0.0016284 0)
(0.135466 -0.00151926 0)
(0.135885 -0.00140945 0)
(0.136273 -0.00129907 0)
(0.136629 -0.00118819 0)
(0.136953 -0.0010769 0)
(0.137245 -0.000965306 0)
(0.137505 -0.000853487 0)
(0.137733 -0.000741534 0)
(0.137929 -0.000629537 0)
(0.138093 -0.000517586 0)
(0.138224 -0.000405769 0)
(0.138324 -0.000294175 0)
(0.138392 -0.000182889 0)
(0.138428 -7.1999e-05 0)
(0.138432 3.84124e-05 0)
(0.138404 0.000148262 0)
(0.138345 0.000257469 0)
(0.138255 0.000365955 0)
(0.138134 0.000473642 0)
(0.137983 0.000580456 0)
(0.1378 0.000686325 0)
(0.137588 0.000791178 0)
(0.137346 0.000894948 0)
(0.137074 0.000997572 0)
(0.136773 0.00109899 0)
(0.136443 0.00119913 0)
(0.136084 0.00129796 0)
(0.135698 0.0013954 0)
(0.135284 0.00149142 0)
(0.134842 0.00158597 0)
(0.134374 0.001679 0)
(0.133879 0.00177047 0)
(0.133358 0.00186035 0)
(0.132812 0.00194859 0)
(0.132241 0.00203518 0)
(0.131645 0.00212008 0)
(0.131025 0.00220326 0)
(0.130382 0.00228471 0)
(0.129715 0.00236441 0)
(0.129026 0.00244233 0)
(0.128315 0.00251847 0)
(0.127583 0.00259281 0)
(0.126829 0.00266535 0)
(0.126055 0.00273608 0)
(0.125262 0.002805 0)
(0.124448 0.00287211 0)
(0.123616 0.00293741 0)
(0.122765 0.0030009 0)
(0.121897 0.0030626 0)
(0.121011 0.00312251 0)
(0.120108 0.00318064 0)
(0.119189 0.00323701 0)
(0.118254 0.00329162 0)
(0.117304 0.0033445 0)
(0.116339 0.00339567 0)
(0.11536 0.00344513 0)
(0.114366 0.00349292 0)
(0.11336 0.00353906 0)
(0.11234 0.00358356 0)
(0.111308 0.00362646 0)
(0.110264 0.00366778 0)
(0.109208 0.00370754 0)
(0.108142 0.00374578 0)
(0.107064 0.00378252 0)
(0.105977 0.00381779 0)
(0.104879 0.00385161 0)
(0.103772 0.00388403 0)
(0.102656 0.00391507 0)
(0.101532 0.00394475 0)
(0.100399 0.00397313 0)
(0.0992583 0.00400021 0)
(0.0981101 0.00402604 0)
(0.0969547 0.00405065 0)
(0.0957925 0.00407407 0)
(0.0946238 0.00409633 0)
(0.093449 0.00411747 0)
(0.0922683 0.00413751 0)
(0.0910821 0.0041565 0)
(0.0898907 0.00417445 0)
(0.0886943 0.00419141 0)
(0.0874933 0.0042074 0)
(0.0862878 0.00422245 0)
(0.0850782 0.0042366 0)
(0.0838648 0.00424988 0)
(0.0826477 0.00426231 0)
(0.0814272 0.00427393 0)
(0.0802035 0.00428477 0)
(0.0789769 0.00429485 0)
(0.0777475 0.00430421 0)
(0.0765156 0.00431287 0)
(0.0752814 0.00432086 0)
(0.074045 0.00432821 0)
(0.0728066 0.00433494 0)
(0.0715665 0.00434109 0)
(0.0703246 0.00434667 0)
(0.0690813 0.00435171 0)
(0.0678367 0.00435625 0)
(0.0665909 0.00436029 0)
(0.065344 0.00436387 0)
(0.0640961 0.00436701 0)
(0.0628475 0.00436974 0)
(0.0615982 0.00437206 0)
(0.0603483 0.00437402 0)
(0.0590979 0.00437562 0)
(0.0578471 0.00437689 0)
(0.056596 0.00437785 0)
(0.0553447 0.00437851 0)
(0.0540933 0.00437891 0)
(0.0528419 0.00437904 0)
(0.0515904 0.00437895 0)
(0.0503391 0.00437863 0)
(0.0490879 0.00437811 0)
(0.0478368 0.0043774 0)
(0.0465861 0.00437653 0)
(0.0453356 0.00437549 0)
(0.0440854 0.00437432 0)
(0.0428356 0.00437303 0)
(0.0415863 0.00437162 0)
(0.0403373 0.00437012 0)
(0.0390888 0.00436853 0)
(0.0378408 0.00436687 0)
(0.0365933 0.00436515 0)
(0.0353463 0.00436338 0)
(0.0340999 0.00436157 0)
(0.0328539 0.00435973 0)
(0.0316085 0.00435788 0)
(0.0303637 0.00435603 0)
(0.0291194 0.00435417 0)
(0.0278756 0.00435233 0)
(0.0266324 0.00435051 0)
(0.0253896 0.00434871 0)
(0.0241474 0.00434696 0)
(0.0229058 0.00434524 0)
(0.0216646 0.00434358 0)
(0.0204238 0.00434197 0)
(0.0191836 0.00434043 0)
(0.0179437 0.00433895 0)
(0.0167043 0.00433755 0)
(0.0154653 0.00433623 0)
(0.0142267 0.004335 0)
(0.0129884 0.00433385 0)
(0.0117504 0.00433279 0)
(0.0105127 0.00433183 0)
(0.0092753 0.00433097 0)
(0.00803811 0.00433021 0)
(0.00680113 0.00432956 0)
(0.00556432 0.00432901 0)
(0.00432765 0.00432857 0)
(0.0030911 0.00432824 0)
(0.00185463 0.00432802 0)
(0.00061821 0.00432791 0)
(0.000751968 -0.00676899 0)
(0.00225595 -0.00676915 0)
(0.00375999 -0.0067695 0)
(0.00526413 -0.00677001 0)
(0.00676841 -0.00677069 0)
(0.00827286 -0.00677152 0)
(0.00977753 -0.00677251 0)
(0.0112825 -0.00677364 0)
(0.0127877 -0.0067749 0)
(0.0142932 -0.00677628 0)
(0.015799 -0.00677777 0)
(0.0173053 -0.00677935 0)
(0.0188119 -0.006781 0)
(0.0203189 -0.00678272 0)
(0.0218263 -0.00678447 0)
(0.0233342 -0.00678624 0)
(0.0248424 -0.00678801 0)
(0.0263512 -0.00678975 0)
(0.0278603 -0.00679144 0)
(0.0293698 -0.00679305 0)
(0.0308798 -0.00679455 0)
(0.0323901 -0.00679592 0)
(0.0339007 -0.00679711 0)
(0.0354116 -0.00679811 0)
(0.0369228 -0.00679888 0)
(0.0384342 -0.00679938 0)
(0.0399457 -0.00679957 0)
(0.0414573 -0.00679941 0)
(0.0429689 -0.00679888 0)
(0.0444804 -0.00679791 0)
(0.0459916 -0.00679648 0)
(0.0475026 -0.00679453 0)
(0.0490132 -0.00679203 0)
(0.0505232 -0.00678892 0)
(0.0520325 -0.00678516 0)
(0.053541 -0.0067807 0)
(0.0550485 -0.00677549 0)
(0.0565548 -0.00676947 0)
(0.0580598 -0.00676259 0)
(0.0595632 -0.00675481 0)
(0.0610649 -0.00674606 0)
(0.0625646 -0.00673628 0)
(0.0640621 -0.00672543 0)
(0.0655572 -0.00671344 0)
(0.0670496 -0.00670026 0)
(0.068539 -0.00668583 0)
(0.0700251 -0.00667009 0)
(0.0715077 -0.00665297 0)
(0.0729864 -0.00663442 0)
(0.0744609 -0.00661439 0)
(0.0759309 -0.00659279 0)
(0.077396 -0.00656959 0)
(0.0788558 -0.00654471 0)
(0.0803101 -0.0065181 0)
(0.0817583 -0.0064897 0)
(0.0832001 -0.00645944 0)
(0.084635 -0.00642728 0)
(0.0860627 -0.00639315 0)
(0.0874827 -0.00635699 0)
(0.0888944 -0.00631875 0)
(0.0902975 -0.00627839 0)
(0.0916915 -0.00623583 0)
(0.0930759 -0.00619105 0)
(0.0944501 -0.00614397 0)
(0.0958137 -0.00609457 0)
(0.0971661 -0.00604279 0)
(0.0985068 -0.0059886 0)
(0.0998353 -0.00593195 0)
(0.101151 -0.0058728 0)
(0.102453 -0.00581114 0)
(0.103741 -0.00574691 0)
(0.105015 -0.00568011 0)
(0.106274 -0.00561069 0)
(0.107517 -0.00553865 0)
(0.108744 -0.00546397 0)
(0.109954 -0.00538663 0)
(0.111146 -0.00530663 0)
(0.11232 -0.00522396 0)
(0.113476 -0.00513863 0)
(0.114612 -0.00505063 0)
(0.115729 -0.00495998 0)
(0.116825 -0.0048667 0)
(0.1179 -0.00477079 0)
(0.118953 -0.00467229 0)
(0.119984 -0.00457122 0)
(0.120993 -0.00446761 0)
(0.121977 -0.0043615 0)
(0.122939 -0.00425295 0)
(0.123875 -0.00414198 0)
(0.124787 -0.00402866 0)
(0.125673 -0.00391303 0)
(0.126533 -0.00379518 0)
(0.127366 -0.00367514 0)
(0.128173 -0.00355301 0)
(0.128951 -0.00342885 0)
(0.129702 -0.00330275 0)
(0.130425 -0.00317477 0)
(0.131119 -0.00304502 0)
(0.131784 -0.00291358 0)
(0.132419 -0.00278055 0)
(0.133024 -0.00264602 0)
(0.133599 -0.00251009 0)
(0.134144 -0.00237286 0)
(0.134657 -0.00223445 0)
(0.13514 -0.00209495 0)
(0.135591 -0.00195448 0)
(0.136011 -0.00181315 0)
(0.1364 -0.00167107 0)
(0.136756 -0.00152836 0)
(0.137081 -0.00138513 0)
(0.137373 -0.0012415 0)
(0.137633 -0.00109757 0)
(0.137861 -0.000953481 0)
(0.138057 -0.000809333 0)
(0.138221 -0.000665244 0)
(0.138352 -0.000521329 0)
(0.138452 -0.000377701 0)
(0.138519 -0.000234474 0)
(0.138554 -9.17558e-05 0)
(0.138558 5.03433e-05 0)
(0.13853 0.000191717 0)
(0.13847 0.000332262 0)
(0.138379 0.000471875 0)
(0.138257 0.000610458 0)
(0.138105 0.000747914 0)
(0.137921 0.00088415 0)
(0.137708 0.00101908 0)
(0.137464 0.00115261 0)
(0.137191 0.00128466 0)
(0.136888 0.00141515 0)