/*--------------------------------*- C++ -*----------------------------------*\
| =========                 |                                                 |
| \\      /  F ield         | OpenFOAM: The Open Source CFD Toolbox           |
|  \\    /   O peration     | Version:  v2012                                 |
|   \\  /    A nd           | Website:  www.openfoam.com                      |
|    \\/     M anipulation  |                                                 |
\*---------------------------------------------------------------------------*/
FoamFile
{
    version     2.0;
    format      ascii;
    class       volScalarField;
    location    "0";
    object      p;
}
// * * * * * * * * * * * * * * * * * * * * * * * * * * * * * * * * * * * * * //

dimensions      [0 2 -2 0 0 0 0];


internalField   nonuniform List<scalar> 
4000
(
1.34905e-14
8.03176e-15
1.03612e-14
1.09336e-14
2.18713e-14
3.16571e-14
2.46003e-14
2.61637e-14
2.58282e-14
3.11631e-14
3.90992e-14
3.37391e-14
2.5271e-14
1.21977e-14
9.4092e-15
1.08106e-14
1.04863e-14
1.48064e-14
1.005e-14
9.8254e-15
4.1885e-15
-6.40424e-15
-3.15562e-15
-3.57373e-15
-6.09563e-15
-1.08753e-14
1.16651e-15
-7.76985e-18
-1.29044e-16
-1.13075e-15
-4.55277e-15
-8.14387e-15
3.6243e-15
7.19885e-15
9.93674e-16
6.49682e-15
-4.19766e-15
-1.92668e-14
-3.16467e-14
-3.42695e-14
-3.55511e-14
-2.72845e-14
-2.17223e-14
-1.45105e-14
-4.26697e-15
-9.70807e-15
-8.74485e-15
-1.14839e-14
-7.50746e-15
-9.69358e-16
-3.94791e-15
1.70803e-15
6.28521e-15
2.51935e-15
3.67505e-15
-1.51502e-16
-9.35045e-15
-1.10455e-15
4.78277e-15
1.3325e-14
1.69818e-14
2.12207e-14
1.69349e-14
2.26025e-14
3.21764e-14
3.52498e-14
4.12773e-14
4.60445e-14
4.07909e-14
3.62848e-14
3.30962e-14
3.39292e-14
3.54663e-14
3.18061e-14
2.52534e-14
3.37722e-14
3.63489e-14
3.8282e-14
3.67865e-14
2.87587e-14
2.81426e-14
3.1646e-14
2.93129e-14
3.14451e-14
2.84935e-14
3.39026e-14
2.90113e-14
1.31624e-14
1.7884e-14
1.92464e-14
1.09883e-14
1.35594e-14
1.599e-14
1.15905e-14
4.38468e-15
2.87519e-15
1.48827e-15
1.14079e-15
4.13739e-15
1.7048e-15
8.71467e-15
9.77858e-15
9.24167e-15
1.3536e-14
2.05622e-14
2.72503e-14
2.58128e-14
3.0828e-14
3.37581e-14
2.80543e-14
3.19842e-14
2.9038e-14
2.65719e-14
1.87835e-14
1.3004e-14
6.86625e-15
1.13074e-14
1.46105e-14
5.38213e-15
1.20359e-14
3.84543e-15
-3.53485e-15
-2.36352e-15
-4.45356e-15
-6.6449e-15
-8.96401e-15
5.62565e-16
1.96681e-16
-3.89717e-15
-6.27654e-15
1.77395e-15
-5.62423e-15
4.40923e-15
3.90073e-15
-5.864e-16
-6.80111e-16
-5.59225e-15
-1.54632e-14
-2.19565e-14
-2.72849e-14
-3.59477e-14
-3.18697e-14
-2.36343e-14
-1.65645e-14
-4.34156e-15
-7.02554e-15
-9.30008e-15
-9.38717e-15
-1.31363e-14
-3.63584e-15
-3.16236e-15
-2.18799e-15
2.94544e-15
3.9442e-15
5.73961e-15
-5.30407e-16
-7.39316e-15
-3.20088e-15
5.45838e-15
1.24608e-14
1.91778e-14
2.11874e-14
2.35355e-14
2.36351e-14
2.82166e-14
3.52215e-14
4.03833e-14
4.28844e-14
4.46357e-14
3.96098e-14
3.67687e-14
3.35265e-14
3.35645e-14
3.50809e-14
2.86771e-14
3.2829e-14
3.94866e-14
3.57757e-14
3.33338e-14
2.82406e-14
2.94131e-14
3.06883e-14
2.89363e-14
3.177e-14
2.78072e-14
3.46073e-14
2.52013e-14
1.65003e-14
1.42058e-14
1.39448e-14
1.44817e-14
1.62836e-14
1.66391e-14
1.11448e-14
5.35452e-15
3.34835e-15
1.82488e-15
2.7073e-15
1.20673e-15
2.22682e-15
7.23178e-15
7.60309e-15
7.09749e-15
1.56368e-14
1.95571e-14
2.53641e-14
2.57377e-14
3.18478e-14
2.9714e-14
2.83238e-14
3.19412e-14
2.77936e-14
2.65386e-14
1.68846e-14
9.08361e-15
6.71005e-15
9.43965e-15
1.44151e-14
1.12199e-14
1.28939e-14
3.70374e-15
-3.81517e-15
-2.96735e-15
-3.0922e-15
-1.10819e-15
-8.58002e-15
-2.08176e-15
-7.19111e-16
-6.74686e-15
-5.68502e-15
-1.38886e-15
-2.17063e-15
3.29322e-15
3.29107e-15
2.04751e-15
1.40675e-15
-6.13469e-15
-1.66725e-14
-2.25723e-14
-2.53732e-14
-3.49276e-14
-3.41505e-14
-1.73994e-14
-1.30485e-14
-6.76601e-15
-9.01535e-15
-1.21786e-14
-1.41539e-14
-1.00528e-14
-2.0024e-15
-5.10152e-17
-3.0358e-16
-1.33866e-15
4.45098e-16
6.55668e-16
1.66273e-15
-5.3172e-15
1.13316e-15
8.63153e-15
1.20152e-14
1.33592e-14
1.34822e-14
1.76342e-14
2.30102e-14
2.95702e-14
3.57188e-14
4.46864e-14
4.26573e-14
4.72321e-14
3.88804e-14
2.85596e-14
2.81671e-14
3.11905e-14
3.85599e-14
3.36886e-14
3.49401e-14
3.69812e-14
3.57735e-14
3.3258e-14
3.13063e-14
3.48526e-14
3.30911e-14
2.484e-14
2.58654e-14
2.61722e-14
3.10935e-14
2.74105e-14
1.87901e-14
1.77002e-14
1.55095e-14
1.33701e-14
1.64851e-14
1.3905e-14
1.16942e-14
4.41658e-15
2.02519e-15
3.38507e-15
2.59271e-15
2.89196e-15
1.84161e-15
5.54713e-15
7.7718e-15
8.78807e-15
1.09006e-14
2.06541e-14
2.02459e-14
2.70541e-14
2.83309e-14
3.4456e-14
3.31578e-14
2.98139e-14
2.38558e-14
2.10417e-14
2.18762e-14
1.43101e-14
8.76183e-15
7.79804e-15
7.2209e-15
5.98814e-15
1.35155e-14
4.77134e-15
-1.97129e-15
-6.53922e-15
-7.00779e-15
-5.55466e-15
-6.25442e-15
-4.77715e-15
-3.50949e-15
-4.10831e-15
-5.66293e-15
4.16319e-15
3.1677e-15
3.35909e-15
1.86626e-15
-7.15461e-15
-1.04647e-16
-7.9152e-15
-1.94433e-14
-1.86709e-14
-2.2979e-14
-2.4491e-14
-2.42236e-14
-1.61284e-14
-1.18969e-14
-1.20248e-14
-1.38919e-14
-1.41952e-14
-8.02288e-15
-6.96636e-15
-5.01384e-15
-6.47326e-15
-8.79158e-15
-1.87095e-15
3.12842e-15
1.86025e-15
-2.42406e-16
-9.07749e-16
1.64766e-15
1.28418e-14
7.25906e-15
1.34309e-14
1.5262e-14
1.88862e-14
2.37138e-14
3.20347e-14
3.38067e-14
3.83391e-14
4.76102e-14
4.37522e-14
4.16278e-14
3.36591e-14
3.19754e-14
3.37179e-14
3.40991e-14
3.27377e-14
3.48485e-14
3.72938e-14
3.30408e-14
3.66478e-14
3.18023e-14
3.20558e-14
3.2569e-14
2.82854e-14
2.19302e-14
2.28915e-14
2.87447e-14
2.8889e-14
1.62806e-14
1.76939e-14
1.68634e-14
1.80292e-14
1.6842e-14
1.67755e-14
1.11257e-14
3.88419e-15
2.50448e-15
5.76815e-15
5.18461e-15
3.96755e-15
-9.9211e-16
6.52514e-15
9.38711e-15
1.13646e-14
1.39003e-14
1.57996e-14
1.82603e-14
2.39546e-14
2.81029e-14
3.31817e-14
3.48495e-14
2.77526e-14
2.14482e-14
2.30748e-14
2.29163e-14
1.60995e-14
4.77518e-15
3.32321e-15
1.40672e-14
1.03031e-14
6.39149e-15
-5.00152e-15
-7.96186e-15
-9.39544e-15
-3.05274e-15
1.8625e-15
-1.75074e-15
5.54067e-16
-7.81139e-15
-4.05323e-15
-3.74676e-15
2.23005e-15
6.69737e-15
1.76774e-15
-3.29819e-16
-7.985e-15
-3.55102e-15
-1.16752e-14
-1.55975e-14
-1.52309e-14
-1.77263e-14
-2.27253e-14
-1.83196e-14
-1.3401e-14
-1.2528e-14
-1.34267e-14
-2.01808e-14
-1.24835e-14
-8.28969e-15
-6.84422e-15
-6.06651e-15
-5.30466e-15
-1.51397e-15
-5.57878e-16
3.27162e-15
-1.82645e-16
-1.02191e-15
-1.38254e-15
6.00037e-15
1.01058e-14
6.14265e-15
1.52354e-14
1.33804e-14
1.65968e-14
2.09319e-14
3.15797e-14
3.58587e-14
4.42045e-14
4.52076e-14
4.08702e-14
3.87072e-14
3.43041e-14
3.28105e-14
3.38795e-14
3.30622e-14
2.59721e-14
3.22778e-14
3.83549e-14
3.69332e-14
3.77685e-14
3.51191e-14
3.40616e-14
3.58195e-14
2.809e-14
2.14432e-14
1.82227e-14
2.40207e-14
2.7084e-14
2.24174e-14
1.81845e-14
1.96101e-14
1.9405e-14
1.70357e-14
1.73855e-14
9.03648e-15
5.91548e-15
4.02583e-15
7.09028e-15
4.49639e-15
1.5221e-15
-7.59283e-15
5.948e-15
1.23296e-14
1.05064e-14
7.08942e-15
2.09934e-14
3.08363e-14
3.26424e-14
3.32146e-14
2.8129e-14
2.1342e-14
2.18492e-14
2.38447e-14
2.42548e-14
2.00592e-14
1.12283e-14
1.19098e-14
1.08291e-14
5.50038e-15
7.7124e-15
5.94837e-15
-3.02521e-15
-7.97565e-15
-1.60406e-14
-7.89471e-15
-4.7239e-15
1.80997e-15
1.28065e-15
-4.76344e-15
-2.15669e-15
1.76628e-15
3.75719e-15
5.06042e-15
-3.34827e-16
-2.32712e-15
-2.76866e-15
-4.90244e-15
-7.50995e-15
-1.88389e-14
-1.78242e-14
-1.40593e-14
-1.75117e-14
-1.21252e-14
-1.2347e-14
-1.06627e-14
-9.93177e-15
-2.08319e-14
-1.79373e-14
-1.18852e-14
-6.30507e-15
-9.1809e-15
-6.69913e-15
-3.27116e-15
-1.42551e-15
4.21179e-15
-1.12545e-16
-8.97507e-16
1.26569e-15
7.67263e-15
9.95727e-15
1.05236e-14
1.57575e-14
1.31903e-14
2.04789e-14
2.24377e-14
2.80216e-14
3.57701e-14
4.21885e-14
4.80794e-14
4.22637e-14
4.34945e-14
3.61787e-14
3.31729e-14
3.7462e-14
3.45849e-14
3.40531e-14
3.35024e-14
3.92629e-14
3.43623e-14
3.21405e-14
3.67337e-14
3.71557e-14
3.34273e-14
2.56712e-14
2.24229e-14
2.11594e-14
2.3385e-14
2.18305e-14
2.33933e-14
1.8923e-14
1.94074e-14
2.00486e-14
2.02496e-14
1.29376e-14
1.2911e-14
5.58037e-15
4.54078e-15
2.2846e-15
-6.46455e-17
-9.61536e-16
-4.13947e-15
9.64625e-15
9.8052e-15
1.02374e-14
2.08326e-14
1.93731e-14
2.74209e-14
2.86689e-14
2.93069e-14
2.41622e-14
2.01932e-14
1.91034e-14
2.21026e-14
2.32665e-14
2.00102e-14
1.27246e-14
7.78657e-15
1.1234e-14
9.93037e-15
7.20361e-15
-6.9755e-15
-2.1662e-14
-9.00714e-15
-4.29232e-15
2.28141e-15
5.44847e-15
4.82777e-15
2.28036e-15
-4.61683e-15
-3.0628e-16
5.8106e-15
3.82315e-15
2.54976e-15
-1.36227e-15
-7.05791e-15
-3.34261e-15
-4.3561e-15
-9.4831e-15
-1.26865e-14
-7.43093e-15
-1.26763e-14
-1.91072e-14
-1.18029e-14
-1.5375e-14
-1.30659e-14
-1.04194e-14
-1.6134e-14
-1.83534e-14
-6.30515e-15
-1.32262e-14
-8.2621e-15
-1.13195e-14
-5.67523e-16
5.35109e-15
3.3471e-15
-5.29512e-15
-4.93696e-15
3.07685e-15
1.0303e-14
1.28197e-14
1.71018e-14
1.43274e-14
1.19604e-14
2.02373e-14
2.70618e-14
2.71251e-14
3.42586e-14
3.63784e-14
3.92153e-14
3.96758e-14
4.13234e-14
4.51734e-14
3.94103e-14
3.61944e-14
3.80709e-14
3.29195e-14
2.9318e-14
3.63513e-14
4.06289e-14
3.56302e-14
3.35593e-14
3.13e-14
3.30753e-14
2.86373e-14
2.45298e-14
2.54114e-14
1.96701e-14
1.53594e-14
2.28096e-14
1.99441e-14
2.03073e-14
2.19657e-14
1.96086e-14
1.1203e-14
1.02775e-14
4.95909e-15
-2.76777e-15
1.27992e-15
-1.36321e-16
-2.35554e-15
-3.01921e-15
5.51511e-15
1.07622e-14
7.60835e-15
1.60046e-14
2.28499e-14
2.87235e-14
3.20334e-14
2.88791e-14
1.76208e-14
1.82978e-14
2.09542e-14
2.08662e-14
1.95723e-14
1.81112e-14
1.42661e-14
8.42061e-15
1.16425e-14
8.74112e-15
-4.6065e-15
-1.08831e-14
-8.09208e-15
2.84685e-15
-3.80289e-15
-8.79034e-15
-1.24668e-15
-1.46231e-15
-1.13754e-15
3.63587e-16
1.62371e-15
4.84247e-15
3.55821e-15
4.56229e-15
4.80518e-15
1.82921e-15
-3.57901e-15
1.14052e-16
-7.96078e-15
-1.6311e-14
-1.72965e-14
-1.56063e-14
-1.43286e-14
-4.57647e-15
-1.18691e-14
-3.43074e-15
-1.42641e-14
-1.28676e-14
-1.56065e-14
-1.97044e-14
-2.09053e-14
-5.77973e-15
-6.63986e-16
-2.17752e-15
-4.79116e-15
1.55014e-17
-3.97659e-15
1.14146e-17
1.62621e-15
1.09447e-14
1.52171e-14
1.19047e-14
1.50074e-14
1.99492e-14
2.18694e-14
3.00786e-14
3.41309e-14
3.7731e-14
3.83831e-14
3.88118e-14
4.02557e-14
4.12528e-14
4.1278e-14
3.51435e-14
3.64428e-14
3.20018e-14
3.02084e-14
3.01628e-14
4.05241e-14
4.25377e-14
4.38348e-14
3.59367e-14
3.17288e-14
3.11571e-14
2.86914e-14
2.42931e-14
1.6746e-14
1.66983e-14
1.75336e-14
1.92624e-14
1.92924e-14
1.88544e-14
1.7088e-14
1.60119e-14
1.89543e-14
1.1154e-14
-1.66545e-16
-5.67792e-15
1.33403e-15
-6.85613e-16
-1.39611e-15
-1.65488e-15
1.01473e-14
1.47015e-14
1.20853e-14
1.31881e-14
1.92108e-14
2.4498e-14
2.52916e-14
2.81928e-14
1.635e-14
2.05147e-14
1.96747e-14
1.80946e-14
1.41452e-14
1.94691e-14
1.73149e-14
8.30357e-15
1.29429e-14
9.39443e-15
-2.23723e-15
-9.17502e-15
-5.45845e-15
-5.62268e-15
1.42565e-15
4.8678e-16
-2.36925e-15
-9.89835e-16
-4.66532e-16
1.19059e-15
5.98593e-15
9.16794e-15
1.0252e-14
6.36553e-15
4.37814e-15
1.51986e-15
-3.97614e-15
-2.06078e-15
-5.2471e-15
-1.75527e-14
-1.69811e-14
-6.52396e-15
1.257e-15
-8.69431e-15
-2.03507e-14
-1.49366e-14
-1.75503e-14
-1.20942e-14
-8.95552e-15
-1.07696e-14
-1.33644e-14
-9.83615e-15
-7.13374e-15
-5.69101e-15
2.0035e-16
1.98005e-16
-2.23073e-15
1.79415e-17
1.05046e-14
1.22945e-14
1.65577e-14
1.50953e-14
1.32527e-14
1.92613e-14
2.2192e-14
2.97992e-14
3.85386e-14
3.68009e-14
3.60024e-14
3.74956e-14
3.86076e-14
3.87188e-14
3.96211e-14
3.5294e-14
3.88937e-14
3.71124e-14
3.45308e-14
3.06796e-14
3.74037e-14
4.51772e-14
4.78338e-14
4.10266e-14
3.16162e-14
3.29613e-14
2.79996e-14
2.5079e-14
1.90592e-14
1.4441e-14
1.82779e-14
1.65774e-14
1.90756e-14
1.42308e-14
1.51071e-14
1.53293e-14
1.37872e-14
3.99241e-15
2.65886e-15
1.01332e-15
-4.7404e-16
-3.54738e-15
-3.69689e-15
-6.08986e-15
1.23049e-14
1.22119e-14
1.48385e-14
1.52696e-14
1.93378e-14
2.04788e-14
2.15521e-14
2.75424e-14
2.10084e-14
1.61098e-14
1.36049e-14
1.63252e-14
1.20059e-14
2.30143e-14
2.59869e-14
1.23601e-14
5.06206e-15
7.34393e-15
5.92116e-15
-8.37473e-15
-5.8939e-15
-7.44926e-15
-3.2493e-15
-4.22672e-15
-9.9956e-16
3.39981e-15
9.94695e-15
6.26831e-15
1.08392e-14
6.37309e-15
1.07983e-14
1.00644e-14
7.27986e-15
7.24917e-16
-7.82701e-15
-2.11433e-15
-2.29712e-15
-1.45091e-14
-1.28074e-14
-8.57537e-15
-3.84752e-15
-1.14142e-14
-1.81919e-14
-1.32717e-14
-1.51948e-14
-4.25644e-15
-5.61334e-15
-1.0277e-14
-1.19527e-14
-1.32515e-14
-1.10724e-14
-3.65644e-15
1.51131e-15
3.83501e-15
-5.75757e-15
3.19615e-15
8.0001e-15
1.25619e-14
1.66498e-14
1.80445e-14
2.17795e-14
2.72655e-14
2.77124e-14
2.91278e-14
3.5943e-14
3.21142e-14
2.51389e-14
3.57172e-14
4.15217e-14
4.57422e-14
4.10779e-14
3.64231e-14
3.87159e-14
4.02719e-14
3.01219e-14
3.06246e-14
3.83166e-14
4.61841e-14
4.51224e-14
3.78451e-14
3.66774e-14
3.52129e-14
3.29934e-14
2.28968e-14
1.77443e-14
1.49691e-14
1.66779e-14
1.68879e-14
1.50014e-14
1.2074e-14
1.35916e-14
9.31937e-15
9.02758e-15
1.07946e-15
-1.54929e-15
-4.18493e-17
-3.92884e-15
-1.05715e-15
-3.7436e-15
-6.80195e-15
1.06415e-14
1.11936e-14
1.29368e-14
1.61275e-14
2.18917e-14
1.94287e-14
2.30459e-14
1.9125e-14
2.15102e-14
2.64755e-14
1.07939e-14
7.98704e-15
8.70834e-15
1.6504e-14
2.1115e-14
1.67676e-14
1.07898e-14
1.00424e-14
6.22505e-15
5.80435e-15
2.91387e-15
-8.02968e-15
-1.05155e-14
-2.6557e-15
-3.4872e-15
8.0291e-16
9.44641e-15
1.14516e-14
1.12716e-14
8.98707e-15
9.19931e-15
7.21319e-15
7.63262e-15
4.70468e-15
-1.89573e-15
-2.46491e-15
-6.0789e-15
-8.63446e-15
-6.50803e-15
-9.83129e-15
-8.35662e-15
-1.19306e-14
-1.68021e-14
-9.64384e-15
-1.04781e-14
-3.1097e-15
-7.98979e-15
-1.57423e-14
-1.90502e-14
-6.68145e-15
-4.59346e-15
-3.16445e-15
9.3851e-16
2.45855e-16
-6.99321e-15
4.09159e-15
1.71489e-14
2.1817e-14
1.68212e-14
1.45018e-14
2.24158e-14
2.03679e-14
2.22082e-14
3.40939e-14
3.78779e-14
3.44973e-14
2.78663e-14
3.42053e-14
4.05435e-14
4.59306e-14
4.25217e-14
3.98922e-14
3.92513e-14
4.11544e-14
2.82246e-14
2.78462e-14
3.8033e-14
4.78466e-14
4.53969e-14
4.15052e-14
4.43666e-14
3.76507e-14
2.67941e-14
2.05271e-14
1.70532e-14
1.17433e-14
1.92523e-14
1.468e-14
1.2273e-14
8.92185e-15
1.29576e-14
1.28501e-14
4.50477e-15
1.30014e-15
1.25252e-15
8.12263e-15
-3.96396e-15
-1.5861e-14
-7.48836e-15
-1.05326e-15
1.25496e-14
1.31678e-14
1.74037e-14
1.74106e-14
1.97067e-14
2.16019e-14
2.27667e-14
1.81286e-14
1.80918e-14
1.72372e-14
1.24164e-14
9.09521e-15
3.4652e-15
1.28175e-14
1.65486e-14
1.24913e-14
1.4548e-14
2.18701e-14
9.09367e-15
6.38972e-15
4.84979e-15
-3.81855e-15
-9.52639e-16
-1.93122e-16
-1.76626e-15
-4.04781e-16
1.22213e-14
8.62482e-15
1.17645e-14
1.04954e-14
1.39638e-14
9.43389e-15
3.72922e-16
-4.84525e-15
-4.15435e-15
-3.33231e-15
-3.9113e-15
2.08665e-15
-1.85799e-15
-7.26798e-15
-8.8726e-15
-1.69787e-14
-1.47797e-14
-1.2131e-14
-7.62774e-15
-4.79862e-15
-5.51371e-15
-6.51405e-15
-1.15107e-14
-8.72109e-15
-9.1716e-15
7.06152e-16
2.17139e-15
-9.516e-16
1.76479e-15
7.5553e-15
1.74988e-14
1.63426e-14
1.55353e-14
2.26633e-14
2.56672e-14
2.78613e-14
2.86965e-14
3.17559e-14
3.06071e-14
3.34168e-14
3.58326e-14
3.52535e-14
3.60791e-14
3.87064e-14
4.08289e-14
4.74585e-14
4.91889e-14
4.0071e-14
2.54883e-14
2.33291e-14
2.90008e-14
4.05002e-14
4.42385e-14
4.49967e-14
3.94139e-14
3.64053e-14
3.20077e-14
2.30166e-14
2.4644e-14
1.70785e-14
9.02194e-15
1.34185e-14
1.16842e-14
6.8329e-15
1.05079e-14
4.87462e-15
5.01777e-15
1.10637e-15
9.62557e-16
3.61089e-15
-2.6009e-15
-1.05144e-14
-8.52008e-15
3.18294e-15
1.02502e-14
1.24104e-14
1.24179e-14
1.89602e-14
2.1359e-14
2.32979e-14
2.29307e-14
1.89856e-14
1.68419e-14
9.90298e-15
-4.85193e-16
8.61686e-15
1.61813e-14
1.58073e-14
1.9139e-14
1.52745e-14
1.54957e-14
2.21874e-14
1.63616e-14
8.30332e-15
-2.16461e-15
-7.19397e-15
-1.30708e-14
-2.40794e-15
9.92644e-16
3.08283e-15
1.20212e-14
8.34163e-15
1.11426e-14
1.58785e-14
1.35682e-14
5.1101e-15
2.80289e-15
-5.98649e-16
-7.73219e-16
-2.63516e-15
-6.84804e-15
-9.8367e-16
-1.98085e-15
-4.32454e-15
-1.43756e-14
-1.29546e-14
-1.48658e-14
-9.13049e-15
-6.84352e-15
-1.06321e-14
-6.82483e-15
-5.82373e-15
-5.0348e-15
-2.94891e-15
-7.1881e-15
1.33221e-16
-5.29874e-15
-2.73747e-15
1.12737e-14
2.28593e-14
2.22616e-14
1.13226e-14
1.42995e-14
2.05303e-14
2.58366e-14
2.63168e-14
2.82697e-14
3.4585e-14
3.621e-14
3.93925e-14
3.32257e-14
3.73839e-14
4.08725e-14
3.7115e-14
3.91154e-14
4.29942e-14
5.21279e-14
4.27705e-14
3.09278e-14
1.97252e-14
3.11894e-14
4.58076e-14
4.10736e-14
3.70171e-14
3.39561e-14
3.74187e-14
3.64696e-14
2.04966e-14
2.43195e-14
2.07896e-14
1.55445e-14
1.11907e-14
9.62619e-15
1.02061e-14
1.16001e-14
-2.34463e-15
-1.51831e-15
1.93442e-15
5.27411e-15
6.31613e-15
-5.85708e-15
-9.07041e-15
-6.91774e-15
-2.12822e-15
1.06485e-14
1.90568e-14
1.69569e-14
1.55806e-14
1.79682e-14
2.19521e-14
2.26346e-14
1.91715e-14
1.69011e-14
5.16383e-15
3.69744e-15
1.00067e-14
1.17136e-14
1.81464e-14
1.91854e-14
1.33403e-14
1.01615e-14
1.25302e-14
1.29619e-14
7.83585e-15
2.24722e-14
1.41639e-14
-3.52055e-15
-4.94168e-15
-9.77102e-15
-5.41998e-15
6.35375e-15
6.50326e-15
1.07439e-14
1.55013e-14
1.3287e-14
8.71837e-15
1.13411e-15
-3.39888e-15
-5.76434e-15
-2.7211e-15
2.61005e-15
-5.81771e-15
-6.61028e-15
-2.24328e-15
-7.65136e-15
-1.39451e-14
-1.58108e-14
-1.84909e-14
-1.01376e-14
-7.61537e-15
-6.53409e-15
-8.70808e-15
2.75095e-15
1.33514e-15
-4.2658e-15
-4.00565e-15
6.27243e-16
1.2334e-15
1.00693e-14
1.6523e-14
1.9789e-14
1.90765e-14
2.13601e-14
2.40826e-14
2.39978e-14
2.67697e-14
2.93921e-14
3.45699e-14
3.70744e-14
3.89405e-14
4.04702e-14
4.25317e-14
4.1089e-14
3.9584e-14
4.30612e-14
4.06951e-14
4.07863e-14
4.00711e-14
3.5085e-14
2.55095e-14
3.15276e-14
3.45878e-14
3.97854e-14
4.24642e-14
3.8595e-14
3.65328e-14
3.5916e-14
2.34495e-14
2.60744e-14
2.063e-14
1.70091e-14
1.221e-14
7.12899e-15
5.82976e-15
5.25215e-15
6.25397e-16
2.49021e-15
-5.15523e-16
1.86702e-15
-3.28676e-15
-6.15344e-15
-7.66856e-15
-4.81257e-15
-3.26955e-15
6.47798e-15
1.22463e-14
1.82828e-14
2.01298e-14
2.36986e-14
2.55239e-14
1.42758e-14
8.33411e-15
1.20251e-14
1.52346e-14
9.47609e-15
1.29905e-14
1.73816e-14
1.99702e-14
1.89051e-14
1.33861e-14
1.91846e-14
1.68831e-14
1.8191e-14
6.60416e-15
1.47603e-15
-1.02186e-14
-7.31641e-15
-6.08035e-15
-2.7889e-15
6.85855e-15
9.25739e-15
1.01138e-14
8.2312e-15
7.80854e-15
7.59179e-15
9.24478e-15
9.90968e-15
-6.79993e-15
-1.96247e-14
-4.01138e-15
7.90811e-15
-3.30095e-15
-2.181e-15
-7.04159e-15
-1.81175e-14
-1.51954e-14
-1.90943e-14
-1.40066e-14
-9.83664e-15
-8.03066e-15
-4.0504e-15
-2.24512e-15
3.55743e-16
1.4974e-15
2.15822e-15
-2.65058e-15
-1.20379e-15
6.2967e-16
4.7633e-15
9.72512e-15
2.02851e-14
2.21977e-14
2.4475e-14
1.90864e-14
2.99398e-14
3.14835e-14
3.56746e-14
3.3728e-14
3.53544e-14
3.25886e-14
4.21731e-14
4.46936e-14
4.18679e-14
4.27506e-14
4.00089e-14
3.99235e-14
4.23835e-14
3.70582e-14
3.17972e-14
1.92075e-14
2.89719e-14
3.35898e-14
3.89014e-14
4.56232e-14
4.85861e-14
4.35716e-14
3.20732e-14
2.52158e-14
2.10647e-14
1.69488e-14
1.6416e-14
1.01239e-14
9.72046e-15
8.13609e-15
4.71407e-15
-2.35013e-15
2.4189e-15
-4.86893e-16
-3.58424e-15
-6.1275e-15
-9.66295e-15
-1.00483e-14
-7.51989e-15
-3.23879e-15
6.91604e-15
1.74818e-14
1.57559e-14
1.3546e-14
2.37419e-14
3.18575e-14
2.27118e-14
1.5747e-14
3.13919e-15
4.90489e-15
6.21257e-15
1.58956e-14
1.87707e-14
1.98796e-14
2.07347e-14
1.48194e-14
1.72927e-14
1.98363e-14
1.72188e-14
4.57344e-15
7.56226e-15
3.42292e-16
-9.90827e-15
-1.51807e-14
-3.01932e-15
6.4653e-15
7.02756e-15
8.5697e-15
8.97236e-15
6.74547e-15
7.87841e-15
9.28616e-15
4.38184e-15
-8.66889e-15
-1.42781e-14
-6.88626e-15
-2.93556e-15
2.51003e-15
-5.07539e-15
-9.84874e-15
-1.69897e-14
-1.99081e-14
-1.41511e-14
-1.34973e-14
-5.48102e-15
-9.49085e-15
-2.51712e-15
-2.42226e-15
2.19394e-15
-2.48687e-15
5.87689e-15
5.60916e-15
1.34247e-15
-9.19013e-16
1.26341e-14
1.46187e-14
1.28174e-14
2.4342e-14
3.03579e-14
2.73311e-14
2.71624e-14
3.43786e-14
3.15492e-14
3.64117e-14
3.7482e-14
3.58404e-14
3.95393e-14
4.23216e-14
4.03793e-14
4.52673e-14
3.69865e-14
4.41822e-14
4.29868e-14
3.59995e-14
2.96317e-14
2.21386e-14
3.01965e-14
3.36258e-14
3.67817e-14
4.32284e-14
4.69638e-14
4.20686e-14
3.4526e-14
3.25057e-14
1.95577e-14
1.69838e-14
1.61875e-14
1.27647e-14
6.32662e-15
5.936e-15
1.73713e-15
-3.57347e-15
-2.71909e-15
-3.4477e-15
5.46173e-16
-7.32747e-15
-9.85607e-15
-1.17814e-14
-1.09374e-14
-4.38457e-15
1.32274e-14
1.32408e-14
1.34447e-14
1.25155e-14
1.71832e-14
1.88078e-14
1.52777e-14
2.50658e-14
1.87121e-14
1.74924e-14
1.02473e-14
1.70538e-14
1.58963e-14
2.2562e-14
1.99074e-14
1.29398e-14
1.58815e-14
2.33011e-14
1.73583e-14
6.95043e-15
-4.34224e-15
-1.35505e-14
-2.63519e-15
-2.03112e-15
-3.92995e-15
4.87048e-15
6.43267e-15
8.11271e-16
3.38578e-15
1.53939e-15
1.18558e-14
7.57059e-15
-4.2836e-15
-1.12129e-14
-9.43266e-15
-4.58791e-15
7.73885e-16
1.72356e-15
-3.82512e-15
-8.44518e-15
-2.2758e-14
-2.23013e-14
-1.75307e-14
-1.00739e-14
-4.55242e-15
-7.93206e-15
-4.67509e-15
-4.13173e-15
4.43761e-15
3.74648e-15
6.50822e-15
3.86575e-15
7.12951e-15
4.50905e-15
1.12264e-14
9.17296e-15
1.35149e-14
2.53505e-14
3.10999e-14
2.96771e-14
2.7735e-14
3.54761e-14
3.83045e-14
3.59228e-14
4.56379e-14
4.17556e-14
4.56189e-14
3.87378e-14
3.91846e-14
4.00028e-14
3.96562e-14
4.365e-14
3.80271e-14
3.47654e-14
3.23778e-14
2.55018e-14
1.9513e-14
2.96649e-14
3.42718e-14
5.08252e-14
4.88527e-14
4.53228e-14
3.03388e-14
2.21331e-14
1.68352e-14
2.05013e-14
1.65375e-14
1.34015e-14
6.78758e-15
4.60668e-15
1.70137e-15
-8.10634e-15
-3.83247e-15
-1.8355e-15
-3.42855e-15
-8.42246e-15
-1.31854e-14
-1.55751e-14
-7.48125e-15
-2.84252e-15
1.17884e-14
1.37353e-14
1.2868e-14
1.33133e-14
2.67266e-14
2.66299e-14
1.38206e-14
1.37225e-14
1.23802e-14
1.52535e-14
1.52209e-14
2.32906e-14
1.93908e-14
1.78168e-14
1.12257e-14
1.24436e-14
2.55069e-14
2.16375e-14
1.95475e-14
6.06917e-15
1.69102e-15
-9.5833e-15
-9.24062e-15
-3.96984e-15
-5.49367e-16
9.7965e-16
1.81397e-15
9.2897e-16
4.88725e-15
4.37525e-16
9.96028e-15
6.17333e-15
5.67548e-16
-1.17674e-14
-1.6062e-14
-9.25744e-15
-3.95632e-15
9.38846e-16
-7.72634e-15
-8.36062e-15
-1.7293e-14
-2.24854e-14
-2.22898e-14
-1.55259e-14
-4.71803e-15
-2.90551e-15
1.42327e-15
2.01336e-16
6.17807e-15
6.08276e-15
4.30054e-15
4.60595e-15
6.64689e-15
6.52029e-15
1.32118e-14
1.2845e-14
1.58296e-14
2.44079e-14
2.6642e-14
2.91655e-14
3.0879e-14
3.99858e-14
4.07798e-14
4.41018e-14
4.50931e-14
4.03247e-14
4.82428e-14
4.00494e-14
3.56772e-14
3.4251e-14
3.57636e-14
4.08845e-14
4.28328e-14
3.25753e-14
2.62558e-14
3.18753e-14
2.33355e-14
3.22184e-14
3.57653e-14
4.45309e-14
4.40365e-14
3.71576e-14
3.55712e-14
2.66786e-14
1.49777e-14
1.25022e-14
8.75774e-15
1.1835e-14
1.10641e-14
1.58922e-15
-2.6157e-15
-6.77214e-15
-6.82088e-15
-3.58415e-16
-8.69898e-15
-1.32688e-14
-1.24029e-14
-1.34386e-14
-1.13452e-14
-5.72355e-15
5.42007e-15
1.51706e-14
1.57894e-14
1.23215e-14
2.16432e-14
1.6601e-14
1.44414e-14
1.96531e-14
2.51826e-14
2.02156e-14
1.29509e-14
1.95208e-14
2.04272e-14
2.15846e-14
1.13428e-14
1.26291e-14
2.40484e-14
2.24442e-14
1.56084e-14
5.71317e-15
-5.92869e-15
-7.49558e-15
-4.51554e-16
-4.64171e-16
-6.22738e-15
-3.45367e-15
2.55215e-15
1.28885e-15
5.15321e-15
-3.73275e-15
2.25117e-15
2.51655e-15
-3.70944e-15
-1.32193e-14
-1.54802e-14
-2.04124e-15
3.25014e-15
7.78211e-16
-1.24533e-14
-1.99659e-14
-2.05399e-14
-1.87364e-14
-1.80941e-14
-1.11642e-14
-5.88077e-15
-6.16283e-15
1.39548e-15
7.54021e-15
8.35218e-15
9.59264e-16
5.46998e-15
7.66418e-15
1.07405e-14
1.25297e-14
1.56678e-14
1.48476e-14
1.73272e-14
2.2716e-14
2.16435e-14
3.04905e-14
4.18695e-14
4.14689e-14
4.07425e-14
3.71401e-14
4.28245e-14
4.68061e-14
4.78242e-14
4.42895e-14
3.30814e-14
3.39774e-14
3.77055e-14
4.05009e-14
4.20936e-14
3.31108e-14
2.99642e-14
2.72536e-14
2.32909e-14
2.76037e-14
3.17065e-14
2.92207e-14
4.26879e-14
4.16446e-14
3.49193e-14
2.32132e-14
1.49894e-14
1.46628e-14
1.57559e-14
1.20911e-14
5.59322e-15
1.74869e-15
-5.46588e-15
-7.6236e-15
-7.74978e-15
-6.90255e-15
-7.31293e-15
-1.25045e-14
-1.85586e-14
-1.67339e-14
-1.19672e-14
-4.00111e-15
9.23948e-15
1.41163e-14
1.91984e-14
1.29302e-14
1.31709e-14
1.60692e-14
2.25336e-14
2.38673e-14
2.53325e-14
1.64473e-14
1.09109e-14
1.98595e-14
2.1104e-14
2.22805e-14
1.41039e-14
1.5399e-14
1.69902e-14
1.34955e-14
1.65815e-14
1.10339e-14
2.52039e-15
-5.44853e-15
-2.31561e-15
5.29402e-16
1.33754e-15
-3.03855e-15
-3.10679e-15
-7.32018e-16
5.23142e-15
-3.99663e-15
-4.83527e-15
-4.52468e-15
-2.26354e-15
-1.23859e-14
-5.42964e-15
-5.8769e-15
1.52396e-15
-4.52331e-15
-1.68111e-14
-1.99492e-14
-2.8477e-14
-1.79847e-14
-8.28202e-15
-5.33654e-15
-8.19297e-15
-5.4611e-15
5.27694e-15
6.82856e-15
1.13138e-14
9.23446e-15
6.7373e-15
1.11397e-14
1.29595e-14
1.70405e-14
7.7563e-15
1.28306e-14
2.11039e-14
2.61057e-14
2.4448e-14
2.71497e-14
3.98629e-14
4.12669e-14
4.55488e-14
4.30607e-14
3.87815e-14
4.66823e-14
4.83197e-14
4.56191e-14
3.88808e-14
3.45473e-14
4.03015e-14
3.90405e-14
3.48008e-14
2.81798e-14
2.71381e-14
3.01231e-14
2.38511e-14
2.99124e-14
3.12245e-14
3.01385e-14
3.93153e-14
3.66616e-14
3.47289e-14
3.13226e-14
2.28252e-14
1.22004e-14
9.47528e-15
8.99048e-15
4.85124e-15
-1.47848e-15
-8.47959e-15
-9.9239e-15
-3.49363e-15
-8.32643e-15
-8.63358e-15
-1.7041e-14
-1.56792e-14
-1.81932e-14
-9.36074e-15
-2.27774e-15
1.42804e-14
1.38622e-14
1.05211e-14
1.50318e-14
1.3965e-14
1.84311e-14
2.28487e-14
3.02186e-14
2.49793e-14
1.63078e-14
1.58841e-14
2.11999e-14
2.56621e-14
1.57775e-14
1.55333e-14
1.91795e-14
2.11478e-14
1.84516e-14
1.29239e-14
6.74994e-15
4.57099e-16
-6.41369e-15
-5.47335e-15
-4.44269e-15
-1.9724e-15
4.71813e-15
-5.33344e-15
-4.56473e-15
5.35144e-15
-3.38526e-15
-1.3718e-15
-1.55937e-15
-3.81554e-15
-1.27281e-14
-1.35171e-14
-1.14528e-14
-7.99486e-15
-5.2222e-15
-8.41341e-15
-1.45734e-14
-2.06275e-14
-1.88501e-14
-1.66935e-14
-5.10547e-15
-6.84646e-15
-2.97144e-15
2.18823e-15
9.53575e-15
1.64286e-14
1.18316e-14
7.49355e-15
6.84246e-15
1.5485e-14
1.57274e-14
1.11024e-14
1.81436e-14
2.57174e-14
2.68826e-14
3.06929e-14
3.60757e-14
4.06569e-14
4.07019e-14
3.2518e-14
3.92314e-14
3.96834e-14
4.84359e-14
4.97431e-14
4.34909e-14
3.67923e-14
3.8841e-14
3.63172e-14
3.39921e-14
3.19035e-14
2.81264e-14
2.29844e-14
2.95479e-14
2.65447e-14
3.27795e-14
3.28233e-14
2.96499e-14
3.66222e-14
3.17423e-14
3.01143e-14
2.76142e-14
2.6541e-14
1.38542e-14
5.9332e-15
7.01708e-15
5.03153e-15
3.42105e-15
3.97511e-16
-9.9444e-15
-8.97432e-15
-1.15712e-14
-1.57546e-14
-1.8199e-14
-1.38922e-14
-5.48671e-15
-1.03417e-14
-3.03898e-15
1.18056e-14
1.10638e-14
1.39171e-14
1.91767e-14
1.6457e-14
1.66874e-14
2.4355e-14
3.12785e-14
2.76189e-14
2.25886e-14
1.99047e-14
2.00104e-14
2.27119e-14
1.90914e-14
1.60377e-14
1.19906e-14
1.6141e-14
1.48285e-14
1.45446e-14
1.012e-14
2.71427e-15
-3.53202e-15
-1.87547e-15
-4.78674e-15
-9.82351e-17
3.27704e-15
-3.42628e-15
-1.34391e-15
-3.4603e-15
-9.73716e-15
-3.68545e-15
1.87375e-15
-2.0364e-15
-9.5814e-15
-1.67425e-14
-1.35467e-14
-1.10895e-14
-8.12207e-15
-1.57818e-14
-1.72027e-14
-1.91526e-14
-1.82029e-14
-1.3647e-14
-7.18088e-15
-3.04432e-15
-3.44446e-15
3.70833e-15
8.44553e-15
1.09866e-14
1.04194e-14
1.72762e-14
1.68857e-14
1.71177e-14
1.57953e-14
1.4139e-14
1.91971e-14
1.7393e-14
2.86224e-14
3.52369e-14
4.07383e-14
4.33067e-14
3.87129e-14
3.80156e-14
3.94006e-14
4.40723e-14
4.89765e-14
4.96998e-14
4.77851e-14
3.88985e-14
3.49888e-14
3.45163e-14
2.85079e-14
2.92331e-14
2.75767e-14
2.32596e-14
2.5495e-14
3.21907e-14
3.12077e-14
2.79416e-14
3.24333e-14
3.84923e-14
3.63163e-14
3.18457e-14
2.52466e-14
2.51634e-14
1.36115e-14
7.48943e-15
7.45344e-15
2.86408e-15
-4.94087e-16
-8.36671e-15
-8.91879e-15
-8.67277e-15
-1.05769e-14
-1.3158e-14
-1.43981e-14
-1.35678e-14
-1.25427e-14
-1.37089e-14
-3.11927e-15
9.73384e-15
1.47055e-14
1.84044e-14
1.72e-14
1.62179e-14
2.11803e-14
2.20554e-14
2.48188e-14
3.08945e-14
2.29061e-14
2.3441e-14
2.86644e-14
2.73185e-14
1.53779e-14
1.51693e-14
1.3261e-14
2.1962e-14
1.98119e-14
1.62307e-14
9.17511e-15
-5.96442e-15
-1.69897e-14
-5.00011e-15
9.09146e-16
6.67434e-15
4.59909e-16
-6.94926e-15
-6.02677e-15
-2.29321e-15
1.28222e-15
1.01613e-15
-1.16682e-14
-8.73851e-15
-1.02534e-14
-2.03117e-14
-1.41529e-14
-7.7252e-15
-8.30391e-15
-1.41838e-14
-1.11612e-14
-1.89596e-14
-2.26038e-14
-1.76723e-14
-6.05628e-15
1.12136e-15
-5.48893e-16
3.90761e-15
5.01791e-15
1.35911e-14
1.17629e-14
1.83048e-14
1.76293e-14
2.03778e-14
1.72904e-14
1.95465e-14
1.18571e-14
1.98448e-14
3.07865e-14
4.37175e-14
4.23985e-14
3.7989e-14
3.4989e-14
4.10271e-14
4.05113e-14
4.53748e-14
4.14724e-14
4.61474e-14
4.54114e-14
4.23361e-14
3.38429e-14
2.65472e-14
3.38146e-14
2.85453e-14
2.32082e-14
2.82442e-14
2.70036e-14
2.77277e-14
2.92508e-14
3.55867e-14
3.62393e-14
3.34089e-14
3.38823e-14
3.1287e-14
2.1486e-14
1.61415e-14
1.52014e-14
8.93277e-15
5.27732e-15
1.4141e-15
-2.14976e-15
-3.92616e-16
-7.35144e-15
-4.39546e-15
-7.37418e-15
-1.9766e-14
-2.39528e-14
-1.20276e-14
-4.44712e-15
-1.11926e-14
-4.68922e-15
1.65751e-14
9.11034e-15
1.16425e-14
4.78653e-15
1.67645e-14
3.08965e-14
3.45282e-14
3.46757e-14
2.86808e-14
1.96125e-14
1.58798e-14
2.67944e-14
2.85561e-14
1.15909e-14
1.49037e-14
1.40109e-14
2.09961e-14
1.88776e-14
1.7226e-14
1.09639e-14
-4.57817e-15
-1.24665e-14
-1.64274e-15
-5.94442e-15
-3.39491e-15
-1.05703e-15
-7.58553e-16
-2.24061e-15
-1.37151e-15
-2.44609e-15
-1.17653e-14
-5.02834e-15
-4.91753e-15
-1.07335e-14
-2.48063e-14
-1.29819e-14
-6.82439e-15
-1.03445e-14
-1.62552e-14
-1.54769e-14
-1.25145e-14
-1.31894e-14
-8.78893e-15
-8.94638e-15
-5.25855e-15
-5.78078e-15
4.15256e-15
5.17343e-15
1.76751e-14
1.45173e-14
1.24884e-14
1.45662e-14
1.15004e-14
1.45603e-14
1.46052e-14
2.36084e-14
3.03035e-14
3.21183e-14
4.04852e-14
3.6692e-14
3.89179e-14
3.94401e-14
3.76652e-14
4.4696e-14
4.84131e-14
4.57211e-14
4.37458e-14
4.30226e-14
4.10119e-14
3.7308e-14
2.9727e-14
2.26843e-14
2.15976e-14
1.86614e-14
2.94385e-14
2.50114e-14
3.30243e-14
2.92054e-14
3.03543e-14
3.19584e-14
3.42221e-14
3.51828e-14
2.94963e-14
2.41921e-14
2.02121e-14
1.51705e-14
9.15909e-15
6.14175e-15
-1.78627e-15
-2.41081e-15
-9.84328e-16