/*--------------------------------*- C++ -*----------------------------------*\
| =========                 |                                                 |
| \\      /  F ield         | OpenFOAM: The Open Source CFD Toolbox           |
|  \\    /   O peration     | Version:  v2012                                 |
|   \\  /    A nd           | Website:  www.openfoam.com                      |
|    \\/     M anipulation  |                                                 |
\*---------------------------------------------------------------------------*/
FoamFile
{
    version     2.0;
    format      ascii;
    class       volVectorField;
    location    "0";
    object      uRec;
}
// * * * * * * * * * * * * * * * * * * * * * * * * * * * * * * * * * * * * * //

dimensions      [0 1 -1 0 0 0 0];


internalField   nonuniform List<vector> 
4000
(
(1 3.05461e-16 0)
(1 6.69854e-15 0)
(1 -4.79709e-15 0)
(1 -2.93241e-15 0)
(1 3.87144e-15 0)
(1 -1.5101e-15 0)
(1 7.5521e-15 0)
(1 -5.45433e-15 0)
(1 4.21855e-15 0)
(1 5.00327e-15 0)
(1 -9.18278e-15 0)
(1 -4.31624e-17 0)
(1 3.01731e-15 0)
(1 9.15313e-16 0)
(1 -1.47845e-15 0)
(1 -4.62112e-17 0)
(1 -5.09365e-15 0)
(1 -6.24875e-15 0)
(1 1.93686e-15 0)
(1 4.45205e-16 0)
(1 9.55745e-16 0)
(1 4.54292e-15 0)
(1 -6.26153e-17 0)
(1 5.0215e-15 0)
(1 -8.21267e-17 0)
(1 -3.3475e-15 0)
(1 3.34542e-15 0)
(1 -4.71917e-15 0)
(1 -8.6804e-16 0)
(1 8.22141e-16 0)
(1 2.79707e-15 0)
(1 6.38692e-15 0)
(1 -2.87941e-15 0)
(1 -1.29225e-15 0)
(1 1.65219e-15 0)
(1 -3.22053e-15 0)
(1 -2.34603e-15 0)
(1 1.75213e-15 0)
(1 6.55233e-15 0)
(1 -1.66181e-15 0)
(1 2.69601e-15 0)
(1 -5.98641e-15 0)
(1 -3.09701e-15 0)
(1 4.00078e-18 0)
(1 4.68204e-15 0)
(1 -4.34852e-15 0)
(1 3.4362e-15 0)
(1 -2.63103e-16 0)
(1 -2.1723e-15 0)
(1 -5.66526e-16 0)
(1 -3.66925e-15 0)
(1 2.20899e-15 0)
(1 -1.32619e-15 0)
(1 5.67926e-15 0)
(1 3.02046e-15 0)
(1 -2.99126e-16 0)
(1 -5.67099e-16 0)
(1 -2.22234e-15 0)
(1 2.98958e-15 0)
(1 7.32243e-15 0)
(1 -3.62485e-16 0)
(1 -4.90362e-15 0)
(1 -2.83569e-15 0)
(1 7.47557e-16 0)
(1 5.89133e-16 0)
(1 7.24647e-16 0)
(1 1.1623e-15 0)
(1 -1.01876e-15 0)
(1 2.54497e-15 0)
(1 -1.9966e-15 0)
(1 -2.36043e-15 0)
(1 2.97163e-16 0)
(1 -3.32349e-16 0)
(1 -2.4214e-16 0)
(1 -2.67208e-15 0)
(1 -5.79793e-15 0)
(1 -1.64065e-15 0)
(1 -2.33226e-15 0)
(1 1.5259e-15 0)
(1 2.0775e-15 0)
(1 1.20618e-15 0)
(1 4.39012e-15 0)
(1 -3.02048e-15 0)
(1 6.71705e-16 0)
(1 -2.23516e-15 0)
(1 -2.66274e-15 0)
(1 -8.94842e-16 0)
(1 6.97115e-16 0)
(1 2.9248e-15 0)
(1 1.53308e-15 0)
(1 1.52613e-16 0)
(1 -2.57862e-15 0)
(1 1.31702e-15 0)
(1 3.74792e-15 0)
(1 -2.72256e-15 0)
(1 -5.59081e-15 0)
(1 9.84725e-17 0)
(1 3.87884e-15 0)
(1 -8.78807e-16 0)
(1 -7.13275e-16 0)
(1 3.7116e-16 0)
(1 1.22811e-14 0)
(1 -5.50464e-15 0)
(1 -6.06391e-15 0)
(1 -4.72802e-16 0)
(1 1.62733e-15 0)
(1 7.44871e-15 0)
(1 -6.99083e-15 0)
(1 4.28301e-15 0)
(1 2.1608e-15 0)
(1 -4.21509e-15 0)
(1 4.65425e-16 0)
(1 1.87262e-15 0)
(1 -1.91183e-15 0)
(1 -3.42728e-15 0)
(1 4.21597e-15 0)
(1 -2.81908e-15 0)
(1 -5.31911e-15 0)
(1 2.55108e-15 0)
(1 -9.21e-16 0)
(1 -1.03255e-15 0)
(1 -6.10645e-16 0)
(1 -2.90737e-15 0)
(1 5.46742e-16 0)
(1 -1.17816e-15 0)
(1 -6.91996e-16 0)
(1 9.34905e-15 0)
(1 -5.82546e-15 0)
(1 -3.50311e-15 0)
(1 4.07172e-15 0)
(1 -1.44157e-15 0)
(1 8.70306e-15 0)
(1 -5.98548e-15 0)
(1 -3.10352e-15 0)
(1 2.24266e-15 0)
(1 -3.71276e-15 0)
(1 6.99021e-16 0)
(1 9.13444e-15 0)
(1 4.57761e-15 0)
(1 -4.06488e-15 0)
(1 -4.92688e-15 0)
(1 -8.2195e-15 0)
(1 -9.6758e-15 0)
(1 -3.65711e-15 0)
(1 -2.60609e-16 0)
(1 -5.03614e-15 0)
(1 6.866e-15 0)
(1 6.42615e-15 0)
(1 5.24618e-15 0)
(1 2.65379e-15 0)
(1 -1.80765e-15 0)
(1 -9.23336e-16 0)
(1 4.33191e-15 0)
(1 1.27752e-15 0)
(1 7.62544e-16 0)
(1 -3.32781e-15 0)
(1 -9.26524e-16 0)
(1 5.1989e-15 0)
(1 5.32453e-16 0)
(1 -4.38691e-15 0)
(1 -1.41295e-15 0)
(1 6.23341e-16 0)
(1 -1.30737e-15 0)
(1 1.78234e-15 0)
(1 -7.83252e-16 0)
(1 4.91319e-15 0)
(1 -4.68797e-15 0)
(1 -4.57545e-15 0)
(1 2.33727e-15 0)
(1 -2.83471e-15 0)
(1 -4.61621e-15 0)
(1 -4.26898e-16 0)
(1 3.87087e-15 0)
(1 -2.30002e-15 0)
(1 2.00469e-16 0)
(1 -1.97169e-15 0)
(1 4.07069e-16 0)
(1 3.64275e-15 0)
(1 -3.39269e-16 0)
(1 3.14647e-15 0)
(1 -1.05289e-15 0)
(1 3.75483e-15 0)
(1 4.01458e-15 0)
(1 -2.95024e-15 0)
(1 7.39056e-16 0)
(1 -3.45273e-15 0)
(1 -5.7743e-15 0)
(1 -3.56493e-15 0)
(1 7.06677e-16 0)
(1 4.29322e-15 0)
(1 -9.11476e-17 0)
(1 -4.15332e-15 0)
(1 6.58444e-15 0)
(1 3.99004e-15 0)
(1 -8.10811e-15 0)
(1 -6.59518e-15 0)
(1 2.81554e-15 0)
(1 2.77533e-15 0)
(1 -2.88656e-15 0)
(1 -2.40706e-15 0)
(1 6.21337e-16 0)
(1 4.96282e-15 0)
(1 7.46504e-17 0)
(1 -5.08286e-15 0)
(1 -3.22178e-15 0)
(1 1.83491e-15 0)
(1 4.67002e-15 0)
(1 1.19066e-14 0)
(1 -5.61107e-15 0)
(1 -5.89243e-15 0)
(1 -5.80311e-17 0)
(1 7.11484e-15 0)
(1 4.19119e-15 0)
(1 -3.65182e-15 0)
(1 -3.16101e-15 0)
(1 -6.30421e-16 0)
(1 2.12908e-15 0)
(1 1.73993e-15 0)
(1 -2.32489e-16 0)
(1 3.11623e-15 0)
(1 -1.00203e-15 0)
(1 -5.04045e-15 0)
(1 -3.99515e-15 0)
(1 -4.0484e-15 0)
(1 3.71434e-15 0)
(1 6.48254e-15 0)
(1 5.50737e-15 0)
(1 -5.22287e-15 0)
(1 -2.08379e-15 0)
(1 5.03698e-15 0)
(1 3.0797e-15 0)
(1 -3.87336e-15 0)
(1 9.17351e-16 0)
(1 3.56219e-15 0)
(1 -1.90977e-15 0)
(1 -1.57844e-15 0)
(1 -5.68476e-15 0)
(1 5.04863e-15 0)
(1 6.04847e-15 0)
(1 -6.73284e-15 0)
(1 -7.09421e-15 0)
(1 -3.61396e-15 0)
(1 -8.23936e-15 0)
(1 -8.32426e-15 0)
(1 -5.76911e-15 0)
(1 -1.37088e-15 0)
(1 -3.36746e-15 0)
(1 7.8466e-15 0)
(1 1.01414e-14 0)
(1 5.45971e-15 0)
(1 4.86524e-15 0)
(1 7.57875e-16 0)
(1 6.46745e-15 0)
(1 -7.85428e-15 0)
(1 -1.86384e-15 0)
(1 -5.27896e-15 0)
(1 1.50253e-15 0)
(1 5.77457e-15 0)
(1 6.59101e-15 0)
(1 -2.74883e-15 0)
(1 -4.51299e-15 0)
(1 1.31079e-15 0)
(1 3.12916e-15 0)
(1 -6.03896e-15 0)
(1 -2.51198e-15 0)
(1 6.80942e-16 0)
(1 -2.61227e-15 0)
(1 3.29912e-16 0)
(1 4.75322e-15 0)
(1 8.81814e-16 0)
(1 1.52325e-15 0)
(1 1.23474e-15 0)
(1 -1.18122e-15 0)
(1 -8.32417e-15 0)
(1 -3.10524e-15 0)
(1 -7.58977e-16 0)
(1 -1.47669e-15 0)
(1 2.81689e-15 0)
(1 1.92338e-15 0)
(1 -2.50172e-15 0)
(1 -5.86991e-15 0)
(1 -1.93229e-15 0)
(1 5.27761e-15 0)
(1 -3.49119e-15 0)
(1 2.46042e-16 0)
(1 -4.84618e-16 0)
(1 -6.89596e-15 0)
(1 -4.30177e-15 0)
(1 -3.10056e-15 0)
(1 3.94546e-15 0)
(1 8.46168e-16 0)
(1 -7.61287e-16 0)
(1 -5.78452e-16 0)
(1 3.1106e-15 0)
(1 -4.76499e-15 0)
(1 -3.71906e-15 0)
(1 3.52545e-15 0)
(1 -5.22989e-15 0)
(1 -6.94228e-16 0)
(1 -3.54296e-17 0)
(1 2.1531e-16 0)
(1 4.28079e-15 0)
(1 3.66642e-15 0)
(1 -6.49603e-15 0)
(1 -8.25025e-17 0)
(1 -6.34373e-15 0)
(1 2.83658e-15 0)
(1 1.46638e-14 0)
(1 -1.34379e-15 0)
(1 -1.85573e-15 0)
(1 -4.99452e-15 0)
(1 1.20838e-14 0)
(1 -2.01415e-15 0)
(1 -4.91155e-15 0)
(1 8.08458e-15 0)
(1 -7.85232e-15 0)
(1 6.09349e-16 0)
(1 -5.15448e-15 0)
(1 -9.23198e-15 0)
(1 1.04258e-14 0)
(1 -2.2698e-15 0)
(1 2.76806e-15 0)
(1 -7.83218e-16 0)
(1 -5.41331e-16 0)
(1 1.11199e-14 0)
(1 5.60766e-15 0)
(1 3.0004e-15 0)
(1 -4.38037e-15 0)
(1 -2.16687e-15 0)
(1 5.69997e-15 0)
(1 5.39584e-16 0)
(1 -1.774e-15 0)
(1 9.418e-16 0)
(1 6.2486e-15 0)
(1 2.03604e-15 0)
(1 -3.04808e-15 0)
(1 -8.2884e-15 0)
(1 -7.52723e-15 0)
(1 5.23209e-15 0)
(1 1.25492e-15 0)
(1 2.76869e-15 0)
(1 -4.03501e-15 0)
(1 -9.6973e-15 0)
(1 -8.74503e-15 0)
(1 -2.71784e-15 0)
(1 1.0197e-15 0)
(1 -2.68795e-15 0)
(1 3.96808e-15 0)
(1 7.2191e-15 0)
(1 5.32961e-15 0)
(1 8.29827e-15 0)
(1 1.61883e-15 0)
(1 -3.78e-16 0)
(1 -2.50456e-15 0)
(1 2.50182e-17 0)
(1 -3.72403e-15 0)
(1 1.30368e-15 0)
(1 5.66416e-15 0)
(1 4.58662e-15 0)
(1 6.76344e-15 0)
(1 1.29349e-15 0)
(1 -4.49783e-15 0)
(1 -3.56324e-15 0)
(1 -1.29979e-15 0)
(1 -5.1215e-15 0)
(1 -2.24209e-15 0)
(1 -3.79826e-15 0)
(1 7.32905e-15 0)
(1 1.02515e-15 0)
(1 -7.55586e-16 0)
(1 1.47194e-15 0)
(1 -5.32471e-16 0)
(1 -2.59606e-15 0)
(1 -6.44139e-15 0)
(1 -8.58331e-15 0)
(1 -2.85474e-15 0)
(1 4.99782e-15 0)
(1 -1.35132e-15 0)
(1 3.10637e-15 0)
(1 4.96123e-15 0)
(1 -8.62267e-15 0)
(1 2.8993e-15 0)
(1 -1.31322e-15 0)
(1 -4.58207e-16 0)
(1 4.78175e-16 0)
(1 -4.55063e-15 0)
(1 -1.18674e-15 0)
(1 -4.02026e-15 0)
(1 -9.26641e-16 0)
(1 1.40401e-15 0)
(1 -3.42616e-15 0)
(1 1.13413e-15 0)
(1 -1.8087e-15 0)
(1 2.75395e-15 0)
(1 1.23184e-15 0)
(1 -2.02976e-15 0)
(1 -1.37886e-15 0)
(1 -1.97148e-15 0)
(1 -4.61707e-15 0)
(1 -3.45245e-15 0)
(1 9.05125e-16 0)
(1 -7.33822e-16 0)
(1 3.18833e-15 0)
(1 -4.86447e-15 0)
(1 -2.19052e-15 0)
(1 1.96652e-15 0)
(1 -8.2799e-16 0)
(1 1.19289e-15 0)
(1 1.12177e-14 0)
(1 3.96339e-15 0)
(1 2.39032e-15 0)
(1 4.12726e-15 0)
(1 -5.47898e-15 0)
(1 -1.01901e-14 0)
(1 4.23302e-15 0)
(1 9.84852e-16 0)
(1 8.23131e-15 0)
(1 3.12234e-15 0)
(1 -3.83254e-15 0)
(1 -5.39081e-15 0)
(1 -5.49854e-15 0)
(1 -2.63814e-15 0)
(1 4.98919e-15 0)
(1 8.81511e-15 0)
(1 1.2339e-15 0)
(1 -3.46276e-15 0)
(1 -3.63795e-15 0)
(1 4.97334e-16 0)
(1 8.35989e-16 0)
(1 -2.46165e-15 0)
(1 4.06133e-15 0)
(1 5.7628e-15 0)
(1 -3.21269e-15 0)
(1 6.47563e-15 0)
(1 -4.67059e-15 0)
(1 -8.99879e-15 0)
(1 -4.65489e-15 0)
(1 -5.31073e-15 0)
(1 -8.48073e-16 0)
(1 4.18408e-15 0)
(1 2.10509e-15 0)
(1 -4.08056e-15 0)
(1 -1.13494e-14 0)
(1 -6.48138e-15 0)
(1 -9.88494e-15 0)
(1 1.15051e-16 0)
(1 5.83349e-15 0)
(1 1.13217e-14 0)
(1 5.93709e-15 0)
(1 3.18309e-15 0)
(1 4.98241e-15 0)
(1 -2.85241e-15 0)
(1 -4.45316e-15 0)
(1 8.63608e-16 0)
(1 2.5438e-15 0)
(1 2.3875e-15 0)
(1 -4.66778e-16 0)
(1 1.59631e-15 0)
(1 -6.28194e-15 0)
(1 -6.94619e-15 0)
(1 6.89161e-15 0)
(1 -9.23561e-16 0)
(1 5.8445e-16 0)
(1 1.0073e-15 0)
(1 -1.72629e-15 0)
(1 -1.67817e-15 0)
(1 -1.79029e-15 0)
(1 5.76377e-15 0)
(1 -3.19943e-15 0)
(1 3.96056e-15 0)
(1 -9.68891e-16 0)
(1 -2.07209e-15 0)
(1 5.37394e-15 0)
(1 -2.68776e-15 0)
(1 -4.44099e-15 0)
(1 -3.25014e-15 0)
(1 5.81788e-15 0)
(1 4.78834e-15 0)
(1 2.19521e-15 0)
(1 -1.29824e-15 0)
(1 -5.23328e-15 0)
(1 1.79742e-17 0)
(1 -3.48146e-15 0)
(1 -2.05257e-15 0)
(1 6.6341e-16 0)
(1 -5.14267e-15 0)
(1 4.82048e-16 0)
(1 -2.60607e-15 0)
(1 -4.67075e-15 0)
(1 -2.34599e-15 0)
(1 -3.75443e-15 0)
(1 -2.45083e-15 0)
(1 2.77395e-15 0)
(1 -9.46032e-16 0)
(1 3.4134e-15 0)
(1 8.33378e-16 0)
(1 -3.0347e-15 0)
(1 -6.51905e-16 0)
(1 -8.16141e-15 0)
(1 -2.99195e-15 0)
(1 -7.72473e-16 0)
(1 -7.37086e-15 0)
(1 3.0184e-15 0)
(1 4.43212e-15 0)
(1 -3.33413e-15 0)
(1 3.54813e-15 0)
(1 -1.04282e-15 0)
(1 1.24723e-15 0)
(1 5.47405e-15 0)
(1 4.23481e-15 0)
(1 1.2257e-14 0)
(1 -1.62007e-16 0)
(1 -7.18726e-15 0)
(1 -7.19829e-16 0)
(1 -3.3039e-15 0)
(1 1.12708e-15 0)
(1 -8.61574e-16 0)
(1 9.0122e-16 0)
(1 1.62661e-15 0)
(1 -7.9078e-15 0)
(1 -7.54517e-16 0)
(1 -8.64767e-15 0)
(1 8.85808e-15 0)
(1 5.73467e-15 0)
(1 -3.55187e-15 0)
(1 3.9249e-15 0)
(1 -2.78662e-15 0)
(1 3.25113e-16 0)
(1 -1.73461e-15 0)
(1 1.06815e-15 0)
(1 1.29895e-15 0)
(1 2.33815e-15 0)
(1 2.03251e-15 0)
(1 8.59913e-16 0)
(1 -9.84249e-15 0)
(1 -9.93269e-16 0)
(1 3.73626e-15 0)
(1 3.81912e-15 0)
(1 -3.55357e-15 0)
(1 -4.92348e-15 0)
(1 7.82013e-16 0)
(1 -2.635e-15 0)
(1 -6.76217e-15 0)
(1 -7.76294e-15 0)
(1 -3.61428e-15 0)
(1 3.90282e-16 0)
(1 -1.50314e-15 0)
(1 6.10295e-15 0)
(1 6.93713e-15 0)
(1 5.49617e-15 0)
(1 -2.34756e-15 0)
(1 -9.92644e-17 0)
(1 2.46923e-15 0)
(1 2.96191e-15 0)
(1 -2.63273e-16 0)
(1 6.80631e-16 0)
(1 3.34884e-15 0)
(1 1.91398e-15 0)
(1 3.73475e-15 0)
(1 6.72753e-15 0)
(1 3.9358e-15 0)
(1 -5.7383e-15 0)
(1 -3.18652e-15 0)
(1 -5.19482e-15 0)
(1 1.06791e-15 0)
(1 5.45351e-17 0)
(1 9.5292e-15 0)
(1 3.19688e-15 0)
(1 2.97428e-15 0)
(1 3.63419e-15 0)
(1 4.07619e-15 0)
(1 8.54235e-16 0)
(1 3.23446e-15 0)
(1 -3.52956e-15 0)
(1 -7.08674e-15 0)
(1 -4.2264e-15 0)
(1 -1.32184e-15 0)
(1 8.19162e-15 0)
(1 -6.01248e-16 0)
(1 -7.73136e-15 0)
(1 -2.66884e-15 0)
(1 5.19955e-16 0)
(1 -3.37391e-15 0)
(1 8.07234e-16 0)
(1 -2.52688e-15 0)
(1 -3.42767e-15 0)
(1 -2.88735e-15 0)
(1 -8.69193e-15 0)
(1 -8.11548e-15 0)
(1 -3.406e-15 0)
(1 -2.31306e-15 0)
(1 -2.3351e-15 0)
(1 2.7216e-15 0)
(1 4.48176e-15 0)
(1 7.28238e-15 0)
(1 3.97404e-15 0)
(1 3.46953e-16 0)
(1 -7.37414e-15 0)
(1 -5.69671e-16 0)
(1 4.22652e-15 0)
(1 -3.85223e-15 0)
(1 -1.18684e-15 0)
(1 3.30744e-15 0)
(1 -6.56466e-16 0)
(1 5.39732e-15 0)
(1 -5.29353e-15 0)
(1 -3.24027e-15 0)
(1 5.81926e-15 0)
(1 8.18465e-16 0)
(1 2.20904e-15 0)
(1 1.04363e-14 0)
(1 -3.79091e-15 0)
(1 -3.13442e-15 0)
(1 4.62091e-15 0)
(1 -2.78369e-15 0)
(1 8.8561e-15 0)
(1 4.61682e-15 0)
(1 -2.83774e-15 0)
(1 -1.49775e-15 0)
(1 1.11776e-15 0)
(1 2.16066e-15 0)
(1 -1.57755e-14 0)
(1 7.48697e-15 0)
(1 -5.46219e-15 0)
(1 2.83709e-16 0)
(1 -5.97433e-16 0)
(1 -3.19898e-15 0)
(1 -1.72405e-15 0)
(1 2.26387e-15 0)
(1 7.77938e-15 0)
(1 2.29664e-16 0)
(1 2.79975e-15 0)
(1 4.91432e-15 0)
(1 -6.69469e-15 0)
(1 -5.47882e-15 0)
(1 6.80341e-15 0)
(1 6.73651e-15 0)
(1 3.99603e-16 0)
(1 -1.21951e-14 0)
(1 -3.01544e-15 0)
(1 -3.20412e-15 0)
(1 -7.33893e-15 0)
(1 2.87087e-16 0)
(1 -4.1805e-15 0)
(1 8.98345e-16 0)
(1 1.1909e-15 0)
(1 2.55549e-15 0)
(1 -2.82949e-15 0)
(1 2.20412e-15 0)
(1 6.91196e-15 0)
(1 -6.23169e-16 0)
(1 -1.26306e-15 0)
(1 2.88516e-15 0)
(1 6.84659e-15 0)
(1 -5.90228e-16 0)
(1 -2.3968e-15 0)
(1 -7.27087e-16 0)
(1 2.59407e-15 0)
(1 4.42488e-15 0)
(1 6.30244e-15 0)
(1 -4.87097e-15 0)
(1 -7.69159e-16 0)
(1 -3.26702e-15 0)
(1 -3.92357e-18 0)
(1 -2.51582e-15 0)
(1 -4.43539e-15 0)
(1 -3.03813e-15 0)
(1 4.54675e-15 0)
(1 4.90747e-15 0)
(1 -2.62622e-15 0)
(1 7.02157e-15 0)
(1 6.4881e-15 0)
(1 -2.24847e-15 0)
(1 -2.40283e-15 0)
(1 -3.4159e-15 0)
(1 3.90118e-15 0)
(1 -1.84811e-15 0)
(1 2.55514e-15 0)
(1 3.12336e-16 0)
(1 -1.86782e-15 0)
(1 4.80192e-16 0)
(1 -5.87697e-16 0)
(1 3.67803e-16 0)
(1 -3.45083e-16 0)
(1 -2.22022e-15 0)
(1 1.25883e-16 0)
(1 -3.38022e-15 0)
(1 -1.89092e-15 0)
(1 -3.1269e-16 0)
(1 -3.7477e-15 0)
(1 -3.30719e-15 0)
(1 3.70607e-16 0)
(1 4.01681e-15 0)
(1 4.62313e-15 0)
(1 1.9146e-15 0)
(1 6.24386e-15 0)
(1 -1.29921e-15 0)
(1 -3.09861e-15 0)
(1 3.45816e-15 0)
(1 2.30175e-15 0)
(1 -3.74111e-15 0)
(1 -3.23127e-16 0)
(1 -1.58665e-15 0)
(1 -1.22116e-15 0)
(1 7.43642e-15 0)
(1 -1.39212e-15 0)
(1 -3.59415e-15 0)
(1 3.75202e-16 0)
(1 8.49688e-15 0)
(1 1.15786e-14 0)
(1 3.86585e-15 0)
(1 -1.18256e-14 0)
(1 3.37323e-15 0)
(1 -5.07258e-15 0)
(1 6.04224e-16 0)
(1 9.78815e-15 0)
(1 2.4472e-15 0)
(1 1.14944e-14 0)
(1 4.29962e-15 0)
(1 -8.52261e-15 0)
(1 -7.09053e-15 0)
(1 -1.42428e-14 0)
(1 -6.81734e-15 0)
(1 -1.25845e-16 0)
(1 -2.89394e-16 0)
(1 -8.90822e-15 0)
(1 -6.29916e-15 0)
(1 -1.71965e-16 0)
(1 2.50268e-15 0)
(1 3.88936e-15 0)
(1 1.50083e-14 0)
(1 1.7098e-15 0)
(1 1.90611e-15 0)
(1 -4.58341e-15 0)
(1 -3.26019e-15 0)
(1 -3.42352e-15 0)
(1 -3.5738e-15 0)
(1 -1.99046e-15 0)
(1 -1.18147e-15 0)
(1 6.78162e-15 0)
(1 -5.96381e-15 0)
(1 -4.70888e-15 0)
(1 5.02585e-15 0)
(1 -3.82659e-15 0)
(1 -5.90995e-15 0)
(1 3.20298e-15 0)
(1 6.64291e-15 0)
(1 6.39578e-15 0)
(1 -5.15857e-15 0)
(1 1.72369e-15 0)
(1 5.72284e-15 0)
(1 -6.13403e-16 0)
(1 -6.98895e-15 0)
(1 4.25082e-15 0)
(1 8.47683e-15 0)
(1 8.90138e-15 0)
(1 -9.43194e-16 0)
(1 -6.14362e-15 0)
(1 6.95343e-15 0)
(1 -5.68084e-15 0)
(1 -1.05824e-14 0)
(1 2.10328e-15 0)
(1 5.93117e-15 0)
(1 4.8719e-15 0)
(1 -1.80347e-15 0)
(1 3.47089e-15 0)
(1 3.24135e-15 0)
(1 -2.5662e-15 0)
(1 5.20877e-15 0)
(1 4.07567e-15 0)
(1 6.60341e-15 0)
(1 4.52077e-15 0)
(1 2.14976e-16 0)
(1 -3.87982e-15 0)
(1 -2.07677e-15 0)
(1 7.17038e-15 0)
(1 1.52475e-15 0)
(1 -3.82941e-15 0)
(1 -4.07546e-15 0)
(1 -6.24004e-15 0)
(1 2.36257e-15 0)
(1 -5.74607e-15 0)
(1 6.84644e-16 0)
(1 2.44958e-15 0)
(1 -8.74228e-15 0)
(1 -1.19172e-15 0)
(1 -1.20393e-15 0)
(1 2.02024e-15 0)
(1 2.18302e-15 0)
(1 -1.16825e-14 0)
(1 -5.42754e-15 0)
(1 1.53495e-15 0)
(1 1.54334e-15 0)
(1 5.00025e-15 0)
(1 5.08512e-15 0)
(1 5.83895e-15 0)
(1 -5.39875e-15 0)
(1 -2.96069e-15 0)
(1 3.22738e-15 0)
(1 4.91604e-15 0)
(1 -6.32277e-16 0)
(1 -2.23025e-15 0)
(1 -1.42184e-15 0)
(1 -8.80836e-16 0)
(1 -1.9639e-15 0)
(1 3.99928e-15 0)
(1 -2.15685e-15 0)
(1 -5.29086e-15 0)
(1 5.1513e-15 0)
(1 6.03068e-15 0)
(1 2.20919e-15 0)
(1 2.7256e-16 0)
(1 -1.94664e-15 0)
(1 2.16572e-15 0)
(1 3.28094e-15 0)
(1 3.38069e-15 0)
(1 -3.73386e-16 0)
(1 6.37033e-15 0)
(1 9.22116e-15 0)
(1 -6.44015e-15 0)
(1 -1.54381e-14 0)
(1 -1.96131e-15 0)
(1 -9.23345e-15 0)
(1 1.25622e-15 0)
(1 2.04514e-17 0)
(1 -6.03208e-15 0)
(1 1.34997e-15 0)
(1 -7.71669e-15 0)
(1 -5.40095e-15 0)
(1 5.98773e-15 0)
(1 6.16441e-15 0)
(1 -3.72488e-15 0)
(1 2.44039e-15 0)
(1 1.89487e-15 0)
(1 -2.77418e-15 0)
(1 -3.5863e-15 0)
(1 -3.09299e-15 0)
(1 3.8882e-15 0)
(1 2.98743e-15 0)
(1 2.99902e-15 0)
(1 -8.19723e-15 0)
(1 1.08679e-15 0)
(1 2.88319e-15 0)
(1 -1.27178e-16 0)
(1 6.06755e-15 0)
(1 -3.42599e-15 0)
(1 2.31238e-15 0)
(1 2.41405e-15 0)
(1 -7.74524e-15 0)
(1 -4.04463e-15 0)
(1 1.14161e-15 0)
(1 5.41352e-15 0)
(1 -1.88212e-15 0)
(1 5.80251e-15 0)
(1 1.05246e-14 0)
(1 6.0001e-15 0)
(1 4.62347e-15 0)
(1 -3.45742e-15 0)
(1 7.44923e-15 0)
(1 -2.70487e-15 0)
(1 8.49394e-16 0)
(1 1.09423e-15 0)
(1 -5.08722e-15 0)
(1 6.29547e-15 0)
(1 -1.04459e-14 0)
(1 6.33356e-15 0)
(1 6.61036e-15 0)
(1 -5.86575e-15 0)
(1 1.34864e-14 0)
(1 1.20825e-14 0)
(1 9.79212e-15 0)
(1 -1.5792e-15 0)
(1 2.73651e-15 0)
(1 -1.02689e-15 0)
(1 -4.14006e-15 0)
(1 2.98744e-15 0)
(1 -9.39459e-16 0)
(1 -3.89384e-15 0)
(1 -7.89296e-15 0)
(1 4.41305e-15 0)
(1 3.34034e-15 0)
(1 4.76073e-15 0)
(1 -1.36718e-15 0)
(1 1.36939e-15 0)
(1 -8.52324e-15 0)
(1 -9.29538e-15 0)
(1 -7.30622e-15 0)
(1 -2.32768e-15 0)
(1 -1.06299e-15 0)
(1 -2.6504e-15 0)
(1 -2.5653e-15 0)
(1 6.20906e-16 0)
(1 3.90461e-15 0)
(1 8.43472e-15 0)
(1 9.82173e-15 0)
(1 6.3862e-15 0)
(1 -1.69609e-16 0)
(1 -1.96966e-15 0)
(1 8.6068e-15 0)
(1 1.01359e-14 0)
(1 7.57928e-16 0)
(1 4.1829e-17 0)
(1 1.81951e-15 0)
(1 -4.10427e-15 0)
(1 5.01169e-16 0)
(1 -3.36652e-15 0)
(1 1.57957e-15 0)
(1 2.09191e-15 0)
(1 2.78299e-15 0)
(1 2.45054e-15 0)
(1 -1.1602e-15 0)
(1 1.51801e-14 0)
(1 3.55977e-15 0)
(1 1.44595e-15 0)
(1 4.7612e-15 0)
(1 -3.59604e-15 0)
(1 -3.2432e-15 0)
(1 -1.48924e-15 0)
(1 -1.07038e-15 0)
(1 1.74494e-15 0)
(1 -7.63621e-15 0)
(1 -1.17884e-15 0)
(1 -1.00133e-14 0)
(1 -6.45092e-15 0)
(1 2.45946e-15 0)
(1 4.7575e-15 0)
(1 -1.76098e-15 0)
(1 -6.59754e-15 0)
(1 1.89803e-15 0)
(1 -4.02824e-15 0)
(1 -4.73351e-15 0)
(1 4.93421e-15 0)
(1 3.12033e-15 0)
(1 3.35145e-15 0)
(1 3.39096e-15 0)
(1 -2.10191e-15 0)
(1 -8.44628e-15 0)
(1 -4.661e-15 0)
(1 -5.23939e-15 0)
(1 -6.40359e-15 0)
(1 -5.64118e-15 0)
(1 4.74148e-15 0)
(1 2.54799e-15 0)
(1 5.58256e-15 0)
(1 1.04384e-14 0)
(1 3.03886e-16 0)
(1 -9.38203e-16 0)
(1 -3.82285e-15 0)
(1 2.01179e-16 0)
(1 2.0765e-15 0)
(1 -4.11162e-15 0)
(1 -4.61762e-15 0)
(1 2.33804e-15 0)
(1 7.55716e-15 0)
(1 1.02616e-14 0)
(1 5.0992e-15 0)
(1 -1.44452e-15 0)
(1 -5.68802e-15 0)
(1 8.00004e-16 0)
(1 3.69184e-15 0)
(1 4.90494e-15 0)
(1 9.42757e-15 0)
(1 1.03602e-17 0)
(1 1.36754e-15 0)
(1 5.34574e-15 0)
(1 -3.90685e-15 0)
(1 2.61661e-15 0)
(1 3.86519e-15 0)
(1 6.42075e-15 0)
(1 6.6321e-15 0)
(1 8.42322e-15 0)
(1 5.90538e-15 0)
(1 -2.52019e-16 0)
(1 -1.72341e-16 0)
(1 4.51914e-16 0)
(1 3.31749e-16 0)
(1 1.34398e-15 0)
(1 -5.26716e-15 0)
(1 -1.25842e-15 0)
(1 -2.98177e-16 0)
(1 2.06029e-15 0)
(1 1.3575e-15 0)
(1 -2.33249e-15 0)
(1 -4.87439e-16 0)
(1 -4.47305e-15 0)
(1 -9.31688e-15 0)
(1 -1.62607e-15 0)
(1 -1.52354e-17 0)
(1 -5.39508e-15 0)
(1 -2.21727e-15 0)
(1 5.19336e-15 0)
(1 -3.0856e-15 0)
(1 6.12676e-15 0)
(1 -4.78219e-15 0)
(1 1.16995e-14 0)
(1 3.35626e-15 0)
(1 8.18961e-16 0)
(1 7.49655e-15 0)
(1 9.87277e-15 0)
(1 9.51837e-15 0)
(1 -7.52271e-18 0)
(1 -1.76317e-15 0)
(1 9.80491e-16 0)
(1 3.35072e-15 0)
(1 -2.68423e-15 0)
(1 -8.46989e-15 0)
(1 4.75875e-15 0)
(1 1.73312e-15 0)
(1 6.23308e-15 0)
(1 5.3093e-15 0)
(1 -7.02543e-15 0)
(1 8.72803e-15 0)
(1 -9.19804e-16 0)
(1 -6.893e-16 0)
(1 -2.18304e-15 0)
(1 -1.07464e-14 0)
(1 -1.90706e-15 0)
(1 7.58838e-16 0)
(1 5.49528e-15 0)
(1 3.77796e-15 0)
(1 -7.46452e-15 0)
(1 -4.8064e-15 0)
(1 -1.35369e-14 0)
(1 -3.99928e-15 0)
(1 -1.15928e-14 0)
(1 1.49627e-14 0)
(1 1.14644e-14 0)
(1 8.48692e-15 0)
(1 5.63383e-15 0)
(1 -1.31928e-14 0)
(1 -8.43849e-15 0)
(1 2.04735e-15 0)
(1 -3.10018e-15 0)
(1 -1.57991e-15 0)
(1 5.79445e-15 0)
(1 -2.75484e-15 0)
(1 -3.44286e-15 0)
(1 -1.16287e-14 0)
(1 -7.24352e-15 0)
(1 -4.73946e-15 0)
(1 1.13435e-14 0)
(1 3.70489e-15 0)
(1 -1.25915e-15 0)
(1 7.58005e-18 0)
(1 3.66658e-15 0)
(1 3.28458e-15 0)
(1 -1.82237e-16 0)
(1 -1.03205e-15 0)
(1 9.80202e-15 0)
(1 2.56069e-15 0)
(1 -4.96502e-15 0)
(1 -4.14024e-15 0)
(1 4.19254e-15 0)
(1 8.04182e-15 0)
(1 8.79089e-15 0)
(1 4.73762e-15 0)
(1 4.86562e-15 0)
(1 -3.06011e-15 0)
(1 5.9009e-15 0)
(1 1.06803e-15 0)
(1 3.51892e-15 0)
(1 1.8473e-15 0)
(1 2.40582e-15 0)
(1 -3.03133e-15 0)
(1 8.96365e-15 0)
(1 4.16835e-15 0)
(1 2.48138e-15 0)
(1 6.81277e-15 0)
(1 -6.90653e-15 0)
(1 -2.78575e-15 0)
(1 5.64389e-15 0)
(1 7.9302e-15 0)
(1 2.66234e-15 0)
(1 1.89383e-15 0)
(1 -2.58358e-15 0)
(1 -9.07994e-15 0)
(1 7.5747e-15 0)
(1 2.63435e-17 0)
(1 -6.15765e-15 0)
(1 -4.81395e-15 0)
(1 4.26398e-15 0)
(1 2.25668e-15 0)
(1 1.21624e-14 0)
(1 -1.17449e-15 0)
(1 -6.17319e-15 0)
(1 -1.20935e-15 0)
(1 -8.59604e-16 0)
(1 -7.66319e-15 0)
(1 -6.3995e-15 0)
(1 -9.73729e-15 0)
(1 8.46359e-15 0)
(1 -1.73557e-15 0)
(1 9.66535e-16 0)
(1 -4.65094e-16 0)
(1 4.72118e-15 0)
(1 6.3499e-15 0)
(1 4.9884e-15 0)
(1 1.19853e-14 0)
(1 2.11599e-15 0)
(1 3.63824e-15 0)
(1 -6.25485e-16 0)
(1 2.88602e-16 0)
(1 1.96736e-16 0)
(1 4.50235e-15 0)
(1 -8.02263e-15 0)
(1 2.96471e-16 0)
(1 -5.30157e-15 0)
(1 1.30363e-15 0)
(1 4.16314e-15 0)
(1 7.66112e-15 0)
(1 5.74971e-15 0)
(1 -4.89257e-15 0)
(1 -6.75006e-15 0)
(1 -9.19228e-16 0)
(1 -2.07663e-16 0)
(1 -3.46877e-16 0)
(1 2.91163e-15 0)
(1 -5.49901e-15 0)
(1 4.73298e-15 0)
(1 1.19028e-15 0)
(1 -6.96319e-15 0)
(1 -5.21758e-16 0)
(1 -3.92583e-15 0)
(1 -4.13386e-15 0)
(1 -2.73276e-15 0)
(1 -4.09452e-15 0)
(1 7.22998e-15 0)
(1 4.64576e-15 0)
(1 4.31742e-15 0)
(1 -3.13556e-15 0)
(1 1.11366e-15 0)
(1 3.44882e-15 0)
(1 -7.83245e-15 0)
(1 -8.89184e-15 0)
(1 -8.14266e-15 0)
(1 -1.70607e-15 0)
(1 1.96687e-15 0)
(1 -1.33441e-14 0)
(1 -3.27655e-15 0)
(1 -1.90393e-15 0)
(1 9.32254e-15 0)
(1 -9.42174e-16 0)
(1 -8.62838e-15 0)
(1 -2.4484e-16 0)
(1 1.03617e-14 0)
(1 3.98845e-15 0)
(1 9.29941e-15 0)
(1 -2.92425e-15 0)
(1 1.86383e-15 0)
(1 2.36757e-15 0)
(1 -3.97109e-15 0)
(1 6.7762e-16 0)
(1 2.52952e-15 0)
(1 7.68499e-15 0)
(1 7.16479e-15 0)
(1 -6.93269e-15 0)
(1 1.64265e-15 0)
(1 3.78433e-15 0)
(1 3.71575e-15 0)
(1 -6.99962e-16 0)
(1 5.92524e-15 0)
(1 3.30447e-15 0)
(1 1.03333e-14 0)
(1 3.64729e-15 0)
(1 -4.21207e-15 0)
(1 2.41661e-15 0)
(1 -9.01744e-16 0)
(1 2.03597e-15 0)
(1 9.37045e-16 0)
(1 -1.73325e-15 0)
(1 8.92611e-15 0)
(1 4.88159e-15 0)
(1 -5.76818e-15 0)
(1 1.14085e-15 0)
(1 3.80984e-15 0)
(1 -5.11821e-15 0)
(1 -7.12869e-16 0)
(1 -3.45188e-15 0)
(1 -4.3831e-15 0)
(1 1.94391e-15 0)
(1 8.71323e-15 0)
(1 3.27688e-15 0)
(1 6.40238e-15 0)
(1 -6.55917e-15 0)
(1 -4.96122e-15 0)
(1 4.03423e-15 0)
(1 -7.55539e-15 0)
(1 -8.24868e-15 0)
(1 -2.86294e-15 0)
(1 5.84423e-15 0)
(1 5.67386e-15 0)
(1 1.12418e-15 0)
(1 -4.97646e-15 0)
(1 3.64415e-15 0)
(1 -1.94446e-15 0)
(1 1.05971e-14 0)
(1 8.07168e-15 0)
(1 9.32155e-15 0)
(1 1.10716e-15 0)
(1 -9.0414e-16 0)
(1 1.47756e-15 0)
(1 9.2689e-16 0)
(1 -1.85821e-15 0)
(1 -1.15433e-15 0)
(1 1.25369e-15 0)
(1 2.46749e-15 0)
(1 1.08066e-15 0)
(1 1.21066e-15 0)
(1 -3.40179e-15 0)
(1 9.29278e-15 0)
(1 1.38917e-14 0)
(1 -3.46821e-15 0)
(1 -7.06612e-15 0)
(1 -5.80794e-15 0)
(1 1.07474e-15 0)
(1 -3.58331e-15 0)
(1 -6.43832e-15 0)
(1 -6.77905e-15 0)
(1 1.01971e-15 0)
(1 1.19656e-15 0)
(1 6.79288e-15 0)
(1 8.02158e-15 0)
(1 -3.43313e-15 0)
(1 -1.8562e-14 0)
(1 1.34436e-14 0)
(1 -5.38887e-15 0)
(1 -8.33605e-15 0)
(1 -3.2588e-15 0)
(1 -6.90511e-16 0)
(1 5.16513e-15 0)
(1 -2.87954e-15 0)
(1 3.87724e-15 0)
(1 -6.70243e-15 0)
(1 -6.97024e-15 0)
(1 2.95731e-15 0)
(1 -9.86976e-16 0)
(1 2.92492e-15 0)
(1 -8.62272e-15 0)
(1 -2.13492e-15 0)
(1 2.41933e-15 0)
(1 -8.43533e-16 0)
(1 1.0441e-15 0)
(1 -8.67928e-15 0)
(1 2.96181e-15 0)
(1 -5.71288e-16 0)
(1 9.77434e-15 0)
(1 1.02516e-14 0)
(1 2.76207e-15 0)
(1 -5.76478e-15 0)
(1 -1.85936e-15 0)
(1 1.39781e-15 0)
(1 -2.3449e-15 0)
(1 9.60203e-15 0)
(1 8.20835e-15 0)
(1 3.94204e-15 0)
(1 2.58469e-15 0)
(1 -3.76053e-16 0)
(1 8.00984e-15 0)
(1 -8.1515e-15 0)
(1 -1.01187e-15 0)
(1 -2.23244e-15 0)
(1 3.12253e-15 0)
(1 7.09973e-15 0)
(1 8.19681e-15 0)
(1 5.2496e-15 0)
(1 1.22581e-15 0)
(1 4.71703e-15 0)
(1 2.2094e-15 0)
(1 -1.3881e-15 0)
(1 7.05088e-16 0)
(1 -7.38947e-15 0)
(1 1.95216e-15 0)
(1 9.10008e-16 0)
(1 1.80028e-15 0)
(1 3.51685e-15 0)
(1 2.8056e-15 0)
(1 -6.25512e-15 0)
(1 -2.70021e-15 0)
(1 8.90719e-15 0)
(1 1.16244e-15 0)
(1 -3.01605e-15 0)
(1 -5.21492e-15 0)
(1 -4.51105e-15 0)
(1 -2.86619e-15 0)
(1 1.26547e-15 0)
(1 1.59471e-15 0)
(1 -5.23544e-15 0)
(1 9.28905e-16 0)
(1 -3.43943e-15 0)
(1 7.30629e-15 0)
(1 -2.09836e-15 0)
(1 -1.02012e-15 0)
(1 2.51886e-15 0)
(1 -4.07131e-15 0)
(1 3.87751e-15 0)
(1 7.64439e-15 0)
(1 -1.10356e-15 0)
(1 2.21627e-15 0)
(1 9.42483e-16 0)
(1 -4.37283e-16 0)
(1 7.29001e-17 0)
(1 -1.04288e-16 0)
(1 -2.87101e-15 0)
(1 8.43265e-16 0)
(1 6.07058e-15 0)
(1 7.03563e-15 0)
(1 3.86902e-15 0)
(1 -9.7773e-16 0)
(1 -7.47325e-15 0)
(1 -2.09596e-15 0)
(1 4.4631e-15 0)
(1 5.23319e-15 0)
(1 2.90657e-15 0)
(1 -5.72899e-16 0)
(1 -7.05526e-15 0)
(1 -5.99298e-15 0)
(1 -1.09174e-14 0)
(1 -1.59609e-15 0)
(1 -4.62638e-15 0)
(1 -5.14266e-15 0)
(1 1.03309e-14 0)
(1 4.78305e-15 0)
(1 3.48807e-15 0)
(1 -9.90781e-15 0)
(1 -3.0739e-15 0)
(1 8.55602e-16 0)
(1 2.57355e-17 0)
(1 -5.70188e-15 0)
(1 3.87608e-15 0)
(1 2.98513e-15 0)
(1 -2.14745e-16 0)
(1 -9.13716e-15 0)
(1 -8.73809e-16 0)
(1 3.12434e-15 0)
(1 -4.47483e-15 0)
(1 -9.19747e-15 0)
(1 3.73574e-16 0)
(1 -6.40207e-15 0)
(1 3.92098e-15 0)
(1 4.84873e-17 0)
(1 -3.89563e-15 0)
(1 -3.4984e-15 0)
(1 1.07679e-14 0)
(1 1.15557e-14 0)
(1 -9.80549e-17 0)
(1 7.52972e-15 0)
(1 -6.25622e-15 0)
(1 9.84311e-15 0)
(1 -4.20378e-15 0)
(1 -7.74571e-15 0)
(1 -6.41586e-15 0)
(1 -7.84675e-15 0)
(1 1.09189e-14 0)
(1 8.46667e-15 0)
(1 -3.85462e-15 0)
(1 1.10631e-14 0)
(1 4.74597e-15 0)
(1 4.1751e-15 0)
(1 -2.81935e-16 0)
(1 -8.38409e-16 0)
(1 1.5179e-15 0)
(1 -4.19315e-16 0)
(1 -2.99214e-15 0)
(1 8.11257e-15 0)
(1 8.2051e-15 0)
(1 3.81252e-15 0)
(1 5.85734e-15 0)
(1 5.17083e-15 0)
(1 -2.70988e-16 0)
(1 1.47885e-15 0)
(1 -6.08258e-15 0)
(1 6.98463e-15 0)
(1 8.75013e-15 0)
(1 2.7714e-15 0)
(1 -2.14049e-15 0)
(1 6.11228e-15 0)
(1 -1.00589e-16 0)
(1 7.32922e-15 0)
(1 4.20709e-15 0)
(1 -7.01511e-15 0)
(1 -2.74742e-15 0)
(1 6.81766e-16 0)
(1 -8.04544e-15 0)
(1 5.63831e-16 0)
(1 6.71084e-16 0)
(1 -3.04289e-15 0)
(1 -6.60264e-15 0)
(1 2.59625e-15 0)
(1 1.49581e-15 0)
(1 2.59132e-15 0)
(1 9.3164e-16 0)
(1 -2.72544e-15 0)
(1 2.53203e-15 0)
(1 4.96308e-15 0)
(1 1.986e-15 0)
(1 1.52358e-15 0)
(1 -6.923e-16 0)
(1 8.21905e-15 0)
(1 7.90401e-16 0)
(1 -4.28033e-15 0)
(1 -3.19639e-16 0)
(1 4.67041e-15 0)
(1 -7.14413e-16 0)
(1 8.60993e-15 0)
(1 -4.43747e-17 0)
(1 6.10107e-15 0)
(1 -7.83502e-15 0)
(1 -3.67775e-15 0)
(1 3.09436e-15 0)
(1 -5.75091e-15 0)
(1 6.30872e-15 0)
(1 8.61845e-15 0)
(1 6.00407e-15 0)
(1 -1.15506e-14 0)
(1 -1.54336e-14 0)
(1 -2.68605e-15 0)
(1 -2.1166e-14 0)
(1 1.12018e-14 0)
(1 -4.40572e-15 0)
(1 -6.68875e-17 0)
(1 1.05671e-14 0)
(1 -4.76352e-15 0)
(1 5.73338e-15 0)
(1 6.97343e-15 0)
(1 -7.11182e-15 0)
(1 -4.90939e-15 0)
(1 -5.39824e-15 0)
(1 -1.11132e-15 0)
(1 1.92424e-15 0)
(1 -2.15035e-15 0)
(1 -2.26254e-15 0)
(1 -4.81837e-16 0)
(1 3.04939e-17 0)
(1 -3.2415e-15 0)
(1 -4.11153e-15 0)
(1 -3.26647e-15 0)
(1 -8.48414e-15 0)
(1 -2.11232e-16 0)
(1 4.3678e-15 0)
(1 -1.88958e-15 0)
(1 -2.09534e-15 0)
(1 4.01983e-17 0)
(1 1.57861e-14 0)
(1 4.6354e-15 0)
(1 8.88662e-15 0)
(1 3.92902e-15 0)
(1 -1.36926e-14 0)
(1 3.70349e-15 0)
(1 -3.75002e-15 0)
(1 -1.02358e-14 0)
(1 -4.88906e-15 0)
(1 3.46636e-15 0)
(1 6.46422e-15 0)
(1 4.9098e-15 0)
(1 2.17193e-15 0)
(1 1.15328e-14 0)
(1 1.32576e-15 0)
(1 5.57851e-15 0)
(1 5.44307e-15 0)
(1 5.91052e-16 0)
(1 5.57359e-15 0)
(1 -3.4476e-15 0)
(1 4.57714e-15 0)
(1 3.16857e-15 0)
(1 8.95618e-15 0)
(1 8.65391e-15 0)
(1 7.42312e-15 0)
(1 5.78519e-15 0)
(1 5.57642e-15 0)
(1 2.03599e-15 0)
(1 4.77996e-15 0)
(1 4.05431e-15 0)
(1 1.55542e-15 0)
(1 1.52583e-15 0)
(1 -1.77078e-15 0)
(1 3.41757e-15 0)
(1 1.3359e-15 0)
(1 9.03628e-15 0)
(1 -1.98806e-15 0)
(1 -1.10165e-14 0)
(1 2.04744e-15 0)
(1 1.69004e-15 0)
(1 -5.72584e-15 0)
(1 1.25472e-15 0)
(1 -1.66836e-15 0)
(1 -5.75269e-15 0)
(1 -6.02717e-15 0)
(1 1.22536e-15 0)
(1 1.24138e-15 0)
(1 -3.16423e-15 0)
(1 -5.70792e-16 0)
(1 -1.78715e-15 0)
(1 2.00556e-15 0)
(1 5.14462e-15 0)
(1 5.9908e-15 0)
(1 -1.83771e-15 0)
(1 -2.44945e-15 0)
(1 4.29827e-15 0)
(1 3.6999e-15 0)
(1 4.1351e-15 0)
(1 -9.33347e-16 0)
(1 5.01629e-15 0)
(1 9.49164e-16 0)
(1 1.8025e-15 0)
(1 3.28849e-15 0)
(1 3.86041e-15 0)
(1 9.63192e-16 0)
(1 1.79017e-16 0)
(1 4.1571e-15 0)
(1 7.20976e-16 0)
(1 -6.23366e-15 0)
(1 -2.32038e-15 0)
(1 6.48698e-16 0)
(1 -3.60025e-15 0)
(1 -3.93103e-15 0)
(1 -5.28568e-15 0)
(1 -8.03169e-15 0)
(1 -2.08598e-15 0)
(1 3.56388e-15 0)
(1 -2.69647e-16 0)
(1 -3.80649e-15 0)
(1 -8.31534e-16 0)
(1 1.68064e-15 0)
(1 2.95188e-15 0)
(1 -1.00643e-14 0)
(1 -4.41184e-15 0)
(1 -2.08801e-15 0)
(1 1.26576e-14 0)
(1 -7.60202e-15 0)
(1 -4.32846e-16 0)
(1 -4.9796e-15 0)
(1 5.91664e-16 0)
(1 6.50092e-16 0)
(1 -5.58298e-15 0)
(1 3.55183e-15 0)
(1 -1.65528e-15 0)
(1 -2.49528e-15 0)
(1 1.7642e-16 0)
(1 -4.80823e-15 0)
(1 -2.79765e-15 0)
(1 2.70589e-15 0)
(1 1.33147e-14 0)
(1 3.93984e-15 0)
(1 5.33813e-15 0)
(1 -1.43778e-15 0)
(1 -3.89399e-15 0)
(1 1.50678e-15 0)
(1 -3.72654e-15 0)
(1 -6.56057e-15 0)
(1 -1.84025e-14 0)
(1 5.93493e-16 0)
(1 1.17979e-14 0)
(1 9.175e-15 0)
(1 1.28868e-15 0)
(1 1.09477e-14 0)
(1 1.01758e-14 0)
(1 1.72385e-15 0)
(1 2.32063e-15 0)
(1 -1.66131e-15 0)
(1 -6.77887e-16 0)
(1 1.348e-16 0)
(1 4.0048e-16 0)
(1 2.26575e-15 0)
(1 -9.64707e-15 0)
(1 9.41592e-15 0)
(1 8.55337e-15 0)
(1 8.49505e-15 0)
(1 6.64142e-15 0)
(1 3.78627e-15 0)
(1 3.40335e-15 0)
(1 2.96644e-15 0)
(1 -7.99133e-15 0)
(1 2.84625e-16 0)
(1 6.71082e-15 0)
(1 3.85759e-16 0)
(1 -6.11197e-16 0)
(1 1.82579e-15 0)
(1 3.16025e-15 0)
(1 -4.16949e-16 0)
(1 4.90044e-15 0)
(1 -6.40773e-15 0)
(1 -7.77819e-15 0)
(1 2.06841e-15 0)
(1 -3.15253e-15 0)
(1 -5.05601e-15 0)