/*--------------------------------*- C++ -*----------------------------------*\
| =========                 |                                                 |
| \\      /  F ield         | OpenFOAM: The Open Source CFD Toolbox           |
|  \\    /   O peration     | Version:  v2012                                 |
|   \\  /    A nd           | Website:  www.openfoam.com                      |
|    \\/     M anipulation  |                                                 |
\*---------------------------------------------------------------------------*/
FoamFile
{
    version     2.0;
    format      ascii;
    class       volVectorField;
    location    "0";
    object      U;
}
// * * * * * * * * * * * * * * * * * * * * * * * * * * * * * * * * * * * * * //

dimensions      [0 1 -1 0 0 0 0];


internalField   nonuniform List<vector> 
4000
(
(1 2.5053e-15 0)
(1 2.78313e-15 0)
(1 1.1536e-15 0)
(1 7.66575e-16 0)
(1 -5.03256e-16 0)
(1 -6.72801e-15 0)
(1 1.72727e-15 0)
(1 6.60034e-15 0)
(1 1.40326e-15 0)
(1 -2.02131e-15 0)
(1 -2.44385e-15 0)
(1 -2.40927e-16 0)
(1 1.15341e-15 0)
(1 3.40918e-15 0)
(1 -3.65171e-15 0)
(1 -6.0816e-15 0)
(1 4.24109e-15 0)
(1 -6.73211e-16 0)
(1 -1.07783e-15 0)
(1 -7.20742e-16 0)
(1 -4.4928e-15 0)
(1 -1.14479e-15 0)
(1 -3.78955e-16 0)
(1 2.08805e-16 0)
(1 5.7691e-15 0)
(1 2.51362e-15 0)
(1 1.0916e-15 0)
(1 -1.55375e-15 0)
(1 -1.02764e-14 0)
(1 -4.72328e-15 0)
(1 -2.23518e-15 0)
(1 2.69055e-15 0)
(1 -1.02681e-15 0)
(1 -1.94001e-15 0)
(1 1.53021e-15 0)
(1 5.34867e-15 0)
(1 8.50903e-15 0)
(1 2.89406e-15 0)
(1 5.04333e-15 0)
(1 -4.80807e-15 0)
(1 -4.65219e-15 0)
(1 -3.79277e-15 0)
(1 8.73911e-16 0)
(1 -4.40519e-16 0)
(1 3.23595e-15 0)
(1 1.71901e-15 0)
(1 -1.38073e-15 0)
(1 2.10006e-15 0)
(1 2.0115e-15 0)
(1 2.09645e-15 0)
(1 1.71043e-15 0)
(1 2.61581e-15 0)
(1 1.45963e-15 0)
(1 3.09717e-15 0)
(1 1.40425e-15 0)
(1 5.03891e-17 0)
(1 -1.73164e-15 0)
(1 2.62647e-15 0)
(1 -4.18827e-16 0)
(1 2.49154e-15 0)
(1 3.90671e-17 0)
(1 5.28782e-16 0)
(1 -1.21672e-15 0)
(1 5.26599e-16 0)
(1 -1.49671e-15 0)
(1 -3.31416e-15 0)
(1 9.92175e-16 0)
(1 2.09984e-15 0)
(1 -7.46572e-16 0)
(1 1.11318e-15 0)
(1 -2.37217e-15 0)
(1 2.24242e-15 0)
(1 -5.88801e-15 0)
(1 -7.03612e-15 0)
(1 -5.67487e-15 0)
(1 -1.58143e-15 0)
(1 -1.20313e-15 0)
(1 -3.61852e-15 0)
(1 -1.30006e-15 0)
(1 1.24335e-15 0)
(1 1.5126e-15 0)
(1 4.4428e-15 0)
(1 -1.75727e-15 0)
(1 -5.24667e-15 0)
(1 1.38265e-16 0)
(1 4.14356e-15 0)
(1 -4.81625e-16 0)
(1 9.96183e-16 0)
(1 1.97401e-15 0)
(1 2.7006e-15 0)
(1 4.24853e-16 0)
(1 4.17696e-15 0)
(1 -1.00802e-15 0)
(1 -3.16051e-15 0)
(1 1.03151e-15 0)
(1 3.66233e-15 0)
(1 -1.59237e-15 0)
(1 -7.87049e-16 0)
(1 -9.06867e-16 0)
(1 -2.00816e-15 0)
(1 1.8642e-15 0)
(1 3.6163e-15 0)
(1 1.49747e-15 0)
(1 9.17491e-16 0)
(1 -1.5974e-15 0)
(1 -5.95744e-15 0)
(1 -1.25167e-15 0)
(1 7.33912e-15 0)
(1 3.58986e-15 0)
(1 5.2278e-16 0)
(1 -2.49314e-15 0)
(1 3.4231e-17 0)
(1 -1.89473e-15 0)
(1 1.447e-15 0)
(1 -1.1722e-15 0)
(1 -6.33629e-15 0)
(1 3.31625e-15 0)
(1 -1.75407e-15 0)
(1 3.96775e-15 0)
(1 3.27712e-15 0)
(1 -3.03058e-15 0)
(1 6.14106e-16 0)
(1 1.18353e-15 0)
(1 5.77642e-18 0)
(1 2.5891e-15 0)
(1 -7.02302e-15 0)
(1 -4.97346e-15 0)
(1 -4.79575e-16 0)
(1 -7.4053e-15 0)
(1 1.17204e-16 0)
(1 2.79166e-15 0)
(1 1.8982e-15 0)
(1 -1.39573e-15 0)
(1 -4.30213e-15 0)
(1 -3.66704e-15 0)
(1 5.02126e-15 0)
(1 4.57221e-15 0)
(1 5.61804e-15 0)
(1 1.35873e-15 0)
(1 -6.09648e-15 0)
(1 -9.25344e-15 0)
(1 -1.26603e-15 0)
(1 4.1426e-15 0)
(1 5.9208e-15 0)
(1 3.09285e-15 0)
(1 -3.0957e-15 0)
(1 -5.06882e-15 0)
(1 -3.55482e-15 0)
(1 1.65023e-15 0)
(1 -2.14578e-15 0)
(1 1.41325e-15 0)
(1 5.50727e-15 0)
(1 2.23996e-15 0)
(1 7.75748e-16 0)
(1 4.21604e-15 0)
(1 1.196e-15 0)
(1 -3.14551e-16 0)
(1 1.07247e-15 0)
(1 -2.42098e-15 0)
(1 -3.07173e-15 0)
(1 -6.12335e-15 0)
(1 7.83846e-16 0)
(1 6.94568e-15 0)
(1 1.62878e-15 0)
(1 -9.21373e-16 0)
(1 -5.63167e-15 0)
(1 7.8709e-16 0)
(1 -3.89549e-16 0)
(1 6.02753e-16 0)
(1 3.07763e-15 0)
(1 2.44005e-15 0)
(1 2.70908e-15 0)
(1 -5.8427e-16 0)
(1 -1.65706e-15 0)
(1 1.48905e-15 0)
(1 9.84789e-16 0)
(1 1.78973e-15 0)
(1 -1.79932e-15 0)
(1 3.07673e-15 0)
(1 1.68283e-15 0)
(1 1.26364e-15 0)
(1 1.4454e-15 0)
(1 -5.07083e-15 0)
(1 -5.23424e-15 0)
(1 3.30623e-15 0)
(1 7.51461e-15 0)
(1 4.54042e-15 0)
(1 -3.54784e-15 0)
(1 -3.88972e-15 0)
(1 -1.15326e-15 0)
(1 -8.47212e-16 0)
(1 3.6005e-15 0)
(1 -1.28656e-15 0)
(1 -1.51828e-15 0)
(1 4.48312e-17 0)
(1 5.23501e-15 0)
(1 -3.2626e-15 0)
(1 3.04108e-15 0)
(1 -4.20166e-15 0)
(1 -5.73274e-15 0)
(1 -4.98607e-15 0)
(1 3.97616e-15 0)
(1 -4.46428e-15 0)
(1 1.51548e-15 0)
(1 -3.88714e-15 0)
(1 4.1146e-15 0)
(1 -1.10838e-15 0)
(1 7.33409e-16 0)
(1 1.00837e-14 0)
(1 4.79144e-15 0)
(1 -1.8859e-15 0)
(1 2.06504e-15 0)
(1 4.48202e-15 0)
(1 -2.55715e-15 0)
(1 1.09957e-15 0)
(1 -8.22904e-15 0)
(1 -5.63184e-15 0)
(1 4.129e-16 0)
(1 4.52792e-15 0)
(1 8.61233e-16 0)
(1 2.72466e-15 0)
(1 1.26368e-15 0)
(1 2.13876e-15 0)
(1 4.727e-15 0)
(1 1.53126e-15 0)
(1 -2.71916e-15 0)
(1 -2.91454e-15 0)
(1 4.29981e-15 0)
(1 3.89576e-15 0)
(1 1.05759e-15 0)
(1 2.67622e-15 0)
(1 -4.71465e-15 0)
(1 1.15714e-15 0)
(1 -7.63496e-15 0)
(1 -2.68208e-15 0)
(1 -1.11134e-15 0)
(1 -3.81811e-15 0)
(1 1.51365e-15 0)
(1 -2.85934e-15 0)
(1 -2.51394e-15 0)
(1 -5.64981e-16 0)
(1 2.23323e-15 0)
(1 3.64512e-15 0)
(1 4.85502e-15 0)
(1 2.9486e-15 0)
(1 5.36311e-15 0)
(1 5.6399e-15 0)
(1 -5.66689e-15 0)
(1 1.95425e-16 0)
(1 -3.18085e-15 0)
(1 2.13384e-15 0)
(1 4.60109e-15 0)
(1 5.37614e-15 0)
(1 1.02661e-15 0)
(1 3.05153e-15 0)
(1 1.22591e-15 0)
(1 9.0337e-16 0)
(1 -2.66737e-15 0)
(1 -4.49405e-15 0)
(1 -3.1973e-15 0)
(1 -1.70345e-15 0)
(1 2.56861e-15 0)
(1 8.62249e-15 0)
(1 1.19533e-15 0)
(1 -4.57246e-15 0)
(1 -1.61613e-15 0)
(1 -7.20718e-18 0)
(1 -4.39305e-15 0)
(1 3.57972e-16 0)
(1 5.11621e-16 0)
(1 1.05338e-15 0)
(1 1.20138e-15 0)
(1 4.02979e-15 0)
(1 -2.96868e-15 0)
(1 -3.32726e-15 0)
(1 -3.06573e-15 0)
(1 -2.7711e-15 0)
(1 -5.19924e-16 0)
(1 1.75633e-15 0)
(1 -4.18113e-16 0)
(1 1.04183e-15 0)
(1 -4.67528e-16 0)
(1 -3.84138e-15 0)
(1 -1.84914e-15 0)
(1 1.9466e-15 0)
(1 8.074e-16 0)
(1 3.19236e-15 0)
(1 -1.63916e-15 0)
(1 -2.75096e-15 0)
(1 1.13955e-15 0)
(1 9.01737e-16 0)
(1 2.9466e-15 0)
(1 3.79664e-15 0)
(1 -3.6151e-16 0)
(1 4.91885e-16 0)
(1 1.79558e-15 0)
(1 -2.44684e-15 0)
(1 2.54386e-16 0)
(1 -5.68816e-15 0)
(1 -4.00089e-15 0)
(1 -4.02049e-16 0)
(1 -6.62682e-15 0)
(1 -4.58905e-15 0)
(1 -5.93411e-15 0)
(1 1.36927e-15 0)
(1 1.18768e-14 0)
(1 4.83341e-15 0)
(1 1.38296e-15 0)
(1 6.43844e-15 0)
(1 -3.39196e-16 0)
(1 1.48344e-15 0)
(1 -3.85858e-15 0)
(1 6.28423e-15 0)
(1 7.05427e-15 0)
(1 4.44302e-15 0)
(1 2.3724e-15 0)
(1 -9.33172e-15 0)
(1 -2.76432e-15 0)
(1 -8.71866e-17 0)
(1 1.66154e-15 0)
(1 1.26031e-14 0)
(1 -2.90849e-15 0)
(1 -1.17077e-15 0)
(1 8.18369e-15 0)
(1 8.5087e-15 0)
(1 1.3286e-14 0)
(1 3.2393e-15 0)
(1 6.35162e-15 0)
(1 2.11473e-15 0)
(1 -4.29627e-15 0)
(1 -7.90496e-15 0)
(1 -1.14507e-14 0)
(1 2.07892e-15 0)
(1 -9.2259e-15 0)
(1 6.50219e-18 0)
(1 -9.31937e-15 0)
(1 1.70096e-15 0)
(1 -1.61469e-15 0)
(1 4.28867e-15 0)
(1 3.29148e-16 0)
(1 5.44465e-15 0)
(1 -2.23444e-15 0)
(1 -3.13144e-15 0)
(1 -4.22947e-15 0)
(1 6.54807e-15 0)
(1 8.55787e-15 0)
(1 9.08829e-15 0)
(1 1.78249e-15 0)
(1 6.70028e-16 0)
(1 2.37685e-15 0)
(1 4.03008e-15 0)
(1 4.92497e-15 0)
(1 7.30919e-15 0)
(1 7.56365e-15 0)
(1 -5.42039e-15 0)
(1 -6.03246e-15 0)
(1 -1.27989e-15 0)
(1 1.52567e-15 0)
(1 8.75953e-16 0)
(1 -1.56316e-15 0)
(1 2.07135e-15 0)
(1 1.98308e-15 0)
(1 2.96535e-15 0)
(1 -2.6488e-15 0)
(1 1.31467e-15 0)
(1 3.52547e-15 0)
(1 -3.5175e-15 0)
(1 -4.21542e-15 0)
(1 -1.78731e-15 0)
(1 -4.43692e-15 0)
(1 -3.81648e-15 0)
(1 1.88127e-15 0)
(1 2.87677e-15 0)
(1 -1.1124e-14 0)
(1 -9.90807e-15 0)
(1 -1.11766e-15 0)
(1 -3.75949e-15 0)
(1 -7.8151e-16 0)
(1 1.38587e-15 0)
(1 -2.75733e-16 0)
(1 2.9039e-15 0)
(1 1.73188e-15 0)
(1 -5.35313e-16 0)
(1 -4.37921e-15 0)
(1 -1.185e-15 0)
(1 3.27374e-15 0)
(1 6.81441e-15 0)
(1 9.04931e-15 0)
(1 3.20829e-15 0)
(1 3.3765e-15 0)
(1 4.34568e-15 0)
(1 3.14266e-15 0)
(1 3.80406e-15 0)
(1 3.91848e-16 0)
(1 -2.96343e-16 0)
(1 -5.15431e-15 0)
(1 -5.5364e-15 0)
(1 -8.2069e-15 0)
(1 -4.52729e-15 0)
(1 1.15798e-15 0)
(1 4.59796e-15 0)
(1 -2.87564e-15 0)
(1 1.81215e-16 0)
(1 -2.82788e-15 0)
(1 2.89845e-15 0)
(1 2.697e-15 0)
(1 -2.54728e-15 0)
(1 -3.55268e-15 0)
(1 -6.08769e-15 0)
(1 -1.80704e-15 0)
(1 1.30885e-14 0)
(1 -2.66249e-15 0)
(1 6.9975e-15 0)
(1 -1.89933e-16 0)
(1 5.87008e-15 0)
(1 2.06211e-15 0)
(1 -4.7455e-16 0)
(1 -4.65682e-15 0)
(1 -3.59247e-15 0)
(1 -1.00771e-15 0)
(1 3.7841e-15 0)
(1 -7.08617e-15 0)
(1 -2.51721e-15 0)
(1 6.93516e-15 0)
(1 8.59239e-15 0)
(1 7.9488e-15 0)
(1 5.9243e-15 0)
(1 5.38334e-15 0)
(1 5.02037e-15 0)
(1 6.52057e-15 0)
(1 1.2184e-16 0)
(1 -1.05012e-15 0)
(1 -1.78977e-15 0)
(1 -5.6582e-15 0)
(1 -8.86533e-15 0)
(1 -1.49711e-14 0)
(1 -4.41392e-15 0)
(1 -2.53435e-15 0)
(1 1.13965e-15 0)
(1 3.56734e-15 0)
(1 1.49372e-16 0)
(1 -3.37634e-15 0)
(1 -2.29812e-16 0)
(1 -3.78975e-15 0)
(1 2.44798e-17 0)
(1 2.06994e-16 0)
(1 2.71284e-15 0)
(1 6.92234e-15 0)
(1 1.17542e-15 0)
(1 7.51596e-15 0)
(1 2.08739e-15 0)
(1 3.88432e-15 0)
(1 2.68011e-15 0)
(1 2.04374e-15 0)
(1 -2.20538e-15 0)
(1 -2.09761e-15 0)
(1 1.44294e-15 0)
(1 -2.64006e-15 0)
(1 4.82819e-16 0)
(1 7.66567e-17 0)
(1 3.07321e-15 0)
(1 3.45438e-15 0)
(1 1.56934e-15 0)
(1 6.48337e-15 0)
(1 9.71164e-15 0)
(1 5.32306e-15 0)
(1 7.81297e-16 0)
(1 -3.93098e-15 0)
(1 2.21075e-15 0)
(1 -5.83433e-15 0)
(1 -3.17793e-15 0)
(1 -1.88419e-16 0)
(1 1.27968e-15 0)
(1 -4.94224e-15 0)
(1 -6.45888e-16 0)
(1 -7.25031e-16 0)
(1 -5.72881e-15 0)
(1 -1.7127e-15 0)
(1 4.7657e-15 0)
(1 1.90394e-15 0)
(1 1.78258e-15 0)
(1 -2.23256e-15 0)
(1 -6.89416e-16 0)
(1 2.3734e-15 0)
(1 2.45115e-15 0)
(1 3.79795e-15 0)
(1 6.47535e-15 0)
(1 2.5817e-15 0)
(1 4.65337e-15 0)
(1 1.72562e-15 0)
(1 5.03081e-15 0)
(1 1.51029e-15 0)
(1 3.70887e-15 0)
(1 5.2743e-15 0)
(1 2.67098e-16 0)
(1 -3.6993e-15 0)
(1 -5.30109e-15 0)
(1 -4.44972e-15 0)
(1 2.44483e-15 0)
(1 5.39269e-15 0)
(1 -1.51939e-15 0)
(1 5.31983e-15 0)
(1 -2.2602e-16 0)
(1 2.58455e-15 0)
(1 -7.19477e-15 0)
(1 -4.32094e-15 0)
(1 1.47747e-15 0)
(1 -3.74466e-15 0)
(1 -1.55041e-16 0)
(1 1.10367e-15 0)
(1 7.30994e-15 0)
(1 1.1858e-14 0)
(1 8.35391e-15 0)
(1 -5.08571e-15 0)
(1 -1.45683e-15 0)
(1 -5.8827e-15 0)
(1 5.93526e-15 0)
(1 -1.68531e-15 0)
(1 -5.5034e-15 0)
(1 -7.76289e-15 0)
(1 -5.80276e-15 0)
(1 1.13305e-14 0)
(1 1.24336e-14 0)
(1 9.16886e-15 0)
(1 3.65578e-15 0)
(1 5.29778e-15 0)
(1 1.80068e-15 0)
(1 5.0346e-15 0)
(1 5.67549e-15 0)
(1 6.19859e-15 0)
(1 -3.73621e-15 0)
(1 1.40472e-15 0)
(1 -3.70108e-15 0)
(1 -3.5822e-15 0)
(1 -5.11064e-15 0)
(1 -3.81483e-15 0)
(1 -4.96216e-15 0)
(1 -1.14692e-15 0)
(1 -6.51118e-15 0)
(1 4.96397e-15 0)
(1 1.19328e-16 0)
(1 4.60256e-15 0)
(1 3.24418e-15 0)
(1 4.93398e-15 0)
(1 -1.14692e-15 0)
(1 2.02813e-15 0)
(1 3.12787e-15 0)
(1 3.80198e-15 0)
(1 4.86464e-15 0)
(1 5.51804e-15 0)
(1 1.72188e-15 0)
(1 6.80104e-15 0)
(1 7.11725e-15 0)
(1 7.06316e-15 0)
(1 -6.54006e-16 0)
(1 -4.43259e-15 0)
(1 -5.39827e-15 0)
(1 -4.62639e-15 0)
(1 -9.89257e-16 0)
(1 9.30295e-15 0)
(1 6.6474e-15 0)
(1 -2.34103e-16 0)
(1 1.88081e-16 0)
(1 9.15665e-15 0)
(1 -1.71144e-16 0)
(1 4.92737e-15 0)
(1 9.09731e-15 0)
(1 1.04723e-14 0)
(1 1.44643e-14 0)
(1 1.20322e-14 0)
(1 8.5989e-15 0)
(1 -2.99968e-15 0)
(1 -5.21355e-15 0)
(1 -5.49971e-15 0)
(1 -3.75362e-15 0)
(1 -7.40835e-15 0)
(1 -6.9476e-15 0)
(1 -6.24455e-16 0)
(1 3.1997e-15 0)
(1 3.51116e-15 0)
(1 -3.99227e-18 0)
(1 2.60757e-15 0)
(1 1.24008e-16 0)
(1 1.42496e-15 0)
(1 -4.74075e-15 0)
(1 -4.14465e-15 0)
(1 -2.28876e-15 0)
(1 -5.0173e-16 0)
(1 5.02612e-15 0)
(1 4.91688e-15 0)
(1 -7.28143e-16 0)
(1 5.50391e-15 0)
(1 5.12561e-15 0)
(1 7.97405e-15 0)
(1 2.80401e-15 0)
(1 2.48923e-15 0)
(1 4.77753e-15 0)
(1 2.50873e-15 0)
(1 1.06888e-14 0)
(1 8.55484e-15 0)
(1 -1.14923e-15 0)
(1 1.50834e-15 0)
(1 4.29992e-15 0)
(1 6.90718e-15 0)
(1 -1.55506e-15 0)
(1 -1.9401e-15 0)
(1 1.76865e-15 0)
(1 -2.79797e-15 0)
(1 3.23192e-15 0)
(1 4.32125e-15 0)
(1 -4.4754e-15 0)
(1 3.22644e-15 0)
(1 -4.88079e-15 0)
(1 -7.39152e-16 0)
(1 -4.01986e-15 0)
(1 2.42094e-15 0)
(1 3.28908e-15 0)
(1 9.18481e-16 0)
(1 5.26593e-16 0)
(1 3.18654e-15 0)
(1 4.97235e-15 0)
(1 1.02194e-14 0)
(1 -7.66005e-16 0)
(1 -9.90833e-15 0)
(1 -7.36477e-15 0)
(1 2.28485e-15 0)
(1 2.25821e-15 0)
(1 5.47755e-15 0)
(1 1.17626e-14 0)
(1 6.6304e-15 0)
(1 2.54388e-15 0)
(1 1.87363e-15 0)
(1 1.10372e-15 0)
(1 -5.86815e-15 0)
(1 -8.15563e-15 0)
(1 -6.32572e-16 0)
(1 -3.51804e-16 0)
(1 -2.55023e-15 0)
(1 -1.58928e-15 0)
(1 4.43966e-15 0)
(1 9.61839e-15 0)
(1 1.54669e-14 0)
(1 2.13777e-15 0)
(1 5.77455e-15 0)
(1 -5.93077e-15 0)
(1 -4.59774e-15 0)
(1 -3.44321e-15 0)
(1 6.49659e-15 0)
(1 4.6043e-15 0)
(1 -3.35009e-16 0)
(1 3.48005e-15 0)
(1 2.71115e-15 0)
(1 5.60377e-15 0)
(1 6.1642e-16 0)
(1 -1.25771e-15 0)
(1 -3.47014e-15 0)
(1 1.60663e-15 0)
(1 2.61593e-15 0)
(1 3.11998e-16 0)
(1 3.2507e-15 0)
(1 5.52728e-15 0)
(1 2.33943e-15 0)
(1 8.2994e-15 0)
(1 3.98734e-15 0)
(1 -1.40406e-15 0)
(1 9.66267e-17 0)
(1 2.60839e-15 0)
(1 9.39244e-15 0)
(1 4.69576e-15 0)
(1 1.02878e-14 0)
(1 3.65143e-15 0)
(1 -4.51886e-15 0)
(1 -8.58687e-15 0)
(1 2.63542e-17 0)
(1 3.03036e-15 0)
(1 4.78653e-15 0)
(1 5.00163e-15 0)
(1 1.97669e-16 0)
(1 4.07804e-15 0)
(1 2.55939e-15 0)
(1 3.24739e-15 0)
(1 -3.22007e-16 0)
(1 9.9607e-16 0)
(1 -1.26404e-15 0)
(1 -2.01521e-15 0)
(1 6.09385e-15 0)
(1 6.2852e-15 0)
(1 8.01864e-15 0)
(1 5.53282e-15 0)
(1 4.26684e-15 0)
(1 -1.2525e-16 0)
(1 8.50382e-15 0)
(1 6.39823e-15 0)
(1 9.44491e-15 0)
(1 3.30633e-15 0)
(1 7.60625e-15 0)
(1 8.37715e-15 0)
(1 8.76669e-15 0)
(1 6.20115e-15 0)
(1 7.89345e-15 0)
(1 9.07116e-16 0)
(1 -1.55564e-15 0)
(1 -1.25123e-15 0)
(1 -1.55162e-15 0)
(1 3.60573e-15 0)
(1 7.18279e-16 0)
(1 -4.03567e-16 0)
(1 -1.49913e-15 0)
(1 -3.48877e-15 0)
(1 4.04655e-15 0)
(1 -6.62475e-15 0)
(1 1.79704e-15 0)
(1 1.32136e-15 0)
(1 7.69413e-15 0)
(1 -3.20136e-16 0)
(1 6.62988e-15 0)
(1 1.76754e-15 0)
(1 1.14672e-14 0)
(1 -5.66674e-18 0)
(1 2.8383e-15 0)
(1 -1.63338e-16 0)
(1 -1.03624e-14 0)
(1 -1.00096e-14 0)
(1 -1.17158e-14 0)
(1 -3.93875e-15 0)
(1 3.28095e-16 0)
(1 7.85588e-15 0)
(1 3.49961e-15 0)
(1 1.21579e-14 0)
(1 4.11864e-15 0)
(1 1.15789e-14 0)
(1 -9.12567e-16 0)
(1 -6.4362e-15 0)
(1 -1.3817e-15 0)
(1 -1.80421e-15 0)
(1 7.91269e-16 0)
(1 5.63588e-15 0)
(1 -9.41248e-16 0)
(1 1.10203e-15 0)
(1 2.2402e-15 0)
(1 2.84455e-15 0)
(1 -9.47826e-15 0)
(1 -7.76382e-15 0)
(1 -5.83694e-15 0)
(1 3.11942e-15 0)
(1 4.7226e-15 0)
(1 6.72749e-15 0)
(1 8.86624e-15 0)
(1 6.47782e-15 0)
(1 3.45789e-15 0)
(1 7.86964e-15 0)
(1 1.21516e-15 0)
(1 6.90404e-15 0)
(1 -1.36984e-15 0)
(1 9.25408e-15 0)
(1 2.98356e-15 0)
(1 5.80361e-15 0)
(1 3.92371e-16 0)
(1 -4.29874e-15 0)
(1 -7.19861e-15 0)
(1 2.02649e-15 0)
(1 1.01477e-14 0)
(1 1.07985e-14 0)
(1 8.66977e-15 0)
(1 7.87805e-15 0)
(1 7.21674e-15 0)
(1 6.56343e-15 0)
(1 2.92576e-15 0)
(1 2.69061e-15 0)
(1 9.10882e-16 0)
(1 1.15883e-15 0)
(1 4.34796e-15 0)
(1 6.83445e-16 0)
(1 2.80991e-15 0)
(1 5.25752e-15 0)
(1 4.78506e-15 0)
(1 3.13211e-15 0)
(1 -3.18089e-17 0)
(1 2.65376e-16 0)
(1 -1.33912e-15 0)
(1 1.55507e-15 0)
(1 -3.52337e-15 0)
(1 -8.57607e-16 0)
(1 2.09553e-15 0)
(1 4.73864e-15 0)
(1 5.78182e-15 0)
(1 1.8811e-15 0)
(1 8.36974e-16 0)
(1 5.37491e-15 0)
(1 4.5124e-17 0)
(1 1.47421e-15 0)
(1 1.94473e-15 0)
(1 1.9717e-15 0)
(1 9.30752e-15 0)
(1 9.68097e-15 0)
(1 1.15535e-14 0)
(1 1.0377e-14 0)
(1 1.30762e-14 0)
(1 8.59819e-15 0)
(1 1.17001e-14 0)
(1 -2.03016e-15 0)
(1 -4.24969e-15 0)
(1 -4.468e-15 0)
(1 -9.458e-15 0)
(1 5.95614e-16 0)
(1 5.23169e-15 0)
(1 6.7742e-15 0)
(1 3.22757e-15 0)
(1 -1.52978e-15 0)
(1 -2.2062e-15 0)
(1 -8.65272e-15 0)
(1 3.14951e-15 0)
(1 8.94853e-15 0)
(1 1.22555e-14 0)
(1 1.17145e-15 0)
(1 5.93689e-15 0)
(1 -1.58127e-15 0)
(1 8.42602e-15 0)
(1 -2.18403e-15 0)
(1 -3.72668e-15 0)
(1 -9.84984e-15 0)
(1 1.28372e-15 0)
(1 5.01411e-15 0)
(1 1.41996e-15 0)
(1 -1.21344e-15 0)
(1 1.77999e-15 0)
(1 1.5543e-15 0)
(1 2.35391e-15 0)
(1 3.21778e-15 0)
(1 1.50103e-15 0)
(1 -4.12565e-15 0)
(1 -3.69423e-15 0)
(1 -1.37054e-14 0)
(1 -4.24864e-15 0)
(1 7.7693e-16 0)
(1 6.74074e-15 0)
(1 5.87142e-15 0)
(1 5.69348e-15 0)
(1 6.38313e-16 0)
(1 -3.32129e-16 0)
(1 -5.16634e-15 0)
(1 -8.37578e-15 0)
(1 3.5766e-17 0)
(1 1.27744e-15 0)
(1 1.72444e-14 0)
(1 1.37143e-14 0)
(1 7.82581e-15 0)
(1 2.76397e-15 0)
(1 7.04718e-15 0)
(1 6.6162e-16 0)
(1 3.41155e-15 0)
(1 2.76453e-15 0)
(1 9.50196e-15 0)
(1 1.09512e-14 0)
(1 6.79592e-15 0)
(1 4.20076e-15 0)
(1 -3.21832e-15 0)
(1 -6.07067e-16 0)
(1 3.6676e-15 0)
(1 -4.80887e-15 0)
(1 -6.27083e-16 0)
(1 -4.17004e-16 0)
(1 8.98714e-16 0)
(1 -2.69113e-15 0)
(1 6.68282e-15 0)
(1 1.8453e-15 0)
(1 1.33475e-14 0)
(1 1.61519e-14 0)
(1 1.58543e-14 0)
(1 1.97659e-14 0)
(1 5.79308e-15 0)
(1 7.93312e-15 0)
(1 8.6574e-15 0)
(1 3.71029e-15 0)
(1 2.56731e-15 0)
(1 -3.25157e-15 0)
(1 1.42584e-15 0)
(1 3.16154e-15 0)
(1 7.65958e-16 0)
(1 3.97666e-16 0)
(1 4.33032e-15 0)
(1 2.50335e-15 0)
(1 4.36067e-15 0)
(1 -1.62844e-15 0)
(1 1.23624e-15 0)
(1 3.13052e-17 0)
(1 -6.73854e-16 0)
(1 3.20714e-15 0)
(1 1.88434e-15 0)
(1 -2.0748e-15 0)
(1 -1.14069e-15 0)
(1 9.13607e-16 0)
(1 5.45872e-15 0)
(1 1.05765e-14 0)
(1 1.36999e-14 0)
(1 1.71077e-14 0)
(1 2.05066e-14 0)
(1 2.07488e-14 0)
(1 2.35259e-14 0)
(1 2.04373e-14 0)
(1 2.63874e-16 0)
(1 7.85017e-16 0)
(1 4.9551e-15 0)
(1 2.25929e-15 0)
(1 1.98572e-17 0)
(1 -2.86128e-15 0)
(1 3.09192e-16 0)
(1 -8.81456e-16 0)
(1 6.40392e-15 0)
(1 -2.39624e-15 0)
(1 8.13165e-16 0)
(1 -6.62719e-15 0)
(1 7.77419e-15 0)
(1 -5.1102e-15 0)
(1 -8.87989e-16 0)
(1 -3.37854e-15 0)
(1 -9.49709e-16 0)
(1 4.8088e-15 0)
(1 4.93711e-15 0)
(1 3.30672e-16 0)
(1 -1.16003e-14 0)
(1 -1.15361e-15 0)
(1 -5.87073e-16 0)
(1 4.51475e-15 0)
(1 2.71703e-15 0)
(1 7.63187e-15 0)
(1 6.75388e-15 0)
(1 4.14548e-15 0)
(1 -1.96014e-15 0)
(1 1.93235e-15 0)
(1 -2.10469e-15 0)
(1 8.78145e-15 0)
(1 -2.77557e-15 0)
(1 -2.1729e-15 0)
(1 -6.72939e-15 0)
(1 1.96617e-15 0)
(1 -7.44939e-15 0)
(1 1.53366e-15 0)
(1 6.36708e-15 0)
(1 -7.71473e-16 0)
(1 -7.95981e-15 0)
(1 1.20601e-15 0)
(1 4.39139e-15 0)
(1 2.93443e-15 0)
(1 -1.08711e-15 0)
(1 4.77129e-15 0)
(1 5.36291e-15 0)
(1 7.34704e-15 0)
(1 6.64716e-15 0)
(1 2.49124e-15 0)
(1 5.59109e-15 0)
(1 2.39053e-15 0)
(1 5.04392e-15 0)
(1 4.04042e-15 0)
(1 4.60418e-15 0)
(1 7.8494e-15 0)
(1 2.31593e-15 0)
(1 9.21118e-15 0)
(1 5.92156e-15 0)
(1 3.44707e-16 0)
(1 2.96335e-15 0)
(1 4.77949e-15 0)
(1 5.10065e-15 0)
(1 9.72575e-16 0)
(1 5.35681e-15 0)
(1 3.17616e-15 0)
(1 1.13191e-14 0)
(1 2.19859e-14 0)
(1 1.62528e-14 0)
(1 1.05741e-14 0)
(1 2.58663e-15 0)
(1 8.27465e-15 0)
(1 5.144e-16 0)
(1 3.03174e-15 0)
(1 8.42054e-16 0)
(1 4.46571e-15 0)
(1 1.20825e-14 0)
(1 3.47105e-15 0)
(1 3.23136e-15 0)
(1 2.8602e-15 0)
(1 5.02503e-15 0)
(1 -1.28192e-15 0)
(1 -3.70894e-15 0)
(1 3.96671e-16 0)
(1 2.62158e-15 0)
(1 2.11485e-15 0)
(1 7.00896e-15 0)
(1 8.19963e-15 0)
(1 1.69507e-15 0)
(1 -4.89256e-16 0)
(1 5.76973e-16 0)
(1 4.83052e-15 0)
(1 1.25017e-14 0)
(1 1.21072e-14 0)
(1 1.47624e-14 0)
(1 1.00946e-14 0)
(1 1.44385e-14 0)
(1 1.43986e-14 0)
(1 2.83357e-14 0)
(1 2.49076e-14 0)
(1 5.6491e-16 0)
(1 1.23368e-15 0)
(1 -4.54295e-15 0)
(1 2.16792e-15 0)
(1 -4.57595e-15 0)
(1 -3.7342e-15 0)
(1 -4.65325e-15 0)
(1 2.9524e-16 0)
(1 1.32014e-15 0)
(1 2.80713e-15 0)
(1 7.76211e-15 0)
(1 -2.48558e-15 0)
(1 -4.80655e-15 0)
(1 -9.14868e-15 0)
(1 9.96197e-16 0)
(1 -4.7486e-15 0)
(1 7.19342e-15 0)
(1 5.0351e-15 0)
(1 1.23337e-14 0)
(1 3.10795e-15 0)
(1 5.27243e-15 0)
(1 -2.35473e-15 0)
(1 -5.73856e-15 0)
(1 -9.86717e-17 0)
(1 -2.48365e-15 0)
(1 -7.58188e-15 0)
(1 -2.21989e-15 0)
(1 -4.04081e-15 0)
(1 -6.78099e-15 0)
(1 -4.86911e-15 0)
(1 6.15331e-15 0)
(1 1.11021e-14 0)
(1 4.59515e-15 0)
(1 -1.02296e-15 0)
(1 -3.13358e-15 0)
(1 3.11921e-15 0)
(1 -6.80312e-15 0)
(1 1.23564e-15 0)
(1 3.13108e-15 0)
(1 -4.09782e-15 0)
(1 -6.13987e-15 0)
(1 -3.97427e-15 0)
(1 -4.77752e-16 0)
(1 8.59272e-16 0)
(1 -2.58363e-15 0)
(1 -5.25586e-16 0)
(1 1.29939e-14 0)
(1 2.50843e-15 0)
(1 1.13244e-14 0)
(1 1.44438e-14 0)
(1 1.40993e-14 0)
(1 6.9771e-15 0)
(1 5.51337e-15 0)
(1 1.17431e-15 0)
(1 1.33165e-15 0)
(1 3.18542e-16 0)
(1 2.30693e-15 0)
(1 5.08244e-15 0)
(1 1.32612e-15 0)
(1 4.2284e-15 0)
(1 4.49568e-15 0)
(1 5.07784e-15 0)
(1 2.64805e-15 0)
(1 3.09772e-15 0)
(1 7.10123e-15 0)
(1 1.2478e-14 0)
(1 6.01168e-15 0)
(1 5.26442e-15 0)
(1 1.1369e-14 0)
(1 1.10456e-15 0)
(1 1.23297e-14 0)
(1 1.33368e-14 0)
(1 4.43168e-15 0)
(1 6.25278e-15 0)
(1 6.9114e-15 0)
(1 8.15278e-15 0)
(1 1.12858e-14 0)
(1 1.21956e-14 0)
(1 6.79492e-15 0)
(1 3.2161e-15 0)
(1 -3.08222e-15 0)
(1 -1.28066e-15 0)
(1 -1.77673e-15 0)
(1 3.41988e-15 0)
(1 2.63244e-15 0)
(1 -1.17744e-15 0)
(1 2.9292e-15 0)
(1 2.33708e-15 0)
(1 5.23788e-15 0)
(1 5.40664e-16 0)
(1 2.03162e-15 0)
(1 -2.4993e-16 0)
(1 1.0267e-14 0)
(1 5.95467e-15 0)
(1 1.52152e-14 0)
(1 7.0968e-15 0)
(1 9.5299e-15 0)
(1 9.9893e-15 0)
(1 2.20052e-14 0)
(1 2.32447e-14 0)
(1 2.57229e-15 0)
(1 -3.86832e-15 0)
(1 5.92968e-16 0)
(1 2.61762e-15 0)
(1 -4.35019e-15 0)
(1 -1.4065e-15 0)
(1 -3.22567e-15 0)
(1 5.95349e-15 0)
(1 -1.54952e-15 0)
(1 5.34596e-15 0)
(1 3.44884e-15 0)
(1 4.63535e-15 0)
(1 -3.30783e-15 0)
(1 -4.45235e-15 0)
(1 2.21135e-15 0)
(1 -6.3608e-15 0)
(1 9.83952e-16 0)
(1 -6.95576e-15 0)
(1 1.97881e-15 0)
(1 -1.18598e-14 0)
(1 5.57597e-15 0)
(1 5.13545e-15 0)
(1 1.29218e-14 0)
(1 7.38438e-15 0)
(1 2.82928e-15 0)
(1 -6.35483e-15 0)
(1 6.90653e-16 0)
(1 6.342e-15 0)
(1 1.17628e-15 0)
(1 3.27377e-15 0)
(1 -4.68429e-15 0)
(1 -3.84468e-15 0)
(1 2.86187e-15 0)
(1 -1.09712e-15 0)
(1 -2.4347e-15 0)
(1 -5.50082e-15 0)
(1 8.59235e-16 0)
(1 4.41147e-16 0)
(1 9.45195e-16 0)
(1 -7.62283e-15 0)
(1 -5.77329e-16 0)
(1 3.29032e-15 0)
(1 -2.15046e-15 0)
(1 9.92862e-16 0)
(1 -1.64431e-15 0)
(1 2.44257e-15 0)
(1 6.80499e-15 0)
(1 1.34968e-14 0)
(1 1.36911e-14 0)
(1 1.60268e-14 0)
(1 4.30761e-15 0)
(1 3.96362e-15 0)
(1 -1.32551e-15 0)
(1 1.344e-15 0)
(1 3.15418e-15 0)
(1 1.65225e-15 0)
(1 -3.28319e-15 0)
(1 -4.02369e-15 0)
(1 8.59741e-15 0)
(1 1.15758e-14 0)
(1 1.18571e-14 0)
(1 5.94321e-16 0)
(1 5.56864e-15 0)
(1 -1.59736e-16 0)
(1 1.15816e-14 0)
(1 6.51974e-15 0)
(1 5.6878e-15 0)
(1 1.9309e-15 0)
(1 3.55033e-15 0)
(1 9.02328e-15 0)
(1 1.24565e-14 0)
(1 1.08552e-14 0)
(1 8.86452e-15 0)
(1 8.22116e-15 0)
(1 6.79653e-15 0)
(1 8.91693e-16 0)
(1 7.73089e-16 0)
(1 3.61266e-15 0)
(1 1.7321e-15 0)
(1 7.27155e-15 0)
(1 3.27767e-15 0)
(1 7.38182e-15 0)
(1 1.19891e-14 0)
(1 -1.58912e-16 0)
(1 -6.07369e-16 0)
(1 -9.01662e-17 0)
(1 2.50181e-15 0)
(1 2.36644e-15 0)
(1 7.35049e-15 0)
(1 4.68391e-15 0)
(1 5.4781e-15 0)
(1 -1.12721e-15 0)
(1 1.05426e-14 0)
(1 6.73545e-15 0)
(1 6.66672e-15 0)
(1 1.03537e-14 0)
(1 1.01744e-14 0)
(1 1.37905e-14 0)
(1 1.40936e-14 0)
(1 1.84646e-14 0)
(1 4.20954e-15 0)
(1 -1.55115e-15 0)
(1 -1.79319e-15 0)
(1 -1.01085e-15 0)
(1 -4.39569e-15 0)
(1 -3.50029e-15 0)
(1 -4.12215e-15 0)
(1 5.04797e-15 0)
(1 -2.50919e-15 0)
(1 -5.42832e-16 0)
(1 7.26676e-15 0)
(1 6.79934e-15 0)
(1 -1.03643e-16 0)
(1 1.60209e-15 0)
(1 -4.32123e-15 0)
(1 -2.07772e-15 0)
(1 -6.11827e-15 0)
(1 9.61066e-15 0)
(1 3.49656e-15 0)
(1 1.49826e-14 0)
(1 4.27422e-15 0)
(1 -5.80414e-15 0)
(1 -3.99506e-15 0)
(1 -9.50541e-15 0)
(1 -7.84387e-15 0)
(1 -6.87678e-15 0)
(1 2.12381e-16 0)
(1 -1.23214e-16 0)
(1 5.45776e-16 0)
(1 2.43033e-15 0)
(1 -5.03648e-15 0)
(1 -6.61474e-15 0)
(1 1.70571e-15 0)
(1 4.21461e-15 0)
(1 5.89665e-15 0)
(1 7.05948e-16 0)
(1 8.0657e-15 0)
(1 -4.98837e-15 0)
(1 -4.45665e-15 0)
(1 -3.52536e-15 0)
(1 8.07336e-16 0)
(1 3.84669e-16 0)
(1 -1.08003e-14 0)
(1 -7.1601e-15 0)
(1 -1.40302e-16 0)
(1 1.0161e-14 0)
(1 8.08089e-15 0)
(1 2.73672e-14 0)
(1 1.54559e-14 0)
(1 1.14816e-14 0)
(1 1.29646e-15 0)
(1 2.65012e-15 0)
(1 -6.21164e-15 0)
(1 -1.76504e-15 0)
(1 2.55654e-16 0)
(1 1.68465e-15 0)
(1 3.5251e-15 0)
(1 3.88473e-15 0)
(1 -2.53405e-15 0)
(1 -4.90406e-15 0)
(1 -6.6856e-15 0)
(1 4.89314e-16 0)
(1 8.05391e-15 0)
(1 1.56966e-14 0)
(1 9.71073e-15 0)
(1 9.57387e-15 0)
(1 6.30209e-15 0)
(1 6.18238e-15 0)
(1 -2.41548e-15 0)
(1 3.62219e-15 0)
(1 5.5556e-15 0)
(1 -1.09031e-15 0)
(1 1.13334e-14 0)
(1 5.33655e-15 0)
(1 3.08779e-15 0)
(1 4.46262e-15 0)
(1 2.01023e-15 0)
(1 -9.51956e-18 0)
(1 -3.41797e-16 0)
(1 9.60933e-15 0)
(1 9.23474e-15 0)
(1 1.07882e-14 0)
(1 4.07722e-15 0)
(1 4.23124e-15 0)
(1 3.23023e-15 0)
(1 4.9609e-15 0)
(1 3.64508e-15 0)
(1 6.87429e-15 0)
(1 2.97509e-15 0)
(1 6.53854e-15 0)
(1 6.13895e-15 0)
(1 2.1878e-15 0)
(1 1.03866e-15 0)
(1 4.62326e-15 0)
(1 -1.98702e-15 0)
(1 6.25218e-15 0)
(1 1.11287e-14 0)
(1 1.05209e-14 0)
(1 7.62101e-15 0)
(1 1.09453e-14 0)
(1 1.40799e-16 0)
(1 4.00863e-15 0)
(1 -4.86361e-15 0)
(1 -6.75223e-15 0)
(1 -1.775e-15 0)
(1 -3.4762e-15 0)
(1 -2.90695e-15 0)
(1 1.3578e-15 0)
(1 2.99771e-15 0)
(1 8.30095e-15 0)
(1 1.00971e-14 0)
(1 8.4179e-16 0)
(1 -7.29833e-15 0)
(1 -1.54413e-15 0)
(1 -7.24494e-15 0)
(1 2.24653e-15 0)
(1 -3.86408e-15 0)
(1 4.55207e-15 0)
(1 -3.88271e-15 0)
(1 7.89351e-15 0)
(1 -4.8101e-15 0)
(1 3.69694e-15 0)
(1 -9.20998e-15 0)
(1 -9.99847e-16 0)
(1 5.22075e-15 0)
(1 7.11276e-16 0)
(1 -1.1708e-15 0)
(1 -6.48693e-15 0)
(1 -4.79963e-15 0)
(1 2.0847e-15 0)
(1 3.19284e-15 0)
(1 6.17727e-16 0)
(1 -4.64965e-15 0)
(1 -5.98926e-15 0)
(1 3.1685e-15 0)
(1 9.44337e-15 0)
(1 7.66418e-15 0)
(1 1.27272e-15 0)
(1 -4.91256e-15 0)
(1 -1.13461e-14 0)
(1 -5.27595e-15 0)
(1 -4.65732e-15 0)
(1 -3.43952e-15 0)
(1 4.77828e-15 0)
(1 1.05806e-14 0)
(1 1.1809e-14 0)
(1 1.27027e-14 0)
(1 7.93382e-15 0)
(1 5.35569e-15 0)
(1 3.32268e-15 0)
(1 -1.10173e-15 0)
(1 -1.71172e-16 0)
(1 -2.60798e-15 0)
(1 5.90289e-15 0)
(1 1.91125e-15 0)
(1 1.03849e-14 0)
(1 1.69231e-14 0)
(1 9.59897e-15 0)
(1 -2.42937e-15 0)
(1 2.36913e-15 0)
(1 -9.37567e-15 0)
(1 3.13198e-15 0)
(1 -6.23035e-15 0)
(1 9.22757e-15 0)
(1 -2.167e-15 0)
(1 1.2807e-14 0)
(1 1.20048e-14 0)
(1 8.2081e-15 0)
(1 -1.84858e-15 0)
(1 4.52833e-15 0)
(1 1.82019e-15 0)
(1 3.27997e-15 0)
(1 8.51434e-15 0)
(1 1.18003e-14 0)
(1 4.75142e-15 0)
(1 7.22409e-15 0)
(1 8.03331e-15 0)
(1 1.50135e-14 0)
(1 1.1951e-14 0)
(1 7.8117e-15 0)
(1 3.68711e-15 0)
(1 3.06396e-15 0)
(1 -1.59151e-16 0)
(1 2.82118e-15 0)
(1 7.78437e-15 0)
(1 1.01885e-14 0)
(1 3.70701e-15 0)
(1 8.52272e-15 0)
(1 6.12608e-15 0)
(1 8.3262e-15 0)
(1 4.43424e-15 0)
(1 9.01684e-15 0)
(1 4.40691e-16 0)
(1 -3.73726e-15 0)
(1 -2.96943e-15 0)
(1 6.2695e-15 0)
(1 1.54485e-14 0)
(1 1.33545e-14 0)
(1 9.86345e-15 0)
(1 9.12641e-15 0)
(1 2.64488e-15 0)
(1 -2.43352e-15 0)
(1 2.31567e-15 0)
(1 -7.63748e-15 0)
(1 -4.11219e-16 0)
(1 -4.63861e-15 0)
(1 2.48856e-15 0)
(1 -1.34623e-14 0)
(1 2.65247e-15 0)
(1 4.04311e-15 0)
(1 7.85135e-16 0)
(1 5.16127e-15 0)
(1 4.92785e-15 0)
(1 2.95124e-16 0)
(1 -5.07601e-16 0)
(1 -6.90961e-15 0)
(1 -1.14623e-15 0)
(1 -9.67184e-15 0)
(1 -1.62179e-15 0)
(1 -4.1778e-15 0)
(1 -2.71383e-15 0)
(1 3.73348e-15 0)
(1 7.0372e-15 0)
(1 1.14952e-14 0)
(1 1.12601e-14 0)
(1 7.95504e-15 0)
(1 4.58463e-16 0)
(1 -9.07179e-15 0)
(1 -6.56388e-15 0)
(1 -3.33827e-15 0)
(1 1.00522e-15 0)
(1 8.56436e-16 0)
(1 -7.97155e-16 0)
(1 -4.56208e-16 0)
(1 3.37346e-16 0)
(1 -3.13615e-16 0)
(1 -4.71227e-16 0)
(1 5.20666e-15 0)
(1 -4.19939e-15 0)
(1 -9.18244e-15 0)
(1 -9.73388e-15 0)
(1 -4.55727e-15 0)
(1 9.41521e-15 0)
(1 1.03784e-14 0)
(1 8.03628e-15 0)
(1 9.66476e-15 0)
(1 6.33635e-15 0)
(1 -5.33986e-15 0)
(1 -4.61877e-15 0)
(1 3.53796e-15 0)
(1 3.95898e-15 0)
(1 3.51388e-15 0)
(1 4.75008e-15 0)
(1 1.02671e-14 0)
(1 1.10022e-14 0)
(1 1.07043e-14 0)
(1 8.72738e-15 0)
(1 8.23594e-15 0)
(1 9.63718e-15 0)
(1 1.64164e-15 0)
(1 3.3701e-16 0)
(1 -7.79561e-16 0)
(1 -2.45098e-15 0)
(1 -2.13304e-15 0)
(1 5.40917e-15 0)
(1 7.62022e-15 0)
(1 1.67453e-14 0)
(1 9.02926e-15 0)
(1 8.00464e-15 0)
(1 8.40906e-15 0)
(1 4.18116e-15 0)
(1 9.2822e-15 0)
(1 7.42627e-15 0)
(1 9.56683e-15 0)
(1 6.03999e-15 0)
(1 7.76043e-15 0)
(1 7.77059e-15 0)
(1 7.08951e-15 0)
(1 1.00682e-14 0)
(1 8.50776e-15 0)
(1 1.08849e-14 0)
(1 1.55059e-15 0)
(1 -1.10276e-15 0)
(1 5.60026e-15 0)
(1 2.94093e-15 0)
(1 -7.44989e-16 0)
(1 3.14717e-15 0)
(1 2.49423e-15 0)
(1 3.22626e-15 0)
(1 4.06256e-15 0)
(1 1.43609e-15 0)
(1 5.7126e-15 0)
(1 5.18852e-15 0)
(1 4.45662e-15 0)
(1 6.55132e-15 0)
(1 3.71092e-15 0)
(1 1.37243e-14 0)
(1 8.19001e-15 0)
(1 1.14977e-14 0)
(1 1.14721e-14 0)
(1 -1.4594e-15 0)
(1 -4.2837e-15 0)
(1 -3.45115e-15 0)
(1 -1.14021e-15 0)
(1 6.7103e-15 0)
(1 3.75677e-15 0)
(1 1.54851e-14 0)
(1 4.18069e-15 0)
(1 -2.61062e-15 0)
(1 -1.2405e-14 0)
(1 -8.18568e-15 0)
(1 -1.99152e-15 0)
(1 -3.94149e-15 0)
(1 3.47122e-15 0)
(1 -1.7274e-15 0)
(1 -9.89259e-15 0)
(1 -3.88382e-15 0)
(1 -1.66883e-15 0)
(1 -1.60398e-15 0)
(1 -1.97296e-15 0)
(1 8.47097e-15 0)
(1 -2.10702e-15 0)
(1 7.17059e-15 0)
(1 1.96507e-15 0)
(1 -5.57952e-15 0)
(1 -3.19266e-15 0)
(1 -6.7448e-15 0)
(1 -9.3883e-15 0)
(1 -6.38202e-15 0)
(1 -4.74158e-15 0)
(1 3.90545e-15 0)
(1 3.97863e-15 0)
(1 5.55673e-15 0)
(1 4.39379e-15 0)
(1 3.00913e-15 0)
(1 1.83627e-15 0)
(1 -3.30007e-15 0)
(1 -2.98136e-16 0)
(1 -4.16827e-15 0)
(1 3.91009e-16 0)
(1 -1.1114e-14 0)
(1 -4.52043e-17 0)
(1 1.43917e-14 0)
(1 1.87629e-15 0)
(1 7.53825e-15 0)
(1 5.69538e-16 0)
(1 5.09126e-15 0)
(1 -2.74782e-15 0)
(1 -1.55951e-15 0)
(1 1.03962e-15 0)
(1 9.16135e-15 0)
(1 7.13748e-15 0)
(1 6.4723e-15 0)
(1 1.86856e-15 0)
(1 5.54098e-15 0)
(1 3.64119e-15 0)
(1 6.97441e-16 0)
(1 6.62502e-15 0)
(1 8.13476e-15 0)
(1 -6.26888e-15 0)
(1 -1.98113e-15 0)
(1 -1.24247e-15 0)
(1 1.8118e-15 0)
(1 8.83178e-16 0)
(1 5.04059e-15 0)
(1 -1.81007e-15 0)
(1 -2.74863e-15 0)
(1 -6.22332e-16 0)
(1 5.02036e-15 0)
(1 3.58486e-15 0)
(1 7.77765e-15 0)
(1 9.17193e-15 0)
(1 1.57422e-14 0)
(1 8.23014e-15 0)
(1 1.10324e-14 0)
(1 7.11379e-15 0)
(1 2.39367e-15 0)
(1 1.68503e-15 0)
(1 5.56091e-15 0)
(1 1.14045e-14 0)
(1 6.15674e-15 0)
(1 8.75963e-15 0)
(1 7.42187e-15 0)
(1 1.34251e-14 0)
(1 6.67169e-15 0)
(1 3.44789e-15 0)
(1 6.2522e-16 0)
(1 -5.50274e-15 0)
(1 -2.16511e-15 0)
(1 -4.10867e-16 0)
(1 -4.12527e-16 0)
(1 2.58582e-15 0)
(1 5.30891e-15 0)
(1 6.92237e-15 0)
(1 1.10921e-14 0)
(1 8.74376e-15 0)
(1 7.93092e-15 0)
(1 7.3657e-15 0)