/*--------------------------------*- C++ -*----------------------------------*\
| =========                 |                                                 |
| \\      /  F ield         | OpenFOAM: The Open Source CFD Toolbox           |
|  \\    /   O peration     | Version:  v2012                                 |
|   \\  /    A nd           | Website:  www.openfoam.com                      |
|    \\/     M anipulation  |                                                 |
\*---------------------------------------------------------------------------*/
FoamFile
{
    version     2.0;
    format      ascii;
    class       volScalarField;
    location    "0";
    object      p;
}
// * * * * * * * * * * * * * * * * * * * * * * * * * * * * * * * * * * * * * //

dimensions      [0 2 -2 0 0 0 0];


internalField   nonuniform List<scalar> 
4000
(
0.0285569
-0.0448994
-0.0333343
0.0427177
0.116529
0.216288
0.140772
0.116998
0.173328
0.122526
0.242861
0.362399
0.31719
0.201466
0.207992
0.0643294
0.0274309
0.291748
0.307292
0.199341
0.134143
0.161034
0.0417515
0.108285
0.108416
0.249707
0.130138
-0.0375375
-0.0660061
-0.171042
-0.114569
-0.228498
-0.243668
-0.165391
-0.173589
-0.0631684
-0.0722841
-0.18149
-0.160135
-0.164606
-0.211655
-0.183206
-0.0781363
0.0459317
0.0821912
0.0136781
-0.1168
-0.0904062
0.0785435
-0.0296601
-0.0110831
0.105683
0.154083
0.0529205
-0.0135128
-0.044578
-0.051642
0.000302866
0.0352647
-0.0873871
-0.0762399
0.0582233
0.0625507
-0.0477106
0.0383327
-0.105055
-0.118105
-0.0784106
-0.0214203
-0.14608
-0.157695
-0.029031
-0.0894632
-0.259272
-0.362711
-0.268905
-0.0610713
-0.0174391
0.085135
0.247364
0.230791
0.270066
0.480993
0.326011
0.223678
0.248098
0.181717
0.1201
0.0446044
0.0729679
0.0921108
-0.0444452
-0.0144615
-0.0398684
-0.0590426
-0.0197059
0.0256065
0.0262812
0.0656779
-0.0191344
-0.0218108
-0.0327981
0.00404898
0.110905
0.172871
0.122734
0.119173
0.149449
0.208254
0.0928544
0.198594
0.288029
0.352716
0.316754
0.147204
0.0822285
0.112397
0.177491
0.229125
0.201267
0.146115
0.174331
0.126499
0.15284
0.134976
0.147285
0.0594357
-0.0478042
-0.0657921
-0.153604
-0.0238975
-0.202944
-0.280122
-0.153819
-0.237394
-0.140702
-0.126995
-0.106348
-0.0375514
-0.125104
-0.212622
-0.210755
-0.121837
-0.00772985
0.121681
0.00911395
-0.039661
-0.0627416
-0.0629502
-0.0223383
0.0280569
0.0754829
0.179428
0.0181926
0.0339344
-0.0448703
-0.0356014
-0.0283427
-0.000304588
-0.0394367
-0.0224291
0.0201449
0.0440721
-0.0386376
-0.0238422
-0.108534
-0.0765448
-0.0437571
-0.0022312
-0.166299
-0.12635
-0.0689381
-0.153744
-0.253092
-0.290422
-0.225539
-0.121481
0.0162413
0.0954037
0.177867
0.248155
0.295512
0.382608
0.373814
0.28833
0.245799
0.185464
0.106098
0.0373612
0.0917812
0.0872885
-0.0268915
-0.0888219
-0.0432785
0.0143616
0.0145058
-0.0199995
-0.00786871
-0.0260579
0.0126497
0.0254301
0.0110939
0.0152831
0.0881235
0.12114
0.122189
0.0523293
0.154482
0.197088
0.0946613
0.226951
0.217514
0.297271
0.30243
0.0966958
0.101935
0.105404
0.189276
0.261332
0.278097
0.198116
0.0630144
0.097841
0.135571
0.179777
0.08302
0.068477
-0.0636439
-0.0960946
-0.0933997
-0.0908885
-0.168026
-0.161303
-0.206486
-0.251234
-0.11449
-0.0727555
-0.0880512
-0.0782532
-0.138608
-0.218878
-0.224259
-0.066709
-0.0449588
0.128686
0.0146457
-0.111995
-0.0384025
0.0239036
0.0562015
0.0592421
0.0699204
0.078182
0.0199026
-0.0425754
-0.0400631
0.0338996
-0.0283632
0.0248813
-0.00114315
-0.062844
-0.076941
-0.0216187
-0.0735674
-0.0976328
-0.0725931
-0.00013165
-0.0122809
0.036436
-0.132941
-0.185417
-0.149559
-0.110169
-0.238073
-0.29619
-0.158752
-0.144281
-0.00662304
0.059663
0.126573
0.311345
0.346235
0.323455
0.352106
0.248878
0.229512
0.207798
0.0889774
0.0439826
0.0609978
0.0796171
0.0213185
-0.0992406
-0.0280946
-0.0036616
-0.0398982
-0.0817917
-0.0403047
-0.0270968
0.0270852
0.0254597
0.0215151
-0.0564183
0.0509483
0.0933088
0.0455293
0.0867986
0.182855
0.19093
0.164608
0.137526
0.11225
0.174348
0.392705
0.194244
0.0692683
0.112287
0.127109
0.143129
0.266154
0.235835
0.0909891
0.0836813
0.0570778
0.176871
0.114264
0.0127637
-0.110188
-0.0504051
-0.0884213
-0.0274889
-0.129784
-0.196382
-0.191012
-0.223282
-0.116875
-0.196416
-0.274344
-0.0852595
-0.0466364
-0.0814999
-0.163045
-0.0987336
0.00919569
0.13435
0.0469448
-0.159473
-0.0538742
0.0586413
0.0752294
-0.000520705
0.0717172
0.0609219
0.041211
0.0469908
-9.7057e-05
0.0490875
-0.0409972
-0.0196406
-0.0173147
-0.030147
-0.0279233
-0.0782396
-0.0457634
-0.139516
-0.0565799
-0.0302502
0.011339
0.031096
-0.0226258
-0.0645659
-0.144315
-0.137482
-0.294304
-0.313917
-0.163207
-0.115173
0.00336548
0.0882602
0.123429
0.245929
0.287172
0.359667
0.317614
0.204247
0.20926
0.219026
0.0886473
0.0165367
0.0472168
0.0557664
0.00728941
-0.0525885
-0.0828623
-0.0525887
-0.0228667
-0.113356
-0.0177526
-0.0193264
0.00751827
0.0161324
-0.00418621
-0.0092428
0.0803305
0.0367888
0.0430198
0.0610183
0.107341
0.135353
0.174686
0.152358
0.0446013
0.175904
0.300661
0.145991
0.00612763
0.0633702
0.226613
0.197077
0.171907
0.0572617
-0.0201837
0.158185
0.163813
0.169364
0.104045
0.0705625
-0.142603
-0.0543663
-0.0792257
-0.0652379
-0.0846245
-0.134237
-0.174169
-0.218613
-0.197996
-0.150769
-0.0888036
-0.0716021
-0.07282
-0.122513
-0.158918
-0.108437
-0.016701
0.0381822
0.008092
-0.0159037
-0.0136653
0.12837
0.0965208
0.0469471
-0.00711475
-0.0200412
-0.00976426
0.0230822
0.0713757
0.0525085
0.0644001
-0.0328016
-0.0613374
0.00191415
-0.0179445
-0.122953
-0.142399
-0.0986608
0.0289831
0.0588424
0.0830139
0.0360494
-0.00903133
-0.101671
-0.171833
-0.15894
-0.277143
-0.3465
-0.245017
-0.0571914
0.0430548
0.0723803
0.2154
0.260074
0.253716
0.222703
0.282709
0.178731
0.166413
0.181803
0.15604
0.00890772
0.018397
0.0606915
-0.0191164
-0.0560032
-0.131616
-0.080552
-0.0233312
-0.0732677
-0.0270277
0.0247824
-0.0557976
-0.0279654
-0.0404694
-0.0452028
-0.0739631
-0.0286758
0.0796962
0.176012
0.204091
0.115521
0.113828
0.0532535
0.00167841
0.159771
0.224616
0.114279
0.0395689
-0.022386
0.0878804
0.123885
0.139194
0.0695505
0.0456501
0.120443
0.0644718
0.119647
0.124021
-0.0038689
-0.00973735
-0.0245679
-0.0188928
-0.0635325
-0.166096
-0.139909
-0.117489
-0.163304
-0.187645
-0.0554074
-0.100023
-0.139853
-0.0732945
-0.0805299
-0.122983
-0.0708427
0.00670696
0.0263203
-0.0402413
-0.035547
0.0123143
0.151445
0.0658989
0.0413211
-0.0160156
-0.0505876
0.0409248
0.0337136
0.0415808
0.126586
-0.00633884
-0.0842421
-0.0126864
-0.0392691
-0.0896884
-0.00862589
-0.0192362
-0.117342
0.0486874
0.0837083
0.11011
0.0645668
-0.00249431
-0.137164
-0.268853
-0.208893
-0.200028
-0.237402
-0.175899
-0.0654468
-0.00851978
0.0494983
0.193368
0.227089
0.178965
0.190223
0.180645
0.14023
0.200099
0.155603
0.107275
-0.0521979
0.0212267
0.0342486
-0.0615896
-0.0895665
-0.0535432
-0.0551057
-0.0655391
-0.101347
-0.043882
0.00214828
-0.0426648
7.85571e-05
-0.0545094
-0.124589
-0.0182361
-0.00456254
0.0956431
0.143192
0.091936
0.0548669
0.0751877
0.0334363
-0.0156648
0.0618177
0.120853
0.0411229
0.103697
0.0210757
0.0104461
0.0356847
-0.0950167
-0.106148
0.0130832
0.15669
0.145939
0.159867
0.129603
0.0163271
-0.0370652
-0.0578011
-0.0169942
-0.0356505
-0.0862102
-0.164863
-0.262778
-0.0847879
-0.0508254
-0.0795736
-0.10665
0.0720096
-0.0138352
-0.114481
-0.176024
-0.15869
0.0532338
0.0744038
0.0393849
-0.0527115
-0.119616
0.0727981
0.0987447
0.133127
-0.0342245
0.031923
0.0597294
-0.0317788
-0.0194222
0.0767131
0.0434269
-0.0617421
0.00480666
-0.00827774
-0.0460114
0.0531726
-0.0701808
-0.0674403
0.114512
0.0497037
0.10034
0.0903794
0.0170593
-0.144914
-0.256583
-0.218783
-0.171994
-0.266306
-0.263855
-0.0724689
0.116625
0.234523
0.09138
0.046383
0.140264
0.141304
0.112401
0.128504
0.162881
0.114719
0.0844973
-0.0358364
0.0198738
-0.00593913
-0.0746945
-0.0744252
-0.037911
-0.0236719
-0.153428
-0.079341
-0.0918126
0.00900544
-0.0302542
-0.0692447
-0.132435
-0.193069
-0.0893829
0.0563442
0.155927
0.112216
-0.00924924
0.00761614
0.00688916
-0.0964057
-0.0553236
0.0959527
0.0744855
0.121775
-0.0268726
-0.0848232
-0.0623093
-0.0916654
-0.136269
-0.0213234
0.0498101
0.0567886
0.0521669
-0.0180467
0.119824
0.0698118
-0.0763024
-0.107747
0.00798597
-0.0402454
0.03043
-0.0746752
-0.174242
-0.105953
0.0674964
0.0162029
-0.054784
0.00103169
0.012141
-0.0633937
-0.118152
-0.141293
0.0965622
-0.0384405
0.0236135
-0.00753662
-0.017709
0.0361482
0.097414
0.187599
-0.0399752
-0.114866
0.0708982
0.0378344
0.0913247
0.18001
-0.0155518
-0.0255505
-0.0911933
0.0151279
0.0126057
0.0405504
-0.0307939
0.0257464
0.150694
0.0691961
0.0497254
0.0352035
-0.020378
-0.176175
-0.203536
-0.22405
-0.210574
-0.249871
-0.268629
-0.0837347
0.0852429
0.134406
0.0885576
0.118885
0.0978935
0.104607
0.121862
0.0573381
0.117697
0.0758482
0.0479485
-0.0592358
0.0352624
-0.0741483
-0.112225
0.0157408
0.00247423
-0.0918297
-0.162529
-0.108662
-0.0431518
-0.0461901
-0.0363475
-0.0863227
-0.0633343
-0.142395
-0.154868
-0.00341266
0.0778293
0.0176751
-0.0387046
-0.0565771
-0.0645277
-0.0473585
-0.012287
-0.0605767
0.00380665
0.0680713
-0.104357
-0.120085
-0.126504
-0.101282
-0.116611
-0.0479433
-0.0297676
-0.0276699
0.0987464
-0.00623365
0.0511385
0.0710249
-0.130548
-0.0966398
-0.0119146
0.0257936
0.0141588
0.00363323
-0.0602105
-0.0587672
0.00132256
0.0576893
0.0229057
-0.0126796
0.11832
-0.0583333
-0.0743165
-0.0141801
0.0792864
-0.0983037
-0.0573073
0.031688
-0.00087775
0.0159845
0.0643073
0.106959
-0.00610862
0.0223357
0.0136871
-0.0196052
0.0567618
0.126165
0.0195706
0.0192202
-0.0601138
-0.0307847
0.0274071
0.0543464
-0.0193151
0.0821247
0.116597
0.101446
0.0953729
-0.0122181
-0.0990383
-0.142337
-0.194054
-0.222346
-0.181705
-0.220597
-0.225619
-0.0747276
0.0639047
0.0856198
0.158633
0.0985504
0.0244474
-0.00671085
0.026608
0.0694809
0.136306
-0.0254955
-0.0516796
-0.0450245
0.0704744
-0.0315606
-0.113475
-0.0925224
-0.0992082
-0.00989449
-0.0609328
-0.0191151
-0.0104256
-0.092768
-0.106669
-0.0691918
-0.0905013
-0.095091
-0.077676
-0.0937318
-0.027873
0.00507724
-0.0459089
-0.136509
-0.147826
-0.125699
-0.117644
-0.0457656
0.00442008
0.116138
-0.116296
-0.216163
-0.187011
-0.10304
-0.168918
-0.126174
-0.0996914
-0.0991399
-0.024564
0.0462707
0.0409942
0.131924
-0.0863857
-0.0962073
-0.0437437
-0.0179112
0.100858
0.0983629
0.0269578
-0.0140929
0.0480931
0.055445
0.0651041
0.0619795
0.182363
-0.0268703
-0.126896
-0.0166614
-0.0273315
-0.0696392
0.0661178
0.103872
0.100928
0.0124678
-0.0266476
0.0644369
0.0832953
0.0169904
-0.0398742
-0.0472408
0.0585261
0.0948068
0.0615446
-0.00197034
-0.0307864
0.0378777
0.0727536
0.0750756
-0.0332088
0.0856198
0.0997077
0.0688068
0.0618435
0.0300873
-0.0900269
-0.140812
-0.125115
-0.0967849
-0.126069
-0.284111
-0.2909
-0.0771724
-0.0590522
0.053204
0.1342
0.101786
0.0206262
0.0673366
-0.0318067
0.0330517
0.00984486
-0.0513205
-0.0732454
-0.102968
0.0375826
0.0265139
-0.123315
-0.123936
-0.0647035
-0.115247
-0.0108173
-0.0111898
0.00309034
-0.0361572
-0.0295644
-0.116692
-0.092294
-0.0698476
-0.0743068
-0.0639278
-0.100754
-0.0177809
-0.212786
-0.159699
-0.0551928
-0.191758
-0.253824
-0.0905917
-0.0872826
0.0397728
-0.137481
-0.294165
-0.167238
-0.0981708
-0.104277
-0.0538658
-0.126196
-0.179749
-0.0664925
-0.0941924
-0.0687674
0.0701961
-0.0370576
0.00395135
0.0147752
-0.0269845
0.0880057
0.130283
0.145989
0.0491991
0.0717759
0.141748
0.194887
0.147525
0.114003
-0.0412395
-0.0472669
-0.00997456
-0.0610874
0.0232717
0.102653
0.118995
0.0300136
0.00220826
0.0146709
0.124247
0.0800264
-0.0139026
-0.158283
-0.091885
0.0357733
0.170675
0.135055
0.0371115
-0.0463472
0.0394194
0.0167694
0.0497522
0.00903969
0.055293
0.184045
0.129631
0.0607539
-0.0123344
-0.0241434
-0.0315773
-0.15637
-0.138497
-0.0852604
-0.262825
-0.237175
-0.131298
0.0340824
0.0655287
0.108621
-0.00460153
-0.00997723
-0.0108839
-0.0143137
-0.0221118
0.0115406
-0.0618163
-0.162473
-0.0664635
-0.0301117
0.000886233
-0.0114437
-0.153737
0.0124252
-0.0299184
0.0653121
-0.0901051
-0.19309
-0.0377549
0.00154061
-0.15113
-0.111301
-0.0502289
-0.0467205
-0.103214
-0.117318
-0.0967505
-0.130828
-0.106814
-0.17631
-0.245231
-0.285195
-0.143782
-0.11798
-0.162782
-0.244426
-0.215033
-0.101324
-0.151415
-0.0325008
-0.0867086
-0.248355
-0.129579
-0.0183889
-0.115251
-0.181474
-0.0168625
0.0761914
0.0559039
0.0578204
0.118703
0.226854
-0.0934562
0.077806
0.17279
0.128313
0.124235
0.274428
0.173303
0.128635
0.139651
-0.0169705
-0.0520906
-0.0860539
-0.0782838
0.102411
0.162911
0.18047
0.102666
0.0774585
-0.00818843
0.0587022
-0.0308618
-0.122589
0.00340861
0.0397541
0.0508626
0.065192
0.0699887
0.0449383
0.0479036
0.0902215
0.104102
0.0633492
0.053253
0.110325
0.169148
0.0896622
-0.0267337
-0.133403
-0.0892787
0.0720666
0.0366146
-0.0393541
-0.227792
-0.256525
-0.199827
-0.0647737
0.0476076
0.0928769
-0.0342435
-0.0926253
-0.0523923
-0.0420177
0.025775
-0.0926429
-0.138027
-0.105832
-0.0505594
-0.0211481
-0.0487644
-0.104734
-0.090865
-0.0349789
-0.0422864
-0.0316733
-0.0678803
0.0528958
-0.0453529
0.00981915
-0.129945
-0.117497
-0.098247
-0.0215128
-0.0395946
-0.129406
-0.148786
-0.228979
-0.282371
-0.218811
-0.199764
-0.200272
-0.17948
-0.109797
-0.180782
-0.238002
-0.158474
-0.164479
-0.132724
-0.139945
-0.232424
-0.25376
-0.169612
-0.0851064
-0.107792
-0.00900557
0.0245849
-0.0560396
0.0239306
0.12182
0.0587446
0.103738
0.102368
0.158775
0.251949
0.206115
0.0515292
0.180629
0.210913
0.130063
0.176879
0.0308307
-0.0242356
0.00804612
-0.0464842
0.0864963
0.0961262
0.117266
0.082882
0.144775
0.054451
0.0697889
-0.0973739
-0.236294
0.0197097
0.155437
0.100428
0.0348084
-0.0395109
0.011492
0.100665
0.0904266
0.0806514
0.0711278
0.162538
0.188067
0.142759
0.0547393
-0.019052
-0.114276
-0.0826927
0.0723183
0.188957
0.0390518
-0.148131
-0.223074
-0.237834
0.00592257
0.0721979
-0.0386861
0.00302087
-0.0421699
-0.00376261
-0.144423
-0.0765654
-0.138537
-0.0560488
-0.0497939
-0.0582892
-0.0407034
-0.0456234
-0.0787625
-0.0727023
-0.095848
-0.0505924
-0.000962126
0.00655611
0.0182611
-0.00107726
-0.0282867
-0.115002
-0.0635823
-0.0264687
-0.075375
-0.103454
-0.178013
-0.0786715
-0.143776
-0.196541
-0.311213
-0.322967
-0.24135
-0.244148
-0.202816
-0.154822
-0.22306
-0.192488
-0.173587
-0.232769
-0.219152
0.0249986
-0.0958891
-0.140944
-0.168685
-0.218943
-0.0383818
0.0863804
-0.119543
0.0771615
0.111445
0.16111
0.12938
0.125156
0.141787
0.135604
0.293319
0.171302
0.0926374
0.166632
0.207743
0.171766
0.0604698
-0.0158847
-0.0786327
-0.0732546
0.0963686
0.102183
0.143078
0.144403
0.149607
0.101984
-0.0361524
-0.126876
-0.152606
-0.0518516
0.0371328
0.0648557
0.0671333
0.0519822
0.0873726
0.131974
0.122546
0.0894213
0.0566113
0.102245
0.206687
0.166924
0.105771
0.0313804
-0.018588
0.0130592
0.0470961
-0.00471645
0.0486833
-0.0394949
-0.0756494
-0.184049
-0.10922
0.00917453
0.0342038
0.0119238
-0.0516767
-0.104675
-0.166181
-0.10167
-0.0909704
-0.0762801
-0.0696535
-0.104169
-0.0862861
-0.0895766
-0.0114379
-0.0265336
-0.0691008
-0.0682527
0.01494
0.0857913
0.109558
0.0817275
-0.0190054
-0.133557
-0.0451479
0.0273452
-0.0377176
5.31617e-05
-0.107894
-0.209161
-0.24103
-0.188017
-0.252584
-0.383084
-0.267818
-0.196566
-0.134104
-0.0995671
-0.173847
-0.256616
-0.283241
-0.196223
-0.208526
-0.118387
-0.167616
-0.154612
-0.162563
-0.135384
-0.0490438
0.0317627
-0.00766035
-0.00505303
0.0754079
0.0951636
0.141518
0.197399
0.171015
0.101707
0.249592
0.26001
0.208905
0.251147
0.28824
0.0679501
0.0109027
-0.018112
0.047941
-0.00453934
0.0586089
0.0709421
0.10418
0.106957
0.0949085
0.0592178
-0.0204693
-0.123596
-0.120811
-0.126074
-0.0147845
0.0669117
0.00193818
0.106611
0.0727523
0.144177
0.08779
0.108138
0.123755
0.0673084
0.179864
0.181083
0.13802
0.00125817
0.0545575
0.00711019
0.105439
0.103292
0.130842
-0.0624177
-0.109129
-0.139378
-0.0571721
-0.0337265
-0.131323
-0.0390872
0.0482137
-0.0662684
-0.207686
-0.100156
-0.092553
-0.118513
-0.157117
0.00353166
-0.0577811
-0.0187563
-0.0521786
-0.0733537
-0.0613543
-0.0404411
0.0605953
0.164782
0.0753887
0.0856055
0.0173224
-0.0498583
-0.0219377
-0.0502595
-0.0756911
0.158397
0.0578236
-0.173828
-0.239172
-0.291425
-0.275192
-0.268397
-0.274969
-0.237894
-0.246809
-0.234736
-0.112714
-0.109862
-0.156171
-0.140971
-0.258254
-0.116431
-0.144958
-0.184277
-0.180025
-0.187701
-0.0685306
-0.0662139
0.00409723
0.106608
0.0936955
0.0919815
0.214085
0.238616
0.209029
0.121932
0.288318
0.1467
0.222828
0.25242
0.275246
0.115485
0.00900539
-0.00664734
-0.0195242
-0.0164997
0.0158381
0.127837
0.0479028
0.0739986
0.118366
0.0376692
-0.0640025
-0.138498
-0.163503
-0.0572548
-0.0765703
0.0329971
0.0190821
0.0817788
0.0634725
0.159316
0.186972
0.113615
0.148159
0.111993
0.15019
0.218741
0.119049
0.0511977
0.138628
0.0946645
0.109881
0.0774266
0.13651
0.0249894
-0.123127
-0.153381
-0.108813
0.087097
-0.0284047
-0.100868
-0.127931
-0.159357
-0.133406
-0.161539
-0.082943
-0.0671174
-0.061443
-0.0766377
-0.087043
-0.051676
-0.00358861
-0.0245064
0.00737011
-0.000850858
0.133513
0.160894
0.137419
0.0606276
-0.051335
0.0364984
0.0207354
0.0251974
0.0261119
0.00117186
-0.0832263
-0.134244
-0.0460888
-0.159753
-0.23625
-0.257798
-0.276752
-0.248129
-0.17541
-0.188218
-0.171267
-0.117115
-0.227095
-0.215473
-0.177113
-0.137121
-0.23784
-0.112158
-0.0995677
-0.0883808
-0.0897321
-0.0509376
-0.0322396
-0.0174004
0.105417
0.104787
0.189913
0.134057
0.257737
0.190106
0.254074
0.209096
0.165921
0.305224
0.224553
0.160343
0.0814517
-0.0268814
-0.00486726
0.0230027
0.0285594
0.0959358
-0.0887558
-0.00386475
0.0359248
-0.074639
-0.0733482
-0.121202
-0.113784
-0.063396
-0.0780143
0.00739113
-0.00338249
0.0107451
0.111282
0.191595
0.167211
0.113806
0.133778
0.12873
0.14148
0.172878
0.175878
0.112566
0.184612
0.0415811
0.164894
0.113495
0.113996
0.092981
-0.0880989
-0.112183
-0.146578
-0.00780507
-0.0299222
-0.0556694
-0.0480348
-0.29334
-0.224767
-0.172425
-0.00577956
-0.062835
-0.0663098
-0.0205835
-0.0342451
-0.00698019
0.0249635
-0.0169633
0.0803492
0.0312541
0.127973
0.208269
0.159293
0.0352032
-0.0745504
0.0701228
0.0740249
0.0617127
0.030942
0.0105248
0.0425983
-0.0748293
-0.123407
-0.198834
-0.221132
-0.162339
-0.153178
-0.252929
-0.245858
-0.148982
-0.100116
-0.110764
-0.115244
-0.104395
-0.104289
-0.0571298
-0.22036
-0.172061
-0.213723
-0.126575
-0.114684
-0.087974
0.0371024
0.0848225
0.131626
0.169929
0.180331
0.150845
0.161447
0.164618
0.236171
0.173368
0.266721
0.284502
0.270583
0.139729
-0.0123313
-0.141145
-0.100654
0.0788751
0.0857265
0.110887
-0.0147664
0.0413144
-0.0263222
-0.191219
-0.126585
-0.0668641
-0.112288
-0.0686238
-0.050805
-0.0378449
-0.113975
-0.0349446
0.0325286
0.160689
0.144539
0.158348
0.187657
0.222318
0.140492
0.180476
0.132368
0.203993
0.135352
0.0466602
0.198829
0.194504
0.160348
0.038314
0.00935144
-0.0633951
-0.132783
-0.0559914
-0.0430469
-0.0677576
-0.143999
-0.184476
-0.172984
-0.176532
-0.0603535
-0.124467
0.00546098
0.0577361
-0.0173573
0.029067
0.0536066
0.0875104
0.081227
0.0775133
0.151886
0.160639
0.0916855
-0.0455858
-0.0505651
0.0234176
0.0713453
0.0787023
0.0287308
0.0386123
0.0103594
-0.0596964
-0.125109
-0.11962
-0.129501
-0.104559
-0.15655
-0.155978
-0.203805
-0.104465
-0.0155539
-0.0711651
-0.0888747
-0.0994766
-0.0676179
-0.117484
-0.14623
-0.12132
-0.230481
-0.199995
-0.131152
-0.0575154
0.106967
0.138801
0.0544298
0.0971184
0.254661
0.19883
0.0882739
0.168616
0.242581
0.158543
0.18381
0.269633
0.194108
0.069594
0.00866136
-0.0194681
-0.0181822
0.0799165
0.0139626
0.0749584
0.0216945
-0.0250232
-0.178203
-0.154773
-0.155827
-0.141536
-0.0158421
-0.0335456
-0.0378391
-0.0809217
-0.136664
-0.0865516
0.0229494
0.138572
0.0849248
0.10874
0.163507
0.190428
0.23981
0.219873
0.12399
0.0596363
0.0960922
0.143806
0.154132
0.206204
0.222272
0.0910669
-0.0130655
-0.0193524
-0.130814
-0.121562
-0.0653482
-0.110372
-0.130506
-0.149598
-0.154032
-0.155951
-0.0988275
-0.0183987
0.0476861
-0.00298144
0.0612665
0.05736
0.0762343
0.141627
0.0848906
0.0842435
0.2025
0.176208
0.0450033
-0.0627325
-0.109403
0.0696422
0.107908
0.0665218
-0.0496659
-0.000321195
0.000266287
0.0147447
-0.00299314
-0.0634649
-0.161668
-0.126776
-0.0975524
-0.093944
-0.0880164
-0.00895935
0.0322117
-0.0148488
-0.110921
-0.0465927
0.00725114
0.0469072
-0.154106
-0.127516
-0.173388
-0.149826
-0.112926
-0.117004
0.0694836
0.109117
0.164457
0.0822156
0.201838
0.187003
0.140349
0.133327
0.240505
0.196113
0.0837061
0.177301
0.142094
-0.00510485
-0.0288348
0.116766
-0.0542823
-0.0359416
0.0570364
0.0860956
0.00448617
-0.0948084
-0.0880234
-0.123751
-0.15785
-0.161371
-0.0990971
-0.151915
-0.0569802
-0.0738651
-0.100153
-0.0667507
-0.0463265
0.0691425
0.0688208
0.104219
0.175941
0.141958
0.241225
0.158315
0.0844034
0.198398
0.0893017
0.177933
0.114637
0.252154
0.122895
-0.0498232
-0.00754487
0.0525592
-0.0289097
-0.117794
-0.080935
-0.0391107
-0.140192
-0.105986
-0.118918
-0.107351
-0.055288
-0.0922047
-0.000372198
0.0871094
0.0445912
0.0129093
0.138959
0.260351
0.203112
0.208008
0.136998
0.140871
0.039949
-0.0388436
-0.109558
0.128346
0.0200595
-0.0391864
-0.0294891
-0.00428237
0.0281415
-0.0109461
0.0496715
0.0470154
-0.193187
-0.150316
-0.0678354
-0.044106
-0.0769496
0.13628
0.251862
0.0926761
-0.0570704
-0.0150754
0.0179379
0.0268681
-0.131204
-0.151885
-0.16966
-0.124539
-0.0971611
-0.123856
0.0320671
0.121207
0.171645
0.159705
0.219611
0.150683
0.111094
0.102456
0.146122
0.170128
0.217157
0.16865
0.0976787
-0.0199282
0.0130391
-0.00363395
0.00463503
0.00112874
-0.0407962
-0.0338601
0.0267695
-0.0948063
-0.0677878
-0.155142
-0.307625
-0.184488
-0.0471448
-0.122829
-0.0916822
-0.063009
-0.13717
-0.0255287
-0.0442919
-0.00935868
0.0136726
0.0276682
0.20643
0.0801255
0.116286
0.159196
0.0743371
0.158823
0.155941
0.130255
0.107014
0.10748
0.0915804
0.079429
0.0805399
0.0314691
-2.73879e-05
-0.0437529
-0.057588
-0.0626428
-0.176987
-0.148097
-0.037313
-0.109905
-0.101414
-0.0789028
0.00820736
0.101842
0.0808187
0.0304712
0.158391
0.217452
0.175829
0.175768
0.179747
0.137371
0.127245
-0.0245763
-0.0407171
0.0926789
0.0174287
0.023773
0.0442889
-0.0397657
-0.0569381
-0.0166968
0.0555557
0.101531
-0.0818007
-0.027808
0.0560209
0.00160948
0.0864017
0.0954351
0.12954
0.109406
0.0685915
0.0930869
0.126399
0.00513674
-0.0964593
-0.130257
-0.124515
-0.103862
-0.104389
-0.0806516
0.0334655
0.0998176
0.0948713
0.0956075
0.185053
0.348742
0.19671
0.126968
0.0723803
0.0601906
0.133927
0.153985
0.102678
0.00523586
-0.0244251
-0.0499647
-0.0577278
-0.0231153
-0.0639239
-0.0750869
-0.02124
-0.109518
-0.105316
-0.201467
-0.256554
-0.225252
-0.126351
-0.183628
-0.0875942
-0.131583
-0.0537919
-0.0358294
-0.0807108
-0.0662202
-0.0404874
-0.017873
0.182911
0.0719893
0.161397
0.215239
0.0885689
0.185328
0.193179
0.116638
-0.0232631
0.00476413
0.0707222
0.0742078
0.0390152
0.162458
-0.0389256
0.00239554
-0.0266725
-0.0688891
-0.194335
-0.117381
-0.0921557
-0.0859689
-0.0405602
-0.0616726
0.00572914
0.0969607
0.0631848
-0.0150105
0.124537
0.284216
0.244269
0.208145
0.246219
0.0573862
-0.0551383
-0.00519004
-0.0018678
0.0615434
0.0407283
0.0675425
0.109492
-0.0240038
-0.0696053
-0.0896691
0.0422291
0.0913673
-0.00715225
-0.0159003
0.06071
0.125969
0.0995079
0.116113
0.177836
0.268637
0.261458
0.148985
0.154154
-0.0200528
-0.183592
-0.131966
-0.0525657
-0.0528502
-0.00325699
-0.0414672
-0.0025609
0.162289
0.149003
0.0877604
0.0839412
0.261932
0.202498
0.0533094
0.108565
0.231504
0.175237
0.0526122
0.0270358
-0.069982
-0.148784
-0.143276
-0.0147398
-0.043243
-0.0814501
-0.0639205
-0.105367
-0.10826
-0.221942
-0.217447
-0.197603
-0.20861
-0.257712
-0.21405
-0.123655
-0.00428131
0.0103945
-0.0942605
-0.0282849
-0.168588
-0.130575
0.02022
0.0201816
0.0590801
0.0332328
0.123111
0.216875
0.141499
0.0542767
-0.0563369
0.0745203
0.0231223
0.061053
0.108009
0.0529461
0.0363201
-0.0159421
0.0438198
0.0855941
-0.227677
-0.152871
0.00350211
-0.065459
-0.22346
0.0140357
-0.00979548
-0.0732753
0.0909583
0.0726928
0.0342107
0.117969
0.251848
0.305333
0.117714
0.131483
0.0484275
0.0601607
0.0323873
0.0110545
0.156317
0.0277945
0.025472
0.0123385
-0.104801
0.0533957
0.0644514
0.0951533
-0.0167924
-0.0374996
0.110761
0.190279
0.123434
0.0576138
0.0880648
0.115849
0.196141
0.425898
0.341639
0.230461
-0.0997692
-0.216625
-0.129519
-0.129028
-0.0787118
0.0725522
0.146971
0.0665163
0.039242
0.0370201
-0.00165642
0.172166
0.30032
0.193616
-0.00628224
0.108638
0.182009
0.145773
0.0823653
-0.0747919
-0.0664353
-0.10909
-0.122509
-0.0580447
-0.132139
-0.189178
-0.105421
-0.148299
-0.0517355
-0.20412
-0.332314
-0.240274
-0.267542
-0.263804
-0.262919
-0.118233
-0.0460745
0.0148876
-0.00712198
-0.0694206
-0.242017
-0.203621
-0.0543677
0.0847867
0.0664408
0.0300189
0.098956
0.208123
0.0951257
-0.0194353
-0.0731354
0.00347896
-0.0520252
0.0163605
0.0100653
0.109205
0.0853865
0.0331749
-0.0115914
-0.0243772
-0.156163
-0.0791177
-0.0690678
-0.0569629
-0.0994337
-0.0555445
-0.0464205
0.062266
0.0307372
0.0855977
0.0568571
0.0890406
0.213436
0.242193
0.198642
0.155929
0.0544657
0.0657876
-0.11003
-0.0515693
0.0739321
0.0311777
0.163678
0.0879379
-0.0536629
-0.126732
-0.0475857
0.0601748
-0.0264909
0.100404
0.211548
0.178893
0.090469
0.104001
0.160615
0.195347
0.291764
0.273423
0.279601
0.235384
0.045953
-0.067768
-0.0674549
-0.0879706
-0.0577528
0.0713997
0.0826922
0.0931323
0.0847334
0.037849
0.0326789
0.0980374
0.303621
0.197033
-0.0145316
0.0326222
0.0685617
0.0837709
0.0283362
-0.154592
-0.0652829
-0.119501
-0.218702
-0.15389
-0.115925
-0.144415
-0.00858994
-0.125564
-0.231961
-0.221603
-0.187115
-0.304217
-0.300035
-0.330826
-0.140058
0.0731687
-0.0371399
-0.12151
-0.115778
-0.0800543
-0.184006
-0.188819
-0.0766127
0.00801317
0.0785174
-0.0646711
0.0560792
0.223485
0.0500723
-0.110999
-0.126295
-0.0494187
0.0588898
0.0690275
0.0257191
0.120491
0.0496993
0.0196044
-0.0460379
-0.0489077
-0.0827934
-0.038745
-0.0351398
-0.13214
-0.185389
-0.0141235
0.00536655
0.0731502
0.0543504
-0.00340286
0.0910188
0.127714
0.223431
0.177769
0.142424
0.0289082
0.0122784
0.0490955
-0.0251493
0.0246962
0.0607457
0.0398021
0.107991
0.0999795
-0.0225267
-0.108015
-0.0519891
0.063613
0.0711401
0.217182
0.139695
0.141181
0.106307
0.11996
0.126502
0.231868
0.318511
0.241359
0.281472
0.313434
0.0133407
-0.0193512
-0.0330205
-0.0246438
-0.0557843
-0.00320069
-0.00311264
0.0944694
0.243355
0.0975639
0.090273
-0.0223037
-0.0180732
0.0442586
0.0938976
0.0366869
0.17607
0.153636
-0.0129845
-0.121955
-0.112637
-0.144366
-0.215129
-0.124125
-0.0395174
-0.145384
-0.101546
-0.143694
-0.221888
-0.182403
-0.246546
-0.273512
-0.321176
-0.257388
-0.181574
0.0129563
-0.0220191
-0.137605
-0.152134
-0.142998
-0.151417
-0.178992
-0.144804
0.00634677
0.0348121
-0.0698026
0.0695172
0.146641
0.0333652
-0.138791
-0.0621164
0.00181038
-0.0294534
-0.0701646
-0.00538494
0.0866081
0.0580255
-0.0176378
-0.0200696
0.0161174
0.0168423
-0.0842064
-0.0760202
-0.151246
-0.247775
-0.105096
0.0271155
0.0737347
0.0404302
0.0414379
0.089817
0.168759
0.153694
0.0680452
0.0513825
0.00947218
0.0345411
0.0451669
0.0438331
0.0783804
0.0317843
0.1173
0.122018
0.0686614
0.0472682
-0.170055
-0.207863
-0.00343975
0.191782
0.189471
0.13796
0.182238
0.137882
0.0792292
0.102555
0.274076
0.313191
0.244622
0.300864
0.225311
0.0692051
0.0612782
0.0174592
-0.0834486
-0.0245151
-0.00688251
0.0403195
0.0882909
0.208278
0.0732393
0.0395597
-0.00162837
0.0349417
0.0446261
0.109208
0.0492158
-0.003049
-0.0993069
-0.034559
-0.129388
-0.142977
-0.143836
-0.149232
-0.0852221
0.0448516
-0.0682217
-0.121512
-0.15777
-0.122711
-0.167863
-0.308002
-0.306675
-0.263066
-0.208783
-0.0986731
0.060306
-0.0056368
-0.0935144
-0.203316
-0.159596
-0.123555
-0.199859
-0.115655
-0.0810629
-0.0426195
-0.0340296
0.0872872
0.0555924
0.0359642
-0.180656
-0.111163
-0.0585772
0.0121937
0.0956299
0.0302045
0.0741144
0.00238631
-0.0424636
0.000545415
-0.0397715
-0.0798297
-0.0596291
-0.105398
-0.106779
-0.116616
-0.0405264
0.0773188
0.0369145
0.00367972
0.0173719
0.0668546
0.0524332
0.111075
0.0637966
0.108972
0.0357744
-0.0281243
0.00767813
0.0249044
-0.00641847
0.0240337
0.0236942
0.0987005
-0.00101332
0.052804
0.0348529
-0.149905
-0.017591
0.0616943
0.166845
0.277217
0.137635
0.0970713
0.0415242
0.182861
0.355408
0.276256
0.261902
0.273579
0.195701
0.102035
0.0459082
-0.0952579
-0.0341996
-0.0152831
0.147685
0.103973
-0.0391229
0.0398276
0.139395
0.18383
-0.0984738
-0.00911792
0.142776
-0.00440077
-0.0582859
-0.0939578
-0.049261
-0.0218005
-0.155708
-0.0865044
-0.0707512
-0.0967798
-0.0759942
0.00254398
-0.0320666
-0.109767
-0.159858
-0.0936185
-0.174655
-0.242927
-0.205654
-0.204832
-0.11199
-0.0645659
0.016359
0.00195654
-0.163562
-0.217053
-0.219774
-0.184644
-0.0988966
-0.0760501
-0.124054
-0.0138421
-0.0269566
0.0461761
-0.0325567
-0.0681201
-0.0787146
0.00849814
-0.0339788
-0.0077273
0.0890757
-0.0252853
0.00486655
0.0103726
-0.0298538
-0.0586157
-0.0729559
-0.0108821
-0.0964832
-0.133012
-0.0607303
-0.0771262
-0.0577802
-0.0946684
-0.0642282
0.0394391
0.101399
0.0305871
-0.0889072
0.0427202
0.108328
0.108651
0.0589488
0.0217794
0.0266507
-0.00148977
-0.0649766
0.00737847
0.0731157
0.155704
-0.0138742
-0.0129259
-0.0348642
-0.192358
0.0452377
0.123188
0.222668
0.199118
0.149287
0.0461909
0.0240496
0.185481
0.225108
0.261026
0.266779
0.266969
0.251606
0.0698596
0.019887
0.0219325
-0.0357486
-0.0857126
0.0517022
0.195127
0.101616
0.0455152
-0.0129789
0.0955504
-0.0738003
-0.066472
0.193084
0.0417925
-0.17642
-0.0913645
-0.0976988
-0.148865
-0.127611
-0.0625983
-0.033609
-0.0396848
0.0148497
-0.0506283
-0.0874242
-0.0905646
-0.145405
-0.0905345
-0.145707
-0.246991
-0.271348
-0.107286
-0.0714364
-0.0363342
-0.0126395
0.0550155
-0.0612671
-0.174081
-0.17453
-0.221645
-0.181945
-0.0402027
-0.121796
-0.000216867
-0.0968464
-0.0791224
0.0148722
0.0390386
-0.092844
-0.159683
0.0478462
0.0712291
0.0562586
-0.0038114
0.0582049
0.00279139
0.0313487
-0.0432869
-0.0233689
-0.0236734
-0.125667
-0.163005
-0.088379
-0.02894
-0.0561298
-0.04845
0.0184302
0.0544527
0.0109892
-0.0767495
-0.173759
0.0330398
0.0597106
-0.0239585
0.102363
0.0904961
0.081785