/*--------------------------------*- C++ -*----------------------------------*\
| =========                 |                                                 |
| \\      /  F ield         | OpenFOAM: The Open Source CFD Toolbox           |
|  \\    /   O peration     | Version:  v2012                                 |
|   \\  /    A nd           | Website:  www.openfoam.com                      |
|    \\/     M anipulation  |                                                 |
\*---------------------------------------------------------------------------*/
FoamFile
{
    version     2.0;
    format      ascii;
    class       volScalarField;
    location    "0.5";
    object      Psi_z;
}
// * * * * * * * * * * * * * * * * * * * * * * * * * * * * * * * * * * * * * //

dimensions      [0 2 -1 0 0 0 0];


internalField   nonuniform List<scalar> 
65536
(
8.38683e-06
2.51599e-05
4.19313e-05
5.86998e-05
7.54644e-05
9.22238e-05
0.000108977
0.000125723
0.00014246
0.000159187
0.000175903
0.000192607
0.000209297
0.000225973
0.000242632
0.000259274
0.000275898
0.000292501
0.000309082
0.00032564
0.000342174
0.000358682
0.000375162
0.000391612
0.000408032
0.00042442
0.000440773
0.000457089
0.000473368
0.000489608
0.000505805
0.000521959
0.000538067
0.000554128
0.000570138
0.000586097
0.000602002
0.00061785
0.000633639
0.000649367
0.000665032
0.000680631
0.000696162
0.000711621
0.000727007
0.000742317
0.000757547
0.000772697
0.000787761
0.000802739
0.000817626
0.00083242
0.000847119
0.000861718
0.000876216
0.000890609
0.000904893
0.000919067
0.000933126
0.000947068
0.000960889
0.000974587
0.000988158
0.0010016
0.00101491
0.00102808
0.00104111
0.001054
0.00106674
0.00107933
0.00109177
0.00110406
0.00111618
0.00112814
0.00113994
0.00115157
0.00116303
0.00117431
0.00118542
0.00119635
0.00120709
0.00121764
0.00122801
0.00123819
0.00124817
0.00125795
0.00126753
0.00127691
0.00128609
0.00129505
0.00130381
0.00131235
0.00132068
0.0013288
0.00133669
0.00134436
0.00135181
0.00135904
0.00136603
0.0013728
0.00137934
0.00138565
0.00139172
0.00139756
0.00140316
0.00140852
0.00141365
0.00141853
0.00142317
0.00142758
0.00143173
0.00143565
0.00143932
0.00144274
0.00144592
0.00144885
0.00145153
0.00145397
0.00145616
0.0014581
0.00145979
0.00146123
0.00146242
0.00146337
0.00146406
0.00146451
0.00146471
0.00146466
0.00146436
0.00146381
0.00146302
0.00146198
0.00146069
0.00145916
0.00145738
0.00145535
0.00145308
0.00145057
0.00144782
0.00144482
0.00144159
0.00143811
0.0014344
0.00143044
0.00142626
0.00142183
0.00141718
0.00141229
0.00140717
0.00140182
0.00139624
0.00139043
0.0013844
0.00137815
0.00137167
0.00136498
0.00135806
0.00135093
0.00134359
0.00133603
0.00132826
0.00132029
0.00131211
0.00130372
0.00129513
0.00128635
0.00127736
0.00126818
0.00125881
0.00124925
0.0012395
0.00122956
0.00121944
0.00120915
0.00119867
0.00118802
0.0011772
0.00116621
0.00115506
0.00114374
0.00113226
0.00112062
0.00110882
0.00109688
0.00108478
0.00107254
0.00106016
0.00104763
0.00103497
0.00102217
0.00100924
0.000996185
0.000983001
0.000969694
0.000956268
0.000942723
0.000929065
0.000915296
0.000901418
0.000887434
0.000873347
0.000859161
0.000844877
0.000830498
0.000816028
0.000801469
0.000786823
0.000772094
0.000757283
0.000742394
0.000727428
0.000712389
0.000697279
0.0006821
0.000666854
0.000651544
0.000636173
0.000620742
0.000605253
0.000589709
0.000574113
0.000558465
0.000542767
0.000527023
0.000511234
0.000495402
0.000479528
0.000463615
0.000447664
0.000431677
0.000415655
0.000399601
0.000383516
0.000367401
0.000351258
0.000335089
0.000318895
0.000302677
0.000286437
0.000270177
0.000253897
0.000237599
0.000221284
0.000204953
0.000188609
0.000172251
0.000155881
0.000139501
0.000123111
0.000106713
9.0308e-05
7.38966e-05
5.74803e-05
4.10601e-05
2.46371e-05
8.21256e-06
2.5161e-05
7.54813e-05
0.000125797
0.000176103
0.000226398
0.000276677
0.000326938
0.000377176
0.000427389
0.000477571
0.000527721
0.000577834
0.000627907
0.000677935
0.000727914
0.000777842
0.000827712
0.000877523
0.000927268
0.000976945
0.00102655
0.00107607
0.00112551
0.00117487
0.00122413
0.00127329
0.00132235
0.00137131
0.00142014
0.00146886
0.00151746
0.00156592
0.00161425
0.00166243
0.00171047
0.00175834
0.00180606
0.00185361
0.00190098
0.00194816
0.00199516
0.00204196
0.00208855
0.00213494
0.0021811
0.00222703
0.00227272
0.00231817
0.00236337
0.0024083
0.00245297
0.00249736
0.00254145
0.00258526
0.00262875
0.00267193
0.00271479
0.00275731
0.00279949
0.00284132
0.00288279
0.00292389
0.0029646
0.00300493
0.00304485
0.00308437
0.00312347
0.00316214
0.00320036
0.00323815
0.00327547
0.00331233
0.00334871
0.0033846
0.00342
0.00345489
0.00348927
0.00352312
0.00355644
0.00358922
0.00362145
0.00365312
0.00368423
0.00371475
0.0037447
0.00377405
0.0038028
0.00383094
0.00385846
0.00388537
0.00391164
0.00393727
0.00396226
0.0039866
0.00401029
0.00403331
0.00405566
0.00407733
0.00409832
0.00411863
0.00413825
0.00415717
0.00417539
0.0041929
0.00420971
0.0042258
0.00424118
0.00425583
0.00426977
0.00428297
0.00429545
0.00430719
0.0043182
0.00432847
0.00433801
0.0043468
0.00435485
0.00436216
0.00436872
0.00437454
0.00437962
0.00438394
0.00438752
0.00439035
0.00439244
0.00439378
0.00439437
0.00439422
0.00439333
0.00439168
0.0043893
0.00438618
0.00438231
0.00437771
0.00437237
0.0043663
0.00435949
0.00435196
0.0043437
0.00433471
0.004325
0.00431457
0.00430343
0.00429157
0.004279
0.00426573
0.00425176
0.00423709
0.00422173
0.00420568
0.00418894
0.00417152
0.00415343
0.00413467
0.00411524
0.00409515
0.00407441
0.00405301
0.00403098
0.00400831
0.003985
0.00396107
0.00393653
0.00391137
0.0038856
0.00385923
0.00383228
0.00380474
0.00377662
0.00374793
0.00371868
0.00368887
0.00365852
0.00362762
0.0035962
0.00356425
0.00353178
0.00349881
0.00346534
0.00343137
0.00339693
0.00336201
0.00332663
0.00329079
0.0032545
0.00321777
0.00318062
0.00314304
0.00310505
0.00306665
0.00302786
0.00298868
0.00294913
0.0029092
0.00286892
0.00282829
0.00278731
0.002746
0.00270436
0.00266241
0.00262014
0.00257758
0.00253473
0.00249159
0.00244818
0.0024045
0.00236056
0.00231636
0.00227193
0.00222726
0.00218236
0.00213724
0.00209191
0.00204637
0.00200063
0.0019547
0.00190858
0.00186228
0.00181582
0.00176918
0.00172239
0.00167544
0.00162835
0.00158112
0.00153375
0.00148625
0.00143862
0.00139088
0.00134303
0.00129506
0.001247
0.00119883
0.00115058
0.00110223
0.0010538
0.00100529
0.000956709
0.000908054
0.000859333
0.00081055
0.000761709
0.000712813
0.000663867
0.000614875
0.00056584
0.000516765
0.000467655
0.000418513
0.000369343
0.000320147
0.00027093
0.000221695
0.000172445
0.000123183
7.39131e-05
2.46382e-05
4.19369e-05
0.000125808
0.00020967
0.000293519
0.000377347
0.00046115
0.000544921
0.000628656
0.000712347
0.000795989
0.000879576
0.000963102
0.00104656
0.00112994
0.00121325
0.00129647
0.00137959
0.00146261
0.00154552
0.00162832
0.001711
0.00179355
0.00187595
0.00195822
0.00204032
0.00212227
0.00220404
0.00228563
0.00236704
0.00244824
0.00252924
0.00261002
0.00269057
0.00277088
0.00285095
0.00293075
0.00301029
0.00308954
0.0031685
0.00324715
0.00332549
0.0034035
0.00348116
0.00355847
0.00363541
0.00371198
0.00378814
0.0038639
0.00393924
0.00401414
0.00408859
0.00416258
0.00423609
0.0043091
0.0043816
0.00445358
0.00452502
0.0045959
0.00466621
0.00473594
0.00480506
0.00487357
0.00494144
0.00500866
0.00507521
0.00514108
0.00520625
0.00527071
0.00533444
0.00539742
0.00545964
0.00552107
0.00558172
0.00564155
0.00570055
0.00575872
0.00581602
0.00587246
0.005928
0.00598265
0.00603637
0.00608917
0.00614102
0.0061919
0.00624182
0.00629074
0.00633867
0.00638558
0.00643146
0.00647631
0.00652011
0.00656284
0.0066045
0.00664507
0.00668455
0.00672292
0.00676018
0.00679631
0.0068313
0.00686515
0.00689785
0.00692939
0.00695977
0.00698896
0.00701698
0.0070438
0.00706943
0.00709386
0.00711708
0.0071391
0.00715989
0.00717947
0.00719782
0.00721494
0.00723083
0.00724549
0.00725891
0.00727109
0.00728203
0.00729173
0.00730019
0.0073074
0.00731337
0.00731809
0.00732156
0.0073238
0.00732479
0.00732453
0.00732304
0.0073203
0.00731633
0.00731112
0.00730468
0.007297
0.0072881
0.00727798
0.00726663
0.00725407
0.0072403
0.00722532
0.00720913
0.00719175
0.00717317
0.00715341
0.00713246
0.00711034
0.00708705
0.00706259
0.00703698
0.00701022
0.00698232
0.00695329
0.00692313
0.00689185
0.00685946
0.00682598
0.0067914
0.00675574
0.00671901
0.00668121
0.00664237
0.00660248
0.00656156
0.00651962
0.00647666
0.00643272
0.00638778
0.00634187
0.006295
0.00624717
0.00619841
0.00614873
0.00609813
0.00604663
0.00599424
0.00594098
0.00588687
0.0058319
0.00577611
0.00571949
0.00566208
0.00560387
0.00554489
0.00548515
0.00542466
0.00536344
0.0053015
0.00523886
0.00517553
0.00511152
0.00504686
0.00498156
0.00491562
0.00484908
0.00478193
0.00471419
0.00464589
0.00457702
0.00450762
0.00443769
0.00436724
0.00429629
0.00422486
0.00415295
0.00408059
0.00400778
0.00393454
0.00386088
0.00378681
0.00371235
0.00363751
0.00356231
0.00348674
0.00341083
0.00333459
0.00325803
0.00318116
0.003104
0.00302654
0.00294881
0.00287082
0.00279257
0.00271407
0.00263534
0.00255639
0.00247722
0.00239784
0.00231826
0.0022385
0.00215856
0.00207844
0.00199816
0.00191773
0.00183715
0.00175642
0.00167557
0.00159459
0.0015135
0.00143229
0.00135098
0.00126958
0.00118808
0.0011065
0.00102484
0.00094311
0.000861315
0.000779461
0.000697554
0.000615599
0.000533603
0.000451571
0.000369508
0.000287421
0.000205314
0.000123194
4.10656e-05
5.87156e-05
0.000176143
0.000293558
0.000410954
0.000528322
0.000645654
0.000762942
0.000880178
0.000997355
0.00111446
0.00123149
0.00134844
0.00146529
0.00158204
0.00169867
0.00181518
0.00193156
0.0020478
0.00216389
0.00227982
0.00239558
0.00251116
0.00262654
0.00274172
0.00285668
0.00297141
0.00308591
0.00320015
0.00331413
0.00342783
0.00354124
0.00365435
0.00376713
0.00387959
0.00399169
0.00410343
0.0042148
0.00432577
0.00443633
0.00454646
0.00465615
0.00476537
0.00487412
0.00498237
0.00509011
0.00519732
0.00530397
0.00541005
0.00551555
0.00562043
0.00572468
0.00582828
0.00593121
0.00603345
0.00613498
0.00623577
0.0063358
0.00643506
0.00653352
0.00663116
0.00672795
0.00682388
0.00691892
0.00701305
0.00710625
0.00719849
0.00728976
0.00738002
0.00746926
0.00755745
0.00764458
0.00773062
0.00781554
0.00789932
0.00798195
0.0080634
0.00814366
0.00822268
0.00830047
0.00837699
0.00845223
0.00852616
0.00859877
0.00867003
0.00873993
0.00880844
0.00887555
0.00894125
0.0090055
0.00906831
0.00912964
0.00918948
0.00924781
0.00930463
0.00935992
0.00941365
0.00946582
0.00951642
0.00956543
0.00961283
0.00965862
0.00970279
0.00974532
0.0097862
0.00982543
0.009863
0.00989889
0.00993309
0.00996561
0.00999644
0.0100256
0.010053
0.0100787
0.0101026
0.0101249
0.0101454
0.0101642
0.0101813
0.0101966
0.0102102
0.010222
0.0102321
0.0102405
0.0102471
0.0102519
0.0102551
0.0102564
0.0102561
0.010254
0.0102502
0.0102446
0.0102373
0.0102283
0.0102175
0.0102051
0.0101909
0.010175
0.0101574
0.0101381
0.0101171
0.0100945
0.0100701
0.0100441
0.0100164
0.00998709
0.00995611
0.00992349
0.00988925
0.00985338
0.00981591
0.00977684
0.00973618
0.00969394
0.00965014
0.00960479
0.00955789
0.00950947
0.00945954
0.0094081
0.00935517
0.00930077
0.00924491
0.00918761
0.00912887
0.00906873
0.00900718
0.00894426
0.00887997
0.00881433
0.00874736
0.00867907
0.00860949
0.00853864
0.00846652
0.00839316
0.00831858
0.0082428
0.00816583
0.00808769
0.00800842
0.00792801
0.0078465
0.00776391
0.00768025
0.00759554
0.00750981
0.00742308
0.00733536
0.00724668
0.00715706
0.00706651
0.00697506
0.00688273
0.00678955
0.00669552
0.00660067
0.00650502
0.00640859
0.00631141
0.00621348
0.00611483
0.00601549
0.00591546
0.00581478
0.00571345
0.0056115
0.00550894
0.0054058
0.00530209
0.00519783
0.00509303
0.00498773
0.00488192
0.00477563
0.00466888
0.00456168
0.00445405
0.004346
0.00423755
0.00412871
0.0040195
0.00390994
0.00380003
0.0036898
0.00357925
0.00346839
0.00335725
0.00324583
0.00313415
0.00302222
0.00291004
0.00279764
0.00268502
0.0025722
0.00245918
0.00234597
0.00223259
0.00211905
0.00200535
0.00189151
0.00177753
0.00166343
0.00154921
0.00143487
0.00132044
0.00120592
0.00109132
0.000976642
0.000861897
0.000747095
0.000632241
0.000517346
0.000402416
0.000287459
0.000172483
5.74956e-05
7.54983e-05
0.00022649
0.000377466
0.000528417
0.000679332
0.000830201
0.000981015
0.00113176
0.00128243
0.00143301
0.00158349
0.00173387
0.00188412
0.00203424
0.00218421
0.00233403
0.00248368
0.00263315
0.00278243
0.0029315
0.00308035
0.00322896
0.00337733
0.00352544
0.00367326
0.0038208
0.00396803
0.00411494
0.0042615
0.00440771
0.00455355
0.00469899
0.00484403
0.00498864
0.0051328
0.00527649
0.0054197
0.0055624
0.00570458
0.00584621
0.00598726
0.00612773
0.00626758
0.00640679
0.00654534
0.00668321
0.00682037
0.0069568
0.00709246
0.00722735
0.00736142
0.00749466
0.00762703
0.00775852
0.00788909
0.00801871
0.00814737
0.00827502
0.00840165
0.00852722
0.00865171
0.00877509
0.00889732
0.00901838
0.00913825
0.00925688
0.00937426
0.00949035
0.00960513
0.00971856
0.00983062
0.00994127
0.0100505
0.0101583
0.0102645
0.0103693
0.0104725
0.0105742
0.0106742
0.0107726
0.0108694
0.0109645
0.0110579
0.0111495
0.0112394
0.0113275
0.0114139
0.0114984
0.011581
0.0116618
0.0117407
0.0118176
0.0118927
0.0119657
0.0120368
0.0121059
0.012173
0.0122381
0.0123011
0.0123621
0.012421
0.0124778
0.0125325
0.0125851
0.0126356
0.0126839
0.01273
0.012774
0.0128158
0.0128555
0.0128929
0.0129282
0.0129612
0.0129921
0.0130207
0.0130471
0.0130712
0.0130932
0.0131129
0.0131303
0.0131456
0.0131585
0.0131693
0.0131778
0.013184
0.0131881
0.0131898
0.0131894
0.0131867
0.0131817
0.0131746
0.0131652
0.0131536
0.0131398
0.0131237
0.0131055
0.0130851
0.0130624
0.0130376
0.0130106
0.0129815
0.0129502
0.0129167
0.0128811
0.0128434
0.0128035
0.0127616
0.0127175
0.0126714
0.0126232
0.0125729
0.0125206
0.0124663
0.01241
0.0123517
0.0122913
0.0122291
0.0121648
0.0120987
0.0120306
0.0119606
0.0118888
0.0118151
0.0117395
0.0116622
0.011583
0.0115021
0.0114194
0.011335
0.0112489
0.011161
0.0110715
0.0109804
0.0108877
0.0107933
0.0106974
0.0105999
0.0105009
0.0104004
0.0102985
0.0101951
0.0100902
0.00998399
0.0098764
0.00976745
0.0096572
0.00954564
0.00943283
0.00931878
0.00920351
0.00908706
0.00896945
0.0088507
0.00873085
0.00860993
0.00848794
0.00836493
0.00824092
0.00811593
0.00798999
0.00786313
0.00773537
0.00760673
0.00747724
0.00734693
0.00721582
0.00708393
0.00695129
0.00681791
0.00668383
0.00654907
0.00641364
0.00627758
0.00614089
0.00600361
0.00586576
0.00572735
0.0055884
0.00544894
0.00530898
0.00516855
0.00502765
0.00488632
0.00474457
0.00460241
0.00445986
0.00431694
0.00417367
0.00403006
0.00388612
0.00374188
0.00359734
0.00345253
0.00330745
0.00316212
0.00301655
0.00287076
0.00272476
0.00257856
0.00243217
0.00228561
0.00213889
0.00199202
0.00184501
0.00169787
0.00155062
0.00140325
0.0012558
0.00110825
0.000960636
0.000812955
0.000665218
0.000517438
0.000369623
0.000221784
7.39295e-05
9.2286e-05
0.000276852
0.000461399
0.000645915
0.000830388
0.00101481
0.00119915
0.00138342
0.0015676
0.00175166
0.00193561
0.00211942
0.00230308
0.00248659
0.00266991
0.00285305
0.00303598
0.00321869
0.00340117
0.00358339
0.00376534
0.00394701
0.00412838
0.00430943
0.00449014
0.0046705
0.00485048
0.00503006
0.00520923
0.00538797
0.00556625
0.00574405
0.00592135
0.00609814
0.00627437
0.00645004
0.00662511
0.00679957
0.00697338
0.00714653
0.00731897
0.0074907
0.00766167
0.00783187
0.00800126
0.00816982
0.0083375
0.0085043
0.00867016
0.00883507
0.00899899
0.00916189
0.00932374
0.0094845
0.00964414
0.00980263
0.00995993
0.010116
0.0102708
0.0104244
0.0105766
0.0107274
0.0108769
0.0110249
0.0111715
0.0113165
0.0114601
0.011602
0.0117423
0.011881
0.0120181
0.0121534
0.0122869
0.0124187
0.0125486
0.0126767
0.0128029
0.0129272
0.0130496
0.0131699
0.0132882
0.0134045
0.0135187
0.0136308
0.0137407
0.0138484
0.013954
0.0140573
0.0141584
0.0142571
0.0143536
0.0144477
0.0145394
0.0146288
0.0147157
0.0148002
0.0148823
0.0149619
0.0150389
0.0151135
0.0151855
0.0152549
0.0153218
0.0153861
0.0154478
0.0155069
0.0155633
0.0156171
0.0156682
0.0157167
0.0157625
0.0158056
0.015846
0.0158837
0.0159187
0.015951
0.0159805
0.0160073
0.0160314
0.0160528
0.0160714
0.0160872
0.0161004
0.0161107
0.0161184
0.0161233
0.0161255
0.0161249
0.0161216
0.0161156
0.0161068
0.0160953
0.0160811
0.0160642
0.0160446
0.0160223
0.0159973
0.0159696
0.0159393
0.0159063
0.0158706
0.0158323
0.0157914
0.0157479
0.0157018
0.015653
0.0156017
0.0155479
0.0154915
0.0154325
0.0153711
0.0153071
0.0152407
0.0151718
0.0151005
0.0150268
0.0149506
0.0148721
0.0147912
0.0147079
0.0146224
0.0145345
0.0144444
0.014352
0.0142574
0.0141607
0.0140617
0.0139606
0.0138574
0.013752
0.0136447
0.0135352
0.0134238
0.0133104
0.013195
0.0130777
0.0129585
0.0128375
0.0127146
0.01259
0.0124635
0.0123353
0.0122054
0.0120739
0.0119407
0.0118059
0.0116695
0.0115315
0.0113921
0.0112511
0.0111088
0.010965
0.0108198
0.0106732
0.0105254
0.0103762
0.0102258
0.0100742
0.00992141
0.00976743
0.00961232
0.00945612
0.00929885
0.00914053
0.00898121
0.00882092
0.00865967
0.0084975
0.00833444
0.00817052
0.00800577
0.0078402
0.00767385
0.00750675
0.00733892
0.00717039
0.00700118
0.00683132
0.00666082
0.00648973
0.00631805
0.00614581
0.00597303
0.00579974
0.00562595
0.00545169
0.00527698
0.00510184
0.00492628
0.00475033
0.004574
0.00439732
0.00422029
0.00404295
0.00386529
0.00368735
0.00350914
0.00333067
0.00315195
0.00297301
0.00279386
0.00261451
0.00243498
0.00225527
0.00207541
0.00189541
0.00171528
0.00153504
0.00135468
0.00117424
0.000993722
0.000813135
0.000632494
0.000451812
0.000271099
9.03683e-05
0.00010908
0.000327232
0.000545363
0.000763457
0.000981501
0.00119948
0.00141737
0.00163518
0.00185287
0.00207043
0.00228785
0.00250512
0.00272221
0.00293911
0.0031558
0.00337227
0.0035885
0.00380447
0.00402016
0.00423555
0.00445063
0.00466537
0.00487975
0.00509376
0.00530737
0.00552057
0.00573332
0.0059456
0.0061574
0.00636868
0.00657942
0.00678961
0.0069992
0.00720818
0.00741651
0.00762418
0.00783114
0.00803738
0.00824285
0.00844754
0.00865141
0.00885442
0.00905655
0.00925776
0.00945802
0.00965729
0.00985553
0.0100527
0.0102488
0.0104438
0.0106376
0.0108302
0.0110215
0.0112116
0.0114003
0.0115877
0.0117737
0.0119583
0.0121413
0.0123228
0.0125028
0.0126812
0.0128579
0.0130329
0.0132062
0.0133777
0.0135474
0.0137153
0.0138812
0.0140452
0.0142072
0.0143672
0.0145251
0.0146809
0.0148346
0.014986
0.0151353
0.0152822
0.0154269
0.0155692
0.0157091
0.0158466
0.0159816
0.0161142
0.0162441
0.0163716
0.0164964
0.0166185
0.016738
0.0168548
0.0169689
0.0170801
0.0171886
0.0172943
0.0173971
0.017497
0.017594
0.0176881
0.0177792
0.0178674
0.0179525
0.0180347
0.0181137
0.0181898
0.0182627
0.0183325
0.0183993
0.0184629
0.0185233
0.0185806
0.0186348
0.0186857
0.0187335
0.0187781
0.0188194
0.0188576
0.0188925
0.0189242
0.0189527
0.0189779
0.0189999
0.0190187
0.0190342
0.0190465
0.0190555
0.0190613
0.0190638
0.0190632
0.0190592
0.0190521
0.0190417
0.0190282
0.0190114
0.0189914
0.0189682
0.0189418
0.0189122
0.0188795
0.0188436
0.0188046
0.0187624
0.0187172
0.0186688
0.0186173
0.0185627
0.0185051
0.0184445
0.0183808
0.0183141
0.0182444
0.0181717
0.0180961
0.0180176
0.0179361
0.0178518
0.0177646
0.0176745
0.0175817
0.017486
0.0173876
0.0172864
0.0171825
0.017076
0.0169668
0.0168549
0.0167405
0.0166234
0.0165039
0.0163818
0.0162573
0.0161303
0.0160009
0.0158692
0.0157351
0.0155986
0.01546
0.015319
0.0151759
0.0150306
0.0148832
0.0147337
0.0145822
0.0144286
0.014273
0.0141155
0.0139561
0.0137949
0.0136318
0.0134669
0.0133002
0.0131319
0.0129619
0.0127902
0.012617
0.0124421
0.0122658
0.012088
0.0119087
0.011728
0.011546
0.0113626
0.0111779
0.010992
0.0108048
0.0106165
0.010427
0.0102363
0.0100446
0.00985184
0.00965805
0.00946327
0.00926754
0.00907088
0.00887334
0.00867494
0.0084757
0.00827567
0.00807486
0.00787331
0.00767105
0.0074681
0.0072645
0.00706025
0.00685541
0.00664997
0.00644398
0.00623746
0.00603042
0.0058229
0.00561492
0.00540649
0.00519764
0.00498838
0.00477875
0.00456876
0.00435843
0.00414777
0.00393681
0.00372557
0.00351406
0.0033023
0.00309031
0.0028781
0.00266569
0.0024531
0.00224034
0.00202743
0.00181438
0.00160121
0.00138793
0.00117456
0.000961106
0.000747593
0.00053403
0.000320432
0.000106813
0.000125881
0.000377635
0.000629363
0.00088105
0.00113268
0.00138423
0.00163569
0.00188704
0.00213826
0.00238934
0.00264026
0.00289099
0.00314152
0.00339184
0.00364192
0.00389174
0.00414128
0.00439052
0.00463945
0.00488803
0.00513625
0.00538408
0.0056315
0.00587849
0.00612503
0.00637108
0.00661662
0.00686163
0.00710607
0.00734993
0.00759316
0.00783575
0.00807766
0.00831887
0.00855933
0.00879902
0.0090379
0.00927595
0.00951312
0.00974938
0.00998469
0.010219
0.0104523
0.0106846
0.0109158
0.0111458
0.0113746
0.0116022
0.0118286
0.0120537
0.0122774
0.0124997
0.0127206
0.01294
0.0131579
0.0133742
0.0135889
0.013802
0.0140133
0.0142229
0.0144306
0.0146366
0.0148406
0.0150426
0.0152427
0.0154407
0.0156366
0.0158304
0.016022
0.0162113
0.0163984
0.0165831
0.0167654
0.0169453
0.0171227
0.0172976
0.0174699
0.0176396
0.0178066
0.0179709
0.0181324
0.0182912
0.0184471
0.0186001
0.0187502
0.0188973
0.0190414
0.0191824
0.0193204
0.0194552
0.0195869
0.0197154
0.0198406
0.0199626
0.0200813
0.0201967
0.0203087
0.0204173
0.0205225
0.0206243
0.0207226
0.0208174
0.0209087
0.0209965
0.0210807
0.0211613
0.0212383
0.0213118
0.0213816
0.0214477
0.0215102
0.021569
0.0216242
0.0216756
0.0217234
0.0217674
0.0218077
0.0218443
0.0218772
0.0219063
0.0219317
0.0219533
0.0219712
0.0219854
0.0219958
0.0220025
0.0220054
0.0220046
0.0220001
0.0219919
0.0219799
0.0219642
0.0219448
0.0219217
0.0218949
0.0218645
0.0218303
0.0217925
0.0217511
0.021706
0.0216574
0.0216051
0.0215492
0.0214898
0.0214268
0.0213603
0.0212902
0.0212167
0.0211397
0.0210592
0.0209753
0.020888
0.0207973
0.0207033
0.0206059
0.0205052
0.0204013
0.020294
0.0201836
0.02007
0.0199532
0.0198332
0.0197102
0.0195841
0.019455
0.0193228
0.0191877
0.0190497
0.0189088
0.018765
0.0186184
0.018469
0.0183169
0.018162
0.0180046
0.0178444
0.0176817
0.0175165
0.0173488
0.0171786
0.017006
0.016831
0.0166537
0.0164741
0.0162923
0.0161082
0.0159221
0.0157338
0.0155434
0.015351
0.0151567
0.0149604
0.0147622
0.0145622
0.0143604
0.0141568
0.0139516
0.0137446
0.0135361
0.0133259
0.0131142
0.012901
0.0126864
0.0124703
0.0122529
0.0120341
0.0118141
0.0115928
0.0113703
0.0111466
0.0109217
0.0106958
0.0104688
0.0102408
0.0100118
0.00978181
0.00955092
0.00931915
0.00908652
0.00885307
0.00861882
0.00838382
0.00814809
0.00791165
0.00767455
0.0074368
0.00719844
0.0069595
0.00671999
0.00647994
0.00623939
0.00599835
0.00575685
0.00551492
0.00527256
0.00502982
0.00478671
0.00454325
0.00429946
0.00405536
0.00381098
0.00356632
0.00332142
0.00307629
0.00283095
0.00258542
0.00233971
0.00209384
0.00184784
0.0016017
0.00135547
0.00110914
0.000862741
0.000616284
0.000369786
0.000123265
0.000142691
0.000428062
0.000713406
0.000998702
0.00128393
0.00156908
0.00185412
0.00213903
0.00242381
0.00270842
0.00299284
0.00327706
0.00356106
0.00384481
0.00412829
0.00441148
0.00469436
0.0049769
0.00525907
0.00554087
0.00582225
0.0061032
0.00638369
0.00666368
0.00694316
0.0072221
0.00750046
0.00777822
0.00805534
0.0083318
0.00860755
0.00888258
0.00915684
0.00943029
0.00970291
0.00997466
0.0102455
0.0105154
0.0107843
0.0110522
0.011319
0.0115847
0.0118492
0.0121125
0.0123746
0.0126354
0.0128949
0.013153
0.0134097
0.0136649
0.0139186
0.0141707
0.0144212
0.01467
0.0149171
0.0151624
0.0154058
0.0156474
0.0158871
0.0161247
0.0163603
0.0165939
0.0168252
0.0170544
0.0172813
0.0175058
0.017728
0.0179478
0.018165
0.0183798
0.0185919
0.0188014
0.0190082
0.0192122
0.0194134
0.0196117
0.0198071
0.0199996
0.020189
0.0203753
0.0205586
0.0207386
0.0209154
0.0210889
0.0212591
0.021426
0.0215894
0.0217494
0.0219059
0.0220588
0.0222081
0.0223539
0.0224959
0.0226343
0.0227689
0.0228997
0.0230267
0.0231499
0.0232692
0.0233847
0.0234961
0.0236037
0.0237072
0.0238067
0.0239022
0.0239937
0.024081
0.0241643
0.0242434
0.0243185
0.0243893
0.024456
0.0245185
0.0245769
0.024631
0.024681
0.0247267
0.0247682
0.0248054
0.0248384
0.0248672
0.0248917
0.024912
0.0249281
0.0249399
0.0249475
0.0249508
0.0249499
0.0249447
0.0249353
0.0249218
0.024904
0.0248819
0.0248557
0.0248254
0.0247908
0.0247521
0.0247092
0.0246622
0.0246111
0.0245559
0.0244966
0.0244332
0.0243658
0.0242944
0.0242189
0.0241395
0.0240561
0.0239687
0.0238775
0.0237823
0.0236833
0.0235804
0.0234738
0.0233633
0.0232492
0.0231312
0.0230096
0.0228844
0.0227555
0.022623
0.022487
0.0223475
0.0222045
0.022058
0.0219082
0.0217549
0.0215984
0.0214386
0.0212755
0.0211092
0.0209398
0.0207673
0.0205917
0.0204131
0.0202315
0.020047
0.0198596
0.0196694
0.0194763
0.0192806
0.0190822
0.0188811
0.0186774
0.0184712
0.0182625
0.0180514
0.0178378
0.017622
0.0174038
0.0171834
0.0169608
0.0167361
0.0165093
0.0162804
0.0160496
0.0158168
0.0155821
0.0153456
0.0151073
0.0148673
0.0146256
0.0143822
0.0141372
0.0138906
0.0136426
0.0133931
0.0131421
0.0128898
0.0126362
0.0123813
0.0121251
0.0118678
0.0116092
0.0113496
0.0110888
0.0108271
0.0105643
0.0103005
0.0100359
0.0097703
0.00950387
0.00923662
0.00896857
0.00869977
0.00843024
0.00816002
0.00788913
0.00761761
0.00734548
0.00707278
0.00679953
0.00652576
0.00625149
0.00597676
0.00570159
0.00542599
0.00515001
0.00487365
0.00459695
0.00431992
0.00404259
0.00376498
0.00348711
0.003209
0.00293067
0.00265215
0.00237345
0.00209459
0.00181559
0.00153647
0.00125725
0.000977945
0.000698578
0.000419165
0.000139725
0.00015951
0.000478518
0.000797495
0.00111642
0.00143527
0.00175403
0.00207267
0.00239117
0.00270951
0.00302768
0.00334563
0.00366336
0.00398084
0.00429805
0.00461495
0.00493154
0.00524777
0.00556363
0.00587909
0.00619412
0.00650869
0.00682278
0.00713636
0.00744939
0.00776185
0.0080737
0.00838491
0.00869544
0.00900527
0.00931436
0.00962267
0.00993017
0.0102368
0.0105426
0.0108474
0.0111512
0.011454
0.0117558
0.0120565
0.012356
0.0126543
0.0129514
0.0132472
0.0135417
0.0138348
0.0141265
0.0144166
0.0147052
0.0149923
0.0152777
0.0155614
0.0158433
0.0161234
0.0164017
0.016678
0.0169523
0.0172246
0.0174948
0.0177628
0.0180286
0.0182921
0.0185533
0.0188121
0.0190684
0.0193221
0.0195733
0.0198218
0.0200676
0.0203106
0.0205508
0.0207881
0.0210224
0.0212537
0.0214819
0.0217069
0.0219288
0.0221474
0.0223626
0.0225745
0.0227829
0.0229879
0.0231892
0.023387
0.0235811
0.0237715
0.0239581
0.0241409
0.0243199
0.0244949
0.024666
0.024833
0.024996
0.0251549
0.0253096
0.0254602
0.0256065
0.0257486
0.0258864
0.0260199
0.026149
0.0262737
0.0263939
0.0265097
0.026621
0.0267278
0.0268301
0.0269278
0.0270209
0.0271094
0.0271933
0.0272726
0.0273472
0.0274171
0.0274823
0.0275429
0.0275987
0.0276498
0.0276962
0.0277379
0.0277748
0.027807
0.0278344
0.0278571
0.027875
0.0278882
0.0278967
0.0279004
0.0278993
0.0278936
0.0278831
0.0278678
0.0278479
0.0278233
0.027794
0.02776
0.0277213
0.027678
0.02763
0.0275775
0.0275203
0.0274585
0.0273922
0.0273213
0.0272459
0.0271659
0.0270815
0.0269927
0.0268994
0.0268017
0.0266996
0.0265932
0.0264824
0.0263674
0.0262481
0.0261245
0.0259968
0.0258649
0.0257289
0.0255888
0.0254446
0.0252965
0.0251443
0.0249883
0.0248283
0.0246645
0.0244968
0.0243255
0.0241504
0.0239716
0.0237892
0.0236032
0.0234137
0.0232208
0.0230244
0.0228246
0.0226215
0.0224151
0.0222055
0.0219927
0.0217769
0.0215579
0.021336
0.0211111
0.0208833
0.0206526
0.0204192
0.0201831
0.0199442
0.0197028
0.0194588
0.0192123
0.0189634
0.0187121
0.0184584
0.0182024
0.0179443
0.017684
0.0174215
0.017157
0.0168905
0.0166221
0.0163517
0.0160796
0.0158056
0.0155299
0.0152525
0.0149735
0.0146929
0.0144108
0.0141271
0.0138421
0.0135556
0.0132679
0.0129788
0.0126885
0.0123969
0.0121042
0.0118104
0.0115155
0.0112196
0.0109226
0.0106247
0.0103259
0.0100262
0.00972571
0.00942437
0.00912225
0.00881939
0.00851583
0.00821159
0.00790672
0.00760123
0.00729516
0.00698854
0.0066814
0.00637377
0.00606567
0.00575714
0.00544819
0.00513886
0.00482916
0.00451913
0.00420879
0.00389816
0.00358726
0.00327613
0.00296477
0.00265321
0.00234148
0.00202959
0.00171757
0.00140544
0.00109321
0.000780918
0.000468571
0.000156194
0.000176339
0.000529005
0.000881637
0.00123421
0.00158671
0.00193909
0.00229136
0.00264347
0.0029954
0.00334714
0.00369865
0.00404991
0.0044009
0.00475158
0.00510194
0.00545194
0.00580156
0.00615077
0.00649953
0.00684783
0.00719562
0.00754288
0.00788958
0.00823567
0.00858114
0.00892593
0.00927002
0.00961338
0.00995595
0.0102977
0.0106386
0.0109786
0.0113177
0.0116558
0.0119928
0.0123288
0.0126637
0.0129974
0.0133298
0.0136611
0.013991
0.0143195
0.0146466
0.0149723
0.0152964
0.0156189
0.0159398
0.016259
0.0165765
0.0168921
0.0172059
0.0175177
0.0178275
0.0181353
0.0184409
0.0187443
0.0190455
0.0193443
0.0196408
0.0199348
0.0202263
0.0205152
0.0208014
0.0210849
0.0213656
0.0216434
0.0219183
0.0221902
0.0224591
0.0227247
0.0229872
0.0232464
0.0235023
0.0237547
0.0240037
0.0242491
0.0244909
0.024729
0.0249634
0.025194
0.0254207
0.0256435
0.0258623
0.026077
0.0262876
0.0264941
0.0266963
0.0268943
0.0270879
0.0272771
0.0274619
0.0276422
0.027818
0.0279892
0.0281558
0.0283176
0.0284748
0.0286272
0.0287749
0.0289177
0.0290556
0.0291886
0.0293167
0.0294399
0.029558
0.0296711
0.0297792
0.0298822
0.0299801
0.0300729
0.0301605
0.030243
0.0303204
0.0303925
0.0304595
0.0305212
0.0305777
0.030629
0.0306751
0.0307159
0.0307515
0.0307818
0.0308069
0.0308267
0.0308413
0.0308506
0.0308547
0.0308535
0.0308471
0.0308355
0.0308186
0.0307966
0.0307693
0.0307369
0.0306992
0.0306565
0.0306085
0.0305555
0.0304973
0.030434
0.0303657
0.0302923
0.0302139
0.0301304
0.030042
0.0299486
0.0298503
0.0297471
0.029639
0.0295261
0.0294084
0.0292858
0.0291586
0.0290266
0.0288899
0.0287486
0.0286027
0.0284522
0.0282973
0.0281378
0.0279739
0.0278056
0.0276329
0.027456
0.0272747
0.0270893
0.0268997
0.026706
0.0265083
0.0263065
0.0261008
0.0258911
0.0256777
0.0254604
0.0252394
0.0250147
0.0247864
0.0245546
0.0243192
0.0240804
0.0238382
0.0235927
0.0233439
0.023092
0.0228368
0.0225786
0.0223174
0.0220533
0.0217862
0.0215163
0.0212437
0.0209683
0.0206903
0.0204098
0.0201267