/*--------------------------------*- C++ -*----------------------------------*\
| =========                 |                                                 |
| \\      /  F ield         | OpenFOAM: The Open Source CFD Toolbox           |
|  \\    /   O peration     | Version:  v2012                                 |
|   \\  /    A nd           | Website:  www.openfoam.com                      |
|    \\/     M anipulation  |                                                 |
\*---------------------------------------------------------------------------*/
FoamFile
{
    version     2.0;
    format      ascii;
    class       volScalarField;
    location    "0.5";
    object      W;
}
// * * * * * * * * * * * * * * * * * * * * * * * * * * * * * * * * * * * * * //

dimensions      [0 0 -1 0 0 0 0];


internalField   nonuniform List<scalar> 
65536
(
3.06304e-21
3.741e-21
5.06866e-21
7.06313e-21
9.87452e-21
1.37725e-20
1.91448e-20
2.65192e-20
3.66045e-20
5.03467e-20
6.90035e-20
9.42395e-20
1.2825e-19
1.73918e-19
2.35015e-19
3.16451e-19
4.24601e-19
5.67698e-19
7.56339e-19
1.0041e-18
1.32831e-18
1.751e-18
2.30002e-18
3.01051e-18
3.92655e-18
5.1032e-18
6.60899e-18
8.52884e-18
1.09675e-17
1.40534e-17
1.7944e-17
2.28307e-17
2.89453e-17
3.65677e-17
4.60338e-17
5.77454e-17
7.21801e-17
8.99036e-17
1.11583e-16
1.37999e-16
1.70064e-16
2.08838e-16
2.55544e-16
3.11587e-16
3.78574e-16
4.58332e-16
5.52927e-16
6.64679e-16
7.96183e-16
9.50322e-16
1.13028e-15
1.33953e-15
1.5819e-15
1.86148e-15
2.18269e-15
2.55023e-15
2.96907e-15
3.44441e-15
3.98163e-15
4.58626e-15
5.26391e-15
6.02016e-15
6.86053e-15
7.79035e-15
8.81464e-15
9.93802e-15
1.11646e-14
1.24977e-14
1.39401e-14
1.54933e-14
1.7158e-14
1.89336e-14
2.08181e-14
2.28082e-14
2.48989e-14
2.70837e-14
2.93545e-14
3.17014e-14
3.41129e-14
3.65757e-14
3.90752e-14
4.15951e-14
4.4118e-14
4.6625e-14
4.90965e-14
5.15123e-14
5.38516e-14
5.60933e-14
5.82168e-14
6.02017e-14
6.20286e-14
6.36789e-14
6.51358e-14
6.63839e-14
6.74101e-14
6.82032e-14
6.87546e-14
6.90585e-14
6.91115e-14
6.89132e-14
6.84661e-14
6.77753e-14
6.68489e-14
6.56974e-14
6.4334e-14
6.2774e-14
6.10349e-14
5.91359e-14
5.70976e-14
5.4942e-14
5.26918e-14
5.03706e-14
4.80019e-14
4.56095e-14
4.32168e-14
4.08468e-14
3.85216e-14
3.62624e-14
3.40894e-14
3.20216e-14
3.00764e-14
2.82699e-14
2.66168e-14
2.513e-14
2.38212e-14
2.27002e-14
2.17755e-14
2.10539e-14
2.05407e-14
2.02397e-14
2.01533e-14
2.02822e-14
2.06257e-14
2.11816e-14
2.19461e-14
2.29139e-14
2.4078e-14
2.543e-14
2.69597e-14
2.86553e-14
3.05034e-14
3.2489e-14
3.45953e-14
3.68043e-14
3.90961e-14
4.14499e-14
4.38435e-14
4.62535e-14
4.86562e-14
5.10268e-14
5.33407e-14
5.5573e-14
5.76993e-14
5.96957e-14
6.15397e-14
6.32097e-14
6.46861e-14
6.59511e-14
6.69893e-14
6.77878e-14
6.83364e-14
6.86279e-14
6.86582e-14
6.84261e-14
6.79337e-14
6.71861e-14
6.61913e-14
6.49601e-14
6.3506e-14
6.18447e-14
5.99941e-14
5.79736e-14
5.58042e-14
5.35075e-14
5.11063e-14
4.86231e-14
4.60806e-14
4.35011e-14
4.09061e-14
3.83158e-14
3.57496e-14
3.3225e-14
3.0758e-14
2.83628e-14
2.60519e-14
2.38355e-14
2.17223e-14
1.97188e-14
1.78298e-14
1.60586e-14
1.44065e-14
1.28736e-14
1.14585e-14
1.01589e-14
8.97125e-15
7.89125e-15
6.91392e-15
6.03377e-15
5.24489e-15
4.54118e-15
3.91637e-15
3.3642e-15
2.87846e-15
2.45314e-15
2.08239e-15
1.7607e-15
1.48281e-15
1.24385e-15
1.03926e-15
8.64895e-16
7.16933e-16
5.91932e-16
4.8679e-16
3.98739e-16
3.25321e-16
2.64369e-16
2.13986e-16
1.72519e-16
1.38536e-16
1.10806e-16
8.82755e-17
7.00472e-17
5.53626e-17
4.35828e-17
3.41735e-17
2.66893e-17
2.07615e-17
1.60862e-17
1.24143e-17
9.54253e-18
7.30599e-18
5.57144e-18
4.23184e-18
3.20158e-18
2.41253e-18
1.81073e-18
1.35366e-18
1.00794e-18
7.47544e-19
5.52218e-19
4.06309e-19
2.97767e-19
2.17354e-19
1.58028e-19
1.14439e-19
8.25437e-20
5.93019e-20
4.24352e-20
3.02452e-20
2.14715e-20
1.51826e-20
1.06944e-20
7.50971e-21
5.2821e-21
3.8069e-21
3.02811e-21
4.22063e-21
5.15539e-21
6.98556e-21
9.73468e-21
1.36097e-20
1.89824e-20
2.63872e-20
3.65516e-20
5.04525e-20
6.9394e-20
9.51092e-20
1.29893e-19
1.7677e-19
2.39715e-19
3.23924e-19
4.36167e-19
5.85226e-19
7.82449e-19
1.04244e-18
1.3839e-18
1.83072e-18
2.41323e-18
3.16983e-18
4.14893e-18
5.41122e-18
7.0326e-18
9.10744e-18
1.17527e-17
1.51126e-17
1.93643e-17
2.47242e-17
3.1456e-17
3.9879e-17
5.03784e-17
6.34167e-17
7.95466e-17
9.94257e-17
1.23832e-16
1.53684e-16
1.90056e-16
2.34202e-16
2.8758e-16
3.51871e-16
4.29008e-16
5.212e-16
6.30957e-16
7.61117e-16
9.14869e-16
1.09578e-15
1.30779e-15
1.55529e-15
1.84305e-15
2.1763e-15
2.56066e-15
3.0022e-15
3.50734e-15
4.08291e-15
4.736e-15
5.474e-15
6.30447e-15
7.23505e-15
8.2734e-15
9.42701e-15
1.07032e-14
1.21087e-14
1.36499e-14
1.53322e-14
1.71604e-14
1.91378e-14
2.12668e-14
2.35479e-14
2.59804e-14
2.85613e-14
3.1286e-14
3.41477e-14
3.71373e-14
4.02436e-14
4.34528e-14
4.67491e-14
5.01144e-14
5.35284e-14
5.69688e-14
6.04116e-14
6.38311e-14
6.72005e-14
7.04919e-14
7.36769e-14
7.67269e-14
7.96136e-14
8.23093e-14
8.47875e-14
8.70231e-14
8.8993e-14
9.06767e-14
9.20562e-14
9.31166e-14
9.38464e-14
9.42378e-14
9.42866e-14
9.39924e-14
9.33588e-14
9.23933e-14
9.11068e-14
8.95142e-14
8.76336e-14
8.54862e-14
8.30959e-14
8.04891e-14
7.7694e-14
7.47408e-14
7.16605e-14
6.84851e-14
6.52469e-14
6.19782e-14
5.87108e-14
5.5476e-14
5.23038e-14
4.92231e-14
4.6261e-14
4.34432e-14
4.07932e-14
3.8333e-14
3.60819e-14
3.40577e-14
3.22757e-14
3.07492e-14
2.94894e-14
2.85053e-14
2.78039e-14
2.73902e-14
2.7267e-14
2.7435e-14
2.78932e-14
2.86383e-14
2.9665e-14
3.09657e-14
3.2531e-14
3.43492e-14
3.64064e-14
3.86864e-14
4.1171e-14
4.38397e-14
4.66699e-14
4.9637e-14
5.27143e-14
5.58734e-14
5.90845e-14
6.23161e-14
6.55362e-14
6.87115e-14
7.18088e-14
7.47948e-14
7.76368e-14
8.03027e-14
8.27623e-14
8.4987e-14
8.69503e-14
8.86289e-14
9.0002e-14
9.10526e-14
9.17674e-14
9.21368e-14
9.21557e-14
9.18226e-14
9.11407e-14
9.0117e-14
8.87624e-14
8.70919e-14
8.51235e-14
8.28785e-14
8.03811e-14
7.76574e-14
7.47355e-14
7.16449e-14
6.84156e-14
6.50782e-14
6.1663e-14
5.81998e-14
5.47174e-14
5.12428e-14
4.78019e-14
4.4418e-14
4.11125e-14
3.79043e-14
3.48099e-14
3.1843e-14
2.9015e-14
2.63345e-14
2.3808e-14
2.14395e-14
1.92309e-14
1.7182e-14
1.52912e-14
1.35549e-14
1.19686e-14
1.05263e-14
9.22142e-15
8.04647e-15
6.99357e-15
6.05449e-15
5.22084e-15
4.48423e-15
3.83635e-15
3.26913e-15
2.77477e-15
2.34587e-15
1.97543e-15
1.65692e-15
1.38427e-15
1.15191e-15
9.54763e-16
7.88228e-16
6.48167e-16
5.30884e-16
4.33102e-16
3.51932e-16
2.84842e-16
2.29628e-16
1.84384e-16
1.47468e-16
1.17476e-16
9.32128e-17
7.36678e-17
5.79903e-17
4.54682e-17
3.55087e-17
2.76209e-17
2.14001e-17
1.65146e-17
1.26938e-17
9.71837e-18
7.41086e-18
5.62882e-18
4.25835e-18
3.20877e-18
2.40829e-18
1.80034e-18
1.34052e-18
9.94182e-19
7.344e-19
5.40347e-19
3.95992e-19
2.89051e-19
2.10153e-19
1.52185e-19
1.09769e-19
7.88614e-20
5.64315e-20
4.02209e-20
2.85534e-20
2.01903e-20
1.42218e-20
9.98669e-21
7.02421e-21
5.06214e-21
4.02625e-21
6.60989e-21
8.07416e-21
1.09409e-20
1.52467e-20
2.1316e-20
2.97309e-20
4.13284e-20
5.72481e-20
7.90199e-20
1.08686e-19
1.4896e-19
2.03437e-19
2.76854e-19
3.75433e-19
5.07312e-19
6.83092e-19
9.16525e-19
1.22538e-18
1.63251e-18
2.16722e-18
2.86689e-18
3.77901e-18
4.96371e-18
6.49673e-18
8.47312e-18
1.10116e-17
1.426e-17
1.84012e-17
2.3661e-17
3.03166e-17
3.87066e-17
4.92436e-17
6.2427e-17
7.88595e-17
9.92645e-17
1.24506e-16
1.55614e-16
1.93803e-16
2.40509e-16
2.97413e-16
3.66476e-16
4.49973e-16
5.50535e-16
6.71179e-16
8.15358e-16
9.86991e-16
1.19051e-15
1.4309e-15
1.71371e-15
2.04513e-15
2.43196e-15
2.88169e-15
3.40243e-15
4.00298e-15
4.69277e-15
5.48184e-15
6.38079e-15
7.4007e-15
8.55304e-15
9.84957e-15
1.13022e-14
1.29228e-14
1.47229e-14
1.6714e-14
1.89066e-14
2.13103e-14
2.39338e-14
2.6784e-14
2.98664e-14
3.31843e-14
3.67386e-14
4.05278e-14
4.45475e-14
4.879e-14
5.32447e-14
5.78973e-14
6.27301e-14
6.77217e-14
7.28472e-14
7.80783e-14
8.33832e-14
8.87273e-14
9.40729e-14
9.93803e-14
1.04607e-13
1.09711e-13
1.14647e-13
1.19371e-13
1.23839e-13
1.28007e-13
1.31836e-13
1.35286e-13
1.38321e-13
1.40909e-13
1.43024e-13
1.44642e-13
1.45746e-13
1.46323e-13
1.46368e-13
1.45881e-13
1.44867e-13
1.43338e-13
1.41311e-13
1.38811e-13
1.35865e-13
1.32506e-13
1.28772e-13
1.24705e-13
1.20347e-13
1.15747e-13
1.10951e-13
1.06011e-13
1.00975e-13
9.58944e-14
9.08182e-14
8.57946e-14
8.08701e-14
7.60892e-14
7.14939e-14
6.71235e-14
6.30146e-14
5.92005e-14
5.57113e-14
5.25738e-14
4.98117e-14
4.74451e-14
4.54911e-14
4.39632e-14
4.2872e-14
4.22247e-14
4.20255e-14
4.22753e-14
4.2972e-14
4.41102e-14
4.56815e-14
4.76741e-14
5.0073e-14
5.28599e-14
5.60132e-14
5.9508e-14
6.33157e-14
6.74049e-14
7.17404e-14
7.62843e-14
8.09955e-14
8.58305e-14
9.0743e-14
9.56852e-14
1.00607e-13
1.05459e-13
1.10189e-13
1.14746e-13
1.1908e-13
1.23142e-13
1.26887e-13
1.3027e-13
1.33252e-13
1.35795e-13
1.37871e-13
1.39452e-13
1.40518e-13
1.41055e-13
1.41055e-13
1.40518e-13
1.39447e-13
1.37854e-13
1.35755e-13
1.33175e-13
1.30141e-13
1.26685e-13
1.22845e-13
1.18661e-13
1.14176e-13
1.09435e-13
1.04484e-13
9.93699e-14
9.41392e-14
8.88373e-14
8.35079e-14
7.81926e-14
7.29304e-14
6.77571e-14
6.27051e-14
5.78033e-14
5.30765e-14
4.85457e-14
4.4228e-14
4.01366e-14
3.6281e-14
3.26672e-14
2.92981e-14
2.61734e-14
2.32901e-14
2.06431e-14
1.82251e-14
1.6027e-14
1.40386e-14
1.22485e-14
1.06446e-14
9.21432e-15
7.94478e-15
6.82317e-15
5.8368e-15
4.97333e-15
4.22088e-15
3.56814e-15
3.00443e-15
2.51979e-15
2.10499e-15
1.75151e-15
1.45164e-15
1.19835e-15
9.85344e-16
8.06996e-16
6.58315e-16
5.34903e-16
4.32906e-16
3.48972e-16
2.80198e-16
2.24087e-16
1.78503e-16
1.41628e-16
1.11926e-16
8.81028e-17
6.90755e-17
5.39428e-17
4.19585e-17
3.25073e-17
2.50852e-17
1.9281e-17
1.4761e-17
1.12559e-17
8.54902e-18
6.46738e-18
4.87321e-18
3.65744e-18
2.73409e-18
2.03575e-18
1.50976e-18
1.11524e-18
8.20545e-19
6.01327e-19
4.38929e-19
3.19118e-19
2.31091e-19
1.66682e-19
1.19748e-19
8.56889e-20
6.10737e-20
4.3357e-20
3.0658e-20
2.15951e-20
1.51643e-20
1.06658e-20
7.68615e-21
6.11283e-21
1.06402e-20
1.29973e-20
1.76118e-20
2.45431e-20
3.43127e-20
4.7858e-20
6.65261e-20
9.21511e-20
1.27195e-19
1.74946e-19
2.39771e-19
3.27454e-19
4.45621e-19
6.04284e-19
8.16539e-19
1.09945e-18
1.47513e-18
1.97219e-18
2.6274e-18
3.4879e-18
4.61384e-18
6.08163e-18
7.98799e-18
1.04548e-17
1.36349e-17
1.77193e-17
2.29457e-17
2.96085e-17
3.80705e-17
4.87776e-17
6.22745e-17
7.92243e-17
1.0043e-16
1.26861e-16
1.5968e-16
2.00276e-16
2.50303e-16
3.11716e-16
3.8682e-16
4.78316e-16
5.89355e-16
7.23594e-16
8.85255e-16
1.07919e-15
1.31093e-15
1.58679e-15
1.91386e-15
2.30016e-15
2.75459e-15
3.28707e-15
3.90854e-15
4.63096e-15
5.46739e-15
6.43191e-15
7.53964e-15
8.80666e-15
1.025e-14
1.18873e-14
1.37369e-14
1.58178e-14
1.81489e-14
2.07491e-14
2.36372e-14
2.68311e-14
3.03476e-14
3.42022e-14
3.84086e-14
4.29778e-14
4.79183e-14
5.32353e-14
5.89302e-14
6.50004e-14
7.14384e-14
7.8232e-14
8.53638e-14
9.28108e-14
1.00544e-13
1.0853e-13
1.16728e-13
1.25093e-13
1.33573e-13
1.42113e-13
1.50653e-13
1.59129e-13
1.67473e-13
1.75617e-13
1.83489e-13
1.9102e-13
1.98137e-13
2.04774e-13
2.10864e-13
2.16346e-13
2.21163e-13
2.25264e-13
2.28606e-13
2.31152e-13
2.32875e-13
2.33757e-13
2.33788e-13
2.32967e-13
2.31306e-13
2.28823e-13
2.25547e-13
2.21515e-13
2.16774e-13
2.11376e-13
2.05381e-13
1.98856e-13
1.91872e-13
1.84501e-13
1.76824e-13
1.68917e-13
1.60862e-13
1.52739e-13
1.44625e-13
1.36599e-13
1.28733e-13
1.21098e-13
1.13762e-13
1.06787e-13
1.0023e-13
9.4144e-14
8.85772e-14
8.35718e-14
7.91648e-14
7.53881e-14
7.22681e-14
6.98264e-14
6.80789e-14
6.70371e-14
6.67068e-14
6.70893e-14
6.81808e-14
6.99722e-14
7.24499e-14
7.55946e-14
7.93824e-14
8.37839e-14
8.87643e-14
9.42839e-14
1.00297e-13
1.06754e-13
1.13599e-13
1.2077e-13
1.28205e-13
1.35832e-13
1.43579e-13
1.51371e-13
1.59128e-13
1.6677e-13
1.74217e-13
1.81389e-13
1.88206e-13
1.94592e-13
2.00474e-13
2.05782e-13
2.10454e-13
2.14434e-13
2.17674e-13
2.20131e-13
2.21776e-13
2.22586e-13
2.22549e-13
2.21664e-13
2.19938e-13
2.1739e-13
2.14047e-13
2.09945e-13
2.05129e-13
1.9965e-13
1.93569e-13
1.86947e-13
1.79854e-13
1.7236e-13
1.64539e-13
1.56463e-13
1.48206e-13
1.39839e-13
1.31432e-13
1.2305e-13
1.14753e-13
1.06599e-13
9.86386e-14
9.09162e-14
8.34712e-14
7.63365e-14
6.95387e-14
6.30984e-14
5.70305e-14
5.13442e-14
4.60438e-14
4.11286e-14
3.65941e-14
3.24317e-14
2.86298e-14
2.51744e-14
2.2049e-14
1.92357e-14
1.67153e-14
1.4468e-14
1.24736e-14
1.07117e-14
9.16243e-15
7.80636e-15
6.62477e-15
5.59985e-15
4.71482e-15
3.95401e-15
3.30287e-15
2.74806e-15
2.27742e-15
1.87993e-15
1.54568e-15
1.26584e-15
1.03256e-15
8.38945e-16
6.78937e-16
5.47273e-16
4.39397e-16
3.51389e-16
2.79897e-16
2.22067e-16
1.75488e-16
1.3813e-16
1.08295e-16
8.4567e-17
6.57766e-17
5.09587e-17
3.93225e-17
3.02232e-17
2.31374e-17
1.76427e-17
1.33996e-17
1.01366e-17
7.63784e-18
5.73222e-18
4.28499e-18
3.19045e-18
2.36608e-18
1.74776e-18
1.28591e-18
9.4235e-19
6.87844e-19
5.00083e-19
3.62134e-19
2.61199e-19
1.8765e-19
1.34276e-19
9.57033e-20
6.79406e-20
4.80411e-20
3.38393e-20
2.37622e-20
1.6713e-20
1.20437e-20
9.57799e-21
1.7152e-20
2.09511e-20
2.83892e-20
3.95615e-20
5.5309e-20
7.71421e-20
1.07232e-19
1.48535e-19
2.05019e-19
2.81982e-19
3.86464e-19
5.27785e-19
7.18233e-19
9.73944e-19
1.31602e-18
1.77195e-18
2.37739e-18
3.17841e-18
4.23428e-18
5.62093e-18
7.43526e-18
9.80039e-18
1.28721e-17
1.68468e-17
2.19706e-17
2.85512e-17
3.69715e-17
4.77054e-17
6.13376e-17
7.85857e-17
1.00327e-16
1.27629e-16
1.61786e-16
2.04356e-16
2.57212e-16
3.22591e-16
4.03153e-16
5.02046e-16
6.22978e-16
7.70297e-16
9.49071e-16
1.16518e-15
1.42542e-15
1.7376e-15
2.11061e-15
2.55458e-15
3.08096e-15
3.70258e-15
4.4338e-15
5.29053e-15
6.29035e-15
7.45248e-15
8.79789e-15
1.03492e-14
1.21306e-14
1.4168e-14
1.64886e-14
1.91209e-14
2.20943e-14
2.54389e-14
2.91852e-14
3.33636e-14
3.80039e-14
4.31348e-14
4.87834e-14
5.49741e-14
6.17287e-14
6.90649e-14
7.69961e-14
8.55302e-14
9.46694e-14
1.04409e-13
1.14737e-13
1.25633e-13
1.3707e-13
1.49009e-13
1.61406e-13
1.74203e-13
1.87338e-13
2.00736e-13
2.14316e-13
2.27987e-13
2.41655e-13
2.55214e-13
2.6856e-13
2.81579e-13
2.94159e-13
3.06186e-13
3.17548e-13
3.28136e-13
3.37844e-13
3.46573e-13
3.54235e-13
3.60747e-13
3.66041e-13
3.70059e-13
3.72758e-13
3.74109e-13
3.74097e-13
3.72723e-13
3.70003e-13
3.6597e-13
3.60669e-13
3.54162e-13
3.46522e-13
3.37835e-13
3.28198e-13
3.17716e-13
3.06502e-13
2.94677e-13
2.82364e-13
2.69691e-13
2.56785e-13
2.43773e-13
2.30782e-13
2.17934e-13
2.05347e-13
1.93133e-13
1.81399e-13
1.70245e-13
1.59761e-13
1.50032e-13
1.41133e-13
1.33132e-13
1.26087e-13
1.20048e-13
1.15056e-13
1.11146e-13
1.08342e-13
1.06662e-13
1.06115e-13
1.06701e-13
1.08415e-13
1.11241e-13
1.15157e-13
1.20131e-13
1.26126e-13
1.33094e-13
1.40978e-13
1.49717e-13
1.59236e-13
1.69456e-13
1.80288e-13
1.91636e-13
2.03396e-13
2.15459e-13
2.27708e-13
2.40023e-13
2.52279e-13
2.6435e-13
2.76108e-13
2.87426e-13
2.98178e-13
3.08244e-13
3.17507e-13
3.25861e-13
3.33206e-13
3.39452e-13
3.44524e-13
3.48359e-13
3.50906e-13
3.52133e-13
3.5202e-13
3.50566e-13
3.47784e-13
3.43702e-13
3.38366e-13
3.31832e-13
3.24173e-13
3.1547e-13
3.05817e-13
2.95314e-13
2.8407e-13
2.72197e-13
2.59809e-13
2.47024e-13
2.33958e-13
2.20722e-13
2.07425e-13
1.94172e-13
1.81058e-13
1.68172e-13
1.55595e-13
1.43397e-13
1.31639e-13
1.20373e-13
1.09642e-13
9.94768e-14
8.99009e-14
8.09288e-14
7.25668e-14
6.48139e-14
5.76623e-14
5.10986e-14
4.51043e-14
3.96569e-14
3.47304e-14
3.02964e-14
2.63245e-14
2.27834e-14
1.96411e-14
1.68655e-14
1.44251e-14
1.22892e-14
1.04283e-14
8.81434e-15
7.42077e-15
6.22289e-15
5.19778e-15
4.32441e-15
3.58358e-15
2.95794e-15
2.43189e-15
1.99149e-15
1.6244e-15
1.31974e-15
1.06798e-15
8.60828e-16
6.91114e-16
5.52665e-16
4.40202e-16
3.49238e-16
2.75974e-16
2.17216e-16
1.70292e-16
1.32976e-16
1.03426e-16
8.01241e-17
6.18263e-17
4.75181e-17
3.63766e-17
2.77371e-17
2.10657e-17
1.59356e-17
1.2007e-17
9.0111e-18
6.73592e-18
5.01523e-18
3.7193e-18
2.7473e-18
2.02128e-18
1.48123e-18
1.08117e-18
7.86033e-19
5.69198e-19
4.10545e-19
2.9494e-19
2.11048e-19
1.5042e-19
1.06784e-19
7.55067e-20
5.31853e-20
3.7347e-20
2.62675e-20
1.89285e-20
1.50529e-20
2.75594e-20
3.3663e-20
4.56133e-20
6.35632e-20
8.88636e-20
1.23941e-19
1.72284e-19
2.3864e-19
3.29386e-19
4.53029e-19
6.2088e-19
8.47909e-19
1.15385e-18
1.56463e-18
2.11414e-18
2.84653e-18
3.81906e-18
5.10573e-18
6.8017e-18
9.02894e-18
1.1943e-17
1.57417e-17
2.06751e-17
2.70585e-17
3.52871e-17
4.58551e-17
5.93768e-17
7.66133e-17
9.8503e-17
1.26198e-16
1.61106e-16
2.04941e-16
2.59778e-16
3.28121e-16
4.12972e-16
5.1792e-16
6.47234e-16
8.05964e-16
1.00006e-15
1.23649e-15
1.52338e-15
1.87018e-15
2.28776e-15
2.78863e-15
3.38708e-15
4.09933e-15
4.94371e-15
5.9408e-15
7.11358e-15
8.48758e-15
1.00909e-14
1.19544e-14
1.41115e-14
1.65985e-14
1.94542e-14
2.27199e-14
2.64392e-14
3.06575e-14
3.54219e-14
4.07806e-14
4.67821e-14
5.34751e-14
6.0907e-14
6.91236e-14
7.8168e-14
8.80792e-14
9.88914e-14
1.10633e-13
1.23325e-13
1.3698e-13
1.516e-13
1.67178e-13
1.83694e-13
2.01116e-13
2.19399e-13
2.38481e-13
2.5829e-13
2.78735e-13
2.99714e-13
3.21108e-13
3.42787e-13
3.64607e-13
3.86414e-13
4.08042e-13
4.2932e-13
4.50071e-13
4.70113e-13
4.89266e-13
5.07349e-13
5.24189e-13
5.39618e-13
5.5348e-13
5.65631e-13
5.75943e-13
5.84306e-13
5.9063e-13
5.94846e-13
5.96908e-13
5.96794e-13
5.94508e-13
5.90075e-13
5.83549e-13
5.75004e-13
5.64538e-13
5.52269e-13
5.38335e-13
5.2289e-13
5.06105e-13
4.8816e-13
4.69247e-13
4.49563e-13
4.29312e-13
4.08696e-13
3.8792e-13
3.67183e-13
3.4668e-13
3.26599e-13
3.07119e-13
2.88408e-13
2.70624e-13
2.53912e-13
2.38405e-13
2.24223e-13
2.1147e-13
2.0024e-13
1.90611e-13
1.82649e-13
1.76406e-13
1.71921e-13
1.6922e-13
1.68317e-13
1.69212e-13
1.71894e-13
1.76339e-13
1.8251e-13
1.90357e-13
1.99818e-13
2.10816e-13
2.23264e-13
2.37059e-13
2.52086e-13
2.68218e-13
2.85313e-13
3.03218e-13
3.21771e-13
3.40795e-13
3.60109e-13
3.79521e-13
3.98834e-13
4.17849e-13
4.36362e-13
4.54175e-13
4.71089e-13
4.86913e-13
5.01467e-13
5.14579e-13
5.26094e-13
5.35874e-13
5.43797e-13
5.49765e-13
5.53701e-13
5.55553e-13
5.55292e-13
5.52917e-13
5.48448e-13
5.41934e-13
5.33443e-13
5.23069e-13
5.10923e-13
4.97138e-13
4.8186e-13
4.65249e-13
4.47474e-13
4.28714e-13
4.09151e-13
3.88967e-13
3.68346e-13
3.47464e-13
3.26492e-13
3.05594e-13
2.84921e-13
2.64613e-13
2.44794e-13
2.25578e-13
2.07059e-13
1.89318e-13
1.72422e-13
1.5642e-13
1.41348e-13
1.27229e-13
1.14071e-13
1.01874e-13
9.06249e-14
8.03016e-14
7.08751e-14
6.23098e-14
5.45644e-14
4.75942e-14
4.13512e-14
3.57859e-14
3.08478e-14
2.64865e-14
2.26523e-14
1.92968e-14
1.63737e-14
1.38386e-14
1.16499e-14
9.76872e-15
8.15899e-15
6.78764e-15
5.6245e-15
4.64228e-15
3.81647e-15
3.12516e-15
2.54897e-15
2.0708e-15
1.67569e-15
1.3506e-15
1.08428e-15
8.67029e-16
6.90567e-16
5.47845e-16
4.329e-16
3.40719e-16
2.67105e-16
2.08568e-16
1.62214e-16
1.25663e-16
9.69628e-17
7.45211e-17
5.70467e-17
4.34969e-17
3.30341e-17
2.49887e-17
1.88279e-17
1.41298e-17
1.0562e-17
7.86377e-18
5.83167e-18
4.30755e-18
3.16916e-18
2.32239e-18
1.69512e-18
1.23237e-18
8.92397e-19
6.43651e-19
4.62401e-19
3.30874e-19
2.35821e-19
1.67409e-19
1.18374e-19
8.33798e-20
5.85493e-20
4.11795e-20
2.96738e-20
2.35974e-20
4.41097e-20
5.38773e-20
7.30025e-20
1.0173e-19
1.4222e-19
1.98357e-19
2.75722e-19
3.81915e-19
5.27135e-19
7.24999e-19
9.93603e-19
1.3569e-18
1.84648e-18
2.50379e-18
3.38308e-18
4.55497e-18
6.11109e-18
8.16979e-18
1.08833e-17
1.44468e-17
1.91091e-17
2.51865e-17
3.3079e-17
4.32908e-17
5.64544e-17
7.33596e-17
9.49891e-17
1.2256e-16
1.57572e-16
2.01868e-16
2.57699e-16
3.27804e-16
4.15501e-16
5.24791e-16
6.60474e-16
8.28288e-16
1.03505e-15
1.28883e-15
1.59914e-15
1.97711e-15
2.43573e-15
2.99006e-15
3.65751e-15
4.45803e-15
5.41444e-15
6.55264e-15
7.90189e-15
9.49504e-15
1.13688e-14
1.35638e-14
1.6125e-14
1.91014e-14
2.25467e-14
2.65184e-14
3.10785e-14
3.62928e-14
4.22307e-14
4.89646e-14
5.65695e-14
6.5122e-14
7.46994e-14
8.5379e-14
9.72363e-14
1.10344e-13
1.2477e-13
1.40576e-13
1.57818e-13
1.76538e-13
1.96771e-13
2.18535e-13
2.41834e-13
2.66656e-13
2.92968e-13
3.20719e-13
3.49834e-13
3.80217e-13
4.1175e-13
4.4429e-13
4.77671e-13
5.11706e-13
5.46184e-13
5.80878e-13
6.15539e-13
6.49907e-13
6.83708e-13
7.16658e-13
7.48471e-13
7.78857e-13
8.07532e-13
8.34218e-13
8.58651e-13
8.80581e-13
8.99783e-13
9.16053e-13
9.29217e-13
9.39133e-13
9.45694e-13
9.48828e-13
9.48502e-13
9.44723e-13
9.37534e-13
9.27019e-13
9.133e-13
8.96534e-13
8.76909e-13
8.54647e-13
8.29993e-13
8.03219e-13
7.74612e-13
7.44478e-13
7.13131e-13
6.80893e-13
6.48088e-13
6.15038e-13
5.82061e-13
5.49465e-13
5.17549e-13
4.86594e-13
4.56868e-13
4.2862e-13
4.02079e-13
3.77454e-13
3.54933e-13
3.34683e-13
3.16849e-13
3.01554e-13
2.889e-13
2.78968e-13
2.71819e-13
2.67493e-13
2.6601e-13
2.6737e-13
2.71552e-13
2.78517e-13
2.88206e-13
3.00538e-13
3.15414e-13
3.32713e-13
3.52293e-13
3.73993e-13
3.9763e-13
4.23001e-13
4.49884e-13
4.78036e-13
5.072e-13
5.37099e-13
5.67444e-13
5.97935e-13
6.28261e-13
6.58108e-13
6.87157e-13
7.15094e-13
7.41608e-13
7.664e-13
7.89185e-13
8.09696e-13
8.27689e-13
8.42947e-13
8.55283e-13
8.6454e-13
8.70602e-13
8.73386e-13
8.7285e-13
8.68991e-13
8.61846e-13
8.51488e-13
8.38031e-13
8.2162e-13
8.02433e-13
7.80678e-13
7.56585e-13
7.30407e-13
7.02411e-13
6.72877e-13
6.42091e-13
6.1034e-13
5.77911e-13
5.45082e-13
5.12122e-13
4.79286e-13
4.46811e-13
4.14916e-13
3.83798e-13
3.5363e-13
3.24564e-13
2.96724e-13
2.70214e-13
2.45111e-13
2.21471e-13
1.99329e-13
1.78698e-13
1.59576e-13
1.41941e-13
1.25761e-13
1.10989e-13
9.75669e-14
8.54318e-14
7.45124e-14
6.47333e-14
5.60167e-14
4.82832e-14
4.14538e-14
3.54503e-14
3.0197e-14
2.56209e-14
2.16526e-14
1.82269e-14
1.52827e-14
1.27636e-14
1.06177e-14
8.7977e-15
7.26094e-15
5.96896e-15
4.88751e-15
3.98619e-15
3.23825e-15
2.62025e-15
2.11182e-15
1.69532e-15
1.35559e-15
1.07965e-15
8.56477e-16
6.76751e-16
5.32625e-16
4.17535e-16
3.26019e-16
2.53554e-16
1.96416e-16
1.51552e-16
1.16472e-16
8.91583e-17
6.79796e-17
5.16265e-17
3.9052e-17
2.94233e-17
2.20808e-17
1.6505e-17
1.22884e-17
9.11273e-18
6.73099e-18
4.95206e-18
3.62885e-18
2.64867e-18
1.92559e-18
1.39436e-18
1.00569e-18
7.22482e-19
5.16972e-19
3.68454e-19
2.61563e-19
1.84949e-19
1.30272e-19
9.14766e-20
6.43377e-20
4.63607e-20
3.68664e-20
7.03195e-20
8.58887e-20
1.16375e-19
1.62168e-19
2.26711e-19
3.16195e-19
4.39516e-19
6.08785e-19
8.4026e-19
1.15564e-18
1.58377e-18
2.16283e-18
2.94314e-18
3.99078e-18
5.39219e-18
7.2599e-18
9.73992e-18
1.30208e-17
1.73453e-17
2.3024e-17
3.04537e-17
4.01381e-17
5.27147e-17
6.89864e-17
8.99609e-17
1.16896e-16
1.51358e-16
1.95284e-16
2.51064e-16
3.21631e-16
4.10572e-16
5.22246e-16
6.61938e-16
8.36017e-16
1.05213e-15
1.3194e-15
1.64868e-15
2.05284e-15
2.54697e-15
3.14882e-15
3.87905e-15
4.76164e-15
5.82424e-15
7.09863e-15
8.62107e-15
1.04328e-14
1.25802e-14
1.51157e-14
1.80975e-14
2.15904e-14
2.56655e-14
3.0401e-14
3.58818e-14
4.21997e-14
4.94528e-14
5.77456e-14
6.71883e-14
7.78958e-14
8.99869e-14
1.03583e-13
1.18807e-13
1.35781e-13
1.54625e-13
1.75453e-13
1.98373e-13
2.23483e-13
2.50868e-13
2.806e-13
3.12727e-13
3.47282e-13
3.84268e-13
4.23665e-13
4.6542e-13
5.0945e-13
5.55636e-13
6.03826e-13
6.53828e-13
7.05417e-13
7.58328e-13
8.12262e-13
8.66886e-13
9.21837e-13
9.76721e-13
1.03112e-12
1.08461e-12
1.13673e-12
1.18704e-12
1.23506e-12
1.28036e-12
1.32249e-12
1.36104e-12
1.3956e-12
1.42583e-12
1.45141e-12
1.47205e-12
1.48755e-12
1.49772e-12
1.50246e-12
1.50172e-12
1.49551e-12
1.48391e-12
1.46704e-12
1.44511e-12
1.41836e-12
1.3871e-12
1.35167e-12
1.31247e-12
1.26993e-12
1.22451e-12
1.17668e-12
1.12695e-12
1.07583e-12
1.02383e-12
9.71462e-13
9.19222e-13
8.676e-13
8.17066e-13
7.68066e-13
7.2102e-13
6.76321e-13
6.34329e-13
5.95372e-13
5.59746e-13
5.27712e-13
4.99496e-13
4.75291e-13
4.55256e-13
4.39516e-13
4.28164e-13
4.21262e-13
4.18839e-13
4.20892e-13
4.27387e-13
4.3826e-13
4.53415e-13
4.72724e-13
4.96027e-13
5.23134e-13
5.53819e-13
5.87828e-13
6.2487e-13
6.64626e-13
7.06746e-13
7.50847e-13
7.96523e-13
8.4334e-13
8.90844e-13
9.38563e-13
9.8601e-13
1.03269e-12
1.07811e-12
1.12177e-12
1.16318e-12
1.20188e-12
1.23743e-12
1.2694e-12
1.29742e-12
1.32114e-12
1.34028e-12
1.35459e-12
1.36389e-12
1.36805e-12
1.36702e-12
1.36079e-12
1.34941e-12
1.33301e-12
1.31177e-12
1.28591e-12
1.25571e-12
1.22151e-12
1.18366e-12
1.14255e-12
1.09862e-12
1.0523e-12
1.00403e-12
9.54263e-13
9.03452e-13
8.5203e-13
8.00416e-13
7.49009e-13
6.9818e-13
6.4827e-13
5.99585e-13
5.52396e-13
5.06939e-13
4.63408e-13
4.21962e-13
3.82724e-13
3.45778e-13
3.11177e-13
2.78944e-13
2.49072e-13
2.21528e-13
1.96258e-13
1.73189e-13
1.52233e-13
1.33288e-13
1.16242e-13
1.00978e-13
8.73745e-14
7.53062e-14
6.46498e-14
5.52831e-14
4.70875e-14
3.99491e-14
3.37594e-14
2.84164e-14
2.38248e-14
1.98965e-14
1.65503e-14
1.37127e-14
1.13168e-14
9.30261e-15
7.61678e-15
6.21184e-15
5.04605e-15
4.08286e-15
3.29047e-15
2.6414e-15
2.11198e-15
1.68201e-15
1.33427e-15
1.05425e-15
8.29696e-16
6.50392e-16
5.07821e-16
3.94934e-16
3.05927e-16
2.36042e-16
1.814e-16
1.38856e-16
1.0587e-16
8.03996e-17
6.08156e-17
4.58197e-17
3.43849e-17
2.57016e-17
1.91351e-17
1.41898e-17
1.04809e-17
7.71079e-18
5.65036e-18
4.1241e-18
2.99819e-18
2.17103e-18
1.56584e-18
1.12488e-18
8.04901e-19
5.7366e-19
4.07234e-19
2.87949e-19
2.02821e-19
1.42419e-19
1.00166e-19
7.21767e-20
5.73941e-20
1.11658e-19
1.36377e-19
1.8478e-19
2.57486e-19
3.59964e-19
5.02038e-19
6.97831e-19
9.66572e-19
1.33407e-18
1.83477e-18
2.51447e-18
3.43375e-18
4.6725e-18
6.33563e-18
8.56031e-18
1.15252e-17
1.54619e-17
2.06699e-17
2.75341e-17
3.65479e-17
4.83405e-17
6.37115e-17
8.36724e-17
1.09497e-16
1.42785e-16
1.85531e-16
2.4022e-16
3.09925e-16
3.98439e-16
5.10413e-16
6.51535e-16
8.28723e-16
1.05035e-15
1.32653e-15
1.66937e-15
2.09336e-15
2.6157e-15
3.25676e-15
4.04052e-15
4.99507e-15
6.15316e-15
7.55279e-15
9.2378e-15
1.12585e-14
1.36724e-14
1.65447e-14
1.99492e-14
2.39684e-14
2.86948e-14
3.42308e-14
4.06892e-14
4.81936e-14
5.68783e-14
6.68885e-14
7.83795e-14
9.15165e-14
1.06474e-13
1.23432e-13
1.42581e-13
1.6411e-13
1.88215e-13
2.15087e-13
2.44915e-13
2.77881e-13
3.14154e-13
3.53888e-13
3.97216e-13
4.44249e-13
4.95066e-13
5.49713e-13
6.08198e-13
6.70484e-13
7.36488e-13
8.06076e-13
8.79059e-13
9.55193e-13
1.03418e-12
1.11565e-12
1.19919e-12
1.28433e-12
1.37054e-12
1.45724e-12
1.54381e-12
1.6296e-12
1.71392e-12
1.79605e-12
1.87529e-12
1.95091e-12
2.02219e-12
2.08845e-12
2.14903e-12
2.20331e-12
2.25073e-12
2.29078e-12
2.32304e-12
2.34716e-12
2.36287e-12
2.37001e-12
2.3685e-12
2.35836e-12
2.33972e-12
2.31278e-12
2.27786e-12
2.23536e-12
2.18576e-12
2.12961e-12
2.06754e-12
2.00021e-12
1.92837e-12
1.85276e-12
1.77418e-12
1.69344e-12
1.61133e-12
1.52866e-12
1.44622e-12
1.36478e-12
1.28507e-12
1.20781e-12
1.13363e-12
1.06317e-12
9.96986e-13
9.35591e-13
8.79447e-13
8.28962e-13
7.84489e-13
7.46327e-13
7.14724e-13
6.89873e-13
6.71916e-13
6.60946e-13
6.57006e-13
6.60087e-13
6.70134e-13
6.87042e-13
7.10658e-13
7.40777e-13
7.77146e-13
8.19462e-13
8.67373e-13
9.20473e-13
9.78309e-13
1.04038e-12
1.10613e-12
1.17496e-12
1.24623e-12
1.31927e-12
1.39337e-12
1.46778e-12
1.54174e-12
1.61448e-12
1.68523e-12
1.75321e-12
1.81767e-12
1.87787e-12
1.93312e-12
1.98278e-12
2.02625e-12
2.063e-12
2.09259e-12
2.11463e-12
2.12886e-12
2.13507e-12
2.13316e-12
2.12314e-12
2.10511e-12
2.07925e-12
2.04584e-12
2.00525e-12
1.95791e-12
1.90433e-12
1.84509e-12
1.7808e-12
1.71211e-12
1.63972e-12
1.56432e-12
1.48661e-12
1.40729e-12
1.32703e-12
1.2465e-12
1.16632e-12
1.08705e-12
1.00923e-12
9.33337e-13
8.59791e-13
7.88956e-13
7.21136e-13
6.56575e-13
5.95461e-13
5.37927e-13
4.84054e-13
4.33874e-13
3.87374e-13
3.44505e-13
3.05181e-13
2.69286e-13
2.36683e-13
2.07211e-13
1.80697e-13
1.56958e-13
1.35802e-13
1.17037e-13
1.00468e-13
8.59055e-14
7.31653e-14
6.20693e-14
5.2449e-14
4.41453e-14
3.701e-14
3.09057e-14
2.57066e-14
2.12979e-14
1.75757e-14
1.44468e-14
1.18282e-14
9.64594e-15
7.83529e-15
6.3394e-15
5.10885e-15
4.10091e-15
3.27883e-15
2.61119e-15
2.07128e-15
1.63651e-15
1.2879e-15
1.00954e-15
7.88212e-16
6.12976e-16
4.74813e-16
3.66338e-16
2.81526e-16
2.15494e-16
1.64297e-16
1.24768e-16
9.43739e-17
7.11018e-17
5.33564e-17
3.98814e-17
2.96914e-17
2.20176e-17
1.62624e-17
1.1964e-17
8.76694e-18
6.39875e-18
4.65178e-18
3.36837e-18
2.42939e-18
1.74523e-18
1.24877e-18
8.90002e-19
6.31795e-19
4.46729e-19
3.14658e-19
2.20949e-19
1.55396e-19
1.11971e-19
8.90362e-20
1.76595e-19
2.15684e-19
2.9223e-19
4.0721e-19
5.69268e-19
7.93944e-19
1.10357e-18
1.52854e-18
2.10968e-18
2.90144e-18
3.97622e-18
5.42983e-18
7.38858e-18
1.00183e-17
1.35359e-17
1.82237e-17
2.4448e-17
3.26821e-17
4.35346e-17
5.77851e-17
7.64285e-17
1.00728e-16
1.32283e-16
1.73107e-16
2.25726e-16
2.93296e-16
3.79739e-16
4.89915e-16
6.29813e-16
8.06786e-16
1.02982e-15
1.30983e-15
1.66008e-15
2.09649e-15
2.63823e-15
3.30816e-15
4.13345e-15
5.14627e-15
6.38447e-15
7.8924e-15
9.72179e-15
1.19326e-14
1.4594e-14
1.77855e-14
2.15976e-14
2.61335e-14
3.15092e-14
3.78554e-14
4.53176e-14
5.40572e-14
6.42523e-14
7.60976e-14
8.98049e-14
1.05603e-13
1.23736e-13
1.44465e-13
1.68063e-13
1.94818e-13
2.25023e-13
2.58981e-13
2.96996e-13
3.39372e-13
3.86404e-13
4.38377e-13
4.95556e-13
5.58183e-13
6.26468e-13
7.0058e-13
7.80645e-13
8.66732e-13
9.5885e-13
1.05694e-12
1.16087e-12
1.27042e-12
1.3853e-12
1.50512e-12
1.6294e-12
1.75757e-12
1.88897e-12
2.02285e-12
2.15837e-12
2.29464e-12
2.43068e-12
2.56544e-12
2.69784e-12
2.82678e-12
2.95112e-12
3.06973e-12
3.18149e-12
3.28531e-12
3.38016e-12
3.46508e-12
3.53917e-12
3.60167e-12
3.65189e-12
3.68929e-12
3.71347e-12
3.72417e-12
3.72127e-12
3.70481e-12
3.675e-12
3.63216e-12
3.57681e-12
3.50956e-12
3.43117e-12
3.34254e-12
3.24462e-12
3.1385e-12
3.02531e-12
2.90625e-12
2.78257e-12
2.65552e-12
2.52637e-12
2.39638e-12
2.26679e-12
2.1388e-12
2.01356e-12
1.89218e-12
1.77569e-12
1.66504e-12
1.56111e-12
1.46472e-12
1.37658e-12
1.29732e-12
1.22748e-12
1.16755e-12
1.11788e-12
1.07879e-12
1.05049e-12
1.03313e-12
1.02675e-12
1.03135e-12
1.04683e-12
1.07302e-12
1.10968e-12
1.15648e-12
1.21303e-12
1.27884e-12
1.35337e-12
1.43597e-12
1.52594e-12
1.62248e-12
1.72474e-12
1.83177e-12
1.94258e-12
2.05612e-12