/*--------------------------------*- C++ -*----------------------------------*\
| =========                 |                                                 |
| \\      /  F ield         | OpenFOAM: The Open Source CFD Toolbox           |
|  \\    /   O peration     | Version:  v2012                                 |
|   \\  /    A nd           | Website:  www.openfoam.com                      |
|    \\/     M anipulation  |                                                 |
\*---------------------------------------------------------------------------*/
FoamFile
{
    version     2.0;
    format      ascii;
    class       volVectorField;
    location    "0";
    object      uRec;
}
// * * * * * * * * * * * * * * * * * * * * * * * * * * * * * * * * * * * * * //

dimensions      [0 1 -1 0 0 0 0];


internalField   nonuniform List<vector> 
4000
(
(1 -6.09482e-16 0)
(1 3.35894e-15 0)
(1 3.83187e-15 0)
(1 1.62127e-15 0)
(1 4.99092e-17 0)
(1 8.8778e-17 0)
(1 -1.0889e-15 0)
(1 -2.30453e-15 0)
(1 -3.68029e-15 0)
(1 -4.89279e-16 0)
(1 3.64852e-15 0)
(1 8.55368e-16 0)
(1 6.19668e-16 0)
(1 3.04241e-16 0)
(1 4.29896e-15 0)
(1 -2.29667e-15 0)
(1 -4.1283e-15 0)
(1 -4.70416e-15 0)
(1 -2.54649e-17 0)
(1 -4.86334e-15 0)
(1 -5.2728e-15 0)
(1 -5.94309e-15 0)
(1 4.0857e-15 0)
(1 2.1397e-15 0)
(1 6.3268e-15 0)
(1 1.84416e-15 0)
(1 2.84967e-15 0)
(1 -5.58435e-17 0)
(1 -3.58646e-16 0)
(1 7.80569e-16 0)
(1 2.21883e-16 0)
(1 -3.36765e-15 0)
(1 -3.79733e-15 0)
(1 1.11298e-15 0)
(1 3.13643e-15 0)
(1 4.00278e-15 0)
(1 5.69783e-15 0)
(1 2.45359e-15 0)
(1 2.50766e-15 0)
(1 1.31868e-16 0)
(1 1.11314e-15 0)
(1 -1.1387e-15 0)
(1 4.73967e-17 0)
(1 -3.70942e-15 0)
(1 -3.09811e-15 0)
(1 -8.98204e-16 0)
(1 -1.35866e-15 0)
(1 1.38055e-15 0)
(1 7.0412e-17 0)
(1 2.2226e-15 0)
(1 1.24608e-15 0)
(1 3.27029e-15 0)
(1 1.89824e-15 0)
(1 4.10245e-16 0)
(1 -2.40349e-15 0)
(1 -2.57057e-15 0)
(1 -3.11074e-15 0)
(1 1.30347e-15 0)
(1 1.21533e-15 0)
(1 4.8355e-15 0)
(1 3.34505e-15 0)
(1 8.17933e-16 0)
(1 2.5923e-15 0)
(1 1.44342e-15 0)
(1 -1.20196e-15 0)
(1 -3.07029e-15 0)
(1 -7.0707e-16 0)
(1 -2.34209e-16 0)
(1 5.17621e-16 0)
(1 -1.72239e-16 0)
(1 -2.37522e-15 0)
(1 -8.06798e-17 0)
(1 -2.51858e-16 0)
(1 -5.0353e-15 0)
(1 -4.1739e-15 0)
(1 -1.47706e-15 0)
(1 -1.03549e-16 0)
(1 5.41318e-16 0)
(1 2.63097e-15 0)
(1 3.74806e-15 0)
(1 7.8728e-16 0)
(1 9.25789e-17 0)
(1 5.76623e-16 0)
(1 -1.63895e-15 0)
(1 -2.45686e-15 0)
(1 -2.37022e-15 0)
(1 -3.50351e-15 0)
(1 2.30907e-15 0)
(1 3.19272e-15 0)
(1 3.06135e-15 0)
(1 5.84822e-16 0)
(1 6.11606e-17 0)
(1 -2.96956e-15 0)
(1 -1.35962e-15 0)
(1 -2.17702e-15 0)
(1 -3.23819e-15 0)
(1 -2.01731e-15 0)
(1 1.88253e-15 0)
(1 2.02603e-15 0)
(1 6.14167e-17 0)
(1 1.37311e-15 0)
(1 2.9313e-15 0)
(1 6.36217e-15 0)
(1 -2.63865e-16 0)
(1 -8.81566e-17 0)
(1 -3.73457e-15 0)
(1 -1.64757e-15 0)
(1 -4.53437e-15 0)
(1 -1.62846e-15 0)
(1 -2.02268e-15 0)
(1 3.89439e-15 0)
(1 3.66247e-15 0)
(1 5.09569e-15 0)
(1 3.72863e-15 0)
(1 3.50703e-15 0)
(1 -5.47195e-15 0)
(1 -7.81051e-15 0)
(1 -3.95154e-15 0)
(1 7.52014e-16 0)
(1 -5.95017e-15 0)
(1 -4.6001e-15 0)
(1 -6.86424e-15 0)
(1 8.42897e-16 0)
(1 1.20058e-15 0)
(1 6.19721e-15 0)
(1 8.13941e-16 0)
(1 -2.32907e-16 0)
(1 -2.36844e-15 0)
(1 -5.65145e-16 0)
(1 2.18556e-15 0)
(1 4.38043e-15 0)
(1 -2.46035e-15 0)
(1 1.14194e-15 0)
(1 -1.67385e-16 0)
(1 1.02433e-15 0)
(1 3.83021e-16 0)
(1 2.49448e-15 0)
(1 2.3816e-15 0)
(1 2.42744e-15 0)
(1 9.16343e-16 0)
(1 -4.89489e-16 0)
(1 -1.92747e-16 0)
(1 -1.14301e-15 0)
(1 -6.80085e-15 0)
(1 -3.47817e-15 0)
(1 -4.36212e-15 0)
(1 7.23692e-16 0)
(1 2.28634e-15 0)
(1 4.68499e-15 0)
(1 -2.69875e-15 0)
(1 -1.97663e-15 0)
(1 -1.64412e-15 0)
(1 3.36086e-15 0)
(1 5.5511e-15 0)
(1 4.30862e-15 0)
(1 2.72231e-15 0)
(1 6.09807e-16 0)
(1 1.70932e-15 0)
(1 -1.56437e-15 0)
(1 -3.10813e-16 0)
(1 -2.30647e-15 0)
(1 -7.55205e-16 0)
(1 2.35281e-15 0)
(1 2.98813e-15 0)
(1 -2.18555e-16 0)
(1 -3.34057e-15 0)
(1 -3.10928e-15 0)
(1 -2.84372e-15 0)
(1 -1.07004e-15 0)
(1 -1.00972e-15 0)
(1 2.93013e-16 0)
(1 3.09031e-15 0)
(1 2.71422e-15 0)
(1 -2.2013e-15 0)
(1 -2.63159e-15 0)
(1 1.35069e-15 0)
(1 2.62485e-15 0)
(1 3.37442e-15 0)
(1 5.74176e-15 0)
(1 5.07953e-15 0)
(1 1.07044e-15 0)
(1 -4.61341e-15 0)
(1 1.60782e-15 0)
(1 2.55249e-16 0)
(1 6.75994e-16 0)
(1 1.66676e-16 0)
(1 -1.99937e-15 0)
(1 -3.42467e-15 0)
(1 -1.98286e-15 0)
(1 -1.27681e-15 0)
(1 -1.64738e-16 0)
(1 -7.31054e-16 0)
(1 -4.5697e-15 0)
(1 -1.70712e-15 0)
(1 -4.78457e-15 0)
(1 -1.84613e-15 0)
(1 -1.56305e-15 0)
(1 3.99111e-15 0)
(1 1.71839e-15 0)
(1 1.035e-16 0)
(1 2.00973e-15 0)
(1 -1.35192e-15 0)
(1 -1.10923e-15 0)
(1 -2.41241e-16 0)
(1 3.77335e-15 0)
(1 4.35907e-16 0)
(1 1.80506e-15 0)
(1 2.59859e-16 0)
(1 -4.43444e-16 0)
(1 -2.19796e-16 0)
(1 6.00804e-16 0)
(1 3.0126e-15 0)
(1 4.5384e-15 0)
(1 7.45163e-15 0)
(1 2.35351e-15 0)
(1 -4.4788e-15 0)
(1 -6.89483e-15 0)
(1 -1.8733e-15 0)
(1 -4.20753e-15 0)
(1 4.21788e-16 0)
(1 -6.96813e-16 0)
(1 1.59748e-15 0)
(1 -4.63846e-15 0)
(1 1.83554e-15 0)
(1 5.96729e-15 0)
(1 4.62752e-15 0)
(1 6.17095e-15 0)
(1 3.21657e-15 0)
(1 3.00787e-15 0)
(1 1.90225e-15 0)
(1 3.79787e-15 0)
(1 -9.2979e-16 0)
(1 1.61802e-15 0)
(1 -3.12735e-15 0)
(1 1.2242e-15 0)
(1 -1.90873e-15 0)
(1 7.41369e-16 0)
(1 1.12832e-15 0)
(1 6.43966e-16 0)
(1 8.19527e-16 0)
(1 -1.85444e-15 0)
(1 -2.59925e-15 0)
(1 -6.0055e-15 0)
(1 -6.52906e-15 0)
(1 -3.97274e-15 0)
(1 -2.83959e-15 0)
(1 3.43295e-16 0)
(1 -1.21578e-15 0)
(1 3.27783e-15 0)
(1 1.3308e-15 0)
(1 1.89179e-15 0)
(1 1.2371e-15 0)
(1 6.48078e-15 0)
(1 5.76861e-15 0)
(1 7.58105e-15 0)
(1 3.18829e-15 0)
(1 7.05243e-16 0)
(1 -3.80795e-15 0)
(1 -3.12753e-15 0)
(1 -4.58333e-15 0)
(1 1.43923e-15 0)
(1 1.70615e-15 0)
(1 1.46245e-15 0)
(1 6.17127e-16 0)
(1 -1.61077e-15 0)
(1 -7.05371e-16 0)
(1 -3.12776e-15 0)
(1 -6.14067e-16 0)
(1 -1.22455e-15 0)
(1 1.16905e-15 0)
(1 1.89799e-15 0)
(1 1.87419e-15 0)
(1 1.67217e-15 0)
(1 8.2317e-16 0)
(1 -2.46211e-15 0)
(1 -1.08068e-16 0)
(1 7.46167e-16 0)
(1 -1.0234e-16 0)
(1 1.98249e-15 0)
(1 5.60121e-16 0)
(1 -2.22194e-15 0)
(1 -5.51124e-15 0)
(1 -3.27752e-15 0)
(1 1.465e-16 0)
(1 2.07849e-15 0)
(1 1.3542e-15 0)
(1 1.87797e-15 0)
(1 -4.46038e-15 0)
(1 -3.61244e-15 0)
(1 -9.70403e-16 0)
(1 -1.34635e-15 0)
(1 -1.53376e-15 0)
(1 -2.71741e-15 0)
(1 -2.4416e-15 0)
(1 -2.03497e-15 0)
(1 -1.41746e-15 0)
(1 -1.71933e-15 0)
(1 -6.41871e-16 0)
(1 2.50671e-16 0)
(1 6.98531e-16 0)
(1 3.21911e-15 0)
(1 -3.68164e-15 0)
(1 -8.95386e-16 0)
(1 -1.29373e-15 0)
(1 3.56666e-15 0)
(1 3.4484e-15 0)
(1 2.22936e-15 0)
(1 -1.7074e-15 0)
(1 -9.89834e-16 0)
(1 -2.30342e-15 0)
(1 5.20733e-15 0)
(1 6.39675e-15 0)
(1 7.22687e-15 0)
(1 3.07325e-15 0)
(1 2.4858e-15 0)
(1 -4.9057e-16 0)
(1 -3.12108e-15 0)
(1 -8.08741e-15 0)
(1 -1.09032e-14 0)
(1 -3.93707e-16 0)
(1 -3.87983e-16 0)
(1 1.61003e-15 0)
(1 1.53922e-15 0)
(1 7.27202e-15 0)
(1 3.78875e-15 0)
(1 7.16863e-15 0)
(1 7.68354e-15 0)
(1 1.17579e-14 0)
(1 6.16118e-15 0)
(1 3.63381e-15 0)
(1 -6.48191e-16 0)
(1 -1.10983e-15 0)
(1 -3.12906e-15 0)
(1 -1.67026e-15 0)
(1 2.39479e-15 0)
(1 3.78048e-16 0)
(1 3.5869e-15 0)
(1 1.25107e-15 0)
(1 2.46494e-15 0)
(1 2.37328e-15 0)
(1 -6.09297e-16 0)
(1 -4.84986e-15 0)
(1 -5.5579e-15 0)
(1 -3.3308e-15 0)
(1 -5.8653e-15 0)
(1 1.15352e-15 0)
(1 2.97833e-15 0)
(1 1.89196e-15 0)
(1 2.17124e-15 0)
(1 7.36134e-15 0)
(1 2.33515e-15 0)
(1 2.46333e-15 0)
(1 1.34404e-15 0)
(1 6.4481e-16 0)
(1 9.239e-16 0)
(1 1.45622e-15 0)
(1 -1.53839e-15 0)
(1 -5.14297e-15 0)
(1 -2.77317e-15 0)
(1 1.06783e-15 0)
(1 2.47475e-15 0)
(1 3.4542e-15 0)
(1 1.44607e-15 0)
(1 1.75304e-15 0)
(1 -2.63296e-15 0)
(1 -3.04185e-15 0)
(1 -5.3269e-15 0)
(1 -1.70124e-15 0)
(1 -1.73368e-15 0)
(1 1.11062e-15 0)
(1 -4.17073e-17 0)
(1 2.29671e-15 0)
(1 -1.9582e-16 0)
(1 -6.99008e-16 0)
(1 -2.27859e-15 0)
(1 -1.37762e-15 0)
(1 -3.26063e-17 0)
(1 6.79048e-16 0)
(1 2.58962e-15 0)
(1 -7.39744e-16 0)
(1 2.39929e-15 0)
(1 -1.06573e-15 0)
(1 -1.70469e-15 0)
(1 -1.68123e-15 0)
(1 4.11893e-16 0)
(1 1.49997e-15 0)
(1 3.57722e-15 0)
(1 1.66556e-15 0)
(1 1.60713e-15 0)
(1 2.95484e-16 0)
(1 -7.5482e-16 0)
(1 -2.49289e-15 0)
(1 -9.34861e-16 0)
(1 -1.69873e-15 0)
(1 -1.39236e-15 0)
(1 -3.72889e-15 0)
(1 -3.89583e-15 0)
(1 -4.43594e-15 0)
(1 -3.53071e-15 0)
(1 -6.37884e-16 0)
(1 4.19874e-15 0)
(1 -2.20725e-15 0)
(1 -2.93031e-15 0)
(1 -2.07886e-15 0)
(1 2.57795e-16 0)
(1 6.34587e-16 0)
(1 -8.99599e-16 0)
(1 -4.19844e-15 0)
(1 -9.47263e-16 0)
(1 1.01557e-15 0)
(1 6.4962e-15 0)
(1 4.34625e-15 0)
(1 6.96496e-15 0)
(1 -4.31507e-15 0)
(1 3.13966e-15 0)
(1 1.83359e-15 0)
(1 1.12473e-15 0)
(1 -4.93413e-15 0)
(1 -4.21899e-15 0)
(1 -9.71793e-15 0)
(1 -3.20898e-15 0)
(1 -6.04502e-15 0)
(1 8.09819e-15 0)
(1 1.38791e-14 0)
(1 1.06811e-14 0)
(1 8.20738e-15 0)
(1 6.28724e-15 0)
(1 6.14298e-15 0)
(1 6.18907e-15 0)
(1 1.38634e-15 0)
(1 -1.59312e-15 0)
(1 2.06702e-15 0)
(1 9.7623e-16 0)
(1 -6.69994e-16 0)
(1 -5.27735e-15 0)
(1 -3.08309e-15 0)
(1 -1.70443e-15 0)
(1 -6.30294e-16 0)
(1 -3.38832e-16 0)
(1 -2.13996e-16 0)
(1 -5.629e-15 0)
(1 -2.96715e-15 0)
(1 -3.70807e-15 0)
(1 7.28327e-16 0)
(1 -2.45409e-15 0)
(1 8.57871e-16 0)
(1 4.67839e-15 0)
(1 3.80713e-15 0)
(1 4.59609e-15 0)
(1 1.81669e-15 0)
(1 3.88504e-16 0)
(1 1.51247e-15 0)
(1 1.07865e-16 0)
(1 3.62131e-15 0)
(1 4.4867e-15 0)
(1 7.22384e-15 0)
(1 2.71446e-15 0)
(1 -3.5365e-16 0)
(1 -2.07649e-15 0)
(1 -3.05919e-15 0)
(1 -4.32415e-15 0)
(1 -2.32211e-15 0)
(1 1.68778e-15 0)
(1 1.96235e-17 0)
(1 1.39345e-15 0)
(1 -1.13873e-15 0)
(1 -2.64017e-15 0)
(1 -3.04926e-15 0)
(1 7.15125e-16 0)
(1 -3.22022e-17 0)
(1 2.95189e-15 0)
(1 3.92539e-15 0)
(1 1.69583e-15 0)
(1 1.08683e-15 0)
(1 1.6913e-15 0)
(1 1.15341e-15 0)
(1 3.956e-16 0)
(1 6.2481e-15 0)
(1 6.36247e-15 0)
(1 3.17804e-16 0)
(1 1.90621e-15 0)
(1 -2.40448e-15 0)
(1 2.86182e-15 0)
(1 4.00981e-16 0)
(1 1.88607e-15 0)
(1 -1.34888e-15 0)
(1 -5.92168e-16 0)
(1 -3.16663e-15 0)
(1 -2.23434e-15 0)
(1 -2.33735e-15 0)
(1 3.04844e-16 0)
(1 -4.07789e-15 0)
(1 -1.20973e-15 0)
(1 1.75035e-16 0)
(1 -1.56583e-15 0)
(1 -1.72364e-15 0)
(1 -2.11563e-15 0)
(1 -1.05117e-15 0)
(1 -4.17487e-15 0)
(1 -1.12559e-15 0)
(1 -1.97402e-15 0)
(1 -2.11571e-15 0)
(1 -3.02979e-15 0)
(1 -3.06339e-15 0)
(1 2.63314e-15 0)
(1 3.08278e-16 0)
(1 -1.78468e-15 0)
(1 -1.48987e-16 0)
(1 -3.2382e-16 0)
(1 6.17328e-15 0)
(1 3.31774e-15 0)
(1 2.95145e-15 0)
(1 2.01249e-15 0)
(1 -2.58755e-17 0)
(1 4.40308e-15 0)
(1 1.63763e-15 0)
(1 9.39699e-18 0)
(1 -5.20557e-15 0)
(1 -3.01193e-15 0)
(1 -2.71832e-15 0)
(1 2.21388e-15 0)
(1 7.59229e-15 0)
(1 9.15326e-15 0)
(1 4.36385e-15 0)
(1 3.44293e-15 0)
(1 2.14224e-15 0)
(1 6.78992e-15 0)
(1 -1.41866e-15 0)
(1 6.10969e-15 0)
(1 7.91975e-16 0)
(1 -3.74676e-15 0)
(1 -1.52604e-16 0)
(1 -1.52034e-15 0)
(1 4.94507e-15 0)
(1 -1.2437e-15 0)
(1 5.49907e-15 0)
(1 4.32701e-15 0)
(1 4.46333e-15 0)
(1 -8.27573e-16 0)
(1 -2.29612e-15 0)
(1 -2.42644e-15 0)
(1 -1.60375e-15 0)
(1 8.54226e-16 0)
(1 -5.54212e-16 0)
(1 9.94673e-16 0)
(1 -2.87943e-15 0)
(1 -2.45944e-15 0)
(1 -1.01853e-15 0)
(1 4.23895e-15 0)
(1 5.80812e-15 0)
(1 7.72937e-15 0)
(1 3.38269e-15 0)
(1 9.18635e-17 0)
(1 2.55789e-15 0)
(1 4.67908e-15 0)
(1 3.46923e-15 0)
(1 9.13228e-16 0)
(1 3.1032e-15 0)
(1 4.2808e-15 0)
(1 1.16036e-15 0)
(1 4.89625e-15 0)
(1 -1.00576e-15 0)
(1 -1.75318e-15 0)
(1 -5.14673e-15 0)
(1 7.9075e-16 0)
(1 2.95253e-15 0)
(1 7.15534e-15 0)
(1 9.96917e-15 0)
(1 1.04342e-14 0)
(1 1.05137e-14 0)
(1 4.37693e-15 0)
(1 1.24884e-15 0)
(1 2.67641e-15 0)
(1 -6.45489e-16 0)
(1 -4.42757e-15 0)
(1 -7.23879e-15 0)
(1 -5.10164e-15 0)
(1 2.57328e-15 0)
(1 5.69321e-15 0)
(1 8.56493e-15 0)
(1 6.55188e-16 0)
(1 3.64196e-15 0)
(1 3.90242e-16 0)
(1 -7.99851e-16 0)
(1 -1.26856e-15 0)
(1 -4.96691e-15 0)
(1 -2.75574e-15 0)
(1 -2.24563e-15 0)
(1 -3.02213e-15 0)
(1 -1.17464e-15 0)
(1 -3.26296e-15 0)
(1 -2.0108e-15 0)
(1 -6.36525e-16 0)
(1 6.04859e-16 0)
(1 3.12442e-15 0)
(1 2.68449e-15 0)
(1 3.55633e-15 0)
(1 4.34597e-15 0)
(1 4.68317e-15 0)
(1 2.87825e-15 0)
(1 -2.23987e-15 0)
(1 -3.21084e-15 0)
(1 6.63764e-15 0)
(1 -4.77539e-16 0)
(1 -1.79302e-16 0)
(1 -3.56247e-15 0)
(1 -7.22709e-15 0)
(1 -3.18649e-15 0)
(1 4.11625e-16 0)
(1 2.39294e-15 0)
(1 8.60218e-16 0)
(1 9.56355e-16 0)
(1 3.23667e-15 0)
(1 5.59293e-15 0)
(1 7.40063e-15 0)
(1 3.50851e-15 0)
(1 8.26129e-15 0)
(1 -1.90297e-15 0)
(1 3.57344e-15 0)
(1 7.57263e-15 0)
(1 3.62867e-15 0)
(1 1.08967e-15 0)
(1 -3.48713e-15 0)
(1 -2.83686e-15 0)
(1 -3.68772e-15 0)
(1 -7.67014e-16 0)
(1 1.03077e-15 0)
(1 3.76534e-15 0)
(1 4.26044e-15 0)
(1 7.16536e-15 0)
(1 4.8622e-15 0)
(1 4.90714e-16 0)
(1 -1.88109e-15 0)
(1 6.00793e-16 0)
(1 1.77464e-15 0)
(1 2.12936e-15 0)
(1 6.94906e-15 0)
(1 5.75009e-15 0)
(1 3.90312e-15 0)
(1 -5.20858e-15 0)
(1 9.28561e-16 0)
(1 -2.18163e-15 0)
(1 4.16021e-15 0)
(1 3.92615e-15 0)
(1 8.13593e-16 0)
(1 -5.52827e-15 0)
(1 -6.09956e-15 0)
(1 3.61527e-15 0)
(1 5.75692e-15 0)
(1 9.37587e-15 0)
(1 8.34377e-15 0)
(1 1.25962e-15 0)
(1 -1.3332e-15 0)
(1 9.86378e-16 0)
(1 7.83467e-16 0)
(1 2.6347e-15 0)
(1 -2.88835e-16 0)
(1 1.57735e-16 0)
(1 -6.14256e-16 0)
(1 2.64817e-15 0)
(1 1.82357e-15 0)
(1 1.53563e-15 0)
(1 -1.24711e-15 0)
(1 -5.15931e-16 0)
(1 -8.48426e-16 0)
(1 -1.07162e-15 0)
(1 1.06717e-15 0)
(1 4.0521e-15 0)
(1 3.57359e-15 0)
(1 3.38784e-15 0)
(1 6.37184e-16 0)
(1 1.67386e-16 0)
(1 8.5671e-16 0)
(1 2.61136e-15 0)
(1 5.35541e-15 0)
(1 2.55388e-15 0)
(1 5.34831e-15 0)
(1 3.83605e-15 0)
(1 5.20638e-15 0)
(1 7.30623e-15 0)
(1 2.96323e-15 0)
(1 3.71512e-15 0)
(1 4.72203e-16 0)
(1 1.38676e-16 0)
(1 7.10361e-16 0)
(1 1.06754e-15 0)
(1 1.96309e-15 0)
(1 1.94364e-15 0)
(1 7.93127e-16 0)
(1 -9.06273e-16 0)
(1 -1.75976e-15 0)
(1 3.58338e-15 0)
(1 2.15933e-15 0)
(1 2.50752e-15 0)
(1 2.90326e-15 0)
(1 4.19083e-15 0)
(1 4.94581e-15 0)
(1 4.09645e-15 0)
(1 5.56842e-15 0)
(1 5.27658e-15 0)
(1 -7.95296e-16 0)
(1 -3.67971e-16 0)
(1 -2.67619e-16 0)
(1 3.42863e-15 0)
(1 -4.07446e-15 0)
(1 -1.50682e-15 0)
(1 -4.29605e-15 0)
(1 -5.13428e-15 0)
(1 -8.2806e-16 0)
(1 3.54552e-16 0)
(1 -3.11994e-15 0)
(1 -3.18921e-15 0)
(1 1.86032e-15 0)
(1 9.45215e-15 0)
(1 6.1233e-15 0)
(1 4.79002e-15 0)
(1 3.76044e-15 0)
(1 7.32713e-15 0)
(1 1.0016e-14 0)
(1 5.43945e-15 0)
(1 -5.20495e-15 0)
(1 -5.72375e-15 0)
(1 -7.29138e-15 0)
(1 -2.11517e-15 0)
(1 2.34536e-16 0)
(1 1.21733e-15 0)
(1 -1.77418e-15 0)
(1 4.66974e-15 0)
(1 -4.46939e-15 0)
(1 2.45981e-16 0)
(1 5.68028e-15 0)
(1 2.948e-15 0)
(1 -4.2893e-16 0)
(1 -1.06945e-15 0)
(1 4.73688e-15 0)
(1 1.05561e-15 0)
(1 1.66981e-15 0)
(1 2.49211e-15 0)
(1 1.38352e-15 0)
(1 -1.66464e-15 0)
(1 -2.86313e-16 0)
(1 1.22236e-17 0)
(1 2.37859e-15 0)
(1 7.34713e-15 0)
(1 7.48985e-15 0)
(1 4.19826e-15 0)
(1 1.25227e-15 0)
(1 3.40035e-15 0)
(1 -1.32689e-15 0)
(1 -2.22557e-16 0)
(1 2.70677e-15 0)
(1 7.99505e-15 0)
(1 9.08326e-15 0)
(1 5.18377e-15 0)
(1 3.86406e-15 0)
(1 2.82236e-15 0)
(1 5.21447e-15 0)
(1 -2.09145e-15 0)
(1 -1.3223e-15 0)
(1 1.62502e-15 0)
(1 1.12768e-16 0)
(1 1.46864e-15 0)
(1 3.57509e-15 0)
(1 2.69226e-15 0)
(1 3.12043e-15 0)
(1 1.8099e-15 0)
(1 5.52659e-15 0)
(1 4.40477e-16 0)
(1 1.54981e-15 0)
(1 1.48958e-16 0)
(1 7.06876e-15 0)
(1 8.90498e-15 0)
(1 5.60782e-15 0)
(1 5.38475e-15 0)
(1 7.11713e-15 0)
(1 8.76615e-15 0)
(1 7.98355e-15 0)
(1 4.74659e-15 0)
(1 1.12619e-15 0)
(1 -1.10478e-15 0)
(1 -2.39665e-15 0)
(1 -2.34962e-15 0)
(1 -2.44627e-15 0)
(1 1.78552e-15 0)
(1 -5.04549e-16 0)
(1 4.68303e-16 0)
(1 -1.22676e-15 0)
(1 1.4869e-15 0)
(1 -4.91201e-16 0)
(1 -2.6261e-15 0)
(1 -1.83402e-15 0)
(1 -6.29161e-16 0)
(1 -2.39111e-16 0)
(1 2.34605e-15 0)
(1 3.54333e-15 0)
(1 5.19594e-15 0)
(1 3.95684e-15 0)
(1 5.87349e-15 0)
(1 6.3841e-15 0)
(1 9.64682e-15 0)
(1 -2.17279e-15 0)
(1 4.25825e-15 0)
(1 -5.81949e-15 0)
(1 -6.49095e-15 0)
(1 -5.29298e-15 0)
(1 -2.34861e-15 0)
(1 -3.18633e-16 0)
(1 -5.08267e-15 0)
(1 -6.03866e-15 0)
(1 -3.32596e-16 0)
(1 1.50417e-15 0)
(1 8.23011e-15 0)
(1 8.64902e-15 0)
(1 1.08164e-14 0)
(1 3.77842e-15 0)
(1 8.75501e-15 0)
(1 5.18511e-15 0)
(1 1.39269e-14 0)
(1 -2.53957e-16 0)
(1 -2.72461e-15 0)
(1 -8.43931e-15 0)
(1 1.92581e-15 0)
(1 -1.82094e-15 0)
(1 -4.58124e-15 0)
(1 -2.2925e-15 0)
(1 -3.56043e-16 0)
(1 -4.0133e-15 0)
(1 -5.3757e-15 0)
(1 -7.756e-15 0)
(1 -4.57616e-15 0)
(1 -2.41062e-15 0)
(1 2.64165e-15 0)
(1 3.04727e-15 0)
(1 6.43236e-15 0)
(1 4.65965e-15 0)
(1 8.25822e-15 0)
(1 9.57087e-16 0)
(1 2.36995e-15 0)
(1 1.59372e-15 0)
(1 2.82132e-15 0)
(1 2.33254e-15 0)
(1 6.25842e-15 0)
(1 5.94296e-15 0)
(1 6.9341e-15 0)
(1 1.16388e-14 0)
(1 1.15353e-14 0)
(1 4.95367e-15 0)
(1 -1.86768e-15 0)
(1 -5.03745e-15 0)
(1 -6.27085e-15 0)
(1 1.26621e-15 0)
(1 4.75062e-15 0)
(1 7.28633e-15 0)
(1 3.45513e-15 0)
(1 4.63947e-15 0)
(1 2.7487e-15 0)
(1 6.70802e-15 0)
(1 5.42315e-15 0)
(1 4.33523e-15 0)
(1 4.43162e-15 0)
(1 1.80881e-15 0)
(1 2.83037e-15 0)
(1 -6.59301e-15 0)
(1 -6.85661e-15 0)
(1 -2.03936e-15 0)
(1 3.70919e-15 0)
(1 1.42142e-14 0)
(1 1.29031e-14 0)
(1 1.24921e-14 0)
(1 1.27698e-14 0)
(1 8.99048e-15 0)
(1 1.05252e-14 0)
(1 6.17905e-15 0)
(1 2.24832e-15 0)
(1 -4.22432e-15 0)
(1 5.73344e-16 0)
(1 2.89338e-15 0)
(1 4.44536e-15 0)
(1 2.13685e-17 0)
(1 3.70641e-15 0)
(1 3.64347e-15 0)
(1 9.36123e-15 0)
(1 2.0582e-16 0)
(1 2.9585e-15 0)
(1 -4.7717e-15 0)
(1 -2.47415e-15 0)
(1 -2.76176e-15 0)
(1 -5.72232e-16 0)
(1 -1.72649e-15 0)
(1 -1.01133e-15 0)
(1 -8.80666e-16 0)
(1 -2.44104e-16 0)
(1 5.08914e-15 0)
(1 6.42463e-15 0)
(1 1.24225e-14 0)
(1 1.01335e-14 0)
(1 1.39369e-14 0)
(1 1.16374e-14 0)
(1 1.64599e-14 0)
(1 1.75948e-14 0)
(1 8.95116e-16 0)
(1 1.53372e-15 0)
(1 8.00518e-16 0)
(1 -5.11037e-16 0)
(1 -4.51652e-15 0)
(1 -1.96552e-15 0)
(1 1.08446e-15 0)
(1 2.89175e-15 0)
(1 -1.42263e-15 0)
(1 1.07913e-15 0)
(1 2.62555e-15 0)
(1 6.28154e-15 0)
(1 6.65049e-15 0)
(1 -2.11192e-16 0)
(1 -3.34631e-15 0)
(1 -6.25342e-16 0)
(1 2.56434e-15 0)
(1 6.16604e-15 0)
(1 -5.04583e-16 0)
(1 -5.34043e-15 0)
(1 -4.16885e-15 0)
(1 -3.97031e-15 0)
(1 1.53801e-15 0)
(1 3.41591e-16 0)
(1 3.93902e-15 0)
(1 2.6633e-15 0)
(1 1.65587e-15 0)
(1 -7.57087e-15 0)
(1 -2.16906e-15 0)
(1 -1.1086e-15 0)
(1 -3.59628e-15 0)
(1 -4.50006e-16 0)
(1 2.04635e-15 0)
(1 4.1532e-15 0)
(1 -1.03066e-15 0)
(1 3.21294e-15 0)
(1 -1.2416e-15 0)
(1 8.56888e-16 0)
(1 -2.07091e-15 0)
(1 1.96832e-15 0)
(1 9.46971e-16 0)
(1 5.85599e-15 0)
(1 6.96243e-15 0)
(1 7.43498e-15 0)
(1 4.55562e-15 0)
(1 6.48571e-15 0)
(1 1.54046e-15 0)
(1 6.45016e-16 0)
(1 4.38752e-15 0)
(1 3.40404e-15 0)
(1 8.22738e-15 0)
(1 3.77728e-15 0)
(1 3.69699e-15 0)
(1 3.2519e-15 0)
(1 5.89684e-15 0)
(1 4.89407e-15 0)
(1 3.438e-15 0)
(1 5.754e-15 0)
(1 2.67962e-15 0)
(1 1.0031e-15 0)
(1 4.61954e-15 0)
(1 5.90504e-15 0)
(1 1.09115e-14 0)
(1 4.76465e-15 0)
(1 1.36945e-15 0)
(1 3.23664e-15 0)
(1 7.48707e-15 0)
(1 9.30115e-15 0)
(1 1.20266e-14 0)
(1 8.52273e-15 0)
(1 4.9853e-15 0)
(1 3.91053e-15 0)
(1 3.32742e-15 0)
(1 2.70992e-15 0)
(1 1.86216e-16 0)
(1 5.9051e-15 0)
(1 9.15376e-15 0)
(1 8.31124e-15 0)
(1 4.49088e-15 0)
(1 4.4381e-15 0)
(1 3.83068e-15 0)
(1 2.27921e-15 0)
(1 -1.01505e-15 0)
(1 -2.79203e-15 0)
(1 -2.58242e-15 0)
(1 -2.11273e-15 0)
(1 9.01866e-16 0)
(1 -4.42375e-15 0)
(1 1.72066e-15 0)
(1 6.74536e-17 0)
(1 4.41891e-15 0)
(1 1.71448e-15 0)
(1 8.24393e-15 0)
(1 5.99591e-15 0)
(1 1.05315e-14 0)
(1 8.42633e-15 0)
(1 1.28934e-14 0)
(1 1.21927e-14 0)
(1 2.26819e-14 0)
(1 1.99826e-14 0)
(1 -3.71552e-17 0)
(1 -4.23447e-15 0)
(1 -7.04028e-16 0)
(1 4.75529e-15 0)
(1 -3.56711e-15 0)
(1 9.19502e-16 0)
(1 -7.18256e-16 0)
(1 2.1126e-15 0)
(1 2.30329e-15 0)
(1 -7.27146e-15 0)
(1 -4.00309e-15 0)
(1 -3.56238e-15 0)
(1 -8.61961e-16 0)
(1 4.87183e-15 0)
(1 6.03057e-15 0)
(1 6.2131e-15 0)
(1 1.05005e-15 0)
(1 -4.12537e-15 0)
(1 7.29528e-16 0)
(1 -3.01505e-15 0)
(1 1.24665e-15 0)
(1 -9.43035e-16 0)
(1 -7.39644e-17 0)
(1 -1.40862e-15 0)
(1 -3.50444e-15 0)
(1 -9.45372e-16 0)
(1 5.84679e-15 0)
(1 3.06672e-15 0)
(1 4.43203e-15 0)
(1 -6.47017e-16 0)
(1 -2.78463e-15 0)
(1 -8.62186e-15 0)
(1 -2.66477e-15 0)
(1 -5.70295e-16 0)
(1 4.87656e-15 0)
(1 2.81406e-15 0)
(1 4.47242e-15 0)
(1 5.3253e-16 0)
(1 3.55834e-16 0)
(1 2.1168e-15 0)
(1 5.60693e-15 0)
(1 6.6053e-16 0)
(1 6.71694e-15 0)
(1 6.20221e-17 0)
(1 2.98452e-15 0)
(1 2.36474e-15 0)
(1 5.45668e-15 0)
(1 2.21045e-15 0)
(1 7.26566e-15 0)
(1 6.10938e-15 0)
(1 6.3804e-15 0)
(1 5.81972e-15 0)
(1 8.87461e-15 0)
(1 6.17053e-15 0)
(1 8.933e-15 0)
(1 4.227e-15 0)
(1 9.08727e-15 0)
(1 1.28666e-15 0)
(1 7.79633e-15 0)
(1 -1.8555e-16 0)
(1 8.47932e-15 0)
(1 -1.8601e-15 0)
(1 7.75089e-15 0)
(1 3.45194e-15 0)
(1 4.79354e-15 0)
(1 6.66872e-15 0)
(1 5.17563e-15 0)
(1 4.30113e-15 0)
(1 8.33051e-15 0)
(1 5.05955e-15 0)
(1 9.13735e-15 0)
(1 2.31608e-15 0)
(1 3.54963e-15 0)
(1 -2.66653e-16 0)
(1 -1.74595e-16 0)
(1 3.88427e-15 0)
(1 8.93436e-15 0)
(1 7.98497e-15 0)
(1 6.58693e-15 0)
(1 1.41917e-15 0)
(1 3.73519e-15 0)
(1 -1.87006e-15 0)
(1 4.43458e-15 0)
(1 -1.4209e-15 0)
(1 2.37727e-15 0)
(1 -1.4718e-15 0)
(1 1.43514e-15 0)
(1 1.52029e-15 0)
(1 2.30955e-15 0)
(1 -1.01306e-15 0)
(1 2.47579e-15 0)
(1 2.28759e-15 0)
(1 2.54326e-15 0)
(1 3.08897e-15 0)
(1 4.03305e-15 0)
(1 5.85697e-15 0)
(1 8.29673e-15 0)
(1 1.32308e-14 0)
(1 1.62952e-14 0)
(1 1.45766e-14 0)
(1 1.32638e-15 0)
(1 -5.6442e-15 0)
(1 2.75343e-15 0)
(1 6.73685e-16 0)
(1 1.37744e-15 0)
(1 -4.28554e-15 0)
(1 -5.9095e-15 0)
(1 -1.83011e-15 0)
(1 2.70672e-15 0)
(1 2.97762e-15 0)
(1 3.77425e-15 0)
(1 5.27926e-16 0)
(1 -5.18241e-15 0)
(1 -2.68404e-15 0)
(1 3.30152e-15 0)
(1 6.51792e-15 0)
(1 3.63134e-15 0)
(1 -3.86073e-15 0)
(1 -4.43103e-15 0)
(1 -6.19929e-15 0)
(1 6.37633e-16 0)
(1 -1.35634e-15 0)
(1 -4.25404e-16 0)
(1 -1.25466e-15 0)
(1 2.28832e-15 0)
(1 1.57669e-15 0)
(1 1.31036e-15 0)
(1 3.95082e-15 0)
(1 6.14713e-15 0)
(1 2.49733e-15 0)
(1 6.02357e-16 0)
(1 -1.55643e-15 0)
(1 -1.9939e-16 0)
(1 -3.1634e-15 0)
(1 -2.40046e-15 0)
(1 -5.99049e-15 0)
(1 3.03105e-15 0)
(1 -1.7728e-16 0)
(1 3.02563e-15 0)
(1 -7.20555e-16 0)
(1 4.02875e-15 0)
(1 -4.27689e-16 0)
(1 -1.24756e-15 0)
(1 -4.96227e-15 0)
(1 4.90539e-15 0)
(1 9.84371e-15 0)
(1 1.25739e-14 0)
(1 1.0397e-14 0)
(1 6.10243e-15 0)
(1 6.63501e-15 0)
(1 4.13596e-15 0)
(1 6.38174e-15 0)
(1 6.98064e-15 0)
(1 9.43941e-15 0)
(1 8.16395e-15 0)
(1 8.69269e-16 0)
(1 -1.19094e-15 0)
(1 -3.3108e-16 0)
(1 5.36276e-15 0)
(1 6.70697e-15 0)
(1 7.95475e-15 0)
(1 6.91758e-15 0)
(1 1.57584e-15 0)
(1 2.05983e-15 0)
(1 3.88823e-15 0)
(1 4.12905e-16 0)
(1 3.83223e-15 0)
(1 5.12124e-15 0)
(1 4.33512e-15 0)
(1 4.72066e-15 0)
(1 5.97092e-15 0)
(1 5.78795e-15 0)
(1 6.13663e-15 0)
(1 2.95705e-15 0)
(1 5.95956e-15 0)
(1 2.81797e-15 0)
(1 8.2721e-15 0)
(1 4.18861e-15 0)
(1 1.73739e-15 0)
(1 1.61088e-15 0)
(1 7.02295e-15 0)
(1 6.16981e-15 0)
(1 4.27651e-15 0)
(1 1.98438e-15 0)
(1 2.2716e-15 0)
(1 -1.63993e-15 0)
(1 -1.64809e-15 0)
(1 2.44488e-15 0)
(1 -2.30858e-15 0)
(1 4.08262e-15 0)
(1 3.63743e-15 0)
(1 7.21742e-15 0)
(1 4.45375e-15 0)
(1 5.36161e-15 0)
(1 5.34007e-15 0)
(1 8.90531e-15 0)
(1 1.14126e-14 0)
(1 1.23481e-14 0)
(1 7.66207e-15 0)
(1 9.43952e-15 0)
(1 5.27964e-15 0)
(1 -1.39273e-15 0)
(1 -1.40965e-15 0)
(1 -7.50706e-16 0)
(1 3.97347e-15 0)
(1 -1.13531e-16 0)
(1 1.00958e-15 0)
(1 1.18187e-15 0)
(1 -2.23311e-15 0)
(1 3.14958e-15 0)
(1 7.03454e-15 0)
(1 1.32664e-14 0)
(1 5.26961e-15 0)
(1 -2.44376e-15 0)
(1 -7.3487e-15 0)
(1 -1.13236e-14 0)
(1 -7.23361e-15 0)
(1 -8.15738e-15 0)
(1 -1.97614e-15 0)
(1 -4.22258e-15 0)
(1 3.70214e-15 0)
(1 -1.60729e-15 0)
(1 3.95784e-15 0)
(1 -5.41896e-15 0)
(1 4.1162e-15 0)
(1 3.55186e-15 0)
(1 -1.03684e-15 0)
(1 -3.28279e-15 0)
(1 -5.0736e-15 0)
(1 -1.66594e-15 0)
(1 -1.37783e-16 0)
(1 2.04367e-15 0)
(1 -2.46396e-15 0)
(1 1.63924e-15 0)
(1 -1.18004e-15 0)
(1 4.4952e-15 0)
(1 3.4011e-15 0)
(1 3.50624e-15 0)
(1 1.62678e-15 0)
(1 -8.34699e-17 0)
(1 -7.0322e-15 0)
(1 1.86358e-15 0)
(1 -6.89533e-15 0)
(1 -5.11025e-16 0)
(1 3.37882e-15 0)
(1 7.35546e-15 0)
(1 1.08725e-14 0)
(1 1.28173e-14 0)
(1 6.14092e-15 0)
(1 9.21124e-15 0)
(1 1.38143e-15 0)
(1 7.63302e-15 0)
(1 5.45863e-15 0)
(1 1.06875e-14 0)
(1 4.56038e-15 0)
(1 7.49152e-15 0)
(1 -1.6485e-15 0)
(1 3.50092e-15 0)
(1 -3.06311e-15 0)
(1 9.91801e-16 0)
(1 -1.25551e-15 0)
(1 9.97196e-15 0)
(1 1.17297e-14 0)
(1 1.43408e-14 0)
(1 6.90009e-15 0)
(1 6.45239e-16 0)
(1 -1.28548e-15 0)
(1 1.06299e-15 0)
(1 -1.64031e-15 0)
(1 9.96017e-16 0)
(1 2.56547e-15 0)
(1 4.49058e-15 0)
(1 7.10122e-15 0)
(1 9.15307e-15 0)
(1 9.89842e-15 0)
(1 2.22297e-15 0)
(1 -4.36136e-16 0)
(1 1.11382e-15 0)
(1 1.22291e-15 0)
(1 6.61182e-15 0)
(1 3.03773e-15 0)
(1 3.09473e-15 0)
(1 1.1202e-15 0)
(1 3.90628e-15 0)
(1 1.55108e-15 0)
(1 5.85566e-15 0)
(1 4.36357e-17 0)
(1 1.70082e-16 0)
(1 5.60195e-16 0)
(1 3.40905e-15 0)
(1 3.27268e-15 0)
(1 2.3687e-15 0)
(1 2.428e-16 0)
(1 1.01462e-15 0)
(1 -5.87726e-17 0)
(1 8.41022e-15 0)
(1 1.01534e-14 0)
(1 8.82675e-15 0)
(1 5.03845e-15 0)
(1 6.7146e-15 0)
(1 -2.15078e-15 0)
(1 8.89736e-15 0)
(1 -8.81277e-15 0)
(1 1.22166e-15 0)
(1 -1.66858e-16 0)
(1 5.84613e-15 0)
(1 9.95264e-16 0)
(1 4.16437e-15 0)
(1 -6.96073e-16 0)
(1 -2.54756e-15 0)
(1 4.11524e-16 0)
(1 6.45937e-15 0)
(1 3.61816e-15 0)
(1 5.35106e-15 0)
(1 -6.34231e-15 0)
(1 -1.1379e-14 0)
(1 -6.75323e-15 0)
(1 -6.30335e-15 0)
(1 -3.9348e-15 0)
(1 -3.541e-15 0)
(1 -3.09056e-15 0)
(1 -2.48444e-15 0)
(1 5.89361e-15 0)
(1 2.78534e-15 0)
(1 4.26334e-15 0)
(1 -2.02641e-15 0)
(1 -1.20001e-15 0)
(1 -3.0275e-15 0)
(1 -9.19563e-16 0)
(1 4.05825e-16 0)
(1 3.53707e-15 0)
(1 -9.1292e-16 0)
(1 -1.84165e-15 0)
(1 -2.28132e-15 0)
(1 5.84606e-15 0)
(1 6.23937e-15 0)
(1 5.07027e-15 0)
(1 6.67111e-16 0)
(1 3.33676e-16 0)
(1 -2.84748e-15 0)
(1 -3.79065e-15 0)
(1 -2.48251e-15 0)
(1 1.5949e-16 0)
(1 9.91085e-15 0)
(1 3.82219e-15 0)
(1 6.85689e-15 0)
(1 6.20718e-15 0)
(1 1.04101e-14 0)
(1 7.89229e-15 0)
(1 7.8541e-15 0)
(1 2.31049e-17 0)
(1 1.81555e-16 0)
(1 1.63864e-16 0)
(1 1.69474e-15 0)
(1 4.28732e-15 0)
(1 8.74048e-15 0)
(1 1.25613e-14 0)
(1 9.21258e-15 0)
(1 4.60522e-15 0)
(1 -1.34787e-17 0)
(1 -3.98155e-16 0)
(1 -3.29091e-17 0)
(1 3.47343e-16 0)
(1 2.80074e-15 0)
(1 5.90668e-15 0)
(1 1.19551e-14 0)
(1 1.00885e-15 0)
(1 5.55065e-15 0)
(1 1.11948e-16 0)
(1 5.36403e-15 0)
(1 7.3736e-15 0)
(1 5.79723e-15 0)
(1 8.06781e-15 0)
(1 1.09449e-14 0)
(1 9.01866e-15 0)
(1 6.11182e-15 0)
(1 2.25146e-15 0)
(1 6.27842e-15 0)
(1 9.48592e-15 0)
(1 7.6544e-15 0)
(1 1.1708e-15 0)
(1 6.78509e-16 0)
(1 1.23495e-15 0)
(1 4.23104e-15 0)
(1 3.44107e-15 0)
(1 3.31568e-15 0)
(1 5.17088e-16 0)
(1 2.75537e-15 0)
(1 6.81906e-15 0)
(1 4.39724e-15 0)
(1 9.49638e-16 0)
(1 2.65715e-15 0)
(1 8.16754e-16 0)
(1 2.80797e-15 0)
(1 1.0421e-15 0)
(1 7.49862e-15 0)
(1 7.94994e-15 0)
(1 1.01888e-14 0)
(1 9.43209e-15 0)
(1 5.28429e-15 0)
(1 2.80111e-16 0)
(1 3.45419e-15 0)
(1 6.81884e-15 0)
(1 1.69139e-15 0)
(1 1.93672e-15 0)
(1 -2.35309e-15 0)
(1 -5.13591e-15 0)
(1 -7.54407e-15 0)
(1 3.03438e-15 0)
(1 7.41104e-15 0)
(1 2.75018e-15 0)
(1 -3.83906e-15 0)
(1 -4.74777e-15 0)
(1 -6.06144e-15 0)
(1 -9.45717e-15 0)
(1 -8.31673e-15 0)
(1 -9.45394e-15 0)
(1 -4.383e-15 0)
(1 -4.88178e-15 0)
(1 2.37422e-15 0)
(1 -5.19136e-15 0)
(1 3.00167e-15 0)
(1 -2.93606e-15 0)
(1 1.64896e-14 0)
(1 1.29222e-14 0)
(1 5.40185e-15 0)
(1 -2.11786e-15 0)
(1 -1.09342e-15 0)
(1 -3.17346e-15 0)
(1 -1.44891e-15 0)
(1 -2.29696e-15 0)
(1 2.22954e-16 0)
(1 -5.44585e-16 0)
(1 -8.73089e-15 0)
(1 7.98036e-16 0)
(1 2.3731e-16 0)
(1 2.44564e-15 0)
(1 3.13603e-15 0)
(1 6.12446e-16 0)
(1 1.21107e-15 0)
(1 4.2382e-15 0)
(1 3.58237e-15 0)
(1 4.88526e-15 0)
(1 7.07125e-15 0)
(1 4.34905e-15 0)
(1 7.03211e-15 0)
(1 3.27276e-15 0)
(1 5.83431e-15 0)
(1 1.09101e-15 0)
(1 5.77597e-16 0)
(1 3.31232e-15 0)
(1 2.38001e-15 0)
(1 -2.91972e-16 0)
(1 2.29891e-15 0)
(1 7.46685e-15 0)
(1 2.0991e-15 0)
(1 9.8733e-15 0)
(1 8.42309e-15 0)
(1 9.22916e-15 0)
(1 7.17713e-15 0)
(1 7.31509e-15 0)
(1 1.41161e-15 0)
(1 2.93524e-15 0)
(1 1.6989e-15 0)
(1 7.64e-15 0)
(1 7.20815e-15 0)
(1 1.0223e-14 0)
(1 6.41256e-15 0)
(1 6.69216e-15 0)
(1 8.53284e-15 0)
(1 6.48574e-15 0)
(1 1.2368e-14 0)
(1 7.95707e-15 0)
(1 8.40496e-15 0)
(1 6.09874e-15 0)
(1 9.43656e-15 0)
(1 7.73791e-15 0)
(1 5.2038e-15 0)
(1 9.38031e-15 0)
(1 4.70312e-15 0)
(1 2.62861e-15 0)
(1 2.6151e-15 0)
(1 1.61714e-15 0)
(1 1.50475e-15 0)
(1 -4.85003e-16 0)
(1 -5.3855e-15 0)
(1 -3.48674e-15 0)
(1 -2.55543e-15 0)
(1 5.76869e-16 0)
(1 -1.67026e-15 0)
(1 3.42914e-15 0)
(1 2.94536e-15 0)
(1 7.72032e-15 0)
(1 7.60427e-15 0)
(1 1.2381e-14 0)
(1 7.07103e-15 0)
(1 4.35286e-15 0)
(1 8.58721e-15 0)
(1 1.10463e-14 0)
(1 7.85881e-15 0)
(1 -1.63103e-15 0)
(1 -2.6008e-15 0)
(1 -1.36924e-16 0)
(1 3.71863e-15 0)
(1 -1.65816e-15 0)
(1 4.6955e-15 0)
(1 8.75257e-15 0)
(1 4.48811e-15 0)
(1 2.21171e-15 0)
(1 1.33755e-15 0)
(1 -5.50764e-15 0)
(1 -1.17484e-14 0)
(1 -6.64005e-15 0)
(1 -6.75683e-15 0)
(1 -9.29361e-16 0)
(1 1.26733e-15 0)
(1 -1.00146e-14 0)
(1 -7.90937e-15 0)
(1 -6.98942e-15 0)
(1 8.34783e-16 0)
(1 1.34437e-15 0)
(1 6.08973e-15 0)
(1 -5.46224e-15 0)
(1 7.06177e-16 0)
(1 -2.07901e-15 0)
(1 4.94898e-15 0)
(1 2.43317e-15 0)
(1 3.36247e-15 0)
(1 -1.91982e-15 0)
(1 -3.41831e-15 0)
(1 -2.53424e-15 0)
(1 -1.61441e-15 0)
(1 3.00206e-15 0)
(1 2.23101e-15 0)
(1 1.072e-15 0)
(1 3.6752e-15 0)
(1 -2.62549e-16 0)
(1 2.56059e-15 0)
(1 4.39387e-15 0)
(1 6.97315e-15 0)
(1 4.33338e-15 0)
(1 4.94926e-15 0)
(1 5.01562e-15 0)
(1 -4.68948e-15 0)
(1 2.09954e-16 0)
(1 -7.80799e-15 0)
(1 5.26263e-15 0)
(1 2.78675e-15 0)
(1 4.37641e-15 0)
(1 -1.02995e-15 0)
(1 6.66497e-15 0)
(1 4.66169e-15 0)
(1 6.27766e-15 0)
(1 1.33667e-15 0)
(1 4.06968e-15 0)
(1 6.49964e-15 0)
(1 1.12112e-14 0)
(1 7.03363e-15 0)
(1 8.04193e-15 0)
(1 -6.522e-16 0)
(1 -2.37757e-15 0)
(1 -2.96902e-15 0)
(1 1.04629e-15 0)
(1 3.89476e-15 0)
(1 4.09025e-15 0)
(1 -1.80071e-16 0)
(1 7.81305e-15 0)
(1 2.63438e-15 0)
(1 1.25352e-14 0)
(1 6.05573e-15 0)
(1 4.67302e-15 0)
(1 8.78405e-15 0)
(1 5.86377e-15 0)
(1 7.37762e-15 0)
(1 6.39705e-15 0)
(1 3.08226e-15 0)
(1 1.80267e-15 0)
(1 2.30378e-15 0)
(1 6.31792e-15 0)
(1 4.36425e-15 0)
(1 3.67007e-15 0)
(1 2.65756e-15 0)
(1 5.61559e-15 0)
(1 4.03771e-15 0)
(1 1.91743e-15 0)
(1 -1.92139e-15 0)
(1 -3.79082e-15 0)
(1 -4.4836e-15 0)
(1 -9.14371e-16 0)
(1 1.86469e-15 0)
(1 5.37052e-15 0)
(1 4.62947e-15 0)
(1 6.36057e-15 0)
(1 5.71242e-15 0)
(1 9.68368e-15 0)
(1 5.99578e-15 0)
(1 5.3675e-15 0)