/*--------------------------------*- C++ -*----------------------------------*\
| =========                 |                                                 |
| \\      /  F ield         | OpenFOAM: The Open Source CFD Toolbox           |
|  \\    /   O peration     | Version:  v2012                                 |
|   \\  /    A nd           | Website:  www.openfoam.com                      |
|    \\/     M anipulation  |                                                 |
\*---------------------------------------------------------------------------*/
FoamFile
{
    version     2.0;
    format      ascii;
    class       volVectorField;
    location    "70";
    object      Usup;
}
// * * * * * * * * * * * * * * * * * * * * * * * * * * * * * * * * * * * * * //

dimensions      [0 1 -1 0 0 0 0];


internalField   nonuniform List<vector> 
4000
(
(-8.6706e-17 -1.4778e-16 0)
(-7.92753e-17 -1.36093e-16 0)
(3.50005e-19 -1.42161e-16 0)
(1.72794e-16 -3.88543e-16 0)
(1.65447e-17 -8.38763e-16 0)
(-6.29566e-16 -1.01145e-15 0)
(-1.13157e-15 -1.10277e-15 0)
(-1.94026e-15 -1.0075e-15 0)
(-2.66326e-15 -9.53516e-16 0)
(-2.85785e-15 -1.49167e-15 0)
(-3.42539e-15 -1.82879e-15 0)
(-4.6024e-15 -1.71299e-15 0)
(-5.18509e-15 -1.16479e-15 0)
(-4.78173e-15 -6.65566e-16 0)
(-4.31755e-15 -5.15816e-16 0)
(-4.24231e-15 -6.24387e-16 0)
(-4.50468e-15 -6.91648e-16 0)
(-5.04009e-15 -7.95155e-16 0)
(-5.48619e-15 -9.66603e-16 0)
(-6.12954e-15 -1.07575e-15 0)
(-6.72429e-15 -8.36475e-16 0)
(-6.31777e-15 -6.02341e-16 0)
(-5.70195e-15 -5.3235e-16 0)
(-5.69761e-15 -5.47769e-16 0)
(-5.68772e-15 -2.51746e-16 0)
(-5.3515e-15 1.43245e-17 0)
(-5.309e-15 2.54344e-16 0)
(-5.58744e-15 2.76018e-16 0)
(-5.39518e-15 2.38733e-16 0)
(-5.35212e-15 -1.0211e-16 0)
(-5.5893e-15 -6.72443e-17 0)
(-5.07305e-15 -9.68207e-17 0)
(-4.86614e-15 -2.41307e-16 0)
(-5.22864e-15 -1.294e-16 0)
(-5.31101e-15 -3.16828e-16 0)
(-5.23536e-15 -9.71839e-17 0)
(-5.63781e-15 2.96526e-17 0)
(-5.83969e-15 3.1972e-16 0)
(-5.05307e-15 5.67077e-16 0)
(-4.50567e-15 2.41302e-16 0)
(-4.26807e-15 9.57884e-17 0)
(-3.73941e-15 -8.65542e-18 0)
(-3.42112e-15 -1.49695e-16 0)
(-3.91709e-15 -5.0386e-16 0)
(-4.76219e-15 -4.35218e-16 0)
(-4.76731e-15 -5.14034e-16 0)
(-4.3499e-15 -6.62886e-16 0)
(-4.85093e-15 -1.16768e-15 0)
(-5.72919e-15 -1.01741e-15 0)
(-6.08343e-15 -1.0392e-15 0)
(-6.26312e-15 -1.05682e-15 0)
(-6.36871e-15 -7.78969e-16 0)
(-6.66831e-15 -6.38443e-16 0)
(-6.71028e-15 -3.44502e-16 0)
(-6.45291e-15 -4.07583e-16 0)
(-6.32475e-15 -1.68656e-16 0)
(-5.79196e-15 -2.6958e-16 0)
(-5.08828e-15 -6.74208e-16 0)
(-4.82444e-15 -9.51247e-16 0)
(-4.7231e-15 -1.22953e-15 0)
(-4.30566e-15 -1.20022e-15 0)
(-4.26252e-15 -1.43544e-15 0)
(-4.57066e-15 -1.14404e-15 0)
(-4.42507e-15 -9.96455e-16 0)
(-4.09773e-15 -9.53677e-16 0)
(-4.11729e-15 -8.57265e-16 0)
(-4.51881e-15 -7.09865e-16 0)
(-5.12795e-15 -7.28178e-16 0)
(-5.23471e-15 -6.42444e-16 0)
(-4.95565e-15 -8.36049e-16 0)
(-5.00335e-15 -6.78386e-16 0)
(-5.13469e-15 -9.16514e-16 0)
(-5.0336e-15 -8.42698e-16 0)
(-4.4557e-15 -1.00269e-15 0)
(-4.00045e-15 -1.17869e-15 0)
(-4.50088e-15 -1.40661e-15 0)
(-5.48123e-15 -1.63125e-15 0)
(-6.35963e-15 -1.53383e-15 0)
(-7.24475e-15 -1.52122e-15 0)
(-7.81193e-15 -1.14668e-15 0)
(-7.75197e-15 -6.3456e-16 0)
(-7.48245e-15 -7.20689e-16 0)
(-7.491e-15 -8.57636e-16 0)
(-7.37032e-15 -8.63452e-16 0)
(-7.11334e-15 -9.43285e-16 0)
(-7.57284e-15 -1.15654e-15 0)
(-7.71714e-15 -1.01038e-15 0)
(-6.75548e-15 -6.41399e-16 0)
(-5.72725e-15 -8.06569e-16 0)
(-5.53349e-15 -8.98911e-16 0)
(-5.61045e-15 -8.21982e-16 0)
(-4.93058e-15 -8.00944e-16 0)
(-4.20865e-15 -6.81583e-16 0)
(-4.17699e-15 -8.57536e-16 0)
(-3.9008e-15 -6.45398e-16 0)
(-3.3983e-15 -4.54487e-16 0)
(-3.30384e-15 -3.31706e-16 0)
(-2.75473e-15 -5.49487e-17 0)
(-2.12938e-15 -1.9459e-16 0)
(-1.05878e-15 4.96133e-17 0)
(-6.59758e-17 -3.41264e-16 0)
(-6.40328e-17 -4.86668e-16 0)
(-2.33008e-16 -7.1847e-16 0)
(-4.37149e-16 -1.27535e-15 0)
(-9.58567e-16 -2.25644e-15 0)
(-2.24525e-15 -3.01193e-15 0)
(-3.53001e-15 -3.36409e-15 0)
(-5.44793e-15 -3.49437e-15 0)
(-7.76862e-15 -3.7242e-15 0)
(-9.03407e-15 -4.45647e-15 0)
(-1.01739e-14 -4.94708e-15 0)
(-1.21124e-14 -4.72705e-15 0)
(-1.32323e-14 -3.37042e-15 0)
(-1.30086e-14 -2.21535e-15 0)
(-1.26803e-14 -1.68609e-15 0)
(-1.27852e-14 -1.83588e-15 0)
(-1.34688e-14 -2.26158e-15 0)
(-1.48173e-14 -2.68866e-15 0)
(-1.60315e-14 -2.77524e-15 0)
(-1.72237e-14 -2.97643e-15 0)
(-1.81791e-14 -2.64053e-15 0)
(-1.76262e-14 -2.01482e-15 0)
(-1.66339e-14 -1.82657e-15 0)
(-1.62858e-14 -1.45663e-15 0)
(-1.5931e-14 -6.05691e-16 0)
(-1.53213e-14 1.69123e-16 0)
(-1.53754e-14 7.14824e-16 0)
(-1.60037e-14 6.67348e-16 0)
(-1.59448e-14 7.56175e-16 0)
(-1.57857e-14 -2.77666e-17 0)
(-1.58438e-14 -3.40086e-16 0)
(-1.50296e-14 -2.7829e-16 0)
(-1.45146e-14 -4.69564e-16 0)
(-1.51536e-14 -3.3291e-16 0)
(-1.52812e-14 -3.34929e-16 0)
(-1.50113e-14 5.6564e-19 0)
(-1.56558e-14 2.08498e-16 0)
(-1.57753e-14 5.92671e-16 0)
(-1.4645e-14 6.7206e-16 0)
(-1.36264e-14 2.08161e-16 0)
(-1.269e-14 8.46039e-17 0)
(-1.1553e-14 -4.30873e-17 0)
(-1.11543e-14 -4.13673e-16 0)
(-1.20063e-14 -1.1119e-15 0)
(-1.34754e-14 -1.26178e-15 0)
(-1.38684e-14 -1.48237e-15 0)
(-1.37133e-14 -2.04537e-15 0)
(-1.46473e-14 -3.0811e-15 0)
(-1.61831e-14 -2.93322e-15 0)
(-1.73095e-14 -2.86045e-15 0)
(-1.76687e-14 -2.85163e-15 0)
(-1.79364e-14 -2.45722e-15 0)
(-1.85353e-14 -2.17722e-15 0)
(-1.87596e-14 -1.23077e-15 0)
(-1.8249e-14 -1.23083e-15 0)
(-1.77729e-14 -8.15233e-16 0)
(-1.69737e-14 -8.92514e-16 0)
(-1.55218e-14 -1.58502e-15 0)
(-1.46248e-14 -2.37198e-15 0)
(-1.3941e-14 -3.3215e-15 0)
(-1.30309e-14 -3.75275e-15 0)
(-1.2663e-14 -4.29081e-15 0)
(-1.28372e-14 -3.81733e-15 0)
(-1.2735e-14 -3.29733e-15 0)
(-1.21943e-14 -2.84923e-15 0)
(-1.22203e-14 -2.54963e-15 0)
(-1.3192e-14 -2.14456e-15 0)
(-1.4486e-14 -2.23582e-15 0)
(-1.49423e-14 -2.03667e-15 0)
(-1.44798e-14 -2.32525e-15 0)
(-1.45911e-14 -2.47976e-15 0)
(-1.48518e-14 -2.74071e-15 0)
(-1.45215e-14 -2.50056e-15 0)
(-1.36167e-14 -3.03533e-15 0)
(-1.29492e-14 -3.69786e-15 0)
(-1.41546e-14 -4.41431e-15 0)
(-1.61726e-14 -4.75459e-15 0)
(-1.82107e-14 -4.52946e-15 0)
(-2.01408e-14 -4.20926e-15 0)
(-2.11621e-14 -3.45812e-15 0)
(-2.16014e-14 -2.23181e-15 0)
(-2.16568e-14 -2.21182e-15 0)
(-2.15448e-14 -2.64585e-15 0)
(-2.12228e-14 -2.79917e-15 0)
(-2.09173e-14 -2.85119e-15 0)
(-2.14257e-14 -3.05544e-15 0)
(-2.0979e-14 -2.52176e-15 0)
(-1.91285e-14 -2.08458e-15 0)
(-1.71825e-14 -2.22792e-15 0)
(-1.61802e-14 -2.5668e-15 0)
(-1.57664e-14 -2.56798e-15 0)
(-1.41307e-14 -2.2812e-15 0)
(-1.25871e-14 -2.39084e-15 0)
(-1.19938e-14 -2.58326e-15 0)
(-1.08411e-14 -2.04876e-15 0)
(-9.63284e-15 -1.48186e-15 0)
(-8.86229e-15 -1.12322e-15 0)
(-7.49476e-15 -4.40128e-16 0)
(-5.56176e-15 -5.62039e-16 0)
(-2.49637e-15 -1.91424e-16 0)
(-8.76254e-17 -3.1101e-16 0)
(-2.50991e-16 -7.64079e-16 0)
(-7.28247e-16 -1.41686e-15 0)
(-1.39717e-15 -2.3356e-15 0)
(-2.58246e-15 -3.52007e-15 0)
(-4.40887e-15 -4.90075e-15 0)
(-6.29946e-15 -5.63598e-15 0)
(-9.22225e-15 -6.53259e-15 0)
(-1.24807e-14 -6.90686e-15 0)
(-1.44933e-14 -7.07459e-15 0)
(-1.63369e-14 -7.55816e-15 0)
(-1.85538e-14 -7.29883e-15 0)
(-1.99242e-14 -5.37823e-15 0)
(-2.01987e-14 -3.94119e-15 0)
(-2.04033e-14 -3.14807e-15 0)
(-2.12031e-14 -3.17125e-15 0)
(-2.24695e-14 -4.08058e-15 0)
(-2.4048e-14 -4.92017e-15 0)
(-2.56952e-14 -4.59196e-15 0)
(-2.74697e-14 -4.66884e-15 0)
(-2.84554e-14 -4.23701e-15 0)
(-2.78361e-14 -3.6203e-15 0)
(-2.65972e-14 -3.33326e-15 0)
(-2.57669e-14 -2.40452e-15 0)
(-2.51821e-14 -1.04741e-15 0)
(-2.4578e-14 1.33866e-16 0)
(-2.49775e-14 5.9451e-16 0)
(-2.57477e-14 8.17079e-16 0)
(-2.58926e-14 1.02283e-15 0)
(-2.6019e-14 3.57499e-16 0)
(-2.56293e-14 -1.73767e-16 0)
(-2.43858e-14 -3.09931e-16 0)
(-2.38047e-14 -7.48729e-16 0)
(-2.43459e-14 -7.50387e-16 0)
(-2.44729e-14 -1.76355e-16 0)
(-2.43185e-14 1.21417e-16 0)
(-2.50558e-14 8.58778e-17 0)
(-2.52459e-14 3.58423e-16 0)
(-2.38127e-14 2.74017e-16 0)
(-2.21277e-14 6.81347e-17 0)
(-2.06686e-14 8.71697e-17 0)
(-1.93417e-14 1.9744e-18 0)
(-1.90535e-14 -4.85283e-16 0)
(-2.01734e-14 -1.45483e-15 0)
(-2.1951e-14 -2.43357e-15 0)
(-2.27606e-14 -2.74883e-15 0)
(-2.30935e-14 -3.44689e-15 0)
(-2.42146e-14 -4.26198e-15 0)
(-2.59506e-14 -4.57665e-15 0)
(-2.75824e-14 -4.68777e-15 0)
(-2.82969e-14 -4.84234e-15 0)
(-2.87435e-14 -4.43053e-15 0)
(-2.91399e-14 -3.57072e-15 0)
(-2.94274e-14 -2.36099e-15 0)
(-2.9062e-14 -1.96394e-15 0)
(-2.8272e-14 -1.83714e-15 0)
(-2.72786e-14 -1.89043e-15 0)
(-2.56142e-14 -2.49236e-15 0)
(-2.45296e-14 -3.68616e-15 0)
(-2.3453e-14 -4.96778e-15 0)
(-2.19507e-14 -5.94064e-15 0)
(-2.09593e-14 -6.32984e-15 0)
(-2.06219e-14 -6.19725e-15 0)
(-2.02732e-14 -5.481e-15 0)
(-1.97684e-14 -4.79166e-15 0)
(-1.9994e-14 -4.61018e-15 0)
(-2.14715e-14 -4.06125e-15 0)
(-2.3242e-14 -4.03228e-15 0)
(-2.39058e-14 -3.56089e-15 0)
(-2.37761e-14 -3.60703e-15 0)
(-2.38678e-14 -4.07154e-15 0)
(-2.37991e-14 -4.07325e-15 0)
(-2.36399e-14 -4.20167e-15 0)
(-2.30323e-14 -5.19e-15 0)
(-2.24651e-14 -6.34394e-15 0)
(-2.39106e-14 -7.44599e-15 0)
(-2.63658e-14 -7.51771e-15 0)
(-2.90815e-14 -7.44171e-15 0)
(-3.17409e-14 -6.91766e-15 0)
(-3.30979e-14 -5.68809e-15 0)
(-3.39886e-14 -4.47995e-15 0)
(-3.4804e-14 -3.66528e-15 0)
(-3.48403e-14 -4.14491e-15 0)
(-3.41717e-14 -4.79859e-15 0)
(-3.36154e-14 -4.91033e-15 0)
(-3.37997e-14 -4.99897e-15 0)
(-3.30073e-14 -3.95337e-15 0)
(-3.06722e-14 -3.45281e-15 0)
(-2.80864e-14 -3.51407e-15 0)
(-2.6502e-14 -4.10901e-15 0)
(-2.5143e-14 -4.11879e-15 0)
(-2.28717e-14 -3.72585e-15 0)
(-2.0768e-14 -3.90719e-15 0)
(-1.9163e-14 -4.05003e-15 0)
(-1.70884e-14 -3.36708e-15 0)
(-1.5231e-14 -2.67365e-15 0)
(-1.37023e-14 -2.12078e-15 0)
(-1.15283e-14 -1.44207e-15 0)
(-8.55802e-15 -1.15954e-15 0)
(-3.51183e-15 -5.77776e-16 0)
(-1.82378e-16 -3.14759e-16 0)
(-6.52458e-16 -9.8189e-16 0)
(-1.61938e-15 -2.15823e-15 0)
(-2.78931e-15 -3.38763e-15 0)
(-4.59418e-15 -4.96657e-15 0)
(-6.93896e-15 -6.2697e-15 0)
(-9.49941e-15 -7.63201e-15 0)
(-1.2979e-14 -8.98099e-15 0)
(-1.65637e-14 -9.6852e-15 0)
(-1.9548e-14 -9.87096e-15 0)
(-2.20992e-14 -1.01319e-14 0)
(-2.4027e-14 -9.08726e-15 0)
(-2.5508e-14 -7.07221e-15 0)
(-2.66071e-14 -5.82812e-15 0)
(-2.75649e-14 -5.25144e-15 0)
(-2.93088e-14 -5.09987e-15 0)
(-3.13165e-14 -5.93625e-15 0)
(-3.27581e-14 -6.50664e-15 0)
(-3.44899e-14 -6.47063e-15 0)
(-3.66318e-14 -6.65908e-15 0)
(-3.77469e-14 -5.84286e-15 0)
(-3.72928e-14 -5.2998e-15 0)
(-3.57199e-14 -4.78451e-15 0)
(-3.43162e-14 -3.39758e-15 0)
(-3.35286e-14 -1.55742e-15 0)
(-3.32861e-14 -2.81393e-16 0)
(-3.38938e-14 -2.10679e-17 0)
(-3.46852e-14 5.99235e-16 0)
(-3.51511e-14 9.23762e-16 0)
(-3.54094e-14 6.1669e-16 0)
(-3.49518e-14 2.95227e-16 0)
(-3.37405e-14 -2.95161e-16 0)
(-3.29341e-14 -7.69362e-16 0)
(-3.29076e-14 -9.34983e-16 0)
(-3.29008e-14 -2.9568e-16 0)
(-3.31231e-14 -1.75382e-16 0)
(-3.38463e-14 -9.32114e-17 0)
(-3.37505e-14 1.55231e-16 0)
(-3.2181e-14 2.3818e-16 0)
(-3.01898e-14 3.80409e-17 0)
(-2.83993e-14 -8.68593e-17 0)
(-2.70147e-14 2.12442e-17 0)
(-2.70719e-14 -6.49033e-16 0)
(-2.87223e-14 -2.11898e-15 0)
(-3.0453e-14 -3.76019e-15 0)
(-3.11689e-14 -4.28519e-15 0)
(-3.18434e-14 -4.88051e-15 0)
(-3.33759e-14 -5.66897e-15 0)
(-3.55259e-14 -6.13656e-15 0)
(-3.74774e-14 -6.23666e-15 0)
(-3.81421e-14 -6.24795e-15 0)
(-3.81507e-14 -5.77485e-15 0)
(-3.8488e-14 -4.88398e-15 0)
(-3.90558e-14 -3.84502e-15 0)
(-3.89812e-14 -3.06904e-15 0)
(-3.82131e-14 -3.04617e-15 0)
(-3.70151e-14 -3.36587e-15 0)
(-3.5354e-14 -3.95373e-15 0)
(-3.41011e-14 -5.39859e-15 0)
(-3.25843e-14 -6.26489e-15 0)
(-3.04422e-14 -7.30865e-15 0)
(-2.89592e-14 -7.75532e-15 0)
(-2.82378e-14 -7.81604e-15 0)
(-2.75854e-14 -7.08825e-15 0)
(-2.73231e-14 -6.67102e-15 0)
(-2.76244e-14 -6.62706e-15 0)
(-2.92087e-14 -6.5069e-15 0)
(-3.1165e-14 -6.36122e-15 0)
(-3.20254e-14 -5.66571e-15 0)
(-3.23413e-14 -5.27779e-15 0)
(-3.25028e-14 -5.43513e-15 0)
(-3.25695e-14 -5.41167e-15 0)
(-3.28652e-14 -6.083e-15 0)
(-3.2517e-14 -7.39341e-15 0)
(-3.20853e-14 -9.19481e-15 0)
(-3.34279e-14 -1.01619e-14 0)
(-3.6125e-14 -9.88431e-15 0)
(-3.94518e-14 -9.96884e-15 0)
(-4.21303e-14 -9.62414e-15 0)
(-4.37877e-14 -7.75255e-15 0)
(-4.50507e-14 -6.59999e-15 0)
(-4.64499e-14 -5.61905e-15 0)
(-4.73729e-14 -5.68434e-15 0)
(-4.65943e-14 -6.25758e-15 0)
(-4.56107e-14 -6.89281e-15 0)
(-4.50466e-14 -6.84963e-15 0)
(-4.35356e-14 -5.35479e-15 0)
(-4.11763e-14 -4.62646e-15 0)
(-3.84985e-14 -4.86965e-15 0)
(-3.61919e-14 -5.60297e-15 0)
(-3.38967e-14 -5.55302e-15 0)
(-3.09876e-14 -5.1515e-15 0)
(-2.84029e-14 -5.01297e-15 0)
(-2.59504e-14 -5.03401e-15 0)
(-2.29176e-14 -4.31603e-15 0)
(-2.04081e-14 -4.04807e-15 0)
(-1.81659e-14 -3.37648e-15 0)
(-1.51325e-14 -2.92763e-15 0)
(-1.0938e-14 -2.19392e-15 0)
(-4.27503e-15 -7.87396e-16 0)
(-2.67891e-16 -6.40276e-16 0)
(-1.25938e-15 -1.58005e-15 0)
(-2.74562e-15 -3.03907e-15 0)
(-4.43491e-15 -4.37032e-15 0)
(-6.63806e-15 -6.00404e-15 0)
(-9.54816e-15 -7.20304e-15 0)
(-1.29133e-14 -8.90406e-15 0)
(-1.69227e-14 -1.06098e-14 0)
(-2.09056e-14 -1.23156e-14 0)
(-2.41086e-14 -1.29054e-14 0)
(-2.65515e-14 -1.23465e-14 0)
(-2.8515e-14 -1.0564e-14 0)
(-3.08274e-14 -8.86762e-15 0)
(-3.28333e-14 -7.97277e-15 0)
(-3.43099e-14 -7.61731e-15 0)
(-3.6663e-14 -7.19697e-15 0)
(-3.91385e-14 -7.67257e-15 0)
(-4.08996e-14 -8.11269e-15 0)
(-4.31248e-14 -8.64257e-15 0)
(-4.50996e-14 -8.38951e-15 0)
(-4.60615e-14 -7.32711e-15 0)
(-4.5789e-14 -6.77971e-15 0)
(-4.38084e-14 -6.03766e-15 0)
(-4.18376e-14 -4.23144e-15 0)
(-4.11534e-14 -2.47221e-15 0)
(-4.15191e-14 -1.27402e-15 0)
(-4.22681e-14 -8.94875e-16 0)
(-4.29112e-14 -1.1599e-16 0)
(-4.36284e-14 6.42115e-16 0)
(-4.4109e-14 6.92391e-16 0)
(-4.37882e-14 5.07176e-16 0)
(-4.24534e-14 -2.83446e-16 0)
(-4.14215e-14 -7.13155e-16 0)
(-4.11274e-14 -7.82205e-16 0)
(-4.10513e-14 -3.92053e-16 0)
(-4.12874e-14 -4.39656e-16 0)
(-4.18574e-14 -3.12163e-16 0)
(-4.1774e-14 -1.12944e-16 0)
(-4.01243e-14 1.69499e-16 0)
(-3.79579e-14 -7.04371e-17 0)
(-3.57077e-14 -4.10566e-16 0)
(-3.43711e-14 -5.0722e-16 0)
(-3.51322e-14 -1.23835e-15 0)
(-3.72299e-14 -2.81373e-15 0)
(-3.87953e-14 -4.33275e-15 0)
(-3.93146e-14 -5.45703e-15 0)
(-4.0352e-14 -6.40572e-15 0)
(-4.20873e-14 -7.33955e-15 0)
(-4.41462e-14 -7.75395e-15 0)
(-4.61874e-14 -7.44895e-15 0)
(-4.70622e-14 -6.86963e-15 0)
(-4.72563e-14 -6.73411e-15 0)
(-4.74705e-14 -6.68921e-15 0)
(-4.78319e-14 -5.75426e-15 0)
(-4.79371e-14 -4.81921e-15 0)
(-4.74514e-14 -4.65317e-15 0)
(-4.6206e-14 -5.04366e-15 0)
(-4.45906e-14 -5.68855e-15 0)
(-4.3013e-14 -6.94623e-15 0)
(-4.10628e-14 -7.25008e-15 0)
(-3.87863e-14 -8.26359e-15 0)
(-3.67797e-14 -8.81983e-15 0)
(-3.54307e-14 -8.88658e-15 0)
(-3.46252e-14 -8.63398e-15 0)
(-3.45922e-14 -9.02282e-15 0)
(-3.51834e-14 -9.0146e-15 0)
(-3.69196e-14 -9.30368e-15 0)
(-3.86628e-14 -9.04377e-15 0)
(-3.94353e-14 -8.17967e-15 0)
(-4.00882e-14 -7.32187e-15 0)
(-4.05614e-14 -7.22415e-15 0)
(-4.09529e-14 -7.32562e-15 0)
(-4.18056e-14 -8.15502e-15 0)
(-4.20856e-14 -9.38538e-15 0)
(-4.15827e-14 -1.13293e-14 0)
(-4.22742e-14 -1.22337e-14 0)
(-4.52374e-14 -1.19106e-14 0)
(-4.92025e-14 -1.19135e-14 0)
(-5.16326e-14 -1.14917e-14 0)
(-5.33059e-14 -9.90335e-15 0)
(-5.53651e-14 -8.73707e-15 0)
(-5.72723e-14 -7.79458e-15 0)
(-5.84585e-14 -7.38334e-15 0)
(-5.80686e-14 -7.62251e-15 0)
(-5.68073e-14 -8.14642e-15 0)
(-5.50705e-14 -7.66732e-15 0)
(-5.31295e-14 -6.45295e-15 0)
(-5.10406e-14 -6.08386e-15 0)
(-4.83204e-14 -6.28278e-15 0)
(-4.536e-14 -6.72953e-15 0)
(-4.20251e-14 -6.68566e-15 0)
(-3.84476e-14 -6.1541e-15 0)
(-3.53851e-14 -6.12996e-15 0)
(-3.2143e-14 -5.92956e-15 0)
(-2.86142e-14 -5.51048e-15 0)
(-2.54565e-14 -5.32076e-15 0)
(-2.23391e-14 -4.89659e-15 0)
(-1.84148e-14 -4.43524e-15 0)
(-1.27331e-14 -3.27827e-15 0)
(-4.75013e-15 -9.69444e-16 0)
(-4.04245e-16 -7.53279e-16 0)
(-1.85509e-15 -2.30134e-15 0)
(-3.86747e-15 -3.66288e-15 0)
(-5.97992e-15 -5.00755e-15 0)
(-8.64939e-15 -6.97275e-15 0)
(-1.21853e-14 -8.53971e-15 0)
(-1.64051e-14 -9.99135e-15 0)
(-2.12674e-14 -1.22484e-14 0)
(-2.54303e-14 -1.42082e-14 0)
(-2.81159e-14 -1.47941e-14 0)
(-3.02446e-14 -1.40717e-14 0)
(-3.25526e-14 -1.22475e-14 0)
(-3.56815e-14 -1.0944e-14 0)
(-3.85071e-14 -1.00063e-14 0)
(-4.04035e-14 -9.65476e-15 0)
(-4.33357e-14 -9.58938e-15 0)
(-4.66185e-14 -9.77219e-15 0)
(-4.88052e-14 -1.03846e-14 0)
(-5.07312e-14 -1.0853e-14 0)
(-5.23189e-14 -1.02699e-14 0)
(-5.36458e-14 -9.1269e-15 0)
(-5.36093e-14 -7.80957e-15 0)
(-5.11105e-14 -6.10091e-15 0)
(-4.88783e-14 -4.76482e-15 0)
(-4.84213e-14 -4.0624e-15 0)
(-4.90635e-14 -3.08431e-15 0)
(-4.98694e-14 -2.22627e-15 0)
(-5.02915e-14 -1.095e-15 0)
(-5.11916e-14 -8.00336e-17 0)
(-5.20307e-14 3.76519e-16 0)
(-5.20636e-14 4.0601e-16 0)
(-5.08843e-14 5.78109e-17 0)
(-4.94321e-14 -7.73702e-16 0)
(-4.87435e-14 -1.06729e-15 0)
(-4.86767e-14 -1.04223e-15 0)
(-4.90246e-14 -1.20485e-15 0)
(-4.94388e-14 -1.13798e-15 0)
(-4.89743e-14 -4.14054e-16 0)
(-4.73257e-14 2.20742e-16 0)
(-4.5335e-14 -2.48019e-16 0)
(-4.30302e-14 -1.04785e-15 0)
(-4.16528e-14 -1.7311e-15 0)
(-4.27289e-14 -2.64713e-15 0)
(-4.51335e-14 -3.45977e-15 0)
(-4.68758e-14 -4.5047e-15 0)
(-4.75808e-14 -5.95964e-15 0)
(-4.85856e-14 -7.49274e-15 0)
(-5.03024e-14 -8.67311e-15 0)
(-5.21785e-14 -9.26283e-15 0)
(-5.39893e-14 -8.8524e-15 0)
(-5.52562e-14 -8.21714e-15 0)
(-5.59959e-14 -8.08915e-15 0)
(-5.59247e-14 -8.11655e-15 0)
(-5.5825e-14 -7.68098e-15 0)
(-5.61008e-14 -6.90432e-15 0)
(-5.59143e-14 -6.66342e-15 0)
(-5.47788e-14 -6.76234e-15 0)
(-5.31615e-14 -7.43663e-15 0)
(-5.10968e-14 -8.18407e-15 0)
(-4.89171e-14 -8.44281e-15 0)
(-4.65726e-14 -9.079e-15 0)
(-4.41264e-14 -9.60996e-15 0)
(-4.26519e-14 -9.71902e-15 0)
(-4.21495e-14 -1.04273e-14 0)
(-4.20632e-14 -1.13396e-14 0)
(-4.24093e-14 -1.18961e-14 0)
(-4.4042e-14 -1.21821e-14 0)
(-4.54293e-14 -1.17414e-14 0)
(-4.60871e-14 -1.07552e-14 0)
(-4.71386e-14 -9.61913e-15 0)
(-4.81442e-14 -8.91735e-15 0)
(-4.90144e-14 -9.23938e-15 0)
(-5.02605e-14 -1.04779e-14 0)
(-5.09159e-14 -1.14911e-14 0)
(-5.06187e-14 -1.28625e-14 0)
(-5.0952e-14 -1.38641e-14 0)
(-5.38845e-14 -1.39477e-14 0)
(-5.81347e-14 -1.35129e-14 0)
(-6.05777e-14 -1.24457e-14 0)
(-6.24222e-14 -1.19678e-14 0)
(-6.46255e-14 -1.10134e-14 0)
(-6.68007e-14 -9.578e-15 0)
(-6.86289e-14 -8.91889e-15 0)
(-6.84236e-14 -8.9593e-15 0)
(-6.66665e-14 -8.67867e-15 0)
(-6.44372e-14 -8.14578e-15 0)
(-6.24009e-14 -7.5979e-15 0)
(-6.02265e-14 -7.25781e-15 0)
(-5.71457e-14 -7.20711e-15 0)
(-5.36218e-14 -7.40126e-15 0)
(-4.95435e-14 -7.43326e-15 0)
(-4.55279e-14 -7.11541e-15 0)
(-4.20357e-14 -7.16186e-15 0)
(-3.81426e-14 -7.0452e-15 0)
(-3.39334e-14 -6.89201e-15 0)
(-3.01634e-14 -6.61989e-15 0)
(-2.63615e-14 -6.28799e-15 0)
(-2.12739e-14 -5.4646e-15 0)
(-1.40436e-14 -3.71782e-15 0)
(-5.04207e-15 -1.17923e-15 0)
(-8.29672e-16 -7.25073e-16 0)
(-2.67317e-15 -2.6338e-15 0)
(-4.8493e-15 -4.30888e-15 0)
(-7.83687e-15 -5.90912e-15 0)
(-1.11462e-14 -7.8507e-15 0)
(-1.47379e-14 -9.6878e-15 0)
(-1.97714e-14 -1.12837e-14 0)
(-2.53819e-14 -1.3374e-14 0)
(-2.93816e-14 -1.49435e-14 0)
(-3.18358e-14 -1.539e-14 0)
(-3.36792e-14 -1.50745e-14 0)
(-3.62909e-14 -1.39975e-14 0)
(-4.01753e-14 -1.31069e-14 0)
(-4.36322e-14 -1.20304e-14 0)
(-4.63862e-14 -1.17103e-14 0)
(-4.973e-14 -1.20539e-14 0)
(-5.33123e-14 -1.22445e-14 0)
(-5.5904e-14 -1.24733e-14 0)
(-5.78457e-14 -1.29161e-14 0)
(-5.91496e-14 -1.20672e-14 0)
(-5.99451e-14 -1.05261e-14 0)
(-5.94609e-14 -8.39684e-15 0)
(-5.75316e-14 -6.31903e-15 0)
(-5.62824e-14 -5.93903e-15 0)
(-5.57971e-14 -6.11414e-15 0)
(-5.5962e-14 -5.3567e-15 0)
(-5.65109e-14 -3.97207e-15 0)
(-5.69535e-14 -2.31348e-15 0)
(-5.80739e-14 -1.09237e-15 0)
(-5.91761e-14 -4.07159e-16 0)
(-5.93335e-14 -1.52962e-16 0)
(-5.85115e-14 1.15643e-16 0)
(-5.73347e-14 -5.09064e-16 0)
(-5.6331e-14 -1.40236e-15 0)
(-5.60838e-14 -2.03666e-15 0)
(-5.61929e-14 -2.49659e-15 0)
(-5.59658e-14 -2.24395e-15 0)
(-5.52389e-14 -1.37556e-15 0)
(-5.41587e-14 -7.04022e-16 0)
(-5.27109e-14 -1.01004e-15 0)
(-5.03218e-14 -1.65627e-15 0)
(-4.88752e-14 -2.48534e-15 0)
(-4.96889e-14 -3.6223e-15 0)
(-5.2008e-14 -4.07454e-15 0)
(-5.43051e-14 -5.17553e-15 0)
(-5.55235e-14 -6.66543e-15 0)
(-5.67644e-14 -8.70428e-15 0)
(-5.82779e-14 -1.04642e-14 0)
(-5.96697e-14 -1.08906e-14 0)
(-6.12805e-14 -1.0211e-14 0)
(-6.27511e-14 -9.77439e-15 0)
(-6.37084e-14 -9.78522e-15 0)
(-6.38391e-14 -9.78649e-15 0)
(-6.35994e-14 -9.52833e-15 0)
(-6.36815e-14 -8.82169e-15 0)
(-6.35345e-14 -8.17978e-15 0)
(-6.25518e-14 -8.50703e-15 0)
(-6.09537e-14 -9.0824e-15 0)
(-5.86221e-14 -9.50239e-15 0)
(-5.61924e-14 -9.9289e-15 0)
(-5.37918e-14 -9.98139e-15 0)
(-5.11625e-14 -1.05268e-14 0)
(-4.97955e-14 -1.1197e-14 0)
(-4.9506e-14 -1.22755e-14 0)
(-4.93642e-14 -1.30388e-14 0)
(-4.95874e-14 -1.4232e-14 0)
(-5.07616e-14 -1.43724e-14 0)
(-5.17787e-14 -1.39645e-14 0)
(-5.22395e-14 -1.29089e-14 0)
(-5.32732e-14 -1.18222e-14 0)
(-5.49736e-14 -1.14234e-14 0)
(-5.6945e-14 -1.17467e-14 0)
(-5.848e-14 -1.27908e-14 0)
(-5.91008e-14 -1.37801e-14 0)
(-5.89708e-14 -1.47143e-14 0)
(-5.9279e-14 -1.53024e-14 0)
(-6.19024e-14 -1.54568e-14 0)
(-6.5801e-14 -1.46924e-14 0)
(-6.89345e-14 -1.33537e-14 0)
(-7.12865e-14 -1.31185e-14 0)
(-7.3046e-14 -1.22727e-14 0)
(-7.5383e-14 -1.12495e-14 0)
(-7.77013e-14 -1.06185e-14 0)
(-7.74914e-14 -1.01275e-14 0)
(-7.55748e-14 -9.59314e-15 0)
(-7.32643e-14 -8.957e-15 0)
(-7.09132e-14 -8.38038e-15 0)
(-6.84592e-14 -7.80439e-15 0)
(-6.52744e-14 -7.44555e-15 0)
(-6.14516e-14 -7.77431e-15 0)
(-5.67717e-14 -8.18532e-15 0)
(-5.21892e-14 -8.25655e-15 0)
(-4.82254e-14 -8.16795e-15 0)
(-4.3766e-14 -8.15724e-15 0)
(-3.90168e-14 -8.0819e-15 0)
(-3.45652e-14 -7.99849e-15 0)
(-2.98064e-14 -7.24282e-15 0)
(-2.35191e-14 -5.88722e-15 0)
(-1.51881e-14 -3.98786e-15 0)
(-5.37553e-15 -1.47326e-15 0)
(-1.18001e-15 -8.09668e-16 0)
(-3.66457e-15 -2.47147e-15 0)
(-6.2989e-15 -4.55681e-15 0)
(-9.46236e-15 -6.70983e-15 0)
(-1.32145e-14 -8.54583e-15 0)
(-1.74807e-14 -1.05113e-14 0)
(-2.29414e-14 -1.23776e-14 0)
(-2.88856e-14 -1.38966e-14 0)
(-3.29544e-14 -1.51902e-14 0)
(-3.53497e-14 -1.56156e-14 0)
(-3.74063e-14 -1.5665e-14 0)
(-4.02579e-14 -1.56882e-14 0)
(-4.42395e-14 -1.49576e-14 0)
(-4.82166e-14 -1.39764e-14 0)
(-5.17979e-14 -1.38848e-14 0)
(-5.56978e-14 -1.42331e-14 0)
(-5.94696e-14 -1.43567e-14 0)
(-6.23982e-14 -1.43554e-14 0)
(-6.40493e-14 -1.43333e-14 0)
(-6.46217e-14 -1.28805e-14 0)
(-6.53414e-14 -1.12821e-14 0)
(-6.51199e-14 -9.51037e-15 0)
(-6.40082e-14 -8.12257e-15 0)
(-6.34563e-14 -8.06186e-15 0)
(-6.26963e-14 -7.77764e-15 0)
(-6.21379e-14 -6.90781e-15 0)
(-6.22146e-14 -5.54788e-15 0)
(-6.26828e-14 -3.81235e-15 0)
(-6.42154e-14 -2.13964e-15 0)
(-6.56726e-14 -1.13003e-15 0)
(-6.59107e-14 -8.58057e-16 0)
(-6.52724e-14 -8.29274e-16 0)
(-6.45756e-14 -1.26804e-15 0)
(-6.38043e-14 -2.28543e-15 0)
(-6.33277e-14 -3.1908e-15 0)
(-6.29135e-14 -3.56562e-15 0)
(-6.22051e-14 -3.33723e-15 0)
(-6.1236e-14 -2.80264e-15 0)
(-6.02096e-14 -2.06423e-15 0)
(-5.89354e-14 -1.32916e-15 0)
(-5.67978e-14 -1.84404e-15 0)
(-5.56427e-14 -3.59835e-15 0)
(-5.64163e-14 -4.99169e-15 0)
(-5.88926e-14 -5.68518e-15 0)
(-6.16014e-14 -6.74508e-15 0)
(-6.32765e-14 -8.0376e-15 0)
(-6.48193e-14 -9.87412e-15 0)
(-6.57362e-14 -1.12388e-14 0)
(-6.62212e-14 -1.22833e-14 0)
(-6.77749e-14 -1.23275e-14 0)
(-6.98643e-14 -1.23158e-14 0)
(-7.11511e-14 -1.23585e-14 0)
(-7.09986e-14 -1.20038e-14 0)
(-7.03737e-14 -1.13865e-14 0)
(-7.02403e-14 -1.05615e-14 0)
(-7.05785e-14 -9.72381e-15 0)
(-7.00214e-14 -9.93798e-15 0)
(-6.81143e-14 -1.04652e-14 0)
(-6.55828e-14 -1.08461e-14 0)
(-6.28089e-14 -1.1215e-14 0)
(-6.02824e-14 -1.12789e-14 0)
(-5.80888e-14 -1.1658e-14 0)
(-5.68749e-14 -1.29622e-14 0)
(-5.63763e-14 -1.41005e-14 0)
(-5.63774e-14 -1.52327e-14 0)
(-5.63378e-14 -1.65473e-14 0)
(-5.69246e-14 -1.66319e-14 0)
(-5.7598e-14 -1.57848e-14 0)
(-5.79285e-14 -1.48417e-14 0)
(-5.96285e-14 -1.41791e-14 0)
(-6.18337e-14 -1.4062e-14 0)
(-6.39374e-14 -1.40453e-14 0)
(-6.58753e-14 -1.44351e-14 0)
(-6.67142e-14 -1.52427e-14 0)
(-6.64872e-14 -1.59093e-14 0)
(-6.67325e-14 -1.64211e-14 0)
(-6.92535e-14 -1.65714e-14 0)
(-7.30276e-14 -1.56125e-14 0)
(-7.64462e-14 -1.44404e-14 0)
(-7.91385e-14 -1.36409e-14 0)
(-8.11056e-14 -1.30729e-14 0)
(-8.36296e-14 -1.2596e-14 0)
(-8.58954e-14 -1.19312e-14 0)
(-8.56734e-14 -1.09957e-14 0)
(-8.35922e-14 -1.0308e-14 0)
(-8.0981e-14 -9.69133e-15 0)
(-7.84938e-14 -8.90519e-15 0)
(-7.58442e-14 -8.28065e-15 0)
(-7.26838e-14 -7.92746e-15 0)
(-6.89073e-14 -8.03279e-15 0)
(-6.37675e-14 -8.40411e-15 0)
(-5.84666e-14 -9.14017e-15 0)
(-5.39602e-14 -9.34252e-15 0)
(-4.90939e-14 -9.34227e-15 0)
(-4.38143e-14 -9.22831e-15 0)
(-3.8485e-14 -8.95556e-15 0)
(-3.2643e-14 -7.94521e-15 0)
(-2.55729e-14 -6.34532e-15 0)
(-1.63515e-14 -4.38996e-15 0)
(-5.51877e-15 -1.78868e-15 0)
(-1.37741e-15 -7.93302e-16 0)
(-4.51322e-15 -2.26147e-15 0)
(-7.89467e-15 -4.2121e-15 0)
(-1.15291e-14 -6.40411e-15 0)
(-1.55628e-14 -8.90504e-15 0)
(-2.00894e-14 -1.12054e-14 0)
(-2.57559e-14 -1.30491e-14 0)
(-3.19383e-14 -1.43905e-14 0)
(-3.61352e-14 -1.52903e-14 0)
(-3.86583e-14 -1.61821e-14 0)
(-4.11477e-14 -1.64787e-14 0)
(-4.40607e-14 -1.67568e-14 0)
(-4.79947e-14 -1.6275e-14 0)
(-5.26188e-14 -1.57616e-14 0)
(-5.69725e-14 -1.59216e-14 0)
(-6.10455e-14 -1.63657e-14 0)
(-6.49075e-14 -1.61554e-14 0)
(-6.78966e-14 -1.56612e-14 0)
(-6.92297e-14 -1.45076e-14 0)
(-6.9766e-14 -1.34809e-14 0)
(-7.06305e-14 -1.24235e-14 0)
(-7.05081e-14 -1.10467e-14 0)
(-6.9956e-14 -1.04102e-14 0)
(-6.95689e-14 -1.01499e-14 0)
(-6.8491e-14 -8.74555e-15 0)
(-6.78355e-14 -7.36533e-15 0)
(-6.76989e-14 -6.29821e-15 0)
(-6.78495e-14 -5.24081e-15 0)
(-6.94303e-14 -3.65664e-15 0)
(-7.14792e-14 -2.35879e-15 0)
(-7.22666e-14 -1.92555e-15 0)
(-7.18716e-14 -2.17117e-15 0)
(-7.13691e-14 -3.02858e-15 0)
(-7.06149e-14 -3.92767e-15 0)
(-6.97966e-14 -4.65398e-15 0)
(-6.89582e-14 -4.56515e-15 0)
(-6.79233e-14 -4.13351e-15 0)
(-6.66514e-14 -3.34982e-15 0)
(-6.52303e-14 -3.00128e-15 0)
(-6.45103e-14 -2.36265e-15 0)
(-6.37895e-14 -3.2144e-15 0)
(-6.28892e-14 -5.24057e-15 0)
(-6.29088e-14 -6.8119e-15 0)
(-6.50619e-14 -7.67103e-15 0)
(-6.79629e-14 -8.44499e-15 0)
(-6.99826e-14 -9.37618e-15 0)
(-7.15573e-14 -1.0759e-14 0)
(-7.28036e-14 -1.1842e-14 0)
(-7.35498e-14 -1.3738e-14 0)
(-7.46891e-14 -1.48627e-14 0)
(-7.64147e-14 -1.52539e-14 0)
(-7.73043e-14 -1.50008e-14 0)
(-7.70471e-14 -1.40857e-14 0)
(-7.64625e-14 -1.35238e-14 0)
(-7.62871e-14 -1.28e-14 0)
(-7.67237e-14 -1.19246e-14 0)
(-7.65001e-14 -1.14126e-14 0)
(-7.47452e-14 -1.16354e-14 0)
(-7.20135e-14 -1.19563e-14 0)
(-6.90889e-14 -1.24345e-14 0)
(-6.64741e-14 -1.29171e-14 0)
(-6.45874e-14 -1.3175e-14 0)
(-6.36662e-14 -1.44501e-14 0)
(-6.3195e-14 -1.55791e-14 0)
(-6.3185e-14 -1.75245e-14 0)
(-6.26957e-14 -1.89553e-14 0)
(-6.23856e-14 -1.96252e-14 0)
(-6.27833e-14 -1.81439e-14 0)
(-6.3531e-14 -1.69755e-14 0)
(-6.53292e-14 -1.62661e-14 0)
(-6.76691e-14 -1.56639e-14 0)
(-7.01939e-14 -1.55148e-14 0)
(-7.25473e-14 -1.54776e-14 0)
(-7.36365e-14 -1.60234e-14 0)
(-7.36275e-14 -1.6702e-14 0)
(-7.39751e-14 -1.7647e-14 0)
(-7.5999e-14 -1.79596e-14 0)
(-7.94288e-14 -1.65568e-14 0)
(-8.31533e-14 -1.5454e-14 0)
(-8.63465e-14 -1.42136e-14 0)
(-8.86308e-14 -1.38268e-14 0)
(-9.10611e-14 -1.32813e-14 0)
(-9.30827e-14 -1.24663e-14 0)
(-9.27759e-14 -1.13423e-14 0)
(-9.08951e-14 -1.06067e-14 0)
(-8.81936e-14 -1.00012e-14 0)
(-8.53959e-14 -9.33269e-15 0)
(-8.2704e-14 -8.69041e-15 0)
(-7.94038e-14 -8.48645e-15 0)
(-7.5389e-14 -8.3881e-15 0)
(-7.03927e-14 -8.60699e-15 0)
(-6.48604e-14 -9.68726e-15 0)
(-5.94931e-14 -1.02591e-14 0)
(-5.39081e-14 -1.03556e-14 0)
(-4.80353e-14 -1.03357e-14 0)
(-4.1971e-14 -9.48949e-15 0)
(-3.52582e-14 -8.42712e-15 0)
(-2.72943e-14 -6.95088e-15 0)
(-1.72963e-14 -4.49436e-15 0)
(-5.53248e-15 -1.79031e-15 0)
(-1.58393e-15 -6.67256e-16 0)
(-5.23068e-15 -2.10104e-15 0)
(-9.18718e-15 -3.9077e-15 0)
(-1.35358e-14 -5.91556e-15 0)
(-1.81735e-14 -8.40876e-15 0)
(-2.27988e-14 -1.11709e-14 0)
(-2.84307e-14 -1.31891e-14 0)
(-3.45789e-14 -1.46347e-14 0)
(-3.92186e-14 -1.51664e-14 0)
(-4.20554e-14 -1.60869e-14 0)
(-4.45096e-14 -1.70247e-14 0)
(-4.75829e-14 -1.77562e-14 0)
(-5.17083e-14 -1.76729e-14 0)
(-5.68118e-14 -1.79043e-14 0)
(-6.16879e-14 -1.81185e-14 0)
(-6.58557e-14 -1.79735e-14 0)
(-6.94369e-14 -1.72289e-14 0)
(-7.21317e-14 -1.63192e-14 0)
(-7.38028e-14 -1.46901e-14 0)
(-7.47965e-14 -1.36168e-14 0)
(-7.55363e-14 -1.27994e-14 0)
(-7.58237e-14 -1.20195e-14 0)
(-7.56598e-14 -1.17238e-14 0)
(-7.46102e-14 -1.13335e-14 0)
(-7.30477e-14 -1.00117e-14 0)
(-7.27255e-14 -8.67244e-15 0)
(-7.3005e-14 -7.28818e-15 0)
(-7.30419e-14 -6.13892e-15 0)
(-7.43336e-14 -4.92436e-15 0)
(-7.65623e-14 -3.74487e-15 0)
(-7.78521e-14 -3.4621e-15 0)
(-7.80741e-14 -3.65587e-15 0)
(-7.77664e-14 -4.36639e-15 0)
(-7.68047e-14 -5.09769e-15 0)
(-7.55014e-14 -5.86771e-15 0)
(-7.41235e-14 -5.84832e-15 0)
(-7.27746e-14 -5.21181e-15 0)
(-7.17192e-14 -4.34207e-15 0)
(-7.06413e-14 -4.15468e-15 0)
(-7.00976e-14 -4.43805e-15 0)
(-6.97958e-14 -5.21721e-15 0)
(-6.90966e-14 -6.56255e-15 0)
(-6.9005e-14 -7.87871e-15 0)
(-7.09602e-14 -8.81221e-15 0)
(-7.38548e-14 -9.38652e-15 0)
(-7.61662e-14 -1.07641e-14 0)
(-7.80517e-14 -1.20164e-14 0)
(-7.96036e-14 -1.34702e-14 0)
(-8.03837e-14 -1.53298e-14 0)
(-8.10792e-14 -1.66544e-14 0)
(-8.2365e-14 -1.71084e-14 0)
(-8.2844e-14 -1.72653e-14 0)
(-8.25474e-14 -1.65089e-14 0)
(-8.20695e-14 -1.60616e-14 0)
(-8.16359e-14 -1.54824e-14 0)
(-8.19929e-14 -1.42667e-14 0)
(-8.20552e-14 -1.30163e-14 0)
(-8.0543e-14 -1.27573e-14 0)
(-7.79754e-14 -1.31874e-14 0)
(-7.51104e-14 -1.38191e-14 0)
(-7.22418e-14 -1.44581e-14 0)
(-7.04912e-14 -1.50401e-14 0)
(-6.9824e-14 -1.59203e-14 0)
(-6.97724e-14 -1.68748e-14 0)
(-6.99976e-14 -1.91244e-14 0)
(-6.90682e-14 -2.05788e-14 0)
(-6.76011e-14 -2.15069e-14 0)
(-6.70391e-14 -2.04403e-14 0)
(-6.80723e-14 -1.91028e-14 0)
(-7.03366e-14 -1.77961e-14 0)
(-7.31152e-14 -1.71994e-14 0)
(-7.58152e-14 -1.7054e-14 0)
(-7.8475e-14 -1.65824e-14 0)
(-8.00943e-14 -1.68223e-14 0)
(-8.04687e-14 -1.77233e-14 0)
(-8.08076e-14 -1.89092e-14 0)
(-8.20049e-14 -1.91811e-14 0)
(-8.51513e-14 -1.76471e-14 0)
(-8.90764e-14 -1.61025e-14 0)
(-9.26211e-14 -1.47783e-14 0)