/*--------------------------------*- C++ -*----------------------------------*\
| =========                 |                                                 |
| \\      /  F ield         | OpenFOAM: The Open Source CFD Toolbox           |
|  \\    /   O peration     | Version:  v2012                                 |
|   \\  /    A nd           | Website:  www.openfoam.com                      |
|    \\/     M anipulation  |                                                 |
\*---------------------------------------------------------------------------*/
FoamFile
{
    version     2.0;
    format      ascii;
    class       volVectorField;
    location    "70";
    object      Usup;
}
// * * * * * * * * * * * * * * * * * * * * * * * * * * * * * * * * * * * * * //

dimensions      [0 1 -1 0 0 0 0];


internalField   nonuniform List<vector> 
4000
(
(-3.72435e-16 -1.75229e-16 0)
(-9.1836e-16 3.16383e-16 0)
(-1.3176e-15 6.11602e-16 0)
(-1.53014e-15 8.65109e-16 0)
(-1.93931e-15 8.30903e-16 0)
(-2.76311e-15 9.2906e-16 0)
(-3.13279e-15 1.51027e-15 0)
(-3.3109e-15 1.76999e-15 0)
(-3.42334e-15 2.01559e-15 0)
(-3.04848e-15 1.7883e-15 0)
(-2.70405e-15 1.73219e-15 0)
(-3.24837e-15 1.49785e-15 0)
(-4.09341e-15 1.94254e-15 0)
(-4.01614e-15 2.52409e-15 0)
(-3.08459e-15 2.91551e-15 0)
(-2.86843e-15 2.64565e-15 0)
(-3.48695e-15 2.6156e-15 0)
(-3.93632e-15 2.40427e-15 0)
(-4.05836e-15 2.10272e-15 0)
(-4.29615e-15 1.7063e-15 0)
(-4.4647e-15 1.92e-15 0)
(-4.1153e-15 1.78628e-15 0)
(-3.49251e-15 1.68154e-15 0)
(-2.60263e-15 1.67593e-15 0)
(-2.29611e-15 1.55951e-15 0)
(-2.51537e-15 1.58533e-15 0)
(-2.97953e-15 1.35343e-15 0)
(-3.56535e-15 1.32837e-15 0)
(-3.48584e-15 1.19838e-15 0)
(-2.99683e-15 1.08716e-15 0)
(-2.6719e-15 9.96595e-16 0)
(-2.29785e-15 9.00686e-16 0)
(-2.67179e-15 6.02569e-16 0)
(-3.24134e-15 5.52695e-16 0)
(-3.38884e-15 5.05007e-16 0)
(-4.07854e-15 5.9405e-16 0)
(-4.59408e-15 1.21357e-15 0)
(-4.46497e-15 1.4948e-15 0)
(-3.77779e-15 1.88058e-15 0)
(-2.6248e-15 1.60823e-15 0)
(-2.27052e-15 1.18279e-15 0)
(-2.32663e-15 1.2562e-15 0)
(-2.26033e-15 1.18322e-15 0)
(-2.46757e-15 1.24561e-15 0)
(-2.64567e-15 1.2058e-15 0)
(-2.61807e-15 1.15897e-15 0)
(-1.90986e-15 1.18644e-15 0)
(-1.12479e-15 9.33787e-16 0)
(-9.21077e-16 9.73932e-16 0)
(-7.05633e-16 1.41079e-15 0)
(-3.4225e-16 1.553e-15 0)
(-2.40616e-16 1.76727e-15 0)
(-1.50678e-16 1.82495e-15 0)
(2.58741e-19 1.8575e-15 0)
(-4.45405e-17 1.71956e-15 0)
(7.67517e-17 2.12711e-15 0)
(4.88764e-16 2.02553e-15 0)
(6.54448e-16 1.84672e-15 0)
(8.00849e-16 1.64763e-15 0)
(8.87526e-16 1.29362e-15 0)
(5.40033e-16 1.40287e-15 0)
(2.45071e-16 1.57426e-15 0)
(3.99236e-16 1.7938e-15 0)
(5.77555e-16 1.73409e-15 0)
(5.92084e-16 1.35691e-15 0)
(4.62199e-16 1.12227e-15 0)
(2.25615e-17 1.07152e-15 0)
(-3.29339e-16 1.18815e-15 0)
(-5.04587e-16 1.3448e-15 0)
(-3.28937e-16 1.52984e-15 0)
(-5.65381e-17 1.47176e-15 0)
(9.18559e-18 1.33791e-15 0)
(1.48831e-16 1.45437e-15 0)
(5.53408e-16 1.40426e-15 0)
(9.91603e-16 1.29457e-15 0)
(7.23209e-16 9.63517e-16 0)
(4.30165e-16 8.65549e-16 0)
(3.03904e-16 4.72515e-16 0)
(-6.70169e-16 4.32958e-16 0)
(-1.45811e-15 8.05617e-16 0)
(-1.20668e-15 8.91281e-16 0)
(-1.21179e-15 4.54434e-16 0)
(-1.80562e-15 3.93687e-16 0)
(-2.10572e-15 4.17759e-16 0)
(-2.17386e-15 4.35207e-16 0)
(-2.1963e-15 5.91291e-16 0)
(-2.42532e-15 6.25687e-16 0)
(-1.90317e-15 9.5801e-16 0)
(-7.71746e-16 7.63998e-16 0)
(-8.60432e-16 2.98331e-16 0)
(-1.22955e-15 4.60237e-16 0)
(-1.09319e-15 6.83428e-16 0)
(-8.79673e-16 6.49442e-16 0)
(-5.67461e-16 3.44545e-16 0)
(-3.47392e-16 3.85804e-16 0)
(-2.49493e-16 2.6796e-16 0)
(-3.32938e-16 2.56938e-16 0)
(-1.17335e-16 4.61598e-16 0)
(9.6275e-17 4.46136e-16 0)
(2.89063e-17 3.66746e-16 0)
(-6.10238e-16 1.64561e-17 0)
(-1.9913e-15 8.85497e-16 0)
(-3.39945e-15 1.61808e-15 0)
(-4.48532e-15 2.44208e-15 0)
(-5.79114e-15 2.64545e-15 0)
(-7.19523e-15 3.18136e-15 0)
(-8.11868e-15 4.29193e-15 0)
(-8.92273e-15 5.02801e-15 0)
(-9.54814e-15 5.51807e-15 0)
(-9.15011e-15 5.41931e-15 0)
(-8.65902e-15 5.51311e-15 0)
(-9.40436e-15 5.14736e-15 0)
(-1.0417e-14 5.99576e-15 0)
(-1.03453e-14 7.33329e-15 0)
(-9.31073e-15 8.51777e-15 0)
(-9.21656e-15 7.96056e-15 0)
(-1.0349e-14 7.49418e-15 0)
(-1.15481e-14 6.79949e-15 0)
(-1.21022e-14 6.09604e-15 0)
(-1.22233e-14 5.29595e-15 0)
(-1.22576e-14 5.37789e-15 0)
(-1.1665e-14 5.52916e-15 0)
(-1.00985e-14 5.51863e-15 0)
(-8.21113e-15 5.14782e-15 0)
(-7.4258e-15 4.77156e-15 0)
(-7.88727e-15 4.66438e-15 0)
(-8.8907e-15 4.31079e-15 0)
(-9.9422e-15 4.02631e-15 0)
(-9.87915e-15 3.8386e-15 0)
(-8.88313e-15 3.37075e-15 0)
(-8.12466e-15 2.92587e-15 0)
(-7.61837e-15 2.49322e-15 0)
(-8.337e-15 1.79973e-15 0)
(-9.37193e-15 1.85681e-15 0)
(-9.88881e-15 2.00186e-15 0)
(-1.08538e-14 2.13249e-15 0)
(-1.17425e-14 3.28791e-15 0)
(-1.15775e-14 4.01911e-15 0)
(-1.03998e-14 4.763e-15 0)
(-8.56788e-15 4.43357e-15 0)
(-7.29691e-15 3.75436e-15 0)
(-6.9037e-15 3.9659e-15 0)
(-6.73391e-15 3.68821e-15 0)
(-7.01822e-15 3.7141e-15 0)
(-7.32475e-15 3.52564e-15 0)
(-6.9784e-15 3.39113e-15 0)
(-5.53811e-15 3.54403e-15 0)
(-3.75161e-15 3.32595e-15 0)
(-2.4733e-15 3.48841e-15 0)
(-1.70279e-15 4.35152e-15 0)
(-9.91619e-16 4.89466e-15 0)
(-6.51139e-16 5.23002e-15 0)
(-4.58074e-16 5.33508e-15 0)
(-2.14906e-16 5.3839e-15 0)
(1.37491e-16 5.1832e-15 0)
(5.49853e-16 5.91382e-15 0)
(1.00305e-15 5.92058e-15 0)
(1.40591e-15 5.70203e-15 0)
(1.63414e-15 5.32903e-15 0)
(1.998e-15 4.48623e-15 0)
(1.72804e-15 4.18135e-15 0)
(1.23736e-15 4.45216e-15 0)
(1.29498e-15 4.76272e-15 0)
(1.16589e-15 4.67642e-15 0)
(1.02161e-15 4.14331e-15 0)
(8.90132e-16 3.75188e-15 0)
(1.994e-16 3.48558e-15 0)
(-4.48462e-16 3.76706e-15 0)
(-7.86377e-16 4.03472e-15 0)
(-6.22713e-16 4.19128e-15 0)
(-2.94675e-16 4.18263e-15 0)
(9.56821e-17 3.99886e-15 0)
(5.70761e-16 4.14909e-15 0)
(1.26944e-15 4.04854e-15 0)
(1.87612e-15 3.60007e-15 0)
(1.38251e-15 2.92162e-15 0)
(6.09507e-16 2.56546e-15 0)
(9.69212e-18 1.92953e-15 0)
(-1.53236e-15 1.55988e-15 0)
(-3.18075e-15 2.1964e-15 0)
(-3.68316e-15 2.46074e-15 0)
(-4.0453e-15 1.57612e-15 0)
(-4.94976e-15 1.18115e-15 0)
(-5.64545e-15 1.19074e-15 0)
(-5.81014e-15 1.34526e-15 0)
(-5.88633e-15 1.78811e-15 0)
(-5.99923e-15 2.15388e-15 0)
(-4.98252e-15 2.75705e-15 0)
(-3.36542e-15 2.31573e-15 0)
(-3.00649e-15 1.47653e-15 0)
(-3.02093e-15 1.51384e-15 0)
(-2.85219e-15 1.6886e-15 0)
(-2.69717e-15 1.57387e-15 0)
(-1.9071e-15 1.16807e-15 0)
(-1.20584e-15 1.01511e-15 0)
(-9.40222e-16 9.81585e-16 0)
(-7.02715e-16 8.29613e-16 0)
(-2.07898e-16 1.23973e-15 0)
(1.02963e-16 9.72427e-16 0)
(-2.87925e-16 5.06801e-16 0)
(-1.00492e-15 4.79377e-16 0)
(-3.11588e-15 1.56698e-15 0)
(-5.10348e-15 2.68161e-15 0)
(-6.98196e-15 3.61331e-15 0)
(-9.07834e-15 4.38722e-15 0)
(-1.1016e-14 5.50213e-15 0)
(-1.24807e-14 6.6173e-15 0)
(-1.3859e-14 7.5691e-15 0)
(-1.492e-14 8.47714e-15 0)
(-1.45846e-14 9.13372e-15 0)
(-1.43303e-14 9.27261e-15 0)
(-1.52215e-14 9.36678e-15 0)
(-1.59672e-14 1.06182e-14 0)
(-1.56391e-14 1.21758e-14 0)
(-1.51082e-14 1.34799e-14 0)
(-1.58643e-14 1.30177e-14 0)
(-1.74244e-14 1.20159e-14 0)
(-1.89331e-14 1.0947e-14 0)
(-1.96574e-14 9.97334e-15 0)
(-1.97202e-14 9.18224e-15 0)
(-1.92087e-14 8.84582e-15 0)
(-1.81056e-14 9.01117e-15 0)
(-1.64473e-14 9.01998e-15 0)
(-1.42054e-14 8.59267e-15 0)
(-1.29171e-14 8.19732e-15 0)
(-1.32982e-14 7.83241e-15 0)
(-1.46354e-14 7.08473e-15 0)
(-1.5888e-14 6.66103e-15 0)
(-1.58771e-14 6.57706e-15 0)
(-1.48579e-14 5.76016e-15 0)
(-1.38459e-14 5.15305e-15 0)
(-1.32639e-14 4.15873e-15 0)
(-1.38776e-14 2.88089e-15 0)
(-1.48828e-14 2.97592e-15 0)
(-1.58404e-14 3.45839e-15 0)
(-1.70003e-14 3.87547e-15 0)
(-1.78412e-14 4.99252e-15 0)
(-1.76323e-14 6.11323e-15 0)
(-1.6238e-14 6.80459e-15 0)
(-1.40753e-14 6.96897e-15 0)
(-1.21206e-14 6.66614e-15 0)
(-1.14117e-14 6.77661e-15 0)
(-1.12069e-14 6.34818e-15 0)
(-1.13825e-14 6.07702e-15 0)
(-1.16095e-14 5.74844e-15 0)
(-1.07387e-14 5.58246e-15 0)
(-8.58481e-15 6.07751e-15 0)
(-6.09822e-15 6.49002e-15 0)
(-3.9863e-15 6.55356e-15 0)
(-2.54612e-15 6.93762e-15 0)
(-1.63244e-15 7.54618e-15 0)
(-1.23221e-15 8.09752e-15 0)
(-8.56973e-16 8.77179e-15 0)
(-4.62921e-16 9.06527e-15 0)
(3.0836e-16 8.98089e-15 0)
(1.0974e-15 9.18202e-15 0)
(1.60529e-15 9.50004e-15 0)
(2.05173e-15 9.39992e-15 0)
(2.11177e-15 8.90003e-15 0)
(2.33419e-15 7.96014e-15 0)
(2.36259e-15 7.20293e-15 0)
(2.10762e-15 7.39333e-15 0)
(2.06901e-15 7.35769e-15 0)
(1.7831e-15 7.08763e-15 0)
(1.48063e-15 6.82915e-15 0)
(1.11227e-15 6.34825e-15 0)
(3.40869e-16 5.85939e-15 0)
(-3.54363e-16 6.03946e-15 0)
(-9.76627e-16 6.47139e-15 0)
(-8.01663e-16 6.50957e-15 0)
(-3.25229e-16 6.79646e-15 0)
(2.22055e-16 6.87926e-15 0)
(9.06255e-16 6.78228e-15 0)
(1.58963e-15 6.38176e-15 0)
(2.13477e-15 5.48048e-15 0)
(1.54874e-15 4.8042e-15 0)
(5.05862e-16 4.50796e-15 0)
(-6.3948e-16 4.01584e-15 0)
(-2.55147e-15 3.12308e-15 0)
(-4.48764e-15 3.31648e-15 0)
(-5.85514e-15 3.48137e-15 0)
(-6.91566e-15 2.92297e-15 0)
(-7.93552e-15 2.28822e-15 0)
(-8.62469e-15 1.95946e-15 0)
(-8.74746e-15 2.11051e-15 0)
(-8.72794e-15 2.68121e-15 0)
(-8.75838e-15 3.48728e-15 0)
(-7.74263e-15 4.20437e-15 0)
(-6.01637e-15 3.82396e-15 0)
(-5.31471e-15 3.12283e-15 0)
(-5.01563e-15 2.91157e-15 0)
(-4.63996e-15 2.47861e-15 0)
(-4.25817e-15 2.19354e-15 0)
(-3.23814e-15 1.91342e-15 0)
(-2.12183e-15 1.53504e-15 0)
(-1.6087e-15 1.5612e-15 0)
(-1.12115e-15 1.51869e-15 0)
(-4.79485e-16 1.55422e-15 0)
(-3.50976e-16 8.79385e-16 0)
(-5.06058e-16 1.66305e-16 0)
(-1.23377e-15 7.26054e-16 0)
(-3.91765e-15 2.2777e-15 0)
(-6.78574e-15 3.70851e-15 0)
(-9.36168e-15 4.59133e-15 0)
(-1.18249e-14 5.72277e-15 0)
(-1.43162e-14 7.43787e-15 0)
(-1.641e-14 8.84362e-15 0)
(-1.80708e-14 9.97506e-15 0)
(-1.92987e-14 1.11434e-14 0)
(-1.95613e-14 1.22283e-14 0)
(-1.9646e-14 1.28011e-14 0)
(-2.01279e-14 1.39336e-14 0)
(-2.06743e-14 1.56275e-14 0)
(-2.06537e-14 1.72229e-14 0)
(-2.07709e-14 1.76738e-14 0)
(-2.23302e-14 1.74002e-14 0)
(-2.43566e-14 1.67019e-14 0)
(-2.60751e-14 1.5662e-14 0)
(-2.68058e-14 1.43677e-14 0)
(-2.66665e-14 1.31503e-14 0)
(-2.5888e-14 1.24672e-14 0)
(-2.4443e-14 1.19271e-14 0)
(-2.23542e-14 1.17532e-14 0)
(-1.97487e-14 1.19274e-14 0)
(-1.83382e-14 1.18777e-14 0)
(-1.90375e-14 1.11654e-14 0)
(-2.04192e-14 9.81919e-15 0)
(-2.13352e-14 9.12888e-15 0)
(-2.15256e-14 8.72797e-15 0)
(-2.05472e-14 8.13477e-15 0)
(-1.95542e-14 7.41167e-15 0)
(-1.9403e-14 6.12586e-15 0)
(-1.9685e-14 4.54334e-15 0)
(-2.00877e-14 4.13116e-15 0)
(-2.10393e-14 4.69013e-15 0)
(-2.22486e-14 5.48454e-15 0)
(-2.29882e-14 6.73876e-15 0)
(-2.28132e-14 7.90767e-15 0)
(-2.13472e-14 8.4928e-15 0)
(-1.89464e-14 8.93888e-15 0)
(-1.67459e-14 9.04278e-15 0)
(-1.58743e-14 9.22168e-15 0)
(-1.56177e-14 8.84293e-15 0)
(-1.56031e-14 8.5339e-15 0)
(-1.5517e-14 8.39179e-15 0)
(-1.39169e-14 8.22974e-15 0)
(-1.09436e-14 8.96467e-15 0)
(-8.23205e-15 9.31614e-15 0)
(-5.94648e-15 9.28067e-15 0)
(-3.88398e-15 9.52258e-15 0)
(-2.24309e-15 1.00655e-14 0)
(-1.22143e-15 1.09322e-14 0)
(-6.94868e-16 1.21472e-14 0)
(-5.4395e-16 1.26414e-14 0)
(1.47019e-16 1.25272e-14 0)
(1.33653e-15 1.23264e-14 0)
(2.13648e-15 1.25716e-14 0)
(2.39259e-15 1.2447e-14 0)
(2.29902e-15 1.19572e-14 0)
(2.55182e-15 1.1361e-14 0)
(2.92864e-15 1.05865e-14 0)
(2.76585e-15 1.03588e-14 0)
(2.4569e-15 1.01156e-14 0)
(2.16933e-15 9.67969e-15 0)
(1.7363e-15 9.35914e-15 0)
(1.09446e-15 8.70572e-15 0)
(3.64435e-16 8.1176e-15 0)
(-8.29365e-17 7.77725e-15 0)
(-7.67655e-16 7.96902e-15 0)
(-6.37529e-16 8.46218e-15 0)
(-1.84949e-17 9.16068e-15 0)
(3.78775e-16 9.6383e-15 0)
(8.48763e-16 9.44801e-15 0)
(1.35315e-15 8.65894e-15 0)
(1.96412e-15 7.33025e-15 0)
(1.63289e-15 6.63258e-15 0)
(3.62972e-16 6.55915e-15 0)
(-1.58074e-15 6.07966e-15 0)
(-3.89413e-15 4.90452e-15 0)
(-5.92739e-15 4.64082e-15 0)
(-7.68756e-15 4.62301e-15 0)
(-9.27992e-15 4.12871e-15 0)
(-1.07798e-14 3.38382e-15 0)
(-1.15006e-14 2.93155e-15 0)
(-1.13339e-14 3.00873e-15 0)
(-1.10086e-14 3.53917e-15 0)
(-1.08201e-14 4.59691e-15 0)
(-9.97172e-15 5.58803e-15 0)
(-8.45664e-15 5.25714e-15 0)
(-7.48419e-15 4.47953e-15 0)
(-7.07665e-15 3.83502e-15 0)
(-6.60935e-15 3.29663e-15 0)
(-5.85268e-15 2.58626e-15 0)
(-4.56887e-15 2.19308e-15 0)
(-3.13006e-15 1.89179e-15 0)
(-2.21112e-15 1.6315e-15 0)
(-1.62972e-15 1.70551e-15 0)
(-1.17389e-15 1.27386e-15 0)
(-9.50339e-16 4.71342e-16 0)
(-6.19256e-16 8.06953e-17 0)
(-1.44938e-15 7.66878e-16 0)
(-4.6781e-15 2.73044e-15 0)
(-8.31099e-15 4.32415e-15 0)
(-1.15263e-14 5.57218e-15 0)
(-1.41232e-14 7.33556e-15 0)
(-1.69347e-14 9.45562e-15 0)
(-1.9719e-14 1.12469e-14 0)
(-2.1922e-14 1.26575e-14 0)
(-2.3438e-14 1.36913e-14 0)
(-2.37892e-14 1.47821e-14 0)
(-2.37547e-14 1.65718e-14 0)
(-2.42115e-14 1.85237e-14 0)
(-2.49941e-14 2.0324e-14 0)
(-2.57114e-14 2.15247e-14 0)
(-2.6494e-14 2.17062e-14 0)
(-2.81455e-14 2.17514e-14 0)
(-3.05387e-14 2.14304e-14 0)
(-3.28171e-14 2.03464e-14 0)
(-3.39162e-14 1.87183e-14 0)
(-3.36218e-14 1.73424e-14 0)
(-3.24666e-14 1.63324e-14 0)
(-3.05434e-14 1.51646e-14 0)
(-2.76994e-14 1.48433e-14 0)
(-2.46901e-14 1.51926e-14 0)
(-2.36172e-14 1.49888e-14 0)
(-2.48395e-14 1.39597e-14 0)
(-2.62712e-14 1.25063e-14 0)
(-2.69644e-14 1.15155e-14 0)
(-2.68461e-14 1.09455e-14 0)
(-2.58689e-14 1.07449e-14 0)
(-2.51758e-14 9.82046e-15 0)
(-2.5191e-14 8.17553e-15 0)
(-2.54022e-14 6.49685e-15 0)
(-2.52604e-14 5.9017e-15 0)
(-2.57934e-14 6.26514e-15 0)
(-2.68576e-14 7.17546e-15 0)
(-2.75812e-14 8.2102e-15 0)
(-2.75883e-14 9.23859e-15 0)
(-2.60346e-14 9.89858e-15 0)
(-2.33365e-14 1.01263e-14 0)
(-2.08061e-14 1.03887e-14 0)
(-1.98857e-14 1.08574e-14 0)
(-1.9613e-14 1.13348e-14 0)
(-1.92552e-14 1.13802e-14 0)
(-1.89438e-14 1.1621e-14 0)
(-1.67925e-14 1.1429e-14 0)
(-1.33773e-14 1.16393e-14 0)
(-1.04784e-14 1.14656e-14 0)
(-7.5456e-15 1.16412e-14 0)
(-4.87086e-15 1.21226e-14 0)
(-2.77432e-15 1.31671e-14 0)
(-1.26957e-15 1.40796e-14 0)
(-6.46274e-16 1.49321e-14 0)
(-7.65459e-16 1.5393e-14 0)
(-7.93631e-17 1.55527e-14 0)
(1.41467e-15 1.53651e-14 0)
(2.42976e-15 1.53098e-14 0)
(2.70962e-15 1.51585e-14 0)
(2.67325e-15 1.50872e-14 0)
(2.78122e-15 1.4807e-14 0)
(3.02295e-15 1.40873e-14 0)
(3.06143e-15 1.34493e-14 0)
(2.82034e-15 1.30623e-14 0)
(2.42542e-15 1.23993e-14 0)
(1.82509e-15 1.12578e-14 0)
(1.00031e-15 1.0509e-14 0)
(1.09022e-16 9.9954e-15 0)
(-3.30128e-16 9.44147e-15 0)
(-5.13346e-16 9.24536e-15 0)
(4.84676e-17 1.03834e-14 0)
(6.58879e-16 1.11541e-14 0)
(7.49957e-16 1.19624e-14 0)
(7.27725e-16 1.21268e-14 0)
(7.7725e-16 1.13882e-14 0)
(1.43376e-15 1.00152e-14 0)
(1.5157e-15 8.84347e-15 0)
(1.08107e-16 8.61962e-15 0)
(-2.59618e-15 7.76862e-15 0)
(-5.28787e-15 6.63326e-15 0)
(-7.27019e-15 6.04854e-15 0)
(-9.50326e-15 5.94949e-15 0)
(-1.17124e-14 5.41147e-15 0)
(-1.32996e-14 4.64861e-15 0)
(-1.38572e-14 4.37086e-15 0)
(-1.35319e-14 4.36083e-15 0)
(-1.2851e-14 4.87445e-15 0)
(-1.2364e-14 5.56469e-15 0)
(-1.19001e-14 6.33948e-15 0)
(-1.08761e-14 6.0905e-15 0)
(-9.96646e-15 5.2587e-15 0)
(-9.17667e-15 4.24229e-15 0)
(-8.49943e-15 3.70714e-15 0)
(-7.59325e-15 2.74234e-15 0)
(-5.81707e-15 2.20952e-15 0)
(-4.17059e-15 1.89579e-15 0)
(-3.00315e-15 1.52835e-15 0)
(-2.29797e-15 1.3685e-15 0)
(-1.93175e-15 7.53187e-16 0)
(-1.38944e-15 4.51685e-17 0)
(-6.93584e-16 8.15431e-17 0)
(-1.50141e-15 9.94761e-16 0)
(-5.23902e-15 2.94325e-15 0)
(-9.64269e-15 4.97191e-15 0)
(-1.30699e-14 7.0847e-15 0)
(-1.58428e-14 9.07706e-15 0)
(-1.92064e-14 1.1211e-14 0)
(-2.25823e-14 1.34498e-14 0)
(-2.53899e-14 1.50945e-14 0)
(-2.72783e-14 1.65401e-14 0)
(-2.72909e-14 1.81106e-14 0)
(-2.702e-14 2.03939e-14 0)
(-2.77995e-14 2.26148e-14 0)
(-2.9169e-14 2.44951e-14 0)
(-3.04827e-14 2.53376e-14 0)
(-3.14971e-14 2.57905e-14 0)
(-3.35104e-14 2.59703e-14 0)
(-3.65441e-14 2.5434e-14 0)
(-3.94269e-14 2.43025e-14 0)
(-4.05147e-14 2.27231e-14 0)
(-3.99437e-14 2.12515e-14 0)
(-3.8864e-14 2.03705e-14 0)
(-3.65735e-14 1.95219e-14 0)
(-3.28991e-14 1.95338e-14 0)
(-2.97318e-14 1.89281e-14 0)
(-2.89956e-14 1.74543e-14 0)
(-3.04657e-14 1.59413e-14 0)
(-3.18125e-14 1.46805e-14 0)
(-3.2104e-14 1.39272e-14 0)
(-3.16703e-14 1.37588e-14 0)
(-3.08412e-14 1.32816e-14 0)
(-3.08126e-14 1.2396e-14 0)
(-3.12208e-14 1.05901e-14 0)
(-3.08929e-14 8.75298e-15 0)
(-3.00698e-14 7.91117e-15 0)
(-3.02125e-14 7.67547e-15 0)
(-3.11618e-14 8.24996e-15 0)
(-3.18583e-14 9.08674e-15 0)
(-3.17193e-14 1.03835e-14 0)
(-3.03347e-14 1.13733e-14 0)
(-2.75773e-14 1.10441e-14 0)
(-2.45763e-14 1.09747e-14 0)
(-2.30205e-14 1.14241e-14 0)
(-2.26282e-14 1.27512e-14 0)
(-2.23689e-14 1.39361e-14 0)
(-2.19849e-14 1.46214e-14 0)
(-1.98072e-14 1.46083e-14 0)
(-1.6078e-14 1.43728e-14 0)
(-1.25832e-14 1.40143e-14 0)
(-9.0334e-15 1.40847e-14 0)
(-5.60803e-15 1.45622e-14 0)
(-2.9952e-15 1.58795e-14 0)
(-1.54028e-15 1.68566e-14 0)
(-8.41457e-16 1.75596e-14 0)
(-7.47907e-16 1.78947e-14 0)
(-1.17346e-16 1.82798e-14 0)
(1.31659e-15 1.81916e-14 0)
(2.52481e-15 1.80213e-14 0)
(3.08715e-15 1.79762e-14 0)
(3.12131e-15 1.80154e-14 0)
(3.00729e-15 1.79038e-14 0)
(3.12901e-15 1.74816e-14 0)
(3.17195e-15 1.68636e-14 0)
(2.80106e-15 1.61796e-14 0)
(1.89409e-15 1.49465e-14 0)
(1.27522e-15 1.32285e-14 0)
(8.99687e-16 1.21973e-14 0)
(7.15119e-17 1.13808e-14 0)
(-3.60485e-16 1.07672e-14 0)
(6.96125e-17 1.09569e-14 0)
(8.96839e-16 1.22258e-14 0)
(1.34888e-15 1.32747e-14 0)
(1.41891e-15 1.42031e-14 0)
(8.77712e-16 1.4264e-14 0)
(3.35227e-16 1.38669e-14 0)
(5.84853e-16 1.26885e-14 0)
(8.55272e-16 1.12523e-14 0)
(-6.21856e-16 1.0519e-14 0)
(-3.84677e-15 9.6213e-15 0)
(-6.69047e-15 8.78503e-15 0)
(-8.67986e-15 7.76366e-15 0)
(-1.10284e-14 7.22933e-15 0)
(-1.36587e-14 7.03373e-15 0)
(-1.54587e-14 6.56605e-15 0)
(-1.60084e-14 6.35767e-15 0)
(-1.54876e-14 5.97949e-15 0)
(-1.46994e-14 6.1925e-15 0)
(-1.41832e-14 6.2213e-15 0)
(-1.37041e-14 6.55736e-15 0)
(-1.29584e-14 6.24598e-15 0)
(-1.21815e-14 5.43377e-15 0)
(-1.1237e-14 4.37571e-15 0)
(-1.04022e-14 3.58689e-15 0)
(-9.2816e-15 2.89952e-15 0)
(-7.13797e-15 2.33562e-15 0)
(-5.20814e-15 1.69006e-15 0)
(-3.83614e-15 1.24414e-15 0)
(-3.11925e-15 9.13096e-16 0)
(-2.74853e-15 3.8977e-16 0)
(-1.73147e-15 5.31518e-17 0)
(-7.10767e-16 -1.02559e-16 0)
(-1.89177e-15 1.25096e-15 0)
(-5.92041e-15 3.24641e-15 0)
(-1.02682e-14 5.54506e-15 0)
(-1.43412e-14 8.41247e-15 0)
(-1.77294e-14 1.0805e-14 0)
(-2.11101e-14 1.30333e-14 0)
(-2.49051e-14 1.55749e-14 0)
(-2.82178e-14 1.76456e-14 0)
(-3.01937e-14 1.98089e-14 0)
(-3.02428e-14 2.22148e-14 0)
(-3.00001e-14 2.41761e-14 0)
(-3.10072e-14 2.60846e-14 0)
(-3.30177e-14 2.76636e-14 0)
(-3.49248e-14 2.88335e-14 0)
(-3.62786e-14 2.94145e-14 0)
(-3.87458e-14 2.94449e-14 0)
(-4.22237e-14 2.8662e-14 0)
(-4.53908e-14 2.78283e-14 0)
(-4.68124e-14 2.6605e-14 0)
(-4.5986e-14 2.542e-14 0)
(-4.42325e-14 2.50749e-14 0)
(-4.13877e-14 2.49088e-14 0)
(-3.80177e-14 2.44338e-14 0)
(-3.57496e-14 2.23788e-14 0)
(-3.50719e-14 1.96975e-14 0)
(-3.59806e-14 1.76255e-14 0)
(-3.67888e-14 1.68825e-14 0)
(-3.66474e-14 1.65124e-14 0)
(-3.62758e-14 1.64479e-14 0)
(-3.57538e-14 1.57451e-14 0)
(-3.59849e-14 1.44557e-14 0)
(-3.67148e-14 1.32156e-14 0)
(-3.63243e-14 1.19953e-14 0)
(-3.51786e-14 1.03737e-14 0)
(-3.48508e-14 9.2508e-15 0)
(-3.52456e-14 8.97155e-15 0)
(-3.54181e-14 9.58832e-15 0)
(-3.51011e-14 1.0795e-14 0)
(-3.43511e-14 1.19274e-14 0)
(-3.19325e-14 1.16842e-14 0)
(-2.83166e-14 1.17783e-14 0)
(-2.58933e-14 1.24322e-14 0)
(-2.46401e-14 1.38568e-14 0)
(-2.43207e-14 1.56983e-14 0)
(-2.44152e-14 1.66164e-14 0)
(-2.23847e-14 1.7171e-14 0)
(-1.85809e-14 1.67431e-14 0)
(-1.47686e-14 1.62316e-14 0)
(-1.05398e-14 1.64953e-14 0)
(-6.30398e-15 1.75217e-14 0)
(-3.2475e-15 1.85624e-14 0)
(-1.66145e-15 1.9197e-14 0)
(-1.03317e-15 1.98714e-14 0)
(-9.55139e-16 2.02278e-14 0)
(-1.8505e-16 2.07472e-14 0)
(1.26887e-15 2.10381e-14 0)
(2.6507e-15 2.07566e-14 0)
(3.36389e-15 2.07101e-14 0)
(3.48241e-15 2.05872e-14 0)
(3.37053e-15 2.05993e-14 0)
(3.2837e-15 2.05817e-14 0)
(3.1261e-15 1.99664e-14 0)
(2.40407e-15 1.89535e-14 0)
(1.19167e-15 1.77011e-14 0)
(6.39938e-16 1.58806e-14 0)
(3.3281e-16 1.43779e-14 0)
(-4.21746e-16 1.33685e-14 0)
(-2.75283e-16 1.26787e-14 0)
(8.26513e-16 1.32041e-14 0)
(1.99246e-15 1.39995e-14 0)
(2.38297e-15 1.47805e-14 0)
(1.80644e-15 1.57217e-14 0)
(8.6453e-16 1.56921e-14 0)
(1.2004e-17 1.54673e-14 0)
(-1.85613e-16 1.45549e-14 0)
(-8.29555e-18 1.35609e-14 0)
(-1.39809e-15 1.25207e-14 0)
(-4.67973e-15 1.16607e-14 0)
(-8.04275e-15 1.11594e-14 0)
(-1.03895e-14 1.03624e-14 0)
(-1.25524e-14 9.51746e-15 0)
(-1.51906e-14 8.94709e-15 0)
(-1.71994e-14 8.50263e-15 0)
(-1.8008e-14 8.2672e-15 0)
(-1.75649e-14 7.60767e-15 0)
(-1.66361e-14 7.31736e-15 0)
(-1.59644e-14 7.11901e-15 0)
(-1.55261e-14 6.96312e-15 0)
(-1.50483e-14 6.35231e-15 0)
(-1.43854e-14 5.33238e-15 0)
(-1.32882e-14 4.10479e-15 0)
(-1.2041e-14 3.36833e-15 0)
(-1.06554e-14 3.0434e-15 0)
(-8.52511e-15 2.60153e-15 0)
(-6.47583e-15 1.55606e-15 0)
(-4.7796e-15 7.07121e-16 0)
(-3.85162e-15 2.0164e-16 0)
(-3.22055e-15 1.62384e-16 0)
(-2.15117e-15 1.42996e-17 0)
(-8.15105e-16 -2.73176e-16 0)
(-2.0707e-15 1.30449e-15 0)
(-6.47424e-15 3.8843e-15 0)
(-1.0905e-14 6.38267e-15 0)
(-1.49599e-14 9.21013e-15 0)
(-1.88826e-14 1.21709e-14 0)
(-2.27683e-14 1.4864e-14 0)
(-2.68148e-14 1.75856e-14 0)
(-3.03619e-14 2.03405e-14 0)
(-3.23734e-14 2.29999e-14 0)
(-3.28301e-14 2.57901e-14 0)
(-3.31727e-14 2.75303e-14 0)
(-3.4449e-14 2.88321e-14 0)
(-3.65382e-14 3.01663e-14 0)
(-3.87121e-14 3.18394e-14 0)
(-4.06519e-14 3.26468e-14 0)
(-4.37455e-14 3.25887e-14 0)
(-4.74949e-14 3.19051e-14 0)
(-5.07691e-14 3.09647e-14 0)
(-5.21406e-14 3.05997e-14 0)
(-5.08801e-14 3.03142e-14 0)
(-4.8921e-14 2.99942e-14 0)
(-4.65121e-14 2.93898e-14 0)
(-4.39589e-14 2.77345e-14 0)
(-4.21429e-14 2.50947e-14 0)
(-4.11946e-14 2.23398e-14 0)
(-4.10862e-14 2.01836e-14 0)
(-4.10903e-14 1.95288e-14 0)
(-4.08229e-14 1.90877e-14 0)
(-4.05779e-14 1.90669e-14 0)
(-4.05946e-14 1.86968e-14 0)
(-4.09271e-14 1.678e-14 0)
(-4.1296e-14 1.5657e-14 0)
(-4.13154e-14 1.45695e-14 0)
(-4.05242e-14 1.27144e-14 0)
(-3.97798e-14 1.10381e-14 0)
(-3.94969e-14 1.03778e-14 0)
(-3.90451e-14 1.03729e-14 0)
(-3.83377e-14 1.08622e-14 0)
(-3.77031e-14 1.21155e-14 0)
(-3.53088e-14 1.30503e-14 0)
(-3.12181e-14 1.33772e-14 0)
(-2.82584e-14 1.35458e-14 0)
(-2.65765e-14 1.44465e-14 0)
(-2.6267e-14 1.61336e-14 0)
(-2.63736e-14 1.73482e-14 0)
(-2.46759e-14 1.89564e-14 0)
(-2.11657e-14 1.91515e-14 0)
(-1.65658e-14 1.88868e-14 0)
(-1.12888e-14 1.92406e-14 0)
(-6.71968e-15 1.99432e-14 0)
(-3.86044e-15 2.0558e-14 0)
(-2.18532e-15 2.11277e-14 0)
(-1.24652e-15 2.17974e-14 0)
(-8.62774e-16 2.25247e-14 0)
(8.89899e-17 2.32914e-14 0)
(1.27152e-15 2.3662e-14 0)
(2.53225e-15 2.35836e-14 0)
(3.46238e-15 2.3343e-14 0)
(3.72964e-15 2.31486e-14 0)
(3.81722e-15 2.31061e-14 0)
(3.54192e-15 2.31322e-14 0)
(2.87266e-15 2.25387e-14 0)
(2.02133e-15 2.15529e-14 0)
(4.78548e-16 2.0262e-14 0)
(-3.99765e-16 1.82928e-14 0)
(-2.85013e-16 1.62012e-14 0)
(-6.37059e-16 1.53084e-14 0)
(-5.19623e-17 1.51406e-14 0)
(1.39231e-15 1.56323e-14 0)
(2.37314e-15 1.60737e-14 0)
(2.93383e-15 1.63513e-14 0)
(2.42474e-15 1.68748e-14 0)
(1.03241e-15 1.74364e-14 0)
(-1.9566e-16 1.72461e-14 0)
(-6.25883e-16 1.67299e-14 0)
(-6.67364e-16 1.57243e-14 0)
(-2.37153e-15 1.46103e-14 0)
(-5.6168e-15 1.36907e-14 0)
(-8.88815e-15 1.32811e-14 0)
(-1.16149e-14 1.30232e-14 0)
(-1.42535e-14 1.23035e-14 0)
(-1.69992e-14 1.12317e-14 0)
(-1.89017e-14 1.05892e-14 0)
(-1.98765e-14 1.01993e-14 0)
(-1.95615e-14 9.47442e-15 0)
(-1.8487e-14 8.69307e-15 0)
(-1.78114e-14 8.2334e-15 0)
(-1.74768e-14 7.49269e-15 0)
(-1.71448e-14 6.65429e-15 0)
(-1.65767e-14 5.27612e-15 0)
(-1.51725e-14 4.33344e-15 0)
(-1.34141e-14 3.34703e-15 0)
(-1.18068e-14 2.71916e-15 0)
(-9.91847e-15 2.30368e-15 0)
(-8.01923e-15 1.47937e-15 0)
(-5.99545e-15 4.21737e-16 0)
(-4.44533e-15 -4.71378e-16 0)
(-3.59113e-15 -4.06571e-16 0)
(-2.55588e-15 -3.84273e-16 0)
(-8.38381e-16 -3.57237e-16 0)
(-2.1265e-15 1.33665e-15 0)
(-6.72308e-15 4.22858e-15 0)
(-1.14563e-14 7.27545e-15 0)
(-1.5776e-14 1.04517e-14 0)
(-1.9833e-14 1.34739e-14 0)
(-2.3918e-14 1.63601e-14 0)
(-2.8135e-14 1.93696e-14 0)
(-3.18889e-14 2.25878e-14 0)
(-3.41629e-14 2.57307e-14 0)
(-3.5151e-14 2.81503e-14 0)
(-3.62199e-14 3.00321e-14 0)
(-3.77065e-14 3.14839e-14 0)
(-3.95888e-14 3.31102e-14 0)
(-4.19898e-14 3.47576e-14 0)
(-4.46924e-14 3.5791e-14 0)
(-4.83151e-14 3.56081e-14 0)
(-5.24903e-14 3.52354e-14 0)
(-5.54525e-14 3.45983e-14 0)
(-5.63857e-14 3.49688e-14 0)
(-5.54663e-14 3.46597e-14 0)
(-5.38257e-14 3.37959e-14 0)
(-5.17838e-14 3.2279e-14 0)
(-4.96953e-14 2.99968e-14 0)
(-4.80173e-14 2.74921e-14 0)
(-4.67938e-14 2.54199e-14 0)
(-4.60138e-14 2.38101e-14 0)
(-4.54594e-14 2.28642e-14 0)
(-4.47784e-14 2.16357e-14 0)
(-4.42949e-14 2.1406e-14 0)
(-4.51183e-14 2.11435e-14 0)
(-4.58745e-14 1.95456e-14 0)
(-4.59974e-14 1.78909e-14 0)
(-4.61815e-14 1.60844e-14 0)
(-4.5524e-14 1.44159e-14 0)
(-4.43635e-14 1.29384e-14 0)
(-4.35312e-14 1.23312e-14 0)
(-4.27836e-14 1.21244e-14 0)
(-4.13707e-14 1.23951e-14 0)
(-4.00299e-14 1.30155e-14 0)
(-3.79619e-14 1.40362e-14 0)
(-3.45436e-14 1.43771e-14 0)
(-3.13204e-14 1.45551e-14 0)
(-2.85664e-14 1.51341e-14 0)
(-2.76185e-14 1.63215e-14 0)
(-2.73463e-14 1.81e-14 0)
(-2.56026e-14 2.0482e-14 0)
(-2.26761e-14 2.16416e-14 0)
(-1.8225e-14 2.15554e-14 0)
(-1.27611e-14 2.1703e-14 0)
(-7.82509e-15 2.18487e-14 0)
(-4.38587e-15 2.22994e-14 0)
(-2.31358e-15 2.33508e-14 0)
(-1.15992e-15 2.42111e-14 0)
(-6.35913e-16 2.48557e-14 0)
(2.13612e-16 2.55056e-14 0)
(1.35543e-15 2.60007e-14 0)
(2.56095e-15 2.632e-14 0)
(3.41822e-15 2.60606e-14 0)
(3.86119e-15 2.57962e-14 0)
(4.03713e-15 2.55384e-14 0)
(3.62153e-15 2.51524e-14 0)
(2.75593e-15 2.46471e-14 0)
(1.52498e-15 2.40221e-14 0)
(-4.35524e-16 2.24521e-14 0)
(-1.62851e-15 2.06961e-14 0)
(-1.21939e-15 1.8027e-14 0)
(-6.45918e-16 1.68598e-14 0)
(4.371e-16 1.72326e-14 0)
(1.92476e-15 1.79032e-14 0)
(2.89657e-15 1.84146e-14 0)
(3.33084e-15 1.87939e-14 0)
(2.95211e-15 1.86773e-14 0)
(1.46016e-15 1.92563e-14 0)
(-2.47858e-16 1.91613e-14 0)
(-1.16943e-15 1.87244e-14 0)
(-1.6337e-15 1.74708e-14 0)
(-3.24226e-15 1.6353e-14 0)
(-6.35554e-15 1.57478e-14 0)
(-9.62477e-15 1.53326e-14 0)
(-1.26036e-14 1.52116e-14 0)
(-1.57515e-14 1.4645e-14 0)
(-1.86822e-14 1.3645e-14 0)
(-2.04862e-14 1.3047e-14 0)
(-2.15831e-14 1.20698e-14 0)
(-2.15728e-14 1.11669e-14 0)
(-2.05034e-14 1.01599e-14 0)
(-1.9767e-14 9.43112e-15 0)
(-1.94949e-14 8.40747e-15 0)
(-1.93192e-14 7.23449e-15 0)
(-1.85369e-14 5.51296e-15 0)
(-1.69406e-14 4.28959e-15 0)
(-1.52404e-14 2.8929e-15 0)
(-1.32058e-14 2.3981e-15 0)
(-1.09886e-14 1.72207e-15 0)
(-9.18567e-15 1.10577e-15 0)
(-7.32655e-15 2.6291e-16 0)
(-5.37707e-15 -8.48955e-16 0)
(-3.89898e-15 -1.01952e-15 0)
(-2.71566e-15 -6.50015e-16 0)
(-7.8533e-16 -2.88428e-16 0)
(-2.13861e-15 1.33215e-15 0)
(-6.74444e-15 4.34672e-15 0)
(-1.14662e-14 7.67458e-15 0)
(-1.60355e-14 1.14543e-14 0)
(-2.06451e-14 1.5004e-14 0)
(-2.49758e-14 1.8058e-14 0)
(-2.91641e-14 2.11898e-14 0)
(-3.29424e-14 2.45315e-14 0)
(-3.5814e-14 2.81467e-14 0)
(-3.74206e-14 3.07889e-14 0)
(-3.86561e-14 3.23302e-14 0)
(-4.02667e-14 3.39383e-14 0)
(-4.2326e-14 3.57959e-14 0)
(-4.50185e-14 3.73373e-14 0)
(-4.83607e-14 3.83619e-14 0)
(-5.25257e-14 3.86557e-14 0)
(-5.66308e-14 3.87228e-14 0)
(-5.9359e-14 3.88279e-14 0)
(-6.04588e-14 3.90158e-14 0)
(-6.00349e-14 3.87123e-14 0)
(-5.88483e-14 3.72946e-14 0)
(-5.7327e-14 3.5069e-14 0)
(-5.53201e-14 3.23944e-14 0)
(-5.31665e-14 2.9889e-14 0)
(-5.13952e-14 2.78142e-14 0)
(-5.03239e-14 2.63073e-14 0)
(-4.99441e-14 2.53338e-14 0)
(-4.90712e-14 2.44346e-14 0)
(-4.80537e-14 2.38261e-14 0)
(-4.90289e-14 2.33207e-14 0)
(-5.0356e-14 2.20748e-14 0)
(-5.08714e-14 1.99487e-14 0)
(-5.09144e-14 1.81915e-14 0)
(-4.99036e-14 1.66351e-14 0)
(-4.83892e-14 1.51107e-14 0)
(-4.71467e-14 1.42185e-14 0)
(-4.59658e-14 1.42184e-14 0)
(-4.44956e-14 1.45799e-14 0)
(-4.3086e-14 1.4514e-14 0)
(-4.06188e-14 1.49404e-14 0)
(-3.6834e-14 1.50024e-14 0)
(-3.33654e-14 1.58477e-14 0)
(-3.05932e-14 1.66304e-14 0)
(-2.90367e-14 1.77067e-14 0)
(-2.78765e-14 1.97455e-14 0)
(-2.62175e-14 2.17827e-14 0)
(-2.40797e-14 2.2977e-14 0)
(-1.97651e-14 2.31296e-14 0)
(-1.38565e-14 2.3803e-14 0)
(-8.61407e-15 2.4435e-14 0)
(-4.65885e-15 2.51673e-14 0)
(-2.27922e-15 2.59108e-14 0)
(-1.26583e-15 2.64929e-14 0)
(-6.93001e-16 2.69884e-14 0)
(4.62819e-16 2.762e-14 0)
(1.68552e-15 2.8605e-14 0)
(2.64101e-15 2.91731e-14 0)
(3.35323e-15 2.88272e-14 0)
(3.79061e-15 2.81542e-14 0)
(3.91384e-15 2.73621e-14 0)
(3.54036e-15 2.67979e-14 0)
(2.7434e-15 2.6133e-14 0)
(1.12692e-15 2.55432e-14 0)
(-1.25628e-15 2.45049e-14 0)
(-2.97489e-15 2.31594e-14 0)
(-2.47761e-15 2.08099e-14 0)
(-6.53303e-16 1.9433e-14 0)
(1.22377e-15 1.94417e-14 0)
(2.72055e-15 2.02214e-14 0)
(3.45099e-15 2.08792e-14 0)
(3.52303e-15 2.09284e-14 0)
(3.13275e-15 2.09326e-14 0)
(1.71225e-15 2.08972e-14 0)
(-3.3975e-16 2.05013e-14 0)
(-1.74755e-15 1.99447e-14 0)
(-2.47458e-15 1.87356e-14 0)
(-3.94707e-15 1.77815e-14 0)
(-6.97165e-15 1.74067e-14 0)
(-1.02157e-14 1.75661e-14 0)
(-1.33926e-14 1.75168e-14 0)
(-1.70045e-14 1.68576e-14 0)
(-2.00706e-14 1.57748e-14 0)
(-2.22097e-14 1.49943e-14 0)
(-2.36046e-14 1.36389e-14 0)
(-2.34399e-14 1.23073e-14 0)
(-2.2293e-14 1.12675e-14 0)
(-2.16139e-14 1.04544e-14 0)
(-2.15277e-14 9.47701e-15 0)
(-2.15838e-14 7.96338e-15 0)
(-2.08976e-14 6.0539e-15 0)
(-1.90813e-14 4.03837e-15 0)
(-1.66024e-14 2.57773e-15 0)
(-1.4274e-14 2.44447e-15 0)
(-1.22827e-14 1.73339e-15 0)
(-1.03195e-14 8.13658e-16 0)
(-8.4852e-15 9.93239e-17 0)
(-6.28357e-15 -1.0342e-15 0)
(-4.20761e-15 -1.67578e-15 0)
(-2.68524e-15 -9.04275e-16 0)
(-7.82952e-16 -1.30827e-17 0)
(-2.15634e-15 1.46026e-15 0)
(-6.78447e-15 4.65992e-15 0)
(-1.14023e-14 8.12174e-15 0)
(-1.59749e-14 1.20158e-14 0)
(-2.09508e-14 1.58849e-14 0)
(-2.56927e-14 1.96272e-14 0)
(-3.00059e-14 2.29481e-14 0)
(-3.36674e-14 2.66805e-14 0)
(-3.66742e-14 2.98706e-14 0)
(-3.93647e-14 3.26855e-14 0)
(-4.13356e-14 3.47187e-14 0)
(-4.27003e-14 3.6811e-14 0)
(-4.47139e-14 3.82905e-14 0)
(-4.77835e-14 3.98925e-14 0)
(-5.14367e-14 4.06865e-14 0)
(-5.5778e-14 4.15013e-14 0)
(-6.00893e-14 4.23671e-14 0)
(-6.29396e-14 4.27075e-14 0)