/*--------------------------------*- C++ -*----------------------------------*\
| =========                 |                                                 |
| \\      /  F ield         | OpenFOAM: The Open Source CFD Toolbox           |
|  \\    /   O peration     | Version:  v2012                                 |
|   \\  /    A nd           | Website:  www.openfoam.com                      |
|    \\/     M anipulation  |                                                 |
\*---------------------------------------------------------------------------*/
FoamFile
{
    version     2.0;
    format      ascii;
    class       surfaceScalarField;
    location    "1.5";
    object      phi;
}
// * * * * * * * * * * * * * * * * * * * * * * * * * * * * * * * * * * * * * //

dimensions      [0 3 -1 0 0 0 0];
oriented        oriented;


internalField   nonuniform List<scalar> 
130560
(
3.42509e-06
-3.42509e-06
6.84995e-06
-3.42486e-06
1.02744e-05
-3.42441e-06
1.36981e-05
-3.42373e-06
1.71209e-05
-3.42282e-06
2.05426e-05
-3.42169e-06
2.39629e-05
-3.42032e-06
2.73816e-05
-3.41871e-06
3.07985e-05
-3.41687e-06
3.42133e-05
-3.41478e-06
3.76257e-05
-3.41245e-06
4.10356e-05
-3.40986e-06
4.44426e-05
-3.40702e-06
4.78465e-05
-3.40392e-06
5.12471e-05
-3.40055e-06
5.4644e-05
-3.3969e-06
5.8037e-05
-3.39298e-06
6.14257e-05
-3.38876e-06
6.481e-05
-3.38426e-06
6.81894e-05
-3.37945e-06
7.15638e-05
-3.37432e-06
7.49326e-05
-3.36888e-06
7.82957e-05
-3.36311e-06
8.16527e-05
-3.357e-06
8.50033e-05
-3.35055e-06
8.8347e-05
-3.34373e-06
9.16836e-05
-3.33655e-06
9.50126e-05
-3.329e-06
9.83336e-05
-3.32105e-06
0.000101646
-3.31271e-06
0.00010495
-3.30396e-06
0.000108245
-3.29479e-06
0.00011153
-3.28518e-06
0.000114805
-3.27513e-06
0.00011807
-3.26463e-06
0.000121324
-3.25367e-06
0.000124566
-3.24222e-06
0.000127796
-3.23029e-06
0.000131014
-3.21786e-06
0.000134219
-3.20491e-06
0.00013741
-3.19144e-06
0.000140588
-3.17744e-06
0.000143751
-3.16289e-06
0.000146899
-3.14778e-06
0.000150031
-3.13211e-06
0.000153146
-3.11585e-06
0.000156246
-3.09901e-06
0.000159327
-3.08157e-06
0.000162391
-3.06352e-06
0.000165435
-3.04484e-06
0.000168461
-3.02554e-06
0.000171467
-3.0056e-06
0.000174452
-2.98502e-06
0.000177415
-2.96378e-06
0.000180357
-2.94188e-06
0.000183277
-2.91931e-06
0.000186173
-2.89606e-06
0.000189045
-2.87213e-06
0.000191892
-2.84752e-06
0.000194714
-2.82221e-06
0.000197511
-2.7962e-06
0.00020028
-2.7695e-06
0.000203022
-2.74208e-06
0.000205736
-2.71397e-06
0.000208421
-2.68514e-06
0.000211077
-2.65561e-06
0.000213702
-2.62537e-06
0.000216297
-2.59442e-06
0.00021886
-2.56276e-06
0.00022139
-2.53039e-06
0.000223887
-2.49732e-06
0.000226351
-2.46356e-06
0.00022878
-2.4291e-06
0.000231174
-2.39395e-06
0.000233532
-2.35811e-06
0.000235854
-2.3216e-06
0.000238138
-2.28442e-06
0.000240385
-2.24657e-06
0.000242593
-2.20808e-06
0.000244762
-2.16894e-06
0.000246891
-2.12917e-06
0.00024898
-2.08878e-06
0.000251027
-2.04778e-06
0.000253033
-2.00618e-06
0.000254997
-1.964e-06
0.000256919
-1.92124e-06
0.000258797
-1.87794e-06
0.000260631
-1.83409e-06
0.00026242
-1.78972e-06
0.000264165
-1.74484e-06
0.000265865
-1.69947e-06
0.000267518
-1.65363e-06
0.000269126
-1.60732e-06
0.000270686
-1.56058e-06
0.0002722
-1.51342e-06
0.000273666
-1.46586e-06
0.000275083
-1.41791e-06
0.000276453
-1.3696e-06
0.000277774
-1.32094e-06
0.000279046
-1.27196e-06
0.000280269
-1.22268e-06
0.000281442
-1.17311e-06
0.000282565
-1.12327e-06
0.000283638
-1.07319e-06
0.000284661
-1.02289e-06
0.000285634
-9.72373e-07
0.000286555
-9.21675e-07
0.000287426
-8.70811e-07
0.000288246
-8.198e-07
0.000289014
-7.68662e-07
0.000289732
-7.17416e-07
0.000290398
-6.66081e-07
0.000291013
-6.14676e-07
0.000291576
-5.63219e-07
0.000292088
-5.11729e-07
0.000292548
-4.60223e-07
0.000292957
-4.0872e-07
0.000293314
-3.57236e-07
0.00029362
-3.05788e-07
0.000293874
-2.54392e-07
0.000294077
-2.03066e-07
0.000294229
-1.51825e-07
0.00029433
-1.00683e-07
0.000294379
-4.96567e-08
0.000294378
1.23982e-09
0.000294326
5.19924e-08
0.000294223
1.02587e-07
0.00029407
1.5301e-07
0.000293867
2.03249e-07
0.000293614
2.53291e-07
0.000293311
3.03124e-07
0.000292958
3.52734e-07
0.000292556
4.02112e-07
0.000292105
4.51246e-07
0.000291604
5.00124e-07
0.000291056
5.48736e-07
0.000290459
5.97072e-07
0.000289814
6.45122e-07
0.000289121
6.92876e-07
0.00028838
7.40324e-07
0.000287593
7.87457e-07
0.000286759
8.34267e-07
0.000285878
8.80744e-07
0.000284951
9.26881e-07
0.000283978
9.72668e-07
0.00028296
1.0181e-06
0.000281897
1.06316e-06
0.000280789
1.10785e-06
0.000279637
1.15216e-06
0.000278441
1.19609e-06
0.000277201
1.23961e-06
0.000275919
1.28274e-06
0.000274593
1.32545e-06
0.000273225
1.36775e-06
0.000271816
1.40963e-06
0.000270365
1.45108e-06
0.000268873
1.49209e-06
0.00026734
1.53266e-06
0.000265767
1.57278e-06
0.000264155
1.61245e-06
0.000262503
1.65165e-06
0.000260813
1.69039e-06
0.000259084
1.72866e-06
0.000257318
1.76645e-06
0.000255514
1.80376e-06
0.000253673
1.84058e-06
0.000251796
1.87691e-06
0.000249884
1.91274e-06
0.000247935
1.94807e-06
0.000245953
1.9829e-06
0.000243935
2.01721e-06
0.000241884
2.05101e-06
0.0002398
2.08429e-06
0.000237683
2.11705e-06
0.000235534
2.14929e-06
0.000233353
2.18099e-06
0.000231141
2.21217e-06
0.000228898
2.24281e-06
0.000226625
2.27291e-06
0.000224322
2.30248e-06
0.000221991
2.33151e-06
0.000219631
2.36e-06
0.000217243
2.38795e-06
0.000214828
2.41535e-06
0.000212385
2.44221e-06
0.000209917
2.46853e-06
0.000207423
2.4943e-06
0.000204903
2.51953e-06
0.000202359
2.54422e-06
0.00019979
2.56837e-06
0.000197198
2.59198e-06
0.000194583
2.61506e-06
0.000191946
2.63759e-06
0.000189286
2.6596e-06
0.000186605
2.68107e-06
0.000183903
2.70202e-06
0.000181181
2.72245e-06
0.000178438
2.74235e-06
0.000175677
2.76174e-06
0.000172896
2.78062e-06
0.000170097
2.79899e-06
0.00016728
2.81685e-06
0.000164446
2.83423e-06
0.000161595
2.8511e-06
0.000158727
2.8675e-06
0.000155844
2.88341e-06
0.000152945
2.89884e-06
0.000150031
2.91381e-06
0.000147103
2.92832e-06
0.00014416
2.94237e-06
0.000141205
2.95597e-06
0.000138235
2.96913e-06
0.000135254
2.98186e-06
0.000132259
2.99416e-06
0.000129253
3.00603e-06
0.000126236
3.0175e-06
0.000123207
3.02856e-06
0.000120168
3.03922e-06
0.000117119
3.04949e-06
0.000114059
3.05937e-06
0.00011099
3.06888e-06
0.000107912
3.07802e-06
0.000104825
3.0868e-06
0.00010173
3.09523e-06
9.86269e-05
3.10331e-06
9.55159e-05
3.11106e-06
9.23974e-05
3.11847e-06
8.92719e-05
3.12556e-06
8.61395e-05
3.13233e-06
8.30008e-05
3.13879e-06
7.98558e-05
3.14494e-06
7.6705e-05
3.1508e-06
7.35486e-05
3.15638e-06
7.0387e-05
3.16166e-06
6.72203e-05
3.16667e-06
6.40489e-05
3.17141e-06
6.0873e-05
3.17588e-06
5.76929e-05
3.1801e-06
5.45088e-05
3.18406e-06
5.13211e-05
3.18776e-06
4.81299e-05
3.19123e-06
4.49354e-05
3.19445e-06
4.1738e-05
3.19744e-06
3.85378e-05
3.2002e-06
3.5335e-05
3.20273e-06
3.213e-05
3.20504e-06
2.89229e-05
3.20712e-06
2.57139e-05
3.20899e-06
2.25032e-05
3.21065e-06
1.92911e-05
3.21209e-06
1.60778e-05
3.21332e-06
1.28635e-05
3.21434e-06
9.64833e-06
3.21516e-06
6.43256e-06
3.21577e-06
3.21638e-06
3.21618e-06
3.21638e-06
3.42531e-06
-6.8504e-06
6.8504e-06
-6.84995e-06
1.0275e-05
-6.84905e-06
1.3699e-05
-6.84769e-06
1.7122e-05
-6.84588e-06
2.0544e-05
-6.84361e-06
2.39645e-05
-6.84087e-06
2.73835e-05
-6.83766e-06
3.08006e-05
-6.83398e-06
3.42156e-05
-6.82981e-06
3.76283e-05
-6.82514e-06
4.10384e-05
-6.81998e-06
4.44457e-05
-6.8143e-06
4.78499e-05
-6.8081e-06
5.12507e-05
-6.80137e-06
5.46479e-05
-6.79408e-06
5.80411e-05
-6.78624e-06
6.14302e-05
-6.77782e-06
6.48148e-05
-6.76881e-06
6.81945e-05
-6.7592e-06
7.15692e-05
-6.74897e-06
7.49384e-05
-6.73809e-06
7.83018e-05
-6.72656e-06
8.16592e-05
-6.71435e-06
8.50101e-05
-6.70145e-06
8.83542e-05
-6.68783e-06
9.16911e-05
-6.67349e-06
9.50205e-05
-6.65838e-06
9.83419e-05
-6.6425e-06
0.000101655
-6.62583e-06
0.000104959
-6.60834e-06
0.000108255
-6.59e-06
0.00011154
-6.5708e-06
0.000114816
-6.55072e-06
0.000118081
-6.52973e-06
0.000121335
-6.50781e-06
0.000124578
-6.48493e-06
0.000127809
-6.46108e-06
0.000131027
-6.43622e-06
0.000134232
-6.41034e-06
0.000137424
-6.38342e-06
0.000140602
-6.35542e-06
0.000143766
-6.32633e-06
0.000146914
-6.29613e-06
0.000150047
-6.26479e-06
0.000153163
-6.2323e-06
0.000156263
-6.19862e-06
0.000159345
-6.16374e-06
0.000162409
-6.12765e-06
0.000165455
-6.09031e-06
0.000168481
-6.05172e-06
0.000171487
-6.01185e-06
0.000174473
-5.97069e-06
0.000177437
-5.92822e-06
0.00018038
-5.88443e-06
0.0001833
-5.83929e-06
0.000186196
-5.7928e-06
0.000189069
-5.74495e-06
0.000191917
-5.69573e-06
0.00019474
-5.64511e-06
0.000197537
-5.5931e-06
0.000200308
-5.53969e-06
0.00020305
-5.48488e-06
0.000205765
-5.42864e-06
0.000208451
-5.37099e-06
0.000211107
-5.31193e-06
0.000213733
-5.25144e-06
0.000216328
-5.18954e-06
0.000218892
-5.12622e-06
0.000221423
-5.06149e-06
0.000223921
-4.99535e-06
0.000226385
-4.92781e-06
0.000228815
-4.85888e-06
0.00023121
-4.78858e-06
0.000233568
-4.7169e-06
0.000235891
-4.64387e-06
0.000238176
-4.5695e-06
0.000240423
-4.4938e-06
0.000242632
-4.4168e-06
0.000244801
-4.33851e-06
0.000246931
-4.25896e-06
0.00024902
-4.17816e-06
0.000251069
-4.09615e-06
0.000253076
-4.01294e-06
0.00025504
-3.92856e-06
0.000256962
-3.84304e-06
0.00025884
-3.75642e-06
0.000260675
-3.66871e-06
0.000262465
-3.57995e-06
0.000264211
-3.49018e-06
0.000265911
-3.39942e-06
0.000267565
-3.30771e-06
0.000269172
-3.21509e-06
0.000270733
-3.12159e-06
0.000272247
-3.02724e-06
0.000273713
-2.9321e-06
0.000275132
-2.83618e-06
0.000276502
-2.73954e-06
0.000277823
-2.64221e-06
0.000279095
-2.54424e-06
0.000280318
-2.44565e-06
0.000281492
-2.34649e-06
0.000282615
-2.24679e-06
0.000283688
-2.14661e-06
0.000284712
-2.04598e-06
0.000285684
-1.94493e-06
0.000286606
-1.84352e-06
0.000287477
-1.74177e-06
0.000288297
-1.63973e-06
0.000289066
-1.53743e-06
0.000289783
-1.43492e-06
0.000290449
-1.33223e-06
0.000291064
-1.22941e-06
0.000291627
-1.12647e-06
0.000292139
-1.02348e-06
0.000292599
-9.20447e-07
0.000293008
-8.17422e-07
0.000293365
-7.14437e-07
0.000293671
-6.11525e-07
0.000293925
-5.08718e-07
0.000294128
-4.06049e-07
0.00029428
-3.03551e-07
0.000294381
-2.01253e-07
0.00029443
-9.91856e-08
0.000294429
2.62169e-09
0.000294377
1.04141e-07
0.000294274
2.05343e-07
0.000294121
3.06203e-07
0.000293917
4.06694e-07
0.000293664
5.0679e-07
0.00029336
6.06466e-07
0.000293007
7.057e-07
0.000292605
8.04467e-07
0.000292153
9.02745e-07
0.000291653
1.00051e-06
0.000291104
1.09775e-06
0.000290507
1.19443e-06
0.000289861
1.29054e-06
0.000289168
1.38606e-06
0.000288427
1.48096e-06
0.00028764
1.57524e-06
0.000286805
1.66886e-06
0.000285924
1.76183e-06
0.000284997
1.85411e-06
0.000284024
1.94569e-06
0.000283005
2.03656e-06
0.000281942
2.12669e-06
0.000280834
2.21609e-06
0.000279681
2.30471e-06
0.000278484
2.39257e-06
0.000277244
2.47963e-06
0.000275961
2.56589e-06
0.000274635
2.65132e-06
0.000273267
2.73593e-06
0.000271857
2.81969e-06
0.000270406
2.90259e-06
0.000268913
2.98462e-06
0.00026738
3.06576e-06
0.000265807
3.14601e-06
0.000264194
3.22535e-06
0.000262542
3.30377e-06
0.000260851
3.38125e-06
0.000259122
3.4578e-06
0.000257355
3.53338e-06
0.000255551
3.60801e-06
0.00025371
3.68166e-06
0.000251832
3.75432e-06
0.000249919
3.82599e-06
0.00024797
3.89665e-06
0.000245987
3.96631e-06
0.000243969
4.03494e-06
0.000241918
4.10254e-06
0.000239833
4.16911e-06
0.000237715
4.23463e-06
0.000235565
4.2991e-06
0.000233384
4.36251e-06
0.000231171
4.42487e-06
0.000228928
4.48615e-06
0.000226654
4.54637e-06
0.000224351
4.6055e-06
0.000222019
4.66356e-06
0.000219659
4.72054e-06
0.00021727
4.77643e-06
0.000214854
4.83124e-06
0.000212412
4.88496e-06
0.000209943
4.9376e-06
0.000207448
4.98915e-06
0.000204928
5.03961e-06
0.000202383
5.08899e-06
0.000199814
5.13729e-06
0.000197222
5.18451e-06
0.000194606
5.23065e-06
0.000191968
5.27572e-06
0.000189308
5.31973e-06
0.000186626
5.36268e-06
0.000183924
5.40457e-06
0.000181201
5.44541e-06
0.000178458
5.48522e-06
0.000175695
5.52399e-06
0.000172914
5.56174e-06
0.000170115
5.59848e-06
0.000167297
5.63421e-06
0.000164463
5.66894e-06
0.000161611
5.70269e-06
0.000158743
5.73547e-06
0.000155859
5.76729e-06
0.00015296
5.79816e-06
0.000150046
5.82809e-06
0.000147117
5.85709e-06
0.000144174
5.88519e-06
0.000141218
5.91239e-06
0.000138248
5.9387e-06
0.000135266
5.96414e-06
0.000132271
5.98873e-06
0.000129265
6.01248e-06
0.000126247
6.0354e-06
0.000123218
6.05751e-06
0.000120178
6.07882e-06
0.000117129
6.09935e-06
0.000114069
6.11912e-06
0.000111
6.13813e-06
0.000107921
6.15641e-06
0.000104834
6.17396e-06
0.000101738
6.19081e-06
9.86347e-05
6.20697e-06
9.55233e-05
6.22244e-06
9.24045e-05
6.23726e-06
8.92787e-05
6.25143e-06
8.6146e-05
6.26496e-06
8.30069e-05
6.27788e-06
7.98617e-05
6.29019e-06
7.67106e-05
6.3019e-06
7.35539e-05
6.31304e-06
7.0392e-05
6.3236e-06
6.72251e-05
6.33362e-06
6.40534e-05
6.34309e-06
6.08772e-05
6.35203e-06
5.76969e-05
6.36045e-06
5.45126e-05
6.36836e-06
5.13246e-05
6.37577e-06
4.81331e-05
6.3827e-06
4.49384e-05
6.38914e-06
4.17407e-05
6.39512e-06
3.85403e-05
6.40063e-06
3.53374e-05
6.40569e-06
3.21321e-05
6.41029e-06
2.89248e-05
6.41446e-06
2.57155e-05
6.4182e-06
2.25047e-05
6.4215e-06
1.92924e-05
6.42439e-06
1.60789e-05
6.42685e-06
1.28643e-05
6.42889e-06
9.64894e-06
6.43053e-06
6.43297e-06
6.43175e-06
3.21658e-06
6.43256e-06
6.43296e-06
3.42576e-06
-1.02762e-05
6.8513e-06
-1.02755e-05
1.02764e-05
-1.02741e-05
1.37008e-05
-1.02721e-05
1.71243e-05
-1.02694e-05
2.05467e-05
-1.0266e-05
2.39677e-05
-1.02619e-05
2.73872e-05
-1.02571e-05
3.08048e-05
-1.02516e-05
3.42203e-05
-1.02453e-05
3.76335e-05
-1.02383e-05
4.10441e-05
-1.02306e-05
4.44519e-05
-1.02221e-05
4.78566e-05
-1.02128e-05
5.1258e-05
-1.02027e-05
5.46557e-05
-1.01918e-05
5.80496e-05
-1.01801e-05
6.14392e-05
-1.01675e-05
6.48244e-05
-1.0154e-05
6.82048e-05
-1.01396e-05
7.158e-05
-1.01242e-05
7.49499e-05
-1.0108e-05
7.8314e-05
-1.00907e-05
8.16721e-05
-1.00724e-05
8.50237e-05
-1.00531e-05
8.83685e-05
-1.00327e-05
9.17062e-05
-1.00112e-05
9.50364e-05
-9.98854e-06
9.83586e-05
-9.96475e-06
0.000101673
-9.93977e-06
0.000104978
-9.91355e-06
0.000108274
-9.88608e-06
0.00011156
-9.85731e-06
0.000114837
-9.82722e-06
0.000118103
-9.79576e-06
0.000121358
-9.76291e-06
0.000124602
-9.72862e-06
0.000127833
-9.69287e-06
0.000131053
-9.65561e-06
0.000134259
-9.61682e-06
0.000137452
-9.57646e-06
0.000140631
-9.5345e-06
0.000143796
-9.49089e-06
0.000146946
-9.44562e-06
0.000150079
-9.39864e-06
0.000153197
-9.34992e-06
0.000156298
-9.29943e-06
0.000159381
-9.24714e-06
0.000162447
-9.19302e-06
0.000165493
-9.13704e-06
0.000168521
-9.07918e-06
0.000171528
-9.0194e-06
0.000174515
-8.95767e-06
0.000177481
-8.89399e-06
0.000180425
-8.82831e-06
0.000183346
-8.76063e-06
0.000186244
-8.69091e-06
0.000189119
-8.61915e-06
0.000191968
-8.54532e-06
0.000194792
-8.46941e-06
0.000197591
-8.39141e-06
0.000200362
-8.3113e-06
0.000203107
-8.22908e-06
0.000205823
-8.14474e-06
0.00020851
-8.05827e-06
0.000211168
-7.96967e-06
0.000213795
-7.87894e-06
0.000216392
-7.78608e-06
0.000218957
-7.69109e-06
0.000221489
-7.59399e-06
0.000223988
-7.49477e-06
0.000226454
-7.39346e-06
0.000228885
-7.29005e-06
0.000231281
-7.18458e-06
0.000233641
-7.07704e-06
0.000235965
-6.96748e-06
0.000238251
-6.8559e-06
0.0002405
-6.74234e-06
0.00024271
-6.62681e-06
0.000244881
-6.50935e-06
0.000247012
-6.38999e-06
0.000249102
-6.26877e-06
0.000251152
-6.14572e-06
0.00025316
-6.02087e-06
0.000255126
-5.89427e-06
0.000257049
-5.76596e-06
0.000258928
-5.63598e-06
0.000260764
-5.50437e-06
0.000262555
-5.3712e-06
0.000264301
-5.23649e-06
0.000266002
-5.10031e-06
0.000267657
-4.96271e-06
0.000269266
-4.82373e-06
0.000270828
-4.68343e-06
0.000272342
-4.54187e-06
0.000273809
-4.3991e-06
0.000275228
-4.25519e-06
0.000276599
-4.11018e-06
0.000277921
-3.96413e-06
0.000279194
-3.81712e-06
0.000280417
-3.66918e-06
0.000281591
-3.52039e-06
0.000282715
-3.3708e-06
0.000283789
-3.22048e-06
0.000284813
-3.06948e-06
0.000285786
-2.91787e-06
0.000286708
-2.76569e-06
0.000287579
-2.61302e-06
0.000288399
-2.45991e-06
0.000289168
-2.30642e-06
0.000289886
-2.15261e-06
0.000290552
-1.99853e-06
0.000291167
-1.84424e-06
0.00029173
-1.68979e-06
0.000292242
-1.53525e-06
0.000292702
-1.38066e-06
0.000293111
-1.22609e-06
0.000293468
-1.07157e-06
0.000293774
-9.17155e-07
0.000294028
-7.62904e-07
0.000294231
-6.08862e-07
0.000294382
-4.55076e-07
0.000294483
-3.01591e-07
0.000294532
-1.48454e-07
0.00029453
4.29259e-09
0.000294478
1.56606e-07
0.000294375
3.08443e-07
0.000294221
4.59766e-07
0.000294017
6.10533e-07
0.000293763
7.60708e-07
0.00029346
9.10253e-07
0.000293106
1.05913e-06
0.000292703
1.20731e-06
0.000292251
1.35476e-06
0.00029175
1.50143e-06
0.000291201
1.64731e-06
0.000290603
1.79236e-06
0.000289957
1.93655e-06
0.000289263
2.07985e-06
0.000288522
2.22223e-06
0.000287733
2.36366e-06
0.000286898
2.50413e-06
0.000286016
2.64359e-06
0.000285088
2.78204e-06
0.000284115
2.91943e-06
0.000283095
3.05575e-06
0.000282031
3.19097e-06
0.000280922
3.32508e-06
0.000279769
3.45804e-06
0.000278572
3.58984e-06
0.000277331
3.72045e-06
0.000276047
3.84985e-06
0.00027472
3.97803e-06
0.000273351
4.10495e-06
0.00027194
4.23061e-06
0.000270488
4.35497e-06
0.000268994
4.47803e-06
0.00026746
4.59976e-06
0.000265886
4.72015e-06
0.000264272
4.83917e-06
0.000262619
4.95682e-06
0.000260928
5.07306e-06
0.000259197
5.18789e-06
0.00025743
5.30128e-06
0.000255624
5.41323e-06
0.000253782
5.52372e-06
0.000251904
5.63272e-06
0.00024999
5.74024e-06
0.00024804
5.84625e-06
0.000246056
5.95074e-06
0.000244037
6.05369e-06
0.000241984
6.15511e-06
0.000239898
6.25496e-06
0.00023778
6.35325e-06
0.000235629
6.44997e-06
0.000233446
6.5451e-06
0.000231233
6.63863e-06
0.000228988
6.73057e-06
0.000226714
6.82089e-06
0.000224409
6.9096e-06
0.000222076
6.9967e-06
0.000219715
7.08217e-06
0.000217325
7.16601e-06
0.000214908
7.24822e-06
0.000212464
7.3288e-06
0.000209994
7.40776e-06
0.000207498
7.48508e-06
0.000204977
7.56077e-06
0.000202431
7.63483e-06
0.000199861
7.70728e-06
0.000197268
7.7781e-06
0.000194651
7.84731e-06
0.000192012
7.91492e-06
0.000189351
7.98092e-06
0.000186668
8.04533e-06
0.000183964
8.10816e-06
0.00018124
8.16942e-06
0.000178496
8.22912e-06
0.000175733
8.28727e-06
0.000172951
8.34388e-06
0.000170151
8.39897e-06
0.000167332
8.45255e-06
0.000164496
8.50464e-06
0.000161644
8.55526e-06
0.000158775
8.60441e-06
0.00015589
8.65212e-06
0.00015299
8.69841e-06
0.000150075
8.74329e-06
0.000147145
8.78678e-06
0.000144201
8.8289e-06
0.000141244
8.86968e-06
0.000138274
8.90914e-06
0.00013529
8.94729e-06
0.000132295
8.98415e-06
0.000129288
9.01975e-06
0.000126269
9.05412e-06
0.000123239
9.08726e-06
0.000120199
9.11921e-06
0.000117148
9.14999e-06
0.000114088
9.17962e-06
0.000111018
9.20812e-06
0.000107939
9.23551e-06
0.000104851
9.26183e-06
0.000101755
9.28708e-06
9.86502e-05
9.31129e-06
9.55381e-05
9.3345e-06
9.24187e-05
9.3567e-06
8.92922e-05
9.37794e-06
8.61589e-05
9.39822e-06
8.30192e-05
9.41757e-06
7.98734e-05
9.43602e-06
7.67217e-05
9.45358e-06
7.35645e-05
9.47026e-06
7.0402e-05
9.4861e-06
6.72345e-05
9.50111e-06
6.40623e-05
9.5153e-06
6.08857e-05
9.52869e-06
5.77048e-05
9.54131e-06
5.452e-05
9.55317e-06
5.13315e-05
9.56427e-06
4.81395e-05
9.57465e-06
4.49444e-05
9.5843e-06
4.17462e-05
9.59325e-06
3.85454e-05
9.60151e-06
3.5342e-05
9.60909e-06
3.21363e-05
9.61599e-06
2.89285e-05
9.62224e-06
2.57188e-05
9.62783e-06
2.25076e-05
9.63279e-06
1.92948e-05
9.6371e-06
1.60809e-05
9.64079e-06
1.28659e-05
9.64386e-06
9.65016e-06
9.6463e-06
6.43378e-06
9.64813e-06
3.21699e-06
9.64935e-06
9.64995e-06
3.42644e-06
-1.37026e-05
6.85266e-06
-1.37017e-05
1.02784e-05
-1.36999e-05
1.37035e-05
-1.36972e-05
1.71277e-05
-1.36936e-05
2.05508e-05
-1.36891e-05
2.39725e-05
-1.36836e-05
2.73927e-05
-1.36772e-05
3.0811e-05
-1.36699e-05
3.42273e-05
-1.36616e-05
3.76412e-05
-1.36523e-05
4.10526e-05
-1.3642e-05
4.44612e-05
-1.36307e-05
4.78667e-05
-1.36183e-05
5.12689e-05
-1.36049e-05
5.46675e-05
-1.35904e-05
5.80622e-05
-1.35748e-05
6.14527e-05
-1.3558e-05
6.48388e-05
-1.35401e-05
6.82201e-05
-1.35209e-05
7.15964e-05
-1.35005e-05
7.49672e-05
-1.34788e-05
7.83323e-05
-1.34558e-05
8.16914e-05
-1.34315e-05
8.50441e-05
-1.34058e-05
8.83901e-05
-1.33786e-05
9.17289e-05
-1.335e-05
9.50602e-05
-1.33199e-05
9.83836e-05
-1.32882e-05
0.000101699
-1.32549e-05
0.000105005
-1.322e-05
0.000108303
-1.31835e-05
0.00011159
-1.31452e-05
0.000114868
-1.31051e-05
0.000118136
-1.30632e-05
0.000121392
-1.30194e-05
0.000124637
-1.29738e-05
0.000127871
-1.29262e-05
0.000131092
-1.28765e-05
0.0001343
-1.28249e-05
0.000137494
-1.27711e-05
0.000140675
-1.27152e-05
0.000143841
-1.26571e-05
0.000146993
-1.25968e-05
0.000150128
-1.25342e-05
0.000153247
-1.24693e-05
0.00015635
-1.2402e-05
0.000159435
-1.23324e-05
0.000162503
-1.22603e-05
0.000165551
-1.21857e-05
0.000168581
-1.21085e-05
0.00017159
-1.20289e-05
0.000174579
-1.19466e-05
0.000177547
-1.18617e-05
0.000180493
-1.17742e-05
0.000183416
-1.1684e-05
0.000186316
-1.15911e-05
0.000189192
-1.14954e-05
0.000192044
-1.1397e-05
0.00019487
-1.12958e-05
0.000197671
-1.11918e-05
0.000200445
-1.1085e-05
0.000203191
-1.09754e-05
0.000205909
-1.0863e-05
0.000208599
-1.07477e-05
0.000211258
-1.06295e-05
0.000213888
-1.05086e-05
0.000216487
-1.03847e-05
0.000219054
-1.02581e-05
0.000221588
-1.01286e-05
0.00022409
-9.9963e-06
0.000226558
-9.86119e-06
0.000228991
-9.72329e-06
0.000231389
-9.58263e-06
0.000233751
-9.43922e-06
0.000236077
-9.2931e-06
0.000238365
-9.14429e-06
0.000240616
-8.99283e-06
0.000242828
-8.83875e-06
0.000245
-8.68209e-06
0.000247133
-8.5229e-06
0.000249226
-8.36121e-06
0.000251277
-8.19708e-06
0.000253287
-8.03055e-06
0.000255254
-7.86169e-06
0.000257179
-7.69053e-06
0.00025906
-7.51716e-06
0.000260897
-7.34162e-06
0.00026269
-7.16397e-06
0.000264438
-6.98429e-06
0.00026614
-6.80263e-06
0.000267796
-6.61907e-06
0.000269406
-6.43369e-06
0.000270969
-6.24654e-06
0.000272485
-6.0577e-06
0.000273953
-5.86726e-06
0.000275373
-5.67528e-06
0.000276745
-5.48184e-06
0.000278068
-5.28703e-06
0.000279342
-5.09091e-06
0.000280566
-4.89357e-06
0.000281741
-4.69509e-06
0.000282866
-4.49555e-06
0.00028394
-4.29503e-06
0.000284964
-4.0936e-06
0.000285938
-3.89135e-06
0.00028686
-3.68836e-06
0.000287732
-3.48471e-06
0.000288553
-3.28047e-06
0.000289322
-3.07573e-06
0.00029004
-2.87055e-06
0.000290706
-2.66503e-06
0.000291321
-2.45922e-06
0.000291885
-2.25321e-06
0.000292397
-2.04707e-06
0.000292857
-1.84087e-06
0.000293266
-1.63469e-06
0.000293623
-1.42858e-06
0.000293928
-1.22262e-06
0.000294182
-1.01688e-06
0.000294385
-8.11419e-07
0.000294536
-6.06298e-07
0.000294636
-4.01582e-07
0.000294685
-1.97331e-07
0.000294683
6.39807e-09
0.00029463
2.09547e-07
0.000294526
4.1206e-07
0.000294372
6.13884e-07
0.000294167
8.14967e-07
0.000293913
1.01526e-06
0.000293608
1.21471e-06
0.000293254
1.41327e-06
0.000292851
1.61089e-06
0.000292398
1.80753e-06
0.000291896
2.00315e-06
0.000291346
2.19771e-06
0.000290747
2.39115e-06
0.0002901
2.58345e-06
0.000289405
2.77456e-06
0.000288663
2.96444e-06
0.000287874
3.15306e-06
0.000287038
3.34039e-06
0.000286155
3.52639e-06
0.000285226
3.71101e-06
0.000284251
3.89424e-06
0.000283231
4.07604e-06
0.000282165
4.25638e-06
0.000281055
4.43522e-06
0.000279901
4.61253e-06
0.000278702
4.7883e-06
0.00027746
4.96248e-06
0.000276175
5.13505e-06
0.000274847
5.30598e-06
0.000273477
5.47524e-06
0.000272064
5.64281e-06
0.000270611
5.80867e-06
0.000269116
5.97277e-06
0.000267581
6.13511e-06
0.000266005
6.29566e-06
0.00026439
6.45438e-06
0.000262736
6.61126e-06
0.000261042
6.76628e-06
0.000259311
6.91941e-06
0.000257541
7.07063e-06
0.000255735
7.21992e-06
0.000253891
7.36725e-06
0.000252011
7.51262e-06
0.000250096
7.65599e-06
0.000248144
7.79736e-06
0.000246158
7.9367e-06
0.000244138
8.07399e-06
0.000242084
8.20923e-06
0.000239997
8.34239e-06
0.000237876
8.47346e-06
0.000235724
8.60242e-06
0.00023354
8.72928e-06
0.000231324
8.854e-06
0.000229078
8.97659e-06
0.000226802
9.09703e-06
0.000224497
9.21532e-06
0.000222162
9.33145e-06
0.000219799
9.44542e-06
0.000217407
9.55721e-06
0.000214989
9.66683e-06
0.000212543
9.77428e-06
0.000210071
9.87954e-06
0.000207574
9.98264e-06
0.000205051
1.00836e-05
0.000202504
1.01823e-05
0.000199932
1.02789e-05
0.000197337
1.03733e-05
0.000194719
1.04656e-05
0.000192078
1.05557e-05
0.000189415
1.06437e-05
0.000186731
1.07296e-05
0.000184026
1.08133e-05
0.0001813
1.0895e-05
0.000178555
1.09746e-05
0.00017579
1.10521e-05
0.000173006
1.11275e-05
0.000170204
1.1201e-05
0.000167384
1.12724e-05
0.000164547
1.13418e-05
0.000161693
1.14093e-05
0.000158823
1.14748e-05
0.000155936
1.15384e-05
0.000153035
1.16001e-05
0.000150118
1.16599e-05
0.000147187
1.17178e-05
0.000144242
1.1774e-05
0.000141283
1.18283e-05
0.000138312
1.18809e-05
0.000135327
1.19317e-05
0.000132331
1.19808e-05
0.000129322
1.20283e-05
0.000126302
1.20741e-05
0.000123271
1.21182e-05
0.00012023
1.21608e-05
0.000117178
1.22018e-05
0.000114116
1.22412e-05
0.000111045
1.22792e-05
0.000107965
1.23157e-05
0.000104876
1.23508e-05
0.000101779
1.23844e-05
9.86734e-05
1.24166e-05
9.55603e-05
1.24475e-05
9.24399e-05
1.24771e-05
8.93125e-05
1.25054e-05
8.61783e-05
1.25324e-05
8.30377e-05
1.25582e-05
7.9891e-05
1.25827e-05
7.67384e-05
1.26061e-05
7.35803e-05
1.26283e-05
7.0417e-05
1.26494e-05
6.72487e-05
1.26694e-05
6.40757e-05
1.26883e-05
6.08983e-05
1.27061e-05
5.77166e-05
1.27229e-05
5.45311e-05
1.27387e-05
5.13419e-05
1.27535e-05
4.81492e-05
1.27673e-05
4.49533e-05
1.27802e-05
4.17545e-05
1.27921e-05
3.85529e-05
1.28031e-05
3.53489e-05
1.28132e-05
3.21425e-05
1.28224e-05
2.89341e-05
1.28307e-05
2.57238e-05
1.28381e-05
2.25119e-05
1.28447e-05
1.92985e-05
1.28504e-05
1.6084e-05
1.28554e-05
1.28684e-05
1.28594e-05
9.65199e-06
1.28627e-05
6.435e-06
1.28651e-05
3.2176e-06
1.28667e-05
1.28676e-05
3.42734e-06
-1.71299e-05
6.85446e-06
-1.71288e-05
1.02811e-05
-1.71266e-05
1.37071e-05
-1.71232e-05
1.71323e-05
-1.71187e-05
2.05563e-05
-1.71131e-05
2.39789e-05
-1.71063e-05
2.74e-05
-1.70983e-05
3.08193e-05
-1.70892e-05
3.42366e-05
-1.70788e-05
3.76515e-05
-1.70672e-05
4.10639e-05
-1.70544e-05
4.44736e-05
-1.70403e-05
4.78802e-05
-1.70249e-05
5.12834e-05
-1.70082e-05
5.46831e-05
-1.69901e-05
5.8079e-05
-1.69706e-05
6.14707e-05
-1.69497e-05
6.4858e-05
-1.69273e-05
6.82405e-05
-1.69034e-05
7.16181e-05
-1.6878e-05
7.49902e-05
-1.6851e-05
7.83567e-05
-1.68223e-05
8.17172e-05
-1.67919e-05
8.50713e-05
-1.67599e-05
8.84187e-05
-1.6726e-05
9.1759e-05
-1.66903e-05
9.50919e-05
-1.66527e-05
9.84169e-05
-1.66132e-05
0.000101734
-1.65717e-05
0.000105042
-1.65282e-05
0.000108341
-1.64826e-05
0.000111631
-1.64348e-05
0.00011491
-1.63848e-05
0.00011818
-1.63325e-05
0.000121438
-1.62779e-05
0.000124685
-1.62209e-05
0.00012792
-1.61615e-05
0.000131143
-1.60995e-05
0.000134354
-1.6035e-05
0.00013755
-1.59679e-05
0.000140733
-1.58981e-05
0.000143902
-1.58256e-05
0.000147055
-1.57503e-05
0.000150193
-1.56721e-05
0.000153315
-1.55911e-05
0.00015642
-1.55071e-05
0.000159507
-1.542e-05
0.000162577
-1.533e-05
0.000165628
-1.52368e-05
0.00016866
-1.51405e-05
0.000171672
-1.5041e-05
0.000174664
-1.49382e-05
0.000177634
-1.48322e-05
0.000180583
-1.47228e-05
0.000183509
-1.46101e-05
0.000186412
-1.4494e-05
0.000189291
-1.43744e-05
0.000192145
-1.42514e-05
0.000194975
-1.4125e-05
0.000197778
-1.3995e-05
0.000200554
-1.38616e-05
0.000203303
-1.37246e-05
0.000206025
-1.3584e-05
0.000208717
-1.34399e-05
0.000211379
-1.32922e-05
0.000214012
-1.3141e-05
0.000216613
-1.29862e-05
0.000219183
-1.28279e-05
0.000221721
-1.2666e-05
0.000224225
-1.25006e-05
0.000226696
-1.23317e-05
0.000229132
-1.21593e-05
0.000231532
-1.19834e-05
0.000233897
-1.18041e-05
0.000236226
-1.16214e-05
0.000238517
-1.14353e-05
0.00024077
-1.12459e-05
0.000242984
-1.10533e-05
0.000245159
-1.08574e-05
0.000247295
-1.06583e-05
0.00024939
-1.04561e-05
0.000251444
-1.02508e-05
0.000253456
-1.00426e-05
0.000255425
-9.83139e-06
0.000257352
-9.61734e-06
0.000259235
-9.4005e-06
0.000261075
-9.18096e-06
0.00026287
-8.95878e-06
0.000264619
-8.73405e-06
0.000266324
-8.50685e-06
0.000267982
-8.27727e-06
0.000269593
-8.0454e-06
0.000271158
-7.81133e-06
0.000272676
-7.57515e-06
0.000274145
-7.33695e-06
0.000275567
-7.09683e-06
0.00027694
-6.85489e-06
0.000278264
-6.61122e-06
0.000279539
-6.36593e-06
0.000280765
-6.11911e-06
0.00028194
-5.87086e-06
0.000283066
-5.62128e-06
0.000284142
-5.37047e-06
0.000285167
-5.11854e-06
0.000286141
-4.86558e-06
0.000287064
-4.6117e-06
0.000287936
-4.35698e-06
0.000288757
-4.10154e-06
0.000289527
-3.84547e-06
0.000290246
-3.58885e-06
0.000290912
-3.3318e-06
0.000291528
-3.07441e-06
0.000292091
-2.81676e-06
0.000292603
-2.55895e-06
0.000293063
-2.30107e-06
0.000293472
-2.04321e-06
0.000293829
-1.78545e-06
0.000294134
-1.52788e-06
0.000294387
-1.27058e-06
0.00029459
-1.01363e-06
0.00029474
-7.57115e-07
0.00029484
-5.01107e-07
0.000294888
-2.45683e-07
0.000294886
9.08452e-09
0.000294832
2.63124e-07
0.000294728
5.16367e-07
0.000294573
7.68745e-07
0.000294368
1.02019e-06
0.000294112
1.27065e-06
0.000293807
1.52005e-06
0.000293452
1.76834e-06
0.000293047
2.01545e-06
0.000292594
2.26134e-06
0.000292091
2.50594e-06
0.000291539
2.74921e-06
0.000290939
2.99109e-06
0.000290291
3.23153e-06
0.000289595
3.47049e-06
0.000288852
3.70792e-06
0.000288061
3.94376e-06
0.000287224
4.17799e-06
0.000286339
4.41054e-06
0.000285409
4.64139e-06
0.000284433
4.87049e-06
0.000283411
5.09779e-06
0.000282344
5.32327e-06
0.000281232
5.54688e-06
0.000280076
5.76858e-06
0.000278876
5.98834e-06
0.000277633
6.20612e-06
0.000276346
6.42188e-06
0.000275016
6.6356e-06
0.000273644
6.84723e-06
0.00027223
7.05674e-06
0.000270775
7.26411e-06
0.000269278
7.46929e-06
0.000267741
7.67226e-06
0.000266164
7.87298e-06
0.000264547
8.07143e-06
0.000262891
8.26758e-06
0.000261195
8.46139e-06
0.000259462
8.65284e-06
0.000257691
8.84191e-06
0.000255882
9.02856e-06
0.000254037
9.21277e-06
0.000252155
9.39451e-06
0.000250237
9.57376e-06
0.000248284
9.7505e-06
0.000246296
9.92471e-06
0.000244273
1.00964e-05
0.000242217
1.02654e-05
0.000240128
1.04319e-05
0.000238005
1.05958e-05
0.000235851
1.0757e-05
0.000233665
1.09156e-05
0.000231447