/*--------------------------------*- C++ -*----------------------------------*\
| =========                 |                                                 |
| \\      /  F ield         | OpenFOAM: The Open Source CFD Toolbox           |
|  \\    /   O peration     | Version:  v2012                                 |
|   \\  /    A nd           | Website:  www.openfoam.com                      |
|    \\/     M anipulation  |                                                 |
\*---------------------------------------------------------------------------*/
FoamFile
{
    version     2.0;
    format      ascii;
    class       volScalarField;
    location    "1.5";
    object      Psi_z;
}
// * * * * * * * * * * * * * * * * * * * * * * * * * * * * * * * * * * * * * //

dimensions      [0 2 -1 0 0 0 0];


internalField   nonuniform List<scalar> 
65536
(
8.5645e-06
2.56929e-05
4.28196e-05
5.99435e-05
7.70634e-05
9.41782e-05
0.000111287
0.000128388
0.00014548
0.000162563
0.000179635
0.000196694
0.00021374
0.000230771
0.000247785
0.000264782
0.000281761
0.000298719
0.000315655
0.000332567
0.000349455
0.000366317
0.000383151
0.000399954
0.000416727
0.000433466
0.00045017
0.000466838
0.000483466
0.000500054
0.0005166
0.0005331
0.000549553
0.000565958
0.000582311
0.00059861
0.000614853
0.000631038
0.000647162
0.000663222
0.000679216
0.000695142
0.000710996
0.000726776
0.000742479
0.000758102
0.000773643
0.000789097
0.000804463
0.000819737
0.000834917
0.000849997
0.000864977
0.000879852
0.000894619
0.000909275
0.000923816
0.000938239
0.000952541
0.000966718
0.000980767
0.000994683
0.00100846
0.00102211
0.00103561
0.00104896
0.00106217
0.00107522
0.00108811
0.00110085
0.00111342
0.00112582
0.00113805
0.00115011
0.00116199
0.0011737
0.00118521
0.00119654
0.00120768
0.00121862
0.00122937
0.00123991
0.00125025
0.00126039
0.00127031
0.00128003
0.00128952
0.0012988
0.00130786
0.0013167
0.00132531
0.00133369
0.00134184
0.00134976
0.00135744
0.00136489
0.00137209
0.00137906
0.00138579
0.00139227
0.0013985
0.00140449
0.00141022
0.00141571
0.00142095
0.00142593
0.00143067
0.00143514
0.00143937
0.00144333
0.00144704
0.0014505
0.0014537
0.00145664
0.00145932
0.00146174
0.00146391
0.00146582
0.00146747
0.00146887
0.00147001
0.00147089
0.00147152
0.00147189
0.001472
0.00147186
0.00147147
0.00147083
0.00146993
0.00146878
0.00146738
0.00146574
0.00146385
0.00146171
0.00145932
0.00145669
0.00145382
0.00145071
0.00144736
0.00144377
0.00143995
0.00143589
0.00143159
0.00142707
0.00142231
0.00141733
0.00141212
0.00140669
0.00140103
0.00139516
0.00138906
0.00138275
0.00137623
0.00136949
0.00136254
0.00135538
0.00134802
0.00134045
0.00133269
0.00132472
0.00131655
0.00130819
0.00129964
0.0012909
0.00128197
0.00127286
0.00126356
0.00125408
0.00124443
0.0012346
0.00122459
0.00121442
0.00120408
0.00119357
0.00118291
0.00117208
0.00116109
0.00114995
0.00113866
0.00112722
0.00111564
0.00110391
0.00109203
0.00108003
0.00106788
0.0010556
0.00104319
0.00103066
0.001018
0.00100522
0.000992317
0.0009793
0.000966168
0.000952926
0.000939574
0.000926117
0.000912556
0.000898895
0.000885136
0.000871281
0.000857333
0.000843294
0.000829168
0.000814956
0.000800661
0.000786285
0.000771831
0.000757301
0.000742698
0.000728023
0.000713279
0.000698468
0.000683593
0.000668655
0.000653656
0.0006386
0.000623487
0.00060832
0.000593101
0.000577831
0.000562513
0.000547148
0.000531739
0.000516287
0.000500793
0.00048526
0.000469689
0.000454082
0.00043844
0.000422765
0.000407059
0.000391322
0.000375557
0.000359765
0.000343948
0.000328106
0.000312241
0.000296354
0.000280447
0.00026452
0.000248576
0.000232615
0.000216638
0.000200648
0.000184644
0.000168627
0.0001526
0.000136563
0.000120518
0.000104464
8.8404e-05
7.23382e-05
5.62678e-05
4.01938e-05
2.41173e-05
8.03927e-06
2.5694e-05
7.70803e-05
0.000128462
0.000179834
0.000231195
0.000282541
0.000333867
0.000385172
0.000436451
0.0004877
0.000538916
0.000590095
0.000641233
0.000692327
0.000743373
0.000794366
0.000845302
0.000896177
0.000946987
0.000997727
0.00104839
0.00109898
0.00114948
0.00119989
0.00125021
0.00130043
0.00135055
0.00140055
0.00145044
0.0015002
0.00154984
0.00159935
0.00164871
0.00169792
0.00174698
0.00179588
0.00184462
0.00189317
0.00194155
0.00198973
0.00203772
0.0020855
0.00213306
0.0021804
0.00222752
0.00227439
0.00232101
0.00236738
0.00241348
0.00245931
0.00250485
0.00255009
0.00259503
0.00263966
0.00268397
0.00272794
0.00277156
0.00281484
0.00285775
0.00290028
0.00294243
0.00298418
0.00302553
0.00306646
0.00310697
0.00314703
0.00318665
0.00322581
0.00326449
0.0033027
0.00334042
0.00337763
0.00341434
0.00345052
0.00348616
0.00352127
0.00355582
0.00358981
0.00362322
0.00365606
0.0036883
0.00371993
0.00375096
0.00378137
0.00381115
0.00384029
0.00386879
0.00389663
0.00392381
0.00395031
0.00397615
0.00400129
0.00402575
0.00404951
0.00407256
0.0040949
0.00411652
0.00413742
0.0041576
0.00417704
0.00419574
0.0042137
0.00423092
0.00424739
0.0042631
0.00427805
0.00429225
0.00430568
0.00431835
0.00433025
0.00434139
0.00435175
0.00436134
0.00437016
0.00437821
0.00438549
0.00439199
0.00439772
0.00440268
0.00440686
0.00441028
0.00441292
0.0044148
0.00441591
0.00441626
0.00441584
0.00441466
0.00441273
0.00441004
0.00440659
0.0044024
0.00439746
0.00439178
0.00438536
0.00437821
0.00437032
0.00436171
0.00435237
0.00434232
0.00433155
0.00432007
0.00430789
0.00429501
0.00428143
0.00426717
0.00425222
0.00423659
0.00422029
0.00420332
0.00418569
0.0041674
0.00414847
0.00412889
0.00410867
0.00408783
0.00406635
0.00404426
0.00402156
0.00399826
0.00397435
0.00394986
0.00392478
0.00389912
0.00387289
0.0038461
0.00381875
0.00379086
0.00376243
0.00373346
0.00370396
0.00367395
0.00364343
0.0036124
0.00358088
0.00354888
0.00351639
0.00348343
0.00345001
0.00341614
0.00338181
0.00334705
0.00331186
0.00327624
0.00324021
0.00320377
0.00316694
0.00312971
0.00309211
0.00305412
0.00301578
0.00297707
0.00293801
0.00289862
0.00285889
0.00281883
0.00277846
0.00273777
0.00269678
0.0026555
0.00261394
0.00257209
0.00252997
0.00248759
0.00244495
0.00240206
0.00235893
0.00231557
0.00227198
0.00222817
0.00218414
0.0021399
0.00209547
0.00205084
0.00200603
0.00196103
0.00191586
0.00187052
0.00182501
0.00177935
0.00173354
0.00168759
0.00164149
0.00159526
0.0015489
0.00150242
0.00145582
0.0014091
0.00136228
0.00131535
0.00126833
0.00122121
0.001174
0.0011267
0.00107932
0.00103187
0.00098434
0.000936744
0.000889082
0.000841359
0.000793579
0.000745745
0.000697861
0.00064993
0.000601957
0.000553943
0.000505894
0.000457811
0.000409699
0.000361561
0.000313399
0.000265218
0.000217019
0.000168807
0.000120584
7.23535e-05
2.41183e-05
4.28252e-05
0.000128473
0.000214112
0.000299737
0.000385342
0.000470922
0.00055647
0.000641982
0.00072745
0.000812869
0.000898234
0.000983536
0.00106877
0.00115393
0.00123901
0.00132401
0.0014089
0.0014937
0.00157839
0.00166296
0.00174741
0.00183172
0.0019159
0.00199993
0.0020838
0.0021675
0.00225103
0.00233438
0.00241753
0.00250048
0.00258322
0.00266573
0.00274801
0.00283004
0.00291182
0.00299333
0.00307456
0.00315549
0.00323612
0.00331644
0.00339642
0.00347606
0.00355535
0.00363426
0.00371279
0.00379092
0.00386864
0.00394593
0.00402277
0.00409916
0.00417507
0.00425049
0.00432541
0.0043998
0.00447365
0.00454694
0.00461967
0.0046918
0.00476333
0.00483423
0.00490449
0.00497409
0.00504301
0.00511124
0.00517876
0.00524555
0.00531159
0.00537687
0.00544136
0.00550505
0.00556792
0.00562996
0.00569114
0.00575145
0.00581088
0.00586939
0.00592699
0.00598365
0.00603935
0.00609408
0.00614783
0.00620057
0.00625229
0.00630298
0.00635262
0.0064012
0.0064487
0.00649511
0.00654042
0.00658461
0.00662767
0.00666959
0.00671036
0.00674996
0.00678839
0.00682563
0.00686167
0.00689652
0.00693014
0.00696255
0.00699373
0.00702367
0.00705237
0.00707981
0.007106
0.00713093
0.00715459
0.00717699
0.0071981
0.00721794
0.0072365
0.00725377
0.00726976
0.00728446
0.00729788
0.00731001
0.00732084
0.00733039
0.00733865
0.00734563
0.00735132
0.00735572
0.00735885
0.0073607
0.00736127
0.00736058
0.00735861
0.00735538
0.0073509
0.00734515
0.00733816
0.00732993
0.00732046
0.00730976
0.00729783
0.00728468
0.00727032
0.00725476
0.00723799
0.00722004
0.00720091
0.0071806
0.00715912
0.00713649
0.00711271
0.00708779
0.00706173
0.00703456
0.00700627
0.00697688
0.0069464
0.00691483
0.00688219
0.00684849
0.00681374
0.00677794
0.00674112
0.00670328
0.00666443
0.00662458
0.00658374
0.00654193
0.00649916
0.00645544
0.00641079
0.0063652
0.0063187
0.0062713
0.00622301
0.00617385
0.00612382
0.00607294
0.00602122
0.00596868
0.00591533
0.00586117
0.00580624
0.00575053
0.00569406
0.00563684
0.0055789
0.00552023
0.00546087
0.00540081
0.00534007
0.00527867
0.00521661
0.00515393
0.00509061
0.00502669
0.00496217
0.00489707
0.0048314
0.00476517
0.0046984
0.0046311
0.00456329
0.00449497
0.00442616
0.00435687
0.00428712
0.00421691
0.00414627
0.0040752
0.00400371
0.00393182
0.00385954
0.00378688
0.00371385
0.00364046
0.00356673
0.00349267
0.00341828
0.00334358
0.00326858
0.00319328
0.00311771
0.00304186
0.00296576
0.0028894
0.0028128
0.00273597
0.00265891
0.00258164
0.00250416
0.00242649
0.00234863
0.00227058
0.00219237
0.00211398
0.00203545
0.00195676
0.00187792
0.00179896
0.00171986
0.00164064
0.00156131
0.00148187
0.00140233
0.00132269
0.00124296
0.00116315
0.00108326
0.0010033
0.000923279
0.000843193
0.000763052
0.000682862
0.000602627
0.000522355
0.000442048
0.000361714
0.000281357
0.000200982
0.000120594
4.01989e-05
5.99592e-05
0.000179874
0.000299776
0.000419659
0.000539515
0.000659335
0.000779111
0.000898835
0.0010185
0.00113809
0.00125761
0.00137705
0.00149638
0.00161562
0.00173474
0.00185374
0.00197261
0.00209133
0.00220991
0.00232832
0.00244656
0.00256461
0.00268247
0.00280012
0.00291755
0.00303475
0.00315171
0.0032684
0.00338483
0.00350098
0.00361682
0.00373235
0.00384756
0.00396242
0.00407692
0.00419105
0.00430479
0.00441811
0.00453102
0.00464348
0.00475547
0.00486699
0.00497801
0.00508851
0.00519847
0.00530787
0.0054167
0.00552492
0.00563253
0.00573949
0.00584579
0.0059514
0.0060563
0.00616047
0.00626389
0.00636652
0.00646836
0.00656937
0.00666953
0.00676882
0.00686721
0.00696467
0.00706119
0.00715674
0.00725129
0.00734482
0.0074373
0.00752871
0.00761902
0.00770821
0.00779626
0.00788313
0.00796881
0.00805328
0.00813649
0.00821844
0.0082991
0.00837845
0.00845645
0.0085331
0.00860836
0.00868222
0.00875466
0.00882564
0.00889516
0.00896319
0.00902971
0.0090947
0.00915815
0.00922003
0.00928034
0.00933904
0.00939613
0.00945159
0.0095054
0.00955755
0.00960803
0.00965682
0.00970391
0.00974929
0.00979295
0.00983488
0.00987506
0.0099135
0.00995017
0.00998508
0.0100182
0.0100496
0.0100791
0.0101069
0.0101329
0.0101571
0.0101795
0.0102001
0.0102188
0.0102358
0.010251
0.0102644
0.0102759
0.0102857
0.0102936
0.0102998
0.0103042
0.0103068
0.0103076
0.0103066
0.0103038
0.0102993
0.010293
0.010285
0.0102752
0.0102636
0.0102504
0.0102354
0.0102187
0.0102002
0.0101801
0.0101583
0.0101349
0.0101097
0.0100829
0.0100545
0.0100244
0.00999269
0.00995939
0.00992448
0.009888
0.00984994
0.00981032
0.00976916
0.00972647
0.00968227
0.00963656
0.00958936
0.00954069
0.00949057
0.009439
0.009386
0.00933159
0.00927579
0.0092186
0.00916006
0.00910016
0.00903894
0.0089764
0.00891256
0.00884745
0.00878107
0.00871345
0.0086446
0.00857454
0.00850329
0.00843087
0.00835729
0.00828258
0.00820674
0.00812981
0.0080518
0.00797272
0.00789261
0.00781146
0.00772931
0.00764618
0.00756208
0.00747702
0.00739104
0.00730415
0.00721637
0.00712771
0.0070382
0.00694786
0.0068567
0.00676474
0.006672
0.00657851
0.00648427
0.00638931
0.00629364
0.00619729
0.00610027
0.0060026
0.0059043
0.00580538
0.00570586
0.00560576
0.00550509
0.00540388
0.00530214
0.00519988
0.00509713
0.00499389
0.00489018
0.00478603
0.00468143
0.00457641
0.00447099
0.00436517
0.00425897
0.00415241
0.0040455
0.00393825
0.00383067
0.00372278
0.00361459
0.00350611
0.00339735
0.00328833
0.00317906
0.00306954
0.0029598
0.00284983
0.00273966
0.00262928
0.00251872
0.00240798
0.00229706
0.00218599
0.00207476
0.00196339
0.00185189
0.00174027
0.00162852
0.00151667
0.00140472
0.00129268
0.00118055
0.00106834
0.000956068
0.000843732
0.000731343
0.000618907
0.000506432
0.000393925
0.000281392
0.000168843
5.6282e-05
7.70972e-05
0.000231287
0.000385461
0.00053961
0.000693723
0.000847791
0.0010018
0.00115575
0.00130962
0.0014634
0.00161708
0.00177065
0.0019241
0.00207742
0.00223059
0.00238361
0.00253645
0.00268912
0.00284159
0.00299385
0.00314589
0.00329769
0.00344924
0.00360053
0.00375153
0.00390224
0.00405263
0.0042027
0.00435242
0.00450177
0.00465074
0.0047993
0.00494745
0.00509516
0.0052424
0.00538917
0.00553543
0.00568116
0.00582635
0.00597097
0.006115
0.00625841
0.00640118
0.00654329
0.0066847
0.0068254
0.00696535
0.00710453
0.00724292
0.00738048
0.00751719
0.00765301
0.00778793
0.0079219
0.0080549
0.00818691
0.00831788
0.00844779
0.00857661
0.00870431
0.00883085
0.00895621
0.00908034
0.00920323
0.00932484
0.00944513
0.00956408
0.00968165
0.00979781
0.00991253
0.0100258
0.0101375
0.0102477
0.0103563
0.0104634
0.0105688
0.0106725
0.0107746
0.0108749
0.0109735
0.0110703
0.0111653
0.0112585
0.0113498
0.0114392
0.0115267
0.0116122
0.0116958
0.0117774
0.011857
0.0119346
0.0120101
0.0120835
0.0121549
0.0122241
0.0122911
0.0123561
0.0124188
0.0124794
0.0125378
0.0125939
0.0126478
0.0126995
0.0127489
0.0127961
0.012841
0.0128836
0.0129239
0.012962
0.0129977
0.0130311
0.0130622
0.013091
0.0131174
0.0131416
0.0131634
0.0131829
0.0132001
0.013215
0.0132275
0.0132378
0.0132457
0.0132513
0.0132546
0.0132556
0.0132544
0.0132508
0.013245
0.0132369
0.0132265
0.0132139
0.0131991
0.013182
0.0131627
0.0131412
0.0131175
0.0130916
0.0130636
0.0130334
0.013001
0.0129666
0.01293
0.0128913
0.0128505
0.0128077
0.0127628
0.0127158
0.0126669
0.0126159
0.012563
0.0125081
0.0124512
0.0123924
0.0123317
0.0122691
0.0122046
0.0121383
0.0120701
0.0120002
0.0119284
0.0118548
0.0117795
0.0117025
0.0116237
0.0115433
0.0114612
0.0113775
0.0112921
0.0112051
0.0111166
0.0110264
0.0109348
0.0108417
0.010747
0.0106509
0.0105534
0.0104545
0.0103541
0.0102524
0.0101494
0.010045
0.00993938
0.00983246
0.0097243
0.00961491
0.00950433
0.00939258
0.00927968
0.00916566
0.00905055
0.00893436
0.00881712
0.00869886
0.00857959
0.00845935
0.00833816
0.00821603
0.008093
0.00796909
0.00784432
0.00771871
0.00759229
0.00746508
0.0073371
0.00720837
0.00707892
0.00694876
0.00681792
0.00668642
0.00655428
0.00642152
0.00628815
0.00615421
0.00601971
0.00588466
0.00574909
0.00561301
0.00547645
0.00533942
0.00520194
0.00506402
0.00492568
0.00478694
0.00464782
0.00450832
0.00436848
0.00422829
0.00408778
0.00394695
0.00380583
0.00366443
0.00352276
0.00338083
0.00323866
0.00309626
0.00295364
0.00281082
0.0026678
0.00252459
0.00238122
0.00223769
0.002094
0.00195018
0.00180623
0.00166216
0.00151798
0.0013737
0.00122934
0.00108489
0.000940378
0.000795805
0.000651182
0.000506517
0.000361821
0.000217102
7.23687e-05
9.42402e-05
0.000282714
0.00047117
0.000659595
0.000847977
0.0010363
0.00122456
0.00141274
0.00160082
0.0017888
0.00197665
0.00216438
0.00235195
0.00253936
0.0027266
0.00291364
0.00310048
0.0032871
0.00347348
0.0036596
0.00384546
0.00403102
0.00421628
0.00440122
0.00458581
0.00477004
0.00495389
0.00513734
0.00532036
0.00550294
0.00568505
0.00586667
0.00604778
0.00622835
0.00640836
0.00658778
0.00676659
0.00694476
0.00712226
0.00729907
0.00747515
0.00765048
0.00782503
0.00799876
0.00817165
0.00834367
0.00851478
0.00868495
0.00885414
0.00902233
0.00918947
0.00935554
0.00952049
0.0096843
0.00984692
0.0100083
0.0101685
0.0103273
0.0104848
0.010641
0.0107957
0.010949
0.0111007
0.011251
0.0113997
0.0115468
0.0116922
0.011836
0.011978
0.0121183
0.0122568
0.0123934
0.0125282
0.012661
0.0127919
0.0129208
0.0130476
0.0131724
0.0132951
0.0134157
0.0135341
0.0136502
0.0137641
0.0138758
0.0139851
0.0140921
0.0141967
0.014299
0.0143988
0.0144961
0.0145909
0.0146833
0.014773
0.0148603
0.0149449
0.0150269
0.0151063
0.015183
0.0152571
0.0153284
0.0153971
0.015463
0.0155262
0.0155866
0.0156443
0.0156992
0.0157513
0.0158006
0.0158471
0.0158907
0.0159316
0.0159696
0.0160048
0.0160372
0.0160667
0.0160934
0.0161172
0.0161382
0.0161564
0.0161717
0.0161842
0.0161939
0.0162007
0.0162048
0.016206
0.0162044
0.0162001
0.0161929
0.016183
0.0161703
0.0161549
0.0161367
0.0161159
0.0160923
0.016066
0.016037
0.0160053
0.015971
0.0159341
0.0158945
0.0158523
0.0158076
0.0157603
0.0157104
0.015658
0.0156031
0.0155457
0.0154858
0.0154235
0.0153588
0.0152916
0.0152221
0.0151502
0.0150759
0.0149994
0.0149205
0.0148394
0.0147561
0.0146705
0.0145827
0.0144928
0.0144007
0.0143065
0.0142102
0.0141119
0.0140115
0.0139091
0.0138047
0.0136983
0.0135901
0.0134799
0.0133678
0.0132539
0.0131382
0.0130207
0.0129015
0.0127805
0.0126578
0.0125335
0.0124075
0.0122799
0.0121507
0.01202
0.0118877
0.011754
0.0116188
0.0114822
0.0113441
0.0112047
0.011064
0.0109219
0.0107786
0.010634
0.0104882
0.0103411
0.010193
0.0100437
0.00989325
0.00974175
0.00958921
0.00943564
0.00928108
0.00912555
0.00896909
0.00881171
0.00865344
0.00849432
0.00833436
0.0081736
0.00801205
0.00784974
0.0076867
0.00752296
0.00735852
0.00719343
0.00702769
0.00686134
0.0066944
0.00652688
0.00635881
0.00619021
0.00602109
0.00585149
0.00568142
0.0055109
0.00533994
0.00516857
0.0049968
0.00482466
0.00465215
0.0044793
0.00430612
0.00413262
0.00395883
0.00378476
0.00361043
0.00343584
0.00326101
0.00308596
0.00291071
0.00273525
0.00255962
0.00238381
0.00220785
0.00203174
0.00185551
0.00167915
0.00150268
0.00132612
0.00114947
0.000972754
0.000795973
0.000619142
0.000442272
0.000265374
8.84599e-05
0.000111389
0.000334161
0.000556911
0.000779624
0.00100229
0.00122488
0.0014474
0.00166982
0.00189213
0.00211432
0.00233636
0.00255825
0.00277996
0.00300148
0.0032228
0.00344389
0.00366473
0.00388532
0.00410562
0.00432563
0.00454531
0.00476466
0.00498365
0.00520225
0.00542046
0.00563823
0.00585556
0.00607241
0.00628876
0.00650458
0.00671986
0.00693456
0.00714865
0.00736211
0.00757491
0.00778701
0.0079984
0.00820902
0.00841886
0.00862788
0.00883605
0.00904333
0.00924968
0.00945508
0.00965948
0.00986285
0.0100651
0.0102663
0.0104664
0.0106652
0.0108628
0.0110592
0.0112542
0.0114479
0.0116402
0.011831
0.0120203
0.0122082
0.0123944
0.012579
0.012762
0.0129432
0.0131227
0.0133003
0.0134762
0.0136501
0.0138221
0.0139921
0.01416
0.0143259
0.0144896
0.0146512
0.0148106
0.0149676
0.0151224
0.0152748
0.0154248
0.0155724
0.0157175
0.01586
0.016
0.0161374
0.0162721
0.0164041
0.0165334
0.0166599
0.0167836
0.0169045
0.0170225
0.0171376
0.0172498
0.0173589
0.0174651
0.0175682
0.0176683
0.0177653
0.0178592
0.0179499
0.0180374
0.0181218
0.018203
0.018281
0.0183557
0.0184271
0.0184953
0.0185602
0.0186218
0.0186801
0.018735
0.0187866
0.0188349
0.0188799
0.0189215
0.0189597
0.0189946
0.0190261
0.0190543
0.0190791
0.0191006
0.0191187
0.0191334
0.0191449
0.019153
0.0191577
0.0191592
0.0191573
0.0191521
0.0191436
0.0191319
0.0191169
0.0190986
0.0190771
0.0190524
0.0190245
0.0189934
0.0189591
0.0189216
0.0188811
0.0188374
0.0187906
0.0187407
0.0186877
0.0186318
0.0185728
0.0185108
0.0184459
0.018378
0.0183072
0.0182335
0.0181569
0.0180775
0.0179953
0.0179103
0.0178225
0.017732
0.0176387
0.0175428
0.0174443
0.0173431
0.0172393
0.0171329
0.017024
0.0169127
0.0167988
0.0166825
0.0165638
0.0164427
0.0163193
0.0161935
0.0160655
0.0159352
0.0158027
0.015668
0.0155312
0.0153923
0.0152513
0.0151083
0.0149632
0.0148162
0.0146672
0.0145163
0.0143636
0.014209
0.0140527
0.0138945
0.0137347
0.0135731
0.0134099
0.0132451
0.0130787
0.0129107
0.0127413
0.0125703
0.0123979
0.0122241
0.0120489
0.0118724
0.0116946
0.0115155
0.0113351
0.0111536
0.0109708
0.010787
0.010602
0.0104159
0.0102288
0.0100407
0.00985161
0.00966156
0.00947058
0.0092787
0.00908596
0.00889239
0.008698
0.00850284
0.00830691
0.00811026
0.00791291
0.00771489
0.00751621
0.0073169
0.007117
0.00691651
0.00671547
0.0065139
0.00631182
0.00610925
0.00590621
0.00570272
0.00549881
0.00529449
0.00508979
0.00488471
0.00467929
0.00447353
0.00426746
0.0040611
0.00385445
0.00364754
0.00344039
0.003233
0.0030254
0.0028176
0.00260962
0.00240146
0.00219315
0.0019847
0.00177612
0.00156743
0.00135864
0.00114976
0.000940814
0.000731805
0.000522751
0.000313663
0.000104557
0.000128546
0.000385629
0.000642687
0.000899704
0.00115666
0.00141355
0.00167034
0.00192702
0.00218357
0.00243998
0.00269623
0.0029523
0.00320816
0.00346381
0.00371922
0.00397437
0.00422924
0.00448381
0.00473807
0.00499197
0.00524551
0.00549866
0.0057514
0.00600369
0.00625553
0.00650687
0.00675769
0.00700797
0.00725768
0.00750678
0.00775525
0.00800305
0.00825016
0.00849654
0.00874215
0.00898697
0.00923096
0.00947407
0.00971629
0.00995755
0.0101978
0.0104371
0.0106753
0.0109124
0.0111483
0.0113831
0.0116166
0.0118489
0.0120798
0.0123093
0.0125375
0.0127641
0.0129893
0.0132129
0.0134348
0.0136552
0.0138737
0.0140906
0.0143056
0.0145187
0.01473
0.0149392
0.0151464
0.0153515
0.0155545
0.0157553
0.0159539
0.0161502
0.0163441
0.0165356
0.0167247
0.0169112
0.0170952
0.0172766
0.0174553
0.0176312
0.0178045
0.0179748
0.0181424
0.018307
0.0184686
0.0186272
0.0187827
0.0189352
0.0190845
0.0192305
0.0193734
0.019513
0.0196492
0.0197821
0.0199116
0.0200376
0.0201602
0.0202793
0.0203948
0.0205068
0.0206152
0.0207199
0.020821
0.0209184
0.0210121
0.0211021
0.0211884
0.0212709
0.0213496
0.0214245
0.0214956
0.0215629
0.0216263
0.0216859
0.0217416
0.0217935
0.0218415
0.0218856
0.0219259
0.0219623
0.0219948
0.0220234
0.0220481
0.022069
0.022086
0.0220992
0.0221085
0.022114
0.0221156
0.0221134
0.0221074
0.0220976
0.0220841
0.0220667
0.0220456
0.0220208
0.0219922
0.0219599
0.021924
0.0218844
0.0218411
0.0217942
0.0217437
0.0216897
0.0216321
0.021571
0.0215063
0.0214382
0.0213666
0.0212916
0.0212133
0.0211315
0.0210464
0.020958
0.0208663
0.0207713
0.0206731
0.0205718
0.0204673
0.0203596
0.0202489
0.020135
0.0200182
0.0198984
0.0197756
0.0196499
0.0195213
0.0193898
0.0192555
0.0191185
0.0189786
0.0188361
0.018691
0.0185431
0.0183927
0.0182398
0.0180843
0.0179263
0.0177659
0.0176032
0.017438
0.0172705
0.0171008
0.0169288
0.0167547
0.0165783
0.0163999
0.0162194
0.0160368
0.0158523
0.0156658
0.0154774
0.0152871
0.015095
0.0149011
0.0147054
0.0145081
0.0143091
0.0141084
0.0139062
0.0137024
0.0134972
0.0132904
0.0130822
0.0128727
0.0126617
0.0124495
0.012236
0.0120212
0.0118052
0.0115881
0.0113698
0.0111504
0.01093
0.0107085
0.0104861
0.0102626
0.0100383
0.009813
0.00958686
0.00935989
0.00913211
0.00890355
0.00867424
0.00844421
0.00821348
0.00798209
0.00775006
0.00751742
0.00728419
0.00705039
0.00681606
0.00658121
0.00634588
0.00611007
0.00587382
0.00563715
0.00540007
0.00516261
0.0049248
0.00468664
0.00444815
0.00420937
0.0039703
0.00373097
0.00349139
0.00325158
0.00301156
0.00277134
0.00253094
0.00229038
0.00204968
0.00180884
0.00156789
0.00132685
0.00108571
0.000844515
0.000603262
0.000361972
0.00012066
0.00014571
0.000437122
0.000728505
0.00101984
0.00131111
0.0016023
0.00189338
0.00218434
0.00247516
0.00276581
0.00305628
0.00334654
0.00363658
0.00392638
0.0042159
0.00450514
0.00479405
0.00508264
0.00537085
0.00565868
0.0059461
0.00623307
0.00651958
0.0068056
0.00709109
0.00737602
0.00766037
0.00794411
0.0082272
0.0085096
0.0087913
0.00907224
0.00935239
0.00963172
0.00991019
0.0101878
0.0104644
0.01074
0.0110147
0.0112882
0.0115607
0.0118319
0.012102
0.0123709
0.0126384
0.0129046
0.0131694
0.0134327
0.0136946
0.0139549
0.0142136
0.0144706
0.0147259
0.0149795
0.0152312
0.015481
0.0157289
0.0159748
0.0162187
0.0164604
0.0166999
0.0169372
0.0171722
0.0174049
0.0176351
0.0178628
0.018088
0.0183106
0.0185306
0.0187478
0.0189622
0.0191738
0.0193825
0.0195882
0.0197909
0.0199905
0.0201869
0.0203802
0.0205702
0.0207568
0.0209402
0.0211201
0.0212965
0.0214694
0.0216387
0.0218044
0.0219664
0.0221247
0.0222792
0.02243
0.0225768
0.0227198
0.0228588
0.0229939
0.0231249
0.0232519
0.0233748
0.0234936
0.0236082
0.0237187
0.023825
0.0239271
0.0240249
0.0241184
0.0242076
0.0242926
0.0243732
0.0244495
0.0245214
0.024589
0.0246522
0.024711
0.0247654
0.0248154
0.024861
0.0249023
0.0249391
0.0249715
0.0249996
0.0250232
0.0250425
0.0250574
0.0250679
0.0250741
0.0250759
0.0250734
0.0250666
0.0250554
0.02504
0.0250203
0.0249963
0.0249681
0.0249357
0.024899
0.0248582
0.0248133
0.0247642
0.024711
0.0246537
0.0245924
0.024527
0.0244577
0.0243843
0.0243071
0.0242259
0.0241408
0.0240519
0.0239591
0.0238626
0.0237623
0.0236583
0.0235506
0.0234392
0.0233242
0.0232057
0.0230836
0.0229579
0.0228289
0.0226963
0.0225604
0.0224212
0.0222786
0.0221327
0.0219836
0.0218313
0.0216759
0.0215173
0.0213557
0.021191
0.0210234
0.0208528
0.0206793
0.020503
0.0203239
0.020142
0.0199574
0.0197701
0.0195802
0.0193877
0.0191926
0.0189951
0.0187952
0.0185928
0.0183881
0.0181811
0.0179718
0.0177603
0.0175467
0.0173309
0.017113
0.0168932
0.0166713
0.0164475
0.0162219
0.0159944
0.0157651
0.015534
0.0153012
0.0150668
0.0148307
0.0145931
0.0143539
0.0141133
0.0138712
0.0136277
0.0133828
0.0131366
0.0128891
0.0126404
0.0123905
0.0121394
0.0118871
0.0116338
0.0113794
0.011124
0.0108676
0.0106103
0.0103521
0.010093
0.00983299
0.0095722
0.00931063
0.00904831
0.00878526
0.00852152
0.00825711
0.00799207
0.00772643
0.0074602
0.00719341
0.0069261
0.00665828
0.00638999
0.00612124
0.00585206
0.00558247
0.0053125
0.00504216
0.00477148
0.00450048
0.00422918
0.00395761
0.00368577
0.00341369
0.00314139
0.00286889
0.00259621
0.00232336
0.00205037
0.00177725
0.00150401
0.00123068
0.000957277
0.000683811
0.000410304
0.000136771
0.000162884
0.000488643
0.00081437
0.00114005
0.00146565
0.00179116
0.00211655
0.00244181
0.0027669
0.00309182
0.00341653
0.00374102
0.00406525
0.00438921
0.00471288
0.00503622
0.00535921
0.00568182
0.00600403
0.00632581
0.00664713
0.00696796
0.00728827
0.00760803
0.0079272
0.00824576
0.00856367
0.0088809
0.0091974
0.00951315
0.0098281
0.0101422
0.0104554
0.0107678
0.0110791
0.0113895
0.0116988
0.012007
0.0123141
0.01262
0.0129246
0.013228
0.01353
0.0138306
0.0141298
0.0144275
0.0147236
0.0150181
0.0153109
0.015602
0.0158913
0.0161788
0.0164643
0.0167479
0.0170294
0.0173088
0.0175861
0.0178611
0.0181338
0.0184042
0.0186721
0.0189375
0.0192004
0.0194606
0.0197181
0.0199729
0.0202248
0.0204738
0.0207198
0.0209628
0.0212026
0.0214393
0.0216727
0.0219028
0.0221295
0.0223528
0.0225726
0.0227887
0.0230013
0.0232101
0.0234152
0.0236164
0.0238138
0.0240072
0.0241966
0.0243819
0.0245632
0.0247402
0.0249131
0.0250817
0.025246
0.0254059
0.0255614
0.0257125
0.025859
0.0260011
0.0261385
0.0262714
0.0263997
0.0265232
0.0266421
0.0267562
0.0268656
0.0269702
0.02707
0.027165
0.0272552
0.0273405
0.0274209
0.0274964
0.0275671
0.0276328
0.0276937
0.0277496
0.0278006
0.0278467
0.0278878
0.0279241
0.0279554
0.0279818
0.0280033
0.02802
0.0280317
0.0280386
0.0280405
0.0280377
0.02803
0.0280175
0.0280002
0.0279781
0.0279512
0.0279196
0.0278833
0.0278423
0.0277966
0.0277463
0.0276914
0.0276318
0.0275677
0.0274991
0.027426
0.0273484
0.0272663
0.0271798
0.027089
0.0269938
0.0268943
0.0267905
0.0266825
0.0265703
0.026454
0.0263335
0.0262089
0.0260803
0.0259476
0.025811
0.0256705
0.0255261
0.0253779
0.0252258
0.0250701
0.0249106
0.0247474
0.0245806
0.0244103
0.0242364
0.024059
0.0238783
0.0236941
0.0235066
0.0233158
0.0231218
0.0229245
0.0227242
0.0225207
0.0223143
0.0221048
0.0218924
0.0216771
0.0214589
0.021238
0.0210144
0.0207881
0.0205591
0.0203276
0.0200935
0.019857
0.0196181
0.0193768
0.0191331
0.0188872
0.0186391
0.0183889
0.0181365
0.0178821
0.0176256
0.0173673
0.017107
0.0168448
0.0165808
0.0163151
0.0160476
0.0157785
0.0155078
0.0152355
0.0149617
0.0146864
0.0144097
0.0141315
0.0138521
0.0135713
0.0132893
0.013006
0.0127216
0.012436
0.0121494
0.0118617
0.0115729
0.0112832
0.0109926
0.010701
0.0104085
0.0101152
0.00982115
0.00952629
0.00923068
0.00893437
0.00863737
0.00833973
0.00804148
0.00774263
0.00744322
0.00714328
0.00684284
0.00654191
0.00624053
0.00593872
0.0056365
0.00533391
0.00503096
0.00472768
0.00442408
0.0041202
0.00381605
0.00351165
0.00320703
0.0029022
0.0025972
0.00229203
0.00198671
0.00168127
0.00137573
0.0010701
0.000764403
0.000458661
0.00015289
0.000180069
0.000540195
0.000900288
0.00126032
0.00162028
0.00198013
0.00233986
0.00269943
0.00305883
0.00341803
0.00377701
0.00413574
0.0044942
0.00485235
0.00521018
0.00556765
0.00592473
0.00628141
0.00663764
0.00699339
0.00734864
0.00770336
0.0080575
0.00841104
0.00876393
0.00911615
0.00946766
0.00981841
0.0101684
0.0105175
0.0108657
0.0112131
0.0115594
0.0119048
0.0122491
0.0125923
0.0129343
0.0132751
0.0136147
0.013953
0.0142899
0.0146254
0.0149594
0.0152918
0.0156227
0.0159519
0.0162794
0.0166051
0.016929
0.017251
0.0175709
0.0178889
0.0182047
0.0185184
0.0188298
0.0191388
0.0194455
0.0197497
0.0200514
0.0203505
0.0206468
0.0209404
0.0212312
0.0215191
0.021804
0.0220858
0.0223644
0.0226399
0.022912
0.0231808
0.0234462
0.023708
0.0239663
0.0242208
0.0244716
0.0247187
0.0249618
0.025201
0.0254361
0.0256671
0.025894
0.0261167
0.026335
0.026549
0.0267585
0.0269636
0.0271641
0.02736
0.0275512
0.0277377
0.0279195
0.0280964
0.0282684
0.0284355
0.0285977
0.0287548
0.0289069
0.0290539
0.0291957
0.0293324
0.0294639
0.0295902
0.0297111
0.0298268
0.0299372
0.0300423
0.030142
0.0302363
0.0303253
0.0304088
0.0304869
0.0305596
0.0306269
0.0306887
0.0307451
0.030796
0.0308415
0.0308815
0.0309161
0.0309453
0.0309691
0.0309874
0.0310003
0.0310079
0.03101
0.0310068
0.0309983
0.0309844
0.0309652
0.0309407
0.0309109
0.0308759
0.0308357
0.0307903
0.0307397
0.030684
0.0306232
0.0305573
0.0304863
0.0304103
0.0303294
0.0302435
0.0301527
0.030057
0.0299564
0.0298511
0.029741
0.0296262
0.0295067
0.0293825
0.0292538
0.0291204
0.0289826
0.0288403
0.0286936
0.0285424
0.028387
0.0282272
0.0280632
0.027895
0.0277227
0.0275462
0.0273657
0.0271812
0.0269928
0.0268004
0.0266042
0.0264042
0.0262005
0.0259931
0.025782
0.0255674
0.0253492
0.0251276
0.0249025
0.0246741
0.0244424
0.0242075
0.0239693
0.023728
0.0234837
0.0232363
0.022986
0.0227327
0.0224766
0.0222177
0.0219561
0.0216918
0.0214249
0.0211555
0.0208835
0.0206091
0.0203323
0.0200532
0.0197718
0.0194882
0.0192024
0.0189145
0.0186246
0.0183327
0.0180388
0.017743
0.0174454
0.017146