/*--------------------------------*- C++ -*----------------------------------*\
| =========                 |                                                 |
| \\      /  F ield         | OpenFOAM: The Open Source CFD Toolbox           |
|  \\    /   O peration     | Version:  v2012                                 |
|   \\  /    A nd           | Website:  www.openfoam.com                      |
|    \\/     M anipulation  |                                                 |
\*---------------------------------------------------------------------------*/
FoamFile
{
    version     2.0;
    format      ascii;
    class       volVectorField;
    location    "1.5";
    object      U;
}
// * * * * * * * * * * * * * * * * * * * * * * * * * * * * * * * * * * * * * //

dimensions      [0 1 -1 0 0 0 0];


internalField   nonuniform List<vector> 
65536
(
(0.000697765 -0.000697743 0)
(0.00209325 -0.000697696 0)
(0.00348859 -0.000697604 0)
(0.00488371 -0.000697466 0)
(0.0062785 -0.000697281 0)
(0.00767288 -0.000697049 0)
(0.00906674 -0.00069677 0)
(0.01046 -0.000696442 0)
(0.0118526 -0.000696066 0)
(0.0132443 -0.000695641 0)
(0.0146352 -0.000695165 0)
(0.016025 -0.000694639 0)
(0.0174138 -0.00069406 0)
(0.0188013 -0.000693427 0)
(0.0201875 -0.00069274 0)
(0.0215723 -0.000691997 0)
(0.0229556 -0.000691197 0)
(0.0243372 -0.000690339 0)
(0.025717 -0.00068942 0)
(0.0270949 -0.00068844 0)
(0.0284708 -0.000687396 0)
(0.0298446 -0.000686286 0)
(0.031216 -0.00068511 0)
(0.0325851 -0.000683866 0)
(0.0339516 -0.00068255 0)
(0.0353153 -0.000681162 0)
(0.0366763 -0.000679698 0)
(0.0380342 -0.000678158 0)
(0.039389 -0.000676539 0)
(0.0407405 -0.000674839 0)
(0.0420884 -0.000673056 0)
(0.0434328 -0.000671187 0)
(0.0447733 -0.000669229 0)
(0.0461098 -0.000667182 0)
(0.0474421 -0.000665042 0)
(0.04877 -0.000662807 0)
(0.0500934 -0.000660475 0)
(0.051412 -0.000658044 0)
(0.0527257 -0.00065551 0)
(0.0540342 -0.000652873 0)
(0.0553373 -0.000650128 0)
(0.0566348 -0.000647275 0)
(0.0579265 -0.00064431 0)
(0.0592122 -0.000641232 0)
(0.0604915 -0.000638038 0)
(0.0617644 -0.000634727 0)
(0.0630306 -0.000631295 0)
(0.0642897 -0.000627741 0)
(0.0655417 -0.000624063 0)
(0.0667861 -0.000620259 0)
(0.0680228 -0.000616326 0)
(0.0692515 -0.000612264 0)
(0.070472 -0.00060807 0)
(0.0716839 -0.000603743 0)
(0.0728871 -0.000599281 0)
(0.0740812 -0.000594682 0)
(0.075266 -0.000589946 0)
(0.0764411 -0.000585071 0)
(0.0776064 -0.000580056 0)
(0.0787615 -0.0005749 0)
(0.0799061 -0.000569602 0)
(0.08104 -0.000564161 0)
(0.0821629 -0.000558577 0)
(0.0832745 -0.000552849 0)
(0.0843745 -0.000546977 0)
(0.0854625 -0.00054096 0)
(0.0865385 -0.000534799 0)
(0.0876019 -0.000528494 0)
(0.0886526 -0.000522045 0)
(0.0896902 -0.000515452 0)
(0.0907145 -0.000508715 0)
(0.0917252 -0.000501837 0)
(0.092722 -0.000494817 0)
(0.0937046 -0.000487656 0)
(0.0946728 -0.000480356 0)
(0.0956262 -0.000472918 0)
(0.0965646 -0.000465344 0)
(0.0974877 -0.000457635 0)
(0.0983953 -0.000449793 0)
(0.099287 -0.000441821 0)
(0.100163 -0.000433719 0)
(0.101022 -0.000425491 0)
(0.101865 -0.000417139 0)
(0.102691 -0.000408665 0)
(0.1035 -0.000400073 0)
(0.104291 -0.000391364 0)
(0.105065 -0.000382543 0)
(0.105821 -0.000373611 0)
(0.10656 -0.000364573 0)
(0.10728 -0.000355431 0)
(0.107981 -0.000346189 0)
(0.108665 -0.00033685 0)
(0.109329 -0.000327419 0)
(0.109974 -0.000317898 0)
(0.110601 -0.000308291 0)
(0.111208 -0.000298602 0)
(0.111795 -0.000288835 0)
(0.112363 -0.000278995 0)
(0.112911 -0.000269084 0)
(0.113439 -0.000259107 0)
(0.113948 -0.000249067 0)
(0.114436 -0.00023897 0)
(0.114904 -0.000228819 0)
(0.115351 -0.000218617 0)
(0.115778 -0.00020837 0)
(0.116185 -0.00019808 0)
(0.11657 -0.000187753 0)
(0.116936 -0.000177392 0)
(0.11728 -0.000167001 0)
(0.117604 -0.000156585 0)
(0.117906 -0.000146146 0)
(0.118188 -0.000135689 0)
(0.118449 -0.000125218 0)
(0.118689 -0.000114736 0)
(0.118908 -0.000104247 0)
(0.119106 -9.37557e-05 0)
(0.119283 -8.32643e-05 0)
(0.119439 -7.27769e-05 0)
(0.119574 -6.22968e-05 0)
(0.119688 -5.18275e-05 0)
(0.119782 -4.13722e-05 0)
(0.119854 -3.09341e-05 0)
(0.119905 -2.05164e-05 0)
(0.119936 -1.01222e-05 0)
(0.119946 2.45668e-07 0)
(0.119935 1.05842e-05 0)
(0.119903 2.08906e-05 0)
(0.119851 3.11621e-05 0)
(0.119779 4.1396e-05 0)
(0.119686 5.15898e-05 0)
(0.119572 6.1741e-05 0)
(0.119439 7.1847e-05 0)
(0.119285 8.19056e-05 0)
(0.119111 9.19145e-05 0)
(0.118917 0.000101871 0)
(0.118703 0.000111774 0)
(0.11847 0.00012162 0)
(0.118217 0.000131409 0)
(0.117944 0.000141136 0)
(0.117652 0.000150802 0)
(0.117341 0.000160403 0)
(0.117011 0.000169939 0)
(0.116661 0.000179407 0)
(0.116293 0.000188805 0)
(0.115906 0.000198132 0)
(0.1155 0.000207387 0)
(0.115076 0.000216567 0)
(0.114634 0.000225671 0)
(0.114174 0.000234698 0)
(0.113695 0.000243645 0)
(0.113199 0.000252512 0)
(0.112685 0.000261297 0)
(0.112154 0.000269999 0)
(0.111605 0.000278615 0)
(0.111039 0.000287146 0)
(0.110456 0.000295589 0)
(0.109857 0.000303944 0)
(0.10924 0.000312208 0)
(0.108608 0.000320381 0)
(0.107959 0.000328462 0)
(0.107294 0.000336448 0)
(0.106613 0.00034434 0)
(0.105916 0.000352136 0)
(0.105204 0.000359834 0)
(0.104477 0.000367435 0)
(0.103734 0.000374936 0)
(0.102977 0.000382336 0)
(0.102205 0.000389636 0)
(0.101418 0.000396833 0)
(0.100618 0.000403927 0)
(0.0998026 0.000410917 0)
(0.0989738 0.000417802 0)
(0.0981313 0.000424582 0)
(0.0972754 0.000431256 0)
(0.0964062 0.000437822 0)
(0.095524 0.000444281 0)
(0.0946289 0.000450632 0)
(0.0937213 0.000456874 0)
(0.0928013 0.000463007 0)
(0.0918692 0.000469031 0)
(0.0909251 0.000474944 0)
(0.0899693 0.000480748 0)
(0.089002 0.000486441 0)
(0.0880234 0.000492023 0)
(0.0870338 0.000497495 0)
(0.0860333 0.000502857 0)
(0.0850223 0.000508108 0)
(0.0840008 0.000513248 0)
(0.0829692 0.000518278 0)
(0.0819276 0.000523197 0)
(0.0808763 0.000528007 0)
(0.0798154 0.000532708 0)
(0.0787453 0.000537299 0)
(0.0776661 0.000541782 0)
(0.0765781 0.000546157 0)
(0.0754814 0.000550425 0)
(0.0743763 0.000554586 0)
(0.073263 0.000558641 0)
(0.0721416 0.000562591 0)
(0.0710125 0.000566437 0)
(0.0698758 0.000570179 0)
(0.0687317 0.00057382 0)
(0.0675804 0.000577358 0)
(0.0664221 0.000580797 0)
(0.0652571 0.000584137 0)
(0.0640855 0.000587379 0)
(0.0629075 0.000590524 0)
(0.0617233 0.000593573 0)
(0.0605331 0.000596529 0)
(0.0593371 0.000599392 0)
(0.0581354 0.000602163 0)
(0.0569283 0.000604844 0)
(0.055716 0.000607437 0)
(0.0544985 0.000609943 0)
(0.0532761 0.000612363 0)
(0.052049 0.000614699 0)
(0.0508172 0.000616952 0)
(0.0495811 0.000619124 0)
(0.0483407 0.000621216 0)
(0.0470961 0.000623231 0)
(0.0458477 0.000625168 0)
(0.0445954 0.000627031 0)
(0.0433395 0.00062882 0)
(0.04208 0.000630537 0)
(0.0408172 0.000632184 0)
(0.0395512 0.000633762 0)
(0.0382821 0.000635272 0)
(0.0370101 0.000636717 0)
(0.0357352 0.000638096 0)
(0.0344576 0.000639413 0)
(0.0331775 0.000640667 0)
(0.0318949 0.000641862 0)
(0.03061 0.000642997 0)
(0.0293228 0.000644074 0)
(0.0280336 0.000645095 0)
(0.0267424 0.000646061 0)
(0.0254493 0.000646972 0)
(0.0241545 0.000647831 0)
(0.0228579 0.000648637 0)
(0.0215599 0.000649393 0)
(0.0202603 0.000650099 0)
(0.0189594 0.000650756 0)
(0.0176572 0.000651365 0)
(0.0163539 0.000651927 0)
(0.0150495 0.000652443 0)
(0.0137441 0.000652913 0)
(0.0124378 0.000653338 0)
(0.0111307 0.000653719 0)
(0.00982287 0.000654056 0)
(0.00851442 0.00065435 0)
(0.00720542 0.000654601 0)
(0.00589597 0.00065481 0)
(0.00458614 0.000654976 0)
(0.00327602 0.000655101 0)
(0.0019657 0.000655184 0)
(0.000655246 0.000655225 0)
(0.00069781 -0.00209327 0)
(0.00209339 -0.00209313 0)
(0.00348882 -0.00209286 0)
(0.00488403 -0.00209244 0)
(0.00627892 -0.00209189 0)
(0.00767339 -0.00209119 0)
(0.00906735 -0.00209036 0)
(0.0104607 -0.00208937 0)
(0.0118534 -0.00208825 0)
(0.0132452 -0.00208697 0)
(0.0146362 -0.00208555 0)
(0.0160261 -0.00208397 0)
(0.017415 -0.00208223 0)
(0.0188026 -0.00208033 0)
(0.020189 -0.00207827 0)
(0.0215739 -0.00207605 0)
(0.0229572 -0.00207365 0)
(0.0243389 -0.00207108 0)
(0.0257189 -0.00206832 0)
(0.0270969 -0.00206538 0)
(0.028473 -0.00206225 0)
(0.0298468 -0.00205893 0)
(0.0312184 -0.0020554 0)
(0.0325876 -0.00205167 0)
(0.0339542 -0.00204772 0)
(0.0353182 -0.00204356 0)
(0.0366793 -0.00203917 0)
(0.0380374 -0.00203455 0)
(0.0393923 -0.0020297 0)
(0.0407439 -0.0020246 0)
(0.0420921 -0.00201925 0)
(0.0434366 -0.00201365 0)
(0.0447772 -0.00200778 0)
(0.0461139 -0.00200164 0)
(0.0474464 -0.00199522 0)
(0.0487746 -0.00198852 0)
(0.0500982 -0.00198152 0)
(0.051417 -0.00197423 0)
(0.0527308 -0.00196663 0)
(0.0540395 -0.00195872 0)
(0.0553429 -0.00195049 0)
(0.0566406 -0.00194193 0)
(0.0579325 -0.00193304 0)
(0.0592184 -0.00192381 0)
(0.060498 -0.00191423 0)
(0.0617711 -0.0019043 0)
(0.0630375 -0.00189401 0)
(0.0642969 -0.00188335 0)
(0.0655491 -0.00187231 0)
(0.0667938 -0.0018609 0)
(0.0680308 -0.00184911 0)
(0.0692598 -0.00183692 0)
(0.0704805 -0.00182434 0)
(0.0716927 -0.00181136 0)
(0.0728961 -0.00179798 0)
(0.0740905 -0.00178418 0)
(0.0752755 -0.00176998 0)
(0.076451 -0.00175535 0)
(0.0776165 -0.00174031 0)
(0.0787719 -0.00172484 0)
(0.0799168 -0.00170895 0)
(0.081051 -0.00169263 0)
(0.0821742 -0.00167587 0)
(0.0832861 -0.00165869 0)
(0.0843863 -0.00164107 0)
(0.0854747 -0.00162303 0)
(0.0865509 -0.00160454 0)
(0.0876146 -0.00158563 0)
(0.0886656 -0.00156628 0)
(0.0897035 -0.0015465 0)
(0.0907281 -0.00152629 0)
(0.0917391 -0.00150565 0)
(0.0927362 -0.00148459 0)
(0.093719 -0.00146311 0)
(0.0946875 -0.00144121 0)
(0.0956412 -0.00141889 0)
(0.0965798 -0.00139617 0)
(0.0975032 -0.00137304 0)
(0.098411 -0.00134951 0)
(0.099303 -0.00132559 0)
(0.100179 -0.00130128 0)
(0.101039 -0.0012766 0)
(0.101882 -0.00125154 0)
(0.102708 -0.00122612 0)
(0.103517 -0.00120034 0)
(0.104309 -0.00117421 0)
(0.105083 -0.00114774 0)
(0.105839 -0.00112094 0)
(0.106578 -0.00109382 0)
(0.107298 -0.00106639 0)
(0.108 -0.00103866 0)
(0.108683 -0.00101064 0)
(0.109348 -0.000982346 0)
(0.109993 -0.000953779 0)
(0.11062 -0.000924955 0)
(0.111227 -0.000895885 0)
(0.111815 -0.000866581 0)
(0.112383 -0.000837055 0)
(0.112931 -0.000807318 0)
(0.113459 -0.000777383 0)
(0.113968 -0.000747261 0)
(0.114456 -0.000716965 0)
(0.114924 -0.000686507 0)
(0.115372 -0.000655899 0)
(0.115799 -0.000625152 0)
(0.116205 -0.000594281 0)
(0.116591 -0.000563295 0)
(0.116956 -0.000532208 0)
(0.117301 -0.000501032 0)
(0.117625 -0.000469777 0)
(0.117927 -0.000438457 0)
(0.118209 -0.000407083 0)
(0.11847 -0.000375665 0)
(0.11871 -0.000344216 0)
(0.118929 -0.000312747 0)
(0.119127 -0.000281268 0)
(0.119304 -0.000249791 0)
(0.11946 -0.000218325 0)
(0.119595 -0.000186881 0)
(0.119709 -0.00015547 0)
(0.119802 -0.000124101 0)
(0.119875 -9.27836e-05 0)
(0.119926 -6.15275e-05 0)
(0.119957 -3.03418e-05 0)
(0.119966 7.64626e-07 0)
(0.119956 3.1783e-05 0)
(0.119924 6.27049e-05 0)
(0.119872 9.3522e-05 0)
(0.119799 0.000124226 0)
(0.119706 0.00015481 0)
(0.119593 0.000185266 0)
(0.119459 0.000215587 0)
(0.119305 0.000245765 0)
(0.119131 0.000275794 0)
(0.118937 0.000305666 0)
(0.118723 0.000335377 0)
(0.11849 0.000364918 0)
(0.118236 0.000394284 0)
(0.117964 0.00042347 0)
(0.117672 0.000452468 0)
(0.11736 0.000481275 0)
(0.11703 0.000509883 0)
(0.11668 0.000538288 0)
(0.116312 0.000566485 0)
(0.115925 0.000594469 0)
(0.115519 0.000622234 0)
(0.115095 0.000649775 0)
(0.114652 0.000677089 0)
(0.114192 0.00070417 0)
(0.113713 0.000731014 0)
(0.113217 0.000757616 0)
(0.112703 0.000783973 0)
(0.112171 0.000810079 0)
(0.111622 0.000835931 0)
(0.111056 0.000861524 0)
(0.110473 0.000886855 0)
(0.109873 0.00091192 0)
(0.109257 0.000936714 0)
(0.108624 0.000961234 0)
(0.107975 0.000985477 0)
(0.10731 0.00100944 0)
(0.106629 0.00103311 0)
(0.105932 0.0010565 0)
(0.10522 0.0010796 0)
(0.104492 0.0011024 0)
(0.103749 0.00112491 0)
(0.102992 0.00114711 0)
(0.10222 0.00116901 0)
(0.101433 0.0011906 0)
(0.100632 0.00121188 0)
(0.0998165 0.00123286 0)
(0.0989875 0.00125351 0)
(0.0981448 0.00127385 0)
(0.0972886 0.00129387 0)
(0.0964192 0.00131357 0)
(0.0955368 0.00133295 0)
(0.0946416 0.001352 0)
(0.0937337 0.00137073 0)
(0.0928135 0.00138913 0)
(0.0918812 0.0014072 0)
(0.0909368 0.00142494 0)
(0.0899808 0.00144235 0)
(0.0890133 0.00145943 0)
(0.0880345 0.00147618 0)
(0.0870447 0.0014926 0)
(0.086044 0.00150868 0)
(0.0850327 0.00152443 0)
(0.084011 0.00153985 0)
(0.0829791 0.00155494 0)
(0.0819373 0.0015697 0)
(0.0808858 0.00158413 0)
(0.0798248 0.00159823 0)
(0.0787544 0.00161201 0)
(0.077675 0.00162545 0)
(0.0765868 0.00163858 0)
(0.0754899 0.00165138 0)
(0.0743845 0.00166386 0)
(0.073271 0.00167603 0)
(0.0721494 0.00168788 0)
(0.0710201 0.00169941 0)
(0.0698832 0.00171064 0)
(0.0687389 0.00172156 0)
(0.0675874 0.00173218 0)
(0.0664289 0.00174249 0)
(0.0652637 0.00175251 0)
(0.0640919 0.00176223 0)
(0.0629137 0.00177167 0)
(0.0617293 0.00178081 0)
(0.0605389 0.00178968 0)
(0.0593427 0.00179827 0)
(0.0581409 0.00180658 0)
(0.0569336 0.00181462 0)
(0.0557211 0.0018224 0)
(0.0545035 0.00182991 0)
(0.0532809 0.00183717 0)
(0.0520536 0.00184418 0)
(0.0508217 0.00185094 0)
(0.0495854 0.00185745 0)
(0.0483448 0.00186373 0)
(0.0471001 0.00186977 0)
(0.0458515 0.00187558 0)
(0.0445991 0.00188117 0)
(0.043343 0.00188653 0)
(0.0420834 0.00189168 0)
(0.0408205 0.00189662 0)
(0.0395543 0.00190135 0)
(0.0382851 0.00190588 0)
(0.0370129 0.00191022 0)
(0.0357379 0.00191435 0)
(0.0344602 0.0019183 0)
(0.0331799 0.00192206 0)
(0.0318972 0.00192565 0)
(0.0306122 0.00192905 0)
(0.029325 0.00193228 0)
(0.0280356 0.00193534 0)
(0.0267443 0.00193824 0)
(0.0254511 0.00194097 0)
(0.0241561 0.00194355 0)
(0.0228595 0.00194596 0)
(0.0215613 0.00194823 0)
(0.0202617 0.00195035 0)
(0.0189607 0.00195232 0)
(0.0176584 0.00195414 0)
(0.016355 0.00195583 0)
(0.0150505 0.00195738 0)
(0.013745 0.00195879 0)
(0.0124386 0.00196006 0)
(0.0111314 0.0019612 0)
(0.0098235 0.00196221 0)
(0.00851497 0.00196309 0)
(0.00720589 0.00196385 0)
(0.00589635 0.00196447 0)
(0.00458643 0.00196497 0)
(0.00327623 0.00196534 0)
(0.00196582 0.00196559 0)
(0.000655287 0.00196572 0)
(0.000697902 -0.00348894 0)
(0.00209366 -0.00348871 0)
(0.00348928 -0.00348825 0)
(0.00488468 -0.00348756 0)
(0.00627975 -0.00348664 0)
(0.00767441 -0.00348548 0)
(0.00906856 -0.00348409 0)
(0.0104621 -0.00348245 0)
(0.011855 -0.00348058 0)
(0.013247 -0.00347845 0)
(0.0146382 -0.00347608 0)
(0.0160283 -0.00347345 0)
(0.0174174 -0.00347056 0)
(0.0188053 -0.00346741 0)
(0.0201918 -0.00346398 0)
(0.0215769 -0.00346027 0)
(0.0229605 -0.00345628 0)
(0.0243425 -0.00345199 0)
(0.0257227 -0.00344741 0)
(0.027101 -0.00344251 0)
(0.0284773 -0.0034373 0)
(0.0298514 -0.00343176 0)
(0.0312233 -0.00342589 0)
(0.0325927 -0.00341968 0)
(0.0339597 -0.00341311 0)
(0.0353239 -0.00340618 0)
(0.0366853 -0.00339887 0)
(0.0380437 -0.00339118 0)
(0.0393989 -0.0033831 0)
(0.0407509 -0.00337461 0)
(0.0420994 -0.0033657 0)
(0.0434442 -0.00335637 0)
(0.0447853 -0.0033466 0)
(0.0461223 -0.00333637 0)
(0.0474552 -0.00332568 0)
(0.0487837 -0.00331452 0)
(0.0501077 -0.00330287 0)
(0.0514269 -0.00329073 0)
(0.0527412 -0.00327807 0)
(0.0540503 -0.00326489 0)
(0.0553541 -0.00325118 0)
(0.0566522 -0.00323693 0)
(0.0579446 -0.00322212 0)
(0.0592309 -0.00320674 0)
(0.060511 -0.00319078 0)
(0.0617846 -0.00317423 0)
(0.0630515 -0.00315708 0)
(0.0643114 -0.00313932 0)
(0.0655641 -0.00312094 0)
(0.0668093 -0.00310193 0)
(0.0680468 -0.00308228 0)
(0.0692763 -0.00306198 0)
(0.0704975 -0.00304101 0)
(0.0717103 -0.00301939 0)
(0.0729143 -0.00299708 0)
(0.0741092 -0.0029741 0)
(0.0752948 -0.00295042 0)
(0.0764708 -0.00292606 0)
(0.0776369 -0.00290099 0)
(0.0787928 -0.00287521 0)
(0.0799383 -0.00284872 0)
(0.0810731 -0.00282152 0)
(0.0821968 -0.0027936 0)
(0.0833093 -0.00276497 0)
(0.0844101 -0.00273561 0)
(0.0854991 -0.00270552 0)
(0.0865758 -0.00267472 0)
(0.0876401 -0.00264319 0)
(0.0886917 -0.00261094 0)
(0.0897302 -0.00257797 0)
(0.0907553 -0.00254429 0)
(0.0917669 -0.00250989 0)
(0.0927645 -0.00247479 0)
(0.093748 -0.00243898 0)
(0.094717 -0.00240247 0)
(0.0956712 -0.00236527 0)
(0.0966104 -0.00232739 0)
(0.0975343 -0.00228884 0)
(0.0984427 -0.00224962 0)
(0.0993352 -0.00220975 0)
(0.100212 -0.00216923 0)
(0.101072 -0.00212808 0)
(0.101915 -0.0020863 0)
(0.102742 -0.00204392 0)
(0.103551 -0.00200095 0)
(0.104344 -0.00195739 0)
(0.105118 -0.00191327 0)
(0.105875 -0.00186859 0)
(0.106614 -0.00182338 0)
(0.107335 -0.00177766 0)
(0.108037 -0.00173143 0)
(0.108721 -0.00168472 0)
(0.109386 -0.00163754 0)
(0.110032 -0.00158992 0)
(0.110659 -0.00154186 0)
(0.111266 -0.0014934 0)
(0.111854 -0.00144455 0)
(0.112422 -0.00139533 0)
(0.112971 -0.00134575 0)
(0.113499 -0.00129585 0)
(0.114008 -0.00124563 0)
(0.114497 -0.00119512 0)
(0.114965 -0.00114435 0)
(0.115412 -0.00109332 0)
(0.11584 -0.00104206 0)
(0.116246 -0.000990594 0)
(0.116633 -0.000938938 0)
(0.116998 -0.000887113 0)
(0.117343 -0.000835139 0)
(0.117666 -0.000783036 0)
(0.117969 -0.000730823 0)
(0.118251 -0.000678519 0)
(0.118512 -0.000626144 0)
(0.118752 -0.000573717 0)
(0.118971 -0.000521256 0)
(0.119169 -0.000468779 0)
(0.119346 -0.000416305 0)
(0.119502 -0.000363851 0)
(0.119637 -0.000311434 0)
(0.119751 -0.00025907 0)
(0.119844 -0.000206778 0)
(0.119916 -0.000154572 0)
(0.119968 -0.000102468 0)
(0.119998 -5.0482e-05 0)
(0.120008 1.37172e-06 0)
(0.119997 5.30784e-05 0)
(0.119965 0.000104624 0)
(0.119913 0.000155995 0)
(0.11984 0.000207177 0)
(0.119747 0.000258159 0)
(0.119633 0.000308927 0)
(0.119499 0.000359469 0)
(0.119345 0.000409774 0)
(0.119171 0.000459829 0)
(0.118977 0.000509624 0)
(0.118763 0.000559148 0)
(0.118529 0.00060839 0)
(0.118276 0.000657341 0)
(0.118003 0.00070599 0)
(0.11771 0.000754327 0)
(0.117399 0.000802344 0)
(0.117068 0.00085003 0)
(0.116718 0.000897378 0)
(0.116349 0.000944379 0)
(0.115962 0.000991023 0)
(0.115556 0.0010373 0)
(0.115131 0.00108321 0)
(0.114688 0.00112874 0)
(0.114228 0.00117388 0)
(0.113749 0.00121862 0)
(0.113252 0.00126297 0)
(0.112738 0.0013069 0)
(0.112206 0.00135041 0)
(0.111656 0.0013935 0)
(0.11109 0.00143616 0)
(0.110507 0.00147839 0)
(0.109907 0.00152017 0)
(0.10929 0.00156149 0)
(0.108657 0.00160237 0)
(0.108007 0.00164277 0)
(0.107341 0.00168271 0)
(0.10666 0.00172218 0)
(0.105963 0.00176116 0)
(0.10525 0.00179966 0)
(0.104522 0.00183767 0)
(0.103779 0.00187518 0)
(0.103021 0.00191219 0)
(0.102249 0.00194869 0)
(0.101461 0.00198468 0)
(0.10066 0.00202015 0)
(0.0998443 0.00205511 0)
(0.0990148 0.00208954 0)
(0.0981717 0.00212344 0)
(0.0973151 0.00215681 0)
(0.0964453 0.00218965 0)
(0.0955624 0.00222194 0)
(0.0946667 0.0022537 0)
(0.0937585 0.00228491 0)
(0.0928378 0.00231558 0)
(0.091905 0.0023457 0)
(0.0909603 0.00237527 0)
(0.0900038 0.00240429 0)
(0.0890359 0.00243276 0)
(0.0880566 0.00246067 0)
(0.0870663 0.00248803 0)
(0.0860652 0.00251484 0)
(0.0850535 0.00254109 0)
(0.0840313 0.00256679 0)
(0.082999 0.00259194 0)
(0.0819568 0.00261654 0)
(0.0809048 0.00264058 0)
(0.0798433 0.00266408 0)
(0.0787726 0.00268704 0)
(0.0776927 0.00270945 0)
(0.076604 0.00273132 0)
(0.0755067 0.00275266 0)
(0.0744009 0.00277346 0)
(0.073287 0.00279373 0)
(0.072165 0.00281348 0)
(0.0710353 0.0028327 0)
(0.0698979 0.00285141 0)
(0.0687532 0.0028696 0)
(0.0676013 0.00288729 0)
(0.0664425 0.00290448 0)
(0.0652769 0.00292117 0)
(0.0641047 0.00293738 0)
(0.0629261 0.0029531 0)
(0.0617413 0.00296834 0)
(0.0605506 0.00298311 0)
(0.059354 0.00299742 0)
(0.0581518 0.00301127 0)
(0.0569442 0.00302467 0)
(0.0557313 0.00303762 0)
(0.0545133 0.00305014 0)
(0.0532904 0.00306224 0)
(0.0520627 0.00307391 0)
(0.0508305 0.00308517 0)
(0.0495939 0.00309602 0)
(0.048353 0.00310647 0)
(0.047108 0.00311654 0)
(0.0458591 0.00312622 0)
(0.0446063 0.00313552 0)
(0.04335 0.00314446 0)
(0.0420901 0.00315304 0)
(0.0408269 0.00316127 0)
(0.0395605 0.00316915 0)
(0.038291 0.00317669 0)
(0.0370185 0.00318391 0)
(0.0357433 0.0031908 0)
(0.0344653 0.00319737 0)
(0.0331848 0.00320364 0)
(0.0319019 0.00320961 0)
(0.0306166 0.00321528 0)
(0.0293291 0.00322066 0)
(0.0280396 0.00322575 0)
(0.026748 0.00323058 0)
(0.0254546 0.00323513 0)
(0.0241595 0.00323942 0)
(0.0228626 0.00324344 0)
(0.0215642 0.00324722 0)
(0.0202644 0.00325074 0)
(0.0189632 0.00325402 0)
(0.0176608 0.00325707 0)
(0.0163571 0.00325987 0)
(0.0150524 0.00326245 0)
(0.0137468 0.00326479 0)
(0.0124402 0.00326692 0)
(0.0111328 0.00326882 0)
(0.00982476 0.0032705 0)
(0.00851605 0.00327197 0)
(0.0072068 0.00327322 0)
(0.0058971 0.00327426 0)
(0.00458702 0.00327509 0)
(0.00327665 0.00327571 0)
(0.00196607 0.00327613 0)
(0.00065537 0.00327633 0)
(0.00069804 -0.00488484 0)
(0.00209407 -0.00488451 0)
(0.00348997 -0.00488387 0)
(0.00488564 -0.00488291 0)
(0.006281 -0.00488162 0)
(0.00767594 -0.00488 0)
(0.00907037 -0.00487806 0)
(0.0104642 -0.00487577 0)
(0.0118574 -0.00487315 0)
(0.0132497 -0.00487019 0)
(0.0146412 -0.00486687 0)
(0.0160316 -0.0048632 0)
(0.017421 -0.00485916 0)
(0.0188092 -0.00485475 0)
(0.0201961 -0.00484996 0)
(0.0215816 -0.00484478 0)
(0.0229655 -0.0048392 0)
(0.0243478 -0.00483321 0)
(0.0257284 -0.0048268 0)
(0.027107 -0.00481996 0)
(0.0284837 -0.00481268 0)
(0.0298583 -0.00480494 0)
(0.0312305 -0.00479673 0)
(0.0326004 -0.00478805 0)
(0.0339678 -0.00477886 0)
(0.0353324 -0.00476917 0)
(0.0366943 -0.00475896 0)
(0.0380531 -0.00474821 0)
(0.0394089 -0.00473691 0)
(0.0407613 -0.00472504 0)
(0.0421103 -0.00471259 0)
(0.0434557 -0.00469953 0)
(0.0447973 -0.00468587 0)
(0.0461349 -0.00467157 0)
(0.0474683 -0.00465662 0)
(0.0487974 -0.00464101 0)
(0.050122 -0.00462472 0)
(0.0514418 -0.00460773 0)
(0.0527567 -0.00459003 0)
(0.0540664 -0.0045716 0)
(0.0553708 -0.00455242 0)
(0.0566697 -0.00453248 0)
(0.0579627 -0.00451176 0)
(0.0592497 -0.00449024 0)
(0.0605305 -0.00446792 0)
(0.0618048 -0.00444477 0)
(0.0630724 -0.00442077 0)
(0.0643331 -0.00439592 0)
(0.0655865 -0.0043702 0)
(0.0668325 -0.0043436 0)
(0.0680708 -0.0043161 0)
(0.069301 -0.00428769 0)
(0.0705231 -0.00425835 0)
(0.0717367 -0.00422809 0)
(0.0729414 -0.00419687 0)
(0.0741372 -0.0041647 0)
(0.0753236 -0.00413157 0)
(0.0765004 -0.00409746 0)
(0.0776674 -0.00406237 0)
(0.0788242 -0.00402629 0)
(0.0799706 -0.00398921 0)
(0.0811062 -0.00395114 0)
(0.0822308 -0.00391205 0)
(0.0833441 -0.00387196 0)
(0.0844458 -0.00383086 0)
(0.0855356 -0.00378874 0)
(0.0866132 -0.00374562 0)
(0.0876784 -0.00370148 0)
(0.0887308 -0.00365632 0)
(0.0897702 -0.00361016 0)
(0.0907962 -0.003563 0)
(0.0918086 -0.00351484 0)
(0.0928071 -0.00346568 0)
(0.0937914 -0.00341554 0)
(0.0947612 -0.00336442 0)
(0.0957163 -0.00331234 0)
(0.0966563 -0.0032593 0)
(0.097581 -0.00320531 0)
(0.0984902 -0.00315039 0)
(0.0993835 -0.00309455 0)
(0.100261 -0.00303781 0)
(0.101122 -0.00298018 0)
(0.101966 -0.00292168 0)
(0.102793 -0.00286232 0)
(0.103603 -0.00280214 0)
(0.104396 -0.00274114 0)
(0.105172 -0.00267934 0)
(0.105929 -0.00261678 0)
(0.106669 -0.00255346 0)
(0.10739 -0.00248942 0)
(0.108093 -0.00242468 0)
(0.108777 -0.00235926 0)
(0.109443 -0.00229318 0)
(0.110089 -0.00222648 0)
(0.110716 -0.00215918 0)
(0.111324 -0.00209131 0)
(0.111913 -0.00202289 0)
(0.112482 -0.00195395 0)
(0.113031 -0.00188452 0)
(0.11356 -0.00181462 0)
(0.114069 -0.00174429 0)
(0.114557 -0.00167355 0)
(0.115026 -0.00160243 0)
(0.115474 -0.00153097 0)
(0.115901 -0.00145918 0)
(0.116308 -0.0013871 0)
(0.116695 -0.00131475 0)
(0.11706 -0.00124217 0)
(0.117405 -0.00116938 0)
(0.117729 -0.0010964 0)
(0.118032 -0.00102328 0)
(0.118314 -0.000950026 0)
(0.118575 -0.000876675 0)
(0.118815 -0.000803251 0)
(0.119034 -0.00072978 0)
(0.119232 -0.000656288 0)
(0.119409 -0.000582799 0)
(0.119565 -0.000509339 0)
(0.1197 -0.000435931 0)
(0.119814 -0.0003626 0)
(0.119907 -0.000289368 0)
(0.119979 -0.000216257 0)
(0.12003 -0.000143291 0)
(0.120061 -7.04893e-05 0)
(0.12007 2.1262e-06 0)
(0.120059 7.45353e-05 0)
(0.120027 0.000146718 0)
(0.119974 0.000218656 0)
(0.119901 0.00029033 0)
(0.119808 0.000361722 0)
(0.119694 0.000432814 0)
(0.11956 0.00050359 0)
(0.119405 0.000574032 0)
(0.119231 0.000644125 0)
(0.119036 0.000713853 0)
(0.118822 0.000783202 0)
(0.118588 0.000852155 0)
(0.118334 0.0009207 0)
(0.118061 0.000988822 0)
(0.117768 0.00105651 0)
(0.117456 0.00112374 0)
(0.117125 0.00119052 0)
(0.116774 0.00125682 0)
(0.116405 0.00132263 0)
(0.116017 0.00138794 0)
(0.115611 0.00145275 0)
(0.115186 0.00151703 0)
(0.114743 0.00158078 0)
(0.114281 0.00164399 0)
(0.113802 0.00170664 0)
(0.113305 0.00176873 0)
(0.11279 0.00183024 0)
(0.112258 0.00189117 0)
(0.111708 0.00195151 0)
(0.111141 0.00201124 0)
(0.110557 0.00207036 0)
(0.109956 0.00212886 0)
(0.109339 0.00218673 0)
(0.108705 0.00224396 0)
(0.108055 0.00230054 0)
(0.107389 0.00235646 0)
(0.106707 0.00241172 0)
(0.106009 0.00246631 0)
(0.105296 0.00252021 0)
(0.104568 0.00257343 0)
(0.103824 0.00262595 0)
(0.103065 0.00267777 0)
(0.102292 0.00272888 0)
(0.101504 0.00277927 0)
(0.100702 0.00282894 0)
(0.0998859 0.00287788 0)
(0.0990558 0.00292609 0)
(0.098212 0.00297356 0)
(0.0973548 0.00302029 0)
(0.0964843 0.00306626 0)
(0.0956008 0.00311148 0)
(0.0947045 0.00315594 0)
(0.0937956 0.00319964 0)
(0.0928743 0.00324258 0)
(0.0919408 0.00328475 0)
(0.0909954 0.00332615 0)
(0.0900383 0.00336678 0)
(0.0890697 0.00340663 0)
(0.0880898 0.00344571 0)
(0.0870988 0.00348402 0)
(0.086097 0.00352155 0)
(0.0850846 0.0035583 0)
(0.0840618 0.00359428 0)
(0.0830289 0.00362948 0)
(0.081986 0.00366392 0)
(0.0809333 0.00369758 0)
(0.0798712 0.00373048 0)
(0.0787998 0.00376261 0)
(0.0777193 0.00379399 0)
(0.0766299 0.0038246 0)
(0.075532 0.00385447 0)
(0.0744256 0.00388358 0)
(0.073311 0.00391196 0)
(0.0721884 0.0039396 0)
(0.071058 0.0039665 0)
(0.0699201 0.00399269 0)
(0.0687747 0.00401816 0)
(0.0676222 0.00404291 0)
(0.0664628 0.00406697 0)
(0.0652966 0.00409033 0)
(0.0641238 0.004113 0)
(0.0629446 0.004135 0)
(0.0617593 0.00415633 0)
(0.060568 0.004177 0)
(0.0593709 0.00419702 0)
(0.0581681 0.0042164 0)
(0.05696 0.00423515 0)
(0.0557465 0.00425328 0)
(0.054528 0.0042708 0)
(0.0533046 0.00428772 0)
(0.0520765 0.00430405 0)
(0.0508438 0.0043198 0)
(0.0496066 0.00433498 0)
(0.0483653 0.00434961 0)
(0.0471198 0.00436369 0)
(0.0458704 0.00437723 0)
(0.0446173 0.00439025 0)
(0.0433605 0.00440275 0)
(0.0421002 0.00441475 0)
(0.0408366 0.00442626 0)
(0.0395697 0.00443728 0)
(0.0382998 0.00444783 0)
(0.037027 0.00445792 0)
(0.0357514 0.00446756 0)
(0.034473 0.00447676 0)
(0.0331922 0.00448552 0)
(0.0319088 0.00449386 0)
(0.0306232 0.00450179 0)
(0.0293354 0.00450931 0)
(0.0280455 0.00451644 0)
(0.0267537 0.00452319 0)
(0.0254599 0.00452955 0)
(0.0241644 0.00453554 0)
(0.0228673 0.00454118 0)
(0.0215686 0.00454645 0)
(0.0202685 0.00455138 0)
(0.018967 0.00455597 0)
(0.0176643 0.00456022 0)
(0.0163604 0.00456414 0)
(0.0150554 0.00456774 0)
(0.0137494 0.00457102 0)
(0.0124426 0.00457399 0)
(0.011135 0.00457665 0)
(0.00982665 0.004579 0)
(0.00851768 0.00458105 0)
(0.00720818 0.0045828 0)
(0.00589822 0.00458426 0)
(0.00458789 0.00458542 0)
(0.00327727 0.00458629 0)
(0.00196644 0.00458687 0)
(0.000655494 0.00458716 0)
(0.000698223 -0.00628105 0)
(0.00209462 -0.00628064 0)
(0.00349089 -0.00627982 0)
(0.00488693 -0.00627858 0)
(0.00628266 -0.00627693 0)
(0.00767797 -0.00627486 0)
(0.00907279 -0.00627236 0)
(0.010467 -0.00626944 0)
(0.0118605 -0.00626607 0)
(0.0132533 -0.00626227 0)
(0.0146452 -0.00625802 0)
(0.0160361 -0.00625331 0)
(0.0174259 -0.00624813 0)
(0.0188145 -0.00624247 0)
(0.0202018 -0.00623633 0)
(0.0215877 -0.00622969 0)
(0.0229721 -0.00622253 0)
(0.0243549 -0.00621485 0)
(0.0257359 -0.00620663 0)
(0.0271151 -0.00619785 0)
(0.0284923 -0.00618851 0)
(0.0298674 -0.00617858 0)
(0.0312402 -0.00616805 0)
(0.0326106 -0.00615691 0)
(0.0339785 -0.00614513 0)
(0.0353438 -0.00613269 0)
(0.0367062 -0.00611959 0)
(0.0380657 -0.00610579 0)
(0.0394221 -0.00609129 0)
(0.0407752 -0.00607605 0)
(0.0421249 -0.00606007 0)
(0.0434709 -0.00604331 0)
(0.0448132 -0.00602577 0)
(0.0461516 -0.00600741 0)
(0.0474858 -0.00598822 0)
(0.0488156 -0.00596818 0)
(0.050141 -0.00594726 0)
(0.0514616 -0.00592545 0)
(0.0527773 -0.00590272 0)
(0.0540879 -0.00587905 0)
(0.0553932 -0.00585442 0)
(0.0566929 -0.00582881 0)
(0.0579868 -0.00580219 0)
(0.0592748 -0.00577456 0)
(0.0605565 -0.00574588 0)
(0.0618318 -0.00571614 0)
(0.0631004 -0.00568532 0)
(0.064362 -0.00565339 0)
(0.0656164 -0.00562035 0)
(0.0668634 -0.00558617 0)
(0.0681027 -0.00555083 0)
(0.069334 -0.00551432 0)
(0.0705572 -0.00547663 0)
(0.0717718 -0.00543773 0)
(0.0729777 -0.00539762 0)
(0.0741745 -0.00535627 0)
(0.0753621 -0.00531369 0)
(0.07654 -0.00526984 0)
(0.0777081 -0.00522474 0)
(0.078866 -0.00517836 0)
(0.0800135 -0.0051307 0)
(0.0811503 -0.00508175 0)
(0.0822761 -0.00503151 0)
(0.0833905 -0.00497997 0)
(0.0844934 -0.00492713 0)
(0.0855843 -0.00487298 0)
(0.0866631 -0.00481753 0)
(0.0877295 -0.00476077 0)
(0.088783 -0.00470272 0)
(0.0898235 -0.00464336 0)
(0.0908507 -0.00458271 0)
(0.0918643 -0.00452078 0)
(0.0928639 -0.00445757 0)
(0.0938493 -0.00439309 0)
(0.0948202 -0.00432735 0)
(0.0957764 -0.00426036 0)
(0.0967175 -0.00419214 0)
(0.0976433 -0.00412271 0)
(0.0985535 -0.00405207 0)
(0.0994478 -0.00398025 0)
(0.100326 -0.00390727 0)
(0.101188 -0.00383315 0)
(0.102033 -0.0037579 0)
(0.102861 -0.00368156 0)
(0.103673 -0.00360414 0)
(0.104467 -0.00352568 0)
(0.105243 -0.00344619 0)
(0.106001 -0.00336571 0)
(0.106742 -0.00328427 0)
(0.107464 -0.00320189 0)
(0.108167 -0.0031186 0)
(0.108852 -0.00303445 0)
(0.109519 -0.00294945 0)
(0.110166 -0.00286365 0)
(0.110794 -0.00277708 0)
(0.111402 -0.00268976 0)
(0.111991 -0.00260175 0)
(0.112561 -0.00251306 0)
(0.11311 -0.00242374 0)
(0.11364 -0.00233383 0)
(0.114149 -0.00224335 0)
(0.114638 -0.00215236 0)
(0.115107 -0.00206087 0)
(0.115556 -0.00196894 0)
(0.115984 -0.00187659 0)
(0.116391 -0.00178386 0)
(0.116778 -0.0016908 0)
(0.117143 -0.00159743 0)
(0.117488 -0.00150379 0)
(0.117812 -0.00140992 0)
(0.118116 -0.00131586 0)
(0.118398 -0.00122163 0)
(0.118659 -0.00112728 0)
(0.118899 -0.00103283 0)
(0.119118 -0.000938325 0)
(0.119316 -0.000843792 0)
(0.119493 -0.000749264 0)
(0.119649 -0.000654774 0)
(0.119784 -0.000560353 0)
(0.119898 -0.00046603 0)
(0.119991 -0.000371836 0)
(0.120063 -0.000277799 0)
(0.120114 -0.000183948 0)
(0.120144 -9.03101e-05 0)