/*--------------------------------*- C++ -*----------------------------------*\
| =========                 |                                                 |
| \\      /  F ield         | OpenFOAM: The Open Source CFD Toolbox           |
|  \\    /   O peration     | Version:  v2012                                 |
|   \\  /    A nd           | Website:  www.openfoam.com                      |
|    \\/     M anipulation  |                                                 |
\*---------------------------------------------------------------------------*/
FoamFile
{
    version     2.0;
    format      ascii;
    class       volVectorField;
    location    "70";
    object      Usup;
}
// * * * * * * * * * * * * * * * * * * * * * * * * * * * * * * * * * * * * * //

dimensions      [0 1 -1 0 0 0 0];


internalField   nonuniform List<vector> 
4000
(
(-4.69169e-16 -2.38795e-16 0)
(-8.11676e-16 -2.27877e-16 0)
(-9.01945e-16 -5.85394e-16 0)
(-1.4778e-15 -9.62291e-16 0)
(-2.44892e-15 -1.06865e-15 0)
(-2.88619e-15 -7.08218e-16 0)
(-2.58891e-15 -1.01674e-15 0)
(-2.84259e-15 -1.25155e-15 0)
(-3.80792e-15 -1.42967e-15 0)
(-4.48941e-15 -1.62165e-15 0)
(-5.24562e-15 -1.91942e-15 0)
(-6.56356e-15 -2.04841e-15 0)
(-7.51226e-15 -1.62463e-15 0)
(-8.06878e-15 -1.31247e-15 0)
(-8.25166e-15 -7.06643e-16 0)
(-8.09234e-15 -4.36597e-16 0)
(-8.11635e-15 -3.48601e-16 0)
(-8.36206e-15 -6.19712e-16 0)
(-8.83986e-15 -9.05546e-16 0)
(-9.33995e-15 -1.01359e-15 0)
(-9.15563e-15 -4.90364e-16 0)
(-8.63354e-15 -6.11044e-16 0)
(-8.20323e-15 -9.5462e-16 0)
(-7.41602e-15 -4.90822e-16 0)
(-7.24545e-15 -3.19826e-16 0)
(-7.72324e-15 -2.30477e-16 0)
(-8.14622e-15 -2.61497e-16 0)
(-8.26836e-15 -2.81957e-16 0)
(-7.97607e-15 -4.19723e-16 0)
(-7.84492e-15 -4.51989e-16 0)
(-7.55832e-15 -2.87577e-16 0)
(-7.12317e-15 -6.64283e-16 0)
(-6.88724e-15 -8.07767e-16 0)
(-7.0499e-15 -8.96785e-16 0)
(-7.18056e-15 -6.67923e-16 0)
(-7.60051e-15 -8.39537e-16 0)
(-8.28694e-15 -3.82468e-16 0)
(-8.48398e-15 1.91385e-16 0)
(-7.83329e-15 4.08959e-16 0)
(-6.80121e-15 2.87027e-16 0)
(-6.44166e-15 1.58326e-16 0)
(-6.0926e-15 2.89853e-16 0)
(-5.42591e-15 2.06773e-16 0)
(-5.21221e-15 1.5778e-16 0)
(-5.31371e-15 1.22703e-16 0)
(-5.27109e-15 1.99394e-18 0)
(-5.28323e-15 -4.22503e-17 0)
(-5.00563e-15 8.48002e-17 0)
(-4.51701e-15 3.40689e-16 0)
(-4.31234e-15 4.03234e-16 0)
(-4.38016e-15 3.12077e-16 0)
(-4.25623e-15 6.03092e-16 0)
(-3.89245e-15 8.87382e-16 0)
(-3.50699e-15 8.99705e-16 0)
(-3.21056e-15 9.44363e-16 0)
(-3.07943e-15 9.25696e-16 0)
(-2.71743e-15 8.65801e-16 0)
(-2.30753e-15 9.3767e-16 0)
(-1.82236e-15 9.7321e-16 0)
(-1.46589e-15 9.30609e-16 0)
(-1.58289e-15 9.61709e-16 0)
(-1.62839e-15 1.21158e-15 0)
(-1.80608e-15 1.32514e-15 0)
(-1.86512e-15 1.73717e-15 0)
(-1.39935e-15 1.9174e-15 0)
(-9.84107e-16 1.68275e-15 0)
(-1.11204e-15 1.45415e-15 0)
(-1.60286e-15 1.47979e-15 0)
(-1.97538e-15 1.54111e-15 0)
(-2.05999e-15 1.66248e-15 0)
(-2.28813e-15 1.57052e-15 0)
(-2.8659e-15 1.63382e-15 0)
(-2.52519e-15 2.038e-15 0)
(-1.65446e-15 1.84873e-15 0)
(-1.23028e-15 1.50666e-15 0)
(-1.33828e-15 1.24823e-15 0)
(-1.87415e-15 1.23765e-15 0)
(-2.17026e-15 1.26557e-15 0)
(-2.13392e-15 1.17889e-15 0)
(-1.82329e-15 1.38497e-15 0)
(-1.68792e-15 1.42995e-15 0)
(-1.95393e-15 1.46724e-15 0)
(-1.92099e-15 1.78875e-15 0)
(-1.5659e-15 1.69839e-15 0)
(-1.69109e-15 1.11755e-15 0)
(-1.85593e-15 1.21208e-15 0)
(-1.68903e-15 1.21794e-15 0)
(-1.61908e-15 1.14498e-15 0)
(-1.28774e-15 1.17882e-15 0)
(-1.08757e-15 5.53034e-16 0)
(-1.32568e-15 5.16248e-16 0)
(-1.16803e-15 7.03466e-16 0)
(-8.30517e-16 6.74739e-16 0)
(-7.94194e-16 3.68938e-16 0)
(-7.6265e-16 3.16287e-16 0)
(-1.04795e-15 3.7297e-16 0)
(-1.17768e-15 2.93477e-16 0)
(-9.84533e-16 9.71813e-17 0)
(-6.78816e-16 3.05798e-16 0)
(-3.48023e-17 1.89664e-16 0)
(-8.30808e-16 -6.76971e-16 0)
(-2.07436e-15 -9.36384e-16 0)
(-3.16673e-15 -1.73051e-15 0)
(-4.61394e-15 -2.65941e-15 0)
(-6.3508e-15 -2.86691e-15 0)
(-7.77606e-15 -2.47263e-15 0)
(-8.20391e-15 -3.18152e-15 0)
(-9.08109e-15 -3.91843e-15 0)
(-1.13682e-14 -4.6619e-15 0)
(-1.34742e-14 -4.72213e-15 0)
(-1.56648e-14 -5.65329e-15 0)
(-1.8303e-14 -5.63799e-15 0)
(-2.0455e-14 -4.9632e-15 0)
(-2.18985e-14 -3.80949e-15 0)
(-2.26245e-14 -2.28091e-15 0)
(-2.29815e-14 -1.61407e-15 0)
(-2.362e-14 -1.53501e-15 0)
(-2.45684e-14 -2.07603e-15 0)
(-2.55342e-14 -2.68737e-15 0)
(-2.59354e-14 -3.05784e-15 0)
(-2.5599e-14 -2.11238e-15 0)
(-2.51116e-14 -1.76239e-15 0)
(-2.35699e-14 -1.96946e-15 0)
(-2.1574e-14 -1.32967e-15 0)
(-2.14276e-14 -9.52478e-16 0)
(-2.24365e-14 -7.24704e-16 0)
(-2.33639e-14 -8.84199e-16 0)
(-2.36842e-14 -9.09849e-16 0)
(-2.31304e-14 -1.05294e-15 0)
(-2.24936e-14 -1.02331e-15 0)
(-2.20331e-14 -9.75181e-16 0)
(-2.13098e-14 -1.70206e-15 0)
(-2.05747e-14 -2.31291e-15 0)
(-2.05693e-14 -2.49982e-15 0)
(-2.10076e-14 -1.94804e-15 0)
(-2.1782e-14 -2.02678e-15 0)
(-2.25611e-14 -1.22328e-15 0)
(-2.30151e-14 -1.68282e-16 0)
(-2.20801e-14 5.3876e-16 0)
(-2.00931e-14 6.71444e-16 0)
(-1.87451e-14 7.21152e-16 0)
(-1.7635e-14 8.43402e-16 0)
(-1.62558e-14 8.33615e-16 0)
(-1.55569e-14 5.20119e-16 0)
(-1.55876e-14 4.03699e-16 0)
(-1.5396e-14 2.57655e-16 0)
(-1.50447e-14 3.38383e-16 0)
(-1.41039e-14 3.65816e-16 0)
(-1.30526e-14 5.8234e-16 0)
(-1.27125e-14 1.05348e-15 0)
(-1.24384e-14 1.29383e-15 0)
(-1.17178e-14 1.81303e-15 0)
(-1.10112e-14 2.33092e-15 0)
(-1.01986e-14 2.34444e-15 0)
(-9.39383e-15 2.66563e-15 0)
(-8.90805e-15 2.74892e-15 0)
(-7.88263e-15 2.64513e-15 0)
(-6.73191e-15 3.07277e-15 0)
(-5.64171e-15 3.39374e-15 0)
(-4.80028e-15 3.08081e-15 0)
(-4.64227e-15 2.87481e-15 0)
(-4.64234e-15 3.39011e-15 0)
(-4.80071e-15 3.87863e-15 0)
(-4.75213e-15 5.07662e-15 0)
(-4.2996e-15 5.46864e-15 0)
(-3.79607e-15 5.21199e-15 0)
(-3.86444e-15 4.81163e-15 0)
(-4.66629e-15 4.58703e-15 0)
(-5.45718e-15 4.54199e-15 0)
(-5.93769e-15 4.66396e-15 0)
(-6.55695e-15 4.68637e-15 0)
(-7.19428e-15 5.0527e-15 0)
(-6.67117e-15 5.48104e-15 0)
(-5.48031e-15 5.36409e-15 0)
(-4.58829e-15 4.62798e-15 0)
(-4.51336e-15 3.75238e-15 0)
(-5.32387e-15 3.63924e-15 0)
(-6.00638e-15 3.8183e-15 0)
(-5.8275e-15 3.96851e-15 0)
(-5.15153e-15 4.225e-15 0)
(-5.00049e-15 4.38293e-15 0)
(-5.19968e-15 4.60166e-15 0)
(-5.18984e-15 4.8721e-15 0)
(-5.21277e-15 4.54715e-15 0)
(-5.23023e-15 3.5963e-15 0)
(-5.03326e-15 3.77123e-15 0)
(-4.81268e-15 3.99459e-15 0)
(-4.51768e-15 3.78383e-15 0)
(-4.21405e-15 3.30241e-15 0)
(-3.81056e-15 1.93027e-15 0)
(-3.49031e-15 1.61155e-15 0)
(-3.11057e-15 1.78276e-15 0)
(-2.78106e-15 1.79411e-15 0)
(-2.62724e-15 1.30525e-15 0)
(-2.30084e-15 9.64672e-16 0)
(-2.80173e-15 7.76667e-16 0)
(-3.16357e-15 9.04257e-16 0)
(-2.46207e-15 3.65753e-16 0)
(-1.55319e-15 4.83739e-16 0)
(-4.77839e-16 2.63331e-16 0)
(-1.07521e-15 -8.69596e-16 0)
(-3.13384e-15 -1.63591e-15 0)
(-5.35603e-15 -2.98737e-15 0)
(-7.56412e-15 -4.30583e-15 0)
(-9.93323e-15 -4.75413e-15 0)
(-1.24277e-14 -4.84703e-15 0)
(-1.38872e-14 -5.45159e-15 0)
(-1.57079e-14 -6.4888e-15 0)
(-1.86567e-14 -7.79598e-15 0)
(-2.20356e-14 -8.0896e-15 0)
(-2.55441e-14 -9.07189e-15 0)
(-2.89724e-14 -8.64997e-15 0)
(-3.18692e-14 -7.98272e-15 0)
(-3.3748e-14 -6.51632e-15 0)
(-3.53882e-14 -4.37763e-15 0)
(-3.67727e-14 -3.23055e-15 0)
(-3.82163e-14 -3.30814e-15 0)
(-3.97786e-14 -3.89442e-15 0)
(-4.11569e-14 -4.33467e-15 0)
(-4.12948e-14 -4.65305e-15 0)
(-4.03486e-14 -4.0108e-15 0)
(-3.97141e-14 -2.799e-15 0)
(-3.79242e-14 -2.35162e-15 0)
(-3.53973e-14 -2.14484e-15 0)
(-3.50881e-14 -1.95417e-15 0)
(-3.64727e-14 -1.796e-15 0)
(-3.76937e-14 -1.94353e-15 0)
(-3.79651e-14 -1.73199e-15 0)
(-3.72027e-14 -1.67879e-15 0)
(-3.64132e-14 -1.4082e-15 0)
(-3.5944e-14 -1.83891e-15 0)
(-3.51501e-14 -2.3966e-15 0)
(-3.40361e-14 -3.43391e-15 0)
(-3.34724e-14 -3.89249e-15 0)
(-3.39303e-14 -3.3989e-15 0)
(-3.49767e-14 -3.01034e-15 0)
(-3.57461e-14 -2.18708e-15 0)
(-3.60336e-14 -1.08815e-15 0)
(-3.47243e-14 4.47417e-17 0)
(-3.21672e-14 8.41564e-16 0)
(-3.03083e-14 1.2788e-15 0)
(-2.86223e-14 1.82952e-15 0)
(-2.67966e-14 1.85927e-15 0)
(-2.57761e-14 1.15128e-15 0)
(-2.53747e-14 7.49969e-16 0)
(-2.48017e-14 6.27968e-16 0)
(-2.42456e-14 1.08513e-15 0)
(-2.30454e-14 9.29865e-16 0)
(-2.11679e-14 9.82737e-16 0)
(-2.01849e-14 1.34024e-15 0)
(-1.97563e-14 2.04213e-15 0)
(-1.87579e-14 2.77333e-15 0)
(-1.77574e-14 3.51933e-15 0)
(-1.64085e-14 3.86204e-15 0)
(-1.50454e-14 4.20261e-15 0)
(-1.43376e-14 4.50608e-15 0)
(-1.26064e-14 4.62684e-15 0)
(-1.06622e-14 5.25086e-15 0)
(-9.50557e-15 5.73026e-15 0)
(-8.66197e-15 5.36165e-15 0)
(-7.94703e-15 5.13104e-15 0)
(-7.43128e-15 5.6468e-15 0)
(-7.18287e-15 6.73061e-15 0)
(-7.15153e-15 8.02267e-15 0)
(-7.04221e-15 8.63239e-15 0)
(-6.6315e-15 8.59756e-15 0)
(-6.94485e-15 8.13222e-15 0)
(-7.99669e-15 7.59899e-15 0)
(-8.92762e-15 7.63046e-15 0)
(-9.49661e-15 7.84061e-15 0)
(-1.01281e-14 8.3158e-15 0)
(-1.09946e-14 8.87149e-15 0)
(-1.04286e-14 9.03782e-15 0)
(-9.08894e-15 8.67686e-15 0)
(-8.39088e-15 7.64445e-15 0)
(-8.09111e-15 6.51888e-15 0)
(-8.54845e-15 6.2518e-15 0)
(-9.15124e-15 6.38776e-15 0)
(-9.0501e-15 7.06556e-15 0)
(-8.3409e-15 7.2689e-15 0)
(-8.00488e-15 7.49256e-15 0)
(-8.32716e-15 7.87703e-15 0)
(-8.55159e-15 7.54833e-15 0)
(-8.66259e-15 6.929e-15 0)
(-8.4017e-15 6.27691e-15 0)
(-7.73783e-15 6.35226e-15 0)
(-7.53952e-15 6.435e-15 0)
(-7.59359e-15 6.23859e-15 0)
(-7.4815e-15 5.25452e-15 0)
(-6.70369e-15 3.94154e-15 0)
(-5.74666e-15 3.07302e-15 0)
(-4.94967e-15 2.72527e-15 0)
(-4.51559e-15 2.39182e-15 0)
(-4.46632e-15 2.26888e-15 0)
(-4.12817e-15 1.64838e-15 0)
(-4.28838e-15 1.15133e-15 0)
(-4.65889e-15 1.15257e-15 0)
(-3.91832e-15 4.92527e-16 0)
(-2.39613e-15 2.61083e-16 0)
(-7.62742e-16 2.12707e-16 0)
(-1.29207e-15 -1.06157e-15 0)
(-4.35931e-15 -2.38335e-15 0)
(-7.74644e-15 -4.3864e-15 0)
(-1.05121e-14 -5.92565e-15 0)
(-1.33746e-14 -6.77844e-15 0)
(-1.66218e-14 -6.98576e-15 0)
(-1.91552e-14 -7.71447e-15 0)
(-2.22308e-14 -8.96515e-15 0)
(-2.61148e-14 -1.03589e-14 0)
(-3.03094e-14 -1.17035e-14 0)
(-3.44692e-14 -1.24458e-14 0)
(-3.85253e-14 -1.17707e-14 0)
(-4.22324e-14 -1.04808e-14 0)
(-4.43687e-14 -9.28297e-15 0)
(-4.65264e-14 -7.19564e-15 0)
(-4.92871e-14 -5.51839e-15 0)
(-5.18775e-14 -5.08576e-15 0)
(-5.38237e-14 -5.28004e-15 0)
(-5.53301e-14 -5.51863e-15 0)
(-5.5421e-14 -5.87936e-15 0)
(-5.387e-14 -5.48036e-15 0)
(-5.29608e-14 -4.4172e-15 0)
(-5.13947e-14 -3.64269e-15 0)
(-4.88141e-14 -3.06267e-15 0)
(-4.83666e-14 -2.74741e-15 0)
(-4.97723e-14 -2.6246e-15 0)
(-5.09116e-14 -2.9351e-15 0)
(-5.11186e-14 -2.70137e-15 0)
(-5.02456e-14 -2.30286e-15 0)
(-4.9547e-14 -2.24328e-15 0)
(-4.91551e-14 -2.76926e-15 0)
(-4.83235e-14 -3.16064e-15 0)
(-4.71795e-14 -4.13488e-15 0)
(-4.60535e-14 -4.72852e-15 0)
(-4.61058e-14 -4.63418e-15 0)
(-4.70608e-14 -4.00113e-15 0)
(-4.76788e-14 -3.22288e-15 0)
(-4.77175e-14 -2.07085e-15 0)
(-4.60585e-14 -3.52546e-16 0)
(-4.32058e-14 1.04029e-15 0)
(-4.07484e-14 1.66791e-15 0)
(-3.87241e-14 2.59767e-15 0)
(-3.71156e-14 2.63489e-15 0)
(-3.58885e-14 2.10563e-15 0)
(-3.49257e-14 1.58716e-15 0)
(-3.35999e-14 1.29007e-15 0)
(-3.27253e-14 1.54573e-15 0)
(-3.1357e-14 1.53164e-15 0)
(-2.90978e-14 1.91299e-15 0)
(-2.75601e-14 1.98514e-15 0)
(-2.64026e-14 2.90961e-15 0)
(-2.4947e-14 3.94424e-15 0)
(-2.36552e-14 4.58702e-15 0)
(-2.21949e-14 5.23945e-15 0)
(-2.04939e-14 5.49124e-15 0)
(-1.92763e-14 6.03763e-15 0)
(-1.70386e-14 6.71378e-15 0)
(-1.46101e-14 7.19221e-15 0)
(-1.3296e-14 7.42271e-15 0)
(-1.22609e-14 7.45728e-15 0)
(-1.10918e-14 7.6733e-15 0)
(-9.94286e-15 8.24391e-15 0)
(-9.42347e-15 9.24009e-15 0)
(-9.5114e-15 1.03863e-14 0)
(-9.63073e-15 1.14602e-14 0)
(-9.62831e-15 1.15003e-14 0)
(-1.01873e-14 1.09101e-14 0)
(-1.10991e-14 1.03303e-14 0)
(-1.18822e-14 1.07376e-14 0)
(-1.24744e-14 1.12778e-14 0)
(-1.32253e-14 1.20376e-14 0)
(-1.43179e-14 1.25654e-14 0)
(-1.4128e-14 1.30654e-14 0)
(-1.31093e-14 1.20043e-14 0)
(-1.2273e-14 1.05652e-14 0)
(-1.15863e-14 9.60414e-15 0)
(-1.17621e-14 9.039e-15 0)
(-1.19963e-14 9.06987e-15 0)
(-1.17697e-14 9.86817e-15 0)
(-1.12346e-14 1.03973e-14 0)
(-1.07943e-14 1.06507e-14 0)
(-1.13598e-14 1.09174e-14 0)
(-1.19443e-14 1.05566e-14 0)
(-1.19568e-14 9.57252e-15 0)
(-1.13425e-14 9.06581e-15 0)
(-1.04931e-14 8.92955e-15 0)
(-1.02067e-14 8.4205e-15 0)
(-1.03393e-14 8.17252e-15 0)
(-1.04031e-14 7.31876e-15 0)
(-9.53472e-15 6.22446e-15 0)
(-8.26521e-15 4.83547e-15 0)
(-7.14852e-15 3.96463e-15 0)
(-6.25153e-15 2.91882e-15 0)
(-6.03999e-15 2.80099e-15 0)
(-5.84535e-15 2.13424e-15 0)
(-5.85319e-15 1.45987e-15 0)
(-6.15838e-15 9.77834e-16 0)
(-5.14257e-15 5.11273e-16 0)
(-3.00289e-15 5.34748e-17 0)
(-1.03111e-15 8.01498e-17 0)
(-1.55956e-15 -1.47073e-15 0)
(-5.60556e-15 -3.43638e-15 0)
(-9.95596e-15 -5.5557e-15 0)
(-1.32464e-14 -7.08038e-15 0)
(-1.65156e-14 -8.27138e-15 0)
(-2.06318e-14 -8.62206e-15 0)
(-2.44494e-14 -9.45838e-15 0)
(-2.84776e-14 -1.14801e-14 0)
(-3.3452e-14 -1.31842e-14 0)
(-3.84563e-14 -1.5148e-14 0)
(-4.26799e-14 -1.56121e-14 0)
(-4.68244e-14 -1.50624e-14 0)
(-5.13277e-14 -1.35336e-14 0)
(-5.42358e-14 -1.206e-14 0)
(-5.6734e-14 -1.03316e-14 0)
(-6.02291e-14 -8.19473e-15 0)
(-6.37906e-14 -6.9099e-15 0)
(-6.65254e-14 -6.50596e-15 0)
(-6.86149e-14 -6.64846e-15 0)
(-6.86479e-14 -6.85399e-15 0)
(-6.6654e-14 -6.6206e-15 0)
(-6.54231e-14 -5.98785e-15 0)
(-6.35067e-14 -5.06028e-15 0)
(-6.08389e-14 -3.77574e-15 0)
(-6.06074e-14 -3.45502e-15 0)
(-6.24431e-14 -3.3398e-15 0)
(-6.3646e-14 -3.8082e-15 0)
(-6.33539e-14 -3.76716e-15 0)
(-6.25063e-14 -3.16943e-15 0)
(-6.20688e-14 -3.24484e-15 0)
(-6.15304e-14 -3.60997e-15 0)
(-6.06753e-14 -4.00887e-15 0)
(-5.94527e-14 -4.67032e-15 0)
(-5.80436e-14 -4.82715e-15 0)
(-5.76915e-14 -5.2733e-15 0)
(-5.84034e-14 -5.02016e-15 0)
(-5.88604e-14 -4.08413e-15 0)
(-5.81756e-14 -2.3829e-15 0)
(-5.59565e-14 -1.22457e-16 0)
(-5.31752e-14 1.32304e-15 0)
(-5.05888e-14 1.92824e-15 0)
(-4.82995e-14 2.51912e-15 0)
(-4.65807e-14 2.79675e-15 0)
(-4.51784e-14 2.96762e-15 0)
(-4.39814e-14 3.00935e-15 0)
(-4.2275e-14 2.62796e-15 0)
(-4.09275e-14 1.93789e-15 0)
(-3.89699e-14 1.92903e-15 0)
(-3.63128e-14 2.57493e-15 0)
(-3.42497e-14 3.03374e-15 0)
(-3.24684e-14 4.17736e-15 0)
(-3.09825e-14 5.03005e-15 0)
(-2.94797e-14 5.11778e-15 0)
(-2.75827e-14 5.78163e-15 0)
(-2.54571e-14 6.34304e-15 0)
(-2.36015e-14 7.33664e-15 0)
(-2.10584e-14 8.25787e-15 0)
(-1.85829e-14 8.74886e-15 0)
(-1.69652e-14 9.23678e-15 0)
(-1.55119e-14 9.62734e-15 0)
(-1.39997e-14 1.01831e-14 0)
(-1.26514e-14 1.08648e-14 0)
(-1.17876e-14 1.12888e-14 0)
(-1.14832e-14 1.24147e-14 0)
(-1.19272e-14 1.32711e-14 0)
(-1.25776e-14 1.33808e-14 0)
(-1.342e-14 1.31923e-14 0)
(-1.4022e-14 1.28582e-14 0)
(-1.44825e-14 1.34895e-14 0)
(-1.5108e-14 1.45072e-14 0)
(-1.59941e-14 1.56318e-14 0)
(-1.7143e-14 1.66467e-14 0)
(-1.75359e-14 1.70392e-14 0)
(-1.722e-14 1.55481e-14 0)
(-1.61293e-14 1.39433e-14 0)
(-1.51011e-14 1.27311e-14 0)
(-1.49278e-14 1.21519e-14 0)
(-1.46277e-14 1.22297e-14 0)
(-1.41449e-14 1.27187e-14 0)
(-1.37177e-14 1.35101e-14 0)
(-1.3448e-14 1.38978e-14 0)
(-1.41224e-14 1.38349e-14 0)
(-1.51216e-14 1.35861e-14 0)
(-1.515e-14 1.23308e-14 0)
(-1.41064e-14 1.19561e-14 0)
(-1.32732e-14 1.15078e-14 0)
(-1.29069e-14 1.07438e-14 0)
(-1.28978e-14 1.00642e-14 0)
(-1.30436e-14 9.14504e-15 0)
(-1.23214e-14 8.16869e-15 0)
(-1.09134e-14 6.51857e-15 0)
(-9.54915e-15 5.15211e-15 0)
(-8.23504e-15 3.74516e-15 0)
(-7.64547e-15 2.81336e-15 0)
(-7.52503e-15 2.27707e-15 0)
(-7.39254e-15 1.61219e-15 0)
(-7.36519e-15 7.74284e-16 0)
(-6.18326e-15 3.75137e-16 0)
(-3.69853e-15 -8.88353e-17 0)
(-1.12861e-15 -2.75542e-16 0)
(-1.90318e-15 -1.53436e-15 0)
(-6.74727e-15 -4.24848e-15 0)
(-1.18217e-14 -6.50446e-15 0)
(-1.5783e-14 -7.99719e-15 0)
(-1.95783e-14 -9.60134e-15 0)
(-2.42593e-14 -1.05116e-14 0)
(-2.9657e-14 -1.14618e-14 0)
(-3.50666e-14 -1.37228e-14 0)
(-4.07262e-14 -1.60281e-14 0)
(-4.59183e-14 -1.78893e-14 0)
(-5.01815e-14 -1.857e-14 0)
(-5.46861e-14 -1.8276e-14 0)
(-5.9457e-14 -1.67652e-14 0)
(-6.29194e-14 -1.47187e-14 0)
(-6.57653e-14 -1.29811e-14 0)
(-6.97771e-14 -1.118e-14 0)
(-7.43997e-14 -9.38776e-15 0)
(-7.80372e-14 -8.46303e-15 0)
(-8.05043e-14 -8.48396e-15 0)
(-8.06365e-14 -7.89899e-15 0)
(-7.8533e-14 -7.62297e-15 0)
(-7.69521e-14 -6.48478e-15 0)
(-7.46178e-14 -5.01996e-15 0)
(-7.21826e-14 -4.1535e-15 0)
(-7.23988e-14 -4.57868e-15 0)
(-7.43143e-14 -4.75366e-15 0)
(-7.54799e-14 -5.08741e-15 0)
(-7.48202e-14 -4.79453e-15 0)
(-7.38516e-14 -4.12464e-15 0)
(-7.36001e-14 -3.97725e-15 0)
(-7.31402e-14 -4.36173e-15 0)
(-7.22326e-14 -4.83084e-15 0)
(-7.06972e-14 -5.05746e-15 0)
(-6.93134e-14 -5.02303e-15 0)
(-6.9052e-14 -5.99144e-15 0)
(-6.89996e-14 -6.15597e-15 0)
(-6.84656e-14 -4.55716e-15 0)
(-6.72107e-14 -1.80402e-15 0)
(-6.51348e-14 4.19742e-16 0)
(-6.2688e-14 1.27122e-15 0)
(-5.99746e-14 1.82566e-15 0)
(-5.73076e-14 2.32283e-15 0)
(-5.51749e-14 2.71001e-15 0)
(-5.33909e-14 3.37796e-15 0)
(-5.22038e-14 4.08026e-15 0)
(-5.08337e-14 4.18125e-15 0)
(-4.91002e-14 3.04226e-15 0)
(-4.61279e-14 2.90688e-15 0)
(-4.28766e-14 3.02487e-15 0)
(-4.03317e-14 3.82569e-15 0)
(-3.82493e-14 4.80458e-15 0)
(-3.69044e-14 5.49718e-15 0)
(-3.50358e-14 5.45068e-15 0)
(-3.24766e-14 6.03963e-15 0)
(-2.97719e-14 6.93862e-15 0)
(-2.75284e-14 8.14799e-15 0)
(-2.48973e-14 9.27094e-15 0)
(-2.20466e-14 9.90196e-15 0)
(-2.01333e-14 1.08586e-14 0)
(-1.84965e-14 1.14044e-14 0)
(-1.67072e-14 1.21984e-14 0)
(-1.53618e-14 1.30953e-14 0)
(-1.42875e-14 1.35019e-14 0)
(-1.38485e-14 1.40425e-14 0)
(-1.45223e-14 1.43395e-14 0)
(-1.51782e-14 1.44738e-14 0)
(-1.60994e-14 1.4696e-14 0)
(-1.65765e-14 1.52647e-14 0)
(-1.65909e-14 1.59896e-14 0)
(-1.70314e-14 1.76831e-14 0)
(-1.7935e-14 1.93165e-14 0)
(-1.95997e-14 2.06679e-14 0)
(-2.11162e-14 2.06789e-14 0)
(-2.13221e-14 1.92926e-14 0)
(-2.00676e-14 1.7632e-14 0)
(-1.85309e-14 1.61385e-14 0)
(-1.77618e-14 1.55592e-14 0)
(-1.7226e-14 1.5517e-14 0)
(-1.64363e-14 1.56533e-14 0)
(-1.58795e-14 1.66022e-14 0)
(-1.59512e-14 1.7189e-14 0)
(-1.68649e-14 1.68908e-14 0)
(-1.81797e-14 1.6207e-14 0)
(-1.81122e-14 1.52949e-14 0)
(-1.67299e-14 1.4778e-14 0)
(-1.5973e-14 1.38439e-14 0)
(-1.56155e-14 1.29007e-14 0)
(-1.55756e-14 1.1991e-14 0)
(-1.55421e-14 1.07204e-14 0)
(-1.49016e-14 9.61069e-15 0)
(-1.36283e-14 8.01275e-15 0)
(-1.20374e-14 6.16454e-15 0)
(-1.0529e-14 4.67272e-15 0)
(-9.42006e-15 2.92801e-15 0)
(-8.80861e-15 2.24086e-15 0)
(-8.82676e-15 1.60151e-15 0)
(-8.6717e-15 7.35957e-16 0)
(-7.01806e-15 4.68556e-16 0)
(-4.27193e-15 9.43473e-17 0)
(-1.10108e-15 -1.62586e-16 0)
(-2.52352e-15 -1.32274e-15 0)
(-8.20163e-15 -4.59262e-15 0)
(-1.35807e-14 -7.22373e-15 0)
(-1.8193e-14 -8.73675e-15 0)
(-2.27567e-14 -1.07754e-14 0)
(-2.80453e-14 -1.24587e-14 0)
(-3.44722e-14 -1.36601e-14 0)
(-4.11362e-14 -1.55453e-14 0)
(-4.75135e-14 -1.81345e-14 0)
(-5.3064e-14 -1.96659e-14 0)
(-5.74488e-14 -2.07937e-14 0)
(-6.1671e-14 -2.11431e-14 0)
(-6.64351e-14 -1.97002e-14 0)
(-7.05208e-14 -1.74405e-14 0)
(-7.43162e-14 -1.53988e-14 0)
(-7.86814e-14 -1.37121e-14 0)
(-8.36342e-14 -1.19158e-14 0)
(-8.83138e-14 -1.07138e-14 0)
(-9.11252e-14 -1.03373e-14 0)
(-9.12432e-14 -9.25857e-15 0)
(-8.89553e-14 -8.17478e-15 0)
(-8.67956e-14 -6.79084e-15 0)
(-8.492e-14 -5.31252e-15 0)
(-8.34558e-14 -5.38573e-15 0)
(-8.38454e-14 -6.06858e-15 0)
(-8.5527e-14 -6.37949e-15 0)
(-8.63182e-14 -6.03676e-15 0)
(-8.51883e-14 -5.23118e-15 0)
(-8.42884e-14 -4.54666e-15 0)
(-8.44136e-14 -4.56537e-15 0)
(-8.40869e-14 -4.90168e-15 0)
(-8.28816e-14 -5.37047e-15 0)
(-8.11011e-14 -5.25604e-15 0)
(-8.01127e-14 -5.43038e-15 0)
(-7.98259e-14 -6.37588e-15 0)
(-7.85631e-14 -6.3522e-15 0)
(-7.67049e-14 -4.80698e-15 0)
(-7.52303e-14 -2.18704e-15 0)
(-7.389e-14 4.10037e-17 0)
(-7.16682e-14 1.15427e-15 0)
(-6.8601e-14 1.92498e-15 0)
(-6.56784e-14 2.44945e-15 0)
(-6.31057e-14 2.92852e-15 0)
(-6.08028e-14 3.60648e-15 0)
(-5.94149e-14 4.74735e-15 0)
(-5.84893e-14 5.12259e-15 0)
(-5.67473e-14 4.19999e-15 0)
(-5.32815e-14 3.48915e-15 0)
(-4.93376e-14 3.21803e-15 0)
(-4.60404e-14 4.50646e-15 0)
(-4.3733e-14 5.2407e-15 0)
(-4.23747e-14 5.73414e-15 0)
(-4.02921e-14 5.70391e-15 0)
(-3.70212e-14 6.24414e-15 0)
(-3.37516e-14 7.36316e-15 0)
(-3.10452e-14 8.35973e-15 0)
(-2.82506e-14 1.0115e-14 0)
(-2.525e-14 1.12617e-14 0)
(-2.31073e-14 1.20007e-14 0)
(-2.12772e-14 1.25483e-14 0)
(-1.91153e-14 1.34132e-14 0)
(-1.775e-14 1.43053e-14 0)
(-1.69087e-14 1.50182e-14 0)
(-1.64841e-14 1.53116e-14 0)
(-1.70655e-14 1.57334e-14 0)
(-1.76794e-14 1.56256e-14 0)
(-1.82081e-14 1.61175e-14 0)
(-1.85335e-14 1.79272e-14 0)
(-1.83034e-14 1.90837e-14 0)
(-1.8392e-14 2.07684e-14 0)
(-1.96159e-14 2.21256e-14 0)
(-2.19627e-14 2.33369e-14 0)
(-2.42722e-14 2.33401e-14 0)
(-2.50239e-14 2.25461e-14 0)
(-2.38584e-14 2.10289e-14 0)
(-2.19387e-14 1.97945e-14 0)
(-2.06544e-14 1.91128e-14 0)
(-1.97948e-14 1.92043e-14 0)
(-1.85236e-14 1.94342e-14 0)
(-1.76713e-14 1.99267e-14 0)
(-1.8204e-14 2.00666e-14 0)
(-1.96847e-14 1.96011e-14 0)
(-2.09872e-14 1.85263e-14 0)
(-2.07248e-14 1.7746e-14 0)
(-1.95166e-14 1.70094e-14 0)
(-1.87955e-14 1.59959e-14 0)
(-1.81777e-14 1.49621e-14 0)
(-1.81443e-14 1.38495e-14 0)
(-1.81514e-14 1.24526e-14 0)
(-1.73819e-14 1.07537e-14 0)
(-1.6235e-14 9.08335e-15 0)
(-1.45122e-14 7.29812e-15 0)
(-1.28482e-14 5.4799e-15 0)
(-1.14128e-14 3.73739e-15 0)
(-1.02449e-14 2.46951e-15 0)
(-1.00113e-14 1.65648e-15 0)
(-9.4499e-15 1.20719e-15 0)
(-7.59868e-15 7.44677e-16 0)
(-4.7597e-15 1.64631e-16 0)
(-1.31747e-15 -5.5933e-17 0)
(-3.19706e-15 -1.33177e-15 0)
(-9.74891e-15 -4.57247e-15 0)
(-1.52776e-14 -7.37428e-15 0)
(-2.05018e-14 -9.47025e-15 0)
(-2.60669e-14 -1.13575e-14 0)
(-3.17269e-14 -1.35893e-14 0)
(-3.88368e-14 -1.54856e-14 0)
(-4.68314e-14 -1.7223e-14 0)
(-5.38139e-14 -1.94068e-14 0)
(-5.95243e-14 -2.10682e-14 0)
(-6.44923e-14 -2.24582e-14 0)
(-6.86162e-14 -2.31495e-14 0)
(-7.28594e-14 -2.20543e-14 0)
(-7.71092e-14 -1.97061e-14 0)
(-8.14229e-14 -1.73472e-14 0)
(-8.64879e-14 -1.55126e-14 0)
(-9.2187e-14 -1.41181e-14 0)
(-9.74521e-14 -1.26797e-14 0)
(-1.00458e-13 -1.15973e-14 0)
(-1.0037e-13 -1.04314e-14 0)
(-9.81917e-14 -8.9036e-15 0)
(-9.63385e-14 -7.8356e-15 0)
(-9.50047e-14 -6.63074e-15 0)
(-9.40503e-14 -7.16951e-15 0)
(-9.43391e-14 -7.67484e-15 0)
(-9.54179e-14 -7.5167e-15 0)
(-9.56834e-14 -6.27881e-15 0)
(-9.46703e-14 -4.89212e-15 0)
(-9.41669e-14 -4.30756e-15 0)
(-9.44891e-14 -4.21233e-15 0)
(-9.41626e-14 -4.77858e-15 0)
(-9.27284e-14 -5.47659e-15 0)
(-9.08055e-14 -5.66738e-15 0)
(-9.00617e-14 -6.29597e-15 0)
(-8.95319e-14 -6.20659e-15 0)
(-8.75063e-14 -5.57193e-15 0)
(-8.4853e-14 -4.68031e-15 0)
(-8.27711e-14 -3.1226e-15 0)
(-8.13467e-14 -5.74419e-16 0)
(-7.9406e-14 1.45354e-15 0)
(-7.64957e-14 2.02759e-15 0)
(-7.33912e-14 2.13058e-15 0)
(-7.05047e-14 2.85941e-15 0)
(-6.76262e-14 3.6416e-15 0)
(-6.60903e-14 5.0401e-15 0)
(-6.56902e-14 5.15475e-15 0)
(-6.42145e-14 4.82472e-15 0)
(-6.02166e-14 4.48774e-15 0)
(-5.49402e-14 4.16397e-15 0)
(-5.10958e-14 4.58978e-15 0)
(-4.90307e-14 4.93415e-15 0)
(-4.7666e-14 5.2226e-15 0)
(-4.51628e-14 5.69937e-15 0)
(-4.11441e-14 6.60963e-15 0)
(-3.74842e-14 8.09614e-15 0)
(-3.41573e-14 9.15208e-15 0)
(-3.08148e-14 1.06925e-14 0)
(-2.81408e-14 1.20545e-14 0)
(-2.61487e-14 1.27235e-14 0)
(-2.39711e-14 1.35014e-14 0)
(-2.15598e-14 1.4374e-14 0)
(-2.00304e-14 1.50493e-14 0)
(-1.91583e-14 1.59388e-14 0)
(-1.87409e-14 1.63305e-14 0)
(-1.95628e-14 1.65794e-14 0)
(-2.00792e-14 1.65502e-14 0)
(-1.95717e-14 1.77374e-14 0)
(-1.96016e-14 2.01248e-14 0)
(-1.97819e-14 2.19221e-14 0)
(-2.01476e-14 2.3382e-14 0)
(-2.14409e-14 2.45935e-14 0)
(-2.40879e-14 2.57348e-14 0)
(-2.70027e-14 2.60078e-14 0)
(-2.82084e-14 2.58414e-14 0)
(-2.71571e-14 2.45498e-14 0)
(-2.4911e-14 2.33075e-14 0)
(-2.30986e-14 2.2675e-14 0)
(-2.18301e-14 2.30343e-14 0)
(-2.06688e-14 2.33719e-14 0)
(-2.00798e-14 2.30946e-14 0)
(-2.07388e-14 2.29e-14 0)
(-2.24131e-14 2.22394e-14 0)
(-2.38095e-14 2.13185e-14 0)
(-2.3326e-14 2.02567e-14 0)
(-2.19322e-14 1.89697e-14 0)
(-2.11914e-14 1.79516e-14 0)
(-2.06802e-14 1.7072e-14 0)
(-2.06578e-14 1.55841e-14 0)
(-2.07899e-14 1.40418e-14 0)
(-2.00793e-14 1.19569e-14 0)
(-1.85989e-14 9.94214e-15 0)
(-1.6848e-14 8.2327e-15 0)
(-1.50454e-14 6.03483e-15 0)
(-1.32808e-14 4.61953e-15 0)
(-1.17464e-14 3.18227e-15 0)
(-1.09261e-14 2.05148e-15 0)
(-1.02674e-14 1.46689e-15 0)
(-8.45191e-15 7.3203e-16 0)
(-5.2704e-15 -5.52007e-17 0)
(-1.33183e-15 -3.35425e-16 0)
(-3.69079e-15 -1.36544e-15 0)
(-1.10134e-14 -4.59643e-15 0)
(-1.71571e-14 -7.0147e-15 0)
(-2.26959e-14 -9.84744e-15 0)
(-2.89243e-14 -1.19904e-14 0)
(-3.57446e-14 -1.43996e-14 0)
(-4.33027e-14 -1.72316e-14 0)
(-5.16581e-14 -1.87278e-14 0)
(-5.94534e-14 -2.01076e-14 0)
(-6.58809e-14 -2.25163e-14 0)
(-7.09786e-14 -2.4079e-14 0)
(-7.4733e-14 -2.40336e-14 0)
(-7.85179e-14 -2.2749e-14 0)
(-8.27959e-14 -2.07411e-14 0)
(-8.79409e-14 -1.89626e-14 0)
(-9.38387e-14 -1.76392e-14 0)
(-9.97677e-14 -1.62872e-14 0)
(-1.05232e-13 -1.40363e-14 0)
(-1.08673e-13 -1.24143e-14 0)
(-1.08764e-13 -1.15042e-14 0)
(-1.06723e-13 -1.05629e-14 0)
(-1.04868e-13 -9.5092e-15 0)
(-1.04163e-13 -8.6615e-15 0)
(-1.03903e-13 -8.70082e-15 0)
(-1.03713e-13 -8.40795e-15 0)
(-1.04043e-13 -7.48625e-15 0)
(-1.03855e-13 -6.04358e-15 0)
(-1.03109e-13 -4.58821e-15 0)
(-1.03035e-13 -3.87604e-15 0)
(-1.03857e-13 -3.42312e-15 0)
(-1.03947e-13 -3.89628e-15 0)
(-1.02298e-13 -5.15497e-15 0)
(-1.00308e-13 -6.15078e-15 0)
(-9.8968e-14 -6.93349e-15 0)
(-9.7607e-14 -6.25789e-15 0)
(-9.55847e-14 -5.20868e-15 0)
(-9.28217e-14 -3.94861e-15 0)
(-8.98186e-14 -2.91643e-15 0)
(-8.77273e-14 -1.13168e-15 0)
(-8.647e-14 7.75699e-16 0)
(-8.42771e-14 1.65772e-15 0)
(-8.06751e-14 1.89608e-15 0)
(-7.70375e-14 2.80218e-15 0)
(-7.36933e-14 3.85151e-15 0)
(-7.22683e-14 4.84857e-15 0)
(-7.21015e-14 4.76014e-15 0)
(-7.01852e-14 5.07638e-15 0)
(-6.62066e-14 5.69239e-15 0)
(-6.11887e-14 5.11267e-15 0)
(-5.68819e-14 4.35242e-15 0)
(-5.41504e-14 4.48412e-15 0)
(-5.21596e-14 4.92494e-15 0)
(-4.9073e-14 6.07271e-15 0)
(-4.45045e-14 7.33114e-15 0)
(-4.05711e-14 8.87945e-15 0)
(-3.72748e-14 1.00635e-14 0)
(-3.37211e-14 1.11605e-14 0)
(-3.0856e-14 1.22659e-14 0)
(-2.86813e-14 1.33802e-14 0)
(-2.62969e-14 1.43202e-14 0)
(-2.38684e-14 1.51793e-14 0)
(-2.22088e-14 1.59113e-14 0)
(-2.13464e-14 1.68601e-14 0)
(-2.12087e-14 1.73041e-14 0)
(-2.196e-14 1.71145e-14 0)
(-2.17937e-14 1.72506e-14 0)
(-2.05073e-14 1.91275e-14 0)
(-2.03892e-14 2.15867e-14 0)
(-2.08707e-14 2.3827e-14 0)
(-2.14203e-14 2.58103e-14 0)
(-2.28882e-14 2.73465e-14 0)
(-2.58983e-14 2.82617e-14 0)
(-2.91019e-14 2.86598e-14 0)
(-3.09078e-14 2.88359e-14 0)
(-3.04302e-14 2.81796e-14 0)
(-2.79322e-14 2.68817e-14 0)
(-2.53883e-14 2.62258e-14 0)
(-2.37352e-14 2.6508e-14 0)
(-2.28422e-14 2.6803e-14 0)
(-2.22761e-14 2.63657e-14 0)
(-2.29696e-14 2.58957e-14 0)
(-2.48483e-14 2.49878e-14 0)
(-2.62941e-14 2.4166e-14 0)
(-2.61333e-14 2.3222e-14 0)
(-2.47096e-14 2.16189e-14 0)
(-2.34882e-14 1.99659e-14 0)
(-2.2996e-14 1.85526e-14 0)
(-2.3212e-14 1.68268e-14 0)
(-2.3407e-14 1.5285e-14 0)
(-2.2727e-14 1.33097e-14 0)
(-2.10443e-14 1.11167e-14 0)
(-1.9197e-14 9.0909e-15 0)
(-1.70617e-14 6.92199e-15 0)
(-1.48194e-14 5.26788e-15 0)
(-1.32026e-14 3.83627e-15 0)
(-1.21077e-14 2.49133e-15 0)
(-1.10254e-14 1.4717e-15 0)
(-9.10844e-15 5.58114e-16 0)
(-5.76787e-15 -2.06915e-16 0)
(-1.20232e-15 -1.99049e-16 0)
(-4.22122e-15 -1.53175e-15 0)
(-1.19433e-14 -4.6571e-15 0)
(-1.8684e-14 -7.21338e-15 0)
(-2.52197e-14 -1.00762e-14 0)
(-3.19612e-14 -1.28291e-14 0)
(-3.95788e-14 -1.56291e-14 0)
(-4.74345e-14 -1.79908e-14 0)
(-5.57521e-14 -1.98799e-14 0)
(-6.47737e-14 -2.12232e-14 0)
(-7.19587e-14 -2.33485e-14 0)
(-7.64186e-14 -2.45901e-14 0)
(-7.96786e-14 -2.44085e-14 0)
(-8.36159e-14 -2.3248e-14 0)
(-8.85257e-14 -2.18308e-14 0)
(-9.42397e-14 -2.0578e-14 0)
(-1.00387e-13 -1.88632e-14 0)
(-1.06049e-13 -1.73473e-14 0)
(-1.11642e-13 -1.53621e-14 0)
(-1.16044e-13 -1.39233e-14 0)
(-1.16756e-13 -1.26059e-14 0)
(-1.14663e-13 -1.19145e-14 0)
(-1.12979e-13 -1.09687e-14 0)
(-1.12479e-13 -1.06198e-14 0)
(-1.11918e-13 -9.81384e-15 0)
(-1.11461e-13 -8.91371e-15 0)
(-1.11642e-13 -7.56773e-15 0)
(-1.11448e-13 -5.90342e-15 0)
(-1.10887e-13 -4.59153e-15 0)
(-1.11013e-13 -3.72463e-15 0)
(-1.12079e-13 -2.95952e-15 0)
(-1.12869e-13 -3.05979e-15 0)
(-1.11671e-13 -4.71789e-15 0)
(-1.09252e-13 -6.17089e-15 0)
(-1.07133e-13 -6.64455e-15 0)
(-1.05102e-13 -6.25494e-15 0)
(-1.02467e-13 -5.18725e-15 0)
(-9.95992e-14 -3.52918e-15 0)
(-9.68407e-14 -2.41473e-15 0)
(-9.44118e-14 -1.30919e-15 0)
(-9.27113e-14 -2.85076e-16 0)
(-9.05598e-14 1.18911e-15 0)
(-8.69451e-14 1.97381e-15 0)
(-8.29635e-14 2.80966e-15 0)
(-7.95255e-14 4.15633e-15 0)
(-7.83449e-14 4.43545e-15 0)
(-7.79733e-14 4.3985e-15 0)
(-7.5512e-14 4.83144e-15 0)
(-7.17048e-14 5.42644e-15 0)
(-6.69691e-14 5.22938e-15 0)
(-6.21262e-14 4.7057e-15 0)
(-5.8697e-14 4.8217e-15 0)
(-5.60972e-14 5.44654e-15 0)
(-5.24978e-14 6.7324e-15 0)
(-4.76854e-14 8.1016e-15 0)
(-4.3582e-14 9.28484e-15 0)
(-4.00966e-14 1.06224e-14 0)
(-3.63379e-14 1.17587e-14 0)
(-3.32035e-14 1.27636e-14 0)
(-3.09224e-14 1.40929e-14 0)
(-2.85679e-14 1.49229e-14 0)
(-2.59958e-14 1.58607e-14 0)
(-2.41366e-14 1.65304e-14 0)
(-2.32586e-14 1.73745e-14 0)
(-2.35027e-14 1.81605e-14 0)
(-2.44162e-14 1.82607e-14 0)
(-2.33197e-14 1.89769e-14 0)
(-2.10506e-14 2.06812e-14 0)
(-2.07924e-14 2.29965e-14 0)
(-2.13204e-14 2.55444e-14 0)
(-2.22035e-14 2.79054e-14 0)
(-2.42685e-14 2.96196e-14 0)
(-2.77143e-14 3.0561e-14 0)
(-3.11073e-14 3.09813e-14 0)
(-3.30023e-14 3.12554e-14 0)
(-3.29401e-14 3.08913e-14 0)
(-3.06003e-14 2.99476e-14 0)
(-2.75357e-14 2.98884e-14 0)
(-2.54763e-14 3.00701e-14 0)
(-2.47442e-14 3.0459e-14 0)
(-2.46058e-14 3.01092e-14 0)
(-2.54856e-14 2.89501e-14 0)
(-2.72794e-14 2.76428e-14 0)
(-2.85489e-14 2.66763e-14 0)
(-2.84719e-14 2.54344e-14 0)
(-2.74168e-14 2.38619e-14 0)
(-2.63383e-14 2.18929e-14 0)
(-2.56665e-14 2.02743e-14 0)
(-2.55099e-14 1.83756e-14 0)
(-2.55853e-14 1.65661e-14 0)
(-2.51064e-14 1.45985e-14 0)
(-2.34126e-14 1.24431e-14 0)
(-2.13928e-14 1.06657e-14 0)
(-1.90679e-14 8.5065e-15 0)
(-1.65165e-14 6.28544e-15 0)
(-1.45161e-14 4.42008e-15 0)
(-1.31613e-14 3.20045e-15 0)
(-1.19662e-14 1.75222e-15 0)
(-9.77436e-15 5.03272e-16 0)