/*--------------------------------*- C++ -*----------------------------------*\
| =========                 |                                                 |
| \\      /  F ield         | OpenFOAM: The Open Source CFD Toolbox           |
|  \\    /   O peration     | Version:  v2012                                 |
|   \\  /    A nd           | Website:  www.openfoam.com                      |
|    \\/     M anipulation  |                                                 |
\*---------------------------------------------------------------------------*/
FoamFile
{
    version     2.0;
    format      ascii;
    class       volScalarField;
    location    "19.5";
    object      p;
}
// * * * * * * * * * * * * * * * * * * * * * * * * * * * * * * * * * * * * * //

dimensions      [0 2 -2 0 0 0 0];


internalField   nonuniform List<scalar> 
65536
(
8.97351e-10
-1.35773e-06
-4.08251e-06
-8.17575e-06
-1.36384e-05
-2.04696e-05
-2.86688e-05
-3.82358e-05
-4.91706e-05
-6.14732e-05
-7.51438e-05
-9.01823e-05
-0.000106589
-0.000124363
-0.000143505
-0.000164014
-0.000185892
-0.000209136
-0.000233747
-0.000259725
-0.000287069
-0.000315779
-0.000345853
-0.000377291
-0.000410091
-0.000444253
-0.000479775
-0.000516655
-0.000554892
-0.000594482
-0.000635424
-0.000677714
-0.00072135
-0.000766327
-0.000812643
-0.000860292
-0.000909269
-0.00095957
-0.00101119
-0.00106412
-0.00111835
-0.00117388
-0.0012307
-0.00128879
-0.00134816
-0.00140878
-0.00147066
-0.00153376
-0.00159809
-0.00166363
-0.00173036
-0.00179826
-0.00186733
-0.00193753
-0.00200886
-0.00208128
-0.00215479
-0.00222934
-0.00230493
-0.00238152
-0.00245908
-0.00253759
-0.00261701
-0.00269731
-0.00277846
-0.00286041
-0.00294313
-0.00302659
-0.00311073
-0.00319552
-0.0032809
-0.00336683
-0.00345325
-0.00354012
-0.00362738
-0.00371497
-0.00380284
-0.00389091
-0.00397913
-0.00406743
-0.00415574
-0.00424399
-0.0043321
-0.00442001
-0.00450762
-0.00459487
-0.00468166
-0.00476792
-0.00485355
-0.00493847
-0.00502259
-0.00510581
-0.00518804
-0.00526918
-0.00534914
-0.00542781
-0.00550509
-0.00558089
-0.0056551
-0.00572761
-0.00579833
-0.00586714
-0.00593395
-0.00599864
-0.00606112
-0.00612128
-0.00617902
-0.00623423
-0.00628681
-0.00633667
-0.00638371
-0.00642783
-0.00646893
-0.00650694
-0.00654176
-0.0065733
-0.00660149
-0.00662626
-0.00664751
-0.0066652
-0.00667925
-0.00668961
-0.00669622
-0.00669904
-0.00669801
-0.00669311
-0.0066843
-0.00667156
-0.00665486
-0.00663421
-0.00660957
-0.00658097
-0.00654841
-0.00651189
-0.00647144
-0.00642708
-0.00637885
-0.00632679
-0.00627093
-0.00621134
-0.00614808
-0.00608119
-0.00601076
-0.00593686
-0.00585957
-0.00577898
-0.00569517
-0.00560823
-0.00551828
-0.00542541
-0.00532972
-0.00523133
-0.00513036
-0.00502691
-0.0049211
-0.00481306
-0.00470291
-0.00459077
-0.00447676
-0.00436101
-0.00424364
-0.00412479
-0.00400458
-0.00388313
-0.00376056
-0.00363701
-0.00351259
-0.00338742
-0.00326163
-0.00313533
-0.00300864
-0.00288167
-0.00275452
-0.00262732
-0.00250017
-0.00237316
-0.00224641
-0.00211999
-0.00199402
-0.00186858
-0.00174375
-0.00161963
-0.00149629
-0.00137381
-0.00125227
-0.00113173
-0.00101226
-0.000893931
-0.000776802
-0.000660929
-0.000546367
-0.000433169
-0.000321383
-0.000211054
-0.000102225
5.06424e-06
0.000110777
0.000214878
0.000317337
0.000418125
0.000517213
0.00061458
0.000710201
0.000804058
0.000896133
0.000986409
0.00107487
0.00116152
0.00124632
0.00132929
0.0014104
0.00148966
0.00156706
0.00164259
0.00171627
0.00178807
0.00185801
0.00192609
0.00199231
0.00205667
0.00211917
0.00217982
0.00223863
0.0022956
0.00235074
0.00240404
0.00245553
0.00250521
0.00255308
0.00259915
0.00264343
0.00268593
0.00272665
0.0027656
0.0028028
0.00283825
0.00287195
0.00290391
0.00293414
0.00296266
0.00298945
0.00301454
0.00303793
0.00305962
0.00307962
0.00309793
0.00311456
0.00312951
0.0031428
0.00315441
0.00316436
0.00317265
0.00317928
0.00318424
0.00318756
0.00318921
-1.97429e-06
-3.33463e-06
-6.06247e-06
-1.01582e-05
-1.56225e-05
-2.24552e-05
-3.06562e-05
-4.02253e-05
-5.11624e-05
-6.34676e-05
-7.7141e-05
-9.21824e-05
-0.000108592
-0.00012637
-0.000145516
-0.000166029
-0.000187911
-0.00021116
-0.000235776
-0.000261759
-0.000289109
-0.000317824
-0.000347905
-0.000379349
-0.000412156
-0.000446325
-0.000481854
-0.000518742
-0.000556986
-0.000596585
-0.000637535
-0.000679834
-0.000723479
-0.000768466
-0.000814791
-0.00086245
-0.000911438
-0.00096175
-0.00101338
-0.00106632
-0.00112056
-0.00117611
-0.00123294
-0.00129105
-0.00135042
-0.00141106
-0.00147295
-0.00153607
-0.00160041
-0.00166596
-0.00173271
-0.00180063
-0.00186971
-0.00193993
-0.00201127
-0.00208372
-0.00215724
-0.00223181
-0.00230742
-0.00238403
-0.00246161
-0.00254014
-0.00261958
-0.0026999
-0.00278106
-0.00286304
-0.00294579
-0.00302926
-0.00311343
-0.00319823
-0.00328364
-0.00336959
-0.00345604
-0.00354294
-0.00363022
-0.00371784
-0.00380573
-0.00389383
-0.00398207
-0.0040704
-0.00415874
-0.00424701
-0.00433515
-0.00442309
-0.00451073
-0.004598
-0.00468483
-0.00477111
-0.00485677
-0.00494172
-0.00502587
-0.00510912
-0.00519138
-0.00527255
-0.00535253
-0.00543123
-0.00550855
-0.00558437
-0.00565861
-0.00573115
-0.00580189
-0.00587074
-0.00593757
-0.00600229
-0.0060648
-0.00612498
-0.00618274
-0.00623798
-0.00629058
-0.00634047
-0.00638753
-0.00643166
-0.00647279
-0.00651082
-0.00654565
-0.00657721
-0.00660542
-0.00663019
-0.00665146
-0.00666916
-0.00668322
-0.00669359
-0.0067002
-0.00670302
-0.006702
-0.0066971
-0.00668829
-0.00667555
-0.00665885
-0.00663818
-0.00661354
-0.00658493
-0.00655235
-0.00651582
-0.00647536
-0.00643098
-0.00638273
-0.00633065
-0.00627478
-0.00621517
-0.00615187
-0.00608496
-0.00601451
-0.00594058
-0.00586326
-0.00578263
-0.00569879
-0.00561182
-0.00552183
-0.00542892
-0.0053332
-0.00523478
-0.00513377
-0.00503028
-0.00492444
-0.00481636
-0.00470617
-0.00459399
-0.00447994
-0.00436416
-0.00424676
-0.00412787
-0.00400762
-0.00388613
-0.00376353
-0.00363994
-0.00351548
-0.00339028
-0.00326446
-0.00313813
-0.0030114
-0.0028844
-0.00275723
-0.00263
-0.00250282
-0.00237579
-0.002249
-0.00212257
-0.00199657
-0.00187111
-0.00174626
-0.00162212
-0.00149876
-0.00137626
-0.00125469
-0.00113414
-0.00101466
-0.000896313
-0.000779169
-0.000663283
-0.00054871
-0.000435501
-0.000323704
-0.000213366
-0.000104528
2.76875e-06
0.000108488
0.000212596
0.000315061
0.000415853
0.000514947
0.000612317
0.000707941
0.000801801
0.000893878
0.000984156
0.00107262
0.00115926
0.00124407
0.00132704
0.00140815
0.00148741
0.00156481
0.00164034
0.00171401
0.00178582
0.00185576
0.00192383
0.00199005
0.0020544
0.0021169
0.00217755
0.00223636
0.00229332
0.00234846
0.00240176
0.00245325
0.00250292
0.00255079
0.00259685
0.00264113
0.00268363
0.00272435
0.0027633
0.00280049
0.00283594
0.00286963
0.0029016
0.00293183
0.00296034
0.00298713
0.00301222
0.0030356
0.00305729
0.00307729
0.0030956
0.00311223
0.00312718
0.00314046
0.00315208
0.00316203
0.00317031
0.00317694
0.00318191
0.00318522
0.00318687
-5.93355e-06
-7.29677e-06
-1.00286e-05
-1.41279e-05
-1.95953e-05
-2.64312e-05
-3.46358e-05
-4.42088e-05
-5.51505e-05
-6.74607e-05
-8.11396e-05
-9.61871e-05
-0.000112603
-0.000130388
-0.000149542
-0.000170064
-0.000191954
-0.000215212
-0.000239839
-0.000265832
-0.000293193
-0.00032192
-0.000352013
-0.00038347
-0.00041629
-0.000450473
-0.000486017
-0.00052292
-0.00056118
-0.000600795
-0.000641763
-0.00068408
-0.000727743
-0.000772749
-0.000819094
-0.000866773
-0.000915782
-0.000966116
-0.00101777
-0.00107073
-0.001125
-0.00118057
-0.00123742
-0.00129556
-0.00135496
-0.00141563
-0.00147754
-0.00154069
-0.00160506
-0.00167064
-0.00173742
-0.00180537
-0.00187449
-0.00194474
-0.00201612
-0.00208859
-0.00216215
-0.00223676
-0.00231241
-0.00238905
-0.00246667
-0.00254524
-0.00262472
-0.00270508
-0.00278629
-0.00286831
-0.0029511
-0.00303462
-0.00311883
-0.00320368
-0.00328913
-0.00337513
-0.00346163
-0.00354858
-0.00363591
-0.00372358
-0.00381152
-0.00389967
-0.00398797
-0.00407635
-0.00416474
-0.00425307
-0.00434127
-0.00442925
-0.00451695
-0.00460428
-0.00469116
-0.00477751
-0.00486323
-0.00494823
-0.00503244
-0.00511575
-0.00519806
-0.00527929
-0.00535934
-0.00543809
-0.00551546
-0.00559135
-0.00566564
-0.00573824
-0.00580904
-0.00587794
-0.00594483
-0.0060096
-0.00607216
-0.00613239
-0.00619021
-0.00624549
-0.00629814
-0.00634807
-0.00639517
-0.00643935
-0.00648052
-0.00651858
-0.00655345
-0.00658505
-0.00661328
-0.00663808
-0.00665938
-0.0066771
-0.00669118
-0.00670156
-0.00670819
-0.00671101
-0.00671
-0.0067051
-0.00669629
-0.00668354
-0.00666683
-0.00664615
-0.0066215
-0.00659287
-0.00656027
-0.00652371
-0.00648321
-0.00643881
-0.00639052
-0.0063384
-0.00628248
-0.00622282
-0.00615948
-0.00609252
-0.00602201
-0.00594802
-0.00587064
-0.00578995
-0.00570604
-0.00561901
-0.00552895
-0.00543597
-0.00534018
-0.00524169
-0.0051406
-0.00503704
-0.00493112
-0.00482297
-0.0047127
-0.00460045
-0.00448633
-0.00437046
-0.00425299
-0.00413403
-0.0040137
-0.00389214
-0.00376947
-0.00364581
-0.00352129
-0.00339602
-0.00327013
-0.00314373
-0.00301694
-0.00288988
-0.00276265
-0.00263537
-0.00250813
-0.00238104
-0.00225421
-0.00212772
-0.00200168
-0.00187617
-0.00175128
-0.00162709
-0.00150369
-0.00138116
-0.00125956
-0.00113897
-0.00101946
-0.000901083
-0.000783912
-0.000668
-0.000553403
-0.000440171
-0.000328354
-0.000217997
-0.000109142
-1.82944e-06
0.000103904
0.000208025
0.000310501
0.000411304
0.000510406
0.000607784
0.000703415
0.00079728
0.000889362
0.000979643
0.00106811
0.00115476
0.00123956
0.00132253
0.00140364
0.0014829
0.0015603
0.00163583
0.0017095
0.0017813
0.00185123
0.0019193
0.00198551
0.00204987
0.00211236
0.00217301
0.00223181
0.00228877
0.0023439
0.0023972
0.00244868
0.00249834
0.0025462
0.00259226
0.00263654
0.00267903
0.00271974
0.00275869
0.00279588
0.00283131
0.00286501
0.00289696
0.00292719
0.0029557
0.00298249
0.00300757
0.00303095
0.00305263
0.00307263
0.00309093
0.00310756
0.00312251
0.00313579
0.0031474
0.00315735
0.00316563
0.00317226
0.00317723
0.00318054
0.00318219
-1.1877e-05
-1.32425e-05
-1.59777e-05
-2.00807e-05
-2.55523e-05
-3.23929e-05
-4.06027e-05
-5.01818e-05
-6.11301e-05
-7.34479e-05
-8.7135e-05
-0.000102192
-0.000118618
-0.000136413
-0.000155578
-0.000176113
-0.000198016
-0.000221289
-0.00024593
-0.000271939
-0.000299317
-0.000328061
-0.000358172
-0.000389649
-0.00042249
-0.000456694
-0.00049226
-0.000529185
-0.000567469
-0.000607109
-0.000648102
-0.000690446
-0.000734137
-0.000779171
-0.000825546
-0.000873256
-0.000922297
-0.000972662
-0.00102435
-0.00107735
-0.00113165
-0.00118725
-0.00124415
-0.00130232
-0.00136177
-0.00142247
-0.00148443
-0.00154762
-0.00161204
-0.00167766
-0.00174449
-0.00181249
-0.00188165
-0.00195195
-0.00202338
-0.00209591
-0.00216952
-0.00224419
-0.00231988
-0.00239659
-0.00247427
-0.00255289
-0.00263243
-0.00271286
-0.00279413
-0.00287621
-0.00295907
-0.00304265
-0.00312693
-0.00321185
-0.00329738
-0.00338345
-0.00347002
-0.00355704
-0.00364445
-0.00373219
-0.00382021
-0.00390844
-0.00399681
-0.00408527
-0.00417375
-0.00426216
-0.00435044
-0.00443851
-0.00452629
-0.00461371
-0.00470067
-0.0047871
-0.00487291
-0.00495801
-0.0050423
-0.00512569
-0.0052081
-0.00528942
-0.00536955
-0.00544839
-0.00552585
-0.00560182
-0.0056762
-0.00574889
-0.00581977
-0.00588875
-0.00595572
-0.00602058
-0.00608321
-0.00614353
-0.00620141
-0.00625677
-0.00630949
-0.00635949
-0.00640666
-0.0064509
-0.00649213
-0.00653025
-0.00656517
-0.00659681
-0.00662509
-0.00664993
-0.00667127
-0.00668902
-0.00670312
-0.00671353
-0.00672017
-0.00672302
-0.00672201
-0.00671711
-0.0067083
-0.00669554
-0.00667882
-0.00665813
-0.00663345
-0.00660479
-0.00657215
-0.00653555
-0.00649501
-0.00645055
-0.00640221
-0.00635003
-0.00629405
-0.00623432
-0.0061709
-0.00610386
-0.00603327
-0.00595919
-0.00588172
-0.00580094
-0.00571693
-0.0056298
-0.00553964
-0.00544656
-0.00535066
-0.00525206
-0.00515086
-0.00504719
-0.00494116
-0.00483289
-0.00472251
-0.00461015
-0.00449591
-0.00437994
-0.00426235
-0.00414327
-0.00402284
-0.00390117
-0.00377839
-0.00365462
-0.00353
-0.00340463
-0.00327864
-0.00315214
-0.00302526
-0.00289811
-0.00277079
-0.00264342
-0.0025161
-0.00238893
-0.00226202
-0.00213546
-0.00200934
-0.00188376
-0.00175881
-0.00163456
-0.0015111
-0.00138851
-0.00126686
-0.00114622
-0.00102666
-0.000908241
-0.000791028
-0.000675078
-0.000560445
-0.00044718
-0.000335332
-0.000224946
-0.000116066
-8.72892e-06
9.70265e-05
0.000201167
0.00030366
0.000404478
0.000503594
0.000600983
0.000696624
0.000790498
0.000882586
0.000972873
0.00106135
0.00114799
0.0012328
0.00131577
0.00139688
0.00147614
0.00155353
0.00162906
0.00170272
0.00177452
0.00184445
0.00191252
0.00197872
0.00204306
0.00210555
0.00216619
0.00222498
0.00228194
0.00233705
0.00239035
0.00244182
0.00249147
0.00253933
0.00258538
0.00262964
0.00267213
0.00271283
0.00275177
0.00278895
0.00282438
0.00285807
0.00289002
0.00292024
0.00294873
0.00297552
0.00300059
0.00302397
0.00304565
0.00306563
0.00308394
0.00310056
0.00311551
0.00312878
0.00314039
0.00315034
0.00315862
0.00316524
0.00317021
0.00317352
0.00317517
-1.98037e-05
-2.11709e-05
-2.3909e-05
-2.80161e-05
-3.34928e-05
-4.03394e-05
-4.85561e-05
-5.81431e-05
-6.91004e-05
-8.14281e-05
-9.51263e-05
-0.000110195
-0.000126634
-0.000144444
-0.000163625
-0.000184176
-0.000206097
-0.000229388
-0.000254049
-0.00028008
-0.000307479
-0.000336247
-0.000366383
-0.000397885
-0.000430753
-0.000464985
-0.000500581
-0.000537537
-0.000575853
-0.000615526
-0.000656553
-0.000698933
-0.000742661
-0.000787733
-0.000834148
-0.000881898
-0.000930981
-0.000981391
-0.00103312
-0.00108617
-0.00114052
-0.00119617
-0.00125311
-0.00131134
-0.00137084
-0.0014316
-0.00149361
-0.00155686
-0.00162134
-0.00168702
-0.00175391
-0.00182197
-0.0018912
-0.00196157
-0.00203307
-0.00210567
-0.00217935
-0.00225409
-0.00232986
-0.00240664
-0.0024844
-0.0025631
-0.00264272
-0.00272323
-0.00280459
-0.00288675
-0.0029697
-0.00305337
-0.00313774
-0.00322276
-0.00330837
-0.00339454
-0.00348121
-0.00356832
-0.00365583
-0.00374368
-0.0038318
-0.00392013
-0.00400862
-0.00409719
-0.00418577
-0.00427429
-0.00436268
-0.00445086
-0.00453876
-0.00462629
-0.00471337
-0.00479991
-0.00488584
-0.00497105
-0.00505546
-0.00513897
-0.0052215
-0.00530293
-0.00538318
-0.00546214
-0.00553972
-0.0056158
-0.0056903
-0.0057631
-0.0058341
-0.00590319
-0.00597027
-0.00603523
-0.00609797
-0.00615839
-0.00621638
-0.00627183
-0.00632465
-0.00637474
-0.00642199
-0.00646632
-0.00650763
-0.00654582
-0.00658081
-0.00661252
-0.00664086
-0.00666576
-0.00668714
-0.00670494
-0.00671908
-0.00672952
-0.00673619
-0.00673905
-0.00673805
-0.00673316
-0.00672434
-0.00671157
-0.00669484
-0.00667412
-0.00664941
-0.00662071
-0.00658803
-0.00655137
-0.00651077
-0.00646625
-0.00641783
-0.00636557
-0.0063095
-0.00624968
-0.00618616
-0.00611902
-0.00604831
-0.00597412
-0.00589653
-0.00581562
-0.00573149
-0.00564422
-0.00555393
-0.0054607
-0.00536466
-0.00526591
-0.00516457
-0.00506075
-0.00495457
-0.00484615
-0.00473562
-0.0046231
-0.00450871
-0.00439258
-0.00427485
-0.00415562
-0.00403504
-0.00391323
-0.0037903
-0.0036664
-0.00354163
-0.00341612
-0.00329
-0.00316338
-0.00303637
-0.00290909
-0.00278165
-0.00265417
-0.00252673
-0.00239946
-0.00227244
-0.00214578
-0.00201957
-0.0018939
-0.00176886
-0.00164453
-0.00152099
-0.00139832
-0.0012766
-0.00115589
-0.00103627
-0.000917794
-0.000800526
-0.000684524
-0.000569842
-0.000456532
-0.000344643
-0.000234219
-0.000125303
-1.79346e-05
8.78498e-05
0.000192016
0.000294533
0.000395371
0.000494505
0.00059191
0.000687565
0.00078145
0.000873548
0.000963843
0.00105232
0.00113897
0.00122378
0.00130675
0.00138786
0.00146711
0.00154451
0.00162003
0.00169369
0.00176548
0.0018354
0.00190346
0.00196966
0.00203399
0.00209647
0.0021571
0.00221588
0.00227282
0.00232793
0.00238121
0.00243267
0.00248232
0.00253016
0.0025762
0.00262045
0.00266292
0.00270362
0.00274255
0.00277972
0.00281514
0.00284881
0.00288075
0.00291096
0.00293945
0.00296623
0.0029913
0.00301466
0.00303633
0.00305631
0.00307461
0.00309123
0.00310617
0.00311944
0.00313105
0.00314099
0.00314927
0.00315589
0.00316085
0.00316416
0.00316581
-2.97104e-05
-3.10793e-05
-3.38207e-05
-3.79323e-05
-4.3415e-05
-5.02689e-05
-5.84941e-05
-6.80909e-05
-7.90594e-05
-9.13996e-05
-0.000105112
-0.000120195
-0.000136651
-0.000154479
-0.000173679
-0.000194251
-0.000216194
-0.000239509
-0.000264195
-0.000290252
-0.000317679
-0.000346477
-0.000376643
-0.000408178
-0.00044108
-0.000475347
-0.000510979
-0.000547974
-0.00058633
-0.000626045
-0.000667115
-0.000709539
-0.000753314
-0.000798435
-0.000844898
-0.0008927
-0.000941836
-0.0009923
-0.00104409
-0.00109719
-0.0011516
-0.00120731
-0.00126432
-0.00132261
-0.00138218
-0.00144301
-0.00150509
-0.00156841
-0.00163296
-0.00169873
-0.00176569
-0.00183383
-0.00190314
-0.0019736
-0.00204518
-0.00211787
-0.00219164
-0.00226647
-0.00234233
-0.00241921
-0.00249706
-0.00257587
-0.00265559
-0.0027362
-0.00281767
-0.00289994
-0.00298299
-0.00306678
-0.00315127
-0.0032364
-0.00332213
-0.00340842
-0.00349521
-0.00358245
-0.00367008
-0.00375806
-0.00384631
-0.00393477
-0.00402339
-0.00411209
-0.00420081
-0.00428947
-0.004378
-0.00446632
-0.00455436
-0.00464204
-0.00472926
-0.00481595
-0.00490202
-0.00498738
-0.00507194
-0.0051556
-0.00523827
-0.00531985
-0.00540025
-0.00547936
-0.00555708
-0.00563331
-0.00570795
-0.0057809
-0.00585204
-0.00592127
-0.00598849
-0.00605359
-0.00611646
-0.00617701
-0.00623512
-0.0062907
-0.00634364
-0.00639384
-0.00644121
-0.00648564
-0.00652705
-0.00656533
-0.00660042
-0.00663221
-0.00666062
-0.00668559
-0.00670703
-0.00672488
-0.00673907
-0.00674955
-0.00675625
-0.00675913
-0.00675815
-0.00675326
-0.00674444
-0.00673167
-0.00671491
-0.00669416
-0.00666941
-0.00664066
-0.00660792
-0.0065712
-0.00653052
-0.00648592
-0.00643741
-0.00638504
-0.00632886
-0.00626893
-0.00620529
-0.00613801
-0.00606716
-0.00599283
-0.00591508
-0.00583402
-0.00574972
-0.00566229
-0.00557182
-0.00547842
-0.0053822
-0.00528327
-0.00518174
-0.00507773
-0.00497136
-0.00486276
-0.00475203
-0.00463932
-0.00452474
-0.00440843
-0.0042905
-0.00417109
-0.00405032
-0.00392833
-0.00380522
-0.00368114
-0.0035562
-0.00343052
-0.00330423
-0.00317745
-0.00305028
-0.00292285
-0.00279526
-0.00266763
-0.00254005
-0.00241264
-0.0022855
-0.00215871
-0.00203238
-0.00190659
-0.00178144
-0.00165701
-0.00153337
-0.00141061
-0.0012888
-0.001168
-0.0010483
-0.00092975
-0.000812412
-0.000696344
-0.000581601
-0.000468235
-0.000356293
-0.000245821
-0.000136861
-2.94525e-05
7.63684e-05
0.000180568
0.000283114
0.000383979
0.000483136
0.000580561
0.000676233
0.000770133
0.000862242
0.000952547
0.00104103
0.00112769
0.0012125
0.00129547
0.00137658
0.00145583
0.00153322
0.00160874
0.00168239
0.00175418
0.00182409
0.00189214
0.00195832
0.00202265
0.00208512
0.00214573
0.0022045
0.00226143
0.00231653
0.00236979
0.00242124
0.00247087
0.0025187
0.00256473
0.00260897
0.00265142
0.0026921
0.00273102
0.00276817
0.00280358
0.00283724
0.00286917
0.00289937
0.00292785
0.00295462
0.00297967
0.00300303
0.00302469
0.00304467
0.00306295
0.00307956
0.0030945
0.00310777
0.00311937
0.0031293
0.00313758
0.0031442
0.00314916
0.00315247
0.00315412
-4.15938e-05
-4.29646e-05
-4.57097e-05
-4.98267e-05
-5.53162e-05
-6.21787e-05
-7.04141e-05
-8.00227e-05
-9.10045e-05
-0.00010336
-0.000117088
-0.00013219
-0.000148666
-0.000166516
-0.000185739
-0.000206335
-0.000228305
-0.000251648
-0.000276365
-0.000302453
-0.000329915
-0.000358747
-0.000388951
-0.000420524
-0.000453467
-0.000487777
-0.000523454
-0.000560495
-0.000598899
-0.000638664
-0.000679786
-0.000722264
-0.000766095
-0.000811273
-0.000857797
-0.000905661
-0.000954861
-0.00100539
-0.00105724
-0.00111042
-0.0011649
-0.00122069
-0.00127777
-0.00133614
-0.00139579
-0.0014567
-0.00151887
-0.00158228
-0.00164692
-0.00171277
-0.00177983
-0.00184807
-0.00191748
-0.00198803
-0.00205972
-0.00213251
-0.00220639
-0.00228133
-0.00235731
-0.0024343
-0.00251228
-0.0025912
-0.00267105
-0.00275178
-0.00283337
-0.00291578
-0.00299897
-0.00308289
-0.00316751
-0.00325278
-0.00333866
-0.00342509
-0.00351203
-0.00359942
-0.0036872
-0.00377533
-0.00386374
-0.00395236
-0.00404114
-0.00413001
-0.00421889
-0.00430771
-0.00439641
-0.00448491
-0.00457312
-0.00466097
-0.00474836
-0.00483523
-0.00492148
-0.00500701
-0.00509175
-0.00517559
-0.00525844
-0.0053402
-0.00542077
-0.00550006
-0.00557796
-0.00565437
-0.00572919
-0.0058023
-0.00587361
-0.00594301
-0.0060104
-0.00607566
-0.0061387
-0.0061994
-0.00625767
-0.0063134
-0.00636648
-0.00641682
-0.00646432
-0.00650888
-0.00655041
-0.00658881
-0.006624
-0.00665589
-0.0066844
-0.00670945
-0.00673097
-0.00674889
-0.00676314
-0.00677366
-0.0067804
-0.00678331
-0.00678234
-0.00677746
-0.00676864
-0.00675585
-0.00673906
-0.00671828
-0.00669348
-0.00666467
-0.00663186
-0.00659507
-0.0065543
-0.00650959
-0.00646097
-0.00640848
-0.00635217
-0.00629209
-0.0062283
-0.00616087
-0.00608985
-0.00601534
-0.00593742
-0.00585616
-0.00577167
-0.00568403
-0.00559336
-0.00549975
-0.00540331
-0.00530416
-0.0052024
-0.00509817
-0.00499157
-0.00488274
-0.00477179
-0.00465884
-0.00454404
-0.00442749
-0.00430934
-0.0041897
-0.00406871
-0.00394649
-0.00382317
-0.00369887
-0.00357372
-0.00344784
-0.00332135
-0.00319437
-0.00306701
-0.00293939
-0.00281162
-0.00268381
-0.00255607
-0.00242849
-0.00230119
-0.00217425
-0.00204778
-0.00192185
-0.00179657
-0.00167201
-0.00154825
-0.00142537
-0.00130345
-0.00118256
-0.00106276
-0.000944118
-0.000826695
-0.000710548
-0.000595732
-0.000482297
-0.000370292
-0.000259761
-0.000150748
-4.32899e-05
6.25755e-05
0.000166815
0.000269397
0.000370294
0.000469479
0.00056693
0.000662623
0.00075654
0.000848665
0.000938981
0.00102748
0.00111414
0.00119896
0.00128193
0.00136304
0.00144229
0.00151967
0.00159519
0.00166883
0.00174061
0.00181051
0.00187855
0.00194472
0.00200903
0.00207149
0.00213209
0.00219084
0.00224776
0.00230284
0.00235609
0.00240752
0.00245713
0.00250494
0.00255096
0.00259518
0.00263762
0.00267828
0.00271718
0.00275432
0.00278971
0.00282336
0.00285528
0.00288546
0.00291393
0.00294068
0.00296573
0.00298907
0.00301072
0.00303069
0.00304897
0.00306557
0.0030805
0.00309376
0.00310535
0.00311528
0.00312355
0.00313017
0.00313513
0.00313843
0.00314008
-5.54505e-05
-5.68235e-05
-5.95727e-05
-6.36957e-05
-6.91932e-05
-7.60656e-05
-8.43128e-05
-9.3935e-05
-0.000104932
-0.000117305
-0.000131053
-0.000146177
-0.000162676
-0.00018055
-0.000199801
-0.000220426
-0.000242428
-0.000265804
-0.000290556
-0.000316682
-0.000344182
-0.000373057
-0.000403304
-0.000434923
-0.000467913
-0.000502274
-0.000538002
-0.000575098
-0.000613558
-0.000653382
-0.000694565
-0.000737107
-0.000781002
-0.000826249
-0.000872843
-0.000920779
-0.000970054
-0.00102066
-0.00107259
-0.00112585
-0.00118042
-0.00123629
-0.00129347
-0.00135193
-0.00141167
-0.00147268
-0.00153494
-0.00159846
-0.0016632
-0.00172917
-0.00179633
-0.00186469
-0.00193421
-0.00200488
-0.00207669
-0.00214961
-0.00222362
-0.00229869
-0.0023748
-0.00245192
-0.00253004
-0.0026091
-0.00268909
-0.00276998
-0.00285172
-0.00293428
-0.00301762
-0.0031017
-0.00318648
-0.00327192
-0.00335796
-0.00344456
-0.00353168
-0.00361924
-0.00370721
-0.00379552
-0.00388411
-0.00397292
-0.00406189
-0.00415094
-0.00424002
-0.00432904
-0.00441794
-0.00450663
-0.00459504
-0.00468309
-0.0047707
-0.00485777
-0.00494422
-0.00502997
-0.00511491
-0.00519896
-0.00528202
-0.00536399
-0.00544478
-0.00552428
-0.00560239
-0.005679
-0.00575402
-0.00582734
-0.00589886
-0.00596846
-0.00603604
-0.00610149
-0.00616472
-0.00622561
-0.00628406
-0.00633996
-0.00639321
-0.00644372
-0.00649137
-0.00653608
-0.00657775
-0.00661629
-0.00665161
-0.00668362
-0.00671224
-0.00673739
-0.00675899
-0.00677699
-0.0067913
-0.00680188
-0.00680867
-0.00681161
-0.00681067
-0.0068058
-0.00679697
-0.00678416
-0.00676735
-0.00674652
-0.00672167
-0.00669279
-0.0066599
-0.00662301
-0.00658214
-0.00653731
-0.00648856
-0.00643593
-0.00637946
-0.00631922
-0.00625525
-0.00618763
-0.00611642
-0.0060417
-0.00596356
-0.00588208
-0.00579736
-0.00570949
-0.00561857
-0.00552471
-0.00542802
-0.00532861
-0.00522659
-0.00512209
-0.00501523
-0.00490613
-0.00479491
-0.00468169
-0.00456662
-0.0044498
-0.00433138
-0.00421148
-0.00409023
-0.00396775
-0.00384417
-0.00371962
-0.00359422
-0.0034681
-0.00334137
-0.00321416
-0.00308657
-0.00295873
-0.00283075
-0.00270274
-0.0025748
-0.00244703
-0.00231954
-0.00219243
-0.00206578
-0.00193969
-0.00181425
-0.00168954
-0.00156564
-0.00144263
-0.00132058
-0.00119957
-0.00107966
-0.00096091
-0.000843387
-0.000727146
-0.000612243
-0.000498727
-0.000386647
-0.000276048
-0.000166971
-5.94552e-05
4.6463e-05
0.00015075
0.000253375
0.00035431
0.000453529
0.000551009
0.000646728
0.000740667
0.00083281
0.000923141
0.00101165
0.00109832
0.00118314
0.00126612
0.00134723
0.00142647
0.00150385
0.00157936
0.001653
0.00172477
0.00179466
0.00186269
0.00192885
0.00199314
0.00205558
0.00211617
0.0021749
0.0022318
0.00228686
0.00234009
0.0023915
0.0024411
0.00248889
0.00253489
0.00257909
0.00262151
0.00266216
0.00270104
0.00273816
0.00277354
0.00280717
0.00283906
0.00286924
0.00289769
0.00292442
0.00294946
0.00297279
0.00299443
0.00301438
0.00303265
0.00304924
0.00306416
0.00307741
0.003089
0.00309893
0.00310719
0.0031138
0.00311876
0.00312206
0.00312371
-7.12766e-05
-7.26518e-05
-7.54056e-05
-7.95355e-05
-8.50421e-05
-9.19256e-05
-0.000100186
-0.000109824
-0.000120839
-0.000133232
-0.000147002
-0.00016215
-0.000178676
-0.00019658
-0.000215861
-0.000236521
-0.000258558
-0.000281973
-0.000306765
-0.000332934
-0.00036048
-0.000389401
-0.000419698
-0.00045137
-0.000484416
-0.000518833
-0.000554622
-0.00059178
-0.000630305
-0.000670196
-0.00071145
-0.000754064
-0.000798035
-0.000843359
-0.000890034
-0.000938054
-0.000987414
-0.00103811
-0.00109014
-0.00114349
-0.00119815
-0.00125413
-0.0013114
-0.00136997
-0.00142982
-0.00149094
-0.00155332
-0.00161695
-0.00168182
-0.00174791
-0.0018152
-0.00188368
-0.00195334
-0.00202415
-0.0020961
-0.00216916
-0.00224331
-0.00231853
-0.0023948
-0.00247208
-0.00255035
-0.00262958
-0.00270974
-0.00279079
-0.0028727
-0.00295544
-0.00303896
-0.00312323
-0.00320819
-0.00329382
-0.00338006
-0.00346686
-0.00355417
-0.00364193
-0.00373011
-0.00381862
-0.00390743
-0.00399645
-0.00408564
-0.00417491
-0.00426421
-0.00435346
-0.00444259
-0.00453151
-0.00462016
-0.00470844
-0.00479628
-0.00488359
-0.00497029
-0.00505627
-0.00514146
-0.00522575
-0.00530905
-0.00539126
-0.00547229
-0.00555203
-0.00563038
-0.00570723
-0.00578249
-0.00585605
-0.00592779
-0.00599762
-0.00606543
-0.00613111
-0.00619456
-0.00625566
-0.00631431
-0.00637042
-0.00642387
-0.00647456
-0.0065224
-0.00656729
-0.00660912
-0.00664781
-0.00668328
-0.00671542
-0.00674417
-0.00676943
-0.00679114
-0.00680923
-0.00682362
-0.00683427
-0.0068411
-0.00684409
-0.00684317
-0.00683831
-0.00682948
-0.00681665
-0.0067998
-0.00677893
-0.00675401
-0.00672506
-0.00669208
-0.00665508
-0.00661408
-0.00656912
-0.00652022
-0.00646743
-0.00641078
-0.00635035
-0.00628618
-0.00621834
-0.00614691
-0.00607196
-0.00599357
-0.00591183
-0.00582684
-0.0057387
-0.0056475
-0.00555335
-0.00545637
-0.00535666
-0.00525435
-0.00514954
-0.00504237
-0.00493296
-0.00482142
-0.0047079
-0.00459251
-0.00447539
-0.00435666
-0.00423645
-0.0041149
-0.00399212
-0.00386825
-0.00374341
-0.00361773
-0.00349133
-0.00336432
-0.00323684
-0.003109
-0.00298091
-0.00285268
-0.00272443
-0.00259626
-0.00246827
-0.00234057
-0.00221325
-0.00208641
-0.00196013
-0.00183451
-0.00170963
-0.00158557
-0.0014624
-0.00134021
-0.00121905
-0.00109901
-0.000980139
-0.0008625
-0.000746152
-0.000631148
-0.000517538
-0.000405372
-0.000294692
-0.000185541
-7.79584e-05
2.80211e-05
0.000132364
0.000235039
0.000336019
0.000435277
0.000532792
0.000628541
0.000722506
0.00081467
0.000905019
0.000993539
0.00108022
0.00116505
0.00124803
0.00132914
0.00140839
0.00148576
0.00156127
0.0016349
0.00170665
0.00177653
0.00184455
0.00191069
0.00197497
0.00203739
0.00209796
0.00215668
0.00221356
0.0022686
0.00232181
0.0023732
0.00242278
0.00247055
0.00251652
0.0025607
0.0026031
0.00264373
0.00268259
0.00271969
0.00275505
0.00278866
0.00282054
0.00285069
0.00287912
0.00290585
0.00293086
0.00295418
0.00297581
0.00299575
0.00301401
0.00303059
0.0030455
0.00305874
0.00307032
0.00308024
0.0030885
0.0030951
0.00310006
0.00310336
0.00310501
-8.90675e-05
-9.04451e-05
-9.3204e-05
-9.73416e-05
-0.000102858
-0.000109754
-0.00011803
-0.000127686
-0.000138721
-0.000151136
-0.000164932
-0.000180108
-0.000196664
-0.0002146
-0.000233917
-0.000254614
-0.000276692
-0.00030015
-0.000324988
-0.000351206
-0.000378802
-0.000407778
-0.000438132
-0.000469863
-0.000502971
-0.000537453
-0.00057331
-0.000610538
-0.000649137
-0.000689105
-0.000730438
-0.000773134
-0.00081719
-0.000862603
-0.000909369
-0.000957483
-0.00100694
-0.00105774
-0.00110987
-0.00116332
-0.0012181
-0.00127419
-0.00133158
-0.00139027
-0.00145024
-0.00151149
-0.001574
-0.00163777
-0.00170277
-0.001769
-0.00183643
-0.00190507
-0.00197487
-0.00204584
-0.00211795
-0.00219117
-0.00226549
-0.00234088
-0.00241732
-0.00249478
-0.00257323
-0.00265264
-0.00273299
-0.00281423
-0.00289634
-0.00297928
-0.003063
-0.00314748
-0.00323266
-0.0033185
-0.00340495
-0.00349197
-0.00357951
-0.00366751
-0.00375592
-0.00384467
-0.00393371
-0.00402298
-0.00411242
-0.00420194
-0.00429149
-0.004381
-0.00447038
-0.00455957
-0.00464848
-0.00473703
-0.00482514
-0.00491272
-0.00499969
-0.00508594
-0.0051714
-0.00525597
-0.00533955
-0.00542204
-0.00550334
-0.00558335
-0.00566198
-0.0057391
-0.00581463
-0.00588845
-0.00596046
-0.00603056
-0.00609862
-0.00616456
-0.00622825
-0.00628959
-0.00634849
-0.00640482
-0.00645849
-0.0065094
-0.00655745
-0.00660253
-0.00664455
-0.00668343
-0.00671905
-0.00675136
-0.00678024
-0.00680564
-0.00682747
-0.00684566
-0.00686014
-0.00687086
-0.00687776
-0.00688079
-0.0068799
-0.00687505
-0.00686622
-0.00685337
-0.00683649
-0.00681556
-0.00679057
-0.00676153
-0.00672845
-0.00669133
-0.00665019
-0.00660508
-0.00655601
-0.00650303
-0.00644619
-0.00638554
-0.00632114
-0.00625306
-0.00618137
-0.00610615
-0.00602748
-0.00594545