/*--------------------------------*- C++ -*----------------------------------*\
| =========                 |                                                 |
| \\      /  F ield         | OpenFOAM: The Open Source CFD Toolbox           |
|  \\    /   O peration     | Version:  v2012                                 |
|   \\  /    A nd           | Website:  www.openfoam.com                      |
|    \\/     M anipulation  |                                                 |
\*---------------------------------------------------------------------------*/
FoamFile
{
    version     2.0;
    format      ascii;
    class       surfaceScalarField;
    location    "19.5";
    object      phi;
}
// * * * * * * * * * * * * * * * * * * * * * * * * * * * * * * * * * * * * * //

dimensions      [0 3 -1 0 0 0 0];
oriented        oriented;


internalField   nonuniform List<scalar> 
130560
(
3.17699e-06
-3.17699e-06
6.3541e-06
-3.17712e-06
9.53149e-06
-3.17739e-06
1.27093e-05
-3.17779e-06
1.58876e-05
-3.17833e-06
1.90666e-05
-3.179e-06
2.22464e-05
-3.1798e-06
2.54271e-05
-3.18073e-06
2.86089e-05
-3.18179e-06
3.17919e-05
-3.18298e-06
3.49762e-05
-3.18429e-06
3.81619e-05
-3.18571e-06
4.13492e-05
-3.18725e-06
4.45381e-05
-3.18891e-06
4.77287e-05
-3.19067e-06
5.09213e-05
-3.19253e-06
5.41158e-05
-3.1945e-06
5.73123e-05
-3.19656e-06
6.0511e-05
-3.1987e-06
6.3712e-05
-3.20094e-06
6.69152e-05
-3.20324e-06
7.01208e-05
-3.20562e-06
7.33289e-05
-3.20806e-06
7.65395e-05
-3.21056e-06
7.97526e-05
-3.21311e-06
8.29683e-05
-3.21569e-06
8.61866e-05
-3.21831e-06
8.94075e-05
-3.22095e-06
9.26311e-05
-3.22361e-06
9.58574e-05
-3.22627e-06
9.90863e-05
-3.22893e-06
0.000102318
-3.23157e-06
0.000105552
-3.23418e-06
0.000108789
-3.23676e-06
0.000112028
-3.23928e-06
0.00011527
-3.24174e-06
0.000118514
-3.24412e-06
0.00012176
-3.24641e-06
0.000125009
-3.2486e-06
0.00012826
-3.25067e-06
0.000131512
-3.25261e-06
0.000134767
-3.25439e-06
0.000138023
-3.25601e-06
0.00014128
-3.25745e-06
0.000144539
-3.25869e-06
0.000147799
-3.25971e-06
0.000151059
-3.26049e-06
0.00015432
-3.26101e-06
0.000157581
-3.26126e-06
0.000160843
-3.26121e-06
0.000164103
-3.26084e-06
0.000167363
-3.26014e-06
0.000170623
-3.25907e-06
0.00017388
-3.25762e-06
0.000177136
-3.25575e-06
0.000180389
-3.25346e-06
0.00018364
-3.25071e-06
0.000186888
-3.24748e-06
0.000190131
-3.24373e-06
0.000193371
-3.23946e-06
0.000196605
-3.23462e-06
0.000199835
-3.22919e-06
0.000203058
-3.22315e-06
0.000206274
-3.21645e-06
0.000209483
-3.20909e-06
0.000212684
-3.20102e-06
0.000215876
-3.19221e-06
0.000219059
-3.18264e-06
0.000222231
-3.17227e-06
0.000225392
-3.16108e-06
0.000228541
-3.14903e-06
0.000231678
-3.13609e-06
0.0002348
-3.12223e-06
0.000237907
-3.10742e-06
0.000240999
-3.09162e-06
0.000244074
-3.07481e-06
0.000247131
-3.05695e-06
0.000250169
-3.03802e-06
0.000253187
-3.01797e-06
0.000256183
-2.99678e-06
0.000259158
-2.97443e-06
0.000262109
-2.95087e-06
0.000265035
-2.92608e-06
0.000267935
-2.90003e-06
0.000270807
-2.87269e-06
0.000273652
-2.84403e-06
0.000276466
-2.81404e-06
0.000279248
-2.78267e-06
0.000281998
-2.74992e-06
0.000284714
-2.71575e-06
0.000287394
-2.68015e-06
0.000290037
-2.64308e-06
0.000292642
-2.60454e-06
0.000295206
-2.56451e-06
0.000297729
-2.52298e-06
0.000300209
-2.47992e-06
0.000302644
-2.43532e-06
0.000305034
-2.38919e-06
0.000307375
-2.34151e-06
0.000309667
-2.29227e-06
0.000311909
-2.24147e-06
0.000314098
-2.18912e-06
0.000316233
-2.13522e-06
0.000318313
-2.07977e-06
0.000320336
-2.02278e-06
0.0003223
-1.96426e-06
0.000324204
-1.90422e-06
0.000326047
-1.84269e-06
0.000327827
-1.77968e-06
0.000329542
-1.71521e-06
0.000331191
-1.64932e-06
0.000332773
-1.58202e-06
0.000334286
-1.51336e-06
0.00033573
-1.44337e-06
0.000337102
-1.37208e-06
0.000338401
-1.29955e-06
0.000339627
-1.22581e-06
0.000340778
-1.1509e-06
0.000341853
-1.0749e-06
0.000342851
-9.97833e-07
0.000343771
-9.19773e-07
0.000344611
-8.40774e-07
0.000345372
-7.60899e-07
0.000346053
-6.80211e-07
0.000346651
-5.98776e-07
0.000347168
-5.16664e-07
0.000347602
-4.33944e-07
0.000347953
-3.50688e-07
0.00034822
-2.66971e-07
0.000348402
-1.82868e-07
0.000348501
-9.84537e-08
0.000348515
-1.38083e-08
0.000348444
7.09943e-08
0.000348288
1.55872e-07
0.000348047
2.40747e-07
0.000347722
3.2554e-07
0.000347311
4.10174e-07
0.000346817
4.94569e-07
0.000346238
5.78648e-07
0.000345576
6.62334e-07
0.00034483
7.45551e-07
0.000344002
8.28225e-07
0.000343092
9.10283e-07
0.0003421
9.91652e-07
0.000341028
1.07226e-06
0.000339876
1.15205e-06
0.000338645
1.23095e-06
0.000337336
1.3089e-06
0.00033595
1.38583e-06
0.000334488
1.46169e-06
0.000332952
1.53643e-06
0.000331342
1.60999e-06
0.00032966
1.68232e-06
0.000327906
1.75338e-06
0.000326083
1.82313e-06
0.000324192
1.89152e-06
0.000322233
1.95852e-06
0.000320209
2.0241e-06
0.000318121
2.08822e-06
0.00031597
2.15086e-06
0.000313758
2.212e-06
0.000311486
2.27161e-06
0.000309157
2.32968e-06
0.00030677
2.38619e-06
0.000304329
2.44114e-06
0.000301835
2.49451e-06
0.000299289
2.54629e-06
0.000296692
2.5965e-06
0.000294047
2.64511e-06
0.000291355
2.69215e-06
0.000288617
2.73761e-06
0.000285836
2.78151e-06
0.000283012
2.82384e-06
0.000280147
2.86463e-06
0.000277243
2.90389e-06
0.000274302
2.94164e-06
0.000271324
2.97788e-06
0.000268311
3.01265e-06
0.000265265
3.04596e-06
0.000262187
3.07784e-06
0.000259079
3.10831e-06
0.000255942
3.1374e-06
0.000252776
3.16513e-06
0.000249585
3.19154e-06
0.000246368
3.21664e-06
0.000243128
3.24048e-06
0.000239865
3.26307e-06
0.00023658
3.28446e-06
0.000233276
3.30467e-06
0.000229952
3.32373e-06
0.00022661
3.34168e-06
0.000223252
3.35856e-06
0.000219877
3.37438e-06
0.000216488
3.3892e-06
0.000213085
3.40303e-06
0.000209669
3.41592e-06
0.000206241
3.42789e-06
0.000202802
3.43898e-06
0.000199353
3.44923e-06
0.000195894
3.45866e-06
0.000192427
3.46731e-06
0.000188952
3.47521e-06
0.000185469
3.4824e-06
0.000181981
3.48889e-06
0.000178486
3.49473e-06
0.000174986
3.49995e-06
0.000171481
3.50458e-06
0.000167973
3.50864e-06
0.00016446
3.51216e-06
0.000160945
3.51518e-06
0.000157428
3.51772e-06
0.000153908
3.5198e-06
0.000150386
3.52147e-06
0.000146864
3.52273e-06
0.00014334
3.52363e-06
0.000139816
3.52417e-06
0.000136291
3.5244e-06
0.000132767
3.52432e-06
0.000129243
3.52397e-06
0.00012572
3.52336e-06
0.000122197
3.52253e-06
0.000118676
3.52148e-06
0.000115155
3.52024e-06
0.000111637
3.51883e-06
0.000108119
3.51727e-06
0.000104604
3.51558e-06
0.00010109
3.51377e-06
9.75782e-05
3.51187e-06
9.40683e-05
3.50988e-06
9.05605e-05
3.50783e-06
8.70547e-05
3.50573e-06
8.35511e-05
3.50359e-06
8.00497e-05
3.50144e-06
7.65504e-05
3.49927e-06
7.30533e-05
3.49711e-06
6.95583e-05
3.49497e-06
6.60655e-05
3.49285e-06
6.25747e-05
3.49078e-06
5.9086e-05
3.48876e-06
5.55992e-05
3.48679e-06
5.21143e-05
3.48489e-06
4.86312e-05
3.48308e-06
4.51499e-05
3.48134e-06
4.16702e-05
3.4797e-06
3.8192e-05
3.47816e-06
3.47153e-05
3.47673e-06
3.12399e-05
3.47541e-06
2.77657e-05
3.4742e-06
2.42925e-05
3.47312e-06
2.08204e-05
3.47216e-06
1.7349e-05
3.47134e-06
1.38784e-05
3.47064e-06
1.04083e-05
3.47009e-06
6.93863e-06
3.46967e-06
3.46925e-06
3.46939e-06
3.46925e-06
3.17686e-06
-6.35385e-06
6.35385e-06
-6.35411e-06
9.5311e-06
-6.35464e-06
1.27088e-05
-6.35545e-06
1.5887e-05
-6.35653e-06
1.90658e-05
-6.35787e-06
2.22455e-05
-6.35948e-06
2.54261e-05
-6.36134e-06
2.86078e-05
-6.36347e-06
3.17906e-05
-6.36584e-06
3.49748e-05
-6.36845e-06
3.81604e-05
-6.37131e-06
4.13475e-05
-6.3744e-06
4.45363e-05
-6.37771e-06
4.77269e-05
-6.38124e-06
5.09193e-05
-6.38497e-06
5.41138e-05
-6.38891e-06
5.73102e-05
-6.39303e-06
6.05088e-05
-6.39733e-06
6.37097e-05
-6.40179e-06
6.69129e-05
-6.40642e-06
7.01184e-05
-6.41118e-06
7.33264e-05
-6.41607e-06
7.6537e-05
-6.42107e-06
7.975e-05
-6.42617e-06
8.29657e-05
-6.43135e-06
8.6184e-05
-6.4366e-06
8.94049e-05
-6.4419e-06
9.26285e-05
-6.44722e-06
9.58548e-05
-6.45255e-06
9.90837e-05
-6.45788e-06
0.000102315
-6.46317e-06
0.00010555
-6.4684e-06
0.000108786
-6.47356e-06
0.000112026
-6.47862e-06
0.000115268
-6.48355e-06
0.000118512
-6.48833e-06
0.000121758
-6.49293e-06
0.000125007
-6.49733e-06
0.000128258
-6.50148e-06
0.000131511
-6.50537e-06
0.000134765
-6.50896e-06
0.000138021
-6.51221e-06
0.000141279
-6.5151e-06
0.000144538
-6.51759e-06
0.000147798
-6.51965e-06
0.000151059
-6.52123e-06
0.00015432
-6.5223e-06
0.000157581
-6.52281e-06
0.000160843
-6.52274e-06
0.000164104
-6.52202e-06
0.000167365
-6.52063e-06
0.000170624
-6.51852e-06
0.000173882
-6.51564e-06
0.000177138
-6.51194e-06
0.000180392
-6.50738e-06
0.000183643
-6.5019e-06
0.000186891
-6.49546e-06
0.000190136
-6.488e-06
0.000193376
-6.47948e-06
0.000196611
-6.46983e-06
0.000199841
-6.459e-06
0.000203064
-6.44694e-06
0.000206282
-6.43358e-06
0.000209491
-6.41888e-06
0.000212693
-6.40277e-06
0.000215886
-6.38518e-06
0.00021907
-6.36607e-06
0.000222243
-6.34537e-06
0.000225405
-6.32302e-06
0.000228554
-6.29895e-06
0.000231692
-6.2731e-06
0.000234815
-6.24541e-06
0.000237923
-6.21582e-06
0.000241016
-6.18426e-06
0.000244092
-6.15067e-06
0.00024715
-6.11499e-06
0.000250189
-6.07714e-06
0.000253208
-6.03708e-06
0.000256206
-5.99474e-06
0.000259181
-5.95005e-06
0.000262134
-5.90296e-06
0.000265061
-5.85341e-06
0.000267962
-5.80134e-06
0.000270836
-5.74669e-06
0.000273682
-5.68941e-06
0.000276497
-5.62944e-06
0.000279281
-5.56674e-06
0.000282032
-5.50125e-06
0.00028475
-5.43294e-06
0.000287431
-5.36175e-06
0.000290076
-5.28764e-06
0.000292682
-5.21058e-06
0.000295248
-5.13054e-06
0.000297772
-5.04747e-06
0.000300254
-4.96136e-06
0.000302691
-4.87219e-06
0.000305081
-4.77993e-06
0.000307424
-4.68456e-06
0.000309718
-4.58609e-06
0.000311961
-4.4845e-06
0.000314152
-4.3798e-06
0.000316289
-4.27199e-06
0.00031837
-4.16108e-06
0.000320394
-4.04708e-06
0.00032236
-3.93003e-06
0.000324266
-3.80994e-06
0.00032611
-3.68685e-06
0.000327891
-3.56081e-06
0.000329608
-3.43185e-06
0.000331258
-3.30003e-06
0.000332842
-3.16541e-06
0.000334357
-3.02806e-06
0.000335801
-2.88803e-06
0.000337175
-2.74542e-06
0.000338475
-2.6003e-06
0.000339702
-2.45277e-06
0.000340854
-2.30292e-06
0.00034193
-2.15085e-06
0.000342929
-1.99666e-06
0.00034385
-1.84049e-06
0.000344691
-1.68243e-06
0.000345453
-1.52261e-06
0.000346134
-1.36117e-06
0.000346734
-1.19823e-06
0.000347251
-1.03394e-06
0.000347685
-8.68425e-07
0.000348036
-7.0184e-07
0.000348304
-5.34331e-07
0.000348487
-3.66048e-07
0.000348586
-1.97143e-07
0.0003486
-2.77716e-08
0.000348529
1.41909e-07
0.000348373
3.11743e-07
0.000348132
4.81572e-07
0.000347806
6.51238e-07
0.000347396
8.20584e-07
0.000346901
9.89452e-07
0.000346322
1.15769e-06
0.000345659
1.32513e-06
0.000344913
1.49164e-06
0.000344084
1.65706e-06
0.000343173
1.82125e-06
0.000342181
1.98406e-06
0.000341108
2.14535e-06
0.000339955
2.30499e-06
0.000338723
2.46285e-06
0.000337413
2.6188e-06
0.000336026
2.77273e-06
0.000334563
2.92451e-06
0.000333026
3.07403e-06
0.000331415
3.2212e-06
0.000329731
3.36591e-06
0.000327976
3.50808e-06
0.000326152
3.64761e-06
0.000324259
3.78443e-06
0.000322299
3.91847e-06
0.000320273
4.04965e-06
0.000318184
4.17793e-06
0.000316031
4.30323e-06
0.000313818
4.42553e-06
0.000311545
4.54477e-06
0.000309213
4.66092e-06
0.000306826
4.77395e-06
0.000304383
4.88385e-06
0.000301887
4.99059e-06
0.000299339
5.09417e-06
0.000296741
5.19457e-06
0.000294094
5.29181e-06
0.0002914
5.38588e-06
0.000288661
5.4768e-06
0.000285878
5.56457e-06
0.000283053
5.64923e-06
0.000280187
5.7308e-06
0.000277281
5.8093e-06
0.000274338
5.88477e-06
0.000271359
5.95724e-06
0.000268345
6.02676e-06
0.000265297
6.09336e-06
0.000262218
6.1571e-06
0.000259108
6.21801e-06
0.000255969
6.27616e-06
0.000252803
6.3316e-06
0.00024961
6.38438e-06
0.000246392
6.43456e-06
0.000243151
6.48219e-06
0.000239886
6.52735e-06
0.000236601
6.57009e-06
0.000233295
6.61048e-06
0.00022997
6.64858e-06
0.000226627
6.68445e-06
0.000223268
6.71816e-06
0.000219892
6.74978e-06
0.000216502
6.77937e-06
0.000213098
6.80701e-06
0.000209681
6.83275e-06
0.000206252
6.85666e-06
0.000202813
6.87882e-06
0.000199363
6.89928e-06
0.000195903
6.91811e-06
0.000192435
6.93538e-06
0.000188959
6.95114e-06
0.000185476
6.96548e-06
0.000181987
6.97844e-06
0.000178491
6.99009e-06
0.000174991
7.0005e-06
0.000171485
7.00972e-06
0.000167976
7.01781e-06
0.000164464
7.02483e-06
0.000160948
7.03083e-06
0.00015743
7.03588e-06
0.00015391
7.04003e-06
0.000150388
7.04333e-06
0.000146865
7.04584e-06
0.000143341
7.0476e-06
0.000139816
7.04867e-06
0.000136291
7.04909e-06
0.000132767
7.04892e-06
0.000129243
7.04819e-06
0.000125719
7.04696e-06
0.000122196
7.04526e-06
0.000118675
7.04315e-06
0.000115154
7.04065e-06
0.000111635
7.03782e-06
0.000108118
7.03468e-06
0.000104602
7.03128e-06
0.000101088
7.02764e-06
9.75763e-05
7.02382e-06
9.40663e-05
7.01983e-06
9.05584e-05
7.01571e-06
8.70527e-05
7.0115e-06
8.35491e-05
7.00721e-06
8.00476e-05
7.00288e-06
7.65483e-05
6.99854e-06
7.30512e-05
6.99421e-06
6.95563e-05
6.98991e-06
6.60635e-05
6.98567e-06
6.25727e-05
6.98151e-06
5.9084e-05
6.97745e-06
5.55973e-05
6.97351e-06
5.21125e-05
6.96971e-06
4.86295e-05
6.96607e-06
4.51483e-05
6.9626e-06
4.16687e-05
6.95931e-06
3.81906e-05
6.95622e-06
3.4714e-05
6.95335e-06
3.12387e-05
6.9507e-06
2.77646e-05
6.94829e-06
2.42916e-05
6.94612e-06
2.08196e-05
6.9442e-06
1.73484e-05
6.94255e-06
1.38778e-05
6.94116e-06
1.04079e-05
6.94004e-06
6.93836e-06
6.9392e-06
3.46911e-06
6.93863e-06
6.93835e-06
3.17658e-06
-9.53043e-06
6.35331e-06
-9.53083e-06
9.5303e-06
-9.53163e-06
1.27077e-05
-9.53285e-06
1.58856e-05
-9.53446e-06
1.90642e-05
-9.53648e-06
2.22437e-05
-9.5389e-06
2.5424e-05
-9.5417e-06
2.86054e-05
-9.54489e-06
3.17881e-05
-9.54845e-06
3.4972e-05
-9.55239e-06
3.81574e-05
-9.55668e-06
4.13443e-05
-9.56132e-06
4.45329e-05
-9.56629e-06
4.77232e-05
-9.5716e-06
5.09155e-05
-9.57721e-06
5.41097e-05
-9.58313e-06
5.7306e-05
-9.58932e-06
6.05044e-05
-9.59579e-06
6.37052e-05
-9.6025e-06
6.69082e-05
-9.60945e-06
7.01136e-05
-9.61661e-06
7.33215e-05
-9.62396e-06
7.65319e-05
-9.63149e-06
7.97449e-05
-9.63916e-06
8.29605e-05
-9.64695e-06
8.61788e-05
-9.65484e-06
8.93997e-05
-9.66281e-06
9.26233e-05
-9.67082e-06
9.58496e-05
-9.67885e-06
9.90785e-05
-9.68686e-06
0.00010231
-9.69482e-06
0.000105545
-9.70271e-06
0.000108781
-9.71048e-06
0.000112021
-9.7181e-06
0.000115263
-9.72553e-06
0.000118507
-9.73273e-06
0.000121754
-9.73966e-06
0.000125003
-9.74629e-06
0.000128254
-9.75256e-06
0.000131507
-9.75843e-06
0.000134762
-9.76385e-06
0.000138019
-9.76878e-06
0.000141277
-9.77316e-06
0.000144536
-9.77694e-06
0.000147796
-9.78007e-06
0.000151058
-9.78249e-06
0.000154319
-9.78414e-06
0.000157582
-9.78496e-06
0.000160844
-9.7849e-06
0.000164106
-9.78389e-06
0.000167367
-9.78186e-06
0.000170627
-9.77874e-06
0.000173886
-9.77448e-06
0.000177143
-9.76899e-06
0.000180398
-9.76221e-06
0.00018365
-9.75406e-06
0.000186899
-9.74446e-06
0.000190144
-9.73334e-06
0.000193385
-9.72062e-06
0.000196622
-9.70622e-06
0.000199853
-9.69004e-06
0.000203078
-9.67202e-06
0.000206296
-9.65206e-06
0.000209508
-9.63008e-06
0.000212711
-9.60598e-06
0.000215905
-9.57969e-06
0.00021909
-9.5511e-06
0.000222265
-9.52012e-06
0.000225429
-9.48667e-06
0.000228581
-9.45064e-06
0.000231719
-9.41195e-06
0.000234844
-9.3705e-06
0.000237955
-9.32619e-06
0.000241049
-9.27893e-06
0.000244127
-9.22862e-06
0.000247188
-9.17518e-06
0.000250229
-9.11849e-06
0.00025325
-9.05848e-06
0.000256251
-8.99504e-06
0.000259229
-8.92808e-06
0.000262183
-8.85752e-06
0.000265113
-8.78327e-06
0.000268017
-8.70523e-06
0.000270894
-8.62332e-06
0.000273742
-8.53747e-06
0.00027656
-8.44758e-06
0.000279347
-8.35359e-06
0.000282101
-8.25542e-06
0.000284821
-8.153e-06
0.000287505
-8.04626e-06
0.000290153
-7.93515e-06
0.000292762
-7.8196e-06
0.000295331
-7.69957e-06
0.000297859
-7.57501e-06
0.000300343
-7.44588e-06
0.000302783
-7.31214e-06
0.000305177
-7.17376e-06
0.000307523
-7.03073e-06
0.00030982
-6.88303e-06
0.000312066
-6.73064e-06
0.00031426
-6.57358e-06
0.0003164
-6.41185e-06
0.000318484
-6.24546e-06
0.000320511
-6.07445e-06
0.00032248
-5.89883e-06
0.000324389
-5.71866e-06
0.000326236
-5.53398e-06
0.00032802
-5.34485e-06
0.00032974
-5.15135e-06
0.000331393
-4.95355e-06
0.000332979
-4.75154e-06
0.000334497
-4.54541e-06
0.000335944
-4.33528e-06
0.00033732
-4.12126e-06
0.000338623
-3.90347e-06
0.000339852
-3.68205e-06
0.000341006
-3.45715e-06
0.000342084
-3.22891e-06
0.000343085
-2.99749e-06
0.000344008
-2.76308e-06
0.000344851
-2.52583e-06
0.000345615
-2.28595e-06
0.000346297
-2.04362e-06
0.000346898
-1.79905e-06
0.000347416
-1.55243e-06
0.000347852
-1.30398e-06
0.000348204
-1.05392e-06
0.000348472
-8.02466e-07
0.000348656
-5.49851e-07
0.000348755
-2.96301e-07
0.000348769
-4.20457e-08
0.000348699
2.12668e-07
0.000348543
4.67617e-07
0.000348302
7.22558e-07
0.000347976
9.77254e-07
0.000347565
1.23147e-06
0.000347069
1.48496e-06
0.00034649
1.73751e-06
0.000345826
1.98887e-06
0.000345079
2.23882e-06
0.000344249
2.48713e-06
0.000343336
2.73359e-06
0.000342342
2.97798e-06
0.000341268
3.22009e-06
0.000340113
3.45971e-06
0.000338879
3.69666e-06
0.000337567
3.93073e-06
0.000336178
4.16176e-06
0.000334713
4.38957e-06
0.000333173
4.61399e-06
0.000331559
4.83486e-06
0.000329873
5.05205e-06
0.000328116
5.26541e-06
0.000326289
5.47481e-06
0.000324393
5.68013e-06
0.00032243
5.88126e-06
0.000320402
6.07812e-06
0.000318309
6.27059e-06
0.000316154
6.45861e-06
0.000313937
6.6421e-06
0.000311661
6.821e-06
0.000309327
6.99527e-06
0.000306936
7.16485e-06
0.00030449
7.32972e-06
0.000301991
7.48984e-06
0.00029944
7.64521e-06
0.000296838
7.79582e-06
0.000294188
7.94167e-06
0.000291492
8.08276e-06
0.000288749
8.21912e-06
0.000285963
8.35076e-06
0.000283135
8.47772e-06
0.000280265
8.60003e-06
0.000277357
8.71774e-06
0.000274411
8.8309e-06
0.000271428
8.93956e-06
0.000268411
9.04378e-06
0.000265361
9.14362e-06
0.000262279
9.23917e-06
0.000259167
9.33048e-06
0.000256025
9.41763e-06
0.000252856
9.50072e-06
0.000249661
9.57982e-06
0.00024644
9.65501e-06
0.000243196
9.72639e-06
0.000239929
9.79405e-06
0.000236641
9.85808e-06
0.000233333
9.91858e-06
0.000230006
9.97564e-06
0.000226661
1.00294e-05
0.000223299
1.00799e-05
0.000219922
1.01272e-05
0.00021653
1.01715e-05
0.000213124
1.02129e-05
0.000209705
1.02514e-05
0.000206275
1.02872e-05
0.000202833
1.03203e-05
0.000199382
1.0351e-05
0.000195921
1.03791e-05
0.000192451
1.04049e-05
0.000188974
1.04285e-05
0.000185489
1.04499e-05
0.000181998
1.04693e-05
0.000178502
1.04867e-05
0.000175
1.05022e-05
0.000171494
1.0516e-05
0.000167984
1.0528e-05
0.00016447
1.05385e-05
0.000160953
1.05474e-05
0.000157434
1.0555e-05
0.000153913
1.05611e-05
0.00015039
1.0566e-05
0.000146867
1.05697e-05
0.000143342
1.05723e-05
0.000139817
1.05738e-05
0.000136291
1.05744e-05
0.000132766
1.05741e-05
0.000129242
1.05729e-05
0.000125718
1.0571e-05
0.000122194
1.05684e-05
0.000118672
1.05652e-05
0.000115152
1.05614e-05
0.000111632
1.05571e-05
0.000108115
1.05524e-05
0.000104599
1.05472e-05
0.000101085
1.05417e-05
9.75725e-05
1.05359e-05
9.40624e-05
1.05299e-05
9.05544e-05
1.05237e-05
8.70486e-05
1.05173e-05
8.35449e-05
1.05109e-05
8.00434e-05
1.05044e-05
7.65442e-05
1.04978e-05
7.30471e-05
1.04913e-05
6.95522e-05
1.04848e-05
6.60594e-05
1.04784e-05
6.25688e-05
1.04722e-05
5.90802e-05
1.0466e-05
5.55936e-05
1.04601e-05
5.2109e-05
1.04544e-05
4.86261e-05
1.04489e-05
4.51451e-05
1.04437e-05
4.16656e-05
1.04387e-05
3.81878e-05
1.04341e-05
3.47114e-05
1.04298e-05
3.12363e-05
1.04258e-05
2.77625e-05
1.04221e-05
2.42897e-05
1.04189e-05
2.08179e-05
1.0416e-05
1.7347e-05
1.04135e-05
1.38767e-05
1.04114e-05
1.04071e-05
1.04097e-05
6.93781e-06
1.04085e-05
3.46883e-06
1.04076e-05
1.04072e-05
3.17618e-06
-1.27066e-05
6.3525e-06
-1.27071e-05
9.52909e-06
-1.27082e-05
1.27061e-05
-1.27098e-05
1.58836e-05
-1.2712e-05
1.90619e-05
-1.27147e-05
2.22409e-05
-1.27179e-05
2.54209e-05
-1.27217e-05
2.86019e-05
-1.27259e-05
3.17842e-05
-1.27307e-05
3.49678e-05
-1.2736e-05
3.81528e-05
-1.27417e-05
4.13394e-05
-1.27479e-05
4.45276e-05
-1.27546e-05
4.77177e-05
-1.27616e-05
5.09096e-05
-1.27692e-05
5.41036e-05
-1.27771e-05
5.72996e-05
-1.27854e-05
6.04978e-05
-1.2794e-05
6.36983e-05
-1.2803e-05
6.69011e-05
-1.28123e-05
7.01064e-05
-1.28219e-05
7.33141e-05
-1.28317e-05
7.65244e-05
-1.28418e-05
7.97372e-05
-1.2852e-05
8.29527e-05
-1.28625e-05
8.61709e-05
-1.2873e-05
8.93918e-05
-1.28837e-05
9.26154e-05
-1.28944e-05
9.58417e-05
-1.29052e-05
9.90707e-05
-1.29159e-05
0.000102302
-1.29266e-05
0.000105537
-1.29371e-05
0.000108774
-1.29475e-05
0.000112014
-1.29578e-05
0.000115256
-1.29677e-05
0.0001185
-1.29774e-05
0.000121748
-1.29867e-05
0.000124997
-1.29956e-05
0.000128248
-1.3004e-05
0.000131502
-1.30119e-05
0.000134757
-1.30192e-05
0.000138014
-1.30259e-05
0.000141273
-1.30318e-05
0.000144533
-1.30369e-05
0.000147794
-1.30412e-05
0.000151056
-1.30445e-05
0.000154319
-1.30468e-05
0.000157582
-1.3048e-05
0.000160845
-1.3048e-05
0.000164108
-1.30468e-05
0.00016737
-1.30442e-05
0.000170632
-1.30401e-05
0.000173892
-1.30345e-05
0.00017715
-1.30273e-05
0.000180406
-1.30184e-05
0.00018366
-1.30077e-05
0.00018691
-1.2995e-05
0.000190157
-1.29803e-05
0.0001934
-1.29635e-05
0.000196638
-1.29444e-05
0.000199871
-1.29229e-05
0.000203098
-1.2899e-05
0.000206319
-1.28726e-05
0.000209532
-1.28434e-05
0.000212737
-1.28114e-05
0.000215934
-1.27765e-05
0.000219122
-1.27385e-05
0.000222299
-1.26974e-05
0.000225465
-1.26529e-05
0.000228619
-1.2605e-05
0.000231761
-1.25536e-05
0.000234889
-1.24984e-05
0.000238002
-1.24395e-05
0.0002411
-1.23766e-05
0.000244181
-1.23097e-05
0.000247245
-1.22386e-05
0.000250289
-1.21632e-05
0.000253314
-1.20833e-05
0.000256318
-1.19989e-05
0.000259299
-1.19097e-05
0.000262258
-1.18158e-05
0.000265191
-1.17169e-05
0.000268099
-1.1613e-05
0.00027098
-1.15039e-05
0.000273832
-1.13896e-05
0.000276654
-1.12698e-05
0.000279445
-1.11446e-05
0.000282203
-1.10138e-05
0.000284928
-1.08774e-05
0.000287617
-1.07352e-05
0.000290269
-1.05871e-05
0.000292882
-1.04331e-05
0.000295456
-1.02731e-05
0.000297988
-1.01071e-05
0.000300477
-9.935e-06
0.000302922
-9.75672e-06
0.00030532
-9.57225e-06
0.000307671
-9.38157e-06
0.000309973
-9.18464e-06
0.000312223
-8.98146e-06
0.000314422
-8.77204e-06
0.000316566
-8.55637e-06
0.000318655
-8.33448e-06
0.000320687
-8.1064e-06
0.000322661
-7.87218e-06
0.000324574
-7.63187e-06
0.000326425
-7.38554e-06
0.000328214
-7.13327e-06
0.000329938
-6.87515e-06
0.000331595
-6.61128e-06
0.000333186
-6.34178e-06
0.000334707
-6.06678e-06
0.000336158
-5.78642e-06
0.000337538
-5.50086e-06
0.000338845
-5.21027e-06
0.000340077
-4.91482e-06
0.000341235
-4.61471e-06
0.000342316
-4.31014e-06
0.00034332
-4.00132e-06
0.000344245
-3.68849e-06
0.000345091
-3.37188e-06
0.000345857
-3.05174e-06
0.000346542
-2.72832e-06
0.000347145
-2.4019e-06
0.000347665
-2.07275e-06
0.000348102
-1.74115e-06
0.000348456
-1.40739e-06
0.000348725
-1.07177e-06
0.00034891
-7.3459e-07
0.00034901
-3.96163e-07
0.000349024
-5.67891e-08
0.000348954
2.83195e-07
0.000348798
6.23495e-07
0.000348557
9.63785e-07
0.00034823
1.30375e-06
0.000347819
1.64307e-06
0.000347322
1.98143e-06
0.000346741
2.31851e-06
0.000346076
2.65401e-06
0.000345327
2.98763e-06
0.000344495
3.31905e-06
0.000343581
3.648e-06
0.000342585
3.97417e-06
0.000341507
4.2973e-06
0.00034035
4.6171e-06
0.000339113
4.93332e-06
0.000337798
5.24571e-06
0.000336406
5.55402e-06
0.000334938
5.85801e-06
0.000333394
6.15748e-06
0.000331777
6.45221e-06
0.000330087
6.74201e-06
0.000328326
7.02668e-06
0.000326494
7.30607e-06
0.000324594
7.58e-06
0.000322627
7.84834e-06
0.000320595
8.11095e-06
0.000318497
8.36771e-06
0.000316338
8.61851e-06
0.000314116
8.86326e-06
0.000311836
9.10188e-06
0.000309497
9.3343e-06
0.000307101
9.56046e-06
0.00030465
9.78032e-06
0.000302146
9.99384e-06
0.00029959
1.0201e-05
0.000296984
1.04018e-05
0.00029433
1.05963e-05
0.000291628
1.07844e-05
0.000288881
1.09661e-05
0.00028609
1.11416e-05
0.000283257
1.13108e-05
0.000280383
1.14739e-05
0.00027747
1.16307e-05
0.00027452
1.17815e-05
0.000271533
1.19263e-05
0.000268512
1.20652e-05
0.000265457
1.21982e-05
0.000262371
1.23255e-05
0.000259254
1.24471e-05
0.000256109
1.25632e-05
0.000252936
1.26738e-05
0.000249736
1.27792e-05
0.000246512
1.28793e-05
0.000243264
1.29743e-05
0.000239994
1.30644e-05
0.000236702
1.31496e-05
0.000233391
1.32301e-05
0.00023006
1.33061e-05
0.000226712
1.33775e-05
0.000223347
1.34447e-05
0.000219967
1.35077e-05
0.000216572
1.35666e-05
0.000213163
1.36216e-05
0.000209742
1.36728e-05
0.000206308
1.37204e-05
0.000202864
1.37644e-05
0.00019941
1.38051e-05
0.000195947
1.38425e-05
0.000192475
1.38767e-05
0.000188996
1.3908e-05
0.000185509
1.39364e-05
0.000182016
1.39621e-05
0.000178518
1.39852e-05
0.000175014
1.40058e-05
0.000171506
1.4024e-05
0.000167994
1.40399e-05
0.000164479
1.40537e-05
0.000160961
1.40655e-05
0.000157441
1.40754e-05
0.000153918
1.40835e-05
0.000150394
1.40899e-05
0.00014687
1.40947e-05
0.000143344
1.4098e-05
0.000139818
1.40999e-05
0.000136291
1.41006e-05
0.000132766
1.41001e-05
0.00012924
1.40984e-05
0.000125715
1.40958e-05
0.000122191
1.40922e-05
0.000118669
1.40878e-05
0.000115148
1.40827e-05
0.000111628
1.40769e-05
0.00010811
1.40704e-05
0.000104593
1.40635e-05
0.000101079
1.40561e-05
9.75667e-05
1.40483e-05
9.40564e-05
1.40402e-05
9.05483e-05
1.40318e-05
8.70423e-05
1.40233e-05
8.35386e-05
1.40146e-05
8.00371e-05
1.40059e-05
7.65378e-05
1.39971e-05
7.30408e-05
1.39883e-05
6.9546e-05
1.39796e-05
6.60534e-05
1.39711e-05
6.25629e-05
1.39626e-05
5.90745e-05
1.39545e-05
5.55881e-05
1.39465e-05
5.21036e-05
1.39388e-05
4.8621e-05
1.39315e-05
4.51402e-05
1.39245e-05
4.16611e-05
1.39178e-05
3.81836e-05
1.39116e-05
3.47075e-05
1.39058e-05
3.12328e-05
1.39005e-05
2.77593e-05
1.38956e-05
2.42869e-05
1.38912e-05
2.08155e-05
1.38874e-05
1.7345e-05
1.38841e-05
1.38751e-05
1.38813e-05
1.04058e-05
1.3879e-05
6.93698e-06
1.38773e-05
3.46842e-06
1.38762e-05
1.38756e-05
3.17564e-06
-1.58823e-05
6.35142e-06
-1.58829e-05
9.52747e-06
-1.58843e-05
1.27039e-05
-1.58863e-05
1.5881e-05
-1.5889e-05
1.90587e-05
-1.58924e-05
2.22372e-05
-1.58965e-05
2.54167e-05
-1.59012e-05
2.85972e-05
-1.59065e-05
3.1779e-05
-1.59125e-05
3.49621e-05
-1.59191e-05
3.81466e-05
-1.59263e-05
4.13328e-05
-1.5934e-05
4.45206e-05
-1.59424e-05
4.77103e-05
-1.59513e-05
5.09018e-05
-1.59607e-05
5.40954e-05
-1.59706e-05
5.72911e-05
-1.5981e-05
6.04889e-05
-1.59919e-05
6.36891e-05
-1.60032e-05
6.68917e-05
-1.60148e-05
7.00967e-05
-1.60268e-05
7.33042e-05
-1.60392e-05
7.65142e-05
-1.60518e-05
7.97269e-05
-1.60647e-05
8.29423e-05
-1.60778e-05
8.61604e-05
-1.60911e-05
8.93812e-05
-1.61045e-05
9.26048e-05
-1.6118e-05
9.58311e-05
-1.61315e-05
9.90602e-05
-1.6145e-05
0.000102292
-1.61584e-05
0.000105527
-1.61717e-05
0.000108764
-1.61848e-05
0.000112004
-1.61977e-05
0.000115246
-1.62102e-05
0.000118491
-1.62224e-05
0.000121739
-1.62342e-05
0.000124989
-1.62454e-05
0.000128241
-1.62561e-05
0.000131495
-1.6266e-05
0.000134751
-1.62753e-05
0.000138009
-1.62837e-05
0.000141268
-1.62913e-05
0.000144529
-1.62978e-05
0.000147791
-1.63033e-05
0.000151054
-1.63076e-05
0.000154318
-1.63106e-05
0.000157582
-1.63122e-05
0.000160846
-1.63124e-05
0.000164111
-1.6311e-05
0.000167374
-1.63079e-05
0.000170637
-1.6303e-05
0.000173899
-1.62962e-05
0.000177159
-1.62874e-05
0.000180417
-1.62764e-05
0.000183673
-1.62632e-05
0.000186925
-1.62475e-05
0.000190174
-1.62294e-05
0.000193419
-1.62085e-05
0.00019666
-1.61849e-05
0.000199895
-1.61583e-05
0.000203125
-1.61286e-05
0.000206348
-1.60958e-05
0.000209564
-1.60595e-05
0.000212773
-1.60198e-05
0.000215972
-1.59763e-05
0.000219163
-1.59291e-05
0.000222344
-1.58779e-05
0.000225513
-1.58225e-05
0.000228671
-1.57629e-05
0.000231816
-1.56989e-05
0.000234948
-1.56302e-05
0.000238065
-1.55568e-05
0.000241167
-1.54784e-05
0.000244253
-1.5395e-05
0.00024732
-1.53063e-05
0.000250369
-1.52123e-05
0.000253399
-1.51127e-05
0.000256407
-1.50074e-05
0.000259394
-1.48962e-05
0.000262357
-1.4779e-05
0.000265296
-1.46556e-05
0.000268209
-1.45259e-05
0.000271094
-1.43898e-05
0.000273952
-1.4247e-05
0.00027678
-1.40976e-05
0.000279576
-1.39412e-05
0.00028234
-1.37779e-05
0.00028507
-1.36075e-05
0.000287765
-1.34299e-05
0.000290423
-1.32449e-05
0.000293042
-1.30526e-05
0.000295622
-1.28528e-05
0.00029816
-1.26453e-05
0.000300656
-1.24303e-05
0.000303106
-1.22075e-05
0.000305511
-1.1977e-05
0.000307868
-1.17386e-05
0.000310176
-1.14925e-05
0.000312433
-1.12385e-05
0.000314638
-1.09767e-05
0.000316788
-1.07071e-05
0.000318884
-1.04297e-05
0.000320922
-1.01445e-05
0.000322901
-9.85162e-06
0.00032482
-9.55111e-06
0.000326678
-9.24305e-06
0.000328472
-8.92753e-06
0.000330202
-8.60468e-06
0.000331865
-8.27463e-06
0.000333461
-7.93751e-06
0.000334988
-7.59349e-06
0.000336444
-7.24276e-06
0.000337829
-6.8855e-06
0.00033914
-6.52192e-06
0.000340378
-6.15225e-06
0.00034154
-5.77673e-06
0.000342625
-5.39561e-06
0.000343633
-5.00917e-06
0.000344562
-4.61769e-06
0.000345412
-4.22146e-06
0.000346181
-3.8208e-06
0.000346868
-3.41603e-06
0.000347474
-3.00749e-06
0.000347997
-2.59552e-06
0.000348436
-2.18047e-06
0.000348791
-1.76272e-06
0.000349062
-1.34263e-06
0.000349248
-9.20582e-07
0.000349349
-4.96966e-07
0.000349365
-7.21615e-08
0.000349294
3.5341e-07
0.000349138
7.79378e-07
0.000348897
1.20533e-06
0.00034857
1.63088e-06
0.000348157
2.05562e-06
0.000347659
2.47915e-06
0.000347077
2.90109e-06
0.00034641
3.32104e-06
0.000345659
3.73862e-06
0.000344824
4.15345e-06
0.000343907
4.56517e-06
0.000342908
4.97341e-06
0.000341828
5.37782e-06
0.000340667
5.77807e-06
0.000339426
6.17382e-06
0.000338107
6.56475e-06
0.00033671
6.95057e-06
0.000335238
7.33098e-06
0.000333689
7.70571e-06
0.000332067
8.07449e-06
0.000330372
8.43708e-06
0.000328605
8.79324e-06
0.000326769
9.14277e-06
0.000324863
9.48546e-06
0.00032289
9.82113e-06
0.000320852
1.01496e-05
0.000318749
1.04708e-05
0.000316583
1.07844e-05
0.000314355
1.10905e-05
0.000312068
1.13889e-05
0.000309723
1.16796e-05
0.000307321
1.19624e-05
0.000304864
1.22372e-05
0.000302354
1.25042e-05
0.000299792
1.27632e-05
0.000297179
1.30142e-05
0.000294518
1.32572e-05
0.000291811
1.34923e-05
0.000289057
1.37195e-05
0.00028626
1.39387e-05
0.000283421
1.41502e-05
0.000280541
1.43538e-05