/*--------------------------------*- C++ -*----------------------------------*\
| =========                 |                                                 |
| \\      /  F ield         | OpenFOAM: The Open Source CFD Toolbox           |
|  \\    /   O peration     | Version:  v2012                                 |
|   \\  /    A nd           | Website:  www.openfoam.com                      |
|    \\/     M anipulation  |                                                 |
\*---------------------------------------------------------------------------*/
FoamFile
{
    version     2.0;
    format      ascii;
    class       volVectorField;
    location    "19.5";
    object      Psi;
}
// * * * * * * * * * * * * * * * * * * * * * * * * * * * * * * * * * * * * * //

dimensions      [0 2 -1 0 0 0 0];


internalField   nonuniform List<vector> 
65536
(
(0 0 7.94368e-06)
(0 0 2.38314e-05)
(0 0 3.97201e-05)
(0 0 5.56105e-05)
(0 0 7.15032e-05)
(0 0 8.7399e-05)
(0 0 0.000103298)
(0 0 0.000119202)
(0 0 0.000135111)
(0 0 0.000151025)
(0 0 0.000166946)
(0 0 0.000182873)
(0 0 0.000198808)
(0 0 0.000214751)
(0 0 0.000230703)
(0 0 0.000246663)
(0 0 0.000262633)
(0 0 0.000278613)
(0 0 0.000294604)
(0 0 0.000310605)
(0 0 0.000326618)
(0 0 0.000342643)
(0 0 0.00035868)
(0 0 0.000374729)
(0 0 0.00039079)
(0 0 0.000406865)
(0 0 0.000422952)
(0 0 0.000439053)
(0 0 0.000455167)
(0 0 0.000471294)
(0 0 0.000487434)
(0 0 0.000503588)
(0 0 0.000519755)
(0 0 0.000535935)
(0 0 0.000552127)
(0 0 0.000568332)
(0 0 0.000584549)
(0 0 0.000600778)
(0 0 0.000617018)
(0 0 0.000633269)
(0 0 0.000649529)
(0 0 0.000665799)
(0 0 0.000682078)
(0 0 0.000698364)
(0 0 0.000714656)
(0 0 0.000730955)
(0 0 0.000747257)
(0 0 0.000763563)
(0 0 0.000779871)
(0 0 0.00079618)
(0 0 0.000812487)
(0 0 0.000828792)
(0 0 0.000845092)
(0 0 0.000861386)
(0 0 0.000877671)
(0 0 0.000893946)
(0 0 0.000910209)
(0 0 0.000926456)
(0 0 0.000942686)
(0 0 0.000958896)
(0 0 0.000975083)
(0 0 0.000991244)
(0 0 0.00100738)
(0 0 0.00102348)
(0 0 0.00103954)
(0 0 0.00105557)
(0 0 0.00107155)
(0 0 0.00108749)
(0 0 0.00110338)
(0 0 0.00111922)
(0 0 0.00113499)
(0 0 0.00115071)
(0 0 0.00116635)
(0 0 0.00118193)
(0 0 0.00119743)
(0 0 0.00121284)
(0 0 0.00122817)
(0 0 0.00124341)
(0 0 0.00125855)
(0 0 0.00127359)
(0 0 0.00128852)
(0 0 0.00130333)
(0 0 0.00131802)
(0 0 0.00133259)
(0 0 0.00134702)
(0 0 0.00136131)
(0 0 0.00137546)
(0 0 0.00138945)
(0 0 0.00140328)
(0 0 0.00141694)
(0 0 0.00143043)
(0 0 0.00144374)
(0 0 0.00145686)
(0 0 0.00146978)
(0 0 0.00148249)
(0 0 0.001495)
(0 0 0.00150729)
(0 0 0.00151935)
(0 0 0.00153117)
(0 0 0.00154275)
(0 0 0.00155409)
(0 0 0.00156516)
(0 0 0.00157597)
(0 0 0.0015865)
(0 0 0.00159676)
(0 0 0.00160672)
(0 0 0.00161639)
(0 0 0.00162575)
(0 0 0.00163481)
(0 0 0.00164354)
(0 0 0.00165195)
(0 0 0.00166002)
(0 0 0.00166776)
(0 0 0.00167515)
(0 0 0.00168218)
(0 0 0.00168886)
(0 0 0.00169517)
(0 0 0.00170111)
(0 0 0.00170667)
(0 0 0.00171185)
(0 0 0.00171664)
(0 0 0.00172104)
(0 0 0.00172504)
(0 0 0.00172864)
(0 0 0.00173183)
(0 0 0.00173462)
(0 0 0.00173699)
(0 0 0.00173895)
(0 0 0.00174049)
(0 0 0.00174161)
(0 0 0.00174231)
(0 0 0.00174259)
(0 0 0.00174244)
(0 0 0.00174188)
(0 0 0.00174088)
(0 0 0.00173946)
(0 0 0.00173762)
(0 0 0.00173536)
(0 0 0.00173267)
(0 0 0.00172957)
(0 0 0.00172605)
(0 0 0.00172211)
(0 0 0.00171777)
(0 0 0.00171301)
(0 0 0.00170785)
(0 0 0.00170229)
(0 0 0.00169633)
(0 0 0.00168998)
(0 0 0.00168324)
(0 0 0.00167613)
(0 0 0.00166863)
(0 0 0.00166076)
(0 0 0.00165253)
(0 0 0.00164395)
(0 0 0.00163501)
(0 0 0.00162572)
(0 0 0.0016161)
(0 0 0.00160614)
(0 0 0.00159586)
(0 0 0.00158526)
(0 0 0.00157436)
(0 0 0.00156315)
(0 0 0.00155165)
(0 0 0.00153986)
(0 0 0.00152779)
(0 0 0.00151545)
(0 0 0.00150285)
(0 0 0.00149)
(0 0 0.00147689)
(0 0 0.00146355)
(0 0 0.00144998)
(0 0 0.00143618)
(0 0 0.00142217)
(0 0 0.00140795)
(0 0 0.00139353)
(0 0 0.00137892)
(0 0 0.00136412)
(0 0 0.00134914)
(0 0 0.001334)
(0 0 0.00131869)
(0 0 0.00130322)
(0 0 0.00128761)
(0 0 0.00127186)
(0 0 0.00125596)
(0 0 0.00123994)
(0 0 0.0012238)
(0 0 0.00120754)
(0 0 0.00119117)
(0 0 0.0011747)
(0 0 0.00115813)
(0 0 0.00114147)
(0 0 0.00112472)
(0 0 0.00110788)
(0 0 0.00109097)
(0 0 0.00107399)
(0 0 0.00105695)
(0 0 0.00103984)
(0 0 0.00102267)
(0 0 0.00100545)
(0 0 0.000988177)
(0 0 0.000970862)
(0 0 0.000953505)
(0 0 0.00093611)
(0 0 0.000918681)
(0 0 0.000901221)
(0 0 0.000883734)
(0 0 0.000866221)
(0 0 0.000848687)
(0 0 0.000831134)
(0 0 0.000813565)
(0 0 0.000795982)
(0 0 0.000778387)
(0 0 0.000760783)
(0 0 0.000743171)
(0 0 0.000725554)
(0 0 0.000707934)
(0 0 0.000690311)
(0 0 0.000672688)
(0 0 0.000655066)
(0 0 0.000637447)
(0 0 0.000619831)
(0 0 0.00060222)
(0 0 0.000584614)
(0 0 0.000567016)
(0 0 0.000549424)
(0 0 0.000531841)
(0 0 0.000514266)
(0 0 0.000496701)
(0 0 0.000479146)
(0 0 0.0004616)
(0 0 0.000444065)
(0 0 0.000426541)
(0 0 0.000409027)
(0 0 0.000391524)
(0 0 0.000374032)
(0 0 0.000356551)
(0 0 0.00033908)
(0 0 0.00032162)
(0 0 0.00030417)
(0 0 0.00028673)
(0 0 0.0002693)
(0 0 0.000251879)
(0 0 0.000234467)
(0 0 0.000217063)
(0 0 0.000199667)
(0 0 0.000182279)
(0 0 0.000164898)
(0 0 0.000147523)
(0 0 0.000130153)
(0 0 0.000112789)
(0 0 9.54291e-05)
(0 0 7.80732e-05)
(0 0 6.07203e-05)
(0 0 4.33699e-05)
(0 0 2.60212e-05)
(0 0 8.67363e-06)
(0 0 2.38308e-05)
(0 0 7.14933e-05)
(0 0 0.000119159)
(0 0 0.000166829)
(0 0 0.000214507)
(0 0 0.000262194)
(0 0 0.000309891)
(0 0 0.000357602)
(0 0 0.000405328)
(0 0 0.00045307)
(0 0 0.000500832)
(0 0 0.000548614)
(0 0 0.000596418)
(0 0 0.000644246)
(0 0 0.000692099)
(0 0 0.00073998)
(0 0 0.00078789)
(0 0 0.00083583)
(0 0 0.000883801)
(0 0 0.000931806)
(0 0 0.000979844)
(0 0 0.00102792)
(0 0 0.00107603)
(0 0 0.00112417)
(0 0 0.00117236)
(0 0 0.00122058)
(0 0 0.00126884)
(0 0 0.00131715)
(0 0 0.00136549)
(0 0 0.00141387)
(0 0 0.00146229)
(0 0 0.00151075)
(0 0 0.00155925)
(0 0 0.00160779)
(0 0 0.00165637)
(0 0 0.00170499)
(0 0 0.00175364)
(0 0 0.00180232)
(0 0 0.00185105)
(0 0 0.0018998)
(0 0 0.00194858)
(0 0 0.00199739)
(0 0 0.00204623)
(0 0 0.00209509)
(0 0 0.00214397)
(0 0 0.00219286)
(0 0 0.00224177)
(0 0 0.00229069)
(0 0 0.00233962)
(0 0 0.00238854)
(0 0 0.00243747)
(0 0 0.00248638)
(0 0 0.00253528)
(0 0 0.00258417)
(0 0 0.00263303)
(0 0 0.00268185)
(0 0 0.00273064)
(0 0 0.00277939)
(0 0 0.00282808)
(0 0 0.00287671)
(0 0 0.00292528)
(0 0 0.00297376)
(0 0 0.00302216)
(0 0 0.00307047)
(0 0 0.00311867)
(0 0 0.00316675)
(0 0 0.00321471)
(0 0 0.00326253)
(0 0 0.0033102)
(0 0 0.00335771)
(0 0 0.00340504)
(0 0 0.00345219)
(0 0 0.00349913)
(0 0 0.00354586)
(0 0 0.00359236)
(0 0 0.00363862)
(0 0 0.00368462)
(0 0 0.00373034)
(0 0 0.00377576)
(0 0 0.00382088)
(0 0 0.00386567)
(0 0 0.00391012)
(0 0 0.0039542)
(0 0 0.0039979)
(0 0 0.0040412)
(0 0 0.00408408)
(0 0 0.00412653)
(0 0 0.00416851)
(0 0 0.00421001)
(0 0 0.004251)
(0 0 0.00429148)
(0 0 0.0043314)
(0 0 0.00437077)
(0 0 0.00440954)
(0 0 0.0044477)
(0 0 0.00448522)
(0 0 0.00452209)
(0 0 0.00455828)
(0 0 0.00459376)
(0 0 0.00462851)
(0 0 0.00466252)
(0 0 0.00469575)
(0 0 0.00472818)
(0 0 0.00475979)
(0 0 0.00479056)
(0 0 0.00482046)
(0 0 0.00484948)
(0 0 0.00487758)
(0 0 0.00490474)
(0 0 0.00493095)
(0 0 0.00495619)
(0 0 0.00498042)
(0 0 0.00500363)
(0 0 0.0050258)
(0 0 0.00504692)
(0 0 0.00506695)
(0 0 0.00508588)
(0 0 0.00510371)
(0 0 0.00512039)
(0 0 0.00513593)
(0 0 0.00515031)
(0 0 0.00516351)
(0 0 0.00517552)
(0 0 0.00518632)
(0 0 0.00519591)
(0 0 0.00520426)
(0 0 0.00521139)
(0 0 0.00521727)
(0 0 0.00522189)
(0 0 0.00522526)
(0 0 0.00522736)
(0 0 0.0052282)
(0 0 0.00522776)
(0 0 0.00522605)
(0 0 0.00522307)
(0 0 0.00521882)
(0 0 0.00521329)
(0 0 0.0052065)
(0 0 0.00519844)
(0 0 0.00518913)
(0 0 0.00517857)
(0 0 0.00516676)
(0 0 0.00515371)
(0 0 0.00513944)
(0 0 0.00512395)
(0 0 0.00510727)
(0 0 0.00508939)
(0 0 0.00507033)
(0 0 0.00505012)
(0 0 0.00502876)
(0 0 0.00500626)
(0 0 0.00498266)
(0 0 0.00495796)
(0 0 0.00493219)
(0 0 0.00490536)
(0 0 0.0048775)
(0 0 0.00484862)
(0 0 0.00481874)
(0 0 0.0047879)
(0 0 0.0047561)
(0 0 0.00472337)
(0 0 0.00468974)
(0 0 0.00465523)
(0 0 0.00461985)
(0 0 0.00458365)
(0 0 0.00454662)
(0 0 0.00450881)
(0 0 0.00447024)
(0 0 0.00443092)
(0 0 0.00439089)
(0 0 0.00435016)
(0 0 0.00430876)
(0 0 0.00426672)
(0 0 0.00422405)
(0 0 0.00418078)
(0 0 0.00413694)
(0 0 0.00409254)
(0 0 0.0040476)
(0 0 0.00400216)
(0 0 0.00395622)
(0 0 0.00390982)
(0 0 0.00386298)
(0 0 0.0038157)
(0 0 0.00376802)
(0 0 0.00371995)
(0 0 0.00367152)
(0 0 0.00362274)
(0 0 0.00357363)
(0 0 0.0035242)
(0 0 0.00347448)
(0 0 0.00342449)
(0 0 0.00337423)
(0 0 0.00332373)
(0 0 0.003273)
(0 0 0.00322205)
(0 0 0.0031709)
(0 0 0.00311957)
(0 0 0.00306806)
(0 0 0.00301639)
(0 0 0.00296458)
(0 0 0.00291263)
(0 0 0.00286055)
(0 0 0.00280836)
(0 0 0.00275607)
(0 0 0.00270369)
(0 0 0.00265122)
(0 0 0.00259869)
(0 0 0.00254608)
(0 0 0.00249342)
(0 0 0.00244071)
(0 0 0.00238796)
(0 0 0.00233517)
(0 0 0.00228236)
(0 0 0.00222952)
(0 0 0.00217667)
(0 0 0.0021238)
(0 0 0.00207093)
(0 0 0.00201806)
(0 0 0.0019652)
(0 0 0.00191234)
(0 0 0.00185949)
(0 0 0.00180665)
(0 0 0.00175384)
(0 0 0.00170104)
(0 0 0.00164826)
(0 0 0.00159551)
(0 0 0.00154279)
(0 0 0.00149009)
(0 0 0.00143743)
(0 0 0.00138479)
(0 0 0.00133218)
(0 0 0.00127961)
(0 0 0.00122707)
(0 0 0.00117456)
(0 0 0.00112209)
(0 0 0.00106964)
(0 0 0.00101723)
(0 0 0.000964849)
(0 0 0.0009125)
(0 0 0.00086018)
(0 0 0.00080789)
(0 0 0.000755627)
(0 0 0.000703391)
(0 0 0.000651181)
(0 0 0.000598994)
(0 0 0.00054683)
(0 0 0.000494686)
(0 0 0.000442562)
(0 0 0.000390454)
(0 0 0.000338362)
(0 0 0.000286284)
(0 0 0.000234216)
(0 0 0.000182158)
(0 0 0.000130108)
(0 0 7.80627e-05)
(0 0 2.60205e-05)
(0 0 3.97168e-05)
(0 0 0.000119152)
(0 0 0.000198592)
(0 0 0.000278041)
(0 0 0.000357502)
(0 0 0.000436977)
(0 0 0.000516471)
(0 0 0.000595987)
(0 0 0.000675528)
(0 0 0.000755097)
(0 0 0.000834697)
(0 0 0.000914332)
(0 0 0.000994003)
(0 0 0.00107371)
(0 0 0.00115347)
(0 0 0.00123327)
(0 0 0.00131312)
(0 0 0.00139302)
(0 0 0.00147297)
(0 0 0.00155297)
(0 0 0.00163304)
(0 0 0.00171316)
(0 0 0.00179334)
(0 0 0.00187358)
(0 0 0.00195389)
(0 0 0.00203426)
(0 0 0.0021147)
(0 0 0.0021952)
(0 0 0.00227577)
(0 0 0.00235641)
(0 0 0.00243711)
(0 0 0.00251788)
(0 0 0.00259871)
(0 0 0.00267961)
(0 0 0.00276058)
(0 0 0.0028416)
(0 0 0.00292269)
(0 0 0.00300384)
(0 0 0.00308504)
(0 0 0.0031663)
(0 0 0.0032476)
(0 0 0.00332896)
(0 0 0.00341035)
(0 0 0.00349179)
(0 0 0.00357326)
(0 0 0.00365476)
(0 0 0.00373628)
(0 0 0.00381781)
(0 0 0.00389936)
(0 0 0.00398091)
(0 0 0.00406245)
(0 0 0.00414399)
(0 0 0.0042255)
(0 0 0.00430698)
(0 0 0.00438841)
(0 0 0.0044698)
(0 0 0.00455112)
(0 0 0.00463237)
(0 0 0.00471354)
(0 0 0.0047946)
(0 0 0.00487555)
(0 0 0.00495637)
(0 0 0.00503705)
(0 0 0.00511757)
(0 0 0.00519791)
(0 0 0.00527807)
(0 0 0.00535801)
(0 0 0.00543772)
(0 0 0.00551718)
(0 0 0.00559638)
(0 0 0.00567528)
(0 0 0.00575387)
(0 0 0.00583213)
(0 0 0.00591003)
(0 0 0.00598755)
(0 0 0.00606466)
(0 0 0.00614133)
(0 0 0.00621755)
(0 0 0.00629328)
(0 0 0.0063685)
(0 0 0.00644317)
(0 0 0.00651727)
(0 0 0.00659076)
(0 0 0.00666362)
(0 0 0.00673581)
(0 0 0.0068073)
(0 0 0.00687806)
(0 0 0.00694805)
(0 0 0.00701724)
(0 0 0.00708559)
(0 0 0.00715307)
(0 0 0.00721964)
(0 0 0.00728527)
(0 0 0.00734991)
(0 0 0.00741354)
(0 0 0.0074761)
(0 0 0.00753757)
(0 0 0.00759791)
(0 0 0.00765707)
(0 0 0.00771502)
(0 0 0.00777172)
(0 0 0.00782713)
(0 0 0.00788121)
(0 0 0.00793393)
(0 0 0.00798524)
(0 0 0.0080351)
(0 0 0.00808348)
(0 0 0.00813034)
(0 0 0.00817564)
(0 0 0.00821935)
(0 0 0.00826142)
(0 0 0.00830183)
(0 0 0.00834054)
(0 0 0.00837752)
(0 0 0.00841273)
(0 0 0.00844614)
(0 0 0.00847772)
(0 0 0.00850744)
(0 0 0.00853527)
(0 0 0.00856119)
(0 0 0.00858516)
(0 0 0.00860718)
(0 0 0.0086272)
(0 0 0.00864522)
(0 0 0.00866121)
(0 0 0.00867515)
(0 0 0.00868703)
(0 0 0.00869684)
(0 0 0.00870455)
(0 0 0.00871017)
(0 0 0.00871368)
(0 0 0.00871508)
(0 0 0.00871435)
(0 0 0.00871151)
(0 0 0.00870654)
(0 0 0.00869944)
(0 0 0.00869023)
(0 0 0.00867891)
(0 0 0.00866547)
(0 0 0.00864994)
(0 0 0.00863233)
(0 0 0.00861263)
(0 0 0.00859088)
(0 0 0.00856708)
(0 0 0.00854126)
(0 0 0.00851343)
(0 0 0.00848362)
(0 0 0.00845185)
(0 0 0.00841814)
(0 0 0.00838252)
(0 0 0.00834501)
(0 0 0.00830565)
(0 0 0.00826447)
(0 0 0.00822149)
(0 0 0.00817676)
(0 0 0.00813029)
(0 0 0.00808214)
(0 0 0.00803232)
(0 0 0.00798089)
(0 0 0.00792787)
(0 0 0.0078733)
(0 0 0.00781722)
(0 0 0.00775967)
(0 0 0.00770069)
(0 0 0.00764031)
(0 0 0.00757859)
(0 0 0.00751554)
(0 0 0.00745122)
(0 0 0.00738567)
(0 0 0.00731892)
(0 0 0.00725102)
(0 0 0.00718199)
(0 0 0.00711189)
(0 0 0.00704075)
(0 0 0.00696861)
(0 0 0.00689551)
(0 0 0.00682149)
(0 0 0.00674657)
(0 0 0.00667081)
(0 0 0.00659423)
(0 0 0.00651687)
(0 0 0.00643877)
(0 0 0.00635995)
(0 0 0.00628047)
(0 0 0.00620033)
(0 0 0.00611959)
(0 0 0.00603827)
(0 0 0.00595639)
(0 0 0.005874)
(0 0 0.00579112)
(0 0 0.00570777)
(0 0 0.00562399)
(0 0 0.0055398)
(0 0 0.00545523)
(0 0 0.00537031)
(0 0 0.00528504)
(0 0 0.00519947)
(0 0 0.00511361)
(0 0 0.00502749)
(0 0 0.00494111)
(0 0 0.00485452)
(0 0 0.00476771)
(0 0 0.00468072)
(0 0 0.00459356)
(0 0 0.00450624)
(0 0 0.00441879)
(0 0 0.00433122)
(0 0 0.00424353)
(0 0 0.00415575)
(0 0 0.0040679)
(0 0 0.00397997)
(0 0 0.00389198)
(0 0 0.00380395)
(0 0 0.00371588)
(0 0 0.00362779)
(0 0 0.00353968)
(0 0 0.00345156)
(0 0 0.00336344)
(0 0 0.00327532)
(0 0 0.00318722)
(0 0 0.00309913)
(0 0 0.00301107)
(0 0 0.00292304)
(0 0 0.00283504)
(0 0 0.00274708)
(0 0 0.00265916)
(0 0 0.00257129)
(0 0 0.00248346)
(0 0 0.00239568)
(0 0 0.00230795)
(0 0 0.00222027)
(0 0 0.00213265)
(0 0 0.00204508)
(0 0 0.00195757)
(0 0 0.00187011)
(0 0 0.0017827)
(0 0 0.00169535)
(0 0 0.00160805)
(0 0 0.0015208)
(0 0 0.0014336)
(0 0 0.00134645)
(0 0 0.00125935)
(0 0 0.00117229)
(0 0 0.00108528)
(0 0 0.000998299)
(0 0 0.000911361)
(0 0 0.000824457)
(0 0 0.000737584)
(0 0 0.000650741)
(0 0 0.000563923)
(0 0 0.000477127)
(0 0 0.00039035)
(0 0 0.000303589)
(0 0 0.000216841)
(0 0 0.000130101)
(0 0 4.33664e-05)
(0 0 5.56012e-05)
(0 0 0.000166806)
(0 0 0.000278018)
(0 0 0.000389241)
(0 0 0.000500481)
(0 0 0.000611743)
(0 0 0.00072303)
(0 0 0.000834348)
(0 0 0.0009457)
(0 0 0.00105709)
(0 0 0.00116853)
(0 0 0.00128001)
(0 0 0.00139155)
(0 0 0.00150314)
(0 0 0.00161479)
(0 0 0.00172651)
(0 0 0.00183829)
(0 0 0.00195015)
(0 0 0.00206208)
(0 0 0.00217408)
(0 0 0.00228617)
(0 0 0.00239834)
(0 0 0.00251059)
(0 0 0.00262293)
(0 0 0.00273536)
(0 0 0.00284788)
(0 0 0.00296049)
(0 0 0.00307319)
(0 0 0.00318599)
(0 0 0.00329888)
(0 0 0.00341186)
(0 0 0.00352494)
(0 0 0.00363811)
(0 0 0.00375137)
(0 0 0.00386472)
(0 0 0.00397816)
(0 0 0.00409169)
(0 0 0.0042053)
(0 0 0.00431898)
(0 0 0.00443275)
(0 0 0.00454658)
(0 0 0.00466048)
(0 0 0.00477444)
(0 0 0.00488846)
(0 0 0.00500252)
(0 0 0.00511663)
(0 0 0.00523076)
(0 0 0.00534492)
(0 0 0.0054591)
(0 0 0.00557328)
(0 0 0.00568746)
(0 0 0.00580161)
(0 0 0.00591574)
(0 0 0.00602982)
(0 0 0.00614385)
(0 0 0.00625781)
(0 0 0.00637168)
(0 0 0.00648545)
(0 0 0.00659909)
(0 0 0.0067126)
(0 0 0.00682595)
(0 0 0.00693912)
(0 0 0.00705209)
(0 0 0.00716484)
(0 0 0.00727735)
(0 0 0.00738959)
(0 0 0.00750153)
(0 0 0.00761316)
(0 0 0.00772443)
(0 0 0.00783534)
(0 0 0.00794583)
(0 0 0.00805589)
(0 0 0.00816549)
(0 0 0.00827458)
(0 0 0.00838314)
(0 0 0.00849113)
(0 0 0.00859851)
(0 0 0.00870526)
(0 0 0.00881132)
(0 0 0.00891666)
(0 0 0.00902124)
(0 0 0.00912502)
(0 0 0.00922795)
(0 0 0.00933)
(0 0 0.00943111)
(0 0 0.00953125)
(0 0 0.00963035)
(0 0 0.00972839)
(0 0 0.0098253)
(0 0 0.00992105)
(0 0 0.0100156)
(0 0 0.0101088)
(0 0 0.0102008)
(0 0 0.0102913)
(0 0 0.0103804)
(0 0 0.0104681)
(0 0 0.0105542)
(0 0 0.0106387)
(0 0 0.0107216)
(0 0 0.0108028)
(0 0 0.0108822)
(0 0 0.0109598)
(0 0 0.0110356)
(0 0 0.0111095)
(0 0 0.0111814)
(0 0 0.0112512)
(0 0 0.011319)
(0 0 0.0113847)
(0 0 0.0114481)
(0 0 0.0115094)
(0 0 0.0115683)
(0 0 0.0116249)
(0 0 0.0116792)
(0 0 0.011731)
(0 0 0.0117803)
(0 0 0.0118272)
(0 0 0.0118714)
(0 0 0.0119131)
(0 0 0.0119521)
(0 0 0.0119884)
(0 0 0.012022)
(0 0 0.0120528)
(0 0 0.0120809)
(0 0 0.0121061)
(0 0 0.0121286)
(0 0 0.0121481)
(0 0 0.0121648)
(0 0 0.0121785)
(0 0 0.0121893)
(0 0 0.0121972)
(0 0 0.0122021)
(0 0 0.0122041)
(0 0 0.0122031)
(0 0 0.0121991)
(0 0 0.0121921)
(0 0 0.0121822)
(0 0 0.0121693)
(0 0 0.0121534)
(0 0 0.0121346)
(0 0 0.0121128)
(0 0 0.0120882)
(0 0 0.0120606)
(0 0 0.0120301)
(0 0 0.0119968)
(0 0 0.0119606)
(0 0 0.0119216)
(0 0 0.0118798)
(0 0 0.0118353)
(0 0 0.0117881)
(0 0 0.0117382)
(0 0 0.0116856)
(0 0 0.0116305)
(0 0 0.0115728)
(0 0 0.0115126)
(0 0 0.0114499)
(0 0 0.0113848)
(0 0 0.0113173)
(0 0 0.0112475)
(0 0 0.0111755)
(0 0 0.0111012)
(0 0 0.0110247)
(0 0 0.0109462)
(0 0 0.0108655)
(0 0 0.0107829)
(0 0 0.0106983)
(0 0 0.0106119)
(0 0 0.0105235)
(0 0 0.0104334)
(0 0 0.0103416)
(0 0 0.0102481)
(0 0 0.010153)
(0 0 0.0100563)
(0 0 0.00995811)
(0 0 0.00985846)
(0 0 0.00975741)
(0 0 0.00965502)
(0 0 0.00955133)
(0 0 0.0094464)
(0 0 0.00934028)
(0 0 0.00923301)
(0 0 0.00912466)
(0 0 0.00901527)
(0 0 0.00890489)
(0 0 0.00879356)
(0 0 0.00868133)
(0 0 0.00856824)
(0 0 0.00845435)
(0 0 0.00833968)
(0 0 0.00822429)
(0 0 0.00810822)
(0 0 0.00799149)
(0 0 0.00787417)
(0 0 0.00775627)
(0 0 0.00763783)
(0 0 0.0075189)
(0 0 0.0073995)
(0 0 0.00727967)
(0 0 0.00715943)
(0 0 0.00703883)
(0 0 0.00691788)
(0 0 0.00679662)
(0 0 0.00667507)
(0 0 0.00655325)
(0 0 0.0064312)
(0 0 0.00630894)
(0 0 0.00618648)
(0 0 0.00606386)
(0 0 0.00594108)
(0 0 0.00581817)
(0 0 0.00569515)
(0 0 0.00557204)
(0 0 0.00544885)
(0 0 0.00532559)
(0 0 0.00520228)
(0 0 0.00507893)
(0 0 0.00495557)
(0 0 0.00483219)
(0 0 0.00470881)
(0 0 0.00458544)
(0 0 0.00446208)
(0 0 0.00433876)
(0 0 0.00421546)
(0 0 0.00409221)
(0 0 0.00396901)
(0 0 0.00384586)
(0 0 0.00372277)
(0 0 0.00359974)
(0 0 0.00347678)
(0 0 0.00335388)
(0 0 0.00323106)
(0 0 0.00310831)
(0 0 0.00298564)
(0 0 0.00286304)
(0 0 0.00274052)
(0 0 0.00261808)
(0 0 0.00249571)
(0 0 0.00237342)
(0 0 0.0022512)
(0 0 0.00212905)
(0 0 0.00200698)
(0 0 0.00188497)
(0 0 0.00176303)
(0 0 0.00164115)
(0 0 0.00151933)
(0 0 0.00139757)
(0 0 0.00127586)
(0 0 0.0011542)
(0 0 0.00103258)
(0 0 0.000911002)
(0 0 0.000789461)
(0 0 0.000667952)
(0 0 0.000546469)
(0 0 0.000425008)
(0 0 0.000303565)
(0 0 0.000182134)
(0 0 6.07105e-05)
(0 0 7.14832e-05)
(0 0 0.000214453)
(0 0 0.000357431)
(0 0 0.000500425)
(0 0 0.00064344)
(0 0 0.000786482)
(0 0 0.000929558)
(0 0 0.00107267)
(0 0 0.00121583)
(0 0 0.00135904)
(0 0 0.00150231)
(0 0 0.00164564)
(0 0 0.00178904)
(0 0 0.00193251)
(0 0 0.00207606)
(0 0 0.00221968)
(0 0 0.0023634)
(0 0 0.00250721)
(0 0 0.00265111)
(0 0 0.00279511)
(0 0 0.00293922)
(0 0 0.00308343)
(0 0 0.00322775)
(0 0 0.00337219)
(0 0 0.00351673)
(0 0 0.0036614)
(0 0 0.00380618)
(0 0 0.00395108)
(0 0 0.00409611)
(0 0 0.00424125)
(0 0 0.00438652)
(0 0 0.00453191)
(0 0 0.00467741)
(0 0 0.00482304)
(0 0 0.00496878)
(0 0 0.00511464)
(0 0 0.0052606)
(0 0 0.00540668)
(0 0 0.00555285)
(0 0 0.00569913)
(0 0 0.00584549)
(0 0 0.00599195)
(0 0 0.00613848)
(0 0 0.00628508)
(0 0 0.00643175)
(0 0 0.00657847)
(0 0 0.00672523)
(0 0 0.00687202)
(0 0 0.00701884)
(0 0 0.00716566)
(0 0 0.00731248)
(0 0 0.00745927)
(0 0 0.00760603)
(0 0 0.00775273)
(0 0 0.00789936)
(0 0 0.00804591)
(0 0 0.00819234)
(0 0 0.00833864)
(0 0 0.00848479)
(0 0 0.00863076)
(0 0 0.00877653)
(0 0 0.00892207)
(0 0 0.00906736)
(0 0 0.00921237)
(0 0 0.00935706)
(0 0 0.00950141)
(0 0 0.00964538)
(0 0 0.00978894)
(0 0 0.00993206)
(0 0 0.0100747)
(0 0 0.0102168)
(0 0 0.0103584)
(0 0 0.0104993)
(0 0 0.0106397)
(0 0 0.0107793)
(0 0 0.0109182)
(0 0 0.0110563)
(0 0 0.0111936)
(0 0 0.0113301)
(0 0 0.0114656)
(0 0 0.0116001)
(0 0 0.0117336)
(0 0 0.011866)
(0 0 0.0119973)
(0 0 0.0121274)
(0 0 0.0122562)
(0 0 0.0123837)
(0 0 0.0125099)
(0 0 0.0126345)
(0 0 0.0127577)
(0 0 0.0128793)
(0 0 0.0129993)
(0 0 0.0131176)
(0 0 0.0132341)
(0 0 0.0133488)
(0 0 0.0134616)
(0 0 0.0135724)
(0 0 0.0136812)
(0 0 0.0137878)
(0 0 0.0138923)
(0 0 0.0139945)
(0 0 0.0140944)
(0 0 0.0141919)
(0 0 0.014287)
(0 0 0.0143795)
(0 0 0.0144694)
(0 0 0.0145567)
(0 0 0.0146412)
(0 0 0.0147229)
(0 0 0.0148017)
(0 0 0.0148776)
(0 0 0.0149504)
(0 0 0.0150203)
(0 0 0.015087)
(0 0 0.0151505)
(0 0 0.0152107)
(0 0 0.0152677)
(0 0 0.0153213)
(0 0 0.0153715)
(0 0 0.0154183)
(0 0 0.0154616)
(0 0 0.0155013)
(0 0 0.0155374)
(0 0 0.0155699)
(0 0 0.0155988)
(0 0 0.0156239)
(0 0 0.0156454)
(0 0 0.0156631)
(0 0 0.015677)
(0 0 0.0156872)
(0 0 0.0156935)
(0 0 0.0156961)
(0 0 0.0156948)
(0 0 0.0156896)
(0 0 0.0156807)
(0 0 0.0156679)
(0 0 0.0156513)
(0 0 0.0156309)
(0 0 0.0156067)
(0 0 0.0155787)
(0 0 0.0155469)
(0 0 0.0155114)
(0 0 0.0154722)
(0 0 0.0154293)
(0 0 0.0153827)
(0 0 0.0153325)
(0 0 0.0152788)
(0 0 0.0152215)
(0 0 0.0151607)
(0 0 0.0150965)
(0 0 0.0150288)
(0 0 0.0149578)
(0 0 0.0148836)
(0 0 0.0148061)
(0 0 0.0147254)
(0 0 0.0146416)
(0 0 0.0145548)
(0 0 0.014465)
(0 0 0.0143723)
(0 0 0.0142767)
(0 0 0.0141783)
(0 0 0.0140772)
(0 0 0.0139734)
(0 0 0.0138671)
(0 0 0.0137583)
(0 0 0.013647)
(0 0 0.0135333)
(0 0 0.0134174)
(0 0 0.0132992)
(0 0 0.0131789)
(0 0 0.0130565)
(0 0 0.0129321)
(0 0 0.0128058)
(0 0 0.0126776)
(0 0 0.0125476)
(0 0 0.0124158)
(0 0 0.0122824)
(0 0 0.0121474)
(0 0 0.0120109)
(0 0 0.0118729)
(0 0 0.0117335)
(0 0 0.0115928)
(0 0 0.0114508)
(0 0 0.0113076)
(0 0 0.0111632)
(0 0 0.0110177)
(0 0 0.0108712)
(0 0 0.0107237)
(0 0 0.0105753)
(0 0 0.010426)
(0 0 0.0102758)
(0 0 0.0101249)
(0 0 0.00997327)
(0 0 0.00982093)
(0 0 0.00966796)
(0 0 0.00951439)
(0 0 0.00936027)
(0 0 0.00920563)
(0 0 0.00905052)
(0 0 0.00889496)
(0 0 0.00873901)
(0 0 0.00858268)
(0 0 0.00842603)
(0 0 0.00826906)
(0 0 0.00811183)
(0 0 0.00795435)
(0 0 0.00779665)
(0 0 0.00763877)
(0 0 0.00748071)
(0 0 0.00732251)
(0 0 0.00716419)
(0 0 0.00700577)
(0 0 0.00684728)
(0 0 0.00668871)
(0 0 0.00653011)
(0 0 0.00637147)
(0 0 0.00621282)
(0 0 0.00605417)
(0 0 0.00589554)
(0 0 0.00573692)
(0 0 0.00557835)
(0 0 0.00541982)
(0 0 0.00526134)
(0 0 0.00510293)
(0 0 0.00494458)
(0 0 0.00478631)
(0 0 0.00462813)
(0 0 0.00447003)
(0 0 0.00431202)
(0 0 0.0041541)
(0 0 0.00399628)
(0 0 0.00383855)
(0 0 0.00368093)
(0 0 0.0035234)
(0 0 0.00336597)
(0 0 0.00320864)
(0 0 0.00305141)
(0 0 0.00289428)
(0 0 0.00273724)
(0 0 0.00258029)
(0 0 0.00242342)
(0 0 0.00226665)
(0 0 0.00210995)
(0 0 0.00195333)
(0 0 0.00179679)
(0 0 0.00164031)
(0 0 0.00148389)
(0 0 0.00132753)
(0 0 0.00117123)
(0 0 0.00101497)
(0 0 0.00085875)
(0 0 0.000702566)
(0 0 0.00054641)
(0 0 0.000390277)
(0 0 0.00023416)
(0 0 7.80523e-05)
(0 0 8.73621e-05)
(0 0 0.00026209)
(0 0 0.000436829)
(0 0 0.000611587)
(0 0 0.000786371)
(0 0 0.000961189)
(0 0 0.00113605)
(0 0 0.00131095)
(0 0 0.00148592)
(0 0 0.00166094)
(0 0 0.00183603)
(0 0 0.0020112)
(0 0 0.00218646)
(0 0 0.0023618)
(0 0 0.00253724)
(0 0 0.00271277)
(0 0 0.00288842)
(0 0 0.00306417)
(0 0 0.00324005)
(0 0 0.00341604)
(0 0 0.00359216)
(0 0 0.00376842)
(0 0 0.0039448)
(0 0 0.00412133)
(0 0 0.004298)
(0 0 0.0044748)
(0 0 0.00465176)
(0 0 0.00482886)
(0 0 0.00500611)
(0 0 0.00518351)
(0 0 0.00536106)
(0 0 0.00553876)
(0 0 0.0057166)
(0 0 0.00589459)
(0 0 0.00607273)
(0 0 0.006251)
(0 0 0.00642941)
(0 0 0.00660795)
(0 0 0.00678662)
(0 0 0.00696542)
(0 0 0.00714432)
(0 0 0.00732333)
(0 0 0.00750245)
(0 0 0.00768164)
(0 0 0.00786092)
(0 0 0.00804027)
(0 0 0.00821966)
(0 0 0.0083991)
(0 0 0.00857857)
(0 0 0.00875805)
(0 0 0.00893752)
(0 0 0.00911697)
(0 0 0.00929637)
(0 0 0.00947571)
(0 0 0.00965497)
(0 0 0.00983412)
(0 0 0.0100131)
(0 0 0.010192)
(0 0 0.0103707)
(0 0 0.0105491)
(0 0 0.0107273)
(0 0 0.0109053)
(0 0 0.0110829)
(0 0 0.0112602)
(0 0 0.0114371)
(0 0 0.0116136)
(0 0 0.0117896)
(0 0 0.0119652)
(0 0 0.0121402)
(0 0 0.0123146)
(0 0 0.0124884)
(0 0 0.0126615)
(0 0 0.0128338)
(0 0 0.0130054)
(0 0 0.0131762)
(0 0 0.0133461)
(0 0 0.013515)
(0 0 0.0136829)
(0 0 0.0138498)
(0 0 0.0140155)
(0 0 0.01418)
(0 0 0.0143433)
(0 0 0.0145053)
(0 0 0.0146658)
(0 0 0.0148249)
(0 0 0.0149825)
(0 0 0.0151385)
(0 0 0.0152928)
(0 0 0.0154453)
(0 0 0.015596)
(0 0 0.0157448)
(0 0 0.0158915)
(0 0 0.0160362)
(0 0 0.0161788)
(0 0 0.0163191)
(0 0 0.0164571)
(0 0 0.0165927)
(0 0 0.0167257)
(0 0 0.0168562)
(0 0 0.0169841)
(0 0 0.0171092)
(0 0 0.0172314)
(0 0 0.0173507)
(0 0 0.017467)
(0 0 0.0175802)
(0 0 0.0176903)
(0 0 0.017797)
(0 0 0.0179005)
(0 0 0.0180005)
(0 0 0.0180969)
(0 0 0.0181898)
(0 0 0.018279)
(0 0 0.0183645)
(0 0 0.0184461)
(0 0 0.0185239)
(0 0 0.0185976)
(0 0 0.0186674)
(0 0 0.018733)
(0 0 0.0187945)
(0 0 0.0188517)
(0 0 0.0189047)
(0 0 0.0189533)
(0 0 0.0189975)
(0 0 0.0190374)
(0 0 0.0190727)
(0 0 0.0191035)
(0 0 0.0191298)
(0 0 0.0191515)
(0 0 0.0191685)
(0 0 0.019181)
(0 0 0.0191887)
(0 0 0.0191919)
(0 0 0.0191903)
(0 0 0.019184)
(0 0 0.0191731)
(0 0 0.0191575)
(0 0 0.0191371)
(0 0 0.0191122)
(0 0 0.0190825)
(0 0 0.0190483)
(0 0 0.0190094)
(0 0 0.018966)
(0 0 0.018918)
(0 0 0.0188654)
(0 0 0.0188085)
(0 0 0.0187471)
(0 0 0.0186813)
(0 0 0.0186111)
(0 0 0.0185367)
(0 0 0.0184581)
(0 0 0.0183754)
(0 0 0.0182885)
(0 0 0.0181976)
(0 0 0.0181028)
(0 0 0.0180041)
(0 0 0.0179016)
(0 0 0.0177953)
(0 0 0.0176854)
(0 0 0.0175719)
(0 0 0.017455)
(0 0 0.0173346)
(0 0 0.0172109)
(0 0 0.0170839)
(0 0 0.0169538)
(0 0 0.0168206)
(0 0 0.0166845)
(0 0 0.0165454)
(0 0 0.0164036)
(0 0 0.016259)
(0 0 0.0161118)
(0 0 0.0159621)
(0 0 0.0158099)
(0 0 0.0156553)
(0 0 0.0154985)
(0 0 0.0153394)
(0 0 0.0151783)
(0 0 0.0150151)
(0 0 0.01485)
(0 0 0.014683)
(0 0 0.0145142)
(0 0 0.0143437)
(0 0 0.0141716)
(0 0 0.0139979)
(0 0 0.0138227)
(0 0 0.0136461)
(0 0 0.0134682)
(0 0 0.013289)
(0 0 0.0131087)
(0 0 0.0129271)
(0 0 0.0127445)
(0 0 0.0125609)
(0 0 0.0123764)
(0 0 0.012191)
(0 0 0.0120047)
(0 0 0.0118176)
(0 0 0.0116298)
(0 0 0.0114414)
(0 0 0.0112523)
(0 0 0.0110626)
(0 0 0.0108725)
(0 0 0.0106818)
(0 0 0.0104906)
(0 0 0.0102991)
(0 0 0.0101072)
(0 0 0.00991497)
(0 0 0.00972244)
(0 0 0.00952965)
(0 0 0.00933662)
(0 0 0.0091434)
(0 0 0.00895)
(0 0 0.00875645)
(0 0 0.00856279)
(0 0 0.00836903)
(0 0 0.0081752)
(0 0 0.00798131)
(0 0 0.00778739)
(0 0 0.00759346)
(0 0 0.00739953)
(0 0 0.00720562)
(0 0 0.00701173)
(0 0 0.0068179)
(0 0 0.00662412)
(0 0 0.00643041)
(0 0 0.00623678)
(0 0 0.00604323)
(0 0 0.00584978)
(0 0 0.00565643)
(0 0 0.00546319)
(0 0 0.00527006)
(0 0 0.00507704)
(0 0 0.00488415)
(0 0 0.00469137)
(0 0 0.00449872)
(0 0 0.00430618)
(0 0 0.00411377)
(0 0 0.00392148)
(0 0 0.00372932)
(0 0 0.00353726)
(0 0 0.00334533)
(0 0 0.00315351)
(0 0 0.00296179)
(0 0 0.00277019)
(0 0 0.00257868)
(0 0 0.00238726)
(0 0 0.00219594)
(0 0 0.0020047)
(0 0 0.00181353)
(0 0 0.00162244)
(0 0 0.00143141)
(0 0 0.00124044)
(0 0 0.00104951)
(0 0 0.000858635)
(0 0 0.000667791)
(0 0 0.000476974)
(0 0 0.000286176)
(0 0 9.53908e-05)
(0 0 0.000103237)
(0 0 0.000309716)
(0 0 0.000516209)
(0 0 0.000722723)
(0 0 0.000929269)
(0 0 0.00113585)
(0 0 0.00134249)
(0 0 0.00154918)
(0 0 0.00175594)
(0 0 0.00196277)
(0 0 0.00216968)
(0 0 0.00237669)
(0 0 0.00258379)
(0 0 0.00279099)
(0 0 0.00299831)
(0 0 0.00320576)
(0 0 0.00341332)
(0 0 0.00362102)
(0 0 0.00382886)
(0 0 0.00403685)
(0 0 0.00424498)
(0 0 0.00445327)
(0 0 0.00466172)
(0 0 0.00487033)
(0 0 0.00507911)
(0 0 0.00528807)
(0 0 0.00549719)
(0 0 0.00570649)
(0 0 0.00591597)
(0 0 0.00612562)
(0 0 0.00633545)
(0 0 0.00654546)
(0 0 0.00675564)
(0 0 0.006966)
(0 0 0.00717653)
(0 0 0.00738723)
(0 0 0.00759809)
(0 0 0.00780911)
(0 0 0.00802028)
(0 0 0.00823159)
(0 0 0.00844305)
(0 0 0.00865463)
(0 0 0.00886632)
(0 0 0.00907813)
(0 0 0.00929003)
(0 0 0.00950201)
(0 0 0.00971406)
(0 0 0.00992616)
(0 0 0.0101383)
(0 0 0.0103504)
(0 0 0.0105626)
(0 0 0.0107747)
(0 0 0.0109868)
(0 0 0.0111988)
(0 0 0.0114107)
(0 0 0.0116225)
(0 0 0.0118341)
(0 0 0.0120455)
(0 0 0.0122568)
(0 0 0.0124677)
(0 0 0.0126784)
(0 0 0.0128888)
(0 0 0.0130988)
(0 0 0.0133084)
(0 0 0.0135176)
(0 0 0.0137263)
(0 0 0.0139344)
(0 0 0.014142)
(0 0 0.0143489)
(0 0 0.0145551)
(0 0 0.0147606)
(0 0 0.0149653)
(0 0 0.0151691)
(0 0 0.015372)
(0 0 0.015574)
(0 0 0.0157749)
(0 0 0.0159746)
(0 0 0.0161732)
(0 0 0.0163706)
(0 0 0.0165666)
(0 0 0.0167612)
(0 0 0.0169543)
(0 0 0.0171459)
(0 0 0.0173358)
(0 0 0.017524)
(0 0 0.0177104)
(0 0 0.0178949)
(0 0 0.0180774)
(0 0 0.0182579)
(0 0 0.0184361)
(0 0 0.0186122)
(0 0 0.0187858)
(0 0 0.018957)
(0 0 0.0191257)
(0 0 0.0192917)
(0 0 0.019455)
(0 0 0.0196154)
(0 0 0.0197729)
(0 0 0.0199273)
(0 0 0.0200786)
(0 0 0.0202266)
(0 0 0.0203713)
(0 0 0.0205125)
(0 0 0.0206502)
(0 0 0.0207842)
(0 0 0.0209144)
(0 0 0.0210408)
(0 0 0.0211632)
(0 0 0.0212816)
(0 0 0.0213958)
(0 0 0.0215057)
(0 0 0.0216113)
(0 0 0.0217125)
(0 0 0.0218092)
(0 0 0.0219012)
(0 0 0.0219885)
(0 0 0.0220711)
(0 0 0.0221488)
(0 0 0.0222216)
(0 0 0.0222894)
(0 0 0.0223521)
(0 0 0.0224097)
(0 0 0.0224621)
(0 0 0.0225093)
(0 0 0.0225511)
(0 0 0.0225876)
(0 0 0.0226187)
(0 0 0.0226444)
(0 0 0.0226647)
(0 0 0.0226794)
(0 0 0.0226886)
(0 0 0.0226923)
(0 0 0.0226905)
(0 0 0.0226831)
(0 0 0.0226702)
(0 0 0.0226517)
(0 0 0.0226277)
(0 0 0.0225981)
(0 0 0.022563)
(0 0 0.0225225)
(0 0 0.0224765)
(0 0 0.0224251)
(0 0 0.0223682)
(0 0 0.0223061)
(0 0 0.0222386)
(0 0 0.022166)
(0 0 0.0220881)
(0 0 0.0220051)
(0 0 0.021917)
(0 0 0.021824)
(0 0 0.021726)
(0 0 0.0216232)
(0 0 0.0215157)
(0 0 0.0214034)
(0 0 0.0212866)
(0 0 0.0211652)
(0 0 0.0210395)
(0 0 0.0209094)
(0 0 0.0207751)
(0 0 0.0206366)
(0 0 0.0204942)
(0 0 0.0203478)
(0 0 0.0201975)
(0 0 0.0200436)
(0 0 0.019886)
(0 0 0.0197249)
(0 0 0.0195603)
(0 0 0.0193925)
(0 0 0.0192214)
(0 0 0.0190473)
(0 0 0.0188701)
(0 0 0.01869)
(0 0 0.0185072)
(0 0 0.0183216)
(0 0 0.0181334)
(0 0 0.0179428)
(0 0 0.0177497)
(0 0 0.0175544)
(0 0 0.0173568)
(0 0 0.0171572)
(0 0 0.0169555)
(0 0 0.0167519)
(0 0 0.0165465)
(0 0 0.0163393)
(0 0 0.0161304)
(0 0 0.01592)
(0 0 0.0157081)
(0 0 0.0154948)
(0 0 0.0152801)
(0 0 0.0150641)
(0 0 0.014847)
(0 0 0.0146288)
(0 0 0.0144095)
(0 0 0.0141892)
(0 0 0.013968)
(0 0 0.013746)
(0 0 0.0135231)
(0 0 0.0132996)
(0 0 0.0130753)
(0 0 0.0128504)
(0 0 0.012625)
(0 0 0.012399)
(0 0 0.0121726)
(0 0 0.0119457)