/*--------------------------------*- C++ -*----------------------------------*\
| =========                 |                                                 |
| \\      /  F ield         | OpenFOAM: The Open Source CFD Toolbox           |
|  \\    /   O peration     | Version:  v2012                                 |
|   \\  /    A nd           | Website:  www.openfoam.com                      |
|    \\/     M anipulation  |                                                 |
\*---------------------------------------------------------------------------*/
FoamFile
{
    version     2.0;
    format      ascii;
    class       volScalarField;
    location    "0";
    object      p;
}
// * * * * * * * * * * * * * * * * * * * * * * * * * * * * * * * * * * * * * //

dimensions      [0 2 -2 0 0 0 0];


internalField   nonuniform List<scalar> 
4000
(
5.89174e-14
5.48476e-14
7.17831e-14
7.46222e-14
7.4978e-14
6.78208e-14
5.70678e-14
5.72724e-14
6.36609e-14
6.20143e-14
6.33217e-14
7.09648e-14
5.53185e-14
4.10593e-14
3.32069e-14
3.37785e-14
3.19e-14
2.81673e-14
3.00153e-14
2.45177e-14
1.96169e-14
1.7001e-14
1.62549e-14
1.70737e-14
1.44439e-14
9.82621e-15
4.44669e-15
-2.14176e-15
-3.47737e-15
-9.03087e-15
-5.04667e-15
-1.16979e-14
-1.57145e-14
-1.64278e-14
-2.55117e-14
-3.25096e-14
-3.7193e-14
-4.97282e-14
-6.7647e-14
-6.75511e-14
-5.88768e-14
-5.92411e-14
-6.39455e-14
-5.92007e-14
-6.76087e-14
-6.52132e-14
-6.5968e-14
-7.17808e-14
-7.2036e-14
-7.33303e-14
-8.19864e-14
-9.46945e-14
-9.72205e-14
-9.52212e-14
-1.0191e-13
-1.09103e-13
-1.04026e-13
-1.039e-13
-1.06981e-13
-1.01224e-13
-1.034e-13
-1.00948e-13
-1.09148e-13
-1.10406e-13
-9.99325e-14
-9.20953e-14
-8.64324e-14
-8.6222e-14
-7.50845e-14
-7.42355e-14
-6.7218e-14
-5.94754e-14
-6.21904e-14
-6.03844e-14
-5.26447e-14
-4.82878e-14
-3.82392e-14
-3.04292e-14
-3.28124e-14
-4.7299e-14
-4.33971e-14
-3.77412e-14
-4.40983e-14
-3.91441e-14
-3.35444e-14
-2.93408e-14
-2.67561e-14
-1.97016e-14
-1.77485e-14
-1.05749e-14
-9.38215e-15
-7.49263e-15
-1.41519e-14
-1.72918e-14
-1.62045e-14
-1.82222e-14
-1.00077e-14
-1.01157e-14
-7.11739e-15
-2.95513e-15
5.72578e-14
6.02553e-14
6.93117e-14
6.8758e-14
7.21496e-14
6.68444e-14
6.42897e-14
6.17124e-14
6.35505e-14
6.56325e-14
6.3422e-14
6.39009e-14
5.38276e-14
4.43738e-14
3.35748e-14
3.41852e-14
3.44986e-14
3.1945e-14
2.60153e-14
2.84926e-14
1.8444e-14
1.64019e-14
1.38436e-14
1.46175e-14
1.51428e-14
1.07823e-14
3.05597e-15
-7.84113e-16
-6.28777e-15
-8.34957e-15
-1.27494e-14
-1.00237e-14
-1.20786e-14
-2.08723e-14
-2.67615e-14
-3.00637e-14
-3.81479e-14
-4.82753e-14
-6.06792e-14
-6.57693e-14
-5.90806e-14
-6.33717e-14
-6.37201e-14
-6.01174e-14
-6.34896e-14
-6.56099e-14
-6.8927e-14
-6.97599e-14
-7.22363e-14
-7.87739e-14
-8.35031e-14
-9.15749e-14
-9.50679e-14
-9.77817e-14
-9.99603e-14
-1.04458e-13
-1.04044e-13
-1.06754e-13
-1.10317e-13
-1.04735e-13
-1.01236e-13
-1.04829e-13
-1.07636e-13
-1.03395e-13
-1.02834e-13
-9.62947e-14
-9.05275e-14
-8.42021e-14
-7.66275e-14
-7.27758e-14
-6.41406e-14
-6.15343e-14
-6.00905e-14
-5.6285e-14
-5.18488e-14
-4.82597e-14
-4.0333e-14
-3.53964e-14
-3.50283e-14
-4.59857e-14
-3.96482e-14
-3.65902e-14
-4.14906e-14
-3.61429e-14
-3.4783e-14
-3.08967e-14
-3.17606e-14
-2.27182e-14
-1.84097e-14
-1.14722e-14
-6.65676e-15
-5.92782e-15
-8.66317e-15
-1.8506e-14
-1.86608e-14
-1.51283e-14
-9.87974e-15
-1.04239e-14
-1.07455e-14
-2.06471e-17
5.78409e-14
5.65754e-14
6.72499e-14
6.90988e-14
7.64529e-14
6.76993e-14
6.56876e-14
6.70496e-14
5.83038e-14
6.58656e-14
6.23115e-14
6.02594e-14
5.37367e-14
5.32915e-14
4.48125e-14
3.55808e-14
3.39351e-14
3.11533e-14
2.98047e-14
2.32047e-14
1.10686e-14
1.67001e-14
1.76595e-14
1.64771e-14
1.28032e-14
8.8022e-15
3.88238e-15
-2.40793e-15
-6.47262e-15
-7.1361e-15
-9.83167e-15
-1.3966e-14
-1.39725e-14
-1.96922e-14
-2.34212e-14
-2.81089e-14
-3.83789e-14
-4.58469e-14
-5.49277e-14
-6.25985e-14
-5.96466e-14
-6.50105e-14
-6.34116e-14
-6.1129e-14
-5.87438e-14
-6.57722e-14
-7.26206e-14
-6.85143e-14
-7.16209e-14
-7.75993e-14
-8.36931e-14
-8.97554e-14
-9.47533e-14
-1.00477e-13
-9.82676e-14
-1.02096e-13
-1.01354e-13
-1.04329e-13
-1.03094e-13
-1.07184e-13
-1.03935e-13
-1.0754e-13
-1.08788e-13
-1.08705e-13
-9.94931e-14
-9.4521e-14
-8.83181e-14
-8.20563e-14
-7.44183e-14
-7.19212e-14
-6.97481e-14
-6.34208e-14
-6.14727e-14
-5.47554e-14
-5.37507e-14
-4.561e-14
-4.3077e-14
-3.67286e-14
-3.3974e-14
-4.16189e-14
-3.74661e-14
-3.71638e-14
-4.32283e-14
-3.48649e-14
-3.34966e-14
-2.60618e-14
-2.83234e-14
-2.1895e-14
-1.91199e-14
-1.41822e-14
-4.64919e-15
-9.82098e-15
-9.12454e-15
-1.50587e-14
-2.14756e-14
-1.5379e-14
-7.99697e-15
-7.69342e-15
-1.07637e-14
-2.89012e-15
5.52402e-14
6.24408e-14
6.88493e-14
6.67879e-14
7.01052e-14
6.5429e-14
6.32957e-14
6.62415e-14
6.44946e-14
6.5661e-14
6.30898e-14
6.12971e-14
6.00601e-14
5.24568e-14
5.20151e-14
4.52421e-14
3.44496e-14
2.91123e-14
2.77275e-14
2.07805e-14
1.15197e-14
1.41006e-14
1.6843e-14
1.18876e-14
7.12347e-15
7.14199e-15
4.16506e-15
1.2249e-15
-5.82047e-15
-8.20814e-15
-5.56629e-15
-1.32247e-14
-1.6535e-14
-2.72234e-14
-2.89278e-14
-2.92264e-14
-3.96563e-14
-4.47834e-14
-4.74466e-14
-5.75133e-14
-5.59885e-14
-6.18477e-14
-6.12112e-14
-6.21451e-14
-6.4651e-14
-7.02819e-14
-7.13674e-14
-6.23085e-14
-6.94701e-14
-8.44716e-14
-8.89245e-14
-9.53098e-14
-9.49222e-14
-9.70082e-14
-9.93604e-14
-9.92484e-14
-9.81038e-14
-1.0452e-13
-1.05296e-13
-1.05099e-13
-1.03504e-13
-1.04439e-13
-1.06813e-13
-1.04077e-13
-9.72576e-14
-9.6915e-14
-8.88408e-14
-8.13254e-14
-7.64098e-14
-6.62951e-14
-7.13946e-14
-6.28202e-14
-5.88485e-14
-5.44682e-14
-5.44477e-14
-4.78567e-14
-4.13337e-14
-3.20707e-14
-3.43707e-14
-3.59904e-14
-3.64605e-14
-3.24919e-14
-3.96417e-14
-3.87226e-14
-3.31746e-14
-2.87972e-14
-2.8797e-14
-2.31339e-14
-1.63508e-14
-1.28951e-14
-2.09555e-15
-8.71589e-15
-8.83208e-15
-1.47467e-14
-1.79325e-14
-1.13364e-14
-1.00815e-14
-6.18193e-15
-9.73189e-15
-4.60759e-15
5.64697e-14
6.6105e-14
6.46784e-14
6.99187e-14
6.45378e-14
6.54158e-14
6.44775e-14
6.93162e-14
6.88115e-14
6.66038e-14
6.22281e-14
6.14372e-14
6.26897e-14
5.81141e-14
5.34054e-14
4.78164e-14
3.48105e-14
3.10119e-14
2.36446e-14
1.84575e-14
7.48079e-15
8.37239e-15
1.21187e-14
1.16635e-14
9.90584e-15
1.0785e-14
1.07623e-14
-2.3038e-15
-5.60674e-15
-7.1815e-15
-7.48487e-15
-1.20326e-14
-1.60372e-14
-2.84923e-14
-2.8955e-14
-2.74505e-14
-3.67698e-14
-4.36929e-14
-5.52235e-14
-5.28003e-14
-5.71414e-14
-5.68824e-14
-5.61772e-14
-6.34207e-14
-6.66241e-14
-7.23744e-14
-7.20477e-14
-7.18004e-14
-7.24246e-14
-7.73939e-14
-8.98663e-14
-9.12322e-14
-9.01906e-14
-9.6334e-14
-9.93408e-14
-1.00489e-13
-9.81828e-14
-9.81497e-14
-1.05412e-13
-1.07158e-13
-1.04709e-13
-1.04171e-13
-1.04616e-13
-1.04271e-13
-9.14706e-14
-9.1928e-14
-8.32053e-14
-8.01459e-14
-7.6206e-14
-6.73684e-14
-6.93046e-14
-6.59364e-14
-6.06551e-14
-5.30484e-14
-5.60161e-14
-5.04618e-14
-4.31272e-14
-3.3414e-14
-3.00389e-14
-3.27098e-14
-2.984e-14
-2.9658e-14
-3.5185e-14
-3.74358e-14
-3.52817e-14
-2.88998e-14
-2.37596e-14
-2.18523e-14
-1.83817e-14
-9.16113e-15
-5.75479e-15
-4.58462e-15
-9.1761e-15
-8.25299e-15
-1.34096e-14
-7.67005e-15
-4.61522e-15
-5.87947e-15
-6.96657e-15
-4.65437e-15
5.63352e-14
6.94863e-14
6.48768e-14
6.1197e-14
7.06198e-14
7.3244e-14
7.39512e-14
6.99978e-14
6.51171e-14
6.32426e-14
6.43772e-14
6.2547e-14
6.53283e-14
5.57514e-14
5.33609e-14
5.02369e-14
3.80339e-14
3.2962e-14
1.89887e-14
1.42092e-14
5.98697e-15
7.87543e-15
2.29184e-17
6.32357e-15
5.95016e-15
9.56926e-15
9.13408e-15
-1.28053e-15
-5.70857e-15
-4.22692e-15
-8.96101e-15
-1.16991e-14
-2.48084e-14
-2.65948e-14
-2.4468e-14
-2.47624e-14
-3.42508e-14
-4.38883e-14
-5.30482e-14
-5.1821e-14
-5.38911e-14
-5.42745e-14
-5.86517e-14
-6.29018e-14
-6.61253e-14
-7.35524e-14
-7.85372e-14
-7.71518e-14
-7.78673e-14
-8.0368e-14
-8.75207e-14
-9.11066e-14
-9.15341e-14
-9.18177e-14
-9.58391e-14
-9.92775e-14
-1.02088e-13
-9.99609e-14
-1.00691e-13
-1.01164e-13
-1.03033e-13
-1.02259e-13
-1.02087e-13
-1.00911e-13
-9.81674e-14
-9.23281e-14
-7.95125e-14
-7.59227e-14
-7.05983e-14
-7.04803e-14
-7.07227e-14
-6.49933e-14
-5.88547e-14
-5.0707e-14
-5.40849e-14
-4.8018e-14
-4.24411e-14
-3.53782e-14
-3.31965e-14
-2.94704e-14
-2.60715e-14
-2.7588e-14
-3.67418e-14
-3.56429e-14
-3.52376e-14
-2.49482e-14
-2.33765e-14
-2.2013e-14
-1.82074e-14
-1.18733e-14
-4.97525e-15
-5.87112e-15
-5.56977e-15
-6.85504e-15
-9.82364e-15
-2.05289e-15
-8.99663e-16
-3.90769e-15
-6.04781e-15
-4.60863e-15
6.06691e-14
6.47447e-14
6.89115e-14
6.89046e-14
7.53133e-14
7.27015e-14
7.1934e-14
7.06135e-14
6.3596e-14
6.11039e-14
6.29119e-14
6.35018e-14
6.59012e-14
5.77541e-14
5.50225e-14
4.73764e-14
3.44167e-14
3.11408e-14
1.58887e-14
9.90128e-15
-4.74973e-15
6.41207e-15
8.44054e-15
9.42374e-15
6.04048e-15
1.16275e-14
4.5388e-15
-4.83697e-15
-6.42573e-15
-7.79611e-15
-8.27753e-15
-1.51906e-14
-2.85464e-14
-2.93383e-14
-2.86995e-14
-3.01385e-14
-2.97601e-14
-3.41236e-14
-4.32196e-14
-5.42569e-14
-5.92297e-14
-5.92531e-14
-6.08577e-14
-6.56419e-14
-6.34283e-14
-7.12769e-14
-7.26918e-14
-7.23336e-14
-7.9108e-14
-8.31882e-14
-8.69774e-14
-8.48911e-14
-8.60136e-14
-9.09139e-14
-9.43364e-14
-9.63472e-14
-9.83757e-14
-1.05982e-13
-1.04199e-13
-1.00756e-13
-1.01938e-13
-9.84021e-14
-9.82901e-14
-1.00374e-13
-1.00443e-13
-9.339e-14
-7.99351e-14
-7.93448e-14
-7.81829e-14
-7.11213e-14
-6.28086e-14
-6.01235e-14
-5.85188e-14
-4.97408e-14
-5.06e-14
-5.13267e-14
-4.32792e-14
-3.93023e-14
-3.83177e-14
-3.1616e-14
-2.13093e-14
-2.62162e-14
-3.19566e-14
-3.07955e-14
-3.27086e-14
-2.58347e-14
-2.6262e-14
-1.76705e-14
-1.83717e-14
-7.5234e-15
-5.84202e-15
-7.70084e-15
-5.98368e-15
-4.89213e-15
-4.68334e-15
-6.50186e-15
-2.24811e-15
-4.40823e-16
-2.81085e-15
-1.02589e-15
6.66598e-14
6.77472e-14
6.66492e-14
7.10526e-14
7.54975e-14
7.25096e-14
7.3886e-14
7.48818e-14
6.50055e-14
6.48856e-14
6.69559e-14
6.05305e-14
6.00035e-14
5.5924e-14
5.43124e-14
4.30463e-14
3.50387e-14
2.95011e-14
1.23046e-14
6.70422e-15
5.73121e-15
9.15179e-15
7.08564e-15
1.26861e-15
2.89033e-15
-1.99701e-15
-1.60523e-15
-4.54429e-15
-9.46645e-15
-1.13276e-14
-1.30782e-14
-1.77619e-14
-2.1632e-14
-2.3286e-14
-2.56313e-14
-3.20889e-14
-3.07497e-14
-3.63903e-14
-4.89864e-14
-6.0874e-14
-5.724e-14
-4.87904e-14
-5.25694e-14
-5.73056e-14
-5.95869e-14
-6.93484e-14
-7.59614e-14
-8.40443e-14
-8.87342e-14
-7.842e-14
-7.58251e-14
-8.30767e-14
-8.99026e-14
-9.42865e-14
-9.14011e-14
-9.2899e-14
-9.99434e-14
-1.00371e-13
-1.03092e-13
-1.00425e-13
-9.75358e-14
-9.87002e-14
-9.50619e-14
-9.50175e-14
-9.71141e-14
-8.918e-14
-8.26695e-14
-8.16277e-14
-7.39196e-14
-6.80682e-14
-6.46161e-14
-6.07468e-14
-5.91771e-14
-5.46842e-14
-5.76967e-14
-5.21861e-14
-4.24298e-14
-3.60425e-14
-3.21479e-14
-2.71455e-14
-2.42515e-14
-2.89997e-14
-3.29097e-14
-3.40984e-14
-3.60127e-14
-3.25908e-14
-2.51857e-14
-1.69268e-14
-1.21367e-14
-6.48907e-15
-4.0706e-15
-9.15087e-15
-9.07988e-15
1.62465e-15
-3.68996e-15
-5.32796e-15
2.48497e-15
4.81368e-15
2.10685e-15
-1.45213e-15
7.20598e-14
7.425e-14
6.93777e-14
6.90299e-14
7.4882e-14
7.44106e-14
7.43033e-14
7.25136e-14
6.06133e-14
6.60597e-14
6.66418e-14
5.88001e-14
5.851e-14
5.62715e-14
5.35534e-14
4.70426e-14
3.67016e-14
2.44956e-14
1.11054e-14
5.63349e-15
8.90429e-15
4.42771e-15
1.01569e-14
3.93675e-15
8.27827e-16
-7.28372e-15
-8.58928e-15
-6.66933e-15
-6.34546e-15
-8.7141e-15
-1.59244e-14
-1.90246e-14
-1.56075e-14
-2.35957e-14
-2.55991e-14
-3.3662e-14
-4.01925e-14
-5.07223e-14
-4.45411e-14
-4.08862e-14
-4.94603e-14
-5.99518e-14
-5.90507e-14
-6.07376e-14
-6.01597e-14
-6.71088e-14
-7.30744e-14
-7.49196e-14
-7.86076e-14
-8.29951e-14
-8.31484e-14
-8.46586e-14
-9.00262e-14
-9.1814e-14
-8.90464e-14
-9.3909e-14
-9.77023e-14
-9.85886e-14
-1.02648e-13
-9.77529e-14
-9.70347e-14
-9.85032e-14
-9.40582e-14
-9.29272e-14
-9.69533e-14
-9.40532e-14
-8.80402e-14
-8.17674e-14
-7.88481e-14
-6.93214e-14
-6.60508e-14
-5.93012e-14
-5.60532e-14
-4.95488e-14
-4.83059e-14
-4.89523e-14
-4.2603e-14
-3.63611e-14
-3.14003e-14
-3.0501e-14
-2.6974e-14
-2.84912e-14
-2.98645e-14
-3.30302e-14
-3.46118e-14
-3.61735e-14
-2.07158e-14
-1.68729e-14
-1.2888e-14
-2.10875e-15
-5.94854e-15
-9.11994e-15
-9.68737e-15
4.0508e-15
3.28978e-15
2.14598e-15
4.55629e-15
3.60876e-15
-6.4052e-16
-1.5126e-15
7.62696e-14
7.64651e-14
7.48141e-14
7.39719e-14
7.45337e-14
6.96902e-14
6.96185e-14
7.27704e-14
6.4376e-14
6.23462e-14
6.25296e-14
5.91e-14
5.74606e-14
5.90297e-14
5.75037e-14
4.05421e-14
2.56919e-14
2.50854e-14
1.79183e-14
1.07535e-14
7.1154e-15
-1.19424e-15
9.83301e-16
-5.4877e-16
2.24301e-15
-5.77795e-15
-8.61487e-15
-7.62753e-15
-7.63438e-15
-1.02005e-14
-1.34104e-14
-1.97705e-14
-1.90779e-14
-2.31548e-14
-2.89391e-14
-3.16196e-14
-3.63214e-14
-4.42228e-14
-4.80529e-14
-4.84055e-14
-4.9069e-14
-5.65701e-14
-5.67326e-14
-6.09902e-14
-5.88626e-14
-6.23695e-14
-6.79893e-14
-7.90059e-14
-8.27853e-14
-8.61904e-14
-8.5396e-14
-8.30495e-14
-8.6197e-14
-8.98251e-14
-9.29808e-14
-9.09202e-14
-9.94314e-14
-9.93809e-14
-1.03802e-13
-9.29632e-14
-9.21635e-14
-9.42596e-14
-9.21025e-14
-9.14237e-14
-9.43955e-14
-9.84524e-14
-9.76565e-14
-8.39837e-14
-7.78979e-14
-6.68493e-14
-5.93082e-14
-5.67769e-14
-5.25481e-14
-4.50961e-14
-4.6398e-14
-5.07529e-14
-4.26742e-14
-3.96615e-14
-3.69791e-14
-3.41879e-14
-2.99614e-14
-2.59236e-14
-2.77939e-14
-3.16746e-14
-3.31262e-14
-3.21345e-14
-2.04043e-14
-2.26281e-14
-1.31927e-14
3.41172e-15
-7.83759e-15
-1.57543e-14
-6.95847e-15
4.76119e-17
4.86565e-15
2.88769e-15
7.20153e-15
4.03663e-15
-1.73422e-15
-3.6824e-15
7.65018e-14
7.63988e-14
7.47979e-14
7.42411e-14
7.49343e-14
6.98252e-14
7.06468e-14
7.10185e-14
6.61027e-14
6.18863e-14
6.26414e-14
5.77764e-14
5.31013e-14
5.40895e-14
4.89984e-14
4.5442e-14
3.33863e-14
2.51431e-14
1.88598e-14
1.087e-14
7.09288e-15
-7.70773e-16
-2.34656e-15
6.942e-16
8.9685e-17
-9.61489e-15
-6.32364e-15
-6.01184e-15
-8.47695e-15
-4.98051e-15
-9.64131e-15
-1.64726e-14
-1.68257e-14
-2.46467e-14
-2.82431e-14
-3.53965e-14
-4.38094e-14
-4.47526e-14
-4.25587e-14
-4.37918e-14
-5.04533e-14
-5.41473e-14
-6.09713e-14
-5.62778e-14
-5.68522e-14
-5.62954e-14
-6.73578e-14
-7.98445e-14
-8.42552e-14
-8.50439e-14
-8.17166e-14
-7.61867e-14
-8.88164e-14
-8.86475e-14
-9.40547e-14
-9.49617e-14
-9.38247e-14
-9.65294e-14
-1.01762e-13
-9.88193e-14
-9.11456e-14
-9.73741e-14
-9.74356e-14
-8.63454e-14
-8.88975e-14
-9.59715e-14
-9.90512e-14
-8.57356e-14
-7.74885e-14
-6.32934e-14
-5.99488e-14
-5.10141e-14
-4.79555e-14
-4.50483e-14
-4.9117e-14
-5.45855e-14
-4.73146e-14
-3.85753e-14
-3.58413e-14
-2.96872e-14
-2.03828e-14
-2.14364e-14
-3.27583e-14
-3.95354e-14
-3.87724e-14
-3.47685e-14
-1.75445e-14
-1.44037e-14
-1.26383e-14
-2.44006e-15
-4.86962e-15
-1.35761e-14
-6.37841e-15
1.03561e-15
2.69696e-15
2.74823e-16
2.6396e-15
1.62738e-15
-4.30455e-16
7.15557e-16
8.45328e-14
7.95731e-14
7.40891e-14
7.7307e-14
7.78323e-14
7.35176e-14
7.10006e-14
7.41045e-14
6.59528e-14
6.18497e-14
6.43043e-14
5.36144e-14
4.84878e-14
4.63789e-14
4.58206e-14
3.93779e-14
3.99368e-14
2.91681e-14
2.17109e-14
7.64571e-15
3.6828e-15
2.15741e-15
3.20812e-15
-8.59184e-16
-4.35197e-15
-1.31325e-14
-1.11978e-14
-1.35269e-14
-8.32825e-15
4.00834e-15
-2.35862e-15
-1.71215e-14
-2.03865e-14
-2.25799e-14
-3.2474e-14
-3.71357e-14
-4.01767e-14
-4.13273e-14
-3.98812e-14
-4.27811e-14
-5.56114e-14
-5.43008e-14
-5.70206e-14
-5.29962e-14
-5.49178e-14
-5.64662e-14
-6.31533e-14
-7.62682e-14
-8.39863e-14
-8.4045e-14
-8.17277e-14
-8.5108e-14
-8.85264e-14
-8.79376e-14
-8.91466e-14
-9.1953e-14
-9.69892e-14
-9.90778e-14
-9.9785e-14
-9.19322e-14
-9.06405e-14
-8.84239e-14
-9.201e-14
-9.3405e-14
-9.71064e-14
-1.01993e-13
-9.40774e-14
-8.46127e-14
-7.19418e-14
-6.25172e-14
-5.67633e-14
-5.13251e-14
-4.48566e-14
-4.08232e-14
-5.19109e-14
-6.15535e-14
-5.88144e-14
-4.08248e-14
-3.02054e-14
-3.0134e-14
-2.2286e-14
-2.31906e-14
-3.0351e-14
-3.80718e-14
-3.07248e-14
-2.80808e-14
-2.4124e-14
-2.17905e-14
-1.09626e-14
-6.6748e-15
-1.20598e-14
-9.79983e-15
-6.4116e-15
-2.46194e-16
4.15911e-15
2.72705e-15
1.42679e-15
-1.24756e-15
1.5642e-15
2.6405e-15
7.97729e-14
8.12987e-14
7.21754e-14
7.94047e-14
7.88437e-14
7.87938e-14
7.21653e-14
7.23307e-14
6.42472e-14
5.57021e-14
5.13227e-14
5.26622e-14
5.80281e-14
5.22011e-14
4.79743e-14
4.05084e-14
3.44566e-14
2.89921e-14
2.49798e-14
1.42293e-14
-3.68338e-15
-8.36521e-15
-6.01737e-15
-4.86678e-15
-1.00734e-14
-9.94996e-15
-5.10704e-15
-9.07316e-15
-5.46967e-15
2.05036e-15
-4.19436e-15
-1.21962e-14
-1.48684e-14
-1.94826e-14
-3.21105e-14
-3.97583e-14
-4.22267e-14
-3.83214e-14
-3.78546e-14
-4.7102e-14
-5.43308e-14
-5.2972e-14
-5.55373e-14
-5.2507e-14
-5.96783e-14
-5.70082e-14
-6.31005e-14
-7.11577e-14
-8.27523e-14
-8.35674e-14
-8.23619e-14
-8.00988e-14
-8.74248e-14
-9.35657e-14
-8.59256e-14
-8.56354e-14
-9.28164e-14
-1.00707e-13
-9.88758e-14
-9.68083e-14
-9.21814e-14
-9.36972e-14
-9.10126e-14
-8.72213e-14
-9.28332e-14
-9.43795e-14
-9.47771e-14
-8.1032e-14
-6.91578e-14
-6.21129e-14
-6.03697e-14
-5.68813e-14
-4.44563e-14
-4.32822e-14
-5.33944e-14
-5.59885e-14
-4.78215e-14
-3.92549e-14
-3.5063e-14
-3.07013e-14
-2.638e-14
-2.30858e-14
-2.75245e-14
-3.62613e-14
-3.01748e-14
-2.92469e-14
-2.82136e-14
-1.20623e-14
-9.07179e-15
-6.80569e-15
-9.59929e-15
-1.11791e-14
-1.11891e-14
-4.7416e-15
1.21748e-15
4.13971e-15
1.55401e-15
1.95275e-15
-1.70623e-15
2.66744e-16
7.80555e-14
8.61092e-14
7.80704e-14
7.79407e-14
7.6649e-14
7.67322e-14
6.79299e-14
6.74281e-14
6.22218e-14
5.15751e-14
5.40373e-14
5.44913e-14
6.14479e-14
4.87882e-14
4.46327e-14
3.6018e-14
2.95749e-14
2.03808e-14
2.42982e-14
1.68046e-14
6.04424e-15
3.80221e-16
8.2915e-15
-1.6236e-15
-2.00532e-14
-2.07954e-14
-1.28191e-14
-4.47869e-15
-3.41531e-15
6.3011e-15
2.22194e-15
-1.44355e-14
-2.17718e-14
-2.81596e-14
-3.68665e-14
-3.94919e-14
-3.21507e-14
-2.78141e-14
-4.0559e-14
-4.4e-14
-4.87913e-14
-5.64505e-14
-5.60628e-14
-5.48227e-14
-5.53516e-14
-5.97846e-14
-6.48325e-14
-7.11728e-14
-7.48224e-14
-7.88029e-14
-7.97944e-14
-8.13764e-14
-8.72916e-14
-9.05471e-14
-8.73124e-14
-8.90735e-14
-8.96238e-14
-9.90328e-14
-9.73675e-14
-9.36415e-14
-9.69458e-14
-9.23992e-14
-9.08536e-14
-8.68802e-14
-9.03215e-14
-9.00071e-14
-8.64011e-14
-8.3368e-14
-7.28823e-14
-5.91076e-14
-5.84349e-14
-5.64179e-14
-4.74583e-14
-4.70803e-14
-4.98661e-14
-5.06892e-14
-5.02869e-14
-4.13032e-14
-3.76202e-14
-2.84792e-14
-2.79236e-14
-2.58441e-14
-2.75638e-14
-3.27117e-14
-3.03851e-14
-2.91495e-14
-2.30888e-14
-1.52214e-14
-9.66719e-15
-8.70289e-15
-1.16007e-14
-7.5742e-15
-7.47798e-15
-4.13205e-15
-9.25937e-16
-1.86701e-16
-4.5e-16
6.3527e-16
-1.2448e-15
-7.46814e-16
7.97048e-14
7.87917e-14
7.77741e-14
8.02981e-14
7.94126e-14
7.61116e-14
6.76766e-14
5.90315e-14
5.5769e-14
5.40846e-14
5.86376e-14
5.96756e-14
5.96248e-14
4.92464e-14
4.29478e-14
3.18903e-14
3.06487e-14
2.8533e-14
2.24667e-14
1.28486e-14
-1.90787e-15
-9.08586e-15
-6.35663e-15
-5.3531e-15
-9.02369e-15
-5.4369e-15
-3.69719e-15
-9.30582e-16
-4.05433e-15
-8.0432e-16
1.11414e-15
-7.93286e-15
-1.74634e-14
-3.02371e-14
-4.45669e-14
-4.07331e-14
-3.28264e-14
-2.61719e-14
-3.42636e-14
-4.20017e-14
-4.6147e-14
-5.34413e-14
-5.16787e-14
-5.4514e-14
-5.80992e-14
-5.67427e-14
-6.22408e-14
-6.58341e-14
-7.10547e-14
-7.35336e-14
-7.47376e-14
-8.43039e-14
-8.91276e-14
-8.82171e-14
-9.23009e-14
-9.35622e-14
-9.1951e-14
-9.46374e-14
-9.62809e-14
-9.68268e-14
-9.30672e-14
-8.96063e-14
-8.84454e-14
-8.54264e-14
-9.04806e-14
-8.86753e-14
-8.58527e-14
-8.11724e-14
-6.86165e-14
-6.17415e-14
-5.70618e-14
-5.28862e-14
-5.12932e-14
-5.14534e-14
-5.02553e-14
-5.49284e-14
-4.63623e-14
-4.62852e-14
-3.60003e-14
-2.33351e-14
-2.4607e-14
-2.52795e-14
-2.75991e-14
-3.97203e-14
-3.63795e-14
-3.01096e-14
-2.04847e-14
-1.43132e-14
-9.87977e-15
-1.28789e-14
-1.0169e-14
-7.30213e-15
-6.83761e-15
-6.19561e-15
-1.93454e-15
-5.43855e-15
-4.52122e-15
-6.1585e-15
-4.8535e-15
-2.2974e-15
7.41072e-14
8.32154e-14
8.10927e-14
7.80451e-14
7.93147e-14
7.67998e-14
7.32813e-14
6.57894e-14
5.09403e-14
4.31778e-14
4.89477e-14
5.63496e-14
6.04531e-14
5.50155e-14
4.30391e-14
3.54422e-14
2.79012e-14
2.03796e-14
1.9444e-14
1.32682e-14
4.67838e-15
-1.17131e-15
-5.69614e-15
-1.45518e-14
-1.13177e-14
-2.75898e-15
9.94757e-17
1.60458e-15
-2.40721e-15
2.36076e-15
2.28376e-15
-1.53495e-14
-1.84555e-14
-3.17086e-14
-4.51194e-14
-4.19453e-14
-3.22976e-14
-2.4329e-14
-3.23541e-14
-3.7208e-14
-4.30726e-14
-4.91782e-14
-4.54968e-14
-5.40152e-14
-5.59956e-14
-5.85676e-14
-5.98955e-14
-6.00772e-14
-6.91828e-14
-7.93515e-14
-8.69587e-14
-7.7601e-14
-8.27148e-14
-8.74887e-14
-8.67744e-14
-8.68651e-14
-8.89848e-14
-9.34006e-14
-9.10824e-14
-9.04349e-14
-9.08465e-14
-9.47833e-14
-9.07161e-14
-8.48429e-14
-9.0653e-14
-8.95848e-14
-8.59373e-14
-8.21862e-14
-7.28458e-14
-6.1009e-14
-5.52997e-14
-4.85417e-14
-4.52417e-14
-4.89559e-14
-5.38659e-14
-5.46019e-14
-4.34853e-14
-4.53859e-14
-4.16094e-14
-3.40844e-14
-2.62705e-14
-2.20923e-14
-2.95167e-14
-3.79437e-14
-3.36657e-14
-2.46423e-14
-2.01497e-14
-1.7509e-14
-1.35125e-14
-1.40092e-14
-1.04562e-14
-1.28303e-14
-8.3464e-15
-7.43525e-15
-4.43635e-15
-4.71366e-15
-6.14809e-15
-1.03357e-14
-9.55695e-15
-8.81294e-15
7.90463e-14
8.09525e-14
7.74716e-14
7.35438e-14
7.77299e-14
6.87398e-14
5.98975e-14
6.55855e-14
6.41992e-14
5.85533e-14
5.78183e-14
5.52934e-14
4.71079e-14
4.81585e-14
4.05169e-14
3.18121e-14
3.24419e-14
3.37129e-14
2.72535e-14
9.91712e-15
-2.27026e-15
-1.00566e-14
-2.78074e-15
1.68221e-15
-1.16302e-14
-3.60066e-16
-1.91597e-15
7.55715e-16
1.34347e-15
-1.21899e-15
4.32254e-17
-1.28355e-14
-1.76307e-14
-4.06544e-14
-4.02848e-14
-3.94181e-14
-2.28385e-14
-2.22872e-14
-3.26747e-14
-3.85324e-14
-4.32154e-14
-4.9711e-14
-4.78727e-14
-4.73952e-14
-4.99736e-14
-5.88971e-14
-6.32562e-14
-5.9998e-14
-6.57609e-14
-7.07125e-14
-7.85365e-14
-8.19576e-14
-8.19161e-14
-8.51752e-14
-8.94087e-14
-9.01481e-14
-8.95228e-14
-8.88788e-14
-8.48694e-14
-8.41646e-14
-8.58348e-14
-9.48558e-14
-9.18816e-14
-9.14165e-14
-8.00681e-14
-8.6993e-14
-8.50983e-14
-8.61002e-14
-8.15879e-14
-6.44943e-14
-5.22956e-14
-4.80648e-14
-4.84538e-14
-4.95372e-14
-5.12748e-14
-5.6405e-14
-5.16149e-14
-4.62635e-14
-4.26798e-14
-2.7702e-14
-2.25065e-14
-2.44314e-14
-2.90156e-14
-3.54995e-14
-3.35884e-14
-2.67222e-14
-2.37741e-14
-1.9242e-14
-1.70063e-14
-1.75772e-14
-8.67929e-15
-1.30951e-14
-4.14056e-15
-3.51673e-15
-7.16356e-15
-1.01725e-14
-1.22295e-14
-1.14146e-14
-8.95779e-15
-5.10739e-15
7.90782e-14
8.0044e-14
7.44629e-14
7.68655e-14
8.0401e-14
7.53517e-14
6.35529e-14
5.62465e-14
5.70284e-14
5.68161e-14
5.90237e-14
6.12087e-14
4.49093e-14
4.3949e-14
3.78472e-14
3.2368e-14
3.11948e-14
2.69994e-14
1.93379e-14
1.10263e-14
5.84518e-15
1.13631e-15
-6.80296e-16
4.17121e-15
2.25118e-16
-2.35339e-15
-3.75295e-15
3.61667e-15
1.36671e-15
-4.11697e-15
1.48172e-15
-7.55514e-15
-1.35422e-14
-4.15316e-14
-4.32883e-14
-3.65485e-14
-3.17552e-14
-2.76583e-14
-2.6982e-14
-2.66355e-14
-3.85346e-14
-4.79599e-14
-5.52768e-14
-5.42385e-14
-5.1011e-14
-5.47441e-14
-5.97897e-14
-5.68116e-14
-6.33664e-14
-6.99998e-14
-7.55115e-14
-7.71183e-14
-8.17211e-14
-8.62995e-14
-8.3643e-14
-8.21802e-14
-8.78244e-14
-8.3454e-14
-8.63846e-14
-8.51916e-14
-8.51476e-14
-9.06743e-14
-8.85562e-14
-9.15331e-14
-8.29175e-14
-8.16484e-14
-8.28662e-14
-8.69914e-14
-8.07857e-14
-7.05505e-14
-6.12118e-14
-4.73945e-14
-4.85221e-14
-5.05197e-14
-5.01621e-14
-5.50448e-14
-4.91797e-14
-4.16372e-14
-4.03955e-14
-3.51862e-14
-3.01324e-14
-2.28972e-14
-2.68665e-14
-2.81621e-14
-3.12467e-14
-3.88675e-14
-2.78071e-14
-1.84818e-14
-1.7893e-14
-1.66692e-14
-1.13384e-14
-1.01636e-14
-7.90433e-15
-4.33214e-15
-7.20551e-15
-8.9014e-15
-1.14952e-14
-1.24137e-14
-7.21366e-15
-4.8329e-15
7.47138e-14
7.89572e-14
7.74712e-14
7.40586e-14
7.28223e-14
6.68605e-14
6.61143e-14
6.32855e-14
6.51542e-14
6.40022e-14
5.71352e-14
5.45296e-14
4.70428e-14
4.4256e-14
3.62361e-14
2.96935e-14
3.21008e-14
2.89521e-14
2.21734e-14
1.70075e-14
6.42631e-15
-1.21369e-15
9.55485e-15
1.03312e-14
-1.32205e-15
-1.67305e-15
1.21158e-16
6.75798e-15
-3.4157e-15
-7.74508e-15
-4.71404e-15
-1.32494e-14
-2.06094e-14
-3.29685e-14
-3.86389e-14
-2.83183e-14
-2.42019e-14
-2.62879e-14
-2.90954e-14
-3.8667e-14
-4.24596e-14
-4.87436e-14
-4.76316e-14
-5.15901e-14
-5.63654e-14
-5.75874e-14
-6.00131e-14
-5.44288e-14
-6.68884e-14
-6.74295e-14
-7.22946e-14
-7.52786e-14
-7.86563e-14
-8.33961e-14
-8.31422e-14
-7.53638e-14
-7.72878e-14
-8.63909e-14
-8.87741e-14
-8.24249e-14
-8.20902e-14
-8.09995e-14
-8.59925e-14
-9.37497e-14
-8.84773e-14
-8.27774e-14
-8.84169e-14
-8.09021e-14
-7.30678e-14
-7.11818e-14
-6.75135e-14
-4.92448e-14
-4.89201e-14
-5.06776e-14
-5.39775e-14
-5.4976e-14
-4.94969e-14
-4.26068e-14
-4.16935e-14
-4.09623e-14
-2.53857e-14
-1.65958e-14
-2.36077e-14
-3.4902e-14
-3.08996e-14
-2.8706e-14
-2.59852e-14
-2.10729e-14
-1.96412e-14
-1.64373e-14
-8.46361e-15
-1.36401e-14
-9.93519e-15
-6.90259e-15
-5.87792e-15
-9.96029e-15
-1.30646e-14
-1.48025e-14
-8.16177e-15
-4.62172e-15
7.96582e-14
7.83423e-14
7.88198e-14
7.24135e-14
6.8626e-14
6.44628e-14
6.60897e-14
6.94185e-14
6.38714e-14
6.10003e-14
5.63731e-14
5.52348e-14
4.73492e-14
4.54432e-14
4.2037e-14
3.03526e-14
2.24268e-14
2.16613e-14
2.20652e-14
1.39429e-14
1.1828e-14
9.5999e-15
1.28763e-14
8.6103e-15
6.1575e-15
6.38004e-16
1.59677e-15
3.27594e-15
-2.71706e-15
-7.01844e-15
-9.39128e-15
-1.43792e-14
-2.18495e-14
-3.56546e-14
-2.88772e-14
-2.87957e-14
-2.84654e-14
-2.91031e-14
-3.11346e-14
-3.82426e-14
-3.84842e-14
-4.56082e-14
-4.81515e-14
-5.33698e-14
-5.27808e-14
-5.48383e-14
-6.01982e-14
-6.18437e-14
-6.48645e-14
-6.17805e-14
-6.67341e-14
-6.92754e-14
-7.58706e-14
-7.98875e-14
-7.95268e-14
-8.16966e-14
-7.82899e-14
-8.26913e-14
-8.59878e-14
-8.35042e-14
-7.80027e-14
-8.22588e-14
-8.15658e-14
-8.85715e-14
-8.87352e-14
-8.6561e-14
-8.64707e-14
-7.43671e-14
-7.38742e-14
-7.19307e-14
-6.4571e-14
-5.66546e-14
-5.81064e-14
-5.08038e-14
-5.41848e-14
-5.00853e-14
-5.03973e-14
-4.70241e-14
-3.94807e-14
-3.42009e-14
-3.1042e-14
-2.06771e-14
-1.82682e-14
-2.20795e-14
-2.57483e-14
-3.48821e-14
-2.96509e-14
-2.23053e-14
-2.04543e-14
-1.93393e-14
-1.52523e-14
-1.66239e-14
-1.22809e-14
-5.5013e-15
-1.06961e-14
-1.1292e-14
-1.0284e-14
-1.80497e-14
-8.91307e-15
2.53561e-16
8.53175e-14
7.85907e-14
7.37578e-14
7.40517e-14
6.8759e-14
6.79738e-14
6.68573e-14
7.14496e-14
6.93762e-14
5.65563e-14
5.51135e-14
5.89223e-14
5.47942e-14
4.57996e-14
4.01169e-14
3.50538e-14
3.31559e-14
2.5844e-14
1.84803e-14
1.2904e-14
9.18058e-15
1.16875e-14
1.10711e-14
8.44268e-15
4.69858e-15
5.31752e-15
4.95366e-15
2.8879e-15
-1.64309e-15
-6.4237e-15
-1.07348e-14
-1.70707e-14
-2.24841e-14
-3.06982e-14
-3.24601e-14
-3.34351e-14
-3.11827e-14
-2.46035e-14
-2.9782e-14
-3.46096e-14
-4.00374e-14
-4.50533e-14
-4.63303e-14
-5.22402e-14
-5.44102e-14
-6.29886e-14
-6.1096e-14
-5.94079e-14
-5.64651e-14
-6.02111e-14
-6.69765e-14
-6.9649e-14
-7.1296e-14
-7.79783e-14
-7.78894e-14
-7.55146e-14
-7.71053e-14
-7.94448e-14
-7.83555e-14
-7.77765e-14
-7.35489e-14
-7.84477e-14
-9.05672e-14
-9.02602e-14
-8.67554e-14
-8.39594e-14
-8.7288e-14
-7.55605e-14
-7.75716e-14
-6.87866e-14
-6.62316e-14
-5.9777e-14
-5.71039e-14
-5.68713e-14
-5.68233e-14
-5.329e-14
-4.82635e-14
-3.87463e-14
-3.44077e-14
-3.59783e-14
-3.21661e-14
-2.49491e-14
-2.29285e-14
-2.14162e-14
-2.48626e-14
-3.09891e-14
-2.62084e-14
-2.00469e-14
-2.45788e-14
-1.29913e-14
-1.44678e-14
-1.53486e-14
-1.69751e-14
-1.15393e-14
-1.67646e-14
-1.6212e-14
-1.19963e-14
-7.17213e-15
-6.79911e-15
-1.22532e-15
8.30176e-14
7.74928e-14
7.83253e-14
7.5988e-14
7.32355e-14
7.22345e-14
7.10856e-14
7.29798e-14
6.80481e-14
6.36921e-14
6.06135e-14
5.83906e-14
5.49374e-14
4.19854e-14
3.7603e-14
4.07803e-14
2.87582e-14
1.92048e-14
1.95638e-14
1.58895e-14
1.9935e-14
1.36983e-14
6.6002e-15
1.22984e-14
1.64538e-14
1.00701e-14
8.60433e-16
-5.57752e-15
-9.70463e-15
-1.27814e-14
-9.11293e-15
-1.21219e-14
-1.72657e-14
-2.18884e-14
-3.02568e-14
-3.5257e-14
-3.32559e-14
-3.10486e-14
-2.98299e-14
-3.09596e-14
-4.31148e-14
-4.66136e-14
-4.36412e-14
-5.38145e-14
-5.30993e-14
-6.28298e-14
-5.89788e-14
-5.47351e-14
-6.17086e-14
-6.22566e-14
-6.16009e-14
-6.6119e-14
-6.15271e-14
-7.83351e-14
-7.56465e-14
-7.95399e-14
-8.04092e-14
-7.82793e-14
-7.60531e-14
-7.46327e-14
-6.51724e-14
-7.99712e-14
-8.80493e-14
-8.00113e-14
-8.3924e-14
-7.98207e-14
-8.28183e-14
-7.568e-14
-7.46959e-14
-7.36678e-14
-7.64713e-14
-6.0286e-14
-4.75871e-14
-5.13206e-14
-6.07641e-14
-5.84686e-14
-4.99135e-14
-3.92079e-14
-3.15681e-14
-3.19864e-14
-2.75696e-14
-2.15244e-14
-2.70588e-14
-2.57074e-14
-2.52848e-14
-2.76317e-14
-2.42445e-14
-2.22734e-14
-2.16205e-14
-1.90494e-14
-1.41566e-14
-1.17083e-14
-1.88625e-14
-1.74863e-14
-1.33313e-14
-1.19966e-14
-1.04597e-14
-1.28066e-14
-8.52896e-15
-4.87062e-15
7.98482e-14
8.17617e-14
8.10495e-14
7.61726e-14
7.35186e-14
7.58212e-14
7.57207e-14
6.90252e-14
6.84908e-14
6.45231e-14
6.47461e-14
6.26481e-14
5.42235e-14
4.54599e-14
3.85527e-14
3.71854e-14
3.75017e-14
3.10306e-14
2.3202e-14
1.47001e-14
7.17991e-15
5.76004e-15
1.38428e-14
1.4974e-14
1.26376e-14
3.94527e-15
-9.41721e-16
-3.36452e-15
-5.96759e-15
-1.00426e-14
-8.14807e-15
-1.74334e-14
-2.53174e-14
-2.34652e-14
-2.91268e-14
-3.08221e-14
-2.96471e-14
-2.73016e-14
-3.1971e-14
-3.51477e-14
-4.16705e-14
-4.85129e-14
-4.9666e-14
-5.24543e-14
-4.81339e-14
-6.22088e-14
-5.69561e-14
-5.8679e-14
-6.0956e-14
-5.80705e-14
-6.43512e-14
-6.68022e-14
-5.86858e-14
-6.8003e-14
-7.01022e-14
-8.26497e-14
-8.97284e-14
-7.91503e-14
-6.45315e-14
-7.49287e-14
-7.28841e-14
-7.64399e-14
-8.77873e-14
-7.81839e-14
-7.7822e-14
-8.11389e-14
-8.41896e-14
-7.75749e-14
-6.98604e-14
-6.80292e-14
-7.11779e-14
-6.45403e-14
-5.82346e-14
-5.79661e-14
-5.84229e-14
-5.55395e-14
-5.03088e-14
-3.90656e-14
-2.71752e-14
-2.75203e-14
-2.43755e-14
-2.69773e-14
-3.31532e-14
-2.64003e-14
-2.08494e-14
-2.54091e-14
-2.84177e-14
-2.33004e-14
-1.69554e-14
-1.89314e-14
-9.88231e-15
-1.16651e-14
-1.57233e-14
-1.87385e-14
-1.65646e-14
-1.89422e-14
-6.58639e-15
-1.16899e-14
-7.89603e-15
-4.0567e-15
8.3382e-14
7.87796e-14
7.79555e-14
7.10836e-14
7.5014e-14
7.98011e-14
8.16384e-14
8.41695e-14
6.72552e-14
6.3222e-14
6.45956e-14