/*--------------------------------*- C++ -*----------------------------------*\
| =========                 |                                                 |
| \\      /  F ield         | OpenFOAM: The Open Source CFD Toolbox           |
|  \\    /   O peration     | Version:  v2012                                 |
|   \\  /    A nd           | Website:  www.openfoam.com                      |
|    \\/     M anipulation  |                                                 |
\*---------------------------------------------------------------------------*/
FoamFile
{
    version     2.0;
    format      ascii;
    class       volVectorField;
    location    "0";
    object      uRec;
}
// * * * * * * * * * * * * * * * * * * * * * * * * * * * * * * * * * * * * * //

dimensions      [0 1 -1 0 0 0 0];


internalField   nonuniform List<vector> 
4000
(
(1 1.71028e-16 0)
(1 2.24058e-15 0)
(1 -2.73414e-16 0)
(1 -1.35406e-15 0)
(1 1.43629e-15 0)
(1 1.75909e-16 0)
(1 2.00634e-15 0)
(1 -1.76092e-15 0)
(1 -3.89494e-16 0)
(1 2.23728e-15 0)
(1 -1.89364e-15 0)
(1 -1.57408e-16 0)
(1 9.68311e-16 0)
(1 1.32218e-16 0)
(1 3.86943e-17 0)
(1 -8.61947e-16 0)
(1 -1.54512e-15 0)
(1 -1.83052e-15 0)
(1 5.66788e-16 0)
(1 -6.8807e-16 0)
(1 -3.57017e-16 0)
(1 1.69471e-15 0)
(1 1.00356e-15 0)
(1 2.27211e-15 0)
(1 4.53427e-16 0)
(1 -3.48751e-16 0)
(1 9.30923e-16 0)
(1 -1.41115e-15 0)
(1 -1.13212e-15 0)
(1 1.10849e-16 0)
(1 9.67141e-18 0)
(1 1.65096e-15 0)
(1 -1.00047e-15 0)
(1 1.37129e-16 0)
(1 1.73704e-15 0)
(1 -2.3753e-17 0)
(1 2.67881e-17 0)
(1 8.84941e-16 0)
(1 2.3615e-15 0)
(1 -1.32709e-16 0)
(1 8.98304e-16 0)
(1 -1.64856e-15 0)
(1 -5.0711e-16 0)
(1 -5.65744e-16 0)
(1 1.0434e-15 0)
(1 -1.16868e-15 0)
(1 4.89592e-16 0)
(1 6.91962e-17 0)
(1 -3.27896e-16 0)
(1 5.21708e-16 0)
(1 -6.39476e-16 0)
(1 1.22406e-15 0)
(1 -9.40466e-17 0)
(1 1.57499e-15 0)
(1 5.85566e-16 0)
(1 -1.69944e-16 0)
(1 -7.44127e-16 0)
(1 -2.4238e-16 0)
(1 1.24838e-15 0)
(1 3.48794e-15 0)
(1 6.76304e-16 0)
(1 -1.11544e-15 0)
(1 -3.42142e-16 0)
(1 3.25055e-16 0)
(1 1.41378e-16 0)
(1 -2.82709e-16 0)
(1 7.77852e-16 0)
(1 -6.77453e-16 0)
(1 9.78302e-16 0)
(1 -6.36528e-16 0)
(1 -6.50805e-16 0)
(1 -1.3178e-16 0)
(1 5.24224e-16 0)
(1 -2.61327e-16 0)
(1 -5.18984e-16 0)
(1 -1.89209e-15 0)
(1 -4.02562e-16 0)
(1 -7.22847e-16 0)
(1 7.24468e-16 0)
(1 1.47575e-15 0)
(1 3.18207e-16 0)
(1 9.75353e-16 0)
(1 -6.29775e-16 0)
(1 1.50989e-16 0)
(1 -1.06004e-15 0)
(1 -7.08004e-16 0)
(1 -1.10729e-15 0)
(1 5.16938e-16 0)
(1 1.49122e-15 0)
(1 7.61185e-16 0)
(1 1.44428e-16 0)
(1 -8.35447e-16 0)
(1 2.94919e-16 0)
(1 1.22204e-15 0)
(1 -1.3194e-15 0)
(1 -2.19924e-15 0)
(1 -3.49836e-16 0)
(1 1.76224e-15 0)
(1 3.78104e-16 0)
(1 -1.43887e-16 0)
(1 2.24602e-16 0)
(1 4.54256e-15 0)
(1 -2.30276e-16 0)
(1 -2.29357e-15 0)
(1 5.55e-16 0)
(1 8.06939e-16 0)
(1 2.18026e-15 0)
(1 -2.5085e-15 0)
(1 -1.37605e-16 0)
(1 1.12329e-15 0)
(1 -5.65144e-16 0)
(1 1.1513e-15 0)
(1 1.89433e-15 0)
(1 2.71264e-16 0)
(1 -4.70597e-16 0)
(1 -3.33038e-16 0)
(1 -1.3356e-15 0)
(1 -2.95314e-16 0)
(1 1.49491e-15 0)
(1 -8.73115e-16 0)
(1 -9.20464e-16 0)
(1 7.15336e-16 0)
(1 -4.72723e-16 0)
(1 1.32904e-15 0)
(1 -4.83337e-16 0)
(1 6.05258e-16 0)
(1 2.27834e-15 0)
(1 -1.68556e-15 0)
(1 -1.68748e-15 0)
(1 1.09371e-15 0)
(1 -6.00237e-16 0)
(1 2.66046e-15 0)
(1 -1.03549e-15 0)
(1 -6.84919e-16 0)
(1 1.23817e-15 0)
(1 -7.12838e-16 0)
(1 4.49813e-16 0)
(1 2.53215e-15 0)
(1 2.36744e-15 0)
(1 1.7332e-16 0)
(1 -8.03391e-16 0)
(1 -1.32e-15 0)
(1 -2.48185e-15 0)
(1 -1.64775e-15 0)
(1 -5.37455e-16 0)
(1 -1.88214e-15 0)
(1 2.23056e-15 0)
(1 2.48561e-15 0)
(1 2.38364e-15 0)
(1 9.84907e-16 0)
(1 -1.00178e-16 0)
(1 1.91586e-16 0)
(1 2.7041e-15 0)
(1 1.59357e-15 0)
(1 1.71819e-15 0)
(1 2.99279e-16 0)
(1 -2.63219e-16 0)
(1 1.88513e-15 0)
(1 2.52692e-17 0)
(1 -1.27834e-15 0)
(1 -5.4387e-16 0)
(1 5.35831e-16 0)
(1 7.46117e-17 0)
(1 1.20287e-15 0)
(1 3.76228e-16 0)
(1 1.67278e-15 0)
(1 -8.48714e-16 0)
(1 -1.3251e-15 0)
(1 5.96585e-16 0)
(1 -6.34442e-16 0)
(1 -1.30202e-15 0)
(1 7.39684e-16 0)
(1 1.75668e-15 0)
(1 -8.69211e-16 0)
(1 -2.55281e-16 0)
(1 -4.01533e-16 0)
(1 9.11448e-17 0)
(1 1.66042e-15 0)
(1 3.89887e-16 0)
(1 2.02666e-15 0)
(1 -1.32589e-16 0)
(1 7.76627e-17 0)
(1 1.90257e-15 0)
(1 -4.87082e-16 0)
(1 4.07381e-16 0)
(1 -4.43033e-16 0)
(1 -2.12486e-15 0)
(1 -1.62629e-15 0)
(1 2.23226e-16 0)
(1 1.06991e-15 0)
(1 -2.79506e-16 0)
(1 -1.77018e-15 0)
(1 1.92054e-15 0)
(1 1.16316e-15 0)
(1 -2.88227e-15 0)
(1 -2.54336e-15 0)
(1 6.67083e-16 0)
(1 1.81059e-15 0)
(1 5.41637e-17 0)
(1 -1.55718e-16 0)
(1 4.12295e-16 0)
(1 2.21344e-15 0)
(1 2.0963e-16 0)
(1 -3.49024e-16 0)
(1 -2.21637e-17 0)
(1 1.05326e-15 0)
(1 1.68371e-15 0)
(1 3.75082e-15 0)
(1 -1.47031e-15 0)
(1 -1.48916e-15 0)
(1 1.01078e-16 0)
(1 2.87123e-15 0)
(1 2.93814e-15 0)
(1 -8.54531e-17 0)
(1 -1.81339e-16 0)
(1 -6.19823e-16 0)
(1 -1.13547e-16 0)
(1 3.81619e-16 0)
(1 8.08197e-16 0)
(1 1.99572e-15 0)
(1 -1.10692e-16 0)
(1 -2.78181e-17 0)
(1 -5.42288e-17 0)
(1 6.97387e-16 0)
(1 1.83418e-15 0)
(1 3.0254e-15 0)
(1 2.02615e-15 0)
(1 -1.29537e-15 0)
(1 -1.3387e-15 0)
(1 5.0971e-16 0)
(1 1.20696e-15 0)
(1 -1.54194e-15 0)
(1 5.77447e-16 0)
(1 7.91152e-16 0)
(1 -7.62867e-17 0)
(1 1.44763e-17 0)
(1 -5.60671e-16 0)
(1 1.78081e-15 0)
(1 2.231e-15 0)
(1 3.82138e-17 0)
(1 -1.18981e-15 0)
(1 3.1007e-16 0)
(1 -2.03292e-15 0)
(1 -2.52257e-15 0)
(1 -1.45717e-15 0)
(1 -4.50848e-16 0)
(1 -6.6767e-16 0)
(1 2.27994e-15 0)
(1 3.54024e-15 0)
(1 2.68675e-15 0)
(1 2.05296e-15 0)
(1 1.46909e-15 0)
(1 4.19598e-15 0)
(1 2.00935e-18 0)
(1 1.70102e-15 0)
(1 -3.48935e-16 0)
(1 1.15388e-15 0)
(1 1.47482e-15 0)
(1 1.66093e-15 0)
(1 -9.58116e-16 0)
(1 -6.66061e-16 0)
(1 9.94709e-16 0)
(1 1.41378e-15 0)
(1 -7.26032e-16 0)
(1 -1.81137e-16 0)
(1 1.20853e-15 0)
(1 -5.14328e-16 0)
(1 6.72354e-16 0)
(1 1.01373e-15 0)
(1 6.34645e-16 0)
(1 7.84173e-16 0)
(1 1.63581e-15 0)
(1 7.48658e-16 0)
(1 -1.71621e-15 0)
(1 -1.1324e-15 0)
(1 -3.34205e-16 0)
(1 -4.89734e-17 0)
(1 1.13031e-15 0)
(1 1.23621e-15 0)
(1 -4.31729e-16 0)
(1 -1.62013e-15 0)
(1 -9.79163e-16 0)
(1 1.09095e-15 0)
(1 -1.94189e-16 0)
(1 2.28646e-16 0)
(1 3.63283e-16 0)
(1 -1.45936e-15 0)
(1 -2.22549e-15 0)
(1 -8.37827e-16 0)
(1 1.07692e-15 0)
(1 3.44805e-16 0)
(1 -6.26144e-16 0)
(1 -2.32741e-17 0)
(1 7.33529e-16 0)
(1 -1.09116e-15 0)
(1 -1.47754e-15 0)
(1 1.09419e-15 0)
(1 -1.20631e-15 0)
(1 1.58878e-17 0)
(1 4.98195e-16 0)
(1 3.54054e-16 0)
(1 1.94154e-15 0)
(1 1.86023e-15 0)
(1 -2.35519e-16 0)
(1 2.14087e-16 0)
(1 -9.39248e-16 0)
(1 1.09029e-15 0)
(1 4.96002e-15 0)
(1 9.66061e-16 0)
(1 1.1474e-16 0)
(1 -1.96321e-16 0)
(1 5.14331e-15 0)
(1 1.26744e-15 0)
(1 -1.90075e-15 0)
(1 2.22118e-15 0)
(1 -1.3219e-15 0)
(1 4.24151e-16 0)
(1 -2.26065e-15 0)
(1 -2.5867e-15 0)
(1 4.61255e-15 0)
(1 -1.78084e-17 0)
(1 1.92524e-15 0)
(1 1.79208e-15 0)
(1 1.51315e-15 0)
(1 4.0747e-15 0)
(1 3.00973e-15 0)
(1 1.09384e-15 0)
(1 1.40193e-16 0)
(1 -1.29284e-15 0)
(1 1.51413e-15 0)
(1 -5.05526e-16 0)
(1 -8.08655e-16 0)
(1 -3.15812e-16 0)
(1 2.36545e-15 0)
(1 1.83457e-15 0)
(1 7.82536e-16 0)
(1 -6.36167e-16 0)
(1 -3.34335e-16 0)
(1 2.08188e-15 0)
(1 1.25041e-15 0)
(1 1.35692e-15 0)
(1 -7.90064e-16 0)
(1 -1.99511e-15 0)
(1 -2.2291e-15 0)
(1 -6.37501e-17 0)
(1 1.39618e-15 0)
(1 2.31816e-17 0)
(1 1.45112e-15 0)
(1 3.51734e-15 0)
(1 3.40522e-15 0)
(1 3.48415e-15 0)
(1 2.10655e-15 0)
(1 1.82905e-15 0)
(1 1.27145e-15 0)
(1 1.44404e-15 0)
(1 -8.93857e-17 0)
(1 1.2141e-15 0)
(1 1.79905e-15 0)
(1 1.66604e-15 0)
(1 3.4348e-15 0)
(1 1.04893e-15 0)
(1 1.94883e-17 0)
(1 -1.49037e-16 0)
(1 5.8064e-16 0)
(1 -1.38107e-15 0)
(1 -2.8349e-16 0)
(1 -1.33784e-15 0)
(1 2.40501e-15 0)
(1 8.12893e-16 0)
(1 7.62795e-16 0)
(1 1.39724e-15 0)
(1 7.90168e-16 0)
(1 8.53975e-17 0)
(1 -9.39383e-16 0)
(1 -2.31412e-15 0)
(1 -9.78182e-16 0)
(1 1.52034e-15 0)
(1 2.64299e-16 0)
(1 1.3305e-15 0)
(1 2.28645e-15 0)
(1 -1.46488e-15 0)
(1 7.51956e-16 0)
(1 9.93836e-18 0)
(1 2.92608e-16 0)
(1 7.70155e-16 0)
(1 -7.16679e-16 0)
(1 -3.55231e-18 0)
(1 -1.42631e-15 0)
(1 1.01066e-16 0)
(1 3.07441e-16 0)
(1 -7.21895e-16 0)
(1 2.81151e-16 0)
(1 -4.66058e-16 0)
(1 7.10247e-16 0)
(1 7.10838e-16 0)
(1 -7.26455e-16 0)
(1 -5.58364e-16 0)
(1 -8.25196e-16 0)
(1 -1.30774e-15 0)
(1 -7.39398e-16 0)
(1 7.75334e-16 0)
(1 1.58812e-16 0)
(1 1.1921e-15 0)
(1 -6.73292e-16 0)
(1 3.4942e-16 0)
(1 1.24486e-15 0)
(1 5.98371e-16 0)
(1 4.86238e-16 0)
(1 4.91257e-15 0)
(1 2.74097e-15 0)
(1 2.67935e-15 0)
(1 2.95758e-15 0)
(1 -8.53153e-16 0)
(1 -3.21302e-15 0)
(1 1.31835e-15 0)
(1 9.79989e-16 0)
(1 3.38873e-15 0)
(1 2.32765e-15 0)
(1 4.35471e-16 0)
(1 -7.32667e-16 0)
(1 -4.63115e-16 0)
(1 -1.24623e-15 0)
(1 2.92732e-15 0)
(1 4.81475e-15 0)
(1 2.49916e-15 0)
(1 8.20155e-16 0)
(1 -4.25336e-17 0)
(1 6.63657e-16 0)
(1 9.46943e-16 0)
(1 -1.10462e-15 0)
(1 1.00956e-15 0)
(1 1.83873e-15 0)
(1 -8.36952e-16 0)
(1 1.95007e-15 0)
(1 -1.18994e-15 0)
(1 -1.42518e-15 0)
(1 -8.81415e-16 0)
(1 -1.83704e-16 0)
(1 1.0346e-15 0)
(1 2.28024e-15 0)
(1 1.39819e-15 0)
(1 3.90991e-16 0)
(1 -2.65707e-15 0)
(1 5.62764e-17 0)
(1 -2.05006e-15 0)
(1 1.2416e-15 0)
(1 3.41037e-15 0)
(1 4.1181e-15 0)
(1 3.26404e-15 0)
(1 1.318e-15 0)
(1 3.72264e-15 0)
(1 1.12535e-15 0)
(1 1.20469e-15 0)
(1 2.57533e-15 0)
(1 3.05455e-15 0)
(1 3.24794e-15 0)
(1 1.637e-15 0)
(1 1.9374e-15 0)
(1 -9.65411e-16 0)
(1 -1.91537e-15 0)
(1 2.0642e-15 0)
(1 8.07677e-16 0)
(1 1.36997e-15 0)
(1 9.88988e-16 0)
(1 5.15284e-16 0)
(1 -1.77013e-16 0)
(1 -1.10184e-15 0)
(1 1.71841e-15 0)
(1 3.96361e-16 0)
(1 1.97912e-15 0)
(1 9.30332e-16 0)
(1 1.21705e-15 0)
(1 2.00348e-15 0)
(1 4.12675e-16 0)
(1 -1.05035e-15 0)
(1 -1.09668e-17 0)
(1 1.46116e-15 0)
(1 2.92155e-15 0)
(1 1.65083e-15 0)
(1 4.50149e-16 0)
(1 -3.98617e-16 0)
(1 3.58312e-16 0)
(1 5.74878e-16 0)
(1 -5.38604e-16 0)
(1 1.18463e-15 0)
(1 -1.98931e-15 0)
(1 -1.87104e-16 0)
(1 -8.40365e-16 0)
(1 -1.82604e-15 0)
(1 -2.75602e-16 0)
(1 -9.5289e-16 0)
(1 -6.07946e-16 0)
(1 1.04324e-15 0)
(1 -1.71264e-16 0)
(1 1.2193e-15 0)
(1 3.99702e-16 0)
(1 -9.69227e-16 0)
(1 -1.4563e-16 0)
(1 -2.44985e-15 0)
(1 -1.13499e-15 0)
(1 -1.21459e-16 0)
(1 -2.28601e-15 0)
(1 8.7042e-16 0)
(1 1.40408e-15 0)
(1 6.30144e-16 0)
(1 2.39099e-15 0)
(1 1.26932e-15 0)
(1 1.85406e-15 0)
(1 3.11149e-15 0)
(1 3.67196e-15 0)
(1 5.6451e-15 0)
(1 1.39009e-15 0)
(1 -1.86812e-15 0)
(1 1.1036e-15 0)
(1 1.16755e-15 0)
(1 4.99666e-16 0)
(1 3.44811e-16 0)
(1 5.38463e-17 0)
(1 1.51546e-15 0)
(1 -5.12396e-16 0)
(1 2.12754e-15 0)
(1 -1.02322e-15 0)
(1 3.97361e-15 0)
(1 2.86661e-15 0)
(1 1.95494e-16 0)
(1 2.69152e-15 0)
(1 1.41637e-15 0)
(1 -1.4223e-15 0)
(1 7.36692e-16 0)
(1 -9.3841e-16 0)
(1 9.07781e-17 0)
(1 -8.09873e-16 0)
(1 7.24669e-16 0)
(1 1.16906e-15 0)
(1 -2.01324e-15 0)
(1 1.36961e-15 0)
(1 3.1729e-15 0)
(1 2.95517e-15 0)
(1 8.83656e-16 0)
(1 -8.4923e-16 0)
(1 1.74179e-15 0)
(1 3.32748e-16 0)
(1 -8.06077e-16 0)
(1 -6.15232e-16 0)
(1 6.74759e-17 0)
(1 1.3469e-15 0)
(1 8.3973e-16 0)
(1 3.38609e-15 0)
(1 3.35109e-15 0)
(1 4.0318e-15 0)
(1 2.46758e-15 0)
(1 1.99941e-15 0)
(1 2.71181e-15 0)
(1 3.30967e-15 0)
(1 2.61757e-15 0)
(1 2.81676e-15 0)
(1 3.3566e-15 0)
(1 3.01069e-15 0)
(1 2.89266e-15 0)
(1 2.64168e-15 0)
(1 2.98871e-15 0)
(1 -3.93659e-16 0)
(1 5.99624e-16 0)
(1 -9.39148e-16 0)
(1 1.16664e-15 0)
(1 3.57048e-16 0)
(1 3.58909e-15 0)
(1 2.62528e-15 0)
(1 2.46612e-15 0)
(1 2.51841e-15 0)
(1 2.14642e-15 0)
(1 1.72776e-15 0)
(1 2.3044e-15 0)
(1 2.23549e-17 0)
(1 -1.9412e-15 0)
(1 -1.25769e-15 0)
(1 2.70336e-16 0)
(1 3.69261e-15 0)
(1 1.39171e-15 0)
(1 -1.58387e-15 0)
(1 -2.77508e-16 0)
(1 1.46662e-15 0)
(1 -7.66628e-16 0)
(1 3.28846e-16 0)
(1 -1.12173e-16 0)
(1 -1.42029e-15 0)
(1 -5.95737e-16 0)
(1 -2.23673e-15 0)
(1 -2.16175e-15 0)
(1 -3.63953e-16 0)
(1 -3.69242e-16 0)
(1 -4.58641e-16 0)
(1 1.27229e-15 0)
(1 1.91201e-15 0)
(1 2.85039e-15 0)
(1 2.05966e-15 0)
(1 3.50158e-16 0)
(1 -1.41025e-15 0)
(1 7.43729e-19 0)
(1 9.13496e-16 0)
(1 -9.13022e-16 0)
(1 -4.20179e-16 0)
(1 3.09112e-15 0)
(1 2.25414e-16 0)
(1 2.48158e-15 0)
(1 -4.54534e-16 0)
(1 -3.98171e-16 0)
(1 3.22774e-15 0)
(1 1.93936e-15 0)
(1 2.17537e-15 0)
(1 4.74739e-15 0)
(1 5.22288e-16 0)
(1 1.01508e-15 0)
(1 3.51188e-15 0)
(1 1.43543e-15 0)
(1 4.2809e-15 0)
(1 3.25586e-15 0)
(1 -2.33469e-16 0)
(1 1.19107e-15 0)
(1 2.40811e-15 0)
(1 3.11679e-15 0)
(1 -2.96062e-15 0)
(1 2.35632e-15 0)
(1 -3.46855e-16 0)
(1 1.26789e-16 0)
(1 8.19699e-16 0)
(1 -6.88317e-16 0)
(1 -5.40373e-16 0)
(1 7.24617e-16 0)
(1 3.2761e-15 0)
(1 -3.48713e-16 0)
(1 9.18371e-16 0)
(1 1.12818e-15 0)
(1 -3.18461e-16 0)
(1 -6.4237e-16 0)
(1 2.81812e-15 0)
(1 4.44192e-15 0)
(1 2.03315e-15 0)
(1 -1.77035e-15 0)
(1 -1.41568e-15 0)
(1 1.40591e-15 0)
(1 -1.64616e-15 0)
(1 2.56959e-15 0)
(1 -1.54439e-16 0)
(1 1.89836e-15 0)
(1 1.1922e-15 0)
(1 1.46985e-15 0)
(1 1.76753e-15 0)
(1 2.42938e-15 0)
(1 5.97539e-15 0)
(1 2.60969e-15 0)
(1 1.5583e-15 0)
(1 2.58557e-15 0)
(1 4.87091e-15 0)
(1 3.1412e-15 0)
(1 1.4258e-15 0)
(1 1.32208e-15 0)
(1 2.97337e-15 0)
(1 3.43717e-15 0)
(1 4.03526e-15 0)
(1 4.0747e-16 0)
(1 9.28809e-16 0)
(1 2.23729e-16 0)
(1 9.2104e-16 0)
(1 -5.25349e-18 0)
(1 -5.22696e-16 0)
(1 -3.52533e-16 0)
(1 2.74186e-15 0)
(1 2.54605e-15 0)
(1 5.3566e-16 0)
(1 2.6867e-15 0)
(1 2.70721e-15 0)
(1 6.11921e-16 0)
(1 3.17137e-16 0)
(1 8.30595e-16 0)
(1 2.02155e-15 0)
(1 1.71134e-15 0)
(1 1.95585e-15 0)
(1 1.39106e-15 0)
(1 8.82447e-16 0)
(1 9.99666e-16 0)
(1 9.54576e-16 0)
(1 4.15102e-16 0)
(1 -4.92404e-17 0)
(1 -3.32654e-16 0)
(1 2.87329e-16 0)
(1 -5.31425e-16 0)
(1 -6.24321e-16 0)
(1 7.53581e-16 0)
(1 -1.06643e-15 0)
(1 -4.89438e-16 0)
(1 1.14862e-15 0)
(1 1.68422e-15 0)
(1 2.08394e-15 0)
(1 1.19332e-15 0)
(1 2.66707e-15 0)
(1 1.40881e-16 0)
(1 -6.33677e-16 0)
(1 1.2133e-15 0)
(1 8.12931e-16 0)
(1 -4.67866e-16 0)
(1 2.25621e-18 0)
(1 1.54539e-15 0)
(1 8.83455e-17 0)
(1 2.68925e-15 0)
(1 6.69447e-16 0)
(1 -3.00577e-16 0)
(1 1.3304e-15 0)
(1 3.73595e-15 0)
(1 5.61805e-15 0)
(1 2.43879e-15 0)
(1 -1.95651e-15 0)
(1 2.84279e-15 0)
(1 1.2315e-15 0)
(1 9.26464e-16 0)
(1 4.90214e-15 0)
(1 1.79373e-15 0)
(1 5.88757e-15 0)
(1 4.31886e-15 0)
(1 -1.14207e-15 0)
(1 -1.32696e-15 0)
(1 -2.63386e-15 0)
(1 -1.84799e-15 0)
(1 1.46581e-15 0)
(1 1.93295e-15 0)
(1 -2.07163e-15 0)
(1 -2.08118e-15 0)
(1 1.20119e-15 0)
(1 -2.76648e-16 0)
(1 1.43189e-15 0)
(1 4.38791e-15 0)
(1 1.662e-15 0)
(1 7.38919e-17 0)
(1 -1.3495e-15 0)
(1 -4.54861e-16 0)
(1 -5.22937e-16 0)
(1 -6.69299e-16 0)
(1 6.42243e-16 0)
(1 1.188e-15 0)
(1 4.27783e-15 0)
(1 2.14379e-16 0)
(1 1.69176e-16 0)
(1 4.13948e-15 0)
(1 1.60334e-15 0)
(1 9.04866e-16 0)
(1 2.76547e-15 0)
(1 3.73312e-15 0)
(1 4.1709e-15 0)
(1 4.561e-16 0)
(1 2.42861e-15 0)
(1 4.27778e-15 0)
(1 3.72406e-15 0)
(1 1.11949e-15 0)
(1 4.01263e-15 0)
(1 5.23094e-15 0)
(1 5.18415e-15 0)
(1 2.3045e-15 0)
(1 -6.33724e-17 0)
(1 5.03367e-15 0)
(1 1.55429e-15 0)
(1 -6.95669e-16 0)
(1 1.75061e-15 0)
(1 2.70206e-15 0)
(1 2.24868e-15 0)
(1 5.54847e-16 0)
(1 2.11434e-15 0)
(1 2.26124e-15 0)
(1 -4.36159e-16 0)
(1 2.24546e-15 0)
(1 2.10507e-15 0)
(1 3.95127e-15 0)
(1 3.66161e-15 0)
(1 1.75173e-15 0)
(1 6.18856e-16 0)
(1 1.41949e-15 0)
(1 4.07836e-15 0)
(1 2.49118e-15 0)
(1 2.35363e-17 0)
(1 3.37751e-16 0)
(1 -9.59696e-16 0)
(1 8.54893e-16 0)
(1 -1.20088e-15 0)
(1 3.47117e-16 0)
(1 1.34207e-15 0)
(1 -3.0359e-15 0)
(1 -6.05639e-16 0)
(1 -1.38497e-16 0)
(1 1.32267e-15 0)
(1 1.04288e-15 0)
(1 -3.18469e-15 0)
(1 -1.75907e-15 0)
(1 9.27973e-16 0)
(1 3.73496e-16 0)
(1 2.06833e-15 0)
(1 2.4427e-15 0)
(1 2.69824e-15 0)
(1 -5.78898e-16 0)
(1 -2.34156e-17 0)
(1 1.25452e-15 0)
(1 1.62936e-15 0)
(1 -2.98969e-16 0)
(1 1.1623e-15 0)
(1 -9.79281e-16 0)
(1 8.60053e-17 0)
(1 -6.188e-16 0)
(1 2.58728e-15 0)
(1 8.20838e-16 0)
(1 -8.24911e-16 0)
(1 2.84726e-15 0)
(1 5.09333e-15 0)
(1 3.00503e-15 0)
(1 3.60065e-15 0)
(1 2.69296e-15 0)
(1 3.13773e-15 0)
(1 2.10661e-15 0)
(1 2.52157e-15 0)
(1 2.48301e-15 0)
(1 4.49887e-15 0)
(1 3.83199e-15 0)
(1 -1.04381e-15 0)
(1 -3.95683e-15 0)
(1 1.83951e-15 0)
(1 -1.5539e-15 0)
(1 2.89995e-16 0)
(1 8.5746e-16 0)
(1 -1.94876e-15 0)
(1 3.19669e-17 0)
(1 -2.95679e-15 0)
(1 -1.99293e-15 0)
(1 1.47829e-15 0)
(1 2.8171e-15 0)
(1 8.37259e-17 0)
(1 1.76451e-15 0)
(1 1.44917e-15 0)
(1 6.46995e-18 0)
(1 3.77255e-16 0)
(1 -7.97891e-16 0)
(1 2.00427e-15 0)
(1 1.67404e-15 0)
(1 3.02869e-15 0)
(1 -8.49802e-16 0)
(1 1.8622e-15 0)
(1 2.82917e-15 0)
(1 2.12921e-15 0)
(1 4.52066e-15 0)
(1 2.119e-15 0)
(1 2.89403e-15 0)
(1 2.57374e-15 0)
(1 -7.57852e-18 0)
(1 4.15231e-16 0)
(1 3.84936e-15 0)
(1 5.17945e-15 0)
(1 2.92819e-15 0)
(1 4.09373e-15 0)
(1 5.86165e-15 0)
(1 5.27951e-15 0)
(1 5.46097e-15 0)
(1 1.64714e-15 0)
(1 5.40154e-15 0)
(1 1.30092e-15 0)
(1 2.63828e-15 0)
(1 2.06489e-15 0)
(1 -6.31625e-16 0)
(1 1.82169e-15 0)
(1 -2.03901e-15 0)
(1 1.90465e-15 0)
(1 5.1571e-15 0)
(1 4.9249e-16 0)
(1 5.04473e-15 0)
(1 5.24656e-15 0)
(1 5.17281e-15 0)
(1 1.94956e-15 0)
(1 2.66736e-15 0)
(1 1.30289e-15 0)
(1 -2.81542e-16 0)
(1 2.22723e-15 0)
(1 1.55205e-15 0)
(1 8.51605e-17 0)
(1 -1.56808e-15 0)
(1 1.78613e-15 0)
(1 1.94009e-15 0)
(1 2.84795e-15 0)
(1 -4.01384e-16 0)
(1 1.48519e-15 0)
(1 -2.37118e-15 0)
(1 -2.13201e-15 0)
(1 -1.82282e-15 0)
(1 -5.236e-16 0)
(1 -7.0628e-16 0)
(1 -5.14692e-16 0)
(1 -4.94742e-16 0)
(1 3.56039e-16 0)
(1 2.09308e-15 0)
(1 3.73129e-15 0)
(1 5.00033e-15 0)
(1 3.65049e-15 0)
(1 1.68317e-15 0)
(1 -1.88333e-17 0)
(1 3.17496e-15 0)
(1 3.72996e-15 0)
(1 4.59534e-16 0)
(1 8.00698e-16 0)
(1 3.88416e-16 0)
(1 3.604e-16 0)
(1 8.81108e-16 0)
(1 1.12207e-15 0)
(1 2.04372e-15 0)
(1 2.2236e-15 0)
(1 2.64636e-15 0)
(1 3.03553e-15 0)
(1 1.61916e-15 0)
(1 6.66481e-15 0)
(1 3.48609e-15 0)
(1 1.33629e-15 0)
(1 2.91017e-15 0)
(1 1.0825e-15 0)
(1 1.90163e-15 0)
(1 2.18855e-15 0)
(1 1.43218e-15 0)
(1 1.19399e-15 0)
(1 -1.9488e-15 0)
(1 3.50475e-16 0)
(1 -3.94357e-16 0)
(1 -8.4724e-16 0)
(1 1.33066e-15 0)
(1 1.15599e-15 0)
(1 -4.16336e-16 0)
(1 -3.74794e-15 0)
(1 -2.46572e-16 0)
(1 -8.91797e-16 0)
(1 -6.21762e-16 0)
(1 2.72385e-15 0)
(1 2.61366e-15 0)
(1 2.05111e-15 0)
(1 2.03052e-15 0)
(1 9.58471e-17 0)
(1 -1.8836e-15 0)
(1 -1.58272e-15 0)
(1 -1.09127e-15 0)
(1 -3.51242e-16 0)
(1 -1.89024e-16 0)
(1 3.51396e-15 0)
(1 2.43503e-15 0)
(1 4.15679e-15 0)
(1 5.63512e-15 0)
(1 2.98229e-15 0)
(1 1.85826e-15 0)
(1 9.5562e-16 0)
(1 3.69325e-15 0)
(1 3.80613e-15 0)
(1 2.84528e-15 0)
(1 1.47538e-15 0)
(1 3.34734e-15 0)
(1 5.11716e-15 0)
(1 6.14399e-15 0)
(1 4.55673e-15 0)
(1 3.06852e-15 0)
(1 1.69005e-15 0)
(1 2.85735e-15 0)
(1 2.78681e-15 0)
(1 3.79074e-15 0)
(1 5.73989e-15 0)
(1 3.61775e-15 0)
(1 2.25512e-15 0)
(1 2.73846e-15 0)
(1 1.90745e-16 0)
(1 2.61002e-15 0)
(1 2.96805e-15 0)
(1 3.38206e-15 0)
(1 3.46567e-15 0)
(1 3.91124e-15 0)
(1 3.1579e-15 0)
(1 1.96892e-15 0)
(1 9.9429e-16 0)
(1 1.06331e-15 0)
(1 1.82514e-15 0)
(1 2.90617e-15 0)
(1 -2.74861e-17 0)
(1 2.31681e-16 0)
(1 7.31504e-16 0)
(1 1.71122e-15 0)
(1 8.46335e-16 0)
(1 -4.43583e-16 0)
(1 -6.05832e-17 0)
(1 -1.0462e-15 0)
(1 -2.32861e-15 0)
(1 -7.2873e-16 0)
(1 -5.49002e-16 0)
(1 -1.03575e-15 0)
(1 -1.81832e-16 0)
(1 2.8381e-15 0)
(1 -8.27713e-16 0)
(1 3.68365e-15 0)
(1 -5.97535e-16 0)
(1 4.65708e-15 0)
(1 2.78636e-15 0)
(1 1.28881e-15 0)
(1 3.60988e-15 0)
(1 4.59695e-15 0)
(1 3.71956e-15 0)
(1 4.36307e-16 0)
(1 -1.13913e-15 0)
(1 1.30683e-15 0)
(1 2.27509e-15 0)
(1 8.08952e-16 0)
(1 -4.0789e-16 0)
(1 2.8594e-15 0)
(1 3.20399e-15 0)
(1 3.52179e-15 0)
(1 2.3036e-15 0)
(1 -8.70764e-16 0)
(1 4.08672e-15 0)
(1 1.27684e-15 0)
(1 3.10729e-15 0)
(1 2.42766e-15 0)
(1 4.96746e-16 0)
(1 5.7374e-16 0)
(1 1.40913e-15 0)
(1 3.1865e-15 0)
(1 2.30992e-15 0)
(1 -1.04718e-15 0)
(1 1.29944e-16 0)
(1 -2.18316e-15 0)
(1 -6.34395e-16 0)
(1 -3.30985e-15 0)
(1 3.61443e-15 0)
(1 4.05692e-15 0)
(1 1.79448e-15 0)
(1 1.86257e-15 0)
(1 -3.81496e-15 0)
(1 -2.76383e-15 0)
(1 -2.63316e-16 0)
(1 1.12009e-16 0)
(1 1.30349e-16 0)
(1 2.86024e-15 0)
(1 -4.61265e-16 0)
(1 -1.94315e-16 0)
(1 -3.47428e-15 0)
(1 -1.07733e-15 0)
(1 2.18977e-16 0)
(1 4.0903e-15 0)
(1 3.23474e-15 0)
(1 1.05585e-15 0)
(1 2.76434e-15 0)
(1 3.79412e-15 0)
(1 3.85033e-15 0)
(1 2.79756e-15 0)
(1 2.4329e-15 0)
(1 6.26968e-15 0)
(1 4.1458e-15 0)
(1 1.3803e-15 0)
(1 1.58519e-15 0)
(1 4.59186e-15 0)
(1 5.83434e-15 0)
(1 6.34896e-15 0)
(1 4.8784e-15 0)
(1 5.7468e-15 0)
(1 2.35374e-15 0)
(1 5.22781e-15 0)
(1 3.13473e-15 0)
(1 3.59543e-15 0)
(1 2.59168e-15 0)
(1 3.26456e-15 0)
(1 1.25374e-15 0)
(1 3.99493e-15 0)
(1 4.63621e-15 0)
(1 2.06783e-15 0)
(1 3.34741e-15 0)
(1 4.39145e-16 0)
(1 1.30692e-15 0)
(1 3.48464e-15 0)
(1 2.89095e-15 0)
(1 1.44106e-15 0)
(1 1.58558e-15 0)
(1 -1.85886e-17 0)
(1 -1.50208e-15 0)
(1 3.16586e-15 0)
(1 2.29335e-15 0)
(1 -2.99079e-17 0)
(1 -1.17318e-15 0)
(1 1.71845e-15 0)
(1 2.11958e-16 0)
(1 4.29471e-15 0)
(1 -4.0756e-16 0)
(1 -1.31091e-15 0)
(1 -5.60832e-16 0)
(1 2.81563e-17 0)
(1 -1.06175e-15 0)
(1 -1.36481e-15 0)
(1 -2.35995e-15 0)
(1 2.49298e-15 0)
(1 3.51265e-16 0)
(1 9.63255e-16 0)
(1 8.45206e-16 0)
(1 1.62471e-15 0)
(1 2.45579e-15 0)
(1 1.95531e-15 0)
(1 5.34751e-15 0)
(1 2.38427e-15 0)
(1 1.98346e-15 0)
(1 -3.31419e-17 0)
(1 5.76509e-19 0)
(1 1.50229e-15 0)
(1 2.4056e-15 0)
(1 -3.98613e-16 0)
(1 7.28685e-16 0)
(1 -4.84771e-16 0)
(1 2.11273e-15 0)
(1 2.8966e-15 0)
(1 3.58373e-15 0)
(1 3.85033e-15 0)
(1 5.77239e-16 0)
(1 -1.27927e-15 0)
(1 2.00992e-15 0)
(1 2.1224e-15 0)
(1 3.02357e-15 0)
(1 3.02568e-15 0)
(1 9.72059e-16 0)
(1 2.30866e-15 0)
(1 1.93881e-15 0)
(1 6.11955e-16 0)
(1 7.71616e-16 0)
(1 -9.84406e-16 0)
(1 -1.84574e-15 0)
(1 -9.89922e-16 0)
(1 -1.29694e-15 0)
(1 1.91644e-15 0)
(1 1.60414e-15 0)
(1 1.74363e-15 0)
(1 -9.35986e-16 0)
(1 1.22568e-16 0)
(1 1.20817e-15 0)
(1 -1.15433e-15 0)
(1 -1.70746e-15 0)
(1 -2.57682e-15 0)
(1 -1.02819e-15 0)
(1 2.13551e-15 0)
(1 -2.71485e-15 0)
(1 -7.4515e-16 0)
(1 3.14438e-17 0)
(1 3.40485e-15 0)
(1 1.40251e-15 0)
(1 -7.49133e-16 0)
(1 1.49781e-15 0)
(1 5.41154e-15 0)
(1 4.6994e-15 0)
(1 5.57452e-15 0)
(1 3.19357e-15 0)
(1 2.45004e-15 0)
(1 4.15782e-15 0)
(1 1.78206e-15 0)
(1 3.87686e-15 0)
(1 4.85766e-15 0)
(1 6.35865e-15 0)
(1 6.27364e-15 0)
(1 1.34136e-15 0)
(1 2.80448e-15 0)
(1 4.25144e-15 0)
(1 4.59296e-15 0)
(1 3.53761e-15 0)
(1 4.77593e-15 0)
(1 2.91753e-15 0)
(1 4.00817e-15 0)
(1 3.77475e-15 0)
(1 9.38568e-16 0)
(1 1.95264e-15 0)
(1 1.73738e-15 0)
(1 2.61791e-15 0)
(1 2.83979e-15 0)
(1 1.33358e-15 0)
(1 4.18235e-15 0)
(1 2.65289e-15 0)
(1 -6.13058e-16 0)
(1 1.82499e-15 0)
(1 2.44914e-15 0)
(1 2.78061e-16 0)
(1 1.35684e-15 0)
(1 -2.44183e-16 0)
(1 -1.36124e-15 0)
(1 1.79485e-16 0)
(1 3.40539e-15 0)
(1 1.63244e-15 0)
(1 1.85645e-15 0)
(1 -1.41821e-15 0)
(1 -9.54972e-16 0)
(1 1.51237e-15 0)
(1 -1.85909e-15 0)
(1 -1.76014e-15 0)
(1 -1.61901e-15 0)
(1 2.48097e-15 0)
(1 1.61246e-15 0)
(1 2.05643e-15 0)
(1 -3.2072e-16 0)
(1 2.48157e-15 0)
(1 4.71876e-16 0)
(1 3.16904e-15 0)
(1 3.97788e-15 0)
(1 3.24213e-15 0)
(1 1.50938e-15 0)
(1 1.03782e-15 0)
(1 1.19053e-15 0)
(1 2.928e-16 0)
(1 5.7249e-16 0)
(1 1.33621e-15 0)
(1 2.08012e-15 0)
(1 2.32767e-15 0)
(1 2.05331e-15 0)
(1 2.06326e-15 0)
(1 2.89528e-16 0)
(1 4.42633e-15 0)
(1 7.3655e-15 0)
(1 3.61732e-15 0)
(1 2.91109e-16 0)
(1 -3.07509e-16 0)
(1 6.92378e-16 0)
(1 -2.91548e-16 0)
(1 -1.40897e-15 0)
(1 -6.76108e-16 0)
(1 1.07879e-15 0)
(1 1.09032e-15 0)
(1 3.01848e-15 0)
(1 2.36774e-15 0)
(1 8.78637e-16 0)
(1 -5.05002e-15 0)
(1 5.0454e-15 0)
(1 -8.02864e-16 0)
(1 -3.94129e-15 0)
(1 -7.16926e-16 0)
(1 -1.42746e-15 0)
(1 1.69907e-15 0)
(1 -4.98381e-16 0)
(1 2.42248e-15 0)
(1 -1.70312e-15 0)
(1 -1.51527e-15 0)
(1 3.24729e-16 0)
(1 2.83015e-16 0)
(1 4.84367e-16 0)
(1 -1.97172e-15 0)
(1 -3.75251e-16 0)
(1 1.73887e-15 0)
(1 2.6569e-16 0)
(1 2.05807e-15 0)
(1 -1.61263e-15 0)
(1 2.20468e-15 0)
(1 2.30033e-15 0)
(1 5.24733e-15 0)
(1 6.83625e-15 0)
(1 4.58278e-15 0)
(1 1.18155e-15 0)
(1 3.01523e-15 0)
(1 2.50093e-15 0)
(1 3.42728e-15 0)
(1 6.48869e-15 0)
(1 7.02272e-15 0)
(1 4.6365e-15 0)
(1 4.59113e-15 0)
(1 1.67684e-15 0)
(1 5.81533e-15 0)
(1 5.4083e-16 0)
(1 3.0699e-15 0)
(1 2.53512e-15 0)
(1 4.6856e-15 0)
(1 4.99842e-15 0)
(1 5.63655e-15 0)
(1 3.10362e-15 0)
(1 9.75435e-16 0)
(1 2.55346e-15 0)
(1 2.14257e-15 0)
(1 7.86119e-16 0)
(1 1.2857e-15 0)
(1 -1.45691e-16 0)
(1 2.18305e-15 0)
(1 2.30793e-15 0)
(1 1.69154e-15 0)
(1 2.25336e-15 0)
(1 1.39282e-15 0)
(1 -6.60636e-16 0)
(1 -1.19164e-15 0)
(1 2.3624e-15 0)
(1 1.85175e-15 0)
(1 -5.88566e-16 0)
(1 -1.13494e-15 0)
(1 -1.08739e-15 0)
(1 1.61925e-16 0)
(1 1.75636e-16 0)
(1 1.76717e-15 0)
(1 -1.68464e-15 0)
(1 2.14552e-16 0)
(1 -9.34108e-16 0)
(1 2.15337e-15 0)
(1 3.61183e-16 0)
(1 6.79982e-18 0)
(1 1.14448e-15 0)
(1 -1.22292e-15 0)
(1 1.28822e-15 0)
(1 3.27379e-15 0)
(1 1.30548e-15 0)
(1 1.45229e-15 0)
(1 5.8338e-16 0)
(1 5.82109e-16 0)
(1 2.58859e-16 0)
(1 1.02447e-15 0)
(1 -1.0848e-15 0)
(1 2.28474e-15 0)
(1 3.01813e-15 0)
(1 4.51622e-15 0)
(1 2.86726e-15 0)
(1 1.77789e-15 0)
(1 -1.24355e-15 0)
(1 2.96584e-17 0)
(1 3.7523e-15 0)
(1 4.3267e-15 0)
(1 3.79952e-15 0)
(1 2.62561e-15 0)
(1 -9.82994e-16 0)
(1 -1.86723e-15 0)
(1 -2.76169e-15 0)
(1 -1.05817e-15 0)
(1 -5.55496e-16 0)
(1 -6.54787e-16 0)
(1 3.82061e-15 0)
(1 2.62122e-15 0)
(1 4.23091e-15 0)
(1 -1.38117e-15 0)
(1 3.53132e-17 0)
(1 -1.03088e-16 0)
(1 -1.7394e-15 0)
(1 -3.01522e-15 0)
(1 2.23017e-16 0)
(1 1.28104e-15 0)
(1 8.41616e-16 0)
(1 -2.68027e-15 0)
(1 -9.06168e-16 0)
(1 4.46373e-16 0)
(1 -9.30242e-16 0)
(1 -2.56385e-15 0)
(1 -4.07562e-16 0)
(1 -2.15651e-15 0)
(1 1.94594e-15 0)
(1 4.19122e-16 0)
(1 7.712e-16 0)
(1 -1.12776e-16 0)
(1 4.18628e-15 0)
(1 5.00207e-15 0)
(1 1.21929e-15 0)
(1 4.44435e-15 0)
(1 1.52694e-15 0)
(1 6.14941e-15 0)
(1 2.28618e-15 0)
(1 1.23346e-15 0)
(1 1.58545e-15 0)
(1 1.09285e-15 0)
(1 5.90659e-15 0)
(1 5.83079e-15 0)
(1 2.05124e-15 0)
(1 6.74933e-15 0)
(1 5.57253e-15 0)
(1 4.80814e-15 0)
(1 2.53459e-15 0)
(1 2.01486e-15 0)
(1 3.02868e-15 0)
(1 2.83263e-15 0)
(1 1.71286e-15 0)
(1 3.7805e-15 0)
(1 4.61601e-15 0)
(1 4.00749e-15 0)
(1 2.52855e-15 0)
(1 3.69662e-15 0)
(1 9.89517e-16 0)
(1 2.21712e-15 0)
(1 3.51269e-16 0)
(1 2.88058e-15 0)
(1 3.92681e-15 0)
(1 1.82393e-15 0)
(1 1.07129e-15 0)
(1 1.732e-15 0)
(1 5.02355e-16 0)
(1 2.88015e-15 0)
(1 2.67951e-15 0)
(1 -2.31308e-16 0)
(1 -1.04327e-15 0)
(1 7.97826e-17 0)
(1 -1.95717e-15 0)
(1 6.73067e-16 0)
(1 6.53342e-17 0)
(1 -9.74808e-16 0)
(1 -1.97023e-15 0)
(1 1.20473e-15 0)
(1 1.53129e-15 0)
(1 8.54989e-16 0)
(1 1.14154e-15 0)
(1 -5.55615e-16 0)
(1 9.24498e-16 0)
(1 1.51436e-15 0)
(1 9.25234e-16 0)
(1 1.47424e-15 0)
(1 8.96578e-17 0)
(1 3.59105e-15 0)
(1 5.26111e-16 0)
(1 -1.40971e-15 0)
(1 3.81749e-17 0)
(1 2.3299e-15 0)
(1 1.58452e-15 0)
(1 4.05747e-15 0)
(1 1.4298e-15 0)
(1 2.15705e-15 0)
(1 -6.2114e-16 0)
(1 -2.88381e-16 0)
(1 2.87531e-15 0)
(1 7.32745e-16 0)
(1 3.93718e-15 0)
(1 3.00097e-15 0)
(1 3.79348e-15 0)
(1 -2.26926e-15 0)
(1 -3.21521e-15 0)
(1 -4.84315e-16 0)
(1 -5.85626e-15 0)
(1 3.74659e-15 0)
(1 2.25841e-16 0)
(1 1.30712e-15 0)
(1 3.35503e-15 0)
(1 -1.06445e-15 0)
(1 4.08059e-16 0)
(1 5.4551e-15 0)
(1 6.824e-16 0)
(1 1.82145e-16 0)
(1 -1.71302e-15 0)
(1 -1.02795e-15 0)
(1 -8.83461e-16 0)
(1 -1.84312e-15 0)
(1 -1.38881e-15 0)
(1 -1.16684e-15 0)
(1 -1.29444e-15 0)
(1 -2.58765e-15 0)
(1 -6.8217e-16 0)
(1 -1.19408e-15 0)
(1 -1.94698e-15 0)
(1 7.96792e-16 0)
(1 1.5155e-15 0)
(1 -4.68459e-16 0)
(1 9.27822e-16 0)
(1 7.99608e-16 0)
(1 6.32357e-15 0)
(1 3.14996e-15 0)
(1 3.84737e-15 0)
(1 3.08451e-15 0)
(1 -1.94772e-15 0)
(1 4.12117e-15 0)
(1 1.52985e-15 0)
(1 -1.00381e-15 0)
(1 2.12083e-15 0)
(1 3.96088e-15 0)
(1 4.58593e-15 0)
(1 4.18523e-15 0)
(1 3.67505e-15 0)
(1 6.24132e-15 0)
(1 5.17704e-15 0)
(1 5.60833e-15 0)
(1 5.62914e-15 0)
(1 3.7287e-15 0)
(1 4.15272e-15 0)
(1 6.79971e-16 0)
(1 3.17075e-15 0)
(1 2.636e-15 0)
(1 5.15292e-15 0)
(1 4.75886e-15 0)
(1 3.96088e-15 0)
(1 3.48074e-15 0)
(1 3.1767e-15 0)
(1 2.36217e-15 0)
(1 2.60608e-15 0)
(1 3.88954e-15 0)
(1 2.34808e-15 0)
(1 1.71882e-15 0)
(1 4.02006e-17 0)
(1 2.13127e-15 0)
(1 1.04091e-15 0)
(1 3.11413e-15 0)
(1 5.48553e-16 0)
(1 -3.52826e-15 0)
(1 6.77087e-16 0)
(1 5.55414e-16 0)
(1 -1.50482e-15 0)
(1 -1.62997e-16 0)
(1 -9.04092e-16 0)
(1 -3.15029e-15 0)
(1 -2.13346e-15 0)
(1 -3.13272e-17 0)
(1 6.26806e-16 0)
(1 -7.59284e-16 0)
(1 4.7842e-16 0)
(1 -1.65596e-16 0)
(1 1.72118e-15 0)
(1 2.69942e-15 0)
(1 3.70093e-15 0)
(1 3.92324e-16 0)
(1 -9.15393e-16 0)
(1 1.91307e-15 0)
(1 1.35925e-15 0)
(1 1.42255e-15 0)
(1 -2.08383e-16 0)
(1 1.72755e-15 0)
(1 1.43438e-15 0)
(1 1.45101e-15 0)
(1 2.03451e-15 0)
(1 2.6797e-15 0)
(1 2.54474e-15 0)
(1 1.20365e-15 0)
(1 2.64659e-15 0)
(1 2.70327e-15 0)
(1 -7.39473e-16 0)
(1 1.49364e-16 0)
(1 1.58562e-15 0)
(1 -3.76933e-16 0)
(1 9.70417e-16 0)
(1 2.05342e-16 0)
(1 -2.01822e-15 0)
(1 3.48131e-18 0)
(1 1.39503e-15 0)
(1 1.55332e-15 0)
(1 -2.94444e-16 0)
(1 1.49829e-15 0)
(1 -1.59392e-15 0)
(1 1.26202e-15 0)
(1 -3.1412e-15 0)
(1 -5.21252e-17 0)
(1 -4.49507e-16 0)
(1 4.75634e-15 0)
(1 -3.06114e-15 0)
(1 -1.51408e-15 0)
(1 -2.64559e-15 0)
(1 -2.3185e-15 0)
(1 -3.76634e-16 0)
(1 -2.882e-15 0)
(1 1.31377e-15 0)
(1 -5.9084e-16 0)
(1 -1.27063e-15 0)
(1 1.28697e-16 0)
(1 -1.37928e-15 0)
(1 -3.51931e-16 0)
(1 5.65847e-16 0)
(1 4.71591e-15 0)
(1 2.15451e-15 0)
(1 1.80275e-15 0)
(1 1.21922e-15 0)
(1 -1.27743e-15 0)
(1 3.40903e-15 0)
(1 1.40324e-15 0)
(1 2.16154e-15 0)
(1 -2.67525e-15 0)
(1 2.49385e-15 0)
(1 5.35428e-15 0)
(1 5.99673e-15 0)
(1 2.93587e-15 0)
(1 6.29603e-15 0)
(1 6.66675e-15 0)
(1 4.96322e-15 0)
(1 4.23773e-15 0)
(1 3.62762e-15 0)
(1 2.62305e-15 0)
(1 2.40057e-15 0)
(1 2.31045e-15 0)
(1 2.42064e-15 0)
(1 -6.89678e-16 0)
(1 4.24168e-15 0)
(1 4.12976e-15 0)
(1 4.33612e-15 0)
(1 3.35577e-15 0)
(1 3.26093e-15 0)
(1 2.66982e-15 0)
(1 1.96751e-15 0)
(1 -4.32793e-16 0)
(1 8.51733e-16 0)
(1 3.10854e-15 0)
(1 2.5113e-16 0)
(1 -1.70677e-16 0)
(1 -1.2017e-17 0)
(1 8.82511e-16 0)
(1 5.41342e-16 0)
(1 1.03619e-15 0)
(1 -1.08467e-15 0)
(1 -2.72058e-15 0)
(1 1.355e-15 0)
(1 -1.01369e-15 0)
(1 -1.66783e-15 0)
(1 -3.28205e-15 0)
(1 -1.3708e-15 0)
(1 5.71059e-17 0)
(1 1.47965e-15 0)
(1 -1.78643e-16 0)
(1 7.99341e-16 0)
(1 1.72211e-15 0)
(1 2.09477e-15 0)
(1 1.5599e-15 0)
(1 1.33891e-15 0)
(1 -9.70282e-16 0)
(1 7.57175e-16 0)
(1 -1.00861e-15 0)
(1 3.23512e-16 0)
(1 2.81264e-15 0)
(1 -1.24356e-15 0)