/*--------------------------------*- C++ -*----------------------------------*\
| =========                 |                                                 |
| \\      /  F ield         | OpenFOAM: The Open Source CFD Toolbox           |
|  \\    /   O peration     | Version:  v2012                                 |
|   \\  /    A nd           | Website:  www.openfoam.com                      |
|    \\/     M anipulation  |                                                 |
\*---------------------------------------------------------------------------*/
FoamFile
{
    version     2.0;
    format      ascii;
    class       surfaceScalarField;
    location    "11";
    object      phi;
}
// * * * * * * * * * * * * * * * * * * * * * * * * * * * * * * * * * * * * * //

dimensions      [0 3 -1 0 0 0 0];
oriented        oriented;


internalField   nonuniform List<scalar> 
130560
(
3.65075e-06
-3.65075e-06
7.30162e-06
-3.65087e-06
1.09528e-05
-3.65116e-06
1.46043e-05
-3.65156e-06
1.82564e-05
-3.65211e-06
2.19092e-05
-3.65279e-06
2.55628e-05
-3.6536e-06
2.92174e-05
-3.65453e-06
3.2873e-05
-3.65558e-06
3.65297e-05
-3.65674e-06
4.01877e-05
-3.65801e-06
4.38471e-05
-3.65937e-06
4.75079e-05
-3.66081e-06
5.11702e-05
-3.66234e-06
5.48342e-05
-3.66394e-06
5.84998e-05
-3.66559e-06
6.21671e-05
-3.6673e-06
6.58361e-05
-3.66903e-06
6.95069e-05
-3.67079e-06
7.31794e-05
-3.67256e-06
7.68538e-05
-3.67432e-06
8.05298e-05
-3.67605e-06
8.42076e-05
-3.67775e-06
8.78869e-05
-3.67939e-06
9.15679e-05
-3.68095e-06
9.52503e-05
-3.68243e-06
9.89341e-05
-3.68379e-06
0.000102619
-3.68501e-06
0.000106305
-3.68608e-06
0.000109992
-3.68698e-06
0.00011368
-3.68767e-06
0.000117368
-3.68814e-06
0.000121056
-3.68836e-06
0.000124745
-3.68831e-06
0.000128433
-3.68796e-06
0.00013212
-3.68728e-06
0.000135806
-3.68625e-06
0.000139491
-3.68483e-06
0.000143174
-3.683e-06
0.000146855
-3.68074e-06
0.000150533
-3.678e-06
0.000154207
-3.67476e-06
0.000157878
-3.67098e-06
0.000161545
-3.66664e-06
0.000165207
-3.6617e-06
0.000168863
-3.65612e-06
0.000172513
-3.64988e-06
0.000176156
-3.64294e-06
0.000179791
-3.63527e-06
0.000183418
-3.62683e-06
0.000187035
-3.61758e-06
0.000190643
-3.6075e-06
0.000194239
-3.59654e-06
0.000197824
-3.58468e-06
0.000201396
-3.57187e-06
0.000204954
-3.55808e-06
0.000208497
-3.54327e-06
0.000212025
-3.52742e-06
0.000215535
-3.51049e-06
0.000219028
-3.49244e-06
0.000222501
-3.47324e-06
0.000225954
-3.45286e-06
0.000229385
-3.43127e-06
0.000232794
-3.40843e-06
0.000236178
-3.38432e-06
0.000239537
-3.35891e-06
0.000242869
-3.33216e-06
0.000246173
-3.30406e-06
0.000249448
-3.27458e-06
0.000252691
-3.24369e-06
0.000255903
-3.21138e-06
0.00025908
-3.17761e-06
0.000262223
-3.14238e-06
0.000265328
-3.10567e-06
0.000268396
-3.06746e-06
0.000271423
-3.02774e-06
0.00027441
-2.9865e-06
0.000277354
-2.94374e-06
0.000280253
-2.89944e-06
0.000283107
-2.8536e-06
0.000285913
-2.80623e-06
0.00028867
-2.75732e-06
0.000291377
-2.70688e-06
0.000294032
-2.65492e-06
0.000296634
-2.60144e-06
0.00029918
-2.54646e-06
0.00030167
-2.49e-06
0.000304102
-2.43207e-06
0.000306475
-2.3727e-06
0.000308787
-2.3119e-06
0.000311036
-2.24972e-06
0.000313223
-2.18616e-06
0.000315344
-2.12128e-06
0.000317399
-2.0551e-06
0.000319387
-1.98766e-06
0.000321306
-1.919e-06
0.000323155
-1.84917e-06
0.000324933
-1.77821e-06
0.000326639
-1.70617e-06
0.000328272
-1.6331e-06
0.000329831
-1.55906e-06
0.000331315
-1.48409e-06
0.000332724
-1.40825e-06
0.000334055
-1.33161e-06
0.000335309
-1.25422e-06
0.000336486
-1.17614e-06
0.000337583
-1.09744e-06
0.000338601
-1.01818e-06
0.00033954
-9.38434e-07
0.000340398
-8.58258e-07
0.000341176
-7.77721e-07
0.000341873
-6.96893e-07
0.000342488
-6.15841e-07
0.000343023
-5.34633e-07
0.000343476
-4.53337e-07
0.000343848
-3.72022e-07
0.000344139
-2.90755e-07
0.000344349
-2.09603e-07
0.000344477
-1.28633e-07
0.000344525
-4.79121e-08
0.000344493
3.24963e-08
0.00034438
1.12528e-07
0.000344188
1.9212e-07
0.000343917
2.71211e-07
0.000343567
3.49742e-07
0.00034314
4.27655e-07
0.000342635
5.04893e-07
0.000342053
5.81402e-07
0.000341396
6.57129e-07
0.000340664
7.32023e-07
0.000339858
8.06037e-07
0.000338979
8.79124e-07
0.000338028
9.5124e-07
0.000337005
1.02234e-06
0.000335913
1.0924e-06
0.000334752
1.16136e-06
0.000333522
1.2292e-06
0.000332227
1.29588e-06
0.000330865
1.36138e-06
0.000329439
1.42566e-06
0.000327951
1.48871e-06
0.0003264
1.55049e-06
0.000324789
1.611e-06
0.000323119
1.67021e-06
0.000321391
1.7281e-06
0.000319606
1.78467e-06
0.000317766
1.8399e-06
0.000315873
1.89379e-06
0.000313926
1.94632e-06
0.000311929
1.99749e-06
0.000309881
2.04731e-06
0.000307786
2.09576e-06
0.000305643
2.14286e-06
0.000303454
2.18859e-06
0.000301221
2.23298e-06
0.000298945
2.27603e-06
0.000296628
2.31774e-06
0.000294269
2.35812e-06
0.000291872
2.39719e-06
0.000289437
2.43495e-06
0.000286966
2.47143e-06
0.000284459
2.50663e-06
0.000281919
2.54057e-06
0.000279345
2.57327e-06
0.000276741
2.60476e-06
0.000274106
2.63503e-06
0.000271441
2.66413e-06
0.000268749
2.69206e-06
0.000266031
2.71885e-06
0.000263286
2.74452e-06
0.000260517
2.76909e-06
0.000257724
2.79259e-06
0.000254909
2.81503e-06
0.000252073
2.83645e-06
0.000249216
2.85687e-06
0.00024634
2.87631e-06
0.000243445
2.89479e-06
0.000240533
2.91235e-06
0.000237604
2.929e-06
0.000234659
2.94477e-06
0.000231699
2.95969e-06
0.000228725
2.97377e-06
0.000225738
2.98705e-06
0.000222739
2.99956e-06
0.000219727
3.0113e-06
0.000216705
3.02232e-06
0.000213672
3.03263e-06
0.00021063
3.04225e-06
0.000207579
3.05122e-06
0.000204519
3.05956e-06
0.000201452
3.06728e-06
0.000198378
3.07441e-06
0.000195297
3.08098e-06
0.00019221
3.08701e-06
0.000189117
3.09251e-06
0.00018602
3.09751e-06
0.000182918
3.10204e-06
0.000179812
3.10611e-06
0.000176702
3.10975e-06
0.000173589
3.11296e-06
0.000170473
3.11579e-06
0.000167355
3.11823e-06
0.000164235
3.12032e-06
0.000161112
3.12207e-06
0.000157989
3.12349e-06
0.000154864
3.12462e-06
0.000151739
3.12545e-06
0.000148613
3.12602e-06
0.000145487
3.12634e-06
0.00014236
3.12642e-06
0.000139234
3.12628e-06
0.000136108
3.12593e-06
0.000132983
3.12539e-06
0.000129858
3.12468e-06
0.000126734
3.1238e-06
0.000123611
3.12277e-06
0.00012049
3.12161e-06
0.000117369
3.12033e-06
0.00011425
3.11893e-06
0.000111133
3.11743e-06
0.000108017
3.11585e-06
0.000104903
3.11419e-06
0.00010179
3.11246e-06
9.86798e-05
3.11068e-06
9.5571e-05
3.10885e-06
9.2464e-05
3.10699e-06
8.93589e-05
3.1051e-06
8.62557e-05
3.10319e-06
8.31544e-05
3.10127e-06
8.00551e-05
3.09935e-06
7.69576e-05
3.09744e-06
7.38621e-05
3.09555e-06
7.07684e-05
3.09367e-06
6.76766e-05
3.09182e-06
6.45866e-05
3.09001e-06
6.14983e-05
3.08824e-06
5.84118e-05
3.08652e-06
5.5327e-05
3.08484e-06
5.22437e-05
3.08323e-06
4.9162e-05
3.08168e-06
4.60818e-05
3.0802e-06
4.30031e-05
3.07879e-06
3.99256e-05
3.07745e-06
3.68494e-05
3.07619e-06
3.37744e-05
3.07502e-06
3.07005e-05
3.07394e-06
2.76275e-05
3.07294e-06
2.45555e-05
3.07204e-06
2.14843e-05
3.07123e-06
1.84137e-05
3.07051e-06
1.53438e-05
3.0699e-06
1.22744e-05
3.06939e-06
9.20547e-06
3.06897e-06
6.13681e-06
3.06866e-06
3.06835e-06
3.06846e-06
3.06835e-06
3.65062e-06
-7.30137e-06
7.30137e-06
-7.30162e-06
1.09524e-05
-7.30217e-06
1.46038e-05
-7.303e-06
1.82558e-05
-7.3041e-06
2.19085e-05
-7.30546e-06
2.5562e-05
-7.30708e-06
2.92164e-05
-7.30895e-06
3.28718e-05
-7.31105e-06
3.65285e-05
-7.31338e-06
4.01864e-05
-7.31591e-06
4.38457e-05
-7.31864e-06
4.75064e-05
-7.32155e-06
5.11687e-05
-7.32462e-06
5.48326e-05
-7.32782e-06
5.84981e-05
-7.33114e-06
6.21654e-05
-7.33456e-06
6.58344e-05
-7.33805e-06
6.95052e-05
-7.34158e-06
7.31777e-05
-7.34513e-06
7.68521e-05
-7.34866e-06
8.05282e-05
-7.35215e-06
8.4206e-05
-7.35556e-06
8.78855e-05
-7.35885e-06
9.15665e-05
-7.362e-06
9.5249e-05
-7.36497e-06
9.8933e-05
-7.36771e-06
0.000102618
-7.37018e-06
0.000106304
-7.37234e-06
0.000109992
-7.37415e-06
0.000113679
-7.37556e-06
0.000117368
-7.37653e-06
0.000121056
-7.377e-06
0.000124745
-7.37692e-06
0.000128433
-7.37624e-06
0.000132121
-7.37491e-06
0.000135808
-7.37288e-06
0.000139493
-7.37007e-06
0.000143176
-7.36645e-06
0.000146858
-7.36195e-06
0.000150536
-7.3565e-06
0.000154211
-7.35005e-06
0.000157883
-7.34253e-06
0.00016155
-7.33387e-06
0.000165212
-7.32402e-06
0.000168869
-7.31291e-06
0.00017252
-7.30047e-06
0.000176164
-7.28662e-06
0.0001798
-7.27131e-06
0.000183427
-7.25446e-06
0.000187046
-7.23601e-06
0.000190654
-7.21587e-06
0.000194251
-7.19399e-06
0.000197837
-7.1703e-06
0.00020141
-7.14471e-06
0.000204969
-7.11717e-06
0.000208513
-7.0876e-06
0.000212042
-7.05593e-06
0.000215553
-7.0221e-06
0.000219047
-6.98603e-06
0.000222521
-6.94767e-06
0.000225976
-6.90694e-06
0.000229408
-6.86378e-06
0.000232818
-6.81814e-06
0.000236203
-6.76995e-06
0.000239564
-6.71915e-06
0.000242897
-6.66568e-06
0.000246203
-6.60951e-06
0.000249479
-6.55056e-06
0.000252724
-6.48881e-06
0.000255936
-6.4242e-06
0.000259116
-6.35669e-06
0.000262259
-6.28625e-06
0.000265367
-6.21284e-06
0.000268436
-6.13643e-06
0.000271465
-6.05701e-06
0.000274453
-5.97454e-06
0.000277398
-5.88901e-06
0.000280299
-5.80041e-06
0.000283154
-5.70874e-06
0.000285962
-5.61399e-06
0.000288721
-5.51617e-06
0.000291429
-5.41528e-06
0.000294086
-5.31135e-06
0.000296689
-5.20438e-06
0.000299237
-5.09441e-06
0.000301728
-4.98147e-06
0.000304162
-4.86559e-06
0.000306536
-4.74682e-06
0.000308849
-4.6252e-06
0.0003111
-4.5008e-06
0.000313288
-4.37366e-06
0.00031541
-4.24385e-06
0.000317467
-4.11146e-06
0.000319455
-3.97654e-06
0.000321376
-3.83918e-06
0.000323226
-3.69947e-06
0.000325005
-3.55751e-06
0.000326712
-3.41338e-06
0.000328346
-3.26718e-06
0.000329906
-3.11904e-06
0.000331391
-2.96904e-06
0.0003328
-2.81731e-06
0.000334133
-2.66396e-06
0.000335388
-2.50912e-06
0.000336564
-2.3529e-06
0.000337662
-2.19544e-06
0.000338681
-2.03686e-06
0.00033962
-1.8773e-06
0.000340479
-1.71688e-06
0.000341257
-1.55574e-06
0.000341954
-1.39401e-06
0.00034257
-1.23184e-06
0.000343104
-1.06936e-06
0.000343558
-9.06697e-07
0.00034393
-7.43998e-07
0.00034422
-5.81397e-07
0.00034443
-4.19027e-07
0.000344558
-2.57022e-07
0.000344606
-9.55143e-08
0.000344573
6.53662e-08
0.00034446
2.25492e-07
0.000344267
3.84737e-07
0.000343996
5.4298e-07
0.000343645
7.001e-07
0.000343217
8.55982e-07
0.000342711
1.01051e-06
0.000342129
1.16358e-06
0.000341471
1.31509e-06
0.000340738
1.46492e-06
0.000339931
1.613e-06
0.000339051
1.75922e-06
0.000338099
1.90349e-06
0.000337076
2.04574e-06
0.000335982
2.18588e-06
0.00033482
2.32384e-06
0.000333589
2.45955e-06
0.000332292
2.59294e-06
0.00033093
2.72396e-06
0.000329503
2.85256e-06
0.000328013
2.97867e-06
0.000326461
3.10227e-06
0.000324849
3.2233e-06
0.000323177
3.34173e-06
0.000321448
3.45753e-06
0.000319662
3.57068e-06
0.000317821
3.68115e-06
0.000315925
3.78892e-06
0.000313978
3.89399e-06
0.000311979
3.99634e-06
0.00030993
4.09597e-06
0.000307833
4.19288e-06
0.000305689
4.28707e-06
0.000303499
4.37854e-06
0.000301265
4.46731e-06
0.000298987
4.55339e-06
0.000296668
4.6368e-06
0.000294309
4.71755e-06
0.00029191
4.79567e-06
0.000289474
4.87119e-06
0.000287001
4.94412e-06
0.000284493
5.01451e-06
0.000281952
5.08238e-06
0.000279377
5.14777e-06
0.000276771
5.21072e-06
0.000274135
5.27125e-06
0.00027147
5.32942e-06
0.000268776
5.38526e-06
0.000266056
5.43882e-06
0.000263311
5.49013e-06
0.000260541
5.53925e-06
0.000257747
5.58623e-06
0.000254931
5.6311e-06
0.000252094
5.67391e-06
0.000249236
5.71472e-06
0.000246358
5.75358e-06
0.000243463
5.79052e-06
0.000240549
5.8256e-06
0.00023762
5.85888e-06
0.000234674
5.8904e-06
0.000231713
5.9202e-06
0.000228739
5.94835e-06
0.000225751
5.97489e-06
0.000222751
5.99987e-06
0.000219739
6.02334e-06
0.000216716
6.04534e-06
0.000213682
6.06594e-06
0.000210639
6.08517e-06
0.000207588
6.10308e-06
0.000204527
6.11973e-06
0.00020146
6.13515e-06
0.000198385
6.14939e-06
0.000195303
6.16251e-06
0.000192215
6.17453e-06
0.000189122
6.18552e-06
0.000186024
6.19551e-06
0.000182922
6.20454e-06
0.000179815
6.21266e-06
0.000176705
6.21991e-06
0.000173592
6.22633e-06
0.000170476
6.23195e-06
0.000167357
6.23682e-06
0.000164236
6.24098e-06
0.000161114
6.24445e-06
0.00015799
6.24729e-06
0.000154865
6.24952e-06
0.00015174
6.25118e-06
0.000148613
6.2523e-06
0.000145487
6.25292e-06
0.00014236
6.25306e-06
0.000139234
6.25276e-06
0.000136108
6.25205e-06
0.000132982
6.25096e-06
0.000129857
6.24952e-06
0.000126733
6.24775e-06
0.00012361
6.24569e-06
0.000120489
6.24335e-06
0.000117368
6.24077e-06
0.000114249
6.23796e-06
0.000111132
6.23496e-06
0.000108016
6.23178e-06
0.000104901
6.22845e-06
0.000101789
6.22498e-06
9.86781e-05
6.22141e-06
9.55692e-05
6.21774e-06
9.24622e-05
6.21401e-06
8.93571e-05
6.21022e-06
8.62539e-05
6.20639e-06
8.31526e-05
6.20255e-06
8.00532e-05
6.19871e-06
7.69558e-05
6.19488e-06
7.38603e-05
6.19108e-06
7.07666e-05
6.18732e-06
6.76748e-05
6.18362e-06
6.45849e-05
6.17999e-06
6.14967e-05
6.17644e-06
5.84102e-05
6.17298e-06
5.53254e-05
6.16964e-06
5.22422e-05
6.1664e-06
4.91606e-05
6.1633e-06
4.60805e-05
6.16033e-06
4.30018e-05
6.1575e-06
3.99244e-05
6.15482e-06
3.68483e-05
6.15231e-06
3.37733e-05
6.14996e-06
3.06995e-05
6.14779e-06
2.76266e-05
6.14579e-06
2.45547e-05
6.14398e-06
2.14836e-05
6.14236e-06
1.84131e-05
6.14093e-06
1.53433e-05
6.13971e-06
1.2274e-05
6.13868e-06
9.20517e-06
6.13785e-06
6.13661e-06
6.13723e-06
3.06825e-06
6.13681e-06
6.13661e-06
3.65033e-06
-1.09517e-05
7.30082e-06
-1.09521e-05
1.09516e-05
-1.09529e-05
1.46027e-05
-1.09542e-05
1.82545e-05
-1.09558e-05
2.19069e-05
-1.09579e-05
2.55601e-05
-1.09603e-05
2.92143e-05
-1.09631e-05
3.28696e-05
-1.09663e-05
3.6526e-05
-1.09698e-05
4.01837e-05
-1.09736e-05
4.38428e-05
-1.09777e-05
4.75034e-05
-1.09821e-05
5.11656e-05
-1.09868e-05
5.48293e-05
-1.09916e-05
5.84948e-05
-1.09966e-05
6.2162e-05
-1.10018e-05
6.5831e-05
-1.1007e-05
6.95017e-05
-1.10124e-05
7.31743e-05
-1.10177e-05
7.68487e-05
-1.1023e-05
8.05249e-05
-1.10283e-05
8.42028e-05
-1.10335e-05
8.78824e-05
-1.10385e-05
9.15637e-05
-1.10432e-05
9.52464e-05
-1.10477e-05
9.89306e-05
-1.10519e-05
0.000102616
-1.10557e-05
0.000106303
-1.1059e-05
0.00010999
-1.10617e-05
0.000113679
-1.10639e-05
0.000117368
-1.10654e-05
0.000121057
-1.10662e-05
0.000124746
-1.10661e-05
0.000128435
-1.10652e-05
0.000132123
-1.10633e-05
0.000135811
-1.10603e-05
0.000139497
-1.10561e-05
0.000143181
-1.10508e-05
0.000146863
-1.10441e-05
0.000150543
-1.1036e-05
0.000154219
-1.10264e-05
0.000157892
-1.10152e-05
0.00016156
-1.10023e-05
0.000165224
-1.09876e-05
0.000168882
-1.0971e-05
0.000172534
-1.09525e-05
0.000176179
-1.09318e-05
0.000179817
-1.09089e-05
0.000183446
-1.08837e-05
0.000187066
-1.08561e-05
0.000190676
-1.0826e-05
0.000194275
-1.07933e-05
0.000197863
-1.07578e-05
0.000201438
-1.07195e-05
0.000204999
-1.06783e-05
0.000208545
-1.0634e-05
0.000212076
-1.05866e-05
0.00021559
-1.05359e-05
0.000219086
-1.04819e-05
0.000222562
-1.04245e-05
0.000226019
-1.03634e-05
0.000229454
-1.02988e-05
0.000232866
-1.02304e-05
0.000236254
-1.01582e-05
0.000239617
-1.00821e-05
0.000242954
-1.00019e-05
0.000246262
-9.91772e-06
0.000249541
-9.82936e-06
0.000252789
-9.73679e-06
0.000256004
-9.63992e-06
0.000259186
-9.5387e-06
0.000262333
-9.43308e-06
0.000265443
-9.323e-06
0.000268515
-9.20843e-06
0.000271548
-9.08931e-06
0.000274539
-8.96563e-06
0.000277487
-8.83735e-06
0.000280391
-8.70447e-06
0.000283249
-8.56696e-06
0.00028606
-8.42483e-06
0.000288822
-8.27809e-06
0.000291534
-8.12674e-06
0.000294193
-7.97081e-06
0.000296799
-7.81033e-06
0.00029935
-7.64534e-06
0.000301844
-7.47588e-06
0.000304281
-7.302e-06
0.000306658
-7.12379e-06
0.000308974
-6.9413e-06
0.000311228
-6.75461e-06
0.000313418
-6.56382e-06
0.000315543
-6.36903e-06
0.000317602
-6.17033e-06
0.000319593
-5.96785e-06
0.000321516
-5.76171e-06
0.000323368
-5.55204e-06
0.00032515
-5.33896e-06
0.000326859
-5.12264e-06
0.000328495
-4.90322e-06
0.000330057
-4.68086e-06
0.000331543
-4.45573e-06
0.000332954
-4.22799e-06
0.000334288
-3.99782e-06
0.000335544
-3.7654e-06
0.000336722
-3.53092e-06
0.000337821
-3.29456e-06
0.000338841
-3.05653e-06
0.000339781
-2.81702e-06
0.00034064
-2.57622e-06
0.000341419
-2.33434e-06
0.000342116
-2.09158e-06
0.000342733
-1.84815e-06
0.000343267
-1.60426e-06
0.000343721
-1.3601e-06
0.000344093
-1.11588e-06
0.000344383
-8.7181e-07
0.000344592
-6.28088e-07
0.00034472
-3.84916e-07
0.000344767
-1.42492e-07
0.000344734
9.89879e-08
0.00034462
3.39333e-07
0.000344426
5.78354e-07
0.000344153
8.15867e-07
0.000343802
1.05169e-06
0.000343372
1.28566e-06
0.000342865
1.51759e-06
0.000342281
1.74733e-06
0.000341621
1.97471e-06
0.000340887
2.19959e-06
0.000340078
2.42181e-06
0.000339196
2.64125e-06
0.000338242
2.85777e-06
0.000337216
3.07123e-06
0.000336121
3.28154e-06
0.000334956
3.48856e-06
0.000333723
3.69221e-06
0.000332424
3.89238e-06
0.000331059
4.08898e-06
0.000329629
4.28193e-06
0.000328137
4.47116e-06
0.000326582
4.6566e-06
0.000324968
4.83819e-06
0.000323293
5.01588e-06
0.000321561
5.18962e-06
0.000319773
5.35936e-06
0.000317929
5.52509e-06
0.000316031
5.68677e-06
0.00031408
5.84438e-06
0.000312079
5.99791e-06
0.000310028
6.14736e-06
0.000307928
6.29271e-06
0.000305781
6.43399e-06
0.000303588
6.57119e-06
0.000301351
6.70433e-06
0.000299071
6.83343e-06
0.000296749
6.95851e-06
0.000294387
7.07962e-06
0.000291986
7.19677e-06
0.000289547
7.31001e-06
0.000287072
7.41937e-06
0.000284562
7.52491e-06
0.000282017
7.62668e-06
0.000279441
7.72472e-06
0.000276832
7.81908e-06
0.000274194
7.90984e-06
0.000271526
7.99704e-06
0.00026883
8.08074e-06
0.000266108
8.16102e-06
0.00026336
8.23794e-06
0.000260588
8.31157e-06
0.000257792
8.38197e-06
0.000254974
8.44922e-06
0.000252135
8.51338e-06
0.000249275
8.57453e-06
0.000246396
8.63275e-06
0.000243498
8.6881e-06
0.000240583
8.74067e-06
0.000237652
8.79052e-06
0.000234704
8.83773e-06
0.000231742
8.88238e-06
0.000228766
8.92454e-06
0.000225776
8.96429e-06
0.000222775
9.00169e-06
0.000219761
9.03683e-06
0.000216737
9.06978e-06
0.000213702
9.10062e-06
0.000210658
9.1294e-06
0.000207605
9.15621e-06
0.000204543
9.18112e-06
0.000201474
9.20419e-06
0.000198398
9.22551e-06
0.000195315
9.24512e-06
0.000192227
9.26311e-06
0.000189133
9.27953e-06
0.000186034
9.29446e-06
0.00018293
9.30796e-06
0.000179823
9.32009e-06
0.000176712
9.33091e-06
0.000173598
9.34048e-06
0.000170481
9.34887e-06
0.000167362
9.35613e-06
0.00016424
9.36232e-06
0.000161117
9.36749e-06
0.000157993
9.3717e-06
0.000154867
9.375e-06
0.000151741
9.37745e-06
0.000148614
9.37909e-06
0.000145487
9.37997e-06
0.00014236
9.38015e-06
0.000139233
9.37966e-06
0.000136107
9.37856e-06
0.000132981
9.37689e-06
0.000129856
9.37469e-06
0.000126731
9.37201e-06
0.000123608
9.36888e-06
0.000120486
9.36534e-06
0.000117366
9.36143e-06
0.000114246
9.3572e-06
0.000111129
9.35266e-06
0.000108013
9.34787e-06
0.000104898
9.34284e-06
0.000101785
9.33762e-06
9.86747e-05
9.33223e-06
9.55657e-05
9.32671e-06
9.24586e-05
9.32109e-06
8.93535e-05
9.31538e-06
8.62502e-05
9.30962e-06
8.31489e-05
9.30384e-06
8.00496e-05
9.29805e-06
7.69522e-05
9.29229e-06
7.38567e-05
9.28657e-06
7.07631e-05
9.28091e-06
6.76714e-05
9.27535e-06
6.45815e-05
9.26989e-06
6.14933e-05
9.26455e-06
5.8407e-05
9.25935e-06
5.53223e-05
9.25432e-06
5.22392e-05
9.24946e-06
4.91578e-05
9.24478e-06
4.60778e-05
9.24032e-06
4.29992e-05
9.23607e-06
3.9922e-05
9.23204e-06
3.6846e-05
9.22826e-06
3.37712e-05
9.22473e-06
3.06976e-05
9.22147e-06
2.76249e-05
9.21847e-06
2.45531e-05
9.21575e-06
2.14822e-05
9.21331e-06
1.8412e-05
9.21116e-06
1.53423e-05
9.20932e-06
1.22732e-05
9.20777e-06
9.20457e-06
9.20653e-06
6.13621e-06
9.20559e-06
3.06805e-06
9.20497e-06
9.20466e-06
3.64993e-06
-1.46016e-05
7.3e-06
-1.46022e-05
1.09503e-05
-1.46033e-05
1.46011e-05
-1.4605e-05
1.82525e-05
-1.46072e-05
2.19045e-05
-1.46099e-05
2.55574e-05
-1.46132e-05
2.92112e-05
-1.4617e-05
3.28662e-05
-1.46212e-05
3.65223e-05
-1.46259e-05
4.01797e-05
-1.46311e-05
4.38386e-05
-1.46366e-05
4.74989e-05
-1.46425e-05
5.11608e-05
-1.46487e-05
5.48244e-05
-1.46552e-05
5.84897e-05
-1.46619e-05
6.21568e-05
-1.46689e-05
6.58258e-05
-1.46759e-05
6.94965e-05
-1.46831e-05
7.31691e-05
-1.46903e-05
7.68436e-05
-1.46975e-05
8.05199e-05
-1.47046e-05
8.4198e-05
-1.47116e-05
8.78778e-05
-1.47183e-05
9.15593e-05
-1.47248e-05
9.52425e-05
-1.47309e-05
9.89271e-05
-1.47365e-05
0.000102613
-1.47416e-05
0.0001063
-1.47461e-05
0.000109988
-1.47499e-05
0.000113677
-1.47529e-05
0.000117367
-1.47551e-05
0.000121057
-1.47562e-05
0.000124747
-1.47562e-05
0.000128437
-1.47551e-05
0.000132126
-1.47527e-05
0.000135815
-1.47488e-05
0.000139502
-1.47435e-05
0.000143188
-1.47364e-05
0.000146872
-1.47277e-05
0.000150553
-1.4717e-05
0.000154231
-1.47044e-05
0.000157905
-1.46896e-05
0.000161575
-1.46726e-05
0.000165241
-1.46531e-05
0.000168901
-1.46312e-05
0.000172555
-1.46065e-05
0.000176202
-1.45791e-05
0.000179842
-1.45488e-05
0.000183474
-1.45154e-05
0.000187096
-1.44787e-05
0.000190709
-1.44388e-05
0.000194311
-1.43953e-05
0.000197902
-1.43482e-05
0.000201479
-1.42973e-05
0.000205043
-1.42425e-05
0.000208593
-1.41836e-05
0.000212127
-1.41205e-05
0.000215644
-1.40531e-05
0.000219143
-1.39813e-05
0.000222624
-1.39048e-05
0.000226084
-1.38236e-05
0.000229523
-1.37375e-05
0.000232939
-1.36465e-05
0.000236331
-1.35503e-05
0.000239698
-1.3449e-05
0.000243038
-1.33422e-05
0.000246351
-1.32301e-05
0.000249634
-1.31124e-05
0.000252886
-1.29891e-05
0.000256106
-1.286e-05
0.000259292
-1.27251e-05
0.000262444
-1.25844e-05
0.000265558
-1.24377e-05
0.000268635
-1.2285e-05
0.000271672
-1.21262e-05
0.000274667
-1.19613e-05
0.00027762
-1.17903e-05
0.000280529
-1.16131e-05
0.000283392
-1.14298e-05
0.000286207
-1.12403e-05
0.000288974
-1.10446e-05
0.00029169
-1.08428e-05
0.000294354
-1.06348e-05
0.000296964
-1.04208e-05
0.00029952
-1.02007e-05
0.000302019
-9.97469e-06
0.000304459
-9.74277e-06
0.000306841
-9.50503e-06
0.000309161
-9.26158e-06
0.000311419
-9.01253e-06
0.000313613
-8.75799e-06
0.000315742
-8.4981e-06
0.000317805
-8.233e-06
0.0003198
-7.96284e-06
0.000321726
-7.68778e-06
0.000323582
-7.408e-06
0.000325366
-7.12368e-06
0.000327079
-6.83501e-06
0.000328718
-6.54221e-06
0.000330282
-6.24547e-06
0.000331772
-5.94502e-06
0.000333185
-5.64109e-06
0.000334521
-5.33392e-06
0.000335779
-5.02374e-06
0.000336959
-4.7108e-06
0.00033806
-4.39536e-06
0.000339081
-4.07768e-06
0.000340022
-3.75802e-06
0.000340882
-3.43664e-06
0.000341662
-3.11382e-06
0.00034236
-2.78983e-06
0.000342977
-2.46494e-06
0.000343512
-2.13942e-06
0.000343966
-1.81356e-06
0.000344337
-1.48762e-06
0.000344627
-1.16188e-06
0.000344836
-8.36605e-07
0.000344963
-5.12068e-07
0.000345009
-1.88532e-07
0.000344974
1.3374e-07
0.000344859
4.54492e-07
0.000344664
7.73474e-07
0.00034439
1.09044e-06
0.000344036
1.40514e-06
0.000343604
1.71736e-06
0.000343095
2.02686e-06
0.000342509
2.33342e-06
0.000341847
2.63683e-06
0.00034111
2.93689e-06
0.000340298
3.23341e-06
0.000339413
3.5262e-06
0.000338456
3.81508e-06
0.000337427
4.09989e-06
0.000336328
4.38047e-06
0.00033516
4.65667e-06
0.000333924
4.92834e-06
0.000332621
5.19537e-06
0.000331252
5.45764e-06
0.000329819
5.71502e-06
0.000328323
5.96744e-06
0.000326765
6.21479e-06
0.000325146
6.45699e-06
0.000323468
6.69397e-06
0.000321732
6.92568e-06
0.000319939
7.15207e-06
0.000318091
7.37307e-06
0.000316189
7.58868e-06
0.000314235
7.79885e-06
0.000312229
8.00357e-06
0.000310174
8.20283e-06
0.00030807
8.39663e-06
0.000305919
8.58498e-06
0.000303722
8.76789e-06
0.000301481
8.94538e-06
0.000299197
9.11747e-06
0.000296871
9.28421e-06
0.000294505
9.44563e-06
0.0002921
9.60177e-06
0.000289657
9.75269e-06
0.000287178
9.89845e-06
0.000284664
1.00391e-05
0.000282116
1.01747e-05
0.000279536
1.03053e-05
0.000276924
1.04311e-05
0.000274281
1.0552e-05
0.00027161
1.06681e-05
0.000268911
1.07797e-05
0.000266186
1.08866e-05
0.000263435
1.0989e-05
0.000260659
1.10871e-05
0.00025786
1.11809e-05
0.000255039
1.12704e-05
0.000252197
1.13559e-05
0.000249334
1.14373e-05
0.000246452
1.15148e-05
0.000243551
1.15885e-05
0.000240634
1.16585e-05
0.000237699
1.17248e-05
0.000234749
1.17876e-05
0.000231785
1.18471e-05
0.000228806
1.19031e-05
0.000225814
1.1956e-05
0.00022281
1.20058e-05
0.000219795
1.20525e-05
0.000216768
1.20963e-05
0.000213731
1.21373e-05
0.000210685
1.21756e-05
0.00020763
1.22113e-05
0.000204567
1.22444e-05
0.000201496
1.2275e-05
0.000198418
1.23033e-05
0.000195334
1.23294e-05
0.000192244
1.23532e-05
0.000189148
1.2375e-05
0.000186048
1.23949e-05
0.000182943
1.24128e-05
0.000179834
1.24288e-05
0.000176722
1.24432e-05
0.000173607
1.24558e-05
0.000170489
1.24669e-05
0.000167368
1.24765e-05
0.000164246
1.24847e-05
0.000161122
1.24915e-05
0.000157997
1.2497e-05
0.00015487
1.25013e-05
0.000151743
1.25045e-05
0.000148616
1.25066e-05
0.000145488
1.25077e-05
0.00014236
1.25079e-05
0.000139233
1.25072e-05
0.000136106
1.25057e-05
0.000132979
1.25034e-05
0.000129853
1.25004e-05
0.000126729
1.24967e-05
0.000123605
1.24925e-05
0.000120483
1.24877e-05
0.000117362
1.24824e-05
0.000114242
1.24767e-05
0.000111124
1.24706e-05
0.000108008
1.24642e-05
0.000104893
1.24574e-05
0.00010178
1.24504e-05
9.86695e-05
1.24432e-05
9.55604e-05
1.24358e-05
9.24532e-05
1.24283e-05
8.9348e-05
1.24206e-05
8.62447e-05
1.24129e-05
8.31434e-05
1.24051e-05
8.00441e-05
1.23974e-05
7.69467e-05
1.23897e-05
7.38513e-05
1.2382e-05
7.07578e-05
1.23744e-05
6.76661e-05
1.2367e-05
6.45763e-05
1.23597e-05
6.14884e-05
1.23525e-05
5.84021e-05
1.23456e-05
5.53176e-05
1.23388e-05
5.22347e-05
1.23323e-05
4.91535e-05
1.23261e-05
4.60737e-05
1.23201e-05
4.29953e-05
1.23144e-05
3.99183e-05
1.2309e-05
3.68426e-05
1.2304e-05
3.37681e-05
1.22993e-05
3.06947e-05
1.22949e-05
2.76223e-05
1.22909e-05
2.45508e-05
1.22872e-05
2.14801e-05
1.2284e-05
1.84102e-05
1.22811e-05
1.53408e-05
1.22786e-05
1.2272e-05
1.22766e-05
9.20367e-06
1.22749e-05
6.1356e-06
1.22737e-05
3.06775e-06
1.22728e-05
1.22724e-05
3.64937e-06
-1.8251e-05
7.29889e-06
-1.82517e-05
1.09487e-05
-1.82531e-05
1.45989e-05
-1.82552e-05
1.82498e-05
-1.8258e-05
2.19013e-05
-1.82615e-05
2.55537e-05
-1.82656e-05
2.92071e-05
-1.82704e-05
3.28615e-05
-1.82757e-05
3.65173e-05
-1.82816e-05
4.01743e-05
-1.82881e-05
4.38328e-05
-1.82951e-05
4.74928e-05
-1.83025e-05
5.11545e-05
-1.83103e-05
5.48178e-05
-1.83185e-05
5.8483e-05
-1.83271e-05
6.21499e-05
-1.83358e-05
6.58188e-05
-1.83448e-05
6.94895e-05
-1.83538e-05
7.31621e-05
-1.8363e-05
7.68367e-05
-1.83721e-05
8.05131e-05
-1.83811e-05
8.41914e-05
-1.83899e-05
8.78716e-05
-1.83985e-05
9.15535e-05
-1.84067e-05
9.5237e-05
-1.84144e-05
9.89222e-05
-1.84216e-05
0.000102609
-1.84282e-05
0.000106297
-1.8434e-05
0.000109986
-1.84389e-05
0.000113676
-1.84428e-05
0.000117366
-1.84457e-05
0.000121057
-1.84473e-05
0.000124749
-1.84476e-05
0.00012844
-1.84463e-05
0.000132131
-1.84435e-05
0.000135821
-1.84389e-05
0.00013951
-1.84324e-05
0.000143197
-1.84239e-05
0.000146883
-1.84131e-05
0.000150566
-1.84001e-05
0.000154246
-1.83845e-05
0.000157922
-1.83662e-05
0.000161595
-1.83452e-05
0.000165263
-1.83211e-05
0.000168926
-1.8294e-05
0.000172583
-1.82634e-05
0.000176233
-1.82294e-05
0.000179876
-1.81918e-05
0.000183511
-1.81502e-05
0.000187137
-1.81047e-05
0.000190753
-1.8055e-05
0.000194359
-1.80009e-05
0.000197953
-1.79423e-05
0.000201535
-1.78789e-05
0.000205103
-1.78107e-05
0.000208657
-1.77374e-05
0.000212195
-1.76588e-05
0.000215716
-1.75748e-05
0.00021922
-1.74852e-05
0.000222706
-1.73899e-05
0.000226171
-1.72886e-05
0.000229614
-1.71813e-05
0.000233035
-1.70677e-05
0.000236433
-1.69477e-05
0.000239805
-1.68212e-05
0.000243151
-1.6688e-05
0.000246469
-1.6548e-05
0.000249757
-1.64011e-05
0.000253015
-1.62471e-05
0.000256241
-1.60859e-05
0.000259434
-1.59174e-05
0.000262591
-1.57416e-05
0.000265712
-1.55584e-05
0.000268794
-1.53676e-05
0.000271837
-1.51692e-05
0.000274839
-1.49631e-05
0.000277798
-1.47494e-05
0.000280713
-1.4528e-05
0.000283582
-1.42988e-05
0.000286404
-1.40619e-05
0.000289176
-1.38173e-05
0.000291898
-1.35649e-05
0.000294569
-1.33049e-05
0.000297185
-1.30373e-05
0.000299746
-1.27621e-05
0.000302251
-1.24794e-05
0.000304698
-1.21893e-05
0.000307085
-1.1892e-05
0.000309411
-1.15875e-05
0.000311674
-1.12759e-05
0.000313873
-1.09575e-05
0.000316008
-1.06324e-05
0.000318075
-1.03007e-05
0.000320075
-9.96272e-06
0.000322006
-9.61857e-06
0.000323867
-9.2685e-06
0.000325656
-8.91273e-06
0.000327372
-8.55152e-06
0.000329015
-8.18512e-06
0.000330583
-7.81379e-06
0.000332076
-7.4378e-06
0.000333493
-7.05745e-06
0.000334832
-6.67303e-06
0.000336093
-6.28484e-06
0.000337275
-5.8932e-06
0.000338378
-5.49841e-06
0.000339401
-5.10082e-06
0.000340344
-4.70074e-06
0.000341206
-4.29852e-06
0.000341987
-3.89448e-06
0.000342686
-3.48898e-06
0.000343303
-3.08235e-06
0.000343839
-2.67495e-06
0.000344292
-2.2671e-06
0.000344664
-1.85917e-06
0.000344953
-1.45148e-06
0.000345161
-1.04439e-06
0.000345287
-6.38223e-07
0.000345332
-2.33315e-07
0.000345296
1.70005e-07
0.000345179
5.71417e-07
0.000344982
9.70604e-07
0.000344705
1.36726e-06
0.000344349
1.76108e-06
0.000343915
2.15177e-06
0.000343402
2.53905e-06
0.000342813
2.92265e-06
0.000342148
3.3023e-06
0.000341407
3.67774e-06
0.000340592
4.04874e-06
0.000339703
4.41506e-06
0.000338741
4.77647e-06
0.000337708
5.13278e-06
0.000336605
5.48378e-06
0.000335433
5.82928e-06
0.000334192
6.16912e-06
0.000332884
6.50313e-06
0.00033151
6.83117e-06
0.000330072
7.15309e-06
0.000328571
7.46877e-06
0.000327008
7.77811e-06
0.000325384
8.08099e-06
0.0003237
8.37734e-06
0.000321959
8.66708e-06
0.000320161
8.95014e-06
0.000318308
9.22646e-06
0.0003164
9.49601e-06
0.00031444
9.75876e-06
0.000312429
1.00147e-05
0.000310368
1.02638e-05
0.000308259
1.0506e-05
0.000306102
1.07414e-05
0.0003039
1.097e-05
0.000301654
1.11918e-05
0.000299364
1.14069e-05
0.000297033
1.16152e-05
0.000294662
1.18169e-05
0.000292252
1.2012e-05
0.000289804
1.22005e-05
0.00028732
1.23826e-05
0.000284801
1.25583e-05
0.000282248
1.27277e-05
0.000279662
1.28908e-05
0.000277045
1.30479e-05
0.000274398
1.31989e-05
0.000271723
1.33439e-05
0.000269019
1.34831e-05
0.000266289
1.36167e-05
0.000263534
1.37446e-05
0.000260754
1.3867e-05
0.000257951
1.3984e-05
0.000255125
1.40957e-05
0.000252279
1.42024e-05
0.000249412
1.4304e-05
0.000246526
1.44007e-05
0.000243622