/*--------------------------------*- C++ -*----------------------------------*\
| =========                 |                                                 |
| \\      /  F ield         | OpenFOAM: The Open Source CFD Toolbox           |
|  \\    /   O peration     | Version:  v2012                                 |
|   \\  /    A nd           | Website:  www.openfoam.com                      |
|    \\/     M anipulation  |                                                 |
\*---------------------------------------------------------------------------*/
FoamFile
{
    version     2.0;
    format      ascii;
    class       volVectorField;
    location    "11";
    object      Psi;
}
// * * * * * * * * * * * * * * * * * * * * * * * * * * * * * * * * * * * * * //

dimensions      [0 2 -1 0 0 0 0];


internalField   nonuniform List<vector> 
65536
(
(0 0 9.12847e-06)
(0 0 2.73858e-05)
(0 0 4.5644e-05)
(0 0 6.3904e-05)
(0 0 8.21665e-05)
(0 0 0.000100432)
(0 0 0.000118701)
(0 0 0.000136975)
(0 0 0.000155253)
(0 0 0.000173537)
(0 0 0.000191827)
(0 0 0.000210124)
(0 0 0.000228427)
(0 0 0.000246738)
(0 0 0.000265057)
(0 0 0.000283384)
(0 0 0.000301719)
(0 0 0.000320063)
(0 0 0.000338415)
(0 0 0.000356777)
(0 0 0.000375147)
(0 0 0.000393525)
(0 0 0.000411913)
(0 0 0.000430308)
(0 0 0.000448712)
(0 0 0.000467123)
(0 0 0.000485541)
(0 0 0.000503966)
(0 0 0.000522396)
(0 0 0.000540831)
(0 0 0.00055927)
(0 0 0.000577711)
(0 0 0.000596155)
(0 0 0.000614599)
(0 0 0.000633041)
(0 0 0.000651481)
(0 0 0.000669917)
(0 0 0.000688346)
(0 0 0.000706767)
(0 0 0.000725178)
(0 0 0.000743577)
(0 0 0.00076196)
(0 0 0.000780325)
(0 0 0.00079867)
(0 0 0.000816992)
(0 0 0.000835288)
(0 0 0.000853553)
(0 0 0.000871786)
(0 0 0.000889982)
(0 0 0.000908137)
(0 0 0.000926249)
(0 0 0.000944311)
(0 0 0.000962321)
(0 0 0.000980274)
(0 0 0.000998165)
(0 0 0.00101599)
(0 0 0.00103374)
(0 0 0.00105142)
(0 0 0.00106901)
(0 0 0.00108652)
(0 0 0.00110393)
(0 0 0.00112124)
(0 0 0.00113845)
(0 0 0.00115555)
(0 0 0.00117253)
(0 0 0.00118938)
(0 0 0.00120611)
(0 0 0.0012227)
(0 0 0.00123914)
(0 0 0.00125543)
(0 0 0.00127157)
(0 0 0.00128754)
(0 0 0.00130333)
(0 0 0.00131895)
(0 0 0.00133438)
(0 0 0.00134961)
(0 0 0.00136465)
(0 0 0.00137947)
(0 0 0.00139407)
(0 0 0.00140845)
(0 0 0.00142259)
(0 0 0.0014365)
(0 0 0.00145015)
(0 0 0.00146355)
(0 0 0.00147669)
(0 0 0.00148955)
(0 0 0.00150214)
(0 0 0.00151444)
(0 0 0.00152645)
(0 0 0.00153815)
(0 0 0.00154955)
(0 0 0.00156064)
(0 0 0.0015714)
(0 0 0.00158184)
(0 0 0.00159194)
(0 0 0.0016017)
(0 0 0.00161112)
(0 0 0.00162018)
(0 0 0.00162888)
(0 0 0.00163723)
(0 0 0.0016452)
(0 0 0.00165281)
(0 0 0.00166003)
(0 0 0.00166688)
(0 0 0.00167334)
(0 0 0.00167941)
(0 0 0.00168509)
(0 0 0.00169038)
(0 0 0.00169526)
(0 0 0.00169975)
(0 0 0.00170384)
(0 0 0.00170752)
(0 0 0.0017108)
(0 0 0.00171368)
(0 0 0.00171614)
(0 0 0.0017182)
(0 0 0.00171986)
(0 0 0.00172111)
(0 0 0.00172195)
(0 0 0.00172239)
(0 0 0.00172243)
(0 0 0.00172207)
(0 0 0.0017213)
(0 0 0.00172014)
(0 0 0.00171859)
(0 0 0.00171665)
(0 0 0.00171432)
(0 0 0.0017116)
(0 0 0.00170851)
(0 0 0.00170503)
(0 0 0.00170119)
(0 0 0.00169698)
(0 0 0.0016924)
(0 0 0.00168747)
(0 0 0.00168218)
(0 0 0.00167655)
(0 0 0.00167057)
(0 0 0.00166426)
(0 0 0.00165762)
(0 0 0.00165066)
(0 0 0.00164337)
(0 0 0.00163577)
(0 0 0.00162787)
(0 0 0.00161967)
(0 0 0.00161118)
(0 0 0.0016024)
(0 0 0.00159334)
(0 0 0.00158401)
(0 0 0.00157441)
(0 0 0.00156455)
(0 0 0.00155444)
(0 0 0.00154409)
(0 0 0.00153349)
(0 0 0.00152266)
(0 0 0.00151161)
(0 0 0.00150034)
(0 0 0.00148886)
(0 0 0.00147717)
(0 0 0.00146529)
(0 0 0.00145321)
(0 0 0.00144094)
(0 0 0.0014285)
(0 0 0.00141588)
(0 0 0.0014031)
(0 0 0.00139016)
(0 0 0.00137706)
(0 0 0.00136382)
(0 0 0.00135043)
(0 0 0.0013369)
(0 0 0.00132324)
(0 0 0.00130946)
(0 0 0.00129556)
(0 0 0.00128154)
(0 0 0.00126741)
(0 0 0.00125318)
(0 0 0.00123885)
(0 0 0.00122442)
(0 0 0.00120991)
(0 0 0.00119531)
(0 0 0.00118062)
(0 0 0.00116586)
(0 0 0.00115103)
(0 0 0.00113613)
(0 0 0.00112116)
(0 0 0.00110614)
(0 0 0.00109105)
(0 0 0.00107592)
(0 0 0.00106073)
(0 0 0.0010455)
(0 0 0.00103022)
(0 0 0.00101491)
(0 0 0.000999553)
(0 0 0.000984165)
(0 0 0.000968746)
(0 0 0.000953298)
(0 0 0.000937823)
(0 0 0.000922325)
(0 0 0.000906805)
(0 0 0.000891266)
(0 0 0.00087571)
(0 0 0.000860139)
(0 0 0.000844554)
(0 0 0.000828959)
(0 0 0.000813353)
(0 0 0.00079774)
(0 0 0.00078212)
(0 0 0.000766495)
(0 0 0.000750867)
(0 0 0.000735236)
(0 0 0.000719605)
(0 0 0.000703974)
(0 0 0.000688344)
(0 0 0.000672716)
(0 0 0.000657091)
(0 0 0.00064147)
(0 0 0.000625854)
(0 0 0.000610243)
(0 0 0.000594639)
(0 0 0.000579041)
(0 0 0.00056345)
(0 0 0.000547867)
(0 0 0.000532293)
(0 0 0.000516726)
(0 0 0.000501169)
(0 0 0.00048562)
(0 0 0.000470081)
(0 0 0.000454551)
(0 0 0.00043903)
(0 0 0.00042352)
(0 0 0.000408018)
(0 0 0.000392527)
(0 0 0.000377044)
(0 0 0.000361571)
(0 0 0.000346108)
(0 0 0.000330654)
(0 0 0.000315208)
(0 0 0.000299772)
(0 0 0.000284343)
(0 0 0.000268923)
(0 0 0.000253511)
(0 0 0.000238107)
(0 0 0.00022271)
(0 0 0.000207319)
(0 0 0.000191935)
(0 0 0.000176557)
(0 0 0.000161185)
(0 0 0.000145818)
(0 0 0.000130456)
(0 0 0.000115098)
(0 0 9.97438e-05)
(0 0 8.43929e-05)
(0 0 6.90449e-05)
(0 0 5.36992e-05)
(0 0 3.83553e-05)
(0 0 2.30126e-05)
(0 0 7.6708e-06)
(0 0 2.73851e-05)
(0 0 8.21564e-05)
(0 0 0.000136931)
(0 0 0.00019171)
(0 0 0.000246497)
(0 0 0.000301293)
(0 0 0.0003561)
(0 0 0.00041092)
(0 0 0.000465755)
(0 0 0.000520606)
(0 0 0.000575476)
(0 0 0.000630365)
(0 0 0.000685275)
(0 0 0.000740208)
(0 0 0.000795164)
(0 0 0.000850144)
(0 0 0.00090515)
(0 0 0.000960181)
(0 0 0.00101524)
(0 0 0.00107032)
(0 0 0.00112543)
(0 0 0.00118057)
(0 0 0.00123573)
(0 0 0.00129092)
(0 0 0.00134613)
(0 0 0.00140136)
(0 0 0.00145662)
(0 0 0.00151189)
(0 0 0.00156718)
(0 0 0.00162249)
(0 0 0.00167781)
(0 0 0.00173313)
(0 0 0.00178847)
(0 0 0.0018438)
(0 0 0.00189913)
(0 0 0.00195445)
(0 0 0.00200976)
(0 0 0.00206505)
(0 0 0.00212031)
(0 0 0.00217555)
(0 0 0.00223075)
(0 0 0.0022859)
(0 0 0.002341)
(0 0 0.00239604)
(0 0 0.002451)
(0 0 0.00250589)
(0 0 0.00256069)
(0 0 0.0026154)
(0 0 0.00266999)
(0 0 0.00272446)
(0 0 0.0027788)
(0 0 0.00283299)
(0 0 0.00288702)
(0 0 0.00294088)
(0 0 0.00299456)
(0 0 0.00304804)
(0 0 0.0031013)
(0 0 0.00315434)
(0 0 0.00320712)
(0 0 0.00325965)
(0 0 0.00331189)
(0 0 0.00336384)
(0 0 0.00341547)
(0 0 0.00346677)
(0 0 0.00351771)
(0 0 0.00356829)
(0 0 0.00361847)
(0 0 0.00366824)
(0 0 0.00371758)
(0 0 0.00376646)
(0 0 0.00381487)
(0 0 0.00386279)
(0 0 0.00391018)
(0 0 0.00395704)
(0 0 0.00400334)
(0 0 0.00404905)
(0 0 0.00409415)
(0 0 0.00413862)
(0 0 0.00418244)
(0 0 0.00422558)
(0 0 0.00426802)
(0 0 0.00430974)
(0 0 0.00435072)
(0 0 0.00439092)
(0 0 0.00443034)
(0 0 0.00446894)
(0 0 0.00450671)
(0 0 0.00454361)
(0 0 0.00457964)
(0 0 0.00461477)
(0 0 0.00464897)
(0 0 0.00468223)
(0 0 0.00471453)
(0 0 0.00474584)
(0 0 0.00477615)
(0 0 0.00480544)
(0 0 0.0048337)
(0 0 0.00486089)
(0 0 0.00488702)
(0 0 0.00491205)
(0 0 0.00493598)
(0 0 0.0049588)
(0 0 0.00498048)
(0 0 0.00500102)
(0 0 0.00502041)
(0 0 0.00503862)
(0 0 0.00505567)
(0 0 0.00507153)
(0 0 0.00508619)
(0 0 0.00509966)
(0 0 0.00511192)
(0 0 0.00512297)
(0 0 0.00513281)
(0 0 0.00514143)
(0 0 0.00514883)
(0 0 0.00515502)
(0 0 0.00515998)
(0 0 0.00516373)
(0 0 0.00516626)
(0 0 0.00516758)
(0 0 0.00516769)
(0 0 0.0051666)
(0 0 0.00516431)
(0 0 0.00516083)
(0 0 0.00515616)
(0 0 0.00515033)
(0 0 0.00514333)
(0 0 0.00513518)
(0 0 0.00512589)
(0 0 0.00511547)
(0 0 0.00510393)
(0 0 0.00509129)
(0 0 0.00507756)
(0 0 0.00506275)
(0 0 0.00504689)
(0 0 0.00502999)
(0 0 0.00501206)
(0 0 0.00499312)
(0 0 0.00497319)
(0 0 0.00495228)
(0 0 0.00493042)
(0 0 0.00490763)
(0 0 0.00488392)
(0 0 0.00485931)
(0 0 0.00483382)
(0 0 0.00480747)
(0 0 0.00478029)
(0 0 0.00475228)
(0 0 0.00472348)
(0 0 0.0046939)
(0 0 0.00466357)
(0 0 0.00463249)
(0 0 0.0046007)
(0 0 0.00456822)
(0 0 0.00453505)
(0 0 0.00450124)
(0 0 0.00446678)
(0 0 0.00443171)
(0 0 0.00439605)
(0 0 0.00435981)
(0 0 0.00432301)
(0 0 0.00428567)
(0 0 0.00424782)
(0 0 0.00420946)
(0 0 0.00417063)
(0 0 0.00413133)
(0 0 0.00409159)
(0 0 0.00405141)
(0 0 0.00401083)
(0 0 0.00396986)
(0 0 0.0039285)
(0 0 0.00388679)
(0 0 0.00384473)
(0 0 0.00380235)
(0 0 0.00375964)
(0 0 0.00371665)
(0 0 0.00367336)
(0 0 0.00362981)
(0 0 0.003586)
(0 0 0.00354194)
(0 0 0.00349766)
(0 0 0.00345316)
(0 0 0.00340845)
(0 0 0.00336355)
(0 0 0.00331847)
(0 0 0.00327321)
(0 0 0.0032278)
(0 0 0.00318224)
(0 0 0.00313654)
(0 0 0.00309071)
(0 0 0.00304476)
(0 0 0.00299869)
(0 0 0.00295253)
(0 0 0.00290627)
(0 0 0.00285992)
(0 0 0.00281349)
(0 0 0.002767)
(0 0 0.00272043)
(0 0 0.00267382)
(0 0 0.00262714)
(0 0 0.00258043)
(0 0 0.00253367)
(0 0 0.00248688)
(0 0 0.00244007)
(0 0 0.00239322)
(0 0 0.00234636)
(0 0 0.00229949)
(0 0 0.0022526)
(0 0 0.00220571)
(0 0 0.00215881)
(0 0 0.00211192)
(0 0 0.00206503)
(0 0 0.00201814)
(0 0 0.00197127)
(0 0 0.0019244)
(0 0 0.00187756)
(0 0 0.00183072)
(0 0 0.00178391)
(0 0 0.00173712)
(0 0 0.00169034)
(0 0 0.00164359)
(0 0 0.00159687)
(0 0 0.00155017)
(0 0 0.0015035)
(0 0 0.00145685)
(0 0 0.00141023)
(0 0 0.00136364)
(0 0 0.00131708)
(0 0 0.00127055)
(0 0 0.00122405)
(0 0 0.00117757)
(0 0 0.00113112)
(0 0 0.0010847)
(0 0 0.00103831)
(0 0 0.000991952)
(0 0 0.000945616)
(0 0 0.000899306)
(0 0 0.000853022)
(0 0 0.000806762)
(0 0 0.000760526)
(0 0 0.000714313)
(0 0 0.000668122)
(0 0 0.000621951)
(0 0 0.0005758)
(0 0 0.000529667)
(0 0 0.00048355)
(0 0 0.00043745)
(0 0 0.000391364)
(0 0 0.00034529)
(0 0 0.000299228)
(0 0 0.000253176)
(0 0 0.000207132)
(0 0 0.000161096)
(0 0 0.000115065)
(0 0 6.90372e-05)
(0 0 2.30121e-05)
(0 0 4.56408e-05)
(0 0 0.000136924)
(0 0 0.000228212)
(0 0 0.000319509)
(0 0 0.000410818)
(0 0 0.000502142)
(0 0 0.000593485)
(0 0 0.00068485)
(0 0 0.00077624)
(0 0 0.000867657)
(0 0 0.000959105)
(0 0 0.00105059)
(0 0 0.0011421)
(0 0 0.00123365)
(0 0 0.00132525)
(0 0 0.00141688)
(0 0 0.00150855)
(0 0 0.00160027)
(0 0 0.00169204)
(0 0 0.00178384)
(0 0 0.00187569)
(0 0 0.00196759)
(0 0 0.00205952)
(0 0 0.0021515)
(0 0 0.00224352)
(0 0 0.00233558)
(0 0 0.00242768)
(0 0 0.0025198)
(0 0 0.00261196)
(0 0 0.00270414)
(0 0 0.00279634)
(0 0 0.00288855)
(0 0 0.00298078)
(0 0 0.003073)
(0 0 0.00316522)
(0 0 0.00325743)
(0 0 0.00334962)
(0 0 0.00344178)
(0 0 0.00353389)
(0 0 0.00362596)
(0 0 0.00371796)
(0 0 0.00380989)
(0 0 0.00390173)
(0 0 0.00399347)
(0 0 0.0040851)
(0 0 0.00417659)
(0 0 0.00426794)
(0 0 0.00435912)
(0 0 0.00445012)
(0 0 0.00454091)
(0 0 0.00463149)
(0 0 0.00472182)
(0 0 0.0048119)
(0 0 0.00490168)
(0 0 0.00499116)
(0 0 0.00508031)
(0 0 0.0051691)
(0 0 0.0052575)
(0 0 0.0053455)
(0 0 0.00543306)
(0 0 0.00552015)
(0 0 0.00560675)
(0 0 0.00569282)
(0 0 0.00577834)
(0 0 0.00586327)
(0 0 0.00594758)
(0 0 0.00603124)
(0 0 0.00611421)
(0 0 0.00619647)
(0 0 0.00627797)
(0 0 0.00635867)
(0 0 0.00643856)
(0 0 0.00651758)
(0 0 0.0065957)
(0 0 0.00667288)
(0 0 0.00674909)
(0 0 0.00682428)
(0 0 0.00689843)
(0 0 0.00697148)
(0 0 0.00704341)
(0 0 0.00711418)
(0 0 0.00718374)
(0 0 0.00725205)
(0 0 0.00731909)
(0 0 0.00738481)
(0 0 0.00744917)
(0 0 0.00751213)
(0 0 0.00757367)
(0 0 0.00763374)
(0 0 0.00769231)
(0 0 0.00774934)
(0 0 0.00780479)
(0 0 0.00785864)
(0 0 0.00791085)
(0 0 0.00796139)
(0 0 0.00801023)
(0 0 0.00805734)
(0 0 0.00810268)
(0 0 0.00814624)
(0 0 0.00818798)
(0 0 0.00822788)
(0 0 0.00826592)
(0 0 0.00830207)
(0 0 0.00833632)
(0 0 0.00836864)
(0 0 0.00839902)
(0 0 0.00842743)
(0 0 0.00845387)
(0 0 0.00847832)
(0 0 0.00850077)
(0 0 0.00852122)
(0 0 0.00853964)
(0 0 0.00855604)
(0 0 0.00857041)
(0 0 0.00858275)
(0 0 0.00859305)
(0 0 0.00860133)
(0 0 0.00860757)
(0 0 0.00861178)
(0 0 0.00861398)
(0 0 0.00861415)
(0 0 0.00861233)
(0 0 0.0086085)
(0 0 0.00860269)
(0 0 0.00859491)
(0 0 0.00858518)
(0 0 0.0085735)
(0 0 0.00855991)
(0 0 0.00854441)
(0 0 0.00852702)
(0 0 0.00850778)
(0 0 0.00848669)
(0 0 0.00846379)
(0 0 0.0084391)
(0 0 0.00841265)
(0 0 0.00838445)
(0 0 0.00835455)
(0 0 0.00832296)
(0 0 0.00828973)
(0 0 0.00825487)
(0 0 0.00821841)
(0 0 0.0081804)
(0 0 0.00814086)
(0 0 0.00809982)
(0 0 0.00805732)
(0 0 0.00801339)
(0 0 0.00796806)
(0 0 0.00792136)
(0 0 0.00787334)
(0 0 0.00782402)
(0 0 0.00777343)
(0 0 0.00772162)
(0 0 0.00766862)
(0 0 0.00761445)
(0 0 0.00755916)
(0 0 0.00750277)
(0 0 0.00744533)
(0 0 0.00738686)
(0 0 0.00732739)
(0 0 0.00726697)
(0 0 0.00720562)
(0 0 0.00714337)
(0 0 0.00708026)
(0 0 0.00701631)
(0 0 0.00695157)
(0 0 0.00688605)
(0 0 0.00681979)
(0 0 0.00675282)
(0 0 0.00668516)
(0 0 0.00661685)
(0 0 0.00654791)
(0 0 0.00647837)
(0 0 0.00640826)
(0 0 0.00633759)
(0 0 0.00626641)
(0 0 0.00619473)
(0 0 0.00612257)
(0 0 0.00604997)
(0 0 0.00597693)
(0 0 0.0059035)
(0 0 0.00582967)
(0 0 0.00575549)
(0 0 0.00568097)
(0 0 0.00560612)
(0 0 0.00553097)
(0 0 0.00545554)
(0 0 0.00537984)
(0 0 0.00530389)
(0 0 0.00522771)
(0 0 0.00515131)
(0 0 0.00507472)
(0 0 0.00499794)
(0 0 0.00492098)
(0 0 0.00484387)
(0 0 0.00476662)
(0 0 0.00468924)
(0 0 0.00461173)
(0 0 0.00453412)
(0 0 0.00445642)
(0 0 0.00437863)
(0 0 0.00430076)
(0 0 0.00422283)
(0 0 0.00414484)
(0 0 0.00406681)
(0 0 0.00398873)
(0 0 0.00391063)
(0 0 0.00383249)
(0 0 0.00375435)
(0 0 0.00367619)
(0 0 0.00359803)
(0 0 0.00351986)
(0 0 0.00344171)
(0 0 0.00336356)
(0 0 0.00328544)
(0 0 0.00320733)
(0 0 0.00312924)
(0 0 0.00305119)
(0 0 0.00297316)
(0 0 0.00289517)
(0 0 0.00281721)
(0 0 0.0027393)
(0 0 0.00266142)
(0 0 0.00258359)
(0 0 0.0025058)
(0 0 0.00242806)
(0 0 0.00235036)
(0 0 0.00227271)
(0 0 0.00219511)
(0 0 0.00211755)
(0 0 0.00204004)
(0 0 0.00196259)
(0 0 0.00188518)
(0 0 0.00180781)
(0 0 0.00173049)
(0 0 0.00165322)
(0 0 0.001576)
(0 0 0.00149882)
(0 0 0.00142168)
(0 0 0.00134458)
(0 0 0.00126752)
(0 0 0.0011905)
(0 0 0.00111351)
(0 0 0.00103656)
(0 0 0.000959646)
(0 0 0.000882759)
(0 0 0.0008059)
(0 0 0.000729068)
(0 0 0.000652259)
(0 0 0.000575471)
(0 0 0.000498703)
(0 0 0.000421951)
(0 0 0.000345213)
(0 0 0.000268487)
(0 0 0.00019177)
(0 0 0.000115059)
(0 0 3.83527e-05)
(0 0 6.38947e-05)
(0 0 0.000191687)
(0 0 0.000319485)
(0 0 0.000447296)
(0 0 0.000575124)
(0 0 0.000702974)
(0 0 0.00083085)
(0 0 0.000958757)
(0 0 0.0010867)
(0 0 0.00121468)
(0 0 0.0013427)
(0 0 0.00147077)
(0 0 0.00159889)
(0 0 0.00172706)
(0 0 0.00185529)
(0 0 0.00198357)
(0 0 0.00211192)
(0 0 0.00224032)
(0 0 0.00236879)
(0 0 0.00249732)
(0 0 0.00262591)
(0 0 0.00275456)
(0 0 0.00288328)
(0 0 0.00301205)
(0 0 0.00314088)
(0 0 0.00326977)
(0 0 0.0033987)
(0 0 0.00352768)
(0 0 0.00365671)
(0 0 0.00378577)
(0 0 0.00391485)
(0 0 0.00404396)
(0 0 0.00417308)
(0 0 0.00430221)
(0 0 0.00443133)
(0 0 0.00456044)
(0 0 0.00468951)
(0 0 0.00481855)
(0 0 0.00494752)
(0 0 0.00507643)
(0 0 0.00520525)
(0 0 0.00533397)
(0 0 0.00546257)
(0 0 0.00559103)
(0 0 0.00571932)
(0 0 0.00584744)
(0 0 0.00597534)
(0 0 0.00610302)
(0 0 0.00623045)
(0 0 0.00635759)
(0 0 0.00648443)
(0 0 0.00661093)
(0 0 0.00673706)
(0 0 0.00686279)
(0 0 0.0069881)
(0 0 0.00711293)
(0 0 0.00723728)
(0 0 0.00736108)
(0 0 0.00748431)
(0 0 0.00760693)
(0 0 0.00772891)
(0 0 0.00785018)
(0 0 0.00797073)
(0 0 0.0080905)
(0 0 0.00820945)
(0 0 0.00832753)
(0 0 0.0084447)
(0 0 0.00856091)
(0 0 0.00867612)
(0 0 0.00879026)
(0 0 0.00890331)
(0 0 0.00901519)
(0 0 0.00912587)
(0 0 0.00923529)
(0 0 0.0093434)
(0 0 0.00945014)
(0 0 0.00955547)
(0 0 0.00965933)
(0 0 0.00976166)
(0 0 0.00986242)
(0 0 0.00996154)
(0 0 0.010059)
(0 0 0.0101547)
(0 0 0.0102486)
(0 0 0.0103406)
(0 0 0.0104308)
(0 0 0.010519)
(0 0 0.0106052)
(0 0 0.0106893)
(0 0 0.0107714)
(0 0 0.0108513)
(0 0 0.010929)
(0 0 0.0110044)
(0 0 0.0110775)
(0 0 0.0111483)
(0 0 0.0112168)
(0 0 0.0112827)
(0 0 0.0113463)
(0 0 0.0114073)
(0 0 0.0114658)
(0 0 0.0115217)
(0 0 0.0115749)
(0 0 0.0116256)
(0 0 0.0116736)
(0 0 0.0117188)
(0 0 0.0117614)
(0 0 0.0118012)
(0 0 0.0118382)
(0 0 0.0118725)
(0 0 0.0119039)
(0 0 0.0119325)
(0 0 0.0119583)
(0 0 0.0119813)
(0 0 0.0120014)
(0 0 0.0120187)
(0 0 0.0120331)
(0 0 0.0120447)
(0 0 0.0120534)
(0 0 0.0120593)
(0 0 0.0120624)
(0 0 0.0120626)
(0 0 0.0120601)
(0 0 0.0120547)
(0 0 0.0120465)
(0 0 0.0120356)
(0 0 0.012022)
(0 0 0.0120056)
(0 0 0.0119865)
(0 0 0.0119648)
(0 0 0.0119404)
(0 0 0.0119135)
(0 0 0.0118839)
(0 0 0.0118518)
(0 0 0.0118172)
(0 0 0.0117801)
(0 0 0.0117406)
(0 0 0.0116987)
(0 0 0.0116545)
(0 0 0.0116079)
(0 0 0.011559)
(0 0 0.011508)
(0 0 0.0114547)
(0 0 0.0113993)
(0 0 0.0113418)
(0 0 0.0112823)
(0 0 0.0112207)
(0 0 0.0111572)
(0 0 0.0110918)
(0 0 0.0110245)
(0 0 0.0109554)
(0 0 0.0108845)
(0 0 0.0108119)
(0 0 0.0107377)
(0 0 0.0106618)
(0 0 0.0105844)
(0 0 0.0105054)
(0 0 0.0104249)
(0 0 0.010343)
(0 0 0.0102597)
(0 0 0.0101751)
(0 0 0.0100891)
(0 0 0.0100019)
(0 0 0.00991353)
(0 0 0.00982397)
(0 0 0.00973328)
(0 0 0.00964151)
(0 0 0.00954871)
(0 0 0.00945491)
(0 0 0.00936015)
(0 0 0.00926447)
(0 0 0.00916792)
(0 0 0.00907053)
(0 0 0.00897233)
(0 0 0.00887337)
(0 0 0.00877368)
(0 0 0.00867329)
(0 0 0.00857224)
(0 0 0.00847056)
(0 0 0.00836828)
(0 0 0.00826544)
(0 0 0.00816206)
(0 0 0.00805817)
(0 0 0.00795381)
(0 0 0.007849)
(0 0 0.00774377)
(0 0 0.00763813)
(0 0 0.00753213)
(0 0 0.00742578)
(0 0 0.0073191)
(0 0 0.00721213)
(0 0 0.00710487)
(0 0 0.00699736)
(0 0 0.0068896)
(0 0 0.00678163)
(0 0 0.00667346)
(0 0 0.00656511)
(0 0 0.00645658)
(0 0 0.00634792)
(0 0 0.00623911)
(0 0 0.00613019)
(0 0 0.00602116)
(0 0 0.00591205)
(0 0 0.00580285)
(0 0 0.00569359)
(0 0 0.00558427)
(0 0 0.00547492)
(0 0 0.00536552)
(0 0 0.00525611)
(0 0 0.00514668)
(0 0 0.00503724)
(0 0 0.00492781)
(0 0 0.00481838)
(0 0 0.00470897)
(0 0 0.00459959)
(0 0 0.00449023)
(0 0 0.00438091)
(0 0 0.00427162)
(0 0 0.00416238)
(0 0 0.00405319)
(0 0 0.00394405)
(0 0 0.00383496)
(0 0 0.00372594)
(0 0 0.00361697)
(0 0 0.00350806)
(0 0 0.00339922)
(0 0 0.00329044)
(0 0 0.00318173)
(0 0 0.00307308)
(0 0 0.00296451)
(0 0 0.002856)
(0 0 0.00274756)
(0 0 0.00263918)
(0 0 0.00253087)
(0 0 0.00242263)
(0 0 0.00231445)
(0 0 0.00220634)
(0 0 0.00209829)
(0 0 0.00199029)
(0 0 0.00188236)
(0 0 0.00177448)
(0 0 0.00166665)
(0 0 0.00155887)
(0 0 0.00145115)
(0 0 0.00134346)
(0 0 0.00123582)
(0 0 0.00112823)
(0 0 0.00102066)
(0 0 0.000913133)
(0 0 0.000805634)
(0 0 0.000698161)
(0 0 0.000590712)
(0 0 0.000483283)
(0 0 0.00037587)
(0 0 0.000268469)
(0 0 0.000161078)
(0 0 5.3692e-05)
(0 0 8.21462e-05)
(0 0 0.000246442)
(0 0 0.000410747)
(0 0 0.000575067)
(0 0 0.000739409)
(0 0 0.00090378)
(0 0 0.00106818)
(0 0 0.00123263)
(0 0 0.00139712)
(0 0 0.00156166)
(0 0 0.00172625)
(0 0 0.00189091)
(0 0 0.00205563)
(0 0 0.00222042)
(0 0 0.00238528)
(0 0 0.00255021)
(0 0 0.00271522)
(0 0 0.00288031)
(0 0 0.00304548)
(0 0 0.00321073)
(0 0 0.00337607)
(0 0 0.00354148)
(0 0 0.00370697)
(0 0 0.00387254)
(0 0 0.00403819)
(0 0 0.0042039)
(0 0 0.00436969)
(0 0 0.00453553)
(0 0 0.00470142)
(0 0 0.00486737)
(0 0 0.00503335)
(0 0 0.00519936)
(0 0 0.00536539)
(0 0 0.00553143)
(0 0 0.00569746)
(0 0 0.00586347)
(0 0 0.00602945)
(0 0 0.00619537)
(0 0 0.00636123)
(0 0 0.00652699)
(0 0 0.00669265)
(0 0 0.00685818)
(0 0 0.00702355)
(0 0 0.00718874)
(0 0 0.00735373)
(0 0 0.00751849)
(0 0 0.00768298)
(0 0 0.00784719)
(0 0 0.00801106)
(0 0 0.00817458)
(0 0 0.0083377)
(0 0 0.0085004)
(0 0 0.00866262)
(0 0 0.00882433)
(0 0 0.0089855)
(0 0 0.00914606)
(0 0 0.00930599)
(0 0 0.00946524)
(0 0 0.00962374)
(0 0 0.00978147)
(0 0 0.00993836)
(0 0 0.0100944)
(0 0 0.0102494)
(0 0 0.0104035)
(0 0 0.0105565)
(0 0 0.0107084)
(0 0 0.0108591)
(0 0 0.0110086)
(0 0 0.0111568)
(0 0 0.0113037)
(0 0 0.0114491)
(0 0 0.011593)
(0 0 0.0117354)
(0 0 0.0118762)
(0 0 0.0120153)
(0 0 0.0121526)
(0 0 0.0122881)
(0 0 0.0124218)
(0 0 0.0125534)
(0 0 0.0126831)
(0 0 0.0128106)
(0 0 0.012936)
(0 0 0.0130591)
(0 0 0.0131799)
(0 0 0.0132984)
(0 0 0.0134144)
(0 0 0.0135279)
(0 0 0.0136388)
(0 0 0.0137471)
(0 0 0.0138526)
(0 0 0.0139554)
(0 0 0.0140554)
(0 0 0.0141525)
(0 0 0.0142466)
(0 0 0.0143377)
(0 0 0.0144257)
(0 0 0.0145106)
(0 0 0.0145924)
(0 0 0.0146709)
(0 0 0.0147461)
(0 0 0.014818)
(0 0 0.0148866)
(0 0 0.0149518)
(0 0 0.0150135)
(0 0 0.0150717)
(0 0 0.0151265)
(0 0 0.0151777)
(0 0 0.0152253)
(0 0 0.0152694)
(0 0 0.0153099)
(0 0 0.0153467)
(0 0 0.0153799)
(0 0 0.0154094)
(0 0 0.0154353)
(0 0 0.0154575)
(0 0 0.0154761)
(0 0 0.0154909)
(0 0 0.0155022)
(0 0 0.0155097)
(0 0 0.0155136)
(0 0 0.0155139)
(0 0 0.0155106)
(0 0 0.0155037)
(0 0 0.0154932)
(0 0 0.0154791)
(0 0 0.0154615)
(0 0 0.0154404)
(0 0 0.0154159)
(0 0 0.0153879)
(0 0 0.0153565)
(0 0 0.0153217)
(0 0 0.0152837)
(0 0 0.0152424)
(0 0 0.0151978)
(0 0 0.0151501)
(0 0 0.0150992)
(0 0 0.0150453)
(0 0 0.0149883)
(0 0 0.0149283)
(0 0 0.0148655)
(0 0 0.0147997)
(0 0 0.0147312)
(0 0 0.0146599)
(0 0 0.0145859)
(0 0 0.0145092)
(0 0 0.01443)
(0 0 0.0143483)
(0 0 0.0142641)
(0 0 0.0141775)
(0 0 0.0140886)
(0 0 0.0139974)
(0 0 0.013904)
(0 0 0.0138084)
(0 0 0.0137108)
(0 0 0.0136111)
(0 0 0.0135095)
(0 0 0.0134059)
(0 0 0.0133005)
(0 0 0.0131934)
(0 0 0.0130845)
(0 0 0.0129739)
(0 0 0.0128617)
(0 0 0.012748)
(0 0 0.0126328)
(0 0 0.0125161)
(0 0 0.012398)
(0 0 0.0122786)
(0 0 0.012158)
(0 0 0.0120361)
(0 0 0.011913)
(0 0 0.0117888)
(0 0 0.0116635)
(0 0 0.0115372)
(0 0 0.0114099)
(0 0 0.0112817)
(0 0 0.0111525)
(0 0 0.0110225)
(0 0 0.0108918)
(0 0 0.0107602)
(0 0 0.0106279)
(0 0 0.010495)
(0 0 0.0103613)
(0 0 0.0102271)
(0 0 0.0100923)
(0 0 0.00995696)
(0 0 0.00982111)
(0 0 0.00968478)
(0 0 0.009548)
(0 0 0.00941081)
(0 0 0.00927323)
(0 0 0.00913529)
(0 0 0.00899702)
(0 0 0.00885845)
(0 0 0.0087196)
(0 0 0.00858049)
(0 0 0.00844115)
(0 0 0.00830159)
(0 0 0.00816185)
(0 0 0.00802193)
(0 0 0.00788186)
(0 0 0.00774166)
(0 0 0.00760135)
(0 0 0.00746093)
(0 0 0.00732044)
(0 0 0.00717987)
(0 0 0.00703924)
(0 0 0.00689858)
(0 0 0.00675789)
(0 0 0.00661718)
(0 0 0.00647646)
(0 0 0.00633574)
(0 0 0.00619504)
(0 0 0.00605436)
(0 0 0.00591371)
(0 0 0.0057731)
(0 0 0.00563254)
(0 0 0.00549202)
(0 0 0.00535156)
(0 0 0.00521117)
(0 0 0.00507084)
(0 0 0.00493058)
(0 0 0.00479039)
(0 0 0.00465029)
(0 0 0.00451026)
(0 0 0.00437032)
(0 0 0.00423046)
(0 0 0.00409069)
(0 0 0.003951)
(0 0 0.0038114)
(0 0 0.00367189)
(0 0 0.00353246)
(0 0 0.00339313)
(0 0 0.00325387)
(0 0 0.00311471)
(0 0 0.00297562)
(0 0 0.00283662)
(0 0 0.0026977)
(0 0 0.00255885)
(0 0 0.00242008)
(0 0 0.00228138)
(0 0 0.00214275)
(0 0 0.00200419)
(0 0 0.00186568)
(0 0 0.00172724)
(0 0 0.00158885)
(0 0 0.00145051)
(0 0 0.00131223)
(0 0 0.00117398)
(0 0 0.00103577)
(0 0 0.000897597)
(0 0 0.000759454)
(0 0 0.000621336)
(0 0 0.00048324)
(0 0 0.00034516)
(0 0 0.000207091)
(0 0 6.90296e-05)
(0 0 0.000100395)
(0 0 0.000301188)
(0 0 0.000501992)
(0 0 0.000702816)
(0 0 0.000903667)
(0 0 0.00110455)
(0 0 0.00130548)
(0 0 0.00150646)
(0 0 0.00170749)
(0 0 0.00190858)
(0 0 0.00210975)
(0 0 0.00231098)
(0 0 0.0025123)
(0 0 0.0027137)
(0 0 0.00291519)
(0 0 0.00311677)
(0 0 0.00331845)
(0 0 0.00352022)
(0 0 0.0037221)
(0 0 0.00392407)
(0 0 0.00412614)
(0 0 0.00432832)
(0 0 0.00453059)
(0 0 0.00473296)
(0 0 0.00493542)
(0 0 0.00513798)
(0 0 0.00534061)
(0 0 0.00554332)
(0 0 0.0057461)
(0 0 0.00594893)
(0 0 0.00615182)
(0 0 0.00635475)
(0 0 0.00655769)
(0 0 0.00676066)
(0 0 0.00696361)
(0 0 0.00716654)
(0 0 0.00736944)
(0 0 0.00757227)
(0 0 0.00777502)
(0 0 0.00797767)
(0 0 0.00818018)
(0 0 0.00838254)
(0 0 0.00858471)
(0 0 0.00878667)
(0 0 0.00898838)
(0 0 0.00918981)
(0 0 0.00939092)
(0 0 0.00959168)
(0 0 0.00979204)
(0 0 0.00999197)
(0 0 0.0101914)
(0 0 0.0103903)
(0 0 0.0105887)
(0 0 0.0107864)
(0 0 0.0109835)
(0 0 0.0111798)
(0 0 0.0113754)
(0 0 0.0115701)
(0 0 0.011764)
(0 0 0.0119568)
(0 0 0.0121487)
(0 0 0.0123395)
(0 0 0.0125291)
(0 0 0.0127175)
(0 0 0.0129047)
(0 0 0.0130904)
(0 0 0.0132748)
(0 0 0.0134576)
(0 0 0.0136389)
(0 0 0.0138185)
(0 0 0.0139964)
(0 0 0.0141724)
(0 0 0.0143466)
(0 0 0.0145188)
(0 0 0.0146889)
(0 0 0.0148569)
(0 0 0.0150227)
(0 0 0.0151862)
(0 0 0.0153472)
(0 0 0.0155058)
(0 0 0.0156618)
(0 0 0.0158152)
(0 0 0.0159658)
(0 0 0.0161136)
(0 0 0.0162585)
(0 0 0.0164005)
(0 0 0.0165393)
(0 0 0.016675)
(0 0 0.0168075)
(0 0 0.0169367)
(0 0 0.0170624)
(0 0 0.0171847)
(0 0 0.0173035)
(0 0 0.0174186)
(0 0 0.0175301)
(0 0 0.0176378)
(0 0 0.0177417)
(0 0 0.0178417)
(0 0 0.0179377)
(0 0 0.0180298)
(0 0 0.0181178)
(0 0 0.0182017)
(0 0 0.0182814)
(0 0 0.0183569)
(0 0 0.0184282)
(0 0 0.0184951)
(0 0 0.0185578)
(0 0 0.0186161)
(0 0 0.01867)
(0 0 0.0187194)
(0 0 0.0187645)
(0 0 0.0188051)
(0 0 0.0188412)
(0 0 0.0188728)
(0 0 0.0189)
(0 0 0.0189227)
(0 0 0.0189409)
(0 0 0.0189545)
(0 0 0.0189638)
(0 0 0.0189685)
(0 0 0.0189689)
(0 0 0.0189647)
(0 0 0.0189562)
(0 0 0.0189433)
(0 0 0.0189261)
(0 0 0.0189045)
(0 0 0.0188787)
(0 0 0.0188486)
(0 0 0.0188143)
(0 0 0.0187759)
(0 0 0.0187334)
(0 0 0.0186868)
(0 0 0.0186362)
(0 0 0.0185816)
(0 0 0.0185232)
(0 0 0.0184609)
(0 0 0.0183949)
(0 0 0.0183251)
(0 0 0.0182517)
(0 0 0.0181748)
(0 0 0.0180943)
(0 0 0.0180104)
(0 0 0.0179231)
(0 0 0.0178325)
(0 0 0.0177387)
(0 0 0.0176418)
(0 0 0.0175418)
(0 0 0.0174388)
(0 0 0.0173328)
(0 0 0.017224)
(0 0 0.0171124)
(0 0 0.0169981)
(0 0 0.0168812)
(0 0 0.0167618)
(0 0 0.0166398)
(0 0 0.0165155)
(0 0 0.0163888)
(0 0 0.0162599)
(0 0 0.0161288)
(0 0 0.0159955)
(0 0 0.0158603)
(0 0 0.0157231)
(0 0 0.0155839)
(0 0 0.015443)
(0 0 0.0153003)
(0 0 0.0151559)
(0 0 0.0150099)
(0 0 0.0148623)
(0 0 0.0147132)
(0 0 0.0145626)
(0 0 0.0144107)
(0 0 0.0142575)
(0 0 0.014103)
(0 0 0.0139474)
(0 0 0.0137905)
(0 0 0.0136326)
(0 0 0.0134737)
(0 0 0.0133137)
(0 0 0.0131529)
(0 0 0.0129911)
(0 0 0.0128285)
(0 0 0.0126651)
(0 0 0.012501)
(0 0 0.0123362)
(0 0 0.0121707)
(0 0 0.0120046)
(0 0 0.0118379)
(0 0 0.0116706)
(0 0 0.0115029)
(0 0 0.0113347)
(0 0 0.0111661)
(0 0 0.010997)
(0 0 0.0108276)
(0 0 0.0106578)
(0 0 0.0104878)
(0 0 0.0103174)
(0 0 0.0101468)
(0 0 0.00997596)
(0 0 0.00980491)
(0 0 0.00963368)
(0 0 0.00946229)
(0 0 0.00929076)
(0 0 0.00911911)
(0 0 0.00894736)
(0 0 0.00877552)
(0 0 0.00860362)
(0 0 0.00843168)
(0 0 0.00825969)
(0 0 0.00808769)
(0 0 0.00791568)
(0 0 0.00774368)
(0 0 0.00757169)
(0 0 0.00739973)
(0 0 0.00722781)
(0 0 0.00705594)
(0 0 0.00688412)
(0 0 0.00671237)
(0 0 0.00654069)
(0 0 0.00636908)
(0 0 0.00619756)
(0 0 0.00602612)
(0 0 0.00585478)
(0 0 0.00568353)
(0 0 0.00551238)
(0 0 0.00534134)
(0 0 0.0051704)
(0 0 0.00499956)
(0 0 0.00482883)
(0 0 0.00465821)
(0 0 0.00448769)
(0 0 0.00431729)
(0 0 0.00414699)
(0 0 0.00397679)
(0 0 0.0038067)
(0 0 0.00363671)
(0 0 0.00346683)
(0 0 0.00329703)
(0 0 0.00312734)
(0 0 0.00295774)
(0 0 0.00278822)
(0 0 0.00261879)
(0 0 0.00244944)
(0 0 0.00228016)
(0 0 0.00211096)
(0 0 0.00194183)
(0 0 0.00177276)
(0 0 0.00160375)
(0 0 0.00143479)
(0 0 0.00126587)
(0 0 0.001097)
(0 0 0.000928171)
(0 0 0.00075937)
(0 0 0.000590594)
(0 0 0.000421839)
(0 0 0.000253097)
(0 0 8.43648e-05)
(0 0 0.000118639)
(0 0 0.000355922)
(0 0 0.000593218)
(0 0 0.000830538)
(0 0 0.00106789)
(0 0 0.00130528)
(0 0 0.00154273)
(0 0 0.00178023)
(0 0 0.0020178)
(0 0 0.00225544)
(0 0 0.00249316)
(0 0 0.00273098)
(0 0 0.00296889)
(0 0 0.0032069)
(0 0 0.00344501)
(0 0 0.00368324)
(0 0 0.00392158)
(0 0 0.00416003)
(0 0 0.00439861)
(0 0 0.00463731)
(0 0 0.00487612)
(0 0 0.00511506)
(0 0 0.00535412)
(0 0 0.00559329)
(0 0 0.00583258)
(0 0 0.00607197)
(0 0 0.00631146)
(0 0 0.00655104)
(0 0 0.00679071)
(0 0 0.00703045)
(0 0 0.00727026)
(0 0 0.00751011)
(0 0 0.00774999)
(0 0 0.00798989)
(0 0 0.00822979)
(0 0 0.00846966)
(0 0 0.00870949)
(0 0 0.00894926)
(0 0 0.00918893)
(0 0 0.00942848)
(0 0 0.00966788)
(0 0 0.00990709)
(0 0 0.0101461)
(0 0 0.0103848)
(0 0 0.0106233)
(0 0 0.0108614)
(0 0 0.0110992)
(0 0 0.0113366)
(0 0 0.0115735)
(0 0 0.0118098)
(0 0 0.0120457)
(0 0 0.0122809)
(0 0 0.0125154)
(0 0 0.0127492)
(0 0 0.0129822)
(0 0 0.0132144)
(0 0 0.0134457)
(0 0 0.0136759)
(0 0 0.0139051)
(0 0 0.0141332)
(0 0 0.0143601)
(0 0 0.0145858)
(0 0 0.01481)
(0 0 0.0150329)
(0 0 0.0152542)
(0 0 0.0154739)
(0 0 0.015692)
(0 0 0.0159082)
(0 0 0.0161226)
(0 0 0.0163351)
(0 0 0.0165455)
(0 0 0.0167538)
(0 0 0.0169598)
(0 0 0.0171635)
(0 0 0.0173647)
(0 0 0.0175635)
(0 0 0.0177596)
(0 0 0.017953)
(0 0 0.0181435)
(0 0 0.0183311)
(0 0 0.0185157)
(0 0 0.0186972)
(0 0 0.0188754)
(0 0 0.0190503)
(0 0 0.0192217)
(0 0 0.0193896)
(0 0 0.0195539)
(0 0 0.0197145)
(0 0 0.0198713)
(0 0 0.0200241)
(0 0 0.0201729)
(0 0 0.0203176)
(0 0 0.0204581)
(0 0 0.0205944)
(0 0 0.0207263)
(0 0 0.0208537)
(0 0 0.0209766)
(0 0 0.021095)
(0 0 0.0212086)
(0 0 0.0213176)
(0 0 0.0214217)
(0 0 0.0215209)
(0 0 0.0216153)
(0 0 0.0217046)
(0 0 0.0217889)
(0 0 0.0218681)
(0 0 0.0219422)
(0 0 0.0220112)
(0 0 0.022075)
(0 0 0.0221335)
(0 0 0.0221868)
(0 0 0.0222348)
(0 0 0.0222775)
(0 0 0.0223149)
(0 0 0.022347)
(0 0 0.0223738)
(0 0 0.0223953)
(0 0 0.0224114)
(0 0 0.0224223)
(0 0 0.0224279)
(0 0 0.0224282)
(0 0 0.0224233)
(0 0 0.0224132)
(0 0 0.0223979)
(0 0 0.0223774)
(0 0 0.0223518)
(0 0 0.0223212)
(0 0 0.0222856)
(0 0 0.022245)
(0 0 0.0221994)
(0 0 0.022149)
(0 0 0.0220938)
(0 0 0.0220339)
(0 0 0.0219693)
(0 0 0.0219001)
(0 0 0.0218264)
(0 0 0.0217482)
(0 0 0.0216656)
(0 0 0.0215787)
(0 0 0.0214876)
(0 0 0.0213923)
(0 0 0.021293)
(0 0 0.0211897)
(0 0 0.0210825)
(0 0 0.0209714)
(0 0 0.0208567)
(0 0 0.0207383)
(0 0 0.0206164)
(0 0 0.020491)
(0 0 0.0203622)
(0 0 0.0202302)
(0 0 0.0200949)
(0 0 0.0199566)
(0 0 0.0198152)
(0 0 0.0196709)
(0 0 0.0195238)
(0 0 0.0193739)
(0 0 0.0192214)
(0 0 0.0190663)
(0 0 0.0189087)
(0 0 0.0187487)
(0 0 0.0185863)
(0 0 0.0184217)
(0 0 0.018255)
(0 0 0.0180862)
(0 0 0.0179154)
(0 0 0.0177426)
(0 0 0.0175681)
(0 0 0.0173917)
(0 0 0.0172137)
(0 0 0.017034)
(0 0 0.0168528)
(0 0 0.0166701)
(0 0 0.016486)
(0 0 0.0163005)
(0 0 0.0161138)
(0 0 0.0159258)
(0 0 0.0157366)
(0 0 0.0155464)
(0 0 0.0153551)
(0 0 0.0151629)
(0 0 0.0149697)
(0 0 0.0147756)
(0 0 0.0145807)
(0 0 0.014385)
(0 0 0.0141886)
(0 0 0.0139915)
(0 0 0.0137938)
(0 0 0.0135955)
(0 0 0.0133966)
(0 0 0.0131972)
(0 0 0.0129974)
(0 0 0.0127971)
(0 0 0.0125964)
(0 0 0.0123953)
(0 0 0.0121939)
(0 0 0.0119922)
(0 0 0.0117903)
(0 0 0.0115881)
(0 0 0.0113857)
(0 0 0.0111831)
(0 0 0.0109803)
(0 0 0.0107774)
(0 0 0.0105744)
(0 0 0.0103713)