/*--------------------------------*- C++ -*----------------------------------*\
| =========                 |                                                 |
| \\      /  F ield         | OpenFOAM: The Open Source CFD Toolbox           |
|  \\    /   O peration     | Version:  v2012                                 |
|   \\  /    A nd           | Website:  www.openfoam.com                      |
|    \\/     M anipulation  |                                                 |
\*---------------------------------------------------------------------------*/
FoamFile
{
    version     2.0;
    format      ascii;
    class       volVectorField;
    location    "11";
    object      W;
}
// * * * * * * * * * * * * * * * * * * * * * * * * * * * * * * * * * * * * * //

dimensions      [0 0 -1 0 0 0 0];


internalField   nonuniform List<vector> 
65536
(
(0 -0 8.64383e-09)
(0 -0 1.29723e-08)
(0 -0 -2.70417e-07)
(0 -0 -3.44431e-07)
(0 -0 -3.60165e-07)
(0 -0 -3.5697e-07)
(0 -0 -3.52213e-07)
(0 -0 -3.50486e-07)
(0 -0 -3.5059e-07)
(0 -0 -3.51532e-07)
(0 -0 -3.53951e-07)
(0 -0 -3.58532e-07)
(0 -0 -3.64671e-07)
(0 -0 -3.71516e-07)
(0 -0 -3.78724e-07)
(0 -0 -3.86564e-07)
(0 -0 -3.95106e-07)
(0 -0 -4.04356e-07)
(0 -0 -4.14468e-07)
(0 -0 -4.25016e-07)
(0 -0 -4.35784e-07)
(0 -0 -4.46898e-07)
(0 -0 -4.58353e-07)
(0 -0 -4.70209e-07)
(0 -0 -4.82288e-07)
(0 -0 -4.94488e-07)
(0 -0 -5.06974e-07)
(0 -0 -5.19531e-07)
(0 -0 -5.32019e-07)
(0 -0 -5.44682e-07)
(0 -0 -5.57491e-07)
(0 -0 -5.70324e-07)
(0 -0 -5.83217e-07)
(0 -0 -5.96036e-07)
(0 -0 -6.08772e-07)
(0 -0 -6.21677e-07)
(0 -0 -6.34723e-07)
(0 -0 -6.47713e-07)
(0 -0 -6.607e-07)
(0 -0 -6.73775e-07)
(0 -0 -6.86981e-07)
(0 -0 -7.00486e-07)
(0 -0 -7.14301e-07)
(0 -0 -7.28159e-07)
(0 -0 -7.41981e-07)
(0 -0 -7.55995e-07)
(0 -0 -7.70287e-07)
(0 -0 -7.84752e-07)
(0 -0 -7.99329e-07)
(0 -0 -8.13923e-07)
(0 -0 -8.28423e-07)
(0 -0 -8.42967e-07)
(0 -0 -8.57766e-07)
(0 -0 -8.72702e-07)
(0 -0 -8.87516e-07)
(0 -0 -9.02239e-07)
(0 -0 -9.17006e-07)
(0 -0 -9.31769e-07)
(0 -0 -9.46482e-07)
(0 -0 -9.61279e-07)
(0 -0 -9.76218e-07)
(0 -0 -9.91224e-07)
(0 -0 -1.00636e-06)
(0 -0 -1.02183e-06)
(0 -0 -1.03766e-06)
(0 -0 -1.0537e-06)
(0 -0 -1.0699e-06)
(0 -0 -1.08627e-06)
(0 -0 -1.10276e-06)
(0 -0 -1.11934e-06)
(0 -0 -1.13613e-06)
(0 -0 -1.1532e-06)
(0 -0 -1.17036e-06)
(0 -0 -1.18735e-06)
(0 -0 -1.20412e-06)
(0 -0 -1.22074e-06)
(0 -0 -1.2372e-06)
(0 -0 -1.25346e-06)
(0 -0 -1.26959e-06)
(0 -0 -1.28568e-06)
(0 -0 -1.30172e-06)
(0 -0 -1.31759e-06)
(0 -0 -1.33328e-06)
(0 -0 -1.34901e-06)
(0 -0 -1.36497e-06)
(0 -0 -1.38111e-06)
(0 -0 -1.39735e-06)
(0 -0 -1.41368e-06)
(0 -0 -1.43013e-06)
(0 -0 -1.44666e-06)
(0 -0 -1.46321e-06)
(0 -0 -1.47974e-06)
(0 -0 -1.49627e-06)
(0 -0 -1.51271e-06)
(0 -0 -1.52889e-06)
(0 -0 -1.54473e-06)
(0 -0 -1.56031e-06)
(0 -0 -1.57566e-06)
(0 -0 -1.59065e-06)
(0 -0 -1.60511e-06)
(0 -0 -1.61901e-06)
(0 -0 -1.63243e-06)
(0 -0 -1.64538e-06)
(0 -0 -1.6578e-06)
(0 -0 -1.66965e-06)
(0 -0 -1.68095e-06)
(0 -0 -1.69178e-06)
(0 -0 -1.70217e-06)
(0 -0 -1.71221e-06)
(0 -0 -1.72203e-06)
(0 -0 -1.73175e-06)
(0 -0 -1.74137e-06)
(0 -0 -1.75081e-06)
(0 -0 -1.76005e-06)
(0 -0 -1.76925e-06)
(0 -0 -1.77859e-06)
(0 -0 -1.7881e-06)
(0 -0 -1.79759e-06)
(0 -0 -1.80683e-06)
(0 -0 -1.81571e-06)
(0 -0 -1.82423e-06)
(0 -0 -1.83236e-06)
(0 -0 -1.83996e-06)
(0 -0 -1.8469e-06)
(0 -0 -1.85317e-06)
(0 -0 -1.85881e-06)
(0 -0 -1.86389e-06)
(0 -0 -1.86843e-06)
(0 -0 -1.87238e-06)
(0 -0 -1.87571e-06)
(0 -0 -1.87843e-06)
(0 -0 -1.88067e-06)
(0 -0 -1.88257e-06)
(0 -0 -1.88415e-06)
(0 -0 -1.88527e-06)
(0 -0 -1.88593e-06)
(0 -0 -1.88618e-06)
(0 -0 -1.88604e-06)
(0 -0 -1.88559e-06)
(0 -0 -1.88478e-06)
(0 -0 -1.88348e-06)
(0 -0 -1.88168e-06)
(0 -0 -1.87974e-06)
(0 -0 -1.87783e-06)
(0 -0 -1.87584e-06)
(0 -0 -1.87368e-06)
(0 -0 -1.87144e-06)
(0 -0 -1.86929e-06)
(0 -0 -1.86742e-06)
(0 -0 -1.8657e-06)
(0 -0 -1.86384e-06)
(0 -0 -1.86175e-06)
(0 -0 -1.85962e-06)
(0 -0 -1.85747e-06)
(0 -0 -1.85508e-06)
(0 -0 -1.85243e-06)
(0 -0 -1.84941e-06)
(0 -0 -1.84603e-06)
(0 -0 -1.84246e-06)
(0 -0 -1.83872e-06)
(0 -0 -1.83483e-06)
(0 -0 -1.83074e-06)
(0 -0 -1.82636e-06)
(0 -0 -1.82179e-06)
(0 -0 -1.81692e-06)
(0 -0 -1.81183e-06)
(0 -0 -1.80662e-06)
(0 -0 -1.80096e-06)
(0 -0 -1.79506e-06)
(0 -0 -1.78891e-06)
(0 -0 -1.78282e-06)
(0 -0 -1.77668e-06)
(0 -0 -1.77056e-06)
(0 -0 -1.76418e-06)
(0 -0 -1.75759e-06)
(0 -0 -1.75069e-06)
(0 -0 -1.74344e-06)
(0 -0 -1.7357e-06)
(0 -0 -1.72732e-06)
(0 -0 -1.71837e-06)
(0 -0 -1.70876e-06)
(0 -0 -1.69845e-06)
(0 -0 -1.68751e-06)
(0 -0 -1.6761e-06)
(0 -0 -1.66441e-06)
(0 -0 -1.65253e-06)
(0 -0 -1.64056e-06)
(0 -0 -1.62862e-06)
(0 -0 -1.61684e-06)
(0 -0 -1.60521e-06)
(0 -0 -1.59355e-06)
(0 -0 -1.58174e-06)
(0 -0 -1.56964e-06)
(0 -0 -1.55721e-06)
(0 -0 -1.54442e-06)
(0 -0 -1.53116e-06)
(0 -0 -1.51728e-06)
(0 -0 -1.50285e-06)
(0 -0 -1.48789e-06)
(0 -0 -1.47239e-06)
(0 -0 -1.45635e-06)
(0 -0 -1.43971e-06)
(0 -0 -1.42243e-06)
(0 -0 -1.40453e-06)
(0 -0 -1.386e-06)
(0 -0 -1.3668e-06)
(0 -0 -1.34683e-06)
(0 -0 -1.32601e-06)
(0 -0 -1.30446e-06)
(0 -0 -1.28219e-06)
(0 -0 -1.25923e-06)
(0 -0 -1.23563e-06)
(0 -0 -1.21147e-06)
(0 -0 -1.1869e-06)
(0 -0 -1.16218e-06)
(0 -0 -1.13739e-06)
(0 -0 -1.11258e-06)
(0 -0 -1.08769e-06)
(0 -0 -1.06274e-06)
(0 -0 -1.0377e-06)
(0 -0 -1.01249e-06)
(0 -0 -9.86993e-07)
(0 -0 -9.61034e-07)
(0 -0 -9.3447e-07)
(0 -0 -9.07239e-07)
(0 -0 -8.79319e-07)
(0 -0 -8.50727e-07)
(0 -0 -8.21581e-07)
(0 -0 -7.91935e-07)
(0 -0 -7.61874e-07)
(0 -0 -7.31492e-07)
(0 -0 -7.00906e-07)
(0 -0 -6.70227e-07)
(0 -0 -6.39612e-07)
(0 -0 -6.09202e-07)
(0 -0 -5.79046e-07)
(0 -0 -5.49191e-07)
(0 -0 -5.19696e-07)
(0 -0 -4.90561e-07)
(0 -0 -4.61676e-07)
(0 -0 -4.32893e-07)
(0 -0 -4.04084e-07)
(0 -0 -3.75166e-07)
(0 -0 -3.4608e-07)
(0 -0 -3.16825e-07)
(0 -0 -2.87359e-07)
(0 -0 -2.57703e-07)
(0 -0 -2.28e-07)
(0 -0 -1.98518e-07)
(0 -0 -1.69587e-07)
(0 -0 -1.41438e-07)
(0 -0 -1.142e-07)
(0 -0 -8.79111e-08)
(0 -0 -6.25539e-08)
(0 -0 -3.8009e-08)
(0 -0 -1.28728e-08)
(0 -0 1.88038e-08)
(0 -0 1.28707e-08)
(0 -0 -4.4519e-07)
(0 -0 -6.06807e-07)
(0 -0 -6.78351e-07)
(0 -0 -7.17327e-07)
(0 -0 -7.47605e-07)
(0 -0 -7.74884e-07)
(0 -0 -8.00203e-07)
(0 -0 -8.25752e-07)
(0 -0 -8.5302e-07)
(0 -0 -8.81778e-07)
(0 -0 -9.11224e-07)
(0 -0 -9.40987e-07)
(0 -0 -9.71551e-07)
(0 -0 -1.00356e-06)
(0 -0 -1.03677e-06)
(0 -0 -1.0709e-06)
(0 -0 -1.10581e-06)
(0 -0 -1.14132e-06)
(0 -0 -1.17759e-06)
(0 -0 -1.21463e-06)
(0 -0 -1.25249e-06)
(0 -0 -1.29113e-06)
(0 -0 -1.33015e-06)
(0 -0 -1.36949e-06)
(0 -0 -1.40924e-06)
(0 -0 -1.44918e-06)
(0 -0 -1.48936e-06)
(0 -0 -1.52979e-06)
(0 -0 -1.57015e-06)
(0 -0 -1.61053e-06)
(0 -0 -1.65107e-06)
(0 -0 -1.69157e-06)
(0 -0 -1.73208e-06)
(0 -0 -1.77281e-06)
(0 -0 -1.81368e-06)
(0 -0 -1.85463e-06)
(0 -0 -1.8958e-06)
(0 -0 -1.93717e-06)
(0 -0 -1.97887e-06)
(0 -0 -2.02123e-06)
(0 -0 -2.06416e-06)
(0 -0 -2.10732e-06)
(0 -0 -2.15079e-06)
(0 -0 -2.19482e-06)
(0 -0 -2.23941e-06)
(0 -0 -2.28442e-06)
(0 -0 -2.32976e-06)
(0 -0 -2.37518e-06)
(0 -0 -2.4205e-06)
(0 -0 -2.46596e-06)
(0 -0 -2.51168e-06)
(0 -0 -2.55731e-06)
(0 -0 -2.60265e-06)
(0 -0 -2.64789e-06)
(0 -0 -2.69311e-06)
(0 -0 -2.73821e-06)
(0 -0 -2.7833e-06)
(0 -0 -2.82858e-06)
(0 -0 -2.87396e-06)
(0 -0 -2.91936e-06)
(0 -0 -2.9651e-06)
(0 -0 -3.01157e-06)
(0 -0 -3.05881e-06)
(0 -0 -3.1067e-06)
(0 -0 -3.15525e-06)
(0 -0 -3.20442e-06)
(0 -0 -3.25393e-06)
(0 -0 -3.30371e-06)
(0 -0 -3.3539e-06)
(0 -0 -3.40453e-06)
(0 -0 -3.45523e-06)
(0 -0 -3.50567e-06)
(0 -0 -3.55579e-06)
(0 -0 -3.60557e-06)
(0 -0 -3.65481e-06)
(0 -0 -3.70336e-06)
(0 -0 -3.75136e-06)
(0 -0 -3.79907e-06)
(0 -0 -3.8466e-06)
(0 -0 -3.89393e-06)
(0 -0 -3.94111e-06)
(0 -0 -3.98837e-06)
(0 -0 -4.03593e-06)
(0 -0 -4.08388e-06)
(0 -0 -4.13225e-06)
(0 -0 -4.18105e-06)
(0 -0 -4.2302e-06)
(0 -0 -4.27954e-06)
(0 -0 -4.32902e-06)
(0 -0 -4.37857e-06)
(0 -0 -4.42799e-06)
(0 -0 -4.47694e-06)
(0 -0 -4.52519e-06)
(0 -0 -4.57275e-06)
(0 -0 -4.61964e-06)
(0 -0 -4.66564e-06)
(0 -0 -4.71035e-06)
(0 -0 -4.75353e-06)
(0 -0 -4.79524e-06)
(0 -0 -4.83563e-06)
(0 -0 -4.87469e-06)
(0 -0 -4.9122e-06)
(0 -0 -4.94799e-06)
(0 -0 -4.9821e-06)
(0 -0 -5.01477e-06)
(0 -0 -5.0463e-06)
(0 -0 -5.07691e-06)
(0 -0 -5.10672e-06)
(0 -0 -5.13585e-06)
(0 -0 -5.16448e-06)
(0 -0 -5.19285e-06)
(0 -0 -5.2212e-06)
(0 -0 -5.24968e-06)
(0 -0 -5.27828e-06)
(0 -0 -5.30673e-06)
(0 -0 -5.33479e-06)
(0 -0 -5.36237e-06)
(0 -0 -5.38936e-06)
(0 -0 -5.41546e-06)
(0 -0 -5.4402e-06)
(0 -0 -5.46316e-06)
(0 -0 -5.48422e-06)
(0 -0 -5.50344e-06)
(0 -0 -5.52085e-06)
(0 -0 -5.53638e-06)
(0 -0 -5.54995e-06)
(0 -0 -5.56162e-06)
(0 -0 -5.57164e-06)
(0 -0 -5.58025e-06)
(0 -0 -5.5875e-06)
(0 -0 -5.59338e-06)
(0 -0 -5.59795e-06)
(0 -0 -5.60138e-06)
(0 -0 -5.60373e-06)
(0 -0 -5.60487e-06)
(0 -0 -5.60473e-06)
(0 -0 -5.60342e-06)
(0 -0 -5.60099e-06)
(0 -0 -5.5974e-06)
(0 -0 -5.59281e-06)
(0 -0 -5.58751e-06)
(0 -0 -5.58176e-06)
(0 -0 -5.57567e-06)
(0 -0 -5.56941e-06)
(0 -0 -5.56325e-06)
(0 -0 -5.55742e-06)
(0 -0 -5.55195e-06)
(0 -0 -5.54661e-06)
(0 -0 -5.54118e-06)
(0 -0 -5.53553e-06)
(0 -0 -5.52961e-06)
(0 -0 -5.52333e-06)
(0 -0 -5.51632e-06)
(0 -0 -5.50837e-06)
(0 -0 -5.49957e-06)
(0 -0 -5.49015e-06)
(0 -0 -5.4802e-06)
(0 -0 -5.46963e-06)
(0 -0 -5.45839e-06)
(0 -0 -5.44656e-06)
(0 -0 -5.434e-06)
(0 -0 -5.42087e-06)
(0 -0 -5.40706e-06)
(0 -0 -5.39236e-06)
(0 -0 -5.37703e-06)
(0 -0 -5.36077e-06)
(0 -0 -5.34391e-06)
(0 -0 -5.3265e-06)
(0 -0 -5.30895e-06)
(0 -0 -5.29113e-06)
(0 -0 -5.2731e-06)
(0 -0 -5.25459e-06)
(0 -0 -5.23549e-06)
(0 -0 -5.21563e-06)
(0 -0 -5.19474e-06)
(0 -0 -5.17249e-06)
(0 -0 -5.14839e-06)
(0 -0 -5.12237e-06)
(0 -0 -5.09437e-06)
(0 -0 -5.06441e-06)
(0 -0 -5.0327e-06)
(0 -0 -4.99961e-06)
(0 -0 -4.96559e-06)
(0 -0 -4.9311e-06)
(0 -0 -4.8965e-06)
(0 -0 -4.86206e-06)
(0 -0 -4.82794e-06)
(0 -0 -4.79411e-06)
(0 -0 -4.76025e-06)
(0 -0 -4.72605e-06)
(0 -0 -4.69115e-06)
(0 -0 -4.65526e-06)
(0 -0 -4.61817e-06)
(0 -0 -4.57963e-06)
(0 -0 -4.53936e-06)
(0 -0 -4.49733e-06)
(0 -0 -4.45365e-06)
(0 -0 -4.40829e-06)
(0 -0 -4.36127e-06)
(0 -0 -4.31244e-06)
(0 -0 -4.26176e-06)
(0 -0 -4.20909e-06)
(0 -0 -4.15437e-06)
(0 -0 -4.09743e-06)
(0 -0 -4.03822e-06)
(0 -0 -3.97657e-06)
(0 -0 -3.91256e-06)
(0 -0 -3.8462e-06)
(0 -0 -3.77747e-06)
(0 -0 -3.70658e-06)
(0 -0 -3.63391e-06)
(0 -0 -3.55992e-06)
(0 -0 -3.48505e-06)
(0 -0 -3.40963e-06)
(0 -0 -3.33374e-06)
(0 -0 -3.25743e-06)
(0 -0 -3.18067e-06)
(0 -0 -3.10346e-06)
(0 -0 -3.02558e-06)
(0 -0 -2.94669e-06)
(0 -0 -2.86651e-06)
(0 -0 -2.78483e-06)
(0 -0 -2.70164e-06)
(0 -0 -2.61704e-06)
(0 -0 -2.53111e-06)
(0 -0 -2.44403e-06)
(0 -0 -2.35604e-06)
(0 -0 -2.26729e-06)
(0 -0 -2.17799e-06)
(0 -0 -2.08832e-06)
(0 -0 -1.99854e-06)
(0 -0 -1.90888e-06)
(0 -0 -1.81955e-06)
(0 -0 -1.73064e-06)
(0 -0 -1.64219e-06)
(0 -0 -1.55426e-06)
(0 -0 -1.46686e-06)
(0 -0 -1.37982e-06)
(0 -0 -1.29292e-06)
(0 -0 -1.20598e-06)
(0 -0 -1.11889e-06)
(0 -0 -1.03157e-06)
(0 -0 -9.43923e-07)
(0 -0 -8.5598e-07)
(0 -0 -7.67924e-07)
(0 -0 -6.80225e-07)
(0 -0 -5.93426e-07)
(0 -0 -5.08105e-07)
(0 -0 -4.24649e-07)
(0 -0 -3.43381e-07)
(0 -0 -2.64509e-07)
(0 -0 -1.88072e-07)
(0 -0 -1.13878e-07)
(0 -0 -3.85126e-08)
(0 -0 2.60519e-07)
(0 -0 3.47355e-07)
(0 -0 -1.42643e-07)
(0 -0 -4.24345e-07)
(0 -0 -6.08955e-07)
(0 -0 -7.4054e-07)
(0 -0 -8.43292e-07)
(0 -0 -9.29647e-07)
(0 -0 -1.00644e-06)
(0 -0 -1.0776e-06)
(0 -0 -1.14524e-06)
(0 -0 -1.21049e-06)
(0 -0 -1.27409e-06)
(0 -0 -1.3367e-06)
(0 -0 -1.39907e-06)
(0 -0 -1.46145e-06)
(0 -0 -1.52409e-06)
(0 -0 -1.58717e-06)
(0 -0 -1.65059e-06)
(0 -0 -1.71458e-06)
(0 -0 -1.77929e-06)
(0 -0 -1.84476e-06)
(0 -0 -1.91105e-06)
(0 -0 -1.97791e-06)
(0 -0 -2.04526e-06)
(0 -0 -2.11312e-06)
(0 -0 -2.18124e-06)
(0 -0 -2.24965e-06)
(0 -0 -2.31844e-06)
(0 -0 -2.3872e-06)
(0 -0 -2.45583e-06)
(0 -0 -2.52452e-06)
(0 -0 -2.5932e-06)
(0 -0 -2.66186e-06)
(0 -0 -2.73067e-06)
(0 -0 -2.79955e-06)
(0 -0 -2.86856e-06)
(0 -0 -2.93792e-06)
(0 -0 -3.00764e-06)
(0 -0 -3.07771e-06)
(0 -0 -3.14844e-06)
(0 -0 -3.21997e-06)
(0 -0 -3.29215e-06)
(0 -0 -3.365e-06)
(0 -0 -3.4387e-06)
(0 -0 -3.51316e-06)
(0 -0 -3.58827e-06)
(0 -0 -3.66405e-06)
(0 -0 -3.74035e-06)
(0 -0 -3.81686e-06)
(0 -0 -3.89355e-06)
(0 -0 -3.97043e-06)
(0 -0 -4.04718e-06)
(0 -0 -4.12357e-06)
(0 -0 -4.1997e-06)
(0 -0 -4.27563e-06)
(0 -0 -4.35111e-06)
(0 -0 -4.42619e-06)
(0 -0 -4.50128e-06)
(0 -0 -4.57655e-06)
(0 -0 -4.65191e-06)
(0 -0 -4.72748e-06)
(0 -0 -4.80355e-06)
(0 -0 -4.88026e-06)
(0 -0 -4.95767e-06)
(0 -0 -5.03608e-06)
(0 -0 -5.11577e-06)
(0 -0 -5.19657e-06)
(0 -0 -5.27808e-06)
(0 -0 -5.36012e-06)
(0 -0 -5.4427e-06)
(0 -0 -5.52567e-06)
(0 -0 -5.60872e-06)
(0 -0 -5.69156e-06)
(0 -0 -5.77396e-06)
(0 -0 -5.85571e-06)
(0 -0 -5.93672e-06)
(0 -0 -6.01702e-06)
(0 -0 -6.09666e-06)
(0 -0 -6.17559e-06)
(0 -0 -6.25391e-06)
(0 -0 -6.33202e-06)
(0 -0 -6.41033e-06)
(0 -0 -6.48896e-06)
(0 -0 -6.56794e-06)
(0 -0 -6.64743e-06)
(0 -0 -6.72769e-06)
(0 -0 -6.80879e-06)
(0 -0 -6.89051e-06)
(0 -0 -6.97257e-06)
(0 -0 -7.05488e-06)
(0 -0 -7.13733e-06)
(0 -0 -7.21952e-06)
(0 -0 -7.30101e-06)
(0 -0 -7.38152e-06)
(0 -0 -7.46095e-06)
(0 -0 -7.5391e-06)
(0 -0 -7.61562e-06)
(0 -0 -7.69017e-06)
(0 -0 -7.76259e-06)
(0 -0 -7.83278e-06)
(0 -0 -7.90059e-06)
(0 -0 -7.96592e-06)
(0 -0 -8.02873e-06)
(0 -0 -8.08909e-06)
(0 -0 -8.14703e-06)
(0 -0 -8.20261e-06)
(0 -0 -8.25605e-06)
(0 -0 -8.30775e-06)
(0 -0 -8.35815e-06)
(0 -0 -8.40758e-06)
(0 -0 -8.45629e-06)
(0 -0 -8.50462e-06)
(0 -0 -8.55288e-06)
(0 -0 -8.60126e-06)
(0 -0 -8.64968e-06)
(0 -0 -8.6979e-06)
(0 -0 -8.74563e-06)
(0 -0 -8.7926e-06)
(0 -0 -8.83841e-06)
(0 -0 -8.88255e-06)
(0 -0 -8.92453e-06)
(0 -0 -8.96392e-06)
(0 -0 -9.00042e-06)
(0 -0 -9.03381e-06)
(0 -0 -9.06392e-06)
(0 -0 -9.0907e-06)
(0 -0 -9.11422e-06)
(0 -0 -9.13469e-06)
(0 -0 -9.15242e-06)
(0 -0 -9.16773e-06)
(0 -0 -9.18073e-06)
(0 -0 -9.19145e-06)
(0 -0 -9.20007e-06)
(0 -0 -9.20678e-06)
(0 -0 -9.21173e-06)
(0 -0 -9.2148e-06)
(0 -0 -9.21579e-06)
(0 -0 -9.2147e-06)
(0 -0 -9.21174e-06)
(0 -0 -9.20707e-06)
(0 -0 -9.2008e-06)
(0 -0 -9.19313e-06)
(0 -0 -9.18455e-06)
(0 -0 -9.1755e-06)
(0 -0 -9.1663e-06)
(0 -0 -9.15727e-06)
(0 -0 -9.14849e-06)
(0 -0 -9.14009e-06)
(0 -0 -9.13209e-06)
(0 -0 -9.12418e-06)
(0 -0 -9.11588e-06)
(0 -0 -9.10685e-06)
(0 -0 -9.09699e-06)
(0 -0 -9.08611e-06)
(0 -0 -9.07409e-06)
(0 -0 -9.06082e-06)
(0 -0 -9.04626e-06)
(0 -0 -9.03081e-06)
(0 -0 -9.01436e-06)
(0 -0 -8.99699e-06)
(0 -0 -8.97872e-06)
(0 -0 -8.95932e-06)
(0 -0 -8.93879e-06)
(0 -0 -8.91691e-06)
(0 -0 -8.89379e-06)
(0 -0 -8.86941e-06)
(0 -0 -8.84402e-06)
(0 -0 -8.81748e-06)
(0 -0 -8.7901e-06)
(0 -0 -8.76201e-06)
(0 -0 -8.73358e-06)
(0 -0 -8.70474e-06)
(0 -0 -8.6754e-06)
(0 -0 -8.64513e-06)
(0 -0 -8.6135e-06)
(0 -0 -8.58017e-06)
(0 -0 -8.54462e-06)
(0 -0 -8.50629e-06)
(0 -0 -8.46468e-06)
(0 -0 -8.41975e-06)
(0 -0 -8.37164e-06)
(0 -0 -8.3207e-06)
(0 -0 -8.26756e-06)
(0 -0 -8.21285e-06)
(0 -0 -8.15737e-06)
(0 -0 -8.10178e-06)
(0 -0 -8.04648e-06)
(0 -0 -7.99161e-06)
(0 -0 -7.93715e-06)
(0 -0 -7.88265e-06)
(0 -0 -7.8276e-06)
(0 -0 -7.77139e-06)
(0 -0 -7.71349e-06)
(0 -0 -7.65348e-06)
(0 -0 -7.59105e-06)
(0 -0 -7.52592e-06)
(0 -0 -7.45784e-06)
(0 -0 -7.38688e-06)
(0 -0 -7.31304e-06)
(0 -0 -7.23631e-06)
(0 -0 -7.15647e-06)
(0 -0 -7.07345e-06)
(0 -0 -6.98714e-06)
(0 -0 -6.89748e-06)
(0 -0 -6.80414e-06)
(0 -0 -6.70694e-06)
(0 -0 -6.60561e-06)
(0 -0 -6.50004e-06)
(0 -0 -6.39035e-06)
(0 -0 -6.27669e-06)
(0 -0 -6.15942e-06)
(0 -0 -6.03903e-06)
(0 -0 -5.91614e-06)
(0 -0 -5.79128e-06)
(0 -0 -5.66508e-06)
(0 -0 -5.53782e-06)
(0 -0 -5.40967e-06)
(0 -0 -5.28046e-06)
(0 -0 -5.15004e-06)
(0 -0 -5.01817e-06)
(0 -0 -4.88454e-06)
(0 -0 -4.74887e-06)
(0 -0 -4.61101e-06)
(0 -0 -4.47106e-06)
(0 -0 -4.32924e-06)
(0 -0 -4.18592e-06)
(0 -0 -4.04128e-06)
(0 -0 -3.89572e-06)
(0 -0 -3.74946e-06)
(0 -0 -3.60279e-06)
(0 -0 -3.45583e-06)
(0 -0 -3.30883e-06)
(0 -0 -3.16191e-06)
(0 -0 -3.01524e-06)
(0 -0 -2.86889e-06)
(0 -0 -2.72292e-06)
(0 -0 -2.57732e-06)
(0 -0 -2.43203e-06)
(0 -0 -2.28699e-06)
(0 -0 -2.14201e-06)
(0 -0 -1.99693e-06)
(0 -0 -1.85165e-06)
(0 -0 -1.70623e-06)
(0 -0 -1.56069e-06)
(0 -0 -1.41526e-06)
(0 -0 -1.2702e-06)
(0 -0 -1.12607e-06)
(0 -0 -9.83458e-07)
(0 -0 -8.43059e-07)
(0 -0 -7.05453e-07)
(0 -0 -5.71103e-07)
(0 -0 -4.40309e-07)
(0 -0 -3.131e-07)
(0 -0 -1.8935e-07)
(0 -0 -6.40678e-08)
(0 -0 2.58234e-07)
(0 -0 3.27046e-07)
(0 -0 -1.05036e-07)
(0 -0 -4.09971e-07)
(0 -0 -6.42487e-07)
(0 -0 -8.266e-07)
(0 -0 -9.79063e-07)
(0 -0 -1.11064e-06)
(0 -0 -1.2283e-06)
(0 -0 -1.33665e-06)
(0 -0 -1.43863e-06)
(0 -0 -1.53602e-06)
(0 -0 -1.63006e-06)
(0 -0 -1.72188e-06)
(0 -0 -1.81221e-06)
(0 -0 -1.90172e-06)
(0 -0 -1.99104e-06)
(0 -0 -2.08028e-06)
(0 -0 -2.16972e-06)
(0 -0 -2.25958e-06)
(0 -0 -2.34997e-06)
(0 -0 -2.44112e-06)
(0 -0 -2.53292e-06)
(0 -0 -2.62535e-06)
(0 -0 -2.7184e-06)
(0 -0 -2.81174e-06)
(0 -0 -2.90528e-06)
(0 -0 -2.99921e-06)
(0 -0 -3.09329e-06)
(0 -0 -3.1873e-06)
(0 -0 -3.28129e-06)
(0 -0 -3.37513e-06)
(0 -0 -3.4688e-06)
(0 -0 -3.56248e-06)
(0 -0 -3.65614e-06)
(0 -0 -3.74981e-06)
(0 -0 -3.84374e-06)
(0 -0 -3.93805e-06)
(0 -0 -4.03276e-06)
(0 -0 -4.12821e-06)
(0 -0 -4.22466e-06)
(0 -0 -4.32204e-06)
(0 -0 -4.4204e-06)
(0 -0 -4.51994e-06)
(0 -0 -4.62069e-06)
(0 -0 -4.7225e-06)
(0 -0 -4.82537e-06)
(0 -0 -4.92918e-06)
(0 -0 -5.03363e-06)
(0 -0 -5.13859e-06)
(0 -0 -5.24405e-06)
(0 -0 -5.34969e-06)
(0 -0 -5.45506e-06)
(0 -0 -5.56015e-06)
(0 -0 -5.66501e-06)
(0 -0 -5.76938e-06)
(0 -0 -5.87304e-06)
(0 -0 -5.97621e-06)
(0 -0 -6.07915e-06)
(0 -0 -6.18196e-06)
(0 -0 -6.28484e-06)
(0 -0 -6.38821e-06)
(0 -0 -6.49229e-06)
(0 -0 -6.59707e-06)
(0 -0 -6.70273e-06)
(0 -0 -6.80963e-06)
(0 -0 -6.91792e-06)
(0 -0 -7.02754e-06)
(0 -0 -7.13841e-06)
(0 -0 -7.2504e-06)
(0 -0 -7.36322e-06)
(0 -0 -7.47647e-06)
(0 -0 -7.5899e-06)
(0 -0 -7.70327e-06)
(0 -0 -7.81625e-06)
(0 -0 -7.92849e-06)
(0 -0 -8.03991e-06)
(0 -0 -8.15063e-06)
(0 -0 -8.26068e-06)
(0 -0 -8.36997e-06)
(0 -0 -8.47864e-06)
(0 -0 -8.58714e-06)
(0 -0 -8.69598e-06)
(0 -0 -8.80538e-06)
(0 -0 -8.91539e-06)
(0 -0 -9.02625e-06)
(0 -0 -9.1382e-06)
(0 -0 -9.25129e-06)
(0 -0 -9.36533e-06)
(0 -0 -9.48003e-06)
(0 -0 -9.59512e-06)
(0 -0 -9.71031e-06)
(0 -0 -9.82512e-06)
(0 -0 -9.93909e-06)
(0 -0 -1.00519e-05)
(0 -0 -1.01632e-05)
(0 -0 -1.02727e-05)
(0 -0 -1.03799e-05)
(0 -0 -1.04845e-05)
(0 -0 -1.05864e-05)
(0 -0 -1.06854e-05)
(0 -0 -1.07811e-05)
(0 -0 -1.08733e-05)
(0 -0 -1.0962e-05)
(0 -0 -1.10475e-05)
(0 -0 -1.11297e-05)
(0 -0 -1.12089e-05)
(0 -0 -1.12852e-05)
(0 -0 -1.13591e-05)
(0 -0 -1.14312e-05)
(0 -0 -1.1502e-05)
(0 -0 -1.15719e-05)
(0 -0 -1.16411e-05)
(0 -0 -1.17103e-05)
(0 -0 -1.17795e-05)
(0 -0 -1.18487e-05)
(0 -0 -1.19178e-05)
(0 -0 -1.19863e-05)
(0 -0 -1.20539e-05)
(0 -0 -1.21197e-05)
(0 -0 -1.21833e-05)
(0 -0 -1.22438e-05)
(0 -0 -1.23008e-05)
(0 -0 -1.23539e-05)
(0 -0 -1.24028e-05)
(0 -0 -1.24471e-05)
(0 -0 -1.24867e-05)
(0 -0 -1.25219e-05)
(0 -0 -1.25528e-05)
(0 -0 -1.25798e-05)
(0 -0 -1.26032e-05)
(0 -0 -1.26234e-05)
(0 -0 -1.26406e-05)
(0 -0 -1.26549e-05)
(0 -0 -1.26665e-05)
(0 -0 -1.26755e-05)
(0 -0 -1.26821e-05)
(0 -0 -1.26859e-05)
(0 -0 -1.26869e-05)
(0 -0 -1.26853e-05)
(0 -0 -1.26812e-05)
(0 -0 -1.26749e-05)
(0 -0 -1.26668e-05)
(0 -0 -1.26572e-05)
(0 -0 -1.26468e-05)
(0 -0 -1.26362e-05)
(0 -0 -1.26257e-05)
(0 -0 -1.26156e-05)
(0 -0 -1.26058e-05)
(0 -0 -1.25964e-05)
(0 -0 -1.25869e-05)
(0 -0 -1.25771e-05)
(0 -0 -1.25663e-05)
(0 -0 -1.25542e-05)
(0 -0 -1.25407e-05)
(0 -0 -1.25257e-05)
(0 -0 -1.25091e-05)
(0 -0 -1.24908e-05)
(0 -0 -1.24711e-05)
(0 -0 -1.24501e-05)
(0 -0 -1.24279e-05)
(0 -0 -1.24043e-05)
(0 -0 -1.23793e-05)
(0 -0 -1.23528e-05)
(0 -0 -1.23244e-05)
(0 -0 -1.22942e-05)
(0 -0 -1.22621e-05)
(0 -0 -1.22284e-05)
(0 -0 -1.21933e-05)
(0 -0 -1.2157e-05)
(0 -0 -1.21198e-05)
(0 -0 -1.2082e-05)
(0 -0 -1.20435e-05)
(0 -0 -1.20044e-05)
(0 -0 -1.1964e-05)
(0 -0 -1.19219e-05)
(0 -0 -1.18772e-05)
(0 -0 -1.18295e-05)
(0 -0 -1.1778e-05)
(0 -0 -1.17221e-05)
(0 -0 -1.16616e-05)
(0 -0 -1.15968e-05)
(0 -0 -1.1528e-05)
(0 -0 -1.14561e-05)
(0 -0 -1.13821e-05)
(0 -0 -1.13069e-05)
(0 -0 -1.12316e-05)
(0 -0 -1.11566e-05)
(0 -0 -1.10822e-05)
(0 -0 -1.10081e-05)
(0 -0 -1.09339e-05)
(0 -0 -1.08589e-05)
(0 -0 -1.07822e-05)
(0 -0 -1.0703e-05)
(0 -0 -1.06208e-05)
(0 -0 -1.0535e-05)
(0 -0 -1.04455e-05)
(0 -0 -1.03519e-05)
(0 -0 -1.02543e-05)
(0 -0 -1.01525e-05)
(0 -0 -1.00467e-05)
(0 -0 -9.93652e-06)
(0 -0 -9.82201e-06)
(0 -0 -9.70291e-06)
(0 -0 -9.57904e-06)
(0 -0 -9.45013e-06)
(0 -0 -9.31584e-06)
(0 -0 -9.17588e-06)
(0 -0 -9.03002e-06)
(0 -0 -8.87825e-06)
(0 -0 -8.7209e-06)
(0 -0 -8.55848e-06)
(0 -0 -8.39167e-06)
(0 -0 -8.22131e-06)
(0 -0 -8.04816e-06)
(0 -0 -7.87295e-06)
(0 -0 -7.69616e-06)
(0 -0 -7.518e-06)
(0 -0 -7.3383e-06)
(0 -0 -7.15678e-06)
(0 -0 -6.97298e-06)
(0 -0 -6.78658e-06)
(0 -0 -6.59728e-06)
(0 -0 -6.405e-06)
(0 -0 -6.20993e-06)
(0 -0 -6.01231e-06)
(0 -0 -5.81267e-06)
(0 -0 -5.61147e-06)
(0 -0 -5.4091e-06)
(0 -0 -5.20591e-06)
(0 -0 -5.00229e-06)
(0 -0 -4.79842e-06)
(0 -0 -4.59455e-06)
(0 -0 -4.39081e-06)
(0 -0 -4.18734e-06)
(0 -0 -3.98423e-06)
(0 -0 -3.78148e-06)
(0 -0 -3.5791e-06)
(0 -0 -3.37697e-06)
(0 -0 -3.17499e-06)
(0 -0 -2.97304e-06)
(0 -0 -2.77101e-06)
(0 -0 -2.56878e-06)
(0 -0 -2.36643e-06)
(0 -0 -2.1641e-06)
(0 -0 -1.9621e-06)
(0 -0 -1.76087e-06)
(0 -0 -1.56106e-06)
(0 -0 -1.36347e-06)
(0 -0 -1.16892e-06)
(0 -0 -9.78215e-07)
(0 -0 -7.9196e-07)
(0 -0 -6.10551e-07)
(0 -0 -4.3402e-07)
(0 -0 -2.62139e-07)
(0 -0 -8.85981e-08)
(0 -0 2.09161e-07)
(0 -0 2.29527e-07)
(0 -0 -1.64783e-07)
(0 -0 -4.7208e-07)
(0 -0 -7.26694e-07)
(0 -0 -9.41672e-07)
(0 -0 -1.1279e-06)
(0 -0 -1.29323e-06)
(0 -0 -1.44329e-06)
(0 -0 -1.58235e-06)
(0 -0 -1.71345e-06)
(0 -0 -1.83865e-06)
(0 -0 -1.95957e-06)
(0 -0 -2.07721e-06)
(0 -0 -2.19254e-06)
(0 -0 -2.30652e-06)
(0 -0 -2.41964e-06)
(0 -0 -2.53237e-06)
(0 -0 -2.64508e-06)
(0 -0 -2.75798e-06)
(0 -0 -2.87136e-06)
(0 -0 -2.98524e-06)
(0 -0 -3.09965e-06)
(0 -0 -3.21475e-06)
(0 -0 -3.33026e-06)
(0 -0 -3.44597e-06)
(0 -0 -3.56198e-06)
(0 -0 -3.67809e-06)
(0 -0 -3.79409e-06)
(0 -0 -3.91001e-06)
(0 -0 -4.02575e-06)
(0 -0 -4.14117e-06)
(0 -0 -4.25636e-06)
(0 -0 -4.37134e-06)
(0 -0 -4.48615e-06)
(0 -0 -4.60105e-06)
(0 -0 -4.71622e-06)
(0 -0 -4.8317e-06)
(0 -0 -4.94781e-06)
(0 -0 -5.06496e-06)
(0 -0 -5.18329e-06)
(0 -0 -5.30287e-06)
(0 -0 -5.42397e-06)
(0 -0 -5.54673e-06)
(0 -0 -5.67106e-06)
(0 -0 -5.797e-06)
(0 -0 -5.92452e-06)
(0 -0 -6.05331e-06)
(0 -0 -6.18313e-06)
(0 -0 -6.31392e-06)
(0 -0 -6.4454e-06)
(0 -0 -6.57702e-06)
(0 -0 -6.70852e-06)
(0 -0 -6.83988e-06)
(0 -0 -6.97084e-06)
(0 -0 -7.10108e-06)
(0 -0 -7.23063e-06)
(0 -0 -7.35966e-06)
(0 -0 -7.48813e-06)
(0 -0 -7.61613e-06)
(0 -0 -7.74409e-06)
(0 -0 -7.87246e-06)
(0 -0 -8.00144e-06)
(0 -0 -8.13127e-06)
(0 -0 -8.26235e-06)
(0 -0 -8.39492e-06)
(0 -0 -8.52897e-06)
(0 -0 -8.6645e-06)
(0 -0 -8.80165e-06)
(0 -0 -8.94038e-06)
(0 -0 -9.0803e-06)
(0 -0 -9.22098e-06)
(0 -0 -9.36212e-06)
(0 -0 -9.50348e-06)
(0 -0 -9.64468e-06)
(0 -0 -9.78537e-06)
(0 -0 -9.92541e-06)
(0 -0 -1.00648e-05)
(0 -0 -1.02035e-05)
(0 -0 -1.03417e-05)
(0 -0 -1.04796e-05)
(0 -0 -1.06176e-05)
(0 -0 -1.07561e-05)
(0 -0 -1.08953e-05)
(0 -0 -1.10355e-05)
(0 -0 -1.11771e-05)
(0 -0 -1.13201e-05)
(0 -0 -1.14645e-05)
(0 -0 -1.16101e-05)
(0 -0 -1.17567e-05)
(0 -0 -1.19039e-05)
(0 -0 -1.20512e-05)
(0 -0 -1.2198e-05)
(0 -0 -1.23439e-05)
(0 -0 -1.24885e-05)
(0 -0 -1.26313e-05)
(0 -0 -1.27717e-05)
(0 -0 -1.29093e-05)
(0 -0 -1.30437e-05)
(0 -0 -1.31748e-05)
(0 -0 -1.33023e-05)
(0 -0 -1.34258e-05)
(0 -0 -1.35451e-05)
(0 -0 -1.36603e-05)
(0 -0 -1.37713e-05)
(0 -0 -1.38782e-05)
(0 -0 -1.39814e-05)
(0 -0 -1.40812e-05)
(0 -0 -1.41781e-05)
(0 -0 -1.42728e-05)
(0 -0 -1.43657e-05)
(0 -0 -1.44575e-05)
(0 -0 -1.45487e-05)
(0 -0 -1.46397e-05)
(0 -0 -1.47307e-05)
(0 -0 -1.48216e-05)
(0 -0 -1.49123e-05)
(0 -0 -1.50024e-05)
(0 -0 -1.50913e-05)
(0 -0 -1.51781e-05)
(0 -0 -1.52621e-05)
(0 -0 -1.53424e-05)
(0 -0 -1.54184e-05)
(0 -0 -1.54894e-05)
(0 -0 -1.55551e-05)
(0 -0 -1.56149e-05)
(0 -0 -1.56689e-05)
(0 -0 -1.57172e-05)
(0 -0 -1.57602e-05)
(0 -0 -1.57981e-05)
(0 -0 -1.58312e-05)
(0 -0 -1.586e-05)
(0 -0 -1.58851e-05)
(0 -0 -1.59067e-05)
(0 -0 -1.5925e-05)
(0 -0 -1.59399e-05)
(0 -0 -1.59516e-05)
(0 -0 -1.59601e-05)
(0 -0 -1.59652e-05)
(0 -0 -1.5967e-05)
(0 -0 -1.59655e-05)
(0 -0 -1.59611e-05)
(0 -0 -1.59544e-05)
(0 -0 -1.59458e-05)
(0 -0 -1.59361e-05)
(0 -0 -1.59258e-05)
(0 -0 -1.59155e-05)
(0 -0 -1.59055e-05)
(0 -0 -1.58959e-05)
(0 -0 -1.58864e-05)
(0 -0 -1.58768e-05)
(0 -0 -1.58665e-05)
(0 -0 -1.58552e-05)
(0 -0 -1.58423e-05)
(0 -0 -1.58275e-05)
(0 -0 -1.58109e-05)
(0 -0 -1.57921e-05)
(0 -0 -1.57716e-05)
(0 -0 -1.57491e-05)
(0 -0 -1.5725e-05)
(0 -0 -1.56995e-05)
(0 -0 -1.56723e-05)
(0 -0 -1.56433e-05)
(0 -0 -1.5612e-05)
(0 -0 -1.55788e-05)
(0 -0 -1.55431e-05)
(0 -0 -1.5505e-05)
(0 -0 -1.54645e-05)
(0 -0 -1.54223e-05)
(0 -0 -1.53785e-05)
(0 -0 -1.53336e-05)
(0 -0 -1.52878e-05)
(0 -0 -1.52412e-05)
(0 -0 -1.51936e-05)
(0 -0 -1.51446e-05)
(0 -0 -1.50934e-05)
(0 -0 -1.5039e-05)
(0 -0 -1.49807e-05)
(0 -0 -1.49176e-05)
(0 -0 -1.48491e-05)
(0 -0 -1.47748e-05)
(0 -0 -1.46951e-05)
(0 -0 -1.46104e-05)
(0 -0 -1.45218e-05)
(0 -0 -1.44305e-05)
(0 -0 -1.43377e-05)
(0 -0 -1.42445e-05)
(0 -0 -1.41516e-05)
(0 -0 -1.40594e-05)
(0 -0 -1.39674e-05)
(0 -0 -1.38751e-05)
(0 -0 -1.37814e-05)
(0 -0 -1.36855e-05)
(0 -0 -1.35862e-05)
(0 -0 -1.34829e-05)
(0 -0 -1.3375e-05)
(0 -0 -1.32621e-05)
(0 -0 -1.31441e-05)
(0 -0 -1.30208e-05)
(0 -0 -1.28922e-05)
(0 -0 -1.27582e-05)
(0 -0 -1.26189e-05)
(0 -0 -1.2474e-05)
(0 -0 -1.23234e-05)
(0 -0 -1.21667e-05)
(0 -0 -1.20035e-05)
(0 -0 -1.18334e-05)
(0 -0 -1.16561e-05)
(0 -0 -1.14713e-05)
(0 -0 -1.12789e-05)
(0 -0 -1.10793e-05)
(0 -0 -1.08731e-05)
(0 -0 -1.06613e-05)
(0 -0 -1.04448e-05)
(0 -0 -1.02248e-05)
(0 -0 -1.00021e-05)
(0 -0 -9.77738e-06)
(0 -0 -9.55083e-06)
(0 -0 -9.32231e-06)
(0 -0 -9.09148e-06)
(0 -0 -8.85773e-06)
(0 -0 -8.62058e-06)
(0 -0 -8.37975e-06)
(0 -0 -8.13517e-06)
(0 -0 -7.88707e-06)
(0 -0 -7.63588e-06)
(0 -0 -7.3821e-06)
(0 -0 -7.12642e-06)
(0 -0 -6.86937e-06)
(0 -0 -6.61135e-06)
(0 -0 -6.3528e-06)
(0 -0 -6.094e-06)
(0 -0 -5.83521e-06)
(0 -0 -5.57656e-06)
(0 -0 -5.31818e-06)
(0 -0 -5.06014e-06)
(0 -0 -4.80243e-06)
(0 -0 -4.54503e-06)
(0 -0 -4.28783e-06)
(0 -0 -4.0307e-06)
(0 -0 -3.77354e-06)
(0 -0 -3.51627e-06)
(0 -0 -3.25886e-06)
(0 -0 -3.00137e-06)
(0 -0 -2.74405e-06)
(0 -0 -2.48728e-06)
(0 -0 -2.23171e-06)
(0 -0 -1.97812e-06)
(0 -0 -1.72746e-06)
(0 -0 -1.48076e-06)
(0 -0 -1.239e-06)
(0 -0 -1.00294e-06)
(0 -0 -7.73051e-07)
(0 -0 -5.49329e-07)
(0 -0 -3.31314e-07)
(0 -0 -1.11784e-07)
(0 -0 1.57112e-07)
(0 -0 1.22214e-07)
(0 -0 -2.53795e-07)
(0 -0 -5.61949e-07)
(0 -0 -8.29246e-07)
(0 -0 -1.06397e-06)
(0 -0 -1.27353e-06)
(0 -0 -1.46378e-06)
(0 -0 -1.63921e-06)
(0 -0 -1.80328e-06)
(0 -0 -1.95869e-06)
(0 -0 -2.10764e-06)
(0 -0 -2.25157e-06)
(0 -0 -2.39166e-06)
(0 -0 -2.52906e-06)
(0 -0 -2.66452e-06)
(0 -0 -2.79868e-06)
(0 -0 -2.93212e-06)
(0 -0 -3.06521e-06)
(0 -0 -3.19835e-06)
(0 -0 -3.33168e-06)
(0 -0 -3.46531e-06)
(0 -0 -3.59943e-06)
(0 -0 -3.73391e-06)
(0 -0 -3.86855e-06)
(0 -0 -4.00345e-06)
(0 -0 -4.13846e-06)
(0 -0 -4.27328e-06)
(0 -0 -4.40786e-06)
(0 -0 -4.54213e-06)
(0 -0 -4.67591e-06)
(0 -0 -4.80925e-06)
(0 -0 -4.94214e-06)
(0 -0 -5.07454e-06)
(0 -0 -5.2067e-06)
(0 -0 -5.33892e-06)
(0 -0 -5.47128e-06)
(0 -0 -5.60407e-06)
(0 -0 -5.73779e-06)
(0 -0 -5.87272e-06)
(0 -0 -6.00904e-06)
(0 -0 -6.14713e-06)
(0 -0 -6.28729e-06)
(0 -0 -6.42956e-06)
(0 -0 -6.57399e-06)
(0 -0 -6.72067e-06)
(0 -0 -6.86942e-06)
(0 -0 -7.01998e-06)
(0 -0 -7.17226e-06)
(0 -0 -7.32598e-06)
(0 -0 -7.48055e-06)
(0 -0 -7.63551e-06)
(0 -0 -7.7907e-06)
(0 -0 -7.94576e-06)
(0 -0 -8.10019e-06)
(0 -0 -8.25381e-06)
(0 -0 -8.40671e-06)
(0 -0 -8.55885e-06)
(0 -0 -8.71015e-06)
(0 -0 -8.86086e-06)
(0 -0 -9.01139e-06)
(0 -0 -9.16201e-06)
(0 -0 -9.31296e-06)
(0 -0 -9.46476e-06)
(0 -0 -9.61795e-06)
(0 -0 -9.77274e-06)
(0 -0 -9.9292e-06)
(0 -0 -1.00875e-05)
(0 -0 -1.02477e-05)
(0 -0 -1.04097e-05)
(0 -0 -1.05734e-05)
(0 -0 -1.07383e-05)
(0 -0 -1.09041e-05)
(0 -0 -1.10706e-05)
(0 -0 -1.12372e-05)
(0 -0 -1.14039e-05)
(0 -0 -1.15704e-05)
(0 -0 -1.17365e-05)
(0 -0 -1.19022e-05)
(0 -0 -1.20677e-05)
(0 -0 -1.22334e-05)
(0 -0 -1.23997e-05)
(0 -0 -1.25666e-05)
(0 -0 -1.27346e-05)
(0 -0 -1.29041e-05)
(0 -0 -1.30754e-05)
(0 -0 -1.32486e-05)
(0 -0 -1.34233e-05)
(0 -0 -1.35995e-05)
(0 -0 -1.3777e-05)
(0 -0 -1.39553e-05)
(0 -0 -1.41337e-05)
(0 -0 -1.43116e-05)
(0 -0 -1.44885e-05)
(0 -0 -1.46639e-05)
(0 -0 -1.48373e-05)
(0 -0 -1.50078e-05)
(0 -0 -1.51752e-05)
(0 -0 -1.5339e-05)
(0 -0 -1.54988e-05)
(0 -0 -1.56544e-05)
(0 -0 -1.58053e-05)
(0 -0 -1.59516e-05)
(0 -0 -1.60931e-05)
(0 -0 -1.62299e-05)
(0 -0 -1.63619e-05)
(0 -0 -1.64895e-05)
(0 -0 -1.66134e-05)
(0 -0 -1.67339e-05)
(0 -0 -1.68517e-05)
(0 -0 -1.69675e-05)
(0 -0 -1.70819e-05)
(0 -0 -1.71957e-05)
(0 -0 -1.73092e-05)
(0 -0 -1.74225e-05)
(0 -0 -1.75359e-05)
(0 -0 -1.76489e-05)
(0 -0 -1.77611e-05)
(0 -0 -1.78719e-05)
(0 -0 -1.79804e-05)
(0 -0 -1.80855e-05)
(0 -0 -1.81865e-05)
(0 -0 -1.82824e-05)
(0 -0 -1.83725e-05)
(0 -0 -1.84561e-05)
(0 -0 -1.85328e-05)
(0 -0 -1.86025e-05)
(0 -0 -1.86653e-05)
(0 -0 -1.87217e-05)
(0 -0 -1.87718e-05)
(0 -0 -1.88162e-05)
(0 -0 -1.88553e-05)
(0 -0 -1.88898e-05)
(0 -0 -1.89202e-05)
(0 -0 -1.89467e-05)
(0 -0 -1.89692e-05)
(0 -0 -1.89879e-05)
(0 -0 -1.90028e-05)
(0 -0 -1.90138e-05)
(0 -0 -1.9021e-05)
(0 -0 -1.90243e-05)
(0 -0 -1.9024e-05)
(0 -0 -1.90207e-05)
(0 -0 -1.90152e-05)
(0 -0 -1.9008e-05)
(0 -0 -1.89999e-05)
(0 -0 -1.89915e-05)
(0 -0 -1.89831e-05)
(0 -0 -1.89751e-05)
(0 -0 -1.8967e-05)
(0 -0 -1.89585e-05)
(0 -0 -1.89492e-05)
(0 -0 -1.89385e-05)
(0 -0 -1.8926e-05)
(0 -0 -1.89113e-05)
(0 -0 -1.88941e-05)
(0 -0 -1.88747e-05)
(0 -0 -1.8853e-05)
(0 -0 -1.88294e-05)
(0 -0 -1.88039e-05)
(0 -0 -1.87766e-05)
(0 -0 -1.87474e-05)
(0 -0 -1.8716e-05)
(0 -0 -1.86821e-05)
(0 -0 -1.86453e-05)
(0 -0 -1.86058e-05)
(0 -0 -1.85633e-05)
(0 -0 -1.85179e-05)
(0 -0 -1.84701e-05)
(0 -0 -1.84205e-05)
(0 -0 -1.83695e-05)
(0 -0 -1.83174e-05)
(0 -0 -1.82643e-05)
(0 -0 -1.82099e-05)
(0 -0 -1.81537e-05)
(0 -0 -1.8095e-05)
(0 -0 -1.80327e-05)
(0 -0 -1.79656e-05)
(0 -0 -1.78928e-05)
(0 -0 -1.78137e-05)
(0 -0 -1.77278e-05)
(0 -0 -1.76353e-05)
(0 -0 -1.7537e-05)
(0 -0 -1.74341e-05)
(0 -0 -1.73278e-05)