/*--------------------------------*- C++ -*----------------------------------*\
| =========                 |                                                 |
| \\      /  F ield         | OpenFOAM: The Open Source CFD Toolbox           |
|  \\    /   O peration     | Version:  v2012                                 |
|   \\  /    A nd           | Website:  www.openfoam.com                      |
|    \\/     M anipulation  |                                                 |
\*---------------------------------------------------------------------------*/
FoamFile
{
    version     2.0;
    format      ascii;
    class       volVectorField;
    location    "0";
    object      uRec;
}
// * * * * * * * * * * * * * * * * * * * * * * * * * * * * * * * * * * * * * //

dimensions      [0 1 -1 0 0 0 0];


internalField   nonuniform List<vector> 
4000
(
(1 3.8664e-15 0)
(1 1.4375e-15 0)
(1 -1.19291e-15 0)
(1 -2.59631e-15 0)
(1 -1.25913e-15 0)
(1 -1.67267e-15 0)
(1 1.95644e-15 0)
(1 3.90822e-15 0)
(1 6.05991e-15 0)
(1 -3.70909e-15 0)
(1 -6.80129e-15 0)
(1 -7.90772e-16 0)
(1 3.96096e-15 0)
(1 2.33882e-15 0)
(1 -2.83322e-15 0)
(1 4.63158e-16 0)
(1 -2.88359e-16 0)
(1 -1.7244e-15 0)
(1 1.71766e-15 0)
(1 1.65435e-15 0)
(1 1.83386e-15 0)
(1 -6.46499e-16 0)
(1 -3.74915e-15 0)
(1 -1.1048e-15 0)
(1 -2.63362e-15 0)
(1 -6.63068e-16 0)
(1 -2.1149e-15 0)
(1 -9.14651e-16 0)
(1 -6.27222e-16 0)
(1 2.39816e-15 0)
(1 2.67193e-15 0)
(1 1.99769e-15 0)
(1 -2.86553e-16 0)
(1 -1.00594e-15 0)
(1 -1.13396e-15 0)
(1 1.11379e-16 0)
(1 1.31019e-15 0)
(1 3.92993e-15 0)
(1 6.08698e-16 0)
(1 -3.38364e-15 0)
(1 -2.87577e-15 0)
(1 -4.57955e-15 0)
(1 -2.38457e-15 0)
(1 3.33843e-15 0)
(1 2.99846e-15 0)
(1 -1.41317e-15 0)
(1 -2.90215e-16 0)
(1 2.83043e-16 0)
(1 7.06406e-16 0)
(1 4.22608e-16 0)
(1 2.07608e-15 0)
(1 9.22271e-16 0)
(1 3.54177e-15 0)
(1 2.97291e-15 0)
(1 5.11267e-15 0)
(1 3.97863e-15 0)
(1 -1.66146e-16 0)
(1 -1.31066e-15 0)
(1 -2.9265e-15 0)
(1 1.73777e-16 0)
(1 -2.35707e-15 0)
(1 -2.79291e-16 0)
(1 -1.03774e-15 0)
(1 2.90773e-16 0)
(1 -2.37699e-15 0)
(1 8.94907e-16 0)
(1 -1.01068e-15 0)
(1 2.64235e-15 0)
(1 1.76779e-16 0)
(1 -1.71009e-15 0)
(1 -1.68416e-15 0)
(1 9.91283e-17 0)
(1 -4.0979e-15 0)
(1 -2.14793e-15 0)
(1 -2.90699e-15 0)
(1 -2.75405e-15 0)
(1 -1.72347e-15 0)
(1 -2.64206e-15 0)
(1 -9.06143e-16 0)
(1 8.56474e-16 0)
(1 5.63293e-16 0)
(1 2.50922e-15 0)
(1 -2.16569e-15 0)
(1 -2.21134e-15 0)
(1 -3.27703e-15 0)
(1 -1.5897e-16 0)
(1 4.34277e-15 0)
(1 2.92677e-15 0)
(1 -2.28239e-16 0)
(1 4.45729e-15 0)
(1 1.59883e-15 0)
(1 2.15021e-15 0)
(1 6.24832e-16 0)
(1 8.87312e-16 0)
(1 -1.21562e-15 0)
(1 1.69333e-15 0)
(1 1.15495e-15 0)
(1 -9.32517e-17 0)
(1 -2.46149e-15 0)
(1 -2.74913e-15 0)
(1 2.51893e-15 0)
(1 3.68767e-15 0)
(1 -9.60549e-16 0)
(1 -2.36408e-15 0)
(1 -2.38121e-15 0)
(1 -6.4865e-16 0)
(1 1.71378e-15 0)
(1 4.17568e-15 0)
(1 6.87644e-15 0)
(1 -1.41405e-16 0)
(1 -4.56258e-15 0)
(1 -3.04057e-15 0)
(1 3.81547e-16 0)
(1 -2.00054e-15 0)
(1 -2.3607e-15 0)
(1 4.72909e-15 0)
(1 3.19498e-15 0)
(1 -1.05596e-15 0)
(1 1.08045e-15 0)
(1 1.82627e-15 0)
(1 3.13021e-15 0)
(1 -1.18774e-15 0)
(1 -2.42945e-15 0)
(1 -7.10199e-16 0)
(1 -4.92273e-15 0)
(1 -3.24372e-15 0)
(1 -2.98083e-15 0)
(1 -3.23849e-15 0)
(1 -1.0067e-15 0)
(1 2.13592e-15 0)
(1 -2.36218e-16 0)
(1 2.09491e-15 0)
(1 -2.04118e-15 0)
(1 -8.05353e-17 0)
(1 9.16313e-16 0)
(1 1.29193e-15 0)
(1 2.3908e-15 0)
(1 5.55893e-15 0)
(1 -4.25982e-15 0)
(1 -6.43749e-15 0)
(1 -7.53172e-15 0)
(1 -4.46606e-15 0)
(1 -1.7799e-15 0)
(1 5.45631e-15 0)
(1 2.85531e-15 0)
(1 -4.27724e-16 0)
(1 -1.03849e-15 0)
(1 7.35315e-16 0)
(1 1.59223e-15 0)
(1 3.01096e-15 0)
(1 1.76457e-15 0)
(1 -7.13135e-17 0)
(1 2.32964e-15 0)
(1 2.65426e-16 0)
(1 2.61298e-15 0)
(1 6.01458e-16 0)
(1 -1.63187e-15 0)
(1 6.84487e-16 0)
(1 -1.39536e-15 0)
(1 -3.80649e-15 0)
(1 -5.42232e-16 0)
(1 5.00683e-16 0)
(1 2.66988e-15 0)
(1 2.00893e-15 0)
(1 -1.81396e-15 0)
(1 8.68175e-16 0)
(1 -2.6682e-15 0)
(1 6.35215e-16 0)
(1 1.29221e-15 0)
(1 -1.81152e-15 0)
(1 -3.40295e-16 0)
(1 -4.37135e-16 0)
(1 2.08049e-15 0)
(1 6.41242e-16 0)
(1 1.92866e-15 0)
(1 -9.89398e-16 0)
(1 -5.72437e-16 0)
(1 -7.27499e-16 0)
(1 4.86219e-16 0)
(1 4.80142e-15 0)
(1 9.60235e-16 0)
(1 1.02494e-15 0)
(1 -2.80907e-15 0)
(1 -3.42536e-15 0)
(1 -4.22304e-15 0)
(1 4.93342e-16 0)
(1 8.35651e-16 0)
(1 2.65318e-15 0)
(1 -2.10576e-15 0)
(1 3.48964e-15 0)
(1 4.1973e-17 0)
(1 -2.3432e-16 0)
(1 1.16259e-15 0)
(1 2.77102e-15 0)
(1 -2.86529e-15 0)
(1 3.0897e-15 0)
(1 1.31027e-15 0)
(1 2.14345e-16 0)
(1 -3.62949e-15 0)
(1 -5.10921e-15 0)
(1 -3.39435e-15 0)
(1 5.11822e-15 0)
(1 -5.01897e-15 0)
(1 2.70974e-15 0)
(1 -5.81658e-15 0)
(1 1.18897e-15 0)
(1 6.27487e-16 0)
(1 5.81451e-15 0)
(1 2.30167e-15 0)
(1 1.08244e-15 0)
(1 -7.03428e-16 0)
(1 1.66834e-15 0)
(1 2.40552e-15 0)
(1 1.01858e-15 0)
(1 4.32194e-17 0)
(1 -1.46642e-15 0)
(1 7.96211e-17 0)
(1 1.04008e-15 0)
(1 -8.78751e-16 0)
(1 2.06483e-15 0)
(1 6.29827e-16 0)
(1 -1.98057e-15 0)
(1 1.09547e-15 0)
(1 8.83305e-16 0)
(1 1.7973e-15 0)
(1 -1.51681e-15 0)
(1 1.31003e-16 0)
(1 -4.48128e-15 0)
(1 6.91603e-16 0)
(1 4.75019e-16 0)
(1 -4.82009e-16 0)
(1 -2.89864e-15 0)
(1 -1.59924e-15 0)
(1 1.72526e-15 0)
(1 1.82839e-15 0)
(1 4.03335e-15 0)
(1 -7.41072e-16 0)
(1 3.29836e-15 0)
(1 5.27787e-16 0)
(1 -5.2084e-15 0)
(1 -4.68698e-15 0)
(1 -4.26835e-15 0)
(1 -3.14912e-16 0)
(1 -1.18509e-15 0)
(1 7.61191e-16 0)
(1 1.8281e-15 0)
(1 4.60032e-15 0)
(1 3.52392e-15 0)
(1 2.05181e-15 0)
(1 9.83275e-17 0)
(1 3.37823e-15 0)
(1 1.47922e-15 0)
(1 2.70145e-15 0)
(1 -9.49525e-16 0)
(1 -5.88107e-16 0)
(1 1.08447e-16 0)
(1 1.44125e-15 0)
(1 4.16742e-15 0)
(1 3.46403e-15 0)
(1 -2.70318e-15 0)
(1 -2.65521e-15 0)
(1 -2.15992e-15 0)
(1 1.78932e-15 0)
(1 -3.69741e-16 0)
(1 -1.13259e-15 0)
(1 -5.56263e-16 0)
(1 -1.14539e-17 0)
(1 -1.37804e-16 0)
(1 2.25144e-15 0)
(1 -1.03178e-16 0)
(1 -3.43287e-16 0)
(1 -3.72229e-15 0)
(1 -8.58631e-16 0)
(1 -3.09983e-15 0)
(1 -3.7278e-16 0)
(1 -3.31632e-15 0)
(1 -1.46439e-15 0)
(1 -3.24677e-15 0)
(1 1.6291e-15 0)
(1 -7.89161e-16 0)
(1 3.25173e-16 0)
(1 -1.61466e-15 0)
(1 -4.04985e-16 0)
(1 -1.53381e-15 0)
(1 -1.61142e-15 0)
(1 1.82584e-15 0)
(1 -1.91758e-15 0)
(1 2.72187e-15 0)
(1 -1.67904e-15 0)
(1 1.64537e-15 0)
(1 -1.54525e-15 0)
(1 1.03274e-15 0)
(1 -5.09607e-16 0)
(1 3.58821e-15 0)
(1 -1.38134e-17 0)
(1 2.27676e-15 0)
(1 1.21114e-16 0)
(1 -1.37453e-15 0)
(1 -2.60177e-15 0)
(1 -4.04848e-15 0)
(1 -3.81213e-16 0)
(1 -2.30975e-15 0)
(1 -4.23811e-15 0)
(1 -5.30582e-15 0)
(1 1.37113e-15 0)
(1 2.43217e-15 0)
(1 5.17883e-15 0)
(1 5.7488e-15 0)
(1 3.13943e-15 0)
(1 -1.54379e-15 0)
(1 -3.28612e-15 0)
(1 2.56413e-16 0)
(1 -1.0786e-16 0)
(1 7.90421e-15 0)
(1 5.77239e-15 0)
(1 -2.44661e-15 0)
(1 -8.09844e-16 0)
(1 -4.88987e-16 0)
(1 -3.84288e-16 0)
(1 3.63601e-15 0)
(1 2.01235e-15 0)
(1 1.47723e-15 0)
(1 4.26542e-17 0)
(1 2.78831e-15 0)
(1 8.3129e-15 0)
(1 4.41502e-15 0)
(1 3.24065e-15 0)
(1 -3.41764e-15 0)
(1 1.32667e-15 0)
(1 -2.58905e-15 0)
(1 -3.08669e-16 0)
(1 -6.03087e-15 0)
(1 -3.69325e-15 0)
(1 -5.15197e-15 0)
(1 -1.9942e-15 0)
(1 -1.10774e-15 0)
(1 2.29317e-16 0)
(1 -1.4247e-15 0)
(1 4.75805e-15 0)
(1 -3.62071e-15 0)
(1 2.91514e-15 0)
(1 -2.87115e-15 0)
(1 -1.48687e-15 0)
(1 -3.1561e-15 0)
(1 2.32535e-15 0)
(1 4.14503e-15 0)
(1 5.08454e-15 0)
(1 4.51375e-15 0)
(1 3.13525e-15 0)
(1 -1.06482e-15 0)
(1 4.92066e-15 0)
(1 4.05789e-15 0)
(1 3.62837e-15 0)
(1 3.003e-15 0)
(1 1.56442e-15 0)
(1 1.66919e-15 0)
(1 1.7195e-15 0)
(1 2.09603e-15 0)
(1 3.61987e-15 0)
(1 1.06998e-15 0)
(1 -6.88876e-16 0)
(1 -4.90929e-15 0)
(1 -2.13232e-15 0)
(1 -1.17173e-15 0)
(1 6.09844e-16 0)
(1 1.26386e-15 0)
(1 8.4799e-16 0)
(1 -1.96388e-16 0)
(1 -1.51343e-15 0)
(1 -4.58154e-15 0)
(1 -3.54471e-15 0)
(1 -6.41133e-15 0)
(1 -5.23713e-15 0)
(1 -6.32815e-15 0)
(1 -4.58382e-15 0)
(1 6.36994e-16 0)
(1 2.47099e-15 0)
(1 6.23802e-16 0)
(1 1.58018e-15 0)
(1 -1.20965e-15 0)
(1 -2.83113e-15 0)
(1 -5.0965e-16 0)
(1 -2.00759e-15 0)
(1 -2.4012e-15 0)
(1 -2.34279e-16 0)
(1 1.12595e-15 0)
(1 6.04696e-15 0)
(1 3.39093e-15 0)
(1 2.8985e-15 0)
(1 2.8654e-15 0)
(1 3.0583e-17 0)
(1 3.18474e-15 0)
(1 5.34497e-16 0)
(1 2.97166e-15 0)
(1 1.62507e-16 0)
(1 -9.66277e-16 0)
(1 -1.97035e-15 0)
(1 -3.24261e-15 0)
(1 -6.29977e-15 0)
(1 -3.88626e-15 0)
(1 3.13867e-15 0)
(1 -2.9156e-15 0)
(1 4.59539e-15 0)
(1 -4.54563e-15 0)
(1 6.15691e-15 0)
(1 3.08696e-16 0)
(1 -2.24979e-15 0)
(1 -4.47807e-15 0)
(1 -1.20024e-15 0)
(1 5.50416e-16 0)
(1 4.77779e-15 0)
(1 4.08332e-15 0)
(1 1.13247e-15 0)
(1 -7.10106e-16 0)
(1 4.1346e-15 0)
(1 1.0532e-15 0)
(1 3.17204e-15 0)
(1 -1.57691e-15 0)
(1 -3.22096e-15 0)
(1 -2.59681e-15 0)
(1 8.09053e-16 0)
(1 2.00472e-15 0)
(1 2.91693e-15 0)
(1 1.88443e-15 0)
(1 1.32136e-15 0)
(1 -4.67919e-18 0)
(1 -2.54301e-15 0)
(1 1.53325e-15 0)
(1 1.40228e-15 0)
(1 -1.40513e-16 0)
(1 -1.53536e-15 0)
(1 -9.15172e-17 0)
(1 -4.47126e-15 0)
(1 2.84421e-15 0)
(1 -3.27182e-15 0)
(1 -4.61759e-15 0)
(1 -1.18566e-15 0)
(1 -4.66458e-15 0)
(1 -5.14542e-16 0)
(1 -7.41698e-16 0)
(1 2.02733e-15 0)
(1 -2.71935e-15 0)
(1 -4.57501e-15 0)
(1 -3.73486e-15 0)
(1 -3.51335e-15 0)
(1 2.95153e-15 0)
(1 4.20918e-16 0)
(1 8.00645e-15 0)
(1 5.67367e-15 0)
(1 4.44317e-15 0)
(1 1.95249e-15 0)
(1 3.50606e-16 0)
(1 -7.20857e-16 0)
(1 1.20654e-15 0)
(1 6.38855e-16 0)
(1 -1.54694e-15 0)
(1 1.18121e-15 0)
(1 2.02463e-16 0)
(1 1.87348e-15 0)
(1 3.502e-15 0)
(1 5.37132e-15 0)
(1 6.75177e-16 0)
(1 1.15462e-15 0)
(1 6.21444e-16 0)
(1 5.89821e-15 0)
(1 4.56429e-15 0)
(1 4.18327e-15 0)
(1 -2.54048e-16 0)
(1 -3.20434e-15 0)
(1 -2.14328e-15 0)
(1 -4.83845e-15 0)
(1 -3.6313e-15 0)
(1 7.53723e-16 0)
(1 -2.57286e-15 0)
(1 -3.10612e-15 0)
(1 -1.68534e-15 0)
(1 -1.11848e-15 0)
(1 2.15558e-16 0)
(1 -1.26487e-15 0)
(1 3.013e-15 0)
(1 -3.63805e-15 0)
(1 -1.60826e-15 0)
(1 -4.65573e-15 0)
(1 -1.83307e-15 0)
(1 2.39269e-15 0)
(1 1.72567e-15 0)
(1 5.58294e-15 0)
(1 2.3685e-15 0)
(1 4.81767e-15 0)
(1 -4.31539e-16 0)
(1 3.1609e-15 0)
(1 5.71528e-17 0)
(1 4.25874e-15 0)
(1 2.31992e-15 0)
(1 3.55182e-15 0)
(1 -1.34956e-15 0)
(1 -2.39113e-15 0)
(1 -2.3562e-15 0)
(1 -1.67759e-15 0)
(1 1.89741e-15 0)
(1 -6.5622e-16 0)
(1 2.10455e-15 0)
(1 6.37538e-15 0)
(1 5.06784e-15 0)
(1 -2.67708e-15 0)
(1 -4.77722e-15 0)
(1 -5.75898e-15 0)
(1 -4.09278e-15 0)
(1 -4.04825e-15 0)
(1 -6.21003e-16 0)
(1 4.93523e-15 0)
(1 9.98911e-15 0)
(1 6.88431e-15 0)
(1 -1.75245e-15 0)
(1 -1.02159e-16 0)
(1 -3.11594e-16 0)
(1 1.1203e-15 0)
(1 -2.0974e-15 0)
(1 -3.79943e-15 0)
(1 -7.76514e-15 0)
(1 3.5346e-16 0)
(1 6.79262e-15 0)
(1 1.15254e-14 0)
(1 4.21047e-15 0)
(1 -1.79353e-17 0)
(1 -1.73966e-15 0)
(1 -5.73281e-15 0)
(1 3.34705e-15 0)
(1 -5.14786e-15 0)
(1 2.40684e-15 0)
(1 -2.47204e-15 0)
(1 2.30488e-15 0)
(1 -1.59913e-16 0)
(1 4.63015e-15 0)
(1 -1.7801e-15 0)
(1 1.69059e-16 0)
(1 5.63692e-16 0)
(1 2.13489e-16 0)
(1 -4.51019e-15 0)
(1 -3.67219e-15 0)
(1 -4.4005e-15 0)
(1 -2.01576e-16 0)
(1 -1.76751e-15 0)
(1 4.53736e-16 0)
(1 2.83215e-15 0)
(1 3.2852e-15 0)
(1 3.14817e-15 0)
(1 4.59204e-15 0)
(1 3.64971e-15 0)
(1 2.81454e-15 0)
(1 -7.17706e-16 0)
(1 1.86848e-15 0)
(1 3.12618e-15 0)
(1 2.14442e-15 0)
(1 2.39469e-16 0)
(1 5.84881e-16 0)
(1 3.07008e-15 0)
(1 2.5569e-15 0)
(1 2.11875e-15 0)
(1 8.59607e-15 0)
(1 1.52756e-15 0)
(1 1.13315e-15 0)
(1 -2.60118e-15 0)
(1 1.65096e-17 0)
(1 3.34664e-15 0)
(1 4.97671e-15 0)
(1 6.55981e-15 0)
(1 3.95658e-15 0)
(1 4.00838e-15 0)
(1 5.51634e-15 0)
(1 5.18117e-15 0)
(1 2.08962e-15 0)
(1 -8.3739e-16 0)
(1 -2.85316e-15 0)
(1 -4.60574e-15 0)
(1 -5.063e-15 0)
(1 -3.40237e-15 0)
(1 -1.86005e-15 0)
(1 -3.48663e-15 0)
(1 -1.97826e-15 0)
(1 -1.28996e-15 0)
(1 1.19516e-15 0)
(1 -8.22761e-16 0)
(1 1.85555e-15 0)
(1 -4.23306e-15 0)
(1 -3.30073e-15 0)
(1 -1.81097e-15 0)
(1 -1.30185e-15 0)
(1 3.1044e-16 0)
(1 1.7697e-16 0)
(1 2.15134e-15 0)
(1 2.43579e-15 0)
(1 4.82143e-15 0)
(1 4.78885e-15 0)
(1 6.81369e-15 0)
(1 2.94362e-15 0)
(1 2.65862e-15 0)
(1 -8.45615e-16 0)
(1 4.99177e-15 0)
(1 5.7684e-15 0)
(1 -1.24037e-15 0)
(1 2.85576e-16 0)
(1 4.66022e-15 0)
(1 2.34305e-15 0)
(1 1.14812e-15 0)
(1 -2.66879e-15 0)
(1 4.55294e-15 0)
(1 4.57775e-15 0)
(1 4.40521e-16 0)
(1 6.52884e-16 0)
(1 -3.09e-15 0)
(1 3.16088e-15 0)
(1 -2.95672e-15 0)
(1 4.71865e-15 0)
(1 -4.44128e-15 0)
(1 2.78096e-15 0)
(1 -2.37903e-15 0)
(1 -1.1041e-15 0)
(1 -2.44761e-15 0)
(1 2.27787e-15 0)
(1 3.73465e-15 0)
(1 4.28402e-15 0)
(1 1.24152e-15 0)
(1 -5.16005e-15 0)
(1 -8.04897e-16 0)
(1 -4.30682e-15 0)
(1 1.36964e-15 0)
(1 -1.35697e-15 0)
(1 -1.05311e-16 0)
(1 6.31654e-16 0)
(1 9.79455e-16 0)
(1 2.57298e-15 0)
(1 4.48652e-15 0)
(1 -4.43806e-15 0)
(1 -3.75463e-15 0)
(1 6.30609e-16 0)
(1 -1.42949e-15 0)
(1 6.67623e-16 0)
(1 -4.56478e-15 0)
(1 3.46442e-15 0)
(1 1.4679e-15 0)
(1 5.46779e-15 0)
(1 3.03364e-15 0)
(1 1.82756e-15 0)
(1 2.13322e-15 0)
(1 1.82069e-15 0)
(1 1.78362e-15 0)
(1 -3.316e-15 0)
(1 3.21412e-15 0)
(1 2.67126e-16 0)
(1 -8.49727e-16 0)
(1 -1.09055e-15 0)
(1 2.49381e-15 0)
(1 7.34814e-16 0)
(1 7.82477e-16 0)
(1 7.92151e-16 0)
(1 4.41733e-15 0)
(1 4.30468e-15 0)
(1 4.11428e-15 0)
(1 4.86417e-15 0)
(1 3.58309e-15 0)
(1 4.71823e-15 0)
(1 2.19584e-15 0)
(1 2.73987e-15 0)
(1 -1.01238e-15 0)
(1 -1.18838e-15 0)
(1 -6.10133e-17 0)
(1 3.92577e-15 0)
(1 4.07586e-15 0)
(1 1.7592e-15 0)
(1 5.11514e-15 0)
(1 7.8124e-16 0)
(1 -3.80507e-15 0)
(1 -2.60614e-15 0)
(1 -1.88508e-15 0)
(1 4.28018e-15 0)
(1 4.27045e-16 0)
(1 3.34856e-15 0)
(1 -1.70318e-15 0)
(1 -4.53832e-15 0)
(1 -4.96881e-16 0)
(1 -4.11963e-16 0)
(1 6.30607e-16 0)
(1 3.80261e-16 0)
(1 -9.38306e-16 0)
(1 3.17827e-15 0)
(1 2.51238e-15 0)
(1 4.44024e-15 0)
(1 1.40635e-15 0)
(1 2.08424e-15 0)
(1 1.00058e-15 0)
(1 4.79047e-15 0)
(1 5.11504e-15 0)
(1 5.73034e-15 0)
(1 3.0462e-15 0)
(1 7.73867e-15 0)
(1 6.8384e-15 0)
(1 5.61473e-15 0)
(1 4.99721e-15 0)
(1 4.30271e-15 0)
(1 9.61646e-16 0)
(1 -2.26476e-15 0)
(1 -4.9903e-15 0)
(1 -1.83102e-15 0)
(1 5.05972e-15 0)
(1 2.90976e-15 0)
(1 3.52137e-15 0)
(1 3.99298e-15 0)
(1 4.21203e-15 0)
(1 3.88993e-15 0)
(1 -1.70753e-15 0)
(1 -2.14798e-15 0)
(1 -1.07732e-15 0)
(1 5.27011e-15 0)
(1 -7.05012e-16 0)
(1 6.3938e-15 0)
(1 3.01898e-16 0)
(1 6.98817e-15 0)
(1 -8.37468e-16 0)
(1 5.38367e-15 0)
(1 -7.75606e-16 0)
(1 -4.80313e-15 0)
(1 -7.60765e-15 0)
(1 -1.32261e-14 0)
(1 -1.25408e-14 0)
(1 -8.5766e-15 0)
(1 2.07616e-15 0)
(1 -5.79494e-17 0)
(1 1.23415e-14 0)
(1 5.65695e-15 0)
(1 7.34106e-15 0)
(1 -5.53371e-16 0)
(1 -7.57024e-16 0)
(1 -4.57373e-15 0)
(1 -4.92387e-15 0)
(1 -3.42472e-15 0)
(1 -4.27477e-15 0)
(1 6.85705e-16 0)
(1 6.39492e-15 0)
(1 9.22712e-15 0)
(1 4.47445e-16 0)
(1 -5.11605e-15 0)
(1 -5.5223e-15 0)
(1 -6.13818e-15 0)
(1 -2.74964e-15 0)
(1 3.50802e-15 0)
(1 6.33892e-15 0)
(1 3.10252e-15 0)
(1 5.15675e-15 0)
(1 3.14456e-15 0)
(1 5.36562e-15 0)
(1 -1.91681e-15 0)
(1 5.12326e-17 0)
(1 4.03299e-15 0)
(1 7.98479e-15 0)
(1 6.08445e-15 0)
(1 2.27717e-15 0)
(1 1.44234e-15 0)
(1 1.15319e-15 0)
(1 -3.06644e-15 0)
(1 2.34405e-18 0)
(1 7.6104e-15 0)
(1 9.50693e-15 0)
(1 9.32573e-15 0)
(1 7.58045e-16 0)
(1 6.82235e-16 0)
(1 3.93255e-15 0)
(1 3.21512e-15 0)
(1 3.3663e-15 0)
(1 2.54766e-15 0)
(1 1.93963e-15 0)
(1 1.07147e-15 0)
(1 8.96675e-16 0)
(1 -1.68817e-15 0)
(1 4.56817e-16 0)
(1 1.13861e-15 0)
(1 -1.25652e-15 0)
(1 -2.45715e-15 0)
(1 -4.19704e-15 0)
(1 -4.72202e-15 0)
(1 5.008e-16 0)
(1 -3.15771e-15 0)
(1 -6.35495e-16 0)
(1 -1.83465e-15 0)
(1 1.65867e-15 0)
(1 3.69646e-15 0)
(1 3.24712e-15 0)
(1 8.34679e-16 0)
(1 2.14937e-15 0)
(1 -6.61012e-16 0)
(1 2.05479e-15 0)
(1 3.96131e-15 0)
(1 6.00192e-15 0)
(1 6.67711e-15 0)
(1 6.23069e-15 0)
(1 7.39993e-15 0)
(1 4.1439e-15 0)
(1 7.14464e-15 0)
(1 6.90353e-15 0)
(1 9.78556e-15 0)
(1 -5.53417e-17 0)
(1 -5.78868e-15 0)
(1 -3.78439e-15 0)
(1 -1.42856e-15 0)
(1 -1.59666e-16 0)
(1 7.43014e-15 0)
(1 1.45193e-15 0)
(1 5.77405e-15 0)
(1 1.59981e-15 0)
(1 -2.81491e-15 0)
(1 -4.922e-16 0)
(1 -2.83777e-15 0)
(1 1.875e-15 0)
(1 4.27452e-15 0)
(1 2.89862e-15 0)
(1 1.46234e-15 0)
(1 -4.30844e-15 0)
(1 2.00769e-15 0)
(1 1.09911e-15 0)
(1 -3.13911e-16 0)
(1 -4.81488e-15 0)
(1 -2.88899e-15 0)
(1 1.42779e-15 0)
(1 4.67371e-15 0)
(1 -1.41709e-15 0)
(1 -1.49568e-15 0)
(1 -1.05787e-15 0)
(1 1.95899e-15 0)
(1 2.47458e-15 0)
(1 2.45182e-15 0)
(1 -3.1049e-16 0)
(1 -7.97781e-15 0)
(1 -1.07247e-14 0)
(1 -7.50706e-15 0)
(1 -2.07476e-15 0)
(1 -2.01143e-16 0)
(1 1.17354e-15 0)
(1 4.55735e-15 0)
(1 3.00714e-15 0)
(1 1.68738e-15 0)
(1 -6.621e-15 0)
(1 -5.45139e-15 0)
(1 -3.05356e-15 0)
(1 2.2126e-16 0)
(1 7.89653e-15 0)
(1 3.28655e-15 0)
(1 7.01081e-15 0)
(1 2.1558e-15 0)
(1 -5.45379e-16 0)
(1 3.06456e-15 0)
(1 4.00977e-15 0)
(1 7.20504e-15 0)
(1 3.30607e-15 0)
(1 9.23197e-15 0)
(1 8.90289e-15 0)
(1 6.18568e-15 0)
(1 2.24798e-15 0)
(1 -3.16647e-15 0)
(1 5.10151e-15 0)
(1 -2.66935e-16 0)
(1 1.98842e-15 0)
(1 -6.12836e-16 0)
(1 3.16087e-15 0)
(1 4.409e-15 0)
(1 -2.83851e-15 0)
(1 1.85604e-15 0)
(1 3.62908e-15 0)
(1 8.15762e-15 0)
(1 1.34163e-14 0)
(1 1.11623e-14 0)
(1 1.02839e-14 0)
(1 5.08578e-15 0)
(1 6.07094e-15 0)
(1 5.26671e-16 0)
(1 8.90892e-16 0)
(1 -1.30994e-15 0)
(1 -3.445e-16 0)
(1 4.59574e-16 0)
(1 1.55441e-15 0)
(1 6.29876e-16 0)
(1 1.39476e-15 0)
(1 -2.26609e-15 0)
(1 -6.83666e-16 0)
(1 -2.66808e-15 0)
(1 -3.58765e-15 0)
(1 -4.87911e-15 0)
(1 -4.7769e-15 0)
(1 -2.7918e-15 0)
(1 1.33469e-15 0)
(1 8.21441e-16 0)
(1 1.00493e-15 0)
(1 4.20384e-15 0)
(1 6.0029e-15 0)
(1 9.59293e-15 0)
(1 1.07165e-14 0)
(1 1.11997e-14 0)
(1 1.1149e-14 0)
(1 1.23877e-14 0)
(1 1.48486e-14 0)
(1 1.652e-14 0)
(1 -3.61468e-16 0)
(1 6.26398e-16 0)
(1 5.61328e-15 0)
(1 1.60846e-16 0)
(1 -5.97662e-16 0)
(1 -3.40292e-15 0)
(1 1.42986e-15 0)
(1 -3.09173e-16 0)
(1 3.26118e-15 0)
(1 -4.2681e-15 0)
(1 -1.95662e-16 0)
(1 1.85327e-15 0)
(1 4.04732e-15 0)
(1 3.24047e-15 0)
(1 4.36684e-15 0)
(1 -7.50916e-16 0)
(1 -4.66837e-15 0)
(1 7.75024e-16 0)
(1 2.55491e-15 0)
(1 3.33019e-15 0)
(1 -5.40694e-15 0)
(1 -9.88279e-15 0)
(1 -8.97994e-15 0)
(1 3.40106e-15 0)
(1 1.97406e-15 0)
(1 5.25621e-15 0)
(1 7.09827e-16 0)
(1 6.20178e-15 0)
(1 -8.59051e-16 0)
(1 -1.96639e-16 0)
(1 -4.25866e-15 0)
(1 1.19582e-15 0)
(1 -3.28159e-15 0)
(1 -2.34922e-15 0)
(1 -2.71149e-15 0)
(1 -2.59834e-15 0)
(1 -2.36191e-15 0)
(1 9.15483e-16 0)
(1 -3.46528e-15 0)
(1 -3.41531e-15 0)
(1 -4.67493e-16 0)
(1 2.77964e-15 0)
(1 4.53456e-15 0)
(1 2.65492e-15 0)
(1 2.99096e-15 0)
(1 -3.91955e-15 0)
(1 -6.11582e-16 0)
(1 1.02705e-15 0)
(1 -1.88318e-15 0)
(1 4.92965e-15 0)
(1 -1.3462e-16 0)
(1 2.75895e-15 0)
(1 7.0017e-15 0)
(1 5.86083e-15 0)
(1 7.57144e-15 0)
(1 8.93469e-15 0)
(1 4.28931e-15 0)
(1 -9.97072e-16 0)
(1 2.43332e-15 0)
(1 8.0559e-15 0)
(1 6.7228e-15 0)
(1 3.82995e-15 0)
(1 1.54552e-15 0)
(1 3.60493e-16 0)
(1 3.6918e-15 0)
(1 2.90903e-15 0)
(1 6.82247e-15 0)
(1 1.02027e-14 0)
(1 1.42247e-14 0)
(1 1.1548e-14 0)
(1 5.39482e-15 0)
(1 2.73517e-15 0)
(1 9.35977e-16 0)
(1 5.11556e-16 0)
(1 1.35374e-15 0)
(1 -6.44198e-16 0)
(1 2.62087e-15 0)
(1 -4.22164e-16 0)
(1 3.06784e-15 0)
(1 -1.24478e-15 0)
(1 -2.2881e-16 0)
(1 -3.23289e-15 0)
(1 -2.83088e-15 0)
(1 -2.36048e-15 0)
(1 -2.71621e-15 0)
(1 7.54803e-16 0)
(1 2.02044e-15 0)
(1 5.25469e-15 0)
(1 1.52986e-15 0)
(1 5.50727e-17 0)
(1 4.36738e-15 0)
(1 2.53629e-15 0)
(1 5.49565e-15 0)
(1 5.18921e-15 0)
(1 1.35877e-14 0)
(1 6.9171e-15 0)
(1 1.05152e-14 0)
(1 1.13161e-14 0)
(1 1.98084e-14 0)
(1 1.80213e-14 0)
(1 -1.3995e-16 0)
(1 1.94865e-15 0)
(1 1.19355e-15 0)
(1 -1.86525e-15 0)
(1 -4.04243e-15 0)
(1 -7.43906e-15 0)
(1 -1.89406e-16 0)
(1 -6.41831e-15 0)
(1 3.61309e-15 0)
(1 7.80209e-15 0)
(1 3.16696e-15 0)
(1 -1.70924e-15 0)
(1 1.23415e-15 0)
(1 -2.72269e-15 0)
(1 6.71869e-16 0)
(1 -5.6354e-16 0)
(1 7.8192e-15 0)
(1 5.77913e-15 0)
(1 5.14084e-15 0)
(1 1.54184e-15 0)
(1 -5.66344e-15 0)
(1 -9.03825e-15 0)
(1 -1.38417e-14 0)
(1 -6.98313e-15 0)
(1 -6.3551e-15 0)
(1 3.21171e-15 0)
(1 2.98416e-15 0)
(1 3.53206e-15 0)
(1 -6.38628e-16 0)
(1 -2.59136e-15 0)
(1 -6.41899e-15 0)
(1 1.73819e-15 0)
(1 -6.43782e-17 0)
(1 4.04172e-16 0)
(1 -3.62505e-15 0)
(1 -3.76403e-15 0)
(1 1.43715e-16 0)
(1 -2.98885e-15 0)
(1 -3.78238e-15 0)
(1 -6.15737e-15 0)
(1 6.92463e-16 0)
(1 4.15349e-15 0)
(1 4.84941e-15 0)
(1 2.51324e-15 0)
(1 1.21582e-15 0)
(1 -5.39865e-16 0)
(1 2.89171e-15 0)
(1 2.65926e-15 0)
(1 3.51127e-15 0)
(1 3.30617e-15 0)
(1 7.03547e-15 0)
(1 4.66514e-15 0)
(1 7.8413e-15 0)
(1 5.59244e-15 0)
(1 4.55231e-15 0)
(1 2.52962e-15 0)
(1 7.32396e-16 0)
(1 9.43297e-16 0)
(1 1.2211e-15 0)
(1 3.28202e-15 0)
(1 5.82946e-15 0)
(1 6.26098e-15 0)
(1 3.05516e-15 0)
(1 3.49419e-15 0)
(1 8.1733e-15 0)
(1 5.49351e-15 0)
(1 5.7809e-15 0)
(1 4.66577e-15 0)
(1 3.31416e-16 0)
(1 5.40503e-15 0)
(1 5.17694e-15 0)
(1 1.14661e-14 0)
(1 3.83594e-15 0)
(1 -1.28757e-15 0)
(1 -1.68988e-16 0)
(1 -2.48395e-15 0)
(1 7.57688e-15 0)
(1 3.36175e-15 0)
(1 2.94144e-15 0)
(1 4.57958e-15 0)
(1 1.9152e-15 0)
(1 2.14001e-15 0)
(1 1.56847e-15 0)
(1 -1.90405e-15 0)
(1 -4.21737e-15 0)
(1 -4.88675e-15 0)
(1 7.09584e-16 0)
(1 -2.64076e-15 0)
(1 -8.93543e-16 0)
(1 -4.45252e-16 0)
(1 7.79815e-15 0)
(1 9.05471e-16 0)
(1 6.47171e-15 0)
(1 4.24905e-15 0)
(1 1.03581e-14 0)
(1 6.39156e-15 0)
(1 8.28531e-15 0)
(1 8.87875e-15 0)
(1 1.35715e-14 0)
(1 1.2842e-14 0)
(1 1.00953e-15 0)
(1 -1.48376e-16 0)
(1 -1.03621e-15 0)
(1 1.77975e-15 0)
(1 -5.23642e-15 0)
(1 2.73346e-15 0)
(1 -4.82566e-15 0)
(1 7.72723e-16 0)
(1 -4.48837e-15 0)
(1 3.68382e-15 0)
(1 5.54277e-15 0)
(1 2.48332e-15 0)
(1 3.11889e-15 0)
(1 1.25984e-15 0)
(1 2.12877e-15 0)
(1 -4.6981e-15 0)
(1 2.97146e-15 0)
(1 -6.55044e-15 0)
(1 2.41001e-15 0)
(1 -9.76714e-15 0)
(1 -3.76771e-15 0)
(1 4.07782e-16 0)
(1 4.363e-15 0)
(1 2.5065e-15 0)
(1 5.34218e-15 0)
(1 5.53355e-16 0)
(1 3.64259e-15 0)
(1 1.66844e-15 0)
(1 1.19468e-16 0)
(1 -3.46748e-15 0)
(1 -4.36907e-15 0)
(1 -6.00557e-15 0)
(1 -5.7504e-15 0)
(1 -5.26069e-15 0)
(1 -3.48524e-15 0)
(1 -3.12656e-15 0)
(1 -1.4055e-15 0)
(1 -3.05392e-15 0)
(1 -1.68071e-15 0)
(1 -5.06985e-16 0)
(1 3.79961e-15 0)
(1 5.62352e-15 0)
(1 2.28704e-15 0)
(1 4.7567e-15 0)
(1 -1.25517e-15 0)
(1 4.62687e-16 0)
(1 3.26236e-15 0)
(1 2.33153e-16 0)
(1 7.87011e-15 0)
(1 3.30281e-15 0)
(1 4.96941e-15 0)
(1 3.78592e-15 0)
(1 2.10652e-15 0)
(1 4.09876e-15 0)
(1 4.57436e-15 0)
(1 -4.93105e-15 0)
(1 -1.03161e-15 0)
(1 2.40141e-15 0)
(1 6.24324e-15 0)
(1 1.98569e-15 0)
(1 8.3749e-15 0)
(1 6.3779e-15 0)
(1 1.00936e-14 0)
(1 5.75996e-15 0)
(1 9.94667e-15 0)
(1 6.48311e-15 0)
(1 1.47792e-15 0)
(1 3.25487e-15 0)
(1 -1.39434e-15 0)
(1 2.05063e-15 0)
(1 9.38021e-15 0)
(1 9.65898e-15 0)
(1 6.72016e-17 0)
(1 -1.98778e-15 0)
(1 -2.28887e-15 0)
(1 -2.7235e-15 0)
(1 -1.38471e-15 0)
(1 -3.57823e-16 0)
(1 1.37584e-15 0)
(1 8.25099e-15 0)
(1 3.02578e-15 0)
(1 6.62522e-15 0)
(1 5.73219e-15 0)
(1 5.52784e-16 0)
(1 -3.56334e-16 0)
(1 -5.7503e-15 0)
(1 -2.29508e-15 0)
(1 -4.18494e-15 0)
(1 2.84451e-15 0)
(1 4.33262e-15 0)
(1 1.95393e-15 0)
(1 3.75893e-16 0)
(1 4.1919e-15 0)
(1 6.29685e-15 0)
(1 5.58789e-15 0)
(1 1.14538e-14 0)
(1 1.17351e-14 0)
(1 1.15075e-14 0)
(1 6.7896e-15 0)
(1 6.26703e-15 0)
(1 4.66681e-16 0)
(1 2.38709e-15 0)
(1 -5.0686e-15 0)
(1 -3.20705e-15 0)
(1 -2.34995e-15 0)
(1 -2.89963e-15 0)
(1 -4.54248e-15 0)
(1 2.2866e-15 0)
(1 -3.07926e-15 0)
(1 4.34687e-15 0)
(1 5.17533e-15 0)
(1 3.84691e-15 0)
(1 -3.30639e-15 0)
(1 -4.6754e-16 0)
(1 -1.44154e-15 0)
(1 6.41177e-16 0)
(1 -5.04584e-16 0)
(1 9.54886e-15 0)
(1 9.9942e-15 0)
(1 7.37749e-15 0)
(1 2.31849e-15 0)
(1 -5.48085e-15 0)
(1 -1.43859e-14 0)
(1 -1.4239e-14 0)
(1 -5.67817e-15 0)
(1 -1.12626e-15 0)
(1 -6.84113e-16 0)
(1 1.39772e-15 0)
(1 4.23595e-15 0)
(1 -1.54311e-15 0)
(1 -5.17358e-15 0)
(1 -9.53961e-15 0)
(1 -6.24674e-15 0)
(1 -7.58821e-15 0)
(1 2.51815e-15 0)
(1 -1.76341e-15 0)
(1 1.14217e-15 0)
(1 -3.78093e-15 0)
(1 2.37199e-16 0)
(1 4.71656e-15 0)
(1 6.46714e-15 0)
(1 1.90055e-15 0)
(1 -2.04873e-15 0)
(1 1.96125e-15 0)
(1 -9.75939e-16 0)
(1 7.14218e-15 0)
(1 4.63097e-15 0)
(1 9.61744e-15 0)
(1 7.7449e-15 0)
(1 4.56355e-15 0)
(1 2.35783e-15 0)
(1 -1.32167e-16 0)
(1 5.65769e-16 0)
(1 1.46807e-15 0)
(1 2.07626e-15 0)
(1 3.57609e-15 0)
(1 5.40096e-16 0)
(1 3.34101e-15 0)
(1 -4.24308e-15 0)
(1 -1.16392e-15 0)
(1 -4.42259e-15 0)
(1 1.83229e-15 0)
(1 5.71713e-15 0)
(1 9.70333e-15 0)
(1 1.37108e-14 0)
(1 1.25181e-14 0)
(1 8.08342e-15 0)
(1 3.39164e-15 0)
(1 2.0917e-15 0)
(1 -7.90587e-16 0)
(1 -4.42522e-15 0)
(1 -3.04196e-15 0)
(1 2.69151e-15 0)
(1 6.08021e-15 0)
(1 2.35209e-15 0)
(1 2.58909e-15 0)
(1 -6.49097e-15 0)
(1 -2.13303e-15 0)
(1 6.44429e-16 0)
(1 2.20566e-16 0)
(1 5.85385e-16 0)
(1 4.15192e-15 0)
(1 2.14558e-15 0)
(1 2.90573e-15 0)
(1 2.6443e-15 0)
(1 2.68783e-15 0)
(1 8.09232e-17 0)
(1 3.82784e-15 0)
(1 3.29742e-15 0)
(1 3.04305e-15 0)
(1 4.99513e-16 0)
(1 1.79599e-15 0)
(1 1.4368e-16 0)
(1 2.70593e-15 0)
(1 3.04225e-15 0)
(1 6.84865e-15 0)
(1 5.78928e-15 0)
(1 6.23414e-15 0)
(1 3.77083e-15 0)
(1 3.72116e-15 0)
(1 3.7361e-17 0)
(1 2.32876e-16 0)
(1 5.70096e-16 0)
(1 -6.10968e-15 0)
(1 -1.49563e-15 0)
(1 -5.66761e-15 0)
(1 -1.69664e-15 0)
(1 -4.58864e-16 0)
(1 8.06984e-15 0)
(1 1.04031e-14 0)
(1 4.26861e-15 0)
(1 -1.12673e-15 0)
(1 -7.06372e-15 0)
(1 -6.00277e-15 0)
(1 -3.02186e-15 0)
(1 7.83916e-15 0)
(1 -1.44715e-16 0)
(1 5.40281e-15 0)
(1 -5.20463e-15 0)
(1 2.36534e-15 0)
(1 -3.76947e-15 0)
(1 3.86598e-15 0)
(1 -1.11328e-14 0)
(1 -3.75083e-15 0)
(1 -4.85742e-15 0)
(1 5.89152e-15 0)
(1 1.06918e-16 0)
(1 -1.36857e-15 0)
(1 -5.12972e-16 0)
(1 -3.36795e-15 0)
(1 -5.75444e-15 0)
(1 -1.33849e-14 0)
(1 -8.66386e-15 0)
(1 -8.52108e-15 0)
(1 -5.3144e-16 0)
(1 7.28465e-15 0)
(1 7.21768e-15 0)
(1 5.38601e-16 0)
(1 1.10975e-15 0)
(1 -2.21361e-15 0)
(1 -2.09362e-15 0)
(1 -2.58578e-16 0)
(1 4.13418e-15 0)
(1 1.60004e-15 0)
(1 9.26845e-15 0)
(1 8.98102e-15 0)
(1 3.47703e-15 0)
(1 6.41014e-15 0)
(1 1.40882e-16 0)
(1 -1.66188e-15 0)
(1 -6.44811e-15 0)
(1 -3.74431e-15 0)
(1 2.87733e-15 0)
(1 7.3533e-15 0)
(1 8.18676e-16 0)
(1 1.13688e-14 0)
(1 5.47689e-15 0)
(1 5.85125e-15 0)
(1 -6.41125e-16 0)
(1 6.18156e-15 0)
(1 -1.16857e-16 0)
(1 1.91875e-15 0)
(1 3.36585e-16 0)
(1 9.91365e-15 0)
(1 3.58626e-15 0)
(1 1.02416e-14 0)
(1 1.0854e-14 0)
(1 7.01443e-15 0)
(1 3.52825e-15 0)
(1 5.03611e-16 0)
(1 -6.88869e-15 0)
(1 3.14787e-15 0)
(1 2.61944e-15 0)
(1 8.15802e-15 0)
(1 8.76853e-16 0)
(1 4.86302e-15 0)
(1 1.1584e-15 0)
(1 7.41161e-15 0)
(1 4.11501e-15 0)
(1 -9.26789e-16 0)
(1 1.67667e-15 0)
(1 -4.67203e-16 0)
(1 -3.063e-15 0)
(1 5.74023e-16 0)
(1 1.20696e-15 0)
(1 5.68707e-15 0)
(1 -1.04447e-16 0)
(1 4.64925e-15 0)
(1 9.25064e-16 0)
(1 3.06805e-15 0)
(1 5.33401e-15 0)
(1 4.37909e-15 0)
(1 -2.88935e-16 0)
(1 1.83494e-15 0)
(1 1.06972e-15 0)
(1 5.46674e-15 0)
(1 5.49325e-15 0)
(1 7.76305e-15 0)
(1 4.97069e-15 0)
(1 5.29653e-15 0)
(1 -2.62297e-17 0)
(1 6.77493e-16 0)
(1 -3.15394e-15 0)
(1 -3.61828e-15 0)
(1 -1.69027e-15 0)
(1 -3.46038e-16 0)
(1 -3.11507e-15 0)
(1 -6.46124e-15 0)
(1 2.81984e-15 0)
(1 -1.92077e-15 0)
(1 6.22048e-15 0)
(1 5.17181e-15 0)
(1 6.90725e-15 0)
(1 -5.59605e-16 0)
(1 2.96052e-15 0)
(1 1.83108e-15 0)
(1 -3.32189e-15 0)
(1 -8.39901e-15 0)
(1 -8.66968e-15 0)
(1 -3.10449e-15 0)
(1 5.36677e-16 0)
(1 2.34112e-15 0)
(1 6.93433e-15 0)
(1 3.24544e-15 0)
(1 -9.86195e-16 0)
(1 -2.7505e-15 0)
(1 -2.05484e-15 0)
(1 -4.89159e-15 0)
(1 -4.89128e-15 0)
(1 -5.54707e-15 0)
(1 -3.99657e-15 0)
(1 -3.37956e-15 0)
(1 -1.58131e-15 0)
(1 -1.3033e-15 0)
(1 -1.0522e-15 0)
(1 2.82436e-15 0)
(1 6.81944e-16 0)
(1 9.19027e-16 0)
(1 1.19309e-15 0)
(1 -4.68235e-15 0)
(1 -6.30258e-15 0)
(1 3.42545e-16 0)
(1 4.29965e-15 0)
(1 2.45466e-15 0)
(1 4.79782e-15 0)
(1 4.20199e-15 0)
(1 2.51763e-15 0)
(1 -2.89007e-15 0)
(1 -3.35788e-15 0)
(1 4.58172e-16 0)
(1 1.39049e-15 0)
(1 6.45239e-15 0)
(1 7.70514e-15 0)
(1 1.12833e-14 0)
(1 8.92163e-15 0)
(1 8.70868e-15 0)
(1 5.21508e-15 0)
(1 5.17545e-15 0)
(1 2.02697e-15 0)
(1 7.82311e-16 0)
(1 3.5481e-15 0)
(1 2.3051e-15 0)
(1 5.92295e-15 0)
(1 3.60113e-15 0)
(1 7.33757e-15 0)
(1 6.46682e-15 0)
(1 9.39799e-15 0)
(1 8.36938e-15 0)
(1 1.11538e-14 0)
(1 6.88828e-15 0)
(1 7.01928e-15 0)
(1 8.27278e-16 0)
(1 -2.71459e-15 0)
(1 1.18347e-15 0)
(1 1.09026e-15 0)
(1 3.69381e-15 0)
(1 3.4288e-15 0)
(1 3.83015e-15 0)
(1 6.62748e-17 0)
(1 -9.78132e-16 0)
(1 3.97892e-15 0)
(1 -5.84519e-16 0)
(1 -2.82568e-15 0)
(1 1.61714e-16 0)
(1 2.477e-15 0)
(1 2.95613e-15 0)
(1 8.07423e-16 0)
(1 1.82947e-15 0)
(1 3.32427e-16 0)
(1 1.62526e-15 0)
(1 8.81796e-16 0)
(1 3.77442e-16 0)
(1 3.06977e-15 0)
(1 2.63867e-15 0)
(1 2.83074e-15 0)
(1 7.96712e-16 0)
(1 2.09511e-15 0)
(1 7.34404e-15 0)
(1 8.34332e-15 0)
(1 9.50081e-15 0)
(1 -1.47865e-15 0)
(1 -9.47609e-16 0)
(1 -3.06627e-15 0)
(1 -1.83405e-15 0)
(1 7.4328e-15 0)
(1 4.90416e-15 0)
(1 8.67128e-15 0)
(1 3.96366e-15 0)
(1 -2.09598e-15 0)
(1 -8.89844e-15 0)
(1 -4.01639e-15 0)
(1 -4.44277e-15 0)
(1 4.61662e-15 0)
(1 -6.94545e-16 0)
(1 -1.06743e-15 0)
(1 -9.04646e-15 0)
(1 5.28339e-16 0)
(1 2.17454e-15 0)
(1 2.58742e-15 0)
(1 -6.97712e-15 0)
(1 -3.52181e-15 0)
(1 -8.49092e-15 0)
(1 8.46606e-15 0)
(1 -1.79968e-15 0)
(1 -2.14459e-15 0)
(1 -8.4007e-15 0)
(1 -6.91981e-15 0)
(1 -7.33398e-15 0)
(1 -1.08902e-14 0)
(1 -6.61578e-15 0)
(1 -5.92396e-15 0)
(1 2.53468e-15 0)
(1 -6.70747e-16 0)
(1 3.84837e-15 0)
(1 4.15999e-16 0)
(1 5.47136e-16 0)
(1 -2.53108e-16 0)
(1 -1.33806e-15 0)
(1 -2.35285e-15 0)
(1 -1.25665e-15 0)
(1 -3.52901e-15 0)
(1 -6.47921e-16 0)
(1 5.18862e-15 0)
(1 1.02332e-14 0)
(1 5.42236e-15 0)
(1 4.21093e-15 0)
(1 2.87415e-15 0)
(1 -8.42171e-16 0)
(1 -3.82558e-15 0)
(1 -4.57637e-15 0)
(1 8.5404e-15 0)
(1 1.18911e-14 0)
(1 8.78244e-15 0)
(1 4.52552e-15 0)
(1 7.68307e-15 0)
(1 1.57603e-15 0)
(1 2.21578e-15 0)
(1 1.9289e-15 0)
(1 8.02986e-16 0)
(1 -4.66499e-15 0)
(1 1.61787e-15 0)
(1 4.46758e-15 0)
(1 3.68506e-15 0)
(1 2.30322e-15 0)
(1 6.49446e-15 0)
(1 -6.4153e-16 0)
(1 9.28431e-17 0)
(1 1.34167e-15 0)
(1 5.78786e-15 0)
(1 4.91731e-15 0)
(1 6.89492e-15 0)
(1 -1.17809e-15 0)
(1 3.733e-15 0)
(1 3.59076e-15 0)
(1 3.68547e-15 0)
(1 3.50373e-15 0)
(1 2.77098e-15 0)
(1 4.65275e-15 0)
(1 4.82381e-16 0)
(1 6.36213e-15 0)
(1 -2.56639e-15 0)
(1 1.01956e-15 0)
(1 -2.78917e-17 0)
(1 3.0719e-15 0)
(1 2.77265e-15 0)
(1 7.29836e-17 0)
(1 2.05036e-16 0)
(1 7.24266e-16 0)
(1 2.55917e-16 0)
(1 -2.88713e-17 0)
(1 -2.62632e-15 0)
(1 -9.38816e-16 0)