/*--------------------------------*- C++ -*----------------------------------*\
| =========                 |                                                 |
| \\      /  F ield         | OpenFOAM: The Open Source CFD Toolbox           |
|  \\    /   O peration     | Version:  v2012                                 |
|   \\  /    A nd           | Website:  www.openfoam.com                      |
|    \\/     M anipulation  |                                                 |
\*---------------------------------------------------------------------------*/
FoamFile
{
    version     2.0;
    format      ascii;
    class       volVectorField;
    location    "70";
    object      Usup;
}
// * * * * * * * * * * * * * * * * * * * * * * * * * * * * * * * * * * * * * //

dimensions      [0 1 -1 0 0 0 0];


internalField   nonuniform List<vector> 
4000
(
(-3.23367e-16 -2.00506e-16 0)
(-6.28827e-16 -3.77954e-16 0)
(-5.15657e-16 -6.18929e-16 0)
(-3.23607e-16 -1.19992e-15 0)
(-5.15819e-16 -1.59911e-15 0)
(-1.4302e-15 -1.6216e-15 0)
(-1.68046e-15 -1.22377e-15 0)
(-1.25455e-15 -1.53024e-15 0)
(-1.06188e-15 -2.07764e-15 0)
(-7.892e-16 -2.57565e-15 0)
(-6.60473e-16 -2.90965e-15 0)
(-1.15327e-15 -3.16232e-15 0)
(-1.93211e-15 -2.95158e-15 0)
(-2.2116e-15 -2.59533e-15 0)
(-2.34652e-15 -2.83398e-15 0)
(-2.81561e-15 -3.16929e-15 0)
(-3.284e-15 -3.18614e-15 0)
(-3.56147e-15 -3.27563e-15 0)
(-3.85424e-15 -3.36205e-15 0)
(-3.66186e-15 -3.22523e-15 0)
(-3.3092e-15 -3.43262e-15 0)
(-3.02196e-15 -3.53867e-15 0)
(-2.40616e-15 -3.90601e-15 0)
(-2.09034e-15 -4.19532e-15 0)
(-2.12822e-15 -3.88235e-15 0)
(-1.88899e-15 -3.42852e-15 0)
(-1.42974e-15 -3.45338e-15 0)
(-1.13685e-15 -3.59863e-15 0)
(-9.12952e-16 -3.70213e-15 0)
(-1.00805e-15 -3.92549e-15 0)
(-1.23746e-15 -3.64437e-15 0)
(-8.19092e-16 -3.46461e-15 0)
(-4.61315e-16 -3.79846e-15 0)
(-9.43983e-16 -4.13693e-15 0)
(-1.35909e-15 -3.68628e-15 0)
(-1.43287e-15 -3.68054e-15 0)
(-1.63e-15 -3.54859e-15 0)
(-1.75643e-15 -3.22148e-15 0)
(-1.31829e-15 -3.01556e-15 0)
(7.78436e-17 -3.0593e-15 0)
(1.31203e-15 -3.53403e-15 0)
(1.56902e-15 -3.71111e-15 0)
(1.6762e-15 -3.82868e-15 0)
(1.45297e-15 -3.87249e-15 0)
(1.07082e-15 -3.85346e-15 0)
(1.51567e-15 -3.64736e-15 0)
(2.01503e-15 -3.69094e-15 0)
(2.27489e-15 -3.68252e-15 0)
(2.54174e-15 -3.48115e-15 0)
(2.77893e-15 -3.39781e-15 0)
(2.79093e-15 -3.602e-15 0)
(2.64487e-15 -3.40953e-15 0)
(2.6741e-15 -3.30441e-15 0)
(2.53923e-15 -3.42935e-15 0)
(2.31242e-15 -3.51598e-15 0)
(2.39433e-15 -3.44204e-15 0)
(2.69151e-15 -3.54328e-15 0)
(2.70357e-15 -3.52051e-15 0)
(2.68924e-15 -3.50434e-15 0)
(2.49251e-15 -3.76395e-15 0)
(1.97228e-15 -3.76026e-15 0)
(1.36742e-15 -3.61383e-15 0)
(1.3451e-15 -3.48899e-15 0)
(1.69548e-15 -3.51287e-15 0)
(1.6647e-15 -3.4137e-15 0)
(1.45443e-15 -3.51486e-15 0)
(1.24921e-15 -3.67337e-15 0)
(1.4281e-15 -3.39763e-15 0)
(1.64157e-15 -3.38791e-15 0)
(1.68763e-15 -3.28869e-15 0)
(1.54287e-15 -3.22046e-15 0)
(9.0962e-16 -3.12539e-15 0)
(5.95847e-16 -2.67923e-15 0)
(1.12436e-15 -2.34004e-15 0)
(1.71353e-15 -2.34803e-15 0)
(1.60052e-15 -2.53209e-15 0)
(9.25414e-16 -2.62418e-15 0)
(6.04534e-16 -2.17306e-15 0)
(6.30621e-16 -1.79674e-15 0)
(8.75084e-16 -1.35874e-15 0)
(1.53106e-15 -9.22812e-16 0)
(1.87415e-15 -1.36984e-15 0)
(2.14109e-15 -1.40238e-15 0)
(2.82729e-15 -1.27385e-15 0)
(2.88183e-15 -1.4928e-15 0)
(2.49324e-15 -1.41214e-15 0)
(2.75308e-15 -1.28784e-15 0)
(3.31346e-15 -1.38959e-15 0)
(3.41758e-15 -1.57084e-15 0)
(2.93184e-15 -1.62841e-15 0)
(2.27849e-15 -1.54066e-15 0)
(2.13406e-15 -1.14409e-15 0)
(2.11629e-15 -1.17666e-15 0)
(1.9882e-15 -9.01563e-16 0)
(1.82759e-15 -8.41719e-16 0)
(1.51146e-15 -9.65546e-16 0)
(1.18399e-15 -8.96602e-16 0)
(6.10223e-16 -5.97189e-16 0)
(7.34975e-17 -1.00727e-16 0)
(-3.60334e-17 -2.04117e-17 0)
(-6.01127e-16 -6.47487e-16 0)
(-1.35814e-15 -1.16539e-15 0)
(-1.66911e-15 -1.90262e-15 0)
(-1.63857e-15 -3.18611e-15 0)
(-1.84074e-15 -4.08328e-15 0)
(-3.08498e-15 -4.76247e-15 0)
(-3.93029e-15 -4.34877e-15 0)
(-3.95962e-15 -5.09261e-15 0)
(-3.6932e-15 -6.44468e-15 0)
(-3.05857e-15 -7.51961e-15 0)
(-2.80452e-15 -8.5596e-15 0)
(-3.5523e-15 -9.22968e-15 0)
(-4.82569e-15 -8.67504e-15 0)
(-6.05006e-15 -8.10033e-15 0)
(-7.1731e-15 -8.49185e-15 0)
(-8.166e-15 -9.36452e-15 0)
(-9.13011e-15 -9.71091e-15 0)
(-9.93528e-15 -9.93196e-15 0)
(-1.03697e-14 -1.0133e-14 0)
(-1.00881e-14 -1.03535e-14 0)
(-9.46324e-15 -1.0798e-14 0)
(-8.76159e-15 -1.05662e-14 0)
(-7.52974e-15 -1.12793e-14 0)
(-6.19384e-15 -1.20402e-14 0)
(-5.43816e-15 -1.14907e-14 0)
(-5.02013e-15 -1.06318e-14 0)
(-4.40265e-15 -1.04538e-14 0)
(-3.69438e-15 -1.07976e-14 0)
(-3.20989e-15 -1.08835e-14 0)
(-3.00084e-15 -1.12832e-14 0)
(-2.98966e-15 -1.09248e-14 0)
(-2.65032e-15 -1.06258e-14 0)
(-2.40626e-15 -1.13791e-14 0)
(-2.70637e-15 -1.19218e-14 0)
(-3.30552e-15 -1.11921e-14 0)
(-3.78932e-15 -1.11129e-14 0)
(-3.87701e-15 -1.07142e-14 0)
(-3.81931e-15 -9.97236e-15 0)
(-2.82089e-15 -9.4356e-15 0)
(-2.30131e-16 -9.4186e-15 0)
(2.48492e-15 -1.03226e-14 0)
(3.72475e-15 -1.11015e-14 0)
(4.2361e-15 -1.13739e-14 0)
(4.04723e-15 -1.1595e-14 0)
(3.71688e-15 -1.14058e-14 0)
(4.61648e-15 -1.09528e-14 0)
(5.62309e-15 -1.09989e-14 0)
(6.55969e-15 -1.08284e-14 0)
(7.31726e-15 -1.05932e-14 0)
(7.58864e-15 -1.02171e-14 0)
(7.771e-15 -1.04303e-14 0)
(7.77003e-15 -1.01661e-14 0)
(7.53689e-15 -1.02503e-14 0)
(7.10962e-15 -1.04735e-14 0)
(6.83984e-15 -1.0726e-14 0)
(6.97919e-15 -1.04851e-14 0)
(7.47447e-15 -1.05012e-14 0)
(7.59774e-15 -1.03288e-14 0)
(7.26521e-15 -1.02863e-14 0)
(6.70122e-15 -1.10345e-14 0)
(5.81725e-15 -1.1264e-14 0)
(4.6262e-15 -1.10773e-14 0)
(4.31733e-15 -1.06361e-14 0)
(4.83519e-15 -1.08517e-14 0)
(4.69869e-15 -1.04413e-14 0)
(4.07717e-15 -1.05287e-14 0)
(3.96367e-15 -1.07275e-14 0)
(4.38746e-15 -1.04126e-14 0)
(4.64649e-15 -1.01569e-14 0)
(4.73485e-15 -9.96106e-15 0)
(4.32314e-15 -9.66752e-15 0)
(3.35897e-15 -9.28874e-15 0)
(2.94425e-15 -8.28008e-15 0)
(3.57797e-15 -7.35834e-15 0)
(4.29098e-15 -7.18746e-15 0)
(4.00515e-15 -7.32576e-15 0)
(3.18336e-15 -7.17385e-15 0)
(2.83965e-15 -6.19302e-15 0)
(2.89885e-15 -5.30006e-15 0)
(3.58885e-15 -4.22628e-15 0)
(4.36551e-15 -3.251e-15 0)
(4.98552e-15 -3.83456e-15 0)
(6.24393e-15 -4.32778e-15 0)
(7.53182e-15 -4.24718e-15 0)
(7.76875e-15 -4.45758e-15 0)
(7.49125e-15 -4.07666e-15 0)
(7.90689e-15 -3.71788e-15 0)
(8.73531e-15 -3.9716e-15 0)
(8.91885e-15 -4.44097e-15 0)
(8.07759e-15 -4.71549e-15 0)
(7.00996e-15 -4.48238e-15 0)
(6.38695e-15 -3.81738e-15 0)
(6.04401e-15 -3.61124e-15 0)
(5.67706e-15 -2.92371e-15 0)
(4.8293e-15 -2.80537e-15 0)
(3.9568e-15 -2.87311e-15 0)
(3.27762e-15 -2.48474e-15 0)
(2.16437e-15 -1.75245e-15 0)
(6.95088e-16 -7.64333e-16 0)
(-8.96147e-17 -2.40259e-16 0)
(-6.69708e-16 -7.29495e-16 0)
(-1.79795e-15 -1.6211e-15 0)
(-2.66188e-15 -3.05992e-15 0)
(-2.85962e-15 -4.98768e-15 0)
(-3.42014e-15 -6.4918e-15 0)
(-4.84376e-15 -7.86251e-15 0)
(-5.85185e-15 -8.12445e-15 0)
(-6.50469e-15 -9.28435e-15 0)
(-6.30545e-15 -1.06643e-14 0)
(-5.5981e-15 -1.22541e-14 0)
(-5.41037e-15 -1.3884e-14 0)
(-5.88126e-15 -1.46556e-14 0)
(-7.34622e-15 -1.42619e-14 0)
(-9.50142e-15 -1.41201e-14 0)
(-1.16847e-14 -1.44556e-14 0)
(-1.33607e-14 -1.52101e-14 0)
(-1.45452e-14 -1.62345e-14 0)
(-1.55734e-14 -1.67865e-14 0)
(-1.63764e-14 -1.71882e-14 0)
(-1.60976e-14 -1.80073e-14 0)
(-1.46619e-14 -1.83523e-14 0)
(-1.36249e-14 -1.82114e-14 0)
(-1.2475e-14 -1.87246e-14 0)
(-1.02803e-14 -1.94368e-14 0)
(-8.55484e-15 -1.88799e-14 0)
(-7.78099e-15 -1.81051e-14 0)
(-7.1678e-15 -1.77845e-14 0)
(-6.21913e-15 -1.78531e-14 0)
(-5.45348e-15 -1.79019e-14 0)
(-5.08643e-15 -1.81977e-14 0)
(-4.7844e-15 -1.81715e-14 0)
(-4.61153e-15 -1.80509e-14 0)
(-4.48568e-15 -1.88228e-14 0)
(-4.42995e-15 -1.93518e-14 0)
(-5.03342e-15 -1.91065e-14 0)
(-5.61516e-15 -1.86807e-14 0)
(-5.42375e-15 -1.78785e-14 0)
(-5.0481e-15 -1.70468e-14 0)
(-3.60616e-15 -1.64214e-14 0)
(-4.47396e-16 -1.61653e-14 0)
(2.8713e-15 -1.69034e-14 0)
(4.99901e-15 -1.7966e-14 0)
(6.19789e-15 -1.86028e-14 0)
(6.39666e-15 -1.90336e-14 0)
(6.50086e-15 -1.8882e-14 0)
(7.64541e-15 -1.82595e-14 0)
(9.06255e-15 -1.7861e-14 0)
(1.04481e-14 -1.74223e-14 0)
(1.16622e-14 -1.76263e-14 0)
(1.21676e-14 -1.74657e-14 0)
(1.23059e-14 -1.75306e-14 0)
(1.21777e-14 -1.73303e-14 0)
(1.17981e-14 -1.73656e-14 0)
(1.13093e-14 -1.74915e-14 0)
(1.11502e-14 -1.77999e-14 0)
(1.14952e-14 -1.7555e-14 0)
(1.20595e-14 -1.73729e-14 0)
(1.21244e-14 -1.74108e-14 0)
(1.11906e-14 -1.7454e-14 0)
(1.01438e-14 -1.79845e-14 0)
(9.20707e-15 -1.84127e-14 0)
(7.99434e-15 -1.84368e-14 0)
(7.32681e-15 -1.77204e-14 0)
(7.82803e-15 -1.78472e-14 0)
(7.77272e-15 -1.78475e-14 0)
(6.75654e-15 -1.79165e-14 0)
(6.55527e-15 -1.78192e-14 0)
(7.21064e-15 -1.75732e-14 0)
(7.56005e-15 -1.68411e-14 0)
(7.58684e-15 -1.62991e-14 0)
(7.11857e-15 -1.56874e-14 0)
(6.08724e-15 -1.50534e-14 0)
(5.74738e-15 -1.3777e-14 0)
(6.27178e-15 -1.26733e-14 0)
(6.80143e-15 -1.22844e-14 0)
(6.50435e-15 -1.1932e-14 0)
(5.75612e-15 -1.09166e-14 0)
(5.43171e-15 -9.93965e-15 0)
(5.62985e-15 -8.85746e-15 0)
(6.64522e-15 -7.38054e-15 0)
(7.36598e-15 -6.48355e-15 0)
(7.75481e-15 -6.21849e-15 0)
(9.56012e-15 -7.07088e-15 0)
(1.16721e-14 -7.52299e-15 0)
(1.24034e-14 -7.38816e-15 0)
(1.23594e-14 -6.91137e-15 0)
(1.26262e-14 -6.27377e-15 0)
(1.32857e-14 -6.48414e-15 0)
(1.33906e-14 -7.07762e-15 0)
(1.25137e-14 -7.29049e-15 0)
(1.13143e-14 -7.10428e-15 0)
(1.03788e-14 -6.58156e-15 0)
(9.82732e-15 -6.0286e-15 0)
(8.97909e-15 -5.14807e-15 0)
(7.44738e-15 -4.82698e-15 0)
(6.23532e-15 -4.50262e-15 0)
(5.21154e-15 -3.84178e-15 0)
(3.51703e-15 -2.97455e-15 0)
(1.39758e-15 -1.79235e-15 0)
(1.04863e-16 -5.06337e-16 0)
(-7.19564e-16 -7.63835e-16 0)
(-2.32753e-15 -2.0812e-15 0)
(-3.96183e-15 -4.36695e-15 0)
(-4.49367e-15 -6.81914e-15 0)
(-5.04161e-15 -9.21728e-15 0)
(-6.34358e-15 -1.06924e-14 0)
(-7.65807e-15 -1.16686e-14 0)
(-8.67557e-15 -1.32873e-14 0)
(-8.78447e-15 -1.50549e-14 0)
(-8.45784e-15 -1.71878e-14 0)
(-8.02893e-15 -1.90911e-14 0)
(-8.19827e-15 -1.97887e-14 0)
(-9.97442e-15 -1.96796e-14 0)
(-1.27996e-14 -1.99936e-14 0)
(-1.55561e-14 -2.07571e-14 0)
(-1.80736e-14 -2.12834e-14 0)
(-1.98241e-14 -2.23652e-14 0)
(-2.08602e-14 -2.33707e-14 0)
(-2.18507e-14 -2.44846e-14 0)
(-2.14021e-14 -2.54738e-14 0)
(-1.95707e-14 -2.60465e-14 0)
(-1.82695e-14 -2.67862e-14 0)
(-1.67788e-14 -2.69827e-14 0)
(-1.38716e-14 -2.6492e-14 0)
(-1.13808e-14 -2.5632e-14 0)
(-1.04243e-14 -2.51966e-14 0)
(-9.64076e-15 -2.53238e-14 0)
(-8.52091e-15 -2.52624e-14 0)
(-7.70634e-15 -2.52501e-14 0)
(-7.18053e-15 -2.53089e-14 0)
(-6.67627e-15 -2.54022e-14 0)
(-6.59022e-15 -2.55147e-14 0)
(-6.62507e-15 -2.59922e-14 0)
(-6.37882e-15 -2.64899e-14 0)
(-6.55651e-15 -2.66571e-14 0)
(-6.72042e-15 -2.58752e-14 0)
(-6.36597e-15 -2.49674e-14 0)
(-5.85842e-15 -2.42012e-14 0)
(-3.99958e-15 -2.34657e-14 0)
(-4.7754e-16 -2.30855e-14 0)
(3.16097e-15 -2.37323e-14 0)
(5.76248e-15 -2.44599e-14 0)
(7.51294e-15 -2.53769e-14 0)
(8.30742e-15 -2.58834e-14 0)
(9.10249e-15 -2.57216e-14 0)
(1.08789e-14 -2.47969e-14 0)
(1.25985e-14 -2.45775e-14 0)
(1.38679e-14 -2.43924e-14 0)
(1.50847e-14 -2.44524e-14 0)
(1.59508e-14 -2.44318e-14 0)
(1.64092e-14 -2.47027e-14 0)
(1.64819e-14 -2.42926e-14 0)
(1.59903e-14 -2.4146e-14 0)
(1.52491e-14 -2.45676e-14 0)
(1.5128e-14 -2.48546e-14 0)
(1.56475e-14 -2.47979e-14 0)
(1.60292e-14 -2.45019e-14 0)
(1.59274e-14 -2.46261e-14 0)
(1.4971e-14 -2.47742e-14 0)
(1.36e-14 -2.50254e-14 0)
(1.23367e-14 -2.51292e-14 0)
(1.12654e-14 -2.51783e-14 0)
(1.05118e-14 -2.46226e-14 0)
(1.04034e-14 -2.46382e-14 0)
(1.01534e-14 -2.50439e-14 0)
(9.36499e-15 -2.51166e-14 0)
(9.29609e-15 -2.50516e-14 0)
(1.01832e-14 -2.44879e-14 0)
(1.0695e-14 -2.34757e-14 0)
(1.0585e-14 -2.24073e-14 0)
(9.90801e-15 -2.14158e-14 0)
(8.93857e-15 -2.04527e-14 0)
(8.63542e-15 -1.88707e-14 0)
(8.84667e-15 -1.78456e-14 0)
(9.29972e-15 -1.74797e-14 0)
(9.38257e-15 -1.65257e-14 0)
(8.6115e-15 -1.50713e-14 0)
(8.06446e-15 -1.39389e-14 0)
(8.62836e-15 -1.25201e-14 0)
(9.73049e-15 -1.0802e-14 0)
(1.04947e-14 -9.89415e-15 0)
(1.07273e-14 -9.2544e-15 0)
(1.23247e-14 -9.59158e-15 0)
(1.51658e-14 -1.02517e-14 0)
(1.65452e-14 -1.03224e-14 0)
(1.68258e-14 -9.85312e-15 0)
(1.70428e-14 -9.07661e-15 0)
(1.72695e-14 -9.02203e-15 0)
(1.73535e-14 -9.47173e-15 0)
(1.64736e-14 -9.54411e-15 0)
(1.50983e-14 -9.53062e-15 0)
(1.40136e-14 -9.00531e-15 0)
(1.3281e-14 -8.43065e-15 0)
(1.2025e-14 -7.45633e-15 0)
(9.91597e-15 -6.65378e-15 0)
(8.25164e-15 -5.96427e-15 0)
(6.76738e-15 -5.15224e-15 0)
(4.69412e-15 -4.07123e-15 0)
(2.25482e-15 -2.67767e-15 0)
(3.34224e-16 -8.26681e-16 0)
(-7.09603e-16 -1.1164e-15 0)
(-2.8773e-15 -3.07267e-15 0)
(-5.14531e-15 -5.8677e-15 0)
(-6.02648e-15 -8.56049e-15 0)
(-6.58039e-15 -1.1273e-14 0)
(-7.73173e-15 -1.30795e-14 0)
(-9.44361e-15 -1.516e-14 0)
(-1.10403e-14 -1.75639e-14 0)
(-1.14947e-14 -2.02709e-14 0)
(-1.12125e-14 -2.23929e-14 0)
(-1.04866e-14 -2.38939e-14 0)
(-1.02639e-14 -2.48353e-14 0)
(-1.23969e-14 -2.52848e-14 0)
(-1.61324e-14 -2.59477e-14 0)
(-1.93641e-14 -2.70578e-14 0)
(-2.21384e-14 -2.7612e-14 0)
(-2.44394e-14 -2.84445e-14 0)
(-2.60558e-14 -2.97733e-14 0)
(-2.71395e-14 -3.16393e-14 0)
(-2.64185e-14 -3.29411e-14 0)
(-2.44662e-14 -3.38151e-14 0)
(-2.26209e-14 -3.47621e-14 0)
(-1.9915e-14 -3.47256e-14 0)
(-1.63027e-14 -3.32229e-14 0)
(-1.40224e-14 -3.25747e-14 0)
(-1.33591e-14 -3.23808e-14 0)
(-1.23916e-14 -3.28506e-14 0)
(-1.07789e-14 -3.31109e-14 0)
(-9.66305e-15 -3.2912e-14 0)
(-9.07289e-15 -3.24624e-14 0)
(-8.57405e-15 -3.25624e-14 0)
(-8.43639e-15 -3.28857e-14 0)
(-8.43973e-15 -3.32005e-14 0)
(-8.18061e-15 -3.32335e-14 0)
(-7.90471e-15 -3.32506e-14 0)
(-7.63342e-15 -3.26251e-14 0)
(-7.17738e-15 -3.19338e-14 0)
(-6.31369e-15 -3.09811e-14 0)
(-4.09604e-15 -3.0032e-14 0)
(-5.34516e-16 -2.98724e-14 0)
(3.3916e-15 -3.06016e-14 0)
(6.43826e-15 -3.13211e-14 0)
(8.59065e-15 -3.19977e-14 0)
(1.01353e-14 -3.22071e-14 0)
(1.17887e-14 -3.15513e-14 0)
(1.35968e-14 -3.09197e-14 0)
(1.51624e-14 -3.10908e-14 0)
(1.69969e-14 -3.12848e-14 0)
(1.86534e-14 -3.11932e-14 0)
(1.94311e-14 -3.10428e-14 0)
(2.01136e-14 -3.12292e-14 0)
(2.04055e-14 -3.08521e-14 0)
(1.94409e-14 -3.09827e-14 0)
(1.85919e-14 -3.16174e-14 0)
(1.87267e-14 -3.20885e-14 0)
(1.94871e-14 -3.18991e-14 0)
(1.99135e-14 -3.16427e-14 0)
(1.95493e-14 -3.15432e-14 0)
(1.82737e-14 -3.14687e-14 0)
(1.68435e-14 -3.15237e-14 0)
(1.55162e-14 -3.14732e-14 0)
(1.42712e-14 -3.12646e-14 0)
(1.32841e-14 -3.11586e-14 0)
(1.2883e-14 -3.1343e-14 0)
(1.26066e-14 -3.21468e-14 0)
(1.17445e-14 -3.20351e-14 0)
(1.18579e-14 -3.18861e-14 0)
(1.31391e-14 -3.105e-14 0)
(1.3805e-14 -2.99061e-14 0)
(1.36864e-14 -2.85153e-14 0)
(1.28996e-14 -2.70426e-14 0)
(1.20106e-14 -2.52274e-14 0)
(1.15637e-14 -2.35705e-14 0)
(1.12593e-14 -2.27565e-14 0)
(1.18434e-14 -2.21614e-14 0)
(1.22962e-14 -2.08466e-14 0)
(1.15026e-14 -1.93818e-14 0)
(1.10693e-14 -1.79392e-14 0)
(1.18567e-14 -1.63045e-14 0)
(1.29264e-14 -1.44743e-14 0)
(1.34956e-14 -1.32093e-14 0)
(1.36701e-14 -1.28446e-14 0)
(1.52056e-14 -1.25527e-14 0)
(1.8128e-14 -1.28789e-14 0)
(2.01005e-14 -1.30897e-14 0)
(2.09198e-14 -1.26192e-14 0)
(2.10869e-14 -1.20337e-14 0)
(2.09588e-14 -1.15948e-14 0)
(2.08201e-14 -1.16665e-14 0)
(1.98175e-14 -1.18527e-14 0)
(1.84059e-14 -1.19004e-14 0)
(1.72124e-14 -1.13563e-14 0)
(1.63139e-14 -1.08581e-14 0)
(1.48886e-14 -1.00644e-14 0)
(1.22884e-14 -8.75708e-15 0)
(1.00801e-14 -7.32223e-15 0)
(8.20759e-15 -6.37698e-15 0)
(5.70505e-15 -5.12146e-15 0)
(2.91664e-15 -3.52338e-15 0)
(6.58178e-16 -1.32704e-15 0)
(-7.87368e-16 -1.43585e-15 0)
(-3.37794e-15 -4.63573e-15 0)
(-6.16217e-15 -7.42273e-15 0)
(-7.27736e-15 -1.00415e-14 0)
(-7.86867e-15 -1.32232e-14 0)
(-9.40934e-15 -1.60609e-14 0)
(-1.17684e-14 -1.90793e-14 0)
(-1.37231e-14 -2.23062e-14 0)
(-1.40432e-14 -2.50563e-14 0)
(-1.32796e-14 -2.70709e-14 0)
(-1.25487e-14 -2.83891e-14 0)
(-1.26642e-14 -2.96363e-14 0)
(-1.50561e-14 -3.10469e-14 0)
(-1.91989e-14 -3.21971e-14 0)
(-2.26759e-14 -3.30855e-14 0)
(-2.57383e-14 -3.40468e-14 0)
(-2.87052e-14 -3.52558e-14 0)
(-3.09809e-14 -3.6904e-14 0)
(-3.22125e-14 -3.87237e-14 0)
(-3.10452e-14 -4.00168e-14 0)
(-2.87384e-14 -4.08962e-14 0)
(-2.6385e-14 -4.13024e-14 0)
(-2.26062e-14 -4.08581e-14 0)
(-1.8733e-14 -3.9873e-14 0)
(-1.66909e-14 -3.97714e-14 0)
(-1.60347e-14 -3.97737e-14 0)
(-1.50683e-14 -4.05856e-14 0)
(-1.29876e-14 -4.07228e-14 0)
(-1.1263e-14 -4.04108e-14 0)
(-1.06565e-14 -3.95629e-14 0)
(-1.04758e-14 -3.96791e-14 0)
(-1.03302e-14 -4.00549e-14 0)
(-9.9959e-15 -4.03218e-14 0)
(-9.45559e-15 -3.99468e-14 0)
(-9.07853e-15 -3.98848e-14 0)
(-8.55514e-15 -3.9709e-14 0)
(-7.61877e-15 -3.86682e-14 0)
(-6.32966e-15 -3.71057e-14 0)
(-4.1727e-15 -3.63452e-14 0)
(-7.87163e-16 -3.67535e-14 0)
(3.32192e-15 -3.74975e-14 0)
(6.92218e-15 -3.81256e-14 0)
(9.80726e-15 -3.83774e-14 0)
(1.21845e-14 -3.82065e-14 0)
(1.41432e-14 -3.72059e-14 0)
(1.58875e-14 -3.6804e-14 0)
(1.75956e-14 -3.67015e-14 0)
(1.96201e-14 -3.71746e-14 0)
(2.15772e-14 -3.75444e-14 0)
(2.26191e-14 -3.77878e-14 0)
(2.34998e-14 -3.74867e-14 0)
(2.37564e-14 -3.72735e-14 0)
(2.25822e-14 -3.75445e-14 0)
(2.15932e-14 -3.80984e-14 0)
(2.20534e-14 -3.85514e-14 0)
(2.30817e-14 -3.83957e-14 0)
(2.33503e-14 -3.80847e-14 0)
(2.29953e-14 -3.8208e-14 0)
(2.17021e-14 -3.80044e-14 0)
(1.9981e-14 -3.76213e-14 0)
(1.85066e-14 -3.74634e-14 0)
(1.70818e-14 -3.70033e-14 0)
(1.57331e-14 -3.7048e-14 0)
(1.4736e-14 -3.75679e-14 0)
(1.4517e-14 -3.86945e-14 0)
(1.42561e-14 -3.87787e-14 0)
(1.45766e-14 -3.82477e-14 0)
(1.60931e-14 -3.73037e-14 0)
(1.69184e-14 -3.58373e-14 0)
(1.69188e-14 -3.40551e-14 0)
(1.63717e-14 -3.19439e-14 0)
(1.53455e-14 -2.98461e-14 0)
(1.41921e-14 -2.82739e-14 0)
(1.36187e-14 -2.73184e-14 0)
(1.44685e-14 -2.6112e-14 0)
(1.51647e-14 -2.49175e-14 0)
(1.44243e-14 -2.33834e-14 0)
(1.40094e-14 -2.17374e-14 0)
(1.50225e-14 -2.01343e-14 0)
(1.61969e-14 -1.83986e-14 0)
(1.63693e-14 -1.69004e-14 0)
(1.64303e-14 -1.62636e-14 0)
(1.80561e-14 -1.56114e-14 0)
(2.10004e-14 -1.58009e-14 0)
(2.33099e-14 -1.59023e-14 0)
(2.43948e-14 -1.54311e-14 0)
(2.47228e-14 -1.49939e-14 0)
(2.44847e-14 -1.43061e-14 0)
(2.3934e-14 -1.4029e-14 0)
(2.26804e-14 -1.40642e-14 0)
(2.12973e-14 -1.40866e-14 0)
(1.99976e-14 -1.37972e-14 0)
(1.87797e-14 -1.32503e-14 0)
(1.73733e-14 -1.2366e-14 0)
(1.48861e-14 -1.10445e-14 0)
(1.19848e-14 -9.14449e-15 0)
(9.28119e-15 -7.77176e-15 0)
(6.50624e-15 -6.1907e-15 0)
(3.52431e-15 -4.1168e-15 0)
(1.09316e-15 -1.61747e-15 0)
(-1.23536e-15 -1.80377e-15 0)
(-3.94181e-15 -5.79451e-15 0)
(-6.43151e-15 -9.17182e-15 0)
(-8.28201e-15 -1.21437e-14 0)
(-9.6981e-15 -1.57811e-14 0)
(-1.14205e-14 -1.95138e-14 0)
(-1.40479e-14 -2.29719e-14 0)
(-1.59999e-14 -2.61706e-14 0)
(-1.60759e-14 -2.87675e-14 0)
(-1.52694e-14 -3.09812e-14 0)
(-1.4574e-14 -3.28643e-14 0)
(-1.51001e-14 -3.47814e-14 0)
(-1.79014e-14 -3.68977e-14 0)
(-2.2001e-14 -3.81966e-14 0)
(-2.5813e-14 -3.92225e-14 0)
(-2.94845e-14 -4.09898e-14 0)
(-3.2855e-14 -4.23343e-14 0)
(-3.53435e-14 -4.38745e-14 0)
(-3.64122e-14 -4.5486e-14 0)
(-3.50519e-14 -4.63061e-14 0)
(-3.23205e-14 -4.67895e-14 0)
(-2.92337e-14 -4.70883e-14 0)
(-2.5142e-14 -4.6669e-14 0)
(-2.13728e-14 -4.69888e-14 0)
(-1.93923e-14 -4.70171e-14 0)
(-1.89659e-14 -4.76666e-14 0)
(-1.76697e-14 -4.813e-14 0)
(-1.48358e-14 -4.76234e-14 0)
(-1.26545e-14 -4.73536e-14 0)
(-1.20966e-14 -4.6876e-14 0)
(-1.22595e-14 -4.70248e-14 0)
(-1.20263e-14 -4.70336e-14 0)
(-1.131e-14 -4.70354e-14 0)
(-1.0675e-14 -4.66593e-14 0)
(-1.03974e-14 -4.65316e-14 0)
(-9.17867e-15 -4.64003e-14 0)
(-7.33772e-15 -4.54661e-14 0)
(-6.13169e-15 -4.41903e-14 0)
(-4.62056e-15 -4.35197e-14 0)
(-1.28292e-15 -4.34545e-14 0)
(3.38892e-15 -4.34594e-14 0)
(7.62355e-15 -4.3689e-14 0)
(1.10679e-14 -4.38609e-14 0)
(1.41334e-14 -4.38825e-14 0)
(1.65025e-14 -4.28635e-14 0)
(1.81869e-14 -4.21897e-14 0)
(1.96366e-14 -4.23139e-14 0)
(2.16156e-14 -4.30968e-14 0)
(2.38691e-14 -4.35942e-14 0)
(2.5483e-14 -4.38282e-14 0)
(2.67478e-14 -4.33155e-14 0)
(2.67752e-14 -4.34334e-14 0)
(2.53305e-14 -4.38216e-14 0)
(2.43771e-14 -4.40204e-14 0)
(2.5028e-14 -4.3704e-14 0)
(2.6322e-14 -4.3916e-14 0)
(2.6482e-14 -4.39105e-14 0)
(2.59191e-14 -4.38352e-14 0)
(2.48209e-14 -4.37604e-14 0)
(2.30882e-14 -4.37545e-14 0)
(2.15021e-14 -4.33303e-14 0)
(1.9795e-14 -4.28631e-14 0)
(1.782e-14 -4.29139e-14 0)
(1.64081e-14 -4.35703e-14 0)
(1.62685e-14 -4.40533e-14 0)
(1.64622e-14 -4.45196e-14 0)
(1.71922e-14 -4.37075e-14 0)
(1.90455e-14 -4.27223e-14 0)
(2.02182e-14 -4.07731e-14 0)
(2.04484e-14 -3.88678e-14 0)
(1.97485e-14 -3.69215e-14 0)
(1.83229e-14 -3.50524e-14 0)
(1.69432e-14 -3.32396e-14 0)
(1.63388e-14 -3.18454e-14 0)
(1.70958e-14 -3.03475e-14 0)
(1.77783e-14 -2.87508e-14 0)
(1.73086e-14 -2.71735e-14 0)
(1.69762e-14 -2.51397e-14 0)
(1.7987e-14 -2.32801e-14 0)
(1.92584e-14 -2.191e-14 0)
(1.93954e-14 -2.07213e-14 0)
(1.93696e-14 -1.96645e-14 0)
(2.07145e-14 -1.88629e-14 0)
(2.34495e-14 -1.90819e-14 0)
(2.61836e-14 -1.9032e-14 0)
(2.75741e-14 -1.82487e-14 0)
(2.79808e-14 -1.75972e-14 0)
(2.76998e-14 -1.68008e-14 0)
(2.68418e-14 -1.63747e-14 0)
(2.52686e-14 -1.61848e-14 0)
(2.36135e-14 -1.61461e-14 0)
(2.22663e-14 -1.59013e-14 0)
(2.11577e-14 -1.52797e-14 0)
(1.95705e-14 -1.41409e-14 0)
(1.68866e-14 -1.32568e-14 0)
(1.37751e-14 -1.13647e-14 0)
(1.06175e-14 -9.23981e-15 0)
(7.48029e-15 -7.1106e-15 0)
(4.13333e-15 -4.62912e-15 0)
(1.40766e-15 -1.64093e-15 0)
(-1.42081e-15 -2.09471e-15 0)
(-4.53764e-15 -6.40204e-15 0)
(-7.27201e-15 -1.08154e-14 0)
(-9.29689e-15 -1.49672e-14 0)
(-1.11724e-14 -1.86069e-14 0)
(-1.32881e-14 -2.24891e-14 0)
(-1.59158e-14 -2.62701e-14 0)
(-1.78461e-14 -2.95143e-14 0)
(-1.80195e-14 -3.26124e-14 0)
(-1.7311e-14 -3.51889e-14 0)
(-1.69747e-14 -3.76961e-14 0)
(-1.79186e-14 -4.01295e-14 0)
(-2.0542e-14 -4.2328e-14 0)
(-2.45677e-14 -4.39339e-14 0)
(-2.90426e-14 -4.55875e-14 0)
(-3.29345e-14 -4.75441e-14 0)
(-3.62404e-14 -4.88261e-14 0)
(-3.90978e-14 -5.01615e-14 0)
(-4.00404e-14 -5.14484e-14 0)
(-3.81292e-14 -5.21838e-14 0)
(-3.53795e-14 -5.26009e-14 0)
(-3.21832e-14 -5.33036e-14 0)
(-2.8155e-14 -5.31704e-14 0)
(-2.42941e-14 -5.3983e-14 0)
(-2.21505e-14 -5.45365e-14 0)
(-2.14581e-14 -5.52521e-14 0)
(-1.92885e-14 -5.48259e-14 0)
(-1.6337e-14 -5.40729e-14 0)
(-1.43372e-14 -5.36492e-14 0)
(-1.3781e-14 -5.39615e-14 0)
(-1.37336e-14 -5.42509e-14 0)
(-1.32811e-14 -5.4248e-14 0)
(-1.2487e-14 -5.41241e-14 0)
(-1.16845e-14 -5.4011e-14 0)
(-1.12969e-14 -5.30908e-14 0)
(-9.92286e-15 -5.25118e-14 0)
(-7.78027e-15 -5.2274e-14 0)
(-6.18611e-15 -5.19402e-14 0)
(-4.2859e-15 -5.05382e-14 0)
(-6.67778e-16 -4.90528e-14 0)
(3.97951e-15 -4.84962e-14 0)
(8.17087e-15 -4.91864e-14 0)
(1.18492e-14 -4.96163e-14 0)
(1.56716e-14 -4.96173e-14 0)
(1.8664e-14 -4.86518e-14 0)
(2.00649e-14 -4.78385e-14 0)
(2.11758e-14 -4.77387e-14 0)
(2.33624e-14 -4.82743e-14 0)
(2.61043e-14 -4.89573e-14 0)
(2.82002e-14 -4.95651e-14 0)
(2.94004e-14 -4.94267e-14 0)
(2.91547e-14 -4.96304e-14 0)
(2.80177e-14 -4.96911e-14 0)
(2.75924e-14 -4.92256e-14 0)
(2.80499e-14 -4.85456e-14 0)
(2.88247e-14 -4.84168e-14 0)
(2.92427e-14 -4.86538e-14 0)
(2.88278e-14 -4.85088e-14 0)
(2.73162e-14 -4.88044e-14 0)
(2.56323e-14 -4.92378e-14 0)
(2.42443e-14 -4.87957e-14 0)
(2.22148e-14 -4.85141e-14 0)
(1.98082e-14 -4.86717e-14 0)
(1.82934e-14 -4.91387e-14 0)
(1.80398e-14 -4.9529e-14 0)
(1.85766e-14 -4.97332e-14 0)
(1.98287e-14 -4.86665e-14 0)
(2.20618e-14 -4.71875e-14 0)
(2.34505e-14 -4.53089e-14 0)
(2.33315e-14 -4.33612e-14 0)
(2.26363e-14 -4.1704e-14 0)
(2.14009e-14 -3.96025e-14 0)
(1.98189e-14 -3.78135e-14 0)
(1.89738e-14 -3.59487e-14 0)
(1.99583e-14 -3.4124e-14 0)
(2.07102e-14 -3.23591e-14 0)
(2.03086e-14 -3.06782e-14 0)
(2.01679e-14 -2.8391e-14 0)
(2.0836e-14 -2.64129e-14 0)
(2.17436e-14 -2.50875e-14 0)
(2.19793e-14 -2.41906e-14 0)
(2.20825e-14 -2.30117e-14 0)
(2.30926e-14 -2.20661e-14 0)
(2.57665e-14 -2.18273e-14 0)
(2.90257e-14 -2.1373e-14 0)
(3.06816e-14 -2.07522e-14 0)
(3.10566e-14 -1.9742e-14 0)
(3.05839e-14 -1.92611e-14 0)
(2.93923e-14 -1.88555e-14 0)
(2.75279e-14 -1.83498e-14 0)
(2.57432e-14 -1.80708e-14 0)
(2.43356e-14 -1.75524e-14 0)
(2.31538e-14 -1.67657e-14 0)
(2.12311e-14 -1.6124e-14 0)
(1.84918e-14 -1.51012e-14 0)
(1.55921e-14 -1.32277e-14 0)
(1.20435e-14 -1.0844e-14 0)
(8.40324e-15 -8.29117e-15 0)
(4.82183e-15 -5.43889e-15 0)
(1.67352e-15 -1.97498e-15 0)
(-1.63195e-15 -2.42309e-15 0)
(-5.17367e-15 -7.48194e-15 0)
(-8.29023e-15 -1.22384e-14 0)
(-1.03367e-14 -1.6959e-14 0)
(-1.23161e-14 -2.1152e-14 0)
(-1.48799e-14 -2.52971e-14 0)
(-1.77351e-14 -2.9347e-14 0)
(-1.98388e-14 -3.27924e-14 0)
(-2.00476e-14 -3.6137e-14 0)
(-1.94214e-14 -3.97898e-14 0)
(-1.92454e-14 -4.28873e-14 0)
(-2.01858e-14 -4.50066e-14 0)
(-2.30276e-14 -4.71585e-14 0)
(-2.73637e-14 -4.93496e-14 0)
(-3.20363e-14 -5.14398e-14 0)
(-3.59802e-14 -5.34514e-14 0)
(-3.93584e-14 -5.49644e-14 0)
(-4.22113e-14 -5.59932e-14 0)
(-4.30793e-14 -5.66832e-14 0)
(-4.11931e-14 -5.78609e-14 0)
(-3.84315e-14 -5.89026e-14 0)
(-3.4832e-14 -5.99432e-14 0)
(-3.06356e-14 -6.03259e-14 0)
(-2.71333e-14 -6.07848e-14 0)
(-2.48117e-14 -6.14609e-14 0)
(-2.33791e-14 -6.14492e-14 0)
(-2.07153e-14 -6.09401e-14 0)
(-1.76071e-14 -6.06824e-14 0)
(-1.59546e-14 -6.0098e-14 0)
(-1.5692e-14 -6.06337e-14 0)
(-1.54167e-14 -6.08428e-14 0)
(-1.46902e-14 -6.16661e-14 0)
(-1.37137e-14 -6.18221e-14 0)
(-1.2311e-14 -6.16062e-14 0)
(-1.14815e-14 -5.99613e-14 0)
(-1.04985e-14 -5.88619e-14 0)
(-8.4885e-15 -5.83232e-14 0)
(-5.97754e-15 -5.79843e-14 0)
(-3.07448e-15 -5.68379e-14 0)
(2.55786e-16 -5.52896e-14 0)
(3.96657e-15 -5.45231e-14 0)
(8.09518e-15 -5.48248e-14 0)
(1.26212e-14 -5.50045e-14 0)
(1.72388e-14 -5.46993e-14 0)
(2.06933e-14 -5.38929e-14 0)
(2.21982e-14 -5.33746e-14 0)
(2.30842e-14 -5.29457e-14 0)
(2.48783e-14 -5.36936e-14 0)
(2.74209e-14 -5.43654e-14 0)
(2.99224e-14 -5.49174e-14 0)
(3.17044e-14 -5.52018e-14 0)
(3.17437e-14 -5.50841e-14 0)
(3.08936e-14 -5.45252e-14 0)
(3.05403e-14 -5.38947e-14 0)
(3.09597e-14 -5.32425e-14 0)
(3.15602e-14 -5.26635e-14 0)
(3.16762e-14 -5.2543e-14 0)
(3.09726e-14 -5.30085e-14 0)
(2.93071e-14 -5.37584e-14 0)
(2.79356e-14 -5.38782e-14 0)
(2.66688e-14 -5.36626e-14 0)
(2.43086e-14 -5.34447e-14 0)
(2.15827e-14 -5.35571e-14 0)
(1.98186e-14 -5.40571e-14 0)
(1.97102e-14 -5.46188e-14 0)
(2.08296e-14 -5.4524e-14 0)
(2.26667e-14 -5.32976e-14 0)
(2.49989e-14 -5.14114e-14 0)
(2.64051e-14 -4.95944e-14 0)
(2.63636e-14 -4.72374e-14 0)
(2.56712e-14 -4.51198e-14 0)
(2.42489e-14 -4.30706e-14 0)
(2.26251e-14 -4.16397e-14 0)
(2.2005e-14 -3.957e-14 0)
(2.26707e-14 -3.75248e-14 0)
(2.32489e-14 -3.60356e-14 0)
(2.31902e-14 -3.41918e-14 0)
(2.31449e-14 -3.19218e-14 0)
(2.35731e-14 -2.98834e-14 0)
(2.42326e-14 -2.82104e-14 0)
(2.44917e-14 -2.70441e-14 0)
(2.47541e-14 -2.56571e-14 0)
(2.56547e-14 -2.44542e-14 0)
(2.82424e-14 -2.3658e-14 0)
(3.14149e-14 -2.30325e-14 0)
(3.32997e-14 -2.25725e-14 0)
(3.36065e-14 -2.17792e-14 0)
(3.27888e-14 -2.17807e-14 0)
(3.17499e-14 -2.12536e-14 0)
(2.97739e-14 -2.01817e-14 0)
(2.77147e-14 -1.95756e-14 0)
(2.62345e-14 -1.89583e-14 0)
(2.46233e-14 -1.80266e-14 0)
(2.25275e-14 -1.7927e-14 0)
(1.99724e-14 -1.65476e-14 0)
(1.69827e-14 -1.47004e-14 0)
(1.33363e-14 -1.23296e-14 0)
(9.43647e-15 -9.43606e-15 0)
(5.5153e-15 -6.29217e-15 0)
(2.18758e-15 -2.3231e-15 0)
(-1.87284e-15 -2.95971e-15 0)
(-5.61369e-15 -8.81233e-15 0)
(-8.90792e-15 -1.40201e-14 0)
(-1.13442e-14 -1.86494e-14 0)
(-1.36064e-14 -2.31738e-14 0)
(-1.63935e-14 -2.80167e-14 0)
(-1.92409e-14 -3.22417e-14 0)
(-2.13444e-14 -3.58023e-14 0)
(-2.2329e-14 -3.93516e-14 0)
(-2.20783e-14 -4.34144e-14 0)
(-2.12471e-14 -4.71585e-14 0)
(-2.21261e-14 -4.98148e-14 0)
(-2.54249e-14 -5.22031e-14 0)
(-3.00069e-14 -5.45637e-14 0)
(-3.49142e-14 -5.67246e-14 0)
(-3.88906e-14 -5.87315e-14 0)
(-4.19092e-14 -6.02313e-14 0)
(-4.45068e-14 -6.13729e-14 0)
(-4.58026e-14 -6.19183e-14 0)
(-4.42881e-14 -6.31938e-14 0)
(-4.1475e-14 -6.46873e-14 0)
(-3.7744e-14 -6.60615e-14 0)
(-3.31683e-14 -6.71849e-14 0)
(-2.93527e-14 -6.74746e-14 0)
(-2.6659e-14 -6.80494e-14 0)
(-2.48719e-14 -6.79058e-14 0)
(-2.22916e-14 -6.68758e-14 0)
(-1.90588e-14 -6.67296e-14 0)
(-1.74282e-14 -6.66993e-14 0)
(-1.72563e-14 -6.68778e-14 0)
(-1.72348e-14 -6.70746e-14 0)
(-1.65668e-14 -6.83836e-14 0)
(-1.48341e-14 -6.86647e-14 0)
(-1.25231e-14 -6.79766e-14 0)
(-1.1274e-14 -6.67646e-14 0)
(-1.04534e-14 -6.54765e-14 0)
(-8.54441e-15 -6.43295e-14 0)
(-6.10277e-15 -6.34647e-14 0)
(-2.84165e-15 -6.26137e-14 0)
(1.02062e-15 -6.1738e-14 0)
(4.85331e-15 -6.09006e-14 0)
(8.88738e-15 -5.99955e-14 0)
(1.35237e-14 -5.9431e-14 0)
(1.85489e-14 -5.88853e-14 0)
(2.21435e-14 -5.8456e-14 0)
(2.36836e-14 -5.86769e-14 0)
(2.42502e-14 -5.8645e-14 0)
(2.59786e-14 -5.94586e-14 0)
(2.91729e-14 -5.96589e-14 0)
(3.18123e-14 -5.9314e-14 0)
(3.37103e-14 -5.93302e-14 0)
(3.42376e-14 -5.95959e-14 0)
(3.35817e-14 -5.89139e-14 0)
(3.32858e-14 -5.81714e-14 0)
(3.37283e-14 -5.70607e-14 0)
(3.40998e-14 -5.64854e-14 0)
(3.37026e-14 -5.64994e-14 0)
(3.25643e-14 -5.72301e-14 0)
(3.11875e-14 -5.80819e-14 0)
(3.00634e-14 -5.82165e-14 0)
(2.87529e-14 -5.80674e-14 0)
(2.63042e-14 -5.79719e-14 0)
(2.31963e-14 -5.77707e-14 0)
(2.11892e-14 -5.78814e-14 0)
(2.12244e-14 -5.81594e-14 0)
(2.29402e-14 -5.80508e-14 0)
(2.53855e-14 -5.67104e-14 0)
(2.79392e-14 -5.49525e-14 0)
(2.95677e-14 -5.30861e-14 0)
(2.95684e-14 -5.03938e-14 0)
(2.85524e-14 -4.82506e-14 0)
(2.67298e-14 -4.61668e-14 0)
(2.50993e-14 -4.44679e-14 0)
(2.46649e-14 -4.28849e-14 0)
(2.52033e-14 -4.13655e-14 0)
(2.58092e-14 -4.00378e-14 0)
(2.60097e-14 -3.77742e-14 0)
(2.60748e-14 -3.51151e-14 0)
(2.64085e-14 -3.26573e-14 0)
(2.68213e-14 -3.0747e-14 0)
(2.70254e-14 -2.91358e-14 0)
(2.73488e-14 -2.76312e-14 0)
(2.8111e-14 -2.65081e-14 0)
(3.05185e-14 -2.57702e-14 0)
(3.36411e-14 -2.50735e-14 0)
(3.54689e-14 -2.444e-14 0)
(3.54796e-14 -2.36093e-14 0)
(3.47023e-14 -2.32107e-14 0)
(3.40985e-14 -2.24891e-14 0)
(3.19948e-14 -2.15467e-14 0)
(2.94853e-14 -2.05874e-14 0)
(2.78381e-14 -1.98761e-14 0)
(2.5711e-14 -1.90706e-14 0)
(2.34656e-14 -1.88171e-14 0)
(2.12674e-14 -1.75566e-14 0)
(1.82536e-14 -1.5569e-14 0)
(1.45225e-14 -1.32096e-14 0)
(1.03734e-14 -1.01078e-14 0)