/*--------------------------------*- C++ -*----------------------------------*\
| =========                 |                                                 |
| \\      /  F ield         | OpenFOAM: The Open Source CFD Toolbox           |
|  \\    /   O peration     | Version:  v2012                                 |
|   \\  /    A nd           | Website:  www.openfoam.com                      |
|    \\/     M anipulation  |                                                 |
\*---------------------------------------------------------------------------*/
FoamFile
{
    version     2.0;
    format      ascii;
    class       volScalarField;
    location    "0";
    object      pRec;
}
// * * * * * * * * * * * * * * * * * * * * * * * * * * * * * * * * * * * * * //

dimensions      [0 2 -2 0 0 0 0];


internalField   nonuniform List<scalar> 
4000
(
-6.83261e-13
-6.78194e-13
-6.79074e-13
-6.81325e-13
-6.7988e-13
-6.80475e-13
-6.78723e-13
-6.74032e-13
-6.65206e-13
-6.60523e-13
-6.60903e-13
-6.55833e-13
-6.4765e-13
-6.35929e-13
-6.22566e-13
-6.17037e-13
-6.13479e-13
-6.10716e-13
-6.03304e-13
-5.92039e-13
-5.81842e-13
-5.74609e-13
-5.69211e-13
-5.60386e-13
-5.49677e-13
-5.38896e-13
-5.35261e-13
-5.30378e-13
-5.23856e-13
-5.12497e-13
-4.98337e-13
-4.9051e-13
-4.87164e-13
-4.83451e-13
-4.7749e-13
-4.72726e-13
-4.62498e-13
-4.46109e-13
-4.29512e-13
-4.24634e-13
-4.23266e-13
-4.20336e-13
-4.18952e-13
-4.12698e-13
-4.03192e-13
-3.94172e-13
-3.84981e-13
-3.75831e-13
-3.67273e-13
-3.59749e-13
-3.51619e-13
-3.44313e-13
-3.37387e-13
-3.29388e-13
-3.21906e-13
-3.10201e-13
-3.02841e-13
-3.00722e-13
-2.98236e-13
-2.95134e-13
-2.87126e-13
-2.80232e-13
-2.71011e-13
-2.60241e-13
-2.5284e-13
-2.45784e-13
-2.41074e-13
-2.32874e-13
-2.22987e-13
-2.16189e-13
-2.09014e-13
-2.0123e-13
-1.88405e-13
-1.81409e-13
-1.79674e-13
-1.75412e-13
-1.69907e-13
-1.63341e-13
-1.53946e-13
-1.40807e-13
-1.28859e-13
-1.22788e-13
-1.14498e-13
-1.09489e-13
-1.03743e-13
-9.76674e-14
-8.92973e-14
-8.16743e-14
-7.826e-14
-7.38352e-14
-6.80158e-14
-6.12969e-14
-5.50843e-14
-5.0288e-14
-4.11574e-14
-3.22372e-14
-2.50059e-14
-1.72507e-14
-9.34394e-15
-2.17472e-15
-6.80235e-13
-6.78808e-13
-6.81316e-13
-6.81363e-13
-6.82294e-13
-6.79405e-13
-6.76416e-13
-6.74279e-13
-6.68825e-13
-6.6335e-13
-6.57854e-13
-6.53477e-13
-6.46079e-13
-6.35695e-13
-6.25682e-13
-6.19889e-13
-6.15465e-13
-6.0937e-13
-6.01682e-13
-5.95008e-13
-5.84289e-13
-5.72811e-13
-5.65968e-13
-5.57925e-13
-5.47732e-13
-5.41473e-13
-5.36904e-13
-5.31051e-13
-5.22891e-13
-5.09633e-13
-5.00544e-13
-4.93423e-13
-4.86766e-13
-4.80464e-13
-4.75019e-13
-4.69444e-13
-4.61263e-13
-4.48656e-13
-4.35439e-13
-4.28037e-13
-4.2321e-13
-4.20217e-13
-4.16329e-13
-4.11319e-13
-4.04018e-13
-3.94121e-13
-3.83924e-13
-3.75636e-13
-3.67061e-13
-3.57653e-13
-3.50726e-13
-3.43441e-13
-3.377e-13
-3.307e-13
-3.23125e-13
-3.12555e-13
-3.0264e-13
-2.99028e-13
-2.96684e-13
-2.93617e-13
-2.89093e-13
-2.80301e-13
-2.7152e-13
-2.61871e-13
-2.54672e-13
-2.46065e-13
-2.38835e-13
-2.31955e-13
-2.25057e-13
-2.17494e-13
-2.09016e-13
-2.01411e-13
-1.92625e-13
-1.84465e-13
-1.79484e-13
-1.71784e-13
-1.68756e-13
-1.61398e-13
-1.51205e-13
-1.39649e-13
-1.29865e-13
-1.23991e-13
-1.18058e-13
-1.11303e-13
-1.02325e-13
-9.58427e-14
-8.74378e-14
-7.99038e-14
-7.68505e-14
-7.24791e-14
-6.90869e-14
-6.37008e-14
-5.84045e-14
-4.83712e-14
-3.97012e-14
-3.27665e-14
-2.44495e-14
-1.73576e-14
-1.04807e-14
-3.83846e-15
-6.79545e-13
-6.78685e-13
-6.80715e-13
-6.83311e-13
-6.84273e-13
-6.80499e-13
-6.75419e-13
-6.73156e-13
-6.6686e-13
-6.63121e-13
-6.58822e-13
-6.52874e-13
-6.45513e-13
-6.37156e-13
-6.27488e-13
-6.20772e-13
-6.14343e-13
-6.08264e-13
-6.02403e-13
-5.9358e-13
-5.83607e-13
-5.74686e-13
-5.66564e-13
-5.58803e-13
-5.49537e-13
-5.43807e-13
-5.37811e-13
-5.29445e-13
-5.20685e-13
-5.08292e-13
-5.00829e-13
-4.93415e-13
-4.86251e-13
-4.82284e-13
-4.77085e-13
-4.70569e-13
-4.59935e-13
-4.4963e-13
-4.38884e-13
-4.28198e-13
-4.2242e-13
-4.17297e-13
-4.16432e-13
-4.11909e-13
-4.0452e-13
-3.94e-13
-3.82294e-13
-3.73351e-13
-3.68302e-13
-3.62962e-13
-3.52068e-13
-3.44066e-13
-3.35594e-13
-3.27773e-13
-3.21008e-13
-3.13343e-13
-3.03302e-13
-3.01125e-13
-3.0052e-13
-2.95345e-13
-2.86926e-13
-2.76013e-13
-2.68665e-13
-2.63018e-13
-2.57001e-13
-2.49116e-13
-2.41173e-13
-2.31343e-13
-2.2378e-13
-2.14437e-13
-2.06436e-13
-1.99149e-13
-1.89905e-13
-1.83997e-13
-1.79024e-13
-1.73482e-13
-1.68202e-13
-1.61298e-13
-1.50858e-13
-1.40788e-13
-1.34418e-13
-1.25739e-13
-1.14261e-13
-1.08086e-13
-1.02259e-13
-9.79688e-14
-9.15647e-14
-8.32353e-14
-7.68171e-14
-7.08509e-14
-6.68393e-14
-6.33277e-14
-5.67515e-14
-4.88877e-14
-3.94263e-14
-3.07655e-14
-2.52537e-14
-1.81631e-14
-1.35888e-14
-4.43811e-15
-6.80433e-13
-6.813e-13
-6.81657e-13
-6.78351e-13
-6.82815e-13
-6.77962e-13
-6.75473e-13
-6.73373e-13
-6.70759e-13
-6.65062e-13
-6.57473e-13
-6.48848e-13
-6.41965e-13
-6.37156e-13
-6.35025e-13
-6.25864e-13
-6.12813e-13
-6.05643e-13
-6.01257e-13
-5.92757e-13
-5.83808e-13
-5.76039e-13
-5.66893e-13
-5.53733e-13
-5.45923e-13
-5.41958e-13
-5.37312e-13
-5.31599e-13
-5.21183e-13
-5.11834e-13
-5.04282e-13
-4.95334e-13
-4.86968e-13
-4.8056e-13
-4.72919e-13
-4.70198e-13
-4.60794e-13
-4.4861e-13
-4.39945e-13
-4.30259e-13
-4.25194e-13
-4.21402e-13
-4.1609e-13
-4.09429e-13
-4.00156e-13
-3.91022e-13
-3.82467e-13
-3.76504e-13
-3.68517e-13
-3.57558e-13
-3.48784e-13
-3.43105e-13
-3.37264e-13
-3.31472e-13
-3.20547e-13
-3.14313e-13
-3.05504e-13
-3.00223e-13
-2.99498e-13
-2.93658e-13
-2.85644e-13
-2.77808e-13
-2.72299e-13
-2.65265e-13
-2.56797e-13
-2.47942e-13
-2.40304e-13
-2.3144e-13
-2.24177e-13
-2.16656e-13
-2.09716e-13
-2.01989e-13
-1.92698e-13
-1.85248e-13
-1.78642e-13
-1.7217e-13
-1.67909e-13
-1.60908e-13
-1.50757e-13
-1.41218e-13
-1.33723e-13
-1.26156e-13
-1.16225e-13
-1.07171e-13
-1.016e-13
-9.63897e-14
-8.98132e-14
-8.23527e-14
-7.51052e-14
-7.12723e-14
-6.88065e-14
-6.41392e-14
-5.81231e-14
-4.75842e-14
-3.89419e-14
-3.30522e-14
-2.67856e-14
-1.77417e-14
-1.11735e-14
-4.19905e-15
-6.80946e-13
-6.84833e-13
-6.8154e-13
-6.77854e-13
-6.75096e-13
-6.78229e-13
-6.77971e-13
-6.75779e-13
-6.69694e-13
-6.62668e-13
-6.54976e-13
-6.50369e-13
-6.41334e-13
-6.35888e-13
-6.34173e-13
-6.28216e-13
-6.1897e-13
-6.09368e-13
-5.98592e-13
-5.8843e-13
-5.83428e-13
-5.75327e-13
-5.62097e-13
-5.53254e-13
-5.49143e-13
-5.43864e-13
-5.38526e-13
-5.30491e-13
-5.2339e-13
-5.1419e-13
-5.04909e-13
-4.96082e-13
-4.86873e-13
-4.80854e-13
-4.74448e-13
-4.69814e-13
-4.59449e-13
-4.48607e-13
-4.38293e-13
-4.30721e-13
-4.25416e-13
-4.23046e-13
-4.16215e-13
-4.08086e-13
-3.98557e-13
-3.88188e-13
-3.81255e-13
-3.7537e-13
-3.67795e-13
-3.61013e-13
-3.52103e-13
-3.44969e-13
-3.37459e-13
-3.31163e-13
-3.20543e-13
-3.13067e-13
-3.06698e-13
-3.0145e-13
-2.98837e-13
-2.92775e-13
-2.85965e-13
-2.78197e-13
-2.70369e-13
-2.6466e-13
-2.58876e-13
-2.52266e-13
-2.4424e-13
-2.32475e-13
-2.24013e-13
-2.14083e-13
-2.06478e-13
-1.99826e-13
-1.92941e-13
-1.85259e-13
-1.75713e-13
-1.69522e-13
-1.66948e-13
-1.60486e-13
-1.53066e-13
-1.43065e-13
-1.34965e-13
-1.28052e-13
-1.15781e-13
-1.0606e-13
-9.87251e-14
-9.36381e-14
-9.01151e-14
-8.47946e-14
-7.71653e-14
-7.24902e-14
-6.78083e-14
-6.37994e-14
-5.62461e-14
-5.05077e-14
-4.26417e-14
-3.33061e-14
-2.64433e-14
-1.9671e-14
-1.07102e-14
-1.72451e-15
-6.7788e-13
-6.86102e-13
-6.82729e-13
-6.75046e-13
-6.79148e-13
-6.81749e-13
-6.79533e-13
-6.75438e-13
-6.67803e-13
-6.56284e-13
-6.52835e-13
-6.4972e-13
-6.45888e-13
-6.3714e-13
-6.31087e-13
-6.29534e-13
-6.1999e-13
-6.1164e-13
-6.03505e-13
-5.9159e-13
-5.80768e-13
-5.70006e-13
-5.54116e-13
-5.50092e-13
-5.49752e-13
-5.47025e-13
-5.38769e-13
-5.30335e-13
-5.227e-13
-5.16489e-13
-5.05775e-13
-4.96194e-13
-4.87982e-13
-4.83348e-13
-4.7886e-13
-4.68581e-13
-4.57662e-13
-4.48776e-13
-4.3803e-13
-4.32749e-13
-4.27705e-13
-4.2339e-13
-4.14653e-13
-4.08161e-13
-3.98715e-13
-3.87126e-13
-3.78623e-13
-3.7242e-13
-3.6809e-13
-3.60877e-13
-3.5339e-13
-3.44526e-13
-3.36601e-13
-3.28935e-13
-3.19476e-13
-3.1428e-13
-3.08942e-13
-3.02367e-13
-2.976e-13
-2.93144e-13
-2.88215e-13
-2.79309e-13
-2.70849e-13
-2.64276e-13
-2.55918e-13
-2.50584e-13
-2.4469e-13
-2.33677e-13
-2.25031e-13
-2.1688e-13
-2.07731e-13
-1.99893e-13
-1.94189e-13
-1.8656e-13
-1.7733e-13
-1.7181e-13
-1.66036e-13
-1.57512e-13
-1.52321e-13
-1.4486e-13
-1.37423e-13
-1.27295e-13
-1.13749e-13
-1.04424e-13
-9.97502e-14
-9.55331e-14
-9.13285e-14
-8.31096e-14
-7.61737e-14
-7.17943e-14
-6.76232e-14
-6.40602e-14
-5.47115e-14
-4.92407e-14
-4.20774e-14
-3.56093e-14
-2.68695e-14
-1.89288e-14
-9.05726e-15
-8.56879e-16
-6.82238e-13
-6.82624e-13
-6.82165e-13
-6.79211e-13
-6.76679e-13
-6.79932e-13
-6.78694e-13
-6.73321e-13
-6.65811e-13
-6.57022e-13
-6.49563e-13
-6.49004e-13
-6.4766e-13
-6.38192e-13
-6.32217e-13
-6.27681e-13
-6.24448e-13
-6.16463e-13
-6.00741e-13
-5.84835e-13
-5.70228e-13
-5.65158e-13
-5.63274e-13
-5.60154e-13
-5.53531e-13
-5.46385e-13
-5.36954e-13
-5.2871e-13
-5.23637e-13
-5.18427e-13
-5.0838e-13
-4.95066e-13
-4.88495e-13
-4.79954e-13
-4.73922e-13
-4.66573e-13
-4.595e-13
-4.53063e-13
-4.42291e-13
-4.31548e-13
-4.24214e-13
-4.18497e-13
-4.13384e-13
-4.08683e-13
-4.01442e-13
-3.91287e-13
-3.80341e-13
-3.71421e-13
-3.65083e-13
-3.60951e-13
-3.53917e-13
-3.4796e-13
-3.39283e-13
-3.29276e-13
-3.21095e-13
-3.15129e-13
-3.08237e-13
-2.97874e-13
-2.94175e-13
-2.92792e-13
-2.92495e-13
-2.84236e-13
-2.73078e-13
-2.62257e-13
-2.53264e-13
-2.47074e-13
-2.39616e-13
-2.29918e-13
-2.21388e-13
-2.16575e-13
-2.14885e-13
-2.05154e-13
-1.95183e-13
-1.89172e-13
-1.80065e-13
-1.70415e-13
-1.62079e-13
-1.53854e-13
-1.48644e-13
-1.43709e-13
-1.36735e-13
-1.26805e-13
-1.18144e-13
-1.09453e-13
-1.02419e-13
-9.30623e-14
-8.88406e-14
-8.40694e-14
-7.71246e-14
-7.33112e-14
-6.71149e-14
-5.97591e-14
-5.46428e-14
-4.82874e-14
-4.15353e-14
-3.36834e-14
-2.66477e-14
-1.7465e-14
-9.36006e-15
-2.85611e-15
-6.80831e-13
-6.80028e-13
-6.78418e-13
-6.80441e-13
-6.82379e-13
-6.81816e-13
-6.77881e-13
-6.71561e-13
-6.638e-13
-6.57855e-13
-6.53196e-13
-6.48299e-13
-6.44313e-13
-6.36112e-13
-6.32346e-13
-6.28095e-13
-6.24271e-13
-6.1636e-13
-5.96838e-13
-5.86873e-13
-5.81627e-13
-5.74019e-13
-5.63052e-13
-5.53781e-13
-5.50652e-13
-5.4323e-13
-5.3365e-13
-5.27896e-13
-5.21873e-13
-5.15692e-13
-5.08818e-13
-4.99942e-13
-4.93605e-13
-4.86118e-13
-4.74945e-13
-4.66032e-13
-4.57867e-13
-4.48922e-13
-4.41143e-13
-4.31885e-13
-4.24886e-13
-4.20674e-13
-4.1395e-13
-4.11643e-13
-4.06054e-13
-3.91786e-13
-3.76767e-13
-3.64814e-13
-3.63994e-13
-3.62095e-13
-3.57808e-13
-3.51223e-13
-3.39478e-13
-3.29322e-13
-3.18721e-13
-3.12697e-13
-3.0876e-13
-3.03229e-13
-2.95937e-13
-2.90898e-13
-2.88927e-13
-2.81685e-13
-2.74089e-13
-2.65786e-13
-2.57847e-13
-2.49167e-13
-2.40866e-13
-2.31704e-13
-2.25466e-13
-2.18482e-13
-2.11308e-13
-2.05287e-13
-1.93825e-13
-1.81889e-13
-1.75249e-13
-1.70301e-13
-1.65374e-13
-1.5748e-13
-1.52402e-13
-1.46271e-13
-1.37542e-13
-1.2699e-13
-1.15053e-13
-1.04678e-13
-9.67843e-14
-9.27116e-14
-8.97809e-14
-8.54247e-14
-7.85838e-14
-7.19787e-14
-6.4981e-14
-5.9323e-14
-5.47343e-14
-4.95931e-14
-4.03058e-14
-3.21745e-14
-2.5989e-14
-1.88722e-14
-1.06901e-14
-1.54951e-15
-6.8272e-13
-6.83756e-13
-6.79697e-13
-6.75167e-13
-6.77658e-13
-6.7979e-13
-6.79227e-13
-6.71874e-13
-6.61548e-13
-6.59258e-13
-6.53942e-13
-6.45349e-13
-6.39229e-13
-6.36518e-13
-6.34364e-13
-6.30303e-13
-6.24104e-13
-6.14413e-13
-6.00999e-13
-5.88495e-13
-5.79919e-13
-5.71335e-13
-5.66059e-13
-5.5963e-13
-5.51437e-13
-5.41387e-13
-5.32546e-13
-5.27716e-13
-5.24871e-13
-5.16246e-13
-5.0977e-13
-5.01409e-13
-4.90753e-13
-4.8019e-13
-4.74849e-13
-4.67147e-13
-4.57545e-13
-4.48816e-13
-4.42163e-13
-4.35754e-13
-4.30704e-13
-4.23018e-13
-4.10924e-13
-4.04029e-13
-3.9933e-13
-3.92375e-13
-3.81209e-13
-3.727e-13
-3.66735e-13
-3.603e-13
-3.54289e-13
-3.47559e-13
-3.38519e-13
-3.30384e-13
-3.22523e-13
-3.17313e-13
-3.1032e-13
-3.03665e-13
-2.96616e-13
-2.9213e-13
-2.86339e-13
-2.79207e-13
-2.72809e-13
-2.65355e-13
-2.55444e-13
-2.45809e-13
-2.40027e-13
-2.32717e-13
-2.25051e-13
-2.17738e-13
-2.09826e-13
-2.05614e-13
-1.97532e-13
-1.87704e-13
-1.76691e-13
-1.70507e-13
-1.66334e-13
-1.58786e-13
-1.52809e-13
-1.44297e-13
-1.37506e-13
-1.27651e-13
-1.15582e-13
-1.06095e-13
-9.89012e-14
-9.3064e-14
-9.01972e-14
-8.47893e-14
-7.82802e-14
-7.17716e-14
-6.43441e-14
-5.87031e-14
-5.18602e-14
-4.66419e-14
-3.97862e-14
-3.22573e-14
-2.49446e-14
-1.58237e-14
-7.54047e-15
7.37197e-16
-6.82191e-13
-6.81699e-13
-6.82152e-13
-6.78718e-13
-6.75943e-13
-6.77455e-13
-6.76845e-13
-6.74069e-13
-6.67388e-13
-6.55959e-13
-6.487e-13
-6.4266e-13
-6.3988e-13
-6.38746e-13
-6.35449e-13
-6.29401e-13
-6.20801e-13
-6.15544e-13
-6.07729e-13
-5.92761e-13
-5.79866e-13
-5.67762e-13
-5.62228e-13
-5.55823e-13
-5.52088e-13
-5.45777e-13
-5.36524e-13
-5.30084e-13
-5.23711e-13
-5.16843e-13
-5.09952e-13
-5.01204e-13
-4.913e-13
-4.79772e-13
-4.72234e-13
-4.65648e-13
-4.59946e-13
-4.49564e-13
-4.43696e-13
-4.36761e-13
-4.27144e-13
-4.17695e-13
-4.09915e-13
-4.04242e-13
-4.01712e-13
-3.96802e-13
-3.85351e-13
-3.74454e-13
-3.67046e-13
-3.58566e-13
-3.52001e-13
-3.47192e-13
-3.3978e-13
-3.31509e-13
-3.23009e-13
-3.16097e-13
-3.10012e-13
-3.03077e-13
-2.96586e-13
-2.93681e-13
-2.8956e-13
-2.84887e-13
-2.78217e-13
-2.66102e-13
-2.52881e-13
-2.39815e-13
-2.32671e-13
-2.2811e-13
-2.24211e-13
-2.23087e-13
-2.16954e-13
-2.0725e-13
-1.99674e-13
-1.89398e-13
-1.77236e-13
-1.68332e-13
-1.63705e-13
-1.57225e-13
-1.52467e-13
-1.43613e-13
-1.36471e-13
-1.27921e-13
-1.17371e-13
-1.09165e-13
-9.977e-14
-9.16586e-14
-8.75757e-14
-8.20391e-14
-7.741e-14
-7.11705e-14
-6.29948e-14
-5.45825e-14
-4.86771e-14
-4.42798e-14
-3.62813e-14
-2.84048e-14
-2.11662e-14
-1.43313e-14
-5.75109e-15
1.86346e-16
-6.80456e-13
-6.79753e-13
-6.78808e-13
-6.80224e-13
-6.80421e-13
-6.75508e-13
-6.73641e-13
-6.70563e-13
-6.65498e-13
-6.6035e-13
-6.49769e-13
-6.41513e-13
-6.4034e-13
-6.40973e-13
-6.36063e-13
-6.31451e-13
-6.20229e-13
-6.13359e-13
-6.06416e-13
-5.93774e-13
-5.8351e-13
-5.68805e-13
-5.59278e-13
-5.54675e-13
-5.49451e-13
-5.43839e-13
-5.38584e-13
-5.31753e-13
-5.25358e-13
-5.18029e-13
-5.09314e-13
-5.00079e-13
-4.90188e-13
-4.81424e-13
-4.75876e-13
-4.67671e-13
-4.58674e-13
-4.4958e-13
-4.44185e-13
-4.3499e-13
-4.27484e-13
-4.17847e-13
-4.1084e-13
-4.07528e-13
-4.03714e-13
-3.95329e-13
-3.82998e-13
-3.71044e-13
-3.64497e-13
-3.5747e-13
-3.54508e-13
-3.49208e-13
-3.39139e-13
-3.31128e-13
-3.22501e-13
-3.19261e-13
-3.12645e-13
-3.05348e-13
-2.96435e-13
-2.88384e-13
-2.8572e-13
-2.78119e-13
-2.73512e-13
-2.68432e-13
-2.55642e-13
-2.42516e-13
-2.33579e-13
-2.27347e-13
-2.2454e-13
-2.25479e-13
-2.17506e-13
-2.0952e-13
-2.00136e-13
-1.88983e-13
-1.75599e-13
-1.64881e-13
-1.63353e-13
-1.59851e-13
-1.55403e-13
-1.46651e-13
-1.39563e-13
-1.30999e-13
-1.16964e-13
-1.06195e-13
-9.58141e-14
-8.64918e-14
-8.77433e-14
-8.51162e-14
-7.73426e-14
-7.00386e-14
-6.09023e-14
-5.40343e-14
-4.80351e-14
-4.22006e-14
-3.76998e-14
-3.10249e-14
-1.8202e-14
-6.79993e-15
1.12479e-15
-7.35143e-16
-6.82587e-13
-6.80889e-13
-6.79022e-13
-6.80073e-13
-6.7909e-13
-6.74374e-13
-6.74729e-13
-6.71432e-13
-6.65045e-13
-6.58128e-13
-6.50796e-13
-6.44089e-13
-6.36926e-13
-6.34545e-13
-6.32374e-13
-6.27068e-13
-6.22962e-13
-6.1791e-13
-6.08433e-13
-5.94736e-13
-5.82598e-13
-5.74895e-13
-5.65022e-13
-5.55688e-13
-5.49675e-13
-5.39166e-13
-5.35236e-13
-5.31601e-13
-5.26574e-13
-5.19885e-13
-5.10961e-13
-5.00597e-13
-4.89228e-13
-4.79049e-13
-4.73348e-13
-4.65927e-13
-4.60199e-13
-4.52313e-13
-4.46214e-13
-4.34283e-13
-4.26101e-13
-4.1527e-13
-4.10611e-13
-4.09393e-13
-4.02483e-13
-3.94911e-13
-3.83905e-13
-3.73794e-13
-3.6544e-13
-3.57043e-13
-3.51514e-13
-3.47753e-13
-3.39689e-13
-3.33872e-13
-3.26734e-13
-3.18175e-13
-3.11507e-13
-3.03988e-13
-2.95999e-13
-2.90278e-13
-2.87767e-13
-2.87075e-13
-2.77479e-13
-2.65917e-13
-2.49265e-13
-2.40248e-13
-2.33859e-13
-2.29573e-13
-2.24096e-13
-2.20846e-13
-2.14781e-13
-2.12461e-13
-2.05907e-13
-1.93412e-13
-1.74989e-13
-1.59843e-13
-1.57193e-13
-1.60097e-13
-1.56521e-13
-1.46684e-13
-1.38384e-13
-1.28585e-13
-1.18272e-13
-1.09502e-13
-9.90817e-14
-8.90462e-14
-8.29181e-14
-8.1608e-14
-7.58843e-14
-6.85291e-14
-5.88882e-14
-5.32562e-14
-4.75859e-14
-4.07978e-14
-3.3781e-14
-2.80289e-14
-1.69098e-14
-7.47276e-15
-1.42193e-15
-5.63173e-16
-6.80544e-13
-6.79829e-13
-6.72941e-13
-6.80947e-13
-6.8064e-13
-6.78008e-13
-6.71912e-13
-6.66154e-13
-6.61186e-13
-6.53944e-13
-6.50053e-13
-6.45778e-13
-6.44281e-13
-6.38683e-13
-6.33782e-13
-6.30102e-13
-6.25002e-13
-6.18605e-13
-6.08875e-13
-5.9507e-13
-5.77741e-13
-5.65018e-13
-5.57299e-13
-5.54608e-13
-5.49132e-13
-5.43846e-13
-5.3714e-13
-5.31139e-13
-5.27147e-13
-5.22312e-13
-5.13561e-13
-5.00921e-13
-4.91126e-13
-4.82851e-13
-4.77698e-13
-4.6769e-13
-4.57498e-13
-4.51593e-13
-4.44604e-13
-4.34111e-13
-4.24227e-13
-4.19577e-13
-4.14364e-13
-4.08034e-13
-3.98211e-13
-3.887e-13
-3.81575e-13
-3.73974e-13
-3.66977e-13
-3.60522e-13
-3.5402e-13
-3.48348e-13
-3.38001e-13
-3.29086e-13
-3.29233e-13
-3.28246e-13
-3.14389e-13
-3.00301e-13
-2.9141e-13
-2.84906e-13
-2.82612e-13
-2.79585e-13
-2.78125e-13
-2.69044e-13
-2.53676e-13
-2.45168e-13
-2.32599e-13
-2.30252e-13
-2.24384e-13
-2.18973e-13
-2.14113e-13
-2.12693e-13
-2.06244e-13
-1.91863e-13
-1.7662e-13
-1.63594e-13
-1.59294e-13
-1.61057e-13
-1.52979e-13
-1.43394e-13
-1.36844e-13
-1.2914e-13
-1.20778e-13
-1.10471e-13
-1.00102e-13
-8.87326e-14
-8.22375e-14
-8.105e-14
-7.39436e-14
-6.63564e-14
-5.87442e-14
-5.22008e-14
-4.49235e-14
-3.93314e-14
-3.42804e-14
-2.67606e-14
-1.68634e-14
-8.5739e-15
-4.74097e-16
7.9449e-16
-6.77232e-13
-6.85731e-13
-6.80473e-13
-6.76359e-13
-6.76995e-13
-6.76027e-13
-6.71402e-13
-6.70692e-13
-6.62017e-13
-6.50198e-13
-6.46027e-13
-6.45263e-13
-6.42944e-13
-6.40413e-13
-6.36352e-13
-6.27805e-13
-6.17804e-13
-6.11229e-13
-6.06032e-13
-5.96841e-13
-5.89571e-13
-5.81557e-13
-5.70789e-13
-5.54774e-13
-5.41596e-13
-5.34977e-13
-5.35978e-13
-5.32474e-13
-5.27594e-13
-5.23514e-13
-5.14177e-13
-5.02445e-13
-4.8824e-13
-4.76407e-13
-4.69836e-13
-4.64653e-13
-4.63301e-13
-4.57106e-13
-4.45e-13
-4.37575e-13
-4.26325e-13
-4.16776e-13
-4.13115e-13
-4.06058e-13
-3.96994e-13
-3.88235e-13
-3.79096e-13
-3.74287e-13
-3.69532e-13
-3.62549e-13
-3.54982e-13
-3.46412e-13
-3.39819e-13
-3.32686e-13
-3.27703e-13
-3.22166e-13
-3.1649e-13
-3.08263e-13
-3.00269e-13
-2.89876e-13
-2.81496e-13
-2.75124e-13
-2.69941e-13
-2.64734e-13
-2.55423e-13
-2.47298e-13
-2.38132e-13
-2.31172e-13
-2.24953e-13
-2.20278e-13
-2.16377e-13
-2.08517e-13
-2.00808e-13
-1.91997e-13
-1.78923e-13
-1.68259e-13
-1.59305e-13
-1.56256e-13
-1.52147e-13
-1.44271e-13
-1.37787e-13
-1.27317e-13
-1.1884e-13
-1.09026e-13
-9.86167e-14
-8.96058e-14
-8.44677e-14
-7.93721e-14
-7.43524e-14
-6.59631e-14
-5.8935e-14
-5.43973e-14
-4.70914e-14
-3.89183e-14
-3.03011e-14
-2.21337e-14
-1.55564e-14
-9.93761e-15
-2.88758e-15
3.06469e-16
-6.76143e-13
-6.80218e-13
-6.81299e-13
-6.77235e-13
-6.76873e-13
-6.78084e-13
-6.68793e-13
-6.5953e-13
-6.55398e-13
-6.53695e-13
-6.51817e-13
-6.49069e-13
-6.46071e-13
-6.41304e-13
-6.36374e-13
-6.28762e-13
-6.22408e-13
-6.18842e-13
-6.10482e-13
-5.9613e-13
-5.79108e-13
-5.6568e-13
-5.58399e-13
-5.49971e-13
-5.48319e-13
-5.45487e-13
-5.39867e-13
-5.31373e-13
-5.2581e-13
-5.2327e-13
-5.16424e-13
-5.05642e-13
-4.92686e-13
-4.7662e-13
-4.66389e-13
-4.64643e-13
-4.64072e-13
-4.5809e-13
-4.50134e-13
-4.38565e-13
-4.24816e-13
-4.14967e-13
-4.06704e-13
-4.02435e-13
-3.97068e-13
-3.90431e-13
-3.83296e-13
-3.75106e-13
-3.69261e-13
-3.6871e-13
-3.61154e-13
-3.45365e-13
-3.35738e-13
-3.28411e-13
-3.23218e-13
-3.20813e-13
-3.16805e-13
-3.07653e-13
-2.9596e-13
-2.87847e-13
-2.84148e-13
-2.79642e-13
-2.73047e-13
-2.64738e-13
-2.51673e-13
-2.42145e-13
-2.36432e-13
-2.33519e-13
-2.27786e-13
-2.20144e-13
-2.13808e-13
-2.08367e-13
-2.00914e-13
-1.90412e-13
-1.79689e-13
-1.65284e-13
-1.57469e-13
-1.55418e-13
-1.5446e-13
-1.49056e-13
-1.40563e-13
-1.29955e-13
-1.18165e-13
-1.06437e-13
-9.74615e-14
-8.96741e-14
-8.43001e-14
-7.79206e-14
-7.1805e-14
-6.49653e-14
-5.88786e-14
-5.32981e-14
-4.72525e-14
-3.88978e-14
-2.94975e-14
-2.00634e-14
-1.24754e-14
-7.18487e-15
-1.58688e-15
-9.12097e-17
-6.74694e-13
-6.81923e-13
-6.82162e-13
-6.78473e-13
-6.75493e-13
-6.79919e-13
-6.76993e-13
-6.65011e-13
-6.49317e-13
-6.46492e-13
-6.45982e-13
-6.47419e-13
-6.46424e-13
-6.44496e-13
-6.38979e-13
-6.29591e-13
-6.2056e-13
-6.1392e-13
-6.0238e-13
-5.93929e-13
-5.86619e-13
-5.73711e-13
-5.62235e-13
-5.4968e-13
-5.48037e-13
-5.45319e-13
-5.41727e-13
-5.35371e-13
-5.27049e-13
-5.22054e-13
-5.13443e-13
-5.01744e-13
-4.91669e-13
-4.77073e-13
-4.65071e-13
-4.6281e-13
-4.62835e-13
-4.58777e-13
-4.4983e-13
-4.39373e-13
-4.23133e-13
-4.13199e-13
-4.09868e-13
-4.04977e-13
-3.97464e-13
-3.89484e-13
-3.85527e-13
-3.79186e-13
-3.6999e-13
-3.59849e-13
-3.53143e-13
-3.47413e-13
-3.3949e-13
-3.27409e-13
-3.27319e-13
-3.24011e-13
-3.15584e-13
-3.09515e-13
-3.02616e-13
-2.90145e-13
-2.82663e-13
-2.7707e-13
-2.68746e-13
-2.61603e-13
-2.51671e-13
-2.44123e-13
-2.34941e-13
-2.31166e-13
-2.24622e-13
-2.22673e-13
-2.15932e-13
-2.10849e-13
-2.03891e-13
-1.90437e-13
-1.7667e-13
-1.65138e-13
-1.60272e-13
-1.55562e-13
-1.51154e-13
-1.45629e-13
-1.39489e-13
-1.30554e-13
-1.18652e-13
-1.06743e-13
-9.99403e-14
-9.15438e-14
-8.4297e-14
-7.82023e-14
-7.22305e-14
-6.3489e-14
-5.68057e-14
-5.09738e-14
-4.35669e-14
-3.55256e-14
-2.87787e-14
-2.37168e-14
-1.14846e-14
-4.04326e-15
1.18211e-15
5.77819e-16
-6.80232e-13
-6.7961e-13
-6.75883e-13
-6.72178e-13
-6.74165e-13
-6.69465e-13
-6.6612e-13
-6.67135e-13
-6.64188e-13
-6.57655e-13
-6.53692e-13
-6.46359e-13
-6.41071e-13
-6.39971e-13
-6.37276e-13
-6.31368e-13
-6.23186e-13
-6.19492e-13
-6.09155e-13
-5.93661e-13
-5.75893e-13
-5.64632e-13
-5.58572e-13
-5.56249e-13
-5.49287e-13
-5.46065e-13
-5.41661e-13
-5.34194e-13
-5.27631e-13
-5.21098e-13
-5.13581e-13
-5.01252e-13
-4.89476e-13
-4.7705e-13
-4.68137e-13
-4.6549e-13
-4.66096e-13
-4.58764e-13
-4.48299e-13
-4.3832e-13
-4.24097e-13
-4.11563e-13
-4.08342e-13
-4.04811e-13
-4.00658e-13
-3.90302e-13
-3.81199e-13
-3.77984e-13
-3.73044e-13
-3.62596e-13
-3.52682e-13
-3.47646e-13
-3.41274e-13
-3.3041e-13
-3.2315e-13
-3.19842e-13
-3.13476e-13
-3.08648e-13
-3.03465e-13
-2.94935e-13
-2.84532e-13
-2.77475e-13
-2.68533e-13
-2.61436e-13
-2.54687e-13
-2.4522e-13
-2.35199e-13
-2.26286e-13
-2.22133e-13
-2.23162e-13
-2.14784e-13
-2.09231e-13
-2.02478e-13
-1.91023e-13
-1.79915e-13
-1.68202e-13
-1.574e-13
-1.51448e-13
-1.50554e-13
-1.49765e-13
-1.42984e-13
-1.28804e-13
-1.17446e-13
-1.04571e-13
-9.94766e-14
-9.36272e-14
-8.66115e-14
-7.67784e-14
-6.81143e-14
-6.24113e-14
-5.66187e-14
-4.98213e-14
-4.46468e-14
-3.67995e-14
-2.81279e-14
-1.97994e-14
-1.18963e-14
-5.20151e-15
1.12021e-15
1.97593e-15
-6.7942e-13
-6.78515e-13
-6.75747e-13
-6.73389e-13
-6.79292e-13
-6.76837e-13
-6.66352e-13
-6.60483e-13
-6.56875e-13
-6.54658e-13
-6.53724e-13
-6.52801e-13
-6.42665e-13
-6.35558e-13
-6.33132e-13
-6.28615e-13
-6.25003e-13
-6.18066e-13
-6.0707e-13
-5.91777e-13
-5.789e-13
-5.66133e-13
-5.57178e-13
-5.56479e-13
-5.55357e-13
-5.46086e-13
-5.38767e-13
-5.34423e-13
-5.31209e-13
-5.23495e-13
-5.15472e-13
-5.02288e-13
-4.88925e-13
-4.76282e-13
-4.65282e-13
-4.63917e-13
-4.61068e-13
-4.5796e-13
-4.52043e-13
-4.41267e-13
-4.26838e-13
-4.15933e-13
-4.08776e-13
-3.99706e-13
-3.97644e-13
-3.91399e-13
-3.84166e-13
-3.74939e-13
-3.68711e-13
-3.63039e-13
-3.53604e-13
-3.47593e-13
-3.40932e-13
-3.31706e-13
-3.28679e-13
-3.23735e-13
-3.12255e-13
-3.03385e-13
-3.0023e-13
-2.93089e-13
-2.86221e-13
-2.77038e-13
-2.70194e-13
-2.63584e-13
-2.54767e-13
-2.43506e-13
-2.36732e-13
-2.26834e-13
-2.19005e-13
-2.17474e-13
-2.14528e-13
-2.09918e-13
-2.03895e-13
-1.91339e-13
-1.79117e-13
-1.68375e-13
-1.60042e-13
-1.52989e-13
-1.52377e-13
-1.48452e-13
-1.40593e-13
-1.29861e-13
-1.18526e-13
-1.06293e-13
-9.80457e-14
-8.89874e-14
-8.24881e-14
-7.84229e-14
-7.22129e-14
-6.25067e-14
-5.55649e-14
-4.83699e-14
-4.17616e-14
-3.45883e-14
-2.66482e-14
-2.08548e-14
-1.32967e-14
-3.87463e-15
1.62837e-15
1.80244e-16
-6.74705e-13
-6.77114e-13
-6.77156e-13
-6.75702e-13
-6.74439e-13
-6.69139e-13
-6.65473e-13
-6.62753e-13
-6.61899e-13
-6.59169e-13
-6.54874e-13
-6.51303e-13
-6.45279e-13
-6.37491e-13
-6.31974e-13
-6.257e-13
-6.22996e-13
-6.16348e-13
-6.04928e-13
-5.93828e-13
-5.79419e-13
-5.67053e-13
-5.61748e-13
-5.57044e-13
-5.48854e-13
-5.44174e-13
-5.422e-13
-5.37986e-13
-5.30528e-13
-5.20133e-13
-5.11345e-13
-5.01201e-13
-4.88565e-13
-4.77367e-13
-4.6811e-13
-4.68437e-13
-4.67357e-13
-4.59138e-13
-4.47841e-13
-4.34591e-13
-4.24484e-13
-4.18772e-13
-4.10226e-13
-4.00429e-13
-3.95239e-13
-3.88141e-13
-3.86064e-13
-3.84135e-13
-3.73261e-13
-3.59917e-13
-3.51177e-13
-3.48695e-13
-3.41863e-13
-3.31085e-13
-3.26817e-13
-3.2256e-13
-3.15537e-13
-3.0602e-13
-2.98645e-13
-2.91471e-13
-2.88522e-13
-2.80195e-13
-2.7093e-13
-2.62548e-13
-2.51472e-13
-2.42982e-13
-2.34595e-13
-2.28185e-13
-2.20354e-13
-2.15541e-13
-2.10908e-13
-2.10303e-13
-2.0494e-13
-1.91503e-13
-1.79197e-13
-1.68402e-13
-1.61859e-13
-1.55819e-13
-1.48321e-13
-1.4027e-13
-1.41955e-13
-1.35689e-13
-1.19597e-13
-1.07154e-13
-9.74161e-14
-8.71166e-14
-8.04936e-14
-7.74471e-14
-7.16017e-14
-6.24887e-14
-5.45584e-14
-4.9098e-14
-4.20646e-14
-3.34571e-14
-2.85956e-14
-1.94212e-14
-1.04846e-14
-2.64611e-15
2.44374e-15
-3.34165e-16
-6.80472e-13
-6.77985e-13
-6.75909e-13
-6.73319e-13
-6.69104e-13
-6.67117e-13
-6.64517e-13
-6.64672e-13
-6.63087e-13
-6.59762e-13
-6.53813e-13
-6.5037e-13
-6.45553e-13
-6.40073e-13
-6.33352e-13
-6.24445e-13
-6.15443e-13
-6.09618e-13
-6.04863e-13
-5.97645e-13
-5.81994e-13
-5.70673e-13
-5.62374e-13
-5.54962e-13
-5.50357e-13
-5.46155e-13
-5.42717e-13
-5.38898e-13
-5.28942e-13
-5.22259e-13
-5.12552e-13
-5.00425e-13
-4.87436e-13
-4.7532e-13
-4.70359e-13
-4.68257e-13
-4.64611e-13
-4.57792e-13
-4.47336e-13
-4.36252e-13
-4.25019e-13
-4.15968e-13
-4.10966e-13
-4.04665e-13
-3.99159e-13
-3.9227e-13
-3.83008e-13
-3.76175e-13
-3.71823e-13
-3.63751e-13
-3.57408e-13
-3.48664e-13
-3.39974e-13
-3.32106e-13
-3.25981e-13
-3.18289e-13
-3.14538e-13
-3.07881e-13
-2.99054e-13
-2.9227e-13
-2.89238e-13
-2.82391e-13
-2.7175e-13
-2.60979e-13
-2.52357e-13
-2.43602e-13
-2.3425e-13
-2.2669e-13
-2.20349e-13
-2.1569e-13
-2.12716e-13
-2.11133e-13
-2.03918e-13
-1.8922e-13
-1.78282e-13
-1.68419e-13
-1.61136e-13
-1.54656e-13
-1.50739e-13
-1.45535e-13
-1.38594e-13
-1.3057e-13
-1.20196e-13
-1.096e-13
-1.0166e-13
-8.82081e-14
-7.9677e-14
-7.45546e-14
-7.07552e-14
-5.97611e-14
-5.21686e-14
-4.83167e-14
-4.54304e-14
-3.44917e-14
-2.44733e-14
-1.8453e-14
-1.15661e-14
-7.91279e-16
1.08453e-15
-1.1562e-15
-6.82487e-13
-6.77036e-13
-6.71973e-13
-6.72162e-13
-6.65604e-13
-6.66555e-13
-6.648e-13
-6.65829e-13
-6.65701e-13
-6.57957e-13
-6.53091e-13
-6.51221e-13
-6.49493e-13
-6.4163e-13
-6.33349e-13
-6.26814e-13
-6.19633e-13
-6.09769e-13
-6.0315e-13
-5.91448e-13
-5.82122e-13
-5.71029e-13
-5.59711e-13
-5.53229e-13
-5.49211e-13
-5.4947e-13
-5.43485e-13
-5.37676e-13
-5.28879e-13
-5.21376e-13
-5.12854e-13
-5.02408e-13
-4.87688e-13
-4.77482e-13
-4.68884e-13
-4.64891e-13
-4.63402e-13
-4.58038e-13
-4.47893e-13
-4.36637e-13
-4.28104e-13
-4.18571e-13
-4.09919e-13
-4.03372e-13
-3.97466e-13
-3.90915e-13
-3.83558e-13
-3.78594e-13
-3.73896e-13
-3.64879e-13
-3.54702e-13
-3.45071e-13
-3.39558e-13
-3.34275e-13
-3.28738e-13
-3.22682e-13
-3.1543e-13
-3.06679e-13
-3.01181e-13
-2.96223e-13
-2.90767e-13
-2.81409e-13
-2.68565e-13
-2.59538e-13
-2.5077e-13
-2.42202e-13
-2.32956e-13
-2.27482e-13
-2.20323e-13
-2.18822e-13
-2.13881e-13
-2.07615e-13
-1.98206e-13
-1.87183e-13
-1.77026e-13
-1.6682e-13
-1.64237e-13
-1.60931e-13
-1.51711e-13
-1.42757e-13
-1.35928e-13
-1.28505e-13
-1.19177e-13
-1.08491e-13
-9.71705e-14
-8.53967e-14
-8.05878e-14
-7.65697e-14
-6.95578e-14
-6.44911e-14
-5.86653e-14
-4.81393e-14
-3.95245e-14
-3.26396e-14
-2.4471e-14
-1.60725e-14
-9.46899e-15
-5.42484e-15
-2.01783e-15
-1.52224e-15
-6.80323e-13
-6.75397e-13
-6.73573e-13
-6.71482e-13
-6.69178e-13
-6.66159e-13
-6.61999e-13
-6.6481e-13
-6.64976e-13
-6.61172e-13
-6.55544e-13
-6.5011e-13
-6.48655e-13
-6.40182e-13
-6.30638e-13
-6.21894e-13
-6.14123e-13
-6.09981e-13
-6.03829e-13
-5.9388e-13
-5.83421e-13
-5.72556e-13
-5.62129e-13
-5.56549e-13
-5.53661e-13
-5.47292e-13
-5.40625e-13
-5.32706e-13
-5.25294e-13
-5.214e-13
-5.13657e-13
-5.06604e-13
-4.95108e-13
-4.83554e-13
-4.67383e-13
-4.61766e-13
-4.59534e-13
-4.55037e-13
-4.4695e-13
-4.36511e-13
-4.29707e-13
-4.18938e-13
-4.12251e-13
-4.02155e-13
-3.97996e-13
-3.91918e-13
-3.87564e-13
-3.79965e-13
-3.7048e-13
-3.58638e-13
-3.53736e-13
-3.50258e-13
-3.42987e-13
-3.3109e-13
-3.24495e-13
-3.18337e-13
-3.11235e-13
-3.09409e-13
-3.021e-13
-2.99753e-13
-2.98818e-13
-2.79271e-13
-2.66843e-13
-2.61089e-13
-2.53545e-13
-2.44333e-13
-2.35121e-13
-2.28445e-13
-2.18037e-13
-2.13777e-13
-2.09947e-13
-2.09998e-13
-2.02444e-13
-1.90019e-13
-1.74921e-13
-1.63148e-13
-1.63613e-13
-1.59492e-13
-1.51234e-13
-1.45107e-13
-1.3774e-13
-1.28863e-13
-1.17702e-13
-1.07157e-13
-9.80679e-14
-8.6801e-14
-7.97188e-14
-7.64076e-14
-7.04404e-14
-6.04482e-14
-5.33336e-14
-4.77788e-14
-3.99757e-14
-3.23293e-14
-2.76354e-14
-2.14717e-14
-9.72187e-15
-2.68329e-15
2.23432e-15
-2.185e-16
-6.7525e-13
-6.77167e-13
-6.76936e-13
-6.71177e-13
-6.66693e-13
-6.67048e-13
-6.65661e-13
-6.621e-13
-6.62988e-13
-6.59987e-13
-6.57128e-13
-6.53451e-13
-6.46988e-13
-6.38746e-13
-6.31405e-13
-6.24984e-13
-6.2085e-13
-6.16075e-13
-6.05989e-13
-5.91835e-13
-5.75912e-13
-5.63409e-13
-5.59226e-13
-5.58741e-13
-5.5489e-13
-5.46837e-13
-5.37844e-13
-5.32745e-13
-5.25147e-13
-5.22401e-13
-5.17126e-13
-5.0363e-13
-4.90826e-13
-4.81827e-13
-4.73198e-13
-4.6719e-13
-4.61512e-13
-4.53879e-13
-4.46395e-13
-4.37832e-13
-4.28074e-13
-4.18484e-13
-4.09319e-13
-4.04334e-13
-4.02541e-13
-3.93577e-13
-3.85561e-13
-3.74627e-13
-3.71634e-13
-3.6465e-13
-3.53511e-13
-3.48908e-13
-3.42265e-13
-3.34049e-13
-3.27493e-13
-3.1554e-13
-3.0523e-13
-3.0758e-13
-3.09699e-13
-3.01297e-13
-2.91712e-13
-2.81199e-13