/*--------------------------------*- C++ -*----------------------------------*\
| =========                 |                                                 |
| \\      /  F ield         | OpenFOAM: The Open Source CFD Toolbox           |
|  \\    /   O peration     | Version:  v2012                                 |
|   \\  /    A nd           | Website:  www.openfoam.com                      |
|    \\/     M anipulation  |                                                 |
\*---------------------------------------------------------------------------*/
FoamFile
{
    version     2.0;
    format      ascii;
    class       volVectorField;
    location    "0";
    object      uRec;
}
// * * * * * * * * * * * * * * * * * * * * * * * * * * * * * * * * * * * * * //

dimensions      [0 1 -1 0 0 0 0];


internalField   nonuniform List<vector> 
4000
(
(1 5.78911e-16 0)
(1 1.10704e-15 0)
(1 -1.85745e-15 0)
(1 4.63437e-16 0)
(1 -5.42625e-16 0)
(1 -2.90947e-16 0)
(1 9.30171e-16 0)
(1 1.33872e-15 0)
(1 2.15722e-15 0)
(1 -2.54105e-15 0)
(1 -1.57834e-15 0)
(1 4.24452e-16 0)
(1 1.83951e-15 0)
(1 1.08255e-15 0)
(1 7.23459e-16 0)
(1 3.71593e-16 0)
(1 -2.06628e-16 0)
(1 -1.39766e-15 0)
(1 4.20594e-16 0)
(1 3.39355e-17 0)
(1 6.00976e-16 0)
(1 -3.6099e-15 0)
(1 -1.75424e-15 0)
(1 -2.28591e-15 0)
(1 -2.77988e-16 0)
(1 -1.09131e-15 0)
(1 4.26575e-17 0)
(1 9.82176e-16 0)
(1 1.49112e-15 0)
(1 2.59968e-15 0)
(1 2.22771e-15 0)
(1 -7.74597e-17 0)
(1 -6.31981e-16 0)
(1 -1.05669e-16 0)
(1 -6.93986e-16 0)
(1 5.54268e-16 0)
(1 1.54042e-15 0)
(1 1.85602e-15 0)
(1 -7.99288e-16 0)
(1 -2.04518e-15 0)
(1 -1.96165e-15 0)
(1 -1.51054e-15 0)
(1 -1.0473e-15 0)
(1 1.94989e-15 0)
(1 6.72443e-16 0)
(1 -2.10215e-16 0)
(1 3.13688e-16 0)
(1 2.58528e-16 0)
(1 -4.72611e-16 0)
(1 -7.81049e-17 0)
(1 8.62379e-16 0)
(1 9.44615e-16 0)
(1 1.25535e-15 0)
(1 1.04773e-15 0)
(1 1.73785e-15 0)
(1 -9.34706e-17 0)
(1 -7.74633e-17 0)
(1 -1.93607e-16 0)
(1 -3.56282e-16 0)
(1 -7.28943e-17 0)
(1 -2.5408e-16 0)
(1 5.3235e-16 0)
(1 2.49194e-16 0)
(1 -4.34595e-16 0)
(1 -1.04e-15 0)
(1 4.70495e-16 0)
(1 -8.29867e-16 0)
(1 1.90631e-15 0)
(1 -5.60191e-16 0)
(1 -1.91166e-16 0)
(1 -1.48858e-15 0)
(1 -1.33762e-17 0)
(1 -1.19912e-15 0)
(1 -5.41328e-16 0)
(1 -2.07498e-15 0)
(1 -9.96055e-16 0)
(1 -1.02605e-15 0)
(1 -2.80495e-16 0)
(1 -3.5789e-17 0)
(1 -1.8988e-16 0)
(1 5.10654e-16 0)
(1 4.66189e-16 0)
(1 -4.38169e-16 0)
(1 -4.75881e-16 0)
(1 -9.71948e-16 0)
(1 -1.39968e-16 0)
(1 1.53259e-15 0)
(1 6.26204e-16 0)
(1 1.57133e-17 0)
(1 2.09395e-15 0)
(1 1.97938e-16 0)
(1 1.22194e-15 0)
(1 -9.41658e-16 0)
(1 -5.63784e-16 0)
(1 -2.80273e-16 0)
(1 6.249e-16 0)
(1 2.19481e-16 0)
(1 -8.36351e-16 0)
(1 -1.09662e-15 0)
(1 -9.38777e-16 0)
(1 1.1965e-15 0)
(1 2.72077e-17 0)
(1 -1.05314e-15 0)
(1 9.83069e-16 0)
(1 2.14701e-16 0)
(1 -7.2567e-16 0)
(1 1.19074e-15 0)
(1 1.24202e-15 0)
(1 2.69397e-15 0)
(1 -1.35237e-15 0)
(1 -9.06865e-16 0)
(1 -3.70475e-16 0)
(1 1.65069e-15 0)
(1 1.48754e-15 0)
(1 1.64434e-15 0)
(1 1.38461e-15 0)
(1 1.03843e-16 0)
(1 -2.66294e-15 0)
(1 -3.39354e-16 0)
(1 -5.37814e-16 0)
(1 1.59418e-15 0)
(1 -3.47494e-15 0)
(1 -9.43551e-16 0)
(1 -3.07331e-15 0)
(1 -3.94797e-16 0)
(1 -1.98716e-15 0)
(1 -6.24309e-16 0)
(1 1.52498e-16 0)
(1 1.37227e-15 0)
(1 1.68633e-15 0)
(1 1.66178e-15 0)
(1 4.49949e-16 0)
(1 -1.67496e-15 0)
(1 6.20595e-16 0)
(1 -1.62452e-16 0)
(1 1.36226e-15 0)
(1 1.7137e-15 0)
(1 2.51578e-15 0)
(1 -2.95531e-15 0)
(1 -3.81433e-15 0)
(1 -3.49366e-15 0)
(1 -2.28951e-15 0)
(1 -6.79817e-16 0)
(1 2.48597e-15 0)
(1 1.30798e-15 0)
(1 1.49783e-16 0)
(1 -5.84177e-16 0)
(1 1.11384e-16 0)
(1 1.93811e-16 0)
(1 8.3544e-16 0)
(1 -5.93324e-17 0)
(1 6.24031e-16 0)
(1 -3.30863e-16 0)
(1 1.60847e-16 0)
(1 5.97638e-16 0)
(1 6.24161e-17 0)
(1 -4.70414e-17 0)
(1 1.03016e-15 0)
(1 -5.10444e-16 0)
(1 1.72032e-16 0)
(1 4.05555e-16 0)
(1 3.56947e-16 0)
(1 1.80158e-15 0)
(1 6.7534e-16 0)
(1 -9.31622e-17 0)
(1 9.31879e-17 0)
(1 -1.19233e-15 0)
(1 9.53106e-16 0)
(1 -3.97466e-16 0)
(1 -9.30145e-16 0)
(1 -1.97508e-16 0)
(1 -3.04006e-16 0)
(1 1.30652e-15 0)
(1 9.83861e-16 0)
(1 8.95864e-16 0)
(1 -8.44122e-16 0)
(1 -3.10086e-16 0)
(1 1.11712e-16 0)
(1 8.05858e-16 0)
(1 9.08189e-16 0)
(1 5.27482e-16 0)
(1 1.04993e-16 0)
(1 -1.16735e-15 0)
(1 -3.28607e-16 0)
(1 -1.26408e-15 0)
(1 1.64134e-16 0)
(1 -1.84108e-17 0)
(1 8.78352e-16 0)
(1 -1.24831e-15 0)
(1 1.24529e-15 0)
(1 1.88328e-16 0)
(1 1.1554e-15 0)
(1 -1.44964e-15 0)
(1 -9.81772e-17 0)
(1 -7.64879e-16 0)
(1 1.90017e-15 0)
(1 4.37011e-18 0)
(1 -4.27712e-16 0)
(1 -1.87299e-15 0)
(1 -2.22186e-15 0)
(1 -1.89666e-16 0)
(1 -5.21475e-16 0)
(1 -1.30261e-15 0)
(1 -4.45161e-16 0)
(1 -6.29602e-16 0)
(1 4.04783e-16 0)
(1 9.86615e-16 0)
(1 1.83889e-15 0)
(1 1.70198e-15 0)
(1 9.63776e-16 0)
(1 5.53183e-16 0)
(1 1.44717e-15 0)
(1 9.0147e-16 0)
(1 3.78413e-15 0)
(1 7.3644e-16 0)
(1 1.70495e-16 0)
(1 -7.90903e-16 0)
(1 1.85549e-16 0)
(1 -6.97296e-16 0)
(1 1.0344e-16 0)
(1 7.72278e-16 0)
(1 7.42795e-17 0)
(1 -1.54711e-15 0)
(1 -2.56989e-15 0)
(1 -1.03075e-15 0)
(1 -1.38094e-15 0)
(1 6.97649e-16 0)
(1 7.90113e-16 0)
(1 3.06897e-15 0)
(1 2.03656e-15 0)
(1 9.21753e-16 0)
(1 5.21957e-16 0)
(1 -3.73337e-16 0)
(1 5.41555e-16 0)
(1 2.42285e-16 0)
(1 1.1355e-15 0)
(1 -5.50059e-16 0)
(1 1.60708e-15 0)
(1 -1.02619e-15 0)
(1 -3.14827e-15 0)
(1 -2.37919e-15 0)
(1 -2.57218e-15 0)
(1 -1.72235e-15 0)
(1 -6.89867e-16 0)
(1 5.25915e-17 0)
(1 1.19702e-15 0)
(1 2.26679e-15 0)
(1 1.67152e-15 0)
(1 -3.91871e-16 0)
(1 -5.43872e-16 0)
(1 9.31076e-16 0)
(1 8.54992e-16 0)
(1 4.91562e-16 0)
(1 -1.73975e-16 0)
(1 -4.98669e-17 0)
(1 2.14527e-15 0)
(1 1.19532e-15 0)
(1 1.98298e-15 0)
(1 3.9971e-16 0)
(1 -8.01938e-16 0)
(1 -7.01702e-16 0)
(1 -2.98521e-16 0)
(1 1.02378e-15 0)
(1 5.73966e-16 0)
(1 1.075e-15 0)
(1 1.22705e-16 0)
(1 3.55445e-16 0)
(1 -1.7999e-16 0)
(1 7.48951e-16 0)
(1 -5.3378e-16 0)
(1 -2.3195e-16 0)
(1 -1.83631e-15 0)
(1 -1.14806e-15 0)
(1 -5.0909e-16 0)
(1 3.68973e-16 0)
(1 -5.88997e-16 0)
(1 -7.44007e-16 0)
(1 -1.11354e-15 0)
(1 8.89241e-17 0)
(1 -5.88061e-16 0)
(1 4.79322e-16 0)
(1 -1.07427e-15 0)
(1 -7.21484e-16 0)
(1 -1.03092e-15 0)
(1 3.53316e-16 0)
(1 4.47656e-16 0)
(1 -6.27094e-16 0)
(1 1.38321e-15 0)
(1 -1.40332e-15 0)
(1 -1.52925e-16 0)
(1 -1.15124e-15 0)
(1 3.97376e-16 0)
(1 -3.99428e-16 0)
(1 6.89408e-16 0)
(1 -4.53826e-16 0)
(1 8.09174e-16 0)
(1 -7.75087e-16 0)
(1 -4.99511e-16 0)
(1 -1.15116e-15 0)
(1 -1.62936e-15 0)
(1 7.34516e-16 0)
(1 -2.41949e-15 0)
(1 -2.16055e-15 0)
(1 -3.65585e-15 0)
(1 1.97781e-15 0)
(1 1.53002e-15 0)
(1 3.38067e-15 0)
(1 2.34249e-15 0)
(1 4.65904e-16 0)
(1 2.15978e-16 0)
(1 6.66241e-16 0)
(1 1.59947e-15 0)
(1 1.22869e-15 0)
(1 4.7746e-15 0)
(1 2.53723e-15 0)
(1 -2.25823e-16 0)
(1 -3.15569e-16 0)
(1 1.99785e-16 0)
(1 -9.53383e-16 0)
(1 -3.35538e-16 0)
(1 5.1004e-16 0)
(1 8.73099e-16 0)
(1 -4.34077e-16 0)
(1 7.9238e-16 0)
(1 1.34454e-15 0)
(1 6.94973e-17 0)
(1 1.15162e-15 0)
(1 -5.11871e-16 0)
(1 3.25465e-15 0)
(1 7.61411e-16 0)
(1 1.56544e-15 0)
(1 -1.13515e-15 0)
(1 -5.80896e-16 0)
(1 -2.41529e-15 0)
(1 -9.85688e-16 0)
(1 -9.29253e-16 0)
(1 -7.95426e-16 0)
(1 -1.47344e-15 0)
(1 1.25367e-15 0)
(1 -9.9314e-16 0)
(1 7.51837e-16 0)
(1 -9.60965e-16 0)
(1 -1.64512e-15 0)
(1 -1.61257e-15 0)
(1 -8.62629e-17 0)
(1 1.92995e-15 0)
(1 3.05381e-15 0)
(1 2.55992e-15 0)
(1 4.54087e-16 0)
(1 -4.04954e-16 0)
(1 1.9436e-15 0)
(1 1.10939e-15 0)
(1 7.16737e-16 0)
(1 -1.09967e-16 0)
(1 1.93768e-16 0)
(1 1.42708e-15 0)
(1 1.12922e-15 0)
(1 5.02066e-16 0)
(1 3.79018e-16 0)
(1 -6.17975e-16 0)
(1 7.05151e-16 0)
(1 1.90723e-16 0)
(1 6.08369e-16 0)
(1 1.46287e-15 0)
(1 1.60701e-15 0)
(1 6.06092e-16 0)
(1 6.16853e-16 0)
(1 -8.62017e-16 0)
(1 -1.01545e-15 0)
(1 -1.86216e-15 0)
(1 -1.97821e-15 0)
(1 -2.16985e-15 0)
(1 -2.14571e-15 0)
(1 -2.35839e-15 0)
(1 -8.13507e-16 0)
(1 5.63502e-16 0)
(1 8.48091e-16 0)
(1 -3.5126e-16 0)
(1 3.57149e-16 0)
(1 -1.08409e-15 0)
(1 -4.91628e-16 0)
(1 4.78847e-16 0)
(1 -1.55985e-15 0)
(1 -1.21557e-15 0)
(1 -2.62782e-16 0)
(1 5.25717e-16 0)
(1 2.49762e-15 0)
(1 1.48549e-15 0)
(1 1.14072e-15 0)
(1 7.19214e-16 0)
(1 -3.87899e-16 0)
(1 4.25407e-16 0)
(1 2.71992e-16 0)
(1 6.98976e-16 0)
(1 -1.05733e-15 0)
(1 -1.36217e-15 0)
(1 -2.09109e-15 0)
(1 -2.09459e-15 0)
(1 -2.05513e-15 0)
(1 -1.29752e-15 0)
(1 1.29124e-15 0)
(1 -6.02338e-16 0)
(1 1.51019e-16 0)
(1 -8.49202e-16 0)
(1 3.0981e-15 0)
(1 1.06191e-15 0)
(1 2.71359e-16 0)
(1 -7.74081e-16 0)
(1 -1.95742e-15 0)
(1 -8.49399e-16 0)
(1 1.82895e-15 0)
(1 1.18805e-15 0)
(1 3.15472e-15 0)
(1 1.30871e-15 0)
(1 4.32878e-15 0)
(1 1.84052e-15 0)
(1 1.28727e-15 0)
(1 -3.0547e-15 0)
(1 -2.80612e-15 0)
(1 -2.99972e-15 0)
(1 -1.13357e-16 0)
(1 7.13571e-16 0)
(1 2.55431e-15 0)
(1 1.34799e-15 0)
(1 1.79153e-15 0)
(1 4.9819e-16 0)
(1 7.47486e-17 0)
(1 4.0872e-16 0)
(1 1.6461e-15 0)
(1 9.20266e-16 0)
(1 3.25426e-16 0)
(1 2.7129e-16 0)
(1 -1.58956e-16 0)
(1 2.96296e-16 0)
(1 -1.66958e-15 0)
(1 -2.871e-15 0)
(1 -1.34257e-15 0)
(1 -3.31489e-15 0)
(1 -1.14742e-15 0)
(1 -1.07617e-15 0)
(1 -2.57648e-16 0)
(1 -2.20025e-15 0)
(1 -1.69492e-15 0)
(1 -2.46215e-15 0)
(1 -1.04713e-15 0)
(1 4.98932e-16 0)
(1 -4.99028e-17 0)
(1 3.20385e-15 0)
(1 3.03665e-15 0)
(1 3.47257e-15 0)
(1 5.27339e-16 0)
(1 4.44742e-17 0)
(1 -7.92169e-16 0)
(1 1.54486e-16 0)
(1 7.7624e-16 0)
(1 3.76453e-16 0)
(1 1.84948e-15 0)
(1 8.23541e-16 0)
(1 1.86422e-15 0)
(1 2.58266e-15 0)
(1 2.50736e-15 0)
(1 3.65911e-16 0)
(1 1.32373e-15 0)
(1 1.4637e-15 0)
(1 2.15505e-15 0)
(1 1.65571e-15 0)
(1 2.25063e-15 0)
(1 -6.86373e-16 0)
(1 -8.45188e-16 0)
(1 -1.09748e-15 0)
(1 -1.10129e-15 0)
(1 -1.27365e-15 0)
(1 3.05424e-16 0)
(1 -1.90944e-15 0)
(1 -1.26364e-17 0)
(1 -6.65138e-16 0)
(1 6.17566e-16 0)
(1 -9.32944e-17 0)
(1 -4.84509e-17 0)
(1 1.35948e-15 0)
(1 -1.48908e-15 0)
(1 -2.00404e-16 0)
(1 -2.28702e-15 0)
(1 2.22834e-16 0)
(1 -1.861e-17 0)
(1 1.87194e-15 0)
(1 1.83876e-15 0)
(1 2.5166e-16 0)
(1 1.78975e-15 0)
(1 -1.49831e-15 0)
(1 1.09689e-15 0)
(1 -4.98848e-16 0)
(1 4.73333e-16 0)
(1 5.42623e-16 0)
(1 -1.22829e-16 0)
(1 -1.27639e-15 0)
(1 -1.98788e-15 0)
(1 -1.3515e-15 0)
(1 -5.02553e-16 0)
(1 6.25302e-16 0)
(1 -7.13026e-16 0)
(1 2.16308e-15 0)
(1 1.55909e-15 0)
(1 2.61745e-15 0)
(1 -8.03259e-16 0)
(1 1.39916e-16 0)
(1 -2.86697e-15 0)
(1 -2.71636e-15 0)
(1 -1.0472e-15 0)
(1 -4.90059e-16 0)
(1 1.61557e-15 0)
(1 3.37916e-15 0)
(1 3.96046e-15 0)
(1 3.97181e-16 0)
(1 1.17866e-15 0)
(1 2.04252e-15 0)
(1 2.07102e-15 0)
(1 2.75784e-16 0)
(1 1.08626e-16 0)
(1 -2.65122e-15 0)
(1 5.91132e-16 0)
(1 2.98893e-15 0)
(1 3.16867e-15 0)
(1 1.36992e-16 0)
(1 2.22659e-19 0)
(1 -2.2208e-15 0)
(1 -3.24234e-15 0)
(1 3.29243e-15 0)
(1 -6.24111e-16 0)
(1 4.03275e-15 0)
(1 -1.33467e-16 0)
(1 2.39242e-15 0)
(1 -2.00027e-16 0)
(1 5.69883e-16 0)
(1 -9.8587e-16 0)
(1 -9.41804e-16 0)
(1 -4.9541e-16 0)
(1 -8.53049e-16 0)
(1 -3.37452e-15 0)
(1 -3.04876e-15 0)
(1 -2.96541e-15 0)
(1 -1.30719e-15 0)
(1 5.05658e-16 0)
(1 1.36009e-15 0)
(1 1.98827e-15 0)
(1 2.09461e-16 0)
(1 6.0309e-16 0)
(1 2.35107e-16 0)
(1 7.08112e-16 0)
(1 1.21219e-15 0)
(1 7.24991e-16 0)
(1 1.61268e-15 0)
(1 3.7238e-16 0)
(1 1.66974e-16 0)
(1 1.23364e-15 0)
(1 1.39196e-15 0)
(1 1.67257e-15 0)
(1 1.06895e-15 0)
(1 3.55096e-15 0)
(1 3.93075e-15 0)
(1 1.49777e-15 0)
(1 1.10755e-15 0)
(1 -1.10954e-16 0)
(1 2.19748e-17 0)
(1 1.57915e-15 0)
(1 2.89399e-15 0)
(1 2.67749e-15 0)
(1 2.17662e-15 0)
(1 3.12368e-15 0)
(1 4.34863e-15 0)
(1 2.56267e-15 0)
(1 -1.27703e-16 0)
(1 -1.41413e-15 0)
(1 -1.3851e-15 0)
(1 -2.14511e-15 0)
(1 -2.11572e-15 0)
(1 -2.27861e-15 0)
(1 -1.59628e-15 0)
(1 -1.6085e-15 0)
(1 1.7454e-15 0)
(1 8.54426e-16 0)
(1 5.85073e-16 0)
(1 1.05614e-15 0)
(1 1.89638e-16 0)
(1 -2.17977e-15 0)
(1 -6.5669e-16 0)
(1 -8.86881e-16 0)
(1 -3.26583e-16 0)
(1 -4.78927e-16 0)
(1 -8.43204e-16 0)
(1 -3.47105e-16 0)
(1 2.23976e-16 0)
(1 3.67175e-16 0)
(1 1.4381e-16 0)
(1 1.00428e-15 0)
(1 -8.28521e-16 0)
(1 7.57167e-16 0)
(1 2.92493e-16 0)
(1 2.23703e-15 0)
(1 2.53701e-15 0)
(1 -9.20515e-16 0)
(1 4.55303e-16 0)
(1 8.85165e-16 0)
(1 2.49987e-15 0)
(1 4.79288e-16 0)
(1 4.92491e-16 0)
(1 1.39486e-15 0)
(1 -4.84229e-16 0)
(1 1.03147e-15 0)
(1 7.19078e-16 0)
(1 1.10309e-16 0)
(1 1.30819e-15 0)
(1 3.36415e-16 0)
(1 1.67761e-15 0)
(1 -6.09039e-16 0)
(1 8.32887e-16 0)
(1 4.92698e-16 0)
(1 2.13707e-15 0)
(1 6.79692e-16 0)
(1 2.91303e-15 0)
(1 8.61721e-16 0)
(1 3.38114e-15 0)
(1 -1.43245e-16 0)
(1 -2.12705e-15 0)
(1 -2.42476e-15 0)
(1 -3.45762e-15 0)
(1 -1.10115e-15 0)
(1 5.68003e-16 0)
(1 6.77062e-16 0)
(1 9.05122e-16 0)
(1 2.65204e-15 0)
(1 1.68593e-15 0)
(1 2.65023e-16 0)
(1 -3.61663e-15 0)
(1 -2.02352e-15 0)
(1 -2.99613e-16 0)
(1 -1.80277e-15 0)
(1 -7.33289e-16 0)
(1 -1.49098e-15 0)
(1 1.04241e-15 0)
(1 -4.01147e-16 0)
(1 1.42494e-15 0)
(1 1.38522e-15 0)
(1 1.89032e-15 0)
(1 1.29915e-15 0)
(1 -4.34646e-16 0)
(1 -5.56379e-16 0)
(1 -2.40905e-15 0)
(1 2.99302e-15 0)
(1 7.64022e-16 0)
(1 1.44454e-15 0)
(1 6.0302e-16 0)
(1 4.25673e-16 0)
(1 -1.08067e-16 0)
(1 1.44062e-16 0)
(1 1.82369e-15 0)
(1 3.1993e-15 0)
(1 2.04768e-15 0)
(1 1.91149e-15 0)
(1 2.32297e-15 0)
(1 2.85197e-15 0)
(1 3.56752e-15 0)
(1 1.97662e-15 0)
(1 2.05844e-15 0)
(1 7.16903e-16 0)
(1 6.67955e-16 0)
(1 6.99221e-16 0)
(1 1.62942e-15 0)
(1 1.29712e-15 0)
(1 8.55238e-16 0)
(1 1.4578e-15 0)
(1 -4.43578e-16 0)
(1 -1.24176e-15 0)
(1 -3.75411e-16 0)
(1 -3.93571e-16 0)
(1 1.17495e-15 0)
(1 -2.30514e-16 0)
(1 1.00558e-15 0)
(1 -7.39995e-16 0)
(1 -1.05323e-15 0)
(1 4.48309e-16 0)
(1 4.13037e-16 0)
(1 7.5224e-16 0)
(1 2.69026e-16 0)
(1 -2.12254e-16 0)
(1 9.12438e-16 0)
(1 1.33463e-15 0)
(1 1.90906e-15 0)
(1 -2.56259e-16 0)
(1 1.21942e-15 0)
(1 3.66813e-16 0)
(1 1.0291e-15 0)
(1 1.07548e-15 0)
(1 6.78823e-16 0)
(1 5.91458e-16 0)
(1 1.68474e-15 0)
(1 2.64938e-15 0)
(1 2.3813e-15 0)
(1 2.11628e-15 0)
(1 2.32654e-15 0)
(1 -4.94716e-16 0)
(1 3.03953e-16 0)
(1 -2.20929e-15 0)
(1 1.64248e-15 0)
(1 2.38741e-15 0)
(1 1.37735e-15 0)
(1 2.92344e-15 0)
(1 1.0181e-15 0)
(1 1.33331e-15 0)
(1 -2.96084e-16 0)
(1 -9.2164e-16 0)
(1 -5.32339e-16 0)
(1 4.97384e-16 0)
(1 3.07544e-15 0)
(1 2.56319e-15 0)
(1 2.97522e-15 0)
(1 8.19254e-16 0)
(1 2.10831e-15 0)
(1 -6.03399e-16 0)
(1 4.84457e-15 0)
(1 -2.82675e-16 0)
(1 -6.75693e-16 0)
(1 -3.50197e-15 0)
(1 -4.75905e-15 0)
(1 -5.88763e-15 0)
(1 -4.9838e-16 0)
(1 2.48661e-15 0)
(1 6.87057e-16 0)
(1 3.5439e-15 0)
(1 -2.11397e-16 0)
(1 8.19141e-16 0)
(1 -1.03875e-15 0)
(1 -8.06273e-16 0)
(1 -1.43632e-15 0)
(1 -2.3717e-15 0)
(1 -1.99622e-15 0)
(1 -2.22492e-15 0)
(1 6.09899e-16 0)
(1 2.82833e-15 0)
(1 4.14618e-16 0)
(1 -2.26482e-15 0)
(1 -2.26536e-15 0)
(1 -2.46267e-15 0)
(1 -9.5269e-16 0)
(1 4.21251e-16 0)
(1 1.60963e-15 0)
(1 1.05157e-15 0)
(1 5.90922e-16 0)
(1 2.62081e-15 0)
(1 1.7625e-15 0)
(1 1.57458e-15 0)
(1 -5.44587e-16 0)
(1 2.92744e-15 0)
(1 3.28056e-15 0)
(1 2.7482e-15 0)
(1 1.467e-15 0)
(1 2.54551e-15 0)
(1 2.42939e-15 0)
(1 4.61659e-16 0)
(1 -2.00105e-17 0)
(1 2.49403e-15 0)
(1 3.90839e-15 0)
(1 4.49396e-15 0)
(1 3.23023e-15 0)
(1 1.63934e-15 0)
(1 1.54293e-15 0)
(1 2.47225e-15 0)
(1 2.7698e-15 0)
(1 1.30547e-15 0)
(1 -2.24678e-17 0)
(1 5.1581e-16 0)
(1 8.9362e-16 0)
(1 7.99666e-16 0)
(1 -2.39805e-17 0)
(1 4.10232e-16 0)
(1 6.52738e-16 0)
(1 5.19625e-18 0)
(1 3.17309e-16 0)
(1 -1.42822e-15 0)
(1 -1.73693e-15 0)
(1 -3.99831e-16 0)
(1 -1.52837e-15 0)
(1 -7.22156e-16 0)
(1 -8.01508e-16 0)
(1 1.85096e-15 0)
(1 1.96621e-15 0)
(1 9.36533e-16 0)
(1 -7.232e-16 0)
(1 -1.62147e-16 0)
(1 1.23742e-16 0)
(1 1.65413e-15 0)
(1 4.90564e-16 0)
(1 1.97776e-15 0)
(1 1.25885e-15 0)
(1 8.44876e-16 0)
(1 1.24221e-15 0)
(1 7.99033e-16 0)
(1 2.78023e-15 0)
(1 2.50025e-15 0)
(1 4.76909e-15 0)
(1 4.95379e-16 0)
(1 -2.07083e-15 0)
(1 1.38261e-15 0)
(1 -6.33717e-16 0)
(1 8.4774e-16 0)
(1 1.30336e-15 0)
(1 9.82431e-16 0)
(1 4.18662e-15 0)
(1 -6.55774e-16 0)
(1 -1.08396e-15 0)
(1 3.23042e-16 0)
(1 8.14461e-17 0)
(1 8.80685e-16 0)
(1 2.46686e-15 0)
(1 1.56603e-15 0)
(1 2.19699e-15 0)
(1 -8.33703e-16 0)
(1 2.74401e-15 0)
(1 1.51561e-15 0)
(1 1.04691e-15 0)
(1 -6.85628e-16 0)
(1 -1.53511e-15 0)
(1 1.48803e-16 0)
(1 2.01403e-15 0)
(1 -6.83923e-16 0)
(1 3.33634e-16 0)
(1 -8.0201e-16 0)
(1 1.24528e-15 0)
(1 -8.5877e-16 0)
(1 -8.23085e-16 0)
(1 -4.71721e-15 0)
(1 -5.04664e-15 0)
(1 -5.15889e-15 0)
(1 -1.8184e-15 0)
(1 -5.70767e-16 0)
(1 -6.5483e-16 0)
(1 3.54479e-17 0)
(1 4.65044e-16 0)
(1 7.64621e-16 0)
(1 -7.53645e-16 0)
(1 -3.10897e-15 0)
(1 -2.04017e-16 0)
(1 -2.86174e-16 0)
(1 2.5119e-15 0)
(1 3.70637e-15 0)
(1 3.38254e-15 0)
(1 2.80205e-15 0)
(1 4.29827e-16 0)
(1 -1.20217e-15 0)
(1 3.14057e-16 0)
(1 6.64726e-16 0)
(1 2.90875e-15 0)
(1 2.95913e-15 0)
(1 4.1612e-15 0)
(1 2.46846e-15 0)
(1 1.48637e-15 0)
(1 4.75126e-16 0)
(1 1.97993e-15 0)
(1 2.47091e-15 0)
(1 2.54681e-15 0)
(1 1.85971e-15 0)
(1 2.05124e-15 0)
(1 1.40308e-15 0)
(1 1.81708e-15 0)
(1 6.88102e-16 0)
(1 4.34487e-15 0)
(1 3.43172e-15 0)
(1 6.19336e-15 0)
(1 6.19864e-15 0)
(1 5.41415e-15 0)
(1 3.16665e-15 0)
(1 2.75706e-15 0)
(1 1.88449e-15 0)
(1 1.64741e-16 0)
(1 -8.60811e-16 0)
(1 -1.85864e-15 0)
(1 -8.4986e-16 0)
(1 -3.4128e-16 0)
(1 6.6107e-16 0)
(1 1.04329e-15 0)
(1 1.62035e-16 0)
(1 -3.00334e-16 0)
(1 7.25267e-16 0)
(1 -1.33607e-15 0)
(1 -1.51015e-15 0)
(1 -2.96178e-15 0)
(1 -2.30381e-15 0)
(1 -1.55958e-15 0)
(1 9.24221e-16 0)
(1 1.3143e-16 0)
(1 6.98551e-16 0)
(1 1.21632e-15 0)
(1 2.02796e-15 0)
(1 2.41227e-15 0)
(1 3.25565e-15 0)
(1 2.5576e-15 0)
(1 4.00638e-15 0)
(1 5.81565e-15 0)
(1 6.59348e-15 0)
(1 7.63885e-15 0)
(1 4.68827e-16 0)
(1 7.23683e-16 0)
(1 3.88829e-15 0)
(1 8.38111e-16 0)
(1 -5.1275e-16 0)
(1 -1.89361e-16 0)
(1 1.17164e-15 0)
(1 1.99187e-15 0)
(1 9.78043e-16 0)
(1 -1.20319e-15 0)
(1 1.67743e-15 0)
(1 1.00338e-15 0)
(1 1.9683e-15 0)
(1 1.87398e-15 0)
(1 2.48303e-15 0)
(1 1.40899e-16 0)
(1 -1.09427e-16 0)
(1 7.06961e-16 0)
(1 3.53702e-16 0)
(1 -1.47756e-15 0)
(1 -1.79087e-15 0)
(1 -3.80094e-15 0)
(1 -1.34751e-15 0)
(1 1.40723e-15 0)
(1 1.21456e-15 0)
(1 1.66506e-15 0)
(1 7.63005e-16 0)
(1 1.6745e-15 0)
(1 -4.98189e-16 0)
(1 -1.01742e-15 0)
(1 -3.24124e-15 0)
(1 -3.7519e-15 0)
(1 -3.95729e-15 0)
(1 -3.0098e-15 0)
(1 -3.07652e-15 0)
(1 -2.1326e-15 0)
(1 -1.03072e-15 0)
(1 -8.63043e-17 0)
(1 -1.71745e-15 0)
(1 -1.85327e-16 0)
(1 9.56713e-16 0)
(1 1.76921e-15 0)
(1 1.87896e-15 0)
(1 1.56157e-15 0)
(1 -1.26683e-16 0)
(1 -1.08273e-15 0)
(1 -6.62671e-16 0)
(1 -1.53612e-16 0)
(1 -4.04712e-16 0)
(1 2.22291e-15 0)
(1 1.95527e-15 0)
(1 3.58642e-15 0)
(1 3.60951e-15 0)
(1 2.61098e-15 0)
(1 3.1117e-15 0)
(1 4.28781e-15 0)
(1 2.54871e-15 0)
(1 2.13947e-15 0)
(1 2.43071e-15 0)
(1 5.3045e-15 0)
(1 3.96605e-15 0)
(1 2.44776e-15 0)
(1 1.96649e-15 0)
(1 2.9341e-15 0)
(1 2.46894e-15 0)
(1 2.35249e-15 0)
(1 4.0993e-15 0)
(1 4.7924e-15 0)
(1 6.44765e-15 0)
(1 4.95721e-15 0)
(1 1.58382e-15 0)
(1 1.41101e-15 0)
(1 -4.40574e-16 0)
(1 5.27605e-16 0)
(1 -1.43562e-16 0)
(1 -4.85661e-16 0)
(1 3.38548e-16 0)
(1 5.5235e-16 0)
(1 2.24104e-15 0)
(1 1.82367e-16 0)
(1 -8.12947e-16 0)
(1 -1.40481e-15 0)
(1 -1.35917e-15 0)
(1 -1.618e-15 0)
(1 -1.12912e-15 0)
(1 -1.43694e-16 0)
(1 1.13747e-15 0)
(1 1.34838e-15 0)
(1 6.68829e-16 0)
(1 -1.89562e-16 0)
(1 5.4873e-16 0)
(1 1.21017e-15 0)
(1 9.16586e-16 0)
(1 1.47697e-15 0)
(1 4.23116e-15 0)
(1 1.24622e-15 0)
(1 5.01407e-15 0)
(1 4.64975e-15 0)
(1 9.01677e-15 0)
(1 7.95847e-15 0)
(1 5.81747e-17 0)
(1 1.54409e-15 0)
(1 8.38828e-16 0)
(1 6.2977e-16 0)
(1 -5.06546e-16 0)
(1 -1.30203e-15 0)
(1 1.47607e-15 0)
(1 -2.90538e-15 0)
(1 2.08935e-15 0)
(1 1.13276e-15 0)
(1 6.35248e-16 0)
(1 -7.37416e-16 0)
(1 1.92523e-15 0)
(1 -4.528e-16 0)
(1 2.27374e-15 0)
(1 1.6545e-15 0)
(1 5.75046e-15 0)
(1 1.4746e-15 0)
(1 7.86598e-16 0)
(1 -1.17036e-15 0)
(1 -1.47072e-15 0)
(1 -3.48399e-15 0)
(1 -4.49511e-15 0)
(1 -4.14106e-15 0)
(1 -2.41922e-15 0)
(1 4.6831e-16 0)
(1 1.04894e-15 0)
(1 1.01491e-15 0)
(1 3.4014e-16 0)
(1 -1.07079e-15 0)
(1 -2.73458e-15 0)
(1 -2.39214e-15 0)
(1 -3.07371e-15 0)
(1 -2.17875e-15 0)
(1 -2.55048e-15 0)
(1 -1.52084e-15 0)
(1 -1.86236e-16 0)
(1 1.21747e-16 0)
(1 -6.02545e-16 0)
(1 -2.04818e-15 0)
(1 1.80865e-15 0)
(1 3.93501e-16 0)
(1 3.02255e-15 0)
(1 -2.83962e-17 0)
(1 -3.81552e-16 0)
(1 -9.96343e-16 0)
(1 6.35481e-16 0)
(1 6.54481e-16 0)
(1 7.38289e-16 0)
(1 1.44181e-15 0)
(1 3.5481e-15 0)
(1 3.04586e-15 0)
(1 4.49858e-15 0)
(1 2.62128e-15 0)
(1 3.45344e-15 0)
(1 1.96926e-15 0)
(1 1.81232e-15 0)
(1 1.18838e-15 0)
(1 2.6517e-15 0)
(1 2.02112e-15 0)
(1 5.04375e-15 0)
(1 2.64042e-15 0)
(1 3.43027e-15 0)
(1 2.73578e-15 0)
(1 4.17837e-15 0)
(1 1.17778e-15 0)
(1 4.85899e-15 0)
(1 2.94283e-15 0)
(1 2.84556e-15 0)
(1 2.91391e-15 0)
(1 3.06349e-15 0)
(1 3.41063e-15 0)
(1 9.72574e-16 0)
(1 -1.48435e-15 0)
(1 -1.12767e-15 0)
(1 4.21315e-16 0)
(1 3.75664e-15 0)
(1 1.98619e-15 0)
(1 1.90638e-15 0)
(1 1.51605e-15 0)
(1 8.66559e-16 0)
(1 -2.23018e-16 0)
(1 -8.63579e-16 0)
(1 -1.68933e-15 0)
(1 -1.64081e-15 0)
(1 -1.19399e-15 0)
(1 7.91916e-17 0)
(1 -8.35426e-16 0)
(1 -1.27236e-16 0)
(1 1.7798e-16 0)
(1 1.37111e-15 0)
(1 1.0784e-16 0)
(1 1.40179e-15 0)
(1 2.11487e-16 0)
(1 2.48725e-15 0)
(1 1.58458e-15 0)
(1 3.51532e-15 0)
(1 3.29185e-15 0)
(1 5.65766e-15 0)
(1 5.30935e-15 0)
(1 1.48331e-15 0)
(1 -7.01564e-16 0)
(1 7.28636e-16 0)
(1 5.02409e-16 0)
(1 5.11688e-17 0)
(1 1.35423e-15 0)
(1 -8.78126e-16 0)
(1 -2.54636e-18 0)
(1 -6.83568e-16 0)
(1 3.65112e-15 0)
(1 3.31313e-15 0)
(1 3.2929e-15 0)
(1 3.22284e-15 0)
(1 5.23907e-16 0)
(1 -8.72913e-17 0)
(1 -5.95984e-16 0)
(1 2.28545e-15 0)
(1 -2.27004e-15 0)
(1 -1.81845e-16 0)
(1 -4.14023e-15 0)
(1 -3.23211e-15 0)
(1 -1.23492e-15 0)
(1 2.41491e-16 0)
(1 2.00957e-15 0)
(1 2.23842e-15 0)
(1 1.27872e-15 0)
(1 3.70423e-16 0)
(1 -6.91266e-16 0)
(1 -3.3637e-16 0)
(1 -1.07047e-15 0)
(1 -2.01054e-15 0)
(1 -4.05105e-15 0)
(1 -4.42449e-15 0)
(1 -4.62275e-15 0)
(1 -2.13453e-15 0)
(1 -2.50407e-15 0)
(1 -2.76713e-15 0)
(1 -2.50288e-15 0)
(1 -4.7425e-16 0)
(1 -3.79336e-16 0)
(1 1.88277e-15 0)
(1 9.16308e-16 0)
(1 9.66059e-16 0)
(1 -8.80238e-16 0)
(1 -6.54126e-16 0)
(1 8.939e-16 0)
(1 3.26482e-15 0)
(1 1.36048e-15 0)
(1 3.43533e-15 0)
(1 8.85852e-16 0)
(1 2.01092e-15 0)
(1 2.21357e-15 0)
(1 2.18787e-15 0)
(1 4.14561e-15 0)
(1 3.95362e-15 0)
(1 1.7051e-15 0)
(1 2.14093e-15 0)
(1 2.29601e-15 0)
(1 2.63493e-15 0)
(1 1.31079e-15 0)
(1 3.68611e-15 0)
(1 5.14242e-15 0)
(1 5.36598e-15 0)
(1 2.2711e-15 0)
(1 4.18949e-15 0)
(1 3.26353e-15 0)
(1 2.23847e-15 0)
(1 2.89604e-15 0)
(1 1.25276e-16 0)
(1 1.95379e-15 0)
(1 3.43246e-15 0)
(1 2.93695e-15 0)
(1 1.18671e-15 0)
(1 -1.13755e-15 0)
(1 -9.47138e-16 0)
(1 -6.74741e-16 0)
(1 1.92454e-17 0)
(1 1.09471e-15 0)
(1 2.26071e-15 0)
(1 2.61439e-15 0)
(1 1.14159e-15 0)
(1 2.27872e-15 0)
(1 1.52484e-15 0)
(1 1.93744e-16 0)
(1 -1.11615e-15 0)
(1 -3.78217e-15 0)
(1 -1.941e-15 0)
(1 -1.40528e-15 0)
(1 1.0863e-15 0)
(1 -2.57168e-16 0)
(1 -6.1409e-16 0)
(1 -4.15143e-16 0)
(1 1.18433e-15 0)
(1 1.71594e-15 0)
(1 1.61255e-15 0)
(1 5.28823e-15 0)
(1 3.89565e-15 0)
(1 4.60873e-15 0)
(1 1.51506e-15 0)
(1 2.1204e-15 0)
(1 8.84746e-16 0)
(1 1.70798e-15 0)
(1 -1.5101e-15 0)
(1 -8.43453e-16 0)
(1 1.36631e-16 0)
(1 7.56782e-16 0)
(1 -3.70982e-16 0)
(1 1.76288e-15 0)
(1 1.26682e-16 0)
(1 3.7451e-15 0)
(1 2.6932e-15 0)
(1 2.3648e-15 0)
(1 3.32605e-16 0)
(1 1.53612e-15 0)
(1 2.2829e-16 0)
(1 6.538e-16 0)
(1 -1.80717e-17 0)
(1 2.64795e-15 0)
(1 2.95519e-15 0)
(1 1.51738e-15 0)
(1 -1.29397e-15 0)
(1 -4.1573e-15 0)
(1 -6.21236e-15 0)
(1 -4.54035e-15 0)
(1 -2.94682e-15 0)
(1 -3.73296e-16 0)
(1 1.63957e-15 0)
(1 -1.33348e-16 0)
(1 7.39161e-17 0)
(1 -3.44984e-15 0)
(1 -3.60153e-15 0)
(1 -5.7832e-15 0)
(1 -4.28645e-15 0)
(1 -4.02516e-15 0)
(1 -1.21126e-15 0)
(1 -1.49524e-15 0)
(1 6.67542e-16 0)
(1 -1.10231e-15 0)
(1 2.45017e-16 0)
(1 6.73532e-16 0)
(1 -5.53462e-16 0)
(1 -7.45426e-16 0)
(1 -7.05271e-16 0)
(1 2.14633e-16 0)
(1 -3.72362e-16 0)
(1 2.38878e-15 0)
(1 1.22748e-15 0)
(1 4.31755e-15 0)
(1 4.16161e-15 0)
(1 2.45373e-15 0)
(1 1.84816e-15 0)
(1 4.74884e-16 0)
(1 9.35628e-16 0)
(1 1.70361e-15 0)
(1 2.89275e-15 0)
(1 2.48294e-15 0)
(1 2.9832e-15 0)
(1 2.12187e-15 0)
(1 3.69396e-16 0)
(1 1.01074e-15 0)
(1 3.08675e-17 0)
(1 3.38296e-15 0)
(1 5.62099e-15 0)
(1 6.21368e-15 0)
(1 7.13689e-15 0)
(1 5.60762e-15 0)
(1 1.58295e-15 0)
(1 8.04624e-16 0)
(1 9.26278e-16 0)
(1 9.19949e-16 0)
(1 -3.32968e-16 0)
(1 1.02317e-16 0)
(1 7.85197e-16 0)
(1 3.02613e-15 0)
(1 2.03762e-15 0)
(1 6.51578e-16 0)
(1 -3.48254e-15 0)
(1 -2.89384e-17 0)
(1 2.29705e-16 0)
(1 -4.85839e-16 0)
(1 7.72374e-19 0)
(1 1.83758e-15 0)
(1 2.24094e-16 0)
(1 6.62505e-16 0)
(1 4.2347e-16 0)
(1 -4.6344e-16 0)
(1 -8.73406e-16 0)
(1 2.34047e-16 0)
(1 -6.48032e-16 0)
(1 -5.25631e-16 0)
(1 -1.0009e-15 0)
(1 -2.72549e-16 0)
(1 -1.06398e-15 0)
(1 7.99061e-16 0)
(1 6.06766e-16 0)
(1 2.51957e-15 0)
(1 2.07426e-15 0)
(1 2.72679e-15 0)
(1 1.8551e-15 0)
(1 2.33046e-15 0)
(1 -9.03183e-16 0)
(1 2.18815e-15 0)
(1 1.16616e-15 0)
(1 -1.98044e-15 0)
(1 4.98919e-16 0)
(1 -1.56243e-15 0)
(1 3.39973e-16 0)
(1 2.1691e-15 0)
(1 6.09379e-15 0)
(1 5.32213e-15 0)
(1 1.71496e-15 0)
(1 5.91852e-16 0)
(1 -1.40029e-15 0)
(1 -2.5404e-16 0)
(1 2.48513e-16 0)
(1 1.97902e-15 0)
(1 -4.0273e-16 0)
(1 2.62216e-15 0)
(1 -3.07115e-16 0)
(1 2.6524e-16 0)
(1 -2.41127e-15 0)
(1 -2.45312e-15 0)
(1 -6.76981e-15 0)
(1 -2.82738e-15 0)
(1 -1.6152e-15 0)
(1 -1.01837e-16 0)
(1 -5.39194e-16 0)
(1 -7.22464e-16 0)
(1 -2.39715e-15 0)
(1 -3.95079e-15 0)
(1 -4.85487e-15 0)
(1 -5.5584e-15 0)
(1 -3.69728e-15 0)
(1 -3.79177e-15 0)
(1 1.27062e-16 0)
(1 3.72229e-15 0)
(1 2.32578e-15 0)
(1 6.57563e-16 0)
(1 -1.371e-15 0)
(1 -1.34839e-15 0)
(1 -3.63245e-15 0)
(1 -1.19328e-15 0)
(1 -8.72474e-16 0)
(1 1.2009e-15 0)
(1 3.83024e-15 0)
(1 2.11252e-15 0)
(1 9.30108e-16 0)
(1 2.00141e-15 0)
(1 1.53175e-15 0)
(1 8.75968e-16 0)
(1 -1.20369e-15 0)
(1 -4.00348e-16 0)
(1 3.08209e-15 0)
(1 1.59565e-15 0)
(1 2.75668e-15 0)
(1 4.79233e-15 0)
(1 4.12958e-15 0)
(1 4.87468e-15 0)
(1 4.18462e-15 0)
(1 4.75675e-15 0)
(1 2.5036e-15 0)
(1 1.79588e-15 0)
(1 2.18578e-15 0)
(1 5.45101e-15 0)
(1 3.54132e-15 0)
(1 5.76011e-15 0)
(1 4.27238e-15 0)
(1 2.59423e-15 0)
(1 2.35293e-15 0)
(1 5.47567e-16 0)
(1 -1.00899e-15 0)
(1 1.36053e-15 0)
(1 7.16536e-16 0)
(1 4.15135e-15 0)
(1 1.1208e-15 0)
(1 2.54064e-15 0)
(1 7.53038e-16 0)
(1 2.28081e-15 0)
(1 1.19517e-15 0)
(1 3.84523e-16 0)
(1 2.90789e-16 0)
(1 -1.10445e-15 0)
(1 -1.31639e-15 0)
(1 -6.28266e-16 0)
(1 -2.75744e-16 0)
(1 1.60371e-15 0)
(1 -1.03487e-15 0)
(1 1.64758e-16 0)
(1 -1.78465e-15 0)
(1 2.97011e-16 0)
(1 -4.75957e-17 0)
(1 3.30895e-16 0)
(1 -1.08192e-15 0)
(1 -1.92647e-16 0)
(1 -3.08944e-16 0)
(1 8.79411e-16 0)
(1 2.74503e-15 0)
(1 2.45824e-15 0)
(1 3.98616e-15 0)
(1 4.86996e-15 0)
(1 3.51526e-16 0)
(1 8.60217e-16 0)
(1 3.9068e-16 0)
(1 -3.78583e-16 0)
(1 1.33606e-15 0)
(1 4.70156e-16 0)
(1 -1.51267e-15 0)
(1 -1.4766e-15 0)
(1 2.04044e-15 0)
(1 2.38531e-15 0)
(1 3.31236e-15 0)
(1 3.65541e-15 0)
(1 2.11246e-15 0)
(1 1.57489e-15 0)
(1 1.00308e-15 0)
(1 -4.7428e-16 0)
(1 -1.51091e-15 0)
(1 -3.48234e-15 0)
(1 -4.12668e-15 0)
(1 -2.5212e-15 0)
(1 -1.9658e-15 0)
(1 1.17224e-15 0)
(1 2.58648e-15 0)
(1 7.50041e-16 0)
(1 2.72735e-16 0)
(1 -9.45601e-16 0)
(1 -2.72745e-15 0)
(1 -3.87365e-15 0)
(1 -3.80075e-15 0)
(1 -2.85093e-15 0)
(1 -3.45896e-15 0)
(1 -2.2477e-15 0)
(1 -1.66793e-15 0)
(1 -3.33668e-15 0)
(1 -2.89685e-15 0)
(1 -6.66744e-16 0)
(1 -1.55619e-16 0)
(1 -3.22342e-16 0)
(1 -7.75084e-16 0)
(1 -1.40506e-15 0)
(1 -1.73304e-15 0)
(1 2.03781e-16 0)
(1 -1.97969e-15 0)
(1 -1.13746e-16 0)
(1 1.42903e-15 0)
(1 2.2695e-15 0)
(1 2.36074e-15 0)
(1 -1.13764e-15 0)
(1 3.86599e-16 0)
(1 2.15519e-15 0)
(1 2.66604e-15 0)
(1 4.00091e-15 0)
(1 3.62688e-15 0)
(1 4.06593e-15 0)
(1 4.31778e-15 0)
(1 4.21095e-15 0)
(1 2.71304e-15 0)
(1 3.21352e-15 0)
(1 1.97361e-15 0)
(1 2.90556e-15 0)
(1 4.3946e-15 0)
(1 4.04846e-15 0)
(1 4.50261e-15 0)
(1 3.68671e-15 0)
(1 3.87003e-15 0)
(1 3.23423e-15 0)
(1 4.45871e-15 0)
(1 4.81211e-15 0)
(1 5.02732e-15 0)
(1 3.49668e-15 0)
(1 2.50347e-15 0)
(1 8.11341e-16 0)
(1 -3.6631e-16 0)
(1 8.114e-16 0)
(1 1.84164e-15 0)
(1 2.08924e-15 0)
(1 2.09646e-15 0)
(1 1.65326e-16 0)
(1 -4.51376e-16 0)
(1 1.60502e-15 0)
(1 1.15118e-15 0)
(1 -1.51047e-15 0)
(1 -1.004e-15 0)
(1 -5.31618e-16 0)
(1 3.54563e-16 0)
(1 2.63392e-16 0)
(1 -1.26361e-15 0)
(1 -2.13845e-15 0)
(1 -1.7775e-15 0)
(1 -1.17209e-15 0)
(1 -1.41801e-15 0)
(1 -1.0192e-15 0)
(1 7.29355e-18 0)
(1 -2.63624e-16 0)
(1 2.91144e-16 0)
(1 8.41667e-17 0)
(1 2.2581e-15 0)
(1 3.16814e-15 0)
(1 4.62519e-15 0)
(1 5.22807e-15 0)
(1 -5.03346e-16 0)
(1 1.37994e-16 0)
(1 -1.46641e-15 0)
(1 1.83394e-15 0)
(1 3.00116e-15 0)
(1 2.70556e-15 0)
(1 4.95557e-15 0)
(1 3.9397e-15 0)
(1 5.82896e-16 0)
(1 -1.53014e-15 0)
(1 -5.76352e-16 0)
(1 -1.17018e-15 0)
(1 1.83909e-15 0)
(1 8.59895e-16 0)
(1 6.86786e-16 0)
(1 -2.07707e-15 0)
(1 1.7311e-15 0)
(1 -1.80353e-15 0)
(1 -1.69284e-15 0)
(1 -4.5429e-15 0)
(1 -2.06552e-15 0)
(1 -2.16656e-15 0)
(1 3.15429e-15 0)
(1 -3.21838e-15 0)
(1 -3.07733e-15 0)
(1 -4.65583e-15 0)
(1 -5.06693e-15 0)
(1 -5.5808e-15 0)
(1 -5.09205e-15 0)
(1 -3.52634e-15 0)
(1 -3.7193e-15 0)
(1 7.64711e-16 0)
(1 -1.53015e-15 0)
(1 1.57444e-15 0)
(1 -1.70391e-15 0)
(1 -2.93699e-16 0)
(1 5.46746e-16 0)
(1 -1.58273e-15 0)
(1 -1.18866e-15 0)
(1 -1.67533e-15 0)
(1 -1.8691e-16 0)
(1 -8.08426e-16 0)
(1 1.08076e-15 0)
(1 1.41408e-15 0)
(1 -6.85381e-16 0)
(1 7.76712e-16 0)
(1 -2.38809e-16 0)
(1 4.19642e-16 0)
(1 -4.25607e-16 0)
(1 1.07566e-15 0)
(1 5.33434e-15 0)
(1 5.65639e-15 0)
(1 3.06628e-15 0)
(1 2.80234e-15 0)
(1 3.34739e-15 0)
(1 1.3791e-15 0)
(1 3.45556e-15 0)
(1 2.57547e-15 0)
(1 1.76186e-15 0)
(1 8.64009e-16 0)
(1 2.34339e-15 0)
(1 2.32738e-15 0)
(1 3.71537e-15 0)
(1 3.99212e-15 0)
(1 4.13153e-15 0)
(1 -1.38088e-16 0)
(1 1.44839e-15 0)
(1 8.44753e-16 0)
(1 3.83037e-15 0)
(1 2.8098e-15 0)
(1 3.11382e-15 0)
(1 3.53396e-16 0)
(1 2.32021e-15 0)
(1 4.08547e-16 0)
(1 2.411e-15 0)
(1 1.62862e-15 0)
(1 1.91191e-15 0)
(1 1.13427e-15 0)
(1 -4.7134e-17 0)
(1 2.26459e-15 0)
(1 -2.46596e-15 0)
(1 2.73347e-16 0)
(1 -2.05501e-15 0)
(1 -1.55274e-16 0)
(1 -5.46639e-16 0)
(1 -1.4575e-15 0)
(1 -1.56412e-15 0)
(1 -2.01358e-15 0)
(1 -2.08069e-15 0)
(1 -1.1381e-15 0)
(1 -1.22794e-15 0)
(1 -1.53346e-15 0)
(1 -2.59315e-16 0)
(1 -1.18664e-15 0)