/*--------------------------------*- C++ -*----------------------------------*\
| =========                 |                                                 |
| \\      /  F ield         | OpenFOAM: The Open Source CFD Toolbox           |
|  \\    /   O peration     | Version:  v2012                                 |
|   \\  /    A nd           | Website:  www.openfoam.com                      |
|    \\/     M anipulation  |                                                 |
\*---------------------------------------------------------------------------*/
FoamFile
{
    version     2.0;
    format      ascii;
    class       volScalarField;
    location    "0";
    object      pRec;
}
// * * * * * * * * * * * * * * * * * * * * * * * * * * * * * * * * * * * * * //

dimensions      [0 2 -2 0 0 0 0];


internalField   nonuniform List<scalar> 
4000
(
-6.71668e-13
-6.67269e-13
-6.68117e-13
-6.70212e-13
-6.6928e-13
-6.68936e-13
-6.67904e-13
-6.64266e-13
-6.56079e-13
-6.51992e-13
-6.52753e-13
-6.48245e-13
-6.40073e-13
-6.29643e-13
-6.18705e-13
-6.13855e-13
-6.09764e-13
-6.07742e-13
-6.01603e-13
-5.91461e-13
-5.82396e-13
-5.76065e-13
-5.70871e-13
-5.63894e-13
-5.54968e-13
-5.45931e-13
-5.42203e-13
-5.37411e-13
-5.31082e-13
-5.2162e-13
-5.08969e-13
-5.02208e-13
-4.9826e-13
-4.94466e-13
-4.88864e-13
-4.84389e-13
-4.75924e-13
-4.61523e-13
-4.46657e-13
-4.42271e-13
-4.40596e-13
-4.36573e-13
-4.34714e-13
-4.28422e-13
-4.18903e-13
-4.10434e-13
-4.01847e-13
-3.93296e-13
-3.84558e-13
-3.76675e-13
-3.67825e-13
-3.60273e-13
-3.53129e-13
-3.44473e-13
-3.36719e-13
-3.25586e-13
-3.1849e-13
-3.15643e-13
-3.12156e-13
-3.07999e-13
-2.99782e-13
-2.92524e-13
-2.83734e-13
-2.73342e-13
-2.65869e-13
-2.58457e-13
-2.53189e-13
-2.45586e-13
-2.3611e-13
-2.29127e-13
-2.21768e-13
-2.13913e-13
-2.01997e-13
-1.94835e-13
-1.92418e-13
-1.87264e-13
-1.8149e-13
-1.74526e-13
-1.65718e-13
-1.53574e-13
-1.41954e-13
-1.35479e-13
-1.27069e-13
-1.21544e-13
-1.15705e-13
-1.09219e-13
-1.00275e-13
-9.19582e-14
-8.70244e-14
-8.19666e-14
-7.55157e-14
-6.83316e-14
-6.11657e-14
-5.43192e-14
-4.56113e-14
-3.64185e-14
-2.79448e-14
-1.91127e-14
-1.08494e-14
-2.85585e-15
-6.69106e-13
-6.68064e-13
-6.7019e-13
-6.70156e-13
-6.70699e-13
-6.68218e-13
-6.66137e-13
-6.64225e-13
-6.59425e-13
-6.54872e-13
-6.50131e-13
-6.45879e-13
-6.38693e-13
-6.29815e-13
-6.20918e-13
-6.16035e-13
-6.12046e-13
-6.06601e-13
-5.99665e-13
-5.93851e-13
-5.84645e-13
-5.74938e-13
-5.68408e-13
-5.61791e-13
-5.53412e-13
-5.4773e-13
-5.43667e-13
-5.37808e-13
-5.30526e-13
-5.18918e-13
-5.10838e-13
-5.04321e-13
-4.98182e-13
-4.92335e-13
-4.86788e-13
-4.81899e-13
-4.74789e-13
-4.6369e-13
-4.51845e-13
-4.44823e-13
-4.40336e-13
-4.36446e-13
-4.32562e-13
-4.27153e-13
-4.20052e-13
-4.10456e-13
-4.00904e-13
-3.93028e-13
-3.84518e-13
-3.74863e-13
-3.67253e-13
-3.59589e-13
-3.53185e-13
-3.45396e-13
-3.3728e-13
-3.27574e-13
-3.18729e-13
-3.14491e-13
-3.11003e-13
-3.06677e-13
-3.01332e-13
-2.9244e-13
-2.8428e-13
-2.7468e-13
-2.67332e-13
-2.58479e-13
-2.51597e-13
-2.44881e-13
-2.37666e-13
-2.30027e-13
-2.21812e-13
-2.141e-13
-2.05556e-13
-1.97265e-13
-1.92315e-13
-1.8449e-13
-1.80589e-13
-1.73102e-13
-1.63242e-13
-1.52453e-13
-1.42992e-13
-1.365e-13
-1.29889e-13
-1.23187e-13
-1.14269e-13
-1.07486e-13
-9.87641e-14
-9.07825e-14
-8.60195e-14
-8.05918e-14
-7.64082e-14
-7.0338e-14
-6.39246e-14
-5.29442e-14
-4.41391e-14
-3.66699e-14
-2.75955e-14
-1.95215e-14
-1.20475e-14
-4.28439e-15
-6.68561e-13
-6.67888e-13
-6.69592e-13
-6.71743e-13
-6.72643e-13
-6.69303e-13
-6.653e-13
-6.63391e-13
-6.57879e-13
-6.54669e-13
-6.50661e-13
-6.45546e-13
-6.38579e-13
-6.3094e-13
-6.22079e-13
-6.1636e-13
-6.11339e-13
-6.06189e-13
-6.00319e-13
-5.92452e-13
-5.83963e-13
-5.76699e-13
-5.69042e-13
-5.6257e-13
-5.5487e-13
-5.49588e-13
-5.44512e-13
-5.36918e-13
-5.28851e-13
-5.17952e-13
-5.11351e-13
-5.04162e-13
-4.97687e-13
-4.93604e-13
-4.88494e-13
-4.83217e-13
-4.7379e-13
-4.64592e-13
-4.54827e-13
-4.4503e-13
-4.39713e-13
-4.3399e-13
-4.32345e-13
-4.27907e-13
-4.20448e-13
-4.1029e-13
-3.99974e-13
-3.91372e-13
-3.84966e-13
-3.79174e-13
-3.68707e-13
-3.60188e-13
-3.51394e-13
-3.43092e-13
-3.35909e-13
-3.28486e-13
-3.18887e-13
-3.15769e-13
-3.14104e-13
-3.07719e-13
-2.99466e-13
-2.89152e-13
-2.81711e-13
-2.75752e-13
-2.69259e-13
-2.61099e-13
-2.53583e-13
-2.4415e-13
-2.36609e-13
-2.2766e-13
-2.19715e-13
-2.11992e-13
-2.03242e-13
-1.97212e-13
-1.91796e-13
-1.85814e-13
-1.79957e-13
-1.73043e-13
-1.6275e-13
-1.52993e-13
-1.46891e-13
-1.38104e-13
-1.2701e-13
-1.20505e-13
-1.14224e-13
-1.09206e-13
-1.02129e-13
-9.30735e-14
-8.59838e-14
-7.93813e-14
-7.46226e-14
-6.96328e-14
-6.23171e-14
-5.37664e-14
-4.40351e-14
-3.49442e-14
-2.83805e-14
-2.01959e-14
-1.4357e-14
-4.70225e-15
-6.69242e-13
-6.70238e-13
-6.70447e-13
-6.67848e-13
-6.71624e-13
-6.67062e-13
-6.65373e-13
-6.63211e-13
-6.61311e-13
-6.56427e-13
-6.49685e-13
-6.42117e-13
-6.35852e-13
-6.30987e-13
-6.28614e-13
-6.20951e-13
-6.10066e-13
-6.0373e-13
-5.99405e-13
-5.91861e-13
-5.8441e-13
-5.77908e-13
-5.69435e-13
-5.58437e-13
-5.51745e-13
-5.48251e-13
-5.44356e-13
-5.38771e-13
-5.28887e-13
-5.209e-13
-5.13944e-13
-5.06089e-13
-4.98206e-13
-4.92071e-13
-4.85169e-13
-4.82781e-13
-4.74408e-13
-4.63612e-13
-4.55723e-13
-4.46912e-13
-4.41679e-13
-4.3742e-13
-4.3218e-13
-4.25952e-13
-4.17023e-13
-4.07706e-13
-3.997e-13
-3.94035e-13
-3.8566e-13
-3.74526e-13
-3.65599e-13
-3.59163e-13
-3.5261e-13
-3.46331e-13
-3.35515e-13
-3.28966e-13
-3.20536e-13
-3.15109e-13
-3.1331e-13
-3.06729e-13
-2.98612e-13
-2.90429e-13
-2.84518e-13
-2.77627e-13
-2.68997e-13
-2.60466e-13
-2.52927e-13
-2.44193e-13
-2.37067e-13
-2.29364e-13
-2.22442e-13
-2.14436e-13
-2.05531e-13
-1.97983e-13
-1.91439e-13
-1.8484e-13
-1.79748e-13
-1.72694e-13
-1.62617e-13
-1.53514e-13
-1.46028e-13
-1.38704e-13
-1.28475e-13
-1.19462e-13
-1.13813e-13
-1.07562e-13
-1.00562e-13
-9.25472e-14
-8.4886e-14
-7.97379e-14
-7.61268e-14
-7.03169e-14
-6.36479e-14
-5.25228e-14
-4.3715e-14
-3.70196e-14
-2.95832e-14
-2.00318e-14
-1.24545e-14
-4.55159e-15
-6.69843e-13
-6.73087e-13
-6.70582e-13
-6.6733e-13
-6.65209e-13
-6.67323e-13
-6.67338e-13
-6.65527e-13
-6.60593e-13
-6.54736e-13
-6.47949e-13
-6.43565e-13
-6.35578e-13
-6.2968e-13
-6.27713e-13
-6.22952e-13
-6.14935e-13
-6.06879e-13
-5.97758e-13
-5.88464e-13
-5.83794e-13
-5.77249e-13
-5.65855e-13
-5.57577e-13
-5.54381e-13
-5.50098e-13
-5.45216e-13
-5.37787e-13
-5.30771e-13
-5.2265e-13
-5.1426e-13
-5.06968e-13
-4.9872e-13
-4.92394e-13
-4.86282e-13
-4.82313e-13
-4.73474e-13
-4.63788e-13
-4.54064e-13
-4.46555e-13
-4.41727e-13
-4.38941e-13
-4.32255e-13
-4.24513e-13
-4.15415e-13
-4.05796e-13
-3.98748e-13
-3.92788e-13
-3.84829e-13
-3.77156e-13
-3.67961e-13
-3.60793e-13
-3.53069e-13
-3.46018e-13
-3.35827e-13
-3.28096e-13
-3.21588e-13
-3.15918e-13
-3.12228e-13
-3.05658e-13
-2.98848e-13
-2.90948e-13
-2.83084e-13
-2.77099e-13
-2.71043e-13
-2.63953e-13
-2.56384e-13
-2.45151e-13
-2.36878e-13
-2.27485e-13
-2.19765e-13
-2.12602e-13
-2.05569e-13
-1.98129e-13
-1.88753e-13
-1.82365e-13
-1.78861e-13
-1.7235e-13
-1.64559e-13
-1.54986e-13
-1.47365e-13
-1.40292e-13
-1.28411e-13
-1.18779e-13
-1.11371e-13
-1.05158e-13
-1.00498e-13
-9.46129e-14
-8.65157e-14
-8.08934e-14
-7.54054e-14
-6.99931e-14
-6.21623e-14
-5.52063e-14
-4.6873e-14
-3.71531e-14
-2.94064e-14
-2.18975e-14
-1.2066e-14
-2.72042e-15
-6.67293e-13
-6.74165e-13
-6.71746e-13
-6.65205e-13
-6.68557e-13
-6.70898e-13
-6.69075e-13
-6.65486e-13
-6.58792e-13
-6.48995e-13
-6.46001e-13
-6.42858e-13
-6.39316e-13
-6.30929e-13
-6.25699e-13
-6.24304e-13
-6.15915e-13
-6.08679e-13
-6.01072e-13
-5.91102e-13
-5.82241e-13
-5.72515e-13
-5.58921e-13
-5.55432e-13
-5.54895e-13
-5.52873e-13
-5.45448e-13
-5.37185e-13
-5.29983e-13
-5.24623e-13
-5.15304e-13
-5.06804e-13
-4.98928e-13
-4.94216e-13
-4.90017e-13
-4.81384e-13
-4.72108e-13
-4.63655e-13
-4.5399e-13
-4.48171e-13
-4.43389e-13
-4.39427e-13
-4.31156e-13
-4.24956e-13
-4.15407e-13
-4.0453e-13
-3.96099e-13
-3.8997e-13
-3.84903e-13
-3.77015e-13
-3.6929e-13
-3.60323e-13
-3.51866e-13
-3.44159e-13
-3.35026e-13
-3.29262e-13
-3.23353e-13
-3.1675e-13
-3.11041e-13
-3.06015e-13
-3.0062e-13
-2.91865e-13
-2.83818e-13
-2.77029e-13
-2.68218e-13
-2.62402e-13
-2.5674e-13
-2.46152e-13
-2.37751e-13
-2.2948e-13
-2.20595e-13
-2.12703e-13
-2.06784e-13
-1.99329e-13
-1.90423e-13
-1.8431e-13
-1.78161e-13
-1.70058e-13
-1.63786e-13
-1.56548e-13
-1.49052e-13
-1.39696e-13
-1.26857e-13
-1.17179e-13
-1.12162e-13
-1.06875e-13
-1.01723e-13
-9.29698e-14
-8.57999e-14
-8.05443e-14
-7.51069e-14
-7.02372e-14
-6.07939e-14
-5.44291e-14
-4.66215e-14
-3.95743e-14
-2.98928e-14
-2.13772e-14
-1.08227e-14
-1.9953e-15
-6.71094e-13
-6.71494e-13
-6.71625e-13
-6.68885e-13
-6.67223e-13
-6.6963e-13
-6.68266e-13
-6.63746e-13
-6.57585e-13
-6.49524e-13
-6.42985e-13
-6.42231e-13
-6.40769e-13
-6.31926e-13
-6.26623e-13
-6.22518e-13
-6.19466e-13
-6.12893e-13
-5.99278e-13
-5.85797e-13
-5.72969e-13
-5.68731e-13
-5.66403e-13
-5.63586e-13
-5.5841e-13
-5.52313e-13
-5.43527e-13
-5.36024e-13
-5.31132e-13
-5.25973e-13
-5.1717e-13
-5.05831e-13
-4.99572e-13
-4.91607e-13
-4.86031e-13
-4.79524e-13
-4.73147e-13
-4.67578e-13
-4.57919e-13
-4.47301e-13
-4.39841e-13
-4.34925e-13
-4.29631e-13
-4.25049e-13
-4.17607e-13
-4.08052e-13
-3.98103e-13
-3.89382e-13
-3.82535e-13
-3.769e-13
-3.69513e-13
-3.62779e-13
-3.54122e-13
-3.44159e-13
-3.36263e-13
-3.29897e-13
-3.22945e-13
-3.13089e-13
-3.08322e-13
-3.05688e-13
-3.03843e-13
-2.95802e-13
-2.85641e-13
-2.75046e-13
-2.66134e-13
-2.59676e-13
-2.52425e-13
-2.43119e-13
-2.34512e-13
-2.28898e-13
-2.26082e-13
-2.17152e-13
-2.07722e-13
-2.01562e-13
-1.9227e-13
-1.82868e-13
-1.75267e-13
-1.6723e-13
-1.60897e-13
-1.55413e-13
-1.48569e-13
-1.39096e-13
-1.30175e-13
-1.21463e-13
-1.14851e-13
-1.04769e-13
-9.97734e-14
-9.41639e-14
-8.63701e-14
-8.17859e-14
-7.47827e-14
-6.66404e-14
-6.08431e-14
-5.39023e-14
-4.64021e-14
-3.78767e-14
-3.0084e-14
-2.02709e-14
-1.1255e-14
-3.57173e-15
-6.70174e-13
-6.69878e-13
-6.68794e-13
-6.69914e-13
-6.7143e-13
-6.70849e-13
-6.67846e-13
-6.6304e-13
-6.56231e-13
-6.50614e-13
-6.45801e-13
-6.41206e-13
-6.38142e-13
-6.30672e-13
-6.27345e-13
-6.22736e-13
-6.19603e-13
-6.12559e-13
-5.95924e-13
-5.86835e-13
-5.82507e-13
-5.76164e-13
-5.6707e-13
-5.58674e-13
-5.55642e-13
-5.49549e-13
-5.40666e-13
-5.34889e-13
-5.29385e-13
-5.24024e-13
-5.17571e-13
-5.09441e-13
-5.03399e-13
-4.9681e-13
-4.86965e-13
-4.78959e-13
-4.72019e-13
-4.63829e-13
-4.56433e-13
-4.47341e-13
-4.40968e-13
-4.37429e-13
-4.30657e-13
-4.27132e-13
-4.20604e-13
-4.08296e-13
-3.95255e-13
-3.83426e-13
-3.80759e-13
-3.78138e-13
-3.73077e-13
-3.65409e-13
-3.53939e-13
-3.44473e-13
-3.34422e-13
-3.28072e-13
-3.23108e-13
-3.17413e-13
-3.09722e-13
-3.03863e-13
-3.00863e-13
-2.93909e-13
-2.86289e-13
-2.77944e-13
-2.69865e-13
-2.61245e-13
-2.53042e-13
-2.44134e-13
-2.37903e-13
-2.30679e-13
-2.23113e-13
-2.17215e-13
-2.06722e-13
-1.95554e-13
-1.88222e-13
-1.83393e-13
-1.77843e-13
-1.70064e-13
-1.64195e-13
-1.57772e-13
-1.48988e-13
-1.39149e-13
-1.2771e-13
-1.17567e-13
-1.09513e-13
-1.04601e-13
-1.00739e-13
-9.5498e-14
-8.78619e-14
-8.07726e-14
-7.30795e-14
-6.66155e-14
-6.10833e-14
-5.49315e-14
-4.52615e-14
-3.66723e-14
-2.97498e-14
-2.13372e-14
-1.23223e-14
-2.57415e-15
-6.71785e-13
-6.73433e-13
-6.69724e-13
-6.65407e-13
-6.67858e-13
-6.6974e-13
-6.69161e-13
-6.63456e-13
-6.53992e-13
-6.51742e-13
-6.46843e-13
-6.39141e-13
-6.34253e-13
-6.30962e-13
-6.28485e-13
-6.24624e-13
-6.19342e-13
-6.10942e-13
-5.99067e-13
-5.88324e-13
-5.81208e-13
-5.742e-13
-5.7013e-13
-5.63992e-13
-5.56158e-13
-5.47519e-13
-5.39666e-13
-5.34712e-13
-5.31562e-13
-5.24665e-13
-5.18318e-13
-5.1056e-13
-5.01448e-13
-4.92355e-13
-4.87108e-13
-4.79624e-13
-4.7101e-13
-4.62977e-13
-4.57246e-13
-4.51468e-13
-4.46e-13
-4.38842e-13
-4.28156e-13
-4.20499e-13
-4.15279e-13
-4.08189e-13
-3.98646e-13
-3.89848e-13
-3.8318e-13
-3.76103e-13
-3.69421e-13
-3.62563e-13
-3.53268e-13
-3.45152e-13
-3.37212e-13
-3.31839e-13
-3.24288e-13
-3.17466e-13
-3.1053e-13
-3.04942e-13
-2.98681e-13
-2.91544e-13
-2.84991e-13
-2.77543e-13
-2.67995e-13
-2.58371e-13
-2.52168e-13
-2.44855e-13
-2.37387e-13
-2.29781e-13
-2.22074e-13
-2.17585e-13
-2.09519e-13
-2.0019e-13
-1.89649e-13
-1.83736e-13
-1.7886e-13
-1.71165e-13
-1.64547e-13
-1.5573e-13
-1.49043e-13
-1.39659e-13
-1.28039e-13
-1.18872e-13
-1.11253e-13
-1.0487e-13
-1.0126e-13
-9.5043e-14
-8.76165e-14
-8.08e-14
-7.28145e-14
-6.60521e-14
-5.87137e-14
-5.28426e-14
-4.48771e-14
-3.67456e-14
-2.87047e-14
-1.87469e-14
-9.40369e-15
-5.45237e-16
-6.71782e-13
-6.71715e-13
-6.71553e-13
-6.69027e-13
-6.66714e-13
-6.67842e-13
-6.67104e-13
-6.65433e-13
-6.59633e-13
-6.49243e-13
-6.42705e-13
-6.3686e-13
-6.34988e-13
-6.33251e-13
-6.29765e-13
-6.24133e-13
-6.16573e-13
-6.11565e-13
-6.04024e-13
-5.91481e-13
-5.81453e-13
-5.71457e-13
-5.66227e-13
-5.6015e-13
-5.56968e-13
-5.51867e-13
-5.42715e-13
-5.3651e-13
-5.30835e-13
-5.24778e-13
-5.18664e-13
-5.10646e-13
-5.01392e-13
-4.91359e-13
-4.84581e-13
-4.78401e-13
-4.73131e-13
-4.63829e-13
-4.58086e-13
-4.51994e-13
-4.43679e-13
-4.3473e-13
-4.27251e-13
-4.20632e-13
-4.17249e-13
-4.11443e-13
-4.01351e-13
-3.91184e-13
-3.82967e-13
-3.74092e-13
-3.67239e-13
-3.62244e-13
-3.54368e-13
-3.46136e-13
-3.37696e-13
-3.3067e-13
-3.24128e-13
-3.16852e-13
-3.1012e-13
-3.06243e-13
-3.01309e-13
-2.95912e-13
-2.88933e-13
-2.78366e-13
-2.66017e-13
-2.53507e-13
-2.46162e-13
-2.41021e-13
-2.36351e-13
-2.34012e-13
-2.27771e-13
-2.1925e-13
-2.11327e-13
-2.01741e-13
-1.90234e-13
-1.82057e-13
-1.76798e-13
-1.696e-13
-1.64318e-13
-1.55746e-13
-1.48467e-13
-1.39909e-13
-1.2915e-13
-1.21163e-13
-1.12221e-13
-1.04036e-13
-9.90911e-14
-9.22645e-14
-8.71945e-14
-8.087e-14
-7.17262e-14
-6.26704e-14
-5.63268e-14
-5.09327e-14
-4.16078e-14
-3.34839e-14
-2.59331e-14
-1.73696e-14
-7.71811e-15
-8.85026e-16
-6.7055e-13
-6.70143e-13
-6.69514e-13
-6.70515e-13
-6.7057e-13
-6.6642e-13
-6.64844e-13
-6.62658e-13
-6.5817e-13
-6.53159e-13
-6.43473e-13
-6.35855e-13
-6.34907e-13
-6.34606e-13
-6.30393e-13
-6.26022e-13
-6.16675e-13
-6.09791e-13
-6.03247e-13
-5.9275e-13
-5.84924e-13
-5.72499e-13
-5.63818e-13
-5.5955e-13
-5.54649e-13
-5.4955e-13
-5.44191e-13
-5.37504e-13
-5.32109e-13
-5.25812e-13
-5.18064e-13
-5.09634e-13
-5.00705e-13
-4.92791e-13
-4.87444e-13
-4.79623e-13
-4.71689e-13
-4.63902e-13
-4.58647e-13
-4.50691e-13
-4.43536e-13
-4.34666e-13
-4.27541e-13
-4.23647e-13
-4.19333e-13
-4.10315e-13
-3.98899e-13
-3.8825e-13
-3.80798e-13
-3.73071e-13
-3.69355e-13
-3.63718e-13
-3.53689e-13
-3.4569e-13
-3.36968e-13
-3.32725e-13
-3.26125e-13
-3.18736e-13
-3.0975e-13
-3.01661e-13
-2.98367e-13
-2.90697e-13
-2.85415e-13
-2.80003e-13
-2.6758e-13
-2.55391e-13
-2.46714e-13
-2.40453e-13
-2.36391e-13
-2.36261e-13
-2.28917e-13
-2.21099e-13
-2.11769e-13
-2.01064e-13
-1.88809e-13
-1.79388e-13
-1.76383e-13
-1.72124e-13
-1.67125e-13
-1.58103e-13
-1.51e-13
-1.42277e-13
-1.28958e-13
-1.18869e-13
-1.084e-13
-9.96272e-14
-9.93271e-14
-9.53237e-14
-8.74146e-14
-8.01481e-14
-7.01634e-14
-6.27635e-14
-5.56802e-14
-4.9059e-14
-4.27687e-14
-3.54968e-14
-2.3189e-14
-1.10659e-14
-2.17891e-15
-1.74194e-15
-6.72602e-13
-6.71247e-13
-6.69781e-13
-6.70816e-13
-6.69808e-13
-6.6579e-13
-6.65882e-13
-6.63295e-13
-6.57515e-13
-6.50879e-13
-6.44966e-13
-6.38573e-13
-6.32154e-13
-6.297e-13
-6.27393e-13
-6.2213e-13
-6.18992e-13
-6.13832e-13
-6.05248e-13
-5.93559e-13
-5.84419e-13
-5.77696e-13
-5.6844e-13
-5.59882e-13
-5.54318e-13
-5.457e-13
-5.41319e-13
-5.37449e-13
-5.33212e-13
-5.27665e-13
-5.19237e-13
-5.09824e-13
-4.99606e-13
-4.90898e-13
-4.85334e-13
-4.78117e-13
-4.73193e-13
-4.66044e-13
-4.60463e-13
-4.49751e-13
-4.42196e-13
-4.32186e-13
-4.27354e-13
-4.25224e-13
-4.18186e-13
-4.10262e-13
-3.99652e-13
-3.90439e-13
-3.81633e-13
-3.72609e-13
-3.66255e-13
-3.62036e-13
-3.53765e-13
-3.47713e-13
-3.40723e-13
-3.31873e-13
-3.24869e-13
-3.17071e-13
-3.09121e-13
-3.03386e-13
-2.99941e-13
-2.97903e-13
-2.88414e-13
-2.77707e-13
-2.62532e-13
-2.53394e-13
-2.46669e-13
-2.42096e-13
-2.36343e-13
-2.3284e-13
-2.26197e-13
-2.23294e-13
-2.16697e-13
-2.0508e-13
-1.88409e-13
-1.74518e-13
-1.71005e-13
-1.7256e-13
-1.68548e-13
-1.58162e-13
-1.50341e-13
-1.40697e-13
-1.30655e-13
-1.21519e-13
-1.11661e-13
-1.01711e-13
-9.5119e-14
-9.24674e-14
-8.61173e-14
-7.8507e-14
-6.82517e-14
-6.22759e-14
-5.56713e-14
-4.79219e-14
-3.97779e-14
-3.29611e-14
-2.2156e-14
-1.19365e-14
-4.50389e-15
-1.78068e-15
-6.70796e-13
-6.70445e-13
-6.65114e-13
-6.71526e-13
-6.71258e-13
-6.68914e-13
-6.64195e-13
-6.59332e-13
-6.54689e-13
-6.47544e-13
-6.43547e-13
-6.39604e-13
-6.37961e-13
-6.33004e-13
-6.2893e-13
-6.25168e-13
-6.2047e-13
-6.14761e-13
-6.05927e-13
-5.9426e-13
-5.80104e-13
-5.69081e-13
-5.61814e-13
-5.59017e-13
-5.54013e-13
-5.49645e-13
-5.42859e-13
-5.37479e-13
-5.33976e-13
-5.2914e-13
-5.21398e-13
-5.10156e-13
-5.01433e-13
-4.93889e-13
-4.88527e-13
-4.79517e-13
-4.70738e-13
-4.652e-13
-4.58702e-13
-4.49445e-13
-4.40807e-13
-4.35824e-13
-4.3034e-13
-4.24333e-13
-4.14532e-13
-4.05489e-13
-3.97891e-13
-3.90328e-13
-3.8256e-13
-3.75346e-13
-3.68578e-13
-3.62188e-13
-3.51882e-13
-3.43326e-13
-3.42184e-13
-3.39935e-13
-3.2686e-13
-3.14296e-13
-3.0604e-13
-2.98879e-13
-2.95182e-13
-2.91438e-13
-2.88874e-13
-2.79924e-13
-2.65873e-13
-2.57329e-13
-2.45601e-13
-2.42623e-13
-2.36633e-13
-2.30968e-13
-2.25993e-13
-2.24021e-13
-2.16832e-13
-2.03536e-13
-1.89489e-13
-1.77811e-13
-1.73149e-13
-1.73466e-13
-1.65407e-13
-1.55984e-13
-1.49043e-13
-1.4092e-13
-1.3256e-13
-1.2284e-13
-1.12486e-13
-1.01345e-13
-9.49432e-14
-9.24286e-14
-8.48104e-14
-7.6865e-14
-6.84113e-14
-6.10473e-14
-5.30829e-14
-4.65459e-14
-4.05303e-14
-3.21487e-14
-2.19228e-14
-1.30495e-14
-3.66271e-15
-5.8143e-16
-6.6817e-13
-6.75325e-13
-6.71575e-13
-6.6816e-13
-6.68618e-13
-6.67477e-13
-6.63622e-13
-6.62355e-13
-6.54548e-13
-6.44694e-13
-6.41399e-13
-6.39894e-13
-6.37071e-13
-6.34266e-13
-6.30543e-13
-6.23046e-13
-6.14339e-13
-6.08311e-13
-6.04008e-13
-5.96344e-13
-5.90409e-13
-5.83253e-13
-5.73443e-13
-5.58874e-13
-5.47474e-13
-5.41335e-13
-5.41822e-13
-5.3815e-13
-5.3433e-13
-5.30662e-13
-5.22169e-13
-5.11338e-13
-4.98704e-13
-4.88134e-13
-4.82205e-13
-4.77421e-13
-4.75248e-13
-4.69769e-13
-4.58968e-13
-4.52091e-13
-4.42528e-13
-4.33599e-13
-4.29171e-13
-4.22241e-13
-4.13595e-13
-4.0477e-13
-3.95693e-13
-3.90424e-13
-3.84846e-13
-3.76834e-13
-3.69148e-13
-3.60257e-13
-3.53263e-13
-3.46059e-13
-3.40761e-13
-3.3491e-13
-3.28664e-13
-3.20781e-13
-3.12871e-13
-3.02793e-13
-2.9423e-13
-2.87734e-13
-2.8179e-13
-2.76102e-13
-2.66821e-13
-2.58875e-13
-2.50165e-13
-2.43448e-13
-2.37163e-13
-2.32521e-13
-2.2782e-13
-2.19919e-13
-2.12255e-13
-2.0411e-13
-1.91615e-13
-1.81566e-13
-1.73319e-13
-1.69361e-13
-1.64974e-13
-1.5664e-13
-1.49876e-13
-1.39596e-13
-1.31349e-13
-1.21768e-13
-1.11507e-13
-1.02355e-13
-9.68669e-14
-9.10925e-14
-8.53014e-14
-7.64791e-14
-6.83763e-14
-6.29984e-14
-5.50139e-14
-4.6143e-14
-3.71415e-14
-2.85979e-14
-2.08844e-14
-1.39709e-14
-5.83098e-15
-1.00199e-15
-6.67583e-13
-6.70712e-13
-6.72214e-13
-6.69308e-13
-6.68799e-13
-6.69366e-13
-6.61534e-13
-6.53243e-13
-6.49175e-13
-6.47963e-13
-6.45988e-13
-6.42778e-13
-6.39586e-13
-6.35071e-13
-6.30278e-13
-6.24186e-13
-6.18837e-13
-6.15242e-13
-6.0782e-13
-5.95645e-13
-5.8082e-13
-5.69799e-13
-5.62965e-13
-5.54973e-13
-5.53309e-13
-5.50161e-13
-5.45411e-13
-5.37921e-13
-5.33011e-13
-5.30225e-13
-5.23745e-13
-5.13966e-13
-5.02414e-13
-4.88336e-13
-4.78914e-13
-4.77085e-13
-4.75972e-13
-4.70625e-13
-4.63024e-13
-4.53015e-13
-4.40987e-13
-4.32009e-13
-4.24479e-13
-4.19268e-13
-4.1303e-13
-4.06577e-13
-3.99191e-13
-3.90732e-13
-3.84276e-13
-3.81867e-13
-3.74176e-13
-3.59218e-13
-3.49419e-13
-3.42319e-13
-3.36661e-13
-3.33643e-13
-3.29214e-13
-3.20372e-13
-3.0903e-13
-3.00469e-13
-2.96047e-13
-2.90964e-13
-2.84223e-13
-2.76085e-13
-2.6366e-13
-2.54574e-13
-2.48737e-13
-2.45282e-13
-2.39482e-13
-2.3245e-13
-2.25643e-13
-2.20048e-13
-2.12599e-13
-2.02789e-13
-1.92096e-13
-1.79081e-13
-1.72142e-13
-1.68551e-13
-1.66577e-13
-1.60601e-13
-1.5229e-13
-1.41886e-13
-1.30853e-13
-1.19848e-13
-1.10416e-13
-1.02604e-13
-9.70374e-14
-9.04615e-14
-8.30405e-14
-7.54782e-14
-6.8488e-14
-6.22172e-14
-5.54281e-14
-4.58192e-14
-3.62661e-14
-2.67772e-14
-1.80775e-14
-1.1577e-14
-4.60875e-15
-1.36422e-15
-6.66728e-13
-6.72738e-13
-6.73472e-13
-6.70105e-13
-6.67609e-13
-6.71042e-13
-6.68229e-13
-6.57928e-13
-6.44441e-13
-6.41594e-13
-6.40839e-13
-6.41463e-13
-6.39839e-13
-6.38042e-13
-6.33107e-13
-6.25064e-13
-6.17515e-13
-6.11082e-13
-6.01172e-13
-5.93648e-13
-5.87201e-13
-5.76624e-13
-5.66058e-13
-5.54576e-13
-5.52676e-13
-5.49875e-13
-5.46785e-13
-5.40899e-13
-5.33833e-13
-5.2935e-13
-5.2126e-13
-5.10628e-13
-5.01349e-13
-4.88464e-13
-4.78104e-13
-4.75855e-13
-4.74932e-13
-4.71022e-13
-4.62625e-13
-4.53529e-13
-4.39924e-13
-4.30533e-13
-4.26762e-13
-4.21052e-13
-4.13279e-13
-4.04936e-13
-4.00804e-13
-3.94144e-13
-3.84395e-13
-3.74062e-13
-3.67042e-13
-3.60855e-13
-3.52422e-13
-3.41072e-13
-3.40122e-13
-3.36388e-13
-3.28205e-13
-3.21473e-13
-3.14309e-13
-3.02425e-13
-2.94654e-13
-2.88328e-13
-2.80449e-13
-2.73477e-13
-2.63357e-13
-2.55944e-13
-2.47247e-13
-2.42882e-13
-2.36693e-13
-2.34357e-13
-2.27425e-13
-2.22313e-13
-2.15113e-13
-2.02538e-13
-1.89851e-13
-1.7905e-13
-1.74e-13
-1.69122e-13
-1.63758e-13
-1.57896e-13
-1.51251e-13
-1.4232e-13
-1.3176e-13
-1.19809e-13
-1.12115e-13
-1.04632e-13
-9.71944e-14
-9.02853e-14
-8.34562e-14
-7.46663e-14
-6.71694e-14
-6.02351e-14
-5.21523e-14
-4.3191e-14
-3.58851e-14
-2.96905e-14
-1.69283e-14
-8.89225e-15
-2.4179e-15
-7.29819e-16
-6.71633e-13
-6.70738e-13
-6.68099e-13
-6.65207e-13
-6.66556e-13
-6.62859e-13
-6.59544e-13
-6.60067e-13
-6.56899e-13
-6.50753e-13
-6.47413e-13
-6.40535e-13
-6.35421e-13
-6.34532e-13
-6.3198e-13
-6.26368e-13
-6.19245e-13
-6.16052e-13
-6.07359e-13
-5.93925e-13
-5.78589e-13
-5.68166e-13
-5.62223e-13
-5.60008e-13
-5.5359e-13
-5.51244e-13
-5.46982e-13
-5.40132e-13
-5.34176e-13
-5.28178e-13
-5.21283e-13
-5.10438e-13
-4.99616e-13
-4.88144e-13
-4.80246e-13
-4.77698e-13
-4.77848e-13
-4.71093e-13
-4.6141e-13
-4.5217e-13
-4.40302e-13
-4.28797e-13
-4.2492e-13
-4.20545e-13
-4.16016e-13
-4.05734e-13
-3.97197e-13
-3.92653e-13
-3.86996e-13
-3.76474e-13
-3.66184e-13
-3.60566e-13
-3.53553e-13
-3.43809e-13
-3.36442e-13
-3.32778e-13
-3.26323e-13
-3.20464e-13
-3.14743e-13
-3.05859e-13
-2.95827e-13
-2.8866e-13
-2.80166e-13
-2.73009e-13
-2.66323e-13
-2.56763e-13
-2.47206e-13
-2.3846e-13
-2.34189e-13
-2.34604e-13
-2.26839e-13
-2.21077e-13
-2.13799e-13
-2.03001e-13
-1.92362e-13
-1.81442e-13
-1.71304e-13
-1.65448e-13
-1.63188e-13
-1.61232e-13
-1.54527e-13
-1.4104e-13
-1.30712e-13
-1.18302e-13
-1.12172e-13
-1.06079e-13
-9.88455e-14
-8.93109e-14
-8.03773e-14
-7.40658e-14
-6.70144e-14
-5.938e-14
-5.31493e-14
-4.44884e-14
-3.54544e-14
-2.61981e-14
-1.69827e-14
-9.95545e-15
-2.43006e-15
4.19335e-16
-6.71173e-13
-6.70274e-13
-6.68204e-13
-6.66702e-13
-6.71152e-13
-6.68806e-13
-6.59751e-13
-6.5459e-13
-6.5087e-13
-6.48634e-13
-6.47526e-13
-6.45762e-13
-6.36992e-13
-6.31165e-13
-6.28731e-13
-6.24349e-13
-6.20871e-13
-6.14758e-13
-6.0517e-13
-5.9198e-13
-5.80608e-13
-5.6954e-13
-5.61259e-13
-5.60076e-13
-5.58697e-13
-5.50925e-13
-5.44202e-13
-5.40073e-13
-5.36817e-13
-5.29835e-13
-5.22774e-13
-5.11395e-13
-4.99437e-13
-4.8763e-13
-4.77797e-13
-4.76511e-13
-4.7349e-13
-4.69861e-13
-4.64469e-13
-4.55267e-13
-4.42926e-13
-4.31978e-13
-4.24418e-13
-4.15938e-13
-4.13242e-13
-4.068e-13
-3.99096e-13
-3.89903e-13
-3.82902e-13
-3.7671e-13
-3.66379e-13
-3.60652e-13
-3.53591e-13
-3.44802e-13
-3.40675e-13
-3.35627e-13
-3.25028e-13
-3.16074e-13
-3.11557e-13
-3.04014e-13
-2.97107e-13
-2.88221e-13
-2.81376e-13
-2.74465e-13
-2.65725e-13
-2.55179e-13
-2.48348e-13
-2.38783e-13
-2.31689e-13
-2.29268e-13
-2.26057e-13
-2.21658e-13
-2.15021e-13
-2.03107e-13
-1.91668e-13
-1.81789e-13
-1.73659e-13
-1.6696e-13
-1.64614e-13
-1.59966e-13
-1.52381e-13
-1.42023e-13
-1.31516e-13
-1.2025e-13
-1.11405e-13
-1.01713e-13
-9.52686e-14
-9.06239e-14
-8.38253e-14
-7.42098e-14
-6.6042e-14
-5.85453e-14
-5.08511e-14
-4.28195e-14
-3.40711e-14
-2.71242e-14
-1.82215e-14
-8.51836e-15
-2.17987e-15
-1.05465e-15
-6.67387e-13
-6.69663e-13
-6.69634e-13
-6.68227e-13
-6.67164e-13
-6.62459e-13
-6.5948e-13
-6.56897e-13
-6.55505e-13
-6.52344e-13
-6.48204e-13
-6.44965e-13
-6.3922e-13
-6.32415e-13
-6.2766e-13
-6.21834e-13
-6.19416e-13
-6.13618e-13
-6.03685e-13
-5.93812e-13
-5.80664e-13
-5.69917e-13
-5.65029e-13
-5.60706e-13
-5.53326e-13
-5.49005e-13
-5.47079e-13
-5.43281e-13
-5.36177e-13
-5.26919e-13
-5.19103e-13
-5.10417e-13
-4.99162e-13
-4.88635e-13
-4.79775e-13
-4.80208e-13
-4.78755e-13
-4.70709e-13
-4.60874e-13
-4.49692e-13
-4.4023e-13
-4.33895e-13
-4.2602e-13
-4.16312e-13
-4.10984e-13
-4.03315e-13
-4.00389e-13
-3.97582e-13
-3.85939e-13
-3.73914e-13
-3.64637e-13
-3.61299e-13
-3.53991e-13
-3.44198e-13
-3.39348e-13
-3.34808e-13
-3.27184e-13
-3.17217e-13
-3.09735e-13
-3.02725e-13
-2.99221e-13
-2.90866e-13
-2.81694e-13
-2.73158e-13
-2.62629e-13
-2.54723e-13
-2.46335e-13
-2.39908e-13
-2.32465e-13
-2.27644e-13
-2.22832e-13
-2.21911e-13
-2.15824e-13
-2.02993e-13
-1.91507e-13
-1.81552e-13
-1.75206e-13
-1.69009e-13
-1.61322e-13
-1.53462e-13
-1.53948e-13
-1.47609e-13
-1.3238e-13
-1.20139e-13
-1.10592e-13
-1.00963e-13
-9.37942e-14
-8.96701e-14
-8.34052e-14
-7.41719e-14
-6.55935e-14
-5.89646e-14
-5.12795e-14
-4.16116e-14
-3.555e-14
-2.59053e-14
-1.64159e-14
-7.46265e-15
-1.48074e-15
-1.31666e-15
-6.72402e-13
-6.70481e-13
-6.69009e-13
-6.66663e-13
-6.6307e-13
-6.61193e-13
-6.58877e-13
-6.58559e-13
-6.56356e-13
-6.52635e-13
-6.47501e-13
-6.44601e-13
-6.39818e-13
-6.35007e-13
-6.29023e-13
-6.2089e-13
-6.13174e-13
-6.07871e-13
-6.03409e-13
-5.96586e-13
-5.8274e-13
-5.72907e-13
-5.65276e-13
-5.58711e-13
-5.54576e-13
-5.50661e-13
-5.4779e-13
-5.43624e-13
-5.3468e-13
-5.28799e-13
-5.19729e-13
-5.09476e-13
-4.98159e-13
-4.8697e-13
-4.81608e-13
-4.79645e-13
-4.76064e-13
-4.6954e-13
-4.6064e-13
-4.50751e-13
-4.40462e-13
-4.31608e-13
-4.26038e-13
-4.19307e-13
-4.13931e-13
-4.06837e-13
-3.97467e-13
-3.9013e-13
-3.8489e-13
-3.77125e-13
-3.69921e-13
-3.61109e-13
-3.52516e-13
-3.44444e-13
-3.38105e-13
-3.30725e-13
-3.26156e-13
-3.19011e-13
-3.09754e-13
-3.02888e-13
-2.99411e-13
-2.92005e-13
-2.82015e-13
-2.7159e-13
-2.63531e-13
-2.55304e-13
-2.4615e-13
-2.38444e-13
-2.32408e-13
-2.27535e-13
-2.23853e-13
-2.22081e-13
-2.14738e-13
-2.00834e-13
-1.90744e-13
-1.81702e-13
-1.74727e-13
-1.68179e-13
-1.63386e-13
-1.58065e-13
-1.51173e-13
-1.42942e-13
-1.32912e-13
-1.22795e-13
-1.14275e-13
-1.01135e-13
-9.28538e-14
-8.72218e-14
-8.29496e-14
-7.17007e-14
-6.36117e-14
-5.82393e-14
-5.39232e-14
-4.25276e-14
-3.23252e-14
-2.53356e-14
-1.76689e-14
-6.01093e-15
-2.39828e-15
-1.9144e-15
-6.74324e-13
-6.6993e-13
-6.65561e-13
-6.66038e-13
-6.60495e-13
-6.61056e-13
-6.59117e-13
-6.59437e-13
-6.58807e-13
-6.51647e-13
-6.47222e-13
-6.45113e-13
-6.43189e-13
-6.36179e-13
-6.29058e-13
-6.23012e-13
-6.1665e-13
-6.08606e-13
-6.02528e-13
-5.91624e-13
-5.82699e-13
-5.72992e-13
-5.62971e-13
-5.57168e-13
-5.53038e-13
-5.53288e-13
-5.48386e-13
-5.42554e-13
-5.34868e-13
-5.27523e-13
-5.19819e-13
-5.1088e-13
-4.98022e-13
-4.89263e-13
-4.80326e-13
-4.76488e-13
-4.74636e-13
-4.69433e-13
-4.60684e-13
-4.50889e-13
-4.42708e-13
-4.33747e-13
-4.25138e-13
-4.1839e-13
-4.12346e-13
-4.05425e-13
-3.97361e-13
-3.91979e-13
-3.86708e-13
-3.77528e-13
-3.67431e-13
-3.57882e-13
-3.51722e-13
-3.4631e-13
-3.40006e-13
-3.33844e-13
-3.26626e-13
-3.17864e-13
-3.11691e-13
-3.05902e-13
-3.00116e-13
-2.90715e-13
-2.78954e-13
-2.70506e-13
-2.62186e-13
-2.53319e-13
-2.44701e-13
-2.3941e-13
-2.32129e-13
-2.30381e-13
-2.24697e-13
-2.18891e-13
-2.09358e-13
-1.98971e-13
-1.89531e-13
-1.8029e-13
-1.77091e-13
-1.73246e-13
-1.64383e-13
-1.56179e-13
-1.49113e-13
-1.40899e-13
-1.31726e-13
-1.21833e-13
-1.10775e-13
-9.91662e-14
-9.33484e-14
-8.8894e-14
-8.16599e-14
-7.56534e-14
-6.89337e-14
-5.82894e-14
-4.9162e-14
-4.0707e-14
-3.23356e-14
-2.35319e-14
-1.59698e-14
-1.03286e-14
-4.62215e-15
-2.18602e-15
-6.72847e-13
-6.68501e-13
-6.67414e-13
-6.65845e-13
-6.63546e-13
-6.61046e-13
-6.57016e-13
-6.58978e-13
-6.58537e-13
-6.54238e-13
-6.49232e-13
-6.44177e-13
-6.42649e-13
-6.34909e-13
-6.27046e-13
-6.19451e-13
-6.12067e-13
-6.08279e-13
-6.02948e-13
-5.93378e-13
-5.84092e-13
-5.74385e-13
-5.64474e-13
-5.5984e-13
-5.57131e-13
-5.50982e-13
-5.45083e-13
-5.38618e-13
-5.3149e-13
-5.27659e-13
-5.20868e-13
-5.1435e-13
-5.03701e-13
-4.93772e-13
-4.78879e-13
-4.73893e-13
-4.71364e-13
-4.67144e-13
-4.60204e-13
-4.5048e-13
-4.43775e-13
-4.33776e-13
-4.26865e-13
-4.16872e-13
-4.12385e-13
-4.06244e-13
-4.01074e-13
-3.93005e-13
-3.83723e-13
-3.72007e-13
-3.66702e-13
-3.61725e-13
-3.54456e-13
-3.42895e-13
-3.35945e-13
-3.29667e-13
-3.22743e-13
-3.19646e-13
-3.11893e-13
-3.08222e-13
-3.06809e-13
-2.89021e-13
-2.77409e-13
-2.71469e-13
-2.63981e-13
-2.55487e-13
-2.46643e-13
-2.39699e-13
-2.30366e-13
-2.26102e-13
-2.21202e-13
-2.20171e-13
-2.12895e-13
-2.01684e-13
-1.8778e-13
-1.77012e-13
-1.76761e-13
-1.72246e-13
-1.64286e-13
-1.57519e-13
-1.4993e-13
-1.41105e-13
-1.31098e-13
-1.20533e-13
-1.11296e-13
-1.00402e-13
-9.27704e-14
-8.88107e-14
-8.23409e-14
-7.2018e-14
-6.42786e-14
-5.79609e-14
-4.9833e-14
-4.05776e-14
-3.53173e-14
-2.81846e-14
-1.6265e-14
-7.70037e-15
-1.14986e-15
-1.34032e-15
-6.68745e-13
-6.70318e-13
-6.70108e-13
-6.6545e-13
-6.6161e-13
-6.62107e-13
-6.60516e-13
-6.57422e-13
-6.56924e-13
-6.53447e-13
-6.50725e-13
-6.4738e-13
-6.41097e-13
-6.33828e-13
-6.27697e-13
-6.21894e-13
-6.17746e-13
-6.13342e-13
-6.04789e-13
-5.91894e-13
-5.77689e-13
-5.66766e-13
-5.62428e-13
-5.61285e-13
-5.5776e-13
-5.50877e-13
-5.42573e-13
-5.38215e-13
-5.31182e-13
-5.28254e-13
-5.23597e-13
-5.11416e-13
-5.00118e-13
-4.92143e-13
-4.83774e-13
-4.78327e-13
-4.72861e-13
-4.65947e-13
-4.59034e-13
-4.50767e-13
-4.42777e-13
-4.3317e-13
-4.24745e-13
-4.19291e-13
-4.15878e-13
-4.07147e-13
-3.99218e-13
-3.8866e-13
-3.84229e-13
-3.76852e-13
-3.65988e-13
-3.60425e-13
-3.5359e-13
-3.45354e-13
-3.38032e-13
-3.26947e-13
-3.17059e-13
-3.17781e-13
-3.1854e-13
-3.09617e-13
-3.0069e-13
-2.90435e-13