/*--------------------------------*- C++ -*----------------------------------*\
| =========                 |                                                 |
| \\      /  F ield         | OpenFOAM: The Open Source CFD Toolbox           |
|  \\    /   O peration     | Version:  v2012                                 |
|   \\  /    A nd           | Website:  www.openfoam.com                      |
|    \\/     M anipulation  |                                                 |
\*---------------------------------------------------------------------------*/
FoamFile
{
    version     2.0;
    format      ascii;
    class       volScalarField;
    location    "0";
    object      pRec;
}
// * * * * * * * * * * * * * * * * * * * * * * * * * * * * * * * * * * * * * //

dimensions      [0 2 -2 0 0 0 0];


internalField   nonuniform List<scalar> 
4000
(
-6.75023e-13
-6.70144e-13
-6.71083e-13
-6.73326e-13
-6.71831e-13
-6.72142e-13
-6.70582e-13
-6.66143e-13
-6.57532e-13
-6.53222e-13
-6.53884e-13
-6.48915e-13
-6.40692e-13
-6.29173e-13
-6.16255e-13
-6.10598e-13
-6.06754e-13
-6.04496e-13
-5.97794e-13
-5.8649e-13
-5.76391e-13
-5.6942e-13
-5.64393e-13
-5.562e-13
-5.46147e-13
-5.3591e-13
-5.32609e-13
-5.27737e-13
-5.21329e-13
-5.10505e-13
-4.96527e-13
-4.89366e-13
-4.86159e-13
-4.8281e-13
-4.77194e-13
-4.72716e-13
-4.63035e-13
-4.46988e-13
-4.30892e-13
-4.26442e-13
-4.25313e-13
-4.22183e-13
-4.21012e-13
-4.15025e-13
-4.05269e-13
-3.96447e-13
-3.87507e-13
-3.78558e-13
-3.69902e-13
-3.62134e-13
-3.53809e-13
-3.46331e-13
-3.39369e-13
-3.30978e-13
-3.23386e-13
-3.11698e-13
-3.0441e-13
-3.0183e-13
-2.99179e-13
-2.95749e-13
-2.87511e-13
-2.80463e-13
-2.71158e-13
-2.60343e-13
-2.5256e-13
-2.45186e-13
-2.40463e-13
-2.32299e-13
-2.22221e-13
-2.15292e-13
-2.07985e-13
-2.00107e-13
-1.8743e-13
-1.80213e-13
-1.78157e-13
-1.73655e-13
-1.68362e-13
-1.61663e-13
-1.52282e-13
-1.39275e-13
-1.2735e-13
-1.21435e-13
-1.12966e-13
-1.07889e-13
-1.0217e-13
-9.6304e-14
-8.81155e-14
-8.0577e-14
-7.70263e-14
-7.26644e-14
-6.70477e-14
-6.04305e-14
-5.42209e-14
-4.92665e-14
-4.04562e-14
-3.19447e-14
-2.45981e-14
-1.69489e-14
-9.26628e-15
-2.21729e-15
-6.72086e-13
-6.70747e-13
-6.73367e-13
-6.73317e-13
-6.73995e-13
-6.71153e-13
-6.68389e-13
-6.6636e-13
-6.61188e-13
-6.56019e-13
-6.50849e-13
-6.46478e-13
-6.39144e-13
-6.29066e-13
-6.19006e-13
-6.13442e-13
-6.09107e-13
-6.03181e-13
-5.9587e-13
-5.893e-13
-5.78984e-13
-5.67994e-13
-5.61168e-13
-5.53695e-13
-5.44279e-13
-5.38289e-13
-5.3407e-13
-5.28234e-13
-5.20448e-13
-5.07601e-13
-4.98925e-13
-4.92138e-13
-4.85784e-13
-4.80026e-13
-4.74831e-13
-4.69545e-13
-4.61718e-13
-4.49592e-13
-4.36761e-13
-4.29658e-13
-4.25189e-13
-4.22122e-13
-4.18432e-13
-4.13567e-13
-4.06248e-13
-3.96445e-13
-3.86399e-13
-3.78436e-13
-3.6979e-13
-3.60116e-13
-3.52919e-13
-3.45544e-13
-3.39604e-13
-3.32227e-13
-3.24392e-13
-3.13987e-13
-3.04276e-13
-3.00353e-13
-2.97674e-13
-2.9427e-13
-2.89373e-13
-2.80531e-13
-2.71765e-13
-2.61932e-13
-2.54307e-13
-2.45384e-13
-2.38361e-13
-2.31398e-13
-2.24247e-13
-2.16497e-13
-2.08003e-13
-2.00175e-13
-1.91459e-13
-1.83152e-13
-1.78105e-13
-1.70317e-13
-1.67144e-13
-1.59776e-13
-1.49539e-13
-1.38112e-13
-1.2839e-13
-1.22583e-13
-1.16265e-13
-1.09678e-13
-1.00824e-13
-9.45021e-14
-8.62741e-14
-7.89235e-14
-7.5621e-14
-7.12965e-14
-6.81109e-14
-6.27395e-14
-5.73927e-14
-4.7441e-14
-3.90208e-14
-3.24157e-14
-2.40752e-14
-1.7131e-14
-1.05137e-14
-3.82198e-15
-6.71439e-13
-6.70642e-13
-6.72653e-13
-6.75205e-13
-6.76e-13
-6.72253e-13
-6.67433e-13
-6.65346e-13
-6.5935e-13
-6.55768e-13
-6.51545e-13
-6.45912e-13
-6.38611e-13
-6.30349e-13
-6.20664e-13
-6.14216e-13
-6.08212e-13
-6.02296e-13
-5.9641e-13
-5.87875e-13
-5.78227e-13
-5.69939e-13
-5.61831e-13
-5.54455e-13
-5.4581e-13
-5.40506e-13
-5.35071e-13
-5.26857e-13
-5.18403e-13
-5.06254e-13
-4.99258e-13
-4.9213e-13
-4.85303e-13
-4.81646e-13
-4.76707e-13
-4.70719e-13
-4.60405e-13
-4.50594e-13
-4.40279e-13
-4.29839e-13
-4.24454e-13
-4.1936e-13
-4.18402e-13
-4.1403e-13
-4.06678e-13
-3.96358e-13
-3.8504e-13
-3.76128e-13
-3.70706e-13
-3.65218e-13
-3.54414e-13
-3.46104e-13
-3.37478e-13
-3.2949e-13
-3.22616e-13
-3.14781e-13
-3.04777e-13
-3.02245e-13
-3.014e-13
-2.95742e-13
-2.87344e-13
-2.76436e-13
-2.68848e-13
-2.6297e-13
-2.56554e-13
-2.48467e-13
-2.40674e-13
-2.30731e-13
-2.22978e-13
-2.13628e-13
-2.0555e-13
-1.97902e-13
-1.88769e-13
-1.82798e-13
-1.77612e-13
-1.71918e-13
-1.66585e-13
-1.59729e-13
-1.49196e-13
-1.39067e-13
-1.3284e-13
-1.24262e-13
-1.12787e-13
-1.06604e-13
-1.00819e-13
-9.66488e-14
-9.02989e-14
-8.19268e-14
-7.55395e-14
-6.97004e-14
-6.58512e-14
-6.23194e-14
-5.57559e-14
-4.80144e-14
-3.87041e-14
-3.03766e-14
-2.48669e-14
-1.79657e-14
-1.34424e-14
-4.32911e-15
-6.72328e-13
-6.73208e-13
-6.73679e-13
-6.70483e-13
-6.74537e-13
-6.69765e-13
-6.67587e-13
-6.65429e-13
-6.63133e-13
-6.57578e-13
-6.50174e-13
-6.42011e-13
-6.3518e-13
-6.30286e-13
-6.28113e-13
-6.19196e-13
-6.0664e-13
-5.99632e-13
-5.95266e-13
-5.86958e-13
-5.78577e-13
-5.71314e-13
-5.62342e-13
-5.49528e-13
-5.42219e-13
-5.3859e-13
-5.34413e-13
-5.28825e-13
-5.18597e-13
-5.09699e-13
-5.02568e-13
-4.9418e-13
-4.85903e-13
-4.79903e-13
-4.72835e-13
-4.70214e-13
-4.61091e-13
-4.49504e-13
-4.41353e-13
-4.31985e-13
-4.26934e-13
-4.23314e-13
-4.18099e-13
-4.11673e-13
-4.0252e-13
-3.93303e-13
-3.84932e-13
-3.79188e-13
-3.71173e-13
-3.59836e-13
-3.51005e-13
-3.45028e-13
-3.39095e-13
-3.33108e-13
-3.22078e-13
-3.15661e-13
-3.06871e-13
-3.0142e-13
-3.00423e-13
-2.94271e-13
-2.86117e-13
-2.7807e-13
-2.72307e-13
-2.65127e-13
-2.56243e-13
-2.47465e-13
-2.39769e-13
-2.30773e-13
-2.23409e-13
-2.1574e-13
-2.08702e-13
-2.0077e-13
-1.91452e-13
-1.83842e-13
-1.77217e-13
-1.70789e-13
-1.6638e-13
-1.5936e-13
-1.49085e-13
-1.39582e-13
-1.32121e-13
-1.24776e-13
-1.14633e-13
-1.05529e-13
-1.00198e-13
-9.51075e-14
-8.85904e-14
-8.11782e-14
-7.39924e-14
-7.02068e-14
-6.77293e-14
-6.30243e-14
-5.71717e-14
-4.67676e-14
-3.82614e-14
-3.26131e-14
-2.63302e-14
-1.74908e-14
-1.09967e-14
-4.15555e-15
-6.72838e-13
-6.76661e-13
-6.7355e-13
-6.69809e-13
-6.67167e-13
-6.70031e-13
-6.69837e-13
-6.67879e-13
-6.62148e-13
-6.55228e-13
-6.47783e-13
-6.4343e-13
-6.34672e-13
-6.28998e-13
-6.27229e-13
-6.21561e-13
-6.12506e-13
-6.0334e-13
-5.92815e-13
-5.82577e-13
-5.77889e-13
-5.70464e-13
-5.57721e-13
-5.48886e-13
-5.45272e-13
-5.40582e-13
-5.35504e-13
-5.27755e-13
-5.20638e-13
-5.11775e-13
-5.03003e-13
-4.94942e-13
-4.86118e-13
-4.80173e-13
-4.74021e-13
-4.69702e-13
-4.6004e-13
-4.49607e-13
-4.39333e-13
-4.31979e-13
-4.27186e-13
-4.24927e-13
-4.18181e-13
-4.10286e-13
-4.00795e-13
-3.90712e-13
-3.83747e-13
-3.77911e-13
-3.70259e-13
-3.63061e-13
-3.54091e-13
-3.46958e-13
-3.3939e-13
-3.32614e-13
-3.22092e-13
-3.14488e-13
-3.08085e-13
-3.02624e-13
-2.99603e-13
-2.93191e-13
-2.86366e-13
-2.78499e-13
-2.70378e-13
-2.6444e-13
-2.58585e-13
-2.51683e-13
-2.43583e-13
-2.31831e-13
-2.23225e-13
-2.1332e-13
-2.05605e-13
-1.98623e-13
-1.91572e-13
-1.83825e-13
-1.74294e-13
-1.68182e-13
-1.65488e-13
-1.59004e-13
-1.51339e-13
-1.41441e-13
-1.3331e-13
-1.26564e-13
-1.14425e-13
-1.04711e-13
-9.74551e-14
-9.24155e-14
-8.87636e-14
-8.34595e-14
-7.59188e-14
-7.13908e-14
-6.68282e-14
-6.26897e-14
-5.53737e-14
-4.9678e-14
-4.19575e-14
-3.28142e-14
-2.60291e-14
-1.94898e-14
-1.06315e-14
-1.91811e-15
-6.69867e-13
-6.77845e-13
-6.74727e-13
-6.67151e-13
-6.70931e-13
-6.7348e-13
-6.71592e-13
-6.67688e-13
-6.60298e-13
-6.49042e-13
-6.45762e-13
-6.42543e-13
-6.38879e-13
-6.30136e-13
-6.24215e-13
-6.22901e-13
-6.13708e-13
-6.0545e-13
-5.97193e-13
-5.85627e-13
-5.75498e-13
-5.6495e-13
-5.49756e-13
-5.46053e-13
-5.45877e-13
-5.43557e-13
-5.356e-13
-5.27342e-13
-5.19798e-13
-5.14005e-13
-5.03867e-13
-4.94689e-13
-4.86793e-13
-4.82555e-13
-4.78333e-13
-4.68547e-13
-4.58144e-13
-4.4965e-13
-4.39305e-13
-4.33936e-13
-4.29174e-13
-4.25256e-13
-4.16775e-13
-4.10468e-13
-4.00846e-13
-3.89453e-13
-3.80913e-13
-3.74842e-13
-3.70366e-13
-3.6292e-13
-3.55391e-13
-3.46448e-13
-3.38265e-13
-3.30345e-13
-3.21033e-13
-3.15744e-13
-3.10221e-13
-3.03482e-13
-2.9831e-13
-2.9363e-13
-2.88467e-13
-2.7943e-13
-2.7097e-13
-2.64323e-13
-2.55493e-13
-2.49855e-13
-2.43921e-13
-2.32934e-13
-2.24129e-13
-2.15901e-13
-2.06812e-13
-1.988e-13
-1.92794e-13
-1.85201e-13
-1.75942e-13
-1.70388e-13
-1.64565e-13
-1.56233e-13
-1.50685e-13
-1.43275e-13
-1.35647e-13
-1.25802e-13
-1.12482e-13
-1.03005e-13
-9.84955e-14
-9.42771e-14
-9.00905e-14
-8.17896e-14
-7.50609e-14
-7.07857e-14
-6.65454e-14
-6.29602e-14
-5.38777e-14
-4.86157e-14
-4.16124e-14
-3.52291e-14
-2.64219e-14
-1.87316e-14
-9.08199e-15
-9.41619e-16
-6.7413e-13
-6.74525e-13
-6.74185e-13
-6.71165e-13
-6.68763e-13
-6.71958e-13
-6.70862e-13
-6.65592e-13
-6.58396e-13
-6.4967e-13
-6.42476e-13
-6.41926e-13
-6.40539e-13
-6.31212e-13
-6.25361e-13
-6.20953e-13
-6.17681e-13
-6.09986e-13
-5.94612e-13
-5.79131e-13
-5.65052e-13
-5.60386e-13
-5.58535e-13
-5.55655e-13
-5.49736e-13
-5.42981e-13
-5.33445e-13
-5.25619e-13
-5.20729e-13
-5.15593e-13
-5.06229e-13
-4.93609e-13
-4.87424e-13
-4.79175e-13
-4.73435e-13
-4.66544e-13
-4.59761e-13
-4.53935e-13
-4.4354e-13
-4.32684e-13
-4.25461e-13
-4.20209e-13
-4.15249e-13
-4.10854e-13
-4.03494e-13
-3.93488e-13
-3.82822e-13
-3.73914e-13
-3.67442e-13
-3.62824e-13
-3.55667e-13
-3.49675e-13
-3.40838e-13
-3.30495e-13
-3.2239e-13
-3.16455e-13
-3.09542e-13
-2.9907e-13
-2.94859e-13
-2.93232e-13
-2.92442e-13
-2.84191e-13
-2.73179e-13
-2.62147e-13
-2.52925e-13
-2.46537e-13
-2.3899e-13
-2.29252e-13
-2.20519e-13
-2.15522e-13
-2.13627e-13
-2.03812e-13
-1.9383e-13
-1.87823e-13
-1.78585e-13
-1.68989e-13
-1.6093e-13
-1.52688e-13
-1.47053e-13
-1.42062e-13
-1.35085e-13
-1.25285e-13
-1.16699e-13
-1.08024e-13
-1.01311e-13
-9.17671e-14
-8.76867e-14
-8.294e-14
-7.59307e-14
-7.22353e-14
-6.60989e-14
-5.88957e-14
-5.39411e-14
-4.77867e-14
-4.12161e-14
-3.33216e-14
-2.6293e-14
-1.73647e-14
-9.49601e-15
-2.8871e-15
-6.72923e-13
-6.72238e-13
-6.70647e-13
-6.72173e-13
-6.74038e-13
-6.736e-13
-6.70249e-13
-6.64165e-13
-6.56666e-13
-6.50612e-13
-6.45927e-13
-6.41035e-13
-6.37296e-13
-6.29301e-13
-6.25585e-13
-6.21153e-13
-6.17522e-13
-6.09837e-13
-5.90649e-13
-5.80761e-13
-5.75985e-13
-5.68741e-13
-5.58556e-13
-5.49761e-13
-5.4675e-13
-5.39748e-13
-5.30123e-13
-5.24493e-13
-5.18823e-13
-5.13088e-13
-5.06539e-13
-4.98145e-13
-4.92106e-13
-4.85153e-13
-4.74263e-13
-4.65841e-13
-4.583e-13
-4.49742e-13
-4.42159e-13
-4.32973e-13
-4.26379e-13
-4.22498e-13
-4.15887e-13
-4.13422e-13
-4.07613e-13
-3.93913e-13
-3.79359e-13
-3.67185e-13
-3.65856e-13
-3.64071e-13
-3.59558e-13
-3.52682e-13
-3.40738e-13
-3.30571e-13
-3.20118e-13
-3.14067e-13
-3.09985e-13
-3.0421e-13
-2.96555e-13
-2.91152e-13
-2.88896e-13
-2.81704e-13
-2.7404e-13
-2.65553e-13
-2.57383e-13
-2.48424e-13
-2.39968e-13
-2.3086e-13
-2.24541e-13
-2.17448e-13
-2.10012e-13
-2.03872e-13
-1.92608e-13
-1.80819e-13
-1.73841e-13
-1.69162e-13
-1.64001e-13
-1.56125e-13
-1.50896e-13
-1.44604e-13
-1.35807e-13
-1.2549e-13
-1.13712e-13
-1.03414e-13
-9.57211e-14
-9.15707e-14
-8.86334e-14
-8.4339e-14
-7.75021e-14
-7.09658e-14
-6.40861e-14
-5.87064e-14
-5.40594e-14
-4.90008e-14
-3.99275e-14
-3.19047e-14
-2.58922e-14
-1.87211e-14
-1.07639e-14
-1.64111e-15
-6.74687e-13
-6.75897e-13
-6.71734e-13
-6.66998e-13
-6.69763e-13
-6.71935e-13
-6.71541e-13
-6.64601e-13
-6.5429e-13
-6.51933e-13
-6.46763e-13
-6.38287e-13
-6.3244e-13
-6.2954e-13
-6.27228e-13
-6.23245e-13
-6.17327e-13
-6.07744e-13
-5.94326e-13
-5.82331e-13
-5.74472e-13
-5.66354e-13
-5.61744e-13
-5.55355e-13
-5.47182e-13
-5.37624e-13
-5.29154e-13
-5.24348e-13
-5.21637e-13
-5.13599e-13
-5.07201e-13
-4.99227e-13
-4.89361e-13
-4.79435e-13
-4.7439e-13
-4.669e-13
-4.57668e-13
-4.49213e-13
-4.43246e-13
-4.37032e-13
-4.31846e-13
-4.24293e-13
-4.12949e-13
-4.05897e-13
-4.01285e-13
-3.94262e-13
-3.83591e-13
-3.74922e-13
-3.6859e-13
-3.62005e-13
-3.55682e-13
-3.49023e-13
-3.39693e-13
-3.31493e-13
-3.23641e-13
-3.18499e-13
-3.11144e-13
-3.04414e-13
-2.97245e-13
-2.92354e-13
-2.86348e-13
-2.79263e-13
-2.72681e-13
-2.65132e-13
-2.5497e-13
-2.45092e-13
-2.3907e-13
-2.31767e-13
-2.24038e-13
-2.16648e-13
-2.08662e-13
-2.04289e-13
-1.9611e-13
-1.8639e-13
-1.75345e-13
-1.69307e-13
-1.65048e-13
-1.57455e-13
-1.51251e-13
-1.42488e-13
-1.35861e-13
-1.26191e-13
-1.14161e-13
-1.04874e-13
-9.76885e-14
-9.20033e-14
-8.91869e-14
-8.37762e-14
-7.72519e-14
-7.08876e-14
-6.36608e-14
-5.80348e-14
-5.12904e-14
-4.62817e-14
-3.94828e-14
-3.2093e-14
-2.48497e-14
-1.57385e-14
-7.52827e-15
7.18038e-16
-6.74327e-13
-6.73786e-13
-6.74006e-13
-6.70913e-13
-6.6823e-13
-6.69712e-13
-6.68992e-13
-6.66765e-13
-6.60231e-13
-6.48596e-13
-6.41666e-13
-6.35648e-13
-6.33185e-13
-6.31736e-13
-6.28238e-13
-6.22343e-13
-6.13994e-13
-6.08626e-13
-6.00639e-13
-5.86371e-13
-5.74462e-13
-5.62939e-13
-5.57567e-13
-5.51231e-13
-5.47843e-13
-5.42137e-13
-5.32708e-13
-5.26464e-13
-5.20389e-13
-5.1395e-13
-5.0751e-13
-4.9903e-13
-4.89493e-13
-4.78812e-13
-4.71752e-13
-4.65409e-13
-4.59965e-13
-4.49967e-13
-4.4428e-13
-4.37881e-13
-4.28591e-13
-4.19293e-13
-4.11914e-13
-4.05962e-13
-4.03484e-13
-3.98238e-13
-3.87275e-13
-3.76549e-13
-3.68683e-13
-3.59968e-13
-3.53245e-13
-3.48563e-13
-3.40904e-13
-3.3245e-13
-3.24074e-13
-3.17146e-13
-3.10677e-13
-3.03764e-13
-2.97141e-13
-2.93824e-13
-2.89369e-13
-2.84568e-13
-2.77764e-13
-2.65792e-13
-2.5241e-13
-2.39207e-13
-2.32151e-13
-2.27282e-13
-2.23091e-13
-2.21817e-13
-2.15487e-13
-2.06059e-13
-1.98273e-13
-1.88133e-13
-1.76006e-13
-1.67144e-13
-1.62494e-13
-1.5582e-13
-1.50864e-13
-1.42065e-13
-1.34944e-13
-1.26434e-13
-1.15817e-13
-1.0788e-13
-9.88187e-14
-9.08808e-14
-8.65686e-14
-8.0907e-14
-7.6486e-14
-7.06151e-14
-6.24362e-14
-5.40871e-14
-4.83177e-14
-4.38937e-14
-3.59934e-14
-2.84713e-14
-2.12956e-14
-1.43301e-14
-5.65553e-15
1.56642e-16
-6.72639e-13
-6.71911e-13
-6.71045e-13
-6.72369e-13
-6.7269e-13
-6.67719e-13
-6.66081e-13
-6.63406e-13
-6.58495e-13
-6.53019e-13
-6.42404e-13
-6.34356e-13
-6.33332e-13
-6.33591e-13
-6.28908e-13
-6.24396e-13
-6.13526e-13
-6.06539e-13
-5.99562e-13
-5.87329e-13
-5.78019e-13
-5.63978e-13
-5.54664e-13
-5.50141e-13
-5.45053e-13
-5.39822e-13
-5.34686e-13
-5.27861e-13
-5.218e-13
-5.15196e-13
-5.0689e-13
-4.97945e-13
-4.8841e-13
-4.80334e-13
-4.75086e-13
-4.67022e-13
-4.58463e-13
-4.50007e-13
-4.44877e-13
-4.36014e-13
-4.28552e-13
-4.19163e-13
-4.12486e-13
-4.09241e-13
-4.05504e-13
-3.96902e-13
-3.84829e-13
-3.73028e-13
-3.6607e-13
-3.58681e-13
-3.5561e-13
-3.5037e-13
-3.40207e-13
-3.31933e-13
-3.23357e-13
-3.19856e-13
-3.13204e-13
-3.05838e-13
-2.96702e-13
-2.88527e-13
-2.85794e-13
-2.78173e-13
-2.7318e-13
-2.6793e-13
-2.54923e-13
-2.41831e-13
-2.32859e-13
-2.26476e-13
-2.23444e-13
-2.24173e-13
-2.16218e-13
-2.0829e-13
-1.98807e-13
-1.87557e-13
-1.74377e-13
-1.64008e-13
-1.62027e-13
-1.58328e-13
-1.53923e-13
-1.45073e-13
-1.38091e-13
-1.29405e-13
-1.15585e-13
-1.05065e-13
-9.47423e-14
-8.58588e-14
-8.69726e-14
-8.42089e-14
-7.65482e-14
-6.96046e-14
-6.04781e-14
-5.38637e-14
-4.76793e-14
-4.19624e-14
-3.74218e-14
-3.09714e-14
-1.82699e-14
-6.92056e-15
9.22594e-16
-7.6903e-16
-6.74828e-13
-6.73097e-13
-6.71187e-13
-6.72436e-13
-6.71483e-13
-6.66833e-13
-6.67179e-13
-6.64169e-13
-6.57953e-13
-6.50784e-13
-6.43574e-13
-6.36936e-13
-6.29904e-13
-6.27494e-13
-6.25103e-13
-6.19935e-13
-6.16168e-13
-6.1104e-13
-6.01569e-13
-5.88288e-13
-5.77228e-13
-5.69749e-13
-5.60044e-13
-5.50921e-13
-5.45007e-13
-5.34992e-13
-5.31095e-13
-5.2765e-13
-5.23099e-13
-5.17126e-13
-5.08508e-13
-4.98344e-13
-4.87312e-13
-4.77875e-13
-4.72466e-13
-4.65264e-13
-4.60038e-13
-4.52444e-13
-4.46577e-13
-4.35027e-13
-4.27144e-13
-4.16531e-13
-4.1215e-13
-4.11001e-13
-4.04127e-13
-3.96423e-13
-3.85507e-13
-3.7558e-13
-3.66927e-13
-3.58312e-13
-3.5247e-13
-3.48585e-13
-3.40423e-13
-3.34504e-13
-3.2758e-13
-3.18736e-13
-3.11898e-13
-3.04195e-13
-2.96215e-13
-2.90428e-13
-2.87665e-13
-2.86704e-13
-2.76987e-13
-2.65325e-13
-2.48657e-13
-2.39403e-13
-2.32815e-13
-2.28587e-13
-2.23181e-13
-2.19862e-13
-2.13508e-13
-2.11109e-13
-2.04525e-13
-1.92179e-13
-1.73754e-13
-1.58689e-13
-1.55996e-13
-1.5885e-13
-1.55206e-13
-1.44989e-13
-1.37057e-13
-1.2722e-13
-1.17261e-13
-1.08408e-13
-9.82703e-14
-8.83071e-14
-8.22636e-14
-8.08038e-14
-7.514e-14
-6.80865e-14
-5.84913e-14
-5.31712e-14
-4.74951e-14
-4.06698e-14
-3.36329e-14
-2.7903e-14
-1.71428e-14
-7.85001e-15
-1.77154e-15
-7.60378e-16
-6.72738e-13
-6.72123e-13
-6.65509e-13
-6.73174e-13
-6.72985e-13
-6.7035e-13
-6.64738e-13
-6.5913e-13
-6.5401e-13
-6.46656e-13
-6.42662e-13
-6.38519e-13
-6.36968e-13
-6.31498e-13
-6.26569e-13
-6.22897e-13
-6.18027e-13
-6.11924e-13
-6.02035e-13
-5.88698e-13
-5.72376e-13
-5.59918e-13
-5.52251e-13
-5.49548e-13
-5.44465e-13
-5.39625e-13
-5.33168e-13
-5.27243e-13
-5.23549e-13
-5.19101e-13
-5.10929e-13
-4.98766e-13
-4.89331e-13
-4.8146e-13
-4.76506e-13
-4.66822e-13
-4.57167e-13
-4.51384e-13
-4.44619e-13
-4.34722e-13
-4.25395e-13
-4.20722e-13
-4.15671e-13
-4.09508e-13
-3.99557e-13
-3.90347e-13
-3.83321e-13
-3.75686e-13
-3.68231e-13
-3.61458e-13
-3.54927e-13
-3.49009e-13
-3.38524e-13
-3.29572e-13
-3.29712e-13
-3.28336e-13
-3.14576e-13
-3.00782e-13
-2.92031e-13
-2.85143e-13
-2.82344e-13
-2.79188e-13
-2.77599e-13
-2.68307e-13
-2.52993e-13
-2.44124e-13
-2.31679e-13
-2.29187e-13
-2.23357e-13
-2.17879e-13
-2.13016e-13
-2.11476e-13
-2.04802e-13
-1.90449e-13
-1.75286e-13
-1.62576e-13
-1.58193e-13
-1.59659e-13
-1.51734e-13
-1.42189e-13
-1.35655e-13
-1.2779e-13
-1.1962e-13
-1.09556e-13
-9.92852e-14
-8.79863e-14
-8.1881e-14
-8.04758e-14
-7.34818e-14
-6.60786e-14
-5.84115e-14
-5.19804e-14
-4.49087e-14
-3.92762e-14
-3.41844e-14
-2.66911e-14
-1.7117e-14
-9.06609e-15
-9.49145e-16
6.32818e-16
-6.69521e-13
-6.77837e-13
-6.7295e-13
-6.68866e-13
-6.69512e-13
-6.68412e-13
-6.64179e-13
-6.63291e-13
-6.54602e-13
-6.43133e-13
-6.39227e-13
-6.38125e-13
-6.35564e-13
-6.32991e-13
-6.28902e-13
-6.20725e-13
-6.11043e-13
-6.04478e-13
-5.99415e-13
-5.90646e-13
-5.83701e-13
-5.76001e-13
-5.6547e-13
-5.49715e-13
-5.36966e-13
-5.30538e-13
-5.31759e-13
-5.28408e-13
-5.24209e-13
-5.20478e-13
-5.11439e-13
-4.99998e-13
-4.86199e-13
-4.74832e-13
-4.68814e-13
-4.63811e-13
-4.62401e-13
-4.56668e-13
-4.4513e-13
-4.38134e-13
-4.27222e-13
-4.17676e-13
-4.1421e-13
-4.07396e-13
-3.98562e-13
-3.89726e-13
-3.80689e-13
-3.75716e-13
-3.70662e-13
-3.63305e-13
-3.55687e-13
-3.46857e-13
-3.40103e-13
-3.32991e-13
-3.28139e-13
-3.22359e-13
-3.16457e-13
-3.08379e-13
-3.00334e-13
-2.89807e-13
-2.81275e-13
-2.74944e-13
-2.69393e-13
-2.63901e-13
-2.54354e-13
-2.46211e-13
-2.37024e-13
-2.30174e-13
-2.23818e-13
-2.193e-13
-2.15225e-13
-2.07218e-13
-1.99541e-13
-1.90847e-13
-1.77622e-13
-1.67096e-13
-1.5835e-13
-1.55087e-13
-1.51135e-13
-1.42993e-13
-1.3648e-13
-1.26174e-13
-1.17965e-13
-1.08342e-13
-9.78847e-14
-8.90243e-14
-8.40945e-14
-7.89941e-14
-7.40372e-14
-6.56568e-14
-5.85828e-14
-5.42006e-14
-4.70403e-14
-3.88768e-14
-3.03404e-14
-2.24222e-14
-1.58739e-14
-1.0273e-14
-3.24146e-15
1.56161e-16
-6.68502e-13
-6.72397e-13
-6.73676e-13
-6.69893e-13
-6.69487e-13
-6.70439e-13
-6.6158e-13
-6.52318e-13
-6.48235e-13
-6.46669e-13
-6.44519e-13
-6.41603e-13
-6.38584e-13
-6.33968e-13
-6.29021e-13
-6.21682e-13
-6.1548e-13
-6.11848e-13
-6.03768e-13
-5.90069e-13
-5.7335e-13
-5.60728e-13
-5.531e-13
-5.44792e-13
-5.43422e-13
-5.40777e-13
-5.35669e-13
-5.27531e-13
-5.22428e-13
-5.19983e-13
-5.13291e-13
-5.0298e-13
-4.90504e-13
-4.74945e-13
-4.65091e-13
-4.63681e-13
-4.63158e-13
-4.57636e-13
-4.49781e-13
-4.38782e-13
-4.25536e-13
-4.15956e-13
-4.08097e-13
-4.03633e-13
-3.98237e-13
-3.91831e-13
-3.84563e-13
-3.76306e-13
-3.7021e-13
-3.69173e-13
-3.6147e-13
-3.45595e-13
-3.35964e-13
-3.28701e-13
-3.2343e-13
-3.20912e-13
-3.16717e-13
-3.07507e-13
-2.96035e-13
-2.87752e-13
-2.83742e-13
-2.79079e-13
-2.72313e-13
-2.63754e-13
-2.50603e-13
-2.41206e-13
-2.35424e-13
-2.32351e-13
-2.26667e-13
-2.1916e-13
-2.12633e-13
-2.07187e-13
-1.99676e-13
-1.89337e-13
-1.78401e-13
-1.64172e-13
-1.56825e-13
-1.54269e-13
-1.53181e-13
-1.47712e-13
-1.39216e-13
-1.28811e-13
-1.17426e-13
-1.05956e-13
-9.67951e-14
-8.92812e-14
-8.40864e-14
-7.78542e-14
-7.16424e-14
-6.47094e-14
-5.8677e-14
-5.31711e-14
-4.72082e-14
-3.87651e-14
-2.96743e-14
-2.04313e-14
-1.28047e-14
-7.71372e-15
-1.79338e-15
-2.46257e-16
-6.67226e-13
-6.74266e-13
-6.74637e-13
-6.70989e-13
-6.68116e-13
-6.7241e-13
-6.69528e-13
-6.57659e-13
-6.42395e-13
-6.39465e-13
-6.38807e-13
-6.40083e-13
-6.38907e-13
-6.36909e-13
-6.31693e-13
-6.22531e-13
-6.13853e-13
-6.07008e-13
-5.9603e-13
-5.8761e-13
-5.80254e-13
-5.68146e-13
-5.56955e-13
-5.44627e-13
-5.4292e-13
-5.40385e-13
-5.37267e-13
-5.31271e-13
-5.23394e-13
-5.18795e-13
-5.10383e-13
-4.99033e-13
-4.89387e-13
-4.75195e-13
-4.63776e-13
-4.61653e-13
-4.61633e-13
-4.58103e-13
-4.49383e-13
-4.3941e-13
-4.23854e-13
-4.1431e-13
-4.1105e-13
-4.0591e-13
-3.98241e-13
-3.90457e-13
-3.86566e-13
-3.80044e-13
-3.70565e-13
-3.6042e-13
-3.53528e-13
-3.47582e-13
-3.39504e-13
-3.27355e-13
-3.27314e-13
-3.23909e-13
-3.15547e-13
-3.09111e-13
-3.02208e-13
-2.8964e-13
-2.82119e-13
-2.76323e-13
-2.67975e-13
-2.60778e-13
-2.50617e-13
-2.429e-13
-2.33734e-13
-2.29931e-13
-2.23578e-13
-2.21639e-13
-2.14713e-13
-2.09658e-13
-2.02683e-13
-1.89346e-13
-1.75642e-13
-1.64156e-13
-1.59359e-13
-1.54804e-13
-1.50057e-13
-1.44396e-13
-1.38194e-13
-1.29304e-13
-1.18112e-13
-1.06241e-13
-9.92138e-14
-9.1443e-14
-8.43156e-14
-7.79381e-14
-7.19779e-14
-6.35125e-14
-5.68579e-14
-5.10015e-14
-4.36843e-14
-3.55924e-14
-2.90822e-14
-2.39312e-14
-1.17054e-14
-4.58844e-15
7.23964e-16
4.15823e-16
-6.72738e-13
-6.71957e-13
-6.68436e-13
-6.65091e-13
-6.66893e-13
-6.62269e-13
-6.58934e-13
-6.59838e-13
-6.56789e-13
-6.50331e-13
-6.46389e-13
-6.38933e-13
-6.33622e-13
-6.32589e-13
-6.30125e-13
-6.24141e-13
-6.16284e-13
-6.12672e-13
-6.02588e-13
-5.87483e-13
-5.70146e-13
-5.59058e-13
-5.5305e-13
-5.50923e-13
-5.43981e-13
-5.41435e-13
-5.37138e-13
-5.3007e-13
-5.23795e-13
-5.17642e-13
-5.10304e-13
-4.984e-13
-4.87009e-13
-4.7488e-13
-4.6648e-13
-4.64028e-13
-4.64866e-13
-4.58072e-13
-4.478e-13
-4.37971e-13
-4.24489e-13
-4.12555e-13
-4.09229e-13
-4.05613e-13
-4.01326e-13
-3.90993e-13
-3.82175e-13
-3.78489e-13
-3.73609e-13
-3.62956e-13
-3.52781e-13
-3.47556e-13
-3.40929e-13
-3.30258e-13
-3.23057e-13
-3.19573e-13
-3.13367e-13
-3.08142e-13
-3.0288e-13
-2.94103e-13
-2.83857e-13
-2.76622e-13
-2.67523e-13
-2.60331e-13
-2.53584e-13
-2.4389e-13
-2.33899e-13
-2.25116e-13
-2.21022e-13
-2.22089e-13
-2.1382e-13
-2.08167e-13
-2.01308e-13
-1.89957e-13
-1.78727e-13
-1.67074e-13
-1.56489e-13
-1.50697e-13
-1.49545e-13
-1.48628e-13
-1.41874e-13
-1.27913e-13
-1.1694e-13
-1.04245e-13
-9.90918e-14
-9.34045e-14
-8.63429e-14
-7.66464e-14
-6.80836e-14
-6.25657e-14
-5.67311e-14
-5.00686e-14
-4.48137e-14
-3.70285e-14
-2.84181e-14
-2.00252e-14
-1.20348e-14
-5.76771e-15
6.2138e-16
1.74409e-15
-6.72007e-13
-6.70991e-13
-6.68453e-13
-6.66347e-13
-6.71881e-13
-6.6942e-13
-6.59189e-13
-6.53454e-13
-6.4974e-13
-6.47471e-13
-6.46499e-13
-6.45121e-13
-6.35262e-13
-6.28493e-13
-6.26138e-13
-6.21614e-13
-6.17919e-13
-6.11044e-13
-6.00211e-13
-5.85379e-13
-5.72747e-13
-5.60428e-13
-5.51714e-13
-5.50988e-13
-5.49928e-13
-5.41273e-13
-5.34097e-13
-5.30121e-13
-5.27034e-13
-5.1974e-13
-5.12124e-13
-4.99422e-13
-4.86472e-13
-4.74038e-13
-4.63459e-13
-4.6246e-13
-4.59801e-13
-4.56722e-13
-4.5129e-13
-4.41039e-13
-4.27177e-13
-4.16316e-13
-4.09073e-13
-4.00325e-13
-3.98142e-13
-3.92011e-13
-3.84659e-13
-3.75567e-13
-3.69177e-13
-3.63141e-13
-3.53302e-13
-3.47443e-13
-3.40597e-13
-3.31376e-13
-3.28235e-13
-3.23259e-13
-3.1196e-13
-3.02842e-13
-2.99402e-13
-2.92059e-13
-2.85405e-13
-2.76133e-13
-2.68949e-13
-2.62068e-13
-2.53274e-13
-2.42218e-13
-2.3534e-13
-2.25611e-13
-2.18042e-13
-2.16257e-13
-2.13343e-13
-2.09005e-13
-2.02751e-13
-1.90261e-13
-1.78021e-13
-1.67361e-13
-1.59173e-13
-1.52408e-13
-1.51422e-13
-1.47236e-13
-1.39486e-13
-1.29042e-13
-1.18054e-13
-1.06248e-13
-9.80087e-14
-8.88243e-14
-8.23824e-14
-7.82415e-14
-7.20863e-14
-6.27534e-14
-5.57248e-14
-4.88937e-14
-4.2044e-14
-3.47807e-14
-2.68663e-14
-2.119e-14
-1.35e-14
-4.33693e-15
1.05113e-15
3.43298e-17
-6.67484e-13
-6.69847e-13
-6.69822e-13
-6.68428e-13
-6.67183e-13
-6.62031e-13
-6.5857e-13
-6.55798e-13
-6.54791e-13
-6.5176e-13
-6.47505e-13
-6.43857e-13
-6.37759e-13
-6.30176e-13
-6.24895e-13
-6.18563e-13
-6.15932e-13
-6.09507e-13
-5.98387e-13
-5.8747e-13
-5.73092e-13
-5.6118e-13
-5.56e-13
-5.51506e-13
-5.43542e-13
-5.39316e-13
-5.37456e-13
-5.33518e-13
-5.26208e-13
-5.16163e-13
-5.07845e-13
-4.98246e-13
-4.86078e-13
-4.74924e-13
-4.65961e-13
-4.66837e-13
-4.65875e-13
-4.5781e-13
-4.4711e-13
-4.34506e-13
-4.24459e-13
-4.18698e-13
-4.10455e-13
-4.00734e-13
-3.95572e-13
-3.88579e-13
-3.86392e-13
-3.84107e-13
-3.7295e-13
-3.59925e-13
-3.50947e-13
-3.48204e-13
-3.41197e-13
-3.30772e-13
-3.26389e-13
-3.2223e-13
-3.14818e-13
-3.05092e-13
-2.97571e-13
-2.90406e-13
-2.87462e-13
-2.79007e-13
-2.69625e-13
-2.60913e-13
-2.49922e-13
-2.41657e-13
-2.33148e-13
-2.26883e-13
-2.19229e-13
-2.1443e-13
-2.09738e-13
-2.09289e-13
-2.03743e-13
-1.9031e-13
-1.78026e-13
-1.67382e-13
-1.60995e-13
-1.55061e-13
-1.47465e-13
-1.39601e-13
-1.41186e-13
-1.35008e-13
-1.19201e-13
-1.07002e-13
-9.74634e-14
-8.73787e-14
-8.05096e-14
-7.74018e-14
-7.16697e-14
-6.27743e-14
-5.49289e-14
-4.94441e-14
-4.24755e-14
-3.36118e-14
-2.86817e-14
-1.97912e-14
-1.09886e-14
-3.23485e-15
1.78774e-15
-3.41749e-16
-6.73186e-13
-6.70777e-13
-6.68655e-13
-6.66173e-13
-6.62184e-13
-6.60188e-13
-6.57755e-13
-6.57756e-13
-6.55833e-13
-6.52323e-13
-6.46639e-13
-6.43101e-13
-6.38047e-13
-6.32798e-13
-6.26313e-13
-6.17394e-13
-6.08523e-13
-6.02843e-13
-5.9809e-13
-5.90977e-13
-5.75574e-13
-5.6454e-13
-5.56318e-13
-5.49356e-13
-5.45059e-13
-5.41129e-13
-5.37998e-13
-5.34149e-13
-5.24435e-13
-5.18276e-13
-5.08694e-13
-4.97435e-13
-4.8464e-13
-4.7289e-13
-4.68027e-13
-4.66419e-13
-4.6295e-13
-4.5633e-13
-4.46515e-13
-4.35868e-13
-4.24835e-13
-4.16042e-13
-4.10823e-13
-4.04483e-13
-3.99199e-13
-3.92464e-13
-3.8303e-13
-3.76052e-13
-3.71584e-13
-3.63439e-13
-3.56864e-13
-3.48075e-13
-3.39414e-13
-3.31439e-13
-3.25205e-13
-3.17736e-13
-3.13635e-13
-3.06897e-13
-2.9769e-13
-2.91005e-13
-2.87931e-13
-2.80912e-13
-2.70238e-13
-2.59314e-13
-2.50777e-13
-2.42166e-13
-2.32897e-13
-2.25422e-13
-2.19201e-13
-2.14533e-13
-2.11462e-13
-2.09885e-13
-2.02686e-13
-1.87953e-13
-1.7704e-13
-1.67505e-13
-1.60503e-13
-1.54041e-13
-1.4992e-13
-1.44967e-13
-1.38165e-13
-1.29999e-13
-1.19968e-13
-1.09665e-13
-1.01729e-13
-8.81414e-14
-7.96685e-14
-7.46156e-14
-7.10042e-14
-6.01436e-14
-5.26893e-14
-4.87261e-14
-4.57876e-14
-3.47363e-14
-2.47159e-14
-1.89705e-14
-1.2246e-14
-1.47794e-15
4.90916e-16
-1.15149e-15
-6.75234e-13
-6.69927e-13
-6.64858e-13
-6.65233e-13
-6.589e-13
-6.59868e-13
-6.57979e-13
-6.58786e-13
-6.58564e-13
-6.50811e-13
-6.45918e-13
-6.43777e-13
-6.41965e-13
-6.3422e-13
-6.26271e-13
-6.19836e-13
-6.12607e-13
-6.03041e-13
-5.96677e-13
-5.85076e-13
-5.7558e-13
-5.64675e-13
-5.53735e-13
-5.47571e-13
-5.43686e-13
-5.44116e-13
-5.38628e-13
-5.32842e-13
-5.24438e-13
-5.16982e-13
-5.08939e-13
-4.99138e-13
-4.84744e-13
-4.74938e-13
-4.66494e-13
-4.62862e-13
-4.61632e-13
-4.56519e-13
-4.46695e-13
-4.35915e-13
-4.27625e-13
-4.18422e-13
-4.09923e-13
-4.03314e-13
-3.9738e-13
-3.90772e-13
-3.83226e-13
-3.78125e-13
-3.73309e-13
-3.64183e-13
-3.54058e-13
-3.44535e-13
-3.38731e-13
-3.3351e-13
-3.27722e-13
-3.21651e-13
-3.14439e-13
-3.05655e-13
-2.99673e-13
-2.94656e-13
-2.89251e-13
-2.79735e-13
-2.66923e-13
-2.57884e-13
-2.49267e-13
-2.4049e-13
-2.31446e-13
-2.26286e-13
-2.19145e-13
-2.17693e-13
-2.12414e-13
-2.0638e-13
-1.96948e-13
-1.85917e-13
-1.75848e-13
-1.65969e-13
-1.636e-13
-1.60279e-13
-1.51053e-13
-1.4246e-13
-1.35659e-13
-1.28024e-13
-1.18948e-13
-1.08585e-13
-9.74354e-14
-8.57423e-14
-8.06516e-14
-7.66764e-14
-6.98115e-14
-6.48506e-14
-5.89794e-14
-4.8664e-14
-4.00088e-14
-3.2919e-14
-2.47918e-14
-1.67565e-14
-1.02703e-14
-6.2237e-15
-2.34281e-15
-1.50895e-15
-6.73248e-13
-6.68287e-13
-6.6665e-13
-6.64771e-13
-6.62372e-13
-6.59572e-13
-6.55385e-13
-6.57876e-13
-6.57921e-13
-6.53904e-13
-6.48382e-13
-6.42843e-13
-6.41116e-13
-6.32826e-13
-6.23653e-13
-6.15127e-13
-6.0714e-13
-6.03195e-13
-5.97308e-13
-5.87325e-13
-5.76876e-13
-5.66001e-13
-5.55694e-13
-5.50747e-13
-5.48249e-13
-5.41931e-13
-5.35345e-13
-5.27755e-13
-5.20638e-13
-5.17064e-13
-5.09759e-13
-5.02988e-13
-4.9172e-13
-4.80746e-13
-4.6496e-13
-4.59669e-13
-4.57547e-13
-4.53346e-13
-4.4594e-13
-4.35673e-13
-4.29001e-13
-4.18622e-13
-4.12019e-13
-4.01897e-13
-3.97633e-13
-3.91649e-13
-3.87106e-13
-3.79399e-13
-3.69966e-13
-3.5793e-13
-3.53022e-13
-3.49061e-13
-3.41955e-13
-3.30024e-13
-3.23281e-13
-3.17196e-13
-3.10165e-13
-3.08009e-13
-3.00489e-13
-2.97858e-13
-2.96933e-13
-2.77552e-13
-2.65246e-13
-2.59364e-13
-2.51681e-13
-2.42694e-13
-2.33586e-13
-2.26901e-13
-2.17037e-13
-2.12707e-13
-2.08428e-13
-2.08557e-13
-2.01027e-13
-1.88953e-13
-1.73877e-13
-1.62312e-13
-1.63043e-13
-1.59025e-13
-1.50885e-13
-1.44728e-13
-1.37329e-13
-1.28423e-13
-1.17745e-13
-1.0716e-13
-9.81754e-14
-8.71005e-14
-7.99802e-14
-7.67412e-14
-7.07523e-14
-6.09389e-14
-5.37724e-14
-4.83896e-14
-4.05777e-14
-3.26189e-14
-2.81344e-14
-2.21009e-14
-1.05252e-14
-3.38102e-15
1.91061e-15
-3.40029e-16
-6.68352e-13
-6.70165e-13
-6.69892e-13
-6.64491e-13
-6.60074e-13
-6.60564e-13
-6.59046e-13
-6.55657e-13
-6.56026e-13
-6.52807e-13
-6.49864e-13
-6.46144e-13
-6.39478e-13
-6.31409e-13
-6.24321e-13
-6.18089e-13
-6.13682e-13
-6.09239e-13
-5.99312e-13
-5.85335e-13
-5.69519e-13
-5.57264e-13
-5.52993e-13
-5.52475e-13
-5.48942e-13
-5.41318e-13
-5.32637e-13
-5.27806e-13
-5.20492e-13
-5.17824e-13
-5.1309e-13
-4.99887e-13
-4.87371e-13
-4.7877e-13
-4.70406e-13
-4.64808e-13
-4.5939e-13
-4.52063e-13
-4.44905e-13
-4.36577e-13
-4.27537e-13
-4.17921e-13
-4.09161e-13
-4.04138e-13
-4.01879e-13
-3.92984e-13
-3.84936e-13
-3.7395e-13
-3.70762e-13
-3.63624e-13
-3.52538e-13
-3.47605e-13
-3.41095e-13
-3.32886e-13
-3.2606e-13
-3.14233e-13
-3.03884e-13
-3.06028e-13
-3.08001e-13
-2.9937e-13
-2.90031e-13
-2.79354e-13