/*--------------------------------*- C++ -*----------------------------------*\
| =========                 |                                                 |
| \\      /  F ield         | OpenFOAM: The Open Source CFD Toolbox           |
|  \\    /   O peration     | Version:  v2012                                 |
|   \\  /    A nd           | Website:  www.openfoam.com                      |
|    \\/     M anipulation  |                                                 |
\*---------------------------------------------------------------------------*/
FoamFile
{
    version     2.0;
    format      ascii;
    class       volVectorField;
    location    "0";
    object      uRec;
}
// * * * * * * * * * * * * * * * * * * * * * * * * * * * * * * * * * * * * * //

dimensions      [0 1 -1 0 0 0 0];


internalField   nonuniform List<vector> 
4000
(
(1 -3.2621e-16 0)
(1 2.48398e-15 0)
(1 1.60574e-15 0)
(1 5.35025e-16 0)
(1 -3.13027e-16 0)
(1 -7.03509e-16 0)
(1 7.39896e-17 0)
(1 -5.03755e-16 0)
(1 -2.03917e-15 0)
(1 3.02954e-16 0)
(1 1.53374e-15 0)
(1 2.76242e-16 0)
(1 5.5268e-16 0)
(1 -9.7252e-17 0)
(1 1.85174e-15 0)
(1 -2.2136e-15 0)
(1 -2.29572e-15 0)
(1 -1.45761e-15 0)
(1 -1.73441e-16 0)
(1 -1.84034e-15 0)
(1 -2.46477e-15 0)
(1 -1.66503e-15 0)
(1 2.01174e-15 0)
(1 8.57173e-16 0)
(1 2.73906e-15 0)
(1 5.7812e-16 0)
(1 1.6521e-15 0)
(1 8.33732e-17 0)
(1 -4.03123e-16 0)
(1 6.07075e-17 0)
(1 -1.00223e-15 0)
(1 -2.36914e-15 0)
(1 -1.8849e-15 0)
(1 -3.631e-16 0)
(1 1.57871e-15 0)
(1 1.7455e-15 0)
(1 3.13279e-15 0)
(1 1.46391e-15 0)
(1 1.90171e-15 0)
(1 -4.41661e-17 0)
(1 -5.17473e-16 0)
(1 -1.51468e-15 0)
(1 -5.07982e-17 0)
(1 -1.3585e-15 0)
(1 -5.27138e-16 0)
(1 -1.98054e-16 0)
(1 -5.91561e-16 0)
(1 -1.55212e-16 0)
(1 -2.44843e-16 0)
(1 1.40681e-15 0)
(1 2.42484e-16 0)
(1 1.82496e-15 0)
(1 3.98931e-16 0)
(1 5.68742e-16 0)
(1 -8.79662e-16 0)
(1 -1.38482e-15 0)
(1 -1.59516e-15 0)
(1 8.31515e-16 0)
(1 1.36492e-15 0)
(1 3.03499e-15 0)
(1 1.67116e-15 0)
(1 2.04343e-16 0)
(1 1.20198e-15 0)
(1 2.34349e-16 0)
(1 -3.04095e-16 0)
(1 -1.20247e-15 0)
(1 -3.06912e-17 0)
(1 1.53734e-17 0)
(1 -1.44424e-16 0)
(1 -5.44538e-16 0)
(1 -1.17614e-15 0)
(1 -5.01009e-16 0)
(1 8.73514e-17 0)
(1 -1.73074e-15 0)
(1 -1.65994e-15 0)
(1 -9.09982e-16 0)
(1 -3.58491e-16 0)
(1 1.36698e-16 0)
(1 6.47857e-16 0)
(1 1.65571e-15 0)
(1 8.28306e-16 0)
(1 -3.98657e-18 0)
(1 -6.53325e-17 0)
(1 -5.70164e-16 0)
(1 -1.65699e-15 0)
(1 -7.83039e-16 0)
(1 -1.92842e-15 0)
(1 3.67862e-16 0)
(1 2.06404e-15 0)
(1 1.34473e-15 0)
(1 -5.10502e-17 0)
(1 1.01129e-16 0)
(1 -1.26884e-15 0)
(1 -3.74888e-16 0)
(1 -1.29055e-15 0)
(1 -1.71451e-15 0)
(1 -1.26003e-15 0)
(1 6.53142e-16 0)
(1 1.18335e-15 0)
(1 2.10658e-16 0)
(1 2.9401e-16 0)
(1 2.64168e-15 0)
(1 2.45248e-15 0)
(1 -3.96852e-16 0)
(1 -1.35112e-16 0)
(1 -1.8826e-15 0)
(1 -2.8209e-16 0)
(1 -1.07699e-15 0)
(1 -1.37034e-15 0)
(1 -7.10348e-16 0)
(1 1.27021e-15 0)
(1 1.40928e-15 0)
(1 2.65206e-15 0)
(1 1.91346e-15 0)
(1 2.1046e-15 0)
(1 -3.89581e-15 0)
(1 -4.3098e-15 0)
(1 -5.6417e-16 0)
(1 5.02602e-16 0)
(1 -1.91113e-15 0)
(1 -3.20102e-15 0)
(1 -2.03428e-15 0)
(1 8.05938e-16 0)
(1 4.22718e-16 0)
(1 2.15067e-15 0)
(1 -4.05127e-16 0)
(1 2.73834e-16 0)
(1 -1.09823e-15 0)
(1 -1.64526e-16 0)
(1 6.27735e-16 0)
(1 1.07139e-15 0)
(1 -9.67632e-16 0)
(1 -6.84606e-17 0)
(1 -1.52946e-15 0)
(1 -9.30798e-17 0)
(1 4.35926e-18 0)
(1 1.78816e-15 0)
(1 1.0981e-15 0)
(1 1.59785e-15 0)
(1 2.00502e-16 0)
(1 -1.29365e-15 0)
(1 -7.06443e-16 0)
(1 -6.59275e-16 0)
(1 -2.49881e-15 0)
(1 -5.93284e-16 0)
(1 -2.24385e-15 0)
(1 3.36384e-16 0)
(1 3.02116e-16 0)
(1 1.72843e-15 0)
(1 -1.74561e-15 0)
(1 -1.56922e-15 0)
(1 -4.08459e-16 0)
(1 2.1571e-15 0)
(1 2.24258e-15 0)
(1 2.4031e-15 0)
(1 1.74912e-15 0)
(1 4.07288e-16 0)
(1 1.29677e-15 0)
(1 -6.55893e-16 0)
(1 -5.54175e-16 0)
(1 -2.15827e-15 0)
(1 -6.50511e-16 0)
(1 1.16526e-15 0)
(1 1.20796e-15 0)
(1 3.95087e-16 0)
(1 -9.32463e-16 0)
(1 -1.22495e-15 0)
(1 -7.30099e-16 0)
(1 -1.06141e-15 0)
(1 -5.93803e-16 0)
(1 -6.00252e-18 0)
(1 1.41114e-15 0)
(1 1.45614e-15 0)
(1 -9.3588e-16 0)
(1 -6.13869e-16 0)
(1 -5.3208e-17 0)
(1 4.49723e-16 0)
(1 1.29763e-15 0)
(1 1.90863e-15 0)
(1 1.64289e-15 0)
(1 7.07238e-16 0)
(1 -2.67052e-15 0)
(1 3.37127e-16 0)
(1 1.63118e-16 0)
(1 4.1219e-17 0)
(1 2.50628e-16 0)
(1 -1.14677e-15 0)
(1 -2.42293e-15 0)
(1 -6.56654e-16 0)
(1 -7.38993e-16 0)
(1 -4.04399e-16 0)
(1 -6.57588e-16 0)
(1 -1.75377e-15 0)
(1 -8.34409e-16 0)
(1 -2.39462e-15 0)
(1 -1.33721e-15 0)
(1 -1.21291e-15 0)
(1 1.78021e-15 0)
(1 5.22002e-16 0)
(1 -1.32831e-16 0)
(1 3.84913e-16 0)
(1 -1.44498e-16 0)
(1 -1.3556e-16 0)
(1 -2.81663e-17 0)
(1 1.94386e-15 0)
(1 7.76621e-16 0)
(1 1.36656e-15 0)
(1 7.48762e-16 0)
(1 9.07952e-18 0)
(1 -6.86998e-16 0)
(1 -2.56922e-16 0)
(1 8.76092e-16 0)
(1 3.209e-15 0)
(1 3.30334e-15 0)
(1 6.12751e-16 0)
(1 -2.3109e-15 0)
(1 -3.41703e-15 0)
(1 -1.58746e-15 0)
(1 -5.84813e-16 0)
(1 4.17844e-16 0)
(1 -1.47701e-15 0)
(1 4.37827e-16 0)
(1 -1.23427e-15 0)
(1 1.46521e-15 0)
(1 2.02231e-15 0)
(1 2.04138e-15 0)
(1 2.08853e-15 0)
(1 1.1502e-15 0)
(1 1.43144e-15 0)
(1 3.73513e-16 0)
(1 2.04432e-15 0)
(1 -1.15796e-15 0)
(1 -6.58613e-17 0)
(1 -2.71119e-15 0)
(1 -1.00956e-15 0)
(1 -2.1074e-15 0)
(1 -8.51754e-16 0)
(1 -1.98911e-16 0)
(1 1.45977e-17 0)
(1 6.99184e-16 0)
(1 -9.26516e-16 0)
(1 -6.75805e-16 0)
(1 -2.20337e-15 0)
(1 -2.77567e-15 0)
(1 -9.41126e-16 0)
(1 -1.39325e-15 0)
(1 -1.96752e-16 0)
(1 -5.42704e-16 0)
(1 9.69554e-16 0)
(1 -2.13367e-16 0)
(1 1.97231e-16 0)
(1 4.42567e-16 0)
(1 3.45602e-15 0)
(1 2.08951e-15 0)
(1 3.56988e-15 0)
(1 2.00864e-15 0)
(1 9.66299e-16 0)
(1 -1.3384e-15 0)
(1 -1.84854e-15 0)
(1 -2.21654e-15 0)
(1 -3.63076e-17 0)
(1 5.64429e-16 0)
(1 1.03802e-15 0)
(1 5.66915e-16 0)
(1 -2.11914e-16 0)
(1 4.62533e-17 0)
(1 -9.95323e-16 0)
(1 -2.97333e-16 0)
(1 -9.44766e-16 0)
(1 2.73589e-16 0)
(1 2.15236e-16 0)
(1 1.13062e-15 0)
(1 1.18318e-15 0)
(1 3.15422e-16 0)
(1 -9.75309e-16 0)
(1 -6.81006e-16 0)
(1 -3.68941e-16 0)
(1 1.22013e-16 0)
(1 4.55218e-16 0)
(1 -8.99447e-17 0)
(1 -1.72702e-15 0)
(1 -2.67649e-15 0)
(1 -1.88098e-15 0)
(1 -3.93451e-16 0)
(1 5.72853e-16 0)
(1 -2.05684e-16 0)
(1 2.24444e-16 0)
(1 -3.13723e-15 0)
(1 -2.21164e-15 0)
(1 -1.19677e-15 0)
(1 -6.82449e-16 0)
(1 -1.10413e-15 0)
(1 -1.30462e-15 0)
(1 -9.71389e-16 0)
(1 -8.58395e-16 0)
(1 -1.16542e-15 0)
(1 -1.03959e-15 0)
(1 -2.95551e-16 0)
(1 -6.26497e-16 0)
(1 2.54303e-17 0)
(1 1.13668e-15 0)
(1 -1.27611e-15 0)
(1 1.8276e-16 0)
(1 -5.32548e-16 0)
(1 1.0951e-15 0)
(1 1.57657e-15 0)
(1 1.51588e-15 0)
(1 -2.67422e-16 0)
(1 2.23126e-16 0)
(1 -6.09964e-16 0)
(1 2.49175e-15 0)
(1 3.16803e-15 0)
(1 3.9397e-15 0)
(1 1.04911e-15 0)
(1 4.0975e-16 0)
(1 4.03629e-16 0)
(1 -1.68e-15 0)
(1 -5.10447e-15 0)
(1 -4.69501e-15 0)
(1 2.31675e-16 0)
(1 -1.98849e-16 0)
(1 5.55553e-16 0)
(1 1.13841e-15 0)
(1 3.17961e-15 0)
(1 1.5788e-15 0)
(1 4.023e-15 0)
(1 2.41236e-15 0)
(1 4.69646e-15 0)
(1 1.65183e-15 0)
(1 1.00719e-15 0)
(1 -8.72698e-16 0)
(1 -2.17942e-15 0)
(1 -2.29757e-15 0)
(1 -8.95082e-16 0)
(1 7.30463e-16 0)
(1 -6.70961e-16 0)
(1 4.66322e-16 0)
(1 -4.5767e-17 0)
(1 3.95684e-16 0)
(1 5.48838e-17 0)
(1 -4.71343e-16 0)
(1 -2.57157e-15 0)
(1 -2.15156e-15 0)
(1 -2.24507e-15 0)
(1 -2.06113e-15 0)
(1 1.28029e-15 0)
(1 1.04463e-15 0)
(1 2.15277e-16 0)
(1 5.72159e-16 0)
(1 2.97935e-15 0)
(1 8.6471e-16 0)
(1 8.04104e-16 0)
(1 6.41536e-16 0)
(1 8.34028e-16 0)
(1 7.03699e-16 0)
(1 1.87383e-16 0)
(1 -4.02036e-16 0)
(1 -1.61676e-15 0)
(1 -1.37585e-15 0)
(1 8.67682e-16 0)
(1 1.17914e-15 0)
(1 1.88176e-15 0)
(1 9.28433e-16 0)
(1 1.01136e-15 0)
(1 -7.60646e-16 0)
(1 -8.01827e-16 0)
(1 -2.2423e-15 0)
(1 -1.22148e-15 0)
(1 -1.26091e-15 0)
(1 -8.74925e-17 0)
(1 -1.58106e-16 0)
(1 1.25993e-15 0)
(1 1.15756e-16 0)
(1 -5.93747e-17 0)
(1 -1.64774e-15 0)
(1 -1.49259e-15 0)
(1 -1.06807e-16 0)
(1 -2.54679e-16 0)
(1 2.02869e-16 0)
(1 -5.8246e-16 0)
(1 2.7302e-16 0)
(1 -1.04158e-15 0)
(1 -1.18071e-15 0)
(1 -1.39308e-15 0)
(1 -2.06144e-16 0)
(1 -6.77216e-17 0)
(1 8.27623e-16 0)
(1 -4.87606e-16 0)
(1 -1.49664e-16 0)
(1 -7.08901e-16 0)
(1 -1.26032e-15 0)
(1 -1.57782e-15 0)
(1 -1.00077e-15 0)
(1 -8.77524e-16 0)
(1 -5.83584e-16 0)
(1 -1.91429e-15 0)
(1 -2.65803e-15 0)
(1 -2.63125e-15 0)
(1 -1.69999e-15 0)
(1 1.84767e-16 0)
(1 1.84691e-15 0)
(1 -5.26677e-16 0)
(1 -1.24413e-15 0)
(1 -1.01325e-15 0)
(1 7.56647e-16 0)
(1 3.41926e-16 0)
(1 2.37947e-16 0)
(1 -1.43834e-15 0)
(1 2.12263e-16 0)
(1 6.33213e-16 0)
(1 3.53285e-15 0)
(1 2.25789e-15 0)
(1 2.24204e-15 0)
(1 -2.47307e-15 0)
(1 1.57496e-15 0)
(1 4.69027e-16 0)
(1 4.12119e-16 0)
(1 -1.84454e-15 0)
(1 -2.0097e-15 0)
(1 -4.07711e-15 0)
(1 -8.71254e-16 0)
(1 -2.78813e-15 0)
(1 2.28035e-15 0)
(1 5.42919e-15 0)
(1 4.88829e-15 0)
(1 3.42176e-15 0)
(1 2.69186e-15 0)
(1 2.14956e-15 0)
(1 2.09185e-15 0)
(1 -3.43975e-16 0)
(1 -9.5122e-16 0)
(1 5.99256e-16 0)
(1 -4.12332e-16 0)
(1 -1.22396e-15 0)
(1 -3.59865e-15 0)
(1 -2.75145e-15 0)
(1 -2.34967e-15 0)
(1 -1.75554e-15 0)
(1 -1.61845e-15 0)
(1 -6.41768e-16 0)
(1 -2.13214e-15 0)
(1 -9.964e-16 0)
(1 -1.64288e-15 0)
(1 5.47957e-16 0)
(1 -1.3739e-15 0)
(1 4.73508e-16 0)
(1 2.06037e-15 0)
(1 1.14799e-15 0)
(1 1.04269e-15 0)
(1 -3.74704e-16 0)
(1 2.31064e-16 0)
(1 2.38326e-16 0)
(1 1.39213e-16 0)
(1 2.00372e-15 0)
(1 2.39056e-15 0)
(1 3.70173e-15 0)
(1 1.53284e-15 0)
(1 1.0047e-16 0)
(1 -1.23166e-15 0)
(1 -2.18499e-15 0)
(1 -2.08175e-15 0)
(1 1.55782e-17 0)
(1 1.09226e-15 0)
(1 9.5932e-16 0)
(1 1.32465e-15 0)
(1 -2.646e-16 0)
(1 -1.78331e-15 0)
(1 -1.76819e-15 0)
(1 3.1154e-16 0)
(1 -2.90798e-16 0)
(1 7.23252e-16 0)
(1 2.13899e-15 0)
(1 7.50066e-16 0)
(1 6.4814e-16 0)
(1 2.45979e-16 0)
(1 -1.36306e-17 0)
(1 -9.8443e-17 0)
(1 1.82959e-15 0)
(1 2.50806e-15 0)
(1 -8.8686e-16 0)
(1 1.7559e-17 0)
(1 -2.23769e-15 0)
(1 6.1651e-16 0)
(1 -8.13507e-16 0)
(1 1.9613e-16 0)
(1 -1.4285e-15 0)
(1 -1.25953e-15 0)
(1 -2.24609e-15 0)
(1 -2.56716e-15 0)
(1 -2.00629e-15 0)
(1 -1.21005e-15 0)
(1 -2.73833e-15 0)
(1 -8.59543e-16 0)
(1 -7.39903e-16 0)
(1 -9.93237e-16 0)
(1 -8.5535e-16 0)
(1 -1.27095e-15 0)
(1 -8.38286e-16 0)
(1 -1.41316e-15 0)
(1 -6.10598e-17 0)
(1 -6.11645e-16 0)
(1 -1.05701e-15 0)
(1 -1.85164e-15 0)
(1 -6.22175e-16 0)
(1 9.79124e-16 0)
(1 6.26801e-16 0)
(1 6.62708e-18 0)
(1 3.4144e-16 0)
(1 1.11621e-15 0)
(1 3.40669e-15 0)
(1 2.4937e-15 0)
(1 1.75225e-15 0)
(1 3.97511e-16 0)
(1 -4.23594e-16 0)
(1 2.59945e-15 0)
(1 -5.68214e-16 0)
(1 -5.62772e-16 0)
(1 -2.50044e-15 0)
(1 -1.61947e-15 0)
(1 -1.45853e-15 0)
(1 1.52325e-15 0)
(1 2.38266e-15 0)
(1 2.88943e-15 0)
(1 1.48225e-15 0)
(1 1.05152e-15 0)
(1 1.3071e-15 0)
(1 3.53571e-15 0)
(1 -9.81352e-16 0)
(1 2.99271e-15 0)
(1 1.84622e-16 0)
(1 -2.20265e-15 0)
(1 -1.97679e-15 0)
(1 -2.17855e-15 0)
(1 -3.31646e-16 0)
(1 -2.2489e-15 0)
(1 9.83685e-16 0)
(1 -1.41698e-16 0)
(1 1.21932e-15 0)
(1 -1.01562e-15 0)
(1 -9.93546e-16 0)
(1 -1.2007e-15 0)
(1 -4.64181e-16 0)
(1 -6.64505e-17 0)
(1 7.39603e-16 0)
(1 -3.15146e-16 0)
(1 -2.0187e-15 0)
(1 -2.00633e-15 0)
(1 -2.59724e-16 0)
(1 1.58504e-15 0)
(1 2.76959e-15 0)
(1 3.41554e-15 0)
(1 1.44283e-15 0)
(1 1.99682e-16 0)
(1 1.32311e-15 0)
(1 2.4298e-15 0)
(1 1.81078e-15 0)
(1 9.08681e-16 0)
(1 9.50518e-16 0)
(1 1.95574e-15 0)
(1 8.20462e-16 0)
(1 2.78036e-15 0)
(1 1.09187e-16 0)
(1 -1.27736e-16 0)
(1 -1.20106e-15 0)
(1 8.31374e-16 0)
(1 1.06659e-15 0)
(1 3.03402e-15 0)
(1 4.29283e-15 0)
(1 4.88907e-15 0)
(1 4.48274e-15 0)
(1 1.62214e-15 0)
(1 -1.52041e-16 0)
(1 1.09938e-15 0)
(1 -3.76893e-16 0)
(1 -2.56316e-15 0)
(1 -3.64091e-15 0)
(1 -2.55452e-15 0)
(1 1.11082e-15 0)
(1 1.82158e-15 0)
(1 1.39596e-15 0)
(1 -1.23112e-15 0)
(1 7.33102e-16 0)
(1 -9.86889e-16 0)
(1 -1.83929e-15 0)
(1 -1.57174e-15 0)
(1 -2.85402e-15 0)
(1 -2.06666e-15 0)
(1 -2.32761e-15 0)
(1 -2.887e-15 0)
(1 -1.71366e-15 0)
(1 -2.70276e-15 0)
(1 -1.66754e-15 0)
(1 -9.1345e-16 0)
(1 1.44078e-16 0)
(1 5.16996e-16 0)
(1 8.86405e-16 0)
(1 1.46553e-15 0)
(1 1.72e-15 0)
(1 2.49946e-15 0)
(1 1.59917e-15 0)
(1 -9.09883e-16 0)
(1 -1.00851e-15 0)
(1 2.75646e-15 0)
(1 1.20506e-15 0)
(1 5.41164e-17 0)
(1 -1.48491e-15 0)
(1 -3.97156e-15 0)
(1 -1.2191e-15 0)
(1 1.33687e-15 0)
(1 1.84903e-15 0)
(1 1.9427e-15 0)
(1 7.07706e-16 0)
(1 1.3773e-15 0)
(1 2.3184e-15 0)
(1 2.92026e-15 0)
(1 1.38562e-15 0)
(1 3.28367e-15 0)
(1 -1.62177e-15 0)
(1 1.29928e-15 0)
(1 3.11098e-15 0)
(1 2.48291e-15 0)
(1 8.10908e-18 0)
(1 -8.84469e-16 0)
(1 -7.39934e-16 0)
(1 -3.12823e-15 0)
(1 -6.88283e-16 0)
(1 -1.04568e-15 0)
(1 4.92302e-16 0)
(1 1.41702e-15 0)
(1 3.11706e-15 0)
(1 1.01431e-15 0)
(1 -7.14607e-16 0)
(1 -2.92045e-15 0)
(1 -1.31023e-15 0)
(1 -4.15096e-16 0)
(1 2.86986e-16 0)
(1 2.41758e-15 0)
(1 1.37265e-15 0)
(1 7.04148e-16 0)
(1 -4.02779e-15 0)
(1 -5.16168e-17 0)
(1 -1.59996e-15 0)
(1 2.62539e-15 0)
(1 1.56143e-15 0)
(1 -9.5007e-16 0)
(1 -3.35189e-15 0)
(1 -3.879e-15 0)
(1 1.40168e-15 0)
(1 1.60815e-15 0)
(1 4.389e-15 0)
(1 3.31909e-15 0)
(1 -9.68604e-18 0)
(1 1.00297e-16 0)
(1 7.69459e-16 0)
(1 1.46874e-15 0)
(1 9.36458e-16 0)
(1 -5.93311e-16 0)
(1 3.95174e-16 0)
(1 2.80828e-16 0)
(1 2.15132e-15 0)
(1 1.88705e-15 0)
(1 1.18039e-15 0)
(1 9.51026e-17 0)
(1 6.67027e-17 0)
(1 -7.1016e-16 0)
(1 -2.35577e-16 0)
(1 -1.51016e-16 0)
(1 1.9807e-15 0)
(1 1.57357e-15 0)
(1 1.43035e-15 0)
(1 7.59596e-16 0)
(1 -5.01042e-16 0)
(1 -2.71128e-16 0)
(1 6.39031e-16 0)
(1 1.94404e-15 0)
(1 6.72425e-16 0)
(1 2.53549e-15 0)
(1 1.13243e-15 0)
(1 1.14898e-15 0)
(1 1.61375e-15 0)
(1 2.32471e-16 0)
(1 3.93662e-16 0)
(1 -9.74251e-16 0)
(1 -1.47549e-15 0)
(1 -1.38687e-15 0)
(1 -9.78461e-16 0)
(1 -3.13762e-16 0)
(1 -9.82795e-16 0)
(1 -7.83423e-16 0)
(1 -1.56855e-15 0)
(1 -1.92963e-15 0)
(1 1.1363e-15 0)
(1 -2.07859e-16 0)
(1 6.79145e-16 0)
(1 4.47861e-16 0)
(1 1.32532e-15 0)
(1 1.66175e-15 0)
(1 1.82741e-15 0)
(1 2.36632e-15 0)
(1 2.50869e-15 0)
(1 -4.02629e-16 0)
(1 3.50862e-16 0)
(1 1.00216e-15 0)
(1 1.23298e-15 0)
(1 -1.06893e-15 0)
(1 -5.70911e-16 0)
(1 -2.12957e-15 0)
(1 -1.76874e-15 0)
(1 -3.1508e-16 0)
(1 8.40546e-16 0)
(1 -2.61793e-16 0)
(1 -1.2635e-15 0)
(1 1.17651e-15 0)
(1 4.55953e-15 0)
(1 1.55178e-15 0)
(1 2.46142e-15 0)
(1 1.46358e-15 0)
(1 3.1468e-15 0)
(1 5.47734e-15 0)
(1 3.29464e-16 0)
(1 -2.59134e-15 0)
(1 -3.43054e-15 0)
(1 -4.05646e-15 0)
(1 -5.04607e-16 0)
(1 7.21828e-16 0)
(1 -9.45939e-17 0)
(1 -2.12116e-15 0)
(1 1.67673e-15 0)
(1 -2.81816e-15 0)
(1 -1.17366e-15 0)
(1 1.4962e-15 0)
(1 4.75042e-16 0)
(1 -1.99534e-15 0)
(1 -1.4819e-15 0)
(1 7.45312e-16 0)
(1 -1.40068e-15 0)
(1 1.43534e-16 0)
(1 -1.61006e-15 0)
(1 -6.49143e-16 0)
(1 -1.53817e-15 0)
(1 3.60059e-16 0)
(1 -1.27981e-15 0)
(1 1.34056e-15 0)
(1 2.32385e-15 0)
(1 2.62218e-15 0)
(1 1.67292e-15 0)
(1 1.69491e-16 0)
(1 1.84014e-15 0)
(1 -1.2265e-15 0)
(1 -1.24067e-16 0)
(1 8.50026e-16 0)
(1 3.48297e-15 0)
(1 3.63197e-15 0)
(1 2.27927e-15 0)
(1 1.82927e-15 0)
(1 1.69383e-15 0)
(1 2.13676e-15 0)
(1 -9.43432e-16 0)
(1 9.58947e-16 0)
(1 1.33929e-15 0)
(1 1.51686e-15 0)
(1 1.68665e-15 0)
(1 2.31861e-15 0)
(1 1.13955e-15 0)
(1 8.89638e-16 0)
(1 1.32194e-15 0)
(1 2.53524e-15 0)
(1 -4.13069e-16 0)
(1 4.29944e-16 0)
(1 9.86768e-17 0)
(1 2.97178e-15 0)
(1 3.8837e-15 0)
(1 2.03349e-15 0)
(1 1.7989e-15 0)
(1 2.6371e-15 0)
(1 3.96052e-15 0)
(1 3.31659e-15 0)
(1 9.87791e-16 0)
(1 1.09327e-16 0)
(1 -1.10927e-15 0)
(1 -2.63526e-15 0)
(1 -3.01646e-15 0)
(1 -2.67377e-15 0)
(1 -2.26839e-16 0)
(1 -2.25409e-15 0)
(1 -2.08237e-15 0)
(1 -2.50543e-15 0)
(1 -7.74829e-16 0)
(1 -1.33503e-15 0)
(1 -2.4398e-15 0)
(1 -2.21761e-15 0)
(1 -1.31282e-15 0)
(1 -1.93129e-15 0)
(1 -2.93352e-16 0)
(1 1.13807e-15 0)
(1 1.50672e-15 0)
(1 1.34392e-15 0)
(1 2.69813e-15 0)
(1 2.65683e-15 0)
(1 4.13254e-15 0)
(1 -1.02907e-15 0)
(1 2.21909e-15 0)
(1 -2.0753e-15 0)
(1 -3.59335e-15 0)
(1 -2.44045e-15 0)
(1 -5.0189e-16 0)
(1 1.06492e-15 0)
(1 -2.26946e-15 0)
(1 -2.2312e-15 0)
(1 2.20506e-15 0)
(1 1.15578e-15 0)
(1 4.59131e-15 0)
(1 4.26655e-15 0)
(1 5.74749e-15 0)
(1 1.15229e-15 0)
(1 3.18469e-15 0)
(1 1.72674e-15 0)
(1 5.51379e-15 0)
(1 6.36068e-16 0)
(1 -1.85994e-15 0)
(1 -4.987e-15 0)
(1 1.12689e-15 0)
(1 -1.30518e-15 0)
(1 -1.95008e-15 0)
(1 -1.53757e-15 0)
(1 -1.82743e-15 0)
(1 -2.90743e-15 0)
(1 -3.90423e-15 0)
(1 -5.00904e-15 0)
(1 -2.389e-15 0)
(1 -2.16197e-15 0)
(1 3.38359e-16 0)
(1 8.81656e-17 0)
(1 1.78334e-15 0)
(1 8.59318e-16 0)
(1 1.97913e-15 0)
(1 -5.96935e-16 0)
(1 -3.5684e-16 0)
(1 -7.95044e-16 0)
(1 -2.59962e-16 0)
(1 5.38944e-17 0)
(1 1.69005e-15 0)
(1 1.92393e-15 0)
(1 2.24889e-15 0)
(1 5.87448e-15 0)
(1 5.23267e-15 0)
(1 2.07532e-15 0)
(1 -1.41613e-15 0)
(1 -1.75425e-15 0)
(1 -3.23197e-15 0)
(1 6.02943e-16 0)
(1 2.39203e-15 0)
(1 2.76459e-15 0)
(1 1.85064e-15 0)
(1 2.02889e-15 0)
(1 1.50364e-15 0)
(1 4.19726e-15 0)
(1 2.42721e-15 0)
(1 3.77892e-15 0)
(1 1.80762e-15 0)
(1 1.64397e-15 0)
(1 1.57475e-15 0)
(1 -2.91046e-15 0)
(1 -2.68347e-15 0)
(1 -5.37841e-16 0)
(1 1.2256e-15 0)
(1 6.82526e-15 0)
(1 6.5433e-15 0)
(1 5.04204e-15 0)
(1 5.81406e-15 0)
(1 3.78648e-15 0)
(1 4.16724e-15 0)
(1 2.62966e-15 0)
(1 2.63543e-16 0)
(1 -2.49495e-15 0)
(1 -1.10415e-16 0)
(1 1.26526e-15 0)
(1 1.01168e-15 0)
(1 -1.14923e-15 0)
(1 5.01729e-16 0)
(1 -3.57112e-16 0)
(1 2.44412e-15 0)
(1 -1.85447e-15 0)
(1 -3.72326e-16 0)
(1 -3.45034e-15 0)
(1 -3.10019e-15 0)
(1 -2.49234e-15 0)
(1 -1.78249e-15 0)
(1 -2.63861e-15 0)
(1 -1.9677e-15 0)
(1 -2.04259e-15 0)
(1 -2.278e-15 0)
(1 6.73733e-16 0)
(1 1.53725e-15 0)
(1 5.03915e-15 0)
(1 4.43555e-15 0)
(1 5.72982e-15 0)
(1 4.88484e-15 0)
(1 7.29325e-15 0)
(1 7.37289e-15 0)
(1 5.92114e-16 0)
(1 1.03523e-15 0)
(1 2.30131e-16 0)
(1 3.16194e-16 0)
(1 -1.57249e-15 0)
(1 -6.82253e-17 0)
(1 7.6653e-16 0)
(1 1.30688e-15 0)
(1 6.98749e-16 0)
(1 2.29429e-15 0)
(1 1.5911e-15 0)
(1 3.60394e-15 0)
(1 3.0031e-15 0)
(1 -1.34344e-15 0)
(1 -1.24454e-15 0)
(1 -8.7209e-16 0)
(1 1.15343e-15 0)
(1 2.91806e-15 0)
(1 -6.83716e-16 0)
(1 -1.80244e-15 0)
(1 -3.6785e-15 0)
(1 -1.70869e-15 0)
(1 1.5289e-15 0)
(1 -1.76698e-16 0)
(1 1.13953e-15 0)
(1 1.16492e-16 0)
(1 3.09615e-17 0)
(1 -5.55326e-15 0)
(1 -3.21027e-15 0)
(1 -2.06874e-15 0)
(1 -2.35512e-15 0)
(1 2.26644e-16 0)
(1 2.9889e-16 0)
(1 4.30809e-16 0)
(1 -2.25522e-15 0)
(1 -2.59737e-16 0)
(1 -2.75749e-15 0)
(1 -1.58917e-15 0)
(1 -2.81077e-15 0)
(1 -2.86417e-16 0)
(1 -1.75267e-15 0)
(1 2.33764e-15 0)
(1 1.65791e-15 0)
(1 3.02307e-15 0)
(1 2.57632e-15 0)
(1 2.55383e-15 0)
(1 9.45107e-16 0)
(1 -1.07959e-15 0)
(1 2.71328e-15 0)
(1 1.33471e-15 0)
(1 4.04533e-15 0)
(1 1.59642e-15 0)
(1 1.32628e-15 0)
(1 1.50218e-15 0)
(1 2.90245e-15 0)
(1 1.97254e-15 0)
(1 2.20016e-15 0)
(1 3.06412e-15 0)
(1 2.15483e-15 0)
(1 1.36002e-15 0)
(1 2.06078e-15 0)
(1 3.51943e-15 0)
(1 5.40697e-15 0)
(1 2.82658e-15 0)
(1 1.84654e-15 0)
(1 1.0446e-15 0)
(1 3.00904e-15 0)
(1 4.81434e-15 0)
(1 5.33636e-15 0)
(1 3.77584e-15 0)
(1 2.00416e-15 0)
(1 2.19356e-15 0)
(1 1.50285e-15 0)
(1 1.25203e-16 0)
(1 -8.19705e-16 0)
(1 1.8702e-15 0)
(1 3.83049e-15 0)
(1 2.34706e-15 0)
(1 1.85569e-16 0)
(1 7.28111e-16 0)
(1 6.86881e-16 0)
(1 -3.06219e-16 0)
(1 -2.52905e-15 0)
(1 -3.20899e-15 0)
(1 -3.14678e-15 0)
(1 -3.27395e-15 0)
(1 -1.88982e-15 0)
(1 -3.56578e-15 0)
(1 -1.42279e-15 0)
(1 -1.93116e-15 0)
(1 8.53549e-16 0)
(1 -1.56766e-15 0)
(1 3.16475e-15 0)
(1 1.36067e-15 0)
(1 3.69013e-15 0)
(1 3.22635e-15 0)
(1 4.06544e-15 0)
(1 5.76741e-15 0)
(1 1.05686e-14 0)
(1 8.62802e-15 0)
(1 3.16279e-16 0)
(1 -1.5136e-15 0)
(1 -2.99139e-16 0)
(1 2.08431e-15 0)
(1 -1.10966e-15 0)
(1 1.17987e-15 0)
(1 -1.5035e-16 0)
(1 2.57233e-15 0)
(1 1.48363e-15 0)
(1 -2.64082e-15 0)
(1 -2.03543e-15 0)
(1 -8.08998e-17 0)
(1 -1.76093e-16 0)
(1 1.08189e-15 0)
(1 2.35399e-15 0)
(1 2.24366e-15 0)
(1 1.00256e-15 0)
(1 -1.35274e-15 0)
(1 4.65545e-16 0)
(1 -1.16729e-15 0)
(1 -1.19121e-17 0)
(1 -1.05954e-16 0)
(1 4.01677e-16 0)
(1 -1.85119e-15 0)
(1 -2.14795e-15 0)
(1 -1.67551e-15 0)
(1 2.42161e-15 0)
(1 -1.21375e-15 0)
(1 -2.02546e-16 0)
(1 -3.14714e-15 0)
(1 -2.64196e-15 0)
(1 -4.66922e-15 0)
(1 -1.7611e-15 0)
(1 -7.79127e-16 0)
(1 8.00613e-16 0)
(1 -3.16284e-16 0)
(1 -7.47783e-16 0)
(1 -2.24239e-15 0)
(1 -1.89802e-15 0)
(1 5.379e-16 0)
(1 5.42652e-16 0)
(1 -9.72455e-16 0)
(1 6.72758e-16 0)
(1 -1.52107e-16 0)
(1 1.17914e-15 0)
(1 1.18501e-15 0)
(1 3.07008e-15 0)
(1 7.81788e-16 0)
(1 3.75678e-15 0)
(1 3.65952e-15 0)
(1 3.21264e-15 0)
(1 2.33155e-15 0)
(1 3.74034e-15 0)
(1 2.77407e-15 0)
(1 3.99239e-15 0)
(1 2.51696e-15 0)
(1 4.42225e-15 0)
(1 1.63309e-15 0)
(1 3.92911e-15 0)
(1 1.50534e-15 0)
(1 3.73978e-15 0)
(1 3.78617e-16 0)
(1 4.56677e-15 0)
(1 1.66952e-15 0)
(1 1.96269e-15 0)
(1 3.95645e-15 0)
(1 2.53558e-15 0)
(1 1.52971e-15 0)
(1 4.3557e-15 0)
(1 2.69922e-15 0)
(1 4.96106e-15 0)
(1 1.23185e-15 0)
(1 4.09861e-16 0)
(1 -6.36196e-16 0)
(1 -3.47709e-16 0)
(1 7.34148e-16 0)
(1 2.28477e-15 0)
(1 2.23831e-15 0)
(1 2.14233e-15 0)
(1 -1.67111e-15 0)
(1 2.8084e-17 0)
(1 -2.7011e-15 0)
(1 5.78925e-16 0)
(1 -2.26936e-15 0)
(1 -1.55532e-15 0)
(1 -2.3101e-15 0)
(1 -1.9557e-15 0)
(1 -7.9927e-16 0)
(1 -9.09346e-16 0)
(1 -2.7588e-15 0)
(1 -9.905e-16 0)
(1 -1.06083e-15 0)
(1 1.82127e-16 0)
(1 2.65355e-16 0)
(1 6.60753e-16 0)
(1 1.21243e-15 0)
(1 2.77547e-15 0)
(1 5.42143e-15 0)
(1 6.99754e-15 0)
(1 6.56744e-15 0)
(1 7.80331e-16 0)
(1 -2.23209e-15 0)
(1 1.74803e-15 0)
(1 8.58448e-16 0)
(1 7.67563e-16 0)
(1 -1.77381e-15 0)
(1 -2.3804e-15 0)
(1 7.3918e-16 0)
(1 2.35814e-15 0)
(1 2.72479e-15 0)
(1 2.35908e-15 0)
(1 3.09983e-16 0)
(1 -2.47876e-15 0)
(1 -9.92981e-16 0)
(1 1.36662e-16 0)
(1 3.21392e-15 0)
(1 1.61802e-15 0)
(1 -1.69357e-15 0)
(1 -1.99694e-15 0)
(1 -2.80217e-15 0)
(1 1.25899e-15 0)
(1 -1.03107e-16 0)
(1 7.33688e-17 0)
(1 -6.18884e-16 0)
(1 -6.84408e-16 0)
(1 -1.57276e-15 0)
(1 -1.72826e-15 0)
(1 -9.39793e-17 0)
(1 1.37311e-15 0)
(1 -1.95846e-16 0)
(1 -1.55632e-15 0)
(1 -2.09202e-15 0)
(1 -1.32913e-15 0)
(1 -2.04543e-15 0)
(1 -2.9178e-15 0)
(1 -5.13133e-15 0)
(1 -3.49838e-16 0)
(1 -1.2693e-15 0)
(1 -9.896e-16 0)
(1 -1.90766e-15 0)
(1 -8.41571e-17 0)
(1 -1.38592e-15 0)
(1 -1.27624e-15 0)
(1 -2.7289e-15 0)
(1 1.49003e-15 0)
(1 4.7766e-15 0)
(1 5.47919e-15 0)
(1 5.42362e-15 0)
(1 1.95135e-15 0)
(1 3.15385e-15 0)
(1 1.82609e-15 0)
(1 2.73692e-15 0)
(1 3.31239e-15 0)
(1 4.74225e-15 0)
(1 4.78872e-15 0)
(1 1.56667e-15 0)
(1 -2.63293e-16 0)
(1 7.78275e-16 0)
(1 3.00455e-15 0)
(1 3.97234e-15 0)
(1 4.98394e-15 0)
(1 3.59145e-15 0)
(1 1.22343e-15 0)
(1 1.58568e-15 0)
(1 1.44724e-15 0)
(1 4.84026e-16 0)
(1 2.35428e-15 0)
(1 2.44354e-15 0)
(1 2.75118e-15 0)
(1 3.17127e-15 0)
(1 4.08252e-15 0)
(1 2.85898e-15 0)
(1 1.50457e-15 0)
(1 8.72241e-16 0)
(1 1.54737e-15 0)
(1 5.60213e-16 0)
(1 2.0366e-15 0)
(1 6.2972e-16 0)
(1 -6.19664e-16 0)
(1 -1.72807e-15 0)
(1 1.70585e-15 0)
(1 9.55872e-16 0)
(1 -3.93653e-16 0)
(1 -1.14892e-15 0)
(1 -1.96085e-15 0)
(1 -2.2215e-15 0)
(1 -2.54779e-15 0)
(1 -1.36378e-15 0)
(1 -2.83709e-15 0)
(1 -7.70939e-16 0)
(1 -7.28178e-16 0)
(1 1.13594e-15 0)
(1 5.92733e-16 0)
(1 7.99735e-16 0)
(1 1.32902e-15 0)
(1 2.93314e-15 0)
(1 5.14759e-15 0)
(1 4.09521e-15 0)
(1 2.64073e-15 0)
(1 4.76703e-15 0)
(1 2.71675e-15 0)
(1 -8.95627e-16 0)
(1 6.27615e-17 0)
(1 9.15265e-16 0)
(1 1.97547e-15 0)
(1 9.43496e-16 0)
(1 1.14371e-15 0)
(1 4.28422e-16 0)
(1 -7.50702e-16 0)
(1 1.3828e-15 0)
(1 4.7161e-15 0)
(1 6.00182e-15 0)
(1 1.9238e-15 0)
(1 -6.89556e-17 0)
(1 -3.03597e-15 0)
(1 -3.53764e-15 0)
(1 -3.64785e-15 0)
(1 -3.59329e-15 0)
(1 -1.68898e-15 0)
(1 -1.52171e-15 0)
(1 1.8178e-15 0)
(1 -2.56811e-15 0)
(1 1.56975e-15 0)
(1 -2.61949e-15 0)
(1 2.79399e-15 0)
(1 4.21905e-16 0)
(1 -4.84539e-15 0)
(1 -2.70913e-15 0)
(1 -3.91018e-15 0)
(1 -1.69915e-15 0)
(1 -1.6005e-15 0)
(1 -2.5698e-16 0)
(1 -2.15252e-15 0)
(1 -1.33276e-15 0)
(1 -2.63921e-15 0)
(1 -9.59262e-17 0)
(1 -6.94392e-16 0)
(1 -6.06407e-16 0)
(1 -1.34976e-15 0)
(1 -1.64381e-15 0)
(1 -4.35621e-15 0)
(1 5.58421e-16 0)
(1 -3.5718e-15 0)
(1 -1.27493e-15 0)
(1 1.00225e-15 0)
(1 3.34175e-15 0)
(1 4.77337e-15 0)
(1 6.99656e-15 0)
(1 3.19873e-15 0)
(1 4.34212e-15 0)
(1 1.90799e-16 0)
(1 3.54328e-15 0)
(1 3.1086e-15 0)
(1 5.25071e-15 0)
(1 3.16763e-15 0)
(1 3.5e-15 0)
(1 -3.92437e-16 0)
(1 2.44973e-15 0)
(1 -8.12143e-16 0)
(1 1.26916e-15 0)
(1 9.23907e-16 0)
(1 5.4709e-15 0)
(1 5.70047e-15 0)
(1 7.59992e-15 0)
(1 3.43211e-15 0)
(1 1.62799e-16 0)
(1 -3.54224e-16 0)
(1 5.18167e-16 0)
(1 -5.55972e-16 0)
(1 7.90146e-16 0)
(1 1.76164e-15 0)
(1 1.66325e-15 0)
(1 3.3042e-15 0)
(1 3.31474e-15 0)
(1 2.88565e-15 0)
(1 -1.13329e-16 0)
(1 -9.72899e-16 0)
(1 -7.47521e-16 0)
(1 -1.47648e-15 0)
(1 2.09239e-15 0)
(1 -2.8684e-16 0)
(1 -5.06943e-16 0)
(1 -1.88662e-15 0)
(1 -3.63496e-16 0)
(1 -1.56351e-15 0)
(1 5.80026e-16 0)
(1 -2.69419e-15 0)
(1 -2.17143e-15 0)
(1 -2.19808e-15 0)
(1 -9.00155e-16 0)
(1 -1.43415e-17 0)
(1 -6.65974e-16 0)
(1 -1.44259e-15 0)
(1 -1.67925e-15 0)
(1 -1.21317e-15 0)
(1 2.93111e-15 0)
(1 2.97842e-15 0)
(1 2.74951e-15 0)
(1 1.17006e-15 0)
(1 3.02472e-15 0)
(1 -4.09989e-16 0)
(1 3.83782e-15 0)
(1 -3.69013e-15 0)
(1 1.17522e-15 0)
(1 1.32907e-15 0)
(1 3.86828e-15 0)
(1 1.49055e-15 0)
(1 2.05794e-15 0)
(1 -1.49247e-15 0)
(1 -2.77354e-15 0)
(1 1.26383e-15 0)
(1 4.27036e-15 0)
(1 2.43877e-15 0)
(1 3.94228e-15 0)
(1 -2.56043e-15 0)
(1 -5.72008e-15 0)
(1 -4.16506e-15 0)
(1 -3.04812e-15 0)
(1 -1.50761e-15 0)
(1 -1.0678e-15 0)
(1 -1.13627e-15 0)
(1 -1.53731e-15 0)
(1 1.90817e-15 0)
(1 -9.71855e-17 0)
(1 2.39839e-15 0)
(1 -1.64224e-15 0)
(1 -2.34963e-15 0)
(1 -3.35249e-15 0)
(1 -2.49361e-15 0)
(1 -8.70748e-16 0)
(1 1.44521e-17 0)
(1 -1.37214e-15 0)
(1 -2.08817e-15 0)
(1 -2.77011e-15 0)
(1 9.57059e-16 0)
(1 4.86433e-16 0)
(1 -1.65845e-16 0)
(1 -3.00816e-15 0)
(1 -1.21938e-15 0)
(1 -3.68503e-15 0)
(1 -2.69863e-15 0)
(1 -1.92598e-15 0)
(1 -6.29556e-16 0)
(1 4.36282e-15 0)
(1 1.08673e-15 0)
(1 2.95112e-15 0)
(1 3.0121e-15 0)
(1 4.99243e-15 0)
(1 3.48483e-15 0)
(1 3.27727e-15 0)
(1 5.72126e-16 0)
(1 9.60614e-16 0)
(1 1.71316e-15 0)
(1 2.24036e-15 0)
(1 2.26473e-15 0)
(1 4.72224e-15 0)
(1 6.37641e-15 0)
(1 5.8576e-15 0)
(1 2.75075e-15 0)
(1 9.12053e-16 0)
(1 -1.56189e-17 0)
(1 1.2458e-15 0)
(1 6.63053e-16 0)
(1 2.38498e-15 0)
(1 2.83623e-15 0)
(1 5.84971e-15 0)
(1 9.80208e-16 0)
(1 3.4169e-15 0)
(1 5.96435e-16 0)
(1 2.03654e-15 0)
(1 2.96382e-15 0)
(1 1.51373e-15 0)
(1 3.71083e-15 0)
(1 4.47455e-15 0)
(1 3.52108e-15 0)
(1 1.29879e-15 0)
(1 -3.5857e-17 0)
(1 1.6523e-15 0)
(1 2.34555e-15 0)
(1 2.76423e-15 0)
(1 -1.47278e-15 0)
(1 -1.38281e-15 0)
(1 -1.15034e-15 0)
(1 -1.92971e-16 0)
(1 -1.00353e-15 0)
(1 -1.21857e-15 0)
(1 -2.80325e-15 0)
(1 -5.39604e-16 0)
(1 8.47518e-16 0)
(1 -5.73503e-16 0)
(1 -1.03228e-15 0)
(1 -6.21392e-16 0)
(1 -1.11751e-15 0)
(1 -3.05991e-16 0)
(1 -1.16254e-15 0)
(1 1.86002e-15 0)
(1 1.53874e-15 0)
(1 3.63654e-15 0)
(1 2.73721e-15 0)
(1 1.39265e-15 0)
(1 5.85263e-16 0)
(1 1.4381e-15 0)
(1 3.74792e-15 0)
(1 2.13883e-15 0)
(1 2.39182e-15 0)
(1 -1.29756e-15 0)
(1 -1.68626e-15 0)
(1 -3.15274e-15 0)
(1 1.41962e-15 0)
(1 3.75006e-15 0)
(1 1.37374e-15 0)
(1 -1.11078e-15 0)
(1 -6.40278e-16 0)
(1 -2.53749e-15 0)
(1 -3.61682e-15 0)
(1 -3.95826e-15 0)
(1 -5.18777e-15 0)
(1 -1.03092e-15 0)
(1 -2.19961e-15 0)
(1 2.61714e-16 0)
(1 -2.51629e-15 0)
(1 6.16818e-16 0)
(1 -2.42759e-15 0)
(1 6.16128e-15 0)
(1 4.54661e-15 0)
(1 1.97841e-15 0)
(1 -7.50151e-16 0)
(1 -1.52248e-15 0)
(1 -3.16333e-15 0)
(1 -2.54511e-15 0)
(1 -2.14387e-15 0)
(1 -1.31375e-15 0)
(1 -2.32187e-15 0)
(1 -5.50055e-15 0)
(1 -1.27177e-15 0)
(1 -2.16138e-15 0)
(1 -1.04783e-15 0)
(1 -3.42642e-16 0)
(1 -1.20903e-15 0)
(1 -1.56953e-15 0)
(1 1.12206e-15 0)
(1 5.40791e-17 0)
(1 1.64912e-15 0)
(1 3.57441e-15 0)
(1 1.53597e-15 0)
(1 3.38479e-15 0)
(1 1.19526e-15 0)
(1 2.50965e-15 0)
(1 1.22822e-15 0)
(1 -4.20532e-16 0)
(1 2.31712e-15 0)
(1 1.85066e-15 0)
(1 1.35622e-15 0)
(1 2.13033e-15 0)
(1 3.16117e-15 0)
(1 2.63632e-15 0)
(1 5.86816e-15 0)
(1 5.13336e-15 0)
(1 5.57067e-15 0)
(1 4.77691e-15 0)
(1 4.25972e-15 0)
(1 1.2626e-15 0)
(1 1.52497e-15 0)
(1 1.6778e-15 0)
(1 4.02785e-15 0)
(1 3.62411e-15 0)
(1 4.51286e-15 0)
(1 3.83192e-15 0)
(1 3.56197e-15 0)
(1 3.4274e-15 0)
(1 1.99929e-15 0)
(1 5.7448e-15 0)
(1 3.98322e-15 0)
(1 3.8226e-15 0)
(1 2.19247e-15 0)
(1 3.45585e-15 0)
(1 2.4147e-15 0)
(1 1.05914e-15 0)
(1 2.49807e-15 0)
(1 -4.16322e-16 0)
(1 -4.24557e-16 0)
(1 -6.087e-16 0)
(1 -1.3695e-15 0)
(1 -1.37322e-15 0)
(1 -3.11319e-15 0)
(1 -5.95658e-15 0)
(1 -4.33502e-15 0)
(1 -3.84906e-15 0)
(1 -2.31685e-15 0)
(1 -2.29454e-15 0)
(1 -4.4152e-16 0)
(1 -1.5384e-16 0)
(1 1.86472e-15 0)
(1 1.72202e-15 0)
(1 4.11824e-15 0)
(1 1.30741e-15 0)
(1 7.46734e-16 0)
(1 2.73182e-15 0)
(1 3.42343e-15 0)
(1 2.88673e-15 0)
(1 -6.0732e-16 0)
(1 -1.37017e-15 0)
(1 1.1939e-15 0)
(1 1.95607e-15 0)
(1 7.69973e-16 0)
(1 2.64742e-15 0)
(1 5.11172e-15 0)
(1 1.91933e-15 0)
(1 5.18223e-16 0)
(1 1.35973e-15 0)
(1 -3.30765e-15 0)
(1 -4.16186e-15 0)
(1 -2.07599e-15 0)
(1 -3.36424e-15 0)
(1 9.61675e-16 0)
(1 4.48347e-16 0)
(1 -3.76163e-15 0)
(1 -3.75528e-15 0)
(1 -3.53245e-15 0)
(1 4.55494e-16 0)
(1 3.85683e-16 0)
(1 3.52828e-15 0)
(1 -3.52772e-15 0)
(1 3.02893e-18 0)
(1 -3.51589e-15 0)
(1 9.17185e-16 0)
(1 -7.52089e-16 0)
(1 1.2315e-15 0)
(1 -1.86741e-15 0)
(1 -3.21923e-15 0)
(1 -1.14908e-15 0)
(1 -3.50468e-15 0)
(1 9.27725e-16 0)
(1 -1.4658e-15 0)
(1 -1.19954e-15 0)
(1 -2.48464e-17 0)
(1 -2.41462e-15 0)
(1 1.64096e-16 0)
(1 -1.13701e-16 0)
(1 1.7042e-15 0)
(1 6.90709e-16 0)
(1 1.8135e-15 0)
(1 1.96196e-15 0)
(1 -3.33675e-15 0)
(1 -4.85674e-16 0)
(1 -4.27747e-15 0)
(1 2.05947e-15 0)
(1 1.12576e-15 0)
(1 3.34001e-15 0)
(1 9.8356e-16 0)
(1 3.40662e-15 0)
(1 2.75344e-15 0)
(1 3.81536e-15 0)
(1 1.41367e-15 0)
(1 2.79303e-15 0)
(1 4.09347e-15 0)
(1 6.31802e-15 0)
(1 4.07273e-15 0)
(1 4.99814e-15 0)
(1 1.50776e-15 0)
(1 9.89873e-16 0)
(1 -3.8069e-16 0)
(1 1.90765e-15 0)
(1 1.29559e-15 0)
(1 2.86559e-15 0)
(1 1.52178e-15 0)
(1 3.89301e-15 0)
(1 1.77882e-15 0)
(1 4.81712e-15 0)
(1 2.27976e-15 0)
(1 2.19773e-15 0)
(1 4.10774e-15 0)
(1 2.54718e-15 0)
(1 3.54419e-15 0)
(1 2.27189e-15 0)
(1 4.75526e-17 0)
(1 -5.79376e-16 0)
(1 -9.93615e-16 0)
(1 1.59955e-15 0)
(1 -3.63741e-16 0)
(1 9.15052e-17 0)
(1 -1.4272e-15 0)
(1 5.2621e-16 0)
(1 -7.47391e-17 0)
(1 -1.4283e-15 0)
(1 -3.63847e-15 0)
(1 -4.52039e-15 0)
(1 -5.2145e-15 0)
(1 -3.25158e-15 0)