/*--------------------------------*- C++ -*----------------------------------*\
| =========                 |                                                 |
| \\      /  F ield         | OpenFOAM: The Open Source CFD Toolbox           |
|  \\    /   O peration     | Version:  v2012                                 |
|   \\  /    A nd           | Website:  www.openfoam.com                      |
|    \\/     M anipulation  |                                                 |
\*---------------------------------------------------------------------------*/
FoamFile
{
    version     2.0;
    format      ascii;
    class       volVectorField;
    location    "3";
    object      Psi;
}
// * * * * * * * * * * * * * * * * * * * * * * * * * * * * * * * * * * * * * //

dimensions      [0 2 -1 0 0 0 0];


internalField   nonuniform List<vector> 
65536
(
(0 0 8.81436e-06)
(0 0 2.64426e-05)
(0 0 4.40693e-05)
(0 0 6.16935e-05)
(0 0 7.93141e-05)
(0 0 9.693e-05)
(0 0 0.00011454)
(0 0 0.000132143)
(0 0 0.000149738)
(0 0 0.000167324)
(0 0 0.0001849)
(0 0 0.000202464)
(0 0 0.000220016)
(0 0 0.000237553)
(0 0 0.000255075)
(0 0 0.000272581)
(0 0 0.000290069)
(0 0 0.000307537)
(0 0 0.000324985)
(0 0 0.000342411)
(0 0 0.000359812)
(0 0 0.000377189)
(0 0 0.000394538)
(0 0 0.000411859)
(0 0 0.00042915)
(0 0 0.000446408)
(0 0 0.000463632)
(0 0 0.00048082)
(0 0 0.00049797)
(0 0 0.000515081)
(0 0 0.000532149)
(0 0 0.000549172)
(0 0 0.000566149)
(0 0 0.000583078)
(0 0 0.000599954)
(0 0 0.000616777)
(0 0 0.000633544)
(0 0 0.000650252)
(0 0 0.000666898)
(0 0 0.00068348)
(0 0 0.000699995)
(0 0 0.00071644)
(0 0 0.000732811)
(0 0 0.000749107)
(0 0 0.000765323)
(0 0 0.000781457)
(0 0 0.000797506)
(0 0 0.000813465)
(0 0 0.000829333)
(0 0 0.000845104)
(0 0 0.000860777)
(0 0 0.000876347)
(0 0 0.00089181)
(0 0 0.000907164)
(0 0 0.000922403)
(0 0 0.000937526)
(0 0 0.000952526)
(0 0 0.000967402)
(0 0 0.000982149)
(0 0 0.000996762)
(0 0 0.00101124)
(0 0 0.00102557)
(0 0 0.00103977)
(0 0 0.00105381)
(0 0 0.0010677)
(0 0 0.00108143)
(0 0 0.001095)
(0 0 0.0011084)
(0 0 0.00112164)
(0 0 0.0011347)
(0 0 0.00114759)
(0 0 0.00116029)
(0 0 0.00117281)
(0 0 0.00118513)
(0 0 0.00119727)
(0 0 0.00120921)
(0 0 0.00122094)
(0 0 0.00123247)
(0 0 0.00124379)
(0 0 0.0012549)
(0 0 0.0012658)
(0 0 0.00127647)
(0 0 0.00128692)
(0 0 0.00129714)
(0 0 0.00130713)
(0 0 0.00131689)
(0 0 0.00132641)
(0 0 0.00133569)
(0 0 0.00134473)
(0 0 0.00135353)
(0 0 0.00136207)
(0 0 0.00137037)
(0 0 0.00137841)
(0 0 0.00138619)
(0 0 0.00139372)
(0 0 0.00140098)
(0 0 0.00140798)
(0 0 0.00141472)
(0 0 0.00142119)
(0 0 0.0014274)
(0 0 0.00143333)
(0 0 0.00143899)
(0 0 0.00144438)
(0 0 0.0014495)
(0 0 0.00145434)
(0 0 0.0014589)
(0 0 0.00146319)
(0 0 0.00146721)
(0 0 0.00147094)
(0 0 0.0014744)
(0 0 0.00147758)
(0 0 0.00148048)
(0 0 0.00148311)
(0 0 0.00148545)
(0 0 0.00148752)
(0 0 0.00148931)
(0 0 0.00149083)
(0 0 0.00149207)
(0 0 0.00149303)
(0 0 0.00149372)
(0 0 0.00149414)
(0 0 0.00149428)
(0 0 0.00149416)
(0 0 0.00149376)
(0 0 0.00149309)
(0 0 0.00149216)
(0 0 0.00149097)
(0 0 0.00148951)
(0 0 0.00148778)
(0 0 0.0014858)
(0 0 0.00148356)
(0 0 0.00148107)
(0 0 0.00147832)
(0 0 0.00147531)
(0 0 0.00147206)
(0 0 0.00146856)
(0 0 0.00146482)
(0 0 0.00146083)
(0 0 0.0014566)
(0 0 0.00145214)
(0 0 0.00144744)
(0 0 0.0014425)
(0 0 0.00143734)
(0 0 0.00143194)
(0 0 0.00142633)
(0 0 0.00142048)
(0 0 0.00141442)
(0 0 0.00140815)
(0 0 0.00140165)
(0 0 0.00139495)
(0 0 0.00138804)
(0 0 0.00138092)
(0 0 0.00137359)
(0 0 0.00136607)
(0 0 0.00135835)
(0 0 0.00135043)
(0 0 0.00134232)
(0 0 0.00133402)
(0 0 0.00132554)
(0 0 0.00131687)
(0 0 0.00130802)
(0 0 0.00129899)
(0 0 0.00128979)
(0 0 0.00128041)
(0 0 0.00127086)
(0 0 0.00126115)
(0 0 0.00125128)
(0 0 0.00124124)
(0 0 0.00123104)
(0 0 0.00122069)
(0 0 0.00121019)
(0 0 0.00119954)
(0 0 0.00118873)
(0 0 0.00117779)
(0 0 0.0011667)
(0 0 0.00115548)
(0 0 0.00114411)
(0 0 0.00113262)
(0 0 0.00112099)
(0 0 0.00110924)
(0 0 0.00109736)
(0 0 0.00108535)
(0 0 0.00107323)
(0 0 0.00106099)
(0 0 0.00104863)
(0 0 0.00103617)
(0 0 0.00102359)
(0 0 0.0010109)
(0 0 0.000998112)
(0 0 0.000985219)
(0 0 0.000972226)
(0 0 0.000959136)
(0 0 0.000945951)
(0 0 0.000932673)
(0 0 0.000919304)
(0 0 0.000905848)
(0 0 0.000892306)
(0 0 0.00087868)
(0 0 0.000864974)
(0 0 0.000851188)
(0 0 0.000837326)
(0 0 0.000823389)
(0 0 0.00080938)
(0 0 0.0007953)
(0 0 0.000781153)
(0 0 0.000766939)
(0 0 0.000752661)
(0 0 0.000738321)
(0 0 0.00072392)
(0 0 0.000709462)
(0 0 0.000694947)
(0 0 0.000680377)
(0 0 0.000665755)
(0 0 0.000651081)
(0 0 0.000636359)
(0 0 0.000621589)
(0 0 0.000606773)
(0 0 0.000591913)
(0 0 0.000577011)
(0 0 0.000562068)
(0 0 0.000547085)
(0 0 0.000532064)
(0 0 0.000517007)
(0 0 0.000501916)
(0 0 0.00048679)
(0 0 0.000471633)
(0 0 0.000456445)
(0 0 0.000441227)
(0 0 0.000425982)
(0 0 0.000410709)
(0 0 0.000395411)
(0 0 0.000380089)
(0 0 0.000364744)
(0 0 0.000349376)
(0 0 0.000333988)
(0 0 0.00031858)
(0 0 0.000303153)
(0 0 0.000287709)
(0 0 0.000272248)
(0 0 0.000256771)
(0 0 0.00024128)
(0 0 0.000225776)
(0 0 0.000210258)
(0 0 0.00019473)
(0 0 0.00017919)
(0 0 0.000163641)
(0 0 0.000148083)
(0 0 0.000132516)
(0 0 0.000116943)
(0 0 0.000101363)
(0 0 8.57781e-05)
(0 0 7.01883e-05)
(0 0 5.45948e-05)
(0 0 3.89984e-05)
(0 0 2.33999e-05)
(0 0 7.80009e-06)
(0 0 2.64436e-05)
(0 0 7.93292e-05)
(0 0 0.00013221)
(0 0 0.000185084)
(0 0 0.000237947)
(0 0 0.000290795)
(0 0 0.000343627)
(0 0 0.000396437)
(0 0 0.000449224)
(0 0 0.000501983)
(0 0 0.000554711)
(0 0 0.000607405)
(0 0 0.00066006)
(0 0 0.000712674)
(0 0 0.000765242)
(0 0 0.000817761)
(0 0 0.000870225)
(0 0 0.000922632)
(0 0 0.000974977)
(0 0 0.00102726)
(0 0 0.00107946)
(0 0 0.00113159)
(0 0 0.00118364)
(0 0 0.00123561)
(0 0 0.00128748)
(0 0 0.00133926)
(0 0 0.00139093)
(0 0 0.0014425)
(0 0 0.00149395)
(0 0 0.00154528)
(0 0 0.00159649)
(0 0 0.00164756)
(0 0 0.0016985)
(0 0 0.00174928)
(0 0 0.00179992)
(0 0 0.00185039)
(0 0 0.00190069)
(0 0 0.00195082)
(0 0 0.00200076)
(0 0 0.00205051)
(0 0 0.00210005)
(0 0 0.00214939)
(0 0 0.00219851)
(0 0 0.0022474)
(0 0 0.00229605)
(0 0 0.00234446)
(0 0 0.00239261)
(0 0 0.00244049)
(0 0 0.00248809)
(0 0 0.00253541)
(0 0 0.00258243)
(0 0 0.00262915)
(0 0 0.00267554)
(0 0 0.0027216)
(0 0 0.00276733)
(0 0 0.0028127)
(0 0 0.0028577)
(0 0 0.00290234)
(0 0 0.00294658)
(0 0 0.00299042)
(0 0 0.00303386)
(0 0 0.00307687)
(0 0 0.00311945)
(0 0 0.00316157)
(0 0 0.00320324)
(0 0 0.00324444)
(0 0 0.00328516)
(0 0 0.00332538)
(0 0 0.00336509)
(0 0 0.00340428)
(0 0 0.00344294)
(0 0 0.00348105)
(0 0 0.00351861)
(0 0 0.0035556)
(0 0 0.003592)
(0 0 0.00362782)
(0 0 0.00366303)
(0 0 0.00369762)
(0 0 0.00373159)
(0 0 0.00376492)
(0 0 0.0037976)
(0 0 0.00382963)
(0 0 0.00386098)
(0 0 0.00389165)
(0 0 0.00392163)
(0 0 0.00395091)
(0 0 0.00397948)
(0 0 0.00400732)
(0 0 0.00403445)
(0 0 0.00406083)
(0 0 0.00408647)
(0 0 0.00411135)
(0 0 0.00413548)
(0 0 0.00415883)
(0 0 0.00418141)
(0 0 0.00420321)
(0 0 0.00422422)
(0 0 0.00424443)
(0 0 0.00426385)
(0 0 0.00428246)
(0 0 0.00430026)
(0 0 0.00431725)
(0 0 0.00433342)
(0 0 0.00434877)
(0 0 0.00436329)
(0 0 0.00437699)
(0 0 0.00438986)
(0 0 0.0044019)
(0 0 0.00441311)
(0 0 0.00442348)
(0 0 0.00443302)
(0 0 0.00444173)
(0 0 0.0044496)
(0 0 0.00445664)
(0 0 0.00446284)
(0 0 0.00446822)
(0 0 0.00447276)
(0 0 0.00447648)
(0 0 0.00447937)
(0 0 0.00448144)
(0 0 0.00448268)
(0 0 0.00448312)
(0 0 0.00448274)
(0 0 0.00448155)
(0 0 0.00447955)
(0 0 0.00447675)
(0 0 0.00447316)
(0 0 0.00446878)
(0 0 0.00446361)
(0 0 0.00445767)
(0 0 0.00445094)
(0 0 0.00444345)
(0 0 0.0044352)
(0 0 0.00442619)
(0 0 0.00441644)
(0 0 0.00440594)
(0 0 0.0043947)
(0 0 0.00438274)
(0 0 0.00437005)
(0 0 0.00435665)
(0 0 0.00434254)
(0 0 0.00432774)
(0 0 0.00431224)
(0 0 0.00429606)
(0 0 0.0042792)
(0 0 0.00426168)
(0 0 0.00424349)
(0 0 0.00422465)
(0 0 0.00420517)
(0 0 0.00418506)
(0 0 0.00416431)
(0 0 0.00414295)
(0 0 0.00412098)
(0 0 0.0040984)
(0 0 0.00407524)
(0 0 0.00405148)
(0 0 0.00402715)
(0 0 0.00400225)
(0 0 0.00397679)
(0 0 0.00395078)
(0 0 0.00392423)
(0 0 0.00389714)
(0 0 0.00386953)
(0 0 0.0038414)
(0 0 0.00381276)
(0 0 0.00378362)
(0 0 0.00375399)
(0 0 0.00372388)
(0 0 0.00369329)
(0 0 0.00366223)
(0 0 0.00363072)
(0 0 0.00359876)
(0 0 0.00356635)
(0 0 0.00353351)
(0 0 0.00350025)
(0 0 0.00346657)
(0 0 0.00343248)
(0 0 0.00339799)
(0 0 0.00336311)
(0 0 0.00332784)
(0 0 0.0032922)
(0 0 0.00325619)
(0 0 0.00321981)
(0 0 0.00318309)
(0 0 0.00314602)
(0 0 0.00310861)
(0 0 0.00307087)
(0 0 0.00303282)
(0 0 0.00299444)
(0 0 0.00295576)
(0 0 0.00291678)
(0 0 0.00287751)
(0 0 0.00283795)
(0 0 0.00279811)
(0 0 0.002758)
(0 0 0.00271763)
(0 0 0.002677)
(0 0 0.00263612)
(0 0 0.002595)
(0 0 0.00255364)
(0 0 0.00251205)
(0 0 0.00247024)
(0 0 0.00242821)
(0 0 0.00238597)
(0 0 0.00234353)
(0 0 0.00230088)
(0 0 0.00225805)
(0 0 0.00221502)
(0 0 0.00217182)
(0 0 0.00212844)
(0 0 0.0020849)
(0 0 0.00204119)
(0 0 0.00199732)
(0 0 0.0019533)
(0 0 0.00190913)
(0 0 0.00186481)
(0 0 0.00182037)
(0 0 0.00177578)
(0 0 0.00173108)
(0 0 0.00168624)
(0 0 0.00164129)
(0 0 0.00159623)
(0 0 0.00155106)
(0 0 0.00150578)
(0 0 0.0014604)
(0 0 0.00141493)
(0 0 0.00136937)
(0 0 0.00132371)
(0 0 0.00127797)
(0 0 0.00123215)
(0 0 0.00118626)
(0 0 0.00114029)
(0 0 0.00109425)
(0 0 0.00104815)
(0 0 0.00100198)
(0 0 0.000955758)
(0 0 0.000909477)
(0 0 0.000863143)
(0 0 0.000816759)
(0 0 0.000770329)
(0 0 0.000723855)
(0 0 0.00067734)
(0 0 0.000630788)
(0 0 0.0005842)
(0 0 0.000537581)
(0 0 0.000490932)
(0 0 0.000444256)
(0 0 0.000397557)
(0 0 0.000350835)
(0 0 0.000304095)
(0 0 0.000257339)
(0 0 0.000210569)
(0 0 0.000163787)
(0 0 0.000116997)
(0 0 7.02008e-05)
(0 0 2.34007e-05)
(0 0 4.40743e-05)
(0 0 0.000132221)
(0 0 0.00022036)
(0 0 0.000308486)
(0 0 0.000396594)
(0 0 0.000484679)
(0 0 0.000572735)
(0 0 0.000660756)
(0 0 0.000748737)
(0 0 0.000836673)
(0 0 0.000924558)
(0 0 0.00101238)
(0 0 0.00110015)
(0 0 0.00118784)
(0 0 0.00127546)
(0 0 0.00136299)
(0 0 0.00145044)
(0 0 0.00153779)
(0 0 0.00162504)
(0 0 0.00171217)
(0 0 0.00179919)
(0 0 0.00188608)
(0 0 0.00197284)
(0 0 0.00205945)
(0 0 0.00214591)
(0 0 0.00223221)
(0 0 0.00231834)
(0 0 0.00240429)
(0 0 0.00249005)
(0 0 0.00257562)
(0 0 0.00266097)
(0 0 0.0027461)
(0 0 0.00283099)
(0 0 0.00291565)
(0 0 0.00300004)
(0 0 0.00308417)
(0 0 0.00316802)
(0 0 0.00325157)
(0 0 0.00333482)
(0 0 0.00341774)
(0 0 0.00350033)
(0 0 0.00358256)
(0 0 0.00366444)
(0 0 0.00374593)
(0 0 0.00382703)
(0 0 0.00390772)
(0 0 0.00398798)
(0 0 0.00406779)
(0 0 0.00414714)
(0 0 0.00422602)
(0 0 0.0043044)
(0 0 0.00438227)
(0 0 0.0044596)
(0 0 0.00453639)
(0 0 0.00461261)
(0 0 0.00468824)
(0 0 0.00476326)
(0 0 0.00483766)
(0 0 0.00491141)
(0 0 0.0049845)
(0 0 0.0050569)
(0 0 0.0051286)
(0 0 0.00519958)
(0 0 0.00526981)
(0 0 0.00533927)
(0 0 0.00540795)
(0 0 0.00547582)
(0 0 0.00554287)
(0 0 0.00560906)
(0 0 0.00567439)
(0 0 0.00573884)
(0 0 0.00580237)
(0 0 0.00586498)
(0 0 0.00592664)
(0 0 0.00598733)
(0 0 0.00604704)
(0 0 0.00610574)
(0 0 0.00616341)
(0 0 0.00622004)
(0 0 0.0062756)
(0 0 0.00633008)
(0 0 0.00638346)
(0 0 0.00643572)
(0 0 0.00648685)
(0 0 0.00653683)
(0 0 0.00658564)
(0 0 0.00663326)
(0 0 0.00667969)
(0 0 0.0067249)
(0 0 0.00676888)
(0 0 0.00681162)
(0 0 0.0068531)
(0 0 0.00689332)
(0 0 0.00693225)
(0 0 0.00696989)
(0 0 0.00700623)
(0 0 0.00704125)
(0 0 0.00707495)
(0 0 0.00710731)
(0 0 0.00713833)
(0 0 0.00716801)
(0 0 0.00719633)
(0 0 0.00722328)
(0 0 0.00724887)
(0 0 0.00727308)
(0 0 0.00729591)
(0 0 0.00731736)
(0 0 0.00733743)
(0 0 0.00735611)
(0 0 0.0073734)
(0 0 0.0073893)
(0 0 0.00740381)
(0 0 0.00741693)
(0 0 0.00742866)
(0 0 0.007439)
(0 0 0.00744796)
(0 0 0.00745553)
(0 0 0.00746172)
(0 0 0.00746653)
(0 0 0.00746998)
(0 0 0.00747206)
(0 0 0.00747277)
(0 0 0.00747213)
(0 0 0.00747014)
(0 0 0.00746681)
(0 0 0.00746215)
(0 0 0.00745616)
(0 0 0.00744885)
(0 0 0.00744023)
(0 0 0.00743031)
(0 0 0.0074191)
(0 0 0.00740661)
(0 0 0.00739285)
(0 0 0.00737783)
(0 0 0.00736156)
(0 0 0.00734405)
(0 0 0.00732532)
(0 0 0.00730537)
(0 0 0.00728422)
(0 0 0.00726188)
(0 0 0.00723836)
(0 0 0.00721367)
(0 0 0.00718783)
(0 0 0.00716086)
(0 0 0.00713275)
(0 0 0.00710353)
(0 0 0.00707322)
(0 0 0.00704181)
(0 0 0.00700934)
(0 0 0.0069758)
(0 0 0.00694122)
(0 0 0.0069056)
(0 0 0.00686897)
(0 0 0.00683134)
(0 0 0.00679272)
(0 0 0.00675312)
(0 0 0.00671256)
(0 0 0.00667105)
(0 0 0.00662861)
(0 0 0.00658525)
(0 0 0.00654099)
(0 0 0.00649583)
(0 0 0.0064498)
(0 0 0.00640291)
(0 0 0.00635517)
(0 0 0.00630659)
(0 0 0.0062572)
(0 0 0.006207)
(0 0 0.00615601)
(0 0 0.00610424)
(0 0 0.00605171)
(0 0 0.00599843)
(0 0 0.00594441)
(0 0 0.00588967)
(0 0 0.00583422)
(0 0 0.00577808)
(0 0 0.00572125)
(0 0 0.00566376)
(0 0 0.00560561)
(0 0 0.00554683)
(0 0 0.00548741)
(0 0 0.00542738)
(0 0 0.00536676)
(0 0 0.00530554)
(0 0 0.00524375)
(0 0 0.00518139)
(0 0 0.00511849)
(0 0 0.00505505)
(0 0 0.00499108)
(0 0 0.00492661)
(0 0 0.00486163)
(0 0 0.00479617)
(0 0 0.00473023)
(0 0 0.00466382)
(0 0 0.00459697)
(0 0 0.00452968)
(0 0 0.00446195)
(0 0 0.00439382)
(0 0 0.00432527)
(0 0 0.00425633)
(0 0 0.00418701)
(0 0 0.00411732)
(0 0 0.00404726)
(0 0 0.00397685)
(0 0 0.0039061)
(0 0 0.00383502)
(0 0 0.00376362)
(0 0 0.00369191)
(0 0 0.0036199)
(0 0 0.0035476)
(0 0 0.00347501)
(0 0 0.00340216)
(0 0 0.00332904)
(0 0 0.00325566)
(0 0 0.00318204)
(0 0 0.00310818)
(0 0 0.00303409)
(0 0 0.00295979)
(0 0 0.00288526)
(0 0 0.00281054)
(0 0 0.00273562)
(0 0 0.00266051)
(0 0 0.00258522)
(0 0 0.00250975)
(0 0 0.00243412)
(0 0 0.00235832)
(0 0 0.00228238)
(0 0 0.00220628)
(0 0 0.00213005)
(0 0 0.00205368)
(0 0 0.00197718)
(0 0 0.00190056)
(0 0 0.00182383)
(0 0 0.00174699)
(0 0 0.00167004)
(0 0 0.00159299)
(0 0 0.00151586)
(0 0 0.00143863)
(0 0 0.00136132)
(0 0 0.00128393)
(0 0 0.00120647)
(0 0 0.00112894)
(0 0 0.00105135)
(0 0 0.000973704)
(0 0 0.000896002)
(0 0 0.00081825)
(0 0 0.000740455)
(0 0 0.000662619)
(0 0 0.000584747)
(0 0 0.000506844)
(0 0 0.000428914)
(0 0 0.000350961)
(0 0 0.000272989)
(0 0 0.000195002)
(0 0 0.000117006)
(0 0 3.90026e-05)
(0 0 6.17078e-05)
(0 0 0.00018512)
(0 0 0.000308522)
(0 0 0.000431906)
(0 0 0.000555265)
(0 0 0.000678591)
(0 0 0.000801877)
(0 0 0.000925115)
(0 0 0.0010483)
(0 0 0.00117142)
(0 0 0.00129446)
(0 0 0.00141743)
(0 0 0.00154031)
(0 0 0.00166309)
(0 0 0.00178576)
(0 0 0.00190832)
(0 0 0.00203075)
(0 0 0.00215305)
(0 0 0.00227521)
(0 0 0.00239721)
(0 0 0.00251905)
(0 0 0.0026407)
(0 0 0.00276217)
(0 0 0.00288345)
(0 0 0.0030045)
(0 0 0.00312534)
(0 0 0.00324593)
(0 0 0.00336628)
(0 0 0.00348636)
(0 0 0.00360616)
(0 0 0.00372567)
(0 0 0.00384487)
(0 0 0.00396374)
(0 0 0.00408227)
(0 0 0.00420044)
(0 0 0.00431824)
(0 0 0.00443564)
(0 0 0.00455264)
(0 0 0.0046692)
(0 0 0.00478531)
(0 0 0.00490095)
(0 0 0.00501611)
(0 0 0.00513075)
(0 0 0.00524487)
(0 0 0.00535842)
(0 0 0.00547141)
(0 0 0.00558379)
(0 0 0.00569556)
(0 0 0.00580668)
(0 0 0.00591713)
(0 0 0.00602689)
(0 0 0.00613593)
(0 0 0.00624422)
(0 0 0.00635175)
(0 0 0.00645848)
(0 0 0.00656439)
(0 0 0.00666945)
(0 0 0.00677364)
(0 0 0.00687692)
(0 0 0.00697927)
(0 0 0.00708066)
(0 0 0.00718107)
(0 0 0.00728046)
(0 0 0.00737881)
(0 0 0.00747609)
(0 0 0.00757227)
(0 0 0.00766732)
(0 0 0.00776121)
(0 0 0.00785391)
(0 0 0.00794541)
(0 0 0.00803566)
(0 0 0.00812463)
(0 0 0.00821231)
(0 0 0.00829867)
(0 0 0.00838366)
(0 0 0.00846728)
(0 0 0.00854948)
(0 0 0.00863025)
(0 0 0.00870955)
(0 0 0.00878736)
(0 0 0.00886366)
(0 0 0.00893842)
(0 0 0.00901161)
(0 0 0.00908322)
(0 0 0.00915321)
(0 0 0.00922156)
(0 0 0.00928826)
(0 0 0.00935328)
(0 0 0.00941659)
(0 0 0.00947819)
(0 0 0.00953804)
(0 0 0.00959614)
(0 0 0.00965245)
(0 0 0.00970697)
(0 0 0.00975969)
(0 0 0.00981057)
(0 0 0.00985962)
(0 0 0.00990681)
(0 0 0.00995213)
(0 0 0.00999557)
(0 0 0.0100371)
(0 0 0.0100768)
(0 0 0.0101145)
(0 0 0.0101504)
(0 0 0.0101843)
(0 0 0.0102162)
(0 0 0.0102463)
(0 0 0.0102744)
(0 0 0.0103005)
(0 0 0.0103247)
(0 0 0.010347)
(0 0 0.0103673)
(0 0 0.0103857)
(0 0 0.0104021)
(0 0 0.0104166)
(0 0 0.0104291)
(0 0 0.0104397)
(0 0 0.0104483)
(0 0 0.0104551)
(0 0 0.0104599)
(0 0 0.0104628)
(0 0 0.0104638)
(0 0 0.0104629)
(0 0 0.0104601)
(0 0 0.0104554)
(0 0 0.0104489)
(0 0 0.0104405)
(0 0 0.0104302)
(0 0 0.0104182)
(0 0 0.0104043)
(0 0 0.0103885)
(0 0 0.010371)
(0 0 0.0103518)
(0 0 0.0103307)
(0 0 0.0103079)
(0 0 0.0102834)
(0 0 0.0102572)
(0 0 0.0102292)
(0 0 0.0101996)
(0 0 0.0101683)
(0 0 0.0101353)
(0 0 0.0101008)
(0 0 0.0100646)
(0 0 0.0100268)
(0 0 0.00998743)
(0 0 0.0099465)
(0 0 0.00990404)
(0 0 0.00986005)
(0 0 0.00981457)
(0 0 0.0097676)
(0 0 0.00971916)
(0 0 0.00966928)
(0 0 0.00961798)
(0 0 0.00956528)
(0 0 0.00951118)
(0 0 0.00945572)
(0 0 0.00939892)
(0 0 0.00934079)
(0 0 0.00928135)
(0 0 0.00922063)
(0 0 0.00915864)
(0 0 0.0090954)
(0 0 0.00903094)
(0 0 0.00896527)
(0 0 0.00889841)
(0 0 0.00883039)
(0 0 0.00876122)
(0 0 0.00869092)
(0 0 0.00861951)
(0 0 0.00854702)
(0 0 0.00847345)
(0 0 0.00839884)
(0 0 0.00832319)
(0 0 0.00824654)
(0 0 0.00816889)
(0 0 0.00809027)
(0 0 0.0080107)
(0 0 0.00793019)
(0 0 0.00784877)
(0 0 0.00776645)
(0 0 0.00768325)
(0 0 0.00759919)
(0 0 0.00751429)
(0 0 0.00742857)
(0 0 0.00734204)
(0 0 0.00725473)
(0 0 0.00716665)
(0 0 0.00707781)
(0 0 0.00698824)
(0 0 0.00689796)
(0 0 0.00680697)
(0 0 0.00671531)
(0 0 0.00662298)
(0 0 0.00653)
(0 0 0.00643638)
(0 0 0.00634216)
(0 0 0.00624733)
(0 0 0.00615192)
(0 0 0.00605594)
(0 0 0.00595941)
(0 0 0.00586235)
(0 0 0.00576476)
(0 0 0.00566666)
(0 0 0.00556808)
(0 0 0.00546901)
(0 0 0.00536949)
(0 0 0.00526951)
(0 0 0.00516911)
(0 0 0.00506828)
(0 0 0.00496704)
(0 0 0.00486541)
(0 0 0.00476339)
(0 0 0.00466101)
(0 0 0.00455827)
(0 0 0.00445519)
(0 0 0.00435178)
(0 0 0.00424805)
(0 0 0.004144)
(0 0 0.00403966)
(0 0 0.00393504)
(0 0 0.00383014)
(0 0 0.00372497)
(0 0 0.00361955)
(0 0 0.00351389)
(0 0 0.00340799)
(0 0 0.00330187)
(0 0 0.00319554)
(0 0 0.003089)
(0 0 0.00298226)
(0 0 0.00287533)
(0 0 0.00276823)
(0 0 0.00266096)
(0 0 0.00255352)
(0 0 0.00244593)
(0 0 0.0023382)
(0 0 0.00223033)
(0 0 0.00212232)
(0 0 0.0020142)
(0 0 0.00190596)
(0 0 0.00179761)
(0 0 0.00168916)
(0 0 0.00158061)
(0 0 0.00147198)
(0 0 0.00136326)
(0 0 0.00125447)
(0 0 0.00114561)
(0 0 0.00103669)
(0 0 0.000927717)
(0 0 0.000818691)
(0 0 0.000709621)
(0 0 0.000600512)
(0 0 0.000491372)
(0 0 0.000382205)
(0 0 0.000273018)
(0 0 0.000163817)
(0 0 5.46066e-05)
(0 0 7.93451e-05)
(0 0 0.000238031)
(0 0 0.000396703)
(0 0 0.000555353)
(0 0 0.00071397)
(0 0 0.000872546)
(0 0 0.00103107)
(0 0 0.00118953)
(0 0 0.00134792)
(0 0 0.00150623)
(0 0 0.00166445)
(0 0 0.00182256)
(0 0 0.00198056)
(0 0 0.00213844)
(0 0 0.00229618)
(0 0 0.00245377)
(0 0 0.00261121)
(0 0 0.00276847)
(0 0 0.00292554)
(0 0 0.00308242)
(0 0 0.00323908)
(0 0 0.00339552)
(0 0 0.00355172)
(0 0 0.00370766)
(0 0 0.00386333)
(0 0 0.00401871)
(0 0 0.00417378)
(0 0 0.00432854)
(0 0 0.00448295)
(0 0 0.00463701)
(0 0 0.00479068)
(0 0 0.00494397)
(0 0 0.00509683)
(0 0 0.00524925)
(0 0 0.00540122)
(0 0 0.00555271)
(0 0 0.00570368)
(0 0 0.00585414)
(0 0 0.00600404)
(0 0 0.00615336)
(0 0 0.00630208)
(0 0 0.00645017)
(0 0 0.00659761)
(0 0 0.00674436)
(0 0 0.0068904)
(0 0 0.00703571)
(0 0 0.00718024)
(0 0 0.00732398)
(0 0 0.00746689)
(0 0 0.00760894)
(0 0 0.0077501)
(0 0 0.00789034)
(0 0 0.00802962)
(0 0 0.00816792)
(0 0 0.00830519)
(0 0 0.0084414)
(0 0 0.00857653)
(0 0 0.00871052)
(0 0 0.00884336)
(0 0 0.00897501)
(0 0 0.00910542)
(0 0 0.00923456)
(0 0 0.0093624)
(0 0 0.0094889)
(0 0 0.00961402)
(0 0 0.00973772)
(0 0 0.00985998)
(0 0 0.00998075)
(0 0 0.0101)
(0 0 0.0102177)
(0 0 0.0103338)
(0 0 0.0104482)
(0 0 0.010561)
(0 0 0.0106721)
(0 0 0.0107814)
(0 0 0.0108889)
(0 0 0.0109947)
(0 0 0.0110986)
(0 0 0.0112006)
(0 0 0.0113007)
(0 0 0.0113988)
(0 0 0.011495)
(0 0 0.0115891)
(0 0 0.0116812)
(0 0 0.0117712)
(0 0 0.0118592)
(0 0 0.011945)
(0 0 0.0120286)
(0 0 0.01211)
(0 0 0.0121892)
(0 0 0.0122662)
(0 0 0.012341)
(0 0 0.0124134)
(0 0 0.0124835)
(0 0 0.0125513)
(0 0 0.0126168)
(0 0 0.0126798)
(0 0 0.0127405)
(0 0 0.0127988)
(0 0 0.0128547)
(0 0 0.0129082)
(0 0 0.0129592)
(0 0 0.0130077)
(0 0 0.0130538)
(0 0 0.0130974)
(0 0 0.0131385)
(0 0 0.0131771)
(0 0 0.0132132)
(0 0 0.0132469)
(0 0 0.013278)
(0 0 0.0133066)
(0 0 0.0133327)
(0 0 0.0133564)
(0 0 0.0133775)
(0 0 0.0133961)
(0 0 0.0134122)
(0 0 0.0134258)
(0 0 0.0134369)
(0 0 0.0134456)
(0 0 0.0134517)
(0 0 0.0134555)
(0 0 0.0134567)
(0 0 0.0134555)
(0 0 0.0134519)
(0 0 0.0134459)
(0 0 0.0134375)
(0 0 0.0134267)
(0 0 0.0134135)
(0 0 0.0133979)
(0 0 0.01338)
(0 0 0.0133598)
(0 0 0.0133373)
(0 0 0.0133125)
(0 0 0.0132854)
(0 0 0.013256)
(0 0 0.0132245)
(0 0 0.0131907)
(0 0 0.0131548)
(0 0 0.0131166)
(0 0 0.0130764)
(0 0 0.013034)
(0 0 0.0129895)
(0 0 0.0129429)
(0 0 0.0128943)
(0 0 0.0128437)
(0 0 0.012791)
(0 0 0.0127364)
(0 0 0.0126798)
(0 0 0.0126213)
(0 0 0.0125609)
(0 0 0.0124986)
(0 0 0.0124344)
(0 0 0.0123684)
(0 0 0.0123006)
(0 0 0.012231)
(0 0 0.0121597)
(0 0 0.0120866)
(0 0 0.0120118)
(0 0 0.0119354)
(0 0 0.0118573)
(0 0 0.0117776)
(0 0 0.0116962)
(0 0 0.0116133)
(0 0 0.0115288)
(0 0 0.0114428)
(0 0 0.0113553)
(0 0 0.0112664)
(0 0 0.011176)
(0 0 0.0110841)
(0 0 0.0109909)
(0 0 0.0108963)
(0 0 0.0108003)
(0 0 0.010703)
(0 0 0.0106044)
(0 0 0.0105045)
(0 0 0.0104034)
(0 0 0.0103011)
(0 0 0.0101975)
(0 0 0.0100928)
(0 0 0.00998696)
(0 0 0.00987996)
(0 0 0.00977185)
(0 0 0.00966266)
(0 0 0.00955242)
(0 0 0.00944114)
(0 0 0.00932884)
(0 0 0.00921556)
(0 0 0.00910132)
(0 0 0.00898613)
(0 0 0.00887002)
(0 0 0.00875301)
(0 0 0.00863512)
(0 0 0.00851638)
(0 0 0.00839681)
(0 0 0.00827642)
(0 0 0.00815524)
(0 0 0.0080333)
(0 0 0.0079106)
(0 0 0.00778717)
(0 0 0.00766304)
(0 0 0.00753821)
(0 0 0.00741271)
(0 0 0.00728657)
(0 0 0.00715979)
(0 0 0.0070324)
(0 0 0.00690441)
(0 0 0.00677585)
(0 0 0.00664673)
(0 0 0.00651707)
(0 0 0.00638688)
(0 0 0.00625619)
(0 0 0.00612501)
(0 0 0.00599335)
(0 0 0.00586124)
(0 0 0.00572869)
(0 0 0.0055957)
(0 0 0.00546231)
(0 0 0.00532852)
(0 0 0.00519435)
(0 0 0.00505982)
(0 0 0.00492493)
(0 0 0.00478969)
(0 0 0.00465414)
(0 0 0.00451827)
(0 0 0.0043821)
(0 0 0.00424564)
(0 0 0.00410891)
(0 0 0.00397191)
(0 0 0.00383466)
(0 0 0.00369717)
(0 0 0.00355945)
(0 0 0.00342151)
(0 0 0.00328337)
(0 0 0.00314503)
(0 0 0.0030065)
(0 0 0.00286779)
(0 0 0.00272892)
(0 0 0.00258989)
(0 0 0.00245071)
(0 0 0.00231139)
(0 0 0.00217194)
(0 0 0.00203237)
(0 0 0.00189269)
(0 0 0.0017529)
(0 0 0.00161301)
(0 0 0.00147304)
(0 0 0.00133299)
(0 0 0.00119287)
(0 0 0.00105268)
(0 0 0.000912436)
(0 0 0.000772143)
(0 0 0.00063181)
(0 0 0.000491442)
(0 0 0.000351049)
(0 0 0.000210637)
(0 0 7.02135e-05)
(0 0 9.69872e-05)
(0 0 0.000290956)
(0 0 0.000484909)
(0 0 0.000678834)
(0 0 0.000872719)
(0 0 0.00106655)
(0 0 0.00126033)
(0 0 0.00145402)
(0 0 0.00164763)
(0 0 0.00184114)
(0 0 0.00203454)
(0 0 0.00222781)
(0 0 0.00242095)
(0 0 0.00261393)
(0 0 0.00280675)
(0 0 0.00299939)
(0 0 0.00319183)
(0 0 0.00338407)
(0 0 0.00357607)
(0 0 0.00376784)
(0 0 0.00395935)
(0 0 0.00415058)
(0 0 0.00434152)
(0 0 0.00453215)
(0 0 0.00472244)
(0 0 0.00491239)
(0 0 0.00510196)
(0 0 0.00529114)
(0 0 0.0054799)
(0 0 0.00566823)
(0 0 0.0058561)
(0 0 0.00604349)
(0 0 0.00623037)
(0 0 0.00641671)
(0 0 0.00660249)
(0 0 0.00678768)
(0 0 0.00697226)
(0 0 0.0071562)
(0 0 0.00733946)
(0 0 0.00752201)
(0 0 0.00770384)
(0 0 0.00788489)
(0 0 0.00806515)
(0 0 0.00824457)
(0 0 0.00842313)
(0 0 0.00860078)
(0 0 0.0087775)
(0 0 0.00895324)
(0 0 0.00912797)
(0 0 0.00930165)
(0 0 0.00947425)
(0 0 0.00964572)
(0 0 0.00981602)
(0 0 0.00998511)
(0 0 0.010153)
(0 0 0.0103195)
(0 0 0.0104847)
(0 0 0.0106486)
(0 0 0.010811)
(0 0 0.010972)
(0 0 0.0111314)
(0 0 0.0112894)
(0 0 0.0114457)
(0 0 0.0116004)
(0 0 0.0117534)
(0 0 0.0119046)
(0 0 0.0120541)
(0 0 0.0122018)
(0 0 0.0123476)
(0 0 0.0124915)
(0 0 0.0126335)
(0 0 0.0127735)
(0 0 0.0129114)
(0 0 0.0130472)
(0 0 0.0131809)
(0 0 0.0133124)
(0 0 0.0134417)
(0 0 0.0135688)
(0 0 0.0136935)
(0 0 0.0138159)
(0 0 0.0139359)
(0 0 0.0140535)
(0 0 0.0141687)
(0 0 0.0142813)
(0 0 0.0143914)
(0 0 0.0144989)
(0 0 0.0146038)
(0 0 0.0147061)
(0 0 0.0148057)
(0 0 0.0149026)
(0 0 0.0149967)
(0 0 0.0150881)
(0 0 0.0151767)
(0 0 0.0152624)
(0 0 0.0153453)
(0 0 0.0154254)
(0 0 0.0155025)
(0 0 0.0155767)
(0 0 0.015648)
(0 0 0.0157163)
(0 0 0.0157816)
(0 0 0.015844)
(0 0 0.0159034)
(0 0 0.0159597)
(0 0 0.016013)
(0 0 0.0160633)
(0 0 0.0161105)
(0 0 0.0161547)
(0 0 0.0161958)
(0 0 0.0162338)
(0 0 0.0162688)
(0 0 0.0163007)
(0 0 0.0163296)
(0 0 0.0163554)
(0 0 0.0163781)
(0 0 0.0163978)
(0 0 0.0164144)
(0 0 0.016428)
(0 0 0.0164385)
(0 0 0.0164461)
(0 0 0.0164506)
(0 0 0.0164521)
(0 0 0.0164507)
(0 0 0.0164462)
(0 0 0.0164388)
(0 0 0.0164285)
(0 0 0.0164152)
(0 0 0.0163991)
(0 0 0.01638)
(0 0 0.0163581)
(0 0 0.0163334)
(0 0 0.0163058)
(0 0 0.0162754)
(0 0 0.0162423)
(0 0 0.0162064)
(0 0 0.0161678)
(0 0 0.0161265)
(0 0 0.0160825)
(0 0 0.0160358)
(0 0 0.0159866)
(0 0 0.0159347)
(0 0 0.0158803)
(0 0 0.0158234)
(0 0 0.0157639)
(0 0 0.0157019)
(0 0 0.0156375)
(0 0 0.0155707)
(0 0 0.0155015)
(0 0 0.0154299)
(0 0 0.015356)
(0 0 0.0152798)
(0 0 0.0152014)
(0 0 0.0151207)
(0 0 0.0150377)
(0 0 0.0149526)
(0 0 0.0148654)
(0 0 0.014776)
(0 0 0.0146846)
(0 0 0.0145911)
(0 0 0.0144956)
(0 0 0.0143981)
(0 0 0.0142986)
(0 0 0.0141972)
(0 0 0.0140939)
(0 0 0.0139888)
(0 0 0.0138818)
(0 0 0.013773)
(0 0 0.0136624)
(0 0 0.0135501)
(0 0 0.0134361)
(0 0 0.0133204)
(0 0 0.0132031)
(0 0 0.0130841)
(0 0 0.0129636)
(0 0 0.0128415)
(0 0 0.0127178)
(0 0 0.0125927)
(0 0 0.0124661)
(0 0 0.0123381)
(0 0 0.0122086)
(0 0 0.0120778)
(0 0 0.0119456)
(0 0 0.0118121)
(0 0 0.0116773)
(0 0 0.0115413)
(0 0 0.011404)
(0 0 0.0112655)
(0 0 0.0111258)
(0 0 0.0109849)
(0 0 0.010843)
(0 0 0.0106999)
(0 0 0.0105558)
(0 0 0.0104106)
(0 0 0.0102644)
(0 0 0.0101173)
(0 0 0.00996911)
(0 0 0.00982002)
(0 0 0.00967002)
(0 0 0.00951912)
(0 0 0.00936736)
(0 0 0.00921475)
(0 0 0.00906133)
(0 0 0.00890711)
(0 0 0.00875212)
(0 0 0.00859638)
(0 0 0.00843992)
(0 0 0.00828275)
(0 0 0.0081249)
(0 0 0.00796639)
(0 0 0.00780724)
(0 0 0.00764747)
(0 0 0.0074871)
(0 0 0.00732616)
(0 0 0.00716465)
(0 0 0.00700261)
(0 0 0.00684005)
(0 0 0.00667698)
(0 0 0.00651343)
(0 0 0.00634942)
(0 0 0.00618495)
(0 0 0.00602006)
(0 0 0.00585475)
(0 0 0.00568904)
(0 0 0.00552295)
(0 0 0.0053565)
(0 0 0.00518969)
(0 0 0.00502255)
(0 0 0.00485508)
(0 0 0.00468731)
(0 0 0.00451924)
(0 0 0.00435089)
(0 0 0.00418228)
(0 0 0.00401342)
(0 0 0.00384431)
(0 0 0.00367498)
(0 0 0.00350543)
(0 0 0.00333567)
(0 0 0.00316573)
(0 0 0.0029956)
(0 0 0.0028253)
(0 0 0.00265485)
(0 0 0.00248424)
(0 0 0.0023135)
(0 0 0.00214263)
(0 0 0.00197164)
(0 0 0.00180055)
(0 0 0.00162936)
(0 0 0.00145808)
(0 0 0.00128673)
(0 0 0.0011153)
(0 0 0.000943816)
(0 0 0.000772281)
(0 0 0.000600706)
(0 0 0.000429098)
(0 0 0.000257468)
(0 0 8.58242e-05)
(0 0 0.000114635)
(0 0 0.000343899)
(0 0 0.000573143)
(0 0 0.000802355)
(0 0 0.00103152)
(0 0 0.00126063)
(0 0 0.00148966)
(0 0 0.0017186)
(0 0 0.00194744)
(0 0 0.00217617)
(0 0 0.00240476)
(0 0 0.0026332)
(0 0 0.00286149)
(0 0 0.00308959)
(0 0 0.0033175)
(0 0 0.0035452)
(0 0 0.00377267)
(0 0 0.0039999)
(0 0 0.00422685)
(0 0 0.00445353)
(0 0 0.0046799)
(0 0 0.00490594)
(0 0 0.00513164)
(0 0 0.00535697)
(0 0 0.00558191)
(0 0 0.00580644)
(0 0 0.00603053)
(0 0 0.00625416)
(0 0 0.0064773)
(0 0 0.00669993)
(0 0 0.00692201)
(0 0 0.00714353)
(0 0 0.00736444)
(0 0 0.00758473)
(0 0 0.00780435)
(0 0 0.00802328)
(0 0 0.00824149)
(0 0 0.00845894)
(0 0 0.00867559)
(0 0 0.00889142)
(0 0 0.00910637)
(0 0 0.00932042)
(0 0 0.00953353)
(0 0 0.00974566)
(0 0 0.00995676)
(0 0 0.0101668)
(0 0 0.0103757)
(0 0 0.0105835)
(0 0 0.0107901)
(0 0 0.0109955)
(0 0 0.0111995)
(0 0 0.0114023)
(0 0 0.0116036)
(0 0 0.0118036)
(0 0 0.012002)
(0 0 0.012199)
(0 0 0.0123943)
(0 0 0.0125881)
(0 0 0.0127801)
(0 0 0.0129705)
(0 0 0.013159)
(0 0 0.0133458)
(0 0 0.0135306)
(0 0 0.0137135)
(0 0 0.0138945)
(0 0 0.0140733)
(0 0 0.0142501)
(0 0 0.0144248)
(0 0 0.0145972)
(0 0 0.0147674)
(0 0 0.0149353)
(0 0 0.0151008)
(0 0 0.0152639)
(0 0 0.0154245)
(0 0 0.0155826)
(0 0 0.0157381)
(0 0 0.0158911)
(0 0 0.0160413)
(0 0 0.0161888)
(0 0 0.0163336)
(0 0 0.0164755)
(0 0 0.0166146)
(0 0 0.0167507)
(0 0 0.0168839)
(0 0 0.0170141)
(0 0 0.0171413)
(0 0 0.0172653)
(0 0 0.0173863)
(0 0 0.0175041)
(0 0 0.0176186)
(0 0 0.01773)
(0 0 0.017838)
(0 0 0.0179428)
(0 0 0.0180442)
(0 0 0.0181422)
(0 0 0.0182368)
(0 0 0.0183281)
(0 0 0.0184158)
(0 0 0.0185001)
(0 0 0.0185809)
(0 0 0.0186581)
(0 0 0.0187319)
(0 0 0.018802)
(0 0 0.0188686)
(0 0 0.0189317)
(0 0 0.0189911)
(0 0 0.0190469)
(0 0 0.0190991)
(0 0 0.0191477)
(0 0 0.0191927)
(0 0 0.019234)
(0 0 0.0192718)
(0 0 0.0193059)
(0 0 0.0193363)
(0 0 0.0193632)
(0 0 0.0193864)
(0 0 0.0194061)
(0 0 0.0194221)
(0 0 0.0194346)
(0 0 0.0194434)
(0 0 0.0194487)
(0 0 0.0194505)
(0 0 0.0194487)
(0 0 0.0194435)
(0 0 0.0194347)
(0 0 0.0194224)
(0 0 0.0194067)
(0 0 0.0193876)
(0 0 0.019365)
(0 0 0.0193391)
(0 0 0.0193098)
(0 0 0.0192772)
(0 0 0.0192412)
(0 0 0.019202)
(0 0 0.0191595)
(0 0 0.0191138)
(0 0 0.0190649)
(0 0 0.0190129)
(0 0 0.0189577)
(0 0 0.0188994)
(0 0 0.0188381)
(0 0 0.0187737)
(0 0 0.0187063)
(0 0 0.018636)
(0 0 0.0185627)
(0 0 0.0184865)
(0 0 0.0184075)
(0 0 0.0183256)
(0 0 0.0182409)
(0 0 0.0181535)
(0 0 0.0180634)
(0 0 0.0179706)
(0 0 0.0178751)
(0 0 0.0177771)
(0 0 0.0176764)
(0 0 0.0175732)
(0 0 0.0174676)
(0 0 0.0173594)
(0 0 0.0172489)
(0 0 0.0171359)
(0 0 0.0170206)
(0 0 0.016903)
(0 0 0.0167831)
(0 0 0.0166609)
(0 0 0.0165366)
(0 0 0.0164101)
(0 0 0.0162814)
(0 0 0.0161507)
(0 0 0.0160179)
(0 0 0.0158831)
(0 0 0.0157463)
(0 0 0.0156075)
(0 0 0.0154668)
(0 0 0.0153243)
(0 0 0.0151799)
(0 0 0.0150337)
(0 0 0.0148858)
(0 0 0.0147361)
(0 0 0.0145847)
(0 0 0.0144317)
(0 0 0.014277)
(0 0 0.0141207)
(0 0 0.0139629)
(0 0 0.0138035)
(0 0 0.0136426)
(0 0 0.0134803)
(0 0 0.0133166)
(0 0 0.0131514)
(0 0 0.0129849)
(0 0 0.0128171)
(0 0 0.0126479)
(0 0 0.0124775)
(0 0 0.0123059)
(0 0 0.0121331)
(0 0 0.0119591)
(0 0 0.0117839)
(0 0 0.0116077)
(0 0 0.0114303)
(0 0 0.011252)
(0 0 0.0110725)
(0 0 0.0108921)
(0 0 0.0107108)