/*--------------------------------*- C++ -*----------------------------------*\
| =========                 |                                                 |
| \\      /  F ield         | OpenFOAM: The Open Source CFD Toolbox           |
|  \\    /   O peration     | Version:  v2012                                 |
|   \\  /    A nd           | Website:  www.openfoam.com                      |
|    \\/     M anipulation  |                                                 |
\*---------------------------------------------------------------------------*/
FoamFile
{
    version     2.0;
    format      ascii;
    class       volVectorField;
    location    "3";
    object      U;
}
// * * * * * * * * * * * * * * * * * * * * * * * * * * * * * * * * * * * * * //

dimensions      [0 1 -1 0 0 0 0];


internalField   nonuniform List<vector> 
65536
(
(0.00071823 -0.000718239 0)
(0.00215466 -0.000718206 0)
(0.00359103 -0.000718115 0)
(0.00502718 -0.000717988 0)
(0.00646301 -0.000717819 0)
(0.00789846 -0.000717604 0)
(0.00933344 -0.000717346 0)
(0.0107679 -0.000717042 0)
(0.0122016 -0.000716692 0)
(0.0136347 -0.000716295 0)
(0.0150668 -0.000715851 0)
(0.0164981 -0.000715358 0)
(0.0179283 -0.000714815 0)
(0.0193574 -0.000714221 0)
(0.0207852 -0.000713575 0)
(0.0222117 -0.000712874 0)
(0.0236367 -0.000712117 0)
(0.0250602 -0.000711302 0)
(0.026482 -0.000710428 0)
(0.0279019 -0.000709493 0)
(0.02932 -0.000708494 0)
(0.030736 -0.00070743 0)
(0.0321497 -0.000706298 0)
(0.0335612 -0.000705096 0)
(0.0349702 -0.000703821 0)
(0.0363765 -0.000702473 0)
(0.0377801 -0.000701047 0)
(0.0391808 -0.000699541 0)
(0.0405783 -0.000697953 0)
(0.0419726 -0.000696281 0)
(0.0433635 -0.00069452 0)
(0.0447508 -0.000692669 0)
(0.0461342 -0.000690725 0)
(0.0475137 -0.000688685 0)
(0.0488891 -0.000686546 0)
(0.05026 -0.000684305 0)
(0.0516264 -0.00068196 0)
(0.0529879 -0.000679506 0)
(0.0543445 -0.000676942 0)
(0.0556958 -0.000674265 0)
(0.0570416 -0.000671471 0)
(0.0583817 -0.000668558 0)
(0.0597159 -0.000665522 0)
(0.0610439 -0.000662362 0)
(0.0623655 -0.000659074 0)
(0.0636803 -0.000655656 0)
(0.0649882 -0.000652104 0)
(0.0662888 -0.000648417 0)
(0.067582 -0.00064459 0)
(0.0688673 -0.000640623 0)
(0.0701446 -0.000636512 0)
(0.0714135 -0.000632254 0)
(0.0726737 -0.000627848 0)
(0.073925 -0.000623291 0)
(0.075167 -0.000618582 0)
(0.0763994 -0.000613718 0)
(0.077622 -0.000608698 0)
(0.0788344 -0.00060352 0)
(0.0800362 -0.000598183 0)
(0.0812272 -0.000592685 0)
(0.0824071 -0.000587024 0)
(0.0835754 -0.0005812 0)
(0.084732 -0.000575212 0)
(0.0858764 -0.000569059 0)
(0.0870084 -0.000562739 0)
(0.0881275 -0.000556254 0)
(0.0892335 -0.000549603 0)
(0.090326 -0.000542785 0)
(0.0914048 -0.000535802 0)
(0.0924694 -0.000528653 0)
(0.0935195 -0.000521339 0)
(0.0945549 -0.00051386 0)
(0.0955751 -0.000506218 0)
(0.0965799 -0.000498413 0)
(0.0975689 -0.000490448 0)
(0.0985418 -0.000482322 0)
(0.0994983 -0.00047404 0)
(0.100438 -0.000465602 0)
(0.101361 -0.000457011 0)
(0.102266 -0.00044827 0)
(0.103154 -0.000439381 0)
(0.104024 -0.000430348 0)
(0.104875 -0.000421172 0)
(0.105709 -0.000411858 0)
(0.106523 -0.000402409 0)
(0.107318 -0.000392827 0)
(0.108094 -0.000383117 0)
(0.108851 -0.000373283 0)
(0.109588 -0.000363328 0)
(0.110304 -0.000353258 0)
(0.111001 -0.000343077 0)
(0.111677 -0.00033279 0)
(0.112332 -0.000322401 0)
(0.112966 -0.000311915 0)
(0.11358 -0.000301337 0)
(0.114172 -0.000290673 0)
(0.114742 -0.000279926 0)
(0.115291 -0.000269102 0)
(0.115819 -0.000258207 0)
(0.116324 -0.000247245 0)
(0.116808 -0.000236223 0)
(0.117269 -0.000225146 0)
(0.117708 -0.000214018 0)
(0.118125 -0.000202847 0)
(0.11852 -0.000191636 0)
(0.118892 -0.000180391 0)
(0.119241 -0.000169119 0)
(0.119568 -0.000157825 0)
(0.119873 -0.000146514 0)
(0.120154 -0.000135192 0)
(0.120413 -0.000123864 0)
(0.12065 -0.000112536 0)
(0.120863 -0.000101213 0)
(0.121054 -8.98982e-05 0)
(0.121223 -7.85982e-05 0)
(0.121369 -6.73175e-05 0)
(0.121492 -5.60609e-05 0)
(0.121593 -4.48332e-05 0)
(0.121671 -3.36392e-05 0)
(0.121727 -2.24835e-05 0)
(0.121761 -1.13704e-05 0)
(0.121773 -3.0422e-07 0)
(0.121762 1.07108e-05 0)
(0.12173 2.16709e-05 0)
(0.121675 3.25725e-05 0)
(0.121599 4.34117e-05 0)
(0.121502 5.41847e-05 0)
(0.121383 6.4888e-05 0)
(0.121242 7.55177e-05 0)
(0.12108 8.60707e-05 0)
(0.120898 9.65439e-05 0)
(0.120694 0.000106935 0)
(0.12047 0.000117241 0)
(0.120225 0.00012746 0)
(0.11996 0.000137589 0)
(0.119674 0.000147627 0)
(0.119369 0.000157571 0)
(0.119044 0.000167419 0)
(0.118699 0.000177168 0)
(0.118335 0.000186817 0)
(0.117952 0.000196363 0)
(0.11755 0.000205806 0)
(0.117128 0.000215144 0)
(0.116689 0.000224375 0)
(0.116231 0.000233499 0)
(0.115755 0.000242515 0)
(0.115261 0.000251421 0)
(0.114749 0.000260217 0)
(0.11422 0.000268902 0)
(0.113673 0.000277475 0)
(0.113109 0.000285935 0)
(0.112529 0.000294281 0)
(0.111932 0.000302513 0)
(0.111319 0.000310631 0)
(0.110689 0.000318636 0)
(0.110044 0.000326526 0)
(0.109383 0.000334302 0)
(0.108707 0.000341962 0)
(0.108015 0.000349507 0)
(0.107309 0.000356936 0)
(0.106587 0.000364248 0)
(0.105851 0.000371444 0)
(0.105101 0.000378525 0)
(0.104337 0.00038549 0)
(0.103559 0.000392341 0)
(0.102768 0.000399076 0)
(0.101963 0.000405698 0)
(0.101145 0.000412205 0)
(0.100314 0.000418597 0)
(0.0994701 0.000424877 0)
(0.0986141 0.000431042 0)
(0.0977458 0.000437094 0)
(0.0968655 0.000443034 0)
(0.0959735 0.000448861 0)
(0.0950699 0.000454576 0)
(0.094155 0.000460181 0)
(0.093229 0.000465675 0)
(0.0922922 0.00047106 0)
(0.0913446 0.000476335 0)
(0.0903867 0.000481501 0)
(0.0894185 0.00048656 0)
(0.0884403 0.00049151 0)
(0.0874523 0.000496355 0)
(0.0864547 0.000501093 0)
(0.0854478 0.000505726 0)
(0.0844317 0.000510255 0)
(0.0834066 0.000514681 0)
(0.0823728 0.000519003 0)
(0.0813304 0.000523224 0)
(0.0802797 0.000527344 0)
(0.0792209 0.000531365 0)
(0.0781541 0.000535286 0)
(0.0770796 0.00053911 0)
(0.0759976 0.000542838 0)
(0.0749081 0.000546469 0)
(0.0738116 0.000550006 0)
(0.072708 0.000553449 0)
(0.0715976 0.000556799 0)
(0.0704807 0.000560057 0)
(0.0693573 0.000563226 0)
(0.0682276 0.000566306 0)
(0.0670919 0.000569298 0)
(0.0659503 0.000572203 0)
(0.064803 0.000575023 0)
(0.0636501 0.000577758 0)
(0.0624918 0.000580411 0)
(0.0613283 0.000582982 0)
(0.0601598 0.000585473 0)
(0.0589863 0.000587885 0)
(0.0578081 0.00059022 0)
(0.0566253 0.000592479 0)
(0.0554381 0.000594663 0)
(0.0542466 0.000596773 0)
(0.0530509 0.000598812 0)
(0.0518512 0.000600779 0)
(0.0506477 0.000602678 0)
(0.0494404 0.000604508 0)
(0.0482296 0.000606271 0)
(0.0470153 0.000607969 0)
(0.0457976 0.000609603 0)
(0.0445768 0.000611174 0)
(0.0433528 0.000612684 0)
(0.0421259 0.000614134 0)
(0.0408962 0.000615526 0)
(0.0396637 0.00061686 0)
(0.0384287 0.000618138 0)
(0.0371911 0.000619361 0)
(0.0359511 0.000620531 0)
(0.0347089 0.000621647 0)
(0.0334645 0.000622713 0)
(0.032218 0.000623729 0)
(0.0309695 0.000624695 0)
(0.0297191 0.000625614 0)
(0.028467 0.000626486 0)
(0.0272131 0.000627312 0)
(0.0259576 0.000628093 0)
(0.0247007 0.00062883 0)
(0.0234423 0.000629525 0)
(0.0221825 0.000630178 0)
(0.0209215 0.00063079 0)
(0.0196593 0.000631361 0)
(0.018396 0.000631893 0)
(0.0171316 0.000632386 0)
(0.0158664 0.000632841 0)
(0.0146002 0.000633259 0)
(0.0133333 0.000633639 0)
(0.0120656 0.000633984 0)
(0.0107973 0.000634293 0)
(0.00952836 0.000634566 0)
(0.00825894 0.000634805 0)
(0.00698908 0.000635009 0)
(0.00571885 0.000635179 0)
(0.00444831 0.000635315 0)
(0.00317754 0.000635416 0)
(0.0019066 0.000635484 0)
(0.000635553 0.000635518 0)
(0.000718266 -0.00215476 0)
(0.0021548 -0.00215463 0)
(0.00359125 -0.00215437 0)
(0.00502747 -0.00215399 0)
(0.00646339 -0.00215349 0)
(0.00789893 -0.00215285 0)
(0.00933401 -0.00215207 0)
(0.0107685 -0.00215116 0)
(0.0122024 -0.00215011 0)
(0.0136355 -0.00214892 0)
(0.0150678 -0.00214759 0)
(0.0164991 -0.00214611 0)
(0.0179294 -0.00214448 0)
(0.0193586 -0.0021427 0)
(0.0207866 -0.00214077 0)
(0.0222132 -0.00213866 0)
(0.0236383 -0.0021364 0)
(0.0250619 -0.00213395 0)
(0.0264838 -0.00213133 0)
(0.0279039 -0.00212853 0)
(0.0293221 -0.00212554 0)
(0.0307382 -0.00212234 0)
(0.0321521 -0.00211895 0)
(0.0335637 -0.00211535 0)
(0.0349728 -0.00211153 0)
(0.0363793 -0.00210748 0)
(0.0377831 -0.00210321 0)
(0.0391839 -0.00209869 0)
(0.0405816 -0.00209393 0)
(0.0419761 -0.00208892 0)
(0.0433672 -0.00208364 0)
(0.0447546 -0.00207809 0)
(0.0461383 -0.00207226 0)
(0.047518 -0.00206614 0)
(0.0488935 -0.00205973 0)
(0.0502647 -0.00205301 0)
(0.0516312 -0.00204597 0)
(0.052993 -0.00203862 0)
(0.0543498 -0.00203093 0)
(0.0557013 -0.0020229 0)
(0.0570474 -0.00201452 0)
(0.0583878 -0.00200578 0)
(0.0597222 -0.00199668 0)
(0.0610505 -0.0019872 0)
(0.0623723 -0.00197734 0)
(0.0636874 -0.00196709 0)
(0.0649955 -0.00195643 0)
(0.0662965 -0.00194537 0)
(0.0675899 -0.0019339 0)
(0.0688755 -0.001922 0)
(0.070153 -0.00190967 0)
(0.0714222 -0.0018969 0)
(0.0726828 -0.00188368 0)
(0.0739344 -0.00187001 0)
(0.0751767 -0.00185589 0)
(0.0764094 -0.0018413 0)
(0.0776323 -0.00182624 0)
(0.078845 -0.0018107 0)
(0.0800471 -0.00179469 0)
(0.0812385 -0.0017782 0)
(0.0824187 -0.00176122 0)
(0.0835874 -0.00174375 0)
(0.0847443 -0.00172578 0)
(0.085889 -0.00170732 0)
(0.0870213 -0.00168837 0)
(0.0881408 -0.00166891 0)
(0.0892471 -0.00164896 0)
(0.09034 -0.0016285 0)
(0.091419 -0.00160755 0)
(0.092484 -0.00158611 0)
(0.0935344 -0.00156416 0)
(0.0945701 -0.00154172 0)
(0.0955907 -0.0015188 0)
(0.0965958 -0.00149538 0)
(0.0975851 -0.00147148 0)
(0.0985583 -0.0014471 0)
(0.0995151 -0.00142225 0)
(0.100455 -0.00139694 0)
(0.101378 -0.00137116 0)
(0.102284 -0.00134494 0)
(0.103172 -0.00131827 0)
(0.104042 -0.00129116 0)
(0.104894 -0.00126363 0)
(0.105728 -0.00123569 0)
(0.106542 -0.00120733 0)
(0.107338 -0.00117859 0)
(0.108114 -0.00114945 0)
(0.108871 -0.00111994 0)
(0.109608 -0.00109007 0)
(0.110325 -0.00105986 0)
(0.111021 -0.00102931 0)
(0.111697 -0.000998444 0)
(0.112353 -0.000967272 0)
(0.112988 -0.00093581 0)
(0.113601 -0.000904072 0)
(0.114193 -0.000872072 0)
(0.114764 -0.000839825 0)
(0.115313 -0.000807348 0)
(0.115841 -0.000774657 0)
(0.116346 -0.000741767 0)
(0.11683 -0.000708695 0)
(0.117292 -0.000675457 0)
(0.117731 -0.000642069 0)
(0.118148 -0.000608548 0)
(0.118542 -0.000574909 0)
(0.118914 -0.00054117 0)
(0.119264 -0.000507348 0)
(0.119591 -0.000473459 0)
(0.119895 -0.000439521 0)
(0.120177 -0.00040555 0)
(0.120436 -0.000371561 0)
(0.120672 -0.000337571 0)
(0.120886 -0.000303595 0)
(0.121077 -0.000269646 0)
(0.121246 -0.000235741 0)
(0.121391 -0.000201894 0)
(0.121515 -0.000168119 0)
(0.121616 -0.000134431 0)
(0.121694 -0.000100845 0)
(0.12175 -6.73728e-05 0)
(0.121784 -3.40293e-05 0)
(0.121795 -8.26749e-07 0)
(0.121784 3.22225e-05 0)
(0.121752 6.5107e-05 0)
(0.121697 9.78154e-05 0)
(0.121621 0.000130336 0)
(0.121523 0.000162659 0)
(0.121404 0.000194772 0)
(0.121263 0.000226664 0)
(0.121102 0.000258326 0)
(0.120919 0.000289749 0)
(0.120715 0.000320924 0)
(0.12049 0.000351845 0)
(0.120245 0.000382504 0)
(0.11998 0.000412896 0)
(0.119695 0.000443011 0)
(0.119389 0.000472845 0)
(0.119064 0.00050239 0)
(0.118719 0.000531639 0)
(0.118355 0.000560587 0)
(0.117971 0.000589229 0)
(0.117568 0.000617558 0)
(0.117147 0.000645572 0)
(0.116707 0.000673267 0)
(0.116249 0.00070064 0)
(0.115773 0.000727688 0)
(0.115278 0.000754408 0)
(0.114766 0.000780797 0)
(0.114237 0.000806853 0)
(0.11369 0.000832571 0)
(0.113126 0.000857951 0)
(0.112546 0.000882989 0)
(0.111949 0.000907686 0)
(0.111335 0.000932041 0)
(0.110706 0.000956054 0)
(0.11006 0.000979725 0)
(0.109399 0.00100305 0)
(0.108722 0.00102603 0)
(0.10803 0.00104867 0)
(0.107323 0.00107095 0)
(0.106602 0.00109289 0)
(0.105866 0.00111448 0)
(0.105116 0.00113572 0)
(0.104351 0.00115662 0)
(0.103573 0.00117717 0)
(0.102781 0.00119737 0)
(0.101976 0.00121724 0)
(0.101158 0.00123676 0)
(0.100327 0.00125593 0)
(0.0994827 0.00127477 0)
(0.0986264 0.00129327 0)
(0.0977579 0.00131142 0)
(0.0968774 0.00132924 0)
(0.0959852 0.00134672 0)
(0.0950814 0.00136387 0)
(0.0941663 0.00138068 0)
(0.0932401 0.00139716 0)
(0.092303 0.00141331 0)
(0.0913552 0.00142914 0)
(0.090397 0.00144464 0)
(0.0894286 0.00145981 0)
(0.0884502 0.00147466 0)
(0.087462 0.00148919 0)
(0.0864642 0.00150341 0)
(0.0854571 0.00151731 0)
(0.0844407 0.00153089 0)
(0.0834155 0.00154417 0)
(0.0823815 0.00155713 0)
(0.0813389 0.00156979 0)
(0.080288 0.00158215 0)
(0.079229 0.00159421 0)
(0.078162 0.00160598 0)
(0.0770873 0.00161745 0)
(0.076005 0.00162863 0)
(0.0749154 0.00163952 0)
(0.0738186 0.00165013 0)
(0.0727149 0.00166046 0)
(0.0716044 0.00167051 0)
(0.0704872 0.00168028 0)
(0.0693636 0.00168979 0)
(0.0682338 0.00169902 0)
(0.0670979 0.001708 0)
(0.0659561 0.00171671 0)
(0.0648086 0.00172517 0)
(0.0636556 0.00173338 0)
(0.0624972 0.00174133 0)
(0.0613335 0.00174904 0)
(0.0601648 0.00175651 0)
(0.0589912 0.00176375 0)
(0.0578128 0.00177075 0)
(0.0566299 0.00177753 0)
(0.0554425 0.00178408 0)
(0.0542508 0.00179041 0)
(0.053055 0.00179652 0)
(0.0518552 0.00180242 0)
(0.0506515 0.00180812 0)
(0.0494441 0.0018136 0)
(0.0482331 0.00181889 0)
(0.0470187 0.00182398 0)
(0.0458009 0.00182888 0)
(0.0445799 0.0018336 0)
(0.0433558 0.00183813 0)
(0.0421288 0.00184247 0)
(0.040899 0.00184665 0)
(0.0396664 0.00185065 0)
(0.0384312 0.00185448 0)
(0.0371936 0.00185815 0)
(0.0359535 0.00186166 0)
(0.0347111 0.00186501 0)
(0.0334666 0.0018682 0)
(0.03222 0.00187125 0)
(0.0309714 0.00187415 0)
(0.029721 0.0018769 0)
(0.0284687 0.00187952 0)
(0.0272148 0.00188199 0)
(0.0259592 0.00188433 0)
(0.0247021 0.00188655 0)
(0.0234436 0.00188863 0)
(0.0221838 0.00189059 0)
(0.0209227 0.00189242 0)
(0.0196604 0.00189413 0)
(0.018397 0.00189573 0)
(0.0171326 0.00189721 0)
(0.0158673 0.00189857 0)
(0.014601 0.00189982 0)
(0.013334 0.00190097 0)
(0.0120663 0.001902 0)
(0.0107979 0.00190292 0)
(0.00952889 0.00190374 0)
(0.0082594 0.00190446 0)
(0.00698947 0.00190507 0)
(0.00571916 0.00190558 0)
(0.00444855 0.00190599 0)
(0.00317771 0.00190629 0)
(0.0019067 0.0019065 0)
(0.000635587 0.0019066 0)
(0.000718362 -0.00359136 0)
(0.00215508 -0.00359115 0)
(0.00359169 -0.00359074 0)
(0.00502808 -0.00359012 0)
(0.00646418 -0.00358928 0)
(0.0078999 -0.00358821 0)
(0.00933515 -0.00358692 0)
(0.0107698 -0.00358541 0)
(0.0122039 -0.00358366 0)
(0.0136372 -0.00358169 0)
(0.0150697 -0.00357947 0)
(0.0165012 -0.00357701 0)
(0.0179318 -0.0035743 0)
(0.0193611 -0.00357134 0)
(0.0207893 -0.00356812 0)
(0.0222161 -0.00356462 0)
(0.0236415 -0.00356084 0)
(0.0250653 -0.00355678 0)
(0.0264875 -0.00355242 0)
(0.0279078 -0.00354775 0)
(0.0293263 -0.00354277 0)
(0.0307427 -0.00353746 0)
(0.0321569 -0.00353181 0)
(0.0335687 -0.00352581 0)
(0.0349782 -0.00351945 0)
(0.036385 -0.00351272 0)
(0.037789 -0.0035056 0)
(0.0391902 -0.00349809 0)
(0.0405883 -0.00349016 0)
(0.0419831 -0.00348181 0)
(0.0433745 -0.00347302 0)
(0.0447623 -0.00346378 0)
(0.0461464 -0.00345408 0)
(0.0475265 -0.00344389 0)
(0.0489024 -0.00343321 0)
(0.050274 -0.00342202 0)
(0.051641 -0.00341031 0)
(0.0530032 -0.00339805 0)
(0.0543604 -0.00338525 0)
(0.0557124 -0.00337188 0)
(0.057059 -0.00335792 0)
(0.0583998 -0.00334337 0)
(0.0597348 -0.00332821 0)
(0.0610635 -0.00331242 0)
(0.0623858 -0.00329599 0)
(0.0637015 -0.00327891 0)
(0.0650102 -0.00326117 0)
(0.0663117 -0.00324274 0)
(0.0676056 -0.00322363 0)
(0.0688918 -0.0032038 0)
(0.07017 -0.00318326 0)
(0.0714398 -0.00316198 0)
(0.0727009 -0.00313996 0)
(0.0739531 -0.00311719 0)
(0.075196 -0.00309365 0)
(0.0764294 -0.00306934 0)
(0.0776529 -0.00304424 0)
(0.0788662 -0.00301836 0)
(0.080069 -0.00299168 0)
(0.081261 -0.0029642 0)
(0.0824419 -0.0029359 0)
(0.0836112 -0.00290678 0)
(0.0847688 -0.00287685 0)
(0.0859142 -0.00284608 0)
(0.0870471 -0.00281449 0)
(0.0881673 -0.00278206 0)
(0.0892743 -0.0027488 0)
(0.0903678 -0.00271471 0)
(0.0914476 -0.00267979 0)
(0.0925132 -0.00264404 0)
(0.0935643 -0.00260747 0)
(0.0946006 -0.00257007 0)
(0.0956218 -0.00253185 0)
(0.0966276 -0.00249282 0)
(0.0976175 -0.00245298 0)
(0.0985914 -0.00241235 0)
(0.0995488 -0.00237092 0)
(0.10049 -0.00232872 0)
(0.101413 -0.00228575 0)
(0.10232 -0.00224203 0)
(0.103208 -0.00219758 0)
(0.104079 -0.00215239 0)
(0.104931 -0.0021065 0)
(0.105765 -0.00205991 0)
(0.106581 -0.00201264 0)
(0.107377 -0.00196471 0)
(0.108153 -0.00191614 0)
(0.108911 -0.00186695 0)
(0.109648 -0.00181716 0)
(0.110365 -0.00176678 0)
(0.111063 -0.00171585 0)
(0.111739 -0.00166439 0)
(0.112395 -0.00161242 0)
(0.11303 -0.00155997 0)
(0.113644 -0.00150705 0)
(0.114236 -0.0014537 0)
(0.114808 -0.00139994 0)
(0.115357 -0.00134579 0)
(0.115885 -0.00129129 0)
(0.116391 -0.00123646 0)
(0.116875 -0.00118132 0)
(0.117336 -0.0011259 0)
(0.117776 -0.00107024 0)
(0.118193 -0.00101435 0)
(0.118588 -0.000958267 0)
(0.11896 -0.000902017 0)
(0.119309 -0.000845628 0)
(0.119637 -0.000789128 0)
(0.119941 -0.000732546 0)
(0.120223 -0.000675909 0)
(0.120482 -0.000619244 0)
(0.120718 -0.000562576 0)
(0.120932 -0.000505931 0)
(0.121123 -0.000449333 0)
(0.121291 -0.000392808 0)
(0.121437 -0.000336379 0)
(0.12156 -0.000280071 0)
(0.121661 -0.000223909 0)
(0.121739 -0.000167916 0)
(0.121795 -0.000112115 0)
(0.121828 -5.65282e-05 0)
(0.12184 -1.17696e-06 0)
(0.121829 5.39186e-05 0)
(0.121796 0.000108739 0)
(0.121741 0.000163265 0)
(0.121665 0.000217479 0)
(0.121567 0.000271361 0)
(0.121447 0.000324893 0)
(0.121306 0.000378057 0)
(0.121144 0.000430837 0)
(0.120961 0.000483218 0)
(0.120757 0.000535187 0)
(0.120532 0.000586731 0)
(0.120287 0.000637839 0)
(0.120021 0.000688499 0)
(0.119735 0.000738699 0)
(0.119429 0.000788429 0)
(0.119103 0.000837677 0)
(0.118758 0.000886431 0)
(0.118393 0.000934683 0)
(0.118009 0.000982423 0)
(0.117606 0.00102964 0)
(0.117185 0.00107634 0)
(0.116744 0.0011225 0)
(0.116286 0.00116813 0)
(0.115809 0.00121321 0)
(0.115314 0.00125775 0)
(0.114802 0.00130173 0)
(0.114272 0.00134516 0)
(0.113725 0.00138803 0)
(0.11316 0.00143033 0)
(0.112579 0.00147206 0)
(0.111982 0.00151322 0)
(0.111368 0.00155381 0)
(0.110738 0.00159384 0)
(0.110092 0.00163329 0)
(0.10943 0.00167217 0)
(0.108753 0.00171047 0)
(0.108061 0.00174819 0)
(0.107353 0.00178533 0)
(0.106631 0.0018219 0)
(0.105895 0.00185788 0)
(0.105144 0.00189328 0)
(0.104379 0.0019281 0)
(0.1036 0.00196235 0)
(0.102808 0.00199603 0)
(0.102003 0.00202913 0)
(0.101184 0.00206167 0)
(0.100352 0.00209363 0)
(0.0995079 0.00212502 0)
(0.0986512 0.00215585 0)
(0.0977822 0.0021861 0)
(0.0969013 0.0022158 0)
(0.0960086 0.00224493 0)
(0.0951043 0.00227351 0)
(0.0941887 0.00230153 0)
(0.0932621 0.00232899 0)
(0.0923246 0.00235591 0)
(0.0913764 0.00238228 0)
(0.0904177 0.00240811 0)
(0.0894489 0.0024334 0)
(0.0884701 0.00245815 0)
(0.0874814 0.00248236 0)
(0.0864832 0.00250605 0)
(0.0854756 0.00252921 0)
(0.0844589 0.00255185 0)
(0.0834332 0.00257397 0)
(0.0823988 0.00259558 0)
(0.0813558 0.00261668 0)
(0.0803045 0.00263728 0)
(0.0792451 0.00265737 0)
(0.0781777 0.00267697 0)
(0.0771026 0.00269609 0)
(0.07602 0.00271472 0)
(0.07493 0.00273287 0)
(0.0738328 0.00275055 0)
(0.0727287 0.00276776 0)
(0.0716178 0.0027845 0)
(0.0705003 0.00280079 0)
(0.0693763 0.00281662 0)
(0.0682462 0.00283202 0)
(0.0671099 0.00284697 0)
(0.0659678 0.00286149 0)
(0.06482 0.00287558 0)
(0.0636666 0.00288925 0)
(0.0625078 0.00290251 0)
(0.0613438 0.00291536 0)
(0.0601748 0.0029278 0)
(0.0590009 0.00293986 0)
(0.0578222 0.00295152 0)
(0.0566389 0.00296281 0)
(0.0554513 0.00297372 0)
(0.0542593 0.00298427 0)
(0.0530632 0.00299445 0)
(0.0518631 0.00300428 0)
(0.0506591 0.00301377 0)
(0.0494514 0.00302291 0)
(0.0482402 0.00303172 0)
(0.0470255 0.0030402 0)
(0.0458074 0.00304836 0)
(0.0445862 0.00305621 0)
(0.0433619 0.00306376 0)
(0.0421346 0.003071 0)
(0.0409046 0.00307795 0)
(0.0396717 0.00308462 0)
(0.0384363 0.003091 0)
(0.0371984 0.00309711 0)
(0.0359582 0.00310295 0)
(0.0347156 0.00310853 0)
(0.0334709 0.00311385 0)
(0.0322241 0.00311892 0)
(0.0309753 0.00312375 0)
(0.0297246 0.00312834 0)
(0.0284722 0.00313269 0)
(0.027218 0.00313682 0)
(0.0259623 0.00314072 0)
(0.0247051 0.0031444 0)
(0.0234464 0.00314787 0)
(0.0221864 0.00315113 0)
(0.0209251 0.00315418 0)
(0.0196627 0.00315704 0)
(0.0183991 0.00315969 0)
(0.0171346 0.00316215 0)
(0.015869 0.00316443 0)
(0.0146027 0.00316651 0)
(0.0133355 0.00316841 0)
(0.0120676 0.00317013 0)
(0.0107991 0.00317167 0)
(0.00952993 0.00317304 0)
(0.0082603 0.00317423 0)
(0.00699023 0.00317525 0)
(0.00571978 0.00317609 0)
(0.00444904 0.00317677 0)
(0.00317805 0.00317728 0)
(0.00190691 0.00317762 0)
(0.000635655 0.00317779 0)
(0.000718495 -0.00502819 0)
(0.00215547 -0.00502791 0)
(0.00359235 -0.00502734 0)
(0.005029 -0.00502647 0)
(0.00646536 -0.00502529 0)
(0.00790135 -0.00502381 0)
(0.00933687 -0.00502201 0)
(0.0107718 -0.0050199 0)
(0.0122062 -0.00501746 0)
(0.0136398 -0.0050147 0)
(0.0150725 -0.00501161 0)
(0.0165044 -0.00500817 0)
(0.0179352 -0.00500439 0)
(0.0193649 -0.00500026 0)
(0.0207934 -0.00499575 0)
(0.0222206 -0.00499087 0)
(0.0236463 -0.00498559 0)
(0.0250705 -0.00497992 0)
(0.026493 -0.00497383 0)
(0.0279137 -0.00496731 0)
(0.0293326 -0.00496034 0)
(0.0307493 -0.00495292 0)
(0.032164 -0.00494503 0)
(0.0335763 -0.00493665 0)
(0.0349862 -0.00492776 0)
(0.0363934 -0.00491836 0)
(0.037798 -0.00490841 0)
(0.0391996 -0.00489791 0)
(0.0405982 -0.00488683 0)
(0.0419935 -0.00487516 0)
(0.0433855 -0.00486287 0)
(0.0447739 -0.00484995 0)
(0.0461585 -0.00483639 0)
(0.0475392 -0.00482214 0)
(0.0489157 -0.00480721 0)
(0.0502879 -0.00479157 0)
(0.0516555 -0.00477519 0)
(0.0530184 -0.00475806 0)
(0.0543763 -0.00474015 0)
(0.055729 -0.00472145 0)
(0.0570763 -0.00470193 0)
(0.0584179 -0.00468158 0)
(0.0597536 -0.00466037 0)
(0.0610831 -0.00463829 0)
(0.0624062 -0.00461531 0)
(0.0637226 -0.00459142 0)
(0.0650321 -0.00456659 0)
(0.0663344 -0.00454082 0)
(0.0676293 -0.00451407 0)
(0.0689163 -0.00448633 0)
(0.0701953 -0.00445759 0)
(0.071466 -0.00442782 0)
(0.0727281 -0.004397 0)
(0.0739812 -0.00436514 0)
(0.075225 -0.0043322 0)
(0.0764593 -0.00429817 0)
(0.0776838 -0.00426306 0)
(0.0788981 -0.00422683 0)
(0.0801019 -0.00418949 0)
(0.0812948 -0.00415102 0)
(0.0824766 -0.00411141 0)
(0.083647 -0.00407065 0)
(0.0848055 -0.00402875 0)
(0.0859519 -0.00398568 0)
(0.0870859 -0.00394145 0)
(0.088207 -0.00389605 0)
(0.0893151 -0.00384949 0)
(0.0904096 -0.00380177 0)
(0.0914903 -0.00375288 0)
(0.0925569 -0.00370283 0)
(0.0936091 -0.00365161 0)
(0.0946464 -0.00359925 0)
(0.0956686 -0.00354574 0)
(0.0966753 -0.00349108 0)
(0.0976662 -0.0034353 0)
(0.098641 -0.00337839 0)
(0.0995994 -0.00332038 0)
(0.100541 -0.00326129 0)
(0.101466 -0.00320111 0)
(0.102373 -0.00313989 0)
(0.103262 -0.00307763 0)
(0.104134 -0.00301435 0)
(0.104987 -0.00295007 0)
(0.105822 -0.00288483 0)
(0.106638 -0.00281863 0)
(0.107435 -0.0027515 0)
(0.108213 -0.00268347 0)
(0.108971 -0.00261457 0)
(0.109709 -0.00254483 0)
(0.110427 -0.00247428 0)
(0.111124 -0.00240295 0)
(0.111802 -0.00233087 0)
(0.112458 -0.00225808 0)
(0.113094 -0.00218461 0)
(0.113708 -0.00211049 0)
(0.114301 -0.00203576 0)
(0.114873 -0.00196046 0)
(0.115423 -0.00188461 0)
(0.115951 -0.00180827 0)
(0.116457 -0.00173146 0)
(0.116941 -0.00165423 0)
(0.117403 -0.00157661 0)
(0.117843 -0.00149865 0)
(0.118261 -0.00142037 0)
(0.118655 -0.00134181 0)
(0.119028 -0.00126302 0)
(0.119378 -0.00118404 0)
(0.119705 -0.0011049 0)
(0.120009 -0.00102565 0)
(0.120291 -0.00094632 0)
(0.12055 -0.000866951 0)
(0.120787 -0.000787578 0)
(0.121 -0.000708238 0)
(0.121191 -0.000628966 0)
(0.121359 -0.000549795 0)
(0.121505 -0.00047076 0)
(0.121628 -0.000391896 0)
(0.121729 -0.000313236 0)
(0.121806 -0.000234814 0)
(0.121862 -0.000156662 0)
(0.121895 -7.881e-05 0)
(0.121906 -1.28918e-06 0)
(0.121895 7.58726e-05 0)
(0.121862 0.000152648 0)
(0.121807 0.00022901 0)
(0.12173 0.000304933 0)
(0.121632 0.000380391 0)
(0.121512 0.000455358 0)
(0.12137 0.00052981 0)
(0.121208 0.000603723 0)
(0.121024 0.000677077 0)
(0.120819 0.000749854 0)
(0.120594 0.000822035 0)
(0.120348 0.000893604 0)
(0.120082 0.000964545 0)
(0.119795 0.00103484 0)
(0.119489 0.00110448 0)
(0.119163 0.00117344 0)
(0.118817 0.00124171 0)
(0.118451 0.00130927 0)
(0.118067 0.00137612 0)
(0.117663 0.00144224 0)
(0.117241 0.00150762 0)
(0.1168 0.00157225 0)
(0.116341 0.00163614 0)
(0.115863 0.00169926 0)
(0.115368 0.00176162 0)
(0.114855 0.0018232 0)
(0.114324 0.00188401 0)
(0.113776 0.00194403 0)
(0.113211 0.00200325 0)
(0.11263 0.00206168 0)
(0.112031 0.00211931 0)
(0.111417 0.00217614 0)
(0.110786 0.00223218 0)
(0.110139 0.00228741 0)
(0.109477 0.00234184 0)
(0.108799 0.00239547 0)
(0.108106 0.00244828 0)
(0.107398 0.00250028 0)
(0.106675 0.00255146 0)
(0.105938 0.00260184 0)
(0.105187 0.0026514 0)
(0.104421 0.00270015 0)
(0.103642 0.0027481 0)
(0.102849 0.00279525 0)
(0.102042 0.00284159 0)
(0.101223 0.00288713 0)
(0.100391 0.00293188 0)
(0.0995457 0.00297583 0)
(0.0986882 0.00301898 0)
(0.0978186 0.00306134 0)
(0.096937 0.00310291 0)
(0.0960436 0.00314369 0)
(0.0951387 0.00318369 0)
(0.0942224 0.00322291 0)
(0.0932951 0.00326137 0)
(0.0923569 0.00329905 0)
(0.0914081 0.00333596 0)
(0.0904488 0.00337212 0)
(0.0894793 0.00340751 0)
(0.0884998 0.00344216 0)
(0.0875105 0.00347605 0)
(0.0865117 0.00350921 0)
(0.0855035 0.00354163 0)
(0.0844861 0.00357332 0)
(0.0834598 0.00360429 0)
(0.0824248 0.00363453 0)
(0.0813812 0.00366406 0)
(0.0803293 0.00369289 0)
(0.0792693 0.00372102 0)
(0.0782013 0.00374845 0)
(0.0771256 0.00377521 0)
(0.0760424 0.00380128 0)
(0.0749518 0.00382669 0)
(0.0738541 0.00385143 0)
(0.0727494 0.00387551 0)
(0.0716379 0.00389894 0)
(0.0705199 0.00392174 0)
(0.0693954 0.0039439 0)
(0.0682647 0.00396544 0)
(0.0671279 0.00398637 0)
(0.0659853 0.00400669 0)
(0.0648369 0.00402641 0)
(0.063683 0.00404554 0)
(0.0625237 0.00406409 0)
(0.0613593 0.00408207 0)
(0.0601897 0.00409948 0)
(0.0590153 0.00411635 0)
(0.0578362 0.00413267 0)
(0.0566525 0.00414846 0)
(0.0554644 0.00416373 0)
(0.054272 0.00417849 0)
(0.0530754 0.00419274 0)
(0.0518749 0.00420649 0)
(0.0506705 0.00421976 0)
(0.0494624 0.00423255 0)
(0.0482508 0.00424487 0)
(0.0470357 0.00425674 0)
(0.0458172 0.00426816 0)
(0.0445956 0.00427914 0)
(0.0433709 0.00428969 0)
(0.0421433 0.00429982 0)
(0.0409129 0.00430954 0)
(0.0396797 0.00431886 0)
(0.038444 0.00432779 0)
(0.0372058 0.00433634 0)
(0.0359652 0.0043445 0)
(0.0347223 0.00435231 0)
(0.0334772 0.00435975 0)
(0.0322301 0.00436684 0)
(0.0309811 0.00437359 0)
(0.0297301 0.00438001 0)
(0.0284774 0.00438609 0)
(0.027223 0.00439186 0)
(0.025967 0.00439732 0)
(0.0247095 0.00440247 0)
(0.0234505 0.00440732 0)
(0.0221903 0.00441187 0)
(0.0209287 0.00441614 0)
(0.019666 0.00442013 0)
(0.0184023 0.00442385 0)
(0.0171375 0.00442729 0)
(0.0158717 0.00443046 0)
(0.0146051 0.00443338 0)
(0.0133377 0.00443604 0)
(0.0120696 0.00443844 0)
(0.0108008 0.00444059 0)
(0.0095315 0.0044425 0)
(0.00826165 0.00444417 0)
(0.00699137 0.00444559 0)
(0.00572072 0.00444678 0)
(0.00444976 0.00444773 0)
(0.00317857 0.00444844 0)
(0.00190722 0.00444891 0)
(0.000635758 0.00444915 0)
(0.000718671 -0.00646534 0)
(0.002156 -0.00646499 0)
(0.00359322 -0.00646425 0)
(0.00503022 -0.00646313 0)
(0.00646693 -0.00646162 0)
(0.00790327 -0.00645972 0)
(0.00933916 -0.00645742 0)
(0.0107745 -0.00645471 0)
(0.0122092 -0.00645159 0)
(0.0136432 -0.00644805 0)
(0.0150763 -0.00644409 0)
(0.0165086 -0.00643969 0)
(0.0179398 -0.00643485 0)
(0.01937 -0.00642954 0)
(0.0207989 -0.00642377 0)
(0.0222265 -0.00641751 0)
(0.0236527 -0.00641075 0)
(0.0250773 -0.00640348 0)
(0.0265003 -0.00639567 0)
(0.0279216 -0.00638731 0)
(0.0293409 -0.00637838 0)
(0.0307582 -0.00636887 0)
(0.0321734 -0.00635875 0)
(0.0335863 -0.006348 0)
(0.0349968 -0.0063366 0)
(0.0364047 -0.00632454 0)
(0.0378098 -0.00631178 0)
(0.0392121 -0.00629831 0)
(0.0406114 -0.0062841 0)
(0.0420074 -0.00626912 0)
(0.0434001 -0.00625336 0)
(0.0447892 -0.00623678 0)
(0.0461746 -0.00621937 0)
(0.0475561 -0.0062011 0)
(0.0489334 -0.00618193 0)
(0.0503064 -0.00616185 0)
(0.0516749 -0.00614083 0)
(0.0530387 -0.00611884 0)
(0.0543975 -0.00609585 0)
(0.0557511 -0.00607184 0)
(0.0570993 -0.00604678 0)
(0.0584419 -0.00602065 0)
(0.0597786 -0.00599341 0)
(0.0611091 -0.00596506 0)
(0.0624333 -0.00593555 0)
(0.0637508 -0.00590486 0)
(0.0650614 -0.00587298 0)
(0.0663648 -0.00583987 0)
(0.0676607 -0.00580551 0)
(0.0689489 -0.00576988 0)
(0.0702291 -0.00573295 0)
(0.071501 -0.0056947 0)
(0.0727642 -0.00565511 0)
(0.0740185 -0.00561416 0)
(0.0752636 -0.00557183 0)
(0.0764992 -0.00552811 0)
(0.0777249 -0.00548298 0)
(0.0789405 -0.00543642 0)
(0.0801456 -0.00538843 0)
(0.0813398 -0.00533898 0)
(0.082523 -0.00528807 0)
(0.0836946 -0.00523568 0)
(0.0848545 -0.00518181 0)
(0.0860022 -0.00512645 0)
(0.0871375 -0.00506958 0)
(0.08826 -0.00501122 0)
(0.0893694 -0.00495136 0)
(0.0904652 -0.00488999 0)
(0.0915473 -0.00482713 0)
(0.0926153 -0.00476277 0)
(0.0936687 -0.00469692 0)
(0.0947074 -0.00462958 0)
(0.0957308 -0.00456076 0)
(0.0967389 -0.00449047 0)
(0.0977311 -0.00441873 0)
(0.0987072 -0.00434555 0)
(0.0996668 -0.00427094 0)
(0.10061 -0.00419493 0)
(0.101535 -0.00411753 0)
(0.102444 -0.00403878 0)
(0.103335 -0.0039587 0)
(0.104207 -0.0038773 0)
(0.105062 -0.00379463 0)
(0.105898 -0.00371069 0)
(0.106715 -0.00362554 0)
(0.107513 -0.00353919 0)
(0.108291 -0.00345168 0)
(0.10905 -0.00336304 0)
(0.109789 -0.00327332 0)
(0.110508 -0.00318256 0)
(0.111207 -0.00309079 0)
(0.111885 -0.00299806 0)
(0.112542 -0.00290442 0)
(0.113179 -0.00280989 0)
(0.113794 -0.00271454 0)
(0.114387 -0.0026184 0)
(0.11496 -0.00252151 0)
(0.11551 -0.00242394 0)
(0.116039 -0.00232572 0)
(0.116546 -0.0022269 0)
(0.11703 -0.00212754 0)
(0.117493 -0.00202768 0)
(0.117933 -0.00192737 0)
(0.118351 -0.00182666 0)
(0.118746 -0.00172559 0)
(0.119119 -0.00162423 0)
(0.119469 -0.00152261 0)
(0.119796 -0.0014208 0)
(0.120101 -0.00131884 0)
(0.120383 -0.00121678 0)
(0.120642 -0.00111467 0)
(0.120878 -0.00101255 0)
(0.121092 -0.000910481 0)
(0.121282 -0.000808497 0)
(0.12145 -0.000706646 0)
(0.121596 -0.000604971 0)
(0.121719 -0.000503517 0)
(0.121819 -0.000402327 0)
(0.121897 -0.000301444 0)
(0.121952 -0.000200909 0)
(0.121985 -0.000100763 0)
(0.121995 -1.04296e-06 0)
(0.121984 9.8213e-05 0)
(0.12195 0.00019697 0)