/*--------------------------------*- C++ -*----------------------------------*\
| =========                 |                                                 |
| \\      /  F ield         | OpenFOAM: The Open Source CFD Toolbox           |
|  \\    /   O peration     | Version:  v2012                                 |
|   \\  /    A nd           | Website:  www.openfoam.com                      |
|    \\/     M anipulation  |                                                 |
\*---------------------------------------------------------------------------*/
FoamFile
{
    version     2.0;
    format      ascii;
    class       volScalarField;
    location    "0";
    object      pRec;
}
// * * * * * * * * * * * * * * * * * * * * * * * * * * * * * * * * * * * * * //

dimensions      [0 2 -2 0 0 0 0];


internalField   nonuniform List<scalar> 
4000
(
-6.93201e-13
-6.87634e-13
-6.88859e-13
-6.91848e-13
-6.89678e-13
-6.9027e-13
-6.88858e-13
-6.83813e-13
-6.73701e-13
-6.69753e-13
-6.70916e-13
-6.65398e-13
-6.54694e-13
-6.4081e-13
-6.27113e-13
-6.20635e-13
-6.16063e-13
-6.13492e-13
-6.06206e-13
-5.9265e-13
-5.81733e-13
-5.74627e-13
-5.69347e-13
-5.61927e-13
-5.51343e-13
-5.40549e-13
-5.38502e-13
-5.32968e-13
-5.26554e-13
-5.15513e-13
-4.99474e-13
-4.92541e-13
-4.90516e-13
-4.88582e-13
-4.83616e-13
-4.80615e-13
-4.71349e-13
-4.52912e-13
-4.35433e-13
-4.31777e-13
-4.32391e-13
-4.30614e-13
-4.30822e-13
-4.24592e-13
-4.13334e-13
-4.04407e-13
-3.95595e-13
-3.86324e-13
-3.77023e-13
-3.69194e-13
-3.60257e-13
-3.52197e-13
-3.44825e-13
-3.35925e-13
-3.27739e-13
-3.15119e-13
-3.08175e-13
-3.05309e-13
-3.02816e-13
-2.99779e-13
-2.91576e-13
-2.84344e-13
-2.74289e-13
-2.62377e-13
-2.54214e-13
-2.46861e-13
-2.42539e-13
-2.3443e-13
-2.2376e-13
-2.16277e-13
-2.08908e-13
-2.02017e-13
-1.89044e-13
-1.82021e-13
-1.80887e-13
-1.7658e-13
-1.72802e-13
-1.66463e-13
-1.57399e-13
-1.44352e-13
-1.31705e-13
-1.26056e-13
-1.17476e-13
-1.13164e-13
-1.0869e-13
-1.02991e-13
-9.38111e-14
-8.59518e-14
-8.24876e-14
-7.85059e-14
-7.25051e-14
-6.6052e-14
-5.90775e-14
-5.35051e-14
-4.45024e-14
-3.54949e-14
-2.75221e-14
-1.95226e-14
-1.09975e-14
-2.69715e-15
-6.89782e-13
-6.88526e-13
-6.91696e-13
-6.91601e-13
-6.92202e-13
-6.88931e-13
-6.86008e-13
-6.83654e-13
-6.78245e-13
-6.73184e-13
-6.67374e-13
-6.62021e-13
-6.52875e-13
-6.41382e-13
-6.30312e-13
-6.2386e-13
-6.18975e-13
-6.12042e-13
-6.03223e-13
-5.95891e-13
-5.85294e-13
-5.73315e-13
-5.65509e-13
-5.58697e-13
-5.49195e-13
-5.43091e-13
-5.39748e-13
-5.33728e-13
-5.25379e-13
-5.11851e-13
-5.02604e-13
-4.95922e-13
-4.89953e-13
-4.85394e-13
-4.81041e-13
-4.76908e-13
-4.69403e-13
-4.56522e-13
-4.42339e-13
-4.35886e-13
-4.32245e-13
-4.29999e-13
-4.27583e-13
-4.22638e-13
-4.14904e-13
-4.0459e-13
-3.9418e-13
-3.86229e-13
-3.77252e-13
-3.66766e-13
-3.59171e-13
-3.51312e-13
-3.44835e-13
-3.37104e-13
-3.28885e-13
-3.17837e-13
-3.08025e-13
-3.03557e-13
-3.01103e-13
-2.98309e-13
-2.93776e-13
-2.8439e-13
-2.75331e-13
-2.64129e-13
-2.55924e-13
-2.46715e-13
-2.401e-13
-2.3355e-13
-2.25904e-13
-2.17705e-13
-2.09202e-13
-2.02007e-13
-1.93942e-13
-1.85138e-13
-1.80669e-13
-1.73171e-13
-1.71396e-13
-1.64253e-13
-1.54407e-13
-1.42587e-13
-1.32766e-13
-1.27486e-13
-1.21328e-13
-1.15521e-13
-1.06769e-13
-1.0071e-13
-9.1932e-14
-8.39655e-14
-8.08131e-14
-7.70444e-14
-7.40203e-14
-6.85864e-14
-6.27973e-14
-5.15945e-14
-4.29801e-14
-3.61893e-14
-2.70971e-14
-1.96811e-14
-1.26087e-14
-4.49036e-15
-6.89346e-13
-6.88393e-13
-6.90581e-13
-6.9375e-13
-6.94701e-13
-6.90245e-13
-6.85102e-13
-6.82543e-13
-6.76535e-13
-6.72829e-13
-6.6779e-13
-6.61344e-13
-6.52462e-13
-6.4267e-13
-6.32171e-13
-6.2448e-13
-6.18422e-13
-6.11389e-13
-6.0367e-13
-5.94707e-13
-5.84142e-13
-5.7511e-13
-5.66419e-13
-5.59499e-13
-5.50994e-13
-5.4552e-13
-5.40726e-13
-5.32625e-13
-5.23099e-13
-5.09932e-13
-5.0315e-13
-4.96205e-13
-4.89911e-13
-4.86943e-13
-4.82904e-13
-4.78174e-13
-4.68112e-13
-4.58077e-13
-4.47095e-13
-4.36107e-13
-4.31387e-13
-4.26737e-13
-4.27033e-13
-4.23183e-13
-4.1592e-13
-4.04882e-13
-3.92941e-13
-3.83476e-13
-3.77914e-13
-3.72629e-13
-3.61236e-13
-3.51645e-13
-3.42525e-13
-3.3405e-13
-3.27091e-13
-3.18826e-13
-3.08278e-13
-3.05744e-13
-3.05786e-13
-2.99709e-13
-2.91519e-13
-2.79487e-13
-2.71207e-13
-2.65426e-13
-2.58699e-13
-2.5038e-13
-2.42893e-13
-2.32469e-13
-2.24545e-13
-2.14653e-13
-2.06275e-13
-1.99357e-13
-1.90489e-13
-1.84646e-13
-1.8018e-13
-1.75528e-13
-1.7031e-13
-1.64289e-13
-1.53882e-13
-1.43378e-13
-1.37968e-13
-1.29551e-13
-1.17473e-13
-1.1184e-13
-1.06446e-13
-1.03027e-13
-9.67105e-14
-8.73238e-14
-8.06933e-14
-7.5036e-14
-7.1549e-14
-6.80028e-14
-6.09759e-14
-5.26261e-14
-4.23265e-14
-3.36096e-14
-2.77077e-14
-2.06921e-14
-1.62392e-14
-5.1629e-15
-6.90413e-13
-6.91537e-13
-6.92332e-13
-6.88543e-13
-6.92963e-13
-6.87314e-13
-6.85152e-13
-6.8277e-13
-6.8062e-13
-6.75116e-13
-6.65983e-13
-6.56655e-13
-6.48867e-13
-6.43335e-13
-6.4089e-13
-6.30687e-13
-6.16489e-13
-6.0804e-13
-6.02745e-13
-5.93609e-13
-5.84686e-13
-5.7701e-13
-5.67157e-13
-5.53563e-13
-5.46416e-13
-5.432e-13
-5.3995e-13
-5.34545e-13
-5.23003e-13
-5.14025e-13
-5.0717e-13
-4.99218e-13
-4.90664e-13
-4.84909e-13
-4.78583e-13
-4.77601e-13
-4.68413e-13
-4.5665e-13
-4.48239e-13
-4.3879e-13
-4.34643e-13
-4.31773e-13
-4.26822e-13
-4.20358e-13
-4.10938e-13
-4.01117e-13
-3.92719e-13
-3.87302e-13
-3.79216e-13
-3.66262e-13
-3.56727e-13
-3.50662e-13
-3.4464e-13
-3.38118e-13
-3.26447e-13
-3.19764e-13
-3.10483e-13
-3.05383e-13
-3.04705e-13
-2.98426e-13
-2.89867e-13
-2.80844e-13
-2.75376e-13
-2.67865e-13
-2.58133e-13
-2.49443e-13
-2.41698e-13
-2.32489e-13
-2.25188e-13
-2.17064e-13
-2.10041e-13
-2.02685e-13
-1.93581e-13
-1.86031e-13
-1.79666e-13
-1.74116e-13
-1.70597e-13
-1.63552e-13
-1.53755e-13
-1.44033e-13
-1.36797e-13
-1.30274e-13
-1.19625e-13
-1.1019e-13
-1.05629e-13
-1.00864e-13
-9.43829e-14
-8.67769e-14
-7.94681e-14
-7.55579e-14
-7.36112e-14
-6.83708e-14
-6.27393e-14
-5.12278e-14
-4.22973e-14
-3.61022e-14
-2.93042e-14
-1.98542e-14
-1.30118e-14
-4.77911e-15
-6.91449e-13
-6.9583e-13
-6.92333e-13
-6.877e-13
-6.84196e-13
-6.87778e-13
-6.8793e-13
-6.86158e-13
-6.79711e-13
-6.72084e-13
-6.63637e-13
-6.58301e-13
-6.48507e-13
-6.41127e-13
-6.3974e-13
-6.33882e-13
-6.23286e-13
-6.1267e-13
-6.00244e-13
-5.88388e-13
-5.83507e-13
-5.76036e-13
-5.61874e-13
-5.52529e-13
-5.49608e-13
-5.46143e-13
-5.41542e-13
-5.3339e-13
-5.25265e-13
-5.16363e-13
-5.07801e-13
-5.0039e-13
-4.91407e-13
-4.8542e-13
-4.79611e-13
-4.76822e-13
-4.67392e-13
-4.56616e-13
-4.4569e-13
-4.38334e-13
-4.34732e-13
-4.33862e-13
-4.27054e-13
-4.1886e-13
-4.08689e-13
-3.98792e-13
-3.91319e-13
-3.85699e-13
-3.78014e-13
-3.69911e-13
-3.60361e-13
-3.53406e-13
-3.45464e-13
-3.37425e-13
-3.26977e-13
-3.18324e-13
-3.11752e-13
-3.06886e-13
-3.0377e-13
-2.96978e-13
-2.89661e-13
-2.81373e-13
-2.73046e-13
-2.66927e-13
-2.6134e-13
-2.54675e-13
-2.46547e-13
-2.33877e-13
-2.24906e-13
-2.14539e-13
-2.06379e-13
-1.99912e-13
-1.93366e-13
-1.86187e-13
-1.76386e-13
-1.71113e-13
-1.69009e-13
-1.63252e-13
-1.56121e-13
-1.46017e-13
-1.38105e-13
-1.32402e-13
-1.1976e-13
-1.09387e-13
-1.0236e-13
-9.76467e-14
-9.40579e-14
-8.95274e-14
-8.17723e-14
-7.70009e-14
-7.25294e-14
-6.80286e-14
-6.05373e-14
-5.49181e-14
-4.69178e-14
-3.65518e-14
-2.93262e-14
-2.21477e-14
-1.25898e-14
-2.35656e-15
-6.88045e-13
-6.97404e-13
-6.93934e-13
-6.84899e-13
-6.88731e-13
-6.92312e-13
-6.9051e-13
-6.86258e-13
-6.77912e-13
-6.64718e-13
-6.60994e-13
-6.57084e-13
-6.53107e-13
-6.43116e-13
-6.3645e-13
-6.356e-13
-6.25018e-13
-6.15203e-13
-6.05074e-13
-5.91586e-13
-5.81015e-13
-5.69726e-13
-5.52777e-13
-5.49193e-13
-5.50194e-13
-5.49443e-13
-5.415e-13
-5.32331e-13
-5.24246e-13
-5.19377e-13
-5.09289e-13
-4.99818e-13
-4.91483e-13
-4.88483e-13
-4.85126e-13
-4.75623e-13
-4.65061e-13
-4.56393e-13
-4.45812e-13
-4.40771e-13
-4.37419e-13
-4.34314e-13
-4.2539e-13
-4.19238e-13
-4.08901e-13
-3.96953e-13
-3.87519e-13
-3.82032e-13
-3.78158e-13
-3.698e-13
-3.62477e-13
-3.52805e-13
-3.4398e-13
-3.35081e-13
-3.25533e-13
-3.19901e-13
-3.14439e-13
-3.08189e-13
-3.02116e-13
-2.97707e-13
-2.91776e-13
-2.8227e-13
-2.73929e-13
-2.66856e-13
-2.57718e-13
-2.5283e-13
-2.47264e-13
-2.3507e-13
-2.25913e-13
-2.17663e-13
-2.07937e-13
-2.00178e-13
-1.94712e-13
-1.88025e-13
-1.78291e-13
-1.73617e-13
-1.67734e-13
-1.60028e-13
-1.55082e-13
-1.48355e-13
-1.40829e-13
-1.3151e-13
-1.17496e-13
-1.07193e-13
-1.03079e-13
-9.99485e-14
-9.61344e-14
-8.75117e-14
-8.0853e-14
-7.65418e-14
-7.21359e-14
-6.82076e-14
-5.88398e-14
-5.41064e-14
-4.70125e-14
-3.97654e-14
-2.95187e-14
-2.10151e-14
-1.06225e-14
-1.17669e-15
-6.9323e-13
-6.94028e-13
-6.93388e-13
-6.89962e-13
-6.87254e-13
-6.90792e-13
-6.90052e-13
-6.83916e-13
-6.75908e-13
-6.65286e-13
-6.5711e-13
-6.56258e-13
-6.55178e-13
-6.44399e-13
-6.37718e-13
-6.32795e-13
-6.28949e-13
-6.20467e-13
-6.02172e-13
-5.84382e-13
-5.68659e-13
-5.64673e-13
-5.62897e-13
-5.60427e-13
-5.55413e-13
-5.48928e-13
-5.3841e-13
-5.29848e-13
-5.25903e-13
-5.21252e-13
-5.1224e-13
-4.98828e-13
-4.92594e-13
-4.84427e-13
-4.7927e-13
-4.73244e-13
-4.66962e-13
-4.61612e-13
-4.50909e-13
-4.39411e-13
-4.32648e-13
-4.2807e-13
-4.23439e-13
-4.19323e-13
-4.12511e-13
-4.0203e-13
-3.90519e-13
-3.81131e-13
-3.74879e-13
-3.69456e-13
-3.62098e-13
-3.56128e-13
-3.47112e-13
-3.35506e-13
-3.27056e-13
-3.20948e-13
-3.14078e-13
-3.02693e-13
-2.98115e-13
-2.97005e-13
-2.96159e-13
-2.879e-13
-2.76362e-13
-2.6435e-13
-2.54757e-13
-2.49359e-13
-2.41787e-13
-2.30718e-13
-2.21525e-13
-2.17003e-13
-2.16223e-13
-2.06403e-13
-1.95997e-13
-1.9087e-13
-1.81231e-13
-1.71756e-13
-1.63728e-13
-1.56267e-13
-1.50851e-13
-1.46556e-13
-1.39944e-13
-1.30725e-13
-1.22542e-13
-1.1343e-13
-1.06773e-13
-9.65473e-14
-9.31145e-14
-8.92714e-14
-8.14369e-14
-7.82393e-14
-7.16435e-14
-6.36359e-14
-5.91404e-14
-5.35518e-14
-4.71904e-14
-3.73897e-14
-2.92858e-14
-1.95629e-14
-1.06893e-14
-3.44999e-15
-6.92489e-13
-6.92083e-13
-6.89952e-13
-6.90855e-13
-6.93444e-13
-6.93075e-13
-6.89793e-13
-6.82955e-13
-6.74239e-13
-6.66647e-13
-6.608e-13
-6.55212e-13
-6.51507e-13
-6.42265e-13
-6.38253e-13
-6.32708e-13
-6.28961e-13
-6.19837e-13
-5.97249e-13
-5.8582e-13
-5.81386e-13
-5.74315e-13
-5.63772e-13
-5.54242e-13
-5.51362e-13
-5.4486e-13
-5.34022e-13
-5.28007e-13
-5.2325e-13
-5.18599e-13
-5.12134e-13
-5.04399e-13
-4.98387e-13
-4.91873e-13
-4.80245e-13
-4.72235e-13
-4.65566e-13
-4.56734e-13
-4.48753e-13
-4.39662e-13
-4.33882e-13
-4.31569e-13
-4.24628e-13
-4.22961e-13
-4.17221e-13
-4.02257e-13
-3.86791e-13
-3.73258e-13
-3.72267e-13
-3.71231e-13
-3.67068e-13
-3.59593e-13
-3.46929e-13
-3.35534e-13
-3.24464e-13
-3.18075e-13
-3.14532e-13
-3.08792e-13
-3.00222e-13
-2.94179e-13
-2.91694e-13
-2.84714e-13
-2.77302e-13
-2.68778e-13
-2.60345e-13
-2.51475e-13
-2.42583e-13
-2.32555e-13
-2.2645e-13
-2.19379e-13
-2.11977e-13
-2.06368e-13
-1.94938e-13
-1.82537e-13
-1.75405e-13
-1.72165e-13
-1.6759e-13
-1.60083e-13
-1.55606e-13
-1.49549e-13
-1.40613e-13
-1.30925e-13
-1.18882e-13
-1.08115e-13
-9.97898e-14
-9.60713e-14
-9.40896e-14
-9.07956e-14
-8.35254e-14
-7.67148e-14
-6.92635e-14
-6.39178e-14
-5.94917e-14
-5.47792e-14
-4.56215e-14
-3.57942e-14
-2.92093e-14
-2.10271e-14
-1.20588e-14
-1.87337e-15
-6.94792e-13
-6.96576e-13
-6.91477e-13
-6.85203e-13
-6.89128e-13
-6.91993e-13
-6.91808e-13
-6.84096e-13
-6.71623e-13
-6.68294e-13
-6.61723e-13
-6.51844e-13
-6.45717e-13
-6.42153e-13
-6.39372e-13
-6.35203e-13
-6.28628e-13
-6.17584e-13
-6.01058e-13
-5.87967e-13
-5.80187e-13
-5.71886e-13
-5.6762e-13
-5.60463e-13
-5.51296e-13
-5.41419e-13
-5.33157e-13
-5.28143e-13
-5.26485e-13
-5.1953e-13
-5.1298e-13
-5.05558e-13
-4.95115e-13
-4.84876e-13
-4.80663e-13
-4.734e-13
-4.6467e-13
-4.55861e-13
-4.50884e-13
-4.45388e-13
-4.40136e-13
-4.33094e-13
-4.215e-13
-4.13548e-13
-4.09978e-13
-4.02911e-13
-3.92117e-13
-3.82041e-13
-3.75556e-13
-3.68688e-13
-3.62035e-13
-3.55119e-13
-3.45461e-13
-3.36772e-13
-3.28762e-13
-3.23705e-13
-3.15542e-13
-3.08641e-13
-3.0093e-13
-2.95146e-13
-2.88777e-13
-2.82042e-13
-2.75829e-13
-2.6815e-13
-2.57552e-13
-2.47327e-13
-2.41163e-13
-2.33339e-13
-2.2555e-13
-2.18298e-13
-2.10571e-13
-2.06812e-13
-1.98996e-13
-1.88874e-13
-1.77623e-13
-1.72472e-13
-1.68508e-13
-1.61581e-13
-1.5602e-13
-1.46967e-13
-1.41001e-13
-1.31716e-13
-1.19148e-13
-1.09617e-13
-1.02026e-13
-9.67788e-14
-9.48698e-14
-9.00202e-14
-8.29454e-14
-7.66649e-14
-6.89117e-14
-6.30567e-14
-5.6471e-14
-5.18327e-14
-4.52146e-14
-3.67065e-14
-2.78516e-14
-1.7267e-14
-8.06312e-15
9.023e-16
-6.94749e-13
-6.9405e-13
-6.93978e-13
-6.9087e-13
-6.87531e-13
-6.8984e-13
-6.88434e-13
-6.86721e-13
-6.78844e-13
-6.64488e-13
-6.56246e-13
-6.48973e-13
-6.46771e-13
-6.45099e-13
-6.40984e-13
-6.34428e-13
-6.24607e-13
-6.17863e-13
-6.08153e-13
-5.92694e-13
-5.80287e-13
-5.67673e-13
-5.62429e-13
-5.55452e-13
-5.52655e-13
-5.46574e-13
-5.36491e-13
-5.30676e-13
-5.24974e-13
-5.19488e-13
-5.13938e-13
-5.05461e-13
-4.95266e-13
-4.83936e-13
-4.77416e-13
-4.71808e-13
-4.67239e-13
-4.57194e-13
-4.51625e-13
-4.46138e-13
-4.36657e-13
-4.27394e-13
-4.20671e-13
-4.1397e-13
-4.12635e-13
-4.07301e-13
-3.96331e-13
-3.84181e-13
-3.75743e-13
-3.66202e-13
-3.59036e-13
-3.54848e-13
-3.46987e-13
-3.37923e-13
-3.2934e-13
-3.21836e-13
-3.14888e-13
-3.07629e-13
-3.00764e-13
-2.97204e-13
-2.92439e-13
-2.88443e-13
-2.81197e-13
-2.68667e-13
-2.54351e-13
-2.40315e-13
-2.33297e-13
-2.28414e-13
-2.24746e-13
-2.2446e-13
-2.18246e-13
-2.09185e-13
-2.01752e-13
-1.91255e-13
-1.78701e-13
-1.69708e-13
-1.65236e-13
-1.59456e-13
-1.55234e-13
-1.46702e-13
-1.40273e-13
-1.31981e-13
-1.20901e-13
-1.13088e-13
-1.04088e-13
-9.57151e-14
-9.14818e-14
-8.58347e-14
-8.21086e-14
-7.71434e-14
-6.7488e-14
-5.88263e-14
-5.35105e-14
-4.90398e-14
-4.07727e-14
-3.22915e-14
-2.41312e-14
-1.54414e-14
-5.94802e-15
5.17866e-18
-6.93013e-13
-6.92305e-13
-6.91433e-13
-6.92818e-13
-6.93092e-13
-6.87669e-13
-6.85717e-13
-6.82954e-13
-6.76966e-13
-6.69723e-13
-6.5697e-13
-6.4749e-13
-6.46526e-13
-6.46478e-13
-6.41347e-13
-6.3694e-13
-6.2444e-13
-6.16097e-13
-6.07775e-13
-5.93909e-13
-5.84414e-13
-5.6893e-13
-5.58757e-13
-5.54204e-13
-5.48355e-13
-5.43408e-13
-5.38899e-13
-5.32281e-13
-5.26752e-13
-5.21426e-13
-5.13102e-13
-5.04147e-13
-4.94132e-13
-4.86058e-13
-4.81435e-13
-4.73359e-13
-4.64861e-13
-4.5744e-13
-4.53161e-13
-4.44437e-13
-4.36439e-13
-4.27124e-13
-4.20858e-13
-4.18522e-13
-4.1569e-13
-4.05812e-13
-3.9319e-13
-3.80373e-13
-3.72543e-13
-3.6474e-13
-3.61958e-13
-3.56776e-13
-3.46473e-13
-3.37399e-13
-3.28035e-13
-3.24764e-13
-3.17731e-13
-3.09947e-13
-2.99954e-13
-2.91061e-13
-2.89061e-13
-2.81258e-13
-2.75868e-13
-2.71283e-13
-2.57292e-13
-2.43163e-13
-2.33405e-13
-2.27642e-13
-2.25221e-13
-2.27459e-13
-2.19449e-13
-2.11773e-13
-2.02432e-13
-1.90398e-13
-1.76616e-13
-1.65919e-13
-1.64835e-13
-1.62968e-13
-1.58962e-13
-1.50365e-13
-1.44126e-13
-1.35531e-13
-1.2065e-13
-1.09597e-13
-9.91091e-14
-9.0149e-14
-9.22561e-14
-9.03865e-14
-8.25461e-14
-7.56461e-14
-6.56977e-14
-5.94642e-14
-5.30236e-14
-4.7052e-14
-4.24921e-14
-3.54928e-14
-2.04822e-14
-6.77945e-15
1.56222e-15
-1.29646e-15
-6.96088e-13
-6.94167e-13
-6.91954e-13
-6.93567e-13
-6.92159e-13
-6.8703e-13
-6.87186e-13
-6.83825e-13
-6.76437e-13
-6.66926e-13
-6.58545e-13
-6.50799e-13
-6.42926e-13
-6.39846e-13
-6.36647e-13
-6.30903e-13
-6.27566e-13
-6.21502e-13
-6.10083e-13
-5.95347e-13
-5.83656e-13
-5.75802e-13
-5.64884e-13
-5.5502e-13
-5.48387e-13
-5.37885e-13
-5.3445e-13
-5.31639e-13
-5.28119e-13
-5.23844e-13
-5.15282e-13
-5.04869e-13
-4.93004e-13
-4.83593e-13
-4.78072e-13
-4.71122e-13
-4.66899e-13
-4.60292e-13
-4.55394e-13
-4.43016e-13
-4.35054e-13
-4.24248e-13
-4.20513e-13
-4.20788e-13
-4.14007e-13
-4.05648e-13
-3.94037e-13
-3.83801e-13
-3.7373e-13
-3.64556e-13
-3.58001e-13
-3.54849e-13
-3.46472e-13
-3.40371e-13
-3.33124e-13
-3.23661e-13
-3.15972e-13
-3.07708e-13
-2.99617e-13
-2.93738e-13
-2.91465e-13
-2.91212e-13
-2.8049e-13
-2.6814e-13
-2.49633e-13
-2.39804e-13
-2.33268e-13
-2.29929e-13
-2.25157e-13
-2.22776e-13
-2.165e-13
-2.15159e-13
-2.08927e-13
-1.96115e-13
-1.75475e-13
-1.59134e-13
-1.57948e-13
-1.63945e-13
-1.61002e-13
-1.50394e-13
-1.43071e-13
-1.32709e-13
-1.22716e-13
-1.1408e-13
-1.03724e-13
-9.30789e-14
-8.70666e-14
-8.62347e-14
-8.09422e-14
-7.41787e-14
-6.36351e-14
-5.87793e-14
-5.29511e-14
-4.57942e-14
-3.80382e-14
-3.15978e-14
-1.93831e-14
-8.38507e-15
-2.12405e-15
-1.41746e-15
-6.93711e-13
-6.93378e-13
-6.85718e-13
-6.94717e-13
-6.9437e-13
-6.91307e-13
-6.85116e-13
-6.78368e-13
-6.71569e-13
-6.61985e-13
-6.5723e-13
-6.52183e-13
-6.51095e-13
-6.44913e-13
-6.3859e-13
-6.34545e-13
-6.29635e-13
-6.22837e-13
-6.1087e-13
-5.96329e-13
-5.7742e-13
-5.63581e-13
-5.54588e-13
-5.52907e-13
-5.48386e-13
-5.43899e-13
-5.37365e-13
-5.31133e-13
-5.28836e-13
-5.26031e-13
-5.18415e-13
-5.05606e-13
-4.95654e-13
-4.87647e-13
-4.83243e-13
-4.73104e-13
-4.63602e-13
-4.58783e-13
-4.5288e-13
-4.42897e-13
-4.33561e-13
-4.29527e-13
-4.25112e-13
-4.19276e-13
-4.08357e-13
-3.99173e-13
-3.91964e-13
-3.84167e-13
-3.75707e-13
-3.68305e-13
-3.61605e-13
-3.55276e-13
-3.44048e-13
-3.34067e-13
-3.35496e-13
-3.34655e-13
-3.19292e-13
-3.04343e-13
-2.95525e-13
-2.87658e-13
-2.85235e-13
-2.82408e-13
-2.81355e-13
-2.71379e-13
-2.54502e-13
-2.45261e-13
-2.32234e-13
-2.3063e-13
-2.25302e-13
-2.20082e-13
-2.16115e-13
-2.15839e-13
-2.09688e-13
-1.93954e-13
-1.77054e-13
-1.63949e-13
-1.6099e-13
-1.64443e-13
-1.57355e-13
-1.47835e-13
-1.41263e-13
-1.33502e-13
-1.25487e-13
-1.15691e-13
-1.05012e-13
-9.25802e-14
-8.68978e-14
-8.64427e-14
-7.96514e-14
-7.24047e-14
-6.40048e-14
-5.73545e-14
-4.97233e-14
-4.38995e-14
-3.85956e-14
-3.03686e-14
-1.96303e-14
-1.00964e-14
-1.18755e-15
5.46318e-16
-6.90362e-13
-7.00187e-13
-6.94906e-13
-6.90032e-13
-6.90557e-13
-6.89091e-13
-6.84373e-13
-6.83066e-13
-6.72329e-13
-6.58201e-13
-6.54125e-13
-6.52283e-13
-6.49508e-13
-6.45879e-13
-6.41314e-13
-6.31734e-13
-6.21115e-13
-6.13387e-13
-6.07689e-13
-5.9877e-13
-5.91808e-13
-5.83291e-13
-5.70714e-13
-5.5287e-13
-5.38989e-13
-5.32837e-13
-5.35185e-13
-5.3297e-13
-5.30237e-13
-5.2805e-13
-5.1917e-13
-5.06812e-13
-4.91668e-13
-4.79506e-13
-4.74216e-13
-4.69827e-13
-4.69781e-13
-4.65392e-13
-4.53781e-13
-4.47374e-13
-4.36181e-13
-4.25989e-13
-4.23643e-13
-4.16618e-13
-4.07647e-13
-3.98659e-13
-3.89138e-13
-3.84191e-13
-3.79315e-13
-3.70733e-13
-3.62718e-13
-3.53116e-13
-3.45728e-13
-3.38325e-13
-3.3344e-13
-3.27716e-13
-3.21248e-13
-3.13781e-13
-3.05128e-13
-2.93372e-13
-2.84001e-13
-2.77353e-13
-2.71759e-13
-2.66083e-13
-2.55924e-13
-2.47564e-13
-2.3859e-13
-2.31787e-13
-2.2583e-13
-2.22534e-13
-2.18629e-13
-2.10685e-13
-2.03071e-13
-1.94793e-13
-1.80072e-13
-1.69122e-13
-1.61492e-13
-1.59367e-13
-1.56959e-13
-1.48687e-13
-1.42038e-13
-1.31491e-13
-1.24045e-13
-1.14538e-13
-1.03602e-13
-9.42202e-14
-8.94072e-14
-8.49663e-14
-8.06603e-14
-7.19796e-14
-6.43013e-14
-6.02996e-14
-5.23098e-14
-4.35623e-14
-3.38301e-14
-2.54133e-14
-1.82299e-14
-1.1523e-14
-3.94128e-15
6.3939e-17
-6.8967e-13
-6.93896e-13
-6.95904e-13
-6.91703e-13
-6.90839e-13
-6.91976e-13
-6.81363e-13
-6.7004e-13
-6.64867e-13
-6.62714e-13
-6.60168e-13
-6.5626e-13
-6.53003e-13
-6.47359e-13
-6.41651e-13
-6.33026e-13
-6.26273e-13
-6.22222e-13
-6.12875e-13
-5.98354e-13
-5.78783e-13
-5.65191e-13
-5.55953e-13
-5.46247e-13
-5.46604e-13
-5.45077e-13
-5.40297e-13
-5.32825e-13
-5.28431e-13
-5.27194e-13
-5.21193e-13
-5.10237e-13
-4.97175e-13
-4.79847e-13
-4.6948e-13
-4.70221e-13
-4.71216e-13
-4.66786e-13
-4.59672e-13
-4.48455e-13
-4.33897e-13
-4.24634e-13
-4.17054e-13
-4.12302e-13
-4.07148e-13
-4.01464e-13
-3.94285e-13
-3.8543e-13
-3.78976e-13
-3.77685e-13
-3.68972e-13
-3.51115e-13
-3.40564e-13
-3.33202e-13
-3.27621e-13
-3.25939e-13
-3.21996e-13
-3.12857e-13
-3.00327e-13
-2.90564e-13
-2.87067e-13
-2.82506e-13
-2.75221e-13
-2.65962e-13
-2.51727e-13
-2.41374e-13
-2.36792e-13
-2.34451e-13
-2.29458e-13
-2.22355e-13
-2.15489e-13
-2.10697e-13
-2.03517e-13
-1.93332e-13
-1.81403e-13
-1.6585e-13
-1.60111e-13
-1.58418e-13
-1.59048e-13
-1.54162e-13
-1.45418e-13
-1.35001e-13
-1.2376e-13
-1.11765e-13
-1.01979e-13
-9.46876e-14
-9.00326e-14
-8.41959e-14
-7.80884e-14
-7.11117e-14
-6.46265e-14
-5.90662e-14
-5.28864e-14
-4.36446e-14
-3.30905e-14
-2.28134e-14
-1.4361e-14
-8.76356e-15
-2.11312e-15
-6.43409e-16
-6.88252e-13
-6.97095e-13
-6.9778e-13
-6.92753e-13
-6.89412e-13
-6.94869e-13
-6.91049e-13
-6.766e-13
-6.58215e-13
-6.54055e-13
-6.53127e-13
-6.54439e-13
-6.53365e-13
-6.50425e-13
-6.44987e-13
-6.34162e-13
-6.24477e-13
-6.16422e-13
-6.03711e-13
-5.94861e-13
-5.866e-13
-5.73364e-13
-5.61238e-13
-5.4716e-13
-5.45963e-13
-5.44042e-13
-5.42164e-13
-5.37201e-13
-5.29218e-13
-5.26236e-13
-5.17771e-13
-5.05759e-13
-4.95974e-13
-4.8074e-13
-4.68626e-13
-4.67687e-13
-4.6939e-13
-4.6759e-13
-4.59167e-13
-4.49139e-13
-4.32851e-13
-4.234e-13
-4.20624e-13
-4.15073e-13
-4.07293e-13
-3.99649e-13
-3.96705e-13
-3.8977e-13
-3.79053e-13
-3.67763e-13
-3.59817e-13
-3.5381e-13
-3.44637e-13
-3.3154e-13
-3.32337e-13
-3.29586e-13
-3.21347e-13
-3.14798e-13
-3.07203e-13
-2.92841e-13
-2.85288e-13
-2.78732e-13
-2.70294e-13
-2.62615e-13
-2.51428e-13
-2.43771e-13
-2.34521e-13
-2.3155e-13
-2.26102e-13
-2.25496e-13
-2.18045e-13
-2.13899e-13
-2.07004e-13
-1.92974e-13
-1.784e-13
-1.66442e-13
-1.63256e-13
-1.60175e-13
-1.55191e-13
-1.50071e-13
-1.44212e-13
-1.35404e-13
-1.24572e-13
-1.12233e-13
-1.05235e-13
-9.80214e-14
-9.05295e-14
-8.38146e-14
-7.80742e-14
-6.99697e-14
-6.30404e-14
-5.69046e-14
-4.88831e-14
-4.00143e-14
-3.2623e-14
-2.64418e-14
-1.27566e-14
-5.5969e-15
6.77411e-16
4.20098e-16
-6.95208e-13
-6.9425e-13
-6.90545e-13
-6.86615e-13
-6.88221e-13
-6.82852e-13
-6.78368e-13
-6.79623e-13
-6.7511e-13
-6.67264e-13
-6.62009e-13
-6.53031e-13
-6.46885e-13
-6.45684e-13
-6.43441e-13
-6.36003e-13
-6.2692e-13
-6.23595e-13
-6.11837e-13
-5.94738e-13
-5.74941e-13
-5.61974e-13
-5.56155e-13
-5.54437e-13
-5.47576e-13
-5.46329e-13
-5.42236e-13
-5.35429e-13
-5.29789e-13
-5.24675e-13
-5.17555e-13
-5.05251e-13
-4.93076e-13
-4.803e-13
-4.71891e-13
-4.70705e-13
-4.73954e-13
-4.67662e-13
-4.58141e-13
-4.47428e-13
-4.33559e-13
-4.20857e-13
-4.18437e-13
-4.1562e-13
-4.11708e-13
-4.00774e-13
-3.91579e-13
-3.8782e-13
-3.82673e-13
-3.70922e-13
-3.58986e-13
-3.53556e-13
-3.4623e-13
-3.3527e-13
-3.27227e-13
-3.24595e-13
-3.18918e-13
-3.13868e-13
-3.08007e-13
-2.98201e-13
-2.87315e-13
-2.7917e-13
-2.69676e-13
-2.61971e-13
-2.55257e-13
-2.4496e-13
-2.34899e-13
-2.26305e-13
-2.23229e-13
-2.25558e-13
-2.1727e-13
-2.12139e-13
-2.05196e-13
-1.93674e-13
-1.82434e-13
-1.69988e-13
-1.59656e-13
-1.55152e-13
-1.54537e-13
-1.55425e-13
-1.491e-13
-1.34138e-13
-1.23359e-13
-1.10451e-13
-1.05578e-13
-1.00317e-13
-9.29286e-14
-8.27178e-14
-7.36624e-14
-6.88748e-14
-6.31072e-14
-5.6271e-14
-5.05136e-14
-4.20501e-14
-3.16675e-14
-2.18788e-14
-1.31086e-14
-6.8843e-15
2.85378e-16
1.81028e-15
-6.94655e-13
-6.93368e-13
-6.90801e-13
-6.88461e-13
-6.94482e-13
-6.91613e-13
-6.78645e-13
-6.71952e-13
-6.67062e-13
-6.63878e-13
-6.62721e-13
-6.6047e-13
-6.48775e-13
-6.41379e-13
-6.38318e-13
-6.33212e-13
-6.2866e-13
-6.21282e-13
-6.08648e-13
-5.92193e-13
-5.77996e-13
-5.63607e-13
-5.54314e-13
-5.54709e-13
-5.54753e-13
-5.46082e-13
-5.38506e-13
-5.35702e-13
-5.33228e-13
-5.27297e-13
-5.19863e-13
-5.06937e-13
-4.9301e-13
-4.79449e-13
-4.68641e-13
-4.69214e-13
-4.6801e-13
-4.65681e-13
-4.61983e-13
-4.51792e-13
-4.37141e-13
-4.25078e-13
-4.18186e-13
-4.0994e-13
-4.07814e-13
-4.0223e-13
-3.94129e-13
-3.84657e-13
-3.77957e-13
-3.71059e-13
-3.59722e-13
-3.54006e-13
-3.46367e-13
-3.36547e-13
-3.33426e-13
-3.28842e-13
-3.17139e-13
-3.07841e-13
-3.03467e-13
-2.95378e-13
-2.89345e-13
-2.79156e-13
-2.70859e-13
-2.63497e-13
-2.54482e-13
-2.43475e-13
-2.36856e-13
-2.26701e-13
-2.20118e-13
-2.18187e-13
-2.16356e-13
-2.13101e-13
-2.06932e-13
-1.93815e-13
-1.81218e-13
-1.70874e-13
-1.64056e-13
-1.57384e-13
-1.56802e-13
-1.53518e-13
-1.46231e-13
-1.35929e-13
-1.24762e-13
-1.13209e-13
-1.04408e-13
-9.52437e-14
-8.85686e-14
-8.43542e-14
-7.8416e-14
-6.91713e-14
-6.21496e-14
-5.50735e-14
-4.74494e-14
-3.92727e-14
-3.00849e-14
-2.36266e-14
-1.48347e-14
-4.94518e-15
6.65408e-16
8.09114e-17
-6.8952e-13
-6.92394e-13
-6.92436e-13
-6.9091e-13
-6.89215e-13
-6.82939e-13
-6.78264e-13
-6.74826e-13
-6.73645e-13
-6.69279e-13
-6.63822e-13
-6.5918e-13
-6.51571e-13
-6.42905e-13
-6.36874e-13
-6.29449e-13
-6.26596e-13
-6.19756e-13
-6.06942e-13
-5.9452e-13
-5.77859e-13
-5.64524e-13
-5.59663e-13
-5.55774e-13
-5.47386e-13
-5.43367e-13
-5.42781e-13
-5.39945e-13
-5.32612e-13
-5.22774e-13
-5.14726e-13
-5.05604e-13
-4.9267e-13
-4.8056e-13
-4.71146e-13
-4.74729e-13
-4.75692e-13
-4.67759e-13
-4.57101e-13
-4.44487e-13
-4.3382e-13
-4.27769e-13
-4.19953e-13
-4.10102e-13
-4.04931e-13
-3.9825e-13
-3.96582e-13
-3.94768e-13
-3.81375e-13
-3.67677e-13
-3.57601e-13
-3.55128e-13
-3.46789e-13
-3.35883e-13
-3.31932e-13
-3.28476e-13
-3.20476e-13
-3.09592e-13
-3.01216e-13
-2.94372e-13
-2.91592e-13
-2.825e-13
-2.71932e-13
-2.62255e-13
-2.50608e-13
-2.42862e-13
-2.33826e-13
-2.28145e-13
-2.21079e-13
-2.16507e-13
-2.12315e-13
-2.12885e-13
-2.0766e-13
-1.93773e-13
-1.81296e-13
-1.70876e-13
-1.66018e-13
-1.60379e-13
-1.52508e-13
-1.44959e-13
-1.48721e-13
-1.43151e-13
-1.26385e-13
-1.13913e-13
-1.04466e-13
-9.40594e-14
-8.66628e-14
-8.3733e-14
-7.8013e-14
-6.93226e-14
-6.14391e-14
-5.52469e-14
-4.82766e-14
-3.79549e-14
-3.24171e-14
-2.22941e-14
-1.20688e-14
-3.40149e-15
1.58294e-15
-3.01762e-16
-6.96721e-13
-6.93621e-13
-6.91464e-13
-6.8841e-13
-6.83493e-13
-6.80845e-13
-6.77758e-13
-6.77732e-13
-6.74965e-13
-6.69721e-13
-6.63037e-13
-6.58661e-13
-6.52572e-13
-6.46648e-13
-6.3881e-13
-6.27846e-13
-6.17602e-13
-6.11445e-13
-6.06652e-13
-5.98485e-13
-5.80433e-13
-5.68623e-13
-5.59845e-13
-5.52884e-13
-5.49457e-13
-5.4581e-13
-5.43827e-13
-5.40428e-13
-5.30834e-13
-5.25644e-13
-5.15984e-13
-5.04804e-13
-4.90906e-13
-4.78516e-13
-4.73593e-13
-4.74244e-13
-4.72195e-13
-4.66239e-13
-4.56889e-13
-4.45776e-13
-4.34191e-13
-4.25116e-13
-4.20601e-13
-4.14602e-13
-4.09625e-13
-4.02666e-13
-3.92444e-13
-3.85275e-13
-3.80293e-13
-3.71953e-13
-3.64935e-13
-3.54962e-13
-3.45211e-13
-3.36773e-13
-3.30462e-13
-3.23131e-13
-3.18749e-13
-3.11509e-13
-3.00876e-13
-2.94678e-13
-2.92422e-13
-2.84632e-13
-2.73026e-13
-2.60434e-13
-2.51728e-13
-2.43053e-13
-2.33646e-13
-2.26393e-13
-2.20832e-13
-2.16615e-13
-2.14078e-13
-2.13177e-13
-2.06481e-13
-1.9072e-13
-1.80146e-13
-1.71087e-13
-1.65465e-13
-1.5987e-13
-1.55912e-13
-1.51492e-13
-1.45294e-13
-1.37106e-13
-1.27502e-13
-1.17543e-13
-1.09513e-13
-9.42571e-14
-8.55945e-14
-8.06964e-14
-7.76554e-14
-6.61423e-14
-5.87e-14
-5.42821e-14
-5.22957e-14
-3.96924e-14
-2.83354e-14
-2.14047e-14
-1.36093e-14
-9.76211e-16
5.47637e-16
-1.49005e-15
-6.99261e-13
-6.92925e-13
-6.87112e-13
-6.87645e-13
-6.79894e-13
-6.80961e-13
-6.78103e-13
-6.78903e-13
-6.78283e-13
-6.68376e-13
-6.622e-13
-6.59254e-13
-6.57396e-13
-6.4808e-13
-6.38945e-13
-6.30954e-13
-6.22364e-13
-6.11847e-13
-6.05631e-13
-5.9187e-13
-5.80368e-13
-5.68228e-13
-5.56879e-13
-5.51186e-13
-5.477e-13
-5.49389e-13
-5.449e-13
-5.39236e-13
-5.31443e-13
-5.23829e-13
-5.16304e-13
-5.06749e-13
-4.91301e-13
-4.81236e-13
-4.72209e-13
-4.69817e-13
-4.70532e-13
-4.66542e-13
-4.57385e-13
-4.46498e-13
-4.37468e-13
-4.28397e-13
-4.20108e-13
-4.13686e-13
-4.07757e-13
-4.0085e-13
-3.92364e-13
-3.87555e-13
-3.82926e-13
-3.72473e-13
-3.61669e-13
-3.50922e-13
-3.44648e-13
-3.39513e-13
-3.33744e-13
-3.273e-13
-3.20014e-13
-3.1007e-13
-3.0339e-13
-2.98575e-13
-2.93468e-13
-2.83323e-13
-2.69095e-13
-2.58905e-13
-2.49823e-13
-2.40895e-13
-2.31699e-13
-2.27357e-13
-2.20488e-13
-2.20322e-13
-2.15096e-13
-2.09299e-13
-1.99848e-13
-1.88143e-13
-1.78588e-13
-1.69346e-13
-1.6896e-13
-1.67002e-13
-1.57607e-13
-1.48884e-13
-1.42456e-13
-1.34753e-13
-1.26237e-13
-1.16363e-13
-1.04323e-13
-9.19497e-14
-8.6891e-14
-8.33477e-14
-7.66164e-14
-7.18932e-14
-6.59996e-14
-5.47577e-14
-4.50001e-14
-3.72544e-14
-2.85387e-14
-1.89816e-14
-1.17587e-14
-7.14465e-15
-2.29089e-15
-1.44711e-15
-6.97187e-13
-6.91192e-13
-6.8957e-13
-6.87647e-13
-6.84271e-13
-6.80788e-13
-6.75261e-13
-6.77856e-13
-6.7753e-13
-6.72084e-13
-6.65735e-13
-6.58603e-13
-6.56049e-13
-6.4625e-13
-6.3598e-13
-6.25992e-13
-6.16176e-13
-6.11983e-13
-6.0625e-13
-5.94377e-13
-5.81921e-13
-5.69729e-13
-5.58897e-13
-5.54824e-13
-5.53631e-13
-5.47024e-13
-5.40745e-13
-5.33379e-13
-5.26745e-13
-5.24396e-13
-5.18178e-13
-5.11173e-13
-4.99195e-13
-4.88028e-13
-4.70189e-13
-4.66124e-13
-4.65653e-13
-4.63007e-13
-4.5722e-13
-4.46464e-13
-4.39319e-13
-4.28629e-13
-4.22762e-13
-4.12102e-13
-4.081e-13
-4.02307e-13
-3.97692e-13
-3.89379e-13
-3.79195e-13
-3.65214e-13
-3.60947e-13
-3.56125e-13
-3.48823e-13
-3.35653e-13
-3.2843e-13
-3.21971e-13
-3.14612e-13
-3.12478e-13
-3.04369e-13
-3.02694e-13
-3.02884e-13
-2.80667e-13
-2.67087e-13
-2.60765e-13
-2.52429e-13
-2.44196e-13
-2.34447e-13
-2.27572e-13
-2.17636e-13
-2.14441e-13
-2.10033e-13
-2.12172e-13
-2.0511e-13
-1.92465e-13
-1.76537e-13
-1.64953e-13
-1.68815e-13
-1.65592e-13
-1.57668e-13
-1.51456e-13
-1.44413e-13
-1.35211e-13
-1.25172e-13
-1.14444e-13
-1.04929e-13
-9.33749e-14
-8.60901e-14
-8.38471e-14
-7.80446e-14
-6.76999e-14
-5.96906e-14
-5.42915e-14
-4.59659e-14
-3.66646e-14
-3.27362e-14
-2.56826e-14
-1.21328e-14
-3.42491e-15
2.59145e-15
-3.71631e-16
-6.91615e-13
-6.93684e-13
-6.93328e-13
-6.87322e-13
-6.81719e-13
-6.82114e-13
-6.79965e-13
-6.76165e-13
-6.75338e-13
-6.7087e-13
-6.67331e-13
-6.6244e-13
-6.54223e-13
-6.44826e-13
-6.36828e-13
-6.29403e-13
-6.2388e-13
-6.19248e-13
-6.08641e-13
-5.91835e-13
-5.73061e-13
-5.59489e-13
-5.56033e-13
-5.56534e-13
-5.54037e-13
-5.46527e-13
-5.3755e-13
-5.33429e-13
-5.26805e-13
-5.25507e-13
-5.22357e-13
-5.06866e-13
-4.93861e-13
-4.85405e-13
-4.76794e-13
-4.72262e-13
-4.68165e-13
-4.61806e-13
-4.55449e-13
-4.47073e-13
-4.38572e-13
-4.28276e-13
-4.20326e-13
-4.15379e-13
-4.13261e-13
-4.03551e-13
-3.9571e-13
-3.83242e-13
-3.79997e-13
-3.7209e-13
-3.60118e-13
-3.54733e-13
-3.4825e-13
-3.39666e-13
-3.31464e-13
-3.18182e-13
-3.06534e-13
-3.10031e-13
-3.13731e-13
-3.04669e-13
-2.94641e-13
-2.82878e-13