/*--------------------------------*- C++ -*----------------------------------*\
| =========                 |                                                 |
| \\      /  F ield         | OpenFOAM: The Open Source CFD Toolbox           |
|  \\    /   O peration     | Version:  v2012                                 |
|   \\  /    A nd           | Website:  www.openfoam.com                      |
|    \\/     M anipulation  |                                                 |
\*---------------------------------------------------------------------------*/
FoamFile
{
    version     2.0;
    format      ascii;
    class       volScalarField;
    location    "2.5";
    object      Psi_z;
}
// * * * * * * * * * * * * * * * * * * * * * * * * * * * * * * * * * * * * * //

dimensions      [0 2 -1 0 0 0 0];


internalField   nonuniform List<scalar> 
65536
(
8.72498e-06
2.61744e-05
4.36221e-05
6.10672e-05
7.85084e-05
9.59448e-05
0.000113375
0.000130798
0.000148213
0.000165619
0.000183013
0.000200396
0.000217766
0.000235121
0.000252461
0.000269784
0.000287088
0.000304373
0.000321636
0.000338877
0.000356093
0.000373283
0.000390446
0.00040758
0.000424683
0.000441753
0.000458788
0.000475787
0.000492748
0.000509668
0.000526545
0.000543378
0.000560164
0.000576901
0.000593586
0.000610217
0.000626791
0.000643307
0.000659761
0.000676151
0.000692473
0.000708726
0.000724906
0.000741011
0.000757037
0.000772981
0.00078884
0.000804611
0.000820291
0.000835876
0.000851364
0.00086675
0.000882031
0.000897203
0.000912264
0.000927209
0.000942035
0.000956738
0.000971315
0.00098576
0.00100007
0.00101425
0.00102828
0.00104216
0.0010559
0.00106948
0.00108291
0.00109617
0.00110927
0.0011222
0.00113496
0.00114754
0.00115994
0.00117216
0.00118418
0.00119602
0.00120766
0.0012191
0.00123034
0.00124137
0.00125219
0.0012628
0.00127319
0.00128336
0.00129331
0.00130304
0.00131253
0.00132179
0.00133082
0.0013396
0.00134815
0.00135645
0.00136451
0.00137232
0.00137988
0.00138719
0.00139425
0.00140104
0.00140758
0.00141386
0.00141988
0.00142563
0.00143113
0.00143635
0.00144131
0.001446
0.00145043
0.00145458
0.00145847
0.00146209
0.00146543
0.00146851
0.00147132
0.00147385
0.00147612
0.00147811
0.00147984
0.0014813
0.00148248
0.00148341
0.00148406
0.00148445
0.00148457
0.00148442
0.00148402
0.00148335
0.00148242
0.00148124
0.00147979
0.00147809
0.00147613
0.00147393
0.00147147
0.00146876
0.0014658
0.0014626
0.00145915
0.00145547
0.00145154
0.00144738
0.00144298
0.00143835
0.00143348
0.00142839
0.00142308
0.00141754
0.00141177
0.00140579
0.0013996
0.00139318
0.00138656
0.00137973
0.00137269
0.00136545
0.001358
0.00135036
0.00134252
0.00133448
0.00132626
0.00131785
0.00130925
0.00130047
0.0012915
0.00128236
0.00127305
0.00126356
0.0012539
0.00124407
0.00123408
0.00122393
0.00121362
0.00120315
0.00119253
0.00118176
0.00117084
0.00115977
0.00114856
0.00113721
0.00112572
0.0011141
0.00110234
0.00109046
0.00107844
0.00106631
0.00105405
0.00104167
0.00102917
0.00101656
0.00100384
0.00099101
0.000978073
0.000965031
0.000951888
0.000938646
0.000925307
0.000911873
0.000898348
0.000884733
0.000871031
0.000857245
0.000843375
0.000829426
0.000815398
0.000801295
0.000787118
0.00077287
0.000758552
0.000744168
0.000729718
0.000715205
0.000700631
0.000685998
0.000671308
0.000656563
0.000641764
0.000626914
0.000612014
0.000597066
0.000582072
0.000567033
0.000551952
0.00053683
0.000521668
0.000506468
0.000491231
0.00047596
0.000460655
0.000445318
0.000429951
0.000414554
0.000399129
0.000383678
0.000368202
0.000352701
0.000337178
0.000321633
0.000306068
0.000290483
0.000274881
0.000259261
0.000243626
0.000227976
0.000212312
0.000196635
0.000180947
0.000165248
0.000149539
0.000133821
0.000118096
0.000102363
8.66252e-05
7.0882e-05
5.51346e-05
3.93841e-05
2.36314e-05
7.87728e-06
2.61754e-05
7.85246e-05
0.000130869
0.000183205
0.00023553
0.00028784
0.000340132
0.000392403
0.000444648
0.000496866
0.000549051
0.000601201
0.000653312
0.000705379
0.0007574
0.000809369
0.000861284
0.000913139
0.00096493
0.00101665
0.0010683
0.00111988
0.00117137
0.00122277
0.00127408
0.00132529
0.0013764
0.0014274
0.00147828
0.00152905
0.00157968
0.00163018
0.00168054
0.00173075
0.00178081
0.00183071
0.00188043
0.00192998
0.00197935
0.00202852
0.00207749
0.00212625
0.00217479
0.00222311
0.00227119
0.00231903
0.00236661
0.00241392
0.00246097
0.00250773
0.00255419
0.00260035
0.0026462
0.00269172
0.00273691
0.00278175
0.00282623
0.00287034
0.00291407
0.00295741
0.00300035
0.00304288
0.00308498
0.00312664
0.00316785
0.00320861
0.00324889
0.00328868
0.00332799
0.00336678
0.00340506
0.0034428
0.00348001
0.00351666
0.00355274
0.00358825
0.00362318
0.0036575
0.00369122
0.00372432
0.00375679
0.00378862
0.0038198
0.00385031
0.00388016
0.00390933
0.00393782
0.0039656
0.00399268
0.00401905
0.00404469
0.00406961
0.00409379
0.00411722
0.0041399
0.00416183
0.00418299
0.00420338
0.004223
0.00424184
0.0042599
0.00427716
0.00429364
0.00430932
0.0043242
0.00433828
0.00435155
0.00436402
0.00437568
0.00438653
0.00439657
0.0044058
0.00441422
0.00442183
0.00442862
0.00443461
0.00443979
0.00444416
0.00444772
0.00445048
0.00445244
0.0044536
0.00445397
0.00445354
0.00445232
0.00445031
0.00444753
0.00444397
0.00443963
0.00443453
0.00442866
0.00442203
0.00441465
0.00440652
0.00439765
0.00438804
0.0043777
0.00436664
0.00435486
0.00434237
0.00432917
0.00431527
0.00430068
0.00428541
0.00426945
0.00425283
0.00423554
0.00421759
0.004199
0.00417976
0.00415989
0.00413939
0.00411827
0.00409654
0.0040742
0.00405127
0.00402775
0.00400365
0.00397897
0.00395373
0.00392793
0.00390158
0.00387469
0.00384727
0.00381931
0.00379085
0.00376187
0.00373239
0.00370242
0.00367196
0.00364102
0.00360962
0.00357775
0.00354543
0.00351266
0.00347946
0.00344583
0.00341177
0.0033773
0.00334243
0.00330716
0.0032715
0.00323546
0.00319904
0.00316226
0.00312512
0.00308763
0.0030498
0.00301163
0.00297314
0.00293432
0.0028952
0.00285576
0.00281604
0.00277602
0.00273571
0.00269513
0.00265429
0.00261318
0.00257182
0.00253021
0.00248836
0.00244627
0.00240396
0.00236143
0.00231868
0.00227573
0.00223257
0.00218922
0.00214568
0.00210195
0.00205805
0.00201398
0.00196974
0.00192534
0.00188079
0.00183609
0.00179124
0.00174626
0.00170114
0.0016559
0.00161053
0.00156504
0.00151944
0.00147373
0.00142791
0.001382
0.00133599
0.00128988
0.00124369
0.00119741
0.00115106
0.00110463
0.00105813
0.00101156
0.00096492
0.000918223
0.000871469
0.00082466
0.000777801
0.000730893
0.000683942
0.000636949
0.000589918
0.000542852
0.000495753
0.000448626
0.000401472
0.000354294
0.000307096
0.000259881
0.00021265
0.000165407
0.000118155
7.08955e-05
2.36323e-05
4.36275e-05
0.00013088
0.000218124
0.000305355
0.000392566
0.000479753
0.000566911
0.000654032
0.000741112
0.000828145
0.000915125
0.00100205
0.0010889
0.00117568
0.00126239
0.00134901
0.00143554
0.00152197
0.00160829
0.0016945
0.00178059
0.00186655
0.00195238
0.00203805
0.00212358
0.00220894
0.00229412
0.00237913
0.00246394
0.00254855
0.00263295
0.00271712
0.00280106
0.00288476
0.0029682
0.00305136
0.00313425
0.00321684
0.00329912
0.00338109
0.00346271
0.00354399
0.00362491
0.00370544
0.00378559
0.00386532
0.00394464
0.00402351
0.00410193
0.00417987
0.00425732
0.00433427
0.00441069
0.00448657
0.00456189
0.00463664
0.00471079
0.00478432
0.00485722
0.00492947
0.00500105
0.00507194
0.00514211
0.00521156
0.00528027
0.0053482
0.00541535
0.00548169
0.0055472
0.00561188
0.00567568
0.0057386
0.00580062
0.00586172
0.00592188
0.00598107
0.00603929
0.00609651
0.00615272
0.0062079
0.00626202
0.00631508
0.00636706
0.00641793
0.00646769
0.00651632
0.0065638
0.00661012
0.00665526
0.00669922
0.00674197
0.0067835
0.0068238
0.00686287
0.00690068
0.00693723
0.0069725
0.0070065
0.0070392
0.00707061
0.0071007
0.00712949
0.00715695
0.00718309
0.00720789
0.00723136
0.00725348
0.00727426
0.0072937
0.00731178
0.00732852
0.0073439
0.00735793
0.00737061
0.00738194
0.00739191
0.00740054
0.00740782
0.00741376
0.00741836
0.00742162
0.00742355
0.00742416
0.00742344
0.0074214
0.00741806
0.00741341
0.00740747
0.00740024
0.00739172
0.00738194
0.00737089
0.00735858
0.00734503
0.00733023
0.00731421
0.00729698
0.00727853
0.00725889
0.00723806
0.00721606
0.00719289
0.00716856
0.0071431
0.0071165
0.00708879
0.00705996
0.00703005
0.00699905
0.00696698
0.00693385
0.00689967
0.00686446
0.00682824
0.006791
0.00675277
0.00671356
0.00667338
0.00663225
0.00659017
0.00654716
0.00650324
0.00645841
0.00641269
0.0063661
0.00631864
0.00627034
0.0062212
0.00617123
0.00612046
0.00606889
0.00601654
0.00596342
0.00590954
0.00585492
0.00579958
0.00574351
0.00568675
0.00562929
0.00557116
0.00551237
0.00545293
0.00539285
0.00533215
0.00527084
0.00520893
0.00514644
0.00508337
0.00501975
0.00495559
0.00489089
0.00482567
0.00475994
0.00469371
0.00462701
0.00455983
0.00449219
0.0044241
0.00435558
0.00428664
0.00421728
0.00414752
0.00407737
0.00400684
0.00393595
0.0038647
0.0037931
0.00372117
0.00364891
0.00357633
0.00350345
0.00343028
0.00335682
0.00328308
0.00320908
0.00313482
0.00306031
0.00298556
0.00291058
0.00283538
0.00275997
0.00268435
0.00260853
0.00253252
0.00245633
0.00237997
0.00230344
0.00222674
0.0021499
0.00207291
0.00199578
0.00191852
0.00184113
0.00176362
0.001686
0.00160827
0.00153044
0.00145251
0.00137449
0.00129639
0.00121821
0.00113995
0.00106162
0.000983235
0.000904788
0.000826288
0.000747739
0.000669146
0.000590514
0.000511847
0.000433151
0.00035443
0.000275689
0.000196932
0.000118164
3.93887e-05
6.10823e-05
0.000183243
0.000305392
0.000427523
0.000549627
0.000671697
0.000793725
0.000915703
0.00103762
0.00115948
0.00128126
0.00140296
0.00152456
0.00164607
0.00176746
0.00188874
0.00200989
0.0021309
0.00225177
0.00237247
0.00249301
0.00261337
0.00273353
0.00285349
0.00297323
0.00309275
0.00321203
0.00333105
0.0034498
0.00356827
0.00368644
0.0038043
0.00392183
0.00403902
0.00415585
0.0042723
0.00438836
0.00450401
0.00461922
0.00473399
0.00484829
0.0049621
0.0050754
0.00518817
0.0053004
0.00541205
0.00552311
0.00563355
0.00574336
0.0058525
0.00596096
0.00606871
0.00617573
0.00628199
0.00638746
0.00649213
0.00659596
0.00669894
0.00680102
0.0069022
0.00700243
0.0071017
0.00719998
0.00729724
0.00739345
0.00748858
0.00758262
0.00767552
0.00776727
0.00785784
0.00794719
0.00803531
0.00812216
0.00820773
0.00829197
0.00837487
0.0084564
0.00853654
0.00861526
0.00869253
0.00876833
0.00884263
0.00891542
0.00898667
0.00905636
0.00912446
0.00919095
0.00925582
0.00931904
0.00938059
0.00944045
0.00949862
0.00955506
0.00960977
0.00966272
0.0097139
0.0097633
0.00981091
0.0098567
0.00990068
0.00994283
0.00998313
0.0100216
0.0100582
0.0100929
0.0101258
0.0101568
0.0101859
0.0102131
0.0102384
0.0102618
0.0102834
0.010303
0.0103207
0.0103366
0.0103506
0.0103626
0.0103728
0.0103811
0.0103876
0.0103921
0.0103948
0.0103957
0.0103947
0.0103918
0.0103871
0.0103806
0.0103723
0.0103621
0.0103502
0.0103365
0.010321
0.0103038
0.0102848
0.010264
0.0102416
0.0102175
0.0101916
0.0101641
0.0101349
0.0101041
0.0100717
0.0100376
0.0100019
0.00996467
0.00992585
0.00988548
0.00984358
0.00980016
0.00975525
0.00970885
0.00966099
0.00961168
0.00956094
0.0095088
0.00945526
0.00940034
0.00934407
0.00928646
0.00922753
0.00916731
0.00910579
0.00904302
0.008979
0.00891375
0.00884729
0.00877965
0.00871083
0.00864086
0.00856976
0.00849754
0.00842423
0.00834984
0.0082744
0.00819791
0.00812041
0.0080419
0.00796241
0.00788195
0.00780055
0.00771823
0.00763499
0.00755086
0.00746586
0.00738001
0.00729332
0.00720581
0.00711751
0.00702842
0.00693857
0.00684797
0.00675664
0.00666461
0.00657188
0.00647847
0.0063844
0.00628969
0.00619436
0.00609841
0.00600187
0.00590475
0.00580707
0.00570885
0.0056101
0.00551083
0.00541106
0.00531081
0.00521009
0.00510891
0.00500729
0.00490525
0.00480279
0.00469993
0.00459669
0.00449307
0.00438909
0.00428477
0.00418011
0.00407513
0.00396984
0.00386424
0.00375836
0.00365221
0.00354579
0.00343911
0.00333219
0.00322503
0.00311766
0.00301007
0.00290227
0.00279428
0.0026861
0.00257775
0.00246923
0.00236055
0.00225172
0.00214275
0.00203364
0.00192441
0.00181505
0.00170559
0.00159602
0.00148636
0.00137661
0.00126678
0.00115687
0.0010469
0.000936858
0.000826767
0.000716628
0.000606447
0.000496231
0.000385987
0.000275721
0.000165439
5.51473e-05
7.85408e-05
0.000235618
0.00039268
0.000549718
0.000706722
0.000863682
0.00102059
0.00117743
0.0013342
0.00149088
0.00164747
0.00180396
0.00196032
0.00211656
0.00227266
0.0024286
0.00258438
0.00273999
0.0028954
0.00305061
0.00320561
0.00336037
0.00351489
0.00366914
0.00382312
0.00397681
0.00413018
0.00428323
0.00443594
0.00458828
0.00474025
0.00489181
0.00504295
0.00519365
0.00534388
0.00549364
0.00564289
0.0057916
0.00593977
0.00608736
0.00623435
0.00638071
0.00652642
0.00667145
0.00681577
0.00695937
0.00710219
0.00724423
0.00738545
0.00752582
0.00766531
0.00780389
0.00794152
0.00807818
0.00821384
0.00834845
0.008482
0.00861444
0.00874574
0.00887586
0.00900478
0.00913246
0.00925887
0.00938396
0.0095077
0.00963007
0.00975101
0.00987051
0.00998852
0.010105
0.0102199
0.0103333
0.010445
0.010555
0.0106634
0.01077
0.0108749
0.010978
0.0110792
0.0111786
0.0112761
0.0113717
0.0114653
0.011557
0.0116466
0.0117342
0.0118197
0.0119032
0.0119845
0.0120636
0.0121406
0.0122155
0.0122881
0.0123584
0.0124265
0.0124924
0.0125559
0.0126171
0.012676
0.0127326
0.0127868
0.0128386
0.0128881
0.0129351
0.0129798
0.0130221
0.0130619
0.0130993
0.0131343
0.0131669
0.013197
0.0132247
0.01325
0.0132728
0.0132932
0.0133111
0.0133266
0.0133397
0.0133504
0.0133587
0.0133645
0.013368
0.013369
0.0133677
0.013364
0.013358
0.0133496
0.0133389
0.0133258
0.0133104
0.0132928
0.0132729
0.0132507
0.0132262
0.0131996
0.0131707
0.0131396
0.0131064
0.013071
0.0130335
0.0129938
0.012952
0.0129082
0.0128623
0.0128144
0.0127645
0.0127125
0.0126586
0.0126028
0.012545
0.0124853
0.0124237
0.0123603
0.0122951
0.012228
0.0121591
0.0120885
0.0120161
0.011942
0.0118662
0.0117887
0.0117096
0.0116289
0.0115465
0.0114626
0.0113771
0.0112901
0.0112016
0.0111116
0.0110202
0.0109273
0.010833
0.0107373
0.0106403
0.0105419
0.0104422
0.0103413
0.010239
0.0101356
0.0100309
0.00992499
0.00981794
0.00970974
0.00960043
0.00949001
0.00937853
0.00926599
0.00915242
0.00903785
0.00892229
0.00880578
0.00868833
0.00856997
0.00845072
0.00833059
0.00820962
0.00808782
0.00796522
0.00784183
0.00771768
0.00759279
0.00746717
0.00734086
0.00721386
0.00708621
0.00695791
0.00682899
0.00669946
0.00656935
0.00643868
0.00630745
0.0061757
0.00604343
0.00591067
0.00577742
0.00564372
0.00550956
0.00537498
0.00523998
0.00510459
0.00496881
0.00483266
0.00469615
0.0045593
0.00442213
0.00428464
0.00414686
0.00400878
0.00387043
0.00373182
0.00359296
0.00345386
0.00331454
0.00317499
0.00303525
0.00289531
0.00275519
0.00261489
0.00247444
0.00233383
0.00219308
0.0020522
0.00191119
0.00177007
0.00162884
0.00148752
0.00134611
0.00120463
0.00106307
0.000921449
0.000779777
0.00063806
0.000496307
0.000354525
0.000212723
7.09091e-05
9.60042e-05
0.000288007
0.000479992
0.000671947
0.000863861
0.00105572
0.00124752
0.00143923
0.00163086
0.00182239
0.0020138
0.00220508
0.00239621
0.00258719
0.002778
0.00296863
0.00315905
0.00334926
0.00353924
0.00372897
0.00391844
0.00410762
0.00429651
0.00448507
0.0046733
0.00486118
0.00504867
0.00523577
0.00542244
0.00560868
0.00579445
0.00597973
0.0061645
0.00634873
0.0065324
0.00671548
0.00689794
0.00707975
0.0072609
0.00744133
0.00762104
0.00779998
0.00797812
0.00815543
0.00833189
0.00850745
0.00868207
0.00885573
0.0090284
0.00920002
0.00937057
0.00954
0.00970829
0.00987539
0.0100413
0.0102059
0.0103691
0.0105311
0.0106916
0.0108507
0.0110084
0.0111645
0.0113191
0.011472
0.0116233
0.011773
0.0119209
0.012067
0.0122113
0.0123537
0.0124943
0.0126329
0.0127695
0.0129041
0.0130366
0.013167
0.0132952
0.0134213
0.0135451
0.0136666
0.0137858
0.0139027
0.0140172
0.0141293
0.0142389
0.014346
0.0144506
0.0145526
0.0146521
0.0147489
0.014843
0.0149345
0.0150233
0.0151093
0.0151926
0.0152731
0.0153508
0.0154257
0.0154977
0.0155668
0.0156331
0.0156965
0.015757
0.0158145
0.0158691
0.0159208
0.0159695
0.0160152
0.016058
0.0160978
0.0161346
0.0161685
0.0161994
0.0162272
0.0162522
0.0162741
0.016293
0.016309
0.0163221
0.0163322
0.0163393
0.0163435
0.0163448
0.0163431
0.0163386
0.0163312
0.0163209
0.0163078
0.0162918
0.016273
0.0162514
0.016227
0.0161998
0.0161699
0.0161373
0.016102
0.016064
0.0160233
0.01598
0.0159341
0.0158856
0.0158345
0.0157809
0.0157248
0.0156662
0.0156051
0.0155416
0.0154756
0.0154073
0.0153367
0.0152637
0.0151884
0.0151108
0.015031
0.014949
0.0148647
0.0147784
0.0146898
0.0145992
0.0145065
0.0144118
0.0143151
0.0142163
0.0141156
0.014013
0.0139085
0.0138021
0.0136939
0.0135838
0.013472
0.0133584
0.0132432
0.0131262
0.0130075
0.0128872
0.0127654
0.0126419
0.0125169
0.0123904
0.0122624
0.0121329
0.012002
0.0118697
0.0117361
0.0116011
0.0114648
0.0113272
0.0111883
0.0110483
0.010907
0.0107645
0.0106209
0.0104762
0.0103304
0.0101836
0.0100357
0.00988675
0.00973686
0.00958601
0.00943423
0.00928154
0.00912797
0.00897355
0.00881829
0.00866223
0.00850538
0.00834777
0.00818943
0.00803037
0.00787061
0.00771019
0.00754912
0.00738743
0.00722512
0.00706224
0.00689878
0.00673479
0.00657027
0.00640524
0.00623972
0.00607374
0.0059073
0.00574043
0.00557315
0.00540547
0.0052374
0.00506897
0.00490018
0.00473106
0.00456163
0.00439188
0.00422185
0.00405154
0.00388096
0.00371014
0.00353908
0.0033678
0.00319631
0.00302462
0.00285275
0.0026807
0.00250849
0.00233613
0.00216363
0.001991
0.00181826
0.00164541
0.00147246
0.00129943
0.00112632
0.000953153
0.000779926
0.000606655
0.00043335
0.00026002
8.66749e-05
0.000113473
0.000340414
0.000567333
0.000794217
0.00102105
0.00124783
0.00147452
0.00170113
0.00192763
0.002154
0.00238025
0.00260634
0.00283226
0.003058
0.00328353
0.00350885
0.00373394
0.00395877
0.00418333
0.00440759
0.00463155
0.00485517
0.00507845
0.00530134
0.00552384
0.00574592
0.00596755
0.00618872
0.00640939
0.00662954
0.00684915
0.00706817
0.0072866
0.00750438
0.00772151
0.00793794
0.00815364
0.00836858
0.00858273
0.00879604
0.00900849
0.00922004
0.00943065
0.00964028
0.0098489
0.0100565
0.0102629
0.0104682
0.0106724
0.0108753
0.0110769
0.0112773
0.0114762
0.0116738
0.0118699
0.0120646
0.0122576
0.0124491
0.0126389
0.0128271
0.0130135
0.0131981
0.0133809
0.0135617
0.0137407
0.0139176
0.0140925
0.0142653
0.0144359
0.0146044
0.0147706
0.0149345
0.015096
0.0152552
0.0154119
0.0155661
0.0157177
0.0158668
0.0160132
0.0161569
0.0162979
0.0164361
0.0165715
0.0167041
0.0168337
0.0169603
0.017084
0.0172047
0.0173223
0.0174368
0.0175481
0.0176563
0.0177613
0.017863
0.0179615
0.0180567
0.0181485
0.0182371
0.0183222
0.018404
0.0184824
0.0185573
0.0186288
0.0186968
0.0187614
0.0188225
0.01888
0.0189341
0.0189847
0.0190317
0.0190753
0.0191153
0.0191517
0.0191847
0.0192141
0.01924
0.0192624
0.0192813
0.0192967
0.0193086
0.019317
0.0193219
0.0193234
0.0193215
0.0193161
0.0193073
0.0192951
0.0192795
0.0192606
0.0192383
0.0192128
0.0191839
0.0191518
0.0191164
0.0190778
0.019036
0.018991
0.0189429
0.0188916
0.0188373
0.0187799
0.0187195
0.0186561
0.0185897
0.0185204
0.0184481
0.018373
0.018295
0.0182142
0.0181306
0.0180443
0.0179553
0.0178635
0.0177691
0.0176721
0.0175725
0.0174704
0.0173657
0.0172585
0.0171489
0.0170369
0.0169225
0.0168057
0.0166867
0.0165653
0.0164417
0.0163159
0.016188
0.0160578
0.0159256
0.0157913
0.015655
0.0155167
0.0153764
0.0152342
0.0150901
0.0149441
0.0147963
0.0146467
0.0144954
0.0143423
0.0141875
0.0140311
0.0138731
0.0137135
0.0135523
0.0133896
0.0132255
0.0130599
0.0128928
0.0127244
0.0125547
0.0123836
0.0122112
0.0120376
0.0118627
0.0116867
0.0115095
0.0113311
0.0111517
0.0109712
0.0107896
0.0106071
0.0104235
0.010239
0.0100536
0.00986729
0.0096801
0.00949207
0.00930322
0.00911358
0.00892317
0.00873203
0.00854017
0.00834761
0.0081544
0.00796054
0.00776606
0.00757098
0.00737533
0.00717912
0.00698238
0.00678513
0.00658739
0.00638918
0.00619052
0.00599143
0.00579192
0.00559202
0.00539173
0.00519109
0.00499011
0.0047888
0.00458718
0.00438527
0.00418308
0.00398063
0.00377793
0.00357499
0.00337184
0.00316849
0.00296494
0.00276121
0.00255732
0.00235328
0.00214911
0.0019448
0.00174039
0.00153587
0.00133126
0.00112658
0.000921837
0.000717038
0.000512199
0.000307331
0.000102446
0.00013095
0.000392841
0.000654709
0.000916537
0.00117831
0.00144001
0.00170162
0.00196313
0.00222451
0.00248576
0.00274685
0.00300777
0.00326849
0.003529
0.00378928
0.00404932
0.00430908
0.00456855
0.00482771
0.00508653
0.00534499
0.00560308
0.00586076
0.00611801
0.0063748
0.00663111
0.00688691
0.00714217
0.00739686
0.00765095
0.00790442
0.00815722
0.00840932
0.0086607
0.00891131
0.00916113
0.0094101
0.0096582
0.00990538
0.0101516
0.0103968
0.010641
0.0108842
0.0111261
0.011367
0.0116066
0.0118449
0.0120819
0.0123176
0.0125518
0.0127846
0.0130159
0.0132456
0.0134737
0.0137001
0.0139248
0.0141477
0.0143688
0.014588
0.0148052
0.0150204
0.0152335
0.0154446
0.0156534
0.01586
0.0160643
0.0162662
0.0164657
0.0166628
0.0168572
0.0170492
0.0172384
0.0174249
0.0176087
0.0177896
0.0179677
0.0181428
0.0183149
0.018484
0.01865
0.0188128
0.0189724
0.0191287
0.0192817
0.0194314
0.0195777
0.0197205
0.0198598
0.0199956
0.0201278
0.0202563
0.0203812
0.0205025
0.0206199
0.0207336
0.0208435
0.0209496
0.0210518
0.0211501
0.0212445
0.021335
0.0214215
0.0215041
0.0215826
0.0216571
0.0217276
0.0217941
0.0218565
0.0219149
0.0219692
0.0220194
0.0220656
0.0221076
0.0221457
0.0221796
0.0222095
0.0222353
0.0222571
0.0222748
0.0222885
0.0222982
0.0223039
0.0223055
0.0223032
0.022297
0.0222868
0.0222727
0.0222547
0.0222328
0.022207
0.0221774
0.0221441
0.0221069
0.022066
0.0220214
0.0219731
0.0219211
0.0218655
0.0218064
0.0217436
0.0216773
0.0216075
0.0215343
0.0214576
0.0213775
0.021294
0.0212073
0.0211172
0.0210239
0.0209274
0.0208277
0.0207248
0.0206189
0.0205099
0.0203979
0.0202829
0.0201649
0.020044
0.0199203
0.0197937
0.0196644
0.0195323
0.0193975
0.01926
0.0191199
0.0189772
0.0188319
0.0186842
0.0185339
0.0183813
0.0182262
0.0180688
0.0179091
0.0177472
0.017583
0.0174166
0.0172481
0.0170775
0.0169048
0.01673
0.0165533
0.0163747
0.0161941
0.0160117
0.0158274
0.0156414
0.0154536
0.0152641
0.0150729
0.0148801
0.0146857
0.0144897
0.0142922
0.0140932
0.0138928
0.013691
0.0134877
0.0132832
0.0130773
0.0128702
0.0126619
0.0124523
0.0122416
0.0120297
0.0118168
0.0116027
0.0113877
0.0111716
0.0109546
0.0107366
0.0105177
0.010298
0.0100773
0.0098559
0.00963366
0.00941065
0.00918691
0.00896245
0.0087373
0.00851148
0.00828504
0.00805797
0.00783032
0.00760211
0.00737335
0.00714407
0.0069143
0.00668405
0.00645334
0.0062222
0.00599065
0.0057587
0.00552638
0.0052937
0.00506068
0.00482734
0.0045937
0.00435978
0.00412558
0.00389114
0.00365646
0.00342156
0.00318646
0.00295116
0.0027157
0.00248008
0.00224431
0.00200841
0.00177239
0.00153628
0.00130008
0.0010638
0.000827462
0.000591078
0.00035466
0.000118222
0.000148434
0.000445292
0.000742124
0.00103891
0.00133564
0.00163228
0.00192882
0.00222525
0.00252154
0.00281767
0.00311363
0.00340939
0.00370493
0.00400024
0.00429528
0.00459005
0.00488451
0.00517864
0.00547242
0.00576582
0.00605882
0.00635139
0.0066435
0.00693513
0.00722624
0.00751681
0.0078068
0.00809619
0.00838493
0.00867299
0.00896035
0.00924696
0.00953278
0.00981778
0.0101019
0.0103852
0.0106674
0.0109487
0.011229
0.0115082
0.0117862
0.0120631
0.0123388
0.0126132
0.0128862
0.0131579
0.0134282
0.013697
0.0139642
0.0142298
0.0144938
0.0147561
0.0150166
0.0152753
0.015532
0.0157869
0.0160396
0.0162904
0.0165389
0.0167853
0.0170294
0.0172711
0.0175104
0.0177473
0.0179816
0.0182133
0.0184423
0.0186686
0.0188921
0.0191127
0.0193304
0.019545
0.0197566
0.0199651
0.0201703
0.0203723
0.0205709
0.0207661
0.0209579
0.0211462
0.0213308
0.0215119
0.0216892
0.0218628
0.0220325
0.0221985
0.0223604
0.0225185
0.0226725
0.0228224
0.0229682
0.0231099
0.0232474
0.0233806
0.0235096
0.0236342
0.0237545
0.0238705
0.023982
0.024089
0.0241916
0.0242897
0.0243833
0.0244724
0.0245569
0.0246368
0.0247122
0.0247829
0.0248491
0.0249107
0.0249676
0.0250199
0.0250676
0.0251107
0.0251492
0.025183
0.0252123
0.0252369
0.025257
0.0252725
0.0252834
0.0252898
0.0252916
0.025289
0.0252818
0.0252702
0.0252541
0.0252336
0.0252088
0.0251795
0.0251459
0.025108
0.0250658
0.0250194
0.0249687
0.0249139
0.0248549
0.0247918
0.0247246
0.0246534
0.0245782
0.024499
0.0244159
0.0243288
0.024238
0.0241433
0.0240448
0.0239427
0.0238368
0.0237273
0.0236142
0.0234975
0.0233774
0.0232537
0.0231266
0.0229962
0.0228623
0.0227252
0.0225849
0.0224413
0.0222946
0.0221448
0.0219919
0.0218359
0.021677
0.0215152
0.0213504
0.0211828
0.0210125
0.0208393
0.0206635
0.020485
0.0203039
0.0201202
0.019934
0.0197453
0.0195542
0.0193607
0.0191649
0.0189667
0.0187663
0.0185637
0.018359
0.0181521
0.0179432
0.0177322
0.0175192
0.0173043
0.0170876
0.0168689
0.0166485
0.0164263
0.0162023
0.0159767
0.0157494
0.0155206
0.0152902
0.0150582
0.0148248
0.01459
0.0143537
0.0141161
0.0138772
0.013637
0.0133956
0.0131529
0.0129091
0.0126641
0.012418
0.0121709
0.0119228
0.0116736
0.0114235
0.0111724
0.0109205
0.0106676
0.010414
0.0101595
0.00990427
0.00964828
0.00939156
0.00913415
0.00887608
0.00861737
0.00835804
0.00809812
0.00783765
0.00757663
0.0073151
0.00705309
0.0067906
0.00652766
0.00626431
0.00600055
0.00573641
0.0054719
0.00520706
0.00494189
0.00467643
0.00441067
0.00414465
0.00387839
0.00361189
0.00334518
0.00307827
0.00281119
0.00254394
0.00227655
0.00200902
0.00174138
0.00147364
0.00120582
0.000937932
0.000669989
0.000402009
0.000134005
0.000165927
0.000497771
0.000829585
0.00116135
0.00149304
0.00182465
0.00215614
0.00248751
0.00281872
0.00314976
0.0034806
0.00381123
0.00414161
0.00447173
0.00480156
0.00513108
0.00546027
0.00578908
0.00611751
0.00644552
0.00677308
0.00710016
0.00742673
0.00775277
0.00807823
0.00840309
0.0087273
0.00905084
0.00937367
0.00969575
0.010017
0.0103375
0.0106571
0.0109757
0.0112934
0.0116101
0.0119258
0.0122403
0.0125537
0.0128659
0.0131768
0.0134864
0.0137947
0.0141015
0.0144069
0.0147107
0.015013
0.0153136
0.0156124
0.0159095
0.0162047
0.0164981
0.0167894
0.0170787
0.0173659
0.0176509
0.0179337
0.0182141
0.0184921
0.0187677
0.0190407
0.0193111
0.0195788
0.0198437
0.0201058
0.020365
0.0206212
0.0208744
0.0211244
0.0213711
0.0216146
0.0218548
0.0220915
0.0223246
0.0225542
0.0227802
0.0230024
0.0232208
0.0234353
0.0236459
0.0238525
0.0240551
0.0242534
0.0244476
0.0246375
0.0248231
0.0250044
0.0251811
0.0253534
0.0255212
0.0256843
0.0258428
0.0259966
0.0261456
0.0262899
0.0264293
0.0265639
0.0266935
0.0268182
0.026938
0.0270527
0.0271625
0.0272671
0.0273667
0.0274612
0.0275506
0.0276349
0.027714
0.027788
0.0278568
0.0279204
0.0279789
0.0280322
0.0280804
0.0281233
0.0281611
0.0281938
0.0282213
0.0282437
0.028261
0.0282731
0.0282802
0.0282822
0.0282792
0.0282711
0.028258
0.02824
0.028217
0.0281891
0.0281564
0.0281187
0.0280762
0.028029
0.027977
0.0279203
0.0278589
0.0277928
0.0277222
0.027647
0.0275672
0.027483
0.0273944
0.0273013
0.027204
0.0271023
0.0269963
0.0268861
0.0267718
0.0266534
0.0265308
0.0264043
0.0262737
0.0261393
0.0260009
0.0258587
0.0257128
0.0255631
0.0254097
0.0252527
0.0250921
0.024928
0.0247603
0.0245893
0.0244149
0.0242371
0.0240561
0.0238718
0.0236843
0.0234938
0.0233001
0.0231034
0.0229038
0.0227012
0.0224957
0.0222875
0.0220764
0.0218627
0.0216463
0.0214272
0.0212056
0.0209815
0.0207549
0.020526
0.0202946
0.0200609
0.019825
0.0195868
0.0193465
0.0191041
0.0188596
0.018613
0.0183645
0.0181141
0.0178618
0.0176077
0.0173518
0.0170941
0.0168347
0.0165737
0.0163111
0.016047
0.0157813
0.0155141
0.0152455
0.0149756
0.0147042
0.0144316
0.0141577
0.0138826
0.0136063
0.0133288
0.0130502
0.0127706
0.0124899
0.0122082
0.0119255
0.0116419
0.0113574
0.011072
0.0107858
0.0104988
0.010211
0.00992247
0.00963323
0.00934331
0.00905274
0.00876153
0.00846973
0.00817736
0.00788444
0.00759099
0.00729705
0.00700264
0.00670778
0.0064125
0.00611681
0.00582074
0.00552431
0.00522755
0.00493047
0.00463309
0.00433544
0.00403754
0.00373939
0.00344103
0.00314247
0.00284372
0.00254482
0.00224576
0.00194659
0.0016473
0.00134791
0.00104846
0.000748939
0.00044938
0.000149796
0.00018343
0.000550279
0.000917095
0.00128386
0.00165054
0.00201713
0.0023836
0.00274992
0.00311607
0.00348204
0.00384779
0.0042133
0.00457855
0.00494351
0.00530816
0.00567246
0.00603639
0.00639992
0.00676302
0.00712566
0.00748781
0.00784944
0.0082105
0.00857098
0.00893082
0.00929
0.00964848
0.0100062
0.0103632
0.0107193
0.0110745
0.0114289
0.0117823
0.0121346
0.0124859
0.0128361
0.0131852
0.013533
0.0138796
0.0142248
0.0145687
0.0149111
0.015252
0.0155914
0.0159291
0.0162651
0.0165994
0.0169319
0.0172624
0.017591
0.0179176
0.018242
0.0185643
0.0188843
0.019202
0.0195172
0.01983
0.0201402
0.0204478
0.0207526
0.0210546
0.0213538
0.0216499
0.021943
0.022233
0.0225197
0.0228032
0.0230832
0.0233598
0.0236329
0.0239023
0.0241679
0.0244298
0.0246878
0.0249418
0.0251918
0.0254377
0.0256793
0.0259167
0.0261497
0.0263783
0.0266024
0.0268219
0.0270367
0.0272469
0.0274522
0.0276527
0.0278483
0.0280389
0.0282245
0.028405
0.0285803
0.0287505
0.0289154
0.029075
0.0292292
0.0293781
0.0295215
0.0296595
0.0297919
0.0299189
0.0300402
0.030156
0.0302662
0.0303707
0.0304695
0.0305627
0.0306502
0.030732
0.0308081
0.0308784
0.0309431
0.031002
0.0310552
0.0311026
0.0311444
0.0311805
0.0312108
0.0312355
0.0312546
0.0312679
0.0312757
0.0312778
0.0312744
0.0312654
0.0312509
0.0312308
0.0312053
0.0311744
0.031138
0.0310963
0.0310493
0.0309969
0.0309393
0.0308765
0.0308085
0.0307353
0.0306571
0.0305738
0.0304855
0.0303923
0.0302942
0.0301912
0.0300834
0.0299708
0.0298535
0.0297316
0.0296051
0.029474
0.0293384
0.0291983
0.0290539
0.0289051
0.028752
0.0285946
0.0284331
0.0282675
0.0280978
0.0279241
0.0277464
0.0275648
0.0273793
0.0271901
0.0269971
0.0268004
0.0266002
0.0263963
0.0261889
0.0259781
0.0257639
0.0255463
0.0253255
0.0251014
0.0248741
0.0246437
0.0244103
0.0241739
0.0239345
0.0236922
0.0234471
0.0231992
0.0229486
0.0226953
0.0224394
0.0221809
0.02192
0.0216566
0.0213908
0.0211227
0.0208522
0.0205796
0.0203047
0.0200278
0.0197488
0.0194677
0.0191847
0.0188997
0.0186129
0.0183243
0.0180339
0.0177417
0.0174479