/*--------------------------------*- C++ -*----------------------------------*\
| =========                 |                                                 |
| \\      /  F ield         | OpenFOAM: The Open Source CFD Toolbox           |
|  \\    /   O peration     | Version:  v2012                                 |
|   \\  /    A nd           | Website:  www.openfoam.com                      |
|    \\/     M anipulation  |                                                 |
\*---------------------------------------------------------------------------*/
FoamFile
{
    version     2.0;
    format      ascii;
    class       surfaceScalarField;
    location    "6.25";
    object      phi;
}
// * * * * * * * * * * * * * * * * * * * * * * * * * * * * * * * * * * * * * //

dimensions      [0 3 -1 0 0 0 0];
oriented        oriented;


internalField   nonuniform List<scalar> 
130560
(
3.69295e-06
-3.69295e-06
7.38578e-06
-3.69284e-06
1.10784e-05
-3.69262e-06
1.47707e-05
-3.69229e-06
1.84626e-05
-3.69186e-06
2.21539e-05
-3.6913e-06
2.58445e-05
-3.69063e-06
2.95343e-05
-3.68984e-06
3.32232e-05
-3.68891e-06
3.69111e-05
-3.68785e-06
4.05977e-05
-3.68665e-06
4.4283e-05
-3.68531e-06
4.79668e-05
-3.6838e-06
5.1649e-05
-3.68213e-06
5.53293e-05
-3.68029e-06
5.90075e-05
-3.67826e-06
6.26836e-05
-3.67603e-06
6.63572e-05
-3.6736e-06
7.00281e-05
-3.67095e-06
7.36962e-05
-3.66807e-06
7.73611e-05
-3.66494e-06
8.10227e-05
-3.66155e-06
8.46806e-05
-3.65789e-06
8.83345e-05
-3.65393e-06
9.19842e-05
-3.64967e-06
9.56293e-05
-3.64509e-06
9.92694e-05
-3.64017e-06
0.000102904
-3.63489e-06
0.000106534
-3.62924e-06
0.000110157
-3.62319e-06
0.000113773
-3.61673e-06
0.000117383
-3.60984e-06
0.000120986
-3.6025e-06
0.000124581
-3.59469e-06
0.000128167
-3.58638e-06
0.000131744
-3.57756e-06
0.000135313
-3.5682e-06
0.000138871
-3.55829e-06
0.000142419
-3.5478e-06
0.000145955
-3.53671e-06
0.00014948
-3.525e-06
0.000152993
-3.51265e-06
0.000156493
-3.49963e-06
0.000159979
-3.48592e-06
0.00016345
-3.47151e-06
0.000166907
-3.45636e-06
0.000170347
-3.44047e-06
0.000173771
-3.42379e-06
0.000177177
-3.40633e-06
0.000180565
-3.38804e-06
0.000183934
-3.36892e-06
0.000187283
-3.34895e-06
0.000190611
-3.32809e-06
0.000193917
-3.30635e-06
0.000197201
-3.28369e-06
0.000200461
-3.26009e-06
0.000203697
-3.23555e-06
0.000206907
-3.21005e-06
0.00021009
-3.18356e-06
0.000213246
-3.15608e-06
0.000216374
-3.12759e-06
0.000219472
-3.09808e-06
0.00022254
-3.06754e-06
0.000225576
-3.03596e-06
0.000228579
-3.00332e-06
0.000231549
-2.96963e-06
0.000234483
-2.93486e-06
0.000237382
-2.89903e-06
0.000240245
-2.86212e-06
0.000243069
-2.82414e-06
0.000245854
-2.78507e-06
0.000248599
-2.74493e-06
0.000251302
-2.70371e-06
0.000253964
-2.66141e-06
0.000256582
-2.61805e-06
0.000259156
-2.57363e-06
0.000261684
-2.52815e-06
0.000264165
-2.48163e-06
0.000266599
-2.43408e-06
0.000268985
-2.38551e-06
0.000271321
-2.33594e-06
0.000273606
-2.28538e-06
0.00027584
-2.23385e-06
0.000278021
-2.18137e-06
0.000280149
-2.12796e-06
0.000282223
-2.07365e-06
0.000284242
-2.01846e-06
0.000286204
-1.96242e-06
0.000288109
-1.90554e-06
0.000289957
-1.84787e-06
0.000291747
-1.78943e-06
0.000293477
-1.73026e-06
0.000295147
-1.67037e-06
0.000296757
-1.60982e-06
0.000298306
-1.54863e-06
0.000299793
-1.48685e-06
0.000301217
-1.4245e-06
0.000302579
-1.36162e-06
0.000303877
-1.29826e-06
0.000305112
-1.23445e-06
0.000306282
-1.17024e-06
0.000307387
-1.10566e-06
0.000308428
-1.04075e-06
0.000309404
-9.75565e-07
0.000310314
-9.10134e-07
0.000311158
-8.44502e-07
0.000311937
-7.78713e-07
0.00031265
-7.12808e-07
0.000313297
-6.46829e-07
0.000313878
-5.80818e-07
0.000314392
-5.14817e-07
0.000314841
-4.48867e-07
0.000315224
-3.83009e-07
0.000315542
-3.17284e-07
0.000315793
-2.5173e-07
0.00031598
-1.86389e-07
0.000316101
-1.21298e-07
0.000316157
-5.64948e-08
0.000316149
7.98327e-09
0.000316077
7.21001e-08
0.000315942
1.35821e-07
0.000315742
1.99111e-07
0.000315481
2.61938e-07
0.000315156
3.24269e-07
0.00031477
3.86074e-07
0.000314323
4.47322e-07
0.000313815
5.07987e-07
0.000313247
5.68039e-07
0.000312619
6.27454e-07
0.000311933
6.86207e-07
0.000311189
7.44274e-07
0.000310387
8.01633e-07
0.000309529
8.58263e-07
0.000308615
9.14145e-07
0.000307646
9.69261e-07
0.000306622
1.02359e-06
0.000305545
1.07713e-06
0.000304415
1.12985e-06
0.000303233
1.18175e-06
0.000302
1.2328e-06
0.000300717
1.28302e-06
0.000299385
1.33237e-06
0.000298004
1.38086e-06
0.000296576
1.42847e-06
0.000295101
1.47521e-06
0.000293579
1.52107e-06
0.000292013
1.56604e-06
0.000290403
1.61013e-06
0.00028875
1.65332e-06
0.000287054
1.69563e-06
0.000285317
1.73704e-06
0.00028354
1.77757e-06
0.000281723
1.81721e-06
0.000279867
1.85597e-06
0.000277973
1.89386e-06
0.000276042
1.93086e-06
0.000274075
1.967e-06
0.000272073
2.00228e-06
0.000270036
2.03671e-06
0.000267966
2.07028e-06
0.000265863
2.10302e-06
0.000263728
2.13492e-06
0.000261562
2.16601e-06
0.000259365
2.19628e-06
0.00025714
2.22574e-06
0.000254885
2.25442e-06
0.000252603
2.28231e-06
0.000250293
2.30943e-06
0.000247958
2.33579e-06
0.000245596
2.3614e-06
0.00024321
2.38628e-06
0.0002408
2.41043e-06
0.000238366
2.43387e-06
0.000235909
2.45661e-06
0.00023343
2.47866e-06
0.00023093
2.50004e-06
0.00022841
2.52075e-06
0.000225869
2.54082e-06
0.000223309
2.56025e-06
0.000220729
2.57906e-06
0.000218132
2.59725e-06
0.000215517
2.61485e-06
0.000212886
2.63186e-06
0.000210237
2.6483e-06
0.000207573
2.66419e-06
0.000204893
2.67952e-06
0.000202199
2.69433e-06
0.000199491
2.70861e-06
0.000196768
2.72238e-06
0.000194033
2.73566e-06
0.000191284
2.74845e-06
0.000188523
2.76078e-06
0.000185751
2.77264e-06
0.000182967
2.78406e-06
0.000180172
2.79504e-06
0.000177366
2.8056e-06
0.00017455
2.81575e-06
0.000171725
2.8255e-06
0.00016889
2.83485e-06
0.000166046
2.84383e-06
0.000163194
2.85245e-06
0.000160333
2.8607e-06
0.000157464
2.86862e-06
0.000154588
2.87619e-06
0.000151705
2.88345e-06
0.000148814
2.89039e-06
0.000145917
2.89702e-06
0.000143014
2.90336e-06
0.000140104
2.90942e-06
0.000137189
2.91519e-06
0.000134269
2.92071e-06
0.000131343
2.92596e-06
0.000128412
2.93097e-06
0.000125476
2.93574e-06
0.000122536
2.94028e-06
0.000119591
2.94459e-06
0.000116642
2.9487e-06
0.00011369
2.95259e-06
0.000110733
2.95629e-06
0.000107774
2.95979e-06
0.00010481
2.96311e-06
0.000101844
2.96626e-06
9.8875e-05
2.96923e-06
9.5903e-05
2.97205e-06
9.29283e-05
2.9747e-06
8.9951e-05
2.97721e-06
8.69715e-05
2.97957e-06
8.39897e-05
2.9818e-06
8.10058e-05
2.9839e-06
7.80199e-05
2.98587e-06
7.50322e-05
2.98772e-06
7.20427e-05
2.98946e-06
6.90516e-05
2.99108e-06
6.6059e-05
2.99261e-06
6.3065e-05
2.99403e-06
6.00697e-05
2.99535e-06
5.70731e-05
2.99659e-06
5.40753e-05
2.99774e-06
5.10765e-05
2.9988e-06
4.80767e-05
2.99979e-06
4.50761e-05
3.00069e-06
4.20745e-05
3.00153e-06
3.90722e-05
3.0023e-06
3.60692e-05
3.003e-06
3.30656e-05
3.00363e-06
3.00614e-05
3.0042e-06
2.70567e-05
3.00472e-06
2.40515e-05
3.00518e-06
2.10459e-05
3.00558e-06
1.804e-05
3.00593e-06
1.50338e-05
3.00622e-06
1.20273e-05
3.00646e-06
9.02065e-06
3.00666e-06
6.01385e-06
3.0068e-06
3.00695e-06
3.0069e-06
3.00695e-06
3.69305e-06
-7.386e-06
7.386e-06
-7.38578e-06
1.10787e-05
-7.38535e-06
1.47711e-05
-7.3847e-06
1.84631e-05
-7.38383e-06
2.21545e-05
-7.38272e-06
2.58453e-05
-7.38138e-06
2.95352e-05
-7.3798e-06
3.32243e-05
-7.37796e-06
3.69123e-05
-7.37585e-06
4.05991e-05
-7.37345e-06
4.42845e-05
-7.37077e-06
4.79685e-05
-7.36777e-06
5.16508e-05
-7.36444e-06
5.53313e-05
-7.36076e-06
5.90097e-05
-7.35671e-06
6.2686e-05
-7.35228e-06
6.63598e-05
-7.34742e-06
7.0031e-05
-7.34213e-06
7.36993e-05
-7.33638e-06
7.73645e-05
-7.33014e-06
8.10263e-05
-7.32337e-06
8.46845e-05
-7.31606e-06
8.83387e-05
-7.30817e-06
9.19887e-05
-7.29967e-06
9.56342e-05
-7.29052e-06
9.92747e-05
-7.2807e-06
0.00010291
-7.27016e-06
0.00010654
-7.25887e-06
0.000110163
-7.2468e-06
0.00011378
-7.2339e-06
0.000117391
-7.22014e-06
0.000120994
-7.20547e-06
0.000124589
-7.18986e-06
0.000128176
-7.17327e-06
0.000131754
-7.15565e-06
0.000135323
-7.13696e-06
0.000138881
-7.11715e-06
0.00014243
-7.0962e-06
0.000145967
-7.07404e-06
0.000149493
-7.05064e-06
0.000153006
-7.02596e-06
0.000156506
-6.99995e-06
0.000159993
-6.97256e-06
0.000163465
-6.94375e-06
0.000166922
-6.91348e-06
0.000170364
-6.8817e-06
0.000173788
-6.84838e-06
0.000177195
-6.81347e-06
0.000180584
-6.77692e-06
0.000183954
-6.7387e-06
0.000187304
-6.69877e-06
0.000190633
-6.65708e-06
0.00019394
-6.61361e-06
0.000197225
-6.5683e-06
0.000200486
-6.52113e-06
0.000203722
-6.47207e-06
0.000206933
-6.42107e-06
0.000210118
-6.36811e-06
0.000213275
-6.31317e-06
0.000216404
-6.2562e-06
0.000219503
-6.19719e-06
0.000222571
-6.13612e-06
0.000225608
-6.07296e-06
0.000228613
-6.0077e-06
0.000231583
-5.94032e-06
0.000234519
-5.8708e-06
0.000237419
-5.79914e-06
0.000240283
-5.72532e-06
0.000243108
-5.64935e-06
0.000245894
-5.57122e-06
0.00024864
-5.49093e-06
0.000251345
-5.40848e-06
0.000254007
-5.32389e-06
0.000256626
-5.23716e-06
0.000259201
-5.1483e-06
0.00026173
-5.05734e-06
0.000264213
-4.96429e-06
0.000266648
-4.86917e-06
0.000269034
-4.77202e-06
0.000271371
-4.67286e-06
0.000273658
-4.57172e-06
0.000275892
-4.46864e-06
0.000278075
-4.36367e-06
0.000280204
-4.25683e-06
0.000282278
-4.14819e-06
0.000284297
-4.03778e-06
0.000286261
-3.92566e-06
0.000288167
-3.81189e-06
0.000290016
-3.69651e-06
0.000291806
-3.5796e-06
0.000293537
-3.46121e-06
0.000295208
-3.34142e-06
0.000296818
-3.22028e-06
0.000298368
-3.09787e-06
0.000299855
-2.97426e-06
0.00030128
-2.84952e-06
0.000302642
-2.72373e-06
0.000303941
-2.59697e-06
0.000305176
-2.46932e-06
0.000306346
-2.34085e-06
0.000307452
-2.21165e-06
0.000308493
-2.08179e-06
0.000309469
-1.95137e-06
0.000310379
-1.82047e-06
0.000311224
-1.68916e-06
0.000312003
-1.55754e-06
0.000312716
-1.42569e-06
0.000313363
-1.29369e-06
0.000313943
-1.16163e-06
0.000314458
-1.02958e-06
0.000314907
-8.97642e-07
0.00031529
-7.65886e-07
0.000315607
-6.34395e-07
0.000315859
-5.0325e-07
0.000316045
-3.72528e-07
0.000316166
-2.42308e-07
0.000316222
-1.12665e-07
0.000316214
1.63271e-08
0.000316141
1.44596e-07
0.000316005
2.72071e-07
0.000315805
3.98685e-07
0.000315543
5.2437e-07
0.000315218
6.49063e-07
0.000314831
7.72702e-07
0.000314383
8.95228e-07
0.000313875
1.01658e-06
0.000313306
1.13672e-06
0.000312678
1.25557e-06
0.000311991
1.3731e-06
0.000311246
1.48925e-06
0.000310444
1.60399e-06
0.000309585
1.71727e-06
0.00030867
1.82906e-06
0.0003077
1.9393e-06
0.000306675
2.04799e-06
0.000305598
2.15507e-06
0.000304467
2.26053e-06
0.000303284
2.36433e-06
0.000302051
2.46646e-06
0.000300767
2.56689e-06
0.000299433
2.6656e-06
0.000298052
2.76259e-06
0.000296622
2.85783e-06
0.000295146
2.95131e-06
0.000293624
3.04303e-06
0.000292057
3.13297e-06
0.000290446
3.22114e-06
0.000288792
3.30753e-06
0.000287096
3.39214e-06
0.000285358
3.47497e-06
0.000283579
3.55602e-06
0.000281761
3.63531e-06
0.000279904
3.71282e-06
0.00027801
3.78858e-06
0.000276078
3.86259e-06
0.00027411
3.93487e-06
0.000272107
4.00542e-06
0.000270069
4.07426e-06
0.000267998
4.1414e-06
0.000265894
4.20687e-06
0.000263759
4.27067e-06
0.000261592
4.33282e-06
0.000259395
4.39335e-06
0.000257168
4.45228e-06
0.000254913
4.50961e-06
0.00025263
4.56539e-06
0.00025032
4.61962e-06
0.000247983
4.67233e-06
0.000245621
4.72354e-06
0.000243234
4.77328e-06
0.000240823
4.82157e-06
0.000238388
4.86844e-06
0.000235931
4.9139e-06
0.000233452
4.958e-06
0.000230951
5.00074e-06
0.00022843
5.04216e-06
0.000225888
5.08228e-06
0.000223327
5.12112e-06
0.000220748
5.15872e-06
0.00021815
5.1951e-06
0.000215534
5.23028e-06
0.000212902
5.2643e-06
0.000210253
5.29717e-06
0.000207588
5.32892e-06
0.000204908
5.35958e-06
0.000202213
5.38917e-06
0.000199504
5.41772e-06
0.000196781
5.44526e-06
0.000194045
5.4718e-06
0.000191296
5.49738e-06
0.000188535
5.52201e-06
0.000185762
5.54573e-06
0.000182978
5.56855e-06
0.000180182
5.59051e-06
0.000177376
5.61161e-06
0.00017456
5.6319e-06
0.000171734
5.65138e-06
0.000168899
5.67008e-06
0.000166055
5.68803e-06
0.000163202
5.70525e-06
0.000160341
5.72175e-06
0.000157472
5.73757e-06
0.000154595
5.75271e-06
0.000151712
5.76721e-06
0.000148821
5.78108e-06
0.000145924
5.79433e-06
0.00014302
5.807e-06
0.00014011
5.81911e-06
0.000137195
5.83066e-06
0.000134274
5.84167e-06
0.000131348
5.85218e-06
0.000128416
5.86218e-06
0.00012548
5.87171e-06
0.00012254
5.88078e-06
0.000119595
5.8894e-06
0.000116646
5.8976e-06
0.000113693
5.90538e-06
0.000110737
5.91276e-06
0.000107777
5.91976e-06
0.000104814
5.9264e-06
0.000101847
5.93268e-06
9.88778e-05
5.93863e-06
9.59056e-05
5.94425e-06
9.29308e-05
5.94955e-06
8.99534e-05
5.95456e-06
8.69737e-05
5.95929e-06
8.39918e-05
5.96374e-06
8.10077e-05
5.96792e-06
7.80218e-05
5.97186e-06
7.50339e-05
5.97556e-06
7.20444e-05
5.97902e-06
6.90532e-05
5.98227e-06
6.60605e-05
5.98531e-06
6.30663e-05
5.98815e-06
6.00709e-05
5.9908e-06
5.70742e-05
5.99326e-06
5.40764e-05
5.99555e-06
5.10775e-05
5.99768e-06
4.80777e-05
5.99965e-06
4.50769e-05
6.00146e-06
4.20753e-05
6.00313e-06
3.90729e-05
6.00466e-06
3.60699e-05
6.00606e-06
3.30662e-05
6.00732e-06
3.00619e-05
6.00847e-06
2.70571e-05
6.0095e-06
2.40519e-05
6.01041e-06
2.10463e-05
6.01121e-06
1.80403e-05
6.0119e-06
1.5034e-05
6.01249e-06
1.20275e-05
6.01298e-06
9.0208e-06
6.01337e-06
6.01394e-06
6.01366e-06
3.007e-06
6.01385e-06
6.01394e-06
3.69327e-06
-1.10793e-05
7.38643e-06
-1.10789e-05
1.10794e-05
-1.10783e-05
1.4772e-05
-1.10773e-05
1.84642e-05
-1.1076e-05
2.21559e-05
-1.10744e-05
2.58469e-05
-1.10724e-05
2.95371e-05
-1.107e-05
3.32264e-05
-1.10673e-05
3.69147e-05
-1.10641e-05
4.06018e-05
-1.10606e-05
4.42875e-05
-1.10565e-05
4.79718e-05
-1.10521e-05
5.16545e-05
-1.10471e-05
5.53353e-05
-1.10416e-05
5.90142e-05
-1.10356e-05
6.26908e-05
-1.10289e-05
6.63651e-05
-1.10217e-05
7.00367e-05
-1.10138e-05
7.37055e-05
-1.10052e-05
7.73713e-05
-1.09959e-05
8.10336e-05
-1.09857e-05
8.46924e-05
-1.09748e-05
8.83472e-05
-1.0963e-05
9.19979e-05
-1.09503e-05
9.5644e-05
-1.09366e-05
9.92852e-05
-1.09219e-05
0.000102921
-1.09062e-05
0.000106552
-1.08893e-05
0.000110176
-1.08712e-05
0.000113794
-1.08519e-05
0.000117405
-1.08313e-05
0.000121009
-1.08094e-05
0.000124605
-1.0786e-05
0.000128193
-1.07612e-05
0.000131772
-1.07348e-05
0.000135342
-1.07068e-05
0.000138902
-1.06772e-05
0.000142452
-1.06458e-05
0.000145991
-1.06126e-05
0.000149517
-1.05776e-05
0.000153032
-1.05406e-05
0.000156534
-1.05016e-05
0.000160022
-1.04606e-05
0.000163496
-1.04174e-05
0.000166954
-1.03721e-05
0.000170397
-1.03245e-05
0.000173823
-1.02746e-05
0.000177232
-1.02222e-05
0.000180622
-1.01675e-05
0.000183994
-1.01102e-05
0.000187346
-1.00503e-05
0.000190676
-9.98786e-06
0.000193985
-9.92269e-06
0.000197272
-9.85478e-06
0.000200535
-9.78407e-06
0.000203773
-9.71051e-06
0.000206986
-9.63406e-06
0.000210173
-9.55466e-06
0.000213332
-9.47227e-06
0.000216463
-9.38686e-06
0.000219564
-9.29837e-06
0.000222634
-9.20679e-06
0.000225674
-9.11207e-06
0.00022868
-9.0142e-06
0.000231653
-8.91314e-06
0.000234591
-8.80888e-06
0.000237493
-8.70139e-06
0.000240359
-8.59068e-06
0.000243186
-8.47672e-06
0.000245974
-8.35953e-06
0.000248722
-8.23908e-06
0.000251429
-8.11541e-06
0.000254094
-7.98851e-06
0.000256715
-7.85839e-06
0.000259292
-7.72509e-06
0.000261823
-7.58862e-06
0.000264308
-7.44901e-06
0.000266745
-7.30631e-06
0.000269134
-7.16054e-06
0.000271472
-7.01176e-06
0.000273761
-6.86e-06
0.000275997
-6.70534e-06
0.000278182
-6.54782e-06
0.000280312
-6.38751e-06
0.000282389
-6.22448e-06
0.00028441
-6.05881e-06
0.000286375
-5.89056e-06
0.000288282
-5.71983e-06
0.000290133
-5.54669e-06
0.000291924
-5.37124e-06
0.000293657
-5.19358e-06
0.000295329
-5.0138e-06
0.000296941
-4.83201e-06
0.000298491
-4.6483e-06
0.00029998
-4.46279e-06
0.000301406
-4.27559e-06
0.000302769
-4.08681e-06
0.000304069
-3.89657e-06
0.000305304
-3.70499e-06
0.000306476
-3.51219e-06
0.000307582
-3.31828e-06
0.000308624
-3.1234e-06
0.0003096
-2.92766e-06
0.000310511
-2.7312e-06
0.000311356
-2.53414e-06
0.000312135
-2.3366e-06
0.000312848
-2.13872e-06
0.000313495
-1.94061e-06
0.000314076
-1.74242e-06
0.00031459
-1.54425e-06
0.000315039
-1.34623e-06
0.000315421
-1.1485e-06
0.000315738
-9.51161e-07
0.000315989
-7.54345e-07
0.000316175
-5.58166e-07
0.000316295
-3.62741e-07
0.000316351
-1.68184e-07
0.000316342
2.53944e-08
0.000316269
2.17886e-07
0.000316131
4.09184e-07
0.000315931
5.99187e-07
0.000315667
7.87795e-07
0.000315342
9.74911e-07
0.000314954
1.16044e-06
0.000314505
1.3443e-06
0.000313995
1.52641e-06
0.000313425
1.70667e-06
0.000312796
1.88501e-06
0.000312107
2.06136e-06
0.000311361
2.23565e-06
0.000310557
2.40781e-06
0.000309697
2.57778e-06
0.00030878
2.7455e-06
0.000307809
2.91092e-06
0.000306783
3.07398e-06
0.000305703
3.23464e-06
0.000304571
3.39285e-06
0.000303386
3.54859e-06
0.000302151
3.70181e-06
0.000300865
3.85247e-06
0.000299531
4.00057e-06
0.000298147
4.14606e-06
0.000296716
4.28893e-06
0.000295238
4.42917e-06
0.000293714
4.56675e-06
0.000292146
4.70168e-06
0.000290533
4.83394e-06
0.000288877
4.96352e-06
0.000287179
5.09043e-06
0.000285439
5.21468e-06
0.000283659
5.33625e-06
0.000281839
5.45517e-06
0.00027998
5.57143e-06
0.000278084
5.68506e-06
0.00027615
5.79606e-06
0.000274181
5.90446e-06
0.000272176
6.01027e-06
0.000270137
6.11351e-06
0.000268064
6.21421e-06
0.000265958
6.31238e-06
0.000263821
6.40806e-06
0.000261652
6.50127e-06
0.000259454
6.59204e-06
0.000257226
6.6804e-06
0.000254969
6.76637e-06
0.000252684
6.85001e-06
0.000250372
6.93132e-06
0.000248034
7.01036e-06
0.000245671
7.08715e-06
0.000243282
7.16173e-06
0.00024087
7.23414e-06
0.000238434
7.30441e-06
0.000235975
7.37257e-06
0.000233494
7.43868e-06
0.000230992
7.50276e-06
0.00022847
7.56486e-06
0.000225927
7.625e-06
0.000223365
7.68324e-06
0.000220784
7.73961e-06
0.000218185
7.79414e-06
0.000215568
7.84689e-06
0.000212935
7.89787e-06
0.000210285
7.94715e-06
0.000207619
7.99474e-06
0.000204938
8.0407e-06
0.000202242
8.08506e-06
0.000199532
8.12786e-06
0.000196808
8.16913e-06
0.000194071
8.20891e-06
0.000191321
8.24725e-06
0.000188559
8.28417e-06
0.000185785
8.31971e-06
0.000183
8.35392e-06
0.000180203
8.38682e-06
0.000177396
8.41845e-06
0.000174579
8.44884e-06
0.000171753
8.47804e-06
0.000168917
8.50607e-06
0.000166072
8.53297e-06
0.000163218
8.55876e-06
0.000160357
8.58349e-06
0.000157487
8.60719e-06
0.00015461
8.62988e-06
0.000151725
8.6516e-06
0.000148834
8.67237e-06
0.000145936
8.69224e-06
0.000143032
8.71122e-06
0.000140122
8.72935e-06
0.000137206
8.74665e-06
0.000134284
8.76315e-06
0.000131358
8.77889e-06
0.000128426
8.79387e-06
0.000125489
8.80815e-06
0.000122549
8.82173e-06
0.000119603
8.83464e-06
0.000116654
8.84691e-06
0.000113701
8.85856e-06
0.000110744
8.86962e-06
0.000107784
8.8801e-06
0.00010482
8.89004e-06
0.000101853
8.89945e-06
9.88834e-05
8.90835e-06
9.59109e-05
8.91676e-06
9.29358e-05
8.9247e-06
8.99581e-05
8.9322e-06
8.69782e-05
8.93927e-06
8.3996e-05
8.94593e-06
8.10117e-05
8.9522e-06
7.80255e-05
8.95809e-06
7.50374e-05
8.96362e-06
7.20476e-05
8.96881e-06
6.90562e-05
8.97367e-06
6.60633e-05
8.97822e-06
6.3069e-05
8.98246e-06
6.00734e-05
8.98642e-06
5.70765e-05
8.99011e-06
5.40785e-05
8.99354e-06
5.10795e-05
8.99672e-06
4.80795e-05
8.99966e-06
4.50786e-05
9.00237e-06
4.20768e-05
9.00487e-06
3.90743e-05
9.00716e-06
3.60711e-05
9.00924e-06
3.30673e-05
9.01114e-06
3.00629e-05
9.01285e-06
2.7058e-05
9.01439e-06
2.40527e-05
9.01575e-06
2.1047e-05
9.01695e-06
1.80409e-05
9.01799e-06
1.50345e-05
9.01887e-06
1.20279e-05
9.0196e-06
9.02109e-06
9.02017e-06
6.01414e-06
9.02061e-06
3.00709e-06
9.02089e-06
9.02103e-06
3.69359e-06
-1.47729e-05
7.38707e-06
-1.47724e-05
1.10803e-05
-1.47716e-05
1.47733e-05
-1.47703e-05
1.84659e-05
-1.47686e-05
2.21579e-05
-1.47664e-05
2.58492e-05
-1.47638e-05
2.95398e-05
-1.47606e-05
3.32296e-05
-1.4757e-05
3.69182e-05
-1.47528e-05
4.06058e-05
-1.47481e-05
4.4292e-05
-1.47428e-05
4.79768e-05
-1.47369e-05
5.166e-05
-1.47303e-05
5.53414e-05
-1.4723e-05
5.90208e-05
-1.4715e-05
6.26981e-05
-1.47062e-05
6.6373e-05
-1.46966e-05
7.00454e-05
-1.46861e-05
7.37149e-05
-1.46747e-05
7.73814e-05
-1.46624e-05
8.10446e-05
-1.46489e-05
8.47042e-05
-1.46344e-05
8.836e-05
-1.46188e-05
9.20116e-05
-1.46019e-05
9.56587e-05
-1.45838e-05
9.9301e-05
-1.45642e-05
0.000102938
-1.45433e-05
0.00010657
-1.45209e-05
0.000110195
-1.44969e-05
0.000113815
-1.44713e-05
0.000117427
-1.44439e-05
0.000121033
-1.44147e-05
0.00012463
-1.43837e-05
0.00012822
-1.43506e-05
0.0001318
-1.43156e-05
0.000135372
-1.42784e-05
0.000138934
-1.42389e-05
0.000142485
-1.41972e-05
0.000146026
-1.41531e-05
0.000149554
-1.41064e-05
0.000153071
-1.40572e-05
0.000156575
-1.40054e-05
0.000160065
-1.39508e-05
0.000163541
-1.38933e-05
0.000167002
-1.3833e-05
0.000170447
-1.37696e-05
0.000173875
-1.37031e-05
0.000177287
-1.36335e-05
0.00018068
-1.35605e-05
0.000184054
-1.34843e-05
0.000187408
-1.34046e-05
0.000190742
-1.33213e-05
0.000194053
-1.32345e-05
0.000197343
-1.31441e-05
0.000200608
-1.30499e-05
0.00020385
-1.29519e-05
0.000207066
-1.285e-05
0.000210255
-1.27442e-05
0.000213417
-1.26344e-05
0.000216551
-1.25206e-05
0.000219655
-1.24027e-05
0.000222729
-1.22806e-05
0.000225771
-1.21543e-05
0.000228781
-1.20239e-05
0.000231757
-1.18892e-05
0.000234698
-1.17502e-05
0.000237604
-1.16069e-05
0.000240473
-1.14593e-05
0.000243303
-1.13073e-05
0.000246095
-1.11511e-05
0.000248846
-1.09905e-05
0.000251556
-1.08256e-05
0.000254224
-1.06563e-05
0.000256849
-1.04828e-05
0.000259428
-1.0305e-05
0.000261963
-1.0123e-05
0.000264451
-9.93684e-06
0.000266891
-9.7465e-06
0.000269282
-9.55208e-06
0.000271624
-9.35362e-06
0.000273916
-9.1512e-06
0.000276155
-8.94489e-06
0.000278342
-8.73476e-06
0.000280475
-8.52091e-06
0.000282554
-8.30343e-06
0.000284578
-8.0824e-06
0.000286545
-7.85795e-06
0.000288456
-7.63017e-06
0.000290308
-7.39918e-06
0.000292102
-7.1651e-06
0.000293837
-6.92807e-06
0.000295511
-6.68821e-06
0.000297125
-6.44565e-06
0.000298677
-6.20054e-06
0.000300167
-5.95302e-06
0.000301595
-5.70324e-06
0.000302959
-5.45136e-06
0.00030426
-5.19752e-06
0.000305497
-4.94189e-06
0.000306669
-4.68463e-06
0.000307777
-4.42589e-06
0.00030882
-4.16586e-06
0.000309797
-3.90468e-06
0.000310708
-3.64254e-06
0.000311553
-3.37959e-06
0.000312333
-3.11601e-06
0.000313046
-2.85197e-06
0.000313693
-2.58763e-06
0.000314274
-2.32317e-06
0.000314788
-2.05876e-06
0.000315237
-1.79455e-06
0.000315619
-1.53071e-06
0.000315935
-1.26741e-06
0.000316186
-1.0048e-06
0.00031637
-7.43049e-07
0.00031649
-4.82306e-07
0.000316545
-2.22724e-07
0.000316534
3.55494e-08
0.00031646
2.92368e-07
0.000316321
5.47592e-07
0.00031612
8.01084e-07
0.000315855
1.05271e-06
0.000315527
1.30234e-06
0.000315138
1.54986e-06
0.000314687
1.79514e-06
0.000314175
2.03807e-06
0.000313603
2.27854e-06
0.000312972
2.51645e-06
0.000312282
2.75169e-06
0.000311533
2.98418e-06
0.000310727
3.21382e-06
0.000309864
3.44054e-06
0.000308946
3.66425e-06
0.000307972
3.88488e-06
0.000306943
4.10237e-06
0.000305861
4.31665e-06
0.000304726
4.52766e-06
0.00030354
4.73536e-06
0.000302302
4.9397e-06
0.000301014
5.14064e-06
0.000299676
5.33813e-06
0.00029829
5.53215e-06
0.000296856
5.72268e-06
0.000295376
5.90968e-06
0.000293849
6.09314e-06
0.000292278
6.27305e-06
0.000290662
6.4494e-06
0.000289004
6.62219e-06
0.000287303
6.7914e-06
0.00028556
6.95705e-06
0.000283778
7.11914e-06
0.000281955
7.27767e-06
0.000280094
7.43268e-06
0.000278195
7.58416e-06
0.000276259
7.73214e-06
0.000274286
7.87664e-06
0.000272279
8.01769e-06
0.000270237
8.15531e-06
0.000268162
8.28953e-06
0.000266054
8.42039e-06
0.000263914
8.54792e-06
0.000261743
8.67215e-06
0.000259542
8.79313e-06
0.000257312
8.9109e-06
0.000255052
9.02548e-06
0.000252766
9.13694e-06
0.000250452
9.24531e-06
0.000248111
9.35064e-06
0.000245745
9.45297e-06
0.000243355
9.55236e-06
0.00024094
9.64884e-06
0.000238502
9.74247e-06
0.000236041
9.83331e-06
0.000233559
9.92139e-06
0.000231055
1.00068e-05
0.00022853
1.00895e-05
0.000225985
1.01696e-05
0.000223421
1.02472e-05
0.000220839
1.03223e-05
0.000218238
1.0395e-05
0.000215619
1.04652e-05
0.000212984
1.05332e-05
0.000210332
1.05988e-05
0.000207665
1.06622e-05
0.000204982
1.07234e-05
0.000202285
1.07825e-05
0.000199573
1.08395e-05
0.000196848
1.08945e-05
0.000194109
1.09475e-05
0.000191358
1.09985e-05
0.000188594
1.10477e-05
0.000185819
1.1095e-05
0.000183032
1.11406e-05
0.000180235
1.11844e-05
0.000177427
1.12265e-05
0.000174609
1.1267e-05
0.000171781
1.13059e-05
0.000168944
1.13432e-05
0.000166098
1.1379e-05
0.000163243
1.14133e-05
0.00016038
1.14463e-05
0.00015751
1.14778e-05
0.000154632
1.1508e-05
0.000151746
1.15369e-05
0.000148854
1.15646e-05
0.000145955
1.1591e-05
0.00014305
1.16163e-05
0.000140139
1.16404e-05
0.000137222
1.16634e-05
0.0001343
1.16854e-05
0.000131373
1.17063e-05
0.00012844
1.17263e-05
0.000125503
1.17453e-05
0.000122561
1.17633e-05
0.000119616
1.17805e-05
0.000116666
1.17968e-05
0.000113712
1.18123e-05
0.000110754
1.18271e-05
0.000107794
1.1841e-05
0.000104829
1.18542e-05
0.000101862
1.18667e-05
9.88919e-05
1.18786e-05
9.59189e-05
1.18897e-05
9.29433e-05
1.19003e-05
8.99652e-05
1.19103e-05
8.69848e-05
1.19197e-05
8.40022e-05
1.19285e-05
8.10176e-05
1.19368e-05
7.8031e-05
1.19447e-05
7.50426e-05
1.1952e-05
7.20525e-05
1.19589e-05
6.90608e-05
1.19654e-05
6.60675e-05
1.19714e-05
6.30729e-05
1.19771e-05
6.0077e-05
1.19823e-05
5.70799e-05
1.19872e-05
5.40817e-05
1.19918e-05
5.10824e-05
1.1996e-05
4.80822e-05
1.19999e-05
4.50811e-05
1.20035e-05
4.20791e-05
1.20068e-05
3.90764e-05
1.20099e-05
3.6073e-05
1.20126e-05
3.3069e-05
1.20151e-05
3.00645e-05
1.20174e-05
2.70594e-05
1.20194e-05
2.40539e-05
1.20213e-05
2.1048e-05
1.20228e-05
1.80418e-05
1.20242e-05
1.50352e-05
1.20254e-05
1.20285e-05
1.20264e-05
9.02152e-06
1.20271e-05
6.01442e-06
1.20277e-05
3.00723e-06
1.20281e-05
1.20283e-05
3.69401e-06
-1.84669e-05
7.38792e-06
-1.84663e-05
1.10816e-05
-1.84653e-05
1.4775e-05
-1.84637e-05
1.8468e-05
-1.84616e-05
2.21605e-05
-1.84589e-05
2.58524e-05
-1.84556e-05
2.95435e-05
-1.84517e-05
3.32337e-05
-1.84472e-05
3.6923e-05
-1.84421e-05
4.06111e-05
-1.84362e-05
4.4298e-05
-1.84296e-05
4.79834e-05
-1.84223e-05
5.16673e-05
-1.84141e-05
5.53494e-05
-1.84051e-05
5.90296e-05
-1.83952e-05
6.27077e-05
-1.83843e-05
6.63835e-05
-1.83724e-05
7.00568e-05
-1.83594e-05
7.37273e-05
-1.83452e-05
7.73948e-05
-1.83299e-05
8.10591e-05
-1.83132e-05
8.47199e-05
-1.82952e-05
8.83769e-05
-1.82758e-05
9.20298e-05
-1.82548e-05
9.56782e-05
-1.82322e-05
9.9322e-05
-1.8208e-05
0.000102961
-1.8182e-05
0.000106594
-1.81541e-05
0.000110221
-1.81242e-05
0.000113842
-1.80923e-05
0.000117456
-1.80582e-05
0.000121064
-1.80219e-05
0.000124663
-1.79833e-05
0.000128255
-1.79422e-05
0.000131838
-1.78985e-05
0.000135411
-1.78521e-05
0.000138976
-1.7803e-05
0.000142529
-1.7751e-05
0.000146072
-1.7696e-05
0.000149604
-1.76379e-05
0.000153123
-1.75765e-05
0.00015663
-1.75119e-05
0.000160123
-1.74438e-05
0.000163601
-1.73722e-05
0.000167065
-1.72969e-05
0.000170513
-1.72178e-05
0.000173945
-1.71349e-05
0.00017736
-1.7048e-05
0.000180756
-1.6957e-05
0.000184134
-1.68618e-05
0.000187491
-1.67623e-05
0.000190828
-1.66584e-05
0.000194144
-1.655e-05
0.000197437
-1.64371e-05
0.000200706
-1.63194e-05
0.000203952
-1.61971e-05
0.000207172
-1.60698e-05
0.000210365
-1.59377e-05
0.000213531
-1.58006e-05
0.000216669
-1.56584e-05
0.000219777
-1.55111e-05
0.000222855
-1.53586e-05
0.000225902
-1.52008e-05
0.000228916
-1.50378e-05
0.000231896
-1.48695e-05
0.000234842
-1.46958e-05
0.000237752
-1.45167e-05
0.000240625
-1.43322e-05
0.000243459
-1.41423e-05
0.000246255
-1.3947e-05
0.000249011
-1.37462e-05
0.000251726
-1.354e-05
0.000254398
-1.33284e-05
0.000257026
-1.31115e-05
0.000259611
-1.28892e-05
0.000262149
-1.26616e-05
0.000264641
-1.24288e-05
0.000267085
-1.21908e-05
0.000269481
-1.19476e-05
0.000271827
-1.16995e-05
0.000274122
-1.14463e-05
0.000276365
-1.11883e-05
0.000278556
-1.09254e-05
0.000280693
-1.06579e-05
0.000282775
-1.03859e-05
0.000284802
-1.01094e-05
0.000286773
-9.82866e-06
0.000288687
-9.54372e-06
0.000290542
-9.25475e-06
0.000292339
-8.96193e-06
0.000294076
-8.66539e-06
0.000295754
-8.3653e-06
0.00029737
-8.06184e-06
0.000298924
-7.75519e-06
0.000300417
-7.44551e-06
0.000301847
-7.133e-06
0.000303213
-6.81785e-06
0.000304516
-6.50026e-06
0.000305754
-6.18042e-06
0.000306928
-5.85854e-06
0.000308037
-5.53481e-06
0.000309081
-5.20945e-06
0.000310059
-4.88267e-06
0.000310971
-4.55467e-06
0.000311817
-4.22567e-06
0.000312597
-3.89588e-06
0.00031331
-3.56551e-06
0.000313958
-3.23478e-06
0.000314538
-2.90389e-06
0.000315053
-2.57306e-06
0.000315501
-2.24249e-06
0.000315882
-1.91238e-06
0.000316198
-1.58296e-06
0.000316447
-1.2544e-06
0.000316631
-9.26924e-07
0.00031675
-6.00711e-07
0.000316803
-2.75954e-07
0.000316791
4.71588e-08
0.000316715
3.68447e-07
0.000316575
6.87734e-07
0.000316371
1.00485e-06
0.000316104
1.31962e-06
0.000315775
1.63189e-06
0.000315383
1.94151e-06
0.00031493
2.24833e-06
0.000314416
2.55219e-06
0.000313841
2.85298e-06
0.000313207
3.15054e-06
0.000312514
3.44478e-06
0.000311763
3.73555e-06
0.000310954
4.02276e-06
0.000310088
4.3063e-06
0.000309166
4.58608e-06
0.000308189
4.86199e-06
0.000307158
5.13397e-06
0.000306072
5.40193e-06
0.000304934
5.66579e-06
0.000303744
5.9255e-06
0.000302503
6.18101e-06
0.000301211
6.43224e-06
0.00029987
6.67917e-06
0.000298481
6.92175e-06
0.000297043
7.15994e-06
0.000295559
7.39373e-06
0.000294029
7.62309e-06
0.000292454
7.84799e-06
0.000290835
8.06844e-06
0.000289173
8.28442e-06
0.000287469
8.49593e-06
0.000285723
8.70298e-06
0.000283936
8.90557e-06
0.00028211
9.10372e-06
0.000280245
9.29744e-06
0.000278343
9.48676e-06
0.000276403
9.67169e-06
0.000274428
9.85227e-06
0.000272417
1.00285e-05
0.000270372
1.02005e-05
0.000268293
1.03682e-05
0.000266181
1.05317e-05
0.000264038
1.06911e-05
0.000261864
1.08463e-05
0.00025966
1.09974e-05
0.000257426
1.11446e-05
0.000255164
1.12877e-05
0.000252874
1.1427e-05
0.000250557
1.15623e-05
0.000248214
1.16939e-05
0.000245845
1.18217e-05
0.000243451
1.19459e-05
0.000241034
1.20664e-05
0.000238593
1.21833e-05
0.000236129
1.22968e-05
0.000233644
1.24068e-05
0.000231137
1.25134e-05
0.00022861
1.26168e-05
0.000226063