/*--------------------------------*- C++ -*----------------------------------*\
| =========                 |                                                 |
| \\      /  F ield         | OpenFOAM: The Open Source CFD Toolbox           |
|  \\    /   O peration     | Version:  v2012                                 |
|   \\  /    A nd           | Website:  www.openfoam.com                      |
|    \\/     M anipulation  |                                                 |
\*---------------------------------------------------------------------------*/
FoamFile
{
    version     2.0;
    format      ascii;
    class       volScalarField;
    location    "0";
    object      pRec;
}
// * * * * * * * * * * * * * * * * * * * * * * * * * * * * * * * * * * * * * //

dimensions      [0 2 -2 0 0 0 0];


internalField   nonuniform List<scalar> 
4000
(
-6.79358e-13
-6.75118e-13
-6.75694e-13
-6.77367e-13
-6.76922e-13
-6.76653e-13
-6.75425e-13
-6.71799e-13
-6.64251e-13
-6.59366e-13
-6.5939e-13
-6.5505e-13
-6.48308e-13
-6.38953e-13
-6.27669e-13
-6.23368e-13
-6.20051e-13
-6.17234e-13
-6.1033e-13
-6.01414e-13
-5.92486e-13
-5.85614e-13
-5.79919e-13
-5.71268e-13
-5.61456e-13
-5.51637e-13
-5.46313e-13
-5.41876e-13
-5.35201e-13
-5.24813e-13
-5.12955e-13
-5.04799e-13
-4.9973e-13
-4.94185e-13
-4.87203e-13
-4.81185e-13
-4.7124e-13
-4.57675e-13
-4.42618e-13
-4.36872e-13
-4.3346e-13
-4.28595e-13
-4.25315e-13
-4.18421e-13
-4.09949e-13
-4.01003e-13
-3.91763e-13
-3.82887e-13
-3.74354e-13
-3.66545e-13
-3.57944e-13
-3.5084e-13
-3.43815e-13
-3.35923e-13
-3.28603e-13
-3.17831e-13
-3.10324e-13
-3.0833e-13
-3.04921e-13
-3.00979e-13
-2.92795e-13
-2.85807e-13
-2.77603e-13
-2.67967e-13
-2.61295e-13
-2.54204e-13
-2.48767e-13
-2.41101e-13
-2.32434e-13
-2.26077e-13
-2.19027e-13
-2.10799e-13
-1.98812e-13
-1.9199e-13
-1.89658e-13
-1.84822e-13
-1.77841e-13
-1.71012e-13
-1.62111e-13
-1.4974e-13
-1.38508e-13
-1.31872e-13
-1.23917e-13
-1.18212e-13
-1.11788e-13
-1.04963e-13
-9.66907e-14
-8.86914e-14
-8.41561e-14
-7.89145e-14
-7.26413e-14
-6.53709e-14
-5.87767e-14
-5.26126e-14
-4.36972e-14
-3.42217e-14
-2.63786e-14
-1.77776e-14
-9.78169e-15
-2.43502e-15
-6.76993e-13
-6.75745e-13
-6.77379e-13
-6.77505e-13
-6.78421e-13
-6.76122e-13
-6.73937e-13
-6.72078e-13
-6.66958e-13
-6.61924e-13
-6.57054e-13
-6.53419e-13
-6.47058e-13
-6.38419e-13
-6.301e-13
-6.25371e-13
-6.2147e-13
-6.16181e-13
-6.09543e-13
-6.03807e-13
-5.93897e-13
-5.83866e-13
-5.77713e-13
-5.69703e-13
-5.59963e-13
-5.53721e-13
-5.48262e-13
-5.4233e-13
-5.34709e-13
-5.2265e-13
-5.13996e-13
-5.06746e-13
-4.99687e-13
-4.91943e-13
-4.85131e-13
-4.78833e-13
-4.70665e-13
-4.59137e-13
-4.47309e-13
-4.39101e-13
-4.33306e-13
-4.28726e-13
-4.23537e-13
-4.17607e-13
-4.10507e-13
-4.00791e-13
-3.91045e-13
-3.82434e-13
-3.73959e-13
-3.6489e-13
-3.57484e-13
-3.50119e-13
-3.4412e-13
-3.37003e-13
-3.29356e-13
-3.19658e-13
-3.10528e-13
-3.07015e-13
-3.03826e-13
-2.99501e-13
-2.94304e-13
-2.85726e-13
-2.77683e-13
-2.6926e-13
-2.62922e-13
-2.54594e-13
-2.47137e-13
-2.40383e-13
-2.33968e-13
-2.26983e-13
-2.18935e-13
-2.11168e-13
-2.02154e-13
-1.94474e-13
-1.89397e-13
-1.81633e-13
-1.77128e-13
-1.69638e-13
-1.59767e-13
-1.49038e-13
-1.39516e-13
-1.32797e-13
-1.26807e-13
-1.19628e-13
-1.10527e-13
-1.03501e-13
-9.51489e-14
-8.75503e-14
-8.33008e-14
-7.76114e-14
-7.32867e-14
-6.73702e-14
-6.14285e-14
-5.11589e-14
-4.22109e-14
-3.44672e-14
-2.5888e-14
-1.80415e-14
-1.06195e-14
-3.8232e-15
-6.76154e-13
-6.75509e-13
-6.77207e-13
-6.79023e-13
-6.80107e-13
-6.77127e-13
-6.7295e-13
-6.71103e-13
-6.65117e-13
-6.6182e-13
-6.58102e-13
-6.53004e-13
-6.46797e-13
-6.39877e-13
-6.31417e-13
-6.25915e-13
-6.20162e-13
-6.15305e-13
-6.10592e-13
-6.02221e-13
-5.93536e-13
-5.857e-13
-5.78082e-13
-5.70618e-13
-5.61694e-13
-5.55676e-13
-5.4904e-13
-5.40888e-13
-5.32911e-13
-5.22074e-13
-5.14327e-13
-5.06359e-13
-4.98752e-13
-4.9352e-13
-4.87176e-13
-4.80053e-13
-4.69638e-13
-4.59586e-13
-4.49389e-13
-4.39298e-13
-4.32698e-13
-4.263e-13
-4.23807e-13
-4.18474e-13
-4.10631e-13
-4.0028e-13
-3.8959e-13
-3.81035e-13
-3.75012e-13
-3.69061e-13
-3.58449e-13
-3.50919e-13
-3.42456e-13
-3.34632e-13
-3.2751e-13
-3.20493e-13
-3.11097e-13
-3.08391e-13
-3.0649e-13
-3.00905e-13
-2.92351e-13
-2.82607e-13
-2.75924e-13
-2.70312e-13
-2.64642e-13
-2.56796e-13
-2.48832e-13
-2.3997e-13
-2.32984e-13
-2.2449e-13
-2.16948e-13
-2.09268e-13
-2.00253e-13
-1.9436e-13
-1.88847e-13
-1.82525e-13
-1.76869e-13
-1.69514e-13
-1.594e-13
-1.49933e-13
-1.43209e-13
-1.34353e-13
-1.23676e-13
-1.1705e-13
-1.10593e-13
-1.05159e-13
-9.82247e-14
-9.008e-14
-8.3294e-14
-7.66339e-14
-7.16746e-14
-6.67721e-14
-5.98857e-14
-5.16726e-14
-4.2394e-14
-3.30732e-14
-2.68616e-14
-1.85838e-14
-1.26978e-14
-4.2843e-15
-6.76725e-13
-6.776e-13
-6.77352e-13
-6.74992e-13
-6.79219e-13
-6.75025e-13
-6.72919e-13
-6.7105e-13
-6.68613e-13
-6.63388e-13
-6.5745e-13
-6.49918e-13
-6.43994e-13
-6.39458e-13
-6.37293e-13
-6.30003e-13
-6.19179e-13
-6.13362e-13
-6.09466e-13
-6.01823e-13
-5.93676e-13
-5.86517e-13
-5.78116e-13
-5.66896e-13
-5.59066e-13
-5.54617e-13
-5.49199e-13
-5.43156e-13
-5.33512e-13
-5.24719e-13
-5.16656e-13
-5.07431e-13
-4.99321e-13
-4.92099e-13
-4.83601e-13
-4.79831e-13
-4.70812e-13
-4.58977e-13
-4.50245e-13
-4.40648e-13
-4.34611e-13
-4.29323e-13
-4.23489e-13
-4.16612e-13
-4.07366e-13
-3.98251e-13
-3.89823e-13
-3.83372e-13
-3.74789e-13
-3.64871e-13
-3.56243e-13
-3.50013e-13
-3.43444e-13
-3.3775e-13
-3.27318e-13
-3.21118e-13
-3.12897e-13
-3.07346e-13
-3.05636e-13
-2.99453e-13
-2.91657e-13
-2.84339e-13
-2.7855e-13
-2.72134e-13
-2.64646e-13
-2.55869e-13
-2.48462e-13
-2.40088e-13
-2.33281e-13
-2.26161e-13
-2.19442e-13
-2.11402e-13
-2.02464e-13
-1.95217e-13
-1.88592e-13
-1.81506e-13
-1.76188e-13
-1.69365e-13
-1.59263e-13
-1.50347e-13
-1.42772e-13
-1.34769e-13
-1.25172e-13
-1.16557e-13
-1.10295e-13
-1.0381e-13
-9.69685e-14
-8.92418e-14
-8.17111e-14
-7.69048e-14
-7.31859e-14
-6.78573e-14
-6.08762e-14
-5.04423e-14
-4.1758e-14
-3.51108e-14
-2.81477e-14
-1.87107e-14
-1.1281e-14
-4.13579e-15
-6.76908e-13
-6.79991e-13
-6.77354e-13
-6.74774e-13
-6.73084e-13
-6.75143e-13
-6.74891e-13
-6.7276e-13
-6.67676e-13
-6.62047e-13
-6.55449e-13
-6.51348e-13
-6.43523e-13
-6.38797e-13
-6.36587e-13
-6.31379e-13
-6.23901e-13
-6.16003e-13
-6.07434e-13
-5.99038e-13
-5.93884e-13
-5.86149e-13
-5.74636e-13
-5.66485e-13
-5.61936e-13
-5.55667e-13
-5.49895e-13
-5.42037e-13
-5.35498e-13
-5.26677e-13
-5.1713e-13
-5.0799e-13
-4.98973e-13
-4.92316e-13
-4.85297e-13
-4.79711e-13
-4.69413e-13
-4.5901e-13
-4.49343e-13
-4.41321e-13
-4.34714e-13
-4.30595e-13
-4.2353e-13
-4.15335e-13
-4.06252e-13
-3.95818e-13
-3.88868e-13
-3.82478e-13
-3.74399e-13
-3.67696e-13
-3.58648e-13
-3.51116e-13
-3.43473e-13
-3.37827e-13
-3.27299e-13
-3.20325e-13
-3.13948e-13
-3.08019e-13
-3.04791e-13
-2.98819e-13
-2.92315e-13
-2.84722e-13
-2.77352e-13
-2.71882e-13
-2.6579e-13
-2.5893e-13
-2.51458e-13
-2.40803e-13
-2.33143e-13
-2.24111e-13
-2.16903e-13
-2.09907e-13
-2.02852e-13
-1.95264e-13
-1.86146e-13
-1.79199e-13
-1.75599e-13
-1.68861e-13
-1.61241e-13
-1.51729e-13
-1.44197e-13
-1.36366e-13
-1.24578e-13
-1.15516e-13
-1.07987e-13
-1.01685e-13
-9.74446e-14
-9.12563e-14
-8.3294e-14
-7.79416e-14
-7.23885e-14
-6.75134e-14
-5.95358e-14
-5.26845e-14
-4.44116e-14
-3.51444e-14
-2.76809e-14
-2.0356e-14
-1.08143e-14
-2.09472e-15
-6.7446e-13
-6.80947e-13
-6.78283e-13
-6.7242e-13
-6.76297e-13
-6.78146e-13
-6.7587e-13
-6.7219e-13
-6.65685e-13
-6.56662e-13
-6.53721e-13
-6.51181e-13
-6.47488e-13
-6.39612e-13
-6.34576e-13
-6.3243e-13
-6.24273e-13
-6.17692e-13
-6.11293e-13
-6.01857e-13
-5.91919e-13
-5.82066e-13
-5.68236e-13
-5.64119e-13
-5.62399e-13
-5.58521e-13
-5.504e-13
-5.42199e-13
-5.35002e-13
-5.28257e-13
-5.17752e-13
-5.08583e-13
-5.0015e-13
-4.93835e-13
-4.88377e-13
-4.78602e-13
-4.68439e-13
-4.59274e-13
-4.4882e-13
-4.42697e-13
-4.36366e-13
-4.31014e-13
-4.22331e-13
-4.15448e-13
-4.06307e-13
-3.95237e-13
-3.87133e-13
-3.8021e-13
-3.74761e-13
-3.67541e-13
-3.59469e-13
-3.50781e-13
-3.42879e-13
-3.361e-13
-3.26725e-13
-3.21286e-13
-3.15444e-13
-3.08665e-13
-3.03932e-13
-2.98954e-13
-2.94338e-13
-2.85958e-13
-2.77768e-13
-2.71367e-13
-2.63473e-13
-2.57637e-13
-2.51815e-13
-2.41836e-13
-2.34126e-13
-2.26039e-13
-2.17552e-13
-2.09839e-13
-2.04013e-13
-1.9607e-13
-1.8758e-13
-1.8108e-13
-1.75196e-13
-1.66574e-13
-1.60589e-13
-1.52951e-13
-1.45789e-13
-1.35872e-13
-1.23098e-13
-1.14345e-13
-1.09073e-13
-1.0322e-13
-9.80756e-14
-8.97929e-14
-8.24015e-14
-7.73331e-14
-7.22812e-14
-6.78243e-14
-5.82684e-14
-5.13856e-14
-4.35499e-14
-3.69937e-14
-2.83359e-14
-2.00466e-14
-9.697e-15
-1.68264e-15
-6.7777e-13
-6.77969e-13
-6.78124e-13
-6.75573e-13
-6.74029e-13
-6.7642e-13
-6.7458e-13
-6.70527e-13
-6.64355e-13
-6.57312e-13
-6.50948e-13
-6.50472e-13
-6.48817e-13
-6.40418e-13
-6.35364e-13
-6.31248e-13
-6.28566e-13
-6.21929e-13
-6.09366e-13
-5.96508e-13
-5.83573e-13
-5.78191e-13
-5.75561e-13
-5.72017e-13
-5.64907e-13
-5.57779e-13
-5.49435e-13
-5.41616e-13
-5.35673e-13
-5.29977e-13
-5.19598e-13
-5.07383e-13
-5.00294e-13
-4.91672e-13
-4.84916e-13
-4.76851e-13
-4.69606e-13
-4.62635e-13
-4.52286e-13
-4.41954e-13
-4.33713e-13
-4.27471e-13
-4.21448e-13
-4.15934e-13
-4.08014e-13
-3.98297e-13
-3.88163e-13
-3.7952e-13
-3.72455e-13
-3.67828e-13
-3.60534e-13
-3.53621e-13
-3.45e-13
-3.36126e-13
-3.28299e-13
-3.21926e-13
-3.14837e-13
-3.0546e-13
-3.01602e-13
-2.98868e-13
-2.97753e-13
-2.89698e-13
-2.7956e-13
-2.69833e-13
-2.61493e-13
-2.54652e-13
-2.47588e-13
-2.39119e-13
-2.31277e-13
-2.25737e-13
-2.22643e-13
-2.13913e-13
-2.04802e-13
-1.98183e-13
-1.89412e-13
-1.79952e-13
-1.72019e-13
-1.63593e-13
-1.57918e-13
-1.52308e-13
-1.45458e-13
-1.35507e-13
-1.26221e-13
-1.17934e-13
-1.11036e-13
-1.01752e-13
-9.64052e-14
-9.03419e-14
-8.32835e-14
-7.85153e-14
-7.1884e-14
-6.41386e-14
-5.79632e-14
-5.05366e-14
-4.2725e-14
-3.55522e-14
-2.84311e-14
-1.8856e-14
-1.02137e-14
-3.13669e-15
-6.76237e-13
-6.75584e-13
-6.74799e-13
-6.77086e-13
-6.78262e-13
-6.77509e-13
-6.73588e-13
-6.68938e-13
-6.62488e-13
-6.57937e-13
-6.53884e-13
-6.49668e-13
-6.46144e-13
-6.38984e-13
-6.35656e-13
-6.31847e-13
-6.28493e-13
-6.21912e-13
-6.06671e-13
-5.98229e-13
-5.92773e-13
-5.85538e-13
-5.7521e-13
-5.66422e-13
-5.62965e-13
-5.55706e-13
-5.47294e-13
-5.4134e-13
-5.34587e-13
-5.27711e-13
-5.20483e-13
-5.10807e-13
-5.04021e-13
-4.96185e-13
-4.86057e-13
-4.76709e-13
-4.68074e-13
-4.59344e-13
-4.51628e-13
-4.42048e-13
-4.34249e-13
-4.2904e-13
-4.21996e-13
-4.17911e-13
-4.11401e-13
-3.9881e-13
-3.8535e-13
-3.74363e-13
-3.72032e-13
-3.68567e-13
-3.6348e-13
-3.56452e-13
-3.45385e-13
-3.36465e-13
-3.26511e-13
-3.20354e-13
-3.15092e-13
-3.09568e-13
-3.02824e-13
-2.97783e-13
-2.95348e-13
-2.88122e-13
-2.804e-13
-2.72249e-13
-2.64699e-13
-2.56436e-13
-2.48741e-13
-2.40286e-13
-2.34189e-13
-2.2725e-13
-2.20149e-13
-2.14153e-13
-2.03484e-13
-1.9247e-13
-1.85884e-13
-1.79987e-13
-1.74463e-13
-1.66562e-13
-1.60583e-13
-1.54496e-13
-1.4606e-13
-1.35552e-13
-1.24103e-13
-1.14214e-13
-1.06441e-13
-1.01562e-13
-9.73505e-14
-9.1548e-14
-8.43935e-14
-7.75667e-14
-7.01497e-14
-6.34413e-14
-5.79988e-14
-5.16873e-14
-4.18333e-14
-3.43178e-14
-2.75648e-14
-1.99901e-14
-1.13164e-14
-2.21266e-15
-6.7764e-13
-6.78626e-13
-6.75662e-13
-6.72614e-13
-6.73989e-13
-6.75453e-13
-6.74464e-13
-6.68617e-13
-6.60424e-13
-6.58863e-13
-6.54648e-13
-6.47598e-13
-6.42408e-13
-6.3974e-13
-6.3764e-13
-6.33629e-13
-6.28244e-13
-6.2044e-13
-6.10378e-13
-5.99328e-13
-5.90829e-13
-5.83023e-13
-5.77729e-13
-5.71789e-13
-5.64303e-13
-5.54897e-13
-5.45964e-13
-5.40948e-13
-5.36805e-13
-5.28055e-13
-5.21467e-13
-5.12415e-13
-5.02277e-13
-4.9214e-13
-4.8565e-13
-4.77484e-13
-4.67649e-13
-4.59177e-13
-4.51619e-13
-4.4491e-13
-4.39403e-13
-4.31393e-13
-4.19427e-13
-4.12278e-13
-4.06102e-13
-3.98793e-13
-3.8838e-13
-3.80442e-13
-3.74189e-13
-3.67257e-13
-3.61021e-13
-3.54072e-13
-3.45119e-13
-3.37193e-13
-3.29233e-13
-3.23614e-13
-3.16949e-13
-3.1017e-13
-3.03623e-13
-2.99132e-13
-2.93396e-13
-2.8586e-13
-2.79235e-13
-2.71967e-13
-2.63023e-13
-2.53977e-13
-2.48255e-13
-2.41276e-13
-2.34081e-13
-2.26579e-13
-2.1887e-13
-2.14421e-13
-2.06321e-13
-1.9709e-13
-1.86783e-13
-1.80307e-13
-1.75492e-13
-1.67521e-13
-1.61006e-13
-1.52917e-13
-1.45844e-13
-1.36042e-13
-1.24718e-13
-1.15527e-13
-1.0829e-13
-1.01515e-13
-9.74878e-14
-9.11619e-14
-8.42744e-14
-7.74016e-14
-6.95023e-14
-6.30396e-14
-5.56578e-14
-4.94041e-14
-4.13151e-14
-3.37964e-14
-2.67303e-14
-1.77345e-14
-9.03597e-15
-5.71132e-16
-6.77132e-13
-6.7718e-13
-6.77604e-13
-6.74542e-13
-6.72555e-13
-6.7325e-13
-6.73083e-13
-6.70308e-13
-6.65127e-13
-6.56625e-13
-6.50384e-13
-6.45236e-13
-6.42738e-13
-6.41563e-13
-6.38568e-13
-6.32913e-13
-6.25739e-13
-6.21867e-13
-6.15444e-13
-6.02264e-13
-5.90908e-13
-5.80542e-13
-5.74809e-13
-5.68733e-13
-5.64602e-13
-5.58687e-13
-5.49868e-13
-5.42941e-13
-5.36329e-13
-5.28725e-13
-5.21067e-13
-5.12395e-13
-5.02713e-13
-4.91575e-13
-4.83514e-13
-4.76244e-13
-4.69812e-13
-4.59608e-13
-4.53333e-13
-4.45743e-13
-4.36769e-13
-4.27239e-13
-4.18355e-13
-4.12439e-13
-4.08076e-13
-4.02494e-13
-3.91383e-13
-3.81618e-13
-3.74249e-13
-3.65944e-13
-3.59419e-13
-3.53776e-13
-3.46155e-13
-3.38373e-13
-3.29677e-13
-3.22989e-13
-3.17145e-13
-3.09943e-13
-3.034e-13
-3.00165e-13
-2.95954e-13
-2.9016e-13
-2.83559e-13
-2.73093e-13
-2.61432e-13
-2.49596e-13
-2.42102e-13
-2.37531e-13
-2.33019e-13
-2.30498e-13
-2.24559e-13
-2.15577e-13
-2.07731e-13
-1.98201e-13
-1.86957e-13
-1.79005e-13
-1.73752e-13
-1.66364e-13
-1.61107e-13
-1.52489e-13
-1.44988e-13
-1.36355e-13
-1.25958e-13
-1.17688e-13
-1.08325e-13
-1.00271e-13
-9.58138e-14
-8.93012e-14
-8.37082e-14
-7.65329e-14
-6.83754e-14
-5.96121e-14
-5.29632e-14
-4.77885e-14
-3.86625e-14
-3.06744e-14
-2.3785e-14
-1.65253e-14
-7.52579e-15
-6.49668e-16
-6.75814e-13
-6.75326e-13
-6.74608e-13
-6.75717e-13
-6.75657e-13
-6.7189e-13
-6.7017e-13
-6.67534e-13
-6.63393e-13
-6.5992e-13
-6.51639e-13
-6.44504e-13
-6.43306e-13
-6.43699e-13
-6.39224e-13
-6.34482e-13
-6.25492e-13
-6.19466e-13
-6.13673e-13
-6.03368e-13
-5.9409e-13
-5.81363e-13
-5.72713e-13
-5.68145e-13
-5.63448e-13
-5.57403e-13
-5.51168e-13
-5.44127e-13
-5.37698e-13
-5.29155e-13
-5.20513e-13
-5.11432e-13
-5.01996e-13
-4.92789e-13
-4.86394e-13
-4.78083e-13
-4.6922e-13
-4.59465e-13
-4.53135e-13
-4.44338e-13
-4.37277e-13
-4.27554e-13
-4.19477e-13
-4.14696e-13
-4.09426e-13
-4.01306e-13
-3.89482e-13
-3.79005e-13
-3.72509e-13
-3.65315e-13
-3.6146e-13
-3.55523e-13
-3.45363e-13
-3.3815e-13
-3.29716e-13
-3.25526e-13
-3.19076e-13
-3.11931e-13
-3.03694e-13
-2.96094e-13
-2.92439e-13
-2.84856e-13
-2.80302e-13
-2.74769e-13
-2.63148e-13
-2.51431e-13
-2.4342e-13
-2.37103e-13
-2.32957e-13
-2.32368e-13
-2.25236e-13
-2.17189e-13
-2.07954e-13
-1.97992e-13
-1.85877e-13
-1.76166e-13
-1.73456e-13
-1.68423e-13
-1.63402e-13
-1.54561e-13
-1.46993e-13
-1.38568e-13
-1.25554e-13
-1.15596e-13
-1.05183e-13
-9.59513e-14
-9.54791e-14
-9.12846e-14
-8.35169e-14
-7.59578e-14
-6.6548e-14
-5.86787e-14
-5.22311e-14
-4.56876e-14
-3.9627e-14
-3.23945e-14
-2.14555e-14
-1.08771e-14
-2.13308e-15
-1.24391e-15
-6.77179e-13
-6.75867e-13
-6.74582e-13
-6.7524e-13
-6.74472e-13
-6.70627e-13
-6.70874e-13
-6.68125e-13
-6.62747e-13
-6.57931e-13
-6.52517e-13
-6.46666e-13
-6.40473e-13
-6.38395e-13
-6.36878e-13
-6.31573e-13
-6.27585e-13
-6.22997e-13
-6.15449e-13
-6.03775e-13
-5.93252e-13
-5.86307e-13
-5.77386e-13
-5.6872e-13
-5.6331e-13
-5.54115e-13
-5.49132e-13
-5.44425e-13
-5.38616e-13
-5.30615e-13
-5.2132e-13
-5.11481e-13
-5.01009e-13
-4.90974e-13
-4.84839e-13
-4.76865e-13
-4.70372e-13
-4.6179e-13
-4.55114e-13
-4.441e-13
-4.35867e-13
-4.25323e-13
-4.19479e-13
-4.16123e-13
-4.08679e-13
-4.01123e-13
-3.90467e-13
-3.80905e-13
-3.73281e-13
-3.64648e-13
-3.59084e-13
-3.54378e-13
-3.46092e-13
-3.40184e-13
-3.32907e-13
-3.24681e-13
-3.18353e-13
-3.11083e-13
-3.0307e-13
-2.97361e-13
-2.94033e-13
-2.91891e-13
-2.83091e-13
-2.7291e-13
-2.58752e-13
-2.50277e-13
-2.43896e-13
-2.388e-13
-2.3259e-13
-2.28727e-13
-2.22588e-13
-2.19179e-13
-2.1247e-13
-2.01134e-13
-1.85836e-13
-1.72601e-13
-1.68369e-13
-1.68276e-13
-1.64204e-13
-1.54684e-13
-1.46121e-13
-1.37042e-13
-1.26547e-13
-1.17461e-13
-1.07427e-13
-9.79513e-14
-9.13341e-14
-8.87521e-14
-8.22585e-14
-7.42717e-14
-6.46043e-14
-5.80667e-14
-5.18071e-14
-4.4415e-14
-3.68326e-14
-3.05204e-14
-2.01418e-14
-1.08205e-14
-3.63989e-15
-1.00181e-15
-6.75482e-13
-6.7474e-13
-6.69563e-13
-6.75775e-13
-6.7544e-13
-6.7343e-13
-6.68265e-13
-6.63926e-13
-6.60502e-13
-6.54876e-13
-6.5149e-13
-6.47924e-13
-6.45969e-13
-6.41108e-13
-6.37921e-13
-6.34267e-13
-6.29013e-13
-6.23197e-13
-6.15758e-13
-6.03896e-13
-5.8972e-13
-5.78998e-13
-5.72339e-13
-5.68645e-13
-5.62515e-13
-5.57149e-13
-5.49808e-13
-5.44411e-13
-5.3931e-13
-5.32544e-13
-5.2329e-13
-5.11464e-13
-5.0231e-13
-4.93996e-13
-4.87714e-13
-4.78213e-13
-4.68376e-13
-4.61807e-13
-4.5419e-13
-4.43834e-13
-4.34097e-13
-4.28415e-13
-4.22092e-13
-4.15352e-13
-4.06084e-13
-3.96361e-13
-3.88397e-13
-3.80812e-13
-3.74038e-13
-3.67476e-13
-3.60729e-13
-3.54775e-13
-3.44858e-13
-3.3686e-13
-3.34791e-13
-3.32687e-13
-3.20269e-13
-3.07826e-13
-2.99326e-13
-2.93239e-13
-2.90053e-13
-2.86211e-13
-2.8346e-13
-2.75238e-13
-2.61928e-13
-2.54142e-13
-2.4254e-13
-2.39413e-13
-2.33078e-13
-2.27464e-13
-2.21958e-13
-2.195e-13
-2.12447e-13
-2.00108e-13
-1.8699e-13
-1.75238e-13
-1.69995e-13
-1.6971e-13
-1.60975e-13
-1.51635e-13
-1.44911e-13
-1.37072e-13
-1.28411e-13
-1.18215e-13
-1.08085e-13
-9.76946e-14
-9.05841e-14
-8.80152e-14
-8.02936e-14
-7.21732e-14
-6.43833e-14
-5.7191e-14
-4.94763e-14
-4.31975e-14
-3.74814e-14
-2.96801e-14
-1.97082e-14
-1.1507e-14
-2.61825e-15
-2.27471e-16
-6.72607e-13
-6.79184e-13
-6.75017e-13
-6.72091e-13
-6.72605e-13
-6.71901e-13
-6.67751e-13
-6.67048e-13
-6.60454e-13
-6.51696e-13
-6.48053e-13
-6.47535e-13
-6.45246e-13
-6.4299e-13
-6.39485e-13
-6.32229e-13
-6.23378e-13
-6.17939e-13
-6.13738e-13
-6.05329e-13
-5.98705e-13
-5.91453e-13
-5.8263e-13
-5.68546e-13
-5.56929e-13
-5.50237e-13
-5.49542e-13
-5.44865e-13
-5.38808e-13
-5.33384e-13
-5.24072e-13
-5.13086e-13
-5.00374e-13
-4.8935e-13
-4.82e-13
-4.76232e-13
-4.73096e-13
-4.65966e-13
-4.54022e-13
-4.45898e-13
-4.35753e-13
-4.26776e-13
-4.21194e-13
-4.13838e-13
-4.04629e-13
-3.95666e-13
-3.86512e-13
-3.81401e-13
-3.75802e-13
-3.68834e-13
-3.61407e-13
-3.53106e-13
-3.46482e-13
-3.39308e-13
-3.3375e-13
-3.28132e-13
-3.22466e-13
-3.13732e-13
-3.06245e-13
-2.97027e-13
-2.89103e-13
-2.82663e-13
-2.77263e-13
-2.72171e-13
-2.63474e-13
-2.5568e-13
-2.46831e-13
-2.40011e-13
-2.33735e-13
-2.28213e-13
-2.23669e-13
-2.1611e-13
-2.08523e-13
-2.00001e-13
-1.8873e-13
-1.78798e-13
-1.69735e-13
-1.65605e-13
-1.60074e-13
-1.5237e-13
-1.45935e-13
-1.3569e-13
-1.2665e-13
-1.16769e-13
-1.06913e-13
-9.80792e-14
-9.2419e-14
-8.63958e-14
-8.0305e-14
-7.18171e-14
-6.43309e-14
-5.86328e-14
-5.11981e-14
-4.27391e-14
-3.44813e-14
-2.59256e-14
-1.86495e-14
-1.25318e-14
-4.74484e-15
-6.81854e-16
-6.71632e-13
-6.7481e-13
-6.75542e-13
-6.72434e-13
-6.72314e-13
-6.73172e-13
-6.65756e-13
-6.5873e-13
-6.55239e-13
-6.54186e-13
-6.52813e-13
-6.50482e-13
-6.47435e-13
-6.43181e-13
-6.38766e-13
-6.33041e-13
-6.27661e-13
-6.24265e-13
-6.17065e-13
-6.04113e-13
-5.90391e-13
-5.78731e-13
-5.7333e-13
-5.65828e-13
-5.62472e-13
-5.58201e-13
-5.52293e-13
-5.43718e-13
-5.37424e-13
-5.33519e-13
-5.26167e-13
-5.15819e-13
-5.03531e-13
-4.89515e-13
-4.79684e-13
-4.75752e-13
-4.73412e-13
-4.66496e-13
-4.57995e-13
-4.46984e-13
-4.34819e-13
-4.24852e-13
-4.16293e-13
-4.11366e-13
-4.04743e-13
-3.97223e-13
-3.8969e-13
-3.81595e-13
-3.7536e-13
-3.73699e-13
-3.6679e-13
-3.52951e-13
-3.43415e-13
-3.36044e-13
-3.3062e-13
-3.27185e-13
-3.22816e-13
-3.13811e-13
-3.02672e-13
-2.9516e-13
-2.90826e-13
-2.85818e-13
-2.79696e-13
-2.72345e-13
-2.60614e-13
-2.51926e-13
-2.45358e-13
-2.4178e-13
-2.35599e-13
-2.28215e-13
-2.22011e-13
-2.16071e-13
-2.08567e-13
-1.98488e-13
-1.88844e-13
-1.76438e-13
-1.68074e-13
-1.64814e-13
-1.62134e-13
-1.561e-13
-1.4807e-13
-1.37433e-13
-1.25739e-13
-1.14706e-13
-1.06057e-13
-9.79533e-14
-9.19865e-14
-8.51477e-14
-7.7877e-14
-7.06568e-14
-6.40798e-14
-5.79095e-14
-5.13482e-14
-4.23735e-14
-3.33854e-14
-2.43826e-14
-1.62276e-14
-9.92149e-15
-4.0183e-15
-8.2641e-16
-6.70413e-13
-6.75633e-13
-6.75943e-13
-6.73409e-13
-6.70965e-13
-6.73949e-13
-6.71673e-13
-6.62746e-13
-6.50452e-13
-6.48472e-13
-6.48076e-13
-6.48954e-13
-6.47628e-13
-6.46443e-13
-6.40991e-13
-6.33554e-13
-6.25951e-13
-6.20377e-13
-6.10536e-13
-6.031e-13
-5.97115e-13
-5.85965e-13
-5.75242e-13
-5.64259e-13
-5.62198e-13
-5.58613e-13
-5.53903e-13
-5.46664e-13
-5.38803e-13
-5.32401e-13
-5.23796e-13
-5.12774e-13
-5.02623e-13
-4.89465e-13
-4.78519e-13
-4.75132e-13
-4.72923e-13
-4.66965e-13
-4.57833e-13
-4.47745e-13
-4.33274e-13
-4.22911e-13
-4.1853e-13
-4.13242e-13
-4.05468e-13
-3.96425e-13
-3.9135e-13
-3.85185e-13
-3.7625e-13
-3.66391e-13
-3.60112e-13
-3.54239e-13
-3.46493e-13
-3.35558e-13
-3.33948e-13
-3.29896e-13
-3.21376e-13
-3.15042e-13
-3.08249e-13
-2.97574e-13
-2.89787e-13
-2.84015e-13
-2.76278e-13
-2.69752e-13
-2.60443e-13
-2.53337e-13
-2.44549e-13
-2.39793e-13
-2.32857e-13
-2.29841e-13
-2.2362e-13
-2.17955e-13
-2.10847e-13
-1.98575e-13
-1.86366e-13
-1.75818e-13
-1.6995e-13
-1.64015e-13
-1.59478e-13
-1.53732e-13
-1.47066e-13
-1.38096e-13
-1.2628e-13
-1.14568e-13
-1.07365e-13
-9.87799e-14
-9.16638e-14
-8.55192e-14
-7.87184e-14
-6.94664e-14
-6.22824e-14
-5.56373e-14
-4.80187e-14
-3.97278e-14
-3.27099e-14
-2.74608e-14
-1.5526e-14
-7.18983e-15
-1.57821e-15
-4.43561e-16
-6.74373e-13
-6.73837e-13
-6.70923e-13
-6.67847e-13
-6.69626e-13
-6.66299e-13
-6.63649e-13
-6.64113e-13
-6.62008e-13
-6.5652e-13
-6.54013e-13
-6.48153e-13
-6.43551e-13
-6.42678e-13
-6.39501e-13
-6.34855e-13
-6.27889e-13
-6.24285e-13
-6.16066e-13
-6.03032e-13
-5.88358e-13
-5.78726e-13
-5.72468e-13
-5.69527e-13
-5.62849e-13
-5.586e-13
-5.53978e-13
-5.46261e-13
-5.39256e-13
-5.31716e-13
-5.2418e-13
-5.12674e-13
-5.01424e-13
-4.89518e-13
-4.80865e-13
-4.76986e-13
-4.75048e-13
-4.66956e-13
-4.56271e-13
-4.46984e-13
-4.33998e-13
-4.21891e-13
-4.17284e-13
-4.12329e-13
-4.07553e-13
-3.97186e-13
-3.88232e-13
-3.84348e-13
-3.78583e-13
-3.6883e-13
-3.59789e-13
-3.54495e-13
-3.47986e-13
-3.37971e-13
-3.30897e-13
-3.2688e-13
-3.19764e-13
-3.14233e-13
-3.08926e-13
-3.00893e-13
-2.90927e-13
-2.84504e-13
-2.76461e-13
-2.69754e-13
-2.63012e-13
-2.54151e-13
-2.44477e-13
-2.35485e-13
-2.30703e-13
-2.30508e-13
-2.2267e-13
-2.16746e-13
-2.09759e-13
-1.98985e-13
-1.88537e-13
-1.78104e-13
-1.67688e-13
-1.60935e-13
-1.58924e-13
-1.5621e-13
-1.49298e-13
-1.36177e-13
-1.25288e-13
-1.12654e-13
-1.06685e-13
-1.00276e-13
-9.35102e-14
-8.42115e-14
-7.55711e-14
-6.87775e-14
-6.18518e-14
-5.42341e-14
-4.86457e-14
-4.03911e-14
-3.25675e-14
-2.43125e-14
-1.57242e-14
-8.20342e-15
-1.34031e-15
8.15288e-16
-6.7355e-13
-6.72997e-13
-6.7053e-13
-6.68856e-13
-6.73572e-13
-6.71393e-13
-6.63702e-13
-6.58867e-13
-6.55997e-13
-6.54305e-13
-6.5338e-13
-6.52864e-13
-6.44669e-13
-6.38766e-13
-6.36648e-13
-6.32467e-13
-6.29558e-13
-6.23472e-13
-6.14678e-13
-6.0161e-13
-5.90552e-13
-5.80001e-13
-5.71655e-13
-5.69697e-13
-5.67355e-13
-5.58521e-13
-5.51741e-13
-5.46235e-13
-5.42178e-13
-5.33429e-13
-5.2548e-13
-5.13181e-13
-5.00848e-13
-4.89093e-13
-4.78624e-13
-4.75649e-13
-4.71233e-13
-4.66848e-13
-4.5944e-13
-4.49177e-13
-4.36109e-13
-4.25649e-13
-4.17592e-13
-4.08129e-13
-4.05421e-13
-3.98144e-13
-3.90863e-13
-3.81444e-13
-3.74737e-13
-3.69508e-13
-3.60513e-13
-3.54262e-13
-3.47706e-13
-3.39078e-13
-3.35047e-13
-3.29745e-13
-3.19032e-13
-3.10264e-13
-3.06733e-13
-2.99881e-13
-2.92145e-13
-2.83887e-13
-2.78166e-13
-2.71953e-13
-2.63289e-13
-2.52414e-13
-2.45418e-13
-2.35987e-13
-2.28157e-13
-2.26305e-13
-2.22539e-13
-2.17081e-13
-2.10807e-13
-1.99247e-13
-1.88152e-13
-1.77983e-13
-1.68919e-13
-1.61871e-13
-1.59979e-13
-1.55303e-13
-1.47455e-13
-1.36739e-13
-1.25863e-13
-1.13818e-13
-1.05498e-13
-9.60654e-14
-8.9948e-14
-8.55633e-14
-7.87279e-14
-6.87321e-14
-6.07571e-14
-5.2951e-14
-4.63105e-14
-3.90635e-14
-3.12486e-14
-2.47548e-14
-1.67429e-14
-7.23971e-15
-9.20455e-16
-8.01666e-16
-6.69696e-13
-6.71791e-13
-6.71757e-13
-6.7034e-13
-6.69559e-13
-6.65216e-13
-6.62737e-13
-6.60591e-13
-6.59464e-13
-6.57483e-13
-6.54062e-13
-6.51559e-13
-6.46751e-13
-6.40355e-13
-6.3564e-13
-6.30369e-13
-6.27961e-13
-6.21944e-13
-6.12521e-13
-6.03192e-13
-5.91066e-13
-5.80393e-13
-5.75002e-13
-5.69923e-13
-5.62308e-13
-5.57082e-13
-5.54101e-13
-5.49071e-13
-5.41502e-13
-5.31338e-13
-5.22396e-13
-5.12308e-13
-5.00585e-13
-4.90365e-13
-4.81035e-13
-4.78819e-13
-4.75785e-13
-4.67112e-13
-4.56121e-13
-4.43714e-13
-4.34289e-13
-4.27963e-13
-4.19097e-13
-4.09107e-13
-4.03548e-13
-3.95161e-13
-3.91947e-13
-3.89162e-13
-3.7921e-13
-3.66971e-13
-3.58474e-13
-3.55163e-13
-3.48741e-13
-3.38506e-13
-3.33409e-13
-3.28324e-13
-3.21555e-13
-3.12391e-13
-3.05559e-13
-2.98219e-13
-2.94573e-13
-2.86755e-13
-2.78348e-13
-2.7083e-13
-2.60605e-13
-2.52021e-13
-2.44061e-13
-2.3726e-13
-2.29386e-13
-2.24397e-13
-2.19548e-13
-2.17912e-13
-2.11921e-13
-1.99389e-13
-1.88112e-13
-1.7778e-13
-1.70381e-13
-1.63981e-13
-1.56737e-13
-1.48548e-13
-1.48049e-13
-1.4141e-13
-1.26364e-13
-1.13915e-13
-1.04166e-13
-9.45052e-14
-8.82798e-14
-8.4274e-14
-7.79742e-14
-6.84992e-14
-6.00029e-14
-5.39003e-14
-4.62347e-14
-3.8023e-14
-3.25852e-14
-2.337e-14
-1.46297e-14
-6.24301e-15
-1.95959e-16
-1.33245e-15
-6.73776e-13
-6.72231e-13
-6.70798e-13
-6.68662e-13
-6.65209e-13
-6.63685e-13
-6.61504e-13
-6.61463e-13
-6.60216e-13
-6.5776e-13
-6.52836e-13
-6.5058e-13
-6.4675e-13
-6.42012e-13
-6.36483e-13
-6.2946e-13
-6.22299e-13
-6.17001e-13
-6.12477e-13
-6.05977e-13
-5.93136e-13
-5.832e-13
-5.75775e-13
-5.68391e-13
-5.63077e-13
-5.58452e-13
-5.54342e-13
-5.4991e-13
-5.40145e-13
-5.32652e-13
-5.23181e-13
-5.11344e-13
-5.00209e-13
-4.88608e-13
-4.8289e-13
-4.78483e-13
-4.73594e-13
-4.66131e-13
-4.55726e-13
-4.45242e-13
-4.34768e-13
-4.25346e-13
-4.19387e-13
-4.12279e-13
-4.06239e-13
-3.9878e-13
-3.8994e-13
-3.82613e-13
-3.77931e-13
-3.70184e-13
-3.63379e-13
-3.55191e-13
-3.4704e-13
-3.39098e-13
-3.32895e-13
-3.2507e-13
-3.21099e-13
-3.14241e-13
-3.06302e-13
-2.98957e-13
-2.94965e-13
-2.88156e-13
-2.78663e-13
-2.69503e-13
-2.61388e-13
-2.53039e-13
-2.43793e-13
-2.3595e-13
-2.29484e-13
-2.24438e-13
-2.20701e-13
-2.18555e-13
-2.11067e-13
-1.97796e-13
-1.87612e-13
-1.77805e-13
-1.69612e-13
-1.62571e-13
-1.58164e-13
-1.52327e-13
-1.44965e-13
-1.37174e-13
-1.26441e-13
-1.15795e-13
-1.07322e-13
-9.55536e-14
-8.75306e-14
-8.1816e-14
-7.70963e-14
-6.61929e-14
-5.80365e-14
-5.32121e-14
-4.84619e-14
-3.83873e-14
-2.91607e-14
-2.26223e-14
-1.55059e-14
-4.99193e-15
-1.38019e-15
-1.64402e-15
-6.75251e-13
-6.71322e-13
-6.67315e-13
-6.67454e-13
-6.62337e-13
-6.62759e-13
-6.61655e-13
-6.62283e-13
-6.61992e-13
-6.56129e-13
-6.52504e-13
-6.51238e-13
-6.49457e-13
-6.43231e-13
-6.36219e-13
-6.30925e-13
-6.25446e-13
-6.17474e-13
-6.10721e-13
-6.00771e-13
-5.93258e-13
-5.83894e-13
-5.73417e-13
-5.66675e-13
-5.62007e-13
-5.61135e-13
-5.54835e-13
-5.48697e-13
-5.39717e-13
-5.32226e-13
-5.23238e-13
-5.12968e-13
-5.00018e-13
-4.90579e-13
-4.81499e-13
-4.76106e-13
-4.72474e-13
-4.65991e-13
-4.55991e-13
-4.45346e-13
-4.3714e-13
-4.27262e-13
-4.17953e-13
-4.10913e-13
-4.04822e-13
-3.97924e-13
-3.90496e-13
-3.84924e-13
-3.79653e-13
-3.71255e-13
-3.61257e-13
-3.52185e-13
-3.46589e-13
-3.40809e-13
-3.34701e-13
-3.28749e-13
-3.21402e-13
-3.13289e-13
-3.08144e-13
-3.02366e-13
-2.96221e-13
-2.87191e-13
-2.76104e-13
-2.68487e-13
-2.60224e-13
-2.51873e-13
-2.42966e-13
-2.36813e-13
-2.29484e-13
-2.26958e-13
-2.21856e-13
-2.15591e-13
-2.06243e-13
-1.96365e-13
-1.8654e-13
-1.76468e-13
-1.71792e-13
-1.67276e-13
-1.58583e-13
-1.5009e-13
-1.42925e-13
-1.352e-13
-1.25457e-13
-1.14877e-13
-1.04032e-13
-9.28541e-14
-8.77257e-14
-8.31258e-14
-7.57238e-14
-6.96236e-14
-6.30347e-14
-5.26899e-14
-4.44772e-14
-3.68345e-14
-2.90357e-14
-2.07312e-14
-1.35001e-14
-8.24254e-15
-3.99595e-15
-2.20778e-15
-6.73451e-13
-6.69793e-13
-6.68393e-13
-6.66404e-13
-6.64876e-13
-6.62456e-13
-6.59223e-13
-6.61625e-13
-6.61571e-13
-6.58384e-13
-6.5359e-13
-6.49625e-13
-6.49117e-13
-6.41897e-13
-6.34144e-13
-6.27136e-13
-6.21002e-13
-6.17052e-13
-6.11125e-13
-6.02558e-13
-5.94499e-13
-5.85394e-13
-5.7542e-13
-5.69225e-13
-5.65048e-13
-5.58885e-13
-5.5254e-13
-5.45183e-13
-5.37008e-13
-5.31873e-13
-5.23546e-13
-5.16591e-13
-5.05734e-13
-4.94844e-13
-4.80278e-13
-4.73884e-13
-4.69958e-13
-4.64158e-13
-4.54801e-13
-4.44856e-13
-4.38185e-13
-4.2751e-13
-4.1972e-13
-4.09773e-13
-4.05209e-13
-3.98513e-13
-3.93505e-13
-3.85797e-13
-3.76717e-13
-3.66258e-13
-3.60472e-13
-3.56667e-13
-3.49022e-13
-3.37969e-13
-3.31456e-13
-3.25261e-13
-3.1831e-13
-3.15687e-13
-3.08408e-13
-3.04543e-13
-3.02365e-13
-2.8593e-13
-2.74765e-13
-2.69415e-13
-2.62591e-13
-2.53221e-13
-2.44636e-13
-2.37862e-13
-2.27913e-13
-2.23168e-13
-2.19108e-13
-2.16808e-13
-2.09369e-13
-1.98019e-13
-1.84652e-13
-1.73618e-13
-1.71077e-13
-1.66137e-13
-1.57992e-13
-1.51355e-13
-1.4378e-13
-1.35336e-13
-1.2431e-13
-1.14024e-13
-1.04974e-13
-9.42146e-14
-8.68939e-14
-8.24123e-14
-7.60973e-14
-6.59133e-14
-5.8957e-14
-5.23768e-14
-4.47179e-14
-3.68891e-14
-3.1244e-14
-2.46353e-14
-1.37542e-14
-6.28683e-15
-8.05019e-16
-1.03589e-15
-6.69349e-13
-6.70924e-13
-6.70842e-13
-6.65893e-13
-6.62707e-13
-6.63071e-13
-6.61998e-13
-6.58773e-13
-6.59815e-13
-6.57368e-13
-6.55108e-13
-6.52488e-13
-6.47449e-13
-6.40622e-13
-6.34691e-13
-6.29331e-13
-6.26192e-13
-6.21232e-13
-6.12797e-13
-6.01245e-13
-5.88562e-13
-5.77967e-13
-5.73088e-13
-5.71264e-13
-5.66548e-13
-5.5874e-13
-5.50098e-13
-5.44745e-13
-5.36478e-13
-5.3248e-13
-5.25858e-13
-5.1443e-13
-5.02792e-13
-4.93933e-13
-4.85023e-13
-4.78049e-13
-4.71137e-13
-4.63029e-13
-4.54764e-13
-4.45956e-13
-4.36442e-13
-4.26966e-13
-4.17209e-13
-4.11518e-13
-4.08543e-13
-4.00001e-13
-3.91765e-13
-3.8197e-13
-3.7776e-13
-3.70887e-13
-3.60286e-13
-3.55415e-13
-3.48134e-13
-3.39912e-13
-3.33766e-13
-3.23298e-13
-3.14204e-13
-3.14314e-13
-3.14175e-13
-3.05702e-13
-2.96809e-13
-2.87342e-13