/*--------------------------------*- C++ -*----------------------------------*\
| =========                 |                                                 |
| \\      /  F ield         | OpenFOAM: The Open Source CFD Toolbox           |
|  \\    /   O peration     | Version:  v2012                                 |
|   \\  /    A nd           | Website:  www.openfoam.com                      |
|    \\/     M anipulation  |                                                 |
\*---------------------------------------------------------------------------*/
FoamFile
{
    version     2.0;
    format      ascii;
    class       volVectorField;
    location    "0";
    object      uRec;
}
// * * * * * * * * * * * * * * * * * * * * * * * * * * * * * * * * * * * * * //

dimensions      [0 1 -1 0 0 0 0];


internalField   nonuniform List<vector> 
4000
(
(1 5.13727e-16 0)
(1 3.65451e-15 0)
(1 -4.54153e-15 0)
(1 2.42908e-15 0)
(1 -1.97229e-15 0)
(1 -5.83195e-16 0)
(1 3.31483e-15 0)
(1 1.85054e-15 0)
(1 1.7557e-15 0)
(1 -5.49985e-15 0)
(1 -1.78704e-15 0)
(1 1.40458e-15 0)
(1 4.03941e-15 0)
(1 1.51209e-15 0)
(1 2.00518e-15 0)
(1 -1.70991e-15 0)
(1 1.54917e-16 0)
(1 -2.8697e-15 0)
(1 5.86881e-16 0)
(1 -4.08843e-16 0)
(1 -6.7643e-16 0)
(1 -7.93934e-15 0)
(1 -2.94653e-15 0)
(1 -5.03357e-15 0)
(1 1.23689e-15 0)
(1 -2.1162e-15 0)
(1 1.63961e-15 0)
(1 2.40014e-15 0)
(1 1.53866e-15 0)
(1 4.9815e-15 0)
(1 3.30833e-15 0)
(1 -4.63904e-16 0)
(1 -2.0746e-15 0)
(1 -1.26762e-16 0)
(1 8.0615e-16 0)
(1 3.71745e-15 0)
(1 6.04792e-15 0)
(1 5.03542e-15 0)
(1 -5.12347e-16 0)
(1 -5.27709e-15 0)
(1 -5.85935e-15 0)
(1 -3.65056e-15 0)
(1 -1.33707e-15 0)
(1 4.53644e-15 0)
(1 1.39668e-15 0)
(1 2.20088e-16 0)
(1 5.64768e-18 0)
(1 -7.53676e-16 0)
(1 -8.31845e-16 0)
(1 3.46188e-16 0)
(1 1.29232e-15 0)
(1 3.31227e-15 0)
(1 1.13022e-15 0)
(1 2.49736e-15 0)
(1 2.0952e-15 0)
(1 -2.09063e-15 0)
(1 -1.11488e-15 0)
(1 1.01783e-15 0)
(1 1.19523e-15 0)
(1 1.59306e-15 0)
(1 9.93057e-16 0)
(1 1.08304e-15 0)
(1 6.84042e-16 0)
(1 -2.37664e-15 0)
(1 -1.13624e-15 0)
(1 4.2928e-17 0)
(1 -1.44184e-15 0)
(1 3.02345e-15 0)
(1 -2.08148e-15 0)
(1 -2.33987e-16 0)
(1 -3.72327e-15 0)
(1 -6.09592e-16 0)
(1 -8.93579e-16 0)
(1 -8.19589e-16 0)
(1 -5.18384e-15 0)
(1 -2.73381e-15 0)
(1 -2.46707e-15 0)
(1 -2.77851e-17 0)
(1 3.17049e-16 0)
(1 8.22363e-16 0)
(1 1.94588e-15 0)
(1 -7.40331e-18 0)
(1 -5.1109e-16 0)
(1 -4.94601e-16 0)
(1 -1.55188e-15 0)
(1 8.20471e-16 0)
(1 1.15286e-15 0)
(1 5.95715e-16 0)
(1 1.14418e-15 0)
(1 4.13042e-15 0)
(1 2.20882e-16 0)
(1 2.7346e-15 0)
(1 -2.79945e-15 0)
(1 -1.42557e-15 0)
(1 -6.31307e-16 0)
(1 1.65782e-16 0)
(1 -7.97814e-16 0)
(1 -1.86864e-15 0)
(1 -8.52126e-16 0)
(1 -1.29834e-15 0)
(1 2.48189e-15 0)
(1 2.8485e-16 0)
(1 -2.51996e-15 0)
(1 3.18099e-15 0)
(1 -1.75158e-16 0)
(1 -2.09173e-15 0)
(1 3.70808e-15 0)
(1 9.43123e-16 0)
(1 1.6962e-15 0)
(1 -4.32217e-15 0)
(1 -1.93587e-15 0)
(1 6.15759e-16 0)
(1 5.44233e-15 0)
(1 5.50805e-15 0)
(1 4.41297e-15 0)
(1 -1.95134e-15 0)
(1 -1.29678e-15 0)
(1 -5.96003e-15 0)
(1 -5.68142e-17 0)
(1 -1.95313e-15 0)
(1 2.06826e-17 0)
(1 -6.36674e-15 0)
(1 -1.52245e-15 0)
(1 -7.37179e-15 0)
(1 1.83921e-16 0)
(1 -4.10142e-15 0)
(1 7.16005e-16 0)
(1 1.31408e-15 0)
(1 2.31226e-15 0)
(1 3.79719e-15 0)
(1 4.80113e-15 0)
(1 1.84502e-15 0)
(1 -4.20127e-15 0)
(1 1.34848e-15 0)
(1 -4.41361e-16 0)
(1 4.82779e-15 0)
(1 5.55473e-15 0)
(1 6.69335e-15 0)
(1 -4.79966e-15 0)
(1 -8.44181e-15 0)
(1 -8.2867e-15 0)
(1 -3.86487e-15 0)
(1 -8.4854e-17 0)
(1 5.45806e-15 0)
(1 2.15558e-15 0)
(1 -1.43271e-15 0)
(1 -2.23877e-15 0)
(1 -1.36795e-15 0)
(1 6.15479e-16 0)
(1 -4.46795e-16 0)
(1 -1.45808e-15 0)
(1 2.16569e-15 0)
(1 -1.73584e-15 0)
(1 1.1926e-16 0)
(1 1.88083e-15 0)
(1 6.10757e-16 0)
(1 4.55072e-16 0)
(1 2.6489e-15 0)
(1 -1.92662e-15 0)
(1 -3.41823e-16 0)
(1 -1.21537e-15 0)
(1 8.40217e-16 0)
(1 3.76613e-15 0)
(1 6.20615e-16 0)
(1 1.51401e-15 0)
(1 4.90684e-17 0)
(1 -2.3179e-15 0)
(1 1.44205e-15 0)
(1 -3.01787e-15 0)
(1 -1.54671e-15 0)
(1 -1.22969e-15 0)
(1 7.20438e-16 0)
(1 3.96265e-15 0)
(1 2.66413e-15 0)
(1 1.16888e-15 0)
(1 -3.12543e-15 0)
(1 -5.30504e-16 0)
(1 1.05291e-15 0)
(1 2.1704e-15 0)
(1 1.55626e-15 0)
(1 2.43122e-15 0)
(1 -1.65399e-15 0)
(1 -1.33539e-15 0)
(1 1.60634e-15 0)
(1 -1.82227e-16 0)
(1 2.12968e-15 0)
(1 3.40206e-17 0)
(1 -6.80204e-17 0)
(1 -2.53824e-15 0)
(1 1.63058e-15 0)
(1 8.42328e-16 0)
(1 3.44488e-15 0)
(1 -3.52304e-15 0)
(1 -1.37837e-15 0)
(1 -1.77491e-15 0)
(1 2.56154e-15 0)
(1 -1.18526e-15 0)
(1 -3.75317e-16 0)
(1 -3.58753e-15 0)
(1 -3.95767e-15 0)
(1 -7.6458e-16 0)
(1 -1.89413e-15 0)
(1 -2.57764e-15 0)
(1 -2.46048e-15 0)
(1 -8.23563e-17 0)
(1 9.72313e-16 0)
(1 2.6448e-15 0)
(1 2.40121e-15 0)
(1 2.73479e-15 0)
(1 2.04449e-16 0)
(1 -1.17755e-15 0)
(1 3.21204e-15 0)
(1 3.44669e-15 0)
(1 8.65391e-15 0)
(1 6.12336e-16 0)
(1 -2.61924e-16 0)
(1 -4.18264e-15 0)
(1 -2.43925e-16 0)
(1 6.44902e-16 0)
(1 -1.34375e-15 0)
(1 8.20923e-16 0)
(1 9.56167e-16 0)
(1 -3.27699e-15 0)
(1 -5.52794e-15 0)
(1 -1.67241e-15 0)
(1 -8.56257e-16 0)
(1 2.83144e-15 0)
(1 5.99031e-15 0)
(1 8.39133e-15 0)
(1 5.68252e-15 0)
(1 4.0282e-15 0)
(1 5.16641e-16 0)
(1 -5.73631e-16 0)
(1 -1.03289e-15 0)
(1 -1.16989e-15 0)
(1 1.35438e-15 0)
(1 -8.85547e-16 0)
(1 5.15697e-15 0)
(1 -1.18125e-15 0)
(1 -3.52327e-15 0)
(1 -3.58004e-15 0)
(1 -2.70075e-15 0)
(1 -3.38402e-15 0)
(1 -1.19077e-15 0)
(1 1.04996e-15 0)
(1 8.7913e-16 0)
(1 3.31885e-15 0)
(1 1.53393e-15 0)
(1 -3.49861e-15 0)
(1 -3.23234e-15 0)
(1 -1.63628e-16 0)
(1 1.39888e-15 0)
(1 1.55241e-15 0)
(1 -3.43404e-16 0)
(1 1.76548e-15 0)
(1 6.21719e-15 0)
(1 3.05333e-15 0)
(1 2.03449e-15 0)
(1 -2.77915e-15 0)
(1 -3.51991e-15 0)
(1 -3.1467e-15 0)
(1 1.14349e-15 0)
(1 2.3158e-15 0)
(1 1.32214e-15 0)
(1 2.25191e-15 0)
(1 3.17733e-16 0)
(1 3.55129e-16 0)
(1 -1.51863e-15 0)
(1 -2.60432e-16 0)
(1 -2.11283e-15 0)
(1 -1.15117e-15 0)
(1 -2.1134e-15 0)
(1 -1.58265e-15 0)
(1 -2.79029e-16 0)
(1 7.1877e-16 0)
(1 -1.45492e-15 0)
(1 -8.40313e-16 0)
(1 -6.90839e-16 0)
(1 3.34774e-16 0)
(1 -9.20336e-16 0)
(1 6.29883e-16 0)
(1 -1.19039e-15 0)
(1 -2.05468e-15 0)
(1 -9.97801e-16 0)
(1 2.15611e-15 0)
(1 1.10812e-15 0)
(1 4.9404e-16 0)
(1 1.50365e-15 0)
(1 -3.2511e-15 0)
(1 -7.44078e-16 0)
(1 -4.18324e-16 0)
(1 8.9319e-16 0)
(1 1.47247e-16 0)
(1 2.7278e-16 0)
(1 -1.0745e-15 0)
(1 4.64893e-16 0)
(1 -1.73074e-15 0)
(1 -1.16096e-15 0)
(1 -3.44009e-15 0)
(1 -2.71986e-15 0)
(1 1.24344e-15 0)
(1 -5.67196e-15 0)
(1 -4.91343e-15 0)
(1 -9.34682e-15 0)
(1 3.10806e-15 0)
(1 3.33604e-15 0)
(1 6.9354e-15 0)
(1 3.94162e-15 0)
(1 7.5218e-16 0)
(1 -1.82516e-16 0)
(1 1.82445e-15 0)
(1 4.2337e-15 0)
(1 3.79943e-15 0)
(1 7.64484e-15 0)
(1 2.41422e-15 0)
(1 8.09053e-16 0)
(1 -3.0103e-15 0)
(1 -5.2912e-16 0)
(1 -3.34348e-15 0)
(1 -9.4958e-16 0)
(1 1.55402e-15 0)
(1 1.30848e-15 0)
(1 3.56044e-16 0)
(1 3.30281e-15 0)
(1 4.20665e-15 0)
(1 1.49664e-15 0)
(1 1.93916e-15 0)
(1 2.00395e-15 0)
(1 7.42996e-15 0)
(1 3.6586e-15 0)
(1 3.50637e-15 0)
(1 -1.95622e-15 0)
(1 2.69693e-16 0)
(1 -3.39412e-15 0)
(1 -1.02242e-16 0)
(1 -1.94138e-15 0)
(1 -8.44043e-16 0)
(1 -1.62744e-15 0)
(1 3.49774e-15 0)
(1 5.43052e-16 0)
(1 2.67396e-15 0)
(1 -1.67475e-15 0)
(1 -3.85863e-15 0)
(1 -3.74096e-15 0)
(1 1.38963e-15 0)
(1 4.93349e-15 0)
(1 5.93916e-15 0)
(1 2.60085e-15 0)
(1 -1.68778e-15 0)
(1 -1.23998e-15 0)
(1 2.68311e-15 0)
(1 4.17711e-16 0)
(1 5.42696e-16 0)
(1 -9.5846e-16 0)
(1 -1.00309e-15 0)
(1 1.48005e-15 0)
(1 1.52203e-15 0)
(1 -1.97526e-16 0)
(1 -2.52523e-15 0)
(1 -2.06787e-15 0)
(1 1.24043e-15 0)
(1 2.38546e-15 0)
(1 1.55908e-15 0)
(1 3.17376e-15 0)
(1 2.70842e-15 0)
(1 -2.08812e-16 0)
(1 -1.06335e-15 0)
(1 -4.18917e-15 0)
(1 -3.17516e-15 0)
(1 -3.81238e-15 0)
(1 -3.2847e-15 0)
(1 -3.39655e-15 0)
(1 -3.88531e-15 0)
(1 -4.79621e-15 0)
(1 -1.98458e-15 0)
(1 1.08209e-15 0)
(1 2.3376e-15 0)
(1 -1.26275e-15 0)
(1 1.85403e-15 0)
(1 -7.02265e-16 0)
(1 -2.82154e-16 0)
(1 2.97056e-15 0)
(1 -2.35572e-15 0)
(1 -1.45497e-15 0)
(1 9.50572e-16 0)
(1 2.26408e-15 0)
(1 6.05489e-15 0)
(1 3.09128e-15 0)
(1 2.35716e-15 0)
(1 9.55954e-16 0)
(1 6.43278e-17 0)
(1 6.67854e-16 0)
(1 1.43984e-15 0)
(1 1.63831e-15 0)
(1 -2.0758e-15 0)
(1 -4.32969e-15 0)
(1 -5.80465e-15 0)
(1 -5.44209e-15 0)
(1 -3.26131e-15 0)
(1 -1.2452e-15 0)
(1 2.74731e-15 0)
(1 -1.50592e-15 0)
(1 -3.28154e-15 0)
(1 -1.51691e-15 0)
(1 5.39666e-15 0)
(1 1.35385e-15 0)
(1 6.93978e-16 0)
(1 -2.72614e-15 0)
(1 -6.29926e-15 0)
(1 -4.18691e-15 0)
(1 4.08e-15 0)
(1 1.3201e-16 0)
(1 5.7909e-15 0)
(1 1.58424e-15 0)
(1 9.24662e-15 0)
(1 2.84096e-15 0)
(1 2.3442e-15 0)
(1 -7.67459e-15 0)
(1 -6.49527e-15 0)
(1 -6.98685e-15 0)
(1 -1.67389e-16 0)
(1 -6.63827e-16 0)
(1 4.8846e-15 0)
(1 6.86641e-15 0)
(1 8.04528e-15 0)
(1 3.19914e-15 0)
(1 3.84163e-15 0)
(1 2.05852e-15 0)
(1 5.62265e-15 0)
(1 3.65936e-15 0)
(1 2.66074e-15 0)
(1 1.96436e-15 0)
(1 1.80115e-15 0)
(1 7.86785e-16 0)
(1 -2.83263e-15 0)
(1 -7.48629e-15 0)
(1 -2.90728e-15 0)
(1 -6.77472e-15 0)
(1 -9.64963e-16 0)
(1 7.08383e-16 0)
(1 1.06431e-15 0)
(1 -2.66336e-15 0)
(1 -2.58541e-15 0)
(1 -4.02847e-15 0)
(1 -2.28774e-15 0)
(1 -1.23957e-17 0)
(1 4.4587e-17 0)
(1 3.81815e-15 0)
(1 3.83021e-15 0)
(1 5.53585e-15 0)
(1 2.89649e-16 0)
(1 -1.43339e-15 0)
(1 -2.33874e-15 0)
(1 -3.42027e-16 0)
(1 1.86157e-15 0)
(1 1.8495e-15 0)
(1 3.41473e-15 0)
(1 2.99395e-16 0)
(1 2.42184e-15 0)
(1 2.10605e-15 0)
(1 3.38768e-15 0)
(1 4.04354e-16 0)
(1 2.39069e-15 0)
(1 3.10817e-15 0)
(1 2.90918e-15 0)
(1 1.43625e-15 0)
(1 1.74467e-15 0)
(1 -3.25688e-15 0)
(1 -1.21224e-15 0)
(1 -2.90016e-15 0)
(1 -1.86765e-15 0)
(1 -1.26588e-15 0)
(1 7.98617e-16 0)
(1 -3.82746e-15 0)
(1 2.97705e-16 0)
(1 2.85925e-16 0)
(1 2.09168e-15 0)
(1 -3.91541e-16 0)
(1 3.03169e-15 0)
(1 3.16055e-15 0)
(1 -9.61071e-16 0)
(1 -2.95331e-16 0)
(1 -1.61238e-15 0)
(1 2.37589e-15 0)
(1 1.7202e-15 0)
(1 5.43989e-15 0)
(1 3.97691e-15 0)
(1 6.75411e-16 0)
(1 2.22124e-15 0)
(1 -3.52073e-15 0)
(1 1.78685e-15 0)
(1 -1.16272e-16 0)
(1 1.57744e-15 0)
(1 2.02591e-15 0)
(1 -1.09935e-15 0)
(1 -2.41909e-15 0)
(1 -4.81182e-15 0)
(1 -2.85722e-15 0)
(1 3.30287e-17 0)
(1 1.55741e-15 0)
(1 -1.93884e-15 0)
(1 2.85403e-15 0)
(1 -7.33326e-16 0)
(1 3.76754e-15 0)
(1 -4.37692e-15 0)
(1 1.75615e-15 0)
(1 -6.22028e-15 0)
(1 -6.4909e-15 0)
(1 -1.96245e-15 0)
(1 -1.29704e-15 0)
(1 3.5236e-15 0)
(1 3.67366e-15 0)
(1 5.49637e-15 0)
(1 -5.30011e-16 0)
(1 3.52728e-15 0)
(1 2.1167e-15 0)
(1 3.95965e-15 0)
(1 -1.16269e-15 0)
(1 4.00673e-16 0)
(1 -4.65881e-15 0)
(1 2.55e-15 0)
(1 4.95599e-15 0)
(1 6.10811e-15 0)
(1 1.95416e-15 0)
(1 2.71933e-15 0)
(1 -8.90636e-16 0)
(1 -1.8797e-15 0)
(1 9.19732e-15 0)
(1 3.26309e-15 0)
(1 1.0345e-14 0)
(1 -1.60795e-16 0)
(1 2.73878e-15 0)
(1 -1.46732e-15 0)
(1 -2.29773e-16 0)
(1 8.12409e-16 0)
(1 -9.70208e-16 0)
(1 3.56232e-16 0)
(1 -3.58082e-16 0)
(1 -4.11152e-15 0)
(1 -3.09393e-15 0)
(1 -2.88687e-15 0)
(1 -5.79397e-16 0)
(1 3.76568e-15 0)
(1 5.29839e-15 0)
(1 2.59199e-15 0)
(1 -1.87995e-15 0)
(1 -1.25879e-15 0)
(1 -8.5397e-16 0)
(1 -2.97324e-16 0)
(1 1.84793e-15 0)
(1 7.5392e-16 0)
(1 3.33632e-15 0)
(1 -3.93295e-16 0)
(1 -7.31692e-16 0)
(1 2.36483e-15 0)
(1 2.60933e-15 0)
(1 1.48093e-15 0)
(1 -7.54112e-16 0)
(1 7.94269e-15 0)
(1 5.98726e-15 0)
(1 3.16943e-15 0)
(1 1.10867e-15 0)
(1 2.21087e-16 0)
(1 -1.11266e-15 0)
(1 8.86805e-16 0)
(1 3.88719e-15 0)
(1 4.16248e-15 0)
(1 5.09243e-15 0)
(1 8.26151e-15 0)
(1 1.02256e-14 0)
(1 4.49197e-15 0)
(1 -2.88036e-15 0)
(1 -2.75549e-15 0)
(1 -2.57403e-15 0)
(1 -4.60206e-15 0)
(1 -3.61774e-15 0)
(1 -3.99826e-15 0)
(1 -9.65529e-16 0)
(1 -1.93169e-15 0)
(1 4.40632e-15 0)
(1 3.7036e-15 0)
(1 3.12539e-15 0)
(1 4.32223e-15 0)
(1 3.20239e-16 0)
(1 -2.32274e-15 0)
(1 4.71516e-16 0)
(1 -1.04422e-15 0)
(1 9.90647e-17 0)
(1 -7.76145e-16 0)
(1 -9.58704e-16 0)
(1 -1.02298e-15 0)
(1 1.37213e-15 0)
(1 9.31475e-16 0)
(1 1.26906e-15 0)
(1 7.1409e-16 0)
(1 -6.34742e-16 0)
(1 2.41109e-15 0)
(1 2.12256e-15 0)
(1 6.27194e-15 0)
(1 5.79852e-15 0)
(1 -2.19408e-15 0)
(1 -2.67212e-16 0)
(1 9.1329e-16 0)
(1 5.36921e-15 0)
(1 -2.61635e-15 0)
(1 -2.59522e-16 0)
(1 -2.79503e-15 0)
(1 -4.0809e-15 0)
(1 1.43344e-15 0)
(1 2.05204e-15 0)
(1 1.61431e-15 0)
(1 -4.00691e-17 0)
(1 -3.12435e-16 0)
(1 5.86506e-16 0)
(1 -5.35714e-16 0)
(1 6.42442e-16 0)
(1 1.39176e-15 0)
(1 3.76283e-15 0)
(1 1.56132e-15 0)
(1 9.2171e-15 0)
(1 3.98341e-15 0)
(1 8.0159e-15 0)
(1 1.1077e-15 0)
(1 -4.90683e-15 0)
(1 -7.67013e-15 0)
(1 -4.38757e-15 0)
(1 -2.45667e-15 0)
(1 4.61521e-15 0)
(1 4.21787e-15 0)
(1 5.62795e-15 0)
(1 7.97766e-15 0)
(1 5.45148e-15 0)
(1 -1.44681e-15 0)
(1 -6.21182e-15 0)
(1 -1.79444e-15 0)
(1 2.41683e-15 0)
(1 -1.2619e-15 0)
(1 -6.52479e-17 0)
(1 -2.87573e-16 0)
(1 2.28466e-15 0)
(1 3.28616e-15 0)
(1 3.95199e-15 0)
(1 6.69964e-15 0)
(1 4.15464e-15 0)
(1 8.43554e-16 0)
(1 -4.32846e-15 0)
(1 -5.14501e-15 0)
(1 -4.55435e-15 0)
(1 5.94155e-15 0)
(1 2.29682e-15 0)
(1 2.01042e-15 0)
(1 1.80046e-16 0)
(1 -8.3377e-16 0)
(1 -1.52237e-15 0)
(1 -3.20683e-16 0)
(1 1.67319e-15 0)
(1 3.89085e-15 0)
(1 2.53734e-15 0)
(1 2.04792e-15 0)
(1 4.82303e-15 0)
(1 5.83269e-15 0)
(1 5.71307e-15 0)
(1 2.81613e-15 0)
(1 2.5311e-15 0)
(1 -7.06671e-16 0)
(1 5.1096e-16 0)
(1 -7.31358e-16 0)
(1 3.1999e-15 0)
(1 1.52291e-15 0)
(1 2.18286e-15 0)
(1 2.12773e-15 0)
(1 -2.82363e-15 0)
(1 -3.13307e-15 0)
(1 -1.80452e-16 0)
(1 6.48357e-16 0)
(1 3.06953e-15 0)
(1 2.47281e-15 0)
(1 3.83704e-15 0)
(1 1.18743e-16 0)
(1 5.75964e-16 0)
(1 3.33911e-15 0)
(1 2.72085e-15 0)
(1 3.5405e-15 0)
(1 1.21543e-15 0)
(1 9.84447e-16 0)
(1 2.8971e-15 0)
(1 4.77919e-15 0)
(1 4.41538e-15 0)
(1 1.88632e-15 0)
(1 3.82742e-15 0)
(1 2.07537e-15 0)
(1 3.94012e-15 0)
(1 3.18488e-15 0)
(1 2.68058e-15 0)
(1 1.62362e-15 0)
(1 3.77831e-15 0)
(1 6.46367e-15 0)
(1 5.96456e-15 0)
(1 4.8236e-15 0)
(1 5.84854e-15 0)
(1 -2.45533e-15 0)
(1 1.34311e-15 0)
(1 -4.32087e-15 0)
(1 2.72951e-15 0)
(1 3.13281e-15 0)
(1 -1.84872e-15 0)
(1 2.43396e-15 0)
(1 -2.03581e-15 0)
(1 -6.85613e-16 0)
(1 -1.82213e-15 0)
(1 -3.49806e-15 0)
(1 -2.65622e-15 0)
(1 3.87914e-16 0)
(1 5.45205e-15 0)
(1 3.74115e-15 0)
(1 5.97633e-15 0)
(1 3.32188e-16 0)
(1 4.21364e-15 0)
(1 -1.86504e-16 0)
(1 9.4026e-15 0)
(1 -5.22377e-16 0)
(1 -1.59886e-15 0)
(1 -6.636e-15 0)
(1 -5.14554e-15 0)
(1 -7.8564e-15 0)
(1 3.42726e-15 0)
(1 6.13341e-15 0)
(1 5.53185e-15 0)
(1 5.80533e-15 0)
(1 -1.0348e-16 0)
(1 2.82317e-15 0)
(1 1.1827e-15 0)
(1 -6.21325e-16 0)
(1 -8.56042e-16 0)
(1 -4.68681e-15 0)
(1 -1.62413e-15 0)
(1 -8.5624e-16 0)
(1 3.08211e-15 0)
(1 8.38624e-15 0)
(1 2.0961e-15 0)
(1 -2.02786e-15 0)
(1 -4.27745e-15 0)
(1 -1.66513e-15 0)
(1 -5.49226e-16 0)
(1 2.83172e-15 0)
(1 3.32293e-15 0)
(1 4.41092e-16 0)
(1 1.35877e-15 0)
(1 2.87919e-15 0)
(1 2.4104e-15 0)
(1 1.79911e-16 0)
(1 -2.05408e-15 0)
(1 5.71567e-15 0)
(1 5.72177e-15 0)
(1 4.16076e-15 0)
(1 6.47565e-16 0)
(1 3.42312e-15 0)
(1 3.05736e-15 0)
(1 -3.62364e-16 0)
(1 -3.94743e-16 0)
(1 6.94138e-15 0)
(1 6.11217e-15 0)
(1 6.64421e-15 0)
(1 2.33896e-15 0)
(1 2.42758e-15 0)
(1 3.19367e-15 0)
(1 3.61008e-15 0)
(1 3.23524e-15 0)
(1 1.00023e-15 0)
(1 -2.37848e-15 0)
(1 4.23081e-16 0)
(1 3.77429e-15 0)
(1 2.38946e-15 0)
(1 1.42087e-15 0)
(1 2.7359e-15 0)
(1 4.23987e-15 0)
(1 2.82857e-15 0)
(1 3.27936e-15 0)
(1 6.66793e-16 0)
(1 -5.9406e-16 0)
(1 -5.65576e-16 0)
(1 -2.6577e-15 0)
(1 -3.02736e-16 0)
(1 1.10727e-15 0)
(1 4.65219e-15 0)
(1 4.53533e-15 0)
(1 2.33621e-15 0)
(1 4.50217e-16 0)
(1 1.98363e-15 0)
(1 2.10235e-15 0)
(1 4.97471e-15 0)
(1 9.3637e-16 0)
(1 3.54506e-15 0)
(1 2.95607e-15 0)
(1 2.89077e-15 0)
(1 3.34789e-15 0)
(1 3.62167e-15 0)
(1 7.40219e-15 0)
(1 5.57984e-15 0)
(1 1.05797e-14 0)
(1 -5.16263e-16 0)
(1 -2.97332e-15 0)
(1 1.46603e-15 0)
(1 -6.25014e-15 0)
(1 -1.85814e-15 0)
(1 -1.79085e-15 0)
(1 1.18703e-15 0)
(1 4.21064e-15 0)
(1 -3.20674e-15 0)
(1 -6.31739e-16 0)
(1 -8.58203e-16 0)
(1 1.82581e-15 0)
(1 6.28575e-16 0)
(1 5.93742e-15 0)
(1 -6.30316e-16 0)
(1 3.68374e-15 0)
(1 -1.43214e-15 0)
(1 8.91469e-15 0)
(1 4.91295e-15 0)
(1 1.11096e-15 0)
(1 -2.25799e-15 0)
(1 -1.03231e-15 0)
(1 1.73144e-15 0)
(1 6.05611e-15 0)
(1 -5.35173e-16 0)
(1 1.41261e-15 0)
(1 -8.07703e-16 0)
(1 1.56303e-15 0)
(1 -1.79966e-15 0)
(1 -2.88745e-16 0)
(1 -9.48426e-15 0)
(1 -6.83661e-15 0)
(1 -6.51449e-15 0)
(1 2.14692e-15 0)
(1 1.02098e-15 0)
(1 2.30474e-15 0)
(1 3.2675e-15 0)
(1 2.79556e-15 0)
(1 2.56782e-15 0)
(1 -4.56801e-16 0)
(1 -4.83617e-15 0)
(1 2.65158e-15 0)
(1 2.36307e-15 0)
(1 8.03083e-15 0)
(1 1.14564e-14 0)
(1 1.07479e-14 0)
(1 5.11913e-15 0)
(1 -1.17433e-15 0)
(1 -4.58924e-15 0)
(1 -3.44132e-15 0)
(1 -3.93618e-16 0)
(1 4.04998e-15 0)
(1 5.28055e-15 0)
(1 5.74227e-15 0)
(1 1.53496e-15 0)
(1 5.52888e-16 0)
(1 -8.09171e-18 0)
(1 3.58816e-15 0)
(1 4.86331e-15 0)
(1 3.12692e-15 0)
(1 3.07591e-15 0)
(1 2.56098e-15 0)
(1 -6.4754e-16 0)
(1 -1.312e-16 0)
(1 1.01124e-15 0)
(1 7.55177e-15 0)
(1 9.26595e-15 0)
(1 1.34578e-14 0)
(1 1.11602e-14 0)
(1 1.24982e-14 0)
(1 4.92414e-15 0)
(1 6.52699e-15 0)
(1 4.48624e-15 0)
(1 1.02146e-15 0)
(1 -1.50528e-15 0)
(1 -2.88919e-15 0)
(1 -1.5933e-16 0)
(1 -4.05826e-16 0)
(1 2.60794e-15 0)
(1 4.79268e-15 0)
(1 1.62178e-15 0)
(1 3.49255e-15 0)
(1 3.43631e-15 0)
(1 -7.32261e-16 0)
(1 -9.41155e-16 0)
(1 -4.56719e-15 0)
(1 -1.37653e-15 0)
(1 -8.8054e-16 0)
(1 2.97526e-15 0)
(1 1.72383e-15 0)
(1 2.3306e-15 0)
(1 1.70894e-15 0)
(1 5.22092e-15 0)
(1 5.44919e-15 0)
(1 1.00676e-14 0)
(1 7.57567e-15 0)
(1 1.04466e-14 0)
(1 1.46007e-14 0)
(1 1.5857e-14 0)
(1 1.64889e-14 0)
(1 1.3074e-15 0)
(1 7.72395e-16 0)
(1 5.34267e-15 0)
(1 2.23382e-16 0)
(1 -4.01594e-15 0)
(1 -2.05951e-15 0)
(1 -6.63638e-16 0)
(1 3.71912e-15 0)
(1 1.48781e-15 0)
(1 -3.43382e-15 0)
(1 1.28392e-15 0)
(1 1.79539e-16 0)
(1 1.92606e-15 0)
(1 -1.0208e-15 0)
(1 3.84983e-15 0)
(1 -2.03546e-15 0)
(1 2.60387e-15 0)
(1 2.27019e-15 0)
(1 6.30991e-16 0)
(1 -5.33082e-15 0)
(1 -5.72112e-15 0)
(1 -4.52846e-15 0)
(1 2.18344e-15 0)
(1 3.38278e-15 0)
(1 4.65797e-15 0)
(1 4.41807e-15 0)
(1 4.23093e-15 0)
(1 5.00994e-16 0)
(1 -3.34593e-17 0)
(1 -5.75744e-16 0)
(1 -2.38806e-15 0)
(1 -3.74632e-15 0)
(1 -3.89491e-15 0)
(1 -3.19928e-15 0)
(1 -3.39409e-15 0)
(1 -1.30764e-15 0)
(1 -5.74528e-16 0)
(1 1.23559e-15 0)
(1 -2.0365e-15 0)
(1 1.70371e-15 0)
(1 2.11886e-15 0)
(1 7.02588e-15 0)
(1 4.57575e-15 0)
(1 6.82923e-15 0)
(1 1.38822e-15 0)
(1 3.78102e-16 0)
(1 -9.31367e-16 0)
(1 -2.98991e-15 0)
(1 1.32773e-15 0)
(1 2.52748e-15 0)
(1 5.22042e-15 0)
(1 4.63982e-15 0)
(1 3.76887e-15 0)
(1 1.78928e-15 0)
(1 3.5901e-15 0)
(1 6.32738e-15 0)
(1 4.27359e-15 0)
(1 3.98063e-15 0)
(1 4.04119e-15 0)
(1 8.30137e-15 0)
(1 5.09375e-15 0)
(1 4.51332e-15 0)
(1 3.36311e-15 0)
(1 6.73464e-15 0)
(1 3.64691e-15 0)
(1 1.43617e-15 0)
(1 7.25369e-15 0)
(1 1.03151e-14 0)
(1 1.19708e-14 0)
(1 8.86768e-15 0)
(1 2.95551e-15 0)
(1 4.98526e-15 0)
(1 -7.61299e-16 0)
(1 1.50493e-15 0)
(1 -5.0463e-16 0)
(1 4.06326e-16 0)
(1 3.27796e-15 0)
(1 2.40039e-15 0)
(1 6.38964e-15 0)
(1 3.52517e-15 0)
(1 1.48461e-15 0)
(1 -3.8555e-16 0)
(1 -2.01728e-15 0)
(1 -1.53284e-15 0)
(1 -4.28685e-16 0)
(1 1.09876e-15 0)
(1 5.14237e-15 0)
(1 4.03891e-15 0)
(1 2.33635e-15 0)
(1 2.25915e-15 0)
(1 2.72127e-15 0)
(1 3.99333e-15 0)
(1 5.73955e-15 0)
(1 3.78311e-15 0)
(1 1.03404e-14 0)
(1 4.63236e-15 0)
(1 1.18235e-14 0)
(1 1.35666e-14 0)
(1 2.20144e-14 0)
(1 1.74396e-14 0)
(1 5.13432e-16 0)
(1 9.62494e-16 0)
(1 -7.28409e-16 0)
(1 -1.11885e-16 0)
(1 -1.79355e-15 0)
(1 -3.98399e-15 0)
(1 5.74084e-16 0)
(1 -4.6907e-15 0)
(1 1.14244e-15 0)
(1 -4.14034e-15 0)
(1 -3.63231e-15 0)
(1 -3.20903e-15 0)
(1 6.1419e-16 0)
(1 -3.35346e-15 0)
(1 5.49272e-15 0)
(1 4.90142e-15 0)
(1 1.33184e-14 0)
(1 1.52747e-15 0)
(1 1.97318e-15 0)
(1 -3.34472e-15 0)
(1 -6.25478e-16 0)
(1 -4.49676e-15 0)
(1 -5.91805e-15 0)
(1 -9.05935e-15 0)
(1 -3.5094e-15 0)
(1 4.17887e-16 0)
(1 4.52147e-15 0)
(1 1.46779e-15 0)
(1 2.90289e-15 0)
(1 -1.27881e-15 0)
(1 3.34045e-16 0)
(1 -2.85402e-15 0)
(1 -1.91297e-15 0)
(1 -1.26691e-15 0)
(1 -1.04273e-15 0)
(1 1.16999e-16 0)
(1 6.52754e-16 0)
(1 3.60684e-15 0)
(1 1.92085e-15 0)
(1 2.87204e-16 0)
(1 4.54546e-15 0)
(1 4.3442e-16 0)
(1 5.655e-15 0)
(1 2.56136e-15 0)
(1 -1.85749e-16 0)
(1 -2.09876e-16 0)
(1 3.18078e-15 0)
(1 2.88467e-16 0)
(1 2.00936e-15 0)
(1 2.1863e-15 0)
(1 5.05937e-15 0)
(1 3.02807e-15 0)
(1 6.30148e-15 0)
(1 2.95665e-15 0)
(1 5.64437e-15 0)
(1 2.43399e-15 0)
(1 3.47968e-15 0)
(1 1.01064e-15 0)
(1 4.35498e-15 0)
(1 2.69163e-15 0)
(1 7.75295e-15 0)
(1 3.46843e-15 0)
(1 5.34735e-15 0)
(1 2.81348e-15 0)
(1 5.91885e-15 0)
(1 2.34935e-15 0)
(1 9.00765e-15 0)
(1 4.90212e-15 0)
(1 8e-15 0)
(1 5.11059e-15 0)
(1 9.26647e-15 0)
(1 6.36054e-15 0)
(1 8.82406e-16 0)
(1 -1.70874e-15 0)
(1 -1.02698e-15 0)
(1 2.96369e-15 0)
(1 8.67611e-15 0)
(1 8.03486e-15 0)
(1 6.89185e-15 0)
(1 2.5445e-15 0)
(1 3.50735e-15 0)
(1 -7.61084e-16 0)
(1 -4.23766e-16 0)
(1 -8.94795e-16 0)
(1 -1.16382e-15 0)
(1 1.34266e-15 0)
(1 1.13262e-15 0)
(1 2.9098e-15 0)
(1 2.22076e-15 0)
(1 2.492e-15 0)
(1 3.08659e-15 0)
(1 3.17421e-15 0)
(1 4.999e-15 0)
(1 1.99151e-15 0)
(1 6.18266e-15 0)
(1 3.80892e-15 0)
(1 8.71294e-15 0)
(1 8.41941e-15 0)
(1 1.43196e-14 0)
(1 1.30726e-14 0)
(1 3.53539e-15 0)
(1 -4.1943e-15 0)
(1 1.02813e-15 0)
(1 -1.57675e-15 0)
(1 -5.99474e-16 0)
(1 -5.58384e-16 0)
(1 -3.26659e-15 0)
(1 -2.14049e-15 0)
(1 -2.76903e-15 0)
(1 5.38024e-15 0)
(1 4.49313e-15 0)
(1 5.48086e-15 0)
(1 3.40448e-15 0)
(1 -2.0674e-15 0)
(1 -4.44619e-15 0)
(1 4.95043e-16 0)
(1 3.87476e-15 0)
(1 -3.59882e-15 0)
(1 -8.38963e-16 0)
(1 -7.72237e-15 0)
(1 -3.51392e-15 0)
(1 -6.97794e-16 0)
(1 1.79106e-15 0)
(1 5.39386e-15 0)
(1 2.42668e-15 0)
(1 2.64278e-15 0)
(1 1.62157e-15 0)
(1 7.25552e-16 0)
(1 2.66454e-15 0)
(1 2.03076e-15 0)
(1 -1.27539e-15 0)
(1 -4.18544e-15 0)
(1 -4.4895e-15 0)
(1 -3.72967e-15 0)
(1 -1.94974e-15 0)
(1 -3.94539e-15 0)
(1 -3.29111e-15 0)
(1 -1.9377e-15 0)
(1 8.48256e-16 0)
(1 1.28665e-15 0)
(1 5.64949e-15 0)
(1 2.77898e-15 0)
(1 2.93834e-15 0)
(1 -2.35706e-15 0)
(1 6.87824e-17 0)
(1 4.72475e-15 0)
(1 8.67292e-15 0)
(1 5.42178e-15 0)
(1 3.60414e-15 0)
(1 7.37887e-17 0)
(1 6.93771e-16 0)
(1 2.80722e-15 0)
(1 3.13742e-15 0)
(1 9.5634e-15 0)
(1 8.58804e-15 0)
(1 3.27482e-15 0)
(1 1.11068e-15 0)
(1 2.24304e-15 0)
(1 2.09057e-15 0)
(1 2.07307e-15 0)
(1 5.35388e-15 0)
(1 7.45728e-15 0)
(1 6.79055e-15 0)
(1 2.68549e-16 0)
(1 4.60672e-15 0)
(1 5.28121e-15 0)
(1 5.10602e-15 0)
(1 5.54556e-15 0)
(1 1.64019e-15 0)
(1 6.55652e-15 0)
(1 8.05925e-15 0)
(1 5.26609e-15 0)
(1 3.08451e-15 0)
(1 -6.7855e-16 0)
(1 -3.53059e-16 0)
(1 7.0253e-16 0)
(1 1.68022e-15 0)
(1 5.9644e-15 0)
(1 6.04544e-15 0)
(1 4.46944e-15 0)
(1 5.69778e-15 0)
(1 6.28588e-15 0)
(1 4.66251e-15 0)
(1 1.77792e-15 0)
(1 -1.02156e-15 0)
(1 -3.30504e-15 0)
(1 -2.065e-15 0)
(1 1.15914e-15 0)
(1 4.28565e-15 0)
(1 3.46118e-16 0)
(1 5.30193e-16 0)
(1 1.57165e-15 0)
(1 5.34749e-15 0)
(1 5.935e-15 0)
(1 6.77491e-15 0)
(1 1.23085e-14 0)
(1 1.01001e-14 0)
(1 9.39819e-15 0)
(1 5.10245e-15 0)
(1 7.62584e-15 0)
(1 2.89945e-15 0)
(1 6.88749e-16 0)
(1 -3.49648e-15 0)
(1 -2.79508e-15 0)
(1 -1.4007e-15 0)
(1 1.37419e-15 0)
(1 -2.86291e-15 0)
(1 3.60158e-16 0)
(1 -2.14316e-15 0)
(1 4.76824e-15 0)
(1 4.45193e-15 0)
(1 3.00489e-15 0)
(1 1.54584e-15 0)
(1 3.73893e-15 0)
(1 -1.29553e-15 0)
(1 3.60924e-16 0)
(1 -4.38275e-15 0)
(1 2.68251e-15 0)
(1 2.09929e-15 0)
(1 3.16392e-15 0)
(1 -2.79715e-15 0)
(1 -9.24357e-15 0)
(1 -9.31267e-15 0)
(1 -5.10674e-15 0)
(1 -1.95911e-15 0)
(1 -2.90395e-16 0)
(1 3.97837e-15 0)
(1 3.90659e-15 0)
(1 1.23992e-15 0)
(1 -3.56475e-15 0)
(1 -5.08343e-15 0)
(1 -5.9935e-15 0)
(1 -3.94216e-15 0)
(1 -3.85054e-15 0)
(1 -3.34817e-16 0)
(1 -2.07941e-18 0)
(1 3.65083e-15 0)
(1 -1.03049e-15 0)
(1 3.0365e-15 0)
(1 2.7648e-15 0)
(1 -9.55911e-16 0)
(1 1.3252e-15 0)
(1 1.04487e-16 0)
(1 -6.33263e-17 0)
(1 1.03801e-15 0)
(1 6.03764e-15 0)
(1 3.68229e-15 0)
(1 1.19345e-14 0)
(1 6.851e-15 0)
(1 4.05323e-15 0)
(1 1.94894e-16 0)
(1 -7.0506e-16 0)
(1 -7.25879e-16 0)
(1 2.28008e-15 0)
(1 4.45418e-15 0)
(1 1.66323e-15 0)
(1 3.30337e-15 0)
(1 1.2582e-15 0)
(1 -1.98264e-15 0)
(1 3.93179e-16 0)
(1 -2.9872e-16 0)
(1 5.8835e-15 0)
(1 1.09382e-14 0)
(1 1.24877e-14 0)
(1 1.0979e-14 0)
(1 6.81579e-15 0)
(1 -7.9509e-16 0)
(1 4.29089e-16 0)
(1 3.81346e-16 0)
(1 2.69687e-15 0)
(1 7.22246e-16 0)
(1 1.36604e-15 0)
(1 3.80138e-15 0)
(1 6.64396e-15 0)
(1 5.22679e-15 0)
(1 1.86512e-15 0)
(1 -4.78916e-15 0)
(1 2.06245e-15 0)
(1 1.7356e-15 0)
(1 2.70383e-15 0)
(1 2.37021e-15 0)
(1 6.54683e-15 0)
(1 2.27035e-15 0)
(1 4.18931e-15 0)
(1 3.41507e-15 0)
(1 2.17401e-15 0)
(1 -2.53385e-16 0)
(1 2.47107e-15 0)
(1 -1.09683e-16 0)
(1 1.68033e-15 0)
(1 1.6213e-15 0)
(1 1.28784e-15 0)
(1 -1.53935e-16 0)
(1 2.70936e-15 0)
(1 3.16371e-15 0)
(1 7.49365e-15 0)
(1 6.0595e-15 0)
(1 7.37817e-15 0)
(1 5.24154e-15 0)
(1 7.52563e-15 0)
(1 -2.71898e-15 0)
(1 5.02785e-15 0)
(1 -9.22451e-16 0)
(1 -4.94628e-15 0)
(1 3.06822e-16 0)
(1 -4.09836e-15 0)
(1 -2.03202e-15 0)
(1 2.79023e-15 0)
(1 8.03021e-15 0)
(1 6.89911e-15 0)
(1 2.46847e-15 0)
(1 9.1211e-16 0)
(1 -2.60502e-15 0)
(1 1.29515e-15 0)
(1 -2.35039e-15 0)
(1 -1.92337e-15 0)
(1 -4.43423e-15 0)
(1 3.35957e-15 0)
(1 -2.7458e-16 0)
(1 2.05409e-15 0)
(1 -2.95086e-15 0)
(1 -5.43648e-15 0)
(1 -1.12571e-14 0)
(1 -4.23367e-15 0)
(1 3.14112e-15 0)
(1 -1.09521e-15 0)
(1 -3.72937e-16 0)
(1 -8.39363e-16 0)
(1 -3.52073e-15 0)
(1 -4.82235e-15 0)
(1 -4.10462e-15 0)
(1 -3.65568e-15 0)
(1 -2.72375e-15 0)
(1 -3.52179e-15 0)
(1 3.90194e-15 0)
(1 1.02578e-14 0)
(1 6.30828e-15 0)
(1 2.78731e-15 0)
(1 3.57508e-16 0)
(1 -1.82992e-15 0)
(1 -5.60476e-15 0)
(1 -1.71715e-15 0)
(1 -1.72697e-15 0)
(1 5.11276e-15 0)
(1 7.32691e-15 0)
(1 5.11509e-15 0)
(1 2.53652e-15 0)
(1 4.08682e-15 0)
(1 2.60874e-15 0)
(1 1.23835e-15 0)
(1 -2.61301e-15 0)
(1 -1.47498e-15 0)
(1 6.09933e-15 0)
(1 -1.26056e-15 0)
(1 2.02168e-15 0)
(1 6.68562e-15 0)
(1 8.40171e-15 0)
(1 9.04767e-15 0)
(1 6.99917e-15 0)
(1 6.08165e-15 0)
(1 2.4524e-15 0)
(1 1.56767e-15 0)
(1 1.50882e-15 0)
(1 8.92073e-15 0)
(1 3.92418e-15 0)
(1 1.1131e-14 0)
(1 6.17901e-15 0)
(1 4.75037e-15 0)
(1 2.81677e-15 0)
(1 8.35187e-17 0)
(1 -2.49975e-16 0)
(1 2.13499e-15 0)
(1 3.70505e-15 0)
(1 9.60881e-15 0)
(1 5.06147e-15 0)
(1 6.2531e-15 0)
(1 3.82496e-15 0)
(1 6.99154e-15 0)
(1 6.05057e-15 0)
(1 6.21558e-15 0)
(1 1.72079e-15 0)
(1 1.17499e-15 0)
(1 6.30069e-16 0)
(1 1.83127e-15 0)
(1 2.16139e-15 0)
(1 4.87727e-15 0)
(1 4.6213e-16 0)
(1 3.93966e-15 0)
(1 -6.98976e-16 0)
(1 3.45283e-15 0)
(1 3.16197e-15 0)
(1 3.17602e-15 0)
(1 2.9891e-16 0)
(1 1.2665e-15 0)
(1 7.60915e-16 0)
(1 3.14071e-15 0)
(1 7.52587e-15 0)
(1 6.36937e-15 0)
(1 9.57115e-15 0)
(1 1.19487e-14 0)
(1 9.10037e-16 0)
(1 -1.18162e-16 0)
(1 2.22504e-15 0)
(1 -1.59177e-15 0)
(1 2.24069e-15 0)
(1 -3.86249e-15 0)
(1 -5.40352e-15 0)
(1 -7.68079e-15 0)
(1 2.3894e-15 0)
(1 4.82957e-15 0)
(1 4.89785e-15 0)
(1 6.62422e-15 0)
(1 1.47328e-15 0)
(1 1.91139e-16 0)
(1 -2.09277e-15 0)
(1 -6.80863e-15 0)
(1 -5.61614e-15 0)
(1 -6.68787e-15 0)
(1 -1.01157e-14 0)
(1 -5.49022e-15 0)
(1 -4.79009e-15 0)
(1 4.4133e-15 0)
(1 6.92411e-15 0)
(1 6.15763e-15 0)
(1 6.97838e-15 0)
(1 4.63103e-15 0)
(1 -2.34554e-15 0)
(1 -6.23159e-15 0)
(1 -5.97849e-15 0)
(1 -2.46616e-15 0)
(1 -2.40683e-15 0)
(1 -4.948e-16 0)
(1 -1.01608e-15 0)
(1 -5.23272e-15 0)
(1 -3.53355e-15 0)
(1 3.55147e-16 0)
(1 3.52213e-15 0)
(1 4.0766e-15 0)
(1 1.16636e-15 0)
(1 -8.42683e-16 0)
(1 6.20696e-16 0)
(1 7.5991e-16 0)
(1 -2.69349e-15 0)
(1 2.42411e-15 0)
(1 4.15594e-15 0)
(1 6.34166e-15 0)
(1 4.15338e-15 0)
(1 -2.19512e-15 0)
(1 1.31383e-15 0)
(1 1.75091e-15 0)
(1 5.63095e-15 0)
(1 5.11053e-15 0)
(1 5.46768e-15 0)
(1 3.39367e-15 0)
(1 4.66919e-15 0)
(1 5.97321e-15 0)
(1 3.31086e-15 0)
(1 4.85164e-15 0)
(1 3.06318e-15 0)
(1 4.15404e-15 0)
(1 6.62365e-15 0)
(1 4.54306e-15 0)
(1 5.16364e-15 0)
(1 4.40487e-15 0)
(1 4.66859e-15 0)
(1 5.02072e-15 0)
(1 7.77637e-15 0)
(1 9.83228e-15 0)
(1 8.28525e-15 0)
(1 6.11609e-15 0)
(1 3.5587e-15 0)
(1 5.15347e-15 0)
(1 2.94379e-15 0)
(1 4.55869e-15 0)
(1 6.29929e-15 0)
(1 6.72497e-15 0)
(1 7.40165e-15 0)
(1 2.22879e-15 0)
(1 2.49964e-15 0)
(1 6.46132e-15 0)
(1 6.27756e-15 0)
(1 -7.67956e-17 0)
(1 2.16269e-15 0)
(1 1.7287e-15 0)
(1 2.20109e-15 0)
(1 6.79465e-16 0)
(1 -1.31624e-16 0)
(1 -3.10815e-15 0)
(1 -1.72992e-16 0)
(1 8.01411e-16 0)
(1 -4.63966e-17 0)
(1 2.12266e-15 0)
(1 2.47293e-15 0)
(1 3.21903e-15 0)
(1 4.11931e-15 0)
(1 3.14785e-15 0)
(1 7.63276e-15 0)
(1 6.38934e-15 0)
(1 1.03077e-14 0)
(1 1.22481e-14 0)
(1 -1.92798e-15 0)
(1 -1.75138e-15 0)
(1 -3.1919e-15 0)
(1 3.05588e-15 0)
(1 3.94235e-15 0)
(1 2.44841e-15 0)
(1 9.57843e-15 0)
(1 4.0849e-15 0)
(1 -1.83528e-15 0)
(1 -4.31074e-15 0)
(1 -5.03342e-15 0)
(1 -2.92589e-15 0)
(1 -8.08097e-16 0)
(1 -1.78802e-16 0)
(1 1.22371e-15 0)
(1 -5.01094e-15 0)
(1 2.95289e-15 0)
(1 -8.35589e-15 0)
(1 -6.45831e-15 0)
(1 -8.19155e-15 0)
(1 -1.50529e-15 0)
(1 1.40094e-15 0)
(1 6.27255e-15 0)
(1 -4.39057e-15 0)
(1 -8.69608e-15 0)
(1 -4.98662e-15 0)
(1 -8.80142e-15 0)
(1 -4.58194e-15 0)
(1 -5.04327e-15 0)
(1 -1.02031e-15 0)
(1 -2.95832e-15 0)
(1 3.08164e-15 0)
(1 2.39049e-15 0)
(1 5.56141e-15 0)
(1 1.87721e-15 0)
(1 2.91617e-15 0)
(1 4.83958e-15 0)
(1 9.96443e-16 0)
(1 3.811e-16 0)
(1 -6.35438e-16 0)
(1 1.93011e-15 0)
(1 1.24806e-15 0)
(1 3.44456e-15 0)
(1 -9.54022e-16 0)
(1 -1.67429e-15 0)
(1 -1.57124e-15 0)
(1 -1.07779e-15 0)
(1 5.54792e-16 0)
(1 1.62854e-15 0)
(1 3.86624e-15 0)
(1 8.94114e-15 0)
(1 8.3712e-15 0)
(1 2.22616e-15 0)
(1 1.44087e-15 0)
(1 2.99063e-15 0)
(1 -6.51167e-17 0)
(1 5.35857e-15 0)
(1 4.11381e-15 0)
(1 3.40165e-15 0)
(1 9.37618e-16 0)
(1 1.05145e-15 0)
(1 4.76364e-17 0)
(1 4.86416e-15 0)
(1 4.09183e-15 0)
(1 7.36492e-15 0)
(1 -2.27665e-15 0)
(1 1.34066e-15 0)
(1 -5.68065e-16 0)
(1 6.18844e-15 0)
(1 6.34785e-15 0)
(1 6.18894e-15 0)
(1 2.88291e-15 0)
(1 6.74416e-15 0)
(1 2.85565e-15 0)
(1 6.69267e-15 0)
(1 3.85344e-15 0)
(1 5.66251e-15 0)
(1 2.69101e-15 0)
(1 4.11513e-15 0)
(1 6.91511e-15 0)
(1 -4.35175e-16 0)
(1 2.46871e-15 0)
(1 -3.39395e-17 0)
(1 3.48149e-15 0)
(1 2.04183e-15 0)
(1 8.61524e-18 0)
(1 -1.14016e-15 0)
(1 -2.96447e-15 0)
(1 -7.48895e-16 0)
(1 2.11616e-15 0)
(1 1.87738e-15 0)
(1 1.26459e-15 0)
(1 2.29157e-15 0)
(1 -3.23839e-16 0)
(1 2.16573e-15 0)
(1 5.93665e-15 0)