/*--------------------------------*- C++ -*----------------------------------*\
| =========                 |                                                 |
| \\      /  F ield         | OpenFOAM: The Open Source CFD Toolbox           |
|  \\    /   O peration     | Version:  v2012                                 |
|   \\  /    A nd           | Website:  www.openfoam.com                      |
|    \\/     M anipulation  |                                                 |
\*---------------------------------------------------------------------------*/
FoamFile
{
    version     2.0;
    format      ascii;
    class       volVectorField;
    location    "0";
    object      U;
}
// * * * * * * * * * * * * * * * * * * * * * * * * * * * * * * * * * * * * * //

dimensions      [0 1 -1 0 0 0 0];


internalField   nonuniform List<vector> 
4000
(
(-0.00324195 -0.0179846 0)
(0.0157724 0.0824033 0)
(-0.0369945 0.0773653 0)
(-0.145031 -0.0297709 0)
(0.13299 -0.138174 0)
(-0.108001 -0.0778551 0)
(0.162142 -0.0452212 0)
(0.0478073 -0.0169343 0)
(0.00223759 0.170936 0)
(-0.0509648 0.104687 0)
(-0.144033 -0.0521917 0)
(-0.0550269 -0.0973113 0)
(0.0769024 0.0028469 0)
(-0.11386 -0.0120557 0)
(-0.144582 0.155806 0)
(-0.147645 0.0857702 0)
(-0.019705 -0.213802 0)
(-0.00951663 -0.0156326 0)
(-0.138622 -0.0211944 0)
(-0.00339382 0.0216908 0)
(-0.016308 0.0672807 0)
(0.0245591 0.0288551 0)
(-0.043327 0.0106378 0)
(0.0256487 -0.0386093 0)
(-0.0314503 -0.0964722 0)
(0.00592569 0.0133082 0)
(-0.113067 -0.0508216 0)
(0.0878687 -0.0140081 0)
(-0.0157957 0.0793103 0)
(0.0197303 0.129592 0)
(0.00181344 0.06757 0)
(0.0322629 -0.0356598 0)
(-0.175315 -0.0369048 0)
(0.0159838 -0.144343 0)
(-0.00641615 0.00253043 0)
(-0.0242863 0.0814301 0)
(-0.0529475 -0.0287967 0)
(-0.0690379 0.00419627 0)
(0.000486657 -0.0275126 0)
(0.207121 0.0719231 0)
(-0.033392 0.00576942 0)
(-0.0809931 -0.0429171 0)
(-0.181474 -0.0493382 0)
(0.105013 0.0274564 0)
(-0.0995048 -0.00218917 0)
(0.00234747 -0.110754 0)
(-0.0182182 0.0780695 0)
(-0.021249 0.0399916 0)
(-0.149649 0.00820866 0)
(-0.115557 -0.0654859 0)
(0.1122 -0.0210367 0)
(0.00978077 0.0149796 0)
(-0.101959 0.0835113 0)
(0.00898599 -0.0800729 0)
(0.0555622 0.0169663 0)
(-0.00648715 0.0207885 0)
(-0.082555 0.0573986 0)
(-0.0283163 -0.054318 0)
(0.0734521 -0.0130309 0)
(0.0201413 0.0236228 0)
(-0.0644278 -0.0530455 0)
(0.00871971 -0.0679311 0)
(-0.0150725 0.118474 0)
(-0.124746 0.0395044 0)
(-0.0506516 -0.0782521 0)
(-0.0849712 0.109366 0)
(-0.0615065 -0.108967 0)
(0.0175828 -0.0526046 0)
(-0.0757881 0.101323 0)
(-0.0785969 0.0248045 0)
(-0.173438 -0.0563024 0)
(0.241616 -0.0192756 0)
(-0.121666 -0.0478784 0)
(0.0556129 -0.0422102 0)
(0.149012 0.0744065 0)
(-0.0122649 0.00451327 0)
(-0.136495 -0.111852 0)
(0.296837 0.00939682 0)
(0.0864595 0.0921922 0)
(-0.0393903 -0.00287607 0)
(-0.000476358 -0.0126356 0)
(0.0612042 -0.0497424 0)
(0.0408828 0.0821471 0)
(-0.240923 0.00437787 0)
(0.20971 -0.0579556 0)
(0.0797958 -0.0318043 0)
(-0.0779093 -0.0206528 0)
(0.220234 0.0345864 0)
(0.0842367 -0.0246824 0)
(0.06349 0.0334238 0)
(-0.0226384 -0.000171576 0)
(-0.0250163 -0.0221974 0)
(0.194257 -0.0392393 0)
(0.00789036 0.0568896 0)
(-0.110628 -0.0171097 0)
(0.0461176 0.00291924 0)
(-0.200206 0.0983194 0)
(-0.0366084 -0.012508 0)
(-0.0387598 -0.0229856 0)
(-0.0299819 -0.0302774 0)
(-0.0729483 -0.00768042 0)
(0.052341 0.0417169 0)
(0.334627 0.012027 0)
(0.00131883 -0.032501 0)
(-0.0344419 -0.0918882 0)
(-0.0630031 -0.0213348 0)
(0.0341783 -0.104709 0)
(0.00894752 0.0897517 0)
(0.045866 0.181682 0)
(0.109772 -0.0891881 0)
(0.0857163 0.0838461 0)
(0.00219302 -0.0975839 0)
(0.0150839 -0.099156 0)
(-0.0722644 0.0728396 0)
(-0.00541697 0.191086 0)
(-0.000532545 0.046219 0)
(0.0109985 -0.107102 0)
(-0.113644 0.109693 0)
(0.0343104 -0.100007 0)
(-0.186224 0.0583226 0)
(0.0366335 0.0199336 0)
(-0.028326 -0.16488 0)
(0.0962677 -0.0140492 0)
(-0.0486098 0.0526498 0)
(0.0245051 0.0228829 0)
(0.0691376 -0.00672985 0)
(-0.0745005 -0.100587 0)
(0.114432 0.00483135 0)
(-0.105236 0.110907 0)
(-0.097338 0.00987061 0)
(0.421038 -0.0867948 0)
(0.11687 0.00176536 0)
(0.020619 0.104948 0)
(-0.0182545 -0.0956728 0)
(0.0309619 -0.0269613 0)
(0.0806787 0.0562884 0)
(-0.00720577 0.0604262 0)
(-0.0564373 0.0312956 0)
(-0.131014 -0.0306463 0)
(0.055569 0.0748748 0)
(0.020681 0.117452 0)
(-0.0341391 -0.0949352 0)
(-0.0680287 -0.0167925 0)
(0.0550295 -0.0154881 0)
(-0.0200524 -0.0693954 0)
(-0.117645 -0.00420722 0)
(-0.0712121 -0.0050957 0)
(0.0163534 0.0719607 0)
(0.10543 0.079678 0)
(0.0318986 -0.0864021 0)
(0.0443846 -0.030398 0)
(-0.191314 0.0653129 0)
(-0.124154 0.0569801 0)
(-0.0558534 -0.147683 0)
(0.113403 -0.0698692 0)
(0.106425 0.0735456 0)
(-0.190731 0.0644589 0)
(0.0463604 -0.0347947 0)
(-0.0949449 0.0392378 0)
(-0.111509 0.112703 0)
(0.10087 -0.0227447 0)
(-0.0426913 -0.0972378 0)
(-0.0398827 -0.0710509 0)
(0.210903 0.0285708 0)
(-0.106941 0.12527 0)
(0.0918132 0.00426098 0)
(0.12401 -0.117693 0)
(-0.275688 -0.0594125 0)
(-0.0431452 0.0831982 0)
(0.0365957 -0.0167953 0)
(0.0246259 0.0919012 0)
(0.00701429 -0.00997298 0)
(-0.0972665 -0.0116588 0)
(-0.129905 -0.0409386 0)
(-0.0152485 0.0518511 0)
(-0.066478 -0.0630734 0)
(0.0289249 -0.11209 0)
(-0.0102978 -0.0537466 0)
(0.0394165 0.0579001 0)
(0.0310255 0.0496772 0)
(-0.0572498 0.0703023 0)
(-0.00880703 -0.0693739 0)
(-0.00620584 -0.0772896 0)
(-0.00188474 0.0723877 0)
(0.0192043 -0.0444765 0)
(0.0247013 0.0490989 0)
(-0.221659 -0.128893 0)
(0.0214795 -0.0348706 0)
(-0.023723 0.0735252 0)
(-0.0729826 0.0468294 0)
(-0.0514382 0.0078089 0)
(0.0506382 -0.0129863 0)
(-0.0876814 -0.0382286 0)
(-0.105979 0.0243038 0)
(0.0190461 0.0335943 0)
(-0.0596109 0.0744121 0)
(0.00448575 0.142183 0)
(0.00376541 -0.0106485 0)
(-0.0239506 -0.0767585 0)
(-0.0495043 -0.0346199 0)
(0.00176143 0.00241948 0)
(0.00823001 -0.0521457 0)
(-0.00626971 -0.0154544 0)
(-0.0125663 -0.00668977 0)
(-0.00721846 0.0823571 0)
(0.000281931 -0.0313188 0)
(0.000617773 -0.128968 0)
(0.0100661 0.191241 0)
(0.0029986 0.00520492 0)
(0.0650798 -0.127257 0)
(0.00421873 0.14907 0)
(0.0219437 -0.0803097 0)
(-0.100931 -0.153661 0)
(-0.0961329 0.124698 0)
(-0.00705854 0.144684 0)
(-0.00277312 -0.00948402 0)
(-0.014405 -0.0300235 0)
(0.102743 0.0630524 0)
(0.0423699 0.0364794 0)
(-0.0723124 0.043533 0)
(0.0216897 -0.145909 0)
(0.0622165 -0.136275 0)
(-0.0114949 0.089743 0)
(-0.0729782 -0.0262154 0)
(-0.0205446 -0.0923663 0)
(0.0211512 0.0167962 0)
(-0.0364742 0.0544617 0)
(-0.0533156 0.00225939 0)
(-0.0469481 0.0122813 0)
(0.0446535 -0.0601983 0)
(-0.0430626 -0.0279874 0)
(-0.0775072 0.16014 0)
(-0.129957 -0.0161405 0)
(-0.285967 -0.0502573 0)
(0.0143711 0.00396271 0)
(-0.0123196 -0.0240409 0)
(-0.0845702 0.0394488 0)
(-0.00416447 -0.0190223 0)
(0.0487011 0.0484418 0)
(-0.307063 -0.0351283 0)
(0.026943 0.144016 0)
(0.0378621 -0.0444482 0)
(-0.0505305 -0.0531974 0)
(0.0576225 -0.045915 0)
(0.144234 -0.0914264 0)
(-0.0932366 -0.0431852 0)
(-0.0361595 -0.0116396 0)
(0.156581 0.138745 0)
(0.0962453 0.0592091 0)
(0.0462787 -0.0140106 0)
(-0.139412 0.0616662 0)
(0.0253445 0.0892557 0)
(-0.0113835 -0.125895 0)
(0.118856 -0.0745718 0)
(-0.0653522 -0.124744 0)
(0.137488 0.0107355 0)
(0.0438642 0.0251784 0)
(0.095844 0.073357 0)
(0.0431859 0.0708494 0)
(0.229325 0.0238516 0)
(0.0243312 0.0492586 0)
(0.0380523 -0.0475585 0)
(0.096678 -0.151206 0)
(-0.0587228 -0.0407744 0)
(0.0260409 0.1886 0)
(0.0451043 0.0128753 0)
(0.00967593 -0.0302671 0)
(-0.0680616 -0.00856617 0)
(-0.0859142 0.05124 0)
(-0.0879535 0.010748 0)
(0.00300403 0.0953679 0)
(0.0277072 -0.0221593 0)
(0.0137922 -0.101553 0)
(0.0237206 -0.0329561 0)
(0.0612871 0.0640105 0)
(-0.00191164 -0.118679 0)
(0.152582 -0.069825 0)
(0.0225773 0.0505143 0)
(0.0238247 0.0451519 0)
(0.0179133 0.0738818 0)
(-0.0590962 -0.00289055 0)
(0.0471498 -0.0365607 0)
(-0.0410628 -0.098843 0)
(-0.054918 -0.0560728 0)
(0.0945591 0.0477157 0)
(0.0788593 0.136624 0)
(0.0233477 -0.0442699 0)
(-0.147725 -0.0130617 0)
(-0.185486 0.105071 0)
(-0.0252785 -0.0399114 0)
(-0.0626371 -0.149005 0)
(-0.0561828 0.00445342 0)
(-0.0489541 -0.00993616 0)
(0.0459597 0.0866615 0)
(-0.00297055 0.0287617 0)
(0.0143534 0.0166236 0)
(-0.102924 0.00616905 0)
(0.021312 0.036378 0)
(0.096726 -0.0272235 0)
(0.0444132 0.0341195 0)
(2.00687e-05 0.000615766 0)
(0.00207719 0.0189871 0)
(-0.00768666 -0.0708011 0)
(-0.0264133 0.0308055 0)
(0.00275401 0.0893596 0)
(0.106715 -0.129653 0)
(-0.0071838 -0.0892917 0)
(-0.0578485 0.032897 0)
(0.0559947 0.0587581 0)
(-0.142052 0.0271558 0)
(0.0660694 -0.0322629 0)
(-0.0361376 0.0372368 0)
(-0.0660693 0.0389351 0)
(0.00708931 0.110468 0)
(-0.014867 0.046505 0)
(-0.025729 -0.0315245 0)
(-0.0397394 0.0482082 0)
(-0.0526318 -0.214151 0)
(0.1165 0.0644152 0)
(-0.0215328 0.139169 0)
(0.0422376 -0.159851 0)
(-0.0303064 -0.0187056 0)
(0.022103 0.0925685 0)
(-0.0126571 -0.107069 0)
(0.142683 -0.161109 0)
(-0.0665639 0.0440073 0)
(-0.0895815 0.16548 0)
(0.0240324 0.0170593 0)
(-0.100601 -0.0322171 0)
(-0.0806396 -0.111324 0)
(-0.0541982 0.0265209 0)
(-0.0526958 0.216641 0)
(0.178995 0.0809742 0)
(-0.00232209 -0.139817 0)
(0.0102181 -0.147302 0)
(0.0671468 0.07996 0)
(0.0871754 0.110021 0)
(-0.000886466 -0.0769745 0)
(-0.128423 0.0727662 0)
(0.0392798 0.0835008 0)
(0.0510212 -0.109698 0)
(0.310987 -0.130996 0)
(0.0659748 0.0241847 0)
(0.00553646 0.0640499 0)
(-0.081017 0.0534925 0)
(-0.0108881 -0.0645702 0)
(-0.118308 -0.0395327 0)
(0.0329956 0.0216092 0)
(0.0164943 0.0195582 0)
(-0.0446732 0.0125965 0)
(-0.0123838 0.0509011 0)
(0.0435723 0.0951007 0)
(-0.00642825 -0.125991 0)
(0.0139218 -0.200021 0)
(0.00412326 -0.0474689 0)
(-0.0577808 0.0848506 0)
(0.0207732 0.101741 0)
(-0.0365257 0.0312344 0)
(-0.0262477 0.0204667 0)
(0.0778746 -0.0925468 0)
(0.0199389 -0.0160221 0)
(-0.00279884 -0.0223334 0)
(-0.0231955 0.00716269 0)
(-0.0681363 -0.0482583 0)
(-0.132362 0.0268259 0)
(0.180249 0.0560295 0)
(-0.0029267 0.0584251 0)
(-0.108991 0.0897082 0)
(0.0520063 -0.00154003 0)
(-0.0195356 0.0108848 0)
(-0.0116213 -0.0739671 0)
(-0.049838 0.0271687 0)
(0.0740544 -0.194565 0)
(-0.0197765 0.00888279 0)
(0.086772 0.124142 0)
(0.0155326 -0.0208234 0)
(-0.0393562 -0.0697599 0)
(-0.0831175 0.0957627 0)
(0.0250905 0.0209399 0)
(0.114043 -0.0196559 0)
(0.109951 0.0464479 0)
(-0.137181 -0.051293 0)
(-0.0728456 -0.0215959 0)
(0.116919 -0.159062 0)
(0.00408278 -0.0217049 0)
(0.107639 0.0359012 0)
(0.040037 0.143365 0)
(-0.00318614 0.0895678 0)
(0.0389656 0.0269711 0)
(-0.0162195 -0.0375076 0)
(-0.0549905 -0.0920228 0)
(-0.0224027 8.39815e-05 0)
(-0.0660809 -0.0584872 0)
(-0.0255962 0.025057 0)
(0.183099 0.0425916 0)
(0.0311612 0.0533168 0)
(0.0435576 0.0645084 0)
(0.0149885 -0.0517839 0)
(-0.05415 -0.0427488 0)
(0.113239 0.0323269 0)
(-0.00155269 0.0369936 0)
(0.000469084 0.0079549 0)
(0.0466304 0.00237401 0)
(-0.0491157 -0.107656 0)
(0.0750205 0.00324617 0)
(-0.0450346 -0.0242576 0)
(0.0765559 0.000908517 0)
(-0.0432272 0.0353277 0)
(-0.0167201 0.0211979 0)
(0.0856925 0.0629988 0)
(-0.0850436 -0.0112284 0)
(0.0870123 0.135897 0)
(0.0740439 -0.0324539 0)
(-0.0388661 0.0235527 0)
(0.0435338 0.0301868 0)
(-0.0133815 -0.0512255 0)
(0.00449059 -0.0075713 0)
(-0.0500862 -0.0975424 0)
(0.0266677 0.00857796 0)
(0.0331503 0.0699717 0)
(0.35256 -0.122186 0)
(-0.0379094 0.0986717 0)
(-0.0913116 0.161318 0)
(0.0688615 -0.15416 0)
(-0.260092 0.0274723 0)
(0.107287 0.122569 0)
(0.121204 0.0351949 0)
(0.059562 -0.114209 0)
(0.0136009 0.00601769 0)
(-0.0693495 -0.0446916 0)
(0.0256202 -0.0876421 0)
(-0.102079 0.0213968 0)
(0.104718 0.00384169 0)
(0.00523801 -0.0666567 0)
(-0.178592 -0.0373705 0)
(-0.14763 0.143029 0)
(-0.0403354 0.164965 0)
(0.103457 0.0155498 0)
(-0.042937 -0.109282 0)
(-0.000833086 -0.037956 0)
(-0.0480724 -0.0865559 0)
(0.0214682 -0.0475036 0)
(0.0132149 0.102879 0)
(0.00845675 -0.0162707 0)
(-0.204844 0.0226903 0)
(0.0528097 0.149855 0)
(-0.0676185 0.0116079 0)
(-0.0262033 -0.0326611 0)
(-0.0890367 -0.0428542 0)
(-0.0868788 -0.0375032 0)
(-0.00998859 -0.0223764 0)
(-0.0244937 0.00552259 0)
(-0.107954 -0.0634195 0)
(-0.0706163 -0.152075 0)
(0.0733638 -0.0656117 0)
(0.0553013 0.0261033 0)
(-0.0159543 0.072131 0)
(-0.0229168 0.0649437 0)
(0.0545712 -0.0769531 0)
(0.130146 0.0652383 0)
(-0.166701 0.0628973 0)
(0.0551094 -0.00820681 0)
(0.0574064 -0.0879598 0)
(0.077657 -0.0380228 0)
(-0.0556895 0.0374833 0)
(0.0338698 0.0239459 0)
(0.0364323 0.0537534 0)
(-0.0545758 0.0704827 0)
(-0.0310209 -0.00613742 0)
(-0.0492976 0.00188501 0)
(0.0337071 0.00362618 0)
(0.0101721 0.0240621 0)
(0.0517177 -0.0716593 0)
(-0.0599992 0.155155 0)
(-0.0897384 -0.0766241 0)
(0.325887 -0.0949143 0)
(0.0124771 0.073004 0)
(-0.0256587 0.0467854 0)
(-0.0185694 -0.0869763 0)
(-0.085148 -0.0345512 0)
(-0.0228086 0.130183 0)
(0.021031 0.0605496 0)
(-0.00196814 -0.103915 0)
(0.0754303 -0.0781272 0)
(-0.202453 -0.0692502 0)
(-0.121154 0.0634744 0)
(-0.0743053 0.0350601 0)
(0.0214567 -0.0423276 0)
(0.015555 0.0671396 0)
(0.0907837 -0.000140119 0)
(-0.0619966 0.0437189 0)
(0.0804009 0.00255209 0)
(-0.0362242 -0.111203 0)
(-0.0167827 -0.11276 0)
(0.020865 0.0451396 0)
(0.149195 0.135909 0)
(0.0819188 0.141431 0)
(-0.0418294 -0.0317158 0)
(-0.0979154 0.00858316 0)
(0.0198397 0.020063 0)
(-0.00347037 0.0541987 0)
(-0.000772994 0.0159298 0)
(9.48987e-05 -0.0613116 0)
(0.0569555 -0.106754 0)
(-0.0112943 0.150023 0)
(-0.0238244 0.0173759 0)
(-0.0763924 -0.0548411 0)
(-0.00830046 -0.0228849 0)
(0.14362 -0.0323707 0)
(0.0301534 -0.0230301 0)
(0.17575 0.0486583 0)
(0.184593 -0.00723589 0)
(-0.0239415 0.094859 0)
(0.0177245 0.00761919 0)
(0.157654 0.00682891 0)
(-0.0100931 0.0719883 0)
(-0.0583749 -0.0757381 0)
(-0.0585695 0.0508735 0)
(0.0534825 -0.0143496 0)
(-0.00144386 -0.160654 0)
(-0.0209284 0.0359368 0)
(0.0173966 0.157624 0)
(-0.00281258 0.0620841 0)
(0.1056 -0.0494174 0)
(-0.178985 -0.0609275 0)
(0.126986 -0.01962 0)
(-0.0251777 -0.0557156 0)
(-0.0285546 -0.0150979 0)
(0.026259 -0.00321588 0)
(-0.0224146 -0.0582506 0)
(-0.0921107 -0.0174407 0)
(0.107803 0.114807 0)
(0.178401 -0.0231742 0)
(-0.00633954 -0.0379368 0)
(-0.155392 0.0738274 0)
(0.00139584 0.0262671 0)
(-0.0751204 -0.0879209 0)
(0.281853 0.0643874 0)
(-0.0635577 0.0797777 0)
(0.0370409 -0.0600301 0)
(-0.0679681 -0.162914 0)
(0.0253496 -0.0729904 0)
(0.0157936 0.0576164 0)
(-0.00331021 0.0786025 0)
(0.0234529 0.0878807 0)
(-0.0859291 0.0221583 0)
(0.0370963 0.000409877 0)
(0.207002 0.0402074 0)
(0.0593356 0.0140522 0)
(-0.096772 -0.0700263 0)
(-0.0542959 -0.005941 0)
(-0.0454626 -0.00329326 0)
(-0.0175784 -0.0339857 0)
(-0.0117322 -0.187679 0)
(-0.0224501 -0.0883014 0)
(-0.0319321 -0.0539526 0)
(-0.000301676 0.072055 0)
(0.00376444 0.0514294 0)
(0.0976446 -0.00487225 0)
(-0.108447 0.103504 0)
(0.053404 -0.0322676 0)
(0.0614137 0.00474323 0)
(-0.0029605 -0.0608801 0)
(-0.0237895 -0.0556997 0)
(-0.0307971 0.0745041 0)
(0.0882497 0.104797 0)
(0.0768701 0.0758447 0)
(-0.089123 0.0339061 0)
(-0.0727752 -0.0198156 0)
(0.0634303 -0.0230059 0)
(0.0131182 -0.0631175 0)
(0.0115091 0.0221891 0)
(0.0399418 -0.0211437 0)
(-0.115151 0.0401452 0)
(0.194561 -0.0443609 0)
(-0.0637554 -0.069553 0)
(0.0167961 0.0598098 0)
(-0.00942449 0.0195026 0)
(0.0198419 -0.0344551 0)
(-0.0119532 -0.048944 0)
(0.181724 -0.0346035 0)
(0.205721 0.0260117 0)
(-0.0101662 0.017607 0)
(0.0319899 0.11383 0)
(-0.193431 -0.130434 0)
(0.0262392 0.00455688 0)
(-0.0685126 0.0960338 0)
(0.0448254 0.0474257 0)
(0.0647815 -0.0754454 0)
(0.0633962 -0.0167001 0)
(-0.00237723 0.0401929 0)
(0.0461071 -0.000139229 0)
(-0.0551085 -0.154986 0)
(0.056828 0.00862868 0)
(-0.0905432 0.0394925 0)
(-0.028384 0.00129872 0)
(0.107981 0.0437736 0)
(0.0797078 0.0853431 0)
(0.118011 0.0447418 0)
(0.147874 0.0365373 0)
(0.00218775 0.0596703 0)
(0.00999622 0.0163659 0)
(0.00745994 -0.106837 0)
(0.00875826 -0.00610561 0)
(-0.00361032 0.00808096 0)
(-0.00462236 0.0387301 0)
(-0.0101436 0.0297357 0)
(-0.0026716 -0.1409 0)
(0.054475 0.0756999 0)
(-0.0843453 -0.0463607 0)
(0.0585731 0.035947 0)
(-0.0482782 0.154537 0)
(-0.0224512 0.0244 0)
(-0.0435859 0.0334958 0)
(0.0374362 0.0339246 0)
(-0.0250853 0.0477819 0)
(-0.022417 0.017291 0)
(0.0389847 -0.0607449 0)
(-0.0083357 -0.0536369 0)
(0.00469729 -0.090254 0)
(-0.0208288 0.0954597 0)
(0.0718908 0.0151007 0)
(-0.0122375 -0.107662 0)
(0.103226 0.0378613 0)
(-0.110363 0.0333946 0)
(-0.0691436 0.0526602 0)
(0.0269168 -0.0321124 0)
(-0.0382091 0.147662 0)
(-0.0117486 0.0559175 0)
(0.0222403 -0.195588 0)
(-0.115761 -0.0628466 0)
(-0.0833233 0.0388016 0)
(0.0889754 0.00214293 0)
(-0.0820264 -0.00637002 0)
(0.112083 0.01925 0)
(-0.228377 0.0355176 0)
(-0.0739349 0.0255786 0)
(0.0244603 -0.0817238 0)
(-0.0510866 0.0333622 0)
(0.189122 0.0080615 0)
(-0.0687847 -0.0873429 0)
(0.117331 -0.173249 0)
(-0.0206594 0.0111489 0)
(0.0168448 0.0938771 0)
(0.123526 0.14016 0)
(0.193747 0.0885636 0)
(-0.0510999 -0.00257576 0)
(0.00122824 0.0167854 0)
(0.0923396 0.0426633 0)
(-0.0656344 -0.0605027 0)
(-0.0578008 -0.0469061 0)
(0.0435796 -0.0634263 0)
(-0.0497712 -0.0270165 0)
(0.0759492 -0.1665 0)
(-0.0333252 -0.107745 0)
(0.16287 0.0170002 0)
(-0.00747155 -0.0374653 0)
(-0.0441765 0.0319338 0)
(-0.0193857 0.0113901 0)
(0.207074 -0.0480651 0)
(0.0483674 0.0183358 0)
(0.068835 0.141409 0)
(-0.0642526 0.0687537 0)
(-0.144835 -0.016091 0)
(-0.0719536 -0.0273194 0)
(-0.00513436 0.00423102 0)
(0.00917939 0.115884 0)
(-0.0234832 0.100173 0)
(-0.015731 -0.0257728 0)
(-0.0596109 -0.0986293 0)
(-0.0219015 -0.0355677 0)
(-0.0225848 -0.00147111 0)
(-0.0239431 -0.0254712 0)
(-0.0326519 0.0330894 0)
(0.0905638 0.0176647 0)
(-0.140064 -0.0513222 0)
(-0.0297758 -0.0570153 0)
(0.0974435 0.146302 0)
(-0.00735139 0.0570073 0)
(-0.18302 -0.0864147 0)
(0.0652661 -0.14424 0)
(0.0518607 0.0115174 0)
(0.0232244 0.153201 0)
(0.0286538 0.0328896 0)
(0.029549 -0.0929993 0)
(-0.0463915 0.0213288 0)
(-0.0680461 0.0568425 0)
(-0.0549627 -0.0172907 0)
(0.0508242 -0.0209898 0)
(0.169906 -0.00182712 0)
(0.0487423 0.0513716 0)
(0.0591614 0.107302 0)
(-0.0427508 -0.14006 0)
(-0.0779889 -0.130798 0)
(-0.132849 0.122721 0)
(0.120546 -0.0426348 0)
(-0.0286722 0.0151731 0)
(0.0378188 0.134239 0)
(-0.0657553 -0.00319079 0)
(0.0474315 0.0013128 0)
(-0.00209684 0.0447312 0)
(0.00615473 0.0125705 0)
(0.00483757 -0.000355919 0)
(-0.109475 -0.0232432 0)
(-0.0804169 -0.099517 0)
(-0.0661254 0.020716 0)
(-0.0354904 0.0529484 0)
(0.0521636 -0.0170291 0)
(-0.0435369 -0.0169803 0)
(-0.292664 0.00547756 0)
(-0.0688379 0.00105378 0)
(0.136711 0.141488 0)
(-0.0500388 -0.0468896 0)
(-0.109639 -0.0125634 0)
(-0.00385314 0.0789195 0)
(0.0710239 -0.0700155 0)
(0.17369 0.0746722 0)
(-0.0370057 -0.0455899 0)
(-0.0411706 0.0610053 0)
(-0.0115965 0.099179 0)
(-0.0203298 -0.0446658 0)
(0.0368351 -0.00991207 0)
(0.0248339 -0.126402 0)
(0.0280971 -0.0401169 0)
(0.0543749 0.187009 0)
(0.0370662 -0.028909 0)
(-0.0186109 -0.131465 0)
(0.0358807 -0.0136417 0)
(0.044949 0.0768404 0)
(0.101559 -0.0654955 0)
(0.230696 -0.00415283 0)
(0.0545288 -0.00890058 0)
(0.00564254 -0.107229 0)
(-0.030561 0.0788015 0)
(0.0101636 0.157053 0)
(0.0213756 0.00771318 0)
(0.00184961 -0.0342141 0)
(0.000658853 -0.124209 0)
(-0.0336786 -0.0744863 0)
(-0.00412051 -0.144624 0)
(0.047621 0.0376598 0)
(0.0412253 0.0431491 0)
(0.026078 0.0249748 0)
(-0.0455388 0.0716704 0)
(-0.0248224 0.0131345 0)
(0.107216 0.058851 0)
(0.052527 0.0574708 0)
(0.0463345 0.0338089 0)
(-0.0063602 0.0542428 0)
(0.136257 -0.0896332 0)
(0.146916 -0.0695477 0)
(0.0539479 0.00584074 0)
(0.131185 -0.104531 0)
(0.0499053 0.0578636 0)
(-0.0713552 -0.14923 0)
(0.236464 -0.109507 0)
(-0.115566 0.0202053 0)
(0.016039 0.0244972 0)
(-0.0124328 -0.0443236 0)
(0.0219617 0.0186158 0)
(-0.042253 0.174733 0)
(-0.16895 0.0690578 0)
(-0.0291202 -0.0141074 0)
(-0.0538413 0.0722141 0)
(-0.0957525 0.0151253 0)
(-0.0739408 -0.0676925 0)
(0.0524156 -0.0366512 0)
(-0.00665201 0.0610886 0)
(0.0869383 0.139351 0)
(0.0463753 0.0185164 0)
(-0.0675246 0.014692 0)
(-0.0330367 -0.0540854 0)
(-0.0366464 -0.0912578 0)
(-0.0067278 0.0676023 0)
(0.00475371 0.0186444 0)
(0.0705216 -0.0435114 0)
(-0.0229312 -0.106701 0)
(0.0798129 0.0570522 0)
(0.050664 0.120524 0)
(0.095215 0.042443 0)
(-0.208649 -0.126084 0)
(-0.0587836 -0.0678364 0)
(0.0144678 0.0799363 0)
(0.222892 -0.037339 0)
(-0.0679625 0.0386427 0)
(0.131437 -0.0263059 0)
(0.0881311 -0.0374774 0)
(0.0206185 0.00564442 0)
(-0.0250626 -0.0251344 0)
(0.101367 0.0734601 0)
(-0.0553394 0.113446 0)
(-0.00342503 -0.0235047 0)
(-0.0842798 -0.0291237 0)
(-0.111731 0.0169722 0)
(-0.052804 0.0243845 0)
(-0.016904 -0.107935 0)
(-0.195277 0.00209752 0)
(0.012776 0.107211 0)
(0.052177 0.0211626 0)
(-0.0329408 -0.0506963 0)
(-0.00188352 0.0363527 0)
(-0.0166333 -0.0427195 0)
(-0.00846768 -0.00766004 0)
(-0.00463409 0.0672846 0)
(-0.0218785 0.00894179 0)
(0.0246614 -0.040187 0)
(0.0684599 -0.00465599 0)
(0.0652281 0.0187366 0)
(0.0382947 -0.109378 0)
(0.098215 -0.00414415 0)
(-0.0244237 0.00934472 0)
(-0.0589625 0.0540923 0)
(0.0356642 0.136432 0)
(0.00994628 -0.0557092 0)
(0.0586229 -0.0493212 0)
(0.117634 0.0400636 0)
(-0.0475012 0.0209498 0)
(0.0583823 -0.142273 0)
(0.0547354 -0.0260693 0)
(-0.0325866 0.135545 0)
(0.133579 0.0625281 0)
(-0.08212 -0.0787055 0)
(-0.00468475 -0.264472 0)
(-0.0715079 0.117931 0)
(-0.109493 0.248123 0)
(0.254319 -0.0284914 0)
(-0.0489127 -0.107624 0)
(0.0163541 -0.0116163 0)
(0.193032 -0.00216953 0)
(-0.128031 -0.133298 0)
(-0.00456853 0.00616605 0)
(0.0289001 0.101208 0)
(-0.128736 0.0186435 0)
(0.064348 -0.0241788 0)
(-0.0150495 0.0883194 0)
(0.141123 0.0510222 0)
(0.000385577 -0.0997009 0)
(-0.0590303 0.0188647 0)
(-0.0454612 0.0874847 0)
(-0.075341 -0.0632065 0)
(-0.022555 -0.143099 0)
(-0.0874375 0.031612 0)
(-0.211446 0.036233 0)
(-0.0720833 0.00237469 0)
(0.0380506 0.0669325 0)
(-0.224711 -0.0413264 0)
(-0.0982047 0.0145246 0)
(-0.0426494 0.0422821 0)
(-0.034075 0.0273201 0)
(0.0397942 -0.050352 0)
(-0.0483005 -0.029325 0)
(0.0369956 0.00623772 0)
(0.0449312 -0.0157171 0)
(-0.122527 -0.132948 0)
(0.126331 -0.0975056 0)
(0.017648 -0.0919772 0)
(-0.115343 0.140823 0)
(-0.100591 0.0562652 0)
(-0.0948265 -0.135585 0)
(0.0553669 0.0922106 0)
(0.193441 0.0522398 0)
(0.138024 0.114834 0)
(0.0716152 0.0455232 0)
(0.0409482 -0.000170474 0)
(0.0189224 0.0314678 0)
(0.121903 -0.00741189 0)
(0.0044385 -0.00846207 0)
(-0.175787 0.0572121 0)
(-0.143798 0.0954073 0)
(0.0371694 -0.0980013 0)
(0.103413 -0.00388626 0)
(0.0480696 -0.00135714 0)
(0.0427652 0.0343061 0)
(0.031897 -0.0844682 0)
(0.0306666 -0.0583184 0)
(0.187174 -0.00665659 0)
(0.0549353 0.00695745 0)
(-0.0682996 0.0345583 0)
(-0.0428701 -0.0173282 0)
(0.0636016 0.123822 0)
(0.0931917 -0.0387936 0)
(0.0709617 -0.0589493 0)
(-0.00471374 -0.0221069 0)
(0.00663085 -0.0249864 0)
(-0.0897912 0.0696711 0)
(-0.0573487 -0.0872203 0)
(0.0485692 -0.0409257 0)
(0.00893839 0.121537 0)
(0.113328 -0.0470777 0)
(-0.0809712 0.0301547 0)
(-0.0161687 0.0548495 0)
(0.00828224 -0.0394693 0)
(-0.0517432 0.0636146 0)
(0.0461656 0.0125061 0)
(0.153185 0.0250759 0)
(-0.0880672 -0.0142056 0)
(0.0517817 -0.0319876 0)
(0.00565369 0.0487405 0)
(0.0807022 0.0344554 0)
(-0.0430885 -0.0129065 0)
(0.0067406 -0.0100612 0)
(0.00237627 0.0243778 0)
(0.00723285 0.0309506 0)
(-0.0490185 -0.0253861 0)
(-0.01754 -0.0957482 0)
(-0.0468063 0.0441814 0)
(0.0605857 0.0254434 0)
(-0.103355 -0.00937592 0)
(-0.0392799 -0.0760468 0)
(0.0595212 -0.0234009 0)
(-0.0638135 0.000877719 0)
(0.04767 0.122376 0)
(0.108388 0.0161714 0)
(0.0983298 0.0709026 0)
(-0.0392549 -0.08566 0)
(0.0853551 0.0701507 0)
(0.386112 -0.0452167 0)
(-0.02681 0.00976839 0)
(0.161173 -0.0868614 0)
(0.0503134 -0.0345136 0)
(-0.0389411 0.214583 0)
(0.0588437 -0.195321 0)
(0.0360545 -0.156645 0)
(0.0483889 0.111096 0)
(0.0184345 0.0497947 0)
(0.0533167 0.0775556 0)
(-0.15195 0.0699568 0)
(-0.0137563 -0.0675854 0)
(0.064119 -0.0628237 0)
(-0.172148 0.0491466 0)
(0.0284402 0.0987969 0)
(-0.0652941 -0.0284719 0)
(-0.177604 -0.104338 0)
(0.0829494 -0.00935143 0)
(0.0304314 0.0854813 0)
(-0.0789691 0.00869679 0)
(0.0845061 -0.143392 0)
(-0.0103453 0.0129876 0)
(-0.0285665 0.036381 0)
(-0.151049 -0.0799083 0)
(-0.0134935 -0.0123021 0)
(0.00770683 0.0757321 0)
(-0.0163036 -0.0888376 0)
(-0.0109249 -0.0783885 0)
(0.0347261 0.124298 0)
(-0.00724103 -0.00250583 0)
(-0.0394749 0.0180756 0)
(0.148572 0.0819135 0)
(0.107673 -0.0803049 0)
(-0.0183953 -0.0278321 0)
(0.0844645 -0.0783977 0)
(0.0746032 -0.000699251 0)
(0.00819633 0.0453364 0)
(-0.0207559 -0.042521 0)
(-0.0568236 -0.0156137 0)
(-0.0036 -0.0480137 0)
(-0.111792 0.0411979 0)
(0.109731 0.0972699 0)
(0.00720537 -0.263701 0)
(0.028617 -0.0453422 0)
(-0.0125883 0.057771 0)
(-0.0310827 0.0674614 0)
(0.22922 0.019458 0)
(0.0158137 0.0833605 0)
(-0.0612808 0.0652405 0)
(-0.0807473 0.120081 0)
(-0.0177319 0.0653713 0)
(0.0507191 -0.0243417 0)
(0.370748 -0.104547 0)
(0.13079 -0.0173518 0)
(0.13774 0.0581795 0)
(-0.144167 -0.112956 0)
(0.0369355 0.069079 0)
(0.0430434 -0.0278971 0)
(-0.00522317 -0.0642387 0)
(0.0365897 -0.00394507 0)
(0.037404 0.070888 0)
(-0.143815 0.0856536 0)
(-0.06527 -0.0207783 0)
(0.0992806 -0.00345985 0)
(-0.0047202 0.0266524 0)
(-0.0184393 -0.0303739 0)
(0.00412617 0.0101966 0)
(0.10614 0.0485081 0)
(-0.0503598 0.00364839 0)
(-0.0560885 -0.060544 0)
(0.064876 -0.0905173 0)
(0.0084871 -0.00809265 0)
(0.0436732 0.122142 0)
(-0.0161379 -0.0924391 0)
(-0.0529533 -0.107168 0)
(-0.0410503 0.148423 0)
(-0.0168224 0.170747 0)
(-0.202932 -0.14254 0)
(0.12919 -0.0761179 0)
(0.034727 0.0683625 0)
(0.0501066 -0.0760217 0)
(-0.0406643 0.182781 0)
(-0.00367025 0.0259753 0)
(0.0570826 -0.0465252 0)
(2.21973e-05 -0.00622684 0)
(-0.00163821 0.0440664 0)
(-0.000434955 0.00641909 0)
(-0.00340738 -0.042239 0)
(-0.00304789 -0.0922297 0)
(-0.0322316 0.0742248 0)
(-0.0453953 0.0454341 0)
(0.00397171 0.0361913 0)
(0.0121419 -0.140419 0)
(0.000453074 -0.0800874 0)
(-0.0451526 0.0957992 0)
(0.0994613 -0.189203 0)
(0.00338353 0.186123 0)
(0.0485901 0.125474 0)
(0.0315341 -0.0948473 0)
(-0.00240751 -0.0753607 0)
(-0.00290332 -0.011313 0)
(-0.0127062 0.122514 0)
(-0.0191068 0.0594917 0)
(-0.0980483 -0.0115314 0)
(0.0780859 -0.218689 0)
(0.067342 -0.157391 0)
(-0.0733873 0.139499 0)
(0.0682392 0.119228 0)
(-0.00385326 0.0224534 0)
(-0.220737 -0.00798102 0)
(-0.0720569 0.0688245 0)
(-0.00493118 -0.138239 0)
(0.00238882 -0.14768 0)
(-0.0296978 0.212064 0)
(0.0530239 0.135149 0)
(0.0397736 -0.136646 0)
(0.0269593 -0.232856 0)
(0.0988963 0.103834 0)
(-0.0108938 0.192993 0)
(-0.106856 -0.108404 0)
(0.126874 -0.0516087 0)
(-0.071973 -0.0702443 0)
(0.0651687 -0.00202648 0)
(0.00996538 0.0268519 0)
(-0.0161744 -0.0267584 0)
(0.122856 -0.0555993 0)
(0.0199695 0.0421288 0)
(0.0317941 0.0806425 0)
(0.0477467 -0.0589862 0)
(0.0852595 -0.0727952 0)
(-0.0056127 0.0356208 0)
(-0.0415923 0.177376 0)
(0.0221363 -0.0231897 0)
(0.124414 -0.149841 0)
(-0.0827867 -0.166866 0)
(0.0462474 0.126135 0)
(0.0937705 0.129487 0)
(0.00237921 -0.00913454 0)
(0.0553436 -0.160424 0)
(-0.00463076 0.0907937 0)
(-0.0932624 0.060323 0)
(0.0538158 -0.115583 0)
(-0.0583966 -0.0619898 0)
(-0.164954 -0.117552 0)
(-0.00540829 0.0645745 0)
(0.0415147 -0.0376345 0)
(0.000586449 0.0327446 0)
(-0.0521827 0.158972 0)
(-0.0163122 0.100047 0)
(0.089317 -0.125789 0)
(0.0587903 -0.00927689 0)
(0.261754 0.0539612 0)
(0.155657 -0.0649072 0)
(-0.0132738 0.182639 0)
(-0.0417974 0.170743 0)
(-0.0296145 -0.0960067 0)
(0.0310419 -0.15857 0)
(-0.0476731 -0.143182 0)
(0.142626 0.0191577 0)
(-0.146333 0.0538238 0)
(-0.0118262 0.0939941 0)
(0.0617878 -0.154005 0)
(0.122389 -0.11116 0)
(0.0727252 -0.0212968 0)
(0.0541914 0.171986 0)
(-0.00633763 0.0656261 0)
(-0.0141145 -0.0564462 0)
(0.0565226 0.0664048 0)
(0.0495612 -0.0579409 0)
(0.0104657 -0.0198042 0)
(0.012252 0.0618544 0)
(0.0573561 0.0251979 0)
(-0.12102 -0.00258659 0)
(-0.0334813 -0.0317279 0)
(-0.0120065 -0.0201966 0)
(-0.0410331 0.0217472 0)
(-0.00366359 0.128688 0)
(0.0913495 0.0213469 0)
(-0.0432617 -0.0818487 0)
(-0.0820647 0.0536354 0)
(-0.0502855 0.0017383 0)
(0.0252971 0.0535044 0)
(-0.0269513 -0.0438695 0)
(-0.0196923 -0.0713229 0)
(0.0009973 -0.0284321 0)
(-0.00633934 -0.0280957 0)
(-0.00618464 0.0744756 0)
(-0.00406212 0.00809243 0)
(-0.00334044 -0.109261 0)
(-0.0060609 -0.00522343 0)
(-0.0664706 0.132436 0)
(-0.0943688 -0.0258701 0)
(0.00871971 -0.0792916 0)
(-0.009602 -0.0140955 0)
(0.00950433 0.0701887 0)
(0.00223024 -0.236713 0)
(-0.0118104 0.125684 0)
(0.00926411 0.052913 0)
(0.0375172 -0.0803857 0)
(0.0883238 0.0132069 0)
(0.0938424 0.0791042 0)
(-0.0351137 -0.0506913 0)
(0.0776348 -0.0100212 0)
(0.00919613 0.0853904 0)
(-0.0792893 -0.141805 0)
(-0.343789 -0.0539825 0)
(-0.126107 0.0453469 0)
(-0.0716951 0.0858708 0)
(0.05395 0.0501972 0)
(0.00071247 0.108519 0)
(-0.0297986 0.0397624 0)
(0.0401751 -0.16196 0)
(0.0290018 -0.111201 0)
(-0.158636 0.0302338 0)
(0.100947 0.11371 0)
(0.0735927 -0.0535015 0)
(0.0674783 -0.0726647 0)
(-0.176563 0.117936 0)
(-0.0801649 -0.0124002 0)
(0.1045 -0.138472 0)
(0.0396493 -0.0587324 0)
(0.0367256 0.00448698 0)
(0.234507 0.0228221 0)
(0.0985411 0.00267271 0)
(-0.000796355 -0.0267145 0)
(0.0818092 0.00257389 0)
(0.00162792 0.0914919 0)
(0.0857573 0.0174147 0)
(0.100631 -0.0363485 0)
(-0.00846034 -0.103154 0)
(0.0817947 0.0452307 0)
(0.0590665 0.0801409 0)
(0.00870925 0.0259646 0)
(-0.0234383 -0.111333 0)
(-0.0282252 -0.0227401 0)
(-0.0721427 -0.0393627 0)
(0.00954286 0.0381878 0)
(0.0441117 -0.0376808 0)
(-0.0190528 -0.0516159 0)
(-0.0562971 0.0590621 0)
(0.0398751 0.0373699 0)
(-0.0342498 -0.0520363 0)
(0.0494608 0.00871743 0)
(-0.0114351 -0.0848847 0)
(-0.0171203 0.0295203 0)
(0.0279421 0.0367641 0)
(0.010786 -0.00599412 0)
(0.0709175 0.176896 0)
(0.0164372 0.0557018 0)
(0.0125676 -0.139009 0)
(-0.100832 -0.0618243 0)
(0.0477199 0.12375 0)
(-0.0198461 -0.0531728 0)
(0.144978 0.0409646 0)
(0.115824 0.15191 0)
(0.0699335 -0.0229407 0)
(0.0142824 -0.0506648 0)
(0.0268039 -0.138459 0)
(-0.129116 -0.0436696 0)
(-0.0343003 0.0222393 0)
(0.226781 0.000948467 0)
(-0.143042 -0.0246832 0)
(-0.0173186 0.051925 0)
(-0.100142 0.0390139 0)
(-0.2169 0.0353118 0)
(-0.0593602 0.130488 0)