/*--------------------------------*- C++ -*----------------------------------*\
| =========                 |                                                 |
| \\      /  F ield         | OpenFOAM: The Open Source CFD Toolbox           |
|  \\    /   O peration     | Version:  v2012                                 |
|   \\  /    A nd           | Website:  www.openfoam.com                      |
|    \\/     M anipulation  |                                                 |
\*---------------------------------------------------------------------------*/
FoamFile
{
    version     2.0;
    format      ascii;
    class       volVectorField;
    location    "0";
    object      U;
}
// * * * * * * * * * * * * * * * * * * * * * * * * * * * * * * * * * * * * * //

dimensions      [0 1 -1 0 0 0 0];


internalField   nonuniform List<vector> 
4000
(
(1 2.92312e-15 0)
(1 2.20278e-15 0)
(1 1.64797e-15 0)
(1 2.59218e-15 0)
(1 -6.8008e-15 0)
(1 -4.73658e-16 0)
(1 -4.79223e-17 0)
(1 3.08279e-15 0)
(1 2.85386e-16 0)
(1 -9.36584e-15 0)
(1 -1.77555e-15 0)
(1 1.5163e-15 0)
(1 8.83193e-15 0)
(1 -8.32019e-17 0)
(1 -4.26295e-15 0)
(1 -8.82244e-16 0)
(1 -4.72696e-16 0)
(1 -4.34018e-15 0)
(1 3.22804e-15 0)
(1 -1.70751e-15 0)
(1 1.5614e-15 0)
(1 -2.01362e-15 0)
(1 -1.88755e-15 0)
(1 -2.06902e-15 0)
(1 -3.84598e-15 0)
(1 1.41406e-16 0)
(1 -2.43948e-15 0)
(1 -7.68598e-17 0)
(1 -4.76622e-15 0)
(1 5.97688e-15 0)
(1 3.39807e-15 0)
(1 -5.89754e-16 0)
(1 -3.65218e-15 0)
(1 2.33403e-15 0)
(1 1.04928e-15 0)
(1 8.3087e-15 0)
(1 7.59505e-15 0)
(1 7.1196e-15 0)
(1 -4.31783e-16 0)
(1 -2.69687e-15 0)
(1 -7.67602e-15 0)
(1 -4.06271e-15 0)
(1 1.48665e-17 0)
(1 1.84375e-15 0)
(1 -2.08471e-15 0)
(1 -8.40304e-16 0)
(1 1.42197e-15 0)
(1 -3.86267e-15 0)
(1 -8.09453e-16 0)
(1 2.56859e-15 0)
(1 5.43243e-15 0)
(1 3.31884e-15 0)
(1 3.73471e-15 0)
(1 1.69219e-15 0)
(1 4.67922e-16 0)
(1 1.23642e-15 0)
(1 -9.09869e-16 0)
(1 1.49837e-15 0)
(1 -3.71273e-18 0)
(1 1.40637e-15 0)
(1 -4.78106e-17 0)
(1 1.95026e-15 0)
(1 -2.34114e-15 0)
(1 -6.11361e-16 0)
(1 -1.17347e-15 0)
(1 8.05642e-17 0)
(1 -1.43265e-15 0)
(1 2.30526e-15 0)
(1 4.06177e-16 0)
(1 -3.16652e-15 0)
(1 -2.99672e-15 0)
(1 -1.61487e-15 0)
(1 -2.3776e-15 0)
(1 -2.99665e-15 0)
(1 -3.21899e-15 0)
(1 -4.4754e-15 0)
(1 -5.38273e-16 0)
(1 -1.40542e-16 0)
(1 -2.91854e-15 0)
(1 3.35971e-15 0)
(1 2.86233e-15 0)
(1 1.1814e-15 0)
(1 -1.28043e-15 0)
(1 -5.39487e-16 0)
(1 -3.14966e-15 0)
(1 3.91306e-16 0)
(1 -7.39275e-16 0)
(1 5.52145e-16 0)
(1 2.44153e-15 0)
(1 5.52039e-15 0)
(1 3.214e-15 0)
(1 5.41498e-15 0)
(1 8.33458e-17 0)
(1 -2.00519e-15 0)
(1 -2.72485e-15 0)
(1 -1.05802e-15 0)
(1 -7.79723e-16 0)
(1 -9.3729e-17 0)
(1 3.47667e-16 0)
(1 -1.1857e-15 0)
(1 3.78427e-15 0)
(1 1.28974e-15 0)
(1 3.81211e-15 0)
(1 3.00882e-15 0)
(1 -7.66146e-15 0)
(1 -2.01621e-15 0)
(1 2.04386e-15 0)
(1 3.52427e-15 0)
(1 1.40776e-15 0)
(1 -8.51879e-15 0)
(1 -6.16827e-15 0)
(1 1.98926e-15 0)
(1 1.06363e-14 0)
(1 1.42998e-15 0)
(1 6.7554e-17 0)
(1 1.36949e-15 0)
(1 2.21079e-15 0)
(1 -2.04869e-15 0)
(1 1.86132e-15 0)
(1 -1.78104e-15 0)
(1 -1.60146e-15 0)
(1 -2.06766e-15 0)
(1 -2.46487e-15 0)
(1 -2.2731e-15 0)
(1 -6.65318e-15 0)
(1 -1.47609e-15 0)
(1 -2.72638e-15 0)
(1 -2.23871e-15 0)
(1 -5.96836e-15 0)
(1 3.41299e-15 0)
(1 5.64304e-15 0)
(1 -3.40913e-17 0)
(1 -4.09273e-15 0)
(1 1.61937e-15 0)
(1 2.62873e-15 0)
(1 8.34452e-15 0)
(1 4.30761e-15 0)
(1 6.34856e-15 0)
(1 2.20545e-16 0)
(1 -2.45303e-15 0)
(1 -1.32475e-14 0)
(1 -2.4566e-15 0)
(1 1.6162e-15 0)
(1 4.34628e-16 0)
(1 -3.54948e-15 0)
(1 -2.30678e-17 0)
(1 7.74045e-16 0)
(1 -1.141e-15 0)
(1 -1.43147e-15 0)
(1 9.99501e-16 0)
(1 1.45749e-15 0)
(1 -2.50809e-15 0)
(1 -6.1665e-16 0)
(1 4.2247e-16 0)
(1 6.46557e-15 0)
(1 4.25862e-15 0)
(1 -9.98335e-16 0)
(1 1.23167e-15 0)
(1 -1.98578e-15 0)
(1 -6.09236e-15 0)
(1 -5.32094e-15 0)
(1 -1.9567e-16 0)
(1 4.46139e-15 0)
(1 3.19173e-15 0)
(1 1.51593e-15 0)
(1 4.25868e-15 0)
(1 -1.37958e-15 0)
(1 2.76526e-15 0)
(1 -4.37467e-15 0)
(1 -5.23164e-15 0)
(1 1.67449e-15 0)
(1 6.42303e-15 0)
(1 4.96645e-15 0)
(1 1.20535e-15 0)
(1 -1.17492e-15 0)
(1 -4.93859e-15 0)
(1 1.87315e-15 0)
(1 9.64472e-16 0)
(1 -1.30624e-15 0)
(1 8.22946e-15 0)
(1 3.9553e-15 0)
(1 -3.70375e-15 0)
(1 -5.92676e-15 0)
(1 2.21326e-15 0)
(1 -1.34699e-15 0)
(1 4.02551e-15 0)
(1 1.87442e-15 0)
(1 4.73354e-16 0)
(1 -2.34001e-15 0)
(1 -2.34765e-15 0)
(1 4.68657e-16 0)
(1 2.83912e-15 0)
(1 -7.26044e-16 0)
(1 -3.68504e-15 0)
(1 -4.7492e-15 0)
(1 1.79213e-15 0)
(1 -1.22921e-15 0)
(1 3.60185e-15 0)
(1 4.9009e-16 0)
(1 -1.86198e-15 0)
(1 -2.64308e-15 0)
(1 2.90131e-15 0)
(1 -6.24431e-15 0)
(1 5.61628e-15 0)
(1 -3.2852e-15 0)
(1 9.70569e-16 0)
(1 5.07866e-15 0)
(1 5.1335e-16 0)
(1 -5.38746e-16 0)
(1 -1.22144e-15 0)
(1 -7.1409e-15 0)
(1 3.06437e-15 0)
(1 6.87994e-15 0)
(1 7.12934e-15 0)
(1 2.26229e-15 0)
(1 -1.48202e-15 0)
(1 -1.97376e-15 0)
(1 -6.91404e-16 0)
(1 5.32073e-16 0)
(1 2.19024e-15 0)
(1 -2.255e-16 0)
(1 -1.00781e-15 0)
(1 -6.59144e-16 0)
(1 -4.96551e-16 0)
(1 3.87383e-15 0)
(1 4.27341e-15 0)
(1 2.25292e-15 0)
(1 2.29859e-15 0)
(1 -3.02923e-16 0)
(1 -1.23228e-15 0)
(1 4.31934e-15 0)
(1 -7.9085e-16 0)
(1 -6.11528e-15 0)
(1 -7.80913e-15 0)
(1 4.4987e-15 0)
(1 5.4373e-15 0)
(1 3.14486e-15 0)
(1 8.44402e-15 0)
(1 3.38469e-15 0)
(1 7.63686e-15 0)
(1 1.2615e-15 0)
(1 -4.75903e-15 0)
(1 -5.61517e-16 0)
(1 -9.28918e-15 0)
(1 -8.24309e-16 0)
(1 1.39847e-15 0)
(1 4.14886e-15 0)
(1 5.90914e-16 0)
(1 -7.12252e-15 0)
(1 -3.75617e-15 0)
(1 -3.15859e-15 0)
(1 -8.18074e-16 0)
(1 1.22394e-15 0)
(1 5.43521e-15 0)
(1 6.58806e-15 0)
(1 5.56118e-15 0)
(1 2.16961e-15 0)
(1 -5.72472e-16 0)
(1 -5.39762e-15 0)
(1 -5.89697e-15 0)
(1 -3.93074e-15 0)
(1 -2.35737e-15 0)
(1 6.14585e-15 0)
(1 3.67189e-15 0)
(1 -1.2141e-16 0)
(1 5.35029e-16 0)
(1 8.78904e-16 0)
(1 1.77303e-15 0)
(1 -3.26778e-15 0)
(1 -8.24248e-16 0)
(1 -2.72734e-16 0)
(1 -9.01862e-17 0)
(1 1.02743e-15 0)
(1 -1.30809e-15 0)
(1 3.73509e-16 0)
(1 -4.44758e-15 0)
(1 5.23378e-16 0)
(1 4.06304e-16 0)
(1 -5.50241e-16 0)
(1 2.86383e-15 0)
(1 1.33794e-15 0)
(1 -1.59992e-15 0)
(1 -7.93892e-15 0)
(1 1.29958e-15 0)
(1 1.54935e-15 0)
(1 5.69837e-15 0)
(1 3.46964e-15 0)
(1 1.14618e-15 0)
(1 -2.0698e-15 0)
(1 -4.3532e-15 0)
(1 -1.02378e-15 0)
(1 2.80246e-16 0)
(1 -1.08467e-15 0)
(1 -4.67368e-15 0)
(1 1.46719e-17 0)
(1 8.78977e-16 0)
(1 -2.66079e-15 0)
(1 3.1038e-15 0)
(1 -7.99504e-16 0)
(1 -2.52281e-15 0)
(1 2.2773e-16 0)
(1 -3.78344e-15 0)
(1 -6.00566e-15 0)
(1 -3.34434e-15 0)
(1 -2.71022e-15 0)
(1 -5.8984e-16 0)
(1 9.29707e-15 0)
(1 3.55127e-15 0)
(1 3.98844e-15 0)
(1 -1.96646e-15 0)
(1 -1.71988e-15 0)
(1 7.89948e-15 0)
(1 7.77797e-15 0)
(1 8.76642e-15 0)
(1 -4.98609e-15 0)
(1 -3.22261e-17 0)
(1 -3.38357e-15 0)
(1 -1.62305e-15 0)
(1 -1.19294e-15 0)
(1 4.18032e-16 0)
(1 4.91709e-15 0)
(1 6.82616e-15 0)
(1 5.31093e-15 0)
(1 5.77157e-15 0)
(1 9.68816e-15 0)
(1 4.46534e-15 0)
(1 -1.63878e-15 0)
(1 9.14503e-16 0)
(1 3.0448e-16 0)
(1 -2.02336e-15 0)
(1 -2.16698e-16 0)
(1 -7.77067e-16 0)
(1 -1.17501e-14 0)
(1 -8.45638e-15 0)
(1 1.67269e-15 0)
(1 3.04796e-15 0)
(1 9.92202e-15 0)
(1 1.08661e-14 0)
(1 6.91752e-15 0)
(1 1.3225e-15 0)
(1 5.01376e-15 0)
(1 -9.27844e-15 0)
(1 -5.45991e-15 0)
(1 -5.38106e-15 0)
(1 6.27938e-15 0)
(1 7.12647e-15 0)
(1 1.03574e-14 0)
(1 -1.16331e-16 0)
(1 -4.31542e-15 0)
(1 -6.11667e-15 0)
(1 2.398e-16 0)
(1 4.93318e-16 0)
(1 6.36843e-16 0)
(1 3.64592e-15 0)
(1 -1.33879e-15 0)
(1 3.87067e-15 0)
(1 4.15196e-15 0)
(1 -6.35952e-15 0)
(1 -8.41592e-15 0)
(1 2.49494e-15 0)
(1 -2.33635e-15 0)
(1 -8.4933e-16 0)
(1 2.8836e-16 0)
(1 1.95815e-15 0)
(1 3.05104e-15 0)
(1 -2.6598e-15 0)
(1 -9.68173e-16 0)
(1 -5.01885e-15 0)
(1 -5.91574e-16 0)
(1 -2.05098e-15 0)
(1 -5.48298e-15 0)
(1 -7.42215e-15 0)
(1 -6.99826e-15 0)
(1 -5.3179e-15 0)
(1 -1.05131e-17 0)
(1 1.42829e-16 0)
(1 3.17299e-15 0)
(1 3.97879e-15 0)
(1 3.94987e-15 0)
(1 1.59559e-15 0)
(1 2.51176e-15 0)
(1 -9.72851e-16 0)
(1 -3.68083e-15 0)
(1 -3.49236e-15 0)
(1 3.01481e-15 0)
(1 7.08315e-15 0)
(1 1.08564e-14 0)
(1 4.81354e-15 0)
(1 3.10895e-15 0)
(1 3.61835e-16 0)
(1 -1.196e-15 0)
(1 2.25623e-15 0)
(1 -3.14325e-15 0)
(1 4.63374e-16 0)
(1 3.31933e-17 0)
(1 -4.1111e-15 0)
(1 -5.98703e-15 0)
(1 -4.45947e-15 0)
(1 -3.78229e-15 0)
(1 -3.90352e-16 0)
(1 4.08493e-15 0)
(1 -2.70468e-15 0)
(1 1.27159e-15 0)
(1 -4.34769e-15 0)
(1 1.0041e-14 0)
(1 -1.28018e-15 0)
(1 -3.19679e-15 0)
(1 -5.42494e-15 0)
(1 -1.00432e-14 0)
(1 -2.39344e-15 0)
(1 5.82442e-15 0)
(1 3.1038e-15 0)
(1 7.08027e-15 0)
(1 3.0108e-16 0)
(1 7.68873e-15 0)
(1 -2.57159e-15 0)
(1 -1.42047e-15 0)
(1 -1.30495e-16 0)
(1 -3.66788e-15 0)
(1 -4.61715e-15 0)
(1 2.45398e-15 0)
(1 -2.42009e-15 0)
(1 4.73739e-15 0)
(1 1.10334e-14 0)
(1 1.79437e-14 0)
(1 6.45419e-15 0)
(1 3.52268e-16 0)
(1 1.58931e-15 0)
(1 4.11741e-15 0)
(1 -6.74083e-16 0)
(1 -8.9414e-16 0)
(1 -2.94016e-15 0)
(1 -3.68297e-15 0)
(1 1.55549e-15 0)
(1 -5.63722e-15 0)
(1 -1.52747e-15 0)
(1 2.57118e-15 0)
(1 7.9493e-16 0)
(1 5.63579e-15 0)
(1 1.10506e-15 0)
(1 -5.56082e-16 0)
(1 -2.11125e-15 0)
(1 -6.47738e-15 0)
(1 2.2879e-15 0)
(1 -1.69428e-15 0)
(1 2.76524e-15 0)
(1 4.31105e-15 0)
(1 1.13575e-15 0)
(1 4.96896e-16 0)
(1 -2.39885e-15 0)
(1 4.68888e-16 0)
(1 -4.32374e-15 0)
(1 -3.72002e-16 0)
(1 -3.22757e-15 0)
(1 8.15324e-16 0)
(1 6.91249e-15 0)
(1 5.58554e-15 0)
(1 -4.26796e-15 0)
(1 9.25855e-16 0)
(1 4.2536e-15 0)
(1 -1.51474e-15 0)
(1 5.94233e-16 0)
(1 5.93608e-15 0)
(1 3.22626e-16 0)
(1 5.02846e-15 0)
(1 1.38577e-15 0)
(1 -1.15562e-15 0)
(1 -4.66162e-15 0)
(1 8.63774e-16 0)
(1 -3.23421e-15 0)
(1 -4.19742e-15 0)
(1 2.79528e-15 0)
(1 -1.66276e-15 0)
(1 3.27993e-16 0)
(1 -1.98518e-15 0)
(1 1.54354e-16 0)
(1 -1.58438e-15 0)
(1 -4.01768e-16 0)
(1 6.40445e-15 0)
(1 6.75063e-15 0)
(1 1.50769e-15 0)
(1 -2.29004e-15 0)
(1 1.12714e-15 0)
(1 2.54424e-16 0)
(1 6.67831e-15 0)
(1 3.27918e-15 0)
(1 5.31033e-15 0)
(1 4.51022e-15 0)
(1 4.44599e-15 0)
(1 -2.82687e-15 0)
(1 -1.75115e-16 0)
(1 -1.78967e-15 0)
(1 2.05056e-15 0)
(1 3.23485e-15 0)
(1 1.04743e-15 0)
(1 -5.1943e-15 0)
(1 -3.97293e-15 0)
(1 -2.01675e-15 0)
(1 2.47638e-15 0)
(1 3.88208e-15 0)
(1 -1.57221e-15 0)
(1 1.17117e-15 0)
(1 2.53844e-15 0)
(1 2.91337e-15 0)
(1 -6.25909e-16 0)
(1 -1.80016e-15 0)
(1 -1.12419e-14 0)
(1 -6.37345e-15 0)
(1 -9.9966e-15 0)
(1 -7.55578e-16 0)
(1 7.46194e-15 0)
(1 3.9864e-16 0)
(1 9.286e-15 0)
(1 3.54735e-15 0)
(1 1.08356e-14 0)
(1 -1.87102e-15 0)
(1 -2.92167e-15 0)
(1 -5.74277e-15 0)
(1 -5.4528e-15 0)
(1 -3.14095e-15 0)
(1 1.24284e-14 0)
(1 9.64711e-15 0)
(1 1.21875e-14 0)
(1 7.81374e-15 0)
(1 5.53889e-15 0)
(1 -1.79725e-15 0)
(1 -7.54735e-16 0)
(1 3.02554e-15 0)
(1 1.62305e-15 0)
(1 1.81509e-16 0)
(1 -2.1214e-15 0)
(1 -7.50469e-15 0)
(1 -2.95516e-15 0)
(1 3.48593e-15 0)
(1 2.90385e-15 0)
(1 4.30374e-15 0)
(1 8.62661e-15 0)
(1 4.42954e-15 0)
(1 3.00133e-15 0)
(1 -1.51072e-15 0)
(1 2.00369e-16 0)
(1 -1.0911e-15 0)
(1 2.8298e-15 0)
(1 7.45917e-15 0)
(1 2.21866e-15 0)
(1 3.94518e-15 0)
(1 5.11764e-17 0)
(1 -1.66847e-15 0)
(1 -4.82325e-15 0)
(1 -2.57469e-15 0)
(1 1.10692e-15 0)
(1 2.6044e-15 0)
(1 -1.51819e-15 0)
(1 -7.13123e-15 0)
(1 1.04336e-15 0)
(1 7.52409e-15 0)
(1 5.22391e-15 0)
(1 3.57199e-15 0)
(1 8.18637e-15 0)
(1 2.68525e-15 0)
(1 -1.45271e-15 0)
(1 4.31971e-15 0)
(1 6.25669e-15 0)
(1 -3.13863e-15 0)
(1 -3.31095e-16 0)
(1 5.98535e-16 0)
(1 1.94418e-15 0)
(1 1.03515e-14 0)
(1 8.91596e-15 0)
(1 1.00067e-14 0)
(1 3.38709e-15 0)
(1 -2.6382e-16 0)
(1 -3.20481e-15 0)
(1 -6.85885e-16 0)
(1 -8.65181e-15 0)
(1 -3.29848e-15 0)
(1 6.17632e-16 0)
(1 -1.73141e-15 0)
(1 2.1388e-15 0)
(1 2.8392e-15 0)
(1 1.67856e-15 0)
(1 4.57219e-15 0)
(1 2.87267e-15 0)
(1 1.95987e-15 0)
(1 -2.10756e-16 0)
(1 -1.24181e-15 0)
(1 3.21861e-17 0)
(1 2.13017e-15 0)
(1 4.53805e-15 0)
(1 1.4693e-15 0)
(1 -7.75685e-16 0)
(1 4.528e-16 0)
(1 5.37948e-15 0)
(1 6.102e-15 0)
(1 -1.63472e-15 0)
(1 3.02211e-15 0)
(1 3.56473e-15 0)
(1 4.74156e-15 0)
(1 1.00416e-14 0)
(1 5.95468e-15 0)
(1 -1.15368e-15 0)
(1 -1.32651e-15 0)
(1 8.60871e-15 0)
(1 2.19647e-15 0)
(1 -3.45381e-15 0)
(1 -1.42465e-15 0)
(1 -4.65033e-15 0)
(1 -3.30026e-15 0)
(1 1.0552e-15 0)
(1 1.27623e-15 0)
(1 -2.21336e-15 0)
(1 3.83544e-15 0)
(1 1.28038e-15 0)
(1 6.71108e-15 0)
(1 -4.4643e-16 0)
(1 5.27808e-15 0)
(1 -1.76616e-15 0)
(1 -4.64834e-15 0)
(1 -3.81765e-15 0)
(1 9.09428e-15 0)
(1 1.27838e-14 0)
(1 1.80359e-14 0)
(1 3.05694e-15 0)
(1 8.36766e-16 0)
(1 -5.46468e-15 0)
(1 -2.41041e-15 0)
(1 -1.42364e-15 0)
(1 2.63648e-15 0)
(1 -1.55005e-15 0)
(1 2.07324e-15 0)
(1 3.73224e-16 0)
(1 3.7029e-15 0)
(1 -1.98272e-15 0)
(1 -4.71434e-15 0)
(1 3.9073e-16 0)
(1 3.03409e-15 0)
(1 5.71805e-15 0)
(1 2.47351e-15 0)
(1 8.01691e-15 0)
(1 5.09893e-15 0)
(1 1.26183e-14 0)
(1 -1.23458e-15 0)
(1 8.13278e-15 0)
(1 1.24464e-15 0)
(1 6.91695e-15 0)
(1 2.39714e-15 0)
(1 -5.34655e-15 0)
(1 -6.00146e-15 0)
(1 -1.80179e-15 0)
(1 2.85637e-15 0)
(1 -1.75101e-15 0)
(1 -7.343e-15 0)
(1 -5.01108e-15 0)
(1 -2.66112e-15 0)
(1 3.70763e-16 0)
(1 3.64739e-15 0)
(1 1.69167e-15 0)
(1 4.40985e-15 0)
(1 1.72863e-15 0)
(1 2.6705e-15 0)
(1 7.61649e-15 0)
(1 7.6961e-15 0)
(1 2.29798e-15 0)
(1 3.83637e-15 0)
(1 -1.34193e-15 0)
(1 -5.12555e-15 0)
(1 -1.238e-15 0)
(1 4.41221e-15 0)
(1 2.83153e-15 0)
(1 3.35259e-15 0)
(1 3.08134e-15 0)
(1 -6.20178e-15 0)
(1 -3.99291e-15 0)
(1 -1.28415e-15 0)
(1 -1.2869e-15 0)
(1 9.04622e-15 0)
(1 9.58692e-15 0)
(1 9.23419e-15 0)
(1 2.00599e-15 0)
(1 2.34307e-15 0)
(1 1.86538e-15 0)
(1 2.24867e-15 0)
(1 2.37502e-15 0)
(1 -1.93124e-15 0)
(1 4.39199e-15 0)
(1 6.82391e-15 0)
(1 6.57802e-15 0)
(1 4.04816e-15 0)
(1 5.44495e-15 0)
(1 4.64548e-15 0)
(1 2.38243e-15 0)
(1 7.96247e-15 0)
(1 6.00668e-15 0)
(1 4.44647e-15 0)
(1 -1.03188e-15 0)
(1 8.98753e-15 0)
(1 1.08191e-14 0)
(1 7.62805e-15 0)
(1 7.30815e-15 0)
(1 8.05806e-15 0)
(1 4.56168e-16 0)
(1 7.26461e-16 0)
(1 -1.70676e-15 0)
(1 -6.35935e-16 0)
(1 5.00256e-15 0)
(1 -3.42363e-15 0)
(1 8.79194e-17 0)
(1 -4.70513e-15 0)
(1 -1.03817e-15 0)
(1 4.33296e-15 0)
(1 -6.35871e-15 0)
(1 4.86869e-15 0)
(1 -3.45676e-15 0)
(1 9.67025e-15 0)
(1 -1.49131e-15 0)
(1 5.63533e-15 0)
(1 -1.92341e-15 0)
(1 5.1041e-15 0)
(1 1.14517e-15 0)
(1 1.5243e-14 0)
(1 -7.80662e-16 0)
(1 2.5094e-15 0)
(1 -5.54577e-15 0)
(1 -3.8389e-15 0)
(1 -7.21471e-15 0)
(1 3.64835e-15 0)
(1 4.03071e-16 0)
(1 4.37105e-15 0)
(1 6.52543e-15 0)
(1 5.1274e-15 0)
(1 -5.46609e-16 0)
(1 1.35747e-15 0)
(1 -4.089e-15 0)
(1 -5.45943e-15 0)
(1 -8.80651e-15 0)
(1 -6.76621e-16 0)
(1 1.39784e-15 0)
(1 2.31706e-15 0)
(1 1.05686e-14 0)
(1 1.42495e-14 0)
(1 3.94618e-15 0)
(1 -1.73225e-15 0)
(1 -1.95051e-15 0)
(1 -2.53239e-15 0)
(1 7.06267e-15 0)
(1 3.92821e-15 0)
(1 2.47105e-15 0)
(1 2.84606e-15 0)
(1 7.90036e-16 0)
(1 2.55013e-15 0)
(1 8.30348e-16 0)
(1 -4.51814e-15 0)
(1 1.36077e-16 0)
(1 4.23346e-15 0)
(1 5.59454e-15 0)
(1 7.66831e-16 0)
(1 -1.58007e-15 0)
(1 -1.91209e-15 0)
(1 1.50288e-15 0)
(1 3.00662e-16 0)
(1 1.59764e-14 0)
(1 7.00151e-15 0)
(1 5.08778e-15 0)
(1 7.06352e-15 0)
(1 -9.75678e-16 0)
(1 -4.40006e-15 0)
(1 2.88719e-15 0)
(1 1.22949e-16 0)
(1 1.93535e-16 0)
(1 1.55181e-15 0)
(1 3.46529e-15 0)
(1 2.71206e-15 0)
(1 2.74527e-15 0)
(1 2.66397e-15 0)
(1 5.17146e-15 0)
(1 4.66158e-15 0)
(1 4.97133e-15 0)
(1 1.02678e-14 0)
(1 2.8738e-15 0)
(1 -5.50847e-16 0)
(1 1.47517e-15 0)
(1 -1.29653e-15 0)
(1 -7.14981e-16 0)
(1 -1.86191e-15 0)
(1 6.10348e-15 0)
(1 5.6921e-15 0)
(1 -1.20925e-15 0)
(1 1.85344e-16 0)
(1 4.8369e-15 0)
(1 2.26592e-15 0)
(1 6.98977e-15 0)
(1 5.54153e-15 0)
(1 5.74939e-15 0)
(1 4.19082e-15 0)
(1 7.38819e-15 0)
(1 4.71722e-15 0)
(1 8.43227e-15 0)
(1 1.00003e-14 0)
(1 7.44891e-15 0)
(1 1.39887e-14 0)
(1 -2.62014e-15 0)
(1 6.60105e-16 0)
(1 -4.87822e-15 0)
(1 -6.84646e-15 0)
(1 -5.72922e-15 0)
(1 -3.3716e-15 0)
(1 -1.72497e-15 0)
(1 5.88797e-15 0)
(1 -1.28372e-15 0)
(1 -5.40236e-16 0)
(1 -7.44391e-16 0)
(1 1.20901e-14 0)
(1 6.44647e-15 0)
(1 5.79308e-15 0)
(1 -9.2101e-16 0)
(1 -2.38108e-15 0)
(1 -2.44276e-15 0)
(1 1.02369e-14 0)
(1 1.46472e-15 0)
(1 2.06855e-16 0)
(1 -2.03831e-15 0)
(1 9.60731e-15 0)
(1 1.15858e-14 0)
(1 8.6034e-15 0)
(1 -1.31431e-15 0)
(1 3.22234e-15 0)
(1 -3.94462e-15 0)
(1 -2.50283e-15 0)
(1 -3.52204e-15 0)
(1 -2.77085e-15 0)
(1 -5.60452e-15 0)
(1 -5.86917e-15 0)
(1 -1.00592e-14 0)
(1 -4.61476e-15 0)
(1 1.22708e-15 0)
(1 5.33072e-15 0)
(1 6.96672e-15 0)
(1 7.49923e-15 0)
(1 5.07857e-15 0)
(1 1.9619e-15 0)
(1 -9.7705e-15 0)
(1 3.60335e-15 0)
(1 -1.78468e-15 0)
(1 3.94715e-15 0)
(1 1.27732e-14 0)
(1 1.27582e-14 0)
(1 9.30905e-15 0)
(1 2.16177e-15 0)
(1 -5.2574e-15 0)
(1 -5.17439e-15 0)
(1 5.3135e-15 0)
(1 7.12185e-15 0)
(1 1.77426e-15 0)
(1 4.40805e-18 0)
(1 7.50664e-15 0)
(1 1.71297e-15 0)
(1 1.85102e-15 0)
(1 -9.59314e-16 0)
(1 5.70081e-15 0)
(1 4.08471e-15 0)
(1 4.8208e-15 0)
(1 -1.25716e-15 0)
(1 -6.29773e-16 0)
(1 -4.26137e-15 0)
(1 -2.50806e-15 0)
(1 1.40688e-16 0)
(1 1.12693e-14 0)
(1 1.43638e-14 0)
(1 1.06571e-14 0)
(1 1.47236e-14 0)
(1 1.27732e-14 0)
(1 1.01464e-14 0)
(1 7.88427e-15 0)
(1 2.07283e-15 0)
(1 1.37818e-15 0)
(1 -1.75121e-15 0)
(1 6.02375e-15 0)
(1 4.80294e-15 0)
(1 3.26175e-15 0)
(1 3.99265e-15 0)
(1 5.8475e-15 0)
(1 5.33619e-15 0)
(1 -3.85939e-16 0)
(1 4.9496e-17 0)
(1 -3.38109e-16 0)
(1 -3.00973e-15 0)
(1 -3.68024e-15 0)
(1 -1.04777e-15 0)
(1 5.9408e-16 0)
(1 2.53786e-15 0)
(1 5.44876e-15 0)
(1 4.03322e-16 0)
(1 8.91856e-15 0)
(1 1.04885e-14 0)
(1 1.73e-14 0)
(1 1.57194e-14 0)
(1 1.80959e-14 0)
(1 1.69006e-14 0)
(1 1.99071e-14 0)
(1 2.19855e-14 0)
(1 -3.23773e-17 0)
(1 3.63529e-15 0)
(1 2.98417e-15 0)
(1 9.51021e-16 0)
(1 -5.98021e-15 0)
(1 7.28088e-16 0)
(1 -4.55246e-15 0)
(1 -4.39974e-16 0)
(1 4.43064e-15 0)
(1 -5.17383e-15 0)
(1 -4.36457e-15 0)
(1 -1.47358e-15 0)
(1 4.52341e-15 0)
(1 -9.38163e-16 0)
(1 8.58617e-15 0)
(1 -3.67903e-16 0)
(1 4.27289e-15 0)
(1 6.91168e-15 0)
(1 7.79281e-15 0)
(1 -2.33766e-15 0)
(1 -9.68175e-15 0)
(1 -9.65037e-15 0)
(1 7.44852e-15 0)
(1 6.90842e-15 0)
(1 5.62437e-15 0)
(1 3.54626e-15 0)
(1 4.72321e-15 0)
(1 -1.39682e-15 0)
(1 -3.99478e-15 0)
(1 -8.09512e-16 0)
(1 5.59926e-16 0)
(1 -6.31775e-16 0)
(1 9.46686e-16 0)
(1 -3.1887e-15 0)
(1 -3.26461e-15 0)
(1 -6.35254e-15 0)
(1 3.60785e-15 0)
(1 9.89098e-15 0)
(1 1.80807e-15 0)
(1 -3.41202e-15 0)
(1 -2.5187e-16 0)
(1 5.97622e-15 0)
(1 5.25958e-15 0)
(1 8.36154e-15 0)
(1 7.28726e-15 0)
(1 8.97742e-16 0)
(1 2.56772e-16 0)
(1 -1.26104e-15 0)
(1 2.41477e-15 0)
(1 4.77626e-15 0)
(1 3.49573e-15 0)
(1 1.00576e-15 0)
(1 2.70985e-15 0)
(1 3.19528e-15 0)
(1 3.59003e-15 0)
(1 6.32101e-15 0)
(1 6.34369e-15 0)
(1 3.73686e-15 0)
(1 -3.01916e-15 0)
(1 8.27728e-15 0)
(1 1.70266e-15 0)
(1 5.05256e-16 0)
(1 7.56415e-15 0)
(1 3.40256e-15 0)
(1 2.12973e-15 0)
(1 6.14822e-15 0)
(1 9.4566e-15 0)
(1 1.23204e-14 0)
(1 1.5294e-14 0)
(1 9.99725e-15 0)
(1 5.5228e-15 0)
(1 4.3811e-15 0)
(1 6.20372e-15 0)
(1 -1.27162e-15 0)
(1 1.8393e-15 0)
(1 4.50639e-15 0)
(1 1.0344e-14 0)
(1 3.80864e-15 0)
(1 4.67306e-15 0)
(1 4.97151e-15 0)
(1 2.90086e-15 0)
(1 -1.08066e-15 0)
(1 6.45624e-16 0)
(1 -6.0732e-16 0)
(1 -3.48294e-15 0)
(1 3.6515e-15 0)
(1 1.26921e-15 0)
(1 1.64961e-15 0)
(1 3.53436e-15 0)
(1 3.62794e-15 0)
(1 1.1969e-14 0)
(1 4.80953e-16 0)
(1 1.0022e-14 0)
(1 1.01596e-14 0)
(1 1.52195e-14 0)
(1 1.18647e-14 0)
(1 1.31858e-14 0)
(1 1.81238e-14 0)
(1 3.22601e-14 0)
(1 2.49018e-14 0)
(1 2.09623e-15 0)
(1 -6.74681e-16 0)
(1 1.02662e-15 0)
(1 -2.55128e-15 0)
(1 -5.62401e-15 0)
(1 -1.19582e-15 0)
(1 -5.49903e-15 0)
(1 -8.71792e-15 0)
(1 4.81533e-15 0)
(1 -1.06166e-15 0)
(1 -3.996e-15 0)
(1 -1.28838e-14 0)
(1 -2.94297e-15 0)
(1 2.72529e-15 0)
(1 9.08357e-15 0)
(1 2.03656e-14 0)
(1 1.8805e-14 0)
(1 3.62969e-15 0)
(1 1.05177e-14 0)
(1 -1.86894e-15 0)
(1 -2.16938e-15 0)
(1 -1.16313e-14 0)
(1 -5.37762e-15 0)
(1 -1.06285e-14 0)
(1 -7.3303e-15 0)
(1 -8.66736e-15 0)
(1 2.54571e-15 0)
(1 -1.16964e-15 0)
(1 5.53571e-15 0)
(1 3.91118e-15 0)
(1 1.09814e-15 0)
(1 -1.08383e-14 0)
(1 4.95739e-16 0)
(1 3.75347e-15 0)
(1 -2.15129e-15 0)
(1 -3.67249e-15 0)
(1 5.72523e-15 0)
(1 7.22979e-15 0)
(1 -4.64471e-15 0)
(1 -4.40915e-15 0)
(1 -1.48987e-15 0)
(1 4.07079e-15 0)
(1 4.45949e-15 0)
(1 1.04642e-14 0)
(1 6.77352e-15 0)
(1 5.82854e-15 0)
(1 8.70423e-15 0)
(1 5.26575e-15 0)
(1 6.158e-15 0)
(1 -1.14664e-15 0)
(1 2.61278e-15 0)
(1 -2.04008e-15 0)
(1 3.24293e-15 0)
(1 5.61326e-15 0)
(1 4.19408e-15 0)
(1 4.60848e-15 0)
(1 4.83193e-15 0)
(1 -2.96633e-16 0)
(1 3.87012e-15 0)
(1 3.09231e-15 0)
(1 3.0379e-15 0)
(1 1.77852e-15 0)
(1 6.02042e-15 0)
(1 1.68825e-15 0)
(1 5.68216e-15 0)
(1 1.34846e-14 0)
(1 5.77824e-15 0)
(1 4.44368e-15 0)
(1 1.00728e-14 0)
(1 1.26376e-14 0)
(1 1.30262e-14 0)
(1 8.81716e-15 0)
(1 2.99487e-15 0)
(1 -4.06365e-15 0)
(1 1.92966e-15 0)
(1 1.66715e-15 0)
(1 7.34756e-15 0)
(1 1.12948e-14 0)
(1 1.60595e-14 0)
(1 6.01173e-15 0)
(1 1.43284e-15 0)
(1 5.95092e-16 0)
(1 2.33375e-15 0)
(1 2.27249e-15 0)
(1 -3.20524e-15 0)
(1 -6.58401e-15 0)
(1 -7.99876e-16 0)
(1 4.55535e-15 0)
(1 1.04959e-16 0)
(1 4.51942e-15 0)
(1 6.4825e-15 0)
(1 9.52838e-15 0)
(1 8.71717e-15 0)
(1 1.15966e-14 0)
(1 1.21934e-14 0)
(1 3.3531e-15 0)
(1 8.12955e-15 0)
(1 1.16051e-14 0)
(1 2.22918e-14 0)
(1 1.68233e-14 0)
(1 2.55031e-15 0)
(1 -2.99776e-15 0)
(1 2.40431e-15 0)
(1 -2.7453e-15 0)
(1 -1.49393e-15 0)
(1 -2.15208e-15 0)
(1 -4.08972e-15 0)
(1 -5.98907e-15 0)
(1 -6.53434e-15 0)
(1 6.78087e-16 0)
(1 6.12404e-15 0)
(1 5.81297e-15 0)
(1 -5.90716e-16 0)
(1 3.8896e-16 0)
(1 -5.16645e-15 0)
(1 7.6196e-15 0)
(1 1.00186e-14 0)
(1 2.16188e-15 0)
(1 3.94693e-15 0)
(1 -1.08456e-14 0)
(1 3.88491e-15 0)
(1 1.46461e-15 0)
(1 5.24456e-15 0)
(1 5.31295e-15 0)
(1 5.11122e-15 0)
(1 -9.15579e-16 0)
(1 -2.31011e-15 0)
(1 3.66373e-15 0)
(1 4.13671e-15 0)
(1 9.93028e-16 0)
(1 -7.04737e-15 0)
(1 -6.29691e-15 0)
(1 -3.8803e-15 0)
(1 -8.40935e-16 0)
(1 -3.01441e-15 0)
(1 -6.94855e-16 0)
(1 -2.12464e-15 0)
(1 2.44778e-15 0)
(1 -5.24887e-15 0)
(1 1.98312e-16 0)
(1 7.77701e-15 0)
(1 7.33125e-15 0)
(1 6.25875e-15 0)
(1 5.21192e-15 0)
(1 -3.10845e-15 0)
(1 9.38216e-15 0)
(1 1.25596e-14 0)
(1 8.76971e-15 0)
(1 3.12583e-15 0)
(1 -4.54066e-15 0)
(1 -3.06164e-15 0)
(1 -3.3129e-16 0)
(1 5.29837e-15 0)
(1 9.41725e-15 0)
(1 1.16895e-14 0)
(1 2.49098e-15 0)
(1 -7.81577e-15 0)
(1 1.46511e-15 0)
(1 5.94534e-15 0)
(1 6.99974e-15 0)
(1 3.12861e-15 0)
(1 8.23856e-16 0)
(1 -4.6534e-16 0)
(1 3.23692e-15 0)
(1 6.6333e-15 0)
(1 7.66398e-15 0)
(1 7.80932e-15 0)
(1 5.96434e-15 0)
(1 4.35721e-15 0)
(1 1.14518e-14 0)
(1 1.36068e-14 0)
(1 1.65983e-14 0)
(1 2.5811e-15 0)
(1 9.34398e-16 0)
(1 -4.76046e-15 0)
(1 -6.85637e-16 0)
(1 3.40954e-15 0)
(1 6.14862e-15 0)
(1 5.24075e-15 0)
(1 8.25885e-15 0)
(1 5.91088e-15 0)
(1 1.26055e-14 0)
(1 4.54692e-15 0)
(1 4.55537e-15 0)
(1 2.74783e-15 0)
(1 -8.41035e-15 0)
(1 2.0437e-15 0)
(1 2.0417e-15 0)
(1 -5.50901e-15 0)
(1 5.25036e-15 0)
(1 -2.2537e-16 0)
(1 8.62255e-15 0)
(1 1.17513e-14 0)
(1 1.24685e-14 0)
(1 1.46995e-14 0)
(1 9.66621e-15 0)
(1 1.51946e-14 0)
(1 1.01174e-14 0)
(1 1.2563e-14 0)
(1 1.27477e-14 0)
(1 3.47339e-15 0)
(1 9.31503e-16 0)
(1 -6.23783e-15 0)
(1 -7.54922e-16 0)
(1 -2.32566e-15 0)
(1 -6.88573e-16 0)
(1 -2.55156e-15 0)
(1 -2.12734e-15 0)
(1 -7.8286e-15 0)
(1 5.88059e-15 0)
(1 8.72787e-15 0)
(1 1.08124e-14 0)
(1 -4.29822e-15 0)
(1 3.91381e-15 0)
(1 -3.55626e-15 0)
(1 -6.78516e-16 0)
(1 -1.52746e-15 0)
(1 1.5355e-14 0)
(1 1.10108e-14 0)
(1 9.51306e-15 0)
(1 -3.17982e-15 0)
(1 -1.76984e-14 0)
(1 -1.79322e-14 0)
(1 -6.0543e-15 0)
(1 -7.34535e-15 0)
(1 6.35376e-15 0)
(1 -1.49559e-16 0)
(1 5.50432e-15 0)
(1 5.44168e-15 0)
(1 -1.17903e-15 0)
(1 -3.20991e-15 0)
(1 -9.20338e-16 0)
(1 -1.58938e-15 0)
(1 -6.64065e-15 0)
(1 -7.84378e-15 0)
(1 9.21988e-16 0)
(1 -7.4428e-15 0)
(1 -2.51007e-15 0)
(1 4.95656e-15 0)
(1 6.79362e-15 0)
(1 5.3417e-15 0)
(1 1.46882e-15 0)
(1 1.82376e-15 0)
(1 4.58501e-15 0)
(1 6.22889e-15 0)
(1 7.58393e-15 0)
(1 9.70515e-15 0)
(1 1.87188e-14 0)
(1 9.69676e-15 0)
(1 4.70603e-15 0)
(1 -8.95941e-15 0)
(1 9.14616e-16 0)
(1 -9.31327e-17 0)
(1 3.17595e-15 0)
(1 1.89741e-15 0)
(1 1.02777e-15 0)
(1 -5.40898e-15 0)
(1 7.97344e-16 0)
(1 -5.43593e-15 0)
(1 -1.53743e-15 0)
(1 1.15467e-15 0)
(1 4.88094e-15 0)
(1 9.21135e-15 0)
(1 1.35903e-14 0)
(1 8.59766e-15 0)
(1 7.43638e-15 0)
(1 6.69431e-15 0)
(1 5.41056e-15 0)
(1 3.64411e-15 0)
(1 -1.44306e-15 0)
(1 -1.45353e-15 0)
(1 2.67499e-15 0)
(1 1.00423e-14 0)
(1 1.62855e-14 0)
(1 4.34407e-15 0)
(1 1.95843e-15 0)
(1 -3.25584e-15 0)
(1 -1.76151e-15 0)
(1 -1.57573e-15 0)
(1 6.7027e-15 0)
(1 4.40361e-15 0)
(1 8.3619e-15 0)
(1 4.21672e-15 0)
(1 7.98948e-15 0)
(1 3.10848e-15 0)
(1 1.12123e-14 0)
(1 3.21816e-15 0)
(1 -2.39066e-15 0)
(1 -5.24225e-16 0)
(1 3.59423e-16 0)
(1 6.44483e-15 0)
(1 6.09602e-15 0)
(1 1.57567e-15 0)
(1 4.67978e-15 0)
(1 5.08165e-15 0)
(1 1.02607e-14 0)
(1 9.34098e-15 0)
(1 8.08226e-15 0)
(1 5.5812e-15 0)
(1 1.02395e-14 0)
(1 -5.35299e-16 0)
(1 6.07939e-15 0)
(1 -3.75372e-15 0)
(1 -5.22516e-15 0)
(1 -3.7161e-15 0)
(1 -6.28938e-15 0)
(1 -2.54669e-15 0)
(1 3.01803e-15 0)
(1 7.85507e-15 0)
(1 9.69215e-15 0)
(1 3.58877e-15 0)
(1 3.92505e-16 0)
(1 -2.76771e-15 0)
(1 -2.85765e-15 0)
(1 -1.40935e-15 0)
(1 1.00374e-15 0)
(1 -2.77161e-15 0)
(1 2.55691e-15 0)
(1 7.19596e-16 0)
(1 9.46374e-15 0)
(1 -6.02288e-15 0)
(1 -1.07391e-15 0)
(1 -1.04453e-14 0)
(1 8.19135e-16 0)
(1 2.11087e-15 0)
(1 4.53411e-15 0)
(1 1.96817e-16 0)
(1 -5.04673e-15 0)
(1 -2.53288e-15 0)
(1 -5.52514e-15 0)
(1 1.79691e-15 0)
(1 -2.03803e-15 0)
(1 -7.22868e-15 0)
(1 -1.67272e-14 0)
(1 -9.8904e-16 0)
(1 1.28634e-14 0)
(1 4.83431e-15 0)
(1 -6.75782e-16 0)
(1 3.44367e-15 0)
(1 5.67858e-16 0)
(1 3.87951e-15 0)
(1 3.39043e-15 0)
(1 3.32005e-15 0)
(1 2.94618e-15 0)
(1 5.61652e-15 0)
(1 8.18415e-15 0)
(1 8.28048e-15 0)
(1 5.87106e-15 0)
(1 5.66473e-15 0)
(1 5.38723e-16 0)
(1 -2.01396e-15 0)
(1 -2.615e-16 0)
(1 9.3435e-17 0)
(1 -9.74419e-18 0)
(1 -1.96792e-15 0)
(1 7.12458e-15 0)
(1 1.15758e-14 0)
(1 5.23974e-15 0)
(1 -2.64965e-15 0)
(1 4.28514e-15 0)
(1 2.1387e-15 0)
(1 3.44885e-15 0)
(1 2.79402e-15 0)
(1 5.24079e-15 0)
(1 3.90374e-15 0)
(1 1.52359e-14 0)
(1 8.85096e-15 0)
(1 9.40654e-15 0)
(1 6.79795e-15 0)
(1 -1.25439e-16 0)
(1 -2.52764e-15 0)
(1 1.60202e-15 0)
(1 8.70937e-15 0)
(1 1.43061e-14 0)
(1 1.0658e-14 0)
(1 6.84329e-15 0)
(1 2.81277e-15 0)
(1 6.49484e-15 0)
(1 9.4448e-15 0)
(1 1.38778e-14 0)
(1 2.63884e-15 0)
(1 -3.4742e-16 0)
(1 1.18187e-15 0)
(1 5.01721e-15 0)
(1 4.18822e-15 0)
(1 9.36452e-15 0)
(1 3.74072e-15 0)
(1 2.13558e-15 0)
(1 1.58164e-15 0)
(1 -1.44578e-15 0)
(1 7.90417e-15 0)
(1 1.24798e-14 0)
(1 4.9184e-16 0)
(1 -5.22803e-16 0)
(1 4.48468e-15 0)
(1 1.22029e-14 0)
(1 8.63823e-15 0)
(1 9.07476e-15 0)
(1 6.49588e-15 0)
(1 9.27802e-15 0)
(1 7.47848e-16 0)
(1 -4.92816e-16 0)
(1 -1.01073e-16 0)
(1 -1.22727e-15 0)
(1 5.59466e-15 0)
(1 -1.3337e-14 0)
(1 -4.16642e-15 0)
(1 -1.1696e-14 0)
(1 1.95305e-15 0)
(1 6.2108e-15 0)
(1 6.65864e-15 0)
(1 1.02008e-15 0)
(1 8.71637e-15 0)
(1 -3.80596e-15 0)
(1 3.56547e-15 0)
(1 -2.63628e-15 0)
(1 -4.60766e-16 0)
(1 -1.08983e-14 0)
(1 -1.23988e-14 0)
(1 -5.91282e-15 0)
(1 -6.69008e-15 0)
(1 6.47121e-15 0)
(1 5.73944e-15 0)
(1 1.63316e-14 0)
(1 2.13047e-14 0)
(1 4.50329e-15 0)
(1 4.79341e-16 0)
(1 -2.86731e-15 0)
(1 -9.04533e-15 0)
(1 -8.43119e-15 0)
(1 -3.06012e-15 0)
(1 6.23616e-16 0)
(1 -7.1429e-15 0)
(1 -1.29901e-14 0)
(1 2.02782e-15 0)
(1 -5.17701e-16 0)
(1 1.23155e-14 0)
(1 5.12634e-15 0)
(1 -2.24771e-15 0)
(1 9.90088e-16 0)
(1 3.65129e-15 0)
(1 9.04404e-15 0)
(1 4.69599e-15 0)
(1 6.66137e-16 0)
(1 -3.15737e-15 0)
(1 4.09994e-15 0)
(1 3.72235e-15 0)
(1 -2.19931e-15 0)
(1 2.20859e-15 0)
(1 4.29457e-15 0)
(1 8.46741e-15 0)
(1 4.66249e-15 0)
(1 1.05852e-15 0)
(1 4.65848e-15 0)
(1 6.01971e-15 0)
(1 1.90554e-15 0)
(1 8.72991e-15 0)
(1 5.86627e-15 0)
(1 4.86189e-15 0)
(1 1.38461e-15 0)
(1 -2.18315e-15 0)
(1 2.51166e-16 0)
(1 2.56221e-16 0)
(1 3.10996e-15 0)
(1 6.17447e-15 0)
(1 6.27552e-15 0)
(1 1.23544e-14 0)
(1 1.11565e-14 0)
(1 1.39972e-14 0)
(1 8.63952e-15 0)
(1 4.70863e-15 0)
(1 1.32956e-14 0)
(1 7.97787e-15 0)
(1 3.63712e-15 0)
(1 7.11999e-15 0)
(1 8.02049e-15 0)
(1 9.17977e-15 0)
(1 6.50977e-15 0)
(1 8.98703e-15 0)
(1 5.90634e-15 0)
(1 6.06642e-15 0)
(1 -1.12524e-15 0)
(1 3.8405e-15 0)
(1 -1.98719e-15 0)
(1 3.39374e-15 0)
(1 3.02315e-15 0)
(1 5.25491e-15 0)
(1 -6.42464e-15 0)
(1 -1.10193e-15 0)
(1 2.92887e-15 0)
(1 3.0864e-15 0)
(1 7.53685e-15 0)
(1 1.12148e-14 0)
(1 8.71117e-15 0)
(1 7.85305e-15 0)
(1 8.66551e-15 0)
(1 4.21238e-15 0)
(1 6.43646e-15 0)
(1 7.7455e-15 0)
(1 1.092e-14 0)
(1 -1.27898e-15 0)
(1 -7.16402e-15 0)
(1 -4.23213e-15 0)
(1 1.8713e-16 0)
(1 5.48006e-15 0)
(1 6.78093e-15 0)
(1 1.50125e-14 0)
(1 4.03522e-15 0)
(1 -7.57153e-15 0)
(1 -6.00193e-15 0)
(1 -1.88692e-15 0)
(1 -7.43347e-15 0)
(1 2.26067e-15 0)
(1 -6.99911e-15 0)
(1 3.27247e-15 0)
(1 -4.20543e-15 0)
(1 4.08808e-15 0)
(1 -1.93222e-16 0)
(1 -3.50715e-15 0)
(1 -2.1039e-15 0)
(1 -3.34414e-15 0)
(1 1.54774e-15 0)
(1 -2.07155e-15 0)
(1 -3.5367e-15 0)
(1 -2.40676e-15 0)
(1 -1.54393e-15 0)
(1 -7.4801e-15 0)
(1 -5.57706e-16 0)
(1 -2.04254e-15 0)
(1 -3.69733e-15 0)
(1 -1.43035e-15 0)
(1 -7.65163e-15 0)
(1 -2.84308e-15 0)
(1 5.39885e-15 0)
(1 5.88418e-15 0)
(1 5.28836e-16 0)
(1 1.77778e-15 0)
(1 -3.97129e-16 0)
(1 2.45734e-15 0)
(1 8.7447e-15 0)
(1 -1.95802e-15 0)
(1 -1.03854e-15 0)
(1 3.05698e-15 0)
(1 -8.18433e-16 0)
(1 2.12941e-15 0)
(1 -3.41574e-15 0)
(1 7.92618e-16 0)
(1 3.0727e-15 0)
(1 1.01446e-14 0)
(1 7.61747e-15 0)
(1 9.09096e-15 0)
(1 7.47639e-15 0)
(1 3.77341e-15 0)
(1 -2.42235e-16 0)
(1 3.37659e-16 0)
(1 -5.26227e-15 0)
(1 6.17922e-15 0)
(1 4.46323e-15 0)
(1 9.46886e-15 0)
(1 -5.75309e-15 0)
(1 -2.45791e-15 0)
(1 5.32125e-15 0)
(1 -1.48869e-16 0)
(1 5.03895e-15 0)
(1 4.62112e-15 0)
(1 -5.36814e-15 0)
(1 -1.01527e-15 0)
(1 4.46657e-15 0)
(1 9.84627e-15 0)
(1 5.82678e-15 0)
(1 9.60928e-15 0)
(1 1.1606e-14 0)
(1 9.69637e-15 0)
(1 6.38157e-15 0)
(1 1.01638e-14 0)
(1 1.14306e-15 0)
(1 1.03837e-15 0)
(1 5.96903e-15 0)
(1 1.30546e-14 0)
(1 4.49271e-15 0)
(1 7.88046e-15 0)
(1 3.32084e-15 0)
(1 4.0539e-15 0)
(1 3.28668e-15 0)
(1 5.75972e-15 0)
(1 2.64559e-15 0)
(1 -1.64164e-15 0)
(1 -7.43658e-15 0)
(1 -1.64637e-16 0)
(1 5.4389e-15 0)
(1 3.87849e-15 0)
(1 3.90531e-15 0)
(1 1.49221e-14 0)
(1 8.4777e-15 0)
(1 6.14909e-15 0)