/*--------------------------------*- C++ -*----------------------------------*\
| =========                 |                                                 |
| \\      /  F ield         | OpenFOAM: The Open Source CFD Toolbox           |
|  \\    /   O peration     | Version:  v2012                                 |
|   \\  /    A nd           | Website:  www.openfoam.com                      |
|    \\/     M anipulation  |                                                 |
\*---------------------------------------------------------------------------*/
FoamFile
{
    version     2.0;
    format      ascii;
    class       surfaceScalarField;
    location    "17.75";
    object      phi;
}
// * * * * * * * * * * * * * * * * * * * * * * * * * * * * * * * * * * * * * //

dimensions      [0 3 -1 0 0 0 0];
oriented        oriented;


internalField   nonuniform List<scalar> 
130560
(
3.25216e-06
-3.25216e-06
6.5045e-06
-3.25234e-06
9.75719e-06
-3.25269e-06
1.30104e-05
-3.25322e-06
1.62643e-05
-3.25392e-06
1.95191e-05
-3.2548e-06
2.2775e-05
-3.25584e-06
2.6032e-05
-3.25706e-06
2.92905e-05
-3.25844e-06
3.25505e-05
-3.25999e-06
3.58121e-05
-3.2617e-06
3.90757e-05
-3.26356e-06
4.23413e-05
-3.26558e-06
4.5609e-05
-3.26774e-06
4.88791e-05
-3.27005e-06
5.21516e-05
-3.2725e-06
5.54267e-05
-3.27509e-06
5.87045e-05
-3.2778e-06
6.19851e-05
-3.28063e-06
6.52687e-05
-3.28357e-06
6.85553e-05
-3.28663e-06
7.18451e-05
-3.28978e-06
7.51381e-05
-3.29302e-06
7.84344e-05
-3.29634e-06
8.17342e-05
-3.29974e-06
8.50374e-05
-3.3032e-06
8.83441e-05
-3.30672e-06
9.16544e-05
-3.31028e-06
9.49682e-05
-3.31387e-06
9.82857e-05
-3.31748e-06
0.000101607
-3.32109e-06
0.000104932
-3.32471e-06
0.00010826
-3.3283e-06
0.000111592
-3.33186e-06
0.000114927
-3.33537e-06
0.000118266
-3.33883e-06
0.000121608
-3.3422e-06
0.000124954
-3.34548e-06
0.000128302
-3.34864e-06
0.000131654
-3.35168e-06
0.000135008
-3.35456e-06
0.000138366
-3.35728e-06
0.000141726
-3.35982e-06
0.000145088
-3.36214e-06
0.000148452
-3.36423e-06
0.000151818
-3.36608e-06
0.000155186
-3.36764e-06
0.000158555
-3.36892e-06
0.000161924
-3.36986e-06
0.000165295
-3.37047e-06
0.000168666
-3.3707e-06
0.000172036
-3.37053e-06
0.000175406
-3.36993e-06
0.000178775
-3.36889e-06
0.000182142
-3.36736e-06
0.000185508
-3.36532e-06
0.00018887
-3.36274e-06
0.00019223
-3.35958e-06
0.000195586
-3.35583e-06
0.000198937
-3.35144e-06
0.000202284
-3.34639e-06
0.000205624
-3.34063e-06
0.000208958
-3.33415e-06
0.000212285
-3.3269e-06
0.000215604
-3.31885e-06
0.000218914
-3.30996e-06
0.000222214
-3.30021e-06
0.000225504
-3.28955e-06
0.000228782
-3.27795e-06
0.000232047
-3.26538e-06
0.000235299
-3.2518e-06
0.000238536
-3.23717e-06
0.000241758
-3.22146e-06
0.000244962
-3.20463e-06
0.000248149
-3.18665e-06
0.000251316
-3.16748e-06
0.000254463
-3.1471e-06
0.000257589
-3.12545e-06
0.000260691
-3.10252e-06
0.00026377
-3.07827e-06
0.000266822
-3.05267e-06
0.000269848
-3.02568e-06
0.000272845
-2.99728e-06
0.000275813
-2.96744e-06
0.000278749
-2.93612e-06
0.000281652
-2.90331e-06
0.000284521
-2.86899e-06
0.000287354
-2.83311e-06
0.00029015
-2.79568e-06
0.000292907
-2.75666e-06
0.000295623
-2.71604e-06
0.000298296
-2.6738e-06
0.000300926
-2.62994e-06
0.000303511
-2.58443e-06
0.000306048
-2.53728e-06
0.000308537
-2.48847e-06
0.000310975
-2.43801e-06
0.00031336
-2.38589e-06
0.000315693
-2.33212e-06
0.000317969
-2.27669e-06
0.000320189
-2.21963e-06
0.00032235
-2.16093e-06
0.00032445
-2.10063e-06
0.000326489
-2.03873e-06
0.000328464
-1.97525e-06
0.000330375
-1.91022e-06
0.000332218
-1.84367e-06
0.000333994
-1.77563e-06
0.0003357
-1.70613e-06
0.000337335
-1.63522e-06
0.000338898
-1.56292e-06
0.000340388
-1.4893e-06
0.000341802
-1.41438e-06
0.00034314
-1.33823e-06
0.000344401
-1.2609e-06
0.000345584
-1.18245e-06
0.000346686
-1.10293e-06
0.000347709
-1.0224e-06
0.00034865
-9.40938e-07
0.000349508
-8.58602e-07
0.000350284
-7.75464e-07
0.000350975
-6.91596e-07
0.000351583
-6.07069e-07
0.000352104
-5.21961e-07
0.000352541
-4.36347e-07
0.000352891
-3.50305e-07
0.000353155
-2.63915e-07
0.000353332
-1.77256e-07
0.000353423
-9.04089e-08
0.000353426
-3.45542e-09
0.000353343
8.35235e-08
0.000353172
1.70446e-07
0.000352915
2.57233e-07
0.000352571
3.43801e-07
0.000352141
4.30072e-07
0.000351625
5.15967e-07
0.000351024
6.01407e-07
0.000350337
6.86317e-07
0.000349567
7.70622e-07
0.000348713
8.54247e-07
0.000347775
9.37123e-07
0.000346756
1.01918e-06
0.000345656
1.10035e-06
0.000344475
1.18057e-06
0.000343216
1.25978e-06
0.000341878
1.33791e-06
0.000340463
1.41492e-06
0.000338972
1.49075e-06
0.000337407
1.56534e-06
0.000335768
1.63865e-06
0.000334057
1.71065e-06
0.000332276
1.78127e-06
0.000330426
1.85049e-06
0.000328507
1.91828e-06
0.000326523
1.98459e-06
0.000324473
2.04941e-06
0.000322361
2.1127e-06
0.000320186
2.17445e-06
0.000317951
2.23463e-06
0.000315658
2.29324e-06
0.000313308
2.35025e-06
0.000310902
2.40566e-06
0.000308443
2.45947e-06
0.000305931
2.51166e-06
0.000303369
2.56223e-06
0.000300758
2.61119e-06
0.000298099
2.65855e-06
0.000295395
2.7043e-06
0.000292646
2.74846e-06
0.000289855
2.79104e-06
0.000287023
2.83205e-06
0.000284152
2.8715e-06
0.000281242
2.90942e-06
0.000278297
2.94582e-06
0.000275316
2.98072e-06
0.000272302
3.01415e-06
0.000269256
3.04612e-06
0.000266179
3.07667e-06
0.000263073
3.10582e-06
0.00025994
3.13359e-06
0.00025678
3.16002e-06
0.000253594
3.18513e-06
0.000250385
3.20896e-06
0.000247154
3.23153e-06
0.000243901
3.25288e-06
0.000240628
3.27303e-06
0.000237336
3.29202e-06
0.000234026
3.30989e-06
0.000230699
3.32667e-06
0.000227357
3.34238e-06
0.000224
3.35707e-06
0.000220629
3.37076e-06
0.000217246
3.38349e-06
0.00021385
3.39529e-06
0.000210444
3.40621e-06
0.000207028
3.41626e-06
0.000203602
3.42548e-06
0.000200169
3.43391e-06
0.000196727
3.44157e-06
0.000193279
3.44851e-06
0.000189824
3.45475e-06
0.000186363
3.46031e-06
0.000182898
3.46525e-06
0.000179429
3.46957e-06
0.000175955
3.47332e-06
0.000172479
3.47652e-06
0.000169
3.47921e-06
0.000165518
3.4814e-06
0.000162035
3.48313e-06
0.000158551
3.48442e-06
0.000155065
3.48531e-06
0.00015158
3.48581e-06
0.000148094
3.48595e-06
0.000144608
3.48576e-06
0.000141123
3.48526e-06
0.000137638
3.48447e-06
0.000134155
3.48342e-06
0.000130673
3.48213e-06
0.000127192
3.48062e-06
0.000123713
3.47891e-06
0.000120236
3.47701e-06
0.000116761
3.47496e-06
0.000113288
3.47277e-06
0.000109818
3.47045e-06
0.00010635
3.46802e-06
0.000102884
3.46551e-06
9.94213e-05
3.46293e-06
9.59611e-05
3.46028e-06
9.25035e-05
3.4576e-06
8.90486e-05
3.45489e-06
8.55964e-05
3.45216e-06
8.2147e-05
3.44944e-06
7.87002e-05
3.44673e-06
7.52562e-05
3.44404e-06
7.18148e-05
3.44139e-06
6.8376e-05
3.43878e-06
6.49398e-05
3.43623e-06
6.15061e-05
3.43375e-06
5.80747e-05
3.43135e-06
5.46457e-05
3.42903e-06
5.12189e-05
3.42681e-06
4.77942e-05
3.42469e-06
4.43715e-05
3.42268e-06
4.09507e-05
3.42078e-06
3.75317e-05
3.41901e-06
3.41143e-05
3.41736e-06
3.06985e-05
3.41585e-06
2.7284e-05
3.41447e-06
2.38708e-05
3.41324e-06
2.04586e-05
3.41215e-06
1.70474e-05
3.41122e-06
1.3637e-05
3.41043e-06
1.02272e-05
3.4098e-06
6.81785e-06
3.40932e-06
3.40885e-06
3.40901e-06
3.40885e-06
3.25199e-06
-6.50414e-06
6.50415e-06
-6.5045e-06
9.75667e-06
-6.50521e-06
1.30097e-05
-6.50626e-06
1.62635e-05
-6.50767e-06
1.95181e-05
-6.50942e-06
2.27738e-05
-6.51152e-06
2.60307e-05
-6.51395e-06
2.92889e-05
-6.51672e-06
3.25488e-05
-6.51982e-06
3.58103e-05
-6.52324e-06
3.90737e-05
-6.52697e-06
4.23391e-05
-6.53101e-06
4.56067e-05
-6.53535e-06
4.88767e-05
-6.53997e-06
5.2149e-05
-6.54488e-06
5.5424e-05
-6.55005e-06
5.87017e-05
-6.55547e-06
6.19822e-05
-6.56114e-06
6.52657e-05
-6.56704e-06
6.85522e-05
-6.57315e-06
7.18419e-05
-6.57946e-06
7.51348e-05
-6.58596e-06
7.84311e-05
-6.59262e-06
8.17308e-05
-6.59942e-06
8.50339e-05
-6.60636e-06
8.83406e-05
-6.6134e-06
9.16508e-05
-6.62052e-06
9.49647e-05
-6.62772e-06
9.82822e-05
-6.63495e-06
0.000101603
-6.6422e-06
0.000104928
-6.64943e-06
0.000108256
-6.65663e-06
0.000111588
-6.66377e-06
0.000114924
-6.67081e-06
0.000118263
-6.67773e-06
0.000121605
-6.68449e-06
0.00012495
-6.69107e-06
0.000128299
-6.69741e-06
0.000131651
-6.7035e-06
0.000135006
-6.7093e-06
0.000138363
-6.71476e-06
0.000141723
-6.71984e-06
0.000145086
-6.72451e-06
0.00014845
-6.72872e-06
0.000151817
-6.73243e-06
0.000155184
-6.73559e-06
0.000158554
-6.73816e-06
0.000161924
-6.74008e-06
0.000165295
-6.74131e-06
0.000168666
-6.7418e-06
0.000172037
-6.74149e-06
0.000175407
-6.74032e-06
0.000178777
-6.73826e-06
0.000182144
-6.73523e-06
0.00018551
-6.73118e-06
0.000188874
-6.72604e-06
0.000192234
-6.71977e-06
0.00019559
-6.71229e-06
0.000198942
-6.70355e-06
0.000202289
-6.69347e-06
0.000205631
-6.682e-06
0.000208966
-6.66906e-06
0.000212293
-6.6546e-06
0.000215613
-6.63853e-06
0.000218924
-6.6208e-06
0.000222225
-6.60132e-06
0.000225516
-6.58004e-06
0.000228794
-6.55688e-06
0.000232061
-6.53177e-06
0.000235314
-6.50464e-06
0.000238552
-6.47542e-06
0.000241775
-6.44403e-06
0.00024498
-6.41041e-06
0.000248168
-6.37449e-06
0.000251337
-6.33619e-06
0.000254485
-6.29545e-06
0.000257612
-6.2522e-06
0.000260716
-6.20637e-06
0.000263795
-6.1579e-06
0.000266849
-6.10672e-06
0.000269877
-6.05277e-06
0.000272875
-5.996e-06
0.000275844
-5.93634e-06
0.000278782
-5.87374e-06
0.000281687
-5.80815e-06
0.000284557
-5.73952e-06
0.000287392
-5.66779e-06
0.000290189
-5.59294e-06
0.000292947
-5.51492e-06
0.000295665
-5.4337e-06
0.00029834
-5.34924e-06
0.000300972
-5.26152e-06
0.000303558
-5.17052e-06
0.000306097
-5.07622e-06
0.000308587
-4.9786e-06
0.000311027
-4.87768e-06
0.000313414
-4.77343e-06
0.000315748
-4.66588e-06
0.000318027
-4.55502e-06
0.000320248
-4.44088e-06
0.00032241
-4.32348e-06
0.000324513
-4.20285e-06
0.000326553
-4.07902e-06
0.00032853
-3.95204e-06
0.000330441
-3.82196e-06
0.000332287
-3.68883e-06
0.000334064
-3.55271e-06
0.000335771
-3.41368e-06
0.000337408
-3.27181e-06
0.000338972
-3.12718e-06
0.000340463
-2.97987e-06
0.000341878
-2.83e-06
0.000343218
-2.67765e-06
0.00034448
-2.52293e-06
0.000345663
-2.36596e-06
0.000346767
-2.20685e-06
0.00034779
-2.04574e-06
0.000348732
-1.88274e-06
0.000349592
-1.718e-06
0.000350368
-1.55166e-06
0.00035106
-1.38385e-06
0.000351668
-1.21472e-06
0.00035219
-1.04442e-06
0.000352627
-8.73118e-07
0.000352978
-7.00955e-07
0.000353242
-5.28094e-07
0.000353419
-3.54695e-07
0.00035351
-1.80921e-07
0.000353513
-6.93256e-09
0.00035343
1.67107e-07
0.000353259
3.41034e-07
0.000353002
5.14686e-07
0.000352657
6.87903e-07
0.000352227
8.60524e-07
0.000351711
1.03239e-06
0.000351109
1.20335e-06
0.000350422
1.37324e-06
0.00034965
1.54193e-06
0.000348795
1.70925e-06
0.000347857
1.87507e-06
0.000346837
2.03925e-06
0.000345736
2.20165e-06
0.000344555
2.36215e-06
0.000343294
2.52063e-06
0.000341955
2.67696e-06
0.000340539
2.83103e-06
0.000339047
2.98273e-06
0.00033748
3.13196e-06
0.00033584
3.27864e-06
0.000334128
3.42266e-06
0.000332345
3.56395e-06
0.000330493
3.70243e-06
0.000328574
3.83803e-06
0.000326587
3.97068e-06
0.000324537
4.10034e-06
0.000322422
4.22695e-06
0.000320246
4.35047e-06
0.00031801
4.47085e-06
0.000315715
4.58807e-06
0.000313363
4.70211e-06
0.000310956
4.81294e-06
0.000308495
4.92055e-06
0.000305982
5.02493e-06
0.000303418
5.12608e-06
0.000300805
5.224e-06
0.000298145
5.3187e-06
0.000295439
5.4102e-06
0.000292689
5.49851e-06
0.000289896
5.58365e-06
0.000287063
5.66565e-06
0.00028419
5.74454e-06
0.000281279
5.82036e-06
0.000278331
5.89314e-06
0.000275349
5.96292e-06
0.000272334
6.02975e-06
0.000269286
6.09368e-06
0.000266208
6.15475e-06
0.000263101
6.21301e-06
0.000259966
6.26853e-06
0.000256805
6.32136e-06
0.000253618
6.37155e-06
0.000250408
6.41917e-06
0.000247175
6.46428e-06
0.000243921
6.50694e-06
0.000240647
6.54722e-06
0.000237354
6.58518e-06
0.000234043
6.62088e-06
0.000230715
6.6544e-06
0.000227372
6.68579e-06
0.000224014
6.71513e-06
0.000220642
6.74248e-06
0.000217257
6.76791e-06
0.000213861
6.79148e-06
0.000210454
6.81327e-06
0.000207037
6.83334e-06
0.000203611
6.85175e-06
0.000200176
6.86858e-06
0.000196734
6.88388e-06
0.000193285
6.89772e-06
0.000189829
6.91016e-06
0.000186368
6.92126e-06
0.000182902
6.9311e-06
0.000179432
6.93972e-06
0.000175958
6.94719e-06
0.000172481
6.95356e-06
0.000169002
6.9589e-06
0.00016552
6.96326e-06
0.000162036
6.96669e-06
0.000158551
6.96925e-06
0.000155066
6.971e-06
0.00015158
6.97197e-06
0.000148093
6.97224e-06
0.000144607
6.97183e-06
0.000141122
6.97081e-06
0.000137637
6.96921e-06
0.000134153
6.96709e-06
0.000130671
6.96448e-06
0.00012719
6.96143e-06
0.000123711
6.95799e-06
0.000120234
6.95418e-06
0.000116759
6.95006e-06
0.000113286
6.94565e-06
0.000109815
6.941e-06
0.000106347
6.93613e-06
0.000102882
6.93109e-06
9.94187e-05
6.92591e-06
9.59583e-05
6.92061e-06
9.25007e-05
6.91523e-06
8.90458e-05
6.90979e-06
8.55936e-05
6.90433e-06
8.21442e-05
6.89886e-06
7.86975e-05
6.89342e-06
7.52535e-05
6.88804e-06
7.18122e-05
6.88272e-06
6.83735e-05
6.8775e-06
6.49373e-05
6.8724e-06
6.15036e-05
6.86743e-06
5.80724e-05
6.86262e-06
5.46434e-05
6.85797e-06
5.12167e-05
6.85352e-06
4.77921e-05
6.84927e-06
4.43696e-05
6.84524e-06
4.09489e-05
6.84144e-06
3.753e-05
6.83789e-06
3.41128e-05
6.83459e-06
3.06971e-05
6.83156e-06
2.72828e-05
6.8288e-06
2.38697e-05
6.82633e-06
2.04577e-05
6.82416e-06
1.70466e-05
6.82228e-06
1.36363e-05
6.8207e-06
1.02267e-05
6.81944e-06
6.81753e-06
6.81849e-06
3.40869e-06
6.81785e-06
6.81754e-06
3.25163e-06
-9.75578e-06
6.50344e-06
-9.75631e-06
9.7556e-06
-9.75737e-06
1.30083e-05
-9.75896e-06
1.62617e-05
-9.76107e-06
1.9516e-05
-9.76371e-06
2.27713e-05
-9.76686e-06
2.60279e-05
-9.77051e-06
2.92858e-05
-9.77467e-06
3.25453e-05
-9.77933e-06
3.58066e-05
-9.78446e-06
3.90697e-05
-9.79007e-06
4.23348e-05
-9.79614e-06
4.56021e-05
-9.80266e-06
4.88718e-05
-9.80961e-06
5.21439e-05
-9.81698e-06
5.54186e-05
-9.82475e-06
5.8696e-05
-9.83291e-06
6.19763e-05
-9.84143e-06
6.52595e-05
-9.85029e-06
6.85459e-05
-9.85948e-06
7.18354e-05
-9.86897e-06
7.51281e-05
-9.87873e-06
7.84243e-05
-9.88874e-06
8.17238e-05
-9.89897e-06
8.50269e-05
-9.9094e-06
8.83335e-05
-9.91999e-06
9.16436e-05
-9.93071e-06
9.49574e-05
-9.94152e-06
9.82749e-05
-9.9524e-06
0.000101596
-9.96331e-06
0.000104921
-9.9742e-06
0.000108249
-9.98503e-06
0.000111581
-9.99577e-06
0.000114917
-1.00064e-05
0.000118256
-1.00168e-05
0.000121598
-1.0027e-05
0.000124944
-1.00369e-05
0.000128293
-1.00464e-05
0.000131645
-1.00556e-05
0.000135
-1.00644e-05
0.000138358
-1.00726e-05
0.000141719
-1.00803e-05
0.000145081
-1.00873e-05
0.000148446
-1.00937e-05
0.000151813
-1.00993e-05
0.000155182
-1.01041e-05
0.000158552
-1.0108e-05
0.000161923
-1.0111e-05
0.000165294
-1.01129e-05
0.000168666
-1.01137e-05
0.000172038
-1.01133e-05
0.000175409
-1.01116e-05
0.00017878
-1.01086e-05
0.000182148
-1.01041e-05
0.000185515
-1.00981e-05
0.00018888
-1.00905e-05
0.000192241
-1.00812e-05
0.000195599
-1.007e-05
0.000198952
-1.0057e-05
0.000202301
-1.0042e-05
0.000205644
-1.00248e-05
0.00020898
-1.00055e-05
0.000212309
-9.98389e-06
0.000215631
-9.95988e-06
0.000218943
-9.93337e-06
0.000222246
-9.90424e-06
0.000225539
-9.87241e-06
0.00022882
-9.83776e-06
0.000232088
-9.80018e-06
0.000235343
-9.75958e-06
0.000238583
-9.71583e-06
0.000241808
-9.66884e-06
0.000245016
-9.6185e-06
0.000248206
-9.5647e-06
0.000251378
-9.50734e-06
0.000254528
-9.44631e-06
0.000257658
-9.38152e-06
0.000260764
-9.31286e-06
0.000263847
-9.24023e-06
0.000266903
-9.16354e-06
0.000269933
-9.0827e-06
0.000272935
-8.99761e-06
0.000275907
-8.90819e-06
0.000278847
-8.81435e-06
0.000281755
-8.71603e-06
0.000284629
-8.61313e-06
0.000287467
-8.5056e-06
0.000290267
-8.39337e-06
0.000293029
-8.27639e-06
0.000295749
-8.15459e-06
0.000298428
-8.02793e-06
0.000301063
-7.89638e-06
0.000303652
-7.7599e-06
0.000306195
-7.61846e-06
0.000308688
-7.47205e-06
0.000311131
-7.32066e-06
0.000313522
-7.16429e-06
0.000315859
-7.00294e-06
0.000318141
-6.83664e-06
0.000320365
-6.6654e-06
0.000322531
-6.48926e-06
0.000324636
-6.30827e-06
0.00032668
-6.12248e-06
0.00032866
-5.93194e-06
0.000330574
-5.73675e-06
0.000332423
-5.53698e-06
0.000334203
-5.33272e-06
0.000335913
-5.12407e-06
0.000337552
-4.91116e-06
0.000339119
-4.6941e-06
0.000340612
-4.47303e-06
0.000342031
-4.24809e-06
0.000343372
-4.01942e-06
0.000344637
-3.78721e-06
0.000345822
-3.5516e-06
0.000346928
-3.31279e-06
0.000347953
-3.07096e-06
0.000348897
-2.8263e-06
0.000349758
-2.57901e-06
0.000350536
-2.32931e-06
0.000351229
-2.07741e-06
0.000351838
-1.82353e-06
0.000352361
-1.5679e-06
0.000352799
-1.31075e-06
0.00035315
-1.0523e-06
0.000353415
-7.92812e-07
0.000353593
-5.32512e-07
0.000353684
-2.71647e-07
0.000353687
-1.04615e-08
0.000353604
2.50801e-07
0.000353433
5.11894e-07
0.000353175
7.72575e-07
0.00035283
1.0326e-06
0.000352399
1.29173e-06
0.000351882
1.54973e-06
0.000351279
1.80635e-06
0.00035059
2.06138e-06
0.000349818
2.31459e-06
0.000348961
2.56575e-06
0.000348022
2.81465e-06
0.000347
3.06109e-06
0.000345897
3.30486e-06
0.000344713
3.54577e-06
0.00034345
3.78363e-06
0.000342109
4.01826e-06
0.00034069
4.2495e-06
0.000339196
4.47718e-06
0.000337627
4.70115e-06
0.000335984
4.92127e-06
0.000334269
5.13741e-06
0.000332484
5.34943e-06
0.000330629
5.55724e-06
0.000328706
5.76072e-06
0.000326717
5.95977e-06
0.000324663
6.15432e-06
0.000322546
6.34429e-06
0.000320367
6.52961e-06
0.000318127
6.71023e-06
0.000315829
6.88609e-06
0.000313474
7.05717e-06
0.000311064
7.22343e-06
0.000308599
7.38485e-06
0.000306083
7.54143e-06
0.000303516
7.69315e-06
0.0003009
7.84003e-06
0.000298236
7.98206e-06
0.000295527
8.11929e-06
0.000292774
8.25172e-06
0.000289978
8.3794e-06
0.000287142
8.50237e-06
0.000284266
8.62066e-06
0.000281352
8.73434e-06
0.000278401
8.84346e-06
0.000275416
8.94807e-06
0.000272398
9.04826e-06
0.000269347
9.14408e-06
0.000266266
9.23562e-06
0.000263156
9.32295e-06
0.000260019
9.40616e-06
0.000256855
9.48533e-06
0.000253666
9.56054e-06
0.000250453
9.6319e-06
0.000247218
9.69948e-06
0.000243961
9.7634e-06
0.000240685
9.82373e-06
0.00023739
9.88058e-06
0.000234076
9.93406e-06
0.000230746
9.98424e-06
0.000227401
1.00313e-05
0.000224041
1.00752e-05
0.000220667
1.01161e-05
0.000217281
1.01542e-05
0.000213883
1.01895e-05
0.000210474
1.02221e-05
0.000207056
1.02521e-05
0.000203628
1.02796e-05
0.000200191
1.03048e-05
0.000196748
1.03276e-05
0.000193297
1.03483e-05
0.00018984
1.03669e-05
0.000186378
1.03835e-05
0.000182911
1.03982e-05
0.00017944
1.0411e-05
0.000175965
1.04221e-05
0.000172487
1.04316e-05
0.000169006
1.04396e-05
0.000165523
1.0446e-05
0.000162039
1.04511e-05
0.000158553
1.04549e-05
0.000155067
1.04575e-05
0.00015158
1.04589e-05
0.000148093
1.04592e-05
0.000144606
1.04585e-05
0.00014112
1.04569e-05
0.000137635
1.04545e-05
0.000134151
1.04512e-05
0.000130668
1.04473e-05
0.000127187
1.04427e-05
0.000123707
1.04374e-05
0.00012023
1.04317e-05
0.000116754
1.04254e-05
0.000113281
1.04188e-05
0.00010981
1.04118e-05
0.000106342
1.04044e-05
0.000102876
1.03968e-05
9.94134e-05
1.0389e-05
9.5953e-05
1.0381e-05
9.24953e-05
1.03729e-05
8.90404e-05
1.03647e-05
8.55882e-05
1.03565e-05
8.21388e-05
1.03483e-05
7.86921e-05
1.03401e-05
7.52482e-05
1.0332e-05
7.1807e-05
1.0324e-05
6.83684e-05
1.03161e-05
6.49323e-05
1.03084e-05
6.14988e-05
1.0301e-05
5.80677e-05
1.02937e-05
5.4639e-05
1.02867e-05
5.12125e-05
1.028e-05
4.77881e-05
1.02736e-05
4.43658e-05
1.02676e-05
4.09454e-05
1.02619e-05
3.75267e-05
1.02565e-05
3.41098e-05
1.02515e-05
3.06943e-05
1.0247e-05
2.72803e-05
1.02428e-05
2.38675e-05
1.02391e-05
2.04558e-05
1.02359e-05
1.7045e-05
1.0233e-05
1.36351e-05
1.02307e-05
1.02257e-05
1.02288e-05
6.8169e-06
1.02273e-05
3.40837e-06
1.02264e-05
1.02259e-05
3.2511e-06
-1.30069e-05
6.50238e-06
-1.30076e-05
9.75401e-06
-1.3009e-05
1.30062e-05
-1.30111e-05
1.62591e-05
-1.3014e-05
1.95128e-05
-1.30175e-05
2.27677e-05
-1.30217e-05
2.60237e-05
-1.30266e-05
2.92812e-05
-1.30321e-05
3.25402e-05
-1.30383e-05
3.58009e-05
-1.30452e-05
3.90636e-05
-1.30527e-05
4.23283e-05
-1.30608e-05
4.55951e-05
-1.30695e-05
4.88644e-05
-1.30788e-05
5.21361e-05
-1.30887e-05
5.54104e-05
-1.30991e-05
5.86875e-05
-1.311e-05
6.19674e-05
-1.31214e-05
6.52503e-05
-1.31332e-05
6.85363e-05
-1.31455e-05
7.18256e-05
-1.31582e-05
7.51181e-05
-1.31713e-05
7.8414e-05
-1.31846e-05
8.17134e-05
-1.31983e-05
8.50162e-05
-1.32123e-05
8.83227e-05
-1.32264e-05
9.16328e-05
-1.32408e-05
9.49465e-05
-1.32553e-05
9.8264e-05
-1.32698e-05
0.000101585
-1.32844e-05
0.00010491
-1.3299e-05
0.000108238
-1.33135e-05
0.000111571
-1.33279e-05
0.000114906
-1.33421e-05
0.000118246
-1.33561e-05
0.000121588
-1.33697e-05
0.000124934
-1.3383e-05
0.000128284
-1.33959e-05
0.000131636
-1.34082e-05
0.000134992
-1.34199e-05
0.00013835
-1.3431e-05
0.000141711
-1.34413e-05
0.000145075
-1.34508e-05
0.000148441
-1.34594e-05
0.000151808
-1.3467e-05
0.000155178
-1.34736e-05
0.000158549
-1.34789e-05
0.000161921
-1.34829e-05
0.000165293
-1.34856e-05
0.000168666
-1.34868e-05
0.00017204
-1.34864e-05
0.000175412
-1.34843e-05
0.000178784
-1.34804e-05
0.000182154
-1.34745e-05
0.000185523
-1.34667e-05
0.000188889
-1.34567e-05
0.000192252
-1.34444e-05
0.000195612
-1.34297e-05
0.000198967
-1.34124e-05
0.000202318
-1.33925e-05
0.000205663
-1.33699e-05
0.000209002
-1.33443e-05
0.000212333
-1.33156e-05
0.000215657
-1.32837e-05
0.000218972
-1.32485e-05
0.000222278
-1.32099e-05
0.000225573
-1.31676e-05
0.000228857
-1.31216e-05
0.000232128
-1.30716e-05
0.000235387
-1.30177e-05
0.00023863
-1.29595e-05
0.000241858
-1.2897e-05
0.00024507
-1.283e-05
0.000248264
-1.27585e-05
0.000251439
-1.26822e-05
0.000254593
-1.26009e-05
0.000257726
-1.25147e-05
0.000260837
-1.24233e-05
0.000263923
-1.23266e-05
0.000266984
-1.22245e-05
0.000270018
-1.21169e-05
0.000273024
-1.20035e-05
0.000276001
-1.18844e-05
0.000278946
-1.17595e-05
0.000281858
-1.16285e-05
0.000284736
-1.14914e-05
0.000287579
-1.13481e-05
0.000290384
-1.11986e-05
0.00029315
-1.10427e-05
0.000295876
-1.08803e-05
0.00029856
-1.07115e-05
0.000301199
-1.05362e-05
0.000303794
-1.03542e-05
0.000306341
-1.01657e-05
0.000308839
-9.97048e-06
0.000311287
-9.76863e-06
0.000313683
-9.56012e-06
0.000316025
-9.34497e-06
0.000318312
-9.12319e-06
0.000320541
-8.89481e-06
0.000322712
-8.6599e-06
0.000324822
-8.41849e-06
0.00032687
-8.17067e-06
0.000328855
-7.91651e-06
0.000330774
-7.65612e-06
0.000332627
-7.38961e-06
0.000334411
-7.1171e-06
0.000336126
-6.83873e-06
0.000337769
-6.55466e-06
0.00033934
-6.26504e-06
0.000340837
-5.97005e-06
0.000342259
-5.66989e-06
0.000343604
-5.36476e-06
0.000344872
-5.05487e-06
0.000346061
-4.74046e-06
0.00034717
-4.42175e-06
0.000348198
-4.099e-06
0.000349144
-3.77248e-06
0.000350008
-3.44244e-06
0.000350787
-3.10917e-06
0.000351483
-2.77296e-06
0.000352094
-2.4341e-06
0.000352619
-2.0929e-06
0.000353058
-1.74966e-06
0.00035341
-1.4047e-06
0.000353675
-1.05834e-06
0.000353854
-7.10896e-07
0.000353945
-3.62697e-07
0.000353948
-1.40681e-08
0.000353865
3.34662e-07
0.000353693
6.83166e-07
0.000353435
1.03112e-06
0.000353089
1.37819e-06
0.000352657
1.72407e-06
0.000352138
2.06843e-06
0.000351534
2.41095e-06
0.000350844
2.75134e-06
0.000350069
3.08929e-06
0.00034921
3.42451e-06
0.000348268
3.7567e-06
0.000347244
4.0856e-06
0.000346138
4.41093e-06
0.000344951
4.73242e-06
0.000343685
5.04985e-06
0.00034234
5.36296e-06
0.000340918
5.67152e-06
0.00033942
5.97533e-06
0.000337847
6.27418e-06
0.0003362
6.56789e-06
0.000334481
6.85626e-06
0.000332692
7.13914e-06
0.000330832
7.41638e-06
0.000328905
7.68783e-06
0.000326912
7.95337e-06
0.000324853
8.21289e-06
0.000322731
8.46628e-06
0.000320547
8.71346e-06
0.000318303
8.95436e-06
0.000316
9.1889e-06
0.00031364
9.41705e-06
0.000311225
9.63876e-06
0.000308756
9.85401e-06
0.000306235
1.00628e-05
0.000303663
1.02651e-05
0.000301042
1.04609e-05
0.000298374
1.06502e-05
0.00029566
1.08332e-05
0.000292902
1.10097e-05
0.000290101
1.11799e-05
0.00028726
1.13438e-05
0.000284379
1.15014e-05
0.000281461
1.16529e-05
0.000278506
1.17983e-05
0.000275516
1.19377e-05
0.000272493
1.20711e-05
0.000269439
1.21988e-05
0.000266354
1.23207e-05
0.00026324
1.2437e-05
0.000260098
1.25478e-05
0.00025693
1.26532e-05
0.000253737
1.27534e-05
0.000250521
1.28484e-05
0.000247282
1.29384e-05
0.000244022
1.30234e-05
0.000240742
1.31037e-05
0.000237443
1.31794e-05
0.000234127
1.32505e-05
0.000230794
1.33173e-05
0.000227445
1.33798e-05
0.000224082
1.34382e-05
0.000220705
1.34926e-05
0.000217316
1.35432e-05
0.000213916
1.35901e-05
0.000210504
1.36334e-05
0.000207083
1.36733e-05
0.000203653
1.37099e-05
0.000200214
1.37433e-05
0.000196768
1.37736e-05
0.000193316
1.3801e-05
0.000189857
1.38257e-05
0.000186393
1.38476e-05
0.000182924
1.3867e-05
0.000179451
1.3884e-05
0.000175974
1.38987e-05
0.000172495
1.39113e-05
0.000169013
1.39217e-05
0.000165528
1.39302e-05
0.000162043
1.39369e-05
0.000158556
1.39418e-05
0.000155068
1.39451e-05
0.00015158
1.39468e-05
0.000148092
1.39471e-05
0.000144605
1.39461e-05
0.000141118
1.39439e-05
0.000137632
1.39405e-05
0.000134147
1.39361e-05
0.000130663
1.39307e-05
0.000127182
1.39245e-05
0.000123702
1.39174e-05
0.000120224
1.39096e-05
0.000116748
1.39012e-05
0.000113274
1.38923e-05
0.000109803
1.38828e-05
0.000106335
1.3873e-05
0.000102869
1.38628e-05
9.94054e-05
1.38523e-05
9.59449e-05
1.38415e-05
9.24871e-05
1.38307e-05
8.90321e-05
1.38197e-05
8.558e-05
1.38087e-05
8.21306e-05
1.37976e-05
7.8684e-05
1.37866e-05
7.52402e-05
1.37758e-05
7.17991e-05
1.37651e-05
6.83607e-05
1.37545e-05
6.49249e-05
1.37443e-05
6.14916e-05
1.37342e-05
5.80608e-05
1.37245e-05
5.46323e-05
1.37152e-05
5.12061e-05
1.37062e-05
4.77821e-05
1.36977e-05
4.43601e-05
1.36895e-05
4.094e-05
1.36819e-05
3.75218e-05
1.36747e-05
3.41052e-05
1.36681e-05
3.06902e-05
1.3662e-05
2.72766e-05
1.36565e-05
2.38642e-05
1.36515e-05
2.0453e-05
1.36471e-05
1.70427e-05
1.36433e-05
1.36332e-05
1.36402e-05
1.02243e-05
1.36376e-05
6.81594e-06
1.36357e-05
3.40789e-06
1.36344e-05
1.36338e-05
3.25039e-06
-1.62573e-05
6.50096e-06
-1.62582e-05
9.75188e-06
-1.62599e-05
1.30034e-05
-1.62626e-05
1.62555e-05
-1.62661e-05
1.95086e-05
-1.62705e-05
2.27628e-05
-1.62758e-05
2.60181e-05
-1.6282e-05
2.92749e-05
-1.62889e-05
3.25333e-05
-1.62967e-05
3.57934e-05
-1.63053e-05
3.90555e-05
-1.63147e-05
4.23195e-05
-1.63249e-05
4.55858e-05
-1.63358e-05
4.88545e-05
-1.63475e-05
5.21257e-05
-1.63598e-05
5.53995e-05
-1.63729e-05
5.8676e-05
-1.63866e-05
6.19555e-05
-1.64008e-05
6.5238e-05
-1.64157e-05
6.85236e-05
-1.64311e-05
7.18125e-05
-1.64471e-05
7.51047e-05
-1.64634e-05
7.84003e-05
-1.64802e-05
8.16994e-05
-1.64974e-05
8.5002e-05
-1.65149e-05
8.83083e-05
-1.65327e-05
9.16183e-05
-1.65507e-05
9.49319e-05
-1.65689e-05
9.82493e-05
-1.65872e-05
0.00010157
-1.66056e-05
0.000104895
-1.66239e-05
0.000108224
-1.66421e-05
0.000111556
-1.66602e-05
0.000114892
-1.66781e-05
0.000118232
-1.66957e-05
0.000121575
-1.67129e-05
0.000124922
-1.67296e-05
0.000128272
-1.67458e-05
0.000131625
-1.67613e-05
0.000134981
-1.67762e-05
0.00013834
-1.67902e-05
0.000141702
-1.68032e-05
0.000145066
-1.68153e-05
0.000148433
-1.68262e-05
0.000151802
-1.68359e-05
0.000155172
-1.68442e-05
0.000158545
-1.6851e-05
0.000161918
-1.68562e-05
0.000165292
-1.68598e-05
0.000168667
-1.68614e-05
0.000172042
-1.68611e-05
0.000175416
-1.68587e-05
0.00017879
-1.68541e-05
0.000182162
-1.6847e-05
0.000185533
-1.68374e-05
0.000188901
-1.68251e-05
0.000192267
-1.681e-05
0.000195629
-1.67918e-05
0.000198987
-1.67705e-05
0.000202341
-1.67459e-05
0.000205688
-1.67178e-05
0.00020903
-1.6686e-05
0.000212365
-1.66505e-05
0.000215692
-1.66109e-05
0.000219011
-1.65672e-05
0.00022232
-1.65191e-05
0.000225619
-1.64665e-05
0.000228907
-1.64093e-05
0.000232182
-1.63471e-05
0.000235445
-1.62799e-05
0.000238693
-1.62075e-05
0.000241925
-1.61296e-05
0.000245141
-1.60462e-05
0.00024834
-1.5957e-05
0.00025152
-1.58619e-05
0.000254679
-1.57606e-05
0.000257818
-1.56531e-05
0.000260933
-1.55391e-05
0.000264025
-1.54184e-05
0.000267092
-1.5291e-05
0.000270132
-1.51567e-05
0.000273143
-1.50153e-05
0.000276125
-1.48666e-05
0.000279077
-1.47106e-05
0.000281995
-1.4547e-05
0.00028488
-1.43758e-05
0.000287728
-1.41969e-05
0.00029054
-1.40101e-05
0.000293313
-1.38154e-05
0.000296045
-1.36126e-05
0.000298735
-1.34017e-05
0.000301381
-1.31825e-05
0.000303982
-1.29552e-05
0.000306536
-1.27195e-05
0.000309041
-1.24756e-05
0.000311496
-1.22233e-05
0.000313898
-1.19626e-05
0.000316247
-1.16936e-05
0.00031854
-1.14163e-05
0.000320776
-1.11308e-05
0.000322953
-1.0837e-05
0.00032507
-1.05351e-05
0.000327124
-1.02252e-05
0.000329115
-9.90731e-06
0.000331041
-9.58162e-06
0.000332899
-9.24824e-06
0.00033469
-8.90735e-06
0.00033641
-8.55911e-06
0.000338059
-8.2037e-06
0.000339635
-7.84135e-06
0.000341137
-7.47226e-06
0.000342564
-7.09668e-06
0.000343914
-6.71486e-06
0.000345187
-6.32707e-06
0.00034638
-5.9336e-06
0.000347493
-5.53475e-06
0.000348525
-5.13083e-06
0.000349474
-4.72217e-06
0.000350341
-4.3091e-06
0.000351124
-3.89197e-06
0.000351822
-3.47116e-06
0.000352435
-3.04702e-06
0.000352962
-2.61994e-06
0.000353402
-2.1903e-06
0.000353756
-1.75851e-06
0.000354023
-1.32495e-06
0.000354202
-8.90037e-07
0.000354293
-4.54176e-07
0.000354297
-1.77777e-08
0.000354213
4.18748e-07
0.000354041
8.54989e-07
0.000353782
1.29054e-06
0.000353435
1.72498e-06
0.000353001
2.15792e-06
0.000352481
2.58895e-06
0.000351874
3.01769e-06
0.000351182
3.44374e-06
0.000350404
3.86673e-06
0.000349542
4.28629e-06
0.000348597
4.70205e-06
0.000347569
5.11367e-06
0.000346459
5.52082e-06
0.000345268
5.92316e-06
0.000343998
6.32038e-06
0.000342649
6.71219e-06
0.000341222
7.0983e-06
0.000339719
7.47845e-06
0.00033814
7.85237e-06
0.000336489
8.21983e-06
0.000334764
8.58061e-06
0.000332969
8.93449e-06
0.000331104
9.2813e-06
0.000329171
9.62085e-06
0.000327171
9.95299e-06
0.000325107
1.02776e-05
0.000322978
1.05945e-05
0.000320788
1.09036e-05
0.000318538
1.12048e-05
0.000316229
1.14981e-05
0.000313862
1.17834e-05
0.00031144
1.20606e-05
0.000308965
1.23296e-05
0.000306437
1.25906e-05
0.000303859
1.28435e-05
0.000301231
1.30882e-05
0.000298557
1.33248e-05
0.000295836
1.35534e-05
0.000293072
1.3774e-05
0.000290265
1.39866e-05
0.000287418
1.41914e-05
0.000284531
1.43883e-05
0.000281606
1.45775e-05
0.000278645
1.47591e-05
0.00027565
1.49332e-05
0.000272621