/*--------------------------------*- C++ -*----------------------------------*\
| =========                 |                                                 |
| \\      /  F ield         | OpenFOAM: The Open Source CFD Toolbox           |
|  \\    /   O peration     | Version:  v2012                                 |
|   \\  /    A nd           | Website:  www.openfoam.com                      |
|    \\/     M anipulation  |                                                 |
\*---------------------------------------------------------------------------*/
FoamFile
{
    version     2.0;
    format      ascii;
    class       volScalarField;
    location    "17.75";
    object      Psi_z;
}
// * * * * * * * * * * * * * * * * * * * * * * * * * * * * * * * * * * * * * //

dimensions      [0 2 -1 0 0 0 0];


internalField   nonuniform List<scalar> 
65536
(
8.12923e-06
2.43881e-05
4.06484e-05
5.69109e-05
7.31764e-05
8.94458e-05
0.00010572
0.000122
0.000138286
0.00015458
0.000170882
0.000187193
0.000203513
0.000219844
0.000236186
0.00025254
0.000268907
0.000285286
0.00030168
0.000318088
0.000334511
0.000350949
0.000367404
0.000383875
0.000400362
0.000416867
0.000433389
0.000449929
0.000466487
0.000483062
0.000499656
0.000516268
0.000532897
0.000549545
0.00056621
0.000582893
0.000599593
0.000616309
0.000633041
0.000649789
0.000666552
0.000683328
0.000700118
0.00071692
0.000733733
0.000750555
0.000767387
0.000784225
0.000801069
0.000817917
0.000834766
0.000851616
0.000868464
0.000885308
0.000902146
0.000918974
0.000935791
0.000952594
0.000969379
0.000986145
0.00100289
0.0010196
0.00103628
0.00105293
0.00106955
0.00108611
0.00110264
0.00111911
0.00113552
0.00115188
0.00116817
0.00118439
0.00120053
0.0012166
0.00123257
0.00124846
0.00126424
0.00127992
0.00129549
0.00131094
0.00132626
0.00134146
0.00135651
0.00137142
0.00138618
0.00140078
0.00141521
0.00142946
0.00144354
0.00145742
0.0014711
0.00148457
0.00149783
0.00151087
0.00152367
0.00153624
0.00154855
0.00156061
0.00157241
0.00158393
0.00159518
0.00160613
0.00161678
0.00162714
0.00163717
0.00164689
0.00165628
0.00166533
0.00167403
0.00168239
0.00169039
0.00169802
0.00170529
0.00171217
0.00171867
0.00172479
0.0017305
0.00173582
0.00174074
0.00174524
0.00174933
0.001753
0.00175625
0.00175908
0.00176148
0.00176345
0.001765
0.0017661
0.00176678
0.00176702
0.00176682
0.0017662
0.00176513
0.00176364
0.00176171
0.00175935
0.00175656
0.00175335
0.00174971
0.00174565
0.00174118
0.0017363
0.001731
0.00172531
0.00171921
0.00171272
0.00170585
0.00169859
0.00169095
0.00168295
0.00167458
0.00166585
0.00165678
0.00164736
0.00163761
0.00162753
0.00161713
0.00160641
0.0015954
0.00158408
0.00157248
0.00156059
0.00154843
0.00153601
0.00152332
0.00151039
0.00149722
0.00148382
0.00147019
0.00145634
0.00144229
0.00142803
0.00141358
0.00139894
0.00138413
0.00136914
0.00135399
0.00133869
0.00132323
0.00130764
0.0012919
0.00127604
0.00126006
0.00124396
0.00122775
0.00121143
0.00119502
0.00117852
0.00116192
0.00114525
0.0011285
0.00111168
0.0010948
0.00107785
0.00106085
0.00104379
0.00102668
0.00100953
0.000992345
0.000975119
0.00095786
0.000940572
0.000923257
0.000905919
0.00088856
0.000871185
0.000853794
0.000836391
0.000818978
0.000801558
0.000784132
0.000766703
0.000749272
0.000731841
0.000714412
0.000696986
0.000679565
0.000662149
0.00064474
0.00062734
0.000609948
0.000592566
0.000575195
0.000557835
0.000540487
0.000523151
0.000505828
0.000488518
0.000471221
0.000453938
0.000436668
0.000419412
0.00040217
0.000384941
0.000367725
0.000350522
0.000333333
0.000316156
0.000298991
0.000281838
0.000264696
0.000247565
0.000230444
0.000213333
0.000196232
0.000179139
0.000162053
0.000144975
0.000127904
0.000110838
9.37774e-05
7.6721e-05
5.96682e-05
4.26182e-05
2.55701e-05
8.52324e-06
2.43873e-05
7.31632e-05
0.000121943
0.00017073
0.000219525
0.000268333
0.000317155
0.000365994
0.000414852
0.000463733
0.000512638
0.000561569
0.00061053
0.000659522
0.000708547
0.000757609
0.000806708
0.000855846
0.000905026
0.00095425
0.00100352
0.00105283
0.0011022
0.00115161
0.00120107
0.00125058
0.00130015
0.00134977
0.00139944
0.00144917
0.00149895
0.00154879
0.00159868
0.00164862
0.00169861
0.00174866
0.00179876
0.00184891
0.00189911
0.00194935
0.00199964
0.00204997
0.00210034
0.00215075
0.00220119
0.00225166
0.00230215
0.00235267
0.0024032
0.00245375
0.0025043
0.00255485
0.0026054
0.00265593
0.00270645
0.00275694
0.00280739
0.0028578
0.00290816
0.00295846
0.00300869
0.00305884
0.00310889
0.00315884
0.00320868
0.00325839
0.00330797
0.00335739
0.00340664
0.00345571
0.00350459
0.00355325
0.00360169
0.00364988
0.00369782
0.00374547
0.00379283
0.00383988
0.00388659
0.00393294
0.00397893
0.00402452
0.00406969
0.00411443
0.00415871
0.00420251
0.00424581
0.00428858
0.0043308
0.00437245
0.0044135
0.00445393
0.00449372
0.00453284
0.00457126
0.00460896
0.00464592
0.00468211
0.00471751
0.00475209
0.00478582
0.00481869
0.00485066
0.00488172
0.00491184
0.004941
0.00496917
0.00499633
0.00502246
0.00504753
0.00507154
0.00509444
0.00511624
0.0051369
0.00515641
0.00517476
0.00519191
0.00520787
0.00522262
0.00523613
0.00524841
0.00525943
0.00526919
0.00527767
0.00528488
0.0052908
0.00529542
0.00529875
0.00530077
0.00530149
0.00530091
0.00529902
0.00529583
0.00529134
0.00528555
0.00527847
0.00527011
0.00526046
0.00524955
0.00523738
0.00522396
0.0052093
0.00519341
0.00517632
0.00515803
0.00513856
0.00511792
0.00509614
0.00507323
0.00504921
0.00502409
0.00499791
0.00497068
0.00494242
0.00491316
0.00488291
0.0048517
0.00481955
0.00478648
0.00475253
0.00471771
0.00468204
0.00464555
0.00460827
0.00457022
0.00453142
0.0044919
0.00445168
0.00441078
0.00436923
0.00432706
0.00428428
0.00424092
0.00419701
0.00415256
0.00410759
0.00406214
0.00401622
0.00396984
0.00392304
0.00387584
0.00382825
0.00378029
0.00373198
0.00368334
0.00363439
0.00358515
0.00353563
0.00348585
0.00343583
0.00338558
0.00333511
0.00328445
0.0032336
0.00318259
0.00313141
0.00308009
0.00302864
0.00297707
0.00292539
0.00287361
0.00282174
0.00276979
0.00271777
0.0026657
0.00261357
0.00256139
0.00250918
0.00245694
0.00240468
0.0023524
0.00230011
0.00224781
0.00219552
0.00214323
0.00209095
0.00203869
0.00198644
0.00193421
0.00188201
0.00182983
0.00177769
0.00172557
0.00167349
0.00162145
0.00156944
0.00151747
0.00146554
0.00141365
0.0013618
0.00130999
0.00125822
0.00120649
0.00115481
0.00110316
0.00105155
0.000999985
0.000948454
0.00089696
0.000845501
0.000794076
0.000742684
0.000691322
0.000639991
0.000588686
0.000537407
0.000486152
0.000434919
0.000383705
0.000332509
0.000281328
0.000230159
0.000179002
0.000127852
7.67091e-05
2.55693e-05
4.0644e-05
0.000121934
0.000203231
0.000284539
0.000365863
0.000447206
0.000528573
0.000609968
0.000691396
0.000772861
0.000854366
0.000935916
0.00101751
0.00109917
0.00118087
0.00126264
0.00134447
0.00142636
0.00150833
0.00159037
0.00167248
0.00175467
0.00183694
0.00191929
0.00200173
0.00208425
0.00216686
0.00224956
0.00233235
0.00241522
0.00249819
0.00258125
0.0026644
0.00274764
0.00283097
0.00291438
0.00299788
0.00308147
0.00316513
0.00324887
0.00333269
0.00341658
0.00350053
0.00358455
0.00366862
0.00375274
0.0038369
0.0039211
0.00400533
0.00408958
0.00417384
0.0042581
0.00434235
0.00442658
0.00451078
0.00459493
0.00467903
0.00476306
0.004847
0.00493085
0.00501457
0.00509816
0.0051816
0.00526487
0.00534794
0.00543081
0.00551345
0.00559583
0.00567793
0.00575974
0.00584121
0.00592234
0.00600309
0.00608343
0.00616334
0.00624278
0.00632174
0.00640016
0.00647804
0.00655532
0.00663198
0.00670799
0.0067833
0.00685789
0.00693172
0.00700474
0.00707693
0.00714824
0.00721864
0.00728808
0.00735653
0.00742394
0.00749028
0.0075555
0.00761956
0.00768243
0.00774406
0.0078044
0.00786342
0.00792108
0.00797733
0.00803214
0.00808546
0.00813725
0.00818747
0.00823609
0.00828307
0.00832836
0.00837193
0.00841375
0.00845378
0.00849198
0.00852833
0.00856278
0.00859532
0.00862591
0.00865453
0.00868114
0.00870573
0.00872827
0.00874874
0.00876712
0.00878339
0.00879754
0.00880956
0.00881943
0.00882714
0.00883269
0.00883607
0.00883727
0.0088363
0.00883315
0.00882783
0.00882034
0.00881069
0.00879888
0.00878493
0.00876885
0.00875065
0.00873035
0.00870797
0.00868352
0.00865704
0.00862853
0.00859802
0.00856555
0.00853114
0.00849482
0.00845661
0.00841655
0.00837468
0.00833102
0.00828561
0.00823849
0.00818969
0.00813925
0.0080872
0.0080336
0.00797846
0.00792185
0.00786378
0.00780431
0.00774347
0.00768131
0.00761786
0.00755317
0.00748727
0.00742021
0.00735203
0.00728275
0.00721244
0.00714112
0.00706883
0.00699561
0.0069215
0.00684653
0.00677075
0.00669419
0.00661688
0.00653886
0.00646016
0.00638082
0.00630086
0.00622033
0.00613925
0.00605765
0.00597556
0.00589301
0.00581002
0.00572663
0.00564287
0.00555874
0.00547429
0.00538953
0.00530449
0.00521918
0.00513364
0.00504787
0.00496191
0.00487576
0.00478945
0.00470299
0.0046164
0.00452969
0.00444289
0.00435599
0.00426903
0.004182
0.00409493
0.00400782
0.00392068
0.00383352
0.00374636
0.00365919
0.00357204
0.0034849
0.00339779
0.00331071
0.00322366
0.00313665
0.00304969
0.00296278
0.00287592
0.00278911
0.00270237
0.00261569
0.00252907
0.00244252
0.00235604
0.00226962
0.00218327
0.00209699
0.00201078
0.00192464
0.00183856
0.00175255
0.0016666
0.00158072
0.00149489
0.00140913
0.00132342
0.00123777
0.00115217
0.00106662
0.000981115
0.000895653
0.00081023
0.000724843
0.000639489
0.000554164
0.000468865
0.000383587
0.000298327
0.000213081
0.000127845
4.26142e-05
5.68986e-05
0.000170699
0.000284508
0.000398333
0.00051218
0.000626054
0.000739962
0.00085391
0.000967903
0.00108195
0.00119605
0.00131021
0.00142445
0.00153875
0.00165314
0.00176761
0.00188216
0.00199681
0.00211156
0.00222641
0.00234136
0.00245642
0.0025716
0.00268689
0.0028023
0.00291783
0.00303348
0.00314926
0.00326516
0.00338119
0.00349734
0.00361362
0.00373003
0.00384657
0.00396323
0.00408002
0.00419692
0.00431394
0.00443108
0.00454832
0.00466567
0.00478312
0.00490066
0.00501829
0.005136
0.00525377
0.00537161
0.0054895
0.00560743
0.00572539
0.00584337
0.00596135
0.00607931
0.00619725
0.00631515
0.00643299
0.00655075
0.00666841
0.00678595
0.00690335
0.00702059
0.00713764
0.00725448
0.00737108
0.00748742
0.00760346
0.00771918
0.00783455
0.00794953
0.00806409
0.00817819
0.0082918
0.00840489
0.00851741
0.00862932
0.00874059
0.00885116
0.00896101
0.00907008
0.00917832
0.00928569
0.00939215
0.00949764
0.00960212
0.00970553
0.00980781
0.00990893
0.0100088
0.0101074
0.0102047
0.0103006
0.010395
0.010488
0.0105793
0.0106691
0.0107571
0.0108435
0.010928
0.0110107
0.0110915
0.0111703
0.0112471
0.0113218
0.0113943
0.0114647
0.0115328
0.0115986
0.0116621
0.0117232
0.0117818
0.0118378
0.0118914
0.0119423
0.0119906
0.0120362
0.012079
0.0121191
0.0121564
0.0121909
0.0122225
0.0122512
0.0122769
0.0122997
0.0123195
0.0123364
0.0123502
0.012361
0.0123688
0.0123735
0.0123752
0.0123739
0.0123695
0.012362
0.0123515
0.012338
0.0123214
0.0123019
0.0122794
0.0122539
0.0122254
0.012194
0.0121598
0.0121227
0.0120827
0.01204
0.0119945
0.0119463
0.0118954
0.0118418
0.0117857
0.011727
0.0116659
0.0116023
0.0115362
0.0114679
0.0113972
0.0113243
0.0112492
0.0111719
0.0110926
0.0110113
0.0109279
0.0108427
0.0107556
0.0106668
0.0105761
0.0104838
0.0103899
0.0102944
0.0101973
0.0100988
0.00999892
0.00989766
0.0097951
0.00969129
0.00958629
0.00948015
0.00937291
0.00926463
0.00915535
0.00904513
0.008934
0.00882202
0.00870923
0.00859567
0.00848139
0.00836643
0.00825082
0.0081346
0.00801782
0.00790051
0.0077827
0.00766443
0.00754574
0.00742665
0.00730719
0.0071874
0.0070673
0.00694692
0.00682629
0.00670543
0.00658437
0.00646312
0.00634171
0.00622016
0.00609849
0.00597672
0.00585487
0.00573295
0.00561098
0.00548897
0.00536694
0.0052449
0.00512286
0.00500084
0.00487883
0.00475687
0.00463494
0.00451307
0.00439125
0.00426949
0.00414781
0.0040262
0.00390468
0.00378323
0.00366188
0.00354061
0.00341944
0.00329836
0.00317737
0.00305648
0.00293569
0.002815
0.0026944
0.00257389
0.00245347
0.00233315
0.00221292
0.00209277
0.0019727
0.00185272
0.00173281
0.00161297
0.0014932
0.0013735
0.00125386
0.00113427
0.00101473
0.000895244
0.000775795
0.000656381
0.000536997
0.000417639
0.000298299
0.000178974
5.96571e-05
7.315e-05
0.000219454
0.00036577
0.000512106
0.00065847
0.000804869
0.000951312
0.00109781
0.00124436
0.00139098
0.00153767
0.00168444
0.00183131
0.00197826
0.00212532
0.00227249
0.00241976
0.00256716
0.00271469
0.00286234
0.00301014
0.00315807
0.00330614
0.00345437
0.00360275
0.00375128
0.00389997
0.00404883
0.00419784
0.00434702
0.00449636
0.00464587
0.00479554
0.00494538
0.00509537
0.00524553
0.00539584
0.0055463
0.00569691
0.00584766
0.00599855
0.00614956
0.0063007
0.00645195
0.0066033
0.00675475
0.00690627
0.00705786
0.00720951
0.00736119
0.0075129
0.00766461
0.00781631
0.00796797
0.00811958
0.00827112
0.00842255
0.00857387
0.00872503
0.00887601
0.00902679
0.00917733
0.00932759
0.00947756
0.00962718
0.00977643
0.00992527
0.0100737
0.0102215
0.0103689
0.0105157
0.0106618
0.0108073
0.010952
0.011096
0.0112391
0.0113813
0.0115226
0.0116629
0.0118022
0.0119403
0.0120773
0.012213
0.0123474
0.0124805
0.0126121
0.0127422
0.0128707
0.0129976
0.0131227
0.0132461
0.0133676
0.0134872
0.0136048
0.0137202
0.0138336
0.0139447
0.0140535
0.0141599
0.0142638
0.0143653
0.0144641
0.0145602
0.0146536
0.0147442
0.0148319
0.0149166
0.0149983
0.0150768
0.0151523
0.0152245
0.0152934
0.0153589
0.0154211
0.0154798
0.0155349
0.0155866
0.0156346
0.0156789
0.0157196
0.0157565
0.0157897
0.015819
0.0158445
0.0158662
0.015884
0.015898
0.015908
0.0159141
0.0159162
0.0159145
0.0159088
0.0158992
0.0158857
0.0158683
0.015847
0.0158218
0.0157928
0.01576
0.0157234
0.015683
0.0156389
0.0155911
0.0155397
0.0154847
0.0154262
0.0153641
0.0152986
0.0152297
0.0151574
0.0150819
0.0150032
0.0149213
0.0148363
0.0147483
0.0146574
0.0145635
0.0144669
0.0143675
0.0142654
0.0141607
0.0140535
0.0139438
0.0138318
0.0137174
0.0136008
0.013482
0.0133611
0.0132382
0.0131133
0.0129866
0.0128581
0.0127278
0.0125958
0.0124623
0.0123272
0.0121906
0.0120527
0.0119134
0.0117728
0.011631
0.011488
0.011344
0.0111989
0.0110528
0.0109058
0.0107579
0.0106092
0.0104597
0.0103095
0.0101586
0.0100071
0.00985501
0.00970235
0.00954918
0.00939554
0.00924147
0.00908701
0.0089322
0.00877706
0.00862162
0.00846593
0.00831
0.00815387
0.00799756
0.0078411
0.0076845
0.00752781
0.00737103
0.00721418
0.00705729
0.00690037
0.00674344
0.00658651
0.00642961
0.00627273
0.0061159
0.00595912
0.00580241
0.00564578
0.00548923
0.00533277
0.00517641
0.00502015
0.00486401
0.00470797
0.00455206
0.00439626
0.00424058
0.00408503
0.0039296
0.0037743
0.00361912
0.00346406
0.00330913
0.00315431
0.00299961
0.00284503
0.00269056
0.0025362
0.00238193
0.00222777
0.0020737
0.00191972
0.00176583
0.00161201
0.00145826
0.00130458
0.00115096
0.000997389
0.000843866
0.000690382
0.00053693
0.000383504
0.000230095
7.66972e-05
8.93974e-05
0.000268197
0.000447012
0.00062585
0.000804724
0.00098364
0.00116261
0.00134164
0.00152075
0.00169993
0.00187921
0.00205859
0.00223807
0.00241767
0.00259739
0.00277725
0.00295725
0.00313739
0.00331769
0.00349814
0.00367877
0.00385957
0.00404054
0.0042217
0.00440304
0.00458458
0.00476631
0.00494824
0.00513036
0.00531269
0.00549522
0.00567795
0.00586089
0.00604402
0.00622735
0.00641088
0.0065946
0.00677851
0.0069626
0.00714686
0.0073313
0.00751589
0.00770063
0.00788551
0.00807052
0.00825564
0.00844086
0.00862617
0.00881154
0.00899696
0.00918242
0.00936788
0.00955333
0.00973874
0.00992409
0.0101093
0.0102945
0.0104795
0.0106643
0.0108489
0.0110332
0.0112173
0.011401
0.0115844
0.0117673
0.0119498
0.0121318
0.0123133
0.0124941
0.0126743
0.0128538
0.0130325
0.0132103
0.0133874
0.0135634
0.0137385
0.0139124
0.0140852
0.0142569
0.0144272
0.0145961
0.0147637
0.0149297
0.0150941
0.0152568
0.0154178
0.015577
0.0157342
0.0158894
0.0160425
0.0161935
0.0163421
0.0164884
0.0166323
0.0167736
0.0169123
0.0170482
0.0171813
0.0173115
0.0174387
0.0175629
0.0176838
0.0178014
0.0179157
0.0180266
0.0181339
0.0182376
0.0183375
0.0184337
0.018526
0.0186144
0.0186987
0.0187789
0.018855
0.0189269
0.0189944
0.0190576
0.0191163
0.0191706
0.0192204
0.0192656
0.0193062
0.0193421
0.0193734
0.0193999
0.0194217
0.0194388
0.019451
0.0194585
0.0194612
0.019459
0.0194521
0.0194403
0.0194238
0.0194025
0.0193764
0.0193456
0.0193101
0.0192699
0.0192251
0.0191757
0.0191217
0.0190633
0.0190003
0.018933
0.0188613
0.0187853
0.0187052
0.0186208
0.0185324
0.01844
0.0183436
0.0182434
0.0181394
0.0180318
0.0179205
0.0178056
0.0176873
0.0175657
0.0174408
0.0173127
0.0171815
0.0170473
0.0169102
0.0167703
0.0166276
0.0164822
0.0163344
0.016184
0.0160313
0.0158762
0.015719
0.0155596
0.0153982
0.0152348
0.0150696
0.0149025
0.0147338
0.0145634
0.0143914
0.014218
0.0140432
0.013867
0.0136896
0.0135109
0.0133311
0.0131503
0.0129684
0.0127856
0.0126019
0.0124174
0.0122321
0.0120461
0.0118595
0.0116722
0.0114843
0.0112959
0.0111071
0.0109178
0.0107281
0.0105381
0.0103477
0.0101571
0.0099662
0.00977511
0.00958383
0.00939239
0.00920083
0.00900917
0.00881743
0.00862563
0.00843381
0.00824197
0.00805015
0.00785834
0.00766658
0.00747488
0.00728324
0.00709169
0.00690023
0.00670888
0.00651763
0.00632651
0.00613552
0.00594467
0.00575395
0.00556338
0.00537296
0.00518268
0.00499256
0.00480259
0.00461278
0.00442312
0.00423361
0.00404425
0.00385503
0.00366596
0.00347704
0.00328824
0.00309958
0.00291105
0.00272264
0.00253435
0.00234616
0.00215808
0.00197009
0.00178219
0.00159437
0.00140662
0.00121894
0.00103131
0.000843735
0.000656197
0.00046869
0.000281205
9.37337e-05
0.00010564
0.000316926
0.000528229
0.000739561
0.000950934
0.00116236
0.00137385
0.00158541
0.00179706
0.0020088
0.00222065
0.00243262
0.00264472
0.00285695
0.00306934
0.00328188
0.00349458
0.00370746
0.00392052
0.00413378
0.00434723
0.00456088
0.00477475
0.00498884
0.00520314
0.00541768
0.00563244
0.00584745
0.00606268
0.00627816
0.00649388
0.00670983
0.00692603
0.00714247
0.00735914
0.00757605
0.00779318
0.00801054
0.00822811
0.0084459
0.00866388
0.00888206
0.00910042
0.00931894
0.00953762
0.00975643
0.00997537
0.0101944
0.0104135
0.0106327
0.0108519
0.0110712
0.0112904
0.0115096
0.0117287
0.0119477
0.0121666
0.0123853
0.0126038
0.012822
0.01304
0.0132576
0.0134748
0.0136916
0.0139079
0.0141237
0.0143389
0.0145535
0.0147673
0.0149804
0.0151926
0.015404
0.0156143
0.0158237
0.0160319
0.0162389
0.0164447
0.0166491
0.0168521
0.0170535
0.0172534
0.0174515
0.0176479
0.0178424
0.0180349
0.0182254
0.0184137
0.0185997
0.0187833
0.0189645
0.0191431
0.019319
0.0194921
0.0196623
0.0198296
0.0199937
0.0201545
0.0203121
0.0204662
0.0206167
0.0207636
0.0209068
0.021046
0.0211813
0.0213125
0.0214395
0.0215622
0.0216806
0.0217944
0.0219037
0.0220083
0.0221081
0.0222031
0.0222932
0.0223782
0.0224582
0.022533
0.0226026
0.0226669
0.0227258
0.0227793
0.0228274
0.02287
0.022907
0.0229384
0.0229642
0.0229844
0.0229989
0.0230077
0.0230109
0.0230084
0.0230001
0.0229862
0.0229667
0.0229414
0.0229106
0.0228741
0.0228321
0.0227845
0.0227315
0.0226729
0.0226091
0.0225398
0.0224653
0.0223856
0.0223007
0.0222108
0.0221159
0.0220161
0.0219114
0.021802
0.021688
0.0215693
0.0214463
0.0213188
0.0211871
0.0210511
0.0209112
0.0207672
0.0206194
0.0204678
0.0203125
0.0201537
0.0199915
0.0198259
0.019657
0.0194851
0.0193101
0.0191322
0.0189515
0.018768
0.018582
0.0183934
0.0182025
0.0180092
0.0178137
0.0176161
0.0174165
0.017215
0.0170116
0.0168065
0.0165997
0.0163913
0.0161814
0.0159701
0.0157575
0.0155436
0.0153286
0.0151124
0.0148952
0.014677
0.0144579
0.0142379
0.0140172
0.0137957
0.0135736
0.0133509
0.0131276
0.0129038
0.0126795
0.0124548
0.0122298
0.0120044
0.0117788
0.0115528
0.0113267
0.0111004
0.010874
0.0106474
0.0104207
0.010194
0.00996726
0.0097405
0.00951376
0.00928704
0.00906038
0.00883378
0.00860728
0.00838087
0.00815458
0.00792841
0.00770238
0.00747649
0.00725076
0.00702519
0.00679979
0.00657456
0.00634951
0.00612463
0.00589994
0.00567543
0.00545111
0.00522697
0.005003
0.00477922
0.00455561
0.00433217
0.0041089
0.0038858
0.00366285
0.00344005
0.0032174
0.00299488
0.00277249
0.00255023
0.00232808
0.00210603
0.00188408
0.00166222
0.00144043
0.00121871
0.000997049
0.000775433
0.000553855
0.000332302
0.000110766
0.000121877
0.000365637
0.000609417
0.000853231
0.00109709
0.00134101
0.00158501
0.00182909
0.00207327
0.00231756
0.00256197
0.00280653
0.00305123
0.00329609
0.00354112
0.00378633
0.00403174
0.00427735
0.00452317
0.00476921
0.00501548
0.00526199
0.00550875
0.00575575
0.00600302
0.00625055
0.00649835
0.00674642
0.00699476
0.00724339
0.00749229
0.00774147
0.00799094
0.00824068
0.00849069
0.00874098
0.00899153
0.00924235
0.00949342
0.00974473
0.00999628
0.0102481
0.0105
0.0107522
0.0110046
0.0112571
0.0115098
0.0117626
0.0120154
0.0122684
0.0125214
0.0127745
0.0130275
0.0132805
0.0135334
0.0137862
0.0140388
0.0142913
0.0145435
0.0147954
0.015047
0.0152982
0.015549
0.0157993
0.016049
0.0162982
0.0165466
0.0167944
0.0170413
0.0172873
0.0175324
0.0177764
0.0180193
0.0182611
0.0185015
0.0187406
0.0189783
0.0192143
0.0194488
0.0196815
0.0199123
0.0201412
0.020368
0.0205927
0.0208151
0.0210351
0.0212527
0.0214676
0.0216797
0.0218891
0.0220954
0.0222987
0.0224987
0.0226954
0.0228886
0.0230783
0.0232642
0.0234463
0.0236244
0.0237984
0.0239682
0.0241336
0.0242946
0.0244509
0.0246026
0.0247494
0.0248913
0.0250281
0.0251597
0.0252861
0.025407
0.0255224
0.0256323
0.0257364
0.0258347
0.0259272
0.0260137
0.0260941
0.0261685
0.0262366
0.0262985
0.0263541
0.0264033
0.0264461
0.0264825
0.0265123
0.0265356
0.0265524
0.0265627
0.0265663
0.0265634
0.0265539
0.0265378
0.0265152
0.026486
0.0264503
0.0264082
0.0263596
0.0263046
0.0262432
0.0261756
0.0261017
0.0260217
0.0259355
0.0258434
0.0257453
0.0256413
0.0255316
0.0254162
0.0252952
0.0251687
0.0250368
0.0248997
0.0247574
0.0246101
0.0244578
0.0243007
0.0241389
0.0239726
0.0238017
0.0236265
0.0234471
0.0232636
0.0230761
0.0228847
0.0226896
0.0224909
0.0222887
0.0220832
0.0218744
0.0216625
0.0214475
0.0212297
0.0210091
0.0207858
0.02056
0.0203318
0.0201012
0.0198684
0.0196335
0.0193966
0.0191577
0.0189171
0.0186747
0.0184307
0.0181851
0.0179381
0.0176898
0.0174402
0.0171894
0.0169374
0.0166844
0.0164305
0.0161756
0.01592
0.0156635
0.0154064
0.0151486
0.0148902
0.0146313
0.014372
0.0141122
0.013852
0.0135916
0.0133308
0.0130698
0.0128086
0.0125472
0.0122857
0.0120241
0.0117624
0.0115007
0.011239
0.0109773
0.0107157
0.0104541
0.0101926
0.00993121
0.00966994
0.0094088
0.0091478
0.00888697
0.00862631
0.00836583
0.00810554
0.00784545
0.00758556
0.00732588
0.0070664
0.00680714
0.00654809
0.00628926
0.00603063
0.00577222
0.00551401
0.00525601
0.00499821
0.00474061
0.00448319
0.00422596
0.0039689
0.00371201
0.00345528
0.0031987
0.00294227
0.00268596
0.00242978
0.00217371
0.00191774
0.00166186
0.00140605
0.00115032
0.000894633
0.000638993
0.000383384
0.000127792
0.000138107
0.000414327
0.000690571
0.000966853
0.00124319
0.00151959
0.00179608
0.00207267
0.00234937
0.00262619
0.00290316
0.00318028
0.00345758
0.00373505
0.00401272
0.0042906
0.0045687
0.00484702
0.00512559
0.00540441
0.0056835
0.00596285
0.00624249
0.00652241
0.00680263
0.00708315
0.00736397
0.00764511
0.00792656
0.00820833
0.00849042
0.00877283
0.00905556
0.00933861
0.00962197
0.00990565
0.0101896
0.0104739
0.0107585
0.0110433
0.0113285
0.0116138
0.0118995
0.0121853
0.0124714
0.0127576
0.013044
0.0133306
0.0136173
0.0139041
0.0141909
0.0144778
0.0147646
0.0150515
0.0153382
0.0156248
0.0159113
0.0161975
0.0164835
0.0167692
0.0170545
0.0173393
0.0176237
0.0179076
0.0181908
0.0184733
0.0187551
0.0190361
0.0193161
0.0195952
0.0198732
0.02015
0.0204256
0.0206998
0.0209726
0.0212438
0.0215134
0.0217812
0.0220472
0.0223113
0.0225732
0.0228329
0.0230903
0.0233453
0.0235977
0.0238474
0.0240943
0.0243382
0.024579
0.0248166
0.0250508
0.0252816
0.0255086
0.0257319
0.0259513
0.0261666
0.0263777
0.0265844
0.0267867
0.0269842
0.027177
0.0273649
0.0275477
0.0277253
0.0278975
0.0280643
0.0282254
0.0283808
0.0285303
0.0286738
0.0288112
0.0289423
0.0290671
0.0291854
0.0292971
0.0294021
0.0295004
0.0295918
0.0296763
0.0297537
0.029824
0.0298872
0.0299431
0.0299917
0.030033
0.0300669
0.0300935
0.0301125
0.0301242
0.0301283
0.030125
0.0301142
0.030096
0.0300702
0.0300371
0.0299966
0.0299487
0.0298935
0.029831
0.0297613
0.0296845
0.0296005
0.0295096
0.0294118
0.0293071
0.0291956
0.0290775
0.0289529
0.0288218
0.0286844
0.0285407
0.028391
0.0282353
0.0280737
0.0279064
0.0277334
0.0275551
0.0273713
0.0271824
0.0269884
0.0267895
0.0265858
0.0263774
0.0261645
0.0259473
0.0257258
0.0255003
0.0252707
0.0250374
0.0248004
0.0245599
0.0243159
0.0240687
0.0238184
0.023565
0.0233087
0.0230497
0.0227881
0.0225239
0.0222574
0.0219886
0.0217176
0.0214445
0.0211696
0.0208928
0.0206142
0.020334
0.0200523
0.0197692
0.0194847
0.0191989
0.018912
0.018624
0.0183349
0.018045
0.0177541
0.0174625
0.0171702
0.0168772
0.0165836
0.0162895
0.015995
0.0157
0.0154046
0.015109
0.014813
0.0145169
0.0142206
0.0139241
0.0136275
0.0133309
0.0130342
0.0127375
0.0124409
0.0121443
0.0118477
0.0115513
0.011255
0.0109589
0.0106629
0.010367
0.0100714
0.00977595
0.00948072
0.0091857
0.00889091
0.00859636
0.00830204
0.00800796
0.00771413
0.00742054
0.00712719
0.00683409
0.00654123
0.00624861
0.00595622
0.00566406
0.00537212
0.00508041
0.0047889
0.00449759
0.00420647
0.00391554
0.00362477
0.00333417
0.00304373
0.00275342
0.00246323
0.00217317
0.0018832
0.00159333
0.00130353
0.00101379
0.0007241
0.000434446
0.000144813
0.000154329
0.000462995
0.000771687
0.00108042
0.00138922
0.00169809
0.00200706
0.00231613
0.00262534
0.00293469
0.00324419
0.00355387
0.00386374
0.00417382
0.00448412
0.00479464
0.00510542
0.00541646
0.00572776
0.00603936
0.00635124
0.00666344
0.00697594
0.00728877
0.00760194
0.00791544
0.00822929
0.00854349
0.00885805
0.00917296
0.00948823
0.00980387
0.0101199
0.0104362
0.0107529
0.01107
0.0113874
0.0117052
0.0120233
0.0123417
0.0126604
0.0129794
0.0132987
0.0136182
0.013938
0.014258
0.0145782
0.0148985
0.015219
0.0155397
0.0158603
0.0161811
0.0165018
0.0168225
0.0171431
0.0174636
0.0177839
0.018104
0.0184238
0.0187433
0.0190623
0.0193809
0.019699
0.0200164
0.0203332
0.0206492
0.0209644
0.0212787
0.021592
0.0219041
0.0222151
0.0225248
0.0228331
0.0231399
0.0234451
0.0237486
0.0240503
0.02435
0.0246477
0.0249431
0.0252363
0.025527
0.0258151
0.0261004
0.026383
0.0266625
0.0269388
0.0272119
0.0274815
0.0277475
0.0280098
0.0282681
0.0285224
0.0287724
0.0290181
0.0292592
0.0294956
0.0297271
0.0299536
0.0301749
0.0303909
0.0306013
0.0308061
0.031005
0.031198
0.0313848
0.0315653
0.0317394
0.0319069
0.0320677
0.0322216
0.0323686
0.0325084
0.0326409
0.0327661
0.0328838
0.032994
0.0330964
0.0331911
0.0332779
0.0333567
0.0334275
0.0334901
0.0335446
0.0335909
0.033629
0.0336587
0.0336801
0.0336931
0.0336978
0.0336941
0.033682
0.0336615
0.0336327
0.0335956
0.0335502
0.0334965
0.0334346
0.0333646
0.0332865
0.0332004
0.0331064
0.0330045
0.0328948
0.0327775
0.0326526
0.0325203
0.0323807
0.0322338
0.0320798
0.0319189
0.0317511
0.0315767
0.0313957
0.0312082
0.0310145
0.0308147
0.0306089
0.0303973
0.03018
0.0299572
0.0297291
0.0294957
0.0292574
0.0290141
0.0287661
0.0285136
0.0282566
0.0279953
0.02773
0.0274607
0.0271876
0.0269109
0.0266306
0.026347
0.0260602
0.0257703
0.0254775
0.0251819
0.0248836
0.0245827
0.0242795
0.023974
0.0236663
0.0233566
0.0230449
0.0227315
0.0224163
0.0220995
0.0217813
0.0214616
0.0211406
0.0208184
0.0204951
0.0201708
0.0198455
0.0195194
0.0191924
0.0188648
0.0185365
0.0182076
0.0178782
0.0175483
0.017218
0.0168874
0.0165565
0.0162254
0.0158941
0.0155626
0.015231
0.0148994
0.0145677
0.014236
0.0139044
0.0135728
0.0132413
0.0129099
0.0125787
0.0122476
0.0119168
0.0115861
0.0112556
0.0109254
0.0105954
0.0102656
0.00993614
0.00960692
0.00927796
0.00894927
0.00862087
0.00829274
0.00796488
0.0076373
0.00731
0.00698296
0.00665619
0.00632968
0.00600342
0.00567741
0.00535163
0.00502608
0.00470074
0.00437562
0.00405068
0.00372593
0.00340135
0.00307693
0.00275265
0.0024285
0.00210446
0.00178053
0.00145668
0.0011329
0.000809173
0.000485488
0.000161827
0.000170542
0.000511637
0.00085276
0.00119393
0.00153517
0.00187649
0.00221792
0.00255947
0.00290117
0.00324302
0.00358505
0.00392727
0.00426971
0.00461237
0.00495528
0.00529844
0.00564189
0.00598562
0.00632965
0.006674
0.00701868
0.0073637
0.00770907
0.0080548
0.00840091
0.00874739
0.00909426
0.00944151
0.00978917
0.0101372
0.0104857
0.0108345
0.0111838
0.0115335
0.0118836
0.012234
0.0125849
0.0129361
0.0132877
0.0136397
0.013992
0.0143446
0.0146976
0.0150508
0.0154044
0.0157581
0.0161121
0.0164663
0.0168207
0.0171752
0.0175298
0.0178844
0.018239
0.0185936
0.0189482
0.0193026
0.0196568
0.0200108
0.0203645
0.0207178
0.0210707
0.021423
0.0217748
0.022126
0.0224764
0.022826
0.0231746
0.0235223
0.0238689
0.0242143
0.0245583
0.024901
0.0252421
0.0255817
0.0259194
0.0262553
0.0265891
0.0269208
0.0272503
0.0275773
0.0279018
0.0282236
0.0285425
0.0288584
0.0291712
0.0294807
0.0297867
0.030089
0.0303876
0.0306822
0.0309726
0.0312587
0.0315403
0.0318173
0.0320894
0.0323564
0.0326183
0.0328748
0.0331257
0.0333709
0.0336102
0.0338433
0.0340702
0.0342907
0.0345045
0.0347115
0.0349116
0.0351046
0.0352902
0.0354684
0.035639
0.0358019
0.0359569
0.0361039
0.0362426
0.0363732
0.0364952
0.0366088
0.0367138
0.03681
0.0368974
0.0369759
0.0370454
0.0371058
0.0371571
0.0371993
0.0372323
0.037256
0.0372705
0.0372757
0.0372715
0.0372581
0.0372355
0.0372035
0.0371624
0.037112
0.0370525
0.0369839
0.0369063
0.0368197
0.0367243
0.03662
0.0365071
0.0363856
0.0362555
0.0361171
0.0359704
0.0358157
0.0356529
0.0354822
0.0353039
0.035118
0.0349246
0.034724
0.0345163
0.0343017
0.0340803
0.0338523
0.0336179
0.0333771
0.0331303
0.0328776
0.0326191
0.0323551
0.0320856
0.031811
0.0315313
0.0312467
0.0309574
0.0306635
0.0303654
0.030063
0.0297566
0.0294463
0.0291323
0.0288148
0.0284938
0.0281697
0.0278425
0.0275123
0.0271793
0.0268437
0.0265056
0.0261651
0.0258223
0.0254775
0.0251306
0.0247819
0.0244314
0.0240792
0.0237256
0.0233705
0.023014
0.0226564
0.0222976
0.0219378
0.021577
0.0212154
0.020853
0.0204899
0.0201261
0.0197618
0.019397
0.0190318
0.0186662
0.0183003
0.0179341