/*--------------------------------*- C++ -*----------------------------------*\
| =========                 |                                                 |
| \\      /  F ield         | OpenFOAM: The Open Source CFD Toolbox           |
|  \\    /   O peration     | Version:  v2012                                 |
|   \\  /    A nd           | Website:  www.openfoam.com                      |
|    \\/     M anipulation  |                                                 |
\*---------------------------------------------------------------------------*/
FoamFile
{
    version     2.0;
    format      ascii;
    class       volScalarField;
    location    "17.75";
    object      W;
}
// * * * * * * * * * * * * * * * * * * * * * * * * * * * * * * * * * * * * * //

dimensions      [0 0 -1 0 0 0 0];


internalField   nonuniform List<scalar> 
65536
(
1.07378e-13
1.07452e-13
1.0903e-13
1.12109e-13
1.16708e-13
1.22865e-13
1.30638e-13
1.40105e-13
1.51363e-13
1.6453e-13
1.79746e-13
1.9717e-13
2.16989e-13
2.39413e-13
2.64678e-13
2.9305e-13
3.24826e-13
3.60337e-13
3.99947e-13
4.44062e-13
4.93129e-13
5.47641e-13
6.08138e-13
6.75217e-13
7.49529e-13
8.31788e-13
9.22776e-13
1.02335e-12
1.13443e-12
1.25704e-12
1.39228e-12
1.54135e-12
1.70555e-12
1.88631e-12
2.08514e-12
2.30371e-12
2.54381e-12
2.80737e-12
3.09646e-12
3.41335e-12
3.76042e-12
4.14028e-12
4.55569e-12
5.00962e-12
5.50523e-12
6.04592e-12
6.63527e-12
7.27713e-12
7.97554e-12
8.73481e-12
9.5595e-12
1.04544e-11
1.14245e-11
1.24752e-11
1.3612e-11
1.48408e-11
1.61675e-11
1.75984e-11
1.91401e-11
2.07994e-11
2.25831e-11
2.44983e-11
2.65524e-11
2.87527e-11
3.11068e-11
3.36222e-11
3.63065e-11
3.91672e-11
4.2212e-11
4.5448e-11
4.88825e-11
5.25225e-11
5.63745e-11
6.04448e-11
6.4739e-11
6.92624e-11
7.40194e-11
7.90139e-11
8.42488e-11
8.97261e-11
9.5447e-11
1.01411e-10
1.07618e-10
1.14064e-10
1.20745e-10
1.27657e-10
1.34792e-10
1.42142e-10
1.49697e-10
1.57444e-10
1.6537e-10
1.7346e-10
1.81696e-10
1.9006e-10
1.98531e-10
2.07086e-10
2.15702e-10
2.24353e-10
2.33013e-10
2.41652e-10
2.50243e-10
2.58754e-10
2.67154e-10
2.75412e-10
2.83496e-10
2.91373e-10
2.99011e-10
3.06379e-10
3.13445e-10
3.2018e-10
3.26552e-10
3.32536e-10
3.38104e-10
3.43232e-10
3.47898e-10
3.52081e-10
3.55765e-10
3.58934e-10
3.61575e-10
3.6368e-10
3.65242e-10
3.66257e-10
3.66726e-10
3.6665e-10
3.66035e-10
3.64889e-10
3.63224e-10
3.61053e-10
3.58392e-10
3.55259e-10
3.51675e-10
3.47662e-10
3.43244e-10
3.38446e-10
3.33295e-10
3.27816e-10
3.22039e-10
3.1599e-10
3.09698e-10
3.03191e-10
2.96497e-10
2.89641e-10
2.82651e-10
2.75552e-10
2.68367e-10
2.6112e-10
2.53832e-10
2.46524e-10
2.39214e-10
2.31919e-10
2.24654e-10
2.17435e-10
2.10273e-10
2.03179e-10
1.96164e-10
1.89234e-10
1.82397e-10
1.75659e-10
1.69023e-10
1.62494e-10
1.56072e-10
1.49761e-10
1.43561e-10
1.37471e-10
1.31493e-10
1.25626e-10
1.19868e-10
1.1422e-10
1.0868e-10
1.03249e-10
9.79257e-11
9.27114e-11
8.76067e-11
8.2613e-11
7.77325e-11
7.2968e-11
6.83229e-11
6.38016e-11
5.94087e-11
5.51498e-11
5.10307e-11
4.70578e-11
4.32376e-11
3.95767e-11
3.60817e-11
3.27587e-11
2.96136e-11
2.66513e-11
2.38762e-11
2.12913e-11
1.88986e-11
1.6699e-11
1.46916e-11
1.28743e-11
1.12435e-11
9.79417e-12
8.51984e-12
7.41273e-12
6.46382e-12
5.66301e-12
4.99925e-12
4.4607e-12
4.03486e-12
3.70881e-12
3.46932e-12
3.30311e-12
3.19697e-12
3.13803e-12
3.11392e-12
3.11299e-12
3.12449e-12
3.13881e-12
3.14757e-12
3.14384e-12
3.12218e-12
3.07874e-12
3.01121e-12
2.91881e-12
2.80217e-12
2.66314e-12
2.50461e-12
2.33025e-12
2.14426e-12
1.95111e-12
1.75528e-12
1.56104e-12
1.37225e-12
1.19223e-12
1.02367e-12
8.68558e-13
7.28183e-13
6.03196e-13
4.93656e-13
3.99128e-13
3.18784e-13
2.51509e-13
1.96001e-13
1.50865e-13
1.14689e-13
8.61066e-14
6.38421e-14
4.67425e-14
3.37932e-14
2.41232e-14
1.70023e-14
1.18312e-14
8.12784e-15
5.51246e-15
3.69118e-15
2.44093e-15
1.59547e-15
1.03332e-15
6.67601e-16
4.37921e-16
3.04061e-16
2.41441e-16
1.58994e-13
1.59114e-13
1.61473e-13
1.66067e-13
1.72924e-13
1.82102e-13
1.9369e-13
2.07804e-13
2.24591e-13
2.44228e-13
2.66926e-13
2.92928e-13
3.22513e-13
3.55997e-13
3.9374e-13
4.36142e-13
4.83651e-13
5.36766e-13
5.96042e-13
6.6209e-13
7.35588e-13
8.17282e-13
9.07992e-13
1.00862e-12
1.12016e-12
1.24369e-12
1.3804e-12
1.53158e-12
1.69865e-12
1.88316e-12
2.08678e-12
2.31134e-12
2.55883e-12
2.8314e-12
3.13138e-12
3.4613e-12
3.8239e-12
4.22211e-12
4.65912e-12
5.13835e-12
5.66348e-12
6.23845e-12
6.8675e-12
7.55515e-12
8.30624e-12
9.12593e-12
1.00197e-11
1.09934e-11
1.20532e-11
1.32057e-11
1.44578e-11
1.58168e-11
1.72903e-11
1.88864e-11
2.06135e-11
2.24805e-11
2.44963e-11
2.66706e-11
2.90131e-11
3.15339e-11
3.42434e-11
3.71522e-11
4.0271e-11
4.3611e-11
4.7183e-11
5.09982e-11
5.50676e-11
5.9402e-11
6.40123e-11
6.89089e-11
7.41017e-11
7.96004e-11
8.54137e-11
9.155e-11
9.80165e-11
1.04819e-10
1.11964e-10
1.19455e-10
1.27293e-10
1.3548e-10
1.44016e-10
1.52897e-10
1.62119e-10
1.71676e-10
1.81557e-10
1.91752e-10
2.02247e-10
2.13025e-10
2.24068e-10
2.35354e-10
2.46858e-10
2.58554e-10
2.70411e-10
2.82399e-10
2.94481e-10
3.06622e-10
3.18781e-10
3.30917e-10
3.42987e-10
3.54947e-10
3.66749e-10
3.78348e-10
3.89696e-10
4.00743e-10
4.11443e-10
4.21748e-10
4.31611e-10
4.40987e-10
4.49832e-10
4.58103e-10
4.65763e-10
4.72774e-10
4.79103e-10
4.8472e-10
4.89599e-10
4.93719e-10
4.97061e-10
4.99612e-10
5.01365e-10
5.02314e-10
5.0246e-10
5.01808e-10
5.00369e-10
4.98157e-10
4.9519e-10
4.9149e-10
4.87083e-10
4.82e-10
4.76274e-10
4.69939e-10
4.63033e-10
4.55597e-10
4.47672e-10
4.39301e-10
4.30526e-10
4.21393e-10
4.11943e-10
4.02221e-10
3.9227e-10
3.8213e-10
3.71842e-10
3.61444e-10
3.50973e-10
3.40463e-10
3.29948e-10
3.19457e-10
3.09018e-10
2.98657e-10
2.88396e-10
2.78255e-10
2.68253e-10
2.58406e-10
2.48725e-10
2.39223e-10
2.29909e-10
2.20788e-10
2.11868e-10
2.0315e-10
1.94636e-10
1.86328e-10
1.78225e-10
1.70325e-10
1.62626e-10
1.55124e-10
1.47816e-10
1.40698e-10
1.33766e-10
1.27016e-10
1.20443e-10
1.14044e-10
1.07816e-10
1.01757e-10
9.58629e-11
9.01337e-11
8.45685e-11
7.91675e-11
7.39317e-11
6.88629e-11
6.39637e-11
5.92374e-11
5.46878e-11
5.03193e-11
4.61365e-11
4.21443e-11
3.83473e-11
3.47502e-11
3.1357e-11
2.81712e-11
2.51954e-11
2.24314e-11
1.98795e-11
1.7539e-11
1.54079e-11
1.34825e-11
1.17579e-11
1.02278e-11
8.88444e-12
7.71884e-12
6.72084e-12
5.87927e-12
5.18205e-12
4.61638e-12
4.16889e-12
3.82581e-12
3.57319e-12
3.39702e-12
3.28351e-12
3.21921e-12
3.19126e-12
3.18759e-12
3.19708e-12
3.20979e-12
3.21711e-12
3.2119e-12
3.18857e-12
3.14315e-12
3.0733e-12
2.97819e-12
2.85848e-12
2.71603e-12
2.55381e-12
2.37555e-12
2.18553e-12
1.98831e-12
1.78844e-12
1.59028e-12
1.39774e-12
1.21421e-12
1.0424e-12
8.84327e-13
7.41311e-13
6.13997e-13
5.02438e-13
4.06184e-13
3.24386e-13
2.55903e-13
1.99407e-13
1.53473e-13
1.16661e-13
8.75799e-14
6.49293e-14
4.7535e-14
3.43637e-14
2.45288e-14
1.72871e-14
1.20286e-14
8.26295e-15
5.60378e-15
3.75213e-15
2.48111e-15
1.62165e-15
1.05022e-15
6.78491e-16
4.45043e-16
3.08992e-16
2.45355e-16
2.81348e-13
2.81584e-13
2.85808e-13
2.94014e-13
3.06252e-13
3.2263e-13
3.43305e-13
3.68489e-13
3.98447e-13
4.33503e-13
4.74034e-13
5.20481e-13
5.73349e-13
6.33212e-13
7.00718e-13
7.76593e-13
8.61652e-13
9.56798e-13
1.06304e-12
1.18148e-12
1.31336e-12
1.46003e-12
1.62298e-12
1.80386e-12
2.00446e-12
2.22677e-12
2.47295e-12
2.74537e-12
3.0466e-12
3.37946e-12
3.74704e-12
4.15267e-12
4.59998e-12
5.09291e-12
5.63575e-12
6.23312e-12
6.89002e-12
7.61188e-12
8.4045e-12
9.27418e-12
1.02277e-11
1.12722e-11
1.24155e-11
1.3666e-11
1.50325e-11
1.65244e-11
1.81519e-11
1.99257e-11
2.18571e-11
2.39581e-11
2.62413e-11
2.87203e-11
3.14088e-11
3.43217e-11
3.74743e-11
4.08826e-11
4.45632e-11
4.85333e-11
5.28106e-11
5.74134e-11
6.23603e-11
6.76704e-11
7.33629e-11
7.94573e-11
8.59732e-11
9.29299e-11
1.00347e-10
1.08243e-10
1.16636e-10
1.25544e-10
1.34984e-10
1.44971e-10
1.55519e-10
1.66642e-10
1.7835e-10
1.9065e-10
2.03551e-10
2.17055e-10
2.31163e-10
2.45873e-10
2.61178e-10
2.77069e-10
2.93533e-10
3.10552e-10
3.28102e-10
3.46159e-10
3.6469e-10
3.83658e-10
4.03023e-10
4.22739e-10
4.42754e-10
4.63013e-10
4.83454e-10
5.04013e-10
5.24621e-10
5.45202e-10
5.65682e-10
5.85979e-10
6.0601e-10
6.25691e-10
6.44936e-10
6.63656e-10
6.81764e-10
6.99174e-10
7.158e-10
7.31559e-10
7.4637e-10
7.60156e-10
7.72845e-10
7.84371e-10
7.94671e-10
8.0369e-10
8.11383e-10
8.17708e-10
8.22633e-10
8.26136e-10
8.28201e-10
8.28823e-10
8.28004e-10
8.25758e-10
8.22103e-10
8.1707e-10
8.10696e-10
8.03025e-10
7.9411e-10
7.84009e-10
7.72787e-10
7.60513e-10
7.47262e-10
7.33111e-10
7.18141e-10
7.02434e-10
6.86075e-10
6.69146e-10
6.51732e-10
6.33915e-10
6.15777e-10
5.97395e-10
5.78846e-10
5.60201e-10
5.41529e-10
5.22893e-10
5.04354e-10
4.85966e-10
4.67779e-10
4.49839e-10
4.32185e-10
4.14853e-10
3.97874e-10
3.81274e-10
3.65073e-10
3.4929e-10
3.33937e-10
3.19023e-10
3.04555e-10
2.90536e-10
2.76965e-10
2.63839e-10
2.51154e-10
2.38903e-10
2.27077e-10
2.15667e-10
2.04661e-10
1.94047e-10
1.83814e-10
1.73949e-10
1.6444e-10
1.55273e-10
1.46437e-10
1.3792e-10
1.29711e-10
1.21802e-10
1.14181e-10
1.06843e-10
9.97786e-11
9.29835e-11
8.64527e-11
8.01827e-11
7.41712e-11
6.84166e-11
6.29183e-11
5.76765e-11
5.26917e-11
4.79649e-11
4.34971e-11
3.92893e-11
3.5342e-11
3.16556e-11
2.82292e-11
2.50614e-11
2.21495e-11
1.94898e-11
1.7077e-11
1.49049e-11
1.29656e-11
1.12499e-11
9.74744e-12
8.44671e-12
7.33507e-12
6.39894e-12
5.62401e-12
4.99535e-12
4.49759e-12
4.11512e-12
3.83223e-12
3.63335e-12
3.50322e-12
3.42708e-12
3.3909e-12
3.38156e-12
3.38705e-12
3.39666e-12
3.40114e-12
3.39284e-12
3.3658e-12
3.31578e-12
3.24026e-12
3.1384e-12
3.01083e-12
2.85956e-12
2.68767e-12
2.49912e-12
2.2984e-12
2.09028e-12
1.87956e-12
1.67078e-12
1.46807e-12
1.27494e-12
1.09425e-12
9.28077e-13
7.77796e-13
6.44065e-13
5.26925e-13
4.25889e-13
3.40054e-13
2.68211e-13
2.08958e-13
1.60795e-13
1.22207e-13
9.17281e-14
6.79942e-14
4.97714e-14
3.59753e-14
2.56758e-14
1.80931e-14
1.25879e-14
8.64615e-15
5.86301e-15
3.9253e-15
2.59536e-15
1.69616e-15
1.09837e-15
7.09533e-16
4.65362e-16
3.23072e-16
2.56521e-16
5.21382e-13
5.21868e-13
5.2979e-13
5.45138e-13
5.68011e-13
5.98609e-13
6.37234e-13
6.84288e-13
7.40272e-13
8.05796e-13
8.81577e-13
9.68448e-13
1.06737e-12
1.17942e-12
1.30583e-12
1.44798e-12
1.60741e-12
1.78584e-12
1.98517e-12
2.20752e-12
2.45523e-12
2.73087e-12
3.03729e-12
3.3776e-12
3.75526e-12
4.17401e-12
4.638e-12
5.15173e-12
5.72014e-12
6.34862e-12
7.04304e-12
7.80979e-12
8.65582e-12
9.5887e-12
1.06166e-11
1.17484e-11
1.29937e-11
1.43629e-11
1.58672e-11
1.75185e-11
1.93299e-11
2.13154e-11
2.34897e-11
2.5869e-11
2.84701e-11
3.13115e-11
3.44123e-11
3.77932e-11
4.14759e-11
4.54836e-11
4.98405e-11
5.45722e-11
5.97057e-11
6.52689e-11
7.12914e-11
7.78036e-11
8.48372e-11
9.24251e-11
1.00601e-10
1.09399e-10
1.18856e-10
1.29006e-10
1.39886e-10
1.51532e-10
1.63982e-10
1.7727e-10
1.91433e-10
2.06505e-10
2.2252e-10
2.39508e-10
2.57499e-10
2.76521e-10
2.96597e-10
3.17747e-10
3.39989e-10
3.63334e-10
3.8779e-10
4.13357e-10
4.40032e-10
4.67803e-10
4.96651e-10
5.26551e-10
5.57469e-10
5.89362e-10
6.22179e-10
6.5586e-10
6.90334e-10
7.25522e-10
7.61336e-10
7.97677e-10
8.34436e-10
8.71498e-10
9.08735e-10
9.46014e-10
9.83193e-10
1.02012e-09
1.05665e-09
1.09262e-09
1.12785e-09
1.1622e-09
1.19548e-09
1.22754e-09
1.2582e-09
1.2873e-09
1.31469e-09
1.34022e-09
1.36373e-09
1.38509e-09
1.40418e-09
1.42089e-09
1.43512e-09
1.44678e-09
1.45581e-09
1.46215e-09
1.46577e-09
1.46665e-09
1.4648e-09
1.46022e-09
1.45296e-09
1.44307e-09
1.43062e-09
1.41569e-09
1.39839e-09
1.37882e-09
1.35712e-09
1.33341e-09
1.30786e-09
1.2806e-09
1.25181e-09
1.22164e-09
1.19026e-09
1.15784e-09
1.12455e-09
1.09056e-09
1.05602e-09
1.02109e-09
9.85926e-10
9.5067e-10
9.1546e-10
8.80421e-10
8.45672e-10
8.11323e-10
7.77471e-10
7.44205e-10
7.11604e-10
6.79735e-10
6.48657e-10
6.18418e-10
5.89058e-10
5.60608e-10
5.3309e-10
5.0652e-10
4.80904e-10
4.56245e-10
4.32538e-10
4.09774e-10
3.87938e-10
3.67013e-10
3.46977e-10
3.27806e-10
3.09474e-10
2.91953e-10
2.75213e-10
2.59226e-10
2.43961e-10
2.29387e-10
2.15474e-10
2.02194e-10
1.89519e-10
1.77421e-10
1.65875e-10
1.54857e-10
1.44344e-10
1.34317e-10
1.24755e-10
1.15643e-10
1.06965e-10
9.87079e-11
9.086e-11
8.34113e-11
7.63529e-11
6.96772e-11
6.33776e-11
5.74482e-11
5.18835e-11
4.66782e-11
4.1827e-11
3.73242e-11
3.31637e-11
2.93386e-11
2.58409e-11
2.26619e-11
1.97914e-11
1.72182e-11
1.49298e-11
1.29125e-11
1.11517e-11
9.63147e-12
8.33521e-12
7.24551e-12
6.34439e-12
5.61347e-12
5.03416e-12
4.58779e-12
4.25589e-12
4.02028e-12
3.86335e-12
3.76819e-12
3.71887e-12
3.70055e-12
3.69976e-12
3.70454e-12
3.70459e-12
3.69142e-12
3.65845e-12
3.601e-12
3.5163e-12
3.4034e-12
3.26298e-12
3.09721e-12
2.90944e-12
2.70393e-12
2.48553e-12
2.25942e-12
2.03075e-12
1.80441e-12
1.58485e-12
1.37583e-12
1.1804e-12
1.00079e-12
8.38455e-13
6.94071e-13
5.67661e-13
4.58678e-13
3.6613e-13
2.887e-13
2.24863e-13
1.72991e-13
1.31445e-13
9.86397e-14
7.31016e-14
5.3499e-14
3.86621e-14
2.75881e-14
1.94372e-14
1.35207e-14
9.2854e-15
6.29552e-15
4.21424e-15
2.78601e-15
1.82052e-15
1.17875e-15
7.6136e-16
4.99291e-16
3.46586e-16
2.75169e-16
9.67021e-13
9.68015e-13
9.82887e-13
1.01162e-12
1.0544e-12
1.11162e-12
1.18385e-12
1.27184e-12
1.37655e-12
1.49912e-12
1.64093e-12
1.80354e-12
1.98877e-12
2.19868e-12
2.43559e-12
2.70212e-12
3.00119e-12
3.33605e-12
3.71034e-12
4.12806e-12
4.59367e-12
5.11206e-12
5.68864e-12
6.32938e-12
7.0408e-12
7.83011e-12
8.70517e-12
9.6746e-12
1.07478e-11
1.19352e-11
1.32478e-11
1.4698e-11
1.62991e-11
1.80656e-11
2.00131e-11
2.21586e-11
2.45207e-11
2.71191e-11
2.99754e-11
3.31127e-11
3.6556e-11
4.03319e-11
4.44692e-11
4.89986e-11
5.39529e-11
5.93671e-11
6.52785e-11
7.17266e-11
7.87533e-11
8.6403e-11
9.47224e-11
1.03761e-10
1.1357e-10
1.24203e-10
1.35718e-10
1.48172e-10
1.61626e-10
1.76143e-10
1.91787e-10
2.08624e-10
2.26722e-10
2.46149e-10
2.66972e-10
2.89262e-10
3.13086e-10
3.38513e-10
3.65607e-10
3.94433e-10
4.25051e-10
4.57519e-10
4.9189e-10
5.28211e-10
5.66522e-10
6.06857e-10
6.49242e-10
6.93693e-10
7.40215e-10
7.88802e-10
8.39437e-10
8.92087e-10
9.46705e-10
1.00323e-09
1.06159e-09
1.12168e-09
1.18339e-09
1.24659e-09
1.31114e-09
1.37686e-09
1.44357e-09
1.51106e-09
1.57911e-09
1.64748e-09
1.71592e-09
1.78415e-09
1.85189e-09
1.91884e-09
1.9847e-09
2.04914e-09
2.11186e-09
2.17252e-09
2.23081e-09
2.2864e-09
2.33898e-09
2.38825e-09
2.43392e-09
2.4757e-09
2.51335e-09
2.54662e-09
2.5753e-09
2.59922e-09
2.6182e-09
2.63213e-09
2.64092e-09
2.6445e-09
2.64286e-09
2.636e-09
2.62398e-09
2.60688e-09
2.58481e-09
2.55792e-09
2.52639e-09
2.49044e-09
2.45029e-09
2.40622e-09
2.35848e-09
2.3074e-09
2.25326e-09
2.19641e-09
2.13716e-09
2.07585e-09
2.01281e-09
1.94838e-09
1.88288e-09
1.81662e-09
1.74991e-09
1.68305e-09
1.6163e-09
1.54993e-09
1.48418e-09
1.41927e-09
1.35539e-09
1.29274e-09
1.23146e-09
1.1717e-09
1.11357e-09
1.05717e-09
1.00259e-09
9.4987e-10
8.99068e-10
8.50209e-10
8.03305e-10
7.58358e-10
7.15354e-10
6.74271e-10
6.35078e-10
5.97734e-10
5.62193e-10
5.28401e-10
4.96302e-10
4.65834e-10
4.36936e-10
4.09542e-10
3.83586e-10
3.59002e-10
3.35726e-10
3.13693e-10
2.9284e-10
2.73107e-10
2.54436e-10
2.3677e-10
2.20058e-10
2.04249e-10
1.89297e-10
1.7516e-10
1.61796e-10
1.4917e-10
1.37248e-10
1.25999e-10
1.15397e-10
1.05415e-10
9.60305e-11
8.72239e-11
7.8976e-11
7.12693e-11
6.40877e-11
5.74156e-11
5.12381e-11
4.55403e-11
4.03072e-11
3.55235e-11
3.11731e-11
2.72392e-11
2.37044e-11
2.05498e-11
1.77562e-11
1.5303e-11
1.31689e-11
1.1332e-11
9.76953e-12
8.45856e-12
7.37575e-12
6.49768e-12
5.80104e-12
5.26281e-12
4.86043e-12
4.57202e-12
4.37655e-12
4.25405e-12
4.18582e-12
4.1546e-12
4.1448e-12
4.14264e-12
4.13636e-12
4.11626e-12
4.07486e-12
4.00686e-12
3.90911e-12
3.78052e-12
3.62184e-12
3.43546e-12
3.22509e-12
2.99545e-12
2.75192e-12
2.5002e-12
2.24598e-12
1.99467e-12
1.75111e-12
1.51947e-12
1.30307e-12
1.10434e-12
9.24833e-13
7.6528e-13
6.2567e-13
5.05373e-13
4.03267e-13
3.1788e-13
2.47514e-13
1.90361e-13
1.44602e-13
1.08484e-13
8.03765e-14
5.88086e-14
4.24892e-14
3.03122e-14
2.13519e-14
1.48496e-14
1.0196e-14
6.91166e-15
4.62589e-15
3.05764e-15
1.9977e-15
1.29327e-15
8.35205e-16
5.47636e-16
3.80091e-16
3.01741e-16
1.77294e-12
1.77494e-12
1.80254e-12
1.85573e-12
1.93486e-12
2.04066e-12
2.17419e-12
2.33688e-12
2.53051e-12
2.75725e-12
3.01962e-12
3.32059e-12
3.66354e-12
4.05234e-12
4.49135e-12
4.98546e-12
5.54016e-12
6.16156e-12
6.85646e-12
7.63241e-12
8.49776e-12
9.46175e-12
1.05345e-11
1.17274e-11
1.30525e-11
1.45236e-11
1.61554e-11
1.79643e-11
1.9968e-11
2.2186e-11
2.46396e-11
2.73519e-11
3.03481e-11
3.36556e-11
3.73042e-11
4.13262e-11
4.57565e-11
5.06329e-11
5.59963e-11
6.18906e-11
6.83631e-11
7.54648e-11
8.32503e-11
9.1778e-11
1.0111e-10
1.11314e-10
1.2246e-10
1.34623e-10
1.47884e-10
1.62327e-10
1.78041e-10
1.95119e-10
2.13661e-10
2.33768e-10
2.55547e-10
2.79111e-10
3.04574e-10
3.32056e-10
3.61678e-10
3.93565e-10
4.27845e-10
4.64645e-10
5.04095e-10
5.46323e-10
5.91459e-10
6.39627e-10
6.9095e-10
7.45545e-10
8.03523e-10
8.64988e-10
9.30033e-10
9.98743e-10
1.07119e-09
1.14742e-09
1.22747e-09
1.31137e-09
1.39912e-09
1.49068e-09
1.58601e-09
1.68503e-09
1.78764e-09
1.89369e-09
2.00302e-09
2.11543e-09
2.23068e-09
2.34849e-09
2.46857e-09
2.59056e-09
2.71408e-09
2.83873e-09
2.96405e-09
3.08956e-09
3.21476e-09
3.3391e-09
3.46202e-09
3.58294e-09
3.70127e-09
3.81639e-09
3.92769e-09
4.03455e-09
4.13637e-09
4.23253e-09
4.32245e-09
4.40559e-09
4.48139e-09
4.54938e-09
4.60908e-09
4.66011e-09
4.7021e-09
4.73475e-09
4.75783e-09
4.77116e-09
4.77464e-09
4.76824e-09
4.75197e-09
4.72594e-09
4.69033e-09
4.64537e-09
4.59136e-09
4.52865e-09
4.45768e-09
4.3789e-09
4.29283e-09
4.20003e-09
4.10108e-09
3.9966e-09
3.88722e-09
3.7736e-09
3.65637e-09
3.53619e-09
3.41372e-09
3.28957e-09
3.16436e-09
3.03868e-09
2.91309e-09
2.7881e-09
2.66422e-09
2.5419e-09
2.42155e-09
2.30353e-09
2.18818e-09
2.07579e-09
1.96659e-09
1.8608e-09
1.75858e-09
1.66006e-09
1.56533e-09
1.47445e-09
1.38746e-09
1.30434e-09
1.22509e-09
1.14965e-09
1.07795e-09
1.00993e-09
9.45481e-10
8.84494e-10
8.26853e-10
7.72433e-10
7.21103e-10
6.7273e-10
6.27177e-10
5.84307e-10
5.43986e-10
5.06078e-10
4.70453e-10
4.36984e-10
4.05548e-10
3.76027e-10
3.48309e-10
3.22286e-10
2.97859e-10
2.74932e-10
2.53418e-10
2.33233e-10
2.14303e-10
1.96555e-10
1.79925e-10
1.64355e-10
1.49788e-10
1.36176e-10
1.23473e-10
1.11637e-10
1.00629e-10
9.04134e-11
8.09568e-11
7.22276e-11
6.41957e-11
5.68318e-11
5.01074e-11
4.39942e-11
3.8464e-11
3.34883e-11
2.90383e-11
2.50847e-11
2.15978e-11
1.85474e-11
1.59029e-11
1.36334e-11
1.17079e-11
1.00954e-11
8.76525e-12
7.68698e-12
6.83081e-12
6.16768e-12
5.66947e-12
5.30921e-12
5.06125e-12
4.90143e-12
4.80732e-12
4.75838e-12
4.73617e-12
4.72447e-12
4.70952e-12
4.68003e-12
4.62729e-12
4.54517e-12
4.43002e-12
4.28054e-12
4.09758e-12
3.88382e-12
3.64345e-12
3.38179e-12
3.10491e-12
2.81923e-12
2.53115e-12
2.24671e-12
1.97136e-12
1.70974e-12
1.46554e-12
1.24147e-12
1.03922e-12
8.59573e-13
7.0248e-13
5.67195e-13
4.52432e-13
3.5651e-13
2.77499e-13
2.13353e-13
1.62017e-13
1.21513e-13
9.00046e-14
6.58354e-14
4.75538e-14
3.39171e-14
2.38856e-14
1.6608e-14
1.1401e-14
7.72694e-15
5.17056e-15
3.41705e-15
2.23213e-15
1.4448e-15
9.3291e-16
6.11601e-16
4.24423e-16
3.36899e-16
3.20304e-12
3.207e-12
3.25753e-12
3.35459e-12
3.49886e-12
3.69169e-12
3.93505e-12
4.23158e-12
4.58456e-12
4.99797e-12
5.47651e-12
6.02563e-12
6.65159e-12
7.36152e-12
8.16346e-12
9.06648e-12
1.00807e-11
1.12175e-11
1.24894e-11
1.39104e-11
1.54959e-11
1.72632e-11
1.92311e-11
2.14203e-11
2.38539e-11
2.6557e-11
2.95573e-11
3.2885e-11
3.65734e-11
4.06586e-11
4.51804e-11
5.0182e-11
5.57104e-11
6.18169e-11
6.85571e-11
7.59914e-11
8.41853e-11
9.32095e-11
1.03141e-10
1.14061e-10
1.26059e-10
1.39231e-10
1.5368e-10
1.69514e-10
1.86851e-10
2.05817e-10
2.26545e-10
2.49176e-10
2.73861e-10
3.00759e-10
3.30037e-10
3.61871e-10
3.96445e-10
4.33955e-10
4.746e-10
5.1859e-10
5.66141e-10
6.17477e-10
6.72826e-10
7.32422e-10
7.96502e-10
8.65308e-10
9.39078e-10
1.01805e-09
1.10247e-09
1.19256e-09
1.28856e-09
1.39066e-09
1.49908e-09
1.61401e-09
1.7356e-09
1.86401e-09
1.99935e-09
2.14171e-09
2.29114e-09
2.44767e-09
2.61127e-09
2.78186e-09
2.95934e-09
3.14352e-09
3.33418e-09
3.53103e-09
3.73372e-09
3.94183e-09
4.15488e-09
4.37233e-09
4.59354e-09
4.81784e-09
5.04447e-09
5.27262e-09
5.50138e-09
5.72984e-09
5.95698e-09
6.18177e-09
6.40312e-09
6.6199e-09
6.83099e-09
7.0352e-09
7.23138e-09
7.41837e-09
7.59503e-09
7.76024e-09
7.91293e-09
8.05208e-09
8.17674e-09
8.28604e-09
8.37918e-09
8.45547e-09
8.51435e-09
8.55534e-09
8.57809e-09
8.5824e-09
8.56819e-09
8.53551e-09
8.48454e-09
8.41561e-09
8.32917e-09
8.22579e-09
8.10617e-09
7.97111e-09
7.82152e-09
7.65839e-09
7.48278e-09
7.29585e-09
7.09877e-09
6.89277e-09
6.6791e-09
6.45901e-09
6.23377e-09
6.00461e-09
5.77275e-09
5.53935e-09
5.30553e-09
5.07237e-09
4.84087e-09
4.61194e-09
4.38644e-09
4.16513e-09
3.94872e-09
3.73779e-09
3.53288e-09
3.33442e-09
3.14276e-09
2.9582e-09
2.78094e-09
2.61113e-09
2.44884e-09
2.2941e-09
2.14686e-09
2.00707e-09
1.87459e-09
1.74927e-09
1.63092e-09
1.51933e-09
1.41427e-09
1.31549e-09
1.22272e-09
1.13571e-09
1.05417e-09
9.77825e-10
9.06409e-10
8.39648e-10
7.77276e-10
7.19033e-10
6.6467e-10
6.13947e-10
5.66633e-10
5.22511e-10
4.81371e-10
4.43019e-10
4.07272e-10
3.73958e-10
3.42917e-10
3.14e-10
2.8707e-10
2.62001e-10
2.38676e-10
2.16987e-10
1.96836e-10
1.78133e-10
1.60795e-10
1.44746e-10
1.29916e-10
1.16241e-10
1.03658e-10
9.21132e-11
8.15516e-11
7.19225e-11
6.3177e-11
5.52676e-11
4.8148e-11
4.17725e-11
3.60961e-11
3.10742e-11
2.66626e-11
2.28171e-11
1.94944e-11
1.66511e-11
1.42448e-11
1.22336e-11
1.05766e-11
9.23404e-12
8.16737e-12
7.33945e-12
6.71478e-12
6.25962e-12
5.94219e-12
5.73285e-12
5.60427e-12
5.53161e-12
5.49269e-12
5.46816e-12
5.44162e-12
5.39973e-12
5.3322e-12
5.2318e-12
5.09424e-12
4.91796e-12
4.70389e-12
4.4551e-12
4.17639e-12
3.87385e-12
3.55442e-12
3.22542e-12
2.89415e-12
2.5675e-12
2.25164e-12
1.95183e-12
1.67224e-12
1.4159e-12
1.1847e-12
9.79482e-13
8.00143e-13
6.45795e-13
5.14932e-13
4.05611e-13
3.15607e-13
2.42571e-13
1.84146e-13
1.38068e-13
1.02237e-13
7.47619e-14
5.39872e-14
3.84959e-14
2.71036e-14
1.88412e-14
1.29313e-14
8.76225e-15
5.8622e-15
3.87341e-15
2.52979e-15
1.63719e-15
1.05696e-15
6.92816e-16
4.80708e-16
3.81537e-16
5.69807e-12
5.70576e-12
5.79686e-12
5.97135e-12
6.23048e-12
6.5767e-12
7.01361e-12
7.54601e-12
8.17988e-12
8.92244e-12
9.78224e-12
1.07692e-11
1.18947e-11
1.31717e-11
1.46148e-11
1.62407e-11
1.80676e-11
2.01164e-11
2.24098e-11
2.49736e-11
2.78358e-11
3.10279e-11
3.45843e-11
3.85432e-11
4.29465e-11
4.78403e-11
5.32755e-11
5.93075e-11
6.59972e-11
7.34114e-11
8.16229e-11
9.07112e-11
1.00763e-10
1.11872e-10
1.24142e-10
1.37684e-10
1.52619e-10
1.69076e-10
1.87199e-10
2.07138e-10
2.29059e-10
2.53138e-10
2.79564e-10
3.08543e-10
3.4029e-10
3.75037e-10
4.13034e-10
4.54541e-10
4.99839e-10
5.49221e-10
6.02999e-10
6.615e-10
7.25066e-10
7.94058e-10
8.68848e-10
9.49826e-10
1.03739e-09
1.13196e-09
1.23396e-09
1.34381e-09
1.46196e-09
1.58886e-09
1.72494e-09
1.87065e-09
2.02643e-09
2.19269e-09
2.36986e-09
2.55831e-09
2.75842e-09
2.97052e-09
3.19489e-09
3.43181e-09
3.68146e-09
3.94398e-09
4.21946e-09
4.5079e-09
4.80921e-09
5.12324e-09
5.44971e-09
5.78828e-09
6.13847e-09
6.49969e-09
6.87124e-09
7.25229e-09
7.64188e-09
8.03893e-09
8.44222e-09
8.85042e-09
9.26206e-09
9.67554e-09
1.00892e-08
1.05011e-08
1.09095e-08
1.13123e-08
1.17075e-08
1.2093e-08
1.24665e-08
1.28259e-08
1.31691e-08
1.34938e-08
1.37981e-08
1.40798e-08
1.4337e-08
1.45679e-08
1.47707e-08
1.49441e-08
1.50865e-08
1.51969e-08
1.52744e-08
1.53182e-08
1.53279e-08
1.53033e-08
1.52444e-08
1.51515e-08
1.50253e-08
1.48664e-08
1.46761e-08
1.44555e-08
1.42061e-08
1.39298e-08
1.36282e-08
1.33035e-08
1.29578e-08
1.25933e-08
1.22124e-08
1.18174e-08
1.14108e-08
1.09949e-08
1.05721e-08
1.01447e-08
9.7149e-09
9.28486e-09
8.85658e-09
8.43195e-09
8.01273e-09
7.60051e-09
7.19673e-09
6.80267e-09
6.41945e-09
6.04801e-09
5.68917e-09
5.34355e-09
5.01164e-09
4.69381e-09
4.39027e-09
4.10112e-09
3.82634e-09
3.56584e-09
3.31941e-09
3.08678e-09
2.86761e-09
2.66149e-09
2.46798e-09
2.28662e-09
2.11688e-09
1.95825e-09
1.81018e-09
1.67214e-09
1.54358e-09
1.42395e-09
1.31275e-09
1.20944e-09
1.11353e-09
1.02453e-09
9.42001e-10
8.65486e-10
7.94575e-10
7.28874e-10
6.68013e-10
6.11648e-10
5.59454e-10
5.1113e-10
4.66399e-10
4.25001e-10
3.86701e-10
3.51278e-10
3.18531e-10
2.88277e-10
2.60347e-10
2.34587e-10
2.10854e-10
1.89019e-10
1.68963e-10
1.50576e-10
1.33755e-10
1.18407e-10
1.04441e-10
9.17753e-11
8.03298e-11
7.00288e-11
6.07995e-11
5.25717e-11
4.5277e-11
3.88492e-11
3.32236e-11
2.8337e-11
2.41278e-11
2.05361e-11
1.75037e-11
1.4974e-11
1.28927e-11
1.12073e-11
9.8677e-12
8.82615e-12
8.03745e-12
7.45907e-12
7.05126e-12
6.77729e-12
6.60351e-12
6.49956e-12
6.43849e-12
6.39693e-12
6.35515e-12
6.29715e-12
6.21067e-12
6.08708e-12
5.92126e-12
5.71131e-12
5.45829e-12
5.16571e-12
4.83913e-12
4.48559e-12
4.11312e-12
3.73017e-12
3.34513e-12
2.96594e-12
2.5997e-12
2.2524e-12
1.92882e-12
1.63238e-12
1.36522e-12
1.12825e-12
9.21292e-13
7.43279e-13
5.92437e-13
4.66491e-13
3.62852e-13
2.78789e-13
2.11573e-13
1.58583e-13
1.17394e-13
8.58218e-14
6.19574e-14
4.41679e-14
3.10896e-14
2.16072e-14
1.48264e-14
1.00443e-14
6.71865e-15
4.43849e-15
2.89835e-15
1.8754e-15
1.21055e-15
7.93363e-16
5.50391e-16
4.36799e-16
9.98013e-12
9.9948e-12
1.01566e-11
1.04656e-11
1.09241e-11
1.15364e-11
1.2309e-11
1.32505e-11
1.43717e-11
1.56855e-11
1.72071e-11
1.89544e-11
2.09478e-11
2.32105e-11
2.57687e-11
2.86522e-11
3.1894e-11
3.55313e-11
3.96053e-11
4.41619e-11
4.9252e-11
5.49318e-11
6.12638e-11
6.83166e-11
7.61659e-11
8.4895e-11
9.45955e-11
1.05368e-10
1.17323e-10
1.3058e-10
1.45273e-10
1.61544e-10
1.79552e-10
1.99467e-10
2.21477e-10
2.45783e-10
2.72605e-10
3.02182e-10
3.3477e-10
3.70648e-10
4.10115e-10
4.53494e-10
5.01132e-10
5.53399e-10
6.10694e-10
6.73441e-10
7.42092e-10
8.1713e-10
8.99064e-10
9.88434e-10
1.08581e-09
1.19179e-09
1.30701e-09
1.43212e-09
1.5678e-09
1.71478e-09
1.87378e-09
2.04557e-09
2.23092e-09
2.43062e-09
2.64548e-09
2.87631e-09
3.12393e-09
3.38912e-09
3.6727e-09
3.97543e-09
4.29805e-09
4.64127e-09
5.00574e-09
5.39206e-09
5.80074e-09
6.23223e-09
6.68686e-09
7.16486e-09
7.66633e-09
8.19123e-09
8.73938e-09
9.31041e-09
9.90379e-09
1.05188e-08
1.11545e-08
1.18096e-08
1.2483e-08
1.31729e-08
1.38774e-08
1.45946e-08
1.53221e-08
1.60572e-08
1.67973e-08
1.75393e-08
1.82799e-08
1.90158e-08
1.97433e-08
2.04587e-08
2.11582e-08
2.18378e-08
2.24934e-08
2.31212e-08
2.3717e-08
2.42769e-08
2.47971e-08
2.52739e-08
2.57039e-08
2.60837e-08
2.64105e-08
2.66817e-08
2.68948e-08
2.70481e-08
2.71402e-08
2.71699e-08
2.71368e-08
2.70408e-08
2.68824e-08
2.66624e-08
2.63822e-08
2.60437e-08
2.56492e-08
2.52014e-08
2.47034e-08
2.41585e-08
2.35706e-08
2.29436e-08
2.22818e-08
2.15894e-08
2.08708e-08
2.01307e-08
1.93734e-08
1.86035e-08
1.78252e-08
1.70428e-08
1.62602e-08
1.54813e-08
1.47097e-08
1.39486e-08
1.3201e-08
1.24696e-08
1.17569e-08
1.10648e-08
1.03953e-08
9.74961e-09
9.12905e-09
8.53446e-09
7.96644e-09
7.42535e-09
6.91132e-09
6.42427e-09
5.96392e-09
5.52985e-09
5.12146e-09
4.73805e-09
4.37883e-09
4.04289e-09
3.72929e-09
3.43702e-09
3.16506e-09
2.91235e-09
2.67784e-09
2.46049e-09
2.25924e-09
2.0731e-09
1.90109e-09
1.74224e-09
1.59566e-09
1.46047e-09
1.33586e-09
1.22104e-09
1.11529e-09
1.0179e-09
9.28247e-10
8.45729e-10
7.6979e-10
6.99918e-10
6.35641e-10
5.76521e-10
5.2216e-10
4.72191e-10
4.26279e-10
3.84117e-10
3.45426e-10
3.0995e-10
2.77457e-10
2.47732e-10
2.20583e-10
1.95829e-10
1.73305e-10
1.5286e-10
1.34352e-10
1.17649e-10
1.02627e-10
8.91693e-11
7.71647e-11
6.65079e-11
5.70976e-11
4.8837e-11
4.16331e-11
3.53961e-11
3.00401e-11
2.5482e-11
2.16427e-11
1.84459e-11
1.58193e-11
1.36938e-11
1.20041e-11
1.06885e-11
9.68938e-12
8.9527e-12
8.42856e-12
8.0711e-12
7.83866e-12
7.69385e-12
7.6037e-12
7.53976e-12
7.4781e-12
7.39943e-12
7.28895e-12
7.1363e-12
6.93531e-12
6.68368e-12
6.38256e-12
6.03602e-12
5.65055e-12
5.23435e-12
4.79676e-12
4.34761e-12
3.89667e-12
3.45311e-12
3.02515e-12
2.61973e-12
2.24231e-12
1.89683e-12
1.5857e-12
1.3099e-12
1.06919e-12
8.62266e-13
6.87021e-13
5.40774e-13
4.20488e-13
3.22967e-13
2.45023e-13
1.836e-13
1.35874e-13
9.9305e-14
7.16727e-14
5.10811e-14
3.59474e-14
2.49777e-14
1.71356e-14
1.16064e-14
7.76208e-15
5.12689e-15
3.34732e-15
2.16556e-15
1.39763e-15
9.15832e-16
6.35263e-16
5.04107e-16
1.72109e-11
1.72384e-11
1.75216e-11
1.80606e-11
1.88596e-11
1.99263e-11
2.12721e-11
2.29123e-11
2.48658e-11
2.71555e-11
2.98082e-11
3.28555e-11
3.63332e-11
4.02826e-11
4.475e-11
4.97878e-11
5.54548e-11
6.18163e-11
6.89457e-11
7.69242e-11
8.58421e-11
9.57993e-11
1.06906e-10
1.19285e-10
1.33071e-10
1.48412e-10
1.6547e-10
1.84426e-10
2.05475e-10
2.28834e-10
2.54737e-10
2.83443e-10
3.15233e-10
3.50413e-10
3.89317e-10
4.32309e-10
4.79781e-10
5.32163e-10
5.89915e-10
6.53537e-10
7.23569e-10
8.0059e-10
8.85225e-10
9.78144e-10
1.08006e-09
1.19175e-09
1.31401e-09
1.44773e-09
1.59382e-09
1.75327e-09
1.92709e-09
2.11637e-09
2.32226e-09
2.54595e-09
2.78867e-09
3.05171e-09
3.33641e-09
3.64414e-09
3.97631e-09
4.33435e-09
4.71972e-09
5.13389e-09
5.57832e-09
6.05446e-09
6.56375e-09
7.10757e-09
7.68727e-09
8.30409e-09
8.95922e-09
9.65369e-09
1.03884e-08
1.11642e-08
1.19816e-08
1.28409e-08
1.37423e-08
1.46857e-08
1.56707e-08
1.66964e-08
1.77619e-08
1.88658e-08
2.00062e-08
2.11809e-08
2.23873e-08
2.36223e-08
2.48825e-08
2.61639e-08
2.74621e-08
2.87724e-08
3.00894e-08
3.14076e-08
3.2721e-08
3.40231e-08
3.53074e-08
3.65668e-08
3.77944e-08
3.89828e-08
4.01246e-08
4.12126e-08
4.22395e-08
4.31982e-08
4.40817e-08
4.48835e-08
4.55975e-08
4.62179e-08
4.67396e-08
4.71581e-08
4.74697e-08
4.76712e-08
4.77606e-08
4.77363e-08
4.7598e-08
4.7346e-08
4.69816e-08
4.65071e-08
4.59256e-08
4.52409e-08
4.44579e-08
4.35819e-08
4.26192e-08
4.15764e-08
4.04607e-08
3.92799e-08
3.80419e-08
3.67548e-08
3.54271e-08
3.40669e-08
3.26826e-08
3.12822e-08
2.98737e-08
2.84645e-08
2.70618e-08
2.56723e-08
2.43021e-08
2.29568e-08
2.16416e-08
2.0361e-08
1.91188e-08
1.79183e-08
1.67623e-08
1.5653e-08
1.45918e-08
1.358e-08
1.26181e-08
1.17064e-08
1.08446e-08