/*--------------------------------*- C++ -*----------------------------------*\
| =========                 |                                                 |
| \\      /  F ield         | OpenFOAM: The Open Source CFD Toolbox           |
|  \\    /   O peration     | Version:  v2012                                 |
|   \\  /    A nd           | Website:  www.openfoam.com                      |
|    \\/     M anipulation  |                                                 |
\*---------------------------------------------------------------------------*/
FoamFile
{
    version     2.0;
    format      ascii;
    class       volVectorField;
    location    "70";
    object      Usup;
}
// * * * * * * * * * * * * * * * * * * * * * * * * * * * * * * * * * * * * * //

dimensions      [0 1 -1 0 0 0 0];


internalField   nonuniform List<vector> 
4000
(
(-8.23584e-17 -2.82472e-16 0)
(-3.90359e-17 1.29804e-16 0)
(1.988e-16 6.43013e-16 0)
(3.16189e-16 9.47902e-16 0)
(1.19675e-17 1.01137e-15 0)
(-9.98053e-16 8.96514e-16 0)
(-1.63944e-15 1.43766e-15 0)
(-1.40424e-15 1.58533e-15 0)
(-9.56281e-16 1.77735e-15 0)
(-7.58341e-16 1.88203e-15 0)
(-1.20981e-15 1.68382e-15 0)
(-2.21533e-15 1.49951e-15 0)
(-3.13515e-15 1.96199e-15 0)
(-2.85819e-15 2.66941e-15 0)
(-1.91355e-15 2.70511e-15 0)
(-1.69628e-15 2.37428e-15 0)
(-1.65827e-15 2.47746e-15 0)
(-1.95891e-15 2.18151e-15 0)
(-2.67877e-15 2.00645e-15 0)
(-3.26292e-15 1.83464e-15 0)
(-3.77636e-15 1.75372e-15 0)
(-3.59996e-15 1.64412e-15 0)
(-2.66943e-15 1.86217e-15 0)
(-1.84089e-15 1.99104e-15 0)
(-1.58144e-15 1.939e-15 0)
(-1.18893e-15 1.97983e-15 0)
(-7.24864e-16 1.75925e-15 0)
(-7.15174e-16 1.8168e-15 0)
(-4.25268e-16 1.79782e-15 0)
(4.63836e-17 1.60995e-15 0)
(4.65362e-16 1.57492e-15 0)
(1.11532e-15 1.26423e-15 0)
(1.38143e-15 7.46626e-16 0)
(1.4474e-15 4.91518e-16 0)
(1.63447e-15 4.26325e-16 0)
(1.45071e-15 1.94853e-16 0)
(1.11885e-15 3.54092e-16 0)
(9.53945e-16 5.21642e-16 0)
(1.32002e-15 4.77992e-16 0)
(2.09493e-15 3.18173e-16 0)
(2.78708e-15 1.34773e-16 0)
(3.70552e-15 -2.22716e-16 0)
(4.18191e-15 -4.40951e-16 0)
(4.22415e-15 -2.50894e-16 0)
(4.50878e-15 -1.08875e-16 0)
(5.00177e-15 -4.15431e-16 0)
(5.30078e-15 -6.5001e-16 0)
(5.77252e-15 -8.15297e-16 0)
(6.3792e-15 -8.27091e-16 0)
(6.65671e-15 -9.11035e-16 0)
(6.66032e-15 -8.11674e-16 0)
(6.71872e-15 -7.15126e-16 0)
(6.84011e-15 -7.13212e-16 0)
(7.33428e-15 -6.62411e-16 0)
(8.21181e-15 -6.9598e-16 0)
(8.93121e-15 -4.18419e-16 0)
(9.59654e-15 -5.96215e-16 0)
(1.00809e-14 -7.95369e-16 0)
(1.02697e-14 -8.76167e-16 0)
(1.01823e-14 -9.27885e-16 0)
(1.03602e-14 -9.06941e-16 0)
(1.04936e-14 -8.36629e-16 0)
(1.01412e-14 -7.63283e-16 0)
(9.87064e-15 -6.72602e-16 0)
(1.00158e-14 -8.14675e-16 0)
(1.05894e-14 -8.61381e-16 0)
(1.08841e-14 -1.00773e-15 0)
(1.06105e-14 -8.9068e-16 0)
(1.04943e-14 -5.37882e-16 0)
(1.12238e-14 -3.92071e-16 0)
(1.22549e-14 -5.20266e-16 0)
(1.23725e-14 -8.03452e-16 0)
(1.21271e-14 -5.89029e-16 0)
(1.22194e-14 -7.43554e-16 0)
(1.22873e-14 -9.63074e-16 0)
(1.22069e-14 -9.55821e-16 0)
(1.21606e-14 -7.65684e-16 0)
(1.17954e-14 -8.151e-16 0)
(1.10174e-14 -6.40566e-16 0)
(1.03908e-14 -5.29687e-16 0)
(1.02596e-14 -2.93083e-16 0)
(1.03949e-14 -3.27246e-16 0)
(1.02808e-14 -5.63996e-16 0)
(9.75724e-15 -7.90005e-16 0)
(9.39406e-15 -7.6298e-16 0)
(9.41502e-15 1.91936e-17 0)
(9.03562e-15 2.41903e-16 0)
(8.79986e-15 3.6379e-16 0)
(8.84805e-15 4.05696e-16 0)
(8.18566e-15 3.33115e-16 0)
(7.47242e-15 5.00447e-16 0)
(7.14176e-15 4.99776e-16 0)
(6.63928e-15 5.80686e-16 0)
(6.12663e-15 4.61264e-16 0)
(5.93288e-15 3.7598e-16 0)
(5.47056e-15 -1.29322e-17 0)
(4.72475e-15 -3.11097e-16 0)
(3.67853e-15 -1.69362e-16 0)
(1.98589e-15 -1.92819e-16 0)
(7.2346e-16 2.5786e-17 0)
(1.60763e-16 -3.08644e-16 0)
(4.9587e-16 5.1884e-16 0)
(6.60387e-16 1.7264e-15 0)
(3.67526e-16 2.43407e-15 0)
(-7.86822e-16 2.69777e-15 0)
(-2.54007e-15 3.03942e-15 0)
(-3.74909e-15 4.23299e-15 0)
(-3.73438e-15 4.71712e-15 0)
(-3.00207e-15 5.21449e-15 0)
(-3.05369e-15 5.56892e-15 0)
(-4.35125e-15 5.4033e-15 0)
(-6.0213e-15 5.06272e-15 0)
(-7.22865e-15 6.12287e-15 0)
(-7.10853e-15 7.67034e-15 0)
(-6.11489e-15 7.8236e-15 0)
(-5.50017e-15 7.24285e-15 0)
(-5.43673e-15 7.13521e-15 0)
(-6.37948e-15 6.57038e-15 0)
(-7.84493e-15 5.93392e-15 0)
(-9.11518e-15 5.69024e-15 0)
(-1.00634e-14 5.38463e-15 0)
(-9.36357e-15 5.1898e-15 0)
(-7.17893e-15 5.62595e-15 0)
(-5.43866e-15 6.0332e-15 0)
(-4.53802e-15 5.92073e-15 0)
(-3.56278e-15 5.73174e-15 0)
(-2.39886e-15 5.51962e-15 0)
(-1.85432e-15 5.48532e-15 0)
(-1.17662e-15 5.39659e-15 0)
(3.37819e-17 4.89244e-15 0)
(1.13586e-15 4.44438e-15 0)
(2.29934e-15 3.79911e-15 0)
(3.14321e-15 2.6314e-15 0)
(3.82751e-15 1.84994e-15 0)
(4.26264e-15 1.36863e-15 0)
(4.15269e-15 9.18514e-16 0)
(3.90116e-15 9.91414e-16 0)
(3.6182e-15 9.24905e-16 0)
(4.35576e-15 7.32901e-16 0)
(6.1189e-15 5.90114e-16 0)
(7.84244e-15 4.5056e-16 0)
(1.00124e-14 -2.60729e-16 0)
(1.17701e-14 -6.48564e-16 0)
(1.25642e-14 -7.42209e-16 0)
(1.30909e-14 -6.81981e-16 0)
(1.40753e-14 -1.13114e-15 0)
(1.51671e-14 -1.82869e-15 0)
(1.66113e-14 -1.99943e-15 0)
(1.81394e-14 -2.21992e-15 0)
(1.90601e-14 -2.39465e-15 0)
(1.94862e-14 -2.46883e-15 0)
(1.97785e-14 -2.28995e-15 0)
(2.0325e-14 -2.34168e-15 0)
(2.16613e-14 -2.08743e-15 0)
(2.39485e-14 -1.85592e-15 0)
(2.57474e-14 -1.60104e-15 0)
(2.71261e-14 -1.82647e-15 0)
(2.84824e-14 -2.19012e-15 0)
(2.92149e-14 -2.434e-15 0)
(2.93486e-14 -2.6531e-15 0)
(2.98495e-14 -2.89368e-15 0)
(3.01444e-14 -2.83579e-15 0)
(2.95574e-14 -2.65361e-15 0)
(2.89515e-14 -2.16857e-15 0)
(2.92325e-14 -2.26035e-15 0)
(3.04096e-14 -2.29873e-15 0)
(3.12209e-14 -2.66802e-15 0)
(3.12938e-14 -2.51396e-15 0)
(3.13711e-14 -1.76454e-15 0)
(3.26411e-14 -1.47051e-15 0)
(3.44687e-14 -1.97958e-15 0)
(3.52162e-14 -2.42005e-15 0)
(3.50173e-14 -2.09616e-15 0)
(3.48634e-14 -2.16134e-15 0)
(3.50755e-14 -2.70703e-15 0)
(3.51555e-14 -2.74628e-15 0)
(3.48111e-14 -2.38741e-15 0)
(3.38136e-14 -2.22506e-15 0)
(3.21633e-14 -1.95956e-15 0)
(3.07221e-14 -1.44386e-15 0)
(3.00816e-14 -1.00743e-15 0)
(2.97259e-14 -9.46839e-16 0)
(2.91291e-14 -1.77046e-15 0)
(2.81299e-14 -2.04157e-15 0)
(2.79346e-14 -1.80174e-15 0)
(2.77767e-14 -4.06441e-16 0)
(2.63605e-14 5.5221e-16 0)
(2.55064e-14 1.37967e-15 0)
(2.50146e-14 1.27216e-15 0)
(2.35005e-14 1.05509e-15 0)
(2.17731e-14 1.24262e-15 0)
(2.05365e-14 1.48427e-15 0)
(1.90188e-14 1.48482e-15 0)
(1.74524e-14 1.35877e-15 0)
(1.628e-14 8.54652e-16 0)
(1.45921e-14 -4.87533e-17 0)
(1.2745e-14 -6.15054e-16 0)
(9.91824e-15 -5.98945e-16 0)
(5.70446e-15 -4.82822e-16 0)
(1.98114e-15 -4.47135e-17 0)
(2.67518e-16 1.45907e-16 0)
(8.247e-16 1.21211e-15 0)
(8.3566e-16 2.56701e-15 0)
(-1.07224e-17 3.31665e-15 0)
(-1.55089e-15 4.16029e-15 0)
(-3.61997e-15 5.1641e-15 0)
(-5.40618e-15 6.75998e-15 0)
(-5.76502e-15 8.11576e-15 0)
(-5.0586e-15 9.14709e-15 0)
(-5.41977e-15 9.13008e-15 0)
(-7.46353e-15 8.90254e-15 0)
(-9.39905e-15 9.07026e-15 0)
(-1.04035e-14 1.04926e-14 0)
(-1.06359e-14 1.24769e-14 0)
(-1.01026e-14 1.28548e-14 0)
(-9.53119e-15 1.20516e-14 0)
(-9.50987e-15 1.13445e-14 0)
(-1.09311e-14 1.07109e-14 0)
(-1.27458e-14 9.86115e-15 0)
(-1.42888e-14 9.3905e-15 0)
(-1.54562e-14 9.14522e-15 0)
(-1.41718e-14 9.26808e-15 0)
(-1.10212e-14 9.44544e-15 0)
(-8.68649e-15 9.92562e-15 0)
(-7.48561e-15 9.76614e-15 0)
(-5.8207e-15 9.55453e-15 0)
(-3.95598e-15 9.32928e-15 0)
(-2.97596e-15 8.95419e-15 0)
(-1.90699e-15 8.94381e-15 0)
(-3.04999e-16 8.21241e-15 0)
(1.45351e-15 7.32217e-15 0)
(3.11005e-15 6.32359e-15 0)
(4.31105e-15 4.98089e-15 0)
(5.50075e-15 3.45017e-15 0)
(6.39362e-15 2.19827e-15 0)
(6.60313e-15 1.7926e-15 0)
(6.37996e-15 1.4203e-15 0)
(6.26131e-15 7.40007e-16 0)
(7.73105e-15 5.8444e-16 0)
(1.04801e-14 4.3539e-16 0)
(1.28923e-14 7.0713e-16 0)
(1.58924e-14 1.8436e-16 0)
(1.85028e-14 -7.1247e-16 0)
(1.99738e-14 -1.49357e-15 0)
(2.12274e-14 -1.96313e-15 0)
(2.26124e-14 -2.14257e-15 0)
(2.44771e-14 -2.76798e-15 0)
(2.68183e-14 -2.62259e-15 0)
(2.89842e-14 -3.20257e-15 0)
(3.04833e-14 -3.7917e-15 0)
(3.14536e-14 -4.34929e-15 0)
(3.22542e-14 -4.05154e-15 0)
(3.34258e-14 -3.92567e-15 0)
(3.57633e-14 -3.22152e-15 0)
(3.88489e-14 -2.9745e-15 0)
(4.1385e-14 -3.30687e-15 0)
(4.35327e-14 -3.54845e-15 0)
(4.54919e-14 -3.58152e-15 0)
(4.66741e-14 -3.92657e-15 0)
(4.69997e-14 -4.28263e-15 0)
(4.78321e-14 -4.62852e-15 0)
(4.85199e-14 -4.65864e-15 0)
(4.81968e-14 -4.35432e-15 0)
(4.75508e-14 -3.96079e-15 0)
(4.7755e-14 -3.75389e-15 0)
(4.9111e-14 -3.52786e-15 0)
(5.0258e-14 -3.89295e-15 0)
(5.0963e-14 -3.64451e-15 0)
(5.14133e-14 -3.25329e-15 0)
(5.27134e-14 -2.74484e-15 0)
(5.49926e-14 -2.90853e-15 0)
(5.64551e-14 -3.33603e-15 0)
(5.65364e-14 -3.69633e-15 0)
(5.61142e-14 -3.80114e-15 0)
(5.62049e-14 -4.36909e-15 0)
(5.65012e-14 -4.36724e-15 0)
(5.60606e-14 -4.01321e-15 0)
(5.44972e-14 -3.58357e-15 0)
(5.22949e-14 -3.21164e-15 0)
(5.02892e-14 -2.38544e-15 0)
(4.8985e-14 -1.98497e-15 0)
(4.7742e-14 -1.65686e-15 0)
(4.66575e-14 -2.33799e-15 0)
(4.57245e-14 -2.53379e-15 0)
(4.55094e-14 -2.07802e-15 0)
(4.53078e-14 -1.08087e-15 0)
(4.34566e-14 2.68225e-16 0)
(4.14399e-14 1.80913e-15 0)
(3.97762e-14 1.91393e-15 0)
(3.75947e-14 1.9384e-15 0)
(3.5256e-14 1.97385e-15 0)
(3.30896e-14 2.26798e-15 0)
(3.04938e-14 2.25208e-15 0)
(2.77571e-14 1.93475e-15 0)
(2.52754e-14 1.15112e-15 0)
(2.25575e-14 1.08162e-16 0)
(1.9542e-14 -5.43549e-16 0)
(1.51986e-14 -8.92983e-16 0)
(9.07243e-15 -8.65544e-16 0)
(3.10965e-15 -3.22738e-16 0)
(3.29589e-16 5.95347e-16 0)
(8.61927e-16 2.13608e-15 0)
(4.78224e-16 3.43324e-15 0)
(-5.79239e-16 4.41185e-15 0)
(-2.28772e-15 5.86323e-15 0)
(-4.54511e-15 7.64049e-15 0)
(-6.31558e-15 9.54828e-15 0)
(-6.99137e-15 1.1585e-14 0)
(-7.30695e-15 1.2713e-14 0)
(-8.54486e-15 1.23613e-14 0)
(-1.04729e-14 1.23425e-14 0)
(-1.20303e-14 1.32524e-14 0)
(-1.27526e-14 1.48177e-14 0)
(-1.34533e-14 1.67898e-14 0)
(-1.40371e-14 1.74905e-14 0)
(-1.39285e-14 1.67487e-14 0)
(-1.38032e-14 1.56412e-14 0)
(-1.5332e-14 1.47222e-14 0)
(-1.74563e-14 1.38407e-14 0)
(-1.89703e-14 1.29048e-14 0)
(-1.97545e-14 1.273e-14 0)
(-1.82547e-14 1.33729e-14 0)
(-1.46072e-14 1.34652e-14 0)
(-1.1705e-14 1.37466e-14 0)
(-1.00461e-14 1.39036e-14 0)
(-7.9062e-15 1.38695e-14 0)
(-5.71588e-15 1.32295e-14 0)
(-4.01279e-15 1.21573e-14 0)
(-2.50961e-15 1.19098e-14 0)
(-7.31257e-16 1.12309e-14 0)
(1.42597e-15 1.02734e-14 0)
(3.48065e-15 8.76686e-15 0)
(4.88842e-15 7.14011e-15 0)
(6.31981e-15 5.10689e-15 0)
(8.07445e-15 3.52419e-15 0)
(8.87004e-15 2.56929e-15 0)
(8.63652e-15 1.71648e-15 0)
(9.02103e-15 7.37132e-16 0)
(1.12016e-14 7.91155e-16 0)
(1.48194e-14 4.92452e-16 0)
(1.80243e-14 5.00792e-16 0)
(2.11336e-14 3.09955e-17 0)
(2.42277e-14 -1.30364e-15 0)
(2.65784e-14 -2.23793e-15 0)
(2.87843e-14 -3.08861e-15 0)
(3.09644e-14 -3.38366e-15 0)
(3.35968e-14 -3.65496e-15 0)
(3.64214e-14 -3.70191e-15 0)
(3.87247e-14 -4.35971e-15 0)
(4.07514e-14 -5.0369e-15 0)
(4.27154e-14 -5.68792e-15 0)
(4.4404e-14 -5.37124e-15 0)
(4.63367e-14 -5.06756e-15 0)
(4.92125e-14 -4.41199e-15 0)
(5.24938e-14 -4.50294e-15 0)
(5.57013e-14 -5.16531e-15 0)
(5.89061e-14 -5.42414e-15 0)
(6.14762e-14 -5.11269e-15 0)
(6.2865e-14 -5.49445e-15 0)
(6.35685e-14 -5.86782e-15 0)
(6.47555e-14 -6.02707e-15 0)
(6.57992e-14 -6.24962e-15 0)
(6.55629e-14 -6.04534e-15 0)
(6.49817e-14 -5.7278e-15 0)
(6.55408e-14 -5.191e-15 0)
(6.69586e-14 -4.63272e-15 0)
(6.83734e-14 -4.89337e-15 0)
(6.94163e-14 -4.84833e-15 0)
(7.02797e-14 -4.68926e-15 0)
(7.21807e-14 -3.76162e-15 0)
(7.44511e-14 -3.77094e-15 0)
(7.57034e-14 -4.37824e-15 0)
(7.59736e-14 -5.11647e-15 0)
(7.57649e-14 -5.39527e-15 0)
(7.5994e-14 -5.74814e-15 0)
(7.64565e-14 -5.63944e-15 0)
(7.58702e-14 -5.38743e-15 0)
(7.39605e-14 -4.84906e-15 0)
(7.13833e-14 -4.33294e-15 0)
(6.88033e-14 -3.19793e-15 0)
(6.69364e-14 -2.45075e-15 0)
(6.51115e-14 -2.00906e-15 0)
(6.33492e-14 -2.31212e-15 0)
(6.22068e-14 -2.5284e-15 0)
(6.19193e-14 -2.01842e-15 0)
(6.15373e-14 -1.39099e-15 0)
(5.95275e-14 -1.07855e-16 0)
(5.67236e-14 1.53478e-15 0)
(5.39866e-14 2.36576e-15 0)
(5.09125e-14 2.60088e-15 0)
(4.76858e-14 2.80319e-15 0)
(4.47288e-14 2.71238e-15 0)
(4.09973e-14 2.51075e-15 0)
(3.70273e-14 2.08677e-15 0)
(3.33972e-14 1.49104e-15 0)
(2.95114e-14 4.92773e-16 0)
(2.5329e-14 -3.69264e-16 0)
(1.95283e-14 -8.24091e-16 0)
(1.19008e-14 -1.01399e-15 0)
(4.31922e-15 -4.17016e-16 0)
(3.11499e-16 9.19284e-16 0)
(5.70214e-16 3.04932e-15 0)
(-1.39237e-16 4.4833e-15 0)
(-1.22891e-15 5.96835e-15 0)
(-2.71658e-15 8.21484e-15 0)
(-5.12093e-15 1.10013e-14 0)
(-7.27372e-15 1.30328e-14 0)
(-8.50807e-15 1.4702e-14 0)
(-9.74045e-15 1.54561e-14 0)
(-1.12413e-14 1.52731e-14 0)
(-1.29013e-14 1.60965e-14 0)
(-1.43576e-14 1.77149e-14 0)
(-1.51057e-14 1.92152e-14 0)
(-1.60896e-14 2.04751e-14 0)
(-1.73795e-14 2.13544e-14 0)
(-1.8006e-14 2.1531e-14 0)
(-1.81778e-14 2.02483e-14 0)
(-1.97289e-14 1.88217e-14 0)
(-2.1992e-14 1.79776e-14 0)
(-2.33657e-14 1.71545e-14 0)
(-2.34141e-14 1.65085e-14 0)
(-2.149e-14 1.73548e-14 0)
(-1.77112e-14 1.79011e-14 0)
(-1.42288e-14 1.7711e-14 0)
(-1.21538e-14 1.78086e-14 0)
(-9.98789e-15 1.73654e-14 0)
(-7.83717e-15 1.6271e-14 0)
(-5.573e-15 1.51885e-14 0)
(-3.18625e-15 1.4539e-14 0)
(-1.022e-15 1.39013e-14 0)
(1.22266e-15 1.30142e-14 0)
(3.42944e-15 1.12067e-14 0)
(5.12185e-15 8.69036e-15 0)
(7.03864e-15 6.64041e-15 0)
(9.27135e-15 5.21719e-15 0)
(1.04441e-14 3.42279e-15 0)
(1.06394e-14 2.27171e-15 0)
(1.18242e-14 1.10089e-15 0)
(1.47699e-14 6.6872e-16 0)
(1.87781e-14 3.99909e-16 0)
(2.25323e-14 -1.74335e-17 0)
(2.6048e-14 -6.49066e-16 0)
(2.96959e-14 -1.71101e-15 0)
(3.27581e-14 -2.41682e-15 0)
(3.5682e-14 -3.35433e-15 0)
(3.87087e-14 -4.21598e-15 0)
(4.19696e-14 -4.75138e-15 0)
(4.52432e-14 -5.18118e-15 0)
(4.81194e-14 -5.69891e-15 0)
(5.06763e-14 -6.05955e-15 0)
(5.33281e-14 -6.38235e-15 0)
(5.5792e-14 -6.06043e-15 0)
(5.83013e-14 -5.80533e-15 0)
(6.16453e-14 -5.6766e-15 0)
(6.52257e-14 -6.30082e-15 0)
(6.91151e-14 -6.70296e-15 0)
(7.33372e-14 -6.82217e-15 0)
(7.63406e-14 -6.61707e-15 0)
(7.78804e-14 -6.95157e-15 0)
(7.89921e-14 -7.31113e-15 0)
(8.04054e-14 -7.44338e-15 0)
(8.16886e-14 -7.80849e-15 0)
(8.19698e-14 -7.77237e-15 0)
(8.18007e-14 -7.2704e-15 0)
(8.25649e-14 -6.53147e-15 0)
(8.38515e-14 -6.00484e-15 0)
(8.51377e-14 -6.1154e-15 0)
(8.66317e-14 -6.3427e-15 0)
(8.8315e-14 -5.97303e-15 0)
(9.02638e-14 -4.81308e-15 0)
(9.21983e-14 -5.32468e-15 0)
(9.36566e-14 -6.0353e-15 0)
(9.42388e-14 -6.29001e-15 0)
(9.41845e-14 -6.38729e-15 0)
(9.44742e-14 -6.61223e-15 0)
(9.49273e-14 -6.54461e-15 0)
(9.42905e-14 -6.26383e-15 0)
(9.21593e-14 -5.54682e-15 0)
(8.94524e-14 -4.96949e-15 0)
(8.66718e-14 -3.52821e-15 0)
(8.40369e-14 -2.32634e-15 0)
(8.12838e-14 -2.05393e-15 0)
(7.89314e-14 -2.32742e-15 0)
(7.7717e-14 -2.41213e-15 0)
(7.72177e-14 -1.76249e-15 0)
(7.66825e-14 -1.16124e-15 0)
(7.46067e-14 -6.99696e-17 0)
(7.12141e-14 1.34633e-15 0)
(6.73524e-14 2.45212e-15 0)
(6.33234e-14 2.59875e-15 0)
(5.92029e-14 2.88159e-15 0)
(5.51247e-14 2.7073e-15 0)
(5.05749e-14 2.10245e-15 0)
(4.57286e-14 1.9797e-15 0)
(4.08471e-14 1.51859e-15 0)
(3.56502e-14 6.41756e-16 0)
(3.0332e-14 -1.64453e-16 0)
(2.33177e-14 -6.90592e-16 0)
(1.43783e-14 -7.27671e-16 0)
(5.28878e-15 -1.3851e-16 0)
(3.06057e-16 1.39548e-15 0)
(1.76662e-16 3.97412e-15 0)
(-9.15528e-16 6.13693e-15 0)
(-1.63079e-15 8.35163e-15 0)
(-2.73352e-15 1.07651e-14 0)
(-5.56841e-15 1.35982e-14 0)
(-8.53134e-15 1.62054e-14 0)
(-1.04019e-14 1.76544e-14 0)
(-1.22801e-14 1.86525e-14 0)
(-1.37269e-14 1.91295e-14 0)
(-1.47094e-14 2.0248e-14 0)
(-1.62032e-14 2.18474e-14 0)
(-1.75215e-14 2.33725e-14 0)
(-1.87926e-14 2.44473e-14 0)
(-2.01226e-14 2.51849e-14 0)
(-2.1549e-14 2.57609e-14 0)
(-2.26444e-14 2.50182e-14 0)
(-2.40117e-14 2.33024e-14 0)
(-2.59079e-14 2.20719e-14 0)
(-2.74089e-14 2.10481e-14 0)
(-2.68725e-14 2.05806e-14 0)
(-2.408e-14 2.17271e-14 0)
(-2.04744e-14 2.27188e-14 0)
(-1.70032e-14 2.2069e-14 0)
(-1.45718e-14 2.13687e-14 0)
(-1.23373e-14 2.02797e-14 0)
(-9.65622e-15 1.83493e-14 0)
(-6.68226e-15 1.75279e-14 0)
(-3.89484e-15 1.69112e-14 0)
(-1.31292e-15 1.62304e-14 0)
(9.56065e-16 1.52897e-14 0)
(2.73365e-15 1.3193e-14 0)
(4.7763e-15 1.00743e-14 0)
(7.70097e-15 7.77498e-15 0)
(1.02304e-14 6.03909e-15 0)
(1.17499e-14 4.03154e-15 0)
(1.2525e-14 2.78699e-15 0)
(1.41286e-14 1.43526e-15 0)
(1.78824e-14 4.97835e-16 0)
(2.2633e-14 6.64979e-17 0)
(2.68263e-14 -6.97657e-16 0)
(3.07553e-14 -1.27966e-15 0)
(3.50373e-14 -2.05235e-15 0)
(3.86489e-14 -2.70736e-15 0)
(4.18766e-14 -3.62138e-15 0)
(4.54829e-14 -4.64445e-15 0)
(4.9556e-14 -5.59693e-15 0)
(5.35047e-14 -6.34515e-15 0)
(5.69329e-14 -6.88876e-15 0)
(6.01091e-14 -7.00821e-15 0)
(6.35295e-14 -6.84961e-15 0)
(6.6609e-14 -6.81913e-15 0)
(6.94455e-14 -6.5804e-15 0)
(7.28396e-14 -6.6088e-15 0)
(7.69858e-14 -7.6107e-15 0)
(8.18214e-14 -7.74686e-15 0)
(8.66402e-14 -7.88641e-15 0)
(9.0058e-14 -7.94861e-15 0)
(9.18415e-14 -8.23618e-15 0)
(9.33215e-14 -8.72115e-15 0)
(9.49926e-14 -9.05183e-15 0)
(9.6534e-14 -9.11514e-15 0)
(9.72315e-14 -8.91066e-15 0)
(9.74677e-14 -8.45213e-15 0)
(9.84184e-14 -7.8713e-15 0)
(9.96572e-14 -7.6871e-15 0)
(1.00983e-13 -7.98559e-15 0)
(1.0285e-13 -8.22253e-15 0)
(1.05261e-13 -7.43739e-15 0)
(1.07116e-13 -6.51579e-15 0)
(1.0859e-13 -6.60418e-15 0)
(1.10456e-13 -7.06421e-15 0)
(1.11412e-13 -7.16179e-15 0)
(1.11294e-13 -7.29763e-15 0)
(1.11551e-13 -7.53939e-15 0)
(1.12116e-13 -7.35238e-15 0)
(1.11554e-13 -6.70756e-15 0)
(1.09227e-13 -5.64928e-15 0)
(1.06416e-13 -4.47373e-15 0)
(1.03498e-13 -3.4588e-15 0)
(1.00012e-13 -2.3857e-15 0)
(9.63704e-14 -1.99958e-15 0)
(9.35844e-14 -1.80468e-15 0)
(9.23032e-14 -2.00648e-15 0)
(9.16657e-14 -1.33736e-15 0)
(9.07235e-14 -8.06567e-16 0)
(8.83663e-14 2.50414e-17 0)
(8.45464e-14 1.3266e-15 0)
(7.97355e-14 2.10006e-15 0)
(7.47594e-14 2.49211e-15 0)
(6.98643e-14 2.40767e-15 0)
(6.47194e-14 2.05317e-15 0)
(5.9381e-14 1.60247e-15 0)
(5.37413e-14 1.62406e-15 0)
(4.76059e-14 1.32715e-15 0)
(4.12563e-14 3.87622e-16 0)
(3.4796e-14 8.52078e-17 0)
(2.66817e-14 -4.3852e-16 0)
(1.67012e-14 -4.31163e-16 0)
(6.00437e-15 -3.30352e-17 0)
(5.67117e-17 1.94119e-15 0)
(-2.84307e-16 5.06869e-15 0)
(-1.34108e-15 7.99491e-15 0)
(-2.35975e-15 1.0853e-14 0)
(-3.57512e-15 1.32787e-14 0)
(-6.0682e-15 1.59306e-14 0)
(-9.45963e-15 1.8834e-14 0)
(-1.20533e-14 2.06862e-14 0)
(-1.41574e-14 2.23182e-14 0)
(-1.57605e-14 2.38186e-14 0)
(-1.68439e-14 2.48236e-14 0)
(-1.82686e-14 2.57924e-14 0)
(-1.96061e-14 2.71257e-14 0)
(-2.12511e-14 2.85148e-14 0)
(-2.2893e-14 2.92981e-14 0)
(-2.45755e-14 2.94805e-14 0)
(-2.64413e-14 2.92218e-14 0)
(-2.84122e-14 2.79183e-14 0)
(-3.02358e-14 2.62806e-14 0)
(-3.10406e-14 2.50884e-14 0)
(-2.93182e-14 2.53749e-14 0)
(-2.59219e-14 2.64391e-14 0)
(-2.28497e-14 2.67829e-14 0)
(-1.98497e-14 2.53798e-14 0)
(-1.72611e-14 2.39297e-14 0)
(-1.51317e-14 2.28227e-14 0)
(-1.19083e-14 2.1004e-14 0)
(-7.80292e-15 1.97163e-14 0)
(-4.43101e-15 1.88339e-14 0)
(-1.61797e-15 1.80169e-14 0)
(4.58829e-16 1.6513e-14 0)
(1.89425e-15 1.44131e-14 0)
(4.19391e-15 1.17546e-14 0)
(7.80049e-15 9.11269e-15 0)
(1.0853e-14 6.39528e-15 0)
(1.296e-14 4.51142e-15 0)
(1.42394e-14 2.82566e-15 0)
(1.63517e-14 1.56059e-15 0)
(2.08226e-14 3.39707e-16 0)
(2.5952e-14 -4.87014e-16 0)
(3.0689e-14 -1.29094e-15 0)
(3.53313e-14 -1.70765e-15 0)
(4.00432e-14 -2.5803e-15 0)
(4.40833e-14 -3.59237e-15 0)
(4.77944e-14 -4.6738e-15 0)
(5.1839e-14 -5.21049e-15 0)
(5.6337e-14 -6.1737e-15 0)
(6.09307e-14 -7.28841e-15 0)
(6.52598e-14 -8.00515e-15 0)
(6.92842e-14 -7.75658e-15 0)
(7.29703e-14 -6.8997e-15 0)
(7.64268e-14 -7.2628e-15 0)
(7.98747e-14 -7.88446e-15 0)
(8.3355e-14 -8.14171e-15 0)
(8.79507e-14 -8.33373e-15 0)
(9.35601e-14 -8.26757e-15 0)
(9.88525e-14 -8.28551e-15 0)
(1.02643e-13 -8.77244e-15 0)
(1.04623e-13 -9.44935e-15 0)
(1.06313e-13 -1.03354e-14 0)
(1.08529e-13 -1.08037e-14 0)
(1.10606e-13 -1.03953e-14 0)
(1.11612e-13 -9.97222e-15 0)
(1.12051e-13 -9.51677e-15 0)
(1.12978e-13 -9.11193e-15 0)
(1.14021e-13 -9.13389e-15 0)
(1.15419e-13 -9.687e-15 0)
(1.18144e-13 -9.71256e-15 0)
(1.21141e-13 -8.84377e-15 0)
(1.2293e-13 -8.55925e-15 0)
(1.24295e-13 -7.95991e-15 0)
(1.26085e-13 -7.86651e-15 0)
(1.271e-13 -8.06403e-15 0)
(1.26992e-13 -8.34609e-15 0)
(1.27425e-13 -8.52464e-15 0)
(1.28286e-13 -7.63937e-15 0)
(1.27893e-13 -6.54717e-15 0)
(1.25614e-13 -5.41357e-15 0)
(1.22234e-13 -3.73996e-15 0)
(1.18691e-13 -2.91589e-15 0)
(1.14901e-13 -1.87106e-15 0)
(1.10806e-13 -1.53869e-15 0)
(1.07298e-13 -1.3303e-15 0)
(1.05666e-13 -1.44251e-15 0)
(1.04898e-13 -1.02536e-15 0)
(1.03631e-13 -2.74776e-16 0)
(1.0121e-13 4.6392e-16 0)
(9.67827e-14 1.41792e-15 0)
(9.11577e-14 1.90803e-15 0)
(8.52784e-14 2.28228e-15 0)
(7.92683e-14 1.98214e-15 0)
(7.34689e-14 1.49156e-15 0)
(6.76263e-14 1.09928e-15 0)
(6.11864e-14 1.13833e-15 0)
(5.37193e-14 8.39695e-16 0)
(4.64175e-14 2.05051e-16 0)
(3.90451e-14 1.27733e-16 0)
(2.96389e-14 -3.88202e-16 0)
(1.85523e-14 -3.76898e-16 0)
(6.61276e-15 -2.26305e-16 0)
(-1.38427e-16 2.49988e-15 0)
(-7.79426e-16 6.5572e-15 0)
(-1.94531e-15 9.99502e-15 0)
(-2.9808e-15 1.27412e-14 0)
(-4.2599e-15 1.5702e-14 0)
(-6.81818e-15 1.8569e-14 0)
(-1.04586e-14 2.12335e-14 0)
(-1.33471e-14 2.3857e-14 0)
(-1.55688e-14 2.59113e-14 0)
(-1.75852e-14 2.77163e-14 0)
(-1.9098e-14 2.8568e-14 0)
(-2.04957e-14 2.956e-14 0)
(-2.16112e-14 3.08207e-14 0)
(-2.33235e-14 3.23915e-14 0)
(-2.55189e-14 3.3346e-14 0)
(-2.76696e-14 3.32385e-14 0)
(-2.98273e-14 3.28833e-14 0)
(-3.21934e-14 3.2259e-14 0)
(-3.39773e-14 3.10497e-14 0)
(-3.39635e-14 3.00625e-14 0)
(-3.15419e-14 2.99756e-14 0)
(-2.83199e-14 2.98304e-14 0)
(-2.5984e-14 2.96429e-14 0)
(-2.31676e-14 2.84545e-14 0)
(-1.97805e-14 2.64783e-14 0)
(-1.70395e-14 2.48238e-14 0)
(-1.36958e-14 2.37166e-14 0)
(-9.23058e-15 2.19608e-14 0)
(-5.28972e-15 2.08711e-14 0)
(-2.35893e-15 1.96499e-14 0)
(-2.42642e-16 1.76982e-14 0)
(1.44199e-15 1.54041e-14 0)
(3.79027e-15 1.27943e-14 0)
(7.31985e-15 9.74339e-15 0)
(1.10112e-14 6.68606e-15 0)
(1.38783e-14 4.63614e-15 0)
(1.57238e-14 2.99865e-15 0)
(1.83563e-14 1.88455e-15 0)
(2.32207e-14 3.18067e-16 0)
(2.91677e-14 -5.15539e-16 0)
(3.46274e-14 -1.61048e-15 0)
(3.95076e-14 -2.57901e-15 0)
(4.43555e-14 -3.99469e-15 0)
(4.88017e-14 -5.25979e-15 0)
(5.33516e-14 -6.03707e-15 0)
(5.80061e-14 -6.13032e-15 0)
(6.26038e-14 -6.6597e-15 0)
(6.76684e-14 -7.82606e-15 0)
(7.30122e-14 -8.33256e-15 0)
(7.82344e-14 -8.54599e-15 0)
(8.20792e-14 -7.94723e-15 0)
(8.4952e-14 -8.08252e-15 0)
(8.87743e-14 -8.86956e-15 0)
(9.34277e-14 -9.21033e-15 0)
(9.87752e-14 -8.78258e-15 0)
(1.04687e-13 -8.3194e-15 0)
(1.0999e-13 -8.33333e-15 0)
(1.13723e-13 -9.44155e-15 0)
(1.15903e-13 -1.0777e-14 0)
(1.18117e-13 -1.17648e-14 0)
(1.21223e-13 -1.18959e-14 0)
(1.23827e-13 -1.16677e-14 0)
(1.24918e-13 -1.14681e-14 0)
(1.25483e-13 -1.10764e-14 0)
(1.26434e-13 -1.10125e-14 0)
(1.27338e-13 -1.12233e-14 0)
(1.29043e-13 -1.12411e-14 0)
(1.32345e-13 -1.06733e-14 0)
(1.35383e-13 -1.00971e-14 0)
(1.37434e-13 -1.00036e-14 0)
(1.39121e-13 -9.08949e-15 0)
(1.4067e-13 -8.46335e-15 0)
(1.41506e-13 -8.42604e-15 0)
(1.41437e-13 -8.59928e-15 0)
(1.42462e-13 -8.43294e-15 0)
(1.43743e-13 -7.45512e-15 0)
(1.43017e-13 -6.34422e-15 0)
(1.40657e-13 -5.11516e-15 0)
(1.37072e-13 -3.48128e-15 0)
(1.33092e-13 -2.12304e-15 0)
(1.28618e-13 -9.42637e-16 0)
(1.23714e-13 -7.54889e-16 0)
(1.19924e-13 -5.51501e-16 0)
(1.1808e-13 -3.38163e-16 0)
(1.17318e-13 -1.43933e-16 0)
(1.15804e-13 5.96029e-16 0)
(1.12728e-13 1.10889e-15 0)
(1.07781e-13 1.31949e-15 0)
(1.01507e-13 1.56459e-15 0)
(9.48061e-14 1.99153e-15 0)
(8.80207e-14 1.7278e-15 0)
(8.14431e-14 1.25258e-15 0)
(7.50106e-14 7.00783e-16 0)
(6.78209e-14 2.91423e-16 0)
(5.94102e-14 2.30106e-17 0)
(5.12516e-14 1.4224e-16 0)
(4.26949e-14 -2.88787e-16 0)
(3.22559e-14 -7.49934e-16 0)
(2.02145e-14 -5.57105e-16 0)
(7.23233e-15 -5.0676e-16 0)
(-2.8132e-16 2.93745e-15 0)
(-1.21079e-15 7.77741e-15 0)
(-2.89795e-15 1.19161e-14 0)
(-4.06053e-15 1.50315e-14 0)
(-5.06649e-15 1.79117e-14 0)
(-7.71478e-15 2.08772e-14 0)
(-1.12544e-14 2.36821e-14 0)
(-1.42822e-14 2.69944e-14 0)
(-1.6989e-14 2.93596e-14 0)
(-1.94991e-14 3.08101e-14 0)
(-2.12238e-14 3.15988e-14 0)
(-2.23952e-14 3.29211e-14 0)
(-2.33326e-14 3.46146e-14 0)
(-2.51886e-14 3.60305e-14 0)
(-2.80143e-14 3.69427e-14 0)
(-3.05916e-14 3.68494e-14 0)
(-3.27662e-14 3.63499e-14 0)
(-3.52897e-14 3.61694e-14 0)
(-3.72795e-14 3.58563e-14 0)
(-3.70975e-14 3.474e-14 0)
(-3.44977e-14 3.36704e-14 0)
(-3.07978e-14 3.22317e-14 0)
(-2.79973e-14 3.17722e-14 0)
(-2.57211e-14 3.12595e-14 0)
(-2.28174e-14 2.9402e-14 0)
(-1.93504e-14 2.72217e-14 0)
(-1.54804e-14 2.59075e-14 0)
(-1.06303e-14 2.41812e-14 0)
(-6.12937e-15 2.27425e-14 0)
(-3.21771e-15 2.09116e-14 0)
(-1.2117e-15 1.86942e-14 0)
(4.31136e-16 1.61206e-14 0)
(2.82888e-15 1.31759e-14 0)
(6.72296e-15 9.95299e-15 0)
(1.11003e-14 7.02335e-15 0)
(1.48335e-14 4.71055e-15 0)
(1.74056e-14 3.27429e-15 0)
(2.02266e-14 2.23212e-15 0)
(2.56316e-14 5.36826e-16 0)
(3.19079e-14 -8.23783e-16 0)
(3.74026e-14 -2.52813e-15 0)
(4.26987e-14 -4.06925e-15 0)
(4.80914e-14 -5.53378e-15 0)
(5.34954e-14 -6.86072e-15 0)
(5.89537e-14 -7.04956e-15 0)
(6.40568e-14 -6.72896e-15 0)
(6.86318e-14 -6.88988e-15 0)
(7.40955e-14 -7.83387e-15 0)
(7.99629e-14 -8.49885e-15 0)
(8.56217e-14 -9.021e-15 0)
(9.01779e-14 -9.2711e-15 0)
(9.3431e-14 -9.34719e-15 0)
(9.75578e-14 -9.23114e-15 0)
(1.02778e-13 -9.3055e-15 0)
(1.08816e-13 -9.17116e-15 0)
(1.14933e-13 -8.86905e-15 0)
(1.19856e-13 -9.22555e-15 0)
(1.23389e-13 -1.03329e-14 0)
(1.26086e-13 -1.16161e-14 0)
(1.29204e-13 -1.20744e-14 0)
(1.32777e-13 -1.2047e-14 0)
(1.35498e-13 -1.25318e-14 0)
(1.36982e-13 -1.30131e-14 0)
(1.37659e-13 -1.29309e-14 0)
(1.38478e-13 -1.32492e-14 0)
(1.398e-13 -1.37896e-14 0)
(1.42115e-13 -1.30813e-14 0)
(1.45622e-13 -1.1897e-14 0)
(1.48612e-13 -1.1044e-14 0)
(1.50976e-13 -1.01437e-14 0)
(1.53017e-13 -9.25937e-15 0)
(1.54376e-13 -8.61391e-15 0)
(1.54927e-13 -8.31282e-15 0)
(1.54935e-13 -8.3097e-15 0)
(1.56128e-13 -7.76059e-15 0)
(1.57488e-13 -7.28246e-15 0)
(1.56978e-13 -6.36501e-15 0)
(1.54688e-13 -4.734e-15 0)
(1.5093e-13 -3.0335e-15 0)
(1.46527e-13 -1.35395e-15 0)
(1.41314e-13 -1.57602e-16 0)
(1.35907e-13 4.00796e-16 0)
(1.31792e-13 9.23684e-16 0)
(1.29488e-13 1.28737e-15 0)
(1.284e-13 1.34425e-15 0)
(1.2661e-13 1.40721e-15 0)
(1.22983e-13 1.40784e-15 0)
(1.17472e-13 1.34407e-15 0)
(1.11034e-13 1.15408e-15 0)
(1.03714e-13 1.70945e-15 0)
(9.58724e-14 1.58937e-15 0)
(8.85873e-14 1.04934e-15 0)
(8.14046e-14 4.65185e-16 0)
(7.3656e-14 -3.34775e-16 0)
(6.4913e-14 -7.07978e-16 0)
(5.566e-14 -3.68215e-16 0)
(4.58504e-14 -6.72098e-16 0)
(3.47185e-14 -9.62864e-16 0)
(2.16757e-14 -7.53334e-16 0)
(7.89802e-15 -4.67414e-16 0)
(-3.97209e-16 3.05342e-15 0)
(-1.52295e-15 8.39942e-15 0)
(-3.46787e-15 1.31513e-14 0)
(-5.08482e-15 1.74938e-14 0)
(-6.22338e-15 2.05522e-14 0)
(-8.65104e-15 2.33653e-14 0)
(-1.18941e-14 2.65346e-14 0)
(-1.4994e-14 2.97671e-14 0)
(-1.84981e-14 3.20583e-14 0)
(-2.16111e-14 3.38402e-14 0)
(-2.3175e-14 3.49494e-14 0)
(-2.3871e-14 3.63254e-14 0)
(-2.48717e-14 3.82107e-14 0)
(-2.70916e-14 3.8919e-14 0)
(-3.03081e-14 3.95566e-14 0)
(-3.33941e-14 4.01388e-14 0)
(-3.55046e-14 3.99566e-14 0)
(-3.76097e-14 3.95785e-14 0)
(-3.99299e-14 3.94921e-14 0)
(-4.02688e-14 3.9003e-14 0)
(-3.78055e-14 3.77103e-14 0)
(-3.37667e-14 3.52906e-14 0)
(-3.02919e-14 3.36461e-14 0)
(-2.79689e-14 3.26849e-14 0)
(-2.52163e-14 3.10668e-14 0)
(-2.14461e-14 2.88858e-14 0)
(-1.71159e-14 2.72845e-14 0)
(-1.20775e-14 2.62825e-14 0)
(-7.54498e-15 2.42995e-14 0)
(-4.52195e-15 2.15644e-14 0)
(-2.29904e-15 1.89549e-14 0)
(-5.17324e-16 1.60916e-14 0)
(1.9589e-15 1.33244e-14 0)
(6.07901e-15 1.08154e-14 0)
(1.10013e-14 8.02786e-15 0)
(1.55261e-14 5.46533e-15 0)
(1.88836e-14 3.1206e-15 0)
(2.19414e-14 1.98106e-15 0)
(2.72383e-14 4.38744e-16 0)
(3.38977e-14 -1.8785e-15 0)
(3.99867e-14 -3.60603e-15 0)
(4.58331e-14 -5.14208e-15 0)
(5.16402e-14 -6.38417e-15 0)
(5.78274e-14 -7.55677e-15 0)
(6.43875e-14 -7.68129e-15 0)
(6.98544e-14 -7.1679e-15 0)
(7.4306e-14 -7.23817e-15 0)
(7.97734e-14 -7.98294e-15 0)
(8.61893e-14 -8.91712e-15 0)
(9.24676e-14 -9.12869e-15 0)
(9.73848e-14 -9.51607e-15 0)
(1.01272e-13 -9.99153e-15 0)
(1.05846e-13 -1.00721e-14 0)
(1.11269e-13 -9.81392e-15 0)
(1.17646e-13 -9.32725e-15 0)
(1.23929e-13 -9.55155e-15 0)
(1.28888e-13 -1.00283e-14 0)
(1.32575e-13 -1.08947e-14 0)
(1.35801e-13 -1.18893e-14 0)
(1.39477e-13 -1.23741e-14 0)
(1.43e-13 -1.25915e-14 0)
(1.45614e-13 -1.33706e-14 0)
(1.47467e-13 -1.42272e-14 0)
(1.48474e-13 -1.46008e-14 0)
(1.49281e-13 -1.4957e-14 0)
(1.5125e-13 -1.51729e-14 0)
(1.54531e-13 -1.41286e-14 0)
(1.58244e-13 -1.27678e-14 0)
(1.61365e-13 -1.16208e-14 0)
(1.6371e-13 -1.0103e-14 0)
(1.65441e-13 -9.2263e-15 0)
(1.66733e-13 -8.62258e-15 0)
(1.67192e-13 -8.22625e-15 0)
(1.67316e-13 -8.09361e-15 0)
(1.68608e-13 -7.66786e-15 0)
(1.69986e-13 -7.16097e-15 0)
(1.69846e-13 -5.88758e-15 0)
(1.67719e-13 -4.08856e-15 0)
(1.63758e-13 -2.18004e-15 0)
(1.58945e-13 -2.92519e-16 0)
(1.53144e-13 8.80959e-16 0)
(1.47207e-13 1.64442e-15 0)
(1.42702e-13 2.02197e-15 0)
(1.39905e-13 2.73941e-15 0)
(1.38269e-13 2.99651e-15 0)
(1.36013e-13 2.40584e-15 0)
(1.32086e-13 1.98432e-15 0)
(1.26175e-13 1.77076e-15 0)
(1.19455e-13 1.50509e-15 0)
(1.11819e-13 1.39822e-15 0)
(1.0315e-13 1.50162e-15 0)
(9.50528e-14 1.20352e-15 0)
(8.71433e-14 5.61988e-16 0)
(7.87035e-14 -1.78529e-16 0)
(6.95921e-14 -6.33022e-16 0)
(5.97992e-14 -4.5852e-16 0)
(4.89391e-14 -8.48847e-16 0)
(3.68848e-14 -1.30157e-15 0)
(2.31326e-14 -1.16133e-15 0)
(8.42125e-15 -1.76133e-16 0)
(-5.49366e-16 3.46937e-15 0)
(-1.87563e-15 9.25853e-15 0)
(-3.74141e-15 1.44253e-14 0)
(-5.69622e-15 1.96285e-14 0)
(-7.46131e-15 2.32866e-14 0)
(-9.73011e-15 2.6113e-14 0)
(-1.27149e-14 2.94921e-14 0)
(-1.61816e-14 3.24516e-14 0)
(-1.97816e-14 3.43823e-14 0)
(-2.30157e-14 3.65191e-14 0)
(-2.49155e-14 3.84402e-14 0)
(-2.54049e-14 3.99475e-14 0)
(-2.67221e-14 4.13243e-14 0)
(-2.93761e-14 4.17625e-14 0)
(-3.21639e-14 4.22179e-14 0)
(-3.52038e-14 4.27104e-14 0)
(-3.79348e-14 4.33353e-14 0)
(-4.02238e-14 4.28183e-14 0)
(-4.21048e-14 4.22322e-14 0)
(-4.25771e-14 4.2033e-14 0)