/*--------------------------------*- C++ -*----------------------------------*\
| =========                 |                                                 |
| \\      /  F ield         | OpenFOAM: The Open Source CFD Toolbox           |
|  \\    /   O peration     | Version:  v2012                                 |
|   \\  /    A nd           | Website:  www.openfoam.com                      |
|    \\/     M anipulation  |                                                 |
\*---------------------------------------------------------------------------*/
FoamFile
{
    version     2.0;
    format      ascii;
    class       volScalarField;
    location    "0";
    object      pRec;
}
// * * * * * * * * * * * * * * * * * * * * * * * * * * * * * * * * * * * * * //

dimensions      [0 2 -2 0 0 0 0];


internalField   nonuniform List<scalar> 
4000
(
-7.05843e-13
-6.99989e-13
-7.01308e-13
-7.04632e-13
-7.02302e-13
-7.02842e-13
-7.01577e-13
-6.96352e-13
-6.85559e-13
-6.81746e-13
-6.83176e-13
-6.77451e-13
-6.65489e-13
-6.50619e-13
-6.36766e-13
-6.30005e-13
-6.25075e-13
-6.22315e-13
-6.14715e-13
-6.00224e-13
-5.88951e-13
-5.81775e-13
-5.76201e-13
-5.69167e-13
-5.58376e-13
-5.47374e-13
-5.45683e-13
-5.39786e-13
-5.33243e-13
-5.22203e-13
-5.05302e-13
-4.98326e-13
-4.96611e-13
-4.95062e-13
-4.90191e-13
-4.87724e-13
-4.78654e-13
-4.59262e-13
-4.41115e-13
-4.37701e-13
-4.38907e-13
-4.37502e-13
-4.38107e-13
-4.31535e-13
-4.19559e-13
-4.10513e-13
-4.01675e-13
-3.92208e-13
-3.82501e-13
-3.74527e-13
-3.65097e-13
-3.56731e-13
-3.49056e-13
-3.39833e-13
-3.31266e-13
-3.18221e-13
-3.1145e-13
-3.08525e-13
-3.05984e-13
-3.03054e-13
-2.94825e-13
-2.87455e-13
-2.77124e-13
-2.64753e-13
-2.56568e-13
-2.49231e-13
-2.45043e-13
-2.37089e-13
-2.2635e-13
-2.18653e-13
-2.11306e-13
-2.0494e-13
-1.91924e-13
-1.85053e-13
-1.84432e-13
-1.80202e-13
-1.77004e-13
-1.70868e-13
-1.62111e-13
-1.49133e-13
-1.3615e-13
-1.30561e-13
-1.22052e-13
-1.18034e-13
-1.14163e-13
-1.08405e-13
-9.86752e-14
-9.05579e-14
-8.69501e-14
-8.30932e-14
-7.67503e-14
-7.02784e-14
-6.2801e-14
-5.65837e-14
-4.7504e-14
-3.8064e-14
-2.95923e-14
-2.11484e-14
-1.21033e-14
-3.02045e-15
-7.02226e-13
-7.01046e-13
-7.04389e-13
-7.04289e-13
-7.04863e-13
-7.01383e-13
-6.98515e-13
-6.95992e-13
-6.90477e-13
-6.85507e-13
-6.79439e-13
-6.73638e-13
-6.63577e-13
-6.51524e-13
-6.40099e-13
-6.33322e-13
-6.28224e-13
-6.2083e-13
-6.11271e-13
-6.03625e-13
-5.92888e-13
-5.80511e-13
-5.72182e-13
-5.65704e-13
-5.56145e-13
-5.49927e-13
-5.46861e-13
-5.40664e-13
-5.31976e-13
-5.1821e-13
-5.08643e-13
-5.01914e-13
-4.96008e-13
-4.9175e-13
-4.87518e-13
-4.83855e-13
-4.76481e-13
-4.6326e-13
-4.48448e-13
-4.42114e-13
-4.38726e-13
-4.36595e-13
-4.34631e-13
-4.29412e-13
-4.21441e-13
-4.10773e-13
-4.00146e-13
-3.92045e-13
-3.82875e-13
-3.71912e-13
-3.63964e-13
-3.55816e-13
-3.4896e-13
-3.40936e-13
-3.32422e-13
-3.21109e-13
-3.11363e-13
-3.06657e-13
-3.04218e-13
-3.01557e-13
-2.97149e-13
-2.87456e-13
-2.78347e-13
-2.66572e-13
-2.58222e-13
-2.48902e-13
-2.425e-13
-2.36252e-13
-2.28463e-13
-2.20153e-13
-2.11756e-13
-2.04914e-13
-1.97182e-13
-1.88195e-13
-1.84091e-13
-1.76801e-13
-1.75576e-13
-1.68572e-13
-1.59016e-13
-1.47109e-13
-1.37268e-13
-1.32119e-13
-1.26097e-13
-1.2065e-13
-1.11921e-13
-1.05913e-13
-9.68139e-14
-8.84781e-14
-8.52197e-14
-8.15771e-14
-7.84558e-14
-7.29051e-14
-6.67591e-14
-5.47185e-14
-4.59129e-14
-3.88094e-14
-2.92209e-14
-2.13244e-14
-1.38689e-14
-4.89086e-15
-7.0187e-13
-7.00862e-13
-7.03123e-13
-7.06525e-13
-7.07603e-13
-7.0283e-13
-6.97629e-13
-6.9485e-13
-6.88839e-13
-6.85147e-13
-6.79712e-13
-6.72918e-13
-6.63278e-13
-6.52834e-13
-6.42015e-13
-6.33805e-13
-6.27814e-13
-6.20349e-13
-6.11753e-13
-6.02522e-13
-5.9156e-13
-5.82228e-13
-5.73212e-13
-5.66561e-13
-5.58097e-13
-5.52417e-13
-5.47799e-13
-5.39742e-13
-5.29638e-13
-5.16121e-13
-5.09311e-13
-5.02283e-13
-4.96132e-13
-4.93243e-13
-4.8941e-13
-4.85229e-13
-4.75259e-13
-4.65025e-13
-4.53635e-13
-4.42369e-13
-4.37822e-13
-4.3311e-13
-4.33832e-13
-4.30084e-13
-4.22731e-13
-4.11206e-13
-3.98981e-13
-3.89211e-13
-3.83372e-13
-3.78049e-13
-3.6629e-13
-3.56043e-13
-3.46594e-13
-3.37769e-13
-3.30652e-13
-3.22251e-13
-3.1148e-13
-3.08899e-13
-3.09268e-13
-3.02855e-13
-2.94756e-13
-2.82273e-13
-2.7372e-13
-2.68012e-13
-2.61199e-13
-2.52766e-13
-2.45455e-13
-2.34966e-13
-2.2711e-13
-2.17075e-13
-2.08633e-13
-2.02079e-13
-1.93429e-13
-1.87711e-13
-1.83581e-13
-1.79431e-13
-1.74232e-13
-1.68638e-13
-1.58383e-13
-1.47782e-13
-1.42789e-13
-1.34393e-13
-1.22087e-13
-1.16708e-13
-1.11427e-13
-1.08243e-13
-1.01872e-13
-9.19294e-14
-8.51122e-14
-7.94254e-14
-7.59752e-14
-7.21809e-14
-6.48401e-14
-5.60369e-14
-4.51439e-14
-3.60144e-14
-2.97632e-14
-2.24003e-14
-1.77278e-14
-5.62716e-15
-7.02981e-13
-7.04266e-13
-7.05135e-13
-7.01171e-13
-7.058e-13
-6.9969e-13
-6.97596e-13
-6.95117e-13
-6.9308e-13
-6.87657e-13
-6.77803e-13
-6.67937e-13
-6.59723e-13
-6.53834e-13
-6.51221e-13
-6.40579e-13
-6.25787e-13
-6.16722e-13
-6.10925e-13
-6.01403e-13
-5.92214e-13
-5.84349e-13
-5.74037e-13
-5.60283e-13
-5.53128e-13
-5.50003e-13
-5.47078e-13
-5.41676e-13
-5.29428e-13
-5.20431e-13
-5.13553e-13
-5.05706e-13
-4.96953e-13
-4.91077e-13
-4.84895e-13
-4.84653e-13
-4.75406e-13
-4.63475e-13
-4.5481e-13
-4.45249e-13
-4.41379e-13
-4.38602e-13
-4.3369e-13
-4.27096e-13
-4.17444e-13
-4.07192e-13
-3.98715e-13
-3.93382e-13
-3.85049e-13
-3.7128e-13
-3.61324e-13
-3.55094e-13
-3.48858e-13
-3.42034e-13
-3.30024e-13
-3.23163e-13
-3.13698e-13
-3.08769e-13
-3.08135e-13
-3.017e-13
-2.92959e-13
-2.83497e-13
-2.78127e-13
-2.70565e-13
-2.60528e-13
-2.51891e-13
-2.44188e-13
-2.34977e-13
-2.27862e-13
-2.19574e-13
-2.12654e-13
-2.05562e-13
-1.96656e-13
-1.89218e-13
-1.83025e-13
-1.77878e-13
-1.74723e-13
-1.67734e-13
-1.58228e-13
-1.48519e-13
-1.41376e-13
-1.35265e-13
-1.24335e-13
-1.14796e-13
-1.10543e-13
-1.05744e-13
-9.92575e-14
-9.15009e-14
-8.40961e-14
-7.99315e-14
-7.80859e-14
-7.24219e-14
-6.6741e-14
-5.45416e-14
-4.53333e-14
-3.86513e-14
-3.13897e-14
-2.14642e-14
-1.42486e-14
-5.13753e-15
-7.04271e-13
-7.0885e-13
-7.05241e-13
-7.003e-13
-6.96478e-13
-7.00256e-13
-7.0058e-13
-6.98939e-13
-6.92252e-13
-6.84434e-13
-6.75536e-13
-6.69708e-13
-6.59522e-13
-6.51251e-13
-6.4994e-13
-6.44063e-13
-6.32892e-13
-6.21716e-13
-6.08527e-13
-5.95966e-13
-5.90854e-13
-5.83358e-13
-5.68611e-13
-5.59063e-13
-5.56409e-13
-5.5336e-13
-5.48882e-13
-5.40447e-13
-5.31796e-13
-5.22869e-13
-5.14263e-13
-5.07092e-13
-4.97965e-13
-4.91714e-13
-4.85907e-13
-4.83772e-13
-4.74389e-13
-4.63376e-13
-4.52096e-13
-4.44576e-13
-4.41348e-13
-4.40904e-13
-4.33993e-13
-4.25538e-13
-4.14956e-13
-4.05061e-13
-3.97257e-13
-3.91628e-13
-3.83766e-13
-3.75093e-13
-3.65116e-13
-3.58173e-13
-3.49947e-13
-3.41301e-13
-3.30848e-13
-3.21657e-13
-3.14995e-13
-3.10352e-13
-3.07062e-13
-3.0008e-13
-2.92561e-13
-2.84056e-13
-2.75681e-13
-2.69549e-13
-2.6408e-13
-2.57513e-13
-2.49485e-13
-2.36492e-13
-2.27504e-13
-2.17079e-13
-2.08763e-13
-2.02553e-13
-1.96288e-13
-1.89461e-13
-1.79588e-13
-1.74683e-13
-1.72799e-13
-1.67442e-13
-1.60597e-13
-1.50485e-13
-1.42815e-13
-1.37541e-13
-1.24644e-13
-1.14011e-13
-1.07059e-13
-1.02289e-13
-9.86889e-14
-9.44789e-14
-8.65474e-14
-8.15184e-14
-7.69272e-14
-7.2068e-14
-6.43978e-14
-5.85706e-14
-5.02965e-14
-3.92141e-14
-3.15874e-14
-2.3883e-14
-1.37846e-14
-2.67221e-15
-7.00708e-13
-7.10616e-13
-7.07043e-13
-6.97435e-13
-7.01332e-13
-7.05398e-13
-7.03575e-13
-6.99176e-13
-6.9044e-13
-6.76506e-13
-6.72625e-13
-6.68428e-13
-6.64267e-13
-6.53634e-13
-6.46702e-13
-6.46003e-13
-6.34813e-13
-6.24398e-13
-6.13436e-13
-5.99256e-13
-5.88461e-13
-5.76803e-13
-5.59083e-13
-5.55548e-13
-5.5695e-13
-5.56824e-13
-5.48834e-13
-5.39099e-13
-5.30733e-13
-5.26218e-13
-5.16089e-13
-5.06434e-13
-4.97708e-13
-4.95008e-13
-4.91909e-13
-4.82568e-13
-4.71997e-13
-4.63029e-13
-4.52245e-13
-4.47162e-13
-4.44332e-13
-4.41454e-13
-4.32252e-13
-4.26046e-13
-4.15259e-13
-4.0297e-13
-3.93065e-13
-3.87732e-13
-3.83935e-13
-3.74975e-13
-3.67611e-13
-3.5753e-13
-3.48297e-13
-3.38997e-13
-3.29271e-13
-3.23392e-13
-3.17853e-13
-3.11839e-13
-3.05288e-13
-3.00948e-13
-2.94648e-13
-2.84975e-13
-2.76744e-13
-2.69478e-13
-2.60243e-13
-2.55711e-13
-2.50414e-13
-2.37726e-13
-2.28572e-13
-2.20355e-13
-2.10406e-13
-2.02836e-13
-1.97718e-13
-1.91488e-13
-1.81631e-13
-1.77296e-13
-1.71418e-13
-1.64056e-13
-1.59317e-13
-1.53016e-13
-1.4562e-13
-1.36623e-13
-1.22288e-13
-1.11605e-13
-1.07615e-13
-1.04814e-13
-1.01077e-13
-9.22836e-14
-8.55964e-14
-8.11502e-14
-7.64878e-14
-7.22131e-14
-6.26062e-14
-5.78887e-14
-5.05845e-14
-4.28167e-14
-3.17196e-14
-2.26224e-14
-1.16642e-14
-1.4785e-15
-7.06274e-13
-7.07273e-13
-7.06597e-13
-7.02973e-13
-7.003e-13
-7.03891e-13
-7.03185e-13
-6.96762e-13
-6.88485e-13
-6.77028e-13
-6.68474e-13
-6.67468e-13
-6.66506e-13
-6.5504e-13
-6.48003e-13
-6.42835e-13
-6.38752e-13
-6.30017e-13
-6.10504e-13
-5.91849e-13
-5.75329e-13
-5.71651e-13
-5.69768e-13
-5.67423e-13
-5.62734e-13
-5.56328e-13
-5.45364e-13
-5.36383e-13
-5.32748e-13
-5.28238e-13
-5.19274e-13
-5.05497e-13
-4.98993e-13
-4.90759e-13
-4.85765e-13
-4.8001e-13
-4.7393e-13
-4.68666e-13
-4.57759e-13
-4.45838e-13
-4.3908e-13
-4.34742e-13
-4.30094e-13
-4.25948e-13
-4.1925e-13
-4.08486e-13
-3.96576e-13
-3.86919e-13
-3.80564e-13
-3.74531e-13
-3.66987e-13
-3.6084e-13
-3.51683e-13
-3.39511e-13
-3.30877e-13
-3.24586e-13
-3.17687e-13
-3.05956e-13
-3.01178e-13
-3.00139e-13
-2.99113e-13
-2.90899e-13
-2.79256e-13
-2.6686e-13
-2.57173e-13
-2.52233e-13
-2.4474e-13
-2.33146e-13
-2.23848e-13
-2.19528e-13
-2.19187e-13
-2.09567e-13
-1.99109e-13
-1.94396e-13
-1.84584e-13
-1.75202e-13
-1.67304e-13
-1.60295e-13
-1.54925e-13
-1.50952e-13
-1.44609e-13
-1.35701e-13
-1.27601e-13
-1.18311e-13
-1.1171e-13
-1.01095e-13
-9.78444e-14
-9.43185e-14
-8.60043e-14
-8.29355e-14
-7.5961e-14
-6.74276e-14
-6.29977e-14
-5.75006e-14
-5.10356e-14
-4.02437e-14
-3.14884e-14
-2.11803e-14
-1.15823e-14
-3.82583e-15
-7.0578e-13
-7.0555e-13
-7.03268e-13
-7.03887e-13
-7.06788e-13
-7.06421e-13
-7.03113e-13
-6.96113e-13
-6.86879e-13
-6.78608e-13
-6.722e-13
-6.66307e-13
-6.62704e-13
-6.52891e-13
-6.48774e-13
-6.42642e-13
-6.38889e-13
-6.2914e-13
-6.05264e-13
-5.93161e-13
-5.88795e-13
-5.81841e-13
-5.71102e-13
-5.61141e-13
-5.58201e-13
-5.5196e-13
-5.40588e-13
-5.34249e-13
-5.29797e-13
-5.25556e-13
-5.1901e-13
-5.11428e-13
-5.05243e-13
-4.9879e-13
-4.8687e-13
-4.78904e-13
-4.72565e-13
-4.63532e-13
-4.55238e-13
-4.46013e-13
-4.40477e-13
-4.38854e-13
-4.31612e-13
-4.30046e-13
-4.24097e-13
-4.08619e-13
-3.92811e-13
-3.78571e-13
-3.77443e-13
-3.76565e-13
-3.72473e-13
-3.64509e-13
-3.51467e-13
-3.39575e-13
-3.28213e-13
-3.21606e-13
-3.18107e-13
-3.12402e-13
-3.03434e-13
-2.97019e-13
-2.94337e-13
-2.875e-13
-2.80203e-13
-2.71687e-13
-2.63178e-13
-2.54462e-13
-2.45425e-13
-2.35003e-13
-2.29098e-13
-2.22086e-13
-2.14768e-13
-2.09501e-13
-1.98112e-13
-1.85534e-13
-1.78327e-13
-1.75792e-13
-1.71488e-13
-1.6423e-13
-1.60038e-13
-1.54168e-13
-1.45226e-13
-1.35862e-13
-1.23722e-13
-1.12758e-13
-1.04081e-13
-1.00491e-13
-9.88621e-14
-9.58937e-14
-8.83282e-14
-8.13374e-14
-7.34293e-14
-6.79052e-14
-6.34748e-14
-5.87318e-14
-4.937e-14
-3.85885e-14
-3.15424e-14
-2.26531e-14
-1.29646e-14
-2.12791e-15
-7.08344e-13
-7.10454e-13
-7.0501e-13
-6.98092e-13
-7.02511e-13
-7.05646e-13
-7.05473e-13
-6.97548e-13
-6.84143e-13
-6.80406e-13
-6.73189e-13
-6.62754e-13
-6.56615e-13
-6.52664e-13
-6.49633e-13
-6.45333e-13
-6.38471e-13
-6.26854e-13
-6.091e-13
-5.95571e-13
-5.87731e-13
-5.79406e-13
-5.75307e-13
-5.67719e-13
-5.57988e-13
-5.47948e-13
-5.39709e-13
-5.34502e-13
-5.33159e-13
-5.26733e-13
-5.19983e-13
-5.12664e-13
-5.01886e-13
-4.91401e-13
-4.87387e-13
-4.80052e-13
-4.71467e-13
-4.62429e-13
-4.57766e-13
-4.52587e-13
-4.47123e-13
-4.40232e-13
-4.28409e-13
-4.19861e-13
-4.16554e-13
-4.09319e-13
-3.98526e-13
-3.87672e-13
-3.81009e-13
-3.7382e-13
-3.66928e-13
-3.59773e-13
-3.49912e-13
-3.40946e-13
-3.32782e-13
-3.27661e-13
-3.19132e-13
-3.12095e-13
-3.04163e-13
-2.97873e-13
-2.91328e-13
-2.84722e-13
-2.78686e-13
-2.70961e-13
-2.60281e-13
-2.4997e-13
-2.43763e-13
-2.35731e-13
-2.28015e-13
-2.20814e-13
-2.13341e-13
-2.09962e-13
-2.0238e-13
-1.92139e-13
-1.80891e-13
-1.7623e-13
-1.72346e-13
-1.65758e-13
-1.60508e-13
-1.51388e-13
-1.45771e-13
-1.36686e-13
-1.23905e-13
-1.14291e-13
-1.06447e-13
-1.01283e-13
-9.97288e-14
-9.50454e-14
-8.75999e-14
-8.13039e-14
-7.31234e-14
-6.698e-14
-6.03624e-14
-5.57707e-14
-4.89798e-14
-3.98215e-14
-3.00149e-14
-1.85619e-14
-8.67375e-15
7.94379e-16
-7.08507e-13
-7.07824e-13
-7.07605e-13
-7.04503e-13
-7.00927e-13
-7.03555e-13
-7.01828e-13
-7.00389e-13
-6.91936e-13
-6.76494e-13
-6.67654e-13
-6.5982e-13
-6.57827e-13
-6.56034e-13
-6.51603e-13
-6.44648e-13
-6.34181e-13
-6.269e-13
-6.16406e-13
-6.0046e-13
-5.87932e-13
-5.74926e-13
-5.69656e-13
-5.62318e-13
-5.59714e-13
-5.53431e-13
-5.42978e-13
-5.37226e-13
-5.31627e-13
-5.26478e-13
-5.21211e-13
-5.12666e-13
-5.02021e-13
-4.90256e-13
-4.83839e-13
-4.78448e-13
-4.74191e-13
-4.64043e-13
-4.58388e-13
-4.53225e-13
-4.43686e-13
-4.34326e-13
-4.27702e-13
-4.20478e-13
-4.19394e-13
-4.13861e-13
-4.02858e-13
-3.90019e-13
-3.81184e-13
-3.71127e-13
-3.63717e-13
-3.59644e-13
-3.51596e-13
-3.42235e-13
-3.33427e-13
-3.25612e-13
-3.18473e-13
-3.1093e-13
-3.03913e-13
-3.00192e-13
-2.95264e-13
-2.91525e-13
-2.84064e-13
-2.71493e-13
-2.56891e-13
-2.42542e-13
-2.35498e-13
-2.30688e-13
-2.27254e-13
-2.27322e-13
-2.21288e-13
-2.12603e-13
-2.05351e-13
-1.94804e-13
-1.82134e-13
-1.73269e-13
-1.68841e-13
-1.63419e-13
-1.59576e-13
-1.51245e-13
-1.45165e-13
-1.36993e-13
-1.25658e-13
-1.1787e-13
-1.08896e-13
-1.00284e-13
-9.60718e-14
-9.02558e-14
-8.67712e-14
-8.21467e-14
-7.1607e-14
-6.26722e-14
-5.74825e-14
-5.287e-14
-4.41117e-14
-3.50487e-14
-2.63485e-14
-1.65453e-14
-6.44582e-15
-2.10066e-16
-7.06828e-13
-7.06181e-13
-7.05349e-13
-7.06725e-13
-7.06905e-13
-7.01398e-13
-6.99268e-13
-6.96524e-13
-6.90038e-13
-6.82078e-13
-6.68453e-13
-6.58307e-13
-6.57402e-13
-6.57147e-13
-6.51816e-13
-6.47384e-13
-6.34292e-13
-6.25272e-13
-6.16326e-13
-6.01912e-13
-5.92357e-13
-5.76269e-13
-5.65699e-13
-5.61113e-13
-5.54844e-13
-5.49879e-13
-5.45491e-13
-5.3888e-13
-5.33588e-13
-5.28675e-13
-5.20264e-13
-5.11243e-13
-5.00944e-13
-4.92653e-13
-4.88147e-13
-4.79933e-13
-4.71413e-13
-4.6438e-13
-4.60329e-13
-4.51684e-13
-4.43404e-13
-4.34014e-13
-4.27699e-13
-4.25578e-13
-4.22961e-13
-4.12345e-13
-3.99398e-13
-3.86183e-13
-3.77777e-13
-3.69654e-13
-3.66888e-13
-3.61619e-13
-3.51149e-13
-3.41737e-13
-3.31861e-13
-3.28559e-13
-3.21394e-13
-3.13386e-13
-3.02985e-13
-2.93751e-13
-2.92012e-13
-2.84086e-13
-2.78533e-13
-2.74302e-13
-2.59912e-13
-2.45382e-13
-2.35365e-13
-2.29995e-13
-2.27698e-13
-2.30627e-13
-2.22799e-13
-2.15278e-13
-2.06075e-13
-1.93816e-13
-1.7988e-13
-1.69206e-13
-1.68486e-13
-1.67426e-13
-1.63588e-13
-1.55142e-13
-1.49247e-13
-1.40742e-13
-1.25371e-13
-1.14144e-13
-1.03505e-13
-9.45237e-14
-9.69643e-14
-9.53359e-14
-8.74098e-14
-8.0487e-14
-6.99587e-14
-6.37386e-14
-5.70498e-14
-5.08259e-14
-4.59137e-14
-3.84736e-14
-2.24304e-14
-7.43509e-15
1.36098e-15
-1.68719e-15
-7.10315e-13
-7.08348e-13
-7.06089e-13
-7.07825e-13
-7.06185e-13
-7.00898e-13
-7.00916e-13
-6.9744e-13
-6.89506e-13
-6.79008e-13
-6.70269e-13
-6.61992e-13
-6.53784e-13
-6.50382e-13
-6.46843e-13
-6.40705e-13
-6.37641e-13
-6.31094e-13
-6.18815e-13
-6.03516e-13
-5.91628e-13
-5.83626e-13
-5.72151e-13
-5.6189e-13
-5.54847e-13
-5.44217e-13
-5.40767e-13
-5.38085e-13
-5.34964e-13
-5.31351e-13
-5.22657e-13
-5.12071e-13
-4.99732e-13
-4.90257e-13
-4.8451e-13
-4.77533e-13
-4.73677e-13
-4.67414e-13
-4.62889e-13
-4.50112e-13
-4.42009e-13
-4.31057e-13
-4.27399e-13
-4.28076e-13
-4.21184e-13
-4.12398e-13
-4.00385e-13
-3.89995e-13
-3.79153e-13
-3.69523e-13
-3.62544e-13
-3.59638e-13
-3.51046e-13
-3.44798e-13
-3.37286e-13
-3.27528e-13
-3.1943e-13
-3.10888e-13
-3.02691e-13
-2.96803e-13
-2.94654e-13
-2.94598e-13
-2.83425e-13
-2.70941e-13
-2.51779e-13
-2.41679e-13
-2.35224e-13
-2.32284e-13
-2.27776e-13
-2.25903e-13
-2.19713e-13
-2.18842e-13
-2.12845e-13
-1.99938e-13
-1.78545e-13
-1.61814e-13
-1.6124e-13
-1.68565e-13
-1.66034e-13
-1.55264e-13
-1.4822e-13
-1.37725e-13
-1.27618e-13
-1.19019e-13
-1.08613e-13
-9.76543e-14
-9.15623e-14
-9.09194e-14
-8.57355e-14
-7.89928e-14
-6.78445e-14
-6.30656e-14
-5.70475e-14
-4.95861e-14
-4.12902e-14
-3.42878e-14
-2.13048e-14
-9.30615e-15
-2.6985e-15
-1.86001e-15
-7.07854e-13
-7.07672e-13
-6.997e-13
-7.09195e-13
-7.08735e-13
-7.05524e-13
-6.99115e-13
-6.91935e-13
-6.84422e-13
-6.73798e-13
-6.68663e-13
-6.63242e-13
-6.62339e-13
-6.55861e-13
-6.49035e-13
-6.44713e-13
-6.39737e-13
-6.32613e-13
-6.19812e-13
-6.04792e-13
-5.8482e-13
-5.70477e-13
-5.60884e-13
-5.59545e-13
-5.55113e-13
-5.5077e-13
-5.43972e-13
-5.37642e-13
-5.35867e-13
-5.33587e-13
-5.26083e-13
-5.12914e-13
-5.02686e-13
-4.94496e-13
-4.90106e-13
-4.79685e-13
-4.70236e-13
-4.65795e-13
-4.60204e-13
-4.50053e-13
-4.40664e-13
-4.36764e-13
-4.32424e-13
-4.26667e-13
-4.15203e-13
-4.05945e-13
-3.98398e-13
-3.90468e-13
-3.81389e-13
-3.73536e-13
-3.66659e-13
-3.60031e-13
-3.48365e-13
-3.37928e-13
-3.39713e-13
-3.39007e-13
-3.22931e-13
-3.07605e-13
-2.98797e-13
-2.90446e-13
-2.88101e-13
-2.85336e-13
-2.84375e-13
-2.7418e-13
-2.56776e-13
-2.47414e-13
-2.3419e-13
-2.33039e-13
-2.27976e-13
-2.22904e-13
-2.19372e-13
-2.19705e-13
-2.13785e-13
-1.97635e-13
-1.80063e-13
-1.66966e-13
-1.64728e-13
-1.6902e-13
-1.62311e-13
-1.52854e-13
-1.46211e-13
-1.38566e-13
-1.30538e-13
-1.20849e-13
-1.09968e-13
-9.70651e-14
-9.15145e-14
-9.14193e-14
-8.4613e-14
-7.73515e-14
-6.84711e-14
-6.15155e-14
-5.34688e-14
-4.74405e-14
-4.18746e-14
-3.31266e-14
-2.1633e-14
-1.12241e-14
-1.67367e-15
3.15544e-16
-7.04501e-13
-7.14921e-13
-7.09581e-13
-7.04446e-13
-7.04875e-13
-7.03238e-13
-6.9831e-13
-6.96732e-13
-6.85147e-13
-6.69964e-13
-6.65845e-13
-6.6368e-13
-6.60807e-13
-6.56577e-13
-6.5182e-13
-6.41594e-13
-6.30606e-13
-6.22356e-13
-6.16457e-13
-6.07483e-13
-6.00571e-13
-5.91639e-13
-5.78176e-13
-5.59354e-13
-5.44974e-13
-5.38882e-13
-5.4151e-13
-5.39709e-13
-5.37539e-13
-5.35919e-13
-5.27051e-13
-5.14157e-13
-4.98365e-13
-4.85799e-13
-4.80662e-13
-4.76465e-13
-4.76835e-13
-4.7293e-13
-4.612e-13
-4.54923e-13
-4.43686e-13
-4.33177e-13
-4.31003e-13
-4.23731e-13
-4.14597e-13
-4.05442e-13
-3.9555e-13
-3.90526e-13
-3.85567e-13
-3.76205e-13
-3.67959e-13
-3.57885e-13
-3.50071e-13
-3.42467e-13
-3.37456e-13
-3.31782e-13
-3.24966e-13
-3.17743e-13
-3.08827e-13
-2.96582e-13
-2.86795e-13
-2.7995e-13
-2.74315e-13
-2.68587e-13
-2.58206e-13
-2.49739e-13
-2.40954e-13
-2.34237e-13
-2.28566e-13
-2.25844e-13
-2.21964e-13
-2.1416e-13
-2.06632e-13
-1.98662e-13
-1.83402e-13
-1.72346e-13
-1.65356e-13
-1.63734e-13
-1.61994e-13
-1.53722e-13
-1.47023e-13
-1.36392e-13
-1.29236e-13
-1.1971e-13
-1.08609e-13
-9.89786e-14
-9.41446e-14
-8.99165e-14
-8.58017e-14
-7.69178e-14
-6.87808e-14
-6.47686e-14
-5.62677e-14
-4.71103e-14
-3.67279e-14
-2.78838e-14
-2.01865e-14
-1.27316e-14
-4.64264e-15
-1.57284e-16
-7.04054e-13
-7.08333e-13
-7.10717e-13
-7.06427e-13
-7.0535e-13
-7.06518e-13
-6.95177e-13
-6.83001e-13
-6.77302e-13
-6.74941e-13
-6.72223e-13
-6.67834e-13
-6.64423e-13
-6.58263e-13
-6.52164e-13
-6.43087e-13
-6.36167e-13
-6.31873e-13
-6.21941e-13
-6.07055e-13
-5.86337e-13
-5.72385e-13
-5.62551e-13
-5.52145e-13
-5.53133e-13
-5.51914e-13
-5.47171e-13
-5.39995e-13
-5.35773e-13
-5.34937e-13
-5.29171e-13
-5.178e-13
-5.04364e-13
-4.86274e-13
-4.75555e-13
-4.77063e-13
-4.78589e-13
-4.74508e-13
-4.67626e-13
-4.56292e-13
-4.41165e-13
-4.31994e-13
-4.24404e-13
-4.19295e-13
-4.13997e-13
-4.08519e-13
-4.01267e-13
-3.92014e-13
-3.8526e-13
-3.83568e-13
-3.74382e-13
-3.55641e-13
-3.44482e-13
-3.37054e-13
-3.31218e-13
-3.29865e-13
-3.26001e-13
-3.16935e-13
-3.03858e-13
-2.93335e-13
-2.90046e-13
-2.85447e-13
-2.77991e-13
-2.6852e-13
-2.53858e-13
-2.43121e-13
-2.39087e-13
-2.3708e-13
-2.32462e-13
-2.25667e-13
-2.18681e-13
-2.14218e-13
-2.0724e-13
-1.97218e-13
-1.84918e-13
-1.68963e-13
-1.64088e-13
-1.62715e-13
-1.64097e-13
-1.59479e-13
-1.50712e-13
-1.40263e-13
-1.29041e-13
-1.16795e-13
-1.06717e-13
-9.95211e-14
-9.50709e-14
-8.93953e-14
-8.31212e-14
-7.60561e-14
-6.91841e-14
-6.3479e-14
-5.70797e-14
-4.72103e-14
-3.58665e-14
-2.5024e-14
-1.59727e-14
-9.82283e-15
-2.71593e-15
-9.99899e-16
-7.02587e-13
-7.12178e-13
-7.13062e-13
-7.07425e-13
-7.03925e-13
-7.09796e-13
-7.05523e-13
-6.90062e-13
-6.70369e-13
-6.65664e-13
-6.64625e-13
-6.65895e-13
-6.64798e-13
-6.61467e-13
-6.55852e-13
-6.4438e-13
-6.34301e-13
-6.25718e-13
-6.12225e-13
-6.03227e-13
-5.94601e-13
-5.80951e-13
-5.68289e-13
-5.53379e-13
-5.52409e-13
-5.5066e-13
-5.49205e-13
-5.44578e-13
-5.36559e-13
-5.34142e-13
-5.25558e-13
-5.13158e-13
-5.03164e-13
-4.87438e-13
-4.74986e-13
-4.74487e-13
-4.76718e-13
-4.75472e-13
-4.67093e-13
-4.57018e-13
-4.40524e-13
-4.30945e-13
-4.28195e-13
-4.22237e-13
-4.1431e-13
-4.06456e-13
-4.03832e-13
-3.96645e-13
-3.8521e-13
-3.73186e-13
-3.64689e-13
-3.5861e-13
-3.48775e-13
-3.35311e-13
-3.36323e-13
-3.33826e-13
-3.25601e-13
-3.18967e-13
-3.10968e-13
-2.95893e-13
-2.88254e-13
-2.81229e-13
-2.72869e-13
-2.65057e-13
-2.53364e-13
-2.45814e-13
-2.36594e-13
-2.3396e-13
-2.28985e-13
-2.29034e-13
-2.21419e-13
-2.17728e-13
-2.10907e-13
-1.96666e-13
-1.81859e-13
-1.69807e-13
-1.67429e-13
-1.64996e-13
-1.59923e-13
-1.55129e-13
-1.49401e-13
-1.40638e-13
-1.29932e-13
-1.17303e-13
-1.10237e-13
-1.03329e-13
-9.56766e-14
-8.87547e-14
-8.30008e-14
-7.49787e-14
-6.77614e-14
-6.13016e-14
-5.28342e-14
-4.34242e-14
-3.54784e-14
-2.86668e-14
-1.41127e-14
-6.67942e-15
1.88825e-16
2.41254e-16
-7.1016e-13
-7.09134e-13
-7.05463e-13
-7.01259e-13
-7.02742e-13
-6.97177e-13
-6.92118e-13
-6.93492e-13
-6.88257e-13
-6.79759e-13
-6.74021e-13
-6.64406e-13
-6.57867e-13
-6.5662e-13
-6.54352e-13
-6.46279e-13
-6.36657e-13
-6.33506e-13
-6.21091e-13
-6.03152e-13
-5.82357e-13
-5.68528e-13
-5.62724e-13
-5.61077e-13
-5.54226e-13
-5.53497e-13
-5.49443e-13
-5.4263e-13
-5.37192e-13
-5.32416e-13
-5.25332e-13
-5.12827e-13
-5.0015e-13
-4.86937e-13
-4.78493e-13
-4.77752e-13
-4.81904e-13
-4.7562e-13
-4.66371e-13
-4.55206e-13
-4.41233e-13
-4.28055e-13
-4.25839e-13
-4.23158e-13
-4.19322e-13
-4.07925e-13
-3.98444e-13
-3.94507e-13
-3.89007e-13
-3.76693e-13
-3.63846e-13
-3.58219e-13
-3.50441e-13
-3.39434e-13
-3.30899e-13
-3.28642e-13
-3.23098e-13
-3.18059e-13
-3.11839e-13
-3.01523e-13
-2.90312e-13
-2.81774e-13
-2.72247e-13
-2.64326e-13
-2.57648e-13
-2.47083e-13
-2.37018e-13
-2.28523e-13
-2.25959e-13
-2.28913e-13
-2.20756e-13
-2.15888e-13
-2.08862e-13
-1.97381e-13
-1.86272e-13
-1.73595e-13
-1.6349e-13
-1.59612e-13
-1.59182e-13
-1.60842e-13
-1.54776e-13
-1.39377e-13
-1.28722e-13
-1.15666e-13
-1.10817e-13
-1.05714e-13
-9.82109e-14
-8.7788e-14
-7.84505e-14
-7.38522e-14
-6.79019e-14
-6.07807e-14
-5.46815e-14
-4.57218e-14
-3.44413e-14
-2.38264e-14
-1.44221e-14
-8.04238e-15
-3.10603e-16
1.65858e-15
-7.09733e-13
-7.08375e-13
-7.05838e-13
-7.03471e-13
-7.09591e-13
-7.06531e-13
-6.92418e-13
-6.853e-13
-6.79824e-13
-6.76218e-13
-6.74977e-13
-6.72327e-13
-6.59868e-13
-6.52266e-13
-6.48813e-13
-6.43413e-13
-6.38478e-13
-6.30913e-13
-6.17577e-13
-6.00467e-13
-5.85577e-13
-5.7031e-13
-5.60695e-13
-5.61493e-13
-5.6189e-13
-5.53193e-13
-5.45431e-13
-5.42984e-13
-5.40672e-13
-5.35235e-13
-5.27842e-13
-5.14831e-13
-5.0038e-13
-4.86153e-13
-4.75175e-13
-4.76347e-13
-4.75644e-13
-4.73444e-13
-4.70343e-13
-4.60236e-13
-4.45241e-13
-4.32432e-13
-4.25488e-13
-4.17375e-13
-4.15173e-13
-4.0964e-13
-4.01014e-13
-3.91219e-13
-3.84184e-13
-3.76874e-13
-3.64689e-13
-3.5895e-13
-3.5084e-13
-3.40767e-13
-3.37476e-13
-3.33033e-13
-3.21195e-13
-3.11799e-13
-3.06859e-13
-2.98415e-13
-2.92521e-13
-2.81997e-13
-2.73315e-13
-2.65778e-13
-2.56648e-13
-2.45692e-13
-2.39178e-13
-2.28864e-13
-2.22878e-13
-2.20878e-13
-2.19576e-13
-2.16855e-13
-2.10719e-13
-1.97421e-13
-1.84835e-13
-1.74779e-13
-1.68627e-13
-1.62054e-13
-1.61533e-13
-1.58675e-13
-1.5167e-13
-1.4145e-13
-1.30224e-13
-1.18801e-13
-1.09641e-13
-1.0037e-13
-9.36713e-14
-8.94078e-14
-8.34944e-14
-7.41835e-14
-6.69625e-14
-5.95893e-14
-5.1529e-14
-4.28076e-14
-3.28583e-14
-2.58054e-14
-1.62496e-14
-5.86597e-15
3.06764e-17
-5.4773e-17
-7.04393e-13
-7.07558e-13
-7.07643e-13
-7.06001e-13
-7.04143e-13
-6.97355e-13
-6.92184e-13
-6.88457e-13
-6.87082e-13
-6.82078e-13
-6.76064e-13
-6.7106e-13
-6.62764e-13
-6.5368e-13
-6.473e-13
-6.39406e-13
-6.36472e-13
-6.2943e-13
-6.15933e-13
-6.0288e-13
-5.85182e-13
-5.71222e-13
-5.66476e-13
-5.62819e-13
-5.54207e-13
-5.50124e-13
-5.50069e-13
-5.47643e-13
-5.40202e-13
-5.30417e-13
-5.22385e-13
-5.13417e-13
-5.00078e-13
-4.87475e-13
-4.77643e-13
-4.82301e-13
-4.83978e-13
-4.75924e-13
-4.65212e-13
-4.52625e-13
-4.41657e-13
-4.35235e-13
-4.27538e-13
-4.17482e-13
-4.12181e-13
-4.05342e-13
-4.03719e-13
-4.0201e-13
-3.87419e-13
-3.73456e-13
-3.62771e-13
-3.6026e-13
-3.51194e-13
-3.40078e-13
-3.36227e-13
-3.32996e-13
-3.24687e-13
-3.13193e-13
-3.04421e-13
-2.9775e-13
-2.94948e-13
-2.85584e-13
-2.74482e-13
-2.64433e-13
-2.52549e-13
-2.45078e-13
-2.35827e-13
-2.30408e-13
-2.23687e-13
-2.1929e-13
-2.15364e-13
-2.16455e-13
-2.11323e-13
-1.97355e-13
-1.84939e-13
-1.74716e-13
-1.70627e-13
-1.65113e-13
-1.57143e-13
-1.49777e-13
-1.54466e-13
-1.49214e-13
-1.31999e-13
-1.19296e-13
-1.09879e-13
-9.94126e-14
-9.18121e-14
-8.88506e-14
-8.30563e-14
-7.43784e-14
-6.63558e-14
-5.96002e-14
-5.24967e-14
-4.14055e-14
-3.54009e-14
-2.4512e-14
-1.34398e-14
-4.08849e-15
1.03841e-15
-4.61898e-16
-7.12211e-13
-7.08904e-13
-7.06859e-13
-7.03516e-13
-6.98163e-13
-6.95222e-13
-6.91822e-13
-6.91747e-13
-6.88527e-13
-6.82421e-13
-6.75294e-13
-6.70687e-13
-6.64144e-13
-6.57948e-13
-6.49497e-13
-6.37639e-13
-6.26883e-13
-6.20483e-13
-6.15679e-13
-6.06958e-13
-5.87765e-13
-5.75644e-13
-5.66661e-13
-5.59637e-13
-5.56501e-13
-5.5284e-13
-5.51381e-13
-5.48036e-13
-5.38455e-13
-5.33582e-13
-5.23819e-13
-5.12584e-13
-4.98268e-13
-4.85457e-13
-4.80271e-13
-4.81733e-13
-4.80228e-13
-4.74418e-13
-4.65247e-13
-4.53878e-13
-4.42022e-13
-4.32618e-13
-4.28274e-13
-4.22224e-13
-4.17252e-13
-4.10002e-13
-3.99346e-13
-3.91911e-13
-3.86538e-13
-3.78093e-13
-3.70692e-13
-3.60075e-13
-3.49758e-13
-3.41009e-13
-3.34625e-13
-3.27317e-13
-3.22752e-13
-3.15185e-13
-3.03906e-13
-2.97865e-13
-2.95907e-13
-2.87681e-13
-2.75774e-13
-2.62505e-13
-2.538e-13
-2.45182e-13
-2.35687e-13
-2.28517e-13
-2.23354e-13
-2.19372e-13
-2.1705e-13
-2.16528e-13
-2.10075e-13
-1.9401e-13
-1.83803e-13
-1.74991e-13
-1.70002e-13
-1.64807e-13
-1.6092e-13
-1.56728e-13
-1.50804e-13
-1.42691e-13
-1.33222e-13
-1.23443e-13
-1.152e-13
-9.92541e-14
-9.05779e-14
-8.57204e-14
-8.28666e-14
-7.09457e-14
-6.3372e-14
-5.85041e-14
-5.67279e-14
-4.33741e-14
-3.13633e-14
-2.36073e-14
-1.51136e-14
-1.3858e-15
1.79822e-16
-1.77556e-15
-7.14998e-13
-7.08323e-13
-7.02231e-13
-7.02862e-13
-6.94513e-13
-6.95545e-13
-6.92234e-13
-6.92975e-13
-6.9208e-13
-6.81207e-13
-6.74511e-13
-6.71238e-13
-6.69308e-13
-6.59349e-13
-6.49711e-13
-6.41e-13
-6.31905e-13
-6.21133e-13
-6.14853e-13
-6.00074e-13
-5.8768e-13
-5.75055e-13
-5.6351e-13
-5.57982e-13
-5.54541e-13
-5.56706e-13
-5.52673e-13
-5.46904e-13
-5.39355e-13
-5.31583e-13
-5.24157e-13
-5.14617e-13
-4.98743e-13
-4.88561e-13
-4.78959e-13
-4.76957e-13
-4.78366e-13
-4.74743e-13
-4.65893e-13
-4.54953e-13
-4.45455e-13
-4.36305e-13
-4.27892e-13
-4.21417e-13
-4.15396e-13
-4.08189e-13
-3.99079e-13
-3.9432e-13
-3.89649e-13
-3.78479e-13
-3.67244e-13
-3.55817e-13
-3.49265e-13
-3.44066e-13
-3.38178e-13
-3.31554e-13
-3.24176e-13
-3.13647e-13
-3.06695e-13
-3.01853e-13
-2.96753e-13
-2.86282e-13
-2.71503e-13
-2.60967e-13
-2.51774e-13
-2.42791e-13
-2.3354e-13
-2.29551e-13
-2.22822e-13
-2.23307e-13
-2.18129e-13
-2.12499e-13
-2.03055e-13
-1.91229e-13
-1.82042e-13
-1.73182e-13
-1.73562e-13
-1.72215e-13
-1.62839e-13
-1.54128e-13
-1.4786e-13
-1.40075e-13
-1.31804e-13
-1.2223e-13
-1.09689e-13
-9.69802e-14
-9.19397e-14
-8.8572e-14
-8.18712e-14
-7.70919e-14
-7.10229e-14
-5.92167e-14
-4.89059e-14
-4.06055e-14
-3.15831e-14
-2.11202e-14
-1.33437e-14
-8.16274e-15
-2.60428e-15
-1.54141e-15
-7.12943e-13
-7.06564e-13
-7.05018e-13
-7.03066e-13
-6.99259e-13
-6.95478e-13
-6.89346e-13
-6.91944e-13
-6.91345e-13
-6.85159e-13
-6.78447e-13
-6.70661e-13
-6.67788e-13
-6.5728e-13
-6.46656e-13
-6.36088e-13
-6.2548e-13
-6.21115e-13
-6.15466e-13
-6.02677e-13
-5.8942e-13
-5.76725e-13
-5.65533e-13
-5.61785e-13
-5.61055e-13
-5.54242e-13
-5.48111e-13
-5.40882e-13
-5.3427e-13
-5.32323e-13
-5.26529e-13
-5.19332e-13
-5.06927e-13
-4.95633e-13
-4.76737e-13
-4.73152e-13
-4.73264e-13
-4.71208e-13
-4.65979e-13
-4.54954e-13
-4.4749e-13
-4.36529e-13
-4.30799e-13
-4.19737e-13
-4.1576e-13
-4.09893e-13
-4.05061e-13
-3.96369e-13
-3.8573e-13
-3.70851e-13
-3.66757e-13
-3.6135e-13
-3.53815e-13
-3.40012e-13
-3.32537e-13
-3.2582e-13
-3.18267e-13
-3.16062e-13
-3.07636e-13
-3.06245e-13
-3.06852e-13
-2.83512e-13
-2.69382e-13
-2.62962e-13
-2.54444e-13
-2.4659e-13
-2.36566e-13
-2.29578e-13
-2.19672e-13
-2.17113e-13
-2.12643e-13
-2.15549e-13
-2.08839e-13
-1.96055e-13
-1.79948e-13
-1.68491e-13
-1.73637e-13
-1.70773e-13
-1.63009e-13
-1.56688e-13
-1.4981e-13
-1.40531e-13
-1.30848e-13
-1.20075e-13
-1.10264e-13
-9.84767e-14
-9.10716e-14
-8.91989e-14
-8.34784e-14
-7.27364e-14
-6.42763e-14
-5.86528e-14
-5.00544e-14
-3.99211e-14
-3.61197e-14
-2.83645e-14
-1.3779e-14
-4.03254e-15
2.49185e-15
-5.26697e-16
-7.07139e-13
-7.09329e-13
-7.08964e-13
-7.0269e-13
-6.96633e-13
-6.96967e-13
-6.9451e-13
-6.90497e-13
-6.89042e-13
-6.83941e-13
-6.80155e-13
-6.74793e-13
-6.65871e-13
-6.559e-13
-6.47608e-13
-6.39631e-13
-6.33663e-13
-6.28804e-13
-6.18039e-13
-5.99977e-13
-5.79948e-13
-5.65886e-13
-5.62708e-13
-5.63506e-13
-5.61378e-13
-5.53881e-13
-5.44675e-13
-5.40856e-13
-5.34412e-13
-5.336e-13
-5.31011e-13
-5.14445e-13
-5.01235e-13
-4.92787e-13
-4.8387e-13
-4.79688e-13
-4.76028e-13
-4.70056e-13
-4.63905e-13
-4.55364e-13
-4.47106e-13
-4.36328e-13
-4.28641e-13
-4.23553e-13
-4.21268e-13
-4.11072e-13
-4.03214e-13
-3.90079e-13
-3.86547e-13
-3.78174e-13
-3.65709e-13
-3.60007e-13
-3.53378e-13
-3.44522e-13
-3.3557e-13
-3.21668e-13
-3.09476e-13
-3.13439e-13
-3.1779e-13