/*--------------------------------*- C++ -*----------------------------------*\
| =========                 |                                                 |
| \\      /  F ield         | OpenFOAM: The Open Source CFD Toolbox           |
|  \\    /   O peration     | Version:  v2012                                 |
|   \\  /    A nd           | Website:  www.openfoam.com                      |
|    \\/     M anipulation  |                                                 |
\*---------------------------------------------------------------------------*/
FoamFile
{
    version     2.0;
    format      ascii;
    class       volVectorField;
    location    "0";
    object      uRec;
}
// * * * * * * * * * * * * * * * * * * * * * * * * * * * * * * * * * * * * * //

dimensions      [0 1 -1 0 0 0 0];


internalField   nonuniform List<vector> 
4000
(
(1 1.45566e-15 0)
(1 1.52491e-16 0)
(1 -1.38622e-15 0)
(1 1.25299e-16 0)
(1 3.58959e-17 0)
(1 5.4442e-16 0)
(1 1.80396e-15 0)
(1 -6.36786e-16 0)
(1 2.95642e-15 0)
(1 -8.58068e-16 0)
(1 -2.85141e-15 0)
(1 1.77801e-16 0)
(1 1.35076e-15 0)
(1 8.38486e-16 0)
(1 -8.34158e-16 0)
(1 8.4003e-16 0)
(1 1.03436e-16 0)
(1 -4.91129e-16 0)
(1 1.69907e-15 0)
(1 1.46616e-15 0)
(1 3.90038e-16 0)
(1 9.38419e-16 0)
(1 -1.59039e-15 0)
(1 7.80691e-16 0)
(1 -1.16512e-15 0)
(1 -4.50302e-16 0)
(1 2.58448e-16 0)
(1 -1.03482e-15 0)
(1 -2.60954e-17 0)
(1 1.58674e-17 0)
(1 1.6363e-15 0)
(1 1.98139e-15 0)
(1 -5.3986e-16 0)
(1 -4.98411e-16 0)
(1 6.48892e-17 0)
(1 -5.17932e-16 0)
(1 -5.61055e-16 0)
(1 1.67446e-15 0)
(1 5.44496e-16 0)
(1 -1.21893e-15 0)
(1 1.21448e-16 0)
(1 -1.34891e-15 0)
(1 -3.8087e-16 0)
(1 2.17187e-15 0)
(1 1.17823e-15 0)
(1 -9.14138e-16 0)
(1 4.00325e-16 0)
(1 -1.06373e-16 0)
(1 6.61798e-16 0)
(1 -1.9536e-16 0)
(1 3.05666e-16 0)
(1 7.04578e-16 0)
(1 9.52979e-16 0)
(1 2.41965e-15 0)
(1 1.76301e-15 0)
(1 1.87702e-15 0)
(1 4.95509e-16 0)
(1 4.00954e-17 0)
(1 -2.63025e-16 0)
(1 9.74933e-17 0)
(1 -1.0984e-15 0)
(1 -8.70981e-16 0)
(1 -5.04981e-16 0)
(1 5.85448e-16 0)
(1 3.99344e-16 0)
(1 4.41483e-16 0)
(1 -2.89927e-16 0)
(1 -2.50916e-16 0)
(1 2.70881e-16 0)
(1 -6.85262e-16 0)
(1 -3.85481e-16 0)
(1 3.3715e-16 0)
(1 -2.71649e-16 0)
(1 -3.53651e-16 0)
(1 -1.16883e-15 0)
(1 -1.32255e-15 0)
(1 -3.86311e-16 0)
(1 2.63964e-17 0)
(1 1.87925e-16 0)
(1 8.45109e-16 0)
(1 4.87024e-16 0)
(1 8.28702e-16 0)
(1 -6.57011e-16 0)
(1 1.74618e-18 0)
(1 -1.11767e-15 0)
(1 -7.52409e-16 0)
(1 1.17813e-15 0)
(1 1.11824e-15 0)
(1 2.47289e-16 0)
(1 1.13772e-15 0)
(1 2.6549e-16 0)
(1 1.85602e-16 0)
(1 9.34285e-16 0)
(1 1.151e-15 0)
(1 -2.5269e-16 0)
(1 -2.47526e-16 0)
(1 5.25482e-16 0)
(1 2.68735e-16 0)
(1 -5.33462e-16 0)
(1 -5.46221e-16 0)
(1 1.15177e-15 0)
(1 1.32374e-15 0)
(1 -1.22448e-15 0)
(1 1.68459e-16 0)
(1 -7.74758e-16 0)
(1 1.19199e-15 0)
(1 2.18636e-15 0)
(1 -2.43285e-16 0)
(1 3.01813e-15 0)
(1 9.42554e-16 0)
(1 -1.07929e-15 0)
(1 -6.85219e-16 0)
(1 8.18718e-16 0)
(1 -2.24006e-16 0)
(1 -1.11589e-15 0)
(1 2.69888e-15 0)
(1 1.26543e-15 0)
(1 2.07706e-16 0)
(1 1.80863e-15 0)
(1 1.20199e-15 0)
(1 9.7439e-16 0)
(1 8.69159e-16 0)
(1 -1.42102e-15 0)
(1 5.58802e-16 0)
(1 -1.3118e-15 0)
(1 3.15738e-16 0)
(1 1.61275e-15 0)
(1 -1.90826e-15 0)
(1 2.14829e-16 0)
(1 3.14998e-16 0)
(1 4.51005e-16 0)
(1 1.82635e-15 0)
(1 -1.77159e-15 0)
(1 1.59395e-16 0)
(1 1.34721e-15 0)
(1 2.40953e-16 0)
(1 8.44234e-16 0)
(1 2.8238e-15 0)
(1 -1.04808e-15 0)
(1 -2.00726e-15 0)
(1 -1.72672e-15 0)
(1 -1.24809e-15 0)
(1 5.61181e-17 0)
(1 2.52783e-15 0)
(1 1.31065e-15 0)
(1 -1.28994e-16 0)
(1 1.77551e-15 0)
(1 2.09578e-15 0)
(1 2.46107e-15 0)
(1 1.68068e-15 0)
(1 1.38566e-15 0)
(1 2.04924e-16 0)
(1 8.36834e-16 0)
(1 1.08246e-15 0)
(1 1.71096e-15 0)
(1 7.88268e-16 0)
(1 1.31301e-15 0)
(1 1.45066e-15 0)
(1 1.00347e-15 0)
(1 -8.12347e-16 0)
(1 1.08198e-15 0)
(1 9.0731e-16 0)
(1 5.54105e-17 0)
(1 8.48207e-16 0)
(1 2.76298e-16 0)
(1 1.32472e-15 0)
(1 -1.2456e-15 0)
(1 -7.26331e-16 0)
(1 7.29336e-16 0)
(1 -4.83804e-16 0)
(1 -6.69819e-16 0)
(1 4.37252e-16 0)
(1 1.54057e-15 0)
(1 4.67653e-16 0)
(1 3.23385e-16 0)
(1 -6.6676e-16 0)
(1 3.79542e-16 0)
(1 1.11599e-15 0)
(1 9.21136e-17 0)
(1 2.28596e-15 0)
(1 1.60016e-15 0)
(1 7.01857e-16 0)
(1 4.19168e-16 0)
(1 -3.90483e-16 0)
(1 -9.10146e-16 0)
(1 -1.01429e-15 0)
(1 1.39193e-16 0)
(1 1.45415e-15 0)
(1 4.95843e-16 0)
(1 1.78445e-15 0)
(1 4.78162e-16 0)
(1 -1.50894e-16 0)
(1 1.6376e-15 0)
(1 1.62378e-15 0)
(1 -1.28835e-15 0)
(1 7.29909e-17 0)
(1 1.00474e-15 0)
(1 -8.00102e-16 0)
(1 -1.02484e-15 0)
(1 -9.54553e-16 0)
(1 -1.08178e-15 0)
(1 2.95807e-15 0)
(1 -1.55013e-15 0)
(1 9.41023e-16 0)
(1 -5.83424e-16 0)
(1 1.07901e-15 0)
(1 2.00204e-15 0)
(1 3.99823e-15 0)
(1 -2.19355e-16 0)
(1 9.36829e-17 0)
(1 7.627e-16 0)
(1 1.81629e-15 0)
(1 1.49491e-15 0)
(1 6.22276e-16 0)
(1 5.36705e-16 0)
(1 1.87326e-15 0)
(1 1.75677e-15 0)
(1 2.94631e-15 0)
(1 1.97046e-16 0)
(1 6.97619e-16 0)
(1 7.08957e-16 0)
(1 -1.33639e-15 0)
(1 1.67625e-16 0)
(1 -2.04269e-16 0)
(1 2.9495e-15 0)
(1 1.99531e-15 0)
(1 2.65053e-15 0)
(1 -1.15506e-15 0)
(1 3.26973e-16 0)
(1 6.98398e-16 0)
(1 -3.19636e-16 0)
(1 -1.05335e-15 0)
(1 -3.47818e-16 0)
(1 5.06536e-16 0)
(1 9.55514e-17 0)
(1 1.67466e-15 0)
(1 5.76331e-16 0)
(1 3.31298e-15 0)
(1 2.04671e-15 0)
(1 -1.59676e-15 0)
(1 -5.27779e-16 0)
(1 -3.43784e-16 0)
(1 6.71633e-16 0)
(1 3.30976e-16 0)
(1 1.35873e-15 0)
(1 4.46141e-16 0)
(1 2.33209e-15 0)
(1 3.90735e-15 0)
(1 2.80889e-15 0)
(1 2.06154e-15 0)
(1 3.30561e-15 0)
(1 1.29629e-15 0)
(1 2.01989e-15 0)
(1 -4.11854e-17 0)
(1 1.79574e-15 0)
(1 1.61391e-15 0)
(1 2.81538e-15 0)
(1 3.12744e-15 0)
(1 3.74423e-15 0)
(1 8.37703e-16 0)
(1 2.40039e-17 0)
(1 1.10066e-15 0)
(1 4.49272e-16 0)
(1 -4.50265e-16 0)
(1 -2.83916e-18 0)
(1 4.84285e-16 0)
(1 -3.15251e-16 0)
(1 2.17783e-16 0)
(1 1.63464e-15 0)
(1 2.64402e-16 0)
(1 5.30114e-16 0)
(1 -6.14704e-16 0)
(1 -5.66609e-16 0)
(1 -1.01159e-15 0)
(1 7.99049e-16 0)
(1 -5.00965e-16 0)
(1 8.94983e-16 0)
(1 1.81734e-16 0)
(1 9.27013e-16 0)
(1 1.91883e-16 0)
(1 5.90542e-16 0)
(1 1.24659e-15 0)
(1 1.13558e-15 0)
(1 2.46535e-16 0)
(1 -3.19365e-16 0)
(1 5.19135e-16 0)
(1 -4.99154e-16 0)
(1 1.52151e-15 0)
(1 7.23949e-16 0)
(1 1.99421e-15 0)
(1 7.97331e-16 0)
(1 8.45491e-16 0)
(1 2.54468e-16 0)
(1 1.3273e-15 0)
(1 -3.93674e-16 0)
(1 1.16491e-15 0)
(1 1.14924e-15 0)
(1 -1.65599e-15 0)
(1 -3.40953e-16 0)
(1 -7.31344e-16 0)
(1 -2.32277e-16 0)
(1 1.17401e-15 0)
(1 -6.91978e-16 0)
(1 -1.39272e-15 0)
(1 2.30235e-15 0)
(1 1.05439e-15 0)
(1 3.53813e-15 0)
(1 3.99928e-15 0)
(1 1.31187e-15 0)
(1 -5.7751e-17 0)
(1 -9.16858e-16 0)
(1 2.62284e-15 0)
(1 -3.21382e-16 0)
(1 2.764e-15 0)
(1 3.71336e-15 0)
(1 1.85193e-16 0)
(1 2.40112e-15 0)
(1 2.32924e-15 0)
(1 3.26525e-16 0)
(1 3.4831e-15 0)
(1 1.04111e-16 0)
(1 9.59747e-16 0)
(1 3.52669e-16 0)
(1 8.71902e-16 0)
(1 4.90761e-15 0)
(1 1.77936e-15 0)
(1 2.30836e-15 0)
(1 -7.07294e-16 0)
(1 1.37978e-15 0)
(1 8.87866e-16 0)
(1 8.15552e-16 0)
(1 3.94833e-18 0)
(1 1.00635e-16 0)
(1 -5.09192e-16 0)
(1 -1.2313e-15 0)
(1 -3.57299e-16 0)
(1 -3.37474e-16 0)
(1 4.65715e-16 0)
(1 3.32625e-15 0)
(1 3.83036e-16 0)
(1 2.63004e-15 0)
(1 4.45524e-16 0)
(1 -3.30756e-17 0)
(1 1.21778e-15 0)
(1 2.80246e-15 0)
(1 2.48468e-15 0)
(1 2.11291e-15 0)
(1 3.3574e-15 0)
(1 3.06409e-15 0)
(1 2.36986e-15 0)
(1 3.91512e-15 0)
(1 2.78936e-15 0)
(1 2.74173e-15 0)
(1 2.30077e-15 0)
(1 3.13352e-15 0)
(1 3.16344e-15 0)
(1 4.07163e-15 0)
(1 3.996e-15 0)
(1 3.4421e-15 0)
(1 3.46242e-15 0)
(1 1.52008e-15 0)
(1 -1.35883e-15 0)
(1 -5.08344e-16 0)
(1 3.58447e-16 0)
(1 1.54253e-16 0)
(1 5.05388e-16 0)
(1 6.03869e-16 0)
(1 1.49806e-15 0)
(1 2.43171e-16 0)
(1 -3.61589e-16 0)
(1 2.96613e-16 0)
(1 -1.88352e-15 0)
(1 -1.7811e-15 0)
(1 -1.57934e-15 0)
(1 -4.18269e-16 0)
(1 1.71889e-15 0)
(1 2.6592e-15 0)
(1 6.32134e-16 0)
(1 2.83984e-15 0)
(1 7.59254e-16 0)
(1 -1.02706e-15 0)
(1 2.31517e-15 0)
(1 8.63696e-17 0)
(1 9.99969e-16 0)
(1 6.94704e-16 0)
(1 -7.99146e-17 0)
(1 2.12883e-15 0)
(1 7.5511e-16 0)
(1 1.71344e-15 0)
(1 1.78606e-15 0)
(1 5.33735e-16 0)
(1 2.26216e-15 0)
(1 1.00186e-15 0)
(1 1.77289e-15 0)
(1 9.7326e-16 0)
(1 4.02037e-16 0)
(1 4.16756e-16 0)
(1 7.03926e-16 0)
(1 -1.56723e-15 0)
(1 -1.75864e-15 0)
(1 1.13173e-15 0)
(1 -6.04995e-16 0)
(1 2.30268e-15 0)
(1 -1.90723e-16 0)
(1 2.7368e-15 0)
(1 2.01098e-15 0)
(1 1.28526e-15 0)
(1 3.09452e-16 0)
(1 2.82139e-15 0)
(1 2.11193e-15 0)
(1 2.06704e-15 0)
(1 3.29635e-15 0)
(1 6.14838e-16 0)
(1 1.33204e-15 0)
(1 2.649e-15 0)
(1 1.89102e-15 0)
(1 3.89464e-15 0)
(1 1.72104e-15 0)
(1 8.50929e-16 0)
(1 3.59067e-16 0)
(1 1.07441e-15 0)
(1 3.30908e-15 0)
(1 2.11946e-15 0)
(1 2.22645e-15 0)
(1 -3.30996e-16 0)
(1 -4.28014e-17 0)
(1 -2.10622e-16 0)
(1 1.27402e-15 0)
(1 1.366e-15 0)
(1 3.5249e-16 0)
(1 1.36243e-16 0)
(1 1.46495e-15 0)
(1 -1.2809e-15 0)
(1 2.90361e-15 0)
(1 -2.163e-16 0)
(1 -1.39041e-15 0)
(1 1.02931e-15 0)
(1 -8.74591e-16 0)
(1 2.125e-15 0)
(1 2.97234e-15 0)
(1 2.89258e-15 0)
(1 7.48565e-16 0)
(1 -1.11822e-15 0)
(1 4.29649e-16 0)
(1 6.17268e-16 0)
(1 4.33556e-15 0)
(1 3.28666e-15 0)
(1 4.94951e-15 0)
(1 4.0947e-15 0)
(1 4.0175e-15 0)
(1 2.60101e-15 0)
(1 2.21757e-15 0)
(1 2.07922e-15 0)
(1 3.25478e-15 0)
(1 3.42886e-15 0)
(1 2.38027e-15 0)
(1 3.3303e-15 0)
(1 2.98923e-15 0)
(1 2.45158e-15 0)
(1 3.33086e-15 0)
(1 4.94073e-15 0)
(1 8.15746e-16 0)
(1 1.53056e-15 0)
(1 8.87029e-16 0)
(1 1.63432e-15 0)
(1 2.37293e-15 0)
(1 2.51197e-15 0)
(1 2.0585e-15 0)
(1 -9.88444e-16 0)
(1 1.02828e-15 0)
(1 -1.45698e-15 0)
(1 -8.27679e-16 0)
(1 1.41069e-15 0)
(1 1.05558e-16 0)
(1 5.90176e-17 0)
(1 1.3164e-15 0)
(1 1.88222e-15 0)
(1 1.2246e-15 0)
(1 1.43227e-15 0)
(1 1.44985e-15 0)
(1 1.70846e-16 0)
(1 3.2251e-16 0)
(1 4.59082e-17 0)
(1 2.04186e-16 0)
(1 2.31741e-15 0)
(1 1.1307e-15 0)
(1 2.25365e-15 0)
(1 1.1401e-15 0)
(1 1.75193e-15 0)
(1 9.40436e-16 0)
(1 1.52337e-15 0)
(1 1.77683e-15 0)
(1 2.87499e-15 0)
(1 1.83408e-15 0)
(1 2.75071e-15 0)
(1 7.33731e-16 0)
(1 -4.5925e-16 0)
(1 9.68476e-16 0)
(1 -8.90875e-16 0)
(1 -2.59418e-16 0)
(1 3.15344e-16 0)
(1 -5.1125e-16 0)
(1 3.29839e-15 0)
(1 2.75542e-15 0)
(1 9.08679e-16 0)
(1 1.63762e-15 0)
(1 -2.36795e-16 0)
(1 2.2103e-15 0)
(1 1.75078e-15 0)
(1 2.36876e-15 0)
(1 3.80075e-15 0)
(1 3.53379e-15 0)
(1 2.49557e-15 0)
(1 1.45447e-15 0)
(1 2.07053e-15 0)
(1 2.84144e-15 0)
(1 1.64118e-15 0)
(1 1.77492e-15 0)
(1 7.90932e-16 0)
(1 -1.3878e-15 0)
(1 1.78616e-15 0)
(1 1.86586e-15 0)
(1 5.92629e-15 0)
(1 3.68049e-15 0)
(1 1.88496e-15 0)
(1 1.71931e-15 0)
(1 1.88607e-16 0)
(1 2.29252e-15 0)
(1 -2.12733e-15 0)
(1 8.91207e-17 0)
(1 -1.42065e-15 0)
(1 8.91564e-16 0)
(1 -5.07547e-16 0)
(1 2.78418e-15 0)
(1 4.66374e-16 0)
(1 8.34934e-16 0)
(1 2.85982e-15 0)
(1 2.13053e-15 0)
(1 1.17314e-15 0)
(1 1.56125e-15 0)
(1 1.81336e-15 0)
(1 2.21497e-15 0)
(1 7.40467e-16 0)
(1 2.60353e-16 0)
(1 2.64199e-15 0)
(1 3.75743e-15 0)
(1 3.93096e-15 0)
(1 4.97992e-15 0)
(1 4.86258e-15 0)
(1 3.89051e-15 0)
(1 2.06427e-15 0)
(1 3.38091e-15 0)
(1 4.23842e-15 0)
(1 3.98e-15 0)
(1 2.72748e-15 0)
(1 3.86231e-15 0)
(1 4.38329e-15 0)
(1 4.2323e-15 0)
(1 4.69808e-15 0)
(1 5.57305e-15 0)
(1 2.25728e-15 0)
(1 1.77553e-15 0)
(1 1.0274e-15 0)
(1 6.27345e-16 0)
(1 2.30729e-15 0)
(1 2.7565e-15 0)
(1 3.41547e-15 0)
(1 1.70298e-15 0)
(1 1.45003e-15 0)
(1 8.60536e-16 0)
(1 1.31302e-15 0)
(1 1.18592e-15 0)
(1 1.84479e-15 0)
(1 3.28164e-16 0)
(1 4.38655e-16 0)
(1 6.92326e-16 0)
(1 1.61449e-15 0)
(1 1.90803e-15 0)
(1 -1.0115e-15 0)
(1 3.15285e-16 0)
(1 1.71414e-15 0)
(1 1.82869e-15 0)
(1 1.34206e-15 0)
(1 1.71359e-15 0)
(1 6.78041e-16 0)
(1 5.75483e-16 0)
(1 -1.8674e-16 0)
(1 -4.61772e-16 0)
(1 4.26417e-16 0)
(1 1.1957e-15 0)
(1 2.35082e-15 0)
(1 2.24475e-15 0)
(1 2.94515e-15 0)
(1 3.00308e-15 0)
(1 3.80729e-15 0)
(1 2.77139e-15 0)
(1 9.14247e-16 0)
(1 -7.56644e-16 0)
(1 1.69556e-15 0)
(1 1.94345e-15 0)
(1 1.54058e-16 0)
(1 3.64458e-16 0)
(1 3.23712e-15 0)
(1 1.21268e-15 0)
(1 1.64506e-15 0)
(1 7.82502e-16 0)
(1 2.71393e-15 0)
(1 6.16592e-15 0)
(1 1.97322e-15 0)
(1 3.85451e-15 0)
(1 2.19588e-15 0)
(1 1.63741e-15 0)
(1 1.00966e-15 0)
(1 3.16789e-15 0)
(1 2.03046e-15 0)
(1 3.91302e-15 0)
(1 1.55043e-15 0)
(1 1.16743e-15 0)
(1 6.88827e-16 0)
(1 3.13111e-15 0)
(1 2.25027e-15 0)
(1 1.39545e-16 0)
(1 3.37104e-15 0)
(1 -1.69529e-15 0)
(1 3.29173e-15 0)
(1 1.03909e-15 0)
(1 1.44027e-15 0)
(1 1.17092e-15 0)
(1 4.88848e-16 0)
(1 1.28143e-15 0)
(1 1.25694e-15 0)
(1 1.26574e-15 0)
(1 1.85263e-15 0)
(1 -8.00369e-16 0)
(1 2.88189e-16 0)
(1 2.51163e-15 0)
(1 4.41458e-16 0)
(1 2.25683e-15 0)
(1 -6.22066e-16 0)
(1 3.84678e-15 0)
(1 2.15246e-15 0)
(1 2.95e-15 0)
(1 2.92013e-15 0)
(1 1.45424e-15 0)
(1 3.3696e-15 0)
(1 4.01418e-15 0)
(1 5.02328e-15 0)
(1 2.41848e-15 0)
(1 4.39073e-15 0)
(1 3.37841e-15 0)
(1 2.80208e-15 0)
(1 3.66041e-15 0)
(1 4.30756e-15 0)
(1 4.38377e-15 0)
(1 3.22443e-15 0)
(1 3.57818e-15 0)
(1 5.05339e-15 0)
(1 5.49592e-15 0)
(1 5.20216e-15 0)
(1 4.99507e-15 0)
(1 2.61474e-15 0)
(1 3.68679e-15 0)
(1 2.00298e-15 0)
(1 2.22737e-15 0)
(1 1.29504e-15 0)
(1 8.51112e-16 0)
(1 6.75288e-16 0)
(1 2.51848e-15 0)
(1 2.18762e-15 0)
(1 5.29325e-16 0)
(1 3.36822e-15 0)
(1 1.99327e-15 0)
(1 1.94584e-16 0)
(1 -8.4465e-17 0)
(1 -1.29334e-16 0)
(1 3.21051e-15 0)
(1 1.34584e-15 0)
(1 3.68922e-15 0)
(1 1.00825e-15 0)
(1 7.67268e-16 0)
(1 1.73921e-15 0)
(1 1.88099e-15 0)
(1 2.29826e-15 0)
(1 1.64817e-15 0)
(1 1.22165e-15 0)
(1 2.42818e-15 0)
(1 1.3772e-15 0)
(1 1.90091e-15 0)
(1 1.59818e-15 0)
(1 1.81082e-15 0)
(1 2.3101e-15 0)
(1 2.79276e-15 0)
(1 3.76697e-15 0)
(1 3.24136e-15 0)
(1 1.90254e-15 0)
(1 3.246e-15 0)
(1 2.20242e-15 0)
(1 1.27491e-15 0)
(1 1.7293e-15 0)
(1 1.14464e-15 0)
(1 -1.21795e-16 0)
(1 9.59083e-16 0)
(1 -5.7773e-16 0)
(1 1.59282e-15 0)
(1 3.02222e-15 0)
(1 2.55457e-15 0)
(1 2.7443e-15 0)
(1 4.01298e-15 0)
(1 5.33284e-15 0)
(1 5.60198e-15 0)
(1 3.30479e-15 0)
(1 3.22941e-16 0)
(1 2.38212e-15 0)
(1 2.24642e-15 0)
(1 2.52347e-15 0)
(1 4.59837e-15 0)
(1 3.10479e-15 0)
(1 4.4847e-15 0)
(1 1.24954e-15 0)
(1 2.47394e-15 0)
(1 2.0879e-15 0)
(1 -4.86527e-16 0)
(1 1.52587e-15 0)
(1 -9.733e-16 0)
(1 -2.26448e-15 0)
(1 -2.78864e-15 0)
(1 -6.97005e-16 0)
(1 5.90355e-16 0)
(1 4.00309e-15 0)
(1 4.58273e-15 0)
(1 4.96194e-15 0)
(1 1.36665e-15 0)
(1 1.86272e-15 0)
(1 -1.92868e-15 0)
(1 -1.77612e-15 0)
(1 7.85313e-16 0)
(1 -1.33547e-16 0)
(1 2.43812e-15 0)
(1 4.59093e-15 0)
(1 6.0181e-15 0)
(1 1.90509e-15 0)
(1 1.02956e-15 0)
(1 2.00438e-15 0)
(1 9.10375e-17 0)
(1 1.19252e-15 0)
(1 4.92215e-15 0)
(1 6.19645e-15 0)
(1 4.5506e-15 0)
(1 3.10951e-15 0)
(1 4.26886e-15 0)
(1 4.99217e-15 0)
(1 3.68468e-15 0)
(1 2.73692e-15 0)
(1 5.9916e-15 0)
(1 6.71942e-15 0)
(1 6.92548e-15 0)
(1 4.11683e-15 0)
(1 4.76375e-15 0)
(1 3.81437e-15 0)
(1 1.82553e-15 0)
(1 1.93027e-15 0)
(1 4.78973e-15 0)
(1 5.5032e-15 0)
(1 4.9456e-15 0)
(1 2.68599e-15 0)
(1 1.89899e-15 0)
(1 2.04295e-15 0)
(1 1.7749e-15 0)
(1 2.15812e-15 0)
(1 1.81463e-15 0)
(1 1.9427e-15 0)
(1 1.51026e-15 0)
(1 1.51566e-15 0)
(1 1.43158e-16 0)
(1 1.33575e-15 0)
(1 2.85877e-15 0)
(1 9.27916e-16 0)
(1 1.29535e-15 0)
(1 9.04584e-16 0)
(1 4.49044e-16 0)
(1 2.19478e-15 0)
(1 9.01894e-16 0)
(1 2.57643e-15 0)
(1 1.45506e-15 0)
(1 8.32666e-16 0)
(1 2.32075e-15 0)
(1 2.43505e-15 0)
(1 2.57705e-15 0)
(1 2.70186e-15 0)
(1 7.66798e-16 0)
(1 2.22669e-15 0)
(1 2.712e-15 0)
(1 4.23605e-15 0)
(1 3.63422e-15 0)
(1 2.67515e-15 0)
(1 2.96465e-15 0)
(1 1.20561e-15 0)
(1 1.79959e-15 0)
(1 2.3313e-15 0)
(1 2.55149e-15 0)
(1 -1.97857e-16 0)
(1 -2.92841e-16 0)
(1 -6.36859e-16 0)
(1 1.86899e-15 0)
(1 1.53828e-15 0)
(1 5.04986e-15 0)
(1 2.49029e-15 0)
(1 2.22341e-15 0)
(1 5.51055e-15 0)
(1 2.30253e-15 0)
(1 3.07106e-15 0)
(1 9.54131e-16 0)
(1 2.33966e-15 0)
(1 3.64949e-15 0)
(1 2.99557e-15 0)
(1 3.6105e-15 0)
(1 1.94972e-15 0)
(1 4.48577e-15 0)
(1 4.28555e-15 0)
(1 8.89585e-16 0)
(1 -2.43021e-16 0)
(1 3.69094e-16 0)
(1 2.07128e-15 0)
(1 4.25922e-15 0)
(1 3.09764e-16 0)
(1 -1.20437e-15 0)
(1 2.84334e-16 0)
(1 2.60198e-17 0)
(1 2.41097e-15 0)
(1 3.10862e-15 0)
(1 2.31073e-15 0)
(1 -8.40178e-16 0)
(1 3.07397e-18 0)
(1 -5.28906e-16 0)
(1 -1.12801e-15 0)
(1 9.16659e-16 0)
(1 2.11235e-15 0)
(1 3.43199e-15 0)
(1 3.29813e-15 0)
(1 2.50385e-15 0)
(1 1.65687e-16 0)
(1 1.85971e-15 0)
(1 2.57503e-15 0)
(1 2.95555e-15 0)
(1 5.27164e-15 0)
(1 2.8127e-15 0)
(1 5.17522e-15 0)
(1 4.0468e-15 0)
(1 2.0364e-15 0)
(1 4.56214e-15 0)
(1 4.91968e-15 0)
(1 6.5516e-15 0)
(1 4.30957e-15 0)
(1 6.58011e-15 0)
(1 7.49092e-15 0)
(1 6.94154e-15 0)
(1 6.06469e-15 0)
(1 2.92876e-15 0)
(1 5.76795e-15 0)
(1 3.28053e-15 0)
(1 4.94591e-15 0)
(1 2.73257e-15 0)
(1 4.01467e-15 0)
(1 5.44338e-15 0)
(1 -2.78985e-16 0)
(1 2.77485e-15 0)
(1 1.67322e-15 0)
(1 1.60426e-15 0)
(1 5.48948e-15 0)
(1 3.95407e-15 0)
(1 4.08692e-15 0)
(1 1.72564e-15 0)
(1 2.89357e-15 0)
(1 1.24386e-15 0)
(1 2.25604e-15 0)
(1 2.45583e-15 0)
(1 1.29286e-15 0)
(1 1.42096e-15 0)
(1 3.08908e-15 0)
(1 3.38461e-15 0)
(1 2.71645e-15 0)
(1 2.48837e-15 0)
(1 1.33687e-15 0)
(1 1.12693e-15 0)
(1 -3.36642e-16 0)
(1 -3.54795e-16 0)
(1 7.87427e-16 0)
(1 9.92485e-16 0)
(1 2.12002e-15 0)
(1 1.85796e-15 0)
(1 1.5756e-15 0)
(1 2.95957e-15 0)
(1 3.28265e-15 0)
(1 4.43079e-15 0)
(1 4.65167e-15 0)
(1 3.72059e-15 0)
(1 3.04078e-15 0)
(1 3.42756e-15 0)
(1 3.96343e-15 0)
(1 4.1078e-15 0)
(1 3.98204e-16 0)
(1 7.02983e-16 0)
(1 2.81894e-15 0)
(1 6.7754e-16 0)
(1 2.05436e-15 0)
(1 1.68483e-16 0)
(1 3.49535e-15 0)
(1 3.53347e-15 0)
(1 4.20223e-15 0)
(1 1.89637e-15 0)
(1 2.21281e-15 0)
(1 5.40554e-15 0)
(1 3.24415e-15 0)
(1 4.52292e-15 0)
(1 3.95488e-15 0)
(1 1.84763e-15 0)
(1 1.4457e-15 0)
(1 2.39323e-15 0)
(1 3.50865e-15 0)
(1 3.64943e-15 0)
(1 7.68071e-16 0)
(1 1.36493e-16 0)
(1 -3.36651e-15 0)
(1 1.49998e-15 0)
(1 2.23071e-15 0)
(1 2.4863e-15 0)
(1 3.73999e-16 0)
(1 2.39728e-15 0)
(1 1.92919e-15 0)
(1 4.27905e-16 0)
(1 2.19659e-16 0)
(1 1.40518e-15 0)
(1 1.01128e-15 0)
(1 1.48046e-15 0)
(1 2.01602e-15 0)
(1 5.2556e-16 0)
(1 -1.75085e-16 0)
(1 1.87483e-15 0)
(1 -1.24564e-16 0)
(1 -5.23799e-16 0)
(1 1.99675e-15 0)
(1 3.95287e-15 0)
(1 4.30341e-15 0)
(1 4.71861e-15 0)
(1 5.7244e-15 0)
(1 1.99731e-15 0)
(1 2.9515e-15 0)
(1 3.44762e-15 0)
(1 3.77832e-15 0)
(1 5.28385e-15 0)
(1 3.03267e-15 0)
(1 3.4567e-15 0)
(1 6.27161e-15 0)
(1 6.08694e-15 0)
(1 7.96174e-15 0)
(1 7.0057e-15 0)
(1 5.61714e-15 0)
(1 2.11807e-15 0)
(1 5.13726e-15 0)
(1 6.11965e-15 0)
(1 6.46367e-15 0)
(1 5.07121e-15 0)
(1 2.45363e-15 0)
(1 3.87475e-15 0)
(1 2.69601e-15 0)
(1 1.44333e-15 0)
(1 3.59243e-15 0)
(1 3.24412e-15 0)
(1 5.46434e-15 0)
(1 5.13221e-15 0)
(1 4.51692e-15 0)
(1 2.06291e-15 0)
(1 1.24601e-15 0)
(1 1.85545e-15 0)
(1 2.10904e-15 0)
(1 9.31531e-16 0)
(1 1.5024e-15 0)
(1 1.17082e-15 0)
(1 3.69642e-15 0)
(1 2.22066e-15 0)
(1 2.60931e-15 0)
(1 1.73674e-15 0)
(1 9.55508e-16 0)
(1 1.4654e-15 0)
(1 -3.20643e-17 0)
(1 1.93581e-15 0)
(1 2.99517e-15 0)
(1 3.20726e-15 0)
(1 1.28182e-15 0)
(1 2.21867e-15 0)
(1 3.22449e-15 0)
(1 2.90879e-15 0)
(1 2.46152e-15 0)
(1 1.47698e-15 0)
(1 5.76955e-15 0)
(1 2.33455e-15 0)
(1 4.14892e-15 0)
(1 4.35299e-15 0)
(1 4.32389e-15 0)
(1 4.21689e-15 0)
(1 1.97858e-16 0)
(1 9.59902e-16 0)
(1 2.09965e-15 0)
(1 1.44834e-15 0)
(1 1.04653e-15 0)
(1 -1.19236e-15 0)
(1 4.02047e-15 0)
(1 1.40648e-15 0)
(1 3.89879e-15 0)
(1 5.73152e-15 0)
(1 3.36343e-15 0)
(1 3.86879e-15 0)
(1 1.9445e-15 0)
(1 2.44722e-15 0)
(1 2.82008e-15 0)
(1 2.14836e-15 0)
(1 5.29628e-15 0)
(1 3.9969e-15 0)
(1 3.78738e-15 0)
(1 2.59863e-15 0)
(1 -3.70383e-16 0)
(1 -1.13991e-15 0)
(1 -3.82649e-15 0)
(1 -7.5824e-16 0)
(1 -1.49691e-15 0)
(1 4.8999e-15 0)
(1 2.90616e-15 0)
(1 3.90347e-15 0)
(1 1.33858e-15 0)
(1 -3.20826e-16 0)
(1 -6.65956e-16 0)
(1 1.09142e-15 0)
(1 7.39248e-16 0)
(1 1.5253e-15 0)
(1 1.18599e-15 0)
(1 -1.2514e-15 0)
(1 9.96598e-16 0)
(1 3.21291e-16 0)
(1 1.7995e-16 0)
(1 3.31464e-16 0)
(1 3.15387e-15 0)
(1 3.64063e-15 0)
(1 4.15089e-15 0)
(1 3.99074e-15 0)
(1 4.02594e-15 0)
(1 4.31565e-15 0)
(1 3.36237e-15 0)
(1 4.10422e-15 0)
(1 6.06231e-15 0)
(1 3.73866e-15 0)
(1 4.90231e-15 0)
(1 4.82963e-15 0)
(1 7.05616e-15 0)
(1 7.44182e-15 0)
(1 7.23672e-15 0)
(1 5.83508e-15 0)
(1 4.98362e-15 0)
(1 4.24656e-15 0)
(1 4.67611e-15 0)
(1 4.19781e-15 0)
(1 5.17551e-15 0)
(1 5.83988e-15 0)
(1 3.44382e-15 0)
(1 3.63678e-15 0)
(1 5.45281e-15 0)
(1 2.77912e-15 0)
(1 3.3755e-15 0)
(1 2.99236e-15 0)
(1 -7.55236e-16 0)
(1 2.48533e-15 0)
(1 3.25752e-15 0)
(1 5.14336e-15 0)
(1 2.98457e-15 0)
(1 1.95285e-15 0)
(1 1.0174e-15 0)
(1 -4.39006e-16 0)
(1 4.41286e-15 0)
(1 1.68112e-15 0)
(1 8.87462e-16 0)
(1 3.8609e-15 0)
(1 4.34702e-15 0)
(1 3.197e-15 0)
(1 3.99848e-15 0)
(1 1.51185e-15 0)
(1 4.13022e-16 0)
(1 1.29659e-15 0)
(1 1.45979e-15 0)
(1 3.02023e-16 0)
(1 3.22946e-16 0)
(1 6.51239e-16 0)
(1 5.44532e-15 0)
(1 2.46438e-15 0)
(1 3.08207e-15 0)
(1 2.21105e-15 0)
(1 4.41961e-15 0)
(1 3.36473e-15 0)
(1 3.45982e-15 0)
(1 3.19857e-15 0)
(1 3.04162e-15 0)
(1 3.13986e-15 0)
(1 2.47493e-16 0)
(1 1.0626e-15 0)
(1 7.87621e-16 0)
(1 2.35968e-15 0)
(1 -1.11155e-17 0)
(1 4.42405e-15 0)
(1 1.70076e-15 0)
(1 2.46066e-15 0)
(1 1.84692e-15 0)
(1 3.73427e-15 0)
(1 4.31201e-15 0)
(1 2.24409e-15 0)
(1 3.59278e-15 0)
(1 3.33355e-15 0)
(1 3.95666e-15 0)
(1 1.59786e-15 0)
(1 2.54071e-15 0)
(1 3.84061e-16 0)
(1 4.99889e-15 0)
(1 -8.33224e-17 0)
(1 -1.23383e-16 0)
(1 1.84339e-15 0)
(1 2.00914e-15 0)
(1 1.9016e-16 0)
(1 1.2705e-15 0)
(1 2.06246e-15 0)
(1 3.11426e-15 0)
(1 1.76726e-15 0)
(1 1.71983e-15 0)
(1 -6.05545e-16 0)
(1 1.9289e-16 0)
(1 8.74156e-17 0)
(1 -1.67366e-15 0)
(1 -7.51726e-16 0)
(1 -7.94641e-16 0)
(1 3.76759e-16 0)
(1 2.74168e-16 0)
(1 -2.46736e-16 0)
(1 1.47955e-15 0)
(1 2.9281e-15 0)
(1 4.58523e-15 0)
(1 3.93148e-15 0)
(1 2.50268e-15 0)
(1 5.47073e-15 0)
(1 3.74878e-15 0)
(1 3.04755e-15 0)
(1 4.11317e-15 0)
(1 1.22104e-15 0)
(1 5.68411e-15 0)
(1 3.93664e-15 0)
(1 5.54217e-15 0)
(1 6.20087e-15 0)
(1 6.32196e-15 0)
(1 7.19171e-15 0)
(1 5.95653e-15 0)
(1 1.88956e-15 0)
(1 4.20541e-15 0)
(1 5.06488e-15 0)
(1 5.03669e-15 0)
(1 3.67595e-15 0)
(1 6.16911e-15 0)
(1 6.22435e-15 0)
(1 7.03674e-15 0)
(1 3.72309e-15 0)
(1 4.33663e-15 0)
(1 4.68788e-15 0)
(1 1.88929e-15 0)
(1 2.74376e-15 0)
(1 1.12663e-15 0)
(1 1.63655e-15 0)
(1 3.92718e-15 0)
(1 3.42394e-15 0)
(1 5.36056e-16 0)
(1 8.02225e-16 0)
(1 8.47722e-16 0)
(1 -2.77804e-16 0)
(1 1.51108e-15 0)
(1 2.22588e-15 0)
(1 1.61654e-15 0)
(1 5.09524e-15 0)
(1 4.14957e-15 0)
(1 3.21041e-15 0)
(1 3.7561e-15 0)
(1 6.74485e-16 0)
(1 2.72655e-15 0)
(1 1.86476e-15 0)
(1 -6.74288e-17 0)
(1 4.95474e-16 0)
(1 1.96395e-15 0)
(1 3.062e-15 0)
(1 3.19189e-15 0)
(1 1.10598e-15 0)
(1 1.96237e-15 0)
(1 3.20267e-15 0)
(1 3.49276e-15 0)
(1 5.27245e-15 0)
(1 4.11307e-15 0)
(1 3.78136e-15 0)
(1 2.2679e-15 0)
(1 1.21771e-15 0)
(1 1.25077e-16 0)
(1 1.40914e-15 0)
(1 1.21137e-18 0)
(1 -3.31316e-16 0)
(1 2.20908e-15 0)
(1 1.84252e-15 0)
(1 9.52146e-16 0)
(1 3.01235e-15 0)
(1 2.05206e-15 0)
(1 4.19761e-15 0)
(1 4.08283e-15 0)
(1 1.90947e-15 0)
(1 3.09817e-15 0)
(1 2.68561e-15 0)
(1 4.17602e-15 0)
(1 2.0981e-15 0)
(1 5.52537e-16 0)
(1 3.01715e-15 0)
(1 5.42424e-15 0)
(1 3.99465e-15 0)
(1 2.99853e-15 0)
(1 2.19882e-15 0)
(1 -2.73274e-15 0)
(1 -3.09791e-15 0)
(1 1.04807e-15 0)
(1 -1.8853e-16 0)
(1 1.48522e-15 0)
(1 1.25002e-15 0)
(1 2.88662e-15 0)
(1 6.3662e-16 0)
(1 -1.51842e-15 0)
(1 -1.26903e-15 0)
(1 -2.37763e-15 0)
(1 -2.94664e-15 0)
(1 1.97069e-15 0)
(1 -7.32273e-17 0)
(1 1.32872e-15 0)
(1 -1.31867e-15 0)
(1 2.19242e-15 0)
(1 3.77624e-15 0)
(1 5.08591e-15 0)
(1 3.75729e-15 0)
(1 2.07291e-15 0)
(1 4.46298e-15 0)
(1 2.49964e-15 0)
(1 5.02327e-15 0)
(1 4.26484e-15 0)
(1 4.66058e-15 0)
(1 3.12444e-15 0)
(1 5.06275e-15 0)
(1 5.56928e-15 0)
(1 4.61863e-15 0)
(1 6.24258e-15 0)
(1 6.17034e-15 0)
(1 5.09778e-15 0)
(1 5.80511e-15 0)
(1 4.6823e-15 0)
(1 5.1214e-15 0)
(1 1.76799e-15 0)
(1 3.782e-15 0)
(1 2.38483e-15 0)
(1 3.79528e-15 0)
(1 4.72382e-15 0)
(1 4.44149e-15 0)
(1 6.05229e-15 0)
(1 5.41663e-15 0)
(1 4.57607e-15 0)
(1 3.17779e-15 0)
(1 3.37559e-15 0)
(1 1.67065e-15 0)
(1 -2.05944e-15 0)
(1 2.52402e-16 0)
(1 1.44311e-15 0)
(1 3.09272e-15 0)
(1 2.54695e-15 0)
(1 2.28487e-15 0)
(1 -6.9955e-16 0)
(1 1.93488e-15 0)
(1 3.35991e-15 0)
(1 8.07073e-16 0)
(1 1.07306e-15 0)
(1 1.82618e-15 0)
(1 1.97547e-15 0)
(1 2.69336e-15 0)
(1 3.4013e-15 0)
(1 2.07601e-15 0)
(1 1.61309e-15 0)
(1 3.16242e-15 0)
(1 2.88718e-15 0)
(1 3.9291e-15 0)
(1 7.67012e-16 0)
(1 1.90181e-15 0)
(1 1.87756e-15 0)
(1 1.76532e-15 0)
(1 3.09851e-15 0)
(1 3.23519e-15 0)
(1 1.92822e-15 0)
(1 2.47904e-15 0)
(1 1.54349e-15 0)
(1 6.67249e-16 0)
(1 1.55556e-16 0)
(1 8.05921e-16 0)
(1 9.4463e-16 0)
(1 3.33126e-16 0)
(1 2.23852e-15 0)
(1 5.60632e-16 0)
(1 1.71838e-15 0)
(1 1.58307e-15 0)
(1 3.85535e-15 0)
(1 5.79583e-15 0)
(1 4.52013e-15 0)
(1 3.21883e-15 0)
(1 1.38432e-15 0)
(1 5.02706e-16 0)
(1 8.78579e-16 0)
(1 4.4976e-15 0)
(1 2.30452e-15 0)
(1 4.44197e-15 0)
(1 -7.71067e-16 0)
(1 2.76427e-15 0)
(1 2.06665e-15 0)
(1 3.42766e-15 0)
(1 -1.49282e-15 0)
(1 -1.80653e-16 0)
(1 -8.37342e-16 0)
(1 1.55876e-15 0)
(1 1.75857e-15 0)
(1 2.61733e-16 0)
(1 2.24144e-15 0)
(1 -2.51409e-16 0)
(1 -8.88121e-16 0)
(1 -4.42304e-15 0)
(1 -1.83226e-15 0)
(1 -1.46005e-15 0)
(1 -1.76735e-15 0)
(1 5.64845e-16 0)
(1 2.44443e-15 0)
(1 3.15857e-16 0)
(1 3.03925e-15 0)
(1 1.28604e-15 0)
(1 1.3998e-15 0)
(1 2.04463e-15 0)
(1 5.87295e-15 0)
(1 3.79118e-15 0)
(1 4.03348e-15 0)
(1 5.63995e-15 0)
(1 2.27796e-15 0)
(1 6.16681e-15 0)
(1 1.52266e-15 0)
(1 2.83266e-15 0)
(1 1.33496e-15 0)
(1 3.58369e-15 0)
(1 6.96562e-15 0)
(1 6.8218e-15 0)
(1 4.23104e-15 0)
(1 8.63226e-15 0)
(1 5.38146e-15 0)
(1 5.32774e-15 0)
(1 3.58678e-15 0)
(1 4.97708e-15 0)
(1 3.92631e-15 0)
(1 2.69051e-15 0)
(1 2.92126e-15 0)
(1 6.44901e-15 0)
(1 2.95601e-15 0)
(1 4.37001e-15 0)
(1 4.9714e-15 0)
(1 3.73352e-15 0)
(1 2.25159e-15 0)
(1 1.26481e-15 0)
(1 -1.69034e-15 0)
(1 3.43839e-15 0)
(1 2.64165e-15 0)
(1 3.18617e-15 0)
(1 1.78965e-15 0)
(1 3.84475e-15 0)
(1 1.50358e-15 0)
(1 2.92086e-15 0)
(1 1.9535e-15 0)
(1 -5.39627e-16 0)
(1 1.76549e-15 0)
(1 1.9075e-15 0)
(1 2.13296e-16 0)
(1 2.80555e-15 0)
(1 2.24854e-15 0)
(1 1.98205e-15 0)
(1 1.76689e-15 0)
(1 3.25259e-15 0)
(1 1.99863e-15 0)
(1 2.65949e-15 0)
(1 2.53891e-15 0)
(1 2.43427e-15 0)
(1 2.15832e-15 0)
(1 3.16407e-15 0)
(1 1.79836e-15 0)
(1 2.73956e-15 0)
(1 1.63338e-15 0)
(1 2.69971e-15 0)
(1 1.14295e-15 0)
(1 9.66189e-16 0)
(1 2.12122e-17 0)
(1 1.17321e-15 0)
(1 3.62032e-16 0)
(1 1.12254e-15 0)
(1 9.2066e-16 0)
(1 2.45155e-15 0)
(1 5.46779e-16 0)
(1 1.39351e-15 0)
(1 3.6891e-15 0)
(1 1.03415e-15 0)
(1 6.0154e-15 0)
(1 5.19306e-15 0)
(1 4.53512e-15 0)
(1 -1.21874e-17 0)
(1 4.17091e-16 0)
(1 2.891e-15 0)
(1 4.19662e-16 0)
(1 2.37123e-15 0)
(1 -2.72583e-15 0)
(1 2.43414e-15 0)
(1 3.72786e-15 0)
(1 1.66057e-15 0)
(1 3.47987e-15 0)
(1 -2.65583e-17 0)
(1 -1.51663e-15 0)
(1 -1.61477e-15 0)
(1 -1.23696e-15 0)
(1 -4.98368e-16 0)
(1 1.24114e-16 0)
(1 -8.28154e-16 0)
(1 -9.53766e-16 0)
(1 -1.25295e-15 0)
(1 -2.87052e-16 0)
(1 -1.65633e-16 0)
(1 -1.54265e-15 0)
(1 1.32189e-15 0)
(1 -7.12181e-16 0)
(1 1.2534e-15 0)
(1 2.46276e-15 0)
(1 -3.3789e-16 0)
(1 -4.7826e-16 0)
(1 1.25723e-15 0)
(1 5.02415e-15 0)
(1 2.44905e-15 0)
(1 4.64611e-15 0)
(1 3.16325e-15 0)
(1 7.68627e-16 0)
(1 3.25243e-15 0)
(1 2.36231e-15 0)
(1 2.26417e-15 0)
(1 3.3945e-15 0)
(1 5.53382e-15 0)
(1 7.51574e-15 0)
(1 6.94527e-15 0)
(1 7.50631e-15 0)
(1 6.91435e-15 0)
(1 4.3064e-15 0)
(1 5.69271e-15 0)
(1 4.06384e-15 0)
(1 3.11261e-15 0)
(1 4.58597e-15 0)
(1 2.76152e-15 0)
(1 5.49977e-15 0)
(1 3.4325e-15 0)
(1 4.22025e-15 0)
(1 4.18713e-15 0)
(1 4.36337e-15 0)
(1 3.70686e-15 0)
(1 3.84408e-15 0)
(1 2.79762e-15 0)
(1 4.04271e-15 0)
(1 1.39663e-15 0)
(1 2.80073e-16 0)
(1 1.23055e-15 0)
(1 1.17075e-15 0)
(1 1.98066e-15 0)
(1 1.73881e-15 0)
(1 2.47539e-15 0)
(1 1.50072e-16 0)
(1 -2.77072e-16 0)
(1 2.36648e-15 0)
(1 1.28185e-15 0)
(1 6.47946e-16 0)
(1 1.60588e-15 0)
(1 1.77714e-15 0)
(1 2.79177e-15 0)
(1 1.86489e-15 0)
(1 3.20482e-15 0)
(1 2.22071e-15 0)
(1 1.13021e-15 0)
(1 1.43617e-15 0)
(1 1.03582e-15 0)
(1 1.70342e-15 0)
(1 3.13089e-15 0)
(1 2.03843e-15 0)
(1 1.69326e-15 0)
(1 2.47836e-16 0)
(1 1.82122e-15 0)
(1 2.69831e-15 0)
(1 2.72199e-15 0)
(1 -2.80227e-16 0)
(1 1.30579e-15 0)
(1 7.43596e-16 0)
(1 8.81394e-16 0)
(1 3.52789e-15 0)
(1 2.66099e-15 0)
(1 3.70241e-15 0)
(1 2.6252e-15 0)
(1 2.63144e-15 0)
(1 -9.07415e-17 0)
(1 1.56933e-15 0)
(1 2.16088e-15 0)
(1 3.57536e-15 0)
(1 2.40935e-15 0)
(1 5.36321e-16 0)
(1 -4.67107e-17 0)
(1 1.36076e-15 0)
(1 1.8138e-15 0)
(1 4.06503e-15 0)
(1 -4.45507e-16 0)
(1 -1.84106e-16 0)
(1 -1.8222e-15 0)
(1 3.79914e-15 0)
(1 -1.98959e-17 0)
(1 -1.57852e-15 0)
(1 -1.85891e-15 0)
(1 -1.1703e-15 0)
(1 4.99331e-16 0)
(1 -3.35866e-15 0)
(1 -4.91977e-16 0)
(1 -3.59417e-15 0)
(1 7.61717e-16 0)
(1 -1.46176e-15 0)
(1 -7.8154e-16 0)
(1 -7.07908e-17 0)
(1 -8.1111e-16 0)
(1 -4.63905e-16 0)
(1 -3.78753e-16 0)
(1 -3.68723e-16 0)
(1 6.60339e-16 0)
(1 1.58958e-15 0)
(1 1.33419e-15 0)
(1 6.14953e-16 0)
(1 4.07088e-15 0)
(1 3.7047e-15 0)
(1 3.71228e-15 0)
(1 2.65914e-15 0)
(1 1.76496e-15 0)
(1 1.0067e-15 0)
(1 1.20751e-16 0)
(1 5.68976e-15 0)
(1 8.24604e-15 0)
(1 6.65152e-15 0)
(1 5.63684e-15 0)
(1 7.5795e-15 0)
(1 4.64233e-15 0)
(1 3.92659e-15 0)
(1 4.81788e-15 0)
(1 3.43004e-15 0)
(1 2.51796e-15 0)
(1 1.78177e-15 0)
(1 3.74501e-15 0)
(1 3.48672e-15 0)
(1 1.40363e-15 0)
(1 5.97666e-15 0)
(1 1.93359e-15 0)
(1 1.72964e-15 0)
(1 1.73296e-15 0)
(1 2.71525e-15 0)
(1 3.26319e-15 0)
(1 2.24617e-15 0)
(1 -7.88711e-16 0)
(1 1.06823e-15 0)
(1 2.13789e-15 0)
(1 9.9062e-16 0)
(1 1.72747e-15 0)
(1 1.58387e-15 0)
(1 1.85529e-15 0)
(1 1.08801e-15 0)
(1 2.11001e-15 0)
(1 -8.54429e-16 0)
(1 -1.28461e-16 0)
(1 1.44733e-15 0)
(1 1.49822e-15 0)
(1 1.86306e-15 0)
(1 1.88935e-15 0)
(1 2.2025e-15 0)
(1 3.65101e-15 0)
(1 3.04741e-15 0)
(1 1.94445e-15 0)
(1 1.10086e-16 0)
(1 7.57118e-16 0)
(1 1.46482e-15 0)
(1 1.41759e-15 0)
(1 7.39007e-16 0)
(1 4.29632e-16 0)
(1 8.14693e-16 0)
(1 5.18623e-16 0)
(1 2.67024e-15 0)
(1 2.53046e-15 0)
(1 -1.75857e-16 0)
(1 7.6497e-16 0)
(1 1.42981e-15 0)
(1 2.55773e-15 0)
(1 3.30675e-15 0)
(1 1.70432e-15 0)
(1 3.52458e-15 0)
(1 3.08715e-15 0)
(1 1.82724e-15 0)
(1 2.07105e-15 0)
(1 -4.80299e-17 0)
(1 -1.09098e-15 0)
(1 5.47924e-16 0)