/*--------------------------------*- C++ -*----------------------------------*\
| =========                 |                                                 |
| \\      /  F ield         | OpenFOAM: The Open Source CFD Toolbox           |
|  \\    /   O peration     | Version:  v2012                                 |
|   \\  /    A nd           | Website:  www.openfoam.com                      |
|    \\/     M anipulation  |                                                 |
\*---------------------------------------------------------------------------*/
FoamFile
{
    version     2.0;
    format      ascii;
    class       volScalarField;
    location    "0";
    object      p;
}
// * * * * * * * * * * * * * * * * * * * * * * * * * * * * * * * * * * * * * //

dimensions      [0 2 -2 0 0 0 0];


internalField   nonuniform List<scalar> 
4000
(
0.023323
0.0288574
0.0422683
0.0305207
0.0692105
0.0673621
0.120248
0.11563
0.0527857
-0.00596767
-0.0606747
0.0420218
0.0452757
0.028239
0.0399387
0.0831171
-0.0986252
-0.0895466
-0.0305033
0.055279
0.0124166
-0.042939
-0.104327
-0.0988155
-0.0599026
-0.0861212
-0.119517
-0.181404
-0.226913
-0.137128
-0.05376
-0.0130065
0.0445775
0.103564
0.0887237
0.103913
0.00543475
0.0740631
0.0995712
0.147927
0.155123
0.0292279
-0.0204868
-0.0193427
-0.0101412
0.0078341
-0.0389769
-0.06188
-0.107418
-0.164148
-0.082813
-0.0106405
0.0253749
0.0198284
0.0315133
0.00974383
0.123682
0.123646
0.0220423
0.00944355
-0.0815808
-0.0634007
0.00457272
-0.0566532
-0.142581
-0.111445
-0.0964182
-0.0400723
0.0412782
0.0534711
0.0291112
0.0349896
0.0806057
0.148467
0.195936
0.126911
0.16227
0.150646
0.158966
0.0845599
0.0837188
0.10412
0.0690814
-0.0286855
-0.0934241
-0.164277
-0.136461
-0.150601
-0.189365
-0.1838
-0.196933
-0.2021
-0.15553
-0.11184
-0.0422944
-0.0390893
-0.0633276
-0.0622222
-0.0104143
-0.00618409
0.0015825
0.0143248
0.0570796
0.0385048
0.0667247
0.0895309
0.112617
0.0915683
-0.0217744
0.0120568
0.0287379
0.0316332
-0.00490558
0.0616251
0.0371389
0.058332
-0.00297031
-0.104861
-0.0277149
0.0160975
0.03734
-0.0537947
-0.116928
-0.100352
-0.0516538
-0.112727
-0.155417
-0.214787
-0.170891
-0.145424
-0.0930232
0.00225159
0.0621381
0.126507
0.106655
0.112501
0.0307263
0.072932
0.066387
0.0671646
0.145447
0.0824288
0.0091601
-0.036701
-0.0269751
-0.0389698
-0.0428171
-0.0796377
-0.113182
-0.144
-0.0630612
-0.0276978
0.0108919
0.0244524
-0.00077387
0.0422185
0.136324
0.165781
0.0316693
0.0288222
-0.0785183
-0.0551948
0.00661988
-0.0565806
-0.144453
-0.140898
-0.0851333
-0.024353
-0.0228382
0.0668407
0.0590993
0.0640946
0.107204
0.105065
0.151816
0.123445
0.155801
0.171391
0.18777
0.136146
0.0440124
0.0594718
0.0780424
-0.00948654
-0.12376
-0.128796
-0.156277
-0.175907
-0.176426
-0.21382
-0.17423
-0.189146
-0.143304
-0.100982
-0.0652998
-0.040038
-0.102876
-0.0564907
-0.00184156
-0.017344
0.00527058
0.0136528
0.0530778
0.0467256
0.0573859
0.108936
0.0998333
0.0365458
-0.0376107
-0.0255759
0.0260698
0.0729785
0.0746929
0.116382
0.0170486
0.00339937
-0.000365641
-0.033334
-0.0495012
0.0109227
0.0401927
-0.0408135
-0.148498
-0.10737
-0.0954787
-0.10666
-0.167134
-0.194185
-0.162007
-0.176134
-0.0801051
0.00598021
0.0649894
0.106865
0.111905
0.153716
0.0815527
0.0809351
0.0514728
0.117701
0.190846
0.0638873
-0.0630667
-0.0533133
-0.035959
-0.047569
0.0240694
-0.0522577
-0.119666
-0.13071
-0.0617366
-0.0642248
-0.00694001
0.046978
0.0557795
0.0706545
0.115334
0.102801
-0.00640601
-0.0179567
-0.0428032
-0.00816917
0.00791567
-0.0247572
-0.136228
-0.139171
-0.106747
-0.0744845
0.029573
0.0498535
0.0175127
0.0786791
0.108111
0.102925
0.163347
0.11917
0.169746
0.212114
0.166264
0.133549
0.0325047
0.0666819
0.0689248
0.0402196
-0.0779484
-0.143636
-0.142859
-0.190491
-0.182474
-0.220463
-0.159735
-0.153011
-0.172452
-0.105742
-0.0202224
-0.0505181
-0.109839
-0.103446
-0.0185457
0.00115766
-0.002605
0.0413369
0.033441
0.0333572
0.0775028
0.0923239
0.0645073
0.0519202
-0.00580711
-0.0482265
0.0159204
0.0942194
0.0747226
0.138777
0.0709399
0.0191427
-0.052154
-0.0109071
-0.0206789
-0.0646506
0.0559741
-0.0225084
-0.0903813
-0.11872
-0.135548
-0.165743
-0.173643
-0.200317
-0.170081
-0.146596
-0.10996
0.0100068
0.0607776
0.0696516
0.149956
0.129184
0.14104
0.115179
0.105801
0.123649
0.110863
-0.015311
-0.0719115
-0.0245645
-0.0219462
-0.0921859
-0.0481164
-0.0500288
-0.0863855
-0.112935
-0.0384795
-0.0492519
-0.0187635
0.0154353
0.0637761
0.0845955
0.0777712
0.076293
0.00838655
0.00329229
0.00205824
-0.0202149
0.0405494
-0.0487858
-0.152441
-0.130138
-0.0882247
-0.070371
0.0253756
0.00996828
0.0373163
0.100798
0.143514
0.131566
0.107944
0.123034
0.173757
0.230854
0.166717
0.105135
0.0647712
0.0603252
0.0300182
0.0143443
-0.0460328
-0.147625
-0.154345
-0.196936
-0.195458
-0.216804
-0.152273
-0.138249
-0.111082
-0.0724392
-0.0389949
-0.0478885
-0.133667
-0.0918782
-0.0140773
-0.000624683
0.00572287
0.00262
0.0147595
-0.0292176
0.0983455
0.0930567
0.0453498
0.0420824
-0.00784991
0.0328494
0.0614613
0.0684238
0.0775595
0.135698
0.0876474
0.0468132
-0.0596966
-0.00651158
-0.00996045
-0.0457814
0.0424331
0.049848
-0.122685
-0.132666
-0.149111
-0.16327
-0.178445
-0.180775
-0.166724
-0.147742
-0.0823721
0.00227893
0.116007
0.124174
0.12748
0.134884
0.225039
0.109334
0.06257
0.0764509
0.133315
-0.0181369
-0.0980963
-0.0491567
-0.0205902
-0.0745909
-0.0908323
-0.0948947
-0.0845468
-0.0828558
-0.00755374
-0.084201
-0.00137535
0.0138545
0.0327838
0.0690006
0.111869
0.0130288
-0.0356801
-0.00348997
0.0083077
0.0394929
-0.0088386
-0.018014
-0.152517
-0.160885
-0.102786
-0.0571538
0.0116076
0.0208191
0.0723844
0.0672362
0.0799248
0.126845
0.127705
0.123288
0.174373
0.180149
0.148725
0.123345
0.0815197
0.0212114
0.0609382
0.0596315
-0.0443587
-0.130996
-0.160976
-0.198251
-0.190728
-0.169167
-0.105547
-0.110581
-0.107238
-0.0294604
-0.0644899
-0.053031
-0.107016
-0.0413488
0.0298937
0.0303382
-0.00809086
-0.0132901
0.0129239
0.0351449
0.0426847
0.0202695
0.0321338
-0.00137371
-0.0187872
0.0361307
0.107811
0.0507842
0.159804
0.158932
0.112537
0.0576952
-0.0610911
-0.00269215
0.0216161
0.0203327
-0.00491068
-0.0290433
-0.112293
-0.0833092
-0.172107
-0.17158
-0.218576
-0.157318
-0.169573
-0.157344
-0.0914046
0.00039132
0.0369215
0.0781533
0.140456
0.139239
0.2392
0.129887
0.0913827
0.0592221
0.0769249
-0.018923
-0.084879
-0.0747286
-0.0753082
-0.0997258
-0.0749402
-0.159529
-0.103551
-0.0815278
-0.0315667
-0.00398869
0.0125317
0.0117226
0.0170664
0.014217
0.0856602
0.0536279
-0.0109058
-0.0574491
0.0447268
0.0583477
-0.00957697
-0.0413172
-0.136696
-0.139257
-0.107921
-0.0208723
-0.0785471
-0.0154461
0.0621797
0.0774856
0.0321713
0.155374
0.177007
0.187389
0.124461
0.195188
0.169609
0.127816
0.0951503
0.0240384
0.0303999
-0.0144026
-0.0482911
-0.0851491
-0.148466
-0.192335
-0.198385
-0.155904
-0.139376
-0.108209
-0.0634553
-0.0405267
-0.0112673
-0.0447428
-0.0176568
0.0177568
0.0695117
0.0272958
-0.0256416
-0.0493866
-0.0151216
-0.0505853
0.0884157
0.0975523
-0.0546836
0.00887482
0.045739
0.0387212
0.0261319
0.033393
0.172722
0.200031
0.0542164
0.0473262
-0.0102622
0.0318174
0.0130415
0.0427375
-0.0255724
-0.04501
-0.0614148
-0.141521
-0.141555
-0.113192
-0.257034
-0.184071
-0.117227
-0.152916
-0.161123
0.00218989
0.0685699
0.140301
0.160301
0.136188
0.153656
0.127762
0.133032
0.0514382
0.0131339
-0.0765946
-0.047948
-0.0933539
-0.0845773
-0.108526
-0.0936077
-0.152194
-0.0877276
-0.107985
-0.0167996
-0.0177688
-0.0206575
0.00918154
0.018971
0.00449986
0.0565696
0.00654297
-0.0105434
-0.0165388
-0.0128834
0.0923369
-0.00325218
-0.0575547
-0.138479
-0.112019
-0.0974571
-0.0780894
-0.0633669
0.00128954
-0.0322887
-0.0647437
0.132826
0.163699
0.169101
0.176967
0.166422
0.115571
0.162587
0.177498
0.114253
0.00114387
-0.00439968
0.0111105
0.0252492
-0.102122
-0.122169
-0.162011
-0.142038
-0.162755
-0.106692
-0.0595134
-0.0519485
-0.0221334
-0.0182232
0.026056
-0.00267969
0.0754394
0.102061
0.00248196
-0.0488699
-0.0494517
-0.0383473
0.0364262
-0.0127743
0.0063424
0.00476503
0.00437804
0.00785679
0.0522832
0.0316589
0.0604253
0.191153
0.183438
0.0711552
0.00761124
-0.0270511
0.0436863
0.0633409
0.0328173
-0.0193468
-0.0183686
-0.0743453
-0.140728
-0.173074
-0.136592
-0.219705
-0.163924
-0.168916
-0.10558
-0.111103
-0.116666
0.0159572
0.143889
0.16842
0.172241
0.152386
0.1389
0.105
0.0271698
0.0368826
-0.0852503
-0.1253
-0.242876
-0.123966
-0.104823
-0.121485
-0.125478
-0.113614
-0.108002
-0.0423266
0.0101407
0.0331156
0.0585032
0.0243448
-0.0613039
0.0801677
0.0180863
-0.00922997
-0.000414407
-0.018514
0.0395997
-1.2234e-05
-0.065897
-0.106199
-0.0801859
-0.126126
-0.11023
-0.067097
-0.0282405
-0.0321567
-0.0354723
0.0962555
0.181945
0.222133
0.216699
0.17858
0.146571
0.212808
0.135791
0.0752986
0.0293104
-0.0276293
-0.0203824
-0.0125968
-0.053323
-0.0954154
-0.127873
-0.0984435
-0.137654
-0.0475871
-0.0721033
-0.0349488
-0.0160463
-0.00288261
0.103507
0.0269129
0.0755089
0.101186
0.0108933
-0.045155
-0.00534557
-0.0776656
-0.0852182
0.0312687
0.0346962
-0.0184766
-0.0462437
0.00625293
-0.0139182
0.0298856
0.115616
0.186488
0.117485
0.0303948
0.0161484
-0.0378962
0.0519803
0.0208419
-0.0201275
0.0206044
-0.0239761
-0.0167536
-0.0509503
-0.0763784
-0.194323
-0.177446
-0.226746
-0.185617
-0.170044
-0.153713
-0.0871372
0.0988934
0.17888
0.189008
0.184729
0.11507
0.111637
0.0765248
0.00571105
-0.00919994
-0.115017
-0.0730909
-0.139984
-0.116485
-0.182177
-0.103786
-0.154994
-0.14062
-0.0765131
-0.0681426
0.0718777
0.0421274
0.0500222
-0.0151335
0.0140179
0.0675775
0.000636222
-0.0405302
-0.0276018
0.0124965
0.00996861
-0.0147546
-0.0131962
-0.0864803
-0.0635344
-0.139104
-0.128847
-0.0540877
-0.0741467
-0.0463865
0.00498024
0.0939504
0.156715
0.216901
0.234299
0.211099
0.178071
0.192696
0.0985374
0.103673
0.0304932
0.00503383
0.0377544
-0.0234557
-0.0465003
-0.0271816
-0.0717634
-0.0635592
-0.0959224
-0.0390218
-0.0133119
-0.0707195
0.0195276
0.0894954
0.137475
0.067107
0.0763535
0.0636791
0.0145204
-0.0523358
-0.0452422
-0.128981
-0.0669791
0.0248096
-0.0523935
-0.0381845
-0.0216484
0.0297627
-0.00446031
-0.00179452
0.0495743
0.158927
0.144386
0.0256695
0.0264383
0.0206346
0.0233773
0.0462971
0.0478894
0.109416
0.00521302
-0.0768234
-0.125399
-0.139411
-0.14191
-0.219091
-0.226514
-0.124605
-0.122412
-0.145415
-0.0710826
0.0876125
0.143839
0.192252
0.19333
0.138733
0.0933471
0.0195676
0.0170796
0.0751233
-0.114398
-0.122128
-0.138126
-0.173489
-0.19994
-0.168882
-0.175657
-0.13243
-0.0394248
-0.0201462
0.060303
0.0718522
0.0515289
-0.0586913
0.00596567
0.0615079
0.0176533
-0.0343173
-0.0362806
0.0251995
-0.0551027
0.0100304
-0.0258861
-0.110815
-0.0700042
-0.0397631
-0.171665
-0.124979
-0.0669819
-0.0493174
0.0257917
0.13227
0.151693
0.195113
0.246527
0.186367
0.173102
0.221132
0.0860212
0.122632
0.0265258
0.00514772
0.0560114
-0.0165995
-0.00810756
-0.0495928
-0.102867
-0.00858099
-0.024632
-0.0409634
0.0237673
-0.00114383
0.0517956
0.138502
0.132757
0.105118
0.0803303
0.012406
-0.00716306
-0.0712524
-0.0919081
-0.100051
-0.0761664
-0.0291494
-0.0904112
-0.0222234
-0.0302745
-0.0507998
-0.107409
-0.00978881
0.0844281
0.120724
0.181466
0.129295
0.0525833
0.0108569
0.0136481
0.0320634
0.0356053
0.10076
0.0701356
-0.0624385
-0.0672511
-0.0973775
-0.190447
-0.221144
-0.233888
-0.133137
-0.121302
-0.04319
-0.0183138
0.0317404
0.194381
0.191866
0.21549
0.143222
0.114409
0.0397737
-0.00121735
-0.00301122
-0.131461
-0.11445
-0.128092
-0.170605
-0.163248
-0.166517
-0.197949
-0.0665619
-0.0612395
-0.0307257
0.0611256
0.0268551
0.00569964
-0.0130643
0.0147992
0.0539504
-0.0271236
-0.0264424
-0.00900999
-0.000757086
-0.0505674
0.0168891
-0.06235
-0.127928
-0.0932438
-0.115216
-0.131827
-0.118537
-0.0376089
0.0357583
0.0750041
0.0368279
0.104144
0.174877
0.222004
0.217041
0.154156
0.221516
0.14557
0.0811515
-0.0193306
0.00562174
0.0614516
-0.00751349
0.0089427
-0.052905
-0.0318269
-0.0096504
-0.0178475
-0.0135118
0.0519134
0.0631423
0.0796548
0.0869195
0.143738
0.142428
0.119547
0.0224302
-0.0391278
-0.0535797
-0.111688
-0.150944
-0.0754465
-0.0444992
-0.126568
-0.0727252
-0.066834
-0.0896703
-0.0742862
0.0202443
0.0510828
0.0987826
0.177228
0.113393
0.0805142
0.0592564
0.0377694
0.0688727
0.0601585
0.141208
0.0641026
-0.105584
-0.121196
-0.129294
-0.145521
-0.169931
-0.224279
-0.0779472
-0.0867398
-0.0518976
0.0192819
0.0462239
0.178019
0.179498
0.20157
0.173236
0.115374
0.0361516
-0.00598526
-0.0752108
-0.187878
-0.0851387
-0.0920175
-0.198826
-0.16286
-0.17281
-0.187168
-0.0706115
-0.0110175
-0.0212602
0.0353613
0.0100967
0.00169351
-0.00361638
0.00274002
0.0240666
0.025349
-0.0348443
-0.0623282
0.0261154
-0.0239253
-0.0112515
-0.0656096
-0.101659
-0.0973764
-0.128164
-0.155842
-0.0941434
0.0560336
-0.0321379
-0.00372048
0.0703898
0.132866
0.193563
0.120335
0.170739
0.143365
0.202778
0.0971036
0.0505842
0.0122876
-0.0442253
0.0632804
0.0333485
-0.0115093
-0.0480373
-0.0313774
-0.0259463
-0.0264716
0.0308977
0.127563
0.112503
0.184423
0.0891051
0.160786
0.146535
0.0960347
0.0591045
-0.0172961
-0.063414
-0.124641
-0.129324
-0.105548
-0.102096
-0.173966
-0.143962
-0.0599675
-0.0797963
-0.104782
-0.0311466
0.0680245
0.0595912
0.101608
0.139126
0.0997468
0.134644
0.109483
0.0293344
0.0119444
0.0964385
0.108869
0.0306649
-0.114028
-0.126351
-0.148278
-0.156652
-0.226986
-0.0717417
-0.0787185
-0.0588521
0.0414534
0.108463
0.122573
0.166174
0.217646
0.213265
0.0914662
0.0271661
-0.0131071
-0.057938
-0.169739
-0.110765
-0.154991
-0.190783
-0.135629
-0.174213
-0.211339
-0.108334
0.0315829
0.00838843
0.00710575
0.0420411
-0.00162729
0.0330281
-0.0419146
-0.00605246
0.0233013
-0.0223766
-0.00665648
-0.0226464
-0.0594649
-0.0677551
-0.070491
-0.0315718
-0.127074
-0.190416
-0.157969
-0.0543705
0.0657926
-0.00296362
0.00991833
0.0404879
0.04909
0.143315
0.188697
0.108956
0.0462028
0.151526
0.166328
0.0584433
-0.042309
-0.026274
0.065681
0.0112946
-0.0724468
-0.0661518
-0.0405969
0.00149624
0.000281132
0.0401372
0.173397
0.205889
0.133726
0.158924
0.162533
0.172321
0.0825208
0.0891752
0.00382485
-0.088807
-0.120087
-0.120949
-0.0955718
-0.112048
-0.174601
-0.151976
-0.119646
-0.158915
-0.149226
-0.084603
0.0628018
0.174197
0.10931
0.0670041
0.0708113
0.132699
0.11606
0.154007
0.0681789
0.0687098
0.108005
0.0432689
-0.0724718
-0.174496
-0.196238
-0.114503
-0.140051
-0.125832
-0.0739886
-0.0337602
0.00788732
0.0642905
0.0860537
0.159217
0.219222
0.179249
0.161141
0.112372
-0.0595782
-0.0810807
-0.135717
-0.125608
-0.191099
-0.161796
-0.178473
-0.172072
-0.19562
-0.0937579
0.0124708
-0.0632342
-0.0120563
0.064451
0.0586546
0.074337
0.0336027
0.0188576
0.0164866
0.0752412
-0.0125802
-0.0536588
-0.0561471
-0.0976504
-0.0713903
-0.123597
-0.156359
-0.197136
-0.158393
-0.0205592
0.076425
-0.00865563
-0.0565628
0.0328251
0.0783647
0.117067
0.134283
0.122357
0.0570503
0.0956184
0.115216
0.0200159
-0.020199
-0.00303316
-0.0267829
-0.0206036
-0.111344
-0.0605857
-0.0551571
0.00974432
0.0401974
0.0413841
0.147261
0.206368
0.17038
0.190895
0.158452
0.127508
0.132203
0.0586682
0.0401637
-0.0798928
-0.153763
-0.121195
-0.0682516
-0.104153
-0.176787
-0.13502
-0.111687
-0.144938
-0.115775
-0.0875693
0.00928034
0.0557001
0.0727749
0.048792
0.179768
0.173229
0.197615
0.152829
0.108845
0.0144489
0.0668496
0.0300141
-0.0650213
-0.0874782
-0.207319
-0.104236
-0.148852
-0.112376
-0.0552718
-0.0246858
-0.00133042
0.06549
0.0817685
0.14053
0.201888
0.220633
0.150702
0.0849587
-0.00860019
-0.0874813
-0.230161
-0.172912
-0.186217
-0.177006
-0.157601
-0.180035
-0.233168
-0.0812428
0.0654021
0.0176713
0.0748585
0.0654112
0.0330325
0.0991009
0.106095
0.0264339
0.0647989
0.0544778
0.0362291
-0.0929656
-0.107701
-0.116597
-0.0863419
-0.109465
-0.1441
-0.167438
-0.144952
-0.0599181
0.0227429
0.0152122
0.00307453
0.0211857
0.0936649
0.0716615
0.098186
0.11756
0.0499973
0.0688408
0.0638827
-0.0336123
-0.0319843
-0.0143924
-0.0587437
-0.0886017
-0.0902978
-0.0352941
-0.043208
0.0136299
0.0511398
0.025772
0.132345
0.184189
0.161474
0.173885
0.21853
0.161336
0.150191
0.0821022
0.0416287
-0.111665
-0.106717
-0.0578313
-0.0688359
-0.137989
-0.120066
-0.128718
-0.18635
-0.0878665
-0.0885687
-0.113427
-0.053622
0.0582082
0.109828
0.0919185
0.185775
0.184706
0.127368
0.157529
0.143039
0.0370694
0.0997686
0.087819
-0.101964
-0.13869
-0.191905
-0.15961
-0.1329
-0.108187
-0.0150781
-0.034062
-0.0672452
0.0117829
0.126905
0.182431
0.219889
0.204106
0.116454
0.112466
0.0688909
-0.0887437
-0.212962
-0.150595
-0.168581
-0.224718
-0.210456
-0.0918044
-0.10997
-0.0771485
-0.00377585
-0.0218119
0.0406381
0.139794
0.0942331
0.169938
0.119119
0.078825
0.0805086
0.0518284
0.0464024
-0.012538
-0.154753
-0.115695
-0.0520477
-0.138884
-0.20636
-0.203477
-0.100451
-0.0405918
-0.0127388
0.103616
0.0636731
-0.00157179
0.0540731
0.0147134
0.0664906
0.0648412
0.028351
0.068315
0.033719
-0.030488
-0.091167
-0.063023
-0.108538
-0.0751908
-0.0965947
-0.0731041
-0.0494335
0.0275281
0.0520169
0.048921
0.155127
0.149573
0.2002
0.160183
0.169368
0.13094
0.181379
0.0896394
0.0151334
-0.136558
-0.119298
-0.0391393
-0.0961829
-0.0946764
-0.109203
-0.106183
-0.179039
-0.137448
-0.111962
-0.0303344
-0.0674115
0.0123447
0.0861646
0.133454
0.205932
0.162274
0.106507
0.209832
0.165729
0.137366
0.0130494
-0.058166
-0.122399
-0.15388
-0.111268
-0.0907142
-0.0560348
-0.0944169
-0.043116
-0.0677824
-0.0506659
0.0549337
0.113625
0.171046
0.197782
0.2484
0.148858
0.0474483
-0.000301956
-0.0664238
-0.141116
-0.228244
-0.196977
-0.166125
-0.206315
-0.138312
-0.0258004
-0.0246712
-0.0110223
-0.039214
0.10273
0.125694
0.199598
0.194977
0.168112
0.150126
0.104683
0.0715178
0.059807
-0.00787491
-0.102114
-0.144912
-0.0671601
-0.085056
-0.15602
-0.242381
-0.122209
-0.0184275
0.0289144
0.0386253
0.0465746
0.0144995
0.0226058
-0.0416833
0.0336323
0.0708471
-0.00490154
0.0272134
0.0143921
-0.0652234
-0.15912
-0.101231
-0.0334782
-0.0608704
-0.0714075
-0.108956
-0.0684521
-0.0099912
0.0190936
0.0885246
0.15782
0.141307
0.142365
0.177973
0.208402
0.102777
0.156825
0.146799
0.0578248
-0.11209
-0.0892233
-0.0840643
-0.056534
-0.0922269
-0.154077
-0.138475
-0.137264
-0.0781007
-0.0981006
-0.0881077
-0.115447
0.0109082
0.159087
0.21685
0.244253
0.10518
0.10865
0.138865
0.109429
0.0479054
0.00765936
0.0100476
-0.0689639
-0.122304
-0.115162
-0.112833
-0.0550197
-0.0834631
-0.0590121
-0.0424156
-0.00694774
0.0516773
0.0927918
0.109476
0.219809
0.199197
0.0830935
0.119663
0.0536343
-0.0308908
-0.0705646
-0.18376
-0.21089
-0.161918
-0.190711
-0.0735259
-0.0708177
-0.011022
-0.00377778
-0.0351095
0.0823148
0.190119
0.220365
0.246731
0.217944
0.183723
0.126499
0.141431
0.088496
-0.0659028
-0.108328
-0.165815
-0.0619042
-0.097148
-0.164397
-0.24513
-0.0941379
0.0137756
0.0797014
0.0372086
0.0210873
-0.041017
-0.0179623
-0.0466517
-0.0185516
0.0244259
-0.0145112
-0.00803722
-0.0657227
-0.0838768
-0.119425
-0.182213
-0.0890329
-0.0410192
-0.0649158
-0.0116787
-0.0761341
-0.0215348
0.0740905
0.0152934
0.140843
0.167972
0.15563
0.143617
0.210976
0.144897
0.1554
0.0898831
0.0551131
-0.121453
-0.100602
-0.0608721
-0.0367551
-0.089283
-0.185439
-0.162833
-0.114182
-0.0991881
-0.120087
-0.114611
-0.0426662
0.0691667
0.170362
0.192674
0.170781
0.135912
0.125414
0.115093
0.17271
0.0462536
-0.00249396
-0.0869405
-0.0621806
-0.0750827
-0.127411
-0.0800839
-0.0485451
-0.0554317
-0.0387566
-0.0579285
0.0266405
0.0647733
0.114134
0.104162
0.136999
0.145738
0.111284
0.141523
0.0305813
-0.0666453
-0.160412
-0.156789
-0.13041
-0.209534
-0.200666
-0.0822203
-0.0642474
-0.00797636
-0.0080931
0.0353438
0.0961137
0.227586
0.229582
0.2171
0.247523
0.242964
0.147229
0.129958
0.102252
-0.0415241
-0.0661173
-0.0743872
-0.0961031
-0.167684
-0.151819
-0.188252
-0.0582174
-0.0342606
0.0481968
-0.00790296
0.028131
-0.00441977
-0.0694384
-0.0530267
-0.0190712
-0.0110459
-0.0276927
-0.0364812
0.0149261
-0.0770924
-0.1583
-0.159302
-0.120548
-0.105251
-0.0888583
-0.0706116
-0.0694099
-0.0518279
0.00425087
0.0724316
0.106212
0.163357
0.154038
0.108345
0.204105
0.20307
0.190979
0.150627
0.0453997
-0.144263
-0.121894
-0.0396604
-0.0490189
-0.0690092
-0.0987243
-0.207193
-0.131083
-0.1006
-0.110433
-0.123579
0.0138974
0.139904
0.161704
0.199566
0.199872
0.145914
0.101998
0.0386004
0.083595
0.061371
-0.012
-0.108509
-0.0962143
-0.0931444
-0.121929
-0.0199645
-0.0221788
-0.0639843
-0.052027
-0.0299729
0.043486
0.0709281
0.137896
0.0533506
0.0790808
0.151383
0.0994776
0.0856587
0.0468471
-0.0195835
-0.131779
-0.174322
-0.167716
-0.125662
-0.068821
-0.129594
-0.0797987
-0.0439285
0.0178412
0.0577122
0.133776
0.184976
0.272931
0.302856
0.288028
0.218096
0.16049
0.208585
0.129935
0.00160582
-0.0638578
-0.11464
-0.137427
-0.174134
-0.0959274
-0.100147
-0.0621214
-0.00158368
-0.00869576
-0.00848327
-0.0301853
0.0348174
0.00661479
-0.0839743
-0.0394358
-0.0296239
-0.0348836
-0.0562757
-0.0172433
-0.133188
-0.208999
-0.214224
-0.130471
-0.1426
-0.15732
-0.0798329
-0.0430852
-0.0289903
-0.00466498
0.0582559
0.134507
0.0984467
0.182295
0.123697
0.210005
0.180615
0.194978
0.163104
-0.00605515
-0.127894
-0.11082
-0.056444
-0.0623655
-0.0986962
-0.111845
-0.130563
-0.132407
-0.0899063
-0.0426447
-0.0335457
0.0558272
0.137282
0.127506
0.211175
0.212709
0.117947
0.0715011
0.0820588
0.110437
0.0425521
-0.0434659
-0.15359
-0.131646
-0.0540374
-0.0625537
0.00841339
-0.00185311
0.0254474
-0.0124065
-0.045874
0.0303814
0.133915
0.130845
0.0930227
0.139304
0.076871
0.0412324
0.0495621
0.00921325
-0.0443222
-0.114581
-0.116544
-0.111211
-0.126561
-0.10755
-0.178858
-0.0642345
-0.0382785
0.0425255
0.0453493
0.147851
0.209775
0.259963
0.317926
0.26592
0.230625
0.232956
0.260923
0.0892436
-0.00916133
-0.0278593
-0.00527712
-0.135596
-0.166692
-0.204993
-0.183473
0.0161149
-0.00557805
0.0667378
0.0108512
-0.0704977
-0.0343493
-0.0395416
-0.0782246
-0.0142725
-0.0200033
-0.0368666
-0.0707516
-0.0502633
-0.0966216
-0.21609
-0.277165
-0.138265
-0.112643
-0.141894
-0.0833263
-0.0622088
-0.0885046
-0.00630914
0.0151204
0.11037
0.153203
0.189136
0.195693
0.224909
0.236439
0.202352
0.121571
0.0258432
-0.0998836
-0.0780816
-0.0563749
-0.0955766
-0.132326
-0.0864285
-0.103221
-0.108921
-0.0233414
0.00104795
-0.0369785
0.101917
0.192482
0.151257
0.231105
0.17869
0.0212954
0.106742
0.106523
0.027897
0.0117786
-0.0643776
-0.177273
-0.0665099
0.0101594
0.0191581
0.00272394
-0.0571941
0.0374902
0.083836
0.0590906
0.0105116
0.141651
0.126569
0.0962901
0.0911635
0.00639104
0.0439859
0.0808504
0.0616891
-0.0251547
-0.0930842
-0.109156
-0.160554
-0.140787
-0.117312
-0.0690258
-0.0258197
-0.0069022
-0.0293888
0.0691445
0.160988
0.201324
0.209583
0.327618
0.350176
0.318218
0.289329
0.209388
0.0891397
0.060394
-0.0123238
-0.0975559
-0.127686
-0.136631
-0.161937
-0.157631
-0.0753663
0.0115911
0.0591942
0.0101814
-0.0221776
-0.0574117
-0.00216672
-0.0111879
-0.0863239
-0.0329282
-0.0244765
-0.0274774
-0.132173
-0.172177
-0.271888
-0.230066
-0.174516
-0.220961
-0.145976
-0.109868
-0.0593756
-0.0409647
-0.0521944
-0.00504608
0.124146
0.24636
0.243504
0.135793
0.173624
0.206568
0.191062
0.155738
-0.00118699
-0.057719
-0.072934
-0.0836273
-0.0829589
-0.115924
-0.056748
-0.0436324
-0.0521493
-0.0292223
0.0338266
0.0388665
0.156603
0.170297
0.113588
0.170288
0.126323
0.0515035
0.115587
0.0685684
0.0633655
-0.0317412
-0.0194331
-0.157817
-0.061911
-0.00644314
0.0489877
0.0527164
-0.0187654
0.0673471
0.083002
0.00478673
0.0754805
0.164101
0.114114
0.130632
0.105499
0.0616238
0.0355683
0.0074298
-0.0292078
-0.0250287
-0.0409045
-0.0393609
-0.0958499
-0.115968
-0.0930265
-0.0993578
-0.0114297
0.00990105
0.0261014
0.0915792
0.202689
0.145172
0.185906
0.30885
0.37694
0.335213
0.260753
0.223269
0.166831
0.0810366
-0.0367679
-0.0949871
-0.101836
-0.171047
-0.131561
-0.148458
-0.0775828
0.0436613
0.059498
-0.0286254
-0.0442065
-0.0235342
-0.0187765
-0.00958407
-0.113203
-0.0286502
0.00475615
-0.020228
-0.157043
-0.180157
-0.302896
-0.225895
-0.18488
-0.223152
-0.177875
-0.0962393
-0.0935714
-0.116829
-0.0394152
-0.0239622
0.100426
0.187925
0.218294
0.175353
0.237459
0.222375
0.202445
0.0766775
0.00977821
-0.0167172
-0.0285129
-0.099245
-0.100785
-0.133575
-0.0321347
0.0232448
-0.0075655
0.00511901
0.0447462
0.0371972
0.191363
0.189242
0.154181
0.181049
0.0503722
0.0496406
0.0674111
0.0736476
0.0534518
-0.0281884
-0.0854017
-0.0969373
-0.0493569
-0.0329207
-0.000766743
0.0838076
0.0585317
0.015171
0.0994843
0.00476224
0.112915
0.164376
0.18354
0.149446
0.0890333
0.00240884
0.00517269
0.0795018
0.0106097
-0.0723784
-0.0607578
-0.117784
-0.0618371
-0.0779497
-0.0530963
-0.122461
0.0102707
0.0215862
0.0808202
0.0740965
0.171014
0.211009
0.250344
0.272047
0.296061
0.299597
0.27771
0.247415
0.155011
0.135311
-0.0301092
-0.0604879
-0.152123
-0.193084
-0.16838
-0.118031
-0.0874123
0.0578487
0.134452
0.061554
-0.00563041
0.0104916
0.0093295
0.0228877
-0.0951443
-0.0781625
-0.0401682
-0.0683347
-0.0689101
-0.178065
-0.346216
-0.287446
-0.251275
-0.170005
-0.149449
-0.158143
-0.102943
-0.0994557
-0.0158302
-0.0061075
0.0885403
0.139154
0.165531
0.200833
0.224063
0.230949
0.1881
0.105589
0.0146
-0.0347897
-0.0700622
-0.054464
-0.0224061
-0.127192
0.0304777
0.0272864
0.00202613
0.0041996
0.096633
0.142895
0.172153
0.219408
0.111787
0.0951015
0.0919455
0.0781979
0.00529447
-0.0173783
0.0669411
0.000325122
-0.0979164
-0.0948663
-0.0559283
-0.0534843
0.0459354
0.0519807
0.163045
0.114252
0.0828243
0.0337648
0.0735075
0.199425
0.168114
0.18822
0.0918057
-0.0162323
0.0376656
0.0855634
-0.031998
-0.104394
-0.0400578
-0.0713791
-0.00942658
-0.122117
-0.107173
-0.0706241
0.0209142
0.0254701
0.061623
0.147916
0.220679
0.237835
0.246849
0.239367
0.335359
0.294229
0.251706
0.196955
0.18021
0.12911
0.0475653
-0.0145449
-0.133872
-0.151796
-0.164737
-0.0935226
-0.0625126
0.041629
0.0937429
0.0852165
0.0478066
-0.0436614
0.0111542
0.0377709
-0.0405323
-0.0157194
-0.0527903
-0.101027
-0.118613
-0.250024
-0.325388
-0.293699
-0.233633
-0.195964
-0.166445
-0.154913
-0.140687
-0.136826
-0.0333596
0.0416092
0.109602
0.125204
0.161353
0.199798
0.226027
0.22882
0.15597
0.0951253
0.0172402
-0.0291392
-0.0226162
-0.0674793
-0.0802205
-0.0286168
0.0499465
-0.0225404
0.041509
0.0847776
0.0890542
0.132969
0.180387
0.12774
0.107155
0.241989
0.133859
0.0448215
-0.0323804
-0.036861
0.0319818
-0.0573139
-0.05509
-0.1468
-0.0675679
0.0243266
0.061873
0.0185914
0.113339
0.0841313
0.109226
0.18553
0.111302
0.225831
0.130514
0.156296
0.113028
0.0179983
0.020399
-0.00139263
-0.0271483
-0.0263289
-0.0307693
-0.0721298
-0.0313063
-0.0694463
-0.109875
-0.00755177
0.026188
0.067151
0.0669435
0.102688
0.204873
0.211476
0.313462
0.288465
0.299439
0.274271
0.257404
0.227349
0.202225
0.0793732
0.0176878
-0.036062
-0.133487
-0.132811
-0.168331
-0.11175
-0.0869607
0.0616831
0.0631061
0.0915043
0.126309
0.0675251
0.0430218
0.051643
-0.0147544
-0.0329596
-0.0636608
-0.114564
-0.0741156
-0.15782
-0.321163
-0.342302
-0.280565
-0.194224
-0.181346
-0.168365
-0.143179
-0.113703
-0.000958741
0.041965
0.0594203
0.0728322
0.148997
0.227647
0.221705
0.20003
0.123551
0.0971191
0.014115
-0.0617444
-0.0279079
-0.0220146
-0.0786878
0.00555913
0.0675392
-0.0360895
0.0267912
0.0962817
0.204101
0.223182
0.203503
0.214774
0.13582
0.0628469
0.0997516
0.0118394
0.0480322
-0.0267602
-0.0230338
-0.0130724
-0.038485
-0.113618
-0.169607
-0.0308562
0.0997007
0.0926856
0.11069
0.11516
0.108144
0.136502
0.163695
0.240729
0.100626
0.125342
0.0520534
0.077781
0.0937565
0.0138374
-0.0148087
-0.0259792
-0.0492591
-0.0903265
-0.0402044
-0.0620783
-0.0529771
0.0179607
0.0364907
0.063111
0.0689678
0.165357
0.195104
0.247642
0.281572
0.265566
0.260848
0.255652
0.238881
0.213261
0.18409
0.067219
0.0121045
0.0101191
-0.12165
-0.0981617
-0.146375
-0.171692
-0.0300707
0.0509043
0.0694252
0.0894468
0.0922013
0.0602448
0.0746539
0.0582526
0.0250592
-0.0248361
-0.0145951
-0.0675598
-0.17291
-0.215875
-0.292539
-0.29447
-0.290807
-0.226089
-0.172585
-0.185315
-0.127176
-0.054435
-0.0320732
0.0318597
0.0729866
0.0971613
0.13255
0.200265
0.195394
0.171598
0.0997783
0.117737
0.0228278
-0.044649
-0.0228003
-0.00399576
-0.0305138
-0.0235069
-0.0327245
0.00421101
0.0345016
0.17422
0.220821
0.174978
0.239644
0.195297
0.151135
0.110973
0.0991452
0.0560144
0.0251297
-0.0303394
-0.0754444
-0.0706165
-0.125272
-0.166039
-0.1507
0.0160667
0.116115
0.096885
0.1024
0.120617
0.0830231
0.149057
0.177862
0.211179
0.142588
0.125409
0.022216
0.0700954
0.0771825
0.0115212
-0.0298328
-0.00892087
-0.0464858
-0.0955387
-0.00949167
-0.0471012
-0.0104671
-0.0107829
0.0207485
0.0681984
0.0753663
0.175756
0.190358
0.222048
0.201022
0.274659
0.291663
0.257371
0.214018
0.192175
0.216269
0.0318572
-0.00463241
-0.0528634
-0.148275
-0.170577
-0.110785
-0.10458
0.0128328
0.0198403
0.0262013
0.0908671
0.0976604
0.0783344
0.11168
0.0765003
0.00921119
0.0074496
-0.0571871
-0.0884327
-0.148447
-0.163718
-0.208554
-0.251195
-0.280297
-0.2115
-0.133096
-0.180341
-0.150202
-0.103591
-0.0698929
0.0737584
0.0998307
0.0970684
0.126961
0.136579
0.175187
0.101988
0.056824
0.116807
0.0571842
-0.0391071
-0.0458011
-0.0371881
0.00609497
0.0029781
0.0259873
0.00432484
0.0420023
0.116363
0.186246
0.173172
0.241411
0.178433
0.128661
0.127468
0.0787537
0.0234739
0.0228029
0.0257649
-0.0275863
-0.127876
-0.23782
-0.173667
-0.0594353
0.00827973
0.036895
0.041953
0.0809326
0.164923
0.195628
0.120661
0.134472
0.250309
0.16018
0.0664528
0.0300497
0.114846
0.0531651
-0.00592515
-0.046237
0.0220679
-0.0668789
-0.078858
-0.0554048
-0.0393735
0.0368734
-0.0533483
-0.035162
0.0058207
0.121579
0.170148
0.194392
0.124577
0.187122
0.277388
0.281954
0.191192
0.195008
0.21842
0.215146
0.0644699
-0.0367588
0.0133288
-0.116622
-0.215573
-0.113667
0.0127056
-0.0515187
-0.13563
-0.0143003
0.0875275
0.0693857
0.190249
0.176169
0.108685
0.0120015
-0.00270449
-0.0491389
-0.0927051
-0.104038
-0.126468
-0.214833
-0.103998
-0.215885
-0.22729
-0.222777
-0.139883
-0.134109
-0.0812142
-0.0267016
0.0793196
0.0689249
0.0808181
0.142683
0.135995
0.12834
0.0832231
0.0784618
0.0696656
0.0250607
-0.018978
-0.0259763
-0.0297544
-0.00589871
0.0032553