/*--------------------------------*- C++ -*----------------------------------*\
| =========                 |                                                 |
| \\      /  F ield         | OpenFOAM: The Open Source CFD Toolbox           |
|  \\    /   O peration     | Version:  v2012                                 |
|   \\  /    A nd           | Website:  www.openfoam.com                      |
|    \\/     M anipulation  |                                                 |
\*---------------------------------------------------------------------------*/
FoamFile
{
    version     2.0;
    format      ascii;
    class       volScalarField;
    location    "0";
    object      p;
}
// * * * * * * * * * * * * * * * * * * * * * * * * * * * * * * * * * * * * * //

dimensions      [0 2 -2 0 0 0 0];


internalField   nonuniform List<scalar> 
4000
(
-1.91794e-13
-1.97266e-13
-1.97167e-13
-1.99948e-13
-1.99102e-13
-1.91713e-13
-1.99947e-13
-1.95743e-13
-2.01871e-13
-2.03497e-13
-1.91119e-13
-1.90973e-13
-2.08228e-13
-2.19229e-13
-2.16832e-13
-2.16009e-13
-2.12529e-13
-2.13354e-13
-2.2223e-13
-2.30203e-13
-2.41086e-13
-2.48595e-13
-2.48518e-13
-2.55911e-13
-2.51968e-13
-2.57423e-13
-2.53232e-13
-2.53046e-13
-2.53714e-13
-2.58286e-13
-2.65262e-13
-2.72989e-13
-2.64804e-13
-2.58415e-13
-2.54966e-13
-2.56375e-13
-2.61084e-13
-2.76867e-13
-2.79167e-13
-2.75271e-13
-2.74053e-13
-2.62846e-13
-2.50221e-13
-2.5912e-13
-2.60299e-13
-2.63454e-13
-2.58635e-13
-2.54164e-13
-2.45623e-13
-2.37866e-13
-2.44761e-13
-2.44821e-13
-2.42311e-13
-2.43612e-13
-2.41247e-13
-2.44537e-13
-2.38921e-13
-2.39219e-13
-2.19137e-13
-2.09569e-13
-2.0735e-13
-2.04524e-13
-2.04213e-13
-1.98796e-13
-1.90055e-13
-1.84524e-13
-1.81593e-13
-1.7661e-13
-1.71501e-13
-1.6231e-13
-1.52162e-13
-1.46922e-13
-1.45292e-13
-1.34691e-13
-1.31617e-13
-1.22483e-13
-1.10948e-13
-9.6183e-14
-8.60157e-14
-8.37534e-14
-8.94706e-14
-8.65513e-14
-7.78965e-14
-7.0181e-14
-6.85977e-14
-7.09613e-14
-6.15007e-14
-5.85335e-14
-5.86361e-14
-5.30829e-14
-4.85383e-14
-4.37654e-14
-3.81026e-14
-3.28915e-14
-2.54048e-14
-1.7163e-14
-1.63295e-14
-1.21621e-14
-9.4181e-15
-4.00956e-15
-1.96563e-13
-1.96755e-13
-1.95271e-13
-1.94123e-13
-1.97507e-13
-1.95098e-13
-2.00893e-13
-1.95181e-13
-1.9384e-13
-2.01559e-13
-2.01998e-13
-1.97401e-13
-2.0619e-13
-2.1076e-13
-2.1726e-13
-2.18864e-13
-2.11356e-13
-2.12689e-13
-2.22299e-13
-2.30304e-13
-2.4225e-13
-2.45698e-13
-2.49352e-13
-2.54839e-13
-2.54531e-13
-2.5626e-13
-2.53575e-13
-2.5164e-13
-2.56716e-13
-2.63755e-13
-2.60302e-13
-2.69191e-13
-2.68947e-13
-2.62954e-13
-2.57556e-13
-2.59365e-13
-2.65567e-13
-2.67289e-13
-2.71951e-13
-2.71568e-13
-2.74765e-13
-2.65316e-13
-2.60186e-13
-2.5767e-13
-2.56211e-13
-2.60287e-13
-2.58378e-13
-2.55813e-13
-2.49619e-13
-2.42363e-13
-2.43737e-13
-2.43227e-13
-2.42787e-13
-2.43707e-13
-2.39608e-13
-2.43631e-13
-2.42036e-13
-2.36726e-13
-2.2346e-13
-2.0797e-13
-2.06483e-13
-2.05776e-13
-1.9734e-13
-1.98832e-13
-1.92126e-13
-1.85303e-13
-1.81182e-13
-1.77175e-13
-1.69116e-13
-1.63432e-13
-1.50289e-13
-1.45497e-13
-1.42555e-13
-1.33671e-13
-1.31686e-13
-1.23824e-13
-1.0901e-13
-9.88537e-14
-9.0491e-14
-8.6032e-14
-8.4194e-14
-8.49376e-14
-8.08074e-14
-7.166e-14
-7.02996e-14
-7.18207e-14
-5.90108e-14
-6.13354e-14
-6.18285e-14
-5.40697e-14
-4.6235e-14
-3.96414e-14
-3.59444e-14
-3.17964e-14
-2.60402e-14
-1.85989e-14
-1.71213e-14
-1.28691e-14
-4.80437e-15
-1.53826e-15
-1.97357e-13
-1.9738e-13
-1.94978e-13
-1.93398e-13
-1.94097e-13
-1.97745e-13
-2.00661e-13
-1.94555e-13
-1.97322e-13
-2.03271e-13
-2.02606e-13
-1.97819e-13
-2.02881e-13
-2.1484e-13
-2.2041e-13
-2.19833e-13
-2.14378e-13
-2.12709e-13
-2.19652e-13
-2.28269e-13
-2.43632e-13
-2.47952e-13
-2.51202e-13
-2.48492e-13
-2.54461e-13
-2.58063e-13
-2.55209e-13
-2.50701e-13
-2.61124e-13
-2.63467e-13
-2.62852e-13
-2.67305e-13
-2.71703e-13
-2.62858e-13
-2.601e-13
-2.56917e-13
-2.62565e-13
-2.70199e-13
-2.72077e-13
-2.73925e-13
-2.76742e-13
-2.71513e-13
-2.60188e-13
-2.52862e-13
-2.52973e-13
-2.59837e-13
-2.59387e-13
-2.59296e-13
-2.51486e-13
-2.44865e-13
-2.38491e-13
-2.42902e-13
-2.45086e-13
-2.45136e-13
-2.42293e-13
-2.3997e-13
-2.39021e-13
-2.34077e-13
-2.20113e-13
-2.10934e-13
-2.09799e-13
-2.0542e-13
-2.06502e-13
-1.9619e-13
-1.90488e-13
-1.81396e-13
-1.77656e-13
-1.7555e-13
-1.68296e-13
-1.63643e-13
-1.58994e-13
-1.5282e-13
-1.41213e-13
-1.31914e-13
-1.29487e-13
-1.24514e-13
-1.11971e-13
-1.00439e-13
-9.56176e-14
-8.91435e-14
-7.82221e-14
-7.82105e-14
-8.44486e-14
-7.77232e-14
-7.34903e-14
-7.13454e-14
-6.00464e-14
-5.88329e-14
-5.55806e-14
-5.53949e-14
-4.64974e-14
-4.10673e-14
-3.45409e-14
-3.22026e-14
-2.93272e-14
-2.18386e-14
-1.80399e-14
-1.15808e-14
-4.63811e-15
-2.82516e-15
-1.94266e-13
-1.95029e-13
-1.95119e-13
-1.99868e-13
-1.91329e-13
-1.96825e-13
-1.97732e-13
-2.00258e-13
-1.96499e-13
-1.97659e-13
-2.03159e-13
-2.0378e-13
-2.0581e-13
-2.08281e-13
-2.15869e-13
-2.17905e-13
-2.15084e-13
-2.18726e-13
-2.23873e-13
-2.30609e-13
-2.40162e-13
-2.49983e-13
-2.4986e-13
-2.51292e-13
-2.54809e-13
-2.59104e-13
-2.53494e-13
-2.50827e-13
-2.6008e-13
-2.6292e-13
-2.61372e-13
-2.62603e-13
-2.71194e-13
-2.66532e-13
-2.68934e-13
-2.60015e-13
-2.63224e-13
-2.71356e-13
-2.74267e-13
-2.70657e-13
-2.67415e-13
-2.64938e-13
-2.58384e-13
-2.55212e-13
-2.59103e-13
-2.62953e-13
-2.6173e-13
-2.52153e-13
-2.49635e-13
-2.5123e-13
-2.44105e-13
-2.45159e-13
-2.47271e-13
-2.39799e-13
-2.39689e-13
-2.40566e-13
-2.35896e-13
-2.28894e-13
-2.2054e-13
-2.14542e-13
-2.13092e-13
-2.03242e-13
-2.0282e-13
-1.94551e-13
-1.86803e-13
-1.8139e-13
-1.79956e-13
-1.74595e-13
-1.64029e-13
-1.61656e-13
-1.53113e-13
-1.49491e-13
-1.43507e-13
-1.34444e-13
-1.30353e-13
-1.22329e-13
-1.11571e-13
-1.02025e-13
-9.56965e-14
-8.95063e-14
-8.65082e-14
-7.91082e-14
-8.04998e-14
-8.18729e-14
-7.69122e-14
-7.23391e-14
-6.1951e-14
-5.92243e-14
-5.686e-14
-5.40909e-14
-4.44189e-14
-3.85879e-14
-3.358e-14
-3.5329e-14
-3.23735e-14
-2.03157e-14
-1.67202e-14
-1.42584e-14
-6.26292e-15
-2.31281e-15
-1.94633e-13
-1.93018e-13
-1.95379e-13
-1.96377e-13
-1.97515e-13
-2.00154e-13
-2.0005e-13
-2.00591e-13
-1.97072e-13
-1.95389e-13
-2.01234e-13
-2.08155e-13
-2.0705e-13
-2.07669e-13
-2.12376e-13
-2.20183e-13
-2.20033e-13
-2.09938e-13
-2.20805e-13
-2.3614e-13
-2.46847e-13
-2.50372e-13
-2.53206e-13
-2.51253e-13
-2.46955e-13
-2.52028e-13
-2.5079e-13
-2.54495e-13
-2.58736e-13
-2.61397e-13
-2.63339e-13
-2.61205e-13
-2.66238e-13
-2.69554e-13
-2.69981e-13
-2.66543e-13
-2.67481e-13
-2.68004e-13
-2.69139e-13
-2.69663e-13
-2.6832e-13
-2.6194e-13
-2.6216e-13
-2.57217e-13
-2.63133e-13
-2.63594e-13
-2.61347e-13
-2.5596e-13
-2.51865e-13
-2.50489e-13
-2.41022e-13
-2.38327e-13
-2.43178e-13
-2.44144e-13
-2.41004e-13
-2.4014e-13
-2.30932e-13
-2.25683e-13
-2.22643e-13
-2.15897e-13
-2.11169e-13
-2.06047e-13
-2.04538e-13
-1.96204e-13
-1.79376e-13
-1.75099e-13
-1.77796e-13
-1.7606e-13
-1.70628e-13
-1.61162e-13
-1.55168e-13
-1.49839e-13
-1.46295e-13
-1.39422e-13
-1.36165e-13
-1.22907e-13
-1.12955e-13
-1.01246e-13
-9.54279e-14
-8.84076e-14
-8.33452e-14
-8.12422e-14
-7.99934e-14
-8.24069e-14
-8.30383e-14
-7.55576e-14
-6.28805e-14
-5.55734e-14
-5.46465e-14
-5.4062e-14
-4.75281e-14
-3.50416e-14
-3.79764e-14
-3.54813e-14
-2.77135e-14
-2.0969e-14
-1.77983e-14
-1.53503e-14
-9.40486e-15
-6.02482e-15
-1.99748e-13
-1.93142e-13
-1.96997e-13
-2.04592e-13
-1.97595e-13
-1.87282e-13
-1.87129e-13
-1.97276e-13
-1.99729e-13
-2.08066e-13
-2.03962e-13
-2.05415e-13
-2.06851e-13
-2.09687e-13
-2.1484e-13
-2.08721e-13
-2.16578e-13
-2.17186e-13
-2.27359e-13
-2.31783e-13
-2.41705e-13
-2.49331e-13
-2.64011e-13
-2.58518e-13
-2.52977e-13
-2.48523e-13
-2.51929e-13
-2.55864e-13
-2.56775e-13
-2.58079e-13
-2.62861e-13
-2.64046e-13
-2.70903e-13
-2.65687e-13
-2.68211e-13
-2.6454e-13
-2.66058e-13
-2.69159e-13
-2.6856e-13
-2.66487e-13
-2.65798e-13
-2.60462e-13
-2.59836e-13
-2.58419e-13
-2.58326e-13
-2.69888e-13
-2.65564e-13
-2.59326e-13
-2.55444e-13
-2.4791e-13
-2.41926e-13
-2.42946e-13
-2.43442e-13
-2.41439e-13
-2.40777e-13
-2.36773e-13
-2.29979e-13
-2.26359e-13
-2.23119e-13
-2.14537e-13
-2.11393e-13
-2.08749e-13
-1.98422e-13
-1.91779e-13
-1.84288e-13
-1.7784e-13
-1.78309e-13
-1.73949e-13
-1.71583e-13
-1.60136e-13
-1.5468e-13
-1.51434e-13
-1.44007e-13
-1.37095e-13
-1.33733e-13
-1.21726e-13
-1.134e-13
-1.04294e-13
-9.9145e-14
-9.04786e-14
-8.4549e-14
-8.32276e-14
-8.3114e-14
-8.1689e-14
-8.109e-14
-7.13563e-14
-6.738e-14
-5.94331e-14
-5.27904e-14
-5.42352e-14
-4.74273e-14
-3.68343e-14
-4.10786e-14
-3.1655e-14
-2.33186e-14
-1.86529e-14
-1.97427e-14
-1.88649e-14
-1.11999e-14
-2.80755e-15
-1.96838e-13
-1.98776e-13
-1.966e-13
-1.92813e-13
-1.97316e-13
-1.9235e-13
-1.90393e-13
-2.01934e-13
-2.03494e-13
-2.10456e-13
-2.05404e-13
-2.05302e-13
-2.08212e-13
-2.08385e-13
-2.09565e-13
-2.11332e-13
-2.13468e-13
-2.18062e-13
-2.29554e-13
-2.46559e-13
-2.57724e-13
-2.51682e-13
-2.5121e-13
-2.47686e-13
-2.47878e-13
-2.48664e-13
-2.52866e-13
-2.58549e-13
-2.56026e-13
-2.60583e-13
-2.61111e-13
-2.6653e-13
-2.76686e-13
-2.76197e-13
-2.67271e-13
-2.61307e-13
-2.68427e-13
-2.63925e-13
-2.60725e-13
-2.62565e-13
-2.69034e-13
-2.69269e-13
-2.69958e-13
-2.59424e-13
-2.59526e-13
-2.65026e-13
-2.62118e-13
-2.59899e-13
-2.57717e-13
-2.50179e-13
-2.46434e-13
-2.36605e-13
-2.34556e-13
-2.41594e-13
-2.3911e-13
-2.38012e-13
-2.30343e-13
-2.23757e-13
-2.23486e-13
-2.12278e-13
-2.09299e-13
-2.12422e-13
-1.97103e-13
-1.90444e-13
-1.86256e-13
-1.8117e-13
-1.81962e-13
-1.78593e-13
-1.76632e-13
-1.61642e-13
-1.49064e-13
-1.42577e-13
-1.42137e-13
-1.35163e-13
-1.33327e-13
-1.28218e-13
-1.1512e-13
-1.01127e-13
-8.92019e-14
-9.60109e-14
-9.06983e-14
-8.38978e-14
-8.38071e-14
-7.95699e-14
-7.39149e-14
-7.86751e-14
-7.1931e-14
-6.11849e-14
-5.51812e-14
-5.26801e-14
-4.84864e-14
-4.40186e-14
-4.27558e-14
-2.87865e-14
-2.08086e-14
-2.47276e-14
-1.87467e-14
-1.94858e-14
-1.21665e-14
-5.80578e-15
-2.00619e-13
-2.01429e-13
-2.00752e-13
-1.97225e-13
-1.9035e-13
-1.88107e-13
-1.87535e-13
-2.02159e-13
-2.06725e-13
-2.14068e-13
-2.06173e-13
-2.05304e-13
-2.08258e-13
-2.12767e-13
-2.12305e-13
-2.12122e-13
-2.1325e-13
-2.20548e-13
-2.36264e-13
-2.46377e-13
-2.47105e-13
-2.47858e-13
-2.47409e-13
-2.5697e-13
-2.54487e-13
-2.52546e-13
-2.5769e-13
-2.58053e-13
-2.59347e-13
-2.64849e-13
-2.67357e-13
-2.67317e-13
-2.69642e-13
-2.70836e-13
-2.67261e-13
-2.60092e-13
-2.6629e-13
-2.69329e-13
-2.70183e-13
-2.68167e-13
-2.69479e-13
-2.60329e-13
-2.65113e-13
-2.53257e-13
-2.62926e-13
-2.64669e-13
-2.64731e-13
-2.67222e-13
-2.63944e-13
-2.48999e-13
-2.4132e-13
-2.3703e-13
-2.39218e-13
-2.39409e-13
-2.37149e-13
-2.3569e-13
-2.29922e-13
-2.22984e-13
-2.20873e-13
-2.1837e-13
-2.10126e-13
-2.0751e-13
-1.96954e-13
-1.89818e-13
-1.79898e-13
-1.81932e-13
-1.82903e-13
-1.76383e-13
-1.70457e-13
-1.59521e-13
-1.52188e-13
-1.44454e-13
-1.4329e-13
-1.40479e-13
-1.3796e-13
-1.23758e-13
-1.11875e-13
-1.00308e-13
-8.98753e-14
-9.44111e-14
-8.81065e-14
-8.35831e-14
-8.26024e-14
-8.33427e-14
-8.29556e-14
-8.01059e-14
-7.0878e-14
-6.50753e-14
-5.62786e-14
-5.44632e-14
-5.46322e-14
-4.52375e-14
-3.56993e-14
-2.57412e-14
-2.43258e-14
-2.85562e-14
-1.89017e-14
-1.51316e-14
-1.54608e-14
-7.75729e-15
-2.00088e-13
-1.97403e-13
-1.95974e-13
-1.99961e-13
-1.93625e-13
-1.91392e-13
-1.91403e-13
-2.05977e-13
-2.09945e-13
-2.09824e-13
-2.11628e-13
-2.11603e-13
-2.14398e-13
-2.11552e-13
-2.13019e-13
-2.12171e-13
-2.1808e-13
-2.25034e-13
-2.3837e-13
-2.43821e-13
-2.44323e-13
-2.49407e-13
-2.43578e-13
-2.49782e-13
-2.5431e-13
-2.55334e-13
-2.6158e-13
-2.60232e-13
-2.61467e-13
-2.63686e-13
-2.68141e-13
-2.69951e-13
-2.70443e-13
-2.72041e-13
-2.721e-13
-2.61963e-13
-2.65972e-13
-2.72895e-13
-2.6521e-13
-2.59279e-13
-2.60764e-13
-2.62881e-13
-2.68483e-13
-2.65151e-13
-2.65867e-13
-2.67641e-13
-2.61989e-13
-2.59582e-13
-2.54835e-13
-2.54448e-13
-2.48698e-13
-2.39992e-13
-2.38188e-13
-2.36583e-13
-2.37777e-13
-2.30133e-13
-2.26308e-13
-2.23061e-13
-2.18659e-13
-2.16408e-13
-2.12477e-13
-2.05264e-13
-1.99527e-13
-1.87998e-13
-1.83978e-13
-1.82462e-13
-1.86298e-13
-1.76899e-13
-1.72927e-13
-1.59701e-13
-1.53013e-13
-1.41751e-13
-1.37238e-13
-1.36836e-13
-1.30669e-13
-1.2074e-13
-1.1476e-13
-1.00252e-13
-8.94279e-14
-9.21715e-14
-8.83574e-14
-8.16248e-14
-8.44779e-14
-8.07748e-14
-8.37623e-14
-7.64352e-14
-7.21098e-14
-6.89025e-14
-6.0069e-14
-5.22938e-14
-5.52842e-14
-4.73782e-14
-3.88329e-14
-2.67995e-14
-2.56935e-14
-2.61972e-14
-2.31646e-14
-1.93671e-14
-1.39542e-14
-1.00428e-14
-2.01015e-13
-1.99674e-13
-1.96617e-13
-1.99301e-13
-1.97543e-13
-1.96744e-13
-1.99695e-13
-2.01783e-13
-2.03936e-13
-2.16093e-13
-2.16765e-13
-2.1409e-13
-2.11909e-13
-2.08429e-13
-2.07416e-13
-2.14367e-13
-2.27607e-13
-2.29308e-13
-2.32197e-13
-2.43454e-13
-2.4881e-13
-2.50661e-13
-2.505e-13
-2.55783e-13
-2.53884e-13
-2.5457e-13
-2.57006e-13
-2.63442e-13
-2.65339e-13
-2.68334e-13
-2.67742e-13
-2.6729e-13
-2.67082e-13
-2.75365e-13
-2.73618e-13
-2.64304e-13
-2.60714e-13
-2.70588e-13
-2.67246e-13
-2.62258e-13
-2.64096e-13
-2.66927e-13
-2.61243e-13
-2.65911e-13
-2.6186e-13
-2.62277e-13
-2.56887e-13
-2.56551e-13
-2.58585e-13
-2.58954e-13
-2.50345e-13
-2.3899e-13
-2.35495e-13
-2.35845e-13
-2.3629e-13
-2.27431e-13
-2.24289e-13
-2.2522e-13
-2.19636e-13
-2.12162e-13
-2.07556e-13
-1.95367e-13
-1.94891e-13
-1.90075e-13
-1.86009e-13
-1.9127e-13
-1.92121e-13
-1.77193e-13
-1.72097e-13
-1.57987e-13
-1.4989e-13
-1.36823e-13
-1.33231e-13
-1.29784e-13
-1.28363e-13
-1.20668e-13
-1.08758e-13
-1.02562e-13
-9.62522e-14
-9.22976e-14
-8.75251e-14
-8.10312e-14
-7.89465e-14
-8.0584e-14
-8.09758e-14
-7.89046e-14
-7.22589e-14
-7.03664e-14
-6.04078e-14
-5.45698e-14
-5.74585e-14
-5.21321e-14
-3.73152e-14
-2.88334e-14
-3.44078e-14
-2.7254e-14
-2.5086e-14
-1.92717e-14
-1.4738e-14
-5.58578e-15
-2.02672e-13
-2.00006e-13
-1.9997e-13
-1.99687e-13
-1.96405e-13
-2.00071e-13
-2.02976e-13
-2.05956e-13
-2.05062e-13
-2.06736e-13
-2.14965e-13
-2.20593e-13
-2.17597e-13
-2.13497e-13
-2.12185e-13
-2.1492e-13
-2.27016e-13
-2.32771e-13
-2.31496e-13
-2.34301e-13
-2.40702e-13
-2.56133e-13
-2.59001e-13
-2.56848e-13
-2.58009e-13
-2.62508e-13
-2.61639e-13
-2.65274e-13
-2.66935e-13
-2.68803e-13
-2.68744e-13
-2.70565e-13
-2.67812e-13
-2.69543e-13
-2.68355e-13
-2.69986e-13
-2.65096e-13
-2.66897e-13
-2.63159e-13
-2.59397e-13
-2.65014e-13
-2.69429e-13
-2.65876e-13
-2.61934e-13
-2.56375e-13
-2.55974e-13
-2.56251e-13
-2.5973e-13
-2.61065e-13
-2.5952e-13
-2.47749e-13
-2.36702e-13
-2.35491e-13
-2.37295e-13
-2.3786e-13
-2.2641e-13
-2.19763e-13
-2.18827e-13
-2.18416e-13
-2.14694e-13
-2.10718e-13
-2.0332e-13
-1.99215e-13
-1.87861e-13
-1.84566e-13
-1.91825e-13
-1.90193e-13
-1.78711e-13
-1.71746e-13
-1.57101e-13
-1.52767e-13
-1.36056e-13
-1.29483e-13
-1.27837e-13
-1.26508e-13
-1.22196e-13
-1.08878e-13
-1.01471e-13
-9.584e-14
-8.91514e-14
-8.2863e-14
-7.62421e-14
-8.21493e-14
-8.18867e-14
-8.0656e-14
-8.32665e-14
-6.88631e-14
-6.57209e-14
-6.26439e-14
-5.76311e-14
-5.50821e-14
-4.70559e-14
-3.76407e-14
-3.24934e-14
-3.16579e-14
-2.75895e-14
-2.62777e-14
-3.32602e-14
-1.60789e-14
-2.19702e-15
-2.01905e-13
-1.99903e-13
-1.99216e-13
-1.99905e-13
-2.0049e-13
-1.99817e-13
-2.0166e-13
-2.06905e-13
-2.07029e-13
-2.12904e-13
-2.14517e-13
-2.18479e-13
-2.23136e-13
-2.15644e-13
-2.20671e-13
-2.26137e-13
-2.21681e-13
-2.25744e-13
-2.31903e-13
-2.3611e-13
-2.4658e-13
-2.53343e-13
-2.53796e-13
-2.57527e-13
-2.59758e-13
-2.64278e-13
-2.66776e-13
-2.72045e-13
-2.69137e-13
-2.67719e-13
-2.63389e-13
-2.66341e-13
-2.77698e-13
-2.77681e-13
-2.71754e-13
-2.70996e-13
-2.66304e-13
-2.61197e-13
-2.62851e-13
-2.62388e-13
-2.63547e-13
-2.6965e-13
-2.64369e-13
-2.62001e-13
-2.58462e-13
-2.54379e-13
-2.54198e-13
-2.53497e-13
-2.57217e-13
-2.55592e-13
-2.49659e-13
-2.37416e-13
-2.38563e-13
-2.34916e-13
-2.27294e-13
-2.285e-13
-2.24828e-13
-2.25561e-13
-2.15243e-13
-2.10278e-13
-2.05471e-13
-1.96162e-13
-1.94319e-13
-1.89563e-13
-1.95805e-13
-1.92502e-13
-1.83432e-13
-1.78342e-13
-1.74195e-13
-1.67187e-13
-1.52798e-13
-1.32271e-13
-1.20098e-13
-1.21771e-13
-1.25882e-13
-1.30415e-13
-1.14657e-13
-1.0401e-13
-9.15526e-14
-8.39958e-14
-7.99334e-14
-7.52046e-14
-7.85205e-14
-7.82579e-14
-7.17218e-14
-7.83165e-14
-8.11584e-14
-6.70357e-14
-5.75871e-14
-5.9473e-14
-5.723e-14
-5.41746e-14
-3.70029e-14
-3.16709e-14
-2.95961e-14
-2.9711e-14
-2.91338e-14
-2.77124e-14
-1.59402e-14
-1.38155e-15
-2.02227e-13
-2.00941e-13
-2.05065e-13
-1.9832e-13
-2.00019e-13
-1.99183e-13
-2.01548e-13
-2.07382e-13
-2.08558e-13
-2.16154e-13
-2.21048e-13
-2.19344e-13
-2.15629e-13
-2.10772e-13
-2.21368e-13
-2.25677e-13
-2.20972e-13
-2.27991e-13
-2.28966e-13
-2.39053e-13
-2.60457e-13
-2.65547e-13
-2.68581e-13
-2.58122e-13
-2.58096e-13
-2.6366e-13
-2.67979e-13
-2.7387e-13
-2.69972e-13
-2.63997e-13
-2.64758e-13
-2.72886e-13
-2.77448e-13
-2.70144e-13
-2.70064e-13
-2.7468e-13
-2.73511e-13
-2.65017e-13
-2.63643e-13
-2.67472e-13
-2.65016e-13
-2.66696e-13
-2.62704e-13
-2.55638e-13
-2.57104e-13
-2.60615e-13
-2.54841e-13
-2.52131e-13
-2.48718e-13
-2.47845e-13
-2.4386e-13
-2.41585e-13
-2.46436e-13
-2.39894e-13
-2.26286e-13
-2.16698e-13
-2.19555e-13
-2.258e-13
-2.1957e-13
-2.13134e-13
-2.03265e-13
-2.00177e-13
-1.94367e-13
-1.93832e-13
-1.87178e-13
-1.86197e-13
-1.85603e-13
-1.78337e-13
-1.72694e-13
-1.68765e-13
-1.535e-13
-1.36592e-13
-1.18094e-13
-1.15255e-13
-1.2257e-13
-1.29412e-13
-1.1108e-13
-9.83464e-14
-9.03848e-14
-9.01199e-14
-8.43022e-14
-7.54507e-14
-7.34132e-14
-7.8315e-14
-7.31939e-14
-7.28814e-14
-7.3365e-14
-6.24188e-14
-6.23858e-14
-5.82778e-14
-5.21219e-14
-5.5698e-14
-4.67798e-14
-3.35366e-14
-2.99581e-14
-2.85368e-14
-2.91123e-14
-2.47439e-14
-1.89025e-14
-1.88991e-15
-2.07119e-13
-1.96062e-13
-1.99908e-13
-2.01717e-13
-2.06722e-13
-1.99154e-13
-2.02228e-13
-2.06261e-13
-2.10453e-13
-2.21326e-13
-2.20947e-13
-2.17305e-13
-2.14046e-13
-2.10386e-13
-2.21938e-13
-2.27304e-13
-2.31326e-13
-2.39742e-13
-2.39401e-13
-2.39646e-13
-2.40477e-13
-2.44878e-13
-2.6345e-13
-2.64668e-13
-2.69656e-13
-2.7746e-13
-2.74724e-13
-2.7558e-13
-2.6765e-13
-2.6285e-13
-2.60508e-13
-2.71878e-13
-2.79936e-13
-2.78831e-13
-2.76686e-13
-2.75193e-13
-2.65326e-13
-2.70287e-13
-2.72177e-13
-2.63134e-13
-2.62906e-13
-2.63513e-13
-2.58281e-13
-2.62808e-13
-2.59154e-13
-2.59292e-13
-2.56743e-13
-2.52198e-13
-2.45098e-13
-2.38897e-13
-2.41573e-13
-2.42975e-13
-2.47982e-13
-2.36789e-13
-2.29614e-13
-2.22721e-13
-2.17241e-13
-2.20639e-13
-2.15587e-13
-2.12785e-13
-2.06874e-13
-1.99579e-13
-1.96081e-13
-1.93887e-13
-1.89354e-13
-1.85505e-13
-1.77861e-13
-1.75707e-13
-1.68066e-13
-1.5848e-13
-1.53178e-13
-1.38473e-13
-1.31178e-13
-1.17471e-13
-1.16113e-13
-1.21586e-13
-1.11044e-13
-1.04163e-13
-9.07346e-14
-8.70754e-14
-8.30521e-14
-8.08933e-14
-7.17164e-14
-7.62977e-14
-7.46598e-14
-7.21817e-14
-6.64324e-14
-6.25744e-14
-5.94583e-14
-6.11848e-14
-5.59328e-14
-4.63607e-14
-4.09132e-14
-4.01264e-14
-3.43289e-14
-3.35808e-14
-3.0378e-14
-2.24728e-14
-1.88975e-14
-6.80806e-15
-2.06405e-13
-2.01191e-13
-1.99148e-13
-1.99225e-13
-2.03277e-13
-1.97649e-13
-2.07982e-13
-2.10991e-13
-2.12498e-13
-2.12578e-13
-2.18483e-13
-2.1402e-13
-2.12176e-13
-2.12665e-13
-2.18198e-13
-2.27391e-13
-2.28683e-13
-2.35843e-13
-2.40955e-13
-2.4379e-13
-2.63494e-13
-2.69919e-13
-2.71338e-13
-2.66297e-13
-2.70169e-13
-2.67178e-13
-2.66904e-13
-2.67117e-13
-2.68207e-13
-2.68487e-13
-2.66446e-13
-2.65973e-13
-2.68391e-13
-2.84558e-13
-2.89083e-13
-2.85761e-13
-2.65484e-13
-2.62422e-13
-2.64056e-13
-2.63614e-13
-2.71563e-13
-2.6307e-13
-2.59379e-13
-2.53034e-13
-2.62618e-13
-2.59481e-13
-2.51015e-13
-2.48072e-13
-2.43939e-13
-2.42541e-13
-2.3803e-13
-2.43802e-13
-2.48366e-13
-2.4229e-13
-2.36024e-13
-2.25879e-13
-2.19057e-13
-2.14761e-13
-2.14878e-13
-2.20044e-13
-2.03096e-13
-1.98027e-13
-1.91306e-13
-1.94798e-13
-1.96997e-13
-1.86095e-13
-1.75875e-13
-1.73211e-13
-1.64979e-13
-1.53575e-13
-1.50927e-13
-1.38966e-13
-1.28354e-13
-1.20226e-13
-1.19321e-13
-1.21815e-13
-1.09525e-13
-1.01871e-13
-9.03566e-14
-8.63654e-14
-8.10337e-14
-7.69257e-14
-6.95718e-14
-7.4607e-14
-7.6726e-14
-7.15747e-14
-6.41038e-14
-6.30282e-14
-5.38939e-14
-5.86605e-14
-5.42286e-14
-4.64083e-14
-3.73789e-14
-4.41077e-14
-3.78958e-14
-3.65121e-14
-3.29953e-14
-2.53553e-14
-1.97513e-14
-4.78198e-15
-2.04652e-13
-1.94405e-13
-2.01725e-13
-2.02641e-13
-2.02639e-13
-1.95205e-13
-1.97466e-13
-2.05582e-13
-2.20917e-13
-2.20187e-13
-2.18819e-13
-2.17294e-13
-2.13222e-13
-2.14243e-13
-2.16009e-13
-2.2342e-13
-2.33608e-13
-2.36305e-13
-2.46167e-13
-2.47318e-13
-2.58527e-13
-2.59203e-13
-2.71687e-13
-2.76329e-13
-2.76482e-13
-2.68958e-13
-2.63153e-13
-2.6362e-13
-2.64439e-13
-2.70465e-13
-2.61604e-13
-2.69613e-13
-2.73785e-13
-2.85609e-13
-2.87904e-13
-2.84134e-13
-2.71013e-13
-2.66802e-13
-2.68103e-13
-2.65919e-13
-2.63912e-13
-2.60445e-13
-2.56715e-13
-2.58008e-13
-2.57478e-13
-2.58212e-13
-2.4906e-13
-2.46392e-13
-2.45448e-13
-2.43482e-13
-2.41286e-13
-2.4113e-13
-2.42923e-13
-2.44304e-13
-2.31147e-13
-2.23404e-13
-2.23714e-13
-2.14187e-13
-2.12959e-13
-2.11684e-13
-2.065e-13
-2.00429e-13
-1.94902e-13
-1.91774e-13
-1.95437e-13
-1.84916e-13
-1.79153e-13
-1.74624e-13
-1.67884e-13
-1.49708e-13
-1.52147e-13
-1.36664e-13
-1.23907e-13
-1.19611e-13
-1.19361e-13
-1.18627e-13
-1.09124e-13
-9.62383e-14
-9.27059e-14
-8.80813e-14
-8.38186e-14
-7.48989e-14
-7.0462e-14
-7.06227e-14
-7.06915e-14
-6.80952e-14
-6.12657e-14
-6.18368e-14
-5.30535e-14
-5.78941e-14
-5.67979e-14
-4.81768e-14
-4.19844e-14
-4.34254e-14
-3.8495e-14
-3.20778e-14
-2.91233e-14
-2.64471e-14
-2.25642e-14
-7.53359e-15
-2.00725e-13
-1.98971e-13
-2.02694e-13
-2.03387e-13
-2.09543e-13
-2.0574e-13
-2.07559e-13
-2.02249e-13
-2.08148e-13
-2.08868e-13
-2.12528e-13
-2.17899e-13
-2.16311e-13
-2.19899e-13
-2.15336e-13
-2.28681e-13
-2.38962e-13
-2.35093e-13
-2.41504e-13
-2.51528e-13
-2.67114e-13
-2.7209e-13
-2.6982e-13
-2.69367e-13
-2.77557e-13
-2.68294e-13
-2.61182e-13
-2.66823e-13
-2.69957e-13
-2.69209e-13
-2.60943e-13
-2.68695e-13
-2.84758e-13
-2.92112e-13
-2.8917e-13
-2.78974e-13
-2.65165e-13
-2.69433e-13
-2.6725e-13
-2.65161e-13
-2.62393e-13
-2.64103e-13
-2.55956e-13
-2.53424e-13
-2.50563e-13
-2.55444e-13
-2.53357e-13
-2.47381e-13
-2.4402e-13
-2.43139e-13
-2.41407e-13
-2.38985e-13
-2.40961e-13
-2.36449e-13
-2.3223e-13
-2.28149e-13
-2.25091e-13
-2.1469e-13
-2.09307e-13
-2.11241e-13
-2.07879e-13
-1.97426e-13
-1.95125e-13
-1.93138e-13
-1.88103e-13
-1.80722e-13
-1.80612e-13
-1.74975e-13
-1.69152e-13
-1.51861e-13
-1.46364e-13
-1.3725e-13
-1.28774e-13
-1.21005e-13
-1.16798e-13
-1.17262e-13
-1.12932e-13
-1.01689e-13
-8.9541e-14
-7.89651e-14
-8.0417e-14
-6.99136e-14
-7.24876e-14
-7.46518e-14
-6.87512e-14
-6.40266e-14
-5.80997e-14
-5.78489e-14
-5.90711e-14
-5.49753e-14
-5.16058e-14
-5.17981e-14
-4.30122e-14
-3.63514e-14
-4.35837e-14
-3.61241e-14
-2.91236e-14
-2.25527e-14
-1.80226e-14
-1.02664e-14
-1.97751e-13
-1.98319e-13
-1.99224e-13
-1.98419e-13
-1.98443e-13
-1.9716e-13
-2.10142e-13
-2.15272e-13
-2.19515e-13
-2.12493e-13
-2.08823e-13
-2.07664e-13
-2.16327e-13
-2.23313e-13
-2.29574e-13
-2.36965e-13
-2.33294e-13
-2.3944e-13
-2.40159e-13
-2.53838e-13
-2.60905e-13
-2.72432e-13
-2.78242e-13
-2.74077e-13
-2.72085e-13
-2.69175e-13
-2.66971e-13
-2.62438e-13
-2.66545e-13
-2.65443e-13
-2.6395e-13
-2.7101e-13
-2.80685e-13
-2.9138e-13
-2.94173e-13
-2.80492e-13
-2.71956e-13
-2.68454e-13
-2.69614e-13
-2.63751e-13
-2.59894e-13
-2.6525e-13
-2.58233e-13
-2.58204e-13
-2.54907e-13
-2.51301e-13
-2.50429e-13
-2.49947e-13
-2.43049e-13
-2.42139e-13
-2.43491e-13
-2.38913e-13
-2.39542e-13
-2.39234e-13
-2.27042e-13
-2.27029e-13
-2.22637e-13
-2.16229e-13
-2.13788e-13
-2.13826e-13
-2.07624e-13
-1.96081e-13
-1.94112e-13
-1.92505e-13
-1.87906e-13
-1.83976e-13
-1.7413e-13
-1.75091e-13
-1.71365e-13
-1.62361e-13
-1.53432e-13
-1.30761e-13
-1.19067e-13
-1.23411e-13
-1.19028e-13
-1.12912e-13
-1.05579e-13
-9.57358e-14
-8.49129e-14
-8.16485e-14
-7.90575e-14
-7.11166e-14
-6.98655e-14
-6.50637e-14
-6.73367e-14
-6.82059e-14
-6.56398e-14
-5.45368e-14
-5.20377e-14
-5.27981e-14
-5.54742e-14
-5.35781e-14
-4.4992e-14
-4.17518e-14
-4.38625e-14
-3.09424e-14
-2.60881e-14
-2.17531e-14
-1.64365e-14
-8.27903e-15
-2.0221e-13
-1.95055e-13
-1.96496e-13
-2.026e-13
-1.99498e-13
-2.02734e-13
-2.09472e-13
-2.1052e-13
-2.07916e-13
-2.06357e-13
-2.12131e-13
-2.14195e-13
-2.1797e-13
-2.22619e-13
-2.31862e-13
-2.39012e-13
-2.34525e-13
-2.42261e-13
-2.45945e-13
-2.55051e-13
-2.68403e-13
-2.7382e-13
-2.71953e-13
-2.726e-13
-2.77323e-13
-2.72863e-13
-2.65912e-13
-2.57459e-13
-2.62299e-13
-2.67978e-13
-2.68782e-13
-2.75693e-13
-2.84466e-13
-2.9222e-13
-2.94994e-13
-2.78502e-13
-2.66592e-13
-2.68375e-13
-2.70918e-13
-2.68816e-13
-2.66702e-13
-2.61669e-13
-2.54852e-13
-2.60323e-13
-2.56528e-13
-2.54706e-13
-2.4777e-13
-2.43871e-13
-2.45894e-13
-2.48594e-13
-2.46421e-13
-2.38279e-13
-2.37844e-13
-2.35155e-13
-2.26325e-13
-2.22233e-13
-2.20093e-13
-2.20402e-13
-2.1924e-13
-2.11945e-13
-2.01062e-13
-1.93225e-13
-1.97576e-13
-1.9638e-13
-1.89899e-13
-1.79629e-13
-1.75032e-13
-1.71166e-13
-1.70004e-13
-1.66111e-13
-1.5087e-13
-1.2929e-13
-1.16366e-13
-1.16379e-13
-1.17003e-13
-1.12152e-13
-1.02522e-13
-9.43958e-14
-9.31675e-14
-8.55666e-14
-7.5609e-14
-6.1831e-14
-7.1225e-14
-7.11644e-14
-6.95002e-14
-6.00178e-14
-5.81502e-14
-5.57188e-14
-5.40707e-14
-4.97614e-14
-5.56221e-14
-5.35403e-14
-4.54538e-14
-4.75334e-14
-3.81499e-14
-3.09433e-14
-3.0015e-14
-2.08949e-14
-1.86186e-14
-6.9433e-15
-1.98944e-13
-1.97574e-13
-1.91047e-13
-2.01161e-13
-2.05336e-13
-2.04197e-13
-2.04515e-13
-2.07889e-13
-2.10029e-13
-2.11773e-13
-2.15498e-13
-2.125e-13
-2.17449e-13
-2.20346e-13
-2.30037e-13
-2.40073e-13
-2.44122e-13
-2.53103e-13
-2.50913e-13
-2.52961e-13
-2.63261e-13
-2.77433e-13
-2.73272e-13
-2.703e-13
-2.71873e-13
-2.71417e-13
-2.60811e-13
-2.58685e-13
-2.64964e-13
-2.68777e-13
-2.74327e-13
-2.77554e-13
-2.83361e-13
-2.92261e-13
-2.89467e-13
-2.8155e-13
-2.75107e-13
-2.74115e-13
-2.67916e-13
-2.6958e-13
-2.71193e-13
-2.59157e-13
-2.51375e-13
-2.58282e-13
-2.60156e-13
-2.5207e-13
-2.4329e-13
-2.47415e-13
-2.444e-13
-2.43316e-13
-2.46226e-13
-2.39603e-13
-2.33937e-13
-2.35048e-13
-2.33924e-13
-2.27713e-13
-2.22594e-13
-2.15557e-13
-2.20054e-13
-2.168e-13
-2.00189e-13
-1.93922e-13
-1.91138e-13
-1.91618e-13
-1.86682e-13
-1.7858e-13
-1.75075e-13
-1.70522e-13
-1.68478e-13
-1.6297e-13
-1.45723e-13
-1.29052e-13
-1.23378e-13
-1.18906e-13
-1.13408e-13
-1.06734e-13
-9.98202e-14
-9.18266e-14
-9.23167e-14
-8.52648e-14
-7.42238e-14
-6.50363e-14
-6.95034e-14
-6.21247e-14
-6.58089e-14
-6.41797e-14
-6.32548e-14
-5.72277e-14
-5.18043e-14
-5.47579e-14
-5.49683e-14
-5.19496e-14
-4.64979e-14
-4.3069e-14
-3.48025e-14
-3.69116e-14
-2.98434e-14
-2.42891e-14
-1.79355e-14
-2.90384e-15
-1.9255e-13
-1.96478e-13
-2.01428e-13
-1.9856e-13
-2.07322e-13
-2.03457e-13
-2.05902e-13
-2.09592e-13
-2.07285e-13
-2.12421e-13
-2.17978e-13
-2.1174e-13
-2.1546e-13
-2.25243e-13
-2.27961e-13
-2.39536e-13
-2.43999e-13
-2.49167e-13
-2.55966e-13
-2.62752e-13
-2.67219e-13
-2.76631e-13
-2.80933e-13
-2.76245e-13
-2.70569e-13
-2.62975e-13
-2.60284e-13
-2.6077e-13
-2.6687e-13
-2.66908e-13
-2.68095e-13
-2.77946e-13
-2.85094e-13
-2.90413e-13
-2.95275e-13
-2.86203e-13
-2.77281e-13
-2.68171e-13
-2.63255e-13
-2.63228e-13
-2.65568e-13
-2.58371e-13
-2.60199e-13
-2.57389e-13
-2.57785e-13
-2.54298e-13
-2.49239e-13
-2.44994e-13
-2.422e-13
-2.44181e-13
-2.49793e-13
-2.43683e-13
-2.34059e-13
-2.29627e-13
-2.32005e-13
-2.2108e-13
-2.22086e-13
-2.19804e-13
-2.1632e-13
-2.08748e-13
-1.9853e-13
-1.93462e-13
-1.98422e-13
-1.93626e-13
-1.85321e-13
-1.75783e-13
-1.74376e-13
-1.72213e-13
-1.66195e-13
-1.54029e-13
-1.41461e-13
-1.31688e-13
-1.2355e-13
-1.17204e-13
-1.09116e-13
-1.06616e-13
-9.56644e-14
-8.69302e-14
-8.38817e-14
-8.02967e-14
-7.79152e-14
-7.30525e-14
-7.15924e-14
-6.75249e-14
-6.38726e-14
-6.99644e-14
-6.21157e-14
-5.13319e-14
-4.63242e-14
-5.00713e-14
-4.35263e-14
-5.19401e-14
-4.85606e-14
-4.33536e-14
-3.81297e-14
-3.97498e-14
-2.64052e-14
-1.55547e-14
-1.90988e-14
-5.44666e-15
-1.95637e-13
-2.00321e-13
-1.98748e-13
-1.97405e-13
-2.04331e-13
-2.04253e-13
-2.04566e-13
-2.11315e-13
-2.08675e-13
-2.11237e-13
-2.15991e-13
-2.14877e-13
-2.16957e-13
-2.25809e-13
-2.31172e-13
-2.45919e-13
-2.49593e-13
-2.54666e-13
-2.57108e-13
-2.57043e-13
-2.64702e-13
-2.75305e-13
-2.80235e-13
-2.77832e-13
-2.67845e-13
-2.65712e-13
-2.60938e-13
-2.60336e-13
-2.70805e-13
-2.74896e-13
-2.6683e-13
-2.69635e-13
-2.79956e-13
-2.85999e-13
-2.96823e-13
-2.84864e-13
-2.7502e-13
-2.66593e-13
-2.67034e-13
-2.64506e-13
-2.65003e-13
-2.56577e-13
-2.57454e-13
-2.55308e-13
-2.56743e-13
-2.56069e-13
-2.48617e-13
-2.47152e-13
-2.46615e-13
-2.49106e-13
-2.4307e-13
-2.3535e-13
-2.33626e-13
-2.29807e-13
-2.29635e-13
-2.27578e-13
-2.32636e-13
-2.19215e-13
-2.14286e-13
-2.03147e-13
-1.926e-13
-1.94529e-13
-1.91511e-13
-1.91814e-13
-1.83247e-13
-1.71744e-13
-1.70374e-13
-1.67165e-13
-1.65154e-13
-1.52507e-13
-1.4241e-13
-1.34515e-13
-1.20389e-13
-1.15411e-13
-1.06874e-13
-1.04528e-13
-8.93058e-14
-8.61605e-14
-8.35175e-14
-7.8711e-14
-7.33263e-14
-7.34836e-14
-7.29376e-14
-6.78183e-14
-6.45269e-14
-6.76544e-14
-5.97638e-14
-4.94379e-14
-4.75563e-14
-4.94513e-14
-4.77222e-14
-4.71339e-14
-4.38642e-14
-4.50024e-14
-3.61576e-14
-3.36201e-14
-2.53933e-14
-2.49564e-14
-2.19146e-14
-6.46283e-15
-2.00049e-13
-1.9709e-13
-1.9647e-13
-1.99427e-13
-2.03829e-13
-2.02304e-13
-2.11332e-13
-2.17006e-13
-2.11034e-13
-2.15968e-13
-2.15404e-13
-2.11585e-13
-2.17914e-13
-2.25536e-13
-2.3416e-13
-2.39394e-13
-2.46189e-13
-2.53551e-13
-2.53364e-13
-2.5962e-13
-2.73968e-13
-2.87085e-13
-2.83042e-13
-2.73679e-13
-2.62458e-13
-2.63976e-13
-2.67293e-13
-2.6552e-13
-2.64695e-13
-2.69606e-13
-2.6233e-13
-2.73538e-13
-2.89171e-13
-2.83244e-13
-2.88211e-13
-2.82073e-13
-2.73242e-13
-2.63851e-13
-2.67268e-13
-2.61733e-13
-2.63819e-13
-2.65159e-13
-2.63003e-13
-2.5456e-13
-2.46933e-13
-2.53839e-13
-2.50289e-13
-2.49598e-13
-2.45642e-13
-2.47596e-13
-2.411e-13
-2.36612e-13
-2.31852e-13
-2.31681e-13
-2.30027e-13
-2.34024e-13
-2.33674e-13
-2.17389e-13
-2.07625e-13
-2.00593e-13
-2.01205e-13
-1.96285e-13