/*--------------------------------*- C++ -*----------------------------------*\
| =========                 |                                                 |
| \\      /  F ield         | OpenFOAM: The Open Source CFD Toolbox           |
|  \\    /   O peration     | Version:  v2012                                 |
|   \\  /    A nd           | Website:  www.openfoam.com                      |
|    \\/     M anipulation  |                                                 |
\*---------------------------------------------------------------------------*/
FoamFile
{
    version     2.0;
    format      ascii;
    class       volVectorField;
    location    "70";
    object      Usup;
}
// * * * * * * * * * * * * * * * * * * * * * * * * * * * * * * * * * * * * * //

dimensions      [0 1 -1 0 0 0 0];


internalField   nonuniform List<vector> 
4000
(
(4.341e-17 -5.09461e-17 0)
(3.64016e-16 -2.73809e-16 0)
(6.07895e-16 -3.87791e-16 0)
(4.3333e-16 -3.4097e-16 0)
(6.36524e-16 -3.14366e-16 0)
(7.58061e-16 -4.79102e-16 0)
(6.97655e-16 -2.83607e-16 0)
(1.16465e-15 -1.67395e-16 0)
(1.58113e-15 -2.8076e-16 0)
(1.80319e-15 -4.94178e-16 0)
(1.75694e-15 -9.40097e-16 0)
(1.92469e-15 -6.82066e-16 0)
(2.2734e-15 -6.05595e-16 0)
(1.56044e-15 -8.16299e-16 0)
(1.61351e-16 -4.62846e-16 0)
(-1.27993e-16 7.66712e-17 0)
(4.80124e-16 -1.02221e-16 0)
(4.71682e-16 -4.08221e-16 0)
(8.11181e-17 -2.86429e-16 0)
(2.44922e-16 2.28316e-16 0)
(1.03666e-15 1.77236e-16 0)
(1.74096e-15 -2.2313e-16 0)
(1.91098e-15 -4.2686e-16 0)
(2.15542e-15 -5.32404e-16 0)
(3.07936e-15 -3.33837e-16 0)
(3.75089e-15 -4.36025e-16 0)
(3.53093e-15 -5.32757e-16 0)
(3.16427e-15 -1.38958e-16 0)
(2.95638e-15 5.89418e-17 0)
(2.88835e-15 3.54086e-16 0)
(3.56767e-15 6.73294e-16 0)
(4.72574e-15 8.52432e-16 0)
(5.1173e-15 5.06064e-16 0)
(4.69322e-15 3.78432e-16 0)
(4.42166e-15 5.64705e-16 0)
(4.25047e-15 7.60839e-16 0)
(4.46401e-15 1.29458e-15 0)
(5.2647e-15 1.77472e-15 0)
(6.39548e-15 2.16209e-15 0)
(7.869e-15 2.10132e-15 0)
(9.00304e-15 1.86261e-15 0)
(9.56817e-15 1.55961e-15 0)
(9.65677e-15 1.52474e-15 0)
(9.86869e-15 1.68563e-15 0)
(1.05143e-14 1.39724e-15 0)
(1.09504e-14 1.18535e-15 0)
(1.10067e-14 1.18773e-15 0)
(1.14931e-14 1.72679e-15 0)
(1.20606e-14 1.85629e-15 0)
(1.25246e-14 1.99964e-15 0)
(1.27766e-14 1.61092e-15 0)
(1.23628e-14 1.69825e-15 0)
(1.24198e-14 1.91187e-15 0)
(1.27523e-14 2.0229e-15 0)
(1.29121e-14 2.49291e-15 0)
(1.34228e-14 2.30847e-15 0)
(1.38e-14 1.90763e-15 0)
(1.42091e-14 2.08568e-15 0)
(1.48263e-14 2.00987e-15 0)
(1.49946e-14 1.95192e-15 0)
(1.47874e-14 1.89775e-15 0)
(1.44029e-14 2.09384e-15 0)
(1.41451e-14 2.34649e-15 0)
(1.42947e-14 2.47718e-15 0)
(1.45467e-14 2.4341e-15 0)
(1.49336e-14 2.70079e-15 0)
(1.51249e-14 2.47767e-15 0)
(1.48228e-14 2.30729e-15 0)
(1.49094e-14 2.5669e-15 0)
(1.514e-14 2.68047e-15 0)
(1.5161e-14 2.58278e-15 0)
(1.50114e-14 2.63906e-15 0)
(1.52049e-14 3.24535e-15 0)
(1.60022e-14 3.32204e-15 0)
(1.64631e-14 2.94027e-15 0)
(1.62187e-14 2.59999e-15 0)
(1.54094e-14 2.71444e-15 0)
(1.45327e-14 2.86247e-15 0)
(1.36543e-14 3.18978e-15 0)
(1.34279e-14 3.64384e-15 0)
(1.3863e-14 3.83434e-15 0)
(1.3779e-14 3.57371e-15 0)
(1.34676e-14 3.38571e-15 0)
(1.35089e-14 3.24429e-15 0)
(1.38857e-14 3.09459e-15 0)
(1.42504e-14 2.85217e-15 0)
(1.44923e-14 2.60026e-15 0)
(1.44439e-14 2.07331e-15 0)
(1.40353e-14 1.87475e-15 0)
(1.35099e-14 1.91633e-15 0)
(1.29342e-14 1.72112e-15 0)
(1.23781e-14 1.58755e-15 0)
(1.19886e-14 1.51141e-15 0)
(1.15448e-14 1.06894e-15 0)
(1.05614e-14 7.29093e-16 0)
(9.13794e-15 4.46466e-16 0)
(7.6398e-15 2.09496e-16 0)
(6.05502e-15 1.9636e-16 0)
(4.09497e-15 9.74406e-17 0)
(1.79727e-15 7.15485e-17 0)
(7.53895e-17 -1.40311e-16 0)
(7.71485e-16 -5.1743e-16 0)
(1.52628e-15 -1.20659e-15 0)
(1.48554e-15 -1.24849e-15 0)
(1.77275e-15 -1.22673e-15 0)
(2.23639e-15 -1.41534e-15 0)
(2.55203e-15 -1.01009e-15 0)
(3.34295e-15 -6.78105e-16 0)
(4.06746e-15 -9.33216e-16 0)
(4.3888e-15 -1.43433e-15 0)
(4.78666e-15 -2.28569e-15 0)
(5.4952e-15 -2.16768e-15 0)
(5.56559e-15 -1.82036e-15 0)
(4.18283e-15 -2.04468e-15 0)
(1.94184e-15 -1.30669e-15 0)
(7.654e-16 -3.64783e-16 0)
(1.07769e-15 -6.58913e-16 0)
(1.32714e-15 -1.07911e-15 0)
(1.37397e-15 -6.64629e-16 0)
(1.76792e-15 9.86272e-17 0)
(2.84769e-15 -7.13556e-17 0)
(4.40549e-15 -4.7154e-16 0)
(5.39005e-15 -6.1657e-16 0)
(6.6004e-15 -1.07933e-15 0)
(8.64251e-15 -1.01833e-15 0)
(9.93038e-15 -1.07686e-15 0)
(1.01072e-14 -1.22406e-15 0)
(9.71681e-15 -5.99166e-16 0)
(9.32414e-15 2.18362e-17 0)
(9.54352e-15 9.32788e-16 0)
(1.10577e-14 1.67736e-15 0)
(1.30191e-14 1.93352e-15 0)
(1.3817e-14 1.88283e-15 0)
(1.36514e-14 1.86733e-15 0)
(1.34706e-14 2.45807e-15 0)
(1.36148e-14 2.72525e-15 0)
(1.46228e-14 3.73379e-15 0)
(1.66086e-14 4.91195e-15 0)
(1.91387e-14 5.98974e-15 0)
(2.22547e-14 5.96668e-15 0)
(2.49815e-14 5.48462e-15 0)
(2.68358e-14 4.86981e-15 0)
(2.78912e-14 4.83799e-15 0)
(2.85613e-14 4.75786e-15 0)
(2.98545e-14 4.29894e-15 0)
(3.12693e-14 3.91224e-15 0)
(3.23834e-14 3.89642e-15 0)
(3.37407e-14 5.08112e-15 0)
(3.48749e-14 5.5799e-15 0)
(3.56733e-14 5.95175e-15 0)
(3.62826e-14 5.10753e-15 0)
(3.62021e-14 5.06028e-15 0)
(3.64599e-14 5.42845e-15 0)
(3.74396e-14 5.8702e-15 0)
(3.78426e-14 6.82641e-15 0)
(3.84338e-14 6.76228e-15 0)
(3.97648e-14 6.41652e-15 0)
(4.11206e-14 6.71403e-15 0)
(4.2316e-14 6.47802e-15 0)
(4.28093e-14 5.92755e-15 0)
(4.26532e-14 5.49395e-15 0)
(4.21445e-14 6.03668e-15 0)
(4.16184e-14 6.72417e-15 0)
(4.17107e-14 7.29018e-15 0)
(4.24147e-14 7.34728e-15 0)
(4.31205e-14 7.71324e-15 0)
(4.32364e-14 7.50507e-15 0)
(4.3172e-14 7.19316e-15 0)
(4.35807e-14 7.71129e-15 0)
(4.37871e-14 7.75445e-15 0)
(4.38629e-14 7.89825e-15 0)
(4.42496e-14 8.32217e-15 0)
(4.48098e-14 9.33677e-15 0)
(4.56647e-14 9.53843e-15 0)
(4.62513e-14 8.85932e-15 0)
(4.60194e-14 8.09345e-15 0)
(4.4546e-14 8.47247e-15 0)
(4.26084e-14 9.14527e-15 0)
(4.08432e-14 9.96332e-15 0)
(4.00604e-14 1.07999e-14 0)
(4.01113e-14 1.10804e-14 0)
(3.96263e-14 1.06522e-14 0)
(3.91355e-14 9.90356e-15 0)
(3.9248e-14 9.68128e-15 0)
(3.99186e-14 9.12362e-15 0)
(4.05917e-14 8.5028e-15 0)
(4.08156e-14 8.06018e-15 0)
(4.06107e-14 6.84918e-15 0)
(3.99811e-14 5.99502e-15 0)
(3.85704e-14 5.39736e-15 0)
(3.68471e-14 4.87941e-15 0)
(3.53233e-14 4.66273e-15 0)
(3.36835e-14 4.22949e-15 0)
(3.18044e-14 3.2401e-15 0)
(2.90636e-14 2.03363e-15 0)
(2.52438e-14 1.12074e-15 0)
(2.11517e-14 9.12569e-16 0)
(1.65609e-14 8.23244e-16 0)
(1.09471e-14 4.73256e-16 0)
(4.37173e-15 1.64273e-16 0)
(1.89864e-16 -7.82596e-17 0)
(8.56281e-16 -5.21453e-16 0)
(1.91051e-15 -1.73266e-15 0)
(2.43355e-15 -2.46898e-15 0)
(2.96595e-15 -2.50846e-15 0)
(3.79466e-15 -2.31139e-15 0)
(4.51376e-15 -1.69245e-15 0)
(5.4209e-15 -1.20219e-15 0)
(6.15443e-15 -1.97118e-15 0)
(6.54686e-15 -2.79306e-15 0)
(7.17549e-15 -3.13182e-15 0)
(8.44004e-15 -2.89124e-15 0)
(8.49792e-15 -2.89829e-15 0)
(6.65079e-15 -3.03612e-15 0)
(3.96018e-15 -2.45764e-15 0)
(2.0449e-15 -1.67457e-15 0)
(2.01331e-15 -1.48091e-15 0)
(2.60658e-15 -1.34915e-15 0)
(2.97641e-15 -9.46082e-16 0)
(3.41122e-15 -7.90943e-16 0)
(4.97047e-15 -7.51721e-16 0)
(7.38337e-15 -6.85568e-16 0)
(8.7225e-15 -6.48567e-16 0)
(1.0438e-14 -1.19083e-15 0)
(1.35519e-14 -1.61134e-15 0)
(1.55085e-14 -1.78136e-15 0)
(1.6041e-14 -1.66657e-15 0)
(1.6035e-14 -9.84412e-16 0)
(1.6018e-14 2.36385e-16 0)
(1.6549e-14 1.7469e-15 0)
(1.83375e-14 2.66425e-15 0)
(2.10317e-14 2.82615e-15 0)
(2.23924e-14 3.31805e-15 0)
(2.24825e-14 3.80853e-15 0)
(2.24005e-14 4.46836e-15 0)
(2.28864e-14 5.27169e-15 0)
(2.50015e-14 6.2462e-15 0)
(2.82394e-14 7.58053e-15 0)
(3.17239e-14 9.13969e-15 0)
(3.57569e-14 9.50816e-15 0)
(3.96622e-14 9.12051e-15 0)
(4.27823e-14 8.62945e-15 0)
(4.46762e-14 8.04545e-15 0)
(4.59443e-14 7.57318e-15 0)
(4.80732e-14 7.35364e-15 0)
(5.03128e-14 7.10283e-15 0)
(5.26414e-14 7.21307e-15 0)
(5.49695e-14 8.35408e-15 0)
(5.64979e-14 8.84166e-15 0)
(5.72864e-14 9.28364e-15 0)
(5.80253e-14 9.00799e-15 0)
(5.85691e-14 8.86396e-15 0)
(5.94314e-14 9.3983e-15 0)
(6.10545e-14 9.82552e-15 0)
(6.1765e-14 1.06385e-14 0)
(6.26179e-14 1.13207e-14 0)
(6.45395e-14 1.14803e-14 0)
(6.63215e-14 1.13487e-14 0)
(6.7599e-14 1.0848e-14 0)
(6.8214e-14 1.00258e-14 0)
(6.86932e-14 9.34518e-15 0)
(6.86663e-14 1.00995e-14 0)
(6.81449e-14 1.11293e-14 0)
(6.81149e-14 1.19547e-14 0)
(6.88213e-14 1.22151e-14 0)
(6.97584e-14 1.24353e-14 0)
(6.98914e-14 1.24655e-14 0)
(7.00551e-14 1.24458e-14 0)
(7.06264e-14 1.29915e-14 0)
(7.09799e-14 1.33639e-14 0)
(7.1496e-14 1.39725e-14 0)
(7.21192e-14 1.46221e-14 0)
(7.27641e-14 1.53015e-14 0)
(7.34971e-14 1.54182e-14 0)
(7.38558e-14 1.47767e-14 0)
(7.37597e-14 1.4162e-14 0)
(7.22999e-14 1.45337e-14 0)
(6.9685e-14 1.55389e-14 0)
(6.70507e-14 1.6722e-14 0)
(6.55464e-14 1.75867e-14 0)
(6.50707e-14 1.76992e-14 0)
(6.39651e-14 1.7422e-14 0)
(6.33816e-14 1.67648e-14 0)
(6.36012e-14 1.58e-14 0)
(6.42028e-14 1.49083e-14 0)
(6.51862e-14 1.39998e-14 0)
(6.5189e-14 1.31702e-14 0)
(6.43781e-14 1.20351e-14 0)
(6.32153e-14 1.05431e-14 0)
(6.12609e-14 9.03172e-15 0)
(5.9009e-14 8.0561e-15 0)
(5.64248e-14 7.39942e-15 0)
(5.33119e-14 6.56439e-15 0)
(4.96876e-14 5.2981e-15 0)
(4.50827e-14 3.44447e-15 0)
(3.96744e-14 2.12348e-15 0)
(3.33991e-14 1.55591e-15 0)
(2.56771e-14 1.05914e-15 0)
(1.65768e-14 5.74556e-16 0)
(6.31873e-15 1.05391e-16 0)
(2.00088e-16 -7.82772e-17 0)
(7.69015e-16 -5.93572e-16 0)
(1.80144e-15 -2.20177e-15 0)
(2.93866e-15 -3.26981e-15 0)
(4.28858e-15 -3.47031e-15 0)
(5.63474e-15 -3.03613e-15 0)
(6.60937e-15 -2.29325e-15 0)
(7.03006e-15 -2.1357e-15 0)
(7.44123e-15 -3.20372e-15 0)
(8.54554e-15 -4.26409e-15 0)
(9.95085e-15 -4.068e-15 0)
(1.09773e-14 -3.1453e-15 0)
(1.05373e-14 -3.59575e-15 0)
(8.68761e-15 -4.01313e-15 0)
(5.93086e-15 -3.87462e-15 0)
(3.84051e-15 -2.99416e-15 0)
(3.6719e-15 -1.86473e-15 0)
(4.16776e-15 -1.27861e-15 0)
(4.41823e-15 -1.59656e-15 0)
(5.20094e-15 -1.82542e-15 0)
(7.3791e-15 -1.3208e-15 0)
(1.02347e-14 -1.47409e-15 0)
(1.1951e-14 -1.55035e-15 0)
(1.40518e-14 -1.00443e-15 0)
(1.77452e-14 -1.34573e-15 0)
(2.05229e-14 -1.81371e-15 0)
(2.18374e-14 -1.82367e-15 0)
(2.24801e-14 -9.45217e-16 0)
(2.30002e-14 6.77809e-16 0)
(2.36507e-14 2.49213e-15 0)
(2.53744e-14 3.56845e-15 0)
(2.84573e-14 3.96956e-15 0)
(3.05136e-14 4.57501e-15 0)
(3.09618e-14 5.56833e-15 0)
(3.14332e-14 6.47615e-15 0)
(3.25132e-14 7.74652e-15 0)
(3.52149e-14 9.08215e-15 0)
(3.96733e-14 1.03423e-14 0)
(4.41149e-14 1.18714e-14 0)
(4.86865e-14 1.27392e-14 0)
(5.34158e-14 1.25672e-14 0)
(5.72119e-14 1.18804e-14 0)
(5.98861e-14 1.09177e-14 0)
(6.22907e-14 1.06382e-14 0)
(6.52594e-14 1.06108e-14 0)
(6.8305e-14 1.04793e-14 0)
(7.16752e-14 1.07783e-14 0)
(7.46225e-14 1.14933e-14 0)
(7.65521e-14 1.19331e-14 0)
(7.79159e-14 1.26873e-14 0)
(7.88965e-14 1.33909e-14 0)
(7.9882e-14 1.35169e-14 0)
(8.11362e-14 1.37724e-14 0)
(8.31014e-14 1.39216e-14 0)
(8.45884e-14 1.44766e-14 0)
(8.57712e-14 1.53975e-14 0)
(8.76005e-14 1.60398e-14 0)
(8.9541e-14 1.59306e-14 0)
(9.11797e-14 1.52613e-14 0)
(9.20885e-14 1.44647e-14 0)
(9.32122e-14 1.41095e-14 0)
(9.38569e-14 1.43491e-14 0)
(9.33525e-14 1.51497e-14 0)
(9.31215e-14 1.60995e-14 0)
(9.38215e-14 1.68599e-14 0)
(9.48661e-14 1.73947e-14 0)
(9.5167e-14 1.74243e-14 0)
(9.56341e-14 1.77658e-14 0)
(9.6555e-14 1.8462e-14 0)
(9.70975e-14 1.94842e-14 0)
(9.76145e-14 2.03002e-14 0)
(9.82931e-14 2.10056e-14 0)
(9.89072e-14 2.14515e-14 0)
(9.93893e-14 2.12742e-14 0)
(9.96634e-14 2.06414e-14 0)
(9.96712e-14 2.04455e-14 0)
(9.82217e-14 2.05344e-14 0)
(9.54389e-14 2.13986e-14 0)
(9.2249e-14 2.27814e-14 0)
(8.98721e-14 2.39937e-14 0)
(8.87512e-14 2.41013e-14 0)
(8.73933e-14 2.37815e-14 0)
(8.61045e-14 2.3325e-14 0)
(8.59845e-14 2.1788e-14 0)
(8.68611e-14 2.07468e-14 0)
(8.77278e-14 1.93993e-14 0)
(8.76699e-14 1.80877e-14 0)
(8.64e-14 1.69863e-14 0)
(8.43911e-14 1.51324e-14 0)
(8.18426e-14 1.28205e-14 0)
(7.89267e-14 1.12156e-14 0)
(7.54551e-14 9.91406e-15 0)
(7.10708e-14 8.65646e-15 0)
(6.56773e-14 7.15954e-15 0)
(5.93689e-14 5.05678e-15 0)
(5.2172e-14 3.40545e-15 0)
(4.37015e-14 2.06112e-15 0)
(3.35428e-14 1.0798e-15 0)
(2.15839e-14 5.08415e-16 0)
(8.13573e-15 5.34143e-17 0)
(3.00654e-16 -2.73117e-16 0)
(5.30587e-16 -7.85902e-16 0)
(1.61253e-15 -2.63193e-15 0)
(3.50053e-15 -3.9496e-15 0)
(5.47383e-15 -3.9192e-15 0)
(7.35533e-15 -3.48188e-15 0)
(8.27363e-15 -3.07597e-15 0)
(8.33537e-15 -3.49346e-15 0)
(8.64723e-15 -4.0732e-15 0)
(1.03237e-14 -4.7185e-15 0)
(1.25956e-14 -4.37675e-15 0)
(1.34006e-14 -4.01793e-15 0)
(1.2242e-14 -4.57104e-15 0)
(1.02547e-14 -5.12387e-15 0)
(7.81803e-15 -5.38661e-15 0)
(6.20023e-15 -4.07614e-15 0)
(5.87544e-15 -2.44839e-15 0)
(5.50886e-15 -1.73828e-15 0)
(5.55894e-15 -1.98036e-15 0)
(7.19004e-15 -1.90396e-15 0)
(9.71062e-15 -1.59522e-15 0)
(1.27434e-14 -1.77876e-15 0)
(1.56489e-14 -2.1649e-15 0)
(1.8248e-14 -1.26781e-15 0)
(2.17125e-14 -1.09802e-15 0)
(2.4831e-14 -1.33491e-15 0)
(2.69672e-14 -1.28871e-15 0)
(2.86029e-14 -5.09116e-16 0)
(2.97565e-14 1.0847e-15 0)
(3.058e-14 2.8505e-15 0)
(3.23104e-14 4.21066e-15 0)
(3.5758e-14 5.0586e-15 0)
(3.84778e-14 6.07894e-15 0)
(3.94808e-14 7.54942e-15 0)
(4.02754e-14 8.95531e-15 0)
(4.19638e-14 1.02163e-14 0)
(4.53701e-14 1.18687e-14 0)
(5.05363e-14 1.34512e-14 0)
(5.59082e-14 1.47313e-14 0)
(6.1038e-14 1.55238e-14 0)
(6.60228e-14 1.54927e-14 0)
(7.04738e-14 1.43774e-14 0)
(7.42796e-14 1.37918e-14 0)
(7.76983e-14 1.38822e-14 0)
(8.13448e-14 1.416e-14 0)
(8.51402e-14 1.41492e-14 0)
(8.93128e-14 1.43917e-14 0)
(9.2951e-14 1.45139e-14 0)
(9.56653e-14 1.52145e-14 0)
(9.76658e-14 1.63384e-14 0)
(9.87562e-14 1.74492e-14 0)
(9.96083e-14 1.7969e-14 0)
(1.01141e-13 1.8123e-14 0)
(1.03736e-13 1.80887e-14 0)
(1.05852e-13 1.85544e-14 0)
(1.07695e-13 1.96044e-14 0)
(1.09801e-13 2.03238e-14 0)
(1.11517e-13 2.0289e-14 0)
(1.13062e-13 1.97727e-14 0)
(1.14424e-13 1.93016e-14 0)
(1.15914e-13 1.90444e-14 0)
(1.16834e-13 1.88094e-14 0)
(1.16947e-13 1.91658e-14 0)
(1.17128e-13 2.00751e-14 0)
(1.17881e-13 2.09277e-14 0)
(1.18667e-13 2.1655e-14 0)
(1.18975e-13 2.21897e-14 0)
(1.1985e-13 2.30628e-14 0)
(1.21149e-13 2.39718e-14 0)
(1.21836e-13 2.54748e-14 0)
(1.22349e-13 2.65294e-14 0)
(1.22938e-13 2.72409e-14 0)
(1.23239e-13 2.74312e-14 0)
(1.23479e-13 2.71506e-14 0)
(1.23859e-13 2.68466e-14 0)
(1.23875e-13 2.66331e-14 0)
(1.22359e-13 2.6273e-14 0)
(1.1966e-13 2.70526e-14 0)
(1.16302e-13 2.86089e-14 0)
(1.1315e-13 3.02938e-14 0)
(1.11107e-13 3.06259e-14 0)
(1.09243e-13 3.0002e-14 0)
(1.07486e-13 2.90563e-14 0)
(1.07122e-13 2.78828e-14 0)
(1.07805e-13 2.66842e-14 0)
(1.08484e-13 2.52068e-14 0)
(1.0835e-13 2.33458e-14 0)
(1.06478e-13 2.15116e-14 0)
(1.03366e-13 1.92031e-14 0)
(1.00176e-13 1.6267e-14 0)
(9.69413e-14 1.43019e-14 0)
(9.26086e-14 1.25543e-14 0)
(8.70358e-14 1.04922e-14 0)
(8.00294e-14 8.56921e-15 0)
(7.1952e-14 6.43955e-15 0)
(6.31027e-14 4.46408e-15 0)
(5.27246e-14 2.69748e-15 0)
(4.03954e-14 1.47492e-15 0)
(2.59151e-14 7.0742e-16 0)
(9.68877e-15 1.09492e-16 0)
(4.15789e-16 -3.87398e-16 0)
(3.98426e-16 -1.40983e-15 0)
(1.16419e-15 -2.90025e-15 0)
(3.96464e-15 -4.23549e-15 0)
(6.89243e-15 -4.2395e-15 0)
(8.82339e-15 -3.70923e-15 0)
(9.50963e-15 -3.61451e-15 0)
(9.57937e-15 -4.6216e-15 0)
(1.01772e-14 -5.13602e-15 0)
(1.22287e-14 -4.83658e-15 0)
(1.45163e-14 -4.51876e-15 0)
(1.48844e-14 -5.05163e-15 0)
(1.35954e-14 -5.83436e-15 0)
(1.15938e-14 -6.25584e-15 0)
(9.78522e-15 -6.39376e-15 0)
(8.80759e-15 -5.00744e-15 0)
(8.1396e-15 -3.5213e-15 0)
(7.38025e-15 -2.72395e-15 0)
(7.46331e-15 -2.18539e-15 0)
(9.1764e-15 -1.40168e-15 0)
(1.19047e-14 -1.35551e-15 0)
(1.51176e-14 -1.36462e-15 0)
(1.85423e-14 -1.53606e-15 0)
(2.19867e-14 -1.33666e-15 0)
(2.57664e-14 -1.21701e-15 0)
(2.92626e-14 -1.17912e-15 0)
(3.19692e-14 -6.94078e-16 0)
(3.4296e-14 5.44579e-17 0)
(3.61105e-14 1.50488e-15 0)
(3.72834e-14 3.34743e-15 0)
(3.91841e-14 5.18188e-15 0)
(4.29413e-14 6.53951e-15 0)
(4.6317e-14 7.50456e-15 0)
(4.78228e-14 8.79038e-15 0)
(4.89378e-14 1.08033e-14 0)
(5.11648e-14 1.29102e-14 0)
(5.53559e-14 1.49691e-14 0)
(6.11227e-14 1.67631e-14 0)
(6.6831e-14 1.7659e-14 0)
(7.24074e-14 1.77468e-14 0)
(7.76448e-14 1.77868e-14 0)
(8.27654e-14 1.69864e-14 0)
(8.78652e-14 1.68008e-14 0)
(9.23124e-14 1.72727e-14 0)
(9.65326e-14 1.79919e-14 0)
(1.00796e-13 1.82269e-14 0)
(1.05432e-13 1.78419e-14 0)
(1.09835e-13 1.76939e-14 0)
(1.13554e-13 1.87469e-14 0)
(1.16164e-13 1.9934e-14 0)
(1.1751e-13 2.11482e-14 0)
(1.18494e-13 2.21796e-14 0)
(1.20027e-13 2.25857e-14 0)
(1.2295e-13 2.27186e-14 0)
(1.26012e-13 2.31311e-14 0)
(1.28201e-13 2.41663e-14 0)
(1.30053e-13 2.45227e-14 0)
(1.31856e-13 2.43142e-14 0)
(1.33837e-13 2.38932e-14 0)
(1.35428e-13 2.38601e-14 0)
(1.37041e-13 2.38147e-14 0)
(1.38343e-13 2.38043e-14 0)
(1.38874e-13 2.39732e-14 0)
(1.39257e-13 2.42844e-14 0)
(1.40127e-13 2.47553e-14 0)
(1.41258e-13 2.5381e-14 0)
(1.41952e-13 2.67684e-14 0)
(1.4293e-13 2.80947e-14 0)
(1.44537e-13 2.93321e-14 0)
(1.45408e-13 3.10428e-14 0)
(1.45552e-13 3.26418e-14 0)
(1.45798e-13 3.31252e-14 0)
(1.45886e-13 3.31358e-14 0)
(1.46147e-13 3.31108e-14 0)
(1.46416e-13 3.3105e-14 0)
(1.46033e-13 3.25342e-14 0)
(1.44691e-13 3.18146e-14 0)
(1.4255e-13 3.26622e-14 0)
(1.39272e-13 3.41959e-14 0)
(1.35382e-13 3.61542e-14 0)
(1.32109e-13 3.66324e-14 0)
(1.29449e-13 3.60161e-14 0)
(1.27458e-13 3.51898e-14 0)
(1.2692e-13 3.40988e-14 0)
(1.2737e-13 3.22965e-14 0)
(1.2748e-13 3.05011e-14 0)
(1.26712e-13 2.79669e-14 0)
(1.24394e-13 2.539e-14 0)
(1.20539e-13 2.27046e-14 0)
(1.16894e-13 1.98891e-14 0)
(1.13206e-13 1.73871e-14 0)
(1.07725e-13 1.49196e-14 0)
(1.00947e-13 1.22992e-14 0)
(9.2831e-14 1.00829e-14 0)
(8.33161e-14 7.83561e-15 0)
(7.26883e-14 5.62031e-15 0)
(6.05558e-14 3.40864e-15 0)
(4.64157e-14 1.8653e-15 0)
(2.97214e-14 8.82582e-16 0)
(1.107e-14 2.2618e-16 0)
(2.51624e-16 -5.53826e-16 0)
(1.98909e-16 -2.24967e-15 0)
(1.26561e-15 -3.15998e-15 0)
(4.45906e-15 -3.86963e-15 0)
(8.03321e-15 -3.99175e-15 0)
(1.02401e-14 -3.87102e-15 0)
(1.03045e-14 -4.11918e-15 0)
(1.02086e-14 -5.27028e-15 0)
(1.17507e-14 -6.01427e-15 0)
(1.42459e-14 -5.6515e-15 0)
(1.60189e-14 -5.29104e-15 0)
(1.60164e-14 -5.87407e-15 0)
(1.48183e-14 -6.80528e-15 0)
(1.30769e-14 -7.19373e-15 0)
(1.17173e-14 -6.78652e-15 0)
(1.11297e-14 -5.45191e-15 0)
(1.03553e-14 -4.34238e-15 0)
(9.42625e-15 -3.21107e-15 0)
(9.75801e-15 -2.15568e-15 0)
(1.14922e-14 -7.48534e-16 0)
(1.40547e-14 -5.99473e-16 0)
(1.7661e-14 -1.18917e-15 0)
(2.15086e-14 -1.30496e-15 0)
(2.51322e-14 -1.38966e-15 0)
(2.92738e-14 -1.25458e-15 0)
(3.33908e-14 -8.24859e-16 0)
(3.66893e-14 -3.07428e-16 0)
(3.96205e-14 1.03151e-15 0)
(4.21795e-14 2.23344e-15 0)
(4.39615e-14 3.77622e-15 0)
(4.61046e-14 5.97514e-15 0)
(4.97342e-14 8.21861e-15 0)
(5.32144e-14 9.44236e-15 0)
(5.57855e-14 1.04967e-14 0)
(5.80283e-14 1.27542e-14 0)
(6.07293e-14 1.52389e-14 0)
(6.50902e-14 1.79001e-14 0)
(7.08139e-14 1.95847e-14 0)
(7.65285e-14 2.02276e-14 0)
(8.27164e-14 1.99763e-14 0)
(8.87127e-14 1.9694e-14 0)
(9.45576e-14 1.94446e-14 0)
(1.00731e-13 1.95682e-14 0)
(1.06141e-13 2.06988e-14 0)
(1.10857e-13 2.17513e-14 0)
(1.15008e-13 2.19997e-14 0)
(1.19999e-13 2.13554e-14 0)
(1.25735e-13 2.14141e-14 0)
(1.30404e-13 2.26878e-14 0)
(1.33409e-13 2.39044e-14 0)
(1.35174e-13 2.51103e-14 0)
(1.36148e-13 2.60651e-14 0)
(1.3771e-13 2.66365e-14 0)
(1.41009e-13 2.73734e-14 0)
(1.4451e-13 2.78663e-14 0)
(1.47049e-13 2.85085e-14 0)
(1.48965e-13 2.90748e-14 0)
(1.50786e-13 2.90043e-14 0)
(1.53048e-13 2.84956e-14 0)
(1.55154e-13 2.80991e-14 0)
(1.57007e-13 2.83421e-14 0)
(1.5835e-13 2.84956e-14 0)
(1.58938e-13 2.87903e-14 0)
(1.59597e-13 2.86564e-14 0)
(1.6086e-13 2.92012e-14 0)
(1.62602e-13 2.99515e-14 0)
(1.63686e-13 3.14392e-14 0)
(1.64682e-13 3.28658e-14 0)
(1.66477e-13 3.45062e-14 0)
(1.67631e-13 3.5667e-14 0)
(1.67426e-13 3.73776e-14 0)
(1.67012e-13 3.80769e-14 0)
(1.67075e-13 3.83017e-14 0)
(1.67362e-13 3.8469e-14 0)
(1.67249e-13 3.8226e-14 0)
(1.66448e-13 3.77876e-14 0)
(1.65496e-13 3.76386e-14 0)
(1.63867e-13 3.86416e-14 0)
(1.60731e-13 3.99755e-14 0)
(1.56277e-13 4.15915e-14 0)
(1.51908e-13 4.18331e-14 0)
(1.48719e-13 4.13772e-14 0)
(1.46293e-13 4.05583e-14 0)
(1.44922e-13 3.94793e-14 0)
(1.4479e-13 3.74547e-14 0)
(1.44558e-13 3.48355e-14 0)
(1.43321e-13 3.20655e-14 0)
(1.40587e-13 2.9069e-14 0)
(1.36286e-13 2.61437e-14 0)
(1.31941e-13 2.32142e-14 0)
(1.27395e-13 2.01753e-14 0)
(1.21122e-13 1.72307e-14 0)
(1.13564e-13 1.42582e-14 0)
(1.04294e-13 1.19927e-14 0)
(9.3259e-14 9.61608e-15 0)
(8.10322e-14 7.13223e-15 0)
(6.73031e-14 4.46987e-15 0)
(5.16092e-14 2.41832e-15 0)
(3.31228e-14 1.22388e-15 0)
(1.23018e-14 3.78009e-16 0)
(-6.14465e-18 -7.19199e-16 0)
(1.65963e-16 -2.54225e-15 0)
(1.74687e-15 -3.05202e-15 0)
(5.25819e-15 -3.62631e-15 0)
(8.96366e-15 -3.77136e-15 0)
(1.09987e-14 -4.5291e-15 0)
(1.09681e-14 -4.94167e-15 0)
(1.08987e-14 -5.68664e-15 0)
(1.28171e-14 -6.29643e-15 0)
(1.58416e-14 -6.33163e-15 0)
(1.75255e-14 -6.23103e-15 0)
(1.69539e-14 -6.75217e-15 0)
(1.5735e-14 -7.40836e-15 0)
(1.4582e-14 -7.41661e-15 0)
(1.38971e-14 -6.46219e-15 0)
(1.33533e-14 -5.25333e-15 0)
(1.25589e-14 -4.41947e-15 0)
(1.1905e-14 -3.23953e-15 0)
(1.24671e-14 -1.55982e-15 0)
(1.39262e-14 -3.83634e-16 0)
(1.57223e-14 -2.68271e-16 0)
(1.9368e-14 -1.27738e-15 0)
(2.38459e-14 -1.63524e-15 0)
(2.81805e-14 -1.58993e-15 0)
(3.3038e-14 -7.96777e-16 0)
(3.74785e-14 -2.08532e-16 0)
(4.14689e-14 7.74909e-16 0)
(4.4887e-14 2.44214e-15 0)
(4.74517e-14 3.71502e-15 0)
(5.00062e-14 4.96216e-15 0)
(5.31305e-14 6.87213e-15 0)
(5.69217e-14 9.17194e-15 0)
(6.01917e-14 1.10645e-14 0)
(6.32453e-14 1.26346e-14 0)
(6.6256e-14 1.50568e-14 0)
(6.97328e-14 1.74297e-14 0)
(7.44401e-14 2.02904e-14 0)
(7.99893e-14 2.19217e-14 0)
(8.56723e-14 2.2411e-14 0)
(9.20356e-14 2.22514e-14 0)
(9.87365e-14 2.15784e-14 0)
(1.05556e-13 2.17785e-14 0)
(1.12984e-13 2.2319e-14 0)
(1.19345e-13 2.33684e-14 0)
(1.24073e-13 2.46414e-14 0)
(1.28178e-13 2.52512e-14 0)
(1.33701e-13 2.56787e-14 0)
(1.40481e-13 2.60719e-14 0)
(1.45955e-13 2.69245e-14 0)
(1.49347e-13 2.79409e-14 0)
(1.51259e-13 2.88545e-14 0)
(1.52478e-13 2.93519e-14 0)
(1.54524e-13 3.05228e-14 0)
(1.58056e-13 3.19483e-14 0)
(1.61718e-13 3.27903e-14 0)
(1.64629e-13 3.34379e-14 0)
(1.66604e-13 3.38157e-14 0)
(1.68219e-13 3.36562e-14 0)
(1.70494e-13 3.31519e-14 0)
(1.73081e-13 3.27522e-14 0)
(1.75455e-13 3.28709e-14 0)
(1.77088e-13 3.29497e-14 0)
(1.7767e-13 3.33858e-14 0)
(1.78494e-13 3.3193e-14 0)
(1.80277e-13 3.35683e-14 0)
(1.8236e-13 3.45525e-14 0)
(1.83793e-13 3.58013e-14 0)
(1.85104e-13 3.74362e-14 0)
(1.86717e-13 3.92099e-14 0)
(1.87822e-13 4.01646e-14 0)
(1.87788e-13 4.13117e-14 0)
(1.87075e-13 4.25405e-14 0)
(1.86863e-13 4.34361e-14 0)
(1.86797e-13 4.3633e-14 0)
(1.8652e-13 4.29575e-14 0)
(1.85962e-13 4.2589e-14 0)
(1.85304e-13 4.31325e-14 0)
(1.83794e-13 4.41154e-14 0)
(1.80487e-13 4.5246e-14 0)
(1.75343e-13 4.63236e-14 0)
(1.70147e-13 4.64981e-14 0)
(1.66349e-13 4.62031e-14 0)
(1.63568e-13 4.53781e-14 0)
(1.61818e-13 4.408e-14 0)
(1.60781e-13 4.20024e-14 0)
(1.59909e-13 3.91278e-14 0)
(1.58292e-13 3.61563e-14 0)
(1.55099e-13 3.28671e-14 0)
(1.50308e-13 2.95269e-14 0)
(1.4535e-13 2.62435e-14 0)
(1.40168e-13 2.30101e-14 0)
(1.32983e-13 1.99623e-14 0)
(1.24658e-13 1.65862e-14 0)
(1.14605e-13 1.37182e-14 0)
(1.02194e-13 1.14671e-14 0)
(8.82446e-14 8.73143e-15 0)
(7.29455e-14 5.49781e-15 0)
(5.60462e-14 2.96936e-15 0)
(3.60819e-14 1.58249e-15 0)
(1.33443e-14 5.56921e-16 0)
(-1.54118e-16 -8.57059e-16 0)
(3.10685e-16 -2.39352e-15 0)
(2.26321e-15 -2.55272e-15 0)
(5.7779e-15 -3.13956e-15 0)
(9.32555e-15 -4.15965e-15 0)
(1.1481e-14 -5.24484e-15 0)
(1.17225e-14 -5.86439e-15 0)
(1.16559e-14 -6.05626e-15 0)
(1.38808e-14 -6.61242e-15 0)
(1.70255e-14 -6.92234e-15 0)
(1.85184e-14 -6.94684e-15 0)
(1.79786e-14 -7.11558e-15 0)
(1.71217e-14 -6.97055e-15 0)
(1.64923e-14 -6.40169e-15 0)
(1.59564e-14 -5.52129e-15 0)
(1.52545e-14 -5.12118e-15 0)
(1.45127e-14 -4.27465e-15 0)
(1.4357e-14 -2.89468e-15 0)
(1.49439e-14 -7.16301e-16 0)
(1.58942e-14 -5.53219e-16 0)
(1.73147e-14 -8.71156e-16 0)
(2.11145e-14 -1.50819e-15 0)
(2.6329e-14 -1.40247e-15 0)
(3.14161e-14 -6.45733e-16 0)
(3.65765e-14 1.82994e-16 0)
(4.14364e-14 9.55355e-16 0)
(4.61079e-14 2.62128e-15 0)
(4.98204e-14 3.89551e-15 0)
(5.26511e-14 5.31616e-15 0)
(5.55158e-14 7.0813e-15 0)
(5.909e-14 8.51025e-15 0)
(6.34013e-14 1.00285e-14 0)
(6.70683e-14 1.20586e-14 0)
(7.07861e-14 1.44972e-14 0)
(7.44342e-14 1.6997e-14 0)
(7.83621e-14 1.94964e-14 0)
(8.31963e-14 2.20684e-14 0)
(8.8313e-14 2.3762e-14 0)
(9.39437e-14 2.40891e-14 0)
(1.00564e-13 2.41823e-14 0)
(1.08115e-13 2.37223e-14 0)
(1.16106e-13 2.41854e-14 0)
(1.24098e-13 2.52151e-14 0)
(1.31176e-13 2.60675e-14 0)
(1.36636e-13 2.75018e-14 0)
(1.41174e-13 2.84432e-14 0)
(1.46956e-13 2.99504e-14 0)
(1.53899e-13 3.07904e-14 0)
(1.59864e-13 3.10941e-14 0)
(1.63692e-13 3.18136e-14 0)
(1.65797e-13 3.254e-14 0)
(1.67632e-13 3.35329e-14 0)
(1.70521e-13 3.49247e-14 0)
(1.74207e-13 3.64248e-14 0)
(1.77756e-13 3.72956e-14 0)
(1.80561e-13 3.81329e-14 0)
(1.82467e-13 3.8189e-14 0)
(1.84183e-13 3.81219e-14 0)
(1.86756e-13 3.79869e-14 0)
(1.89739e-13 3.78788e-14 0)
(1.92298e-13 3.78743e-14 0)
(1.94175e-13 3.76367e-14 0)
(1.94836e-13 3.80401e-14 0)
(1.95706e-13 3.77988e-14 0)
(1.98085e-13 3.78983e-14 0)
(2.00711e-13 3.85371e-14 0)
(2.025e-13 3.98908e-14 0)
(2.04089e-13 4.16958e-14 0)
(2.05572e-13 4.37221e-14 0)
(2.06432e-13 4.49099e-14 0)
(2.06571e-13 4.56989e-14 0)
(2.06082e-13 4.70025e-14 0)
(2.0545e-13 4.8242e-14 0)
(2.04579e-13 4.83029e-14 0)
(2.03954e-13 4.74594e-14 0)
(2.03847e-13 4.69782e-14 0)
(2.0359e-13 4.76444e-14 0)
(2.02027e-13 4.83421e-14 0)
(1.98568e-13 4.91517e-14 0)
(1.93026e-13 4.99786e-14 0)
(1.87285e-13 5.05293e-14 0)
(1.8302e-13 5.05988e-14 0)
(1.79523e-13 5.02689e-14 0)
(1.76888e-13 4.87341e-14 0)
(1.75213e-13 4.61618e-14 0)
(1.7386e-13 4.31565e-14 0)
(1.71731e-13 3.98578e-14 0)
(1.67974e-13 3.66767e-14 0)
(1.62731e-13 3.29332e-14 0)
(1.57302e-13 2.94595e-14 0)
(1.51537e-13 2.59509e-14 0)
(1.4352e-13 2.2588e-14 0)
(1.3419e-13 1.9144e-14 0)
(1.23552e-13 1.56507e-14 0)
(1.10111e-13 1.29612e-14 0)
(9.43406e-14 9.76612e-15 0)
(7.763e-14 6.21412e-15 0)
(5.98656e-14 3.4975e-15 0)
(3.87938e-14 1.77291e-15 0)
(1.42806e-14 8.0055e-16 0)
(-1.34907e-16 -8.90714e-16 0)
(8.17734e-16 -2.01115e-15 0)
(2.96778e-15 -2.48151e-15 0)
(5.83722e-15 -2.82462e-15 0)
(9.23589e-15 -3.95448e-15 0)
(1.1667e-14 -5.44605e-15 0)
(1.24189e-14 -6.53384e-15 0)
(1.253e-14 -6.19167e-15 0)
(1.44873e-14 -6.1672e-15 0)
(1.80047e-14 -6.64915e-15 0)
(1.98593e-14 -6.89104e-15 0)
(1.94393e-14 -6.70054e-15 0)
(1.87538e-14 -5.89622e-15 0)
(1.81122e-14 -5.18843e-15 0)
(1.72798e-14 -4.55227e-15 0)
(1.67241e-14 -4.41542e-15 0)
(1.67251e-14 -3.69899e-15 0)
(1.72031e-14 -2.30366e-15 0)
(1.71091e-14 -9.58828e-16 0)
(1.70584e-14 -1.08782e-15 0)
(1.86716e-14 -1.37275e-15 0)
(2.30984e-14 -1.2144e-15 0)
(2.91161e-14 -4.56676e-16 0)
(3.45233e-14 5.39868e-16 0)
(3.99422e-14 9.65801e-16 0)
(4.55443e-14 2.51622e-15 0)
(5.04415e-14 4.25726e-15 0)
(5.42156e-14 5.53845e-15 0)
(5.76902e-14 7.02525e-15 0)
(6.0826e-14 9.05759e-15 0)
(6.43775e-14 1.06326e-14 0)
(6.92532e-14 1.1845e-14 0)
(7.38751e-14 1.34092e-14 0)
(7.79885e-14 1.61387e-14 0)
(8.18127e-14 1.84945e-14 0)
(8.61853e-14 2.10708e-14 0)
(9.12304e-14 2.30363e-14 0)
(9.61477e-14 2.49481e-14 0)
(1.01745e-13 2.57465e-14 0)
(1.08662e-13 2.60813e-14 0)
(1.16776e-13 2.6396e-14 0)
(1.2581e-13 2.68026e-14 0)
(1.34602e-13 2.78218e-14 0)
(1.42289e-13 2.91723e-14 0)
(1.48059e-13 3.03317e-14 0)
(1.53142e-13 3.16167e-14 0)
(1.59465e-13 3.35674e-14 0)
(1.66184e-13 3.45437e-14 0)
(1.72343e-13 3.48819e-14 0)
(1.76769e-13 3.56974e-14 0)
(1.79558e-13 3.67201e-14 0)
(1.81902e-13 3.83535e-14 0)
(1.84928e-13 3.95817e-14 0)
(1.88664e-13 4.08494e-14 0)
(1.9241e-13 4.15833e-14 0)
(1.95276e-13 4.25818e-14 0)
(1.97116e-13 4.27514e-14 0)
(1.99084e-13 4.28611e-14 0)
(2.01775e-13 4.29311e-14 0)
(2.04852e-13 4.27519e-14 0)
(2.07473e-13 4.25372e-14 0)
(2.09706e-13 4.21128e-14 0)
(2.10556e-13 4.20543e-14 0)
(2.11409e-13 4.25501e-14 0)
(2.14079e-13 4.31071e-14 0)
(2.17312e-13 4.35541e-14 0)
(2.19815e-13 4.42737e-14 0)
(2.21815e-13 4.59069e-14 0)
(2.23148e-13 4.78428e-14 0)
(2.23497e-13 4.92493e-14 0)
(2.23675e-13 4.99374e-14 0)
(2.23388e-13 5.12144e-14 0)
(2.22311e-13 5.20246e-14 0)
(2.20704e-13 5.18035e-14 0)
(2.19944e-13 5.12495e-14 0)
(2.20331e-13 5.08285e-14 0)
(2.203e-13 5.16234e-14 0)
(2.18602e-13 5.21032e-14 0)
(2.15068e-13 5.26734e-14 0)
(2.09406e-13 5.35228e-14 0)
(2.03329e-13 5.43023e-14 0)
(1.98565e-13 5.45145e-14 0)
(1.9428e-13 5.38991e-14 0)
(1.90536e-13 5.23415e-14 0)
(1.88026e-13 4.9759e-14 0)
(1.8615e-13 4.68822e-14 0)
(1.83822e-13 4.33933e-14 0)
(1.79577e-13 4.00158e-14 0)
(1.73675e-13 3.62364e-14 0)
(1.67803e-13 3.23712e-14 0)
(1.61409e-13 2.88685e-14 0)
(1.52757e-13 2.51089e-14 0)
(1.42585e-13 2.18725e-14 0)
(1.31083e-13 1.78967e-14 0)
(1.16625e-13 1.42157e-14 0)
(9.95076e-14 1.04306e-14 0)
(8.17672e-14 6.9856e-15 0)
(6.31756e-14 4.02207e-15 0)
(4.12374e-14 2.04517e-15 0)
(1.51385e-14 8.71654e-16 0)
(4.98538e-18 -6.39668e-16 0)
(9.84837e-16 -1.46579e-15 0)
(3.3444e-15 -2.50554e-15 0)
(6.33135e-15 -2.86702e-15 0)
(9.05981e-15 -3.5901e-15 0)
(1.13136e-14 -4.95673e-15 0)
(1.29957e-14 -6.02385e-15 0)
(1.38493e-14 -5.92174e-15 0)
(1.5567e-14 -5.37775e-15 0)
(1.85989e-14 -5.5897e-15 0)
(2.06454e-14 -6.40346e-15 0)
(2.09073e-14 -6.03503e-15 0)
(2.04406e-14 -5.03403e-15 0)
(1.96869e-14 -4.46914e-15 0)
(1.8739e-14 -3.90377e-15 0)
(1.81341e-14 -3.27657e-15 0)
(1.84049e-14 -2.36647e-15 0)
(1.88608e-14 -1.67951e-15 0)
(1.85458e-14 -1.5581e-15 0)
(1.85869e-14 -1.36134e-15 0)
(2.05728e-14 -1.25866e-15 0)
(2.55474e-14 -3.21333e-17 0)
(3.18266e-14 1.34116e-15 0)
(3.7144e-14 2.41856e-15 0)
(4.31989e-14 2.6446e-15 0)
(4.9517e-14 3.71482e-15 0)
(5.44827e-14 5.23845e-15 0)
(5.85052e-14 6.87676e-15 0)
(6.23982e-14 8.84833e-15 0)
(6.58599e-14 1.08324e-14 0)
(6.93914e-14 1.2702e-14 0)
(7.42857e-14 1.38878e-14 0)
(7.9692e-14 1.48184e-14 0)
(8.46548e-14 1.69074e-14 0)
(8.89025e-14 1.95292e-14 0)
(9.33167e-14 2.21983e-14 0)
(9.85044e-14 2.39778e-14 0)
(1.03672e-13 2.59108e-14 0)