/*--------------------------------*- C++ -*----------------------------------*\
| =========                 |                                                 |
| \\      /  F ield         | OpenFOAM: The Open Source CFD Toolbox           |
|  \\    /   O peration     | Version:  v2012                                 |
|   \\  /    A nd           | Website:  www.openfoam.com                      |
|    \\/     M anipulation  |                                                 |
\*---------------------------------------------------------------------------*/
FoamFile
{
    version     2.0;
    format      ascii;
    class       volVectorField;
    location    "0";
    object      uRec;
}
// * * * * * * * * * * * * * * * * * * * * * * * * * * * * * * * * * * * * * //

dimensions      [0 1 -1 0 0 0 0];


internalField   nonuniform List<vector> 
4000
(
(1 -4.5331e-17 0)
(1 1.41662e-15 0)
(1 -2.26962e-17 0)
(1 2.02959e-16 0)
(1 -1.83358e-17 0)
(1 -7.83912e-16 0)
(1 4.95499e-16 0)
(1 5.0464e-16 0)
(1 3.6978e-16 0)
(1 5.07243e-17 0)
(1 -7.3737e-17 0)
(1 2.33746e-16 0)
(1 7.04792e-16 0)
(1 4.38111e-16 0)
(1 8.65038e-16 0)
(1 -6.80882e-16 0)
(1 -1.12703e-15 0)
(1 -4.01883e-16 0)
(1 1.19838e-16 0)
(1 -1.7454e-16 0)
(1 -3.04449e-16 0)
(1 -7.64329e-16 0)
(1 4.26113e-16 0)
(1 -6.74219e-17 0)
(1 8.80943e-16 0)
(1 -1.34125e-16 0)
(1 8.0104e-16 0)
(1 2.81403e-16 0)
(1 6.50874e-16 0)
(1 6.77666e-16 0)
(1 1.07314e-16 0)
(1 -1.04753e-15 0)
(1 -7.36364e-16 0)
(1 -4.44348e-16 0)
(1 1.00963e-16 0)
(1 2.11192e-16 0)
(1 1.2633e-15 0)
(1 8.55532e-16 0)
(1 8.95328e-16 0)
(1 -1.44148e-16 0)
(1 -4.26227e-16 0)
(1 -1.03672e-15 0)
(1 -1.80875e-16 0)
(1 2.54926e-16 0)
(1 7.07449e-16 0)
(1 5.75297e-17 0)
(1 4.27296e-16 0)
(1 1.81881e-16 0)
(1 -2.85433e-16 0)
(1 7.40261e-16 0)
(1 2.60648e-16 0)
(1 9.46168e-16 0)
(1 4.79531e-16 0)
(1 8.15143e-16 0)
(1 5.58481e-16 0)
(1 -2.64263e-16 0)
(1 -2.14852e-16 0)
(1 2.87742e-16 0)
(1 7.84614e-16 0)
(1 1.31118e-15 0)
(1 4.60784e-16 0)
(1 1.40297e-16 0)
(1 5.05048e-16 0)
(1 1.31234e-16 0)
(1 -2.30879e-16 0)
(1 3.67001e-17 0)
(1 -5.1359e-17 0)
(1 7.52658e-16 0)
(1 -1.41532e-16 0)
(1 -3.63843e-16 0)
(1 -6.71109e-16 0)
(1 -1.48048e-16 0)
(1 -4.20441e-16 0)
(1 -4.34698e-16 0)
(1 -8.06265e-16 0)
(1 -3.96706e-16 0)
(1 -3.15337e-16 0)
(1 5.84789e-17 0)
(1 1.14782e-16 0)
(1 3.09913e-16 0)
(1 7.41664e-16 0)
(1 5.8639e-16 0)
(1 -1.69065e-16 0)
(1 -1.08322e-16 0)
(1 -7.74928e-16 0)
(1 -1.73301e-16 0)
(1 3.53536e-17 0)
(1 9.34824e-17 0)
(1 1.01272e-15 0)
(1 9.66975e-16 0)
(1 -4.8031e-17 0)
(1 3.65173e-16 0)
(1 -3.40006e-16 0)
(1 -1.78701e-19 0)
(1 -4.48982e-16 0)
(1 -3.09633e-16 0)
(1 -2.85616e-16 0)
(1 -3.01173e-17 0)
(1 2.85207e-17 0)
(1 -8.46613e-17 0)
(1 1.30958e-16 0)
(1 1.49649e-15 0)
(1 2.63128e-16 0)
(1 9.08248e-17 0)
(1 3.44997e-16 0)
(1 -7.22257e-16 0)
(1 5.38798e-16 0)
(1 9.00449e-16 0)
(1 1.04705e-15 0)
(1 2.2591e-16 0)
(1 3.98153e-16 0)
(1 3.79394e-16 0)
(1 1.31131e-15 0)
(1 1.10208e-15 0)
(1 1.53844e-15 0)
(1 -5.33059e-16 0)
(1 -1.31684e-15 0)
(1 1.4397e-16 0)
(1 5.13916e-16 0)
(1 3.23397e-16 0)
(1 -2.75188e-16 0)
(1 -9.62144e-16 0)
(1 6.59017e-16 0)
(1 -1.70026e-16 0)
(1 1.01187e-15 0)
(1 -6.01506e-16 0)
(1 5.18595e-16 0)
(1 -1.51862e-16 0)
(1 9.09124e-16 0)
(1 8.55078e-16 0)
(1 6.05066e-16 0)
(1 9.45723e-17 0)
(1 -3.53912e-16 0)
(1 -6.50427e-16 0)
(1 -1.16482e-17 0)
(1 2.14877e-16 0)
(1 1.45204e-15 0)
(1 1.22412e-15 0)
(1 4.6998e-16 0)
(1 -2.84595e-16 0)
(1 -8.29121e-16 0)
(1 -7.15484e-16 0)
(1 -9.35819e-17 0)
(1 5.45638e-16 0)
(1 1.41789e-15 0)
(1 1.05109e-16 0)
(1 1.03554e-15 0)
(1 8.17817e-16 0)
(1 1.09632e-15 0)
(1 3.55361e-16 0)
(1 -5.00818e-17 0)
(1 6.24645e-16 0)
(1 1.56308e-15 0)
(1 1.22783e-15 0)
(1 1.41082e-15 0)
(1 1.17655e-15 0)
(1 8.24754e-16 0)
(1 1.52518e-15 0)
(1 5.16158e-16 0)
(1 5.02929e-16 0)
(1 -3.61993e-16 0)
(1 -4.90215e-18 0)
(1 1.10265e-15 0)
(1 8.66016e-16 0)
(1 2.83484e-16 0)
(1 1.27611e-16 0)
(1 -5.11133e-16 0)
(1 4.19612e-16 0)
(1 -1.35287e-16 0)
(1 -4.20201e-16 0)
(1 1.56867e-16 0)
(1 2.60037e-16 0)
(1 7.76009e-16 0)
(1 2.52876e-17 0)
(1 7.11406e-16 0)
(1 3.81482e-17 0)
(1 1.65569e-16 0)
(1 7.33647e-16 0)
(1 9.5489e-16 0)
(1 7.64831e-16 0)
(1 7.69698e-16 0)
(1 2.03362e-17 0)
(1 1.19747e-16 0)
(1 1.59873e-16 0)
(1 -1.23536e-17 0)
(1 4.02405e-16 0)
(1 4.36068e-17 0)
(1 -3.14698e-16 0)
(1 2.22554e-16 0)
(1 6.05671e-16 0)
(1 1.11481e-16 0)
(1 2.36445e-16 0)
(1 -2.15323e-16 0)
(1 2.10903e-16 0)
(1 -7.46607e-16 0)
(1 1.92503e-16 0)
(1 -2.91307e-16 0)
(1 4.92282e-16 0)
(1 -4.36473e-16 0)
(1 -7.33543e-16 0)
(1 1.0917e-17 0)
(1 -5.10542e-18 0)
(1 1.17059e-16 0)
(1 7.32385e-17 0)
(1 8.84548e-16 0)
(1 9.89366e-16 0)
(1 1.45057e-15 0)
(1 1.93168e-15 0)
(1 1.19193e-15 0)
(1 5.37903e-16 0)
(1 9.39329e-16 0)
(1 9.20274e-16 0)
(1 1.98432e-15 0)
(1 2.28375e-15 0)
(1 8.09053e-16 0)
(1 -2.07434e-16 0)
(1 -1.93994e-16 0)
(1 1.1293e-16 0)
(1 7.09857e-16 0)
(1 1.30281e-15 0)
(1 5.57267e-17 0)
(1 4.59104e-16 0)
(1 3.77698e-18 0)
(1 5.72231e-16 0)
(1 5.83784e-16 0)
(1 7.08394e-16 0)
(1 1.06727e-15 0)
(1 5.02444e-16 0)
(1 1.81947e-15 0)
(1 1.12238e-15 0)
(1 1.52732e-15 0)
(1 3.10448e-16 0)
(1 3.76135e-16 0)
(1 -3.10755e-16 0)
(1 -2.04472e-16 0)
(1 -3.74747e-16 0)
(1 -4.82218e-16 0)
(1 2.89689e-16 0)
(1 1.95461e-16 0)
(1 -1.7421e-16 0)
(1 -1.06965e-16 0)
(1 -5.24617e-17 0)
(1 -3.36554e-17 0)
(1 1.39785e-16 0)
(1 1.06795e-15 0)
(1 1.39408e-15 0)
(1 1.58406e-15 0)
(1 1.7828e-15 0)
(1 1.86257e-15 0)
(1 9.54128e-16 0)
(1 1.52818e-15 0)
(1 1.26619e-15 0)
(1 2.20925e-15 0)
(1 9.94233e-16 0)
(1 1.72839e-15 0)
(1 1.99726e-15 0)
(1 1.77052e-15 0)
(1 1.53103e-15 0)
(1 8.44353e-16 0)
(1 2.64567e-16 0)
(1 5.84869e-16 0)
(1 4.55815e-16 0)
(1 1.34282e-15 0)
(1 7.72818e-16 0)
(1 8.17754e-16 0)
(1 4.45417e-16 0)
(1 2.64212e-16 0)
(1 2.35067e-16 0)
(1 3.17474e-16 0)
(1 2.32846e-16 0)
(1 1.69432e-16 0)
(1 4.23e-17 0)
(1 4.35194e-16 0)
(1 1.13338e-16 0)
(1 2.67157e-16 0)
(1 7.76494e-17 0)
(1 -1.84771e-16 0)
(1 5.7564e-16 0)
(1 7.36239e-16 0)
(1 5.29553e-16 0)
(1 9.76775e-17 0)
(1 -4.04111e-16 0)
(1 3.45199e-16 0)
(1 9.93938e-17 0)
(1 9.67831e-16 0)
(1 4.3214e-16 0)
(1 1.83846e-16 0)
(1 -1.79342e-16 0)
(1 -4.13447e-16 0)
(1 1.85612e-16 0)
(1 -3.87407e-17 0)
(1 3.75137e-16 0)
(1 3.03063e-17 0)
(1 7.35615e-16 0)
(1 2.66554e-19 0)
(1 1.07018e-16 0)
(1 -3.1981e-16 0)
(1 -5.03452e-17 0)
(1 -4.61344e-16 0)
(1 -5.08229e-16 0)
(1 4.99853e-16 0)
(1 -6.52162e-16 0)
(1 2.59229e-16 0)
(1 -5.45647e-16 0)
(1 1.34622e-15 0)
(1 1.34783e-15 0)
(1 2.2299e-15 0)
(1 1.68441e-15 0)
(1 1.01101e-15 0)
(1 9.53113e-16 0)
(1 1.86018e-15 0)
(1 2.24963e-15 0)
(1 2.41318e-15 0)
(1 2.44986e-15 0)
(1 1.9363e-15 0)
(1 9.05787e-16 0)
(1 6.19634e-16 0)
(1 -1.25645e-15 0)
(1 -4.67387e-16 0)
(1 1.23842e-15 0)
(1 9.37687e-16 0)
(1 1.23472e-15 0)
(1 9.25587e-16 0)
(1 1.65838e-15 0)
(1 1.31103e-15 0)
(1 2.51166e-15 0)
(1 1.63343e-15 0)
(1 1.60346e-15 0)
(1 1.77551e-15 0)
(1 1.11941e-15 0)
(1 8.00228e-16 0)
(1 -7.26479e-16 0)
(1 -2.00999e-16 0)
(1 -4.74665e-17 0)
(1 5.51529e-16 0)
(1 -1.52497e-16 0)
(1 -6.62492e-17 0)
(1 -1.83986e-16 0)
(1 1.13797e-15 0)
(1 2.13651e-16 0)
(1 1.12343e-15 0)
(1 1.02488e-16 0)
(1 3.95817e-16 0)
(1 5.77606e-17 0)
(1 7.51056e-16 0)
(1 2.71581e-15 0)
(1 2.5558e-15 0)
(1 2.66876e-15 0)
(1 2.24056e-15 0)
(1 2.57789e-15 0)
(1 2.40034e-15 0)
(1 1.93955e-15 0)
(1 1.60558e-15 0)
(1 1.65762e-15 0)
(1 1.86481e-15 0)
(1 1.60322e-15 0)
(1 1.64992e-15 0)
(1 1.56968e-15 0)
(1 1.39826e-15 0)
(1 1.46678e-15 0)
(1 1.84298e-15 0)
(1 1.48671e-15 0)
(1 1.36017e-15 0)
(1 1.39478e-15 0)
(1 1.0347e-15 0)
(1 9.10115e-16 0)
(1 2.84008e-16 0)
(1 9.05915e-17 0)
(1 -4.23021e-16 0)
(1 -3.74382e-16 0)
(1 -2.74808e-16 0)
(1 4.70486e-16 0)
(1 1.15804e-16 0)
(1 3.61336e-17 0)
(1 -4.29646e-16 0)
(1 -1.31242e-16 0)
(1 8.88599e-16 0)
(1 6.5649e-16 0)
(1 6.96444e-16 0)
(1 5.05436e-16 0)
(1 8.15065e-16 0)
(1 6.77076e-16 0)
(1 3.16437e-16 0)
(1 1.96706e-16 0)
(1 7.35444e-16 0)
(1 7.27867e-16 0)
(1 1.37811e-15 0)
(1 8.52506e-16 0)
(1 9.97576e-16 0)
(1 9.13623e-16 0)
(1 6.9433e-17 0)
(1 4.25659e-16 0)
(1 3.87936e-16 0)
(1 6.48643e-16 0)
(1 2.59726e-16 0)
(1 -2.75923e-16 0)
(1 -1.1193e-15 0)
(1 -1.12177e-15 0)
(1 -9.26832e-16 0)
(1 -7.62433e-17 0)
(1 8.48355e-16 0)
(1 1.85041e-16 0)
(1 4.40535e-16 0)
(1 -1.41298e-16 0)
(1 1.67171e-15 0)
(1 1.37386e-15 0)
(1 1.26224e-15 0)
(1 1.00716e-15 0)
(1 1.38894e-15 0)
(1 1.42709e-15 0)
(1 2.75523e-15 0)
(1 2.38576e-15 0)
(1 2.24112e-15 0)
(1 3.49575e-16 0)
(1 2.81756e-15 0)
(1 1.82209e-15 0)
(1 1.57245e-15 0)
(1 1.43671e-16 0)
(1 -8.42067e-17 0)
(1 -6.68398e-16 0)
(1 1.02435e-15 0)
(1 7.48086e-16 0)
(1 1.78144e-15 0)
(1 2.09686e-15 0)
(1 2.4352e-15 0)
(1 1.88718e-15 0)
(1 1.44266e-15 0)
(1 1.52784e-15 0)
(1 1.56595e-15 0)
(1 7.16062e-16 0)
(1 7.66267e-16 0)
(1 1.28466e-15 0)
(1 4.20033e-16 0)
(1 4.60582e-16 0)
(1 -1.10126e-15 0)
(1 -1.02975e-15 0)
(1 -6.37299e-16 0)
(1 -7.19581e-16 0)
(1 -3.12191e-16 0)
(1 4.1204e-16 0)
(1 6.80682e-16 0)
(1 5.00921e-16 0)
(1 7.43881e-16 0)
(1 1.31833e-15 0)
(1 1.24322e-15 0)
(1 2.43634e-15 0)
(1 2.82554e-15 0)
(1 3.65864e-15 0)
(1 3.0468e-15 0)
(1 2.54503e-15 0)
(1 2.05051e-15 0)
(1 1.84929e-15 0)
(1 1.41739e-15 0)
(1 2.53766e-15 0)
(1 2.61555e-15 0)
(1 2.91978e-15 0)
(1 2.72537e-15 0)
(1 2.20525e-15 0)
(1 1.46532e-15 0)
(1 1.35828e-15 0)
(1 1.47661e-15 0)
(1 1.70112e-15 0)
(1 1.82839e-15 0)
(1 2.17729e-15 0)
(1 2.22055e-15 0)
(1 1.40745e-15 0)
(1 7.23622e-16 0)
(1 -1.92105e-17 0)
(1 2.08141e-16 0)
(1 1.21703e-16 0)
(1 2.00461e-16 0)
(1 7.7294e-16 0)
(1 9.78202e-16 0)
(1 4.17124e-16 0)
(1 8.11455e-16 0)
(1 1.73197e-16 0)
(1 1.31754e-15 0)
(1 1.49735e-15 0)
(1 1.72567e-15 0)
(1 9.86372e-16 0)
(1 6.92045e-16 0)
(1 4.95369e-16 0)
(1 4.89508e-16 0)
(1 8.58668e-16 0)
(1 1.01244e-15 0)
(1 9.89162e-16 0)
(1 1.04654e-15 0)
(1 4.21326e-16 0)
(1 5.9406e-16 0)
(1 1.89406e-16 0)
(1 7.85861e-16 0)
(1 -2.3802e-16 0)
(1 7.92203e-16 0)
(1 4.04746e-16 0)
(1 5.44889e-16 0)
(1 1.11947e-16 0)
(1 -2.81503e-16 0)
(1 -2.39176e-16 0)
(1 -3.31535e-16 0)
(1 3.77896e-16 0)
(1 -8.70505e-17 0)
(1 5.81395e-16 0)
(1 3.84514e-16 0)
(1 1.54042e-15 0)
(1 1.02352e-15 0)
(1 1.1707e-15 0)
(1 8.87009e-16 0)
(1 9.95646e-16 0)
(1 2.1869e-15 0)
(1 2.41593e-15 0)
(1 2.84715e-15 0)
(1 3.04556e-15 0)
(1 2.23168e-15 0)
(1 1.06425e-15 0)
(1 2.23251e-15 0)
(1 1.62137e-15 0)
(1 1.63432e-15 0)
(1 1.152e-15 0)
(1 8.21627e-16 0)
(1 -9.50606e-17 0)
(1 1.79381e-15 0)
(1 2.401e-15 0)
(1 2.27227e-15 0)
(1 1.23491e-15 0)
(1 8.9209e-16 0)
(1 7.89619e-16 0)
(1 1.13914e-15 0)
(1 1.49601e-15 0)
(1 1.82433e-15 0)
(1 2.38748e-15 0)
(1 6.93699e-16 0)
(1 1.27373e-15 0)
(1 2.01371e-16 0)
(1 2.10088e-16 0)
(1 -1.20157e-15 0)
(1 5.70908e-16 0)
(1 -5.37881e-17 0)
(1 1.0595e-15 0)
(1 -3.84539e-16 0)
(1 5.16039e-16 0)
(1 3.0902e-16 0)
(1 1.34719e-15 0)
(1 1.5447e-15 0)
(1 2.77319e-15 0)
(1 2.50413e-15 0)
(1 1.70289e-15 0)
(1 1.80165e-15 0)
(1 2.70356e-15 0)
(1 3.4257e-15 0)
(1 3.70797e-15 0)
(1 3.52315e-15 0)
(1 2.97622e-15 0)
(1 2.38765e-15 0)
(1 2.67121e-15 0)
(1 3.03353e-15 0)
(1 2.79481e-15 0)
(1 2.86428e-15 0)
(1 2.38538e-15 0)
(1 3.0451e-15 0)
(1 3.40938e-15 0)
(1 3.10264e-15 0)
(1 1.92099e-15 0)
(1 1.3844e-15 0)
(1 1.5844e-15 0)
(1 2.3016e-15 0)
(1 2.22035e-15 0)
(1 2.60283e-15 0)
(1 2.3062e-15 0)
(1 2.79029e-15 0)
(1 2.78926e-15 0)
(1 1.7145e-15 0)
(1 4.152e-16 0)
(1 5.85283e-16 0)
(1 2.04827e-16 0)
(1 -4.95292e-16 0)
(1 -7.27201e-16 0)
(1 -1.93649e-16 0)
(1 1.38656e-15 0)
(1 1.62919e-15 0)
(1 1.79631e-15 0)
(1 8.94824e-16 0)
(1 1.66976e-15 0)
(1 1.1178e-15 0)
(1 7.16366e-16 0)
(1 1.04456e-16 0)
(1 3.76562e-16 0)
(1 4.9717e-16 0)
(1 2.04079e-16 0)
(1 -5.12375e-17 0)
(1 4.10903e-16 0)
(1 2.41324e-16 0)
(1 7.01818e-16 0)
(1 8.75034e-16 0)
(1 1.14429e-15 0)
(1 1.26378e-15 0)
(1 5.3854e-16 0)
(1 1.21731e-15 0)
(1 7.18262e-16 0)
(1 1.57845e-15 0)
(1 1.33861e-15 0)
(1 -4.15008e-16 0)
(1 5.20621e-16 0)
(1 1.27928e-15 0)
(1 2.25091e-15 0)
(1 1.62475e-15 0)
(1 7.84575e-16 0)
(1 5.84561e-16 0)
(1 1.03363e-15 0)
(1 2.57871e-15 0)
(1 2.34591e-15 0)
(1 2.71544e-15 0)
(1 2.18956e-15 0)
(1 1.92044e-15 0)
(1 2.7299e-15 0)
(1 1.92961e-15 0)
(1 2.31561e-15 0)
(1 2.74889e-15 0)
(1 1.4209e-15 0)
(1 1.99987e-15 0)
(1 2.40707e-15 0)
(1 2.21824e-15 0)
(1 1.39863e-15 0)
(1 1.348e-15 0)
(1 1.12538e-15 0)
(1 -2.8075e-16 0)
(1 -1.13889e-16 0)
(1 2.77122e-16 0)
(1 9.18769e-16 0)
(1 1.80074e-15 0)
(1 2.34701e-15 0)
(1 1.88849e-15 0)
(1 1.05763e-15 0)
(1 2.12506e-16 0)
(1 -8.81057e-16 0)
(1 1.72464e-17 0)
(1 1.03044e-15 0)
(1 1.42028e-15 0)
(1 1.19286e-15 0)
(1 8.03922e-16 0)
(1 2.49671e-16 0)
(1 8.19652e-16 0)
(1 1.63764e-15 0)
(1 3.10738e-15 0)
(1 3.43148e-15 0)
(1 2.00404e-15 0)
(1 1.56237e-15 0)
(1 1.5147e-15 0)
(1 2.46159e-15 0)
(1 3.50645e-15 0)
(1 4.07341e-15 0)
(1 4.12065e-15 0)
(1 2.64128e-15 0)
(1 3.11305e-15 0)
(1 2.7553e-15 0)
(1 3.03994e-15 0)
(1 3.05423e-15 0)
(1 2.7808e-15 0)
(1 2.73903e-15 0)
(1 2.82923e-15 0)
(1 3.32907e-15 0)
(1 3.32005e-15 0)
(1 3.29527e-15 0)
(1 2.56217e-15 0)
(1 2.2477e-15 0)
(1 1.46018e-15 0)
(1 1.51399e-15 0)
(1 1.22135e-15 0)
(1 1.87975e-15 0)
(1 1.67843e-15 0)
(1 1.26595e-15 0)
(1 1.77925e-15 0)
(1 7.19325e-16 0)
(1 2.53414e-16 0)
(1 8.93883e-16 0)
(1 1.22298e-15 0)
(1 1.49634e-15 0)
(1 1.89059e-15 0)
(1 1.81552e-15 0)
(1 1.62629e-15 0)
(1 1.45347e-15 0)
(1 1.7356e-15 0)
(1 1.68151e-15 0)
(1 1.34962e-15 0)
(1 1.10564e-15 0)
(1 7.18333e-16 0)
(1 1.23601e-15 0)
(1 1.37468e-15 0)
(1 1.33933e-15 0)
(1 7.92928e-16 0)
(1 1.20396e-15 0)
(1 7.49714e-16 0)
(1 1.93894e-15 0)
(1 1.20556e-15 0)
(1 1.51507e-15 0)
(1 1.14493e-15 0)
(1 1.45547e-15 0)
(1 1.40883e-15 0)
(1 1.52115e-15 0)
(1 1.52202e-15 0)
(1 1.38297e-15 0)
(1 -1.40141e-16 0)
(1 6.81178e-16 0)
(1 7.43936e-16 0)
(1 1.52564e-15 0)
(1 1.67538e-15 0)
(1 1.9049e-15 0)
(1 1.42154e-15 0)
(1 1.66918e-15 0)
(1 2.00236e-15 0)
(1 1.97035e-15 0)
(1 1.91971e-15 0)
(1 9.734e-16 0)
(1 2.36468e-15 0)
(1 3.78489e-15 0)
(1 2.70693e-15 0)
(1 3.25615e-15 0)
(1 2.65159e-15 0)
(1 3.03059e-15 0)
(1 3.51569e-15 0)
(1 1.57088e-15 0)
(1 4.05845e-16 0)
(1 -3.98271e-16 0)
(1 -9.99505e-16 0)
(1 9.15647e-17 0)
(1 3.7873e-16 0)
(1 6.87212e-16 0)
(1 9.09918e-16 0)
(1 1.53669e-15 0)
(1 1.38743e-15 0)
(1 5.25105e-16 0)
(1 2.0479e-15 0)
(1 5.98415e-16 0)
(1 1.50812e-16 0)
(1 4.23333e-16 0)
(1 1.32392e-15 0)
(1 -1.53181e-16 0)
(1 9.60503e-16 0)
(1 1.14549e-16 0)
(1 1.15653e-15 0)
(1 5.76055e-16 0)
(1 1.41103e-15 0)
(1 8.49231e-16 0)
(1 2.08384e-15 0)
(1 2.59975e-15 0)
(1 2.94619e-15 0)
(1 3.60993e-15 0)
(1 3.1923e-15 0)
(1 3.80753e-15 0)
(1 3.0262e-15 0)
(1 3.41453e-15 0)
(1 3.85398e-15 0)
(1 3.80093e-15 0)
(1 4.30843e-15 0)
(1 3.98889e-15 0)
(1 3.80177e-15 0)
(1 3.69317e-15 0)
(1 3.74741e-15 0)
(1 2.406e-15 0)
(1 3.13897e-15 0)
(1 2.35043e-15 0)
(1 2.98097e-15 0)
(1 4.17238e-15 0)
(1 4.35062e-15 0)
(1 3.36676e-15 0)
(1 2.11237e-15 0)
(1 2.49855e-15 0)
(1 2.81776e-15 0)
(1 1.59791e-15 0)
(1 1.4889e-15 0)
(1 1.26975e-15 0)
(1 1.96645e-15 0)
(1 2.04248e-15 0)
(1 1.507e-15 0)
(1 1.16377e-15 0)
(1 1.56153e-15 0)
(1 2.68935e-15 0)
(1 2.50011e-15 0)
(1 1.54754e-15 0)
(1 1.22636e-15 0)
(1 9.55214e-16 0)
(1 9.87998e-16 0)
(1 2.06253e-16 0)
(1 6.62561e-16 0)
(1 1.52561e-15 0)
(1 1.13089e-15 0)
(1 1.10842e-15 0)
(1 7.42224e-16 0)
(1 9.15293e-16 0)
(1 9.53221e-16 0)
(1 5.64311e-16 0)
(1 1.05818e-15 0)
(1 1.36306e-15 0)
(1 1.02181e-15 0)
(1 1.21829e-15 0)
(1 1.62314e-15 0)
(1 1.49015e-15 0)
(1 8.872e-16 0)
(1 1.84822e-15 0)
(1 1.62395e-15 0)
(1 2.26276e-15 0)
(1 1.3322e-16 0)
(1 3.61313e-16 0)
(1 9.55338e-16 0)
(1 -2.34019e-16 0)
(1 9.77553e-16 0)
(1 1.90688e-15 0)
(1 2.3343e-15 0)
(1 2.02962e-15 0)
(1 8.02561e-16 0)
(1 2.50292e-15 0)
(1 2.1383e-15 0)
(1 3.04349e-15 0)
(1 3.35464e-15 0)
(1 4.39397e-15 0)
(1 2.98968e-15 0)
(1 3.26373e-15 0)
(1 1.79976e-15 0)
(1 3.33724e-15 0)
(1 2.43481e-15 0)
(1 1.05435e-15 0)
(1 -7.9719e-16 0)
(1 1.34207e-15 0)
(1 5.84054e-16 0)
(1 1.22751e-15 0)
(1 6.48673e-16 0)
(1 4.35654e-16 0)
(1 2.73263e-16 0)
(1 3.33359e-16 0)
(1 -8.88125e-16 0)
(1 5.93543e-16 0)
(1 -6.34167e-16 0)
(1 -5.23247e-17 0)
(1 -2.53428e-16 0)
(1 9.78455e-16 0)
(1 1.48425e-15 0)
(1 1.26288e-15 0)
(1 1.18679e-15 0)
(1 1.39261e-15 0)
(1 1.37502e-15 0)
(1 9.90552e-16 0)
(1 1.08676e-15 0)
(1 2.22622e-15 0)
(1 2.55995e-15 0)
(1 3.16617e-15 0)
(1 5.20063e-15 0)
(1 4.5752e-15 0)
(1 4.1423e-15 0)
(1 2.68517e-15 0)
(1 2.75105e-15 0)
(1 2.45774e-15 0)
(1 3.36402e-15 0)
(1 4.52803e-15 0)
(1 4.26807e-15 0)
(1 4.79455e-15 0)
(1 4.21205e-15 0)
(1 3.53496e-15 0)
(1 4.20112e-15 0)
(1 3.56216e-15 0)
(1 4.5645e-15 0)
(1 3.45445e-15 0)
(1 3.34704e-15 0)
(1 3.4496e-15 0)
(1 1.57783e-15 0)
(1 2.13292e-15 0)
(1 1.78277e-15 0)
(1 3.19668e-15 0)
(1 4.0385e-15 0)
(1 4.70069e-15 0)
(1 4.18213e-15 0)
(1 3.94602e-15 0)
(1 2.82019e-15 0)
(1 2.43834e-15 0)
(1 2.13234e-15 0)
(1 8.52996e-16 0)
(1 -8.36646e-17 0)
(1 1.00608e-15 0)
(1 1.92154e-15 0)
(1 2.01413e-15 0)
(1 1.37349e-15 0)
(1 2.22854e-15 0)
(1 1.52385e-15 0)
(1 2.05914e-15 0)
(1 1.18754e-15 0)
(1 1.23789e-15 0)
(1 2.85267e-16 0)
(1 -2.4171e-16 0)
(1 2.2668e-16 0)
(1 7.21682e-16 0)
(1 1.01182e-15 0)
(1 9.27845e-16 0)
(1 1.11103e-15 0)
(1 1.03028e-15 0)
(1 1.80919e-15 0)
(1 2.13181e-15 0)
(1 2.96008e-15 0)
(1 2.76141e-15 0)
(1 3.05908e-15 0)
(1 3.01699e-15 0)
(1 3.93106e-15 0)
(1 3.82053e-15 0)
(1 4.55537e-16 0)
(1 1.04713e-15 0)
(1 1.91459e-15 0)
(1 1.29667e-15 0)
(1 9.3508e-16 0)
(1 1.42227e-15 0)
(1 2.27335e-15 0)
(1 2.16139e-15 0)
(1 2.29251e-15 0)
(1 3.01595e-15 0)
(1 3.01991e-15 0)
(1 3.76811e-15 0)
(1 3.32648e-15 0)
(1 1.73423e-15 0)
(1 2.11079e-15 0)
(1 1.45766e-15 0)
(1 1.50472e-15 0)
(1 2.65534e-15 0)
(1 1.20866e-15 0)
(1 1.4581e-15 0)
(1 -2.79975e-16 0)
(1 1.62349e-16 0)
(1 1.50533e-15 0)
(1 1.6007e-15 0)
(1 1.77649e-15 0)
(1 1.68652e-15 0)
(1 1.339e-15 0)
(1 -2.01387e-17 0)
(1 -2.88611e-16 0)
(1 -1.17547e-16 0)
(1 -8.14662e-16 0)
(1 7.06358e-16 0)
(1 2.32214e-16 0)
(1 6.38618e-16 0)
(1 -5.79921e-16 0)
(1 5.03123e-16 0)
(1 -2.2875e-16 0)
(1 9.12757e-16 0)
(1 1.90521e-16 0)
(1 1.55304e-15 0)
(1 9.95235e-16 0)
(1 2.98423e-15 0)
(1 2.72806e-15 0)
(1 3.1636e-15 0)
(1 3.53502e-15 0)
(1 2.95794e-15 0)
(1 3.2404e-15 0)
(1 2.42099e-15 0)
(1 3.79998e-15 0)
(1 4.18668e-15 0)
(1 4.67019e-15 0)
(1 4.73208e-15 0)
(1 4.55657e-15 0)
(1 4.52191e-15 0)
(1 4.82587e-15 0)
(1 4.23556e-15 0)
(1 3.78226e-15 0)
(1 3.99614e-15 0)
(1 4.00219e-15 0)
(1 4.52019e-15 0)
(1 4.06425e-15 0)
(1 4.018e-15 0)
(1 4.1645e-15 0)
(1 3.47095e-15 0)
(1 3.63066e-15 0)
(1 2.61756e-15 0)
(1 3.20302e-15 0)
(1 4.01252e-15 0)
(1 4.36773e-15 0)
(1 3.47282e-15 0)
(1 1.9726e-15 0)
(1 2.12841e-15 0)
(1 1.45087e-15 0)
(1 1.04702e-15 0)
(1 8.40482e-16 0)
(1 1.91243e-15 0)
(1 2.8951e-15 0)
(1 2.48678e-15 0)
(1 1.99286e-15 0)
(1 1.942e-15 0)
(1 1.85775e-15 0)
(1 1.50598e-15 0)
(1 6.13282e-16 0)
(1 3.54365e-16 0)
(1 4.17355e-16 0)
(1 2.35291e-16 0)
(1 1.08677e-15 0)
(1 1.01081e-15 0)
(1 1.14096e-15 0)
(1 6.24105e-16 0)
(1 2.11996e-15 0)
(1 9.86674e-16 0)
(1 2.4796e-15 0)
(1 2.07604e-15 0)
(1 3.10292e-15 0)
(1 2.02971e-15 0)
(1 2.56516e-15 0)
(1 3.11003e-15 0)
(1 5.36083e-15 0)
(1 4.33437e-15 0)
(1 2.27406e-16 0)
(1 7.95405e-16 0)
(1 8.29074e-16 0)
(1 1.88477e-15 0)
(1 5.03276e-16 0)
(1 1.61306e-15 0)
(1 1.90982e-15 0)
(1 1.88997e-15 0)
(1 2.97452e-15 0)
(1 2.10811e-15 0)
(1 1.58901e-15 0)
(1 2.64607e-15 0)
(1 2.6268e-15 0)
(1 1.45926e-15 0)
(1 2.41162e-15 0)
(1 1.73294e-15 0)
(1 3.2719e-15 0)
(1 1.90183e-15 0)
(1 2.06662e-15 0)
(1 1.42611e-15 0)
(1 1.0473e-15 0)
(1 8.91344e-16 0)
(1 6.58418e-16 0)
(1 -3.24837e-17 0)
(1 1.63962e-16 0)
(1 1.15543e-15 0)
(1 2.33343e-15 0)
(1 6.74221e-16 0)
(1 5.54958e-16 0)
(1 -1.13296e-15 0)
(1 -1.03823e-15 0)
(1 -4.92818e-16 0)
(1 -2.92136e-16 0)
(1 7.827e-16 0)
(1 8.51641e-16 0)
(1 8.70394e-16 0)
(1 5.41262e-16 0)
(1 2.02479e-16 0)
(1 2.62639e-16 0)
(1 1.36148e-15 0)
(1 2.44755e-15 0)
(1 1.48418e-15 0)
(1 2.32466e-15 0)
(1 1.58123e-15 0)
(1 2.71169e-15 0)
(1 2.60416e-15 0)
(1 3.90801e-15 0)
(1 3.32705e-15 0)
(1 4.69627e-15 0)
(1 5.33205e-15 0)
(1 5.47035e-15 0)
(1 4.90132e-15 0)
(1 5.42411e-15 0)
(1 4.61141e-15 0)
(1 4.97724e-15 0)
(1 4.35606e-15 0)
(1 4.32656e-15 0)
(1 3.61681e-15 0)
(1 4.37853e-15 0)
(1 3.85421e-15 0)
(1 4.81315e-15 0)
(1 3.3497e-15 0)
(1 4.87957e-15 0)
(1 3.15264e-15 0)
(1 3.43728e-15 0)
(1 3.0858e-15 0)
(1 3.55973e-15 0)
(1 2.41603e-15 0)
(1 2.94789e-15 0)
(1 2.63529e-15 0)
(1 3.47124e-15 0)
(1 2.52161e-15 0)
(1 1.41856e-15 0)
(1 6.2976e-16 0)
(1 1.08567e-15 0)
(1 1.71642e-15 0)
(1 2.98497e-15 0)
(1 2.16048e-15 0)
(1 2.58817e-15 0)
(1 1.43775e-15 0)
(1 1.92206e-15 0)
(1 1.15867e-15 0)
(1 2.13633e-15 0)
(1 7.16443e-16 0)
(1 6.18862e-16 0)
(1 8.80244e-16 0)
(1 1.03915e-15 0)
(1 8.21773e-16 0)
(1 1.2728e-15 0)
(1 3.57749e-16 0)
(1 1.67825e-15 0)
(1 6.59256e-16 0)
(1 1.92149e-15 0)
(1 1.36951e-15 0)
(1 2.07574e-15 0)
(1 1.73023e-15 0)
(1 2.39871e-15 0)
(1 2.90739e-15 0)
(1 3.23811e-15 0)
(1 3.07532e-15 0)
(1 6.80326e-16 0)
(1 -4.66901e-17 0)
(1 1.43504e-15 0)
(1 1.72808e-15 0)
(1 1.0886e-15 0)
(1 1.17114e-15 0)
(1 4.34485e-16 0)
(1 2.49547e-15 0)
(1 2.88586e-15 0)
(1 4.34793e-15 0)
(1 3.5699e-15 0)
(1 2.46215e-15 0)
(1 1.80604e-15 0)
(1 1.85751e-15 0)
(1 1.64256e-15 0)
(1 2.32755e-15 0)
(1 2.81075e-15 0)
(1 1.99313e-16 0)
(1 1.16574e-15 0)
(1 -5.40664e-17 0)
(1 1.15204e-15 0)
(1 1.41488e-15 0)
(1 1.84551e-15 0)
(1 2.01132e-15 0)
(1 1.60892e-15 0)
(1 4.59345e-16 0)
(1 4.13223e-17 0)
(1 3.36568e-16 0)
(1 1.04898e-15 0)
(1 4.37219e-16 0)
(1 -1.25408e-16 0)
(1 -6.72954e-16 0)
(1 -7.17174e-16 0)
(1 -8.67277e-16 0)
(1 -2.14755e-16 0)
(1 -1.05637e-15 0)
(1 5.30208e-16 0)
(1 1.08908e-16 0)
(1 7.86528e-16 0)
(1 5.17646e-16 0)
(1 1.77875e-15 0)
(1 1.16851e-15 0)
(1 1.4514e-15 0)
(1 1.00474e-15 0)
(1 2.54732e-15 0)
(1 4.08018e-15 0)
(1 5.08274e-15 0)
(1 4.84063e-15 0)
(1 4.71062e-15 0)
(1 4.65842e-15 0)
(1 4.48873e-15 0)
(1 4.51289e-15 0)
(1 4.61267e-15 0)
(1 5.18012e-15 0)
(1 5.44367e-15 0)
(1 4.17027e-15 0)
(1 3.6148e-15 0)
(1 3.72242e-15 0)
(1 4.30423e-15 0)
(1 4.0477e-15 0)
(1 5.41508e-15 0)
(1 4.95747e-15 0)
(1 4.37226e-15 0)
(1 3.27412e-15 0)
(1 2.98059e-15 0)
(1 2.45807e-15 0)
(1 2.6851e-15 0)
(1 2.64736e-15 0)
(1 2.03137e-15 0)
(1 2.56104e-15 0)
(1 3.75367e-15 0)
(1 3.06545e-15 0)
(1 1.60974e-15 0)
(1 1.19234e-15 0)
(1 1.54114e-15 0)
(1 1.29268e-15 0)
(1 1.83329e-15 0)
(1 1.72527e-15 0)
(1 2.08042e-15 0)
(1 1.69186e-15 0)
(1 2.36774e-15 0)
(1 2.50606e-15 0)
(1 1.98376e-15 0)
(1 1.33291e-15 0)
(1 4.28751e-16 0)
(1 2.68912e-16 0)
(1 5.84974e-16 0)
(1 4.61869e-16 0)
(1 1.33899e-15 0)
(1 1.20631e-15 0)
(1 1.28069e-15 0)
(1 1.42925e-15 0)
(1 1.61703e-15 0)
(1 1.53824e-15 0)
(1 1.55956e-15 0)
(1 3.39866e-15 0)
(1 3.40936e-15 0)
(1 2.79241e-15 0)
(1 9.16697e-16 0)
(1 1.81851e-15 0)
(1 1.15587e-15 0)
(1 6.54158e-16 0)
(1 4.68445e-16 0)
(1 1.40864e-15 0)
(1 1.82031e-15 0)
(1 1.87632e-15 0)
(1 2.07266e-15 0)
(1 2.06872e-15 0)
(1 1.43826e-15 0)
(1 3.07872e-15 0)
(1 4.33117e-15 0)
(1 3.73194e-15 0)
(1 1.7744e-15 0)
(1 2.23181e-15 0)
(1 1.23553e-15 0)
(1 1.48525e-15 0)
(1 9.74651e-16 0)
(1 1.10083e-15 0)
(1 1.88905e-15 0)
(1 1.74396e-15 0)
(1 2.27576e-15 0)
(1 -3.43937e-16 0)
(1 4.95969e-16 0)
(1 -9.9444e-16 0)
(1 2.01766e-15 0)
(1 8.99463e-16 0)
(1 -1.62358e-15 0)
(1 -8.76565e-16 0)
(1 -5.95337e-16 0)
(1 -5.17839e-16 0)
(1 -5.35647e-16 0)
(1 -8.6002e-16 0)
(1 -7.82168e-16 0)
(1 -6.12974e-16 0)
(1 -6.82732e-17 0)
(1 5.81451e-16 0)
(1 1.22286e-15 0)
(1 5.45419e-16 0)
(1 4.76193e-16 0)
(1 6.32787e-16 0)
(1 -2.84267e-16 0)
(1 1.4981e-15 0)
(1 3.19412e-16 0)
(1 1.51264e-15 0)
(1 2.0091e-15 0)
(1 4.05096e-15 0)
(1 4.11523e-15 0)
(1 5.89845e-15 0)
(1 5.05792e-15 0)
(1 4.99886e-15 0)
(1 3.86915e-15 0)
(1 4.34417e-15 0)
(1 4.88516e-15 0)
(1 5.19572e-15 0)
(1 5.11372e-15 0)
(1 4.6682e-15 0)
(1 3.63083e-15 0)
(1 4.2722e-15 0)
(1 2.48824e-15 0)
(1 3.01623e-15 0)
(1 2.68568e-15 0)
(1 4.79918e-15 0)
(1 5.00166e-15 0)
(1 5.79992e-15 0)
(1 4.59043e-15 0)
(1 3.02509e-15 0)
(1 1.94456e-15 0)
(1 1.5978e-15 0)
(1 1.35835e-15 0)
(1 1.72392e-15 0)
(1 1.6899e-15 0)
(1 1.63913e-15 0)
(1 2.21957e-15 0)
(1 2.7442e-15 0)
(1 2.3515e-15 0)
(1 1.40241e-15 0)
(1 3.30691e-16 0)
(1 1.48582e-15 0)
(1 1.19285e-15 0)
(1 2.16214e-15 0)
(1 1.53698e-15 0)
(1 1.62924e-15 0)
(1 8.18177e-16 0)
(1 1.3303e-15 0)
(1 1.18884e-15 0)
(1 1.55042e-15 0)
(1 6.06955e-16 0)
(1 1.13504e-15 0)
(1 7.66369e-16 0)
(1 1.15577e-15 0)
(1 1.19137e-15 0)
(1 1.32296e-15 0)
(1 8.2984e-16 0)
(1 7.86799e-16 0)
(1 1.02088e-15 0)
(1 2.69771e-15 0)
(1 1.76272e-15 0)
(1 1.70849e-15 0)
(1 6.84843e-16 0)
(1 1.19092e-15 0)
(1 7.40278e-17 0)
(1 1.87017e-15 0)
(1 2.22688e-17 0)
(1 8.43114e-16 0)
(1 2.15691e-15 0)
(1 2.66213e-15 0)
(1 2.44033e-15 0)
(1 2.45167e-15 0)
(1 1.80843e-15 0)
(1 1.02456e-15 0)
(1 2.49762e-15 0)
(1 3.51376e-15 0)
(1 2.30079e-15 0)
(1 3.23636e-15 0)
(1 1.33013e-15 0)
(1 6.63384e-16 0)
(1 2.76706e-20 0)
(1 1.55345e-15 0)
(1 1.16676e-15 0)
(1 1.23033e-15 0)
(1 7.33321e-16 0)
(1 1.89394e-16 0)
(1 -1.24878e-16 0)
(1 -3.17449e-16 0)
(1 1.20595e-15 0)
(1 5.67378e-16 0)
(1 -1.58531e-16 0)
(1 -6.76652e-16 0)
(1 -8.51449e-16 0)
(1 -4.90295e-16 0)
(1 -1.12521e-15 0)
(1 -1.33445e-15 0)
(1 -5.65388e-16 0)
(1 -8.32962e-16 0)
(1 1.10538e-15 0)
(1 1.39067e-15 0)
(1 1.11486e-15 0)
(1 -6.82032e-16 0)
(1 -6.2588e-17 0)
(1 -8.53292e-16 0)
(1 -9.35797e-16 0)
(1 4.53766e-16 0)
(1 1.42344e-15 0)
(1 3.78453e-15 0)
(1 3.22772e-15 0)
(1 3.45229e-15 0)
(1 3.2768e-15 0)
(1 4.56584e-15 0)
(1 3.93344e-15 0)
(1 3.7401e-15 0)
(1 2.77002e-15 0)
(1 3.34136e-15 0)
(1 4.8311e-15 0)
(1 5.02464e-15 0)
(1 4.5636e-15 0)
(1 5.6137e-15 0)
(1 5.41115e-15 0)
(1 5.92273e-15 0)
(1 4.45515e-15 0)
(1 3.93478e-15 0)
(1 2.4394e-15 0)
(1 2.99757e-15 0)
(1 2.50573e-15 0)
(1 4.19287e-15 0)
(1 3.41414e-15 0)
(1 4.17308e-15 0)
(1 2.83682e-15 0)
(1 3.07851e-15 0)
(1 2.32298e-15 0)
(1 1.81062e-15 0)
(1 1.44572e-15 0)
(1 1.68741e-15 0)
(1 2.47649e-15 0)
(1 3.55959e-15 0)
(1 2.29159e-15 0)
(1 2.13627e-15 0)
(1 1.42244e-15 0)
(1 2.42473e-15 0)
(1 1.81223e-15 0)
(1 2.02585e-15 0)
(1 1.08634e-15 0)
(1 7.4057e-16 0)
(1 8.04688e-16 0)
(1 1.26957e-15 0)
(1 1.22742e-15 0)
(1 1.59272e-15 0)
(1 1.71405e-16 0)
(1 1.55221e-15 0)
(1 1.44047e-15 0)
(1 1.35759e-15 0)
(1 9.79524e-16 0)
(1 1.16679e-15 0)
(1 9.58164e-16 0)
(1 1.35687e-15 0)
(1 7.78941e-16 0)
(1 1.70087e-15 0)
(1 1.52899e-15 0)
(1 2.27175e-15 0)
(1 1.63489e-15 0)
(1 8.95766e-16 0)
(1 5.75577e-16 0)
(1 1.14562e-15 0)
(1 1.77235e-15 0)
(1 1.92489e-15 0)
(1 2.55926e-15 0)
(1 1.37094e-15 0)
(1 3.02491e-16 0)
(1 3.93383e-16 0)
(1 2.00618e-15 0)
(1 2.85498e-15 0)
(1 2.4207e-15 0)
(1 2.13777e-15 0)
(1 2.44214e-15 0)
(1 1.35192e-15 0)
(1 9.5908e-16 0)
(1 8.1163e-16 0)
(1 -8.62774e-16 0)
(1 1.22036e-15 0)
(1 2.3525e-16 0)
(1 6.86353e-16 0)
(1 3.48531e-16 0)
(1 1.06679e-15 0)
(1 6.58849e-16 0)
(1 1.94705e-15 0)
(1 8.4212e-16 0)
(1 1.81982e-16 0)
(1 -1.48737e-16 0)
(1 -6.6831e-16 0)
(1 -1.25554e-15 0)
(1 -1.22826e-15 0)
(1 -1.15519e-15 0)
(1 -4.55723e-16 0)
(1 -5.82682e-16 0)
(1 -1.73232e-15 0)
(1 -5.89017e-16 0)
(1 -5.02762e-16 0)
(1 -6.68104e-16 0)
(1 -2.32582e-16 0)
(1 -1.02995e-16 0)
(1 -4.09009e-16 0)
(1 5.56547e-16 0)
(1 1.03818e-15 0)
(1 1.55371e-15 0)
(1 3.0121e-15 0)
(1 2.60791e-15 0)
(1 3.44892e-15 0)
(1 2.70593e-15 0)
(1 2.56522e-15 0)
(1 2.83428e-15 0)
(1 2.59706e-15 0)
(1 3.75132e-15 0)
(1 4.7014e-15 0)
(1 4.54164e-15 0)
(1 5.07881e-15 0)
(1 4.57965e-15 0)
(1 4.99853e-15 0)
(1 5.121e-15 0)
(1 4.94403e-15 0)
(1 4.67097e-15 0)
(1 4.7201e-15 0)
(1 4.64895e-15 0)
(1 3.37926e-15 0)
(1 3.26207e-15 0)
(1 3.30682e-15 0)
(1 3.83686e-15 0)
(1 3.01008e-15 0)
(1 3.39814e-15 0)
(1 3.51826e-15 0)
(1 3.67283e-15 0)
(1 2.62117e-15 0)
(1 1.84202e-15 0)
(1 2.51857e-15 0)
(1 2.1515e-15 0)
(1 2.52187e-15 0)
(1 2.10812e-15 0)
(1 2.58449e-15 0)
(1 2.08554e-15 0)
(1 1.54394e-15 0)
(1 1.5221e-15 0)
(1 9.0753e-16 0)
(1 1.15344e-15 0)
(1 7.83964e-16 0)
(1 3.97253e-16 0)
(1 1.17178e-15 0)
(1 5.21136e-16 0)
(1 -4.63709e-16 0)
(1 -3.51405e-16 0)
(1 -1.1069e-17 0)
(1 8.40731e-17 0)
(1 5.87641e-16 0)
(1 8.63593e-16 0)
(1 9.91675e-16 0)
(1 1.97264e-15 0)
(1 1.43585e-15 0)
(1 2.36515e-15 0)
(1 9.85971e-16 0)
(1 1.43802e-15 0)
(1 2.23671e-15 0)
(1 2.01437e-15 0)
(1 1.67452e-15 0)
(1 -5.82772e-18 0)
(1 1.23481e-16 0)
(1 1.01901e-15 0)
(1 1.90652e-15 0)
(1 2.28051e-15 0)
(1 2.71061e-15 0)
(1 3.84506e-15 0)
(1 2.85186e-15 0)
(1 1.51217e-15 0)
(1 1.44242e-15 0)
(1 -2.20178e-16 0)
(1 1.47668e-17 0)
(1 1.81202e-15 0)
(1 4.75162e-16 0)
(1 2.14494e-15 0)
(1 1.1183e-15 0)
(1 6.4692e-16 0)
(1 1.47422e-16 0)
(1 -1.18742e-16 0)
(1 1.9566e-16 0)
(1 4.72482e-16 0)
(1 1.48751e-15 0)
(1 4.55813e-16 0)
(1 -1.23614e-16 0)
(1 -1.79368e-15 0)
(1 -1.25768e-15 0)
(1 -1.43666e-15 0)
(1 -1.01234e-15 0)
(1 -1.71958e-15 0)
(1 -2.27378e-15 0)
(1 -3.31142e-16 0)
(1 -8.57949e-16 0)
(1 2.81992e-16 0)
(1 -2.99428e-16 0)
(1 -1.17831e-15 0)
(1 2.56525e-17 0)
(1 -1.07554e-15 0)
(1 -1.17427e-16 0)
(1 -4.96312e-16 0)
(1 2.76622e-16 0)
(1 8.07004e-16 0)
(1 1.50859e-15 0)
(1 2.15964e-15 0)
(1 6.52898e-16 0)
(1 7.23673e-16 0)
(1 4.20604e-16 0)
(1 2.01913e-15 0)
(1 2.03174e-15 0)
(1 2.6738e-15 0)
(1 2.61671e-15 0)
(1 4.72575e-15 0)
(1 4.96655e-15 0)
(1 4.93633e-15 0)
(1 4.04446e-15 0)
(1 4.45811e-15 0)
(1 4.34174e-15 0)
(1 5.07627e-15 0)
(1 3.86388e-15 0)
(1 3.72346e-15 0)
(1 2.92969e-15 0)
(1 3.39844e-15 0)
(1 2.26052e-15 0)
(1 3.44914e-15 0)
(1 2.24464e-15 0)
(1 3.1704e-15 0)
(1 2.21448e-15 0)
(1 2.66659e-15 0)
(1 2.04122e-15 0)
(1 2.96344e-15 0)
(1 1.58252e-15 0)
(1 2.11871e-15 0)
(1 1.94004e-15 0)
(1 2.19929e-15 0)
(1 2.35368e-15 0)
(1 2.39198e-15 0)
(1 1.29693e-15 0)
(1 1.02225e-15 0)
(1 5.25157e-16 0)
(1 1.09186e-15 0)
(1 1.10411e-15 0)
(1 7.1165e-17 0)
(1 5.33721e-16 0)
(1 6.97365e-16 0)
(1 1.24323e-15 0)
(1 6.67817e-16 0)
(1 -2.33489e-16 0)
(1 -3.07523e-16 0)
(1 -7.28786e-16 0)
(1 -4.86662e-16 0)
(1 5.03647e-16 0)
(1 1.23459e-15 0)
(1 1.0304e-15 0)
(1 1.68658e-15 0)
(1 1.04399e-15 0)
(1 1.75367e-15 0)
(1 1.31117e-15 0)
(1 1.61375e-15 0)
(1 1.22008e-15 0)
(1 1.14028e-15 0)
(1 1.56366e-15 0)
(1 -9.42137e-16 0)
(1 6.48178e-16 0)
(1 8.65941e-16 0)
(1 1.69828e-15 0)
(1 1.6066e-15 0)
(1 2.46891e-15 0)
(1 2.84342e-15 0)
(1 4.32809e-15 0)
(1 2.53843e-15 0)
(1 1.42276e-15 0)
(1 9.02391e-16 0)
(1 1.45191e-16 0)
(1 -3.4002e-17 0)
(1 1.08976e-15 0)
(1 1.44578e-15 0)