/*--------------------------------*- C++ -*----------------------------------*\
| =========                 |                                                 |
| \\      /  F ield         | OpenFOAM: The Open Source CFD Toolbox           |
|  \\    /   O peration     | Version:  v2012                                 |
|   \\  /    A nd           | Website:  www.openfoam.com                      |
|    \\/     M anipulation  |                                                 |
\*---------------------------------------------------------------------------*/
FoamFile
{
    version     2.0;
    format      ascii;
    class       volVectorField;
    location    "70";
    object      Usup;
}
// * * * * * * * * * * * * * * * * * * * * * * * * * * * * * * * * * * * * * //

dimensions      [0 1 -1 0 0 0 0];


internalField   nonuniform List<vector> 
4000
(
(-4.50998e-16 -1.97229e-16 0)
(-1.10415e-15 -3.68195e-17 0)
(-1.47553e-15 3.72608e-17 0)
(-1.7319e-15 -3.4812e-17 0)
(-2.07332e-15 7.14402e-17 0)
(-2.99504e-15 -1.90445e-16 0)
(-4.29201e-15 -3.37086e-16 0)
(-5.1228e-15 -2.93558e-16 0)
(-5.03805e-15 6.01186e-16 0)
(-4.65561e-15 8.78991e-16 0)
(-4.92738e-15 4.82715e-16 0)
(-5.46205e-15 3.54539e-16 0)
(-5.99198e-15 3.63703e-16 0)
(-6.49118e-15 5.15472e-16 0)
(-6.60475e-15 7.2611e-16 0)
(-6.58472e-15 7.13054e-16 0)
(-6.76379e-15 4.88837e-16 0)
(-7.07482e-15 8.69745e-17 0)
(-7.00804e-15 9.37983e-17 0)
(-6.46093e-15 3.41169e-16 0)
(-5.68687e-15 1.84003e-16 0)
(-5.38934e-15 -1.05483e-16 0)
(-5.41931e-15 -2.53058e-16 0)
(-5.31425e-15 -1.75417e-16 0)
(-4.99152e-15 7.06673e-17 0)
(-4.45167e-15 6.18349e-16 0)
(-4.3097e-15 3.16383e-16 0)
(-5.06892e-15 6.48587e-18 0)
(-5.79406e-15 1.05833e-16 0)
(-5.13739e-15 2.66372e-16 0)
(-4.34635e-15 3.52891e-16 0)
(-4.08137e-15 3.30683e-16 0)
(-3.7594e-15 -2.58057e-16 0)
(-3.61921e-15 -7.25902e-16 0)
(-3.35313e-15 -8.97169e-16 0)
(-3.11862e-15 -9.51758e-16 0)
(-3.54458e-15 -1.01648e-15 0)
(-3.86486e-15 -7.43898e-16 0)
(-3.28238e-15 -2.7879e-16 0)
(-2.50824e-15 -4.86297e-16 0)
(-2.09325e-15 -1.02374e-15 0)
(-2.06803e-15 -1.47774e-15 0)
(-2.64267e-15 -1.68829e-15 0)
(-3.15088e-15 -1.20138e-15 0)
(-2.73344e-15 -4.3463e-16 0)
(-1.90105e-15 -2.42352e-16 0)
(-1.45935e-15 -5.9572e-16 0)
(-1.49563e-15 -8.37592e-16 0)
(-1.73661e-15 -8.79979e-16 0)
(-1.75872e-15 -9.36288e-16 0)
(-1.5838e-15 -7.17551e-16 0)
(-1.40507e-15 -5.74197e-16 0)
(-1.36389e-15 -6.83167e-16 0)
(-1.29592e-15 -4.33585e-16 0)
(-7.46881e-16 1.13516e-16 0)
(2.94531e-16 3.46566e-16 0)
(1.5021e-15 3.86734e-16 0)
(2.52196e-15 4.34951e-16 0)
(2.89822e-15 2.47171e-16 0)
(2.83091e-15 3.36229e-16 0)
(2.6677e-15 4.13833e-16 0)
(2.64661e-15 3.78075e-16 0)
(2.54601e-15 5.93753e-16 0)
(2.4175e-15 9.15481e-16 0)
(2.40061e-15 1.01056e-15 0)
(2.61888e-15 1.04532e-15 0)
(3.11951e-15 9.79218e-16 0)
(3.46287e-15 1.1692e-15 0)
(3.89263e-15 1.43883e-15 0)
(4.35228e-15 1.29768e-15 0)
(4.50176e-15 1.30252e-15 0)
(4.41543e-15 1.38892e-15 0)
(4.33115e-15 1.52129e-15 0)
(4.45786e-15 1.25531e-15 0)
(4.65298e-15 8.5525e-16 0)
(4.96264e-15 7.85845e-16 0)
(5.37533e-15 7.46823e-16 0)
(5.33039e-15 7.47319e-16 0)
(4.69543e-15 6.92213e-16 0)
(3.89124e-15 6.14549e-16 0)
(3.686e-15 9.17817e-16 0)
(3.96021e-15 8.67466e-16 0)
(4.21155e-15 7.86209e-16 0)
(4.62437e-15 6.92908e-16 0)
(5.33816e-15 3.42026e-16 0)
(5.54254e-15 -2.99532e-19 0)
(5.51398e-15 2.78452e-16 0)
(5.54178e-15 5.52778e-16 0)
(5.51042e-15 5.80556e-16 0)
(5.355e-15 4.23648e-16 0)
(4.8776e-15 3.68699e-16 0)
(4.69861e-15 1.98125e-16 0)
(4.26544e-15 3.21395e-17 0)
(3.34225e-15 -1.04803e-17 0)
(2.85335e-15 -2.08824e-17 0)
(2.45781e-15 2.21378e-17 0)
(1.53332e-15 1.43797e-16 0)
(1.04934e-15 4.27089e-16 0)
(9.73216e-16 1.58694e-16 0)
(3.49269e-16 4.38411e-17 0)
(-9.00336e-16 -3.57853e-16 0)
(-2.59809e-15 -2.76579e-16 0)
(-4.09261e-15 -1.25714e-16 0)
(-5.12069e-15 -2.21938e-16 0)
(-6.53994e-15 -1.98609e-16 0)
(-9.10579e-15 -5.68304e-16 0)
(-1.19057e-14 -7.43083e-16 0)
(-1.31918e-14 -3.20885e-16 0)
(-1.32642e-14 1.22674e-15 0)
(-1.38244e-14 1.91402e-15 0)
(-1.48555e-14 1.55883e-15 0)
(-1.58598e-14 1.27141e-15 0)
(-1.69907e-14 1.19911e-15 0)
(-1.80426e-14 1.74464e-15 0)
(-1.86136e-14 2.14693e-15 0)
(-1.90701e-14 2.00791e-15 0)
(-1.97779e-14 1.54048e-15 0)
(-2.01607e-14 7.83009e-16 0)
(-1.94372e-14 5.83468e-16 0)
(-1.83125e-14 4.65553e-16 0)
(-1.70215e-14 4.07273e-16 0)
(-1.6177e-14 -3.86089e-16 0)
(-1.57114e-14 -7.07099e-16 0)
(-1.50255e-14 -4.0459e-16 0)
(-1.3878e-14 5.72481e-16 0)
(-1.31736e-14 1.47419e-15 0)
(-1.35494e-14 1.02268e-15 0)
(-1.46463e-14 2.57221e-16 0)
(-1.55394e-14 4.56168e-16 0)
(-1.42749e-14 8.12577e-16 0)
(-1.27032e-14 6.94751e-16 0)
(-1.23469e-14 3.22366e-16 0)
(-1.1833e-14 -8.36578e-16 0)
(-1.10217e-14 -1.78262e-15 0)
(-1.00721e-14 -2.20277e-15 0)
(-9.51809e-15 -2.49151e-15 0)
(-9.94965e-15 -2.77239e-15 0)
(-9.97989e-15 -2.06652e-15 0)
(-9.08661e-15 -1.70931e-15 0)
(-8.14299e-15 -2.28774e-15 0)
(-7.33233e-15 -3.238e-15 0)
(-6.98681e-15 -4.11293e-15 0)
(-7.32674e-15 -4.20144e-15 0)
(-7.45663e-15 -3.18846e-15 0)
(-6.77587e-15 -1.76459e-15 0)
(-5.85194e-15 -1.49898e-15 0)
(-5.11047e-15 -2.04293e-15 0)
(-4.77702e-15 -2.47424e-15 0)
(-4.97169e-15 -2.41783e-15 0)
(-4.73812e-15 -2.37127e-15 0)
(-4.15363e-15 -2.03413e-15 0)
(-3.8996e-15 -1.81401e-15 0)
(-3.49771e-15 -1.66861e-15 0)
(-2.50445e-15 -1.05143e-15 0)
(-9.81247e-16 1.40898e-16 0)
(1.22451e-15 8.37762e-16 0)
(4.02511e-15 9.16552e-16 0)
(6.33973e-15 9.87447e-16 0)
(7.5148e-15 9.21269e-16 0)
(7.84327e-15 1.02274e-15 0)
(7.56661e-15 1.31116e-15 0)
(7.64951e-15 1.50962e-15 0)
(7.75611e-15 1.69588e-15 0)
(7.48905e-15 2.3934e-15 0)
(7.3699e-15 2.79121e-15 0)
(7.86375e-15 3.21718e-15 0)
(9.15001e-15 3.27027e-15 0)
(1.0375e-14 3.68017e-15 0)
(1.12401e-14 3.83653e-15 0)
(1.2137e-14 3.94115e-15 0)
(1.27749e-14 4.0256e-15 0)
(1.28421e-14 4.1083e-15 0)
(1.25327e-14 3.8472e-15 0)
(1.24744e-14 3.47222e-15 0)
(1.313e-14 2.84586e-15 0)
(1.41164e-14 2.79999e-15 0)
(1.4961e-14 2.42825e-15 0)
(1.47851e-14 2.22246e-15 0)
(1.33786e-14 1.93896e-15 0)
(1.19852e-14 2.29189e-15 0)
(1.14926e-14 2.96685e-15 0)
(1.17162e-14 2.45011e-15 0)
(1.23436e-14 1.80021e-15 0)
(1.31774e-14 1.63299e-15 0)
(1.45034e-14 1.15265e-15 0)
(1.55496e-14 7.8809e-16 0)
(1.60504e-14 1.2369e-15 0)
(1.58895e-14 1.62896e-15 0)
(1.54033e-14 1.75949e-15 0)
(1.48384e-14 1.19633e-15 0)
(1.37082e-14 7.82574e-16 0)
(1.28728e-14 5.08717e-16 0)
(1.16791e-14 1.83499e-17 0)
(9.62766e-15 -2.35396e-17 0)
(8.19223e-15 -1.27209e-17 0)
(6.93311e-15 1.82757e-16 0)
(4.92132e-15 4.62955e-16 0)
(3.21815e-15 8.7848e-16 0)
(2.22894e-15 3.44099e-16 0)
(8.03648e-16 8.12682e-17 0)
(-1.36716e-15 -3.93777e-16 0)
(-3.9605e-15 -5.33332e-16 0)
(-6.42481e-15 -4.6603e-16 0)
(-8.48625e-15 -7.60717e-16 0)
(-1.09569e-14 -8.91233e-16 0)
(-1.46908e-14 -1.0119e-15 0)
(-1.84134e-14 -5.47541e-16 0)
(-2.01879e-14 3.14155e-16 0)
(-2.07653e-14 1.41406e-15 0)
(-2.20924e-14 2.08303e-15 0)
(-2.40069e-14 2.34031e-15 0)
(-2.57122e-14 2.01964e-15 0)
(-2.70685e-14 1.93729e-15 0)
(-2.84629e-14 2.99127e-15 0)
(-2.97609e-14 3.79947e-15 0)
(-3.07474e-14 3.68445e-15 0)
(-3.17987e-14 2.91159e-15 0)
(-3.22428e-14 2.10938e-15 0)
(-3.13541e-14 1.42884e-15 0)
(-2.95379e-14 8.95452e-16 0)
(-2.77568e-14 7.55951e-16 0)
(-2.66591e-14 -6.09119e-16 0)
(-2.53519e-14 -1.11375e-15 0)
(-2.36942e-14 -7.11448e-16 0)
(-2.20851e-14 8.121e-16 0)
(-2.16795e-14 1.49855e-15 0)
(-2.25514e-14 1.57586e-15 0)
(-2.36796e-14 9.36379e-16 0)
(-2.42184e-14 9.71461e-16 0)
(-2.28058e-14 1.30831e-15 0)
(-2.10494e-14 7.30786e-16 0)
(-2.04566e-14 7.26484e-17 0)
(-1.95943e-14 -1.16004e-15 0)
(-1.81913e-14 -2.22832e-15 0)
(-1.6752e-14 -3.05629e-15 0)
(-1.5972e-14 -3.86077e-15 0)
(-1.58959e-14 -4.38831e-15 0)
(-1.57385e-14 -3.96945e-15 0)
(-1.49925e-14 -3.97269e-15 0)
(-1.36985e-14 -4.64141e-15 0)
(-1.25103e-14 -5.29244e-15 0)
(-1.16404e-14 -5.89236e-15 0)
(-1.14026e-14 -5.80593e-15 0)
(-1.11835e-14 -4.74321e-15 0)
(-1.05024e-14 -3.76592e-15 0)
(-9.64079e-15 -3.57262e-15 0)
(-8.63967e-15 -3.91951e-15 0)
(-7.87215e-15 -4.09459e-15 0)
(-7.75834e-15 -3.94507e-15 0)
(-7.36326e-15 -3.69889e-15 0)
(-6.5436e-15 -3.24473e-15 0)
(-5.86739e-15 -2.64461e-15 0)
(-4.87368e-15 -2.15319e-15 0)
(-3.05035e-15 -1.2602e-15 0)
(-5.85785e-16 -2.02036e-16 0)
(2.35933e-15 9.47266e-16 0)
(6.12618e-15 1.22001e-15 0)
(9.61769e-15 1.23953e-15 0)
(1.15024e-14 1.60009e-15 0)
(1.22454e-14 1.83216e-15 0)
(1.22817e-14 2.33228e-15 0)
(1.22796e-14 2.96954e-15 0)
(1.25455e-14 2.95132e-15 0)
(1.25974e-14 3.74189e-15 0)
(1.26723e-14 4.4236e-15 0)
(1.33872e-14 5.30088e-15 0)
(1.50591e-14 5.928e-15 0)
(1.66523e-14 6.35837e-15 0)
(1.80836e-14 6.33782e-15 0)
(1.96097e-14 6.63358e-15 0)
(2.03806e-14 6.72265e-15 0)
(2.02649e-14 6.59169e-15 0)
(2.00075e-14 6.03031e-15 0)
(2.02655e-14 5.73719e-15 0)
(2.12679e-14 5.31037e-15 0)
(2.24475e-14 5.05066e-15 0)
(2.3312e-14 4.43186e-15 0)
(2.3116e-14 3.97836e-15 0)
(2.17732e-14 3.6113e-15 0)
(2.03539e-14 4.29223e-15 0)
(1.90004e-14 4.37768e-15 0)
(1.86452e-14 3.60025e-15 0)
(1.98546e-14 2.71236e-15 0)
(2.14432e-14 2.36333e-15 0)
(2.32906e-14 2.28074e-15 0)
(2.48445e-14 2.19172e-15 0)
(2.5537e-14 2.30854e-15 0)
(2.52915e-14 2.43647e-15 0)
(2.42489e-14 2.35223e-15 0)
(2.30031e-14 1.6412e-15 0)
(2.15692e-14 1.033e-15 0)
(2.01558e-14 6.10193e-16 0)
(1.82543e-14 -1.59418e-16 0)
(1.5482e-14 -2.12401e-16 0)
(1.32166e-14 1.24373e-16 0)
(1.11185e-14 3.08986e-16 0)
(8.06969e-15 5.73148e-16 0)
(5.16813e-15 5.95462e-16 0)
(3.22287e-15 1.87404e-16 0)
(1.1341e-15 -7.33226e-17 0)
(-1.71641e-15 -3.95851e-16 0)
(-5.16316e-15 -5.31616e-16 0)
(-8.80496e-15 -6.82088e-16 0)
(-1.184e-14 -1.1198e-15 0)
(-1.50844e-14 -1.50085e-15 0)
(-1.94591e-14 -9.23423e-16 0)
(-2.38469e-14 8.54768e-17 0)
(-2.65035e-14 1.06217e-15 0)
(-2.78359e-14 1.3676e-15 0)
(-2.97797e-14 1.70961e-15 0)
(-3.24745e-14 2.34828e-15 0)
(-3.48607e-14 2.91702e-15 0)
(-3.61296e-14 2.96442e-15 0)
(-3.75152e-14 4.03543e-15 0)
(-3.96097e-14 5.16363e-15 0)
(-4.16493e-14 5.45476e-15 0)
(-4.31707e-14 4.96924e-15 0)
(-4.36032e-14 3.84247e-15 0)
(-4.2363e-14 2.44457e-15 0)
(-4.00456e-14 1.80809e-15 0)
(-3.83598e-14 1.04463e-15 0)
(-3.6958e-14 -3.42726e-16 0)
(-3.45817e-14 -9.82542e-16 0)
(-3.18075e-14 -4.86546e-16 0)
(-2.97884e-14 6.1179e-16 0)
(-2.95432e-14 1.20912e-15 0)
(-3.0675e-14 1.67602e-15 0)
(-3.20317e-14 1.37731e-15 0)
(-3.22871e-14 1.50072e-15 0)
(-3.08229e-14 1.63076e-15 0)
(-2.89801e-14 8.07611e-16 0)
(-2.81859e-14 5.6639e-17 0)
(-2.71528e-14 -1.19445e-15 0)
(-2.53644e-14 -2.53184e-15 0)
(-2.36354e-14 -4.01457e-15 0)
(-2.24544e-14 -5.4102e-15 0)
(-2.18389e-14 -6.19859e-15 0)
(-2.11925e-14 -6.27855e-15 0)
(-2.03194e-14 -6.16079e-15 0)
(-1.88777e-14 -6.80284e-15 0)
(-1.72842e-14 -7.17783e-15 0)
(-1.61009e-14 -7.31785e-15 0)
(-1.5292e-14 -7.1549e-15 0)
(-1.4724e-14 -6.28982e-15 0)
(-1.40818e-14 -5.92053e-15 0)
(-1.31821e-14 -5.71147e-15 0)
(-1.19052e-14 -5.77453e-15 0)
(-1.074e-14 -5.98007e-15 0)
(-1.03522e-14 -5.57764e-15 0)
(-9.54605e-15 -4.83025e-15 0)
(-8.17963e-15 -4.1911e-15 0)
(-7.24133e-15 -3.45489e-15 0)
(-5.8317e-15 -2.71665e-15 0)
(-3.32476e-15 -1.53999e-15 0)
(1.95285e-17 -4.14549e-16 0)
(3.78015e-15 8.2808e-16 0)
(8.04432e-15 1.2441e-15 0)
(1.24299e-14 1.44213e-15 0)
(1.51275e-14 2.12538e-15 0)
(1.63135e-14 2.82039e-15 0)
(1.67297e-14 3.61727e-15 0)
(1.6692e-14 4.38349e-15 0)
(1.71028e-14 4.56869e-15 0)
(1.75762e-14 5.2246e-15 0)
(1.79251e-14 6.23598e-15 0)
(1.90622e-14 7.62626e-15 0)
(2.09523e-14 8.60604e-15 0)
(2.26944e-14 9.09047e-15 0)
(2.44602e-14 9.20966e-15 0)
(2.63278e-14 9.06882e-15 0)
(2.72695e-14 8.86962e-15 0)
(2.72309e-14 8.80827e-15 0)
(2.71024e-14 8.56979e-15 0)
(2.75215e-14 8.12281e-15 0)
(2.86521e-14 7.69686e-15 0)
(2.99567e-14 7.03099e-15 0)
(3.09553e-14 6.5417e-15 0)
(3.0805e-14 6.09512e-15 0)
(2.95999e-14 5.92571e-15 0)
(2.78133e-14 5.9442e-15 0)
(2.5926e-14 5.24607e-15 0)
(2.56113e-14 4.8013e-15 0)
(2.70493e-14 4.15934e-15 0)
(2.91986e-14 3.49449e-15 0)
(3.15043e-14 3.3643e-15 0)
(3.31824e-14 3.12329e-15 0)
(3.39924e-14 2.97989e-15 0)
(3.35891e-14 2.85061e-15 0)
(3.21294e-14 2.35772e-15 0)
(3.0511e-14 1.60404e-15 0)
(2.85977e-14 1.00109e-15 0)
(2.64645e-14 3.33044e-16 0)
(2.40496e-14 -3.94614e-16 0)
(2.10086e-14 -4.21372e-16 0)
(1.795e-14 1.44787e-16 0)
(1.48236e-14 2.08417e-17 0)
(1.07719e-14 5.52838e-17 0)
(6.84801e-15 -6.5583e-17 0)
(4.12381e-15 -1.54224e-16 0)
(1.52199e-15 -3.2219e-16 0)
(-2.03019e-15 -5.32224e-16 0)
(-6.35402e-15 -6.3125e-16 0)
(-1.10511e-14 -6.09939e-16 0)
(-1.51513e-14 -7.44566e-16 0)
(-1.87449e-14 -8.5588e-16 0)
(-2.34065e-14 -1.47439e-16 0)
(-2.87382e-14 1.86321e-16 0)
(-3.26288e-14 9.94557e-16 0)
(-3.4855e-14 1.25394e-15 0)
(-3.68703e-14 1.379e-15 0)
(-3.95507e-14 1.96135e-15 0)
(-4.26737e-14 3.70675e-15 0)
(-4.46153e-14 4.94564e-15 0)
(-4.60363e-14 5.76323e-15 0)
(-4.85112e-14 6.15523e-15 0)
(-5.1087e-14 6.5672e-15 0)
(-5.34228e-14 6.50117e-15 0)
(-5.45757e-14 5.75805e-15 0)
(-5.30612e-14 4.30393e-15 0)
(-5.02108e-14 2.73831e-15 0)
(-4.82611e-14 9.29016e-16 0)
(-4.6396e-14 -4.07731e-18 0)
(-4.31213e-14 -1.56495e-16 0)
(-3.9633e-14 5.81875e-16 0)
(-3.74028e-14 8.92326e-16 0)
(-3.69924e-14 1.03718e-15 0)
(-3.82635e-14 1.14905e-15 0)
(-3.95768e-14 1.06206e-15 0)
(-3.96368e-14 1.33375e-15 0)
(-3.84044e-14 1.5146e-15 0)
(-3.65563e-14 8.90505e-16 0)
(-3.55236e-14 -3.4196e-16 0)
(-3.43903e-14 -1.43862e-15 0)
(-3.25435e-14 -3.1042e-15 0)
(-3.062e-14 -4.84233e-15 0)
(-2.89175e-14 -6.59756e-15 0)
(-2.75673e-14 -7.65789e-15 0)
(-2.6356e-14 -8.15231e-15 0)
(-2.54134e-14 -8.47344e-15 0)
(-2.3778e-14 -8.6524e-15 0)
(-2.16421e-14 -8.64961e-15 0)
(-2.00333e-14 -8.65594e-15 0)
(-1.88906e-14 -8.54501e-15 0)
(-1.8288e-14 -8.05842e-15 0)
(-1.75878e-14 -7.72895e-15 0)
(-1.63557e-14 -7.67538e-15 0)
(-1.50123e-14 -7.70668e-15 0)
(-1.34102e-14 -7.90998e-15 0)
(-1.21995e-14 -7.10727e-15 0)
(-1.11966e-14 -5.86913e-15 0)
(-9.83839e-15 -5.06857e-15 0)
(-8.41422e-15 -4.51133e-15 0)
(-6.26377e-15 -3.29235e-15 0)
(-3.07236e-15 -1.9905e-15 0)
(8.68432e-16 -6.14626e-16 0)
(5.01691e-15 5.40327e-16 0)
(9.82786e-15 1.29337e-15 0)
(1.51407e-14 1.94435e-15 0)
(1.86221e-14 2.7248e-15 0)
(2.02728e-14 3.86875e-15 0)
(2.09011e-14 4.85864e-15 0)
(2.0841e-14 5.91082e-15 0)
(2.13532e-14 6.44797e-15 0)
(2.23615e-14 6.85751e-15 0)
(2.34391e-14 8.22371e-15 0)
(2.47636e-14 9.97493e-15 0)
(2.6553e-14 1.11296e-14 0)
(2.83557e-14 1.15801e-14 0)
(3.01632e-14 1.18422e-14 0)
(3.22043e-14 1.15903e-14 0)
(3.36163e-14 1.11949e-14 0)
(3.38986e-14 1.10622e-14 0)
(3.3713e-14 1.08791e-14 0)
(3.41939e-14 1.04784e-14 0)
(3.54048e-14 1.0166e-14 0)
(3.68668e-14 9.62791e-15 0)
(3.80746e-14 8.81377e-15 0)
(3.80202e-14 8.06929e-15 0)
(3.66667e-14 7.67521e-15 0)
(3.44585e-14 7.24831e-15 0)
(3.25761e-14 6.49614e-15 0)
(3.23708e-14 6.1537e-15 0)
(3.37569e-14 5.67329e-15 0)
(3.62057e-14 4.73101e-15 0)
(3.88623e-14 4.24407e-15 0)
(4.07282e-14 3.97829e-15 0)
(4.15879e-14 3.60787e-15 0)
(4.09453e-14 2.75002e-15 0)
(3.90658e-14 2.10132e-15 0)
(3.71012e-14 1.10003e-15 0)
(3.48323e-14 2.98841e-16 0)
(3.22171e-14 -2.25634e-16 0)
(2.94375e-14 -7.80583e-16 0)
(2.60577e-14 -9.85949e-16 0)
(2.20876e-14 -5.68307e-16 0)
(1.79204e-14 -6.45347e-16 0)
(1.31564e-14 -9.76474e-16 0)
(8.52696e-15 -9.82825e-16 0)
(5.0027e-15 -5.61801e-16 0)
(1.91141e-15 -3.5869e-16 0)
(-2.25013e-15 -4.71052e-16 0)
(-7.17789e-15 -7.17342e-16 0)
(-1.28071e-14 -3.87328e-16 0)
(-1.77402e-14 -1.09895e-16 0)
(-2.21069e-14 1.84089e-16 0)
(-2.78765e-14 1.04826e-16 0)
(-3.38248e-14 1.54207e-16 0)
(-3.79572e-14 1.10239e-15 0)
(-4.09472e-14 1.98656e-15 0)
(-4.36215e-14 2.62342e-15 0)
(-4.60267e-14 2.57587e-15 0)
(-4.88063e-14 3.94691e-15 0)
(-5.15748e-14 6.31243e-15 0)
(-5.42827e-14 7.08081e-15 0)
(-5.72094e-14 7.22948e-15 0)
(-5.99486e-14 7.7805e-15 0)
(-6.25186e-14 7.49346e-15 0)
(-6.39839e-14 7.39297e-15 0)
(-6.31363e-14 6.32149e-15 0)
(-6.06589e-14 4.02942e-15 0)
(-5.79661e-14 1.33844e-15 0)
(-5.47922e-14 3.40901e-16 0)
(-5.06669e-14 7.38874e-16 0)
(-4.70574e-14 1.29833e-15 0)
(-4.50053e-14 1.21042e-15 0)
(-4.45011e-14 6.96543e-16 0)
(-4.55123e-14 2.45452e-16 0)
(-4.65436e-14 4.43516e-16 0)
(-4.6333e-14 5.44578e-16 0)
(-4.50768e-14 8.40989e-16 0)
(-4.36838e-14 6.92311e-16 0)
(-4.26115e-14 -8.75527e-16 0)
(-4.1294e-14 -2.17339e-15 0)
(-3.94288e-14 -4.13914e-15 0)
(-3.7282e-14 -5.92521e-15 0)
(-3.51902e-14 -7.57295e-15 0)
(-3.32823e-14 -8.81861e-15 0)
(-3.16847e-14 -9.67769e-15 0)
(-3.00701e-14 -1.02697e-14 0)
(-2.78387e-14 -1.01721e-14 0)
(-2.56338e-14 -1.01303e-14 0)
(-2.40111e-14 -1.02777e-14 0)
(-2.25662e-14 -1.00292e-14 0)
(-2.15266e-14 -1.00646e-14 0)
(-2.07561e-14 -9.29415e-15 0)
(-1.95707e-14 -9.22827e-15 0)
(-1.79335e-14 -9.67204e-15 0)
(-1.56689e-14 -9.42258e-15 0)
(-1.37738e-14 -8.66438e-15 0)
(-1.24908e-14 -7.36256e-15 0)
(-1.10617e-14 -6.22041e-15 0)
(-9.1383e-15 -5.23276e-15 0)
(-6.35791e-15 -3.83309e-15 0)
(-2.71657e-15 -2.38103e-15 0)
(1.76799e-15 -1.03431e-15 0)
(6.50184e-15 2.98336e-16 0)
(1.18739e-14 1.68378e-15 0)
(1.76346e-14 2.70896e-15 0)
(2.1798e-14 3.43298e-15 0)
(2.39652e-14 4.79363e-15 0)
(2.49245e-14 6.11972e-15 0)
(2.5032e-14 7.57215e-15 0)
(2.53867e-14 8.63106e-15 0)
(2.68923e-14 9.12621e-15 0)
(2.87181e-14 1.02917e-14 0)
(3.02926e-14 1.15966e-14 0)
(3.1911e-14 1.31395e-14 0)
(3.37227e-14 1.36719e-14 0)
(3.56879e-14 1.41288e-14 0)
(3.77231e-14 1.38075e-14 0)
(3.92947e-14 1.37216e-14 0)
(3.98478e-14 1.36642e-14 0)
(3.98914e-14 1.31458e-14 0)
(4.05565e-14 1.27481e-14 0)
(4.1901e-14 1.24962e-14 0)
(4.3093e-14 1.20585e-14 0)
(4.4077e-14 1.09413e-14 0)
(4.41987e-14 9.83072e-15 0)
(4.30406e-14 8.97537e-15 0)
(4.07759e-14 8.33837e-15 0)
(3.88505e-14 7.86597e-15 0)
(3.88119e-14 7.48467e-15 0)
(4.00358e-14 7.20928e-15 0)
(4.24958e-14 6.17889e-15 0)
(4.56081e-14 5.16586e-15 0)
(4.75628e-14 4.40183e-15 0)
(4.79519e-14 3.79898e-15 0)
(4.7165e-14 2.61963e-15 0)
(4.52129e-14 1.59879e-15 0)
(4.28749e-14 4.83815e-16 0)
(4.04855e-14 -7.73271e-16 0)
(3.7507e-14 -1.11638e-15 0)
(3.41044e-14 -1.49728e-15 0)
(3.03907e-14 -2.09851e-15 0)
(2.59418e-14 -1.70232e-15 0)
(2.07197e-14 -1.72437e-15 0)
(1.51411e-14 -2.01801e-15 0)
(1.02149e-14 -1.78655e-15 0)
(6.13159e-15 -1.04765e-15 0)
(2.25769e-15 -3.13084e-16 0)
(-2.68228e-15 -1.86979e-16 0)
(-8.19662e-15 -4.74703e-16 0)
(-1.43354e-14 -3.49976e-16 0)
(-2.01385e-14 3.86241e-16 0)
(-2.55885e-14 6.54265e-16 0)
(-3.19615e-14 2.34224e-16 0)
(-3.79702e-14 7.41833e-16 0)
(-4.25191e-14 2.24968e-15 0)
(-4.60602e-14 3.54799e-15 0)
(-4.96979e-14 4.45694e-15 0)
(-5.26876e-14 4.26865e-15 0)
(-5.48235e-14 4.72133e-15 0)
(-5.79201e-14 6.4357e-15 0)
(-6.15751e-14 7.33646e-15 0)
(-6.46768e-14 8.25279e-15 0)
(-6.78925e-14 9.0275e-15 0)
(-7.08762e-14 8.7155e-15 0)
(-7.26123e-14 8.33552e-15 0)
(-7.25421e-14 7.34259e-15 0)
(-7.05604e-14 5.42051e-15 0)
(-6.72368e-14 3.00602e-15 0)
(-6.26442e-14 1.77618e-15 0)
(-5.77723e-14 1.31172e-15 0)
(-5.42038e-14 9.86218e-16 0)
(-5.23494e-14 6.1875e-16 0)
(-5.18382e-14 -6.66371e-17 0)
(-5.22801e-14 -8.01575e-16 0)
(-5.29174e-14 -4.28572e-16 0)
(-5.25956e-14 -3.94527e-16 0)
(-5.11379e-14 -9.02182e-17 0)
(-5.0166e-14 -3.6125e-16 0)
(-4.94498e-14 -1.46811e-15 0)
(-4.8088e-14 -2.99029e-15 0)
(-4.61123e-14 -5.29825e-15 0)
(-4.35109e-14 -7.37342e-15 0)
(-4.10111e-14 -8.74029e-15 0)
(-3.87054e-14 -1.00879e-14 0)
(-3.66179e-14 -1.12173e-14 0)
(-3.45305e-14 -1.1795e-14 0)
(-3.19707e-14 -1.18765e-14 0)
(-2.95936e-14 -1.19701e-14 0)
(-2.74766e-14 -1.20069e-14 0)
(-2.59374e-14 -1.15822e-14 0)
(-2.46143e-14 -1.17374e-14 0)
(-2.34307e-14 -1.13208e-14 0)
(-2.26203e-14 -1.13222e-14 0)
(-2.06576e-14 -1.13831e-14 0)
(-1.77049e-14 -1.09064e-14 0)
(-1.52595e-14 -9.86802e-15 0)
(-1.34804e-14 -8.83765e-15 0)
(-1.17889e-14 -7.68915e-15 0)
(-9.51279e-15 -6.13422e-15 0)
(-6.23428e-15 -4.51899e-15 0)
(-2.14514e-15 -2.82375e-15 0)
(2.80173e-15 -1.37291e-15 0)
(8.18937e-15 3.05225e-16 0)
(1.40114e-14 2.11303e-15 0)
(1.99924e-14 3.79787e-15 0)
(2.47089e-14 4.67792e-15 0)
(2.76005e-14 5.79345e-15 0)
(2.89324e-14 7.01394e-15 0)
(2.92017e-14 8.60357e-15 0)
(2.9479e-14 1.06305e-14 0)
(3.10285e-14 1.18579e-14 0)
(3.32008e-14 1.26892e-14 0)
(3.53618e-14 1.32396e-14 0)
(3.71961e-14 1.47363e-14 0)
(3.88376e-14 1.55955e-14 0)
(4.06431e-14 1.60386e-14 0)
(4.28617e-14 1.57852e-14 0)
(4.49684e-14 1.59392e-14 0)
(4.53552e-14 1.59114e-14 0)
(4.52816e-14 1.51207e-14 0)
(4.62787e-14 1.44413e-14 0)
(4.77384e-14 1.40713e-14 0)
(4.87803e-14 1.35998e-14 0)
(4.96156e-14 1.2824e-14 0)
(4.97603e-14 1.15532e-14 0)
(4.86689e-14 1.06927e-14 0)
(4.66356e-14 9.72721e-15 0)
(4.4896e-14 9.32427e-15 0)
(4.48928e-14 8.89209e-15 0)
(4.5951e-14 8.24063e-15 0)
(4.80557e-14 7.28778e-15 0)
(5.10894e-14 5.68045e-15 0)
(5.33484e-14 4.50673e-15 0)
(5.3856e-14 3.65613e-15 0)
(5.2696e-14 2.69691e-15 0)
(5.04747e-14 1.07997e-15 0)
(4.77585e-14 -3.29563e-16 0)
(4.52909e-14 -1.76685e-15 0)
(4.23756e-14 -2.21622e-15 0)
(3.82946e-14 -2.60646e-15 0)
(3.42324e-14 -3.2438e-15 0)
(2.93325e-14 -3.07128e-15 0)
(2.32315e-14 -2.97614e-15 0)
(1.71821e-14 -2.8959e-15 0)
(1.18288e-14 -2.39169e-15 0)
(7.20286e-15 -1.33979e-15 0)
(2.59262e-15 -4.1587e-16 0)
(-3.05174e-15 2.28037e-17 0)
(-9.31022e-15 9.57194e-17 0)
(-1.57985e-14 1.60746e-16 0)
(-2.21415e-14 4.57243e-16 0)
(-2.87942e-14 8.00468e-16 0)
(-3.57481e-14 1.07667e-15 0)
(-4.15431e-14 2.32839e-15 0)
(-4.6231e-14 3.70482e-15 0)
(-5.06578e-14 4.80689e-15 0)
(-5.52993e-14 5.52866e-15 0)
(-5.8822e-14 6.00184e-15 0)
(-6.09084e-14 6.07728e-15 0)
(-6.39713e-14 6.5642e-15 0)
(-6.77899e-14 7.81202e-15 0)
(-7.12152e-14 9.05029e-15 0)
(-7.51355e-14 9.67624e-15 0)
(-7.86994e-14 9.4786e-15 0)
(-8.06719e-14 8.95049e-15 0)
(-8.08262e-14 8.27772e-15 0)
(-7.91409e-14 6.57068e-15 0)
(-7.56015e-14 4.32398e-15 0)
(-7.06145e-14 2.3511e-15 0)
(-6.5434e-14 1.23974e-15 0)
(-6.13679e-14 5.32813e-16 0)
(-5.92116e-14 -4.94747e-16 0)
(-5.86379e-14 -1.06049e-15 0)
(-5.85647e-14 -1.69475e-15 0)
(-5.8739e-14 -1.30434e-15 0)
(-5.82616e-14 -1.11501e-15 0)
(-5.68551e-14 -1.01265e-15 0)
(-5.6072e-14 -1.75862e-15 0)
(-5.54657e-14 -2.63368e-15 0)
(-5.45783e-14 -4.68169e-15 0)
(-5.26866e-14 -7.18822e-15 0)
(-4.94433e-14 -9.02263e-15 0)
(-4.64399e-14 -1.01662e-14 0)
(-4.39955e-14 -1.12517e-14 0)
(-4.14622e-14 -1.28007e-14 0)
(-3.86882e-14 -1.3359e-14 0)
(-3.57065e-14 -1.36232e-14 0)
(-3.30952e-14 -1.37036e-14 0)
(-3.07515e-14 -1.35856e-14 0)
(-2.90735e-14 -1.38567e-14 0)
(-2.77048e-14 -1.41929e-14 0)
(-2.6444e-14 -1.42616e-14 0)
(-2.51924e-14 -1.372e-14 0)
(-2.27673e-14 -1.29274e-14 0)
(-1.92533e-14 -1.2076e-14 0)
(-1.64977e-14 -1.11373e-14 0)
(-1.46449e-14 -1.03279e-14 0)
(-1.22797e-14 -9.08179e-15 0)
(-9.37925e-15 -7.20922e-15 0)
(-5.75993e-15 -5.2815e-15 0)
(-1.38902e-15 -3.35082e-15 0)
(4.04431e-15 -1.22129e-15 0)
(1.00797e-14 8.11024e-16 0)
(1.65116e-14 2.82978e-15 0)
(2.2589e-14 4.95365e-15 0)
(2.72207e-14 6.1266e-15 0)
(3.03921e-14 7.04364e-15 0)
(3.23335e-14 7.83457e-15 0)
(3.35788e-14 9.33835e-15 0)
(3.41612e-14 1.17617e-14 0)
(3.52678e-14 1.3848e-14 0)
(3.70916e-14 1.48058e-14 0)
(3.96831e-14 1.51302e-14 0)
(4.20858e-14 1.59082e-14 0)
(4.36915e-14 1.68821e-14 0)
(4.53939e-14 1.767e-14 0)
(4.77335e-14 1.79868e-14 0)
(4.99314e-14 1.79774e-14 0)
(5.01892e-14 1.74606e-14 0)
(5.00994e-14 1.70866e-14 0)
(5.13733e-14 1.63403e-14 0)
(5.31229e-14 1.55952e-14 0)
(5.42099e-14 1.5034e-14 0)
(5.4725e-14 1.41016e-14 0)
(5.48221e-14 1.30015e-14 0)
(5.38636e-14 1.23959e-14 0)
(5.18926e-14 1.14708e-14 0)
(5.03468e-14 1.10312e-14 0)
(5.01693e-14 1.03222e-14 0)
(5.11056e-14 9.20036e-15 0)
(5.29797e-14 8.23586e-15 0)
(5.60222e-14 6.51903e-15 0)
(5.85516e-14 4.92741e-15 0)
(5.90038e-14 3.60233e-15 0)
(5.74208e-14 2.36571e-15 0)
(5.47515e-14 3.22049e-16 0)
(5.19973e-14 -1.26821e-15 0)
(4.96024e-14 -2.51401e-15 0)
(4.65255e-14 -3.35617e-15 0)
(4.19703e-14 -3.83264e-15 0)
(3.75288e-14 -4.38759e-15 0)
(3.23754e-14 -4.52031e-15 0)
(2.57631e-14 -3.84308e-15 0)
(1.91026e-14 -3.71336e-15 0)
(1.34676e-14 -3.33454e-15 0)
(8.24979e-15 -2.08594e-15 0)
(2.81127e-15 -7.15859e-16 0)
(-3.35543e-15 2.16986e-16 0)
(-1.02622e-14 4.51275e-16 0)
(-1.76397e-14 8.0698e-16 0)
(-2.45832e-14 1.07805e-15 0)
(-3.13234e-14 1.49303e-15 0)
(-3.8229e-14 2.48254e-15 0)
(-4.45417e-14 4.04172e-15 0)
(-5.02092e-14 5.16677e-15 0)
(-5.5129e-14 5.85713e-15 0)
(-6.00234e-14 6.6275e-15 0)
(-6.41948e-14 7.37844e-15 0)
(-6.69481e-14 7.31836e-15 0)
(-6.97284e-14 7.54264e-15 0)
(-7.32845e-14 8.79339e-15 0)
(-7.71938e-14 9.68906e-15 0)
(-8.17042e-14 9.88173e-15 0)
(-8.56602e-14 9.7872e-15 0)
(-8.77524e-14 9.07329e-15 0)
(-8.8443e-14 8.51125e-15 0)
(-8.74143e-14 6.8647e-15 0)
(-8.401e-14 4.76778e-15 0)
(-7.8264e-14 2.11939e-15 0)
(-7.21242e-14 3.99578e-16 0)
(-6.81545e-14 -4.57985e-16 0)
(-6.58656e-14 -1.2673e-15 0)
(-6.47512e-14 -1.94384e-15 0)
(-6.41936e-14 -2.24289e-15 0)
(-6.39341e-14 -1.77712e-15 0)
(-6.35157e-14 -1.5524e-15 0)
(-6.24034e-14 -2.00746e-15 0)
(-6.17747e-14 -3.27593e-15 0)
(-6.16219e-14 -4.63605e-15 0)
(-6.10645e-14 -6.90933e-15 0)
(-5.85484e-14 -9.4293e-15 0)
(-5.45802e-14 -1.10655e-14 0)
(-5.11835e-14 -1.22179e-14 0)
(-4.884e-14 -1.2946e-14 0)
(-4.60277e-14 -1.4251e-14 0)
(-4.26514e-14 -1.47446e-14 0)
(-3.93956e-14 -1.52962e-14 0)
(-3.64049e-14 -1.61118e-14 0)
(-3.41126e-14 -1.61579e-14 0)
(-3.25995e-14 -1.64707e-14 0)
(-3.08086e-14 -1.6686e-14 0)
(-2.86334e-14 -1.64827e-14 0)
(-2.68146e-14 -1.5596e-14 0)
(-2.42282e-14 -1.46179e-14 0)
(-2.07564e-14 -1.32999e-14 0)
(-1.79088e-14 -1.29596e-14 0)
(-1.54339e-14 -1.18477e-14 0)
(-1.24361e-14 -1.00673e-14 0)
(-9.06358e-15 -7.81118e-15 0)
(-5.0643e-15 -5.59084e-15 0)
(-6.04871e-17 -3.31414e-15 0)
(5.80789e-15 -6.82223e-16 0)
(1.20149e-14 1.42026e-15 0)
(1.88157e-14 3.82343e-15 0)
(2.50483e-14 5.49648e-15 0)
(2.96743e-14 6.89601e-15 0)
(3.29878e-14 8.139e-15 0)
(3.53646e-14 9.43247e-15 0)
(3.73778e-14 1.10004e-14 0)
(3.85827e-14 1.27459e-14 0)
(3.95357e-14 1.51236e-14 0)
(4.08963e-14 1.61921e-14 0)
(4.34229e-14 1.66617e-14 0)
(4.6246e-14 1.66761e-14 0)
(4.84081e-14 1.75039e-14 0)
(5.02291e-14 1.89206e-14 0)
(5.23285e-14 1.98263e-14 0)
(5.42445e-14 1.98543e-14 0)
(5.47359e-14 1.91368e-14 0)
(5.48184e-14 1.88702e-14 0)
(5.5822e-14 1.82029e-14 0)
(5.76502e-14 1.70084e-14 0)
(5.87336e-14 1.56251e-14 0)
(5.92915e-14 1.45775e-14 0)
(5.97351e-14 1.39616e-14 0)
(5.87852e-14 1.37834e-14 0)
(5.68688e-14 1.31133e-14 0)
(5.5294e-14 1.25631e-14 0)
(5.48224e-14 1.18433e-14 0)
(5.575e-14 1.07559e-14 0)
(5.74775e-14 9.40208e-15 0)
(6.00811e-14 7.46e-15 0)
(6.25942e-14 5.23911e-15 0)
(6.32335e-14 3.34994e-15 0)
(6.12987e-14 1.67742e-15 0)
(5.8439e-14 -9.64147e-17 0)
(5.57912e-14 -1.77204e-15 0)
(5.32136e-14 -3.15204e-15 0)
(5.0066e-14 -4.51211e-15 0)
(4.52688e-14 -4.97011e-15 0)
(4.0416e-14 -5.22561e-15 0)
(3.52793e-14 -5.4425e-15 0)
(2.8143e-14 -4.7787e-15 0)
(2.05704e-14 -4.60889e-15 0)
(1.46647e-14 -4.27401e-15 0)
(9.32062e-15 -2.95219e-15 0)
(3.33763e-15 -9.697e-16 0)
(-3.73203e-15 1.7979e-16 0)
(-1.11999e-14 6.09645e-16 0)
(-1.88851e-14 1.38224e-15 0)
(-2.63654e-14 2.54467e-15 0)
(-3.3607e-14 3.40984e-15 0)
(-4.07674e-14 4.20462e-15 0)
(-4.74335e-14 5.08301e-15 0)
(-5.36445e-14 6.11323e-15 0)
(-5.91256e-14 6.69152e-15 0)
(-6.44288e-14 7.52669e-15 0)
(-6.91884e-14 8.24948e-15 0)
(-7.22126e-14 8.66885e-15 0)
(-7.47849e-14 9.39065e-15 0)
(-7.84993e-14 9.87329e-15 0)
(-8.30012e-14 1.00734e-14 0)
(-8.7852e-14 9.6895e-15 0)
(-9.21859e-14 9.55255e-15 0)
(-9.4507e-14 8.75317e-15 0)
(-9.52587e-14 8.14903e-15 0)
(-9.45328e-14 6.92233e-15 0)
(-9.14992e-14 5.17755e-15 0)
(-8.59639e-14 2.73248e-15 0)
(-7.91741e-14 7.53175e-17 0)
(-7.41387e-14 -1.4591e-15 0)
(-7.15522e-14 -2.21626e-15 0)
(-7.03146e-14 -3.02535e-15 0)
(-6.91215e-14 -2.72293e-15 0)
(-6.86319e-14 -2.48872e-15 0)
(-6.85414e-14 -2.48927e-15 0)
(-6.79221e-14 -3.34599e-15 0)
(-6.74734e-14 -5.11078e-15 0)
(-6.72627e-14 -6.97607e-15 0)
(-6.68834e-14 -9.0359e-15 0)
(-6.41863e-14 -1.13026e-14 0)
(-5.9613e-14 -1.27735e-14 0)
(-5.563e-14 -1.45107e-14 0)
(-5.29942e-14 -1.52197e-14 0)
(-4.99868e-14 -1.59462e-14 0)
(-4.63559e-14 -1.65692e-14 0)
(-4.33096e-14 -1.74806e-14 0)
(-4.00321e-14 -1.8652e-14 0)
(-3.70322e-14 -1.89594e-14 0)
(-3.51938e-14 -1.86707e-14 0)
(-3.31511e-14 -1.82213e-14 0)
(-3.07658e-14 -1.80752e-14 0)
(-2.86074e-14 -1.78555e-14 0)
(-2.55069e-14 -1.68428e-14 0)
(-2.20829e-14 -1.5416e-14 0)
(-1.90741e-14 -1.46936e-14 0)
(-1.57212e-14 -1.30975e-14 0)
(-1.20247e-14 -1.05834e-14 0)
(-8.25085e-15 -7.89224e-15 0)
(-3.99897e-15 -5.15546e-15 0)
(1.36083e-15 -2.53571e-15 0)
(7.4126e-15 -3.31744e-16 0)
(1.40658e-14 2.08574e-15 0)
(2.09763e-14 4.75473e-15 0)
(2.70847e-14 6.13262e-15 0)
(3.21164e-14 7.43527e-15 0)
(3.58591e-14 8.95518e-15 0)
(3.86223e-14 1.06403e-14 0)
(4.07284e-14 1.2281e-14 0)
(4.23968e-14 1.38772e-14 0)
(4.34764e-14 1.5953e-14 0)
(4.43628e-14 1.71183e-14 0)
(4.66475e-14 1.78386e-14 0)
(4.97848e-14 1.81854e-14 0)
(5.28886e-14 1.87576e-14 0)
(5.50997e-14 1.96501e-14 0)
(5.6842e-14 2.0731e-14 0)
(5.82333e-14 2.09864e-14 0)
(5.86198e-14 2.04654e-14 0)
(5.88694e-14 1.98364e-14 0)
(5.9721e-14 1.91119e-14 0)
(6.11603e-14 1.77616e-14 0)
(6.25241e-14 1.6011e-14 0)
(6.37225e-14 1.54169e-14 0)
(6.45306e-14 1.49638e-14 0)
(6.35676e-14 1.46338e-14 0)
(6.13396e-14 1.41861e-14 0)
(5.9773e-14 1.35412e-14 0)
(5.92249e-14 1.31724e-14 0)
(5.97255e-14 1.21314e-14 0)
(6.09924e-14 1.00295e-14 0)
(6.33861e-14 7.60817e-15 0)
(6.58847e-14 5.44272e-15 0)
(6.65881e-14 3.38683e-15 0)
(6.48373e-14 1.37275e-15 0)
(6.17995e-14 -1.12241e-16 0)
(5.88476e-14 -1.9767e-15 0)
(5.60739e-14 -3.79077e-15 0)
(5.29428e-14 -4.96645e-15 0)
(4.83522e-14 -5.68354e-15 0)
(4.3134e-14 -5.59801e-15 0)
(3.76061e-14 -5.16653e-15 0)
(3.01389e-14 -5.12869e-15 0)
(2.20091e-14 -5.36111e-15 0)
(1.58946e-14 -5.14285e-15 0)
(1.04312e-14 -3.69932e-15 0)
(3.79266e-15 -1.11926e-15 0)
(-3.97184e-15 2.81754e-16 0)
(-1.18191e-14 1.28089e-15 0)
(-1.97651e-14 2.45422e-15 0)
(-2.76683e-14 3.80623e-15 0)
(-3.56411e-14 4.79417e-15 0)
(-4.34364e-14 5.78253e-15 0)
(-5.04094e-14 6.56968e-15 0)
(-5.70598e-14 7.05885e-15 0)
(-6.28109e-14 7.28498e-15 0)
(-6.82133e-14 8.03552e-15 0)
(-7.32341e-14 9.26139e-15 0)
(-7.64627e-14 1.0131e-14 0)
(-7.96005e-14 1.05568e-14 0)
(-8.38696e-14 1.05699e-14 0)
(-8.8666e-14 1.00851e-14 0)