/*--------------------------------*- C++ -*----------------------------------*\
| =========                 |                                                 |
| \\      /  F ield         | OpenFOAM: The Open Source CFD Toolbox           |
|  \\    /   O peration     | Version:  v2012                                 |
|   \\  /    A nd           | Website:  www.openfoam.com                      |
|    \\/     M anipulation  |                                                 |
\*---------------------------------------------------------------------------*/
FoamFile
{
    version     2.0;
    format      ascii;
    class       volVectorField;
    location    "0";
    object      U;
}
// * * * * * * * * * * * * * * * * * * * * * * * * * * * * * * * * * * * * * //

dimensions      [0 1 -1 0 0 0 0];


internalField   nonuniform List<vector> 
4000
(
(1 2.7207e-15 0)
(1 4.15191e-15 0)
(1 -4.71381e-16 0)
(1 1.75728e-15 0)
(1 -1.71632e-15 0)
(1 -4.94065e-15 0)
(1 5.62003e-15 0)
(1 2.18373e-15 0)
(1 1.22814e-15 0)
(1 -3.38492e-15 0)
(1 -4.04239e-15 0)
(1 -3.54183e-15 0)
(1 2.37259e-15 0)
(1 7.1559e-15 0)
(1 -2.55139e-15 0)
(1 -4.76215e-15 0)
(1 1.99454e-16 0)
(1 -1.54708e-15 0)
(1 -5.72751e-16 0)
(1 -1.44941e-15 0)
(1 -2.73387e-15 0)
(1 5.25382e-16 0)
(1 -5.36392e-16 0)
(1 -1.54758e-16 0)
(1 6.91376e-15 0)
(1 7.528e-16 0)
(1 -7.90523e-15 0)
(1 -8.01196e-15 0)
(1 -4.81067e-15 0)
(1 5.65721e-15 0)
(1 2.7131e-15 0)
(1 1.65638e-15 0)
(1 -6.44265e-15 0)
(1 6.78203e-15 0)
(1 1.39515e-15 0)
(1 6.56592e-15 0)
(1 7.39585e-15 0)
(1 4.97253e-15 0)
(1 1.15795e-15 0)
(1 -6.23024e-15 0)
(1 -2.63964e-15 0)
(1 -6.81258e-15 0)
(1 -1.28934e-15 0)
(1 2.47911e-15 0)
(1 3.72639e-15 0)
(1 -1.1266e-15 0)
(1 1.24285e-15 0)
(1 2.07265e-15 0)
(1 -1.66567e-15 0)
(1 4.54172e-15 0)
(1 2.65814e-15 0)
(1 1.29451e-15 0)
(1 9.58697e-16 0)
(1 1.38994e-15 0)
(1 -1.24849e-15 0)
(1 3.59256e-15 0)
(1 -1.59985e-16 0)
(1 1.26505e-16 0)
(1 -1.14632e-15 0)
(1 4.67863e-15 0)
(1 1.16815e-15 0)
(1 4.69662e-16 0)
(1 -2.33377e-15 0)
(1 -4.26029e-15 0)
(1 -1.67038e-15 0)
(1 -1.39483e-15 0)
(1 1.27981e-16 0)
(1 2.2748e-15 0)
(1 2.88495e-15 0)
(1 -9.17758e-18 0)
(1 -2.00388e-15 0)
(1 -2.24833e-15 0)
(1 -6.67762e-15 0)
(1 -3.48888e-15 0)
(1 -4.35169e-15 0)
(1 -1.92166e-15 0)
(1 -3.85264e-15 0)
(1 -3.75682e-15 0)
(1 9.22889e-16 0)
(1 8.54772e-16 0)
(1 3.12862e-15 0)
(1 4.49828e-15 0)
(1 -1.97008e-15 0)
(1 -4.38838e-15 0)
(1 9.90108e-16 0)
(1 1.29203e-15 0)
(1 9.27626e-16 0)
(1 1.14477e-16 0)
(1 -1.21069e-15 0)
(1 3.93392e-15 0)
(1 2.27611e-15 0)
(1 1.50551e-15 0)
(1 -1.9775e-15 0)
(1 1.37652e-15 0)
(1 2.12085e-15 0)
(1 -1.17241e-15 0)
(1 -2.37903e-15 0)
(1 1.5192e-15 0)
(1 1.41061e-16 0)
(1 -1.94053e-15 0)
(1 3.35565e-15 0)
(1 3.58164e-15 0)
(1 7.2216e-16 0)
(1 1.60301e-15 0)
(1 -3.59205e-15 0)
(1 -5.47174e-15 0)
(1 2.75035e-15 0)
(1 2.43365e-15 0)
(1 1.21675e-15 0)
(1 2.01278e-15 0)
(1 -2.34064e-15 0)
(1 -6.57906e-15 0)
(1 1.09349e-15 0)
(1 7.80833e-15 0)
(1 -2.64688e-15 0)
(1 -5.17411e-15 0)
(1 3.0654e-15 0)
(1 2.19185e-15 0)
(1 2.51088e-15 0)
(1 1.3138e-15 0)
(1 -4.04609e-15 0)
(1 -8.70536e-16 0)
(1 -1.55558e-15 0)
(1 -6.90093e-16 0)
(1 3.1749e-16 0)
(1 -4.16434e-16 0)
(1 -3.1778e-15 0)
(1 -8.7763e-15 0)
(1 -5.58448e-15 0)
(1 5.29954e-15 0)
(1 2.18001e-15 0)
(1 5.0623e-16 0)
(1 -8.27358e-15 0)
(1 6.50975e-15 0)
(1 -3.39137e-15 0)
(1 3.91414e-15 0)
(1 9.76677e-15 0)
(1 1.04774e-14 0)
(1 -4.79075e-15 0)
(1 -5.68895e-15 0)
(1 -3.7452e-15 0)
(1 -3.13726e-15 0)
(1 -2.00969e-15 0)
(1 3.85544e-15 0)
(1 -5.43886e-16 0)
(1 -6.2051e-15 0)
(1 -6.78616e-15 0)
(1 -2.28327e-16 0)
(1 3.64477e-15 0)
(1 5.11651e-15 0)
(1 7.56779e-15 0)
(1 -1.41157e-15 0)
(1 -3.42101e-15 0)
(1 4.84436e-16 0)
(1 1.36145e-15 0)
(1 2.41177e-15 0)
(1 -8.50061e-16 0)
(1 -2.04896e-15 0)
(1 -2.64352e-15 0)
(1 -1.45496e-15 0)
(1 -1.65936e-15 0)
(1 1.98242e-15 0)
(1 1.43049e-15 0)
(1 6.30397e-16 0)
(1 1.74676e-16 0)
(1 1.85689e-15 0)
(1 1.3629e-15 0)
(1 -2.63566e-16 0)
(1 2.71699e-15 0)
(1 -1.19662e-15 0)
(1 4.85602e-16 0)
(1 1.05175e-16 0)
(1 2.0521e-15 0)
(1 4.79721e-15 0)
(1 3.83192e-15 0)
(1 -1.16838e-15 0)
(1 -2.80239e-15 0)
(1 -2.85395e-15 0)
(1 1.56132e-16 0)
(1 1.66279e-15 0)
(1 3.03308e-15 0)
(1 -5.4772e-16 0)
(1 -2.45302e-15 0)
(1 1.14474e-15 0)
(1 4.94802e-15 0)
(1 4.54482e-15 0)
(1 -7.68773e-17 0)
(1 -5.40044e-15 0)
(1 -2.74715e-15 0)
(1 -3.24543e-16 0)
(1 2.94014e-16 0)
(1 3.08934e-15 0)
(1 -1.78001e-15 0)
(1 1.83975e-15 0)
(1 -1.37336e-15 0)
(1 -8.26117e-16 0)
(1 -1.88839e-15 0)
(1 3.8457e-15 0)
(1 -2.44977e-15 0)
(1 -4.54199e-15 0)
(1 -4.22888e-15 0)
(1 4.57657e-15 0)
(1 -6.11951e-15 0)
(1 2.3526e-15 0)
(1 -6.21794e-16 0)
(1 7.9379e-16 0)
(1 -2.81373e-16 0)
(1 1.02587e-14 0)
(1 5.77246e-15 0)
(1 -1.05083e-15 0)
(1 -4.23777e-15 0)
(1 -3.84185e-15 0)
(1 -2.18934e-16 0)
(1 5.38044e-15 0)
(1 1.3389e-15 0)
(1 -7.88103e-15 0)
(1 1.97222e-15 0)
(1 3.14502e-15 0)
(1 2.77226e-15 0)
(1 1.48877e-15 0)
(1 4.31315e-16 0)
(1 -2.9012e-15 0)
(1 -1.87404e-15 0)
(1 1.77331e-15 0)
(1 7.76857e-16 0)
(1 3.68216e-15 0)
(1 4.79199e-15 0)
(1 4.72206e-15 0)
(1 4.32402e-15 0)
(1 3.7683e-15 0)
(1 -5.09141e-16 0)
(1 -5.69179e-15 0)
(1 -1.89675e-15 0)
(1 -7.76153e-15 0)
(1 -4.25463e-15 0)
(1 5.1867e-16 0)
(1 4.19082e-15 0)
(1 3.24026e-15 0)
(1 -2.12899e-15 0)
(1 3.39616e-15 0)
(1 3.08215e-15 0)
(1 -4.96473e-16 0)
(1 6.54742e-16 0)
(1 1.25955e-15 0)
(1 1.04017e-15 0)
(1 2.36408e-15 0)
(1 -2.64851e-15 0)
(1 3.57127e-16 0)
(1 2.41919e-15 0)
(1 -2.69822e-15 0)
(1 7.28861e-15 0)
(1 1.77038e-15 0)
(1 1.4173e-15 0)
(1 -2.44525e-15 0)
(1 1.273e-15 0)
(1 -1.02267e-15 0)
(1 -3.8242e-16 0)
(1 -2.66607e-15 0)
(1 6.563e-16 0)
(1 -5.2447e-15 0)
(1 -9.39943e-16 0)
(1 4.9668e-15 0)
(1 1.53564e-15 0)
(1 -1.93257e-15 0)
(1 -1.72497e-15 0)
(1 2.30691e-16 0)
(1 3.22939e-15 0)
(1 6.79811e-16 0)
(1 3.10326e-16 0)
(1 -9.49572e-16 0)
(1 2.64087e-15 0)
(1 -2.46079e-15 0)
(1 -1.88707e-16 0)
(1 -1.40382e-15 0)
(1 -1.34841e-15 0)
(1 -4.98867e-15 0)
(1 -1.42406e-16 0)
(1 1.9466e-15 0)
(1 -1.12683e-15 0)
(1 -1.97812e-15 0)
(1 -3.04641e-15 0)
(1 -1.28949e-15 0)
(1 3.24323e-17 0)
(1 1.74011e-15 0)
(1 2.94245e-16 0)
(1 2.37953e-15 0)
(1 3.43697e-17 0)
(1 -1.16363e-15 0)
(1 2.66209e-16 0)
(1 2.07541e-15 0)
(1 1.51635e-15 0)
(1 3.16645e-15 0)
(1 -1.42512e-15 0)
(1 -1.96657e-15 0)
(1 -1.91733e-15 0)
(1 -1.14619e-15 0)
(1 1.65712e-15 0)
(1 -2.2109e-15 0)
(1 -3.90364e-15 0)
(1 -8.19068e-16 0)
(1 -7.57169e-16 0)
(1 -3.75876e-15 0)
(1 -5.31371e-15 0)
(1 -6.0423e-15 0)
(1 5.48629e-15 0)
(1 7.13964e-15 0)
(1 3.11159e-15 0)
(1 8.53931e-15 0)
(1 3.09362e-15 0)
(1 -2.60723e-15 0)
(1 -5.01438e-15 0)
(1 -2.58654e-15 0)
(1 4.84361e-15 0)
(1 9.83737e-15 0)
(1 7.47653e-15 0)
(1 -4.35148e-15 0)
(1 -3.3337e-15 0)
(1 1.24241e-15 0)
(1 -2.56118e-15 0)
(1 5.54459e-15 0)
(1 4.21845e-15 0)
(1 -4.43822e-15 0)
(1 1.51748e-15 0)
(1 7.15879e-15 0)
(1 1.53697e-14 0)
(1 1.35068e-14 0)
(1 1.81372e-15 0)
(1 -1.13313e-15 0)
(1 -2.11677e-15 0)
(1 1.40181e-15 0)
(1 -5.7459e-15 0)
(1 -7.29407e-15 0)
(1 -4.17458e-15 0)
(1 -9.85709e-15 0)
(1 -9.66145e-16 0)
(1 -5.03831e-15 0)
(1 3.40179e-15 0)
(1 -3.81749e-16 0)
(1 1.46194e-14 0)
(1 -1.11332e-15 0)
(1 2.94618e-15 0)
(1 -4.83008e-15 0)
(1 1.51749e-15 0)
(1 -3.87861e-15 0)
(1 2.97008e-15 0)
(1 6.659e-15 0)
(1 8.51495e-15 0)
(1 2.58443e-15 0)
(1 9.84588e-16 0)
(1 4.00755e-15 0)
(1 6.35487e-15 0)
(1 4.44111e-15 0)
(1 -2.37314e-16 0)
(1 -6.0127e-15 0)
(1 -1.12566e-15 0)
(1 2.84941e-15 0)
(1 -4.73322e-15 0)
(1 -2.03177e-17 0)
(1 -1.80534e-16 0)
(1 -3.5802e-15 0)
(1 3.65057e-15 0)
(1 3.79221e-15 0)
(1 -6.89796e-16 0)
(1 -2.38516e-15 0)
(1 1.77246e-15 0)
(1 -3.68857e-15 0)
(1 -2.75284e-16 0)
(1 1.14478e-15 0)
(1 -3.27999e-15 0)
(1 -1.43871e-15 0)
(1 4.36713e-15 0)
(1 -4.4235e-15 0)
(1 -8.1439e-15 0)
(1 -8.90254e-15 0)
(1 -7.80677e-15 0)
(1 -6.37202e-15 0)
(1 1.40525e-15 0)
(1 3.21732e-15 0)
(1 5.86756e-17 0)
(1 1.05434e-15 0)
(1 -8.47291e-16 0)
(1 5.70709e-16 0)
(1 3.11837e-16 0)
(1 -1.61071e-15 0)
(1 3.72872e-15 0)
(1 3.46403e-15 0)
(1 5.43353e-15 0)
(1 5.15063e-15 0)
(1 3.72125e-15 0)
(1 5.65973e-15 0)
(1 3.31912e-15 0)
(1 1.55309e-16 0)
(1 1.89748e-15 0)
(1 -7.73372e-17 0)
(1 7.35351e-16 0)
(1 -6.27135e-15 0)
(1 -5.48628e-15 0)
(1 -5.01924e-15 0)
(1 -3.94096e-15 0)
(1 1.54299e-15 0)
(1 5.03879e-15 0)
(1 -2.81734e-15 0)
(1 -6.58985e-16 0)
(1 -5.81971e-16 0)
(1 3.06043e-15 0)
(1 3.09027e-15 0)
(1 -3.83309e-15 0)
(1 -4.52063e-15 0)
(1 -4.34717e-15 0)
(1 -1.33375e-15 0)
(1 4.6158e-15 0)
(1 1.41975e-16 0)
(1 8.6101e-15 0)
(1 -5.1219e-15 0)
(1 1.01711e-14 0)
(1 2.11484e-15 0)
(1 2.37219e-15 0)
(1 -4.15605e-15 0)
(1 1.51925e-15 0)
(1 -5.70215e-15 0)
(1 -4.83457e-15 0)
(1 -8.12949e-15 0)
(1 1.91056e-15 0)
(1 1.28215e-14 0)
(1 1.56952e-14 0)
(1 5.99704e-15 0)
(1 4.60959e-15 0)
(1 3.7968e-15 0)
(1 6.22341e-15 0)
(1 5.80184e-15 0)
(1 -1.59357e-15 0)
(1 -1.4189e-15 0)
(1 -1.11887e-14 0)
(1 -6.14219e-16 0)
(1 -4.18696e-15 0)
(1 -1.50009e-14 0)
(1 -1.86889e-15 0)
(1 -9.34051e-16 0)
(1 6.83251e-15 0)
(1 1.18095e-15 0)
(1 -1.93828e-15 0)
(1 2.51451e-16 0)
(1 -1.73131e-15 0)
(1 1.39343e-15 0)
(1 -3.30187e-15 0)
(1 -3.41642e-15 0)
(1 5.75742e-15 0)
(1 6.71842e-15 0)
(1 5.41447e-15 0)
(1 7.96762e-15 0)
(1 1.11717e-15 0)
(1 1.78993e-15 0)
(1 -7.20186e-15 0)
(1 -4.85449e-15 0)
(1 -3.14173e-15 0)
(1 -2.94208e-16 0)
(1 -8.54957e-16 0)
(1 4.51445e-16 0)
(1 2.87864e-15 0)
(1 3.71047e-15 0)
(1 5.40424e-15 0)
(1 8.49119e-17 0)
(1 6.82468e-16 0)
(1 5.39749e-15 0)
(1 7.69619e-15 0)
(1 3.37156e-15 0)
(1 1.78475e-15 0)
(1 1.40318e-16 0)
(1 -3.66008e-15 0)
(1 -3.47595e-15 0)
(1 1.22286e-16 0)
(1 -4.60344e-15 0)
(1 1.13002e-15 0)
(1 -2.72805e-15 0)
(1 -3.53549e-15 0)
(1 -2.81088e-15 0)
(1 1.26594e-15 0)
(1 -1.45821e-15 0)
(1 -2.15723e-15 0)
(1 4.66509e-15 0)
(1 5.21876e-15 0)
(1 -2.65721e-15 0)
(1 1.23539e-15 0)
(1 -1.62873e-16 0)
(1 7.55145e-15 0)
(1 6.2211e-15 0)
(1 4.65196e-15 0)
(1 3.66188e-15 0)
(1 6.13998e-15 0)
(1 9.00357e-17 0)
(1 1.62053e-15 0)
(1 -2.24998e-15 0)
(1 4.42701e-15 0)
(1 4.15953e-15 0)
(1 2.73765e-16 0)
(1 -1.95353e-15 0)
(1 -3.90865e-15 0)
(1 -1.61754e-15 0)
(1 5.61114e-16 0)
(1 3.24676e-15 0)
(1 -8.98829e-16 0)
(1 3.63288e-15 0)
(1 -1.34865e-15 0)
(1 3.56202e-15 0)
(1 -6.95223e-15 0)
(1 -2.37292e-17 0)
(1 3.78941e-16 0)
(1 -2.05533e-15 0)
(1 3.32323e-16 0)
(1 -7.23334e-15 0)
(1 6.98662e-15 0)
(1 4.47918e-15 0)
(1 5.31113e-15 0)
(1 -4.79454e-15 0)
(1 2.36011e-15 0)
(1 3.63928e-15 0)
(1 8.12243e-15 0)
(1 -9.43821e-15 0)
(1 -6.47478e-15 0)
(1 -1.30925e-14 0)
(1 2.49363e-15 0)
(1 1.56912e-14 0)
(1 1.47088e-14 0)
(1 8.9826e-15 0)
(1 3.74154e-15 0)
(1 -5.99796e-16 0)
(1 -8.21866e-17 0)
(1 7.7557e-15 0)
(1 6.0493e-15 0)
(1 4.99732e-15 0)
(1 1.87175e-15 0)
(1 9.76061e-16 0)
(1 -9.14726e-15 0)
(1 -4.72991e-15 0)
(1 -2.95912e-15 0)
(1 -3.82258e-15 0)
(1 -1.31761e-15 0)
(1 -4.61123e-15 0)
(1 5.87651e-16 0)
(1 5.41028e-15 0)
(1 9.47739e-16 0)
(1 5.42404e-15 0)
(1 3.45395e-15 0)
(1 9.10933e-15 0)
(1 2.35218e-15 0)
(1 -1.75456e-15 0)
(1 -1.34137e-15 0)
(1 5.74381e-15 0)
(1 4.43173e-15 0)
(1 1.89168e-15 0)
(1 4.51032e-15 0)
(1 7.28086e-15 0)
(1 2.46121e-16 0)
(1 -7.747e-16 0)
(1 -6.79316e-15 0)
(1 -5.38427e-15 0)
(1 -1.44109e-15 0)
(1 -2.75845e-15 0)
(1 6.69261e-15 0)
(1 1.38652e-14 0)
(1 3.87684e-15 0)
(1 -2.25426e-15 0)
(1 1.68864e-15 0)
(1 1.52293e-15 0)
(1 3.00078e-15 0)
(1 8.71179e-15 0)
(1 6.08809e-15 0)
(1 8.96369e-15 0)
(1 1.03272e-14 0)
(1 1.45106e-14 0)
(1 4.41178e-15 0)
(1 -7.55074e-15 0)
(1 -8.45672e-16 0)
(1 -6.70449e-15 0)
(1 -8.12621e-15 0)
(1 -6.15521e-15 0)
(1 -1.49948e-15 0)
(1 7.71153e-16 0)
(1 -2.46556e-16 0)
(1 1.95679e-15 0)
(1 1.74872e-15 0)
(1 4.21035e-15 0)
(1 2.80693e-17 0)
(1 -3.74807e-15 0)
(1 -3.82507e-16 0)
(1 6.35264e-16 0)
(1 -9.57203e-17 0)
(1 3.23846e-15 0)
(1 3.02414e-15 0)
(1 1.68518e-15 0)
(1 5.27161e-18 0)
(1 4.54634e-15 0)
(1 2.29298e-15 0)
(1 4.63448e-15 0)
(1 1.36327e-15 0)
(1 5.65904e-15 0)
(1 6.45521e-15 0)
(1 4.84519e-15 0)
(1 8.49543e-15 0)
(1 5.62878e-15 0)
(1 -2.13523e-16 0)
(1 1.38911e-15 0)
(1 6.7412e-15 0)
(1 3.59159e-15 0)
(1 -1.79765e-15 0)
(1 5.61192e-16 0)
(1 7.39818e-16 0)
(1 -1.32041e-15 0)
(1 8.82896e-16 0)
(1 -1.12672e-15 0)
(1 -3.48555e-15 0)
(1 -4.71753e-16 0)
(1 -4.85444e-15 0)
(1 4.00118e-15 0)
(1 2.24363e-16 0)
(1 7.15171e-15 0)
(1 3.71485e-15 0)
(1 -2.17784e-15 0)
(1 -8.00537e-15 0)
(1 5.36687e-15 0)
(1 6.32929e-15 0)
(1 8.4803e-15 0)
(1 1.21946e-15 0)
(1 -2.83698e-15 0)
(1 -5.82268e-15 0)
(1 3.99036e-16 0)
(1 8.03483e-15 0)
(1 8.07416e-15 0)
(1 1.56199e-15 0)
(1 2.75974e-15 0)
(1 7.18534e-15 0)
(1 2.61889e-15 0)
(1 1.53537e-15 0)
(1 -9.25513e-15 0)
(1 -2.7171e-15 0)
(1 2.32293e-16 0)
(1 -4.32604e-15 0)
(1 -2.67661e-15 0)
(1 5.74854e-15 0)
(1 3.39413e-15 0)
(1 9.34177e-15 0)
(1 1.14551e-14 0)
(1 1.28883e-14 0)
(1 6.65709e-15 0)
(1 -4.16655e-15 0)
(1 -3.7704e-15 0)
(1 -2.83743e-15 0)
(1 -3.2071e-15 0)
(1 1.09292e-15 0)
(1 3.37188e-15 0)
(1 6.59357e-15 0)
(1 1.16139e-15 0)
(1 -3.56702e-15 0)
(1 -5.90932e-15 0)
(1 -1.27085e-15 0)
(1 -5.75745e-16 0)
(1 1.06288e-15 0)
(1 -4.0446e-15 0)
(1 -2.85466e-16 0)
(1 7.2731e-15 0)
(1 6.56738e-15 0)
(1 5.70736e-15 0)
(1 7.01802e-15 0)
(1 -2.68775e-17 0)
(1 5.53899e-16 0)
(1 6.73519e-15 0)
(1 2.62357e-15 0)
(1 2.55875e-15 0)
(1 4.62018e-15 0)
(1 8.57886e-15 0)
(1 2.78135e-15 0)
(1 -1.16695e-15 0)
(1 -8.19078e-15 0)
(1 -1.07407e-15 0)
(1 -2.40789e-16 0)
(1 3.36336e-15 0)
(1 4.92277e-15 0)
(1 6.81664e-15 0)
(1 5.26339e-15 0)
(1 -2.23932e-15 0)
(1 -1.15928e-16 0)
(1 9.16152e-16 0)
(1 1.67091e-15 0)
(1 -1.65675e-15 0)
(1 4.90123e-15 0)
(1 8.30298e-15 0)
(1 8.4959e-15 0)
(1 7.36094e-15 0)
(1 2.74703e-15 0)
(1 3.22703e-15 0)
(1 2.27783e-15 0)
(1 5.7452e-15 0)
(1 5.29129e-15 0)
(1 6.96295e-15 0)
(1 2.95249e-15 0)
(1 8.3604e-15 0)
(1 9.07539e-15 0)
(1 1.22102e-14 0)
(1 5.395e-15 0)
(1 5.6216e-15 0)
(1 1.02883e-15 0)
(1 -6.58796e-16 0)
(1 1.6862e-15 0)
(1 -1.61748e-15 0)
(1 5.78135e-15 0)
(1 -1.57167e-15 0)
(1 -2.72217e-15 0)
(1 -6.05976e-16 0)
(1 8.51883e-16 0)
(1 2.58112e-15 0)
(1 -8.11733e-15 0)
(1 -1.82315e-15 0)
(1 -2.97e-15 0)
(1 1.1458e-14 0)
(1 1.72221e-15 0)
(1 1.11298e-14 0)
(1 2.04643e-15 0)
(1 6.96376e-15 0)
(1 -4.47557e-15 0)
(1 4.69697e-15 0)
(1 -6.86191e-15 0)
(1 -6.90179e-15 0)
(1 -7.81808e-15 0)
(1 -9.5321e-17 0)
(1 1.02217e-15 0)
(1 -5.85267e-15 0)
(1 6.35128e-15 0)
(1 9.8437e-15 0)
(1 8.41653e-15 0)
(1 7.70374e-15 0)
(1 6.47829e-15 0)
(1 -5.95089e-15 0)
(1 2.29758e-15 0)
(1 -6.8059e-16 0)
(1 -4.35364e-15 0)
(1 -1.11667e-15 0)
(1 -2.3336e-15 0)
(1 -8.60187e-16 0)
(1 -9.79998e-16 0)
(1 5.65539e-15 0)
(1 2.4383e-15 0)
(1 -5.01998e-15 0)
(1 5.33861e-16 0)
(1 4.46112e-15 0)
(1 9.57244e-16 0)
(1 2.39879e-15 0)
(1 5.3516e-15 0)
(1 2.35448e-15 0)
(1 2.5843e-15 0)
(1 6.03553e-15 0)
(1 6.2922e-15 0)
(1 -1.42311e-15 0)
(1 4.25463e-15 0)
(1 1.49647e-15 0)
(1 1.14978e-14 0)
(1 2.22378e-15 0)
(1 2.23422e-15 0)
(1 -1.28383e-14 0)
(1 -7.21686e-15 0)
(1 -3.29512e-15 0)
(1 6.9699e-15 0)
(1 1.3561e-14 0)
(1 1.17179e-14 0)
(1 9.83745e-15 0)
(1 6.15092e-15 0)
(1 7.21134e-15 0)
(1 7.37471e-15 0)
(1 1.46603e-15 0)
(1 2.89194e-15 0)
(1 -4.27248e-15 0)
(1 -1.82142e-15 0)
(1 5.58739e-15 0)
(1 3.2618e-15 0)
(1 1.05761e-15 0)
(1 -4.62092e-18 0)
(1 6.14058e-15 0)
(1 6.41559e-15 0)
(1 1.36216e-15 0)
(1 5.34834e-16 0)
(1 -1.61416e-15 0)
(1 6.87581e-16 0)
(1 -3.00402e-15 0)
(1 1.5738e-15 0)
(1 2.58135e-15 0)
(1 4.86668e-15 0)
(1 5.29133e-15 0)
(1 2.58808e-15 0)
(1 1.87974e-15 0)
(1 4.88572e-16 0)
(1 7.90661e-16 0)
(1 5.09685e-15 0)
(1 -3.02364e-16 0)
(1 4.87998e-15 0)
(1 7.31003e-15 0)
(1 8.81072e-15 0)
(1 1.39614e-14 0)
(1 1.08544e-14 0)
(1 1.29402e-14 0)
(1 7.15538e-15 0)
(1 1.00411e-14 0)
(1 -2.15829e-15 0)
(1 -2.55594e-15 0)
(1 -4.12731e-15 0)
(1 -8.14564e-15 0)
(1 1.03343e-15 0)
(1 1.7445e-15 0)
(1 3.0682e-15 0)
(1 6.01804e-15 0)
(1 -3.39083e-16 0)
(1 -8.51207e-15 0)
(1 -5.30671e-15 0)
(1 5.76273e-15 0)
(1 3.54894e-15 0)
(1 1.2856e-14 0)
(1 1.98389e-16 0)
(1 3.59412e-15 0)
(1 -1.80456e-16 0)
(1 1.19542e-14 0)
(1 -2.95286e-15 0)
(1 -5.65249e-15 0)
(1 -8.96143e-15 0)
(1 3.82338e-15 0)
(1 7.43567e-15 0)
(1 9.50052e-15 0)
(1 4.3843e-15 0)
(1 2.42633e-15 0)
(1 -1.60909e-16 0)
(1 -2.5431e-15 0)
(1 -2.10582e-16 0)
(1 1.32305e-15 0)
(1 -3.11247e-15 0)
(1 -1.00716e-14 0)
(1 -1.152e-14 0)
(1 -3.54418e-15 0)
(1 1.38166e-15 0)
(1 7.31459e-15 0)
(1 7.82778e-15 0)
(1 6.70459e-15 0)
(1 -5.31628e-15 0)
(1 -1.60956e-15 0)
(1 -7.8714e-15 0)
(1 -3.92549e-15 0)
(1 1.45353e-15 0)
(1 4.94727e-15 0)
(1 1.96585e-14 0)
(1 1.22537e-14 0)
(1 6.35284e-15 0)
(1 4.28696e-16 0)
(1 1.40095e-16 0)
(1 1.22553e-15 0)
(1 4.55876e-15 0)
(1 6.10173e-15 0)
(1 1.38745e-14 0)
(1 5.47331e-15 0)
(1 5.58004e-15 0)
(1 -1.87611e-15 0)
(1 -1.60757e-15 0)
(1 -4.21521e-15 0)
(1 3.15946e-16 0)
(1 1.42969e-15 0)
(1 4.13965e-15 0)
(1 2.07252e-15 0)
(1 -1.57127e-15 0)
(1 3.42892e-15 0)
(1 2.31373e-15 0)
(1 1.51252e-15 0)
(1 1.46553e-14 0)
(1 1.07656e-14 0)
(1 1.94384e-14 0)
(1 1.57344e-14 0)
(1 7.60533e-15 0)
(1 1.05359e-14 0)
(1 9.4136e-15 0)
(1 1.41455e-15 0)
(1 -4.05195e-15 0)
(1 3.18706e-16 0)
(1 1.37142e-15 0)
(1 -2.02305e-15 0)
(1 2.18573e-15 0)
(1 4.87546e-15 0)
(1 5.09989e-15 0)
(1 6.40968e-15 0)
(1 1.08593e-15 0)
(1 2.07925e-15 0)
(1 4.18472e-15 0)
(1 -2.94851e-15 0)
(1 -1.26584e-15 0)
(1 -3.54812e-15 0)
(1 -9.86044e-16 0)
(1 4.82901e-16 0)
(1 5.25839e-15 0)
(1 4.49423e-15 0)
(1 4.39447e-15 0)
(1 7.314e-15 0)
(1 1.34486e-14 0)
(1 1.58064e-14 0)
(1 1.98269e-14 0)
(1 2.35116e-14 0)
(1 2.22524e-14 0)
(1 1.93526e-14 0)
(1 1.97994e-16 0)
(1 2.16264e-15 0)
(1 3.08352e-15 0)
(1 4.09661e-15 0)
(1 6.16843e-16 0)
(1 -5.37713e-15 0)
(1 7.37801e-16 0)
(1 4.06726e-15 0)
(1 2.41919e-15 0)
(1 -7.13572e-15 0)
(1 -4.4118e-15 0)
(1 -3.16693e-15 0)
(1 5.35248e-15 0)
(1 -8.86683e-15 0)
(1 6.77744e-15 0)
(1 -4.19814e-16 0)
(1 2.18766e-15 0)
(1 3.35024e-15 0)
(1 6.12171e-15 0)
(1 -8.17369e-16 0)
(1 -4.76771e-15 0)
(1 -5.84871e-15 0)
(1 -2.53823e-15 0)
(1 8.05597e-15 0)
(1 7.18455e-15 0)
(1 1.12562e-14 0)
(1 4.02657e-15 0)
(1 2.34628e-15 0)
(1 7.46654e-17 0)
(1 -3.81133e-15 0)
(1 -9.84229e-16 0)
(1 8.27349e-16 0)
(1 1.365e-16 0)
(1 2.41078e-15 0)
(1 -3.22908e-15 0)
(1 -4.87047e-16 0)
(1 -4.01087e-15 0)
(1 1.05766e-14 0)
(1 -1.00833e-14 0)
(1 -8.93463e-15 0)
(1 -2.28678e-15 0)
(1 7.26348e-15 0)
(1 5.52269e-15 0)
(1 3.59359e-15 0)
(1 1.16283e-14 0)
(1 7.12402e-15 0)
(1 3.71104e-15 0)
(1 -7.49611e-16 0)
(1 -5.31852e-16 0)
(1 4.53609e-15 0)
(1 1.37469e-15 0)
(1 3.30019e-15 0)
(1 7.1602e-15 0)
(1 6.42253e-15 0)
(1 4.25235e-15 0)
(1 5.82269e-15 0)
(1 2.59371e-15 0)
(1 3.38513e-15 0)
(1 -1.90685e-15 0)
(1 5.88505e-15 0)
(1 5.87703e-15 0)
(1 1.32005e-15 0)
(1 3.07258e-15 0)
(1 4.44006e-15 0)
(1 8.17272e-15 0)
(1 1.84779e-15 0)
(1 1.29275e-14 0)
(1 1.75008e-14 0)
(1 1.41294e-14 0)
(1 9.67504e-15 0)
(1 5.72455e-15 0)
(1 7.76295e-15 0)
(1 3.88724e-15 0)
(1 6.68059e-15 0)
(1 -1.39015e-15 0)
(1 4.86251e-15 0)
(1 7.41316e-15 0)
(1 -6.63728e-16 0)
(1 6.6261e-15 0)
(1 4.89916e-16 0)
(1 4.62053e-15 0)
(1 -8.63141e-16 0)
(1 -1.06463e-15 0)
(1 4.76877e-15 0)
(1 3.77916e-16 0)
(1 1.38604e-15 0)
(1 9.89432e-15 0)
(1 1.47365e-15 0)
(1 -7.85989e-16 0)
(1 2.81815e-15 0)
(1 6.94969e-15 0)
(1 9.57726e-15 0)
(1 8.86563e-15 0)
(1 5.06516e-15 0)
(1 1.21705e-14 0)
(1 6.91345e-15 0)
(1 1.89025e-14 0)
(1 2.32069e-14 0)
(1 2.80556e-14 0)
(1 2.25623e-14 0)
(1 9.71262e-16 0)
(1 -2.63205e-17 0)
(1 3.0401e-16 0)
(1 1.36422e-15 0)
(1 -4.93413e-15 0)
(1 -5.54833e-15 0)
(1 -1.44154e-15 0)
(1 -1.12114e-15 0)
(1 -1.48833e-15 0)
(1 6.1798e-15 0)
(1 -1.37449e-15 0)
(1 -6.09125e-15 0)
(1 -1.4251e-15 0)
(1 -8.63816e-15 0)
(1 5.01098e-15 0)
(1 4.23789e-15 0)
(1 1.235e-14 0)
(1 1.65018e-15 0)
(1 1.26445e-14 0)
(1 4.30963e-15 0)
(1 1.0625e-14 0)
(1 -6.39854e-15 0)
(1 -1.1795e-14 0)
(1 -9.21136e-15 0)
(1 -4.34037e-15 0)
(1 -3.83382e-15 0)
(1 -4.18457e-15 0)
(1 -1.65564e-15 0)
(1 1.03045e-15 0)
(1 -2.57823e-15 0)
(1 2.96138e-15 0)
(1 2.55102e-16 0)
(1 5.39987e-15 0)
(1 4.66612e-15 0)
(1 -2.8311e-15 0)
(1 -3.7198e-15 0)
(1 -2.01806e-15 0)
(1 4.76066e-15 0)
(1 -1.06028e-14 0)
(1 -5.82847e-15 0)
(1 3.05505e-17 0)
(1 -1.24381e-15 0)
(1 1.09715e-15 0)
(1 1.60808e-15 0)
(1 4.32489e-15 0)
(1 7.49029e-15 0)
(1 9.6294e-15 0)
(1 5.25303e-15 0)
(1 8.72471e-15 0)
(1 4.92889e-15 0)
(1 9.32399e-15 0)
(1 3.92122e-15 0)
(1 1.651e-16 0)
(1 4.88538e-15 0)
(1 4.94476e-15 0)
(1 6.11362e-15 0)
(1 8.64005e-16 0)
(1 -1.19898e-15 0)
(1 2.26461e-16 0)
(1 1.48712e-15 0)
(1 5.38013e-15 0)
(1 5.44813e-15 0)
(1 5.97976e-15 0)
(1 4.55321e-15 0)
(1 9.02666e-15 0)
(1 7.51812e-15 0)
(1 5.11034e-15 0)
(1 1.11277e-14 0)
(1 1.07484e-15 0)
(1 2.44186e-15 0)
(1 1.91428e-14 0)
(1 1.21193e-14 0)
(1 8.81532e-15 0)
(1 6.31743e-15 0)
(1 6.78548e-15 0)
(1 6.76616e-15 0)
(1 7.12698e-15 0)
(1 1.00215e-14 0)
(1 6.57318e-15 0)
(1 2.82898e-15 0)
(1 -3.53602e-15 0)
(1 -1.2439e-15 0)
(1 3.2044e-15 0)
(1 5.96376e-15 0)
(1 -1.40517e-15 0)
(1 1.69088e-16 0)
(1 1.15955e-15 0)
(1 2.89068e-17 0)
(1 2.20683e-16 0)
(1 -4.28403e-16 0)
(1 5.62318e-15 0)
(1 5.4074e-15 0)
(1 9.97958e-15 0)
(1 5.61306e-15 0)
(1 1.47352e-14 0)
(1 6.34767e-15 0)
(1 1.26359e-14 0)
(1 1.34436e-14 0)
(1 2.3932e-14 0)
(1 2.03797e-14 0)
(1 2.49613e-15 0)
(1 -5.26787e-15 0)
(1 1.15953e-15 0)
(1 1.66519e-16 0)
(1 -3.47964e-15 0)
(1 1.53733e-15 0)
(1 1.30235e-15 0)
(1 1.50841e-15 0)
(1 -6.95376e-15 0)
(1 9.07726e-16 0)
(1 5.2755e-15 0)
(1 5.89925e-15 0)
(1 -1.60771e-15 0)
(1 -1.96517e-15 0)
(1 -1.52191e-15 0)
(1 -4.22292e-15 0)
(1 1.9383e-15 0)
(1 -8.11671e-15 0)
(1 6.46491e-15 0)
(1 -4.96152e-15 0)
(1 3.51463e-15 0)
(1 5.13629e-15 0)
(1 1.13695e-14 0)
(1 4.40953e-15 0)
(1 -2.67173e-16 0)
(1 4.01841e-16 0)
(1 6.78312e-15 0)
(1 -1.1782e-15 0)
(1 4.58807e-15 0)
(1 3.68821e-15 0)
(1 -7.36049e-15 0)
(1 -1.42781e-15 0)
(1 -4.59974e-15 0)
(1 -5.51537e-16 0)
(1 3.03505e-15 0)
(1 1.37551e-16 0)
(1 3.8968e-15 0)
(1 -4.71442e-15 0)
(1 -6.40535e-15 0)
(1 -8.24943e-15 0)
(1 1.24479e-15 0)
(1 7.32532e-16 0)
(1 3.11703e-15 0)
(1 4.44225e-15 0)
(1 -1.63467e-16 0)
(1 9.2846e-15 0)
(1 1.63657e-14 0)
(1 1.34357e-14 0)
(1 7.79582e-15 0)
(1 -6.25697e-16 0)
(1 2.26301e-16 0)
(1 6.13584e-15 0)
(1 -1.95976e-15 0)
(1 4.13438e-15 0)
(1 5.8828e-15 0)
(1 -2.57596e-15 0)
(1 -6.59909e-15 0)
(1 3.587e-15 0)
(1 7.52951e-15 0)
(1 8.09517e-15 0)
(1 7.94679e-15 0)
(1 2.09492e-15 0)
(1 7.3511e-15 0)
(1 -1.6993e-15 0)
(1 8.61151e-15 0)
(1 8.43444e-15 0)
(1 2.86819e-15 0)
(1 1.3642e-15 0)
(1 2.59428e-15 0)
(1 1.10333e-14 0)
(1 1.388e-14 0)
(1 1.71383e-14 0)
(1 9.63022e-15 0)
(1 -6.40112e-17 0)
(1 1.77057e-15 0)
(1 3.14722e-15 0)
(1 2.97015e-16 0)
(1 3.42737e-15 0)
(1 1.67023e-15 0)
(1 9.10119e-15 0)
(1 9.21233e-16 0)
(1 1.34057e-14 0)
(1 1.18818e-14 0)
(1 2.12317e-15 0)
(1 1.15014e-15 0)
(1 -1.13081e-15 0)
(1 -3.4717e-15 0)
(1 1.70944e-15 0)
(1 5.03007e-15 0)
(1 4.95388e-15 0)
(1 5.86059e-15 0)
(1 1.94165e-15 0)
(1 4.57375e-15 0)
(1 6.59341e-15 0)
(1 9.60374e-15 0)
(1 1.10352e-14 0)
(1 1.24167e-14 0)
(1 1.26085e-14 0)
(1 1.89716e-14 0)
(1 1.77968e-14 0)
(1 2.8553e-15 0)
(1 -3.10715e-15 0)
(1 -4.01716e-15 0)
(1 -1.04391e-15 0)
(1 -3.64405e-16 0)
(1 5.01422e-16 0)
(1 -2.33994e-15 0)
(1 2.80653e-15 0)
(1 -9.12923e-15 0)
(1 4.85356e-15 0)
(1 3.15284e-15 0)
(1 4.64764e-15 0)
(1 7.53402e-15 0)
(1 1.31893e-15 0)
(1 -8.58423e-15 0)
(1 -1.14968e-15 0)
(1 -6.2085e-15 0)
(1 6.70113e-15 0)
(1 1.04813e-14 0)
(1 2.11942e-14 0)
(1 3.4549e-15 0)
(1 -3.93472e-15 0)
(1 -1.3062e-14 0)
(1 -1.73605e-14 0)
(1 -1.10023e-14 0)
(1 -4.58416e-15 0)
(1 1.74377e-15 0)
(1 3.8499e-15 0)
(1 6.78868e-15 0)
(1 4.41275e-15 0)
(1 -5.76837e-15 0)
(1 3.45729e-16 0)
(1 4.38507e-16 0)
(1 -6.10844e-16 0)
(1 1.54058e-15 0)
(1 4.12036e-15 0)
(1 1.50544e-15 0)
(1 -1.31246e-14 0)
(1 -1.66689e-15 0)
(1 1.23235e-16 0)
(1 -5.59358e-16 0)
(1 2.78624e-16 0)
(1 -5.96409e-16 0)
(1 9.29485e-16 0)
(1 2.42042e-16 0)
(1 1.37779e-14 0)
(1 1.5096e-14 0)
(1 2.04956e-14 0)
(1 5.85887e-15 0)
(1 6.99599e-15 0)
(1 -1.19406e-15 0)
(1 9.49435e-17 0)
(1 -1.83894e-15 0)
(1 4.68032e-15 0)
(1 2.96288e-15 0)
(1 4.25486e-15 0)
(1 -2.66899e-15 0)
(1 -3.63874e-15 0)
(1 -7.66765e-15 0)
(1 -3.56146e-15 0)
(1 -3.38453e-15 0)
(1 4.41571e-15 0)
(1 1.22308e-14 0)
(1 1.3286e-14 0)
(1 1.04663e-14 0)
(1 8.60706e-15 0)
(1 2.17703e-15 0)
(1 4.14997e-15 0)
(1 5.60536e-15 0)
(1 5.86476e-15 0)
(1 -5.88078e-15 0)
(1 3.98225e-15 0)
(1 7.75389e-15 0)
(1 4.1334e-15 0)
(1 7.23437e-15 0)
(1 2.67101e-15 0)
(1 6.43899e-16 0)
(1 1.4115e-15 0)
(1 3.65337e-15 0)
(1 8.35746e-15 0)
(1 3.14914e-15 0)
(1 8.1179e-15 0)
(1 5.75479e-15 0)
(1 5.44364e-15 0)
(1 5.29317e-15 0)
(1 6.25523e-15 0)
(1 2.51327e-15 0)
(1 4.9928e-15 0)
(1 5.18928e-15 0)
(1 6.22717e-15 0)
(1 1.90479e-15 0)
(1 2.74099e-15 0)
(1 -5.04593e-17 0)
(1 3.04569e-16 0)
(1 6.87367e-16 0)
(1 1.06445e-14 0)
(1 9.87216e-15 0)
(1 1.22927e-14 0)
(1 1.23262e-14 0)
(1 1.01763e-14 0)
(1 -7.69337e-16 0)
(1 1.92609e-15 0)
(1 -4.54356e-15 0)
(1 -6.53823e-15 0)
(1 6.79546e-16 0)
(1 -9.03533e-16 0)
(1 -4.75663e-15 0)
(1 5.22787e-16 0)
(1 7.54551e-15 0)
(1 1.77357e-14 0)
(1 4.00234e-15 0)
(1 -8.96591e-16 0)
(1 -5.71811e-15 0)
(1 -6.00015e-15 0)
(1 -7.39615e-15 0)
(1 2.76338e-15 0)
(1 -3.02455e-15 0)
(1 6.78313e-15 0)
(1 -5.93553e-15 0)
(1 9.57494e-15 0)
(1 -5.54369e-15 0)
(1 2.26187e-15 0)
(1 -7.91679e-15 0)
(1 -5.71464e-15 0)
(1 3.64644e-16 0)
(1 -7.45783e-16 0)
(1 -5.82073e-15 0)
(1 9.2856e-16 0)
(1 4.88233e-15 0)
(1 -2.75016e-15 0)
(1 4.20912e-15 0)
(1 -1.07746e-15 0)
(1 -7.94146e-15 0)
(1 -7.11324e-15 0)
(1 1.25437e-15 0)
(1 1.02974e-14 0)
(1 4.6803e-15 0)
(1 -6.04056e-15 0)
(1 -5.94496e-16 0)
(1 -3.19764e-15 0)
(1 -7.45986e-15 0)
(1 -5.76928e-15 0)
(1 3.23368e-15 0)
(1 6.06194e-15 0)
(1 1.53153e-14 0)
(1 1.9328e-14 0)
(1 6.93164e-15 0)
(1 4.26019e-15 0)
(1 1.55411e-15 0)
(1 2.86605e-15 0)
(1 -1.98001e-15 0)
(1 -1.36209e-15 0)
(1 5.26086e-15 0)
(1 3.76884e-15 0)
(1 -2.1534e-15 0)
(1 1.57418e-14 0)
(1 1.41618e-14 0)
(1 9.75944e-16 0)
(1 -3.14501e-15 0)
(1 -2.01739e-15 0)
(1 -3.4481e-15 0)
(1 3.05439e-15 0)
(1 -4.04338e-15 0)
(1 1.37284e-14 0)
(1 -2.12573e-15 0)
(1 8.61498e-15 0)
(1 9.76505e-15 0)
(1 8.80397e-15 0)
(1 7.59136e-15 0)
(1 3.16061e-15 0)
(1 2.8097e-16 0)
(1 4.50435e-15 0)
(1 2.19733e-15 0)
(1 1.07025e-14 0)
(1 7.93738e-15 0)
(1 7.59193e-15 0)
(1 1.07866e-14 0)
(1 1.91711e-14 0)
(1 1.09605e-14 0)
(1 5.6718e-15 0)
(1 9.23152e-16 0)
(1 4.73195e-16 0)
(1 -2.16909e-16 0)
(1 5.48329e-15 0)
(1 8.89517e-15 0)
(1 9.24737e-15 0)
(1 5.59096e-15 0)
(1 6.30499e-15 0)
(1 4.19274e-15 0)
(1 5.35307e-15 0)
(1 5.96314e-15 0)
(1 5.18142e-15 0)
(1 -4.12315e-15 0)
(1 -3.28951e-16 0)
(1 3.63225e-15 0)
(1 1.06874e-14 0)
(1 1.33247e-14 0)
(1 1.34467e-14 0)
(1 1.18902e-14 0)
(1 8.11997e-15 0)
(1 1.48015e-15 0)
(1 -3.43389e-15 0)
(1 3.73554e-15 0)
(1 -1.21687e-14 0)
(1 7.8577e-16 0)
(1 4.01416e-15 0)
(1 -1.62827e-15 0)
(1 -1.75418e-14 0)
(1 7.79892e-15 0)
(1 3.77227e-16 0)
(1 1.12088e-14 0)
(1 5.67951e-15 0)
(1 -2.76762e-15 0)
(1 -2.38819e-15 0)
(1 -1.11568e-15 0)
(1 -3.35105e-15 0)
(1 -7.32174e-16 0)
(1 -9.21766e-15 0)
(1 -8.38519e-15 0)
(1 -4.35221e-15 0)
(1 -6.92006e-15 0)
(1 4.96054e-15 0)
(1 1.72525e-14 0)
(1 1.25455e-14 0)
(1 9.39939e-15 0)
(1 2.67712e-15 0)
(1 -1.37268e-15 0)
(1 -3.15662e-15 0)
(1 -1.62422e-15 0)
(1 -4.64809e-15 0)
(1 -3.23923e-16 0)
(1 -5.27139e-15 0)
(1 -2.42067e-15 0)
(1 -2.80773e-15 0)
(1 -2.66347e-16 0)
(1 3.20046e-15 0)
(1 -4.2546e-16 0)
(1 2.16856e-15 0)
(1 6.93725e-16 0)
(1 -5.13676e-15 0)
(1 -7.40126e-15 0)
(1 1.07765e-15 0)
(1 8.07768e-15 0)
(1 1.19636e-14 0)
(1 1.31001e-14 0)
(1 6.93798e-15 0)
(1 1.13958e-15 0)
(1 -3.98987e-15 0)
(1 -5.43566e-15 0)
(1 -1.93838e-15 0)
(1 -1.65094e-15 0)
(1 9.0515e-15 0)
(1 1.12604e-14 0)
(1 9.98827e-15 0)
(1 9.0851e-15 0)
(1 6.33889e-15 0)
(1 8.99382e-15 0)
(1 7.97132e-15 0)
(1 -7.36372e-17 0)
(1 -2.10633e-15 0)
(1 2.64757e-15 0)
(1 -3.53276e-15 0)
(1 6.29354e-16 0)
(1 3.34737e-15 0)
(1 7.73371e-15 0)
(1 4.74299e-15 0)
(1 9.2872e-15 0)
(1 7.14727e-15 0)
(1 1.58786e-14 0)
(1 7.90795e-15 0)
(1 7.27013e-15 0)
(1 1.0685e-14 0)
(1 3.31985e-15 0)
(1 6.1758e-15 0)
(1 3.1356e-15 0)
(1 1.16127e-14 0)
(1 1.23057e-14 0)
(1 9.8233e-15 0)
(1 1.03239e-14 0)
(1 4.21273e-15 0)
(1 1.05564e-14 0)
(1 7.29721e-16 0)
(1 2.82066e-15 0)
(1 1.52679e-15 0)
(1 4.39663e-16 0)
(1 4.13565e-17 0)
(1 2.79303e-15 0)
(1 1.4007e-15 0)
(1 3.44523e-16 0)
(1 4.28845e-15 0)
(1 4.40221e-15 0)
(1 4.17607e-15 0)
(1 1.19979e-15 0)
(1 5.36646e-15 0)
(1 1.078e-14 0)
(1 1.2486e-14 0)
(1 5.20402e-15 0)
(1 6.94212e-15 0)
(1 1.13846e-14 0)
(1 1.18235e-14 0)
(1 -3.01739e-15 0)
(1 -6.68951e-15 0)
(1 1.20433e-15 0)
(1 2.2513e-16 0)
(1 5.32437e-15 0)
(1 5.65958e-15 0)
(1 1.43301e-14 0)
(1 9.89408e-16 0)
(1 -2.64541e-16 0)
(1 -1.01701e-14 0)
(1 -2.67292e-15 0)
(1 -4.42185e-15 0)
(1 -2.35013e-15 0)
(1 4.02312e-16 0)
(1 -5.29853e-15 0)
(1 -8.32526e-15 0)
(1 -2.99306e-15 0)
(1 2.13889e-15 0)
(1 -1.77659e-15 0)
(1 -2.13446e-15 0)
(1 5.65284e-15 0)
(1 -1.84973e-15 0)
(1 9.79279e-15 0)
(1 -3.34793e-15 0)
(1 -9.12321e-15 0)
(1 -7.8535e-15 0)
(1 -7.44806e-15 0)
(1 -1.68776e-16 0)
(1 -1.50662e-15 0)
(1 -4.62724e-16 0)
(1 -9.19162e-16 0)
(1 -5.00215e-16 0)
(1 2.01123e-15 0)
(1 6.05037e-15 0)
(1 6.42647e-15 0)
(1 1.44918e-15 0)
(1 4.40697e-16 0)
(1 8.61604e-16 0)
(1 -9.58626e-16 0)
(1 -4.57359e-15 0)
(1 -7.75761e-15 0)
(1 7.34699e-15 0)
(1 7.40707e-15 0)
(1 3.57137e-15 0)
(1 8.8798e-15 0)
(1 -6.34566e-15 0)
(1 2.49123e-15 0)
(1 1.86651e-15 0)
(1 5.72313e-16 0)
(1 1.17192e-15 0)
(1 8.43212e-15 0)
(1 8.54989e-15 0)
(1 9.17288e-15 0)
(1 1.12598e-15 0)
(1 6.03913e-15 0)
(1 -2.64619e-15 0)
(1 3.83215e-15 0)
(1 8.554e-15 0)
(1 -2.01197e-15 0)
(1 -4.82777e-15 0)
(1 -1.60815e-15 0)
(1 1.45806e-15 0)
(1 3.65278e-15 0)
(1 -7.62722e-16 0)
(1 6.33372e-15 0)
(1 -3.45286e-15 0)
(1 -5.72935e-15 0)
(1 -2.92996e-15 0)
(1 8.99741e-15 0)
(1 6.69289e-15 0)
(1 1.12508e-14 0)
(1 8.99523e-15 0)
(1 9.5658e-15 0)
(1 8.12221e-15 0)
(1 1.35891e-14 0)
(1 3.24654e-15 0)
(1 3.21889e-15 0)
(1 2.96131e-15 0)
(1 9.3085e-15 0)
(1 1.24546e-14 0)
(1 1.06952e-14 0)
(1 5.27758e-15 0)
(1 4.95665e-15 0)
(1 4.34095e-15 0)
(1 5.37422e-15 0)
(1 2.50437e-15 0)
(1 -2.86039e-15 0)
(1 -6.08802e-15 0)
(1 8.38126e-17 0)
(1 -4.06244e-16 0)
(1 7.89157e-16 0)
(1 -2.05194e-17 0)
(1 9.17919e-15 0)
(1 9.56017e-15 0)
(1 1.01259e-14 0)
(1 1.30134e-14 0)