/*--------------------------------*- C++ -*----------------------------------*\
| =========                 |                                                 |
| \\      /  F ield         | OpenFOAM: The Open Source CFD Toolbox           |
|  \\    /   O peration     | Version:  v2012                                 |
|   \\  /    A nd           | Website:  www.openfoam.com                      |
|    \\/     M anipulation  |                                                 |
\*---------------------------------------------------------------------------*/
FoamFile
{
    version     2.0;
    format      ascii;
    class       volVectorField;
    location    "0";
    object      U;
}
// * * * * * * * * * * * * * * * * * * * * * * * * * * * * * * * * * * * * * //

dimensions      [0 1 -1 0 0 0 0];


internalField   nonuniform List<vector> 
4000
(
(1 3.85721e-15 0)
(1 1.29861e-15 0)
(1 1.19906e-15 0)
(1 1.07825e-15 0)
(1 -3.99134e-15 0)
(1 -3.12438e-15 0)
(1 3.0605e-16 0)
(1 3.7106e-15 0)
(1 9.76274e-15 0)
(1 -6.7817e-15 0)
(1 -4.79855e-15 0)
(1 1.36651e-15 0)
(1 4.7724e-15 0)
(1 2.2951e-15 0)
(1 -4.02616e-15 0)
(1 1.66534e-15 0)
(1 -2.2719e-15 0)
(1 -1.67177e-15 0)
(1 3.43726e-15 0)
(1 3.36061e-15 0)
(1 -1.36066e-15 0)
(1 -1.22501e-15 0)
(1 -3.7423e-15 0)
(1 -1.39635e-15 0)
(1 1.26036e-15 0)
(1 4.05289e-16 0)
(1 2.79179e-15 0)
(1 -2.8862e-16 0)
(1 -7.73031e-16 0)
(1 -2.9144e-15 0)
(1 2.93479e-15 0)
(1 -1.15488e-15 0)
(1 2.04367e-16 0)
(1 -4.31613e-15 0)
(1 -2.68223e-15 0)
(1 -1.40641e-15 0)
(1 2.8054e-15 0)
(1 4.08018e-15 0)
(1 2.39255e-15 0)
(1 -1.18693e-15 0)
(1 -3.69874e-16 0)
(1 -3.26551e-15 0)
(1 -3.68203e-15 0)
(1 1.09836e-15 0)
(1 5.81907e-16 0)
(1 -1.81073e-15 0)
(1 1.11701e-16 0)
(1 3.62754e-16 0)
(1 3.60683e-15 0)
(1 7.77087e-16 0)
(1 1.04795e-15 0)
(1 9.88945e-16 0)
(1 4.62272e-15 0)
(1 4.24091e-15 0)
(1 4.38608e-15 0)
(1 4.33377e-15 0)
(1 7.52173e-16 0)
(1 4.67169e-16 0)
(1 -2.84055e-15 0)
(1 -2.36683e-15 0)
(1 -2.60116e-15 0)
(1 -6.56208e-16 0)
(1 -4.59258e-16 0)
(1 2.5081e-15 0)
(1 -3.77659e-16 0)
(1 -8.94539e-17 0)
(1 -3.38906e-15 0)
(1 1.46721e-15 0)
(1 -6.80326e-16 0)
(1 -1.09813e-15 0)
(1 -2.88028e-15 0)
(1 1.19427e-15 0)
(1 -5.43543e-15 0)
(1 -5.8846e-15 0)
(1 -5.51053e-15 0)
(1 -2.54614e-15 0)
(1 -3.63853e-16 0)
(1 -1.56614e-16 0)
(1 -2.09388e-16 0)
(1 2.09634e-15 0)
(1 4.11557e-16 0)
(1 3.20464e-15 0)
(1 -1.54209e-15 0)
(1 -3.20003e-15 0)
(1 -4.79965e-15 0)
(1 -3.46925e-15 0)
(1 5.11866e-15 0)
(1 5.8382e-15 0)
(1 -4.13378e-16 0)
(1 3.58532e-15 0)
(1 2.71141e-15 0)
(1 3.5648e-15 0)
(1 -1.60787e-15 0)
(1 3.08884e-18 0)
(1 7.549e-16 0)
(1 1.24167e-15 0)
(1 4.39219e-16 0)
(1 -1.24594e-15 0)
(1 -1.52268e-15 0)
(1 -2.15096e-15 0)
(1 2.51211e-15 0)
(1 1.46232e-15 0)
(1 3.01472e-15 0)
(1 6.59325e-16 0)
(1 -7.65964e-15 0)
(1 -2.70196e-15 0)
(1 7.999e-16 0)
(1 4.35643e-15 0)
(1 1.05611e-14 0)
(1 -5.27793e-16 0)
(1 1.23072e-16 0)
(1 -2.44885e-15 0)
(1 -3.05698e-16 0)
(1 -3.1418e-15 0)
(1 -5.69555e-15 0)
(1 6.246e-15 0)
(1 3.29277e-15 0)
(1 -5.29749e-15 0)
(1 1.0557e-15 0)
(1 2.2347e-15 0)
(1 -3.4664e-16 0)
(1 -2.64661e-15 0)
(1 -3.81543e-16 0)
(1 -2.14864e-16 0)
(1 2.03552e-15 0)
(1 -5.80327e-15 0)
(1 5.73194e-17 0)
(1 -3.54828e-15 0)
(1 -1.18371e-15 0)
(1 2.99504e-16 0)
(1 5.67295e-15 0)
(1 -1.08343e-15 0)
(1 5.91759e-16 0)
(1 -5.02111e-15 0)
(1 1.25234e-15 0)
(1 -1.23341e-15 0)
(1 1.34497e-15 0)
(1 4.64662e-15 0)
(1 -3.34471e-15 0)
(1 -5.21065e-15 0)
(1 -6.10232e-15 0)
(1 -4.62499e-15 0)
(1 -9.87891e-16 0)
(1 7.41267e-16 0)
(1 2.99006e-15 0)
(1 -1.73901e-15 0)
(1 1.22764e-15 0)
(1 2.98491e-15 0)
(1 6.12986e-15 0)
(1 -3.18747e-16 0)
(1 1.46198e-15 0)
(1 -3.82379e-15 0)
(1 1.18226e-15 0)
(1 3.78761e-15 0)
(1 5.97038e-15 0)
(1 1.75535e-15 0)
(1 2.65753e-15 0)
(1 2.25657e-15 0)
(1 1.38049e-15 0)
(1 -2.97937e-15 0)
(1 -2.66772e-15 0)
(1 -8.35005e-16 0)
(1 3.37706e-15 0)
(1 3.2412e-15 0)
(1 -3.37284e-15 0)
(1 -3.13158e-15 0)
(1 -6.68629e-15 0)
(1 -3.41046e-15 0)
(1 1.14755e-16 0)
(1 -1.98034e-16 0)
(1 5.86441e-16 0)
(1 8.32012e-16 0)
(1 1.82704e-15 0)
(1 -8.63068e-16 0)
(1 -1.61744e-15 0)
(1 -9.26466e-16 0)
(1 4.95928e-15 0)
(1 3.4707e-15 0)
(1 4.35917e-15 0)
(1 6.38185e-15 0)
(1 2.90194e-15 0)
(1 -4.97416e-17 0)
(1 -1.5332e-15 0)
(1 -3.88159e-15 0)
(1 -6.40133e-15 0)
(1 -3.51491e-15 0)
(1 3.25515e-15 0)
(1 5.29241e-15 0)
(1 -2.10325e-15 0)
(1 2.18822e-15 0)
(1 2.99613e-15 0)
(1 1.1318e-15 0)
(1 -2.49199e-15 0)
(1 2.48369e-15 0)
(1 -2.04017e-15 0)
(1 2.8997e-15 0)
(1 -5.21426e-16 0)
(1 -1.22458e-15 0)
(1 -4.05916e-15 0)
(1 -5.36537e-15 0)
(1 -4.36496e-15 0)
(1 3.15522e-15 0)
(1 -4.73681e-15 0)
(1 3.12378e-15 0)
(1 -4.15548e-15 0)
(1 2.41462e-15 0)
(1 3.79296e-15 0)
(1 5.52192e-15 0)
(1 2.05223e-15 0)
(1 2.40869e-15 0)
(1 8.00686e-16 0)
(1 2.30436e-15 0)
(1 4.37403e-15 0)
(1 2.39901e-15 0)
(1 -1.02352e-15 0)
(1 -6.47778e-16 0)
(1 -2.61477e-16 0)
(1 6.5144e-15 0)
(1 -5.88107e-15 0)
(1 -4.38624e-15 0)
(1 1.44575e-15 0)
(1 -3.07431e-15 0)
(1 -3.40038e-15 0)
(1 -1.95218e-15 0)
(1 1.12334e-14 0)
(1 4.95092e-16 0)
(1 5.0268e-15 0)
(1 -1.90918e-15 0)
(1 1.52976e-15 0)
(1 3.23856e-15 0)
(1 3.16784e-15 0)
(1 -2.51826e-15 0)
(1 -3.25568e-15 0)
(1 -7.55805e-16 0)
(1 1.58077e-15 0)
(1 -7.12287e-16 0)
(1 -5.74411e-15 0)
(1 2.64102e-15 0)
(1 6.53565e-15 0)
(1 -6.90444e-15 0)
(1 -7.34945e-15 0)
(1 -8.18049e-15 0)
(1 -1.13696e-15 0)
(1 -2.44708e-15 0)
(1 4.59795e-16 0)
(1 -2.69363e-15 0)
(1 7.13217e-15 0)
(1 6.45727e-15 0)
(1 6.62904e-15 0)
(1 -1.47539e-15 0)
(1 6.4643e-15 0)
(1 -1.51689e-16 0)
(1 2.15405e-15 0)
(1 1.45082e-15 0)
(1 4.41083e-15 0)
(1 3.09427e-15 0)
(1 3.31134e-15 0)
(1 2.81537e-15 0)
(1 6.16694e-15 0)
(1 2.44279e-16 0)
(1 -8.44673e-16 0)
(1 2.34439e-16 0)
(1 4.163e-15 0)
(1 -8.77896e-16 0)
(1 -7.77483e-15 0)
(1 -6.92739e-15 0)
(1 -3.69158e-15 0)
(1 -2.18592e-15 0)
(1 2.78296e-15 0)
(1 2.0931e-15 0)
(1 1.4125e-15 0)
(1 -4.37678e-15 0)
(1 -8.62463e-16 0)
(1 -3.65067e-15 0)
(1 -1.04066e-15 0)
(1 -3.15816e-15 0)
(1 1.81963e-15 0)
(1 -2.12584e-15 0)
(1 2.79376e-15 0)
(1 1.71245e-15 0)
(1 -8.40712e-16 0)
(1 -6.72643e-16 0)
(1 1.81553e-16 0)
(1 -2.85875e-15 0)
(1 -2.24899e-15 0)
(1 1.19984e-15 0)
(1 -7.79977e-17 0)
(1 3.56889e-15 0)
(1 -2.78019e-15 0)
(1 2.44695e-15 0)
(1 7.02894e-16 0)
(1 1.31309e-15 0)
(1 -3.58161e-15 0)
(1 2.95563e-15 0)
(1 1.34522e-16 0)
(1 3.89169e-15 0)
(1 -2.05653e-17 0)
(1 -2.92405e-15 0)
(1 -4.06158e-15 0)
(1 -5.22711e-15 0)
(1 5.42092e-16 0)
(1 -6.2781e-15 0)
(1 -4.61642e-15 0)
(1 -5.95671e-15 0)
(1 6.10062e-15 0)
(1 5.30017e-15 0)
(1 7.09493e-15 0)
(1 1.27e-15 0)
(1 3.7388e-15 0)
(1 -4.29973e-15 0)
(1 -6.21534e-16 0)
(1 6.74497e-16 0)
(1 2.89967e-15 0)
(1 1.48417e-14 0)
(1 9.24213e-15 0)
(1 -2.60012e-15 0)
(1 -4.56165e-15 0)
(1 4.88648e-15 0)
(1 -6.22232e-15 0)
(1 -3.53133e-15 0)
(1 3.18622e-15 0)
(1 3.91011e-15 0)
(1 -4.99755e-15 0)
(1 1.76861e-15 0)
(1 1.04459e-14 0)
(1 6.28612e-15 0)
(1 1.20248e-14 0)
(1 6.69535e-15 0)
(1 7.8255e-15 0)
(1 5.40879e-16 0)
(1 2.87078e-15 0)
(1 -4.92007e-15 0)
(1 -5.11194e-15 0)
(1 -6.19231e-15 0)
(1 -4.29804e-15 0)
(1 -6.86791e-15 0)
(1 -2.5433e-15 0)
(1 -6.04024e-15 0)
(1 4.17763e-15 0)
(1 -1.60315e-15 0)
(1 2.98886e-15 0)
(1 -3.06328e-15 0)
(1 -4.17205e-15 0)
(1 3.62748e-16 0)
(1 -3.06358e-15 0)
(1 2.12722e-15 0)
(1 8.23715e-15 0)
(1 8.71423e-15 0)
(1 3.49281e-15 0)
(1 6.5336e-16 0)
(1 5.25473e-15 0)
(1 5.1486e-15 0)
(1 3.79728e-15 0)
(1 3.48363e-15 0)
(1 4.81609e-15 0)
(1 6.89857e-15 0)
(1 2.82131e-15 0)
(1 1.35451e-16 0)
(1 4.99385e-15 0)
(1 4.44273e-15 0)
(1 5.1605e-15 0)
(1 -3.89048e-15 0)
(1 -2.23495e-15 0)
(1 -2.40402e-15 0)
(1 -3.88814e-15 0)
(1 -3.00311e-15 0)
(1 -1.79298e-15 0)
(1 -1.9313e-15 0)
(1 -2.36411e-15 0)
(1 -4.76955e-15 0)
(1 -3.51892e-15 0)
(1 -7.40219e-15 0)
(1 -7.30654e-15 0)
(1 -5.94848e-15 0)
(1 -3.74516e-15 0)
(1 4.14784e-15 0)
(1 5.50137e-15 0)
(1 5.1572e-16 0)
(1 5.5912e-15 0)
(1 -4.12699e-15 0)
(1 -4.31626e-15 0)
(1 1.89428e-15 0)
(1 -3.55919e-16 0)
(1 -2.78976e-15 0)
(1 -1.43448e-15 0)
(1 -1.30551e-15 0)
(1 8.83802e-15 0)
(1 7.35986e-15 0)
(1 2.71892e-15 0)
(1 4.79688e-15 0)
(1 3.20185e-16 0)
(1 2.75559e-15 0)
(1 -1.14183e-15 0)
(1 3.16976e-15 0)
(1 1.92318e-15 0)
(1 7.92572e-16 0)
(1 -1.29904e-15 0)
(1 -2.70226e-15 0)
(1 -9.11162e-15 0)
(1 -5.69954e-15 0)
(1 5.58024e-15 0)
(1 -6.07843e-15 0)
(1 3.97694e-15 0)
(1 -5.29655e-15 0)
(1 5.36654e-15 0)
(1 1.70108e-15 0)
(1 -7.69604e-16 0)
(1 -5.38363e-15 0)
(1 -7.78063e-16 0)
(1 1.95365e-15 0)
(1 6.40181e-15 0)
(1 6.24931e-15 0)
(1 6.29795e-15 0)
(1 4.01677e-15 0)
(1 6.5846e-15 0)
(1 -6.78778e-16 0)
(1 2.07638e-15 0)
(1 -1.67996e-15 0)
(1 -7.07701e-15 0)
(1 -6.09766e-15 0)
(1 1.77228e-16 0)
(1 6.07193e-15 0)
(1 2.89022e-15 0)
(1 6.95368e-15 0)
(1 1.57116e-15 0)
(1 -4.12667e-15 0)
(1 -1.62868e-15 0)
(1 8.70549e-15 0)
(1 4.22305e-15 0)
(1 2.44568e-15 0)
(1 -3.96148e-15 0)
(1 1.53318e-15 0)
(1 -3.56354e-15 0)
(1 2.52686e-15 0)
(1 -4.3556e-15 0)
(1 -7.28728e-15 0)
(1 -2.71476e-15 0)
(1 -1.07093e-14 0)
(1 -6.33169e-15 0)
(1 1.11825e-15 0)
(1 1.2909e-15 0)
(1 -3.36417e-15 0)
(1 -4.60123e-15 0)
(1 -5.40444e-15 0)
(1 -3.73077e-15 0)
(1 7.79443e-15 0)
(1 3.86939e-15 0)
(1 1.15849e-14 0)
(1 4.61896e-15 0)
(1 5.88347e-15 0)
(1 -1.57733e-15 0)
(1 4.02302e-16 0)
(1 -8.16481e-16 0)
(1 4.21727e-15 0)
(1 4.77381e-15 0)
(1 3.95994e-15 0)
(1 1.69328e-15 0)
(1 -2.5365e-15 0)
(1 2.71156e-15 0)
(1 5.6116e-15 0)
(1 4.06554e-15 0)
(1 -2.42723e-16 0)
(1 2.15644e-15 0)
(1 -1.84927e-15 0)
(1 3.41129e-15 0)
(1 4.04807e-15 0)
(1 6.73972e-15 0)
(1 1.0733e-15 0)
(1 -7.01833e-15 0)
(1 -2.66279e-15 0)
(1 -4.03253e-15 0)
(1 -6.64177e-15 0)
(1 2.30624e-15 0)
(1 -3.69903e-16 0)
(1 -1.32576e-15 0)
(1 1.16442e-15 0)
(1 2.34677e-15 0)
(1 2.12318e-15 0)
(1 4.78316e-15 0)
(1 4.64117e-16 0)
(1 -3.04726e-15 0)
(1 -4.75553e-15 0)
(1 -3.26545e-15 0)
(1 -1.85946e-16 0)
(1 2.57329e-15 0)
(1 2.11941e-15 0)
(1 5.98739e-15 0)
(1 1.92287e-15 0)
(1 5.54242e-15 0)
(1 -9.57065e-17 0)
(1 4.60328e-15 0)
(1 -1.82467e-15 0)
(1 3.66006e-15 0)
(1 5.43375e-15 0)
(1 5.20202e-15 0)
(1 4.29797e-16 0)
(1 -4.54814e-16 0)
(1 -7.04865e-16 0)
(1 -3.56236e-15 0)
(1 1.95054e-15 0)
(1 -6.08496e-16 0)
(1 -5.21906e-16 0)
(1 6.63916e-15 0)
(1 4.12684e-15 0)
(1 1.00521e-15 0)
(1 -7.77711e-15 0)
(1 -6.69341e-15 0)
(1 1.75844e-15 0)
(1 -4.09333e-15 0)
(1 4.84134e-15 0)
(1 2.09397e-15 0)
(1 1.2552e-14 0)
(1 1.3424e-14 0)
(1 -1.6593e-15 0)
(1 2.96048e-15 0)
(1 1.22578e-15 0)
(1 -3.3286e-15 0)
(1 -2.57071e-16 0)
(1 -6.58738e-15 0)
(1 -8.77762e-15 0)
(1 -1.39424e-15 0)
(1 9.41522e-15 0)
(1 1.46033e-14 0)
(1 7.92861e-15 0)
(1 3.78222e-15 0)
(1 -4.44292e-16 0)
(1 -2.4058e-15 0)
(1 8.20528e-15 0)
(1 -6.81966e-15 0)
(1 1.68425e-15 0)
(1 -9.59422e-15 0)
(1 4.81425e-15 0)
(1 -3.77136e-15 0)
(1 8.88751e-15 0)
(1 2.66094e-16 0)
(1 -8.89474e-17 0)
(1 -4.54641e-15 0)
(1 1.06898e-16 0)
(1 -5.64192e-15 0)
(1 6.52825e-16 0)
(1 -5.71233e-15 0)
(1 3.58283e-15 0)
(1 -5.66402e-16 0)
(1 -8.15384e-15 0)
(1 -1.14407e-16 0)
(1 2.42939e-15 0)
(1 4.23624e-15 0)
(1 7.34928e-15 0)
(1 1.01344e-14 0)
(1 4.52636e-15 0)
(1 -1.07259e-15 0)
(1 2.38698e-15 0)
(1 4.80958e-15 0)
(1 4.60079e-15 0)
(1 2.81293e-15 0)
(1 2.89271e-15 0)
(1 2.10738e-15 0)
(1 3.05127e-15 0)
(1 3.03975e-15 0)
(1 1.02062e-14 0)
(1 4.02039e-15 0)
(1 3.95029e-15 0)
(1 -4.85508e-15 0)
(1 -1.97785e-15 0)
(1 3.53197e-15 0)
(1 5.68978e-15 0)
(1 1.28635e-14 0)
(1 8.07232e-15 0)
(1 4.71433e-15 0)
(1 5.72979e-15 0)
(1 5.06835e-15 0)
(1 -1.29306e-15 0)
(1 1.73898e-15 0)
(1 -9.87037e-16 0)
(1 -3.67974e-15 0)
(1 -4.96802e-15 0)
(1 -3.98124e-15 0)
(1 7.50933e-16 0)
(1 -2.38808e-15 0)
(1 3.44165e-15 0)
(1 1.62361e-17 0)
(1 8.71301e-16 0)
(1 4.36766e-16 0)
(1 5.11902e-15 0)
(1 -2.68401e-15 0)
(1 -2.99505e-15 0)
(1 -5.16642e-15 0)
(1 -4.64334e-15 0)
(1 -8.54092e-16 0)
(1 -4.91052e-16 0)
(1 2.91174e-15 0)
(1 2.10924e-15 0)
(1 4.72739e-15 0)
(1 7.08361e-15 0)
(1 9.36512e-15 0)
(1 7.90653e-15 0)
(1 8.67037e-15 0)
(1 1.73122e-16 0)
(1 8.15312e-15 0)
(1 8.18755e-15 0)
(1 -1.49251e-15 0)
(1 -5.13112e-16 0)
(1 6.42295e-15 0)
(1 2.905e-15 0)
(1 2.30919e-15 0)
(1 -6.76408e-15 0)
(1 -1.36318e-15 0)
(1 6.77273e-15 0)
(1 2.69018e-16 0)
(1 6.79223e-15 0)
(1 -1.77621e-15 0)
(1 5.29719e-15 0)
(1 -2.12219e-15 0)
(1 6.48095e-15 0)
(1 1.88329e-15 0)
(1 2.06313e-15 0)
(1 9.1391e-16 0)
(1 -3.49359e-15 0)
(1 1.9316e-15 0)
(1 5.76033e-15 0)
(1 3.59465e-15 0)
(1 -1.86229e-15 0)
(1 3.36149e-15 0)
(1 -1.14158e-14 0)
(1 -1.0929e-15 0)
(1 2.49476e-16 0)
(1 5.40077e-15 0)
(1 4.55083e-15 0)
(1 3.85711e-15 0)
(1 1.27917e-15 0)
(1 5.06462e-15 0)
(1 5.08356e-16 0)
(1 1.27774e-15 0)
(1 -3.35202e-15 0)
(1 -6.35415e-16 0)
(1 -6.76534e-16 0)
(1 -4.56908e-15 0)
(1 4.84554e-15 0)
(1 -5.0343e-15 0)
(1 4.04933e-15 0)
(1 -2.22426e-15 0)
(1 6.77733e-15 0)
(1 1.69439e-15 0)
(1 4.40632e-15 0)
(1 -1.06403e-15 0)
(1 -1.58702e-16 0)
(1 4.18361e-15 0)
(1 3.84425e-15 0)
(1 8.35199e-15 0)
(1 -1.6413e-15 0)
(1 -9.92843e-17 0)
(1 7.26142e-16 0)
(1 5.39033e-15 0)
(1 -6.74388e-16 0)
(1 -1.64157e-15 0)
(1 3.71103e-15 0)
(1 5.8e-15 0)
(1 5.38543e-15 0)
(1 1.64097e-15 0)
(1 6.81033e-15 0)
(1 5.95634e-15 0)
(1 6.50201e-15 0)
(1 -5.68042e-16 0)
(1 4.14334e-15 0)
(1 -1.36667e-15 0)
(1 -2.49857e-15 0)
(1 1.79468e-15 0)
(1 2.15525e-15 0)
(1 3.43132e-15 0)
(1 7.32345e-16 0)
(1 5.85651e-15 0)
(1 1.12894e-15 0)
(1 -3.91797e-15 0)
(1 -6.30501e-16 0)
(1 -1.90674e-15 0)
(1 9.10522e-15 0)
(1 2.93788e-15 0)
(1 6.60117e-15 0)
(1 7.53154e-16 0)
(1 8.65376e-16 0)
(1 2.06726e-15 0)
(1 2.40342e-15 0)
(1 3.0707e-15 0)
(1 3.81736e-15 0)
(1 -1.5649e-16 0)
(1 3.96246e-15 0)
(1 2.91971e-15 0)
(1 6.48388e-15 0)
(1 2.43404e-15 0)
(1 3.42267e-15 0)
(1 1.41102e-15 0)
(1 6.39276e-15 0)
(1 7.09381e-15 0)
(1 9.00353e-15 0)
(1 6.28821e-15 0)
(1 1.04339e-14 0)
(1 1.1635e-14 0)
(1 5.8109e-15 0)
(1 8.17766e-15 0)
(1 7.00581e-15 0)
(1 -2.5767e-16 0)
(1 1.11316e-15 0)
(1 -1.00261e-14 0)
(1 3.69866e-15 0)
(1 1.65287e-15 0)
(1 2.97538e-15 0)
(1 1.40902e-15 0)
(1 -1.87322e-16 0)
(1 6.88971e-15 0)
(1 6.15619e-15 0)
(1 2.92973e-15 0)
(1 -1.25216e-15 0)
(1 -7.75256e-16 0)
(1 9.4574e-15 0)
(1 3.90215e-15 0)
(1 5.18624e-15 0)
(1 7.4392e-15 0)
(1 8.55616e-15 0)
(1 4.98913e-15 0)
(1 9.993e-15 0)
(1 3.49141e-15 0)
(1 -1.52781e-14 0)
(1 -6.62952e-15 0)
(1 -1.71839e-14 0)
(1 -1.82248e-14 0)
(1 -9.31243e-15 0)
(1 -2.61217e-15 0)
(1 -2.69192e-15 0)
(1 1.02493e-14 0)
(1 8.73681e-15 0)
(1 1.54849e-14 0)
(1 1.19041e-15 0)
(1 3.06672e-15 0)
(1 -3.93545e-15 0)
(1 -1.59308e-15 0)
(1 -1.32799e-15 0)
(1 1.39541e-15 0)
(1 4.92482e-16 0)
(1 1.78916e-15 0)
(1 3.13175e-15 0)
(1 3.98426e-15 0)
(1 -6.32839e-15 0)
(1 -7.3457e-15 0)
(1 -5.69539e-15 0)
(1 -7.40994e-16 0)
(1 6.93499e-15 0)
(1 9.22693e-15 0)
(1 6.22803e-15 0)
(1 1.75512e-15 0)
(1 2.22409e-15 0)
(1 4.30056e-15 0)
(1 2.33649e-15 0)
(1 2.63565e-15 0)
(1 4.29964e-15 0)
(1 6.86996e-15 0)
(1 1.08601e-14 0)
(1 6.14009e-15 0)
(1 5.78712e-15 0)
(1 -1.73138e-15 0)
(1 -1.7307e-15 0)
(1 -1.92982e-15 0)
(1 7.05934e-15 0)
(1 1.15755e-14 0)
(1 1.49485e-14 0)
(1 3.6549e-15 0)
(1 -5.91307e-16 0)
(1 6.98007e-15 0)
(1 2.47251e-15 0)
(1 1.75914e-15 0)
(1 3.55919e-15 0)
(1 4.04274e-15 0)
(1 1.76072e-15 0)
(1 2.96813e-15 0)
(1 -8.83637e-16 0)
(1 3.49879e-15 0)
(1 6.41644e-15 0)
(1 1.4132e-15 0)
(1 2.36065e-15 0)
(1 -2.67699e-15 0)
(1 -3.08294e-15 0)
(1 -6.79575e-17 0)
(1 -3.33205e-16 0)
(1 5.00365e-16 0)
(1 -5.25711e-16 0)
(1 2.18764e-15 0)
(1 4.59492e-15 0)
(1 3.93127e-15 0)
(1 3.86335e-15 0)
(1 5.90226e-15 0)
(1 1.9061e-15 0)
(1 3.03237e-15 0)
(1 3.71136e-15 0)
(1 6.58027e-15 0)
(1 7.87584e-15 0)
(1 6.91658e-15 0)
(1 8.90396e-15 0)
(1 7.93672e-15 0)
(1 7.57412e-15 0)
(1 1.03914e-14 0)
(1 1.59717e-14 0)
(1 -2.10361e-15 0)
(1 -2.74033e-15 0)
(1 -7.89686e-15 0)
(1 -3.08666e-15 0)
(1 -8.62702e-16 0)
(1 7.08542e-15 0)
(1 5.28272e-15 0)
(1 1.12565e-17 0)
(1 3.01592e-15 0)
(1 -5.51231e-15 0)
(1 6.95111e-16 0)
(1 -2.44257e-15 0)
(1 4.23949e-15 0)
(1 1.18214e-14 0)
(1 7.73472e-15 0)
(1 1.025e-14 0)
(1 -4.16495e-15 0)
(1 8.99669e-15 0)
(1 5.77966e-15 0)
(1 2.22783e-15 0)
(1 -7.6029e-15 0)
(1 -7.3736e-15 0)
(1 -6.6831e-16 0)
(1 2.01189e-15 0)
(1 -8.5359e-15 0)
(1 -2.79321e-15 0)
(1 -2.29842e-15 0)
(1 -1.30194e-15 0)
(1 -1.22851e-15 0)
(1 2.89988e-15 0)
(1 3.20646e-15 0)
(1 -2.84017e-15 0)
(1 -5.29988e-15 0)
(1 -1.54602e-15 0)
(1 -2.87656e-15 0)
(1 2.56577e-15 0)
(1 4.19948e-15 0)
(1 4.56527e-15 0)
(1 2.81862e-15 0)
(1 -3.98745e-16 0)
(1 -3.03679e-16 0)
(1 -7.61655e-16 0)
(1 8.14385e-16 0)
(1 -3.81315e-17 0)
(1 1.2481e-14 0)
(1 7.243e-15 0)
(1 8.83537e-15 0)
(1 1.4127e-15 0)
(1 -5.02433e-15 0)
(1 1.03541e-15 0)
(1 9.52124e-16 0)
(1 5.68506e-15 0)
(1 1.15469e-15 0)
(1 1.00784e-14 0)
(1 1.32373e-14 0)
(1 7.98232e-15 0)
(1 7.58879e-15 0)
(1 -7.76316e-16 0)
(1 6.89888e-15 0)
(1 4.33288e-15 0)
(1 4.95687e-15 0)
(1 1.56566e-15 0)
(1 9.14986e-16 0)
(1 6.43293e-15 0)
(1 -2.62178e-15 0)
(1 3.82521e-15 0)
(1 3.89454e-15 0)
(1 9.03588e-15 0)
(1 1.61512e-14 0)
(1 1.53359e-14 0)
(1 1.28439e-14 0)
(1 5.83638e-15 0)
(1 5.6576e-15 0)
(1 -2.04295e-15 0)
(1 5.44556e-16 0)
(1 2.12966e-15 0)
(1 1.20973e-15 0)
(1 7.46676e-15 0)
(1 5.70619e-15 0)
(1 5.2143e-15 0)
(1 3.23694e-15 0)
(1 6.14574e-15 0)
(1 4.11852e-15 0)
(1 -2.1938e-15 0)
(1 -8.3961e-15 0)
(1 -3.63871e-15 0)
(1 -2.37691e-15 0)
(1 1.16368e-15 0)
(1 3.88558e-15 0)
(1 3.63565e-15 0)
(1 -5.58612e-16 0)
(1 4.39635e-15 0)
(1 6.98595e-15 0)
(1 9.97181e-15 0)
(1 1.34312e-14 0)
(1 1.50614e-14 0)
(1 1.79201e-14 0)
(1 1.85925e-14 0)
(1 2.27879e-14 0)
(1 2.538e-14 0)
(1 5.35461e-16 0)
(1 1.28065e-15 0)
(1 7.96235e-15 0)
(1 -4.64472e-15 0)
(1 -7.132e-16 0)
(1 -6.80427e-15 0)
(1 2.6057e-15 0)
(1 4.34852e-15 0)
(1 5.67108e-15 0)
(1 -8.64321e-16 0)
(1 5.42287e-16 0)
(1 6.06395e-15 0)
(1 7.74745e-15 0)
(1 1.18123e-14 0)
(1 -9.37359e-16 0)
(1 -3.24464e-15 0)
(1 -6.80713e-15 0)
(1 3.72387e-15 0)
(1 3.54919e-15 0)
(1 6.15079e-15 0)
(1 -3.03418e-15 0)
(1 -5.86385e-15 0)
(1 -1.77727e-14 0)
(1 -2.30004e-15 0)
(1 3.28909e-15 0)
(1 6.72236e-15 0)
(1 1.06677e-15 0)
(1 7.71028e-15 0)
(1 3.28762e-15 0)
(1 1.97015e-15 0)
(1 -6.29903e-15 0)
(1 -2.14672e-16 0)
(1 -4.17421e-15 0)
(1 -2.96453e-16 0)
(1 -4.77241e-15 0)
(1 2.59917e-15 0)
(1 -2.98446e-15 0)
(1 4.73004e-15 0)
(1 -3.65805e-15 0)
(1 -7.05994e-15 0)
(1 -4.53449e-15 0)
(1 1.35656e-15 0)
(1 9.20034e-15 0)
(1 7.58581e-15 0)
(1 6.02541e-15 0)
(1 -1.38262e-15 0)
(1 2.13787e-15 0)
(1 2.94666e-15 0)
(1 -9.83797e-16 0)
(1 3.70367e-15 0)
(1 1.31998e-15 0)
(1 -8.73625e-16 0)
(1 7.59708e-15 0)
(1 3.77119e-15 0)
(1 1.17432e-14 0)
(1 1.17047e-14 0)
(1 6.73804e-15 0)
(1 -2.05168e-15 0)
(1 4.2607e-15 0)
(1 9.84796e-15 0)
(1 1.02341e-14 0)
(1 5.56112e-15 0)
(1 3.7958e-15 0)
(1 3.55407e-15 0)
(1 5.62534e-15 0)
(1 2.98834e-15 0)
(1 4.58695e-15 0)
(1 1.20062e-14 0)
(1 2.22686e-14 0)
(1 1.41148e-14 0)
(1 6.73097e-15 0)
(1 4.31793e-15 0)
(1 2.00381e-16 0)
(1 3.19564e-16 0)
(1 4.77087e-15 0)
(1 2.77065e-15 0)
(1 5.08183e-15 0)
(1 6.44246e-15 0)
(1 8.47694e-15 0)
(1 5.77584e-15 0)
(1 4.97434e-15 0)
(1 3.62443e-15 0)
(1 5.44385e-16 0)
(1 -2.03106e-15 0)
(1 -6.78518e-15 0)
(1 6.40405e-16 0)
(1 6.43129e-15 0)
(1 6.88374e-15 0)
(1 3.80175e-15 0)
(1 8.92693e-16 0)
(1 4.76185e-15 0)
(1 7.10395e-15 0)
(1 7.66353e-15 0)
(1 6.96102e-15 0)
(1 1.88562e-14 0)
(1 1.06996e-14 0)
(1 1.57014e-14 0)
(1 1.54796e-14 0)
(1 2.86077e-14 0)
(1 2.80438e-14 0)
(1 -3.55995e-16 0)
(1 2.05638e-15 0)
(1 2.77173e-17 0)
(1 -2.45908e-16 0)
(1 -5.50265e-15 0)
(1 -8.16813e-15 0)
(1 -1.15307e-15 0)
(1 -6.66282e-16 0)
(1 6.89059e-15 0)
(1 8.65846e-15 0)
(1 4.71032e-15 0)
(1 -3.60243e-15 0)
(1 2.30392e-15 0)
(1 -2.46749e-15 0)
(1 -7.89025e-16 0)
(1 3.53156e-16 0)
(1 9.31041e-15 0)
(1 4.6402e-15 0)
(1 1.76528e-15 0)
(1 8.77273e-16 0)
(1 -2.40653e-15 0)
(1 -6.91106e-15 0)
(1 -1.68402e-14 0)
(1 -4.54447e-15 0)
(1 -5.0683e-15 0)
(1 4.18807e-15 0)
(1 4.97494e-15 0)
(1 1.13471e-14 0)
(1 5.16098e-15 0)
(1 9.39585e-16 0)
(1 -4.41911e-15 0)
(1 -3.52352e-15 0)
(1 -3.47935e-15 0)
(1 4.66153e-16 0)
(1 -2.83537e-15 0)
(1 -1.53531e-15 0)
(1 3.56765e-15 0)
(1 -9.6641e-16 0)
(1 -4.65012e-15 0)
(1 -5.8989e-15 0)
(1 1.18236e-15 0)
(1 1.16518e-16 0)
(1 7.92855e-15 0)
(1 -9.01133e-16 0)
(1 6.01941e-16 0)
(1 -7.30616e-16 0)
(1 6.28194e-15 0)
(1 2.08168e-15 0)
(1 7.0204e-15 0)
(1 5.63293e-15 0)
(1 1.12175e-14 0)
(1 9.28974e-15 0)
(1 1.19094e-14 0)
(1 5.69507e-15 0)
(1 7.14867e-15 0)
(1 4.46914e-15 0)
(1 3.92643e-15 0)
(1 3.51877e-15 0)
(1 1.96063e-15 0)
(1 2.73704e-15 0)
(1 9.6023e-15 0)
(1 5.5953e-15 0)
(1 4.28081e-15 0)
(1 2.81665e-15 0)
(1 1.19185e-14 0)
(1 4.35926e-15 0)
(1 5.02365e-15 0)
(1 5.07953e-15 0)
(1 2.63183e-15 0)
(1 5.33018e-15 0)
(1 4.20713e-15 0)
(1 1.39267e-14 0)
(1 8.7065e-15 0)
(1 -1.09823e-15 0)
(1 4.35484e-15 0)
(1 -1.46649e-15 0)
(1 1.33589e-14 0)
(1 1.81223e-15 0)
(1 3.88233e-15 0)
(1 9.93248e-15 0)
(1 1.10618e-14 0)
(1 6.05565e-15 0)
(1 6.45045e-15 0)
(1 3.20776e-15 0)
(1 6.50397e-16 0)
(1 -3.1683e-15 0)
(1 3.90511e-15 0)
(1 -1.75732e-15 0)
(1 2.92281e-15 0)
(1 -2.30891e-15 0)
(1 1.38274e-14 0)
(1 4.83779e-15 0)
(1 6.18628e-15 0)
(1 2.74917e-15 0)
(1 1.29049e-14 0)
(1 1.13712e-14 0)
(1 1.4567e-14 0)
(1 1.23663e-14 0)
(1 1.90728e-14 0)
(1 2.0057e-14 0)
(1 1.03167e-15 0)
(1 -2.17195e-16 0)
(1 -1.65797e-15 0)
(1 3.0281e-15 0)
(1 -5.87187e-15 0)
(1 4.11983e-15 0)
(1 -3.38721e-15 0)
(1 9.40841e-16 0)
(1 1.96224e-15 0)
(1 7.03977e-15 0)
(1 6.1455e-15 0)
(1 -5.11253e-16 0)
(1 3.46265e-15 0)
(1 -5.79438e-15 0)
(1 9.17321e-15 0)
(1 2.71136e-15 0)
(1 3.25596e-15 0)
(1 -1.33853e-14 0)
(1 -4.20545e-16 0)
(1 -1.57145e-14 0)
(1 -6.92435e-15 0)
(1 4.06207e-15 0)
(1 9.04034e-15 0)
(1 5.30417e-15 0)
(1 8.8162e-15 0)
(1 -5.57967e-16 0)
(1 1.82556e-15 0)
(1 7.42702e-15 0)
(1 8.05129e-15 0)
(1 -1.19834e-15 0)
(1 -3.46767e-15 0)
(1 -6.32586e-15 0)
(1 -6.11068e-15 0)
(1 -5.71109e-15 0)
(1 -6.11103e-15 0)
(1 -6.16983e-15 0)
(1 -5.09857e-15 0)
(1 -2.4917e-15 0)
(1 3.26725e-15 0)
(1 2.02183e-15 0)
(1 8.98278e-15 0)
(1 6.09061e-15 0)
(1 -4.56751e-15 0)
(1 -3.35283e-16 0)
(1 1.84327e-15 0)
(1 2.75756e-15 0)
(1 6.60805e-15 0)
(1 -8.30638e-16 0)
(1 1.33536e-14 0)
(1 7.40162e-15 0)
(1 9.30623e-15 0)
(1 6.00061e-15 0)
(1 2.11986e-15 0)
(1 6.39163e-15 0)
(1 5.11406e-15 0)
(1 -9.99467e-15 0)
(1 -2.04705e-15 0)
(1 -7.02385e-16 0)
(1 6.73682e-15 0)
(1 5.02025e-15 0)
(1 1.32768e-14 0)
(1 1.18179e-14 0)
(1 1.15121e-14 0)
(1 3.49932e-15 0)
(1 1.03009e-14 0)
(1 8.30132e-15 0)
(1 1.34051e-15 0)
(1 3.8991e-15 0)
(1 -1.7508e-15 0)
(1 2.87032e-15 0)
(1 8.46967e-15 0)
(1 1.0894e-14 0)
(1 2.10113e-15 0)
(1 -1.93371e-15 0)
(1 2.8864e-15 0)
(1 -4.01864e-15 0)
(1 5.57352e-15 0)
(1 5.11751e-15 0)
(1 4.21181e-15 0)
(1 1.35916e-14 0)
(1 1.20131e-14 0)
(1 9.94358e-15 0)
(1 1.1271e-14 0)
(1 2.91231e-15 0)
(1 5.67507e-15 0)
(1 -1.61931e-15 0)
(1 7.45907e-16 0)
(1 -4.70311e-16 0)
(1 5.03126e-15 0)
(1 5.59351e-15 0)
(1 1.04302e-14 0)
(1 3.69506e-15 0)
(1 4.17337e-15 0)
(1 4.04689e-15 0)
(1 8.45971e-15 0)
(1 1.77955e-14 0)
(1 1.79266e-14 0)
(1 1.79989e-14 0)
(1 9.19866e-15 0)
(1 9.95764e-15 0)
(1 2.88547e-15 0)
(1 2.16117e-15 0)
(1 -4.65831e-15 0)
(1 -6.51874e-15 0)
(1 1.40867e-15 0)
(1 -2.08106e-15 0)
(1 -3.03308e-15 0)
(1 2.29971e-15 0)
(1 7.91444e-16 0)
(1 3.69944e-15 0)
(1 4.28179e-15 0)
(1 3.44572e-15 0)
(1 3.50291e-15 0)
(1 1.0084e-15 0)
(1 2.66708e-15 0)
(1 -1.61786e-15 0)
(1 -1.63513e-15 0)
(1 -2.66639e-15 0)
(1 7.57217e-15 0)
(1 1.76755e-15 0)
(1 9.90048e-15 0)
(1 1.01297e-15 0)
(1 -6.81289e-15 0)
(1 -1.19677e-14 0)
(1 -1.80755e-15 0)
(1 -8.7534e-16 0)
(1 4.7141e-16 0)
(1 -3.41727e-15 0)
(1 4.96448e-15 0)
(1 -1.24333e-15 0)
(1 -7.48229e-15 0)
(1 -9.02017e-15 0)
(1 -6.90679e-15 0)
(1 -1.3338e-14 0)
(1 4.91661e-15 0)
(1 2.07208e-15 0)
(1 3.26331e-15 0)
(1 -2.5146e-15 0)
(1 1.13924e-15 0)
(1 4.04241e-15 0)
(1 7.28404e-15 0)
(1 4.82402e-15 0)
(1 -9.08315e-15 0)
(1 1.31853e-15 0)
(1 8.53583e-16 0)
(1 1.02073e-14 0)
(1 2.56518e-15 0)
(1 1.07503e-14 0)
(1 9.89782e-15 0)
(1 7.55057e-15 0)
(1 6.48694e-15 0)
(1 3.8531e-15 0)
(1 -1.05974e-16 0)
(1 3.28749e-15 0)
(1 2.78236e-15 0)
(1 5.62108e-15 0)
(1 1.43111e-15 0)
(1 3.49134e-15 0)
(1 -8.12099e-15 0)
(1 -1.65105e-15 0)
(1 -7.17441e-15 0)
(1 5.82417e-16 0)
(1 6.65023e-15 0)
(1 1.11183e-14 0)
(1 1.69605e-14 0)
(1 1.43972e-14 0)
(1 7.93448e-15 0)
(1 6.48586e-15 0)
(1 2.34173e-15 0)
(1 -1.14742e-15 0)
(1 -8.36483e-15 0)
(1 -5.74571e-15 0)
(1 5.83701e-15 0)
(1 1.45057e-14 0)
(1 9.07057e-15 0)
(1 6.14959e-15 0)
(1 -6.48269e-15 0)
(1 5.25091e-15 0)
(1 6.18395e-15 0)
(1 2.96015e-15 0)
(1 3.80414e-15 0)
(1 6.8914e-15 0)
(1 6.30723e-15 0)
(1 4.73293e-15 0)
(1 8.45905e-15 0)
(1 6.26872e-15 0)
(1 4.89574e-15 0)
(1 7.76461e-15 0)
(1 7.50764e-15 0)
(1 9.6321e-15 0)
(1 4.41861e-15 0)
(1 5.78953e-15 0)
(1 4.40436e-17 0)
(1 4.97606e-15 0)
(1 4.00027e-15 0)
(1 1.00637e-14 0)
(1 8.72986e-15 0)
(1 9.09258e-15 0)
(1 5.88957e-15 0)
(1 6.46947e-15 0)
(1 -6.89184e-16 0)
(1 6.28586e-15 0)
(1 -3.85934e-15 0)
(1 -6.69587e-15 0)
(1 -1.20219e-15 0)
(1 -2.17069e-15 0)
(1 -6.22008e-16 0)
(1 3.17224e-16 0)
(1 6.16492e-15 0)
(1 9.46913e-15 0)
(1 1.78557e-15 0)
(1 3.88911e-15 0)
(1 -3.76795e-15 0)
(1 -1.61493e-15 0)
(1 -7.30942e-15 0)
(1 6.44622e-15 0)
(1 3.99751e-15 0)
(1 5.90977e-15 0)
(1 -9.02171e-15 0)
(1 -1.40785e-15 0)
(1 -1.97997e-15 0)
(1 5.51147e-15 0)
(1 -1.00544e-14 0)
(1 4.72761e-16 0)
(1 -2.67258e-15 0)
(1 6.85841e-15 0)
(1 8.63166e-15 0)
(1 -2.04023e-15 0)
(1 3.70774e-15 0)
(1 -3.07454e-15 0)
(1 -3.08541e-15 0)
(1 -1.10267e-14 0)
(1 -1.06637e-14 0)
(1 -1.21208e-14 0)
(1 1.79056e-15 0)
(1 7.35728e-15 0)
(1 1.39966e-14 0)
(1 -7.38571e-16 0)
(1 -3.20143e-16 0)
(1 -4.62784e-15 0)
(1 -5.22314e-15 0)
(1 -9.09971e-16 0)
(1 4.70598e-15 0)
(1 7.13835e-15 0)
(1 9.34335e-15 0)
(1 1.37594e-14 0)
(1 2.77255e-15 0)
(1 1.15073e-14 0)
(1 1.81479e-15 0)
(1 7.43169e-17 0)
(1 -1.03045e-14 0)
(1 -4.28328e-15 0)
(1 -1.14885e-15 0)
(1 7.98469e-15 0)
(1 2.09567e-15 0)
(1 1.31993e-14 0)
(1 9.79839e-15 0)
(1 1.10174e-14 0)
(1 -8.72215e-16 0)
(1 5.62865e-15 0)
(1 -1.82338e-15 0)
(1 -3.36919e-15 0)
(1 -3.9153e-15 0)
(1 8.53721e-15 0)
(1 3.58408e-15 0)
(1 1.45753e-14 0)
(1 1.23754e-14 0)
(1 8.4008e-15 0)
(1 -2.78437e-16 0)
(1 1.71611e-15 0)
(1 -4.9546e-15 0)
(1 7.24825e-15 0)
(1 1.11334e-14 0)
(1 1.67311e-14 0)
(1 4.00195e-15 0)
(1 1.35376e-14 0)
(1 1.06551e-15 0)
(1 7.83404e-15 0)
(1 1.06726e-14 0)
(1 1.04144e-15 0)
(1 3.61055e-15 0)
(1 6.25158e-15 0)
(1 1.18954e-15 0)
(1 4.62185e-15 0)
(1 7.13651e-15 0)
(1 1.03445e-14 0)
(1 3.40145e-15 0)
(1 8.8784e-15 0)
(1 7.4443e-15 0)
(1 8.82417e-15 0)
(1 6.59031e-15 0)
(1 9.20133e-15 0)
(1 2.69061e-15 0)
(1 8.17926e-15 0)
(1 1.12906e-15 0)
(1 9.79311e-15 0)
(1 9.03359e-15 0)
(1 9.0504e-15 0)
(1 9.34059e-15 0)
(1 7.7106e-15 0)
(1 3.65013e-16 0)
(1 1.99984e-15 0)
(1 -1.35677e-16 0)
(1 -2.27575e-15 0)
(1 -2.26803e-15 0)
(1 1.01364e-15 0)
(1 -4.29923e-15 0)
(1 -7.07773e-15 0)
(1 6.9834e-15 0)
(1 2.24486e-15 0)
(1 3.8564e-15 0)
(1 6.84396e-15 0)
(1 4.17789e-15 0)
(1 -2.03266e-15 0)
(1 -3.33891e-15 0)
(1 1.70478e-15 0)
(1 -2.95888e-15 0)
(1 -6.89688e-15 0)
(1 -1.62386e-14 0)
(1 8.28868e-16 0)
(1 1.59095e-15 0)
(1 1.08086e-14 0)
(1 8.56405e-15 0)
(1 1.72863e-15 0)
(1 -4.63693e-15 0)
(1 -5.29591e-15 0)
(1 -1.94325e-15 0)
(1 -3.32903e-15 0)
(1 -2.23266e-16 0)
(1 1.11899e-16 0)
(1 -2.28354e-15 0)
(1 4.42698e-16 0)
(1 1.09307e-15 0)
(1 -1.95764e-15 0)
(1 -3.50863e-15 0)
(1 3.73243e-15 0)
(1 -7.4151e-16 0)
(1 -3.99552e-15 0)
(1 4.69239e-16 0)
(1 -2.4693e-15 0)
(1 -5.56183e-15 0)
(1 -2.36629e-15 0)
(1 6.1312e-15 0)
(1 5.45333e-15 0)
(1 6.15794e-15 0)
(1 1.1379e-14 0)
(1 2.98114e-15 0)
(1 -2.60646e-15 0)
(1 -3.32488e-15 0)
(1 1.51728e-15 0)
(1 -2.08721e-15 0)
(1 1.85882e-15 0)
(1 5.27111e-15 0)
(1 1.34638e-14 0)
(1 1.27029e-14 0)
(1 5.9966e-15 0)
(1 5.56695e-15 0)
(1 6.15136e-15 0)
(1 6.81212e-15 0)
(1 1.45298e-15 0)
(1 6.77313e-15 0)
(1 2.50291e-15 0)
(1 6.17333e-15 0)
(1 1.61517e-15 0)
(1 4.64835e-15 0)
(1 8.77031e-15 0)
(1 1.73161e-14 0)
(1 9.48992e-15 0)
(1 1.02143e-14 0)
(1 8.85157e-15 0)
(1 1.01022e-14 0)
(1 3.0805e-15 0)
(1 -1.68638e-15 0)
(1 8.95132e-15 0)
(1 8.1064e-15 0)
(1 8.8715e-15 0)
(1 7.63788e-15 0)
(1 7.07532e-15 0)
(1 7.3175e-15 0)
(1 4.07143e-15 0)
(1 5.16614e-15 0)
(1 5.59318e-15 0)
(1 5.78579e-16 0)
(1 5.65543e-15 0)
(1 3.92667e-15 0)
(1 6.41117e-15 0)
(1 1.9451e-15 0)
(1 6.06003e-15 0)
(1 5.96464e-15 0)
(1 2.73964e-15 0)
(1 4.24454e-15 0)
(1 5.34404e-15 0)
(1 7.48308e-15 0)
(1 7.81171e-15 0)
(1 5.47019e-15 0)
(1 4.88297e-15 0)
(1 4.57852e-15 0)
(1 8.12964e-15 0)
(1 1.47519e-14 0)
(1 1.23642e-14 0)
(1 -1.98434e-15 0)
(1 -2.34108e-15 0)
(1 -9.81745e-16 0)
(1 -8.67636e-17 0)
(1 6.37599e-15 0)
(1 8.07815e-15 0)
(1 1.16384e-14 0)
(1 7.46697e-15 0)
(1 1.78386e-15 0)
(1 -9.61394e-15 0)
(1 -5.23553e-15 0)
(1 -8.20925e-15 0)
(1 -3.68369e-16 0)
(1 -2.45128e-15 0)
(1 -1.03824e-15 0)
(1 -5.0496e-15 0)
(1 -5.03713e-15 0)
(1 -2.96075e-15 0)
(1 1.54697e-15 0)
(1 -4.37866e-15 0)
(1 -1.56518e-15 0)
(1 -8.48943e-15 0)
(1 1.2192e-14 0)
(1 3.48368e-15 0)
(1 -2.53276e-15 0)
(1 -6.91603e-15 0)
(1 -3.65466e-15 0)
(1 -4.94251e-15 0)
(1 -8.82206e-15 0)
(1 -3.70495e-15 0)
(1 -6.49218e-15 0)
(1 5.30627e-15 0)
(1 4.2716e-15 0)
(1 1.99184e-15 0)
(1 -4.21823e-15 0)
(1 4.15274e-16 0)
(1 -4.13749e-15 0)
(1 -1.57272e-15 0)
(1 1.64054e-15 0)
(1 8.46886e-15 0)
(1 8.90602e-16 0)
(1 -3.23357e-15 0)
(1 3.84021e-15 0)
(1 5.79615e-15 0)
(1 5.07371e-15 0)
(1 5.83999e-15 0)
(1 3.99208e-15 0)
(1 -3.35692e-15 0)
(1 -9.41347e-15 0)
(1 -9.11108e-15 0)
(1 1.11692e-14 0)
(1 1.645e-14 0)
(1 1.02996e-14 0)
(1 5.47909e-15 0)
(1 6.46199e-15 0)
(1 4.12684e-15 0)
(1 3.09558e-15 0)
(1 3.39576e-15 0)
(1 6.52444e-15 0)
(1 -9.12493e-15 0)
(1 -6.2624e-15 0)
(1 -7.65213e-16 0)
(1 3.62355e-15 0)
(1 -2.18967e-16 0)
(1 6.6982e-15 0)
(1 -2.544e-16 0)
(1 5.02281e-15 0)
(1 2.3937e-15 0)
(1 9.14016e-15 0)
(1 6.01825e-15 0)
(1 6.60227e-15 0)
(1 1.06955e-15 0)
(1 4.62258e-15 0)
(1 9.51687e-15 0)
(1 1.06812e-14 0)
(1 6.70266e-15 0)
(1 3.71895e-15 0)
(1 7.40537e-15 0)
(1 4.79847e-15 0)
(1 9.00381e-15 0)
(1 3.80256e-16 0)
(1 2.28114e-15 0)
(1 4.46805e-15 0)
(1 1.09779e-14 0)
(1 8.59452e-15 0)
(1 5.85328e-15 0)
(1 2.92166e-15 0)
(1 6.10432e-15 0)
(1 4.79737e-15 0)
(1 7.79674e-15 0)
(1 1.79987e-15 0)
(1 2.27034e-16 0)
(1 5.83274e-15 0)
(1 4.92564e-15 0)
(1 8.92181e-15 0)
(1 2.47415e-15 0)