/*--------------------------------*- C++ -*----------------------------------*\
| =========                 |                                                 |
| \\      /  F ield         | OpenFOAM: The Open Source CFD Toolbox           |
|  \\    /   O peration     | Version:  v2012                                 |
|   \\  /    A nd           | Website:  www.openfoam.com                      |
|    \\/     M anipulation  |                                                 |
\*---------------------------------------------------------------------------*/
FoamFile
{
    version     2.0;
    format      ascii;
    class       volScalarField;
    location    "8.5";
    object      p;
}
// * * * * * * * * * * * * * * * * * * * * * * * * * * * * * * * * * * * * * //

dimensions      [0 2 -2 0 0 0 0];


internalField   nonuniform List<scalar> 
65536
(
-7.81828e-10
-2.22498e-06
-6.68189e-06
-1.33736e-05
-2.2303e-05
-3.34723e-05
-4.68839e-05
-6.25405e-05
-8.04455e-05
-0.000100603
-0.000123019
-0.000147699
-0.000174648
-0.000203872
-0.000235377
-0.00026917
-0.000305259
-0.00034365
-0.000384351
-0.000427369
-0.000472712
-0.000520388
-0.000570403
-0.000622765
-0.000677482
-0.000734559
-0.000794004
-0.000855823
-0.00092002
-0.000986601
-0.00105557
-0.00112693
-0.00120069
-0.00127684
-0.00135539
-0.00143633
-0.00151967
-0.0016054
-0.00169351
-0.00178401
-0.00187687
-0.0019721
-0.00206969
-0.0021696
-0.00227185
-0.00237639
-0.00248322
-0.00259231
-0.00270364
-0.00281718
-0.0029329
-0.00305076
-0.00317074
-0.00329279
-0.00341687
-0.00354293
-0.00367093
-0.00380082
-0.00393254
-0.00406604
-0.00420125
-0.00433811
-0.00447655
-0.0046165
-0.00475789
-0.00490063
-0.00504466
-0.00518987
-0.0053362
-0.00548353
-0.00563179
-0.00578087
-0.00593067
-0.0060811
-0.00623204
-0.00638338
-0.00653502
-0.00668685
-0.00683875
-0.00699059
-0.00714227
-0.00729367
-0.00744465
-0.00759511
-0.00774491
-0.00789393
-0.00804204
-0.00818913
-0.00833507
-0.00847973
-0.00862298
-0.00876472
-0.00890481
-0.00904313
-0.00917956
-0.00931399
-0.00944631
-0.00957639
-0.00970414
-0.00982944
-0.00995219
-0.0100723
-0.0101896
-0.0103041
-0.0104157
-0.0105243
-0.0106298
-0.0107321
-0.0108311
-0.0109268
-0.0110192
-0.0111081
-0.0111936
-0.0112755
-0.0113538
-0.0114286
-0.0114997
-0.0115671
-0.0116308
-0.0116908
-0.0117471
-0.0117997
-0.0118485
-0.0118936
-0.011935
-0.0119727
-0.0120067
-0.0120371
-0.0120638
-0.0120869
-0.0121064
-0.0121224
-0.0121349
-0.0121439
-0.0121496
-0.0121518
-0.0121509
-0.0121466
-0.0121392
-0.0121287
-0.0121151
-0.0120986
-0.0120792
-0.0120569
-0.0120319
-0.0120041
-0.0119738
-0.0119409
-0.0119056
-0.0118679
-0.0118279
-0.0117857
-0.0117413
-0.0116949
-0.0116465
-0.0115962
-0.0115441
-0.0114902
-0.0114347
-0.0113777
-0.0113191
-0.0112591
-0.0111977
-0.0111351
-0.0110714
-0.0110064
-0.0109405
-0.0108736
-0.0108058
-0.0107372
-0.0106678
-0.0105977
-0.010527
-0.0104558
-0.010384
-0.0103119
-0.0102393
-0.0101665
-0.0100934
-0.0100202
-0.00994678
-0.00987331
-0.00979982
-0.00972636
-0.00965298
-0.00957973
-0.00950665
-0.00943381
-0.00936123
-0.00928897
-0.00921707
-0.00914556
-0.0090745
-0.00900391
-0.00893384
-0.00886433
-0.0087954
-0.0087271
-0.00865945
-0.0085925
-0.00852626
-0.00846077
-0.00839607
-0.00833216
-0.0082691
-0.00820689
-0.00814557
-0.00808515
-0.00802567
-0.00796715
-0.0079096
-0.00785304
-0.00779751
-0.00774301
-0.00768956
-0.00763718
-0.0075859
-0.00753572
-0.00748665
-0.00743873
-0.00739195
-0.00734634
-0.0073019
-0.00725865
-0.0072166
-0.00717576
-0.00713614
-0.00709776
-0.00706062
-0.00702473
-0.0069901
-0.00695673
-0.00692465
-0.00689385
-0.00686434
-0.00683613
-0.00680922
-0.00678363
-0.00675935
-0.00673639
-0.00671475
-0.00669445
-0.00667548
-0.00665786
-0.00664157
-0.00662663
-0.00661304
-0.0066008
-0.00658991
-0.00658038
-0.00657221
-0.0065654
-0.00655995
-0.00655586
-0.00655313
-0.00655177
-2.36183e-06
-4.58614e-06
-9.04429e-06
-1.57361e-05
-2.46641e-05
-3.58308e-05
-4.92389e-05
-6.48917e-05
-8.27926e-05
-0.000102946
-0.000125357
-0.00015003
-0.000176973
-0.00020619
-0.000237688
-0.000271473
-0.000307554
-0.000345936
-0.000386628
-0.000429637
-0.000474971
-0.000522636
-0.000572641
-0.000624993
-0.000679699
-0.000736765
-0.000796199
-0.000858006
-0.000922192
-0.000988762
-0.00105772
-0.00112907
-0.00120281
-0.00127895
-0.00135749
-0.00143842
-0.00152175
-0.00160747
-0.00169557
-0.00178606
-0.00187891
-0.00197413
-0.00207171
-0.00217162
-0.00227385
-0.00237839
-0.00248521
-0.0025943
-0.00270562
-0.00281916
-0.00293487
-0.00305273
-0.00317271
-0.00329476
-0.00341883
-0.0035449
-0.00367291
-0.0038028
-0.00393452
-0.00406803
-0.00420324
-0.00434011
-0.00447856
-0.00461853
-0.00475993
-0.00490269
-0.00504673
-0.00519196
-0.0053383
-0.00548566
-0.00563393
-0.00578304
-0.00593286
-0.00608331
-0.00623428
-0.00638565
-0.00653732
-0.00668918
-0.00684111
-0.00699299
-0.0071447
-0.00729613
-0.00744715
-0.00759764
-0.00774748
-0.00789654
-0.00804469
-0.00819182
-0.00833779
-0.00848249
-0.00862579
-0.00876756
-0.00890769
-0.00904605
-0.00918253
-0.009317
-0.00944936
-0.00957948
-0.00970727
-0.00983261
-0.00995539
-0.0100755
-0.0101929
-0.0103075
-0.0104191
-0.0105277
-0.0106332
-0.0107355
-0.0108346
-0.0109303
-0.0110227
-0.0111117
-0.0111972
-0.0112791
-0.0113575
-0.0114322
-0.0115033
-0.0115708
-0.0116345
-0.0116945
-0.0117508
-0.0118034
-0.0118523
-0.0118974
-0.0119388
-0.0119765
-0.0120105
-0.0120408
-0.0120675
-0.0120906
-0.0121102
-0.0121261
-0.0121386
-0.0121477
-0.0121533
-0.0121556
-0.0121546
-0.0121503
-0.0121429
-0.0121324
-0.0121188
-0.0121023
-0.0120828
-0.0120605
-0.0120354
-0.0120077
-0.0119773
-0.0119444
-0.0119091
-0.0118714
-0.0118313
-0.0117891
-0.0117447
-0.0116982
-0.0116498
-0.0115995
-0.0115474
-0.0114935
-0.011438
-0.0113809
-0.0113223
-0.0112622
-0.0112009
-0.0111382
-0.0110744
-0.0110095
-0.0109435
-0.0108766
-0.0108087
-0.0107401
-0.0106707
-0.0106006
-0.0105298
-0.0104586
-0.0103868
-0.0103146
-0.0102421
-0.0101692
-0.0100961
-0.0100228
-0.0099494
-0.0098759
-0.00980239
-0.0097289
-0.00965549
-0.00958222
-0.00950912
-0.00943625
-0.00936365
-0.00929136
-0.00921944
-0.00914791
-0.00907682
-0.00900621
-0.00893612
-0.00886659
-0.00879764
-0.00872932
-0.00866165
-0.00859467
-0.00852842
-0.00846291
-0.00839818
-0.00833426
-0.00827118
-0.00820895
-0.00814761
-0.00808718
-0.00802768
-0.00796914
-0.00791158
-0.00785501
-0.00779945
-0.00774494
-0.00769148
-0.00763909
-0.00758779
-0.00753759
-0.00748852
-0.00744058
-0.00739379
-0.00734816
-0.00730371
-0.00726045
-0.00721839
-0.00717754
-0.00713792
-0.00709952
-0.00706237
-0.00702647
-0.00699183
-0.00695846
-0.00692637
-0.00689556
-0.00686605
-0.00683783
-0.00681091
-0.00678531
-0.00676102
-0.00673806
-0.00671642
-0.00669611
-0.00667714
-0.00665951
-0.00664322
-0.00662828
-0.00661468
-0.00660244
-0.00659155
-0.00658202
-0.00657384
-0.00656703
-0.00656158
-0.00655749
-0.00655476
-0.00655339
-7.09338e-06
-9.31864e-06
-1.37773e-05
-2.04678e-05
-2.93927e-05
-4.05544e-05
-5.3956e-05
-6.96011e-05
-8.74934e-05
-0.000107637
-0.000130038
-0.0001547
-0.000181629
-0.000210832
-0.000242316
-0.000276086
-0.00031215
-0.000350515
-0.00039119
-0.00043418
-0.000479494
-0.000527139
-0.000577124
-0.000629454
-0.000684138
-0.000741183
-0.000800594
-0.000862379
-0.000926542
-0.000993088
-0.00106202
-0.00113335
-0.00120707
-0.00128319
-0.0013617
-0.00144261
-0.00152591
-0.00161161
-0.00169969
-0.00179016
-0.001883
-0.0019782
-0.00207575
-0.00217565
-0.00227786
-0.00238239
-0.0024892
-0.00259827
-0.00270959
-0.00282311
-0.00293882
-0.00305668
-0.00317665
-0.0032987
-0.00342278
-0.00354885
-0.00367686
-0.00380676
-0.00393849
-0.00407201
-0.00420724
-0.00434413
-0.0044826
-0.00462258
-0.00476401
-0.0049068
-0.00505087
-0.00519614
-0.00534252
-0.00548991
-0.00563823
-0.00578738
-0.00593725
-0.00608775
-0.00623877
-0.0063902
-0.00654193
-0.00669385
-0.00684584
-0.00699778
-0.00714957
-0.00730106
-0.00745215
-0.00760272
-0.00775263
-0.00790176
-0.00805
-0.0081972
-0.00834326
-0.00848804
-0.00863141
-0.00877327
-0.00891348
-0.00905192
-0.00918848
-0.00932303
-0.00945547
-0.00958567
-0.00971353
-0.00983895
-0.00996181
-0.010082
-0.0101995
-0.0103141
-0.0104258
-0.0105345
-0.01064
-0.0107424
-0.0108415
-0.0109374
-0.0110298
-0.0111188
-0.0112044
-0.0112863
-0.0113647
-0.0114395
-0.0115107
-0.0115782
-0.0116419
-0.011702
-0.0117583
-0.0118109
-0.0118598
-0.0119049
-0.0119463
-0.011984
-0.0120181
-0.0120484
-0.0120751
-0.0120982
-0.0121177
-0.0121337
-0.0121461
-0.0121552
-0.0121608
-0.012163
-0.012162
-0.0121577
-0.0121503
-0.0121397
-0.0121261
-0.0121095
-0.01209
-0.0120677
-0.0120426
-0.0120148
-0.0119844
-0.0119515
-0.0119161
-0.0118783
-0.0118382
-0.0117959
-0.0117515
-0.011705
-0.0116565
-0.0116061
-0.011554
-0.0115
-0.0114444
-0.0113873
-0.0113286
-0.0112685
-0.0112071
-0.0111444
-0.0110806
-0.0110156
-0.0109495
-0.0108825
-0.0108146
-0.0107459
-0.0106765
-0.0106063
-0.0105355
-0.0104642
-0.0103924
-0.0103201
-0.0102475
-0.0101746
-0.0101015
-0.0100281
-0.00995464
-0.0098811
-0.00980753
-0.00973399
-0.00966053
-0.00958721
-0.00951406
-0.00944114
-0.00936849
-0.00929616
-0.00922419
-0.00915261
-0.00908148
-0.00901083
-0.00894069
-0.00887111
-0.00880212
-0.00873376
-0.00866605
-0.00859903
-0.00853274
-0.00846719
-0.00840243
-0.00833847
-0.00827535
-0.00821309
-0.00815171
-0.00809125
-0.00803171
-0.00797314
-0.00791554
-0.00785894
-0.00780336
-0.00774881
-0.00769532
-0.0076429
-0.00759158
-0.00754135
-0.00749225
-0.00744429
-0.00739747
-0.00735182
-0.00730735
-0.00726407
-0.00722198
-0.00718111
-0.00714147
-0.00710305
-0.00706588
-0.00702997
-0.00699531
-0.00696192
-0.00692981
-0.00689899
-0.00686946
-0.00684123
-0.0068143
-0.00678869
-0.00676439
-0.00674141
-0.00671976
-0.00669944
-0.00668046
-0.00666282
-0.00664652
-0.00663157
-0.00661797
-0.00660572
-0.00659483
-0.00658529
-0.00657711
-0.0065703
-0.00656484
-0.00656075
-0.00655802
-0.00655666
-1.41977e-05
-1.64225e-05
-2.08794e-05
-2.75661e-05
-3.64853e-05
-4.76397e-05
-6.10319e-05
-7.66657e-05
-9.4545e-05
-0.000114674
-0.000137059
-0.000161703
-0.000188614
-0.000217796
-0.000249258
-0.000283005
-0.000319045
-0.000357384
-0.000398032
-0.000440994
-0.000486279
-0.000533894
-0.000583848
-0.000636147
-0.000690799
-0.00074781
-0.000807188
-0.000868938
-0.000933067
-0.000999579
-0.00106848
-0.00113977
-0.00121346
-0.00128954
-0.00136802
-0.00144889
-0.00153217
-0.00161783
-0.00170588
-0.00179632
-0.00188912
-0.0019843
-0.00208183
-0.00218169
-0.00228389
-0.00238839
-0.00249518
-0.00260424
-0.00271554
-0.00282905
-0.00294475
-0.0030626
-0.00318257
-0.00330461
-0.00342869
-0.00355477
-0.00368279
-0.0038127
-0.00394445
-0.00407798
-0.00421324
-0.00435015
-0.00448866
-0.00462868
-0.00477014
-0.00491297
-0.00505709
-0.00520241
-0.00534884
-0.0054963
-0.00564468
-0.0057939
-0.00594384
-0.00609442
-0.00624552
-0.00639703
-0.00654885
-0.00670086
-0.00685294
-0.00700499
-0.00715687
-0.00730847
-0.00745967
-0.00761034
-0.00776036
-0.00790961
-0.00805796
-0.00820528
-0.00835146
-0.00849636
-0.00863985
-0.00878183
-0.00892216
-0.00906073
-0.0091974
-0.00933208
-0.00946464
-0.00959496
-0.00972294
-0.00984848
-0.00997146
-0.0100918
-0.0102094
-0.0103241
-0.0104359
-0.0105446
-0.0106503
-0.0107528
-0.010852
-0.0109479
-0.0110405
-0.0111295
-0.0112151
-0.0112972
-0.0113757
-0.0114505
-0.0115217
-0.0115892
-0.0116531
-0.0117132
-0.0117695
-0.0118222
-0.0118711
-0.0119162
-0.0119577
-0.0119954
-0.0120294
-0.0120597
-0.0120864
-0.0121095
-0.012129
-0.012145
-0.0121574
-0.0121664
-0.012172
-0.0121742
-0.0121732
-0.0121689
-0.0121614
-0.0121508
-0.0121371
-0.0121205
-0.0121009
-0.0120785
-0.0120534
-0.0120255
-0.0119951
-0.0119621
-0.0119266
-0.0118887
-0.0118486
-0.0118062
-0.0117617
-0.0117151
-0.0116666
-0.0116161
-0.0115638
-0.0115098
-0.0114542
-0.0113969
-0.0113382
-0.011278
-0.0112165
-0.0111537
-0.0110898
-0.0110247
-0.0109586
-0.0108915
-0.0108235
-0.0107547
-0.0106852
-0.0106149
-0.0105441
-0.0104726
-0.0104007
-0.0103284
-0.0102557
-0.0101827
-0.0101095
-0.0100361
-0.00996252
-0.00988889
-0.00981524
-0.00974163
-0.00966809
-0.00959469
-0.00952147
-0.00944848
-0.00937576
-0.00930335
-0.00923131
-0.00915967
-0.00908847
-0.00901775
-0.00894755
-0.0088779
-0.00880885
-0.00874042
-0.00867265
-0.00860557
-0.00853922
-0.00847361
-0.00840879
-0.00834478
-0.0082816
-0.00821928
-0.00815786
-0.00809734
-0.00803776
-0.00797913
-0.00792149
-0.00786484
-0.00780921
-0.00775462
-0.00770108
-0.00764862
-0.00759725
-0.00754699
-0.00749785
-0.00744985
-0.007403
-0.00735731
-0.0073128
-0.00726949
-0.00722737
-0.00718647
-0.00714679
-0.00710835
-0.00707115
-0.0070352
-0.00700052
-0.00696711
-0.00693498
-0.00690413
-0.00687458
-0.00684633
-0.00681938
-0.00679374
-0.00676943
-0.00674644
-0.00672477
-0.00670444
-0.00668544
-0.00666779
-0.00665148
-0.00663652
-0.00662291
-0.00661065
-0.00659975
-0.0065902
-0.00658202
-0.0065752
-0.00656974
-0.00656564
-0.00656291
-0.00656155
-2.36768e-05
-2.59001e-05
-3.03534e-05
-3.70341e-05
-4.59451e-05
-5.70891e-05
-7.04687e-05
-8.60876e-05
-0.00010395
-0.00012406
-0.000146423
-0.000171044
-0.000197929
-0.000227084
-0.000258517
-0.000292233
-0.00032824
-0.000366546
-0.000407157
-0.000450082
-0.000495329
-0.000542904
-0.000592817
-0.000645074
-0.000699682
-0.00075665
-0.000815983
-0.000877688
-0.000941771
-0.00100824
-0.00107709
-0.00114834
-0.00122198
-0.00129801
-0.00137645
-0.00145728
-0.00154051
-0.00162613
-0.00171414
-0.00180453
-0.0018973
-0.00199244
-0.00208993
-0.00218976
-0.00229193
-0.0023964
-0.00250316
-0.0026122
-0.00272348
-0.00283697
-0.00295266
-0.0030705
-0.00319046
-0.0033125
-0.00343659
-0.00356267
-0.0036907
-0.00382063
-0.0039524
-0.00408596
-0.00422125
-0.00435819
-0.00449674
-0.00463681
-0.00477832
-0.00492121
-0.00506539
-0.00521078
-0.00535729
-0.00550482
-0.00565329
-0.0058026
-0.00595264
-0.00610332
-0.00625453
-0.00640615
-0.00655808
-0.00671022
-0.00686243
-0.0070146
-0.00716662
-0.00731836
-0.0074697
-0.00762052
-0.00777069
-0.00792009
-0.00806859
-0.00821607
-0.00836241
-0.00850747
-0.00865113
-0.00879327
-0.00893376
-0.00907249
-0.00920933
-0.00934417
-0.00947688
-0.00960737
-0.00973551
-0.0098612
-0.00998433
-0.0101048
-0.0102225
-0.0103374
-0.0104493
-0.0105582
-0.010664
-0.0107666
-0.010866
-0.010962
-0.0110547
-0.0111439
-0.0112296
-0.0113117
-0.0113903
-0.0114652
-0.0115365
-0.0116041
-0.011668
-0.0117281
-0.0117845
-0.0118372
-0.0118861
-0.0119313
-0.0119728
-0.0120105
-0.0120445
-0.0120749
-0.0121016
-0.0121247
-0.0121441
-0.0121601
-0.0121725
-0.0121815
-0.012187
-0.0121892
-0.0121881
-0.0121837
-0.0121762
-0.0121655
-0.0121518
-0.0121351
-0.0121155
-0.012093
-0.0120678
-0.0120398
-0.0120093
-0.0119762
-0.0119406
-0.0119027
-0.0118624
-0.0118199
-0.0117753
-0.0117286
-0.01168
-0.0116294
-0.011577
-0.0115229
-0.0114671
-0.0114098
-0.0113509
-0.0112906
-0.011229
-0.0111661
-0.0111021
-0.0110369
-0.0109706
-0.0109034
-0.0108353
-0.0107664
-0.0106968
-0.0106264
-0.0105554
-0.0104839
-0.0104119
-0.0103395
-0.0102667
-0.0101936
-0.0101202
-0.0100467
-0.00997302
-0.00989929
-0.00982553
-0.00975182
-0.00967818
-0.00960468
-0.00953136
-0.00945827
-0.00938545
-0.00931295
-0.00924081
-0.00916908
-0.00909779
-0.00902698
-0.00895669
-0.00888695
-0.00881782
-0.0087493
-0.00868145
-0.00861429
-0.00854786
-0.00848217
-0.00841728
-0.00835319
-0.00828994
-0.00822755
-0.00816605
-0.00810546
-0.00804581
-0.00798712
-0.00792941
-0.0078727
-0.00781701
-0.00776236
-0.00770877
-0.00765625
-0.00760483
-0.00755451
-0.00750532
-0.00745726
-0.00741036
-0.00736463
-0.00732007
-0.00727671
-0.00723455
-0.00719361
-0.00715389
-0.00711541
-0.00707817
-0.00704219
-0.00700747
-0.00697403
-0.00694186
-0.00691098
-0.0068814
-0.00685312
-0.00682615
-0.00680049
-0.00677615
-0.00675313
-0.00673145
-0.0067111
-0.00669208
-0.00667441
-0.00665808
-0.00664311
-0.00662948
-0.00661721
-0.0066063
-0.00659675
-0.00658856
-0.00658173
-0.00657626
-0.00657217
-0.00656943
-0.00656807
-3.55318e-05
-3.7753e-05
-4.22016e-05
-4.88746e-05
-5.77749e-05
-6.89055e-05
-8.22692e-05
-9.78694e-05
-0.00011571
-0.000135796
-0.000158132
-0.000182724
-0.000209578
-0.000238699
-0.000270095
-0.000303773
-0.00033974
-0.000378003
-0.000418569
-0.000461448
-0.000506647
-0.000554172
-0.000604034
-0.000656238
-0.000710793
-0.000767706
-0.000826983
-0.000888632
-0.000952658
-0.00101907
-0.00108786
-0.00115905
-0.00123263
-0.00130861
-0.00138699
-0.00146777
-0.00155094
-0.00163651
-0.00172446
-0.00181481
-0.00190753
-0.00200262
-0.00210006
-0.00219986
-0.00230198
-0.00240642
-0.00251315
-0.00262216
-0.00273341
-0.00284689
-0.00296256
-0.00308039
-0.00320034
-0.00332238
-0.00344647
-0.00357256
-0.0037006
-0.00383055
-0.00396235
-0.00409594
-0.00423127
-0.00436826
-0.00450686
-0.00464698
-0.00478857
-0.00493153
-0.00507579
-0.00522126
-0.00536786
-0.0055155
-0.00566407
-0.00581349
-0.00596366
-0.00611446
-0.0062658
-0.00641757
-0.00656965
-0.00672193
-0.0068743
-0.00702664
-0.00717882
-0.00733074
-0.00748226
-0.00763326
-0.00778362
-0.00793321
-0.00808191
-0.00822959
-0.00837612
-0.00852138
-0.00866524
-0.00880759
-0.00894829
-0.00908722
-0.00922427
-0.00935931
-0.00949223
-0.00962291
-0.00975125
-0.00987714
-0.0100005
-0.0101211
-0.010239
-0.0103541
-0.0104662
-0.0105753
-0.0106812
-0.010784
-0.0108835
-0.0109797
-0.0110725
-0.0111618
-0.0112476
-0.0113299
-0.0114086
-0.0114836
-0.011555
-0.0116226
-0.0116866
-0.0117468
-0.0118033
-0.011856
-0.011905
-0.0119502
-0.0119917
-0.0120295
-0.0120635
-0.0120939
-0.0121206
-0.0121436
-0.0121631
-0.012179
-0.0121914
-0.0122003
-0.0122058
-0.0122079
-0.0122068
-0.0122023
-0.0121947
-0.012184
-0.0121702
-0.0121534
-0.0121337
-0.0121111
-0.0120858
-0.0120577
-0.012027
-0.0119938
-0.0119582
-0.0119201
-0.0118797
-0.0118371
-0.0117924
-0.0117455
-0.0116968
-0.0116461
-0.0115935
-0.0115393
-0.0114834
-0.0114259
-0.0113669
-0.0113064
-0.0112447
-0.0111817
-0.0111174
-0.0110521
-0.0109857
-0.0109184
-0.0108501
-0.0107811
-0.0107113
-0.0106408
-0.0105697
-0.010498
-0.0104258
-0.0103533
-0.0102803
-0.0102071
-0.0101336
-0.0100599
-0.00998615
-0.00991229
-0.00983841
-0.00976456
-0.0096908
-0.00961717
-0.00954372
-0.00947051
-0.00939757
-0.00932495
-0.0092527
-0.00918084
-0.00910944
-0.00903852
-0.00896812
-0.00889827
-0.00882903
-0.00876041
-0.00869246
-0.00862519
-0.00855866
-0.00849288
-0.00842788
-0.0083637
-0.00830036
-0.00823788
-0.00817629
-0.00811562
-0.00805589
-0.00799711
-0.00793932
-0.00788253
-0.00782676
-0.00777204
-0.00771837
-0.00766578
-0.00761429
-0.00756391
-0.00751465
-0.00746653
-0.00741957
-0.00737377
-0.00732916
-0.00728574
-0.00724353
-0.00720253
-0.00716276
-0.00712423
-0.00708695
-0.00705092
-0.00701616
-0.00698267
-0.00695046
-0.00691955
-0.00688993
-0.00686161
-0.00683461
-0.00680892
-0.00678455
-0.0067615
-0.00673979
-0.00671941
-0.00670038
-0.00668268
-0.00666634
-0.00665134
-0.0066377
-0.00662542
-0.00661449
-0.00660493
-0.00659673
-0.00658989
-0.00658442
-0.00658032
-0.00657758
-0.00657621
-4.97655e-05
-5.19837e-05
-5.64262e-05
-6.30899e-05
-7.19775e-05
-8.30919e-05
-9.64361e-05
-0.000112014
-0.000129829
-0.000149886
-0.00017219
-0.000196747
-0.000223563
-0.000252644
-0.000283997
-0.000317628
-0.000353546
-0.000391758
-0.000432272
-0.000475095
-0.000520236
-0.000567702
-0.000617502
-0.000669644
-0.000724135
-0.000780982
-0.000840193
-0.000901774
-0.000965732
-0.00103207
-0.0011008
-0.00117192
-0.00124543
-0.00132134
-0.00139965
-0.00148036
-0.00156347
-0.00164897
-0.00173687
-0.00182715
-0.00191981
-0.00201485
-0.00211224
-0.00221199
-0.00231406
-0.00241846
-0.00252515
-0.00263412
-0.00274535
-0.0028588
-0.00297445
-0.00309226
-0.00321221
-0.00333425
-0.00345834
-0.00358444
-0.0037125
-0.00384248
-0.00397431
-0.00410794
-0.00424331
-0.00438036
-0.00451902
-0.00465921
-0.00480088
-0.00494393
-0.00508828
-0.00523386
-0.00538057
-0.00552833
-0.00567703
-0.00582659
-0.0059769
-0.00612786
-0.00627936
-0.00643129
-0.00658355
-0.00673602
-0.00688858
-0.00704111
-0.00719351
-0.00734563
-0.00749737
-0.00764859
-0.00779917
-0.007949
-0.00809793
-0.00824584
-0.00839262
-0.00853812
-0.00868223
-0.00882482
-0.00896576
-0.00910494
-0.00924223
-0.00937752
-0.00951068
-0.00964161
-0.00977019
-0.00989631
-0.0100199
-0.0101408
-0.0102589
-0.0103742
-0.0104865
-0.0105958
-0.0107019
-0.0108049
-0.0109046
-0.0110009
-0.0110939
-0.0111834
-0.0112693
-0.0113517
-0.0114305
-0.0115057
-0.0115772
-0.011645
-0.011709
-0.0117693
-0.0118259
-0.0118787
-0.0119277
-0.011973
-0.0120145
-0.0120523
-0.0120863
-0.0121167
-0.0121434
-0.0121664
-0.0121859
-0.0122017
-0.0122141
-0.012223
-0.0122284
-0.0122305
-0.0122292
-0.0122247
-0.012217
-0.0122062
-0.0121923
-0.0121754
-0.0121555
-0.0121329
-0.0121074
-0.0120792
-0.0120484
-0.0120151
-0.0119792
-0.011941
-0.0119005
-0.0118578
-0.0118129
-0.0117659
-0.0117169
-0.0116661
-0.0116134
-0.011559
-0.0115029
-0.0114452
-0.011386
-0.0113254
-0.0112635
-0.0112003
-0.0111359
-0.0110704
-0.0110039
-0.0109363
-0.0108679
-0.0107987
-0.0107287
-0.010658
-0.0105868
-0.0105149
-0.0104426
-0.0103699
-0.0102968
-0.0102233
-0.0101497
-0.0100759
-0.0100019
-0.0099279
-0.00985386
-0.00977986
-0.00970595
-0.00963217
-0.00955857
-0.00948521
-0.00941212
-0.00933936
-0.00926696
-0.00919497
-0.00912343
-0.00905237
-0.00898184
-0.00891186
-0.00884249
-0.00877374
-0.00870566
-0.00863828
-0.00857163
-0.00850573
-0.00844062
-0.00837632
-0.00831287
-0.00825028
-0.00818859
-0.00812781
-0.00806798
-0.0080091
-0.00795121
-0.00789433
-0.00783847
-0.00778365
-0.0077299
-0.00767722
-0.00762565
-0.00757518
-0.00752584
-0.00747765
-0.00743061
-0.00738474
-0.00734006
-0.00729657
-0.00725429
-0.00721323
-0.0071734
-0.00713481
-0.00709747
-0.00706139
-0.00702658
-0.00699304
-0.00696078
-0.00692982
-0.00690016
-0.0068718
-0.00684475
-0.00681902
-0.00679462
-0.00677154
-0.0067498
-0.00672939
-0.00671033
-0.00669261
-0.00667624
-0.00666122
-0.00664756
-0.00663526
-0.00662432
-0.00661474
-0.00660653
-0.00659968
-0.0065942
-0.00659009
-0.00658735
-0.00658598
-6.63812e-05
-6.85956e-05
-7.30305e-05
-7.96831e-05
-8.85558e-05
-9.96514e-05
-0.000112973
-0.000128524
-0.000146309
-0.000166333
-0.0001886
-0.000213117
-0.000239888
-0.000268922
-0.000300224
-0.000333802
-0.000369664
-0.000407816
-0.000448268
-0.000491027
-0.000536101
-0.000583498
-0.000633227
-0.000685295
-0.000739712
-0.000796483
-0.000855616
-0.000917119
-0.000980998
-0.00104726
-0.00111591
-0.00118694
-0.00126038
-0.00133621
-0.00141444
-0.00149507
-0.0015781
-0.00166353
-0.00175135
-0.00184157
-0.00193416
-0.00202913
-0.00212647
-0.00222615
-0.00232818
-0.00243252
-0.00253917
-0.0026481
-0.00275929
-0.00287272
-0.00298835
-0.00310614
-0.00322608
-0.00334812
-0.00347222
-0.00359833
-0.00372641
-0.00385641
-0.00398828
-0.00412196
-0.00425739
-0.0043945
-0.00453323
-0.00467351
-0.00481527
-0.00495842
-0.00510289
-0.00524859
-0.00539543
-0.00554333
-0.00569219
-0.00584191
-0.00599239
-0.00614352
-0.00629522
-0.00644735
-0.00659981
-0.0067525
-0.00690528
-0.00705805
-0.00721068
-0.00736305
-0.00751504
-0.00766652
-0.00781737
-0.00796746
-0.00811667
-0.00826486
-0.00841192
-0.0085577
-0.0087021
-0.00884497
-0.00898621
-0.00912568
-0.00926326
-0.00939883
-0.00953228
-0.00966349
-0.00979235
-0.00991875
-0.0100426
-0.0101637
-0.0102821
-0.0103976
-0.0105102
-0.0106197
-0.0107261
-0.0108293
-0.0109292
-0.0110258
-0.0111189
-0.0112086
-0.0112947
-0.0113773
-0.0114563
-0.0115316
-0.0116032
-0.0116711
-0.0117353
-0.0117957
-0.0118523
-0.0119052
-0.0119543
-0.0119996
-0.0120411
-0.0120789
-0.012113
-0.0121434
-0.0121701
-0.0121931
-0.0122125
-0.0122284
-0.0122407
-0.0122495
-0.0122548
-0.0122568
-0.0122555
-0.0122509
-0.0122431
-0.0122321
-0.0122181
-0.0122011
-0.0121811
-0.0121583
-0.0121327
-0.0121044
-0.0120734
-0.0120399
-0.0120039
-0.0119655
-0.0119248
-0.0118819
-0.0118368
-0.0117896
-0.0117405
-0.0116895
-0.0116366
-0.011582
-0.0115257
-0.0114678
-0.0114084
-0.0113476
-0.0112855
-0.0112221
-0.0111575
-0.0110918
-0.011025
-0.0109573
-0.0108887
-0.0108193
-0.0107491
-0.0106782
-0.0106067
-0.0105347
-0.0104622
-0.0103892
-0.0103159
-0.0102423
-0.0101685
-0.0100945
-0.0100203
-0.00994614
-0.00987192
-0.00979773
-0.00972363
-0.00964968
-0.00957591
-0.00950237
-0.00942912
-0.00935618
-0.00928362
-0.00921146
-0.00913976
-0.00906854
-0.00899785
-0.00892773
-0.0088582
-0.00878931
-0.00872108
-0.00865356
-0.00858676
-0.00852072
-0.00845548
-0.00839105
-0.00832747
-0.00826475
-0.00820293
-0.00814204
-0.00808208
-0.00802309
-0.00796509
-0.00790809
-0.00785212
-0.0077972
-0.00774335
-0.00769057
-0.00763889
-0.00758833
-0.0075389
-0.00749062
-0.00744349
-0.00739754
-0.00735278
-0.00730921
-0.00726685
-0.00722572
-0.00718582
-0.00714716
-0.00710975
-0.0070736
-0.00703873
-0.00700513
-0.00697282
-0.0069418
-0.00691209
-0.00688368
-0.00685659
-0.00683081
-0.00680637
-0.00678325
-0.00676147
-0.00674103
-0.00672193
-0.00670418
-0.00668778
-0.00667274
-0.00665906
-0.00664674
-0.00663578
-0.00662618
-0.00661796
-0.0066111
-0.00660561
-0.00660149
-0.00659875
-0.00659738
-8.53822e-05
-8.75922e-05
-9.20183e-05
-9.86579e-05
-0.000107513
-0.000118588
-0.000131884
-0.000147405
-0.000165156
-0.000185141
-0.000207366
-0.000231836
-0.000258558
-0.000287537
-0.000318782
-0.0003523
-0.000388097
-0.000426182
-0.000466563
-0.000509248
-0.000554246
-0.000601565
-0.000651213
-0.000703198
-0.000757529
-0.000814214
-0.000873259
-0.000934673
-0.000998462
-0.00106463
-0.00113319
-0.00120413
-0.00127748
-0.00135322
-0.00143136
-0.0015119
-0.00159485
-0.00168019
-0.00176793
-0.00185807
-0.00195058
-0.00204548
-0.00214274
-0.00224237
-0.00234433
-0.00244862
-0.00255522
-0.00266411
-0.00277526
-0.00288865
-0.00300425
-0.00312203
-0.00324196
-0.003364
-0.0034881
-0.00361423
-0.00374234
-0.00387237
-0.00400429
-0.00413802
-0.00427351
-0.0044107
-0.00454951
-0.00468989
-0.00483175
-0.00497502
-0.00511962
-0.00526546
-0.00541246
-0.00556052
-0.00570955
-0.00585945
-0.00601013
-0.00616148
-0.00631338
-0.00646575
-0.00661845
-0.00677138
-0.00692442
-0.00707746
-0.00723036
-0.00738302
-0.0075353
-0.00768708
-0.00783823
-0.00798863
-0.00813815
-0.00828667
-0.00843404
-0.00858016
-0.00872488
-0.00886809
-0.00900966
-0.00914946
-0.00928737
-0.00942327
-0.00955705
-0.00968858
-0.00981776
-0.00994448
-0.0100686
-0.0101901
-0.0103088
-0.0104246
-0.0105374
-0.0106472
-0.0107539
-0.0108573
-0.0109575
-0.0110543
-0.0111477
-0.0112375
-0.0113239
-0.0114067
-0.0114858
-0.0115613
-0.011633
-0.0117011
-0.0117654
-0.0118259
-0.0118826
-0.0119356
-0.0119847
-0.0120301
-0.0120717
-0.0121095
-0.0121436
-0.012174
-0.0122007
-0.0122237
-0.0122431
-0.0122589
-0.0122711
-0.0122798
-0.0122851
-0.0122871
-0.0122856
-0.0122809
-0.012273
-0.0122619
-0.0122477
-0.0122306
-0.0122104
-0.0121875
-0.0121617
-0.0121332
-0.012102
-0.0120683
-0.0120322
-0.0119936
-0.0119527
-0.0119095
-0.0118642
-0.0118169
-0.0117675
-0.0117162
-0.0116631
-0.0116083
-0.0115518
-0.0114937
-0.0114341
-0.0113731
-0.0113107
-0.011247
-0.0111822
-0.0111163
-0.0110493
-0.0109813
-0.0109125
-0.0108428
-0.0107724
-0.0107013
-0.0106296
-0.0105573
-0.0104846
-0.0104114
-0.0103379
-0.0102641
-0.01019
-0.0101158
-0.0100414
-0.009967
-0.00989257
-0.00981817
-0.00974387
-0.00966971
-0.00959574
-0.009522
-0.00944855
-0.00937542
-0.00930267
-0.00923033
-0.00915844
-0.00908704
-0.00901617
-0.00894587
-0.00887617
-0.0088071
-0.00873871
-0.00867102
-0.00860406
-0.00853787
-0.00847247
-0.00840789
-0.00834415
-0.00828129
-0.00821933
-0.0081583
-0.0080982
-0.00803908
-0.00798095
-0.00792382
-0.00786773
-0.00781269
-0.00775871
-0.00770582
-0.00765403
-0.00760336
-0.00755383
-0.00750544
-0.00745821
-0.00741217
-0.00736731
-0.00732365
-0.0072812
-0.00723998
-0.0072
-0.00716126
-0.00712378
-0.00708756
-0.00705261
-0.00701895
-0.00698657
-0.00695549
-0.00692572
-0.00689725
-0.00687011
-0.00684428
-0.00681979
-0.00679662
-0.0067748
-0.00675432
-0.00673518
-0.0067174
-0.00670097
-0.0066859
-0.00667219
-0.00665984
-0.00664886
-0.00663925
-0.00663101
-0.00662414
-0.00661864
-0.00661451
-0.00661176
-0.00661039
-0.000106772
-0.000108977
-0.000113394
-0.000120019
-0.000128855
-0.000139905
-0.000153172
-0.00016866
-0.000186372
-0.000206315
-0.000228492
-0.00025291
-0.000279576
-0.000308495
-0.000339676
-0.000373125
-0.00040885
-0.00044686
-0.000487162
-0.000529765
-0.000574678
-0.000621908
-0.000671466
-0.000723358
-0.000777594
-0.000834182
-0.000893129
-0.000954442
-0.00101813
-0.0010842
-0.00115265
-0.0012235
-0.00129674
-0.00137238
-0.00145042
-0.00153087
-0.00161371
-0.00169896
-0.00178661
-0.00187665
-0.00196909
-0.0020639
-0.00216109
-0.00226064
-0.00236253
-0.00246676
-0.00257331
-0.00268214
-0.00279325
-0.00290661
-0.00302218
-0.00313995
-0.00325986
-0.0033819
-0.00350601
-0.00363216
-0.00376029
-0.00389037
-0.00402233
-0.00415613
-0.00429169
-0.00442896
-0.00456788
-0.00470836
-0.00485035
-0.00499375
-0.00513849
-0.00528449
-0.00543166
-0.00557991
-0.00572914
-0.00587925
-0.00603015
-0.00618173
-0.00633389
-0.00648651
-0.00663948
-0.0067927
-0.00694603
-0.00709936
-0.00725258
-0.00740556
-0.00755816
-0.00771028
-0.00786178
-0.00801253
-0.00816241
-0.00831129
-0.00845903
-0.00860551
-0.00875061
-0.00889419
-0.00903613
-0.00917631
-0.0093146
-0.00945088
-0.00958502
-0.00971693
-0.00984647
-0.00997354
-0.010098
-0.0102198
-0.0103389
-0.010455
-0.0105682
-0.0106783
-0.0107853
-0.010889
-0.0109894
-0.0110865
-0.0111801
-0.0112702
-0.0113568
-0.0114398
-0.0115191
-0.0115948
-0.0116667
-0.0117349
-0.0117993
-0.01186
-0.0119168
-0.0119699
-0.0120191
-0.0120646
-0.0121062
-0.0121441
-0.0121782
-0.0122086
-0.0122352
-0.0122582
-0.0122776
-0.0122933
-0.0123055
-0.0123141
-0.0123193
-0.0123212
-0.0123196
-0.0123148
-0.0123067
-0.0122955
-0.0122812
-0.0122638
-0.0122435
-0.0122204
-0.0121944
-0.0121657
-0.0121343
-0.0121004
-0.012064
-0.0120252
-0.0119841
-0.0119407
-0.0118952
-0.0118476
-0.011798
-0.0117464
-0.0116931
-0.011638
-0.0115812
-0.0115229
-0.011463
-0.0114017
-0.0113391
-0.0112752
-0.0112101
-0.0111439
-0.0110766
-0.0110084
-0.0109393
-0.0108694
-0.0107987
-0.0107273
-0.0106553
-0.0105828
-0.0105098
-0.0104364
-0.0103626
-0.0102886
-0.0102142
-0.0101398
-0.0100652
-0.0099905
-0.00991582
-0.00984119
-0.00976666
-0.00969226