/*--------------------------------*- C++ -*----------------------------------*\
| =========                 |                                                 |
| \\      /  F ield         | OpenFOAM: The Open Source CFD Toolbox           |
|  \\    /   O peration     | Version:  v2012                                 |
|   \\  /    A nd           | Website:  www.openfoam.com                      |
|    \\/     M anipulation  |                                                 |
\*---------------------------------------------------------------------------*/
FoamFile
{
    version     2.0;
    format      ascii;
    class       volVectorField;
    location    "8.5";
    object      W;
}
// * * * * * * * * * * * * * * * * * * * * * * * * * * * * * * * * * * * * * //

dimensions      [0 0 -1 0 0 0 0];


internalField   nonuniform List<vector> 
65536
(
(0 -0 -1.2905e-08)
(0 -0 -3.77274e-08)
(0 -0 -1.49844e-07)
(0 -0 -1.88828e-07)
(0 -0 -2.08145e-07)
(0 -0 -2.2078e-07)
(0 -0 -2.32685e-07)
(0 -0 -2.4565e-07)
(0 -0 -2.59161e-07)
(0 -0 -2.7244e-07)
(0 -0 -2.85446e-07)
(0 -0 -2.98663e-07)
(0 -0 -3.12466e-07)
(0 -0 -3.26937e-07)
(0 -0 -3.41911e-07)
(0 -0 -3.57309e-07)
(0 -0 -3.73178e-07)
(0 -0 -3.89587e-07)
(0 -0 -4.06625e-07)
(0 -0 -4.24263e-07)
(0 -0 -4.42392e-07)
(0 -0 -4.60873e-07)
(0 -0 -4.79585e-07)
(0 -0 -4.98549e-07)
(0 -0 -5.17799e-07)
(0 -0 -5.37303e-07)
(0 -0 -5.5702e-07)
(0 -0 -5.76863e-07)
(0 -0 -5.96787e-07)
(0 -0 -6.16841e-07)
(0 -0 -6.37034e-07)
(0 -0 -6.57349e-07)
(0 -0 -6.77815e-07)
(0 -0 -6.98422e-07)
(0 -0 -7.19136e-07)
(0 -0 -7.39959e-07)
(0 -0 -7.60868e-07)
(0 -0 -7.81842e-07)
(0 -0 -8.02917e-07)
(0 -0 -8.24089e-07)
(0 -0 -8.45267e-07)
(0 -0 -8.6638e-07)
(0 -0 -8.874e-07)
(0 -0 -9.08291e-07)
(0 -0 -9.29028e-07)
(0 -0 -9.49597e-07)
(0 -0 -9.6994e-07)
(0 -0 -9.90012e-07)
(0 -0 -1.00988e-06)
(0 -0 -1.02964e-06)
(0 -0 -1.04938e-06)
(0 -0 -1.06915e-06)
(0 -0 -1.08908e-06)
(0 -0 -1.10927e-06)
(0 -0 -1.12976e-06)
(0 -0 -1.15063e-06)
(0 -0 -1.17195e-06)
(0 -0 -1.19372e-06)
(0 -0 -1.21586e-06)
(0 -0 -1.23828e-06)
(0 -0 -1.26086e-06)
(0 -0 -1.28344e-06)
(0 -0 -1.30584e-06)
(0 -0 -1.3279e-06)
(0 -0 -1.34948e-06)
(0 -0 -1.37049e-06)
(0 -0 -1.39088e-06)
(0 -0 -1.41066e-06)
(0 -0 -1.42988e-06)
(0 -0 -1.44865e-06)
(0 -0 -1.46716e-06)
(0 -0 -1.4856e-06)
(0 -0 -1.5041e-06)
(0 -0 -1.52276e-06)
(0 -0 -1.54169e-06)
(0 -0 -1.56099e-06)
(0 -0 -1.58067e-06)
(0 -0 -1.60059e-06)
(0 -0 -1.62061e-06)
(0 -0 -1.64067e-06)
(0 -0 -1.6607e-06)
(0 -0 -1.6806e-06)
(0 -0 -1.70027e-06)
(0 -0 -1.71963e-06)
(0 -0 -1.73864e-06)
(0 -0 -1.75732e-06)
(0 -0 -1.77563e-06)
(0 -0 -1.79353e-06)
(0 -0 -1.81098e-06)
(0 -0 -1.82793e-06)
(0 -0 -1.8443e-06)
(0 -0 -1.86001e-06)
(0 -0 -1.87501e-06)
(0 -0 -1.88934e-06)
(0 -0 -1.9031e-06)
(0 -0 -1.91642e-06)
(0 -0 -1.92944e-06)
(0 -0 -1.9423e-06)
(0 -0 -1.95521e-06)
(0 -0 -1.96835e-06)
(0 -0 -1.98181e-06)
(0 -0 -1.99559e-06)
(0 -0 -2.00962e-06)
(0 -0 -2.0238e-06)
(0 -0 -2.03805e-06)
(0 -0 -2.05215e-06)
(0 -0 -2.06584e-06)
(0 -0 -2.07884e-06)
(0 -0 -2.09099e-06)
(0 -0 -2.10226e-06)
(0 -0 -2.11264e-06)
(0 -0 -2.12218e-06)
(0 -0 -2.13089e-06)
(0 -0 -2.13884e-06)
(0 -0 -2.14612e-06)
(0 -0 -2.15286e-06)
(0 -0 -2.15915e-06)
(0 -0 -2.16511e-06)
(0 -0 -2.17077e-06)
(0 -0 -2.17608e-06)
(0 -0 -2.18095e-06)
(0 -0 -2.18532e-06)
(0 -0 -2.18914e-06)
(0 -0 -2.19236e-06)
(0 -0 -2.19493e-06)
(0 -0 -2.19681e-06)
(0 -0 -2.19798e-06)
(0 -0 -2.19851e-06)
(0 -0 -2.19846e-06)
(0 -0 -2.19798e-06)
(0 -0 -2.19729e-06)
(0 -0 -2.19663e-06)
(0 -0 -2.1962e-06)
(0 -0 -2.1961e-06)
(0 -0 -2.1963e-06)
(0 -0 -2.19675e-06)
(0 -0 -2.19742e-06)
(0 -0 -2.19816e-06)
(0 -0 -2.19878e-06)
(0 -0 -2.1991e-06)
(0 -0 -2.19893e-06)
(0 -0 -2.19816e-06)
(0 -0 -2.19681e-06)
(0 -0 -2.19482e-06)
(0 -0 -2.19218e-06)
(0 -0 -2.18908e-06)
(0 -0 -2.18566e-06)
(0 -0 -2.18198e-06)
(0 -0 -2.17809e-06)
(0 -0 -2.17402e-06)
(0 -0 -2.16984e-06)
(0 -0 -2.16553e-06)
(0 -0 -2.161e-06)
(0 -0 -2.1562e-06)
(0 -0 -2.15101e-06)
(0 -0 -2.14539e-06)
(0 -0 -2.13932e-06)
(0 -0 -2.13287e-06)
(0 -0 -2.12614e-06)
(0 -0 -2.11928e-06)
(0 -0 -2.11238e-06)
(0 -0 -2.10553e-06)
(0 -0 -2.09871e-06)
(0 -0 -2.09185e-06)
(0 -0 -2.08481e-06)
(0 -0 -2.07747e-06)
(0 -0 -2.06969e-06)
(0 -0 -2.0613e-06)
(0 -0 -2.05213e-06)
(0 -0 -2.04203e-06)
(0 -0 -2.0309e-06)
(0 -0 -2.01873e-06)
(0 -0 -2.00558e-06)
(0 -0 -1.9916e-06)
(0 -0 -1.97704e-06)
(0 -0 -1.9622e-06)
(0 -0 -1.94743e-06)
(0 -0 -1.93315e-06)
(0 -0 -1.9196e-06)
(0 -0 -1.90689e-06)
(0 -0 -1.89498e-06)
(0 -0 -1.88362e-06)
(0 -0 -1.87254e-06)
(0 -0 -1.86147e-06)
(0 -0 -1.85019e-06)
(0 -0 -1.83851e-06)
(0 -0 -1.82631e-06)
(0 -0 -1.81352e-06)
(0 -0 -1.80024e-06)
(0 -0 -1.78646e-06)
(0 -0 -1.77214e-06)
(0 -0 -1.7572e-06)
(0 -0 -1.74164e-06)
(0 -0 -1.72544e-06)
(0 -0 -1.70862e-06)
(0 -0 -1.6911e-06)
(0 -0 -1.67288e-06)
(0 -0 -1.65397e-06)
(0 -0 -1.63431e-06)
(0 -0 -1.61388e-06)
(0 -0 -1.59262e-06)
(0 -0 -1.57051e-06)
(0 -0 -1.54742e-06)
(0 -0 -1.52333e-06)
(0 -0 -1.49833e-06)
(0 -0 -1.47247e-06)
(0 -0 -1.44592e-06)
(0 -0 -1.41885e-06)
(0 -0 -1.39144e-06)
(0 -0 -1.36387e-06)
(0 -0 -1.33638e-06)
(0 -0 -1.30903e-06)
(0 -0 -1.28181e-06)
(0 -0 -1.25464e-06)
(0 -0 -1.22744e-06)
(0 -0 -1.20009e-06)
(0 -0 -1.17245e-06)
(0 -0 -1.14449e-06)
(0 -0 -1.11614e-06)
(0 -0 -1.08741e-06)
(0 -0 -1.05845e-06)
(0 -0 -1.0294e-06)
(0 -0 -1.00031e-06)
(0 -0 -9.71293e-07)
(0 -0 -9.42391e-07)
(0 -0 -9.13502e-07)
(0 -0 -8.8458e-07)
(0 -0 -8.55568e-07)
(0 -0 -8.26464e-07)
(0 -0 -7.97256e-07)
(0 -0 -7.67935e-07)
(0 -0 -7.38522e-07)
(0 -0 -7.0903e-07)
(0 -0 -6.79502e-07)
(0 -0 -6.49933e-07)
(0 -0 -6.20268e-07)
(0 -0 -5.90485e-07)
(0 -0 -5.60555e-07)
(0 -0 -5.30425e-07)
(0 -0 -5.00036e-07)
(0 -0 -4.6931e-07)
(0 -0 -4.38215e-07)
(0 -0 -4.06784e-07)
(0 -0 -3.75044e-07)
(0 -0 -3.43039e-07)
(0 -0 -3.1084e-07)
(0 -0 -2.78553e-07)
(0 -0 -2.46349e-07)
(0 -0 -2.14439e-07)
(0 -0 -1.83037e-07)
(0 -0 -1.52352e-07)
(0 -0 -1.22551e-07)
(0 -0 -9.37262e-08)
(0 -0 -6.58388e-08)
(0 -0 -3.87417e-08)
(0 -0 -1.27692e-08)
(0 -0 -4.30564e-08)
(0 -0 -1.29848e-07)
(0 -0 -3.41011e-07)
(0 -0 -4.40854e-07)
(0 -0 -5.075e-07)
(0 -0 -5.62808e-07)
(0 -0 -6.15208e-07)
(0 -0 -6.65764e-07)
(0 -0 -7.13771e-07)
(0 -0 -7.59727e-07)
(0 -0 -8.05065e-07)
(0 -0 -8.50853e-07)
(0 -0 -8.97452e-07)
(0 -0 -9.44838e-07)
(0 -0 -9.9301e-07)
(0 -0 -1.04221e-06)
(0 -0 -1.0927e-06)
(0 -0 -1.14463e-06)
(0 -0 -1.19797e-06)
(0 -0 -1.25254e-06)
(0 -0 -1.30813e-06)
(0 -0 -1.36454e-06)
(0 -0 -1.42164e-06)
(0 -0 -1.47935e-06)
(0 -0 -1.53756e-06)
(0 -0 -1.59615e-06)
(0 -0 -1.65502e-06)
(0 -0 -1.71402e-06)
(0 -0 -1.77316e-06)
(0 -0 -1.83248e-06)
(0 -0 -1.89201e-06)
(0 -0 -1.95176e-06)
(0 -0 -2.01178e-06)
(0 -0 -2.07204e-06)
(0 -0 -2.13255e-06)
(0 -0 -2.19336e-06)
(0 -0 -2.25444e-06)
(0 -0 -2.31576e-06)
(0 -0 -2.37733e-06)
(0 -0 -2.43903e-06)
(0 -0 -2.50074e-06)
(0 -0 -2.56237e-06)
(0 -0 -2.62382e-06)
(0 -0 -2.68491e-06)
(0 -0 -2.74557e-06)
(0 -0 -2.80568e-06)
(0 -0 -2.86513e-06)
(0 -0 -2.92393e-06)
(0 -0 -2.98222e-06)
(0 -0 -3.04017e-06)
(0 -0 -3.09793e-06)
(0 -0 -3.15577e-06)
(0 -0 -3.21403e-06)
(0 -0 -3.27306e-06)
(0 -0 -3.33312e-06)
(0 -0 -3.39442e-06)
(0 -0 -3.45702e-06)
(0 -0 -3.52086e-06)
(0 -0 -3.58579e-06)
(0 -0 -3.6516e-06)
(0 -0 -3.71794e-06)
(0 -0 -3.78433e-06)
(0 -0 -3.85025e-06)
(0 -0 -3.91521e-06)
(0 -0 -3.97881e-06)
(0 -0 -4.04074e-06)
(0 -0 -4.10085e-06)
(0 -0 -4.15917e-06)
(0 -0 -4.2159e-06)
(0 -0 -4.27141e-06)
(0 -0 -4.32619e-06)
(0 -0 -4.38075e-06)
(0 -0 -4.43549e-06)
(0 -0 -4.49078e-06)
(0 -0 -4.54697e-06)
(0 -0 -4.6043e-06)
(0 -0 -4.66275e-06)
(0 -0 -4.72206e-06)
(0 -0 -4.78184e-06)
(0 -0 -4.84175e-06)
(0 -0 -4.90152e-06)
(0 -0 -4.96089e-06)
(0 -0 -5.01965e-06)
(0 -0 -5.0776e-06)
(0 -0 -5.13463e-06)
(0 -0 -5.19063e-06)
(0 -0 -5.24552e-06)
(0 -0 -5.29919e-06)
(0 -0 -5.35149e-06)
(0 -0 -5.40228e-06)
(0 -0 -5.45137e-06)
(0 -0 -5.49858e-06)
(0 -0 -5.54381e-06)
(0 -0 -5.5871e-06)
(0 -0 -5.62869e-06)
(0 -0 -5.66896e-06)
(0 -0 -5.70837e-06)
(0 -0 -5.7474e-06)
(0 -0 -5.78658e-06)
(0 -0 -5.82642e-06)
(0 -0 -5.86729e-06)
(0 -0 -5.90924e-06)
(0 -0 -5.95206e-06)
(0 -0 -5.9954e-06)
(0 -0 -6.03881e-06)
(0 -0 -6.08175e-06)
(0 -0 -6.12353e-06)
(0 -0 -6.16347e-06)
(0 -0 -6.20103e-06)
(0 -0 -6.23594e-06)
(0 -0 -6.26812e-06)
(0 -0 -6.29763e-06)
(0 -0 -6.3246e-06)
(0 -0 -6.34934e-06)
(0 -0 -6.37219e-06)
(0 -0 -6.39348e-06)
(0 -0 -6.41343e-06)
(0 -0 -6.43226e-06)
(0 -0 -6.45009e-06)
(0 -0 -6.46685e-06)
(0 -0 -6.48241e-06)
(0 -0 -6.49657e-06)
(0 -0 -6.50916e-06)
(0 -0 -6.51999e-06)
(0 -0 -6.52891e-06)
(0 -0 -6.53574e-06)
(0 -0 -6.54045e-06)
(0 -0 -6.54319e-06)
(0 -0 -6.54424e-06)
(0 -0 -6.54408e-06)
(0 -0 -6.54331e-06)
(0 -0 -6.54249e-06)
(0 -0 -6.54216e-06)
(0 -0 -6.54272e-06)
(0 -0 -6.5443e-06)
(0 -0 -6.54682e-06)
(0 -0 -6.54999e-06)
(0 -0 -6.5533e-06)
(0 -0 -6.55617e-06)
(0 -0 -6.55813e-06)
(0 -0 -6.55874e-06)
(0 -0 -6.55763e-06)
(0 -0 -6.55465e-06)
(0 -0 -6.54981e-06)
(0 -0 -6.54319e-06)
(0 -0 -6.53518e-06)
(0 -0 -6.52612e-06)
(0 -0 -6.51623e-06)
(0 -0 -6.50571e-06)
(0 -0 -6.4947e-06)
(0 -0 -6.48327e-06)
(0 -0 -6.47139e-06)
(0 -0 -6.45885e-06)
(0 -0 -6.44543e-06)
(0 -0 -6.43084e-06)
(0 -0 -6.4149e-06)
(0 -0 -6.39765e-06)
(0 -0 -6.37924e-06)
(0 -0 -6.36004e-06)
(0 -0 -6.34045e-06)
(0 -0 -6.3208e-06)
(0 -0 -6.3013e-06)
(0 -0 -6.28197e-06)
(0 -0 -6.26261e-06)
(0 -0 -6.24283e-06)
(0 -0 -6.22219e-06)
(0 -0 -6.20023e-06)
(0 -0 -6.17645e-06)
(0 -0 -6.1504e-06)
(0 -0 -6.12166e-06)
(0 -0 -6.08987e-06)
(0 -0 -6.05491e-06)
(0 -0 -6.01693e-06)
(0 -0 -5.97642e-06)
(0 -0 -5.93407e-06)
(0 -0 -5.89088e-06)
(0 -0 -5.84786e-06)
(0 -0 -5.80609e-06)
(0 -0 -5.76633e-06)
(0 -0 -5.72884e-06)
(0 -0 -5.69347e-06)
(0 -0 -5.65956e-06)
(0 -0 -5.62631e-06)
(0 -0 -5.59291e-06)
(0 -0 -5.55864e-06)
(0 -0 -5.52298e-06)
(0 -0 -5.48569e-06)
(0 -0 -5.44665e-06)
(0 -0 -5.40598e-06)
(0 -0 -5.36373e-06)
(0 -0 -5.31987e-06)
(0 -0 -5.27427e-06)
(0 -0 -5.22696e-06)
(0 -0 -5.17776e-06)
(0 -0 -5.12672e-06)
(0 -0 -5.07372e-06)
(0 -0 -5.01875e-06)
(0 -0 -4.96183e-06)
(0 -0 -4.90285e-06)
(0 -0 -4.84173e-06)
(0 -0 -4.77828e-06)
(0 -0 -4.71235e-06)
(0 -0 -4.6438e-06)
(0 -0 -4.57239e-06)
(0 -0 -4.49832e-06)
(0 -0 -4.42179e-06)
(0 -0 -4.3433e-06)
(0 -0 -4.26333e-06)
(0 -0 -4.18254e-06)
(0 -0 -4.10133e-06)
(0 -0 -4.02019e-06)
(0 -0 -3.93936e-06)
(0 -0 -3.85881e-06)
(0 -0 -3.77831e-06)
(0 -0 -3.69744e-06)
(0 -0 -3.61576e-06)
(0 -0 -3.53287e-06)
(0 -0 -3.44852e-06)
(0 -0 -3.36265e-06)
(0 -0 -3.27529e-06)
(0 -0 -3.1868e-06)
(0 -0 -3.09763e-06)
(0 -0 -3.00814e-06)
(0 -0 -2.9185e-06)
(0 -0 -2.82889e-06)
(0 -0 -2.73918e-06)
(0 -0 -2.64933e-06)
(0 -0 -2.55923e-06)
(0 -0 -2.46887e-06)
(0 -0 -2.37825e-06)
(0 -0 -2.28739e-06)
(0 -0 -2.19644e-06)
(0 -0 -2.10553e-06)
(0 -0 -2.01475e-06)
(0 -0 -1.92411e-06)
(0 -0 -1.83356e-06)
(0 -0 -1.74301e-06)
(0 -0 -1.65234e-06)
(0 -0 -1.56137e-06)
(0 -0 -1.4699e-06)
(0 -0 -1.3778e-06)
(0 -0 -1.28502e-06)
(0 -0 -1.19158e-06)
(0 -0 -1.09749e-06)
(0 -0 -1.00285e-06)
(0 -0 -9.07875e-07)
(0 -0 -8.12888e-07)
(0 -0 -7.18365e-07)
(0 -0 -6.24867e-07)
(0 -0 -5.33019e-07)
(0 -0 -4.43448e-07)
(0 -0 -3.56663e-07)
(0 -0 -2.72883e-07)
(0 -0 -1.91902e-07)
(0 -0 -1.13183e-07)
(0 -0 -3.72597e-08)
(0 -0 2.13653e-09)
(0 -0 -1.1639e-07)
(0 -0 -3.85716e-07)
(0 -0 -5.63073e-07)
(0 -0 -6.99746e-07)
(0 -0 -8.15083e-07)
(0 -0 -9.18165e-07)
(0 -0 -1.01301e-06)
(0 -0 -1.10195e-06)
(0 -0 -1.18699e-06)
(0 -0 -1.26977e-06)
(0 -0 -1.35151e-06)
(0 -0 -1.43302e-06)
(0 -0 -1.51491e-06)
(0 -0 -1.59777e-06)
(0 -0 -1.68202e-06)
(0 -0 -1.76796e-06)
(0 -0 -1.8557e-06)
(0 -0 -1.94516e-06)
(0 -0 -2.03616e-06)
(0 -0 -2.12848e-06)
(0 -0 -2.22191e-06)
(0 -0 -2.31627e-06)
(0 -0 -2.41129e-06)
(0 -0 -2.50674e-06)
(0 -0 -2.60248e-06)
(0 -0 -2.69832e-06)
(0 -0 -2.79419e-06)
(0 -0 -2.89008e-06)
(0 -0 -2.98599e-06)
(0 -0 -3.08199e-06)
(0 -0 -3.17819e-06)
(0 -0 -3.27463e-06)
(0 -0 -3.37139e-06)
(0 -0 -3.46855e-06)
(0 -0 -3.56616e-06)
(0 -0 -3.66423e-06)
(0 -0 -3.76277e-06)
(0 -0 -3.86172e-06)
(0 -0 -3.96094e-06)
(0 -0 -4.06032e-06)
(0 -0 -4.15969e-06)
(0 -0 -4.25879e-06)
(0 -0 -4.35742e-06)
(0 -0 -4.45539e-06)
(0 -0 -4.55251e-06)
(0 -0 -4.64865e-06)
(0 -0 -4.74382e-06)
(0 -0 -4.83813e-06)
(0 -0 -4.93178e-06)
(0 -0 -5.02514e-06)
(0 -0 -5.11868e-06)
(0 -0 -5.21287e-06)
(0 -0 -5.30818e-06)
(0 -0 -5.4051e-06)
(0 -0 -5.50401e-06)
(0 -0 -5.60508e-06)
(0 -0 -5.70823e-06)
(0 -0 -5.81327e-06)
(0 -0 -5.91979e-06)
(0 -0 -6.02717e-06)
(0 -0 -6.13468e-06)
(0 -0 -6.24154e-06)
(0 -0 -6.34698e-06)
(0 -0 -6.45033e-06)
(0 -0 -6.55109e-06)
(0 -0 -6.64903e-06)
(0 -0 -6.74416e-06)
(0 -0 -6.83678e-06)
(0 -0 -6.92749e-06)
(0 -0 -7.01706e-06)
(0 -0 -7.10633e-06)
(0 -0 -7.19607e-06)
(0 -0 -7.28694e-06)
(0 -0 -7.37943e-06)
(0 -0 -7.47376e-06)
(0 -0 -7.56993e-06)
(0 -0 -7.66765e-06)
(0 -0 -7.76644e-06)
(0 -0 -7.86564e-06)
(0 -0 -7.96465e-06)
(0 -0 -8.06299e-06)
(0 -0 -8.16034e-06)
(0 -0 -8.25642e-06)
(0 -0 -8.35103e-06)
(0 -0 -8.44397e-06)
(0 -0 -8.53512e-06)
(0 -0 -8.62429e-06)
(0 -0 -8.7112e-06)
(0 -0 -8.79554e-06)
(0 -0 -8.87706e-06)
(0 -0 -8.95559e-06)
(0 -0 -9.03104e-06)
(0 -0 -9.10341e-06)
(0 -0 -9.17301e-06)
(0 -0 -9.24046e-06)
(0 -0 -9.3066e-06)
(0 -0 -9.37227e-06)
(0 -0 -9.43829e-06)
(0 -0 -9.50539e-06)
(0 -0 -9.57413e-06)
(0 -0 -9.64475e-06)
(0 -0 -9.71702e-06)
(0 -0 -9.79032e-06)
(0 -0 -9.86379e-06)
(0 -0 -9.93647e-06)
(0 -0 -1.00074e-05)
(0 -0 -1.00754e-05)
(0 -0 -1.01397e-05)
(0 -0 -1.01997e-05)
(0 -0 -1.02552e-05)
(0 -0 -1.03062e-05)
(0 -0 -1.0353e-05)
(0 -0 -1.0396e-05)
(0 -0 -1.04359e-05)
(0 -0 -1.04732e-05)
(0 -0 -1.05081e-05)
(0 -0 -1.05411e-05)
(0 -0 -1.05723e-05)
(0 -0 -1.06017e-05)
(0 -0 -1.06293e-05)
(0 -0 -1.06547e-05)
(0 -0 -1.06777e-05)
(0 -0 -1.06978e-05)
(0 -0 -1.07148e-05)
(0 -0 -1.07284e-05)
(0 -0 -1.07387e-05)
(0 -0 -1.07456e-05)
(0 -0 -1.07498e-05)
(0 -0 -1.07519e-05)
(0 -0 -1.07529e-05)
(0 -0 -1.07537e-05)
(0 -0 -1.0755e-05)
(0 -0 -1.07577e-05)
(0 -0 -1.07621e-05)
(0 -0 -1.0768e-05)
(0 -0 -1.0775e-05)
(0 -0 -1.07823e-05)
(0 -0 -1.07889e-05)
(0 -0 -1.07939e-05)
(0 -0 -1.07968e-05)
(0 -0 -1.0797e-05)
(0 -0 -1.07941e-05)
(0 -0 -1.07882e-05)
(0 -0 -1.07796e-05)
(0 -0 -1.07686e-05)
(0 -0 -1.07559e-05)
(0 -0 -1.07418e-05)
(0 -0 -1.07267e-05)
(0 -0 -1.07108e-05)
(0 -0 -1.06941e-05)
(0 -0 -1.06766e-05)
(0 -0 -1.06578e-05)
(0 -0 -1.06373e-05)
(0 -0 -1.06148e-05)
(0 -0 -1.05901e-05)
(0 -0 -1.05633e-05)
(0 -0 -1.05345e-05)
(0 -0 -1.05045e-05)
(0 -0 -1.04739e-05)
(0 -0 -1.04432e-05)
(0 -0 -1.04128e-05)
(0 -0 -1.03827e-05)
(0 -0 -1.03527e-05)
(0 -0 -1.03223e-05)
(0 -0 -1.02904e-05)
(0 -0 -1.02564e-05)
(0 -0 -1.02193e-05)
(0 -0 -1.01785e-05)
(0 -0 -1.01332e-05)
(0 -0 -1.0083e-05)
(0 -0 -1.00276e-05)
(0 -0 -9.96717e-06)
(0 -0 -9.90239e-06)
(0 -0 -9.83446e-06)
(0 -0 -9.765e-06)
(0 -0 -9.69578e-06)
(0 -0 -9.62838e-06)
(0 -0 -9.56403e-06)
(0 -0 -9.50312e-06)
(0 -0 -9.44534e-06)
(0 -0 -9.38968e-06)
(0 -0 -9.3348e-06)
(0 -0 -9.27931e-06)
(0 -0 -9.22212e-06)
(0 -0 -9.16239e-06)
(0 -0 -9.09978e-06)
(0 -0 -9.03423e-06)
(0 -0 -8.96583e-06)
(0 -0 -8.89475e-06)
(0 -0 -8.82107e-06)
(0 -0 -8.74469e-06)
(0 -0 -8.66559e-06)
(0 -0 -8.58351e-06)
(0 -0 -8.4984e-06)
(0 -0 -8.41024e-06)
(0 -0 -8.31904e-06)
(0 -0 -8.22483e-06)
(0 -0 -8.12746e-06)
(0 -0 -8.02671e-06)
(0 -0 -7.92232e-06)
(0 -0 -7.81383e-06)
(0 -0 -7.70112e-06)
(0 -0 -7.58388e-06)
(0 -0 -7.46226e-06)
(0 -0 -7.33661e-06)
(0 -0 -7.20773e-06)
(0 -0 -7.07639e-06)
(0 -0 -6.94365e-06)
(0 -0 -6.81034e-06)
(0 -0 -6.67707e-06)
(0 -0 -6.54415e-06)
(0 -0 -6.41151e-06)
(0 -0 -6.27875e-06)
(0 -0 -6.1451e-06)
(0 -0 -6.00973e-06)
(0 -0 -5.87191e-06)
(0 -0 -5.73111e-06)
(0 -0 -5.58733e-06)
(0 -0 -5.4407e-06)
(0 -0 -5.29178e-06)
(0 -0 -5.14119e-06)
(0 -0 -4.98973e-06)
(0 -0 -4.83775e-06)
(0 -0 -4.6856e-06)
(0 -0 -4.53324e-06)
(0 -0 -4.38062e-06)
(0 -0 -4.22763e-06)
(0 -0 -4.07422e-06)
(0 -0 -3.92052e-06)
(0 -0 -3.76669e-06)
(0 -0 -3.61294e-06)
(0 -0 -3.45958e-06)
(0 -0 -3.30675e-06)
(0 -0 -3.15448e-06)
(0 -0 -3.00274e-06)
(0 -0 -2.85133e-06)
(0 -0 -2.70004e-06)
(0 -0 -2.54865e-06)
(0 -0 -2.3969e-06)
(0 -0 -2.24457e-06)
(0 -0 -2.09157e-06)
(0 -0 -1.93785e-06)
(0 -0 -1.78341e-06)
(0 -0 -1.62842e-06)
(0 -0 -1.47318e-06)
(0 -0 -1.3182e-06)
(0 -0 -1.1642e-06)
(0 -0 -1.01209e-06)
(0 -0 -8.62879e-07)
(0 -0 -7.17577e-07)
(0 -0 -5.76984e-07)
(0 -0 -4.41416e-07)
(0 -0 -3.10482e-07)
(0 -0 -1.83141e-07)
(0 -0 -6.01279e-08)
(0 -0 -2.86788e-08)
(0 -0 -2.06908e-07)
(0 -0 -5.04193e-07)
(0 -0 -7.28925e-07)
(0 -0 -9.14612e-07)
(0 -0 -1.07573e-06)
(0 -0 -1.22057e-06)
(0 -0 -1.35381e-06)
(0 -0 -1.47864e-06)
(0 -0 -1.59765e-06)
(0 -0 -1.71293e-06)
(0 -0 -1.82615e-06)
(0 -0 -1.93854e-06)
(0 -0 -2.0511e-06)
(0 -0 -2.16461e-06)
(0 -0 -2.27968e-06)
(0 -0 -2.39672e-06)
(0 -0 -2.51589e-06)
(0 -0 -2.63714e-06)
(0 -0 -2.76027e-06)
(0 -0 -2.885e-06)
(0 -0 -3.01108e-06)
(0 -0 -3.1382e-06)
(0 -0 -3.26607e-06)
(0 -0 -3.39442e-06)
(0 -0 -3.52299e-06)
(0 -0 -3.65155e-06)
(0 -0 -3.78006e-06)
(0 -0 -3.90846e-06)
(0 -0 -4.0368e-06)
(0 -0 -4.16519e-06)
(0 -0 -4.29377e-06)
(0 -0 -4.42266e-06)
(0 -0 -4.55204e-06)
(0 -0 -4.68203e-06)
(0 -0 -4.8127e-06)
(0 -0 -4.94418e-06)
(0 -0 -5.07648e-06)
(0 -0 -5.20952e-06)
(0 -0 -5.34318e-06)
(0 -0 -5.47726e-06)
(0 -0 -5.61148e-06)
(0 -0 -5.74554e-06)
(0 -0 -5.87913e-06)
(0 -0 -6.0119e-06)
(0 -0 -6.14355e-06)
(0 -0 -6.27391e-06)
(0 -0 -6.40298e-06)
(0 -0 -6.53081e-06)
(0 -0 -6.65768e-06)
(0 -0 -6.78408e-06)
(0 -0 -6.91059e-06)
(0 -0 -7.03784e-06)
(0 -0 -7.16648e-06)
(0 -0 -7.29718e-06)
(0 -0 -7.43042e-06)
(0 -0 -7.5665e-06)
(0 -0 -7.70544e-06)
(0 -0 -7.84701e-06)
(0 -0 -7.99065e-06)
(0 -0 -8.13557e-06)
(0 -0 -8.28084e-06)
(0 -0 -8.42542e-06)
(0 -0 -8.56826e-06)
(0 -0 -8.70845e-06)
(0 -0 -8.84533e-06)
(0 -0 -8.9786e-06)
(0 -0 -9.10827e-06)
(0 -0 -9.23476e-06)
(0 -0 -9.35882e-06)
(0 -0 -9.48147e-06)
(0 -0 -9.60379e-06)
(0 -0 -9.72692e-06)
(0 -0 -9.85184e-06)
(0 -0 -9.97918e-06)
(0 -0 -1.01092e-05)
(0 -0 -1.02418e-05)
(0 -0 -1.03767e-05)
(0 -0 -1.05131e-05)
(0 -0 -1.06504e-05)
(0 -0 -1.07876e-05)
(0 -0 -1.09239e-05)
(0 -0 -1.10589e-05)
(0 -0 -1.11922e-05)
(0 -0 -1.13233e-05)
(0 -0 -1.14521e-05)
(0 -0 -1.15785e-05)
(0 -0 -1.17021e-05)
(0 -0 -1.18226e-05)
(0 -0 -1.19397e-05)
(0 -0 -1.20528e-05)
(0 -0 -1.21619e-05)
(0 -0 -1.22667e-05)
(0 -0 -1.23675e-05)
(0 -0 -1.24647e-05)
(0 -0 -1.2559e-05)
(0 -0 -1.26516e-05)
(0 -0 -1.27437e-05)
(0 -0 -1.28364e-05)
(0 -0 -1.29307e-05)
(0 -0 -1.30273e-05)
(0 -0 -1.31264e-05)
(0 -0 -1.32279e-05)
(0 -0 -1.3331e-05)
(0 -0 -1.34347e-05)
(0 -0 -1.35374e-05)
(0 -0 -1.36377e-05)
(0 -0 -1.37343e-05)
(0 -0 -1.3826e-05)
(0 -0 -1.3912e-05)
(0 -0 -1.39918e-05)
(0 -0 -1.40655e-05)
(0 -0 -1.41334e-05)
(0 -0 -1.41959e-05)
(0 -0 -1.42538e-05)
(0 -0 -1.43078e-05)
(0 -0 -1.43585e-05)
(0 -0 -1.44063e-05)
(0 -0 -1.44516e-05)
(0 -0 -1.44944e-05)
(0 -0 -1.45347e-05)
(0 -0 -1.45723e-05)
(0 -0 -1.46066e-05)
(0 -0 -1.46373e-05)
(0 -0 -1.46638e-05)
(0 -0 -1.46859e-05)
(0 -0 -1.47033e-05)
(0 -0 -1.47163e-05)
(0 -0 -1.47254e-05)
(0 -0 -1.47314e-05)
(0 -0 -1.47357e-05)
(0 -0 -1.47394e-05)
(0 -0 -1.47439e-05)
(0 -0 -1.47499e-05)
(0 -0 -1.47579e-05)
(0 -0 -1.47679e-05)
(0 -0 -1.47793e-05)
(0 -0 -1.47912e-05)
(0 -0 -1.48024e-05)
(0 -0 -1.48115e-05)
(0 -0 -1.48177e-05)
(0 -0 -1.48202e-05)
(0 -0 -1.48187e-05)
(0 -0 -1.48132e-05)
(0 -0 -1.48042e-05)
(0 -0 -1.4792e-05)
(0 -0 -1.47775e-05)
(0 -0 -1.47611e-05)
(0 -0 -1.47434e-05)
(0 -0 -1.47247e-05)
(0 -0 -1.47047e-05)
(0 -0 -1.46834e-05)
(0 -0 -1.466e-05)
(0 -0 -1.46341e-05)
(0 -0 -1.46053e-05)
(0 -0 -1.45732e-05)
(0 -0 -1.45381e-05)
(0 -0 -1.45005e-05)
(0 -0 -1.44611e-05)
(0 -0 -1.4421e-05)
(0 -0 -1.43808e-05)
(0 -0 -1.43412e-05)
(0 -0 -1.4302e-05)
(0 -0 -1.4263e-05)
(0 -0 -1.42233e-05)
(0 -0 -1.41818e-05)
(0 -0 -1.41373e-05)
(0 -0 -1.40887e-05)
(0 -0 -1.40348e-05)
(0 -0 -1.39747e-05)
(0 -0 -1.39079e-05)
(0 -0 -1.3834e-05)
(0 -0 -1.37532e-05)
(0 -0 -1.36665e-05)
(0 -0 -1.35753e-05)
(0 -0 -1.34818e-05)
(0 -0 -1.33887e-05)
(0 -0 -1.32979e-05)
(0 -0 -1.32111e-05)
(0 -0 -1.31288e-05)
(0 -0 -1.30505e-05)
(0 -0 -1.2975e-05)
(0 -0 -1.29002e-05)
(0 -0 -1.28242e-05)
(0 -0 -1.27455e-05)
(0 -0 -1.26631e-05)
(0 -0 -1.25764e-05)
(0 -0 -1.24857e-05)
(0 -0 -1.2391e-05)
(0 -0 -1.22926e-05)
(0 -0 -1.21906e-05)
(0 -0 -1.20849e-05)
(0 -0 -1.19754e-05)
(0 -0 -1.1862e-05)
(0 -0 -1.17446e-05)
(0 -0 -1.16231e-05)
(0 -0 -1.14975e-05)
(0 -0 -1.1368e-05)
(0 -0 -1.12342e-05)
(0 -0 -1.10959e-05)
(0 -0 -1.09525e-05)
(0 -0 -1.08036e-05)
(0 -0 -1.06485e-05)
(0 -0 -1.0487e-05)
(0 -0 -1.03194e-05)
(0 -0 -1.0146e-05)
(0 -0 -9.96779e-06)
(0 -0 -9.78612e-06)
(0 -0 -9.6023e-06)
(0 -0 -9.41764e-06)
(0 -0 -9.23308e-06)
(0 -0 -9.049e-06)
(0 -0 -8.86531e-06)
(0 -0 -8.68137e-06)
(0 -0 -8.49614e-06)
(0 -0 -8.30844e-06)
(0 -0 -8.1172e-06)
(0 -0 -7.92167e-06)
(0 -0 -7.72171e-06)
(0 -0 -7.51763e-06)
(0 -0 -7.31025e-06)
(0 -0 -7.10049e-06)
(0 -0 -6.88933e-06)
(0 -0 -6.67748e-06)
(0 -0 -6.46539e-06)
(0 -0 -6.25313e-06)
(0 -0 -6.04059e-06)
(0 -0 -5.82768e-06)
(0 -0 -5.61434e-06)
(0 -0 -5.40071e-06)
(0 -0 -5.18708e-06)
(0 -0 -4.97377e-06)
(0 -0 -4.76106e-06)
(0 -0 -4.54917e-06)
(0 -0 -4.33814e-06)
(0 -0 -4.12788e-06)
(0 -0 -3.9182e-06)
(0 -0 -3.7088e-06)
(0 -0 -3.49937e-06)
(0 -0 -3.28967e-06)
(0 -0 -3.07942e-06)
(0 -0 -2.86844e-06)
(0 -0 -2.6567e-06)
(0 -0 -2.44422e-06)
(0 -0 -2.23115e-06)
(0 -0 -2.01791e-06)
(0 -0 -1.80516e-06)
(0 -0 -1.59387e-06)
(0 -0 -1.38527e-06)
(0 -0 -1.18076e-06)
(0 -0 -9.81716e-07)
(0 -0 -7.89174e-07)
(0 -0 -6.03555e-07)
(0 -0 -4.2437e-07)
(0 -0 -2.50181e-07)
(0 -0 -8.20576e-08)
(0 -0 -6.49085e-08)
(0 -0 -2.99862e-07)
(0 -0 -6.25555e-07)
(0 -0 -8.88359e-07)
(0 -0 -1.11368e-06)
(0 -0 -1.31293e-06)
(0 -0 -1.49359e-06)
(0 -0 -1.66054e-06)
(0 -0 -1.81726e-06)
(0 -0 -1.96657e-06)
(0 -0 -2.1109e-06)
(0 -0 -2.2522e-06)
(0 -0 -2.39211e-06)
(0 -0 -2.53188e-06)
(0 -0 -2.67249e-06)
(0 -0 -2.81464e-06)
(0 -0 -2.95882e-06)
(0 -0 -3.10525e-06)
(0 -0 -3.25396e-06)
(0 -0 -3.40477e-06)
(0 -0 -3.55742e-06)
(0 -0 -3.71155e-06)
(0 -0 -3.86678e-06)
(0 -0 -4.0228e-06)
(0 -0 -4.17925e-06)
(0 -0 -4.33582e-06)
(0 -0 -4.49231e-06)
(0 -0 -4.64857e-06)
(0 -0 -4.80457e-06)
(0 -0 -4.96041e-06)
(0 -0 -5.11625e-06)
(0 -0 -5.27226e-06)
(0 -0 -5.42871e-06)
(0 -0 -5.58586e-06)
(0 -0 -5.7439e-06)
(0 -0 -5.90303e-06)
(0 -0 -6.06343e-06)
(0 -0 -6.22511e-06)
(0 -0 -6.38806e-06)
(0 -0 -6.55214e-06)
(0 -0 -6.71706e-06)
(0 -0 -6.88245e-06)
(0 -0 -7.04794e-06)
(0 -0 -7.21307e-06)
(0 -0 -7.37735e-06)
(0 -0 -7.54035e-06)
(0 -0 -7.70182e-06)
(0 -0 -7.86162e-06)
(0 -0 -8.01979e-06)
(0 -0 -8.17663e-06)
(0 -0 -8.33265e-06)
(0 -0 -8.48851e-06)
(0 -0 -8.64501e-06)
(0 -0 -8.80301e-06)
(0 -0 -8.96332e-06)
(0 -0 -9.12656e-06)
(0 -0 -9.29313e-06)
(0 -0 -9.46316e-06)
(0 -0 -9.63642e-06)
(0 -0 -9.81233e-06)
(0 -0 -9.99001e-06)
(0 -0 -1.01684e-05)
(0 -0 -1.03462e-05)
(0 -0 -1.05222e-05)
(0 -0 -1.06952e-05)
(0 -0 -1.08646e-05)
(0 -0 -1.10298e-05)
(0 -0 -1.11909e-05)
(0 -0 -1.13484e-05)
(0 -0 -1.15032e-05)
(0 -0 -1.16565e-05)
(0 -0 -1.18096e-05)
(0 -0 -1.1964e-05)
(0 -0 -1.21207e-05)
(0 -0 -1.22807e-05)
(0 -0 -1.24443e-05)
(0 -0 -1.26114e-05)
(0 -0 -1.27814e-05)
(0 -0 -1.29536e-05)
(0 -0 -1.31269e-05)
(0 -0 -1.33003e-05)
(0 -0 -1.34729e-05)
(0 -0 -1.36438e-05)
(0 -0 -1.38125e-05)
(0 -0 -1.39785e-05)
(0 -0 -1.41415e-05)
(0 -0 -1.43013e-05)
(0 -0 -1.44577e-05)
(0 -0 -1.46101e-05)
(0 -0 -1.47582e-05)
(0 -0 -1.49015e-05)
(0 -0 -1.50398e-05)
(0 -0 -1.51728e-05)
(0 -0 -1.53009e-05)
(0 -0 -1.54248e-05)
(0 -0 -1.55454e-05)
(0 -0 -1.56639e-05)
(0 -0 -1.57819e-05)
(0 -0 -1.59008e-05)
(0 -0 -1.60219e-05)
(0 -0 -1.61458e-05)
(0 -0 -1.62731e-05)
(0 -0 -1.64033e-05)
(0 -0 -1.65357e-05)
(0 -0 -1.6669e-05)
(0 -0 -1.68015e-05)
(0 -0 -1.69313e-05)
(0 -0 -1.70568e-05)
(0 -0 -1.71764e-05)
(0 -0 -1.7289e-05)
(0 -0 -1.73942e-05)
(0 -0 -1.74916e-05)
(0 -0 -1.75815e-05)
(0 -0 -1.76646e-05)
(0 -0 -1.77415e-05)
(0 -0 -1.7813e-05)
(0 -0 -1.78802e-05)
(0 -0 -1.79435e-05)
(0 -0 -1.80035e-05)
(0 -0 -1.80604e-05)
(0 -0 -1.81141e-05)
(0 -0 -1.81646e-05)
(0 -0 -1.82114e-05)
(0 -0 -1.8254e-05)
(0 -0 -1.82916e-05)
(0 -0 -1.83239e-05)
(0 -0 -1.83506e-05)
(0 -0 -1.83717e-05)
(0 -0 -1.83878e-05)
(0 -0 -1.83998e-05)
(0 -0 -1.84093e-05)
(0 -0 -1.84177e-05)
(0 -0 -1.84266e-05)
(0 -0 -1.84371e-05)
(0 -0 -1.84499e-05)
(0 -0 -1.84649e-05)
(0 -0 -1.84816e-05)
(0 -0 -1.84989e-05)
(0 -0 -1.85153e-05)
(0 -0 -1.85295e-05)
(0 -0 -1.854e-05)
(0 -0 -1.85462e-05)
(0 -0 -1.85474e-05)
(0 -0 -1.85439e-05)
(0 -0 -1.8536e-05)
(0 -0 -1.85246e-05)
(0 -0 -1.85104e-05)
(0 -0 -1.84941e-05)
(0 -0 -1.84761e-05)
(0 -0 -1.84568e-05)
(0 -0 -1.84358e-05)
(0 -0 -1.84128e-05)
(0 -0 -1.8387e-05)
(0 -0 -1.83577e-05)
(0 -0 -1.83243e-05)
(0 -0 -1.82867e-05)
(0 -0 -1.82451e-05)
(0 -0 -1.82003e-05)
(0 -0 -1.81533e-05)
(0 -0 -1.81055e-05)
(0 -0 -1.80577e-05)
(0 -0 -1.80107e-05)
(0 -0 -1.79644e-05)
(0 -0 -1.79183e-05)
(0 -0 -1.78714e-05)
(0 -0 -1.78222e-05)
(0 -0 -1.77694e-05)
(0 -0 -1.77113e-05)
(0 -0 -1.76467e-05)
(0 -0 -1.75745e-05)
(0 -0 -1.74938e-05)
(0 -0 -1.74042e-05)
(0 -0 -1.73061e-05)
(0 -0 -1.72005e-05)
(0 -0 -1.70894e-05)
(0 -0 -1.69755e-05)
(0 -0 -1.68618e-05)
(0 -0 -1.6751e-05)
(0 -0 -1.66451e-05)
(0 -0 -1.65445e-05)
(0 -0 -1.64486e-05)
(0 -0 -1.63557e-05)
(0 -0 -1.62634e-05)
(0 -0 -1.61692e-05)
(0 -0 -1.60711e-05)
(0 -0 -1.5968e-05)
(0 -0 -1.58594e-05)
(0 -0 -1.57453e-05)
(0 -0 -1.56261e-05)
(0 -0 -1.55021e-05)
(0 -0 -1.53735e-05)
(0 -0 -1.52404e-05)
(0 -0 -1.51026e-05)
(0 -0 -1.49598e-05)
(0 -0 -1.48122e-05)
(0 -0 -1.46595e-05)
(0 -0 -1.4502e-05)
(0 -0 -1.43394e-05)
(0 -0 -1.41717e-05)
(0 -0 -1.39983e-05)
(0 -0 -1.38185e-05)
(0 -0 -1.36315e-05)
(0 -0 -1.34366e-05)
(0 -0 -1.32333e-05)
(0 -0 -1.30217e-05)
(0 -0 -1.28025e-05)
(0 -0 -1.25769e-05)
(0 -0 -1.23467e-05)
(0 -0 -1.21137e-05)
(0 -0 -1.18795e-05)
(0 -0 -1.16456e-05)
(0 -0 -1.14124e-05)
(0 -0 -1.118e-05)
(0 -0 -1.09474e-05)
(0 -0 -1.07134e-05)
(0 -0 -1.04762e-05)
(0 -0 -1.02344e-05)
(0 -0 -9.98724e-06)
(0 -0 -9.73428e-06)
(0 -0 -9.47599e-06)
(0 -0 -9.21339e-06)
(0 -0 -8.9478e-06)
(0 -0 -8.68043e-06)
(0 -0 -8.41224e-06)
(0 -0 -8.14378e-06)
(0 -0 -7.87521e-06)
(0 -0 -7.60644e-06)
(0 -0 -7.33737e-06)
(0 -0 -7.06793e-06)
(0 -0 -6.79825e-06)
(0 -0 -6.52865e-06)
(0 -0 -6.25952e-06)
(0 -0 -5.99117e-06)
(0 -0 -5.72379e-06)
(0 -0 -5.45741e-06)
(0 -0 -5.19188e-06)
(0 -0 -4.927e-06)
(0 -0 -4.66244e-06)
(0 -0 -4.39788e-06)
(0 -0 -4.13309e-06)
(0 -0 -3.86782e-06)
(0 -0 -3.60186e-06)
(0 -0 -3.33512e-06)
(0 -0 -3.06766e-06)
(0 -0 -2.79967e-06)
(0 -0 -2.53159e-06)
(0 -0 -2.26423e-06)
(0 -0 -1.9988e-06)
(0 -0 -1.73683e-06)
(0 -0 -1.4801e-06)
(0 -0 -1.23033e-06)
(0 -0 -9.88825e-07)
(0 -0 -7.56042e-07)
(0 -0 -5.31376e-07)
(0 -0 -3.13086e-07)
(0 -0 -1.02629e-07)
(0 -0 -9.48336e-08)
(0 -0 -3.76713e-07)
(0 -0 -7.26974e-07)
(0 -0 -1.02104e-06)
(0 -0 -1.27911e-06)
(0 -0 -1.51054e-06)
(0 -0 -1.72205e-06)
(0 -0 -1.91845e-06)
(0 -0 -2.10335e-06)
(0 -0 -2.27972e-06)
(0 -0 -2.45005e-06)
(0 -0 -2.61651e-06)
(0 -0 -2.78093e-06)
(0 -0 -2.94476e-06)
(0 -0 -3.10913e-06)
(0 -0 -3.27486e-06)
(0 -0 -3.44248e-06)
(0 -0 -3.61228e-06)
(0 -0 -3.78431e-06)
(0 -0 -3.95849e-06)
(0 -0 -4.13456e-06)
(0 -0 -4.31214e-06)
(0 -0 -4.49084e-06)
(0 -0 -4.67024e-06)
(0 -0 -4.84994e-06)
(0 -0 -5.02962e-06)
(0 -0 -5.20902e-06)
(0 -0 -5.38797e-06)
(0 -0 -5.56648e-06)
(0 -0 -5.74466e-06)
(0 -0 -5.9227e-06)
(0 -0 -6.10092e-06)
(0 -0 -6.27968e-06)
(0 -0 -6.45936e-06)
(0 -0 -6.64034e-06)
(0 -0 -6.82294e-06)
(0 -0 -7.00737e-06)
(0 -0 -7.19375e-06)
(0 -0 -7.3821e-06)
(0 -0 -7.57225e-06)
(0 -0 -7.76386e-06)
(0 -0 -7.9565e-06)
(0 -0 -8.14966e-06)
(0 -0 -8.3427e-06)
(0 -0 -8.53498e-06)
(0 -0 -8.72598e-06)
(0 -0 -8.91523e-06)
(0 -0 -9.10244e-06)
(0 -0 -9.2876e-06)
(0 -0 -9.47096e-06)
(0 -0 -9.65301e-06)
(0 -0 -9.83445e-06)
(0 -0 -1.00162e-05)
(0 -0 -1.01993e-05)
(0 -0 -1.03846e-05)
(0 -0 -1.05731e-05)
(0 -0 -1.07651e-05)
(0 -0 -1.0961e-05)
(0 -0 -1.11606e-05)
(0 -0 -1.13635e-05)
(0 -0 -1.15686e-05)
(0 -0 -1.17748e-05)
(0 -0 -1.19808e-05)
(0 -0 -1.21852e-05)
(0 -0 -1.23868e-05)
(0 -0 -1.25846e-05)
(0 -0 -1.27781e-05)
(0 -0 -1.29673e-05)
(0 -0 -1.31528e-05)
(0 -0 -1.33356e-05)
(0 -0 -1.35169e-05)
(0 -0 -1.36985e-05)
(0 -0 -1.38817e-05)
(0 -0 -1.4068e-05)
(0 -0 -1.42583e-05)
(0 -0 -1.44531e-05)
(0 -0 -1.46522e-05)
(0 -0 -1.4855e-05)
(0 -0 -1.50605e-05)
(0 -0 -1.52675e-05)
(0 -0 -1.54748e-05)
(0 -0 -1.56812e-05)
(0 -0 -1.58857e-05)
(0 -0 -1.60875e-05)
(0 -0 -1.62861e-05)
(0 -0 -1.64812e-05)
(0 -0 -1.66724e-05)
(0 -0 -1.68593e-05)
(0 -0 -1.70415e-05)
(0 -0 -1.72186e-05)
(0 -0 -1.73902e-05)
(0 -0 -1.75559e-05)
(0 -0 -1.77156e-05)
(0 -0 -1.78698e-05)
(0 -0 -1.80193e-05)
(0 -0 -1.81651e-05)
(0 -0 -1.83088e-05)
(0 -0 -1.8452e-05)
(0 -0 -1.85963e-05)
(0 -0 -1.87433e-05)
(0 -0 -1.88938e-05)
(0 -0 -1.90483e-05)
(0 -0 -1.92063e-05)
(0 -0 -1.9367e-05)
(0 -0 -1.9529e-05)
(0 -0 -1.96904e-05)
(0 -0 -1.98491e-05)
(0 -0 -2.00031e-05)
(0 -0 -2.01506e-05)
(0 -0 -2.02903e-05)
(0 -0 -2.04211e-05)
(0 -0 -2.05428e-05)
(0 -0 -2.06555e-05)
(0 -0 -2.07597e-05)
(0 -0 -2.08563e-05)
(0 -0 -2.0946e-05)
(0 -0 -2.10301e-05)
(0 -0 -2.11092e-05)
(0 -0 -2.11841e-05)
(0 -0 -2.12553e-05)
(0 -0 -2.1323e-05)
(0 -0 -2.1387e-05)
(0 -0 -2.14471e-05)
(0 -0 -2.15026e-05)
(0 -0 -2.15528e-05)
(0 -0 -2.1597e-05)
(0 -0 -2.16347e-05)
(0 -0 -2.16659e-05)
(0 -0 -2.16912e-05)
(0 -0 -2.17114e-05)
(0 -0 -2.1728e-05)
(0 -0 -2.17428e-05)
(0 -0 -2.17575e-05)
(0 -0 -2.17737e-05)
(0 -0 -2.17921e-05)
(0 -0 -2.18129e-05)
(0 -0 -2.18355e-05)
(0 -0 -2.18587e-05)
(0 -0 -2.1881e-05)
(0 -0 -2.19008e-05)
(0 -0 -2.19164e-05)
(0 -0 -2.19269e-05)
(0 -0 -2.1932e-05)
(0 -0 -2.19316e-05)
(0 -0 -2.19264e-05)
(0 -0 -2.19173e-05)
(0 -0 -2.19052e-05)
(0 -0 -2.1891e-05)
(0 -0 -2.18749e-05)
(0 -0 -2.18572e-05)
(0 -0 -2.18375e-05)
(0 -0 -2.1815e-05)
(0 -0 -2.17888e-05)
(0 -0 -2.17581e-05)
(0 -0 -2.17222e-05)
(0 -0 -2.16809e-05)
(0 -0 -2.16348e-05)
(0 -0 -2.15847e-05)
(0 -0 -2.15321e-05)
(0 -0 -2.14785e-05)
(0 -0 -2.14251e-05)
(0 -0 -2.13727e-05)
(0 -0 -2.13213e-05)
(0 -0 -2.12702e-05)
(0 -0 -2.12181e-05)
(0 -0 -2.11634e-05)
(0 -0 -2.11044e-05)
(0 -0 -2.10394e-05)
(0 -0 -2.09667e-05)
(0 -0 -2.08851e-05)
(0 -0 -2.07935e-05)
(0 -0 -2.06916e-05)
(0 -0 -2.05797e-05)
(0 -0 -2.04591e-05)
(0 -0 -2.03321e-05)
(0 -0 -2.02018e-05)
(0 -0 -2.00717e-05)
(0 -0 -1.9945e-05)
(0 -0 -1.98237e-05)
(0 -0 -1.97085e-05)
(0 -0 -1.95984e-05)
(0 -0 -1.94913e-05)
(0 -0 -1.93842e-05)
(0 -0 -1.92743e-05)
(0 -0 -1.91593e-05)