/*--------------------------------*- C++ -*----------------------------------*\
| =========                 |                                                 |
| \\      /  F ield         | OpenFOAM: The Open Source CFD Toolbox           |
|  \\    /   O peration     | Version:  v2012                                 |
|   \\  /    A nd           | Website:  www.openfoam.com                      |
|    \\/     M anipulation  |                                                 |
\*---------------------------------------------------------------------------*/
FoamFile
{
    version     2.0;
    format      ascii;
    class       volVectorField;
    location    "0";
    object      U;
}
// * * * * * * * * * * * * * * * * * * * * * * * * * * * * * * * * * * * * * //

dimensions      [0 1 -1 0 0 0 0];


internalField   nonuniform List<vector> 
4000
(
(1 1.1989e-15 0)
(1 -6.40533e-16 0)
(1 -2.77259e-15 0)
(1 4.80048e-16 0)
(1 5.59448e-15 0)
(1 5.79279e-15 0)
(1 -3.65858e-16 0)
(1 -3.99165e-15 0)
(1 -1.20671e-15 0)
(1 -3.44124e-15 0)
(1 -2.64407e-15 0)
(1 2.53576e-15 0)
(1 3.30403e-15 0)
(1 1.87839e-15 0)
(1 2.31791e-15 0)
(1 -2.16159e-17 0)
(1 2.94624e-15 0)
(1 -6.94672e-15 0)
(1 2.62795e-15 0)
(1 -7.85456e-15 0)
(1 -1.71082e-15 0)
(1 -9.28226e-15 0)
(1 -2.87412e-15 0)
(1 -2.04892e-15 0)
(1 7.18383e-16 0)
(1 7.33478e-16 0)
(1 -1.93702e-15 0)
(1 3.48588e-16 0)
(1 -1.44329e-15 0)
(1 6.73126e-15 0)
(1 7.05541e-15 0)
(1 6.2147e-15 0)
(1 -1.97281e-15 0)
(1 8.36809e-15 0)
(1 3.79763e-15 0)
(1 3.04568e-15 0)
(1 3.79562e-15 0)
(1 2.52044e-15 0)
(1 -1.92869e-15 0)
(1 -5.02874e-15 0)
(1 -1.05041e-15 0)
(1 -1.82002e-15 0)
(1 9.58349e-16 0)
(1 7.47484e-16 0)
(1 -2.05094e-15 0)
(1 -2.03662e-15 0)
(1 -1.63501e-15 0)
(1 4.06854e-15 0)
(1 -2.40202e-15 0)
(1 -1.51613e-15 0)
(1 3.43486e-15 0)
(1 3.5449e-15 0)
(1 3.88947e-15 0)
(1 2.21821e-15 0)
(1 1.05945e-15 0)
(1 -3.64598e-15 0)
(1 -4.06325e-15 0)
(1 7.01587e-17 0)
(1 -1.26758e-15 0)
(1 2.28919e-15 0)
(1 2.28449e-15 0)
(1 1.86708e-15 0)
(1 -1.51946e-15 0)
(1 6.31664e-16 0)
(1 -2.64503e-15 0)
(1 -3.11633e-15 0)
(1 2.94033e-16 0)
(1 2.08435e-15 0)
(1 3.40142e-16 0)
(1 2.15209e-15 0)
(1 -2.69424e-15 0)
(1 1.2557e-15 0)
(1 1.88633e-15 0)
(1 -4.76913e-15 0)
(1 -7.52611e-15 0)
(1 -5.09734e-15 0)
(1 -5.58072e-17 0)
(1 -2.10101e-15 0)
(1 3.03737e-15 0)
(1 4.32596e-15 0)
(1 -2.32642e-15 0)
(1 -5.3946e-16 0)
(1 2.44656e-15 0)
(1 -1.49659e-15 0)
(1 -2.77367e-15 0)
(1 1.18153e-15 0)
(1 2.43398e-16 0)
(1 2.19577e-15 0)
(1 1.16054e-15 0)
(1 5.45612e-15 0)
(1 1.19578e-15 0)
(1 1.64362e-15 0)
(1 -3.56156e-15 0)
(1 -8.26732e-16 0)
(1 -9.90509e-16 0)
(1 -2.27103e-15 0)
(1 -2.18633e-15 0)
(1 2.99053e-15 0)
(1 -4.03905e-16 0)
(1 -3.28679e-15 0)
(1 4.3849e-15 0)
(1 1.55597e-15 0)
(1 6.12704e-17 0)
(1 -2.87385e-16 0)
(1 5.48678e-15 0)
(1 6.5208e-16 0)
(1 2.88885e-15 0)
(1 -1.00658e-14 0)
(1 1.10994e-16 0)
(1 -2.18792e-15 0)
(1 -2.68226e-15 0)
(1 7.46139e-15 0)
(1 8.48577e-15 0)
(1 3.80799e-15 0)
(1 4.59404e-16 0)
(1 -2.59028e-15 0)
(1 1.88543e-15 0)
(1 -5.92784e-15 0)
(1 1.15843e-15 0)
(1 -1.03832e-14 0)
(1 5.28686e-15 0)
(1 -1.10666e-14 0)
(1 -6.85974e-15 0)
(1 -3.51799e-15 0)
(1 -2.80441e-15 0)
(1 3.17437e-15 0)
(1 -3.23687e-15 0)
(1 2.66578e-16 0)
(1 -3.40215e-15 0)
(1 6.32923e-15 0)
(1 6.62166e-15 0)
(1 3.65266e-15 0)
(1 -3.30354e-15 0)
(1 1.06855e-14 0)
(1 1.88735e-15 0)
(1 2.00149e-15 0)
(1 1.67981e-15 0)
(1 6.312e-15 0)
(1 -3.73676e-15 0)
(1 -6.08709e-15 0)
(1 -6.42019e-15 0)
(1 -1.96889e-16 0)
(1 -2.96024e-15 0)
(1 -4.48735e-16 0)
(1 -5.35588e-15 0)
(1 -2.8174e-15 0)
(1 -5.41465e-16 0)
(1 3.19764e-15 0)
(1 2.89421e-16 0)
(1 1.39477e-15 0)
(1 1.38687e-15 0)
(1 9.2469e-16 0)
(1 -6.18956e-16 0)
(1 2.62295e-15 0)
(1 1.97969e-15 0)
(1 -1.43316e-15 0)
(1 -4.83281e-15 0)
(1 1.13827e-15 0)
(1 -5.83315e-15 0)
(1 -2.33384e-15 0)
(1 4.08943e-15 0)
(1 8.80237e-16 0)
(1 3.6862e-15 0)
(1 3.1525e-15 0)
(1 -3.85689e-16 0)
(1 -3.24372e-16 0)
(1 -2.94025e-16 0)
(1 -2.63273e-16 0)
(1 -1.84127e-15 0)
(1 -2.44739e-15 0)
(1 -1.59993e-15 0)
(1 3.20239e-15 0)
(1 5.94444e-15 0)
(1 1.14695e-15 0)
(1 -3.32971e-15 0)
(1 -4.66308e-15 0)
(1 2.12991e-15 0)
(1 4.68962e-15 0)
(1 4.45141e-15 0)
(1 9.37451e-15 0)
(1 -4.11818e-15 0)
(1 -2.63809e-15 0)
(1 5.59072e-15 0)
(1 -9.61531e-16 0)
(1 -1.2684e-15 0)
(1 2.18127e-15 0)
(1 -2.79817e-15 0)
(1 -9.98565e-16 0)
(1 -4.34538e-15 0)
(1 2.70215e-15 0)
(1 -2.33466e-15 0)
(1 1.51471e-15 0)
(1 -1.12243e-15 0)
(1 -1.89375e-15 0)
(1 -7.26955e-15 0)
(1 2.35598e-15 0)
(1 -1.15706e-15 0)
(1 4.67425e-15 0)
(1 1.95835e-15 0)
(1 -3.32485e-15 0)
(1 3.73749e-15 0)
(1 2.26003e-15 0)
(1 -4.37883e-15 0)
(1 -2.09032e-15 0)
(1 -3.20699e-15 0)
(1 -8.21917e-16 0)
(1 1.10877e-15 0)
(1 -1.60233e-15 0)
(1 -1.27941e-15 0)
(1 1.96497e-15 0)
(1 -1.45294e-15 0)
(1 1.16591e-14 0)
(1 5.85664e-15 0)
(1 5.00863e-15 0)
(1 2.51081e-15 0)
(1 -1.01396e-15 0)
(1 -7.3499e-15 0)
(1 -3.82247e-16 0)
(1 -1.89364e-15 0)
(1 1.62414e-15 0)
(1 5.28887e-15 0)
(1 3.34131e-15 0)
(1 -4.38479e-15 0)
(1 -3.9336e-15 0)
(1 -1.18906e-15 0)
(1 4.85176e-16 0)
(1 2.50598e-15 0)
(1 2.88064e-15 0)
(1 2.80144e-15 0)
(1 2.97121e-15 0)
(1 4.30768e-15 0)
(1 1.27409e-15 0)
(1 3.12663e-15 0)
(1 1.73361e-15 0)
(1 4.59137e-15 0)
(1 8.5938e-15 0)
(1 5.71593e-15 0)
(1 8.50606e-15 0)
(1 7.46961e-17 0)
(1 -2.24087e-15 0)
(1 -6.84208e-15 0)
(1 -3.97257e-15 0)
(1 -1.09249e-14 0)
(1 -7.08258e-15 0)
(1 -6.85543e-15 0)
(1 7.11207e-16 0)
(1 1.75155e-15 0)
(1 -5.01766e-16 0)
(1 -9.17109e-16 0)
(1 2.83237e-15 0)
(1 1.81302e-16 0)
(1 2.47029e-15 0)
(1 4.69992e-15 0)
(1 3.08644e-15 0)
(1 4.58624e-15 0)
(1 3.30563e-15 0)
(1 -2.89985e-15 0)
(1 -2.4301e-15 0)
(1 -3.44663e-15 0)
(1 -6.53062e-15 0)
(1 -4.13871e-15 0)
(1 -2.74475e-16 0)
(1 4.54088e-15 0)
(1 7.13464e-16 0)
(1 -2.74511e-16 0)
(1 2.77497e-15 0)
(1 -7.17178e-16 0)
(1 8.57571e-16 0)
(1 1.92796e-16 0)
(1 -2.27103e-15 0)
(1 1.15153e-15 0)
(1 1.01578e-15 0)
(1 2.28825e-17 0)
(1 1.17862e-15 0)
(1 -3.44118e-15 0)
(1 -1.34662e-15 0)
(1 -1.59709e-15 0)
(1 -2.52983e-15 0)
(1 4.26079e-15 0)
(1 -5.52545e-16 0)
(1 -9.19858e-16 0)
(1 -6.2176e-15 0)
(1 -4.57217e-16 0)
(1 -3.82506e-16 0)
(1 -1.59398e-15 0)
(1 3.56747e-15 0)
(1 2.68187e-15 0)
(1 1.56222e-15 0)
(1 -3.14581e-15 0)
(1 2.11718e-16 0)
(1 -4.65944e-15 0)
(1 -1.45686e-15 0)
(1 3.47222e-15 0)
(1 1.66846e-15 0)
(1 -5.20369e-15 0)
(1 -2.13793e-15 0)
(1 -1.36258e-15 0)
(1 -4.86836e-16 0)
(1 1.60417e-15 0)
(1 -4.88809e-16 0)
(1 3.67245e-15 0)
(1 -2.48001e-15 0)
(1 -2.72594e-15 0)
(1 -8.79843e-15 0)
(1 1.33824e-15 0)
(1 5.00484e-15 0)
(1 4.91791e-15 0)
(1 4.10272e-15 0)
(1 -1.29017e-15 0)
(1 -1.94944e-15 0)
(1 2.51088e-16 0)
(1 1.16036e-14 0)
(1 1.29963e-15 0)
(1 3.46836e-16 0)
(1 6.68679e-15 0)
(1 -8.63922e-16 0)
(1 -4.07914e-15 0)
(1 -2.5459e-15 0)
(1 -4.05829e-15 0)
(1 3.51779e-15 0)
(1 -2.22482e-15 0)
(1 1.9991e-15 0)
(1 5.37447e-15 0)
(1 6.90891e-15 0)
(1 8.76991e-15 0)
(1 -1.04543e-15 0)
(1 -8.81873e-16 0)
(1 1.71329e-15 0)
(1 6.69535e-15 0)
(1 1.8619e-15 0)
(1 7.73416e-16 0)
(1 1.92529e-15 0)
(1 2.60984e-15 0)
(1 -3.34673e-15 0)
(1 4.56726e-15 0)
(1 3.4118e-15 0)
(1 2.69727e-15 0)
(1 6.14757e-15 0)
(1 5.56949e-15 0)
(1 5.83791e-15 0)
(1 2.76516e-15 0)
(1 -5.94914e-15 0)
(1 -9.71122e-15 0)
(1 -9.52642e-15 0)
(1 -2.47571e-15 0)
(1 1.13984e-15 0)
(1 2.18057e-15 0)
(1 3.71002e-15 0)
(1 2.50491e-15 0)
(1 1.22497e-15 0)
(1 2.21325e-15 0)
(1 2.32412e-15 0)
(1 4.00317e-15 0)
(1 5.3397e-16 0)
(1 -1.82965e-15 0)
(1 -3.31345e-16 0)
(1 -3.00486e-15 0)
(1 -7.70226e-15 0)
(1 -1.70992e-15 0)
(1 -1.09411e-15 0)
(1 -3.86482e-15 0)
(1 2.74466e-16 0)
(1 2.04565e-16 0)
(1 2.87566e-15 0)
(1 -8.29638e-16 0)
(1 -2.14073e-15 0)
(1 -4.82892e-15 0)
(1 3.90574e-17 0)
(1 1.11118e-15 0)
(1 1.05481e-15 0)
(1 -6.74032e-16 0)
(1 -2.98356e-15 0)
(1 -7.72293e-16 0)
(1 -5.46734e-15 0)
(1 -4.06467e-15 0)
(1 -3.08338e-16 0)
(1 -3.33879e-16 0)
(1 2.74043e-16 0)
(1 5.20724e-15 0)
(1 1.93716e-15 0)
(1 3.24437e-17 0)
(1 2.62323e-15 0)
(1 -3.71044e-15 0)
(1 1.02784e-15 0)
(1 -2.37077e-17 0)
(1 2.52305e-15 0)
(1 5.03221e-15 0)
(1 3.63017e-15 0)
(1 4.96315e-15 0)
(1 -1.03085e-16 0)
(1 1.54921e-15 0)
(1 7.60608e-16 0)
(1 2.40897e-15 0)
(1 1.23931e-15 0)
(1 -3.73125e-15 0)
(1 -8.4952e-15 0)
(1 -2.98319e-15 0)
(1 -1.84795e-15 0)
(1 -4.07238e-15 0)
(1 -4.79112e-15 0)
(1 3.38978e-15 0)
(1 -1.04567e-15 0)
(1 -3.63215e-16 0)
(1 -1.67027e-15 0)
(1 2.39135e-15 0)
(1 2.27929e-15 0)
(1 -1.96622e-15 0)
(1 -6.35925e-15 0)
(1 -5.77111e-15 0)
(1 -5.6715e-15 0)
(1 8.02046e-15 0)
(1 3.21732e-15 0)
(1 6.586e-15 0)
(1 -3.79438e-15 0)
(1 6.34875e-15 0)
(1 7.02117e-15 0)
(1 5.04312e-15 0)
(1 -6.40897e-15 0)
(1 -6.95944e-15 0)
(1 -8.35661e-15 0)
(1 -1.11599e-15 0)
(1 -1.12484e-14 0)
(1 1.30555e-14 0)
(1 1.58267e-14 0)
(1 1.00869e-14 0)
(1 9.07335e-15 0)
(1 -6.59173e-16 0)
(1 -4.74658e-16 0)
(1 8.25726e-15 0)
(1 8.85114e-16 0)
(1 2.34714e-15 0)
(1 3.29907e-15 0)
(1 6.42972e-15 0)
(1 4.11169e-15 0)
(1 -5.21284e-15 0)
(1 -5.85691e-15 0)
(1 -2.33017e-15 0)
(1 5.76558e-15 0)
(1 1.03934e-14 0)
(1 1.22031e-15 0)
(1 -5.03924e-15 0)
(1 -9.33282e-15 0)
(1 -1.0277e-14 0)
(1 -6.32025e-15 0)
(1 -5.74508e-15 0)
(1 -5.74865e-15 0)
(1 -3.18491e-15 0)
(1 6.4561e-15 0)
(1 1.131e-14 0)
(1 6.52368e-15 0)
(1 3.4743e-15 0)
(1 1.47797e-15 0)
(1 1.145e-15 0)
(1 -8.205e-16 0)
(1 4.79811e-16 0)
(1 1.11415e-15 0)
(1 3.4501e-15 0)
(1 -1.31394e-15 0)
(1 -1.05297e-15 0)
(1 -2.28537e-15 0)
(1 3.22748e-15 0)
(1 -4.21072e-15 0)
(1 2.38249e-15 0)
(1 -1.52201e-15 0)
(1 9.42388e-16 0)
(1 -2.75519e-16 0)
(1 -1.79543e-15 0)
(1 -1.05168e-15 0)
(1 3.42428e-15 0)
(1 -2.92482e-16 0)
(1 4.08255e-15 0)
(1 1.92013e-15 0)
(1 1.41536e-15 0)
(1 -3.87668e-15 0)
(1 4.46977e-16 0)
(1 -1.25879e-15 0)
(1 -2.18974e-15 0)
(1 7.86953e-15 0)
(1 5.17173e-15 0)
(1 5.18483e-15 0)
(1 -4.00407e-15 0)
(1 4.71826e-15 0)
(1 5.38981e-16 0)
(1 1.62044e-15 0)
(1 3.70794e-15 0)
(1 -1.41889e-16 0)
(1 2.77209e-15 0)
(1 1.59775e-15 0)
(1 2.94297e-15 0)
(1 -1.4291e-15 0)
(1 3.37039e-15 0)
(1 2.54459e-15 0)
(1 1.64477e-15 0)
(1 -2.02802e-15 0)
(1 6.4065e-17 0)
(1 -5.83213e-15 0)
(1 -6.65758e-15 0)
(1 -3.21266e-16 0)
(1 -6.38825e-15 0)
(1 -4.30645e-15 0)
(1 -3.99839e-15 0)
(1 2.83992e-15 0)
(1 5.56646e-15 0)
(1 1.05312e-16 0)
(1 -3.40471e-15 0)
(1 8.34253e-16 0)
(1 -7.67856e-15 0)
(1 -5.23586e-15 0)
(1 -6.17919e-15 0)
(1 -5.40446e-15 0)
(1 1.01074e-14 0)
(1 2.22601e-15 0)
(1 -9.66218e-16 0)
(1 5.77609e-15 0)
(1 2.37142e-15 0)
(1 5.28115e-15 0)
(1 6.62469e-15 0)
(1 -2.79813e-15 0)
(1 1.83672e-15 0)
(1 -1.61235e-15 0)
(1 4.96666e-15 0)
(1 4.12857e-15 0)
(1 1.1852e-14 0)
(1 5.43369e-15 0)
(1 3.89451e-15 0)
(1 -5.68589e-16 0)
(1 -5.91735e-15 0)
(1 -2.59669e-15 0)
(1 3.81785e-15 0)
(1 5.61098e-15 0)
(1 -1.19998e-15 0)
(1 2.72213e-15 0)
(1 7.93815e-15 0)
(1 8.13133e-15 0)
(1 1.65348e-16 0)
(1 7.07877e-15 0)
(1 1.4423e-14 0)
(1 2.43659e-15 0)
(1 3.10104e-15 0)
(1 -7.71085e-15 0)
(1 -7.16301e-15 0)
(1 -1.26227e-14 0)
(1 -6.43124e-16 0)
(1 9.84573e-16 0)
(1 4.04291e-15 0)
(1 -5.01997e-16 0)
(1 -2.59166e-15 0)
(1 -3.41071e-15 0)
(1 -2.8113e-15 0)
(1 4.08811e-15 0)
(1 2.08717e-15 0)
(1 3.6326e-15 0)
(1 -1.01116e-15 0)
(1 -1.57783e-15 0)
(1 3.1489e-15 0)
(1 6.52027e-15 0)
(1 9.99891e-16 0)
(1 3.90843e-15 0)
(1 6.58263e-15 0)
(1 3.18621e-16 0)
(1 2.26562e-15 0)
(1 -4.23394e-15 0)
(1 -3.10251e-15 0)
(1 -7.77612e-15 0)
(1 -6.53036e-16 0)
(1 2.14656e-15 0)
(1 4.99515e-15 0)
(1 1.02425e-14 0)
(1 1.12792e-14 0)
(1 1.4937e-14 0)
(1 1.15339e-14 0)
(1 5.79267e-15 0)
(1 -1.29845e-15 0)
(1 -3.77651e-15 0)
(1 -6.45074e-15 0)
(1 -6.0673e-15 0)
(1 -6.10253e-15 0)
(1 -1.03598e-15 0)
(1 5.03794e-15 0)
(1 9.27754e-15 0)
(1 3.09141e-15 0)
(1 5.02237e-15 0)
(1 5.03101e-15 0)
(1 1.87813e-15 0)
(1 -2.00602e-15 0)
(1 -6.35497e-15 0)
(1 -2.2039e-15 0)
(1 1.0765e-15 0)
(1 -9.67204e-16 0)
(1 2.3789e-15 0)
(1 1.60549e-15 0)
(1 -5.68531e-16 0)
(1 3.27559e-15 0)
(1 1.32936e-15 0)
(1 4.33542e-15 0)
(1 -3.5853e-15 0)
(1 -1.21014e-15 0)
(1 1.21153e-15 0)
(1 2.37753e-15 0)
(1 3.11971e-15 0)
(1 -4.24844e-15 0)
(1 -2.45009e-15 0)
(1 9.7136e-15 0)
(1 -2.95296e-15 0)
(1 -1.35703e-15 0)
(1 -1.2389e-15 0)
(1 2.96717e-15 0)
(1 4.16341e-15 0)
(1 -3.26877e-15 0)
(1 -1.88423e-15 0)
(1 -1.1691e-15 0)
(1 -4.53567e-15 0)
(1 -5.77411e-16 0)
(1 7.0375e-15 0)
(1 2.91359e-15 0)
(1 4.73448e-15 0)
(1 5.00169e-15 0)
(1 8.45516e-15 0)
(1 3.65965e-15 0)
(1 1.25934e-14 0)
(1 3.24524e-15 0)
(1 9.50227e-15 0)
(1 -5.68791e-15 0)
(1 -5.13332e-15 0)
(1 -5.70977e-15 0)
(1 -1.0099e-14 0)
(1 -1.70166e-15 0)
(1 1.88945e-16 0)
(1 9.81353e-16 0)
(1 1.04872e-14 0)
(1 5.54317e-15 0)
(1 7.97304e-15 0)
(1 5.08891e-15 0)
(1 -2.36046e-15 0)
(1 -1.79302e-15 0)
(1 4.55396e-15 0)
(1 6.09966e-15 0)
(1 2.99892e-15 0)
(1 -4.95705e-17 0)
(1 5.23632e-15 0)
(1 3.80303e-15 0)
(1 -1.49135e-15 0)
(1 2.02128e-15 0)
(1 -1.2813e-15 0)
(1 4.81009e-15 0)
(1 -4.94517e-15 0)
(1 -5.19676e-15 0)
(1 -7.23456e-15 0)
(1 6.24709e-15 0)
(1 8.64298e-15 0)
(1 5.42135e-15 0)
(1 1.23214e-16 0)
(1 -6.26804e-15 0)
(1 1.8912e-15 0)
(1 -2.13139e-15 0)
(1 3.18645e-15 0)
(1 5.58809e-15 0)
(1 2.54092e-15 0)
(1 1.84471e-15 0)
(1 1.05536e-15 0)
(1 -8.27298e-16 0)
(1 -6.83054e-16 0)
(1 -4.47594e-15 0)
(1 1.11154e-15 0)
(1 1.63247e-15 0)
(1 -5.3949e-15 0)
(1 -9.57912e-17 0)
(1 7.03892e-15 0)
(1 4.51747e-15 0)
(1 6.27791e-15 0)
(1 3.69404e-15 0)
(1 2.17972e-15 0)
(1 1.32983e-15 0)
(1 -1.37807e-15 0)
(1 2.90946e-15 0)
(1 5.58108e-15 0)
(1 4.19859e-15 0)
(1 1.70122e-15 0)
(1 3.73266e-15 0)
(1 4.98107e-15 0)
(1 3.01594e-15 0)
(1 2.12623e-15 0)
(1 4.17682e-15 0)
(1 3.50522e-15 0)
(1 3.00369e-15 0)
(1 2.59122e-15 0)
(1 2.4599e-15 0)
(1 5.45982e-15 0)
(1 4.39218e-15 0)
(1 5.45024e-15 0)
(1 1.24354e-15 0)
(1 2.62345e-15 0)
(1 7.95563e-15 0)
(1 1.01186e-15 0)
(1 -9.22984e-16 0)
(1 9.22148e-15 0)
(1 7.46118e-15 0)
(1 1.17753e-15 0)
(1 5.35673e-15 0)
(1 5.41742e-15 0)
(1 -1.35105e-15 0)
(1 -3.39685e-15 0)
(1 -3.92928e-15 0)
(1 1.35146e-15 0)
(1 3.5052e-15 0)
(1 -8.02174e-16 0)
(1 3.46964e-15 0)
(1 1.60733e-15 0)
(1 8.06064e-16 0)
(1 2.31409e-15 0)
(1 -1.00588e-14 0)
(1 -8.73743e-15 0)
(1 3.2078e-15 0)
(1 4.10696e-15 0)
(1 8.07402e-15 0)
(1 1.18482e-14 0)
(1 -1.49183e-15 0)
(1 1.22677e-14 0)
(1 -1.59228e-15 0)
(1 1.547e-14 0)
(1 -1.74184e-15 0)
(1 3.2682e-15 0)
(1 -9.02069e-15 0)
(1 -7.4033e-15 0)
(1 -1.14651e-14 0)
(1 6.77024e-16 0)
(1 8.47401e-15 0)
(1 6.38391e-15 0)
(1 3.7209e-15 0)
(1 2.70756e-15 0)
(1 7.07837e-15 0)
(1 3.32415e-15 0)
(1 -3.73475e-15 0)
(1 -6.04414e-15 0)
(1 -4.47754e-15 0)
(1 3.76435e-15 0)
(1 -9.68927e-15 0)
(1 1.38186e-14 0)
(1 1.4929e-14 0)
(1 1.0019e-14 0)
(1 -1.04545e-14 0)
(1 -3.02259e-15 0)
(1 -2.44721e-15 0)
(1 7.61706e-16 0)
(1 4.46844e-15 0)
(1 -1.35523e-15 0)
(1 -1.58492e-15 0)
(1 1.96115e-16 0)
(1 5.65532e-15 0)
(1 -5.72946e-16 0)
(1 4.89479e-15 0)
(1 7.95082e-16 0)
(1 6.53898e-15 0)
(1 4.87674e-15 0)
(1 8.31582e-15 0)
(1 7.08404e-16 0)
(1 5.49945e-15 0)
(1 1.46162e-15 0)
(1 -2.95316e-15 0)
(1 -2.53624e-15 0)
(1 -2.48852e-15 0)
(1 -1.20575e-15 0)
(1 9.02063e-17 0)
(1 -1.11578e-17 0)
(1 3.26796e-15 0)
(1 1.61973e-15 0)
(1 4.16046e-15 0)
(1 4.20717e-15 0)
(1 3.82601e-15 0)
(1 3.28491e-15 0)
(1 7.60154e-15 0)
(1 7.7754e-15 0)
(1 5.86474e-15 0)
(1 4.76111e-15 0)
(1 6.91615e-15 0)
(1 6.89061e-15 0)
(1 3.27914e-15 0)
(1 2.00905e-15 0)
(1 -1.23036e-15 0)
(1 -4.90161e-15 0)
(1 2.08113e-15 0)
(1 -2.43478e-15 0)
(1 1.75039e-16 0)
(1 3.29566e-15 0)
(1 3.43631e-15 0)
(1 7.02479e-15 0)
(1 5.79314e-15 0)
(1 2.17784e-16 0)
(1 2.33602e-15 0)
(1 -1.31845e-15 0)
(1 2.28716e-15 0)
(1 4.40484e-15 0)
(1 6.42329e-15 0)
(1 3.79037e-15 0)
(1 3.72785e-15 0)
(1 1.03993e-14 0)
(1 2.70862e-15 0)
(1 5.80955e-15 0)
(1 5.05086e-15 0)
(1 1.12336e-14 0)
(1 3.21412e-16 0)
(1 -1.9718e-15 0)
(1 -1.61402e-15 0)
(1 -3.14393e-15 0)
(1 -1.26137e-15 0)
(1 -1.23781e-15 0)
(1 -4.86186e-15 0)
(1 8.20095e-15 0)
(1 -2.95581e-15 0)
(1 -2.68553e-15 0)
(1 -2.23732e-16 0)
(1 3.37046e-15 0)
(1 -1.78996e-16 0)
(1 2.68018e-15 0)
(1 4.94893e-15 0)
(1 4.92915e-15 0)
(1 4.21404e-15 0)
(1 1.50493e-14 0)
(1 3.14222e-15 0)
(1 -9.32668e-16 0)
(1 -4.66123e-15 0)
(1 4.76829e-15 0)
(1 6.28042e-15 0)
(1 -3.00096e-15 0)
(1 -1.5794e-15 0)
(1 3.33066e-15 0)
(1 1.01563e-15 0)
(1 4.87852e-15 0)
(1 -1.38716e-15 0)
(1 -3.27013e-15 0)
(1 -3.92149e-15 0)
(1 -1.11679e-14 0)
(1 -1.00069e-14 0)
(1 4.82559e-16 0)
(1 3.15616e-15 0)
(1 6.09837e-15 0)
(1 -8.49749e-16 0)
(1 4.66543e-15 0)
(1 5.36873e-15 0)
(1 6.683e-15 0)
(1 -6.75182e-15 0)
(1 2.38543e-15 0)
(1 1.26512e-15 0)
(1 8.93121e-15 0)
(1 7.91872e-15 0)
(1 8.32881e-15 0)
(1 6.50796e-16 0)
(1 -8.801e-16 0)
(1 -5.58542e-15 0)
(1 -6.0658e-15 0)
(1 1.70625e-15 0)
(1 6.09633e-15 0)
(1 8.63688e-15 0)
(1 6.53845e-15 0)
(1 5.87499e-15 0)
(1 5.64961e-15 0)
(1 -5.0891e-15 0)
(1 4.66912e-15 0)
(1 2.112e-15 0)
(1 9.70477e-17 0)
(1 3.29265e-17 0)
(1 -4.58016e-15 0)
(1 -5.84187e-15 0)
(1 -5.72083e-15 0)
(1 -4.12391e-15 0)
(1 8.76427e-15 0)
(1 1.58582e-14 0)
(1 1.0846e-14 0)
(1 1.50679e-14 0)
(1 2.0188e-14 0)
(1 1.38078e-14 0)
(1 1.22394e-14 0)
(1 8.33533e-15 0)
(1 8.69308e-15 0)
(1 3.82997e-16 0)
(1 -2.97928e-15 0)
(1 -1.62692e-15 0)
(1 -5.45663e-16 0)
(1 -1.5486e-15 0)
(1 -3.12446e-16 0)
(1 8.04412e-15 0)
(1 7.3284e-15 0)
(1 5.4346e-15 0)
(1 4.60825e-15 0)
(1 -1.5717e-15 0)
(1 -3.04986e-15 0)
(1 -6.53202e-15 0)
(1 -4.83082e-15 0)
(1 1.99688e-15 0)
(1 2.67588e-16 0)
(1 6.19903e-15 0)
(1 6.3127e-15 0)
(1 1.0181e-14 0)
(1 1.33963e-14 0)
(1 1.44731e-14 0)
(1 1.00117e-14 0)
(1 9.89472e-15 0)
(1 1.10228e-14 0)
(1 1.71735e-14 0)
(1 2.17466e-14 0)
(1 1.01141e-15 0)
(1 -7.37479e-18 0)
(1 5.20281e-15 0)
(1 3.72136e-15 0)
(1 -4.18727e-15 0)
(1 -1.40939e-15 0)
(1 -1.55249e-15 0)
(1 5.57708e-15 0)
(1 5.5372e-16 0)
(1 -8.26808e-15 0)
(1 1.89525e-15 0)
(1 -1.61772e-15 0)
(1 4.10872e-15 0)
(1 1.81885e-15 0)
(1 7.46379e-15 0)
(1 4.59854e-15 0)
(1 9.01719e-15 0)
(1 1.74247e-15 0)
(1 2.13314e-15 0)
(1 -1.04149e-14 0)
(1 -3.9581e-15 0)
(1 -3.24676e-15 0)
(1 4.07655e-15 0)
(1 -7.87038e-16 0)
(1 1.89927e-15 0)
(1 9.38891e-16 0)
(1 2.17192e-15 0)
(1 7.70625e-16 0)
(1 1.29143e-15 0)
(1 3.61466e-15 0)
(1 -1.74483e-15 0)
(1 -6.06277e-15 0)
(1 -3.84192e-15 0)
(1 3.27551e-16 0)
(1 -3.34296e-16 0)
(1 -6.31872e-15 0)
(1 7.01022e-15 0)
(1 -6.44339e-16 0)
(1 -8.07245e-16 0)
(1 3.02412e-15 0)
(1 1.06356e-14 0)
(1 7.76177e-15 0)
(1 5.60989e-15 0)
(1 7.30824e-15 0)
(1 -4.94232e-15 0)
(1 -2.52564e-15 0)
(1 -6.73225e-15 0)
(1 2.99494e-16 0)
(1 1.91281e-15 0)
(1 4.94567e-15 0)
(1 5.04887e-15 0)
(1 5.28769e-15 0)
(1 5.63581e-15 0)
(1 7.59254e-15 0)
(1 3.11376e-15 0)
(1 8.88043e-15 0)
(1 1.10197e-15 0)
(1 2.30598e-15 0)
(1 4.91013e-15 0)
(1 5.43569e-15 0)
(1 6.6579e-15 0)
(1 2.79036e-15 0)
(1 4.70947e-15 0)
(1 -9.17409e-16 0)
(1 -3.97834e-15 0)
(1 4.25381e-15 0)
(1 1.35428e-14 0)
(1 9.71667e-15 0)
(1 1.56102e-14 0)
(1 1.22844e-14 0)
(1 5.72941e-15 0)
(1 6.64824e-15 0)
(1 1.30782e-15 0)
(1 4.76222e-15 0)
(1 1.07054e-15 0)
(1 3.34923e-15 0)
(1 7.12401e-15 0)
(1 4.01942e-15 0)
(1 6.873e-15 0)
(1 -8.47277e-16 0)
(1 1.4057e-16 0)
(1 -2.07502e-15 0)
(1 -4.05107e-16 0)
(1 1.23251e-15 0)
(1 4.78121e-15 0)
(1 3.44517e-15 0)
(1 3.50917e-15 0)
(1 4.00476e-15 0)
(1 2.96286e-15 0)
(1 5.603e-15 0)
(1 6.62325e-15 0)
(1 3.87674e-15 0)
(1 7.14029e-15 0)
(1 5.63201e-15 0)
(1 1.57683e-14 0)
(1 8.67937e-15 0)
(1 1.78181e-14 0)
(1 9.80029e-15 0)
(1 2.2647e-14 0)
(1 2.10895e-14 0)
(1 -4.60097e-16 0)
(1 -2.82671e-15 0)
(1 1.65068e-15 0)
(1 4.58218e-15 0)
(1 -1.30741e-15 0)
(1 -5.69099e-15 0)
(1 2.24328e-15 0)
(1 -1.08132e-14 0)
(1 9.61498e-15 0)
(1 -5.68334e-15 0)
(1 -5.61222e-15 0)
(1 -5.22443e-15 0)
(1 -1.78553e-15 0)
(1 8.79901e-15 0)
(1 1.07892e-14 0)
(1 1.13977e-14 0)
(1 1.48381e-14 0)
(1 -4.76231e-15 0)
(1 -1.46761e-16 0)
(1 -8.07076e-16 0)
(1 1.66718e-15 0)
(1 -7.17926e-15 0)
(1 -1.16958e-14 0)
(1 -6.34375e-15 0)
(1 -8.97861e-15 0)
(1 3.50288e-15 0)
(1 1.67279e-15 0)
(1 4.29403e-15 0)
(1 9.96305e-15 0)
(1 4.50808e-15 0)
(1 -4.03212e-15 0)
(1 -4.5672e-15 0)
(1 -2.79768e-15 0)
(1 -6.21539e-15 0)
(1 -4.87711e-16 0)
(1 -7.90472e-16 0)
(1 9.35172e-15 0)
(1 5.96448e-15 0)
(1 4.08741e-15 0)
(1 -6.78076e-15 0)
(1 1.26512e-14 0)
(1 9.79443e-15 0)
(1 7.57244e-15 0)
(1 3.62732e-15 0)
(1 1.81099e-15 0)
(1 -4.41347e-15 0)
(1 -4.30118e-15 0)
(1 3.24127e-16 0)
(1 3.93305e-15 0)
(1 3.01626e-16 0)
(1 -2.56282e-15 0)
(1 1.17245e-15 0)
(1 1.22916e-14 0)
(1 7.15283e-15 0)
(1 7.51119e-15 0)
(1 7.48906e-16 0)
(1 8.75485e-15 0)
(1 -3.65862e-15 0)
(1 6.83576e-15 0)
(1 8.62194e-16 0)
(1 1.01947e-14 0)
(1 -4.30303e-16 0)
(1 5.70303e-16 0)
(1 -1.51381e-15 0)
(1 6.6197e-15 0)
(1 1.1138e-14 0)
(1 1.01822e-14 0)
(1 8.96873e-15 0)
(1 9.07175e-15 0)
(1 1.98442e-15 0)
(1 6.89714e-15 0)
(1 5.25255e-15 0)
(1 4.05979e-15 0)
(1 -8.24028e-16 0)
(1 -3.77552e-15 0)
(1 5.40637e-15 0)
(1 1.44284e-14 0)
(1 1.72628e-14 0)
(1 6.60807e-15 0)
(1 4.98722e-15 0)
(1 1.36626e-15 0)
(1 -2.23532e-15 0)
(1 2.27685e-16 0)
(1 -2.22739e-15 0)
(1 5.24838e-15 0)
(1 -1.46575e-15 0)
(1 4.94951e-15 0)
(1 3.37604e-15 0)
(1 6.33734e-16 0)
(1 3.94372e-15 0)
(1 6.44265e-15 0)
(1 6.05805e-15 0)
(1 4.85899e-15 0)
(1 5.28591e-15 0)
(1 7.28745e-15 0)
(1 4.86826e-15 0)
(1 6.98609e-15 0)
(1 1.51534e-14 0)
(1 1.93419e-14 0)
(1 1.44252e-14 0)
(1 2.91334e-15 0)
(1 -5.27817e-15 0)
(1 1.82724e-15 0)
(1 6.93564e-16 0)
(1 1.78954e-15 0)
(1 -4.43975e-15 0)
(1 -6.49417e-15 0)
(1 -3.34616e-15 0)
(1 -4.30639e-15 0)
(1 3.79354e-15 0)
(1 4.05359e-15 0)
(1 1.07277e-14 0)
(1 1.36802e-15 0)
(1 2.64661e-15 0)
(1 8.1526e-16 0)
(1 -4.58584e-16 0)
(1 9.8979e-15 0)
(1 1.30663e-15 0)
(1 -2.22286e-15 0)
(1 -4.82233e-15 0)
(1 -2.87055e-15 0)
(1 -6.25639e-15 0)
(1 -1.06553e-14 0)
(1 -4.35588e-15 0)
(1 5.47973e-15 0)
(1 7.8845e-15 0)
(1 7.8525e-15 0)
(1 7.88641e-15 0)
(1 3.23419e-15 0)
(1 2.82144e-17 0)
(1 2.14367e-15 0)
(1 -9.96947e-16 0)
(1 -3.54373e-15 0)
(1 -1.22735e-14 0)
(1 -4.03575e-15 0)
(1 1.00276e-15 0)
(1 6.97409e-15 0)
(1 -4.57392e-15 0)
(1 -5.41529e-16 0)
(1 -2.93197e-15 0)
(1 9.68553e-15 0)
(1 8.65293e-15 0)
(1 2.50845e-15 0)
(1 -5.12579e-15 0)
(1 1.33216e-15 0)
(1 5.88968e-15 0)
(1 6.54792e-15 0)
(1 1.98287e-15 0)
(1 3.35891e-15 0)
(1 3.0577e-15 0)
(1 -2.49431e-15 0)
(1 3.69291e-15 0)
(1 9.77299e-15 0)
(1 1.27379e-14 0)
(1 8.76799e-15 0)
(1 -2.37405e-15 0)
(1 -5.58391e-16 0)
(1 3.50507e-15 0)
(1 2.74921e-15 0)
(1 2.42221e-15 0)
(1 4.61201e-15 0)
(1 5.34295e-15 0)
(1 2.17839e-15 0)
(1 -9.96271e-16 0)
(1 8.04723e-15 0)
(1 7.05761e-15 0)
(1 7.52976e-15 0)
(1 8.49546e-15 0)
(1 4.83204e-16 0)
(1 -1.36717e-15 0)
(1 5.31844e-15 0)
(1 8.02165e-15 0)
(1 5.82801e-15 0)
(1 1.69761e-15 0)
(1 4.876e-15 0)
(1 4.58877e-15 0)
(1 6.94239e-15 0)
(1 5.82778e-15 0)
(1 1.61212e-15 0)
(1 3.37875e-15 0)
(1 4.97248e-15 0)
(1 9.23189e-15 0)
(1 9.03867e-15 0)
(1 4.58431e-15 0)
(1 4.7317e-15 0)
(1 -4.60319e-15 0)
(1 -4.22896e-15 0)
(1 1.2529e-15 0)
(1 3.87679e-16 0)
(1 7.30555e-15 0)
(1 2.75028e-15 0)
(1 1.10157e-14 0)
(1 1.10632e-14 0)
(1 1.4138e-14 0)
(1 3.54384e-15 0)
(1 1.22614e-14 0)
(1 7.74991e-15 0)
(1 1.43288e-14 0)
(1 1.04807e-14 0)
(1 6.85114e-15 0)
(1 3.22433e-15 0)
(1 4.0702e-15 0)
(1 -5.89667e-15 0)
(1 -2.56547e-15 0)
(1 1.40654e-16 0)
(1 -1.61834e-15 0)
(1 -3.03427e-15 0)
(1 5.84969e-15 0)
(1 -2.1621e-15 0)
(1 1.22909e-14 0)
(1 1.19169e-14 0)
(1 1.0877e-14 0)
(1 -7.63349e-16 0)
(1 -5.32668e-16 0)
(1 -3.28203e-15 0)
(1 -8.49064e-15 0)
(1 -6.43148e-15 0)
(1 7.60382e-15 0)
(1 5.25195e-15 0)
(1 2.30008e-15 0)
(1 -5.92317e-15 0)
(1 -4.64469e-15 0)
(1 -1.35748e-14 0)
(1 -1.66579e-14 0)
(1 -1.74685e-15 0)
(1 2.18964e-15 0)
(1 1.5117e-14 0)
(1 8.16025e-15 0)
(1 -5.70096e-17 0)
(1 -3.37044e-15 0)
(1 -2.79485e-15 0)
(1 -3.30918e-15 0)
(1 -8.04771e-15 0)
(1 -1.42263e-15 0)
(1 1.54331e-15 0)
(1 6.7022e-15 0)
(1 1.10166e-14 0)
(1 -2.57801e-15 0)
(1 4.77951e-15 0)
(1 7.16174e-15 0)
(1 -1.53428e-15 0)
(1 -3.77175e-15 0)
(1 -1.61316e-15 0)
(1 -8.31641e-16 0)
(1 -6.11328e-15 0)
(1 5.1478e-15 0)
(1 1.38619e-14 0)
(1 9.72826e-15 0)
(1 -1.02989e-15 0)
(1 4.0069e-15 0)
(1 1.29043e-15 0)
(1 3.54056e-16 0)
(1 2.68006e-15 0)
(1 6.09403e-15 0)
(1 4.51041e-16 0)
(1 3.1416e-15 0)
(1 -4.7241e-16 0)
(1 3.87933e-15 0)
(1 -1.03295e-15 0)
(1 1.05973e-15 0)
(1 -1.3481e-15 0)
(1 8.30096e-15 0)
(1 1.17742e-14 0)
(1 1.20803e-14 0)
(1 9.77001e-15 0)
(1 7.08244e-15 0)
(1 1.38586e-15 0)
(1 4.58649e-15 0)
(1 -1.09099e-16 0)
(1 -9.04912e-16 0)
(1 1.01152e-18 0)
(1 6.13413e-15 0)
(1 3.45969e-15 0)
(1 8.29422e-15 0)
(1 7.7241e-15 0)
(1 1.84077e-15 0)
(1 -1.5881e-15 0)
(1 -2.83625e-15 0)
(1 2.11106e-15 0)
(1 1.93526e-15 0)
(1 4.87325e-15 0)
(1 9.16915e-15 0)
(1 4.447e-15 0)
(1 1.00419e-14 0)
(1 3.12416e-15 0)
(1 5.23886e-15 0)
(1 4.48796e-16 0)
(1 2.89515e-15 0)
(1 -1.48483e-15 0)
(1 3.82129e-15 0)
(1 3.05487e-15 0)
(1 1.86919e-15 0)
(1 2.28505e-15 0)
(1 5.4602e-15 0)
(1 4.19304e-15 0)
(1 9.3979e-15 0)
(1 1.25936e-14 0)
(1 1.15158e-14 0)
(1 7.84208e-15 0)
(1 7.05346e-15 0)
(1 -4.50691e-15 0)
(1 8.24409e-15 0)
(1 -2.27673e-15 0)
(1 -2.28477e-15 0)
(1 -4.05142e-15 0)
(1 -3.71062e-15 0)
(1 -1.24663e-15 0)
(1 5.92711e-15 0)
(1 1.58303e-14 0)
(1 1.7437e-14 0)
(1 7.70037e-15 0)
(1 -1.21953e-15 0)
(1 -1.58943e-15 0)
(1 -4.59089e-15 0)
(1 -2.12965e-15 0)
(1 -2.72301e-15 0)
(1 -6.6303e-15 0)
(1 -7.48735e-16 0)
(1 -2.49769e-15 0)
(1 -6.42252e-16 0)
(1 -2.71132e-15 0)
(1 -3.84049e-15 0)
(1 -1.5673e-15 0)
(1 -8.93366e-16 0)
(1 -3.38501e-15 0)
(1 -2.13502e-15 0)
(1 -2.09839e-15 0)
(1 -1.83076e-15 0)
(1 -1.48781e-15 0)
(1 -1.38066e-15 0)
(1 -3.04858e-15 0)
(1 -8.29373e-15 0)
(1 -4.05771e-15 0)
(1 -2.85083e-15 0)
(1 5.57639e-15 0)
(1 1.46171e-14 0)
(1 7.34471e-15 0)
(1 1.24451e-14 0)
(1 1.27053e-15 0)
(1 4.05916e-15 0)
(1 -2.4971e-15 0)
(1 -3.3657e-15 0)
(1 -4.68699e-16 0)
(1 -7.21975e-16 0)
(1 4.44095e-15 0)
(1 4.33191e-15 0)
(1 4.52346e-15 0)
(1 3.48496e-15 0)
(1 3.02467e-15 0)
(1 2.40814e-16 0)
(1 -3.39679e-15 0)
(1 -3.74581e-15 0)
(1 1.46038e-15 0)
(1 -5.51072e-16 0)
(1 -2.5937e-15 0)
(1 4.11309e-15 0)
(1 1.46742e-14 0)
(1 6.71029e-15 0)
(1 3.90968e-15 0)
(1 2.63506e-15 0)
(1 8.7825e-15 0)
(1 3.34742e-15 0)
(1 2.74358e-15 0)
(1 5.07231e-15 0)
(1 6.86463e-15 0)
(1 1.56111e-14 0)
(1 5.4485e-15 0)
(1 6.0966e-15 0)
(1 3.22503e-16 0)
(1 2.35452e-15 0)
(1 -5.45585e-16 0)
(1 4.77718e-15 0)
(1 4.38823e-15 0)
(1 1.20974e-14 0)
(1 3.41679e-15 0)
(1 6.43649e-15 0)
(1 7.93775e-15 0)
(1 8.55965e-15 0)
(1 1.21511e-14 0)
(1 6.55472e-15 0)
(1 3.56175e-15 0)
(1 4.00796e-16 0)
(1 -1.07147e-15 0)
(1 5.50618e-15 0)
(1 2.84513e-15 0)
(1 4.25666e-15 0)
(1 3.31462e-15 0)
(1 3.93195e-15 0)
(1 4.90818e-17 0)
(1 6.95337e-15 0)
(1 6.84473e-15 0)
(1 3.93954e-15 0)
(1 -9.40812e-17 0)
(1 3.23189e-16 0)
(1 3.75717e-15 0)
(1 2.35985e-15 0)
(1 1.09716e-14 0)
(1 1.63325e-14 0)
(1 1.49837e-14 0)
(1 1.30396e-14 0)
(1 -8.93601e-16 0)
(1 4.78407e-15 0)
(1 1.26524e-15 0)
(1 -3.97149e-16 0)
(1 -2.14399e-15 0)
(1 -3.56045e-15 0)
(1 -3.38444e-15 0)
(1 -7.06226e-15 0)
(1 5.8461e-15 0)
(1 9.50135e-15 0)
(1 9.84444e-15 0)
(1 6.89535e-15 0)
(1 6.09694e-15 0)
(1 -5.45647e-15 0)
(1 -6.56015e-15 0)
(1 -6.37889e-15 0)
(1 -9.50264e-15 0)
(1 -1.00395e-14 0)
(1 -5.70079e-15 0)
(1 -3.14036e-15 0)
(1 -6.61969e-16 0)
(1 -3.3363e-15 0)
(1 3.67774e-15 0)
(1 2.50801e-14 0)
(1 1.71986e-14 0)
(1 5.89621e-15 0)
(1 -5.47052e-15 0)
(1 -7.37761e-15 0)
(1 -8.146e-15 0)
(1 -6.1282e-15 0)
(1 -8.19306e-15 0)
(1 -2.36291e-15 0)
(1 -7.17575e-16 0)
(1 -9.2583e-15 0)
(1 -8.17265e-16 0)
(1 4.92597e-15 0)
(1 7.77398e-15 0)
(1 1.02313e-14 0)
(1 4.77527e-16 0)
(1 2.47473e-15 0)
(1 4.52716e-16 0)
(1 2.94569e-15 0)
(1 2.35249e-15 0)
(1 -3.49074e-15 0)
(1 4.79774e-15 0)
(1 3.86812e-15 0)
(1 2.46268e-15 0)
(1 5.64578e-16 0)
(1 -7.24182e-15 0)
(1 -2.31304e-15 0)
(1 6.1079e-15 0)
(1 8.60243e-15 0)
(1 1.84705e-15 0)
(1 9.26851e-17 0)
(1 5.76196e-15 0)
(1 2.94806e-15 0)
(1 6.59974e-15 0)
(1 7.77887e-15 0)
(1 3.57952e-15 0)
(1 2.73846e-15 0)
(1 5.6522e-15 0)
(1 5.59804e-15 0)
(1 7.41293e-15 0)
(1 -4.07106e-16 0)
(1 8.37822e-15 0)
(1 8.51095e-15 0)
(1 1.35107e-14 0)
(1 1.03008e-14 0)
(1 8.16251e-15 0)
(1 1.10055e-14 0)
(1 8.72639e-15 0)
(1 7.44488e-15 0)
(1 2.67431e-15 0)
(1 3.26122e-15 0)
(1 4.64234e-15 0)
(1 9.01633e-15 0)
(1 8.14002e-15 0)
(1 3.92492e-15 0)
(1 4.1394e-15 0)
(1 6.54405e-15 0)
(1 9.96759e-15 0)
(1 2.18089e-15 0)
(1 5.72269e-16 0)
(1 1.00681e-15 0)
(1 8.073e-15 0)
(1 3.85669e-15 0)
(1 -2.61933e-16 0)
(1 -2.42452e-15 0)
(1 2.49104e-15 0)
(1 -1.79427e-15 0)
(1 1.87246e-15 0)
(1 1.65464e-15 0)
(1 4.61029e-15 0)
(1 6.94464e-15 0)
(1 1.24067e-14 0)
(1 4.48614e-15 0)
(1 6.9445e-15 0)
(1 1.27777e-14 0)
(1 1.47796e-14 0)
(1 1.50861e-14 0)
(1 -1.85118e-15 0)
(1 1.96287e-15 0)
(1 -8.02236e-15 0)
(1 4.91692e-15 0)
(1 -9.19709e-16 0)
(1 5.28451e-15 0)
(1 9.06939e-15 0)
(1 7.21037e-15 0)
(1 5.57205e-15 0)
(1 1.0663e-17 0)
(1 2.51068e-15 0)
(1 -4.43003e-15 0)
(1 1.08427e-15 0)
(1 1.63728e-15 0)
(1 -4.33312e-15 0)
(1 -3.98136e-15 0)
(1 -8.42758e-16 0)
(1 -6.56575e-15 0)
(1 -3.32386e-15 0)
(1 -9.18373e-15 0)
(1 3.01927e-16 0)
(1 1.69527e-15 0)
(1 -2.23473e-15 0)
(1 -8.68663e-15 0)
(1 -6.12175e-16 0)
(1 9.69624e-16 0)
(1 -3.42904e-15 0)
(1 2.80979e-15 0)
(1 -1.09406e-14 0)
(1 -7.02586e-15 0)
(1 -1.21141e-14 0)
(1 4.23864e-15 0)
(1 -4.51055e-15 0)
(1 8.80142e-15 0)
(1 6.92097e-15 0)
(1 6.03896e-15 0)
(1 9.33381e-15 0)
(1 -7.79471e-16 0)
(1 3.36197e-15 0)
(1 -2.18824e-16 0)
(1 -2.43457e-15 0)
(1 -1.75096e-16 0)
(1 6.30107e-15 0)
(1 6.50943e-15 0)
(1 -7.52587e-16 0)
(1 -8.05434e-15 0)
(1 4.64585e-15 0)
(1 4.75123e-15 0)
(1 -2.87468e-15 0)
(1 -8.07801e-15 0)
(1 6.81754e-15 0)
(1 7.32583e-15 0)
(1 4.72824e-15 0)
(1 -2.56488e-15 0)
(1 4.42374e-15 0)
(1 3.30623e-15 0)
(1 7.82127e-15 0)
(1 2.20738e-15 0)
(1 2.88755e-15 0)
(1 7.36264e-16 0)
(1 -3.68146e-15 0)
(1 3.37328e-15 0)
(1 1.6532e-15 0)
(1 9.3459e-15 0)
(1 7.70925e-15 0)
(1 -5.82117e-15 0)
(1 3.02142e-15 0)
(1 7.19138e-16 0)
(1 1.34329e-14 0)
(1 1.31379e-14 0)
(1 7.96535e-15 0)
(1 -1.36868e-15 0)
(1 6.43273e-15 0)
(1 1.85269e-15 0)
(1 6.93015e-15 0)
(1 7.94987e-15 0)
(1 4.65614e-15 0)
(1 7.95995e-15 0)
(1 1.05865e-15 0)
(1 1.20033e-14 0)
(1 4.07551e-15 0)
(1 8.15711e-15 0)
(1 2.32181e-15 0)
(1 1.22817e-16 0)
(1 3.41976e-15 0)
(1 1.36977e-15 0)
(1 -1.16604e-15 0)
(1 -1.61946e-15 0)
(1 4.0282e-15 0)
(1 -2.27957e-15 0)
(1 -2.1932e-16 0)
(1 5.67498e-15 0)
(1 3.35224e-15 0)
(1 4.47831e-15 0)