/*--------------------------------*- C++ -*----------------------------------*\
| =========                 |                                                 |
| \\      /  F ield         | OpenFOAM: The Open Source CFD Toolbox           |
|  \\    /   O peration     | Version:  v2012                                 |
|   \\  /    A nd           | Website:  www.openfoam.com                      |
|    \\/     M anipulation  |                                                 |
\*---------------------------------------------------------------------------*/
FoamFile
{
    version     2.0;
    format      ascii;
    class       volScalarField;
    location    "0";
    object      pRec;
}
// * * * * * * * * * * * * * * * * * * * * * * * * * * * * * * * * * * * * * //

dimensions      [0 2 -2 0 0 0 0];


internalField   nonuniform List<scalar> 
4000
(
-7.11511e-13
-7.0536e-13
-7.06858e-13
-7.10561e-13
-7.08035e-13
-7.08448e-13
-7.07326e-13
-7.0198e-13
-6.90543e-13
-6.8708e-13
-6.89029e-13
-6.83131e-13
-6.69828e-13
-6.53908e-13
-6.40063e-13
-6.32989e-13
-6.2758e-13
-6.24935e-13
-6.17316e-13
-6.01793e-13
-5.90201e-13
-5.83095e-13
-5.77489e-13
-5.71196e-13
-5.60574e-13
-5.49651e-13
-5.48723e-13
-5.42502e-13
-5.35941e-13
-5.25146e-13
-5.07449e-13
-5.00915e-13
-4.99843e-13
-4.99062e-13
-4.94634e-13
-4.93043e-13
-4.84394e-13
-4.64077e-13
-4.45517e-13
-4.42707e-13
-4.44756e-13
-4.43889e-13
-4.45236e-13
-4.38606e-13
-4.25908e-13
-4.16945e-13
-4.08359e-13
-3.98845e-13
-3.88856e-13
-3.80775e-13
-3.70928e-13
-3.62253e-13
-3.54383e-13
-3.44722e-13
-3.35803e-13
-3.22391e-13
-3.15927e-13
-3.12788e-13
-3.10293e-13
-3.07493e-13
-2.99247e-13
-2.91725e-13
-2.81092e-13
-2.68254e-13
-2.59877e-13
-2.52508e-13
-2.48512e-13
-2.40735e-13
-2.2973e-13
-2.21786e-13
-2.14394e-13
-2.08485e-13
-1.95432e-13
-1.88541e-13
-1.8822e-13
-1.84028e-13
-1.81629e-13
-1.75605e-13
-1.67085e-13
-1.54096e-13
-1.40726e-13
-1.35235e-13
-1.26643e-13
-1.22833e-13
-1.19572e-13
-1.13836e-13
-1.03501e-13
-9.50727e-14
-9.11914e-14
-8.7433e-14
-8.08337e-14
-7.43656e-14
-6.63694e-14
-5.93982e-14
-5.03465e-14
-4.07212e-14
-3.16255e-14
-2.27738e-14
-1.32072e-14
-3.38494e-15
-7.0768e-13
-7.06608e-13
-7.10222e-13
-7.10119e-13
-7.10539e-13
-7.06867e-13
-7.04068e-13
-7.01406e-13
-6.95928e-13
-6.91169e-13
-6.85027e-13
-6.78769e-13
-6.67791e-13
-6.5529e-13
-6.43436e-13
-6.3639e-13
-6.31142e-13
-6.23415e-13
-6.13229e-13
-6.05304e-13
-5.94663e-13
-5.82077e-13
-5.73248e-13
-5.67422e-13
-5.58268e-13
-5.52141e-13
-5.49707e-13
-5.43404e-13
-5.34554e-13
-5.20778e-13
-5.11201e-13
-5.04685e-13
-4.99153e-13
-4.95668e-13
-4.91879e-13
-4.88988e-13
-4.81927e-13
-4.686e-13
-4.5335e-13
-4.474e-13
-4.44531e-13
-4.42703e-13
-4.41454e-13
-4.36257e-13
-4.28195e-13
-4.17328e-13
-4.06658e-13
-3.98664e-13
-3.89405e-13
-3.78e-13
-3.69747e-13
-3.61325e-13
-3.54144e-13
-3.45724e-13
-3.36895e-13
-3.2545e-13
-3.15903e-13
-3.10893e-13
-3.08475e-13
-3.05979e-13
-3.01656e-13
-2.91715e-13
-2.82605e-13
-2.70167e-13
-2.61444e-13
-2.51943e-13
-2.45895e-13
-2.39909e-13
-2.31856e-13
-2.23361e-13
-2.1499e-13
-2.08379e-13
-2.01008e-13
-1.91688e-13
-1.87855e-13
-1.80762e-13
-1.80147e-13
-1.73212e-13
-1.63848e-13
-1.51806e-13
-1.41922e-13
-1.36895e-13
-1.30786e-13
-1.25729e-13
-1.1703e-13
-1.11119e-13
-1.01646e-13
-9.2923e-14
-8.93629e-14
-8.58697e-14
-8.27743e-14
-7.70581e-14
-7.04978e-14
-5.76144e-14
-4.87075e-14
-4.14779e-14
-3.13147e-14
-2.30179e-14
-1.52375e-14
-5.32433e-15
-7.07425e-13
-7.06396e-13
-7.08705e-13
-7.12433e-13
-7.13553e-13
-7.08457e-13
-7.03225e-13
-7.00277e-13
-6.94358e-13
-6.90806e-13
-6.85041e-13
-6.77997e-13
-6.67628e-13
-6.56528e-13
-6.45355e-13
-6.36727e-13
-6.30982e-13
-6.23165e-13
-6.13639e-13
-6.04328e-13
-5.93081e-13
-5.83737e-13
-5.74453e-13
-5.6828e-13
-5.60276e-13
-5.54642e-13
-5.50638e-13
-5.42752e-13
-5.32195e-13
-5.18481e-13
-5.11993e-13
-5.05143e-13
-4.99482e-13
-4.97038e-13
-4.93696e-13
-4.90438e-13
-4.80786e-13
-4.7063e-13
-4.59057e-13
-4.47645e-13
-4.43607e-13
-4.39019e-13
-4.40361e-13
-4.37013e-13
-4.29757e-13
-4.17935e-13
-4.05687e-13
-3.95688e-13
-3.89589e-13
-3.84376e-13
-3.72421e-13
-3.61434e-13
-3.51666e-13
-3.42473e-13
-3.35269e-13
-3.2673e-13
-3.15817e-13
-3.13174e-13
-3.13909e-13
-3.0709e-13
-2.99142e-13
-2.86292e-13
-2.7737e-13
-2.71693e-13
-2.64607e-13
-2.56048e-13
-2.49051e-13
-2.38417e-13
-2.30523e-13
-2.20296e-13
-2.11657e-13
-2.05305e-13
-1.96897e-13
-1.91273e-13
-1.87397e-13
-1.83667e-13
-1.78501e-13
-1.73328e-13
-1.63083e-13
-1.52307e-13
-1.47766e-13
-1.39346e-13
-1.26731e-13
-1.2159e-13
-1.16392e-13
-1.1347e-13
-1.07012e-13
-9.63757e-14
-8.92643e-14
-8.35592e-14
-8.02079e-14
-7.61741e-14
-6.85059e-14
-5.9255e-14
-4.77774e-14
-3.84184e-14
-3.17784e-14
-2.41694e-14
-1.92989e-14
-6.08813e-15
-7.08592e-13
-7.10059e-13
-7.11101e-13
-7.06974e-13
-7.11684e-13
-7.05097e-13
-7.03156e-13
-7.00514e-13
-6.98755e-13
-6.93527e-13
-6.82952e-13
-6.72744e-13
-6.64135e-13
-6.57869e-13
-6.55085e-13
-6.44029e-13
-6.28814e-13
-6.19175e-13
-6.12888e-13
-6.03111e-13
-5.93917e-13
-5.86108e-13
-5.75451e-13
-5.61661e-13
-5.54874e-13
-5.52086e-13
-5.4982e-13
-5.4456e-13
-5.31763e-13
-5.23019e-13
-5.16496e-13
-5.0908e-13
-5.00306e-13
-4.9469e-13
-4.89031e-13
-4.89756e-13
-4.80666e-13
-4.68936e-13
-4.60236e-13
-4.50802e-13
-4.47417e-13
-4.45002e-13
-4.40305e-13
-4.33858e-13
-4.24171e-13
-4.13562e-13
-4.05247e-13
-4.00253e-13
-3.918e-13
-3.77178e-13
-3.66872e-13
-3.60425e-13
-3.54082e-13
-3.46928e-13
-3.34623e-13
-3.27587e-13
-3.17998e-13
-3.13301e-13
-3.12773e-13
-3.06136e-13
-2.97192e-13
-2.87315e-13
-2.81975e-13
-2.74299e-13
-2.63795e-13
-2.55299e-13
-2.47646e-13
-2.38413e-13
-2.31416e-13
-2.22864e-13
-2.15956e-13
-2.09007e-13
-2.00228e-13
-1.92833e-13
-1.86802e-13
-1.82066e-13
-1.7927e-13
-1.72254e-13
-1.62934e-13
-1.53161e-13
-1.46043e-13
-1.40406e-13
-1.29065e-13
-1.1932e-13
-1.15447e-13
-1.10644e-13
-1.04085e-13
-9.61301e-14
-8.85427e-14
-8.40883e-14
-8.23349e-14
-7.62067e-14
-7.06123e-14
-5.77199e-14
-4.82193e-14
-4.1168e-14
-3.34097e-14
-2.31201e-14
-1.55168e-14
-5.52378e-15
-7.10169e-13
-7.14948e-13
-7.11261e-13
-7.05993e-13
-7.0186e-13
-7.05753e-13
-7.06254e-13
-7.04834e-13
-6.98052e-13
-6.90083e-13
-6.80817e-13
-6.74606e-13
-6.64112e-13
-6.54878e-13
-6.53661e-13
-6.47824e-13
-6.36103e-13
-6.24565e-13
-6.10677e-13
-5.97285e-13
-5.92175e-13
-5.85001e-13
-5.69842e-13
-5.60177e-13
-5.58212e-13
-5.56022e-13
-5.5183e-13
-5.43257e-13
-5.34175e-13
-5.25464e-13
-5.17181e-13
-5.10719e-13
-5.01799e-13
-4.95403e-13
-4.89834e-13
-4.8867e-13
-4.79733e-13
-4.68793e-13
-4.57198e-13
-4.49709e-13
-4.47285e-13
-4.47531e-13
-4.40679e-13
-4.32205e-13
-4.2135e-13
-4.11721e-13
-4.03726e-13
-3.98271e-13
-3.90375e-13
-3.81092e-13
-3.70764e-13
-3.63934e-13
-3.55496e-13
-3.46034e-13
-3.3574e-13
-3.26008e-13
-3.19332e-13
-3.14984e-13
-3.11513e-13
-3.04277e-13
-2.96575e-13
-2.8786e-13
-2.79361e-13
-2.7312e-13
-2.67894e-13
-2.61346e-13
-2.53402e-13
-2.40076e-13
-2.30955e-13
-2.20454e-13
-2.11876e-13
-2.0574e-13
-1.99671e-13
-1.93169e-13
-1.8317e-13
-1.7869e-13
-1.77021e-13
-1.72037e-13
-1.65295e-13
-1.55172e-13
-1.47607e-13
-1.42792e-13
-1.29663e-13
-1.18667e-13
-1.11775e-13
-1.06921e-13
-1.03232e-13
-9.92976e-14
-9.11297e-14
-8.58258e-14
-8.11427e-14
-7.58728e-14
-6.81383e-14
-6.21218e-14
-5.36004e-14
-4.18343e-14
-3.38129e-14
-2.56588e-14
-1.50383e-14
-3.07944e-15
-7.06427e-13
-7.16889e-13
-7.13274e-13
-7.03068e-13
-7.0694e-13
-7.11538e-13
-7.09799e-13
-7.05323e-13
-6.96249e-13
-6.81599e-13
-6.77646e-13
-6.73125e-13
-6.68876e-13
-6.57613e-13
-6.50419e-13
-6.5004e-13
-6.38384e-13
-6.2735e-13
-6.15444e-13
-6.00621e-13
-5.89987e-13
-5.78042e-13
-5.59809e-13
-5.5661e-13
-5.58676e-13
-5.59545e-13
-5.51681e-13
-5.41517e-13
-5.32998e-13
-5.29167e-13
-5.19371e-13
-5.09798e-13
-5.00964e-13
-4.98909e-13
-4.96355e-13
-4.87512e-13
-4.77211e-13
-4.68208e-13
-4.57484e-13
-4.52495e-13
-4.50472e-13
-4.48162e-13
-4.3894e-13
-4.32896e-13
-4.21732e-13
-4.09213e-13
-3.98952e-13
-3.94043e-13
-3.90465e-13
-3.80945e-13
-3.73659e-13
-3.63222e-13
-3.53565e-13
-3.43743e-13
-3.34027e-13
-3.27915e-13
-3.2234e-13
-3.16631e-13
-3.09574e-13
-3.05343e-13
-2.98588e-13
-2.88718e-13
-2.80655e-13
-2.73208e-13
-2.63723e-13
-2.59474e-13
-2.54508e-13
-2.4132e-13
-2.32041e-13
-2.2387e-13
-2.13614e-13
-2.06139e-13
-2.01226e-13
-1.95461e-13
-1.85416e-13
-1.81423e-13
-1.75545e-13
-1.68543e-13
-1.6381e-13
-1.57928e-13
-1.50521e-13
-1.41844e-13
-1.27214e-13
-1.16007e-13
-1.12164e-13
-1.09703e-13
-1.05979e-13
-9.6916e-14
-9.02294e-14
-8.55664e-14
-8.06267e-14
-7.60172e-14
-6.62382e-14
-6.16661e-14
-5.41964e-14
-4.59282e-14
-3.38356e-14
-2.41671e-14
-1.27523e-14
-1.79548e-15
-7.12393e-13
-7.13608e-13
-7.12919e-13
-7.09106e-13
-7.06446e-13
-7.10107e-13
-7.09572e-13
-7.02818e-13
-6.94327e-13
-6.82026e-13
-6.73208e-13
-6.72051e-13
-6.71253e-13
-6.59175e-13
-6.51793e-13
-6.46434e-13
-6.42089e-13
-6.33195e-13
-6.1252e-13
-5.93026e-13
-5.75953e-13
-5.72863e-13
-5.71028e-13
-5.69044e-13
-5.6514e-13
-5.59134e-13
-5.47662e-13
-5.38464e-13
-5.35352e-13
-5.3118e-13
-5.22703e-13
-5.08947e-13
-5.02462e-13
-4.9434e-13
-4.89878e-13
-4.84731e-13
-4.79119e-13
-4.74345e-13
-4.63488e-13
-4.51156e-13
-4.44571e-13
-4.40851e-13
-4.36368e-13
-4.32544e-13
-4.26071e-13
-4.15214e-13
-4.03113e-13
-3.93308e-13
-3.87017e-13
-3.80314e-13
-3.72629e-13
-3.66419e-13
-3.57179e-13
-3.44278e-13
-3.3558e-13
-3.29175e-13
-3.22382e-13
-3.10368e-13
-3.05283e-13
-3.04387e-13
-3.03028e-13
-2.94876e-13
-2.83258e-13
-2.70404e-13
-2.60543e-13
-2.5607e-13
-2.48626e-13
-2.36458e-13
-2.2694e-13
-2.2283e-13
-2.2291e-13
-2.13399e-13
-2.02774e-13
-1.98483e-13
-1.88391e-13
-1.79104e-13
-1.71434e-13
-1.64848e-13
-1.5929e-13
-1.55557e-13
-1.49405e-13
-1.40823e-13
-1.32809e-13
-1.23262e-13
-1.16758e-13
-1.05582e-13
-1.02524e-13
-9.93461e-14
-9.043e-14
-8.7455e-14
-8.01431e-14
-7.10998e-14
-6.67574e-14
-6.14748e-14
-5.49982e-14
-4.30929e-14
-3.36207e-14
-2.27707e-14
-1.257e-14
-4.20843e-15
-7.12212e-13
-7.12206e-13
-7.09744e-13
-7.09869e-13
-7.131e-13
-7.12834e-13
-7.09783e-13
-7.02645e-13
-6.92902e-13
-6.83873e-13
-6.7691e-13
-6.70691e-13
-6.67278e-13
-6.57027e-13
-6.52825e-13
-6.46058e-13
-6.42345e-13
-6.32046e-13
-6.06852e-13
-5.94037e-13
-5.90066e-13
-5.83485e-13
-5.72999e-13
-5.62819e-13
-5.59965e-13
-5.54287e-13
-5.42394e-13
-5.35922e-13
-5.3201e-13
-5.28537e-13
-5.22171e-13
-5.15115e-13
-5.0906e-13
-5.03005e-13
-4.90997e-13
-4.83462e-13
-4.77854e-13
-4.68834e-13
-4.60405e-13
-4.51188e-13
-4.46247e-13
-4.45687e-13
-4.38329e-13
-4.37035e-13
-4.30862e-13
-4.1526e-13
-3.99296e-13
-3.84287e-13
-3.8303e-13
-3.82689e-13
-3.78706e-13
-3.70198e-13
-3.56727e-13
-3.4435e-13
-3.32876e-13
-3.26089e-13
-3.22752e-13
-3.17094e-13
-3.07684e-13
-3.00807e-13
-2.9788e-13
-2.91307e-13
-2.84169e-13
-2.75628e-13
-2.66991e-13
-2.58328e-13
-2.49087e-13
-2.38308e-13
-2.32581e-13
-2.25612e-13
-2.18233e-13
-2.13282e-13
-2.01936e-13
-1.89174e-13
-1.81674e-13
-1.8002e-13
-1.75908e-13
-1.6888e-13
-1.64871e-13
-1.59014e-13
-1.49941e-13
-1.40996e-13
-1.28693e-13
-1.17466e-13
-1.08452e-13
-1.04912e-13
-1.03611e-13
-1.00997e-13
-9.30455e-14
-8.58148e-14
-7.75051e-14
-7.19157e-14
-6.73901e-14
-6.26825e-14
-5.31805e-14
-4.13675e-14
-3.3953e-14
-2.42597e-14
-1.39341e-14
-2.40415e-15
-7.15001e-13
-7.17529e-13
-7.11651e-13
-7.03918e-13
-7.09025e-13
-7.12492e-13
-7.12438e-13
-7.04468e-13
-6.89989e-13
-6.85836e-13
-6.77994e-13
-6.66943e-13
-6.60885e-13
-6.56569e-13
-6.53261e-13
-6.48872e-13
-6.41855e-13
-6.29684e-13
-6.10474e-13
-5.96726e-13
-5.89264e-13
-5.81134e-13
-5.77636e-13
-5.6967e-13
-5.59414e-13
-5.49514e-13
-5.41566e-13
-5.36269e-13
-5.35449e-13
-5.3002e-13
-5.23196e-13
-5.16278e-13
-5.0559e-13
-4.95225e-13
-4.91683e-13
-4.84544e-13
-4.76402e-13
-4.67262e-13
-4.63434e-13
-4.58804e-13
-4.53174e-13
-4.46598e-13
-4.35006e-13
-4.25953e-13
-4.23114e-13
-4.15903e-13
-4.05383e-13
-3.93731e-13
-3.86921e-13
-3.79568e-13
-3.72393e-13
-3.65115e-13
-3.5498e-13
-3.4581e-13
-3.3764e-13
-3.32601e-13
-3.23643e-13
-3.16537e-13
-3.08409e-13
-3.01496e-13
-2.94742e-13
-2.88434e-13
-2.82552e-13
-2.74805e-13
-2.63957e-13
-2.53505e-13
-2.47142e-13
-2.38927e-13
-2.31218e-13
-2.2412e-13
-2.1686e-13
-2.13802e-13
-2.06402e-13
-1.96063e-13
-1.84676e-13
-1.80579e-13
-1.76743e-13
-1.70484e-13
-1.65377e-13
-1.55982e-13
-1.50699e-13
-1.41876e-13
-1.28807e-13
-1.19073e-13
-1.10886e-13
-1.05878e-13
-1.04682e-13
-1.00122e-13
-9.2177e-14
-8.58503e-14
-7.735e-14
-7.0889e-14
-6.42061e-14
-5.97471e-14
-5.28296e-14
-4.30071e-14
-3.22389e-14
-1.98509e-14
-9.26801e-15
7.35449e-16
-7.15431e-13
-7.14727e-13
-7.14255e-13
-7.11303e-13
-7.07497e-13
-7.10479e-13
-7.08386e-13
-7.07521e-13
-6.9847e-13
-6.81675e-13
-6.72389e-13
-6.63958e-13
-6.62326e-13
-6.60358e-13
-6.55583e-13
-6.48267e-13
-6.37188e-13
-6.29336e-13
-6.17976e-13
-6.01745e-13
-5.8951e-13
-5.76356e-13
-5.71271e-13
-5.63737e-13
-5.61538e-13
-5.55417e-13
-5.44603e-13
-5.39042e-13
-5.33812e-13
-5.29407e-13
-5.24819e-13
-5.16376e-13
-5.05529e-13
-4.93756e-13
-4.87774e-13
-4.82915e-13
-4.79236e-13
-4.69246e-13
-4.63649e-13
-4.59206e-13
-4.49838e-13
-4.40573e-13
-4.34458e-13
-4.26699e-13
-4.26102e-13
-4.20398e-13
-4.09694e-13
-3.96265e-13
-3.86956e-13
-3.76465e-13
-3.68824e-13
-3.65078e-13
-3.56854e-13
-3.47183e-13
-3.38295e-13
-3.30275e-13
-3.22844e-13
-3.15182e-13
-3.08077e-13
-3.04129e-13
-2.98931e-13
-2.9555e-13
-2.87873e-13
-2.75309e-13
-2.60319e-13
-2.45562e-13
-2.38584e-13
-2.33781e-13
-2.30492e-13
-2.30939e-13
-2.25028e-13
-2.16809e-13
-2.09638e-13
-1.99051e-13
-1.86236e-13
-1.77424e-13
-1.73041e-13
-1.67912e-13
-1.64264e-13
-1.56111e-13
-1.50272e-13
-1.42196e-13
-1.30577e-13
-1.22793e-13
-1.1389e-13
-1.05086e-13
-1.00712e-13
-9.46705e-14
-9.13933e-14
-8.72372e-14
-7.579e-14
-6.65184e-14
-6.14723e-14
-5.66677e-14
-4.74984e-14
-3.79495e-14
-2.86711e-14
-1.76547e-14
-6.8974e-15
-4.18941e-16
-7.13778e-13
-7.13195e-13
-7.12428e-13
-7.13792e-13
-7.13964e-13
-7.08278e-13
-7.06106e-13
-7.03546e-13
-6.96623e-13
-6.87732e-13
-6.73065e-13
-6.62293e-13
-6.61571e-13
-6.60998e-13
-6.55591e-13
-6.51236e-13
-6.37641e-13
-6.27917e-13
-6.18329e-13
-6.03495e-13
-5.94261e-13
-5.77744e-13
-5.66924e-13
-5.62563e-13
-5.55966e-13
-5.51201e-13
-5.47193e-13
-5.40689e-13
-5.35865e-13
-5.31934e-13
-5.23739e-13
-5.14833e-13
-5.04489e-13
-4.96458e-13
-4.92281e-13
-4.841e-13
-4.75858e-13
-4.69659e-13
-4.66088e-13
-4.57768e-13
-4.4932e-13
-4.40097e-13
-4.34026e-13
-4.32389e-13
-4.30268e-13
-4.18895e-13
-4.05834e-13
-3.92325e-13
-3.83267e-13
-3.74832e-13
-3.72217e-13
-3.67029e-13
-3.5646e-13
-3.46634e-13
-3.36355e-13
-3.33058e-13
-3.25882e-13
-3.17733e-13
-3.06912e-13
-2.97324e-13
-2.95922e-13
-2.87946e-13
-2.8214e-13
-2.78263e-13
-2.63392e-13
-2.48432e-13
-2.38097e-13
-2.33122e-13
-2.30952e-13
-2.34613e-13
-2.26901e-13
-2.19618e-13
-2.10476e-13
-1.97885e-13
-1.83814e-13
-1.73206e-13
-1.72744e-13
-1.72457e-13
-1.68676e-13
-1.60285e-13
-1.54766e-13
-1.46185e-13
-1.30312e-13
-1.18874e-13
-1.07989e-13
-9.91455e-14
-1.01905e-13
-1.00436e-13
-9.23466e-14
-8.54484e-14
-7.4348e-14
-6.82193e-14
-6.11042e-14
-5.46439e-14
-4.94168e-14
-4.16346e-14
-2.44059e-14
-7.98385e-15
1.17229e-15
-2.09385e-15
-7.1773e-13
-7.15703e-13
-7.13353e-13
-7.15338e-13
-7.13487e-13
-7.08061e-13
-7.07971e-13
-7.04474e-13
-6.96019e-13
-6.84298e-13
-6.752e-13
-6.66379e-13
-6.57865e-13
-6.54185e-13
-6.50201e-13
-6.43797e-13
-6.41227e-13
-6.34188e-13
-6.20981e-13
-6.0529e-13
-5.93607e-13
-5.85569e-13
-5.73606e-13
-5.63177e-13
-5.55812e-13
-5.4529e-13
-5.4201e-13
-5.39634e-13
-5.37259e-13
-5.34918e-13
-5.26418e-13
-5.15756e-13
-5.03098e-13
-4.94022e-13
-4.88274e-13
-4.81492e-13
-4.78362e-13
-4.72758e-13
-4.6883e-13
-4.5588e-13
-4.47873e-13
-4.36994e-13
-4.33723e-13
-4.3507e-13
-4.28321e-13
-4.19125e-13
-4.06853e-13
-3.9649e-13
-3.84808e-13
-3.74798e-13
-3.67338e-13
-3.64837e-13
-3.56121e-13
-3.49771e-13
-3.42193e-13
-3.32102e-13
-3.23617e-13
-3.14794e-13
-3.06642e-13
-3.00812e-13
-2.98776e-13
-2.98969e-13
-2.87304e-13
-2.74584e-13
-2.5474e-13
-2.44257e-13
-2.37856e-13
-2.35414e-13
-2.31239e-13
-2.29917e-13
-2.2371e-13
-2.23414e-13
-2.17604e-13
-2.04584e-13
-1.82246e-13
-1.6501e-13
-1.65124e-13
-1.73861e-13
-1.71684e-13
-1.60528e-13
-1.53877e-13
-1.43053e-13
-1.32949e-13
-1.24268e-13
-1.1383e-13
-1.02498e-13
-9.62902e-14
-9.57381e-14
-9.06293e-14
-8.39918e-14
-7.21876e-14
-6.75337e-14
-6.12793e-14
-5.34778e-14
-4.46484e-14
-3.70993e-14
-2.33187e-14
-1.03014e-14
-3.34284e-15
-2.42283e-15
-7.15139e-13
-7.15174e-13
-7.06931e-13
-7.16863e-13
-7.16354e-13
-7.1299e-13
-7.06598e-13
-6.99013e-13
-6.90607e-13
-6.78756e-13
-6.7314e-13
-6.6746e-13
-6.6681e-13
-6.60122e-13
-6.5272e-13
-6.48143e-13
-6.43285e-13
-6.35999e-13
-6.22257e-13
-6.0694e-13
-5.86117e-13
-5.71312e-13
-5.61141e-13
-5.60371e-13
-5.56366e-13
-5.52397e-13
-5.45645e-13
-5.39322e-13
-5.38309e-13
-5.37019e-13
-5.30057e-13
-5.16725e-13
-5.06423e-13
-4.98362e-13
-4.9425e-13
-4.83721e-13
-4.74623e-13
-4.70791e-13
-4.65747e-13
-4.5576e-13
-4.46703e-13
-4.43117e-13
-4.39139e-13
-4.33754e-13
-4.21788e-13
-4.12643e-13
-4.05034e-13
-3.97053e-13
-3.87308e-13
-3.78972e-13
-3.72002e-13
-3.65132e-13
-3.53037e-13
-3.42201e-13
-3.44553e-13
-3.44013e-13
-3.2728e-13
-3.11695e-13
-3.03081e-13
-2.9415e-13
-2.91816e-13
-2.8916e-13
-2.88315e-13
-2.77793e-13
-2.59911e-13
-2.50293e-13
-2.36884e-13
-2.36207e-13
-2.31475e-13
-2.26586e-13
-2.23531e-13
-2.24505e-13
-2.18795e-13
-2.02076e-13
-1.83721e-13
-1.70645e-13
-1.69163e-13
-1.74247e-13
-1.67952e-13
-1.5847e-13
-1.51728e-13
-1.44033e-13
-1.36015e-13
-1.26398e-13
-1.15297e-13
-1.01868e-13
-9.65573e-14
-9.66622e-14
-8.9843e-14
-8.25799e-14
-7.31349e-14
-6.57713e-14
-5.73675e-14
-5.11371e-14
-4.52438e-14
-3.59842e-14
-2.37675e-14
-1.25101e-14
-2.32003e-15
9.96315e-18
-7.11807e-13
-7.22864e-13
-7.17575e-13
-7.12114e-13
-7.12495e-13
-7.10641e-13
-7.05655e-13
-7.0375e-13
-6.91218e-13
-6.74909e-13
-6.70891e-13
-6.68294e-13
-6.65233e-13
-6.60481e-13
-6.555e-13
-6.44756e-13
-6.33503e-13
-6.2475e-13
-6.18774e-13
-6.09963e-13
-6.03269e-13
-5.94061e-13
-5.79659e-13
-5.6003e-13
-5.45356e-13
-5.39442e-13
-5.42626e-13
-5.41526e-13
-5.40431e-13
-5.39759e-13
-5.31157e-13
-5.17874e-13
-5.01592e-13
-4.88918e-13
-4.843e-13
-4.80507e-13
-4.81476e-13
-4.78356e-13
-4.66852e-13
-4.61066e-13
-4.50044e-13
-4.39346e-13
-4.37673e-13
-4.30382e-13
-4.21332e-13
-4.12137e-13
-4.0207e-13
-3.97e-13
-3.92054e-13
-3.81921e-13
-3.7344e-13
-3.62905e-13
-3.54704e-13
-3.47033e-13
-3.42075e-13
-3.36419e-13
-3.29284e-13
-3.22477e-13
-3.1337e-13
-3.00646e-13
-2.90453e-13
-2.83511e-13
-2.77712e-13
-2.71822e-13
-2.61168e-13
-2.52663e-13
-2.44075e-13
-2.37543e-13
-2.32125e-13
-2.30119e-13
-2.2623e-13
-2.18511e-13
-2.11107e-13
-2.03444e-13
-1.87483e-13
-1.76288e-13
-1.70011e-13
-1.68766e-13
-1.67836e-13
-1.5939e-13
-1.52536e-13
-1.41774e-13
-1.34993e-13
-1.25448e-13
-1.14084e-13
-1.04165e-13
-9.9356e-14
-9.52446e-14
-9.1309e-14
-8.21397e-14
-7.34485e-14
-6.94521e-14
-6.04265e-14
-5.07979e-14
-3.97118e-14
-3.05479e-14
-2.22933e-14
-1.4101e-14
-5.49824e-15
-4.31531e-16
-7.11595e-13
-7.1593e-13
-7.1881e-13
-7.1453e-13
-7.13242e-13
-7.14336e-13
-7.02306e-13
-6.89183e-13
-6.83002e-13
-6.80459e-13
-6.77466e-13
-6.72563e-13
-6.69012e-13
-6.62426e-13
-6.55929e-13
-6.46453e-13
-6.39462e-13
-6.34928e-13
-6.24527e-13
-6.09595e-13
-5.87705e-13
-5.7362e-13
-5.63047e-13
-5.52055e-13
-5.53976e-13
-5.5332e-13
-5.48992e-13
-5.42346e-13
-5.38667e-13
-5.38442e-13
-5.33145e-13
-5.21646e-13
-5.08115e-13
-4.89447e-13
-4.78551e-13
-4.81232e-13
-4.83517e-13
-4.80149e-13
-4.73687e-13
-4.62537e-13
-4.47144e-13
-4.38368e-13
-4.31113e-13
-4.25743e-13
-4.20427e-13
-4.1546e-13
-4.08285e-13
-3.98719e-13
-3.91737e-13
-3.89557e-13
-3.79893e-13
-3.6026e-13
-3.48624e-13
-3.41281e-13
-3.35247e-13
-3.34278e-13
-3.30575e-13
-3.21687e-13
-3.0825e-13
-2.96951e-13
-2.9388e-13
-2.89264e-13
-2.8156e-13
-2.71765e-13
-2.56626e-13
-2.45588e-13
-2.42203e-13
-2.40545e-13
-2.36386e-13
-2.29948e-13
-2.22764e-13
-2.18705e-13
-2.11941e-13
-2.0209e-13
-1.89246e-13
-1.72795e-13
-1.69003e-13
-1.67728e-13
-1.69829e-13
-1.65442e-13
-1.56587e-13
-1.46114e-13
-1.35011e-13
-1.22506e-13
-1.11925e-13
-1.049e-13
-1.00675e-13
-9.51432e-14
-8.86432e-14
-8.13427e-14
-7.40424e-14
-6.8137e-14
-6.15008e-14
-5.09231e-14
-3.88498e-14
-2.74058e-14
-1.77328e-14
-1.11523e-14
-3.40849e-15
-1.42392e-15
-7.10173e-13
-7.2057e-13
-7.21693e-13
-7.15383e-13
-7.11798e-13
-7.18121e-13
-7.13371e-13
-6.96815e-13
-6.7581e-13
-6.70463e-13
-6.6929e-13
-6.70541e-13
-6.69378e-13
-6.65641e-13
-6.60051e-13
-6.47929e-13
-6.37606e-13
-6.28394e-13
-6.14323e-13
-6.05237e-13
-5.96202e-13
-5.82441e-13
-5.69359e-13
-5.53685e-13
-5.53024e-13
-5.51706e-13
-5.5105e-13
-5.47081e-13
-5.39312e-13
-5.37815e-13
-5.29338e-13
-5.16736e-13
-5.06841e-13
-4.90803e-13
-4.78266e-13
-4.78441e-13
-4.81377e-13
-4.81164e-13
-4.73076e-13
-4.63273e-13
-4.46893e-13
-4.37521e-13
-4.35095e-13
-4.28723e-13
-4.20709e-13
-4.12967e-13
-4.10911e-13
-4.03535e-13
-3.91372e-13
-3.78684e-13
-3.69718e-13
-3.63574e-13
-3.53058e-13
-3.39267e-13
-3.40695e-13
-3.38494e-13
-3.30453e-13
-3.23741e-13
-3.15447e-13
-2.99615e-13
-2.91979e-13
-2.84457e-13
-2.76208e-13
-2.68287e-13
-2.56026e-13
-2.48537e-13
-2.3935e-13
-2.37146e-13
-2.32818e-13
-2.33581e-13
-2.25709e-13
-2.22547e-13
-2.15834e-13
-2.01389e-13
-1.86244e-13
-1.74021e-13
-1.72506e-13
-1.70819e-13
-1.654e-13
-1.60824e-13
-1.55213e-13
-1.46451e-13
-1.36125e-13
-1.23138e-13
-1.15807e-13
-1.09431e-13
-1.01542e-13
-9.41787e-14
-8.83544e-14
-8.04779e-14
-7.28646e-14
-6.60402e-14
-5.70879e-14
-4.70606e-14
-3.86364e-14
-3.1085e-14
-1.5624e-14
-8.03863e-15
-4.65507e-16
1.63939e-17
-7.18453e-13
-7.17278e-13
-7.137e-13
-7.09332e-13
-7.10635e-13
-7.04867e-13
-6.99182e-13
-7.00738e-13
-6.94703e-13
-6.85534e-13
-6.79255e-13
-6.68916e-13
-6.61989e-13
-6.60729e-13
-6.58651e-13
-6.49798e-13
-6.39779e-13
-6.36928e-13
-6.23914e-13
-6.05224e-13
-5.83479e-13
-5.68837e-13
-5.6323e-13
-5.61822e-13
-5.5499e-13
-5.55278e-13
-5.51454e-13
-5.44845e-13
-5.39916e-13
-5.35766e-13
-5.28964e-13
-5.16486e-13
-5.03508e-13
-4.90029e-13
-4.81835e-13
-4.81873e-13
-4.87216e-13
-4.81372e-13
-4.72666e-13
-4.61176e-13
-4.47459e-13
-4.3416e-13
-4.32376e-13
-4.30024e-13
-4.26365e-13
-4.14679e-13
-4.05181e-13
-4.0104e-13
-3.95364e-13
-3.82474e-13
-3.68719e-13
-3.62944e-13
-3.54675e-13
-3.43796e-13
-3.34857e-13
-3.33008e-13
-3.27816e-13
-3.22802e-13
-3.1631e-13
-3.05467e-13
-2.94057e-13
-2.85076e-13
-2.75449e-13
-2.67359e-13
-2.60866e-13
-2.49915e-13
-2.39804e-13
-2.31556e-13
-2.29572e-13
-2.33272e-13
-2.25312e-13
-2.20687e-13
-2.13541e-13
-2.02154e-13
-1.91073e-13
-1.78066e-13
-1.68198e-13
-1.65021e-13
-1.64632e-13
-1.6713e-13
-1.61301e-13
-1.45388e-13
-1.34922e-13
-1.21706e-13
-1.16781e-13
-1.11921e-13
-1.04171e-13
-9.34261e-14
-8.37495e-14
-7.93831e-14
-7.31865e-14
-6.57408e-14
-5.92168e-14
-4.97993e-14
-3.74605e-14
-2.59375e-14
-1.58875e-14
-9.48604e-15
-1.13095e-15
1.39864e-15
-7.18193e-13
-7.16668e-13
-7.14285e-13
-7.11972e-13
-7.18119e-13
-7.14893e-13
-6.99525e-13
-6.92006e-13
-6.85885e-13
-6.81868e-13
-6.80577e-13
-6.77319e-13
-6.64151e-13
-6.56458e-13
-6.52643e-13
-6.46943e-13
-6.41616e-13
-6.33926e-13
-6.19901e-13
-6.02273e-13
-5.86799e-13
-5.70752e-13
-5.60941e-13
-5.62285e-13
-5.6319e-13
-5.54799e-13
-5.47034e-13
-5.45243e-13
-5.43318e-13
-5.38701e-13
-5.31615e-13
-5.18808e-13
-5.04063e-13
-4.89245e-13
-4.78298e-13
-4.80497e-13
-4.80576e-13
-4.78696e-13
-4.76644e-13
-4.66969e-13
-4.51971e-13
-4.38438e-13
-4.31632e-13
-4.23986e-13
-4.21852e-13
-4.16629e-13
-4.07598e-13
-3.9767e-13
-3.90406e-13
-3.82593e-13
-3.6949e-13
-3.63957e-13
-3.55358e-13
-3.45102e-13
-3.41729e-13
-3.3753e-13
-3.25732e-13
-3.16245e-13
-3.1073e-13
-3.01946e-13
-2.96402e-13
-2.85551e-13
-2.76344e-13
-2.68583e-13
-2.5945e-13
-2.48637e-13
-2.42192e-13
-2.31869e-13
-2.26559e-13
-2.24401e-13
-2.23713e-13
-2.21773e-13
-2.15624e-13
-2.02112e-13
-1.89441e-13
-1.79652e-13
-1.74208e-13
-1.67869e-13
-1.67221e-13
-1.6466e-13
-1.57936e-13
-1.47816e-13
-1.36614e-13
-1.25444e-13
-1.15789e-13
-1.06304e-13
-9.95336e-14
-9.50631e-14
-8.91022e-14
-7.97927e-14
-7.23267e-14
-6.4733e-14
-5.60286e-14
-4.6701e-14
-3.58556e-14
-2.82394e-14
-1.78692e-14
-7.07725e-15
-8.67211e-16
-2.23409e-16
-7.12679e-13
-7.16149e-13
-7.16248e-13
-7.14507e-13
-7.12491e-13
-7.05267e-13
-6.9959e-13
-6.9554e-13
-6.9398e-13
-6.88196e-13
-6.8159e-13
-6.76136e-13
-6.67124e-13
-6.5767e-13
-6.51033e-13
-6.4259e-13
-6.39655e-13
-6.32547e-13
-6.18464e-13
-6.04772e-13
-5.86018e-13
-5.7162e-13
-5.67141e-13
-5.63895e-13
-5.55141e-13
-5.51294e-13
-5.52056e-13
-5.50305e-13
-5.42916e-13
-5.33409e-13
-5.25714e-13
-5.17226e-13
-5.03726e-13
-4.9064e-13
-4.80588e-13
-4.86878e-13
-4.89569e-13
-4.81584e-13
-4.71198e-13
-4.58999e-13
-4.47872e-13
-4.41222e-13
-4.33957e-13
-4.23903e-13
-4.18621e-13
-4.11913e-13
-4.10514e-13
-4.08913e-13
-3.93112e-13
-3.79015e-13
-3.67784e-13
-3.65276e-13
-3.5547e-13
-3.44459e-13
-3.40768e-13
-3.37946e-13
-3.29223e-13
-3.1711e-13
-3.07964e-13
-3.01619e-13
-2.9898e-13
-2.89309e-13
-2.77618e-13
-2.67057e-13
-2.55077e-13
-2.48037e-13
-2.38522e-13
-2.33489e-13
-2.27191e-13
-2.22969e-13
-2.19347e-13
-2.21148e-13
-2.16107e-13
-2.02009e-13
-1.89562e-13
-1.79575e-13
-1.76318e-13
-1.70972e-13
-1.62735e-13
-1.55585e-13
-1.613e-13
-1.5634e-13
-1.38642e-13
-1.25691e-13
-1.16329e-13
-1.05855e-13
-9.78415e-14
-9.47002e-14
-8.87601e-14
-8.0116e-14
-7.19206e-14
-6.45237e-14
-5.72543e-14
-4.51759e-14
-3.86216e-14
-2.70341e-14
-1.50911e-14
-5.09791e-15
2.13663e-16
-5.83208e-16
-7.21181e-13
-7.17637e-13
-7.15711e-13
-7.12089e-13
-7.06355e-13
-7.03128e-13
-6.99497e-13
-6.99289e-13
-6.95487e-13
-6.88447e-13
-6.80926e-13
-6.76012e-13
-6.6889e-13
-6.62529e-13
-6.53525e-13
-6.40676e-13
-6.29393e-13
-6.22845e-13
-6.18133e-13
-6.08922e-13
-5.88611e-13
-5.76314e-13
-5.67151e-13
-5.60346e-13
-5.57743e-13
-5.5429e-13
-5.53652e-13
-5.50455e-13
-5.41099e-13
-5.36862e-13
-5.27167e-13
-5.16352e-13
-5.01717e-13
-4.88637e-13
-4.83337e-13
-4.86098e-13
-4.85414e-13
-4.79993e-13
-4.71415e-13
-4.60043e-13
-4.48096e-13
-4.38731e-13
-4.34697e-13
-4.28718e-13
-4.23992e-13
-4.16722e-13
-4.05675e-13
-3.98114e-13
-3.92442e-13
-3.83955e-13
-3.7622e-13
-3.65013e-13
-3.54215e-13
-3.45297e-13
-3.38844e-13
-3.31761e-13
-3.26999e-13
-3.19194e-13
-3.07147e-13
-3.01435e-13
-2.99956e-13
-2.91332e-13
-2.79101e-13
-2.65075e-13
-2.56477e-13
-2.47968e-13
-2.38474e-13
-2.31515e-13
-2.26815e-13
-2.23043e-13
-2.20985e-13
-2.20919e-13
-2.14734e-13
-1.98288e-13
-1.88423e-13
-1.80055e-13
-1.7576e-13
-1.70966e-13
-1.67046e-13
-1.6314e-13
-1.57591e-13
-1.49381e-13
-1.40164e-13
-1.30579e-13
-1.22105e-13
-1.05183e-13
-9.63633e-14
-9.15379e-14
-8.88871e-14
-7.64368e-14
-6.87666e-14
-6.33615e-14
-6.17753e-14
-4.74747e-14
-3.47043e-14
-2.62159e-14
-1.69802e-14
-2.09492e-15
-4.77106e-16
-2.08395e-15
-7.24289e-13
-7.17255e-13
-7.10817e-13
-7.11655e-13
-7.0273e-13
-7.0377e-13
-6.99943e-13
-7.00535e-13
-6.99384e-13
-6.8746e-13
-6.80202e-13
-6.7648e-13
-6.74486e-13
-6.63854e-13
-6.53807e-13
-6.4434e-13
-6.34709e-13
-6.23772e-13
-6.17596e-13
-6.01807e-13
-5.88425e-13
-5.75392e-13
-5.63852e-13
-5.58695e-13
-5.5545e-13
-5.58359e-13
-5.55114e-13
-5.4933e-13
-5.42305e-13
-5.34474e-13
-5.27531e-13
-5.18339e-13
-5.02184e-13
-4.9208e-13
-4.82059e-13
-4.80799e-13
-4.83232e-13
-4.80301e-13
-4.72085e-13
-4.61388e-13
-4.51607e-13
-4.4272e-13
-4.34482e-13
-4.28093e-13
-4.22078e-13
-4.14714e-13
-4.05052e-13
-4.00475e-13
-3.9589e-13
-3.8404e-13
-3.72502e-13
-3.60532e-13
-3.53683e-13
-3.48642e-13
-3.42617e-13
-3.3592e-13
-3.28562e-13
-3.17559e-13
-3.10222e-13
-3.05434e-13
-3.00562e-13
-2.89787e-13
-2.74382e-13
-2.63455e-13
-2.54367e-13
-2.45292e-13
-2.36088e-13
-2.32649e-13
-2.26109e-13
-2.27281e-13
-2.22068e-13
-2.16739e-13
-2.07285e-13
-1.95306e-13
-1.86519e-13
-1.78213e-13
-1.79488e-13
-1.78797e-13
-1.69347e-13
-1.60711e-13
-1.54583e-13
-1.46581e-13
-1.38603e-13
-1.29356e-13
-1.16358e-13
-1.03184e-13
-9.7886e-14
-9.46822e-14
-8.80019e-14
-8.31105e-14
-7.6792e-14
-6.44061e-14
-5.34277e-14
-4.44193e-14
-3.49671e-14
-2.36763e-14
-1.53569e-14
-9.6551e-15
-3.09026e-15
-1.61483e-15
-7.22293e-13
-7.15464e-13
-7.14046e-13
-7.12221e-13
-7.0785e-13
-7.03827e-13
-6.97108e-13
-6.99547e-13
-6.98667e-13
-6.91675e-13
-6.84638e-13
-6.76083e-13
-6.72737e-13
-6.61565e-13
-6.50681e-13
-6.39501e-13
-6.27993e-13
-6.23556e-13
-6.18192e-13
-6.0449e-13
-5.90358e-13
-5.77137e-13
-5.65725e-13
-5.62636e-13
-5.62679e-13
-5.55773e-13
-5.49898e-13
-5.43051e-13
-5.36673e-13
-5.35403e-13
-5.30437e-13
-5.23244e-13
-5.10567e-13
-4.99374e-13
-4.79598e-13
-4.76795e-13
-4.77759e-13
-4.76596e-13
-4.72503e-13
-4.61373e-13
-4.53761e-13
-4.42857e-13
-4.37525e-13
-4.26198e-13
-4.22369e-13
-4.16619e-13
-4.11665e-13
-4.02695e-13
-3.91762e-13
-3.75971e-13
-3.72242e-13
-3.66138e-13
-3.58577e-13
-3.44256e-13
-3.36534e-13
-3.29674e-13
-3.22065e-13
-3.19808e-13
-3.11123e-13
-3.10086e-13
-3.11332e-13
-2.86829e-13
-2.72236e-13
-2.65657e-13
-2.56978e-13
-2.49689e-13
-2.39438e-13
-2.32413e-13
-2.22732e-13
-2.20732e-13
-2.16089e-13
-2.19929e-13
-2.1363e-13
-2.00835e-13
-1.84494e-13
-1.73155e-13
-1.79898e-13
-1.77421e-13
-1.69795e-13
-1.63349e-13
-1.56578e-13
-1.47129e-13
-1.37892e-13
-1.26937e-13
-1.16847e-13
-1.04754e-13
-9.70943e-14
-9.56169e-14
-8.9831e-14
-7.86904e-14
-6.96026e-14
-6.37937e-14
-5.48751e-14
-4.3666e-14
-3.99965e-14
-3.15069e-14
-1.58599e-14
-4.99119e-15
2.28913e-15
-7.34137e-16
-7.16309e-13
-7.18594e-13
-7.1819e-13
-7.11795e-13
-7.052e-13
-7.05507e-13
-7.02708e-13
-6.98578e-13
-6.96272e-13
-6.90467e-13
-6.86399e-13
-6.80547e-13
-6.70768e-13
-6.60244e-13
-6.51676e-13
-6.43193e-13
-6.36658e-13
-6.31754e-13
-6.20882e-13
-6.01589e-13
-5.80229e-13
-5.65749e-13
-5.62989e-13
-5.64195e-13
-5.62689e-13
-5.55468e-13
-5.4622e-13
-5.42931e-13
-5.36934e-13
-5.3683e-13
-5.35213e-13
-5.17592e-13
-5.04358e-13
-4.96162e-13
-4.87179e-13
-4.83655e-13
-4.80726e-13
-4.75413e-13
-4.69877e-13
-4.61426e-13
-4.53805e-13
-4.42652e-13
-4.35606e-13
-4.30549e-13
-4.28138e-13
-4.17558e-13
-4.09886e-13
-3.96118e-13
-3.92427e-13
-3.8364e-13
-3.7084e-13
-3.64794e-13
-3.5828e-13
-3.49289e-13
-3.39508e-13
-3.25029e-13
-3.12339e-13
-3.16924e-13
-3.22138e-13
-3.12514e-13
-3.01981e-13