/*--------------------------------*- C++ -*----------------------------------*\
| =========                 |                                                 |
| \\      /  F ield         | OpenFOAM: The Open Source CFD Toolbox           |
|  \\    /   O peration     | Version:  v2012                                 |
|   \\  /    A nd           | Website:  www.openfoam.com                      |
|    \\/     M anipulation  |                                                 |
\*---------------------------------------------------------------------------*/
FoamFile
{
    version     2.0;
    format      ascii;
    class       volScalarField;
    location    "0";
    object      p;
}
// * * * * * * * * * * * * * * * * * * * * * * * * * * * * * * * * * * * * * //

dimensions      [0 2 -2 0 0 0 0];


internalField   nonuniform List<scalar> 
4000
(
0.243983
0.250109
0.130207
-0.114398
0.0462616
0.0599005
0.0356514
0.0499067
-0.0164156
0.0296501
0.19892
0.321704
0.325992
0.164949
0.0998691
0.0600096
-0.0870493
-0.192572
-0.289251
-0.207719
-0.259452
-0.0750413
-0.0414292
-0.0501372
-0.0354412
-0.0644197
0.0187991
0.103186
0.103509
0.09141
0.140918
0.223995
0.257826
0.174625
0.0636143
-0.00742582
-0.235602
-0.151028
0.0707097
-0.0790987
-0.0723849
-0.0107494
-0.171809
-0.0931009
-0.0227116
0.0701739
-0.108967
-0.130008
-0.0270196
0.00351229
0.0149644
-0.016639
-0.079087
-0.0590288
-0.0794246
-0.185582
-0.436397
-0.292333
-0.127316
0.0615833
0.123843
-0.0654443
-0.106599
-0.137982
-0.105848
0.102785
0.256886
0.191063
0.0569285
0.0739432
0.0170198
-0.0767246
-0.122883
-0.175876
-0.0229424
0.0445323
0.107822
0.0833335
0.0700727
-0.0655296
-0.0377086
0.152756
0.0096425
0.0403955
0.00903027
0.0744354
-0.0388411
-0.00694491
0.0791959
0.137964
0.0831886
-0.0366014
0.112454
0.0600167
0.0693249
0.107624
0.231088
0.0346554
0.188405
0.111118
0.190422
0.172038
0.117057
0.0239079
-0.0344959
0.0796802
0.0495191
0.0761777
0.0136736
0.052876
0.124195
0.356828
0.307198
0.12168
0.0716704
0.0220414
-0.0588296
-0.138907
-0.244484
-0.199397
-0.261374
-0.150025
-0.0475818
-0.0298871
0.00777566
-0.03162
0.124453
0.0421656
0.0699244
0.103048
0.125653
0.20587
0.171398
0.141918
0.117317
0.0493003
-0.142335
-0.128868
-0.0726726
-0.179873
-0.0954257
-0.0194335
0.0023019
-0.00796576
-0.0254694
0.00547185
-0.109034
-0.182438
-0.0667225
0.0543994
0.0222793
-0.0487243
-0.03375
0.0334569
-0.14115
-0.246497
-0.303584
-0.247163
-0.145423
-0.0588024
0.106536
-0.0872557
-0.100561
-0.129478
-0.040725
0.087751
0.229063
0.149435
0.106213
0.0640645
0.0116822
0.0182765
-0.0687115
-0.208444
-0.104314
0.0614331
0.0653747
0.0730164
0.04748
-0.0338711
0.0556932
0.0784288
0.0501385
0.0899343
0.0304968
0.0575377
-0.105463
0.129316
0.123215
-0.0312474
0.0487459
-0.0149943
0.148151
0.112018
0.0339589
0.15008
0.204454
0.11375
0.13843
0.0907996
0.104503
0.0792594
0.106215
0.0610879
0.011635
0.0283672
0.0333383
0.0772341
0.0862036
0.0362274
0.0580049
0.305732
0.311983
0.149506
0.0439152
0.01112
-0.0815727
-0.132529
-0.185284
-0.189617
-0.23267
-0.109285
-0.0456852
-0.0640484
0.00795785
0.128437
0.11992
0.00844779
0.0320856
0.0524804
0.0678146
0.178766
0.168738
0.221262
0.210457
0.137027
-0.131177
-0.152521
-0.118966
-0.119101
-0.100174
-0.0387296
-0.0504668
0.0713958
-0.017442
0.0146021
-0.130572
-0.158699
-0.00895774
0.0156145
0.0735022
0.0280158
-0.0543606
-0.0245725
-0.0483412
-0.139495
-0.301969
-0.22312
-0.181715
-0.0465059
0.0242591
-0.0289324
-0.0947544
-0.0988837
-0.0105798
0.100475
0.144283
0.20216
0.0394955
0.0693671
0.00789368
-0.0287185
-0.153771
-0.220424
-0.0929506
0.0120075
0.0604308
0.0127472
0.0550915
0.0524643
0.065343
0.0808683
0.102193
0.142545
-0.00194662
0.0214067
-0.0230971
0.101645
0.0955115
0.0347222
-0.0056006
-0.0649985
0.123441
0.122411
0.0612668
0.195028
0.215452
0.154822
0.113296
0.0457594
0.0590303
0.0860803
0.0795099
0.041461
0.0596686
0.0683016
0.0442858
0.079387
0.0753746
0.0495133
0.119255
0.286525
0.239267
0.0191017
0.0524687
0.0624366
-0.0892719
-0.0409427
-0.121978
-0.257526
-0.228747
-0.086531
0.00554213
-0.0189752
0.0344938
0.0918767
0.0946258
0.0214895
0.0460528
0.00305136
-0.0461507
0.0274799
0.146937
0.123648
0.15776
0.129246
0.031099
-0.100467
-0.170471
-0.170792
-0.0219386
-0.0820185
-0.0180335
0.0977333
-0.0576946
0.0121476
-0.041289
-0.160889
-0.0609893
-0.000686833
0.0796454
0.0190484
-0.0302495
-0.0289533
-0.0341973
-0.0732863
-0.230376
-0.145603
-0.104881
-0.115015
-0.0564766
0.00380558
-0.0529002
-0.0550469
0.0734169
0.0087022
0.130472
0.174967
0.0802299
0.00618059
-0.0183411
-0.0150024
-0.221176
-0.180499
-0.0959626
-0.0254707
-0.0537217
0.00883035
0.0215689
0.133297
0.12713
0.107371
0.0638521
0.0796192
9.78035e-05
-0.0111227
0.0192122
0.147893
0.0827649
-0.0789919
0.0257903
0.0263716
0.114511
0.0663883
0.0591142
0.242771
0.29728
0.156227
0.119295
0.04505
0.0364475
0.0320091
-0.0200505
0.0976724
0.0966808
-0.0324535
0.0129993
0.0519854
0.105816
0.0883706
0.0820101
0.232457
0.182434
0.119761
0.0263649
0.0177796
-0.0993334
-0.125659
-0.11752
-0.170322
-0.17104
0.0321976
0.0135162
0.0134228
0.100766
0.0114408
0.00133638
-0.00697504
-0.033996
-0.0385518
-0.0772589
-0.0990608
0.15242
0.170127
0.16926
0.103422
-0.016844
-0.0886759
-0.0341192
-0.0558757
-0.0125679
-0.10716
-0.0485722
0.115385
-0.00377821
-0.0341063
-0.0649479
-0.121714
-0.0157302
0.007256
0.130075
0.0177319
0.0815595
-0.0369911
-0.0751584
-0.0128124
-0.112162
-0.137938
-0.217611
-0.0344316
-0.0218154
-0.000581978
-0.0307121
0.0018859
0.0864482
0.0769792
0.00618478
0.109369
0.06401
-0.044076
-0.00703931
-0.0660081
-0.262145
-0.166768
-0.13764
-0.109166
-0.0828798
-0.018882
0.0616842
0.110522
0.0836477
0.112663
0.0402308
0.0289178
-0.0611322
0.0840381
0.137028
0.172039
0.0351037
-0.040834
-0.0090807
0.00732505
0.0363728
0.0815547
0.0479984
0.247988
0.271682
0.21289
0.105211
0.0562114
-0.0485285
0.0069465
0.0437717
0.00324055
0.0869692
0.0213753
0.0493418
-0.00021445
-0.0381027
-0.0241498
0.0876477
0.210892
0.190106
0.0732678
0.0142832
0.0591761
-0.125032
-0.067947
-0.0892801
-0.0598003
-0.0430633
-0.0565342
-0.00199667
0.0147988
0.0715701
0.0869863
-0.0333489
-0.0685916
-0.0626498
-0.0742518
-0.0784864
-0.138423
0.0353171
0.0847028
0.0501037
0.084738
-0.028845
-0.0164871
-0.00730642
-0.0410796
-0.0232507
-0.0833686
-0.0540358
0.013249
-0.0460925
0.00782869
0.0462739
-0.10428
-0.0785847
0.0630997
0.123226
0.0965942
0.127518
0.0905622
0.0285835
-0.043473
-0.175699
-0.0658544
-0.1243
-0.0678833
-0.0802142
-0.00509024
-0.0542328
0.0352795
0.141744
0.086004
0.0545558
0.0598998
0.041475
-0.0402361
-0.0434188
-0.072539
-0.211101
-0.174222
-0.170447
-0.186175
0.00951752
0.00598685
0.0485128
0.00248211
0.0890853
0.0227434
0.0186507
0.0366635
0.026092
0.092317
0.10266
0.126693
-0.146022
0.0173121
0.110433
-0.0414703
-0.00862497
-0.0179823
0.0586778
0.253736
0.338274
0.175815
0.115837
0.0331081
-0.0701635
-0.100673
0.0731568
0.0113107
-0.0524634
0.00199066
-0.10766
0.0194166
-0.0903075
0.025554
0.0995525
0.0533265
0.0624983
0.155014
0.109617
-0.066838
-0.019446
0.0110481
-0.11611
-0.177738
-0.159955
-0.0643419
0.145034
0.197766
0.035722
-0.0709041
-0.0874979
-0.0131389
-0.121516
0.0372398
-0.135844
-0.172914
-0.0197452
0.120809
0.0945874
0.0435153
0.0192289
0.0353405
-0.0841775
-0.0216833
-0.0569157
-0.0532989
-0.0671697
0.0902213
-0.0220877
-0.0246474
-0.0566828
-0.0317169
0.00538834
0.163228
0.0995367
0.219974
0.107268
0.0981287
0.106489
-0.0272701
-0.0801167
-0.0913196
-0.0870926
-0.0355335
-0.0925137
-0.025973
0.0246992
0.0969185
0.0711502
0.061957
0.050576
0.0573744
0.00710779
-0.0162716
-0.0729745
-0.116478
-0.151723
-0.10769
-0.138688
-0.13546
-0.066271
-0.0381822
-0.0768257
-0.0216737
0.04431
0.0060013
-0.0257899
0.0415775
0.0274215
0.10393
0.0358614
0.027581
-0.0264203
-0.00035988
0.0169415
-0.105474
-0.0255336
0.00378296
0.0292878
0.315701
0.290617
0.14305
0.0915581
0.0089161
-0.0615025
-0.0877802
-0.0867752
0.0702858
-0.0410423
-0.0970145
-0.1006
0.0130082
-0.129292
-0.0268998
0.0213144
-0.0286945
0.0493262
0.0771237
0.0413451
0.049936
0.00990538
-0.00763633
-0.0784248
-0.0680079
-0.0635181
0.0838841
0.101741
0.103157
-0.0191003
-0.108988
-0.147164
0.028786
-0.0103843
-0.00724158
-0.153035
-0.247037
-0.123994
0.14141
0.121641
0.0609611
-9.1542e-05
-0.0402162
-0.101391
-0.0460777
-0.103642
-0.00862418
-0.0639325
0.139787
0.110076
-0.0316233
0.0107247
-0.0873277
0.0763981
0.0756653
0.119304
0.183331
0.194741
0.109634
0.132416
-0.0564953
-0.162575
-0.114451
-0.137277
0.00159369
-0.030985
0.0877858
0.0575066
0.0432674
0.060343
0.0246305
0.0515369
0.0832296
0.00802002
-0.0162413
-0.0644994
-0.0952128
-0.167334
-0.121612
-0.0607732
-0.0760095
-0.0351768
-0.0498288
-0.0470836
0.0123241
0.00579202
-0.0262982
-0.0591667
-0.0447224
-0.00393689
0.0716865
0.0174104
0.0315379
-0.0238075
-0.0428583
-0.0148966
-0.118176
-0.0307001
-0.00147963
0.141581
0.301412
0.253907
0.164918
0.104435
-0.0313462
-0.039236
-0.0776772
-0.135125
-0.0414259
-0.0268804
-0.126359
-0.138017
-0.0666394
-0.0670322
-0.0577546
-0.123546
-0.145307
0.0342108
0.124049
0.148357
-0.0218839
0.00554135
-0.0108636
-0.0634864
-0.119051
-0.0257337
-0.0378174
0.214772
0.210285
-0.0392799
-0.178412
-0.157183
-0.00994626
-0.077962
-0.114994
-0.188428
-0.105991
0.0210859
0.137291
0.133014
0.171659
0.063342
-0.00528061
-0.164143
-0.133906
-0.100767
-0.0129232
-0.0197185
0.036144
0.131612
0.0139986
0.0438111
-0.00351305
0.0712563
0.0797232
0.174236
0.182289
0.0701636
0.125751
0.112345
-0.0836241
-0.0825022
-0.0115857
-0.0625216
-0.0394772
-0.00534601
0.0505911
0.00692775
0.0301008
0.158752
0.0184327
-0.0188457
0.00170185
0.0134839
-0.0831189
-0.0469274
-0.0450731
-0.0991928
-0.0701616
-0.0277506
-0.0306539
-0.0876327
-0.0512167
0.0160123
0.0296854
-0.119056
-0.071329
-0.0617782
-0.00165258
0.0237377
0.00126028
-0.0585699
0.0570616
0.0501949
-0.0528196
-0.0570636
-0.187186
-0.0463625
0.0346987
0.158666
0.185075
0.18592
0.192626
0.134441
-0.0180023
-0.157513
-0.122779
-0.0926564
-0.160663
-0.0653479
-0.0839868
-0.0852114
-0.020074
-0.0214438
-0.117879
-0.295343
-0.155756
0.0442725
0.063765
0.0787407
0.0482795
0.0472544
-0.0185026
-0.0146852
-0.108492
0.0489308
0.132581
0.146228
0.0909185
-0.205467
-0.195992
-0.0862706
-0.0661017
-0.036685
-0.13945
-0.210497
-0.044958
0.0818003
0.0484052
0.199825
0.232258
-0.0190992
-0.0422889
-0.111368
-0.0838973
-0.00532937
-0.00698333
0.0384607
0.0489428
0.0636394
0.0410656
0.0836637
0.0235399
0.0752607
0.0528896
0.169404
0.219285
0.0138411
0.103271
0.0629954
-0.0270974
0.0540567
-0.0853177
-0.135755
-0.0566731
-0.0140937
0.0517509
-0.00780169
0.0850581
0.0878606
0.10347
-0.143655
-0.0551775
0.00082284
-0.0599725
-0.0101209
-0.0644725
-0.0502573
-0.0107231
-0.0497135
-0.0240556
0.0069033
0.0550432
0.0290451
0.0277218
-0.144999
-0.0941004
-0.18455
-0.0913605
0.00288703
0.0329555
-0.00843254
0.0660059
0.0218911
-0.0874756
-0.119598
-0.178443
-0.0530953
0.0538542
0.208604
0.111741
0.125362
0.182873
0.0809618
-0.0359766
-0.153578
-0.133101
-0.168234
-0.169725
-0.0774661
-0.0685405
-0.166729
-0.0126236
-0.0860146
-0.150799
-0.211344
-0.161383
-0.0570303
0.103053
0.107449
-0.00270577
0.00925273
-0.141319
-0.0514064
-0.0418627
0.175529
0.0636841
0.14062
0.0911489
7.03203e-05
-0.122059
-0.0821462
-0.135376
-0.220049
-0.184441
-0.0714423
0.00286583
-0.0226288
0.134415
0.296953
0.130274
-0.0020408
0.0127711
0.00191184
-0.0939005
-0.135408
0.0462369
0.0548466
0.158236
0.131341
0.0324756
0.0649628
0.102266
0.11692
0.0174903
0.153477
0.14341
0.0483968
0.0480326
0.0621716
-0.00879139
0.0521129
-0.0139535
-0.103035
-0.00845995
-0.0311
-0.120457
-0.00223044
0.144804
-0.0396301
-0.104941
-0.093115
0.0315028
-0.00266972
0.0147732
0.0525936
-0.00738103
-0.0710227
0.0678359
0.0108338
-0.0417898
0.0825888
0.0888561
0.0514183
-0.0931426
-0.0673329
-0.109317
-0.173259
-0.0826423
-0.0590878
-0.0735953
-0.00762211
0.0782787
-0.00062556
-0.0845534
-0.129863
-0.214532
-0.138214
0.0174472
0.100415
0.0411847
0.167734
0.205771
0.0338937
-0.0299924
-0.110051
-0.158966
-0.140468
-0.105415
-0.141881
-0.146144
-0.0173139
-0.0750759
-0.119904
-0.147807
-0.0996207
-0.0168254
-0.150745
-0.144646
0.0126025
0.0843505
0.0758438
-0.0681493
0.00373132
0.00858306
0.175846
0.0816475
0.0157911
0.0019219
-0.0309129
0.0332906
-0.0830922
-0.186153
-0.188516
-0.101411
-0.108728
-0.00456861
0.0950831
0.147189
0.169849
0.150244
0.0715947
-0.0125707
0.0710691
-0.0296909
-0.105525
-0.0160793
0.0957252
0.146122
0.109463
0.0641559
0.100036
0.0282654
0.060224
0.00446486
0.15773
0.245371
0.0561827
0.0320173
0.0452112
0.0376535
0.039513
-0.0294746
-0.114745
-0.0238147
-0.0887821
-0.032512
-0.0182026
0.0138989
-0.0144354
0.0226882
-0.0680788
0.019103
0.0444338
0.115608
0.124115
-0.0871751
0.0576252
0.0247801
0.00415686
-0.0625346
0.0199757
0.0700452
0.0730515
0.0334723
-0.0403706
-0.0515755
-0.134217
-0.237294
-0.0373279
0.0253329
-0.125056
0.00219886
0.0248609
-0.109994
-0.132637
-0.259627
-0.164209
-0.0464566
0.0623658
0.146732
0.148091
0.180945
0.00872763
-0.0461397
-0.0914094
-0.137539
-0.143947
-0.105057
-0.148231
-0.149264
-0.0820246
0.0493304
-0.0234219
-0.0683465
-0.0881935
-0.0359284
-0.142943
-0.153426
-0.0257602
0.03782
0.012576
-0.0128736
-0.027158
-0.0457179
0.0568369
0.201128
0.171951
0.104417
-0.0807091
-0.155993
-0.180883
-0.146348
-0.114842
-0.0249528
-0.0376006
-0.100896
0.0624495
0.160896
0.226404
0.0702135
0.0158536
0.0976875
0.147486
-0.0446969
-0.108967
-0.0473637
0.0519265
0.13852
0.169232
0.0620494
0.0713583
0.0421445
0.0398075
0.0760218
0.188387
0.171717
0.0207436
0.0603599
0.0589384
0.0404216
-0.0348925
-0.0709641
-0.147874
-0.079098
-0.0366411
-0.0390165
-0.0552996
-0.0227949
-0.0374893
-0.0126269
-0.00352565
0.0544796
0.149777
0.126422
0.173115
0.0306503
0.037281
0.123691
-0.0224003
-0.0889003
0.116108
0.185033
-0.0376193
0.123027
-0.0568812
-0.134893
-0.240138
-0.182291
-0.071645
-0.0407583
-0.101496
-0.00842474
-0.00799382
-0.115431
-0.145831
-0.231613
-0.21235
-0.0186274
-0.00769277
0.00835451
0.0140772
0.226916
0.0179903
-0.0536567
-0.0808475
-0.0923021
-0.174771
-0.0783744
-0.121636
-0.0564814
-0.11449
-0.0530814
0.00301487
-0.0550199
-0.104989
-0.0560311
0.139172
0.0183348
-0.0301726
-0.132992
-0.10058
0.00259029
0.0664447
0.0698328
0.0495228
0.128433
0.0591911
0.0214517
-0.0167999
-0.171743
-0.162469
-0.0641419
-0.169619
-0.065189
-0.0966185
0.0469645
0.0956296
0.168567
0.234606
0.127101
0.122683
0.0957171
0.0927307
-0.030731
0.0190832
0.0533576
-0.00354026
-0.0576651
0.0937842
0.0969039
0.0922931
0.0123801
-0.0612003
0.123849
0.0885806
0.0400743
0.100126
0.0200199
-0.0256794
0.0753648
0.166093
-0.0892447
-0.13799
-0.0613316
-0.0980233
-0.189234
-0.0148159
-0.00671804
-0.0946629
0.0037747
0.0531928
0.0947424
0.130297
0.173628
0.220479
0.172829
0.106225
0.0794377
-0.0175119
0.0169051
0.0243838
-0.0237755
-0.0331966
0.0161036
-0.000770275
-0.0774781
-0.252291
-0.114466
-0.136659
-0.145559
6.45209e-05
0.0176314
-0.0509407
-0.0409694
-0.218388
-0.173236
-0.195913
-0.0663288
-0.0506167
-0.0728506
-0.0487854
0.140786
0.0314298
-0.0323746
-0.0808954
-0.136833
-0.146948
-0.0156013
-0.0913515
-0.0981387
-0.0802762
-0.00250185
-0.0283489
0.030035
0.0492088
0.0187059
0.0884641
-0.0733053
-0.126087
-0.213892
0.0144428
0.0761032
0.0375175
-0.0116122
0.00297262
-0.0970454
0.0623906
0.172747
0.0201296
-0.116001
-0.202594
-0.138516
-0.0244894
0.0329178
-0.10131
0.0754068
0.103538
0.163281
0.215745
0.0719058
0.113933
0.233744
0.111872
-0.118912
-0.0785255
0.0420011
0.0875278
0.0344616
0.0460409
-0.0703517
-0.0239725
0.0218887
-0.0825061
0.106698
0.144834
0.11939
0.0509387
-0.0751003
0.0355024
0.045815
0.102265
0.0245294
-0.148425
-0.111167
-0.121052
-0.116952
0.0298361
-0.0652958
-0.0616092
0.0394825
0.0799017
0.019776
0.138937
0.123502
0.204164
0.26532
0.168998
0.0528135
-0.01808
-0.0608368
0.00777794
-0.0715506
-0.00591396
0.0466182
0.0113658
-0.114794
-0.219073
-0.199573
-0.156483
-0.128825
-0.00171271
0.088355
-0.0623005
-0.0695298
-0.132922
-0.201596
-0.154285
-0.252778
-0.208129
-0.178686
-0.0175857
0.0602239
0.157417
0.0112324
-0.0816587
-0.109903
-0.0185827
0.0013954
-0.171663
-0.0436157
-0.0323745
0.0316104
0.0317131
0.053476
0.0564567
0.0531496
0.0174113
-0.0445674
-0.0758696
-0.18033
-0.125961
0.0686407
-0.0555721
0.048906
0.124938
0.087569
0.0329009
-0.159545
-0.00988223
0.0925437
-0.0693018
-0.0514863
-0.0748312
-0.0114772
-0.129946
0.0168096
0.103946
0.129877
0.169182
0.226912
0.215377
0.29468
0.038739
-0.123284
-0.0370999
-0.0374672
0.0337536
-0.0503367
-0.00593964
-0.0803819
-0.0778569
0.123388
-0.0964926
-0.0403383
0.0507702
0.00973342
0.0912009
-0.00469358
0.0304563
0.0248265
0.113696
0.0600601
-0.0754178
0.0568603
-0.0802204
-0.13236
-0.0885769
-0.135509
-0.081941
-0.0165741
0.0844075
0.125495
0.0837115
0.125833
0.163185
0.24893
0.268394
0.0993672
-0.0977508
-0.0885361
-0.00198862
-0.0854772
-0.0450876
-0.0260993
0.00946804
-0.176104
-0.0938896
-0.0637536
-0.112627
-0.130206
-0.0313477
0.12109
0.0325191
-0.0197646
-0.229237
-0.240984
-0.1928
-0.306007
-0.21905
-0.158753
-0.0342748
0.0985722
0.0859937
0.0251261
-0.0124181
-0.0230458
-0.0929283
-0.0474084
-0.0600768
-0.0357357
0.00258857
-0.0308087
0.0829418
0.138968
0.120342
0.0841121
-0.0287952
-0.108923
-0.0807548
-0.104203
-0.168523
-0.0574857
0.103843
0.0347942
0.0753454
0.024018
0.00272992
-0.0685146
-0.0510524
-0.0580337
-0.0568247
0.0328879
-0.00878165
0.00168499
-0.0192087
0.0155658
0.0536431
0.159862
0.230683
0.230576
0.211356
0.152556
0.0183377
-0.0649145
-0.0161293
-0.0985352
-0.0756781
-0.061538
-0.0561784
-0.0833946
-0.110117
0.0890607
0.033302
0.0334095
0.0357436
0.0350162
0.0787919
0.0760693
0.0716975
-0.0156956
0.0729554
0.0777332
0.0303998
-0.0569822
-0.160077
-0.0268532
-0.0670365
-0.1452
0.00969913
-0.0777007
0.0197857
0.0864735
0.0602384
0.185307
0.231702
0.309429
0.220336
0.0684692
-0.144487
-0.0315773
-0.0517699
-0.0164852
-0.0647123
-0.0958404
-0.0766754
-0.22128
-0.112028
-0.139509
-0.0857346
0.000578165
-0.00948328
0.112859
0.0247321
-0.0755895
-0.143242
-0.320399
-0.218789
-0.34585
-0.228219
-0.0637516
0.000591283
0.0783083
0.119353
-0.0357223
-0.0411376
0.00219638
-0.0767197
-0.00692768
0.0285956
-0.0078044
-0.0155696
-0.0454217
0.03762
0.193046
0.175709
-0.00222318
-0.0180505
-0.0700557
-0.0741772
-0.0490271
-0.18224
-0.146186
0.0360366
0.0819051
0.132088
0.0842584
0.0218207
-0.0259861
-0.0817012
-0.0488173
-0.0277317
0.0458224
0.106135
-0.0505969
-0.0825035
-0.000311986
0.0815404
0.0742237
0.129339
0.169298
0.228249
0.204365
0.0288083
0.0199121
-0.0487067
-0.029418
-0.0168794
-0.222254
-0.083245
-0.0403398
-0.0229819
-0.017293
0.0400572
0.0801502
-0.02152
0.0255298
0.0347628
0.0968824
0.137662
0.0772086
0.10566
0.145129
0.101486
0.0100876
-0.180997
-0.0972123
-0.06548
-0.0599017
0.0153504
-0.136555
-0.0360876
0.10476
0.0186883
0.197105
0.308329
0.281661
0.24499
0.0953886
-0.12761
-0.105002
-0.142798
-0.0432072
0.00264949
-0.116897
-0.0954584
-0.158262
-0.135678
-0.0735365
0.0670983
0.00827453
0.00850627
0.163459
0.0609163
-0.100095
-0.295957
-0.306199
-0.209054
-0.220626
-0.196012
-0.0669881
0.0622943
0.0813162
0.0589075
-0.0819261
-0.00581641
0.0122372
-0.0378944
-0.0575568
-0.0243882
-0.0231628
0.0410678
0.0660776
0.0826019
0.150387
0.0941479
0.0282746
0.0304135
-0.0955151
-0.142637
-0.0664088
-0.0627148
-0.26353
-0.00434127
0.26092
0.200633
0.0398882
-0.0865606
0.00119169
-0.00950621
-0.0237028
-0.0608504
0.04788
0.0404245
-0.0602539
0.0156369
0.0738579
0.0857156
0.182686
0.022481
0.124139
0.237414
0.148129
0.0572367
-0.0765185
-0.11538
-0.0582351
-0.0410264
-0.0675162
-0.102819
-0.0691151
-0.0987258
0.00300755
0.123932
0.0700954
-0.00201152
-0.0150963
0.0964756
0.199211
0.107727
0.0501864
0.140436
0.107422
0.0917698
0.0450681
0.0229067
0.0734564
-0.0599021
-0.156666
-0.213259
-0.220475
-0.0564054
0.158804
0.11403
0.142697
0.28548
0.344819
0.268152
0.125034
-0.160273
-0.189516
-0.0764909
-0.00766455
-0.0994219
-0.133062
-0.145199
-0.0865265
-0.0634165
-0.0420123
0.000210576
0.0892589
0.104511
0.110773
0.0514378
-0.0693481
-0.184965
-0.210226
-0.234822
-0.215386
-0.113372
-0.0622054
0.000445692
-0.0143144
0.0782896
-0.0354593
0.0513274
0.00511851
0.00460058
0.00148226
-0.119155
0.0300386
0.0404596
-0.0143753
0.186321
0.151719
0.0491267
0.0278434
0.0441516
-0.102889
-0.116067
-0.135237
-0.171872
-0.168272
0.0654711
0.18891
0.228387
0.110084
0.00030957
0.0615878
-0.0431917
-0.0325178
0.0194954
0.0431123
-0.0095104
-0.214944
-0.0241592
0.00315134
0.185061
0.170661
-0.000192164
0.0892453
0.157966
0.0290241
0.00933505
0.0154719
-0.0364899
-0.0603571
-0.0887933
-0.0627636
0.00588528
-0.0754513
-0.106016
-0.0709174
0.103097
0.0265342
0.0106652
0.0551341
0.0951593
0.158058
0.185457
0.0973106
0.191934
0.183973
0.0941931
0.0513256
0.0904785
0.0194111
-0.13896
-0.132736
-0.284255
-0.220762
-0.0717444
0.104145
0.131054
0.21359
0.301197
0.391193
0.246674
0.129679
-0.0797092
-0.162916
-0.0654255
-0.167748
-0.129425
-0.0922502
-0.205049
-0.0646298
-0.070828
0.104757
0.126139
0.0817663
0.182829
0.185064
0.00296718
-0.0831318
-0.145976
-0.164824
-0.287913
-0.194986
-0.0637878
0.0254571
-0.00171498
0.043751
0.0833173
0.0062405
0.110433
0.0901252
0.0312049
-0.0751585
-0.0887606
-0.0463271
0.0268702
0.0533378
0.170347
0.18697
0.0786487
0.0642557
0.0159981
-0.0198617
-0.12816
-0.194495
-0.19533
-0.0942171
0.0246955
0.142237
0.262312
0.166086
-0.0595257
-0.0169226
0.0847244
0.108902
-7.61926e-05
-0.0751282
-0.0893577
-0.149931
-0.0969149
0.0209997
0.138078
0.160328
-0.0225292
0.0476546
0.0319799
-0.0102331
-0.0111779
0.0760024
0.0221176
-0.161628
-0.134542
-0.0552044
-0.0839887
-0.057317
-0.0931419
-0.0194738
0.160462
0.0343651
-0.0087683
0.0908822
0.0463306
0.203513
0.136823
0.162354
0.122224
0.0635913
0.0821338
0.178586
0.122192
-0.00749457
-0.245192
-0.213006
-0.210423
-0.156418
-0.0880715
0.0356432
0.191704
0.224578
0.282347
0.240002
0.354064
0.21094
0.0286049
-0.146999
-0.0533768
-0.127674
-0.139343
-0.0429656
-0.10048
-0.150037
-0.132976
0.105725
0.146218
0.153895
0.177084
0.190024
-0.0229791
-0.0246547
-0.0707486
-0.0759987
-0.180355
-0.159039
-0.0045892
-0.0238851
-0.00955329
0.179841
0.0262046
-0.00416921
0.157611
0.200956
0.0339576
-0.0835553
-0.098231
0.0039472
0.0830641
0.166205
0.17498
0.171197
-0.00210536
0.000871374
0.0950209
0.0453463
-0.0612216
-0.282473
-0.218895
-0.137217
0.080132
0.0819333
0.241741
0.173064
-0.0329987
0.0154595
0.0834212
0.0762954
-0.0379788
-0.0346863
-0.15078
-0.194635
-0.0964697
0.0547227
-0.0281149
0.05436
0.0566091
0.110569
0.0929899
-0.01665
0.0255051
0.0112329
-0.0292349
-0.102267
-0.108731
-0.0899034
-0.113728
-0.169608
-0.0394281
0.0447815
0.109568
0.00231925
0.0264954
0.144485
0.0849161
0.101519
0.184024
0.119479
0.129815
0.114426
-0.0148434
0.203416
0.272465
-0.0758965
-0.184296
-0.245048
-0.196816
-0.149553
-0.161826
-0.039738
0.141085
0.257099
0.318774
0.227201
0.331761
0.133001
0.0707468
0.018493
-0.0517926
-0.143394
-0.186528
-0.104857
-0.0137879
-0.0754177
-0.017263
0.204629
0.228493
0.219027
0.213471
0.0915209
0.0257429
0.00828327
-0.0474691
-0.0978155
-0.101068
-0.0607837
-0.0447105
-0.103862
0.0908432
0.194545
0.0187595
0.00308517
0.127244
0.189262
0.132076
-0.0550706
-0.085749
0.0152192
0.0313629
0.0727271
0.21572
0.122531
0.123139
0.209444
0.00974588
-0.0488613
-0.0798457
-0.188754
-0.2092
-0.204352
0.108112
0.0879757
0.0753141
0.152941
-0.00542232
0.0699171
0.180232
0.0446833
-0.0678542
-0.104343
-0.212708
-0.116319
-0.192451
-0.038861
-0.0133298
0.0945854
0.119821
0.0135428
-0.00641202
0.0132105
0.0915543
0.0293591
-0.0936072
-0.157138
-0.128919
-0.152017
-0.11586
-0.176303
-0.0767447
-0.0110005
0.156909
-0.0519158
0.0716425
0.112348
0.000775181
0.0463023
0.105402
0.152049
0.162917
0.0929805
-0.0418533
0.231413
0.231206
-0.0631413
-0.22488
-0.149834
-0.220808
-0.227568
-0.113463
-0.116771
0.119567
0.166489
0.229847
0.233305
0.329056
0.177658
0.0556978
0.0883468
-0.072278
-0.10617
-0.0241448
-0.087351
0.0272302
-0.083985
-0.000470531
0.0812644
0.274097
0.190529
0.163579
0.246523
0.0130528
0.00443774
-0.0644053
-0.0521618
-0.0913656
-0.0656965
-0.00790353
-0.00898429
0.0705315
0.156422
0.0253775
0.00106623
0.199364
0.166179
0.0355222
-0.0547812
0.0365297
0.118581
0.0819285
0.205862
0.219839
-0.0203083
-0.0556294
0.249436
0.0202903
-0.172266
-0.13611
-0.22185
-0.0469804
-0.171473
-0.00168298
0.017854
0.068359
0.102174
0.0747371
0.0593967
0.159026
0.0535554
-0.0760437
-0.11974
-0.0500847
-0.102225
-0.156218
-0.160176
-0.0291803
0.105367
0.113062
0.0793886
0.0314203
0.0131971
0.0149129
-0.00503523
-0.0893649
-0.11087
-0.220583
-0.206763
-0.18667
-0.181502
-0.00946063
0.105674
0.0848027
0.0248702
0.0258825
-0.0417072
0.0208672
0.0662662
0.118394
0.188962
0.151546
0.0766376
-0.00588449
0.106994
0.183775
-0.0586273
-0.175571
-0.137979
-0.239435
-0.261165
-0.318375
-0.115054
0.227133
0.356578
0.213759
0.191346
0.213175
0.148099
0.0739974
0.020912
-0.0239694
-0.21829
-0.17012
0.0755493
0.083145
0.064968
0.112222
0.151303
0.235328
0.163136
0.171369
0.192427
0.158209
-0.00532769
-0.0489755
-0.0563239
-0.128943
-0.0561416
0.0618213
0.0819277
0.114755
0.0999529
0.100409
0.100625
0.235844
0.223394
0.0808412
-0.0526927
0.0445678
0.134325
0.0247876
0.108947
0.185202
0.132561
0.0360657
0.106032
0.114512
-0.0828502
-0.318599
-0.212659
-0.105815
0.00543695
0.0101206
0.00116241
-0.0289517
-0.0162062
0.0736732
0.0764557
0.166458
0.0582929
-0.0356377
-0.127916
-0.262903
-0.159905
-0.0578909
-0.0769576
-0.0606092
-0.102784
0.111796
0.123413
0.0889743
-0.0529164
0.0601288
0.064345
-0.194676
-0.234398
-0.216647
-0.195393
-0.197548
-0.114092
-0.00527909
0.0322417
0.0421292
0.0191846
0.0274778
-0.0294341
0.073004
0.0784695
0.0419647
0.0550703
0.0417885
0.177041
0.0894387
0.08068
0.0732924
-0.0999915
-0.119526
-0.239373
-0.319863
-0.286395
-0.167846
-0.137013
0.0824464
0.314491
0.227938
0.161122
0.166822
0.162298
0.104246
0.0122153
-0.0910685
-0.172776
-0.201609
-0.0170549
0.0489054
0.11581
0.167583
0.141684
0.255565
0.104392
0.168309
0.23949
0.198794
0.0896077
-0.135797
-0.113363
-0.0921412
-0.0461129
-0.0349761
0.0881723
0.117111
0.192554
0.135857
0.114977
0.171528
0.169243
0.046449
0.0234722
0.0731561
0.0701992
0.134853
0.108668
0.185828
0.0718429
-0.0136532
0.0273739
0.122057
-0.0676795
-0.295337
-0.226776
-0.0894424
0.0292198
0.0104585
-0.113429
0.0250099
0.034994
0.0880742
0.0524083
0.00689051
-0.0458552
-0.052845
0.0570752
-0.0820917
-0.112604
-0.226849
-0.158305
0.00493404
-0.0705831
0.141515
0.227021
-0.0134694
-0.0688553
0.0320374
0.0459098
-0.0912699
-0.272109
-0.365199
-0.255993
-0.179677
-0.0512927
-0.0175946
0.086152
0.00357473
-0.00614461
0.0144501
-0.0890613
0.00233873
0.0749783
-0.0113095
-0.0245257
0.0319654
0.107402
0.127335
0.0472009
-0.0847402
-0.141321
-0.131315
-0.209491
-0.19842
-0.310968
-0.304836
-0.126001
0.0964821
0.278145
0.278834
0.0998358
0.130998
0.0530346
0.0789643
0.00702573
-0.0914209
-0.235811
-0.161941
0.0686567
0.0568653
0.146174
0.156966
0.158234
0.184904
0.15715
0.191612
0.254447
0.180689
0.0151115
-0.101761
-0.123421
-0.0800253
0.0107335
-0.0401247
0.0563644
0.13755
0.151692
0.193576
0.0440746
0.254515
0.14019
-0.0246612
0.0394785
0.0243175
0.0435537
0.161726
0.105802
0.0958666
0.0146873
-0.00238373
-0.0179621
0.119577
-0.014915
-0.259
-0.303907
-0.153259
0.0383926
0.00932421
0.11019
0.0925916
-0.0994849
-0.0492307
0.0255745
0.0207555
0.0544373
-0.170717
0.014141
-0.090458
-0.142525
-0.168844
-0.0519763
-0.0320477
-0.0936669
-0.0101968
0.0957844
0.0600042
0.0511936
0.00450115
0.0365761
-0.15678
-0.168418
-0.34615
-0.227332
-0.161696
-0.0127916
-0.0877389
-0.0715817
-0.0562867
-0.0342387
-0.0178315
-0.0775874
-0.0710226
0.0821053
0.00191006
-0.0539006
0.0580725
0.00927954
0.0294194
0.0052453
-0.027774
-0.0914643
-0.153769
-0.245059
-0.240605
-0.237276
-0.24092
-0.0256016
0.0415816
0.275307
0.245204
0.041648
0.0855657
-0.016645
-0.00804632
0.0521795
-0.0519648
-0.21548
-0.173715
-0.051284
-0.0110894
0.0881239
0.167035
0.11344
0.242869
0.201485
0.220747
0.118446
0.152965
0.0870129
-0.106585
-0.0844063
-0.0255035
-0.069299
0.00549883
0.0150037
0.135734
0.169709
0.230451
0.0653217
0.211198
0.145136
0.0260814
0.0398167
-0.0216307
-0.079886
0.0942232
0.085394
0.120127
0.0569666
0.0631406
-0.0204249
0.0174053
-0.0735033
-0.126774
-0.206547
-0.0752548
-0.0520827
-0.00012091
0.0700521
0.0551712
-0.0654674
-0.0296258
-0.0190247
0.0369948
-0.0110023
-0.142019
0.047914
-0.0355694
-0.194196
-0.253935
0.00967723
0.00863667
-0.0608353
0.0137177
0.112929
0.0814866
-0.000510489
-0.0200188
-0.0296233
-0.10692
-0.327084
-0.240554
-0.144778
-0.193247
-0.0386052
0.0116973
-0.114008
-0.0608562
-0.0032541
-0.136138
-0.0917316
-0.0228657
0.0590668
0.0115637
-0.069269
0.0096538
0.00934578
0.0517836
0.0499785
-0.0443879
-0.133426
-0.147543
-0.239841
-0.253553
-0.310345
-0.276184
-0.0997609
0.0683448
0.202726
0.335383
0.1008
-0.00955077
0.0169491
-0.0492651
-0.0597712
-0.047319
-0.264805
-0.191772
-0.102051
-0.012924
0.100195
0.214477
0.202267
0.220086
0.197533
0.225977
0.121374
0.0847995
-0.0383945
-0.0933281
-0.0423877
-0.0168015
-0.131236
0.0399333
0.0593484
0.183184
0.138089
0.158458
0.0314124
0.197948
0.107516
0.00238449
0.00302963
-0.0915044
0.0227902
0.106088
0.0657805
-0.0613766
0.0595681
0.148396
0.05856
-0.0235792
-0.0375289
-0.0900824
-0.150927
-0.0805828
-0.113384
-0.0322904
0.10986
0.129841
0.00681266
-0.0898619
-0.0712048
0.0973066
0.102435
-0.0903871
-0.00418313
-0.0618223
-0.182145
-0.178989
-0.038187
-0.122263
-0.135495
0.0703546
0.1385
0.103824
-0.0387282
-0.0397568
0.0290849
-0.0769834
-0.266646
-0.237595
-0.174291
-0.0706139
0.00687331
-0.0641271
-0.139445
-0.125083
-0.066789
-0.0353502
-0.0386371
-0.0766956
-0.0105127
-0.0111171
0.0500745
-0.027234
-0.00243085
-0.0952604
-0.0159373
-0.00632624
-0.243638
-0.2623
-0.190602
-0.169458
-0.228701
-0.125254
-0.0414741
-0.0361579
0.128015
0.195972
0.0339844
0.00347313
0.0010479
-0.0830399
-0.119592
-0.17764
-0.290961
-0.213768
-0.0538759
0.0171501
0.215957
0.268259
0.262289
0.256445
0.111719
0.0729428
0.0782606
-0.0151265
0.0198103
-0.0741846