/*--------------------------------*- C++ -*----------------------------------*\
| =========                 |                                                 |
| \\      /  F ield         | OpenFOAM: The Open Source CFD Toolbox           |
|  \\    /   O peration     | Version:  v2012                                 |
|   \\  /    A nd           | Website:  www.openfoam.com                      |
|    \\/     M anipulation  |                                                 |
\*---------------------------------------------------------------------------*/
FoamFile
{
    version     2.0;
    format      ascii;
    class       surfaceScalarField;
    location    "9";
    object      phi;
}
// * * * * * * * * * * * * * * * * * * * * * * * * * * * * * * * * * * * * * //

dimensions      [0 3 -1 0 0 0 0];
oriented        oriented;


internalField   nonuniform List<scalar> 
130560
(
3.71279e-06
-3.71279e-06
7.42562e-06
-3.71283e-06
1.11385e-05
-3.7129e-06
1.48515e-05
-3.713e-06
1.85647e-05
-3.71314e-06
2.2278e-05
-3.71331e-06
2.59915e-05
-3.7135e-06
2.97052e-05
-3.71371e-06
3.34191e-05
-3.71393e-06
3.71333e-05
-3.71416e-06
4.08477e-05
-3.71439e-06
4.45623e-05
-3.71462e-06
4.82771e-05
-3.71482e-06
5.19921e-05
-3.715e-06
5.57073e-05
-3.71515e-06
5.94225e-05
-3.71524e-06
6.31378e-05
-3.71527e-06
6.6853e-05
-3.71523e-06
7.05681e-05
-3.71511e-06
7.4283e-05
-3.71488e-06
7.79975e-05
-3.71453e-06
8.17116e-05
-3.71406e-06
8.5425e-05
-3.71343e-06
8.91376e-05
-3.71263e-06
9.28493e-05
-3.71165e-06
9.65598e-05
-3.71047e-06
0.000100269
-3.70906e-06
0.000103976
-3.7074e-06
0.000107682
-3.70548e-06
0.000111385
-3.70327e-06
0.000115086
-3.70075e-06
0.000118784
-3.69789e-06
0.000122478
-3.69467e-06
0.000126169
-3.69108e-06
0.000129856
-3.68707e-06
0.000133539
-3.68263e-06
0.000137217
-3.67773e-06
0.000140889
-3.67234e-06
0.000144556
-3.66643e-06
0.000148216
-3.65998e-06
0.000151868
-3.65296e-06
0.000155514
-3.64535e-06
0.000159151
-3.6371e-06
0.000162779
-3.6282e-06
0.000166398
-3.6186e-06
0.000170006
-3.6083e-06
0.000173603
-3.59724e-06
0.000177189
-3.58541e-06
0.000180761
-3.57277e-06
0.000184321
-3.5593e-06
0.000187866
-3.54496e-06
0.000191395
-3.52973e-06
0.000194909
-3.51357e-06
0.000198405
-3.49646e-06
0.000201884
-3.47836e-06
0.000205343
-3.45926e-06
0.000208782
-3.43912e-06
0.0002122
-3.41792e-06
0.000215596
-3.39563e-06
0.000218968
-3.37222e-06
0.000222316
-3.34767e-06
0.000225638
-3.32196e-06
0.000228933
-3.29506e-06
0.0002322
-3.26696e-06
0.000235437
-3.23763e-06
0.000238644
-3.20706e-06
0.00024182
-3.17522e-06
0.000244962
-3.1421e-06
0.000248069
-3.1077e-06
0.000251141
-3.07198e-06
0.000254176
-3.03495e-06
0.000257173
-2.99659e-06
0.00026013
-2.95691e-06
0.000263046
-2.91588e-06
0.000265919
-2.87351e-06
0.000268749
-2.8298e-06
0.000271534
-2.78475e-06
0.000274272
-2.73836e-06
0.000276963
-2.69063e-06
0.000279604
-2.64158e-06
0.000282195
-2.59121e-06
0.000284735
-2.53953e-06
0.000287222
-2.48657e-06
0.000289654
-2.43233e-06
0.000292031
-2.37683e-06
0.000294351
-2.3201e-06
0.000296613
-2.26216e-06
0.000298816
-2.20303e-06
0.000300959
-2.14274e-06
0.00030304
-2.08133e-06
0.000305059
-2.01882e-06
0.000307014
-1.95525e-06
0.000308905
-1.89066e-06
0.00031073
-1.82508e-06
0.000312488
-1.75855e-06
0.00031418
-1.69112e-06
0.000315802
-1.62283e-06
0.000317356
-1.55373e-06
0.00031884
-1.48386e-06
0.000320253
-1.41328e-06
0.000321595
-1.34202e-06
0.000322865
-1.27015e-06
0.000324063
-1.19771e-06
0.000325188
-1.12477e-06
0.000326239
-1.05136e-06
0.000327217
-9.77559e-07
0.00032812
-9.03407e-07
0.000328949
-8.28966e-07
0.000329704
-7.54291e-07
0.000330383
-6.79439e-07
0.000330987
-6.04467e-07
0.000331517
-5.29431e-07
0.000331971
-4.54387e-07
0.000332351
-3.79392e-07
0.000332655
-3.04502e-07
0.000332885
-2.29772e-07
0.00033304
-1.55256e-07
0.000333121
-8.10072e-08
0.000333128
-7.07932e-09
0.000333062
6.64763e-08
0.000332922
1.39609e-07
0.00033271
2.12269e-07
0.000332425
2.8441e-07
0.00033207
3.55983e-07
0.000331643
4.26943e-07
0.000331145
4.97248e-07
0.000330578
5.66855e-07
0.000329943
6.35723e-07
0.000329239
7.03814e-07
0.000328468
7.71091e-07
0.00032763
8.37519e-07
0.000326727
9.03064e-07
0.00032576
9.67696e-07
0.000324728
1.03138e-06
0.000323634
1.0941e-06
0.000322478
1.15582e-06
0.000321262
1.21652e-06
0.000319986
1.27618e-06
0.000318651
1.33478e-06
0.000317258
1.39229e-06
0.00031581
1.44871e-06
0.000314306
1.50402e-06
0.000312748
1.55821e-06
0.000311136
1.61126e-06
0.000309473
1.66317e-06
0.000307759
1.71393e-06
0.000305996
1.76353e-06
0.000304184
1.81197e-06
0.000302324
1.85926e-06
0.000300419
1.90537e-06
0.000298469
1.95033e-06
0.000296475
1.99412e-06
0.000294438
2.03676e-06
0.00029236
2.07825e-06
0.000290241
2.11859e-06
0.000288083
2.15779e-06
0.000285887
2.19586e-06
0.000283655
2.2328e-06
0.000281386
2.26864e-06
0.000279083
2.30338e-06
0.000276746
2.33702e-06
0.000274376
2.3696e-06
0.000271975
2.40111e-06
0.000269543
2.43158e-06
0.000267082
2.46102e-06
0.000264593
2.48944e-06
0.000262076
2.51686e-06
0.000259533
2.54331e-06
0.000256964
2.56879e-06
0.00025437
2.59332e-06
0.000251754
2.61692e-06
0.000249114
2.63962e-06
0.000246453
2.66143e-06
0.00024377
2.68236e-06
0.000241068
2.70245e-06
0.000238346
2.7217e-06
0.000235606
2.74014e-06
0.000232848
2.75779e-06
0.000230073
2.77466e-06
0.000227283
2.79078e-06
0.000224476
2.80617e-06
0.000221656
2.82085e-06
0.000218821
2.83483e-06
0.000215973
2.84814e-06
0.000213112
2.86079e-06
0.000210239
2.87281e-06
0.000207355
2.88422e-06
0.00020446
2.89503e-06
0.000201555
2.90526e-06
0.00019864
2.91493e-06
0.000195716
2.92407e-06
0.000192783
2.93268e-06
0.000189842
2.94079e-06
0.000186894
2.94841e-06
0.000183938
2.95557e-06
0.000180976
2.96228e-06
0.000178007
2.96855e-06
0.000175033
2.97441e-06
0.000172053
2.97986e-06
0.000169068
2.98494e-06
0.000166078
2.98964e-06
0.000163084
2.99399e-06
0.000160086
2.99801e-06
0.000157085
3.0017e-06
0.00015408
3.00509e-06
0.000151071
3.00818e-06
0.00014806
3.01099e-06
0.000145047
3.01354e-06
0.000142031
3.01584e-06
0.000139013
3.01789e-06
0.000135993
3.01972e-06
0.000132972
3.02134e-06
0.000129949
3.02275e-06
0.000126925
3.02397e-06
0.0001239
3.02502e-06
0.000120874
3.02589e-06
0.000117848
3.02661e-06
0.000114821
3.02718e-06
0.000111793
3.02762e-06
0.000108765
3.02793e-06
0.000105737
3.02812e-06
0.000102709
3.02821e-06
9.96806e-05
3.02819e-06
9.66525e-05
3.02809e-06
9.36246e-05
3.0279e-06
9.0597e-05
3.02764e-06
8.75697e-05
3.02732e-06
8.45427e-05
3.02693e-06
8.15162e-05
3.0265e-06
7.84902e-05
3.02602e-06
7.54647e-05
3.0255e-06
7.24398e-05
3.02495e-06
6.94154e-05
3.02438e-06
6.63916e-05
3.02378e-06
6.33684e-05
3.02318e-06
6.03459e-05
3.02256e-06
5.73239e-05
3.02195e-06
5.43026e-05
3.02133e-06
5.12819e-05
3.02072e-06
4.82618e-05
3.02012e-06
4.52422e-05
3.01953e-06
4.22233e-05
3.01897e-06
3.92048e-05
3.01842e-06
3.61869e-05
3.0179e-06
3.31695e-05
3.01741e-06
3.01526e-05
3.01695e-06
2.71361e-05
3.01652e-06
2.41199e-05
3.01613e-06
2.11041e-05
3.01578e-06
1.80887e-05
3.01547e-06
1.50735e-05
3.0152e-06
1.20585e-05
3.01497e-06
9.04371e-06
3.01479e-06
6.02907e-06
3.01465e-06
3.01451e-06
3.01456e-06
3.01451e-06
3.71275e-06
-7.42554e-06
7.42554e-06
-7.42562e-06
1.11384e-05
-7.42576e-06
1.48514e-05
-7.42598e-06
1.85645e-05
-7.42626e-06
2.22778e-05
-7.42659e-06
2.59913e-05
-7.42698e-06
2.9705e-05
-7.4274e-06
3.34189e-05
-7.42786e-06
3.7133e-05
-7.42833e-06
4.08474e-05
-7.4288e-06
4.45621e-05
-7.42925e-06
4.82769e-05
-7.42967e-06
5.1992e-05
-7.43004e-06
5.57072e-05
-7.43034e-06
5.94225e-05
-7.43054e-06
6.31378e-05
-7.43062e-06
6.68531e-05
-7.43056e-06
7.05683e-05
-7.43032e-06
7.42833e-05
-7.42988e-06
7.7998e-05
-7.4292e-06
8.17122e-05
-7.42826e-06
8.54258e-05
-7.42702e-06
8.91386e-05
-7.42545e-06
9.28505e-05
-7.42351e-06
9.65612e-05
-7.42116e-06
0.00010027
-7.41836e-06
0.000103978
-7.41507e-06
0.000107684
-7.41125e-06
0.000111387
-7.40685e-06
0.000115089
-7.40183e-06
0.000118787
-7.39614e-06
0.000122482
-7.38973e-06
0.000126173
-7.38256e-06
0.000129861
-7.37457e-06
0.000133544
-7.36572e-06
0.000137222
-7.35594e-06
0.000140895
-7.34519e-06
0.000144562
-7.3334e-06
0.000148223
-7.32054e-06
0.000151876
-7.30653e-06
0.000155522
-7.29132e-06
0.00015916
-7.27486e-06
0.000162789
-7.25708e-06
0.000166408
-7.23792e-06
0.000170017
-7.21734e-06
0.000173615
-7.19526e-06
0.000177201
-7.17162e-06
0.000180775
-7.14638e-06
0.000184335
-7.11946e-06
0.000187881
-7.09081e-06
0.000191412
-7.06038e-06
0.000194926
-7.02809e-06
0.000198424
-6.9939e-06
0.000201903
-6.95774e-06
0.000205363
-6.91956e-06
0.000208803
-6.87931e-06
0.000212222
-6.83693e-06
0.000215619
-6.79237e-06
0.000218993
-6.74558e-06
0.000222341
-6.6965e-06
0.000225664
-6.6451e-06
0.000228961
-6.59133e-06
0.000232229
-6.53515e-06
0.000235468
-6.47651e-06
0.000238676
-6.41538e-06
0.000241853
-6.35172e-06
0.000244996
-6.2855e-06
0.000248105
-6.21669e-06
0.000251178
-6.14528e-06
0.000254215
-6.07123e-06
0.000257213
-5.99452e-06
0.000260171
-5.91515e-06
0.000263088
-5.8331e-06
0.000265963
-5.74836e-06
0.000268794
-5.66094e-06
0.00027158
-5.57083e-06
0.00027432
-5.47804e-06
0.000277012
-5.38259e-06
0.000279655
-5.28447e-06
0.000282247
-5.18372e-06
0.000284788
-5.08036e-06
0.000287276
-4.97441e-06
0.000289709
-4.86591e-06
0.000292087
-4.75489e-06
0.000294409
-4.64141e-06
0.000296672
-4.5255e-06
0.000298876
-4.40721e-06
0.00030102
-4.28661e-06
0.000303103
-4.16375e-06
0.000305122
-4.0387e-06
0.000307079
-3.91153e-06
0.00030897
-3.7823e-06
0.000310796
-3.6511e-06
0.000312556
-3.518e-06
0.000314248
-3.3831e-06
0.000315871
-3.24648e-06
0.000317426
-3.10823e-06
0.000318911
-2.96844e-06
0.000320324
-2.82722e-06
0.000321667
-2.68466e-06
0.000322938
-2.54086e-06
0.000324136
-2.39594e-06
0.000325261
-2.24999e-06
0.000326313
-2.10313e-06
0.000327291
-1.95546e-06
0.000328195
-1.8071e-06
0.000329024
-1.65817e-06
0.000329778
-1.50876e-06
0.000330458
-1.359e-06
0.000331062
-1.209e-06
0.000331592
-1.05887e-06
0.000332046
-9.08725e-07
0.000332425
-7.5868e-07
0.00033273
-6.08844e-07
0.000332959
-4.59329e-07
0.000333114
-3.10243e-07
0.000333195
-1.61693e-07
0.000333202
-1.37858e-08
0.000333135
1.33376e-07
0.000332995
2.79691e-07
0.000332782
4.2506e-07
0.000332497
5.69387e-07
0.00033214
7.12578e-07
0.000331713
8.54543e-07
0.000331215
9.95194e-07
0.000330647
1.13445e-06
0.000330011
1.27222e-06
0.000329306
1.40844e-06
0.000328534
1.54303e-06
0.000327696
1.67592e-06
0.000326792
1.80704e-06
0.000325823
1.93633e-06
0.000324791
2.06374e-06
0.000323696
2.1892e-06
0.000322539
2.31267e-06
0.000321321
2.43409e-06
0.000320044
2.55343e-06
0.000318708
2.67064e-06
0.000317315
2.78568e-06
0.000315865
2.89854e-06
0.00031436
3.00917e-06
0.0003128
3.11755e-06
0.000311188
3.22366e-06
0.000309524
3.32749e-06
0.000307809
3.42901e-06
0.000306044
3.52822e-06
0.000304231
3.62511e-06
0.00030237
3.71967e-06
0.000300464
3.81191e-06
0.000298512
3.90182e-06
0.000296517
3.9894e-06
0.000294479
4.07467e-06
0.0002924
4.15764e-06
0.00029028
4.23831e-06
0.000288121
4.3167e-06
0.000285924
4.39283e-06
0.00028369
4.46672e-06
0.000281421
4.53838e-06
0.000279116
4.60784e-06
0.000276778
4.67512e-06
0.000274407
4.74026e-06
0.000272005
4.80327e-06
0.000269573
4.86419e-06
0.000267111
4.92305e-06
0.00026462
4.97988e-06
0.000262102
5.03471e-06
0.000259558
5.08758e-06
0.000256988
5.13852e-06
0.000254394
5.18756e-06
0.000251776
5.23476e-06
0.000249136
5.28013e-06
0.000246473
5.32372e-06
0.00024379
5.36558e-06
0.000241087
5.40572e-06
0.000238364
5.44421e-06
0.000235623
5.48107e-06
0.000232865
5.51634e-06
0.000230089
5.55007e-06
0.000227298
5.5823e-06
0.000224491
5.61306e-06
0.00022167
5.64239e-06
0.000218834
5.67033e-06
0.000215985
5.69693e-06
0.000213124
5.72222e-06
0.00021025
5.74624e-06
0.000207366
5.76903e-06
0.00020447
5.79063e-06
0.000201564
5.81108e-06
0.000198649
5.8304e-06
0.000195724
5.84865e-06
0.000192791
5.86586e-06
0.00018985
5.88206e-06
0.000186901
5.89729e-06
0.000183945
5.91159e-06
0.000180982
5.92499e-06
0.000178013
5.93752e-06
0.000175038
5.94921e-06
0.000172058
5.96011e-06
0.000169073
5.97024e-06
0.000166083
5.97963e-06
0.000163088
5.98832e-06
0.00016009
5.99634e-06
0.000157088
6.00371e-06
0.000154083
6.01047e-06
0.000151074
6.01664e-06
0.000148063
6.02225e-06
0.000145049
6.02733e-06
0.000142033
6.03191e-06
0.000139015
6.03601e-06
0.000135995
6.03966e-06
0.000132973
6.04287e-06
0.000129951
6.04569e-06
0.000126926
6.04812e-06
0.000123901
6.0502e-06
0.000120875
6.05194e-06
0.000117848
6.05337e-06
0.000114821
6.0545e-06
0.000111793
6.05537e-06
0.000108765
6.05597e-06
0.000105737
6.05635e-06
0.000102709
6.05651e-06
9.96805e-05
6.05647e-06
9.66523e-05
6.05626e-06
9.36244e-05
6.05588e-06
9.05966e-05
6.05535e-06
8.75693e-05
6.05469e-06
8.45423e-05
6.05391e-06
8.15158e-05
6.05303e-06
7.84897e-05
6.05207e-06
7.54642e-05
6.05103e-06
7.24392e-05
6.04992e-06
6.94148e-05
6.04877e-06
6.6391e-05
6.04758e-06
6.33678e-05
6.04636e-06
6.03453e-05
6.04513e-06
5.73233e-05
6.04389e-06
5.4302e-05
6.04265e-06
5.12813e-05
6.04143e-06
4.82612e-05
6.04022e-06
4.52417e-05
6.03905e-06
4.22227e-05
6.03791e-06
3.92043e-05
6.03682e-06
3.61864e-05
6.03578e-06
3.31691e-05
6.03479e-06
3.01521e-05
6.03387e-06
2.71357e-05
6.03301e-06
2.41196e-05
6.03223e-06
2.11038e-05
6.03152e-06
1.80884e-05
6.0309e-06
1.50732e-05
6.03035e-06
1.20583e-05
6.0299e-06
9.04357e-06
6.02953e-06
6.02897e-06
6.02925e-06
3.01446e-06
6.02907e-06
6.02897e-06
3.71268e-06
-1.11382e-05
7.4254e-06
-1.11383e-05
1.11382e-05
-1.11386e-05
1.48511e-05
-1.11389e-05
1.85642e-05
-1.11393e-05
2.22774e-05
-1.11398e-05
2.59908e-05
-1.11404e-05
2.97045e-05
-1.11411e-05
3.34184e-05
-1.11418e-05
3.71326e-05
-1.11425e-05
4.0847e-05
-1.11432e-05
4.45617e-05
-1.11439e-05
4.82766e-05
-1.11446e-05
5.19917e-05
-1.11452e-05
5.5707e-05
-1.11456e-05
5.94224e-05
-1.1146e-05
6.31379e-05
-1.11461e-05
6.68534e-05
-1.11461e-05
7.05688e-05
-1.11457e-05
7.4284e-05
-1.11451e-05
7.79989e-05
-1.11441e-05
8.17135e-05
-1.11428e-05
8.54274e-05
-1.1141e-05
8.91406e-05
-1.11386e-05
9.28528e-05
-1.11358e-05
9.6564e-05
-1.11323e-05
0.000100274
-1.11282e-05
0.000103982
-1.11233e-05
0.000107688
-1.11176e-05
0.000111393
-1.11111e-05
0.000115094
-1.11036e-05
0.000118793
-1.10951e-05
0.000122489
-1.10856e-05
0.000126181
-1.10749e-05
0.00012987
-1.10629e-05
0.000133554
-1.10497e-05
0.000137233
-1.10351e-05
0.000140907
-1.10191e-05
0.000144575
-1.10015e-05
0.000148237
-1.09822e-05
0.000151891
-1.09613e-05
0.000155539
-1.09386e-05
0.000159178
-1.09139e-05
0.000162808
-1.08873e-05
0.000166429
-1.08587e-05
0.000170039
-1.08279e-05
0.000173639
-1.07948e-05
0.000177227
-1.07595e-05
0.000180802
-1.07217e-05
0.000184364
-1.06814e-05
0.000187911
-1.06385e-05
0.000191444
-1.05929e-05
0.00019496
-1.05445e-05
0.00019846
-1.04933e-05
0.000201941
-1.04391e-05
0.000205403
-1.03819e-05
0.000208846
-1.03216e-05
0.000212267
-1.02581e-05
0.000215666
-1.01913e-05
0.000219042
-1.01212e-05
0.000222393
-1.00477e-05
0.000225718
-9.97062e-06
0.000229017
-9.89002e-06
0.000232288
-9.80579e-06
0.000235529
-9.71788e-06
0.00023874
-9.62622e-06
0.000241919
-9.53077e-06
0.000245065
-9.43148e-06
0.000248176
-9.32831e-06
0.000251252
-9.22121e-06
0.000254291
-9.11015e-06
0.000257292
-8.99512e-06
0.000260253
-8.87607e-06
0.000263173
-8.753e-06
0.00026605
-8.62591e-06
0.000268884
-8.49477e-06
0.000271673
-8.3596e-06
0.000274415
-8.2204e-06
0.00027711
-8.0772e-06
0.000279755
-7.93e-06
0.000282351
-7.77884e-06
0.000284894
-7.62376e-06
0.000287384
-7.4648e-06
0.00028982
-7.302e-06
0.000292201
-7.13543e-06
0.000294525
-6.96514e-06
0.00029679
-6.79121e-06
0.000298997
-6.61372e-06
0.000301143
-6.43274e-06
0.000303228
-6.24837e-06
0.00030525
-6.06071e-06
0.000307208
-5.86985e-06
0.000309102
-5.67591e-06
0.000310929
-5.47901e-06
0.000312691
-5.27927e-06
0.000314384
-5.0768e-06
0.00031601
-4.87175e-06
0.000317566
-4.66426e-06
0.000319052
-4.45446e-06
0.000320467
-4.2425e-06
0.000321811
-4.02853e-06
0.000323083
-3.8127e-06
0.000324282
-3.59518e-06
0.000325408
-3.37613e-06
0.000326461
-3.1557e-06
0.000327439
-2.93406e-06
0.000328344
-2.71138e-06
0.000329173
-2.48783e-06
0.000329928
-2.26358e-06
0.000330608
-2.0388e-06
0.000331213
-1.81365e-06
0.000331742
-1.58832e-06
0.000332196
-1.36296e-06
0.000332575
-1.13776e-06
0.000332879
-9.12866e-07
0.000333108
-6.88457e-07
0.000333263
-4.64694e-07
0.000333343
-2.41737e-07
0.000333349
-1.97466e-08
0.000333281
2.01123e-07
0.00033314
4.20719e-07
0.000332926
6.38892e-07
0.00033264
8.55499e-07
0.000332282
1.0704e-06
0.000331853
1.28346e-06
0.000331354
1.49454e-06
0.000330785
1.70352e-06
0.000330147
1.91028e-06
0.000329441
2.1147e-06
0.000328667
2.31667e-06
0.000327827
2.51609e-06
0.000326921
2.71285e-06
0.000325951
2.90686e-06
0.000324916
3.09804e-06
0.000323819
3.28629e-06
0.00032266
3.47155e-06
0.000321441
3.65374e-06
0.000320161
3.8328e-06
0.000318823
4.00866e-06
0.000317428
4.18127e-06
0.000315976
4.35059e-06
0.000314468
4.51656e-06
0.000312907
4.67916e-06
0.000311292
4.83836e-06
0.000309625
4.99411e-06
0.000307908
5.14641e-06
0.000306141
5.29523e-06
0.000304325
5.44057e-06
0.000302463
5.58242e-06
0.000300554
5.72077e-06
0.0002986
5.85563e-06
0.000296602
5.987e-06
0.000294562
6.11489e-06
0.000292481
6.23933e-06
0.000290359
6.36032e-06
0.000288197
6.47788e-06
0.000285998
6.59205e-06
0.000283762
6.70285e-06
0.00028149
6.81032e-06
0.000279183
6.91448e-06
0.000276843
7.01537e-06
0.00027447
7.11304e-06
0.000272066
7.20752e-06
0.000269631
7.29886e-06
0.000267167
7.38711e-06
0.000264675
7.47231e-06
0.000262155
7.55452e-06
0.000259609
7.63377e-06
0.000257037
7.71014e-06
0.000254441
7.78366e-06
0.000251822
7.85441e-06
0.000249179
7.92242e-06
0.000246515
7.98776e-06
0.00024383
8.05049e-06
0.000241125
8.11067e-06
0.000238401
8.16834e-06
0.000235659
8.22359e-06
0.000232899
8.27645e-06
0.000230122
8.32699e-06
0.000227329
8.37528e-06
0.00022452
8.42137e-06
0.000221698
8.46531e-06
0.000218861
8.50718e-06
0.000216011
8.54703e-06
0.000213148
8.58492e-06
0.000210273
8.6209e-06
0.000207387
8.65504e-06
0.00020449
8.68739e-06
0.000201584
8.71801e-06
0.000198667
8.74696e-06
0.000195741
8.77428e-06
0.000192807
8.80005e-06
0.000189865
8.82431e-06
0.000186915
8.84711e-06
0.000183958
8.86851e-06
0.000180995
8.88856e-06
0.000178025
8.90731e-06
0.000175049
8.92482e-06
0.000172068
8.94112e-06
0.000169082
8.95628e-06
0.000166091
8.97033e-06
0.000163096
8.98333e-06
0.000160097
8.99531e-06
0.000157095
9.00633e-06
0.000154089
9.01643e-06
0.00015108
9.02565e-06
0.000148068
9.03404e-06
0.000145054
9.04163e-06
0.000142037
9.04846e-06
0.000139019
9.05458e-06
0.000135998
9.06002e-06
0.000132976
9.06482e-06
0.000129953
9.06901e-06
0.000126928
9.07263e-06
0.000123903
9.07572e-06
0.000120877
9.07831e-06
0.00011785
9.08042e-06
0.000114822
9.0821e-06
0.000111794
9.08336e-06
0.000108766
9.08425e-06
0.000105737
9.08479e-06
0.000102709
9.08501e-06
9.96803e-05
9.08493e-06
9.6652e-05
9.08459e-06
9.36238e-05
9.084e-06
9.0596e-05
9.08319e-06
8.75685e-05
9.08218e-06
8.45414e-05
9.081e-06
8.15148e-05
9.07966e-06
7.84887e-05
9.0782e-06
7.54631e-05
9.07662e-06
7.2438e-05
9.07495e-06
6.94136e-05
9.0732e-06
6.63898e-05
9.0714e-06
6.33666e-05
9.06956e-06
6.0344e-05
9.0677e-06
5.73221e-05
9.06583e-06
5.43008e-05
9.06396e-06
5.12801e-05
9.06211e-06
4.826e-05
9.0603e-06
4.52405e-05
9.05853e-06
4.22216e-05
9.05681e-06
3.92033e-05
9.05517e-06
3.61855e-05
9.05359e-06
3.31681e-05
9.05211e-06
3.01513e-05
9.05072e-06
2.71349e-05
9.04943e-06
2.41189e-05
9.04825e-06
2.11032e-05
9.04718e-06
1.80879e-05
9.04624e-06
1.50728e-05
9.04542e-06
1.20579e-05
9.04473e-06
9.0433e-06
9.04418e-06
6.02879e-06
9.04376e-06
3.01437e-06
9.04348e-06
9.04334e-06
3.71257e-06
-1.48508e-05
7.42518e-06
-1.48509e-05
1.11379e-05
-1.48513e-05
1.48507e-05
-1.48517e-05
1.85636e-05
-1.48523e-05
2.22768e-05
-1.4853e-05
2.59902e-05
-1.48538e-05
2.97038e-05
-1.48547e-05
3.34177e-05
-1.48557e-05
3.71318e-05
-1.48566e-05
4.08463e-05
-1.48577e-05
4.4561e-05
-1.48586e-05
4.8276e-05
-1.48596e-05
5.19912e-05
-1.48604e-05
5.57066e-05
-1.48611e-05
5.94222e-05
-1.48616e-05
6.31379e-05
-1.48618e-05
6.68537e-05
-1.48618e-05
7.05694e-05
-1.48614e-05
7.4285e-05
-1.48607e-05
7.80003e-05
-1.48595e-05
8.17153e-05
-1.48577e-05
8.54297e-05
-1.48554e-05
8.91434e-05
-1.48524e-05
9.28563e-05
-1.48487e-05
9.65681e-05
-1.48441e-05
0.000100279
-1.48387e-05
0.000103988
-1.48323e-05
0.000107695
-1.48248e-05
0.0001114
-1.48162e-05
0.000115103
-1.48063e-05
0.000118803
-1.47951e-05
0.0001225
-1.47825e-05
0.000126193
-1.47684e-05
0.000129883
-1.47526e-05
0.000133568
-1.47351e-05
0.000137249
-1.47158e-05
0.000140924
-1.46945e-05
0.000144594
-1.46711e-05
0.000148258
-1.46456e-05
0.000151914
-1.46179e-05
0.000155563
-1.45877e-05
0.000159204
-1.4555e-05
0.000162837
-1.45197e-05
0.000166459
-1.44816e-05
0.000170072
-1.44406e-05
0.000173674
-1.43967e-05
0.000177264
-1.43497e-05
0.000180842
-1.42994e-05
0.000184407
-1.42459e-05
0.000187957
-1.41888e-05
0.000191492
-1.41281e-05
0.000195012
-1.40638e-05
0.000198514
-1.39956e-05
0.000201998
-1.39236e-05
0.000205464
-1.38474e-05
0.000208909
-1.37671e-05
0.000212334
-1.36826e-05
0.000215736
-1.35937e-05
0.000219115
-1.35003e-05
0.00022247
-1.34023e-05
0.000225799
-1.32997e-05
0.000229101
-1.31923e-05
0.000232376
-1.30801e-05
0.000235621
-1.2963e-05
0.000238835
-1.28409e-05
0.000242018
-1.27137e-05
0.000245168
-1.25813e-05
0.000248284
-1.24438e-05
0.000251363
-1.23011e-05
0.000254406
-1.21531e-05
0.000257411
-1.19997e-05
0.000260376
-1.1841e-05
0.0002633
-1.16769e-05
0.000266181
-1.15075e-05
0.000269019
-1.13326e-05
0.000271812
-1.11524e-05
0.000274558
-1.09668e-05
0.000277257
-1.07758e-05
0.000279907
-1.05795e-05
0.000282506
-1.03779e-05
0.000285053
-1.01711e-05
0.000287547
-9.95902e-06
0.000289987
-9.74187e-06
0.000292371
-9.51968e-06
0.000294699
-9.29252e-06
0.000296968
-9.06049e-06
0.000299178
-8.8237e-06
0.000301327
-8.58226e-06
0.000303415
-8.33628e-06
0.000305441
-8.0859e-06
0.000307402
-7.83126e-06
0.000309299
-7.5725e-06
0.000311129
-7.30977e-06
0.000312893
-7.04325e-06
0.00031459
-6.77309e-06
0.000316217
-6.49948e-06
0.000317776
-6.2226e-06
0.000319264
-5.94263e-06
0.000320681
-5.65979e-06
0.000322027
-5.37425e-06
0.0003233
-5.08624e-06
0.000324501
-4.79597e-06
0.000325629
-4.50364e-06
0.000326682
-4.20947e-06
0.000327662
-3.9137e-06
0.000328567
-3.61653e-06
0.000329398
-3.3182e-06
0.000330153
-3.01893e-06
0.000330833
-2.71896e-06
0.000331438
-2.4185e-06
0.000331967
-2.11779e-06
0.000332422
-1.81706e-06
0.0003328
-1.51652e-06
0.000333104
-1.21641e-06
0.000333332
-9.1694e-07
0.000333486
-6.18338e-07
0.000333565
-3.20816e-07
0.00033357
-2.45864e-08
0.000333501
2.70143e-07
0.000333358
5.63168e-07
0.000333143
8.54291e-07
0.000332855
1.14332e-06
0.000332496
1.43006e-06
0.000332065
1.71434e-06
0.000331563
1.99598e-06
0.000330992
2.27481e-06
0.000330351
2.55067e-06
0.000329643
2.82341e-06
0.000328867
3.09287e-06
0.000328024
3.35891e-06
0.000327115
3.62141e-06
0.000326142
3.88023e-06
0.000325105
4.13526e-06
0.000324005
4.38638e-06
0.000322843
4.6335e-06
0.00032162
4.87653e-06
0.000320337
5.11536e-06
0.000318996
5.34992e-06
0.000317597
5.58015e-06
0.000316142
5.80597e-06
0.000314631
6.02733e-06
0.000313066
6.24419e-06
0.000311448
6.45648e-06
0.000309778
6.66419e-06
0.000308057
6.86728e-06
0.000306286
7.06573e-06
0.000304467
7.25953e-06
0.000302601
7.44866e-06
0.000300689
7.63313e-06
0.000298731
7.81293e-06
0.00029673
7.98807e-06
0.000294687
8.15858e-06
0.000292602
8.32446e-06
0.000290476
8.48574e-06
0.000288312
8.64246e-06
0.000286109
8.79464e-06
0.00028387
8.94233e-06
0.000281594
9.08556e-06
0.000279284
9.22438e-06
0.000276941
9.35885e-06
0.000274565
9.48901e-06
0.000272158
9.61491e-06
0.00026972
9.73663e-06
0.000267253
9.85422e-06
0.000264757
9.96774e-06
0.000262234
1.00773e-05
0.000259685
1.01829e-05
0.000257111
1.02846e-05
0.000254512
1.03825e-05
0.00025189
1.04768e-05
0.000249245
1.05674e-05
0.000246578
1.06544e-05
0.000243891
1.0738e-05
0.000241183
1.08181e-05
0.000238457
1.08949e-05
0.000235712
1.09685e-05
0.000232949
1.10389e-05
0.00023017
1.11062e-05
0.000227375
1.11705e-05
0.000224564
1.12318e-05
0.000221739
1.12903e-05
0.000218901
1.13461e-05
0.000216048
1.13991e-05
0.000213184
1.14495e-05
0.000210307
1.14974e-05
0.00020742
1.15428e-05
0.000204521
1.15859e-05
0.000201612
1.16266e-05
0.000198694
1.16651e-05
0.000195767
1.17015e-05
0.000192831
1.17357e-05
0.000189888
1.1768e-05
0.000186937
1.17983e-05
0.000183978
1.18268e-05
0.000181013
1.18534e-05
0.000178042
1.18784e-05
0.000175066
1.19016e-05
0.000172083
1.19233e-05
0.000169096
1.19434e-05
0.000166104
1.19621e-05
0.000163108
1.19793e-05
0.000160108
1.19953e-05
0.000157105
1.20099e-05
0.000154098
1.20233e-05
0.000151088
1.20355e-05
0.000148076
1.20466e-05
0.000145061
1.20567e-05
0.000142043
1.20657e-05
0.000139024
1.20738e-05
0.000136003
1.2081e-05
0.000132981
1.20874e-05
0.000129957
1.20929e-05
0.000126932
1.20977e-05
0.000123906
1.21017e-05
0.000120879
1.21051e-05
0.000117851
1.21079e-05
0.000114823
1.21101e-05
0.000111795
1.21117e-05
0.000108766
1.21129e-05
0.000105737
1.21136e-05
0.000102709
1.21138e-05
9.968e-05
1.21137e-05
9.66514e-05
1.21132e-05
9.3623e-05
1.21123e-05
9.0595e-05
1.21112e-05
8.75673e-05
1.21098e-05
8.45401e-05
1.21082e-05
8.15133e-05
1.21064e-05
7.84871e-05
1.21044e-05
7.54614e-05
1.21023e-05
7.24363e-05
1.21e-05
6.94118e-05
1.20977e-05
6.6388e-05
1.20953e-05
6.33647e-05
1.20928e-05
6.03422e-05
1.20903e-05
5.73202e-05
1.20878e-05
5.42989e-05
1.20853e-05
5.12783e-05
1.20828e-05
4.82582e-05
1.20803e-05
4.52388e-05
1.2078e-05
4.222e-05
1.20756e-05
3.92017e-05
1.20734e-05
3.6184e-05
1.20713e-05
3.31668e-05
1.20693e-05
3.015e-05
1.20675e-05
2.71337e-05
1.20657e-05
2.41178e-05
1.20642e-05
2.11023e-05
1.20627e-05
1.8087e-05
1.20615e-05
1.50721e-05
1.20604e-05
1.20574e-05
1.20594e-05
9.04288e-06
1.20587e-05
6.02851e-06
1.20581e-05
3.01423e-06
1.20578e-05
1.20576e-05
3.71241e-06
-1.85632e-05
7.42487e-06
-1.85634e-05
1.11374e-05
-1.85638e-05
1.48501e-05
-1.85644e-05
1.85629e-05
-1.85651e-05
2.2276e-05
-1.8566e-05
2.59893e-05
-1.85671e-05
2.97028e-05
-1.85683e-05
3.34167e-05
-1.85695e-05
3.71308e-05
-1.85708e-05
4.08453e-05
-1.85721e-05
4.45601e-05
-1.85734e-05
4.82752e-05
-1.85746e-05
5.19905e-05
-1.85757e-05
5.57061e-05
-1.85767e-05
5.9422e-05
-1.85774e-05
6.3138e-05
-1.85778e-05
6.68541e-05
-1.85779e-05
7.05702e-05
-1.85776e-05
7.42862e-05
-1.85767e-05
7.80021e-05
-1.85753e-05
8.17176e-05
-1.85733e-05
8.54327e-05
-1.85705e-05
8.91472e-05
-1.85669e-05
9.28609e-05
-1.85623e-05
9.65736e-05
-1.85568e-05
0.000100285
-1.85502e-05
0.000103995
-1.85423e-05
0.000107703
-1.85332e-05
0.00011141
-1.85226e-05
0.000115114
-1.85104e-05
0.000118815
-1.84966e-05
0.000122514
-1.8481e-05
0.000126209
-1.84635e-05
0.0001299
-1.8444e-05
0.000133588
-1.84223e-05
0.00013727
-1.83984e-05
0.000140948
-1.8372e-05
0.00014462
-1.8343e-05
0.000148285
-1.83113e-05
0.000151944
-1.82768e-05
0.000155596
-1.82393e-05
0.00015924
-1.81986e-05
0.000162875
-1.81547e-05
0.0001665
-1.81074e-05
0.000170116
-1.80564e-05
0.000173721
-1.80017e-05
0.000177315
-1.79432e-05
0.000180896
-1.78806e-05
0.000184464
-1.78138e-05
0.000188018
-1.77427e-05
0.000191557
-1.76671e-05
0.00019508
-1.75869e-05
0.000198586
-1.75019e-05
0.000202074
-1.7412e-05
0.000205544
-1.73171e-05
0.000208994
-1.72169e-05
0.000212423
-1.71114e-05
0.00021583
-1.70005e-05
0.000219213
-1.68839e-05
0.000222572
-1.67616e-05
0.000225906
-1.66335e-05
0.000229213
-1.64995e-05
0.000232493
-1.63594e-05
0.000235743
-1.62131e-05
0.000238963
-1.60606e-05
0.000242151
-1.59017e-05
0.000245306
-1.57364e-05
0.000248426
-1.55646e-05
0.000251512
-1.53863e-05
0.00025456
-1.52013e-05
0.00025757
-1.50097e-05
0.00026054
-1.48113e-05
0.000263469
-1.46063e-05
0.000266356
-1.43945e-05
0.0002692
-1.41759e-05
0.000271998
-1.39506e-05
0.00027475
-1.37185e-05
0.000277453
-1.34797e-05
0.000280108
-1.32343e-05
0.000282713
-1.29822e-05
0.000285265
-1.27235e-05
0.000287764
-1.24584e-05
0.000290209
-1.21868e-05
0.000292598
-1.19089e-05
0.000294931
-1.16248e-05
0.000297205
-1.13345e-05
0.000299419
-1.10383e-05
0.000301573
-1.07363e-05
0.000303666
-1.04286e-05
0.000305695
-1.01154e-05
0.000307661
-9.79679e-06
0.000309561
-9.47304e-06
0.000311396
-9.14433e-06
0.000313163
-8.81086e-06
0.000314863
-8.47283e-06
0.000316494
-8.13047e-06
0.000318056
-7.78402e-06
0.000319547
-7.4337e-06
0.000320967
-7.07976e-06
0.000322315
-6.72246e-06
0.000323591
-6.36205e-06
0.000324794
-5.9988e-06
0.000325923
-5.63298e-06
0.000326978
-5.26486e-06
0.000327959
-4.89472e-06
0.000328866
-4.52284e-06
0.000329697
-4.14951e-06
0.000330453
-3.775e-06
0.000331134
-3.3996e-06
0.000331739
-3.0236e-06
0.000332268
-2.64729e-06
0.000332722
-2.27095e-06
0.0003331
-1.89486e-06
0.000333403
-1.5193e-06
0.000333631
-1.14456e-06
0.000333784
-7.70902e-07
0.000333861
-3.98602e-07
0.000333865
-2.79261e-08
0.000333794
3.40866e-07
0.00033365
7.0752e-07
0.000333432
1.07179e-06
0.000333142
1.43342e-06
0.00033278
1.79219e-06
0.000332346
2.14787e-06
0.000331842
2.50024e-06
0.000331268
2.84908e-06
0.000330624
3.19419e-06
0.000329912
3.53539e-06
0.000329133
3.87248e-06
0.000328286
4.20528e-06
0.000327374
4.53364e-06
0.000326397
4.85738e-06
0.000325356
5.17638e-06
0.000324252
5.49048e-06
0.000323086
5.79956e-06
0.000321859
6.1035e-06
0.000320572
6.40219e-06
0.000319226
6.69553e-06
0.000317823
6.98344e-06
0.000316363
7.26582e-06
0.000314848
7.54262e-06
0.000313278
7.81376e-06
0.000311656
8.0792e-06
0.000309981
8.33889e-06
0.000308255
8.59279e-06
0.00030648
8.84089e-06
0.000304657
9.08315e-06
0.000302786
9.31957e-06
0.000300869
9.55014e-06
0.000298907
9.77488e-06
0.000296901
9.99379e-06
0.000294853
1.02069e-05
0.000292763
1.04142e-05
0.000290633
1.06157e-05
0.000288464
1.08116e-05
0.000286257
1.10017e-05
0.000284013
1.11863e-05
0.000281733
1.13652e-05
0.000279419
1.15386e-05
0.000277071
1.17066e-05
0.000274691
1.18692e-05
0.000272279
1.20265e-05
0.000269837
1.21785e-05
0.000267366
1.23254e-05
0.000264867
1.24672e-05
0.00026234
1.2604e-05
0.000259787
1.27358e-05
0.000257209
1.28629e-05
0.000254606
1.29851e-05
0.00025198
1.31028e-05
0.000249332
1.32159e-05
0.000246662
1.33246e-05
0.000243971
1.34288e-05
0.00024126
1.35289e-05
0.00023853
1.36247e-05
0.000235782
1.37165e-05
0.000233017
1.38044e-05