/*--------------------------------*- C++ -*----------------------------------*\
| =========                 |                                                 |
| \\      /  F ield         | OpenFOAM: The Open Source CFD Toolbox           |
|  \\    /   O peration     | Version:  v2012                                 |
|   \\  /    A nd           | Website:  www.openfoam.com                      |
|    \\/     M anipulation  |                                                 |
\*---------------------------------------------------------------------------*/
FoamFile
{
    version     2.0;
    format      ascii;
    class       volVectorField;
    location    "9";
    object      Psi;
}
// * * * * * * * * * * * * * * * * * * * * * * * * * * * * * * * * * * * * * //

dimensions      [0 2 -1 0 0 0 0];


internalField   nonuniform List<vector> 
65536
(
(0 0 9.28157e-06)
(0 0 2.78448e-05)
(0 0 4.64083e-05)
(0 0 6.49723e-05)
(0 0 8.35369e-05)
(0 0 0.000102102)
(0 0 0.000120669)
(0 0 0.000139236)
(0 0 0.000157804)
(0 0 0.000176374)
(0 0 0.000194944)
(0 0 0.000213516)
(0 0 0.000232089)
(0 0 0.000250663)
(0 0 0.000269238)
(0 0 0.000287814)
(0 0 0.000306389)
(0 0 0.000324965)
(0 0 0.000343541)
(0 0 0.000362116)
(0 0 0.000380689)
(0 0 0.00039926)
(0 0 0.000417829)
(0 0 0.000436394)
(0 0 0.000454954)
(0 0 0.00047351)
(0 0 0.000492059)
(0 0 0.0005106)
(0 0 0.000529133)
(0 0 0.000547655)
(0 0 0.000566165)
(0 0 0.000584662)
(0 0 0.000603144)
(0 0 0.00062161)
(0 0 0.000640056)
(0 0 0.000658481)
(0 0 0.000676883)
(0 0 0.000695259)
(0 0 0.000713607)
(0 0 0.000731924)
(0 0 0.000750208)
(0 0 0.000768455)
(0 0 0.000786663)
(0 0 0.000804828)
(0 0 0.000822947)
(0 0 0.000841016)
(0 0 0.000859032)
(0 0 0.00087699)
(0 0 0.000894888)
(0 0 0.000912721)
(0 0 0.000930484)
(0 0 0.000948173)
(0 0 0.000965784)
(0 0 0.000983312)
(0 0 0.00100075)
(0 0 0.0010181)
(0 0 0.00103535)
(0 0 0.00105249)
(0 0 0.00106953)
(0 0 0.00108645)
(0 0 0.00110326)
(0 0 0.00111994)
(0 0 0.00113648)
(0 0 0.00115289)
(0 0 0.00116916)
(0 0 0.00118527)
(0 0 0.00120123)
(0 0 0.00121703)
(0 0 0.00123266)
(0 0 0.00124811)
(0 0 0.00126339)
(0 0 0.00127847)
(0 0 0.00129336)
(0 0 0.00130804)
(0 0 0.00132252)
(0 0 0.00133679)
(0 0 0.00135083)
(0 0 0.00136464)
(0 0 0.00137822)
(0 0 0.00139155)
(0 0 0.00140464)
(0 0 0.00141747)
(0 0 0.00143004)
(0 0 0.00144235)
(0 0 0.00145437)
(0 0 0.00146612)
(0 0 0.00147758)
(0 0 0.00148875)
(0 0 0.00149962)
(0 0 0.00151019)
(0 0 0.00152044)
(0 0 0.00153038)
(0 0 0.00154)
(0 0 0.0015493)
(0 0 0.00155826)
(0 0 0.00156689)
(0 0 0.00157518)
(0 0 0.00158313)
(0 0 0.00159073)
(0 0 0.00159797)
(0 0 0.00160487)
(0 0 0.0016114)
(0 0 0.00161758)
(0 0 0.00162339)
(0 0 0.00162883)
(0 0 0.00163391)
(0 0 0.00163861)
(0 0 0.00164295)
(0 0 0.00164691)
(0 0 0.0016505)
(0 0 0.00165371)
(0 0 0.00165655)
(0 0 0.00165901)
(0 0 0.0016611)
(0 0 0.00166281)
(0 0 0.00166415)
(0 0 0.00166511)
(0 0 0.00166571)
(0 0 0.00166593)
(0 0 0.00166578)
(0 0 0.00166527)
(0 0 0.00166439)
(0 0 0.00166315)
(0 0 0.00166155)
(0 0 0.00165959)
(0 0 0.00165728)
(0 0 0.00165463)
(0 0 0.00165162)
(0 0 0.00164827)
(0 0 0.00164458)
(0 0 0.00164056)
(0 0 0.00163621)
(0 0 0.00163153)
(0 0 0.00162653)
(0 0 0.00162122)
(0 0 0.00161559)
(0 0 0.00160966)
(0 0 0.00160343)
(0 0 0.0015969)
(0 0 0.00159008)
(0 0 0.00158298)
(0 0 0.00157559)
(0 0 0.00156793)
(0 0 0.00156001)
(0 0 0.00155182)
(0 0 0.00154337)
(0 0 0.00153468)
(0 0 0.00152574)
(0 0 0.00151656)
(0 0 0.00150714)
(0 0 0.0014975)
(0 0 0.00148763)
(0 0 0.00147755)
(0 0 0.00146726)
(0 0 0.00145677)
(0 0 0.00144607)
(0 0 0.00143519)
(0 0 0.00142411)
(0 0 0.00141285)
(0 0 0.00140142)
(0 0 0.00138981)
(0 0 0.00137804)
(0 0 0.00136611)
(0 0 0.00135403)
(0 0 0.00134179)
(0 0 0.00132941)
(0 0 0.00131689)
(0 0 0.00130424)
(0 0 0.00129145)
(0 0 0.00127854)
(0 0 0.00126551)
(0 0 0.00125237)
(0 0 0.00123911)
(0 0 0.00122575)
(0 0 0.00121228)
(0 0 0.00119872)
(0 0 0.00118506)
(0 0 0.00117131)
(0 0 0.00115748)
(0 0 0.00114356)
(0 0 0.00112956)
(0 0 0.00111549)
(0 0 0.00110135)
(0 0 0.00108714)
(0 0 0.00107286)
(0 0 0.00105852)
(0 0 0.00104413)
(0 0 0.00102967)
(0 0 0.00101517)
(0 0 0.00100062)
(0 0 0.000986015)
(0 0 0.00097137)
(0 0 0.000956683)
(0 0 0.000941956)
(0 0 0.000927193)
(0 0 0.000912395)
(0 0 0.000897565)
(0 0 0.000882704)
(0 0 0.000867815)
(0 0 0.0008529)
(0 0 0.000837961)
(0 0 0.000822999)
(0 0 0.000808016)
(0 0 0.000793014)
(0 0 0.000777994)
(0 0 0.000762958)
(0 0 0.000747907)
(0 0 0.000732843)
(0 0 0.000717767)
(0 0 0.000702681)
(0 0 0.000687584)
(0 0 0.000672479)
(0 0 0.000657366)
(0 0 0.000642247)
(0 0 0.000627123)
(0 0 0.000611993)
(0 0 0.00059686)
(0 0 0.000581723)
(0 0 0.000566584)
(0 0 0.000551443)
(0 0 0.000536301)
(0 0 0.000521159)
(0 0 0.000506016)
(0 0 0.000490873)
(0 0 0.000475732)
(0 0 0.000460591)
(0 0 0.000445452)
(0 0 0.000430315)
(0 0 0.00041518)
(0 0 0.000400047)
(0 0 0.000384917)
(0 0 0.000369789)
(0 0 0.000354664)
(0 0 0.000339542)
(0 0 0.000324424)
(0 0 0.000309308)
(0 0 0.000294196)
(0 0 0.000279086)
(0 0 0.00026398)
(0 0 0.000248876)
(0 0 0.000233776)
(0 0 0.000218679)
(0 0 0.000203584)
(0 0 0.000188492)
(0 0 0.000173403)
(0 0 0.000158316)
(0 0 0.000143231)
(0 0 0.000128148)
(0 0 0.000113068)
(0 0 9.79884e-05)
(0 0 8.29108e-05)
(0 0 6.78343e-05)
(0 0 5.2759e-05)
(0 0 3.76844e-05)
(0 0 2.26104e-05)
(0 0 7.53676e-06)
(0 0 2.78446e-05)
(0 0 8.35342e-05)
(0 0 0.000139225)
(0 0 0.000194916)
(0 0 0.00025061)
(0 0 0.000306306)
(0 0 0.000362005)
(0 0 0.000417706)
(0 0 0.000473411)
(0 0 0.00052912)
(0 0 0.000584832)
(0 0 0.000640548)
(0 0 0.000696267)
(0 0 0.000751989)
(0 0 0.000807714)
(0 0 0.000863441)
(0 0 0.000919169)
(0 0 0.000974897)
(0 0 0.00103062)
(0 0 0.00108635)
(0 0 0.00114207)
(0 0 0.00119778)
(0 0 0.00125349)
(0 0 0.00130919)
(0 0 0.00136487)
(0 0 0.00142054)
(0 0 0.00147618)
(0 0 0.00153181)
(0 0 0.00158741)
(0 0 0.00164298)
(0 0 0.00169851)
(0 0 0.001754)
(0 0 0.00180945)
(0 0 0.00186485)
(0 0 0.00192019)
(0 0 0.00197547)
(0 0 0.00203067)
(0 0 0.0020858)
(0 0 0.00214085)
(0 0 0.00219581)
(0 0 0.00225066)
(0 0 0.00230541)
(0 0 0.00236003)
(0 0 0.00241453)
(0 0 0.00246889)
(0 0 0.0025231)
(0 0 0.00257715)
(0 0 0.00263103)
(0 0 0.00268473)
(0 0 0.00273823)
(0 0 0.00279153)
(0 0 0.0028446)
(0 0 0.00289744)
(0 0 0.00295002)
(0 0 0.00300235)
(0 0 0.0030544)
(0 0 0.00310615)
(0 0 0.00315759)
(0 0 0.00320871)
(0 0 0.00325948)
(0 0 0.0033099)
(0 0 0.00335994)
(0 0 0.00340958)
(0 0 0.00345882)
(0 0 0.00350762)
(0 0 0.00355597)
(0 0 0.00360386)
(0 0 0.00365126)
(0 0 0.00369815)
(0 0 0.00374452)
(0 0 0.00379034)
(0 0 0.0038356)
(0 0 0.00388027)
(0 0 0.00392434)
(0 0 0.00396778)
(0 0 0.00401058)
(0 0 0.00405271)
(0 0 0.00409416)
(0 0 0.0041349)
(0 0 0.00417491)
(0 0 0.00421418)
(0 0 0.00425268)
(0 0 0.0042904)
(0 0 0.00432731)
(0 0 0.0043634)
(0 0 0.00439865)
(0 0 0.00443304)
(0 0 0.00446655)
(0 0 0.00449917)
(0 0 0.00453087)
(0 0 0.00456164)
(0 0 0.00459147)
(0 0 0.00462033)
(0 0 0.00464822)
(0 0 0.00467512)
(0 0 0.00470101)
(0 0 0.00472589)
(0 0 0.00474973)
(0 0 0.00477253)
(0 0 0.00479428)
(0 0 0.00481496)
(0 0 0.00483457)
(0 0 0.00485309)
(0 0 0.00487052)
(0 0 0.00488686)
(0 0 0.00490209)
(0 0 0.00491621)
(0 0 0.00492922)
(0 0 0.0049411)
(0 0 0.00495187)
(0 0 0.00496151)
(0 0 0.00497002)
(0 0 0.00497741)
(0 0 0.00498367)
(0 0 0.00498881)
(0 0 0.00499282)
(0 0 0.00499571)
(0 0 0.00499749)
(0 0 0.00499816)
(0 0 0.00499771)
(0 0 0.00499617)
(0 0 0.00499353)
(0 0 0.00498981)
(0 0 0.00498501)
(0 0 0.00497913)
(0 0 0.0049722)
(0 0 0.00496422)
(0 0 0.0049552)
(0 0 0.00494515)
(0 0 0.00493408)
(0 0 0.00492201)
(0 0 0.00490895)
(0 0 0.00489491)
(0 0 0.00487991)
(0 0 0.00486397)
(0 0 0.00484708)
(0 0 0.00482928)
(0 0 0.00481058)
(0 0 0.00479098)
(0 0 0.00477052)
(0 0 0.0047492)
(0 0 0.00472705)
(0 0 0.00470407)
(0 0 0.00468028)
(0 0 0.00465571)
(0 0 0.00463037)
(0 0 0.00460428)
(0 0 0.00457745)
(0 0 0.0045499)
(0 0 0.00452165)
(0 0 0.00449272)
(0 0 0.00446312)
(0 0 0.00443287)
(0 0 0.00440199)
(0 0 0.0043705)
(0 0 0.00433841)
(0 0 0.00430574)
(0 0 0.00427251)
(0 0 0.00423873)
(0 0 0.00420443)
(0 0 0.00416961)
(0 0 0.00413429)
(0 0 0.00409849)
(0 0 0.00406223)
(0 0 0.00402552)
(0 0 0.00398837)
(0 0 0.00395081)
(0 0 0.00391284)
(0 0 0.00387448)
(0 0 0.00383575)
(0 0 0.00379666)
(0 0 0.00375722)
(0 0 0.00371744)
(0 0 0.00367735)
(0 0 0.00363695)
(0 0 0.00359625)
(0 0 0.00355527)
(0 0 0.00351402)
(0 0 0.00347251)
(0 0 0.00343075)
(0 0 0.00338876)
(0 0 0.00334654)
(0 0 0.00330411)
(0 0 0.00326147)
(0 0 0.00321864)
(0 0 0.00317563)
(0 0 0.00313243)
(0 0 0.00308907)
(0 0 0.00304556)
(0 0 0.00300189)
(0 0 0.00295809)
(0 0 0.00291415)
(0 0 0.00287009)
(0 0 0.0028259)
(0 0 0.00278161)
(0 0 0.00273722)
(0 0 0.00269272)
(0 0 0.00264814)
(0 0 0.00260347)
(0 0 0.00255872)
(0 0 0.0025139)
(0 0 0.00246902)
(0 0 0.00242407)
(0 0 0.00237906)
(0 0 0.002334)
(0 0 0.00228889)
(0 0 0.00224373)
(0 0 0.00219854)
(0 0 0.00215331)
(0 0 0.00210805)
(0 0 0.00206276)
(0 0 0.00201744)
(0 0 0.00197211)
(0 0 0.00192675)
(0 0 0.00188137)
(0 0 0.00183598)
(0 0 0.00179058)
(0 0 0.00174517)
(0 0 0.00169975)
(0 0 0.00165433)
(0 0 0.0016089)
(0 0 0.00156348)
(0 0 0.00151805)
(0 0 0.00147262)
(0 0 0.00142719)
(0 0 0.00138177)
(0 0 0.00133635)
(0 0 0.00129094)
(0 0 0.00124554)
(0 0 0.00120014)
(0 0 0.00115475)
(0 0 0.00110936)
(0 0 0.00106399)
(0 0 0.00101862)
(0 0 0.000973268)
(0 0 0.000927921)
(0 0 0.000882583)
(0 0 0.000837255)
(0 0 0.000791936)
(0 0 0.000746626)
(0 0 0.000701325)
(0 0 0.000656033)
(0 0 0.00061075)
(0 0 0.000565474)
(0 0 0.000520206)
(0 0 0.000474945)
(0 0 0.000429691)
(0 0 0.000384443)
(0 0 0.000339201)
(0 0 0.000293964)
(0 0 0.000248731)
(0 0 0.000203502)
(0 0 0.000158276)
(0 0 0.000113053)
(0 0 6.78309e-05)
(0 0 2.26102e-05)
(0 0 4.64074e-05)
(0 0 0.000139223)
(0 0 0.000232039)
(0 0 0.000324858)
(0 0 0.000417681)
(0 0 0.000510507)
(0 0 0.000603338)
(0 0 0.000696173)
(0 0 0.000789015)
(0 0 0.000881863)
(0 0 0.000974717)
(0 0 0.00106758)
(0 0 0.00116044)
(0 0 0.00125331)
(0 0 0.00134619)
(0 0 0.00143907)
(0 0 0.00153195)
(0 0 0.00162483)
(0 0 0.00171771)
(0 0 0.00181058)
(0 0 0.00190345)
(0 0 0.00199631)
(0 0 0.00208916)
(0 0 0.00218199)
(0 0 0.0022748)
(0 0 0.00236758)
(0 0 0.00246033)
(0 0 0.00255305)
(0 0 0.00264571)
(0 0 0.00273833)
(0 0 0.00283089)
(0 0 0.00292339)
(0 0 0.00301581)
(0 0 0.00310814)
(0 0 0.00320038)
(0 0 0.00329252)
(0 0 0.00338454)
(0 0 0.00347643)
(0 0 0.00356819)
(0 0 0.00365979)
(0 0 0.00375122)
(0 0 0.00384247)
(0 0 0.00393353)
(0 0 0.00402437)
(0 0 0.00411498)
(0 0 0.00420535)
(0 0 0.00429544)
(0 0 0.00438526)
(0 0 0.00447477)
(0 0 0.00456395)
(0 0 0.00465279)
(0 0 0.00474126)
(0 0 0.00482934)
(0 0 0.004917)
(0 0 0.00500422)
(0 0 0.00509099)
(0 0 0.00517726)
(0 0 0.00526301)
(0 0 0.00534823)
(0 0 0.00543287)
(0 0 0.00551692)
(0 0 0.00560034)
(0 0 0.0056831)
(0 0 0.00576517)
(0 0 0.00584653)
(0 0 0.00592714)
(0 0 0.00600697)
(0 0 0.006086)
(0 0 0.00616417)
(0 0 0.00624147)
(0 0 0.00631787)
(0 0 0.00639332)
(0 0 0.00646779)
(0 0 0.00654126)
(0 0 0.00661369)
(0 0 0.00668504)
(0 0 0.00675528)
(0 0 0.00682438)
(0 0 0.0068923)
(0 0 0.00695901)
(0 0 0.00702448)
(0 0 0.00708867)
(0 0 0.00715156)
(0 0 0.0072131)
(0 0 0.00727328)
(0 0 0.00733204)
(0 0 0.00738938)
(0 0 0.00744525)
(0 0 0.00749963)
(0 0 0.00755248)
(0 0 0.00760379)
(0 0 0.00765352)
(0 0 0.00770164)
(0 0 0.00774814)
(0 0 0.00779298)
(0 0 0.00783615)
(0 0 0.00787762)
(0 0 0.00791737)
(0 0 0.00795539)
(0 0 0.00799164)
(0 0 0.00802612)
(0 0 0.00805881)
(0 0 0.0080897)
(0 0 0.00811876)
(0 0 0.00814599)
(0 0 0.00817138)
(0 0 0.00819492)
(0 0 0.0082166)
(0 0 0.00823642)
(0 0 0.00825436)
(0 0 0.00827043)
(0 0 0.00828462)
(0 0 0.00829693)
(0 0 0.00830737)
(0 0 0.00831593)
(0 0 0.00832261)
(0 0 0.00832743)
(0 0 0.00833039)
(0 0 0.00833149)
(0 0 0.00833075)
(0 0 0.00832817)
(0 0 0.00832376)
(0 0 0.00831755)
(0 0 0.00830953)
(0 0 0.00829974)
(0 0 0.00828817)
(0 0 0.00827485)
(0 0 0.0082598)
(0 0 0.00824304)
(0 0 0.00822458)
(0 0 0.00820445)
(0 0 0.00818267)
(0 0 0.00815926)
(0 0 0.00813424)
(0 0 0.00810765)
(0 0 0.00807949)
(0 0 0.00804981)
(0 0 0.00801861)
(0 0 0.00798594)
(0 0 0.00795182)
(0 0 0.00791627)
(0 0 0.00787932)
(0 0 0.00784101)
(0 0 0.00780135)
(0 0 0.00776038)
(0 0 0.00771812)
(0 0 0.00767461)
(0 0 0.00762987)
(0 0 0.00758394)
(0 0 0.00753684)
(0 0 0.0074886)
(0 0 0.00743925)
(0 0 0.00738882)
(0 0 0.00733733)
(0 0 0.00728483)
(0 0 0.00723133)
(0 0 0.00717686)
(0 0 0.00712146)
(0 0 0.00706514)
(0 0 0.00700795)
(0 0 0.0069499)
(0 0 0.00689102)
(0 0 0.00683134)
(0 0 0.00677088)
(0 0 0.00670968)
(0 0 0.00664776)
(0 0 0.00658513)
(0 0 0.00652184)
(0 0 0.00645789)
(0 0 0.00639332)
(0 0 0.00632815)
(0 0 0.0062624)
(0 0 0.00619609)
(0 0 0.00612926)
(0 0 0.0060619)
(0 0 0.00599406)
(0 0 0.00592575)
(0 0 0.00585698)
(0 0 0.00578779)
(0 0 0.00571818)
(0 0 0.00564818)
(0 0 0.00557781)
(0 0 0.00550708)
(0 0 0.005436)
(0 0 0.00536461)
(0 0 0.0052929)
(0 0 0.00522091)
(0 0 0.00514863)
(0 0 0.0050761)
(0 0 0.00500331)
(0 0 0.00493029)
(0 0 0.00485705)
(0 0 0.00478361)
(0 0 0.00470996)
(0 0 0.00463614)
(0 0 0.00456213)
(0 0 0.00448797)
(0 0 0.00441366)
(0 0 0.00433921)
(0 0 0.00426462)
(0 0 0.00418991)
(0 0 0.0041151)
(0 0 0.00404017)
(0 0 0.00396515)
(0 0 0.00389005)
(0 0 0.00381486)
(0 0 0.0037396)
(0 0 0.00366428)
(0 0 0.00358889)
(0 0 0.00351345)
(0 0 0.00343796)
(0 0 0.00336243)
(0 0 0.00328686)
(0 0 0.00321126)
(0 0 0.00313564)
(0 0 0.00305998)
(0 0 0.00298431)
(0 0 0.00290863)
(0 0 0.00283293)
(0 0 0.00275722)
(0 0 0.00268151)
(0 0 0.00260579)
(0 0 0.00253008)
(0 0 0.00245436)
(0 0 0.00237865)
(0 0 0.00230295)
(0 0 0.00222725)
(0 0 0.00215156)
(0 0 0.00207589)
(0 0 0.00200022)
(0 0 0.00192457)
(0 0 0.00184893)
(0 0 0.00177331)
(0 0 0.0016977)
(0 0 0.0016221)
(0 0 0.00154652)
(0 0 0.00147096)
(0 0 0.00139541)
(0 0 0.00131988)
(0 0 0.00124437)
(0 0 0.00116887)
(0 0 0.00109338)
(0 0 0.00101791)
(0 0 0.000942448)
(0 0 0.000867002)
(0 0 0.000791568)
(0 0 0.000716145)
(0 0 0.000640732)
(0 0 0.000565329)
(0 0 0.000489935)
(0 0 0.000414547)
(0 0 0.000339166)
(0 0 0.000263791)
(0 0 0.000188419)
(0 0 0.00011305)
(0 0 3.76832e-05)
(0 0 6.49697e-05)
(0 0 0.00019491)
(0 0 0.000324852)
(0 0 0.000454797)
(0 0 0.000584747)
(0 0 0.000714703)
(0 0 0.000844665)
(0 0 0.000974635)
(0 0 0.00110461)
(0 0 0.0012346)
(0 0 0.00136459)
(0 0 0.0014946)
(0 0 0.00162461)
(0 0 0.00175463)
(0 0 0.00188466)
(0 0 0.00201469)
(0 0 0.00214473)
(0 0 0.00227476)
(0 0 0.0024048)
(0 0 0.00253483)
(0 0 0.00266485)
(0 0 0.00279486)
(0 0 0.00292485)
(0 0 0.00305482)
(0 0 0.00318476)
(0 0 0.00331466)
(0 0 0.00344452)
(0 0 0.00357432)
(0 0 0.00370407)
(0 0 0.00383375)
(0 0 0.00396334)
(0 0 0.00409285)
(0 0 0.00422225)
(0 0 0.00435153)
(0 0 0.00448068)
(0 0 0.00460969)
(0 0 0.00473854)
(0 0 0.00486721)
(0 0 0.00499568)
(0 0 0.00512394)
(0 0 0.00525197)
(0 0 0.00537974)
(0 0 0.00550724)
(0 0 0.00563444)
(0 0 0.00576132)
(0 0 0.00588786)
(0 0 0.00601402)
(0 0 0.00613979)
(0 0 0.00626513)
(0 0 0.00639002)
(0 0 0.00651442)
(0 0 0.00663831)
(0 0 0.00676165)
(0 0 0.00688441)
(0 0 0.00700656)
(0 0 0.00712806)
(0 0 0.00724888)
(0 0 0.00736898)
(0 0 0.00748832)
(0 0 0.00760686)
(0 0 0.00772456)
(0 0 0.00784139)
(0 0 0.0079573)
(0 0 0.00807225)
(0 0 0.00818619)
(0 0 0.00829909)
(0 0 0.0084109)
(0 0 0.00852157)
(0 0 0.00863107)
(0 0 0.00873934)
(0 0 0.00884633)
(0 0 0.00895201)
(0 0 0.00905632)
(0 0 0.00915923)
(0 0 0.00926067)
(0 0 0.00936061)
(0 0 0.00945899)
(0 0 0.00955578)
(0 0 0.00965091)
(0 0 0.00974436)
(0 0 0.00983606)
(0 0 0.00992597)
(0 0 0.0100141)
(0 0 0.0101003)
(0 0 0.0101846)
(0 0 0.0102669)
(0 0 0.0103472)
(0 0 0.0104254)
(0 0 0.0105016)
(0 0 0.0105756)
(0 0 0.0106475)
(0 0 0.0107172)
(0 0 0.0107846)
(0 0 0.0108497)
(0 0 0.0109125)
(0 0 0.010973)
(0 0 0.0110311)
(0 0 0.0110868)
(0 0 0.01114)
(0 0 0.0111908)
(0 0 0.0112391)
(0 0 0.0112849)
(0 0 0.0113281)
(0 0 0.0113688)
(0 0 0.011407)
(0 0 0.0114425)
(0 0 0.0114755)
(0 0 0.0115059)
(0 0 0.0115336)
(0 0 0.0115587)
(0 0 0.0115812)
(0 0 0.0116011)
(0 0 0.0116183)
(0 0 0.0116329)
(0 0 0.0116449)
(0 0 0.0116543)
(0 0 0.011661)
(0 0 0.0116651)
(0 0 0.0116667)
(0 0 0.0116656)
(0 0 0.011662)
(0 0 0.0116558)
(0 0 0.0116471)
(0 0 0.0116358)
(0 0 0.0116221)
(0 0 0.0116059)
(0 0 0.0115872)
(0 0 0.0115661)
(0 0 0.0115426)
(0 0 0.0115168)
(0 0 0.0114885)
(0 0 0.011458)
(0 0 0.0114252)
(0 0 0.0113902)
(0 0 0.0113529)
(0 0 0.0113134)
(0 0 0.0112718)
(0 0 0.0112281)
(0 0 0.0111824)
(0 0 0.0111345)
(0 0 0.0110847)
(0 0 0.011033)
(0 0 0.0109793)
(0 0 0.0109237)
(0 0 0.0108663)
(0 0 0.0108071)
(0 0 0.0107462)
(0 0 0.0106835)
(0 0 0.0106192)
(0 0 0.0105532)
(0 0 0.0104856)
(0 0 0.0104165)
(0 0 0.0103458)
(0 0 0.0102737)
(0 0 0.0102002)
(0 0 0.0101252)
(0 0 0.0100489)
(0 0 0.00997131)
(0 0 0.00989244)
(0 0 0.00981232)
(0 0 0.00973101)
(0 0 0.00964855)
(0 0 0.00956496)
(0 0 0.00948029)
(0 0 0.00939457)
(0 0 0.00930783)
(0 0 0.00922013)
(0 0 0.00913148)
(0 0 0.00904192)
(0 0 0.00895149)
(0 0 0.00886022)
(0 0 0.00876814)
(0 0 0.00867528)
(0 0 0.00858167)
(0 0 0.00848735)
(0 0 0.00839234)
(0 0 0.00829668)
(0 0 0.00820038)
(0 0 0.00810348)
(0 0 0.00800601)
(0 0 0.00790798)
(0 0 0.00780943)
(0 0 0.00771038)
(0 0 0.00761086)
(0 0 0.00751088)
(0 0 0.00741047)
(0 0 0.00730966)
(0 0 0.00720845)
(0 0 0.00710688)
(0 0 0.00700497)
(0 0 0.00690272)
(0 0 0.00680017)
(0 0 0.00669732)
(0 0 0.00659421)
(0 0 0.00649083)
(0 0 0.00638721)
(0 0 0.00628337)
(0 0 0.00617932)
(0 0 0.00607507)
(0 0 0.00597064)
(0 0 0.00586604)
(0 0 0.00576128)
(0 0 0.00565638)
(0 0 0.00555134)
(0 0 0.00544618)
(0 0 0.00534091)
(0 0 0.00523554)
(0 0 0.00513007)
(0 0 0.00502452)
(0 0 0.0049189)
(0 0 0.00481321)
(0 0 0.00470746)
(0 0 0.00460165)
(0 0 0.00449581)
(0 0 0.00438992)
(0 0 0.00428401)
(0 0 0.00417806)
(0 0 0.0040721)
(0 0 0.00396611)
(0 0 0.00386012)
(0 0 0.00375412)
(0 0 0.00364811)
(0 0 0.0035421)
(0 0 0.0034361)
(0 0 0.0033301)
(0 0 0.00322411)
(0 0 0.00311814)
(0 0 0.00301217)
(0 0 0.00290622)
(0 0 0.00280029)
(0 0 0.00269438)
(0 0 0.00258848)
(0 0 0.00248261)
(0 0 0.00237675)
(0 0 0.00227092)
(0 0 0.00216511)
(0 0 0.00205932)
(0 0 0.00195356)
(0 0 0.00184781)
(0 0 0.00174209)
(0 0 0.00163639)
(0 0 0.00153071)
(0 0 0.00142505)
(0 0 0.00131941)
(0 0 0.00121379)
(0 0 0.00110818)
(0 0 0.00100259)
(0 0 0.000897012)
(0 0 0.000791449)
(0 0 0.000685898)
(0 0 0.000580358)
(0 0 0.000474826)
(0 0 0.000369301)
(0 0 0.000263783)
(0 0 0.000158268)
(0 0 5.27557e-05)
(0 0 8.35313e-05)
(0 0 0.000250595)
(0 0 0.000417661)
(0 0 0.000584732)
(0 0 0.000751808)
(0 0 0.000918893)
(0 0 0.00108599)
(0 0 0.00125309)
(0 0 0.0014202)
(0 0 0.00158733)
(0 0 0.00175446)
(0 0 0.00192161)
(0 0 0.00208877)
(0 0 0.00225594)
(0 0 0.00242312)
(0 0 0.00259031)
(0 0 0.0027575)
(0 0 0.0029247)
(0 0 0.00309189)
(0 0 0.00325908)
(0 0 0.00342626)
(0 0 0.00359342)
(0 0 0.00376056)
(0 0 0.00392767)
(0 0 0.00409475)
(0 0 0.00426178)
(0 0 0.00442875)
(0 0 0.00459566)
(0 0 0.0047625)
(0 0 0.00492924)
(0 0 0.00509589)
(0 0 0.00526241)
(0 0 0.00542881)
(0 0 0.00559505)
(0 0 0.00576113)
(0 0 0.00592702)
(0 0 0.00609271)
(0 0 0.00625817)
(0 0 0.00642338)
(0 0 0.00658832)
(0 0 0.00675296)
(0 0 0.00691728)
(0 0 0.00708125)
(0 0 0.00724483)
(0 0 0.00740801)
(0 0 0.00757074)
(0 0 0.00773299)
(0 0 0.00789474)
(0 0 0.00805594)
(0 0 0.00821657)
(0 0 0.00837657)
(0 0 0.00853591)
(0 0 0.00869455)
(0 0 0.00885244)
(0 0 0.00900955)
(0 0 0.00916583)
(0 0 0.00932123)
(0 0 0.0094757)
(0 0 0.0096292)
(0 0 0.00978168)
(0 0 0.00993309)
(0 0 0.0100834)
(0 0 0.0102325)
(0 0 0.0103803)
(0 0 0.0105269)
(0 0 0.0106721)
(0 0 0.010816)
(0 0 0.0109583)
(0 0 0.0110992)
(0 0 0.0112385)
(0 0 0.0113761)
(0 0 0.0115121)
(0 0 0.0116463)
(0 0 0.0117787)
(0 0 0.0119092)
(0 0 0.0120377)
(0 0 0.0121643)
(0 0 0.0122888)
(0 0 0.0124112)
(0 0 0.0125314)
(0 0 0.0126494)
(0 0 0.0127651)
(0 0 0.0128784)
(0 0 0.0129893)
(0 0 0.0130978)
(0 0 0.0132037)
(0 0 0.013307)
(0 0 0.0134077)
(0 0 0.0135057)
(0 0 0.013601)
(0 0 0.0136934)
(0 0 0.0137831)
(0 0 0.0138698)
(0 0 0.0139536)
(0 0 0.0140344)
(0 0 0.0141122)
(0 0 0.0141869)
(0 0 0.0142586)
(0 0 0.0143271)
(0 0 0.0143924)
(0 0 0.0144545)
(0 0 0.0145134)
(0 0 0.0145691)
(0 0 0.0146215)
(0 0 0.0146705)
(0 0 0.0147163)
(0 0 0.0147587)
(0 0 0.0147977)
(0 0 0.0148334)
(0 0 0.0148657)
(0 0 0.0148947)
(0 0 0.0149202)
(0 0 0.0149424)
(0 0 0.0149611)
(0 0 0.0149765)
(0 0 0.0149885)
(0 0 0.0149972)
(0 0 0.0150025)
(0 0 0.0150044)
(0 0 0.0150031)
(0 0 0.0149984)
(0 0 0.0149904)
(0 0 0.0149791)
(0 0 0.0149647)
(0 0 0.014947)
(0 0 0.0149261)
(0 0 0.014902)
(0 0 0.0148748)
(0 0 0.0148446)
(0 0 0.0148113)
(0 0 0.014775)
(0 0 0.0147357)
(0 0 0.0146934)
(0 0 0.0146483)
(0 0 0.0146003)
(0 0 0.0145495)
(0 0 0.014496)
(0 0 0.0144397)
(0 0 0.0143808)
(0 0 0.0143193)
(0 0 0.0142552)
(0 0 0.0141885)
(0 0 0.0141194)
(0 0 0.0140479)
(0 0 0.0139741)
(0 0 0.0138979)
(0 0 0.0138195)
(0 0 0.0137388)
(0 0 0.013656)
(0 0 0.0135711)
(0 0 0.0134841)
(0 0 0.0133952)
(0 0 0.0133043)
(0 0 0.0132115)
(0 0 0.0131169)
(0 0 0.0130204)
(0 0 0.0129223)
(0 0 0.0128224)
(0 0 0.012721)
(0 0 0.0126179)
(0 0 0.0125133)
(0 0 0.0124072)
(0 0 0.0122997)
(0 0 0.0121907)
(0 0 0.0120805)
(0 0 0.0119689)
(0 0 0.0118561)
(0 0 0.011742)
(0 0 0.0116268)
(0 0 0.0115105)
(0 0 0.0113931)
(0 0 0.0112747)
(0 0 0.0111552)
(0 0 0.0110348)
(0 0 0.0109135)
(0 0 0.0107913)
(0 0 0.0106682)
(0 0 0.0105444)
(0 0 0.0104198)
(0 0 0.0102944)
(0 0 0.0101683)
(0 0 0.0100416)
(0 0 0.00991417)
(0 0 0.00978617)
(0 0 0.00965759)
(0 0 0.00952845)
(0 0 0.0093988)
(0 0 0.00926864)
(0 0 0.00913802)
(0 0 0.00900695)
(0 0 0.00887546)
(0 0 0.00874357)
(0 0 0.00861132)
(0 0 0.00847871)
(0 0 0.00834577)
(0 0 0.00821252)
(0 0 0.00807898)
(0 0 0.00794518)
(0 0 0.00781112)
(0 0 0.00767683)
(0 0 0.00754232)
(0 0 0.00740761)
(0 0 0.00727271)
(0 0 0.00713765)
(0 0 0.00700242)
(0 0 0.00686706)
(0 0 0.00673156)
(0 0 0.00659595)
(0 0 0.00646023)
(0 0 0.00632441)
(0 0 0.00618851)
(0 0 0.00605253)
(0 0 0.00591649)
(0 0 0.00578039)
(0 0 0.00564424)
(0 0 0.00550805)
(0 0 0.00537183)
(0 0 0.00523558)
(0 0 0.00509931)
(0 0 0.00496302)
(0 0 0.00482673)
(0 0 0.00469043)
(0 0 0.00455413)
(0 0 0.00441783)
(0 0 0.00428155)
(0 0 0.00414527)
(0 0 0.00400901)
(0 0 0.00387277)
(0 0 0.00373655)
(0 0 0.00360034)
(0 0 0.00346417)
(0 0 0.00332801)
(0 0 0.00319189)
(0 0 0.00305579)
(0 0 0.00291972)
(0 0 0.00278368)
(0 0 0.00264766)
(0 0 0.00251168)
(0 0 0.00237572)
(0 0 0.0022398)
(0 0 0.0021039)
(0 0 0.00196802)
(0 0 0.00183218)
(0 0 0.00169635)
(0 0 0.00156055)
(0 0 0.00142477)
(0 0 0.00128902)
(0 0 0.00115328)
(0 0 0.00101756)
(0 0 0.000881852)
(0 0 0.000746159)
(0 0 0.000610478)
(0 0 0.000474806)
(0 0 0.000339142)
(0 0 0.000203483)
(0 0 6.78273e-05)
(0 0 0.000102092)
(0 0 0.000306277)
(0 0 0.000510466)
(0 0 0.00071466)
(0 0 0.000918862)
(0 0 0.00112307)
(0 0 0.0013273)
(0 0 0.00153153)
(0 0 0.00173578)
(0 0 0.00194004)
(0 0 0.00214432)
(0 0 0.00234862)
(0 0 0.00255292)
(0 0 0.00275725)
(0 0 0.00296158)
(0 0 0.00316593)
(0 0 0.00337028)
(0 0 0.00357463)
(0 0 0.00377899)
(0 0 0.00398334)
(0 0 0.00418768)
(0 0 0.004392)
(0 0 0.0045963)
(0 0 0.00480057)
(0 0 0.00500479)
(0 0 0.00520895)
(0 0 0.00541306)
(0 0 0.00561708)
(0 0 0.00582101)
(0 0 0.00602484)
(0 0 0.00622855)
(0 0 0.00643211)
(0 0 0.00663551)
(0 0 0.00683874)
(0 0 0.00704176)
(0 0 0.00724456)
(0 0 0.00744711)
(0 0 0.00764939)
(0 0 0.00785136)
(0 0 0.008053)
(0 0 0.00825428)
(0 0 0.00845517)
(0 0 0.00865563)
(0 0 0.00885563)
(0 0 0.00905513)
(0 0 0.00925409)
(0 0 0.00945248)
(0 0 0.00965024)
(0 0 0.00984734)
(0 0 0.0100437)
(0 0 0.0102394)
(0 0 0.0104342)
(0 0 0.0106282)
(0 0 0.0108213)
(0 0 0.0110134)
(0 0 0.0112045)
(0 0 0.0113945)
(0 0 0.0115834)
(0 0 0.0117711)
(0 0 0.0119576)
(0 0 0.0121427)
(0 0 0.0123265)
(0 0 0.0125089)
(0 0 0.0126897)
(0 0 0.012869)
(0 0 0.0130466)
(0 0 0.0132225)
(0 0 0.0133966)
(0 0 0.0135689)
(0 0 0.0137392)
(0 0 0.0139076)
(0 0 0.0140739)
(0 0 0.014238)
(0 0 0.0143999)
(0 0 0.0145596)
(0 0 0.0147168)
(0 0 0.0148717)
(0 0 0.015024)
(0 0 0.0151737)
(0 0 0.0153208)
(0 0 0.0154651)
(0 0 0.0156066)
(0 0 0.0157452)
(0 0 0.0158809)
(0 0 0.0160136)
(0 0 0.0161431)
(0 0 0.0162695)
(0 0 0.0163927)
(0 0 0.0165126)
(0 0 0.0166291)
(0 0 0.0167422)
(0 0 0.0168519)
(0 0 0.016958)
(0 0 0.0170605)
(0 0 0.0171593)
(0 0 0.0172545)
(0 0 0.0173459)
(0 0 0.0174335)
(0 0 0.0175173)
(0 0 0.0175972)
(0 0 0.0176732)
(0 0 0.0177453)
(0 0 0.0178134)
(0 0 0.0178774)
(0 0 0.0179374)
(0 0 0.0179934)
(0 0 0.0180452)
(0 0 0.018093)
(0 0 0.0181366)
(0 0 0.0181761)
(0 0 0.0182115)
(0 0 0.0182427)
(0 0 0.0182698)
(0 0 0.0182927)
(0 0 0.0183115)
(0 0 0.0183262)
(0 0 0.0183367)
(0 0 0.0183432)
(0 0 0.0183455)
(0 0 0.0183438)
(0 0 0.018338)
(0 0 0.0183282)
(0 0 0.0183144)
(0 0 0.0182967)
(0 0 0.018275)
(0 0 0.0182494)
(0 0 0.0182199)
(0 0 0.0181867)
(0 0 0.0181496)
(0 0 0.0181088)
(0 0 0.0180643)
(0 0 0.0180162)
(0 0 0.0179645)
(0 0 0.0179093)
(0 0 0.0178505)
(0 0 0.0177884)
(0 0 0.0177228)
(0 0 0.017654)
(0 0 0.0175819)
(0 0 0.0175065)
(0 0 0.0174281)
(0 0 0.0173466)
(0 0 0.017262)
(0 0 0.0171745)
(0 0 0.0170841)
(0 0 0.0169909)
(0 0 0.0168949)
(0 0 0.0167963)
(0 0 0.016695)
(0 0 0.0165911)
(0 0 0.0164847)
(0 0 0.0163759)
(0 0 0.0162647)
(0 0 0.0161511)
(0 0 0.0160354)
(0 0 0.0159174)
(0 0 0.0157973)
(0 0 0.0156752)
(0 0 0.0155511)
(0 0 0.015425)
(0 0 0.0152971)
(0 0 0.0151673)
(0 0 0.0150358)
(0 0 0.0149025)
(0 0 0.0147677)
(0 0 0.0146312)
(0 0 0.0144932)
(0 0 0.0143537)
(0 0 0.0142129)
(0 0 0.0140706)
(0 0 0.013927)
(0 0 0.0137822)
(0 0 0.0136361)
(0 0 0.0134889)
(0 0 0.0133405)
(0 0 0.0131911)
(0 0 0.0130406)
(0 0 0.0128892)
(0 0 0.0127368)
(0 0 0.0125835)
(0 0 0.0124293)
(0 0 0.0122743)
(0 0 0.0121186)
(0 0 0.0119621)
(0 0 0.0118048)
(0 0 0.011647)
(0 0 0.0114884)
(0 0 0.0113293)
(0 0 0.0111696)
(0 0 0.0110094)
(0 0 0.0108486)
(0 0 0.0106874)
(0 0 0.0105257)
(0 0 0.0103635)
(0 0 0.010201)
(0 0 0.0100381)
(0 0 0.00987487)
(0 0 0.00971129)
(0 0 0.0095474)
(0 0 0.00938323)
(0 0 0.0092188)
(0 0 0.00905412)
(0 0 0.00888922)
(0 0 0.00872411)
(0 0 0.00855881)
(0 0 0.00839334)
(0 0 0.00822771)
(0 0 0.00806193)
(0 0 0.00789603)
(0 0 0.00773001)
(0 0 0.00756389)
(0 0 0.00739768)
(0 0 0.00723138)
(0 0 0.00706502)
(0 0 0.0068986)
(0 0 0.00673214)
(0 0 0.00656563)
(0 0 0.00639909)
(0 0 0.00623252)
(0 0 0.00606594)
(0 0 0.00589934)
(0 0 0.00573275)
(0 0 0.00556615)
(0 0 0.00539956)
(0 0 0.00523298)
(0 0 0.00506641)
(0 0 0.00489987)
(0 0 0.00473334)
(0 0 0.00456684)
(0 0 0.00440037)
(0 0 0.00423393)
(0 0 0.00406752)
(0 0 0.00390114)
(0 0 0.0037348)
(0 0 0.00356849)
(0 0 0.00340222)
(0 0 0.00323598)
(0 0 0.00306977)
(0 0 0.00290361)
(0 0 0.00273747)
(0 0 0.00257138)
(0 0 0.00240531)
(0 0 0.00223928)
(0 0 0.00207327)
(0 0 0.0019073)
(0 0 0.00174135)
(0 0 0.00157543)
(0 0 0.00140953)
(0 0 0.00124365)
(0 0 0.00107779)
(0 0 0.000911949)
(0 0 0.00074612)
(0 0 0.000580304)
(0 0 0.000414496)
(0 0 0.000248695)
(0 0 8.28979e-05)
(0 0 0.000120652)
(0 0 0.000361956)
(0 0 0.000603265)
(0 0 0.000844581)
(0 0 0.00108591)
(0 0 0.00132724)
(0 0 0.00156859)
(0 0 0.00180996)
(0 0 0.00205134)
(0 0 0.00229274)
(0 0 0.00253416)
(0 0 0.0027756)
(0 0 0.00301706)
(0 0 0.00325854)
(0 0 0.00350003)
(0 0 0.00374153)
(0 0 0.00398305)
(0 0 0.00422457)
(0 0 0.00446609)
(0 0 0.00470761)
(0 0 0.00494912)
(0 0 0.00519061)
(0 0 0.00543208)
(0 0 0.0056735)
(0 0 0.00591488)
(0 0 0.00615619)
(0 0 0.00639744)
(0 0 0.00663859)
(0 0 0.00687964)
(0 0 0.00712056)
(0 0 0.00736134)
(0 0 0.00760196)
(0 0 0.0078424)
(0 0 0.00808262)
(0 0 0.00832261)
(0 0 0.00856234)
(0 0 0.00880178)
(0 0 0.0090409)
(0 0 0.00927967)
(0 0 0.00951805)
(0 0 0.009756)
(0 0 0.00999349)
(0 0 0.0102305)
(0 0 0.0104669)
(0 0 0.0107028)
(0 0 0.010938)
(0 0 0.0111726)
(0 0 0.0114064)
(0 0 0.0116395)
(0 0 0.0118717)
(0 0 0.012103)
(0 0 0.0123334)
(0 0 0.0125627)
(0 0 0.012791)
(0 0 0.0130182)
(0 0 0.0132442)
(0 0 0.0134689)
(0 0 0.0136923)
(0 0 0.0139143)
(0 0 0.0141348)
(0 0 0.0143538)
(0 0 0.0145711)
(0 0 0.0147868)
(0 0 0.0150006)
(0 0 0.0152126)
(0 0 0.0154227)
(0 0 0.0156308)
(0 0 0.0158367)
(0 0 0.0160405)
(0 0 0.016242)
(0 0 0.0164411)
(0 0 0.0166378)
(0 0 0.016832)
(0 0 0.0170235)
(0 0 0.0172124)
(0 0 0.0173984)
(0 0 0.0175816)
(0 0 0.0177617)
(0 0 0.0179389)
(0 0 0.0181128)
(0 0 0.0182836)
(0 0 0.018451)
(0 0 0.018615)
(0 0 0.0187755)
(0 0 0.0189324)
(0 0 0.0190857)
(0 0 0.0192352)
(0 0 0.019381)
(0 0 0.0195228)
(0 0 0.0196607)
(0 0 0.0197945)
(0 0 0.0199242)
(0 0 0.0200497)
(0 0 0.020171)
(0 0 0.0202879)
(0 0 0.0204005)
(0 0 0.0205087)
(0 0 0.0206123)
(0 0 0.0207114)
(0 0 0.020806)
(0 0 0.0208959)
(0 0 0.0209811)
(0 0 0.0210616)
(0 0 0.0211374)
(0 0 0.0212084)
(0 0 0.0212745)
(0 0 0.0213358)
(0 0 0.0213923)
(0 0 0.0214439)
(0 0 0.0214906)
(0 0 0.0215324)
(0 0 0.0215693)
(0 0 0.0216014)
(0 0 0.0216285)
(0 0 0.0216507)
(0 0 0.021668)
(0 0 0.0216804)
(0 0 0.021688)
(0 0 0.0216907)
(0 0 0.0216886)
(0 0 0.0216817)
(0 0 0.0216701)
(0 0 0.0216537)
(0 0 0.0216326)
(0 0 0.0216069)
(0 0 0.0215766)
(0 0 0.0215417)
(0 0 0.0215022)
(0 0 0.0214584)
(0 0 0.02141)
(0 0 0.0213574)
(0 0 0.0213004)
(0 0 0.0212391)
(0 0 0.0211737)
(0 0 0.0211042)
(0 0 0.0210306)
(0 0 0.020953)
(0 0 0.0208715)
(0 0 0.0207861)
(0 0 0.020697)
(0 0 0.0206041)
(0 0 0.0205076)
(0 0 0.0204076)
(0 0 0.020304)
(0 0 0.020197)
(0 0 0.0200867)
(0 0 0.0199731)
(0 0 0.0198564)
(0 0 0.0197365)
(0 0 0.0196136)
(0 0 0.0194877)
(0 0 0.0193589)
(0 0 0.0192273)
(0 0 0.019093)
(0 0 0.0189561)
(0 0 0.0188165)
(0 0 0.0186745)
(0 0 0.01853)
(0 0 0.0183831)
(0 0 0.018234)
(0 0 0.0180826)
(0 0 0.0179291)
(0 0 0.0177736)
(0 0 0.017616)
(0 0 0.0174564)
(0 0 0.017295)
(0 0 0.0171318)
(0 0 0.0169669)
(0 0 0.0168003)
(0 0 0.016632)
(0 0 0.0164622)
(0 0 0.0162909)
(0 0 0.0161182)
(0 0 0.015944)
(0 0 0.0157686)
(0 0 0.0155919)
(0 0 0.015414)
(0 0 0.0152349)
(0 0 0.0150547)
(0 0 0.0148734)
(0 0 0.0146911)
(0 0 0.0145079)
(0 0 0.0143237)
(0 0 0.0141387)
(0 0 0.0139528)
(0 0 0.0137661)
(0 0 0.0135787)
(0 0 0.0133905)
(0 0 0.0132017)
(0 0 0.0130123)
(0 0 0.0128222)
(0 0 0.0126316)
(0 0 0.0124404)
(0 0 0.0122488)
(0 0 0.0120566)
(0 0 0.0118641)
(0 0 0.0116711)
(0 0 0.0114777)
(0 0 0.011284)
(0 0 0.0110899)
(0 0 0.0108955)
(0 0 0.0107009)
(0 0 0.0105059)
(0 0 0.0103108)