/*--------------------------------*- C++ -*----------------------------------*\
| =========                 |                                                 |
| \\      /  F ield         | OpenFOAM: The Open Source CFD Toolbox           |
|  \\    /   O peration     | Version:  v2012                                 |
|   \\  /    A nd           | Website:  www.openfoam.com                      |
|    \\/     M anipulation  |                                                 |
\*---------------------------------------------------------------------------*/
FoamFile
{
    version     2.0;
    format      ascii;
    class       volVectorField;
    location    "9";
    object      U;
}
// * * * * * * * * * * * * * * * * * * * * * * * * * * * * * * * * * * * * * //

dimensions      [0 1 -1 0 0 0 0];


internalField   nonuniform List<vector> 
65536
(
(0.000756745 -0.000756749 0)
(0.00227024 -0.000756756 0)
(0.00378376 -0.000756771 0)
(0.00529732 -0.000756792 0)
(0.00681093 -0.00075682 0)
(0.00832459 -0.000756854 0)
(0.00983834 -0.000756892 0)
(0.0113522 -0.000756935 0)
(0.0128661 -0.00075698 0)
(0.0143801 -0.000757027 0)
(0.0158942 -0.000757074 0)
(0.0174084 -0.000757119 0)
(0.0189227 -0.00075716 0)
(0.020437 -0.000757196 0)
(0.0219515 -0.000757225 0)
(0.0234659 -0.000757243 0)
(0.0249804 -0.000757249 0)
(0.0264949 -0.000757241 0)
(0.0280094 -0.000757214 0)
(0.0295238 -0.000757167 0)
(0.0310381 -0.000757096 0)
(0.0325522 -0.000756997 0)
(0.0340661 -0.000756869 0)
(0.0355797 -0.000756706 0)
(0.037093 -0.000756505 0)
(0.0386058 -0.000756262 0)
(0.0401181 -0.000755974 0)
(0.0416297 -0.000755635 0)
(0.0431407 -0.000755242 0)
(0.0446508 -0.000754791 0)
(0.0461599 -0.000754275 0)
(0.0476679 -0.000753692 0)
(0.0491747 -0.000753035 0)
(0.0506802 -0.000752301 0)
(0.052184 -0.000751483 0)
(0.0536862 -0.000750576 0)
(0.0551864 -0.000749575 0)
(0.0566846 -0.000748475 0)
(0.0581804 -0.00074727 0)
(0.0596738 -0.000745955 0)
(0.0611644 -0.000744523 0)
(0.062652 -0.000742969 0)
(0.0641364 -0.000741286 0)
(0.0656173 -0.00073947 0)
(0.0670944 -0.000737513 0)
(0.0685675 -0.000735411 0)
(0.0700362 -0.000733156 0)
(0.0715002 -0.000730743 0)
(0.0729593 -0.000728166 0)
(0.0744131 -0.000725418 0)
(0.0758612 -0.000722494 0)
(0.0773032 -0.000719388 0)
(0.0787389 -0.000716093 0)
(0.0801678 -0.000712604 0)
(0.0815895 -0.000708915 0)
(0.0830037 -0.00070502 0)
(0.0844098 -0.000700914 0)
(0.0858075 -0.000696591 0)
(0.0871964 -0.000692046 0)
(0.0885759 -0.000687273 0)
(0.0899457 -0.000682269 0)
(0.0913053 -0.000677027 0)
(0.0926541 -0.000671544 0)
(0.0939917 -0.000665815 0)
(0.0953176 -0.000659836 0)
(0.0966313 -0.000653604 0)
(0.0979323 -0.000647114 0)
(0.09922 -0.000640363 0)
(0.100494 -0.000633349 0)
(0.101754 -0.00062607 0)
(0.102999 -0.000618522 0)
(0.104228 -0.000610703 0)
(0.105442 -0.000602614 0)
(0.106639 -0.000594251 0)
(0.107819 -0.000585616 0)
(0.108981 -0.000576707 0)
(0.110126 -0.000567524 0)
(0.111252 -0.000558069 0)
(0.112359 -0.000548341 0)
(0.113445 -0.000538344 0)
(0.114512 -0.000528078 0)
(0.115558 -0.000517546 0)
(0.116583 -0.000506752 0)
(0.117585 -0.000495697 0)
(0.118566 -0.000484387 0)
(0.119523 -0.000472825 0)
(0.120457 -0.000461016 0)
(0.121367 -0.000448966 0)
(0.122253 -0.00043668 0)
(0.123114 -0.000424165 0)
(0.12395 -0.000411426 0)
(0.12476 -0.000398471 0)
(0.125544 -0.000385307 0)
(0.126302 -0.000371942 0)
(0.127032 -0.000358385 0)
(0.127735 -0.000344644 0)
(0.128411 -0.000330727 0)
(0.129059 -0.000316645 0)
(0.129678 -0.000302407 0)
(0.130268 -0.000288022 0)
(0.13083 -0.000273502 0)
(0.131362 -0.000258855 0)
(0.131865 -0.000244094 0)
(0.132339 -0.000229229 0)
(0.132782 -0.00021427 0)
(0.133196 -0.00019923 0)
(0.133579 -0.000184119 0)
(0.133933 -0.00016895 0)
(0.134255 -0.000153732 0)
(0.134548 -0.000138478 0)
(0.134809 -0.0001232 0)
(0.13504 -0.000107909 0)
(0.135241 -9.26166e-05 0)
(0.135411 -7.73339e-05 0)
(0.13555 -6.20725e-05 0)
(0.135659 -4.68436e-05 0)
(0.135738 -3.16582e-05 0)
(0.135786 -1.65275e-05 0)
(0.135804 -1.462e-06 0)
(0.135791 1.35277e-05 0)
(0.135749 2.84312e-05 0)
(0.135678 4.32385e-05 0)
(0.135576 5.79399e-05 0)
(0.135446 7.25257e-05 0)
(0.135286 8.69868e-05 0)
(0.135098 0.000101314 0)
(0.134881 0.0001155 0)
(0.134636 0.000129534 0)
(0.134362 0.000143411 0)
(0.134062 0.000157122 0)
(0.133734 0.000170659 0)
(0.133379 0.000184017 0)
(0.132997 0.000197189 0)
(0.13259 0.000210169 0)
(0.132157 0.000222951 0)
(0.131698 0.00023553 0)
(0.131214 0.000247901 0)
(0.130706 0.000260059 0)
(0.130174 0.000272002 0)
(0.129618 0.000283724 0)
(0.129039 0.000295223 0)
(0.128437 0.000306495 0)
(0.127813 0.000317539 0)
(0.127166 0.000328352 0)
(0.126499 0.000338932 0)
(0.12581 0.000349277 0)
(0.125102 0.000359387 0)
(0.124373 0.000369261 0)
(0.123624 0.000378897 0)
(0.122857 0.000388297 0)
(0.122071 0.00039746 0)
(0.121267 0.000406387 0)
(0.120445 0.000415078 0)
(0.119606 0.000423534 0)
(0.118751 0.000431756 0)
(0.117879 0.000439746 0)
(0.116991 0.000447506 0)
(0.116089 0.000455037 0)
(0.115171 0.000462342 0)
(0.114239 0.000469423 0)
(0.113293 0.000476282 0)
(0.112334 0.000482922 0)
(0.111361 0.000489346 0)
(0.110376 0.000495556 0)
(0.109379 0.000501557 0)
(0.10837 0.000507351 0)
(0.107349 0.000512942 0)
(0.106318 0.000518332 0)
(0.105276 0.000523526 0)
(0.104223 0.000528527 0)
(0.103161 0.00053334 0)
(0.10209 0.000537967 0)
(0.101009 0.000542412 0)
(0.0999201 0.000546681 0)
(0.0988225 0.000550775 0)
(0.0977168 0.0005547 0)
(0.0966035 0.00055846 0)
(0.0954828 0.000562057 0)
(0.0943551 0.000565498 0)
(0.0932207 0.000568785 0)
(0.0920798 0.000571923 0)
(0.0909328 0.000574915 0)
(0.08978 0.000577766 0)
(0.0886216 0.000580479 0)
(0.087458 0.00058306 0)
(0.0862893 0.000585511 0)
(0.0851158 0.000587836 0)
(0.0839378 0.00059004 0)
(0.0827555 0.000592127 0)
(0.0815692 0.000594099 0)
(0.080379 0.000595962 0)
(0.0791852 0.000597718 0)
(0.077988 0.000599372 0)
(0.0767876 0.000600927 0)
(0.0755842 0.000602387 0)
(0.074378 0.000603754 0)
(0.0731691 0.000605034 0)
(0.0719578 0.000606228 0)
(0.0707441 0.000607341 0)
(0.0695284 0.000608376 0)
(0.0683106 0.000609336 0)
(0.0670909 0.000610224 0)
(0.0658696 0.000611043 0)
(0.0646467 0.000611796 0)
(0.0634224 0.000612487 0)
(0.0621967 0.000613118 0)
(0.0609698 0.000613692 0)
(0.0597419 0.000614212 0)
(0.0585129 0.000614681 0)
(0.0572831 0.0006151 0)
(0.0560525 0.000615474 0)
(0.0548212 0.000615804 0)
(0.0535892 0.000616092 0)
(0.0523568 0.000616342 0)
(0.0511238 0.000616556 0)
(0.0498905 0.000616735 0)
(0.0486569 0.000616882 0)
(0.0474229 0.000616999 0)
(0.0461888 0.000617088 0)
(0.0449546 0.000617152 0)
(0.0437202 0.000617191 0)
(0.0424858 0.000617209 0)
(0.0412513 0.000617207 0)
(0.0400169 0.000617186 0)
(0.0387826 0.000617148 0)
(0.0375483 0.000617096 0)
(0.0363142 0.00061703 0)
(0.0350802 0.000616952 0)
(0.0338464 0.000616863 0)
(0.0326127 0.000616766 0)
(0.0313793 0.000616661 0)
(0.0301461 0.000616549 0)
(0.0289131 0.000616433 0)
(0.0276804 0.000616312 0)
(0.0264478 0.000616189 0)
(0.0252156 0.000616064 0)
(0.0239836 0.000615938 0)
(0.0227518 0.000615813 0)
(0.0215203 0.000615689 0)
(0.0202891 0.000615567 0)
(0.0190581 0.000615448 0)
(0.0178273 0.000615332 0)
(0.0165968 0.000615221 0)
(0.0153664 0.000615116 0)
(0.0141363 0.000615016 0)
(0.0129064 0.000614922 0)
(0.0116766 0.000614835 0)
(0.010447 0.000614756 0)
(0.00921761 0.000614684 0)
(0.00798831 0.00061462 0)
(0.00675914 0.000614565 0)
(0.00553006 0.000614519 0)
(0.00430107 0.000614481 0)
(0.00307215 0.000614453 0)
(0.00184327 0.000614434 0)
(0.00061442 0.000614425 0)
(0.000756738 -0.00227024 0)
(0.00227022 -0.00227026 0)
(0.00378373 -0.00227031 0)
(0.00529727 -0.00227037 0)
(0.00681086 -0.00227046 0)
(0.00832452 -0.00227056 0)
(0.00983826 -0.00227067 0)
(0.0113521 -0.0022708 0)
(0.012866 -0.00227094 0)
(0.01438 -0.00227108 0)
(0.0158941 -0.00227122 0)
(0.0174083 -0.00227136 0)
(0.0189226 -0.00227149 0)
(0.020437 -0.0022716 0)
(0.0219514 -0.00227168 0)
(0.0234659 -0.00227174 0)
(0.0249804 -0.00227176 0)
(0.026495 -0.00227174 0)
(0.0280095 -0.00227166 0)
(0.0295239 -0.00227152 0)
(0.0310383 -0.00227131 0)
(0.0325525 -0.00227102 0)
(0.0340664 -0.00227064 0)
(0.0355801 -0.00227015 0)
(0.0370934 -0.00226956 0)
(0.0386063 -0.00226883 0)
(0.0401187 -0.00226797 0)
(0.0416305 -0.00226696 0)
(0.0431415 -0.00226579 0)
(0.0446517 -0.00226443 0)
(0.046161 -0.00226289 0)
(0.0476692 -0.00226115 0)
(0.0491761 -0.00225918 0)
(0.0506817 -0.00225698 0)
(0.0521857 -0.00225454 0)
(0.0536881 -0.00225182 0)
(0.0551885 -0.00224883 0)
(0.0566869 -0.00224553 0)
(0.0581829 -0.00224192 0)
(0.0596765 -0.00223798 0)
(0.0611673 -0.00223369 0)
(0.0626552 -0.00222903 0)
(0.0641399 -0.00222399 0)
(0.065621 -0.00221855 0)
(0.0670984 -0.00221269 0)
(0.0685718 -0.00220638 0)
(0.0700408 -0.00219963 0)
(0.0715052 -0.00219239 0)
(0.0729646 -0.00218467 0)
(0.0744187 -0.00217643 0)
(0.0758672 -0.00216766 0)
(0.0773096 -0.00215835 0)
(0.0787457 -0.00214847 0)
(0.080175 -0.00213801 0)
(0.0815971 -0.00212695 0)
(0.0830117 -0.00211527 0)
(0.0844182 -0.00210296 0)
(0.0858164 -0.00208999 0)
(0.0872057 -0.00207636 0)
(0.0885857 -0.00206205 0)
(0.089956 -0.00204704 0)
(0.091316 -0.00203132 0)
(0.0926653 -0.00201488 0)
(0.0940034 -0.00199769 0)
(0.0953298 -0.00197976 0)
(0.096644 -0.00196107 0)
(0.0979455 -0.0019416 0)
(0.0992337 -0.00192135 0)
(0.100508 -0.00190031 0)
(0.101768 -0.00187848 0)
(0.103014 -0.00185583 0)
(0.104244 -0.00183238 0)
(0.105458 -0.00180811 0)
(0.106656 -0.00178303 0)
(0.107836 -0.00175712 0)
(0.109 -0.00173039 0)
(0.110145 -0.00170284 0)
(0.111271 -0.00167448 0)
(0.112378 -0.00164529 0)
(0.113466 -0.0016153 0)
(0.114533 -0.0015845 0)
(0.115579 -0.0015529 0)
(0.116604 -0.00152051 0)
(0.117608 -0.00148735 0)
(0.118589 -0.00145341 0)
(0.119546 -0.00141872 0)
(0.120481 -0.00138329 0)
(0.121392 -0.00134713 0)
(0.122278 -0.00131027 0)
(0.12314 -0.00127272 0)
(0.123976 -0.00123449 0)
(0.124786 -0.00119562 0)
(0.125571 -0.00115612 0)
(0.126329 -0.00111602 0)
(0.12706 -0.00107534 0)
(0.127763 -0.00103411 0)
(0.128439 -0.000992347 0)
(0.129087 -0.000950091 0)
(0.129706 -0.000907366 0)
(0.130297 -0.000864202 0)
(0.130859 -0.00082063 0)
(0.131392 -0.00077668 0)
(0.131895 -0.000732386 0)
(0.132369 -0.000687779 0)
(0.132812 -0.000642892 0)
(0.133226 -0.00059776 0)
(0.13361 -0.000552417 0)
(0.133963 -0.000506895 0)
(0.134286 -0.000461231 0)
(0.134578 -0.000415459 0)
(0.13484 -0.000369613 0)
(0.135071 -0.000323728 0)
(0.135271 -0.000277839 0)
(0.135441 -0.00023198 0)
(0.135581 -0.000186184 0)
(0.135689 -0.000140486 0)
(0.135768 -9.49196e-05 0)
(0.135816 -4.95166e-05 0)
(0.135834 -4.30967e-06 0)
(0.135821 4.06696e-05 0)
(0.135779 8.53902e-05 0)
(0.135707 0.000129822 0)
(0.135606 0.000173935 0)
(0.135475 0.000217702 0)
(0.135315 0.000261094 0)
(0.135126 0.000304085 0)
(0.134909 0.000346649 0)
(0.134663 0.000388762 0)
(0.13439 0.000430399 0)
(0.134089 0.000471538 0)
(0.133761 0.000512158 0)
(0.133405 0.000552239 0)
(0.133024 0.00059176 0)
(0.132616 0.000630705 0)
(0.132182 0.000669056 0)
(0.131723 0.000706797 0)
(0.131239 0.000743914 0)
(0.13073 0.000780394 0)
(0.130197 0.000816225 0)
(0.129641 0.000851395 0)
(0.129061 0.000885894 0)
(0.128459 0.000919715 0)
(0.127834 0.000952848 0)
(0.127188 0.000985288 0)
(0.12652 0.00101703 0)
(0.125831 0.00104807 0)
(0.125121 0.0010784 0)
(0.124392 0.00110802 0)
(0.123643 0.00113693 0)
(0.122875 0.00116513 0)
(0.122089 0.00119262 0)
(0.121284 0.0012194 0)
(0.120462 0.00124547 0)
(0.119623 0.00127083 0)
(0.118767 0.0012955 0)
(0.117895 0.00131947 0)
(0.117007 0.00134275 0)
(0.116103 0.00136534 0)
(0.115185 0.00138725 0)
(0.114253 0.00140849 0)
(0.113307 0.00142906 0)
(0.112347 0.00144898 0)
(0.111374 0.00146825 0)
(0.110388 0.00148688 0)
(0.109391 0.00150488 0)
(0.108381 0.00152226 0)
(0.10736 0.00153902 0)
(0.106328 0.00155519 0)
(0.105286 0.00157077 0)
(0.104233 0.00158577 0)
(0.103171 0.0016002 0)
(0.102099 0.00161408 0)
(0.101018 0.00162741 0)
(0.0999284 0.00164021 0)
(0.0988304 0.00165249 0)
(0.0977245 0.00166426 0)
(0.0966108 0.00167554 0)
(0.0954898 0.00168633 0)
(0.0943618 0.00169665 0)
(0.0932271 0.0017065 0)
(0.0920859 0.00171591 0)
(0.0909387 0.00172488 0)
(0.0897856 0.00173343 0)
(0.0886269 0.00174157 0)
(0.087463 0.00174931 0)
(0.086294 0.00175666 0)
(0.0851203 0.00176363 0)
(0.0839421 0.00177024 0)
(0.0827596 0.00177649 0)
(0.081573 0.00178241 0)
(0.0803826 0.00178799 0)
(0.0791886 0.00179326 0)
(0.0779912 0.00179821 0)
(0.0767906 0.00180288 0)
(0.075587 0.00180725 0)
(0.0743806 0.00181135 0)
(0.0731716 0.00181519 0)
(0.0719601 0.00181877 0)
(0.0707463 0.0018221 0)
(0.0695303 0.0018252 0)
(0.0683124 0.00182808 0)
(0.0670926 0.00183074 0)
(0.0658712 0.00183319 0)
(0.0646481 0.00183545 0)
(0.0634237 0.00183752 0)
(0.0621979 0.00183941 0)
(0.0609709 0.00184113 0)
(0.0597428 0.00184269 0)
(0.0585138 0.00184409 0)
(0.0572839 0.00184535 0)
(0.0560532 0.00184646 0)
(0.0548218 0.00184745 0)
(0.0535897 0.00184832 0)
(0.0523572 0.00184906 0)
(0.0511242 0.0018497 0)
(0.0498908 0.00185024 0)
(0.0486571 0.00185067 0)
(0.0474231 0.00185102 0)
(0.046189 0.00185129 0)
(0.0449547 0.00185148 0)
(0.0437202 0.0018516 0)
(0.0424858 0.00185165 0)
(0.0412513 0.00185164 0)
(0.0400169 0.00185157 0)
(0.0387825 0.00185146 0)
(0.0375482 0.0018513 0)
(0.036314 0.0018511 0)
(0.03508 0.00185086 0)
(0.0338462 0.0018506 0)
(0.0326125 0.0018503 0)
(0.0313791 0.00184999 0)
(0.0301459 0.00184965 0)
(0.0289129 0.0018493 0)
(0.0276801 0.00184894 0)
(0.0264476 0.00184857 0)
(0.0252153 0.00184819 0)
(0.0239833 0.00184781 0)
(0.0227516 0.00184744 0)
(0.0215201 0.00184706 0)
(0.0202888 0.0018467 0)
(0.0190578 0.00184634 0)
(0.0178271 0.00184599 0)
(0.0165965 0.00184566 0)
(0.0153662 0.00184534 0)
(0.0141361 0.00184504 0)
(0.0129062 0.00184476 0)
(0.0116765 0.0018445 0)
(0.0104469 0.00184426 0)
(0.00921747 0.00184404 0)
(0.00798819 0.00184385 0)
(0.00675903 0.00184369 0)
(0.00552998 0.00184355 0)
(0.00430101 0.00184343 0)
(0.0030721 0.00184335 0)
(0.00184324 0.00184329 0)
(0.00061441 0.00184326 0)
(0.000756723 -0.00378371 0)
(0.00227018 -0.00378375 0)
(0.00378365 -0.00378382 0)
(0.00529717 -0.00378393 0)
(0.00681074 -0.00378407 0)
(0.00832437 -0.00378424 0)
(0.00983809 -0.00378444 0)
(0.0113519 -0.00378466 0)
(0.0128658 -0.00378489 0)
(0.0143798 -0.00378513 0)
(0.0158939 -0.00378538 0)
(0.0174081 -0.00378561 0)
(0.0189224 -0.00378583 0)
(0.0204368 -0.00378602 0)
(0.0219513 -0.00378617 0)
(0.0234658 -0.00378628 0)
(0.0249804 -0.00378632 0)
(0.026495 -0.00378629 0)
(0.0280096 -0.00378617 0)
(0.0295242 -0.00378595 0)
(0.0310386 -0.00378561 0)
(0.0325529 -0.00378514 0)
(0.034067 -0.00378451 0)
(0.0355808 -0.00378372 0)
(0.0370943 -0.00378273 0)
(0.0386074 -0.00378154 0)
(0.0401199 -0.00378012 0)
(0.0416319 -0.00377845 0)
(0.0431432 -0.00377651 0)
(0.0446537 -0.00377427 0)
(0.0461632 -0.00377172 0)
(0.0476716 -0.00376882 0)
(0.0491789 -0.00376557 0)
(0.0506848 -0.00376192 0)
(0.0521892 -0.00375785 0)
(0.0536919 -0.00375335 0)
(0.0551927 -0.00374837 0)
(0.0566915 -0.0037429 0)
(0.058188 -0.0037369 0)
(0.059682 -0.00373036 0)
(0.0611733 -0.00372322 0)
(0.0626617 -0.00371548 0)
(0.0641468 -0.0037071 0)
(0.0656286 -0.00369805 0)
(0.0671065 -0.0036883 0)
(0.0685805 -0.00367781 0)
(0.0700502 -0.00366657 0)
(0.0715152 -0.00365454 0)
(0.0729753 -0.00364168 0)
(0.0744301 -0.00362797 0)
(0.0758792 -0.00361338 0)
(0.0773224 -0.00359788 0)
(0.0787592 -0.00358143 0)
(0.0801893 -0.00356402 0)
(0.0816122 -0.0035456 0)
(0.0830276 -0.00352615 0)
(0.0844351 -0.00350565 0)
(0.0858341 -0.00348406 0)
(0.0872243 -0.00346136 0)
(0.0886053 -0.00343753 0)
(0.0899764 -0.00341253 0)
(0.0913374 -0.00338634 0)
(0.0926877 -0.00335895 0)
(0.0940268 -0.00333032 0)
(0.0953542 -0.00330045 0)
(0.0966694 -0.0032693 0)
(0.097972 -0.00323687 0)
(0.0992613 -0.00320313 0)
(0.100537 -0.00316807 0)
(0.101798 -0.00313169 0)
(0.103045 -0.00309396 0)
(0.104276 -0.00305487 0)
(0.105491 -0.00301443 0)
(0.10669 -0.00297262 0)
(0.107872 -0.00292945 0)
(0.109036 -0.0028849 0)
(0.110182 -0.00283898 0)
(0.111309 -0.0027917 0)
(0.112418 -0.00274306 0)
(0.113506 -0.00269306 0)
(0.114575 -0.00264172 0)
(0.115622 -0.00258904 0)
(0.116648 -0.00253505 0)
(0.117652 -0.00247976 0)
(0.118634 -0.00242319 0)
(0.119593 -0.00236536 0)
(0.120529 -0.00230629 0)
(0.12144 -0.00224601 0)
(0.122328 -0.00218455 0)
(0.12319 -0.00212194 0)
(0.124027 -0.00205821 0)
(0.124839 -0.00199339 0)
(0.125624 -0.00192754 0)
(0.126383 -0.00186067 0)
(0.127114 -0.00179284 0)
(0.127818 -0.00172409 0)
(0.128495 -0.00165446 0)
(0.129144 -0.00158401 0)
(0.129764 -0.00151276 0)
(0.130355 -0.00144079 0)
(0.130917 -0.00136813 0)
(0.131451 -0.00129485 0)
(0.131954 -0.00122099 0)
(0.132428 -0.00114661 0)
(0.132873 -0.00107176 0)
(0.133287 -0.000996502 0)
(0.13367 -0.000920891 0)
(0.134024 -0.000844984 0)
(0.134347 -0.000768839 0)
(0.134639 -0.000692514 0)
(0.134901 -0.000616065 0)
(0.135132 -0.000539552 0)
(0.135333 -0.000463032 0)
(0.135502 -0.000386562 0)
(0.135642 -0.000310198 0)
(0.13575 -0.000233998 0)
(0.135829 -0.000158017 0)
(0.135876 -8.23097e-05 0)
(0.135894 -6.92967e-06 0)
(0.135881 6.80701e-05 0)
(0.135839 0.000142638 0)
(0.135766 0.000216724 0)
(0.135664 0.000290278 0)
(0.135533 0.000363253 0)
(0.135372 0.000435603 0)
(0.135183 0.000507283 0)
(0.134965 0.000578251 0)
(0.134719 0.000648464 0)
(0.134445 0.000717885 0)
(0.134143 0.000786474 0)
(0.133814 0.000854197 0)
(0.133458 0.000921019 0)
(0.133076 0.000986908 0)
(0.132667 0.00105183 0)
(0.132233 0.00111577 0)
(0.131773 0.00117869 0)
(0.131288 0.00124057 0)
(0.130778 0.00130138 0)
(0.130245 0.00136111 0)
(0.129688 0.00141974 0)
(0.129107 0.00147725 0)
(0.128504 0.00153362 0)
(0.127878 0.00158885 0)
(0.127231 0.00164292 0)
(0.126562 0.00169583 0)
(0.125872 0.00174756 0)
(0.125161 0.00179812 0)
(0.124431 0.00184749 0)
(0.123681 0.00189567 0)
(0.122912 0.00194267 0)
(0.122125 0.00198848 0)
(0.12132 0.00203311 0)
(0.120496 0.00207656 0)
(0.119656 0.00211883 0)
(0.118799 0.00215994 0)
(0.117926 0.00219988 0)
(0.117037 0.00223867 0)
(0.116133 0.00227632 0)
(0.115214 0.00231283 0)
(0.114281 0.00234822 0)
(0.113334 0.0023825 0)
(0.112373 0.00241569 0)
(0.111399 0.00244779 0)
(0.110413 0.00247883 0)
(0.109414 0.00250882 0)
(0.108404 0.00253777 0)
(0.107382 0.00256571 0)
(0.106349 0.00259264 0)
(0.105306 0.00261859 0)
(0.104253 0.00264358 0)
(0.10319 0.00266762 0)
(0.102117 0.00269074 0)
(0.101035 0.00271295 0)
(0.0999451 0.00273427 0)
(0.0988465 0.00275472 0)
(0.0977398 0.00277433 0)
(0.0966255 0.0027931 0)
(0.0955039 0.00281107 0)
(0.0943753 0.00282825 0)
(0.0932399 0.00284467 0)
(0.0920982 0.00286034 0)
(0.0909503 0.00287528 0)
(0.0897967 0.00288951 0)
(0.0886375 0.00290306 0)
(0.087473 0.00291594 0)
(0.0863036 0.00292818 0)
(0.0851294 0.00293979 0)
(0.0839506 0.00295079 0)
(0.0827677 0.0029612 0)
(0.0815807 0.00297104 0)
(0.0803898 0.00298034 0)
(0.0791954 0.0029891 0)
(0.0779976 0.00299735 0)
(0.0767967 0.00300511 0)
(0.0755927 0.00301239 0)
(0.0743859 0.00301921 0)
(0.0731765 0.00302559 0)
(0.0719647 0.00303155 0)
(0.0707506 0.0030371 0)
(0.0695343 0.00304225 0)
(0.0683161 0.00304704 0)
(0.067096 0.00305146 0)
(0.0658743 0.00305554 0)
(0.064651 0.00305929 0)
(0.0634263 0.00306273 0)
(0.0622003 0.00306587 0)
(0.0609731 0.00306873 0)
(0.0597448 0.00307132 0)
(0.0585156 0.00307365 0)
(0.0572855 0.00307573 0)
(0.0560546 0.00307759 0)
(0.054823 0.00307922 0)
(0.0535908 0.00308065 0)
(0.0523581 0.00308189 0)
(0.051125 0.00308295 0)
(0.0498915 0.00308383 0)
(0.0486576 0.00308456 0)
(0.0474235 0.00308513 0)
(0.0461893 0.00308557 0)
(0.0449549 0.00308588 0)
(0.0437204 0.00308607 0)
(0.0424858 0.00308614 0)
(0.0412513 0.00308612 0)
(0.0400167 0.00308601 0)
(0.0387823 0.00308581 0)
(0.037548 0.00308554 0)
(0.0363137 0.00308521 0)
(0.0350797 0.00308481 0)
(0.0338458 0.00308436 0)
(0.0326121 0.00308387 0)
(0.0313786 0.00308333 0)
(0.0301454 0.00308277 0)
(0.0289124 0.00308218 0)
(0.0276796 0.00308157 0)
(0.0264471 0.00308095 0)
(0.0252148 0.00308032 0)
(0.0239828 0.00307969 0)
(0.0227511 0.00307906 0)
(0.0215196 0.00307843 0)
(0.0202884 0.00307782 0)
(0.0190574 0.00307722 0)
(0.0178266 0.00307664 0)
(0.0165961 0.00307608 0)
(0.0153658 0.00307555 0)
(0.0141357 0.00307505 0)
(0.0129058 0.00307457 0)
(0.0116761 0.00307414 0)
(0.0104466 0.00307374 0)
(0.0092172 0.00307338 0)
(0.00798795 0.00307306 0)
(0.00675883 0.00307278 0)
(0.00552981 0.00307255 0)
(0.00430087 0.00307236 0)
(0.00307201 0.00307222 0)
(0.00184318 0.00307212 0)
(0.000614391 0.00307208 0)
(0.0007567 -0.00529714 0)
(0.00227011 -0.00529719 0)
(0.00378354 -0.0052973 0)
(0.00529701 -0.00529746 0)
(0.00681055 -0.00529766 0)
(0.00832415 -0.00529791 0)
(0.00983783 -0.00529819 0)
(0.0113516 -0.0052985 0)
(0.0128655 -0.00529884 0)
(0.0143795 -0.00529919 0)
(0.0158936 -0.00529954 0)
(0.0174078 -0.00529988 0)
(0.0189222 -0.0053002 0)
(0.0204366 -0.00530048 0)
(0.0219511 -0.00530071 0)
(0.0234657 -0.00530088 0)
(0.0249804 -0.00530096 0)
(0.0264951 -0.00530093 0)
(0.0280098 -0.00530079 0)
(0.0295245 -0.0053005 0)
(0.0310391 -0.00530005 0)
(0.0325535 -0.00529941 0)
(0.0340678 -0.00529856 0)
(0.0355819 -0.00529747 0)
(0.0370956 -0.00529612 0)
(0.0386089 -0.00529448 0)
(0.0401218 -0.00529251 0)
(0.0416341 -0.00529021 0)
(0.0431457 -0.00528752 0)
(0.0446565 -0.00528442 0)
(0.0461664 -0.00528088 0)
(0.0476753 -0.00527687 0)
(0.049183 -0.00527234 0)
(0.0506894 -0.00526727 0)
(0.0521943 -0.00526162 0)
(0.0536975 -0.00525534 0)
(0.0551989 -0.00524842 0)
(0.0566983 -0.0052408 0)
(0.0581955 -0.00523244 0)
(0.0596902 -0.00522331 0)
(0.0611822 -0.00521337 0)
(0.0626713 -0.00520257 0)
(0.0641573 -0.00519088 0)
(0.0656398 -0.00517825 0)
(0.0671187 -0.00516464 0)
(0.0685935 -0.00515 0)
(0.0700641 -0.00513431 0)
(0.0715301 -0.0051175 0)
(0.0729912 -0.00509954 0)
(0.074447 -0.0050804 0)
(0.0758973 -0.00506001 0)
(0.0773416 -0.00503835 0)
(0.0787795 -0.00501537 0)
(0.0802108 -0.00499103 0)
(0.0816349 -0.00496528 0)
(0.0830516 -0.0049381 0)
(0.0844603 -0.00490943 0)
(0.0858607 -0.00487924 0)
(0.0872522 -0.0048475 0)
(0.0886345 -0.00481416 0)
(0.0900071 -0.0047792 0)
(0.0913695 -0.00474257 0)
(0.0927213 -0.00470425 0)
(0.0940619 -0.00466421 0)
(0.0953908 -0.00462241 0)
(0.0967076 -0.00457883 0)
(0.0980117 -0.00453344 0)
(0.0993025 -0.00448623 0)
(0.10058 -0.00443717 0)
(0.101843 -0.00438624 0)
(0.103091 -0.00433343 0)
(0.104323 -0.00427872 0)
(0.10554 -0.00422211 0)
(0.106741 -0.00416359 0)
(0.107924 -0.00410314 0)
(0.10909 -0.00404077 0)
(0.110238 -0.00397649 0)
(0.111367 -0.00391029 0)
(0.112477 -0.00384217 0)
(0.113567 -0.00377216 0)
(0.114637 -0.00370027 0)
(0.115686 -0.00362651 0)
(0.116714 -0.0035509 0)
(0.11772 -0.00347346 0)
(0.118703 -0.00339423 0)
(0.119663 -0.00331323 0)
(0.1206 -0.0032305 0)
(0.121514 -0.00314607 0)
(0.122402 -0.00305998 0)
(0.123266 -0.00297228 0)
(0.124104 -0.00288301 0)
(0.124917 -0.00279222 0)
(0.125704 -0.00269996 0)
(0.126463 -0.00260629 0)
(0.127196 -0.00251127 0)
(0.127902 -0.00241496 0)
(0.128579 -0.00231741 0)
(0.129229 -0.0022187 0)
(0.12985 -0.0021189 0)
(0.130442 -0.00201806 0)
(0.131005 -0.00191627 0)
(0.131539 -0.0018136 0)
(0.132043 -0.00171012 0)
(0.132518 -0.0016059 0)
(0.132963 -0.00150104 0)
(0.133377 -0.0013956 0)
(0.133761 -0.00128966 0)
(0.134115 -0.00118331 0)
(0.134438 -0.00107663 0)
(0.134731 -0.000969691 0)
(0.134993 -0.000862582 0)
(0.135224 -0.000755383 0)
(0.135425 -0.000648175 0)
(0.135594 -0.000541037 0)
(0.135733 -0.000434049 0)
(0.135842 -0.000327292 0)
(0.13592 -0.000220841 0)
(0.135967 -0.000114775 0)
(0.135984 -9.1695e-06 0)
(0.135971 9.59025e-05 0)
(0.135928 0.000200368 0)
(0.135855 0.000304157 0)
(0.135752 0.000407199 0)
(0.13562 0.000509429 0)
(0.135459 0.000610781 0)
(0.135269 0.000711194 0)
(0.13505 0.000810606 0)
(0.134803 0.00090896 0)
(0.134528 0.0010062 0)
(0.134225 0.00110228 0)
(0.133895 0.00119714 0)
(0.133538 0.00129073 0)
(0.133154 0.00138302 0)
(0.132745 0.00147395 0)
(0.132309 0.0015635 0)
(0.131848 0.00165162 0)
(0.131362 0.00173828 0)
(0.130851 0.00182345 0)
(0.130316 0.00190709 0)
(0.129757 0.0019892 0)
(0.129175 0.00206973 0)
(0.128571 0.00214867 0)
(0.127944 0.00222601 0)
(0.127295 0.00230172 0)
(0.126624 0.0023758 0)
(0.125933 0.00244824 0)
(0.125221 0.00251902 0)
(0.12449 0.00258814 0)
(0.123738 0.0026556 0)
(0.122968 0.0027214 0)
(0.122179 0.00278553 0)
(0.121372 0.00284801 0)
(0.120548 0.00290883 0)
(0.119706 0.00296801 0)
(0.118848 0.00302554 0)
(0.117973 0.00308145 0)
(0.117083 0.00313574 0)
(0.116178 0.00318843 0)
(0.115257 0.00323953 0)
(0.114323 0.00328906 0)
(0.113374 0.00333704 0)
(0.112412 0.00338348 0)
(0.111437 0.0034284 0)
(0.110449 0.00347183 0)
(0.10945 0.00351379 0)
(0.108438 0.0035543 0)
(0.107415 0.00359339 0)
(0.106381 0.00363107 0)
(0.105337 0.00366738 0)
(0.104282 0.00370234 0)
(0.103218 0.00373597 0)
(0.102144 0.0037683 0)
(0.101062 0.00379937 0)
(0.0999702 0.00382919 0)
(0.0988705 0.0038578 0)
(0.0977629 0.00388522 0)
(0.0966476 0.00391148 0)
(0.095525 0.0039366 0)
(0.0943954 0.00396063 0)
(0.0932592 0.00398358 0)
(0.0921165 0.00400549 0)
(0.0909678 0.00402638 0)
(0.0898133 0.00404628 0)
(0.0886533 0.00406522 0)
(0.0874881 0.00408322 0)
(0.0863179 0.00410033 0)
(0.0851429 0.00411655 0)
(0.0839635 0.00413192 0)
(0.0827798 0.00414648 0)
(0.0815921 0.00416023 0)
(0.0804007 0.00417322 0)
(0.0792056 0.00418546 0)
(0.0780072 0.00419699 0)
(0.0768057 0.00420782 0)
(0.0756012 0.00421799 0)
(0.0743938 0.00422751 0)
(0.0731839 0.00423642 0)
(0.0719716 0.00424474 0)
(0.070757 0.00425248 0)
(0.0695403 0.00425968 0)
(0.0683216 0.00426635 0)
(0.0671011 0.00427253 0)
(0.065879 0.00427822 0)
(0.0646553 0.00428345 0)
(0.0634302 0.00428824 0)
(0.0622039 0.00429262 0)
(0.0609763 0.0042966 0)
(0.0597478 0.0043002 0)
(0.0585182 0.00430345 0)
(0.0572878 0.00430635 0)
(0.0560567 0.00430893 0)
(0.0548248 0.0043112 0)
(0.0535924 0.00431319 0)
(0.0523595 0.0043149 0)
(0.0511261 0.00431637 0)
(0.0498924 0.00431759 0)
(0.0486584 0.00431859 0)
(0.0474241 0.00431938 0)
(0.0461897 0.00431998 0)
(0.0449552 0.00432039 0)
(0.0437205 0.00432065 0)
(0.0424858 0.00432074 0)
(0.0412512 0.0043207 0)
(0.0400166 0.00432053 0)
(0.038782 0.00432025 0)
(0.0375476 0.00431986 0)
(0.0363133 0.00431937 0)
(0.0350792 0.00431881 0)
(0.0338452 0.00431817 0)
(0.0326115 0.00431747 0)
(0.031378 0.00431671 0)
(0.0301447 0.00431591 0)
(0.0289117 0.00431508 0)
(0.0276789 0.00431422 0)
(0.0264463 0.00431334 0)
(0.0252141 0.00431245 0)
(0.0239821 0.00431156 0)
(0.0227503 0.00431067 0)
(0.0215189 0.00430979 0)
(0.0202876 0.00430892 0)
(0.0190567 0.00430808 0)
(0.0178259 0.00430726 0)
(0.0165954 0.00430648 0)
(0.0153652 0.00430573 0)
(0.0141351 0.00430502 0)
(0.0129053 0.00430436 0)
(0.0116756 0.00430374 0)
(0.0104461 0.00430318 0)
(0.00921679 0.00430267 0)
(0.0079876 0.00430222 0)
(0.00675852 0.00430183 0)
(0.00552956 0.0043015 0)
(0.00430068 0.00430124 0)
(0.00307186 0.00430104 0)
(0.0018431 0.00430091 0)
(0.000614363 0.00430084 0)
(0.000756668 -0.00681051 0)
(0.00227001 -0.00681059 0)
(0.00378339 -0.00681073 0)
(0.0052968 -0.00681094 0)
(0.00681028 -0.00681121 0)
(0.00832384 -0.00681153 0)
(0.00983748 -0.00681191 0)
(0.0113512 -0.00681233 0)
(0.0128651 -0.00681277 0)
(0.0143791 -0.00681324 0)
(0.0158932 -0.00681371 0)
(0.0174074 -0.00681417 0)
(0.0189218 -0.0068146 0)
(0.0204363 -0.00681499 0)
(0.0219509 -0.00681532 0)
(0.0234656 -0.00681556 0)
(0.0249804 -0.00681569 0)
(0.0264952 -0.0068157 0)
(0.02801 -0.00681555 0)
(0.0295249 -0.00681521 0)
(0.0310397 -0.00681467 0)
(0.0325544 -0.00681389 0)
(0.0340689 -0.00681284 0)
(0.0355832 -0.00681148 0)
(0.0370973 -0.00680979 0)
(0.038611 -0.00680773 0)
(0.0401242 -0.00680526 0)
(0.0416369 -0.00680234 0)
(0.043149 -0.00679894 0)
(0.0446603 -0.00679502 0)
(0.0461707 -0.00679052 0)
(0.0476802 -0.00678542 0)
(0.0491885 -0.00677966 0)
(0.0506955 -0.0067732 0)
(0.0522011 -0.006766 0)
(0.053705 -0.006758 0)
(0.0552072 -0.00674916 0)
(0.0567074 -0.00673942 0)
(0.0582054 -0.00672875 0)
(0.059701 -0.00671708 0)
(0.061194 -0.00670437 0)
(0.0626841 -0.00669056 0)
(0.0641711 -0.0066756 0)
(0.0656548 -0.00665943 0)
(0.0671348 -0.006642 0)
(0.0686108 -0.00662326 0)
(0.0700826 -0.00660315 0)
(0.0715499 -0.00658162 0)
(0.0730123 -0.0065586 0)
(0.0744696 -0.00653406 0)
(0.0759213 -0.00650792 0)
(0.077367 -0.00648014 0)
(0.0788065 -0.00645066 0)
(0.0802394 -0.00641944 0)
(0.0816652 -0.00638641 0)
(0.0830835 -0.00635152 0)
(0.0844939 -0.00631473 0)
(0.085896 -0.00627598 0)
(0.0872894 -0.00623523 0)
(0.0886735 -0.00619243 0)
(0.090048 -0.00614753 0)
(0.0914123 -0.0061005 0)
(0.092766 -0.00605128 0)
(0.0941086 -0.00599984 0)
(0.0954396 -0.00594614 0)
(0.0967584 -0.00589016 0)
(0.0980646 -0.00583184 0)
(0.0993575 -0.00577118 0)
(0.100637 -0.00570813 0)
(0.101902 -0.00564268 0)
(0.103152 -0.0055748 0)
(0.104387 -0.00550448 0)
(0.105606 -0.00543171 0)
(0.106809 -0.00535647 0)
(0.107994 -0.00527876 0)
(0.109162 -0.00519857 0)
(0.110312 -0.00511591 0)
(0.111444 -0.00503078 0)
(0.112556 -0.00494319 0)
(0.113648 -0.00485315 0)
(0.11472 -0.00476069 0)
(0.115771 -0.00466582 0)
(0.116801 -0.00456856 0)
(0.117809 -0.00446896 0)
(0.118795 -0.00436704 0)
(0.119757 -0.00426284 0)
(0.120696 -0.0041564 0)
(0.121611 -0.00404778 0)
(0.122502 -0.00393702 0)
(0.123367 -0.00382418 0)
(0.124207 -0.00370932 0)
(0.125022 -0.0035925 0)
(0.12581 -0.0034738 0)
(0.126571 -0.00335327 0)
(0.127306 -0.00323099 0)
(0.128012 -0.00310705 0)
(0.128691 -0.00298153 0)
(0.129342 -0.0028545 0)
(0.129964 -0.00272605 0)
(0.130558 -0.00259629 0)
(0.131122 -0.00246529 0)
(0.131657 -0.00233315 0)
(0.132162 -0.00219997 0)
(0.132638 -0.00206585 0)
(0.133083 -0.00193089 0)
(0.133498 -0.00179519 0)
(0.133883 -0.00165885 0)
(0.134237 -0.00152197 0)
(0.134561 -0.00138467 0)
(0.134853 -0.00124704 0)
(0.135115 -0.00110919 0)
(0.135347 -0.000971224 0)
(0.135547 -0.000833247 0)
(0.135717 -0.000695361 0)
(0.135856 -0.000557671 0)
(0.135964 -0.000420277 0)
(0.136041 -0.000283281 0)
(0.136088 -0.000146781 0)
(0.136105 -1.08755e-05 0)
(0.136091 0.000124341 0)
(0.136047 0.000258775 0)
(0.135973 0.000392336 0)
(0.13587 0.000524933 0)
(0.135737 0.000656482 0)
(0.135574 0.0007869 0)
(0.135383 0.000916104 0)
(0.135163 0.00104402 0)
(0.134915 0.00117057 0)
(0.134639 0.00129568 0)