/*--------------------------------*- C++ -*----------------------------------*\
| =========                 |                                                 |
| \\      /  F ield         | OpenFOAM: The Open Source CFD Toolbox           |
|  \\    /   O peration     | Version:  v2012                                 |
|   \\  /    A nd           | Website:  www.openfoam.com                      |
|    \\/     M anipulation  |                                                 |
\*---------------------------------------------------------------------------*/
FoamFile
{
    version     2.0;
    format      ascii;
    class       volScalarField;
    location    "9";
    object      W;
}
// * * * * * * * * * * * * * * * * * * * * * * * * * * * * * * * * * * * * * //

dimensions      [0 0 -1 0 0 0 0];


internalField   nonuniform List<scalar> 
65536
(
8.42606e-18
8.74457e-18
9.39553e-18
1.03985e-17
1.17836e-17
1.35923e-17
1.58785e-17
1.87101e-17
2.21705e-17
2.63607e-17
3.14021e-17
3.7439e-17
4.46425e-17
5.3214e-17
6.33902e-17
7.54481e-17
8.97115e-17
1.06557e-16
1.26424e-16
1.49821e-16
1.77337e-16
2.09655e-16
2.47563e-16
2.91969e-16
3.43918e-16
4.04613e-16
4.75431e-16
5.57954e-16
6.53988e-16
7.65597e-16
8.95136e-16
1.04528e-15
1.21909e-15
1.42e-15
1.65194e-15
1.91934e-15
2.2272e-15
2.58115e-15
2.98755e-15
3.45353e-15
3.98707e-15
4.59713e-15
5.29373e-15
6.08801e-15
6.99243e-15
8.0208e-15
9.18847e-15
1.05124e-14
1.20114e-14
1.37062e-14
1.56197e-14
1.77768e-14
2.02052e-14
2.29351e-14
2.59992e-14
2.94336e-14
3.32774e-14
3.7573e-14
4.23663e-14
4.77071e-14
5.36491e-14
6.025e-14
6.75717e-14
7.56807e-14
8.46479e-14
9.4549e-14
1.05464e-13
1.17479e-13
1.30683e-13
1.45172e-13
1.61046e-13
1.78408e-13
1.97369e-13
2.18042e-13
2.40546e-13
2.65002e-13
2.91536e-13
3.20276e-13
3.51354e-13
3.84904e-13
4.21059e-13
4.59956e-13
5.01728e-13
5.4651e-13
5.94433e-13
6.45624e-13
7.00206e-13
7.58295e-13
8.20001e-13
8.85423e-13
9.5465e-13
1.02776e-12
1.10481e-12
1.18585e-12
1.27091e-12
1.35999e-12
1.45309e-12
1.55015e-12
1.65112e-12
1.75591e-12
1.86439e-12
1.97641e-12
2.09178e-12
2.21029e-12
2.33167e-12
2.45563e-12
2.58185e-12
2.70994e-12
2.8395e-12
2.97009e-12
3.10123e-12
3.23238e-12
3.36299e-12
3.49248e-12
3.62022e-12
3.74556e-12
3.86783e-12
3.98633e-12
4.10037e-12
4.2092e-12
4.31212e-12
4.4084e-12
4.49732e-12
4.57819e-12
4.65033e-12
4.71309e-12
4.76587e-12
4.80811e-12
4.83931e-12
4.85903e-12
4.8669e-12
4.86262e-12
4.846e-12
4.81691e-12
4.77533e-12
4.72134e-12
4.65513e-12
4.57697e-12
4.48726e-12
4.3865e-12
4.27527e-12
4.15426e-12
4.02427e-12
3.88615e-12
3.74084e-12
3.58936e-12
3.43277e-12
3.27216e-12
3.10868e-12
2.94347e-12
2.77771e-12
2.61253e-12
2.44906e-12
2.28838e-12
2.13156e-12
1.97956e-12
1.83332e-12
1.69366e-12
1.56136e-12
1.43707e-12
1.32138e-12
1.21476e-12
1.1176e-12
1.03017e-12
9.52671e-13
8.85179e-13
8.27691e-13
7.80111e-13
7.42252e-13
7.13844e-13
6.94534e-13
6.83892e-13
6.81412e-13
6.86519e-13
6.9857e-13
7.16858e-13
7.40621e-13
7.69043e-13
8.01263e-13
8.36383e-13
8.73474e-13
9.11593e-13
9.49788e-13
9.87115e-13
1.02265e-12
1.05551e-12
1.08487e-12
1.10996e-12
1.1301e-12
1.14471e-12
1.15334e-12
1.15563e-12
1.15138e-12
1.14051e-12
1.12308e-12
1.09928e-12
1.06943e-12
1.03397e-12
9.93443e-13
9.48476e-13
8.99767e-13
8.4806e-13
7.94129e-13
7.38754e-13
6.82698e-13
6.26694e-13
5.71426e-13
5.17513e-13
4.65499e-13
4.15848e-13
3.68935e-13
3.25047e-13
2.84385e-13
2.47067e-13
2.13134e-13
1.82561e-13
1.55262e-13
1.31101e-13
1.09905e-13
9.14721e-14
7.55794e-14
6.19941e-14
5.04796e-14
4.08026e-14
3.27382e-14
2.60739e-14
2.06124e-14
1.61739e-14
1.25965e-14
9.73704e-15
7.47024e-15
5.68805e-15
4.29837e-15
3.22364e-15
2.39929e-15
1.77217e-15
1.29898e-15
9.44856e-16
6.82008e-16
4.88499e-16
3.47202e-16
2.44869e-16
1.71362e-16
1.18992e-16
8.19845e-17
5.60478e-17
3.8019e-17
2.55907e-17
1.70953e-17
1.13394e-17
7.47755e-18
4.91781e-18
3.25157e-18
2.20274e-18
1.59178e-18
1.31138e-18
1.2172e-17
1.26313e-17
1.35705e-17
1.50176e-17
1.7016e-17
1.96254e-17
2.29235e-17
2.7008e-17
3.19989e-17
3.80418e-17
4.5311e-17
5.40146e-17
6.43983e-17
7.67519e-17
9.14157e-17
1.08788e-16
1.29333e-16
1.53593e-16
1.82197e-16
2.15876e-16
2.55475e-16
3.01972e-16
3.56497e-16
4.20348e-16
4.95024e-16
5.82243e-16
6.83975e-16
8.02478e-16
9.40331e-16
1.10048e-15
1.28628e-15
1.50154e-15
1.75059e-15
2.03836e-15
2.3704e-15
2.753e-15
3.19323e-15
3.69908e-15
4.27953e-15
4.94462e-15
5.70565e-15
6.5752e-15
7.56735e-15
8.69777e-15
9.98387e-15
1.1445e-14
1.31026e-14
1.49802e-14
1.71042e-14
1.95031e-14
2.22087e-14
2.52555e-14
2.86817e-14
3.25285e-14
3.68413e-14
4.16691e-14
4.70652e-14
5.30873e-14
5.97979e-14
6.72641e-14
7.55582e-14
8.47575e-14
9.49451e-14
1.06209e-13
1.18644e-13
1.3235e-13
1.47432e-13
1.64001e-13
1.82177e-13
2.0208e-13
2.23841e-13
2.47592e-13
2.73475e-13
3.01631e-13
3.32211e-13
3.65365e-13
4.0125e-13
4.40024e-13
4.81846e-13
5.26876e-13
5.75276e-13
6.27205e-13
6.82819e-13
7.42271e-13
8.05708e-13
8.73273e-13
9.45096e-13
1.0213e-12
1.10199e-12
1.18727e-12
1.27722e-12
1.3719e-12
1.47134e-12
1.57557e-12
1.68458e-12
1.79834e-12
1.91679e-12
2.03983e-12
2.16734e-12
2.29914e-12
2.43506e-12
2.57484e-12
2.71821e-12
2.86484e-12
3.01438e-12
3.16642e-12
3.32051e-12
3.47615e-12
3.63281e-12
3.78991e-12
3.94683e-12
4.10291e-12
4.25745e-12
4.40972e-12
4.55897e-12
4.70439e-12
4.8452e-12
4.98056e-12
5.10964e-12
5.23159e-12
5.3456e-12
5.45083e-12
5.54648e-12
5.63177e-12
5.70597e-12
5.76838e-12
5.81836e-12
5.85533e-12
5.87878e-12
5.8883e-12
5.88354e-12
5.86427e-12
5.83033e-12
5.78171e-12
5.71848e-12
5.64084e-12
5.54911e-12
5.44371e-12
5.3252e-12
5.19425e-12
5.05163e-12
4.89823e-12
4.73502e-12
4.56307e-12
4.38353e-12
4.1976e-12
4.00655e-12
3.81168e-12
3.61432e-12
3.41581e-12
3.21747e-12
3.02061e-12
2.82651e-12
2.63638e-12
2.45141e-12
2.27266e-12
2.10115e-12
1.93779e-12
1.78339e-12
1.63866e-12
1.50419e-12
1.38047e-12
1.26788e-12
1.16667e-12
1.07701e-12
9.98917e-13
9.32349e-13
8.7714e-13
8.33033e-13
7.99678e-13
7.76636e-13
7.63388e-13
7.59332e-13
7.63794e-13
7.76028e-13
7.95224e-13
8.20513e-13
8.50972e-13
8.85632e-13
9.23488e-13
9.63505e-13
1.00464e-12
1.04583e-12
1.08604e-12
1.12427e-12
1.15953e-12
1.19093e-12
1.21763e-12
1.2389e-12
1.25411e-12
1.26278e-12
1.26453e-12
1.25914e-12
1.24654e-12
1.22681e-12
1.20017e-12
1.16697e-12
1.12771e-12
1.08297e-12
1.03346e-12
9.79932e-13
9.23202e-13
8.64114e-13
8.03516e-13
7.42239e-13
6.81078e-13
6.20772e-13
5.61991e-13
5.05321e-13
4.51262e-13
4.00215e-13
3.52488e-13
3.08294e-13
2.67754e-13
2.3091e-13
1.97729e-13
1.68113e-13
1.41914e-13
1.18938e-13
9.89646e-14
8.17498e-14
6.70393e-14
5.4575e-14
4.41031e-14
3.53788e-14
2.81711e-14
2.22659e-14
1.74679e-14
1.36018e-14
1.05122e-14
8.06359e-15
6.13883e-15
4.63829e-15
3.47804e-15
2.58826e-15
1.91147e-15
1.4009e-15
1.01886e-15
7.35338e-16
5.26637e-16
3.74267e-16
2.6393e-16
1.84682e-16
1.28228e-16
8.83406e-17
6.03879e-17
4.09597e-17
2.7568e-17
1.84148e-17
1.22138e-17
8.05361e-18
5.29634e-18
3.50162e-18
2.37199e-18
1.714e-18
1.41204e-18
2.1177e-17
2.19747e-17
2.36063e-17
2.61204e-17
2.95921e-17
3.41251e-17
3.98539e-17
4.69477e-17
5.56147e-17
6.61068e-17
7.87265e-17
9.38333e-17
1.11853e-16
1.33287e-16
1.58724e-16
1.88853e-16
2.24476e-16
2.6653e-16
3.16101e-16
3.7445e-16
4.43036e-16
5.23545e-16
6.17921e-16
7.28405e-16
8.57571e-16
1.00837e-15
1.1842e-15
1.38893e-15
1.62697e-15
1.90339e-15
2.22392e-15
2.59508e-15
3.02428e-15
3.51991e-15
4.09144e-15
4.74956e-15
5.50632e-15
6.37527e-15
7.37161e-15
8.51238e-15
9.81662e-15
1.13056e-14
1.3003e-14
1.49351e-14
1.71312e-14
1.96236e-14
2.24481e-14
2.56441e-14
2.9255e-14
3.33286e-14
3.7917e-14
4.30775e-14
4.88724e-14
5.53697e-14
6.2643e-14
7.07725e-14
7.98444e-14
8.99521e-14
1.01196e-13
1.13683e-13
1.2753e-13
1.42858e-13
1.59799e-13
1.78493e-13
1.99085e-13
2.21732e-13
2.46596e-13
2.73849e-13
3.03671e-13
3.36247e-13
3.71771e-13
4.10443e-13
4.52469e-13
4.98059e-13
5.47429e-13
6.00797e-13
6.58383e-13
7.2041e-13
7.87096e-13
8.58661e-13
9.35318e-13
1.01728e-12
1.10474e-12
1.19789e-12
1.29691e-12
1.40197e-12
1.51321e-12
1.63075e-12
1.7547e-12
1.88514e-12
2.02212e-12
2.16565e-12
2.31572e-12
2.47229e-12
2.63524e-12
2.80447e-12
2.97977e-12
3.16094e-12
3.34769e-12
3.53969e-12
3.73656e-12
3.93788e-12
4.14314e-12
4.35181e-12
4.56327e-12
4.77687e-12
4.99188e-12
5.20755e-12
5.42305e-12
5.63749e-12
5.84998e-12
6.05953e-12
6.26515e-12
6.46582e-12
6.66046e-12
6.848e-12
7.02734e-12
7.19739e-12
7.35705e-12
7.50524e-12
7.6409e-12
7.76301e-12
7.87059e-12
7.9627e-12
8.0385e-12
8.09719e-12
8.13809e-12
8.16059e-12
8.16419e-12
8.14854e-12
8.11338e-12
8.0586e-12
7.98423e-12
7.89043e-12
7.77752e-12
7.64599e-12
7.49643e-12
7.32963e-12
7.14648e-12
6.94805e-12
6.73552e-12
6.51017e-12
6.27343e-12
6.02679e-12
5.77184e-12
5.51023e-12
5.24365e-12
4.97383e-12
4.7025e-12
4.43137e-12
4.16215e-12
3.89648e-12
3.63593e-12
3.38202e-12
3.13614e-12
2.8996e-12
2.67358e-12
2.45913e-12
2.25715e-12
2.06844e-12
1.89361e-12
1.73317e-12
1.58746e-12
1.45669e-12
1.34093e-12
1.24012e-12
1.15408e-12
1.0825e-12
1.02497e-12
9.80969e-13
9.49866e-13
9.30948e-13
9.23408e-13
9.2636e-13
9.38839e-13
9.59813e-13
9.88187e-13
1.02281e-12
1.06248e-12
1.10598e-12
1.15203e-12
1.19938e-12
1.24677e-12
1.29295e-12
1.33671e-12
1.37693e-12
1.41252e-12
1.44253e-12
1.4661e-12
1.48251e-12
1.4912e-12
1.49175e-12
1.48394e-12
1.46769e-12
1.44312e-12
1.4105e-12
1.37029e-12
1.32305e-12
1.26952e-12
1.2105e-12
1.1469e-12
1.07968e-12
1.00982e-12
9.3833e-13
8.66165e-13
7.94251e-13
7.23446e-13
6.54521e-13
5.88155e-13
5.24916e-13
4.65264e-13
4.09547e-13
3.58e-13
3.10758e-13
2.67858e-13
2.29252e-13
1.9482e-13
1.64381e-13
1.37705e-13
1.1453e-13
9.45671e-14
7.75182e-14
6.30807e-14
5.09571e-14
4.08618e-14
3.25255e-14
2.56987e-14
2.01543e-14
1.56886e-14
1.21213e-14
9.29512e-15
7.07439e-15
5.34371e-15
4.00595e-15
2.98037e-15
2.20052e-15
1.61237e-15
1.17241e-15
8.45975e-16
6.05751e-16
4.30408e-16
3.03464e-16
2.12309e-16
1.47386e-16
1.01523e-16
6.93885e-17
4.70579e-17
3.16681e-17
2.11509e-17
1.40268e-17
9.24802e-18
6.08113e-18
4.02004e-18
2.72287e-18
1.96735e-18
1.62066e-18
3.90065e-17
4.04735e-17
4.34749e-17
4.80998e-17
5.44862e-17
6.28241e-17
7.33607e-17
8.64067e-17
1.02344e-16
1.21635e-16
1.44834e-16
1.72601e-16
2.05718e-16
2.45102e-16
2.91833e-16
3.47171e-16
4.12588e-16
4.89798e-16
5.80787e-16
6.87863e-16
8.13692e-16
9.61354e-16
1.1344e-15
1.33692e-15
1.57361e-15
1.84985e-15
2.17182e-15
2.54656e-15
2.98213e-15
3.48769e-15
4.07366e-15
4.75189e-15
5.53579e-15
6.44054e-15
7.48328e-15
8.68331e-15
1.00624e-14
1.16449e-14
1.34582e-14
1.55329e-14
1.79032e-14
2.06071e-14
2.36871e-14
2.719e-14
3.11679e-14
3.56785e-14
4.0785e-14
4.65575e-14
5.30725e-14
6.04142e-14
6.86743e-14
7.79532e-14
8.83598e-14
1.00013e-13
1.1304e-13
1.2758e-13
1.43781e-13
1.61806e-13
1.81824e-13
2.04021e-13
2.28591e-13
2.55743e-13
2.85698e-13
3.18687e-13
3.54957e-13
3.94765e-13
4.38379e-13
4.86079e-13
5.38158e-13
5.94915e-13
6.56661e-13
7.23712e-13
7.96392e-13
8.7503e-13
9.59956e-13
1.0515e-12
1.15e-12
1.25578e-12
1.36916e-12
1.49046e-12
1.61996e-12
1.75796e-12
1.90472e-12
2.06049e-12
2.22547e-12
2.39986e-12
2.5838e-12
2.7774e-12
2.98075e-12
3.19385e-12
3.41668e-12
3.64916e-12
3.89114e-12
4.14242e-12
4.40274e-12
4.67173e-12
4.949e-12
5.23406e-12
5.52634e-12
5.82518e-12
6.12988e-12
6.43962e-12
6.75352e-12
7.0706e-12
7.38983e-12
7.71008e-12
8.03016e-12
8.3488e-12
8.66467e-12
8.97639e-12
9.28253e-12
9.58158e-12
9.87204e-12
1.01524e-11
1.0421e-11
1.06763e-11
1.09168e-11
1.1141e-11
1.13472e-11
1.15341e-11
1.17003e-11
1.18443e-11
1.19651e-11
1.20614e-11
1.21322e-11
1.21766e-11
1.2194e-11
1.21837e-11
1.21453e-11
1.20786e-11
1.19836e-11
1.18604e-11
1.17093e-11
1.1531e-11
1.13262e-11
1.10958e-11
1.08411e-11
1.05634e-11
1.02643e-11
9.94544e-12
9.60878e-12
9.25632e-12
8.89021e-12
8.5127e-12
8.12612e-12
7.73284e-12
7.3353e-12
6.9359e-12
6.53706e-12
6.14111e-12
5.75035e-12
5.36697e-12
4.99305e-12
4.63051e-12
4.28116e-12
3.94662e-12
3.62832e-12
3.32752e-12
3.04528e-12
2.78247e-12
2.53975e-12
2.31761e-12
2.1163e-12
1.93594e-12
1.77645e-12
1.63756e-12
1.51888e-12
1.41985e-12
1.33978e-12
1.27783e-12
1.23308e-12
1.20447e-12
1.19084e-12
1.19095e-12
1.20348e-12
1.22702e-12
1.2601e-12
1.30119e-12
1.34872e-12
1.40109e-12
1.45668e-12
1.51387e-12
1.57105e-12
1.62665e-12
1.67916e-12
1.72717e-12
1.76934e-12
1.8045e-12
1.83159e-12
1.84976e-12
1.85833e-12
1.85681e-12
1.84495e-12
1.8227e-12
1.79022e-12
1.7479e-12
1.69631e-12
1.63618e-12
1.56843e-12
1.49409e-12
1.41427e-12
1.33017e-12
1.24301e-12
1.15402e-12
1.06438e-12
9.75213e-13
8.87574e-13
8.02396e-13
7.20498e-13
6.42564e-13
5.69142e-13
5.00642e-13
4.3734e-13
3.79384e-13
3.26806e-13
2.79535e-13
2.37412e-13
2.00204e-13
1.67623e-13
1.39338e-13
1.14993e-13
9.42144e-14
7.66303e-14
6.18739e-14
4.95936e-14
3.94588e-14
3.11637e-14
2.44305e-14
1.90099e-14
1.4682e-14
1.12547e-14
8.56282e-15
6.46586e-15
4.84564e-15
3.60398e-15
2.66018e-15
1.94862e-15
1.41652e-15
1.02186e-15
7.31511e-16
5.19643e-16
3.66298e-16
2.56214e-16
1.77828e-16
1.22468e-16
8.36889e-17
5.67462e-17
3.81816e-17
2.54972e-17
1.69066e-17
1.11451e-17
7.32757e-18
4.84336e-18
3.28008e-18
2.36965e-18
1.9519e-18
7.25421e-17
7.5267e-17
8.08425e-17
8.94339e-17
1.01297e-16
1.16784e-16
1.36355e-16
1.60583e-16
1.90178e-16
2.25997e-16
2.69068e-16
3.20613e-16
3.82079e-16
4.55167e-16
5.41875e-16
6.44536e-16
7.65874e-16
9.09056e-16
1.07776e-15
1.27625e-15
1.50944e-15
1.78304e-15
2.10358e-15
2.47862e-15
2.91682e-15
3.42809e-15
4.02379e-15
4.71692e-15
5.52225e-15
6.45665e-15
7.53926e-15
8.79179e-15
1.02388e-14
1.19082e-14
1.38312e-14
1.60432e-14
1.85839e-14
2.14976e-14
2.48344e-14
2.86498e-14
3.30059e-14
3.79717e-14
4.3624e-14
5.00478e-14
5.73368e-14
6.55949e-14
7.49362e-14
8.54859e-14
9.73815e-14
1.10773e-13
1.25825e-13
1.42714e-13
1.61635e-13
1.82796e-13
2.06425e-13
2.32764e-13
2.62075e-13
2.94638e-13
3.30752e-13
3.70736e-13
4.14928e-13
4.63685e-13
5.17385e-13
5.76424e-13
6.41217e-13
7.12199e-13
7.8982e-13
8.74547e-13
9.6686e-13
1.06725e-12
1.17623e-12
1.2943e-12
1.42199e-12
1.55981e-12
1.70829e-12
1.86793e-12
2.03923e-12
2.2227e-12
2.4188e-12
2.62798e-12
2.85065e-12
3.0872e-12
3.33798e-12
3.60327e-12
3.88332e-12
4.17832e-12
4.48838e-12
4.81354e-12
5.15377e-12
5.50895e-12
5.87887e-12
6.26323e-12
6.66161e-12
7.07351e-12
7.4983e-12
7.93523e-12
8.38346e-12
8.842e-12
9.30976e-12
9.78552e-12
1.02679e-11
1.07555e-11
1.12468e-11
1.17399e-11
1.22332e-11
1.27247e-11
1.32125e-11
1.36944e-11
1.41683e-11
1.4632e-11
1.50831e-11
1.55195e-11
1.59387e-11
1.63384e-11
1.67162e-11
1.707e-11
1.73973e-11
1.76961e-11
1.79642e-11
1.81996e-11
1.84004e-11
1.8565e-11
1.86918e-11
1.87793e-11
1.88265e-11
1.88324e-11
1.87963e-11
1.87178e-11
1.85967e-11
1.84331e-11
1.82273e-11
1.79802e-11
1.76927e-11
1.7366e-11
1.70016e-11
1.66016e-11
1.61679e-11
1.5703e-11
1.52094e-11
1.469e-11
1.41478e-11
1.3586e-11
1.30079e-11
1.24169e-11
1.18166e-11
1.12105e-11
1.0602e-11
9.99465e-12
9.3919e-12
8.79703e-12
8.21318e-12
7.64336e-12
7.09034e-12
6.5567e-12
6.04477e-12
5.5566e-12
5.09399e-12
4.65846e-12
4.25123e-12
3.87324e-12
3.52517e-12
3.2074e-12
2.92007e-12
2.66306e-12
2.43601e-12
2.23833e-12
2.06925e-12
1.92779e-12
1.8128e-12
1.72299e-12
1.6569e-12
1.61296e-12
1.58946e-12
1.58463e-12
1.59655e-12
1.62327e-12
1.66275e-12
1.71288e-12
1.77153e-12
1.83655e-12
1.90576e-12
1.97702e-12
2.04821e-12
2.11729e-12
2.1823e-12
2.24139e-12
2.29288e-12
2.33525e-12
2.3672e-12
2.38762e-12
2.3957e-12
2.39086e-12
2.3728e-12
2.3415e-12
2.29722e-12
2.24048e-12
2.17205e-12
2.0929e-12
2.00422e-12
1.90735e-12
1.80373e-12
1.69489e-12
1.5824e-12
1.46781e-12
1.35263e-12
1.23829e-12
1.12609e-12
1.01721e-12
9.12685e-13
8.13352e-13
7.19891e-13
6.328e-13
5.52408e-13
4.78883e-13
4.12249e-13
3.52397e-13
2.99112e-13
2.52086e-13
2.1094e-13
1.75249e-13
1.44551e-13
1.1837e-13
9.62296e-14
7.76613e-14
6.22185e-14
4.94812e-14
3.90621e-14
3.06094e-14
2.38082e-14
1.83806e-14
1.40846e-14
1.0712e-14
8.08592e-15
6.05771e-15
4.50402e-15
3.32349e-15
2.43378e-15
1.7687e-15
1.27557e-15
9.12894e-16
6.4833e-16
4.56901e-16
3.19515e-16
2.21716e-16
1.52662e-16
1.04301e-16
7.07093e-17
4.75682e-17
3.17601e-17
2.1056e-17
1.38783e-17
9.12323e-18
6.02937e-18
4.08269e-18
2.94909e-18
2.42896e-18
1.3435e-16
1.39391e-16
1.49706e-16
1.65601e-16
1.87548e-16
2.16199e-16
2.52401e-16
2.97217e-16
3.51954e-16
4.18197e-16
4.97841e-16
5.93146e-16
7.06778e-16
8.41879e-16
1.00213e-15
1.19184e-15
1.41603e-15
1.68053e-15
1.99212e-15
2.35865e-15
2.78919e-15
3.29421e-15
3.88576e-15
4.5777e-15
5.38596e-15
6.32876e-15
7.42694e-15
8.70433e-15
1.0188e-14
1.1909e-14
1.39021e-14
1.62072e-14
1.88693e-14
2.1939e-14
2.54737e-14
2.95375e-14
3.42029e-14
3.95506e-14
4.56714e-14
5.2666e-14
6.06471e-14
6.97397e-14
8.00822e-14
9.1828e-14
1.05146e-13
1.20224e-13
1.37265e-13
1.56495e-13
1.78158e-13
2.02524e-13
2.29884e-13
2.60553e-13
2.94876e-13
3.33221e-13
3.75988e-13
4.23604e-13
4.76528e-13
5.35247e-13
6.00284e-13
6.72189e-13
7.51546e-13
8.3897e-13
9.35108e-13
1.04063e-12
1.15625e-12
1.28269e-12
1.42071e-12
1.57108e-12
1.7346e-12
1.91208e-12
2.10434e-12
2.31221e-12
2.5365e-12
2.77805e-12
3.03766e-12
3.31611e-12
3.61417e-12
3.93256e-12
4.27197e-12
4.63303e-12
5.01629e-12
5.42226e-12
5.85135e-12
6.30388e-12
6.78006e-12
7.28001e-12
7.80371e-12
8.35101e-12
8.92162e-12
9.5151e-12
1.01309e-11
1.07681e-11
1.1426e-11
1.21033e-11
1.27988e-11
1.3511e-11
1.42383e-11
1.49787e-11
1.57302e-11
1.64906e-11
1.72575e-11
1.80284e-11
1.88004e-11
1.95707e-11
2.03362e-11
2.10938e-11
2.18401e-11
2.25717e-11
2.32853e-11
2.39772e-11
2.46439e-11
2.52818e-11
2.58873e-11
2.6457e-11
2.69874e-11
2.74751e-11
2.79168e-11
2.83095e-11
2.86504e-11
2.89366e-11
2.91658e-11
2.93359e-11
2.94448e-11
2.94912e-11
2.94738e-11
2.93917e-11
2.92446e-11
2.90324e-11
2.87554e-11
2.84146e-11
2.8011e-11
2.75465e-11
2.70231e-11
2.64432e-11
2.58099e-11
2.51264e-11
2.43964e-11
2.36239e-11
2.28133e-11
2.1969e-11
2.1096e-11
2.01991e-11
1.92836e-11
1.83545e-11
1.74172e-11
1.64769e-11
1.55387e-11
1.46077e-11
1.36888e-11
1.27865e-11
1.19053e-11
1.10493e-11
1.02223e-11
9.42767e-12
8.66843e-12
7.94722e-12
7.26626e-12
6.62734e-12
6.03185e-12
5.48076e-12
4.97465e-12
4.5137e-12
4.09773e-12
3.72624e-12
3.39837e-12
3.11301e-12
2.86875e-12
2.66395e-12
2.49675e-12
2.3651e-12
2.26677e-12
2.19939e-12
2.16043e-12
2.14729e-12
2.15722e-12
2.18743e-12
2.23503e-12
2.29711e-12
2.3707e-12
2.45285e-12
2.5406e-12
2.63106e-12
2.72138e-12
2.80884e-12
2.89083e-12
2.96495e-12
3.02897e-12
3.08093e-12
3.11914e-12
3.14222e-12
3.14911e-12
3.13912e-12
3.11191e-12
3.0675e-12
3.00629e-12
2.92898e-12
2.83663e-12
2.73056e-12
2.61234e-12
2.48373e-12
2.34664e-12
2.20307e-12
2.05505e-12
1.90461e-12
1.7537e-12
1.60415e-12
1.45765e-12
1.31571e-12
1.17963e-12
1.05048e-12
9.2911e-13
8.16147e-13
7.11986e-13
6.16821e-13
5.30658e-13
4.53338e-13
3.84561e-13
3.23913e-13
2.70893e-13
2.24936e-13
1.85437e-13
1.51774e-13
1.23325e-13
9.94807e-14
7.96625e-14
6.33259e-14
4.99702e-14
3.91408e-14
3.04319e-14
2.34852e-14
1.79895e-14
1.3677e-14
1.03204e-14
7.72917e-15
5.74495e-15
4.23787e-15
3.10248e-15
2.25403e-15
1.62514e-15
1.16278e-15
8.2559e-16
5.81685e-16
4.06686e-16
2.82144e-16
1.9423e-16
1.32675e-16
8.99285e-17
6.04868e-17
4.03788e-17
2.67657e-17
1.76389e-17
1.15936e-17
7.66087e-18
5.18668e-18
3.74604e-18
3.08507e-18
2.46866e-16
2.56118e-16
2.75054e-16
3.04233e-16
3.44522e-16
3.97114e-16
4.63562e-16
5.45816e-16
6.46272e-16
7.67832e-16
9.13972e-16
1.08883e-15
1.29729e-15
1.5451e-15
1.83902e-15
2.18691e-15
2.59797e-15
3.08287e-15
3.65401e-15
4.32573e-15
5.11461e-15
6.03978e-15
7.12326e-15
8.39034e-15
9.87006e-15
1.15957e-14
1.36052e-14
1.59419e-14
1.86553e-14
2.18015e-14
2.54442e-14
2.96557e-14
3.45174e-14
4.01215e-14
4.65716e-14
5.39842e-14
6.24901e-14
7.22355e-14
8.33838e-14
9.6117e-14
1.10638e-13
1.27171e-13
1.45965e-13
1.67295e-13
1.91464e-13
2.18806e-13
2.49685e-13
2.84502e-13
3.23694e-13
3.67736e-13
4.17144e-13
4.72477e-13
5.34339e-13
6.0338e-13
6.80299e-13
7.65843e-13
8.6081e-13
9.6605e-13
1.08246e-12
1.211e-12
1.35266e-12
1.5085e-12
1.67962e-12
1.86716e-12
2.07231e-12
2.29628e-12
2.54035e-12
2.80579e-12
3.09391e-12
3.40602e-12
3.74346e-12
4.10754e-12
4.49957e-12
4.92083e-12
5.37257e-12
5.85597e-12
6.37216e-12
6.92219e-12
7.50703e-12
8.12751e-12
8.78437e-12
9.47817e-12
1.02094e-11
1.09782e-11
1.17847e-11
1.26287e-11
1.351e-11
1.44278e-11
1.53814e-11
1.63696e-11
1.7391e-11
1.84441e-11
1.95269e-11
2.06371e-11
2.17723e-11
2.29295e-11
2.41057e-11
2.52976e-11
2.65013e-11
2.7713e-11
2.89284e-11
3.01432e-11
3.13525e-11
3.25515e-11
3.37351e-11
3.48982e-11
3.60353e-11
3.7141e-11
3.82099e-11
3.92363e-11
4.02148e-11
4.11398e-11
4.20062e-11
4.28086e-11
4.35419e-11
4.42015e-11
4.47827e-11
4.52813e-11
4.56935e-11
4.60157e-11
4.6245e-11
4.63787e-11
4.64148e-11
4.63519e-11
4.61889e-11
4.59255e-11
4.5562e-11
4.50992e-11
4.45387e-11
4.38827e-11
4.3134e-11
4.22959e-11
4.13725e-11
4.03684e-11
3.92889e-11
3.81396e-11
3.69266e-11
3.56567e-11
3.43367e-11
3.29739e-11
3.1576e-11
3.01505e-11
2.87054e-11
2.72485e-11
2.57876e-11
2.43303e-11
2.28843e-11
2.14568e-11
2.00546e-11
1.86844e-11
1.73522e-11
1.60636e-11
1.48237e-11
1.3637e-11
1.25073e-11
1.14381e-11
1.04319e-11
9.49082e-12
8.61631e-12
7.80923e-12
7.06986e-12
6.39797e-12
5.79281e-12
5.25315e-12
4.77735e-12
4.36337e-12
4.00884e-12
3.71106e-12
3.46706e-12
3.27365e-12
3.12743e-12
3.02481e-12
2.96208e-12
2.93538e-12
2.94077e-12
2.97422e-12
3.03165e-12
3.10896e-12
3.20202e-12
3.30672e-12
3.41904e-12
3.53499e-12
3.65073e-12
3.76259e-12
3.86709e-12
3.961e-12
4.04141e-12
4.10571e-12
4.15172e-12
4.17765e-12
4.18216e-12
4.16438e-12
4.12392e-12
4.0609e-12
3.97587e-12
3.86984e-12
3.74425e-12
3.60088e-12
3.44184e-12
3.26949e-12
3.08635e-12
2.89508e-12
2.69834e-12
2.4988e-12
2.29899e-12
2.10133e-12
1.90801e-12
1.72096e-12
1.54187e-12
1.37212e-12
1.21277e-12
1.06463e-12
9.28164e-13
8.03609e-13
6.90939e-13
5.89921e-13
5.0014e-13
4.21033e-13
3.51928e-13
2.92072e-13
2.40664e-13
1.9688e-13
1.599e-13
1.28926e-13
1.03196e-13
8.19987e-14
6.46782e-14
5.06413e-14
3.93583e-14
3.03628e-14
2.32494e-14
1.76699e-14
1.3329e-14
9.97918e-15
7.41507e-15
5.46826e-15
4.00209e-15
2.90684e-15
2.09527e-15
1.49877e-15
1.0639e-15
7.49422e-16
5.23846e-16
3.63349e-16
2.50082e-16
1.70795e-16
1.15746e-16
7.78383e-17
5.19535e-17
3.44328e-17
2.26883e-17
1.49103e-17
9.85104e-18
6.66854e-18
4.81566e-18
3.9656e-18
4.49614e-16
4.66449e-16
5.00907e-16
5.54004e-16
6.27315e-16
7.23011e-16
8.43914e-16
9.93566e-16
1.17632e-15
1.39745e-15
1.66328e-15
1.98131e-15
2.36042e-15
2.81106e-15
3.34547e-15
3.97795e-15
4.72517e-15
5.6065e-15
6.64442e-15
7.86494e-15
9.29811e-15
1.09786e-14
1.29462e-14
1.52468e-14
1.7933e-14
2.10648e-14
2.4711e-14
2.89498e-14
3.38706e-14
3.95747e-14
4.61769e-14
5.38074e-14
6.26132e-14
7.27599e-14
8.44339e-14
9.78446e-14
1.13227e-13
1.30842e-13
1.50984e-13
1.73977e-13
2.00185e-13
2.30007e-13
2.63888e-13
3.02318e-13
3.45834e-13
3.95027e-13
4.50547e-13
5.131e-13
5.83456e-13
6.62453e-13
7.50999e-13
8.50074e-13
9.60735e-13
1.08412e-12
1.22143e-12
1.37398e-12
1.54315e-12
1.73039e-12
1.93726e-12
2.16539e-12
2.41648e-12
2.69232e-12
2.99477e-12
3.32575e-12
3.68725e-12
4.0813e-12
4.50998e-12
4.9754e-12
5.47968e-12
6.02496e-12
6.61335e-12
7.24694e-12
7.92776e-12
8.6578e-12
9.43893e-12
1.02729e-11
1.11614e-11
1.21058e-11
1.31075e-11
1.41675e-11
1.52866e-11
1.64654e-11
1.77042e-11
1.90029e-11
2.03611e-11
2.17781e-11
2.32527e-11
2.47834e-11
2.63682e-11
2.80047e-11
2.969e-11
3.14208e-11
3.31933e-11
3.50033e-11
3.68459e-11
3.87161e-11
4.06082e-11
4.25161e-11
4.44334e-11
4.63531e-11
4.8268e-11
5.01707e-11
5.20532e-11
5.39074e-11
5.5725e-11
5.74976e-11
5.92167e-11
6.08735e-11
6.24596e-11
6.39663e-11
6.53854e-11
6.67086e-11
6.79281e-11
6.90362e-11
7.00259e-11
7.08902e-11
7.16232e-11
7.22191e-11
7.26731e-11
7.29809e-11
7.31389e-11
7.31445e-11
7.29958e-11
7.26919e-11
7.22327e-11
7.16191e-11
7.08528e-11
6.99367e-11
6.88744e-11
6.76707e-11
6.6331e-11
6.48619e-11
6.32706e-11
6.15653e-11
5.97549e-11
5.78488e-11
5.58573e-11
5.3791e-11
5.1661e-11
4.94788e-11
4.72559e-11
4.50043e-11
4.27357e-11
4.04619e-11
3.81944e-11
3.59445e-11
3.3723e-11
3.15403e-11
2.9406e-11
2.73295e-11
2.53189e-11
2.33819e-11
2.15251e-11
1.97545e-11
1.80749e-11
1.64903e-11
1.50039e-11
1.36178e-11
1.23334e-11
1.1151e-11
1.00705e-11
9.09057e-12
8.2096e-12
7.42514e-12
6.73421e-12
6.13331e-12
5.61852e-12
5.1855e-12
4.82961e-12
4.54591e-12
4.32924e-12
4.17423e-12
4.07538e-12
4.02705e-12
4.02354e-12
4.05907e-12
4.12784e-12
4.22405e-12
4.34195e-12
4.47584e-12
4.62013e-12
4.76939e-12
4.91838e-12
5.06212e-12
5.19594e-12
5.31551e-12
5.41694e-12
5.49682e-12
5.55225e-12
5.58091e-12
5.5811e-12
5.55173e-12
5.49236e-12
5.4032e-12
5.28508e-12
5.13942e-12
4.96816e-12
4.77375e-12
4.55901e-12
4.32709e-12
4.08138e-12
3.82539e-12
3.56267e-12
3.2967e-12
3.03085e-12
2.76827e-12
2.51181e-12
2.26402e-12
2.02706e-12
1.80271e-12
1.59236e-12
1.39698e-12
1.21718e-12
1.05323e-12
9.05043e-13
7.72296e-13
6.54407e-13
5.50613e-13
4.60007e-13
3.81581e-13
3.14268e-13
2.56975e-13
2.08614e-13
1.68131e-13
1.34521e-13
1.06845e-13
8.42434e-14
6.59354e-14
5.12261e-14
3.95042e-14
3.02388e-14
2.29744e-14
1.73249e-14
1.29669e-14
9.63228e-15
7.10135e-15
5.19591e-15
3.77296e-15
2.7189e-15
1.9444e-15
1.37991e-15
9.7181e-16
6.79153e-16
4.70979e-16
3.24099e-16
2.21304e-16
1.49949e-16
1.00823e-16
6.72844e-17
4.45867e-17
2.93746e-17
1.93017e-17
1.27506e-17
8.63016e-18
6.23142e-18
5.131e-18
8.11466e-16
8.41823e-16
9.03963e-16
9.99717e-16
1.13192e-15
1.30449e-15
1.5225e-15
1.79234e-15
2.12186e-15
2.52054e-15
2.99976e-15
3.57306e-15
4.2564e-15
5.0686e-15
6.03168e-15
7.17138e-15
8.51769e-15
1.01055e-14
1.19751e-14
1.41733e-14
1.67542e-14
1.97799e-14
2.33221e-14
2.74631e-14
3.2297e-14
3.79317e-14
4.44905e-14
5.21137e-14
6.09611e-14
7.1214e-14
8.30782e-14
9.67861e-14
1.126e-13
1.30816e-13
1.51767e-13
1.75826e-13
2.03409e-13
2.34985e-13
2.71073e-13
3.12251e-13
3.59161e-13
4.12515e-13
4.73095e-13
5.41768e-13
6.19483e-13
7.07281e-13
8.06302e-13
9.17786e-13
1.04309e-12
1.18366e-12
1.3411e-12
1.51711e-12
1.71353e-12
1.93231e-12
2.17557e-12
2.44554e-12
2.74459e-12
3.07522e-12
3.44008e-12
3.84195e-12
4.2837e-12
4.76836e-12
5.29904e-12
5.87895e-12
6.51139e-12
7.19971e-12
7.94733e-12
8.75767e-12
9.63416e-12
1.05802e-11
1.15991e-11
1.26942e-11
1.38686e-11
1.51253e-11
1.64671e-11
1.78965e-11
1.94158e-11
2.10269e-11
2.27315e-11
2.45308e-11
2.64254e-11
2.84157e-11
3.05014e-11
3.26816e-11
3.49548e-11
3.73191e-11
3.97716e-11
4.23089e-11
4.49268e-11
4.76205e-11
5.03842e-11
5.32116e-11
5.60956e-11
5.90283e-11
6.2001e-11
6.50046e-11
6.8029e-11
7.10637e-11
7.40974e-11
7.71185e-11
8.01147e-11
8.30735e-11
8.5982e-11
8.88269e-11
9.15948e-11
9.42723e-11
9.6846e-11
9.93023e-11
1.01628e-10
1.03811e-10
1.05837e-10
1.07696e-10
1.09376e-10
1.10865e-10
1.12154e-10
1.13235e-10
1.14098e-10
1.14737e-10
1.15146e-10
1.1532e-10
1.15255e-10
1.14951e-10
1.14405e-10
1.13618e-10
1.12593e-10
1.11333e-10
1.09842e-10
1.08128e-10
1.06197e-10
1.04059e-10
1.01725e-10
9.92049e-11
9.65125e-11
9.36615e-11
9.06665e-11
8.75433e-11
8.43082e-11
8.09781e-11
7.75704e-11
7.41029e-11
7.05933e-11
6.70595e-11
6.35192e-11
5.99897e-11
5.64879e-11
5.303e-11
4.96316e-11
4.63073e-11
4.30707e-11
3.99342e-11
3.69093e-11
3.40059e-11
3.12329e-11
2.85976e-11
2.6106e-11
2.37627e-11
2.15712e-11
1.95334e-11
1.765e-11
1.59207e-11
1.43438e-11
1.29167e-11
1.1636e-11
1.04972e-11
9.49517e-12
8.62417e-12
7.87782e-12
7.24928e-12
6.73135e-12
6.31648e-12
5.99687e-12
5.76456e-12
5.6114e-12
5.52921e-12
5.50972e-12
5.54465e-12
5.62578e-12
5.74492e-12
5.89401e-12
6.06513e-12
6.25057e-12
6.44288e-12
6.63489e-12
6.81986e-12
6.99147e-12
7.14391e-12
7.27201e-12
7.37122e-12
7.43774e-12
7.46853e-12
7.46141e-12
7.41501e-12
7.32886e-12
7.20332e-12
7.03958e-12
6.83961e-12
6.6061e-12
6.34233e-12
6.05213e-12
5.73972e-12
5.40962e-12
5.06649e-12
4.71505e-12
4.35992e-12
4.00552e-12
3.65599e-12
3.31508e-12
2.98609e-12
2.67186e-12
2.37468e-12
2.09631e-12
1.83802e-12
1.60054e-12
1.38418e-12
1.18879e-12
1.01389e-12
8.58681e-13
7.22128e-13
6.03007e-13
4.99967e-13
4.11582e-13
3.36399e-13
2.72975e-13
2.19911e-13
1.75879e-13
1.39641e-13
1.1006e-13
8.61101e-14
6.68766e-14
5.15561e-14
3.94511e-14
2.99641e-14
2.2589e-14
1.69019e-14
1.25518e-14
9.25123e-15
6.76717e-15
4.91268e-15
3.53936e-15
2.53057e-15
1.79551e-15
1.26423e-15
8.83333e-16
6.12456e-16
4.21376e-16
2.87678e-16
1.94889e-16
1.31019e-16
8.74221e-17
5.79228e-17
3.81553e-17
2.50679e-17
1.65575e-17
1.12053e-17
8.08976e-18
6.66059e-18
1.45121e-15
1.50546e-15
1.61651e-15
1.78764e-15
2.0239e-15
2.33229e-15
2.72188e-15
3.20407e-15
3.79286e-15
4.5052e-15
5.36141e-15
6.38563e-15
7.60636e-15
9.05717e-15
1.07774e-14
1.28128e-14
1.52171e-14
1.80522e-14
2.13903e-14
2.53147e-14
2.99215e-14
3.53217e-14
4.16428e-14
4.90311e-14
5.76544e-14
6.77045e-14
7.94004e-14
9.29916e-14
1.08762e-13
1.27033e-13
1.48171e-13
1.72586e-13
2.00745e-13
2.33171e-13
2.70453e-13
3.1325e-13
3.623e-13
4.18426e-13
4.82546e-13
5.55679e-13
6.38953e-13
7.33618e-13
8.41051e-13
9.62767e-13
1.10043e-12
1.25586e-12
1.43105e-12
1.62815e-12
1.84952e-12
2.0977e-12
2.37543e-12
2.68566e-12
3.03157e-12
3.41652e-12
3.84414e-12
4.31823e-12
4.84286e-12
5.42227e-12
6.06096e-12
6.76358e-12
7.53502e-12
8.3803e-12
9.30462e-12
1.03133e-11
1.14118e-11
1.26055e-11
1.39001e-11
1.5301e-11
1.68138e-11
1.84437e-11
2.01961e-11
2.20759e-11
2.4088e-11
2.62367e-11
2.85261e-11
3.09597e-11
3.35405e-11
3.62711e-11
3.91531e-11
4.21875e-11
4.53745e-11
4.87135e-11
5.22029e-11
5.58399e-11
5.96209e-11
6.35411e-11
6.75947e-11
7.17744e-11
7.60722e-11
8.04785e-11
8.49826e-11
8.95727e-11
9.42357e-11
9.89576e-11
1.03723e-10
1.08516e-10
1.13318e-10
1.18112e-10
1.2288e-10
1.276e-10
1.32254e-10
1.3682e-10
1.41277e-10
1.45604e-10
1.49781e-10
1.53785e-10
1.57596e-10
1.61193e-10
1.64557e-10
1.67668e-10
1.70508e-10
1.7306e-10
1.75308e-10
1.77236e-10
1.78832e-10
1.80084e-10
1.80982e-10
1.81518e-10
1.81685e-10
1.81479e-10
1.80899e-10
1.79943e-10
1.78613e-10
1.76915e-10
1.74854e-10
1.72439e-10
1.69681e-10
1.66591e-10
1.63186e-10
1.5948e-10
1.55494e-10
1.51247e-10
1.46759e-10
1.42055e-10
1.37159e-10
1.32095e-10
1.2689e-10
1.21569e-10
1.16161e-10
1.10691e-10
1.05187e-10
9.96761e-11
9.41834e-11
8.87347e-11
8.33543e-11
7.80656e-11
7.28903e-11
6.7849e-11