/*--------------------------------*- C++ -*----------------------------------*\
| =========                 |                                                 |
| \\      /  F ield         | OpenFOAM: The Open Source CFD Toolbox           |
|  \\    /   O peration     | Version:  v2012                                 |
|   \\  /    A nd           | Website:  www.openfoam.com                      |
|    \\/     M anipulation  |                                                 |
\*---------------------------------------------------------------------------*/
FoamFile
{
    version     2.0;
    format      ascii;
    class       volScalarField;
    location    "0";
    object      p;
}
// * * * * * * * * * * * * * * * * * * * * * * * * * * * * * * * * * * * * * //

dimensions      [0 2 -2 0 0 0 0];


internalField   nonuniform List<scalar> 
4000
(
0.313078
0.263635
0.282187
0.249609
0.308387
0.433325
0.443233
0.323158
0.02244
-0.0626925
0.0472612
0.192798
0.0746479
-0.162992
-0.0733404
0.177009
0.0773281
-0.0550649
-0.0702507
-0.0180392
-0.0655039
-0.111542
-0.126372
-0.110312
-0.0789879
0.016397
0.00464467
-0.00609637
-0.0965466
-0.0574275
0.0383447
0.0771574
-0.0385721
-0.022596
0.112878
0.127259
0.0997756
0.051948
-0.0116545
0.035112
0.118431
0.120148
0.154831
0.0850785
-0.0893893
-0.164913
-0.0756289
-0.0543095
-0.0769985
-0.0609235
-0.0606266
-0.128332
-0.13418
-0.150423
-0.199925
-0.274786
-0.285337
-0.214721
-0.254333
-0.318624
-0.30264
-0.2129
-0.189558
-0.135748
-0.0567948
-0.0209901
-0.058618
-0.0811208
-0.0884183
-0.0404352
-0.0526059
0.000755098
0.0681622
0.128687
0.0781665
0.0385557
0.0296073
0.0350111
0.100098
0.0927197
0.0224039
-0.144094
-0.182723
-0.0936438
0.0383659
0.0520985
-0.127853
-0.313446
-0.263368
-0.192794
-0.200041
-0.142336
-0.155292
-0.201449
-0.176592
-0.176276
-0.230605
-0.199613
-0.103228
-0.00919818
0.264466
0.357178
0.263725
0.297058
0.325823
0.392904
0.30477
0.256094
0.157343
0.111793
0.0495011
0.0782382
-0.0230261
-0.032763
0.0034321
0.0181312
0.0192067
-0.00301891
-0.0837244
-0.0601367
-0.091277
-0.0601536
-0.0273529
-0.111814
-0.105648
-0.0229089
0.0362512
0.0188746
-0.083668
-0.0650471
-0.0274119
0.0152687
0.0322771
0.0685564
0.0815451
0.10428
0.0806111
0.0682112
0.0653038
0.100085
0.0839244
0.0584481
0.0561949
0.0268285
-0.00640519
-0.057556
-0.0693108
-0.127524
-0.11721
-0.0540598
-0.0500541
-0.0907289
-0.179074
-0.199019
-0.299124
-0.254196
-0.196308
-0.162247
-0.176894
-0.321446
-0.32733
-0.250385
-0.174249
-0.151708
-0.0995895
-0.0484429
-0.034813
-0.0659999
-0.0364835
-0.0707666
-0.0581533
0.0478647
0.0881685
0.0754359
0.102654
0.0557877
0.0547339
0.0661913
0.0906102
0.0341733
-0.0215238
-0.123365
-0.119384
-0.096658
-0.0173251
-0.0598757
-0.107269
-0.204993
-0.275966
-0.253127
-0.205191
-0.16539
-0.136791
-0.199174
-0.226432
-0.190723
-0.153349
-0.138494
-0.109794
-0.0165731
0.302294
0.29903
0.289735
0.30626
0.305306
0.36616
0.310346
0.264336
0.118065
0.0571171
0.164889
0.145646
0.0363543
-0.0716281
-0.133775
-0.0659675
0.0080091
0.0501466
-0.0717917
-0.0626247
-0.0860038
-0.111038
-0.0658724
-0.00701472
-0.0201979
-0.0510984
-8.22628e-05
0.00812516
-0.0854163
-0.0406355
0.0139918
0.0172666
-0.00993114
0.00695684
0.0665572
0.0911088
0.130187
0.183773
0.0980595
0.0721267
0.0562474
-0.0168234
0.0227824
0.0700609
0.0806556
-0.0142004
-0.0248533
-0.128833
-0.156976
-0.128456
-0.0511133
-0.0471359
-0.0589176
-0.175378
-0.26603
-0.237391
-0.228159
-0.245378
-0.208846
-0.288215
-0.382712
-0.272964
-0.189008
-0.0943988
-0.0790245
-0.0689447
-0.0439535
-0.0335521
-0.0573911
-0.0404809
-0.0203774
0.00513797
0.0636253
0.0808716
0.140848
0.0914316
0.0335077
0.0561945
0.0116655
-0.00237983
-0.0248675
-0.0311388
-0.100094
-0.0789418
-0.0247058
-0.0681941
-0.142302
-0.214323
-0.245524
-0.233848
-0.171118
-0.167738
-0.187618
-0.218647
-0.159103
-0.144742
-0.141355
-0.125051
-0.0934456
-0.000998391
0.275627
0.272869
0.31093
0.286853
0.410064
0.28608
0.273452
0.159852
0.194696
0.189477
0.0754927
-0.027616
-0.00170734
0.0817461
-0.0456738
-0.0550628
-0.057097
-0.0335223
-0.0559725
0.00767446
-0.0507606
-0.166307
-0.217547
-0.0568574
-0.0235356
0.0433339
0.081884
0.0244517
-0.0509185
-0.0363992
0.0167186
0.0161635
-0.0294315
0.0309341
0.00800406
0.102234
0.143648
0.11042
0.0977746
0.084302
0.107026
0.00434701
-0.0362291
0.0522481
0.0881282
0.00101265
-0.0637967
-0.058907
-0.0813246
-0.0757414
-0.0878099
-0.0536589
-0.107476
-0.167269
-0.262908
-0.261317
-0.24391
-0.21133
-0.161546
-0.210392
-0.282298
-0.317649
-0.225106
-0.13602
-0.0456031
-0.0773265
-0.028853
0.0226446
-0.0195113
-0.0262392
-0.0236407
0.0356838
0.0587055
0.0713585
0.125611
0.0931635
-0.00161836
0.0521721
0.0219451
0.00159024
-0.100367
-0.08407
-0.0707239
-0.0318528
-0.023823
-0.0880301
-0.141671
-0.200774
-0.207437
-0.272041
-0.216776
-0.185692
-0.148341
-0.220789
-0.185754
-0.12639
-0.0874132
-0.0757933
-0.0326725
-0.0144839
0.335901
0.286652
0.287618
0.242727
0.22338
0.281916
0.326902
0.187769
0.151849
0.226693
0.266232
0.0936311
-0.166201
-0.165278
-0.0792039
-0.038953
-0.0301813
-0.131022
-0.0818644
0.0186526
-0.00704462
-0.0906159
-0.171829
-0.16407
-0.106409
0.0651099
0.132224
0.043511
-0.0516757
-0.00267663
0.0192521
0.0252249
-0.000865762
0.0367243
0.0208414
0.0423257
0.0903
0.138612
0.218138
0.103861
0.0196486
0.0495738
-0.0143051
0.00593278
0.0646319
0.0985979
0.0385852
-0.0666545
-0.100824
-0.124108
-0.15076
-0.0775085
-0.114869
-0.121761
-0.176027
-0.230831
-0.28879
-0.275857
-0.170938
-0.173644
-0.24326
-0.234074
-0.213049
-0.139043
-0.133458
-0.0698032
0.0427892
0.0618593
0.0122802
-0.0038803
0.0157343
0.0575652
0.0499843
0.047846
0.0316579
0.00810544
0.0306137
0.0409159
0.0286859
0.0272961
-0.0040708
-0.0743341
-0.109487
-0.0683646
-0.0591344
-0.0851104
-0.142909
-0.160464
-0.186351
-0.224281
-0.200952
-0.192405
-0.170394
-0.18443
-0.128553
-0.0997278
-0.109414
-0.0735413
-0.0509389
-0.0328438
0.224495
0.20647
0.218318
0.256189
0.354231
0.38829
0.310472
0.159472
0.133129
0.0875089
0.0552433
0.0168018
-0.033364
-0.025346
0.00505351
-0.0730102
-0.101019
-0.122593
-0.152507
-0.0612031
0.000481871
-0.0688562
-0.095768
-0.125581
-0.0726721
0.0738233
0.05114
-0.0351735
-0.0231599
0.00424256
0.0785878
0.0470301
-0.0493811
-0.0701352
0.0747323
0.112295
0.135371
0.0667123
0.0953161
0.0807972
0.10535
0.113713
0.0414738
0.0761478
0.0330387
0.042665
-0.0126169
-0.0601742
-0.0724813
-0.0639422
-0.0883642
-0.065399
-0.0972897
-0.084323
-0.165302
-0.244633
-0.290388
-0.235987
-0.250155
-0.202959
-0.229418
-0.211248
-0.175882
-0.176862
-0.124519
-0.0311808
0.0851724
0.10892
0.0622073
0.0308705
-0.00997664
-0.0300919
0.0165824
0.0837253
0.105816
0.0705811
0.0851843
0.0490454
-0.106841
-0.0457133
-0.0129178
-0.0304695
-0.047353
-0.105712
-0.0993471
-0.059789
-0.130318
-0.1896
-0.174982
-0.182939
-0.224047
-0.201451
-0.151864
-0.159866
-0.132255
-0.0558601
-0.0592781
-0.126614
-0.0825306
-0.012913
0.200225
0.187354
0.196013
0.312491
0.351423
0.239354
0.259057
0.184802
0.174566
0.127663
0.0644921
-0.0471709
-0.0559598
-0.100354
-0.116987
-0.0673682
-0.104534
-0.0551432
-0.0386071
-0.0288035
-0.117884
-0.232426
-0.251201
-0.158718
-0.0423148
0.0969588
0.0869296
0.0519625
0.109003
0.00128841
0.0594738
0.0203096
-0.0416429
-0.0786131
0.0194102
0.133405
0.119032
0.0965311
0.141737
0.113342
0.030343
0.0697366
0.0698823
0.0180839
0.0627372
0.0637528
0.0240651
-0.0449965
0.00292767
-0.0391336
-0.163365
-0.1967
-0.10353
-0.0121493
-0.0924257
-0.25564
-0.270201
-0.196267
-0.222474
-0.169857
-0.162797
-0.24838
-0.201943
-0.135646
-0.071804
0.0223806
0.10252
0.0823826
0.0565049
-0.0134591
-0.0586033
0.0985211
0.0273658
0.00990972
-0.0157482
-0.0112829
0.0649426
0.155052
0.0776364
-0.0242548
-0.0971416
-0.0522261
-0.0737188
-0.0640005
-0.0242242
-0.0772088
-0.109032
-0.159868
-0.210222
-0.193904
-0.208953
-0.180936
-0.137685
-0.136463
-0.101641
-0.0836605
-0.0387307
-0.112601
-0.0794906
0.0145554
0.107857
0.125183
0.166679
0.268353
0.341184
0.239859
0.188258
0.234741
0.189599
0.156342
0.0113781
-0.0871484
-0.0188244
-0.0812583
-0.0492346
-0.0833343
-0.106241
-0.172485
-0.172632
-0.193072
-0.15824
-0.0325528
0.0330967
-0.129245
-0.177341
-0.00649873
0.0736172
0.0710727
0.0369942
0.0492382
0.0330118
-0.000954776
-0.00247854
-0.0254119
0.00748683
0.142764
0.165895
0.0547523
0.000284367
-0.0130898
0.0788194
0.171549
0.240446
0.161519
0.0155684
-0.0235591
0.0483332
-0.00278991
0.0446901
0.025298
-0.0900799
-0.159143
-0.117761
-0.0519085
-0.110373
-0.246404
-0.327573
-0.18986
-0.1935
-0.184651
-0.216248
-0.176634
-0.126578
-0.0692125
-0.0317372
0.0271867
0.0837337
0.0714953
0.0444929
0.0349779
0.0419076
0.0862845
0.0455511
0.06088
0.0240336
-0.0265113
0.0991904
0.0746663
0.0186632
-0.0680805
-0.0699722
-0.0621121
-0.0360941
-0.0488503
-0.108939
-0.124692
-0.111543
-0.153257
-0.144351
-0.178598
-0.189082
-0.186664
-0.125905
-0.094311
-0.13147
-0.129996
-0.0442559
-0.0508294
-0.00850392
0.0147884
0.109004
0.193045
0.198042
0.195024
0.159575
0.236494
0.200638
0.193821
0.166022
0.0862232
0.0311545
-0.0739111
-0.0657918
-0.115097
-0.14585
-0.179762
-0.126979
-0.0410585
-0.0896722
-0.211654
-0.147346
-0.108929
-0.0914603
-0.0366749
-0.0342937
-0.0209729
0.0118559
-0.0500967
-0.0635084
0.12349
0.158277
0.103991
0.0127349
0.0177978
-0.0310477
0.00682338
0.079087
0.0383834
-0.0092663
0.129309
0.25829
0.283989
0.199564
0.117211
-0.0485085
-0.0716011
-0.0120376
-0.0185027
0.00987461
0.0231261
-0.0147223
-0.043882
-0.105238
-0.144811
-0.138162
-0.134323
-0.176481
-0.150733
-0.106091
-0.185874
-0.284481
-0.273687
-0.143425
-0.0477316
0.0986374
0.0872238
0.0881194
0.0688898
0.0594888
0.0649797
0.0528569
0.0683605
0.0247316
0.0435593
0.0265853
0.0136535
0.097531
0.0974028
0.0551781
-0.0475846
-0.057671
-0.0808165
-0.0375536
-0.0236132
-0.0480953
-0.0749589
-0.0762443
-0.15723
-0.227691
-0.150931
-0.165778
-0.177551
-0.133143
-0.130043
-0.0952678
-0.110302
-0.0307153
-0.00427941
-0.0204682
-0.000813223
0.150655
0.134996
0.0426599
0.133068
0.147581
0.128982
0.199212
0.184758
0.255179
0.258521
0.0400251
-0.116058
-0.158887
-0.112512
-0.00401922
-0.0735627
-0.114942
-0.244583
-0.283273
-0.260788
-0.13392
-0.129005
-0.109612
-0.0447901
-0.00349715
-0.0239766
0.00192785
-0.0198463
0.00263741
0.120037
0.145531
0.196916
0.0875719
-0.0890514
-0.118113
0.0094519
0.0646929
0.0930537
0.0673721
0.0893717
0.249675
0.227611
0.176033
0.0698912
-0.0111626
0.00408367
-0.0201598
0.0178504
-0.0112324
0.0370238
0.00885619
-0.0733687
-0.110329
-0.120592
-0.0955463
-0.128664
-0.104302
-0.143714
-0.187818
-0.139544
-0.20993
-0.254595
-0.244173
0.0553062
0.198288
0.2167
-0.00722485
0.0166177
0.074686
0.0496103
0.0602306
0.0878611
0.0375834
0.0373416
0.0500017
0.0661729
0.0925747
-0.0097815
0.0653848
0.0612446
0.0508885
-0.0401934
-0.0886785
-0.0391998
-0.0942939
-0.0659442
-0.0716455
-0.110548
-0.123678
-0.11985
-0.154052
-0.176389
-0.134611
-0.136871
-0.131848
-0.163522
-0.0345702
0.0255908
0.0593451
0.0259031
0.0799679
0.084401
0.123399
0.133456
0.155505
0.227663
0.172391
0.0813684
0.130269
0.19864
0.0213964
-0.154765
-0.170321
-0.206096
-0.156191
-0.11141
-0.143076
-0.183484
-0.232974
-0.154674
0.018298
-0.0665012
-0.203028
-0.15641
-0.0157356
-0.0760669
-0.0673181
-0.0095919
0.0596546
0.0642242
0.0928429
0.10686
0.125228
0.00462457
-0.0506702
0.0111047
0.0194529
0.0307982
0.0855776
0.191307
0.263808
0.246319
0.197356
0.0752929
-0.00315591
-0.0543539
-0.0871577
0.0308066
0.0305775
0.063955
0.0713126
-0.0976041
-0.13696
-0.108026
-0.169886
-0.100407
-0.0344297
-0.0655045
-0.160581
-0.139029
-0.174125
-0.16397
-0.0934939
-0.0886346
0.0973832
0.115659
0.0249248
0.00835198
0.0850094
0.106627
0.136441
0.112014
0.0475754
0.0513623
0.0576405
0.0672782
0.11339
0.109844
0.0597186
0.0211907
-0.0289563
-0.0277336
-0.0999906
-0.0153168
-0.0292195
-0.0329109
-0.0866377
-0.0996023
-0.0879953
-0.124417
-0.157496
-0.154578
-0.122544
-0.14223
-0.0992715
-0.035835
-0.034512
-0.0186974
-0.00955176
0.00767729
0.018286
0.0668187
0.114846
0.112879
0.119551
0.117186
0.115005
0.118246
0.00315256
0.0159403
0.129552
-0.00768751
-0.0794412
-0.113046
-0.0933765
-0.200408
-0.264976
-0.245669
-0.223479
-0.167511
-0.0119949
-0.0353248
-0.102057
-0.176299
-0.0434679
-0.00929141
0.00839737
0.0341502
-0.0391519
0.00735293
-0.0140306
0.0908721
0.122585
0.0580186
0.0181067
-0.0269211
0.0269776
0.0950107
0.143377
0.200025
0.189083
0.0892881
0.1392
0.0627602
0.0445457
-0.0405599
-0.0127717
0.0977242
0.0107672
-0.0551771
-0.0134258
-0.0107353
-0.0718738
-0.0303458
-0.037654
-0.0509354
-0.0887624
-0.0970989
-0.160932
-0.145827
-0.176127
-0.196992
-0.0916627
-0.0182428
0.207944
0.239366
0.124207
0.0762825
0.0614305
-0.0266345
0.00636549
0.0655929
0.166596
0.0135524
0.0604102
0.159113
0.0925615
0.0282167
0.0325765
0.121923
0.0948655
-0.0219297
-0.0289462
-0.0355315
-0.00145385
-0.0148644
-0.0580951
-0.0803978
-0.128141
-0.157161
-0.134016
-0.15816
-0.145227
-0.128608
-0.0846017
-0.0057536
-0.011294
-0.0371449
-0.0282488
0.0339659
-0.0102381
0.0332494
0.0728557
0.0626143
0.0615579
0.0660622
0.121086
0.166011
0.190417
0.03138
-0.10048
-0.21993
-0.221721
-0.166764
-0.051076
-0.0607425
-0.194851
-0.284172
-0.187187
-0.0827678
-0.157281
-0.18997
-0.212133
-0.00894067
0.0179877
-0.0649535
-0.123513
0.014141
0.0993461
0.0794314
0.0759293
0.0256219
-0.0236967
-0.0604196
0.0261848
0.0237829
-0.0191259
0.0369999
0.131592
0.165549
0.147799
0.125801
0.136896
0.238104
0.223714
-0.0296502
-0.0703997
-0.0523414
-0.0122802
0.0495866
0.0935095
0.00924449
-0.0491435
-0.0461778
-0.0894874
0.00976275
-0.0255432
-0.0970307
-0.168979
-0.120704
-0.094098
-0.0665673
-0.134648
-0.138797
0.060971
0.263119
0.180659
0.0832957
0.0436625
0.0157605
0.0587055
0.199634
0.236344
0.110498
0.0539507
0.1167
0.116275
0.0648025
0.0144801
0.0504925
0.0348643
-0.0643192
-0.0144754
0.0294776
0.0172486
-0.0253854
-0.0505694
-0.103811
-0.111066
-0.0536924
-0.024312
-0.168522
-0.176072
-0.105743
-0.0349055
0.0130987
-0.0193235
-0.0632106
-0.0455305
0.0326296
-0.0144642
-0.0102205
0.0468642
0.0462007
0.0700472
0.0728467
0.00457984
-0.00776726
0.00300105
-0.00692633
0.0898649
-0.0431084
-0.195637
-0.165897
-0.163564
-0.223965
-0.363284
-0.398379
-0.170756
-0.0535906
0.207245
0.178216
-0.0880159
-0.171832
-0.0685316
-0.121929
-0.11537
-0.126865
-0.0149269
0.144683
0.114648
-0.012484
0.0354488
-0.008032
-0.0479637
0.0625515
0.0269893
0.0726893
-0.0224288
-0.020936
0.145324
0.223019
0.208588
0.188803
0.0451549
-0.0157492
-0.0475103
0.00790257
0.0890381
0.0797472
0.0507437
0.119124
0.0239256
-0.0203641
-0.0414346
-0.0451877
-0.001374
-0.0535302
-0.0842339
-0.0558261
-0.061005
-0.0896556
-0.118027
-0.134928
0.0437944
0.194494
0.194174
0.151818
0.138821
0.144494
0.096264
0.026426
0.0790553
0.129775
0.0749657
0.113652
0.11859
0.0796513
0.0598943
0.0975867
0.0172098
0.0213202
0.0348042
8.91667e-05
0.0412518
-0.0089379
-0.0787321
-0.115946
-0.0605369
-0.093978
-0.100196
-0.1097
-0.106427
-0.0857386
-0.038184
0.0373244
0.0075617
-0.0163696
0.00685892
0.049573
-0.0768891
-0.0501558
-0.0112372
0.057314
0.043174
0.0335933
-0.0212273
-0.0554675
-0.0941864
-0.00989033
0.0915057
-0.0294635
-0.156535
-0.275051
-0.378323
-0.208858
-0.132915
-0.15095
-0.131473
-0.0964671
-0.150794
-0.117069
-0.0611822
-0.131757
-0.0915631
-0.158186
-0.0560252
0.0198481
0.0866374
0.0840942
0.142629
0.061255
0.00623608
-0.0547121
-0.146897
-0.129102
0.0119263
0.0646889
0.108241
0.161441
0.0137613
0.128412
0.239723
0.217717
0.0847264
0.0115776
0.0324548
0.0897279
0.0996101
0.114047
0.0976469
-0.00934912
-0.0518092
0.00597765
-0.0144743
0.0274459
0.125098
-0.00530877
-0.132353
-0.119746
-0.0320272
-0.115647
-0.159732
-0.0376393
0.123199
0.0430223
0.13778
0.218729
0.209105
0.179216
0.0672977
0.0968298
0.166615
0.161533
0.148706
0.0635111
0.0642861
0.093085
0.123445
0.0504074
0.0082822
0.015558
0.0513592
0.0417295
-0.0202393
-0.0449562
-0.0240114
-0.0204019
0.00429024
-0.119272
-0.124331
-0.040697
-0.050035
-0.0710197
-0.0348601
0.0249742
0.0373841
0.0384174
0.00325165
0.00899814
-0.033865
-0.0124314
0.0902804
-0.0876545
-0.0534114
-0.0907043
-0.0657931
-0.00789877
-0.0370791
-0.0462635
-0.105317
-0.163185
-0.187455
-0.209116
-0.230068
-0.235457
-0.22975
-0.13914
-0.238276
-0.151086
0.111399
0.063295
0.0407015
0.0412071
-0.142012
-0.224804
-0.14894
-0.0643869
-0.000893936
0.0548589
0.10148
0.028876
-0.11536
-0.0585922
-0.0315685
0.00126953
0.0815847
0.0672159
0.0806861
0.144475
0.081214
0.0695798
0.10808
0.161929
0.0756165
-0.00393408
0.0817921
0.13821
0.0488983
0.0577477
0.109101
0.0422144
0.000917116
0.0306041
0.0358495
0.0761623
0.1023
0.0285562
0.0301608
-0.000659477
-0.090791
-0.132873
-0.106804
-0.0683682
0.0392595
0.134801
0.145422
0.152553
0.182862
0.188988
0.169242
0.165393
0.0800777
0.129555
0.116036
0.117867
0.119099
0.0899522
0.11602
0.0357061
0.0181968
0.130276
0.0741065
0.00818036
-0.0276542
-0.0192283
-0.0477731
-0.005683
-0.021691
-0.0408052
-0.0403084
-0.0701181
-0.0637188
-0.02252
0.0242068
0.0375756
0.0720259
0.0269039
-0.0195782
0.00968747
-0.0939349
-0.106491
-0.0130035
-0.103766
-0.144026
0.0163521
-0.0570166
0.060062
-0.0211037
-0.125543
-0.180652
-0.14017
-0.15901
-0.174105
-0.185721
-0.296355
-0.366031
-0.170988
0.000574359
-0.0194409
-0.0524312
-0.225153
-0.205213
0.0238891
0.00856803
-0.0527482
-0.0607653
-0.0406642
0.0143074
0.00794285
0.116707
0.0867998
-0.029066
-0.0695689
-0.104191
-0.0632616
0.0422526
0.0790721
0.124793
0.196301
0.101955
-0.0592316
-0.0104521
0.0430367
0.0459729
0.138983
0.211471
0.172595
0.104894
0.084509
0.082177
0.00748248
0.0185959
0.0743719
0.124037
0.172459
0.110481
0.00593419
-0.0360549
-0.0854702
-0.126335
-0.0999161
-0.0407338
-0.0204796
0.145574
0.183079
0.15626
0.170605
0.144889
0.0812314
0.117702
0.152142
0.178963
0.168538
0.156794
0.0869596
0.107412
0.148774
0.107947
0.0419966
0.0545796
0.0634856
0.0176648
0.000820381
-0.0184547
0.0320424
0.0598718
0.0408156
0.0447396
0.0464681
-0.00682783
-0.105362
-0.0865181
-0.0284264
0.007331
0.0541369
0.0802013
0.0564409
-0.0316515
0.00904106
-0.0775122
-0.113353
-0.0929407
-0.0692939
-0.0295845
-0.00520086
-0.149259
-0.0800398
-0.0999943
-0.101562
-0.100076
-0.154722
-0.175013
-0.197283
-0.311292
-0.344384
-0.204158
-0.0488334
-0.0335637
-0.066425
-0.0155651
-0.151229
-0.168367
-0.101625
-0.0720947
-0.0624447
-0.0591162
-0.0352394
0.0102857
-0.0243688
0.0638817
0.038275
0.0650683
0.0166551
-0.0229638
-0.0760557
-0.0532626
0.0941574
0.149033
0.220834
0.145326
0.0359014
0.0345761
0.0375271
0.00744974
0.144424
0.112982
0.0191589
0.0566288
0.0650452
0.0453599
0.0937426
0.137447
0.126881
0.0736904
0.153409
0.171826
0.187961
-0.0136698
-0.0913359
-0.061788
-0.00986614
0.0251746
-0.00328397
0.0316578
0.0661117
0.190679
0.210409
0.103979
0.0679521
0.089886
0.115777
0.162493
0.186165
0.115751
0.0963732
0.135115
0.162072
0.15674
0.170174
0.115825
0.0471182
0.043559
0.0448217
-0.0346038
-0.0135261
0.0355328
0.0732973
0.0732419
0.0519028
-0.0372149
-0.0819563
-0.0433299
0.0484834
0.0906927
0.0459676
-0.0313623
0.0209557
0.0387408
0.0297904
-0.124368
-0.0849668
-0.112407
-0.170302
-0.103039
-0.100733
-0.13858
-0.0713075
-0.0987743
-0.0516808
-0.116811
-0.154202
-0.164111
-0.23182
-0.28257
-0.297504
-0.15431
-0.0426288
-0.12156
-0.15402
-0.150344
-0.172744
-0.0212173
0.0457279
-0.0509354
-0.117039
-0.083677
-0.0131235
0.0552706
0.00143197
0.0792288
0.0888206
0.0329929
-0.0835488
-0.0847846
-0.0716471
0.0448159
0.0687023
0.103858
0.156669
0.159512
0.120386
0.0186587
-0.0361347
0.00521606
0.0230567
0.112696
0.299278
0.179288
-0.00336982
0.0498543
0.118858
0.122244
0.170168
0.162685
0.150442
0.127487
-0.0307564
-0.0723601
0.0432659
0.0850765
0.0492804
0.0333562
-0.0187868
0.0104661
0.0589856
0.143693
0.150138
0.103302
0.105555
0.11577
0.121856
0.138186
0.11678
0.0858617
0.0674694
0.179235
0.14854
0.193561
0.109889
0.162245
0.173213
0.076655
-0.0350085
-0.0660175
0.05031
0.124772
0.0739338
0.0613989
0.0875877
0.00962801
-0.0143863
-0.04949
0.00234334
0.0361267
0.0648101
0.0495533
0.0369389
0.0486268
0.0200105
-0.169706
-0.130498
-0.0637615
-0.15361
-0.1303
-0.100079
-0.104999
-0.0641452
-0.109174
-0.16285
-0.124108
-0.112227
-0.13701
-0.151192
-0.322701
-0.291586
-0.151979
-0.19307
-0.173886
-0.130882
-0.0851124
-0.111692
-0.0980812
-0.0776928
-0.0225248
0.0103196
-0.00926992
-0.0107166
0.0257741
0.0249167
0.0295158
0.0560121
0.116738
-0.0670741
-0.0615088
-0.0506406
0.0252115
0.182701
0.126102
0.0889847
0.0914124
0.0298744
0.0857096
0.0164287
0.0319186
0.0684298
0.102627
0.110642
0.0606023
0.155653
0.174426
0.08908
0.0643439
0.138776
0.182701
0.1722
0.181952
0.103663
-0.0342678
-0.00137777
0.0864683
0.0693868
0.0607925
0.00338566
0.0713999
0.0762373
0.138287
0.101769
0.120194
0.0915993
0.0693816
0.0912569
0.0975791
0.0630412
0.0982437
0.17205
0.187797
0.213429
0.211041
0.103207
0.120023
0.0800017
0.0551075
0.058789
0.0285404
0.0255195
0.0876353
0.0712423
0.105423
0.121423
0.0659389
-0.0341853
-0.0668976
0.0183007
0.0497089
0.0783007
0.0603816
0.0523865
0.0120282
0.0076908
-0.19427
-0.16106
-0.159242
-0.156791
-0.143519
-0.0689021
-0.0911
-0.106381
-0.119101
-0.103782
-0.0896771
-0.0856819
-0.115465
-0.192574
-0.263979
-0.359879
-0.219961
-0.0868562
-0.124945
-0.170983
-0.137222
-0.112671
-0.0937793
-0.0786221
-0.0740891
0.0689539
0.0443261
0.0725752
-0.00319467
-0.0493234
-0.0274346
0.0498832
0.0805863
0.0939618
-0.00268921
-0.0773812
-0.0745241
0.0561694
0.145124
0.179283
0.0999169
0.0163439
0.0509138
0.0249394
0.0249733
0.0714862
0.0850763
0.132594
0.193384
0.214882
0.140245
0.0142682
0.033655
0.141683
0.160265
0.168488
0.15936
0.228608
0.0857467
0.00218206
0.00368983
0.033765
0.168017
0.0828196
-0.0185854
-0.0414886
0.0841339
0.105885
0.0932374
0.106621
0.117768
0.0835089
0.0580508
0.0123558
0.105939
0.142364
0.118988
0.20454
0.224319
0.207109
0.160338
0.0229106
0.0178022
0.00478079
0.0733679
0.0502082
0.0559665
0.0913181
0.10937
0.135067
0.144591
0.0705198
-0.040317
-0.0125211
0.06827
0.0837991
0.0590498
0.0558643
-0.071217
-0.0424342
-0.187484
-0.196921
-0.151417
-0.0976715
-0.10414
-0.0885086
-0.182917
-0.146703
-0.0849908
-0.115917
-0.0776571
-0.105101
-0.096639
-0.112092
-0.240216
-0.24477
-0.134737
-0.164154
-0.226792
-0.243853
-0.131116
0.0125889
-0.0090798
-0.108088
-0.188562
-0.15625
0.044365
0.252782
0.148249
0.0697927
0.114605
0.0822446
0.0134284
-0.0186381
-0.188714
-0.0694458
0.0491651
0.113167
0.128934
0.135768
-1.31433e-05
-0.0417597
-0.030093
-0.033464
0.0305654
0.120069
0.16668
0.0877909
0.140241
0.149839
0.220223
0.108498
0.0821933
0.146616
0.109563
0.138652
0.19022
0.0928241
0.0259226
0.0410549
0.159486
0.167465
0.156462
-0.00711228
-0.0196744
0.0414706
0.0993108
0.135192
0.112458
0.0335318
0.0551208
-0.0200263
0.0425726
0.0669325
0.161869
0.160571
0.1788
0.169682
0.168402
0.114862
0.0685076
0.0599541
0.0958197
0.0660247
0.0774017
0.0666312
0.0686628
0.133877
0.166198
0.107737
0.0678278
0.0150455
0.0287293
0.0171079
0.063295
0.0910015
0.0596667
0.0362982
0.0385048
-0.00495491
-0.210393
-0.193805
-0.199267
-0.17397
-0.160427
-0.108219
-0.107855
-0.0432392
-0.0480167
-0.110142
-0.0815946
-0.0948406
-0.0774924
-0.110312
-0.213424
-0.148325
-0.125645
-0.128657
-0.130193
-0.203021
-0.15184
-0.155442
-0.0969653
-0.0481416
0.0402156
0.0765835
-0.0204639
-0.00806305
0.0140443
0.109817
0.0837442
-0.00559433
0.0652076
0.0493895
-0.0418918
-0.034472
0.0296296
-0.00104305
0.00914392
-0.0185365
0.061722
0.0556197
0.00386748
0.0119723
0.0662815
0.0495886
0.169314
0.178085
0.106453
0.106986
0.161233
0.0920146
0.133526
0.170164
0.130314
0.132629
0.153376
0.0707295
0.0763025
0.0900324
0.0744847
0.0998651
0.128431
0.0738151
0.0483294
-0.00653463
-0.00473637
0.0709779
0.118635
0.0598584
-0.0206762
0.0136459
0.107016
0.162777
0.137219
0.103831
0.116563
0.121257
0.15143
0.192546
0.10503
0.0478972
-0.0141049
-0.0371563
0.0648381
0.151112
0.14629
0.111758
0.124443
0.11806
0.121979
0.101091
0.138684
0.0889625
-0.0577761
-0.0619654
0.00462892
0.0767502
0.0844293
0.00203122
-0.22837
-0.2225
-0.0749474
-0.105625
-0.0928128
-0.0700413
-0.159991
-0.156787
-0.0664069
-0.0422311
-0.0428001
-0.12624
-0.0453342
-0.0590858
-0.208785
-0.258838
-0.168257
-0.114295
-0.127997
-0.15533
-0.0822579
-0.0163059
-0.0500531
-0.0579805
0.00625796
-0.0246668
-0.0858153
0.0431941
0.19068
0.0888216
-0.0692451
0.022349
0.10456
0.0250214
0.0150994
-0.00250485
0.0356038
0.0115669
0.0292693
-0.0216399
-0.0093716
0.0256798
0.0210381
0.0200465
0.0656784
0.0531561
0.0922393
0.178442
0.118413
0.0599239
0.101503
0.0578785
0.128753
0.135102
0.0967749
0.204468
0.137071
0.0384444
0.100206
0.18255
0.166792
0.185521
0.115801
0.0677134
-0.015537
-0.16961
0.00209803
0.0871023
0.237054
0.143762
-0.0822512
-0.0819962
0.0508791
0.133168
0.0989116
0.0540728
0.106347
0.128703
0.175935
0.129597
0.126334
0.0449837
0.0149862
0.0968433
0.10118
0.062265
0.134914
0.13251
0.0141746
0.0707731
0.130556
0.103181
0.102725
0.126124
0.00732768
-0.0359976
-0.0287139
0.0744472
0.0757594
0.00552966
-0.259038
-0.297473
-0.00496489
-0.0456598
-0.243495
-0.147295
-0.120891
-0.14622
-0.122898
0.00349263
0.0831033
-0.0233722
-0.101674
-0.0670499
-0.0566146
-0.0617179
-0.119525
-0.0740361
-0.113481
-0.157512
-0.125742
-0.00372364
-0.0113507
0.0458232
0.0369039
0.0486882
0.0457873
-0.0118753
-0.0870762
-0.037684
0.0517682
0.0821869
0.073931
0.0345413
0.0760499
0.0614779
-0.0212615
-0.0179636
-0.0359356
-0.0480712
0.0149419
0.0351646
-0.026521
0.050345
0.106796
-0.0118322
0.0145904
0.095631
0.161697
0.0932133
0.0866574
0.13644
0.125019
0.18869
0.255417
0.121666
0.055601
0.0543545
0.16694
0.158733
0.109422
0.0978399
0.0206264
0.0610645
0.0347846
0.00621113
-0.0313921
-0.0138878
0.100275
0.006187
-0.0821052
0.00488598
0.031355
0.0224378
0.0684995
0.136706
0.109287
0.0815933
0.201715
0.177202
0.0739061
-0.0559059
-0.0853225
0.0544574
0.13626
0.103753
0.176991
0.132672
0.0567477
0.0991031
0.19146
0.138436
0.0648158
0.0350694
-0.016626
-0.0452717
0.0212162
0.031127
0.00460557
0.025146
-0.209659
-0.175367
-0.0974662
-0.137545
-0.0830082
-0.0951942
-0.15346
-0.104489
-0.125202
-0.0482152
-0.0143104
-0.0809405
-0.0648163
-0.0378859
-0.0573762
-0.0459528
-0.0827475
-0.135365
-0.181641
-0.139985
0.00538911
0.115572
0.0111727
0.0379569
0.0303849
0.0334967
0.020962
-0.0192568
-0.0153926
-0.0247484
0.0837972
0.137096
0.0455773
-0.0361302
-0.0677455
0.0594111
0.0677329
0.0135395
-0.0650383
-0.00834803
0.012578
0.0468261
0.0396655
0.0382334
0.0135877
-0.0137743
0.0629067
0.0930734
0.0495902
0.0299418
0.107968
0.0669749
0.141461
0.144025
0.172433
0.189133
0.165418
0.151567
0.126121
0.088859
0.0413968
0.107412
0.128187
0.128208
0.0799633
-0.00631357
-0.0577359
-0.0789302
-0.0392389
-0.00260103
0.0267026
-0.0183899
-0.0145394
-0.0469602
0.0296263
0.0237094
0.0279976
0.110509
0.248476
0.223461
0.151453
0.0357494
-0.0511903
-0.00752895
0.0641536
0.127864
0.147381
0.114952
0.110422
0.0322557
0.0916534
0.152706
0.106699
0.0872259
0.00998885
-0.0141722
-0.00228233
0.0210219
0.0269859
-0.0208897
-0.239424
-0.173396
-0.184149
-0.194935
-0.111499
0.00987922
0.042527
-0.0195016
-0.0517764
-0.103434
-0.101584
-0.159376
-0.0981251
-0.068169
0.0100382
0.0860864
-0.0242817
-0.240994
-0.108751
0.0816707
0.185155
0.15084
-0.0598235
-0.0333104
0.00608943
0.0371455
0.0643989
0.0401293
-0.00921116
-0.00105755
0.020495
0.074815
0.152324
0.140846
0.015118
-0.0621023
-0.0928297
-0.0977971
-0.095187
-0.118421
-0.0327549
0.081577
0.0471172
0.0693819
0.0619364
0.0454295
-0.024653
-0.029031
0.0268471
0.0633715
0.142196
0.076474
0.100577
0.086919
0.151485
0.158202
0.205405
0.244252
0.194624
0.089567
0.045194
0.0672575
0.0641392
0.0119166
0.00598863
0.0212297
0.0849156
-0.0162697
-0.0694667
-0.179067
-0.11798
-0.0402605
0.0579208
0.0369897
0.013126
0.0254986
-0.00905311
0.0909203
0.0890907
0.147771
0.100739
0.0301741
-0.0255237
-0.00758739
0.0684386
0.123275
0.0958323
0.107302
0.146028
0.0645423
0.0668306
0.147112
0.118865
0.0645033
0.0208893
-0.0223628
0.00252481
0.0585485
0.0303079
-0.00130873
-0.145523
-0.167378
-0.173226
-0.136505
-0.100824
-0.00460837
-0.0297545
0.0166564
0.00288517
-0.0873072
-0.1553
-0.0984864
-0.0023469
-0.030946
-0.0590632
0.0118965
-0.0421206
0.0117711
0.0187926
-0.0617615
0.00729953
0.0512196
0.0435889
0.0939369
0.121557
0.0931333
0.0152859
0.0241408
0.0220907
0.0294191
0.0424931
0.0910261
0.0374001
0.013333
-0.0370976
-0.0813159
-0.0833043
-0.0814886
-0.0583276
0.00334535
0.0429589
0.062363
0.0261747
0.00697112
-0.0072617
-0.0168271
-0.0657132
-0.0379242
0.0654605
0.0615266
-0.00747478
-0.0380414
0.15501
0.260344
0.229053
0.164424
0.139355
0.13011
0.130561
0.0655485
0.0898414
0.0910888
0.0776145
-0.0994277
-0.0722878
0.114743
0.143803
-0.0204499
-0.132595
-0.147857
-0.131191
-0.0354647
0.0179486
0.0215475
-0.0632931
-0.100205
-0.0807233
0.0469826
0.161946
0.192348
0.129232
0.0406921
-0.0467462
-0.00377615
0.121739
0.125402
0.0853198
0.146464
0.0771834
-0.00644429
0.0833744
0.14219
0.0873795
0.0502897
-0.00507968
0.0138937
0.0458139
0.0332046
0.0700256
0.030833
-0.134468
-0.138996
-0.126392
-0.0841115
-0.0457496
-0.0871234
-0.13179
-0.0548573
0.0456318
0.015565
-0.0389927
-0.0350198
-0.0589642
-0.0747364
-0.100142
-0.0196738
0.0568697
-0.00192628
-0.0101631
0.0491131
0.0665085
0.128843
0.12865
0.186364
0.103391
0.0300474
0.0204246
-0.0130974
0.0698493
0.175009
0.0736769
0.00209848
0.0232502
-0.00372275
-0.0905064
-0.0822
-0.123652
-0.199333
-0.116482
-0.0806782
0.0293389
0.0740157
0.0892696
0.0528373
0.00389174
-0.00158567
-0.0454905
-0.115244
0.0135655
0.0301718
0.00474129
-0.0347439
0.0426153
0.0959818
0.21277
0.289582
0.213476
0.141823
0.101313
0.0745417
0.058648
0.0354037
0.116328
0.02036
-0.0676757
-0.0793306
-0.0461021
-0.00652289
-0.0394577
-0.160633
-0.175448
-0.0242817
0.0367528
0.0342222
-0.0838796
-0.195554
-0.10874
0.104559
0.143908
0.119025
-0.0293459
-0.0178767
-0.0123264
0.0356584
0.122244
0.100728
0.0690213
0.135292
0.0684452
0.011332
0.0257892
0.119378
0.079405
0.0953761
0.0905455
0.0836537
0.0973386
0.0376715
0.0221133
-0.00401821
-0.155344
-0.158898
-0.117631
-0.0905117
-0.0552552
-0.0276588