/*--------------------------------*- C++ -*----------------------------------*\
| =========                 |                                                 |
| \\      /  F ield         | OpenFOAM: The Open Source CFD Toolbox           |
|  \\    /   O peration     | Version:  v2012                                 |
|   \\  /    A nd           | Website:  www.openfoam.com                      |
|    \\/     M anipulation  |                                                 |
\*---------------------------------------------------------------------------*/
FoamFile
{
    version     2.0;
    format      ascii;
    class       volVectorField;
    location    "0";
    object      uRec;
}
// * * * * * * * * * * * * * * * * * * * * * * * * * * * * * * * * * * * * * //

dimensions      [0 1 -1 0 0 0 0];


internalField   nonuniform List<vector> 
4000
(
(1 -2.52426e-16 0)
(1 2.56809e-15 0)
(1 1.89169e-15 0)
(1 9.96467e-17 0)
(1 -5.69506e-17 0)
(1 -6.60332e-16 0)
(1 9.68034e-17 0)
(1 -6.55612e-16 0)
(1 -2.26335e-15 0)
(1 7.67523e-16 0)
(1 1.34184e-15 0)
(1 1.30149e-16 0)
(1 5.16969e-16 0)
(1 -1.31899e-16 0)
(1 1.68922e-15 0)
(1 -2.31786e-15 0)
(1 -2.41164e-15 0)
(1 -1.5912e-15 0)
(1 -1.80251e-16 0)
(1 -2.01233e-15 0)
(1 -2.49445e-15 0)
(1 -1.16294e-15 0)
(1 2.26459e-15 0)
(1 1.33262e-15 0)
(1 2.73398e-15 0)
(1 7.13786e-16 0)
(1 1.54233e-15 0)
(1 -1.98647e-16 0)
(1 -7.77514e-16 0)
(1 -1.04084e-16 0)
(1 -1.19196e-15 0)
(1 -2.09509e-15 0)
(1 -1.86418e-15 0)
(1 -2.55968e-16 0)
(1 1.82927e-15 0)
(1 1.70344e-15 0)
(1 2.96243e-15 0)
(1 1.37627e-15 0)
(1 2.19435e-15 0)
(1 1.2393e-16 0)
(1 -2.321e-16 0)
(1 -1.56874e-15 0)
(1 -7.03733e-17 0)
(1 -1.69491e-15 0)
(1 -4.99068e-16 0)
(1 -3.46187e-16 0)
(1 -6.58242e-16 0)
(1 -7.10867e-17 0)
(1 -2.11474e-16 0)
(1 1.48357e-15 0)
(1 1.93653e-16 0)
(1 1.81816e-15 0)
(1 4.12647e-16 0)
(1 5.56989e-16 0)
(1 -8.82304e-16 0)
(1 -1.28152e-15 0)
(1 -1.72548e-15 0)
(1 7.14757e-16 0)
(1 1.32677e-15 0)
(1 3.42015e-15 0)
(1 1.72846e-15 0)
(1 8.09939e-17 0)
(1 1.1228e-15 0)
(1 3.42977e-16 0)
(1 -3.52543e-16 0)
(1 -1.30266e-15 0)
(1 1.38904e-16 0)
(1 -1.62466e-16 0)
(1 8.56773e-17 0)
(1 -5.96962e-16 0)
(1 -1.10003e-15 0)
(1 -4.92709e-16 0)
(1 1.12511e-16 0)
(1 -1.81047e-15 0)
(1 -1.50549e-15 0)
(1 -1.05126e-15 0)
(1 -3.1418e-16 0)
(1 -7.66406e-17 0)
(1 7.14242e-16 0)
(1 1.84829e-15 0)
(1 7.12415e-16 0)
(1 1.10664e-16 0)
(1 -1.21423e-16 0)
(1 -6.43839e-16 0)
(1 -1.74578e-15 0)
(1 -8.20731e-16 0)
(1 -2.08398e-15 0)
(1 4.9782e-16 0)
(1 2.15211e-15 0)
(1 1.33246e-15 0)
(1 2.58792e-17 0)
(1 -7.56258e-17 0)
(1 -1.14649e-15 0)
(1 -2.03572e-16 0)
(1 -1.46087e-15 0)
(1 -1.91955e-15 0)
(1 -1.2712e-15 0)
(1 9.89167e-16 0)
(1 1.24904e-15 0)
(1 1.73968e-16 0)
(1 2.55411e-16 0)
(1 3.20958e-15 0)
(1 2.6642e-15 0)
(1 -9.69624e-16 0)
(1 -7.49409e-17 0)
(1 -1.7455e-15 0)
(1 -2.8901e-16 0)
(1 -1.37658e-15 0)
(1 -1.56617e-15 0)
(1 -4.39465e-16 0)
(1 1.1863e-15 0)
(1 1.51965e-15 0)
(1 2.62169e-15 0)
(1 1.64357e-15 0)
(1 1.74024e-15 0)
(1 -3.9641e-15 0)
(1 -4.30364e-15 0)
(1 -3.56166e-16 0)
(1 6.4569e-16 0)
(1 -2.04237e-15 0)
(1 -3.28218e-15 0)
(1 -1.66995e-15 0)
(1 7.86002e-16 0)
(1 9.36696e-16 0)
(1 1.93128e-15 0)
(1 -1.85698e-16 0)
(1 2.28149e-16 0)
(1 -1.35224e-15 0)
(1 -6.68795e-16 0)
(1 6.26644e-16 0)
(1 7.49287e-16 0)
(1 -7.23935e-16 0)
(1 1.02326e-16 0)
(1 -1.57575e-15 0)
(1 9.14031e-17 0)
(1 -2.19107e-16 0)
(1 1.57545e-15 0)
(1 1.10398e-15 0)
(1 2.04592e-15 0)
(1 5.56505e-16 0)
(1 -1.11902e-15 0)
(1 -6.43567e-16 0)
(1 -9.86278e-16 0)
(1 -2.95633e-15 0)
(1 -8.81257e-16 0)
(1 -2.48942e-15 0)
(1 4.68408e-16 0)
(1 5.46107e-16 0)
(1 1.90511e-15 0)
(1 -1.61338e-15 0)
(1 -1.49167e-15 0)
(1 -4.82222e-16 0)
(1 2.59123e-15 0)
(1 2.38977e-15 0)
(1 2.54053e-15 0)
(1 1.72402e-15 0)
(1 1.28207e-16 0)
(1 1.25849e-15 0)
(1 -7.70335e-16 0)
(1 -8.46239e-16 0)
(1 -2.25275e-15 0)
(1 -6.25191e-16 0)
(1 1.08526e-15 0)
(1 1.34686e-15 0)
(1 3.0197e-16 0)
(1 -8.20378e-16 0)
(1 -1.19263e-15 0)
(1 -9.43647e-16 0)
(1 -8.47823e-16 0)
(1 -5.90029e-16 0)
(1 -1.00969e-16 0)
(1 1.49132e-15 0)
(1 1.48361e-15 0)
(1 -1.18431e-15 0)
(1 -7.29943e-16 0)
(1 5.54103e-17 0)
(1 4.54201e-16 0)
(1 1.36957e-15 0)
(1 1.8959e-15 0)
(1 1.9379e-15 0)
(1 4.76371e-16 0)
(1 -2.6633e-15 0)
(1 5.73407e-16 0)
(1 -6.88891e-17 0)
(1 4.17284e-17 0)
(1 2.50845e-16 0)
(1 -1.40097e-15 0)
(1 -2.62847e-15 0)
(1 -6.65385e-16 0)
(1 -6.99221e-16 0)
(1 -5.28279e-16 0)
(1 -1.06227e-15 0)
(1 -1.41501e-15 0)
(1 -6.36228e-16 0)
(1 -2.69507e-15 0)
(1 -1.68293e-15 0)
(1 -1.08436e-15 0)
(1 2.14373e-15 0)
(1 6.96235e-16 0)
(1 -4.91802e-17 0)
(1 4.19204e-16 0)
(1 2.76857e-16 0)
(1 -1.19443e-16 0)
(1 1.36147e-16 0)
(1 1.72414e-15 0)
(1 7.92175e-16 0)
(1 1.25354e-15 0)
(1 9.46042e-16 0)
(1 -2.53548e-16 0)
(1 -8.54742e-16 0)
(1 -3.39423e-16 0)
(1 1.06232e-15 0)
(1 3.41124e-15 0)
(1 2.81813e-15 0)
(1 5.23902e-16 0)
(1 -2.62013e-15 0)
(1 -3.44917e-15 0)
(1 -1.68319e-15 0)
(1 -5.54918e-16 0)
(1 7.30697e-16 0)
(1 -1.50206e-15 0)
(1 5.09956e-16 0)
(1 -9.97383e-16 0)
(1 1.93653e-15 0)
(1 2.25132e-15 0)
(1 2.31665e-15 0)
(1 2.03349e-15 0)
(1 6.57569e-16 0)
(1 7.62597e-16 0)
(1 6.79306e-17 0)
(1 1.97748e-15 0)
(1 -1.4718e-15 0)
(1 3.39349e-17 0)
(1 -2.49422e-15 0)
(1 -8.1134e-16 0)
(1 -2.01386e-15 0)
(1 -7.99588e-16 0)
(1 -2.40479e-16 0)
(1 2.51531e-16 0)
(1 9.14692e-16 0)
(1 -1.00624e-15 0)
(1 -5.41035e-16 0)
(1 -2.35185e-15 0)
(1 -3.10481e-15 0)
(1 -1.29143e-15 0)
(1 -1.5405e-15 0)
(1 -4.65548e-16 0)
(1 -6.08729e-16 0)
(1 1.37464e-15 0)
(1 1.51014e-16 0)
(1 3.37605e-16 0)
(1 5.61838e-16 0)
(1 3.91483e-15 0)
(1 2.17319e-15 0)
(1 3.62387e-15 0)
(1 1.52953e-15 0)
(1 7.53405e-16 0)
(1 -1.44682e-15 0)
(1 -1.74344e-15 0)
(1 -2.42441e-15 0)
(1 -1.0454e-16 0)
(1 5.20254e-16 0)
(1 1.10618e-15 0)
(1 4.4345e-16 0)
(1 -4.33661e-16 0)
(1 1.41242e-16 0)
(1 -1.08273e-15 0)
(1 -1.66847e-16 0)
(1 -8.76572e-16 0)
(1 4.25356e-16 0)
(1 3.40775e-16 0)
(1 1.4193e-15 0)
(1 1.40598e-15 0)
(1 1.01296e-16 0)
(1 -1.27406e-15 0)
(1 -7.68111e-16 0)
(1 -3.95033e-16 0)
(1 1.43872e-16 0)
(1 6.40352e-16 0)
(1 -1.47532e-16 0)
(1 -1.96559e-15 0)
(1 -2.89357e-15 0)
(1 -1.78302e-15 0)
(1 -3.70437e-16 0)
(1 4.4476e-16 0)
(1 -1.20433e-16 0)
(1 5.27906e-17 0)
(1 -3.50704e-15 0)
(1 -2.24648e-15 0)
(1 -1.07451e-15 0)
(1 -6.9711e-16 0)
(1 -1.26214e-15 0)
(1 -1.30987e-15 0)
(1 -8.82068e-16 0)
(1 -9.01205e-16 0)
(1 -1.3857e-15 0)
(1 -8.64739e-16 0)
(1 -3.20886e-16 0)
(1 -5.18942e-16 0)
(1 1.61805e-16 0)
(1 1.12179e-15 0)
(1 -9.04191e-16 0)
(1 5.0637e-16 0)
(1 -1.72846e-16 0)
(1 8.11942e-16 0)
(1 1.34076e-15 0)
(1 1.17697e-15 0)
(1 6.90414e-17 0)
(1 3.66202e-16 0)
(1 -7.01915e-16 0)
(1 2.27699e-15 0)
(1 3.4022e-15 0)
(1 3.90386e-15 0)
(1 4.00434e-16 0)
(1 4.5698e-16 0)
(1 9.39664e-17 0)
(1 -1.77044e-15 0)
(1 -5.49967e-15 0)
(1 -4.88828e-15 0)
(1 7.93184e-16 0)
(1 -1.93671e-16 0)
(1 7.25222e-16 0)
(1 1.40783e-15 0)
(1 3.33675e-15 0)
(1 1.95155e-15 0)
(1 4.37846e-15 0)
(1 2.40781e-15 0)
(1 4.60046e-15 0)
(1 1.01061e-15 0)
(1 8.29426e-16 0)
(1 -1.23486e-15 0)
(1 -2.39121e-15 0)
(1 -2.46173e-15 0)
(1 -5.64718e-16 0)
(1 1.07762e-15 0)
(1 -3.59009e-16 0)
(1 6.35363e-16 0)
(1 6.2319e-17 0)
(1 4.88586e-16 0)
(1 1.28364e-16 0)
(1 -4.76871e-16 0)
(1 -2.70197e-15 0)
(1 -2.27198e-15 0)
(1 -2.54744e-15 0)
(1 -2.21446e-15 0)
(1 1.14431e-15 0)
(1 7.52502e-16 0)
(1 8.48675e-17 0)
(1 9.60014e-16 0)
(1 3.23974e-15 0)
(1 1.05333e-15 0)
(1 1.02319e-15 0)
(1 8.50983e-16 0)
(1 1.01971e-15 0)
(1 7.19298e-16 0)
(1 -9.10272e-17 0)
(1 -6.15589e-16 0)
(1 -1.71021e-15 0)
(1 -1.23056e-15 0)
(1 1.16365e-15 0)
(1 1.03386e-15 0)
(1 1.67135e-15 0)
(1 7.48374e-16 0)
(1 8.20091e-16 0)
(1 -1.13749e-15 0)
(1 -8.76464e-16 0)
(1 -2.46258e-15 0)
(1 -8.53248e-16 0)
(1 -1.04686e-15 0)
(1 1.05441e-16 0)
(1 9.85408e-17 0)
(1 1.42246e-15 0)
(1 2.69673e-16 0)
(1 -8.58509e-17 0)
(1 -1.99839e-15 0)
(1 -1.74302e-15 0)
(1 -1.45125e-16 0)
(1 -1.61899e-16 0)
(1 1.99388e-16 0)
(1 -3.00219e-16 0)
(1 1.21135e-16 0)
(1 -1.25769e-15 0)
(1 -1.127e-15 0)
(1 -1.40291e-15 0)
(1 -1.73282e-16 0)
(1 -1.4938e-16 0)
(1 6.56105e-16 0)
(1 -7.2025e-16 0)
(1 -2.22792e-16 0)
(1 -7.42176e-16 0)
(1 -1.29778e-15 0)
(1 -1.593e-15 0)
(1 -1.13348e-15 0)
(1 -8.80437e-16 0)
(1 -4.49356e-16 0)
(1 -1.89647e-15 0)
(1 -2.51357e-15 0)
(1 -2.63839e-15 0)
(1 -1.817e-15 0)
(1 1.25667e-16 0)
(1 1.86947e-15 0)
(1 -5.3785e-16 0)
(1 -9.7537e-16 0)
(1 -1.154e-15 0)
(1 5.44036e-16 0)
(1 2.51928e-16 0)
(1 3.59387e-17 0)
(1 -1.57313e-15 0)
(1 8.36484e-16 0)
(1 1.00723e-15 0)
(1 3.72852e-15 0)
(1 2.4865e-15 0)
(1 1.80343e-15 0)
(1 -3.12827e-15 0)
(1 1.13702e-15 0)
(1 3.25621e-16 0)
(1 5.79486e-16 0)
(1 -1.35546e-15 0)
(1 -1.76527e-15 0)
(1 -3.91441e-15 0)
(1 -9.61443e-16 0)
(1 -3.19459e-15 0)
(1 2.42799e-15 0)
(1 5.77961e-15 0)
(1 4.98658e-15 0)
(1 3.4589e-15 0)
(1 2.46769e-15 0)
(1 2.12344e-15 0)
(1 1.95017e-15 0)
(1 -6.68719e-16 0)
(1 -1.01432e-15 0)
(1 6.17772e-16 0)
(1 -6.53001e-16 0)
(1 -1.07723e-15 0)
(1 -3.60942e-15 0)
(1 -2.54367e-15 0)
(1 -2.341e-15 0)
(1 -1.42041e-15 0)
(1 -1.41904e-15 0)
(1 -4.97916e-16 0)
(1 -2.08512e-15 0)
(1 -9.16324e-16 0)
(1 -1.96745e-15 0)
(1 5.96991e-16 0)
(1 -1.73948e-15 0)
(1 3.57221e-16 0)
(1 2.20644e-15 0)
(1 1.32754e-15 0)
(1 1.16951e-15 0)
(1 -6.37562e-16 0)
(1 6.17901e-16 0)
(1 3.36749e-16 0)
(1 2.97222e-16 0)
(1 2.15257e-15 0)
(1 2.45601e-15 0)
(1 3.76654e-15 0)
(1 1.32191e-15 0)
(1 4.57873e-17 0)
(1 -1.6062e-15 0)
(1 -2.72481e-15 0)
(1 -2.19414e-15 0)
(1 -1.08005e-17 0)
(1 1.03296e-15 0)
(1 7.88319e-16 0)
(1 1.29918e-15 0)
(1 -4.19789e-16 0)
(1 -2.10967e-15 0)
(1 -1.57624e-15 0)
(1 4.33338e-16 0)
(1 -4.08881e-17 0)
(1 9.19221e-16 0)
(1 2.33351e-15 0)
(1 8.81953e-16 0)
(1 7.94455e-16 0)
(1 -5.83691e-17 0)
(1 -9.77345e-17 0)
(1 -2.74301e-16 0)
(1 2.20208e-15 0)
(1 2.44702e-15 0)
(1 -8.93439e-16 0)
(1 -5.61697e-17 0)
(1 -2.22395e-15 0)
(1 7.07053e-16 0)
(1 -1.06137e-15 0)
(1 2.82825e-16 0)
(1 -1.95859e-15 0)
(1 -1.41036e-15 0)
(1 -2.34561e-15 0)
(1 -2.8251e-15 0)
(1 -1.90111e-15 0)
(1 -1.3471e-15 0)
(1 -2.83987e-15 0)
(1 -8.07173e-16 0)
(1 -8.40649e-16 0)
(1 -8.31348e-16 0)
(1 -7.99289e-16 0)
(1 -1.24283e-15 0)
(1 -8.75139e-16 0)
(1 -1.73047e-15 0)
(1 -2.2664e-16 0)
(1 -6.00953e-16 0)
(1 -1.40876e-15 0)
(1 -1.72421e-15 0)
(1 -7.2542e-16 0)
(1 1.05589e-15 0)
(1 5.14411e-16 0)
(1 2.30512e-16 0)
(1 5.38295e-16 0)
(1 1.23486e-15 0)
(1 3.72096e-15 0)
(1 2.93696e-15 0)
(1 1.82431e-15 0)
(1 -1.17518e-16 0)
(1 -4.44644e-16 0)
(1 2.4051e-15 0)
(1 -9.07621e-16 0)
(1 -7.81451e-16 0)
(1 -2.76111e-15 0)
(1 -1.65539e-15 0)
(1 -1.42146e-15 0)
(1 1.58962e-15 0)
(1 2.17426e-15 0)
(1 3.22037e-15 0)
(1 1.75829e-15 0)
(1 9.24658e-16 0)
(1 1.61519e-15 0)
(1 3.68207e-15 0)
(1 -1.73223e-15 0)
(1 2.9122e-15 0)
(1 -4.73761e-16 0)
(1 -2.22553e-15 0)
(1 -2.28059e-15 0)
(1 -1.93923e-15 0)
(1 -3.01773e-17 0)
(1 -2.41356e-15 0)
(1 1.31168e-15 0)
(1 3.24458e-16 0)
(1 1.58064e-15 0)
(1 -7.92227e-16 0)
(1 -1.16238e-15 0)
(1 -1.0309e-15 0)
(1 -5.38944e-16 0)
(1 -4.2479e-16 0)
(1 3.78369e-16 0)
(1 -5.50146e-16 0)
(1 -1.91469e-15 0)
(1 -2.00537e-15 0)
(1 -1.78827e-17 0)
(1 1.71314e-15 0)
(1 2.98634e-15 0)
(1 3.50871e-15 0)
(1 1.35838e-15 0)
(1 3.73554e-16 0)
(1 1.59507e-15 0)
(1 2.45544e-15 0)
(1 1.77632e-15 0)
(1 9.96683e-16 0)
(1 1.13744e-15 0)
(1 1.63304e-15 0)
(1 6.63757e-16 0)
(1 2.842e-15 0)
(1 -1.58747e-16 0)
(1 -2.75428e-16 0)
(1 -1.42439e-15 0)
(1 7.77239e-16 0)
(1 8.24146e-16 0)
(1 3.24281e-15 0)
(1 4.44351e-15 0)
(1 4.88071e-15 0)
(1 4.49344e-15 0)
(1 1.81967e-15 0)
(1 2.73566e-16 0)
(1 1.40941e-15 0)
(1 -3.50701e-16 0)
(1 -2.78096e-15 0)
(1 -3.8513e-15 0)
(1 -2.53674e-15 0)
(1 1.45232e-15 0)
(1 2.07048e-15 0)
(1 9.41073e-16 0)
(1 -1.53652e-15 0)
(1 7.69134e-16 0)
(1 -1.38327e-15 0)
(1 -1.83477e-15 0)
(1 -1.61072e-15 0)
(1 -3.24176e-15 0)
(1 -2.13256e-15 0)
(1 -2.56514e-15 0)
(1 -3.05024e-15 0)
(1 -1.69217e-15 0)
(1 -2.70505e-15 0)
(1 -1.80044e-15 0)
(1 -7.59611e-16 0)
(1 3.40994e-16 0)
(1 8.91286e-16 0)
(1 1.16925e-15 0)
(1 1.41934e-15 0)
(1 1.50129e-15 0)
(1 2.24961e-15 0)
(1 1.47342e-15 0)
(1 -9.66769e-16 0)
(1 -1.13974e-15 0)
(1 3.14984e-15 0)
(1 8.43523e-16 0)
(1 3.12558e-16 0)
(1 -1.72157e-15 0)
(1 -3.93569e-15 0)
(1 -8.60178e-16 0)
(1 1.29506e-15 0)
(1 1.72406e-15 0)
(1 2.07032e-15 0)
(1 7.05602e-16 0)
(1 1.28632e-15 0)
(1 2.64691e-15 0)
(1 2.83192e-15 0)
(1 1.70665e-15 0)
(1 3.40649e-15 0)
(1 -1.96804e-15 0)
(1 1.23668e-15 0)
(1 2.93401e-15 0)
(1 2.7256e-15 0)
(1 -4.99875e-16 0)
(1 -9.0355e-16 0)
(1 -6.96539e-16 0)
(1 -3.00604e-15 0)
(1 -5.27234e-16 0)
(1 -9.87358e-16 0)
(1 1.29395e-16 0)
(1 1.26973e-15 0)
(1 3.23369e-15 0)
(1 5.24479e-16 0)
(1 -7.89003e-16 0)
(1 -2.59873e-15 0)
(1 -9.45928e-16 0)
(1 -4.61715e-16 0)
(1 4.66836e-16 0)
(1 3.10005e-15 0)
(1 1.63834e-15 0)
(1 4.77073e-16 0)
(1 -4.40127e-15 0)
(1 8.99385e-17 0)
(1 -1.93213e-15 0)
(1 2.59375e-15 0)
(1 1.21686e-15 0)
(1 -9.06204e-16 0)
(1 -3.28555e-15 0)
(1 -3.80038e-15 0)
(1 1.56844e-15 0)
(1 1.42949e-15 0)
(1 4.84047e-15 0)
(1 3.2701e-15 0)
(1 -1.38542e-16 0)
(1 1.55172e-16 0)
(1 1.1756e-15 0)
(1 1.67298e-15 0)
(1 7.3031e-16 0)
(1 -8.5744e-16 0)
(1 3.86866e-16 0)
(1 3.43606e-16 0)
(1 2.2104e-15 0)
(1 1.51291e-15 0)
(1 7.89606e-16 0)
(1 -1.76623e-16 0)
(1 -1.03648e-16 0)
(1 -9.00137e-16 0)
(1 -5.03365e-16 0)
(1 -2.60033e-16 0)
(1 2.16411e-15 0)
(1 1.80771e-15 0)
(1 1.48509e-15 0)
(1 9.09096e-16 0)
(1 -1.25209e-16 0)
(1 -1.5496e-16 0)
(1 6.20766e-16 0)
(1 2.04788e-15 0)
(1 7.50911e-16 0)
(1 2.65805e-15 0)
(1 1.1033e-15 0)
(1 1.24439e-15 0)
(1 1.56325e-15 0)
(1 1.11225e-16 0)
(1 3.06643e-16 0)
(1 -1.19383e-15 0)
(1 -1.62455e-15 0)
(1 -1.53654e-15 0)
(1 -1.06981e-15 0)
(1 -5.48526e-16 0)
(1 -1.18467e-15 0)
(1 -7.10934e-16 0)
(1 -1.89874e-15 0)
(1 -2.13772e-15 0)
(1 1.1321e-15 0)
(1 -1.35709e-16 0)
(1 8.7612e-16 0)
(1 5.57321e-16 0)
(1 1.61676e-15 0)
(1 1.5272e-15 0)
(1 1.58923e-15 0)
(1 2.34107e-15 0)
(1 2.39617e-15 0)
(1 -2.6968e-16 0)
(1 5.96517e-17 0)
(1 1.25421e-15 0)
(1 8.37495e-16 0)
(1 -9.89445e-16 0)
(1 -5.69748e-16 0)
(1 -2.41214e-15 0)
(1 -1.71173e-15 0)
(1 -1.12138e-16 0)
(1 1.39853e-15 0)
(1 -2.23008e-16 0)
(1 -1.53229e-15 0)
(1 1.26117e-15 0)
(1 4.46463e-15 0)
(1 1.19084e-15 0)
(1 2.71564e-15 0)
(1 1.36622e-15 0)
(1 3.70953e-15 0)
(1 5.87972e-15 0)
(1 -1.31942e-16 0)
(1 -2.88389e-15 0)
(1 -3.73738e-15 0)
(1 -4.35062e-15 0)
(1 -4.72475e-16 0)
(1 1.0878e-15 0)
(1 -6.29286e-16 0)
(1 -2.4985e-15 0)
(1 1.63529e-15 0)
(1 -2.95129e-15 0)
(1 -9.97858e-16 0)
(1 1.88812e-15 0)
(1 6.50876e-16 0)
(1 -2.07854e-15 0)
(1 -1.61743e-15 0)
(1 8.38231e-16 0)
(1 -1.43369e-15 0)
(1 -2.39124e-17 0)
(1 -1.56578e-15 0)
(1 -7.75227e-16 0)
(1 -9.25358e-16 0)
(1 4.34716e-16 0)
(1 -1.2689e-15 0)
(1 1.64801e-15 0)
(1 2.35025e-15 0)
(1 2.45594e-15 0)
(1 1.5889e-15 0)
(1 3.92084e-16 0)
(1 2.05045e-15 0)
(1 -1.34362e-15 0)
(1 -1.91347e-16 0)
(1 1.19567e-15 0)
(1 3.72822e-15 0)
(1 3.29838e-15 0)
(1 2.20037e-15 0)
(1 2.12081e-15 0)
(1 1.99772e-15 0)
(1 2.01622e-15 0)
(1 -1.43701e-15 0)
(1 1.29478e-15 0)
(1 1.30323e-15 0)
(1 8.76809e-16 0)
(1 1.36746e-15 0)
(1 2.12126e-15 0)
(1 1.15756e-15 0)
(1 6.40196e-16 0)
(1 1.25391e-15 0)
(1 2.58739e-15 0)
(1 -6.90804e-16 0)
(1 6.08164e-16 0)
(1 4.09588e-16 0)
(1 3.41763e-15 0)
(1 4.19748e-15 0)
(1 2.14426e-15 0)
(1 1.8307e-15 0)
(1 2.71939e-15 0)
(1 4.15725e-15 0)
(1 3.43783e-15 0)
(1 6.96135e-16 0)
(1 -2.71867e-17 0)
(1 -1.38568e-15 0)
(1 -2.60969e-15 0)
(1 -3.13957e-15 0)
(1 -2.76558e-15 0)
(1 -2.37834e-16 0)
(1 -2.83321e-15 0)
(1 -2.33086e-15 0)
(1 -2.57584e-15 0)
(1 -6.7631e-16 0)
(1 -1.32221e-15 0)
(1 -2.9536e-15 0)
(1 -2.72135e-15 0)
(1 -1.24874e-15 0)
(1 -2.07559e-15 0)
(1 -7.30034e-17 0)
(1 1.42654e-15 0)
(1 1.87691e-15 0)
(1 1.29113e-15 0)
(1 2.54455e-15 0)
(1 2.64896e-15 0)
(1 4.01064e-15 0)
(1 -1.07279e-15 0)
(1 2.35516e-15 0)
(1 -2.54745e-15 0)
(1 -3.53488e-15 0)
(1 -2.66898e-15 0)
(1 -2.09672e-16 0)
(1 8.986e-16 0)
(1 -2.62107e-15 0)
(1 -2.05297e-15 0)
(1 2.58528e-15 0)
(1 1.28768e-15 0)
(1 4.79226e-15 0)
(1 4.47191e-15 0)
(1 5.68976e-15 0)
(1 1.21776e-15 0)
(1 3.08142e-15 0)
(1 1.86923e-15 0)
(1 5.51533e-15 0)
(1 5.72033e-16 0)
(1 -2.14126e-15 0)
(1 -5.49161e-15 0)
(1 1.34435e-15 0)
(1 -1.57877e-15 0)
(1 -2.3451e-15 0)
(1 -1.43706e-15 0)
(1 -2.08229e-15 0)
(1 -2.88393e-15 0)
(1 -4.2557e-15 0)
(1 -5.12384e-15 0)
(1 -2.28796e-15 0)
(1 -1.37248e-15 0)
(1 5.46323e-16 0)
(1 3.24741e-16 0)
(1 1.72465e-15 0)
(1 8.69115e-16 0)
(1 2.01769e-15 0)
(1 -9.05494e-16 0)
(1 -1.81465e-16 0)
(1 -7.47167e-16 0)
(1 2.1789e-16 0)
(1 -2.52242e-17 0)
(1 1.47695e-15 0)
(1 1.92178e-15 0)
(1 1.99053e-15 0)
(1 5.836e-15 0)
(1 4.96105e-15 0)
(1 2.05185e-15 0)
(1 -1.28013e-15 0)
(1 -1.77364e-15 0)
(1 -3.30134e-15 0)
(1 9.51227e-16 0)
(1 2.64149e-15 0)
(1 2.73267e-15 0)
(1 1.89649e-15 0)
(1 2.44203e-15 0)
(1 1.92284e-15 0)
(1 4.48783e-15 0)
(1 2.04762e-15 0)
(1 3.90873e-15 0)
(1 1.44856e-15 0)
(1 1.46597e-15 0)
(1 1.3367e-15 0)
(1 -3.2175e-15 0)
(1 -2.86533e-15 0)
(1 -1.01637e-15 0)
(1 7.98435e-16 0)
(1 7.10599e-15 0)
(1 6.09869e-15 0)
(1 5.20777e-15 0)
(1 6.05049e-15 0)
(1 4.3638e-15 0)
(1 4.28504e-15 0)
(1 2.86157e-15 0)
(1 4.32946e-16 0)
(1 -2.47385e-15 0)
(1 1.34131e-16 0)
(1 1.40115e-15 0)
(1 9.64037e-16 0)
(1 -1.57626e-15 0)
(1 2.79755e-16 0)
(1 -2.33211e-16 0)
(1 2.48083e-15 0)
(1 -2.12924e-15 0)
(1 -2.34803e-16 0)
(1 -3.75155e-15 0)
(1 -3.17825e-15 0)
(1 -2.79989e-15 0)
(1 -1.9284e-15 0)
(1 -2.93967e-15 0)
(1 -2.15492e-15 0)
(1 -2.23927e-15 0)
(1 -2.28479e-15 0)
(1 7.90927e-16 0)
(1 1.92368e-15 0)
(1 5.42383e-15 0)
(1 4.81364e-15 0)
(1 5.76484e-15 0)
(1 4.46244e-15 0)
(1 7.22822e-15 0)
(1 7.41244e-15 0)
(1 5.30879e-16 0)
(1 1.03265e-15 0)
(1 -8.31864e-17 0)
(1 2.8635e-16 0)
(1 -1.51719e-15 0)
(1 -1.92235e-17 0)
(1 7.7677e-16 0)
(1 1.10858e-15 0)
(1 7.38251e-16 0)
(1 2.38201e-15 0)
(1 1.47031e-15 0)
(1 3.97547e-15 0)
(1 3.22755e-15 0)
(1 -1.40647e-15 0)
(1 -1.20552e-15 0)
(1 -7.75043e-16 0)
(1 1.10518e-15 0)
(1 2.97342e-15 0)
(1 -6.08963e-16 0)
(1 -1.61672e-15 0)
(1 -3.90449e-15 0)
(1 -1.80713e-15 0)
(1 1.34416e-15 0)
(1 -3.93249e-16 0)
(1 1.01445e-15 0)
(1 8.17218e-17 0)
(1 -1.99962e-16 0)
(1 -6.0095e-15 0)
(1 -3.33262e-15 0)
(1 -2.04404e-15 0)
(1 -2.31873e-15 0)
(1 8.37924e-16 0)
(1 7.96383e-16 0)
(1 7.95974e-16 0)
(1 -1.86541e-15 0)
(1 -1.84397e-16 0)
(1 -2.90388e-15 0)
(1 -1.90662e-15 0)
(1 -2.86217e-15 0)
(1 -4.14305e-16 0)
(1 -1.89567e-15 0)
(1 2.34508e-15 0)
(1 1.6778e-15 0)
(1 3.0776e-15 0)
(1 2.89779e-15 0)
(1 2.67095e-15 0)
(1 9.35021e-16 0)
(1 -1.00572e-15 0)
(1 2.79587e-15 0)
(1 1.48578e-15 0)
(1 3.94718e-15 0)
(1 1.30551e-15 0)
(1 1.30349e-15 0)
(1 1.76086e-15 0)
(1 3.14612e-15 0)
(1 2.07882e-15 0)
(1 2.13154e-15 0)
(1 2.84307e-15 0)
(1 1.968e-15 0)
(1 1.0039e-15 0)
(1 2.01523e-15 0)
(1 3.75637e-15 0)
(1 5.55038e-15 0)
(1 2.41955e-15 0)
(1 1.76811e-15 0)
(1 9.03733e-16 0)
(1 2.98497e-15 0)
(1 4.831e-15 0)
(1 5.29872e-15 0)
(1 3.85108e-15 0)
(1 2.26649e-15 0)
(1 2.34438e-15 0)
(1 1.78789e-15 0)
(1 1.45393e-16 0)
(1 -7.05589e-16 0)
(1 2.05614e-15 0)
(1 4.13325e-15 0)
(1 2.16496e-15 0)
(1 -1.71995e-16 0)
(1 4.88661e-16 0)
(1 7.07717e-16 0)
(1 -4.12486e-16 0)
(1 -2.6166e-15 0)
(1 -3.24948e-15 0)
(1 -3.24514e-15 0)
(1 -3.5764e-15 0)
(1 -2.25307e-15 0)
(1 -3.78665e-15 0)
(1 -1.60336e-15 0)
(1 -2.07852e-15 0)
(1 1.09121e-15 0)
(1 -1.85835e-15 0)
(1 3.53507e-15 0)
(1 1.25926e-15 0)
(1 4.00831e-15 0)
(1 3.58134e-15 0)
(1 3.90024e-15 0)
(1 5.77617e-15 0)
(1 1.05775e-14 0)
(1 8.66222e-15 0)
(1 3.32057e-16 0)
(1 -1.83284e-15 0)
(1 -2.37803e-16 0)
(1 2.14142e-15 0)
(1 -1.14098e-15 0)
(1 1.02843e-15 0)
(1 -1.8222e-16 0)
(1 2.81716e-15 0)
(1 1.61709e-15 0)
(1 -2.41931e-15 0)
(1 -2.15357e-15 0)
(1 9.22183e-17 0)
(1 -2.5428e-16 0)
(1 1.44112e-15 0)
(1 2.30233e-15 0)
(1 2.04523e-15 0)
(1 3.08719e-16 0)
(1 -1.35699e-15 0)
(1 7.18183e-16 0)
(1 -8.54471e-16 0)
(1 -2.52267e-16 0)
(1 -9.7374e-17 0)
(1 1.53899e-16 0)
(1 -1.6804e-15 0)
(1 -2.53011e-15 0)
(1 -1.49272e-15 0)
(1 2.60114e-15 0)
(1 -1.17816e-15 0)
(1 -1.13015e-16 0)
(1 -3.46247e-15 0)
(1 -3.03886e-15 0)
(1 -4.46143e-15 0)
(1 -1.48621e-15 0)
(1 -7.0764e-16 0)
(1 1.12373e-15 0)
(1 -3.5547e-16 0)
(1 -7.15676e-16 0)
(1 -2.85518e-15 0)
(1 -2.07304e-15 0)
(1 3.71595e-16 0)
(1 6.65605e-16 0)
(1 -5.45006e-16 0)
(1 5.08024e-16 0)
(1 4.58645e-17 0)
(1 1.458e-15 0)
(1 1.40153e-15 0)
(1 3.13334e-15 0)
(1 8.76349e-16 0)
(1 4.13085e-15 0)
(1 3.85325e-15 0)
(1 2.94836e-15 0)
(1 2.12011e-15 0)
(1 3.74893e-15 0)
(1 2.99305e-15 0)
(1 4.14717e-15 0)
(1 2.62057e-15 0)
(1 4.66739e-15 0)
(1 1.54412e-15 0)
(1 4.03053e-15 0)
(1 1.49242e-15 0)
(1 3.56572e-15 0)
(1 2.66291e-16 0)
(1 4.41482e-15 0)
(1 1.48548e-15 0)
(1 2.0115e-15 0)
(1 4.49226e-15 0)
(1 2.24956e-15 0)
(1 1.66193e-15 0)
(1 4.11743e-15 0)
(1 2.62875e-15 0)
(1 4.90377e-15 0)
(1 1.33563e-15 0)
(1 5.0619e-16 0)
(1 -4.50574e-16 0)
(1 -3.52602e-16 0)
(1 4.06688e-16 0)
(1 2.30592e-15 0)
(1 2.36678e-15 0)
(1 1.94219e-15 0)
(1 -1.97747e-15 0)
(1 -1.28536e-16 0)
(1 -2.80284e-15 0)
(1 9.33088e-16 0)
(1 -2.41045e-15 0)
(1 -1.71957e-15 0)
(1 -2.66978e-15 0)
(1 -1.97002e-15 0)
(1 -1.0223e-15 0)
(1 -1.14623e-15 0)
(1 -3.08369e-15 0)
(1 -8.47861e-16 0)
(1 -1.14042e-15 0)
(1 1.77156e-16 0)
(1 3.73312e-16 0)
(1 7.22063e-16 0)
(1 1.41986e-15 0)
(1 2.71486e-15 0)
(1 5.90312e-15 0)
(1 7.04337e-15 0)
(1 6.51715e-15 0)
(1 6.1072e-16 0)
(1 -2.19212e-15 0)
(1 1.75663e-15 0)
(1 1.05259e-15 0)
(1 5.4049e-16 0)
(1 -1.94068e-15 0)
(1 -2.6442e-15 0)
(1 8.44343e-16 0)
(1 2.37575e-15 0)
(1 2.5695e-15 0)
(1 2.43827e-15 0)
(1 4.88243e-17 0)
(1 -3.03354e-15 0)
(1 -8.62691e-16 0)
(1 4.47678e-16 0)
(1 3.30134e-15 0)
(1 1.72499e-15 0)
(1 -1.57088e-15 0)
(1 -1.92704e-15 0)
(1 -2.51569e-15 0)
(1 1.46164e-15 0)
(1 -1.01907e-16 0)
(1 -1.48112e-16 0)
(1 -1.13005e-15 0)
(1 -8.41925e-16 0)
(1 -1.92071e-15 0)
(1 -1.50665e-15 0)
(1 1.6156e-16 0)
(1 1.45239e-15 0)
(1 -4.05343e-16 0)
(1 -1.55633e-15 0)
(1 -1.81785e-15 0)
(1 -1.11772e-15 0)
(1 -2.02585e-15 0)
(1 -3.12766e-15 0)
(1 -5.09775e-15 0)
(1 2.21778e-16 0)
(1 -1.4515e-15 0)
(1 -1.19267e-15 0)
(1 -2.09372e-15 0)
(1 -2.16966e-17 0)
(1 -1.23695e-15 0)
(1 -1.50715e-15 0)
(1 -2.55257e-15 0)
(1 1.9072e-15 0)
(1 4.97764e-15 0)
(1 5.54915e-15 0)
(1 5.50612e-15 0)
(1 1.87839e-15 0)
(1 3.50609e-15 0)
(1 1.72766e-15 0)
(1 2.79451e-15 0)
(1 3.38579e-15 0)
(1 4.71874e-15 0)
(1 4.86761e-15 0)
(1 1.1273e-15 0)
(1 -4.50763e-16 0)
(1 8.41521e-16 0)
(1 3.29287e-15 0)
(1 4.1138e-15 0)
(1 5.08668e-15 0)
(1 3.20747e-15 0)
(1 1.08709e-15 0)
(1 1.91162e-15 0)
(1 1.40831e-15 0)
(1 3.35036e-16 0)
(1 2.22148e-15 0)
(1 2.4276e-15 0)
(1 2.925e-15 0)
(1 2.97352e-15 0)
(1 4.2258e-15 0)
(1 3.01146e-15 0)
(1 1.30773e-15 0)
(1 1.08041e-15 0)
(1 1.81011e-15 0)
(1 5.84903e-16 0)
(1 2.05765e-15 0)
(1 2.19955e-16 0)
(1 -1.17388e-15 0)
(1 -1.94093e-15 0)
(1 1.7537e-15 0)
(1 9.38111e-16 0)
(1 -3.4547e-16 0)
(1 -1.35727e-15 0)
(1 -2.08328e-15 0)
(1 -2.1044e-15 0)
(1 -2.67799e-15 0)
(1 -1.66471e-15 0)
(1 -3.23621e-15 0)
(1 -3.70457e-16 0)
(1 -6.04624e-16 0)
(1 1.43204e-15 0)
(1 4.61523e-16 0)
(1 1.0203e-15 0)
(1 1.16687e-15 0)
(1 2.80163e-15 0)
(1 5.3673e-15 0)
(1 4.26394e-15 0)
(1 2.85668e-15 0)
(1 4.7863e-15 0)
(1 2.73443e-15 0)
(1 -9.64946e-16 0)
(1 7.13517e-17 0)
(1 1.04194e-15 0)
(1 1.99504e-15 0)
(1 8.43387e-16 0)
(1 1.16792e-15 0)
(1 5.04525e-16 0)
(1 -9.62328e-16 0)
(1 1.49068e-15 0)
(1 5.28083e-15 0)
(1 6.39902e-15 0)
(1 1.59614e-15 0)
(1 -5.76471e-16 0)
(1 -3.35743e-15 0)
(1 -3.84096e-15 0)
(1 -3.79704e-15 0)
(1 -3.61294e-15 0)
(1 -1.68691e-15 0)
(1 -1.53386e-15 0)
(1 2.14742e-15 0)
(1 -2.14338e-15 0)
(1 1.85511e-15 0)
(1 -3.29572e-15 0)
(1 3.19224e-15 0)
(1 3.23298e-16 0)
(1 -5.46509e-15 0)
(1 -2.78848e-15 0)
(1 -4.12122e-15 0)
(1 -1.27031e-15 0)
(1 -1.38509e-15 0)
(1 2.72771e-16 0)
(1 -2.08571e-15 0)
(1 -1.21031e-15 0)
(1 -2.46426e-15 0)
(1 3.92252e-17 0)
(1 -7.45352e-16 0)
(1 -7.70821e-16 0)
(1 -1.5663e-15 0)
(1 -1.47437e-15 0)
(1 -4.23939e-15 0)
(1 6.73508e-16 0)
(1 -3.94671e-15 0)
(1 -1.21385e-15 0)
(1 1.09978e-15 0)
(1 3.63533e-15 0)
(1 5.42294e-15 0)
(1 7.05907e-15 0)
(1 3.0132e-15 0)
(1 4.30735e-15 0)
(1 7.81725e-17 0)
(1 3.65621e-15 0)
(1 3.40128e-15 0)
(1 5.60113e-15 0)
(1 3.11687e-15 0)
(1 3.65137e-15 0)
(1 -8.11855e-16 0)
(1 2.7906e-15 0)
(1 -1.00938e-15 0)
(1 1.28388e-15 0)
(1 8.47316e-16 0)
(1 5.49816e-15 0)
(1 5.60497e-15 0)
(1 7.68167e-15 0)
(1 3.25504e-15 0)
(1 -6.91259e-17 0)
(1 -8.75264e-17 0)
(1 6.75616e-16 0)
(1 -6.63495e-16 0)
(1 6.45564e-16 0)
(1 1.70199e-15 0)
(1 1.75678e-15 0)
(1 3.4909e-15 0)
(1 3.20866e-15 0)
(1 2.87918e-15 0)
(1 -5.71356e-17 0)
(1 -9.35267e-16 0)
(1 -1.2487e-15 0)
(1 -1.43997e-15 0)
(1 2.24576e-15 0)
(1 -4.68352e-16 0)
(1 -8.15182e-16 0)
(1 -2.05509e-15 0)
(1 -4.47412e-16 0)
(1 -1.76139e-15 0)
(1 8.23107e-16 0)
(1 -2.89858e-15 0)
(1 -2.21356e-15 0)
(1 -2.26365e-15 0)
(1 -7.34825e-16 0)
(1 6.92302e-17 0)
(1 -7.22239e-16 0)
(1 -1.3273e-15 0)
(1 -1.89678e-15 0)
(1 -1.24281e-15 0)
(1 3.07713e-15 0)
(1 3.11032e-15 0)
(1 2.74453e-15 0)
(1 1.12744e-15 0)
(1 2.91151e-15 0)
(1 -2.90079e-16 0)
(1 3.65686e-15 0)
(1 -3.92338e-15 0)
(1 1.42381e-15 0)
(1 1.34209e-15 0)
(1 4.26274e-15 0)
(1 1.61786e-15 0)
(1 1.95512e-15 0)
(1 -2.01874e-15 0)
(1 -3.04371e-15 0)
(1 1.4735e-15 0)
(1 4.39552e-15 0)
(1 2.63326e-15 0)
(1 3.85363e-15 0)
(1 -2.87816e-15 0)
(1 -5.96039e-15 0)
(1 -4.48189e-15 0)
(1 -3.57033e-15 0)
(1 -1.79166e-15 0)
(1 -1.34434e-15 0)
(1 -7.938e-16 0)
(1 -9.22218e-16 0)
(1 2.88023e-15 0)
(1 -2.29015e-17 0)
(1 2.19773e-15 0)
(1 -1.48147e-15 0)
(1 -2.6983e-15 0)
(1 -3.72682e-15 0)
(1 -2.37588e-15 0)
(1 -4.31076e-16 0)
(1 4.20557e-16 0)
(1 -1.56953e-15 0)
(1 -2.19343e-15 0)
(1 -2.63066e-15 0)
(1 8.86279e-16 0)
(1 7.80379e-17 0)
(1 -2.97797e-16 0)
(1 -3.20189e-15 0)
(1 -9.84013e-16 0)
(1 -3.5437e-15 0)
(1 -2.27527e-15 0)
(1 -1.95425e-15 0)
(1 -2.39726e-16 0)
(1 4.48751e-15 0)
(1 9.55231e-16 0)
(1 3.26585e-15 0)
(1 3.14105e-15 0)
(1 5.3715e-15 0)
(1 3.5354e-15 0)
(1 3.10059e-15 0)
(1 5.27687e-16 0)
(1 7.11712e-16 0)
(1 1.62232e-15 0)
(1 2.67392e-15 0)
(1 2.01178e-15 0)
(1 4.97096e-15 0)
(1 6.48701e-15 0)
(1 5.73308e-15 0)
(1 2.29763e-15 0)
(1 6.09537e-16 0)
(1 -9.59138e-17 0)
(1 1.35059e-15 0)
(1 5.3619e-16 0)
(1 2.19772e-15 0)
(1 3.04636e-15 0)
(1 5.90007e-15 0)
(1 9.5908e-16 0)
(1 3.6371e-15 0)
(1 4.47118e-16 0)
(1 2.25071e-15 0)
(1 2.92962e-15 0)
(1 1.67401e-15 0)
(1 3.9472e-15 0)
(1 4.30414e-15 0)
(1 3.37638e-15 0)
(1 1.11562e-15 0)
(1 -1.54258e-16 0)
(1 1.85295e-15 0)
(1 2.62267e-15 0)
(1 2.57901e-15 0)
(1 -1.7076e-15 0)
(1 -1.4922e-15 0)
(1 -1.45727e-15 0)
(1 -2.56589e-16 0)
(1 -1.11596e-15 0)
(1 -1.38623e-15 0)
(1 -3.02482e-15 0)
(1 -4.74513e-16 0)
(1 1.12625e-15 0)
(1 -5.53201e-16 0)
(1 -8.1852e-16 0)
(1 -7.31282e-16 0)
(1 -1.10641e-15 0)
(1 -3.01252e-16 0)
(1 -1.09786e-15 0)
(1 2.00504e-15 0)
(1 1.39628e-15 0)
(1 3.99403e-15 0)
(1 2.53564e-15 0)
(1 8.62357e-16 0)
(1 5.06044e-16 0)
(1 1.64912e-15 0)
(1 3.68462e-15 0)
(1 2.37954e-15 0)
(1 2.16558e-15 0)
(1 -1.16747e-15 0)
(1 -1.65452e-15 0)
(1 -3.31335e-15 0)
(1 1.50108e-15 0)
(1 3.42269e-15 0)
(1 1.4445e-15 0)
(1 -1.29753e-15 0)
(1 -3.63196e-16 0)
(1 -2.94288e-15 0)
(1 -3.90652e-15 0)
(1 -3.9753e-15 0)
(1 -5.79056e-15 0)
(1 -8.76762e-16 0)
(1 -1.82786e-15 0)
(1 4.5766e-16 0)
(1 -2.10778e-15 0)
(1 2.67284e-16 0)
(1 -2.67449e-15 0)
(1 6.99405e-15 0)
(1 4.68596e-15 0)
(1 2.04198e-15 0)
(1 -8.07927e-16 0)
(1 -1.49536e-15 0)
(1 -3.13534e-15 0)
(1 -2.70806e-15 0)
(1 -2.15403e-15 0)
(1 -1.3981e-15 0)
(1 -2.38725e-15 0)
(1 -5.50558e-15 0)
(1 -9.27049e-16 0)
(1 -2.1192e-15 0)
(1 -1.1439e-15 0)
(1 -2.24222e-16 0)
(1 -1.04674e-15 0)
(1 -1.63564e-15 0)
(1 1.12516e-15 0)
(1 7.70428e-17 0)
(1 2.49526e-15 0)
(1 3.79154e-15 0)
(1 1.71851e-15 0)
(1 3.40821e-15 0)
(1 7.98559e-16 0)
(1 2.82442e-15 0)
(1 9.99204e-16 0)
(1 -8.39646e-16 0)
(1 2.11797e-15 0)
(1 1.83528e-15 0)
(1 1.31612e-15 0)
(1 2.27101e-15 0)
(1 3.14408e-15 0)
(1 2.83405e-15 0)
(1 6.20848e-15 0)
(1 5.33132e-15 0)
(1 5.85348e-15 0)
(1 4.71457e-15 0)
(1 4.11233e-15 0)
(1 8.43743e-16 0)
(1 1.39892e-15 0)
(1 1.52626e-15 0)
(1 4.35156e-15 0)
(1 3.90334e-15 0)
(1 4.66643e-15 0)
(1 3.80452e-15 0)
(1 3.63509e-15 0)
(1 3.5147e-15 0)
(1 2.17657e-15 0)
(1 6.02767e-15 0)
(1 4.04523e-15 0)
(1 3.79717e-15 0)
(1 1.84856e-15 0)
(1 3.44198e-15 0)
(1 2.25473e-15 0)
(1 1.38904e-15 0)
(1 2.57661e-15 0)
(1 -1.0873e-15 0)
(1 -5.14281e-16 0)
(1 -5.46623e-16 0)
(1 -1.67652e-15 0)
(1 -1.52172e-15 0)
(1 -3.23649e-15 0)
(1 -6.36343e-15 0)
(1 -4.5239e-15 0)
(1 -3.71267e-15 0)
(1 -2.16288e-15 0)
(1 -2.30851e-15 0)
(1 -2.985e-16 0)
(1 -2.12192e-16 0)
(1 2.06681e-15 0)
(1 1.94373e-15 0)
(1 4.50768e-15 0)
(1 1.26218e-15 0)
(1 3.84924e-16 0)
(1 2.85574e-15 0)
(1 3.30415e-15 0)
(1 2.72841e-15 0)
(1 -6.11395e-16 0)
(1 -1.21881e-15 0)
(1 1.28297e-15 0)
(1 1.76533e-15 0)
(1 7.62722e-16 0)
(1 2.75702e-15 0)
(1 4.98936e-15 0)
(1 1.69974e-15 0)
(1 6.23433e-16 0)
(1 1.50464e-15 0)
(1 -3.44375e-15 0)
(1 -4.35074e-15 0)
(1 -2.0299e-15 0)
(1 -3.60685e-15 0)
(1 8.79059e-16 0)
(1 3.12107e-16 0)
(1 -4.3028e-15 0)
(1 -3.44891e-15 0)
(1 -3.22228e-15 0)
(1 8.44192e-16 0)
(1 3.83198e-16 0)
(1 3.4931e-15 0)
(1 -4.01001e-15 0)
(1 3.92497e-16 0)
(1 -3.32981e-15 0)
(1 1.19243e-15 0)
(1 -4.26648e-16 0)
(1 1.9488e-15 0)
(1 -2.10119e-15 0)
(1 -3.39658e-15 0)
(1 -1.3249e-15 0)
(1 -3.80866e-15 0)
(1 9.35352e-16 0)
(1 -1.75935e-15 0)
(1 -8.11179e-16 0)
(1 7.75049e-18 0)
(1 -2.58135e-15 0)
(1 2.42548e-16 0)
(1 -2.08646e-16 0)
(1 1.70795e-15 0)
(1 4.04229e-16 0)
(1 2.26531e-15 0)
(1 2.2766e-15 0)
(1 -2.90464e-15 0)
(1 -1.48473e-16 0)
(1 -4.49573e-15 0)
(1 2.57096e-15 0)
(1 1.15362e-15 0)
(1 3.37718e-15 0)
(1 2.06518e-16 0)
(1 3.10091e-15 0)
(1 2.73036e-15 0)
(1 4.21085e-15 0)
(1 1.33208e-15 0)
(1 3.09495e-15 0)
(1 4.57295e-15 0)
(1 6.40839e-15 0)
(1 4.09979e-15 0)
(1 5.06483e-15 0)
(1 1.30471e-15 0)
(1 9.81052e-16 0)
(1 -2.83472e-16 0)
(1 1.70349e-15 0)
(1 9.56504e-16 0)
(1 2.77464e-15 0)
(1 1.84357e-15 0)
(1 4.15823e-15 0)
(1 2.04347e-15 0)
(1 4.97835e-15 0)
(1 2.36438e-15 0)
(1 2.25653e-15 0)
(1 3.96011e-15 0)
(1 2.40705e-15 0)
(1 3.78386e-15 0)
(1 2.02505e-15 0)
(1 -1.02847e-16 0)
(1 -8.33627e-16 0)
(1 -8.64843e-16 0)
(1 1.51217e-15 0)
(1 -3.32461e-16 0)
(1 1.34926e-16 0)
(1 -1.71222e-15 0)
(1 7.84132e-16 0)
(1 -2.28163e-16 0)
(1 -1.62095e-15 0)
(1 -4.03374e-15 0)
(1 -4.64783e-15 0)
(1 -5.14991e-15 0)