/*--------------------------------*- C++ -*----------------------------------*\
| =========                 |                                                 |
| \\      /  F ield         | OpenFOAM: The Open Source CFD Toolbox           |
|  \\    /   O peration     | Version:  v2012                                 |
|   \\  /    A nd           | Website:  www.openfoam.com                      |
|    \\/     M anipulation  |                                                 |
\*---------------------------------------------------------------------------*/
FoamFile
{
    version     2.0;
    format      ascii;
    class       volScalarField;
    location    "0";
    object      p;
}
// * * * * * * * * * * * * * * * * * * * * * * * * * * * * * * * * * * * * * //

dimensions      [0 2 -2 0 0 0 0];


internalField   nonuniform List<scalar> 
4000
(
0.131366
0.233349
0.249631
0.328913
0.20435
0.0155452
-0.0396926
0.0378666
0.280849
0.33233
0.200213
0.0242158
0.037778
0.156397
0.0251918
-0.314365
-0.303418
-0.110356
-0.0754043
-0.0670004
-0.0737502
-0.0963493
-0.0299163
-0.00605715
0.00888556
-0.0546255
-0.0602814
-0.14267
-0.106796
-0.104313
-0.15505
-0.151254
-0.0416542
0.0174947
-0.0199723
-0.00319998
0.0430839
0.0910083
0.0895135
0.0567648
0.0631362
-0.0375562
0.0101475
0.131027
0.263264
0.316526
0.224687
0.134535
0.061472
0.0171089
-0.0739799
-0.0305106
-0.0560199
0.00338217
0.00623777
0.0274359
0.0180239
-0.0917988
-0.106569
-0.06426
-0.0515013
-0.058721
-0.0768037
-0.157485
-0.171685
-0.202616
-0.10185
-0.0359432
-0.0366184
-0.0539848
-0.0387944
-0.000711874
-0.056493
-0.0945249
-0.0135827
0.0311827
0.0389921
0.0145166
-0.0969549
-0.143112
-0.0326275
0.0653211
0.0626387
-0.0245618
-0.210677
-0.200543
-0.0235643
0.110019
0.128456
0.100604
0.0798189
0.00318344
0.0311616
0.127535
0.082289
0.11448
0.198637
0.140579
0.109632
0.0201132
0.207692
0.15606
0.280925
0.24166
0.21505
0.0349408
0.0983998
0.119905
0.163446
0.174966
0.194079
0.11317
0.109884
0.0330961
-0.0589176
-0.136911
-0.166269
-0.169507
-0.100008
-0.0629891
-0.0341869
-0.112236
-0.130114
0.00125584
0.0126263
-0.0632228
-0.151811
-0.157138
-0.122248
-0.0738664
-0.101618
-0.076695
-0.0815172
-0.0431635
-0.0168805
-0.00053486
0.0519306
0.108064
0.0436621
-0.0244256
0.0522598
0.0457234
0.137114
0.174805
0.217874
0.183048
0.198669
0.234931
0.121358
-0.0117185
-0.0829402
-0.0442299
-0.00961908
0.0231334
0.0995344
0.0273053
-0.0847698
-0.166164
-0.160579
-0.0810307
-0.025828
-0.0402961
-0.0908299
-0.115439
-0.163924
-0.185655
-0.100987
-0.0643346
-0.0644528
-0.0325765
0.00425738
-0.0827885
-0.0998313
-0.0341063
-0.000627801
0.0126298
-0.00300677
-0.0160281
-0.0548391
-0.0818233
-0.0154277
0.0301707
-0.00973793
-0.0292865
-0.105365
-0.12557
-0.0594061
0.0514761
0.104148
0.153012
0.090039
0.0626637
0.0314393
0.0751968
0.137023
0.137867
0.121676
0.0928597
0.0882773
0.00589922
0.186173
0.213005
0.217417
0.257774
0.205388
0.0400654
0.0777264
0.133976
0.219785
0.212822
0.0576622
0.0281895
0.044932
0.0908294
0.0521204
-0.0637029
-0.117475
-0.172982
-0.116732
-0.068731
-0.064492
-0.0561836
-0.0996443
-0.0971198
-0.126589
-0.0587843
-0.0909658
-0.119941
-0.114586
-0.13073
-0.135417
-0.0932957
-0.00478295
0.00911857
0.00776351
0.0132323
0.00424248
0.0070537
0.0622927
0.0269861
0.100259
0.157402
0.17917
0.109865
0.105058
0.186716
0.183709
0.186066
0.168936
0.0977153
-0.0368375
-0.0983466
-0.0885046
0.0182911
0.0949278
-0.00386455
-0.0613662
-0.100809
-0.122591
-0.0945376
0.024248
-0.0350006
-0.0897634
-0.174367
-0.192237
-0.154079
-0.0619406
-0.0592766
-0.0427219
-0.0546417
-0.0277079
-0.0557398
-0.0634153
-0.0418042
-0.0447795
-0.0275374
-0.0227843
0.0153268
0.00391935
-0.0203011
-0.0644367
-0.0377427
-0.00680099
-0.0273578
-0.0789373
-0.0807717
-0.0334936
0.0567317
0.0860396
0.0873559
0.0404536
0.11006
0.103152
0.0791284
0.0885698
0.0782619
0.116417
0.0960538
0.0739329
0.0126547
0.225527
0.228496
0.220734
0.255498
0.0538376
0.0941343
0.10403
0.228328
0.167965
0.0610944
0.0904904
0.180386
0.0877439
-0.0113168
0.00635324
-0.103903
-0.0958603
-0.116568
-0.123481
-0.165105
-0.108369
0.0592213
0.0640005
-0.101538
-0.145993
-0.202635
-0.222395
-0.188104
-0.157388
-0.107983
-0.107756
-0.0804024
-0.0167999
0.0127491
0.111785
0.0333204
-0.0555024
0.0184847
0.104307
0.0665487
0.0554229
0.187789
0.22112
0.135071
0.128118
0.14254
0.183906
0.143983
0.143433
0.0666443
-0.0148832
-0.0866303
-0.0170414
0.0430898
0.115055
0.0431926
-0.0703739
-0.164354
-0.20242
-0.104802
-0.0277336
-0.0116342
-0.040908
-0.136304
-0.222204
-0.117958
-0.0947521
-0.119165
-0.0839825
-0.0345249
-0.000430191
-0.0552682
-0.0629835
-0.0613187
-0.083371
-0.0125409
0.035575
-4.73158e-05
0.0168422
-0.0272182
0.0180188
0.0142239
-0.0322492
-0.0917771
-0.110812
-0.0360427
-0.0392909
0.0671347
0.0806419
0.117947
0.100976
0.0779965
0.0486002
0.0797217
0.12057
0.12527
0.0473705
0.0576495
0.0334674
0.00190504
0.132771
0.222022
0.201052
0.258903
0.229608
0.103047
0.00711484
0.168233
0.196125
0.00965424
-0.0975813
0.0551153
0.237686
0.175552
0.0470296
-0.0681963
-0.121135
-0.0259488
-0.0916057
-0.207231
-0.189163
-0.081433
-0.0258027
-0.0463574
-0.0638191
-0.183053
-0.26068
-0.198154
-0.194777
-0.130846
-0.134475
-0.0860985
0.00644719
0.0122676
0.100387
0.0875278
0.070067
0.00545051
-0.0920009
0.0323184
0.20052
0.19862
0.212825
0.164835
0.137555
0.0594329
0.0962695
0.182608
0.152645
0.108532
0.083885
-0.0179073
-0.0293099
-0.00616531
0.0256483
0.0075148
-0.0124557
-0.0463474
-0.190234
-0.198265
-0.040179
-0.0402489
-0.0891155
-0.137727
-0.0537683
-0.117086
-0.151247
-0.137339
-0.0810358
-0.040219
-0.0388123
-0.0800977
-0.0519564
-0.0721115
-0.0161633
0.0231313
0.0559232
0.0264337
-0.0156928
-0.0371266
-0.0680331
-0.0100356
0.0263883
-0.0499441
-0.0647427
-0.038922
-0.00296605
0.01446
0.0715478
0.100893
0.0673762
0.0621915
0.0629713
0.0851285
0.0717007
0.101961
0.0864841
0.0710823
0.0577431
0.0397838
0.216361
0.264355
0.242884
0.173872
0.0565841
-0.0593135
0.0342586
0.197933
0.227399
0.18127
0.133909
0.0460151
0.0471685
-0.00755209
-0.0775556
-0.0567098
-0.00515523
-0.0417035
-0.0652996
-0.136942
-0.178648
-0.148342
-0.146135
-0.0884933
-0.0924131
-0.217676
-0.223381
-0.170285
-0.173728
-0.130547
-0.192822
-0.180632
0.00575628
0.156002
0.0840429
0.0454979
0.0119254
0.0647171
0.0911162
0.104833
0.111809
0.120253
0.203737
0.142653
0.140118
0.0879338
0.116716
0.168219
0.129032
0.0838045
0.0612807
-0.0273879
-0.0351869
-0.0448291
-0.0099158
0.0584141
0.00116433
-0.0901435
-0.127098
-0.0951889
-0.0494852
-0.0579326
-0.0873489
-0.0136868
-0.102514
-0.172684
-0.206574
-0.185355
-0.128469
-0.126336
-0.0216645
0.0366196
-0.0203136
-0.0704191
-0.106412
-0.0417792
-0.0252867
0.0347722
0.127163
0.0419331
-0.0243807
-0.00503067
-0.0317593
-0.0332688
-0.034023
-0.0443586
0.0405941
0.056594
0.0636099
0.0954361
0.0908885
0.0876226
0.0504031
0.0942026
0.111086
0.041344
0.0769909
0.111118
0.10294
0.00400692
0.218128
0.258773
0.206778
0.0787459
0.0359234
0.101027
0.10039
0.137336
0.135859
0.078288
0.08963
0.100013
0.0447583
0.0506518
0.011131
-0.0530555
-0.0591451
-0.172611
-0.157287
-0.132413
-0.0633917
0.0115363
-0.0267938
-0.0856203
-0.125721
-0.219609
-0.292063
-0.30545
-0.285506
-0.159313
-0.199246
-0.129395
0.0634614
0.0987407
0.0677839
0.040688
0.0424419
0.0828125
0.0870979
0.0484672
0.17932
0.168721
0.147486
0.1972
0.149244
0.121891
0.130192
0.152963
0.092836
0.0572021
0.131762
0.139763
0.0269659
-0.133938
-0.0969954
0.0354682
-0.0081461
-0.118594
-0.101766
-0.110008
-0.11282
0.00243455
-0.021549
-0.0883218
-0.128901
-0.149092
-0.209344
-0.155811
-0.113967
-0.060839
0.0137855
-0.0816846
-0.0519732
-0.0129867
6.75963e-05
0.0455612
0.0238186
-0.0448864
-0.0853481
-0.0196004
0.0688043
0.0203679
0.0014818
-0.0256337
-0.0798048
-0.0193219
0.0414546
0.093769
0.107499
0.102691
0.095204
0.0790931
0.0805298
0.113939
0.0710836
0.0662305
0.0395537
0.0996497
0.105057
0.0106281
0.297971
0.273919
0.244025
0.0374801
-0.013528
0.0974454
0.165299
0.105841
0.0804067
0.0344237
0.0853278
0.0887104
-0.00576098
0.0023457
-0.0715292
-0.0777807
-0.0907835
-0.0553744
-0.0690794
-0.014919
-0.0252354
-0.222553
-0.295239
-0.0559447
-0.0281613
-0.174918
-0.261169
-0.308522
-0.245116
-0.223158
-0.166547
-0.0645965
0.046703
0.0558094
0.0208207
-0.0176527
0.00647096
0.157167
0.210955
0.232307
0.195058
0.0619795
-0.0187884
0.0346991
0.199719
0.214454
0.103971
0.0824199
0.0135281
0.0607919
0.148826
0.121102
0.00112679
-0.0706342
-0.048246
0.0175192
0.0807391
-0.0664268
-0.0982551
-0.0760061
-0.0685063
-0.0670762
-0.0997265
-0.124745
-0.086575
-0.136069
-0.198546
-0.158691
-0.083137
-0.0753861
-0.0904462
-0.0712572
-0.0404509
-0.0225793
-0.0259873
0.0420701
-0.0173732
0.00777716
0.00887347
0.0755409
0.0645931
0.023671
-0.0396579
-0.0189643
0.047016
0.0219933
0.0498768
0.0839581
0.0776997
0.0831635
0.116902
0.104617
0.0832554
0.117533
0.0908024
0.10092
0.0768453
0.0442706
0.00597612
-0.00546045
0.231981
0.168221
0.127876
0.0839571
0.187079
0.108598
0.149025
0.100371
0.0496132
0.0484261
0.0860331
0.0760589
0.0305817
-0.0192559
-0.0367428
0.0214762
-0.0714026
-0.206359
-0.223452
-0.027592
0.00212305
-0.101708
-0.196476
-0.199098
-0.159692
-0.15435
-0.197492
-0.14984
-0.136317
-0.30043
-0.310089
-0.222481
0.0223897
0.0675064
0.108541
0.0840111
0.0596623
0.159656
0.281825
0.147789
-0.0195054
-0.106746
0.0514918
0.187955
0.291124
0.299893
0.202286
0.148852
0.0837489
0.0455861
0.0847415
0.041524
0.00806377
0.031305
-0.018167
-0.0657659
-0.0667388
-0.109902
-0.146756
-0.0507307
0.00372707
0.0617714
-0.0168099
-0.117428
-0.246583
-0.147979
-0.174579
-0.1459
-0.0833131
-0.0716267
-0.0605053
-0.0159305
-0.000994762
-0.0131656
-0.0056824
0.00483685
0.0145143
0.0108818
0.000765646
0.0563732
0.082298
0.0440206
-0.0262883
-0.00534131
-0.0155969
-0.000520082
0.059467
0.113746
0.162609
0.0901696
0.103167
0.113292
0.124836
0.145648
0.117847
0.10191
0.0489034
0.0089449
-0.0131476
-0.0475059
0.192913
0.178278
0.249156
0.164465
0.146136
0.153475
0.0902431
0.0908185
0.00820997
-0.141079
0.0224193
0.125762
0.121739
-0.018575
-0.182228
-0.138951
-0.135965
-0.0685512
-0.0218757
0.0328219
-0.00389338
-0.120195
-0.197688
-0.210317
-0.201551
-0.15597
-0.195388
-0.163778
-0.193935
-0.289233
-0.256344
-0.311511
-0.124271
0.159888
0.22759
0.131595
0.0862504
0.120907
0.157664
0.186434
0.0138739
-0.0475503
0.0816955
0.182431
0.311058
0.25059
0.189531
0.141392
0.128982
0.0393431
0.0926106
0.0729292
0.0170611
0.00600146
-0.0358834
-0.0672486
-0.133113
-0.0707152
-0.0236565
-0.116208
-0.0412124
0.00601625
0.10326
-0.205793
-0.304464
-0.262299
-0.0165072
-0.0667158
-0.110819
-0.044158
-0.0394947
-0.00448398
-0.000573981
-0.00649975
-0.00877098
-0.0230731
0.0108716
0.126374
-0.0214586
-0.0240644
0.0145906
-0.00419196
0.0568142
0.0678126
0.137624
0.0530206
0.011156
0.048909
0.0946768
0.0817401
0.132274
0.147043
0.125046
0.132354
0.157948
0.168447
0.0530138
-0.0274401
-0.12265
-0.0543784
0.172793
0.194347
0.164039
0.11641
0.10967
0.0148942
0.104701
0.170104
0.119399
-0.0776287
0.0157794
0.134277
0.0995511
0.0731268
-0.0297754
-0.105015
-0.110067
-0.0479336
-0.0686273
-0.114799
-0.239634
-0.152574
-0.087032
-0.141548
-0.265353
-0.150755
-0.0967701
-0.154678
-0.242999
-0.185831
-0.186964
-0.222554
-0.142923
0.0664745
0.113981
0.101263
0.118924
0.196767
0.196456
0.0982647
-0.0217006
-0.0927576
0.0539429
0.207267
0.320863
0.356522
0.335964
0.134789
0.0608839
-0.000470717
0.0132786
0.127169
0.0799676
-0.0264066
0.0212944
-0.0498431
-0.133904
-0.129137
-0.0739587
-0.093734
-0.0349956
-0.0307122
-0.0380938
-0.0636407
-0.133191
-0.0857052
-0.072769
-0.0947595
-0.087996
-0.0874518
-0.0827453
-0.0386869
0.00678649
-0.0362947
-0.00533207
0.0264687
0.00679303
0.0103987
0.0250984
0.057107
0.108739
0.0215082
0.0770646
0.0478577
0.0603746
0.0683432
0.0827133
0.112578
0.0641962
0.0861794
0.121153
0.155112
0.17142
0.204862
0.101602
0.0672858
0.00699464
-0.0116169
-0.0544921
-0.0438422
0.195015
0.15833
0.11558
0.114064
0.147195
0.108493
0.0840278
0.131902
0.24584
0.109049
-0.112864
-0.0358501
0.0213207
-0.0494081
-0.12506
-0.0280303
0.0196769
-0.0254653
-0.0530133
-0.111243
-0.179292
-0.213702
-0.144729
-0.100487
-0.238796
-0.281614
-0.234556
-0.218039
-0.114927
-0.124359
-0.0797065
-0.130575
-0.164528
-0.0481981
0.0405544
0.169928
0.173573
0.112471
0.0822011
0.0355375
0.0485145
0.10141
0.103115
0.258811
0.258612
0.318258
0.258396
0.0992324
0.103303
0.146214
0.123923
-0.0106585
0.00497083
-0.0571515
-0.050547
-0.0517331
-0.0773773
-0.0628753
-0.0357276
-0.0503885
0.00998028
0.0470267
0.0188865
-0.0932401
-0.216921
-0.25164
-0.176956
-0.109172
-0.0472623
0.0623171
0.0651304
0.031629
-0.0743007
0.0586391
-0.0144114
-0.130368
0.0449921
0.147426
0.0984782
-0.0748538
-0.0238112
0.0333515
0.0747663
0.110069
0.0631741
0.0568164
0.0886412
0.0752582
0.108888
0.140499
0.125385
0.193185
0.205218
0.173607
0.111448
0.01273
-0.0308089
0.0259987
0.0202891
-0.00365857
0.173209
0.152732
0.107745
0.11278
0.123392
0.088478
0.0811799
0.0631812
0.00409264
0.0352842
0.108329
0.19114
0.141003
0.0207594
-0.161112
-0.180235
-0.0289253
0.0481058
-0.0902161
-0.207315
-0.0635872
-0.0723703
-0.033483
-0.32742
-0.318234
-0.150552
-0.0413646
-0.218658
-0.275963
-0.23153
-0.200395
-0.038986
0.0269572
0.0606056
0.00647061
0.118673
0.226233
0.117749
0.0755038
0.0638328
0.0865255
0.101186
0.109406
0.0347264
0.0148633
0.316894
0.355446
0.28832
0.141322
0.0555816
0.0158777
0.00440541
-0.0332677
-0.0608162
0.0375227
-0.0729998
-0.0470487
0.0124312
0.0203441
-0.0179293
-0.0791032
-0.0502622
0.0879468
0.0820961
-0.0283143
-0.254624
-0.21495
-0.136812
-0.016084
0.036642
0.0108515
-0.0803092
-0.0921548
-0.0857135
-0.0247327
0.00106502
0.0122587
0.0588113
0.14158
0.0597026
0.0653131
0.124024
0.11809
0.0546073
0.0381596
0.0698223
0.0865896
0.121612
0.113352
0.0390085
0.0573529
0.213496
0.266791
0.181812
0.036408
-0.00604328
0.0376385
0.0586258
0.088989
0.00774038
0.120853
0.131826
0.0880103
0.0738781
0.0530378
0.0332609
0.169284
0.176453
0.133812
0.0663458
-0.0391241
0.0118795
0.0918758
-0.0370836
-0.0402487
0.000715552
0.176029
0.125419
-0.113975
-0.236081
-0.427248
-0.382955
-0.13351
-0.081846
-0.206958
-0.180161
-0.106221
-0.0519775
-0.161433
-0.262989
-0.218172
-0.0541334
-0.0651318
-0.0370064
0.0503418
0.0572689
0.0867235
0.117613
0.230212
0.237339
0.0853432
-0.0450025
-0.00892147
0.133432
0.291532
0.331491
0.303378
0.219305
0.06785
0.0650639
0.0439106
-0.0746959
-0.0672651
-0.0365494
0.0360337
0.00318455
-0.0481653
-0.00943941
0.00163834
-0.0531154
-0.0648374
0.0101648
0.0489306
0.0607199
-0.0567925
-0.163637
-0.203854
-0.153893
-0.108061
-0.0422769
-0.0471659
0.0652182
0.0320935
-0.0378364
-0.00668269
0.000882441
0.023452
0.0917141
0.134298
0.0493753
0.0637709
0.0875211
0.0760495
0.0660698
0.039417
0.0888726
0.129794
0.129111
0.0552263
0.0770145
0.13471
0.161432
0.196784
0.161314
0.0388663
0.0131878
0.0137285
0.0276852
0.0231764
-0.0241497
0.120899
0.104896
0.10204
0.024814
0.0804768
0.0630729
0.140678
0.128157
0.174777
0.0669005
-0.115097
-0.0655634
0.0815765
0.152991
0.181745
0.00679863
-0.127546
-0.127039
-0.11501
-0.139806
-0.0953431
-0.063471
-0.199862
-0.160924
-0.184585
-0.100908
-0.156168
-0.159396
-0.265075
-0.250319
-0.28718
-0.138077
-0.0250868
0.0472782
0.167222
0.195208
0.130235
0.107765
0.0450682
0.0790414
0.174497
0.0599687
-0.0427931
0.0314155
0.243906
0.315841
0.231997
0.125186
0.09246
0.0602954
0.0504707
0.0281725
0.0425474
-0.00148442
-0.0158625
-0.00234581
-0.100283
-0.0747842
0.0805647
0.0829286
-0.0714203
0.0455516
0.0808698
0.0072343
-0.156201
-0.0379942
-0.12238
-0.180296
-0.142655
-0.0896776
-0.0264129
-0.00182644
-0.0358323
-0.0368397
-0.0728748
0.0507981
0.103918
0.0649176
0.0560748
0.104056
0.097324
0.118473
0.109023
0.0537477
0.0881472
0.141224
0.103184
0.07087
0.0345695
0.127364
0.122698
0.0750374
0.134254
0.134072
0.0966402
0.0459366
0.00823969
0.0168269
0.00968815
0.00481778
0.03586
0.0243264
-0.0227996
0.0914299
0.150191
0.186221
0.153991
0.0557292
0.0614308
0.0857134
0.0559261
0.0575202
0.124424
0.0473024
0.0510555
0.0247046
-0.00188881
-0.067323
-0.00439177
-0.14065
-0.429408
-0.350093
-0.211623
-0.192006
-0.119919
-0.0939534
-0.124652
-0.146832
-0.183164
-0.218933
-0.198859
-0.106926
0.0963035
0.0821378
0.0239294
-0.00645068
0.00509217
0.0955174
0.0659979
0.0832717
0.112452
0.137017
0.100171
0.093413
0.18592
0.296069
0.226887
0.0781002
0.0954687
0.128684
0.0702139
0.0067293
0.0706454
0.00575809
-0.0163422
-0.0174915
-0.0306204
-0.0438557
-0.0613096
-0.0784682
-0.020645
0.071073
0.0636083
0.0751022
-0.00649599
-0.16399
-0.159507
-0.0815244
-0.113404
-0.0827991
-0.0562486
-0.0428485
0.0410758
-0.0146627
-0.0295689
0.02398
0.0620343
0.11135
0.0939836
0.105137
0.107805
0.0282767
0.061535
0.0924026
0.0801753
0.149395
0.151594
0.0727887
0.0320273
0.0672201
0.0492092
0.130895
0.163263
0.0969485
0.0114014
0.0372812
-0.000807433
0.0272067
0.0237124
-0.00213769
0.0336887
0.0655436
0.0258567
0.0952823
0.182316
0.0243766
0.0774695
-0.0414908
0.0178685
0.0963938
0.136663
0.0596745
0.0651442
0.0335828
0.0373562
0.077066
0.193939
0.0199584
-0.264271
-0.244165
-0.201306
-0.0333958
-0.0198504
-0.190397
-0.209022
-0.181173
-0.194969
-0.20387
-0.206043
-0.183763
-0.242752
-0.180686
-0.00320368
0.0614302
0.107566
0.0692248
0.0858221
0.108273
0.00905577
-0.00455785
0.103816
0.244507
0.209747
0.193192
0.218275
0.152626
0.0753482
0.0336125
0.103285
0.0785642
0.0488362
0.0583445
0.066583
0.0244345
-0.0994502
-0.128873
-0.0451243
0.0127168
0.0414091
0.096896
0.0962484
0.00680848
-0.00934289
0.00903565
-0.154471
-0.191221
-0.155378
-0.0619267
-0.0697962
-0.00220193
0.0112191
-0.0159189
-0.0226059
-0.0440274
-0.0648124
0.0449689
0.0732338
0.042829
0.11188
0.167627
0.142771
0.106136
0.145283
0.121667
0.120128
0.0950431
0.0114597
0.0104946
-0.00141548
0.0333685
0.0389812
0.192119
0.182078
0.123572
0.0334198
0.0206362
-0.025035
-0.0104465
0.0111632
0.0332853
-0.0123021
0.0348538
0.0445813
0.0109341
0.00938776
0.0498481
0.142271
0.0488619
0.0637156
0.0366253
0.041766
0.0721432
0.0634363
0.086942
0.167943
0.159138
0.0395742
-0.124735
-0.21538
-0.22867
-0.261797
-0.0756895
-0.0410957
-0.0936233
-0.129589
-0.155254
-0.194017
-0.204494
-0.177676
-0.133661
-0.140636
-0.125698
-0.093047
-0.0579872
0.0279746
0.129671
0.11195
0.0239845
0.0255464
-0.0100442
0.0315328
0.127993
0.0963782
0.163883
0.231281
0.141334
0.158331
0.232539
0.166333
0.12147
0.0764785
0.0399338
-0.010064
-0.00557324
-0.0020211
-0.0827016
-0.108238
-0.130986
0.0169593
0.104042
0.0924608
-0.0600099
-0.0935761
-0.046615
-0.0379741
-0.0730796
-0.142924
-0.101541
-0.0210605
-0.00750796
0.0274937
0.0490608
0.00930158
-0.0366673
0.00254537
0.0408683
0.0492071
0.0687699
0.0752278
0.055833
0.03281
0.114521
0.127828
0.134714
0.153578
0.119499
0.0512423
-0.0296607
-0.0329411
0.0871473
0.0619798
0.185886
0.123157
0.0241562
-0.0300236
0.059075
0.0873455
0.0196088
-0.0217871
0.000899708
-0.00313757
-0.0392283
0.00674983
0.0699201
0.0200337
0.0799717
0.127842
0.0287622
0.0151554
-0.0187321
0.0288619
0.0519255
0.0316735
0.121314
0.140461
0.0974583
-0.0125677
-0.0920933
-0.0744002
-0.0980315
-0.11076
-0.0199155
-0.157761
-0.202859
-0.146439
-0.0976645
-0.125103
-0.192514
-0.231753
-0.208158
-0.217173
-0.178936
-0.0366858
0.0242716
0.0678666
0.152596
0.0598988
0.0385592
0.0896522
0.055486
0.00633332
0.00887951
0.122145
0.185035
0.156137
0.236504
0.200896
-0.0607365
-0.00430833
0.207869
0.12542
0.0288042
-0.00618927
-0.0201878
-0.0305261
-0.0502742
-0.0122257
0.0978554
0.0749625
-0.00254458
-0.0564065
-0.134559
-0.04894
0.00506155
-0.00918734
-0.0608804
-0.127717
-0.0877504
0.0150988
-0.0153048
-0.0159036
0.0397395
0.0286085
0.0116257
0.0388273
0.0887962
-0.000538827
0.0385367
0.0610532
0.135038
0.0393321
-0.00200781
0.104487
0.214301
0.212661
0.0521826
-0.0527712
0.0115551
0.0237597
0.0160377
0.0682775
0.0930633
0.101617
0.084311
0.0204103
0.0236991
0.0271525
0.0700004
-0.00483093
-0.0105597
0.0315172
-0.00722143
-0.125053
-0.0298286
0.0248324
0.0167735
0.0427436
-0.00291396
-0.0327877
0.0551636
0.0377131
0.0260824
-0.0154853
0.0616573
0.207051
0.13269
-0.00797827
0.0132372
-0.0604737
-0.101072
-0.0891973
-0.082702
-0.0756321
-0.0993947
-0.126433
-0.161048
-0.158758
-0.188443
-0.251246
-0.176002
-0.175068
-0.130069
-0.179695
0.0137182
0.0563585
0.117496
0.103692
-0.0876995
0.012005
0.0857971
0.0644531
0.128822
0.0562714
0.0914847
0.118072
0.205649
0.18593
0.130232
0.130071
0.0511598
-0.00631416
0.077306
0.0810544
0.0596317
-0.0296274
-0.0802202
-0.0627927
-0.0148326
0.073889
0.044754
-0.0722437
-0.103386
-0.0571843
-0.0359485
-0.0794223
-0.0733523
-0.122557
-0.0255009
0.0257653
-0.0057749
0.0527517
0.014748
0.0987003
0.075838
0.0238413
-0.00404348
0.0146922
0.0099608
0.0449601
0.1365
0.130022
0.0924022
0.111949
0.117313
0.0903555
0.0508567
-0.0178713
0.00389173
0.0251426
0.0168209
0.0062762
0.100255
0.132253
0.054408
0.0281033
0.0466955
0.025689
0.0339579
0.0379145
0.0197271
0.0127735
-0.0431262
-0.0538725
-0.0367902
-0.00693894
-0.0326248
-0.0323915
-0.0105579
0.014964
-0.0207716
-0.0400855
-0.0301887
-0.00675028
0.051134
0.159965
0.281832
0.093314
-0.105645
-0.0682988
-0.0155154
-0.044551
-0.0800597
0.00362604
-0.0509264
-0.0745927
-0.227446
-0.194316
-0.22378
-0.186338
-0.123491
-0.121366
-0.113607
-0.0911701
-0.144704
-0.0361339
0.13732
0.191983
0.076962
-0.040378
-0.103735
0.0136058
0.107255
0.106525
0.111614
0.146551
0.109557
0.169707
0.0737634
-0.00877172
-0.00935026
0.0726175
0.178867
0.118865
0.0368605
-0.00807138
-0.0462466
0.016391
-0.0808551
-0.0684429
0.0255922
0.0431329
-0.0326671
-0.13763
-0.11991
-0.000636342
-0.0242863
-0.0930118
-0.0398898
0.0312567
0.00579831
-0.0325907
0.0425481
0.10695
0.0901839
0.0429142
0.0562239
0.0646406
0.0339053
0.00932174
-0.0112077
0.062204
0.142682
0.16012
0.156588
0.0681714
0.0797416
0.0545123
-0.00723519
0.00604894
0.0124721
-0.0900786
-0.0018415
0.0579164
0.109814
0.0176088
0.0433143
0.0223471
0.00785526
0.136852
0.0413853
-0.0352847
-0.0526584
-0.0835029
-0.086749
-0.0961697
-0.0597354
0.0201879
-0.034682
-0.0585114
-0.00988875
0.001761
0.0547526
-0.0314693
0.03005
0.132516
0.124505
0.0117059
0.0336023
0.0787186
0.0893222
0.00916257
-0.190317
-0.115679
-0.00744185
0.118881
0.0655092
-0.178754
-0.437684
-0.31747
-0.189705
-0.268924
-0.155084
-0.0325998
0.0275731
0.181486
0.0577456
-0.0439643
-0.0839811
-0.0639816
-0.0387528
0.0885702
0.138208
0.15037
0.151185
0.111705
0.0531642
0.0804823
0.14164
0.0643359
0.0219433
-0.0076105
0.0278038
0.0906037
0.0339427
0.0618775
0.0183384
-0.000565315
0.0630995
0.0757856
0.00620091
-0.111597
-0.160099
-0.171464
-0.0496445
-0.000885938
-0.0649192
-0.0711179
-0.0681436
0.0259236
0.000711982
0.00130297
0.161087
0.104449
0.0879974
-0.00783529
-0.0143804
0.00897336
0.0845945
0.0669176
0.0829827
0.124696
0.123148
0.0660436
0.0470888
0.0609341
0.053535
0.0583359
0.0121467
-0.0301746
-0.00116913
0.0386169
0.0403186
-0.00679746
0.0663782
0.0686315
0.0296016
0.0208048
-0.0275783
-0.0326331
0.00192123
-0.0618252
-0.0733728
-0.0677613
-0.0131883
-0.0710531
-0.0824693
-0.0677621
-0.0665118
-0.111515
-0.00661074
-0.0260357
-0.00922287
0.0015626
0.0604297
0.0846241
0.0423763
0.0651187
0.111458
0.0440204
0.063122
0.0684343
0.0966058
0.0113848
-0.0974259
-0.155403
-0.131074
-0.0641205
-0.116846
-0.111624
-0.203843
-0.187117
-0.0434924
-0.14429
-0.124256
-0.0160506
0.0232769
0.0146563
-0.0241822
-0.0212612
0.0484945
0.00565646
0.0490262
0.0801431
0.104636
0.099732
0.131215
0.0185216
-0.0297601
0.0854584
0.0753808
0.0311306
0.0350626
0.0647925
0.0617972
0.0958721
0.0648121
0.0233015
0.0718567
0.0757356
-0.0112698
-0.059705
-0.0755213
-0.162772
-0.119506
-0.0657723
-0.0211162
-0.0361653
-0.0270375
0.0188024
0.0278311
0.101091
0.0847676
-0.00266287
-0.013814
0.030667
0.0587518
0.0361626
0.0961591
0.0519749
0.0415311
0.104107
0.107306
0.175997
0.221409
0.0826254
-0.0600785
-0.0298097
-0.00662346
0.0248415
0.00852389
-0.000692088
-0.0612197
-0.13464
-0.0683853
0.158525
0.146088
0.0722418
-0.072119
-0.104654
-0.0335521
-0.0766007
-0.0890769
-0.14504
-0.101235
-0.165583
-0.144532
-0.0170432
0.00234413
-0.118605
-0.0487285
-0.00904004
0.0252498
0.0135044
0.0382379
0.121623
0.226408
0.104184
0.0943122
0.14729
0.10248
0.0216028
-0.0527589
0.0105256
-0.0141007
-0.0977056
-0.022298
0.0568319
-0.104386
-0.316649
-0.203926
-0.0641617
-0.0689258
-0.120991
-0.0715579
-0.0820192
-0.0557258
-0.0962399
-0.0629356
-0.012167
0.0161861
0.0405836
0.10091
0.0787806
0.0859856
0.0538888
0.0877663
0.0837609
-0.0165447
0.055629
0.0753768
0.0884194
0.0856346
0.0779359
0.108485
0.0783623
0.0187623
0.0665233
0.176927
0.0695316
-0.0991403
-0.18716
-0.185402
-0.169043
-0.0997131
0.0280898
0.137646
0.0320655
-0.0704727
-0.209024
-0.100232
0.135609
0.16634
0.07609
-0.0151794
0.0698831
0.115602
0.0694103
0.0303624
0.0121315
0.0716285
0.0579905
0.117173
0.117018
0.0558214
0.0624362
0.0588709
-0.0160084
-0.00533863
0.14413
0.0941927
-0.00633728
-0.0615509
-0.0903806
-0.12063
0.0094411
0.0740558
0.0627373
-0.0513807
-0.119234
-0.0565504
-0.0725726
-0.0355449
-0.234194
-0.175456
-0.00061657
-0.0421572
-0.0808466
-0.0294315
-0.0525098
-0.13591
-0.160629
-0.0412655
0.0945282
0.0541078
0.0434725
0.0523363
0.131219
0.0768091
0.146877
0.194516
0.185075
0.0334308
0.00794045
-0.0561643
-0.0721565
-0.0693534
-0.0754716
0.040938
0.0969957
-0.0631643
-0.179035
-0.187471
-0.109878
-0.0731169
-0.164811
-0.139299
-0.0582008
-0.0304962
0.0264227
0.0395129
-0.0209874
0.018334
0.0677101
0.0322795
0.0290608
0.109195
0.155449
0.0730529
-0.0558996
-0.00574727
0.10782
0.0349712
0.0845619
0.0283476
-0.0725112
0.15823
0.230907
0.119694
-0.0575589
-0.0829003
-0.111833
-0.078199
-0.0161277
-0.0594599
-0.072712
-0.0938091
-0.00699627
0.0312036
-0.0499257
0.0760017
0.127011
0.060344
0.0522844
0.0562386
0.0646207
0.0236607
0.0904021
0.0666117
-0.0411147
0.00123005
0.0879634
0.185156
0.218143
0.105471
0.0233727
0.0509881
-0.0682631
-0.0444188
0.0920658
0.0515598
-0.0702512
-0.0808501
-0.0408624
0.0259501
0.0222525
0.0433365
0.016001
-0.0638115
-0.0831045
-0.0284178
-0.153029
-0.192126
-0.158524
-0.126225
-0.163581
-0.110762
-0.0969925
-0.0685033
-0.0299683
-0.108931
-0.0873737
0.0629793
0.0516535
0.0334043
0.0984805
0.138251
0.160791
0.157254
0.244197
0.252367
0.0600638
-0.0103213
0.0141935
0.0184715
0.0212053
0.00605646
-0.037844
0.00483923
0.0102472
-0.0268041
-0.1034
-0.191623
-0.13944
-0.0650402
-0.0527678
-0.147309
-0.196178
-0.108383
0.00879401
-0.00268488
-0.0381117
0.00209156
0.00856566
0.0109691
0.0692506
0.1265
0.0746654
0.0195782
0.0273081
0.0653854
0.0101656
0.113783
0.0681028
0.0697281
0.0788375
0.0518894
0.0580331
0.0441293
-0.004468
-0.00209932
0.0269203
-0.088787
-0.114756
-0.125
-0.160831
-0.0738167
0.0158153
0.0269343
0.0697138
0.0482398
0.0207582
0.0591387
0.0898673
0.12333
0.107141
0.13153
0.120947
0.0300126
-0.116994
-0.0497233
0.0271505
0.0460881
0.173248
0.13391
0.0955956
-0.0136586
-0.0455201
-0.0163709
0.0651461
0.0747715
0.0346336
-0.0505065
-0.0828109
-0.0815081
-0.0202027
0.0207898
0.0205464
-0.0477835
-0.0752787
0.00194999
-0.144761
-0.162432
-0.089552
-0.0874293
-0.134372
-0.209301
-0.329023
-0.213312
-0.10221
-0.00178935
0.0268147
0.186706
0.145704
0.0785762
-0.0162982
-0.0378484
0.161802
0.354703
0.203699
-0.00859934
-0.030456
0.0469526
0.207381
0.162654
0.0591973
0.031065
0.028174
0.00662829
0.0437832
-0.0323508
-0.0992312
-0.175307
-0.237117
-0.249832
-0.16763
-0.0387532
-0.0485692
-0.0421577
0.047564
0.0773263
-0.0310889
-0.126467
-0.0526223
-0.0546873
-0.0302377
0.0374135
0.132882
0.115769
0.0586527
0.0233913
-0.0319623
0.0646292
0.0986366
0.13227
0.097104
0.0644067
0.0238715
-0.0495228
-0.0402261
0.0116209
0.0361929
-0.0392241
-0.0381171
-0.0513703
-0.0860505
-0.142995
-0.178957
-0.0183655
0.0532311
0.207677
0.16985
0.090887
0.0108289
0.040317
0.0886855
0.074238
0.0830599
0.0400054
0.0609003
-0.010283
0.000702018
0.0608786
0.0981742
0.151632
0.06615
-0.0506486
-0.00972221
0.0255499
0.0354191
0.0366579
0.050669
-0.0510797
-0.112694
-0.105825
-0.0110983
0.0344155
0.0148149
-0.0766091
-0.058894
-0.0210588
-0.216628
-0.193076
-0.159274
-0.145301
-0.141279
-0.177909
-0.199399
-0.205884
-0.163428
-0.0568347
0.0688775
0.15352
0.0377177
0.0294294
0.0900895
0.0970386
0.173142
0.15412
0.124846
0.195631
0.221924
0.186973
0.120964
0.056439
0.0483011
0.0867753
0.0877769
0.0403542
0.0190686
-0.0748361
-0.0630881
-0.146017
-0.190771
-0.1452
-0.135508
-0.12222
-0.0734076
-0.0751338
-0.018439
-0.115341
-0.132547
-0.090608
-0.04802
-0.051348
-0.0148438
0.0644067
0.125973
0.128299
0.00400354
0.00151263
0.0988339
0.169049
0.0512057
-0.0710985
-0.0264161
0.0788442
0.130484
0.0557256
0.0180544
0.035272
-0.0382529
-0.0514813
-0.0890468
0.0221186
-0.00964217
-0.226405
-0.23698
-0.0267484
0.0867342
0.13121
0.110128
0.0632304
0.0190815
0.0287173
0.127516
0.147006
0.147751
0.0659079
-0.0669444
-0.0962596
-0.0459337
0.0493411
0.0740117
0.0887273
-0.00804204
-0.0388221
0.0197695
-0.0224651
0.0225166
0.0979909
0.049247
-0.0581118
-0.0824836
-0.0825041
0.00913739
0.00336687
-0.0341529
-0.0477283
-0.0532598
-0.0218388
-0.206582
-0.20984
-0.180089
-0.197382
-0.201259
-0.145496
-0.109403
-0.112579
-0.158754
-0.148477
-0.0328032
1.60589e-05
0.079353
0.105938
0.164918
0.149332
0.106892
0.233815
0.241999
0.124456
0.13261
0.0906862
0.098776
0.0689912
0.126754
0.138954
0.0966202
0.159959
0.000298322
-0.173302
-0.106108
-0.107124
-0.119274
-0.144351
-0.112343
-0.114427
-0.0759868
0.0246015
-0.0324136
-0.0864093
-0.0915846
-0.136789
-0.123667
-0.113166
-0.0677173
-0.0336229
0.0509103
0.182771
0.0690814
0.0379564
0.0442056
0.120331
0.143469
0.134337
0.0232039
-0.0662675
0.0163258
0.0516891
0.0755626
0.0730773
-0.00494445
-0.0222125
-0.104527
-0.0907638
-0.0192112
-0.0489318
-0.0902767
-0.104915
-0.011664
0.0638964
0.0705079
0.0189159
0.00468879
-0.0213978
0.0987886
0.244741
0.17773
-0.0162705
-0.120026
-0.0446901
0.116964
0.0272421
0.020205
0.0445261
-0.0813774
-0.0403669
0.0261807
-0.0187256
0.0251102
0.0677655
0.0662689
-0.025145
-0.0564201
-0.0602745
-0.0852338
-0.0380347
-0.0863518
-0.0572332
-0.0203534
0.000795598