/*--------------------------------*- C++ -*----------------------------------*\
| =========                 |                                                 |
| \\      /  F ield         | OpenFOAM: The Open Source CFD Toolbox           |
|  \\    /   O peration     | Version:  v2012                                 |
|   \\  /    A nd           | Website:  www.openfoam.com                      |
|    \\/     M anipulation  |                                                 |
\*---------------------------------------------------------------------------*/
FoamFile
{
    version     2.0;
    format      ascii;
    class       volVectorField;
    location    "70";
    object      Usup;
}
// * * * * * * * * * * * * * * * * * * * * * * * * * * * * * * * * * * * * * //

dimensions      [0 1 -1 0 0 0 0];


internalField   nonuniform List<vector> 
4000
(
(-0.000212496 0.00568662 0)
(-0.000144425 0.0076021 0)
(-0.00241082 0.0158508 0)
(-0.00131196 0.0254775 0)
(0.0105724 0.031716 0)
(0.0171727 0.0256468 0)
(0.0135975 0.0199097 0)
(0.0154013 0.022121 0)
(0.016778 0.0283381 0)
(0.00774504 0.0317512 0)
(0.00666137 0.0311994 0)
(0.0248706 0.0352752 0)
(0.0363601 0.0229768 0)
(0.0221142 0.00839742 0)
(0.00217361 0.0120112 0)
(0.004466 0.0170627 0)
(0.00104109 -0.000663292 0)
(-0.013579 0.00329755 0)
(-0.00971316 0.0104881 0)
(0.00919504 0.00889056 0)
(0.0166669 0.00154889 0)
(0.00711328 -0.00862478 0)
(-0.00611843 -0.0112261 0)
(-0.0114469 -0.0102929 0)
(0.00415364 -0.0142067 0)
(0.0140914 -0.0167174 0)
(0.00894302 -0.0149098 0)
(-0.00423415 -0.0121195 0)
(-0.0205031 -0.010837 0)
(-0.0233743 -0.00420836 0)
(-0.0116822 -0.0110998 0)
(-0.00608834 -0.0118532 0)
(-0.0129898 -0.0112703 0)
(-0.0127527 -0.00649146 0)
(-0.00761913 -0.0124447 0)
(0.00482154 -0.00747404 0)
(0.0161947 -0.0145422 0)
(0.0152678 -0.0198191 0)
(0.00954295 -0.0175268 0)
(0.00929439 -0.00147706 0)
(0.0133057 -6.75059e-05 0)
(0.00392372 -0.00265954 0)
(-0.00846956 0.00254559 0)
(-0.0107233 0.00362725 0)
(-0.00163397 0.00353824 0)
(0.00607458 0.0123623 0)
(0.00583445 0.014047 0)
(0.00833276 0.0119689 0)
(0.00119419 0.00954368 0)
(-0.00448833 0.0143667 0)
(-0.00537359 0.0114131 0)
(-0.0159331 0.0112543 0)
(-0.0236902 0.0138823 0)
(-0.0212395 0.0193657 0)
(-0.0148578 0.0172579 0)
(-0.0137573 0.00840896 0)
(-0.00984371 0.00568417 0)
(-0.000893426 0.00952855 0)
(0.0127085 0.0158223 0)
(0.0139677 0.0120395 0)
(0.00218592 0.0125031 0)
(-0.000420434 0.00610806 0)
(0.00237267 0.00386797 0)
(0.0111681 0.0144212 0)
(0.0240697 0.0164187 0)
(0.0281193 0.0133373 0)
(0.0236679 0.00858068 0)
(0.0195979 0.00464628 0)
(0.0180612 0.00414399 0)
(0.0078868 0.000912505 0)
(-0.00837892 0.000696296 0)
(-0.0230571 0.00117074 0)
(-0.0304748 0.0015579 0)
(-0.0282563 -0.00483701 0)
(-0.0251778 -0.0117815 0)
(-0.0198189 -0.0135443 0)
(-0.0114951 -0.0101623 0)
(-0.00188024 -0.0054686 0)
(0.009179 0.00204068 0)
(0.0221283 0.00646791 0)
(0.029173 0.00186378 0)
(0.024433 0.00131453 0)
(0.0159783 0.00316016 0)
(0.00973586 0.00599577 0)
(0.00511599 0.00502086 0)
(0.00364078 0.00213518 0)
(-0.00115096 -0.00134647 0)
(-0.0111488 -0.00180233 0)
(-0.0226169 -0.000208232 0)
(-0.0259561 0.00566319 0)
(-0.0204769 0.00157398 0)
(-0.0178086 0.00162626 0)
(-0.0133076 0.00457946 0)
(-0.00768164 -0.00122439 0)
(0.00136306 -0.00191383 0)
(0.0169479 0.00076723 0)
(0.0255442 0.00170579 0)
(0.0205598 -0.00308182 0)
(0.0116958 -0.00155488 0)
(0.00357275 0.000222441 0)
(-0.00526704 0.0150886 0)
(-0.00394246 0.0326476 0)
(0.00175418 0.0520627 0)
(0.00755288 0.0707612 0)
(0.0217669 0.082979 0)
(0.0291148 0.0770351 0)
(0.0327004 0.0738412 0)
(0.0457398 0.077225 0)
(0.048804 0.0829024 0)
(0.0292285 0.0915183 0)
(0.0306937 0.0925135 0)
(0.0565281 0.0962136 0)
(0.0634175 0.0635308 0)
(0.0475416 0.0376787 0)
(0.0223265 0.0391962 0)
(0.00364777 0.042942 0)
(-0.0077258 0.0136588 0)
(-0.0159275 0.0149558 0)
(-0.0122693 0.0218584 0)
(0.0125729 0.0185569 0)
(0.021165 0.00115567 0)
(0.00670668 -0.0205656 0)
(-0.0111816 -0.0281198 0)
(-0.0216878 -0.0290374 0)
(0.00377459 -0.0389904 0)
(0.0265064 -0.0445025 0)
(0.0193751 -0.0489816 0)
(-0.00985531 -0.0453218 0)
(-0.0405751 -0.0442827 0)
(-0.053953 -0.0306472 0)
(-0.0389193 -0.0340366 0)
(-0.0222024 -0.0373942 0)
(-0.0279993 -0.0321022 0)
(-0.0305512 -0.0215367 0)
(-0.0168866 -0.0313328 0)
(0.00960306 -0.0245251 0)
(0.02637 -0.0401745 0)
(0.0341645 -0.0436935 0)
(0.0401897 -0.0377344 0)
(0.0380392 -0.0134335 0)
(0.0282921 -0.0118945 0)
(0.0114058 -0.00758845 0)
(-0.0108779 0.0029983 0)
(-0.0200191 0.00944313 0)
(0.00256872 0.016167 0)
(0.0195208 0.0311494 0)
(0.0129597 0.0355655 0)
(0.0127649 0.0343399 0)
(0.00323823 0.0324998 0)
(-0.0107165 0.0395549 0)
(-0.0211005 0.0359254 0)
(-0.0392576 0.0367423 0)
(-0.0513593 0.0440984 0)
(-0.0511305 0.0482745 0)
(-0.0489234 0.0379182 0)
(-0.0436348 0.0300453 0)
(-0.0227226 0.0331465 0)
(0.0053818 0.0398271 0)
(0.0277313 0.0419677 0)
(0.027645 0.0331659 0)
(0.00581309 0.031591 0)
(-0.00107628 0.023803 0)
(0.0188276 0.0209498 0)
(0.0420997 0.0404516 0)
(0.0589406 0.0426516 0)
(0.0636706 0.0341556 0)
(0.0550559 0.0234109 0)
(0.0480195 0.018029 0)
(0.0398364 0.0113173 0)
(0.0143725 0.00392815 0)
(-0.0207276 0.00303936 0)
(-0.0545886 0.00337489 0)
(-0.0780145 -0.00225682 0)
(-0.0813944 -0.0165776 0)
(-0.0704622 -0.026536 0)
(-0.0488439 -0.025867 0)
(-0.023004 -0.0239034 0)
(0.00487283 -0.0188068 0)
(0.0325154 0.000203474 0)
(0.0530682 0.0151731 0)
(0.0652651 0.00833602 0)
(0.0617178 0.00690783 0)
(0.0462249 0.00659616 0)
(0.0286541 0.00773963 0)
(0.0120512 0.00914318 0)
(0.00280099 0.00516202 0)
(-0.00924263 -0.000332197 0)
(-0.0290313 0.00129384 0)
(-0.0493467 0.00138043 0)
(-0.0619273 0.00911796 0)
(-0.0566741 0.00421667 0)
(-0.0437635 0.00471533 0)
(-0.0359518 0.00889668 0)
(-0.0228098 -0.00110782 0)
(0.00670152 6.72189e-05 0)
(0.0414861 0.00303279 0)
(0.0546928 0.00384684 0)
(0.0462796 -0.0057217 0)
(0.0314719 -0.000864285 0)
(0.00973206 -0.0012848 0)
(-0.00613285 0.0279514 0)
(-0.00580227 0.0633868 0)
(0.00139902 0.0919026 0)
(0.011483 0.115404 0)
(0.0295848 0.125195 0)
(0.0425627 0.132142 0)
(0.0508856 0.140874 0)
(0.0645723 0.143111 0)
(0.07201 0.131108 0)
(0.0533368 0.137749 0)
(0.0534366 0.145986 0)
(0.0707925 0.145733 0)
(0.0731971 0.10502 0)
(0.0639126 0.0752166 0)
(0.0352394 0.0660846 0)
(0.00326951 0.061457 0)
(-0.0149842 0.0427268 0)
(-0.0205691 0.0364502 0)
(-0.0145326 0.0375038 0)
(0.0104053 0.0272827 0)
(0.015249 -0.00421401 0)
(0.000718307 -0.0280985 0)
(-0.0162759 -0.038971 0)
(-0.029672 -0.0500351 0)
(-0.000431505 -0.0631058 0)
(0.0251812 -0.0802965 0)
(0.0169002 -0.0838287 0)
(-0.0172895 -0.0815047 0)
(-0.0532806 -0.0783249 0)
(-0.0674194 -0.0629224 0)
(-0.0564268 -0.0575641 0)
(-0.0358098 -0.0623903 0)
(-0.0348974 -0.0517186 0)
(-0.0409311 -0.0379013 0)
(-0.0237146 -0.0358803 0)
(0.00869877 -0.0414719 0)
(0.0334657 -0.0559548 0)
(0.0529212 -0.0527548 0)
(0.0627403 -0.0440627 0)
(0.0567784 -0.0304912 0)
(0.0440995 -0.0265755 0)
(0.0249518 -0.0144031 0)
(-0.0052872 -0.00157452 0)
(-0.0155086 0.0151278 0)
(0.0108632 0.039053 0)
(0.0287237 0.0436274 0)
(0.0194948 0.0508644 0)
(0.0168572 0.0501699 0)
(0.00371223 0.0461452 0)
(-0.0169073 0.0579172 0)
(-0.0338368 0.0717173 0)
(-0.0552118 0.0770137 0)
(-0.0740027 0.0792609 0)
(-0.0831826 0.0723888 0)
(-0.0756414 0.0618642 0)
(-0.0554876 0.0646689 0)
(-0.026696 0.0720984 0)
(0.00285117 0.0698467 0)
(0.0280947 0.0623511 0)
(0.0327419 0.0464435 0)
(0.011741 0.0363268 0)
(0.00592229 0.0406186 0)
(0.037267 0.0461381 0)
(0.0684909 0.0627906 0)
(0.0828021 0.0608966 0)
(0.0866415 0.0510957 0)
(0.0791927 0.0442985 0)
(0.0671388 0.0371461 0)
(0.0496394 0.0207932 0)
(0.0163648 0.00873299 0)
(-0.0306886 0.00235265 0)
(-0.0820197 -0.0051772 0)
(-0.119375 -0.0107331 0)
(-0.122102 -0.0161837 0)
(-0.10058 -0.0245198 0)
(-0.0711102 -0.0259899 0)
(-0.0369838 -0.0272985 0)
(0.0121072 -0.0242709 0)
(0.0596298 -0.00589357 0)
(0.0812237 0.0122012 0)
(0.0910767 0.0206116 0)
(0.0865138 0.0154794 0)
(0.0648988 0.0114882 0)
(0.0439876 0.00580628 0)
(0.0213127 0.00981188 0)
(0.00259737 0.0139586 0)
(-0.0148586 0.00643391 0)
(-0.0437634 0.00616044 0)
(-0.07285 0.00251276 0)
(-0.0887323 0.00602023 0)
(-0.0829942 0.00647328 0)
(-0.0646254 0.0088848 0)
(-0.0540134 0.00870005 0)
(-0.0320531 0.00442946 0)
(0.0112617 0.0096041 0)
(0.0557321 0.00922142 0)
(0.0715034 0.00349425 0)
(0.0640626 -0.00574505 0)
(0.0443588 -0.0032919 0)
(0.0136275 -0.00194586 0)
(-0.0107763 0.0418848 0)
(-0.011294 0.0948665 0)
(0.00231886 0.132212 0)
(0.0121424 0.165593 0)
(0.0342408 0.17142 0)
(0.056743 0.181876 0)
(0.0659986 0.194137 0)
(0.070332 0.196955 0)
(0.0803514 0.184949 0)
(0.0764024 0.175005 0)
(0.0781123 0.186446 0)
(0.0795169 0.189678 0)
(0.0695311 0.145247 0)
(0.0661505 0.111167 0)
(0.0422633 0.0946211 0)
(0.00496537 0.0907555 0)
(-0.0179877 0.0746884 0)
(-0.0206027 0.060165 0)
(-0.0177702 0.0545513 0)
(-0.00655708 0.0362534 0)
(-0.0030625 -0.00172497 0)
(-0.00810149 -0.027464 0)
(-0.02599 -0.0487487 0)
(-0.041563 -0.071272 0)
(-0.0146523 -0.0921918 0)
(0.0186667 -0.121572 0)
(0.0188849 -0.120721 0)
(-0.0206683 -0.110447 0)
(-0.057446 -0.0934576 0)
(-0.0754171 -0.0811457 0)
(-0.0714053 -0.0769209 0)
(-0.0460409 -0.0800342 0)
(-0.0361102 -0.0719646 0)
(-0.0393676 -0.0559802 0)
(-0.0286184 -0.0435924 0)
(0.00141687 -0.0564989 0)
(0.0380862 -0.0626636 0)
(0.0680922 -0.0602547 0)
(0.0808921 -0.049272 0)
(0.0731205 -0.0401297 0)
(0.0584559 -0.0316424 0)
(0.0381661 -0.0244285 0)
(0.00840666 -0.00539637 0)
(0.0036774 0.0224685 0)
(0.0216389 0.0492904 0)
(0.0319407 0.0491873 0)
(0.0231993 0.0592427 0)
(0.0127033 0.0654679 0)
(0.00446796 0.0623365 0)
(-0.00636892 0.0773328 0)
(-0.0316324 0.0982491 0)
(-0.0701841 0.106735 0)
(-0.099373 0.105797 0)
(-0.10852 0.106259 0)
(-0.093158 0.108207 0)
(-0.0663736 0.109047 0)
(-0.0374571 0.106902 0)
(-0.00522257 0.0968008 0)
(0.0216492 0.0860885 0)
(0.0259714 0.0612982 0)
(0.0179008 0.0405984 0)
(0.0238139 0.0498304 0)
(0.0598294 0.0649051 0)
(0.0898789 0.072044 0)
(0.100128 0.0736693 0)
(0.107154 0.066907 0)
(0.097521 0.0655417 0)
(0.0746456 0.0527739 0)
(0.0491758 0.0316492 0)
(0.0100703 0.0108412 0)
(-0.047241 -0.0033824 0)
(-0.10363 -0.0122626 0)
(-0.139891 -0.00901501 0)
(-0.148635 -0.0121825 0)
(-0.129852 -0.0159981 0)
(-0.0913734 -0.0229645 0)
(-0.0450305 -0.024519 0)
(0.0179011 -0.0170307 0)
(0.0781949 -0.00271585 0)
(0.110382 0.00856012 0)
(0.115953 0.0196158 0)
(0.102178 0.0209652 0)
(0.0774511 0.0180237 0)
(0.0542761 0.0106125 0)
(0.0330849 0.0158238 0)
(0.00354458 0.0218638 0)
(-0.0258344 0.017162 0)
(-0.0591252 0.0101993 0)
(-0.0911206 0.0014674 0)
(-0.107356 0.00128613 0)
(-0.100801 0.00698452 0)
(-0.0814578 0.0174578 0)
(-0.0674564 0.0158503 0)
(-0.0355295 0.0157703 0)
(0.0149467 0.0142377 0)
(0.060132 0.0163785 0)
(0.0772124 0.00460053 0)
(0.072549 -0.00658124 0)
(0.054145 -0.00872423 0)
(0.0177662 -0.00314367 0)
(-0.0110487 0.0490643 0)
(-0.0144221 0.124894 0)
(0.00165771 0.174478 0)
(0.00924752 0.210453 0)
(0.0297197 0.218062 0)
(0.0630321 0.216768 0)
(0.0766916 0.218638 0)
(0.0803801 0.229232 0)
(0.083737 0.23929 0)
(0.0859117 0.225486 0)
(0.10062 0.227369 0)
(0.0831157 0.217865 0)
(0.0599416 0.182717 0)
(0.0649627 0.150844 0)
(0.048104 0.126521 0)
(0.00737121 0.111752 0)
(-0.0265399 0.0961534 0)
(-0.0299918 0.0856923 0)
(-0.026617 0.0645627 0)
(-0.0214214 0.0330324 0)
(-0.02018 0.00181818 0)
(-0.0255014 -0.0223528 0)
(-0.0451474 -0.0563112 0)
(-0.0607249 -0.0921025 0)
(-0.0352678 -0.113137 0)
(0.00628072 -0.136571 0)
(0.0217839 -0.140401 0)
(-0.0102258 -0.129137 0)
(-0.0543607 -0.105538 0)
(-0.0825704 -0.0942819 0)
(-0.0820588 -0.0882107 0)
(-0.0558213 -0.0886794 0)
(-0.0378417 -0.0771944 0)
(-0.0353285 -0.0641038 0)
(-0.0307459 -0.0615966 0)
(-0.00133785 -0.0706375 0)
(0.0438368 -0.0710126 0)
(0.0805356 -0.0657358 0)
(0.0959389 -0.0564215 0)
(0.0866702 -0.0460229 0)
(0.0691029 -0.0304495 0)
(0.0513918 -0.0339955 0)
(0.0298663 -0.0137446 0)
(0.0224765 0.019231 0)
(0.0294892 0.03951 0)
(0.0372549 0.0506808 0)
(0.0330237 0.0594689 0)
(0.0183418 0.0759223 0)
(0.00596838 0.0826633 0)
(-0.00439731 0.0946478 0)
(-0.0339995 0.103689 0)
(-0.0793464 0.116213 0)
(-0.109188 0.130304 0)
(-0.116459 0.140663 0)
(-0.10454 0.152837 0)
(-0.0805993 0.155461 0)
(-0.0505611 0.14495 0)
(-0.0162864 0.1299 0)
(0.00841343 0.105531 0)
(0.0118355 0.0682678 0)
(0.0183221 0.0494115 0)
(0.0418951 0.0545068 0)
(0.077538 0.0673007 0)
(0.10709 0.0674667 0)
(0.119005 0.0806752 0)
(0.124171 0.0770977 0)
(0.11003 0.0738139 0)
(0.0762404 0.0580138 0)
(0.0412737 0.0405037 0)
(-0.00296855 0.0199532 0)
(-0.0596402 -0.00198295 0)
(-0.114669 -0.00991004 0)
(-0.158618 -0.0102964 0)
(-0.1699 -0.0199696 0)
(-0.14795 -0.0176539 0)
(-0.108091 -0.0151948 0)
(-0.0503457 -0.0162766 0)
(0.0259243 -0.00823229 0)
(0.0921207 0.00925979 0)
(0.124784 0.0160694 0)
(0.135029 0.0134319 0)
(0.1205 0.0197722 0)
(0.0870947 0.0171644 0)
(0.0638837 0.0172435 0)
(0.0415749 0.0223413 0)
(0.00534556 0.0242373 0)
(-0.033058 0.0266774 0)
(-0.0768709 0.016713 0)
(-0.110967 0.00444599 0)
(-0.121239 0.00317226 0)
(-0.106879 0.0158157 0)
(-0.0887807 0.0291857 0)
(-0.0773076 0.0279494 0)
(-0.0438901 0.0238581 0)
(0.0141318 0.0173819 0)
(0.0632609 0.0155108 0)
(0.0761145 0.0036925 0)
(0.0747451 -0.00531899 0)
(0.0595794 -0.0058908 0)
(0.0224457 -0.00510527 0)
(-0.00849018 0.0567307 0)
(-0.0109154 0.146456 0)
(0.000831255 0.204928 0)
(0.00273402 0.239172 0)
(0.017003 0.259071 0)
(0.0511143 0.25682 0)
(0.0810476 0.246267 0)
(0.100247 0.25363 0)
(0.0987557 0.266086 0)
(0.0936396 0.269327 0)
(0.103047 0.267633 0)
(0.0811683 0.230118 0)
(0.0555868 0.210334 0)
(0.0564148 0.177413 0)
(0.0385166 0.150105 0)
(0.000960635 0.130308 0)
(-0.024626 0.111719 0)
(-0.0352922 0.0978042 0)
(-0.0488658 0.0697035 0)
(-0.0439495 0.0388128 0)
(-0.0347686 0.00549765 0)
(-0.0438239 -0.035031 0)
(-0.0733044 -0.0743066 0)
(-0.0814404 -0.103151 0)
(-0.0461552 -0.119502 0)
(-0.00175746 -0.134246 0)
(0.019691 -0.136504 0)
(-0.00616224 -0.135009 0)
(-0.0492113 -0.119353 0)
(-0.0835652 -0.0946633 0)
(-0.0883503 -0.0827844 0)
(-0.0572395 -0.0830079 0)
(-0.0344518 -0.08061 0)
(-0.0397037 -0.075324 0)
(-0.03871 -0.0737866 0)
(-0.00330089 -0.072365 0)
(0.0503847 -0.0710283 0)
(0.0913388 -0.0706092 0)
(0.108997 -0.0634247 0)
(0.104935 -0.0501214 0)
(0.0774239 -0.0330964 0)
(0.0564411 -0.0368087 0)
(0.0493848 -0.0178751 0)
(0.0423459 0.0139124 0)
(0.0440564 0.0320258 0)
(0.0463334 0.04301 0)
(0.0409057 0.0480203 0)
(0.0265735 0.0659668 0)
(0.0107181 0.0883916 0)
(-0.00399427 0.105713 0)
(-0.0347523 0.113852 0)
(-0.074992 0.134234 0)
(-0.10912 0.154811 0)
(-0.119777 0.171748 0)
(-0.107068 0.185763 0)
(-0.0915591 0.193002 0)
(-0.0683643 0.172624 0)
(-0.0380151 0.148318 0)
(-0.0197054 0.109741 0)
(-0.0056941 0.0721939 0)
(0.0211101 0.061367 0)
(0.0540098 0.0642124 0)
(0.0912527 0.067883 0)
(0.127311 0.0675391 0)
(0.139713 0.0748176 0)
(0.136573 0.076808 0)
(0.115896 0.0750951 0)
(0.0766438 0.0608913 0)
(0.0383229 0.0439733 0)
(-0.0163036 0.0253228 0)
(-0.077834 0.00601032 0)
(-0.130443 -0.00214585 0)
(-0.176123 -0.0154631 0)
(-0.185823 -0.0209242 0)
(-0.156021 -0.0151237 0)
(-0.113606 -0.00637048 0)
(-0.0534292 -0.00252903 0)
(0.0347579 0.00333029 0)
(0.105864 0.0110477 0)
(0.133029 0.015343 0)
(0.144045 0.0133792 0)
(0.13114 0.0152858 0)
(0.0984646 0.0117302 0)
(0.0749234 0.0228633 0)
(0.0475478 0.0215411 0)
(0.00766447 0.0239046 0)
(-0.0394499 0.0262945 0)
(-0.0924471 0.0177665 0)
(-0.125232 0.0141608 0)
(-0.12691 0.0200864 0)
(-0.109321 0.0320838 0)
(-0.0964544 0.0342856 0)
(-0.0887545 0.0320697 0)
(-0.0521205 0.0315863 0)
(0.0094114 0.0267276 0)
(0.0590313 0.0165732 0)
(0.0756257 0.0022257 0)
(0.078866 -0.00149986 0)
(0.0624112 -0.00612212 0)
(0.0245748 -0.000960269 0)
(-0.00620861 0.0618269 0)
(-0.0106589 0.154765 0)
(-0.00478889 0.22247 0)
(-0.000963354 0.261993 0)
(0.0127962 0.295112 0)
(0.0398498 0.298587 0)
(0.0730691 0.280863 0)
(0.103156 0.272757 0)
(0.110586 0.277634 0)
(0.107749 0.281699 0)
(0.0967904 0.28526 0)
(0.0690082 0.244921 0)
(0.0498768 0.218853 0)
(0.0471058 0.186718 0)
(0.0356356 0.161653 0)
(-0.00343503 0.147454 0)
(-0.0373116 0.124913 0)
(-0.0508511 0.0935328 0)
(-0.0613394 0.0719883 0)
(-0.0602415 0.0501729 0)
(-0.0666326 -0.000495623 0)
(-0.0779301 -0.0586885 0)
(-0.0911614 -0.095478 0)
(-0.0917671 -0.0993082 0)
(-0.0574267 -0.103903 0)
(-0.00758402 -0.116756 0)
(0.0163835 -0.128391 0)
(-0.00699827 -0.133412 0)
(-0.0383554 -0.119422 0)
(-0.0719421 -0.0961271 0)
(-0.0902167 -0.0730737 0)
(-0.0697687 -0.0610503 0)
(-0.0453129 -0.0762216 0)
(-0.0396933 -0.0811873 0)
(-0.0330206 -0.0687148 0)
(0.00166075 -0.0619146 0)
(0.0508268 -0.0622319 0)
(0.0948735 -0.052655 0)
(0.120899 -0.0498542 0)
(0.1184 -0.0444669 0)
(0.0865169 -0.0516592 0)
(0.0674395 -0.0500995 0)
(0.0691917 -0.0308453 0)
(0.0592773 0.00519167 0)
(0.0501462 0.0249147 0)
(0.0477778 0.0279584 0)
(0.0475944 0.0386538 0)
(0.043535 0.0652944 0)
(0.0272952 0.101839 0)
(0.00222762 0.108394 0)
(-0.02946 0.111153 0)
(-0.0694059 0.142837 0)
(-0.103971 0.175764 0)
(-0.115991 0.201252 0)
(-0.108822 0.202829 0)
(-0.105886 0.19877 0)
(-0.0933332 0.18299 0)
(-0.0660145 0.160612 0)
(-0.0448986 0.120042 0)
(-0.0160413 0.0949876 0)
(0.024108 0.0750883 0)
(0.0620604 0.0720182 0)
(0.0993789 0.0737553 0)
(0.135665 0.0741909 0)
(0.152445 0.0660523 0)
(0.151974 0.0709341 0)
(0.124004 0.071222 0)
(0.0741811 0.0589642 0)
(0.0284959 0.0376422 0)
(-0.0269033 0.0132871 0)
(-0.0859157 0.00882268 0)
(-0.145472 0.00451386 0)
(-0.193598 -0.0122302 0)
(-0.193265 -0.0194695 0)
(-0.159505 -0.0136854 0)
(-0.116382 -0.00684829 0)
(-0.0535324 0.00879596 0)
(0.03422 0.0207482 0)
(0.107932 0.0136499 0)
(0.140678 0.0139774 0)
(0.153569 0.0120251 0)
(0.138834 0.0097172 0)
(0.110061 0.0077975 0)
(0.084073 0.023236 0)
(0.0494646 0.0233677 0)
(0.00928081 0.0205127 0)
(-0.044178 0.0161033 0)
(-0.0990993 0.0155292 0)
(-0.127857 0.0227221 0)
(-0.129497 0.033336 0)
(-0.117828 0.0413047 0)
(-0.107471 0.0380964 0)
(-0.0930923 0.0334019 0)
(-0.0552742 0.037789 0)
(0.00244922 0.0350358 0)
(0.0505062 0.0180044 0)
(0.0715654 0.00644848 0)
(0.0774974 0.00274099 0)
(0.0657348 -0.00222858 0)
(0.0272958 0.0017947 0)
(-0.00612242 0.0604281 0)
(-0.00662693 0.153362 0)
(-0.00192876 0.229344 0)
(-1.95916e-05 0.277275 0)
(0.00814783 0.307083 0)
(0.0211243 0.314354 0)
(0.0552449 0.312433 0)
(0.100834 0.298928 0)
(0.115713 0.292561 0)
(0.115233 0.286791 0)
(0.0961589 0.280085 0)
(0.0551787 0.251565 0)
(0.0364118 0.220062 0)
(0.0367132 0.190853 0)
(0.0292482 0.162778 0)
(-0.00978793 0.142072 0)
(-0.0511874 0.121113 0)
(-0.0636033 0.0880926 0)
(-0.071669 0.0707497 0)
(-0.0890563 0.0402618 0)
(-0.107576 -0.0242748 0)
(-0.107866 -0.0677189 0)
(-0.0991526 -0.0935088 0)
(-0.0853781 -0.0919742 0)
(-0.058451 -0.0909281 0)
(-0.0213517 -0.0974847 0)
(0.00300115 -0.114531 0)
(-0.00734767 -0.115486 0)
(-0.0326285 -0.10682 0)
(-0.0622692 -0.102109 0)
(-0.0758412 -0.0681375 0)
(-0.0720188 -0.0450762 0)
(-0.0597978 -0.0524244 0)
(-0.0417863 -0.0626382 0)
(-0.0284157 -0.045028 0)
(0.00157689 -0.0343905 0)
(0.0608072 -0.0360646 0)
(0.106445 -0.0196886 0)
(0.122074 -0.0361805 0)
(0.110474 -0.0625689 0)
(0.0789325 -0.0728231 0)
(0.0754966 -0.048249 0)
(0.0917739 -0.0346382 0)
(0.0834745 -0.017042 0)
(0.0598421 0.00246359 0)
(0.0545549 0.0206124 0)
(0.0651968 0.0394349 0)
(0.0678993 0.0685685 0)
(0.0345606 0.101946 0)
(-0.00817293 0.109761 0)
(-0.02363 0.111031 0)
(-0.0442969 0.134275 0)
(-0.0843965 0.177463 0)
(-0.117877 0.210803 0)
(-0.12495 0.213423 0)
(-0.118776 0.19518 0)
(-0.104526 0.183079 0)
(-0.0873221 0.163295 0)
(-0.0659874 0.137535 0)
(-0.0323821 0.11455 0)
(0.0143373 0.0883901 0)
(0.0665767 0.0822188 0)
(0.109716 0.0816648 0)
(0.141511 0.0768958 0)
(0.159243 0.0661022 0)
(0.162677 0.0698236 0)
(0.12763 0.0599565 0)
(0.0685177 0.0480252 0)
(0.0154112 0.0311944 0)
(-0.0340417 0.00928793 0)
(-0.0884093 0.00466531 0)
(-0.156749 -0.00301023 0)
(-0.209274 -0.0142503 0)
(-0.204394 -0.0220429 0)
(-0.16338 -0.0209051 0)
(-0.110299 -0.0115988 0)
(-0.0410128 0.00888208 0)
(0.0368574 0.0273112 0)
(0.105836 0.0212017 0)
(0.142132 0.0225583 0)
(0.154568 0.0173775 0)
(0.142595 0.00700124 0)
(0.121548 0.0081408 0)
(0.0962587 0.0154372 0)
(0.050925 0.0169217 0)
(0.00246958 0.0128708 0)
(-0.0484306 0.00876438 0)
(-0.0979795 0.0181939 0)
(-0.126496 0.0335589 0)
(-0.129766 0.039107 0)
(-0.122392 0.0419962 0)
(-0.116877 0.0395193 0)
(-0.0999905 0.0397053 0)
(-0.057263 0.0389857 0)
(-0.00653432 0.0316289 0)
(0.0408815 0.0164165 0)
(0.0699525 0.00929269 0)
(0.0786777 0.00766396 0)
(0.0667374 0.0103846 0)
(0.0273932 0.00517238 0)
(-0.00497807 0.0576028 0)
(-0.0030553 0.154484 0)
(0.00140746 0.226586 0)
(-0.00339339 0.27193 0)
(0.000683672 0.299772 0)
(0.0204448 0.319491 0)
(0.0509685 0.332099 0)
(0.0875329 0.319705 0)
(0.108104 0.291073 0)
(0.110625 0.289247 0)
(0.0869989 0.277289 0)
(0.0435573 0.248664 0)
(0.0248995 0.221144 0)
(0.0240758 0.187538 0)
(0.017117 0.153446 0)
(-0.0190402 0.12312 0)
(-0.0643331 0.10259 0)
(-0.0772264 0.0718513 0)
(-0.0873476 0.0487583 0)
(-0.122087 0.0182822 0)
(-0.139136 -0.0429896 0)
(-0.123308 -0.0705672 0)
(-0.105041 -0.0720244 0)
(-0.0875638 -0.0726431 0)
(-0.0609022 -0.0876942 0)
(-0.0263551 -0.0941976 0)
(-0.000635352 -0.100855 0)
(-0.00766026 -0.0945064 0)
(-0.0371179 -0.0977586 0)
(-0.0535896 -0.0895387 0)
(-0.0588291 -0.0557888 0)
(-0.0681957 -0.0324434 0)
(-0.0667294 -0.0133491 0)
(-0.0405023 -0.0146466 0)
(-0.0156936 -0.00542718 0)
(0.00776661 7.445e-05 0)
(0.0637689 -0.00347547 0)
(0.0987762 -0.0185137 0)
(0.0942596 -0.0354994 0)
(0.0963156 -0.0695441 0)
(0.101093 -0.0754885 0)
(0.0982298 -0.0441329 0)
(0.0933547 -0.0310021 0)
(0.0864265 -0.0309728 0)
(0.0765803 -0.0165162 0)
(0.0726338 0.00581223 0)
(0.0792186 0.0300177 0)
(0.0841272 0.0561918 0)
(0.0500408 0.0846942 0)
(-0.00104972 0.10633 0)
(-0.0237133 0.115804 0)
(-0.0346499 0.126146 0)
(-0.0626755 0.156374 0)
(-0.104184 0.196209 0)
(-0.133311 0.215773 0)
(-0.13842 0.198802 0)
(-0.123368 0.179657 0)
(-0.102002 0.152466 0)
(-0.0791324 0.142347 0)
(-0.0467849 0.123095 0)
(0.00909071 0.102709 0)
(0.0688998 0.100121 0)
(0.10998 0.0920478 0)
(0.140987 0.0755151 0)
(0.16538 0.0674487 0)
(0.165629 0.0652077 0)
(0.124562 0.0382923 0)
(0.0663807 0.0282486 0)
(0.00870968 0.0247751 0)
(-0.0432876 0.0104437 0)
(-0.0975992 -0.00556849 0)
(-0.1671 -0.0197398 0)
(-0.218911 -0.0283232 0)
(-0.211083 -0.0264769 0)
(-0.164225 -0.0256045 0)
(-0.104415 -0.0148804 0)
(-0.0309211 0.00197466 0)
(0.0420219 0.0204327 0)
(0.107943 0.022062 0)
(0.14536 0.026919 0)
(0.152184 0.0187058 0)
(0.142887 0.00750651 0)
(0.126149 0.0130783 0)
(0.0980062 0.0117898 0)
(0.0516078 0.00398074 0)
(0.00326242 1.10535e-06 0)
(-0.0444937 0.00898858 0)
(-0.0889658 0.0256854 0)
(-0.123567 0.0408891 0)
(-0.136036 0.0433953 0)
(-0.130365 0.0387548 0)
(-0.120586 0.0335955 0)
(-0.102279 0.0337601 0)
(-0.0665944 0.0356129 0)
(-0.0159317 0.0284844 0)
(0.0354217 0.017326 0)
(0.0685916 0.0104027 0)
(0.0827736 0.0110078 0)
(0.0689195 0.0126088 0)
(0.0228971 0.00745449 0)
(-0.000875418 0.0573667 0)
(0.00241437 0.151951 0)
(-0.000362101 0.212183 0)
(-0.00645764 0.257149 0)
(0.00238633 0.295273 0)
(0.0195984 0.31484 0)
(0.04223 0.31689 0)
(0.0669252 0.309467 0)
(0.0968181 0.284943 0)
(0.114047 0.280173 0)
(0.0791906 0.273929 0)
(0.0292858 0.251384 0)
(0.00801192 0.223149 0)
(0.00339117 0.182319 0)
(-0.00270639 0.140589 0)
(-0.0333629 0.085944 0)
(-0.0768221 0.0614063 0)
(-0.092755 0.0442559 0)
(-0.102008 0.0131675 0)
(-0.148659 -0.0257807 0)
(-0.166228 -0.0653317 0)
(-0.12384 -0.0740893 0)
(-0.0967453 -0.0601224 0)
(-0.094502 -0.0609665 0)
(-0.0735375 -0.0714436 0)
(-0.0320687 -0.0681536 0)
(-0.000248806 -0.0740605 0)
(-0.0101068 -0.0808002 0)
(-0.0357588 -0.083853 0)
(-0.0393647 -0.066779 0)
(-0.0422262 -0.0389063 0)
(-0.048801 -0.00287618 0)
(-0.053599 0.0245932 0)
(-0.0411496 0.0290627 0)
(-0.0206838 0.0340575 0)
(0.00211724 0.0299337 0)
(0.0482016 0.0187069 0)
(0.085386 -0.0223905 0)
(0.0877811 -0.0347501 0)
(0.0843458 -0.0453948 0)
(0.100344 -0.0517572 0)
(0.109972 -0.0513382 0)
(0.102071 -0.0427705 0)
(0.0936135 -0.0382274 0)
(0.0853155 -0.0292447 0)
(0.0861218 -0.0203998 0)
(0.098359 0.00568572 0)
(0.102732 0.0305126 0)
(0.064323 0.0578607 0)
(0.00576512 0.0772635 0)
(-0.0196836 0.0929904 0)
(-0.0263349 0.117076 0)
(-0.0452618 0.146948 0)
(-0.0861655 0.177639 0)
(-0.133606 0.196028 0)
(-0.153608 0.192436 0)
(-0.143917 0.167478 0)
(-0.11674 0.145836 0)
(-0.086161 0.136625 0)
(-0.0568782 0.12893 0)
(0.00502326 0.112072 0)
(0.0689242 0.103786 0)
(0.10405 0.0897765 0)
(0.137567 0.0788921 0)
(0.166734 0.0681477 0)
(0.156165 0.0480085 0)
(0.113988 0.0152308 0)
(0.0694769 -0.00248183 0)
(0.0095412 0.00059319 0)
(-0.0534566 -0.00154547 0)
(-0.112127 -0.0233457 0)
(-0.178891 -0.0389332 0)
(-0.222423 -0.0437838 0)
(-0.211895 -0.0377256 0)
(-0.164057 -0.033282 0)
(-0.097461 -0.0131727 0)
(-0.019604 0.00405236 0)
(0.0505748 0.0174739 0)
(0.113087 0.0219428 0)
(0.145127 0.0180475 0)
(0.147708 0.0101426 0)
(0.146528 0.0109414 0)
(0.132112 0.0139345 0)
(0.0951983 0.00182621 0)
(0.0452657 -0.00442455 0)
(0.00605168 -0.0037192 0)
(-0.0328712 0.00565391 0)
(-0.0807938 0.0234496 0)
(-0.122012 0.0401926 0)
(-0.141142 0.0412142 0)
(-0.139519 0.0325357 0)
(-0.129464 0.0221521 0)
(-0.105504 0.0182954 0)
(-0.0656605 0.0214902 0)
(-0.0218994 0.0281076 0)
(0.0279364 0.018945 0)
(0.0672818 0.0143888 0)
(0.0833077 0.0111721 0)
(0.0683356 0.0048926 0)
(0.0205596 0.000989432 0)
(0.00074947 0.055964 0)
(-0.000301067 0.139269 0)
(-0.0027245 0.187362 0)
(-0.000494607 0.233033 0)
(0.00322246 0.274184 0)
(0.0108801 0.295226 0)
(0.0328877 0.29439 0)
(0.0587534 0.287186 0)
(0.0880936 0.283454 0)
(0.109202 0.273047 0)
(0.0762239 0.250608 0)
(0.0190532 0.228197 0)
(-0.0117819 0.200185 0)
(-0.0222929 0.155492 0)
(-0.0399751 0.109271 0)
(-0.0645669 0.055158 0)
(-0.0835957 0.0246395 0)
(-0.102627 0.00726284 0)
(-0.130007 -0.0269155 0)
(-0.172121 -0.0707764 0)
(-0.168127 -0.0844603 0)
(-0.114181 -0.0810187 0)
(-0.0914277 -0.0652628 0)
(-0.0933432 -0.0511075 0)
(-0.0651473 -0.0400252 0)
(-0.0288458 -0.0343619 0)
(-0.0121803 -0.0470356 0)
(-0.0187421 -0.0641815 0)
(-0.0320856 -0.058656 0)
(-0.026772 -0.0407896 0)
(-0.0184536 -0.0173162 0)
(-0.0278891 0.024863 0)
(-0.0488381 0.0536991 0)
(-0.0378854 0.0613983 0)
(-0.0178485 0.0618812 0)
(-0.00469375 0.0542658 0)
(0.0255762 0.033876 0)
(0.0608303 -0.00513477 0)
(0.0792907 -0.0256566 0)
(0.0858261 -0.0334414 0)
(0.0983545 -0.0345556 0)
(0.105754 -0.0505468 0)
(0.103016 -0.0557209 0)
(0.0954423 -0.0493118 0)
(0.0878022 -0.0441372 0)
(0.0954357 -0.0379768 0)
(0.11267 -0.0217767 0)
(0.117256 -0.0104028 0)
(0.0778075 0.00536714 0)
(0.0167885 0.0319863 0)
(-0.00364583 0.0706203 0)
(-0.00501435 0.104591 0)
(-0.0284337 0.132923 0)
(-0.0779164 0.147421 0)
(-0.131028 0.156044 0)
(-0.166102 0.166628 0)
(-0.161885 0.156278 0)
(-0.12619 0.143683 0)
(-0.0902263 0.126301 0)
(-0.0607669 0.118567 0)
(-0.0028178 0.112907 0)
(0.0612962 0.100986 0)
(0.102301 0.0866541 0)
(0.137035 0.0788921 0)
(0.15526 0.0574184 0)
(0.139077 0.0240939 0)
(0.0985945 -0.0102454 0)
(0.0646323 -0.0304839 0)
(0.0154991 -0.0303431 0)
(-0.0581638 -0.0237137 0)
(-0.125783 -0.0382417 0)
(-0.185824 -0.0593522 0)
(-0.223893 -0.0618179 0)
(-0.210297 -0.0514369 0)
(-0.15297 -0.0333879 0)
(-0.0825136 -0.0044272 0)
(-0.0118332 0.0152762 0)
(0.0543139 0.0178581 0)
(0.110126 0.0194878 0)
(0.140675 0.0124309 0)
(0.152435 0.00321284 0)
(0.151685 0.00128558 0)
(0.125005 -0.00419149 0)
(0.0887413 -0.016786 0)
(0.0497842 -0.0224453 0)
(0.0105582 -0.00798454 0)
(-0.0270895 0.000146414 0)
(-0.0683779 0.0146733 0)
(-0.11703 0.0372305 0)
(-0.149161 0.0382681 0)
(-0.151987 0.0287917 0)
(-0.137945 0.0163667 0)
(-0.108268 0.0120403 0)
(-0.0630989 0.0133186 0)
(-0.0196755 0.0118796 0)
(0.0250445 0.0123638 0)
(0.0636848 0.0108705 0)
(0.0772415 0.00656092 0)
(0.0634834 -0.000879092 0)
(0.0219847 -0.00218056 0)
(0.000882735 0.0497422 0)
(-0.00386364 0.116609 0)
(-0.00618095 0.160335 0)
(0.00392838 0.204009 0)
(0.0111947 0.243264 0)
(0.010505 0.267813 0)
(0.0225749 0.264183 0)
(0.0531425 0.254486 0)
(0.0868854 0.258419 0)
(0.0950696 0.248985 0)
(0.0548188 0.22196 0)
(0.00312359 0.184844 0)
(-0.0332309 0.154557 0)
(-0.0508042 0.105319 0)
(-0.0640728 0.0602958 0)
(-0.083894 0.0260516 0)
(-0.101312 -0.00415364 0)
(-0.121003 -0.0315265 0)
(-0.150805 -0.068213 0)
(-0.183455 -0.0934164 0)
(-0.167335 -0.095237 0)
(-0.104453 -0.0888089 0)
(-0.0707104 -0.068267 0)
(-0.0732052 -0.0352251 0)
(-0.0598527 -0.0123008 0)
(-0.0372756 -0.0118907 0)
(-0.0236673 -0.0256142 0)
(-0.0215075 -0.0392883 0)
(-0.0225687 -0.0272606 0)
(-0.0137848 -0.00468534 0)
(0.000862808 0.0219352 0)
(-0.00166835 0.0522676 0)
(-0.0312821 0.0762317 0)
(-0.0387889 0.0979039 0)
(-0.0284665 0.0936972 0)
(-0.0198349 0.0730764 0)
(0.00422766 0.0441098 0)
(0.0421132 0.0179579 0)
(0.0679096 -0.00779712 0)
(0.0788041 -0.0269581 0)
(0.0884826 -0.0415694 0)
(0.094576 -0.0557766 0)
(0.102432 -0.0626074 0)
(0.100788 -0.063815 0)
(0.0914728 -0.059658 0)
(0.0995071 -0.0516297 0)
(0.114629 -0.0502728 0)
(0.117657 -0.0508413 0)
(0.0893845 -0.0433183 0)
(0.0466076 -0.00923549 0)
(0.0257083 0.0394901 0)
(0.0109532 0.0731154 0)
(-0.0223528 0.0993893 0)
(-0.0772494 0.105295 0)
(-0.126484 0.116241 0)
(-0.158821 0.132101 0)
(-0.164141 0.142994 0)
(-0.139846 0.133634 0)
(-0.103319 0.110925 0)
(-0.0631087 0.0992503 0)
(-0.00216038 0.10313 0)
(0.0572209 0.0951023 0)
(0.0969057 0.0847154 0)
(0.126206 0.0615781 0)
(0.137019 0.0362776 0)
(0.116727 -0.00478475 0)
(0.0831496 -0.036826 0)
(0.0622491 -0.0534809 0)
(0.019751 -0.056806 0)
(-0.0566829 -0.0551902 0)
(-0.138417 -0.0559541 0)
(-0.198653 -0.0756447 0)
(-0.220744 -0.0751103 0)
(-0.196012 -0.0530882 0)
(-0.134483 -0.0271098 0)
(-0.0657991 -0.0096648 0)
(-0.00581142 0.00532443 0)
(0.0529787 0.0171537 0)
(0.110351 0.0264912 0)
(0.136084 0.0149908 0)
(0.143566 0.00120014 0)
(0.145567 -0.0125572 0)
(0.122997 -0.0233585 0)
(0.0849727 -0.0230887 0)
(0.053447 -0.0292997 0)
(0.0225828 -0.0229343 0)
(-0.0181502 -0.0103152 0)