/*--------------------------------*- C++ -*----------------------------------*\
| =========                 |                                                 |
| \\      /  F ield         | OpenFOAM: The Open Source CFD Toolbox           |
|  \\    /   O peration     | Version:  v2012                                 |
|   \\  /    A nd           | Website:  www.openfoam.com                      |
|    \\/     M anipulation  |                                                 |
\*---------------------------------------------------------------------------*/
FoamFile
{
    version     2.0;
    format      ascii;
    class       surfaceScalarField;
    location    "5.25";
    object      phi;
}
// * * * * * * * * * * * * * * * * * * * * * * * * * * * * * * * * * * * * * //

dimensions      [0 3 -1 0 0 0 0];
oriented        oriented;


internalField   nonuniform List<scalar> 
130560
(
3.65375e-06
-3.65375e-06
7.30734e-06
-3.6536e-06
1.09606e-05
-3.6533e-06
1.46135e-05
-3.65285e-06
1.82657e-05
-3.65225e-06
2.19172e-05
-3.65149e-06
2.55678e-05
-3.65057e-06
2.92173e-05
-3.64949e-06
3.28655e-05
-3.64824e-06
3.65123e-05
-3.64682e-06
4.01576e-05
-3.64522e-06
4.3801e-05
-3.64343e-06
4.74424e-05
-3.64144e-06
5.10817e-05
-3.63926e-06
5.47185e-05
-3.63686e-06
5.83528e-05
-3.63425e-06
6.19842e-05
-3.6314e-06
6.56125e-05
-3.62831e-06
6.92375e-05
-3.62497e-06
7.28588e-05
-3.62137e-06
7.64763e-05
-3.61749e-06
8.00896e-05
-3.61332e-06
8.36985e-05
-3.60884e-06
8.73025e-05
-3.60405e-06
9.09015e-05
-3.59893e-06
9.44949e-05
-3.59346e-06
9.80826e-05
-3.58763e-06
0.000101664
-3.58142e-06
0.000105239
-3.57482e-06
0.000108807
-3.56781e-06
0.000112367
-3.56036e-06
0.000115919
-3.55248e-06
0.000119464
-3.54412e-06
0.000122999
-3.53529e-06
0.000126525
-3.52595e-06
0.000130041
-3.5161e-06
0.000133547
-3.5057e-06
0.000137041
-3.49475e-06
0.000140525
-3.48323e-06
0.000143996
-3.4711e-06
0.000147454
-3.45837e-06
0.000150899
-3.445e-06
0.00015433
-3.43097e-06
0.000157746
-3.41627e-06
0.000161147
-3.40088e-06
0.000164532
-3.38478e-06
0.0001679
-3.36794e-06
0.00017125
-3.35036e-06
0.000174582
-3.33201e-06
0.000177895
-3.31288e-06
0.000181188
-3.29295e-06
0.00018446
-3.27219e-06
0.000187711
-3.2506e-06
0.000190939
-3.22816e-06
0.000194144
-3.20485e-06
0.000197325
-3.18066e-06
0.00020048
-3.15557e-06
0.00020361
-3.12958e-06
0.000206712
-3.10266e-06
0.000209787
-3.07481e-06
0.000212833
-3.04601e-06
0.000215849
-3.01627e-06
0.000218835
-2.98556e-06
0.000221789
-2.95388e-06
0.00022471
-2.92122e-06
0.000227598
-2.88758e-06
0.000230451
-2.85295e-06
0.000233268
-2.81734e-06
0.000236049
-2.78073e-06
0.000238792
-2.74314e-06
0.000241496
-2.70455e-06
0.000244161
-2.66497e-06
0.000246786
-2.62441e-06
0.000249369
-2.58287e-06
0.000251909
-2.54036e-06
0.000254406
-2.49688e-06
0.000256858
-2.45244e-06
0.000259265
-2.40706e-06
0.000261626
-2.36074e-06
0.00026394
-2.3135e-06
0.000266205
-2.26535e-06
0.000268421
-2.21632e-06
0.000270588
-2.16641e-06
0.000272703
-2.11565e-06
0.000274767
-2.06406e-06
0.000276779
-2.01166e-06
0.000278738
-1.95846e-06
0.000280642
-1.90451e-06
0.000282492
-1.84982e-06
0.000284286
-1.79442e-06
0.000286025
-1.73833e-06
0.000287706
-1.68159e-06
0.00028933
-1.62422e-06
0.000290897
-1.56627e-06
0.000292404
-1.50775e-06
0.000293853
-1.4487e-06
0.000295242
-1.38915e-06
0.000296571
-1.32915e-06
0.00029784
-1.26872e-06
0.000299048
-1.20789e-06
0.000300195
-1.14671e-06
0.00030128
-1.08522e-06
0.000302303
-1.02344e-06
0.000303265
-9.61413e-07
0.000304164
-8.9918e-07
0.000305001
-8.36776e-07
0.000305775
-7.74239e-07
0.000306487
-7.11604e-07
0.000307136
-6.48911e-07
0.000307722
-5.86194e-07
0.000308245
-5.23492e-07
0.000308706
-4.60841e-07
0.000309104
-3.98276e-07
0.00030944
-3.35833e-07
0.000309714
-2.73547e-07
0.000309925
-2.11452e-07
0.000310075
-1.49582e-07
0.000310163
-8.79702e-08
0.000310189
-2.66489e-08
0.000310155
3.43506e-08
0.00031006
9.49976e-08
0.000309905
1.55262e-07
0.00030969
2.15116e-07
0.000309415
2.74531e-07
0.000309082
3.33481e-07
0.00030869
3.91938e-07
0.00030824
4.4988e-07
0.000307733
5.07281e-07
0.000307168
5.6412e-07
0.000306548
6.20375e-07
0.000305872
6.76026e-07
0.000305141
7.31053e-07
0.000304356
7.85438e-07
0.000303516
8.39164e-07
0.000302624
8.92215e-07
0.00030168
9.44577e-07
0.000300683
9.96236e-07
0.000299636
1.04718e-06
0.000298539
1.09739e-06
0.000297392
1.14687e-06
0.000296196
1.1956e-06
0.000294953
1.24358e-06
0.000293662
1.29079e-06
0.000292325
1.33724e-06
0.000290942
1.38291e-06
0.000289514
1.4278e-06
0.000288042
1.47191e-06
0.000286527
1.51523e-06
0.000284969
1.55777e-06
0.00028337
1.59952e-06
0.000281729
1.64048e-06
0.000280048
1.68066e-06
0.000278328
1.72005e-06
0.00027657
1.75865e-06
0.000274773
1.79647e-06
0.00027294
1.83352e-06
0.00027107
1.86979e-06
0.000269165
1.90529e-06
0.000267225
1.94003e-06
0.000265251
1.974e-06
0.000263243
2.00723e-06
0.000261204
2.0397e-06
0.000259132
2.07144e-06
0.00025703
2.10244e-06
0.000254897
2.13272e-06
0.000252735
2.16228e-06
0.000250544
2.19112e-06
0.000248324
2.21927e-06
0.000246078
2.24672e-06
0.000243804
2.2735e-06
0.000241505
2.29959e-06
0.00023918
2.32502e-06
0.00023683
2.34979e-06
0.000234456
2.37392e-06
0.000232058
2.39741e-06
0.000229638
2.42028e-06
0.000227196
2.44252e-06
0.000224731
2.46416e-06
0.000222246
2.4852e-06
0.000219741
2.50566e-06
0.000217215
2.52554e-06
0.00021467
2.54485e-06
0.000212107
2.56361e-06
0.000209525
2.58182e-06
0.000206925
2.5995e-06
0.000204309
2.61664e-06
0.000201675
2.63328e-06
0.000199026
2.64941e-06
0.000196361
2.66504e-06
0.000193681
2.68019e-06
0.000190986
2.69486e-06
0.000188277
2.70907e-06
0.000185554
2.72282e-06
0.000182818
2.73613e-06
0.000180069
2.749e-06
0.000177307
2.76145e-06
0.000174534
2.77348e-06
0.000171749
2.7851e-06
0.000168952
2.79633e-06
0.000166145
2.80717e-06
0.000163328
2.81763e-06
0.0001605
2.82772e-06
0.000157663
2.83744e-06
0.000154816
2.84682e-06
0.00015196
2.85586e-06
0.000149095
2.86456e-06
0.000146222
2.87293e-06
0.000143341
2.88099e-06
0.000140453
2.88874e-06
0.000137556
2.89619e-06
0.000134653
2.90335e-06
0.000131743
2.91023e-06
0.000128826
2.91682e-06
0.000125903
2.92315e-06
0.000122974
2.92922e-06
0.000120039
2.93504e-06
0.000117098
2.94061e-06
0.000114152
2.94595e-06
0.000111201
2.95105e-06
0.000108245
2.95593e-06
0.000105284
2.96059e-06
0.000102319
2.96504e-06
9.93501e-05
2.96929e-06
9.63768e-05
2.97334e-06
9.33996e-05
2.9772e-06
9.04187e-05
2.98087e-06
8.74344e-05
2.98437e-06
8.44467e-05
2.98769e-06
8.14558e-05
2.99084e-06
7.8462e-05
2.99384e-06
7.54653e-05
2.99667e-06
7.2466e-05
2.99935e-06
6.94641e-05
3.00189e-06
6.64598e-05
3.00428e-06
6.34533e-05
3.00654e-06
6.04446e-05
3.00866e-06
5.7434e-05
3.01065e-06
5.44214e-05
3.01252e-06
5.14072e-05
3.01427e-06
4.83913e-05
3.0159e-06
4.53739e-05
3.01741e-06
4.2355e-05
3.01882e-06
3.93349e-05
3.02012e-06
3.63136e-05
3.02131e-06
3.32912e-05
3.0224e-06
3.02678e-05
3.02339e-06
2.72435e-05
3.02428e-06
2.42185e-05
3.02508e-06
2.11927e-05
3.02579e-06
1.81663e-05
3.0264e-06
1.51394e-05
3.02692e-06
1.2112e-05
3.02735e-06
9.08431e-06
3.0277e-06
6.05635e-06
3.02796e-06
3.02822e-06
3.02813e-06
3.02822e-06
3.65389e-06
-7.30764e-06
7.30764e-06
-7.30734e-06
1.09611e-05
-7.30674e-06
1.46141e-05
-7.30585e-06
1.82665e-05
-7.30465e-06
2.19181e-05
-7.30313e-06
2.55689e-05
-7.3013e-06
2.92185e-05
-7.29915e-06
3.28669e-05
-7.29665e-06
3.65139e-05
-7.29381e-06
4.01593e-05
-7.29062e-06
4.38029e-05
-7.28705e-06
4.74446e-05
-7.28309e-06
5.10841e-05
-7.27873e-06
5.47211e-05
-7.27394e-06
5.83556e-05
-7.26872e-06
6.19873e-05
-7.26304e-06
6.56158e-05
-7.25687e-06
6.9241e-05
-7.2502e-06
7.28627e-05
-7.24301e-06
7.64805e-05
-7.23526e-06
8.00941e-05
-7.22693e-06
8.37032e-05
-7.218e-06
8.73076e-05
-7.20843e-06
9.09069e-05
-7.19821e-06
9.45007e-05
-7.18729e-06
9.80887e-05
-7.17564e-06
0.000101671
-7.16324e-06
0.000105246
-7.15005e-06
0.000108814
-7.13604e-06
0.000112375
-7.12117e-06
0.000115928
-7.10541e-06
0.000119472
-7.08873e-06
0.000123008
-7.07107e-06
0.000126535
-7.05242e-06
0.000130051
-7.03273e-06
0.000133558
-7.01196e-06
0.000137053
-6.99008e-06
0.000140537
-6.96705e-06
0.000144008
-6.94282e-06
0.000147467
-6.91737e-06
0.000150913
-6.89064e-06
0.000154345
-6.86261e-06
0.000157762
-6.83323e-06
0.000161163
-6.80247e-06
0.000164549
-6.77028e-06
0.000167917
-6.73663e-06
0.000171269
-6.70149e-06
0.000174601
-6.66481e-06
0.000177915
-6.62656e-06
0.000181209
-6.58671e-06
0.000184482
-6.54522e-06
0.000187733
-6.50205e-06
0.000190962
-6.45719e-06
0.000194168
-6.41058e-06
0.00019735
-6.36221e-06
0.000200506
-6.31205e-06
0.000203637
-6.26007e-06
0.00020674
-6.20625e-06
0.000209816
-6.15056e-06
0.000212863
-6.09298e-06
0.00021588
-6.03349e-06
0.000218867
-5.97208e-06
0.000221821
-5.90873e-06
0.000224744
-5.84342e-06
0.000227632
-5.77614e-06
0.000230486
-5.7069e-06
0.000233305
-5.63567e-06
0.000236086
-5.56246e-06
0.00023883
-5.48727e-06
0.000241536
-5.41009e-06
0.000244202
-5.33093e-06
0.000246827
-5.24981e-06
0.000249411
-5.16672e-06
0.000251952
-5.08168e-06
0.00025445
-4.99471e-06
0.000256904
-4.90582e-06
0.000259312
-4.81504e-06
0.000261673
-4.72239e-06
0.000263988
-4.6279e-06
0.000266254
-4.53159e-06
0.000268471
-4.43351e-06
0.000270638
-4.33367e-06
0.000272755
-4.23213e-06
0.00027482
-4.12893e-06
0.000276832
-4.0241e-06
0.000278791
-3.91769e-06
0.000280697
-3.80976e-06
0.000282547
-3.70035e-06
0.000284342
-3.58951e-06
0.000286081
-3.47731e-06
0.000287763
-3.3638e-06
0.000289388
-3.24904e-06
0.000290955
-3.13309e-06
0.000292463
-3.01602e-06
0.000293913
-2.89789e-06
0.000295302
-2.77877e-06
0.000296632
-2.65872e-06
0.000297901
-2.53782e-06
0.000299109
-2.41614e-06
0.000300256
-2.29375e-06
0.000301342
-2.17072e-06
0.000302365
-2.04712e-06
0.000303327
-1.92304e-06
0.000304226
-1.79853e-06
0.000305063
-1.67369e-06
0.000305838
-1.54857e-06
0.000306549
-1.42327e-06
0.000307198
-1.29784e-06
0.000307784
-1.17238e-06
0.000308308
-1.04693e-06
0.000308769
-9.21596e-07
0.000309167
-7.9643e-07
0.000309502
-6.71509e-07
0.000309776
-5.46903e-07
0.000309987
-4.22679e-07
0.000310136
-2.98907e-07
0.000310224
-1.75651e-07
0.00031025
-5.29769e-08
0.000310216
6.90527e-08
0.00031012
1.90376e-07
0.000309965
3.10935e-07
0.000309749
4.3067e-07
0.000309474
5.49527e-07
0.00030914
6.67451e-07
0.000308748
7.84392e-07
0.000308297
9.00298e-07
0.000307789
1.01512e-06
0.000307225
1.12882e-06
0.000306604
1.24135e-06
0.000305927
1.35267e-06
0.000305195
1.46275e-06
0.000304409
1.57153e-06
0.000303569
1.679e-06
0.000302676
1.78512e-06
0.000301731
1.88986e-06
0.000300734
1.99319e-06
0.000299686
2.09508e-06
0.000298588
2.19552e-06
0.000297441
2.29449e-06
0.000296244
2.39196e-06
0.000295
2.48792e-06
0.000293708
2.58235e-06
0.00029237
2.67525e-06
0.000290987
2.76659e-06
0.000289558
2.85638e-06
0.000288085
2.9446e-06
0.000286569
3.03125e-06
0.000285011
3.11633e-06
0.00028341
3.19983e-06
0.000281769
3.28175e-06
0.000280088
3.3621e-06
0.000278367
3.44087e-06
0.000276607
3.51808e-06
0.00027481
3.59372e-06
0.000272976
3.66781e-06
0.000271105
3.74035e-06
0.000269199
3.81135e-06
0.000267259
3.88081e-06
0.000265284
3.94876e-06
0.000263276
4.0152e-06
0.000261235
4.08014e-06
0.000259163
4.14361e-06
0.00025706
4.20561e-06
0.000254927
4.26615e-06
0.000252764
4.32526e-06
0.000250572
4.38295e-06
0.000248352
4.43923e-06
0.000246104
4.49413e-06
0.00024383
4.54766e-06
0.00024153
4.59985e-06
0.000239204
4.6507e-06
0.000236854
4.70023e-06
0.000234479
4.74848e-06
0.000232081
4.79545e-06
0.00022966
4.84117e-06
0.000227217
4.88565e-06
0.000224753
4.92892e-06
0.000222267
4.971e-06
0.00021976
5.0119e-06
0.000217234
5.05165e-06
0.000214689
5.09026e-06
0.000212125
5.12776e-06
0.000209542
5.16418e-06
0.000206942
5.19952e-06
0.000204325
5.2338e-06
0.000201692
5.26706e-06
0.000199042
5.29931e-06
0.000196376
5.33057e-06
0.000193695
5.36085e-06
0.000191
5.39019e-06
0.000188291
5.4186e-06
0.000185567
5.44609e-06
0.000182831
5.4727e-06
0.000180081
5.49843e-06
0.000177319
5.52332e-06
0.000174546
5.54737e-06
0.00017176
5.5706e-06
0.000168963
5.59305e-06
0.000166156
5.61471e-06
0.000163338
5.63562e-06
0.00016051
5.65579e-06
0.000157672
5.67524e-06
0.000154825
5.69399e-06
0.000151969
5.71205e-06
0.000149104
5.72944e-06
0.00014623
5.74618e-06
0.000143349
5.76229e-06
0.00014046
5.77778e-06
0.000137564
5.79268e-06
0.00013466
5.80698e-06
0.000131749
5.82073e-06
0.000128832
5.83392e-06
0.000125909
5.84657e-06
0.000122979
5.8587e-06
0.000120044
5.87033e-06
0.000117103
5.88147e-06
0.000114157
5.89213e-06
0.000111206
5.90233e-06
0.00010825
5.91208e-06
0.000105289
5.9214e-06
0.000102324
5.93029e-06
9.93542e-05
5.93878e-06
9.63807e-05
5.94687e-06
9.34033e-05
5.95459e-06
9.04222e-05
5.96193e-06
8.74377e-05
5.96891e-06
8.44498e-05
5.97555e-06
8.14588e-05
5.98185e-06
7.84648e-05
5.98783e-06
7.5468e-05
5.99349e-06
7.24685e-05
5.99885e-06
6.94665e-05
6.00392e-06
6.64621e-05
6.0087e-06
6.34554e-05
6.01321e-06
6.04466e-05
6.01745e-06
5.74358e-05
6.02143e-06
5.44232e-05
6.02516e-06
5.14088e-05
6.02865e-06
4.83928e-05
6.03191e-06
4.53753e-05
6.03494e-06
4.23563e-05
6.03774e-06
3.93361e-05
6.04034e-06
3.63147e-05
6.04272e-06
3.32922e-05
6.0449e-06
3.02687e-05
6.04688e-06
2.72443e-05
6.04866e-06
2.42192e-05
6.05026e-06
2.11933e-05
6.05166e-06
1.81668e-05
6.05289e-06
1.51398e-05
6.05393e-06
1.21124e-05
6.0548e-06
9.08457e-06
6.05549e-06
6.05652e-06
6.056e-06
3.0283e-06
6.05635e-06
6.05652e-06
3.65419e-06
-1.09618e-05
7.30823e-06
-1.09614e-05
1.0962e-05
-1.09605e-05
1.46153e-05
-1.09592e-05
1.8268e-05
-1.09574e-05
2.192e-05
-1.09551e-05
2.5571e-05
-1.09524e-05
2.9221e-05
-1.09491e-05
3.28698e-05
-1.09454e-05
3.65171e-05
-1.09412e-05
4.01629e-05
-1.09364e-05
4.38069e-05
-1.09311e-05
4.7449e-05
-1.09251e-05
5.10889e-05
-1.09186e-05
5.47264e-05
-1.09115e-05
5.83613e-05
-1.09037e-05
6.19934e-05
-1.08952e-05
6.56225e-05
-1.08859e-05
6.92483e-05
-1.0876e-05
7.28705e-05
-1.08652e-05
7.64888e-05
-1.08536e-05
8.0103e-05
-1.08412e-05
8.37128e-05
-1.08278e-05
8.73179e-05
-1.08135e-05
9.09178e-05
-1.07982e-05
9.45124e-05
-1.07818e-05
9.81011e-05
-1.07644e-05
0.000101684
-1.07458e-05
0.00010526
-1.07261e-05
0.000108829
-1.07051e-05
0.000112391
-1.06829e-05
0.000115944
-1.06593e-05
0.00011949
-1.06343e-05
0.000123027
-1.06079e-05
0.000126554
-1.05799e-05
0.000130072
-1.05504e-05
0.000133579
-1.05193e-05
0.000137076
-1.04866e-05
0.000140561
-1.04521e-05
0.000144034
-1.04158e-05
0.000147494
-1.03776e-05
0.000150941
-1.03376e-05
0.000154374
-1.02956e-05
0.000157792
-1.02516e-05
0.000161195
-1.02055e-05
0.000164582
-1.01572e-05
0.000167953
-1.01068e-05
0.000171305
-1.00542e-05
0.00017464
-9.99918e-06
0.000177955
-9.94185e-06
0.00018125
-9.88211e-06
0.000184525
-9.81992e-06
0.000187778
-9.75521e-06
0.000191009
-9.68795e-06
0.000194216
-9.61808e-06
0.0001974
-9.54556e-06
0.000200558
-9.47035e-06
0.00020369
-9.39242e-06
0.000206796
-9.31171e-06
0.000209874
-9.2282e-06
0.000212922
-9.14186e-06
0.000215942
-9.05265e-06
0.00021893
-8.96055e-06
0.000221887
-8.86553e-06
0.000224811
-8.76758e-06
0.000227702
-8.66668e-06
0.000230557
-8.56282e-06
0.000233378
-8.45598e-06
0.000236161
-8.34617e-06
0.000238908
-8.23338e-06
0.000241615
-8.11761e-06
0.000244283
-7.99886e-06
0.00024691
-7.87716e-06
0.000249496
-7.75251e-06
0.000252039
-7.62494e-06
0.000254539
-7.49446e-06
0.000256994
-7.3611e-06
0.000259404
-7.2249e-06
0.000261768
-7.08589e-06
0.000264084
-6.94412e-06
0.000266352
-6.79962e-06
0.000268571
-6.65244e-06
0.00027074
-6.50264e-06
0.000272858
-6.35028e-06
0.000274925
-6.19542e-06
0.000276939
-6.03812e-06
0.000278899
-5.87845e-06
0.000280806
-5.71648e-06
0.000282658
-5.5523e-06
0.000284455
-5.38598e-06
0.000286195
-5.21761e-06
0.000287878
-5.04727e-06
0.000289504
-4.87505e-06
0.000291072
-4.70104e-06
0.000292582
-4.52535e-06
0.000294032
-4.34807e-06
0.000295422
-4.1693e-06
0.000296753
-3.98915e-06
0.000298023
-3.80771e-06
0.000299232
-3.6251e-06
0.000300379
-3.44142e-06
0.000301465
-3.25678e-06
0.000302489
-3.0713e-06
0.000303452
-2.88507e-06
0.000304351
-2.69823e-06
0.000305188
-2.51086e-06
0.000305963
-2.3231e-06
0.000306675
-2.13505e-06
0.000307324
-1.94682e-06
0.00030791
-1.75853e-06
0.000308433
-1.57028e-06
0.000308894
-1.38218e-06
0.000309292
-1.19434e-06
0.000309627
-1.00687e-06
0.0003099
-8.19875e-07
0.000310111
-6.33456e-07
0.00031026
-4.47714e-07
0.000310347
-2.6275e-07
0.000310372
-7.866e-08
0.000310337
1.04461e-07
0.000310241
2.86521e-07
0.000310084
4.67431e-07
0.000309868
6.47103e-07
0.000309592
8.25456e-07
0.000309257
1.00241e-06
0.000308863
1.17788e-06
0.000308412
1.3518e-06
0.000307903
1.52409e-06
0.000307337
1.6947e-06
0.000306715
1.86354e-06
0.000306037
2.03057e-06
0.000305304
2.19572e-06
0.000304517
2.35895e-06
0.000303675
2.52019e-06
0.000302781
2.6794e-06
0.000301835
2.83654e-06
0.000300836
2.99157e-06
0.000299787
3.14444e-06
0.000298687
3.29513e-06
0.000297538
3.4436e-06
0.00029634
3.58983e-06
0.000295094
3.73379e-06
0.000293801
3.87545e-06
0.000292462
4.01481e-06
0.000291076
4.15184e-06
0.000289646
4.28652e-06
0.000288172
4.41886e-06
0.000286654
4.54884e-06
0.000285094
4.67646e-06
0.000283492
4.80171e-06
0.00028185
4.92459e-06
0.000280167
5.04511e-06
0.000278444
5.16327e-06
0.000276683
5.27907e-06
0.000274884
5.39253e-06
0.000273049
5.50365e-06
0.000271176
5.61245e-06
0.000269269
5.71893e-06
0.000267327
5.82312e-06
0.00026535
5.92502e-06
0.000263341
6.02467e-06
0.000261299
6.12207e-06
0.000259225
6.21725e-06
0.000257121
6.31022e-06
0.000254986
6.40102e-06
0.000252821
6.48966e-06
0.000250628
6.57617e-06
0.000248407
6.66058e-06
0.000246158
6.74291e-06
0.000243882
6.82318e-06
0.000241581
6.90143e-06
0.000239254
6.97768e-06
0.000236902
7.05197e-06
0.000234526
7.12431e-06
0.000232127
7.19474e-06
0.000229705
7.26329e-06
0.000227261
7.32999e-06
0.000224795
7.39487e-06
0.000222308
7.45796e-06
0.0002198
7.51929e-06
0.000217273
7.57888e-06
0.000214726
7.63678e-06
0.000212161
7.69301e-06
0.000209578
7.7476e-06
0.000206977
7.80059e-06
0.000204359
7.85199e-06
0.000201724
7.90186e-06
0.000199073
7.9502e-06
0.000196406
7.99706e-06
0.000193725
8.04247e-06
0.000191029
8.08645e-06
0.000188318
8.12903e-06
0.000185594
8.17025e-06
0.000182856
8.21014e-06
0.000180106
8.24871e-06
0.000177343
8.28601e-06
0.000174569
8.32207e-06
0.000171782
8.3569e-06
0.000168985
8.39054e-06
0.000166177
8.42301e-06
0.000163358
8.45435e-06
0.000160529
8.48459e-06
0.000157691
8.51374e-06
0.000154843
8.54183e-06
0.000151986
8.5689e-06
0.00014912
8.59497e-06
0.000146247
8.62006e-06
0.000143365
8.64421e-06
0.000140475
8.66742e-06
0.000137578
8.68974e-06
0.000134674
8.71119e-06
0.000131763
8.73178e-06
0.000128845
8.75154e-06
0.000125921
8.77051e-06
0.000122991
8.78869e-06
0.000120055
8.80611e-06
0.000117114
8.8228e-06
0.000114167
8.83877e-06
0.000111216
8.85405e-06
0.000108259
8.86866e-06
0.000105298
8.88262e-06
0.000102332
8.89595e-06
9.93623e-05
8.90866e-06
9.63884e-05
8.92079e-06
9.34106e-05
8.93234e-06
9.04292e-05
8.94334e-06
8.74443e-05
8.9538e-06
8.44561e-05
8.96374e-06
8.14648e-05
8.97318e-06
7.84705e-05
8.98213e-06
7.54734e-05
8.99062e-06
7.24736e-05
8.99864e-06
6.94713e-05
9.00623e-06
6.64666e-05
9.01339e-06
6.34596e-05
9.02014e-06
6.04506e-05
9.02649e-06
5.74396e-05
9.03246e-06
5.44267e-05
9.03805e-06
5.14121e-05
9.04327e-06
4.83958e-05
9.04815e-06
4.53781e-05
9.05268e-06
4.23589e-05
9.05689e-06
3.93385e-05
9.06077e-06
3.63169e-05
9.06433e-06
3.32942e-05
9.0676e-06
3.02705e-05
9.07056e-06
2.72459e-05
9.07323e-06
2.42206e-05
9.07562e-06
2.11945e-05
9.07772e-06
1.81679e-05
9.07956e-06
1.51407e-05
9.08112e-06
1.2113e-05
9.08242e-06
9.08508e-06
9.08345e-06
6.05686e-06
9.08422e-06
3.02847e-06
9.08474e-06
9.08499e-06
3.65464e-06
-1.46165e-05
7.30913e-06
-1.46159e-05
1.09633e-05
-1.46147e-05
1.46171e-05
-1.46129e-05
1.82703e-05
-1.46105e-05
2.19227e-05
-1.46075e-05
2.55743e-05
-1.46039e-05
2.92247e-05
-1.45996e-05
3.2874e-05
-1.45947e-05
3.65219e-05
-1.45891e-05
4.01683e-05
-1.45827e-05
4.38128e-05
-1.45756e-05
4.74555e-05
-1.45678e-05
5.1096e-05
-1.45591e-05
5.47342e-05
-1.45496e-05
5.83698e-05
-1.45393e-05
6.20027e-05
-1.4528e-05
6.56325e-05
-1.45158e-05
6.9259e-05
-1.45025e-05
7.28821e-05
-1.44882e-05
7.65013e-05
-1.44728e-05
8.01164e-05
-1.44563e-05
8.37272e-05
-1.44385e-05
8.73332e-05
-1.44195e-05
9.09342e-05
-1.43992e-05
9.45298e-05
-1.43775e-05
9.81197e-05
-1.43543e-05
0.000101704
-1.43296e-05
0.000105281
-1.43034e-05
0.000108851
-1.42755e-05
0.000112414
-1.42459e-05
0.000115969
-1.42145e-05
0.000119516
-1.41813e-05
0.000123055
-1.41462e-05
0.000126584
-1.4109e-05
0.000130103
-1.40698e-05
0.000133612
-1.40284e-05
0.00013711
-1.39848e-05
0.000140597
-1.39389e-05
0.000144072
-1.38906e-05
0.000147534
-1.38398e-05
0.000150983
-1.37865e-05
0.000154418
-1.37306e-05
0.000157839
-1.3672e-05
0.000161244
-1.36106e-05
0.000164633
-1.35464e-05
0.000168005
-1.34793e-05
0.00017136
-1.34091e-05
0.000174697
-1.33359e-05
0.000178015
-1.32595e-05
0.000181313
-1.318e-05
0.00018459
-1.30971e-05
0.000187845
-1.30109e-05
0.000191079
-1.29213e-05
0.000194289
-1.28282e-05
0.000197475
-1.27316e-05
0.000200636
-1.26314e-05
0.000203771
-1.25275e-05
0.000206879
-1.242e-05
0.00020996
-1.23087e-05
0.000213012
-1.21936e-05
0.000216034
-1.20747e-05
0.000219025
-1.19519e-05
0.000221985
-1.18253e-05
0.000224912
-1.16947e-05
0.000227805
-1.15602e-05
0.000230664
-1.14217e-05
0.000233488
-1.12793e-05
0.000236274
-1.11329e-05
0.000239023
-1.09825e-05
0.000241734
-1.08281e-05
0.000244405
-1.06698e-05
0.000247035
-1.05075e-05
0.000249624
-1.03412e-05
0.00025217
-1.01711e-05
0.000254673
-9.99708e-06
0.000257131
-9.81923e-06
0.000259543
-9.63757e-06
0.00026191
-9.45216e-06
0.000264229
-9.26306e-06
0.000266499
-9.07031e-06
0.000268721
-8.874e-06
0.000270892
-8.67418e-06
0.000273013
-8.47093e-06
0.000275082
-8.26435e-06
0.000277098
-8.0545e-06
0.000279061
-7.8415e-06
0.00028097
-7.62543e-06
0.000282824
-7.40639e-06
0.000284623
-7.1845e-06
0.000286365
-6.95987e-06
0.000288051
-6.7326e-06
0.000289678
-6.50284e-06
0.000291248
-6.27068e-06
0.000292759
-6.03628e-06
0.000294211
-5.79975e-06
0.000295603
-5.56123e-06
0.000296934
-5.32086e-06
0.000298205
-5.07878e-06
0.000299415
-4.83513e-06
0.000300564
-4.59005e-06
0.000301651
-4.34369e-06
0.000302676
-4.09621e-06
0.000303638
-3.84774e-06
0.000304539
-3.59843e-06
0.000305376
-3.34844e-06
0.000306151
-3.09792e-06
0.000306863
-2.84701e-06
0.000307512
-2.59587e-06
0.000308098
-2.34463e-06
0.000308621
-2.09346e-06
0.000309082
-1.8425e-06
0.000309479
-1.59188e-06
0.000309814
-1.34176e-06
0.000310086
-1.09227e-06
0.000310297
-8.43554e-07
0.000310445
-5.95744e-07
0.000310531
-3.48974e-07
0.000310556
-1.03374e-07
0.000310519
1.40931e-07
0.000310422
3.83816e-07
0.000310264
6.25164e-07
0.000310046
8.64858e-07
0.000309769
1.10279e-06
0.000309433
1.33884e-06
0.000309037
1.57292e-06
0.000308584
1.80492e-06
0.000308074
2.03476e-06
0.000307506
2.26233e-06
0.000306882
2.48755e-06
0.000306202
2.71034e-06
0.000305467
2.93063e-06
0.000304678
3.14834e-06
0.000303835
3.36341e-06
0.000302938
3.57576e-06
0.00030199
3.78534e-06
0.000300989
3.9921e-06
0.000299938
4.19599e-06
0.000298836
4.39696e-06
0.000297684
4.59496e-06
0.000296484
4.78997e-06
0.000295236
4.98195e-06
0.000293941
5.17086e-06
0.000292599
5.35669e-06
0.000291211
5.53942e-06
0.000289779
5.71902e-06
0.000288302
5.89548e-06
0.000286782
6.0688e-06
0.00028522
6.23896e-06
0.000283615
6.40596e-06
0.00028197
6.5698e-06
0.000280285
6.73049e-06
0.00027856
6.88802e-06
0.000276797
7.04242e-06
0.000274995
7.19368e-06
0.000273157
7.34182e-06
0.000271283
7.48686e-06
0.000269373
7.62881e-06
0.000267428
7.7677e-06
0.00026545
7.90355e-06
0.000263438
8.03638e-06
0.000261394
8.16622e-06
0.000259318
8.29309e-06
0.000257211
8.41702e-06
0.000255074
8.53805e-06
0.000252908
8.6562e-06
0.000250713
8.77151e-06
0.000248489
8.88401e-06
0.000246238
8.99374e-06
0.000243961
9.10073e-06
0.000241657
9.20502e-06
0.000239328
9.30664e-06
0.000236975
9.40564e-06
0.000234597
9.50205e-06
0.000232196
9.59592e-06
0.000229772
9.68727e-06
0.000227325
9.77616e-06
0.000224858
9.86262e-06
0.000222369
9.94669e-06
0.00021986
1.00284e-05
0.000217331
1.01078e-05
0.000214783
1.0185e-05
0.000212216
1.02599e-05
0.000209631
1.03326e-05
0.000207028
1.04032e-05
0.000204408
1.04717e-05
0.000201772
1.05382e-05
0.00019912
1.06026e-05
0.000196452
1.0665e-05
0.000193769
1.07255e-05
0.000191071
1.07841e-05
0.000188359
1.08408e-05
0.000185634
1.08957e-05
0.000182895
1.09489e-05
0.000180143
1.10003e-05
0.00017738
1.105e-05
0.000174604
1.1098e-05
0.000171816
1.11444e-05
0.000169017
1.11892e-05
0.000166208
1.12325e-05
0.000163388
1.12742e-05
0.000160558
1.13145e-05
0.000157719
1.13533e-05
0.00015487
1.13907e-05
0.000152012
1.14268e-05
0.000149146
1.14615e-05
0.000146271
1.14949e-05
0.000143388
1.1527e-05
0.000140497
1.1558e-05
0.000137599
1.15877e-05
0.000134694
1.16162e-05
0.000131782
1.16437e-05
0.000128864
1.167e-05
0.000125939
1.16952e-05
0.000123009
1.17194e-05
0.000120072
1.17426e-05
0.00011713
1.17648e-05
0.000114183
1.17861e-05
0.00011123
1.18064e-05
0.000108273
1.18259e-05
0.000105311
1.18445e-05
0.000102345
1.18622e-05
9.93744e-05
1.18791e-05
9.63999e-05
1.18953e-05
9.34216e-05
1.19107e-05
9.04397e-05
1.19253e-05
8.74543e-05
1.19392e-05
8.44656e-05
1.19524e-05
8.14738e-05
1.1965e-05
7.8479e-05
1.19769e-05
7.54814e-05
1.19882e-05
7.24812e-05
1.19989e-05
6.94784e-05
1.2009e-05
6.64733e-05
1.20185e-05
6.3466e-05
1.20275e-05
6.04566e-05
1.20359e-05
5.74452e-05
1.20439e-05
5.44319e-05
1.20513e-05
5.14169e-05
1.20582e-05
4.84004e-05
1.20647e-05
4.53823e-05
1.20708e-05
4.23628e-05
1.20763e-05
3.93421e-05
1.20815e-05
3.63202e-05
1.20863e-05
3.32972e-05
1.20906e-05
3.02732e-05
1.20945e-05
2.72483e-05
1.20981e-05
2.42227e-05
1.21013e-05
2.11964e-05
1.21041e-05
1.81694e-05
1.21065e-05
1.5142e-05
1.21086e-05
1.21141e-05
1.21103e-05
9.08585e-06
1.21117e-05
6.05738e-06
1.21127e-05
3.02873e-06
1.21134e-05
1.21137e-05
3.65523e-06
-1.82717e-05
7.31031e-06
-1.8271e-05
1.09651e-05
-1.82695e-05
1.46195e-05
-1.82673e-05
1.82733e-05
-1.82643e-05
2.19263e-05
-1.82606e-05
2.55785e-05
-1.82561e-05
2.92297e-05
-1.82508e-05
3.28797e-05
-1.82447e-05
3.65283e-05
-1.82377e-05
4.01753e-05
-1.82298e-05
4.38207e-05
-1.8221e-05
4.74642e-05
-1.82112e-05
5.11055e-05
-1.82005e-05
5.47446e-05
-1.81887e-05
5.83811e-05
-1.81758e-05
6.20149e-05
-1.81618e-05
6.56457e-05
-1.81466e-05
6.92734e-05
-1.81301e-05
7.28975e-05
-1.81123e-05
7.65178e-05
-1.80932e-05
8.01342e-05
-1.80726e-05
8.37462e-05
-1.80505e-05
8.73536e-05
-1.80269e-05
9.09559e-05
-1.80016e-05
9.4553e-05
-1.79745e-05
9.81444e-05
-1.79457e-05
0.00010173
-1.7915e-05
0.000105309
-1.78823e-05
0.000108881
-1.78476e-05
0.000112446
-1.78107e-05
0.000116003
-1.77716e-05
0.000119552
-1.77303e-05
0.000123092
-1.76864e-05
0.000126623
-1.76401e-05
0.000130145
-1.75912e-05
0.000133656
-1.75397e-05
0.000137156
-1.74853e-05
0.000140646
-1.74281e-05
0.000144123
-1.73678e-05
0.000147588
-1.73045e-05
0.000151039
-1.72381e-05
0.000154477
-1.71683e-05
0.0001579
-1.70952e-05
0.000161308
-1.70186e-05
0.0001647
-1.69385e-05
0.000168075
-1.68547e-05
0.000171434
-1.67672e-05
0.000174773
-1.66758e-05
0.000178094
-1.65805e-05
0.000181395
-1.64811e-05
0.000184676
-1.63777e-05
0.000187935
-1.62701e-05
0.000191172
-1.61582e-05
0.000194386
-1.60419e-05
0.000197575
-1.59212e-05
0.00020074
-1.57961e-05
0.000203879
-1.56663e-05
0.000206991
-1.5532e-05
0.000210075
-1.53929e-05
0.000213131
-1.52492e-05
0.000216157
-1.51006e-05
0.000219152
-1.49472e-05
0.000222115
-1.47889e-05
0.000225047
-1.46258e-05
0.000227944
-1.44576e-05
0.000230807
-1.42846e-05
0.000233634
-1.41065e-05
0.000236425
-1.39235e-05
0.000239178
-1.37355e-05
0.000241892
-1.35426e-05
0.000244567
-1.33446e-05
0.000247201
-1.31417e-05
0.000249794
-1.29339e-05
0.000252344
-1.27211e-05
0.000254851
-1.25036e-05
0.000257312
-1.22812e-05
0.000259729
-1.2054e-05
0.000262099
-1.18221e-05
0.000264421
-1.15856e-05
0.000266696
-1.13446e-05
0.000268921
-1.10991e-05
0.000271096
-1.08491e-05
0.00027322
-1.05949e-05
0.000275292
-1.03365e-05
0.000277311
-1.00741e-05
0.000279278
-9.80761e-06
0.000281189
-9.53733e-06
0.000283046
-9.26334e-06
0.000284848
-8.98577e-06
0.000286593
-8.70475e-06
0.00028828
-8.42045e-06
0.000289911
-8.13301e-06
0.000291482
-7.84258e-06
0.000292996
-7.54932e-06
0.000294449
-7.25341e-06
0.000295843
-6.955e-06
0.000297176
-6.65428e-06
0.000298449
-6.35141e-06
0.00029966
-6.04658e-06
0.00030081
-5.73996e-06
0.000301898
-5.43174e-06
0.000302924
-5.1221e-06
0.000303888
-4.81123e-06
0.000304789
-4.49932e-06
0.000305627
-4.18656e-06
0.000306402
-3.87312e-06
0.000307114
-3.55921e-06
0.000307763
-3.245e-06
0.000308349
-2.93068e-06
0.000308872
-2.61644e-06
0.000309332
-2.30247e-06
0.000309729
-1.98893e-06
0.000310064
-1.67601e-06
0.000310335
-1.36389e-06
0.000310544
-1.05274e-06
0.000310691
-7.42733e-07
0.000310776
-4.34028e-07
0.0003108
-1.26791e-07
0.000310762
1.7882e-07
0.000310663
4.82651e-07
0.000310504
7.84552e-07
0.000310284
1.08438e-06
0.000310005
1.38199e-06
0.000309667
1.67725e-06
0.00030927
1.97004e-06
0.000308814
2.26022e-06
0.000308301
2.54768e-06
0.000307731
2.8323e-06
0.000307105
3.11399e-06
0.000306423
3.39263e-06
0.000305685
3.66812e-06
0.000304893
3.94039e-06
0.000304047
4.20933e-06
0.000303148
4.47489e-06
0.000302196
4.73697e-06
0.000301193
4.99551e-06
0.000300139
5.25046e-06
0.000299034
5.50174e-06
0.000297879
5.74932e-06
0.000296676
5.99314e-06
0.000295425
6.23317e-06
0.000294126
6.46936e-06
0.000292782
6.70169e-06
0.000291391
6.93013e-06
0.000289955
7.15466e-06
0.000288475
7.37525e-06
0.000286952
7.59191e-06
0.000285387
7.80462e-06
0.000283779
8.01337e-06
0.000282131
8.21817e-06
0.000280442
8.41902e-06
0.000278714
8.61592e-06
0.000276948
8.80889e-06
0.000275144
8.99794e-06
0.000273302
9.18309e-06
0.000271425
9.36436e-06
0.000269512
9.54176e-06
0.000267564
9.71533e-06
0.000265583
9.8851e-06
0.000263568
1.00511e-05
0.000261521
1.02133e-05
0.000259442
1.03719e-05
0.000257332
1.05267e-05
0.000255193
1.06779e-05
0.000253023
1.08256e-05
0.000250825
1.09697e-05
0.000248599
1.11102e-05
0.000246345
1.12473e-05
0.000244065
1.1381e-05
0.000241759
1.15113e-05
0.000239427
1.16382e-05
0.000237071
1.17619e-05
0.000234691
1.18823e-05
0.000232287
1.19996e-05
0.000229861
1.21137e-05
0.000227412