/*--------------------------------*- C++ -*----------------------------------*\
| =========                 |                                                 |
| \\      /  F ield         | OpenFOAM: The Open Source CFD Toolbox           |
|  \\    /   O peration     | Version:  v2012                                 |
|   \\  /    A nd           | Website:  www.openfoam.com                      |
|    \\/     M anipulation  |                                                 |
\*---------------------------------------------------------------------------*/
FoamFile
{
    version     2.0;
    format      ascii;
    class       volVectorField;
    location    "70";
    object      Usup;
}
// * * * * * * * * * * * * * * * * * * * * * * * * * * * * * * * * * * * * * //

dimensions      [0 1 -1 0 0 0 0];


internalField   nonuniform List<vector> 
4000
(
(-2.98284e-16 -8.30151e-17 0)
(-8.82422e-16 -1.79519e-16 0)
(-1.1651e-15 2.27036e-16 0)
(-1.85943e-15 1.81147e-16 0)
(-3.01318e-15 1.74057e-16 0)
(-3.59486e-15 2.82918e-16 0)
(-3.79578e-15 5.06677e-16 0)
(-4.16631e-15 2.69156e-16 0)
(-5.09674e-15 -2.23227e-16 0)
(-6.02393e-15 -2.77173e-16 0)
(-6.65294e-15 -2.97284e-16 0)
(-6.967e-15 -2.1635e-18 0)
(-7.23987e-15 6.59472e-17 0)
(-8.11551e-15 1.12346e-16 0)
(-8.63769e-15 7.37734e-16 0)
(-7.96745e-15 1.22497e-15 0)
(-7.52568e-15 7.38399e-16 0)
(-8.45148e-15 2.00937e-16 0)
(-9.31779e-15 4.74842e-16 0)
(-9.56114e-15 7.10404e-16 0)
(-9.28721e-15 6.91587e-16 0)
(-8.875e-15 4.1084e-16 0)
(-9.06244e-15 5.05721e-16 0)
(-9.70057e-15 5.9475e-16 0)
(-1.03235e-14 8.7658e-16 0)
(-1.03047e-14 1.38357e-15 0)
(-9.64953e-15 1.64414e-15 0)
(-9.08676e-15 1.52289e-15 0)
(-9.14599e-15 1.36531e-15 0)
(-9.66923e-15 1.57372e-15 0)
(-1.01362e-14 1.7259e-15 0)
(-9.69019e-15 1.91016e-15 0)
(-9.4352e-15 1.67786e-15 0)
(-9.92985e-15 1.4358e-15 0)
(-1.02532e-14 1.5506e-15 0)
(-1.01479e-14 1.81697e-15 0)
(-9.90759e-15 1.88619e-15 0)
(-9.6172e-15 1.84005e-15 0)
(-9.55424e-15 1.71252e-15 0)
(-9.16158e-15 1.70267e-15 0)
(-8.12812e-15 1.99116e-15 0)
(-7.4687e-15 2.241e-15 0)
(-7.1656e-15 1.93101e-15 0)
(-6.88671e-15 1.57906e-15 0)
(-7.20011e-15 1.17398e-15 0)
(-7.67611e-15 1.34554e-15 0)
(-7.28385e-15 1.54271e-15 0)
(-6.6521e-15 1.79265e-15 0)
(-6.26434e-15 2.18777e-15 0)
(-6.04722e-15 2.23382e-15 0)
(-5.3869e-15 2.1144e-15 0)
(-4.74897e-15 1.87921e-15 0)
(-4.71768e-15 2.16999e-15 0)
(-4.52617e-15 2.28695e-15 0)
(-4.11993e-15 2.11938e-15 0)
(-3.74617e-15 2.01982e-15 0)
(-3.07837e-15 1.84124e-15 0)
(-2.29516e-15 1.75908e-15 0)
(-1.80502e-15 1.38133e-15 0)
(-1.70477e-15 1.26066e-15 0)
(-2.1229e-15 1.11044e-15 0)
(-2.69734e-15 8.18161e-16 0)
(-3.03803e-15 8.21034e-16 0)
(-2.60598e-15 1.20896e-15 0)
(-2.13225e-15 1.06409e-15 0)
(-2.28346e-15 9.5949e-16 0)
(-2.45435e-15 6.38288e-16 0)
(-2.55124e-15 5.86198e-16 0)
(-2.28812e-15 6.41853e-16 0)
(-1.81762e-15 4.43487e-16 0)
(-1.75118e-15 3.86278e-16 0)
(-1.98539e-15 2.42259e-16 0)
(-1.69466e-15 4.88835e-16 0)
(-1.00768e-15 3.2244e-16 0)
(-3.43835e-16 5.18159e-17 0)
(4.33306e-17 -2.98522e-16 0)
(-1.12283e-16 -4.72357e-16 0)
(-3.47996e-16 -6.53043e-16 0)
(-5.54893e-16 -6.53928e-16 0)
(-8.93061e-16 -5.72816e-16 0)
(-3.84912e-16 -1.22661e-16 0)
(1.79597e-16 -3.93371e-16 0)
(6.13095e-19 -5.15861e-16 0)
(-1.7231e-16 -6.01755e-16 0)
(-1.42558e-16 -7.84038e-16 0)
(4.39365e-16 -7.30688e-16 0)
(1.04336e-15 -1.00325e-15 0)
(1.30395e-15 -9.02598e-16 0)
(1.33096e-15 -8.20867e-16 0)
(5.11413e-16 -1.095e-15 0)
(-3.5907e-16 -6.92051e-16 0)
(-4.98593e-16 -5.81625e-16 0)
(-8.34321e-16 -6.11929e-16 0)
(-1.06433e-15 -3.08792e-16 0)
(-9.54726e-16 -3.90809e-16 0)
(-8.42904e-16 -4.16574e-16 0)
(-7.15128e-16 -5.88653e-16 0)
(-6.1521e-16 -4.72984e-16 0)
(-5.82557e-16 -1.08638e-16 0)
(-1.65153e-16 3.56395e-17 0)
(-8.50159e-16 -3.24636e-16 0)
(-2.16554e-15 -3.21837e-16 0)
(-3.3731e-15 3.97861e-16 0)
(-5.64877e-15 2.94536e-16 0)
(-8.27236e-15 4.92539e-16 0)
(-9.8315e-15 7.99732e-16 0)
(-1.10854e-14 9.0352e-16 0)
(-1.29282e-14 4.9714e-16 0)
(-1.51228e-14 -2.3263e-16 0)
(-1.71315e-14 -4.83838e-16 0)
(-1.8637e-14 -7.46065e-16 0)
(-1.96955e-14 -3.94894e-16 0)
(-2.09107e-14 1.86005e-16 0)
(-2.24534e-14 7.93188e-16 0)
(-2.33058e-14 2.06788e-15 0)
(-2.31626e-14 2.8721e-15 0)
(-2.33759e-14 1.97459e-15 0)
(-2.47122e-14 1.08789e-15 0)
(-2.60435e-14 1.61256e-15 0)
(-2.69558e-14 1.77122e-15 0)
(-2.69625e-14 1.99512e-15 0)
(-2.62488e-14 1.80801e-15 0)
(-2.64595e-14 1.8031e-15 0)
(-2.76866e-14 2.07799e-15 0)
(-2.86593e-14 2.87519e-15 0)
(-2.8667e-14 3.98658e-15 0)
(-2.78665e-14 4.76323e-15 0)
(-2.70595e-14 4.40858e-15 0)
(-2.69061e-14 4.28343e-15 0)
(-2.76929e-14 4.67428e-15 0)
(-2.85843e-14 4.90166e-15 0)
(-2.81583e-14 5.29618e-15 0)
(-2.80647e-14 4.98227e-15 0)
(-2.87021e-14 4.79248e-15 0)
(-2.89471e-14 5.1605e-15 0)
(-2.87645e-14 5.57711e-15 0)
(-2.84098e-14 5.50108e-15 0)
(-2.7818e-14 5.281e-15 0)
(-2.73241e-14 5.12705e-15 0)
(-2.58564e-14 5.44108e-15 0)
(-2.33556e-14 5.95814e-15 0)
(-2.21126e-14 6.13228e-15 0)
(-2.16179e-14 5.53058e-15 0)
(-2.10171e-14 4.59942e-15 0)
(-2.10751e-14 3.93632e-15 0)
(-2.13151e-14 4.27864e-15 0)
(-2.03635e-14 4.58966e-15 0)
(-1.87571e-14 5.56856e-15 0)
(-1.77986e-14 6.53877e-15 0)
(-1.73142e-14 7.04194e-15 0)
(-1.5915e-14 6.56949e-15 0)
(-1.40819e-14 5.84791e-15 0)
(-1.33471e-14 5.82064e-15 0)
(-1.29886e-14 6.34315e-15 0)
(-1.20453e-14 6.14183e-15 0)
(-1.09047e-14 6.06723e-15 0)
(-9.20381e-15 5.68787e-15 0)
(-7.49692e-15 5.55761e-15 0)
(-6.31277e-15 4.74956e-15 0)
(-5.8485e-15 4.07962e-15 0)
(-6.76785e-15 3.29464e-15 0)
(-7.79915e-15 2.58159e-15 0)
(-7.93139e-15 2.64385e-15 0)
(-7.24058e-15 3.18748e-15 0)
(-6.67949e-15 2.89889e-15 0)
(-6.97148e-15 2.84555e-15 0)
(-7.20515e-15 2.15757e-15 0)
(-7.01166e-15 1.73404e-15 0)
(-6.50559e-15 1.66903e-15 0)
(-5.59771e-15 1.29374e-15 0)
(-5.26453e-15 1.02706e-15 0)
(-5.22822e-15 9.56093e-16 0)
(-4.46122e-15 1.17275e-15 0)
(-3.26523e-15 8.71337e-16 0)
(-1.85598e-15 1.23467e-16 0)
(-8.60107e-16 -6.54306e-16 0)
(-8.97425e-16 -1.2889e-15 0)
(-1.21446e-15 -1.62695e-15 0)
(-1.45465e-15 -1.76997e-15 0)
(-1.63497e-15 -1.48534e-15 0)
(-8.99141e-16 -6.35837e-16 0)
(-1.97372e-16 -1.30805e-15 0)
(-2.26846e-16 -1.84104e-15 0)
(-4.90784e-16 -2.22075e-15 0)
(-1.6062e-16 -2.48922e-15 0)
(1.02453e-15 -2.09496e-15 0)
(2.36299e-15 -2.30272e-15 0)
(3.20985e-15 -2.48642e-15 0)
(2.82367e-15 -2.78357e-15 0)
(1.32048e-15 -3.09367e-15 0)
(-2.99023e-16 -2.27492e-15 0)
(-1.26859e-15 -1.97192e-15 0)
(-1.94959e-15 -1.97891e-15 0)
(-2.52746e-15 -1.1895e-15 0)
(-2.63735e-15 -1.16471e-15 0)
(-2.46551e-15 -1.16323e-15 0)
(-2.05644e-15 -1.28989e-15 0)
(-1.37436e-15 -1.0276e-15 0)
(-1.09844e-15 -3.72566e-16 0)
(-4.61659e-16 1.49304e-16 0)
(-1.17151e-15 -3.51036e-16 0)
(-3.2225e-15 -1.8204e-16 0)
(-5.63097e-15 8.8028e-18 0)
(-9.15646e-15 3.00348e-17 0)
(-1.28534e-14 6.48837e-16 0)
(-1.57353e-14 9.90064e-16 0)
(-1.81856e-14 8.95478e-16 0)
(-2.10997e-14 6.71936e-16 0)
(-2.44816e-14 -3.62423e-17 0)
(-2.76728e-14 -6.95979e-16 0)
(-3.00158e-14 -7.81313e-16 0)
(-3.13613e-14 -7.10431e-16 0)
(-3.29799e-14 3.46791e-17 0)
(-3.52248e-14 1.18875e-15 0)
(-3.68032e-14 2.76707e-15 0)
(-3.75844e-14 3.6256e-15 0)
(-3.85005e-14 3.05418e-15 0)
(-3.99812e-14 2.5158e-15 0)
(-4.17942e-14 2.27494e-15 0)
(-4.31186e-14 2.20735e-15 0)
(-4.31151e-14 3.09694e-15 0)
(-4.27001e-14 3.54278e-15 0)
(-4.31026e-14 3.45784e-15 0)
(-4.43248e-14 3.94501e-15 0)
(-4.53699e-14 5.01652e-15 0)
(-4.54213e-14 6.23143e-15 0)
(-4.49685e-14 7.40618e-15 0)
(-4.42548e-14 7.53973e-15 0)
(-4.38015e-14 7.7148e-15 0)
(-4.47884e-14 7.71977e-15 0)
(-4.58553e-14 7.89188e-15 0)
(-4.5489e-14 8.16122e-15 0)
(-4.54799e-14 8.03669e-15 0)
(-4.60307e-14 8.2737e-15 0)
(-4.63121e-14 8.57047e-15 0)
(-4.6318e-14 9.00059e-15 0)
(-4.59229e-14 8.87703e-15 0)
(-4.48546e-14 8.78386e-15 0)
(-4.35321e-14 8.78772e-15 0)
(-4.12008e-14 9.6406e-15 0)
(-3.8097e-14 9.8046e-15 0)
(-3.64342e-14 9.38506e-15 0)
(-3.57271e-14 8.84915e-15 0)
(-3.4725e-14 8.04775e-15 0)
(-3.41039e-14 7.27328e-15 0)
(-3.3957e-14 7.65624e-15 0)
(-3.21698e-14 8.16854e-15 0)
(-2.95941e-14 9.15166e-15 0)
(-2.81876e-14 1.02114e-14 0)
(-2.77314e-14 1.12682e-14 0)
(-2.62651e-14 1.10109e-14 0)
(-2.36802e-14 1.01924e-14 0)
(-2.1738e-14 9.6669e-15 0)
(-2.06171e-14 9.94521e-15 0)
(-1.93125e-14 9.81103e-15 0)
(-1.75822e-14 9.93304e-15 0)
(-1.51245e-14 9.39573e-15 0)
(-1.27975e-14 8.897e-15 0)
(-1.14214e-14 7.89135e-15 0)
(-1.08896e-14 6.74952e-15 0)
(-1.18323e-14 5.39077e-15 0)
(-1.25984e-14 4.95709e-15 0)
(-1.2415e-14 4.91602e-15 0)
(-1.16909e-14 5.05814e-15 0)
(-1.09616e-14 4.52226e-15 0)
(-1.13377e-14 4.24893e-15 0)
(-1.18539e-14 3.56725e-15 0)
(-1.13794e-14 2.84442e-15 0)
(-1.04651e-14 2.59812e-15 0)
(-9.27222e-15 2.16632e-15 0)
(-8.49612e-15 1.92612e-15 0)
(-8.10313e-15 2.02747e-15 0)
(-7.05862e-15 1.64079e-15 0)
(-5.56783e-15 1.25034e-15 0)
(-3.7591e-15 3.50659e-16 0)
(-2.34176e-15 -7.64589e-16 0)
(-2.06705e-15 -1.86652e-15 0)
(-2.19521e-15 -2.27267e-15 0)
(-2.24533e-15 -2.62954e-15 0)
(-2.02756e-15 -2.31225e-15 0)
(-1.46212e-15 -1.57893e-15 0)
(-1.0348e-15 -2.28858e-15 0)
(-8.61599e-16 -3.18959e-15 0)
(-8.00606e-16 -3.90675e-15 0)
(2.10355e-16 -3.93693e-15 0)
(1.92062e-15 -3.48827e-15 0)
(3.20912e-15 -3.60544e-15 0)
(3.9084e-15 -4.17294e-15 0)
(3.54802e-15 -4.87656e-15 0)
(2.06621e-15 -4.63641e-15 0)
(-4.96588e-17 -3.80832e-15 0)
(-1.78365e-15 -3.4582e-15 0)
(-2.63374e-15 -3.39416e-15 0)
(-3.39367e-15 -2.5166e-15 0)
(-3.89219e-15 -2.00272e-15 0)
(-3.70806e-15 -1.53858e-15 0)
(-3.09019e-15 -1.25225e-15 0)
(-2.06518e-15 -1.08947e-15 0)
(-1.39319e-15 -8.58688e-16 0)
(-7.50004e-16 -3.02402e-17 0)
(-1.52439e-15 -2.14242e-16 0)
(-4.59788e-15 3.79604e-17 0)
(-8.03584e-15 -1.93279e-16 0)
(-1.22274e-14 1.42953e-16 0)
(-1.69617e-14 6.97983e-16 0)
(-2.11382e-14 9.97643e-16 0)
(-2.46718e-14 9.64105e-16 0)
(-2.89082e-14 2.84621e-16 0)
(-3.36153e-14 -5.41319e-16 0)
(-3.73651e-14 -1.29671e-15 0)
(-4.02854e-14 -1.21362e-15 0)
(-4.23891e-14 -9.28958e-16 0)
(-4.43203e-14 4.52453e-17 0)
(-4.67343e-14 1.15515e-15 0)
(-4.88693e-14 2.55162e-15 0)
(-5.07772e-14 3.74262e-15 0)
(-5.2566e-14 4.07111e-15 0)
(-5.47807e-14 3.64394e-15 0)
(-5.69549e-14 2.71455e-15 0)
(-5.78091e-14 2.92398e-15 0)
(-5.77627e-14 4.10515e-15 0)
(-5.79722e-14 4.86025e-15 0)
(-5.86497e-14 4.9627e-15 0)
(-5.97801e-14 6.16412e-15 0)
(-6.08461e-14 7.338e-15 0)
(-6.08874e-14 8.24587e-15 0)
(-6.05117e-14 9.60823e-15 0)
(-6.00629e-14 1.04465e-14 0)
(-6.00149e-14 1.10221e-14 0)
(-6.11484e-14 1.0784e-14 0)
(-6.2143e-14 1.07739e-14 0)
(-6.18827e-14 1.09087e-14 0)
(-6.17793e-14 1.11193e-14 0)
(-6.23188e-14 1.15896e-14 0)
(-6.2539e-14 1.14858e-14 0)
(-6.24421e-14 1.2017e-14 0)
(-6.19454e-14 1.21961e-14 0)
(-6.05187e-14 1.25269e-14 0)
(-5.84213e-14 1.27572e-14 0)
(-5.55806e-14 1.3772e-14 0)
(-5.24312e-14 1.34363e-14 0)
(-5.02516e-14 1.2516e-14 0)
(-4.89316e-14 1.20353e-14 0)
(-4.77449e-14 1.1893e-14 0)
(-4.65467e-14 1.122e-14 0)
(-4.54692e-14 1.12252e-14 0)
(-4.32453e-14 1.20258e-14 0)
(-4.00734e-14 1.27795e-14 0)
(-3.7832e-14 1.38255e-14 0)
(-3.70529e-14 1.48654e-14 0)
(-3.56193e-14 1.52704e-14 0)
(-3.26232e-14 1.42658e-14 0)
(-2.99672e-14 1.35378e-14 0)
(-2.82116e-14 1.30331e-14 0)
(-2.61468e-14 1.31054e-14 0)
(-2.39546e-14 1.30949e-14 0)
(-2.1234e-14 1.27395e-14 0)
(-1.84633e-14 1.17214e-14 0)
(-1.67312e-14 1.04579e-14 0)
(-1.60732e-14 9.13322e-15 0)
(-1.65631e-14 7.70267e-15 0)
(-1.69345e-14 7.25205e-15 0)
(-1.67597e-14 6.80206e-15 0)
(-1.61285e-14 6.61231e-15 0)
(-1.54645e-14 6.12126e-15 0)
(-1.56741e-14 5.50165e-15 0)
(-1.6119e-14 4.64688e-15 0)
(-1.53691e-14 3.92424e-15 0)
(-1.41605e-14 3.57317e-15 0)
(-1.26223e-14 3.08639e-15 0)
(-1.13772e-14 2.77109e-15 0)
(-1.09517e-14 2.65391e-15 0)
(-9.74065e-15 2.19452e-15 0)
(-7.83056e-15 1.36326e-15 0)
(-5.88552e-15 4.61663e-16 0)
(-4.29878e-15 -9.90873e-16 0)
(-3.54197e-15 -2.35981e-15 0)
(-3.30863e-15 -2.96067e-15 0)
(-3.07372e-15 -3.07853e-15 0)
(-2.38657e-15 -3.09759e-15 0)
(-1.94551e-15 -2.68433e-15 0)
(-1.90869e-15 -3.26302e-15 0)
(-1.67356e-15 -4.23853e-15 0)
(-1.07979e-15 -4.84435e-15 0)
(5.12732e-16 -4.7903e-15 0)
(2.31708e-15 -4.74953e-15 0)
(3.56074e-15 -5.12167e-15 0)
(4.24306e-15 -5.75608e-15 0)
(4.15603e-15 -6.39054e-15 0)
(2.84545e-15 -5.92102e-15 0)
(1.88511e-16 -5.45358e-15 0)
(-2.20597e-15 -5.08348e-15 0)
(-3.19471e-15 -4.63781e-15 0)
(-3.88975e-15 -3.55028e-15 0)
(-4.43393e-15 -2.61341e-15 0)
(-4.35909e-15 -1.88014e-15 0)
(-3.97393e-15 -1.10292e-15 0)
(-3.04449e-15 -8.55016e-16 0)
(-1.87534e-15 -1.08054e-15 0)
(-7.56816e-16 -2.96696e-16 0)
(-1.82391e-15 6.57661e-17 0)
(-5.88802e-15 3.99574e-16 0)
(-1.02133e-14 1.5655e-16 0)
(-1.51706e-14 2.66438e-16 0)
(-2.09407e-14 5.81748e-16 0)
(-2.61966e-14 9.49562e-16 0)
(-3.12055e-14 6.14181e-16 0)
(-3.65637e-14 -5.16755e-16 0)
(-4.19505e-14 -1.45798e-15 0)
(-4.64009e-14 -1.84046e-15 0)
(-4.97528e-14 -1.65935e-15 0)
(-5.20209e-14 -1.08912e-15 0)
(-5.44618e-14 -6.16026e-17 0)
(-5.76954e-14 8.93692e-16 0)
(-6.02389e-14 2.0414e-15 0)
(-6.25281e-14 3.30679e-15 0)
(-6.53487e-14 4.19108e-15 0)
(-6.86697e-14 4.05391e-15 0)
(-7.09392e-14 3.92369e-15 0)
(-7.14155e-14 4.50814e-15 0)
(-7.14648e-14 4.92361e-15 0)
(-7.22063e-14 5.33155e-15 0)
(-7.27389e-14 5.87859e-15 0)
(-7.37128e-14 7.78308e-15 0)
(-7.54064e-14 9.58042e-15 0)
(-7.54618e-14 1.05269e-14 0)
(-7.49394e-14 1.17789e-14 0)
(-7.46514e-14 1.27067e-14 0)
(-7.50049e-14 1.34254e-14 0)
(-7.65944e-14 1.34291e-14 0)
(-7.75432e-14 1.31783e-14 0)
(-7.70289e-14 1.36946e-14 0)
(-7.67673e-14 1.43704e-14 0)
(-7.7599e-14 1.4705e-14 0)
(-7.77995e-14 1.44427e-14 0)
(-7.73457e-14 1.49253e-14 0)
(-7.66192e-14 1.55621e-14 0)
(-7.48401e-14 1.6415e-14 0)
(-7.21635e-14 1.68365e-14 0)
(-6.91732e-14 1.75343e-14 0)
(-6.62472e-14 1.69087e-14 0)
(-6.34999e-14 1.56297e-14 0)
(-6.12257e-14 1.52414e-14 0)
(-5.95938e-14 1.53614e-14 0)
(-5.82873e-14 1.54586e-14 0)
(-5.6477e-14 1.555e-14 0)
(-5.33352e-14 1.60114e-14 0)
(-4.95685e-14 1.67936e-14 0)
(-4.68458e-14 1.75382e-14 0)
(-4.56973e-14 1.80936e-14 0)
(-4.45038e-14 1.85304e-14 0)
(-4.15477e-14 1.7574e-14 0)
(-3.81341e-14 1.67332e-14 0)
(-3.53351e-14 1.59223e-14 0)
(-3.25232e-14 1.5898e-14 0)
(-2.9908e-14 1.57001e-14 0)
(-2.69636e-14 1.53917e-14 0)
(-2.41742e-14 1.43455e-14 0)
(-2.21674e-14 1.30973e-14 0)
(-2.12786e-14 1.14688e-14 0)
(-2.14449e-14 9.99148e-15 0)
(-2.15153e-14 9.07503e-15 0)
(-2.1096e-14 8.26172e-15 0)
(-2.01726e-14 7.54709e-15 0)
(-1.94626e-14 7.00851e-15 0)
(-1.98759e-14 6.25342e-15 0)
(-2.02574e-14 5.49459e-15 0)
(-1.91265e-14 4.91637e-15 0)
(-1.76151e-14 4.40219e-15 0)
(-1.58835e-14 3.9358e-15 0)
(-1.43267e-14 3.5229e-15 0)
(-1.34969e-14 2.97832e-15 0)
(-1.2277e-14 2.32847e-15 0)
(-1.0275e-14 1.36023e-15 0)
(-8.11505e-15 2.77463e-16 0)
(-6.43459e-15 -1.11858e-15 0)
(-5.20149e-15 -2.74497e-15 0)
(-4.26479e-15 -3.47578e-15 0)
(-3.79809e-15 -3.29591e-15 0)
(-3.03116e-15 -3.36757e-15 0)
(-2.54542e-15 -3.59597e-15 0)
(-2.75958e-15 -4.23684e-15 0)
(-2.31883e-15 -5.01958e-15 0)
(-1.2354e-15 -5.26595e-15 0)
(6.00328e-16 -5.1339e-15 0)
(2.4468e-15 -5.56857e-15 0)
(3.62604e-15 -6.21998e-15 0)
(4.25639e-15 -6.96004e-15 0)
(4.45467e-15 -7.70939e-15 0)
(3.153e-15 -7.2913e-15 0)
(1.85846e-16 -7.08982e-15 0)
(-2.2557e-15 -6.55515e-15 0)
(-3.14062e-15 -5.75187e-15 0)
(-3.9198e-15 -4.39772e-15 0)
(-4.84739e-15 -3.05048e-15 0)
(-4.78403e-15 -2.22729e-15 0)
(-4.40606e-15 -1.34924e-15 0)
(-3.90578e-15 -8.0164e-16 0)
(-2.52802e-15 -9.02511e-16 0)
(-8.76867e-16 -4.11442e-16 0)
(-2.236e-15 4.83619e-16 0)
(-7.29318e-15 4.8255e-16 0)
(-1.26172e-14 3.13938e-16 0)
(-1.81848e-14 2.01586e-16 0)
(-2.45523e-14 3.95854e-16 0)
(-3.0996e-14 7.45049e-16 0)
(-3.73764e-14 -1.62155e-16 0)
(-4.3804e-14 -1.09788e-15 0)
(-4.97257e-14 -2.08169e-15 0)
(-5.43783e-14 -2.20993e-15 0)
(-5.82162e-14 -1.99605e-15 0)
(-6.11714e-14 -1.29502e-15 0)
(-6.41552e-14 -7.72467e-16 0)
(-6.76736e-14 3.81958e-16 0)
(-7.05796e-14 1.85982e-15 0)
(-7.34973e-14 3.2013e-15 0)
(-7.70854e-14 4.33199e-15 0)
(-8.0859e-14 4.31014e-15 0)
(-8.32872e-14 4.50314e-15 0)
(-8.439e-14 5.1045e-15 0)
(-8.49711e-14 5.33901e-15 0)
(-8.55036e-14 6.12915e-15 0)
(-8.55075e-14 7.90003e-15 0)
(-8.61455e-14 9.14417e-15 0)
(-8.82522e-14 1.06794e-14 0)
(-8.88552e-14 1.21518e-14 0)
(-8.84972e-14 1.34565e-14 0)
(-8.84036e-14 1.45606e-14 0)
(-8.90612e-14 1.49771e-14 0)
(-9.10002e-14 1.54504e-14 0)
(-9.17008e-14 1.52939e-14 0)
(-9.07742e-14 1.60451e-14 0)
(-9.07853e-14 1.67899e-14 0)
(-9.19788e-14 1.69923e-14 0)
(-9.19707e-14 1.73128e-14 0)
(-9.09389e-14 1.78907e-14 0)
(-8.97216e-14 1.91793e-14 0)
(-8.78393e-14 2.03684e-14 0)
(-8.50864e-14 2.08672e-14 0)
(-8.20912e-14 2.0943e-14 0)
(-7.93686e-14 2.02639e-14 0)
(-7.60064e-14 1.8956e-14 0)
(-7.27587e-14 1.8812e-14 0)
(-7.04501e-14 1.91005e-14 0)
(-6.8611e-14 1.97942e-14 0)
(-6.65973e-14 2.03333e-14 0)
(-6.30777e-14 2.01779e-14 0)
(-5.87796e-14 2.0147e-14 0)
(-5.57017e-14 2.03049e-14 0)
(-5.40898e-14 2.07272e-14 0)
(-5.26698e-14 2.11418e-14 0)
(-4.95245e-14 2.08852e-14 0)
(-4.57155e-14 1.99745e-14 0)
(-4.23263e-14 1.9136e-14 0)
(-3.87602e-14 1.84762e-14 0)
(-3.57116e-14 1.79569e-14 0)
(-3.25675e-14 1.72846e-14 0)
(-2.95405e-14 1.62689e-14 0)
(-2.74897e-14 1.50778e-14 0)
(-2.65103e-14 1.33452e-14 0)
(-2.6219e-14 1.20646e-14 0)
(-2.59676e-14 1.09501e-14 0)
(-2.55023e-14 9.83903e-15 0)
(-2.44508e-14 8.26989e-15 0)
(-2.35586e-14 7.1531e-15 0)
(-2.36849e-14 6.11382e-15 0)
(-2.37495e-14 5.69752e-15 0)
(-2.25173e-14 5.52434e-15 0)
(-2.08415e-14 5.23877e-15 0)
(-1.87799e-14 4.98133e-15 0)
(-1.71143e-14 4.22426e-15 0)
(-1.63414e-14 3.28058e-15 0)
(-1.48348e-14 2.31808e-15 0)
(-1.25729e-14 1.44168e-15 0)
(-1.03016e-14 2.79242e-16 0)
(-8.60101e-15 -1.18901e-15 0)
(-7.01073e-15 -2.8704e-15 0)
(-5.23281e-15 -3.92412e-15 0)
(-4.34627e-15 -3.93994e-15 0)
(-3.76388e-15 -3.59401e-15 0)
(-3.47033e-15 -4.064e-15 0)
(-3.54284e-15 -4.76631e-15 0)
(-2.75063e-15 -5.09555e-15 0)
(-1.22809e-15 -5.35536e-15 0)
(5.10677e-16 -5.54671e-15 0)
(2.04292e-15 -6.29458e-15 0)
(3.29261e-15 -7.15589e-15 0)
(3.94569e-15 -7.80753e-15 0)
(4.4989e-15 -8.45079e-15 0)
(3.43712e-15 -8.38251e-15 0)
(3.00975e-16 -8.61381e-15 0)
(-2.19399e-15 -7.82355e-15 0)
(-3.03781e-15 -6.637e-15 0)
(-3.66197e-15 -5.23948e-15 0)
(-4.77816e-15 -3.67781e-15 0)
(-5.10116e-15 -2.65294e-15 0)
(-4.86895e-15 -1.93465e-15 0)
(-4.52422e-15 -1.5309e-15 0)
(-3.17429e-15 -1.13724e-15 0)
(-1.03874e-15 -5.40453e-16 0)
(-2.90771e-15 4.11621e-16 0)
(-8.8489e-15 2.21464e-16 0)
(-1.46921e-14 2.27223e-16 0)
(-2.09614e-14 4.54848e-16 0)
(-2.80298e-14 5.04027e-16 0)
(-3.57371e-14 2.23955e-16 0)
(-4.33173e-14 -8.28461e-16 0)
(-5.03519e-14 -1.82879e-15 0)
(-5.67562e-14 -2.43088e-15 0)
(-6.18942e-14 -2.48303e-15 0)
(-6.61173e-14 -2.54402e-15 0)
(-6.95251e-14 -1.79947e-15 0)
(-7.28773e-14 -1.26543e-15 0)
(-7.65227e-14 2.64462e-16 0)
(-7.98959e-14 1.93015e-15 0)
(-8.3277e-14 3.20389e-15 0)
(-8.78713e-14 4.18682e-15 0)
(-9.26319e-14 4.50313e-15 0)
(-9.51448e-14 4.94953e-15 0)
(-9.61965e-14 5.87203e-15 0)
(-9.66079e-14 6.62481e-15 0)
(-9.66501e-14 7.6874e-15 0)
(-9.72477e-14 8.85055e-15 0)
(-9.87587e-14 9.5398e-15 0)
(-1.0057e-13 1.12669e-14 0)
(-1.00964e-13 1.33288e-14 0)
(-1.00778e-13 1.4694e-14 0)
(-1.01166e-13 1.59556e-14 0)
(-1.02018e-13 1.63079e-14 0)
(-1.04084e-13 1.66349e-14 0)
(-1.04869e-13 1.71756e-14 0)
(-1.0369e-13 1.80398e-14 0)
(-1.0379e-13 1.86869e-14 0)
(-1.04849e-13 1.91366e-14 0)
(-1.04608e-13 2.02641e-14 0)
(-1.03158e-13 2.11844e-14 0)
(-1.01559e-13 2.26495e-14 0)
(-9.98008e-14 2.38976e-14 0)
(-9.72545e-14 2.43893e-14 0)
(-9.43279e-14 2.43053e-14 0)
(-9.15457e-14 2.32968e-14 0)
(-8.75312e-14 2.23648e-14 0)
(-8.32662e-14 2.217e-14 0)
(-8.02767e-14 2.28728e-14 0)
(-7.8098e-14 2.40395e-14 0)
(-7.62163e-14 2.45497e-14 0)
(-7.27284e-14 2.41815e-14 0)
(-6.78816e-14 2.36447e-14 0)
(-6.39088e-14 2.3427e-14 0)
(-6.16078e-14 2.31502e-14 0)
(-5.99222e-14 2.35283e-14 0)
(-5.69494e-14 2.36541e-14 0)
(-5.29917e-14 2.28622e-14 0)
(-4.90477e-14 2.20454e-14 0)
(-4.50423e-14 2.09662e-14 0)
(-4.14872e-14 2.00729e-14 0)
(-3.7997e-14 1.92158e-14 0)
(-3.47701e-14 1.79906e-14 0)
(-3.26222e-14 1.63857e-14 0)
(-3.13129e-14 1.4833e-14 0)
(-3.0702e-14 1.34257e-14 0)
(-3.04237e-14 1.18916e-14 0)
(-3.01359e-14 1.07765e-14 0)
(-2.89897e-14 9.18276e-15 0)
(-2.76429e-14 7.74558e-15 0)
(-2.72902e-14 6.48382e-15 0)
(-2.67705e-14 6.07754e-15 0)
(-2.52412e-14 5.97888e-15 0)
(-2.34355e-14 5.8817e-15 0)
(-2.1646e-14 5.5646e-15 0)
(-2.01546e-14 4.22175e-15 0)
(-1.89983e-14 3.48877e-15 0)
(-1.72029e-14 2.28594e-15 0)
(-1.47942e-14 7.60609e-16 0)
(-1.25427e-14 -4.45837e-16 0)
(-1.08008e-14 -1.65365e-15 0)
(-8.92872e-15 -2.60424e-15 0)
(-6.52177e-15 -3.72818e-15 0)
(-4.82316e-15 -4.35199e-15 0)
(-4.18336e-15 -4.05984e-15 0)
(-4.23204e-15 -4.33497e-15 0)
(-4.09416e-15 -4.97198e-15 0)
(-3.09252e-15 -5.30942e-15 0)
(-1.68224e-15 -5.56724e-15 0)
(1.97911e-17 -6.21664e-15 0)
(1.58208e-15 -6.97997e-15 0)
(2.96794e-15 -7.66024e-15 0)
(3.75607e-15 -8.19461e-15 0)
(4.30592e-15 -8.58431e-15 0)
(2.96933e-15 -9.18142e-15 0)
(1.07526e-16 -9.72648e-15 0)
(-1.72015e-15 -8.8323e-15 0)
(-2.53477e-15 -7.25316e-15 0)
(-3.32618e-15 -5.98052e-15 0)
(-4.71224e-15 -4.48638e-15 0)
(-5.35713e-15 -3.42697e-15 0)
(-5.44415e-15 -2.66523e-15 0)
(-5.12598e-15 -2.42764e-15 0)
(-3.48854e-15 -1.79561e-15 0)
(-1.12206e-15 -8.14723e-16 0)
(-3.42352e-15 2.34817e-16 0)
(-1.01258e-14 3.97771e-16 0)
(-1.64295e-14 4.51068e-16 0)
(-2.33816e-14 1.09719e-16 0)
(-3.16046e-14 -2.19517e-16 0)
(-4.03625e-14 -8.36827e-16 0)
(-4.87764e-14 -1.34999e-15 0)
(-5.63685e-14 -2.13531e-15 0)
(-6.30692e-14 -2.66014e-15 0)
(-6.8756e-14 -2.81235e-15 0)
(-7.33667e-14 -2.52159e-15 0)
(-7.71482e-14 -1.86758e-15 0)
(-8.07124e-14 -1.00221e-15 0)
(-8.44435e-14 7.67261e-16 0)
(-8.84644e-14 2.44576e-15 0)
(-9.2706e-14 3.41829e-15 0)
(-9.77487e-14 3.80529e-15 0)
(-1.02619e-13 4.58941e-15 0)
(-1.05246e-13 6.06994e-15 0)
(-1.0669e-13 7.19261e-15 0)
(-1.07654e-13 7.41925e-15 0)
(-1.08304e-13 8.20363e-15 0)
(-1.08956e-13 8.93023e-15 0)
(-1.09503e-13 1.01757e-14 0)
(-1.10856e-13 1.23198e-14 0)
(-1.11895e-13 1.46438e-14 0)
(-1.12221e-13 1.61572e-14 0)
(-1.12924e-13 1.74418e-14 0)
(-1.14309e-13 1.80135e-14 0)
(-1.16144e-13 1.75812e-14 0)
(-1.16465e-13 1.85694e-14 0)
(-1.15439e-13 1.99711e-14 0)
(-1.15691e-13 2.05159e-14 0)
(-1.16418e-13 2.12378e-14 0)
(-1.15875e-13 2.29612e-14 0)
(-1.14309e-13 2.45479e-14 0)
(-1.12453e-13 2.59192e-14 0)
(-1.10776e-13 2.67802e-14 0)
(-1.08387e-13 2.70643e-14 0)
(-1.05792e-13 2.7146e-14 0)
(-1.02934e-13 2.62438e-14 0)
(-9.8203e-14 2.56315e-14 0)
(-9.30083e-14 2.54027e-14 0)
(-8.89922e-14 2.60667e-14 0)
(-8.66137e-14 2.70336e-14 0)
(-8.50386e-14 2.7903e-14 0)
(-8.15548e-14 2.83306e-14 0)
(-7.63552e-14 2.79582e-14 0)
(-7.22446e-14 2.69926e-14 0)
(-6.93161e-14 2.56172e-14 0)
(-6.66999e-14 2.54635e-14 0)
(-6.35113e-14 2.53605e-14 0)
(-5.95014e-14 2.51507e-14 0)
(-5.54407e-14 2.44619e-14 0)
(-5.10601e-14 2.32242e-14 0)
(-4.69994e-14 2.2084e-14 0)
(-4.32961e-14 2.11101e-14 0)
(-4.00964e-14 1.94688e-14 0)
(-3.768e-14 1.74656e-14 0)
(-3.60824e-14 1.59847e-14 0)
(-3.5425e-14 1.43185e-14 0)
(-3.46869e-14 1.27117e-14 0)
(-3.40267e-14 1.15146e-14 0)
(-3.29739e-14 1.01259e-14 0)
(-3.15925e-14 8.35067e-15 0)
(-3.07094e-14 6.78688e-15 0)
(-2.96534e-14 6.7626e-15 0)
(-2.79006e-14 6.68509e-15 0)
(-2.60545e-14 6.17426e-15 0)
(-2.45414e-14 5.28751e-15 0)
(-2.27833e-14 4.20199e-15 0)
(-2.14794e-14 3.55335e-15 0)
(-2.00991e-14 2.22215e-15 0)
(-1.73731e-14 3.30787e-16 0)
(-1.44249e-14 -1.38311e-15 0)
(-1.21501e-14 -2.4147e-15 0)
(-1.01851e-14 -2.84998e-15 0)
(-7.917e-15 -3.6934e-15 0)
(-5.776e-15 -4.47679e-15 0)
(-4.7328e-15 -4.79569e-15 0)
(-4.9114e-15 -5.10735e-15 0)
(-4.81726e-15 -5.45424e-15 0)
(-3.5438e-15 -6.03844e-15 0)
(-2.0611e-15 -6.1531e-15 0)
(-5.19525e-16 -6.55494e-15 0)
(1.13314e-15 -7.5711e-15 0)
(2.62793e-15 -8.23492e-15 0)
(3.46671e-15 -8.64339e-15 0)
(3.82134e-15 -8.84178e-15 0)
(2.38089e-15 -9.86095e-15 0)
(9.50858e-18 -1.00606e-14 0)
(-1.26797e-15 -9.32551e-15 0)
(-2.14764e-15 -8.01583e-15 0)
(-3.08957e-15 -7.10595e-15 0)
(-4.54599e-15 -5.64492e-15 0)
(-5.52194e-15 -4.30045e-15 0)
(-5.9522e-15 -3.54658e-15 0)
(-5.72274e-15 -3.21149e-15 0)
(-3.82988e-15 -2.30308e-15 0)
(-9.80507e-16 -1.01208e-15 0)
(-3.71416e-15 2.4982e-16 0)
(-1.11167e-14 5.58869e-16 0)
(-1.85295e-14 6.43295e-16 0)
(-2.63687e-14 -6.00438e-16 0)
(-3.49902e-14 -1.62681e-15 0)
(-4.4212e-14 -2.05009e-15 0)
(-5.33012e-14 -2.08424e-15 0)
(-6.17216e-14 -2.30447e-15 0)
(-6.90147e-14 -2.92528e-15 0)
(-7.48648e-14 -3.15863e-15 0)
(-7.9743e-14 -2.63187e-15 0)
(-8.38952e-14 -1.61679e-15 0)
(-8.75025e-14 2.24369e-17 0)
(-9.15277e-14 1.78181e-15 0)
(-9.63657e-14 3.06422e-15 0)
(-1.01485e-13 3.78567e-15 0)
(-1.06936e-13 4.44746e-15 0)
(-1.11551e-13 5.7244e-15 0)
(-1.14413e-13 7.16878e-15 0)
(-1.16917e-13 7.50835e-15 0)
(-1.18038e-13 7.52342e-15 0)
(-1.18113e-13 8.38761e-15 0)
(-1.18719e-13 9.99544e-15 0)
(-1.19482e-13 1.16271e-14 0)
(-1.20735e-13 1.3501e-14 0)
(-1.21759e-13 1.58128e-14 0)
(-1.22445e-13 1.7879e-14 0)
(-1.2359e-13 1.90495e-14 0)
(-1.25746e-13 1.96192e-14 0)
(-1.27528e-13 1.93221e-14 0)
(-1.26962e-13 2.0024e-14 0)
(-1.26072e-13 2.1328e-14 0)
(-1.26592e-13 2.21799e-14 0)
(-1.26653e-13 2.35013e-14 0)
(-1.25579e-13 2.54543e-14 0)
(-1.24107e-13 2.73165e-14 0)
(-1.22669e-13 2.8662e-14 0)
(-1.21245e-13 2.90507e-14 0)
(-1.18721e-13 2.95111e-14 0)
(-1.16045e-13 2.94514e-14 0)
(-1.13105e-13 2.88539e-14 0)
(-1.07909e-13 2.83616e-14 0)
(-1.02025e-13 2.84149e-14 0)
(-9.74924e-14 2.88533e-14 0)
(-9.45076e-14 2.94319e-14 0)
(-9.23568e-14 3.05358e-14 0)
(-8.90859e-14 3.13722e-14 0)
(-8.45279e-14 3.08149e-14 0)
(-8.05195e-14 2.97033e-14 0)
(-7.68197e-14 2.82874e-14 0)
(-7.33796e-14 2.75643e-14 0)
(-6.96253e-14 2.71864e-14 0)
(-6.52814e-14 2.68536e-14 0)
(-6.12879e-14 2.6186e-14 0)
(-5.68261e-14 2.52423e-14 0)
(-5.23161e-14 2.40197e-14 0)
(-4.84794e-14 2.27803e-14 0)
(-4.5364e-14 2.07285e-14 0)
(-4.25443e-14 1.86945e-14 0)
(-4.05344e-14 1.67433e-14 0)
(-3.96557e-14 1.53094e-14 0)
(-3.87389e-14 1.41401e-14 0)
(-3.80331e-14 1.28616e-14 0)
(-3.70671e-14 1.07493e-14 0)
(-3.56055e-14 8.90731e-15 0)
(-3.37178e-14 7.18182e-15 0)
(-3.18463e-14 7.00611e-15 0)
(-3.03955e-14 6.89505e-15 0)
(-2.88788e-14 6.20803e-15 0)
(-2.71786e-14 5.29415e-15 0)
(-2.51542e-14 4.46051e-15 0)
(-2.37989e-14 3.26945e-15 0)
(-2.25212e-14 1.953e-15 0)
(-1.99958e-14 2.59905e-16 0)
(-1.67336e-14 -1.92155e-15 0)
(-1.37139e-14 -3.43776e-15 0)
(-1.1417e-14 -3.8467e-15 0)
(-9.02592e-15 -4.29107e-15 0)
(-6.73305e-15 -5.13303e-15 0)
(-5.55268e-15 -6.14404e-15 0)
(-5.43336e-15 -6.55777e-15 0)
(-5.31329e-15 -6.37201e-15 0)
(-3.96999e-15 -6.80964e-15 0)
(-2.27082e-15 -7.06986e-15 0)
(-1.09897e-15 -7.07467e-15 0)
(3.67433e-16 -8.23358e-15 0)
(2.23844e-15 -8.68516e-15 0)
(3.32618e-15 -9.04786e-15 0)
(3.29314e-15 -9.43726e-15 0)
(1.74043e-15 -1.05676e-14 0)
(-9.90382e-17 -1.03256e-14 0)
(-1.10031e-15 -1.0068e-14 0)
(-2.0539e-15 -8.93694e-15 0)
(-2.96348e-15 -8.10209e-15 0)
(-4.21091e-15 -6.94752e-15 0)
(-5.50958e-15 -5.29489e-15 0)
(-6.43716e-15 -4.53795e-15 0)
(-6.0898e-15 -3.90202e-15 0)
(-3.85703e-15 -2.74499e-15 0)
(-8.75527e-16 -8.40739e-16 0)
(-4.00475e-15 1.59277e-16 0)
(-1.19696e-14 1.09889e-16 0)
(-2.05006e-14 -3.17234e-16 0)
(-2.94458e-14 -1.16695e-15 0)
(-3.83013e-14 -2.28643e-15 0)
(-4.75961e-14 -3.11868e-15 0)
(-5.71356e-14 -3.25313e-15 0)
(-6.64258e-14 -3.23376e-15 0)
(-7.43794e-14 -3.17918e-15 0)
(-8.04254e-14 -2.7651e-15 0)
(-8.52644e-14 -2.15301e-15 0)
(-8.93037e-14 -8.51443e-16 0)
(-9.33167e-14 1.10469e-15 0)
(-9.82213e-14 2.7413e-15 0)
(-1.03831e-13 3.79592e-15 0)
(-1.09276e-13 4.47386e-15 0)
(-1.14588e-13 5.19341e-15 0)
(-1.19499e-13 6.64188e-15 0)
(-1.23371e-13 7.63847e-15 0)
(-1.26361e-13 7.97505e-15 0)
(-1.2737e-13 8.45196e-15 0)
(-1.27225e-13 9.19671e-15 0)
(-1.27634e-13 1.08808e-14 0)
(-1.28257e-13 1.27811e-14 0)
(-1.29325e-13 1.47459e-14 0)
(-1.30383e-13 1.69036e-14 0)
(-1.31656e-13 1.89404e-14 0)
(-1.33529e-13 2.02188e-14 0)
(-1.36032e-13 2.0924e-14 0)
(-1.37784e-13 2.14934e-14 0)
(-1.36912e-13 2.21677e-14 0)
(-1.35727e-13 2.28097e-14 0)
(-1.35877e-13 2.37981e-14 0)
(-1.35654e-13 2.56681e-14 0)
(-1.34514e-13 2.76634e-14 0)
(-1.33124e-13 2.94213e-14 0)
(-1.32004e-13 3.06596e-14 0)
(-1.30555e-13 3.12319e-14 0)
(-1.28002e-13 3.17419e-14 0)
(-1.25632e-13 3.10844e-14 0)
(-1.22497e-13 3.08125e-14 0)
(-1.16673e-13 3.09044e-14 0)
(-1.10173e-13 3.09738e-14 0)
(-1.05153e-13 3.11185e-14 0)
(-1.01666e-13 3.14711e-14 0)
(-9.92713e-14 3.21652e-14 0)
(-9.63559e-14 3.27761e-14 0)
(-9.19068e-14 3.21337e-14 0)
(-8.77181e-14 3.14499e-14 0)
(-8.37727e-14 3.05739e-14 0)
(-7.96489e-14 2.98187e-14 0)
(-7.54254e-14 2.93258e-14 0)
(-7.08857e-14 2.85766e-14 0)
(-6.65435e-14 2.76586e-14 0)
(-6.18592e-14 2.70318e-14 0)
(-5.73332e-14 2.58583e-14 0)
(-5.36001e-14 2.41523e-14 0)
(-5.04047e-14 2.18944e-14 0)
(-4.74078e-14 1.98628e-14 0)
(-4.49415e-14 1.74657e-14 0)
(-4.33542e-14 1.60534e-14 0)
(-4.22028e-14 1.47308e-14 0)
(-4.19724e-14 1.34887e-14 0)
(-4.10884e-14 1.18668e-14 0)
(-3.91835e-14 1.01214e-14 0)
(-3.68354e-14 8.6208e-15 0)
(-3.43448e-14 7.42157e-15 0)
(-3.27061e-14 6.63606e-15 0)
(-3.11696e-14 5.7912e-15 0)
(-2.94636e-14 5.1195e-15 0)
(-2.75903e-14 4.15027e-15 0)
(-2.63071e-14 2.69781e-15 0)
(-2.49527e-14 1.33615e-15 0)
(-2.25213e-14 -2.34769e-16 0)
(-1.9118e-14 -2.40212e-15 0)
(-1.52452e-14 -4.40955e-15 0)
(-1.22346e-14 -4.73639e-15 0)
(-1.00628e-14 -4.76374e-15 0)
(-8.14347e-15 -5.84747e-15 0)
(-6.60767e-15 -7.00531e-15 0)
(-5.73972e-15 -7.69256e-15 0)
(-5.50735e-15 -7.54881e-15 0)
(-4.42005e-15 -7.99392e-15 0)
(-2.4958e-15 -8.38994e-15 0)
(-1.51668e-15 -8.33227e-15 0)
(-1.29966e-16 -9.07168e-15 0)
(1.96234e-15 -9.12204e-15 0)
(2.79511e-15 -9.35874e-15 0)
(2.46473e-15 -1.0078e-14 0)
(1.30692e-15 -1.11898e-14 0)
(-2.66956e-16 -1.09356e-14 0)
(-1.13027e-15 -1.08117e-14 0)
(-1.81834e-15 -9.82387e-15 0)
(-2.95229e-15 -8.84212e-15 0)
(-3.98497e-15 -7.79969e-15 0)
(-5.40021e-15 -6.2169e-15 0)
(-6.70497e-15 -5.28521e-15 0)
(-6.31022e-15 -4.3582e-15 0)
(-3.65588e-15 -2.86008e-15 0)
(-7.09437e-16 -7.69649e-16 0)
(-4.40059e-15 1.08684e-16 0)
(-1.32372e-14 -4.47426e-16 0)
(-2.2231e-14 -1.37413e-15 0)