/*--------------------------------*- C++ -*----------------------------------*\
| =========                 |                                                 |
| \\      /  F ield         | OpenFOAM: The Open Source CFD Toolbox           |
|  \\    /   O peration     | Version:  v2012                                 |
|   \\  /    A nd           | Website:  www.openfoam.com                      |
|    \\/     M anipulation  |                                                 |
\*---------------------------------------------------------------------------*/
FoamFile
{
    version     2.0;
    format      ascii;
    class       volScalarField;
    location    "0";
    object      pRec;
}
// * * * * * * * * * * * * * * * * * * * * * * * * * * * * * * * * * * * * * //

dimensions      [0 2 -2 0 0 0 0];


internalField   nonuniform List<scalar> 
4000
(
4.7305e-14
4.23024e-14
4.36832e-14
4.52517e-14
4.55455e-14
4.48731e-14
4.37426e-14
3.99056e-14
3.42482e-14
3.35647e-14
3.75023e-14
3.54329e-14
2.85826e-14
1.89751e-14
1.04413e-14
7.92218e-15
8.19605e-15
7.01761e-15
2.09246e-15
-5.77793e-15
-1.40681e-14
-1.87089e-14
-2.01341e-14
-2.40566e-14
-2.87394e-14
-3.38334e-14
-3.22451e-14
-3.38187e-14
-3.80792e-14
-4.37043e-14
-5.15624e-14
-5.39707e-14
-4.99475e-14
-5.04672e-14
-5.17204e-14
-5.0355e-14
-5.76903e-14
-6.81486e-14
-7.75262e-14
-7.67156e-14
-7.33567e-14
-6.94764e-14
-6.6019e-14
-6.75658e-14
-7.00412e-14
-7.28729e-14
-7.42445e-14
-7.61965e-14
-7.66732e-14
-7.696e-14
-7.63057e-14
-7.56944e-14
-7.49799e-14
-7.53414e-14
-7.5871e-14
-7.87284e-14
-7.60946e-14
-7.09405e-14
-6.49799e-14
-5.85309e-14
-5.83678e-14
-5.61849e-14
-5.72166e-14
-5.98174e-14
-5.73735e-14
-5.51024e-14
-5.06627e-14
-4.94492e-14
-4.89068e-14
-4.64421e-14
-4.36412e-14
-4.09364e-14
-4.28021e-14
-4.18041e-14
-3.71919e-14
-3.14868e-14
-2.64037e-14
-2.28987e-14
-2.15366e-14
-2.66378e-14
-3.00902e-14
-2.84306e-14
-2.5583e-14
-2.3179e-14
-1.98362e-14
-1.78006e-14
-1.77175e-14
-1.73862e-14
-1.30208e-14
-9.07653e-15
-7.85774e-15
-5.64762e-15
-2.93514e-15
-2.76156e-15
-1.97245e-15
-1.57029e-15
-1.76568e-15
-7.12087e-16
-1.14102e-15
-8.67115e-16
4.35672e-14
4.29898e-14
4.58582e-14
4.60367e-14
4.67461e-14
4.3226e-14
4.22366e-14
4.07028e-14
3.78731e-14
3.54725e-14
3.44245e-14
3.21766e-14
2.70216e-14
1.99461e-14
1.28502e-14
1.04901e-14
9.45977e-15
6.26563e-15
9.10609e-16
-4.32468e-15
-1.11433e-14
-1.87177e-14
-2.37271e-14
-2.59325e-14
-3.00127e-14
-3.14201e-14
-3.27119e-14
-3.40108e-14
-4.00332e-14
-4.5983e-14
-4.84353e-14
-5.05361e-14
-5.17324e-14
-5.38435e-14
-5.40469e-14
-5.44618e-14
-5.81617e-14
-6.44432e-14
-7.14515e-14
-7.38122e-14
-7.31363e-14
-7.06769e-14
-6.90493e-14
-6.85284e-14
-6.8639e-14
-7.23889e-14
-7.55538e-14
-7.74648e-14
-7.75021e-14
-7.85986e-14
-7.76195e-14
-7.60404e-14
-7.43668e-14
-7.47321e-14
-7.49001e-14
-7.65063e-14
-7.65626e-14
-7.25431e-14
-6.63528e-14
-6.0547e-14
-5.68044e-14
-5.61076e-14
-5.6052e-14
-5.70667e-14
-5.64896e-14
-5.57344e-14
-5.35023e-14
-4.99547e-14
-4.70187e-14
-4.46938e-14
-4.27118e-14
-4.13481e-14
-4.00103e-14
-3.94199e-14
-3.73174e-14
-3.33575e-14
-2.74887e-14
-2.51285e-14
-2.40666e-14
-2.68805e-14
-2.86616e-14
-2.69852e-14
-2.34873e-14
-2.11676e-14
-2.15204e-14
-1.94013e-14
-1.98192e-14
-1.9011e-14
-1.50504e-14
-9.3104e-15
-5.95314e-15
-3.57112e-15
-3.29477e-16
-2.79566e-15
-2.57015e-15
-1.73575e-15
-2.41354e-15
-1.15252e-15
4.57116e-16
4.41677e-16
4.23435e-14
4.24747e-14
4.45345e-14
4.72849e-14
4.8641e-14
4.48432e-14
4.15067e-14
3.92593e-14
3.54136e-14
3.60419e-14
3.44063e-14
3.11065e-14
2.63733e-14
2.10475e-14
1.45021e-14
1.13305e-14
8.60356e-15
5.51598e-15
1.86034e-15
-4.53452e-15
-1.2489e-14
-1.76303e-14
-2.28355e-14
-2.51106e-14
-2.8158e-14
-3.05631e-14
-3.21917e-14
-3.52279e-14
-4.11202e-14
-4.654e-14
-4.93391e-14
-5.08289e-14
-5.22375e-14
-5.19181e-14
-5.27104e-14
-5.38885e-14
-5.87306e-14
-6.34058e-14
-6.9711e-14
-7.42793e-14
-7.40151e-14
-7.39516e-14
-6.90643e-14
-6.78733e-14
-6.74889e-14
-7.20201e-14
-7.67283e-14
-8.03782e-14
-7.73901e-14
-7.44039e-14
-7.61009e-14
-7.66058e-14
-7.6888e-14
-7.72495e-14
-7.62754e-14
-7.51941e-14
-7.52829e-14
-7.00334e-14
-6.27329e-14
-5.98484e-14
-5.97371e-14
-6.07795e-14
-5.9746e-14
-5.68836e-14
-5.47057e-14
-5.29609e-14
-5.16347e-14
-5.02245e-14
-4.72972e-14
-4.72425e-14
-4.60982e-14
-4.42753e-14
-4.30708e-14
-3.9153e-14
-3.63532e-14
-3.24449e-14
-2.8255e-14
-2.50151e-14
-2.4543e-14
-2.54449e-14
-2.37854e-14
-2.52937e-14
-2.73268e-14
-2.3976e-14
-2.22124e-14
-1.80088e-14
-1.51361e-14
-1.59212e-14
-1.40564e-14
-1.14183e-14
-7.93733e-15
-3.90777e-15
-1.40766e-15
-1.46109e-15
-3.37793e-15
-3.87925e-15
-1.95404e-15
-2.80442e-16
3.09189e-15
8.03687e-16
4.33345e-14
4.4476e-14
4.52437e-14
4.26996e-14
4.72317e-14
4.20082e-14
4.05123e-14
3.90249e-14
4.04495e-14
3.78164e-14
3.29474e-14
2.8468e-14
2.39172e-14
2.14109e-14
2.1017e-14
1.53873e-14
7.47133e-15
2.93998e-15
-6.37473e-16
-6.03885e-15
-1.10494e-14
-1.61826e-14
-2.19275e-14
-2.87564e-14
-3.1309e-14
-3.26252e-14
-3.41298e-14
-3.46968e-14
-4.01377e-14
-4.42e-14
-4.56849e-14
-4.92152e-14
-5.26145e-14
-5.47331e-14
-5.71523e-14
-5.4376e-14
-5.85627e-14
-6.44157e-14
-6.89969e-14
-7.24046e-14
-7.12819e-14
-6.98751e-14
-6.90948e-14
-7.02069e-14
-7.26654e-14
-7.56368e-14
-7.63504e-14
-7.51324e-14
-7.71294e-14
-8.011e-14
-7.98994e-14
-7.84938e-14
-7.62148e-14
-7.41063e-14
-7.55354e-14
-7.41177e-14
-7.3683e-14
-7.02586e-14
-6.38172e-14
-6.16767e-14
-6.12067e-14
-5.87698e-14
-5.75034e-14
-5.58788e-14
-5.53402e-14
-5.48656e-14
-5.25177e-14
-5.04345e-14
-4.67429e-14
-4.52908e-14
-4.26685e-14
-4.12897e-14
-4.0952e-14
-3.8267e-14
-3.63087e-14
-3.36853e-14
-2.8144e-14
-2.56856e-14
-2.48722e-14
-2.49859e-14
-2.5153e-14
-2.3593e-14
-2.57576e-14
-2.53504e-14
-2.31355e-14
-1.95238e-14
-1.75333e-14
-1.62393e-14
-1.47094e-14
-1.08499e-14
-6.46684e-15
-4.07163e-15
-3.73267e-16
-1.68087e-15
-2.76065e-15
-1.5987e-15
-8.24718e-16
-5.96767e-16
1.16513e-15
3.08482e-16
4.44994e-14
4.75128e-14
4.4312e-14
4.19265e-14
4.00061e-14
4.23778e-14
4.17095e-14
4.2335e-14
3.95191e-14
3.55561e-14
3.07124e-14
2.87708e-14
2.42961e-14
2.11191e-14
2.05096e-14
1.61757e-14
1.10314e-14
6.7008e-15
-2.17407e-15
-1.12642e-14
-1.27007e-14
-1.72789e-14
-2.63322e-14
-2.8835e-14
-2.76197e-14
-2.95178e-14
-3.19148e-14
-3.65492e-14
-3.89983e-14
-4.25924e-14
-4.58753e-14
-4.86343e-14
-5.13768e-14
-5.46428e-14
-5.67496e-14
-5.58964e-14
-6.0089e-14
-6.5308e-14
-7.11127e-14
-7.24228e-14
-7.1845e-14
-6.85104e-14
-6.86658e-14
-7.1055e-14
-7.52917e-14
-7.76754e-14
-7.7031e-14
-7.65604e-14
-7.60949e-14
-7.67752e-14
-7.77499e-14
-7.59814e-14
-7.5589e-14
-7.56513e-14
-7.58944e-14
-7.49783e-14
-7.24434e-14
-6.95476e-14
-6.48804e-14
-6.31187e-14
-6.15636e-14
-6.09005e-14
-6.0388e-14
-5.71814e-14
-5.25382e-14
-5.02992e-14
-4.96417e-14
-5.01447e-14
-4.81408e-14
-4.70511e-14
-4.5457e-14
-4.30823e-14
-4.07736e-14
-3.93745e-14
-3.946e-14
-3.60177e-14
-2.93748e-14
-2.58228e-14
-2.38033e-14
-2.35224e-14
-2.33858e-14
-2.21111e-14
-2.50924e-14
-2.55757e-14
-2.55792e-14
-2.29283e-14
-1.67833e-14
-1.37585e-14
-1.29032e-14
-9.34796e-15
-7.17715e-15
-3.85962e-15
-1.96214e-15
6.76626e-16
7.57194e-16
-6.08395e-16
8.16971e-17
1.27257e-16
8.84324e-16
-1.62363e-15
4.11749e-14
4.88743e-14
4.51659e-14
3.78548e-14
4.27334e-14
4.73097e-14
4.51878e-14
4.21416e-14
3.75104e-14
2.9034e-14
2.89096e-14
2.86523e-14
2.70098e-14
2.12489e-14
1.71723e-14
1.84179e-14
1.29408e-14
7.80014e-15
8.2589e-16
-7.69188e-15
-1.45694e-14
-2.22206e-14
-3.30735e-14
-3.22156e-14
-2.8549e-14
-2.80202e-14
-3.25277e-14
-3.65722e-14
-3.93222e-14
-4.0531e-14
-4.44624e-14
-4.87075e-14
-5.26174e-14
-5.27811e-14
-5.22697e-14
-5.64967e-14
-6.07882e-14
-6.62212e-14
-7.18306e-14
-7.14804e-14
-6.96585e-14
-6.8461e-14
-6.98629e-14
-7.09842e-14
-7.43974e-14
-7.98026e-14
-8.0624e-14
-7.85786e-14
-7.58894e-14
-7.73966e-14
-7.71057e-14
-7.67916e-14
-7.64252e-14
-7.68576e-14
-7.69485e-14
-7.46577e-14
-7.22491e-14
-6.94435e-14
-6.56117e-14
-6.24089e-14
-6.02745e-14
-6.02459e-14
-5.99522e-14
-5.7254e-14
-5.60642e-14
-5.23147e-14
-4.86606e-14
-4.94163e-14
-4.81801e-14
-4.50282e-14
-4.44738e-14
-4.23649e-14
-3.93686e-14
-3.77902e-14
-3.76701e-14
-3.40591e-14
-2.92407e-14
-2.84279e-14
-2.61601e-14
-2.22068e-14
-2.08767e-14
-2.24072e-14
-2.7089e-14
-2.72484e-14
-2.44118e-14
-2.04959e-14
-1.62365e-14
-1.52406e-14
-1.34819e-14
-1.05513e-14
-7.14025e-15
-2.99903e-15
-3.60951e-15
-3.33824e-16
9.70739e-16
2.02156e-15
2.88578e-16
-2.11709e-15
-1.43582e-15
-1.90847e-15
4.48262e-14
4.55328e-14
4.50124e-14
4.23355e-14
4.1762e-14
4.51725e-14
4.44035e-14
4.03145e-14
3.48791e-14
2.8626e-14
2.55282e-14
2.72314e-14
2.83579e-14
2.29595e-14
1.83063e-14
1.6154e-14
1.51541e-14
1.04951e-14
-1.62439e-15
-1.433e-14
-2.55365e-14
-2.52302e-14
-2.28813e-14
-2.2481e-14
-2.5611e-14
-2.75511e-14
-3.51339e-14
-3.9303e-14
-3.98488e-14
-3.89746e-14
-4.21832e-14
-4.91332e-14
-5.3335e-14
-5.66397e-14
-5.63631e-14
-5.90213e-14
-5.99728e-14
-6.1671e-14
-6.69031e-14
-7.21112e-14
-7.40405e-14
-7.32496e-14
-7.29739e-14
-7.14258e-14
-7.25443e-14
-7.52413e-14
-7.85562e-14
-7.86883e-14
-7.87283e-14
-7.82027e-14
-7.70721e-14
-7.3696e-14
-7.35567e-14
-7.72408e-14
-7.71254e-14
-7.51139e-14
-7.30302e-14
-7.31069e-14
-6.85956e-14
-6.29308e-14
-5.84924e-14
-5.71288e-14
-5.74814e-14
-5.89566e-14
-5.84339e-14
-5.50775e-14
-5.32049e-14
-5.43521e-14
-5.22577e-14
-4.56179e-14
-3.78489e-14
-3.80404e-14
-3.80468e-14
-3.52949e-14
-3.50897e-14
-3.50158e-14
-3.32545e-14
-3.07794e-14
-2.81119e-14
-2.37374e-14
-2.16312e-14
-2.24455e-14
-2.28435e-14
-2.2646e-14
-2.16242e-14
-2.24449e-14
-1.8496e-14
-1.40012e-14
-1.30376e-14
-9.26121e-15
-7.55115e-15
-5.92109e-15
-3.84443e-15
-8.73679e-16
1.04826e-15
-1.81232e-16
-7.82305e-16
-2.01009e-15
-9.41597e-16
-1.16286e-15
4.36875e-14
4.33771e-14
4.14065e-14
4.29421e-14
4.6179e-14
4.74049e-14
4.42724e-14
3.89477e-14
3.39731e-14
2.98777e-14
2.83574e-14
2.59398e-14
2.42433e-14
2.02146e-14
1.8547e-14
1.55539e-14
1.37595e-14
9.79691e-15
-5.19296e-15
-1.29967e-14
-1.52738e-14
-1.75333e-14
-2.31799e-14
-2.90176e-14
-2.98751e-14
-3.27279e-14
-3.8226e-14
-3.93027e-14
-4.12535e-14
-4.19155e-14
-4.33648e-14
-4.58516e-14
-4.81778e-14
-5.09379e-14
-5.60039e-14
-5.94203e-14
-6.23854e-14
-6.56922e-14
-7.00375e-14
-7.3654e-14
-7.41727e-14
-7.11978e-14
-7.17377e-14
-6.79885e-14
-6.87434e-14
-7.40703e-14
-8.1637e-14
-8.692e-14
-8.27838e-14
-7.64108e-14
-7.18876e-14
-7.13748e-14
-7.52268e-14
-7.78343e-14
-7.86385e-14
-7.68858e-14
-7.29343e-14
-6.96038e-14
-6.76959e-14
-6.62963e-14
-6.1734e-14
-5.89339e-14
-5.73538e-14
-5.62741e-14
-5.47744e-14
-5.31609e-14
-5.24695e-14
-5.2734e-14
-4.86534e-14
-4.43939e-14
-4.09586e-14
-3.83623e-14
-3.98943e-14
-4.15988e-14
-4.0355e-14
-3.45849e-14
-3.02164e-14
-2.77075e-14
-2.44434e-14
-2.19329e-14
-2.07867e-14
-2.17693e-14
-2.5042e-14
-2.70723e-14
-2.71009e-14
-2.32464e-14
-1.73256e-14
-1.30767e-14
-1.08771e-14
-9.47099e-15
-9.24628e-15
-6.47933e-15
-3.39311e-15
4.34457e-16
-3.96665e-16
-2.24667e-15
-6.66291e-16
-6.70067e-16
-8.02637e-16
-2.22284e-15
4.56224e-14
4.67196e-14
4.3746e-14
3.89645e-14
4.2425e-14
4.52434e-14
4.46259e-14
3.99406e-14
3.18878e-14
3.17854e-14
2.77279e-14
2.2529e-14
1.91218e-14
1.94717e-14
1.96435e-14
1.67384e-14
1.36236e-14
6.89501e-15
-3.60416e-15
-1.16504e-14
-1.61712e-14
-2.08269e-14
-1.93719e-14
-2.38252e-14
-3.01775e-14
-3.58023e-14
-3.98719e-14
-4.00458e-14
-3.83485e-14
-3.99278e-14
-4.27929e-14
-4.52874e-14
-5.07546e-14
-5.62859e-14
-5.69097e-14
-5.90856e-14
-6.36581e-14
-6.86477e-14
-6.89682e-14
-6.77615e-14
-6.89786e-14
-7.24896e-14
-7.64189e-14
-7.55323e-14
-7.41287e-14
-7.46653e-14
-7.77834e-14
-8.03962e-14
-7.9336e-14
-7.86036e-14
-7.70368e-14
-7.55705e-14
-7.6826e-14
-7.71001e-14
-7.57386e-14
-7.40987e-14
-7.12859e-14
-6.97635e-14
-6.91044e-14
-6.69449e-14
-6.39018e-14
-6.1001e-14
-5.89303e-14
-5.74741e-14
-5.78435e-14
-5.73082e-14
-5.3931e-14
-5.2025e-14
-5.01385e-14
-4.7072e-14
-4.33514e-14
-3.7763e-14
-3.57867e-14
-3.56004e-14
-3.78544e-14
-3.45202e-14
-3.0106e-14
-2.69764e-14
-2.44024e-14
-2.31937e-14
-2.04824e-14
-2.09236e-14
-2.42822e-14
-2.53879e-14
-2.53021e-14
-2.24754e-14
-1.62524e-14
-1.29484e-14
-1.13053e-14
-9.63662e-15
-9.00791e-15
-7.11545e-15
-6.39799e-15
-2.28528e-15
-8.57414e-16
-4.26011e-16
-2.0286e-15
-3.47443e-15
-3.18359e-15
-4.90202e-15
4.5967e-14
4.49125e-14
4.5762e-14
4.26218e-14
4.07634e-14
4.32086e-14
4.19074e-14
4.18072e-14
3.66642e-14
2.64829e-14
2.31534e-14
2.0746e-14
1.99935e-14
2.19541e-14
2.11276e-14
1.51089e-14
8.64153e-15
7.8106e-15
2.66164e-15
-9.40018e-15
-1.72042e-14
-2.44537e-14
-2.62123e-14
-2.84617e-14
-2.87648e-14
-3.11063e-14
-3.61145e-14
-3.8729e-14
-4.02715e-14
-4.08047e-14
-4.18207e-14
-4.55042e-14
-5.13044e-14
-5.81908e-14
-6.07618e-14
-6.11856e-14
-6.20482e-14
-6.71899e-14
-6.97275e-14
-6.91205e-14
-7.21502e-14
-7.64615e-14
-7.61888e-14
-7.62365e-14
-7.3404e-14
-7.11254e-14
-7.44391e-14
-7.94142e-14
-8.01858e-14
-8.09467e-14
-8.01596e-14
-7.62272e-14
-7.55605e-14
-7.61989e-14
-7.7104e-14
-7.5495e-14
-7.30059e-14
-7.09562e-14
-6.90639e-14
-6.50181e-14
-6.11816e-14
-5.62753e-14
-5.45942e-14
-5.76334e-14
-6.08935e-14
-6.44402e-14
-6.15002e-14
-5.61488e-14
-5.06282e-14
-4.22624e-14
-3.83509e-14
-3.64976e-14
-3.41649e-14
-3.39392e-14
-3.65959e-14
-3.68584e-14
-3.19945e-14
-2.83619e-14
-2.55051e-14
-2.39864e-14
-2.21068e-14
-2.06553e-14
-2.10929e-14
-2.33548e-14
-2.34729e-14
-2.21984e-14
-1.85514e-14
-1.59191e-14
-1.23227e-14
-9.60375e-15
-1.0213e-14
-1.06118e-14
-8.19084e-15
-5.42086e-15
-3.93523e-15
-4.28578e-15
-4.18235e-15
-3.97083e-15
-5.09653e-15
-4.23774e-15
4.40048e-14
4.35265e-14
4.2963e-14
4.46939e-14
4.45233e-14
4.10502e-14
4.04656e-14
3.88244e-14
3.51823e-14
3.11893e-14
2.36277e-14
1.83129e-14
2.01857e-14
2.18384e-14
1.94313e-14
1.68935e-14
8.8928e-15
5.23874e-15
8.62745e-16
-6.5047e-15
-1.37812e-14
-2.54899e-14
-3.02147e-14
-2.8897e-14
-3.15839e-14
-3.58412e-14
-3.55028e-14
-3.70936e-14
-3.88188e-14
-4.00862e-14
-4.34665e-14
-4.76886e-14
-5.25635e-14
-5.55986e-14
-5.75905e-14
-6.17469e-14
-6.57775e-14
-6.87679e-14
-6.84577e-14
-7.13412e-14
-7.26514e-14
-7.71623e-14
-7.71547e-14
-7.40668e-14
-7.08422e-14
-7.16563e-14
-7.65362e-14
-8.21531e-14
-8.32845e-14
-8.32796e-14
-7.79518e-14
-7.51579e-14
-7.67939e-14
-7.69079e-14
-7.89173e-14
-7.47339e-14
-7.01053e-14
-6.89894e-14
-7.00252e-14
-7.0177e-14
-6.45062e-14
-6.32796e-14
-5.97171e-14
-5.51726e-14
-5.79643e-14
-6.25387e-14
-6.15933e-14
-5.67841e-14
-5.13756e-14
-4.0105e-14
-3.75426e-14
-3.58971e-14
-3.39049e-14
-3.43622e-14
-3.81279e-14
-4.05518e-14
-3.19695e-14
-2.5784e-14
-2.28772e-14
-2.04404e-14
-1.8584e-14
-1.72841e-14
-2.29088e-14
-2.54762e-14
-2.75168e-14
-2.64641e-14
-1.75394e-14
-1.25849e-14
-1.1193e-14
-1.07149e-14
-1.11735e-14
-9.72492e-15
-8.73855e-15
-6.49519e-15
-2.93783e-15
-2.06336e-15
-7.66089e-15
-1.17893e-14
-1.05719e-14
-2.64256e-15
4.62951e-14
4.47626e-14
4.34238e-14
4.53128e-14
4.43585e-14
4.03611e-14
4.11773e-14
3.95055e-14
3.42716e-14
2.86351e-14
2.39059e-14
1.93318e-14
1.60299e-14
1.62741e-14
1.52943e-14
1.15283e-14
1.10909e-14
1.01668e-14
2.58985e-15
-6.65237e-15
-1.55941e-14
-2.02319e-14
-2.46341e-14
-2.95702e-14
-3.30217e-14
-3.88717e-14
-3.95305e-14
-3.82437e-14
-3.86342e-14
-3.81107e-14
-4.10881e-14
-4.73991e-14
-5.56291e-14
-5.94746e-14
-6.20719e-14
-6.35626e-14
-6.42421e-14
-6.67699e-14
-6.75326e-14
-7.26633e-14
-7.55228e-14
-7.89393e-14
-7.70981e-14
-7.30368e-14
-7.23868e-14
-7.35014e-14
-7.63285e-14
-7.9498e-14
-8.24241e-14
-8.35252e-14
-8.14918e-14
-7.69475e-14
-7.69494e-14
-7.56121e-14
-7.58912e-14
-7.51987e-14
-7.26672e-14
-7.17124e-14
-7.06837e-14
-6.72715e-14
-6.2707e-14
-5.48845e-14
-5.64971e-14
-5.9123e-14
-6.41191e-14
-6.59673e-14
-6.13598e-14
-5.63287e-14
-5.14622e-14
-4.41522e-14
-3.96528e-14
-3.2804e-14
-2.86279e-14
-3.05697e-14
-3.98786e-14
-4.57281e-14
-3.88341e-14
-2.68867e-14
-2.05252e-14
-1.999e-14
-1.97353e-14
-1.96821e-14
-2.12569e-14
-2.17948e-14
-2.2898e-14
-2.34341e-14
-2.19657e-14
-1.59756e-14
-1.19859e-14
-1.09405e-14
-1.27844e-14
-1.14878e-14
-8.80619e-15
-7.07894e-15
-5.52609e-15
-5.00862e-15
-9.58567e-15
-1.06059e-14
-8.6883e-15
-1.96688e-15
4.45135e-14
4.45245e-14
3.81256e-14
4.61027e-14
4.538e-14
4.34956e-14
3.94823e-14
3.58708e-14
3.05326e-14
2.36749e-14
2.07588e-14
2.17927e-14
2.27557e-14
2.0315e-14
1.66171e-14
1.34208e-14
1.14434e-14
1.04269e-14
3.41213e-15
-6.68348e-15
-2.1246e-14
-2.9344e-14
-3.39623e-14
-3.27317e-14
-3.39242e-14
-3.53449e-14
-3.68372e-14
-3.80197e-14
-3.90641e-14
-3.66346e-14
-4.00006e-14
-4.81499e-14
-5.33212e-14
-5.69323e-14
-5.75748e-14
-6.36342e-14
-6.86648e-14
-6.89045e-14
-6.89636e-14
-7.5219e-14
-7.81291e-14
-7.65245e-14
-7.45189e-14
-7.35638e-14
-7.73357e-14
-7.97135e-14
-7.87358e-14
-7.85449e-14
-8.04813e-14
-8.06561e-14
-7.93579e-14
-7.68732e-14
-8.01013e-14
-8.15194e-14
-7.39155e-14
-6.66256e-14
-7.14142e-14
-7.54465e-14
-7.44874e-14
-7.25388e-14
-6.64956e-14
-6.25098e-14
-5.74645e-14
-5.73171e-14
-5.9978e-14
-6.07716e-14
-6.41458e-14
-5.59171e-14
-5.08977e-14
-4.61169e-14
-4.17117e-14
-3.35653e-14
-2.80365e-14
-3.20866e-14
-3.97167e-14
-4.19512e-14
-3.46439e-14
-2.56036e-14
-2.39819e-14
-2.25302e-14
-2.16304e-14
-1.86105e-14
-1.89191e-14
-2.25736e-14
-2.27014e-14
-2.35127e-14
-2.13038e-14
-1.55564e-14
-1.34248e-14
-1.19634e-14
-1.22339e-14
-1.3319e-14
-1.10758e-14
-7.6591e-15
-6.62426e-15
-6.08212e-15
-8.73157e-15
-9.30226e-15
-8.84677e-15
-2.97029e-15
4.14684e-14
5.01613e-14
4.49839e-14
4.1444e-14
4.19878e-14
4.09395e-14
3.85112e-14
3.87446e-14
3.14747e-14
1.96196e-14
1.76115e-14
2.06215e-14
2.23337e-14
2.07319e-14
1.77003e-14
1.12098e-14
3.94838e-15
6.76788e-16
-4.74558e-16
-6.01475e-15
-8.50341e-15
-1.3776e-14
-2.1832e-14
-3.3328e-14
-4.24548e-14
-4.37668e-14
-4.15281e-14
-3.81478e-14
-3.74033e-14
-3.60399e-14
-3.9208e-14
-4.7571e-14
-5.78487e-14
-6.32322e-14
-6.51997e-14
-6.62312e-14
-6.35711e-14
-6.52497e-14
-7.05785e-14
-7.1704e-14
-7.64297e-14
-7.8642e-14
-7.63743e-14
-7.75859e-14
-7.96447e-14
-8.10425e-14
-8.15764e-14
-7.99784e-14
-7.74509e-14
-7.7679e-14
-7.75347e-14
-7.90443e-14
-7.95476e-14
-7.92061e-14
-7.56983e-14
-7.1998e-14
-7.07327e-14
-7.0642e-14
-6.85001e-14
-6.85036e-14
-6.8311e-14
-6.68668e-14
-6.41565e-14
-6.05289e-14
-5.97789e-14
-5.94046e-14
-5.84077e-14
-5.52223e-14
-5.05724e-14
-4.51857e-14
-4.07607e-14
-3.70403e-14
-3.38722e-14
-3.37038e-14
-3.66229e-14
-3.74541e-14
-3.57637e-14
-3.02424e-14
-2.46665e-14
-2.15405e-14
-2.12672e-14
-2.05486e-14
-2.087e-14
-2.28264e-14
-2.39026e-14
-2.22025e-14
-1.95356e-14
-1.69204e-14
-1.31254e-14
-1.26744e-14
-1.24384e-14
-9.7255e-15
-8.83611e-15
-8.64011e-15
-9.98077e-15
-1.13424e-14
-9.6719e-15
-7.14633e-15
-6.83039e-15
-3.00198e-15
4.11741e-14
4.44471e-14
4.56063e-14
4.28304e-14
4.28049e-14
4.29509e-14
3.44968e-14
2.71024e-14
2.54861e-14
2.4745e-14
2.31006e-14
2.41877e-14
2.34442e-14
2.04009e-14
1.69023e-14
1.21674e-14
8.42843e-15
6.81276e-15
1.82422e-15
-7.79975e-15
-2.03248e-14
-3.01433e-14
-3.38794e-14
-3.8876e-14
-3.6509e-14
-3.43438e-14
-3.57631e-14
-3.89113e-14
-3.9899e-14
-3.76537e-14
-3.82391e-14
-4.43738e-14
-5.36682e-14
-6.44949e-14
-7.07464e-14
-6.72824e-14
-6.31984e-14
-6.44263e-14
-6.63498e-14
-7.17255e-14
-7.87861e-14
-8.05229e-14
-8.17923e-14
-8.14146e-14
-8.10295e-14
-7.9767e-14
-7.87651e-14
-7.91037e-14
-7.80587e-14
-7.44444e-14
-7.39922e-14
-8.07993e-14
-8.31383e-14
-8.25422e-14
-8.09053e-14
-7.49647e-14
-7.16045e-14
-7.09577e-14
-7.14814e-14
-7.1209e-14
-6.59488e-14
-6.38287e-14
-6.22879e-14
-6.1297e-14
-6.45251e-14
-6.43252e-14
-5.9776e-14
-5.39642e-14
-4.79469e-14
-4.53275e-14
-4.17382e-14
-3.73254e-14
-3.47541e-14
-3.55051e-14
-3.60471e-14
-4.10726e-14
-3.63975e-14
-3.09459e-14
-2.29104e-14
-1.7657e-14
-1.69949e-14
-1.78454e-14
-2.13931e-14
-2.54141e-14
-2.58637e-14
-2.22516e-14
-2.00223e-14
-1.72658e-14
-1.46274e-14
-1.2848e-14
-1.23842e-14
-1.05022e-14
-8.56062e-15
-9.35768e-15
-1.03979e-14
-1.3121e-14
-1.23502e-14
-9.79121e-15
-7.18665e-15
-2.40642e-15
3.87504e-14
4.7132e-14
4.65017e-14
4.27681e-14
4.09012e-14
4.5676e-14
4.29227e-14
3.21617e-14
1.81684e-14
1.62284e-14
1.74688e-14
2.19649e-14
2.31161e-14
2.25796e-14
1.9111e-14
1.2876e-14
5.94507e-15
1.45124e-15
-6.3639e-15
-9.76942e-15
-1.50763e-14
-2.31159e-14
-3.21298e-14
-4.09259e-14
-3.79247e-14
-3.51824e-14
-3.46829e-14
-3.59493e-14
-3.81982e-14
-3.87024e-14
-4.14276e-14
-4.9403e-14
-5.4531e-14
-6.46519e-14
-7.18026e-14
-6.95137e-14
-6.65997e-14
-6.44909e-14
-6.65584e-14
-7.11874e-14
-7.97498e-14
-8.19468e-14
-7.91607e-14
-8.09936e-14
-8.21908e-14
-8.22419e-14
-7.75421e-14
-7.61698e-14
-7.88621e-14
-8.23099e-14
-8.12597e-14
-7.94237e-14
-7.96456e-14
-8.33188e-14
-7.7096e-14
-7.32043e-14
-7.30375e-14
-6.93984e-14
-6.76683e-14
-6.98184e-14
-6.84185e-14
-6.74072e-14
-6.60367e-14
-6.33369e-14
-6.39157e-14
-6.19059e-14
-6.24958e-14
-5.65641e-14
-5.13622e-14
-4.27723e-14
-4.00269e-14
-3.63313e-14
-3.2242e-14
-3.52717e-14
-3.93731e-14
-4.09275e-14
-3.29917e-14
-2.9324e-14
-2.5599e-14
-2.15507e-14
-1.85024e-14
-1.73192e-14
-2.15511e-14
-2.3708e-14
-2.24091e-14
-2.0505e-14
-1.91179e-14
-1.76514e-14
-1.5068e-14
-1.38147e-14
-1.34854e-14
-1.22743e-14
-1.1674e-14
-1.17906e-14
-1.05424e-14
-9.37637e-15
-1.26867e-14
-1.24314e-14
-9.14728e-15
-3.38922e-15
4.4344e-14
4.41638e-14
4.10491e-14
3.71458e-14
3.85025e-14
3.50756e-14
3.13361e-14
3.51021e-14
3.23853e-14
2.74527e-14
2.46731e-14
2.01733e-14
1.74292e-14
1.83021e-14
1.69056e-14
1.28634e-14
7.00171e-15
7.83807e-15
1.71167e-16
-1.20952e-14
-2.60697e-14
-3.3319e-14
-3.355e-14
-3.39353e-14
-3.76658e-14
-3.57537e-14
-3.50531e-14
-3.87597e-14
-3.92703e-14
-4.05294e-14
-4.28009e-14
-4.98908e-14
-5.8243e-14
-6.72357e-14
-6.96775e-14
-6.76848e-14
-6.2785e-14
-6.45699e-14
-6.7506e-14
-7.25569e-14
-8.05513e-14
-8.53989e-14
-8.21636e-14
-7.94272e-14
-7.82931e-14
-8.22601e-14
-8.42286e-14
-7.9213e-14
-7.75432e-14
-8.00779e-14
-8.17105e-14
-7.93586e-14
-7.9452e-14
-8.12593e-14
-8.17468e-14
-7.79284e-14
-7.52744e-14
-6.98314e-14
-6.69422e-14
-6.72841e-14
-6.81327e-14
-6.71095e-14
-6.6717e-14
-6.4096e-14
-6.02757e-14
-6.11163e-14
-6.31193e-14
-6.0409e-14
-5.39187e-14
-4.27287e-14
-4.09059e-14
-3.7609e-14
-3.57109e-14
-3.49033e-14
-3.5693e-14
-3.86663e-14
-3.68982e-14
-3.28063e-14
-2.66773e-14
-1.62018e-14
-1.4147e-14
-1.96798e-14
-2.20231e-14
-2.60504e-14
-2.22436e-14
-1.84344e-14
-1.67884e-14
-1.83547e-14
-1.84521e-14
-1.54207e-14
-1.26276e-14
-1.34018e-14
-1.0421e-14
-9.11784e-15
-1.20125e-14
-1.29175e-14
-1.23222e-14
-1.07888e-14
-8.58736e-15
-3.73898e-15
4.36158e-14
4.25708e-14
4.11993e-14
3.94133e-14
4.38024e-14
4.2405e-14
3.20932e-14
2.72218e-14
2.45842e-14
2.37454e-14
2.50025e-14
2.60309e-14
1.87265e-14
1.44325e-14
1.20652e-14
9.65143e-15
7.84979e-15
4.70788e-15
-2.91922e-15
-1.33136e-14
-2.25043e-14
-3.23845e-14
-3.68802e-14
-3.3784e-14
-3.22553e-14
-3.70862e-14
-3.89886e-14
-3.86551e-14
-3.74134e-14
-3.93296e-14
-4.13168e-14
-4.90395e-14
-5.79178e-14
-6.82145e-14
-7.49736e-14
-7.01125e-14
-6.78789e-14
-6.65846e-14
-6.62352e-14
-6.8778e-14
-7.71834e-14
-8.41392e-14
-8.4682e-14
-8.53707e-14
-8.16286e-14
-8.03861e-14
-8.1581e-14
-8.24017e-14
-8.12703e-14
-8.02584e-14
-8.09481e-14
-8.04969e-14
-8.08723e-14
-8.21614e-14
-7.71039e-14
-7.49453e-14
-7.6359e-14
-7.60692e-14
-7.09651e-14
-6.91948e-14
-6.80274e-14
-6.70188e-14
-6.61205e-14
-6.31984e-14
-6.14492e-14
-6.23498e-14
-6.19063e-14
-5.94366e-14
-5.53998e-14
-4.97984e-14
-4.35362e-14
-3.75196e-14
-3.40884e-14
-3.50751e-14
-3.64197e-14
-3.7444e-14
-3.36909e-14
-3.07268e-14
-2.44859e-14
-1.97792e-14
-1.8309e-14
-1.77271e-14
-2.03308e-14
-2.23343e-14
-2.25997e-14
-2.32217e-14
-2.01836e-14
-1.71482e-14
-1.49791e-14
-1.5587e-14
-1.36241e-14
-1.41212e-14
-1.28691e-14
-1.12229e-14
-1.30467e-14
-1.09301e-14
-1.07842e-14
-1.09162e-14
-9.56156e-15
-3.84232e-15
3.84847e-14
4.1894e-14
4.21562e-14
3.97661e-14
3.91504e-14
3.47957e-14
3.15517e-14
3.01474e-14
3.06333e-14
2.82094e-14
2.4903e-14
2.33222e-14
1.93903e-14
1.54813e-14
1.03896e-14
6.0404e-15
6.04293e-15
2.66204e-15
-4.42753e-15
-1.21754e-14
-2.38485e-14
-3.2914e-14
-3.32762e-14
-3.32779e-14
-3.87089e-14
-3.99074e-14
-3.60838e-14
-3.54853e-14
-3.78111e-14
-4.28425e-14
-4.67069e-14
-5.2507e-14
-6.03833e-14
-6.71208e-14
-7.37092e-14
-6.68961e-14
-6.23253e-14
-6.56296e-14
-7.11306e-14
-7.77188e-14
-8.07563e-14
-8.18174e-14
-8.32306e-14
-8.51659e-14
-8.53126e-14
-8.46987e-14
-8.03627e-14
-7.65707e-14
-7.94516e-14
-8.51374e-14
-8.38573e-14
-8.07648e-14
-8.13922e-14
-8.20837e-14
-7.83057e-14
-7.45731e-14
-7.44355e-14
-7.51394e-14
-7.39742e-14
-7.05038e-14
-6.52177e-14
-6.47041e-14
-6.6107e-14
-6.64673e-14
-6.53733e-14
-6.32406e-14
-6.26738e-14
-5.83978e-14
-5.52734e-14
-5.11214e-14
-4.72865e-14
-3.69565e-14
-3.33038e-14
-3.47673e-14
-3.62665e-14
-3.75255e-14
-3.25704e-14
-2.96437e-14
-2.93991e-14
-2.72005e-14
-1.5837e-14
-1.22694e-14
-1.98568e-14
-2.27238e-14
-2.28906e-14
-2.24016e-14
-2.02046e-14
-1.65873e-14
-1.58237e-14
-1.55554e-14
-1.33941e-14
-1.31483e-14
-1.31789e-14
-1.26756e-14
-1.09579e-14
-1.15176e-14
-1.3345e-14
-1.23163e-14
-1.04545e-14
-2.9796e-15
4.31975e-14
4.17351e-14
4.1535e-14
3.78703e-14
3.38749e-14
3.25734e-14
3.10175e-14
3.23579e-14
3.11609e-14
2.76809e-14
2.2902e-14
2.22712e-14
1.92648e-14
1.72836e-14
1.1526e-14
4.28675e-15
-2.19414e-15
-5.00864e-15
-5.13351e-15
-9.57555e-15
-2.14631e-14
-2.98387e-14
-3.30278e-14
-3.52397e-14
-3.64926e-14
-3.83237e-14
-3.56645e-14
-3.59917e-14
-3.97137e-14
-4.24952e-14
-4.70308e-14
-5.3885e-14
-6.17257e-14
-7.02161e-14
-7.19517e-14
-6.93862e-14
-6.6387e-14
-6.81066e-14
-7.25419e-14
-7.80539e-14
-8.18443e-14
-8.3919e-14
-8.19007e-14
-8.29218e-14
-8.30048e-14
-8.28616e-14
-8.37822e-14
-8.33823e-14
-8.05619e-14
-8.17534e-14
-8.00125e-14
-8.2038e-14
-8.34461e-14
-8.22731e-14
-8.08009e-14
-7.99716e-14
-7.62333e-14
-7.41996e-14
-7.37039e-14
-7.05573e-14
-6.5695e-14
-6.38726e-14
-6.46896e-14
-6.69841e-14
-6.61606e-14
-6.4021e-14
-6.35569e-14
-5.95608e-14
-5.56383e-14
-5.14504e-14
-4.49513e-14
-3.79265e-14
-3.52164e-14
-3.7972e-14
-3.61468e-14
-3.57108e-14
-3.41905e-14
-3.16013e-14
-2.56702e-14
-2.23611e-14
-1.94492e-14
-1.7197e-14
-1.75722e-14
-1.7277e-14
-1.84331e-14
-2.32862e-14
-2.35059e-14
-1.87041e-14
-1.54189e-14
-1.78483e-14
-1.60676e-14
-1.38225e-14
-9.29074e-15
-1.11311e-14
-1.33231e-14
-1.18456e-14
-1.1952e-14
-1.51899e-14
-8.86037e-15
-1.69497e-15
4.54776e-14
4.10811e-14
3.63788e-14
3.70324e-14
3.08374e-14
3.20533e-14
3.1053e-14
3.27221e-14
3.30064e-14
2.55903e-14
2.28945e-14
2.31124e-14
2.22518e-14
1.69597e-14
1.06925e-14
4.94781e-15
1.96385e-15
-3.71206e-15
-8.53219e-15
-1.68846e-14
-2.22262e-14
-2.98409e-14
-3.62064e-14
-3.78627e-14
-3.81033e-14
-3.47687e-14
-3.4702e-14
-3.79671e-14
-4.10419e-14
-4.39315e-14
-4.67658e-14
-5.31537e-14
-6.33537e-14
-6.96863e-14
-7.48155e-14
-7.38639e-14
-6.9436e-14
-6.83904e-14
-7.25283e-14
-7.70987e-14
-8.02845e-14
-8.25307e-14
-8.43739e-14
-8.49604e-14
-8.51157e-14
-8.54934e-14
-8.56442e-14
-8.2558e-14
-7.99683e-14
-8.20547e-14
-8.39702e-14
-8.61712e-14
-8.39821e-14
-8.05926e-14
-7.90149e-14
-7.64869e-14
-7.63529e-14
-7.56019e-14
-7.13464e-14
-6.74032e-14
-6.46917e-14
-6.53851e-14
-7.08613e-14
-7.02418e-14
-6.65669e-14
-6.43584e-14
-6.37358e-14
-6.05308e-14
-5.69942e-14
-4.89848e-14
-4.37622e-14
-4.14055e-14
-4.02454e-14
-3.94883e-14
-3.79574e-14
-3.68165e-14
-3.20237e-14
-2.45226e-14
-2.44577e-14
-2.45829e-14
-2.20334e-14
-1.99375e-14
-1.83434e-14
-1.85227e-14
-2.21845e-14
-2.54006e-14
-2.15001e-14
-1.69427e-14
-1.52157e-14
-1.19646e-14
-1.06745e-14
-1.3377e-14
-1.3347e-14
-1.31538e-14
-1.37012e-14
-1.4667e-14
-1.28203e-14
-9.83429e-15
-6.65446e-15
-2.26359e-15
4.31034e-14
3.90732e-14
3.75608e-14
3.6364e-14
3.37769e-14
3.10091e-14
2.90097e-14
3.10171e-14
3.12881e-14
2.93502e-14
2.51444e-14
2.12316e-14
2.00042e-14
1.37319e-14
7.35482e-15
8.28e-16
-4.22636e-15
-5.72881e-15
-7.81665e-15
-1.41006e-14
-2.10124e-14
-2.80196e-14
-3.42011e-14
-3.51752e-14
-3.37542e-14
-3.6009e-14
-3.89692e-14
-4.28231e-14
-4.64949e-14
-4.55284e-14
-4.62983e-14
-4.94968e-14
-5.70023e-14
-6.53691e-14
-7.69241e-14
-7.74394e-14
-7.40592e-14
-7.24701e-14
-7.39828e-14
-7.84621e-14
-7.9853e-14
-8.34767e-14
-8.28619e-14
-8.67612e-14
-8.4778e-14
-8.58501e-14
-8.35458e-14
-8.15984e-14
-8.49228e-14
-8.77329e-14
-8.35947e-14
-8.14523e-14
-8.15948e-14
-8.47981e-14
-8.25609e-14
-8.16286e-14
-8.13038e-14
-7.41316e-14
-7.20772e-14
-6.4704e-14
-5.79186e-14
-6.70151e-14
-7.1326e-14
-6.73435e-14
-6.36589e-14
-6.29059e-14
-6.21007e-14
-5.96046e-14
-5.91569e-14
-5.42758e-14
-4.86951e-14
-3.98788e-14
-3.54304e-14
-3.68155e-14
-3.97283e-14
-4.1737e-14
-3.16678e-14
-2.57268e-14
-2.45915e-14
-2.19634e-14
-1.94525e-14
-1.83804e-14
-2.03341e-14
-2.09223e-14
-2.03937e-14
-2.34933e-14
-2.14687e-14
-1.69065e-14
-1.40038e-14
-1.53289e-14
-1.51515e-14
-1.31349e-14
-1.24271e-14
-1.31309e-14
-1.01149e-14
-9.69328e-15
-1.3058e-14
-1.38586e-14
-1.19876e-14
-3.73694e-15
3.8297e-14
4.03427e-14
4.0595e-14
3.54002e-14
3.16501e-14
3.04383e-14
2.99833e-14
2.77704e-14
2.87711e-14
2.76149e-14
2.63511e-14
2.46701e-14
1.84463e-14
1.14266e-14
7.35574e-15
3.0441e-15
2.34213e-15
1.96661e-16
-6.38066e-15
-1.69732e-14
-2.96885e-14
-3.71847e-14
-3.64102e-14
-3.35814e-14
-3.33801e-14
-3.74369e-14
-4.20617e-14
-4.33545e-14
-4.60271e-14
-4.39074e-14
-4.44722e-14
-5.61416e-14
-6.34272e-14
-6.76159e-14
-7.13472e-14
-7.32347e-14
-7.34169e-14
-7.41022e-14
-7.61143e-14
-7.84568e-14
-8.13271e-14
-8.50984e-14
-8.66811e-14
-8.56453e-14
-8.10884e-14
-8.5079e-14
-8.53222e-14
-8.76139e-14
-8.42041e-14
-8.39507e-14
-8.6703e-14
-8.30573e-14
-8.12725e-14
-8.17126e-14
-8.18119e-14
-8.62773e-14
-8.75997e-14
-7.62303e-14
-6.4916e-14
-6.32681e-14
-6.49137e-14
-6.66634e-14
-6.81534e-14
-6.58203e-14
-6.43217e-14
-6.64312e-14
-6.54555e-14
-6.13685e-14
-5.54353e-14
-5.09268e-14
-4.84003e-14
-4.4518e-14
-3.98395e-14
-4.07983e-14
-3.82155e-14
-3.72021e-14
-3.50549e-14
-2.53607e-14
-1.87994e-14
-1.94896e-14
-2.10612e-14
-2.2038e-14
-2.2895e-14
-2.46546e-14
-2.42478e-14
-2.19166e-14
-2.08853e-14
-1.75993e-14
-1.54826e-14
-1.52112e-14
-1.05932e-14
-1.14264e-14
-1.1158e-14
-1.13769e-14