/*--------------------------------*- C++ -*----------------------------------*\
| =========                 |                                                 |
| \\      /  F ield         | OpenFOAM: The Open Source CFD Toolbox           |
|  \\    /   O peration     | Version:  v2012                                 |
|   \\  /    A nd           | Website:  www.openfoam.com                      |
|    \\/     M anipulation  |                                                 |
\*---------------------------------------------------------------------------*/
FoamFile
{
    version     2.0;
    format      ascii;
    class       volScalarField;
    location    "16";
    object      W;
}
// * * * * * * * * * * * * * * * * * * * * * * * * * * * * * * * * * * * * * //

dimensions      [0 0 -1 0 0 0 0];


internalField   nonuniform List<scalar> 
65536
(
1.62054e-14
1.64503e-14
1.69522e-14
1.77175e-14
1.87561e-14
2.00813e-14
2.17103e-14
2.36639e-14
2.59672e-14
2.86495e-14
3.17448e-14
3.52921e-14
3.93358e-14
4.39263e-14
4.912e-14
5.49804e-14
6.15786e-14
6.89937e-14
7.73137e-14
8.66365e-14
9.70702e-14
1.08735e-13
1.21763e-13
1.363e-13
1.52507e-13
1.70561e-13
1.90656e-13
2.13004e-13
2.37841e-13
2.65421e-13
2.96023e-13
3.29953e-13
3.67542e-13
4.09153e-13
4.5518e-13
5.06049e-13
5.62225e-13
6.24209e-13
6.92545e-13
7.67818e-13
8.50661e-13
9.41755e-13
1.04183e-12
1.15167e-12
1.27212e-12
1.40408e-12
1.54851e-12
1.70643e-12
1.87892e-12
2.06715e-12
2.27234e-12
2.49577e-12
2.73882e-12
3.00291e-12
3.28955e-12
3.60032e-12
3.93686e-12
4.30089e-12
4.69417e-12
5.11855e-12
5.57592e-12
6.06823e-12
6.59748e-12
7.16571e-12
7.77496e-12
8.42734e-12
9.12494e-12
9.86986e-12
1.06642e-11
1.151e-11
1.24092e-11
1.33639e-11
1.43759e-11
1.54469e-11
1.65787e-11
1.77728e-11
1.90306e-11
2.03532e-11
2.17416e-11
2.31967e-11
2.47188e-11
2.63084e-11
2.79653e-11
2.96892e-11
3.14794e-11
3.3335e-11
3.52544e-11
3.7236e-11
3.92775e-11
4.13765e-11
4.35299e-11
4.57344e-11
4.79861e-11
5.02808e-11
5.26141e-11
5.49808e-11
5.73756e-11
5.97928e-11
6.22263e-11
6.46699e-11
6.71168e-11
6.95603e-11
7.19933e-11
7.44086e-11
7.67989e-11
7.91568e-11
8.1475e-11
8.37461e-11
8.59628e-11
8.8118e-11
9.02048e-11
9.22163e-11
9.41463e-11
9.59886e-11
9.77373e-11
9.93872e-11
1.00933e-10
1.02371e-10
1.03697e-10
1.04906e-10
1.05998e-10
1.06967e-10
1.07814e-10
1.08537e-10
1.09134e-10
1.09605e-10
1.09951e-10
1.10171e-10
1.10268e-10
1.10243e-10
1.10096e-10
1.09832e-10
1.09451e-10
1.08957e-10
1.08353e-10
1.07642e-10
1.06828e-10
1.05913e-10
1.04902e-10
1.03798e-10
1.02604e-10
1.01325e-10
9.99635e-11
9.85235e-11
9.70083e-11
9.54211e-11
9.37652e-11
9.20437e-11
9.02595e-11
8.84154e-11
8.65142e-11
8.45585e-11
8.25508e-11
8.04937e-11
7.83896e-11
7.62408e-11
7.405e-11
7.18195e-11
6.95522e-11
6.72506e-11
6.49179e-11
6.25572e-11
6.01719e-11
5.77658e-11
5.53431e-11
5.29081e-11
5.04657e-11
4.80213e-11
4.55803e-11
4.31489e-11
4.07334e-11
3.83406e-11
3.59776e-11
3.36515e-11
3.13698e-11
2.914e-11
2.69696e-11
2.48658e-11
2.28357e-11
2.08861e-11
1.90233e-11
1.72527e-11
1.55796e-11
1.4008e-11
1.25412e-11
1.11819e-11
9.93128e-12
8.79001e-12
7.75753e-12
6.83237e-12
6.01212e-12
5.29345e-12
4.67222e-12
4.1435e-12
3.70169e-12
3.34058e-12
3.05344e-12
2.83311e-12
2.67213e-12
2.56278e-12
2.49722e-12
2.46758e-12
2.46607e-12
2.48511e-12
2.51742e-12
2.55617e-12
2.59509e-12
2.62855e-12
2.65173e-12
2.66065e-12
2.65225e-12
2.62445e-12
2.57614e-12
2.50715e-12
2.4182e-12
2.31082e-12
2.18718e-12
2.05002e-12
1.90243e-12
1.74773e-12
1.58927e-12
1.43032e-12
1.2739e-12
1.12272e-12
9.79042e-13
8.4469e-13
7.2099e-13
6.08792e-13
5.08499e-13
4.20115e-13
3.43304e-13
2.7746e-13
2.21773e-13
1.75301e-13
1.37026e-13
1.05912e-13
8.09456e-14
6.11679e-14
4.57001e-14
3.37562e-14
2.46497e-14
1.7794e-14
1.26975e-14
8.95628e-15
6.24423e-15
4.30285e-15
2.93052e-15
1.97262e-15
1.31247e-15
8.63409e-16
5.62125e-16
3.63152e-16
2.34479e-16
1.54151e-16
1.07745e-16
8.65762e-17
2.41468e-14
2.45127e-14
2.5263e-14
2.64073e-14
2.79605e-14
2.99426e-14
3.23793e-14
3.53023e-14
3.87491e-14
4.27641e-14
4.73985e-14
5.27112e-14
5.87691e-14
6.56481e-14
7.34336e-14
8.22216e-14
9.21193e-14
1.03246e-13
1.15736e-13
1.29736e-13
1.4541e-13
1.6294e-13
1.82527e-13
2.04391e-13
2.28775e-13
2.55949e-13
2.86206e-13
3.19871e-13
3.57296e-13
3.98871e-13
4.45019e-13
4.96203e-13
5.52927e-13
6.15742e-13
6.85245e-13
7.62086e-13
8.46969e-13
9.40655e-13
1.04397e-12
1.1578e-12
1.28311e-12
1.42093e-12
1.57238e-12
1.73863e-12
1.92096e-12
2.12074e-12
2.33942e-12
2.57853e-12
2.83974e-12
3.12477e-12
3.43547e-12
3.77377e-12
4.14173e-12
4.5415e-12
4.97531e-12
5.44553e-12
5.95459e-12
6.50504e-12
7.09949e-12
7.74066e-12
8.43132e-12
9.17433e-12
9.97257e-12
1.0829e-11
1.17465e-11
1.27282e-11
1.37769e-11
1.48957e-11
1.60873e-11
1.73546e-11
1.87003e-11
2.0127e-11
2.16371e-11
2.32329e-11
2.49163e-11
2.66891e-11
2.85529e-11
3.05088e-11
3.25575e-11
3.46995e-11
3.69349e-11
3.92631e-11
4.16833e-11
4.41939e-11
4.67931e-11
4.94782e-11
5.22462e-11
5.50933e-11
5.80153e-11
6.1007e-11
6.40631e-11
6.71774e-11
7.0343e-11
7.35527e-11
7.67985e-11
8.0072e-11
8.33644e-11
8.66662e-11
8.99677e-11
9.32588e-11
9.65292e-11
9.97682e-11
1.02965e-10
1.06109e-10
1.09189e-10
1.12195e-10
1.15116e-10
1.17942e-10
1.20662e-10
1.23267e-10
1.25749e-10
1.28097e-10
1.30306e-10
1.32366e-10
1.34271e-10
1.36016e-10
1.37596e-10
1.39005e-10
1.40242e-10
1.41302e-10
1.42185e-10
1.42889e-10
1.43414e-10
1.43761e-10
1.43932e-10
1.43928e-10
1.43753e-10
1.43409e-10
1.42902e-10
1.42236e-10
1.41415e-10
1.40445e-10
1.39333e-10
1.38084e-10
1.36704e-10
1.35199e-10
1.33577e-10
1.31844e-10
1.30006e-10
1.2807e-10
1.26042e-10
1.23927e-10
1.21733e-10
1.19464e-10
1.17127e-10
1.14725e-10
1.12265e-10
1.09751e-10
1.07186e-10
1.04576e-10
1.01924e-10
9.92329e-11
9.65069e-11
9.3749e-11
9.09621e-11
8.81491e-11
8.5313e-11
8.24565e-11
7.95825e-11
7.6694e-11
7.3794e-11
7.08859e-11
6.7973e-11
6.50591e-11
6.21483e-11
5.9245e-11
5.63539e-11
5.34802e-11
5.06294e-11
4.78074e-11
4.50205e-11
4.22752e-11
3.95783e-11
3.69369e-11
3.43582e-11
3.18494e-11
2.94177e-11
2.707e-11
2.48131e-11
2.26533e-11
2.05963e-11
1.86475e-11
1.68112e-11
1.5091e-11
1.34897e-11
1.20092e-11
1.06501e-11
9.41236e-12
8.29465e-12
7.29477e-12
6.40957e-12
5.63495e-12
4.96603e-12
4.39711e-12
3.92187e-12
3.53336e-12
3.22417e-12
2.98648e-12
2.81215e-12
2.69287e-12
2.62022e-12
2.58579e-12
2.58129e-12
2.59868e-12
2.63026e-12
2.66884e-12
2.70779e-12
2.74122e-12
2.76408e-12
2.7722e-12
2.76238e-12
2.73247e-12
2.6813e-12
2.6087e-12
2.51543e-12
2.40307e-12
2.27392e-12
2.1308e-12
1.97694e-12
1.81577e-12
1.65079e-12
1.48538e-12
1.32268e-12
1.16549e-12
1.01616e-12
8.76561e-13
7.48068e-13
6.31555e-13
5.27431e-13
4.35692e-13
3.55983e-13
2.87668e-13
2.29902e-13
1.81704e-13
1.42014e-13
1.09755e-13
8.38734e-14
6.33737e-14
4.73433e-14
3.49666e-14
2.55313e-14
1.84288e-14
1.31494e-14
9.27424e-15
6.46542e-15
4.45494e-15
3.03389e-15
2.04207e-15
1.35859e-15
8.93698e-16
5.81812e-16
3.75849e-16
2.42663e-16
1.59523e-16
1.11494e-16
8.95875e-17
4.3391e-14
4.40509e-14
4.5405e-14
4.74704e-14
5.02738e-14
5.38522e-14
5.82522e-14
6.35313e-14
6.97582e-14
7.70135e-14
8.53907e-14
9.4997e-14
1.05955e-13
1.18402e-13
1.32496e-13
1.48411e-13
1.66342e-13
1.8651e-13
2.09157e-13
2.34554e-13
2.63002e-13
2.94832e-13
3.30411e-13
3.70147e-13
4.14484e-13
4.63916e-13
5.18982e-13
5.80277e-13
6.48451e-13
7.24217e-13
8.08355e-13
9.01714e-13
1.00522e-12
1.1199e-12
1.24683e-12
1.38722e-12
1.54236e-12
1.71365e-12
1.90261e-12
2.11088e-12
2.34021e-12
2.59252e-12
2.86982e-12
3.17432e-12
3.50835e-12
3.8744e-12
4.27513e-12
4.71338e-12
5.19215e-12
5.7146e-12
6.28411e-12
6.9042e-12
7.57859e-12
8.31118e-12
9.10603e-12
9.96737e-12
1.08996e-11
1.19073e-11
1.29951e-11
1.41678e-11
1.54305e-11
1.67879e-11
1.82453e-11
1.98078e-11
2.14804e-11
2.32682e-11
2.51763e-11
2.72094e-11
2.93725e-11
3.167e-11
3.41061e-11
3.6685e-11
3.94101e-11
4.22847e-11
4.53115e-11
4.84926e-11
5.18296e-11
5.53233e-11
5.89739e-11
6.27806e-11
6.6742e-11
7.08555e-11
7.51177e-11
7.95242e-11
8.40696e-11
8.87471e-11
9.35492e-11
9.8467e-11
1.03491e-10
1.08609e-10
1.1381e-10
1.1908e-10
1.24405e-10
1.2977e-10
1.35159e-10
1.40554e-10
1.45938e-10
1.51293e-10
1.566e-10
1.61839e-10
1.66992e-10
1.72038e-10
1.76958e-10
1.81734e-10
1.86344e-10
1.90773e-10
1.95001e-10
1.99012e-10
2.02789e-10
2.06319e-10
2.09586e-10
2.1258e-10
2.15288e-10
2.17702e-10
2.19813e-10
2.21616e-10
2.23106e-10
2.24279e-10
2.25136e-10
2.25675e-10
2.259e-10
2.25814e-10
2.25422e-10
2.24731e-10
2.23748e-10
2.22482e-10
2.20943e-10
2.19143e-10
2.17094e-10
2.14807e-10
2.12296e-10
2.09575e-10
2.06658e-10
2.03558e-10
2.00289e-10
1.96866e-10
1.93302e-10
1.89611e-10
1.85806e-10
1.819e-10
1.77906e-10
1.73833e-10
1.69695e-10
1.65501e-10
1.61261e-10
1.56984e-10
1.52678e-10
1.48352e-10
1.44012e-10
1.39664e-10
1.35315e-10
1.30969e-10
1.26632e-10
1.22308e-10
1.18001e-10
1.13713e-10
1.09449e-10
1.05212e-10
1.01004e-10
9.68291e-11
9.26894e-11
8.85883e-11
8.45289e-11
8.05145e-11
7.65489e-11
7.26359e-11
6.87799e-11
6.49854e-11
6.12574e-11
5.76013e-11
5.40227e-11
5.05276e-11
4.71222e-11
4.38129e-11
4.06062e-11
3.75084e-11
3.45261e-11
3.16653e-11
2.89318e-11
2.63309e-11
2.38675e-11
2.15455e-11
1.93682e-11
1.7338e-11
1.54562e-11
1.37233e-11
1.21384e-11
1.07e-11
9.40519e-12
8.25018e-12
7.23021e-12
6.33958e-12
5.57179e-12
4.91959e-12
4.37509e-12
3.92985e-12
3.57498e-12
3.30128e-12
3.09927e-12
2.95937e-12
2.87197e-12
2.82755e-12
2.81677e-12
2.83065e-12
2.86063e-12
2.89874e-12
2.93769e-12
2.97101e-12
2.99317e-12
2.99962e-12
2.98689e-12
2.95264e-12
2.89562e-12
2.81565e-12
2.71357e-12
2.59108e-12
2.45068e-12
2.29541e-12
2.12875e-12
1.95441e-12
1.77614e-12
1.59758e-12
1.42208e-12
1.25264e-12
1.09178e-12
9.41497e-13
8.03241e-13
6.77936e-13
5.66006e-13
4.67431e-13
3.81817e-13
3.08467e-13
2.46466e-13
1.9475e-13
1.52178e-13
1.17585e-13
8.98389e-14
6.7868e-14
5.06914e-14
3.74328e-14
2.73274e-14
1.97221e-14
1.407e-14
9.9221e-15
6.91609e-15
4.76483e-15
3.24452e-15
2.18358e-15
1.45257e-15
9.55411e-16
6.21922e-16
4.0172e-16
2.5934e-16
1.70469e-16
1.19132e-16
9.57195e-17
8.18309e-14
8.30809e-14
8.56458e-14
8.9558e-14
9.48691e-14
1.01649e-13
1.09987e-13
1.19994e-13
1.318e-13
1.45559e-13
1.6145e-13
1.7968e-13
2.0048e-13
2.24118e-13
2.50891e-13
2.81135e-13
3.15226e-13
3.53584e-13
3.96676e-13
4.45022e-13
4.99197e-13
5.59842e-13
6.27661e-13
7.03435e-13
7.88023e-13
8.82372e-13
9.87524e-13
1.10462e-12
1.23492e-12
1.37979e-12
1.54074e-12
1.7194e-12
1.91758e-12
2.13721e-12
2.38043e-12
2.64954e-12
2.94703e-12
3.27562e-12
3.63823e-12
4.03802e-12
4.4784e-12
4.96303e-12
5.49584e-12
6.08104e-12
6.72315e-12
7.42696e-12
8.1976e-12
9.04052e-12
9.96148e-12
1.09666e-11
1.20623e-11
1.32553e-11
1.45528e-11
1.59622e-11
1.74912e-11
1.91479e-11
2.09407e-11
2.2878e-11
2.49688e-11
2.72221e-11
2.9647e-11
3.2253e-11
3.50493e-11
3.80454e-11
4.12505e-11
4.46739e-11
4.83244e-11
5.22109e-11
5.63415e-11
6.07241e-11
6.53657e-11
7.02729e-11
7.54513e-11
8.09055e-11
8.66392e-11
9.26547e-11
9.89531e-11
1.05534e-10
1.12396e-10
1.19534e-10
1.26944e-10
1.34619e-10
1.42548e-10
1.50721e-10
1.59124e-10
1.67741e-10
1.76555e-10
1.85546e-10
1.94691e-10
2.03966e-10
2.13346e-10
2.228e-10
2.32301e-10
2.41814e-10
2.51308e-10
2.60748e-10
2.70098e-10
2.7932e-10
2.88379e-10
2.97237e-10
3.05856e-10
3.14199e-10
3.22229e-10
3.29912e-10
3.37212e-10
3.44098e-10
3.50538e-10
3.56503e-10
3.61968e-10
3.66908e-10
3.71304e-10
3.75136e-10
3.78392e-10
3.81059e-10
3.8313e-10
3.84601e-10
3.8547e-10
3.8574e-10
3.85418e-10
3.84511e-10
3.83032e-10
3.80996e-10
3.78421e-10
3.75326e-10
3.71734e-10
3.67669e-10
3.63157e-10
3.58225e-10
3.52902e-10
3.47216e-10
3.41198e-10
3.34877e-10
3.28283e-10
3.21446e-10
3.14396e-10
3.0716e-10
2.99767e-10
2.92243e-10
2.84614e-10
2.76904e-10
2.69136e-10
2.61331e-10
2.5351e-10
2.4569e-10
2.37888e-10
2.3012e-10
2.22399e-10
2.14738e-10
2.07148e-10
1.99637e-10
1.92216e-10
1.8489e-10
1.77666e-10
1.70549e-10
1.63544e-10
1.56653e-10
1.49881e-10
1.43229e-10
1.36699e-10
1.30295e-10
1.24016e-10
1.17866e-10
1.11845e-10
1.05956e-10
1.00201e-10
9.45813e-11
8.91005e-11
8.37612e-11
7.85669e-11
7.35212e-11
6.86282e-11
6.38922e-11
5.93178e-11
5.49096e-11
5.06726e-11
4.66114e-11
4.27306e-11
3.90346e-11
3.55273e-11
3.2212e-11
2.90914e-11
2.61675e-11
2.34413e-11
2.09128e-11
1.8581e-11
1.64437e-11
1.44979e-11
1.27391e-11
1.11618e-11
9.75977e-12
8.52539e-12
7.45038e-12
6.5256e-12
5.74123e-12
5.08688e-12
4.55167e-12
4.12439e-12
3.79357e-12
3.54762e-12
3.37494e-12
3.26402e-12
3.20357e-12
3.18265e-12
3.19075e-12
3.21797e-12
3.25513e-12
3.2939e-12
3.3269e-12
3.34784e-12
3.3516e-12
3.33428e-12
3.29324e-12
3.2271e-12
3.13567e-12
3.0199e-12
2.88171e-12
2.72386e-12
2.54978e-12
2.36332e-12
2.1686e-12
1.96978e-12
1.77087e-12
1.57558e-12
1.38722e-12
1.20855e-12
1.04175e-12
8.88412e-13
7.49528e-13
6.25544e-13
5.16414e-13
4.21682e-13
3.40561e-13
2.72023e-13
2.14879e-13
1.67857e-13
1.29664e-13
9.90407e-14
7.48001e-14
5.58553e-14
4.12363e-14
3.00973e-14
2.17164e-14
1.54896e-14
1.0921e-14
7.61096e-15
5.24263e-15
3.56926e-15
2.40174e-15
1.59745e-15
1.05055e-15
6.83754e-16
4.41598e-16
2.85046e-16
1.87341e-16
1.30906e-16
1.0517e-16
1.54585e-13
1.56958e-13
1.61825e-13
1.69249e-13
1.79329e-13
1.92199e-13
2.08029e-13
2.2703e-13
2.49453e-13
2.75594e-13
3.05795e-13
3.40449e-13
3.80005e-13
4.24972e-13
4.75922e-13
5.335e-13
5.98429e-13
6.71513e-13
7.53652e-13
8.45844e-13
9.492e-13
1.06495e-12
1.19444e-12
1.3392e-12
1.50086e-12
1.68126e-12
1.8824e-12
2.10649e-12
2.35596e-12
2.63345e-12
2.94187e-12
3.28439e-12
3.66448e-12
4.0859e-12
4.55276e-12
5.06953e-12
5.64103e-12
6.27251e-12
6.96963e-12
7.7385e-12
8.58573e-12
9.51838e-12
1.05441e-11
1.16709e-11
1.29077e-11
1.42637e-11
1.57488e-11
1.73734e-11
1.91488e-11
2.10867e-11
2.31995e-11
2.55002e-11
2.80025e-11
3.07206e-11
3.36694e-11
3.68642e-11
4.0321e-11
4.40561e-11
4.80862e-11
5.24285e-11
5.71003e-11
6.2119e-11
6.75021e-11
7.32671e-11
7.94311e-11
8.60108e-11
9.30227e-11
1.00482e-10
1.08403e-10
1.168e-10
1.25685e-10
1.35068e-10
1.44957e-10
1.55361e-10
1.66282e-10
1.77722e-10
1.89681e-10
2.02155e-10
2.15137e-10
2.28614e-10
2.42575e-10
2.56998e-10
2.71864e-10
2.87145e-10
3.02811e-10
3.18826e-10
3.35152e-10
3.51746e-10
3.6856e-10
3.85542e-10
4.02638e-10
4.19788e-10
4.36931e-10
4.54001e-10
4.70932e-10
4.87655e-10
5.04097e-10
5.20188e-10
5.35855e-10
5.51026e-10
5.6563e-10
5.79598e-10
5.92862e-10
6.05357e-10
6.17022e-10
6.278e-10
6.37637e-10
6.46487e-10
6.54307e-10
6.6106e-10
6.66718e-10
6.71257e-10
6.7466e-10
6.76918e-10
6.78029e-10
6.77996e-10
6.76831e-10
6.74552e-10
6.71183e-10
6.66753e-10
6.61299e-10
6.54861e-10
6.47484e-10
6.39219e-10
6.30117e-10
6.20235e-10
6.09632e-10
5.98366e-10
5.865e-10
5.74094e-10
5.61211e-10
5.47911e-10
5.34255e-10
5.20302e-10
5.06108e-10
4.91728e-10
4.77215e-10
4.62617e-10
4.47982e-10
4.33352e-10
4.18769e-10
4.04268e-10
3.89883e-10
3.75645e-10
3.6158e-10
3.47713e-10
3.34064e-10
3.20651e-10
3.07489e-10
2.94591e-10
2.81967e-10
2.69625e-10
2.57571e-10
2.45809e-10
2.34342e-10
2.23172e-10
2.12298e-10
2.01721e-10
1.91438e-10
1.81447e-10
1.71748e-10
1.62336e-10
1.53211e-10
1.44368e-10
1.35807e-10
1.27526e-10
1.19522e-10
1.11795e-10
1.04344e-10
9.71688e-11
9.02701e-11
8.36482e-11
7.7304e-11
7.12386e-11
6.54533e-11
5.99494e-11
5.47277e-11
4.97893e-11
4.51343e-11
4.07626e-11
3.66731e-11
3.2864e-11
2.93326e-11
2.60749e-11
2.30861e-11
2.03599e-11
1.78892e-11
1.56655e-11
1.36792e-11
1.19198e-11
1.03759e-11
9.03497e-12
7.88407e-12
6.90952e-12
6.0972e-12
5.43269e-12
4.90133e-12
4.48839e-12
4.1792e-12
3.95923e-12
3.81428e-12
3.73051e-12
3.69463e-12
3.69404e-12
3.7169e-12
3.75232e-12
3.79048e-12
3.82273e-12
3.84173e-12
3.84154e-12
3.81764e-12
3.767e-12
3.68803e-12
3.58055e-12
3.44564e-12
3.28553e-12
3.10337e-12
2.90307e-12
2.68905e-12
2.46597e-12
2.23856e-12
2.01136e-12
1.78858e-12
1.57393e-12
1.37051e-12
1.18079e-12
1.00652e-12
8.48788e-13
7.08079e-13
5.84308e-13
4.76931e-13
3.85034e-13
3.07433e-13
2.42765e-13
1.89576e-13
1.46394e-13
1.11785e-13
8.43998e-14
6.30057e-14
4.65025e-14
3.39321e-14
2.44772e-14
1.74546e-14
1.23037e-14
8.5727e-15
5.90387e-15
4.01865e-15
2.70363e-15
1.79792e-15
1.18219e-15
7.69306e-16
4.96773e-16
3.20611e-16
2.10682e-16
1.47195e-16
1.18244e-16
2.88908e-13
2.93364e-13
3.02505e-13
3.16447e-13
3.35378e-13
3.59551e-13
3.89292e-13
4.24997e-13
4.67143e-13
5.1629e-13
5.73087e-13
6.38281e-13
7.12722e-13
7.97376e-13
8.93331e-13
1.00181e-12
1.12419e-12
1.262e-12
1.41695e-12
1.59094e-12
1.78608e-12
2.00472e-12
2.24945e-12
2.52312e-12
2.82891e-12
3.1703e-12
3.55111e-12
3.97558e-12
4.44833e-12
4.97442e-12
5.55942e-12
6.20939e-12
6.93096e-12
7.73136e-12
8.61845e-12
9.60076e-12
1.06876e-11
1.1889e-11
1.32157e-11
1.46796e-11
1.62933e-11
1.80703e-11
2.00252e-11
2.21737e-11
2.45325e-11
2.71193e-11
2.99532e-11
3.30542e-11
3.64436e-11
4.0144e-11
4.4179e-11
4.85736e-11
5.33537e-11
5.85464e-11
6.41801e-11
7.0284e-11
7.68881e-11
8.40234e-11
9.17215e-11
1.00015e-10
1.08935e-10
1.18516e-10
1.28789e-10
1.39786e-10
1.5154e-10
1.64081e-10
1.77438e-10
1.91639e-10
2.06709e-10
2.22672e-10
2.39547e-10
2.57352e-10
2.76099e-10
2.95798e-10
3.16452e-10
3.38061e-10
3.60616e-10
3.84106e-10
4.0851e-10
4.33801e-10
4.59945e-10
4.86901e-10
5.14619e-10
5.4304e-10
5.721e-10
6.01723e-10
6.31828e-10
6.62323e-10
6.93111e-10
7.24086e-10
7.55136e-10
7.86142e-10
8.1698e-10
8.47521e-10
8.77632e-10
9.07178e-10
9.3602e-10
9.64021e-10
9.91044e-10
1.01695e-09
1.04161e-09
1.0649e-09
1.08669e-09
1.10686e-09
1.12531e-09
1.14195e-09
1.15668e-09
1.16942e-09
1.18012e-09
1.18872e-09
1.19518e-09
1.19948e-09
1.2016e-09
1.20155e-09
1.19935e-09
1.19502e-09
1.18861e-09
1.18017e-09
1.16978e-09
1.1575e-09
1.14342e-09
1.12765e-09
1.11028e-09
1.09142e-09
1.07119e-09
1.04972e-09
1.02711e-09
1.0035e-09
9.79006e-10
9.53753e-10
9.27862e-10
9.01452e-10
8.74638e-10
8.47528e-10
8.2023e-10
7.92843e-10
7.65459e-10
7.38167e-10
7.11047e-10
6.84173e-10
6.5761e-10
6.3142e-10
6.05656e-10
5.80362e-10
5.55581e-10
5.31345e-10
5.07682e-10
4.84617e-10
4.62164e-10
4.40339e-10
4.19149e-10
3.986e-10
3.78692e-10
3.59424e-10
3.40791e-10
3.22788e-10
3.05407e-10
2.88637e-10
2.72468e-10
2.56888e-10
2.41885e-10
2.27448e-10
2.13564e-10
2.0022e-10
1.87406e-10
1.7511e-10
1.63321e-10
1.5203e-10
1.41228e-10
1.30906e-10
1.21057e-10
1.11674e-10
1.0275e-10
9.42787e-11
8.62554e-11
7.86743e-11
7.15297e-11
6.4816e-11
5.85271e-11
5.26564e-11
4.71967e-11
4.21398e-11
3.74766e-11
3.31971e-11
2.92899e-11
2.57428e-11
2.25421e-11
1.96733e-11
1.71206e-11
1.48675e-11
1.28965e-11
1.11894e-11
9.7275e-12
8.49168e-12
7.46257e-12
6.62068e-12
5.94656e-12
5.42095e-12
5.02487e-12
4.73981e-12
4.54779e-12
4.43155e-12
4.37462e-12
4.36148e-12
4.37773e-12
4.41016e-12
4.44694e-12
4.47773e-12
4.49377e-12
4.48801e-12
4.45513e-12
4.39157e-12
4.29547e-12
4.16663e-12
4.00633e-12
3.81718e-12
3.60287e-12
3.36795e-12
3.11754e-12
2.85706e-12
2.59196e-12
2.32749e-12
2.06851e-12
1.81925e-12
1.58329e-12
1.36341e-12
1.16161e-12
9.79109e-13
8.16422e-13
6.73417e-13
5.49432e-13
4.43385e-13
3.53885e-13
2.79341e-13
2.1806e-13
1.68331e-13
1.28493e-13
9.69844e-14
7.23782e-14
5.34045e-14
3.89576e-14
2.80949e-14
2.00293e-14
1.41152e-14
9.83258e-15
6.77005e-15
4.60727e-15
3.09902e-15
2.06047e-15
1.35457e-15
8.81335e-16
5.69019e-16
3.67177e-16
2.41243e-16
1.6852e-16
1.3536e-16
5.32549e-13
5.40808e-13
5.57742e-13
5.83574e-13
6.18652e-13
6.63451e-13
7.18576e-13
7.84772e-13
8.6293e-13
9.54096e-13
1.05949e-12
1.1805e-12
1.31872e-12
1.47597e-12
1.65428e-12
1.85595e-12
2.08355e-12
2.33996e-12
2.62839e-12
2.95241e-12
3.31599e-12
3.72353e-12
4.17991e-12
4.69053e-12
5.26133e-12
5.89889e-12
6.61043e-12
7.4039e-12
8.28805e-12
9.27244e-12
1.03676e-11
1.15849e-11
1.2937e-11
1.44374e-11
1.61012e-11
1.79444e-11
1.99845e-11
2.22407e-11
2.47334e-11
2.74849e-11
3.05191e-11
3.38617e-11
3.75405e-11
4.15849e-11
4.60266e-11
5.08994e-11
5.62391e-11
6.20839e-11
6.84741e-11
7.54522e-11
8.3063e-11
9.13536e-11
1.00373e-10
1.10172e-10
1.20805e-10
1.32326e-10
1.44791e-10
1.58259e-10
1.72789e-10
1.88441e-10
2.05275e-10
2.23351e-10
2.42729e-10
2.63469e-10
2.85628e-10
3.09261e-10
3.34422e-10
3.61157e-10
3.89514e-10
4.1953e-10
4.5124e-10
4.84669e-10
5.19838e-10
5.56754e-10
5.9542e-10
6.35825e-10
6.77946e-10
7.2175e-10
7.6719e-10
8.14204e-10
8.62717e-10
9.12639e-10
9.63863e-10
1.01627e-09
1.06972e-09
1.12406e-09
1.17912e-09
1.23472e-09
1.29066e-09
1.34674e-09
1.40272e-09
1.45837e-09
1.51346e-09
1.56772e-09
1.62091e-09
1.67275e-09
1.723e-09
1.77139e-09
1.81765e-09
1.86155e-09
1.90284e-09
1.94128e-09
1.97666e-09
2.00878e-09
2.03745e-09
2.06251e-09
2.08381e-09
2.10125e-09
2.11472e-09
2.12416e-09
2.12953e-09
2.13082e-09
2.12803e-09
2.12122e-09
2.11045e-09
2.09581e-09
2.07742e-09
2.05542e-09
2.02997e-09
2.00124e-09
1.96943e-09
1.93476e-09
1.89744e-09
1.8577e-09
1.81578e-09
1.77192e-09
1.72636e-09
1.67935e-09
1.63113e-09
1.58193e-09
1.53198e-09
1.4815e-09
1.4307e-09
1.37979e-09
1.32894e-09
1.27833e-09
1.22813e-09
1.17848e-09
1.12952e-09
1.08136e-09
1.03411e-09
9.87864e-10
9.42696e-10
8.98674e-10
8.55851e-10
8.1427e-10
7.73963e-10
7.34952e-10
6.97249e-10
6.6086e-10
6.25784e-10
5.9201e-10
5.59527e-10
5.28314e-10
4.98348e-10
4.69605e-10
4.42055e-10
4.15669e-10
3.90413e-10
3.66256e-10
3.43163e-10
3.21104e-10
3.00043e-10
2.79951e-10
2.60795e-10
2.42546e-10
2.25176e-10
2.08658e-10
1.92966e-10
1.78075e-10
1.63965e-10
1.50612e-10
1.37996e-10
1.261e-10
1.14904e-10
1.04391e-10
9.45435e-11
8.53446e-11
7.67772e-11
6.88242e-11
6.14677e-11
5.46895e-11
4.84703e-11
4.27903e-11
3.76283e-11
3.29625e-11
2.877e-11
2.50268e-11
2.17082e-11
1.87889e-11
1.62428e-11
1.40435e-11
1.21643e-11
1.05783e-11
9.25895e-12
8.17974e-12
7.31467e-12
6.63827e-12
6.12578e-12
5.75328e-12
5.49779e-12
5.33743e-12
5.25152e-12
5.22073e-12
5.22723e-12
5.25479e-12
5.28894e-12
5.31713e-12
5.32878e-12
5.31538e-12
5.27057e-12
5.19009e-12
5.07175e-12
4.91532e-12
4.72232e-12
4.49585e-12
4.24028e-12
3.96099e-12
3.66399e-12
3.35566e-12
3.04239e-12
2.73033e-12
2.42511e-12
2.13169e-12
1.85421e-12
1.59587e-12
1.35899e-12
1.14493e-12
9.54247e-13
7.8675e-13
6.41624e-13
5.1757e-13
4.12931e-13
3.25825e-13
2.54254e-13
1.96203e-13
1.49718e-13
1.12968e-13
8.42807e-14
6.21685e-14
4.53379e-14
3.26874e-14
2.32974e-14
1.64142e-14
1.14314e-14
7.86915e-15
5.35413e-15
3.60065e-15
2.39353e-15
1.57325e-15
1.02344e-15
6.60655e-16
4.26238e-16
2.80001e-16
1.95564e-16
1.57066e-16
9.67526e-13
9.82616e-13
1.01355e-12
1.06074e-12
1.12482e-12
1.20668e-12
1.30742e-12
1.42842e-12
1.57132e-12
1.73806e-12
1.93088e-12
2.15235e-12
2.40543e-12
2.69344e-12
3.02016e-12
3.38984e-12
3.80724e-12
4.27769e-12
4.80712e-12
5.40217e-12
6.07018e-12
6.81933e-12
7.65867e-12
8.59822e-12
9.64903e-12
1.08233e-11
1.21345e-11
1.35975e-11
1.52284e-11
1.70451e-11
1.90672e-11
2.13161e-11
2.38151e-11
2.65898e-11
2.96678e-11
3.30795e-11
3.68575e-11
4.10374e-11
4.56578e-11
5.076e-11
5.63889e-11
6.25926e-11
6.94229e-11
7.69351e-11
8.51885e-11
9.42462e-11
1.04175e-10
1.15047e-10
1.26937e-10
1.39925e-10
1.54094e-10
1.69533e-10
1.86332e-10
2.04588e-10
2.24399e-10
2.45868e-10
2.691e-10
2.94202e-10
3.21284e-10
3.50456e-10
3.81831e-10
4.15518e-10
4.51627e-10
4.90266e-10
5.31539e-10
5.75546e-10
6.22379e-10
6.72126e-10
7.24863e-10
7.80658e-10
8.39564e-10
9.01623e-10
9.66861e-10
1.03528e-09
1.10688e-09
1.18162e-09
1.25945e-09
1.34028e-09
1.42402e-09
1.51053e-09
1.59966e-09
1.6912e-09
1.78496e-09
1.88068e-09
1.97807e-09
2.07685e-09
2.17666e-09
2.27716e-09
2.37794e-09
2.4786e-09
2.5787e-09
2.67779e-09
2.77541e-09
2.87107e-09
2.96428e-09
3.05456e-09
3.14141e-09
3.22435e-09
3.30291e-09
3.37662e-09
3.44506e-09
3.50781e-09
3.56449e-09
3.61475e-09
3.65828e-09
3.69482e-09
3.72415e-09
3.74609e-09
3.76052e-09
3.76738e-09
3.76664e-09
3.75835e-09
3.74258e-09
3.71948e-09
3.68923e-09
3.65207e-09
3.60827e-09
3.55815e-09
3.50206e-09
3.44039e-09
3.37355e-09
3.30197e-09
3.2261e-09
3.14639e-09
3.06333e-09
2.97738e-09
2.889e-09
2.79867e-09
2.70682e-09
2.6139e-09
2.52032e-09
2.42648e-09
2.33276e-09
2.23951e-09
2.14704e-09
2.05566e-09
1.96564e-09
1.87721e-09
1.79058e-09
1.70595e-09
1.62346e-09
1.54325e-09
1.46543e-09
1.39008e-09
1.31726e-09
1.24701e-09
1.17936e-09
1.11431e-09
1.05185e-09
9.91967e-10
9.3462e-10
8.79768e-10
8.27358e-10
7.77331e-10
7.29624e-10
6.84166e-10
6.40887e-10
5.99712e-10
5.60566e-10
5.23373e-10
4.88059e-10
4.54549e-10
4.22772e-10
3.92658e-10
3.64139e-10
3.3715e-10
3.11629e-10
2.87518e-10
2.64761e-10
2.43305e-10
2.23101e-10
2.04101e-10
1.8626e-10
1.69537e-10
1.53892e-10
1.39285e-10
1.2568e-10
1.13041e-10
1.01333e-10
9.05207e-11
8.05698e-11
7.14456e-11
6.31132e-11
5.55374e-11
4.86825e-11
4.25119e-11
3.6989e-11
3.20762e-11
2.77359e-11
2.39299e-11
2.062e-11
1.77683e-11
1.53368e-11
1.32882e-11
1.15857e-11
1.01935e-11
9.07669e-12
8.20141e-12
7.53519e-12
7.04694e-12
6.70706e-12
6.48761e-12
6.36241e-12
6.30715e-12
6.29956e-12
6.31951e-12
6.34916e-12
6.37308e-12
6.37835e-12
6.35463e-12
6.29422e-12
6.19197e-12
6.04525e-12
5.85379e-12
5.61942e-12
5.34586e-12
5.03833e-12
4.70322e-12
4.34769e-12
3.97929e-12
3.6056e-12
3.23385e-12
2.87071e-12
2.522e-12
2.19255e-12
1.88612e-12
1.60536e-12
1.35186e-12
1.1262e-12
9.28117e-13
7.56595e-13
6.10064e-13
4.86536e-13
3.8376e-13
2.99355e-13
2.30926e-13
1.76157e-13
1.32875e-13
9.91021e-14
7.308e-14
5.32806e-14
3.84037e-14
2.73646e-14
1.92752e-14
1.34208e-14
9.23658e-15
6.28321e-15
4.22463e-15
2.8078e-15
1.84522e-15
1.20016e-15
7.74606e-16
4.99677e-16
3.28192e-16
2.29188e-16
1.84052e-16
1.73227e-12
1.75945e-12
1.81516e-12
1.90014e-12
2.01555e-12
2.16299e-12
2.3445e-12
2.56255e-12
2.82015e-12
3.1208e-12
3.46859e-12
3.86821e-12
4.32503e-12
4.84513e-12
5.43538e-12
6.10354e-12
6.85828e-12
7.70934e-12
8.66757e-12
9.74508e-12
1.09553e-11
1.23132e-11
1.38354e-11
1.55402e-11
1.74478e-11
1.95807e-11
2.19636e-11
2.46236e-11
2.75905e-11
3.08973e-11
3.45797e-11
3.86773e-11
4.3233e-11
4.82937e-11
5.39106e-11
6.01395e-11
6.70407e-11
7.46798e-11
8.31279e-11
9.24615e-11
1.02763e-10
1.14123e-10
1.26634e-10
1.40401e-10
1.55533e-10
1.72146e-10
1.90365e-10
2.1032e-10
2.32153e-10
2.56009e-10
2.82043e-10
3.10418e-10
3.41303e-10
3.74873e-10
4.11312e-10
4.50808e-10
4.93554e-10
5.39748e-10
5.8959e-10
6.43283e-10
7.0103e-10
7.63033e-10
8.29491e-10
9.00599e-10
9.76543e-10
1.0575e-09
1.14364e-09
1.23511e-09
1.33204e-09
1.43454e-09
1.54272e-09
1.65661e-09
1.77627e-09
1.90167e-09
2.03279e-09
2.16954e-09
2.3118e-09
2.45939e-09
2.61211e-09
2.76966e-09
2.93174e-09
3.09796e-09
3.26789e-09
3.44104e-09
3.61686e-09
3.79475e-09
3.97406e-09
4.15409e-09
4.33408e-09
4.51325e-09
4.69077e-09
4.86578e-09
5.03739e-09
5.2047e-09
5.3668e-09
5.52278e-09
5.67173e-09
5.81278e-09
5.94505e-09
6.06773e-09
6.18005e-09
6.28128e-09
6.37076e-09
6.44791e-09
6.51222e-09
6.56327e-09
6.60074e-09
6.62439e-09
6.63408e-09
6.62977e-09
6.61154e-09
6.57956e-09
6.53407e-09
6.47544e-09
6.40412e-09
6.32064e-09
6.2256e-09
6.11968e-09
6.00361e-09
5.87818e-09
5.74422e-09
5.6026e-09
5.45418e-09
5.29987e-09
5.14056e-09
4.97715e-09
4.81051e-09
4.64149e-09
4.47092e-09
4.29958e-09
4.12822e-09
3.95755e-09
3.7882e-09
3.62078e-09
3.45583e-09
3.29384e-09
3.13524e-09
2.9804e-09
2.82966e-09
2.68327e-09
2.54147e-09
2.40442e-09
2.27225e-09
2.14505e-09
2.02287e-09
1.90572e-09
1.79359e-09
1.68642e-09
1.58416e-09
1.48671e-09
1.39396e-09
1.3058e-09
1.22208e-09
1.14266e-09
1.0674e-09
9.9613e-10
9.28703e-10
8.64956e-10
8.0473e-10
7.47869e-10
6.9422e-10
6.43631e-10
5.95959e-10
5.51063e-10
5.0881e-10
4.69072e-10
4.31728e-10
3.96661e-10
3.63764e-10
3.32934e-10
3.04073e-10
2.7709e-10
2.51901e-10
2.28422e-10
2.06577e-10
1.86294e-10
1.67502e-10
1.50134e-10
1.34126e-10
1.19415e-10
1.05941e-10
9.36424e-11
8.24612e-11
7.23387e-11
6.32168e-11
5.50378e-11
4.77444e-11
4.12797e-11
3.5587e-11
3.06104e-11
2.62945e-11
2.25852e-11
1.94291e-11
1.67744e-11
1.45708e-11
1.27694e-11
1.13235e-11
1.01883e-11
9.32087e-12
8.68075e-12
8.2297e-12
7.93187e-12
7.75392e-12
7.66515e-12
7.63756e-12
7.64605e-12
7.66844e-12
7.68569e-12
7.68189e-12
7.6444e-12
7.56379e-12
7.43382e-12
7.2513e-12
7.01588e-12
6.72979e-12
6.3975e-12
6.02528e-12
5.62079e-12
5.19259e-12
4.74969e-12
4.3011e-12
3.85546e-12
3.42065e-12
3.00355e-12
2.60986e-12
2.24401e-12
1.90907e-12
1.60687e-12
1.33806e-12
1.10224e-12
8.98173e-13
7.23937e-13
5.77133e-13
4.55053e-13
3.54844e-13
2.73639e-13
2.08672e-13
1.57353e-13
1.17324e-13
8.64927e-14
6.30424e-14
4.54282e-14
3.2362e-14
2.27899e-14
1.58645e-14
1.09161e-14
7.42424e-15
4.99088e-15
3.31648e-15
2.17914e-15
1.41711e-15
9.14495e-16
5.89826e-16
3.87345e-16
2.70459e-16
2.17173e-16
3.05654e-12
3.10481e-12
3.20371e-12
3.35457e-12
3.55949e-12
3.82133e-12
4.14371e-12
4.53112e-12
4.98891e-12
5.52338e-12
6.14187e-12
6.85281e-12
7.66582e-12
8.59184e-12
9.64324e-12
1.08339e-11
1.21796e-11
1.36977e-11
1.54079e-11
1.73318e-11
1.94939e-11
2.19211e-11
2.46434e-11
2.76938e-11
3.1109e-11
3.49297e-11
3.92003e-11
4.39702e-11
4.92935e-11
5.52297e-11
6.1844e-11
6.92078e-11
7.73994e-11
8.65039e-11
9.66146e-11
1.07833e-10
1.20268e-10
1.34041e-10
1.49279e-10
1.66124e-10
1.84725e-10
2.05245e-10
2.27859e-10
2.52752e-10
2.80126e-10
3.10193e-10
3.43179e-10
3.79327e-10
4.18889e-10
4.62136e-10
5.09348e-10
5.60823e-10
6.16869e-10
6.77807e-10
7.43971e-10
8.15703e-10
8.93357e-10
9.7729e-10
1.06787e-09
1.16546e-09
1.27043e-09
1.38314e-09
1.50395e-09
1.63322e-09
1.77127e-09
1.91841e-09
2.07495e-09
2.24115e-09
2.41722e-09
2.60337e-09
2.79973e-09
3.00638e-09
3.22338e-09
3.45067e-09
3.68815e-09
3.93565e-09
4.19289e-09
4.45954e-09
4.73514e-09
5.01915e-09
5.31093e-09
5.60974e-09
5.91474e-09
6.22497e-09
6.53938e-09
6.85683e-09
7.17606e-09
7.49575e-09
7.81447e-09
8.13073e-09
8.44297e-09
8.74959e-09
9.04894e-09
9.33935e-09
9.61914e-09
9.88664e-09
1.01402e-08
1.03783e-08
1.05992e-08
1.08017e-08
1.09842e-08
1.11457e-08
1.12848e-08
1.14008e-08
1.14927e-08
1.15599e-08
1.1602e-08
1.16186e-08
1.16097e-08
1.15754e-08
1.15159e-08
1.14317e-08
1.13235e-08
1.11921e-08
1.10384e-08
1.08637e-08
1.06691e-08
1.0456e-08
1.02259e-08
9.98043e-09
9.72111e-09
9.44963e-09
9.16767e-09
8.87692e-09
8.57906e-09
8.27573e-09
7.96854e-09
7.65903e-09
7.34867e-09
7.03885e-09
6.73088e-09
6.42596e-09
6.12519e-09
5.82957e-09
5.53998e-09
5.25721e-09
4.98193e-09
4.71471e-09
4.45601e-09
4.20622e-09
3.96561e-09
3.73438e-09
3.51265e-09
3.30046e-09
3.09781e-09
2.90462e-09