/*--------------------------------*- C++ -*----------------------------------*\
| =========                 |                                                 |
| \\      /  F ield         | OpenFOAM: The Open Source CFD Toolbox           |
|  \\    /   O peration     | Version:  v2012                                 |
|   \\  /    A nd           | Website:  www.openfoam.com                      |
|    \\/     M anipulation  |                                                 |
\*---------------------------------------------------------------------------*/
FoamFile
{
    version     2.0;
    format      ascii;
    class       volVectorField;
    location    "70";
    object      Usup;
}
// * * * * * * * * * * * * * * * * * * * * * * * * * * * * * * * * * * * * * //

dimensions      [0 1 -1 0 0 0 0];


internalField   nonuniform List<vector> 
4000
(
(-2.63964e-16 -2.37587e-16 0)
(-6.34165e-16 -5.16202e-17 0)
(-7.25512e-16 3.38195e-17 0)
(-8.56666e-16 1.49778e-16 0)
(-1.11039e-15 2.53026e-16 0)
(-1.38459e-15 -6.16496e-17 0)
(-2.16029e-15 -4.88413e-16 0)
(-3.32483e-15 -1.80248e-17 0)
(-3.76127e-15 5.63779e-16 0)
(-3.19486e-15 8.18416e-16 0)
(-2.83613e-15 2.50089e-16 0)
(-3.60927e-15 6.53549e-17 0)
(-4.68993e-15 3.35467e-16 0)
(-4.97583e-15 8.04289e-16 0)
(-4.41144e-15 1.09932e-15 0)
(-4.22633e-15 7.47771e-16 0)
(-5.09772e-15 4.23618e-16 0)
(-6.05014e-15 7.92102e-16 0)
(-6.17299e-15 1.16873e-15 0)
(-5.31612e-15 1.46193e-15 0)
(-4.49271e-15 1.36505e-15 0)
(-4.01593e-15 1.31563e-15 0)
(-3.25591e-15 1.45425e-15 0)
(-2.69913e-15 1.3718e-15 0)
(-2.30156e-15 1.50845e-15 0)
(-1.39703e-15 1.86968e-15 0)
(-1.04734e-15 1.94426e-15 0)
(-1.69413e-15 1.88121e-15 0)
(-2.34409e-15 1.81941e-15 0)
(-2.46768e-15 1.98371e-15 0)
(-2.01827e-15 2.21679e-15 0)
(-1.38465e-15 2.33866e-15 0)
(-6.06068e-16 2.43895e-15 0)
(2.70103e-16 2.26268e-15 0)
(8.02568e-16 1.99355e-15 0)
(1.31362e-15 1.81533e-15 0)
(1.40329e-15 1.7217e-15 0)
(1.4377e-15 2.1363e-15 0)
(2.30329e-15 1.89733e-15 0)
(3.21081e-15 1.71856e-15 0)
(3.98661e-15 1.36214e-15 0)
(4.23826e-15 9.23321e-16 0)
(3.50969e-15 8.3319e-16 0)
(3.44763e-15 1.35946e-15 0)
(4.01606e-15 1.62753e-15 0)
(4.43984e-15 1.65402e-15 0)
(4.82404e-15 1.18431e-15 0)
(5.57189e-15 1.00491e-15 0)
(6.48553e-15 1.05036e-15 0)
(6.78242e-15 9.26471e-16 0)
(6.71093e-15 7.73018e-16 0)
(6.51415e-15 7.40965e-16 0)
(6.27355e-15 6.34781e-16 0)
(6.27135e-15 4.30947e-16 0)
(6.97683e-15 6.13709e-16 0)
(7.92263e-15 7.40441e-16 0)
(8.92421e-15 7.84652e-16 0)
(9.5084e-15 5.15116e-16 0)
(9.45425e-15 6.93112e-16 0)
(9.22727e-15 5.79568e-16 0)
(9.04644e-15 3.65432e-16 0)
(8.84771e-15 -3.7939e-17 0)
(8.45653e-15 6.9558e-17 0)
(8.28479e-15 2.65066e-16 0)
(8.47938e-15 3.2086e-16 0)
(8.51653e-15 2.74857e-16 0)
(8.34338e-15 2.86258e-16 0)
(8.48507e-15 5.97291e-16 0)
(8.52396e-15 5.8505e-16 0)
(8.00211e-15 2.70163e-16 0)
(7.86729e-15 4.4017e-16 0)
(7.78561e-15 4.33926e-16 0)
(7.46869e-15 8.06148e-16 0)
(7.56833e-15 6.57367e-16 0)
(7.88279e-15 5.0289e-16 0)
(7.90457e-15 3.33314e-16 0)
(7.69068e-15 3.43656e-16 0)
(7.5611e-15 2.52193e-16 0)
(7.39952e-15 4.12124e-16 0)
(7.43313e-15 7.99427e-16 0)
(7.43696e-15 8.82464e-16 0)
(7.42117e-15 9.36066e-16 0)
(7.47429e-15 1.07685e-15 0)
(7.32056e-15 8.1856e-16 0)
(6.53844e-15 4.01197e-16 0)
(5.53821e-15 3.10673e-16 0)
(5.41016e-15 4.11798e-16 0)
(5.40908e-15 1.32215e-16 0)
(5.14366e-15 1.20957e-16 0)
(5.24225e-15 1.14877e-16 0)
(5.37379e-15 -8.72987e-17 0)
(4.97195e-15 -2.83507e-16 0)
(4.25137e-15 -1.22165e-16 0)
(3.60888e-15 -2.63061e-16 0)
(3.04848e-15 -3.83598e-16 0)
(2.54261e-15 -3.01222e-16 0)
(2.32606e-15 -2.69796e-17 0)
(2.12163e-15 -4.99018e-17 0)
(1.4925e-15 2.54504e-16 0)
(5.13325e-16 1.41813e-16 0)
(-3.83949e-16 -4.66942e-16 0)
(-1.26329e-15 -3.90075e-16 0)
(-1.89825e-15 -5.44103e-17 0)
(-2.46256e-15 2.64998e-17 0)
(-3.59665e-15 2.84437e-16 0)
(-4.97689e-15 7.87699e-17 0)
(-6.3497e-15 -5.38936e-16 0)
(-8.1708e-15 9.04873e-17 0)
(-9.46321e-15 1.21961e-15 0)
(-9.56342e-15 1.92331e-15 0)
(-9.5086e-15 1.11571e-15 0)
(-1.05796e-14 3.664e-16 0)
(-1.23714e-14 1.04782e-15 0)
(-1.3134e-14 2.09363e-15 0)
(-1.29397e-14 2.82123e-15 0)
(-1.32744e-14 2.41801e-15 0)
(-1.45254e-14 1.91931e-15 0)
(-1.59047e-14 2.4065e-15 0)
(-1.61578e-14 3.45464e-15 0)
(-1.47158e-14 4.06629e-15 0)
(-1.30053e-14 4.05111e-15 0)
(-1.13693e-14 3.9895e-15 0)
(-9.49708e-15 4.32249e-15 0)
(-7.94998e-15 4.29705e-15 0)
(-6.35339e-15 5.029e-15 0)
(-4.43108e-15 5.65513e-15 0)
(-3.92907e-15 5.36135e-15 0)
(-5.1241e-15 5.36608e-15 0)
(-6.14804e-15 5.61797e-15 0)
(-6.06607e-15 6.25964e-15 0)
(-5.00437e-15 6.8648e-15 0)
(-3.45898e-15 7.00479e-15 0)
(-1.66351e-15 7.22976e-15 0)
(2.46065e-16 6.74415e-15 0)
(1.80331e-15 6.10992e-15 0)
(3.30576e-15 5.71547e-15 0)
(4.34789e-15 5.43445e-15 0)
(4.82131e-15 5.95718e-15 0)
(6.44758e-15 5.51234e-15 0)
(8.58755e-15 4.75734e-15 0)
(1.02629e-14 4.02426e-15 0)
(1.11663e-14 3.10988e-15 0)
(1.08216e-14 3.08109e-15 0)
(1.11442e-14 4.08476e-15 0)
(1.20554e-14 4.57809e-15 0)
(1.2704e-14 4.44195e-15 0)
(1.37674e-14 3.81215e-15 0)
(1.60206e-14 3.58243e-15 0)
(1.81532e-14 3.20102e-15 0)
(1.89141e-14 2.76497e-15 0)
(1.90529e-14 2.27923e-15 0)
(1.88244e-14 2.34469e-15 0)
(1.83949e-14 1.98915e-15 0)
(1.88955e-14 1.59711e-15 0)
(2.08372e-14 1.75148e-15 0)
(2.30239e-14 1.87769e-15 0)
(2.50824e-14 2.02673e-15 0)
(2.66275e-14 1.90246e-15 0)
(2.68611e-14 2.13684e-15 0)
(2.6184e-14 1.60341e-15 0)
(2.55451e-14 8.34933e-16 0)
(2.52659e-14 5.83462e-17 0)
(2.48818e-14 -2.35418e-17 0)
(2.44445e-14 6.46208e-16 0)
(2.45374e-14 1.14166e-15 0)
(2.45422e-14 1.02556e-15 0)
(2.44958e-14 9.3532e-16 0)
(2.465e-14 1.49715e-15 0)
(2.41228e-14 1.30064e-15 0)
(2.32263e-14 8.6226e-16 0)
(2.30194e-14 1.23396e-15 0)
(2.28606e-14 1.21128e-15 0)
(2.21401e-14 1.79562e-15 0)
(2.1894e-14 1.90438e-15 0)
(2.24215e-14 1.79586e-15 0)
(2.25661e-14 1.38307e-15 0)
(2.2183e-14 1.14442e-15 0)
(2.19447e-14 9.85037e-16 0)
(2.19242e-14 1.44158e-15 0)
(2.18348e-14 2.45287e-15 0)
(2.15258e-14 2.77648e-15 0)
(2.14511e-14 2.8224e-15 0)
(2.11293e-14 2.60332e-15 0)
(2.01063e-14 2.00703e-15 0)
(1.84068e-14 1.32636e-15 0)
(1.66007e-14 1.09565e-15 0)
(1.58164e-14 1.3157e-15 0)
(1.54533e-14 8.46746e-16 0)
(1.50299e-14 6.78917e-16 0)
(1.4867e-14 2.93306e-16 0)
(1.46882e-14 -2.81454e-16 0)
(1.38751e-14 -8.31398e-16 0)
(1.21413e-14 -6.72138e-16 0)
(1.02117e-14 -8.61252e-16 0)
(8.80623e-15 -9.53193e-16 0)
(7.68345e-15 -7.36903e-16 0)
(6.7023e-15 -3.78065e-16 0)
(5.78795e-15 -1.50369e-16 0)
(3.95694e-15 4.87555e-16 0)
(1.1146e-15 2.30224e-16 0)
(-6.06918e-16 -3.99514e-16 0)
(-1.7806e-15 -5.79507e-16 0)
(-2.95541e-15 -3.2389e-16 0)
(-4.13185e-15 -5.81839e-16 0)
(-5.76105e-15 -2.2245e-16 0)
(-8.11455e-15 1.19527e-16 0)
(-1.03745e-14 3.97484e-16 0)
(-1.26199e-14 7.0302e-16 0)
(-1.43158e-14 1.77908e-15 0)
(-1.52088e-14 2.35265e-15 0)
(-1.61602e-14 1.80171e-15 0)
(-1.73899e-14 9.07461e-16 0)
(-1.9091e-14 1.61631e-15 0)
(-2.02732e-14 2.98384e-15 0)
(-2.06491e-14 4.20254e-15 0)
(-2.16341e-14 4.42962e-15 0)
(-2.32734e-14 4.28083e-15 0)
(-2.44971e-14 4.33118e-15 0)
(-2.45837e-14 5.66225e-15 0)
(-2.29886e-14 6.70703e-15 0)
(-2.06961e-14 6.80748e-15 0)
(-1.81228e-14 6.80201e-15 0)
(-1.52871e-14 7.09993e-15 0)
(-1.25891e-14 7.32972e-15 0)
(-1.00566e-14 8.25409e-15 0)
(-8.09809e-15 9.09152e-15 0)
(-7.34257e-15 8.71129e-15 0)
(-8.08127e-15 9.00734e-15 0)
(-8.92328e-15 1.00058e-14 0)
(-8.64121e-15 1.09784e-14 0)
(-7.37292e-15 1.1727e-14 0)
(-5.18261e-15 1.16544e-14 0)
(-2.62752e-15 1.17193e-14 0)
(-3.23467e-17 1.12258e-14 0)
(2.51873e-15 1.03974e-14 0)
(4.95285e-15 9.97588e-15 0)
(6.88445e-15 9.26294e-15 0)
(8.03098e-15 8.93627e-15 0)
(1.0103e-14 8.49395e-15 0)
(1.31292e-14 7.77819e-15 0)
(1.57283e-14 7.30056e-15 0)
(1.74417e-14 6.39854e-15 0)
(1.79393e-14 5.93876e-15 0)
(1.86722e-14 6.58045e-15 0)
(1.96841e-14 6.65262e-15 0)
(2.07329e-14 6.62378e-15 0)
(2.26459e-14 6.67285e-15 0)
(2.55926e-14 6.61438e-15 0)
(2.83965e-14 5.30242e-15 0)
(2.97993e-14 4.36707e-15 0)
(3.05284e-14 3.86881e-15 0)
(3.05061e-14 4.01778e-15 0)
(3.0034e-14 3.48634e-15 0)
(3.10928e-14 3.46959e-15 0)
(3.39389e-14 3.40313e-15 0)
(3.72035e-14 3.09857e-15 0)
(4.03281e-14 3.01687e-15 0)
(4.25046e-14 3.28942e-15 0)
(4.25851e-14 3.1402e-15 0)
(4.14535e-14 2.23363e-15 0)
(4.07147e-14 1.24239e-15 0)
(4.0491e-14 6.51871e-16 0)
(4.04718e-14 1.71104e-16 0)
(4.03327e-14 7.9442e-16 0)
(3.99929e-14 1.5488e-15 0)
(3.95588e-14 1.56684e-15 0)
(3.96599e-14 1.66628e-15 0)
(3.96926e-14 2.03584e-15 0)
(3.87452e-14 1.85417e-15 0)
(3.78275e-14 1.70189e-15 0)
(3.74448e-14 2.05701e-15 0)
(3.70844e-14 2.04197e-15 0)
(3.63783e-14 2.57363e-15 0)
(3.59767e-14 3.34036e-15 0)
(3.61876e-14 3.14147e-15 0)
(3.60755e-14 2.58987e-15 0)
(3.56681e-14 2.25633e-15 0)
(3.56528e-14 2.28347e-15 0)
(3.59686e-14 2.90563e-15 0)
(3.57163e-14 3.86955e-15 0)
(3.48182e-14 4.30415e-15 0)
(3.41363e-14 4.46667e-15 0)
(3.33199e-14 3.90031e-15 0)
(3.19027e-14 3.1243e-15 0)
(2.9596e-14 2.29175e-15 0)
(2.72557e-14 1.9122e-15 0)
(2.58907e-14 1.77494e-15 0)
(2.49397e-14 1.63451e-15 0)
(2.40177e-14 1.33333e-15 0)
(2.34117e-14 5.07042e-16 0)
(2.2896e-14 -4.09083e-16 0)
(2.17299e-14 -1.06633e-15 0)
(1.93652e-14 -1.21984e-15 0)
(1.65314e-14 -1.34546e-15 0)
(1.43451e-14 -1.24538e-15 0)
(1.23972e-14 -9.80381e-16 0)
(1.07038e-14 -6.49476e-16 0)
(9.11111e-15 -4.43144e-16 0)
(5.91712e-15 -2.45144e-16 0)
(1.51357e-15 -1.45669e-16 0)
(-7.65934e-16 -2.5006e-16 0)
(-2.36189e-15 -3.95477e-16 0)
(-4.25361e-15 -6.87584e-16 0)
(-5.86067e-15 -1.01559e-15 0)
(-7.76114e-15 -8.75225e-16 0)
(-1.05954e-14 1.46451e-16 0)
(-1.36798e-14 1.21993e-15 0)
(-1.66301e-14 1.77215e-15 0)
(-1.89062e-14 2.13728e-15 0)
(-2.07825e-14 2.13348e-15 0)
(-2.24306e-14 1.98537e-15 0)
(-2.37153e-14 2.07461e-15 0)
(-2.51281e-14 2.26738e-15 0)
(-2.6334e-14 3.43251e-15 0)
(-2.73064e-14 5.15818e-15 0)
(-2.90779e-14 6.23066e-15 0)
(-3.12839e-14 6.88112e-15 0)
(-3.22696e-14 7.1535e-15 0)
(-3.17012e-14 8.05865e-15 0)
(-3.01595e-14 9.23559e-15 0)
(-2.77717e-14 9.64392e-15 0)
(-2.44289e-14 1.00284e-14 0)
(-2.07202e-14 1.02099e-14 0)
(-1.71273e-14 1.06582e-14 0)
(-1.36263e-14 1.11336e-14 0)
(-1.13257e-14 1.21952e-14 0)
(-1.04381e-14 1.26021e-14 0)
(-1.05067e-14 1.28999e-14 0)
(-1.10392e-14 1.44736e-14 0)
(-1.07181e-14 1.56972e-14 0)
(-9.37898e-15 1.63422e-14 0)
(-6.80631e-15 1.62788e-14 0)
(-3.48595e-15 1.60619e-14 0)
(-3.11387e-16 1.57886e-14 0)
(3.0508e-15 1.48528e-14 0)
(6.19264e-15 1.39886e-14 0)
(8.64046e-15 1.27577e-14 0)
(1.07047e-14 1.20397e-14 0)
(1.38025e-14 1.17722e-14 0)
(1.77547e-14 1.10794e-14 0)
(2.08597e-14 1.03089e-14 0)
(2.27758e-14 9.75248e-15 0)
(2.40489e-14 9.00782e-15 0)
(2.54389e-14 9.15928e-15 0)
(2.6952e-14 8.79392e-15 0)
(2.8883e-14 8.94869e-15 0)
(3.13736e-14 9.01111e-15 0)
(3.42487e-14 8.89949e-15 0)
(3.72936e-14 7.64081e-15 0)
(3.97554e-14 6.4022e-15 0)
(4.13403e-14 5.73733e-15 0)
(4.14999e-14 5.45742e-15 0)
(4.14021e-14 5.08469e-15 0)
(4.30646e-14 5.65773e-15 0)
(4.61857e-14 5.59988e-15 0)
(5.0085e-14 4.85357e-15 0)
(5.42429e-14 4.20079e-15 0)
(5.69375e-14 3.94035e-15 0)
(5.68449e-14 3.55486e-15 0)
(5.56186e-14 2.76243e-15 0)
(5.50273e-14 1.85712e-15 0)
(5.47841e-14 1.3275e-15 0)
(5.48757e-14 6.42782e-16 0)
(5.50607e-14 7.33135e-16 0)
(5.4611e-14 1.32868e-15 0)
(5.40322e-14 2.13587e-15 0)
(5.40741e-14 2.37059e-15 0)
(5.387e-14 2.43888e-15 0)
(5.26709e-14 2.39222e-15 0)
(5.16492e-14 2.33035e-15 0)
(5.10815e-14 2.6917e-15 0)
(5.0663e-14 3.08939e-15 0)
(5.01837e-14 3.90183e-15 0)
(4.92962e-14 4.60835e-15 0)
(4.88757e-14 4.25677e-15 0)
(4.88127e-14 3.90244e-15 0)
(4.85742e-14 3.60021e-15 0)
(4.87063e-14 3.96671e-15 0)
(4.90435e-14 4.64402e-15 0)
(4.85469e-14 5.30996e-15 0)
(4.73626e-14 5.63239e-15 0)
(4.61805e-14 5.82608e-15 0)
(4.46278e-14 5.17648e-15 0)
(4.25123e-14 4.39157e-15 0)
(3.97656e-14 3.07308e-15 0)
(3.70321e-14 2.59632e-15 0)
(3.53673e-14 2.23626e-15 0)
(3.40792e-14 2.22026e-15 0)
(3.24078e-14 1.68106e-15 0)
(3.11403e-14 8.58315e-16 0)
(3.02954e-14 -3.00004e-16 0)
(2.88241e-14 -1.09902e-15 0)
(2.58826e-14 -1.63938e-15 0)
(2.2394e-14 -1.48964e-15 0)
(1.9521e-14 -1.64289e-15 0)
(1.68654e-14 -1.35775e-15 0)
(1.42052e-14 -1.01191e-15 0)
(1.14211e-14 -1.11317e-15 0)
(7.37761e-15 -1.37465e-15 0)
(2.20547e-15 -6.63649e-16 0)
(-9.12149e-16 -4.06767e-16 0)
(-3.11913e-15 -4.93461e-16 0)
(-5.62589e-15 -8.89623e-16 0)
(-7.64302e-15 -1.00714e-15 0)
(-9.47694e-15 -5.55764e-16 0)
(-1.24409e-14 4.23674e-16 0)
(-1.64577e-14 9.95926e-16 0)
(-2.0597e-14 1.70536e-15 0)
(-2.37848e-14 1.75509e-15 0)
(-2.58305e-14 1.54653e-15 0)
(-2.74636e-14 1.8623e-15 0)
(-2.93726e-14 2.87869e-15 0)
(-3.12404e-14 3.71944e-15 0)
(-3.20143e-14 4.55351e-15 0)
(-3.29192e-14 6.01453e-15 0)
(-3.51316e-14 7.49827e-15 0)
(-3.78704e-14 8.79303e-15 0)
(-3.92408e-14 1.01296e-14 0)
(-3.84964e-14 1.10068e-14 0)
(-3.65239e-14 1.15447e-14 0)
(-3.36991e-14 1.21614e-14 0)
(-3.00043e-14 1.33402e-14 0)
(-2.57464e-14 1.38087e-14 0)
(-2.14832e-14 1.43398e-14 0)
(-1.72444e-14 1.47668e-14 0)
(-1.42349e-14 1.54168e-14 0)
(-1.32728e-14 1.61711e-14 0)
(-1.2734e-14 1.66414e-14 0)
(-1.25429e-14 1.8203e-14 0)
(-1.23487e-14 1.99029e-14 0)
(-1.10475e-14 2.06107e-14 0)
(-8.17001e-15 2.09664e-14 0)
(-4.21958e-15 2.06331e-14 0)
(-5.2128e-16 2.00627e-14 0)
(3.16273e-15 1.92224e-14 0)
(6.83697e-15 1.7877e-14 0)
(1.02321e-14 1.63931e-14 0)
(1.34705e-14 1.54886e-14 0)
(1.70848e-14 1.49892e-14 0)
(2.12771e-14 1.4248e-14 0)
(2.53289e-14 1.34305e-14 0)
(2.80896e-14 1.25701e-14 0)
(2.98731e-14 1.20987e-14 0)
(3.17048e-14 1.19785e-14 0)
(3.37433e-14 1.18166e-14 0)
(3.6284e-14 1.15796e-14 0)
(3.92887e-14 1.10556e-14 0)
(4.26222e-14 1.08518e-14 0)
(4.58801e-14 9.93638e-15 0)
(4.87418e-14 8.65416e-15 0)
(5.09237e-14 7.79454e-15 0)
(5.17127e-14 7.19031e-15 0)
(5.24938e-14 7.00671e-15 0)
(5.46277e-14 7.32148e-15 0)
(5.76548e-14 7.27605e-15 0)
(6.18132e-14 6.60431e-15 0)
(6.65691e-14 5.65639e-15 0)
(6.99095e-14 4.64001e-15 0)
(7.01434e-14 3.85936e-15 0)
(6.88198e-14 2.93401e-15 0)
(6.82295e-14 2.27232e-15 0)
(6.79778e-14 1.76087e-15 0)
(6.81595e-14 1.16085e-15 0)
(6.87508e-14 7.86718e-16 0)
(6.88037e-14 1.34472e-15 0)
(6.79751e-14 2.41113e-15 0)
(6.73702e-14 2.7013e-15 0)
(6.70076e-14 2.45432e-15 0)
(6.56901e-14 2.49021e-15 0)
(6.46898e-14 3.12087e-15 0)
(6.42674e-14 3.63336e-15 0)
(6.39036e-14 4.34302e-15 0)
(6.31491e-14 5.12934e-15 0)
(6.17315e-14 5.48825e-15 0)
(6.10629e-14 5.43774e-15 0)
(6.08312e-14 5.65124e-15 0)
(6.07064e-14 5.3583e-15 0)
(6.11153e-14 5.70186e-15 0)
(6.13393e-14 6.23676e-15 0)
(6.05182e-14 7.10882e-15 0)
(5.89301e-14 7.24099e-15 0)
(5.71031e-14 6.8903e-15 0)
(5.49836e-14 6.22182e-15 0)
(5.22519e-14 5.46955e-15 0)
(4.91025e-14 4.05027e-15 0)
(4.63315e-14 3.60268e-15 0)
(4.43246e-14 3.26234e-15 0)
(4.24013e-14 2.74278e-15 0)
(4.01e-14 1.83785e-15 0)
(3.82634e-14 9.67949e-16 0)
(3.68675e-14 -1.31544e-16 0)
(3.49957e-14 -1.16219e-15 0)
(3.1915e-14 -2.10421e-15 0)
(2.78069e-14 -2.06713e-15 0)
(2.41016e-14 -2.23546e-15 0)
(2.08809e-14 -1.94845e-15 0)
(1.72268e-14 -2.00894e-15 0)
(1.33586e-14 -1.97619e-15 0)
(8.64984e-15 -1.9852e-15 0)
(2.97418e-15 -8.3524e-16 0)
(-9.47352e-16 -4.99875e-16 0)
(-3.59013e-15 -8.63999e-16 0)
(-6.72775e-15 -9.56975e-16 0)
(-8.86805e-15 -6.21651e-16 0)
(-1.11157e-14 -1.59223e-16 0)
(-1.50515e-14 -5.76752e-17 0)
(-1.95561e-14 1.50635e-16 0)
(-2.40568e-14 5.99259e-16 0)
(-2.80028e-14 1.32382e-15 0)
(-3.05017e-14 1.92557e-15 0)
(-3.20145e-14 2.01796e-15 0)
(-3.37155e-14 2.77915e-15 0)
(-3.60379e-14 4.55505e-15 0)
(-3.74176e-14 5.68231e-15 0)
(-3.83795e-14 7.0793e-15 0)
(-4.06623e-14 8.62609e-15 0)
(-4.33096e-14 1.01847e-14 0)
(-4.47504e-14 1.20651e-14 0)
(-4.45696e-14 1.35671e-14 0)
(-4.26276e-14 1.40341e-14 0)
(-3.88809e-14 1.45922e-14 0)
(-3.45852e-14 1.60741e-14 0)
(-3.02045e-14 1.76992e-14 0)
(-2.54926e-14 1.82995e-14 0)
(-2.08185e-14 1.85041e-14 0)
(-1.73152e-14 1.87146e-14 0)
(-1.57987e-14 1.94013e-14 0)
(-1.46991e-14 2.04176e-14 0)
(-1.37845e-14 2.18194e-14 0)
(-1.34006e-14 2.38911e-14 0)
(-1.21146e-14 2.47878e-14 0)
(-9.13421e-15 2.53452e-14 0)
(-5.15053e-15 2.46319e-14 0)
(-9.28033e-16 2.36171e-14 0)
(3.27211e-15 2.27457e-14 0)
(7.29549e-15 2.16881e-14 0)
(1.1374e-14 2.03352e-14 0)
(1.54762e-14 1.90497e-14 0)
(2.00534e-14 1.81672e-14 0)
(2.51108e-14 1.75567e-14 0)
(2.93429e-14 1.67567e-14 0)
(3.25372e-14 1.55717e-14 0)
(3.52313e-14 1.53146e-14 0)
(3.77312e-14 1.5155e-14 0)
(4.01397e-14 1.51428e-14 0)
(4.28826e-14 1.44377e-14 0)
(4.65456e-14 1.35775e-14 0)
(5.03055e-14 1.31804e-14 0)
(5.36655e-14 1.20907e-14 0)
(5.71178e-14 1.07619e-14 0)
(5.99817e-14 9.98063e-15 0)
(6.13213e-14 9.14478e-15 0)
(6.2596e-14 8.96942e-15 0)
(6.51784e-14 8.79258e-15 0)
(6.85543e-14 8.62836e-15 0)
(7.2857e-14 8.22147e-15 0)
(7.77693e-14 7.23922e-15 0)
(8.13852e-14 5.73569e-15 0)
(8.1871e-14 4.02565e-15 0)
(8.09782e-14 2.74338e-15 0)
(8.07381e-14 2.55979e-15 0)
(8.04554e-14 2.17796e-15 0)
(8.04963e-14 1.93327e-15 0)
(8.13788e-14 1.42775e-15 0)
(8.1856e-14 1.48834e-15 0)
(8.0945e-14 1.83287e-15 0)
(7.98613e-14 2.18213e-15 0)
(7.92781e-14 2.04371e-15 0)
(7.84755e-14 2.35203e-15 0)
(7.74977e-14 3.81048e-15 0)
(7.66742e-14 5.15908e-15 0)
(7.61672e-14 6.10966e-15 0)
(7.51827e-14 6.22047e-15 0)
(7.34932e-14 6.28663e-15 0)
(7.2809e-14 6.83586e-15 0)
(7.23834e-14 7.18316e-15 0)
(7.20035e-14 7.0762e-15 0)
(7.24668e-14 7.67096e-15 0)
(7.2889e-14 8.06095e-15 0)
(7.1771e-14 8.59447e-15 0)
(6.93166e-14 8.42686e-15 0)
(6.70919e-14 7.90931e-15 0)
(6.46641e-14 7.68313e-15 0)
(6.12519e-14 6.75475e-15 0)
(5.7832e-14 5.2285e-15 0)
(5.49399e-14 4.57331e-15 0)
(5.23251e-14 4.11234e-15 0)
(4.97914e-14 3.24092e-15 0)
(4.70576e-14 2.01216e-15 0)
(4.48207e-14 1.02402e-15 0)
(4.29286e-14 -1.42744e-16 0)
(4.0467e-14 -1.3601e-15 0)
(3.70234e-14 -2.40492e-15 0)
(3.26848e-14 -2.66312e-15 0)
(2.84925e-14 -2.6813e-15 0)
(2.43477e-14 -2.72083e-15 0)
(1.98457e-14 -2.86228e-15 0)
(1.52843e-14 -2.63895e-15 0)
(9.99649e-15 -2.25668e-15 0)
(3.65951e-15 -8.05145e-16 0)
(-1.25908e-15 -3.89894e-16 0)
(-4.2553e-15 -9.66601e-16 0)
(-7.46213e-15 -9.36967e-16 0)
(-1.01903e-14 -4.91799e-16 0)
(-1.32854e-14 -4.01447e-16 0)
(-1.75235e-14 -6.28166e-16 0)
(-2.23634e-14 -4.23928e-16 0)
(-2.7145e-14 -8.25094e-17 0)
(-3.11298e-14 1.19192e-15 0)
(-3.44346e-14 2.43092e-15 0)
(-3.66828e-14 2.62809e-15 0)
(-3.8063e-14 2.97085e-15 0)
(-4.03189e-14 4.25685e-15 0)
(-4.19219e-14 5.8813e-15 0)
(-4.29461e-14 7.99196e-15 0)
(-4.53687e-14 9.61235e-15 0)
(-4.80873e-14 1.14534e-14 0)
(-4.95492e-14 1.33187e-14 0)
(-4.96348e-14 1.52774e-14 0)
(-4.78633e-14 1.66842e-14 0)
(-4.35658e-14 1.80345e-14 0)
(-3.8204e-14 1.96466e-14 0)
(-3.3627e-14 2.13016e-14 0)
(-2.94229e-14 2.17102e-14 0)
(-2.45226e-14 2.16938e-14 0)
(-2.02939e-14 2.17644e-14 0)
(-1.79937e-14 2.24924e-14 0)
(-1.62826e-14 2.3916e-14 0)
(-1.46787e-14 2.5428e-14 0)
(-1.41225e-14 2.7416e-14 0)
(-1.30396e-14 2.87511e-14 0)
(-1.02843e-14 2.9596e-14 0)
(-6.30014e-15 2.85442e-14 0)
(-1.45969e-15 2.72224e-14 0)
(3.46262e-15 2.62384e-14 0)
(8.03263e-15 2.52513e-14 0)
(1.2487e-14 2.40191e-14 0)
(1.72956e-14 2.27397e-14 0)
(2.26364e-14 2.17641e-14 0)
(2.80884e-14 2.12321e-14 0)
(3.28306e-14 1.9759e-14 0)
(3.69856e-14 1.89675e-14 0)
(4.04288e-14 1.86303e-14 0)
(4.33348e-14 1.85681e-14 0)
(4.59115e-14 1.8155e-14 0)
(4.88227e-14 1.73036e-14 0)
(5.30863e-14 1.63949e-14 0)
(5.72866e-14 1.55316e-14 0)
(6.08435e-14 1.46191e-14 0)
(6.48144e-14 1.31778e-14 0)
(6.81334e-14 1.23041e-14 0)
(7.00767e-14 1.14216e-14 0)
(7.20519e-14 1.0864e-14 0)
(7.4965e-14 1.0483e-14 0)
(7.8673e-14 9.92541e-15 0)
(8.31116e-14 9.48427e-15 0)
(8.78839e-14 8.6384e-15 0)
(9.13602e-14 7.06778e-15 0)
(9.22236e-14 4.70389e-15 0)
(9.22883e-14 3.07534e-15 0)
(9.24622e-14 2.57186e-15 0)
(9.21509e-14 2.1702e-15 0)
(9.21584e-14 2.39292e-15 0)
(9.28642e-14 2.12138e-15 0)
(9.34253e-14 1.64684e-15 0)
(9.26793e-14 1.55927e-15 0)
(9.15663e-14 1.59204e-15 0)
(9.09906e-14 1.89568e-15 0)
(9.06248e-14 2.65109e-15 0)
(9.01319e-14 4.19632e-15 0)
(8.90689e-14 6.13424e-15 0)
(8.75401e-14 7.43854e-15 0)
(8.59066e-14 7.30034e-15 0)
(8.46144e-14 7.21893e-15 0)
(8.39697e-14 8.09764e-15 0)
(8.30563e-14 8.43843e-15 0)
(8.28803e-14 9.05905e-15 0)
(8.33875e-14 9.83394e-15 0)
(8.32693e-14 1.01066e-14 0)
(8.17084e-14 9.9015e-15 0)
(7.89681e-14 9.59695e-15 0)
(7.66441e-14 9.43191e-15 0)
(7.36675e-14 8.85783e-15 0)
(6.93062e-14 7.51134e-15 0)
(6.558e-14 6.10711e-15 0)
(6.27646e-14 5.47546e-15 0)
(5.9779e-14 5.02958e-15 0)
(5.64928e-14 3.91111e-15 0)
(5.33076e-14 2.27574e-15 0)
(5.06829e-14 1.24487e-15 0)
(4.81985e-14 -8.82683e-17 0)
(4.53666e-14 -1.45371e-15 0)
(4.18036e-14 -2.5426e-15 0)
(3.7146e-14 -2.7314e-15 0)
(3.22033e-14 -2.80828e-15 0)
(2.74065e-14 -3.16814e-15 0)
(2.23521e-14 -3.18258e-15 0)
(1.71171e-14 -2.93722e-15 0)
(1.13365e-14 -2.17575e-15 0)
(4.29889e-15 -7.97722e-16 0)
(-1.50542e-15 -1.64905e-16 0)
(-4.84991e-15 -4.88453e-16 0)
(-8.36232e-15 -5.30996e-16 0)
(-1.15055e-14 -5.75315e-16 0)
(-1.52567e-14 -8.0221e-16 0)
(-2.00966e-14 -8.62758e-16 0)
(-2.51443e-14 -4.5101e-16 0)
(-2.97657e-14 8.72937e-17 0)
(-3.38778e-14 1.35242e-15 0)
(-3.791e-14 2.4873e-15 0)
(-4.07603e-14 2.99505e-15 0)
(-4.22917e-14 3.22666e-15 0)
(-4.42409e-14 4.21445e-15 0)
(-4.54934e-14 6.44958e-15 0)
(-4.68338e-14 8.8e-15 0)
(-4.9587e-14 1.03341e-14 0)
(-5.22097e-14 1.23932e-14 0)
(-5.35611e-14 1.4692e-14 0)
(-5.35116e-14 1.71122e-14 0)
(-5.15958e-14 1.93705e-14 0)
(-4.7091e-14 2.10234e-14 0)
(-4.18294e-14 2.27223e-14 0)
(-3.75113e-14 2.39354e-14 0)
(-3.31774e-14 2.46727e-14 0)
(-2.79161e-14 2.47961e-14 0)
(-2.30788e-14 2.48796e-14 0)
(-1.98478e-14 2.57137e-14 0)
(-1.75024e-14 2.72817e-14 0)
(-1.54996e-14 2.90075e-14 0)
(-1.45043e-14 3.07539e-14 0)
(-1.32066e-14 3.25726e-14 0)
(-1.10105e-14 3.35819e-14 0)
(-7.55235e-15 3.23214e-14 0)
(-2.15306e-15 3.0482e-14 0)
(3.4419e-15 2.95358e-14 0)
(8.42909e-15 2.86594e-14 0)
(1.34291e-14 2.76743e-14 0)
(1.88498e-14 2.67576e-14 0)
(2.50973e-14 2.56764e-14 0)
(3.08781e-14 2.49687e-14 0)
(3.59471e-14 2.36878e-14 0)
(4.0928e-14 2.28394e-14 0)
(4.50508e-14 2.14758e-14 0)
(4.83704e-14 2.05919e-14 0)
(5.10908e-14 2.00523e-14 0)
(5.43882e-14 2.00718e-14 0)
(5.8978e-14 1.93031e-14 0)
(6.36634e-14 1.81779e-14 0)
(6.74858e-14 1.70308e-14 0)
(7.1785e-14 1.57203e-14 0)
(7.5806e-14 1.45264e-14 0)
(7.80764e-14 1.33758e-14 0)
(8.04096e-14 1.26794e-14 0)
(8.37062e-14 1.21496e-14 0)
(8.77833e-14 1.15456e-14 0)
(9.26193e-14 1.1026e-14 0)
(9.73892e-14 9.95461e-15 0)
(1.00461e-13 8.22527e-15 0)
(1.01325e-13 5.7318e-15 0)
(1.02065e-13 3.9313e-15 0)
(1.02859e-13 2.7116e-15 0)
(1.0314e-13 2.19518e-15 0)
(1.03239e-13 2.16745e-15 0)
(1.03532e-13 2.01006e-15 0)
(1.04047e-13 1.66258e-15 0)
(1.0339e-13 1.33696e-15 0)
(1.02452e-13 1.30972e-15 0)
(1.02231e-13 1.94547e-15 0)
(1.02143e-13 3.13886e-15 0)
(1.01812e-13 4.86835e-15 0)
(1.00579e-13 6.73346e-15 0)
(9.83185e-14 8.066e-15 0)
(9.61018e-14 8.64239e-15 0)
(9.49626e-14 9.11222e-15 0)
(9.43965e-14 9.5757e-15 0)
(9.35765e-14 9.93362e-15 0)
(9.32863e-14 1.09915e-14 0)
(9.32352e-14 1.1493e-14 0)
(9.26475e-14 1.17771e-14 0)
(9.07795e-14 1.14783e-14 0)
(8.79805e-14 1.10741e-14 0)
(8.51182e-14 1.09369e-14 0)
(8.13007e-14 9.74648e-15 0)
(7.6668e-14 8.19334e-15 0)
(7.30859e-14 7.4305e-15 0)
(7.01639e-14 7.03159e-15 0)
(6.64415e-14 6.25763e-15 0)
(6.22784e-14 4.61839e-15 0)
(5.88372e-14 2.79821e-15 0)
(5.60089e-14 1.57134e-15 0)
(5.2983e-14 2.89506e-16 0)
(4.9712e-14 -1.19927e-15 0)
(4.60343e-14 -2.1879e-15 0)
(4.12375e-14 -2.67616e-15 0)
(3.56229e-14 -2.56977e-15 0)
(3.01325e-14 -2.89615e-15 0)
(2.45706e-14 -3.08933e-15 0)
(1.89256e-14 -3.05245e-15 0)
(1.2623e-14 -2.03701e-15 0)
(4.82034e-15 -7.00126e-16 0)
(-1.74956e-15 7.19472e-17 0)
(-5.53172e-15 -2.08933e-16 0)
(-9.52138e-15 -1.46211e-16 0)
(-1.33389e-14 -1.2041e-16 0)
(-1.73665e-14 -6.30905e-16 0)
(-2.20265e-14 -5.54147e-16 0)
(-2.72837e-14 -5.02234e-17 0)
(-3.22464e-14 6.709e-16 0)
(-3.65368e-14 1.65218e-15 0)
(-4.10749e-14 2.68493e-15 0)
(-4.46035e-14 3.7009e-15 0)
(-4.61915e-14 3.99732e-15 0)
(-4.74706e-14 5.05487e-15 0)
(-4.84871e-14 7.43946e-15 0)
(-5.03495e-14 9.58529e-15 0)
(-5.32089e-14 1.13216e-14 0)
(-5.54735e-14 1.33188e-14 0)
(-5.66385e-14 1.58498e-14 0)
(-5.65581e-14 1.87546e-14 0)
(-5.49857e-14 2.1441e-14 0)
(-5.0584e-14 2.27751e-14 0)
(-4.49149e-14 2.41924e-14 0)
(-4.03396e-14 2.58979e-14 0)
(-3.61964e-14 2.74732e-14 0)
(-3.10352e-14 2.81953e-14 0)
(-2.55656e-14 2.82623e-14 0)
(-2.14893e-14 2.94077e-14 0)
(-1.84596e-14 3.09368e-14 0)
(-1.60496e-14 3.24482e-14 0)
(-1.46989e-14 3.39482e-14 0)
(-1.33526e-14 3.57139e-14 0)
(-1.19697e-14 3.64644e-14 0)
(-9.11454e-15 3.57146e-14 0)
(-3.02725e-15 3.37883e-14 0)
(3.64387e-15 3.25565e-14 0)
(9.23247e-15 3.19696e-14 0)
(1.47011e-14 3.13855e-14 0)
(2.04759e-14 3.07824e-14 0)
(2.69939e-14 2.96586e-14 0)
(3.32945e-14 2.82928e-14 0)
(3.88838e-14 2.71566e-14 0)
(4.38763e-14 2.57423e-14 0)
(4.81502e-14 2.42653e-14 0)
(5.25003e-14 2.29863e-14 0)
(5.65812e-14 2.2622e-14 0)
(6.01729e-14 2.29641e-14 0)
(6.44467e-14 2.21768e-14 0)
(6.92078e-14 2.07208e-14 0)
(7.34342e-14 1.9114e-14 0)
(7.81268e-14 1.79395e-14 0)
(8.2268e-14 1.64773e-14 0)
(8.52441e-14 1.50438e-14 0)
(8.83275e-14 1.43445e-14 0)
(9.19627e-14 1.38192e-14 0)
(9.63357e-14 1.32382e-14 0)
(1.0107e-13 1.2471e-14 0)
(1.05538e-13 1.10883e-14 0)
(1.08461e-13 8.71316e-15 0)
(1.09648e-13 6.32014e-15 0)
(1.10903e-13 5.02521e-15 0)
(1.12166e-13 3.55205e-15 0)
(1.12787e-13 2.98046e-15 0)
(1.1305e-13 2.22332e-15 0)
(1.13469e-13 2.01395e-15 0)
(1.13825e-13 1.64104e-15 0)
(1.13209e-13 1.13627e-15 0)
(1.12674e-13 1.11487e-15 0)
(1.12842e-13 2.14766e-15 0)
(1.13103e-13 3.78293e-15 0)
(1.12909e-13 5.74056e-15 0)
(1.11349e-13 7.77635e-15 0)
(1.08668e-13 9.0363e-15 0)
(1.06201e-13 1.01443e-14 0)
(1.04634e-13 1.0884e-14 0)
(1.03714e-13 1.11204e-14 0)
(1.03035e-13 1.14047e-14 0)
(1.02741e-13 1.24293e-14 0)
(1.0243e-13 1.26454e-14 0)
(1.01445e-13 1.31503e-14 0)
(9.90633e-14 1.29803e-14 0)
(9.60822e-14 1.24989e-14 0)
(9.27638e-14 1.22687e-14 0)
(8.82632e-14 1.09924e-14 0)
(8.36636e-14 9.66185e-15 0)
(8.01715e-14 8.92391e-15 0)
(7.66892e-14 8.26169e-15 0)
(7.21067e-14 7.21504e-15 0)
(6.73464e-14 5.57284e-15 0)
(6.37323e-14 4.03804e-15 0)
(6.07275e-14 2.70107e-15 0)
(5.72095e-14 1.09939e-15 0)
(5.36696e-14 -4.93659e-16 0)
(4.98276e-14 -1.3635e-15 0)
(4.48698e-14 -2.0204e-15 0)
(3.8852e-14 -1.79499e-15 0)
(3.25471e-14 -2.35809e-15 0)
(2.63632e-14 -2.67039e-15 0)
(2.04843e-14 -2.84546e-15 0)
(1.39598e-14 -1.81447e-15 0)
(5.3183e-15 -6.43216e-16 0)
(-2.07928e-15 -1.06156e-16 0)
(-6.1721e-15 -1.6845e-16 0)
(-1.03228e-14 1.99265e-16 0)
(-1.47468e-14 7.32809e-16 0)
(-1.92901e-14 7.39261e-16 0)
(-2.41819e-14 6.18799e-16 0)
(-2.95181e-14 5.38799e-16 0)
(-3.45064e-14 1.01358e-15 0)
(-3.90539e-14 1.80868e-15 0)
(-4.3668e-14 2.95388e-15 0)
(-4.76112e-14 4.6273e-15 0)
(-4.96073e-14 5.48529e-15 0)
(-5.04534e-14 6.89025e-15 0)
(-5.1264e-14 8.73809e-15 0)
(-5.33551e-14 1.02395e-14 0)
(-5.63982e-14 1.21705e-14 0)
(-5.85114e-14 1.41863e-14 0)
(-5.91484e-14 1.68911e-14 0)
(-5.88022e-14 1.99552e-14 0)
(-5.77218e-14 2.29584e-14 0)
(-5.37073e-14 2.49135e-14 0)
(-4.76312e-14 2.62467e-14 0)
(-4.25872e-14 2.76466e-14 0)
(-3.83284e-14 2.9167e-14 0)
(-3.35153e-14 3.08284e-14 0)
(-2.77113e-14 3.14955e-14 0)
(-2.27621e-14 3.28362e-14 0)
(-1.95088e-14 3.43795e-14 0)
(-1.68723e-14 3.55506e-14 0)
(-1.49942e-14 3.65937e-14 0)
(-1.34927e-14 3.7699e-14 0)
(-1.2327e-14 3.8484e-14 0)
(-9.96076e-15 3.87156e-14 0)
(-3.99755e-15 3.75142e-14 0)
(3.52514e-15 3.63054e-14 0)
(9.9416e-15 3.52733e-14 0)
(1.58832e-14 3.46667e-14 0)
(2.18546e-14 3.39004e-14 0)
(2.84755e-14 3.28255e-14 0)
(3.51579e-14 3.15516e-14 0)
(4.10684e-14 3.01902e-14 0)
(4.66384e-14 2.83486e-14 0)
(5.16691e-14 2.74945e-14 0)
(5.65971e-14 2.65946e-14 0)
(6.12933e-14 2.59131e-14 0)
(6.50617e-14 2.51501e-14 0)
(6.91061e-14 2.43332e-14 0)
(7.39501e-14 2.27358e-14 0)
(7.87123e-14 2.12013e-14 0)
(8.38126e-14 1.98669e-14 0)
(8.82987e-14 1.83854e-14 0)
(9.17538e-14 1.71494e-14 0)
(9.53588e-14 1.61767e-14 0)
(9.93359e-14 1.54766e-14 0)
(1.03816e-13 1.44188e-14 0)
(1.08617e-13 1.33562e-14 0)
(1.12707e-13 1.16238e-14 0)
(1.15462e-13 9.13044e-15 0)
(1.17453e-13 6.81346e-15 0)
(1.19106e-13 5.67292e-15 0)
(1.20577e-13 4.45968e-15 0)
(1.21454e-13 3.4516e-15 0)
(1.21828e-13 2.78203e-15 0)
(1.2237e-13 2.76888e-15 0)
(1.22601e-13 2.45138e-15 0)
(1.22109e-13 1.84224e-15 0)
(1.22185e-13 2.16684e-15 0)
(1.23044e-13 3.03638e-15 0)
(1.23478e-13 4.52555e-15 0)
(1.23268e-13 6.55516e-15 0)
(1.2134e-13 8.5596e-15 0)
(1.18211e-13 1.0167e-14 0)
(1.15427e-13 1.13895e-14 0)
(1.13464e-13 1.20706e-14 0)
(1.12376e-13 1.22843e-14 0)
(1.11938e-13 1.2706e-14 0)
(1.11384e-13 1.38284e-14 0)
(1.10713e-13 1.4152e-14 0)
(1.09577e-13 1.43343e-14 0)
(1.06685e-13 1.4179e-14 0)
(1.03503e-13 1.37955e-14 0)
(9.96685e-14 1.33671e-14 0)
(9.45991e-14 1.21451e-14 0)
(8.98626e-14 1.07855e-14 0)
(8.62208e-14 9.8431e-15 0)
(8.24794e-14 8.86022e-15 0)
(7.74129e-14 7.80344e-15 0)
(7.22397e-14 6.73177e-15 0)
(6.83395e-14 5.79963e-15 0)
(6.47351e-14 4.33772e-15 0)
(6.07367e-14 2.4885e-15 0)
(5.715e-14 8.07376e-16 0)
(5.32303e-14 -2.09941e-16 0)
(4.82296e-14 -7.79778e-16 0)
(4.15944e-14 -5.5373e-16 0)
(3.45332e-14 -9.03409e-16 0)
(2.79826e-14 -1.65981e-15 0)
(2.19314e-14 -2.15586e-15 0)
(1.50773e-14 -1.68244e-15 0)
(5.74881e-15 -5.3584e-16 0)
(-2.1879e-15 -5.54119e-17 0)
(-6.52871e-15 3.93181e-16 0)
(-1.09169e-14 8.47348e-16 0)
(-1.57786e-14 1.43742e-15 0)
(-2.10267e-14 1.6983e-15 0)
(-2.64564e-14 1.70472e-15 0)
(-3.19476e-14 1.49229e-15 0)
(-3.6899e-14 1.70124e-15 0)
(-4.12833e-14 2.16932e-15 0)
(-4.57132e-14 3.29529e-15 0)
(-4.99399e-14 5.25677e-15 0)
(-5.21587e-14 7.06854e-15 0)
(-5.30843e-14 8.77297e-15 0)
(-5.43365e-14 1.02415e-14 0)
(-5.63681e-14 1.13253e-14 0)
(-5.89945e-14 1.29064e-14 0)
(-6.07404e-14 1.52714e-14 0)
(-6.10794e-14 1.83341e-14 0)
(-6.06112e-14 2.12912e-14 0)
(-5.95728e-14 2.42629e-14 0)
(-5.60151e-14 2.68068e-14 0)
(-5.0286e-14 2.84139e-14 0)
(-4.50429e-14 2.97641e-14 0)
(-4.01376e-14 3.1229e-14 0)
(-3.5014e-14 3.31754e-14 0)
(-2.91841e-14 3.44802e-14 0)
(-2.38661e-14 3.56633e-14 0)
(-2.03575e-14 3.70688e-14 0)
(-1.76935e-14 3.81512e-14 0)
(-1.57353e-14 3.91336e-14 0)