/*--------------------------------*- C++ -*----------------------------------*\
| =========                 |                                                 |
| \\      /  F ield         | OpenFOAM: The Open Source CFD Toolbox           |
|  \\    /   O peration     | Version:  v2012                                 |
|   \\  /    A nd           | Website:  www.openfoam.com                      |
|    \\/     M anipulation  |                                                 |
\*---------------------------------------------------------------------------*/
FoamFile
{
    version     2.0;
    format      ascii;
    class       volVectorField;
    location    "0";
    object      U;
}
// * * * * * * * * * * * * * * * * * * * * * * * * * * * * * * * * * * * * * //

dimensions      [0 1 -1 0 0 0 0];


internalField   nonuniform List<vector> 
4000
(
(1 1.84781e-15 0)
(1 -6.6089e-16 0)
(1 -3.1222e-15 0)
(1 -1.98505e-15 0)
(1 4.67683e-15 0)
(1 7.349e-15 0)
(1 3.28451e-15 0)
(1 -2.36948e-15 0)
(1 -3.70939e-15 0)
(1 -2.85422e-15 0)
(1 -4.71684e-15 0)
(1 2.69386e-16 0)
(1 4.04902e-15 0)
(1 2.70871e-15 0)
(1 2.61878e-15 0)
(1 -2.08702e-15 0)
(1 4.6908e-15 0)
(1 -6.89899e-15 0)
(1 2.80857e-15 0)
(1 -5.62024e-15 0)
(1 -2.35913e-15 0)
(1 -8.10972e-15 0)
(1 -2.68076e-15 0)
(1 -1.83036e-15 0)
(1 5.22722e-16 0)
(1 -5.47148e-16 0)
(1 5.88904e-16 0)
(1 -3.10061e-16 0)
(1 -3.5141e-15 0)
(1 5.18095e-15 0)
(1 6.1171e-15 0)
(1 6.60148e-15 0)
(1 -3.37174e-15 0)
(1 6.27766e-15 0)
(1 7.18322e-15 0)
(1 3.69402e-15 0)
(1 4.59792e-15 0)
(1 3.9231e-15 0)
(1 -1.72865e-15 0)
(1 -5.82161e-15 0)
(1 -2.83405e-15 0)
(1 -1.16289e-15 0)
(1 -5.06971e-16 0)
(1 2.51099e-15 0)
(1 -2.19806e-15 0)
(1 -1.22261e-15 0)
(1 -4.03567e-15 0)
(1 2.83791e-15 0)
(1 6.47826e-17 0)
(1 -1.16275e-15 0)
(1 2.70527e-15 0)
(1 3.88858e-15 0)
(1 1.47016e-15 0)
(1 2.51681e-15 0)
(1 3.11342e-15 0)
(1 -1.57432e-15 0)
(1 -4.82614e-15 0)
(1 -1.49808e-16 0)
(1 -1.24952e-15 0)
(1 3.43417e-15 0)
(1 2.60891e-15 0)
(1 3.57222e-15 0)
(1 -7.62777e-16 0)
(1 -3.59885e-15 0)
(1 -1.97705e-15 0)
(1 -2.52979e-15 0)
(1 2.13957e-16 0)
(1 1.04376e-15 0)
(1 3.2682e-18 0)
(1 1.13704e-15 0)
(1 -3.70535e-15 0)
(1 9.31512e-16 0)
(1 2.76616e-15 0)
(1 -1.09556e-15 0)
(1 -5.11744e-15 0)
(1 -6.55619e-15 0)
(1 -1.4238e-15 0)
(1 -9.8615e-17 0)
(1 1.08922e-15 0)
(1 4.34671e-15 0)
(1 -1.42473e-15 0)
(1 -1.73253e-15 0)
(1 1.94922e-16 0)
(1 -7.30765e-16 0)
(1 -2.03939e-15 0)
(1 -6.50138e-17 0)
(1 -1.07442e-16 0)
(1 3.14791e-15 0)
(1 7.34466e-16 0)
(1 6.14505e-15 0)
(1 1.80568e-15 0)
(1 1.88257e-15 0)
(1 -2.52071e-15 0)
(1 -1.50834e-15 0)
(1 -1.59853e-15 0)
(1 -1.76248e-16 0)
(1 -2.46005e-15 0)
(1 -1.2963e-16 0)
(1 5.06351e-16 0)
(1 -2.05236e-15 0)
(1 3.69119e-15 0)
(1 8.93595e-16 0)
(1 2.25917e-15 0)
(1 -8.95895e-16 0)
(1 4.98103e-15 0)
(1 1.30719e-16 0)
(1 5.61116e-15 0)
(1 -8.35622e-15 0)
(1 -3.98464e-15 0)
(1 -1.30756e-15 0)
(1 -4.3026e-15 0)
(1 3.48918e-15 0)
(1 1.15802e-14 0)
(1 6.31127e-15 0)
(1 -8.98783e-16 0)
(1 -4.32867e-15 0)
(1 1.25797e-15 0)
(1 -6.61453e-15 0)
(1 1.6169e-15 0)
(1 -1.05133e-14 0)
(1 4.99499e-15 0)
(1 -3.83192e-15 0)
(1 -8.35135e-15 0)
(1 -4.80287e-15 0)
(1 -4.59231e-15 0)
(1 -5.81465e-16 0)
(1 -1.31759e-16 0)
(1 2.56355e-15 0)
(1 -4.64288e-15 0)
(1 4.58199e-15 0)
(1 7.68215e-15 0)
(1 5.75018e-15 0)
(1 -5.1441e-15 0)
(1 8.17135e-15 0)
(1 4.73921e-15 0)
(1 3.66171e-15 0)
(1 -3.4567e-16 0)
(1 5.62281e-15 0)
(1 -4.79889e-15 0)
(1 -5.98259e-15 0)
(1 -7.73563e-15 0)
(1 -1.24088e-15 0)
(1 -1.9438e-15 0)
(1 1.31995e-15 0)
(1 -5.34851e-15 0)
(1 -5.03533e-15 0)
(1 -2.67831e-15 0)
(1 2.77723e-15 0)
(1 1.98207e-15 0)
(1 1.14885e-15 0)
(1 1.49919e-15 0)
(1 1.88568e-15 0)
(1 -2.11521e-15 0)
(1 2.93198e-15 0)
(1 4.02748e-15 0)
(1 -5.55229e-16 0)
(1 -5.94943e-15 0)
(1 4.5423e-16 0)
(1 -5.25605e-15 0)
(1 -3.32335e-15 0)
(1 3.44233e-15 0)
(1 4.25407e-15 0)
(1 1.78246e-15 0)
(1 3.2491e-15 0)
(1 -1.57923e-16 0)
(1 -1.4e-15 0)
(1 -1.51993e-16 0)
(1 1.76868e-16 0)
(1 -1.06863e-15 0)
(1 -2.30487e-15 0)
(1 -5.06712e-15 0)
(1 3.56641e-15 0)
(1 6.45337e-15 0)
(1 1.69024e-15 0)
(1 1.74999e-16 0)
(1 -4.28555e-15 0)
(1 -1.79186e-15 0)
(1 5.45756e-15 0)
(1 3.19115e-15 0)
(1 9.6098e-15 0)
(1 -2.17923e-16 0)
(1 -6.15947e-15 0)
(1 3.36097e-15 0)
(1 1.85801e-16 0)
(1 -9.11526e-16 0)
(1 1.9059e-15 0)
(1 -3.30309e-15 0)
(1 1.32446e-16 0)
(1 -4.66446e-15 0)
(1 3.99807e-15 0)
(1 -1.23987e-15 0)
(1 -2.69197e-16 0)
(1 -9.76422e-16 0)
(1 1.42858e-15 0)
(1 -6.46117e-15 0)
(1 9.0692e-16 0)
(1 -1.53986e-15 0)
(1 4.52707e-16 0)
(1 1.59204e-15 0)
(1 -9.48168e-16 0)
(1 1.85323e-15 0)
(1 2.79726e-15 0)
(1 -2.82808e-15 0)
(1 -1.41422e-16 0)
(1 -3.76126e-15 0)
(1 -2.86578e-15 0)
(1 1.53816e-15 0)
(1 1.62767e-15 0)
(1 -1.57122e-15 0)
(1 3.394e-16 0)
(1 -3.16236e-15 0)
(1 6.91155e-15 0)
(1 9.20844e-15 0)
(1 8.13679e-15 0)
(1 -1.09662e-15 0)
(1 -2.73022e-15 0)
(1 -7.47036e-15 0)
(1 2.33064e-16 0)
(1 -3.15777e-15 0)
(1 1.71764e-15 0)
(1 7.16981e-15 0)
(1 5.62123e-15 0)
(1 -4.42729e-15 0)
(1 -4.091e-15 0)
(1 -8.81715e-17 0)
(1 1.36527e-15 0)
(1 4.13436e-15 0)
(1 2.95304e-15 0)
(1 3.02663e-16 0)
(1 2.26861e-15 0)
(1 3.04902e-15 0)
(1 -4.98331e-16 0)
(1 2.62939e-15 0)
(1 4.125e-15 0)
(1 3.69464e-15 0)
(1 8.66674e-15 0)
(1 3.53119e-15 0)
(1 8.08169e-15 0)
(1 -1.11094e-15 0)
(1 -3.68973e-16 0)
(1 -6.42358e-15 0)
(1 -4.20521e-15 0)
(1 -8.89883e-15 0)
(1 -5.28545e-15 0)
(1 -5.41855e-15 0)
(1 -3.7372e-16 0)
(1 2.43581e-15 0)
(1 -4.48025e-15 0)
(1 -4.24798e-15 0)
(1 3.01284e-15 0)
(1 2.37871e-15 0)
(1 2.17487e-15 0)
(1 6.06485e-15 0)
(1 3.17995e-15 0)
(1 2.95752e-15 0)
(1 4.00056e-15 0)
(1 -2.98911e-16 0)
(1 -2.30279e-15 0)
(1 -3.75797e-15 0)
(1 -6.33168e-15 0)
(1 -3.50481e-15 0)
(1 -6.84576e-16 0)
(1 2.12329e-15 0)
(1 2.7843e-15 0)
(1 -1.01981e-15 0)
(1 2.05406e-15 0)
(1 -6.88578e-16 0)
(1 6.47629e-16 0)
(1 8.58588e-16 0)
(1 -2.91083e-15 0)
(1 1.73959e-16 0)
(1 1.71395e-15 0)
(1 -5.79862e-17 0)
(1 5.96349e-16 0)
(1 -1.6907e-15 0)
(1 -1.14754e-15 0)
(1 -3.59791e-16 0)
(1 -4.31361e-15 0)
(1 2.86145e-15 0)
(1 -2.80134e-16 0)
(1 2.53621e-15 0)
(1 -6.49053e-15 0)
(1 -3.01027e-15 0)
(1 2.6595e-15 0)
(1 8.3495e-17 0)
(1 1.74293e-15 0)
(1 1.23218e-16 0)
(1 1.05758e-15 0)
(1 -1.80845e-15 0)
(1 2.0941e-15 0)
(1 -1.2798e-15 0)
(1 -2.65382e-15 0)
(1 1.49262e-16 0)
(1 2.9815e-15 0)
(1 -1.56115e-15 0)
(1 -2.79537e-15 0)
(1 -2.21481e-15 0)
(1 -3.09261e-15 0)
(1 2.53303e-16 0)
(1 3.2563e-16 0)
(1 3.93377e-15 0)
(1 -4.5217e-15 0)
(1 -1.19201e-15 0)
(1 -7.14439e-15 0)
(1 -3.64206e-16 0)
(1 3.01032e-15 0)
(1 6.17131e-15 0)
(1 8.36249e-15 0)
(1 -8.4248e-16 0)
(1 -2.00208e-15 0)
(1 -3.12942e-15 0)
(1 7.66826e-15 0)
(1 4.72741e-15 0)
(1 -8.63436e-16 0)
(1 3.50212e-15 0)
(1 -7.16171e-16 0)
(1 -3.85844e-15 0)
(1 -5.03958e-16 0)
(1 -4.85064e-15 0)
(1 4.85976e-15 0)
(1 2.23433e-15 0)
(1 1.50984e-15 0)
(1 3.71985e-15 0)
(1 5.08298e-15 0)
(1 9.55919e-15 0)
(1 3.07681e-15 0)
(1 1.47474e-15 0)
(1 -1.65029e-15 0)
(1 3.00042e-15 0)
(1 3.16108e-15 0)
(1 1.60852e-15 0)
(1 -1.29417e-15 0)
(1 1.18529e-15 0)
(1 -3.51235e-15 0)
(1 5.39989e-15 0)
(1 6.89453e-15 0)
(1 1.68764e-15 0)
(1 3.32659e-15 0)
(1 5.06083e-15 0)
(1 3.9084e-15 0)
(1 5.51585e-15 0)
(1 -2.59401e-15 0)
(1 -9.45207e-15 0)
(1 -8.70529e-15 0)
(1 -2.69613e-15 0)
(1 2.84992e-15 0)
(1 1.36182e-15 0)
(1 -1.13616e-15 0)
(1 1.29915e-15 0)
(1 6.62845e-16 0)
(1 5.54608e-15 0)
(1 1.44963e-15 0)
(1 2.74869e-15 0)
(1 1.56162e-16 0)
(1 -3.00299e-15 0)
(1 3.13162e-16 0)
(1 2.28844e-16 0)
(1 -6.60033e-15 0)
(1 -4.45342e-15 0)
(1 1.67028e-15 0)
(1 -1.01361e-15 0)
(1 4.44097e-16 0)
(1 -4.24599e-16 0)
(1 1.362e-15 0)
(1 -3.21065e-15 0)
(1 -1.21052e-15 0)
(1 -4.33525e-15 0)
(1 -2.22309e-15 0)
(1 7.91046e-16 0)
(1 -7.11937e-16 0)
(1 1.12695e-15 0)
(1 -2.94886e-15 0)
(1 -2.00168e-15 0)
(1 -4.4407e-15 0)
(1 -4.00326e-15 0)
(1 2.84205e-16 0)
(1 5.54276e-16 0)
(1 -6.99906e-17 0)
(1 3.91182e-15 0)
(1 4.08924e-15 0)
(1 9.15733e-16 0)
(1 2.63521e-15 0)
(1 -5.28659e-15 0)
(1 5.64216e-16 0)
(1 3.33919e-15 0)
(1 3.59237e-15 0)
(1 4.80311e-15 0)
(1 5.78208e-16 0)
(1 5.0999e-15 0)
(1 -1.33022e-16 0)
(1 2.75282e-15 0)
(1 3.90278e-16 0)
(1 2.16758e-15 0)
(1 1.24499e-15 0)
(1 -1.63571e-15 0)
(1 -7.53703e-15 0)
(1 -6.26422e-15 0)
(1 -4.46046e-15 0)
(1 -2.45752e-15 0)
(1 -3.96851e-15 0)
(1 3.46742e-15 0)
(1 -2.4058e-15 0)
(1 -8.17615e-16 0)
(1 6.32948e-16 0)
(1 4.1302e-15 0)
(1 -7.11996e-16 0)
(1 -7.13628e-16 0)
(1 -7.51926e-15 0)
(1 -2.4012e-15 0)
(1 -3.64025e-15 0)
(1 3.7981e-15 0)
(1 1.23782e-15 0)
(1 6.80738e-15 0)
(1 -2.77874e-15 0)
(1 2.89779e-15 0)
(1 5.10039e-15 0)
(1 4.91227e-15 0)
(1 -4.0789e-15 0)
(1 -3.38178e-15 0)
(1 -8.0336e-15 0)
(1 1.5522e-15 0)
(1 -6.76567e-15 0)
(1 7.25365e-15 0)
(1 1.43455e-14 0)
(1 1.06803e-14 0)
(1 6.93028e-15 0)
(1 3.44727e-15 0)
(1 -7.18905e-16 0)
(1 6.9925e-15 0)
(1 1.12615e-15 0)
(1 2.37558e-15 0)
(1 7.4909e-16 0)
(1 3.22089e-15 0)
(1 7.53351e-15 0)
(1 -7.00937e-17 0)
(1 -4.73813e-15 0)
(1 -5.73498e-15 0)
(1 -4.24902e-15 0)
(1 9.51789e-15 0)
(1 6.50877e-15 0)
(1 1.20945e-15 0)
(1 -5.27474e-15 0)
(1 -1.1284e-14 0)
(1 -8.63274e-15 0)
(1 -7.85978e-15 0)
(1 -4.40058e-15 0)
(1 -4.13525e-15 0)
(1 1.90848e-15 0)
(1 9.49448e-15 0)
(1 6.97163e-15 0)
(1 5.06185e-15 0)
(1 9.14495e-16 0)
(1 2.06136e-15 0)
(1 -8.34779e-17 0)
(1 8.37213e-16 0)
(1 1.29288e-16 0)
(1 3.95789e-15 0)
(1 7.37515e-16 0)
(1 1.14528e-15 0)
(1 -2.71366e-15 0)
(1 2.69132e-15 0)
(1 -3.36843e-15 0)
(1 1.76546e-15 0)
(1 -1.05287e-15 0)
(1 -9.7888e-16 0)
(1 -5.01598e-16 0)
(1 -1.16031e-15 0)
(1 -3.20535e-15 0)
(1 3.23214e-15 0)
(1 3.62411e-16 0)
(1 3.17426e-15 0)
(1 2.29851e-15 0)
(1 1.3585e-15 0)
(1 -4.86813e-15 0)
(1 -1.47198e-16 0)
(1 2.164e-15 0)
(1 -3.40379e-15 0)
(1 5.04772e-15 0)
(1 5.15665e-15 0)
(1 1.02672e-14 0)
(1 -3.48149e-15 0)
(1 7.94422e-16 0)
(1 1.64581e-15 0)
(1 4.91619e-16 0)
(1 4.40744e-15 0)
(1 7.20587e-16 0)
(1 1.13374e-15 0)
(1 1.54358e-15 0)
(1 2.11584e-15 0)
(1 -2.3772e-15 0)
(1 3.27613e-15 0)
(1 1.54689e-15 0)
(1 3.92197e-15 0)
(1 1.60928e-15 0)
(1 3.36563e-16 0)
(1 -3.8523e-15 0)
(1 -1.05934e-14 0)
(1 -2.47668e-15 0)
(1 -3.00397e-15 0)
(1 -3.76011e-15 0)
(1 -3.90872e-15 0)
(1 1.00802e-15 0)
(1 4.08671e-15 0)
(1 4.80749e-15 0)
(1 -5.08952e-15 0)
(1 3.64029e-18 0)
(1 -9.36174e-15 0)
(1 -6.74252e-15 0)
(1 1.18412e-15 0)
(1 -1.77876e-15 0)
(1 4.52933e-15 0)
(1 6.02112e-15 0)
(1 -2.03492e-15 0)
(1 2.32234e-15 0)
(1 4.05557e-15 0)
(1 1.73729e-15 0)
(1 5.68702e-15 0)
(1 -3.12368e-15 0)
(1 3.68825e-15 0)
(1 -1.41145e-15 0)
(1 7.88588e-15 0)
(1 3.2569e-15 0)
(1 8.3782e-15 0)
(1 4.83026e-15 0)
(1 5.56626e-15 0)
(1 2.12474e-15 0)
(1 -1.10438e-15 0)
(1 -1.39797e-15 0)
(1 -1.43562e-15 0)
(1 4.90549e-15 0)
(1 -4.93623e-17 0)
(1 -1.27753e-15 0)
(1 4.56113e-15 0)
(1 1.341e-14 0)
(1 2.23183e-15 0)
(1 2.62121e-15 0)
(1 1.47668e-14 0)
(1 2.47473e-15 0)
(1 -1.44629e-15 0)
(1 -6.75875e-15 0)
(1 -9.96421e-17 0)
(1 -7.22962e-15 0)
(1 -2.90008e-15 0)
(1 -1.74117e-15 0)
(1 5.24601e-16 0)
(1 -5.64197e-16 0)
(1 -9.70502e-16 0)
(1 -4.0194e-15 0)
(1 -5.28181e-15 0)
(1 4.69501e-15 0)
(1 2.51562e-15 0)
(1 2.46259e-15 0)
(1 4.51856e-16 0)
(1 -3.111e-16 0)
(1 6.17439e-16 0)
(1 6.31311e-15 0)
(1 3.36375e-15 0)
(1 4.00777e-15 0)
(1 9.90617e-15 0)
(1 -7.55512e-16 0)
(1 1.82149e-15 0)
(1 -2.04202e-15 0)
(1 -2.44358e-15 0)
(1 -8.3596e-15 0)
(1 -2.5704e-15 0)
(1 7.51145e-16 0)
(1 3.44776e-15 0)
(1 7.64601e-15 0)
(1 1.14083e-14 0)
(1 1.42237e-14 0)
(1 1.0203e-14 0)
(1 6.66766e-15 0)
(1 2.35017e-15 0)
(1 -1.22811e-15 0)
(1 -6.82064e-15 0)
(1 -5.48119e-15 0)
(1 -5.09134e-15 0)
(1 -2.94343e-15 0)
(1 1.51229e-15 0)
(1 1.0347e-14 0)
(1 4.16325e-15 0)
(1 3.50305e-15 0)
(1 3.72459e-15 0)
(1 1.86305e-15 0)
(1 4.94435e-16 0)
(1 -4.20566e-15 0)
(1 -3.81062e-15 0)
(1 8.69529e-16 0)
(1 -1.12793e-15 0)
(1 2.8239e-16 0)
(1 2.19563e-15 0)
(1 5.18805e-16 0)
(1 2.11565e-15 0)
(1 3.39123e-15 0)
(1 7.1877e-15 0)
(1 -1.15878e-16 0)
(1 -2.09338e-15 0)
(1 -6.55112e-16 0)
(1 2.73666e-15 0)
(1 3.13306e-15 0)
(1 -3.48429e-15 0)
(1 -4.26291e-15 0)
(1 1.0562e-14 0)
(1 2.44434e-16 0)
(1 -3.67083e-15 0)
(1 4.81078e-16 0)
(1 -2.25589e-15 0)
(1 3.48314e-15 0)
(1 2.00482e-15 0)
(1 -2.88054e-15 0)
(1 -1.46673e-15 0)
(1 -1.81666e-15 0)
(1 -2.334e-15 0)
(1 4.03356e-15 0)
(1 1.13566e-15 0)
(1 4.77805e-15 0)
(1 4.51283e-15 0)
(1 7.47867e-15 0)
(1 4.74622e-15 0)
(1 1.2793e-14 0)
(1 5.50042e-15 0)
(1 8.57921e-15 0)
(1 -5.58417e-15 0)
(1 -6.91873e-15 0)
(1 -4.61992e-15 0)
(1 -5.1665e-15 0)
(1 -2.10139e-15 0)
(1 2.43737e-15 0)
(1 -2.46229e-15 0)
(1 8.23231e-15 0)
(1 6.45973e-15 0)
(1 6.42762e-15 0)
(1 5.11224e-15 0)
(1 3.36825e-16 0)
(1 -2.37143e-15 0)
(1 4.3235e-15 0)
(1 4.45698e-15 0)
(1 5.40979e-15 0)
(1 -2.38302e-15 0)
(1 3.58116e-15 0)
(1 9.63008e-15 0)
(1 -1.35575e-15 0)
(1 1.58305e-15 0)
(1 -3.71954e-15 0)
(1 2.93797e-15 0)
(1 -6.94938e-15 0)
(1 -5.46901e-15 0)
(1 -5.39741e-15 0)
(1 5.19274e-15 0)
(1 7.10146e-15 0)
(1 3.57276e-15 0)
(1 4.66035e-16 0)
(1 -6.69965e-15 0)
(1 2.67725e-15 0)
(1 -6.06151e-17 0)
(1 1.02658e-16 0)
(1 6.18771e-15 0)
(1 3.84876e-15 0)
(1 3.80217e-15 0)
(1 3.58953e-15 0)
(1 6.19446e-16 0)
(1 2.20882e-15 0)
(1 -3.84913e-15 0)
(1 -3.20496e-15 0)
(1 -3.43447e-16 0)
(1 -2.88021e-15 0)
(1 -4.26981e-15 0)
(1 5.7796e-15 0)
(1 3.94355e-15 0)
(1 4.39941e-15 0)
(1 2.59198e-15 0)
(1 2.53413e-15 0)
(1 4.04333e-15 0)
(1 1.61575e-15 0)
(1 2.47802e-15 0)
(1 4.26055e-15 0)
(1 6.0891e-15 0)
(1 3.32557e-15 0)
(1 1.56919e-15 0)
(1 3.74871e-15 0)
(1 5.89913e-15 0)
(1 3.2763e-15 0)
(1 -8.63172e-16 0)
(1 9.08603e-16 0)
(1 5.37577e-15 0)
(1 6.70877e-15 0)
(1 3.1513e-15 0)
(1 3.49849e-15 0)
(1 2.02045e-15 0)
(1 3.28163e-15 0)
(1 4.13285e-15 0)
(1 7.68377e-16 0)
(1 7.68475e-15 0)
(1 6.97848e-15 0)
(1 1.6971e-17 0)
(1 5.53281e-15 0)
(1 9.12325e-15 0)
(1 2.83299e-15 0)
(1 4.16497e-15 0)
(1 5.42319e-15 0)
(1 -7.41819e-16 0)
(1 -3.72222e-15 0)
(1 -4.28842e-15 0)
(1 -7.52548e-17 0)
(1 4.26939e-15 0)
(1 5.46361e-16 0)
(1 1.9422e-15 0)
(1 -1.62528e-16 0)
(1 2.05164e-15 0)
(1 1.70817e-15 0)
(1 -5.10648e-15 0)
(1 -7.49457e-15 0)
(1 1.29202e-15 0)
(1 3.46998e-15 0)
(1 5.03093e-16 0)
(1 1.32831e-14 0)
(1 -6.25256e-16 0)
(1 1.30379e-14 0)
(1 4.94249e-16 0)
(1 1.42207e-14 0)
(1 -3.59765e-15 0)
(1 4.66617e-15 0)
(1 -7.98102e-15 0)
(1 -5.79879e-15 0)
(1 -1.02575e-14 0)
(1 -4.62639e-16 0)
(1 8.10074e-15 0)
(1 6.81454e-15 0)
(1 4.9143e-15 0)
(1 7.02821e-16 0)
(1 5.58697e-15 0)
(1 6.9084e-15 0)
(1 -1.43626e-15 0)
(1 -4.79632e-15 0)
(1 -1.08666e-14 0)
(1 8.60078e-16 0)
(1 -8.57996e-15 0)
(1 1.32037e-14 0)
(1 1.74918e-14 0)
(1 1.572e-14 0)
(1 -7.8472e-15 0)
(1 -6.0831e-15 0)
(1 -2.67011e-15 0)
(1 -1.21024e-15 0)
(1 2.83689e-15 0)
(1 7.64031e-17 0)
(1 -2.0023e-15 0)
(1 -1.76437e-15 0)
(1 4.43097e-15 0)
(1 9.16125e-17 0)
(1 3.5161e-15 0)
(1 9.96365e-16 0)
(1 7.39289e-15 0)
(1 5.93091e-15 0)
(1 6.51015e-15 0)
(1 2.77125e-15 0)
(1 5.73751e-15 0)
(1 2.55879e-15 0)
(1 -1.33707e-16 0)
(1 -7.68335e-16 0)
(1 -1.83518e-15 0)
(1 -1.09804e-15 0)
(1 9.56041e-16 0)
(1 -3.14e-15 0)
(1 1.80959e-15 0)
(1 1.97271e-15 0)
(1 3.21293e-15 0)
(1 3.06128e-15 0)
(1 7.48454e-16 0)
(1 3.55757e-16 0)
(1 9.34371e-15 0)
(1 1.03598e-14 0)
(1 7.08641e-15 0)
(1 4.86034e-15 0)
(1 6.26829e-15 0)
(1 7.23235e-15 0)
(1 6.02922e-15 0)
(1 2.04749e-15 0)
(1 -7.95213e-16 0)
(1 -7.31658e-15 0)
(1 2.24376e-15 0)
(1 2.94802e-16 0)
(1 -2.05564e-15 0)
(1 1.25459e-15 0)
(1 3.26937e-15 0)
(1 8.94107e-15 0)
(1 6.00498e-15 0)
(1 5.90047e-16 0)
(1 1.90225e-15 0)
(1 -6.09574e-16 0)
(1 1.65636e-15 0)
(1 2.50196e-15 0)
(1 7.6933e-15 0)
(1 6.63922e-15 0)
(1 2.08499e-15 0)
(1 1.00425e-14 0)
(1 5.38026e-15 0)
(1 6.74199e-15 0)
(1 4.75614e-15 0)
(1 1.11793e-14 0)
(1 -3.04514e-16 0)
(1 -2.09464e-15 0)
(1 -3.68268e-15 0)
(1 -4.17251e-15 0)
(1 -3.57862e-15 0)
(1 2.53843e-15 0)
(1 -6.10583e-15 0)
(1 5.62037e-15 0)
(1 3.30276e-16 0)
(1 3.64522e-16 0)
(1 3.28859e-16 0)
(1 5.4276e-15 0)
(1 2.22442e-15 0)
(1 9.07958e-17 0)
(1 -8.84537e-17 0)
(1 5.98572e-15 0)
(1 3.84762e-15 0)
(1 1.42479e-14 0)
(1 5.31276e-15 0)
(1 1.78107e-15 0)
(1 -5.07453e-15 0)
(1 -6.85629e-16 0)
(1 8.15934e-15 0)
(1 2.94556e-15 0)
(1 -2.27022e-15 0)
(1 -9.56388e-17 0)
(1 7.30304e-16 0)
(1 2.71585e-15 0)
(1 1.01473e-15 0)
(1 -3.97226e-15 0)
(1 -2.59876e-15 0)
(1 -6.04232e-15 0)
(1 -6.87257e-15 0)
(1 2.85982e-16 0)
(1 -1.4704e-15 0)
(1 3.04448e-15 0)
(1 -2.01782e-16 0)
(1 6.17713e-15 0)
(1 5.34682e-15 0)
(1 7.20101e-15 0)
(1 -1.01634e-14 0)
(1 1.838e-15 0)
(1 2.12506e-15 0)
(1 7.6951e-15 0)
(1 6.37969e-15 0)
(1 1.09073e-14 0)
(1 1.67028e-15 0)
(1 -3.41938e-15 0)
(1 -8.68197e-15 0)
(1 -4.35298e-15 0)
(1 4.10211e-15 0)
(1 6.73792e-15 0)
(1 6.5339e-15 0)
(1 5.23932e-15 0)
(1 5.51323e-15 0)
(1 1.07186e-14 0)
(1 -2.41404e-15 0)
(1 -8.22884e-16 0)
(1 4.96151e-15 0)
(1 -5.68983e-16 0)
(1 2.081e-15 0)
(1 -1.11736e-15 0)
(1 -6.97709e-15 0)
(1 -6.19335e-15 0)
(1 -5.52225e-15 0)
(1 3.40421e-15 0)
(1 1.67556e-14 0)
(1 1.21633e-14 0)
(1 1.07757e-14 0)
(1 1.91512e-14 0)
(1 1.56522e-14 0)
(1 1.28487e-14 0)
(1 8.27704e-15 0)
(1 9.35114e-15 0)
(1 3.70363e-15 0)
(1 -1.42606e-15 0)
(1 -9.21898e-16 0)
(1 -1.47496e-15 0)
(1 2.06269e-15 0)
(1 -1.40736e-15 0)
(1 4.66976e-15 0)
(1 7.4046e-15 0)
(1 4.99698e-15 0)
(1 2.85856e-15 0)
(1 -1.62939e-15 0)
(1 -9.65901e-16 0)
(1 -4.4166e-15 0)
(1 -5.06889e-15 0)
(1 2.0235e-15 0)
(1 -1.01778e-15 0)
(1 3.97315e-15 0)
(1 8.1964e-15 0)
(1 8.41887e-15 0)
(1 1.25323e-14 0)
(1 1.62339e-14 0)
(1 1.2888e-14 0)
(1 1.39987e-14 0)
(1 9.25431e-15 0)
(1 1.45078e-14 0)
(1 2.14689e-14 0)
(1 8.91449e-16 0)
(1 2.39576e-16 0)
(1 2.62515e-15 0)
(1 2.60078e-15 0)
(1 -3.11685e-15 0)
(1 2.48316e-16 0)
(1 -1.76781e-15 0)
(1 2.5594e-15 0)
(1 1.53634e-15 0)
(1 -5.72369e-15 0)
(1 2.05766e-15 0)
(1 -6.11322e-16 0)
(1 4.99248e-15 0)
(1 -2.84522e-16 0)
(1 6.10518e-15 0)
(1 2.5914e-15 0)
(1 8.92868e-15 0)
(1 5.99383e-15 0)
(1 3.71837e-15 0)
(1 -9.84496e-15 0)
(1 -7.53921e-15 0)
(1 -6.82524e-15 0)
(1 8.49581e-15 0)
(1 3.41824e-15 0)
(1 9.76696e-16 0)
(1 1.52769e-15 0)
(1 2.12032e-16 0)
(1 -2.07668e-15 0)
(1 6.70476e-16 0)
(1 1.4188e-15 0)
(1 -7.53115e-16 0)
(1 -2.87504e-15 0)
(1 -3.38829e-16 0)
(1 -8.46497e-16 0)
(1 4.5872e-15 0)
(1 -6.09517e-15 0)
(1 1.35042e-15 0)
(1 -1.03682e-15 0)
(1 -6.46469e-16 0)
(1 1.29095e-15 0)
(1 7.30095e-15 0)
(1 7.77507e-15 0)
(1 6.0731e-15 0)
(1 8.44932e-15 0)
(1 -1.6697e-15 0)
(1 -1.12748e-15 0)
(1 -7.90393e-15 0)
(1 -3.4752e-15 0)
(1 2.11523e-15 0)
(1 5.49318e-15 0)
(1 4.4932e-15 0)
(1 2.62108e-15 0)
(1 2.89136e-15 0)
(1 5.15803e-15 0)
(1 7.04675e-15 0)
(1 9.31857e-15 0)
(1 4.49383e-15 0)
(1 -7.2153e-16 0)
(1 1.93085e-15 0)
(1 6.76704e-15 0)
(1 9.29152e-15 0)
(1 5.19705e-15 0)
(1 6.07483e-15 0)
(1 1.81803e-15 0)
(1 -6.78789e-15 0)
(1 -1.18137e-15 0)
(1 1.19956e-14 0)
(1 1.08685e-14 0)
(1 1.45229e-14 0)
(1 1.50486e-14 0)
(1 5.62711e-15 0)
(1 7.57583e-15 0)
(1 2.07631e-15 0)
(1 5.86221e-15 0)
(1 2.49577e-15 0)
(1 2.87938e-15 0)
(1 6.93754e-15 0)
(1 2.92822e-15 0)
(1 7.51277e-15 0)
(1 1.99971e-15 0)
(1 -1.25042e-15 0)
(1 -3.63857e-15 0)
(1 -2.23422e-15 0)
(1 -1.01994e-15 0)
(1 3.9739e-15 0)
(1 5.96581e-15 0)
(1 4.8137e-15 0)
(1 3.75019e-15 0)
(1 2.97003e-15 0)
(1 3.43896e-15 0)
(1 7.112e-15 0)
(1 5.88533e-15 0)
(1 7.82259e-15 0)
(1 4.1676e-15 0)
(1 1.60937e-14 0)
(1 9.37065e-15 0)
(1 2.05807e-14 0)
(1 1.1111e-14 0)
(1 2.15638e-14 0)
(1 2.01955e-14 0)
(1 -1.44983e-16 0)
(1 -4.13489e-15 0)
(1 1.98763e-15 0)
(1 1.92775e-15 0)
(1 2.76613e-15 0)
(1 -7.72368e-15 0)
(1 4.24841e-15 0)
(1 -1.29177e-14 0)
(1 4.1007e-15 0)
(1 2.13555e-15 0)
(1 -4.65273e-15 0)
(1 -3.59992e-15 0)
(1 -1.61685e-15 0)
(1 3.93101e-15 0)
(1 1.29841e-14 0)
(1 9.89453e-15 0)
(1 1.2895e-14 0)
(1 3.02975e-15 0)
(1 -1.41113e-15 0)
(1 -4.44094e-15 0)
(1 -4.07228e-16 0)
(1 -2.29274e-15 0)
(1 -1.21466e-14 0)
(1 -9.09233e-15 0)
(1 -9.55108e-15 0)
(1 2.2348e-15 0)
(1 3.95852e-15 0)
(1 2.59112e-15 0)
(1 8.90983e-15 0)
(1 4.02198e-15 0)
(1 -2.73155e-15 0)
(1 -2.66287e-15 0)
(1 1.04393e-16 0)
(1 -7.15377e-15 0)
(1 -6.81977e-16 0)
(1 -4.36514e-15 0)
(1 5.77593e-15 0)
(1 6.2018e-15 0)
(1 9.11369e-15 0)
(1 -6.77637e-15 0)
(1 6.58526e-15 0)
(1 9.87426e-15 0)
(1 1.00135e-14 0)
(1 2.38368e-15 0)
(1 2.30074e-15 0)
(1 3.33645e-17 0)
(1 -2.51529e-15 0)
(1 -3.00566e-15 0)
(1 2.25772e-15 0)
(1 2.55343e-15 0)
(1 -1.15543e-15 0)
(1 -3.24588e-15 0)
(1 7.68108e-15 0)
(1 7.05979e-15 0)
(1 1.15592e-14 0)
(1 -1.79171e-16 0)
(1 9.7159e-15 0)
(1 -1.09238e-15 0)
(1 4.32343e-15 0)
(1 1.63069e-15 0)
(1 8.7684e-15 0)
(1 1.54817e-15 0)
(1 3.66364e-15 0)
(1 -6.3876e-16 0)
(1 1.02299e-15 0)
(1 9.24272e-15 0)
(1 1.17725e-14 0)
(1 8.60775e-15 0)
(1 1.32776e-14 0)
(1 5.13352e-15 0)
(1 3.39665e-15 0)
(1 5.91842e-15 0)
(1 5.11103e-15 0)
(1 2.05956e-15 0)
(1 -4.74649e-15 0)
(1 3.83224e-15 0)
(1 1.37955e-14 0)
(1 1.74416e-14 0)
(1 7.14293e-15 0)
(1 5.49299e-15 0)
(1 3.27059e-15 0)
(1 -4.59629e-15 0)
(1 3.44385e-17 0)
(1 -3.37408e-15 0)
(1 3.77751e-15 0)
(1 2.17366e-17 0)
(1 6.25502e-15 0)
(1 4.19486e-15 0)
(1 1.29956e-15 0)
(1 3.2664e-15 0)
(1 3.78373e-15 0)
(1 6.66343e-15 0)
(1 5.1235e-15 0)
(1 4.20263e-15 0)
(1 8.45472e-15 0)
(1 7.77889e-15 0)
(1 8.75243e-15 0)
(1 1.4275e-14 0)
(1 1.81878e-14 0)
(1 1.47403e-14 0)
(1 2.8797e-15 0)
(1 -5.34601e-15 0)
(1 1.17451e-15 0)
(1 -1.49926e-15 0)
(1 3.2466e-15 0)
(1 -1.03776e-15 0)
(1 -8.25092e-15 0)
(1 -6.01961e-15 0)
(1 -6.71838e-15 0)
(1 5.11589e-15 0)
(1 7.64642e-15 0)
(1 1.14958e-14 0)
(1 1.21639e-15 0)
(1 2.32176e-15 0)
(1 2.52747e-15 0)
(1 -5.45569e-16 0)
(1 7.90994e-15 0)
(1 3.93559e-15 0)
(1 -7.00833e-16 0)
(1 -8.12428e-15 0)
(1 -3.06055e-15 0)
(1 -1.57886e-15 0)
(1 -6.02465e-15 0)
(1 -6.15625e-15 0)
(1 2.58181e-15 0)
(1 4.99134e-15 0)
(1 5.47457e-15 0)
(1 6.82309e-15 0)
(1 6.29262e-15 0)
(1 6.44477e-16 0)
(1 -2.28014e-17 0)
(1 -9.22206e-16 0)
(1 -1.09979e-15 0)
(1 -9.50636e-15 0)
(1 -5.629e-15 0)
(1 -4.02352e-15 0)
(1 5.71379e-15 0)
(1 -4.45617e-16 0)
(1 2.50924e-16 0)
(1 -2.5573e-15 0)
(1 6.06563e-15 0)
(1 8.34366e-15 0)
(1 4.63411e-15 0)
(1 -2.23887e-15 0)
(1 4.2895e-16 0)
(1 3.69402e-15 0)
(1 8.28309e-15 0)
(1 2.31059e-15 0)
(1 1.16892e-15 0)
(1 3.06497e-15 0)
(1 -1.55209e-15 0)
(1 2.45273e-15 0)
(1 5.53198e-15 0)
(1 1.40796e-14 0)
(1 1.22285e-14 0)
(1 5.14192e-16 0)
(1 -2.07929e-15 0)
(1 2.29237e-15 0)
(1 2.99013e-15 0)
(1 1.16943e-15 0)
(1 3.35123e-15 0)
(1 5.68883e-15 0)
(1 5.174e-15 0)
(1 1.16263e-15 0)
(1 6.31042e-15 0)
(1 4.7269e-15 0)
(1 7.51475e-15 0)
(1 1.05223e-14 0)
(1 5.69814e-15 0)
(1 1.79134e-16 0)
(1 1.68296e-15 0)
(1 6.19827e-15 0)
(1 8.72979e-15 0)
(1 2.29487e-15 0)
(1 4.17532e-15 0)
(1 2.76904e-15 0)
(1 5.1411e-15 0)
(1 7.109e-15 0)
(1 4.27933e-15 0)
(1 4.67409e-15 0)
(1 4.66791e-15 0)
(1 5.88494e-15 0)
(1 8.55163e-15 0)
(1 3.24577e-15 0)
(1 2.88505e-15 0)
(1 -2.49207e-15 0)
(1 -2.21504e-15 0)
(1 1.23759e-15 0)
(1 -8.77397e-16 0)
(1 5.91818e-15 0)
(1 1.12996e-15 0)
(1 6.07298e-15 0)
(1 7.48494e-15 0)
(1 1.75025e-14 0)
(1 9.01259e-15 0)
(1 1.24823e-14 0)
(1 9.36251e-15 0)
(1 1.39232e-14 0)
(1 1.22942e-14 0)
(1 8.41004e-15 0)
(1 3.21785e-15 0)
(1 3.60709e-15 0)
(1 -5.73518e-15 0)
(1 -3.93892e-15 0)
(1 9.14166e-16 0)
(1 -1.09837e-16 0)
(1 -5.45994e-15 0)
(1 4.15563e-15 0)
(1 -2.86432e-15 0)
(1 9.67521e-15 0)
(1 1.54915e-14 0)
(1 1.74445e-14 0)
(1 7.83673e-17 0)
(1 -4.59088e-15 0)
(1 -3.42974e-15 0)
(1 -4.43178e-15 0)
(1 -7.61782e-15 0)
(1 7.18425e-15 0)
(1 5.06145e-15 0)
(1 -9.02013e-17 0)
(1 -7.34007e-15 0)
(1 -4.08133e-15 0)
(1 -7.63127e-15 0)
(1 -1.63857e-14 0)
(1 -5.90781e-15 0)
(1 2.09596e-15 0)
(1 1.14411e-14 0)
(1 1.08549e-14 0)
(1 1.36974e-15 0)
(1 -1.20468e-15 0)
(1 -4.88017e-15 0)
(1 -2.54523e-15 0)
(1 -5.85793e-15 0)
(1 -3.28724e-15 0)
(1 1.88591e-16 0)
(1 2.04597e-15 0)
(1 1.21893e-14 0)
(1 -2.43347e-15 0)
(1 4.46722e-16 0)
(1 7.86085e-15 0)
(1 1.4719e-15 0)
(1 -4.59267e-17 0)
(1 -3.25779e-15 0)
(1 3.98115e-15 0)
(1 -3.13457e-17 0)
(1 -5.4426e-16 0)
(1 8.54209e-15 0)
(1 1.4163e-14 0)
(1 3.11994e-15 0)
(1 -4.99774e-16 0)
(1 -1.79921e-15 0)
(1 -1.36848e-15 0)
(1 -1.61438e-15 0)
(1 9.04284e-15 0)
(1 2.40064e-15 0)
(1 3.94012e-15 0)
(1 -2.55006e-15 0)
(1 3.89572e-15 0)
(1 -1.85931e-15 0)
(1 1.46221e-15 0)
(1 -1.02464e-15 0)
(1 1.07129e-14 0)
(1 1.35372e-14 0)
(1 1.30321e-14 0)
(1 9.09269e-15 0)
(1 3.54287e-15 0)
(1 -7.61995e-16 0)
(1 4.82499e-15 0)
(1 2.26557e-15 0)
(1 1.05121e-15 0)
(1 2.53559e-15 0)
(1 5.97531e-15 0)
(1 5.27951e-15 0)
(1 6.47412e-15 0)
(1 9.26508e-15 0)
(1 -9.88448e-16 0)
(1 -4.37705e-15 0)
(1 -1.91746e-15 0)
(1 3.53093e-15 0)
(1 1.95145e-15 0)
(1 5.5559e-16 0)
(1 1.0079e-14 0)
(1 5.398e-15 0)
(1 8.44021e-15 0)
(1 2.80792e-15 0)
(1 8.14514e-15 0)
(1 8.31796e-16 0)
(1 4.09145e-15 0)
(1 -1.27599e-15 0)
(1 2.28795e-15 0)
(1 2.33834e-15 0)
(1 4.37702e-16 0)
(1 1.15871e-15 0)
(1 3.38013e-15 0)
(1 5.777e-15 0)
(1 1.09454e-14 0)
(1 1.20386e-14 0)
(1 1.15596e-14 0)
(1 1.04547e-14 0)
(1 9.11066e-15 0)
(1 -4.36536e-15 0)
(1 6.85251e-15 0)
(1 -2.16776e-15 0)
(1 -1.96808e-15 0)
(1 -3.02184e-15 0)
(1 -4.89838e-15 0)
(1 -2.05839e-15 0)
(1 4.33598e-15 0)
(1 1.3166e-14 0)
(1 1.62489e-14 0)
(1 1.04997e-14 0)
(1 1.69897e-15 0)
(1 2.43398e-16 0)
(1 -3.1183e-15 0)
(1 -4.214e-15 0)
(1 5.95329e-16 0)
(1 -7.31331e-15 0)
(1 -4.36038e-15 0)
(1 -3.63359e-15 0)
(1 -4.8868e-16 0)
(1 -2.28443e-15 0)
(1 -1.30167e-15 0)
(1 -7.19162e-16 0)
(1 1.3337e-15 0)
(1 -1.3296e-15 0)
(1 -2.72085e-15 0)
(1 -5.07461e-15 0)
(1 -2.30379e-15 0)
(1 -3.23262e-15 0)
(1 -5.11784e-16 0)
(1 -2.43133e-15 0)
(1 -1.08205e-14 0)
(1 -4.28122e-15 0)
(1 -1.83669e-15 0)
(1 2.40846e-15 0)
(1 1.30978e-14 0)
(1 7.34593e-15 0)
(1 7.84662e-15 0)
(1 3.27575e-15 0)
(1 4.56234e-15 0)
(1 2.43954e-16 0)
(1 -4.15002e-15 0)
(1 -8.4758e-16 0)
(1 1.26678e-15 0)
(1 4.75806e-15 0)
(1 3.81931e-15 0)
(1 5.23298e-15 0)
(1 6.58635e-15 0)
(1 1.58455e-15 0)
(1 -2.14665e-15 0)
(1 -6.25305e-15 0)
(1 -4.73004e-15 0)
(1 -3.16187e-16 0)
(1 -2.24235e-16 0)
(1 2.74631e-15 0)
(1 2.93587e-15 0)
(1 1.05329e-14 0)
(1 9.90138e-15 0)
(1 5.33515e-15 0)
(1 1.70508e-15 0)
(1 6.0085e-15 0)
(1 5.10322e-15 0)
(1 4.42411e-15 0)
(1 6.53838e-15 0)
(1 4.31024e-15 0)
(1 1.36164e-14 0)
(1 6.32969e-15 0)
(1 8.4153e-15 0)
(1 1.22136e-15 0)
(1 4.59413e-15 0)
(1 3.37937e-15 0)
(1 3.54062e-15 0)
(1 1.39365e-15 0)
(1 1.02143e-14 0)
(1 6.09067e-15 0)
(1 4.05562e-15 0)
(1 6.47509e-15 0)
(1 1.0875e-14 0)
(1 1.40935e-14 0)
(1 5.84071e-15 0)
(1 -2.69952e-16 0)
(1 1.72916e-15 0)
(1 -8.65313e-16 0)
(1 2.14422e-15 0)
(1 4.54175e-15 0)
(1 7.21027e-15 0)
(1 2.45568e-15 0)
(1 5.7116e-15 0)
(1 1.35995e-16 0)
(1 3.8624e-15 0)
(1 5.72648e-15 0)
(1 4.72185e-15 0)
(1 2.27377e-15 0)
(1 -8.36739e-16 0)
(1 3.78343e-15 0)
(1 4.68568e-15 0)
(1 7.63258e-15 0)
(1 1.30723e-14 0)
(1 1.6368e-14 0)
(1 1.68598e-14 0)
(1 -9.93844e-16 0)
(1 5.08135e-15 0)
(1 2.2092e-15 0)
(1 -1.43407e-15 0)
(1 -2.22088e-15 0)
(1 -4.69746e-15 0)
(1 -4.11074e-15 0)
(1 -8.65959e-15 0)
(1 4.90135e-15 0)
(1 7.23607e-15 0)
(1 1.32559e-14 0)
(1 5.63222e-15 0)
(1 1.0846e-14 0)
(1 7.7196e-16 0)
(1 -7.98016e-15 0)
(1 -8.73706e-15 0)
(1 -9.791e-15 0)
(1 -1.31353e-14 0)
(1 -5.7644e-15 0)
(1 -4.13426e-15 0)
(1 -5.31182e-17 0)
(1 2.40242e-15 0)
(1 1.48936e-15 0)
(1 2.25632e-14 0)
(1 2.10125e-14 0)
(1 7.60645e-15 0)
(1 -9.55264e-15 0)
(1 -8.41819e-15 0)
(1 -7.14027e-15 0)
(1 -3.15793e-15 0)
(1 -8.54862e-15 0)
(1 -5.90532e-15 0)
(1 -3.20497e-15 0)
(1 -7.3567e-15 0)
(1 -3.61164e-16 0)
(1 3.84478e-15 0)
(1 5.77825e-15 0)
(1 1.25021e-14 0)
(1 3.53468e-15 0)
(1 4.9421e-18 0)
(1 3.08909e-15 0)
(1 -2.24801e-15 0)
(1 8.96194e-16 0)
(1 8.63523e-18 0)
(1 3.97698e-15 0)
(1 5.41242e-15 0)
(1 9.42288e-16 0)
(1 1.50568e-15 0)
(1 -2.11315e-15 0)
(1 -5.22682e-15 0)
(1 3.39152e-15 0)
(1 5.61708e-15 0)
(1 5.02796e-15 0)
(1 9.76095e-16 0)
(1 6.63081e-15 0)
(1 2.87384e-15 0)
(1 4.93864e-15 0)
(1 7.33179e-15 0)
(1 5.47419e-15 0)
(1 3.48741e-15 0)
(1 4.17105e-15 0)
(1 1.96377e-15 0)
(1 1.0308e-14 0)
(1 2.48046e-15 0)
(1 6.46199e-15 0)
(1 6.85042e-15 0)
(1 1.18702e-14 0)
(1 1.31718e-14 0)
(1 9.88148e-15 0)
(1 1.03171e-14 0)
(1 9.57481e-15 0)
(1 9.84571e-15 0)
(1 1.25697e-15 0)
(1 2.60066e-15 0)
(1 2.53802e-15 0)
(1 9.06161e-15 0)
(1 8.21969e-15 0)
(1 5.62099e-15 0)
(1 5.92912e-15 0)
(1 4.47525e-15 0)
(1 7.1135e-15 0)
(1 2.23672e-15 0)
(1 3.24467e-15 0)
(1 -2.06387e-15 0)
(1 6.32928e-15 0)
(1 5.05452e-15 0)
(1 2.76243e-15 0)
(1 -1.68453e-15 0)
(1 4.61475e-15 0)
(1 -8.98198e-16 0)
(1 5.7007e-16 0)
(1 1.87318e-15 0)
(1 4.02869e-15 0)
(1 4.8735e-15 0)
(1 1.07036e-14 0)
(1 6.76882e-15 0)
(1 5.4223e-15 0)
(1 1.19964e-14 0)
(1 1.6302e-14 0)
(1 1.72937e-14 0)
(1 -2.26669e-15 0)
(1 4.63953e-15 0)
(1 -7.55075e-15 0)
(1 2.00301e-15 0)
(1 2.05706e-15 0)
(1 3.12798e-15 0)
(1 1.244e-14 0)
(1 4.03022e-15 0)
(1 1.57345e-15 0)
(1 -2.34023e-15 0)
(1 6.93991e-16 0)
(1 -9.7169e-16 0)
(1 3.40979e-15 0)
(1 5.49046e-15 0)
(1 3.65269e-17 0)
(1 -7.71127e-15 0)
(1 -1.44115e-15 0)
(1 -8.73334e-15 0)
(1 -5.63427e-15 0)
(1 -8.01081e-15 0)
(1 -1.58227e-15 0)
(1 2.76559e-15 0)
(1 3.70287e-15 0)
(1 -7.00995e-15 0)
(1 -4.05508e-15 0)
(1 -2.89029e-16 0)
(1 -7.8907e-15 0)
(1 2.76145e-15 0)
(1 -6.25106e-15 0)
(1 -3.91837e-15 0)
(1 -1.42071e-14 0)
(1 3.29818e-15 0)
(1 -5.94573e-15 0)
(1 7.07209e-15 0)
(1 8.88185e-15 0)
(1 6.18231e-15 0)
(1 9.48117e-15 0)
(1 -1.24853e-15 0)
(1 1.46257e-15 0)
(1 1.05002e-16 0)
(1 -1.3463e-15 0)
(1 -8.06907e-16 0)
(1 1.03226e-15 0)
(1 5.64141e-15 0)
(1 4.58195e-15 0)
(1 -4.67313e-15 0)
(1 2.18505e-16 0)
(1 3.71811e-15 0)
(1 2.8644e-15 0)
(1 -8.02995e-15 0)
(1 4.38613e-15 0)
(1 4.37302e-15 0)
(1 6.30839e-15 0)
(1 4.88164e-16 0)
(1 3.97448e-15 0)
(1 2.14144e-15 0)
(1 8.80642e-15 0)
(1 5.53893e-15 0)
(1 2.91573e-15 0)
(1 -9.89003e-17 0)
(1 -2.76782e-15 0)
(1 2.51026e-15 0)
(1 2.91952e-15 0)
(1 6.24421e-15 0)
(1 8.26792e-15 0)
(1 -3.45454e-15 0)
(1 5.79697e-16 0)
(1 8.17164e-16 0)
(1 1.38404e-14 0)
(1 1.28336e-14 0)
(1 9.12845e-15 0)
(1 7.97157e-16 0)
(1 4.77384e-15 0)
(1 1.56562e-15 0)
(1 2.99636e-15 0)
(1 7.82992e-15 0)
(1 6.09255e-15 0)
(1 9.08622e-15 0)
(1 3.36861e-15 0)
(1 8.7104e-15 0)
(1 2.1017e-15 0)
(1 8.42976e-15 0)
(1 4.34269e-15 0)
(1 8.1884e-16 0)
(1 1.19382e-15 0)
(1 -7.32048e-17 0)
(1 1.63718e-15 0)
(1 -4.9154e-16 0)
(1 5.74409e-15 0)
(1 2.0699e-15 0)
(1 -2.91437e-15 0)
(1 3.75766e-15 0)
(1 4.45569e-15 0)
(1 3.53962e-15 0)
(1 3.83183e-15 0)
(1 6.5376e-15 0)
(1 6.07186e-15 0)