/*--------------------------------*- C++ -*----------------------------------*\
| =========                 |                                                 |
| \\      /  F ield         | OpenFOAM: The Open Source CFD Toolbox           |
|  \\    /   O peration     | Version:  v2012                                 |
|   \\  /    A nd           | Website:  www.openfoam.com                      |
|    \\/     M anipulation  |                                                 |
\*---------------------------------------------------------------------------*/
FoamFile
{
    version     2.0;
    format      ascii;
    class       volScalarField;
    location    "0";
    object      p;
}
// * * * * * * * * * * * * * * * * * * * * * * * * * * * * * * * * * * * * * //

dimensions      [0 2 -2 0 0 0 0];


internalField   nonuniform List<scalar> 
4000
(
0.205924
0.26707
0.235177
0.159694
-0.0954445
0.328269
0.330348
0.0712906
0.0956654
0.100647
0.0660877
0.0166406
-0.0617186
-0.174279
-0.189207
-0.246063
-0.138135
-0.0594192
-0.110858
-0.192384
0.00572592
0.0952665
0.0470694
0.0724171
0.0395492
0.0927055
0.239934
0.248552
0.149042
-0.0978922
-0.0956054
-0.0960369
-0.119655
-0.0634784
0.0504154
0.100843
0.122143
0.230607
0.271773
0.156802
0.074598
0.0436161
0.0548937
-0.143268
-0.154978
-0.245935
-0.192742
-0.248191
-0.217806
-0.0535073
-0.239206
-0.19951
-0.212407
-0.194289
-0.156109
-0.117901
-0.0845979
-0.0210118
-0.0742573
-0.100891
-0.164479
0.00405282
-0.0393457
-0.0691338
-0.0725589
-0.120522
-0.0360817
0.0645435
0.0214352
-0.0265144
0.0975603
0.110751
0.216598
0.110316
-0.067693
-0.0945815
-0.0368854
-0.151343
-0.165328
0.0118153
0.0158214
-0.0742351
-0.0126625
-0.00964457
-0.11878
-0.176274
-0.191558
-0.15684
0.058271
0.0556733
0.124329
0.061589
0.00653702
0.0163029
-0.0149215
-0.0438815
0.0384399
0.199558
0.286333
0.117604
0.169279
0.201443
0.243145
0.212821
0.152762
0.209744
0.175681
0.0611373
0.108408
0.0736823
0.0068861
0.0235823
-0.0244448
-0.0960369
-0.200577
-0.207906
-0.168155
-0.105303
-0.119683
-0.175181
-0.0458036
0.0726425
0.153421
0.0809332
0.0342668
0.0773873
0.183775
0.213498
0.124098
-0.0447289
0.0152654
-0.0405404
-0.120926
-0.0133469
0.0542971
0.0325819
0.139645
0.220268
0.197353
0.290425
0.118707
-0.0136181
-0.0624823
-0.1875
-0.189005
-0.207725
-0.121542
-0.148547
-0.274413
-0.0863133
-0.211637
-0.209867
-0.263339
-0.254583
-0.11223
-0.129461
-0.107371
-0.0729999
-0.0258037
-0.0321608
-0.0970608
-0.0240485
0.00428903
-0.100173
-0.166275
-0.0858508
-0.00155868
0.0100872
0.0861346
-0.0279851
0.0942949
0.114196
0.200592
0.112257
-0.0298433
-0.121262
-0.0791842
-0.0808347
-0.065843
-0.0852156
-0.0624873
-0.0163696
-0.0758901
-0.0374033
-0.0691248
-0.0891753
-0.125716
-0.144574
-0.0616026
0.0904118
0.07847
-0.00300935
0.0607615
0.0274694
0.00500147
-0.0253782
0.0781008
0.227487
0.210663
0.0590501
0.243099
0.225685
0.168913
0.202109
0.0753735
0.142179
0.173646
0.0440695
0.171384
0.102945
0.0968598
0.050458
-0.0825964
-0.257392
-0.260297
-0.155074
-0.163023
-0.136563
-0.19208
-0.0679717
0.0915882
-0.0262783
0.0692475
0.127654
0.0115569
0.0825904
0.127477
0.230383
0.0959045
-0.006776
-0.0691599
-0.0321558
-0.0163427
-0.050127
-0.0578438
0.00966309
0.116947
0.21564
0.298982
0.28875
0.127002
0.00388429
-0.0460894
-0.14966
-0.229099
-0.22208
-0.137107
-0.16551
-0.135739
-0.0813364
-0.227344
-0.305845
-0.246354
-0.146631
-0.167584
-0.149138
-0.0918729
-0.0559918
-0.0355124
0.0132622
-0.0480382
-0.0969261
-0.00664281
-0.0481536
-0.148406
-0.0885801
-0.00767449
-0.0206657
0.0697575
0.0218617
0.0107629
0.134498
0.198476
0.136704
-0.011297
-0.0452836
-0.105694
-0.0739766
-0.0721906
-0.0564979
-0.0964948
0.0198518
-0.0785185
-0.0784231
-0.0414158
-0.0685953
-0.20782
-0.134062
-0.0252007
0.0126487
0.0343814
0.0680722
0.0939076
0.0470899
-0.0277735
0.0410197
0.0482246
0.232126
0.268467
0.0719418
0.217661
0.130847
0.162361
0.22455
0.0420635
0.0917033
0.162477
0.0671837
0.14855
0.102318
0.046254
-0.0321168
-0.0750318
-0.0640234
-0.242327
-0.336723
-0.194877
-0.107485
-0.127989
0.0105395
0.0445911
0.0408999
0.0489091
0.142734
0.0186209
0.0759226
0.0524827
0.0344836
0.00710711
-0.00162105
0.0124421
-0.00268974
-0.00324249
0.105135
-0.00937552
0.0919007
0.0820596
0.0731948
0.230569
0.270014
0.197698
0.0752141
-0.0602065
-0.225482
-0.166287
-0.14105
-0.206168
-0.118196
-0.06903
-0.0622131
-0.105459
-0.18758
-0.234372
-0.212553
-0.14366
-0.134264
-0.0710298
-0.0293593
-0.0677233
-0.0279958
-0.0287915
-0.01749
-0.00941408
-0.0629557
-0.137635
-0.0481709
-0.0404224
0.0595033
0.0956776
0.0779175
0.0350194
0.0732551
0.133835
0.0749737
-0.0497224
-0.0149162
-0.164044
-0.118518
-0.0268641
-0.0889607
-0.0770244
-0.0657707
-0.0560044
-0.0159408
-0.0553187
-0.017101
-0.138288
-0.126443
-0.0289802
-0.0405712
0.00503328
0.0539739
0.102987
0.0351145
-0.0187907
0.0208816
0.0678255
0.241735
0.233845
0.0414965
0.241494
0.146253
0.16975
0.19449
0.0382399
0.0522131
0.107172
0.078523
0.103732
0.0208753
0.0901781
-0.00385404
-0.129235
-0.173085
-0.210324
-0.233555
-0.106638
-0.0847579
-0.134762
-0.052517
-0.055098
-0.0065409
0.0760021
0.111004
0.0191969
0.0652537
0.146163
0.100122
-0.0421531
-0.0673812
-0.00252829
-0.00036319
-0.0802061
0.039787
0.0874303
0.0808447
0.148497
0.157974
0.25981
0.194571
0.126934
0.0915377
-0.0608112
-0.196498
-0.208373
-0.142146
-0.0802913
-0.0212345
-0.119441
-0.113586
-0.118237
-0.13416
-0.224064
-0.159261
-0.123553
-0.11585
-0.161808
0.0320253
0.0161212
-0.0563144
0.02742
-0.0606393
-0.0808413
-0.101861
-0.0983618
-0.0743655
-0.0482572
0.14826
0.137757
0.0442063
-0.0632045
0.0933869
0.184398
0.0502158
-0.0108974
-0.0432852
-0.128562
-0.019977
-0.0424723
-0.0584829
-0.102516
-0.0596428
-0.0355708
-0.0172815
-0.00787154
-0.114861
-0.144038
-0.113313
-0.0503281
-0.054062
0.0136903
0.0301013
0.0833878
-0.00584956
-0.0218202
0.1078
0.132716
0.233927
0.159019
-0.0234377
0.188289
0.0654049
0.156477
0.138564
-0.00111406
0.0378637
-0.027513
0.129266
0.22515
0.0717359
-0.0492601
-0.0465913
-0.0785316
-0.138714
-0.205846
-0.16712
-0.173977
-0.124666
-0.139222
-0.00468865
-0.0696841
0.15952
0.220436
0.0180515
-0.00283639
-0.00566254
0.0363524
0.0507802
-0.0121561
-0.0279965
0.00686659
-0.0257404
0.00265307
0.119325
0.202255
0.0745044
0.0921619
0.120173
0.199937
0.115863
0.0706992
0.0693835
-0.0479161
-0.130004
-0.16397
-0.059111
-0.112716
0.0491656
-0.102731
-0.10159
-0.026132
-0.0839215
-0.114214
-0.168167
-0.0898818
-0.138918
-0.0277221
-1.65755e-05
-0.0396749
-0.0110973
-0.000631788
-0.119846
-0.0899117
-0.137689
-0.0212003
-0.0775066
0.00434187
0.135786
0.0615771
0.116903
-0.00194435
-0.0409617
0.0760663
0.0248786
0.0116162
-0.020471
-0.0826703
-0.0628474
-0.0695162
-0.0571326
-0.0355018
-0.094678
-0.030203
-0.00146674
-0.0895589
-0.105853
-0.0968325
-0.0534799
0.0358112
-0.0123291
-0.0387439
0.0478814
0.0610766
0.0657864
-0.0350144
0.00234181
0.134597
0.250655
0.0858181
-0.00323655
0.128377
0.178142
0.0898297
0.0985764
-0.0335384
-0.00900222
0.0814347
0.101249
0.0616609
0.0971786
0.0919723
-0.0439102
-0.164646
-0.10744
-0.160549
-0.0879068
-0.20327
-0.106318
-0.0819448
-0.0663762
-0.00949416
0.0785917
0.0595379
-0.0146507
0.0670411
-0.00712545
0.0303994
0.0224958
-0.0353421
0.0173033
0.0786404
0.0407308
0.0842095
-0.0183479
0.129997
0.217318
0.125657
-0.11936
0.0423334
0.139134
0.10698
0.0764432
0.010335
-0.0632038
-0.00184816
-0.0686002
-0.131717
-0.118717
-0.0600163
-0.01954
-0.170849
-0.125891
-0.0109054
0.00602882
-0.102726
-0.0611525
-0.0246049
0.0284503
-0.0309747
-0.0170222
-0.0235018
-0.171452
-0.155919
-0.0851207
-0.0264601
0.00422555
0.0623903
0.101829
0.108999
0.0539063
-0.00116752
-0.00124841
-0.0296207
-0.0523451
0.025033
0.0606009
-0.0180306
0.0378836
0.0206244
-0.0980653
-0.144966
-0.142981
0.0282054
-0.0136371
-0.121795
-0.194688
-0.0654259
0.00624332
-0.0437688
-0.0131532
0.0391317
0.074021
0.0685518
0.0655086
0.0497652
0.0135376
0.12567
0.177531
0.0952921
-0.0251046
0.0102467
0.142127
0.0885269
-0.0724162
-0.00662017
0.0923417
0.0568024
-0.0179694
-0.0427654
0.0408707
0.0576249
0.0545764
-0.0126654
-0.0486554
-0.106252
-0.0674769
-0.138108
-0.0713244
-0.135105
-0.0945284
-0.0884767
-0.0235934
0.0209185
0.0824233
0.0311606
0.0558352
0.0440431
0.00612739
0.0030505
0.0185606
0.0833556
0.140157
0.110285
0.0354108
0.0369113
0.153403
0.137791
-0.0250238
-0.0298821
0.0957821
0.0885951
-0.0181236
-0.0624059
0.0222236
-0.0897372
-0.0864504
-0.0567661
0.072386
0.0713413
-0.0664378
-0.151783
-0.085048
-0.0428017
0.0754585
-0.0749171
0.00233378
0.0607928
-0.0132614
-0.0195893
-0.0608125
-0.106949
-0.127933
-0.120757
-0.0403865
-0.0273696
-0.0132412
0.0254469
0.123081
0.0117325
0.0127008
0.00661367
0.022274
-0.000111411
0.0201072
0.0783381
0.0469449
-0.00140457
-0.0358859
-0.0234694
-0.0687638
-0.00757623
-0.106593
-0.0181196
0.0176534
-0.0592346
-0.0873694
-0.0528694
-0.047561
-0.075194
0.0047145
0.0377912
0.147857
0.134007
0.0371904
0.057855
-0.052197
0.0741641
0.123992
0.0882042
0.0275758
-0.016151
-0.0156769
0.0409211
-0.0395989
-0.0266997
-0.061795
-0.0325779
-0.00502903
0.0372681
0.0611418
0.00814746
0.0143201
-0.0041411
-0.0387144
-0.0761619
-0.0420078
-0.0769672
-0.0655579
-0.078397
-0.0690008
-0.0680007
0.0189102
-0.0944074
0.00137177
0.0621759
0.0474008
0.106048
0.0028916
-0.0245562
0.0421876
0.0924467
0.0374201
0.00853755
0.0152329
-0.00599993
0.112819
0.215992
0.163552
-0.0682002
-0.149386
-0.0186464
0.122494
0.0571957
0.00947783
-0.06076
0.000509936
-0.00268688
-0.0312466
-0.00258909
-0.0126056
-0.0730225
-0.00462199
0.0131408
0.073606
0.0219159
0.0341935
0.00913965
0.0206913
0.031836
-0.0997703
-0.213709
-0.0759683
-0.0624152
-0.0216283
0.00786439
0.0303276
0.0794419
0.0389782
-0.0204366
0.0760695
0.0426363
-0.00336635
-0.0580302
0.0940704
0.0508624
0.0326711
0.0399301
-0.0245624
-0.0340817
0.0830212
-0.0330201
-0.0899378
-0.0379351
-0.0243773
-0.0660512
0.0461598
-0.0535156
-0.095956
-0.00689088
0.00674694
0.0802768
0.142351
0.155205
0.0218355
0.0743877
0.0247794
0.0825479
0.0546301
0.0923521
0.0317321
-0.0528758
-0.0859746
-0.0373465
-0.0624403
-0.0877555
-0.10333
-0.137434
-0.0855484
-0.02971
0.0839118
0.148001
0.0962708
-0.0270001
-0.10482
0.0544715
0.121626
0.0350674
-0.208506
-0.143698
-0.049433
-0.100963
-0.0697967
-0.0600648
0.124032
0.147689
-0.0714449
0.0479601
0.0373409
-0.0454998
0.0227055
0.0311391
0.0518456
0.160309
0.114908
-0.0410328
0.0369449
0.0467453
0.0330428
-0.0187603
-0.049069
-0.10532
0.000318547
0.00722316
0.0492579
-0.0250815
0.0583109
0.0634786
0.0656035
0.128283
0.106612
-0.0501097
0.00446727
0.0433867
0.0978917
0.050976
0.0359354
-0.0575146
-0.031429
0.0866061
-0.0112507
-0.0823255
-0.0164868
-0.0880635
-0.0915624
0.046916
0.131946
0.144236
0.0410555
-0.0129171
0.0649566
0.0287169
-0.0371747
0.000190791
0.0553937
0.00194994
0.00703342
0.0189521
-0.00744767
-0.0164036
0.110894
0.0688895
-0.0734779
0.00521447
-0.0306549
-0.0665344
0.0418611
-0.121652
0.0820569
0.0188083
0.00618027
0.088609
0.186752
0.145611
0.0700791
0.0203326
-0.000117462
-0.0138208
0.034075
0.197734
0.089627
-0.0897532
-0.0857307
-0.0536942
-0.106388
-0.14028
-0.151753
-0.131195
-0.129585
-0.0338199
0.0732158
0.086337
0.118695
0.0954106
-0.116204
0.018552
0.097794
-0.0354695
-0.0128328
-0.0988019
-0.117721
-0.020219
-0.0927355
-0.0813095
-0.0277256
0.0128873
-0.012181
0.114163
0.0857193
0.038777
-0.0172768
-0.0985957
0.067031
0.102653
0.111143
-0.0152812
-0.0468137
0.0726003
0.0497189
-0.0539209
-0.0721968
-0.0538909
-0.00313577
0.0517846
-0.0383044
-0.0580152
0.06469
0.19041
0.0275438
0.103867
0.173975
-0.00997916
0.0280141
0.107895
0.135906
0.0874012
0.0655403
-0.00127485
0.0351946
0.0162
0.0613606
0.0214742
0.0131424
-0.104632
-0.169941
0.053226
0.243952
0.146238
0.0275882
0.00276107
-0.00735676
-0.122365
-0.0465014
0.0333747
0.0584698
-0.00723766
0.072583
-0.0158309
-0.00609698
0.0116692
0.0917756
0.0318312
-0.0343284
0.0107817
0.011596
0.0386297
0.111434
-0.0360843
0.0104823
0.0308828
0.0289397
0.0633955
0.128011
0.0883705
0.030526
0.118393
0.0998167
0.0391824
-0.0991949
0.133453
0.0664205
-0.180998
-0.133272
-0.0533316
-0.172262
-0.224439
-0.158245
-0.213479
-0.165217
0.0384391
0.0274359
0.0658066
0.111748
0.19909
0.014105
0.0538737
-0.01903
-0.0203376
-0.00235532
-0.0889806
-0.0215976
-0.0501095
-0.189541
-0.0273727
0.125145
0.0957021
-0.058075
0.0188369
0.112924
0.00589441
-0.172442
-0.0506593
0.164518
0.0864791
0.0379837
-0.0664305
0.0302188
-0.000751965
0.00793302
-0.0978577
-0.0744497
0.0723404
-0.0133011
-0.080791
-0.0047509
-0.0593934
-0.00209493
0.194757
0.219741
0.161747
0.173025
0.1022
0.19628
0.127902
0.11174
0.0884661
0.116479
0.0620081
0.0212817
0.0459159
0.0689969
0.00106366
-0.055364
0.00288931
0.0181489
0.104413
0.156551
0.173244
0.0958107
-0.0726578
-0.117488
-0.105497
0.0439177
0.0636782
-0.0774973
0.0131778
0.149228
0.121966
-0.0199438
-0.0265246
0.176135
-0.00644368
-0.0889627
0.0218659
0.0700977
0.0211397
0.028119
0.029185
0.101881
0.13904
0.0835181
0.123282
0.133085
0.00249838
-0.0050711
0.0418355
0.0121148
0.0646175
0.0884394
0.0840636
0.0457242
-0.185992
-0.169833
-0.101968
-0.168558
-0.186184
-0.238095
-0.178212
-0.279244
-0.11025
0.0566294
0.248679
0.14781
0.125713
0.0925318
-0.0221599
-0.0548172
0.075881
0.0606395
-0.0172595
-0.0254597
-0.126894
-0.176749
-0.0595123
0.131923
0.121627
0.100458
0.0596692
-0.0538991
-0.106397
-0.0886121
-0.00397555
0.107137
0.0299547
-0.0200371
0.00335661
0.0158437
-0.0271671
-0.0389388
-0.0912275
-0.00113736
-0.00401194
-0.0110735
-0.0607372
0.0568042
-0.0270156
0.0786352
0.148547
0.246734
0.292397
0.248494
0.211802
0.177029
0.158431
0.087069
0.0483613
0.115231
0.164232
0.108263
0.00703723
0.0630342
0.0626859
0.0746481
0.0314092
-0.0468775
0.0104161
0.148347
0.217565
0.0786434
-0.106352
-0.145587
-0.0933367
-0.014257
0.126533
0.0825674
0.13282
0.0367529
-0.0238189
-0.0246153
0.0626705
0.178419
0.04129
0.0703656
0.104221
0.0129049
0.0317658
0.0577741
0.0209223
0.034342
0.197979
0.193205
0.0754118
0.0836352
0.0596815
-0.0326614
0.0615878
0.0567264
0.0951302
0.0408937
0.069515
0.0732229
-0.193213
-0.24884
-0.186679
-0.21037
-0.252845
-0.280926
-0.0861361
-0.10427
0.00130582
0.0703754
0.209139
0.159057
0.020052
-0.0341813
0.0255989
0.0622322
0.101443
0.129001
-0.131125
-0.0919522
0.0523624
-0.0588095
-0.199147
-0.00371276
0.165231
0.271953
0.0834703
-0.0278478
-0.141999
-0.10926
-0.0790732
0.0939191
0.102016
0.0648249
-0.0375333
-0.0919647
-0.0659835
-0.121711
-0.033249
-0.037851
-0.0290563
-0.0833147
-0.0594092
0.0444837
-0.0283401
0.221588
0.229798
0.193116
0.296639
0.298235
0.320647
0.26152
0.150256
0.113249
0.148015
0.228908
0.0766922
0.155704
0.0765955
0.000448067
0.102568
0.0320731
0.0524198
0.0716752
0.128402
0.139993
0.127439
0.0577427
-0.100657
-0.10287
-0.0237139
-0.00146846
0.0388099
-0.00669101
0.0850986
0.0183707
0.0711235
0.0845143
0.0750188
0.160859
0.112149
0.119791
0.104287
-0.0112889
0.00804558
0.12332
0.0673223
0.0429255
0.185009
0.150247
0.11971
0.0480125
0.025702
-0.0676038
-0.0127136
0.0827443
0.0972122
0.030457
0.0804484
0.0430124
-0.28705
-0.219606
-0.199683
-0.264213
-0.310556
-0.227143
-0.141354
-0.0676361
0.055171
0.0921431
0.0929799
0.0552634
0.078005
0.113045
0.165647
0.074876
-0.0466475
-0.0552908
-0.0537551
0.0923651
0.0111603
0.0649581
-0.0291661
-0.195416
-0.0221981
0.0133511
-0.051306
-0.00973109
-0.0970199
-0.0595089
-0.143958
-0.0123322
0.158503
0.0521695
0.0473058
0.00730265
-0.0121431
-0.0648594
-0.139754
-0.00544167
-0.108907
-0.174583
-0.139548
-0.0726304
0.102619
0.241488
0.261241
0.283007
0.294221
0.227986
0.256008
0.135618
0.261656
0.245249
0.136576
0.200852
0.0972021
0.0696665
0.108078
0.156447
0.0987856
-0.0156563
0.0225396
0.124767
0.18433
0.0933655
0.0615056
0.0270005
-0.068739
-0.0622396
-0.115111
-0.060107
0.0495641
0.0655019
0.0647761
0.0350498
0.0625567
0.133929
0.0739236
0.0507194
0.106023
0.166951
0.1284
0.0494992
0.000236402
0.0880457
0.0460223
0.0251234
0.247885
0.225425
0.09774
-0.0200414
0.00469911
-0.0307013
-0.0312088
0.0347008
0.138277
0.0841375
0.103881
0.0559246
-0.241479
-0.290553
-0.326668
-0.381583
-0.178286
-0.106487
-0.115108
-0.0700233
0.0691654
0.15868
0.197109
0.04805
0.040896
-0.0444243
0.071479
0.0192711
0.00116331
0.219634
0.0512189
-0.110593
-0.157927
-0.176346
0.0444225
0.140747
0.00771737
-0.071867
-0.124292
-0.047258
-0.041315
-0.162095
-0.152031
0.151361
0.158398
0.146619
0.0505019
-0.060962
-0.128683
-0.0878863
-0.183326
-0.177522
-0.0958268
-0.137008
-0.152972
-0.0343124
0.0973597
0.265101
0.327399
0.115576
0.214935
0.4047
0.463865
0.157371
0.179973
0.241058
0.148329
0.132595
0.0676406
0.0960577
0.0826767
0.000449452
0.0302858
0.0800509
0.0470888
0.147781
0.269646
0.145385
0.0306218
-0.00552799
-0.0454164
-0.0211107
-0.117349
-0.0766066
-0.0813532
0.0350613
0.0478364
0.0412481
0.0172386
0.133295
0.0991697
0.172771
0.157115
0.15863
0.132804
0.0743842
0.0359166
-0.00978197
0.0479559
0.130899
0.14124
0.121639
0.0743142
0.0251918
0.060352
-0.00554952
-0.126855
0.00580298
0.0806993
0.179321
0.0971301
0.0580872
-0.271965
-0.282563
-0.271533
-0.223787
-0.205574
-0.155383
-0.0678483
-0.0114086
0.00867015
0.0522872
-0.00124473
0.0365951
0.151909
0.0863989
0.179814
0.0185953
-0.00869061
0.0243453
-0.0588702
-0.0231376
-0.0356716
-0.0372341
-0.00272058
-0.067328
0.00403555
-0.0358457
-0.0855575
-0.155232
-0.157402
-0.119214
-0.0897483
0.082234
0.111862
0.238365
0.0833799
0.00613152
-0.12046
-0.188706
-0.11644
-0.19414
-0.221304
-0.131144
-0.0163225
0.0416885
0.08921
0.23817
0.349782
0.154449
0.111984
0.290687
0.342109
0.174369
0.242886
0.199934
0.20512
0.163478
0.0545148
0.0230323
0.00440036
0.0462584
0.0768798
0.0507039
0.10653
0.18248
0.0233816
0.0729783
0.127005
0.132423
0.0273853
-0.134009
-0.233895
-0.0358863
-0.0159084
0.0501843
0.00552365
0.0020368
0.0513308
0.0826642
0.0424887
0.105621
0.0920166
0.210298
0.101459
0.058598
0.0452774
0.0266087
0.101862
0.197856
0.227833
0.099328
-0.00539376
0.0455077
-0.0539911
-0.056233
-0.101019
0.01085
0.0610331
0.120905
0.1023
0.0635849
-0.289511
-0.278122
-0.211143
-0.369627
-0.167533
-0.00411665
-0.0100766
0.00288627
0.0420334
0.0218354
-0.00233513
0.11568
0.144657
0.13179
0.0550276
0.0160387
0.0663664
0.0549648
0.0197437
0.0504363
0.0372194
-0.144677
-0.127686
-0.197324
-0.068536
-0.0339288
-0.0305879
-0.0849357
-0.1618
-0.0483659
-0.051119
-0.00671211
0.121117
0.284791
0.168013
-0.0192843
-0.187877
-0.176207
-0.266539
-0.382714
-0.274348
-0.144337
0.079883
0.162979
0.0632038
0.0773483
0.21258
0.215841
0.226077
0.200753
0.290038
0.176557
0.292026
0.236918
0.110463
0.0591673
0.043015
0.0155519
-0.0720395
-0.0512366
0.128046
0.0963764
0.0443668
0.131683
0.0674695
0.0576822
0.103271
0.133201
-0.000681218
-0.157309
-0.140298
-0.0144353
-0.00866407
0.0346762
-0.00496716
-0.0198318
0.0518842
-0.00377837
0.0434332
0.116056
0.141498
0.102636
0.129451
0.0354384
-0.0164699
0.177238
0.0812632
0.161774
0.223992
0.111745
0.033614
0.0170231
-0.00214421
-0.0523441
-0.0596849
-0.0195597
-0.018885
0.0506144
0.0671308
0.0201925
-0.300538
-0.271198
-0.24733
-0.249566
-0.0123011
0.0475117
-0.0116259
-0.0375805
-0.0516504
-0.0269265
0.028198
0.0527406
0.0787018
0.13363
0.120561
0.114604
0.0528371
0.0476931
0.000641376
-0.0964383
-0.0278356
0.0107848
-0.11604
-0.18224
-0.0750408
0.0121632
-0.0748299
-0.120111
-0.0804511
-0.0922427
-0.00875543
0.0913622
0.134997
0.0345177
0.096482
-0.00548522
-0.1759
-0.133529
-0.211692
-0.25193
-0.208619
-0.107863
-0.052743
0.0260634
0.078409
0.161643
0.217938
0.188764
0.173417
0.162954
0.264791
0.162376
0.241266
0.155777
0.224332
0.00891371
-0.0422626
0.0711971
-0.0159231
-0.0256626
-0.025196
-0.0601655
-0.033901
0.1216
0.157667
0.210738
0.144575
-0.0108583
-0.0997092
-0.0526829
-0.0319716
-0.163592
-0.124653
-0.0147545
0.0624461
0.0111741
-0.0132004
-0.0392714
0.0794102
0.1314
0.112224
-0.00162432
0.0731664
0.214704
0.248814
0.0798532
0.071284
0.122014
0.120182
0.131996
0.00846952
-0.0316214
-0.0613005
-0.00933013
-0.168675
-0.0690069
0.0202616
0.0834543
0.0346458
-0.014548
-0.311536
-0.256939
-0.228787
-0.221921
-0.0679141
0.030938
0.0756598
0.0733119
0.0156906
-0.00787416
0.035011
0.0504315
0.0545305
0.156737
0.180738
0.112584
0.116879
0.0645029
-0.0505846
0.0194801
-0.0142105
-0.12372
-0.197064
-0.14328
-0.0865077
-0.0147215
-0.0967306
-0.138176
-0.0117155
0.0153505
0.0325159
0.116446
0.0851453
0.106485
0.0439989
0.00561174
-0.0692382
-0.127606
-0.262173
-0.267287
-0.395462
-0.189238
0.017091
0.0898035
0.0616859
0.0342798
0.189718
0.269645
0.212648
0.105214
0.191472
0.134492
0.198902
0.122905
0.0893907
0.0778517
0.0311297
0.039082
-0.0720852
-0.083878
-0.0715735
-0.0650842
0.0413322
0.0445632
0.097763
0.13342
0.0961811
-0.0492253
-0.0343643
-0.00316331
-0.024943
-0.0870065
-0.0735117
-0.155861
-0.0383483
-0.0552402
-0.00498796
0.0789961
0.0607894
0.12111
0.1136
0.0444059
0.0201862
0.070769
0.156096
0.179766
0.111156
0.0968818
0.112809
0.168357
0.065914
-0.0645484
-0.0101727
-0.118501
-0.173825
-0.110831
-0.043843
0.0957345
0.0472627
0.0516643
-0.340715
-0.279521
-0.149318
-0.139219
0.0266746
0.104777
0.129662
0.0734849
0.0574021
-0.034373
-0.0138217
0.088747
0.0564218
0.155301
0.204799
0.144059
-0.023871
-0.0176985
0.0460122
0.0254451
-0.057585
-0.189968
-0.14236
-0.0586256
-0.0697293
-0.0696599
-0.195468
-0.0940586
0.0246277
0.064895
0.0532583
0.185843
0.130307
0.0700308
0.0843088
-0.0449314
-0.0558031
-0.063949
-0.2182
-0.335117
-0.319969
-0.171866
-0.0505545
-0.00903258
0.0714799
0.122667
0.19943
0.177254
0.151009
0.123234
0.22297
0.116867
0.148035
0.0727496
0.0746915
0.00713021
0.100986
-0.0258583
-0.158366
-0.172948
-0.191358
-0.113265
0.049209
0.102499
-0.0028182
0.0967624
0.128564
-0.0412879
-0.0646505
-0.013178
-0.0747798
-0.0440595
-0.00871585
-0.0962043
-0.11161
-0.0776948
-0.114715
-0.0985039
0.0554698
0.129873
0.0885913
0.0967555
0.0750915
0.135199
0.177798
0.191674
0.152329
-0.0596184
0.0789753
0.08922
0.0336296
-0.0252727
-0.114002
-0.137427
-0.140941
0.0121184
-0.0879997
0.0666644
0.0665913
0.00452641
-0.299316
-0.234898
-0.18214
-0.0326793
0.105532
0.0651685
0.0955069
0.0624522
0.048228
0.048423
0.125168
0.219944
0.00510525
0.221844
0.175254
0.00382261
0.00211671
0.119815
-0.00207163
-0.0317864
-0.133683
-0.189038
-0.089702
-0.186075
-0.145349
-0.0442621
0.00206703
-0.0855892
0.104727
0.126832
-0.00547198
0.0889539
0.0991898
0.102637
0.0620118
-0.0192142
-0.0532902
-0.159782
-0.314401
-0.341093
-0.256889
-0.114656
-0.0560954
-0.0628571
-0.00259683
0.103228
0.103307
0.110626
0.245873
0.219764
0.235655
0.0671647
0.0873859
0.118454
0.0114456
0.0509378
-0.0229328
-0.0837135
-0.0571566
-0.197575
-0.290047
-0.0981102
-0.00579738
-0.0569386
-0.0545954
0.0717516
0.130339
0.0129489
-0.11115
0.00347485
-0.00298325
-0.0529035
-0.0934197
-0.162966
-0.271417
-0.0726645
-0.0868966
-0.173156
-0.0611845
0.0659279
0.114027
0.0862294
0.0671532
0.0899817
0.217571
0.121422
0.090016
0.0221292
0.0322879
0.0872059
-0.0518315
-0.0600899
-0.0583534
-0.112485
-0.122003
-0.0678375
-0.0704961
0.0498508
0.0450543
0.0495602
-0.261833
-0.24309
-0.129757
0.00805543
0.109987
0.0596865
0.103561
0.145202
0.194941
0.0934938
0.051372
0.0540078
0.180157
0.190608
0.152839
-0.0236903
0.0519603
0.0505021
-0.0697854
0.00446088
-0.0124597
-0.169258
-0.231562
-0.171067
-0.0460013
0.0240282
-0.022494
-0.0204157
0.0278008
0.0869634
0.113101
0.0701304
0.140145
0.0380892
-0.0150212
-0.0622052
-0.0445237
-0.13804
-0.30643
-0.316541
-0.261686
-0.137137
-0.136126
-0.0767801
-0.0346953
0.116686
0.077917
0.101524
0.150186
0.15178
0.188405
0.0838268
0.0960854
0.058916
0.0726148
-0.00237736
0.0178395
-0.152457
-0.175677
-0.192356
-0.276895
-0.149462
0.0318898
-0.0562081
-0.000322627
0.0123115
0.0288431
0.0299194
-0.0717429
-0.0326988
-0.0478268
-0.030094
-0.060597
-0.194697
-0.219758
-0.189536
-0.21434
-0.155074
-0.101147
0.034724
0.0467347
0.121101
0.174092
0.117122
0.143496
0.165263
0.123597
0.0750133
0.0179967
-0.0154354
-0.0247655
-0.137381
-0.13877
-0.0323058
-0.217581
-0.181178
-0.0980757
0.0193849
0.0669161
0.00403579
-0.237269
-0.203754
0.00484326
0.0563563
0.131947
0.100666
0.127702
-0.0209549
0.143226
0.274562
0.275727
0.207679
0.225701
0.173869
-0.0242919
-0.0240853
0.0589439
0.11867
0.0881787
-0.0775796
-0.193386
-0.185621
-0.225437
-0.17996
-0.124692
0.07823
0.0472356
0.020262
-0.0172471
-0.0371816
0.0390791
0.166461
0.208256
-0.0142317
-0.14592
-0.120222
0.00529265
-0.0785482
-0.191894
-0.341037
-0.297269
-0.216855
-0.0751591
-0.00247685
-0.0882406
0.000869563
0.0106474
0.0146673
0.211179
0.167723
0.173477
0.107697
-0.0154257
0.0882237
0.0163188
-0.0273459
-0.000844823
-0.0589627
-0.14517
-0.170963
-0.275756
-0.147981
-0.0966086
-0.0806424
0.0467362
-0.0125223
0.0194777
-0.0495495
-0.149869
-0.162123
-0.0592655
-0.0202288
-0.117172
-0.163494
-0.170905
-0.262901
-0.213382
-0.151932
-0.066901
-0.0147157
0.00958268
0.125996
0.152475
0.0822344
0.0588362
-0.000735374
0.0274872
0.18133
0.0537538
-0.11027
-0.158458
-0.0844589
-0.116487
-0.0877945
-0.248786
-0.203678
-0.0947091
-0.0388336
-0.00444594
0.0104672
-0.22146
-0.168578
0.0577854
0.107412
0.131499
0.0696305
0.111657
0.111315
0.0792809
0.176079
0.240768
0.252378
0.347698
0.0945779
0.148684
0.00322548
0.0410583
0.0900205
0.0237181
-0.151071
-0.150555
-0.13741
-0.179797
-0.111387
-0.100668
-0.0478973
-0.0310754
0.0408394
0.0951252
-0.0823265
0.0685154
0.154647
0.131516
0.027139
-0.197117
-0.0855994
-0.0211479
-0.145614
-0.263828
-0.219382
-0.193652
-0.187099
-0.225541
-0.0891546
-0.0631716
0.0824287
0.0254639
0.137722
0.0396329
0.0827016
0.169821
0.0791896
-0.0380025
-0.0120804
0.0128892
0.0564923
0.0181524
-0.154473
-0.108813
-0.202187
-0.286421
-0.215767
-0.147691
-0.0434107
0.0914302
-0.0675129
0.00481427
0.0181201
-0.0563354
-0.159724
-0.126422
-0.0662989
-0.115725
-0.142608
-0.23414
-0.234056
-0.249503
-0.165987
-0.118444
-0.00571481
-0.0227894
0.107263
0.218553
0.15723
-0.0042522
0.130713
0.0456615
0.0516746
-0.0932396
-0.153243
-0.16891
-0.0834011
-0.124541
-0.0376082
-0.215731
-0.240904
-0.106112
-0.0670903
-0.022968
0.0471097
-0.141903
-0.16051
0.084384
0.125392
0.166414
0.0801026
0.135562
0.0213259
0.0575223
0.283379
0.414107
0.243258
0.229429
0.169872
0.0557672
-0.00128833
0.0889634
0.0115958
0.00331134
-0.0730275
-0.11882
-0.0794408
-0.0659217
-0.00773281
-0.118778
0.0682798
-0.000324517
0.0152356
0.0635055
-0.0816038
-0.0158174
0.139932
0.110235
0.00247986
-0.183305
-0.194862
-0.0890193
-0.18387
-0.143079
-0.144508
-0.193264
-0.212969
-0.151727
-0.0638294
-0.0902585
0.0763869
-0.0228645
-0.00694621
-0.00243223
0.116522
0.123923
0.148085
-0.00427275
0.0270655
-0.0822724
-0.0274937
0.0647834
-0.10521
-0.234692
-0.198331
-0.187109
-0.175993
-0.201315
-0.0123273
-0.118511
-0.131401
0.0325011
0.0787344
-0.0315385
-0.0824601
-0.131655
-0.0176856
-0.102136
-0.244828
-0.246116
-0.35994
-0.157474
-0.0258071
-0.155152
-0.112435
-0.00626099
0.0677914
0.214158
0.0957279
-0.0621055
0.0267073
-0.078477
-0.0194149
-0.0434151
-0.0669192
-0.0879702
-0.150351
-0.154869
-0.151176
-0.19624
-0.128436
-0.039945
-0.0684651
-0.0279729
0.0210342
-0.0241726
-0.0918472
0.0884114
0.160334
0.242215
0.0454419
0.0139407
0.0779678
0.177155
0.244755
0.239235
0.196568
0.219955
0.223866
0.164187
0.0694471
0.189464
0.0136577
-0.0537348
-0.200034
-0.145866
-0.0978071
-0.111257
0.0119093
-0.0189864
0.0122698
0.0450196
0.0823307
-0.00995808
0.00797891
0.0316993
0.0255983
0.0485241
0.0953287
-0.0166489
-0.052958
-0.204919
-0.311737
-0.195238
-0.158325
-0.131258
-0.202904
-0.0978001
-0.0881938
-0.0989242
0.0425961
0.0325373
0.00614019
0.0367427
0.13234
0.161325
0.07192
-0.0274557
-0.0768817
-0.0684374
-0.0677583
-0.0712168
-0.0563994
-0.160231
-0.171025
-0.226652
-0.209368
-0.167548
-0.0712036
-0.144957
-0.0727107
0.0917622
0.0437914
-0.0130467
-0.115234
-0.0786928
-0.0864526
-0.0541959
-0.0831691
-0.272874
-0.358476
-0.18998
-0.109104
-0.22507
-0.0636485
0.00107869
0.0338418
0.122019
0.0513416
0.0675552
-0.035411
0.00766821
0.0285887
-0.132085
-0.193675
-0.0933623
-0.137101
-0.205359
-0.205075
-0.151288
-0.0543961
-0.0727204
-0.0175028
0.028534
0.0408773
-0.0150418
-0.0197593
0.0418932
0.0841343
0.147719
0.206145
0.146441
0.170301
0.111107
0.0902693
0.294673
0.231043
0.176293
0.189098
0.196314
0.0864499
0.0924416
8.03269e-05
-0.0691721
-0.146458
-0.113652
-0.137653
-0.0972869
0.059893
-0.0403873
0.141933
0.0928827
0.0500624
-0.0681299
0.00308391
0.0954257
0.127213
0.0835568
-0.00260624
-0.123946
-0.121048
-0.24062
-0.259932
-0.169322
-0.114916
-0.150389
-0.16141
-0.0496772
-0.0697834
-0.122714
0.0285354
0.0564534
-0.0183172
0.0625393
0.170997
0.133547
0.123565
-0.0660991
-0.120435
-0.113269
-0.0862835
-0.110095
-0.10489
-0.150157
-0.195379
-0.195211
-0.228098
-0.149944
-0.00681302
-0.0741114
-0.044737
0.0476498
0.148095
0.0679201
-0.0455544
-0.129376
-0.0777073
-0.0444754
-0.084271
-0.291211
-0.226156
-0.218017
-0.184383
-0.0685113
-0.125919
-0.0446657
0.00271782
0.09219
-0.015415
-0.0345943
-0.0388149
-0.0302587
-0.0373849
-0.0607489
-0.158518
-0.0972393
-0.0848442
-0.176428
-0.163833
-0.192467
-0.130822
0.0102818
0.107023
0.0690788
0.0126469
0.00797655
0.00952073
0.0320293
0.0888442
0.116455
0.099922
0.144883
0.256769
0.147706
0.032366
0.162721
0.185449
0.187943
0.157688
0.211263
0.0635413
0.153231
-0.0158021
-0.070116
-0.132798
-0.198475
-0.0796916
-0.0120836
-0.0166551
-0.0481291
-0.00338472
0.049524
0.139537
0.027219
-0.0184092
0.103931
-0.00248052
0.0287169
0.154855
-0.0306618
-0.166688
-0.288336
-0.225183
-0.200387
-0.127748
-0.128733
-0.165626
-0.123337
-0.022962
-0.170717
-0.00749322
0.0974796
0.119971
0.0595703
0.116637
0.0161542
-0.0477754
-0.0498089
-0.0845527
-0.127714
-0.115558
-0.091542
-0.0969365
-0.0852842
-0.171857
-0.209687
-0.230324
-0.171239
0.0149251
0.0376704
-0.0610064
-0.0362306
0.0230825
0.189967
0.122693
-0.191128
-0.111981
-0.0168593
-0.0633481
-0.203991
-0.180309
-0.262335
-0.176368
-0.0134066
-0.0687986
-0.113886
-0.0994988
-0.0341034
-0.0334072
-0.0406447
0.0638993
-0.0171587
-0.083728
-0.0569133
-0.156254
-0.107542
-0.0962924
-0.0881066
-0.105569
-0.137688
-0.118464
-0.0178381
0.11244