/*--------------------------------*- C++ -*----------------------------------*\
| =========                 |                                                 |
| \\      /  F ield         | OpenFOAM: The Open Source CFD Toolbox           |
|  \\    /   O peration     | Version:  v2012                                 |
|   \\  /    A nd           | Website:  www.openfoam.com                      |
|    \\/     M anipulation  |                                                 |
\*---------------------------------------------------------------------------*/
FoamFile
{
    version     2.0;
    format      ascii;
    class       volScalarField;
    location    "0";
    object      p;
}
// * * * * * * * * * * * * * * * * * * * * * * * * * * * * * * * * * * * * * //

dimensions      [0 2 -2 0 0 0 0];


internalField   nonuniform List<scalar> 
4000
(
-3.05563e-13
-3.05991e-13
-3.13164e-13
-3.17e-13
-3.17983e-13
-3.23998e-13
-3.27861e-13
-3.25522e-13
-3.19626e-13
-3.22514e-13
-3.26489e-13
-3.27444e-13
-3.26896e-13
-3.22472e-13
-3.3099e-13
-3.41375e-13
-3.33488e-13
-3.33066e-13
-3.2854e-13
-3.44114e-13
-3.53733e-13
-3.50223e-13
-3.49412e-13
-3.5226e-13
-3.57397e-13
-3.60269e-13
-3.65094e-13
-3.70455e-13
-3.64821e-13
-3.70892e-13
-3.77586e-13
-3.82478e-13
-3.72378e-13
-3.75782e-13
-3.7335e-13
-3.74632e-13
-3.81801e-13
-3.86495e-13
-3.85008e-13
-3.78371e-13
-3.80568e-13
-3.85495e-13
-3.80215e-13
-3.71619e-13
-3.63235e-13
-3.64373e-13
-3.66082e-13
-3.70702e-13
-3.74897e-13
-3.73681e-13
-3.70814e-13
-3.68836e-13
-3.63724e-13
-3.61057e-13
-3.57261e-13
-3.58561e-13
-3.46064e-13
-3.3901e-13
-3.21895e-13
-3.1681e-13
-3.12783e-13
-3.03456e-13
-3.01745e-13
-3.02569e-13
-3.02518e-13
-2.97068e-13
-2.8561e-13
-2.91852e-13
-2.89288e-13
-2.8235e-13
-2.72188e-13
-2.66727e-13
-2.64995e-13
-2.66692e-13
-2.4856e-13
-2.29706e-13
-2.16787e-13
-2.04265e-13
-1.92868e-13
-1.96926e-13
-1.9949e-13
-1.87809e-13
-1.75785e-13
-1.73174e-13
-1.64527e-13
-1.55826e-13
-1.43213e-13
-1.20009e-13
-1.01261e-13
-9.61436e-14
-9.10464e-14
-8.14472e-14
-6.07306e-14
-5.26607e-14
-4.83407e-14
-3.87724e-14
-2.40262e-14
-1.64047e-14
-1.02369e-14
-6.55369e-15
-3.09202e-13
-3.12343e-13
-3.1069e-13
-3.16025e-13
-3.18702e-13
-3.20557e-13
-3.21409e-13
-3.22664e-13
-3.22436e-13
-3.29145e-13
-3.27077e-13
-3.24754e-13
-3.23044e-13
-3.30291e-13
-3.33536e-13
-3.33936e-13
-3.33263e-13
-3.34897e-13
-3.27607e-13
-3.41092e-13
-3.54499e-13
-3.54872e-13
-3.51905e-13
-3.54286e-13
-3.57579e-13
-3.55058e-13
-3.66421e-13
-3.6736e-13
-3.66119e-13
-3.71062e-13
-3.77874e-13
-3.77583e-13
-3.74858e-13
-3.81907e-13
-3.73146e-13
-3.78645e-13
-3.82597e-13
-3.82207e-13
-3.85227e-13
-3.81569e-13
-3.80348e-13
-3.79635e-13
-3.7477e-13
-3.69265e-13
-3.69045e-13
-3.66713e-13
-3.67602e-13
-3.72506e-13
-3.73981e-13
-3.77122e-13
-3.76941e-13
-3.67585e-13
-3.59879e-13
-3.55929e-13
-3.54776e-13
-3.57391e-13
-3.45994e-13
-3.44222e-13
-3.29507e-13
-3.18551e-13
-3.05672e-13
-3.07379e-13
-3.04237e-13
-2.98784e-13
-2.99315e-13
-2.95484e-13
-2.86388e-13
-2.88183e-13
-2.89981e-13
-2.83341e-13
-2.74775e-13
-2.64938e-13
-2.62886e-13
-2.63458e-13
-2.51614e-13
-2.31173e-13
-2.17538e-13
-2.08897e-13
-2.00943e-13
-1.95288e-13
-1.96175e-13
-1.86262e-13
-1.7329e-13
-1.69489e-13
-1.62707e-13
-1.54873e-13
-1.4555e-13
-1.26165e-13
-1.04726e-13
-9.68507e-14
-9.11694e-14
-7.85059e-14
-5.85061e-14
-5.14295e-14
-4.42483e-14
-3.84728e-14
-3.0778e-14
-1.85382e-14
-8.78589e-15
-3.90203e-15
-3.11135e-13
-3.14587e-13
-3.11413e-13
-3.14134e-13
-3.18785e-13
-3.14363e-13
-3.23266e-13
-3.24356e-13
-3.22793e-13
-3.26294e-13
-3.30794e-13
-3.26274e-13
-3.25154e-13
-3.27545e-13
-3.30546e-13
-3.32923e-13
-3.36755e-13
-3.34961e-13
-3.24727e-13
-3.40477e-13
-3.52801e-13
-3.48962e-13
-3.51673e-13
-3.54486e-13
-3.58977e-13
-3.57593e-13
-3.65805e-13
-3.7088e-13
-3.67872e-13
-3.73057e-13
-3.75184e-13
-3.76321e-13
-3.7854e-13
-3.72449e-13
-3.69852e-13
-3.74653e-13
-3.85862e-13
-3.83674e-13
-3.87846e-13
-3.83422e-13
-3.80685e-13
-3.79399e-13
-3.73749e-13
-3.71137e-13
-3.69325e-13
-3.68727e-13
-3.69173e-13
-3.73586e-13
-3.68945e-13
-3.73108e-13
-3.74652e-13
-3.70963e-13
-3.68653e-13
-3.58505e-13
-3.52962e-13
-3.52656e-13
-3.47292e-13
-3.38295e-13
-3.24188e-13
-3.14603e-13
-3.03896e-13
-3.10081e-13
-3.03242e-13
-3.01027e-13
-2.97605e-13
-2.91989e-13
-2.82855e-13
-2.86389e-13
-2.90321e-13
-2.82565e-13
-2.8014e-13
-2.67693e-13
-2.65661e-13
-2.61967e-13
-2.51667e-13
-2.35014e-13
-2.20023e-13
-2.11071e-13
-1.99851e-13
-1.95563e-13
-1.89201e-13
-1.85073e-13
-1.77213e-13
-1.71521e-13
-1.65428e-13
-1.49963e-13
-1.37414e-13
-1.22614e-13
-1.11496e-13
-1.03996e-13
-9.34041e-14
-7.80161e-14
-5.87985e-14
-4.77953e-14
-4.56073e-14
-4.30909e-14
-3.56335e-14
-1.96929e-14
-1.16793e-14
-2.81644e-15
-3.11191e-13
-3.103e-13
-3.13143e-13
-3.21144e-13
-3.18177e-13
-3.16766e-13
-3.22337e-13
-3.1884e-13
-3.19773e-13
-3.29485e-13
-3.25931e-13
-3.28822e-13
-3.31842e-13
-3.26203e-13
-3.26133e-13
-3.27007e-13
-3.35454e-13
-3.32895e-13
-3.34724e-13
-3.44089e-13
-3.51888e-13
-3.49142e-13
-3.4514e-13
-3.54977e-13
-3.61998e-13
-3.62735e-13
-3.63831e-13
-3.6637e-13
-3.6793e-13
-3.68929e-13
-3.73349e-13
-3.72175e-13
-3.75744e-13
-3.75574e-13
-3.75318e-13
-3.75617e-13
-3.82252e-13
-3.8546e-13
-3.90133e-13
-3.82123e-13
-3.79096e-13
-3.80538e-13
-3.7248e-13
-3.72329e-13
-3.73681e-13
-3.69467e-13
-3.67942e-13
-3.78032e-13
-3.77916e-13
-3.74598e-13
-3.74088e-13
-3.72506e-13
-3.64686e-13
-3.53603e-13
-3.5003e-13
-3.49131e-13
-3.44166e-13
-3.40643e-13
-3.30335e-13
-3.19593e-13
-3.07174e-13
-3.0435e-13
-3.00447e-13
-2.96436e-13
-2.9779e-13
-2.93722e-13
-2.85829e-13
-2.89116e-13
-2.86192e-13
-2.83406e-13
-2.76204e-13
-2.66717e-13
-2.64209e-13
-2.62222e-13
-2.47374e-13
-2.40335e-13
-2.21654e-13
-2.13568e-13
-2.01524e-13
-1.97314e-13
-1.86868e-13
-1.82951e-13
-1.76865e-13
-1.70662e-13
-1.6346e-13
-1.47512e-13
-1.37549e-13
-1.28052e-13
-1.14421e-13
-1.04796e-13
-9.1832e-14
-7.31293e-14
-6.04973e-14
-5.18326e-14
-4.51976e-14
-4.13603e-14
-3.41022e-14
-2.392e-14
-1.46072e-14
-3.83106e-15
-3.15604e-13
-3.08786e-13
-3.12152e-13
-3.17471e-13
-3.19216e-13
-3.17576e-13
-3.20693e-13
-3.19706e-13
-3.20021e-13
-3.26475e-13
-3.35653e-13
-3.33756e-13
-3.28281e-13
-3.23323e-13
-3.22252e-13
-3.27557e-13
-3.2626e-13
-3.29357e-13
-3.41982e-13
-3.48252e-13
-3.53208e-13
-3.44652e-13
-3.44368e-13
-3.48202e-13
-3.60686e-13
-3.6788e-13
-3.67388e-13
-3.67472e-13
-3.65863e-13
-3.66278e-13
-3.66454e-13
-3.72432e-13
-3.75116e-13
-3.76532e-13
-3.78899e-13
-3.7645e-13
-3.81647e-13
-3.85966e-13
-3.91333e-13
-3.81208e-13
-3.80451e-13
-3.8074e-13
-3.76625e-13
-3.71057e-13
-3.7611e-13
-3.73879e-13
-3.73232e-13
-3.74715e-13
-3.73385e-13
-3.70192e-13
-3.68358e-13
-3.72367e-13
-3.61907e-13
-3.5403e-13
-3.47862e-13
-3.46865e-13
-3.43048e-13
-3.38911e-13
-3.29512e-13
-3.16341e-13
-3.06856e-13
-3.07246e-13
-3.04052e-13
-2.95791e-13
-2.93275e-13
-2.90372e-13
-2.90705e-13
-2.91342e-13
-2.8979e-13
-2.84072e-13
-2.7857e-13
-2.71861e-13
-2.62921e-13
-2.61154e-13
-2.50691e-13
-2.39337e-13
-2.26237e-13
-2.15906e-13
-1.99442e-13
-1.93665e-13
-1.85835e-13
-1.7964e-13
-1.78022e-13
-1.68367e-13
-1.63033e-13
-1.50058e-13
-1.37288e-13
-1.2431e-13
-1.17282e-13
-1.03679e-13
-9.01878e-14
-7.53698e-14
-6.35474e-14
-4.87991e-14
-4.8914e-14
-4.17771e-14
-3.62193e-14
-2.40038e-14
-1.3708e-14
-7.00366e-15
-3.15978e-13
-3.06616e-13
-3.13741e-13
-3.22625e-13
-3.2024e-13
-3.15153e-13
-3.16984e-13
-3.16875e-13
-3.26591e-13
-3.28781e-13
-3.27222e-13
-3.31793e-13
-3.27918e-13
-3.22181e-13
-3.24788e-13
-3.2576e-13
-3.31948e-13
-3.33952e-13
-3.3309e-13
-3.40642e-13
-3.52801e-13
-3.53569e-13
-3.59091e-13
-3.56526e-13
-3.52211e-13
-3.60136e-13
-3.64725e-13
-3.66112e-13
-3.63136e-13
-3.63615e-13
-3.66782e-13
-3.7235e-13
-3.72123e-13
-3.73778e-13
-3.77961e-13
-3.78406e-13
-3.84194e-13
-3.84432e-13
-3.89022e-13
-3.84978e-13
-3.81369e-13
-3.82388e-13
-3.80534e-13
-3.73062e-13
-3.75006e-13
-3.7339e-13
-3.70534e-13
-3.70353e-13
-3.69734e-13
-3.71335e-13
-3.68638e-13
-3.68246e-13
-3.62274e-13
-3.54391e-13
-3.43862e-13
-3.42982e-13
-3.41972e-13
-3.37524e-13
-3.25486e-13
-3.16917e-13
-3.10758e-13
-3.0557e-13
-3.0327e-13
-2.94885e-13
-2.94465e-13
-2.92266e-13
-2.91973e-13
-2.9382e-13
-2.91485e-13
-2.832e-13
-2.76808e-13
-2.70309e-13
-2.6404e-13
-2.59871e-13
-2.48784e-13
-2.37614e-13
-2.30133e-13
-2.21871e-13
-1.97655e-13
-1.87255e-13
-1.82929e-13
-1.78642e-13
-1.76276e-13
-1.68791e-13
-1.54607e-13
-1.50765e-13
-1.37763e-13
-1.23006e-13
-1.23173e-13
-1.0537e-13
-8.24228e-14
-7.84922e-14
-6.80908e-14
-5.42297e-14
-5.05296e-14
-4.3528e-14
-3.65856e-14
-2.52879e-14
-1.53667e-14
-6.36887e-15
-3.09825e-13
-3.11181e-13
-3.16361e-13
-3.22213e-13
-3.18033e-13
-3.12628e-13
-3.18413e-13
-3.1701e-13
-3.23584e-13
-3.27156e-13
-3.30635e-13
-3.29599e-13
-3.23702e-13
-3.2259e-13
-3.23647e-13
-3.23743e-13
-3.22265e-13
-3.30796e-13
-3.43267e-13
-3.5046e-13
-3.59317e-13
-3.52682e-13
-3.44226e-13
-3.40061e-13
-3.5779e-13
-3.68272e-13
-3.64336e-13
-3.6731e-13
-3.67574e-13
-3.5662e-13
-3.6297e-13
-3.74964e-13
-3.74843e-13
-3.74074e-13
-3.80609e-13
-3.81158e-13
-3.82688e-13
-3.83262e-13
-3.85792e-13
-3.86345e-13
-3.84908e-13
-3.83644e-13
-3.73226e-13
-3.69235e-13
-3.6925e-13
-3.7237e-13
-3.68044e-13
-3.7516e-13
-3.76746e-13
-3.70814e-13
-3.60359e-13
-3.58946e-13
-3.62347e-13
-3.56449e-13
-3.42459e-13
-3.41048e-13
-3.4422e-13
-3.36017e-13
-3.2662e-13
-3.17378e-13
-3.08028e-13
-2.98878e-13
-2.98615e-13
-2.99185e-13
-3.00517e-13
-3.01933e-13
-2.9621e-13
-2.97289e-13
-2.92226e-13
-2.81134e-13
-2.71244e-13
-2.72466e-13
-2.62345e-13
-2.56192e-13
-2.41462e-13
-2.32836e-13
-2.34743e-13
-2.2796e-13
-2.03163e-13
-1.86044e-13
-1.82539e-13
-1.76991e-13
-1.70733e-13
-1.67365e-13
-1.55535e-13
-1.49843e-13
-1.37092e-13
-1.22598e-13
-1.17633e-13
-1.04633e-13
-8.84019e-14
-7.56576e-14
-6.81653e-14
-5.89984e-14
-5.23046e-14
-4.2343e-14
-3.68392e-14
-2.78886e-14
-1.41705e-14
-7.73297e-15
-3.10678e-13
-3.15159e-13
-3.18834e-13
-3.15076e-13
-3.13285e-13
-3.08213e-13
-3.13133e-13
-3.22164e-13
-3.23859e-13
-3.27457e-13
-3.27843e-13
-3.28144e-13
-3.26035e-13
-3.2329e-13
-3.23507e-13
-3.28986e-13
-3.27801e-13
-3.27314e-13
-3.41778e-13
-3.43492e-13
-3.46996e-13
-3.48536e-13
-3.57084e-13
-3.51542e-13
-3.57194e-13
-3.68161e-13
-3.67374e-13
-3.68781e-13
-3.68843e-13
-3.60694e-13
-3.62268e-13
-3.70062e-13
-3.72346e-13
-3.73786e-13
-3.78721e-13
-3.83358e-13
-3.8215e-13
-3.82693e-13
-3.82945e-13
-3.79517e-13
-3.95064e-13
-3.89186e-13
-3.83196e-13
-3.68078e-13
-3.58137e-13
-3.66257e-13
-3.70979e-13
-3.7707e-13
-3.71285e-13
-3.70247e-13
-3.61015e-13
-3.61836e-13
-3.57852e-13
-3.5493e-13
-3.44433e-13
-3.37902e-13
-3.35028e-13
-3.33442e-13
-3.25307e-13
-3.17077e-13
-3.06885e-13
-3.0413e-13
-3.01322e-13
-2.99377e-13
-2.99293e-13
-2.95552e-13
-2.9755e-13
-2.96758e-13
-2.90037e-13
-2.79749e-13
-2.77313e-13
-2.68234e-13
-2.65815e-13
-2.62666e-13
-2.47719e-13
-2.30775e-13
-2.27944e-13
-2.19614e-13
-1.99476e-13
-1.87908e-13
-1.80042e-13
-1.75678e-13
-1.73209e-13
-1.64581e-13
-1.54152e-13
-1.48618e-13
-1.36023e-13
-1.23192e-13
-1.13598e-13
-1.00883e-13
-9.12858e-14
-7.75793e-14
-6.93681e-14
-6.06835e-14
-5.10671e-14
-4.37235e-14
-3.92428e-14
-3.00602e-14
-1.702e-14
-1.00925e-14
-3.09096e-13
-3.11647e-13
-3.16577e-13
-3.19163e-13
-3.16913e-13
-3.10607e-13
-3.13304e-13
-3.21708e-13
-3.26181e-13
-3.2462e-13
-3.27027e-13
-3.26569e-13
-3.30042e-13
-3.22751e-13
-3.18206e-13
-3.2623e-13
-3.29198e-13
-3.35637e-13
-3.40389e-13
-3.38982e-13
-3.52651e-13
-3.54201e-13
-3.48751e-13
-3.47384e-13
-3.61236e-13
-3.72162e-13
-3.71673e-13
-3.65307e-13
-3.65101e-13
-3.68032e-13
-3.66008e-13
-3.65913e-13
-3.71812e-13
-3.84326e-13
-3.80321e-13
-3.76741e-13
-3.79132e-13
-3.82e-13
-3.86933e-13
-3.88009e-13
-3.90213e-13
-3.90564e-13
-3.80531e-13
-3.72085e-13
-3.63866e-13
-3.66882e-13
-3.67024e-13
-3.63199e-13
-3.64884e-13
-3.70827e-13
-3.64508e-13
-3.61526e-13
-3.54655e-13
-3.5304e-13
-3.47834e-13
-3.40101e-13
-3.32788e-13
-3.32085e-13
-3.2592e-13
-3.13229e-13
-3.08475e-13
-3.0482e-13
-3.05695e-13
-3.02789e-13
-3.06893e-13
-3.05735e-13
-3.00612e-13
-2.92003e-13
-2.905e-13
-2.84634e-13
-2.7696e-13
-2.68871e-13
-2.56874e-13
-2.53542e-13
-2.44608e-13
-2.31747e-13
-2.24162e-13
-2.18618e-13
-1.99813e-13
-1.8453e-13
-1.81797e-13
-1.74155e-13
-1.76547e-13
-1.60042e-13
-1.50004e-13
-1.46553e-13
-1.39157e-13
-1.20461e-13
-1.07335e-13
-1.01391e-13
-9.16694e-14
-7.77277e-14
-7.14456e-14
-6.42486e-14
-5.15288e-14
-4.58919e-14
-3.86138e-14
-3.38802e-14
-1.94936e-14
-1.18634e-14
-3.1e-13
-3.09717e-13
-3.04156e-13
-3.18245e-13
-3.21065e-13
-3.10799e-13
-3.11424e-13
-3.13781e-13
-3.29985e-13
-3.34704e-13
-3.33028e-13
-3.32676e-13
-3.26957e-13
-3.20958e-13
-3.22541e-13
-3.32399e-13
-3.29204e-13
-3.2582e-13
-3.27526e-13
-3.40536e-13
-3.53982e-13
-3.51867e-13
-3.53046e-13
-3.58757e-13
-3.67672e-13
-3.6806e-13
-3.66021e-13
-3.61547e-13
-3.69428e-13
-3.70219e-13
-3.7072e-13
-3.66912e-13
-3.73472e-13
-3.83691e-13
-3.8083e-13
-3.80151e-13
-3.81308e-13
-3.80614e-13
-3.81534e-13
-3.82562e-13
-3.92501e-13
-3.95926e-13
-3.84466e-13
-3.73538e-13
-3.64183e-13
-3.62099e-13
-3.6209e-13
-3.63936e-13
-3.63209e-13
-3.70457e-13
-3.68976e-13
-3.59919e-13
-3.55256e-13
-3.55895e-13
-3.51882e-13
-3.3704e-13
-3.34792e-13
-3.31487e-13
-3.2352e-13
-3.1642e-13
-3.14465e-13
-2.96978e-13
-2.95065e-13
-3.05381e-13
-3.12248e-13
-3.14065e-13
-3.06348e-13
-2.95992e-13
-2.89814e-13
-2.77818e-13
-2.74889e-13
-2.67135e-13
-2.47177e-13
-2.47128e-13
-2.45382e-13
-2.38095e-13
-2.26885e-13
-2.14664e-13
-1.98423e-13
-1.93668e-13
-1.8661e-13
-1.70757e-13
-1.70769e-13
-1.56961e-13
-1.4711e-13
-1.42482e-13
-1.36757e-13
-1.18665e-13
-1.10385e-13
-1.05964e-13
-9.17302e-14
-8.21268e-14
-7.40974e-14
-6.69179e-14
-5.38839e-14
-4.42417e-14
-4.27252e-14
-3.37964e-14
-2.77052e-14
-1.07095e-14
-3.07185e-13
-3.11121e-13
-3.12323e-13
-3.14661e-13
-3.16091e-13
-3.16614e-13
-3.1677e-13
-3.20062e-13
-3.28195e-13
-3.28263e-13
-3.29084e-13
-3.32552e-13
-3.2321e-13
-3.17803e-13
-3.13348e-13
-3.25567e-13
-3.34007e-13
-3.36775e-13
-3.31525e-13
-3.38306e-13
-3.54558e-13
-3.52747e-13
-3.55774e-13
-3.57036e-13
-3.65263e-13
-3.71933e-13
-3.63014e-13
-3.64539e-13
-3.70276e-13
-3.68729e-13
-3.72101e-13
-3.69003e-13
-3.76689e-13
-3.81796e-13
-3.8022e-13
-3.77681e-13
-3.83002e-13
-3.80298e-13
-3.82133e-13
-3.89275e-13
-3.92629e-13
-3.96912e-13
-3.82758e-13
-3.71959e-13
-3.67321e-13
-3.61999e-13
-3.63384e-13
-3.68677e-13
-3.65791e-13
-3.7281e-13
-3.65986e-13
-3.56411e-13
-3.59688e-13
-3.58752e-13
-3.5201e-13
-3.37501e-13
-3.36975e-13
-3.3366e-13
-3.23299e-13
-3.21321e-13
-3.20621e-13
-3.12439e-13
-3.04775e-13
-2.97814e-13
-3.07926e-13
-3.10372e-13
-3.03914e-13
-2.94507e-13
-2.88415e-13
-2.78248e-13
-2.73438e-13
-2.66404e-13
-2.47086e-13
-2.44897e-13
-2.46609e-13
-2.40158e-13
-2.28724e-13
-2.14016e-13
-1.98987e-13
-1.9177e-13
-1.77301e-13
-1.70764e-13
-1.69241e-13
-1.56433e-13
-1.50538e-13
-1.45047e-13
-1.36804e-13
-1.18803e-13
-1.09967e-13
-1.03226e-13
-9.69953e-14
-8.55225e-14
-7.83045e-14
-6.71357e-14
-5.11415e-14
-4.42748e-14
-4.24873e-14
-4.01634e-14
-2.84805e-14
-1.19034e-14
-3.06104e-13
-3.12244e-13
-3.11422e-13
-3.12203e-13
-3.15762e-13
-3.18248e-13
-3.18652e-13
-3.22619e-13
-3.2191e-13
-3.24148e-13
-3.29586e-13
-3.3285e-13
-3.29668e-13
-3.2904e-13
-3.24007e-13
-3.22173e-13
-3.24183e-13
-3.25801e-13
-3.2791e-13
-3.40209e-13
-3.54324e-13
-3.54776e-13
-3.55199e-13
-3.60869e-13
-3.65869e-13
-3.74819e-13
-3.68493e-13
-3.61216e-13
-3.64988e-13
-3.65515e-13
-3.66584e-13
-3.69947e-13
-3.80834e-13
-3.83771e-13
-3.82448e-13
-3.79959e-13
-3.83374e-13
-3.8184e-13
-3.85245e-13
-3.90237e-13
-3.911e-13
-3.91828e-13
-3.83925e-13
-3.70847e-13
-3.71693e-13
-3.64819e-13
-3.64331e-13
-3.65827e-13
-3.64856e-13
-3.68746e-13
-3.68038e-13
-3.5846e-13
-3.62052e-13
-3.56939e-13
-3.52938e-13
-3.4417e-13
-3.42977e-13
-3.32274e-13
-3.23896e-13
-3.17395e-13
-3.15116e-13
-3.0291e-13
-3.02293e-13
-3.06936e-13
-3.13306e-13
-3.13435e-13
-3.04679e-13
-2.92602e-13
-2.88142e-13
-2.81148e-13
-2.72973e-13
-2.57756e-13
-2.43417e-13
-2.44483e-13
-2.46477e-13
-2.45376e-13
-2.32741e-13
-2.13602e-13
-1.99871e-13
-1.92696e-13
-1.85438e-13
-1.71892e-13
-1.72074e-13
-1.55663e-13
-1.50157e-13
-1.41936e-13
-1.37594e-13
-1.19707e-13
-1.11202e-13
-1.01144e-13
-9.41727e-14
-8.91498e-14
-7.52957e-14
-6.98451e-14
-5.53195e-14
-4.76869e-14
-4.09312e-14
-3.49046e-14
-2.46488e-14
-1.30942e-14
-3.05558e-13
-3.12311e-13
-3.16196e-13
-3.07823e-13
-3.10566e-13
-3.11931e-13
-3.2276e-13
-3.30317e-13
-3.31797e-13
-3.25999e-13
-3.16856e-13
-3.21726e-13
-3.27582e-13
-3.24299e-13
-3.2598e-13
-3.24859e-13
-3.23651e-13
-3.26939e-13
-3.30139e-13
-3.4837e-13
-3.55749e-13
-3.51714e-13
-3.55317e-13
-3.6566e-13
-3.67154e-13
-3.68456e-13
-3.69384e-13
-3.69935e-13
-3.66461e-13
-3.63112e-13
-3.6826e-13
-3.71008e-13
-3.74077e-13
-3.78105e-13
-3.78e-13
-3.84846e-13
-3.87095e-13
-3.81455e-13
-3.82937e-13
-3.89969e-13
-3.90166e-13
-3.86228e-13
-3.82659e-13
-3.80927e-13
-3.80811e-13
-3.70386e-13
-3.66418e-13
-3.65189e-13
-3.62421e-13
-3.67947e-13
-3.65292e-13
-3.55881e-13
-3.60283e-13
-3.61279e-13
-3.48179e-13
-3.37346e-13
-3.40869e-13
-3.43616e-13
-3.3408e-13
-3.26507e-13
-3.16027e-13
-3.10631e-13
-3.04435e-13
-3.00221e-13
-3.04169e-13
-3.10182e-13
-3.08814e-13
-2.91253e-13
-2.85516e-13
-2.84638e-13
-2.78474e-13
-2.61528e-13
-2.4674e-13
-2.45136e-13
-2.45375e-13
-2.4696e-13
-2.30228e-13
-2.10912e-13
-2.08537e-13
-1.96673e-13
-1.83849e-13
-1.69937e-13
-1.67592e-13
-1.62525e-13
-1.50266e-13
-1.41629e-13
-1.34542e-13
-1.21007e-13
-1.13448e-13
-1.02553e-13
-9.72429e-14
-8.88568e-14
-7.58694e-14
-6.69807e-14
-5.93004e-14
-4.8368e-14
-3.4766e-14
-2.96696e-14
-2.7652e-14
-1.05594e-14
-3.09085e-13
-3.03188e-13
-3.09638e-13
-3.128e-13
-3.14039e-13
-3.15786e-13
-3.18472e-13
-3.1601e-13
-3.25167e-13
-3.30919e-13
-3.33225e-13
-3.26587e-13
-3.22119e-13
-3.20545e-13
-3.20764e-13
-3.24185e-13
-3.25606e-13
-3.30271e-13
-3.37356e-13
-3.44819e-13
-3.56543e-13
-3.53566e-13
-3.49188e-13
-3.63101e-13
-3.70922e-13
-3.66849e-13
-3.66077e-13
-3.68173e-13
-3.71691e-13
-3.69316e-13
-3.68241e-13
-3.66484e-13
-3.76197e-13
-3.86289e-13
-3.83342e-13
-3.86977e-13
-3.83376e-13
-3.80457e-13
-3.83591e-13
-3.85261e-13
-3.91012e-13
-3.88223e-13
-3.81338e-13
-3.81969e-13
-3.76975e-13
-3.75319e-13
-3.70202e-13
-3.66247e-13
-3.62802e-13
-3.64071e-13
-3.65795e-13
-3.65634e-13
-3.61055e-13
-3.60865e-13
-3.54049e-13
-3.42672e-13
-3.35298e-13
-3.34134e-13
-3.25987e-13
-3.26404e-13
-3.20208e-13
-3.12639e-13
-3.08335e-13
-3.03049e-13
-3.0899e-13
-3.06824e-13
-3.02695e-13
-2.91603e-13
-2.87604e-13
-2.86661e-13
-2.75441e-13
-2.61621e-13
-2.53012e-13
-2.45324e-13
-2.46208e-13
-2.4517e-13
-2.36227e-13
-2.19168e-13
-2.10658e-13
-1.96036e-13
-1.80649e-13
-1.75042e-13
-1.70748e-13
-1.59811e-13
-1.55405e-13
-1.42737e-13
-1.33362e-13
-1.21853e-13
-1.12696e-13
-9.92048e-14
-9.45801e-14
-8.45968e-14
-7.68149e-14
-6.42275e-14
-6.27753e-14
-5.11107e-14
-3.43864e-14
-2.3892e-14
-2.36639e-14
-1.40269e-14
-3.08073e-13
-3.05488e-13
-3.06542e-13
-3.1316e-13
-3.12087e-13
-3.11999e-13
-3.13934e-13
-3.22264e-13
-3.25212e-13
-3.30726e-13
-3.27549e-13
-3.22814e-13
-3.22452e-13
-3.1771e-13
-3.10057e-13
-3.24304e-13
-3.3182e-13
-3.30183e-13
-3.3631e-13
-3.45345e-13
-3.54132e-13
-3.64912e-13
-3.59342e-13
-3.57132e-13
-3.62234e-13
-3.60199e-13
-3.68944e-13
-3.78549e-13
-3.76136e-13
-3.67212e-13
-3.6539e-13
-3.65368e-13
-3.74592e-13
-3.88371e-13
-3.82798e-13
-3.84102e-13
-3.81177e-13
-3.75586e-13
-3.83183e-13
-3.87291e-13
-3.88316e-13
-3.91599e-13
-3.8909e-13
-3.82643e-13
-3.76265e-13
-3.76362e-13
-3.73687e-13
-3.69601e-13
-3.64195e-13
-3.63509e-13
-3.58181e-13
-3.58333e-13
-3.64065e-13
-3.64467e-13
-3.55684e-13
-3.45563e-13
-3.45478e-13
-3.38018e-13
-3.28718e-13
-3.26927e-13
-3.18153e-13
-3.0836e-13
-3.06585e-13
-3.09381e-13
-3.12728e-13
-3.02861e-13
-3.02559e-13
-2.96581e-13
-2.88195e-13
-2.89558e-13
-2.76519e-13
-2.61737e-13
-2.55462e-13
-2.51593e-13
-2.48912e-13
-2.49901e-13
-2.34381e-13
-2.1896e-13
-2.07575e-13
-1.96185e-13
-1.81996e-13
-1.72962e-13
-1.68605e-13
-1.62461e-13
-1.54234e-13
-1.39674e-13
-1.35148e-13
-1.25445e-13
-1.11697e-13
-9.97759e-14
-9.28046e-14
-8.91114e-14
-7.78694e-14
-7.05992e-14
-6.4838e-14
-4.69632e-14
-3.77535e-14
-2.77111e-14
-1.41833e-14
-8.08018e-15
-3.12339e-13
-3.04755e-13
-3.10374e-13
-3.03303e-13
-3.09724e-13
-3.02378e-13
-3.10537e-13
-3.20121e-13
-3.33208e-13
-3.33356e-13
-3.32959e-13
-3.22934e-13
-3.1738e-13
-3.13948e-13
-3.18504e-13
-3.23701e-13
-3.31635e-13
-3.38261e-13
-3.37947e-13
-3.40252e-13
-3.51652e-13
-3.55753e-13
-3.65817e-13
-3.70546e-13
-3.61206e-13
-3.56411e-13
-3.63218e-13
-3.69916e-13
-3.7522e-13
-3.72514e-13
-3.69014e-13
-3.69814e-13
-3.71697e-13
-3.89975e-13
-3.91528e-13
-3.78938e-13
-3.8057e-13
-3.78234e-13
-3.81852e-13
-3.87273e-13
-3.93756e-13
-3.94323e-13
-3.83951e-13
-3.799e-13
-3.7653e-13
-3.72561e-13
-3.76639e-13
-3.63594e-13
-3.62876e-13
-3.69489e-13
-3.70939e-13
-3.66843e-13
-3.60609e-13
-3.6304e-13
-3.54267e-13
-3.48872e-13
-3.46963e-13
-3.37375e-13
-3.25151e-13
-3.24099e-13
-3.1519e-13
-3.09069e-13
-3.07654e-13
-3.08003e-13
-3.10118e-13
-3.08008e-13
-3.0451e-13
-2.90229e-13
-2.9274e-13
-2.84402e-13
-2.74732e-13
-2.62052e-13
-2.55424e-13
-2.47247e-13
-2.50793e-13
-2.51623e-13
-2.36097e-13
-2.22556e-13
-2.09363e-13
-1.95361e-13
-1.88086e-13
-1.78622e-13
-1.64363e-13
-1.58978e-13
-1.47169e-13
-1.43705e-13
-1.36788e-13
-1.27672e-13
-1.07563e-13
-1.03842e-13
-9.77358e-14
-9.26471e-14
-7.73853e-14
-7.63888e-14
-6.45922e-14
-4.90746e-14
-3.98926e-14
-3.07019e-14
-1.38809e-14
-7.55534e-15
-3.01367e-13
-3.02816e-13
-3.0817e-13
-3.09853e-13
-3.07954e-13
-3.13757e-13
-3.15969e-13
-3.16118e-13
-3.17997e-13
-3.19307e-13
-3.23288e-13
-3.21777e-13
-3.24043e-13
-3.22829e-13
-3.2322e-13
-3.2138e-13
-3.29576e-13
-3.32322e-13
-3.37429e-13
-3.48522e-13
-3.59782e-13
-3.59943e-13
-3.59043e-13
-3.61993e-13
-3.68974e-13
-3.68084e-13
-3.72325e-13
-3.70508e-13
-3.72191e-13
-3.69701e-13
-3.67953e-13
-3.727e-13
-3.78236e-13
-3.87205e-13
-3.84365e-13
-3.78629e-13
-3.79239e-13
-3.7961e-13
-3.90484e-13
-3.92207e-13
-3.93645e-13
-3.92289e-13
-3.84172e-13
-3.74053e-13
-3.71197e-13
-3.8101e-13
-3.88444e-13
-3.71542e-13
-3.6375e-13
-3.66753e-13
-3.67898e-13
-3.61039e-13
-3.62555e-13
-3.61314e-13
-3.58167e-13
-3.5298e-13
-3.41981e-13
-3.37955e-13
-3.25978e-13
-3.19776e-13
-3.16522e-13
-3.09697e-13
-3.03485e-13
-3.04129e-13
-3.16754e-13
-3.13845e-13
-3.05577e-13
-2.9659e-13
-2.89499e-13
-2.77594e-13
-2.77928e-13
-2.65398e-13
-2.56081e-13
-2.50053e-13
-2.45774e-13
-2.45113e-13
-2.37102e-13
-2.24066e-13
-2.07383e-13
-1.99403e-13
-1.87949e-13
-1.79011e-13
-1.68113e-13
-1.59068e-13
-1.48248e-13
-1.3928e-13
-1.36809e-13
-1.26674e-13
-1.15874e-13
-1.09551e-13
-9.98419e-14
-9.51562e-14
-7.92087e-14
-7.54194e-14
-6.67561e-14
-5.08065e-14
-3.85655e-14
-2.83298e-14
-1.63533e-14
-7.89469e-15
-3.01223e-13
-3.00183e-13
-3.01645e-13
-3.06884e-13
-3.08052e-13
-3.09012e-13
-3.09609e-13
-3.12974e-13
-3.1817e-13
-3.24234e-13
-3.24524e-13
-3.2133e-13
-3.23479e-13
-3.25758e-13
-3.20011e-13
-3.23468e-13
-3.28053e-13
-3.3431e-13
-3.39469e-13
-3.47973e-13
-3.56197e-13
-3.6267e-13
-3.64106e-13
-3.61576e-13
-3.64234e-13
-3.65836e-13
-3.78397e-13
-3.7014e-13
-3.63923e-13
-3.67377e-13
-3.67549e-13
-3.72267e-13
-3.88099e-13
-3.9496e-13
-3.92266e-13
-3.82529e-13
-3.79882e-13
-3.80065e-13
-3.88692e-13
-3.89722e-13
-3.97529e-13
-3.92313e-13
-3.83739e-13
-3.86683e-13
-3.76864e-13
-3.77296e-13
-3.78997e-13
-3.7451e-13
-3.66735e-13
-3.64658e-13
-3.69114e-13
-3.69692e-13
-3.70599e-13
-3.58275e-13
-3.50001e-13
-3.49107e-13
-3.42535e-13
-3.53164e-13
-3.28867e-13
-3.19268e-13
-3.1617e-13
-3.11884e-13
-3.07295e-13
-2.98889e-13
-3.07163e-13
-3.13837e-13
-3.04824e-13
-2.99963e-13
-2.9081e-13
-2.75713e-13
-2.73066e-13
-2.67677e-13
-2.58378e-13
-2.52558e-13
-2.43501e-13
-2.41618e-13
-2.37636e-13
-2.25157e-13
-2.09738e-13
-2.01446e-13
-1.84575e-13
-1.7712e-13
-1.72162e-13
-1.65141e-13
-1.47686e-13
-1.38511e-13
-1.35659e-13
-1.26273e-13
-1.11873e-13
-1.08413e-13
-1.03743e-13
-9.71615e-14
-8.11015e-14
-7.62356e-14
-7.20213e-14
-5.35706e-14
-3.68698e-14
-2.9423e-14
-1.97805e-14
-8.30645e-15
-3.05515e-13
-3.02371e-13
-2.97622e-13
-3.00076e-13
-3.04009e-13
-3.11386e-13
-3.08039e-13
-3.10651e-13
-3.13264e-13
-3.20348e-13
-3.17462e-13
-3.16989e-13
-3.20065e-13
-3.2356e-13
-3.22231e-13
-3.25049e-13
-3.31922e-13
-3.39955e-13
-3.40506e-13
-3.38256e-13
-3.51178e-13
-3.6504e-13
-3.6637e-13
-3.67752e-13
-3.73328e-13
-3.68787e-13
-3.7215e-13
-3.69053e-13
-3.68555e-13
-3.70868e-13
-3.74198e-13
-3.77392e-13
-3.87123e-13
-3.87827e-13
-3.89245e-13
-3.86089e-13
-3.83399e-13
-3.87696e-13
-3.96917e-13
-3.96377e-13
-4.01692e-13
-3.94937e-13
-3.82935e-13
-3.80458e-13
-3.82864e-13
-3.81756e-13
-3.81833e-13
-3.70846e-13
-3.65217e-13
-3.70699e-13
-3.75296e-13
-3.68618e-13
-3.64554e-13
-3.60741e-13
-3.57561e-13
-3.51501e-13
-3.4186e-13
-3.3978e-13
-3.27617e-13
-3.27349e-13
-3.19289e-13
-3.1122e-13
-3.06993e-13
-3.04366e-13
-3.10291e-13
-3.15136e-13
-3.07956e-13
-2.98036e-13
-2.90865e-13
-2.80623e-13
-2.74784e-13
-2.63603e-13
-2.58844e-13
-2.49007e-13
-2.4272e-13
-2.44103e-13
-2.3722e-13
-2.23516e-13
-2.14537e-13
-2.0218e-13
-1.91111e-13
-1.82701e-13
-1.76308e-13
-1.59353e-13
-1.47289e-13
-1.41913e-13
-1.3612e-13
-1.23801e-13
-1.11037e-13
-1.08836e-13
-1.06259e-13
-9.39872e-14
-8.03042e-14
-7.18244e-14
-6.86331e-14
-5.49103e-14
-4.39841e-14
-3.45005e-14
-2.51117e-14
-7.59779e-15
-2.9603e-13
-3.00134e-13
-2.98889e-13
-3.03247e-13
-3.0786e-13
-3.09494e-13
-3.10988e-13
-3.08656e-13
-3.05714e-13
-3.11737e-13
-3.18659e-13
-3.15656e-13
-3.146e-13
-3.23684e-13
-3.21241e-13
-3.27982e-13
-3.37403e-13
-3.38648e-13
-3.3867e-13
-3.36574e-13
-3.52379e-13
-3.62702e-13
-3.6204e-13
-3.63737e-13
-3.71973e-13
-3.76339e-13
-3.73338e-13
-3.6722e-13
-3.72494e-13
-3.72043e-13
-3.759e-13
-3.84741e-13
-3.89913e-13
-3.91389e-13
-3.92451e-13
-3.89076e-13
-3.88977e-13
-4.00703e-13
-3.92789e-13
-3.87135e-13
-3.98199e-13
-3.98714e-13
-3.88034e-13
-3.84285e-13
-3.83313e-13
-3.81025e-13
-3.7919e-13
-3.77115e-13
-3.70688e-13
-3.74419e-13
-3.69387e-13
-3.69802e-13
-3.69713e-13
-3.61277e-13
-3.56791e-13
-3.54047e-13
-3.47752e-13
-3.41922e-13
-3.29165e-13
-3.24315e-13
-3.17963e-13
-3.15004e-13
-3.11911e-13
-3.11314e-13
-3.1423e-13
-3.12443e-13
-3.1142e-13
-3.01665e-13
-2.89365e-13
-2.80817e-13
-2.67596e-13
-2.61666e-13
-2.5657e-13
-2.48671e-13
-2.4861e-13
-2.46452e-13
-2.36672e-13
-2.35083e-13
-2.11742e-13
-2.02476e-13
-1.93416e-13
-1.8624e-13
-1.76648e-13
-1.6138e-13
-1.47576e-13
-1.3651e-13
-1.32355e-13
-1.23252e-13
-1.16851e-13
-1.11337e-13
-1.08458e-13
-9.02726e-14
-7.42294e-14
-6.79047e-14
-6.83846e-14
-5.71041e-14
-4.63543e-14
-3.46052e-14
-2.58266e-14
-9.46002e-15
-2.92057e-13
-2.99532e-13
-2.98145e-13
-3.00344e-13
-3.09404e-13
-3.09257e-13
-3.05846e-13
-3.01328e-13
-3.04301e-13
-3.13303e-13
-3.1743e-13
-3.12515e-13
-3.12501e-13
-3.18978e-13
-3.22131e-13
-3.21712e-13
-3.34235e-13
-3.39502e-13
-3.40921e-13
-3.40703e-13
-3.52659e-13
-3.62121e-13
-3.71144e-13
-3.70312e-13
-3.68407e-13
-3.73879e-13
-3.73863e-13
-3.70708e-13
-3.72598e-13
-3.70396e-13
-3.76653e-13
-3.83625e-13
-3.95845e-13
-3.98384e-13
-3.97973e-13
-3.89575e-13
-3.88727e-13
-3.92787e-13
-3.97403e-13
-3.94933e-13
-3.99673e-13
-4.0012e-13
-3.95143e-13
-3.83842e-13
-3.87309e-13
-3.84233e-13
-3.77228e-13
-3.75639e-13
-3.7676e-13
-3.72681e-13
-3.76036e-13
-3.75656e-13
-3.69054e-13
-3.57596e-13
-3.52546e-13
-3.49805e-13
-3.47949e-13
-3.46968e-13
-3.35292e-13
-3.18998e-13
-3.1711e-13
-3.16659e-13
-3.1876e-13
-3.15004e-13
-3.16651e-13
-3.14903e-13
-3.10131e-13
-2.98534e-13
-2.89954e-13
-2.79034e-13
-2.69727e-13
-2.65951e-13
-2.59708e-13
-2.49592e-13
-2.47747e-13
-2.45911e-13
-2.36048e-13
-2.27546e-13
-2.13486e-13
-2.07555e-13
-1.9765e-13
-1.85394e-13
-1.75299e-13
-1.63505e-13
-1.55449e-13
-1.44845e-13
-1.31605e-13
-1.23291e-13
-1.14861e-13
-1.05446e-13
-1.03921e-13
-9.08596e-14
-7.99655e-14
-7.17427e-14
-6.74497e-14
-5.86208e-14
-4.58026e-14
-3.62666e-14
-2.11327e-14
-4.92215e-15
-2.91766e-13
-2.93681e-13
-2.99999e-13
-3.03164e-13
-3.06316e-13
-3.0387e-13
-3.0189e-13
-2.99161e-13
-3.03906e-13
-3.05753e-13
-3.15757e-13
-3.14638e-13
-3.12328e-13
-3.19047e-13
-3.24353e-13
-3.33159e-13
-3.37165e-13
-3.36333e-13
-3.36798e-13
-3.38333e-13
-3.50469e-13
-3.59801e-13
-3.66799e-13
-3.68008e-13
-3.65788e-13
-3.66778e-13
-3.74547e-13
-3.80046e-13
-3.83642e-13
-3.76938e-13
-3.87314e-13
-3.84074e-13
-3.84593e-13
-3.91648e-13
-3.96398e-13
-3.95303e-13
-3.96992e-13
-3.98058e-13
-4.0073e-13
-3.97137e-13
-3.97979e-13
-3.96705e-13
-3.90983e-13
-3.86912e-13
-3.87887e-13
-3.88246e-13
-3.76733e-13
-3.70009e-13
-3.78748e-13
-3.79853e-13
-3.80607e-13
-3.69128e-13
-3.70102e-13
-3.64086e-13
-3.57955e-13
-3.52453e-13
-3.46533e-13
-3.37661e-13
-3.35927e-13
-3.21951e-13
-3.20176e-13
-3.2312e-13
-3.25741e-13
-3.15097e-13
-3.08642e-13
-3.14662e-13
-3.1188e-13
-2.99328e-13
-2.88597e-13
-2.83134e-13
-2.69427e-13
-2.64708e-13
-2.56309e-13
-2.54303e-13
-2.52863e-13
-2.48661e-13
-2.39533e-13
-2.3146e-13
-2.09688e-13
-2.03164e-13
-1.91447e-13
-1.84822e-13
-1.78588e-13
-1.70496e-13
-1.5365e-13
-1.41359e-13
-1.29088e-13
-1.24081e-13
-1.21909e-13
-1.13465e-13
-1.02592e-13
-9.08735e-14
-7.7962e-14
-7.69865e-14
-6.44422e-14
-5.51749e-14
-4.29168e-14
-3.79479e-14
-3.12935e-14
-1.23779e-14
-2.94305e-13
-2.93583e-13
-2.94192e-13
-3.01383e-13
-3.01809e-13
-3.0198e-13
-3.01818e-13
-3.09403e-13
-3.07015e-13
-3.04859e-13
-3.10846e-13
-3.09079e-13
-3.12105e-13
-3.19169e-13
-3.27276e-13
-3.3075e-13
-3.31977e-13
-3.30166e-13
-3.36339e-13
-3.38872e-13
-3.54146e-13
-3.65899e-13
-3.67783e-13
-3.67966e-13
-3.6851e-13
-3.72695e-13
-3.73718e-13
-3.7735e-13
-3.80859e-13
-3.79922e-13
-3.8435e-13
-3.88655e-13
-3.91667e-13
-3.9321e-13
-3.99035e-13
-3.91723e-13
-3.95829e-13
-3.94482e-13
-4.00994e-13
-3.93768e-13
-4.01526e-13
-3.98235e-13
-3.98177e-13
-3.90665e-13
-3.86771e-13
-3.84154e-13
-3.828e-13
-3.80694e-13
-3.76619e-13
-3.77405e-13
-3.79084e-13
-3.68334e-13
-3.74969e-13
-3.70912e-13
-3.54833e-13
-3.53405e-13
-3.46013e-13
-3.40327e-13
-3.3022e-13
-3.19539e-13