/*--------------------------------*- C++ -*----------------------------------*\
| =========                 |                                                 |
| \\      /  F ield         | OpenFOAM: The Open Source CFD Toolbox           |
|  \\    /   O peration     | Version:  v2012                                 |
|   \\  /    A nd           | Website:  www.openfoam.com                      |
|    \\/     M anipulation  |                                                 |
\*---------------------------------------------------------------------------*/
FoamFile
{
    version     2.0;
    format      ascii;
    class       volVectorField;
    location    "70";
    object      Usup;
}
// * * * * * * * * * * * * * * * * * * * * * * * * * * * * * * * * * * * * * //

dimensions      [0 1 -1 0 0 0 0];


internalField   nonuniform List<vector> 
4000
(
(-2.00303e-16 8.61729e-17 0)
(-4.84039e-16 5.35329e-16 0)
(-8.62102e-16 9.46486e-16 0)
(-1.58038e-15 9.79225e-16 0)
(-2.52244e-15 1.09813e-15 0)
(-3.18189e-15 1.22539e-15 0)
(-3.04091e-15 1.4831e-15 0)
(-2.8724e-15 1.44802e-15 0)
(-3.07919e-15 1.61973e-15 0)
(-3.47574e-15 1.41472e-15 0)
(-4.25062e-15 1.38964e-15 0)
(-4.9318e-15 1.66481e-15 0)
(-5.23904e-15 1.89064e-15 0)
(-5.69201e-15 2.17134e-15 0)
(-5.81807e-15 2.49826e-15 0)
(-5.57567e-15 2.82126e-15 0)
(-5.62678e-15 2.80316e-15 0)
(-5.63628e-15 2.41109e-15 0)
(-5.80345e-15 1.89534e-15 0)
(-5.59133e-15 1.98543e-15 0)
(-4.87091e-15 2.0804e-15 0)
(-4.24124e-15 1.88628e-15 0)
(-3.4735e-15 1.63182e-15 0)
(-2.73967e-15 1.62448e-15 0)
(-2.41755e-15 1.59735e-15 0)
(-2.09229e-15 1.72611e-15 0)
(-1.9401e-15 1.6367e-15 0)
(-2.36909e-15 1.81495e-15 0)
(-2.90762e-15 1.82633e-15 0)
(-2.94553e-15 2.01231e-15 0)
(-2.11073e-15 2.60671e-15 0)
(-1.54321e-15 2.22097e-15 0)
(-2.29205e-15 1.49801e-15 0)
(-3.44951e-15 1.58749e-15 0)
(-4.00012e-15 1.76074e-15 0)
(-4.56006e-15 1.62815e-15 0)
(-4.78337e-15 2.18589e-15 0)
(-4.07289e-15 2.27665e-15 0)
(-2.77865e-15 2.12812e-15 0)
(-1.4196e-15 1.79866e-15 0)
(-6.34534e-16 1.83111e-15 0)
(-4.09525e-16 1.84805e-15 0)
(-4.40619e-16 1.86871e-15 0)
(-6.71409e-16 1.7772e-15 0)
(-8.61824e-16 1.78277e-15 0)
(-1.03381e-15 1.67566e-15 0)
(-1.50303e-15 1.61797e-15 0)
(-1.57604e-15 1.64716e-15 0)
(-1.10984e-15 1.81259e-15 0)
(-3.93612e-16 1.68074e-15 0)
(9.48581e-17 1.39518e-15 0)
(1.78515e-16 1.40727e-15 0)
(3.78239e-16 1.55546e-15 0)
(5.35631e-16 1.6369e-15 0)
(6.8885e-16 1.42323e-15 0)
(1.0866e-15 1.36761e-15 0)
(1.47293e-15 1.16364e-15 0)
(1.70808e-15 1.26592e-15 0)
(1.91339e-15 1.16695e-15 0)
(1.94336e-15 1.01571e-15 0)
(1.47957e-15 9.87884e-16 0)
(1.14577e-15 1.20911e-15 0)
(1.15879e-15 1.21631e-15 0)
(1.2975e-15 1.45362e-15 0)
(1.95271e-15 1.39796e-15 0)
(2.54948e-15 1.18898e-15 0)
(2.61239e-15 1.10509e-15 0)
(2.7244e-15 1.09245e-15 0)
(3.4102e-15 1.24289e-15 0)
(3.62556e-15 1.12421e-15 0)
(3.06128e-15 1.14228e-15 0)
(2.68409e-15 9.64616e-16 0)
(2.41949e-15 1.12708e-15 0)
(2.5989e-15 9.76676e-16 0)
(2.96951e-15 7.48842e-16 0)
(2.56907e-15 5.10613e-16 0)
(1.7437e-15 5.33735e-16 0)
(1.0237e-15 4.83084e-16 0)
(1.64719e-16 5.5465e-16 0)
(-3.34105e-16 6.31988e-16 0)
(5.43622e-17 8.55828e-16 0)
(4.85509e-16 1.06255e-15 0)
(4.82567e-16 7.71243e-16 0)
(2.60946e-16 5.43332e-16 0)
(-4.00009e-16 4.08119e-16 0)
(-9.40937e-16 2.78238e-16 0)
(-9.06282e-16 2.5595e-16 0)
(-7.65284e-16 3.39323e-16 0)
(-7.66502e-16 1.42766e-16 0)
(-1.13176e-15 2.31959e-17 0)
(-1.02365e-15 4.18216e-16 0)
(-2.0767e-16 5.17156e-16 0)
(3.42747e-17 2.13582e-16 0)
(-2.36143e-16 -5.66406e-17 0)
(-2.68169e-16 -2.3249e-16 0)
(-2.50223e-16 -3.20884e-16 0)
(-2.55784e-16 -1.59615e-16 0)
(-4.358e-16 1.66498e-17 0)
(-6.73141e-16 1.66113e-16 0)
(-3.94368e-16 1.06112e-16 0)
(-4.03606e-16 4.00183e-16 0)
(-1.22864e-15 1.41237e-15 0)
(-2.7095e-15 2.24538e-15 0)
(-4.75632e-15 2.97779e-15 0)
(-6.89959e-15 3.62689e-15 0)
(-8.38367e-15 4.05271e-15 0)
(-8.58025e-15 4.44562e-15 0)
(-8.57778e-15 4.3042e-15 0)
(-9.33329e-15 4.50559e-15 0)
(-1.05961e-14 4.37872e-15 0)
(-1.20782e-14 4.33197e-15 0)
(-1.35684e-14 5.06219e-15 0)
(-1.45458e-14 5.83115e-15 0)
(-1.55324e-14 6.61291e-15 0)
(-1.58765e-14 7.438e-15 0)
(-1.57872e-14 7.80839e-15 0)
(-1.63759e-14 7.80978e-15 0)
(-1.67354e-14 7.15325e-15 0)
(-1.65238e-14 6.03642e-15 0)
(-1.54136e-14 5.85137e-15 0)
(-1.39357e-14 6.01747e-15 0)
(-1.25051e-14 5.82658e-15 0)
(-1.04358e-14 5.39593e-15 0)
(-8.46743e-15 5.13301e-15 0)
(-7.36508e-15 5.00654e-15 0)
(-6.58964e-15 5.31284e-15 0)
(-6.22463e-15 5.08099e-15 0)
(-6.94613e-15 5.42602e-15 0)
(-7.94421e-15 5.81937e-15 0)
(-7.52121e-15 6.26939e-15 0)
(-6.39867e-15 6.983e-15 0)
(-6.4195e-15 6.33823e-15 0)
(-7.61827e-15 4.96527e-15 0)
(-9.40985e-15 4.81328e-15 0)
(-1.10182e-14 5.101e-15 0)
(-1.1941e-14 5.17583e-15 0)
(-1.20549e-14 6.17527e-15 0)
(-1.08787e-14 6.37142e-15 0)
(-8.18262e-15 6.21675e-15 0)
(-4.883e-15 5.65939e-15 0)
(-2.60369e-15 5.86147e-15 0)
(-1.8211e-15 5.70785e-15 0)
(-1.80804e-15 5.59364e-15 0)
(-2.21654e-15 5.43155e-15 0)
(-2.64598e-15 5.23294e-15 0)
(-3.12403e-15 4.91743e-15 0)
(-3.87657e-15 4.82466e-15 0)
(-3.75459e-15 4.96591e-15 0)
(-2.79751e-15 5.27806e-15 0)
(-1.51185e-15 5.18737e-15 0)
(-1.89456e-16 4.59258e-15 0)
(6.00283e-16 4.48023e-15 0)
(1.23599e-15 4.53369e-15 0)
(1.48481e-15 4.3833e-15 0)
(1.9269e-15 4.16556e-15 0)
(2.90678e-15 3.95108e-15 0)
(3.97797e-15 3.55788e-15 0)
(4.70547e-15 3.81107e-15 0)
(5.00638e-15 3.7934e-15 0)
(5.10207e-15 3.28451e-15 0)
(4.5103e-15 3.09857e-15 0)
(3.88474e-15 3.3745e-15 0)
(3.9466e-15 3.45045e-15 0)
(4.36964e-15 3.91257e-15 0)
(5.48378e-15 4.15398e-15 0)
(6.82227e-15 3.80549e-15 0)
(7.39115e-15 3.64135e-15 0)
(8.04017e-15 3.5744e-15 0)
(9.3154e-15 3.62086e-15 0)
(9.64191e-15 3.0944e-15 0)
(8.54224e-15 3.12421e-15 0)
(7.7795e-15 2.91589e-15 0)
(7.2e-15 2.92072e-15 0)
(7.12503e-15 2.92447e-15 0)
(7.51813e-15 2.36085e-15 0)
(6.69919e-15 1.79467e-15 0)
(4.90984e-15 1.55375e-15 0)
(3.08097e-15 1.48062e-15 0)
(1.17505e-15 1.69643e-15 0)
(1.20047e-16 2.19395e-15 0)
(7.5332e-16 2.64866e-15 0)
(1.10268e-15 2.78044e-15 0)
(7.13881e-16 2.18827e-15 0)
(2.04216e-16 1.42462e-15 0)
(-1.1661e-15 1.14906e-15 0)
(-2.28464e-15 1.0152e-15 0)
(-2.24849e-15 1.06116e-15 0)
(-2.20443e-15 1.08393e-15 0)
(-2.4106e-15 6.12989e-16 0)
(-2.57091e-15 3.53027e-16 0)
(-2.08956e-15 8.14117e-16 0)
(-1.03798e-15 9.96197e-16 0)
(-7.25931e-16 4.41204e-16 0)
(-1.02173e-15 2.33473e-17 0)
(-9.67427e-16 -3.39418e-16 0)
(-7.09971e-16 -6.27123e-16 0)
(-5.63807e-16 -5.39899e-16 0)
(-9.09646e-16 -1.2716e-16 0)
(-1.40757e-15 3.28353e-16 0)
(-9.2857e-16 1.8381e-16 0)
(-7.0843e-16 7.80646e-16 0)
(-2.24761e-15 2.23629e-15 0)
(-4.33678e-15 3.48108e-15 0)
(-7.18119e-15 4.7845e-15 0)
(-1.05476e-14 6.02473e-15 0)
(-1.30537e-14 6.99611e-15 0)
(-1.39456e-14 7.36689e-15 0)
(-1.43275e-14 7.18506e-15 0)
(-1.53938e-14 7.25334e-15 0)
(-1.73224e-14 7.23773e-15 0)
(-1.93171e-14 7.44631e-15 0)
(-2.11533e-14 8.51324e-15 0)
(-2.2694e-14 9.63656e-15 0)
(-2.4182e-14 1.07353e-14 0)
(-2.51008e-14 1.23227e-14 0)
(-2.53972e-14 1.24981e-14 0)
(-2.62125e-14 1.21661e-14 0)
(-2.69668e-14 1.18116e-14 0)
(-2.66057e-14 1.06427e-14 0)
(-2.45773e-14 9.71842e-15 0)
(-2.21725e-14 9.6604e-15 0)
(-2.00751e-14 9.8834e-15 0)
(-1.72936e-14 9.58758e-15 0)
(-1.44444e-14 9.07916e-15 0)
(-1.24173e-14 8.64597e-15 0)
(-1.1259e-14 8.55098e-15 0)
(-1.07326e-14 8.45237e-15 0)
(-1.1184e-14 8.77051e-15 0)
(-1.22863e-14 9.62696e-15 0)
(-1.20127e-14 1.07043e-14 0)
(-1.09855e-14 1.08184e-14 0)
(-1.14858e-14 1.01153e-14 0)
(-1.31435e-14 8.73418e-15 0)
(-1.51268e-14 8.03707e-15 0)
(-1.70117e-14 8.10386e-15 0)
(-1.80502e-14 8.62736e-15 0)
(-1.81446e-14 9.59219e-15 0)
(-1.65789e-14 9.95713e-15 0)
(-1.29547e-14 1.00862e-14 0)
(-8.26953e-15 9.78698e-15 0)
(-4.98221e-15 9.91772e-15 0)
(-3.86591e-15 9.79323e-15 0)
(-3.55142e-15 9.40502e-15 0)
(-4.00663e-15 9.01982e-15 0)
(-4.62737e-15 8.21229e-15 0)
(-5.10649e-15 7.63311e-15 0)
(-5.74315e-15 7.92353e-15 0)
(-5.36819e-15 8.44399e-15 0)
(-4.02214e-15 8.62356e-15 0)
(-2.45083e-15 8.48796e-15 0)
(-6.80175e-16 8.07395e-15 0)
(6.91132e-16 7.95469e-15 0)
(1.63208e-15 7.77095e-15 0)
(2.31555e-15 7.06206e-15 0)
(3.20133e-15 6.7008e-15 0)
(4.5031e-15 6.2344e-15 0)
(6.24666e-15 5.94421e-15 0)
(7.522e-15 6.17724e-15 0)
(7.67555e-15 6.43753e-15 0)
(7.6414e-15 5.7112e-15 0)
(7.20656e-15 5.41096e-15 0)
(6.6343e-15 5.73628e-15 0)
(6.90224e-15 5.81458e-15 0)
(7.78869e-15 6.03133e-15 0)
(9.15882e-15 6.41203e-15 0)
(1.07547e-14 6.16569e-15 0)
(1.17653e-14 6.12348e-15 0)
(1.27402e-14 6.03451e-15 0)
(1.41305e-14 5.83661e-15 0)
(1.4659e-14 5.44056e-15 0)
(1.36022e-14 5.38864e-15 0)
(1.24013e-14 5.27982e-15 0)
(1.1703e-14 4.85193e-15 0)
(1.13727e-14 4.83829e-15 0)
(1.12468e-14 4.00442e-15 0)
(9.97203e-15 3.17772e-15 0)
(7.60751e-15 2.59923e-15 0)
(5.20502e-15 2.45568e-15 0)
(2.80664e-15 2.84804e-15 0)
(1.29019e-15 3.67058e-15 0)
(1.44434e-15 4.39795e-15 0)
(1.41045e-15 4.17806e-15 0)
(5.41702e-16 3.34008e-15 0)
(-1.89565e-16 2.1313e-15 0)
(-1.67987e-15 1.84693e-15 0)
(-3.09238e-15 1.74717e-15 0)
(-3.30543e-15 1.7825e-15 0)
(-3.58504e-15 1.83666e-15 0)
(-3.91168e-15 1.24937e-15 0)
(-3.88473e-15 9.23948e-16 0)
(-3.08095e-15 9.56095e-16 0)
(-1.88564e-15 7.53428e-16 0)
(-1.51537e-15 5.59556e-16 0)
(-1.74956e-15 4.04426e-16 0)
(-1.74612e-15 -8.2907e-17 0)
(-1.41857e-15 -4.4158e-16 0)
(-9.83486e-16 -6.55788e-16 0)
(-1.10387e-15 -5.82663e-16 0)
(-1.79789e-15 -1.03853e-16 0)
(-1.30994e-15 1.68267e-17 0)
(-9.29971e-16 9.8474e-16 0)
(-3.01625e-15 2.97052e-15 0)
(-5.92671e-15 4.66825e-15 0)
(-9.55851e-15 6.15545e-15 0)
(-1.35936e-14 7.84619e-15 0)
(-1.70592e-14 9.54157e-15 0)
(-1.89471e-14 1.00462e-14 0)
(-1.98599e-14 1.01246e-14 0)
(-2.13859e-14 1.00477e-14 0)
(-2.37189e-14 9.77151e-15 0)
(-2.58171e-14 1.02494e-14 0)
(-2.79981e-14 1.14502e-14 0)
(-3.00503e-14 1.31653e-14 0)
(-3.15457e-14 1.4565e-14 0)
(-3.30324e-14 1.64578e-14 0)
(-3.44639e-14 1.72771e-14 0)
(-3.54341e-14 1.70654e-14 0)
(-3.62606e-14 1.66702e-14 0)
(-3.6112e-14 1.54179e-14 0)
(-3.33797e-14 1.41332e-14 0)
(-2.97648e-14 1.34462e-14 0)
(-2.69823e-14 1.33297e-14 0)
(-2.38355e-14 1.30424e-14 0)
(-2.04874e-14 1.29497e-14 0)
(-1.79566e-14 1.28163e-14 0)
(-1.61584e-14 1.24271e-14 0)
(-1.51367e-14 1.2078e-14 0)
(-1.52572e-14 1.23769e-14 0)
(-1.59102e-14 1.32593e-14 0)
(-1.59481e-14 1.45524e-14 0)
(-1.57321e-14 1.44509e-14 0)
(-1.67826e-14 1.34222e-14 0)
(-1.87424e-14 1.23572e-14 0)
(-2.06696e-14 1.14609e-14 0)
(-2.23617e-14 1.12137e-14 0)
(-2.31559e-14 1.17189e-14 0)
(-2.31421e-14 1.25828e-14 0)
(-2.13169e-14 1.33527e-14 0)
(-1.70996e-14 1.35039e-14 0)
(-1.16355e-14 1.37519e-14 0)
(-7.50599e-15 1.37494e-14 0)
(-6.04084e-15 1.36124e-14 0)
(-5.71701e-15 1.30644e-14 0)
(-6.32444e-15 1.22607e-14 0)
(-6.9706e-15 1.12312e-14 0)
(-6.78021e-15 1.03421e-14 0)
(-6.82611e-15 1.04777e-14 0)
(-6.50339e-15 1.12756e-14 0)
(-5.23789e-15 1.16669e-14 0)
(-3.30233e-15 1.18385e-14 0)
(-9.34377e-16 1.1827e-14 0)
(8.51424e-16 1.16334e-14 0)
(1.80857e-15 1.10487e-14 0)
(2.65263e-15 9.91982e-15 0)
(4.02863e-15 9.00055e-15 0)
(5.90394e-15 8.54407e-15 0)
(8.29886e-15 8.54181e-15 0)
(1.00772e-14 8.52201e-15 0)
(1.01018e-14 8.61254e-15 0)
(9.91707e-15 8.21591e-15 0)
(9.93984e-15 7.89495e-15 0)
(9.48214e-15 7.94971e-15 0)
(9.65933e-15 7.78553e-15 0)
(1.08533e-14 8.00783e-15 0)
(1.2529e-14 8.30536e-15 0)
(1.44888e-14 8.18652e-15 0)
(1.58837e-14 8.25669e-15 0)
(1.70474e-14 8.18776e-15 0)
(1.87111e-14 8.19415e-15 0)
(1.93373e-14 8.06122e-15 0)
(1.80907e-14 7.65998e-15 0)
(1.65274e-14 7.44588e-15 0)
(1.55504e-14 6.96636e-15 0)
(1.48635e-14 6.69016e-15 0)
(1.42423e-14 5.47135e-15 0)
(1.26599e-14 4.38318e-15 0)
(9.958e-15 3.37431e-15 0)
(7.29569e-15 3.29295e-15 0)
(4.65925e-15 3.69872e-15 0)
(2.87989e-15 4.82299e-15 0)
(2.40706e-15 5.63159e-15 0)
(1.47853e-15 5.32414e-15 0)
(3.2367e-17 4.48401e-15 0)
(-7.01031e-16 3.1774e-15 0)
(-2.1345e-15 2.4302e-15 0)
(-3.79456e-15 2.09794e-15 0)
(-4.05644e-15 2.26092e-15 0)
(-4.64858e-15 2.2516e-15 0)
(-5.25745e-15 1.70974e-15 0)
(-5.04176e-15 1.38462e-15 0)
(-4.20746e-15 1.09129e-15 0)
(-2.74065e-15 6.95838e-16 0)
(-2.01661e-15 6.04042e-16 0)
(-2.46728e-15 7.24174e-16 0)
(-2.5685e-15 6.87944e-17 0)
(-2.13051e-15 -2.39958e-16 0)
(-1.71641e-15 -3.20185e-16 0)
(-1.62062e-15 -6.23013e-16 0)
(-1.99277e-15 -5.50447e-16 0)
(-1.36948e-15 -1.91139e-16 0)
(-1.11839e-15 9.99846e-16 0)
(-3.80896e-15 3.43433e-15 0)
(-7.40831e-15 5.43406e-15 0)
(-1.15371e-14 7.31449e-15 0)
(-1.60478e-14 9.51359e-15 0)
(-2.05567e-14 1.15622e-14 0)
(-2.35202e-14 1.25732e-14 0)
(-2.51164e-14 1.26645e-14 0)
(-2.73149e-14 1.22769e-14 0)
(-2.98552e-14 1.20032e-14 0)
(-3.18938e-14 1.28162e-14 0)
(-3.39091e-14 1.42336e-14 0)
(-3.62193e-14 1.64375e-14 0)
(-3.82752e-14 1.81804e-14 0)
(-4.00405e-14 1.9731e-14 0)
(-4.20421e-14 2.14994e-14 0)
(-4.37373e-14 2.20958e-14 0)
(-4.50739e-14 2.16425e-14 0)
(-4.4967e-14 2.03069e-14 0)
(-4.18066e-14 1.92194e-14 0)
(-3.75066e-14 1.77322e-14 0)
(-3.38904e-14 1.67508e-14 0)
(-2.98066e-14 1.6455e-14 0)
(-2.56546e-14 1.68508e-14 0)
(-2.28876e-14 1.68788e-14 0)
(-2.12039e-14 1.65802e-14 0)
(-1.97949e-14 1.60194e-14 0)
(-1.92464e-14 1.60213e-14 0)
(-1.96247e-14 1.67581e-14 0)
(-1.99911e-14 1.78183e-14 0)
(-2.05115e-14 1.76127e-14 0)
(-2.17757e-14 1.64233e-14 0)
(-2.38123e-14 1.55677e-14 0)
(-2.59011e-14 1.49475e-14 0)
(-2.73418e-14 1.4741e-14 0)
(-2.7801e-14 1.4837e-14 0)
(-2.73838e-14 1.54958e-14 0)
(-2.53712e-14 1.6781e-14 0)
(-2.06753e-14 1.72957e-14 0)
(-1.45186e-14 1.76504e-14 0)
(-1.01594e-14 1.72446e-14 0)
(-8.49171e-15 1.68235e-14 0)
(-8.1054e-15 1.60796e-14 0)
(-8.64685e-15 1.52393e-14 0)
(-9.22522e-15 1.46626e-14 0)
(-8.79544e-15 1.36437e-14 0)
(-8.07996e-15 1.30115e-14 0)
(-7.16996e-15 1.34596e-14 0)
(-5.638e-15 1.43134e-14 0)
(-3.5238e-15 1.50813e-14 0)
(-1.16937e-15 1.5198e-14 0)
(5.49951e-16 1.47122e-14 0)
(1.52095e-15 1.36533e-14 0)
(2.65248e-15 1.24987e-14 0)
(4.73303e-15 1.14199e-14 0)
(7.42799e-15 1.12693e-14 0)
(1.01682e-14 1.14893e-14 0)
(1.20688e-14 1.11917e-14 0)
(1.23384e-14 1.09355e-14 0)
(1.22018e-14 1.08173e-14 0)
(1.21464e-14 1.05103e-14 0)
(1.17603e-14 9.92563e-15 0)
(1.2398e-14 9.59134e-15 0)
(1.40948e-14 9.77478e-15 0)
(1.58822e-14 9.72087e-15 0)
(1.80144e-14 9.7935e-15 0)
(1.96656e-14 1.00535e-14 0)
(2.11079e-14 1.01704e-14 0)
(2.28575e-14 1.03021e-14 0)
(2.32152e-14 1.01978e-14 0)
(2.19007e-14 9.78803e-15 0)
(2.02792e-14 9.54719e-15 0)
(1.91371e-14 8.87634e-15 0)
(1.78671e-14 8.37649e-15 0)
(1.66222e-14 7.06541e-15 0)
(1.46724e-14 5.59245e-15 0)
(1.19411e-14 4.29982e-15 0)
(9.37339e-15 4.2264e-15 0)
(6.74202e-15 4.69719e-15 0)
(4.68671e-15 5.86848e-15 0)
(3.30049e-15 6.39097e-15 0)
(1.7207e-15 6.05327e-15 0)
(-2.83252e-16 5.33728e-15 0)
(-1.49386e-15 4.29501e-15 0)
(-2.92165e-15 2.99925e-15 0)
(-4.25254e-15 2.44799e-15 0)
(-4.61596e-15 2.63823e-15 0)
(-5.63388e-15 2.40207e-15 0)
(-6.31661e-15 1.94901e-15 0)
(-6.13389e-15 1.47133e-15 0)
(-5.21445e-15 9.91458e-16 0)
(-3.55174e-15 8.67429e-16 0)
(-2.55735e-15 4.19019e-16 0)
(-3.1138e-15 4.72976e-16 0)
(-3.40552e-15 8.52375e-17 0)
(-2.66637e-15 -2.34071e-16 0)
(-2.25758e-15 -2.93456e-16 0)
(-2.28609e-15 -4.93724e-16 0)
(-2.41155e-15 -5.58561e-16 0)
(-1.43048e-15 -3.84204e-16 0)
(-1.2252e-15 1.27058e-15 0)
(-4.41842e-15 3.66947e-15 0)
(-8.73617e-15 6.005e-15 0)
(-1.32619e-14 8.35721e-15 0)
(-1.82204e-14 1.08129e-14 0)
(-2.35225e-14 1.29821e-14 0)
(-2.76892e-14 1.44712e-14 0)
(-3.04132e-14 1.45665e-14 0)
(-3.30237e-14 1.42471e-14 0)
(-3.53604e-14 1.44106e-14 0)
(-3.71443e-14 1.53514e-14 0)
(-3.91884e-14 1.71181e-14 0)
(-4.17586e-14 1.94242e-14 0)
(-4.43146e-14 2.1898e-14 0)
(-4.6149e-14 2.32003e-14 0)
(-4.84389e-14 2.45231e-14 0)
(-5.10242e-14 2.57418e-14 0)
(-5.30795e-14 2.58997e-14 0)
(-5.30074e-14 2.49752e-14 0)
(-4.97608e-14 2.40697e-14 0)
(-4.52183e-14 2.20918e-14 0)
(-4.05666e-14 2.1516e-14 0)
(-3.53693e-14 2.16125e-14 0)
(-3.08104e-14 2.12599e-14 0)
(-2.79762e-14 2.05875e-14 0)
(-2.60016e-14 1.99432e-14 0)
(-2.43722e-14 1.93511e-14 0)
(-2.33462e-14 1.92859e-14 0)
(-2.31259e-14 1.97511e-14 0)
(-2.37666e-14 2.07166e-14 0)
(-2.51313e-14 2.05965e-14 0)
(-2.6729e-14 1.9557e-14 0)
(-2.85597e-14 1.88142e-14 0)
(-3.04132e-14 1.81072e-14 0)
(-3.18935e-14 1.79444e-14 0)
(-3.21063e-14 1.7832e-14 0)
(-3.08819e-14 1.86785e-14 0)
(-2.83931e-14 2.02979e-14 0)
(-2.37662e-14 2.1333e-14 0)
(-1.77793e-14 2.12877e-14 0)
(-1.31387e-14 2.03009e-14 0)
(-1.10875e-14 1.96983e-14 0)
(-1.05025e-14 1.87828e-14 0)
(-1.06319e-14 1.81574e-14 0)
(-1.11842e-14 1.80232e-14 0)
(-1.08522e-14 1.73001e-14 0)
(-9.58908e-15 1.64902e-14 0)
(-7.79668e-15 1.61871e-14 0)
(-5.7362e-15 1.69949e-14 0)
(-3.65376e-15 1.75735e-14 0)
(-1.48485e-15 1.76354e-14 0)
(1.31939e-16 1.72667e-14 0)
(1.26284e-15 1.63317e-14 0)
(2.73843e-15 1.51344e-14 0)
(5.49106e-15 1.42707e-14 0)
(8.94952e-15 1.4219e-14 0)
(1.18187e-14 1.45556e-14 0)
(1.37393e-14 1.39345e-14 0)
(1.42689e-14 1.338e-14 0)
(1.42933e-14 1.32137e-14 0)
(1.41319e-14 1.26573e-14 0)
(1.38241e-14 1.2213e-14 0)
(1.48375e-14 1.21079e-14 0)
(1.66456e-14 1.1766e-14 0)
(1.87613e-14 1.11673e-14 0)
(2.14995e-14 1.12066e-14 0)
(2.34196e-14 1.15119e-14 0)
(2.48978e-14 1.19235e-14 0)
(2.66888e-14 1.19319e-14 0)
(2.70095e-14 1.20098e-14 0)
(2.55369e-14 1.22029e-14 0)
(2.35097e-14 1.16662e-14 0)
(2.1993e-14 1.07158e-14 0)
(2.04259e-14 9.67892e-15 0)
(1.85598e-14 8.61197e-15 0)
(1.62673e-14 6.92781e-15 0)
(1.36983e-14 5.99829e-15 0)
(1.13694e-14 5.49698e-15 0)
(8.74284e-15 5.73093e-15 0)
(6.268e-15 6.48728e-15 0)
(4.1545e-15 6.82767e-15 0)
(1.89451e-15 6.36629e-15 0)
(-4.97181e-16 5.79667e-15 0)
(-2.14356e-15 5.22852e-15 0)
(-3.73851e-15 3.80131e-15 0)
(-4.77677e-15 2.89182e-15 0)
(-5.15412e-15 2.68675e-15 0)
(-6.44223e-15 2.58222e-15 0)
(-7.35329e-15 2.08082e-15 0)
(-7.18446e-15 1.36075e-15 0)
(-5.99508e-15 8.00712e-16 0)
(-4.32592e-15 5.44096e-16 0)
(-3.3155e-15 1.55533e-16 0)
(-3.64197e-15 -2.44151e-16 0)
(-3.99328e-15 -2.19847e-16 0)
(-3.32275e-15 -4.27887e-16 0)
(-2.84881e-15 -7.7254e-16 0)
(-2.77979e-15 -8.18922e-16 0)
(-2.84798e-15 -8.82927e-16 0)
(-1.48988e-15 -5.13737e-16 0)
(-1.72146e-15 1.84672e-15 0)
(-5.44113e-15 4.18858e-15 0)
(-9.85116e-15 6.46145e-15 0)
(-1.47119e-14 9.10768e-15 0)
(-2.02028e-14 1.14907e-14 0)
(-2.62388e-14 1.3716e-14 0)
(-3.1488e-14 1.56051e-14 0)
(-3.5144e-14 1.64277e-14 0)
(-3.8033e-14 1.65651e-14 0)
(-4.04151e-14 1.73664e-14 0)
(-4.20499e-14 1.84329e-14 0)
(-4.37898e-14 1.98524e-14 0)
(-4.62056e-14 2.20261e-14 0)
(-4.94811e-14 2.46443e-14 0)
(-5.24039e-14 2.64508e-14 0)
(-5.46043e-14 2.7721e-14 0)
(-5.71307e-14 2.87991e-14 0)
(-5.98561e-14 2.94173e-14 0)
(-6.01718e-14 2.92288e-14 0)
(-5.72439e-14 2.85767e-14 0)
(-5.19952e-14 2.73671e-14 0)
(-4.60386e-14 2.67383e-14 0)
(-4.09406e-14 2.64624e-14 0)
(-3.65478e-14 2.49242e-14 0)
(-3.33004e-14 2.40504e-14 0)
(-3.1013e-14 2.29685e-14 0)
(-2.87968e-14 2.23966e-14 0)
(-2.72328e-14 2.27735e-14 0)
(-2.67061e-14 2.30668e-14 0)
(-2.73995e-14 2.32924e-14 0)
(-2.93383e-14 2.32468e-14 0)
(-3.11022e-14 2.2573e-14 0)
(-3.30542e-14 2.19135e-14 0)
(-3.49266e-14 2.12702e-14 0)
(-3.60655e-14 2.09371e-14 0)
(-3.57259e-14 2.09259e-14 0)
(-3.37026e-14 2.17989e-14 0)
(-3.09242e-14 2.3076e-14 0)
(-2.66021e-14 2.45492e-14 0)
(-2.09962e-14 2.46613e-14 0)
(-1.61691e-14 2.37155e-14 0)
(-1.37223e-14 2.26229e-14 0)
(-1.28036e-14 2.17346e-14 0)
(-1.23739e-14 2.11477e-14 0)
(-1.27258e-14 2.12761e-14 0)
(-1.25292e-14 2.08787e-14 0)
(-1.12095e-14 1.98291e-14 0)
(-8.72242e-15 1.88183e-14 0)
(-6.03986e-15 1.91758e-14 0)
(-3.88396e-15 1.99579e-14 0)
(-1.59987e-15 2.01334e-14 0)
(9.37149e-18 1.98935e-14 0)
(9.78631e-16 1.89286e-14 0)
(2.75452e-15 1.80952e-14 0)
(6.25524e-15 1.74791e-14 0)
(1.03893e-14 1.70526e-14 0)
(1.32241e-14 1.74091e-14 0)
(1.4913e-14 1.66909e-14 0)
(1.5874e-14 1.55653e-14 0)
(1.60078e-14 1.5129e-14 0)
(1.59646e-14 1.4319e-14 0)
(1.61303e-14 1.42725e-14 0)
(1.71208e-14 1.45575e-14 0)
(1.88124e-14 1.40531e-14 0)
(2.1302e-14 1.35691e-14 0)
(2.45347e-14 1.3267e-14 0)
(2.68561e-14 1.32748e-14 0)
(2.84029e-14 1.39309e-14 0)
(3.0123e-14 1.39822e-14 0)
(3.06839e-14 1.37209e-14 0)
(2.88258e-14 1.35699e-14 0)
(2.6145e-14 1.29896e-14 0)
(2.43257e-14 1.19095e-14 0)
(2.25796e-14 1.05196e-14 0)
(2.0362e-14 9.52663e-15 0)
(1.78836e-14 8.41201e-15 0)
(1.52798e-14 7.91008e-15 0)
(1.2779e-14 7.56388e-15 0)
(1.03194e-14 7.54001e-15 0)
(7.69396e-15 7.16022e-15 0)
(4.8875e-15 6.78289e-15 0)
(2.19377e-15 6.19611e-15 0)
(-3.14634e-16 5.77828e-15 0)
(-2.59416e-15 5.23054e-15 0)
(-4.71141e-15 3.94129e-15 0)
(-5.5366e-15 3.17675e-15 0)
(-5.61497e-15 2.80009e-15 0)
(-7.06267e-15 2.61834e-15 0)
(-8.32284e-15 2.13475e-15 0)
(-8.22396e-15 1.13637e-15 0)
(-6.92047e-15 5.3593e-16 0)
(-5.03415e-15 -4.12014e-17 0)
(-4.05069e-15 -4.79862e-16 0)
(-4.24776e-15 -7.66586e-16 0)
(-4.38187e-15 -5.04099e-16 0)
(-3.92834e-15 -5.69954e-16 0)
(-3.43823e-15 -1.20026e-15 0)
(-3.31051e-15 -1.42934e-15 0)
(-3.17803e-15 -1.41854e-15 0)
(-1.42908e-15 -4.97883e-16 0)
(-2.21624e-15 2.14036e-15 0)
(-6.64425e-15 5.00134e-15 0)
(-1.12124e-14 7.27311e-15 0)
(-1.6267e-14 9.32706e-15 0)
(-2.22088e-14 1.19516e-14 0)
(-2.85585e-14 1.43388e-14 0)
(-3.44247e-14 1.66302e-14 0)
(-3.90916e-14 1.84513e-14 0)
(-4.23741e-14 1.9307e-14 0)
(-4.46891e-14 2.05341e-14 0)
(-4.66679e-14 2.16264e-14 0)
(-4.85e-14 2.25836e-14 0)
(-5.07044e-14 2.46031e-14 0)
(-5.39274e-14 2.67124e-14 0)
(-5.70109e-14 2.92325e-14 0)
(-5.99482e-14 3.12059e-14 0)
(-6.29802e-14 3.21069e-14 0)
(-6.57901e-14 3.28176e-14 0)
(-6.63288e-14 3.30312e-14 0)
(-6.33649e-14 3.28975e-14 0)
(-5.82121e-14 3.25655e-14 0)
(-5.21973e-14 3.12903e-14 0)
(-4.69634e-14 3.01827e-14 0)
(-4.21682e-14 2.81181e-14 0)
(-3.84014e-14 2.69069e-14 0)
(-3.5718e-14 2.59212e-14 0)
(-3.26505e-14 2.60977e-14 0)
(-3.0733e-14 2.64363e-14 0)
(-3.04501e-14 2.69816e-14 0)
(-3.12217e-14 2.63802e-14 0)
(-3.31825e-14 2.57529e-14 0)
(-3.52343e-14 2.51976e-14 0)
(-3.71101e-14 2.44689e-14 0)
(-3.88073e-14 2.39659e-14 0)
(-3.98425e-14 2.39857e-14 0)
(-3.90459e-14 2.42586e-14 0)
(-3.6555e-14 2.47612e-14 0)
(-3.3101e-14 2.57838e-14 0)
(-2.86501e-14 2.76897e-14 0)
(-2.36921e-14 2.79737e-14 0)
(-1.92129e-14 2.70402e-14 0)
(-1.64868e-14 2.53218e-14 0)
(-1.50143e-14 2.42925e-14 0)
(-1.39871e-14 2.39045e-14 0)
(-1.40633e-14 2.42316e-14 0)
(-1.42884e-14 2.37724e-14 0)
(-1.31483e-14 2.28756e-14 0)
(-9.93541e-15 2.19815e-14 0)
(-6.09752e-15 2.16219e-14 0)
(-3.62931e-15 2.20158e-14 0)
(-1.66083e-15 2.20643e-14 0)
(-3.25778e-16 2.17101e-14 0)
(9.18336e-16 2.10169e-14 0)
(3.18749e-15 2.10924e-14 0)
(6.76022e-15 2.1033e-14 0)
(1.14308e-14 2.02676e-14 0)
(1.45438e-14 1.9698e-14 0)
(1.57783e-14 1.88587e-14 0)
(1.68555e-14 1.73719e-14 0)
(1.73926e-14 1.65849e-14 0)
(1.77608e-14 1.62483e-14 0)
(1.84989e-14 1.65013e-14 0)
(1.9447e-14 1.67858e-14 0)
(2.10055e-14 1.62279e-14 0)
(2.36198e-14 1.57661e-14 0)
(2.70721e-14 1.52174e-14 0)
(3.00155e-14 1.5197e-14 0)
(3.1781e-14 1.56594e-14 0)
(3.30615e-14 1.58586e-14 0)
(3.32812e-14 1.55814e-14 0)
(3.14986e-14 1.48738e-14 0)
(2.86039e-14 1.44122e-14 0)
(2.62171e-14 1.33026e-14 0)
(2.4356e-14 1.17992e-14 0)
(2.22428e-14 1.05075e-14 0)
(1.9765e-14 9.70541e-15 0)
(1.71365e-14 9.34998e-15 0)
(1.4501e-14 9.37612e-15 0)
(1.12119e-14 9.18291e-15 0)
(7.90355e-15 7.675e-15 0)
(5.14283e-15 6.87823e-15 0)
(2.4173e-15 6.34423e-15 0)
(-3.53247e-16 5.73783e-15 0)
(-3.03698e-15 5.01072e-15 0)
(-5.17044e-15 3.7187e-15 0)
(-5.87467e-15 3.36542e-15 0)
(-6.09479e-15 2.97091e-15 0)
(-7.65808e-15 2.31569e-15 0)
(-9.29308e-15 1.82888e-15 0)
(-9.26441e-15 7.90882e-16 0)
(-7.75773e-15 2.82427e-16 0)
(-5.92269e-15 -4.77959e-16 0)
(-4.64668e-15 -1.1238e-15 0)
(-4.42523e-15 -9.83393e-16 0)
(-4.6095e-15 -7.00864e-16 0)
(-4.61942e-15 -8.56091e-16 0)
(-4.31865e-15 -1.74696e-15 0)
(-3.86386e-15 -2.24131e-15 0)
(-3.21608e-15 -1.83504e-15 0)
(-1.33547e-15 -5.53835e-16 0)
(-2.57101e-15 2.19265e-15 0)
(-7.63828e-15 5.44226e-15 0)
(-1.28939e-14 8.07492e-15 0)
(-1.79335e-14 1.01562e-14 0)
(-2.37101e-14 1.24734e-14 0)
(-3.05582e-14 1.52823e-14 0)
(-3.67973e-14 1.75135e-14 0)
(-4.20807e-14 2.0298e-14 0)
(-4.59763e-14 2.21974e-14 0)
(-4.87484e-14 2.29953e-14 0)
(-5.11247e-14 2.40122e-14 0)
(-5.26799e-14 2.55831e-14 0)
(-5.46711e-14 2.77735e-14 0)
(-5.79024e-14 2.96712e-14 0)
(-6.11336e-14 3.18748e-14 0)
(-6.46096e-14 3.36267e-14 0)
(-6.80244e-14 3.50081e-14 0)
(-7.10903e-14 3.64673e-14 0)
(-7.17384e-14 3.71892e-14 0)
(-6.8807e-14 3.68282e-14 0)
(-6.38953e-14 3.629e-14 0)
(-5.79412e-14 3.50472e-14 0)
(-5.28318e-14 3.32247e-14 0)
(-4.79426e-14 3.14695e-14 0)
(-4.33858e-14 3.01947e-14 0)
(-3.96431e-14 2.99415e-14 0)
(-3.61097e-14 3.0205e-14 0)
(-3.40174e-14 3.00602e-14 0)
(-3.39952e-14 3.03165e-14 0)
(-3.54191e-14 2.96023e-14 0)
(-3.72412e-14 2.86677e-14 0)
(-3.90451e-14 2.77665e-14 0)
(-4.096e-14 2.70907e-14 0)
(-4.22826e-14 2.67031e-14 0)
(-4.27978e-14 2.66771e-14 0)
(-4.19433e-14 2.74926e-14 0)
(-3.90676e-14 2.82095e-14 0)
(-3.48114e-14 2.93259e-14 0)
(-3.04733e-14 3.04979e-14 0)
(-2.63408e-14 3.07924e-14 0)
(-2.2379e-14 2.98329e-14 0)
(-1.94501e-14 2.79774e-14 0)
(-1.7077e-14 2.70354e-14 0)
(-1.52469e-14 2.69739e-14 0)
(-1.53002e-14 2.68553e-14 0)
(-1.56742e-14 2.59831e-14 0)
(-1.43348e-14 2.54846e-14 0)
(-1.1077e-14 2.51642e-14 0)
(-7.02423e-15 2.42515e-14 0)
(-4.10363e-15 2.36073e-14 0)
(-1.87996e-15 2.35772e-14 0)
(-3.18355e-16 2.33797e-14 0)
(1.46127e-15 2.33203e-14 0)
(4.18746e-15 2.38235e-14 0)
(7.53834e-15 2.37247e-14 0)
(1.17425e-14 2.29509e-14 0)
(1.49347e-14 2.15797e-14 0)
(1.6318e-14 2.0587e-14 0)
(1.76389e-14 1.93711e-14 0)
(1.88965e-14 1.83583e-14 0)
(1.98678e-14 1.82645e-14 0)
(2.07341e-14 1.87215e-14 0)
(2.13861e-14 1.88657e-14 0)
(2.28087e-14 1.82753e-14 0)
(2.55996e-14 1.74381e-14 0)
(2.94456e-14 1.68218e-14 0)
(3.2768e-14 1.69246e-14 0)
(3.46786e-14 1.71249e-14 0)
(3.59806e-14 1.74132e-14 0)
(3.5907e-14 1.76781e-14 0)
(3.38462e-14 1.69016e-14 0)
(3.07096e-14 1.58643e-14 0)
(2.78806e-14 1.47244e-14 0)
(2.56789e-14 1.30003e-14 0)
(2.35778e-14 1.16545e-14 0)
(2.13144e-14 1.06796e-14 0)
(1.87888e-14 1.02549e-14 0)
(1.58505e-14 1.01985e-14 0)
(1.17165e-14 9.63789e-15 0)
(8.14067e-15 8.28999e-15 0)
(5.59557e-15 7.28634e-15 0)
(2.63191e-15 6.84653e-15 0)
(-3.98337e-16 5.98861e-15 0)
(-3.54042e-15 5.28865e-15 0)
(-5.71584e-15 4.09578e-15 0)
(-6.17494e-15 3.52377e-15 0)
(-6.71589e-15 2.61183e-15 0)
(-8.41181e-15 1.55932e-15 0)
(-1.00735e-14 1.36431e-15 0)
(-1.00543e-14 7.13416e-16 0)
(-8.56268e-15 -1.78278e-17 0)
(-6.76255e-15 -8.11587e-16 0)
(-5.0935e-15 -9.85341e-16 0)
(-4.59466e-15 -9.64024e-16 0)
(-4.95311e-15 -1.11344e-15 0)
(-5.39569e-15 -1.48426e-15 0)
(-5.22192e-15 -2.17941e-15 0)
(-4.25548e-15 -2.62464e-15 0)
(-3.01324e-15 -2.01172e-15 0)
(-1.09854e-15 -4.94964e-16 0)
(-2.88014e-15 2.16509e-15 0)
(-8.43614e-15 5.62117e-15 0)
(-1.39993e-14 8.44034e-15 0)
(-1.96033e-14 1.12788e-14 0)
(-2.54278e-14 1.34292e-14 0)
(-3.23067e-14 1.60449e-14 0)
(-3.86751e-14 1.87951e-14 0)
(-4.40742e-14 2.1742e-14 0)
(-4.93028e-14 2.42055e-14 0)
(-5.27414e-14 2.52126e-14 0)
(-5.46021e-14 2.6437e-14 0)
(-5.59784e-14 2.85025e-14 0)
(-5.82853e-14 3.04195e-14 0)
(-6.17586e-14 3.24291e-14 0)
(-6.51126e-14 3.41983e-14 0)
(-6.87137e-14 3.61427e-14 0)
(-7.19132e-14 3.77994e-14 0)
(-7.5054e-14 3.95412e-14 0)
(-7.6674e-14 4.09047e-14 0)
(-7.4285e-14 4.06121e-14 0)
(-6.93514e-14 3.97569e-14 0)
(-6.37997e-14 3.82681e-14 0)
(-5.84409e-14 3.61959e-14 0)
(-5.27536e-14 3.50282e-14 0)
(-4.74337e-14 3.38372e-14 0)
(-4.32308e-14 3.37018e-14 0)
(-3.97648e-14 3.38336e-14 0)
(-3.76021e-14 3.35522e-14 0)
(-3.7547e-14 3.29835e-14 0)
(-3.90525e-14 3.26357e-14 0)
(-4.10508e-14 3.16932e-14 0)
(-4.2847e-14 3.06719e-14 0)
(-4.42998e-14 3.01183e-14 0)
(-4.5466e-14 3.00238e-14 0)
(-4.55185e-14 3.00422e-14 0)
(-4.39973e-14 3.05389e-14 0)
(-4.1004e-14 3.16358e-14 0)
(-3.68299e-14 3.28602e-14 0)
(-3.25149e-14 3.32283e-14 0)
(-2.86112e-14 3.32793e-14 0)
(-2.51975e-14 3.24193e-14 0)
(-2.19747e-14 3.09033e-14 0)
(-1.8748e-14 3.02244e-14 0)
(-1.67297e-14 3.01704e-14 0)
(-1.70531e-14 2.91621e-14 0)
(-1.72254e-14 2.78527e-14 0)
(-1.53426e-14 2.74661e-14 0)
(-1.20746e-14 2.72051e-14 0)
(-8.08459e-15 2.63511e-14 0)
(-4.5488e-15 2.55276e-14 0)
(-1.81447e-15 2.54252e-14 0)
(-5.61203e-17 2.55146e-14 0)
(2.1463e-15 2.5452e-14 0)
(4.82092e-15 2.57094e-14 0)
(7.87459e-15 2.54034e-14 0)
(1.20085e-14 2.48161e-14 0)
(1.53313e-14 2.33656e-14 0)
(1.70165e-14 2.23185e-14 0)
(1.83788e-14 2.14653e-14 0)
(2.00083e-14 2.03635e-14 0)
(2.1702e-14 2.01299e-14 0)
(2.28513e-14 2.01154e-14 0)
(2.32688e-14 2.01889e-14 0)
(2.43534e-14 2.03582e-14 0)
(2.7199e-14 1.97686e-14 0)
(3.15813e-14 1.92776e-14 0)
(3.53342e-14 1.88633e-14 0)
(3.73972e-14 1.90501e-14 0)
(3.88218e-14 1.93381e-14 0)
(3.82784e-14 1.94397e-14 0)
(3.54763e-14 1.8373e-14 0)
(3.21729e-14 1.6966e-14 0)
(2.90655e-14 1.55085e-14 0)
(2.67677e-14 1.35742e-14 0)
(2.48546e-14 1.21803e-14 0)
(2.26443e-14 1.11515e-14 0)
(2.02375e-14 1.08435e-14 0)
(1.70269e-14 1.08372e-14 0)
(1.2317e-14 1.02891e-14 0)
(8.23693e-15 9.54478e-15 0)
(5.73325e-15 8.28105e-15 0)
(2.73878e-15 7.18376e-15 0)
(-5.70529e-16 5.96382e-15 0)
(-3.82295e-15 4.91916e-15 0)
(-6.15676e-15 3.88589e-15 0)
(-6.91274e-15 3.25214e-15 0)
(-7.69979e-15 2.33833e-15 0)
(-8.90009e-15 1.36445e-15 0)
(-1.03543e-14 1.04749e-15 0)
(-1.07885e-14 8.56064e-16 0)
(-9.41736e-15 7.5136e-17 0)
(-7.17756e-15 -5.4777e-16 0)
(-5.29785e-15 -4.03388e-16 0)
(-5.05876e-15 -7.24703e-16 0)
(-5.54661e-15 -1.32685e-15 0)
(-5.99654e-15 -1.86573e-15 0)
(-5.82349e-15 -2.08725e-15 0)
(-4.53373e-15 -2.47785e-15 0)
(-2.66577e-15 -1.70154e-15 0)
(-9.21402e-16 -4.31166e-16 0)
(-3.08506e-15 2.17804e-15 0)
(-9.12671e-15 5.70842e-15 0)
(-1.49187e-14 8.49626e-15 0)
(-2.06902e-14 1.1755e-14 0)
(-2.69633e-14 1.44922e-14 0)
(-3.37515e-14 1.71217e-14 0)
(-4.01497e-14 2.00967e-14 0)
(-4.60525e-14 2.26147e-14 0)
(-5.17795e-14 2.50916e-14 0)
(-5.58552e-14 2.71899e-14 0)
(-5.78214e-14 2.8727e-14 0)
(-5.91957e-14 3.08172e-14 0)
(-6.1501e-14 3.24173e-14 0)
(-6.50443e-14 3.44604e-14 0)
(-6.84459e-14 3.60658e-14 0)
(-7.20393e-14 3.82823e-14 0)
(-7.55476e-14 4.03409e-14 0)
(-7.86842e-14 4.16836e-14 0)
(-8.05976e-14 4.32107e-14 0)
(-7.899e-14 4.38293e-14 0)