/*--------------------------------*- C++ -*----------------------------------*\
| =========                 |                                                 |
| \\      /  F ield         | OpenFOAM: The Open Source CFD Toolbox           |
|  \\    /   O peration     | Version:  v2012                                 |
|   \\  /    A nd           | Website:  www.openfoam.com                      |
|    \\/     M anipulation  |                                                 |
\*---------------------------------------------------------------------------*/
FoamFile
{
    version     2.0;
    format      ascii;
    class       volScalarField;
    location    "1";
    object      p;
}
// * * * * * * * * * * * * * * * * * * * * * * * * * * * * * * * * * * * * * //

dimensions      [0 2 -2 0 0 0 0];


internalField   nonuniform List<scalar> 
65536
(
-1.92359e-09
-2.64025e-06
-7.91245e-06
-1.57971e-05
-2.62927e-05
-3.94014e-05
-5.51217e-05
-7.34508e-05
-9.43852e-05
-0.000117921
-0.000144054
-0.000172779
-0.00020409
-0.000237981
-0.000274444
-0.000313471
-0.000355054
-0.000399184
-0.00044585
-0.000495041
-0.000546747
-0.000600953
-0.000657648
-0.000716816
-0.000778442
-0.00084251
-0.000909003
-0.000977901
-0.00104919
-0.00112284
-0.00119883
-0.00127715
-0.00135776
-0.00144064
-0.00152577
-0.00161311
-0.00170264
-0.00179432
-0.00188813
-0.00198402
-0.00208197
-0.00218192
-0.00228386
-0.00238772
-0.00249348
-0.00260109
-0.0027105
-0.00282166
-0.00293453
-0.00304905
-0.00316518
-0.00328284
-0.003402
-0.00352259
-0.00364456
-0.00376783
-0.00389235
-0.00401804
-0.00414485
-0.00427271
-0.00440153
-0.00453126
-0.00466181
-0.00479312
-0.00492509
-0.00505767
-0.00519075
-0.00532428
-0.00545815
-0.00559228
-0.0057266
-0.005861
-0.00599542
-0.00612975
-0.00626391
-0.0063978
-0.00653134
-0.00666443
-0.00679698
-0.0069289
-0.0070601
-0.00719047
-0.00731994
-0.00744839
-0.00757575
-0.00770191
-0.00782679
-0.00795028
-0.00807231
-0.00819277
-0.00831158
-0.00842864
-0.00854387
-0.00865718
-0.00876849
-0.0088777
-0.00898473
-0.0090895
-0.00919194
-0.00929196
-0.00938948
-0.00948442
-0.00957673
-0.00966632
-0.00975312
-0.00983707
-0.00991811
-0.00999617
-0.0100712
-0.0101431
-0.0102119
-0.0102775
-0.0103398
-0.0103989
-0.0104546
-0.0105069
-0.0105558
-0.0106013
-0.0106433
-0.0106818
-0.0107167
-0.0107481
-0.0107759
-0.0108001
-0.0108208
-0.0108378
-0.0108512
-0.010861
-0.0108672
-0.0108697
-0.0108686
-0.010864
-0.0108557
-0.0108439
-0.0108285
-0.0108096
-0.0107871
-0.0107612
-0.0107318
-0.010699
-0.0106628
-0.0106233
-0.0105805
-0.0105344
-0.010485
-0.0104325
-0.0103769
-0.0103183
-0.0102566
-0.0101919
-0.0101244
-0.010054
-0.00998088
-0.00990505
-0.00982658
-0.00974554
-0.00966202
-0.00957607
-0.00948778
-0.00939722
-0.00930446
-0.00920959
-0.00911268
-0.00901382
-0.00891308
-0.00881055
-0.00870632
-0.00860046
-0.00849306
-0.0083842
-0.00827397
-0.00816246
-0.00804976
-0.00793593
-0.00782109
-0.0077053
-0.00758866
-0.00747125
-0.00735316
-0.00723446
-0.00711526
-0.00699563
-0.00687565
-0.00675541
-0.00663498
-0.00651446
-0.00639392
-0.00627344
-0.0061531
-0.00603298
-0.00591315
-0.00579368
-0.00567466
-0.00555616
-0.00543824
-0.00532098
-0.00520444
-0.0050887
-0.00497382
-0.00485985
-0.00474688
-0.00463495
-0.00452414
-0.00441449
-0.00430606
-0.00419891
-0.00409309
-0.00398866
-0.00388567
-0.00378416
-0.00368419
-0.0035858
-0.00348903
-0.00339393
-0.00330054
-0.0032089
-0.00311905
-0.00303102
-0.00294486
-0.0028606
-0.00277827
-0.0026979
-0.00261952
-0.00254316
-0.00246886
-0.00239663
-0.00232651
-0.00225852
-0.00219267
-0.002129
-0.00206752
-0.00200826
-0.00195123
-0.00189645
-0.00184395
-0.00179372
-0.00174579
-0.00170018
-0.0016569
-0.00161595
-0.00157736
-0.00154112
-0.00150726
-0.00147578
-0.00144669
-0.00142
-0.00139571
-0.00137383
-0.00135437
-0.00133733
-0.00132272
-0.00131054
-0.00130079
-0.00129347
-0.00128859
-0.00128616
-1.20946e-06
-3.84462e-06
-9.10951e-06
-1.69894e-05
-2.7483e-05
-4.05905e-05
-5.63101e-05
-7.46388e-05
-9.5573e-05
-0.000119109
-0.000145242
-0.000173967
-0.000205278
-0.000239169
-0.000275632
-0.00031466
-0.000356243
-0.000400374
-0.000447041
-0.000496233
-0.00054794
-0.000602148
-0.000658844
-0.000718014
-0.000779643
-0.000843713
-0.000910209
-0.00097911
-0.0010504
-0.00112405
-0.00120005
-0.00127837
-0.00135899
-0.00144188
-0.00152701
-0.00161436
-0.0017039
-0.00179559
-0.0018894
-0.0019853
-0.00208326
-0.00218322
-0.00228517
-0.00238905
-0.00249482
-0.00260244
-0.00271186
-0.00282304
-0.00293592
-0.00305046
-0.0031666
-0.00328429
-0.00340347
-0.00352408
-0.00364606
-0.00376935
-0.00389389
-0.00401961
-0.00414645
-0.00427433
-0.00440318
-0.00453293
-0.00466351
-0.00479485
-0.00492685
-0.00505946
-0.00519257
-0.00532612
-0.00546003
-0.0055942
-0.00572854
-0.00586299
-0.00599744
-0.0061318
-0.006266
-0.00639993
-0.0065335
-0.00666663
-0.00679922
-0.00693118
-0.00706241
-0.00719283
-0.00732233
-0.00745083
-0.00757822
-0.00770442
-0.00782934
-0.00795288
-0.00807494
-0.00819544
-0.00831429
-0.00843139
-0.00854666
-0.00866001
-0.00877135
-0.0088806
-0.00898767
-0.00909248
-0.00919495
-0.00929501
-0.00939256
-0.00948754
-0.00957988
-0.0096695
-0.00975634
-0.00984032
-0.00992139
-0.00999948
-0.0100745
-0.0101465
-0.0102153
-0.0102809
-0.0103433
-0.0104023
-0.010458
-0.0105104
-0.0105593
-0.0106048
-0.0106468
-0.0106853
-0.0107203
-0.0107517
-0.0107795
-0.0108038
-0.0108244
-0.0108414
-0.0108548
-0.0108646
-0.0108708
-0.0108733
-0.0108723
-0.0108676
-0.0108593
-0.0108475
-0.0108321
-0.0108131
-0.0107907
-0.0107648
-0.0107354
-0.0107026
-0.0106664
-0.0106268
-0.010584
-0.0105378
-0.0104885
-0.010436
-0.0103803
-0.0103216
-0.0102599
-0.0101952
-0.0101277
-0.0100573
-0.00998412
-0.00990825
-0.00982975
-0.00974869
-0.00966513
-0.00957915
-0.00949082
-0.00940022
-0.00930743
-0.00921253
-0.00911558
-0.00901668
-0.00891591
-0.00881334
-0.00870907
-0.00860317
-0.00849573
-0.00838684
-0.00827657
-0.00816502
-0.00805227
-0.00793841
-0.00782353
-0.0077077
-0.00759102
-0.00747357
-0.00735544
-0.00723671
-0.00711747
-0.0069978
-0.00687778
-0.00675751
-0.00663705
-0.00651649
-0.00639591
-0.0062754
-0.00615503
-0.00603487
-0.005915
-0.00579551
-0.00567646
-0.00555792
-0.00543998
-0.00532268
-0.00520612
-0.00509035
-0.00497544
-0.00486145
-0.00474845
-0.0046365
-0.00452566
-0.00441598
-0.00430753
-0.00420036
-0.00409452
-0.00399008
-0.00388706
-0.00378554
-0.00368555
-0.00358713
-0.00349035
-0.00339523
-0.00330183
-0.00321017
-0.00312031
-0.00303227
-0.0029461
-0.00286182
-0.00277948
-0.00269909
-0.00262071
-0.00254434
-0.00247003
-0.00239779
-0.00232766
-0.00225966
-0.00219381
-0.00213013
-0.00206865
-0.00200938
-0.00195234
-0.00189756
-0.00184505
-0.00179482
-0.00174689
-0.00170127
-0.00165798
-0.00161703
-0.00157843
-0.0015422
-0.00150833
-0.00147685
-0.00144776
-0.00142106
-0.00139677
-0.0013749
-0.00135543
-0.00133839
-0.00132378
-0.0013116
-0.00130185
-0.00129453
-0.00128965
-0.00128721
-3.61646e-06
-6.24449e-06
-1.15008e-05
-1.93753e-05
-2.98662e-05
-4.2972e-05
-5.86903e-05
-7.70182e-05
-9.79521e-05
-0.000121488
-0.000147621
-0.000176346
-0.000207657
-0.000241549
-0.000278013
-0.000317041
-0.000358626
-0.000402758
-0.000449426
-0.000498621
-0.00055033
-0.000604541
-0.000661241
-0.000720415
-0.000782048
-0.000846123
-0.000912624
-0.000981532
-0.00105283
-0.00112649
-0.0012025
-0.00128083
-0.00136146
-0.00144436
-0.0015295
-0.00161687
-0.00170642
-0.00179812
-0.00189195
-0.00198787
-0.00208584
-0.00218583
-0.0022878
-0.0023917
-0.0024975
-0.00260514
-0.00271459
-0.0028258
-0.00293872
-0.00305329
-0.00316946
-0.00328719
-0.0034064
-0.00352705
-0.00364908
-0.00377241
-0.003897
-0.00402276
-0.00414964
-0.00427757
-0.00440648
-0.00453628
-0.00466692
-0.00479831
-0.00493037
-0.00506304
-0.00519622
-0.00532983
-0.0054638
-0.00559803
-0.00573245
-0.00586696
-0.00600148
-0.00613592
-0.00627018
-0.00640418
-0.00653784
-0.00667104
-0.00680371
-0.00693574
-0.00706705
-0.00719755
-0.00732713
-0.0074557
-0.00758318
-0.00770946
-0.00783446
-0.00795807
-0.00808022
-0.0082008
-0.00831972
-0.00843691
-0.00855225
-0.00866568
-0.0087771
-0.00888642
-0.00899357
-0.00909845
-0.009201
-0.00930112
-0.00939874
-0.0094938
-0.0095862
-0.00967589
-0.00976279
-0.00984683
-0.00992796
-0.0100061
-0.0100812
-0.0101532
-0.0102221
-0.0102877
-0.0103501
-0.0104092
-0.010465
-0.0105174
-0.0105664
-0.0106119
-0.0106539
-0.0106924
-0.0107274
-0.0107589
-0.0107867
-0.010811
-0.0108316
-0.0108487
-0.0108621
-0.0108719
-0.010878
-0.0108806
-0.0108795
-0.0108748
-0.0108665
-0.0108547
-0.0108393
-0.0108203
-0.0107979
-0.0107719
-0.0107425
-0.0107096
-0.0106734
-0.0106338
-0.0105909
-0.0105448
-0.0104954
-0.0104428
-0.0103871
-0.0103284
-0.0102666
-0.0102019
-0.0101343
-0.0100638
-0.00999061
-0.00991468
-0.00983612
-0.00975499
-0.00967136
-0.00958531
-0.00949692
-0.00940625
-0.00931339
-0.00921841
-0.00912139
-0.00902242
-0.00892157
-0.00881893
-0.00871458
-0.0086086
-0.00850109
-0.00839211
-0.00828177
-0.00817014
-0.00805732
-0.00794338
-0.00782841
-0.00771251
-0.00759575
-0.00747823
-0.00736002
-0.00724121
-0.0071219
-0.00700215
-0.00688206
-0.00676171
-0.00664118
-0.00652055
-0.00639991
-0.00627932
-0.00615888
-0.00603866
-0.00591873
-0.00579917
-0.00568005
-0.00556146
-0.00544345
-0.0053261
-0.00520948
-0.00509365
-0.00497868
-0.00486464
-0.00475159
-0.00463959
-0.0045287
-0.00441898
-0.00431048
-0.00420327
-0.00409739
-0.0039929
-0.00388985
-0.00378828
-0.00368826
-0.00358981
-0.00349299
-0.00339784
-0.00330441
-0.00321272
-0.00312283
-0.00303477
-0.00294857
-0.00286427
-0.0027819
-0.0027015
-0.00262309
-0.0025467
-0.00247237
-0.00240012
-0.00232997
-0.00226195
-0.00219609
-0.00213239
-0.0020709
-0.00201162
-0.00195457
-0.00189978
-0.00184725
-0.00179702
-0.00174908
-0.00170345
-0.00166016
-0.0016192
-0.0015806
-0.00154435
-0.00151048
-0.001479
-0.0014499
-0.0014232
-0.00139891
-0.00137703
-0.00135756
-0.00134052
-0.0013259
-0.00131372
-0.00130397
-0.00129665
-0.00129177
-0.00128933
-7.20624e-06
-9.82963e-06
-1.50806e-05
-2.29512e-05
-3.34396e-05
-4.65437e-05
-6.22607e-05
-8.05877e-05
-0.000101521
-0.000125057
-0.00015119
-0.000179915
-0.000211227
-0.000245119
-0.000281584
-0.000320613
-0.0003622
-0.000406334
-0.000453005
-0.000502203
-0.000553916
-0.000608131
-0.000664836
-0.000724016
-0.000785655
-0.000849738
-0.000916248
-0.000985165
-0.00105647
-0.00113015
-0.00120617
-0.00128451
-0.00136515
-0.00144807
-0.00153324
-0.00162062
-0.00171019
-0.00180192
-0.00189578
-0.00199172
-0.00208972
-0.00218974
-0.00229174
-0.00239568
-0.00250151
-0.0026092
-0.00271869
-0.00282995
-0.00294291
-0.00305753
-0.00317375
-0.00329153
-0.0034108
-0.00353151
-0.0036536
-0.003777
-0.00390165
-0.00402749
-0.00415444
-0.00428244
-0.00441142
-0.00454131
-0.00467203
-0.0048035
-0.00493566
-0.00506841
-0.00520168
-0.00533539
-0.00546945
-0.00560379
-0.0057383
-0.00587292
-0.00600754
-0.00614209
-0.00627646
-0.00641058
-0.00654434
-0.00667766
-0.00681044
-0.00694259
-0.00707402
-0.00720463
-0.00733433
-0.00746302
-0.00759062
-0.00771702
-0.00784213
-0.00796587
-0.00808813
-0.00820883
-0.00832788
-0.00844518
-0.00856064
-0.00867419
-0.00878572
-0.00889516
-0.00900241
-0.00910741
-0.00921006
-0.00931029
-0.00940802
-0.00950318
-0.00959568
-0.00968546
-0.00977246
-0.0098566
-0.00993781
-0.010016
-0.0100912
-0.0101633
-0.0102323
-0.010298
-0.0103605
-0.0104196
-0.0104755
-0.0105279
-0.0105769
-0.0106225
-0.0106646
-0.0107031
-0.0107382
-0.0107696
-0.0107975
-0.0108218
-0.0108425
-0.0108595
-0.0108729
-0.0108827
-0.0108889
-0.0108915
-0.0108904
-0.0108857
-0.0108774
-0.0108655
-0.0108501
-0.0108311
-0.0108086
-0.0107826
-0.0107532
-0.0107203
-0.010684
-0.0106444
-0.0106014
-0.0105552
-0.0105057
-0.0104531
-0.0103974
-0.0103385
-0.0102767
-0.0102119
-0.0101442
-0.0100737
-0.0100003
-0.00992432
-0.00984566
-0.00976444
-0.00968071
-0.00959457
-0.00950607
-0.0094153
-0.00932233
-0.00922724
-0.00913011
-0.00903103
-0.00893006
-0.00882731
-0.00872284
-0.00861675
-0.00850912
-0.00840003
-0.00828957
-0.00817783
-0.00806488
-0.00795083
-0.00783575
-0.00771973
-0.00760285
-0.00748521
-0.00736689
-0.00724797
-0.00712854
-0.00700868
-0.00688848
-0.00676802
-0.00664738
-0.00652665
-0.00640589
-0.00628521
-0.00616466
-0.00604434
-0.00592431
-0.00580466
-0.00568545
-0.00556676
-0.00544866
-0.00533122
-0.00521451
-0.0050986
-0.00498355
-0.00486943
-0.00475631
-0.00464423
-0.00453327
-0.00442347
-0.00431491
-0.00420763
-0.00410169
-0.00399714
-0.00389403
-0.00379241
-0.00369232
-0.00359383
-0.00349696
-0.00340176
-0.00330828
-0.00321655
-0.00312662
-0.00303851
-0.00295227
-0.00286794
-0.00278553
-0.0027051
-0.00262666
-0.00255025
-0.00247589
-0.00240361
-0.00233343
-0.00226539
-0.0021995
-0.00213579
-0.00207428
-0.00201498
-0.00195791
-0.0019031
-0.00185056
-0.00180031
-0.00175236
-0.00170672
-0.00166342
-0.00162245
-0.00158384
-0.00154759
-0.00151371
-0.00148222
-0.00145311
-0.00142641
-0.00140211
-0.00138022
-0.00136075
-0.00134371
-0.00132909
-0.0013169
-0.00130715
-0.00129983
-0.00129495
-0.00129251
-1.19804e-05
-1.46018e-05
-1.98501e-05
-2.77181e-05
-3.82045e-05
-5.13071e-05
-6.7023e-05
-8.5349e-05
-0.000106282
-0.000129817
-0.00015595
-0.000184676
-0.000215988
-0.000249881
-0.000286347
-0.000325379
-0.000366968
-0.000411105
-0.000457779
-0.000506981
-0.000558699
-0.000612921
-0.000669632
-0.00072882
-0.000790468
-0.000854561
-0.000921082
-0.000990012
-0.00106133
-0.00113502
-0.00121106
-0.00128942
-0.00137009
-0.00145303
-0.00153822
-0.00162563
-0.00171523
-0.00180699
-0.00190088
-0.00199686
-0.0020949
-0.00219496
-0.00229701
-0.00240099
-0.00250687
-0.00261461
-0.00272416
-0.00283547
-0.0029485
-0.00306318
-0.00317948
-0.00329733
-0.00341668
-0.00353746
-0.00365963
-0.00378312
-0.00390786
-0.00403379
-0.00416084
-0.00428894
-0.00441802
-0.00454802
-0.00467885
-0.00481043
-0.0049427
-0.00507558
-0.00520897
-0.00534281
-0.005477
-0.00561147
-0.00574612
-0.00588087
-0.00601563
-0.00615032
-0.00628484
-0.0064191
-0.00655302
-0.00668648
-0.00681942
-0.00695173
-0.00708331
-0.00721408
-0.00734393
-0.00747279
-0.00760054
-0.0077271
-0.00785238
-0.00797627
-0.0080987
-0.00821956
-0.00833876
-0.00845622
-0.00857184
-0.00868554
-0.00879722
-0.00890681
-0.00901422
-0.00911936
-0.00922216
-0.00932253
-0.0094204
-0.0095157
-0.00960833
-0.00969825
-0.00978537
-0.00986963
-0.00995096
-0.0100293
-0.0101046
-0.0101768
-0.0102458
-0.0103117
-0.0103742
-0.0104335
-0.0104894
-0.0105419
-0.010591
-0.0106367
-0.0106788
-0.0107174
-0.0107525
-0.010784
-0.0108119
-0.0108362
-0.0108569
-0.010874
-0.0108875
-0.0108973
-0.0109034
-0.010906
-0.0109049
-0.0109002
-0.0108919
-0.01088
-0.0108645
-0.0108455
-0.010823
-0.0107969
-0.0107674
-0.0107345
-0.0106981
-0.0106584
-0.0106154
-0.0105691
-0.0105196
-0.0104668
-0.010411
-0.0103521
-0.0102901
-0.0102252
-0.0101574
-0.0100868
-0.0100133
-0.00993719
-0.00985841
-0.00977705
-0.0096932
-0.00960691
-0.00951828
-0.00942736
-0.00933425
-0.00923902
-0.00914174
-0.00904251
-0.0089414
-0.00883849
-0.00873387
-0.00862763
-0.00851984
-0.0084106
-0.00829998
-0.00818808
-0.00807498
-0.00796077
-0.00784553
-0.00772936
-0.00761233
-0.00749453
-0.00737605
-0.00725698
-0.0071374
-0.00701739
-0.00689704
-0.00677644
-0.00665565
-0.00653478
-0.00641388
-0.00629306
-0.00617238
-0.00605192
-0.00593176
-0.00581198
-0.00569264
-0.00557383
-0.00545561
-0.00533805
-0.00522123
-0.00510521
-0.00499005
-0.00487582
-0.00476259
-0.00465042
-0.00453936
-0.00442947
-0.00432082
-0.00421345
-0.00410742
-0.00400279
-0.0038996
-0.0037979
-0.00369775
-0.00359918
-0.00350224
-0.00340698
-0.00331344
-0.00322165
-0.00313166
-0.0030435
-0.00295722
-0.00287283
-0.00279038
-0.0027099
-0.00263142
-0.00255497
-0.00248057
-0.00240826
-0.00233805
-0.00226998
-0.00220406
-0.00214032
-0.00207878
-0.00201945
-0.00196237
-0.00190754
-0.00185498
-0.00180471
-0.00175674
-0.00171109
-0.00166777
-0.00162679
-0.00158816
-0.0015519
-0.00151801
-0.00148651
-0.0014574
-0.00143068
-0.00140638
-0.00138449
-0.00136501
-0.00134796
-0.00133334
-0.00132115
-0.00131139
-0.00130407
-0.00129919
-0.00129675
-1.79445e-05
-2.0565e-05
-2.58118e-05
-3.3678e-05
-4.41627e-05
-5.72639e-05
-7.29788e-05
-9.13041e-05
-0.000112236
-0.000135771
-0.000161904
-0.00019063
-0.000221944
-0.000255838
-0.000292306
-0.00033134
-0.000372931
-0.000417072
-0.000463751
-0.000512958
-0.000564682
-0.000618911
-0.000675631
-0.000734828
-0.000796488
-0.000860593
-0.000927128
-0.000996074
-0.00106741
-0.00114112
-0.00121718
-0.00129557
-0.00137626
-0.00145923
-0.00154445
-0.00163189
-0.00172153
-0.00181333
-0.00190726
-0.00200329
-0.00210138
-0.00220149
-0.00230359
-0.00240763
-0.00251358
-0.00262138
-0.002731
-0.00284239
-0.00295549
-0.00307026
-0.00318664
-0.00330458
-0.00342402
-0.00354491
-0.00366718
-0.00379077
-0.00391562
-0.00404167
-0.00416884
-0.00429707
-0.00442628
-0.00455641
-0.00468737
-0.0048191
-0.00495152
-0.00508454
-0.00521809
-0.00535209
-0.00548644
-0.00562107
-0.00575589
-0.00589082
-0.00602576
-0.00616063
-0.00629533
-0.00642977
-0.00656387
-0.00669753
-0.00683066
-0.00696316
-0.00709494
-0.0072259
-0.00735595
-0.00748501
-0.00761296
-0.00773972
-0.0078652
-0.00798929
-0.00811192
-0.00823298
-0.00835238
-0.00847003
-0.00858585
-0.00869974
-0.00881162
-0.0089214
-0.009029
-0.00913433
-0.00923731
-0.00933786
-0.0094359
-0.00953136
-0.00962417
-0.00971425
-0.00980153
-0.00988594
-0.00996743
-0.0100459
-0.0101214
-0.0101937
-0.0102629
-0.0103288
-0.0103915
-0.0104509
-0.0105069
-0.0105595
-0.0106087
-0.0106544
-0.0106966
-0.0107353
-0.0107704
-0.010802
-0.01083
-0.0108543
-0.0108751
-0.0108922
-0.0109056
-0.0109154
-0.0109216
-0.0109242
-0.0109231
-0.0109183
-0.01091
-0.0108981
-0.0108826
-0.0108635
-0.0108409
-0.0108148
-0.0107853
-0.0107522
-0.0107158
-0.010676
-0.0106329
-0.0105865
-0.0105369
-0.010484
-0.0104281
-0.010369
-0.010307
-0.0102419
-0.010174
-0.0101032
-0.0100296
-0.00995329
-0.00987435
-0.00979284
-0.00970881
-0.00962236
-0.00953355
-0.00944246
-0.00934917
-0.00925376
-0.0091563
-0.00905688
-0.00895558
-0.00885249
-0.00874768
-0.00864124
-0.00853326
-0.00842382
-0.008313
-0.00820091
-0.00808761
-0.0079732
-0.00785777
-0.0077414
-0.00762418
-0.00750619
-0.00738752
-0.00726826
-0.00714849
-0.00702829
-0.00690776
-0.00678696
-0.006666
-0.00654494
-0.00642388
-0.00630288
-0.00618203
-0.0060614
-0.00594108
-0.00582113
-0.00570164
-0.00558267
-0.0054643
-0.0053466
-0.00522963
-0.00511347
-0.00499817
-0.00488382
-0.00477046
-0.00465815
-0.00454697
-0.00443697
-0.0043282
-0.00422072
-0.00411459
-0.00400986
-0.00390657
-0.00380478
-0.00370453
-0.00360588
-0.00350886
-0.00341351
-0.00331989
-0.00322803
-0.00313797
-0.00304975
-0.0029634
-0.00287895
-0.00279644
-0.00271591
-0.00263738
-0.00256087
-0.00248643
-0.00241407
-0.00234383
-0.00227571
-0.00220976
-0.00214598
-0.00208441
-0.00202506
-0.00196794
-0.00191308
-0.0018605
-0.00181021
-0.00176222
-0.00171654
-0.0016732
-0.00163221
-0.00159357
-0.00155729
-0.00152339
-0.00149188
-0.00146275
-0.00143603
-0.00141172
-0.00138982
-0.00137034
-0.00135328
-0.00133865
-0.00132646
-0.0013167
-0.00130937
-0.00130449
-0.00130205
-2.51024e-05
-2.77223e-05
-3.29681e-05
-4.08332e-05
-5.13166e-05
-6.44166e-05
-8.01305e-05
-9.84552e-05
-0.000119387
-0.000142922
-0.000169055
-0.000197782
-0.000229096
-0.000262992
-0.000299462
-0.000338498
-0.000380093
-0.000424238
-0.000470923
-0.000520136
-0.000571868
-0.000626105
-0.000682835
-0.000742044
-0.000803717
-0.000867838
-0.000934389
-0.00100335
-0.00107471
-0.00114845
-0.00122453
-0.00130295
-0.00138367
-0.00146667
-0.00155193
-0.00163941
-0.00172909
-0.00182094
-0.00191492
-0.00201101
-0.00210915
-0.00220933
-0.00231149
-0.00241561
-0.00252163
-0.00262951
-0.00273922
-0.00285069
-0.00296389
-0.00307875
-0.00319524
-0.00331329
-0.00343284
-0.00355385
-0.00367624
-0.00379997
-0.00392495
-0.00405114
-0.00417845
-0.00430683
-0.0044362
-0.00456649
-0.00469762
-0.00482952
-0.00496211
-0.00509531
-0.00522905
-0.00536323
-0.00549778
-0.00563261
-0.00576764
-0.00590277
-0.00603792
-0.006173
-0.00630792
-0.00644259
-0.00657691
-0.0067108
-0.00684416
-0.00697689
-0.0071089
-0.0072401
-0.0073704
-0.00749969
-0.00762788
-0.00775488
-0.0078806
-0.00800494
-0.0081278
-0.0082491
-0.00836874
-0.00848663
-0.00860269
-0.00871681
-0.00882892
-0.00893893
-0.00904675
-0.0091523
-0.0092555
-0.00935627
-0.00945453
-0.00955019
-0.0096432
-0.00973348
-0.00982095
-0.00990555
-0.00998721
-0.0100659
-0.0101415
-0.010214
-0.0102833
-0.0103494
-0.0104122
-0.0104717
-0.0105278
-0.0105806
-0.0106299
-0.0106757
-0.010718
-0.0107568
-0.010792
-0.0108236
-0.0108516
-0.0108761
-0.0108968
-0.010914
-0.0109275
-0.0109373
-0.0109435
-0.010946
-0.0109449
-0.0109402
-0.0109318
-0.0109198
-0.0109043
-0.0108852
-0.0108625
-0.0108363
-0.0108067
-0.0107736
-0.0107371
-0.0106972
-0.0106539
-0.0106074
-0.0105577
-0.0105047
-0.0104486
-0.0103894
-0.0103272
-0.010262
-0.0101938
-0.0101229
-0.0100491
-0.00997264
-0.00989351
-0.0098118
-0.00972758
-0.00964093
-0.00955191
-0.00946061
-0.0093671
-0.00927147
-0.00917379
-0.00907415
-0.00897262
-0.0088693
-0.00876426
-0.00865759
-0.00854937
-0.0084397
-0.00832865
-0.00821632
-0.00810279
-0.00798814
-0.00787247
-0.00775587
-0.00763841
-0.00752019
-0.00740129
-0.0072818
-0.0071618
-0.00704138
-0.00692062
-0.00679961
-0.00667843
-0.00655716
-0.00643588
-0.00631467
-0.00619361
-0.00607279
-0.00595226
-0.00583213
-0.00571244
-0.00559329
-0.00547474
-0.00535686
-0.00523972
-0.00512339
-0.00500793
-0.00489341
-0.0047799
-0.00466745
-0.00455612
-0.00444597
-0.00433707
-0.00422946
-0.0041232
-0.00401834
-0.00391494
-0.00381303
-0.00371267
-0.00361391
-0.00351679
-0.00342136
-0.00332764
-0.00323569
-0.00314555
-0.00305724
-0.00297082
-0.0028863
-0.00280372
-0.00272312
-0.00264453
-0.00256796
-0.00249346
-0.00242105
-0.00235076
-0.0022826
-0.0022166
-0.00215278
-0.00209117
-0.00203178
-0.00197463
-0.00191974
-0.00186713
-0.00181681
-0.00176879
-0.0017231
-0.00167973
-0.00163872
-0.00160006
-0.00156377
-0.00152985
-0.00149832
-0.00146918
-0.00144245
-0.00141813
-0.00139622
-0.00137673
-0.00135966
-0.00134503
-0.00133283
-0.00132307
-0.00131574
-0.00131086
-0.00130842
-3.34579e-05
-3.60774e-05
-4.13223e-05
-4.91866e-05
-5.96691e-05
-7.27682e-05
-8.84813e-05
-0.000106805
-0.000127737
-0.000151271
-0.000177405
-0.000206132
-0.000237448
-0.000271345
-0.000307818
-0.000346858
-0.000388457
-0.000432607
-0.000479297
-0.000528518
-0.000580259
-0.000634506
-0.000691248
-0.000750471
-0.000812159
-0.000876297
-0.000942869
-0.00101186
-0.00108324
-0.001157
-0.00123312
-0.00131156
-0.00139232
-0.00147536
-0.00156067
-0.0016482
-0.00173793
-0.00182983
-0.00192387
-0.00202002
-0.00211823
-0.00221848
-0.00232072
-0.00242492
-0.00253103
-0.00263901
-0.00274881
-0.00286039
-0.00297369
-0.00308867
-0.00320528
-0.00332345
-0.00344314
-0.00356429
-0.00368683
-0.0038107
-0.00393584
-0.00406219
-0.00418968
-0.00431823
-0.00444778
-0.00457826
-0.00470958
-0.00484168
-0.00497448
-0.00510789
-0.00524185
-0.00537625
-0.00551103
-0.00564609
-0.00578136
-0.00591673
-0.00605213
-0.00618746
-0.00632264
-0.00645757
-0.00659215
-0.00672631
-0.00685993
-0.00699294
-0.00712522
-0.0072567
-0.00738727
-0.00751684
-0.00764532
-0.0077726
-0.0078986
-0.00802322
-0.00814636
-0.00826794
-0.00838786
-0.00850603
-0.00862236
-0.00873676
-0.00884914
-0.00895942
-0.00906751
-0.00917332
-0.00927677
-0.00937779
-0.00947629
-0.0095722
-0.00966545
-0.00975595
-0.00984364
-0.00992846
-0.0100103
-0.0100892
-0.010165
-0.0102377
-0.0103072
-0.0103734
-0.0104364
-0.0104961
-0.0105524
-0.0106052
-0.0106547
-0.0107006
-0.010743
-0.0107819
-0.0108172
-0.0108489
-0.010877
-0.0109015
-0.0109223
-0.0109395
-0.010953
-0.0109628
-0.010969
-0.0109715
-0.0109704
-0.0109657
-0.0109573
-0.0109453
-0.0109297
-0.0109105
-0.0108877
-0.0108615
-0.0108317
-0.0107985
-0.0107619
-0.0107219
-0.0106785
-0.0106319
-0.0105819
-0.0105288
-0.0104726
-0.0104132
-0.0103508
-0.0102854
-0.0102171
-0.0101459
-0.0100719
-0.00999525
-0.0099159
-0.00983397
-0.00974951
-0.00966262
-0.00957336
-0.00948181
-0.00938806
-0.00929217
-0.00919423
-0.00909432
-0.00899253
-0.00888894
-0.00878363
-0.00867669
-0.0085682
-0.00845825
-0.00834693
-0.00823432
-0.00812051
-0.00800559
-0.00788965
-0.00777277
-0.00765504
-0.00753654
-0.00741737
-0.00729761
-0.00717735
-0.00705667
-0.00693565
-0.00681438
-0.00669294
-0.00657142
-0.00644989
-0.00632844
-0.00620714
-0.00608608
-0.00596533
-0.00584496
-0.00572506
-0.00560569
-0.00548692
-0.00536884
-0.00525149
-0.00513497
-0.00501932
-0.00490461
-0.00479092
-0.00467829
-0.00456679
-0.00445648
-0.00434742
-0.00423966
-0.00413325
-0.00402825
-0.0039247
-0.00382266
-0.00372218
-0.0036233
-0.00352606
-0.00343051
-0.00333669
-0.00324464
-0.00315439
-0.00306599
-0.00297948
-0.00289487
-0.00281222
-0.00273154
-0.00265287
-0.00257624
-0.00250168
-0.0024292
-0.00235885
-0.00229063
-0.00222458
-0.00216072
-0.00209906
-0.00203963
-0.00198244
-0.00192751
-0.00187487
-0.00182451
-0.00177647
-0.00173074
-0.00168736
-0.00164632
-0.00160764
-0.00157132
-0.00153739
-0.00150584
-0.00147669
-0.00144995
-0.00142561
-0.00140369
-0.00138419
-0.00136712
-0.00135248
-0.00134027
-0.0013305
-0.00132317
-0.00131829
-0.00131585
-4.30151e-05
-4.56341e-05
-5.08784e-05
-5.8742e-05
-6.92238e-05
-8.23222e-05
-9.80345e-05
-0.000116358
-0.000137289
-0.000160824
-0.000186958
-0.000215686
-0.000247003
-0.000280903
-0.000317378
-0.000356422
-0.000398026
-0.000442181
-0.000488879
-0.000538108
-0.000589859
-0.000644118
-0.000700873
-0.000760111
-0.000821817
-0.000885976
-0.00095257
-0.00102158
-0.00109299
-0.00116679
-0.00124294
-0.00132142
-0.00140222
-0.00148531
-0.00157066
-0.00165825
-0.00174804
-0.00184
-0.00193411
-0.00203033
-0.00212862
-0.00222895
-0.00233128
-0.00243558
-0.00254179
-0.00264987
-0.00275978
-0.00287148
-0.00298491
-0.00310002
-0.00321677
-0.00333509
-0.00345493
-0.00357623
-0.00369894
-0.00382298
-0.00394831
-0.00407484
-0.00420252
-0.00433128
-0.00446104
-0.00459173
-0.00472327
-0.0048556
-0.00498863
-0.00512229
-0.00525649
-0.00539115
-0.00552619
-0.00566152
-0.00579706
-0.00593271
-0.00606839
-0.00620401
-0.00633948
-0.00647471
-0.0066096
-0.00674405
-0.00687799
-0.0070113
-0.00714391
-0.0072757
-0.00740659
-0.00753648
-0.00766528
-0.00779289
-0.00791921
-0.00804415
-0.00816762
-0.00828952
-0.00840976
-0.00852825
-0.00864489
-0.00875961
-0.0088723
-0.00898288
-0.00909127
-0.00919738
-0.00930113
-0.00940244
-0.00950122
-0.00959741
-0.00969092
-0.00978169
-0.00986964
-0.0099547
-0.0100368
-0.0101159
-0.0101919
-0.0102648
-0.0103345
-0.010401
-0.0104642
-0.010524
-0.0105805
-0.0106335
-0.0106831
-0.0107291
-0.0107717
-0.0108106
-0.0108461
-0.0108778
-0.010906
-0.0109306
-0.0109514
-0.0109686
-0.0109822
-0.0109921
-0.0109983
-0.0110008
-0.0109997
-0.0109949
-0.0109864
-0.0109744
-0.0109587
-0.0109395
-0.0109166
-0.0108903
-0.0108604
-0.0108271
-0.0107903
-0.0107502
-0.0107067
-0.0106599
-0.0106098
-0.0105565
-0.0105
-0.0104405
-0.0103778
-0.0103122
-0.0102437
-0.0101723
-0.0100981
-0.0100211
-0.00994154
-0.00985934
-0.00977462
-0.00968746
-0.00959792
-0.00950609
-0.00941204
-0.00931586
-0.00921763
-0.00911742
-0.00901532
-0.00891142
-0.0088058
-0.00869855
-0.00858975
-0.00847949
-0.00836785
-0.00825492
-0.0081408
-0.00802557
-0.00790931
-0.00779211
-0.00767407
-0.00755526
-0.00743578
-0.00731571
-0.00719514
-0.00707416
-0.00695284
-0.00683127
-0.00670954
-0.00658773
-0.00646592
-0.00634419
-0.00622262
-0.00610129
-0.00598027
-0.00585965
-0.00573949
-0.00561987
-0.00550086
-0.00538254
-0.00526496
-0.00514821
-0.00503234
-0.00491743
-0.00480352
-0.00469069
-0.004579
-0.0044685
-0.00435926
-0.00425132
-0.00414474
-0.00403957
-0.00393587
-0.00383368
-0.00373305
-0.00363403
-0.00353666
-0.00344098
-0.00334703
-0.00325486
-0.00316451
-0.003076
-0.00298938
-0.00290468
-0.00282193
-0.00274116
-0.00266241
-0.0025857
-0.00251106
-0.00243852
-0.0023681
-0.00229982
-0.00223372
-0.0021698
-0.00210809
-0.0020486
-0.00199137
-0.0019364
-0.00188371
-0.00183332
-0.00178524
-0.00173949
-0.00169607
-0.00165501
-0.0016163
-0.00157997
-0.00154601
-0.00151445
-0.00148528
-0.00145852
-0.00143417
-0.00141223
-0.00139272
-0.00137564
-0.001361
-0.00134878
-0.00133901
-0.00133168
-0.00132679
-0.00132434
-5.3778e-05
-5.63969e-05
-6.16407e-05
-6.95036e-05
-7.99847e-05
-9.30825e-05
-0.000108794
-0.000127117
-0.000148048
-0.000171583
-0.000197718
-0.000226447
-0.000257766
-0.000291668
-0.000328146
-0.000367194
-0.000408803
-0.000452966
-0.000499671
-0.00054891
-0.000600672
-0.000654944
-0.000711715
-0.00077097
-0.000832696
-0.000896877
-0.000963497
-0.00103254
-0.00110398
-0.00117781
-0.001254
-0.00133253
-0.00141337
-0.00149651
-0.00158192
-0.00166956
-0.00175942
-0.00185146
-0.00194564
-0.00204194
-0.00214032
-0.00224075
-0.00234318
-0.00244758
-0.0025539
-0.0026621
-0.00277214
-0.00288398
-0.00299755
-0.00311281
-0.00322971
-0.00334819
-0.00346821
-0.00358969
-0.00371258
-0.00383682
-0.00396235
-0.00408909
-0.00421699
-0.00434597
-0.00447597
-0.0046069
-0.0047387
-0.00487128
-0.00500458
-0.00513851
-0.00527299
-0.00540794
-0.00554327
-0.0056789
-0.00581475
-0.00595072
-0.00608672
-0.00622266
-0.00635846
-0.00649402
-0.00662925
-0.00676406
-0.00689834
-0.00703201
-0.00716497
-0.00729712
-0.00742837
-0.00755862
-0.00768778
-0.00781575
-0.00794244
-0.00806775
-0.00819158
-0.00831384
-0.00843444
-0.00855329
-0.0086703
-0.00878536
-0.0088984
-0.00900933
-0.00911806
-0.00922451
-0.00932859
-0.00943022
-0.00952933
-0.00962583
-0.00971965
-0.00981071
-0.00989895
-0.0099843
-0.0100667
-0.010146
-0.0102223
-0.0102955
-0.0103654
-0.0104321
-0.0104955
-0.0105555
-0.0106121
-0.0106653
-0.0107151
-0.0107613
-0.010804
-0.0108431
-0.0108786
-0.0109105
-0.0109388
-0.0109634
-0.0109843
-0.0110016
-0.0110152
-0.011025
-0.0110313
-0.0110338
-0.0110326
-0.0110278
-0.0110193
-0.0110072
-0.0109915
-0.0109721
-0.0109492
-0.0109228
-0.0108928
-0.0108593
-0.0108224
-0.0107821
-0.0107384
-0.0106914
-0.0106411
-0.0105876
-0.010531
-0.0104712
-0.0104083
-0.0103425
-0.0102737
-0.010202
-0.0101276
-0.0100503
-0.00997044
-0.00988795
-0.00980293
-0.00971546
-0.0096256
-0.00953345
-0.00943908
-0.00934257
-0.009244
-0.00914345