/*--------------------------------*- C++ -*----------------------------------*\
| =========                 |                                                 |
| \\      /  F ield         | OpenFOAM: The Open Source CFD Toolbox           |
|  \\    /   O peration     | Version:  v2012                                 |
|   \\  /    A nd           | Website:  www.openfoam.com                      |
|    \\/     M anipulation  |                                                 |
\*---------------------------------------------------------------------------*/
FoamFile
{
    version     2.0;
    format      ascii;
    class       surfaceScalarField;
    location    "1";
    object      phi;
}
// * * * * * * * * * * * * * * * * * * * * * * * * * * * * * * * * * * * * * //

dimensions      [0 3 -1 0 0 0 0];
oriented        oriented;


internalField   nonuniform List<scalar> 
130560
(
3.38737e-06
-3.38737e-06
6.77459e-06
-3.38722e-06
1.01614e-05
-3.38682e-06
1.35476e-05
-3.38618e-06
1.69329e-05
-3.38527e-06
2.0317e-05
-3.3841e-06
2.36997e-05
-3.38271e-06
2.70808e-05
-3.38108e-06
3.046e-05
-3.37922e-06
3.38371e-05
-3.37713e-06
3.72119e-05
-3.37479e-06
4.05841e-05
-3.3722e-06
4.39535e-05
-3.36937e-06
4.73197e-05
-3.36627e-06
5.06826e-05
-3.3629e-06
5.40419e-05
-3.35926e-06
5.73972e-05
-3.35534e-06
6.07484e-05
-3.35114e-06
6.4095e-05
-3.34665e-06
6.74369e-05
-3.34186e-06
7.07737e-05
-3.33676e-06
7.4105e-05
-3.33134e-06
7.74306e-05
-3.3256e-06
8.07501e-05
-3.31953e-06
8.40632e-05
-3.31312e-06
8.73696e-05
-3.30636e-06
9.06688e-05
-3.29924e-06
9.39606e-05
-3.29175e-06
9.72445e-05
-3.28389e-06
0.00010052
-3.27563e-06
0.000103787
-3.26697e-06
0.000107045
-3.2579e-06
0.000110293
-3.24842e-06
0.000113532
-3.2385e-06
0.00011676
-3.22815e-06
0.000119977
-3.21734e-06
0.000123183
-3.20606e-06
0.000126378
-3.19431e-06
0.00012956
-3.18208e-06
0.000132729
-3.16935e-06
0.000135885
-3.15612e-06
0.000139028
-3.14238e-06
0.000142156
-3.12812e-06
0.000145269
-3.11333e-06
0.000148367
-3.09797e-06
0.000151449
-3.08206e-06
0.000154515
-3.06558e-06
0.000157563
-3.04852e-06
0.000160594
-3.03088e-06
0.000163607
-3.01264e-06
0.000166601
-2.9938e-06
0.000169575
-2.97435e-06
0.000172529
-2.95429e-06
0.000175463
-2.9336e-06
0.000178375
-2.91228e-06
0.000181265
-2.89031e-06
0.000184133
-2.86769e-06
0.000186978
-2.84441e-06
0.000189798
-2.82048e-06
0.000192594
-2.79589e-06
0.000195365
-2.77065e-06
0.000198109
-2.74473e-06
0.000200827
-2.71815e-06
0.000203518
-2.69089e-06
0.000206181
-2.66295e-06
0.000208816
-2.63433e-06
0.000211421
-2.60503e-06
0.000213996
-2.57505e-06
0.00021654
-2.5444e-06
0.000219053
-2.51307e-06
0.000221534
-2.48107e-06
0.000223983
-2.44842e-06
0.000226398
-2.41509e-06
0.000228779
-2.38111e-06
0.000231125
-2.34647e-06
0.000233436
-2.3112e-06
0.000235712
-2.27528e-06
0.00023795
-2.23873e-06
0.000240152
-2.20154e-06
0.000242316
-2.16374e-06
0.000244441
-2.12532e-06
0.000246527
-2.08631e-06
0.000248574
-2.0467e-06
0.000250581
-2.00652e-06
0.000252546
-1.9658e-06
0.000254471
-1.92454e-06
0.000256354
-1.88274e-06
0.000258194
-1.84041e-06
0.000259992
-1.79755e-06
0.000261746
-1.75419e-06
0.000263456
-1.71036e-06
0.000265122
-1.66606e-06
0.000266744
-1.62133e-06
0.00026832
-1.57616e-06
0.00026985
-1.53056e-06
0.000271335
-1.48455e-06
0.000272773
-1.43815e-06
0.000274164
-1.39139e-06
0.000275509
-1.34428e-06
0.000276806
-1.29686e-06
0.000278055
-1.24912e-06
0.000279256
-1.20109e-06
0.000280409
-1.15278e-06
0.000281513
-1.1042e-06
0.000282568
-1.05538e-06
0.000283574
-1.00633e-06
0.000284532
-9.57058e-07
0.000285439
-9.07596e-07
0.000286297
-8.57967e-07
0.000287105
-8.08189e-07
0.000287864
-7.5827e-07
0.000288572
-7.0822e-07
0.00028923
-6.58054e-07
0.000289838
-6.07795e-07
0.000290395
-5.5747e-07
0.000290902
-5.07092e-07
0.000291359
-4.56661e-07
0.000291765
-4.06185e-07
0.000292121
-3.5569e-07
0.000292426
-3.0521e-07
0.000292681
-2.54768e-07
0.000292885
-2.0438e-07
0.000293039
-1.54053e-07
0.000293143
-1.03789e-07
0.000293197
-5.35833e-08
0.0002932
-3.43649e-09
0.000293153
4.66311e-08
0.000293057
9.65904e-08
0.00029291
1.46417e-07
0.000292714
1.96103e-07
0.000292469
2.45638e-07
0.000292174
2.95009e-07
0.000291829
3.44198e-07
0.000291436
3.93194e-07
0.000290994
4.41993e-07
0.000290504
4.90593e-07
0.000289965
5.38987e-07
0.000289377
5.8716e-07
0.000288742
6.35101e-07
0.00028806
6.82802e-07
0.000287329
7.30254e-07
0.000286552
7.77438e-07
0.000285727
8.24333e-07
0.000284857
8.70925e-07
0.000283939
9.17212e-07
0.000282976
9.63207e-07
0.000281967
1.00892e-06
0.000280913
1.05434e-06
0.000279813
1.09944e-06
0.000278669
1.14419e-06
0.000277481
1.18856e-06
0.000276248
1.23254e-06
0.000274972
1.27615e-06
0.000273653
1.3194e-06
0.00027229
1.36227e-06
0.000270886
1.40477e-06
0.000269439
1.44687e-06
0.00026795
1.48857e-06
0.00026642
1.52983e-06
0.00026485
1.57067e-06
0.000263239
1.61108e-06
0.000261587
1.65106e-06
0.000259897
1.69058e-06
0.000258167
1.72964e-06
0.000256399
1.76823e-06
0.000254593
1.80635e-06
0.000252749
1.844e-06
0.000250868
1.88117e-06
0.00024895
1.91784e-06
0.000246996
1.95403e-06
0.000245006
1.98972e-06
0.000242981
2.0249e-06
0.000240921
2.05956e-06
0.000238828
2.09369e-06
0.0002367
2.1273e-06
0.00023454
2.16039e-06
0.000232347
2.19294e-06
0.000230122
2.22494e-06
0.000227866
2.25639e-06
0.000225579
2.28731e-06
0.000223261
2.31767e-06
0.000220913
2.34748e-06
0.000218537
2.37673e-06
0.000216131
2.40542e-06
0.000213698
2.43357e-06
0.000211236
2.46116e-06
0.000208748
2.48819e-06
0.000206234
2.51466e-06
0.000203693
2.54056e-06
0.000201127
2.5659e-06
0.000198536
2.59068e-06
0.000195922
2.61489e-06
0.000193283
2.63855e-06
0.000190621
2.66166e-06
0.000187937
2.68421e-06
0.000185231
2.70621e-06
0.000182503
2.72767e-06
0.000179755
2.74859e-06
0.000176986
2.76896e-06
0.000174197
2.78879e-06
0.000171389
2.80809e-06
0.000168562
2.82686e-06
0.000165717
2.84511e-06
0.000162854
2.86284e-06
0.000159974
2.88005e-06
0.000157077
2.89676e-06
0.000154164
2.91298e-06
0.000151236
2.92871e-06
0.000148292
2.94395e-06
0.000145333
2.9587e-06
0.00014236
2.97299e-06
0.000139373
2.9868e-06
0.000136373
3.00015e-06
0.00013336
3.01305e-06
0.000130334
3.02552e-06
0.000127297
3.03755e-06
0.000124248
3.04915e-06
0.000121187
3.06032e-06
0.000118116
3.07109e-06
0.000115035
3.08145e-06
0.000111943
3.09142e-06
0.000108842
3.101e-06
0.000105732
3.11021e-06
0.000102613
3.11904e-06
9.94857e-05
3.12749e-06
9.63501e-05
3.13559e-06
9.32067e-05
3.14335e-06
9.0056e-05
3.15076e-06
8.68981e-05
3.15784e-06
8.37335e-05
3.1646e-06
8.05625e-05
3.17104e-06
7.73853e-05
3.17717e-06
7.42023e-05
3.18299e-06
7.10138e-05
3.18851e-06
6.78201e-05
3.19374e-06
6.46214e-05
3.19868e-06
6.14181e-05
3.20335e-06
5.82103e-05
3.20775e-06
5.49984e-05
3.21188e-06
5.17827e-05
3.21576e-06
4.85633e-05
3.21937e-06
4.53406e-05
3.22273e-06
4.21147e-05
3.22584e-06
3.8886e-05
3.22872e-06
3.56547e-05
3.23136e-06
3.24209e-05
3.23377e-06
2.91849e-05
3.23594e-06
2.5947e-05
3.23789e-06
2.27074e-05
3.23962e-06
1.94663e-05
3.24112e-06
1.62239e-05
3.24241e-06
1.29804e-05
3.24348e-06
9.73607e-06
3.24434e-06
6.49108e-06
3.24499e-06
3.24565e-06
3.24543e-06
3.24565e-06
3.38757e-06
-6.77494e-06
6.77498e-06
-6.77463e-06
1.0162e-05
-6.77385e-06
1.35484e-05
-6.77256e-06
1.69339e-05
-6.77075e-06
2.03182e-05
-6.76844e-06
2.37012e-05
-6.76566e-06
2.70825e-05
-6.76242e-06
3.0462e-05
-6.7587e-06
3.38394e-05
-6.75451e-06
3.72144e-05
-6.74984e-06
4.05869e-05
-6.74468e-06
4.39565e-05
-6.73901e-06
4.73231e-05
-6.73282e-06
5.06863e-05
-6.72609e-06
5.40458e-05
-6.71882e-06
5.74015e-05
-6.71098e-06
6.07529e-05
-6.70259e-06
6.40999e-05
-6.69361e-06
6.7442e-05
-6.68404e-06
7.07791e-05
-6.67384e-06
7.41108e-05
-6.66301e-06
7.74367e-05
-6.65153e-06
8.07566e-05
-6.6394e-06
8.40701e-05
-6.62659e-06
8.73768e-05
-6.61308e-06
9.06764e-05
-6.59885e-06
9.39686e-05
-6.58389e-06
9.72528e-05
-6.56817e-06
0.000100529
-6.55167e-06
0.000103796
-6.53436e-06
0.000107055
-6.51623e-06
0.000110303
-6.49727e-06
0.000113542
-6.47745e-06
0.000116771
-6.45675e-06
0.000119989
-6.43514e-06
0.000123195
-6.4126e-06
0.00012639
-6.38911e-06
0.000129573
-6.36465e-06
0.000132743
-6.33921e-06
0.000135899
-6.31277e-06
0.000139042
-6.2853e-06
0.000142171
-6.25679e-06
0.000145285
-6.2272e-06
0.000148383
-6.1965e-06
0.000151466
-6.16469e-06
0.000154532
-6.13173e-06
0.000157581
-6.09763e-06
0.000160613
-6.06236e-06
0.000163626
-6.02589e-06
0.00016662
-5.98822e-06
0.000169595
-5.94933e-06
0.00017255
-5.9092e-06
0.000175484
-5.86784e-06
0.000178397
-5.8252e-06
0.000181288
-5.78127e-06
0.000184157
-5.73603e-06
0.000187002
-5.68949e-06
0.000189823
-5.64163e-06
0.000192619
-5.59246e-06
0.000195391
-5.54197e-06
0.000198136
-5.49014e-06
0.000200855
-5.43696e-06
0.000203547
-5.38244e-06
0.00020621
-5.32657e-06
0.000208845
-5.26934e-06
0.000211451
-5.21075e-06
0.000214027
-5.15078e-06
0.000216572
-5.08947e-06
0.000219085
-5.02681e-06
0.000221567
-4.96282e-06
0.000224016
-4.8975e-06
0.000226432
-4.83084e-06
0.000228814
-4.76287e-06
0.000231161
-4.69359e-06
0.000233473
-4.62304e-06
0.000235749
-4.55121e-06
0.000237988
-4.47809e-06
0.00024019
-4.40371e-06
0.000242355
-4.32809e-06
0.00024448
-4.25125e-06
0.000246567
-4.1732e-06
0.000248615
-4.09397e-06
0.000250622
-4.01361e-06
0.000252588
-3.93215e-06
0.000254513
-3.84962e-06
0.000256396
-3.76601e-06
0.000258237
-3.68133e-06
0.000260035
-3.5956e-06
0.00026179
-3.50887e-06
0.000263501
-3.42118e-06
0.000265167
-3.33258e-06
0.000266789
-3.24309e-06
0.000268366
-3.15274e-06
0.000269897
-3.06153e-06
0.000271382
-2.96949e-06
0.00027282
-2.87668e-06
0.000274212
-2.78313e-06
0.000275557
-2.6889e-06
0.000276854
-2.59402e-06
0.000278103
-2.49854e-06
0.000279304
-2.40246e-06
0.000280458
-2.30582e-06
0.000281562
-2.20866e-06
0.000282618
-2.111e-06
0.000283624
-2.01288e-06
0.000284581
-1.91432e-06
0.000285489
-1.81537e-06
0.000286347
-1.71609e-06
0.000287156
-1.61652e-06
0.000287914
-1.51665e-06
0.000288622
-1.41653e-06
0.00028928
-1.31619e-06
0.000289888
-1.21566e-06
0.000290446
-1.115e-06
0.000290953
-1.01423e-06
0.00029141
-9.13356e-07
0.000291816
-8.12387e-07
0.000292172
-7.11378e-07
0.000292477
-6.10397e-07
0.000292731
-5.09495e-07
0.000292936
-4.08704e-07
0.00029309
-3.0804e-07
0.000293194
-2.07504e-07
0.000293247
-1.0708e-07
0.00029325
-6.77022e-09
0.000293204
9.33784e-08
0.000293107
1.93306e-07
0.00029296
2.9297e-07
0.000292764
3.92351e-07
0.000292518
4.91433e-07
0.000292223
5.90184e-07
0.000291879
6.88575e-07
0.000291485
7.86581e-07
0.000291043
8.8419e-07
0.000290552
9.814e-07
0.000290013
1.0782e-06
0.000289426
1.17456e-06
0.00028879
1.27045e-06
0.000288107
1.36586e-06
0.000287377
1.46077e-06
0.000286599
1.55515e-06
0.000285774
1.64895e-06
0.000284903
1.74215e-06
0.000283986
1.83473e-06
0.000283022
1.92672e-06
0.000282013
2.01815e-06
0.000280958
2.109e-06
0.000279859
2.19922e-06
0.000278714
2.28873e-06
0.000277525
2.37748e-06
0.000276292
2.46546e-06
0.000275016
2.55269e-06
0.000273696
2.63917e-06
0.000272333
2.72492e-06
0.000270928
2.80992e-06
0.000269481
2.89414e-06
0.000267992
2.97754e-06
0.000266462
3.06009e-06
0.00026489
3.14178e-06
0.000263279
3.22261e-06
0.000261627
3.30256e-06
0.000259936
3.38162e-06
0.000258206
3.45975e-06
0.000256438
3.53694e-06
0.000254631
3.6132e-06
0.000252786
3.68851e-06
0.000250905
3.76284e-06
0.000248986
3.83619e-06
0.000247032
3.90856e-06
0.000245041
3.97995e-06
0.000243016
4.05032e-06
0.000240956
4.11964e-06
0.000238862
4.18791e-06
0.000236734
4.25513e-06
0.000234573
4.3213e-06
0.000232379
4.3864e-06
0.000230154
4.45041e-06
0.000227897
4.51333e-06
0.000225609
4.57516e-06
0.000223291
4.6359e-06
0.000220943
4.69552e-06
0.000218566
4.75402e-06
0.00021616
4.81141e-06
0.000213726
4.8677e-06
0.000211264
4.92288e-06
0.000208775
4.97694e-06
0.00020626
5.02988e-06
0.000203719
5.08169e-06
0.000201152
5.13237e-06
0.000198561
5.18192e-06
0.000195946
5.23035e-06
0.000193306
5.27767e-06
0.000190644
5.32387e-06
0.000187959
5.36897e-06
0.000185253
5.41298e-06
0.000182524
5.45589e-06
0.000179775
5.49772e-06
0.000177006
5.53846e-06
0.000174217
5.57812e-06
0.000171408
5.61672e-06
0.000168581
5.65425e-06
0.000165735
5.69074e-06
0.000162872
5.72619e-06
0.000159991
5.76061e-06
0.000157094
5.79403e-06
0.00015418
5.82646e-06
0.000151251
5.85791e-06
0.000148307
5.88838e-06
0.000145347
5.91789e-06
0.000142374
5.94644e-06
0.000139387
5.97406e-06
0.000136386
6.00076e-06
0.000133373
6.02656e-06
0.000130347
6.05148e-06
0.000127309
6.07553e-06
0.000124259
6.09872e-06
0.000121198
6.12106e-06
0.000118127
6.14258e-06
0.000115045
6.1633e-06
0.000111953
6.18323e-06
0.000108852
6.20239e-06
0.000105741
6.22079e-06
0.000102622
6.23844e-06
9.94939e-05
6.25535e-06
9.6358e-05
6.27154e-06
9.32143e-05
6.28704e-06
9.00632e-05
6.30186e-06
8.6905e-05
6.31602e-06
8.37401e-05
6.32952e-06
8.05687e-05
6.34239e-06
7.73913e-05
6.35464e-06
7.4208e-05
6.36628e-06
7.10192e-05
6.37732e-06
6.78251e-05
6.38777e-06
6.46262e-05
6.39765e-06
6.14225e-05
6.40698e-06
5.82145e-05
6.41577e-06
5.50024e-05
6.42403e-06
5.17864e-05
6.43177e-06
4.85667e-05
6.439e-06
4.53437e-05
6.44571e-06
4.21177e-05
6.45193e-06
3.88887e-05
6.45768e-06
3.56571e-05
6.46296e-06
3.24231e-05
6.46777e-06
2.91869e-05
6.47212e-06
2.59488e-05
6.47601e-06
2.2709e-05
6.47946e-06
1.94676e-05
6.48247e-06
1.6225e-05
6.48504e-06
1.29813e-05
6.48719e-06
9.73672e-06
6.4889e-06
6.49151e-06
6.4902e-06
3.24586e-06
6.49107e-06
6.49151e-06
3.38804e-06
-1.0163e-05
6.77588e-06
-1.01625e-05
1.01633e-05
-1.01613e-05
1.35501e-05
-1.01594e-05
1.69361e-05
-1.01567e-05
2.03209e-05
-1.01532e-05
2.37043e-05
-1.01491e-05
2.70861e-05
-1.01442e-05
3.04661e-05
-1.01387e-05
3.3844e-05
-1.01324e-05
3.72196e-05
-1.01254e-05
4.05926e-05
-1.01177e-05
4.39628e-05
-1.01092e-05
4.73299e-05
-1.00999e-05
5.06937e-05
-1.00898e-05
5.40538e-05
-1.00789e-05
5.741e-05
-1.00672e-05
6.07621e-05
-1.00546e-05
6.41096e-05
-1.00412e-05
6.74524e-05
-1.00268e-05
7.07902e-05
-1.00116e-05
7.41225e-05
-9.99533e-06
7.74491e-05
-9.97814e-06
8.07697e-05
-9.95997e-06
8.40839e-05
-9.94078e-06
8.73913e-05
-9.92054e-06
9.06917e-05
-9.89923e-06
9.39846e-05
-9.8768e-06
9.72697e-05
-9.85324e-06
0.000100547
-9.82851e-06
0.000103815
-9.80258e-06
0.000107074
-9.77541e-06
0.000110324
-9.74699e-06
0.000113563
-9.71729e-06
0.000116793
-9.68627e-06
0.000120012
-9.65388e-06
0.000123219
-9.6201e-06
0.000126415
-9.58489e-06
0.000129599
-9.54824e-06
0.00013277
-9.51011e-06
0.000135927
-9.47047e-06
0.000139071
-9.42929e-06
0.000142201
-9.38654e-06
0.000145316
-9.34218e-06
0.000148416
-9.29615e-06
0.000151499
-9.24845e-06
0.000154567
-9.19905e-06
0.000157617
-9.14792e-06
0.00016065
-9.09503e-06
0.000163664
-9.04036e-06
0.00016666
-8.98387e-06
0.000169636
-8.92555e-06
0.000172592
-8.86537e-06
0.000175528
-8.80334e-06
0.000178442
-8.73941e-06
0.000181334
-8.67354e-06
0.000184204
-8.6057e-06
0.00018705
-8.53589e-06
0.000189873
-8.46412e-06
0.000192671
-8.39037e-06
0.000195443
-8.31464e-06
0.00019819
-8.23689e-06
0.00020091
-8.15713e-06
0.000203603
-8.07535e-06
0.000206268
-7.99156e-06
0.000208904
-7.90573e-06
0.000211512
-7.81783e-06
0.000214089
-7.72788e-06
0.000216635
-7.6359e-06
0.00021915
-7.54191e-06
0.000221633
-7.44591e-06
0.000224084
-7.34792e-06
0.000226501
-7.24791e-06
0.000228884
-7.14593e-06
0.000231232
-7.042e-06
0.000233545
-6.93616e-06
0.000235823
-6.82841e-06
0.000238063
-6.71872e-06
0.000240267
-6.60712e-06
0.000242432
-6.49366e-06
0.000244559
-6.37837e-06
0.000246647
-6.26127e-06
0.000248696
-6.14239e-06
0.000250704
-6.02182e-06
0.000252671
-5.8996e-06
0.000254598
-5.77578e-06
0.000256482
-5.65034e-06
0.000258324
-5.52329e-06
0.000260123
-5.39466e-06
0.000261879
-5.26452e-06
0.00026359
-5.13294e-06
0.000265258
-5e-06
0.00026688
-4.86573e-06
0.000268458
-4.73016e-06
0.00026999
-4.59331e-06
0.000271475
-4.45522e-06
0.000272915
-4.31595e-06
0.000274307
-4.17559e-06
0.000275652
-4.03419e-06
0.00027695
-3.89182e-06
0.0002782
-3.74854e-06
0.000279402
-3.60439e-06
0.000280556
-3.4594e-06
0.000281661
-3.31361e-06
0.000282717
-3.16708e-06
0.000283724
-3.01986e-06
0.000284681
-2.87198e-06
0.000285589
-2.72351e-06
0.000286448
-2.57453e-06
0.000287256
-2.42511e-06
0.000288015
-2.27527e-06
0.000288724
-2.12505e-06
0.000289382
-1.97449e-06
0.00028999
-1.82367e-06
0.000290548
-1.67264e-06
0.000291055
-1.52145e-06
0.000291512
-1.37011e-06
0.000291918
-1.21862e-06
0.000292273
-1.06707e-06
0.000292579
-9.15555e-07
0.000292833
-7.64161e-07
0.000293038
-6.12936e-07
0.000293191
-4.61907e-07
0.000293295
-3.11067e-07
0.000293348
-1.6039e-07
0.000293351
-9.88541e-09
0.000293304
1.4037e-07
0.000293207
2.90286e-07
0.000293061
4.39804e-07
0.000292864
5.88897e-07
0.000292618
7.37541e-07
0.000292322
8.85696e-07
0.000291978
1.03331e-06
0.000291584
1.18035e-06
0.000291141
1.32679e-06
0.00029065
1.47263e-06
0.00029011
1.61786e-06
0.000289523
1.76244e-06
0.000288887
1.9063e-06
0.000288203
2.04943e-06
0.000287472
2.19181e-06
0.000286694
2.3334e-06
0.000285869
2.47414e-06
0.000284997
2.61397e-06
0.000284079
2.75286e-06
0.000283115
2.89085e-06
0.000282105
3.028e-06
0.000281049
3.1643e-06
0.000279949
3.29967e-06
0.000278804
3.43397e-06
0.000277614
3.56713e-06
0.00027638
3.69913e-06
0.000275103
3.82998e-06
0.000273783
3.95972e-06
0.000272419
4.08836e-06
0.000271013
4.21588e-06
0.000269565
4.34223e-06
0.000268075
4.46735e-06
0.000266544
4.59119e-06
0.000264972
4.71375e-06
0.00026336
4.83502e-06
0.000261707
4.95497e-06
0.000260015
5.07357e-06
0.000258284
5.19079e-06
0.000256515
5.30662e-06
0.000254707
5.42103e-06
0.000252861
5.534e-06
0.000250979
5.64551e-06
0.000249059
5.75554e-06
0.000247104
5.86411e-06
0.000245113
5.97121e-06
0.000243086
6.07679e-06
0.000241025
6.18079e-06
0.00023893
6.28319e-06
0.000236801
6.38402e-06
0.000234639
6.48328e-06
0.000232444
6.58093e-06
0.000230218
6.67695e-06
0.00022796
6.77135e-06
0.000225671
6.86412e-06
0.000223351
6.95525e-06
0.000221002
7.04469e-06
0.000218624
7.13244e-06
0.000216217
7.21852e-06
0.000213781
7.30294e-06
0.000211319
7.38571e-06
0.000208829
7.46681e-06
0.000206312
7.54623e-06
0.00020377
7.62395e-06
0.000201203
7.69997e-06
0.00019861
7.7743e-06
0.000195994
7.84694e-06
0.000193353
7.9179e-06
0.00019069
7.9872e-06
0.000188004
8.05484e-06
0.000185296
8.12084e-06
0.000182567
8.18521e-06
0.000179817
8.24795e-06
0.000177046
8.30906e-06
0.000174256
8.36853e-06
0.000171446
8.4264e-06
0.000168618
8.48269e-06
0.000165771
8.53741e-06
0.000162907
8.59056e-06
0.000160025
8.64219e-06
0.000157127
8.69231e-06
0.000154212
8.74094e-06
0.000151282
8.7881e-06
0.000148337
8.83379e-06
0.000145376
8.87803e-06
0.000142402
8.92084e-06
0.000139414
8.96226e-06
0.000136412
9.00229e-06
0.000133398
9.04097e-06
0.000130371
9.07832e-06
0.000127332
9.11438e-06
0.000124282
9.14914e-06
0.00012122
9.18264e-06
0.000118148
9.21489e-06
0.000115065
9.24595e-06
0.000111973
9.27583e-06
0.00010887
9.30455e-06
0.000105759
9.33213e-06
0.000102639
9.35858e-06
9.95104e-05
9.38392e-06
9.63738e-05
9.4082e-06
9.32294e-05
9.43144e-06
9.00776e-05
9.45365e-06
8.69188e-05
9.47485e-06
8.37532e-05
9.49509e-06
8.05812e-05
9.51438e-06
7.74031e-05
9.53273e-06
7.42192e-05
9.55017e-06
7.10298e-05
9.56671e-06
6.78352e-05
9.58237e-06
6.46357e-05
9.59718e-06
6.14315e-05
9.61116e-06
5.8223e-05
9.62433e-06
5.50103e-05
9.63672e-06
5.17937e-05
9.64831e-06
4.85736e-05
9.65913e-06
4.53501e-05
9.66919e-06
4.21235e-05
9.67852e-06
3.88941e-05
9.68713e-06
3.5662e-05
9.69503e-06
3.24275e-05
9.70224e-06
2.91909e-05
9.70875e-06
2.59523e-05
9.71459e-06
2.2712e-05
9.71976e-06
1.94702e-05
9.72427e-06
1.62272e-05
9.72812e-06
1.2983e-05
9.73133e-06
9.73801e-06
9.7339e-06
6.49237e-06
9.73584e-06
3.24629e-06
9.73715e-06
9.73781e-06
3.38875e-06
-1.35517e-05
6.7773e-06
-1.3551e-05
1.01654e-05
-1.35494e-05
1.35529e-05
-1.35469e-05
1.69395e-05
-1.35433e-05
2.03251e-05
-1.35388e-05
2.37092e-05
-1.35333e-05
2.70918e-05
-1.35268e-05
3.04725e-05
-1.35194e-05
3.38512e-05
-1.35111e-05
3.72275e-05
-1.35018e-05
4.06013e-05
-1.34915e-05
4.39723e-05
-1.34802e-05
4.73402e-05
-1.34678e-05
5.07048e-05
-1.34544e-05
5.40658e-05
-1.34399e-05
5.74229e-05
-1.34243e-05
6.07759e-05
-1.34076e-05
6.41244e-05
-1.33897e-05
6.74681e-05
-1.33706e-05
7.08068e-05
-1.33502e-05
7.41401e-05
-1.33287e-05
7.74677e-05
-1.33058e-05
8.07893e-05
-1.32816e-05
8.41046e-05
-1.3256e-05
8.74132e-05
-1.32291e-05
9.07147e-05
-1.32007e-05
9.40087e-05
-1.31709e-05
9.7295e-05
-1.31395e-05
0.000100573
-1.31066e-05
0.000103842
-1.3072e-05
0.000107103
-1.30359e-05
0.000110354
-1.2998e-05
0.000113595
-1.29585e-05
0.000116826
-1.29172e-05
0.000120046
-1.2874e-05
0.000123255
-1.2829e-05
0.000126452
-1.27821e-05
0.000129638
-1.27333e-05
0.00013281
-1.26825e-05
0.000135969
-1.26297e-05
0.000139115
-1.25749e-05
0.000142246
-1.25179e-05
0.000145363
-1.24588e-05
0.000148464
-1.23975e-05
0.00015155
-1.23339e-05
0.000154619
-1.22681e-05
0.000157671
-1.22e-05
0.000160705
-1.21295e-05
0.000163722
-1.20567e-05
0.000166719
-1.19814e-05
0.000169697
-1.19036e-05
0.000172655
-1.18234e-05
0.000175593
-1.17408e-05
0.000178509
-1.16556e-05
0.000181403
-1.15678e-05
0.000184275
-1.14773e-05
0.000187123
-1.13843e-05
0.000189948
-1.12886e-05
0.000192747
-1.11903e-05
0.000195522
-1.10893e-05
0.000198271
-1.09857e-05
0.000200993
-1.08793e-05
0.000203688
-1.07703e-05
0.000206355
-1.06586e-05
0.000208994
-1.05442e-05
0.000211603
-1.0427e-05
0.000214182
-1.0307e-05
0.00021673
-1.01844e-05
0.000219247
-1.0059e-05
0.000221732
-9.93102e-06
0.000224185
-9.80034e-06
0.000226604
-9.66697e-06
0.000228989
-9.53095e-06
0.000231339
-9.39235e-06
0.000233654
-9.25122e-06
0.000235933
-9.10753e-06
0.000238176
-8.96125e-06
0.000240381
-8.8124e-06
0.000242549
-8.66107e-06
0.000244678
-8.50729e-06
0.000246767
-8.35111e-06
0.000248818
-8.19256e-06
0.000250828
-8.03174e-06
0.000252797
-7.86873e-06
0.000254724
-7.70357e-06
0.00025661
-7.53625e-06
0.000258454
-7.36678e-06
0.000260254
-7.19521e-06
0.000262012
-7.02162e-06
0.000263725
-6.84611e-06
0.000265394
-6.66878e-06
0.000267017
-6.48968e-06
0.000268596
-6.30884e-06
0.000270129
-6.1263e-06
0.000271616
-5.94211e-06
0.000273056
-5.75636e-06
0.00027445
-5.56912e-06
0.000275796
-5.38049e-06
0.000277095
-5.19058e-06
0.000278346
-4.99945e-06
0.000279549
-4.80716e-06
0.000280703
-4.61376e-06
0.000281809
-4.4193e-06
0.000282866
-4.22385e-06
0.000283873
-4.02747e-06
0.000284831
-3.83022e-06
0.00028574
-3.63217e-06
0.000286599
-3.43344e-06
0.000287408
-3.23412e-06
0.000288167
-3.03424e-06
0.000288876
-2.83386e-06
0.000289534
-2.63305e-06
0.000290143
-2.4319e-06
0.0002907
-2.23046e-06
0.000291208
-2.0288e-06
0.000291665
-1.82694e-06
0.000292071
-1.6249e-06
0.000292426
-1.42278e-06
0.000292732
-1.2207e-06
0.000292986
-1.01877e-06
0.00029319
-8.1706e-07
0.000293344
-6.15605e-07
0.000293447
-4.14399e-07
0.0002935
-2.13412e-07
0.000293503
-1.26653e-08
0.000293456
1.87733e-07
0.000293358
3.87668e-07
0.000293211
5.87065e-07
0.000293014
7.85895e-07
0.000292768
9.84128e-07
0.000292472
1.18172e-06
0.000292126
1.3786e-06
0.000291732
1.57471e-06
0.000291289
1.77001e-06
0.000290797
1.9645e-06
0.000290257
2.15819e-06
0.000289668
2.35102e-06
0.000289031
2.5429e-06
0.000288347
2.73379e-06
0.000287615
2.92366e-06
0.000286836
3.11249e-06
0.00028601
3.30021e-06
0.000285137
3.4867e-06
0.000284218
3.67192e-06
0.000283253
3.85594e-06
0.000282242
4.03882e-06
0.000281186
4.22058e-06
0.000280085
4.40111e-06
0.000278938
4.58024e-06
0.000277748
4.75785e-06
0.000276513
4.9339e-06
0.000275234
5.10841e-06
0.000273913
5.28143e-06
0.000272548
5.45298e-06
0.000271141
5.62305e-06
0.000269692
5.79155e-06
0.000268201
5.9584e-06
0.000266668
6.12357e-06
0.000265095
6.28702e-06
0.000263481
6.44874e-06
0.000261827
6.60872e-06
0.000260134
6.7669e-06
0.000258402
6.92325e-06
0.000256631
7.07772e-06
0.000254821
7.2303e-06
0.000252974
7.38096e-06
0.00025109
7.52967e-06
0.000249169
7.67641e-06
0.000247212
7.8212e-06
0.000245219
7.96404e-06
0.000243191
8.10484e-06
0.000241129
8.24352e-06
0.000239032
8.38006e-06
0.000236901
8.51451e-06
0.000234738
8.64687e-06
0.000232541
8.77709e-06
0.000230313
8.90513e-06
0.000228054
9.03101e-06
0.000225763
9.15474e-06
0.000223442
9.27626e-06
0.000221091
9.39553e-06
0.000218711
9.51254e-06
0.000216302
9.62731e-06
0.000213865
9.73987e-06
0.000211401
9.85022e-06
0.000208909
9.95836e-06
0.000206391
1.00643e-05
0.000203847
1.01679e-05
0.000201278
1.02693e-05
0.000198684
1.03684e-05
0.000196066
1.04652e-05
0.000193424
1.05598e-05
0.000190759
1.06522e-05
0.000188071
1.07424e-05
0.000185362
1.08304e-05
0.000182631
1.09162e-05
0.000179879
1.09998e-05
0.000177107
1.10813e-05
0.000174315
1.11606e-05
0.000171503
1.12377e-05
0.000168673
1.13127e-05
0.000165825
1.13856e-05
0.000162959
1.14565e-05
0.000160076
1.15253e-05
0.000157176
1.15921e-05
0.00015426
1.16569e-05
0.000151329
1.17198e-05
0.000148382
1.17807e-05
0.00014542
1.18396e-05
0.000142444
1.18967e-05
0.000139455
1.19518e-05
0.000136452
1.20052e-05
0.000133436
1.20567e-05
0.000130408
1.21065e-05
0.000127368
1.21545e-05
0.000124316
1.22008e-05
0.000121253
1.22455e-05
0.00011818
1.22884e-05
0.000115096
1.23298e-05
0.000112002
1.23696e-05
0.000108899
1.24079e-05
0.000105786
1.24446e-05
0.000102665
1.24798e-05
9.95352e-05
1.25136e-05
9.63975e-05
1.25459e-05
9.32521e-05
1.25769e-05
9.00993e-05
1.26064e-05
8.69395e-05
1.26347e-05
8.37729e-05
1.26616e-05
8.06e-05
1.26873e-05
7.7421e-05
1.27118e-05
7.42362e-05
1.2735e-05
7.10459e-05
1.2757e-05
6.78504e-05
1.27778e-05
6.465e-05
1.27976e-05
6.1445e-05
1.28162e-05
5.82356e-05
1.28337e-05
5.50221e-05
1.28502e-05
5.18048e-05
1.28656e-05
4.85839e-05
1.288e-05
4.53597e-05
1.28934e-05
4.21323e-05
1.29059e-05
3.89022e-05
1.29173e-05
3.56694e-05
1.29278e-05
3.24342e-05
1.29374e-05
2.91969e-05
1.29461e-05
2.59576e-05
1.29539e-05
2.27166e-05
1.29607e-05
1.94742e-05
1.29667e-05
1.62304e-05
1.29719e-05
1.29856e-05
1.29761e-05
9.73996e-06
1.29796e-05
6.49367e-06
1.29821e-05
3.24694e-06
1.29839e-05
1.29847e-05
3.38972e-06
-1.69414e-05
6.77922e-06
-1.69405e-05
1.01683e-05
-1.69385e-05
1.35567e-05
-1.69353e-05
1.69443e-05
-1.69308e-05
2.03307e-05
-1.69252e-05
2.37158e-05
-1.69184e-05
2.70993e-05
-1.69103e-05
3.04811e-05
-1.69011e-05
3.38607e-05
-1.68907e-05
3.72381e-05
-1.68792e-05
4.06129e-05
-1.68663e-05
4.3985e-05
-1.68522e-05
4.7354e-05
-1.68368e-05
5.07197e-05
-1.68201e-05
5.40818e-05
-1.68021e-05
5.74401e-05
-1.67826e-05
6.07942e-05
-1.67617e-05
6.41439e-05
-1.67394e-05
6.74889e-05
-1.67156e-05
7.08289e-05
-1.66902e-05
7.41635e-05
-1.66633e-05
7.74925e-05
-1.66348e-05
8.08155e-05
-1.66046e-05
8.41322e-05
-1.65727e-05
8.74422e-05
-1.65391e-05
9.07452e-05
-1.65037e-05
9.40408e-05
-1.64665e-05
9.73286e-05
-1.64273e-05
0.000100608
-1.63862e-05
0.000103879
-1.63431e-05
0.000107142
-1.6298e-05
0.000110394
-1.62508e-05
0.000113637
-1.62015e-05
0.00011687
-1.61499e-05
0.000120092
-1.60961e-05
0.000123303
-1.60399e-05
0.000126502
-1.59814e-05
0.000129689
-1.59204e-05
0.000132864
-1.5857e-05
0.000136025
-1.57911e-05
0.000139173
-1.57226e-05
0.000142306
-1.56515e-05
0.000145425
-1.55776e-05
0.000148529
-1.55011e-05
0.000151617
-1.54217e-05
0.000154688
-1.53395e-05
0.000157742
-1.52544e-05
0.000160779
-1.51664e-05
0.000163798
-1.50754e-05
0.000166798
-1.49814e-05
0.000169779
-1.48842e-05
0.000172739
-1.4784e-05
0.000175679
-1.46807e-05
0.000178598
-1.45743e-05
0.000181495
-1.44646e-05
0.000184369
-1.43516e-05
0.00018722
-1.42354e-05
0.000190047
-1.41158e-05
0.00019285
-1.39929e-05
0.000195627
-1.38667e-05
0.000198379
-1.37371e-05
0.000201104
-1.36042e-05
0.000203801
-1.3468e-05
0.000206471
-1.33284e-05
0.000209112
-1.31853e-05
0.000211724
-1.30388e-05
0.000214306
-1.28889e-05
0.000216857
-1.27355e-05
0.000219377
-1.25788e-05
0.000221865
-1.24188e-05
0.00022432
-1.22554e-05
0.000226741
-1.20887e-05
0.000229129
-1.19186e-05
0.000231482
-1.17453e-05
0.0002338
-1.15688e-05
0.000236081
-1.13892e-05
0.000238326
-1.12063e-05
0.000240534
-1.10202e-05
0.000242704
-1.08309e-05
0.000244835
-1.06386e-05
0.000246928
-1.04433e-05
0.00024898
-1.02451e-05
0.000250992
-1.0044e-05
0.000252964
-9.84011e-06
0.000254894
-9.63355e-06
0.000256782
-9.42428e-06
0.000258627
-9.21233e-06
0.00026043
-8.99776e-06
0.000262189
-8.78066e-06
0.000263904
-8.56116e-06
0.000265574
-8.33936e-06
0.0002672
-8.11536e-06
0.00026878
-7.8892e-06
0.000270315
-7.66092e-06
0.000271804
-7.43058e-06
0.000273245
-7.19827e-06
0.00027464
-6.96409e-06
0.000275988
-6.72816e-06
0.000277288
-6.49061e-06
0.00027854
-6.25156e-06
0.000279744
-6.01107e-06
0.0002809
-5.76918e-06
0.000282006
-5.52596e-06
0.000283064
-5.28151e-06
0.000284072
-5.03591e-06
0.000285031
-4.78922e-06
0.000285941
-4.54153e-06
0.0002868
-4.29298e-06
0.00028761
-4.04367e-06
0.000288369
-3.79368e-06
0.000289078
-3.54309e-06
0.000289737
-3.29198e-06
0.000290346
-3.04043e-06
0.000290904
-2.78851e-06
0.000291411
-2.5363e-06
0.000291868
-2.28386e-06
0.000292275
-2.03123e-06
0.00029263
-1.77851e-06
0.000292936
-1.52583e-06
0.00029319
-1.27331e-06
0.000293394
-1.02105e-06
0.000293548
-7.69085e-07
0.000293651
-5.17428e-07
0.000293703
-2.66058e-07
0.000293706
-1.50164e-08
0.000293658
2.35571e-07
0.00029356
4.85571e-07
0.000293412
7.34896e-07
0.000293214
9.83505e-07
0.000292967
1.23137e-06
0.000292671
1.47843e-06
0.000292324
1.72462e-06
0.000291929
1.96985e-06
0.000291485
2.21405e-06
0.000290993
2.45725e-06
0.000290451
2.69944e-06
0.000289862
2.94055e-06
0.000289224
3.18049e-06
0.000288539
3.41917e-06
0.000287806
3.65658e-06
0.000287026
3.8927e-06
0.000286198
4.12743e-06
0.000285325
4.36063e-06
0.000284404
4.59224e-06
0.000283438
4.82231e-06
0.000282426
5.05094e-06
0.000281368
5.27817e-06
0.000280265
5.50388e-06
0.000279118
5.72787e-06
0.000277926
5.94997e-06
0.000276689
6.17013e-06
0.000275409
6.38836e-06
0.000274086
6.60471e-06
0.00027272
6.81922e-06
0.000271311
7.03185e-06
0.00026986
7.24252e-06
0.000268367
7.45113e-06
0.000266833
7.65764e-06
0.000265258
7.86202e-06
0.000263643
8.06423e-06
0.000261987
8.26427e-06
0.000260292
8.46206e-06
0.000258558
8.65756e-06
0.000256785
8.85071e-06
0.000254974
9.04149e-06
0.000253125
9.22986e-06
0.000251239
9.41579e-06
0.000249316
9.59928e-06
0.000247357
9.78033e-06
0.000245362
9.95894e-06
0.000243332
1.0135e-05
0.000241267
1.03084e-05
0.000239168
1.0479e-05
0.000237035
1.06471e-05
0.000234869
1.08126e-05