/*--------------------------------*- C++ -*----------------------------------*\
| =========                 |                                                 |
| \\      /  F ield         | OpenFOAM: The Open Source CFD Toolbox           |
|  \\    /   O peration     | Version:  v2012                                 |
|   \\  /    A nd           | Website:  www.openfoam.com                      |
|    \\/     M anipulation  |                                                 |
\*---------------------------------------------------------------------------*/
FoamFile
{
    version     2.0;
    format      ascii;
    class       volVectorField;
    location    "1";
    object      W;
}
// * * * * * * * * * * * * * * * * * * * * * * * * * * * * * * * * * * * * * //

dimensions      [0 0 -1 0 0 0 0];


internalField   nonuniform List<vector> 
65536
(
(0 -0 -1.89294e-07)
(0 -0 -2.94417e-07)
(0 -0 3.38799e-07)
(0 -0 9.01235e-07)
(0 -0 1.23024e-06)
(0 -0 1.29201e-06)
(0 -0 1.18724e-06)
(0 -0 1.02239e-06)
(0 -0 8.52671e-07)
(0 -0 6.89714e-07)
(0 -0 5.30995e-07)
(0 -0 3.75374e-07)
(0 -0 2.32157e-07)
(0 -0 1.24447e-07)
(0 -0 5.40266e-08)
(0 -0 -2.20256e-08)
(0 -0 -1.37384e-07)
(0 -0 -2.65871e-07)
(0 -0 -3.56906e-07)
(0 -0 -3.95816e-07)
(0 -0 -4.14635e-07)
(0 -0 -4.59663e-07)
(0 -0 -5.37827e-07)
(0 -0 -6.14357e-07)
(0 -0 -6.72202e-07)
(0 -0 -7.39047e-07)
(0 -0 -8.3676e-07)
(0 -0 -9.42925e-07)
(0 -0 -1.01012e-06)
(0 -0 -1.0321e-06)
(0 -0 -1.05077e-06)
(0 -0 -1.09415e-06)
(0 -0 -1.15015e-06)
(0 -0 -1.19896e-06)
(0 -0 -1.23657e-06)
(0 -0 -1.27145e-06)
(0 -0 -1.31006e-06)
(0 -0 -1.35166e-06)
(0 -0 -1.40523e-06)
(0 -0 -1.49013e-06)
(0 -0 -1.61507e-06)
(0 -0 -1.75815e-06)
(0 -0 -1.86213e-06)
(0 -0 -1.8726e-06)
(0 -0 -1.81061e-06)
(0 -0 -1.7679e-06)
(0 -0 -1.79725e-06)
(0 -0 -1.86656e-06)
(0 -0 -1.92775e-06)
(0 -0 -1.96941e-06)
(0 -0 -2.01337e-06)
(0 -0 -2.07131e-06)
(0 -0 -2.1152e-06)
(0 -0 -2.1059e-06)
(0 -0 -2.04793e-06)
(0 -0 -2.00375e-06)
(0 -0 -2.03303e-06)
(0 -0 -2.12593e-06)
(0 -0 -2.24069e-06)
(0 -0 -2.35627e-06)
(0 -0 -2.44939e-06)
(0 -0 -2.4754e-06)
(0 -0 -2.42521e-06)
(0 -0 -2.36272e-06)
(0 -0 -2.34588e-06)
(0 -0 -2.37179e-06)
(0 -0 -2.4148e-06)
(0 -0 -2.46793e-06)
(0 -0 -2.53389e-06)
(0 -0 -2.60866e-06)
(0 -0 -2.67779e-06)
(0 -0 -2.72568e-06)
(0 -0 -2.74242e-06)
(0 -0 -2.73478e-06)
(0 -0 -2.72655e-06)
(0 -0 -2.73887e-06)
(0 -0 -2.77447e-06)
(0 -0 -2.8303e-06)
(0 -0 -2.9027e-06)
(0 -0 -2.96085e-06)
(0 -0 -2.97069e-06)
(0 -0 -2.93642e-06)
(0 -0 -2.90784e-06)
(0 -0 -2.93937e-06)
(0 -0 -3.01395e-06)
(0 -0 -3.05791e-06)
(0 -0 -3.05402e-06)
(0 -0 -3.03072e-06)
(0 -0 -3.00801e-06)
(0 -0 -3.00141e-06)
(0 -0 -3.0267e-06)
(0 -0 -3.0713e-06)
(0 -0 -3.08863e-06)
(0 -0 -3.06203e-06)
(0 -0 -3.03432e-06)
(0 -0 -3.04428e-06)
(0 -0 -3.092e-06)
(0 -0 -3.16519e-06)
(0 -0 -3.24114e-06)
(0 -0 -3.29541e-06)
(0 -0 -3.3022e-06)
(0 -0 -3.28551e-06)
(0 -0 -3.28878e-06)
(0 -0 -3.31415e-06)
(0 -0 -3.35628e-06)
(0 -0 -3.41682e-06)
(0 -0 -3.4953e-06)
(0 -0 -3.60433e-06)
(0 -0 -3.70358e-06)
(0 -0 -3.72051e-06)
(0 -0 -3.6222e-06)
(0 -0 -3.44859e-06)
(0 -0 -3.2914e-06)
(0 -0 -3.23906e-06)
(0 -0 -3.27416e-06)
(0 -0 -3.27468e-06)
(0 -0 -3.20385e-06)
(0 -0 -3.1673e-06)
(0 -0 -3.22549e-06)
(0 -0 -3.32692e-06)
(0 -0 -3.40985e-06)
(0 -0 -3.45115e-06)
(0 -0 -3.451e-06)
(0 -0 -3.37511e-06)
(0 -0 -3.19443e-06)
(0 -0 -2.97501e-06)
(0 -0 -2.83832e-06)
(0 -0 -2.82567e-06)
(0 -0 -2.86637e-06)
(0 -0 -2.89443e-06)
(0 -0 -2.93667e-06)
(0 -0 -3.03903e-06)
(0 -0 -3.16029e-06)
(0 -0 -3.22064e-06)
(0 -0 -3.20635e-06)
(0 -0 -3.15418e-06)
(0 -0 -3.09551e-06)
(0 -0 -3.02562e-06)
(0 -0 -2.92391e-06)
(0 -0 -2.83147e-06)
(0 -0 -2.84292e-06)
(0 -0 -2.97928e-06)
(0 -0 -3.14898e-06)
(0 -0 -3.24544e-06)
(0 -0 -3.21401e-06)
(0 -0 -3.07936e-06)
(0 -0 -2.93788e-06)
(0 -0 -2.88103e-06)
(0 -0 -2.9454e-06)
(0 -0 -3.09972e-06)
(0 -0 -3.2465e-06)
(0 -0 -3.29232e-06)
(0 -0 -3.23268e-06)
(0 -0 -3.11631e-06)
(0 -0 -3.01776e-06)
(0 -0 -3.01132e-06)
(0 -0 -3.11039e-06)
(0 -0 -3.24382e-06)
(0 -0 -3.3249e-06)
(0 -0 -3.32082e-06)
(0 -0 -3.27745e-06)
(0 -0 -3.26676e-06)
(0 -0 -3.29041e-06)
(0 -0 -3.29504e-06)
(0 -0 -3.22884e-06)
(0 -0 -3.0855e-06)
(0 -0 -2.90619e-06)
(0 -0 -2.74799e-06)
(0 -0 -2.6379e-06)
(0 -0 -2.56575e-06)
(0 -0 -2.5127e-06)
(0 -0 -2.47751e-06)
(0 -0 -2.449e-06)
(0 -0 -2.40607e-06)
(0 -0 -2.37142e-06)
(0 -0 -2.40448e-06)
(0 -0 -2.51938e-06)
(0 -0 -2.64723e-06)
(0 -0 -2.71932e-06)
(0 -0 -2.72925e-06)
(0 -0 -2.70553e-06)
(0 -0 -2.66878e-06)
(0 -0 -2.61148e-06)
(0 -0 -2.52694e-06)
(0 -0 -2.45819e-06)
(0 -0 -2.45392e-06)
(0 -0 -2.50501e-06)
(0 -0 -2.54296e-06)
(0 -0 -2.50866e-06)
(0 -0 -2.42558e-06)
(0 -0 -2.35464e-06)
(0 -0 -2.30957e-06)
(0 -0 -2.26866e-06)
(0 -0 -2.23524e-06)
(0 -0 -2.22621e-06)
(0 -0 -2.21644e-06)
(0 -0 -2.18195e-06)
(0 -0 -2.1328e-06)
(0 -0 -2.07167e-06)
(0 -0 -1.99693e-06)
(0 -0 -1.94568e-06)
(0 -0 -1.94976e-06)
(0 -0 -1.97935e-06)
(0 -0 -1.97348e-06)
(0 -0 -1.91323e-06)
(0 -0 -1.83188e-06)
(0 -0 -1.76276e-06)
(0 -0 -1.70636e-06)
(0 -0 -1.65348e-06)
(0 -0 -1.61359e-06)
(0 -0 -1.60247e-06)
(0 -0 -1.60647e-06)
(0 -0 -1.58045e-06)
(0 -0 -1.50099e-06)
(0 -0 -1.39698e-06)
(0 -0 -1.32672e-06)
(0 -0 -1.3208e-06)
(0 -0 -1.33828e-06)
(0 -0 -1.31106e-06)
(0 -0 -1.22394e-06)
(0 -0 -1.11846e-06)
(0 -0 -1.05098e-06)
(0 -0 -1.04804e-06)
(0 -0 -1.0793e-06)
(0 -0 -1.08346e-06)
(0 -0 -1.03628e-06)
(0 -0 -9.66851e-07)
(0 -0 -9.05069e-07)
(0 -0 -8.55326e-07)
(0 -0 -8.15865e-07)
(0 -0 -7.87096e-07)
(0 -0 -7.65065e-07)
(0 -0 -7.47438e-07)
(0 -0 -7.44218e-07)
(0 -0 -7.55441e-07)
(0 -0 -7.48956e-07)
(0 -0 -6.96563e-07)
(0 -0 -6.21288e-07)
(0 -0 -5.69233e-07)
(0 -0 -5.50066e-07)
(0 -0 -5.37962e-07)
(0 -0 -5.05671e-07)
(0 -0 -4.45455e-07)
(0 -0 -3.72436e-07)
(0 -0 -3.10299e-07)
(0 -0 -2.68268e-07)
(0 -0 -2.40153e-07)
(0 -0 -2.15329e-07)
(0 -0 -1.8771e-07)
(0 -0 -1.54474e-07)
(0 -0 -1.11955e-07)
(0 -0 -5.7069e-08)
(0 -0 3.29358e-09)
(0 -0 4.82234e-08)
(0 -0 5.5467e-08)
(0 -0 2.3907e-08)
(0 -0 -7.13381e-07)
(0 -0 -1.35361e-06)
(0 -0 -2.07522e-07)
(0 -0 1.15728e-06)
(0 -0 2.0529e-06)
(0 -0 2.29127e-06)
(0 -0 2.09628e-06)
(0 -0 1.73015e-06)
(0 -0 1.32745e-06)
(0 -0 9.14493e-07)
(0 -0 4.93265e-07)
(0 -0 7.77528e-08)
(0 -0 -2.96944e-07)
(0 -0 -5.7007e-07)
(0 -0 -7.44576e-07)
(0 -0 -9.4284e-07)
(0 -0 -1.25756e-06)
(0 -0 -1.61053e-06)
(0 -0 -1.85865e-06)
(0 -0 -1.97041e-06)
(0 -0 -2.04388e-06)
(0 -0 -2.20179e-06)
(0 -0 -2.44842e-06)
(0 -0 -2.6777e-06)
(0 -0 -2.8395e-06)
(0 -0 -3.00817e-06)
(0 -0 -3.25391e-06)
(0 -0 -3.53519e-06)
(0 -0 -3.72977e-06)
(0 -0 -3.80652e-06)
(0 -0 -3.8725e-06)
(0 -0 -4.01435e-06)
(0 -0 -4.19692e-06)
(0 -0 -4.35069e-06)
(0 -0 -4.46349e-06)
(0 -0 -4.57218e-06)
(0 -0 -4.70578e-06)
(0 -0 -4.86476e-06)
(0 -0 -5.05756e-06)
(0 -0 -5.31182e-06)
(0 -0 -5.64506e-06)
(0 -0 -6.01471e-06)
(0 -0 -6.28929e-06)
(0 -0 -6.33941e-06)
(0 -0 -6.22233e-06)
(0 -0 -6.15936e-06)
(0 -0 -6.2673e-06)
(0 -0 -6.467e-06)
(0 -0 -6.64694e-06)
(0 -0 -6.77827e-06)
(0 -0 -6.9164e-06)
(0 -0 -7.10135e-06)
(0 -0 -7.26447e-06)
(0 -0 -7.287e-06)
(0 -0 -7.16678e-06)
(0 -0 -7.06953e-06)
(0 -0 -7.16322e-06)
(0 -0 -7.42909e-06)
(0 -0 -7.75354e-06)
(0 -0 -8.06953e-06)
(0 -0 -8.31246e-06)
(0 -0 -8.38776e-06)
(0 -0 -8.30014e-06)
(0 -0 -8.20043e-06)
(0 -0 -8.19572e-06)
(0 -0 -8.26863e-06)
(0 -0 -8.37094e-06)
(0 -0 -8.49999e-06)
(0 -0 -8.67278e-06)
(0 -0 -8.88116e-06)
(0 -0 -9.07626e-06)
(0 -0 -9.2024e-06)
(0 -0 -9.24517e-06)
(0 -0 -9.25663e-06)
(0 -0 -9.29185e-06)
(0 -0 -9.345e-06)
(0 -0 -9.39204e-06)
(0 -0 -9.47385e-06)
(0 -0 -9.63431e-06)
(0 -0 -9.78043e-06)
(0 -0 -9.79389e-06)
(0 -0 -9.7107e-06)
(0 -0 -9.71057e-06)
(0 -0 -9.94214e-06)
(0 -0 -1.02963e-05)
(0 -0 -1.04946e-05)
(0 -0 -1.04638e-05)
(0 -0 -1.0332e-05)
(0 -0 -1.02248e-05)
(0 -0 -1.02395e-05)
(0 -0 -1.04229e-05)
(0 -0 -1.06715e-05)
(0 -0 -1.07878e-05)
(0 -0 -1.07083e-05)
(0 -0 -1.058e-05)
(0 -0 -1.05603e-05)
(0 -0 -1.06897e-05)
(0 -0 -1.09435e-05)
(0 -0 -1.12355e-05)
(0 -0 -1.14662e-05)
(0 -0 -1.1542e-05)
(0 -0 -1.15156e-05)
(0 -0 -1.15184e-05)
(0 -0 -1.15634e-05)
(0 -0 -1.16185e-05)
(0 -0 -1.16912e-05)
(0 -0 -1.1826e-05)
(0 -0 -1.20862e-05)
(0 -0 -1.2346e-05)
(0 -0 -1.23787e-05)
(0 -0 -1.21082e-05)
(0 -0 -1.16667e-05)
(0 -0 -1.12974e-05)
(0 -0 -1.12129e-05)
(0 -0 -1.13408e-05)
(0 -0 -1.1307e-05)
(0 -0 -1.09937e-05)
(0 -0 -1.07744e-05)
(0 -0 -1.09366e-05)
(0 -0 -1.1385e-05)
(0 -0 -1.18861e-05)
(0 -0 -1.22692e-05)
(0 -0 -1.24366e-05)
(0 -0 -1.22327e-05)
(0 -0 -1.15995e-05)
(0 -0 -1.0829e-05)
(0 -0 -1.03242e-05)
(0 -0 -1.01914e-05)
(0 -0 -1.02363e-05)
(0 -0 -1.0289e-05)
(0 -0 -1.0419e-05)
(0 -0 -1.07122e-05)
(0 -0 -1.10415e-05)
(0 -0 -1.12192e-05)
(0 -0 -1.12046e-05)
(0 -0 -1.1072e-05)
(0 -0 -1.09296e-05)
(0 -0 -1.07934e-05)
(0 -0 -1.05714e-05)
(0 -0 -1.03155e-05)
(0 -0 -1.02675e-05)
(0 -0 -1.05456e-05)
(0 -0 -1.09684e-05)
(0 -0 -1.12299e-05)
(0 -0 -1.10977e-05)
(0 -0 -1.05864e-05)
(0 -0 -1.00088e-05)
(0 -0 -9.72653e-06)
(0 -0 -9.92084e-06)
(0 -0 -1.04918e-05)
(0 -0 -1.10776e-05)
(0 -0 -1.13414e-05)
(0 -0 -1.12409e-05)
(0 -0 -1.08981e-05)
(0 -0 -1.05103e-05)
(0 -0 -1.03182e-05)
(0 -0 -1.04249e-05)
(0 -0 -1.06936e-05)
(0 -0 -1.09095e-05)
(0 -0 -1.09423e-05)
(0 -0 -1.08592e-05)
(0 -0 -1.08433e-05)
(0 -0 -1.09141e-05)
(0 -0 -1.09257e-05)
(0 -0 -1.07451e-05)
(0 -0 -1.03992e-05)
(0 -0 -1.00149e-05)
(0 -0 -9.67984e-06)
(0 -0 -9.38383e-06)
(0 -0 -9.09027e-06)
(0 -0 -8.82765e-06)
(0 -0 -8.67659e-06)
(0 -0 -8.60543e-06)
(0 -0 -8.48946e-06)
(0 -0 -8.35494e-06)
(0 -0 -8.38673e-06)
(0 -0 -8.64299e-06)
(0 -0 -8.92517e-06)
(0 -0 -9.04954e-06)
(0 -0 -9.03526e-06)
(0 -0 -8.98525e-06)
(0 -0 -8.9315e-06)
(0 -0 -8.80434e-06)
(0 -0 -8.56558e-06)
(0 -0 -8.34757e-06)
(0 -0 -8.30279e-06)
(0 -0 -8.42298e-06)
(0 -0 -8.53455e-06)
(0 -0 -8.46916e-06)
(0 -0 -8.26267e-06)
(0 -0 -8.06116e-06)
(0 -0 -7.90488e-06)
(0 -0 -7.75213e-06)
(0 -0 -7.62095e-06)
(0 -0 -7.55473e-06)
(0 -0 -7.48849e-06)
(0 -0 -7.36676e-06)
(0 -0 -7.22225e-06)
(0 -0 -7.0559e-06)
(0 -0 -6.84832e-06)
(0 -0 -6.69224e-06)
(0 -0 -6.68029e-06)
(0 -0 -6.74325e-06)
(0 -0 -6.71788e-06)
(0 -0 -6.54562e-06)
(0 -0 -6.30796e-06)
(0 -0 -6.09716e-06)
(0 -0 -5.92342e-06)
(0 -0 -5.7646e-06)
(0 -0 -5.63817e-06)
(0 -0 -5.5803e-06)
(0 -0 -5.55644e-06)
(0 -0 -5.44736e-06)
(0 -0 -5.19234e-06)
(0 -0 -4.88011e-06)
(0 -0 -4.67075e-06)
(0 -0 -4.62718e-06)
(0 -0 -4.62663e-06)
(0 -0 -4.50278e-06)
(0 -0 -4.2372e-06)
(0 -0 -3.94212e-06)
(0 -0 -3.7525e-06)
(0 -0 -3.7244e-06)
(0 -0 -3.77293e-06)
(0 -0 -3.74603e-06)
(0 -0 -3.59648e-06)
(0 -0 -3.40559e-06)
(0 -0 -3.23626e-06)
(0 -0 -3.08156e-06)
(0 -0 -2.93772e-06)
(0 -0 -2.8176e-06)
(0 -0 -2.71504e-06)
(0 -0 -2.62661e-06)
(0 -0 -2.58208e-06)
(0 -0 -2.57769e-06)
(0 -0 -2.52445e-06)
(0 -0 -2.34907e-06)
(0 -0 -2.116e-06)
(0 -0 -1.95245e-06)
(0 -0 -1.88592e-06)
(0 -0 -1.84174e-06)
(0 -0 -1.73772e-06)
(0 -0 -1.54798e-06)
(0 -0 -1.31839e-06)
(0 -0 -1.12149e-06)
(0 -0 -9.81702e-07)
(0 -0 -8.75475e-07)
(0 -0 -7.73427e-07)
(0 -0 -6.6592e-07)
(0 -0 -5.49916e-07)
(0 -0 -4.12453e-07)
(0 -0 -2.39659e-07)
(0 -0 -4.85027e-08)
(0 -0 1.00143e-07)
(0 -0 1.3925e-07)
(0 -0 6.25849e-08)
(0 -0 -1.6606e-06)
(0 -0 -3.41804e-06)
(0 -0 -2.52834e-06)
(0 -0 -8.72789e-07)
(0 -0 3.71117e-07)
(0 -0 8.28901e-07)
(0 -0 7.25909e-07)
(0 -0 3.64579e-07)
(0 -0 -1.03476e-07)
(0 -0 -6.46455e-07)
(0 -0 -1.23564e-06)
(0 -0 -1.80955e-06)
(0 -0 -2.30002e-06)
(0 -0 -2.63983e-06)
(0 -0 -2.85685e-06)
(0 -0 -3.12314e-06)
(0 -0 -3.55845e-06)
(0 -0 -4.04496e-06)
(0 -0 -4.38492e-06)
(0 -0 -4.55868e-06)
(0 -0 -4.72293e-06)
(0 -0 -5.03242e-06)
(0 -0 -5.46162e-06)
(0 -0 -5.84805e-06)
(0 -0 -6.1153e-06)
(0 -0 -6.35052e-06)
(0 -0 -6.6567e-06)
(0 -0 -7.01529e-06)
(0 -0 -7.28845e-06)
(0 -0 -7.41801e-06)
(0 -0 -7.54078e-06)
(0 -0 -7.80142e-06)
(0 -0 -8.14856e-06)
(0 -0 -8.44062e-06)
(0 -0 -8.63873e-06)
(0 -0 -8.81658e-06)
(0 -0 -9.0502e-06)
(0 -0 -9.36028e-06)
(0 -0 -9.72723e-06)
(0 -0 -1.01295e-05)
(0 -0 -1.05708e-05)
(0 -0 -1.10236e-05)
(0 -0 -1.13615e-05)
(0 -0 -1.14621e-05)
(0 -0 -1.14175e-05)
(0 -0 -1.14621e-05)
(0 -0 -1.16832e-05)
(0 -0 -1.19912e-05)
(0 -0 -1.22813e-05)
(0 -0 -1.25113e-05)
(0 -0 -1.27453e-05)
(0 -0 -1.3072e-05)
(0 -0 -1.34217e-05)
(0 -0 -1.35883e-05)
(0 -0 -1.35158e-05)
(0 -0 -1.34154e-05)
(0 -0 -1.3548e-05)
(0 -0 -1.39387e-05)
(0 -0 -1.44403e-05)
(0 -0 -1.49118e-05)
(0 -0 -1.5237e-05)
(0 -0 -1.53713e-05)
(0 -0 -1.54231e-05)
(0 -0 -1.55176e-05)
(0 -0 -1.56278e-05)
(0 -0 -1.56929e-05)
(0 -0 -1.5731e-05)
(0 -0 -1.58177e-05)
(0 -0 -1.60248e-05)
(0 -0 -1.63435e-05)
(0 -0 -1.66433e-05)
(0 -0 -1.67797e-05)
(0 -0 -1.67881e-05)
(0 -0 -1.68894e-05)
(0 -0 -1.71503e-05)
(0 -0 -1.73393e-05)
(0 -0 -1.72796e-05)
(0 -0 -1.71635e-05)
(0 -0 -1.72473e-05)
(0 -0 -1.73995e-05)
(0 -0 -1.73623e-05)
(0 -0 -1.72399e-05)
(0 -0 -1.74246e-05)
(0 -0 -1.81412e-05)
(0 -0 -1.90462e-05)
(0 -0 -1.95343e-05)
(0 -0 -1.94475e-05)
(0 -0 -1.90923e-05)
(0 -0 -1.88142e-05)
(0 -0 -1.88824e-05)
(0 -0 -1.93653e-05)
(0 -0 -1.99539e-05)
(0 -0 -2.02178e-05)
(0 -0 -2.00451e-05)
(0 -0 -1.97277e-05)
(0 -0 -1.96117e-05)
(0 -0 -1.98262e-05)
(0 -0 -2.03386e-05)
(0 -0 -2.09744e-05)
(0 -0 -2.15318e-05)
(0 -0 -2.18371e-05)
(0 -0 -2.19123e-05)
(0 -0 -2.19423e-05)
(0 -0 -2.1961e-05)
(0 -0 -2.18798e-05)
(0 -0 -2.17096e-05)
(0 -0 -2.16514e-05)
(0 -0 -2.19079e-05)
(0 -0 -2.22643e-05)
(0 -0 -2.22943e-05)
(0 -0 -2.19062e-05)
(0 -0 -2.13624e-05)
(0 -0 -2.10006e-05)
(0 -0 -2.10252e-05)
(0 -0 -2.12557e-05)
(0 -0 -2.1101e-05)
(0 -0 -2.03796e-05)
(0 -0 -1.97995e-05)
(0 -0 -2.0047e-05)
(0 -0 -2.10979e-05)
(0 -0 -2.24708e-05)
(0 -0 -2.36696e-05)
(0 -0 -2.43044e-05)
(0 -0 -2.39959e-05)
(0 -0 -2.27567e-05)
(0 -0 -2.13184e-05)
(0 -0 -2.04135e-05)
(0 -0 -2.01177e-05)
(0 -0 -2.00858e-05)
(0 -0 -2.00807e-05)
(0 -0 -2.02231e-05)
(0 -0 -2.06022e-05)
(0 -0 -2.1049e-05)
(0 -0 -2.13473e-05)
(0 -0 -2.13642e-05)
(0 -0 -2.112e-05)
(0 -0 -2.08582e-05)
(0 -0 -2.07337e-05)
(0 -0 -2.05652e-05)
(0 -0 -2.0244e-05)
(0 -0 -2.0001e-05)
(0 -0 -2.01458e-05)
(0 -0 -2.06579e-05)
(0 -0 -2.11008e-05)
(0 -0 -2.08836e-05)
(0 -0 -1.98226e-05)
(0 -0 -1.84695e-05)
(0 -0 -1.76664e-05)
(0 -0 -1.79494e-05)
(0 -0 -1.91682e-05)
(0 -0 -2.05255e-05)
(0 -0 -2.12867e-05)
(0 -0 -2.13041e-05)
(0 -0 -2.07243e-05)
(0 -0 -1.98322e-05)
(0 -0 -1.91061e-05)
(0 -0 -1.88741e-05)
(0 -0 -1.90531e-05)
(0 -0 -1.93549e-05)
(0 -0 -1.94849e-05)
(0 -0 -1.94058e-05)
(0 -0 -1.93706e-05)
(0 -0 -1.94694e-05)
(0 -0 -1.94955e-05)
(0 -0 -1.92681e-05)
(0 -0 -1.89241e-05)
(0 -0 -1.86791e-05)
(0 -0 -1.84791e-05)
(0 -0 -1.80844e-05)
(0 -0 -1.74166e-05)
(0 -0 -1.67467e-05)
(0 -0 -1.64357e-05)
(0 -0 -1.64135e-05)
(0 -0 -1.62879e-05)
(0 -0 -1.60089e-05)
(0 -0 -1.59223e-05)
(0 -0 -1.61489e-05)
(0 -0 -1.63512e-05)
(0 -0 -1.62791e-05)
(0 -0 -1.60963e-05)
(0 -0 -1.6049e-05)
(0 -0 -1.61112e-05)
(0 -0 -1.60242e-05)
(0 -0 -1.56663e-05)
(0 -0 -1.52651e-05)
(0 -0 -1.50868e-05)
(0 -0 -1.5175e-05)
(0 -0 -1.53556e-05)
(0 -0 -1.53962e-05)
(0 -0 -1.52472e-05)
(0 -0 -1.50231e-05)
(0 -0 -1.47814e-05)
(0 -0 -1.45091e-05)
(0 -0 -1.42377e-05)
(0 -0 -1.40102e-05)
(0 -0 -1.37659e-05)
(0 -0 -1.34832e-05)
(0 -0 -1.3236e-05)
(0 -0 -1.30041e-05)
(0 -0 -1.27101e-05)
(0 -0 -1.24522e-05)
(0 -0 -1.23729e-05)
(0 -0 -1.2415e-05)
(0 -0 -1.23682e-05)
(0 -0 -1.21321e-05)
(0 -0 -1.17833e-05)
(0 -0 -1.14418e-05)
(0 -0 -1.1149e-05)
(0 -0 -1.09005e-05)
(0 -0 -1.07045e-05)
(0 -0 -1.0575e-05)
(0 -0 -1.04561e-05)
(0 -0 -1.02003e-05)
(0 -0 -9.7473e-06)
(0 -0 -9.24748e-06)
(0 -0 -8.91619e-06)
(0 -0 -8.78522e-06)
(0 -0 -8.6638e-06)
(0 -0 -8.37392e-06)
(0 -0 -7.94015e-06)
(0 -0 -7.50707e-06)
(0 -0 -7.2222e-06)
(0 -0 -7.13861e-06)
(0 -0 -7.13277e-06)
(0 -0 -7.01607e-06)
(0 -0 -6.76364e-06)
(0 -0 -6.49513e-06)
(0 -0 -6.25556e-06)
(0 -0 -5.99299e-06)
(0 -0 -5.7054e-06)
(0 -0 -5.4416e-06)
(0 -0 -5.21018e-06)
(0 -0 -5.01044e-06)
(0 -0 -4.87612e-06)
(0 -0 -4.78442e-06)
(0 -0 -4.61389e-06)
(0 -0 -4.28174e-06)
(0 -0 -3.88708e-06)
(0 -0 -3.6086e-06)
(0 -0 -3.48243e-06)
(0 -0 -3.39164e-06)
(0 -0 -3.20796e-06)
(0 -0 -2.89193e-06)
(0 -0 -2.51796e-06)
(0 -0 -2.19494e-06)
(0 -0 -1.9449e-06)
(0 -0 -1.72061e-06)
(0 -0 -1.49083e-06)
(0 -0 -1.26537e-06)
(0 -0 -1.04854e-06)
(0 -0 -8.09853e-07)
(0 -0 -5.15062e-07)
(0 -0 -1.84723e-07)
(0 -0 8.38483e-08)
(0 -0 1.78956e-07)
(0 -0 8.59467e-08)
(0 -0 -2.22292e-06)
(0 -0 -4.89931e-06)
(0 -0 -4.63389e-06)
(0 -0 -3.18631e-06)
(0 -0 -1.93125e-06)
(0 -0 -1.37309e-06)
(0 -0 -1.35849e-06)
(0 -0 -1.64165e-06)
(0 -0 -2.10828e-06)
(0 -0 -2.72189e-06)
(0 -0 -3.40897e-06)
(0 -0 -4.04679e-06)
(0 -0 -4.54439e-06)
(0 -0 -4.87293e-06)
(0 -0 -5.1004e-06)
(0 -0 -5.39208e-06)
(0 -0 -5.84776e-06)
(0 -0 -6.34825e-06)
(0 -0 -6.706e-06)
(0 -0 -6.92627e-06)
(0 -0 -7.18612e-06)
(0 -0 -7.62793e-06)
(0 -0 -8.20705e-06)
(0 -0 -8.75396e-06)
(0 -0 -9.17191e-06)
(0 -0 -9.49907e-06)
(0 -0 -9.81197e-06)
(0 -0 -1.01309e-05)
(0 -0 -1.03847e-05)
(0 -0 -1.05298e-05)
(0 -0 -1.07023e-05)
(0 -0 -1.10811e-05)
(0 -0 -1.16148e-05)
(0 -0 -1.20866e-05)
(0 -0 -1.2389e-05)
(0 -0 -1.25998e-05)
(0 -0 -1.28553e-05)
(0 -0 -1.3236e-05)
(0 -0 -1.37151e-05)
(0 -0 -1.42077e-05)
(0 -0 -1.46702e-05)
(0 -0 -1.50733e-05)
(0 -0 -1.53427e-05)
(0 -0 -1.54582e-05)
(0 -0 -1.55723e-05)
(0 -0 -1.58296e-05)
(0 -0 -1.61948e-05)
(0 -0 -1.65943e-05)
(0 -0 -1.69782e-05)
(0 -0 -1.72693e-05)
(0 -0 -1.75306e-05)
(0 -0 -1.79707e-05)
(0 -0 -1.85745e-05)
(0 -0 -1.90187e-05)
(0 -0 -1.91052e-05)
(0 -0 -1.90081e-05)
(0 -0 -1.9083e-05)
(0 -0 -1.95036e-05)
(0 -0 -2.01543e-05)
(0 -0 -2.07733e-05)
(0 -0 -2.11526e-05)
(0 -0 -2.14074e-05)
(0 -0 -2.18408e-05)
(0 -0 -2.23834e-05)
(0 -0 -2.26542e-05)
(0 -0 -2.25456e-05)
(0 -0 -2.22964e-05)
(0 -0 -2.21739e-05)
(0 -0 -2.23384e-05)
(0 -0 -2.27549e-05)
(0 -0 -2.31241e-05)
(0 -0 -2.31414e-05)
(0 -0 -2.29841e-05)
(0 -0 -2.32443e-05)
(0 -0 -2.40221e-05)
(0 -0 -2.4612e-05)
(0 -0 -2.4449e-05)
(0 -0 -2.39221e-05)
(0 -0 -2.37201e-05)
(0 -0 -2.37875e-05)
(0 -0 -2.36616e-05)
(0 -0 -2.3469e-05)
(0 -0 -2.38722e-05)
(0 -0 -2.5188e-05)
(0 -0 -2.67392e-05)
(0 -0 -2.7548e-05)
(0 -0 -2.73925e-05)
(0 -0 -2.67633e-05)
(0 -0 -2.62327e-05)
(0 -0 -2.62653e-05)
(0 -0 -2.69466e-05)
(0 -0 -2.77669e-05)
(0 -0 -2.81012e-05)
(0 -0 -2.78075e-05)
(0 -0 -2.73067e-05)
(0 -0 -2.71148e-05)
(0 -0 -2.74101e-05)
(0 -0 -2.81405e-05)
(0 -0 -2.91159e-05)
(0 -0 -3.01025e-05)
(0 -0 -3.08504e-05)
(0 -0 -3.12166e-05)
(0 -0 -3.13181e-05)
(0 -0 -3.12603e-05)
(0 -0 -3.09389e-05)
(0 -0 -3.03353e-05)
(0 -0 -2.98544e-05)
(0 -0 -2.99435e-05)
(0 -0 -3.03491e-05)
(0 -0 -3.04134e-05)
(0 -0 -3.00144e-05)
(0 -0 -2.95602e-05)
(0 -0 -2.94157e-05)
(0 -0 -2.96283e-05)
(0 -0 -2.98927e-05)
(0 -0 -2.95747e-05)
(0 -0 -2.84929e-05)
(0 -0 -2.75684e-05)
(0 -0 -2.78612e-05)
(0 -0 -2.94786e-05)
(0 -0 -3.17316e-05)
(0 -0 -3.38052e-05)
(0 -0 -3.49413e-05)
(0 -0 -3.45085e-05)
(0 -0 -3.27235e-05)
(0 -0 -3.08763e-05)
(0 -0 -2.9948e-05)
(0 -0 -2.98044e-05)
(0 -0 -2.98231e-05)
(0 -0 -2.96918e-05)
(0 -0 -2.9635e-05)
(0 -0 -2.98672e-05)
(0 -0 -3.03426e-05)
(0 -0 -3.08115e-05)
(0 -0 -3.08452e-05)
(0 -0 -3.02956e-05)
(0 -0 -2.96491e-05)
(0 -0 -2.9394e-05)
(0 -0 -2.93702e-05)
(0 -0 -2.91698e-05)
(0 -0 -2.87452e-05)
(0 -0 -2.85935e-05)
(0 -0 -2.91399e-05)
(0 -0 -2.99668e-05)
(0 -0 -2.99509e-05)
(0 -0 -2.84358e-05)
(0 -0 -2.60985e-05)
(0 -0 -2.43973e-05)
(0 -0 -2.44941e-05)
(0 -0 -2.63386e-05)
(0 -0 -2.86273e-05)
(0 -0 -3.00808e-05)
(0 -0 -3.03405e-05)
(0 -0 -2.95129e-05)
(0 -0 -2.79847e-05)
(0 -0 -2.6578e-05)
(0 -0 -2.59246e-05)
(0 -0 -2.59774e-05)
(0 -0 -2.63383e-05)
(0 -0 -2.65424e-05)
(0 -0 -2.64168e-05)
(0 -0 -2.6278e-05)
(0 -0 -2.63633e-05)
(0 -0 -2.64534e-05)
(0 -0 -2.6302e-05)
(0 -0 -2.61241e-05)
(0 -0 -2.62082e-05)
(0 -0 -2.63003e-05)
(0 -0 -2.58504e-05)
(0 -0 -2.47407e-05)
(0 -0 -2.36468e-05)
(0 -0 -2.33488e-05)
(0 -0 -2.36258e-05)
(0 -0 -2.36209e-05)
(0 -0 -2.31942e-05)
(0 -0 -2.2939e-05)
(0 -0 -2.30258e-05)
(0 -0 -2.29318e-05)
(0 -0 -2.23901e-05)
(0 -0 -2.18557e-05)
(0 -0 -2.18065e-05)
(0 -0 -2.20842e-05)
(0 -0 -2.21194e-05)
(0 -0 -2.16683e-05)
(0 -0 -2.10443e-05)
(0 -0 -2.05944e-05)
(0 -0 -2.04576e-05)
(0 -0 -2.06355e-05)
(0 -0 -2.0944e-05)
(0 -0 -2.11312e-05)
(0 -0 -2.11198e-05)
(0 -0 -2.09618e-05)
(0 -0 -2.06904e-05)
(0 -0 -2.02929e-05)
(0 -0 -1.97629e-05)
(0 -0 -1.91404e-05)
(0 -0 -1.85741e-05)
(0 -0 -1.82231e-05)
(0 -0 -1.80071e-05)
(0 -0 -1.77279e-05)
(0 -0 -1.74143e-05)
(0 -0 -1.72288e-05)
(0 -0 -1.71795e-05)
(0 -0 -1.70916e-05)
(0 -0 -1.68378e-05)
(0 -0 -1.64353e-05)
(0 -0 -1.59867e-05)
(0 -0 -1.55942e-05)
(0 -0 -1.53273e-05)
(0 -0 -1.51675e-05)
(0 -0 -1.50233e-05)
(0 -0 -1.47927e-05)
(0 -0 -1.43664e-05)
(0 -0 -1.37441e-05)
(0 -0 -1.31241e-05)
(0 -0 -1.27129e-05)
(0 -0 -1.24733e-05)
(0 -0 -1.21912e-05)
(0 -0 -1.17428e-05)
(0 -0 -1.11954e-05)
(0 -0 -1.06729e-05)
(0 -0 -1.03013e-05)
(0 -0 -1.01416e-05)
(0 -0 -1.00579e-05)
(0 -0 -9.85153e-06)
(0 -0 -9.53431e-06)
(0 -0 -9.23955e-06)
(0 -0 -8.96242e-06)
(0 -0 -8.6028e-06)
(0 -0 -8.17025e-06)
(0 -0 -7.7656e-06)
(0 -0 -7.43205e-06)
(0 -0 -7.16499e-06)
(0 -0 -6.96119e-06)
(0 -0 -6.75311e-06)
(0 -0 -6.4178e-06)
(0 -0 -5.91469e-06)
(0 -0 -5.38708e-06)
(0 -0 -5.03182e-06)
(0 -0 -4.86438e-06)
(0 -0 -4.7223e-06)
(0 -0 -4.45858e-06)
(0 -0 -4.05299e-06)
(0 -0 -3.60656e-06)
(0 -0 -3.22407e-06)
(0 -0 -2.88906e-06)
(0 -0 -2.53358e-06)
(0 -0 -2.159e-06)
(0 -0 -1.81704e-06)
(0 -0 -1.51329e-06)
(0 -0 -1.18647e-06)
(0 -0 -7.79017e-07)
(0 -0 -3.17025e-07)
(0 -0 6.5395e-08)
(0 -0 2.14217e-07)
(0 -0 1.07259e-07)
(0 -0 -2.38147e-06)
(0 -0 -5.44257e-06)
(0 -0 -5.66406e-06)
(0 -0 -4.57359e-06)
(0 -0 -3.49923e-06)
(0 -0 -2.96154e-06)
(0 -0 -2.87801e-06)
(0 -0 -3.10137e-06)
(0 -0 -3.57222e-06)
(0 -0 -4.22855e-06)
(0 -0 -4.94267e-06)
(0 -0 -5.55751e-06)
(0 -0 -5.99397e-06)
(0 -0 -6.28576e-06)
(0 -0 -6.52317e-06)
(0 -0 -6.81037e-06)
(0 -0 -7.20498e-06)
(0 -0 -7.63691e-06)
(0 -0 -7.98051e-06)
(0 -0 -8.24011e-06)
(0 -0 -8.55273e-06)
(0 -0 -9.03606e-06)
(0 -0 -9.68104e-06)
(0 -0 -1.03662e-05)
(0 -0 -1.09666e-05)
(0 -0 -1.14155e-05)
(0 -0 -1.17123e-05)
(0 -0 -1.19193e-05)
(0 -0 -1.20881e-05)
(0 -0 -1.22327e-05)
(0 -0 -1.24602e-05)
(0 -0 -1.29338e-05)
(0 -0 -1.36135e-05)
(0 -0 -1.42456e-05)
(0 -0 -1.46378e-05)
(0 -0 -1.48167e-05)
(0 -0 -1.49535e-05)
(0 -0 -1.52258e-05)
(0 -0 -1.56835e-05)
(0 -0 -1.62209e-05)
(0 -0 -1.66968e-05)
(0 -0 -1.70003e-05)
(0 -0 -1.71136e-05)
(0 -0 -1.72096e-05)
(0 -0 -1.75417e-05)
(0 -0 -1.809e-05)
(0 -0 -1.86269e-05)
(0 -0 -1.91114e-05)
(0 -0 -1.95599e-05)
(0 -0 -1.98049e-05)
(0 -0 -1.9931e-05)
(0 -0 -2.04009e-05)
(0 -0 -2.13138e-05)
(0 -0 -2.21772e-05)
(0 -0 -2.2532e-05)
(0 -0 -2.24294e-05)
(0 -0 -2.23228e-05)
(0 -0 -2.26181e-05)
(0 -0 -2.33034e-05)
(0 -0 -2.40104e-05)
(0 -0 -2.44442e-05)
(0 -0 -2.4933e-05)
(0 -0 -2.59417e-05)
(0 -0 -2.70224e-05)
(0 -0 -2.73457e-05)
(0 -0 -2.68689e-05)
(0 -0 -2.62268e-05)
(0 -0 -2.59141e-05)
(0 -0 -2.60712e-05)
(0 -0 -2.65506e-05)
(0 -0 -2.68975e-05)
(0 -0 -2.66886e-05)
(0 -0 -2.63057e-05)
(0 -0 -2.68047e-05)
(0 -0 -2.83528e-05)
(0 -0 -2.96579e-05)
(0 -0 -2.95667e-05)
(0 -0 -2.85624e-05)
(0 -0 -2.79028e-05)
(0 -0 -2.78524e-05)
(0 -0 -2.77645e-05)
(0 -0 -2.75717e-05)
(0 -0 -2.80655e-05)
(0 -0 -2.96861e-05)
(0 -0 -3.15567e-05)
(0 -0 -3.2508e-05)
(0 -0 -3.23111e-05)
(0 -0 -3.14911e-05)
(0 -0 -3.0689e-05)
(0 -0 -3.04983e-05)
(0 -0 -3.10741e-05)
(0 -0 -3.19074e-05)
(0 -0 -3.23246e-05)
(0 -0 -3.20847e-05)
(0 -0 -3.1561e-05)
(0 -0 -3.1302e-05)
(0 -0 -3.14712e-05)
(0 -0 -3.20587e-05)
(0 -0 -3.30836e-05)
(0 -0 -3.44347e-05)
(0 -0 -3.57337e-05)
(0 -0 -3.64642e-05)
(0 -0 -3.654e-05)
(0 -0 -3.62983e-05)
(0 -0 -3.57776e-05)
(0 -0 -3.48304e-05)
(0 -0 -3.39011e-05)
(0 -0 -3.36993e-05)
(0 -0 -3.41037e-05)
(0 -0 -3.43344e-05)
(0 -0 -3.4187e-05)
(0 -0 -3.408e-05)
(0 -0 -3.42546e-05)
(0 -0 -3.45609e-05)
(0 -0 -3.47395e-05)
(0 -0 -3.43874e-05)
(0 -0 -3.3323e-05)
(0 -0 -3.23241e-05)
(0 -0 -3.25423e-05)
(0 -0 -3.41923e-05)
(0 -0 -3.65976e-05)
(0 -0 -3.89034e-05)
(0 -0 -4.01407e-05)
(0 -0 -3.95345e-05)
(0 -0 -3.75338e-05)
(0 -0 -3.57865e-05)
(0 -0 -3.53136e-05)
(0 -0 -3.57062e-05)
(0 -0 -3.60391e-05)
(0 -0 -3.58997e-05)
(0 -0 -3.55977e-05)
(0 -0 -3.55967e-05)
(0 -0 -3.61492e-05)
(0 -0 -3.69158e-05)
(0 -0 -3.69723e-05)
(0 -0 -3.59496e-05)
(0 -0 -3.4656e-05)
(0 -0 -3.40093e-05)
(0 -0 -3.40282e-05)
(0 -0 -3.40548e-05)
(0 -0 -3.3621e-05)
(0 -0 -3.33063e-05)
(0 -0 -3.40541e-05)
(0 -0 -3.55737e-05)
(0 -0 -3.62174e-05)
(0 -0 -3.47074e-05)
(0 -0 -3.15692e-05)
(0 -0 -2.87178e-05)
(0 -0 -2.80557e-05)
(0 -0 -2.99274e-05)
(0 -0 -3.27928e-05)
(0 -0 -3.4844e-05)
(0 -0 -3.5355e-05)
(0 -0 -3.43247e-05)
(0 -0 -3.23292e-05)
(0 -0 -3.05742e-05)
(0 -0 -2.98765e-05)
(0 -0 -3.00166e-05)
(0 -0 -3.04065e-05)
(0 -0 -3.05786e-05)
(0 -0 -3.03454e-05)
(0 -0 -3.0043e-05)
(0 -0 -3.00856e-05)
(0 -0 -3.03242e-05)
(0 -0 -3.03849e-05)
(0 -0 -3.03604e-05)
(0 -0 -3.05531e-05)
(0 -0 -3.06985e-05)
(0 -0 -3.01278e-05)
(0 -0 -2.87459e-05)
(0 -0 -2.76138e-05)
(0 -0 -2.77973e-05)
(0 -0 -2.8701e-05)
(0 -0 -2.89205e-05)
(0 -0 -2.83397e-05)
(0 -0 -2.78973e-05)
(0 -0 -2.78015e-05)
(0 -0 -2.73502e-05)
(0 -0 -2.62929e-05)
(0 -0 -2.53847e-05)
(0 -0 -2.53274e-05)
(0 -0 -2.58118e-05)
(0 -0 -2.59766e-05)
(0 -0 -2.54694e-05)
(0 -0 -2.46194e-05)
(0 -0 -2.37554e-05)
(0 -0 -2.31076e-05)
(0 -0 -2.3015e-05)
(0 -0 -2.35015e-05)
(0 -0 -2.40979e-05)
(0 -0 -2.44696e-05)
(0 -0 -2.46319e-05)
(0 -0 -2.45713e-05)
(0 -0 -2.41025e-05)
(0 -0 -2.31342e-05)
(0 -0 -2.19501e-05)
(0 -0 -2.10393e-05)
(0 -0 -2.0681e-05)
(0 -0 -2.06644e-05)
(0 -0 -2.0596e-05)
(0 -0 -2.03508e-05)
(0 -0 -2.00488e-05)
(0 -0 -1.97765e-05)
(0 -0 -1.94819e-05)
(0 -0 -1.90808e-05)
(0 -0 -1.85565e-05)
(0 -0 -1.79929e-05)
(0 -0 -1.7569e-05)
(0 -0 -1.74349e-05)
(0 -0 -1.74745e-05)
(0 -0 -1.7402e-05)
(0 -0 -1.70954e-05)
(0 -0 -1.65906e-05)
(0 -0 -1.59635e-05)
(0 -0 -1.5364e-05)
(0 -0 -1.49298e-05)
(0 -0 -1.46046e-05)
(0 -0 -1.42217e-05)
(0 -0 -1.37093e-05)
(0 -0 -1.31253e-05)
(0 -0 -1.25417e-05)
(0 -0 -1.20712e-05)
(0 -0 -1.18089e-05)
(0 -0 -1.16414e-05)
(0 -0 -1.13843e-05)
(0 -0 -1.10715e-05)
(0 -0 -1.08052e-05)
(0 -0 -1.0517e-05)
(0 -0 -1.00877e-05)
(0 -0 -9.55625e-06)
(0 -0 -9.0755e-06)
(0 -0 -8.72798e-06)
(0 -0 -8.49035e-06)
(0 -0 -8.28652e-06)
(0 -0 -7.98772e-06)
(0 -0 -7.48821e-06)
(0 -0 -6.83117e-06)
(0 -0 -6.22805e-06)
(0 -0 -5.87152e-06)
(0 -0 -5.71535e-06)
(0 -0 -5.5354e-06)
(0 -0 -5.19407e-06)
(0 -0 -4.73685e-06)
(0 -0 -4.29794e-06)
(0 -0 -3.93611e-06)
(0 -0 -3.56517e-06)
(0 -0 -3.10901e-06)
(0 -0 -2.63024e-06)
(0 -0 -2.22337e-06)
(0 -0 -1.87275e-06)
(0 -0 -1.47449e-06)
(0 -0 -9.56772e-07)
(0 -0 -3.68805e-07)
(0 -0 1.09188e-07)
(0 -0 2.85883e-07)
(0 -0 1.40074e-07)
(0 -0 -2.24564e-06)
(0 -0 -5.22521e-06)
(0 -0 -5.68113e-06)
(0 -0 -4.91005e-06)
(0 -0 -4.07283e-06)
(0 -0 -3.62449e-06)
(0 -0 -3.52475e-06)
(0 -0 -3.72101e-06)
(0 -0 -4.20024e-06)
(0 -0 -4.8606e-06)
(0 -0 -5.53236e-06)
(0 -0 -6.07136e-06)
(0 -0 -6.44036e-06)
(0 -0 -6.71534e-06)
(0 -0 -6.97301e-06)
(0 -0 -7.24701e-06)
(0 -0 -7.56953e-06)
(0 -0 -7.94059e-06)
(0 -0 -8.29753e-06)
(0 -0 -8.60406e-06)
(0 -0 -8.91827e-06)
(0 -0 -9.34821e-06)
(0 -0 -9.96892e-06)
(0 -0 -1.07342e-05)
(0 -0 -1.14796e-05)
(0 -0 -1.20189e-05)
(0 -0 -1.22829e-05)
(0 -0 -1.23855e-05)
(0 -0 -1.24949e-05)
(0 -0 -1.26819e-05)
(0 -0 -1.30032e-05)
(0 -0 -1.35471e-05)
(0 -0 -1.42622e-05)
(0 -0 -1.49145e-05)
(0 -0 -1.52913e-05)
(0 -0 -1.53681e-05)
(0 -0 -1.53099e-05)
(0 -0 -1.53912e-05)
(0 -0 -1.57982e-05)
(0 -0 -1.64356e-05)
(0 -0 -1.70196e-05)
(0 -0 -1.72843e-05)
(0 -0 -1.72441e-05)
(0 -0 -1.73133e-05)
(0 -0 -1.78674e-05)
(0 -0 -1.86799e-05)
(0 -0 -1.93222e-05)
(0 -0 -1.98365e-05)
(0 -0 -2.03301e-05)
(0 -0 -2.04916e-05)
(0 -0 -2.04097e-05)
(0 -0 -2.08487e-05)
(0 -0 -2.20479e-05)
(0 -0 -2.33446e-05)
(0 -0 -2.39741e-05)
(0 -0 -2.38363e-05)
(0 -0 -2.34639e-05)
(0 -0 -2.34556e-05)
(0 -0 -2.39192e-05)
(0 -0 -2.45003e-05)
(0 -0 -2.49419e-05)
(0 -0 -2.57264e-05)
(0 -0 -2.72703e-05)
(0 -0 -2.86886e-05)
(0 -0 -2.88751e-05)
(0 -0 -2.80381e-05)
(0 -0 -2.72571e-05)
(0 -0 -2.71097e-05)
(0 -0 -2.74312e-05)
(0 -0 -2.78815e-05)
(0 -0 -2.8115e-05)
(0 -0 -2.78066e-05)
(0 -0 -2.74268e-05)
(0 -0 -2.8234e-05)
(0 -0 -3.04283e-05)
(0 -0 -3.23356e-05)
(0 -0 -3.23246e-05)
(0 -0 -3.08221e-05)
(0 -0 -2.95853e-05)
(0 -0 -2.94448e-05)
(0 -0 -2.97401e-05)
(0 -0 -2.99228e-05)
(0 -0 -3.05083e-05)
(0 -0 -3.1985e-05)
(0 -0 -3.3625e-05)
(0 -0 -3.44203e-05)
(0 -0 -3.41731e-05)
(0 -0 -3.32672e-05)
(0 -0 -3.22525e-05)
(0 -0 -3.17657e-05)
(0 -0 -3.21103e-05)
(0 -0 -3.30044e-05)
(0 -0 -3.38181e-05)
(0 -0 -3.40101e-05)
(0 -0 -3.3599e-05)
(0 -0 -3.30294e-05)
(0 -0 -3.25679e-05)
(0 -0 -3.24707e-05)
(0 -0 -3.31793e-05)
(0 -0 -3.4733e-05)
(0 -0 -3.64588e-05)
(0 -0 -3.73578e-05)
(0 -0 -3.72038e-05)
(0 -0 -3.67634e-05)
(0 -0 -3.63157e-05)
(0 -0 -3.54169e-05)
(0 -0 -3.42638e-05)
(0 -0 -3.37559e-05)
(0 -0 -3.41165e-05)
(0 -0 -3.467e-05)
(0 -0 -3.50986e-05)
(0 -0 -3.55602e-05)
(0 -0 -3.59563e-05)
(0 -0 -3.60684e-05)
(0 -0 -3.60225e-05)
(0 -0 -3.5841e-05)
(0 -0 -3.52188e-05)
(0 -0 -3.44442e-05)
(0 -0 -3.44369e-05)
(0 -0 -3.5464e-05)
(0 -0 -3.71168e-05)
(0 -0 -3.88153e-05)
(0 -0 -3.96447e-05)
(0 -0 -3.88582e-05)
(0 -0 -3.69591e-05)
(0 -0 -3.54866e-05)
(0 -0 -3.53577e-05)
(0 -0 -3.61659e-05)
(0 -0 -3.69584e-05)
(0 -0 -3.72076e-05)
(0 -0 -3.70908e-05)
(0 -0 -3.71478e-05)
(0 -0 -3.79002e-05)
(0 -0 -3.90121e-05)
(0 -0 -3.91915e-05)
(0 -0 -3.78931e-05)
(0 -0 -3.61316e-05)
(0 -0 -3.50796e-05)
(0 -0 -3.4958e-05)
(0 -0 -3.50724e-05)
(0 -0 -3.47131e-05)
(0 -0 -3.45003e-05)
(0 -0 -3.56785e-05)
(0 -0 -3.79775e-05)
(0 -0 -3.94095e-05)
(0 -0 -3.82683e-05)
(0 -0 -3.47769e-05)
(0 -0 -3.09339e-05)
(0 -0 -2.91393e-05)
(0 -0 -3.03103e-05)
(0 -0 -3.31193e-05)
(0 -0 -3.5433e-05)
(0 -0 -3.60818e-05)
(0 -0 -3.4992e-05)
(0 -0 -3.30286e-05)
(0 -0 -3.16179e-05)
(0 -0 -3.14152e-05)
(0 -0 -3.17881e-05)
(0 -0 -3.2018e-05)
(0 -0 -3.19651e-05)
(0 -0 -3.16084e-05)
(0 -0 -3.1167e-05)
(0 -0 -3.11553e-05)
(0 -0 -3.1615e-05)
(0 -0 -3.20472e-05)
(0 -0 -3.21711e-05)
(0 -0 -3.21574e-05)
(0 -0 -3.19733e-05)
(0 -0 -3.11795e-05)
(0 -0 -2.98629e-05)
(0 -0 -2.92933e-05)
(0 -0 -3.04117e-05)
(0 -0 -3.2044e-05)
(0 -0 -3.23844e-05)
(0 -0 -3.1499e-05)
(0 -0 -3.06853e-05)
(0 -0 -3.02592e-05)
(0 -0 -2.95274e-05)
(0 -0 -2.82788e-05)
(0 -0 -2.73106e-05)
(0 -0 -2.73571e-05)
(0 -0 -2.80479e-05)
(0 -0 -2.8401e-05)
(0 -0 -2.79534e-05)
(0 -0 -2.69345e-05)
(0 -0 -2.56229e-05)
(0 -0 -2.43013e-05)
(0 -0 -2.35822e-05)