/*--------------------------------*- C++ -*----------------------------------*\
| =========                 |                                                 |
| \\      /  F ield         | OpenFOAM: The Open Source CFD Toolbox           |
|  \\    /   O peration     | Version:  v2012                                 |
|   \\  /    A nd           | Website:  www.openfoam.com                      |
|    \\/     M anipulation  |                                                 |
\*---------------------------------------------------------------------------*/
FoamFile
{
    version     2.0;
    format      ascii;
    class       volScalarField;
    location    "0";
    object      p;
}
// * * * * * * * * * * * * * * * * * * * * * * * * * * * * * * * * * * * * * //

dimensions      [0 2 -2 0 0 0 0];


internalField   nonuniform List<scalar> 
4000
(
-3.59802e-14
-3.4319e-14
-3.5913e-14
-2.94282e-14
-3.00419e-14
-3.66227e-14
-3.48275e-14
-3.52084e-14
-4.25784e-14
-4.23183e-14
-4.29859e-14
-5.22348e-14
-5.82937e-14
-5.72641e-14
-6.36192e-14
-6.93452e-14
-6.81325e-14
-7.80365e-14
-7.17226e-14
-7.48895e-14
-7.91667e-14
-8.28824e-14
-8.19942e-14
-8.5418e-14
-8.5112e-14
-9.51636e-14
-8.85025e-14
-9.10206e-14
-9.88381e-14
-1.00447e-13
-1.13292e-13
-1.28706e-13
-1.16141e-13
-1.11897e-13
-1.17281e-13
-1.16807e-13
-1.19118e-13
-1.24861e-13
-1.35769e-13
-1.37836e-13
-1.34972e-13
-1.23893e-13
-1.19534e-13
-1.19368e-13
-1.27219e-13
-1.31725e-13
-1.33251e-13
-1.34574e-13
-1.29803e-13
-1.28333e-13
-1.35925e-13
-1.3818e-13
-1.3908e-13
-1.27352e-13
-1.33565e-13
-1.30898e-13
-1.26161e-13
-1.20799e-13
-1.1874e-13
-1.07252e-13
-1.07604e-13
-1.12728e-13
-1.14704e-13
-1.17164e-13
-1.11081e-13
-1.00532e-13
-1.0053e-13
-1.05054e-13
-1.05161e-13
-1.04573e-13
-9.96814e-14
-9.01405e-14
-9.3118e-14
-9.3113e-14
-8.94123e-14
-7.95951e-14
-7.64156e-14
-7.24831e-14
-7.3405e-14
-7.61534e-14
-8.13857e-14
-7.18336e-14
-7.51404e-14
-6.63408e-14
-5.32645e-14
-5.82035e-14
-4.80035e-14
-3.80952e-14
-2.74637e-14
-2.42193e-14
-1.32454e-14
-1.11572e-14
-5.37499e-15
6.59989e-16
-3.87689e-15
3.47307e-16
-4.11628e-16
-9.91202e-16
-7.50722e-15
-3.41369e-15
-3.68829e-14
-3.50205e-14
-3.63094e-14
-3.3439e-14
-3.42906e-14
-3.34492e-14
-3.34433e-14
-3.54908e-14
-3.84265e-14
-4.14202e-14
-4.57253e-14
-5.43127e-14
-5.86685e-14
-6.00876e-14
-6.19397e-14
-6.67619e-14
-6.56739e-14
-7.11137e-14
-7.61416e-14
-7.40865e-14
-7.70399e-14
-8.36486e-14
-8.79862e-14
-8.48421e-14
-8.6819e-14
-9.00903e-14
-9.23797e-14
-8.94355e-14
-1.02895e-13
-1.07873e-13
-1.14061e-13
-1.20131e-13
-1.16691e-13
-1.19612e-13
-1.13912e-13
-1.17832e-13
-1.19869e-13
-1.21393e-13
-1.32176e-13
-1.32277e-13
-1.37066e-13
-1.2511e-13
-1.22662e-13
-1.22198e-13
-1.25023e-13
-1.30711e-13
-1.34856e-13
-1.33134e-13
-1.28815e-13
-1.32752e-13
-1.38871e-13
-1.35857e-13
-1.35503e-13
-1.31431e-13
-1.30639e-13
-1.28183e-13
-1.27876e-13
-1.24326e-13
-1.18076e-13
-1.12715e-13
-1.08725e-13
-1.10249e-13
-1.08448e-13
-1.12436e-13
-1.1155e-13
-1.04022e-13
-1.02481e-13
-1.0617e-13
-1.05205e-13
-1.03137e-13
-9.63877e-14
-9.206e-14
-9.10209e-14
-9.11688e-14
-9.00004e-14
-8.05151e-14
-7.93567e-14
-7.32907e-14
-7.42562e-14
-7.8084e-14
-7.49327e-14
-7.99844e-14
-7.276e-14
-6.26431e-14
-5.42063e-14
-5.77817e-14
-5.07241e-14
-4.0755e-14
-2.84446e-14
-2.4614e-14
-1.22322e-14
-8.61843e-15
-2.86422e-15
-4.13633e-16
-2.90438e-15
9.20422e-16
-1.16559e-15
-9.30699e-16
-1.17305e-15
-4.88138e-15
-3.87978e-14
-3.62477e-14
-3.77198e-14
-3.09692e-14
-2.88447e-14
-3.04443e-14
-3.42271e-14
-3.40316e-14
-4.21715e-14
-4.03322e-14
-5.03964e-14
-5.89235e-14
-6.01364e-14
-5.36507e-14
-5.73449e-14
-6.67619e-14
-6.65776e-14
-6.91257e-14
-7.23761e-14
-7.91932e-14
-8.18179e-14
-7.89954e-14
-8.70949e-14
-8.76577e-14
-8.40207e-14
-8.90794e-14
-9.48659e-14
-9.61142e-14
-1.0246e-13
-1.10688e-13
-1.13771e-13
-1.1565e-13
-1.1928e-13
-1.20854e-13
-1.10627e-13
-1.16317e-13
-1.1672e-13
-1.23272e-13
-1.26269e-13
-1.32064e-13
-1.33137e-13
-1.26339e-13
-1.22004e-13
-1.2175e-13
-1.25273e-13
-1.31803e-13
-1.35137e-13
-1.3691e-13
-1.32265e-13
-1.30015e-13
-1.32626e-13
-1.34148e-13
-1.36529e-13
-1.35261e-13
-1.33092e-13
-1.2638e-13
-1.29943e-13
-1.23854e-13
-1.12086e-13
-1.15486e-13
-1.11789e-13
-1.11598e-13
-1.12242e-13
-1.15165e-13
-1.09657e-13
-1.02624e-13
-9.87763e-14
-1.05687e-13
-1.0507e-13
-1.04785e-13
-9.74889e-14
-9.58753e-14
-9.42084e-14
-9.11593e-14
-8.71612e-14
-8.00166e-14
-7.93677e-14
-7.66753e-14
-7.46336e-14
-7.87469e-14
-7.39808e-14
-7.84564e-14
-7.49569e-14
-6.40941e-14
-5.63422e-14
-5.38085e-14
-4.73752e-14
-3.51536e-14
-3.05035e-14
-2.5438e-14
-1.59455e-14
-1.13557e-14
-2.62861e-15
3.8833e-15
-3.69347e-15
-3.31115e-15
6.11821e-16
6.5058e-16
1.92479e-15
-2.03409e-15
-3.82267e-14
-3.17892e-14
-3.34761e-14
-3.73777e-14
-3.19476e-14
-3.32721e-14
-3.46983e-14
-3.76194e-14
-3.98269e-14
-4.03067e-14
-5.05869e-14
-6.07023e-14
-5.82912e-14
-5.49325e-14
-5.40584e-14
-6.02083e-14
-6.63215e-14
-7.20156e-14
-7.70301e-14
-8.26189e-14
-8.40644e-14
-8.0395e-14
-8.45194e-14
-8.84073e-14
-8.76978e-14
-9.19203e-14
-9.82285e-14
-9.64194e-14
-1.03374e-13
-1.09579e-13
-1.08312e-13
-1.12876e-13
-1.18995e-13
-1.22888e-13
-1.20922e-13
-1.15135e-13
-1.15079e-13
-1.1598e-13
-1.22208e-13
-1.33016e-13
-1.30812e-13
-1.22583e-13
-1.1989e-13
-1.23988e-13
-1.29621e-13
-1.37012e-13
-1.30529e-13
-1.32349e-13
-1.29943e-13
-1.34409e-13
-1.36706e-13
-1.38961e-13
-1.36164e-13
-1.28826e-13
-1.32186e-13
-1.23949e-13
-1.27084e-13
-1.26015e-13
-1.13944e-13
-1.10666e-13
-1.13828e-13
-1.1425e-13
-1.10639e-13
-1.13299e-13
-1.15107e-13
-1.01055e-13
-1.02246e-13
-1.03062e-13
-1.05481e-13
-1.01351e-13
-9.83287e-14
-9.33929e-14
-9.12988e-14
-9.02789e-14
-8.50543e-14
-8.57774e-14
-7.07422e-14
-8.17957e-14
-7.82721e-14
-7.70909e-14
-7.77495e-14
-7.52886e-14
-7.03311e-14
-6.53912e-14
-5.84263e-14
-5.48806e-14
-4.57493e-14
-3.53872e-14
-3.22368e-14
-2.5683e-14
-1.72069e-14
-1.27219e-14
-3.83235e-15
3.20647e-15
1.30001e-15
-1.32266e-15
-2.79394e-16
9.01838e-16
2.39558e-15
3.32439e-16
-4.11537e-14
-3.16852e-14
-3.57109e-14
-3.72239e-14
-3.65403e-14
-3.39715e-14
-3.47662e-14
-3.68679e-14
-4.03004e-14
-3.96193e-14
-5.19238e-14
-5.82041e-14
-5.25179e-14
-5.72342e-14
-5.8076e-14
-5.85365e-14
-6.28558e-14
-6.86749e-14
-8.04869e-14
-8.52853e-14
-8.81583e-14
-8.44732e-14
-8.9709e-14
-8.86807e-14
-8.21465e-14
-8.32185e-14
-9.41106e-14
-1.00094e-13
-1.02654e-13
-1.07258e-13
-1.09034e-13
-1.11653e-13
-1.12779e-13
-1.20095e-13
-1.24298e-13
-1.1506e-13
-1.13333e-13
-1.18242e-13
-1.24306e-13
-1.3047e-13
-1.25441e-13
-1.17074e-13
-1.15571e-13
-1.27864e-13
-1.32111e-13
-1.36424e-13
-1.32003e-13
-1.33366e-13
-1.30195e-13
-1.30118e-13
-1.3561e-13
-1.32646e-13
-1.33506e-13
-1.26698e-13
-1.304e-13
-1.29049e-13
-1.25962e-13
-1.23683e-13
-1.17078e-13
-1.14915e-13
-1.13553e-13
-1.14348e-13
-1.14707e-13
-1.13599e-13
-1.04814e-13
-1.01354e-13
-1.03046e-13
-1.06849e-13
-1.04868e-13
-1.01614e-13
-9.87862e-14
-9.71054e-14
-9.25873e-14
-8.84666e-14
-8.8083e-14
-8.52139e-14
-7.6444e-14
-8.28255e-14
-8.27488e-14
-8.02119e-14
-7.29061e-14
-7.26507e-14
-6.98459e-14
-6.3942e-14
-5.85633e-14
-5.22102e-14
-4.24061e-14
-3.30421e-14
-3.10679e-14
-2.39533e-14
-2.28726e-14
-1.27158e-14
-4.91484e-15
3.27198e-15
4.55143e-15
-2.8031e-15
-2.266e-15
3.76987e-15
4.73486e-15
1.93769e-15
-4.14827e-14
-3.11599e-14
-3.52747e-14
-4.46561e-14
-3.50475e-14
-2.94541e-14
-3.34402e-14
-3.61874e-14
-4.30979e-14
-4.84349e-14
-4.90344e-14
-5.77133e-14
-5.38132e-14
-5.64801e-14
-6.15752e-14
-5.63761e-14
-5.74382e-14
-6.68629e-14
-8.33553e-14
-8.74147e-14
-8.74947e-14
-8.76105e-14
-1.00269e-13
-9.03134e-14
-8.3492e-14
-8.10663e-14
-9.1877e-14
-1.02584e-13
-1.03154e-13
-1.05645e-13
-1.0882e-13
-1.10847e-13
-1.1748e-13
-1.21314e-13
-1.15405e-13
-1.12177e-13
-1.13597e-13
-1.19605e-13
-1.21044e-13
-1.22431e-13
-1.21973e-13
-1.19196e-13
-1.15163e-13
-1.26796e-13
-1.26358e-13
-1.34283e-13
-1.36569e-13
-1.38374e-13
-1.30487e-13
-1.28198e-13
-1.32387e-13
-1.3521e-13
-1.31344e-13
-1.26296e-13
-1.28398e-13
-1.27011e-13
-1.26486e-13
-1.26162e-13
-1.16182e-13
-1.07886e-13
-1.08811e-13
-1.12829e-13
-1.14078e-13
-1.09208e-13
-1.10176e-13
-1.04912e-13
-1.04684e-13
-1.08347e-13
-1.01772e-13
-1.01079e-13
-9.97837e-14
-9.45047e-14
-8.73155e-14
-8.64274e-14
-8.93925e-14
-8.48147e-14
-7.98344e-14
-8.62064e-14
-7.95998e-14
-7.39445e-14
-7.24928e-14
-7.10672e-14
-7.16579e-14
-6.42949e-14
-5.56788e-14
-4.74508e-14
-4.4916e-14
-3.47907e-14
-3.12003e-14
-2.47019e-14
-2.15037e-14
-1.55902e-14
-8.37758e-15
-5.67818e-15
5.98471e-15
5.43358e-15
-4.49567e-15
8.36855e-16
3.59098e-15
2.49398e-16
-3.96779e-14
-4.03807e-14
-3.48245e-14
-3.84246e-14
-3.72806e-14
-3.53232e-14
-3.43986e-14
-3.86239e-14
-4.43549e-14
-5.39718e-14
-5.48412e-14
-5.2338e-14
-4.95253e-14
-5.78695e-14
-5.56671e-14
-5.82239e-14
-6.0306e-14
-6.7004e-14
-8.58667e-14
-8.63759e-14
-9.26725e-14
-8.74664e-14
-9.28194e-14
-8.62777e-14
-7.8832e-14
-8.24593e-14
-9.49637e-14
-1.08857e-13
-1.02316e-13
-1.04773e-13
-1.05916e-13
-1.12195e-13
-1.15538e-13
-1.21032e-13
-1.14868e-13
-1.2111e-13
-1.17433e-13
-1.05999e-13
-1.13889e-13
-1.21732e-13
-1.25466e-13
-1.23264e-13
-1.2218e-13
-1.25325e-13
-1.24029e-13
-1.26445e-13
-1.27493e-13
-1.32067e-13
-1.29924e-13
-1.3254e-13
-1.33489e-13
-1.28139e-13
-1.25398e-13
-1.28158e-13
-1.29336e-13
-1.26336e-13
-1.225e-13
-1.28031e-13
-1.13869e-13
-1.06761e-13
-1.08301e-13
-1.09085e-13
-1.09077e-13
-1.12787e-13
-1.07641e-13
-1.0444e-13
-1.11258e-13
-1.09315e-13
-1.08367e-13
-1.03939e-13
-9.01345e-14
-9.05292e-14
-8.73284e-14
-8.64754e-14
-8.52648e-14
-8.75775e-14
-8.25169e-14
-8.7508e-14
-8.34961e-14
-7.68421e-14
-6.72058e-14
-6.90396e-14
-6.49149e-14
-5.78123e-14
-5.64351e-14
-4.52886e-14
-4.19153e-14
-3.55068e-14
-3.0127e-14
-2.7537e-14
-1.91129e-14
-1.92944e-14
-1.01961e-14
-3.66618e-15
6.23867e-15
3.37732e-15
-6.42374e-15
-1.40028e-15
4.86797e-15
-2.98445e-15
-3.74911e-14
-4.04256e-14
-3.48289e-14
-4.00408e-14
-3.78047e-14
-3.78235e-14
-3.73813e-14
-3.56795e-14
-4.3883e-14
-5.18236e-14
-5.29666e-14
-5.76182e-14
-5.92853e-14
-5.48982e-14
-5.61082e-14
-5.95902e-14
-6.23843e-14
-6.78066e-14
-8.27297e-14
-8.84678e-14
-8.60496e-14
-8.57416e-14
-9.00947e-14
-8.80394e-14
-8.26556e-14
-8.94665e-14
-9.75156e-14
-1.06888e-13
-1.03593e-13
-1.0784e-13
-1.05668e-13
-1.08757e-13
-1.09547e-13
-1.16481e-13
-1.14501e-13
-1.19397e-13
-1.14541e-13
-1.1422e-13
-1.2118e-13
-1.24509e-13
-1.26866e-13
-1.17206e-13
-1.18162e-13
-1.20546e-13
-1.16722e-13
-1.17776e-13
-1.33922e-13
-1.43242e-13
-1.40599e-13
-1.26058e-13
-1.24304e-13
-1.21106e-13
-1.24488e-13
-1.27763e-13
-1.26382e-13
-1.24847e-13
-1.24374e-13
-1.17413e-13
-1.11949e-13
-1.09036e-13
-1.06129e-13
-1.11187e-13
-1.08877e-13
-1.09312e-13
-1.04321e-13
-9.89264e-14
-1.11313e-13
-1.11224e-13
-1.02064e-13
-9.95999e-14
-9.50967e-14
-9.05833e-14
-8.73679e-14
-9.01245e-14
-9.43952e-14
-8.6429e-14
-7.77896e-14
-8.04246e-14
-7.62459e-14
-7.38318e-14
-6.80028e-14
-6.70719e-14
-6.55621e-14
-6.28189e-14
-5.90134e-14
-4.85638e-14
-4.12524e-14
-3.46752e-14
-2.78087e-14
-2.86386e-14
-2.26715e-14
-1.92285e-14
-1.08145e-14
-3.77899e-15
1.59138e-15
2.86432e-15
9.37559e-16
-2.0946e-15
9.73975e-16
-2.10316e-15
-3.75814e-14
-3.80517e-14
-3.84612e-14
-4.25972e-14
-3.91045e-14
-3.79665e-14
-3.93674e-14
-3.60571e-14
-5.02998e-14
-5.00005e-14
-5.60751e-14
-6.38407e-14
-5.9957e-14
-5.74372e-14
-5.88049e-14
-5.84804e-14
-6.39201e-14
-7.07707e-14
-8.52324e-14
-9.08857e-14
-8.59558e-14
-8.7893e-14
-8.48545e-14
-8.62695e-14
-8.55661e-14
-9.19956e-14
-1.01496e-13
-1.03281e-13
-9.84393e-14
-1.04608e-13
-1.03184e-13
-1.08072e-13
-1.11706e-13
-1.1683e-13
-1.14313e-13
-1.1843e-13
-1.20365e-13
-1.27652e-13
-1.17359e-13
-1.13972e-13
-1.18344e-13
-1.24338e-13
-1.25437e-13
-1.22883e-13
-1.15735e-13
-1.15738e-13
-1.27772e-13
-1.31351e-13
-1.29801e-13
-1.30573e-13
-1.2982e-13
-1.22995e-13
-1.23246e-13
-1.22507e-13
-1.24521e-13
-1.21521e-13
-1.17702e-13
-1.15027e-13
-1.12244e-13
-1.08917e-13
-1.0665e-13
-1.08156e-13
-1.09012e-13
-1.0935e-13
-1.05651e-13
-1.02335e-13
-1.12986e-13
-1.10637e-13
-1.03413e-13
-1.00095e-13
-9.65245e-14
-8.92546e-14
-8.51789e-14
-8.18653e-14
-9.15709e-14
-8.36613e-14
-7.78843e-14
-7.59911e-14
-7.64783e-14
-7.76983e-14
-6.70259e-14
-6.25562e-14
-6.24424e-14
-5.84927e-14
-5.54074e-14
-5.09181e-14
-3.64877e-14
-3.12681e-14
-2.76223e-14
-3.17488e-14
-2.86763e-14
-2.11981e-14
-1.38555e-14
-3.76736e-15
2.16778e-15
3.10651e-15
-2.98201e-16
-2.86069e-15
-2.68487e-15
-5.16764e-15
-3.74161e-14
-4.078e-14
-3.96323e-14
-3.9784e-14
-4.05606e-14
-4.20089e-14
-4.14418e-14
-3.92219e-14
-4.00953e-14
-5.68784e-14
-6.5516e-14
-6.12997e-14
-6.19339e-14
-5.83757e-14
-6.00515e-14
-6.43278e-14
-7.47113e-14
-7.26705e-14
-7.5314e-14
-8.39744e-14
-9.11299e-14
-8.91197e-14
-9.28044e-14
-9.07375e-14
-8.91252e-14
-8.86764e-14
-1.01154e-13
-1.00005e-13
-9.66482e-14
-1.03129e-13
-1.00671e-13
-1.08446e-13
-1.19372e-13
-1.22069e-13
-1.16597e-13
-1.15725e-13
-1.1493e-13
-1.22146e-13
-1.22284e-13
-1.19102e-13
-1.16515e-13
-1.22927e-13
-1.2033e-13
-1.20774e-13
-1.09558e-13
-1.11731e-13
-1.2367e-13
-1.32955e-13
-1.31958e-13
-1.3096e-13
-1.3005e-13
-1.23208e-13
-1.1729e-13
-1.21159e-13
-1.25144e-13
-1.18699e-13
-1.14355e-13
-1.14405e-13
-1.11237e-13
-1.07039e-13
-1.05639e-13
-1.05401e-13
-1.01419e-13
-1.04487e-13
-1.09037e-13
-1.13768e-13
-1.13148e-13
-1.11181e-13
-1.02735e-13
-9.65917e-14
-8.82351e-14
-8.51985e-14
-8.72907e-14
-8.5864e-14
-8.75537e-14
-8.1697e-14
-7.89241e-14
-7.77254e-14
-7.78059e-14
-7.67316e-14
-6.79517e-14
-6.43726e-14
-6.1117e-14
-5.12129e-14
-4.95694e-14
-4.50254e-14
-4.15432e-14
-3.6264e-14
-3.09533e-14
-3.35881e-14
-3.22834e-14
-2.10462e-14
-1.68478e-14
-8.16271e-15
-1.76552e-15
1.19485e-15
1.30132e-16
-5.88273e-16
-9.21704e-15
-7.43008e-15
-4.31659e-14
-4.49459e-14
-4.51725e-14
-3.9873e-14
-3.89565e-14
-4.54938e-14
-4.15528e-14
-4.16839e-14
-4.43003e-14
-5.22633e-14
-6.48458e-14
-6.973e-14
-6.50577e-14
-5.9259e-14
-6.42893e-14
-6.31677e-14
-6.87313e-14
-7.42508e-14
-7.69781e-14
-8.37108e-14
-9.18296e-14
-9.51809e-14
-9.30425e-14
-8.83215e-14
-8.97988e-14
-1.00157e-13
-9.74894e-14
-9.61658e-14
-9.45022e-14
-9.61989e-14
-1.02635e-13
-1.11922e-13
-1.16232e-13
-1.13605e-13
-1.19861e-13
-1.15696e-13
-1.22931e-13
-1.21756e-13
-1.22178e-13
-1.191e-13
-1.17259e-13
-1.23089e-13
-1.22435e-13
-1.12931e-13
-1.06586e-13
-1.11919e-13
-1.22307e-13
-1.29911e-13
-1.32232e-13
-1.31071e-13
-1.25479e-13
-1.17904e-13
-1.17609e-13
-1.21097e-13
-1.2293e-13
-1.15489e-13
-1.11303e-13
-1.11125e-13
-1.10242e-13
-1.08936e-13
-1.11579e-13
-1.07696e-13
-1.01503e-13
-9.57435e-14
-1.04069e-13
-1.11471e-13
-1.12588e-13
-1.10675e-13
-1.00156e-13
-9.11044e-14
-9.12749e-14
-8.42298e-14
-8.59899e-14
-8.57559e-14
-8.63267e-14
-8.5414e-14
-8.17982e-14
-7.5258e-14
-7.32977e-14
-6.87353e-14
-6.02313e-14
-6.23419e-14
-6.14718e-14
-5.95581e-14
-5.52334e-14
-4.76224e-14
-3.64547e-14
-3.12288e-14
-3.18156e-14
-3.31269e-14
-2.89097e-14
-2.37504e-14
-1.54647e-14
-7.01574e-15
-5.57037e-15
1.39325e-16
-5.17119e-15
-5.26915e-15
-1.31639e-14
-5.14815e-15
-4.02055e-14
-4.42744e-14
-4.71945e-14
-4.20841e-14
-3.94754e-14
-4.61967e-14
-4.06942e-14
-4.51513e-14
-4.90256e-14
-5.27115e-14
-6.19119e-14
-6.86965e-14
-7.05577e-14
-7.00054e-14
-6.79707e-14
-6.76638e-14
-6.48798e-14
-6.36464e-14
-7.52397e-14
-8.61316e-14
-8.79181e-14
-8.81657e-14
-9.09136e-14
-8.96512e-14
-9.43442e-14
-1.01365e-13
-1.02693e-13
-1.00849e-13
-9.33762e-14
-9.17372e-14
-9.64627e-14
-1.16766e-13
-1.19054e-13
-1.12305e-13
-1.17981e-13
-1.1729e-13
-1.19361e-13
-1.20914e-13
-1.20904e-13
-1.20472e-13
-1.20832e-13
-1.18129e-13
-1.14604e-13
-1.11626e-13
-1.06073e-13
-1.09062e-13
-1.23112e-13
-1.32677e-13
-1.29019e-13
-1.27761e-13
-1.20854e-13
-1.23131e-13
-1.18757e-13
-1.18798e-13
-1.17697e-13
-1.07058e-13
-1.12644e-13
-1.07544e-13
-1.07885e-13
-1.03316e-13
-1.06099e-13
-9.883e-14
-9.44284e-14
-9.6142e-14
-1.08947e-13
-1.11302e-13
-1.10472e-13
-1.03057e-13
-9.69094e-14
-9.23015e-14
-8.57106e-14
-8.55014e-14
-8.39476e-14
-8.08492e-14
-8.63173e-14
-9.35492e-14
-8.77191e-14
-7.36348e-14
-6.92127e-14
-6.67264e-14
-6.46647e-14
-6.09239e-14
-6.06535e-14
-5.54953e-14
-5.10294e-14
-4.04835e-14
-4.32935e-14
-3.4552e-14
-3.51466e-14
-3.24146e-14
-3.06242e-14
-2.75346e-14
-1.69139e-14
-4.60585e-15
-6.16414e-15
-6.48793e-17
-7.08633e-15
-1.20753e-14
-9.07135e-15
-4.07865e-15
-4.27771e-14
-4.316e-14
-5.0115e-14
-4.58548e-14
-4.37824e-14
-4.4841e-14
-4.28888e-14
-4.31417e-14
-5.00902e-14
-6.19294e-14
-6.99902e-14
-6.86106e-14
-6.28984e-14
-6.48562e-14
-6.21786e-14
-6.62177e-14
-6.53263e-14
-6.44664e-14
-7.09826e-14
-7.84478e-14
-9.11957e-14
-9.48531e-14
-9.86233e-14
-9.34094e-14
-1.00286e-13
-1.01682e-13
-9.67446e-14
-9.37241e-14
-8.90301e-14
-9.46723e-14
-1.01578e-13
-1.11094e-13
-1.11166e-13
-1.08879e-13
-1.16137e-13
-1.19042e-13
-1.17999e-13
-1.21319e-13
-1.20727e-13
-1.19177e-13
-1.19089e-13
-1.15543e-13
-1.1153e-13
-1.10801e-13
-1.11942e-13
-1.15599e-13
-1.21054e-13
-1.27101e-13
-1.2715e-13
-1.2093e-13
-1.18657e-13
-1.19536e-13
-1.17304e-13
-1.20423e-13
-1.0981e-13
-1.03686e-13
-1.05968e-13
-1.04425e-13
-1.01071e-13
-1.04159e-13
-1.06444e-13
-1.0238e-13
-9.24361e-14
-9.49155e-14
-9.76648e-14
-1.02722e-13
-1.07669e-13
-1.0068e-13
-9.02582e-14
-9.09402e-14
-8.84343e-14
-8.52867e-14
-8.25444e-14
-8.42739e-14
-8.8562e-14
-8.64161e-14
-7.92701e-14
-7.14314e-14
-7.18342e-14
-6.99288e-14
-6.37744e-14
-6.15321e-14
-5.67472e-14
-5.55018e-14
-4.8378e-14
-4.03386e-14
-4.10716e-14
-3.47243e-14
-3.2958e-14
-3.35154e-14
-2.67084e-14
-2.66804e-14
-2.11802e-14
-8.18629e-15
-6.5882e-15
-3.5678e-15
-5.11274e-15
-1.22367e-14
-8.11362e-15
-4.7073e-15
-4.51406e-14
-3.77024e-14
-4.44682e-14
-5.14752e-14
-4.63843e-14
-4.7127e-14
-5.35168e-14
-4.75867e-14
-5.22607e-14
-6.38334e-14
-6.46901e-14
-6.51845e-14
-5.85331e-14
-6.532e-14
-6.19719e-14
-6.2494e-14
-6.73019e-14
-7.34491e-14
-6.79601e-14
-7.47703e-14
-8.045e-14
-8.27104e-14
-8.41558e-14
-9.24729e-14
-1.11325e-13
-1.20097e-13
-1.07128e-13
-9.27845e-14
-8.46054e-14
-8.66518e-14
-9.72636e-14
-1.10391e-13
-1.18931e-13
-1.16033e-13
-1.17535e-13
-1.21043e-13
-1.13962e-13
-1.10401e-13
-1.15078e-13
-1.1438e-13
-1.12179e-13
-1.1864e-13
-1.12925e-13
-1.12205e-13
-1.11805e-13
-1.13861e-13
-1.22335e-13
-1.27791e-13
-1.18223e-13
-1.1488e-13
-1.1095e-13
-1.13499e-13
-1.14581e-13
-1.15045e-13
-1.05759e-13
-1.0657e-13
-1.03235e-13
-9.60574e-14
-9.37553e-14
-9.6586e-14
-1.04866e-13
-9.88041e-14
-9.32702e-14
-1.00921e-13
-9.55482e-14
-9.45747e-14
-9.7173e-14
-9.86906e-14
-8.67e-14
-8.56203e-14
-8.67031e-14
-8.58644e-14
-8.5229e-14
-8.46333e-14
-8.51268e-14
-8.39058e-14
-8.48965e-14
-7.64372e-14
-7.19911e-14
-6.73885e-14
-6.46949e-14
-6.00731e-14
-5.51371e-14
-5.53979e-14
-4.6517e-14
-4.63771e-14
-3.97554e-14
-3.53622e-14
-3.2581e-14
-3.52232e-14
-2.67468e-14
-2.2441e-14
-1.56248e-14
-9.77071e-15
-1.1408e-14
-1.08016e-14
-7.83442e-15
-9.68605e-15
-8.71915e-15
-4.70631e-15
-4.76744e-14
-4.52098e-14
-4.64311e-14
-4.57935e-14
-4.47493e-14
-4.65687e-14
-5.67819e-14
-5.69919e-14
-5.68279e-14
-5.58987e-14
-5.75848e-14
-6.01077e-14
-5.73103e-14
-6.05393e-14
-6.13702e-14
-6.0037e-14
-6.21507e-14
-6.27423e-14
-6.93524e-14
-7.87096e-14
-9.12926e-14
-9.73327e-14
-9.8742e-14
-9.64198e-14
-1.05809e-13
-1.02367e-13
-9.80884e-14
-9.14682e-14
-8.98722e-14
-9.35331e-14
-9.23479e-14
-1.02026e-13
-1.16372e-13
-1.16948e-13
-1.23198e-13
-1.23248e-13
-1.14107e-13
-1.11209e-13
-1.08902e-13
-1.17036e-13
-1.1725e-13
-1.14865e-13
-1.1458e-13
-1.12437e-13
-1.15881e-13
-1.15598e-13
-1.09051e-13
-1.20957e-13
-1.15682e-13
-1.01891e-13
-1.05305e-13
-1.11425e-13
-1.13554e-13
-1.10039e-13
-1.05802e-13
-1.07896e-13
-1.02123e-13
-8.9946e-14
-8.88963e-14
-9.64119e-14
-9.97341e-14
-9.25323e-14
-9.05445e-14
-9.46996e-14
-9.82793e-14
-9.36434e-14
-9.47808e-14
-9.17678e-14
-7.91439e-14
-8.58519e-14
-8.83266e-14
-7.97109e-14
-8.53449e-14
-8.6428e-14
-8.51126e-14
-8.51718e-14
-8.86379e-14
-8.11362e-14
-7.12033e-14
-5.99524e-14
-5.56977e-14
-5.58653e-14
-5.89272e-14
-5.61559e-14
-5.32705e-14
-4.7453e-14
-3.68159e-14
-3.21923e-14
-3.56076e-14
-3.9178e-14
-2.91751e-14
-2.2582e-14
-1.7512e-14
-1.38326e-14
-9.76146e-15
-1.3547e-14
-1.20443e-14
-1.40225e-14
-8.47725e-15
-3.74514e-15
-5.15475e-14
-4.22606e-14
-4.25255e-14
-4.4282e-14
-4.75562e-14
-4.45017e-14
-5.27165e-14
-5.13005e-14
-6.41092e-14
-6.34261e-14
-6.31227e-14
-5.70915e-14
-5.31794e-14
-5.46386e-14
-5.46698e-14
-5.73436e-14
-6.76547e-14
-6.94238e-14
-7.21163e-14
-7.52936e-14
-8.44814e-14
-8.84852e-14
-9.94362e-14
-1.09618e-13
-1.06448e-13
-1.03239e-13
-9.4131e-14
-9.38191e-14
-9.09065e-14
-8.92496e-14
-9.05995e-14
-1.04542e-13
-1.12375e-13
-1.19812e-13
-1.25594e-13
-1.27238e-13
-1.19127e-13
-1.07087e-13
-1.09e-13
-1.12452e-13
-1.18027e-13
-1.17462e-13
-1.15189e-13
-1.1476e-13
-1.11244e-13
-1.11098e-13
-1.0875e-13
-1.08739e-13
-1.11708e-13
-1.08067e-13
-1.08686e-13
-1.01783e-13
-1.06324e-13
-1.05805e-13
-1.01418e-13
-1.00148e-13
-9.81965e-14
-9.39085e-14
-8.77207e-14
-9.01143e-14
-9.53951e-14
-9.64362e-14
-9.22108e-14
-9.11542e-14
-9.17605e-14
-9.07087e-14
-9.33446e-14
-8.83135e-14
-8.37236e-14
-8.18009e-14
-8.19071e-14
-7.7175e-14
-7.95148e-14
-8.38605e-14
-8.64032e-14
-8.63269e-14
-8.47607e-14
-7.81353e-14
-7.15532e-14
-7.11588e-14
-6.00026e-14
-5.34163e-14
-5.77517e-14
-5.92001e-14
-5.46705e-14
-4.19441e-14
-3.48985e-14
-3.76831e-14
-3.22805e-14
-3.76205e-14
-3.33996e-14
-2.50632e-14
-2.10065e-14
-2.00453e-14
-1.27144e-14
-9.79e-15
-1.14506e-14
-1.52328e-14
-1.17058e-14
-8.13235e-15
-4.49808e-14
-4.53859e-14
-4.43323e-14
-4.7048e-14
-5.08875e-14
-5.11812e-14
-6.009e-14
-5.03145e-14
-4.95655e-14
-4.96202e-14
-5.03304e-14
-5.53021e-14
-6.06311e-14
-6.24339e-14
-5.45084e-14
-5.88881e-14
-6.45207e-14
-5.61263e-14
-6.55858e-14
-8.03266e-14
-9.7676e-14
-9.81134e-14
-9.56653e-14
-9.57099e-14
-1.07628e-13
-1.00441e-13
-9.30216e-14
-9.56723e-14
-8.95002e-14
-9.58641e-14
-9.08932e-14
-1.03161e-13
-1.11804e-13
-1.29981e-13
-1.25492e-13
-1.27346e-13
-1.14025e-13
-9.9271e-14
-1.1054e-13
-1.10443e-13
-1.1826e-13
-1.22134e-13
-1.22274e-13
-1.11819e-13
-1.06136e-13
-1.07779e-13
-1.1197e-13
-1.03919e-13
-1.04867e-13
-1.03009e-13
-1.01783e-13
-9.85529e-14
-1.06022e-13
-1.00211e-13
-1.0282e-13
-1.01112e-13
-9.79553e-14
-8.78271e-14
-8.4996e-14
-8.50798e-14
-9.28248e-14
-9.08782e-14
-9.21318e-14
-9.09004e-14
-7.83953e-14
-8.37035e-14
-9.12289e-14
-8.87433e-14
-8.67444e-14
-8.38408e-14
-7.0891e-14
-7.54745e-14
-8.23989e-14
-8.25727e-14
-8.47674e-14
-8.4798e-14
-8.49316e-14
-8.23419e-14
-7.22551e-14
-6.02577e-14
-5.39369e-14
-6.19502e-14
-5.67965e-14
-5.88512e-14
-5.42982e-14
-4.27483e-14
-3.79079e-14
-4.07671e-14
-3.52656e-14
-3.86373e-14
-3.31543e-14
-2.69128e-14
-1.60515e-14
-1.4319e-14
-1.76891e-14
-1.16106e-14
-1.41327e-14
-1.56017e-14
-9.65067e-15
-3.8948e-15
-4.5937e-14
-4.5144e-14
-4.60412e-14
-4.19907e-14
-4.28177e-14
-4.911e-14
-5.37507e-14
-5.91647e-14
-5.88915e-14
-5.30964e-14
-4.99152e-14
-5.16111e-14
-5.94163e-14
-6.03104e-14
-6.04512e-14
-5.88656e-14
-6.27725e-14
-6.37567e-14
-7.01523e-14
-8.59041e-14
-9.56844e-14
-9.33743e-14
-9.32551e-14
-9.46422e-14
-9.83956e-14
-1.01799e-13
-1.00562e-13
-9.24348e-14
-8.8398e-14
-9.43781e-14
-8.98989e-14
-9.55072e-14
-1.08182e-13
-1.30109e-13
-1.3601e-13
-1.26272e-13
-1.16292e-13
-1.04885e-13
-1.08004e-13
-1.03587e-13
-1.11207e-13
-1.21258e-13
-1.29536e-13
-1.20279e-13
-1.06912e-13
-1.062e-13
-1.04419e-13
-9.97626e-14
-1.06339e-13
-9.4481e-14
-9.67362e-14
-9.47396e-14
-1.01429e-13
-1.02384e-13
-9.75345e-14
-9.40802e-14
-9.41076e-14
-9.16289e-14
-8.52284e-14
-8.49069e-14
-8.52078e-14
-9.08752e-14
-8.70841e-14
-8.64573e-14
-7.84225e-14
-8.23384e-14
-8.44206e-14
-8.3491e-14
-8.71782e-14
-8.8147e-14
-7.68412e-14
-7.05734e-14
-7.38078e-14
-7.79285e-14
-8.27653e-14
-8.16013e-14
-7.87985e-14
-7.463e-14
-7.01439e-14
-6.8108e-14
-6.08657e-14
-6.12929e-14
-5.72304e-14
-5.1723e-14
-4.92072e-14
-5.37687e-14
-4.18308e-14
-4.12046e-14
-3.74301e-14
-3.50415e-14
-3.11006e-14
-2.66746e-14
-2.00261e-14
-1.80596e-14
-1.73706e-14
-1.10293e-14
-1.08595e-14
-1.29048e-14
-9.31194e-15
-7.42034e-16
-5.11957e-14
-4.44916e-14
-4.57719e-14
-4.77136e-14
-4.76658e-14
-5.19155e-14
-5.22869e-14
-4.61941e-14
-5.07116e-14
-4.94584e-14
-5.34386e-14
-5.36799e-14
-5.53823e-14
-5.74346e-14
-5.80813e-14
-6.40981e-14
-6.23197e-14
-5.98474e-14
-6.78132e-14
-7.98732e-14
-9.42069e-14
-9.60164e-14
-8.86957e-14
-8.869e-14
-1.02878e-13
-1.07836e-13
-9.34095e-14
-8.61649e-14
-8.83196e-14
-9.42756e-14
-9.33969e-14
-1.04488e-13
-1.10295e-13
-1.25369e-13
-1.30804e-13
-1.20378e-13
-1.06836e-13
-1.05184e-13
-1.10201e-13
-1.1192e-13
-1.14506e-13
-1.24309e-13
-1.2106e-13
-1.15374e-13
-1.1012e-13
-1.08989e-13
-9.78496e-14
-9.78707e-14
-9.94634e-14
-9.55277e-14
-9.33786e-14
-9.26264e-14
-9.86142e-14
-9.73993e-14
-9.77549e-14
-9.03275e-14
-8.87334e-14
-8.66417e-14
-8.63538e-14
-8.74553e-14
-7.8613e-14
-8.26311e-14
-8.28959e-14
-8.37685e-14
-7.97053e-14
-8.26346e-14
-8.48384e-14
-7.9152e-14
-7.46292e-14
-8.62665e-14
-8.27905e-14
-6.95831e-14
-6.62426e-14
-7.2702e-14
-7.91245e-14
-7.88934e-14
-7.89886e-14
-7.26046e-14
-7.36047e-14
-7.64746e-14
-5.80317e-14
-5.52474e-14
-5.87633e-14
-6.03726e-14
-5.03769e-14
-4.5242e-14
-4.41583e-14
-4.16389e-14
-4.1706e-14
-3.50759e-14
-2.6052e-14
-2.40075e-14
-1.93675e-14
-2.11891e-14
-1.56354e-14
-1.24035e-14
-1.09309e-14
-1.15342e-14
-1.04248e-14
-1.47484e-15
-4.46112e-14
-4.65024e-14
-4.57667e-14
-4.68758e-14
-5.04839e-14
-5.32065e-14
-5.23043e-14
-4.5501e-14
-4.72772e-14
-4.82253e-14
-5.41353e-14
-5.4537e-14
-5.38661e-14
-5.18272e-14
-5.64405e-14
-6.14207e-14
-6.98866e-14
-6.36529e-14
-6.86898e-14
-7.93927e-14
-8.58802e-14
-9.13069e-14
-8.83651e-14
-9.2212e-14
-9.47676e-14
-1.00621e-13
-8.93393e-14
-9.06599e-14
-9.00975e-14
-9.28098e-14
-9.58471e-14
-1.02097e-13
-1.11945e-13
-1.24106e-13
-1.25947e-13
-1.20592e-13
-1.10132e-13
-1.06952e-13
-1.08765e-13
-1.09502e-13
-1.14481e-13
-1.17161e-13
-1.17061e-13
-1.16868e-13
-1.04983e-13
-1.02791e-13
-1.03065e-13
-9.94835e-14
-9.73279e-14
-8.89074e-14
-8.69262e-14
-9.12422e-14
-9.52264e-14
-9.1308e-14
-9.44476e-14
-9.5758e-14
-8.89413e-14
-8.53067e-14
-8.86712e-14
-8.43265e-14
-7.74274e-14
-7.90324e-14
-7.97386e-14
-7.76603e-14
-7.73223e-14
-8.06125e-14
-8.04323e-14
-7.58196e-14
-7.83042e-14
-7.94287e-14
-8.02428e-14
-7.23886e-14
-6.98312e-14
-7.31913e-14
-7.22385e-14
-6.98932e-14
-7.74591e-14
-7.67546e-14
-7.49421e-14
-6.74999e-14
-6.05136e-14
-6.17887e-14
-5.6044e-14
-5.18127e-14
-4.40911e-14
-4.89375e-14
-5.08748e-14
-4.64269e-14
-3.77997e-14
-3.64895e-14
-2.42031e-14
-2.56929e-14
-1.67097e-14
-1.6342e-14
-2.11483e-14
-8.31683e-15
-1.05893e-14
-1.6963e-14
-7.87093e-15
1.05943e-15
-4.08706e-14
-4.6145e-14
-5.2421e-14
-4.8676e-14
-5.12436e-14
-5.0903e-14
-5.40336e-14
-4.667e-14
-3.98662e-14
-5.01303e-14
-5.30236e-14
-5.17418e-14
-4.89181e-14
-5.31036e-14
-5.52297e-14
-5.82251e-14
-5.91849e-14
-5.90477e-14
-7.10631e-14
-7.92153e-14
-8.79828e-14
-8.84214e-14
-9.40675e-14
-9.57218e-14
-9.70884e-14
-9.31673e-14
-8.49112e-14
-9.22366e-14
-9.12426e-14
-9.34102e-14
-9.47472e-14
-1.01811e-13
-1.10733e-13
-1.19385e-13
-1.2293e-13
-1.21234e-13
-1.15304e-13
-1.07588e-13
-1.106e-13
-1.11098e-13
-1.14632e-13
-1.18362e-13
-1.1466e-13
-1.14181e-13
-1.07153e-13
-1.07043e-13
-1.03286e-13
-9.7784e-14
-9.31046e-14
-9.14184e-14
-9.01241e-14
-8.93473e-14
-8.93103e-14
-8.95938e-14
-8.94154e-14
-8.55758e-14
-8.92266e-14
-8.40911e-14
-7.9785e-14
-7.95842e-14
-7.3407e-14
-7.37576e-14
-8.46079e-14
-8.31378e-14
-7.37046e-14
-7.97425e-14
-7.69694e-14
-7.55519e-14
-7.11706e-14
-7.65059e-14
-7.81239e-14
-7.86391e-14
-7.30447e-14
-7.09092e-14
-7.32895e-14
-7.14253e-14
-7.24201e-14
-6.74036e-14
-7.02826e-14
-6.82837e-14
-6.8439e-14
-6.27932e-14
-5.51124e-14
-5.17142e-14
-4.80962e-14
-4.98186e-14
-4.93805e-14
-3.79338e-14
-3.89731e-14
-2.8389e-14
-2.18684e-14
-2.61692e-14
-1.5474e-14
-2.21409e-14
-2.44509e-14
-1.73796e-14
-9.61135e-15
-9.21556e-15
-3.57564e-15
-2.01741e-15
-4.2007e-14
-4.78237e-14
-4.81323e-14
-4.97939e-14
-4.92088e-14
-4.95353e-14
-5.36892e-14
-4.69179e-14
-4.09079e-14
-4.12298e-14
-5.02373e-14
-5.12831e-14
-4.70662e-14
-5.94922e-14
-5.46177e-14
-5.5595e-14
-6.34956e-14
-6.47086e-14
-6.60342e-14
-7.07642e-14
-8.24165e-14
-8.62313e-14
-9.81221e-14
-9.41143e-14
-8.4053e-14
-8.60192e-14
-8.7891e-14
-9.42373e-14
-9.64356e-14
-9.76912e-14
-9.4733e-14
-9.70287e-14
-1.0564e-13
-1.13573e-13
-1.18392e-13
-1.21352e-13
-1.18858e-13
-1.11174e-13
-1.10522e-13
-1.15477e-13
-1.16759e-13
-1.17585e-13
-1.1189e-13
-1.15298e-13
-1.0573e-13
-1.06656e-13
-1.00984e-13
-9.77421e-14
-9.67624e-14
-9.4377e-14
-8.53227e-14
-8.44307e-14
-8.26136e-14
-8.91966e-14
-8.84322e-14
-8.77932e-14
-9.24402e-14
-8.11812e-14
-7.98168e-14
-7.47712e-14
-6.7498e-14
-7.87691e-14
-7.87366e-14
-7.36238e-14
-7.01977e-14
-7.41901e-14
-7.61964e-14
-7.20835e-14
-7.44225e-14
-8.14314e-14
-8.16272e-14
-7.45043e-14
-6.58167e-14
-6.55324e-14
-7.20026e-14
-7.68361e-14
-7.56814e-14
-6.2228e-14
-6.73941e-14
-6.3456e-14
-6.30616e-14
-5.76726e-14
-5.78511e-14
-5.43633e-14
-4.95031e-14
-4.74219e-14
-4.77778e-14
-3.52186e-14
-3.70051e-14
-3.35935e-14
-2.43235e-14
-2.1515e-14
-1.76709e-14
-2.58672e-14
-1.97632e-14
-9.07927e-15
-1.23903e-14
-1.27611e-14
-1.40368e-14
-6.42925e-15
-4.38541e-14
-4.24757e-14
-4.58241e-14
-4.8672e-14
-4.78257e-14
-4.89417e-14
-4.99233e-14
-4.88871e-14
-4.43403e-14
-4.35857e-14
-4.6684e-14
-4.44749e-14
-4.72315e-14
-5.59299e-14
-5.55569e-14
-5.4682e-14
-5.56272e-14
-5.69311e-14
-6.03015e-14
-7.36568e-14
-8.89588e-14
-9.3356e-14
-8.64985e-14
-8.8182e-14
-8.85405e-14
-8.85947e-14
-8.95992e-14
-8.94698e-14
-9.13022e-14
-9.03107e-14
-9.2107e-14
-9.8705e-14
-1.1084e-13
-1.13079e-13
-1.14896e-13
-1.16959e-13
-1.16877e-13
-1.15242e-13
-1.13489e-13
-1.1776e-13
-1.17589e-13
-1.18928e-13
-1.15167e-13
-1.1157e-13
-1.08005e-13
-1.05857e-13
-1.00662e-13
-1.0031e-13
-9.52836e-14
-8.73088e-14
-8.5988e-14
-8.4286e-14
-8.219e-14
-7.90291e-14
-8.35545e-14
-9.099e-14
-9.61004e-14
-7.8398e-14
-6.65461e-14
-7.34123e-14
-7.74574e-14
-7.66735e-14
-8.16819e-14
-7.07513e-14
-7.13539e-14