/*--------------------------------*- C++ -*----------------------------------*\
| =========                 |                                                 |
| \\      /  F ield         | OpenFOAM: The Open Source CFD Toolbox           |
|  \\    /   O peration     | Version:  v2012                                 |
|   \\  /    A nd           | Website:  www.openfoam.com                      |
|    \\/     M anipulation  |                                                 |
\*---------------------------------------------------------------------------*/
FoamFile
{
    version     2.0;
    format      ascii;
    class       volVectorField;
    location    "0";
    object      U;
}
// * * * * * * * * * * * * * * * * * * * * * * * * * * * * * * * * * * * * * //

dimensions      [0 1 -1 0 0 0 0];


internalField   nonuniform List<vector> 
4000
(
(1 -4.27277e-16 0)
(1 7.04152e-15 0)
(1 7.0942e-15 0)
(1 -3.69575e-15 0)
(1 1.50374e-15 0)
(1 -2.54502e-15 0)
(1 -1.23177e-15 0)
(1 -1.98623e-15 0)
(1 -2.60394e-15 0)
(1 4.45124e-15 0)
(1 -9.57059e-18 0)
(1 -1.27835e-15 0)
(1 2.89372e-16 0)
(1 5.25039e-16 0)
(1 3.83329e-15 0)
(1 -2.88734e-15 0)
(1 -8.68793e-15 0)
(1 -5.15179e-15 0)
(1 -1.28336e-15 0)
(1 -6.23175e-15 0)
(1 -4.29921e-15 0)
(1 -1.54555e-15 0)
(1 9.13941e-15 0)
(1 6.73274e-15 0)
(1 5.46918e-15 0)
(1 2.10283e-15 0)
(1 1.79148e-15 0)
(1 -2.06731e-15 0)
(1 -3.6311e-16 0)
(1 6.87363e-16 0)
(1 -2.35704e-15 0)
(1 -4.03567e-15 0)
(1 -4.37341e-15 0)
(1 1.22837e-17 0)
(1 4.14857e-15 0)
(1 2.09519e-15 0)
(1 3.48233e-15 0)
(1 1.88585e-15 0)
(1 6.559e-15 0)
(1 1.31079e-15 0)
(1 3.66934e-15 0)
(1 -2.41512e-15 0)
(1 -5.59549e-16 0)
(1 -6.50272e-15 0)
(1 -2.83124e-15 0)
(1 -3.23263e-15 0)
(1 2.67058e-16 0)
(1 9.60249e-16 0)
(1 -9.94728e-18 0)
(1 3.63598e-15 0)
(1 4.2779e-16 0)
(1 3.21436e-15 0)
(1 2.16142e-15 0)
(1 4.43905e-17 0)
(1 -2.2478e-15 0)
(1 -1.44538e-15 0)
(1 -3.8172e-15 0)
(1 -1.33118e-15 0)
(1 1.45136e-15 0)
(1 9.81979e-15 0)
(1 2.70544e-15 0)
(1 -1.10808e-15 0)
(1 2.90359e-15 0)
(1 2.94085e-15 0)
(1 -2.71383e-15 0)
(1 -2.56564e-15 0)
(1 -2.51935e-16 0)
(1 1.69982e-16 0)
(1 3.56038e-15 0)
(1 -2.96446e-15 0)
(1 -2.65169e-15 0)
(1 -2.42042e-16 0)
(1 -1.62505e-15 0)
(1 -5.19631e-15 0)
(1 -2.16732e-15 0)
(1 -2.01903e-15 0)
(1 -6.86243e-17 0)
(1 -1.48287e-15 0)
(1 3.38836e-15 0)
(1 3.822e-15 0)
(1 8.04619e-16 0)
(1 2.26273e-15 0)
(1 -9.53206e-16 0)
(1 -2.37063e-15 0)
(1 -3.26928e-15 0)
(1 -3.51336e-15 0)
(1 -3.96641e-15 0)
(1 4.45861e-15 0)
(1 4.13989e-15 0)
(1 2.89029e-15 0)
(1 8.24125e-17 0)
(1 -1.3453e-15 0)
(1 -1.00283e-15 0)
(1 -1.27058e-15 0)
(1 -4.69853e-15 0)
(1 -3.63895e-15 0)
(1 -4.26077e-16 0)
(1 4.28645e-15 0)
(1 6.06486e-16 0)
(1 -3.75204e-17 0)
(1 5.60813e-16 0)
(1 1.0121e-14 0)
(1 8.30417e-15 0)
(1 -7.09606e-15 0)
(1 -4.97717e-16 0)
(1 -3.3723e-15 0)
(1 -3.8706e-15 0)
(1 -3.75377e-15 0)
(1 6.64077e-16 0)
(1 -4.43217e-16 0)
(1 2.92405e-15 0)
(1 3.46592e-15 0)
(1 2.03761e-15 0)
(1 1.43896e-16 0)
(1 4.01769e-15 0)
(1 -3.92542e-15 0)
(1 -1.08323e-14 0)
(1 -1.059e-15 0)
(1 1.3866e-15 0)
(1 -4.94894e-15 0)
(1 -5.84163e-15 0)
(1 -5.70597e-15 0)
(1 3.5517e-15 0)
(1 6.58131e-15 0)
(1 5.86802e-15 0)
(1 1.07051e-15 0)
(1 -1.6604e-15 0)
(1 -5.75265e-15 0)
(1 -1.7501e-15 0)
(1 1.86365e-15 0)
(1 -1.09801e-15 0)
(1 -1.70304e-17 0)
(1 3.61971e-15 0)
(1 -2.61533e-15 0)
(1 2.8417e-15 0)
(1 -2.56966e-15 0)
(1 1.49629e-15 0)
(1 2.00923e-15 0)
(1 6.52045e-15 0)
(1 2.95883e-15 0)
(1 1.35254e-15 0)
(1 -1.35923e-15 0)
(1 -5.07257e-15 0)
(1 -1.06623e-14 0)
(1 -4.5013e-15 0)
(1 -5.89997e-15 0)
(1 3.3368e-15 0)
(1 4.79393e-15 0)
(1 5.83258e-15 0)
(1 -1.67789e-15 0)
(1 -2.62769e-15 0)
(1 -1.18354e-15 0)
(1 9.17372e-15 0)
(1 5.44666e-15 0)
(1 3.72669e-15 0)
(1 2.3855e-15 0)
(1 -1.08815e-15 0)
(1 3.1225e-15 0)
(1 -2.52198e-15 0)
(1 -3.54504e-15 0)
(1 -4.00016e-15 0)
(1 -1.26149e-15 0)
(1 2.0405e-15 0)
(1 4.52883e-15 0)
(1 -1.7008e-15 0)
(1 -2.47066e-15 0)
(1 -4.87025e-15 0)
(1 -3.60396e-15 0)
(1 2.14547e-15 0)
(1 -2.71762e-15 0)
(1 -6.17726e-17 0)
(1 3.01774e-15 0)
(1 1.23108e-15 0)
(1 -5.3612e-15 0)
(1 -1.04883e-15 0)
(1 3.98694e-15 0)
(1 2.01408e-15 0)
(1 3.25935e-15 0)
(1 6.80375e-15 0)
(1 5.49845e-15 0)
(1 -5.49702e-16 0)
(1 -2.60059e-15 0)
(1 1.30553e-15 0)
(1 -2.39765e-15 0)
(1 1.31993e-15 0)
(1 -3.46966e-16 0)
(1 -4.71738e-15 0)
(1 -4.75056e-15 0)
(1 -4.07778e-16 0)
(1 -1.17662e-15 0)
(1 -2.42275e-15 0)
(1 -4.03127e-15 0)
(1 3.25929e-16 0)
(1 -8.23499e-16 0)
(1 -8.12333e-15 0)
(1 -3.54147e-15 0)
(1 1.30468e-15 0)
(1 6.41978e-15 0)
(1 3.62809e-17 0)
(1 -9.94012e-17 0)
(1 2.43368e-15 0)
(1 6.87691e-16 0)
(1 1.91594e-16 0)
(1 4.76191e-16 0)
(1 1.64057e-15 0)
(1 1.48259e-15 0)
(1 3.9369e-16 0)
(1 4.21685e-15 0)
(1 -1.98457e-15 0)
(1 -1.92754e-15 0)
(1 2.86597e-15 0)
(1 4.34228e-15 0)
(1 4.15325e-15 0)
(1 3.90206e-15 0)
(1 2.23933e-15 0)
(1 -7.40926e-15 0)
(1 -5.49512e-15 0)
(1 -4.43546e-15 0)
(1 -3.4157e-15 0)
(1 5.39192e-15 0)
(1 -4.23642e-15 0)
(1 1.63928e-15 0)
(1 -1.48495e-15 0)
(1 6.67813e-15 0)
(1 7.327e-15 0)
(1 6.87962e-15 0)
(1 3.89223e-15 0)
(1 -4.00763e-15 0)
(1 -1.3911e-15 0)
(1 -2.56704e-16 0)
(1 2.84708e-15 0)
(1 -1.75111e-15 0)
(1 4.23184e-15 0)
(1 6.72382e-16 0)
(1 2.80176e-15 0)
(1 -2.56599e-15 0)
(1 -6.42451e-16 0)
(1 -4.0236e-15 0)
(1 -2.99261e-16 0)
(1 2.02884e-15 0)
(1 -1.6911e-15 0)
(1 -3.19004e-15 0)
(1 -8.05878e-15 0)
(1 -1.00784e-14 0)
(1 -6.81642e-15 0)
(1 -2.60597e-15 0)
(1 -1.84718e-15 0)
(1 8.99679e-16 0)
(1 8.4189e-15 0)
(1 4.76071e-15 0)
(1 3.7942e-15 0)
(1 3.11177e-15 0)
(1 9.57917e-15 0)
(1 3.8064e-15 0)
(1 4.83148e-15 0)
(1 -2.23902e-15 0)
(1 8.54088e-17 0)
(1 -2.27502e-15 0)
(1 -1.37554e-15 0)
(1 -7.16826e-15 0)
(1 1.27808e-15 0)
(1 2.03278e-16 0)
(1 1.58977e-15 0)
(1 -6.31704e-16 0)
(1 -2.36804e-15 0)
(1 -1.50507e-15 0)
(1 -3.88857e-15 0)
(1 1.31555e-15 0)
(1 8.21665e-17 0)
(1 3.51192e-15 0)
(1 3.1512e-15 0)
(1 3.32415e-15 0)
(1 2.22008e-15 0)
(1 -2.9768e-15 0)
(1 -4.39038e-15 0)
(1 -4.45789e-16 0)
(1 -4.88548e-16 0)
(1 1.52066e-15 0)
(1 4.34128e-15 0)
(1 -8.11941e-16 0)
(1 -4.79414e-15 0)
(1 -7.56982e-15 0)
(1 -2.0386e-15 0)
(1 -7.79522e-16 0)
(1 2.89395e-15 0)
(1 2.15139e-15 0)
(1 -1.76477e-15 0)
(1 -8.0122e-15 0)
(1 -2.65818e-15 0)
(1 1.50653e-17 0)
(1 -2.35907e-15 0)
(1 -2.35009e-15 0)
(1 -3.79207e-15 0)
(1 -9.07548e-16 0)
(1 -1.73477e-15 0)
(1 -2.86269e-15 0)
(1 -2.31249e-16 0)
(1 -3.74226e-16 0)
(1 4.43776e-16 0)
(1 8.1622e-16 0)
(1 2.78687e-15 0)
(1 -9.06465e-17 0)
(1 2.81621e-15 0)
(1 1.91224e-15 0)
(1 2.84467e-16 0)
(1 -1.43598e-15 0)
(1 1.21167e-16 0)
(1 2.64253e-15 0)
(1 3.8151e-17 0)
(1 -3.01926e-15 0)
(1 5.63466e-15 0)
(1 8.64289e-15 0)
(1 6.60224e-15 0)
(1 -8.63758e-17 0)
(1 4.16848e-15 0)
(1 -3.29925e-15 0)
(1 -2.22388e-15 0)
(1 -1.64073e-14 0)
(1 -1.23686e-14 0)
(1 5.46028e-15 0)
(1 -1.86471e-15 0)
(1 4.06291e-15 0)
(1 3.33609e-15 0)
(1 9.41237e-15 0)
(1 6.34757e-15 0)
(1 1.31664e-14 0)
(1 7.86848e-15 0)
(1 8.56078e-15 0)
(1 1.56753e-15 0)
(1 4.55198e-15 0)
(1 -3.79495e-15 0)
(1 -4.73845e-15 0)
(1 -4.46764e-15 0)
(1 2.79419e-15 0)
(1 4.28839e-15 0)
(1 2.43134e-15 0)
(1 2.99037e-15 0)
(1 -1.7069e-15 0)
(1 2.51228e-15 0)
(1 1.90248e-15 0)
(1 -1.71348e-15 0)
(1 -7.1676e-15 0)
(1 -6.03097e-15 0)
(1 -6.68546e-15 0)
(1 -9.03376e-15 0)
(1 2.23617e-16 0)
(1 5.04787e-16 0)
(1 1.88157e-15 0)
(1 7.87594e-15 0)
(1 1.16414e-14 0)
(1 5.18077e-15 0)
(1 3.85319e-15 0)
(1 1.73877e-15 0)
(1 1.10964e-15 0)
(1 7.232e-16 0)
(1 -1.1486e-15 0)
(1 -2.41273e-15 0)
(1 -4.74054e-15 0)
(1 -1.29085e-15 0)
(1 2.93895e-15 0)
(1 8.22568e-16 0)
(1 1.00744e-15 0)
(1 4.28431e-16 0)
(1 3.63289e-16 0)
(1 -5.21021e-15 0)
(1 -3.47345e-15 0)
(1 -6.17343e-15 0)
(1 3.74215e-15 0)
(1 -1.62458e-15 0)
(1 9.98976e-16 0)
(1 9.44947e-16 0)
(1 4.38245e-15 0)
(1 4.82377e-16 0)
(1 -1.77323e-15 0)
(1 -6.72757e-15 0)
(1 -4.26082e-15 0)
(1 1.05293e-15 0)
(1 3.00313e-15 0)
(1 1.69151e-15 0)
(1 1.45725e-15 0)
(1 2.20154e-16 0)
(1 -4.57398e-15 0)
(1 -6.23541e-16 0)
(1 -3.08057e-15 0)
(1 1.09296e-15 0)
(1 1.45744e-15 0)
(1 1.84699e-15 0)
(1 3.17606e-16 0)
(1 1.46897e-15 0)
(1 1.10701e-15 0)
(1 -2.32982e-15 0)
(1 -2.37611e-15 0)
(1 -3.48059e-15 0)
(1 -1.33798e-15 0)
(1 5.33473e-16 0)
(1 -1.66063e-15 0)
(1 -3.34883e-15 0)
(1 -7.14713e-15 0)
(1 -5.59074e-15 0)
(1 -2.22708e-16 0)
(1 4.0675e-15 0)
(1 -1.39241e-15 0)
(1 2.53917e-16 0)
(1 -4.96327e-15 0)
(1 -1.69782e-15 0)
(1 -1.29561e-15 0)
(1 -2.97452e-15 0)
(1 -2.67167e-15 0)
(1 6.40097e-15 0)
(1 5.84832e-15 0)
(1 8.72795e-15 0)
(1 7.80991e-15 0)
(1 2.46491e-15 0)
(1 -1.19079e-14 0)
(1 2.06346e-15 0)
(1 2.50339e-15 0)
(1 2.73782e-15 0)
(1 -1.71204e-15 0)
(1 -2.47582e-15 0)
(1 -9.43012e-15 0)
(1 -5.94416e-15 0)
(1 -7.45655e-15 0)
(1 1.00788e-14 0)
(1 1.47536e-14 0)
(1 1.19978e-14 0)
(1 8.16859e-15 0)
(1 4.55518e-15 0)
(1 6.38014e-15 0)
(1 3.15792e-15 0)
(1 -1.19775e-15 0)
(1 -1.15836e-15 0)
(1 2.07317e-15 0)
(1 -1.54087e-15 0)
(1 5.60763e-16 0)
(1 -6.75857e-15 0)
(1 -6.9414e-16 0)
(1 -3.12116e-15 0)
(1 -8.2739e-18 0)
(1 -2.80577e-15 0)
(1 -1.89967e-15 0)
(1 -5.18699e-15 0)
(1 -2.60446e-15 0)
(1 -6.41944e-15 0)
(1 1.24017e-15 0)
(1 -5.89947e-15 0)
(1 1.62456e-15 0)
(1 6.87459e-15 0)
(1 7.62499e-15 0)
(1 6.18572e-15 0)
(1 -1.37529e-15 0)
(1 4.14729e-15 0)
(1 1.20158e-15 0)
(1 -5.22552e-16 0)
(1 4.51703e-15 0)
(1 4.93102e-15 0)
(1 6.799e-15 0)
(1 4.98987e-17 0)
(1 -3.13564e-16 0)
(1 -7.2654e-15 0)
(1 -8.24526e-15 0)
(1 -5.89837e-15 0)
(1 -1.56291e-15 0)
(1 1.13607e-15 0)
(1 5.28984e-16 0)
(1 2.37282e-15 0)
(1 -2.9441e-15 0)
(1 -4.69255e-15 0)
(1 -7.24575e-16 0)
(1 4.16904e-16 0)
(1 1.45271e-15 0)
(1 3.00072e-15 0)
(1 5.91176e-15 0)
(1 2.73649e-15 0)
(1 1.65273e-15 0)
(1 -2.17904e-15 0)
(1 -8.77261e-16 0)
(1 1.92477e-15 0)
(1 1.12126e-14 0)
(1 4.44441e-15 0)
(1 -5.22887e-16 0)
(1 5.80721e-16 0)
(1 -2.2039e-15 0)
(1 2.27917e-15 0)
(1 -2.01217e-15 0)
(1 1.94294e-15 0)
(1 -5.10604e-15 0)
(1 -9.62276e-16 0)
(1 -4.98307e-15 0)
(1 -3.94577e-15 0)
(1 -7.2569e-16 0)
(1 -1.34797e-15 0)
(1 -6.96341e-15 0)
(1 -6.76085e-16 0)
(1 -1.0278e-15 0)
(1 -4.69813e-16 0)
(1 -3.54143e-16 0)
(1 -1.20553e-15 0)
(1 -4.28669e-15 0)
(1 -7.18467e-15 0)
(1 -7.97362e-16 0)
(1 -1.85827e-15 0)
(1 -4.80912e-15 0)
(1 -2.65952e-15 0)
(1 -2.62499e-15 0)
(1 4.57871e-15 0)
(1 -1.77885e-15 0)
(1 -8.92051e-16 0)
(1 8.11581e-16 0)
(1 2.60104e-15 0)
(1 1.19783e-14 0)
(1 7.0486e-15 0)
(1 4.62091e-15 0)
(1 -4.36415e-16 0)
(1 -6.70395e-16 0)
(1 2.13572e-15 0)
(1 -9.39915e-16 0)
(1 -2.04676e-15 0)
(1 -5.49146e-15 0)
(1 -4.84264e-15 0)
(1 -4.63195e-15 0)
(1 1.43662e-15 0)
(1 7.51239e-15 0)
(1 1.48013e-14 0)
(1 4.42117e-15 0)
(1 -2.33559e-15 0)
(1 4.72865e-15 0)
(1 7.93178e-15 0)
(1 -8.02198e-15 0)
(1 5.47495e-15 0)
(1 -3.15118e-15 0)
(1 -9.25881e-16 0)
(1 4.8105e-16 0)
(1 1.57391e-15 0)
(1 6.35314e-15 0)
(1 -6.17108e-15 0)
(1 8.39384e-15 0)
(1 4.3812e-15 0)
(1 5.17521e-15 0)
(1 -4.79432e-15 0)
(1 -4.83332e-15 0)
(1 -1.33873e-15 0)
(1 -2.23051e-15 0)
(1 -3.16569e-15 0)
(1 -2.63476e-15 0)
(1 5.18599e-16 0)
(1 -1.95335e-15 0)
(1 -2.27024e-15 0)
(1 2.35833e-15 0)
(1 6.35573e-15 0)
(1 6.1454e-15 0)
(1 1.00605e-14 0)
(1 2.75097e-15 0)
(1 1.23736e-15 0)
(1 4.68856e-15 0)
(1 4.30036e-15 0)
(1 1.10576e-16 0)
(1 1.84196e-15 0)
(1 3.25779e-15 0)
(1 -4.02418e-16 0)
(1 1.77302e-15 0)
(1 4.72256e-15 0)
(1 -2.95576e-15 0)
(1 -2.83249e-15 0)
(1 -5.59925e-15 0)
(1 1.28277e-15 0)
(1 1.75855e-15 0)
(1 1.07869e-14 0)
(1 1.02533e-14 0)
(1 9.49277e-15 0)
(1 1.05278e-14 0)
(1 6.52806e-15 0)
(1 4.8197e-15 0)
(1 3.79654e-15 0)
(1 -1.20082e-15 0)
(1 -7.98498e-15 0)
(1 -1.04987e-14 0)
(1 -3.96749e-15 0)
(1 6.96816e-15 0)
(1 7.80215e-15 0)
(1 2.95466e-15 0)
(1 -2.91839e-15 0)
(1 4.67599e-15 0)
(1 -3.33904e-15 0)
(1 -1.21287e-15 0)
(1 -3.98164e-15 0)
(1 -6.4761e-15 0)
(1 -1.1676e-15 0)
(1 -5.05761e-15 0)
(1 -4.44326e-15 0)
(1 -1.77028e-15 0)
(1 -5.03192e-15 0)
(1 -3.64789e-15 0)
(1 4.90107e-16 0)
(1 2.55952e-15 0)
(1 7.51333e-15 0)
(1 3.92944e-15 0)
(1 2.69599e-15 0)
(1 1.42181e-15 0)
(1 3.73579e-15 0)
(1 3.10631e-15 0)
(1 -3.4872e-15 0)
(1 -2.76586e-15 0)
(1 6.7668e-15 0)
(1 -2.14378e-15 0)
(1 4.89187e-15 0)
(1 -6.5479e-15 0)
(1 -7.1493e-15 0)
(1 -2.48488e-15 0)
(1 2.62445e-15 0)
(1 2.05262e-15 0)
(1 2.66566e-15 0)
(1 2.70089e-15 0)
(1 3.78317e-15 0)
(1 1.01471e-14 0)
(1 5.50239e-15 0)
(1 7.33339e-15 0)
(1 9.16188e-15 0)
(1 -5.48609e-15 0)
(1 2.63706e-15 0)
(1 3.15769e-15 0)
(1 4.74319e-15 0)
(1 -4.56217e-15 0)
(1 -3.66237e-16 0)
(1 1.21852e-15 0)
(1 -2.4531e-15 0)
(1 -6.92336e-16 0)
(1 7.62387e-16 0)
(1 -6.51666e-16 0)
(1 4.84817e-15 0)
(1 7.80973e-15 0)
(1 6.02981e-16 0)
(1 8.0663e-16 0)
(1 2.21186e-15 0)
(1 1.88456e-15 0)
(1 -8.8235e-17 0)
(1 3.47432e-15 0)
(1 1.34219e-14 0)
(1 5.9138e-15 0)
(1 -8.03768e-16 0)
(1 -1.0109e-14 0)
(1 -1.64354e-15 0)
(1 -6.269e-15 0)
(1 3.8097e-15 0)
(1 2.49778e-15 0)
(1 2.94411e-15 0)
(1 -3.79449e-15 0)
(1 -5.86712e-15 0)
(1 4.76422e-15 0)
(1 3.75814e-15 0)
(1 1.31363e-14 0)
(1 7.51889e-15 0)
(1 -1.08027e-15 0)
(1 7.90392e-16 0)
(1 4.31946e-15 0)
(1 1.66414e-15 0)
(1 -8.54966e-16 0)
(1 -4.11142e-15 0)
(1 -3.04686e-16 0)
(1 -5.684e-16 0)
(1 1.41878e-15 0)
(1 -1.43162e-15 0)
(1 -2.57157e-16 0)
(1 -1.68502e-15 0)
(1 -2.71792e-15 0)
(1 -2.84144e-15 0)
(1 -2.33872e-15 0)
(1 1.65146e-15 0)
(1 6.3098e-15 0)
(1 4.93025e-15 0)
(1 2.61085e-15 0)
(1 3.18366e-15 0)
(1 3.04965e-15 0)
(1 4.41639e-16 0)
(1 2.91649e-15 0)
(1 5.20816e-15 0)
(1 1.02938e-15 0)
(1 6.08587e-15 0)
(1 4.31962e-15 0)
(1 7.01543e-15 0)
(1 5.52082e-15 0)
(1 9.75089e-16 0)
(1 4.15935e-15 0)
(1 -1.49469e-15 0)
(1 -1.00184e-15 0)
(1 -2.20587e-15 0)
(1 3.52827e-16 0)
(1 2.953e-16 0)
(1 1.07745e-15 0)
(1 1.27077e-15 0)
(1 -5.14281e-15 0)
(1 -4.90552e-15 0)
(1 4.52886e-15 0)
(1 1.65272e-15 0)
(1 4.29714e-15 0)
(1 4.70917e-15 0)
(1 5.16768e-15 0)
(1 1.84326e-15 0)
(1 3.07175e-15 0)
(1 5.92432e-15 0)
(1 4.39862e-15 0)
(1 4.60652e-16 0)
(1 -2.97503e-15 0)
(1 2.01621e-15 0)
(1 -9.66878e-16 0)
(1 -2.92367e-15 0)
(1 -1.19507e-16 0)
(1 -6.82744e-15 0)
(1 -4.64108e-15 0)
(1 1.84413e-15 0)
(1 5.61202e-15 0)
(1 -2.62762e-15 0)
(1 -4.26363e-15 0)
(1 3.35778e-15 0)
(1 1.04527e-14 0)
(1 4.35992e-15 0)
(1 7.41588e-15 0)
(1 4.19249e-15 0)
(1 1.16897e-14 0)
(1 1.53997e-14 0)
(1 -3.47059e-15 0)
(1 -8.98999e-15 0)
(1 -9.00142e-15 0)
(1 -1.31588e-14 0)
(1 -1.00898e-15 0)
(1 6.52328e-15 0)
(1 -6.13913e-15 0)
(1 -6.06317e-15 0)
(1 4.55173e-15 0)
(1 -4.68138e-15 0)
(1 4.6823e-16 0)
(1 1.05646e-14 0)
(1 3.7441e-15 0)
(1 -1.35662e-15 0)
(1 -1.16534e-15 0)
(1 9.11452e-15 0)
(1 -1.8918e-15 0)
(1 1.62421e-15 0)
(1 -4.91282e-16 0)
(1 -3.7863e-15 0)
(1 -1.9806e-15 0)
(1 -6.83612e-16 0)
(1 5.44911e-16 0)
(1 3.47836e-15 0)
(1 7.7544e-15 0)
(1 5.05858e-15 0)
(1 3.9897e-15 0)
(1 4.43223e-15 0)
(1 6.60101e-15 0)
(1 -2.33462e-15 0)
(1 -4.242e-16 0)
(1 5.87415e-15 0)
(1 8.2155e-15 0)
(1 5.54157e-15 0)
(1 5.96109e-15 0)
(1 5.13039e-15 0)
(1 4.12905e-15 0)
(1 1.53884e-15 0)
(1 -9.49423e-15 0)
(1 2.62199e-15 0)
(1 -1.21668e-15 0)
(1 -5.60864e-15 0)
(1 1.36718e-15 0)
(1 4.31002e-15 0)
(1 4.5286e-15 0)
(1 -6.68783e-16 0)
(1 1.94211e-15 0)
(1 7.36372e-15 0)
(1 -1.48759e-15 0)
(1 4.37958e-15 0)
(1 3.36978e-15 0)
(1 1.10585e-14 0)
(1 1.06374e-14 0)
(1 5.05413e-15 0)
(1 3.89721e-15 0)
(1 5.41638e-15 0)
(1 9.84068e-15 0)
(1 1.03497e-14 0)
(1 2.32322e-15 0)
(1 -2.6951e-16 0)
(1 -3.37432e-15 0)
(1 -2.34107e-15 0)
(1 -3.94477e-15 0)
(1 -3.44481e-15 0)
(1 2.3949e-15 0)
(1 -4.73903e-15 0)
(1 -3.25763e-15 0)
(1 -2.65422e-15 0)
(1 3.42275e-15 0)
(1 -2.08872e-15 0)
(1 -9.33307e-15 0)
(1 -6.02197e-15 0)
(1 9.92275e-16 0)
(1 -1.51731e-15 0)
(1 4.63626e-15 0)
(1 6.20556e-15 0)
(1 6.09463e-15 0)
(1 1.022e-15 0)
(1 5.58905e-15 0)
(1 6.38884e-15 0)
(1 8.25824e-15 0)
(1 -1.6848e-15 0)
(1 3.71558e-15 0)
(1 -7.62577e-15 0)
(1 -6.42899e-15 0)
(1 -6.19922e-15 0)
(1 1.32439e-15 0)
(1 -2.51436e-15 0)
(1 -8.64332e-15 0)
(1 -6.07758e-15 0)
(1 2.8937e-15 0)
(1 2.95247e-15 0)
(1 1.07974e-14 0)
(1 1.22082e-14 0)
(1 1.16505e-14 0)
(1 6.9461e-15 0)
(1 8.61121e-15 0)
(1 5.49631e-15 0)
(1 1.12548e-14 0)
(1 -1.25103e-15 0)
(1 -5.92168e-15 0)
(1 -1.3475e-14 0)
(1 1.7822e-15 0)
(1 -8.87474e-15 0)
(1 -5.41382e-15 0)
(1 1.34939e-15 0)
(1 -1.9945e-15 0)
(1 -4.14999e-15 0)
(1 -8.0781e-15 0)
(1 -9.58121e-15 0)
(1 -3.35311e-15 0)
(1 3.99816e-15 0)
(1 5.4418e-15 0)
(1 4.15846e-15 0)
(1 4.28223e-15 0)
(1 7.60155e-15 0)
(1 7.38699e-15 0)
(1 -2.52413e-15 0)
(1 3.96248e-15 0)
(1 7.94875e-16 0)
(1 4.05628e-15 0)
(1 1.17575e-15 0)
(1 3.18003e-15 0)
(1 4.04983e-15 0)
(1 3.05068e-15 0)
(1 1.00497e-14 0)
(1 7.97705e-15 0)
(1 7.78307e-15 0)
(1 -1.39926e-15 0)
(1 -5.04633e-15 0)
(1 -5.6575e-15 0)
(1 3.64125e-15 0)
(1 6.35735e-15 0)
(1 7.0425e-15 0)
(1 5.42524e-15 0)
(1 7.34539e-15 0)
(1 3.77057e-15 0)
(1 9.06818e-15 0)
(1 -5.27144e-16 0)
(1 4.64233e-15 0)
(1 1.40621e-15 0)
(1 -9.42273e-16 0)
(1 2.74275e-15 0)
(1 -8.83915e-15 0)
(1 -8.00258e-15 0)
(1 -7.48412e-15 0)
(1 3.63931e-16 0)
(1 1.61641e-14 0)
(1 1.0338e-14 0)
(1 1.60717e-14 0)
(1 1.34908e-14 0)
(1 1.39281e-14 0)
(1 1.09399e-14 0)
(1 8.04631e-15 0)
(1 6.67888e-16 0)
(1 -7.03201e-15 0)
(1 3.26506e-15 0)
(1 6.4732e-15 0)
(1 4.46435e-15 0)
(1 -3.90284e-15 0)
(1 3.56977e-15 0)
(1 3.13191e-15 0)
(1 6.74021e-15 0)
(1 -2.36116e-15 0)
(1 5.31905e-15 0)
(1 -7.36764e-15 0)
(1 -4.76665e-15 0)
(1 -6.11284e-15 0)
(1 -9.84383e-16 0)
(1 -4.82043e-15 0)
(1 -3.14669e-15 0)
(1 -3.24394e-15 0)
(1 5.34987e-16 0)
(1 6.88316e-15 0)
(1 1.02699e-14 0)
(1 1.45639e-14 0)
(1 1.19897e-14 0)
(1 1.30111e-14 0)
(1 7.21566e-15 0)
(1 1.61571e-14 0)
(1 1.81636e-14 0)
(1 1.35208e-16 0)
(1 2.16526e-15 0)
(1 -1.16214e-15 0)
(1 -1.14205e-15 0)
(1 -2.96056e-15 0)
(1 -1.7502e-15 0)
(1 1.70551e-15 0)
(1 -9.79133e-16 0)
(1 -2.23198e-15 0)
(1 3.2064e-15 0)
(1 4.8481e-15 0)
(1 1.30423e-14 0)
(1 7.90552e-15 0)
(1 -1.63073e-16 0)
(1 -1.16995e-15 0)
(1 2.20235e-16 0)
(1 -1.25343e-15 0)
(1 6.80608e-15 0)
(1 -1.3223e-15 0)
(1 -2.12132e-15 0)
(1 -7.30717e-15 0)
(1 -8.43332e-15 0)
(1 -9.25826e-16 0)
(1 1.63625e-15 0)
(1 6.49921e-15 0)
(1 5.19033e-15 0)
(1 -1.38499e-15 0)
(1 -1.1557e-14 0)
(1 -3.65486e-15 0)
(1 -3.03031e-15 0)
(1 -4.45468e-15 0)
(1 6.98601e-15 0)
(1 4.62597e-15 0)
(1 6.94086e-15 0)
(1 3.90809e-16 0)
(1 3.34534e-15 0)
(1 -5.54813e-15 0)
(1 -2.12838e-15 0)
(1 -2.09425e-15 0)
(1 7.15919e-16 0)
(1 -2.88364e-15 0)
(1 4.51795e-15 0)
(1 5.10994e-15 0)
(1 4.58067e-15 0)
(1 8.47645e-15 0)
(1 7.50463e-15 0)
(1 2.35456e-15 0)
(1 -5.30299e-16 0)
(1 2.90381e-15 0)
(1 5.19285e-15 0)
(1 4.86953e-15 0)
(1 2.73633e-15 0)
(1 4.83439e-15 0)
(1 6.63475e-15 0)
(1 7.46239e-15 0)
(1 3.59069e-15 0)
(1 -4.88873e-17 0)
(1 3.0045e-15 0)
(1 -2.10612e-16 0)
(1 -2.53986e-15 0)
(1 3.73932e-15 0)
(1 8.23349e-15 0)
(1 1.10543e-14 0)
(1 1.23081e-15 0)
(1 4.30592e-15 0)
(1 3.03261e-15 0)
(1 5.94811e-15 0)
(1 9.6406e-15 0)
(1 1.20187e-14 0)
(1 9.58714e-15 0)
(1 7.25809e-15 0)
(1 4.15598e-15 0)
(1 7.13618e-15 0)
(1 5.8748e-16 0)
(1 -4.22846e-16 0)
(1 8.56343e-15 0)
(1 1.21206e-14 0)
(1 6.64273e-15 0)
(1 7.65381e-16 0)
(1 2.80093e-15 0)
(1 4.17395e-15 0)
(1 4.22924e-16 0)
(1 -7.37584e-16 0)
(1 -2.5837e-15 0)
(1 -4.41195e-15 0)
(1 -7.00935e-15 0)
(1 -3.40384e-15 0)
(1 -5.96457e-15 0)
(1 1.07727e-15 0)
(1 -2.97854e-15 0)
(1 5.27972e-15 0)
(1 -1.66911e-15 0)
(1 1.32946e-14 0)
(1 5.80372e-15 0)
(1 1.28446e-14 0)
(1 1.0078e-14 0)
(1 8.77992e-15 0)
(1 1.31856e-14 0)
(1 2.36279e-14 0)
(1 2.00173e-14 0)
(1 -4.0402e-17 0)
(1 -6.08979e-15 0)
(1 1.50219e-16 0)
(1 5.95365e-15 0)
(1 -6.15968e-15 0)
(1 6.35237e-16 0)
(1 -1.47589e-15 0)
(1 4.00178e-15 0)
(1 3.56869e-15 0)
(1 -2.75461e-15 0)
(1 -2.80005e-15 0)
(1 -1.40809e-15 0)
(1 1.48122e-15 0)
(1 7.56e-15 0)
(1 2.68254e-15 0)
(1 2.58189e-16 0)
(1 -7.35729e-15 0)
(1 -1.80209e-15 0)
(1 3.969e-15 0)
(1 -1.0206e-15 0)
(1 -4.0848e-15 0)
(1 -7.07118e-16 0)
(1 9.92105e-16 0)
(1 1.64265e-15 0)
(1 -4.17745e-15 0)
(1 5.11563e-15 0)
(1 8.79557e-15 0)
(1 1.49608e-15 0)
(1 3.20787e-15 0)
(1 -6.80516e-15 0)
(1 -7.77503e-15 0)
(1 -5.09466e-15 0)
(1 -2.13083e-15 0)
(1 1.50766e-15 0)
(1 7.88655e-15 0)
(1 2.46382e-15 0)
(1 2.67009e-15 0)
(1 -9.37752e-15 0)
(1 -3.10122e-15 0)
(1 9.59025e-19 0)
(1 5.39311e-15 0)
(1 2.20819e-15 0)
(1 3.72928e-15 0)
(1 -1.49402e-15 0)
(1 5.44103e-15 0)
(1 3.29045e-15 0)
(1 5.83585e-15 0)
(1 2.94431e-15 0)
(1 9.45984e-15 0)
(1 8.34069e-15 0)
(1 5.54688e-15 0)
(1 5.24827e-15 0)
(1 9.51781e-15 0)
(1 7.88465e-15 0)
(1 8.30359e-15 0)
(1 4.4474e-15 0)
(1 6.81218e-15 0)
(1 -1.46427e-15 0)
(1 9.08209e-15 0)
(1 -1.14969e-15 0)
(1 6.44145e-15 0)
(1 -3.46927e-15 0)
(1 8.86785e-15 0)
(1 3.48527e-15 0)
(1 6.95182e-15 0)
(1 8.99175e-15 0)
(1 8.58739e-16 0)
(1 3.73008e-15 0)
(1 4.64553e-15 0)
(1 6.49397e-15 0)
(1 9.98698e-15 0)
(1 3.84706e-15 0)
(1 3.56739e-15 0)
(1 -4.06735e-16 0)
(1 -1.21748e-15 0)
(1 4.25871e-16 0)
(1 9.27358e-15 0)
(1 6.78539e-15 0)
(1 4.22706e-15 0)
(1 -1.40968e-15 0)
(1 3.51725e-15 0)
(1 -9.55649e-16 0)
(1 9.57895e-15 0)
(1 -3.39043e-15 0)
(1 -3.74136e-17 0)
(1 -5.58553e-15 0)
(1 1.4502e-15 0)
(1 -1.37814e-15 0)
(1 1.07706e-15 0)
(1 -4.55525e-15 0)
(1 3.24558e-15 0)
(1 -2.1524e-15 0)
(1 3.91241e-15 0)
(1 4.52464e-15 0)
(1 5.64818e-15 0)
(1 7.70876e-15 0)
(1 7.58001e-15 0)
(1 1.7877e-14 0)
(1 1.50424e-14 0)
(1 1.30385e-14 0)
(1 -4.71457e-16 0)
(1 -4.39377e-15 0)
(1 3.44283e-15 0)
(1 3.26551e-15 0)
(1 -2.47953e-15 0)
(1 -4.81001e-15 0)
(1 -1.08644e-14 0)
(1 -1.63286e-16 0)
(1 4.1183e-15 0)
(1 4.91449e-15 0)
(1 7.04119e-15 0)
(1 -4.82015e-15 0)
(1 -9.90395e-15 0)
(1 -3.84645e-16 0)
(1 5.0105e-15 0)
(1 7.31341e-15 0)
(1 5.30405e-15 0)
(1 -4.35703e-15 0)
(1 -3.15901e-15 0)
(1 -5.22393e-15 0)
(1 -3.71967e-16 0)
(1 -1.62918e-16 0)
(1 2.41667e-15 0)
(1 -2.32004e-15 0)
(1 3.29758e-15 0)
(1 -8.24602e-16 0)
(1 2.93578e-15 0)
(1 4.0571e-15 0)
(1 6.71714e-15 0)
(1 5.73826e-16 0)
(1 7.8494e-17 0)
(1 -5.64316e-16 0)
(1 1.21563e-15 0)
(1 -4.09858e-15 0)
(1 -5.14657e-15 0)
(1 -6.98121e-15 0)
(1 7.18985e-15 0)
(1 -4.295e-15 0)
(1 1.80081e-16 0)
(1 -3.05676e-15 0)
(1 1.91295e-15 0)
(1 -3.2692e-15 0)
(1 -4.80678e-15 0)
(1 -5.14143e-15 0)
(1 7.10217e-15 0)
(1 1.08958e-14 0)
(1 1.42514e-14 0)
(1 1.11235e-14 0)
(1 6.3101e-15 0)
(1 1.00823e-14 0)
(1 3.32145e-15 0)
(1 5.36165e-15 0)
(1 6.4237e-15 0)
(1 5.99737e-15 0)
(1 7.41197e-15 0)
(1 -3.89452e-15 0)
(1 -3.85905e-15 0)
(1 -1.2737e-15 0)
(1 7.37117e-15 0)
(1 7.27614e-15 0)
(1 1.05833e-14 0)
(1 3.81725e-15 0)
(1 3.54608e-15 0)
(1 6.45374e-15 0)
(1 2.51408e-15 0)
(1 -3.39577e-15 0)
(1 2.2175e-16 0)
(1 3.58199e-15 0)
(1 4.74589e-15 0)
(1 3.76586e-15 0)
(1 9.3464e-15 0)
(1 7.51839e-15 0)
(1 3.61633e-15 0)
(1 3.74734e-15 0)
(1 7.05619e-15 0)
(1 2.6368e-15 0)
(1 7.70991e-15 0)
(1 -1.98122e-15 0)
(1 -2.3838e-15 0)
(1 6.8318e-16 0)
(1 6.96571e-15 0)
(1 7.04648e-15 0)
(1 4.66189e-15 0)
(1 1.42116e-15 0)
(1 7.5117e-16 0)
(1 -2.23142e-15 0)
(1 -2.36848e-15 0)
(1 -1.46851e-15 0)
(1 -3.9094e-15 0)
(1 9.10457e-15 0)
(1 3.93669e-15 0)
(1 8.30066e-15 0)
(1 2.86715e-15 0)
(1 5.49523e-15 0)
(1 1.83016e-15 0)
(1 9.26746e-15 0)
(1 1.65494e-14 0)
(1 1.41879e-14 0)
(1 4.52981e-15 0)
(1 7.91573e-15 0)
(1 5.44477e-15 0)
(1 -1.83166e-15 0)
(1 -1.01044e-15 0)
(1 1.5543e-15 0)
(1 3.62834e-15 0)
(1 -7.33224e-16 0)
(1 2.34465e-15 0)
(1 6.47045e-16 0)
(1 -4.96138e-15 0)
(1 6.05857e-15 0)
(1 1.36446e-14 0)
(1 1.63172e-14 0)
(1 -1.60038e-15 0)
(1 -8.08679e-15 0)
(1 -1.11157e-14 0)
(1 -1.23901e-14 0)
(1 -4.70281e-15 0)
(1 -8.39778e-15 0)
(1 -4.61448e-16 0)
(1 -4.65526e-15 0)
(1 9.46417e-15 0)
(1 2.87098e-15 0)
(1 7.34453e-15 0)
(1 -1.04736e-14 0)
(1 1.18933e-14 0)
(1 2.44377e-15 0)
(1 -1.08323e-14 0)
(1 -7.89753e-15 0)
(1 -8.98732e-15 0)
(1 1.18177e-15 0)
(1 3.67364e-15 0)
(1 6.04101e-15 0)
(1 -1.27026e-15 0)
(1 2.64931e-15 0)
(1 -2.34776e-15 0)
(1 4.4234e-15 0)
(1 2.27687e-15 0)
(1 2.73494e-15 0)
(1 -2.45326e-15 0)
(1 -1.22658e-15 0)
(1 -9.5122e-15 0)
(1 8.2613e-16 0)
(1 -1.38629e-14 0)
(1 -6.96786e-16 0)
(1 3.86891e-15 0)
(1 1.00208e-14 0)
(1 1.48529e-14 0)
(1 1.18933e-14 0)
(1 7.34789e-15 0)
(1 7.99384e-15 0)
(1 -1.65724e-15 0)
(1 8.52379e-15 0)
(1 1.03429e-14 0)
(1 1.23347e-14 0)
(1 4.17109e-15 0)
(1 8.23585e-15 0)
(1 -6.29421e-15 0)
(1 5.56533e-15 0)
(1 -8.25318e-15 0)
(1 -5.20479e-16 0)
(1 -2.91165e-15 0)
(1 9.63636e-15 0)
(1 1.09437e-14 0)
(1 1.643e-14 0)
(1 5.9118e-15 0)
(1 -1.16257e-16 0)
(1 1.06179e-15 0)
(1 -1.0397e-15 0)
(1 -3.9477e-15 0)
(1 -2.81269e-16 0)
(1 2.6324e-15 0)
(1 4.65597e-15 0)
(1 7.9862e-15 0)
(1 7.32879e-15 0)
(1 9.61737e-15 0)
(1 3.64728e-15 0)
(1 -1.84097e-15 0)
(1 -3.67751e-15 0)
(1 2.36263e-15 0)
(1 8.76658e-15 0)
(1 1.14893e-15 0)
(1 -1.15879e-15 0)
(1 -1.01903e-15 0)
(1 2.18448e-15 0)
(1 1.18385e-16 0)
(1 8.41917e-15 0)
(1 -1.99277e-15 0)
(1 8.79711e-16 0)
(1 9.15619e-16 0)
(1 4.49729e-15 0)
(1 3.45464e-15 0)
(1 3.4401e-15 0)
(1 1.40052e-15 0)
(1 -2.17787e-15 0)
(1 -1.01799e-15 0)
(1 1.02541e-14 0)
(1 1.01337e-14 0)
(1 8.05718e-15 0)
(1 2.07952e-15 0)
(1 4.4406e-15 0)
(1 -4.79763e-17 0)
(1 5.55032e-15 0)
(1 -9.64368e-15 0)
(1 3.47179e-15 0)
(1 1.00565e-15 0)
(1 1.11591e-14 0)
(1 4.12798e-15 0)
(1 2.62701e-15 0)
(1 -7.03986e-15 0)
(1 -8.34768e-15 0)
(1 1.3264e-15 0)
(1 9.26735e-15 0)
(1 6.27955e-15 0)
(1 5.14106e-15 0)
(1 -9.23556e-15 0)
(1 -1.33586e-14 0)
(1 -9.08427e-15 0)
(1 -8.60022e-15 0)
(1 -5.18386e-15 0)
(1 -7.19554e-15 0)
(1 2.42003e-16 0)
(1 3.64189e-15 0)
(1 1.32356e-14 0)
(1 2.7164e-15 0)
(1 3.86024e-15 0)
(1 2.7501e-15 0)
(1 -4.1952e-15 0)
(1 -5.84602e-15 0)
(1 -1.31874e-15 0)
(1 3.04137e-15 0)
(1 5.57693e-15 0)
(1 -3.50602e-15 0)
(1 -1.66963e-15 0)
(1 -1.46136e-15 0)
(1 4.19184e-15 0)
(1 1.72093e-15 0)
(1 3.81027e-15 0)
(1 -5.14581e-15 0)
(1 -1.05029e-16 0)
(1 -4.39255e-15 0)
(1 -3.39452e-15 0)
(1 -3.70392e-15 0)
(1 3.02691e-15 0)
(1 1.14907e-14 0)
(1 2.14236e-15 0)
(1 6.77427e-15 0)
(1 5.85616e-15 0)
(1 1.42322e-14 0)
(1 8.04903e-15 0)
(1 5.08463e-15 0)
(1 -2.77347e-15 0)
(1 -3.61967e-15 0)
(1 5.67192e-16 0)
(1 7.11978e-15 0)
(1 1.97628e-15 0)
(1 1.06731e-14 0)
(1 9.07287e-15 0)
(1 7.89774e-15 0)
(1 -2.12791e-17 0)
(1 -2.69032e-15 0)
(1 -4.28867e-15 0)
(1 2.17335e-17 0)
(1 -1.71159e-15 0)
(1 1.41821e-15 0)
(1 8.11774e-15 0)
(1 1.1133e-14 0)
(1 6.14349e-16 0)
(1 6.14663e-15 0)
(1 -2.96518e-16 0)
(1 7.12729e-15 0)
(1 7.16963e-15 0)
(1 8.58102e-15 0)
(1 7.72913e-15 0)
(1 9.0363e-15 0)
(1 8.0944e-15 0)
(1 3.33436e-15 0)
(1 6.06797e-16 0)
(1 9.79207e-15 0)
(1 9.35038e-15 0)
(1 5.54772e-15 0)
(1 -8.20098e-17 0)
(1 -2.72667e-15 0)
(1 -1.24457e-15 0)
(1 2.98311e-15 0)
(1 2.32366e-15 0)
(1 3.71415e-15 0)
(1 -1.34305e-15 0)
(1 4.68694e-15 0)
(1 1.03362e-14 0)
(1 3.5337e-15 0)
(1 2.11165e-15 0)
(1 9.65486e-16 0)
(1 4.82868e-16 0)
(1 3.36486e-15 0)
(1 1.99111e-15 0)
(1 9.44099e-15 0)
(1 5.75439e-15 0)
(1 1.24422e-14 0)
(1 6.37801e-15 0)
(1 -1.77708e-15 0)
(1 2.01943e-16 0)
(1 5.63734e-15 0)
(1 5.46999e-15 0)
(1 5.16053e-15 0)
(1 1.43125e-15 0)
(1 8.13261e-16 0)
(1 -6.37154e-15 0)
(1 -8.04727e-15 0)
(1 2.02703e-15 0)
(1 3.07692e-15 0)
(1 2.27558e-15 0)
(1 -6.80049e-15 0)
(1 -2.92106e-15 0)
(1 -7.66853e-15 0)
(1 -8.82608e-15 0)
(1 -7.03772e-15 0)
(1 -1.43348e-14 0)
(1 1.81192e-16 0)
(1 -1.1295e-15 0)
(1 4.75717e-15 0)
(1 -2.34946e-15 0)
(1 2.27279e-16 0)
(1 -4.2972e-15 0)
(1 2.16447e-14 0)
(1 1.13655e-14 0)
(1 4.2549e-15 0)
(1 -2.76946e-15 0)
(1 -2.7977e-16 0)
(1 -3.33171e-15 0)
(1 -2.23866e-15 0)
(1 -2.11331e-15 0)
(1 -1.42279e-17 0)
(1 -7.21548e-16 0)
(1 -8.46097e-15 0)
(1 4.20426e-15 0)
(1 -1.2005e-15 0)
(1 -1.09938e-15 0)
(1 -3.0724e-18 0)
(1 -3.13857e-16 0)
(1 -1.79201e-15 0)
(1 1.93424e-15 0)
(1 5.10657e-15 0)
(1 1.17114e-14 0)
(1 7.14445e-15 0)
(1 3.76102e-15 0)
(1 4.66603e-15 0)
(1 -7.49703e-16 0)
(1 9.40006e-15 0)
(1 -2.30341e-15 0)
(1 -3.84575e-15 0)
(1 -1.4264e-15 0)
(1 1.13372e-15 0)
(1 -1.83825e-15 0)
(1 5.42279e-15 0)
(1 6.73189e-15 0)
(1 3.4802e-15 0)
(1 1.09573e-14 0)
(1 8.67029e-15 0)
(1 9.88386e-15 0)
(1 6.02411e-15 0)
(1 6.34862e-15 0)
(1 -2.77099e-15 0)
(1 6.18466e-16 0)
(1 2.0975e-15 0)
(1 1.21881e-14 0)
(1 8.84481e-15 0)
(1 9.14108e-15 0)
(1 4.43576e-15 0)
(1 8.43662e-15 0)
(1 8.87685e-15 0)
(1 8.39684e-15 0)
(1 1.43824e-14 0)
(1 6.75729e-15 0)
(1 6.09994e-15 0)
(1 2.65427e-15 0)
(1 9.26209e-15 0)
(1 6.73159e-15 0)
(1 9.98055e-15 0)
(1 7.65523e-15 0)
(1 -2.43659e-15 0)
(1 1.12646e-15 0)
(1 2.23316e-15 0)
(1 -1.46441e-15 0)
(1 2.20794e-15 0)
(1 -2.75147e-15 0)
(1 -1.03938e-14 0)
(1 -4.34399e-15 0)
(1 -6.03003e-16 0)
(1 3.26206e-16 0)
(1 -1.02819e-15 0)
(1 4.89315e-15 0)
(1 2.29216e-15 0)
(1 1.108e-14 0)
(1 8.07565e-15 0)
(1 1.56482e-14 0)
(1 4.67224e-15 0)
(1 1.41442e-15 0)
(1 1.0574e-14 0)
(1 9.09138e-15 0)
(1 5.10695e-15 0)
(1 -9.99045e-16 0)
(1 -1.94574e-15 0)
(1 1.59088e-15 0)
(1 2.70994e-15 0)
(1 -1.38502e-16 0)
(1 6.46027e-15 0)
(1 7.71307e-15 0)
(1 3.27206e-15 0)
(1 2.84373e-15 0)
(1 3.90873e-15 0)
(1 -9.59939e-15 0)
(1 -1.55301e-14 0)
(1 -4.52371e-15 0)
(1 -1.07728e-14 0)
(1 -7.88487e-16 0)
(1 -6.95082e-16 0)
(1 -1.43729e-14 0)
(1 -1.31994e-15 0)
(1 -3.25822e-15 0)
(1 4.57725e-15 0)
(1 -2.3566e-16 0)
(1 6.36566e-15 0)
(1 -7.72285e-15 0)
(1 6.16748e-15 0)
(1 2.81919e-16 0)
(1 4.49188e-15 0)
(1 4.69404e-15 0)
(1 5.43319e-15 0)
(1 -5.38517e-15 0)
(1 -6.02488e-15 0)
(1 -1.74462e-15 0)
(1 -4.7724e-15 0)
(1 4.35499e-15 0)
(1 -8.88415e-16 0)
(1 2.919e-15 0)
(1 2.99408e-15 0)
(1 -5.01689e-15 0)
(1 3.2107e-15 0)
(1 -3.62877e-16 0)
(1 3.79198e-15 0)
(1 1.90052e-15 0)
(1 1.05005e-14 0)
(1 7.67471e-15 0)
(1 -1.89721e-15 0)
(1 -4.44715e-16 0)
(1 -1.08104e-14 0)
(1 6.50689e-15 0)
(1 1.28829e-15 0)
(1 2.56433e-15 0)
(1 -1.05128e-14 0)
(1 3.46195e-15 0)
(1 5.16665e-15 0)
(1 9.85788e-15 0)
(1 3.57173e-16 0)
(1 6.28072e-15 0)
(1 9.71213e-15 0)
(1 1.09016e-14 0)
(1 4.57374e-15 0)
(1 4.52239e-15 0)
(1 -5.04906e-15 0)
(1 3.23289e-16 0)
(1 -2.73182e-15 0)
(1 -2.05528e-15 0)
(1 -5.28751e-16 0)
(1 2.1665e-15 0)
(1 3.1528e-15 0)
(1 1.10554e-14 0)
(1 5.14468e-15 0)
(1 1.27512e-14 0)
(1 3.3691e-15 0)
(1 5.68147e-15 0)
(1 7.401e-15 0)
(1 3.68674e-15 0)
(1 9.33769e-15 0)
(1 4.14666e-15 0)
(1 1.80047e-15 0)
(1 9.87735e-16 0)
(1 1.09042e-15 0)
(1 4.85367e-15 0)
(1 5.32177e-15 0)
(1 2.37116e-15 0)
(1 2.4764e-16 0)
(1 6.85132e-15 0)
(1 2.8134e-15 0)
(1 -4.15444e-17 0)
(1 -6.91971e-15 0)
(1 -4.53675e-15 0)
(1 -3.5069e-15 0)
(1 -4.58441e-16 0)
(1 1.72524e-15 0)
(1 7.8257e-15 0)
(1 5.51546e-15 0)
(1 8.52498e-15 0)