/*--------------------------------*- C++ -*----------------------------------*\
| =========                 |                                                 |
| \\      /  F ield         | OpenFOAM: The Open Source CFD Toolbox           |
|  \\    /   O peration     | Version:  v2012                                 |
|   \\  /    A nd           | Website:  www.openfoam.com                      |
|    \\/     M anipulation  |                                                 |
\*---------------------------------------------------------------------------*/
FoamFile
{
    version     2.0;
    format      ascii;
    class       volScalarField;
    location    "0";
    object      p;
}
// * * * * * * * * * * * * * * * * * * * * * * * * * * * * * * * * * * * * * //

dimensions      [0 2 -2 0 0 0 0];


internalField   nonuniform List<scalar> 
4000
(
4.42899e-13
4.37498e-13
4.33487e-13
4.35089e-13
4.37487e-13
4.39053e-13
4.4433e-13
4.48665e-13
4.33543e-13
4.21155e-13
4.25569e-13
4.25347e-13
4.2118e-13
4.04169e-13
3.96528e-13
4.08554e-13
4.09432e-13
3.93696e-13
3.92385e-13
3.82305e-13
3.73551e-13
3.66929e-13
3.62793e-13
3.51641e-13
3.33908e-13
3.25755e-13
3.29891e-13
3.35292e-13
3.40351e-13
3.29251e-13
3.08915e-13
2.93448e-13
2.90941e-13
2.96282e-13
3.01482e-13
2.92412e-13
2.79779e-13
2.64425e-13
2.49463e-13
2.40516e-13
2.4226e-13
2.4465e-13
2.38908e-13
2.3455e-13
2.28735e-13
2.23281e-13
2.17798e-13
2.1219e-13
2.05228e-13
2.01706e-13
1.95354e-13
1.84259e-13
1.77622e-13
1.83543e-13
1.83966e-13
1.80114e-13
1.74165e-13
1.74877e-13
1.76555e-13
1.73252e-13
1.65963e-13
1.61562e-13
1.54882e-13
1.54126e-13
1.50266e-13
1.51738e-13
1.4273e-13
1.29439e-13
1.23025e-13
1.19388e-13
1.14117e-13
1.03108e-13
1.0176e-13
9.94716e-14
9.64892e-14
9.67127e-14
9.47299e-14
9.68596e-14
9.50522e-14
8.46647e-14
7.87869e-14
7.04443e-14
5.59449e-14
6.52567e-14
6.29611e-14
5.29673e-14
4.48951e-14
4.33383e-14
4.35647e-14
3.96553e-14
3.58026e-14
2.71592e-14
1.54246e-14
2.20073e-14
1.58037e-14
9.66221e-15
-2.91362e-15
-5.03012e-16
-1.85568e-15
-2.0475e-15
4.38092e-13
4.37949e-13
4.35102e-13
4.34866e-13
4.42183e-13
4.38293e-13
4.40745e-13
4.45875e-13
4.36868e-13
4.27007e-13
4.22283e-13
4.20767e-13
4.15947e-13
4.08725e-13
4.08017e-13
4.05822e-13
4.06504e-13
3.97044e-13
3.92218e-13
3.81707e-13
3.7641e-13
3.62998e-13
3.60748e-13
3.46504e-13
3.33614e-13
3.31789e-13
3.33241e-13
3.37774e-13
3.38225e-13
3.2257e-13
3.07693e-13
2.99459e-13
2.9256e-13
2.91495e-13
2.96136e-13
2.90006e-13
2.82415e-13
2.65285e-13
2.53504e-13
2.48947e-13
2.46433e-13
2.41475e-13
2.34286e-13
2.30604e-13
2.28643e-13
2.24032e-13
2.17168e-13
2.13333e-13
2.01634e-13
2.00564e-13
1.93707e-13
1.8568e-13
1.76035e-13
1.83168e-13
1.85028e-13
1.82867e-13
1.73696e-13
1.71944e-13
1.73331e-13
1.74644e-13
1.68497e-13
1.64781e-13
1.56368e-13
1.52012e-13
1.54169e-13
1.51145e-13
1.39676e-13
1.28814e-13
1.25729e-13
1.21558e-13
1.09704e-13
1.06685e-13
1.08466e-13
1.0117e-13
9.63015e-14
9.14961e-14
9.60515e-14
9.57397e-14
9.10731e-14
8.39668e-14
7.90481e-14
7.38022e-14
6.39066e-14
6.10533e-14
5.78032e-14
4.99901e-14
4.99603e-14
4.2412e-14
3.82324e-14
3.8842e-14
3.44726e-14
2.55941e-14
2.26312e-14
2.01546e-14
1.3344e-14
9.68446e-15
-2.03023e-15
-1.24753e-15
1.11578e-15
-4.96935e-16
4.37233e-13
4.38122e-13
4.35659e-13
4.33846e-13
4.4102e-13
4.40637e-13
4.41542e-13
4.40233e-13
4.32428e-13
4.24733e-13
4.27037e-13
4.25062e-13
4.15594e-13
4.07613e-13
4.11827e-13
4.03842e-13
4.01543e-13
3.96351e-13
3.89385e-13
3.82963e-13
3.72997e-13
3.64107e-13
3.5776e-13
3.4958e-13
3.396e-13
3.35715e-13
3.30502e-13
3.30173e-13
3.33092e-13
3.22113e-13
3.07723e-13
3.01773e-13
2.91063e-13
2.96155e-13
2.95994e-13
2.90863e-13
2.81197e-13
2.70914e-13
2.55509e-13
2.48884e-13
2.4823e-13
2.36231e-13
2.31673e-13
2.33954e-13
2.35147e-13
2.27327e-13
2.17195e-13
2.07301e-13
2.01518e-13
1.991e-13
1.90006e-13
1.90217e-13
1.82142e-13
1.82558e-13
1.80783e-13
1.82353e-13
1.74223e-13
1.74903e-13
1.76765e-13
1.78758e-13
1.65823e-13
1.58428e-13
1.53542e-13
1.55103e-13
1.55712e-13
1.52197e-13
1.40951e-13
1.32094e-13
1.22097e-13
1.1614e-13
1.09997e-13
1.06903e-13
1.04288e-13
1.0365e-13
1.02715e-13
9.34522e-14
9.90228e-14
9.61568e-14
8.95006e-14
8.51607e-14
8.15858e-14
7.52727e-14
5.77329e-14
5.72139e-14
5.85333e-14
5.28001e-14
4.96705e-14
4.46472e-14
3.81387e-14
3.78487e-14
3.44831e-14
2.19323e-14
2.23737e-14
1.68876e-14
1.39849e-14
1.21644e-14
-1.83561e-15
3.74168e-16
8.82345e-15
-3.5965e-16
4.39763e-13
4.38694e-13
4.37561e-13
4.30816e-13
4.40464e-13
4.39903e-13
4.38913e-13
4.36556e-13
4.31752e-13
4.30327e-13
4.2275e-13
4.16182e-13
4.1669e-13
4.14666e-13
4.14544e-13
4.09302e-13
3.97057e-13
3.92602e-13
3.89915e-13
3.84231e-13
3.7057e-13
3.61652e-13
3.54057e-13
3.43631e-13
3.40143e-13
3.35033e-13
3.2919e-13
3.31122e-13
3.32042e-13
3.22836e-13
3.1324e-13
3.05015e-13
2.95949e-13
2.92571e-13
2.89572e-13
2.91278e-13
2.83467e-13
2.70461e-13
2.55687e-13
2.4736e-13
2.48121e-13
2.40241e-13
2.35714e-13
2.29945e-13
2.26885e-13
2.24462e-13
2.19764e-13
2.0909e-13
2.021e-13
1.95899e-13
1.88696e-13
1.87902e-13
1.83384e-13
1.8409e-13
1.80597e-13
1.81447e-13
1.75862e-13
1.72862e-13
1.74384e-13
1.76915e-13
1.66227e-13
1.6032e-13
1.57338e-13
1.56766e-13
1.54567e-13
1.46819e-13
1.41587e-13
1.3375e-13
1.23894e-13
1.18459e-13
1.12547e-13
1.11209e-13
1.11026e-13
1.07258e-13
1.01443e-13
9.25825e-14
9.62459e-14
9.64749e-14
9.24159e-14
8.26301e-14
8.26047e-14
7.20311e-14
6.18186e-14
5.91708e-14
5.59044e-14
5.24392e-14
4.51038e-14
3.6085e-14
3.47463e-14
3.56055e-14
3.41959e-14
2.40964e-14
2.45073e-14
1.64967e-14
1.2832e-14
1.36385e-14
4.65391e-15
3.04872e-15
3.89465e-15
-1.73046e-15
4.42874e-13
4.42653e-13
4.35261e-13
4.32046e-13
4.28501e-13
4.4102e-13
4.42904e-13
4.34389e-13
4.30308e-13
4.27091e-13
4.24843e-13
4.20178e-13
4.07725e-13
4.07971e-13
4.13598e-13
4.12648e-13
4.04258e-13
3.9321e-13
3.78087e-13
3.80569e-13
3.74821e-13
3.69497e-13
3.47069e-13
3.4238e-13
3.42391e-13
3.32352e-13
3.37396e-13
3.35089e-13
3.31671e-13
3.22271e-13
3.14601e-13
3.02403e-13
2.90665e-13
2.961e-13
2.94516e-13
2.87773e-13
2.76485e-13
2.64001e-13
2.58102e-13
2.51343e-13
2.46224e-13
2.45223e-13
2.34466e-13
2.29035e-13
2.25958e-13
2.19765e-13
2.17545e-13
2.03066e-13
1.99074e-13
1.9773e-13
1.90211e-13
1.89639e-13
1.86777e-13
1.85563e-13
1.79579e-13
1.79315e-13
1.72366e-13
1.67449e-13
1.79106e-13
1.75871e-13
1.63737e-13
1.58663e-13
1.56472e-13
1.59027e-13
1.54988e-13
1.51171e-13
1.44748e-13
1.34852e-13
1.24115e-13
1.14076e-13
1.13542e-13
1.14593e-13
1.11959e-13
1.08876e-13
1.01571e-13
9.3097e-14
9.51994e-14
9.62828e-14
9.2844e-14
8.41349e-14
8.3946e-14
7.35111e-14
6.16439e-14
5.61063e-14
5.08223e-14
4.78584e-14
4.2246e-14
3.84312e-14
3.5545e-14
3.23412e-14
2.95058e-14
2.83713e-14
2.26738e-14
2.08513e-14
1.77535e-14
1.76787e-14
2.50937e-15
3.66038e-15
1.26941e-15
-4.15884e-15
4.38362e-13
4.4005e-13
4.35221e-13
4.2967e-13
4.3623e-13
4.45775e-13
4.41243e-13
4.32955e-13
4.28646e-13
4.19275e-13
4.19289e-13
4.18225e-13
4.21066e-13
4.12345e-13
4.1027e-13
4.13574e-13
4.03708e-13
3.94185e-13
3.8996e-13
3.8441e-13
3.74044e-13
3.63432e-13
3.44823e-13
3.37663e-13
3.4466e-13
3.38088e-13
3.30559e-13
3.32861e-13
3.26897e-13
3.22199e-13
3.13666e-13
3.08111e-13
2.9781e-13
2.95774e-13
2.96897e-13
2.85577e-13
2.73714e-13
2.61801e-13
2.53218e-13
2.51618e-13
2.50162e-13
2.44197e-13
2.33122e-13
2.28652e-13
2.29003e-13
2.17571e-13
2.07066e-13
2.01186e-13
1.99349e-13
1.99694e-13
1.90895e-13
1.90714e-13
1.85347e-13
1.85184e-13
1.76481e-13
1.76834e-13
1.74086e-13
1.68955e-13
1.74818e-13
1.72419e-13
1.68291e-13
1.61203e-13
1.56249e-13
1.55809e-13
1.52671e-13
1.51042e-13
1.4399e-13
1.36218e-13
1.26207e-13
1.23009e-13
1.18015e-13
1.14096e-13
1.12972e-13
1.10453e-13
1.0361e-13
1.00406e-13
9.53656e-14
9.22446e-14
9.04943e-14
8.63338e-14
8.42089e-14
7.27315e-14
5.78681e-14
5.462e-14
5.15511e-14
4.97558e-14
3.99545e-14
3.56238e-14
3.72943e-14
3.02986e-14
2.96253e-14
3.00485e-14
2.17741e-14
2.4481e-14
1.44634e-14
1.52274e-14
6.76658e-15
2.90336e-16
-1.73499e-15
-2.4251e-15
4.36804e-13
4.38142e-13
4.37167e-13
4.36398e-13
4.30221e-13
4.37085e-13
4.38539e-13
4.30996e-13
4.28458e-13
4.21023e-13
4.1622e-13
4.17268e-13
4.22451e-13
4.16787e-13
4.11514e-13
4.09425e-13
4.08847e-13
4.02078e-13
3.87222e-13
3.76333e-13
3.59168e-13
3.57694e-13
3.5045e-13
3.53095e-13
3.45925e-13
3.38646e-13
3.30349e-13
3.32132e-13
3.27953e-13
3.21523e-13
3.1542e-13
3.03952e-13
2.97641e-13
2.96154e-13
2.8598e-13
2.82629e-13
2.74209e-13
2.61388e-13
2.54088e-13
2.53876e-13
2.51103e-13
2.39499e-13
2.32641e-13
2.27152e-13
2.24335e-13
2.19824e-13
2.05713e-13
2.00089e-13
1.97917e-13
1.97569e-13
1.88594e-13
1.87443e-13
1.89055e-13
1.90879e-13
1.84258e-13
1.7536e-13
1.73422e-13
1.66499e-13
1.69325e-13
1.69556e-13
1.75134e-13
1.60365e-13
1.56421e-13
1.60413e-13
1.53463e-13
1.41692e-13
1.37189e-13
1.2868e-13
1.22136e-13
1.21884e-13
1.30179e-13
1.21739e-13
1.14739e-13
1.09547e-13
1.05381e-13
9.78131e-14
9.2878e-14
8.81039e-14
8.91715e-14
9.02221e-14
8.13603e-14
7.43382e-14
6.52167e-14
5.88614e-14
5.20588e-14
4.52792e-14
3.89754e-14
3.6876e-14
3.69784e-14
3.1647e-14
2.87582e-14
2.70531e-14
2.34336e-14
2.10298e-14
1.82188e-14
1.16269e-14
4.55015e-15
3.15403e-17
-3.58211e-15
-3.68855e-15
4.34519e-13
4.35134e-13
4.34695e-13
4.35193e-13
4.40316e-13
4.40964e-13
4.4096e-13
4.25964e-13
4.19341e-13
4.23997e-13
4.23095e-13
4.20494e-13
4.21007e-13
4.12759e-13
4.12985e-13
4.10851e-13
4.06867e-13
4.02116e-13
3.84773e-13
3.74332e-13
3.68669e-13
3.7049e-13
3.56721e-13
3.49006e-13
3.40491e-13
3.31671e-13
3.24317e-13
3.26933e-13
3.24501e-13
3.20618e-13
3.13647e-13
3.05438e-13
3.05434e-13
2.98391e-13
2.8403e-13
2.82673e-13
2.68219e-13
2.59374e-13
2.50398e-13
2.49674e-13
2.48374e-13
2.40457e-13
2.34607e-13
2.33242e-13
2.29399e-13
2.1603e-13
2.00666e-13
1.95131e-13
2.0154e-13
1.95843e-13
1.92456e-13
1.94825e-13
1.89965e-13
1.88445e-13
1.77096e-13
1.72774e-13
1.72707e-13
1.74826e-13
1.66443e-13
1.63888e-13
1.70185e-13
1.61781e-13
1.58969e-13
1.63027e-13
1.52782e-13
1.42613e-13
1.41872e-13
1.33494e-13
1.28246e-13
1.23685e-13
1.26727e-13
1.21593e-13
1.09619e-13
1.02723e-13
1.00521e-13
9.79889e-14
9.89166e-14
9.35972e-14
9.02701e-14
8.45075e-14
8.14824e-14
7.56914e-14
6.07629e-14
5.26719e-14
4.71506e-14
4.52218e-14
4.11533e-14
3.8841e-14
3.66533e-14
2.78157e-14
2.72685e-14
2.42912e-14
2.55125e-14
2.3413e-14
1.62186e-14
7.49138e-15
4.36679e-15
1.93596e-15
4.44303e-16
-5.12901e-15
4.35771e-13
4.40894e-13
4.42052e-13
4.34923e-13
4.28939e-13
4.34473e-13
4.36971e-13
4.26455e-13
4.20229e-13
4.21392e-13
4.21113e-13
4.13767e-13
4.13796e-13
4.14415e-13
4.16577e-13
4.16206e-13
4.04296e-13
4.02285e-13
3.93035e-13
3.74177e-13
3.69006e-13
3.59925e-13
3.52689e-13
3.47924e-13
3.39952e-13
3.36693e-13
3.23812e-13
3.2409e-13
3.22991e-13
3.20754e-13
3.17463e-13
3.0922e-13
2.96023e-13
2.859e-13
2.7981e-13
2.83196e-13
2.6608e-13
2.60265e-13
2.51661e-13
2.52458e-13
2.57542e-13
2.44961e-13
2.265e-13
2.27132e-13
2.23405e-13
2.14834e-13
2.03071e-13
2.01534e-13
1.9815e-13
1.94159e-13
1.94916e-13
1.94353e-13
1.8888e-13
1.86603e-13
1.82545e-13
1.82845e-13
1.81028e-13
1.7601e-13
1.65129e-13
1.65461e-13
1.62269e-13
1.57783e-13
1.58271e-13
1.60891e-13
1.49353e-13
1.42981e-13
1.43106e-13
1.35243e-13
1.2746e-13
1.24529e-13
1.22027e-13
1.18675e-13
1.10934e-13
1.08447e-13
9.98576e-14
9.5215e-14
9.96223e-14
9.84752e-14
9.01456e-14
8.34508e-14
7.95193e-14
7.20733e-14
6.18667e-14
5.2282e-14
4.82619e-14
4.8479e-14
4.22913e-14
3.89315e-14
3.19465e-14
2.83225e-14
2.90566e-14
2.34911e-14
2.25666e-14
2.02597e-14
1.41815e-14
5.12346e-15
3.23536e-15
3.7398e-15
-7.29573e-16
-3.53522e-15
4.38111e-13
4.37768e-13
4.41184e-13
4.34725e-13
4.27773e-13
4.33081e-13
4.33596e-13
4.264e-13
4.25352e-13
4.25489e-13
4.14519e-13
4.11729e-13
4.0814e-13
4.13265e-13
4.20855e-13
4.18671e-13
4.05483e-13
3.98506e-13
3.96916e-13
3.80173e-13
3.65566e-13
3.54762e-13
3.5282e-13
3.47084e-13
3.436e-13
3.35646e-13
3.26369e-13
3.23727e-13
3.18746e-13
3.21514e-13
3.17418e-13
3.07437e-13
2.9787e-13
2.83536e-13
2.74942e-13
2.79579e-13
2.7155e-13
2.6004e-13
2.57933e-13
2.53414e-13
2.45456e-13
2.3387e-13
2.30271e-13
2.29369e-13
2.27412e-13
2.22428e-13
2.12373e-13
1.9868e-13
2.00828e-13
1.97125e-13
1.9516e-13
1.90561e-13
1.85896e-13
1.87172e-13
1.85263e-13
1.83372e-13
1.79028e-13
1.75471e-13
1.64158e-13
1.6979e-13
1.68608e-13
1.64227e-13
1.6021e-13
1.57894e-13
1.49286e-13
1.40879e-13
1.31834e-13
1.27879e-13
1.2873e-13
1.28557e-13
1.32677e-13
1.16574e-13
1.13248e-13
1.06693e-13
9.86914e-14
9.65323e-14
1.02937e-13
9.494e-14
8.86223e-14
8.23787e-14
7.64307e-14
7.39926e-14
6.14838e-14
5.88008e-14
4.1569e-14
4.42364e-14
3.61297e-14
3.98478e-14
3.70886e-14
3.05562e-14
2.67215e-14
2.30157e-14
2.16492e-14
2.22025e-14
9.99412e-15
-1.20713e-15
-1.03801e-15
2.92215e-15
1.56281e-15
-3.41893e-15
4.36766e-13
4.36458e-13
4.38119e-13
4.37122e-13
4.33446e-13
4.34176e-13
4.32489e-13
4.23716e-13
4.24439e-13
4.25355e-13
4.14697e-13
4.06541e-13
4.06952e-13
4.14587e-13
4.15175e-13
4.17596e-13
4.06056e-13
3.98241e-13
3.93979e-13
3.82019e-13
3.71158e-13
3.53022e-13
3.45093e-13
3.38213e-13
3.39898e-13
3.33815e-13
3.25324e-13
3.2856e-13
3.27182e-13
3.17089e-13
3.1052e-13
3.03528e-13
2.95804e-13
2.85461e-13
2.829e-13
2.82825e-13
2.68078e-13
2.56121e-13
2.55926e-13
2.51839e-13
2.48601e-13
2.40531e-13
2.33935e-13
2.29742e-13
2.23982e-13
2.17316e-13
2.09734e-13
1.9852e-13
1.98757e-13
1.95691e-13
1.95225e-13
1.94049e-13
1.85166e-13
1.88237e-13
1.88123e-13
1.87217e-13
1.81376e-13
1.77131e-13
1.67927e-13
1.65183e-13
1.62881e-13
1.56989e-13
1.57539e-13
1.56372e-13
1.49306e-13
1.43094e-13
1.28913e-13
1.26532e-13
1.37329e-13
1.29255e-13
1.22403e-13
1.22421e-13
1.16557e-13
1.07728e-13
9.74458e-14
9.1017e-14
1.04237e-13
9.42532e-14
8.75257e-14
8.51185e-14
7.60908e-14
7.74339e-14
6.22224e-14
5.4437e-14
4.29338e-14
3.73968e-14
3.80496e-14
4.15313e-14
3.74721e-14
2.79934e-14
2.45261e-14
2.14151e-14
2.16356e-14
2.00414e-14
1.78847e-14
2.15385e-15
-6.54761e-15
-8.86076e-15
-4.91098e-15
-1.96719e-15
4.39461e-13
4.36359e-13
4.39581e-13
4.34691e-13
4.34577e-13
4.30915e-13
4.2904e-13
4.29454e-13
4.21293e-13
4.21333e-13
4.14317e-13
4.11506e-13
4.04225e-13
4.09585e-13
4.18339e-13
4.14569e-13
4.07104e-13
3.977e-13
3.89419e-13
3.75999e-13
3.65829e-13
3.58627e-13
3.55931e-13
3.41595e-13
3.43511e-13
3.32529e-13
3.24451e-13
3.26634e-13
3.24784e-13
3.10248e-13
3.10064e-13
3.04278e-13
3.02144e-13
2.83978e-13
2.78545e-13
2.78231e-13
2.69422e-13
2.61085e-13
2.56698e-13
2.52301e-13
2.44206e-13
2.34065e-13
2.34396e-13
2.2956e-13
2.22331e-13
2.19299e-13
2.0994e-13
2.03789e-13
1.94697e-13
1.94716e-13
1.95884e-13
1.96238e-13
1.90032e-13
1.92578e-13
1.89785e-13
1.84719e-13
1.79636e-13
1.75564e-13
1.68055e-13
1.66948e-13
1.62196e-13
1.66169e-13
1.60768e-13
1.54299e-13
1.42715e-13
1.43565e-13
1.35708e-13
1.26887e-13
1.27936e-13
1.20184e-13
1.19621e-13
1.26653e-13
1.1846e-13
1.09038e-13
1.01499e-13
9.64162e-14
9.62699e-14
8.86542e-14
8.77309e-14
8.88297e-14
7.92045e-14
7.53098e-14
6.18335e-14
5.55714e-14
4.26736e-14
3.88432e-14
3.67142e-14
3.91342e-14
3.11079e-14
2.73684e-14
2.44355e-14
2.14143e-14
2.2261e-14
1.73963e-14
1.39202e-14
3.63235e-15
-8.08737e-15
-1.25779e-14
-7.9536e-15
-1.04346e-15
4.36097e-13
4.35172e-13
4.28052e-13
4.39318e-13
4.37449e-13
4.31119e-13
4.25882e-13
4.25238e-13
4.23749e-13
4.19721e-13
4.10994e-13
4.06147e-13
4.12676e-13
4.13026e-13
4.10746e-13
4.15618e-13
4.11849e-13
4.00915e-13
3.88305e-13
3.76993e-13
3.5855e-13
3.49542e-13
3.45374e-13
3.44378e-13
3.4274e-13
3.292e-13
3.20747e-13
3.25848e-13
3.27414e-13
3.20932e-13
3.15238e-13
3.02537e-13
2.91587e-13
2.84014e-13
2.8372e-13
2.77767e-13
2.67578e-13
2.63681e-13
2.5524e-13
2.509e-13
2.42134e-13
2.38515e-13
2.40038e-13
2.30777e-13
2.19868e-13
2.08722e-13
2.04509e-13
2.00685e-13
2.02655e-13
2.02977e-13
1.99287e-13
1.93671e-13
1.90965e-13
1.85193e-13
1.90861e-13
1.94278e-13
1.84999e-13
1.69239e-13
1.61684e-13
1.6079e-13
1.63595e-13
1.62097e-13
1.5948e-13
1.55246e-13
1.45403e-13
1.49884e-13
1.3516e-13
1.27626e-13
1.23944e-13
1.19322e-13
1.19299e-13
1.25956e-13
1.23013e-13
1.13418e-13
1.06598e-13
9.84637e-14
9.51298e-14
8.90078e-14
8.39035e-14
8.3763e-14
7.62605e-14
7.27945e-14
6.51353e-14
6.01143e-14
4.44047e-14
3.79285e-14
3.61754e-14
3.5521e-14
2.57924e-14
2.59151e-14
2.79532e-14
2.1614e-14
1.91085e-14
1.64781e-14
2.07886e-14
3.16992e-15
-1.18502e-14
-1.46227e-14
-7.62495e-15
-1.36357e-15
4.33237e-13
4.40304e-13
4.35405e-13
4.33584e-13
4.371e-13
4.31105e-13
4.24614e-13
4.27876e-13
4.21684e-13
4.11095e-13
4.10389e-13
4.07134e-13
4.0868e-13
4.13243e-13
4.08854e-13
4.07107e-13
3.97829e-13
3.90177e-13
3.85289e-13
3.76493e-13
3.84393e-13
3.77207e-13
3.59318e-13
3.43288e-13
3.33867e-13
3.19822e-13
3.20962e-13
3.24048e-13
3.18883e-13
3.16276e-13
3.14016e-13
3.06176e-13
2.9435e-13
2.82826e-13
2.74864e-13
2.73216e-13
2.71214e-13
2.65501e-13
2.52582e-13
2.4828e-13
2.46431e-13
2.40338e-13
2.4241e-13
2.31085e-13
2.14424e-13
2.04874e-13
2.03901e-13
2.03497e-13
2.05087e-13
1.99779e-13
2.01959e-13
1.98311e-13
1.9521e-13
1.93124e-13
1.86364e-13
1.88162e-13
1.88476e-13
1.78754e-13
1.71637e-13
1.64608e-13
1.62978e-13
1.56977e-13
1.53847e-13
1.55026e-13
1.51957e-13
1.51359e-13
1.4153e-13
1.27457e-13
1.28537e-13
1.20396e-13
1.22564e-13
1.17738e-13
1.17418e-13
1.13139e-13
1.03279e-13
1.00964e-13
9.54867e-14
8.92865e-14
8.63598e-14
8.32622e-14
7.86104e-14
7.01263e-14
6.32609e-14
5.55664e-14
4.27355e-14
3.5924e-14
3.91582e-14
3.35189e-14
2.76635e-14
2.4371e-14
2.50672e-14
2.37461e-14
1.94837e-14
1.81916e-14
1.03823e-14
-7.08507e-16
-8.7676e-15
-1.01726e-14
-3.38777e-15
-3.6261e-15
4.34278e-13
4.36409e-13
4.36212e-13
4.2804e-13
4.34743e-13
4.32179e-13
4.21881e-13
4.21514e-13
4.12705e-13
4.14006e-13
4.16805e-13
4.10858e-13
4.08421e-13
4.0962e-13
4.01455e-13
4.05538e-13
4.04737e-13
4.01701e-13
3.92196e-13
3.79093e-13
3.63929e-13
3.54201e-13
3.45258e-13
3.35733e-13
3.38151e-13
3.30912e-13
3.26022e-13
3.19889e-13
3.16847e-13
3.15244e-13
3.19218e-13
3.09246e-13
2.97204e-13
2.80762e-13
2.67443e-13
2.69396e-13
2.70738e-13
2.68646e-13
2.56486e-13
2.55915e-13
2.46377e-13
2.36663e-13
2.34229e-13
2.26889e-13
2.18169e-13
2.0982e-13
2.12852e-13
2.0577e-13
2.04038e-13
2.07612e-13
2.05193e-13
1.954e-13
1.91784e-13
1.91319e-13
1.82209e-13
1.88608e-13
1.88657e-13
1.82169e-13
1.70296e-13
1.64085e-13
1.68187e-13
1.63267e-13
1.56438e-13
1.54683e-13
1.51851e-13
1.39588e-13
1.36234e-13
1.36854e-13
1.32565e-13
1.2051e-13
1.17937e-13
1.14566e-13
1.22065e-13
1.16003e-13
1.06495e-13
9.3609e-14
8.69783e-14
8.55607e-14
9.30089e-14
9.31879e-14
8.20014e-14
7.26998e-14
6.04565e-14
5.33534e-14
4.01828e-14
3.60573e-14
3.62204e-14
3.19503e-14
2.90071e-14
2.03246e-14
2.07023e-14
2.59471e-14
1.91715e-14
1.54722e-14
7.53574e-15
-3.71463e-15
-8.32426e-15
-8.52793e-15
-2.52495e-15
-2.20045e-15
4.30291e-13
4.38291e-13
4.33639e-13
4.27596e-13
4.26713e-13
4.32213e-13
4.30722e-13
4.25686e-13
4.07442e-13
4.07644e-13
4.08136e-13
4.06517e-13
4.07601e-13
4.12333e-13
4.07481e-13
4.03333e-13
3.95619e-13
3.92012e-13
3.80935e-13
3.80814e-13
3.79664e-13
3.67191e-13
3.48719e-13
3.43005e-13
3.36512e-13
3.29815e-13
3.27742e-13
3.18833e-13
3.17354e-13
3.16908e-13
3.15234e-13
3.0691e-13
2.95671e-13
2.81286e-13
2.66902e-13
2.64989e-13
2.74676e-13
2.72351e-13
2.5756e-13
2.52155e-13
2.42732e-13
2.32377e-13
2.351e-13
2.31691e-13
2.21049e-13
2.14623e-13
2.15098e-13
2.08044e-13
2.03366e-13
2.02776e-13
2.01583e-13
1.96681e-13
1.9766e-13
1.92651e-13
1.88575e-13
1.94717e-13
1.8359e-13
1.80991e-13
1.8015e-13
1.75921e-13
1.64731e-13
1.61981e-13
1.50685e-13
1.49953e-13
1.50856e-13
1.44258e-13
1.3802e-13
1.33135e-13
1.2812e-13
1.24947e-13
1.21388e-13
1.179e-13
1.21937e-13
1.18546e-13
1.01117e-13
9.27947e-14
9.10055e-14
8.83319e-14
8.59042e-14
8.43684e-14
8.24864e-14
7.59488e-14
6.07392e-14
4.98351e-14
5.06708e-14
3.51071e-14
2.8709e-14
3.42593e-14
3.04213e-14
2.04049e-14
1.92061e-14
1.94099e-14
1.30281e-14
1.04571e-14
6.44931e-15
-5.79579e-16
-7.07953e-15
-6.89174e-15
-9.61182e-15
-2.97791e-15
4.33571e-13
4.32725e-13
4.28581e-13
4.22548e-13
4.25369e-13
4.23216e-13
4.19601e-13
4.27665e-13
4.20659e-13
4.15752e-13
4.13277e-13
4.07529e-13
4.05259e-13
4.04513e-13
4.08613e-13
4.02519e-13
3.92461e-13
3.94705e-13
3.93571e-13
3.79329e-13
3.59972e-13
3.54504e-13
3.41691e-13
3.46805e-13
3.42174e-13
3.31932e-13
3.2582e-13
3.18386e-13
3.20479e-13
3.17797e-13
3.14852e-13
3.08117e-13
2.95256e-13
2.82191e-13
2.66652e-13
2.68387e-13
2.73975e-13
2.70348e-13
2.58572e-13
2.54734e-13
2.39342e-13
2.23684e-13
2.3412e-13
2.31337e-13
2.25236e-13
2.13378e-13
2.09501e-13
2.13604e-13
2.0574e-13
2.0425e-13
1.97997e-13
2.01817e-13
2.01663e-13
1.89986e-13
1.88671e-13
1.92105e-13
1.83879e-13
1.81659e-13
1.80235e-13
1.76641e-13
1.66595e-13
1.61003e-13
1.52377e-13
1.55589e-13
1.52523e-13
1.48018e-13
1.36708e-13
1.28816e-13
1.23636e-13
1.23181e-13
1.21075e-13
1.15006e-13
1.24112e-13
1.1855e-13
1.08947e-13
9.6348e-14
8.70357e-14
8.25832e-14
8.74989e-14
9.0525e-14
8.44815e-14
6.7702e-14
5.96688e-14
4.83495e-14
4.57721e-14
3.90439e-14
3.58e-14
3.12735e-14
2.45236e-14
2.16811e-14
2.01136e-14
1.6602e-14
9.12068e-15
7.4072e-15
5.04812e-15
-6.29798e-15
-5.93192e-15
-4.40508e-15
-7.99502e-15
-3.37173e-15
4.33439e-13
4.30797e-13
4.27587e-13
4.22603e-13
4.33907e-13
4.30571e-13
4.1946e-13
4.1732e-13
4.12264e-13
4.12841e-13
4.13787e-13
4.15074e-13
4.03644e-13
4.00557e-13
3.98083e-13
3.93354e-13
3.96188e-13
3.94247e-13
3.88671e-13
3.82503e-13
3.67584e-13
3.55428e-13
3.39767e-13
3.43399e-13
3.43963e-13
3.33856e-13
3.26647e-13
3.20095e-13
3.2437e-13
3.18579e-13
3.14366e-13
3.04021e-13
2.93003e-13
2.8596e-13
2.65859e-13
2.64986e-13
2.66466e-13
2.67035e-13
2.60998e-13
2.49962e-13
2.39075e-13
2.30481e-13
2.36893e-13
2.27358e-13
2.19524e-13
2.14944e-13
2.12032e-13
2.04946e-13
2.00117e-13
2.02722e-13
2.00417e-13
2.00876e-13
2.04101e-13
1.92449e-13
1.93872e-13
1.97869e-13
1.83148e-13
1.81079e-13
1.77572e-13
1.74115e-13
1.67694e-13
1.58749e-13
1.55648e-13
1.58909e-13
1.52895e-13
1.44367e-13
1.37911e-13
1.31707e-13
1.144e-13
1.1875e-13
1.23236e-13
1.16086e-13
1.24492e-13
1.1872e-13
1.09845e-13
9.73588e-14
9.02279e-14
8.25481e-14
9.31162e-14
9.13203e-14
8.26038e-14
7.17857e-14
6.07261e-14
4.42683e-14
4.12722e-14
3.23766e-14
3.05014e-14
3.58982e-14
3.22802e-14
1.806e-14
1.75906e-14
1.07603e-14
8.99306e-15
9.89418e-15
2.02102e-15
-7.52693e-15
-8.98167e-15
-6.53079e-15
-5.59741e-15
-1.03067e-15
4.26999e-13
4.30023e-13
4.27677e-13
4.24388e-13
4.29134e-13
4.21935e-13
4.1733e-13
4.14794e-13
4.16838e-13
4.20667e-13
4.15909e-13
4.1233e-13
4.0421e-13
4.04033e-13
3.98516e-13
3.91204e-13
3.94606e-13
3.90774e-13
3.81078e-13
3.76498e-13
3.63101e-13
3.52247e-13
3.53259e-13
3.46552e-13
3.3464e-13
3.32757e-13
3.29132e-13
3.20762e-13
3.22537e-13
3.1866e-13
3.13434e-13
3.01414e-13
2.89604e-13
2.85317e-13
2.69739e-13
2.69924e-13
2.73306e-13
2.6888e-13
2.55126e-13
2.38611e-13
2.39517e-13
2.34845e-13
2.30118e-13
2.2339e-13
2.17155e-13
2.10947e-13
2.13557e-13
2.19058e-13
2.1091e-13
1.96353e-13
1.94622e-13
2.01613e-13
2.06741e-13
1.89644e-13
1.97247e-13
1.9421e-13
1.84339e-13
1.80789e-13
1.8002e-13
1.73101e-13
1.71783e-13
1.67281e-13
1.62324e-13
1.52946e-13
1.48828e-13
1.46504e-13
1.36698e-13
1.27754e-13
1.19028e-13
1.18987e-13
1.18918e-13
1.21858e-13
1.23634e-13
1.20058e-13
1.10164e-13
9.85291e-14
8.97886e-14
8.83382e-14
8.54939e-14
8.06652e-14
8.90774e-14
7.85884e-14
5.87982e-14
4.59254e-14
4.18808e-14
3.06026e-14
3.0677e-14
2.96197e-14
2.69625e-14
1.73095e-14
1.74376e-14
1.2529e-14
5.25533e-15
9.00957e-15
-9.62186e-18
-5.89497e-15
-7.60255e-15
-8.86588e-15
-4.40357e-15
-1.19262e-15
4.30531e-13
4.28576e-13
4.25285e-13
4.21404e-13
4.22276e-13
4.18403e-13
4.11381e-13
4.14638e-13
4.17043e-13
4.20669e-13
4.12762e-13
4.10817e-13
4.09786e-13
4.032e-13
3.94858e-13
3.88641e-13
3.8652e-13
3.82427e-13
3.79469e-13
3.78515e-13
3.69346e-13
3.53908e-13
3.45841e-13
3.39588e-13
3.354e-13
3.3493e-13
3.31662e-13
3.23454e-13
3.24392e-13
3.15589e-13
3.11749e-13
3.00734e-13
2.93426e-13
2.82866e-13
2.76455e-13
2.70671e-13
2.67826e-13
2.72494e-13
2.55746e-13
2.3929e-13
2.34354e-13
2.28882e-13
2.32065e-13
2.27082e-13
2.19817e-13
2.11205e-13
2.1166e-13
2.1169e-13
2.08293e-13
1.99964e-13
2.01747e-13
1.99758e-13
2.0221e-13
1.94666e-13
1.96046e-13
1.88177e-13
1.83897e-13
1.83504e-13
1.82835e-13
1.78721e-13
1.72685e-13
1.70799e-13
1.63916e-13
1.54055e-13
1.49993e-13
1.45549e-13
1.3832e-13
1.25098e-13
1.1613e-13
1.19358e-13
1.20609e-13
1.30329e-13
1.21834e-13
1.15003e-13
1.07638e-13
9.90359e-14
8.91941e-14
8.85685e-14
9.14342e-14
8.85022e-14
8.24405e-14
7.23302e-14
6.11373e-14
4.68536e-14
4.82111e-14
3.18085e-14
2.76789e-14
2.22876e-14
2.55321e-14
1.52992e-14
1.51266e-14
1.40752e-14
1.00708e-14
3.8404e-15
-8.15698e-15
-5.3668e-15
-8.11063e-15
-1.1278e-14
-5.74084e-15
2.96941e-15
4.31254e-13
4.29882e-13
4.19125e-13
4.19164e-13
4.14148e-13
4.14263e-13
4.12566e-13
4.12858e-13
4.17755e-13
4.18919e-13
4.11277e-13
4.14726e-13
4.15587e-13
4.0559e-13
3.96229e-13
3.84102e-13
3.85607e-13
3.82158e-13
3.78609e-13
3.71396e-13
3.6555e-13
3.5133e-13
3.39922e-13
3.35809e-13
3.34344e-13
3.3698e-13
3.31371e-13
3.26234e-13
3.24792e-13
3.16839e-13
3.0431e-13
2.99229e-13
2.90795e-13
2.84187e-13
2.74955e-13
2.67301e-13
2.6642e-13
2.6724e-13
2.58908e-13
2.46078e-13
2.38229e-13
2.29319e-13
2.27175e-13
2.22343e-13
2.1594e-13
2.14815e-13
2.11881e-13
2.11838e-13
2.13787e-13
2.03932e-13
2.02091e-13
1.9856e-13
1.96769e-13
1.91065e-13
1.9741e-13
1.95594e-13
1.87729e-13
1.87465e-13
1.84975e-13
1.83573e-13
1.7168e-13
1.72639e-13
1.65322e-13
1.54281e-13
1.43016e-13
1.44364e-13
1.39648e-13
1.27933e-13
1.17063e-13
1.19116e-13
1.24407e-13
1.2558e-13
1.21125e-13
1.13565e-13
1.07971e-13
8.99134e-14
9.19451e-14
9.69452e-14
9.24703e-14
8.6166e-14
8.1776e-14
7.3886e-14
6.0753e-14
4.60901e-14
4.39474e-14
3.11702e-14
2.89131e-14
2.34445e-14
2.16564e-14
1.69514e-14
2.13555e-14
1.17805e-14
3.03305e-15
1.48935e-16
-5.1694e-15
-9.30518e-15
-1.26249e-14
-1.11399e-14
-5.03632e-15
3.46604e-15
4.2885e-13
4.2522e-13
4.1909e-13
4.16566e-13
4.17959e-13
4.12518e-13
4.05855e-13
4.10488e-13
4.16456e-13
4.18868e-13
4.15813e-13
4.10998e-13
4.11712e-13
4.03764e-13
3.9419e-13
3.83048e-13
3.824e-13
3.82993e-13
3.74342e-13
3.69711e-13
3.66586e-13
3.55685e-13
3.45233e-13
3.34131e-13
3.28565e-13
3.29061e-13
3.34168e-13
3.26482e-13
3.23277e-13
3.18039e-13
3.0784e-13
3.02288e-13
2.96517e-13
2.88254e-13
2.66496e-13
2.63642e-13
2.71474e-13
2.65358e-13
2.54001e-13
2.47386e-13
2.37587e-13
2.32119e-13
2.26216e-13
2.22009e-13
2.20112e-13
2.14777e-13
2.20363e-13
2.1112e-13
2.11574e-13
2.00512e-13
2.00247e-13
2.04728e-13
1.99987e-13
1.93485e-13
1.96067e-13
1.93377e-13
1.86667e-13
1.85666e-13
1.85078e-13
1.86901e-13
1.88004e-13
1.74608e-13
1.63425e-13
1.56115e-13
1.48874e-13
1.403e-13
1.39352e-13
1.29793e-13
1.15561e-13
1.12432e-13
1.21326e-13
1.29977e-13
1.2654e-13
1.13411e-13
1.04257e-13
9.11527e-14
9.56981e-14
9.2579e-14
8.82394e-14
8.83188e-14
8.28546e-14
7.23603e-14
6.03204e-14
4.98098e-14
4.44704e-14
3.03231e-14
2.72249e-14
2.57742e-14
2.62164e-14
1.02301e-14
1.02254e-14
1.02697e-14
3.4149e-15
-4.60813e-15
-5.11974e-15
-8.57864e-15
-1.72302e-14
-9.08585e-15
-6.3421e-15
7.21354e-16
4.24547e-13
4.25299e-13
4.21049e-13
4.13176e-13
4.13897e-13
4.12301e-13
4.10113e-13
4.06436e-13
4.13526e-13
4.17122e-13
4.17663e-13
4.11492e-13
4.06577e-13
3.99384e-13
3.92727e-13
3.88928e-13
3.88507e-13
3.9096e-13
3.78178e-13
3.64057e-13
3.56479e-13
3.40521e-13
3.38569e-13
3.36369e-13
3.35412e-13
3.30496e-13
3.28681e-13
3.23809e-13
3.11854e-13
3.19898e-13
3.15217e-13
2.9957e-13
2.91199e-13
2.87533e-13
2.82974e-13
2.67088e-13
2.68475e-13
2.61537e-13
2.54836e-13
2.48321e-13
2.35854e-13
2.32495e-13
2.19196e-13
2.18992e-13
2.28993e-13
2.17847e-13
2.15806e-13
2.09616e-13
2.11104e-13
2.06793e-13
2.0244e-13
2.04044e-13
2.01296e-13
1.98988e-13
2.01365e-13
1.8847e-13
1.76343e-13
1.85665e-13
1.91055e-13
1.89038e-13
1.79724e-13
1.73386e-13
1.70616e-13
1.66042e-13
1.48118e-13
1.36528e-13
1.31593e-13
1.22827e-13
1.21038e-13
1.2137e-13
1.22689e-13
1.22784e-13
1.23456e-13
1.102e-13
1.01936e-13
9.28387e-14
9.14092e-14
9.28457e-14
9.34583e-14
8.75286e-14
8.01221e-14
6.66778e-14
5.40978e-14
4.2755e-14
3.97118e-14
3.17349e-14
2.85864e-14
2.53647e-14
2.10815e-14
1.15484e-14
1.02798e-14
1.01421e-14
7.25909e-15
-4.69034e-17
-1.03987e-14
-1.52617e-14
-1.51662e-14
-1.37223e-14
-3.15126e-15
2.59373e-15
4.27579e-13
4.2212e-13
4.1656e-13
4.10043e-13
4.1784e-13
4.1345e-13
4.11817e-13
4.12135e-13
4.18332e-13
4.16824e-13
4.08646e-13
4.04008e-13
4.00251e-13
3.97965e-13
3.96339e-13
3.89861e-13
3.86275e-13
3.72948e-13
3.64384e-13
3.66269e-13
3.67339e-13
3.45186e-13
3.37489e-13
3.3797e-13
3.36349e-13
3.29185e-13
3.26552e-13
3.30304e-13
3.22219e-13
3.13464e-13
3.11566e-13
3.05298e-13
2.97005e-13
2.81459e-13
2.77419e-13
2.6994e-13
2.71563e-13
2.59294e-13
2.52248e-13
2.41696e-13
2.33067e-13
2.27145e-13
2.24987e-13
2.19518e-13
2.25426e-13
2.14871e-13
2.15646e-13
2.16351e-13
2.13368e-13
2.04202e-13
1.98976e-13
2.05575e-13
1.96732e-13
1.9595e-13
1.97892e-13
1.96725e-13
1.87011e-13
1.87094e-13
1.83635e-13
1.82042e-13
1.9215e-13
1.83903e-13
1.7054e-13
1.6396e-13
1.51132e-13
1.37728e-13
1.34005e-13
1.30628e-13
1.27987e-13
1.25413e-13
1.21e-13
1.19563e-13
1.16026e-13
1.04361e-13
1.03175e-13
9.3764e-14
9.16695e-14
9.13619e-14
8.7078e-14
8.26719e-14
8.12366e-14
6.64391e-14
5.58959e-14
4.68004e-14
3.66893e-14
3.04026e-14
2.55426e-14
2.31081e-14
1.59416e-14
1.05454e-14
5.97365e-15
9.18085e-15
3.46131e-15
-5.79729e-16
-6.84509e-15
-1.36617e-14
-1.97014e-14
-8.54885e-15
-1.30936e-16
2.65297e-15
4.25834e-13
4.20296e-13
4.21368e-13
4.14419e-13
4.10427e-13
4.11574e-13
4.1229e-13
4.03757e-13
4.13423e-13
4.17828e-13
4.1421e-13
4.06865e-13
3.9757e-13
4.02046e-13
3.97853e-13
3.91395e-13
3.83361e-13
3.78618e-13
3.70081e-13
3.61364e-13
3.54489e-13
3.41654e-13
3.33725e-13
3.39765e-13
3.36101e-13
3.29381e-13
3.27068e-13
3.20391e-13
3.13244e-13
3.14363e-13
3.1686e-13
3.07317e-13
2.96098e-13
2.86984e-13
2.79682e-13
2.74746e-13
2.64824e-13
2.58502e-13
2.50209e-13
2.43757e-13
2.40146e-13
2.30651e-13
2.21662e-13
2.21903e-13
2.17934e-13