/*--------------------------------*- C++ -*----------------------------------*\
| =========                 |                                                 |
| \\      /  F ield         | OpenFOAM: The Open Source CFD Toolbox           |
|  \\    /   O peration     | Version:  v2012                                 |
|   \\  /    A nd           | Website:  www.openfoam.com                      |
|    \\/     M anipulation  |                                                 |
\*---------------------------------------------------------------------------*/
FoamFile
{
    version     2.0;
    format      ascii;
    class       volScalarField;
    location    "0";
    object      pRec;
}
// * * * * * * * * * * * * * * * * * * * * * * * * * * * * * * * * * * * * * //

dimensions      [0 2 -2 0 0 0 0];


internalField   nonuniform List<scalar> 
4000
(
-7.11239e-13
-7.05092e-13
-7.06583e-13
-7.10275e-13
-7.07759e-13
-7.08164e-13
-7.07006e-13
-7.01656e-13
-6.9026e-13
-6.86789e-13
-6.88745e-13
-6.8285e-13
-6.69603e-13
-6.53722e-13
-6.39839e-13
-6.32753e-13
-6.27369e-13
-6.24756e-13
-6.17151e-13
-6.01643e-13
-5.90031e-13
-5.82914e-13
-5.77319e-13
-5.70967e-13
-5.60346e-13
-5.49412e-13
-5.4848e-13
-5.42265e-13
-5.35697e-13
-5.24877e-13
-5.07192e-13
-5.00653e-13
-4.99578e-13
-4.9878e-13
-4.94333e-13
-4.92696e-13
-4.83992e-13
-4.63689e-13
-4.45128e-13
-4.42302e-13
-4.44309e-13
-4.43423e-13
-4.44761e-13
-4.38153e-13
-4.25493e-13
-4.16527e-13
-4.07927e-13
-3.98404e-13
-3.88443e-13
-3.80355e-13
-3.70531e-13
-3.61872e-13
-3.54014e-13
-3.44354e-13
-3.35444e-13
-3.22035e-13
-3.15556e-13
-3.12434e-13
-3.09969e-13
-3.07183e-13
-2.98933e-13
-2.91409e-13
-2.80771e-13
-2.67954e-13
-2.59576e-13
-2.52202e-13
-2.48219e-13
-2.40426e-13
-2.29409e-13
-2.21485e-13
-2.14092e-13
-2.08149e-13
-1.95068e-13
-1.88151e-13
-1.8781e-13
-1.83642e-13
-1.8121e-13
-1.75181e-13
-1.66625e-13
-1.53591e-13
-1.40221e-13
-1.34748e-13
-1.26157e-13
-1.22314e-13
-1.19014e-13
-1.13285e-13
-1.03007e-13
-9.46127e-14
-9.07552e-14
-8.70107e-14
-8.04504e-14
-7.39883e-14
-6.60421e-14
-5.91412e-14
-5.00944e-14
-4.05196e-14
-3.14652e-14
-2.26381e-14
-1.31073e-14
-3.35241e-15
-7.07407e-13
-7.06323e-13
-7.09943e-13
-7.09848e-13
-7.10267e-13
-7.06585e-13
-7.03765e-13
-7.01105e-13
-6.95635e-13
-6.90851e-13
-6.84733e-13
-6.78505e-13
-6.67572e-13
-6.55081e-13
-6.43205e-13
-6.36166e-13
-6.30934e-13
-6.23234e-13
-6.13084e-13
-6.05157e-13
-5.94483e-13
-5.81887e-13
-5.73068e-13
-5.67206e-13
-5.5804e-13
-5.51908e-13
-5.49462e-13
-5.43158e-13
-5.34304e-13
-5.20522e-13
-5.1095e-13
-5.04425e-13
-4.98882e-13
-4.95377e-13
-4.91566e-13
-4.88635e-13
-4.81538e-13
-4.68203e-13
-4.52963e-13
-4.46982e-13
-4.44088e-13
-4.42255e-13
-4.40981e-13
-4.35817e-13
-4.27765e-13
-4.16906e-13
-4.06228e-13
-3.98225e-13
-3.88977e-13
-3.77582e-13
-3.69344e-13
-3.60944e-13
-3.53792e-13
-3.4537e-13
-3.36545e-13
-3.25092e-13
-3.15519e-13
-3.10537e-13
-3.08142e-13
-3.05654e-13
-3.01338e-13
-2.91409e-13
-2.82285e-13
-2.69877e-13
-2.6115e-13
-2.51651e-13
-2.45596e-13
-2.39585e-13
-2.3155e-13
-2.23068e-13
-2.14678e-13
-2.08032e-13
-2.00632e-13
-1.91312e-13
-1.87457e-13
-1.80362e-13
-1.79727e-13
-1.72782e-13
-1.63378e-13
-1.5132e-13
-1.41429e-13
-1.364e-13
-1.30284e-13
-1.25197e-13
-1.16492e-13
-1.10587e-13
-1.01141e-13
-9.24547e-14
-8.89215e-14
-8.54499e-14
-8.23857e-14
-7.6688e-14
-7.01682e-14
-5.73482e-14
-4.84596e-14
-4.12657e-14
-3.11403e-14
-2.28813e-14
-1.51351e-14
-5.29407e-15
-7.07141e-13
-7.06113e-13
-7.08429e-13
-7.12166e-13
-7.13268e-13
-7.08174e-13
-7.02916e-13
-6.99981e-13
-6.94046e-13
-6.905e-13
-6.84754e-13
-6.77721e-13
-6.67389e-13
-6.56321e-13
-6.45141e-13
-6.36529e-13
-6.3076e-13
-6.2296e-13
-6.13489e-13
-6.04171e-13
-5.92904e-13
-5.83563e-13
-5.74276e-13
-5.68062e-13
-5.60033e-13
-5.54415e-13
-5.50399e-13
-5.42485e-13
-5.31943e-13
-5.18233e-13
-5.1173e-13
-5.04877e-13
-4.99199e-13
-4.96759e-13
-4.93391e-13
-4.9008e-13
-4.8039e-13
-4.70215e-13
-4.58641e-13
-4.47221e-13
-4.43168e-13
-4.38578e-13
-4.39916e-13
-4.36565e-13
-4.29309e-13
-4.17501e-13
-4.05239e-13
-3.95247e-13
-3.89181e-13
-3.83965e-13
-3.72007e-13
-3.61059e-13
-3.51298e-13
-3.42109e-13
-3.34912e-13
-3.26364e-13
-3.15452e-13
-3.12834e-13
-3.13571e-13
-3.06775e-13
-2.98819e-13
-2.85991e-13
-2.77073e-13
-2.71391e-13
-2.64303e-13
-2.55754e-13
-2.48749e-13
-2.38111e-13
-2.30218e-13
-2.19992e-13
-2.11345e-13
-2.04955e-13
-1.9653e-13
-1.90902e-13
-1.87004e-13
-1.83245e-13
-1.78094e-13
-1.72894e-13
-1.62624e-13
-1.51842e-13
-1.4727e-13
-1.38841e-13
-1.26218e-13
-1.21068e-13
-1.15867e-13
-1.12944e-13
-1.06509e-13
-9.59199e-14
-8.88277e-14
-8.3135e-14
-7.9804e-14
-7.58169e-14
-6.81863e-14
-5.89724e-14
-4.75275e-14
-3.82069e-14
-3.16096e-14
-2.40347e-14
-1.91914e-14
-6.04975e-15
-7.08307e-13
-7.09768e-13
-7.10816e-13
-7.06694e-13
-7.11392e-13
-7.04814e-13
-7.02859e-13
-7.00223e-13
-6.98449e-13
-6.93206e-13
-6.82667e-13
-6.72484e-13
-6.63886e-13
-6.57631e-13
-6.54864e-13
-6.43805e-13
-6.28597e-13
-6.18982e-13
-6.12718e-13
-6.02945e-13
-5.93732e-13
-5.85926e-13
-5.7528e-13
-5.61454e-13
-5.54648e-13
-5.51848e-13
-5.49556e-13
-5.44291e-13
-5.31526e-13
-5.22765e-13
-5.16239e-13
-5.08795e-13
-5.0002e-13
-4.94408e-13
-4.88716e-13
-4.89391e-13
-4.80277e-13
-4.68534e-13
-4.59828e-13
-4.50378e-13
-4.4697e-13
-4.44555e-13
-4.39857e-13
-4.33412e-13
-4.23725e-13
-4.1313e-13
-4.04801e-13
-3.99809e-13
-3.91361e-13
-3.76768e-13
-3.66477e-13
-3.60032e-13
-3.53709e-13
-3.4657e-13
-3.34268e-13
-3.27231e-13
-3.17646e-13
-3.12939e-13
-3.12433e-13
-3.05799e-13
-2.96867e-13
-2.87038e-13
-2.81677e-13
-2.73998e-13
-2.63501e-13
-2.54994e-13
-2.47341e-13
-2.3811e-13
-2.31107e-13
-2.22566e-13
-2.15648e-13
-2.08662e-13
-1.99854e-13
-1.92455e-13
-1.86414e-13
-1.81651e-13
-1.78853e-13
-1.71834e-13
-1.6248e-13
-1.52697e-13
-1.45555e-13
-1.39899e-13
-1.28558e-13
-1.18807e-13
-1.14918e-13
-1.10141e-13
-1.03594e-13
-9.56648e-14
-8.80888e-14
-8.36724e-14
-8.19404e-14
-7.58596e-14
-7.02906e-14
-5.74419e-14
-4.79562e-14
-4.09567e-14
-3.32407e-14
-2.29894e-14
-1.54194e-14
-5.49471e-15
-7.09865e-13
-7.14648e-13
-7.10958e-13
-7.05715e-13
-7.01589e-13
-7.05466e-13
-7.05938e-13
-7.04519e-13
-6.97747e-13
-6.89766e-13
-6.80503e-13
-6.74338e-13
-6.63866e-13
-6.54686e-13
-6.5345e-13
-6.47579e-13
-6.35881e-13
-6.24366e-13
-6.10493e-13
-5.971e-13
-5.91989e-13
-5.84806e-13
-5.69656e-13
-5.59995e-13
-5.58012e-13
-5.55776e-13
-5.51558e-13
-5.42982e-13
-5.33936e-13
-5.2521e-13
-5.16911e-13
-5.10424e-13
-5.01503e-13
-4.95104e-13
-4.89522e-13
-4.88308e-13
-4.79346e-13
-4.68397e-13
-4.5679e-13
-4.49301e-13
-4.46855e-13
-4.47072e-13
-4.40226e-13
-4.31763e-13
-4.20909e-13
-4.11259e-13
-4.03283e-13
-3.97832e-13
-3.89944e-13
-3.80693e-13
-3.70376e-13
-3.63535e-13
-3.55101e-13
-3.45672e-13
-3.35359e-13
-3.25651e-13
-3.1899e-13
-3.14635e-13
-3.11175e-13
-3.03953e-13
-2.96271e-13
-2.87566e-13
-2.79053e-13
-2.72817e-13
-2.67601e-13
-2.61043e-13
-2.53081e-13
-2.39765e-13
-2.30642e-13
-2.20148e-13
-2.11573e-13
-2.05408e-13
-1.99312e-13
-1.9278e-13
-1.82779e-13
-1.78286e-13
-1.76629e-13
-1.7162e-13
-1.64845e-13
-1.54721e-13
-1.47116e-13
-1.42277e-13
-1.29148e-13
-1.18159e-13
-1.11256e-13
-1.06415e-13
-1.02766e-13
-9.88274e-14
-9.06769e-14
-8.54083e-14
-8.07481e-14
-7.55267e-14
-6.78217e-14
-6.18286e-14
-5.33271e-14
-4.16165e-14
-3.36311e-14
-2.55205e-14
-1.4943e-14
-3.04598e-15
-7.0612e-13
-7.16585e-13
-7.12958e-13
-7.0276e-13
-7.06651e-13
-7.11225e-13
-7.09474e-13
-7.0501e-13
-6.95942e-13
-6.81301e-13
-6.77361e-13
-6.72863e-13
-6.68622e-13
-6.57377e-13
-6.50185e-13
-6.498e-13
-6.38167e-13
-6.27145e-13
-6.15263e-13
-6.00456e-13
-5.89798e-13
-5.7784e-13
-5.59608e-13
-5.56428e-13
-5.58474e-13
-5.59292e-13
-5.5141e-13
-5.41273e-13
-5.32768e-13
-5.28899e-13
-5.1908e-13
-5.09498e-13
-5.00686e-13
-4.98608e-13
-4.96027e-13
-4.87148e-13
-4.76829e-13
-4.67824e-13
-4.57082e-13
-4.5209e-13
-4.50023e-13
-4.47695e-13
-4.38499e-13
-4.32444e-13
-4.21295e-13
-4.08758e-13
-3.98528e-13
-3.93608e-13
-3.90019e-13
-3.80535e-13
-3.73244e-13
-3.62823e-13
-3.53179e-13
-3.43369e-13
-3.33653e-13
-3.27562e-13
-3.21989e-13
-3.16258e-13
-3.0925e-13
-3.05025e-13
-2.98291e-13
-2.88424e-13
-2.80346e-13
-2.72918e-13
-2.6343e-13
-2.59152e-13
-2.54175e-13
-2.41013e-13
-2.31729e-13
-2.23566e-13
-2.13311e-13
-2.05814e-13
-2.00876e-13
-1.95071e-13
-1.85025e-13
-1.81019e-13
-1.7516e-13
-1.68126e-13
-1.63379e-13
-1.57473e-13
-1.50047e-13
-1.41329e-13
-1.26697e-13
-1.1551e-13
-1.11665e-13
-1.092e-13
-1.0549e-13
-9.64533e-14
-8.97787e-14
-8.5135e-14
-8.02359e-14
-7.56807e-14
-6.59181e-14
-6.13621e-14
-5.39126e-14
-4.56919e-14
-3.36516e-14
-2.40268e-14
-1.26602e-14
-1.76014e-15
-7.12078e-13
-7.13283e-13
-7.12596e-13
-7.08784e-13
-7.06113e-13
-7.0979e-13
-7.09252e-13
-7.02498e-13
-6.93996e-13
-6.81731e-13
-6.72938e-13
-6.71793e-13
-6.7099e-13
-6.58951e-13
-6.51574e-13
-6.46219e-13
-6.41882e-13
-6.32974e-13
-6.12327e-13
-5.9284e-13
-5.75777e-13
-5.72666e-13
-5.70848e-13
-5.68862e-13
-5.64915e-13
-5.58883e-13
-5.47408e-13
-5.38227e-13
-5.35084e-13
-5.30903e-13
-5.2241e-13
-5.0865e-13
-5.02159e-13
-4.94016e-13
-4.89554e-13
-4.8437e-13
-4.78742e-13
-4.73956e-13
-4.63086e-13
-4.50742e-13
-4.4414e-13
-4.40401e-13
-4.3592e-13
-4.32107e-13
-4.25615e-13
-4.14754e-13
-4.02659e-13
-3.92861e-13
-3.86568e-13
-3.79911e-13
-3.72233e-13
-3.66042e-13
-3.56788e-13
-3.43893e-13
-3.35194e-13
-3.28806e-13
-3.22016e-13
-3.10014e-13
-3.04957e-13
-3.04081e-13
-3.02735e-13
-2.94575e-13
-2.82961e-13
-2.70117e-13
-2.6025e-13
-2.55744e-13
-2.48286e-13
-2.36148e-13
-2.26637e-13
-2.22538e-13
-2.22608e-13
-2.13062e-13
-2.02423e-13
-1.98108e-13
-1.88019e-13
-1.78718e-13
-1.71043e-13
-1.64426e-13
-1.5886e-13
-1.55114e-13
-1.48942e-13
-1.40328e-13
-1.32302e-13
-1.2276e-13
-1.16244e-13
-1.05094e-13
-1.02041e-13
-9.88689e-14
-8.99965e-14
-8.70256e-14
-7.97509e-14
-7.0765e-14
-6.64308e-14
-6.11496e-14
-5.46932e-14
-4.28549e-14
-3.34318e-14
-2.26276e-14
-1.24941e-14
-4.16823e-15
-7.1188e-13
-7.1185e-13
-7.09392e-13
-7.09542e-13
-7.12767e-13
-7.12511e-13
-7.09459e-13
-7.02304e-13
-6.92565e-13
-6.8356e-13
-6.7665e-13
-6.70436e-13
-6.67006e-13
-6.56789e-13
-6.52581e-13
-6.45859e-13
-6.42128e-13
-6.31853e-13
-6.06674e-13
-5.93876e-13
-5.89883e-13
-5.83275e-13
-5.72782e-13
-5.62616e-13
-5.59748e-13
-5.54041e-13
-5.4216e-13
-5.35708e-13
-5.31759e-13
-5.28246e-13
-5.21881e-13
-5.14808e-13
-5.08756e-13
-5.02667e-13
-4.9066e-13
-4.83106e-13
-4.77467e-13
-4.68444e-13
-4.60021e-13
-4.50778e-13
-4.45809e-13
-4.45204e-13
-4.37863e-13
-4.36583e-13
-4.30407e-13
-4.1482e-13
-3.98828e-13
-3.83824e-13
-3.82585e-13
-3.82281e-13
-3.78303e-13
-3.69816e-13
-3.56323e-13
-3.43959e-13
-3.32495e-13
-3.25728e-13
-3.22401e-13
-3.16733e-13
-3.07358e-13
-3.00507e-13
-2.97603e-13
-2.91024e-13
-2.83875e-13
-2.75325e-13
-2.66689e-13
-2.58008e-13
-2.48761e-13
-2.38011e-13
-2.32276e-13
-2.25312e-13
-2.17927e-13
-2.12952e-13
-2.01577e-13
-1.88814e-13
-1.8131e-13
-1.79634e-13
-1.75511e-13
-1.6847e-13
-1.64446e-13
-1.58575e-13
-1.49495e-13
-1.40508e-13
-1.28188e-13
-1.16963e-13
-1.07981e-13
-1.04442e-13
-1.03135e-13
-1.00518e-13
-9.25952e-14
-8.5388e-14
-7.71156e-14
-7.1566e-14
-6.70529e-14
-6.23657e-14
-5.28805e-14
-4.11294e-14
-3.37606e-14
-2.41218e-14
-1.38581e-14
-2.3681e-15
-7.14662e-13
-7.17155e-13
-7.11292e-13
-7.03585e-13
-7.08686e-13
-7.12136e-13
-7.12085e-13
-7.0411e-13
-6.8965e-13
-6.85532e-13
-6.77728e-13
-6.66689e-13
-6.60615e-13
-6.5634e-13
-6.53054e-13
-6.48669e-13
-6.41648e-13
-6.29476e-13
-6.10293e-13
-5.96556e-13
-5.89076e-13
-5.80921e-13
-5.77418e-13
-5.69461e-13
-5.59208e-13
-5.493e-13
-5.41331e-13
-5.36044e-13
-5.35205e-13
-5.29727e-13
-5.22898e-13
-5.15957e-13
-5.05282e-13
-4.94894e-13
-4.91337e-13
-4.84189e-13
-4.76019e-13
-4.66876e-13
-4.6303e-13
-4.58363e-13
-4.52723e-13
-4.46115e-13
-4.34522e-13
-4.25519e-13
-4.22666e-13
-4.15458e-13
-4.04907e-13
-3.93285e-13
-3.8649e-13
-3.79164e-13
-3.72e-13
-3.6472e-13
-3.5458e-13
-3.45421e-13
-3.37257e-13
-3.32221e-13
-3.23296e-13
-3.16195e-13
-3.08077e-13
-3.01207e-13
-2.94471e-13
-2.88164e-13
-2.82262e-13
-2.74513e-13
-2.63648e-13
-2.53201e-13
-2.46832e-13
-2.38642e-13
-2.30918e-13
-2.23827e-13
-2.16552e-13
-2.1348e-13
-2.06062e-13
-1.9572e-13
-1.84308e-13
-1.80188e-13
-1.76355e-13
-1.7008e-13
-1.64959e-13
-1.55557e-13
-1.50248e-13
-1.414e-13
-1.2832e-13
-1.18586e-13
-1.10412e-13
-1.05415e-13
-1.0421e-13
-9.96526e-14
-9.17413e-14
-8.54199e-14
-7.69608e-14
-7.0541e-14
-6.38602e-14
-5.94222e-14
-5.25271e-14
-4.27584e-14
-3.20508e-14
-1.97234e-14
-9.20099e-15
7.74652e-16
-7.15074e-13
-7.14358e-13
-7.13911e-13
-7.10943e-13
-7.07151e-13
-7.10112e-13
-7.08043e-13
-7.07162e-13
-6.9811e-13
-6.81342e-13
-6.72101e-13
-6.63706e-13
-6.62064e-13
-6.60114e-13
-6.55354e-13
-6.48038e-13
-6.36975e-13
-6.29161e-13
-6.17834e-13
-6.01581e-13
-5.89305e-13
-5.76144e-13
-5.71061e-13
-5.63546e-13
-5.61311e-13
-5.55201e-13
-5.44397e-13
-5.38807e-13
-5.33557e-13
-5.29123e-13
-5.24506e-13
-5.16042e-13
-5.05212e-13
-4.9345e-13
-4.87439e-13
-4.82559e-13
-4.78858e-13
-4.68846e-13
-4.63242e-13
-4.58765e-13
-4.49371e-13
-4.40093e-13
-4.33973e-13
-4.26252e-13
-4.25646e-13
-4.19954e-13
-4.09226e-13
-3.95818e-13
-3.86519e-13
-3.76052e-13
-3.68432e-13
-3.6468e-13
-3.56462e-13
-3.4679e-13
-3.37902e-13
-3.29906e-13
-3.22488e-13
-3.14852e-13
-3.0776e-13
-3.0384e-13
-2.98659e-13
-2.9527e-13
-2.8762e-13
-2.75027e-13
-2.60014e-13
-2.45241e-13
-2.38277e-13
-2.33496e-13
-2.30196e-13
-2.30643e-13
-2.24738e-13
-2.16484e-13
-2.09297e-13
-1.98702e-13
-1.85872e-13
-1.77043e-13
-1.72679e-13
-1.67528e-13
-1.63855e-13
-1.5568e-13
-1.4981e-13
-1.41723e-13
-1.30119e-13
-1.22324e-13
-1.13405e-13
-1.04622e-13
-1.00253e-13
-9.42454e-14
-9.09493e-14
-8.67801e-14
-7.5405e-14
-6.61558e-14
-6.11091e-14
-5.63387e-14
-4.72152e-14
-3.7722e-14
-2.84679e-14
-1.75396e-14
-6.82686e-15
-3.81282e-16
-7.1341e-13
-7.12818e-13
-7.12048e-13
-7.13421e-13
-7.1361e-13
-7.07897e-13
-7.05741e-13
-7.03184e-13
-6.96281e-13
-6.8742e-13
-6.72772e-13
-6.62034e-13
-6.61324e-13
-6.60776e-13
-6.55374e-13
-6.5101e-13
-6.37421e-13
-6.27731e-13
-6.18161e-13
-6.03334e-13
-5.94051e-13
-5.77521e-13
-5.66716e-13
-5.62368e-13
-5.55778e-13
-5.50998e-13
-5.46986e-13
-5.40461e-13
-5.35597e-13
-5.31641e-13
-5.23434e-13
-5.14509e-13
-5.04166e-13
-4.96136e-13
-4.91937e-13
-4.83742e-13
-4.75491e-13
-4.69256e-13
-4.65654e-13
-4.57301e-13
-4.48857e-13
-4.39613e-13
-4.33544e-13
-4.31911e-13
-4.29791e-13
-4.18457e-13
-4.05389e-13
-3.91868e-13
-3.82829e-13
-3.74411e-13
-3.71815e-13
-3.66646e-13
-3.56062e-13
-3.46236e-13
-3.35974e-13
-3.32694e-13
-3.25543e-13
-3.17413e-13
-3.06609e-13
-2.97035e-13
-2.95626e-13
-2.87655e-13
-2.81874e-13
-2.77991e-13
-2.63116e-13
-2.48143e-13
-2.3782e-13
-2.32828e-13
-2.30667e-13
-2.34315e-13
-2.26583e-13
-2.19303e-13
-2.10144e-13
-1.9755e-13
-1.83465e-13
-1.72848e-13
-1.72385e-13
-1.72048e-13
-1.68267e-13
-1.59866e-13
-1.54327e-13
-1.45725e-13
-1.29857e-13
-1.18416e-13
-1.07514e-13
-9.86795e-14
-1.01458e-13
-9.99855e-14
-9.18971e-14
-8.50094e-14
-7.39541e-14
-6.78363e-14
-6.0736e-14
-5.43184e-14
-4.91347e-14
-4.13974e-14
-2.42067e-14
-7.85475e-15
1.24404e-15
-2.04859e-15
-7.17348e-13
-7.15313e-13
-7.12962e-13
-7.14946e-13
-7.13116e-13
-7.07687e-13
-7.07612e-13
-7.04118e-13
-6.95685e-13
-6.84005e-13
-6.74897e-13
-6.661e-13
-6.57591e-13
-6.53943e-13
-6.49979e-13
-6.43604e-13
-6.41023e-13
-6.34005e-13
-6.20811e-13
-6.05119e-13
-5.93393e-13
-5.8534e-13
-5.73409e-13
-5.62998e-13
-5.55622e-13
-5.45073e-13
-5.41791e-13
-5.39408e-13
-5.37003e-13
-5.34629e-13
-5.26132e-13
-5.15431e-13
-5.02753e-13
-4.9367e-13
-4.87936e-13
-4.81148e-13
-4.77987e-13
-4.72343e-13
-4.68372e-13
-4.55422e-13
-4.47406e-13
-4.36513e-13
-4.33234e-13
-4.34583e-13
-4.27843e-13
-4.18663e-13
-4.06402e-13
-3.96022e-13
-3.84369e-13
-3.74379e-13
-3.66947e-13
-3.64438e-13
-3.55725e-13
-3.49377e-13
-3.41812e-13
-3.31739e-13
-3.23288e-13
-3.14487e-13
-3.06342e-13
-3.0052e-13
-2.98479e-13
-2.98692e-13
-2.87046e-13
-2.74314e-13
-2.54465e-13
-2.4398e-13
-2.37586e-13
-2.35136e-13
-2.30951e-13
-2.29614e-13
-2.23413e-13
-2.23115e-13
-2.1729e-13
-2.04249e-13
-1.81909e-13
-1.64673e-13
-1.64771e-13
-1.73447e-13
-1.71271e-13
-1.60113e-13
-1.53439e-13
-1.42609e-13
-1.32502e-13
-1.23802e-13
-1.13362e-13
-1.02036e-13
-9.5831e-14
-9.52953e-14
-9.01915e-14
-8.35606e-14
-7.17929e-14
-6.71341e-14
-6.09101e-14
-5.31448e-14
-4.43707e-14
-3.687e-14
-2.31139e-14
-1.01676e-14
-3.24945e-15
-2.37649e-15
-7.14762e-13
-7.14779e-13
-7.06537e-13
-7.16465e-13
-7.15967e-13
-7.12612e-13
-7.06221e-13
-6.98647e-13
-6.90265e-13
-6.78463e-13
-6.7286e-13
-6.67216e-13
-6.66564e-13
-6.59887e-13
-6.52497e-13
-6.47927e-13
-6.43086e-13
-6.35809e-13
-6.22091e-13
-6.06749e-13
-5.85926e-13
-5.71114e-13
-5.6098e-13
-5.60184e-13
-5.56155e-13
-5.52164e-13
-5.45433e-13
-5.39105e-13
-5.38035e-13
-5.36726e-13
-5.29745e-13
-5.16392e-13
-5.06081e-13
-4.98024e-13
-4.93907e-13
-4.83361e-13
-4.74237e-13
-4.70375e-13
-4.6529e-13
-4.55282e-13
-4.4622e-13
-4.42623e-13
-4.38633e-13
-4.3325e-13
-4.21301e-13
-4.12157e-13
-4.04574e-13
-3.96588e-13
-3.86868e-13
-3.78545e-13
-3.71581e-13
-3.64741e-13
-3.52644e-13
-3.41827e-13
-3.4419e-13
-3.4366e-13
-3.26955e-13
-3.11379e-13
-3.02757e-13
-2.93855e-13
-2.91534e-13
-2.88889e-13
-2.88055e-13
-2.77538e-13
-2.59669e-13
-2.50032e-13
-2.36613e-13
-2.35932e-13
-2.31199e-13
-2.26311e-13
-2.23231e-13
-2.24182e-13
-2.18475e-13
-2.01757e-13
-1.83407e-13
-1.7031e-13
-1.68801e-13
-1.7386e-13
-1.67544e-13
-1.58037e-13
-1.51304e-13
-1.43614e-13
-1.3558e-13
-1.25918e-13
-1.14827e-13
-1.01425e-13
-9.61059e-14
-9.62086e-14
-8.93903e-14
-8.21344e-14
-7.27276e-14
-6.5373e-14
-5.70127e-14
-5.08242e-14
-4.49558e-14
-3.57401e-14
-2.35621e-14
-1.23685e-14
-2.23653e-15
4.25239e-17
-7.11419e-13
-7.22475e-13
-7.17169e-13
-7.11704e-13
-7.12101e-13
-7.10262e-13
-7.05292e-13
-7.03401e-13
-6.90898e-13
-6.7461e-13
-6.70579e-13
-6.68025e-13
-6.64976e-13
-6.60269e-13
-6.5529e-13
-6.44574e-13
-6.33333e-13
-6.24587e-13
-6.18613e-13
-6.09762e-13
-6.03025e-13
-5.93823e-13
-5.79459e-13
-5.59868e-13
-5.45183e-13
-5.3923e-13
-5.42408e-13
-5.41301e-13
-5.40166e-13
-5.3945e-13
-5.3083e-13
-5.17545e-13
-5.01257e-13
-4.88593e-13
-4.83947e-13
-4.8013e-13
-4.81086e-13
-4.77906e-13
-4.66389e-13
-4.60592e-13
-4.49542e-13
-4.3884e-13
-4.37155e-13
-4.29877e-13
-4.20839e-13
-4.11656e-13
-4.01597e-13
-3.96526e-13
-3.91589e-13
-3.81502e-13
-3.73023e-13
-3.62496e-13
-3.54312e-13
-3.46663e-13
-3.41726e-13
-3.36066e-13
-3.28959e-13
-3.22137e-13
-3.13044e-13
-3.00347e-13
-2.90179e-13
-2.83259e-13
-2.77466e-13
-2.71578e-13
-2.60933e-13
-2.52421e-13
-2.43808e-13
-2.37281e-13
-2.31851e-13
-2.29815e-13
-2.25941e-13
-2.18219e-13
-2.10818e-13
-2.03121e-13
-1.87174e-13
-1.75968e-13
-1.69646e-13
-1.68377e-13
-1.67421e-13
-1.58973e-13
-1.52131e-13
-1.41364e-13
-1.34551e-13
-1.24976e-13
-1.13616e-13
-1.03716e-13
-9.89195e-14
-9.47887e-14
-9.0852e-14
-8.16933e-14
-7.30419e-14
-6.90536e-14
-6.00779e-14
-5.04772e-14
-3.94345e-14
-3.03019e-14
-2.20894e-14
-1.39673e-14
-5.40163e-15
-3.95338e-16
-7.11187e-13
-7.15544e-13
-7.18405e-13
-7.14112e-13
-7.1285e-13
-7.13943e-13
-7.01936e-13
-6.88833e-13
-6.82693e-13
-6.8016e-13
-6.77159e-13
-6.72302e-13
-6.6877e-13
-6.62226e-13
-6.55745e-13
-6.46257e-13
-6.39265e-13
-6.34737e-13
-6.24353e-13
-6.09399e-13
-5.87522e-13
-5.7341e-13
-5.6286e-13
-5.51911e-13
-5.53794e-13
-5.53114e-13
-5.48768e-13
-5.42089e-13
-5.38381e-13
-5.38128e-13
-5.32806e-13
-5.21314e-13
-5.07771e-13
-4.89113e-13
-4.78208e-13
-4.80842e-13
-4.83106e-13
-4.79698e-13
-4.73197e-13
-4.62026e-13
-4.4665e-13
-4.37853e-13
-4.30572e-13
-4.25233e-13
-4.19936e-13
-4.14958e-13
-4.07784e-13
-3.98234e-13
-3.91276e-13
-3.89119e-13
-3.79483e-13
-3.5987e-13
-3.48259e-13
-3.40926e-13
-3.34906e-13
-3.33924e-13
-3.30227e-13
-3.21337e-13
-3.07936e-13
-2.96686e-13
-2.93613e-13
-2.89005e-13
-2.81321e-13
-2.71522e-13
-2.5638e-13
-2.45373e-13
-2.41952e-13
-2.40281e-13
-2.36113e-13
-2.29646e-13
-2.22483e-13
-2.18421e-13
-2.11645e-13
-2.0177e-13
-1.88934e-13
-1.72479e-13
-1.68638e-13
-1.67353e-13
-1.69429e-13
-1.65038e-13
-1.56187e-13
-1.45706e-13
-1.34574e-13
-1.22046e-13
-1.11476e-13
-1.04456e-13
-1.0022e-13
-9.46773e-14
-8.81984e-14
-8.09009e-14
-7.36339e-14
-6.774e-14
-6.11341e-14
-5.06013e-14
-3.85893e-14
-2.71721e-14
-1.75531e-14
-1.10185e-14
-3.32026e-15
-1.3807e-15
-7.09765e-13
-7.20152e-13
-7.21257e-13
-7.14977e-13
-7.11414e-13
-7.17728e-13
-7.13001e-13
-6.96467e-13
-6.75489e-13
-6.70177e-13
-6.69021e-13
-6.703e-13
-6.69142e-13
-6.65433e-13
-6.59851e-13
-6.47738e-13
-6.37416e-13
-6.28226e-13
-6.14177e-13
-6.05058e-13
-5.95998e-13
-5.82237e-13
-5.69154e-13
-5.53499e-13
-5.52839e-13
-5.51523e-13
-5.50832e-13
-5.46833e-13
-5.39047e-13
-5.37491e-13
-5.29006e-13
-5.164e-13
-5.06504e-13
-4.90445e-13
-4.7789e-13
-4.78036e-13
-4.80941e-13
-4.80698e-13
-4.72591e-13
-4.62774e-13
-4.46361e-13
-4.36983e-13
-4.34568e-13
-4.28207e-13
-4.20203e-13
-4.12483e-13
-4.10405e-13
-4.03041e-13
-3.90921e-13
-3.78249e-13
-3.69324e-13
-3.63188e-13
-3.5269e-13
-3.38909e-13
-3.40348e-13
-3.38134e-13
-3.30089e-13
-3.23397e-13
-3.15132e-13
-2.99334e-13
-2.91713e-13
-2.84227e-13
-2.75974e-13
-2.68066e-13
-2.55821e-13
-2.48307e-13
-2.39106e-13
-2.36903e-13
-2.32546e-13
-2.33283e-13
-2.25425e-13
-2.22248e-13
-2.15554e-13
-2.01105e-13
-1.85942e-13
-1.737e-13
-1.72143e-13
-1.70427e-13
-1.65023e-13
-1.60434e-13
-1.54831e-13
-1.46055e-13
-1.35692e-13
-1.22699e-13
-1.15363e-13
-1.08974e-13
-1.011e-13
-9.37335e-14
-8.79237e-14
-8.00338e-14
-7.24304e-14
-6.5643e-14
-5.67343e-14
-4.67401e-14
-3.83753e-14
-3.08803e-14
-1.54627e-14
-7.89228e-15
-3.76952e-16
4.58516e-17
-7.18038e-13
-7.16876e-13
-7.1328e-13
-7.08916e-13
-7.10247e-13
-7.04473e-13
-6.98817e-13
-7.0038e-13
-6.94388e-13
-6.85251e-13
-6.78997e-13
-6.68682e-13
-6.61775e-13
-6.60515e-13
-6.58442e-13
-6.49604e-13
-6.39613e-13
-6.36744e-13
-6.23729e-13
-6.05036e-13
-5.83288e-13
-5.68688e-13
-5.63078e-13
-5.61657e-13
-5.54782e-13
-5.55052e-13
-5.5123e-13
-5.44597e-13
-5.39642e-13
-5.35453e-13
-5.28635e-13
-5.16132e-13
-5.03152e-13
-4.89659e-13
-4.81458e-13
-4.8147e-13
-4.86764e-13
-4.80902e-13
-4.72153e-13
-4.60671e-13
-4.46927e-13
-4.3365e-13
-4.31852e-13
-4.29498e-13
-4.2584e-13
-4.14164e-13
-4.04667e-13
-4.00545e-13
-3.94903e-13
-3.82034e-13
-3.6833e-13
-3.62566e-13
-3.5432e-13
-3.43427e-13
-3.34515e-13
-3.32643e-13
-3.27446e-13
-3.22455e-13
-3.16004e-13
-3.05201e-13
-2.93806e-13
-2.84846e-13
-2.75213e-13
-2.67139e-13
-2.60655e-13
-2.49698e-13
-2.3956e-13
-2.31316e-13
-2.29303e-13
-2.33003e-13
-2.25042e-13
-2.20402e-13
-2.1327e-13
-2.01876e-13
-1.90772e-13
-1.77757e-13
-1.67857e-13
-1.64643e-13
-1.64273e-13
-1.66756e-13
-1.60913e-13
-1.45001e-13
-1.34486e-13
-1.21247e-13
-1.16333e-13
-1.11476e-13
-1.0373e-13
-9.29743e-14
-8.33176e-14
-7.89381e-14
-7.27609e-14
-6.53413e-14
-5.88611e-14
-4.94875e-14
-3.71981e-14
-2.57335e-14
-1.5733e-14
-9.35019e-15
-1.04117e-15
1.43178e-15
-7.17776e-13
-7.16257e-13
-7.13871e-13
-7.11548e-13
-7.17719e-13
-7.14509e-13
-6.99173e-13
-6.9166e-13
-6.85565e-13
-6.81585e-13
-6.80316e-13
-6.77092e-13
-6.63946e-13
-6.56238e-13
-6.52447e-13
-6.46759e-13
-6.41452e-13
-6.33745e-13
-6.19735e-13
-6.02097e-13
-5.86622e-13
-5.70603e-13
-5.60788e-13
-5.62118e-13
-5.62989e-13
-5.54578e-13
-5.46823e-13
-5.4499e-13
-5.43059e-13
-5.38389e-13
-5.31279e-13
-5.18443e-13
-5.03691e-13
-4.88862e-13
-4.7789e-13
-4.80076e-13
-4.80128e-13
-4.78237e-13
-4.76131e-13
-4.6644e-13
-4.51421e-13
-4.37911e-13
-4.31101e-13
-4.23441e-13
-4.21336e-13
-4.16103e-13
-4.07103e-13
-3.97188e-13
-3.89947e-13
-3.82161e-13
-3.69101e-13
-3.63559e-13
-3.54978e-13
-3.4473e-13
-3.41387e-13
-3.37179e-13
-3.25378e-13
-3.15887e-13
-3.10443e-13
-3.01701e-13
-2.96143e-13
-2.85311e-13
-2.76129e-13
-2.68384e-13
-2.59259e-13
-2.48418e-13
-2.41953e-13
-2.31647e-13
-2.26288e-13
-2.24157e-13
-2.23455e-13
-2.2151e-13
-2.15373e-13
-2.01857e-13
-1.89165e-13
-1.79336e-13
-1.73836e-13
-1.67509e-13
-1.66881e-13
-1.64296e-13
-1.57551e-13
-1.47415e-13
-1.36199e-13
-1.24993e-13
-1.15353e-13
-1.05863e-13
-9.90966e-14
-9.46288e-14
-8.86711e-14
-7.93509e-14
-7.19132e-14
-6.43381e-14
-5.56727e-14
-4.63888e-14
-3.55863e-14
-2.80321e-14
-1.77237e-14
-6.96033e-15
-7.74935e-16
-1.92971e-16
-7.12268e-13
-7.15736e-13
-7.15835e-13
-7.14093e-13
-7.12092e-13
-7.04898e-13
-6.99242e-13
-6.95202e-13
-6.9365e-13
-6.87909e-13
-6.81338e-13
-6.75901e-13
-6.66923e-13
-6.57475e-13
-6.50847e-13
-6.42414e-13
-6.39485e-13
-6.32362e-13
-6.18296e-13
-6.04604e-13
-5.85865e-13
-5.7148e-13
-5.66979e-13
-5.63709e-13
-5.54941e-13
-5.51096e-13
-5.51837e-13
-5.50045e-13
-5.42645e-13
-5.33102e-13
-5.25384e-13
-5.1685e-13
-5.03346e-13
-4.90246e-13
-4.80196e-13
-4.86447e-13
-4.891e-13
-4.81102e-13
-4.70691e-13
-4.58452e-13
-4.47327e-13
-4.407e-13
-4.33422e-13
-4.23373e-13
-4.18096e-13
-4.11397e-13
-4.10002e-13
-4.08392e-13
-3.92675e-13
-3.78563e-13
-3.67378e-13
-3.64863e-13
-3.55099e-13
-3.44104e-13
-3.40409e-13
-3.37578e-13
-3.28873e-13
-3.16808e-13
-3.07687e-13
-3.0134e-13
-2.98726e-13
-2.89066e-13
-2.77399e-13
-2.66862e-13
-2.54896e-13
-2.47828e-13
-2.38319e-13
-2.33273e-13
-2.2695e-13
-2.22729e-13
-2.19099e-13
-2.2091e-13
-2.1588e-13
-2.01781e-13
-1.89297e-13
-1.79276e-13
-1.75969e-13
-1.70625e-13
-1.62383e-13
-1.55224e-13
-1.60911e-13
-1.55931e-13
-1.38231e-13
-1.25261e-13
-1.15892e-13
-1.05413e-13
-9.74082e-14
-9.42776e-14
-8.83412e-14
-7.96888e-14
-7.15026e-14
-6.41449e-14
-5.68947e-14
-4.48682e-14
-3.83571e-14
-2.68231e-14
-1.49274e-14
-4.99015e-15
2.99079e-16
-5.5544e-16
-7.20762e-13
-7.17229e-13
-7.15287e-13
-7.11679e-13
-7.0596e-13
-7.02755e-13
-6.9915e-13
-6.9894e-13
-6.95161e-13
-6.88189e-13
-6.80678e-13
-6.75771e-13
-6.68658e-13
-6.62314e-13
-6.53344e-13
-6.4052e-13
-6.29234e-13
-6.22684e-13
-6.17967e-13
-6.08772e-13
-5.88479e-13
-5.76167e-13
-5.66998e-13
-5.60188e-13
-5.57552e-13
-5.54083e-13
-5.53417e-13
-5.50202e-13
-5.4081e-13
-5.36538e-13
-5.26829e-13
-5.15987e-13
-5.01324e-13
-4.88234e-13
-4.82945e-13
-4.85665e-13
-4.84944e-13
-4.79489e-13
-4.70884e-13
-4.59507e-13
-4.47549e-13
-4.38212e-13
-4.34164e-13
-4.28174e-13
-4.23441e-13
-4.16204e-13
-4.05171e-13
-3.97623e-13
-3.91994e-13
-3.83493e-13
-3.75782e-13
-3.64604e-13
-3.53839e-13
-3.44941e-13
-3.38484e-13
-3.31403e-13
-3.26666e-13
-3.18897e-13
-3.06891e-13
-3.01171e-13
-2.99691e-13
-2.91108e-13
-2.78887e-13
-2.64894e-13
-2.56295e-13
-2.47773e-13
-2.38275e-13
-2.31325e-13
-2.26603e-13
-2.22819e-13
-2.2077e-13
-2.20703e-13
-2.14508e-13
-1.98075e-13
-1.8817e-13
-1.79773e-13
-1.75428e-13
-1.706e-13
-1.66691e-13
-1.62785e-13
-1.57223e-13
-1.49005e-13
-1.39767e-13
-1.30151e-13
-1.21684e-13
-1.04767e-13
-9.59285e-14
-9.1117e-14
-8.84679e-14
-7.60238e-14
-6.83595e-14
-6.30011e-14
-6.14183e-14
-4.71609e-14
-3.44266e-14
-2.60039e-14
-1.68111e-14
-1.99925e-15
-4.12805e-16
-2.05582e-15
-7.23882e-13
-7.16849e-13
-7.104e-13
-7.11245e-13
-7.02338e-13
-7.03392e-13
-6.99592e-13
-7.00195e-13
-6.99072e-13
-6.87189e-13
-6.79956e-13
-6.76256e-13
-6.74264e-13
-6.63654e-13
-6.53624e-13
-6.44188e-13
-6.34563e-13
-6.23606e-13
-6.17403e-13
-6.01652e-13
-5.883e-13
-5.75266e-13
-5.63708e-13
-5.58525e-13
-5.55272e-13
-5.58152e-13
-5.54864e-13
-5.4906e-13
-5.41997e-13
-5.34167e-13
-5.27206e-13
-5.17967e-13
-5.01788e-13
-4.91651e-13
-4.8165e-13
-4.80367e-13
-4.82769e-13
-4.79813e-13
-4.7155e-13
-4.60827e-13
-4.5106e-13
-4.42173e-13
-4.33931e-13
-4.27537e-13
-4.21521e-13
-4.14177e-13
-4.04552e-13
-3.99982e-13
-3.95405e-13
-3.83589e-13
-3.72067e-13
-3.60134e-13
-3.53309e-13
-3.48274e-13
-3.42254e-13
-3.35584e-13
-3.28231e-13
-3.17263e-13
-3.09956e-13
-3.05195e-13
-3.00333e-13
-2.89572e-13
-2.74155e-13
-2.63257e-13
-2.54211e-13
-2.45138e-13
-2.35911e-13
-2.32462e-13
-2.25921e-13
-2.27064e-13
-2.21861e-13
-2.16529e-13
-2.07081e-13
-1.95116e-13
-1.86288e-13
-1.77946e-13
-1.79185e-13
-1.78463e-13
-1.68998e-13
-1.60351e-13
-1.54213e-13
-1.46221e-13
-1.38222e-13
-1.28935e-13
-1.15949e-13
-1.02767e-13
-9.74712e-14
-9.42625e-14
-8.75898e-14
-8.2704e-14
-7.63939e-14
-6.40278e-14
-5.30934e-14
-4.41299e-14
-3.46791e-14
-2.34522e-14
-1.51797e-14
-9.54528e-15
-3.04139e-15
-1.60012e-15
-7.21878e-13
-7.15061e-13
-7.13625e-13
-7.11802e-13
-7.07448e-13
-7.03443e-13
-6.96772e-13
-6.99211e-13
-6.98357e-13
-6.91414e-13
-6.84388e-13
-6.75865e-13
-6.72526e-13
-6.61381e-13
-6.50495e-13
-6.39321e-13
-6.27843e-13
-6.23397e-13
-6.18023e-13
-6.04362e-13
-5.90236e-13
-5.77012e-13
-5.65594e-13
-5.62474e-13
-5.62492e-13
-5.55585e-13
-5.49667e-13
-5.42773e-13
-5.36368e-13
-5.35068e-13
-5.30063e-13
-5.22873e-13
-5.10191e-13
-4.98962e-13
-4.79215e-13
-4.76367e-13
-4.77291e-13
-4.76081e-13
-4.71932e-13
-4.60806e-13
-4.53213e-13
-4.42314e-13
-4.36968e-13
-4.25645e-13
-4.2181e-13
-4.16059e-13
-4.11118e-13
-4.02186e-13
-3.91273e-13
-3.75532e-13
-3.71795e-13
-3.65734e-13
-3.58188e-13
-3.43892e-13
-3.3619e-13
-3.29346e-13
-3.21746e-13
-3.1953e-13
-3.10884e-13
-3.09848e-13
-3.1108e-13
-2.86609e-13
-2.7204e-13
-2.65487e-13
-2.56837e-13
-2.49513e-13
-2.39262e-13
-2.32262e-13
-2.22569e-13
-2.20526e-13
-2.15907e-13
-2.19728e-13
-2.13421e-13
-2.00623e-13
-1.84268e-13
-1.72901e-13
-1.7959e-13
-1.77101e-13
-1.69456e-13
-1.63029e-13
-1.56237e-13
-1.46785e-13
-1.37494e-13
-1.26524e-13
-1.16459e-13
-1.04352e-13
-9.66959e-14
-9.52037e-14
-8.94121e-14
-7.82877e-14
-6.92261e-14
-6.34297e-14
-5.45318e-14
-4.3386e-14
-3.9705e-14
-3.12651e-14
-1.56785e-14
-4.88411e-15
2.35426e-15
-7.10076e-16
-7.15899e-13
-7.1819e-13
-7.17785e-13
-7.11388e-13
-7.04806e-13
-7.05119e-13
-7.02342e-13
-6.98215e-13
-6.95974e-13
-6.90214e-13
-6.86154e-13
-6.80333e-13
-6.70576e-13
-6.60066e-13
-6.51491e-13
-6.43027e-13
-6.36514e-13
-6.31603e-13
-6.20708e-13
-6.01472e-13
-5.80128e-13
-5.65645e-13
-5.62858e-13
-5.64042e-13
-5.62504e-13
-5.55255e-13
-5.45997e-13
-5.42675e-13
-5.36646e-13
-5.36503e-13
-5.34841e-13
-5.17243e-13
-5.03976e-13
-4.95753e-13
-4.86777e-13
-4.83219e-13
-4.80247e-13
-4.74891e-13
-4.69336e-13
-4.6089e-13
-4.53214e-13
-4.4207e-13
-4.35001e-13
-4.29957e-13
-4.27574e-13
-4.17007e-13
-4.09319e-13
-3.95585e-13
-3.91946e-13
-3.83183e-13
-3.70407e-13
-3.64384e-13
-3.57888e-13
-3.4891e-13
-3.39173e-13
-3.24713e-13
-3.12055e-13
-3.16665e-13
-3.21883e-13
-3.12272e-13