/*--------------------------------*- C++ -*----------------------------------*\
| =========                 |                                                 |
| \\      /  F ield         | OpenFOAM: The Open Source CFD Toolbox           |
|  \\    /   O peration     | Version:  v2012                                 |
|   \\  /    A nd           | Website:  www.openfoam.com                      |
|    \\/     M anipulation  |                                                 |
\*---------------------------------------------------------------------------*/
FoamFile
{
    version     2.0;
    format      ascii;
    class       volVectorField;
    location    "0";
    object      uRec;
}
// * * * * * * * * * * * * * * * * * * * * * * * * * * * * * * * * * * * * * //

dimensions      [0 1 -1 0 0 0 0];


internalField   nonuniform List<vector> 
4000
(
(1 7.49766e-16 0)
(1 1.43768e-15 0)
(1 -9.18344e-16 0)
(1 -8.1468e-16 0)
(1 1.42124e-15 0)
(1 -9.59044e-17 0)
(1 2.19703e-15 0)
(1 -1.8276e-15 0)
(1 2.51153e-15 0)
(1 1.71261e-15 0)
(1 -3.12797e-15 0)
(1 1.39467e-16 0)
(1 8.83146e-16 0)
(1 6.10195e-16 0)
(1 -3.72221e-16 0)
(1 5.54561e-16 0)
(1 -1.66235e-15 0)
(1 -1.32782e-15 0)
(1 1.54791e-15 0)
(1 8.74927e-16 0)
(1 1.55806e-16 0)
(1 2.31629e-15 0)
(1 -1.8371e-17 0)
(1 2.6381e-15 0)
(1 -1.36641e-16 0)
(1 -3.82601e-16 0)
(1 1.36071e-15 0)
(1 -1.83476e-15 0)
(1 -1.17776e-17 0)
(1 -5.44707e-16 0)
(1 1.20345e-15 0)
(1 2.19063e-15 0)
(1 -9.09278e-16 0)
(1 -7.94183e-16 0)
(1 5.29459e-16 0)
(1 -1.59392e-15 0)
(1 -1.26476e-15 0)
(1 8.44487e-16 0)
(1 2.45214e-15 0)
(1 3.45738e-18 0)
(1 1.90345e-15 0)
(1 -1.56996e-15 0)
(1 -5.4646e-16 0)
(1 5.21959e-16 0)
(1 1.61009e-15 0)
(1 -1.40311e-15 0)
(1 1.12356e-15 0)
(1 3.21511e-16 0)
(1 7.91533e-17 0)
(1 7.52833e-17 0)
(1 -6.14734e-16 0)
(1 9.20745e-16 0)
(1 4.52854e-16 0)
(1 2.70793e-15 0)
(1 1.49086e-15 0)
(1 1.21789e-15 0)
(1 2.60814e-16 0)
(1 -4.16677e-16 0)
(1 7.1364e-16 0)
(1 2.02853e-15 0)
(1 -5.22307e-16 0)
(1 -1.67735e-15 0)
(1 -5.34803e-16 0)
(1 1.21908e-15 0)
(1 5.4143e-16 0)
(1 2.66159e-16 0)
(1 2.33087e-16 0)
(1 -7.1429e-16 0)
(1 1.03066e-15 0)
(1 -8.72269e-16 0)
(1 -3.59317e-16 0)
(1 5.26255e-16 0)
(1 -7.83705e-17 0)
(1 -5.09912e-16 0)
(1 -8.64194e-16 0)
(1 -1.66081e-15 0)
(1 -4.1041e-17 0)
(1 -2.32553e-16 0)
(1 7.15372e-16 0)
(1 1.19142e-15 0)
(1 5.49578e-16 0)
(1 1.75095e-15 0)
(1 -7.79724e-16 0)
(1 1.87167e-16 0)
(1 -1.25272e-15 0)
(1 -1.24427e-15 0)
(1 3.28265e-16 0)
(1 1.05303e-15 0)
(1 1.24443e-15 0)
(1 7.895e-16 0)
(1 1.75657e-16 0)
(1 -8.15549e-16 0)
(1 1.13248e-15 0)
(1 1.72972e-15 0)
(1 -8.13183e-16 0)
(1 -1.52524e-15 0)
(1 3.5683e-16 0)
(1 1.39008e-15 0)
(1 -2.43023e-16 0)
(1 -2.34387e-16 0)
(1 3.88272e-16 0)
(1 3.95713e-15 0)
(1 -1.08843e-15 0)
(1 -1.66557e-15 0)
(1 -2.03176e-16 0)
(1 1.15326e-15 0)
(1 2.42882e-15 0)
(1 -1.61367e-15 0)
(1 3.01194e-15 0)
(1 2.04873e-15 0)
(1 -5.23224e-16 0)
(1 2.02299e-16 0)
(1 6.69467e-16 0)
(1 -8.98453e-16 0)
(1 -1.2628e-15 0)
(1 2.5773e-15 0)
(1 -4.6189e-16 0)
(1 7.62067e-17 0)
(1 2.17089e-15 0)
(1 9.78006e-16 0)
(1 3.82793e-16 0)
(1 9.5738e-16 0)
(1 -6.71577e-16 0)
(1 1.96682e-15 0)
(1 1.14847e-16 0)
(1 9.79988e-16 0)
(1 3.50334e-15 0)
(1 -2.51422e-15 0)
(1 -2.89666e-16 0)
(1 9.64648e-16 0)
(1 -5.67491e-17 0)
(1 2.81943e-15 0)
(1 -1.36603e-15 0)
(1 -8.90386e-16 0)
(1 1.84004e-15 0)
(1 -1.46289e-15 0)
(1 4.04941e-16 0)
(1 3.15036e-15 0)
(1 1.86298e-15 0)
(1 -3.18077e-16 0)
(1 -3.9087e-16 0)
(1 -1.61206e-15 0)
(1 -1.6823e-15 0)
(1 -1.31442e-17 0)
(1 1.21839e-15 0)
(1 -6.10701e-16 0)
(1 3.86218e-15 0)
(1 3.65337e-15 0)
(1 3.45457e-15 0)
(1 1.87209e-15 0)
(1 8.62391e-16 0)
(1 5.92534e-17 0)
(1 2.8172e-15 0)
(1 2.03509e-15 0)
(1 1.83401e-15 0)
(1 3.9171e-16 0)
(1 1.25117e-15 0)
(1 2.52271e-15 0)
(1 1.52551e-15 0)
(1 -8.40995e-16 0)
(1 6.69588e-16 0)
(1 6.23851e-16 0)
(1 -3.2597e-16 0)
(1 1.32553e-15 0)
(1 -7.87379e-17 0)
(1 1.57518e-15 0)
(1 -1.73705e-15 0)
(1 -1.76311e-15 0)
(1 1.44554e-15 0)
(1 -6.44596e-16 0)
(1 -1.04497e-15 0)
(1 3.94474e-16 0)
(1 1.47373e-15 0)
(1 -8.28037e-16 0)
(1 2.36971e-16 0)
(1 1.05848e-16 0)
(1 9.96669e-16 0)
(1 2.13163e-15 0)
(1 6.70397e-16 0)
(1 2.61976e-15 0)
(1 9.27665e-16 0)
(1 1.68971e-15 0)
(1 2.04334e-15 0)
(1 -8.54588e-16 0)
(1 -8.2386e-17 0)
(1 -1.33358e-15 0)
(1 -8.04284e-16 0)
(1 3.39759e-16 0)
(1 1.31817e-15 0)
(1 2.2397e-15 0)
(1 3.83321e-16 0)
(1 -1.31614e-15 0)
(1 2.98636e-15 0)
(1 2.32489e-15 0)
(1 -2.45189e-15 0)
(1 -1.62361e-15 0)
(1 1.38401e-15 0)
(1 4.68137e-16 0)
(1 -6.38969e-16 0)
(1 -6.11554e-16 0)
(1 -1.83176e-16 0)
(1 3.01575e-15 0)
(1 -2.54069e-16 0)
(1 -1.37925e-16 0)
(1 -3.2102e-16 0)
(1 1.40573e-15 0)
(1 2.60627e-15 0)
(1 5.41845e-15 0)
(1 -1.21276e-15 0)
(1 -6.64025e-16 0)
(1 1.62191e-15 0)
(1 2.90012e-15 0)
(1 2.36297e-15 0)
(1 -5.8582e-16 0)
(1 2.28047e-16 0)
(1 1.14612e-15 0)
(1 2.12504e-15 0)
(1 2.66174e-15 0)
(1 2.77575e-16 0)
(1 2.16466e-15 0)
(1 5.34394e-16 0)
(1 -1.36209e-15 0)
(1 -1.32302e-16 0)
(1 5.50411e-16 0)
(1 3.93787e-15 0)
(1 3.62402e-15 0)
(1 3.39843e-15 0)
(1 -2.28603e-15 0)
(1 -4.31791e-16 0)
(1 1.56641e-15 0)
(1 1.00672e-15 0)
(1 -9.32415e-16 0)
(1 9.04819e-16 0)
(1 1.71373e-15 0)
(1 3.18411e-16 0)
(1 4.66004e-16 0)
(1 -4.58186e-16 0)
(1 2.73342e-15 0)
(1 3.23016e-15 0)
(1 -1.61299e-15 0)
(1 -9.4632e-16 0)
(1 -2.48001e-17 0)
(1 -5.15722e-16 0)
(1 -8.70367e-16 0)
(1 3.10657e-16 0)
(1 7.96338e-16 0)
(1 1.43125e-15 0)
(1 4.93248e-15 0)
(1 6.08463e-15 0)
(1 4.16335e-15 0)
(1 4.42378e-15 0)
(1 1.75987e-15 0)
(1 3.89478e-15 0)
(1 -5.33528e-16 0)
(1 1.91714e-15 0)
(1 1.45477e-16 0)
(1 2.68875e-15 0)
(1 3.65588e-15 0)
(1 4.87867e-15 0)
(1 9.72168e-16 0)
(1 2.81539e-16 0)
(1 1.35346e-15 0)
(1 1.25937e-15 0)
(1 -1.37998e-15 0)
(1 -5.94697e-16 0)
(1 5.15317e-16 0)
(1 -9.14107e-16 0)
(1 5.54221e-16 0)
(1 2.30602e-15 0)
(1 1.02594e-15 0)
(1 1.14508e-15 0)
(1 5.65779e-16 0)
(1 5.36083e-17 0)
(1 -2.00994e-15 0)
(1 -3.5608e-17 0)
(1 2.78661e-16 0)
(1 8.02531e-16 0)
(1 1.5136e-15 0)
(1 1.9046e-15 0)
(1 5.65053e-16 0)
(1 -4.99873e-16 0)
(1 7.14819e-16 0)
(1 2.89598e-15 0)
(1 2.09834e-16 0)
(1 5.59546e-16 0)
(1 7.09508e-16 0)
(1 -1.12236e-15 0)
(1 8.43729e-17 0)
(1 6.28448e-16 0)
(1 2.82648e-15 0)
(1 1.15185e-15 0)
(1 7.32456e-16 0)
(1 3.88592e-16 0)
(1 2.09942e-15 0)
(1 -8.46201e-16 0)
(1 9.78478e-17 0)
(1 1.79691e-15 0)
(1 -1.90986e-15 0)
(1 1.95331e-16 0)
(1 -1.05373e-16 0)
(1 9.15102e-17 0)
(1 2.27408e-15 0)
(1 1.52161e-15 0)
(1 -6.8777e-16 0)
(1 1.79311e-15 0)
(1 -4.12527e-16 0)
(1 2.73235e-15 0)
(1 5.55545e-15 0)
(1 9.35367e-16 0)
(1 2.3065e-16 0)
(1 -4.0041e-16 0)
(1 4.8928e-15 0)
(1 9.01215e-17 0)
(1 5.2957e-16 0)
(1 5.03905e-15 0)
(1 -8.1707e-16 0)
(1 2.73621e-15 0)
(1 1.1298e-16 0)
(1 -1.31588e-15 0)
(1 5.42038e-15 0)
(1 -4.47438e-17 0)
(1 1.99265e-15 0)
(1 6.46611e-16 0)
(1 1.09175e-15 0)
(1 5.5826e-15 0)
(1 3.82244e-15 0)
(1 3.54909e-15 0)
(1 1.74757e-16 0)
(1 8.36504e-16 0)
(1 2.43493e-15 0)
(1 1.12157e-15 0)
(1 3.97335e-16 0)
(1 9.7622e-16 0)
(1 2.44424e-15 0)
(1 6.31817e-16 0)
(1 7.22651e-18 0)
(1 -1.2791e-15 0)
(1 -6.28694e-16 0)
(1 3.45386e-15 0)
(1 1.38285e-15 0)
(1 2.73224e-15 0)
(1 4.96758e-16 0)
(1 -7.07699e-16 0)
(1 5.02173e-16 0)
(1 1.53795e-15 0)
(1 2.64585e-15 0)
(1 1.35264e-15 0)
(1 4.43718e-15 0)
(1 5.52481e-15 0)
(1 5.10264e-15 0)
(1 5.50097e-15 0)
(1 3.48726e-15 0)
(1 2.84248e-15 0)
(1 2.34927e-15 0)
(1 3.63193e-15 0)
(1 2.31475e-15 0)
(1 3.71141e-15 0)
(1 4.61674e-15 0)
(1 4.72922e-15 0)
(1 5.07184e-15 0)
(1 2.28695e-15 0)
(1 -1.10417e-15 0)
(1 -4.34516e-16 0)
(1 2.49098e-16 0)
(1 -1.1405e-15 0)
(1 3.25114e-16 0)
(1 -3.17246e-16 0)
(1 3.41461e-15 0)
(1 8.2856e-16 0)
(1 3.65103e-16 0)
(1 1.23255e-15 0)
(1 8.78604e-17 0)
(1 -4.06108e-16 0)
(1 -9.25252e-16 0)
(1 -1.5204e-15 0)
(1 6.65583e-16 0)
(1 3.14968e-15 0)
(1 1.16202e-15 0)
(1 3.22015e-15 0)
(1 2.50343e-15 0)
(1 -1.15779e-15 0)
(1 2.61717e-15 0)
(1 1.06428e-15 0)
(1 1.7378e-15 0)
(1 1.41882e-15 0)
(1 -3.64919e-16 0)
(1 1.25888e-15 0)
(1 1.40813e-16 0)
(1 1.63889e-15 0)
(1 2.28568e-15 0)
(1 3.62838e-16 0)
(1 2.24024e-15 0)
(1 7.85099e-16 0)
(1 2.15317e-15 0)
(1 1.72962e-15 0)
(1 7.8202e-16 0)
(1 8.0936e-16 0)
(1 7.03817e-16 0)
(1 -1.69564e-15 0)
(1 -1.69043e-15 0)
(1 8.4835e-16 0)
(1 -2.00557e-16 0)
(1 2.75489e-15 0)
(1 -7.88236e-16 0)
(1 8.38756e-16 0)
(1 2.23192e-15 0)
(1 1.40825e-15 0)
(1 1.68084e-15 0)
(1 6.44606e-15 0)
(1 4.01216e-15 0)
(1 2.86305e-15 0)
(1 4.46772e-15 0)
(1 -2.39498e-16 0)
(1 -1.17725e-15 0)
(1 2.34719e-15 0)
(1 2.31361e-15 0)
(1 5.08713e-15 0)
(1 3.45985e-15 0)
(1 1.2411e-15 0)
(1 3.5312e-16 0)
(1 4.22784e-16 0)
(1 2.39138e-15 0)
(1 3.08016e-15 0)
(1 3.90991e-15 0)
(1 2.31358e-16 0)
(1 3.30289e-16 0)
(1 -5.10856e-17 0)
(1 2.22985e-15 0)
(1 1.59598e-15 0)
(1 1.55455e-16 0)
(1 1.58511e-15 0)
(1 3.32589e-15 0)
(1 -5.03102e-16 0)
(1 4.00263e-15 0)
(1 -3.24343e-16 0)
(1 -9.92786e-16 0)
(1 5.85246e-16 0)
(1 4.63611e-18 0)
(1 1.88266e-15 0)
(1 3.75182e-15 0)
(1 2.95357e-15 0)
(1 9.19851e-16 0)
(1 -1.47072e-15 0)
(1 1.16099e-15 0)
(1 2.67191e-16 0)
(1 4.8279e-15 0)
(1 5.50779e-15 0)
(1 7.43043e-15 0)
(1 5.4476e-15 0)
(1 4.26026e-15 0)
(1 4.22214e-15 0)
(1 2.77667e-15 0)
(1 2.28527e-15 0)
(1 4.37732e-15 0)
(1 4.47698e-15 0)
(1 3.93114e-15 0)
(1 3.20997e-15 0)
(1 3.61838e-15 0)
(1 8.0579e-16 0)
(1 1.04122e-15 0)
(1 4.79863e-15 0)
(1 1.15353e-15 0)
(1 1.6659e-15 0)
(1 1.30361e-15 0)
(1 1.16752e-15 0)
(1 1.54568e-15 0)
(1 1.28376e-15 0)
(1 3.24259e-15 0)
(1 -7.67188e-16 0)
(1 2.3154e-15 0)
(1 -1.63256e-16 0)
(1 7.58151e-17 0)
(1 2.71411e-15 0)
(1 8.88604e-16 0)
(1 8.19781e-17 0)
(1 8.95015e-16 0)
(1 3.3646e-15 0)
(1 3.73184e-15 0)
(1 2.74656e-15 0)
(1 1.23921e-15 0)
(1 5.48204e-16 0)
(1 1.45038e-15 0)
(1 9.21409e-16 0)
(1 6.73746e-16 0)
(1 2.65115e-15 0)
(1 -8.50241e-17 0)
(1 1.9906e-15 0)
(1 8.89369e-16 0)
(1 6.90608e-16 0)
(1 1.71339e-15 0)
(1 1.14587e-15 0)
(1 1.33413e-15 0)
(1 3.07695e-15 0)
(1 1.41268e-15 0)
(1 3.37319e-15 0)
(1 1.58433e-15 0)
(1 1.68552e-16 0)
(1 1.25344e-15 0)
(1 -2.55731e-15 0)
(1 -1.08579e-15 0)
(1 2.84395e-16 0)
(1 -2.31544e-15 0)
(1 2.94005e-15 0)
(1 2.50614e-15 0)
(1 1.50706e-15 0)
(1 2.10038e-15 0)
(1 1.51821e-15 0)
(1 3.8784e-15 0)
(1 4.23844e-15 0)
(1 4.62785e-15 0)
(1 5.89233e-15 0)
(1 3.33943e-15 0)
(1 3.81111e-16 0)
(1 1.80788e-15 0)
(1 1.31631e-15 0)
(1 3.01507e-15 0)
(1 1.5167e-15 0)
(1 2.80697e-15 0)
(1 1.72067e-15 0)
(1 -9.26281e-16 0)
(1 1.69934e-15 0)
(1 3.86632e-17 0)
(1 6.24195e-15 0)
(1 4.54127e-15 0)
(1 1.23e-15 0)
(1 3.3287e-15 0)
(1 1.50349e-15 0)
(1 1.11911e-15 0)
(1 -5.00799e-16 0)
(1 3.32258e-16 0)
(1 3.64576e-16 0)
(1 2.29431e-15 0)
(1 1.51042e-15 0)
(1 3.31352e-15 0)
(1 -1.56223e-15 0)
(1 2.02483e-15 0)
(1 3.70066e-15 0)
(1 3.86008e-15 0)
(1 1.33482e-15 0)
(1 1.69413e-15 0)
(1 2.87503e-15 0)
(1 2.36558e-15 0)
(1 6.00027e-17 0)
(1 -4.8747e-16 0)
(1 2.72124e-15 0)
(1 4.46045e-15 0)
(1 4.17922e-15 0)
(1 6.65068e-15 0)
(1 7.38488e-15 0)
(1 6.19016e-15 0)
(1 3.463e-15 0)
(1 3.78267e-15 0)
(1 5.08896e-15 0)
(1 5.53672e-15 0)
(1 3.75822e-15 0)
(1 4.24419e-15 0)
(1 5.00206e-15 0)
(1 4.88995e-15 0)
(1 4.1487e-15 0)
(1 5.67904e-15 0)
(1 3.75353e-15 0)
(1 8.6784e-16 0)
(1 6.51102e-16 0)
(1 2.72838e-16 0)
(1 2.79731e-15 0)
(1 2.29467e-15 0)
(1 5.08584e-15 0)
(1 2.28246e-15 0)
(1 1.74606e-15 0)
(1 1.0471e-15 0)
(1 2.08364e-15 0)
(1 2.09791e-15 0)
(1 3.20556e-15 0)
(1 5.83017e-16 0)
(1 3.523e-17 0)
(1 4.6395e-16 0)
(1 2.01178e-15 0)
(1 4.81802e-15 0)
(1 1.64586e-15 0)
(1 2.72592e-16 0)
(1 1.52094e-15 0)
(1 2.70847e-15 0)
(1 1.11409e-15 0)
(1 2.62867e-15 0)
(1 1.51408e-15 0)
(1 7.18862e-16 0)
(1 5.9066e-16 0)
(1 -1.13734e-15 0)
(1 -4.23984e-16 0)
(1 1.45701e-15 0)
(1 2.29084e-15 0)
(1 1.87909e-15 0)
(1 3.5148e-15 0)
(1 3.78711e-15 0)
(1 5.20553e-15 0)
(1 3.45978e-15 0)
(1 1.23492e-15 0)
(1 -1.66304e-15 0)
(1 6.86079e-16 0)
(1 1.69066e-15 0)
(1 -5.93596e-16 0)
(1 8.81774e-17 0)
(1 3.33038e-15 0)
(1 5.81102e-16 0)
(1 3.58974e-15 0)
(1 -2.31099e-16 0)
(1 1.77697e-15 0)
(1 6.7517e-15 0)
(1 2.70356e-15 0)
(1 4.23451e-15 0)
(1 5.06725e-15 0)
(1 1.61087e-15 0)
(1 1.50845e-15 0)
(1 4.5741e-15 0)
(1 2.66318e-15 0)
(1 5.87245e-15 0)
(1 4.06845e-15 0)
(1 9.15085e-16 0)
(1 1.9244e-15 0)
(1 2.53997e-15 0)
(1 2.57245e-15 0)
(1 -3.8871e-15 0)
(1 4.58281e-15 0)
(1 -2.45011e-16 0)
(1 4.24392e-15 0)
(1 2.07281e-15 0)
(1 1.77271e-15 0)
(1 1.07234e-15 0)
(1 2.03029e-15 0)
(1 3.74832e-15 0)
(1 1.53009e-15 0)
(1 1.8936e-15 0)
(1 3.57943e-15 0)
(1 1.80155e-16 0)
(1 5.62145e-16 0)
(1 4.28732e-15 0)
(1 3.9722e-15 0)
(1 3.50218e-15 0)
(1 -1.44266e-15 0)
(1 2.36946e-15 0)
(1 1.14876e-15 0)
(1 1.25603e-15 0)
(1 3.08222e-15 0)
(1 2.16408e-15 0)
(1 4.21218e-15 0)
(1 5.20839e-15 0)
(1 6.40874e-15 0)
(1 4.43551e-15 0)
(1 5.23845e-15 0)
(1 6.34139e-15 0)
(1 4.54676e-15 0)
(1 4.50918e-15 0)
(1 5.88024e-15 0)
(1 6.72703e-15 0)
(1 4.11554e-15 0)
(1 3.67948e-15 0)
(1 4.31323e-15 0)
(1 5.37733e-15 0)
(1 5.52114e-15 0)
(1 5.63682e-15 0)
(1 1.39672e-15 0)
(1 2.86428e-15 0)
(1 1.35445e-15 0)
(1 2.18515e-15 0)
(1 1.35359e-15 0)
(1 4.85228e-16 0)
(1 8.81939e-16 0)
(1 3.14533e-15 0)
(1 3.11926e-15 0)
(1 2.79959e-16 0)
(1 4.33669e-15 0)
(1 4.032e-15 0)
(1 1.10437e-15 0)
(1 6.08539e-16 0)
(1 5.99571e-16 0)
(1 3.7609e-15 0)
(1 1.91331e-15 0)
(1 3.96035e-15 0)
(1 2.8229e-15 0)
(1 2.4305e-15 0)
(1 2.88958e-15 0)
(1 2.92793e-15 0)
(1 2.86827e-15 0)
(1 2.69806e-15 0)
(1 1.72933e-15 0)
(1 2.81885e-15 0)
(1 1.03996e-15 0)
(1 1.84811e-15 0)
(1 2.19637e-15 0)
(1 1.38631e-15 0)
(1 1.90815e-15 0)
(1 3.11271e-15 0)
(1 4.27047e-15 0)
(1 4.15427e-15 0)
(1 2.76472e-15 0)
(1 3.90061e-15 0)
(1 1.01022e-15 0)
(1 -3.83895e-18 0)
(1 1.98816e-15 0)
(1 8.78424e-16 0)
(1 -5.99896e-16 0)
(1 6.27967e-16 0)
(1 3.62575e-16 0)
(1 1.31118e-15 0)
(1 3.3531e-15 0)
(1 2.79316e-15 0)
(1 1.24297e-15 0)
(1 3.90765e-15 0)
(1 6.58808e-15 0)
(1 7.58962e-15 0)
(1 4.94993e-15 0)
(1 -1.18004e-15 0)
(1 3.90028e-15 0)
(1 1.66795e-15 0)
(1 3.32191e-15 0)
(1 6.00499e-15 0)
(1 4.61941e-15 0)
(1 6.73034e-15 0)
(1 4.62039e-15 0)
(1 -4.71913e-16 0)
(1 7.67002e-16 0)
(1 -2.75626e-15 0)
(1 1.02847e-15 0)
(1 1.12475e-15 0)
(1 1.12618e-15 0)
(1 -3.01136e-15 0)
(1 -1.75493e-15 0)
(1 1.1409e-15 0)
(1 3.26287e-15 0)
(1 4.88681e-15 0)
(1 8.20134e-15 0)
(1 2.64323e-15 0)
(1 3.04667e-15 0)
(1 -5.3672e-16 0)
(1 1.3351e-15 0)
(1 1.46151e-15 0)
(1 1.22679e-15 0)
(1 2.21622e-15 0)
(1 2.88888e-15 0)
(1 5.81369e-15 0)
(1 1.94855e-15 0)
(1 2.23216e-15 0)
(1 4.97731e-15 0)
(1 2.19621e-15 0)
(1 1.88725e-15 0)
(1 6.13418e-15 0)
(1 7.95035e-15 0)
(1 7.04656e-15 0)
(1 2.70159e-15 0)
(1 5.06049e-15 0)
(1 7.16546e-15 0)
(1 5.89311e-15 0)
(1 2.67048e-15 0)
(1 6.511e-15 0)
(1 7.69402e-15 0)
(1 8.74643e-15 0)
(1 4.58338e-15 0)
(1 3.16885e-15 0)
(1 5.73276e-15 0)
(1 1.71954e-15 0)
(1 -9.4209e-16 0)
(1 4.37393e-15 0)
(1 5.83362e-15 0)
(1 5.5305e-15 0)
(1 2.35737e-15 0)
(1 2.90403e-15 0)
(1 3.08839e-15 0)
(1 1.03762e-15 0)
(1 3.28127e-15 0)
(1 3.43394e-15 0)
(1 4.10018e-15 0)
(1 2.88855e-15 0)
(1 2.08182e-15 0)
(1 4.65676e-16 0)
(1 1.65429e-15 0)
(1 4.93563e-15 0)
(1 2.94317e-15 0)
(1 1.50061e-15 0)
(1 1.46614e-15 0)
(1 8.61033e-16 0)
(1 3.77036e-15 0)
(1 1.50587e-15 0)
(1 3.54327e-15 0)
(1 3.57302e-15 0)
(1 -2.43137e-16 0)
(1 2.34963e-15 0)
(1 2.63362e-15 0)
(1 3.9539e-15 0)
(1 3.62606e-15 0)
(1 -7.80472e-16 0)
(1 1.05782e-15 0)
(1 3.70052e-15 0)
(1 3.86666e-15 0)
(1 4.39936e-15 0)
(1 3.71812e-15 0)
(1 3.91745e-15 0)
(1 -8.54656e-17 0)
(1 3.70787e-16 0)
(1 2.23236e-15 0)
(1 1.90213e-15 0)
(1 -1.58955e-16 0)
(1 3.47135e-16 0)
(1 -6.39592e-16 0)
(1 2.02729e-15 0)
(1 1.3498e-15 0)
(1 5.36909e-15 0)
(1 2.16891e-15 0)
(1 2.56816e-16 0)
(1 5.75478e-15 0)
(1 4.31249e-15 0)
(1 4.06769e-15 0)
(1 2.28763e-15 0)
(1 3.18276e-15 0)
(1 4.44705e-15 0)
(1 4.94194e-15 0)
(1 5.08503e-15 0)
(1 3.32793e-15 0)
(1 5.35393e-15 0)
(1 5.77748e-15 0)
(1 1.71159e-16 0)
(1 -2.80324e-15 0)
(1 1.2016e-15 0)
(1 -2.16782e-16 0)
(1 2.68274e-15 0)
(1 1.3161e-15 0)
(1 -1.19304e-15 0)
(1 1.78203e-15 0)
(1 -7.2343e-16 0)
(1 1.18754e-15 0)
(1 4.55111e-15 0)
(1 5.49245e-15 0)
(1 1.62821e-15 0)
(1 3.49939e-15 0)
(1 2.04639e-15 0)
(1 7.38149e-16 0)
(1 1.60528e-15 0)
(1 1.8912e-15 0)
(1 4.53796e-15 0)
(1 4.35304e-15 0)
(1 4.13935e-15 0)
(1 1.60639e-15 0)
(1 3.73277e-15 0)
(1 4.69247e-15 0)
(1 3.36945e-15 0)
(1 6.31293e-15 0)
(1 2.66877e-15 0)
(1 5.95291e-15 0)
(1 5.55033e-15 0)
(1 2.62908e-15 0)
(1 4.70165e-15 0)
(1 6.02488e-15 0)
(1 7.57907e-15 0)
(1 4.396e-15 0)
(1 7.62774e-15 0)
(1 9.4739e-15 0)
(1 8.17275e-15 0)
(1 7.6566e-15 0)
(1 3.12365e-15 0)
(1 6.98677e-15 0)
(1 3.21152e-15 0)
(1 4.7511e-15 0)
(1 3.70399e-15 0)
(1 2.48396e-15 0)
(1 5.87686e-15 0)
(1 -1.40331e-15 0)
(1 3.75531e-15 0)
(1 3.22723e-15 0)
(1 -7.08641e-17 0)
(1 6.60047e-15 0)
(1 5.10468e-15 0)
(1 5.50936e-15 0)
(1 1.36938e-15 0)
(1 3.19618e-15 0)
(1 1.58283e-15 0)
(1 1.49028e-15 0)
(1 4.27388e-15 0)
(1 2.7544e-15 0)
(1 2.56876e-15 0)
(1 1.85281e-15 0)
(1 4.82811e-15 0)
(1 4.44136e-15 0)
(1 4.84523e-15 0)
(1 2.14869e-15 0)
(1 3.52196e-15 0)
(1 -2.83594e-16 0)
(1 2.56338e-16 0)
(1 9.92212e-16 0)
(1 2.38967e-15 0)
(1 2.58624e-15 0)
(1 2.23485e-15 0)
(1 1.89565e-15 0)
(1 3.60322e-15 0)
(1 4.15765e-15 0)
(1 5.779e-15 0)
(1 5.58668e-15 0)
(1 4.30799e-15 0)
(1 2.09295e-15 0)
(1 9.20956e-16 0)
(1 3.68004e-15 0)
(1 3.76562e-15 0)
(1 4.35119e-16 0)
(1 7.64462e-16 0)
(1 2.05668e-15 0)
(1 -1.09264e-17 0)
(1 2.65022e-15 0)
(1 4.48273e-16 0)
(1 4.06237e-15 0)
(1 3.45537e-15 0)
(1 4.19302e-15 0)
(1 4.27325e-15 0)
(1 3.03947e-15 0)
(1 9.18895e-15 0)
(1 4.65266e-15 0)
(1 4.93434e-15 0)
(1 3.89332e-15 0)
(1 2.07197e-15 0)
(1 1.23796e-15 0)
(1 2.86266e-15 0)
(1 2.97462e-15 0)
(1 4.90255e-15 0)
(1 7.83576e-16 0)
(1 1.90807e-15 0)
(1 -3.15616e-15 0)
(1 3.06284e-16 0)
(1 2.82656e-15 0)
(1 3.50146e-15 0)
(1 7.16322e-16 0)
(1 8.36704e-16 0)
(1 2.84156e-15 0)
(1 8.93855e-16 0)
(1 2.72238e-16 0)
(1 4.19921e-15 0)
(1 3.49259e-15 0)
(1 4.34067e-15 0)
(1 3.9536e-15 0)
(1 2.19521e-15 0)
(1 -4.65876e-16 0)
(1 1.82935e-15 0)
(1 9.11111e-16 0)
(1 3.53185e-16 0)
(1 1.70476e-15 0)
(1 4.98871e-15 0)
(1 5.22154e-15 0)
(1 5.88708e-15 0)
(1 8.27425e-15 0)
(1 4.13044e-15 0)
(1 4.57496e-15 0)
(1 4.44022e-15 0)
(1 5.33267e-15 0)
(1 6.43882e-15 0)
(1 3.73202e-15 0)
(1 3.6504e-15 0)
(1 6.90653e-15 0)
(1 8.08921e-15 0)
(1 9.77833e-15 0)
(1 7.12381e-15 0)
(1 4.90149e-15 0)
(1 1.93575e-15 0)
(1 5.33214e-15 0)
(1 5.56778e-15 0)
(1 6.79318e-15 0)
(1 6.91128e-15 0)
(1 3.62322e-15 0)
(1 3.63319e-15 0)
(1 4.00504e-15 0)
(1 1.38996e-15 0)
(1 3.27403e-15 0)
(1 3.10771e-15 0)
(1 5.07441e-15 0)
(1 5.08982e-15 0)
(1 5.52516e-15 0)
(1 3.17392e-15 0)
(1 2.12366e-15 0)
(1 2.25488e-15 0)
(1 2.82424e-15 0)
(1 2.74028e-15 0)
(1 3.38395e-15 0)
(1 2.12133e-15 0)
(1 3.47075e-15 0)
(1 3.39949e-15 0)
(1 4.4063e-15 0)
(1 4.03178e-15 0)
(1 2.42185e-15 0)
(1 2.86918e-15 0)
(1 1.0924e-15 0)
(1 8.34346e-16 0)
(1 2.94787e-15 0)
(1 3.33048e-15 0)
(1 1.49189e-15 0)
(1 2.53149e-15 0)
(1 5.09695e-15 0)
(1 2.517e-15 0)
(1 4.42447e-15 0)
(1 1.56556e-15 0)
(1 6.88734e-15 0)
(1 3.19212e-15 0)
(1 2.74096e-15 0)
(1 3.77044e-15 0)
(1 3.64351e-15 0)
(1 3.76138e-15 0)
(1 5.53702e-17 0)
(1 2.13862e-16 0)
(1 1.95419e-15 0)
(1 2.87835e-15 0)
(1 8.09019e-16 0)
(1 -7.70818e-16 0)
(1 4.61917e-15 0)
(1 3.48839e-15 0)
(1 5.31165e-15 0)
(1 6.38475e-15 0)
(1 2.39081e-15 0)
(1 6.64754e-15 0)
(1 2.72957e-15 0)
(1 3.60728e-15 0)
(1 2.02728e-15 0)
(1 -4.51486e-16 0)
(1 2.27994e-15 0)
(1 3.60126e-15 0)
(1 4.38431e-15 0)
(1 4.29025e-15 0)
(1 -2.35317e-16 0)
(1 8.37609e-16 0)
(1 -2.68203e-15 0)
(1 1.71176e-15 0)
(1 -1.56724e-15 0)
(1 8.16421e-15 0)
(1 5.75989e-15 0)
(1 5.68557e-15 0)
(1 3.30681e-15 0)
(1 -1.87813e-15 0)
(1 -1.57246e-15 0)
(1 2.59562e-15 0)
(1 1.29213e-15 0)
(1 2.5974e-15 0)
(1 4.41958e-15 0)
(1 8.38161e-16 0)
(1 1.88489e-15 0)
(1 -1.19467e-15 0)
(1 2.98191e-16 0)
(1 1.44262e-15 0)
(1 6.51619e-15 0)
(1 5.00051e-15 0)
(1 4.03026e-15 0)
(1 3.76435e-15 0)
(1 5.73765e-15 0)
(1 5.77786e-15 0)
(1 4.39494e-15 0)
(1 4.9822e-15 0)
(1 8.99962e-15 0)
(1 6.31277e-15 0)
(1 4.87137e-15 0)
(1 5.26042e-15 0)
(1 8.11179e-15 0)
(1 8.94538e-15 0)
(1 8.87302e-15 0)
(1 7.07394e-15 0)
(1 6.59488e-15 0)
(1 4.10405e-15 0)
(1 6.25084e-15 0)
(1 4.51783e-15 0)
(1 5.56588e-15 0)
(1 5.18211e-15 0)
(1 4.53487e-15 0)
(1 3.00293e-15 0)
(1 6.14623e-15 0)
(1 3.81462e-15 0)
(1 3.0219e-15 0)
(1 3.88207e-15 0)
(1 -1.47055e-15 0)
(1 1.50707e-15 0)
(1 3.43852e-15 0)
(1 5.21536e-15 0)
(1 3.66991e-15 0)
(1 3.12556e-15 0)
(1 1.68216e-15 0)
(1 -6.25643e-16 0)
(1 5.72091e-15 0)
(1 2.07627e-15 0)
(1 6.63822e-16 0)
(1 3.31088e-15 0)
(1 5.86932e-15 0)
(1 4.79382e-15 0)
(1 8.04592e-15 0)
(1 2.79772e-15 0)
(1 1.69073e-15 0)
(1 2.80312e-15 0)
(1 3.11477e-15 0)
(1 3.10474e-16 0)
(1 1.02595e-15 0)
(1 -1.67391e-16 0)
(1 7.16748e-15 0)
(1 2.49267e-15 0)
(1 3.39781e-15 0)
(1 2.75908e-15 0)
(1 4.60886e-15 0)
(1 4.77632e-15 0)
(1 3.66182e-15 0)
(1 5.19706e-15 0)
(1 1.64611e-15 0)
(1 2.03964e-15 0)
(1 -3.42741e-16 0)
(1 1.31604e-15 0)
(1 1.03042e-15 0)
(1 3.62384e-15 0)
(1 -8.27933e-16 0)
(1 3.54662e-15 0)
(1 7.23443e-16 0)
(1 3.53994e-15 0)
(1 4.55696e-15 0)
(1 5.37943e-15 0)
(1 5.08189e-15 0)
(1 8.10794e-16 0)
(1 1.37309e-15 0)
(1 3.43911e-15 0)
(1 5.04553e-15 0)
(1 2.92256e-15 0)
(1 3.44045e-15 0)
(1 4.02072e-16 0)
(1 5.24406e-15 0)
(1 2.37825e-15 0)
(1 2.79177e-16 0)
(1 2.46341e-15 0)
(1 1.73867e-15 0)
(1 3.3178e-17 0)
(1 1.58328e-15 0)
(1 1.40221e-15 0)
(1 4.4162e-15 0)
(1 3.57407e-15 0)
(1 3.49059e-15 0)
(1 2.07646e-16 0)
(1 2.25432e-15 0)
(1 2.78901e-15 0)
(1 -4.76985e-16 0)
(1 -7.21772e-16 0)
(1 -4.25337e-16 0)
(1 1.42542e-15 0)
(1 3.24173e-15 0)
(1 -9.20938e-16 0)
(1 2.44042e-15 0)
(1 3.1061e-15 0)
(1 6.21389e-15 0)
(1 3.47365e-15 0)
(1 8.56052e-16 0)
(1 5.07914e-15 0)
(1 7.22303e-15 0)
(1 5.12572e-15 0)
(1 6.59081e-15 0)
(1 2.59075e-15 0)
(1 6.81003e-15 0)
(1 6.68583e-15 0)
(1 5.89587e-15 0)
(1 7.02177e-15 0)
(1 7.40694e-15 0)
(1 7.89801e-15 0)
(1 7.0445e-15 0)
(1 1.67235e-15 0)
(1 5.24345e-15 0)
(1 5.62737e-15 0)
(1 5.94736e-15 0)
(1 4.21342e-15 0)
(1 7.35143e-15 0)
(1 6.28265e-15 0)
(1 7.78786e-15 0)
(1 4.79584e-15 0)
(1 2.49562e-15 0)
(1 3.67814e-15 0)
(1 1.63777e-15 0)
(1 2.77319e-15 0)
(1 1.94581e-15 0)
(1 8.24558e-16 0)
(1 4.7488e-15 0)
(1 3.82993e-15 0)
(1 3.20478e-16 0)
(1 2.41937e-15 0)
(1 3.55632e-15 0)
(1 4.85451e-16 0)
(1 3.12105e-15 0)
(1 1.98564e-15 0)
(1 1.52701e-15 0)
(1 5.09573e-15 0)
(1 6.44942e-15 0)
(1 4.26244e-15 0)
(1 5.70397e-15 0)
(1 1.24407e-15 0)
(1 3.13702e-15 0)
(1 4.91794e-15 0)
(1 9.93868e-16 0)
(1 6.66486e-16 0)
(1 2.34982e-15 0)
(1 5.66012e-15 0)
(1 5.85444e-15 0)
(1 3.25294e-15 0)
(1 1.46457e-15 0)
(1 3.77299e-15 0)
(1 2.50587e-15 0)
(1 6.15226e-15 0)
(1 4.93538e-15 0)
(1 4.79895e-15 0)
(1 1.48091e-15 0)
(1 1.56922e-16 0)
(1 5.40118e-16 0)
(1 1.19265e-15 0)
(1 5.43428e-16 0)
(1 6.32676e-16 0)
(1 3.13892e-15 0)
(1 2.36062e-15 0)
(1 2.58046e-15 0)
(1 3.2936e-15 0)
(1 2.0785e-15 0)
(1 5.42616e-15 0)
(1 7.12511e-15 0)
(1 2.1534e-15 0)
(1 1.8104e-15 0)
(1 1.2344e-15 0)
(1 4.26817e-15 0)
(1 1.18821e-15 0)
(1 6.18239e-16 0)
(1 2.06738e-16 0)
(1 4.37838e-15 0)
(1 3.00181e-15 0)
(1 5.8958e-15 0)
(1 6.06371e-15 0)
(1 1.51501e-15 0)
(1 -4.15275e-15 0)
(1 6.36009e-15 0)
(1 3.00806e-16 0)
(1 -9.40039e-16 0)
(1 -1.37899e-16 0)
(1 1.91776e-15 0)
(1 3.03296e-15 0)
(1 6.30228e-16 0)
(1 2.22861e-15 0)
(1 -1.1587e-15 0)
(1 -1.10733e-15 0)
(1 3.68019e-15 0)
(1 1.84203e-15 0)
(1 3.3937e-15 0)
(1 -2.86267e-16 0)
(1 2.17206e-15 0)
(1 4.04165e-15 0)
(1 3.94349e-15 0)
(1 4.33467e-15 0)
(1 4.53943e-16 0)
(1 5.23971e-15 0)
(1 3.29126e-15 0)
(1 6.99413e-15 0)
(1 7.29638e-15 0)
(1 5.04351e-15 0)
(1 2.79603e-15 0)
(1 5.58462e-15 0)
(1 6.85731e-15 0)
(1 5.91336e-15 0)
(1 9.4771e-15 0)
(1 8.78396e-15 0)
(1 6.37132e-15 0)
(1 6.95786e-15 0)
(1 4.63145e-15 0)
(1 7.28329e-15 0)
(1 1.34018e-15 0)
(1 3.99941e-15 0)
(1 2.58875e-15 0)
(1 4.7641e-15 0)
(1 5.24898e-15 0)
(1 5.30354e-15 0)
(1 5.13712e-15 0)
(1 3.76598e-15 0)
(1 4.82725e-15 0)
(1 3.30294e-15 0)
(1 2.54754e-15 0)
(1 1.90996e-15 0)
(1 -1.54494e-15 0)
(1 1.74096e-15 0)
(1 2.30515e-15 0)
(1 3.31144e-15 0)
(1 3.7948e-15 0)
(1 3.44622e-15 0)
(1 6.09433e-16 0)
(1 2.64098e-15 0)
(1 5.93715e-15 0)
(1 2.94259e-15 0)
(1 2.0584e-15 0)
(1 1.30056e-15 0)
(1 2.10913e-15 0)
(1 2.91204e-15 0)
(1 4.31201e-15 0)
(1 4.03737e-15 0)
(1 2.31884e-15 0)
(1 4.32993e-15 0)
(1 3.51506e-15 0)
(1 6.4162e-15 0)
(1 2.26803e-15 0)
(1 3.15077e-15 0)
(1 3.79007e-15 0)
(1 1.66231e-15 0)
(1 3.99124e-15 0)
(1 4.76702e-15 0)
(1 1.86489e-15 0)
(1 2.28127e-15 0)
(1 1.0305e-15 0)
(1 -2.88351e-16 0)
(1 4.78277e-16 0)
(1 7.91301e-16 0)
(1 -2.13787e-16 0)
(1 1.92545e-15 0)
(1 3.63874e-15 0)
(1 4.30523e-15 0)
(1 3.66126e-15 0)
(1 1.61801e-15 0)
(1 7.75011e-17 0)
(1 2.25161e-15 0)
(1 4.67776e-15 0)
(1 5.18551e-15 0)
(1 3.79334e-15 0)
(1 2.28856e-15 0)
(1 3.427e-16 0)
(1 2.20044e-15 0)
(1 4.6128e-16 0)
(1 2.84256e-15 0)
(1 -3.37956e-16 0)
(1 1.10974e-15 0)
(1 5.25381e-15 0)
(1 5.0088e-15 0)
(1 3.47345e-15 0)
(1 -2.32114e-16 0)
(1 -1.14189e-17 0)
(1 2.44182e-15 0)
(1 2.28719e-15 0)
(1 -7.75775e-17 0)
(1 3.72832e-15 0)
(1 2.51985e-15 0)
(1 1.05633e-15 0)
(1 -3.18673e-15 0)
(1 5.18268e-16 0)
(1 1.83701e-15 0)
(1 -4.21871e-16 0)
(1 -1.28318e-15 0)
(1 2.69973e-15 0)
(1 -3.55213e-16 0)
(1 3.96268e-15 0)
(1 2.09245e-15 0)
(1 1.70818e-15 0)
(1 2.05305e-15 0)
(1 7.9503e-15 0)
(1 6.99654e-15 0)
(1 3.45714e-15 0)
(1 6.77121e-15 0)
(1 2.22315e-15 0)
(1 8.60522e-15 0)
(1 2.50167e-15 0)
(1 2.84408e-15 0)
(1 2.05415e-15 0)
(1 3.22044e-15 0)
(1 8.41273e-15 0)
(1 9.29257e-15 0)
(1 4.41318e-15 0)
(1 9.65351e-15 0)
(1 6.06831e-15 0)
(1 5.98773e-15 0)
(1 3.65651e-15 0)
(1 3.84901e-15 0)
(1 3.60183e-15 0)
(1 2.64857e-15 0)
(1 2.15092e-15 0)
(1 5.95449e-15 0)
(1 4.78939e-15 0)
(1 3.66651e-15 0)
(1 4.26698e-15 0)
(1 4.13571e-15 0)
(1 1.89077e-15 0)
(1 2.45592e-15 0)
(1 -7.39168e-16 0)
(1 5.00792e-15 0)
(1 4.92326e-15 0)
(1 3.45134e-15 0)
(1 1.91665e-15 0)
(1 4.71294e-15 0)
(1 1.95746e-15 0)
(1 4.55562e-15 0)
(1 3.66129e-15 0)
(1 -4.15431e-16 0)
(1 2.39616e-15 0)
(1 3.30714e-15 0)
(1 6.75955e-16 0)
(1 4.22022e-15 0)
(1 3.84522e-15 0)
(1 2.48468e-15 0)
(1 1.84951e-15 0)
(1 4.77223e-15 0)
(1 4.71589e-15 0)
(1 4.49931e-15 0)
(1 3.51297e-15 0)
(1 2.67737e-15 0)
(1 4.09273e-15 0)
(1 5.15737e-15 0)
(1 3.1071e-15 0)
(1 3.50522e-15 0)
(1 1.25614e-15 0)
(1 4.20303e-15 0)
(1 6.63316e-16 0)
(1 -1.78535e-15 0)
(1 -6.02335e-18 0)
(1 2.46992e-15 0)
(1 7.42883e-16 0)
(1 3.96567e-15 0)
(1 1.12547e-15 0)
(1 4.31619e-15 0)
(1 -1.5314e-16 0)
(1 1.8784e-15 0)
(1 3.52763e-15 0)
(1 3.72628e-16 0)
(1 5.36552e-15 0)
(1 4.99407e-15 0)
(1 4.8053e-15 0)
(1 -1.78881e-15 0)
(1 -2.3968e-15 0)
(1 3.02641e-15 0)
(1 -3.31161e-15 0)
(1 6.49651e-15 0)
(1 4.12139e-17 0)
(1 4.07226e-15 0)
(1 6.40781e-15 0)
(1 4.8643e-16 0)
(1 2.83244e-15 0)
(1 2.54076e-15 0)
(1 -2.2942e-15 0)
(1 -1.76462e-15 0)
(1 -7.89945e-16 0)
(1 1.40358e-15 0)
(1 2.3128e-15 0)
(1 4.17245e-16 0)
(1 9.16142e-17 0)
(1 4.47871e-16 0)
(1 1.23254e-15 0)
(1 6.48423e-16 0)
(1 -8.61314e-17 0)
(1 1.37334e-15 0)
(1 -1.93983e-15 0)
(1 1.1405e-15 0)
(1 3.49901e-15 0)
(1 7.36078e-16 0)
(1 7.50518e-16 0)
(1 2.04646e-15 0)
(1 8.68459e-15 0)
(1 4.48312e-15 0)
(1 6.31073e-15 0)
(1 4.36156e-15 0)
(1 -1.01266e-15 0)
(1 5.69124e-15 0)
(1 2.61159e-15 0)
(1 7.7873e-16 0)
(1 2.40673e-15 0)
(1 5.79413e-15 0)
(1 7.51945e-15 0)
(1 7.4482e-15 0)
(1 7.08326e-15 0)
(1 8.19737e-15 0)
(1 5.11073e-15 0)
(1 6.56245e-15 0)
(1 5.84164e-15 0)
(1 3.86166e-15 0)
(1 5.42012e-15 0)
(1 1.83745e-15 0)
(1 5.12198e-15 0)
(1 3.46332e-15 0)
(1 5.55075e-15 0)
(1 5.06461e-15 0)
(1 4.67019e-15 0)
(1 3.41029e-15 0)
(1 3.71141e-15 0)
(1 2.66246e-15 0)
(1 4.27999e-15 0)
(1 2.81288e-15 0)
(1 1.77627e-15 0)
(1 2.56275e-15 0)
(1 1.24958e-15 0)
(1 3.0639e-15 0)
(1 2.15235e-15 0)
(1 5.12708e-15 0)
(1 1.59494e-15 0)
(1 -1.53587e-15 0)
(1 2.82514e-15 0)
(1 3.51388e-15 0)
(1 9.41961e-16 0)
(1 3.73159e-15 0)
(1 2.69124e-15 0)
(1 2.19638e-15 0)
(1 1.70018e-15 0)
(1 5.01999e-15 0)
(1 4.01184e-15 0)
(1 2.03041e-15 0)
(1 3.21817e-15 0)
(1 2.20289e-15 0)
(1 3.87348e-15 0)
(1 4.84093e-15 0)
(1 4.63147e-15 0)
(1 1.94459e-15 0)
(1 2.58575e-17 0)
(1 2.81337e-15 0)
(1 2.33827e-15 0)
(1 1.39591e-15 0)
(1 -5.64366e-17 0)
(1 2.32866e-15 0)
(1 1.71944e-15 0)
(1 1.47421e-15 0)
(1 2.80517e-15 0)
(1 3.23569e-15 0)
(1 2.4669e-15 0)
(1 2.34433e-15 0)
(1 3.92198e-15 0)
(1 1.95084e-15 0)
(1 4.60582e-16 0)
(1 1.35298e-15 0)
(1 3.15781e-15 0)
(1 1.17241e-15 0)
(1 5.5403e-16 0)
(1 1.03495e-15 0)
(1 -1.20709e-15 0)
(1 2.2753e-15 0)
(1 4.90178e-15 0)
(1 1.90067e-15 0)
(1 4.20386e-16 0)
(1 8.31596e-17 0)
(1 2.29659e-15 0)
(1 2.47638e-15 0)
(1 -1.31902e-15 0)
(1 -4.86265e-16 0)
(1 1.0655e-15 0)
(1 4.61785e-15 0)
(1 -2.52902e-15 0)
(1 -8.45377e-17 0)
(1 -1.96858e-15 0)
(1 1.0808e-15 0)
(1 1.83289e-16 0)
(1 -1.6775e-15 0)
(1 9.549e-16 0)
(1 9.46927e-17 0)
(1 -1.14159e-15 0)
(1 7.06054e-16 0)
(1 -1.03843e-16 0)
(1 1.45899e-15 0)
(1 2.84155e-15 0)
(1 5.04887e-15 0)
(1 2.47823e-15 0)
(1 4.59367e-15 0)
(1 3.42684e-15 0)
(1 2.50037e-15 0)
(1 3.88968e-15 0)
(1 1.87719e-15 0)
(1 7.18795e-16 0)
(1 -3.16335e-15 0)
(1 4.71808e-15 0)
(1 8.78024e-15 0)
(1 8.4071e-15 0)
(1 5.76872e-15 0)
(1 8.90157e-15 0)
(1 7.71687e-15 0)
(1 4.59371e-15 0)
(1 4.80558e-15 0)
(1 3.16523e-15 0)
(1 2.57982e-15 0)
(1 2.21502e-15 0)
(1 2.98051e-15 0)
(1 3.17197e-15 0)
(1 -8.93995e-16 0)
(1 5.77404e-15 0)
(1 4.36431e-15 0)
(1 4.25048e-15 0)
(1 3.50377e-15 0)
(1 3.18928e-15 0)
(1 2.67233e-15 0)
(1 2.08391e-15 0)
(1 -1.24993e-15 0)
(1 1.02715e-15 0)
(1 4.14006e-15 0)
(1 1.45221e-15 0)
(1 2.00424e-15 0)
(1 1.94325e-15 0)
(1 2.81668e-15 0)
(1 1.53008e-15 0)
(1 3.08366e-15 0)
(1 -2.04504e-16 0)
(1 -7.19403e-17 0)
(1 3.68577e-15 0)
(1 2.35095e-15 0)
(1 2.12545e-15 0)
(1 1.55203e-15 0)
(1 3.3367e-15 0)
(1 5.59127e-15 0)
(1 5.23449e-15 0)
(1 2.97258e-15 0)
(1 2.64763e-15 0)
(1 3.385e-15 0)
(1 3.65589e-15 0)
(1 3.48286e-15 0)
(1 2.68559e-15 0)
(1 2.37047e-16 0)
(1 1.6501e-15 0)
(1 -1.05795e-16 0)
(1 2.34793e-15 0)
(1 3.10748e-15 0)
(1 -5.48772e-16 0)
(1 1.55799e-15 0)
(1 3.89777e-16 0)
(1 1.47417e-15 0)
(1 3.53021e-15 0)
(1 3.99362e-15 0)
(1 5.02205e-15 0)
(1 4.38214e-15 0)
(1 2.75663e-16 0)
(1 1.55041e-15 0)
(1 -7.52458e-16 0)
(1 -1.42756e-15 0)
(1 1.01578e-15 0)
(1 5.91789e-15 0)