/*--------------------------------*- C++ -*----------------------------------*\
| =========                 |                                                 |
| \\      /  F ield         | OpenFOAM: The Open Source CFD Toolbox           |
|  \\    /   O peration     | Version:  v2012                                 |
|   \\  /    A nd           | Website:  www.openfoam.com                      |
|    \\/     M anipulation  |                                                 |
\*---------------------------------------------------------------------------*/
FoamFile
{
    version     2.0;
    format      ascii;
    class       volVectorField;
    location    "0";
    object      uRec;
}
// * * * * * * * * * * * * * * * * * * * * * * * * * * * * * * * * * * * * * //

dimensions      [0 1 -1 0 0 0 0];


internalField   nonuniform List<vector> 
4000
(
(1 5.96875e-17 0)
(1 1.14623e-15 0)
(1 -1.17596e-16 0)
(1 2.3616e-16 0)
(1 -2.8753e-17 0)
(1 -6.54459e-16 0)
(1 3.70569e-16 0)
(1 6.1765e-16 0)
(1 7.03186e-16 0)
(1 -2.33325e-16 0)
(1 -1.76507e-16 0)
(1 2.70188e-16 0)
(1 7.08244e-16 0)
(1 5.20899e-16 0)
(1 8.75556e-16 0)
(1 -3.91212e-16 0)
(1 -9.69325e-16 0)
(1 -3.80512e-16 0)
(1 2.16661e-16 0)
(1 -7.98952e-17 0)
(1 -1.77627e-16 0)
(1 -1.04894e-15 0)
(1 1.70228e-16 0)
(1 -2.52886e-16 0)
(1 7.05223e-16 0)
(1 -1.32362e-16 0)
(1 6.93338e-16 0)
(1 3.67432e-16 0)
(1 8.42189e-16 0)
(1 7.71586e-16 0)
(1 3.99662e-16 0)
(1 -9.3715e-16 0)
(1 -6.3833e-16 0)
(1 -4.33484e-16 0)
(1 -8.06064e-17 0)
(1 9.80936e-17 0)
(1 1.10839e-15 0)
(1 8.5176e-16 0)
(1 6.24587e-16 0)
(1 -2.21971e-16 0)
(1 -4.00976e-16 0)
(1 -8.89797e-16 0)
(1 -2.12603e-16 0)
(1 4.32463e-16 0)
(1 6.16357e-16 0)
(1 5.68683e-17 0)
(1 3.96427e-16 0)
(1 2.8434e-16 0)
(1 -2.24107e-16 0)
(1 6.09906e-16 0)
(1 3.92349e-16 0)
(1 8.6202e-16 0)
(1 6.61787e-16 0)
(1 8.13878e-16 0)
(1 6.98909e-16 0)
(1 -1.07462e-16 0)
(1 -1.0994e-16 0)
(1 2.19081e-16 0)
(1 5.35056e-16 0)
(1 9.38935e-16 0)
(1 3.01532e-16 0)
(1 2.08089e-16 0)
(1 5.32799e-16 0)
(1 2.04593e-16 0)
(1 -3.01751e-16 0)
(1 9.68088e-17 0)
(1 -1.78132e-16 0)
(1 8.40825e-16 0)
(1 -1.62466e-16 0)
(1 -3.12454e-16 0)
(1 -6.50786e-16 0)
(1 -4.02548e-17 0)
(1 -5.10745e-16 0)
(1 -4.78292e-16 0)
(1 -8.71908e-16 0)
(1 -3.31351e-16 0)
(1 -2.7966e-16 0)
(1 9.58117e-17 0)
(1 1.1436e-16 0)
(1 2.20935e-16 0)
(1 6.52142e-16 0)
(1 5.72815e-16 0)
(1 -1.30292e-16 0)
(1 -1.64094e-16 0)
(1 -7.82875e-16 0)
(1 -2.02447e-16 0)
(1 3.19786e-16 0)
(1 2.38623e-16 0)
(1 8.34444e-16 0)
(1 1.04053e-15 0)
(1 -1.49012e-17 0)
(1 4.39921e-16 0)
(1 -3.33583e-16 0)
(1 -5.96242e-17 0)
(1 -3.62578e-16 0)
(1 -7.88029e-17 0)
(1 -1.49156e-16 0)
(1 -1.4278e-16 0)
(1 -1.27223e-16 0)
(1 -1.7247e-16 0)
(1 2.38557e-16 0)
(1 1.11435e-15 0)
(1 2.15498e-16 0)
(1 2.45084e-16 0)
(1 3.62691e-16 0)
(1 -6.45247e-16 0)
(1 4.63746e-16 0)
(1 1.03584e-15 0)
(1 1.41859e-15 0)
(1 1.90992e-16 0)
(1 4.06641e-16 0)
(1 2.8254e-16 0)
(1 1.1875e-15 0)
(1 1.01155e-15 0)
(1 1.49719e-15 0)
(1 -8.56624e-17 0)
(1 -1.03904e-15 0)
(1 -7.10218e-18 0)
(1 4.62945e-16 0)
(1 3.4672e-16 0)
(1 1.30331e-16 0)
(1 -1.17407e-15 0)
(1 5.20899e-16 0)
(1 -3.17323e-16 0)
(1 9.5207e-16 0)
(1 -5.86455e-16 0)
(1 3.36799e-16 0)
(1 -1.06264e-16 0)
(1 1.0924e-15 0)
(1 8.50306e-16 0)
(1 7.61626e-16 0)
(1 2.73695e-17 0)
(1 -3.31065e-16 0)
(1 -4.46607e-16 0)
(1 7.06972e-17 0)
(1 2.34012e-16 0)
(1 1.34182e-15 0)
(1 1.1826e-15 0)
(1 7.18069e-17 0)
(1 -4.96505e-16 0)
(1 -8.29511e-16 0)
(1 -6.86879e-16 0)
(1 2.89883e-17 0)
(1 8.22704e-16 0)
(1 1.49456e-15 0)
(1 3.21342e-16 0)
(1 9.65418e-16 0)
(1 8.44376e-16 0)
(1 1.04847e-15 0)
(1 4.97433e-16 0)
(1 1.13728e-16 0)
(1 6.2855e-16 0)
(1 1.39849e-15 0)
(1 1.21429e-15 0)
(1 1.33856e-15 0)
(1 1.10864e-15 0)
(1 8.48055e-16 0)
(1 1.43762e-15 0)
(1 5.44399e-16 0)
(1 6.07091e-16 0)
(1 -6.00926e-17 0)
(1 5.52042e-17 0)
(1 1.14046e-15 0)
(1 8.67142e-16 0)
(1 1.91913e-16 0)
(1 2.13146e-17 0)
(1 -5.6616e-16 0)
(1 4.59141e-16 0)
(1 -5.02906e-17 0)
(1 -3.98016e-16 0)
(1 2.19423e-16 0)
(1 1.91414e-16 0)
(1 7.18654e-16 0)
(1 9.59982e-17 0)
(1 7.23182e-16 0)
(1 1.03962e-16 0)
(1 2.29089e-16 0)
(1 6.99217e-16 0)
(1 1.00737e-15 0)
(1 8.52408e-16 0)
(1 7.79568e-16 0)
(1 1.35886e-16 0)
(1 3.32829e-17 0)
(1 7.28281e-17 0)
(1 -2.18926e-16 0)
(1 3.20272e-16 0)
(1 2.04613e-16 0)
(1 7.14747e-17 0)
(1 1.70857e-16 0)
(1 7.27238e-16 0)
(1 1.52798e-16 0)
(1 3.57401e-16 0)
(1 -3.17057e-16 0)
(1 2.54318e-16 0)
(1 -5.93633e-16 0)
(1 5.27844e-16 0)
(1 -1.89918e-16 0)
(1 2.79e-16 0)
(1 -5.30752e-16 0)
(1 -8.37258e-16 0)
(1 5.06227e-18 0)
(1 -3.83559e-17 0)
(1 -2.06738e-17 0)
(1 1.59676e-16 0)
(1 7.60074e-16 0)
(1 9.16969e-16 0)
(1 1.37432e-15 0)
(1 1.8713e-15 0)
(1 1.31525e-15 0)
(1 7.99942e-16 0)
(1 1.13474e-15 0)
(1 9.43225e-16 0)
(1 1.75077e-15 0)
(1 2.40008e-15 0)
(1 9.34971e-16 0)
(1 1.70385e-18 0)
(1 -7.15124e-17 0)
(1 3.21466e-16 0)
(1 4.64426e-16 0)
(1 1.21857e-15 0)
(1 2.71313e-16 0)
(1 4.66346e-16 0)
(1 -7.62171e-17 0)
(1 3.61825e-16 0)
(1 5.97162e-16 0)
(1 4.73459e-16 0)
(1 1.05823e-15 0)
(1 4.10191e-16 0)
(1 1.91839e-15 0)
(1 1.17034e-15 0)
(1 1.36566e-15 0)
(1 4.72239e-16 0)
(1 3.85091e-16 0)
(1 -4.98673e-17 0)
(1 2.85199e-17 0)
(1 -1.03215e-16 0)
(1 -3.16335e-16 0)
(1 4.05572e-16 0)
(1 7.78052e-17 0)
(1 -5.15497e-16 0)
(1 -2.2166e-16 0)
(1 -2.59607e-16 0)
(1 1.68795e-17 0)
(1 3.02035e-16 0)
(1 1.1283e-15 0)
(1 1.50524e-15 0)
(1 1.89498e-15 0)
(1 1.88731e-15 0)
(1 1.82098e-15 0)
(1 1.0158e-15 0)
(1 1.69e-15 0)
(1 1.31055e-15 0)
(1 1.98842e-15 0)
(1 1.05689e-15 0)
(1 1.63316e-15 0)
(1 2.0764e-15 0)
(1 1.7856e-15 0)
(1 1.68148e-15 0)
(1 1.06079e-15 0)
(1 4.17043e-16 0)
(1 6.88629e-16 0)
(1 3.98707e-16 0)
(1 1.23792e-15 0)
(1 7.91674e-16 0)
(1 8.36018e-16 0)
(1 3.70031e-16 0)
(1 2.59476e-16 0)
(1 2.31396e-16 0)
(1 4.47255e-16 0)
(1 2.37335e-16 0)
(1 1.95626e-16 0)
(1 -1.97626e-16 0)
(1 2.58396e-16 0)
(1 1.63403e-16 0)
(1 3.86423e-16 0)
(1 1.27193e-16 0)
(1 -1.04836e-16 0)
(1 3.87924e-16 0)
(1 7.62851e-16 0)
(1 5.57859e-16 0)
(1 3.4168e-16 0)
(1 -3.34682e-16 0)
(1 3.57113e-16 0)
(1 1.05459e-16 0)
(1 9.21578e-16 0)
(1 5.03444e-16 0)
(1 2.30047e-16 0)
(1 2.42612e-16 0)
(1 -2.9418e-16 0)
(1 2.93054e-16 0)
(1 -1.19532e-16 0)
(1 4.83017e-16 0)
(1 3.78613e-17 0)
(1 8.28434e-16 0)
(1 6.15313e-17 0)
(1 3.6786e-16 0)
(1 -3.17131e-16 0)
(1 -6.62048e-17 0)
(1 -4.26464e-16 0)
(1 -6.25978e-16 0)
(1 5.33527e-16 0)
(1 -7.81764e-16 0)
(1 2.29227e-17 0)
(1 -6.46138e-16 0)
(1 1.55857e-15 0)
(1 1.48461e-15 0)
(1 2.36902e-15 0)
(1 1.60175e-15 0)
(1 9.92495e-16 0)
(1 9.49362e-16 0)
(1 1.84869e-15 0)
(1 2.03183e-15 0)
(1 2.19801e-15 0)
(1 2.86231e-15 0)
(1 2.19352e-15 0)
(1 9.45674e-16 0)
(1 7.84321e-16 0)
(1 -7.96829e-16 0)
(1 -2.45454e-16 0)
(1 1.06502e-15 0)
(1 8.96853e-16 0)
(1 1.23412e-15 0)
(1 7.31989e-16 0)
(1 1.53039e-15 0)
(1 1.23549e-15 0)
(1 2.22424e-15 0)
(1 1.80608e-15 0)
(1 1.47114e-15 0)
(1 2.09345e-15 0)
(1 1.06563e-15 0)
(1 1.01498e-15 0)
(1 -5.60998e-16 0)
(1 -1.05045e-16 0)
(1 -2.73055e-16 0)
(1 3.27104e-16 0)
(1 -1.17622e-16 0)
(1 -2.96147e-18 0)
(1 -1.8146e-16 0)
(1 1.14702e-15 0)
(1 1.30691e-16 0)
(1 1.12553e-15 0)
(1 2.25872e-16 0)
(1 4.72413e-16 0)
(1 3.15047e-16 0)
(1 7.67383e-16 0)
(1 2.65888e-15 0)
(1 2.70825e-15 0)
(1 2.90276e-15 0)
(1 2.26298e-15 0)
(1 2.46289e-15 0)
(1 2.47733e-15 0)
(1 2.05468e-15 0)
(1 1.70632e-15 0)
(1 1.67738e-15 0)
(1 1.95875e-15 0)
(1 1.90801e-15 0)
(1 1.80747e-15 0)
(1 1.60261e-15 0)
(1 1.59919e-15 0)
(1 1.37588e-15 0)
(1 1.82328e-15 0)
(1 1.32825e-15 0)
(1 1.3246e-15 0)
(1 1.41137e-15 0)
(1 1.13469e-15 0)
(1 9.85579e-16 0)
(1 4.65015e-16 0)
(1 9.83333e-17 0)
(1 -4.01781e-16 0)
(1 -4.49643e-16 0)
(1 -4.05489e-16 0)
(1 2.34104e-16 0)
(1 -2.40544e-17 0)
(1 -1.49491e-17 0)
(1 -2.24877e-16 0)
(1 1.41133e-16 0)
(1 9.34031e-16 0)
(1 7.03858e-16 0)
(1 8.00764e-16 0)
(1 3.34437e-16 0)
(1 8.91092e-16 0)
(1 7.50871e-16 0)
(1 2.66342e-16 0)
(1 2.37456e-16 0)
(1 6.92787e-16 0)
(1 8.09143e-16 0)
(1 1.568e-15 0)
(1 1.08814e-15 0)
(1 1.1808e-15 0)
(1 1.05333e-15 0)
(1 2.02556e-16 0)
(1 5.87193e-16 0)
(1 5.14295e-16 0)
(1 7.3364e-16 0)
(1 2.1974e-16 0)
(1 -1.66048e-16 0)
(1 -9.76544e-16 0)
(1 -9.85285e-16 0)
(1 -9.86769e-16 0)
(1 -2.66752e-16 0)
(1 8.71412e-16 0)
(1 1.14945e-16 0)
(1 5.73237e-16 0)
(1 -9.78902e-17 0)
(1 1.84352e-15 0)
(1 1.42128e-15 0)
(1 1.26484e-15 0)
(1 9.58064e-16 0)
(1 1.2042e-15 0)
(1 1.38897e-15 0)
(1 2.6714e-15 0)
(1 2.43102e-15 0)
(1 2.47521e-15 0)
(1 7.63641e-16 0)
(1 2.89077e-15 0)
(1 1.98282e-15 0)
(1 1.64087e-15 0)
(1 -8.33076e-18 0)
(1 -1.22667e-16 0)
(1 -6.39177e-16 0)
(1 1.08064e-15 0)
(1 1.09738e-15 0)
(1 1.89693e-15 0)
(1 1.82322e-15 0)
(1 2.07158e-15 0)
(1 1.76024e-15 0)
(1 1.30279e-15 0)
(1 1.54712e-15 0)
(1 1.5933e-15 0)
(1 8.35576e-16 0)
(1 7.06174e-16 0)
(1 1.23979e-15 0)
(1 4.7719e-16 0)
(1 5.63874e-16 0)
(1 -9.21413e-16 0)
(1 -8.39227e-16 0)
(1 -4.40296e-16 0)
(1 -7.45585e-16 0)
(1 -2.41646e-16 0)
(1 3.51655e-16 0)
(1 6.74326e-16 0)
(1 3.44524e-16 0)
(1 7.69109e-16 0)
(1 1.17753e-15 0)
(1 1.39446e-15 0)
(1 2.58013e-15 0)
(1 2.66407e-15 0)
(1 3.80025e-15 0)
(1 3.25953e-15 0)
(1 2.89526e-15 0)
(1 1.99302e-15 0)
(1 1.99064e-15 0)
(1 1.50519e-15 0)
(1 2.55022e-15 0)
(1 2.6035e-15 0)
(1 2.75554e-15 0)
(1 2.80676e-15 0)
(1 2.24722e-15 0)
(1 1.77605e-15 0)
(1 1.84896e-15 0)
(1 1.72807e-15 0)
(1 1.60708e-15 0)
(1 1.80065e-15 0)
(1 2.07262e-15 0)
(1 2.27584e-15 0)
(1 1.59647e-15 0)
(1 1.12409e-15 0)
(1 5.28012e-17 0)
(1 1.23135e-16 0)
(1 6.95029e-17 0)
(1 1.15033e-16 0)
(1 5.70416e-16 0)
(1 9.24158e-16 0)
(1 3.35817e-16 0)
(1 9.13679e-16 0)
(1 2.54726e-16 0)
(1 1.31647e-15 0)
(1 1.49561e-15 0)
(1 1.59536e-15 0)
(1 1.14494e-15 0)
(1 6.64261e-16 0)
(1 6.0654e-16 0)
(1 3.37353e-16 0)
(1 9.19989e-16 0)
(1 1.02978e-15 0)
(1 1.24127e-15 0)
(1 1.26957e-15 0)
(1 5.85553e-16 0)
(1 1.01542e-15 0)
(1 3.07658e-16 0)
(1 1.10041e-15 0)
(1 -1.90047e-17 0)
(1 8.82911e-16 0)
(1 5.61994e-16 0)
(1 6.51263e-16 0)
(1 9.19572e-17 0)
(1 -2.69521e-16 0)
(1 -1.81579e-16 0)
(1 -3.11187e-16 0)
(1 3.69418e-16 0)
(1 -9.55377e-17 0)
(1 8.25772e-16 0)
(1 7.21848e-16 0)
(1 1.65419e-15 0)
(1 1.11464e-15 0)
(1 9.95657e-16 0)
(1 6.39531e-16 0)
(1 8.93536e-16 0)
(1 1.9538e-15 0)
(1 2.28062e-15 0)
(1 2.5911e-15 0)
(1 3.31004e-15 0)
(1 2.68224e-15 0)
(1 1.18158e-15 0)
(1 2.16812e-15 0)
(1 1.93313e-15 0)
(1 1.83384e-15 0)
(1 1.37117e-15 0)
(1 8.35095e-16 0)
(1 -1.26317e-16 0)
(1 1.65787e-15 0)
(1 2.66202e-15 0)
(1 2.45353e-15 0)
(1 1.2005e-15 0)
(1 9.35574e-16 0)
(1 4.9275e-16 0)
(1 7.42695e-16 0)
(1 1.7035e-15 0)
(1 1.43921e-15 0)
(1 2.5067e-15 0)
(1 6.3717e-16 0)
(1 1.67858e-15 0)
(1 3.43084e-16 0)
(1 5.91444e-16 0)
(1 -9.57716e-16 0)
(1 6.21366e-16 0)
(1 6.98781e-17 0)
(1 9.9357e-16 0)
(1 -5.47261e-16 0)
(1 3.83649e-16 0)
(1 8.55212e-17 0)
(1 1.24283e-15 0)
(1 1.57608e-15 0)
(1 2.6569e-15 0)
(1 2.80571e-15 0)
(1 1.91814e-15 0)
(1 2.10548e-15 0)
(1 2.70135e-15 0)
(1 3.4767e-15 0)
(1 3.66876e-15 0)
(1 3.50017e-15 0)
(1 3.04393e-15 0)
(1 2.43748e-15 0)
(1 2.71282e-15 0)
(1 3.0862e-15 0)
(1 2.8666e-15 0)
(1 2.93032e-15 0)
(1 2.54019e-15 0)
(1 3.13382e-15 0)
(1 3.59025e-15 0)
(1 2.98824e-15 0)
(1 2.04582e-15 0)
(1 1.28138e-15 0)
(1 1.58341e-15 0)
(1 2.38358e-15 0)
(1 2.44858e-15 0)
(1 2.64293e-15 0)
(1 2.23243e-15 0)
(1 2.68252e-15 0)
(1 2.73741e-15 0)
(1 1.80231e-15 0)
(1 5.69334e-16 0)
(1 5.13467e-16 0)
(1 2.22345e-16 0)
(1 -3.20327e-16 0)
(1 -6.12092e-16 0)
(1 -1.79131e-16 0)
(1 1.11614e-15 0)
(1 1.42916e-15 0)
(1 2.14512e-15 0)
(1 1.11773e-15 0)
(1 1.69816e-15 0)
(1 1.31717e-15 0)
(1 9.05268e-16 0)
(1 9.29152e-17 0)
(1 4.8097e-16 0)
(1 5.26838e-16 0)
(1 3.95076e-16 0)
(1 2.11294e-16 0)
(1 5.47901e-16 0)
(1 5.15627e-16 0)
(1 8.84406e-16 0)
(1 1.01229e-15 0)
(1 1.12438e-15 0)
(1 1.4296e-15 0)
(1 4.70935e-16 0)
(1 1.19912e-15 0)
(1 7.3319e-16 0)
(1 1.58517e-15 0)
(1 1.36838e-15 0)
(1 -3.73508e-16 0)
(1 5.62062e-16 0)
(1 1.30101e-15 0)
(1 2.21832e-15 0)
(1 1.6562e-15 0)
(1 9.02471e-16 0)
(1 1.05523e-15 0)
(1 1.25668e-15 0)
(1 2.51398e-15 0)
(1 2.34476e-15 0)
(1 2.35676e-15 0)
(1 2.33346e-15 0)
(1 1.95276e-15 0)
(1 2.76976e-15 0)
(1 1.92197e-15 0)
(1 2.26354e-15 0)
(1 2.63421e-15 0)
(1 1.72029e-15 0)
(1 2.08306e-15 0)
(1 2.44313e-15 0)
(1 1.97545e-15 0)
(1 1.67446e-15 0)
(1 1.21789e-15 0)
(1 9.50614e-16 0)
(1 -9.61259e-18 0)
(1 -3.23964e-16 0)
(1 4.49735e-16 0)
(1 9.87424e-16 0)
(1 1.72161e-15 0)
(1 2.1036e-15 0)
(1 2.06194e-15 0)
(1 1.15536e-15 0)
(1 4.79997e-16 0)
(1 -8.31878e-16 0)
(1 4.00178e-17 0)
(1 9.42602e-16 0)
(1 1.08977e-15 0)
(1 1.23051e-15 0)
(1 7.84403e-16 0)
(1 6.78234e-16 0)
(1 6.79381e-16 0)
(1 1.90568e-15 0)
(1 2.89647e-15 0)
(1 3.52406e-15 0)
(1 2.25432e-15 0)
(1 1.81494e-15 0)
(1 1.85755e-15 0)
(1 2.3744e-15 0)
(1 3.75202e-15 0)
(1 3.81915e-15 0)
(1 4.15716e-15 0)
(1 2.84765e-15 0)
(1 3.17378e-15 0)
(1 2.70571e-15 0)
(1 2.95693e-15 0)
(1 3.26218e-15 0)
(1 3.18732e-15 0)
(1 2.92483e-15 0)
(1 2.92515e-15 0)
(1 3.29109e-15 0)
(1 3.37709e-15 0)
(1 3.46355e-15 0)
(1 2.62522e-15 0)
(1 2.35073e-15 0)
(1 1.59961e-15 0)
(1 1.60095e-15 0)
(1 1.40049e-15 0)
(1 1.86206e-15 0)
(1 1.66376e-15 0)
(1 1.26558e-15 0)
(1 1.80552e-15 0)
(1 7.70383e-16 0)
(1 3.34472e-16 0)
(1 8.92663e-16 0)
(1 1.17722e-15 0)
(1 1.5762e-15 0)
(1 1.73917e-15 0)
(1 1.8531e-15 0)
(1 1.57541e-15 0)
(1 1.45134e-15 0)
(1 1.78937e-15 0)
(1 1.79794e-15 0)
(1 1.49893e-15 0)
(1 1.31414e-15 0)
(1 8.64927e-16 0)
(1 1.42898e-15 0)
(1 1.51913e-15 0)
(1 1.64162e-15 0)
(1 8.38205e-16 0)
(1 1.45261e-15 0)
(1 9.91182e-16 0)
(1 1.98401e-15 0)
(1 1.37626e-15 0)
(1 1.53742e-15 0)
(1 1.24214e-15 0)
(1 1.49608e-15 0)
(1 1.56111e-15 0)
(1 1.60294e-15 0)
(1 1.55601e-15 0)
(1 1.36951e-15 0)
(1 -8.28282e-17 0)
(1 6.57413e-16 0)
(1 4.26428e-16 0)
(1 1.68039e-15 0)
(1 1.68543e-15 0)
(1 2.1946e-15 0)
(1 1.8408e-15 0)
(1 1.94098e-15 0)
(1 2.18823e-15 0)
(1 1.85619e-15 0)
(1 1.88487e-15 0)
(1 1.10839e-15 0)
(1 2.31856e-15 0)
(1 3.84785e-15 0)
(1 2.98177e-15 0)
(1 3.23202e-15 0)
(1 2.75659e-15 0)
(1 2.95061e-15 0)
(1 3.17847e-15 0)
(1 2.13648e-15 0)
(1 6.61141e-16 0)
(1 -1.33212e-16 0)
(1 -8.4418e-16 0)
(1 -4.16001e-16 0)
(1 -2.58371e-16 0)
(1 5.52508e-16 0)
(1 1.14993e-15 0)
(1 1.4163e-15 0)
(1 1.81787e-15 0)
(1 7.05676e-16 0)
(1 2.05766e-15 0)
(1 5.36112e-16 0)
(1 3.1588e-16 0)
(1 3.9823e-16 0)
(1 1.26418e-15 0)
(1 -5.9161e-17 0)
(1 8.17862e-16 0)
(1 4.6657e-16 0)
(1 1.51148e-15 0)
(1 6.52289e-16 0)
(1 1.23925e-15 0)
(1 9.08666e-16 0)
(1 1.69701e-15 0)
(1 2.48116e-15 0)
(1 2.92632e-15 0)
(1 3.67898e-15 0)
(1 3.33707e-15 0)
(1 3.70014e-15 0)
(1 3.35206e-15 0)
(1 3.49338e-15 0)
(1 3.945e-15 0)
(1 3.76975e-15 0)
(1 4.52565e-15 0)
(1 4.17219e-15 0)
(1 3.86193e-15 0)
(1 3.77599e-15 0)
(1 3.9697e-15 0)
(1 2.88976e-15 0)
(1 2.93212e-15 0)
(1 2.33041e-15 0)
(1 2.93939e-15 0)
(1 4.25378e-15 0)
(1 4.50688e-15 0)
(1 3.59558e-15 0)
(1 2.28285e-15 0)
(1 2.43014e-15 0)
(1 2.86173e-15 0)
(1 1.93249e-15 0)
(1 1.55582e-15 0)
(1 1.30888e-15 0)
(1 1.86394e-15 0)
(1 1.85895e-15 0)
(1 1.5449e-15 0)
(1 1.16742e-15 0)
(1 1.56161e-15 0)
(1 2.47011e-15 0)
(1 2.31467e-15 0)
(1 1.62475e-15 0)
(1 1.12453e-15 0)
(1 9.26507e-16 0)
(1 1.12826e-15 0)
(1 4.64764e-16 0)
(1 8.36617e-16 0)
(1 1.47668e-15 0)
(1 1.55196e-15 0)
(1 1.49888e-15 0)
(1 1.09048e-15 0)
(1 1.00796e-15 0)
(1 1.03896e-15 0)
(1 8.85672e-16 0)
(1 1.40119e-15 0)
(1 1.54116e-15 0)
(1 1.42129e-15 0)
(1 1.39098e-15 0)
(1 1.56493e-15 0)
(1 1.49938e-15 0)
(1 9.51273e-16 0)
(1 1.9221e-15 0)
(1 1.698e-15 0)
(1 2.36084e-15 0)
(1 2.28538e-16 0)
(1 1.48476e-16 0)
(1 1.03645e-15 0)
(1 8.68941e-17 0)
(1 1.23065e-15 0)
(1 2.15822e-15 0)
(1 2.34777e-15 0)
(1 2.46377e-15 0)
(1 9.39588e-16 0)
(1 2.05744e-15 0)
(1 2.14669e-15 0)
(1 2.68898e-15 0)
(1 3.28458e-15 0)
(1 4.25048e-15 0)
(1 3.18382e-15 0)
(1 3.43673e-15 0)
(1 1.77824e-15 0)
(1 3.29166e-15 0)
(1 2.38804e-15 0)
(1 1.32279e-15 0)
(1 -3.70928e-16 0)
(1 1.05377e-15 0)
(1 7.48205e-16 0)
(1 1.34779e-15 0)
(1 5.97894e-16 0)
(1 5.86748e-16 0)
(1 3.39086e-16 0)
(1 7.7533e-16 0)
(1 -4.92521e-16 0)
(1 6.16441e-16 0)
(1 -7.36901e-16 0)
(1 -2.8192e-16 0)
(1 -5.10626e-16 0)
(1 7.42057e-16 0)
(1 1.41779e-15 0)
(1 1.24075e-15 0)
(1 1.25715e-15 0)
(1 1.48599e-15 0)
(1 1.56254e-15 0)
(1 1.00746e-15 0)
(1 1.11639e-15 0)
(1 2.18383e-15 0)
(1 2.4525e-15 0)
(1 3.22972e-15 0)
(1 5.01624e-15 0)
(1 4.50223e-15 0)
(1 4.26618e-15 0)
(1 2.79279e-15 0)
(1 2.77673e-15 0)
(1 2.80231e-15 0)
(1 3.42435e-15 0)
(1 4.61054e-15 0)
(1 4.39394e-15 0)
(1 5.05834e-15 0)
(1 4.33847e-15 0)
(1 3.68962e-15 0)
(1 4.07877e-15 0)
(1 3.68409e-15 0)
(1 4.41155e-15 0)
(1 3.65085e-15 0)
(1 3.39615e-15 0)
(1 3.49822e-15 0)
(1 1.96462e-15 0)
(1 2.38858e-15 0)
(1 1.88011e-15 0)
(1 3.38844e-15 0)
(1 3.73944e-15 0)
(1 4.8008e-15 0)
(1 4.30574e-15 0)
(1 3.86387e-15 0)
(1 2.84177e-15 0)
(1 2.49161e-15 0)
(1 2.1477e-15 0)
(1 9.24192e-16 0)
(1 1.25137e-16 0)
(1 9.41341e-16 0)
(1 1.81479e-15 0)
(1 2.11716e-15 0)
(1 1.7211e-15 0)
(1 2.29301e-15 0)
(1 1.63309e-15 0)
(1 1.96755e-15 0)
(1 1.41445e-15 0)
(1 1.23927e-15 0)
(1 4.21083e-16 0)
(1 -6.70454e-17 0)
(1 3.33337e-16 0)
(1 8.17624e-16 0)
(1 1.32091e-15 0)
(1 1.15363e-15 0)
(1 1.34276e-15 0)
(1 1.41946e-15 0)
(1 2.00198e-15 0)
(1 2.27074e-15 0)
(1 2.85435e-15 0)
(1 2.63374e-15 0)
(1 3.09622e-15 0)
(1 3.21117e-15 0)
(1 3.93986e-15 0)
(1 3.93893e-15 0)
(1 4.38216e-16 0)
(1 1.02313e-15 0)
(1 2.22269e-15 0)
(1 1.32632e-15 0)
(1 1.03665e-15 0)
(1 1.35899e-15 0)
(1 2.43206e-15 0)
(1 2.28421e-15 0)
(1 2.27083e-15 0)
(1 2.7511e-15 0)
(1 3.14961e-15 0)
(1 3.62668e-15 0)
(1 3.3557e-15 0)
(1 2.2343e-15 0)
(1 2.19936e-15 0)
(1 1.63143e-15 0)
(1 1.40718e-15 0)
(1 2.59833e-15 0)
(1 1.32662e-15 0)
(1 1.51062e-15 0)
(1 7.38757e-17 0)
(1 -3.62377e-17 0)
(1 1.10483e-15 0)
(1 1.74161e-15 0)
(1 1.76642e-15 0)
(1 1.77203e-15 0)
(1 1.337e-15 0)
(1 6.45427e-16 0)
(1 -1.40227e-17 0)
(1 8.58462e-17 0)
(1 -9.21353e-16 0)
(1 3.05192e-16 0)
(1 -1.18644e-16 0)
(1 5.06061e-16 0)
(1 -5.95684e-16 0)
(1 5.10022e-16 0)
(1 6.41226e-18 0)
(1 1.14462e-15 0)
(1 3.39382e-16 0)
(1 1.6123e-15 0)
(1 1.38309e-15 0)
(1 2.90694e-15 0)
(1 2.90486e-15 0)
(1 3.07757e-15 0)
(1 3.23549e-15 0)
(1 2.71293e-15 0)
(1 3.12926e-15 0)
(1 2.69714e-15 0)
(1 3.58383e-15 0)
(1 4.32194e-15 0)
(1 4.63165e-15 0)
(1 4.98277e-15 0)
(1 4.86612e-15 0)
(1 4.62676e-15 0)
(1 4.95469e-15 0)
(1 4.50948e-15 0)
(1 3.92009e-15 0)
(1 3.98177e-15 0)
(1 4.11894e-15 0)
(1 4.78494e-15 0)
(1 4.3599e-15 0)
(1 3.91602e-15 0)
(1 4.05113e-15 0)
(1 3.49876e-15 0)
(1 3.51688e-15 0)
(1 2.8344e-15 0)
(1 3.33415e-15 0)
(1 3.97568e-15 0)
(1 4.59103e-15 0)
(1 3.67883e-15 0)
(1 2.00377e-15 0)
(1 1.96004e-15 0)
(1 1.35497e-15 0)
(1 1.1875e-15 0)
(1 9.76899e-16 0)
(1 1.82306e-15 0)
(1 2.70275e-15 0)
(1 2.62648e-15 0)
(1 2.33033e-15 0)
(1 2.01072e-15 0)
(1 1.80687e-15 0)
(1 1.51045e-15 0)
(1 7.83923e-16 0)
(1 4.7074e-16 0)
(1 5.95605e-16 0)
(1 6.61207e-16 0)
(1 1.42156e-15 0)
(1 1.37688e-15 0)
(1 1.45385e-15 0)
(1 8.49801e-16 0)
(1 2.11382e-15 0)
(1 1.36691e-15 0)
(1 2.29165e-15 0)
(1 2.27802e-15 0)
(1 3.21887e-15 0)
(1 1.9312e-15 0)
(1 2.87345e-15 0)
(1 3.00381e-15 0)
(1 5.26862e-15 0)
(1 4.40722e-15 0)
(1 1.68797e-16 0)
(1 9.82817e-16 0)
(1 9.53032e-16 0)
(1 1.85821e-15 0)
(1 5.55517e-16 0)
(1 1.51906e-15 0)
(1 2.07591e-15 0)
(1 1.48744e-15 0)
(1 3.06206e-15 0)
(1 2.40225e-15 0)
(1 2.01728e-15 0)
(1 2.50456e-15 0)
(1 2.83534e-15 0)
(1 1.60516e-15 0)
(1 2.47362e-15 0)
(1 1.87048e-15 0)
(1 3.55021e-15 0)
(1 2.05551e-15 0)
(1 1.93175e-15 0)
(1 1.34753e-15 0)
(1 9.82057e-16 0)
(1 6.77044e-16 0)
(1 3.47779e-16 0)
(1 -1.56749e-17 0)
(1 2.37119e-16 0)
(1 1.3611e-15 0)
(1 2.17467e-15 0)
(1 9.98368e-16 0)
(1 6.56136e-16 0)
(1 -6.76254e-16 0)
(1 -1.08691e-15 0)
(1 -4.75215e-16 0)
(1 -4.39091e-16 0)
(1 6.79118e-16 0)
(1 6.19268e-16 0)
(1 8.14056e-16 0)
(1 8.2128e-16 0)
(1 5.32443e-16 0)
(1 5.11614e-16 0)
(1 1.19752e-15 0)
(1 2.54392e-15 0)
(1 1.6274e-15 0)
(1 2.77928e-15 0)
(1 1.53406e-15 0)
(1 2.58644e-15 0)
(1 2.40538e-15 0)
(1 3.68901e-15 0)
(1 3.38341e-15 0)
(1 4.46096e-15 0)
(1 5.17708e-15 0)
(1 5.69136e-15 0)
(1 5.22441e-15 0)
(1 5.73695e-15 0)
(1 4.69988e-15 0)
(1 5.07001e-15 0)
(1 4.35418e-15 0)
(1 4.2426e-15 0)
(1 3.65625e-15 0)
(1 4.34255e-15 0)
(1 3.82545e-15 0)
(1 5.04945e-15 0)
(1 3.49176e-15 0)
(1 4.84981e-15 0)
(1 3.39087e-15 0)
(1 3.61509e-15 0)
(1 2.82079e-15 0)
(1 3.73203e-15 0)
(1 2.47473e-15 0)
(1 2.86896e-15 0)
(1 2.73963e-15 0)
(1 3.21434e-15 0)
(1 2.64205e-15 0)
(1 1.5914e-15 0)
(1 5.9088e-16 0)
(1 1.0521e-15 0)
(1 1.8182e-15 0)
(1 3.21452e-15 0)
(1 2.15655e-15 0)
(1 2.64887e-15 0)
(1 1.97203e-15 0)
(1 2.16914e-15 0)
(1 1.43238e-15 0)
(1 2.06191e-15 0)
(1 7.55431e-16 0)
(1 8.54706e-16 0)
(1 9.95882e-16 0)
(1 1.34164e-15 0)
(1 8.98821e-16 0)
(1 1.47389e-15 0)
(1 7.26056e-16 0)
(1 1.97707e-15 0)
(1 8.4334e-16 0)
(1 2.01953e-15 0)
(1 1.4258e-15 0)
(1 2.2384e-15 0)
(1 1.86368e-15 0)
(1 2.52737e-15 0)
(1 2.77644e-15 0)
(1 3.25839e-15 0)
(1 3.10061e-15 0)
(1 7.05631e-16 0)
(1 5.86748e-17 0)
(1 1.35843e-15 0)
(1 1.73024e-15 0)
(1 1.16666e-15 0)
(1 1.50892e-15 0)
(1 5.48729e-16 0)
(1 2.41584e-15 0)
(1 2.71583e-15 0)
(1 4.34235e-15 0)
(1 3.64024e-15 0)
(1 2.69952e-15 0)
(1 2.34015e-15 0)
(1 2.00732e-15 0)
(1 1.98693e-15 0)
(1 2.14367e-15 0)
(1 2.83542e-15 0)
(1 1.17757e-16 0)
(1 1.23666e-15 0)
(1 -2.88748e-16 0)
(1 7.80602e-16 0)
(1 1.2431e-15 0)
(1 1.8722e-15 0)
(1 2.12154e-15 0)
(1 1.98881e-15 0)
(1 8.96777e-16 0)
(1 2.54574e-16 0)
(1 3.9753e-16 0)
(1 1.0045e-15 0)
(1 3.87943e-16 0)
(1 -8.03655e-17 0)
(1 -8.77617e-16 0)
(1 -8.49892e-16 0)
(1 -1.08348e-15 0)
(1 -9.69231e-17 0)
(1 -9.05974e-16 0)
(1 4.04108e-16 0)
(1 2.22754e-16 0)
(1 1.06031e-15 0)
(1 7.76509e-16 0)
(1 1.93995e-15 0)
(1 1.39451e-15 0)
(1 1.67705e-15 0)
(1 1.1674e-15 0)
(1 2.35554e-15 0)
(1 3.76594e-15 0)
(1 4.84131e-15 0)
(1 4.48609e-15 0)
(1 5.02357e-15 0)
(1 4.6432e-15 0)
(1 4.79129e-15 0)
(1 4.70977e-15 0)
(1 4.73047e-15 0)
(1 5.16856e-15 0)
(1 5.31263e-15 0)
(1 4.10657e-15 0)
(1 3.8176e-15 0)
(1 3.75451e-15 0)
(1 4.32309e-15 0)
(1 3.9215e-15 0)
(1 5.43889e-15 0)
(1 5.27935e-15 0)
(1 4.70162e-15 0)
(1 3.36927e-15 0)
(1 3.3787e-15 0)
(1 2.64535e-15 0)
(1 2.65449e-15 0)
(1 2.7128e-15 0)
(1 1.80262e-15 0)
(1 2.38306e-15 0)
(1 3.52888e-15 0)
(1 3.01969e-15 0)
(1 1.7857e-15 0)
(1 1.06772e-15 0)
(1 1.44815e-15 0)
(1 1.26932e-15 0)
(1 1.93049e-15 0)
(1 1.87798e-15 0)
(1 2.39253e-15 0)
(1 2.20398e-15 0)
(1 2.39745e-15 0)
(1 2.63891e-15 0)
(1 2.20587e-15 0)
(1 1.60298e-15 0)
(1 8.03785e-16 0)
(1 1.55783e-16 0)
(1 7.52324e-16 0)
(1 6.38095e-16 0)
(1 1.66996e-15 0)
(1 1.37368e-15 0)
(1 1.44852e-15 0)
(1 1.45075e-15 0)
(1 1.77925e-15 0)
(1 1.64342e-15 0)
(1 1.70074e-15 0)
(1 3.61958e-15 0)
(1 3.35323e-15 0)
(1 2.9642e-15 0)
(1 9.15554e-16 0)
(1 1.6563e-15 0)
(1 1.03178e-15 0)
(1 8.84724e-16 0)
(1 3.62095e-16 0)
(1 1.19945e-15 0)
(1 1.84041e-15 0)
(1 1.76915e-15 0)
(1 1.97508e-15 0)
(1 2.2645e-15 0)
(1 1.64271e-15 0)
(1 3.21288e-15 0)
(1 4.06115e-15 0)
(1 3.69263e-15 0)
(1 1.94155e-15 0)
(1 2.35452e-15 0)
(1 1.50633e-15 0)
(1 1.5592e-15 0)
(1 1.27097e-15 0)
(1 1.43414e-15 0)
(1 2.31692e-15 0)
(1 1.7692e-15 0)
(1 2.10221e-15 0)
(1 -3.24303e-16 0)
(1 1.26697e-16 0)
(1 -1.00081e-15 0)
(1 1.47977e-15 0)
(1 9.91767e-16 0)
(1 -8.40899e-16 0)
(1 -7.41754e-16 0)
(1 -3.00687e-16 0)
(1 -7.6993e-16 0)
(1 -6.19222e-16 0)
(1 -1.37395e-15 0)
(1 -1.01388e-15 0)
(1 -7.61876e-16 0)
(1 1.12062e-16 0)
(1 5.76915e-16 0)
(1 1.43169e-15 0)
(1 7.62889e-16 0)
(1 7.20512e-16 0)
(1 8.69964e-16 0)
(1 4.08725e-17 0)
(1 1.45864e-15 0)
(1 5.1081e-16 0)
(1 1.67836e-15 0)
(1 1.91073e-15 0)
(1 3.87669e-15 0)
(1 3.81518e-15 0)
(1 5.63417e-15 0)
(1 5.21274e-15 0)
(1 5.065e-15 0)
(1 4.18883e-15 0)
(1 4.38905e-15 0)
(1 4.78978e-15 0)
(1 5.05785e-15 0)
(1 5.06853e-15 0)
(1 4.80196e-15 0)
(1 3.92682e-15 0)
(1 4.24583e-15 0)
(1 2.63062e-15 0)
(1 3.06312e-15 0)
(1 2.54971e-15 0)
(1 4.72243e-15 0)
(1 5.01706e-15 0)
(1 5.68531e-15 0)
(1 4.94911e-15 0)
(1 3.52491e-15 0)
(1 2.10523e-15 0)
(1 1.64099e-15 0)
(1 1.531e-15 0)
(1 1.69348e-15 0)
(1 1.53678e-15 0)
(1 1.48052e-15 0)
(1 2.08059e-15 0)
(1 2.87808e-15 0)
(1 2.4625e-15 0)
(1 1.50853e-15 0)
(1 2.20147e-16 0)
(1 1.68774e-15 0)
(1 1.34589e-15 0)
(1 1.9823e-15 0)
(1 1.65537e-15 0)
(1 1.90635e-15 0)
(1 1.14348e-15 0)
(1 1.58694e-15 0)
(1 1.44996e-15 0)
(1 1.57776e-15 0)
(1 9.34574e-16 0)
(1 1.42589e-15 0)
(1 1.11426e-15 0)
(1 1.29543e-15 0)
(1 1.19835e-15 0)
(1 1.47267e-15 0)
(1 8.85819e-16 0)
(1 1.12468e-15 0)
(1 1.16076e-15 0)
(1 2.66811e-15 0)
(1 1.89328e-15 0)
(1 1.82078e-15 0)
(1 8.08369e-16 0)
(1 1.15057e-15 0)
(1 3.08164e-18 0)
(1 1.89162e-15 0)
(1 3.04047e-16 0)
(1 6.63345e-16 0)
(1 1.97812e-15 0)
(1 2.25894e-15 0)
(1 2.3713e-15 0)
(1 2.5141e-15 0)
(1 2.53253e-15 0)
(1 1.75095e-15 0)
(1 2.51555e-15 0)
(1 3.3024e-15 0)
(1 2.0462e-15 0)
(1 2.9224e-15 0)
(1 1.53024e-15 0)
(1 1.31877e-15 0)
(1 5.2429e-16 0)
(1 1.96987e-15 0)
(1 1.13434e-15 0)
(1 1.26217e-15 0)
(1 4.52455e-16 0)
(1 1.62487e-16 0)
(1 -6.24967e-16 0)
(1 -2.01405e-16 0)
(1 8.53111e-16 0)
(1 7.21446e-16 0)
(1 1.18645e-16 0)
(1 -3.42678e-16 0)
(1 -7.30492e-16 0)
(1 -7.19074e-16 0)
(1 -1.46735e-15 0)
(1 -1.74796e-15 0)
(1 -7.6164e-16 0)
(1 -9.82191e-16 0)
(1 1.12772e-15 0)
(1 1.81292e-15 0)
(1 1.49803e-15 0)
(1 -2.0979e-16 0)
(1 -5.03972e-17 0)
(1 -6.26035e-16 0)
(1 -9.50706e-16 0)
(1 5.5777e-16 0)
(1 1.40426e-15 0)
(1 3.49551e-15 0)
(1 3.44074e-15 0)
(1 3.40315e-15 0)
(1 3.25214e-15 0)
(1 4.46107e-15 0)
(1 3.88392e-15 0)
(1 3.81578e-15 0)
(1 2.62429e-15 0)
(1 3.34678e-15 0)
(1 4.72532e-15 0)
(1 5.00352e-15 0)
(1 4.79076e-15 0)
(1 5.69961e-15 0)
(1 5.32238e-15 0)
(1 5.90094e-15 0)
(1 4.62294e-15 0)
(1 4.2649e-15 0)
(1 2.61991e-15 0)
(1 2.95729e-15 0)
(1 2.68226e-15 0)
(1 4.34498e-15 0)
(1 3.48204e-15 0)
(1 4.26723e-15 0)
(1 3.0021e-15 0)
(1 3.00407e-15 0)
(1 2.40994e-15 0)
(1 1.7932e-15 0)
(1 1.2895e-15 0)
(1 1.84509e-15 0)
(1 2.25822e-15 0)
(1 3.66054e-15 0)
(1 2.26066e-15 0)
(1 2.31699e-15 0)
(1 1.45849e-15 0)
(1 2.42892e-15 0)
(1 1.83195e-15 0)
(1 1.89759e-15 0)
(1 1.36179e-15 0)
(1 8.1825e-16 0)
(1 9.55866e-16 0)
(1 1.40475e-15 0)
(1 1.40558e-15 0)
(1 1.94817e-15 0)
(1 5.20405e-16 0)
(1 1.69004e-15 0)
(1 1.45052e-15 0)
(1 1.57644e-15 0)
(1 1.09621e-15 0)
(1 1.38649e-15 0)
(1 1.02514e-15 0)
(1 1.47203e-15 0)
(1 8.66237e-16 0)
(1 1.77952e-15 0)
(1 1.72252e-15 0)
(1 2.23273e-15 0)
(1 1.85853e-15 0)
(1 1.24214e-15 0)
(1 5.24761e-16 0)
(1 1.16815e-15 0)
(1 1.5852e-15 0)
(1 1.66465e-15 0)
(1 2.37229e-15 0)
(1 1.54178e-15 0)
(1 4.13176e-16 0)
(1 6.49135e-16 0)
(1 2.10662e-15 0)
(1 2.92891e-15 0)
(1 2.61033e-15 0)
(1 2.34405e-15 0)
(1 2.47781e-15 0)
(1 1.65846e-15 0)
(1 1.32045e-15 0)
(1 1.16309e-15 0)
(1 -3.31158e-16 0)
(1 9.09588e-16 0)
(1 5.27571e-17 0)
(1 7.63493e-16 0)
(1 3.34523e-16 0)
(1 1.20855e-15 0)
(1 8.41001e-16 0)
(1 1.57504e-15 0)
(1 6.08344e-16 0)
(1 -7.18387e-17 0)
(1 -3.36679e-16 0)
(1 -7.59414e-16 0)
(1 -1.23672e-15 0)
(1 -1.15409e-15 0)
(1 -1.28146e-15 0)
(1 -5.37427e-16 0)
(1 -4.75368e-16 0)
(1 -1.55746e-15 0)
(1 -6.51621e-16 0)
(1 -2.02837e-16 0)
(1 -5.02645e-16 0)
(1 -2.20744e-16 0)
(1 -3.76075e-17 0)
(1 -3.06138e-16 0)
(1 3.80962e-16 0)
(1 1.08808e-15 0)
(1 1.22187e-15 0)
(1 2.68846e-15 0)
(1 2.57974e-15 0)
(1 3.37636e-15 0)
(1 2.98608e-15 0)
(1 2.4426e-15 0)
(1 2.79297e-15 0)
(1 2.93853e-15 0)
(1 3.78406e-15 0)
(1 4.79883e-15 0)
(1 4.62533e-15 0)
(1 5.26248e-15 0)
(1 4.94341e-15 0)
(1 4.97319e-15 0)
(1 4.97836e-15 0)
(1 4.86866e-15 0)
(1 4.45647e-15 0)
(1 4.634e-15 0)
(1 4.73861e-15 0)
(1 3.67747e-15 0)
(1 3.6067e-15 0)
(1 3.428e-15 0)
(1 3.85487e-15 0)
(1 3.01032e-15 0)
(1 3.48259e-15 0)
(1 3.5176e-15 0)
(1 3.74581e-15 0)
(1 2.75338e-15 0)
(1 2.0639e-15 0)
(1 2.21877e-15 0)
(1 1.80245e-15 0)
(1 2.37746e-15 0)
(1 2.1584e-15 0)
(1 2.53558e-15 0)
(1 2.10119e-15 0)
(1 1.47456e-15 0)
(1 1.46167e-15 0)
(1 1.27807e-15 0)
(1 1.25514e-15 0)
(1 8.24077e-16 0)
(1 5.51279e-16 0)
(1 1.34201e-15 0)
(1 9.06613e-16 0)
(1 2.10673e-16 0)
(1 2.02529e-18 0)
(1 2.85597e-16 0)
(1 2.53278e-16 0)
(1 6.98443e-16 0)
(1 9.31856e-16 0)
(1 9.91913e-16 0)
(1 1.9765e-15 0)
(1 1.38512e-15 0)
(1 2.19353e-15 0)
(1 1.06101e-15 0)
(1 1.56656e-15 0)
(1 2.37043e-15 0)
(1 2.29225e-15 0)
(1 1.8947e-15 0)
(1 9.97795e-19 0)
(1 2.18578e-16 0)
(1 8.03723e-16 0)
(1 1.92024e-15 0)
(1 2.34363e-15 0)
(1 2.76609e-15 0)
(1 3.88862e-15 0)
(1 3.14074e-15 0)
(1 1.64973e-15 0)
(1 1.26537e-15 0)
(1 1.14069e-16 0)
(1 9.80682e-17 0)
(1 2.04561e-15 0)
(1 7.90827e-16 0)
(1 2.06827e-15 0)
(1 1.09246e-15 0)
(1 9.04548e-16 0)
(1 2.98889e-16 0)
(1 1.13175e-16 0)
(1 -1.57406e-16 0)
(1 3.3631e-16 0)
(1 9.60274e-16 0)
(1 9.25116e-16 0)
(1 -3.14127e-16 0)
(1 -1.4252e-15 0)
(1 -1.48939e-15 0)
(1 -1.51975e-15 0)
(1 -1.64195e-15 0)
(1 -1.98161e-15 0)
(1 -2.34933e-15 0)
(1 -6.90781e-16 0)
(1 -4.29101e-16 0)
(1 1.87859e-17 0)
(1 7.29971e-18 0)
(1 -1.3303e-15 0)
(1 7.83668e-17 0)
(1 -8.89543e-16 0)
(1 -2.66072e-16 0)
(1 -3.49018e-16 0)
(1 2.84562e-16 0)
(1 8.49617e-16 0)
(1 1.10363e-15 0)
(1 2.01173e-15 0)
(1 9.94424e-16 0)
(1 8.66751e-16 0)
(1 9.01527e-16 0)
(1 1.94299e-15 0)
(1 2.06194e-15 0)
(1 2.37053e-15 0)
(1 2.5981e-15 0)
(1 4.95947e-15 0)
(1 5.16824e-15 0)
(1 4.94042e-15 0)
(1 4.25511e-15 0)
(1 4.54428e-15 0)
(1 4.19303e-15 0)
(1 4.97882e-15 0)
(1 3.83925e-15 0)
(1 3.59542e-15 0)
(1 2.79482e-15 0)
(1 3.35945e-15 0)
(1 2.4324e-15 0)
(1 3.53854e-15 0)
(1 2.67994e-15 0)
(1 3.25627e-15 0)
(1 1.95978e-15 0)
(1 2.5417e-15 0)
(1 1.91661e-15 0)
(1 3.09038e-15 0)
(1 1.70193e-15 0)
(1 2.17706e-15 0)
(1 1.80231e-15 0)
(1 2.14604e-15 0)
(1 2.11711e-15 0)
(1 2.41094e-15 0)
(1 1.55387e-15 0)
(1 1.2286e-15 0)
(1 7.7606e-16 0)
(1 9.93194e-16 0)
(1 1.31976e-15 0)
(1 -2.24521e-17 0)
(1 8.75756e-16 0)
(1 6.25436e-16 0)
(1 1.40951e-15 0)
(1 9.32996e-16 0)
(1 1.85706e-16 0)
(1 6.42616e-17 0)
(1 -3.09354e-16 0)
(1 -3.09348e-16 0)
(1 6.32692e-16 0)
(1 1.11406e-15 0)
(1 8.91942e-16 0)
(1 1.55723e-15 0)
(1 1.00672e-15 0)
(1 1.61343e-15 0)
(1 1.46079e-15 0)
(1 1.62865e-15 0)
(1 1.50269e-15 0)
(1 1.5204e-15 0)
(1 1.62016e-15 0)
(1 -7.7598e-16 0)
(1 4.96426e-16 0)
(1 1.09141e-15 0)
(1 2.00731e-15 0)
(1 1.77359e-15 0)
(1 2.31467e-15 0)
(1 2.88202e-15 0)
(1 4.15031e-15 0)
(1 2.76033e-15 0)
(1 1.43469e-15 0)
(1 9.01681e-16 0)
(1 1.83067e-16 0)
(1 2.74407e-16 0)
(1 9.27949e-16 0)
(1 1.42988e-15 0)
(1 1.2447e-15 0)