/*--------------------------------*- C++ -*----------------------------------*\
| =========                 |                                                 |
| \\      /  F ield         | OpenFOAM: The Open Source CFD Toolbox           |
|  \\    /   O peration     | Version:  v2012                                 |
|   \\  /    A nd           | Website:  www.openfoam.com                      |
|    \\/     M anipulation  |                                                 |
\*---------------------------------------------------------------------------*/
FoamFile
{
    version     2.0;
    format      ascii;
    class       volScalarField;
    location    "0";
    object      p;
}
// * * * * * * * * * * * * * * * * * * * * * * * * * * * * * * * * * * * * * //

dimensions      [0 2 -2 0 0 0 0];


internalField   nonuniform List<scalar> 
4000
(
2.6067e-13
2.55588e-13
2.6084e-13
2.61895e-13
2.59353e-13
2.57573e-13
2.52929e-13
2.52827e-13
2.36545e-13
2.44605e-13
2.54734e-13
2.47199e-13
2.46054e-13
2.40498e-13
2.18552e-13
2.09856e-13
2.02061e-13
2.02264e-13
2.03963e-13
2.01703e-13
1.8989e-13
1.84118e-13
1.83555e-13
1.77698e-13
1.786e-13
1.6889e-13
1.70881e-13
1.67271e-13
1.61318e-13
1.49808e-13
1.44286e-13
1.43029e-13
1.42821e-13
1.3882e-13
1.27825e-13
1.33192e-13
1.22301e-13
1.08213e-13
9.81942e-14
1.02657e-13
9.9065e-14
1.01087e-13
1.01148e-13
1.04939e-13
1.01576e-13
1.02546e-13
1.01246e-13
9.67248e-14
9.23788e-14
9.06853e-14
9.32474e-14
9.20817e-14
9.79688e-14
9.59257e-14
9.78707e-14
8.45471e-14
8.41246e-14
8.86094e-14
8.66802e-14
8.70879e-14
8.66488e-14
8.82488e-14
8.80043e-14
8.28999e-14
7.83134e-14
7.90557e-14
7.99302e-14
7.5517e-14
6.87966e-14
7.30168e-14
6.97761e-14
6.48386e-14
5.41797e-14
5.18005e-14
5.91377e-14
6.5477e-14
5.95925e-14
6.04667e-14
5.40481e-14
4.74906e-14
4.70066e-14
4.56386e-14
3.68727e-14
3.66026e-14
3.41319e-14
2.78426e-14
2.76433e-14
3.2291e-14
3.02555e-14
2.84762e-14
2.3201e-14
1.84305e-14
1.3252e-14
9.166e-15
6.64724e-15
6.09766e-15
8.46657e-15
-5.2199e-15
-3.77127e-15
6.25438e-16
2.5956e-13
2.59041e-13
2.6139e-13
2.59636e-13
2.59293e-13
2.59092e-13
2.54705e-13
2.51894e-13
2.43228e-13
2.45364e-13
2.45353e-13
2.42741e-13
2.46655e-13
2.3978e-13
2.19919e-13
2.13766e-13
2.10441e-13
2.0587e-13
2.0325e-13
1.97046e-13
1.9189e-13
1.84428e-13
1.78661e-13
1.76349e-13
1.75981e-13
1.71558e-13
1.67398e-13
1.64757e-13
1.54462e-13
1.49901e-13
1.49667e-13
1.42592e-13
1.38852e-13
1.41212e-13
1.3055e-13
1.26861e-13
1.22584e-13
1.11047e-13
1.0401e-13
9.80498e-14
1.00975e-13
1.04796e-13
1.01096e-13
1.04708e-13
1.01422e-13
1.02234e-13
9.42253e-14
9.74937e-14
9.59879e-14
8.96897e-14
9.09918e-14
8.9121e-14
9.8303e-14
1.00563e-13
9.8836e-14
8.95966e-14
8.13105e-14
8.81867e-14
8.34151e-14
8.42978e-14
8.69482e-14
9.02256e-14
8.82915e-14
8.74784e-14
8.18089e-14
7.62167e-14
7.49936e-14
7.52753e-14
7.24589e-14
7.54184e-14
6.9477e-14
6.20887e-14
5.87873e-14
5.5277e-14
5.77887e-14
6.30778e-14
6.11148e-14
5.66719e-14
5.15288e-14
4.81695e-14
4.65902e-14
4.39336e-14
3.97106e-14
3.65764e-14
3.7239e-14
3.12083e-14
2.68141e-14
2.45246e-14
2.91612e-14
2.80169e-14
2.36757e-14
2.34861e-14
1.52847e-14
8.33677e-15
5.14405e-15
2.87638e-15
3.98582e-15
-2.79657e-15
2.17998e-15
3.69041e-15
2.58733e-13
2.59243e-13
2.577e-13
2.60645e-13
2.6399e-13
2.59923e-13
2.57164e-13
2.54181e-13
2.41386e-13
2.47758e-13
2.41756e-13
2.38339e-13
2.46664e-13
2.39565e-13
2.2321e-13
2.15239e-13
2.14734e-13
2.10578e-13
2.01845e-13
1.93721e-13
1.90686e-13
1.87653e-13
1.79213e-13
1.74257e-13
1.74236e-13
1.72905e-13
1.72563e-13
1.65315e-13
1.57508e-13
1.50411e-13
1.46707e-13
1.42145e-13
1.37226e-13
1.40184e-13
1.35718e-13
1.30177e-13
1.23427e-13
1.08976e-13
1.05536e-13
9.70525e-14
1.04721e-13
1.02349e-13
9.99055e-14
1.01898e-13
1.02768e-13
1.00939e-13
9.41827e-14
9.20485e-14
9.32688e-14
9.11043e-14
9.33813e-14
9.47406e-14
9.71614e-14
9.29099e-14
9.64499e-14
9.12166e-14
8.4442e-14
8.83953e-14
8.45775e-14
8.50948e-14
8.93874e-14
8.63088e-14
8.52524e-14
8.89489e-14
8.49033e-14
8.22544e-14
7.69061e-14
7.61247e-14
7.49348e-14
7.01418e-14
6.42742e-14
5.8855e-14
5.60412e-14
5.90176e-14
5.68396e-14
6.00216e-14
6.04654e-14
5.50663e-14
5.20609e-14
4.85412e-14
5.00305e-14
4.09507e-14
3.75035e-14
3.67942e-14
3.47412e-14
3.40461e-14
3.12836e-14
2.76225e-14
2.77048e-14
2.49845e-14
2.39026e-14
2.33673e-14
1.50664e-14
7.7002e-15
1.92103e-15
1.58055e-15
-5.32938e-16
-1.87084e-15
9.48656e-15
3.82805e-15
2.615e-13
2.61085e-13
2.59211e-13
2.59176e-13
2.61962e-13
2.58562e-13
2.58501e-13
2.56428e-13
2.47224e-13
2.47959e-13
2.42499e-13
2.44008e-13
2.42686e-13
2.33588e-13
2.31021e-13
2.22797e-13
2.14238e-13
2.08792e-13
2.02607e-13
1.89069e-13
1.89163e-13
1.96373e-13
1.86328e-13
1.75672e-13
1.71058e-13
1.63582e-13
1.64789e-13
1.6186e-13
1.60615e-13
1.51599e-13
1.4636e-13
1.46705e-13
1.41008e-13
1.40052e-13
1.33381e-13
1.29325e-13
1.25227e-13
1.16982e-13
1.05677e-13
9.81243e-14
1.01946e-13
1.066e-13
1.01776e-13
9.92192e-14
9.58611e-14
9.34625e-14
9.67265e-14
9.73359e-14
9.4537e-14
8.55756e-14
8.63563e-14
9.08783e-14
9.43178e-14
9.86025e-14
9.43006e-14
9.28371e-14
8.85682e-14
8.61679e-14
9.2994e-14
8.30607e-14
8.95407e-14
8.68662e-14
8.80587e-14
8.83395e-14
8.28238e-14
7.83027e-14
7.5856e-14
7.56084e-14
7.12655e-14
7.13356e-14
6.93724e-14
6.5419e-14
6.43055e-14
6.09196e-14
5.79215e-14
5.89087e-14
6.29512e-14
5.36143e-14
5.31615e-14
4.89061e-14
4.75452e-14
4.43512e-14
3.31788e-14
3.584e-14
3.00524e-14
3.37828e-14
2.57855e-14
2.80893e-14
2.5707e-14
2.64268e-14
2.48316e-14
2.05716e-14
1.36097e-14
7.77009e-15
6.47157e-16
-8.71655e-16
1.9339e-16
-1.86248e-15
4.78225e-15
5.03118e-15
2.6062e-13
2.63014e-13
2.60151e-13
2.57141e-13
2.60687e-13
2.59661e-13
2.54331e-13
2.54934e-13
2.53165e-13
2.48736e-13
2.41031e-13
2.42676e-13
2.46466e-13
2.38459e-13
2.33114e-13
2.26924e-13
2.17574e-13
2.1246e-13
1.98962e-13
1.85501e-13
1.88407e-13
1.88998e-13
1.81334e-13
1.75373e-13
1.81039e-13
1.71387e-13
1.64382e-13
1.63726e-13
1.62177e-13
1.54113e-13
1.48687e-13
1.44751e-13
1.41855e-13
1.37495e-13
1.35646e-13
1.30145e-13
1.24989e-13
1.11968e-13
1.03051e-13
9.84898e-14
1.0616e-13
1.08458e-13
9.98886e-14
9.96657e-14
9.56221e-14
9.13338e-14
9.35915e-14
9.38563e-14
9.43648e-14
9.08694e-14
8.61033e-14
9.1011e-14
9.26949e-14
9.65801e-14
8.99071e-14
9.032e-14
9.21676e-14
8.83213e-14
8.62959e-14
8.55815e-14
8.9441e-14
8.43822e-14
8.61991e-14
9.04651e-14
8.5305e-14
8.23395e-14
7.97578e-14
7.51204e-14
7.21496e-14
6.87756e-14
6.4248e-14
6.16404e-14
6.00469e-14
6.21946e-14
5.93178e-14
5.79932e-14
6.14815e-14
5.68797e-14
5.22364e-14
5.13414e-14
4.38829e-14
4.11582e-14
3.94493e-14
3.48822e-14
2.51976e-14
2.83079e-14
2.98919e-14
2.85492e-14
2.6463e-14
2.84927e-14
2.31648e-14
2.19172e-14
1.44961e-14
7.8363e-15
3.31711e-15
-3.15329e-15
6.50198e-17
-5.43826e-16
2.58885e-15
2.01941e-16
2.5844e-13
2.65425e-13
2.63159e-13
2.56539e-13
2.66112e-13
2.65548e-13
2.62088e-13
2.51086e-13
2.52317e-13
2.46751e-13
2.44591e-13
2.44372e-13
2.42522e-13
2.32972e-13
2.30789e-13
2.3038e-13
2.26134e-13
2.16194e-13
2.05465e-13
1.92384e-13
1.85399e-13
1.82014e-13
1.74711e-13
1.78e-13
1.79043e-13
1.72421e-13
1.68467e-13
1.6268e-13
1.60375e-13
1.54007e-13
1.50611e-13
1.46929e-13
1.40259e-13
1.39772e-13
1.36406e-13
1.28756e-13
1.23855e-13
1.15588e-13
1.09993e-13
1.0404e-13
1.03433e-13
1.07283e-13
9.82893e-14
9.7459e-14
9.94785e-14
9.12215e-14
9.0779e-14
8.34236e-14
9.33929e-14
9.02112e-14
8.86444e-14
8.86424e-14
8.92373e-14
9.05051e-14
8.67701e-14
8.83999e-14
9.05224e-14
8.94842e-14
8.74828e-14
9.17524e-14
9.11657e-14
8.73471e-14
8.41445e-14
9.14855e-14
8.63034e-14
7.70221e-14
7.97581e-14
7.42815e-14
7.09887e-14
7.04625e-14
6.6757e-14
6.81255e-14
6.21004e-14
6.17665e-14
5.89328e-14
5.62086e-14
5.84529e-14
6.00957e-14
5.24734e-14
5.1702e-14
4.47245e-14
4.21928e-14
3.57892e-14
2.93508e-14
3.14759e-14
2.79947e-14
2.87434e-14
2.93103e-14
2.57779e-14
2.56946e-14
2.16765e-14
1.87893e-14
1.21343e-14
6.55995e-15
5.67177e-15
-1.28715e-16
-4.57368e-15
-2.379e-15
-2.38917e-15
-5.70557e-15
2.64078e-13
2.6289e-13
2.61043e-13
2.63114e-13
2.65525e-13
2.71539e-13
2.64116e-13
2.53074e-13
2.49118e-13
2.44125e-13
2.42157e-13
2.43469e-13
2.4233e-13
2.44066e-13
2.3503e-13
2.18533e-13
2.25944e-13
2.17744e-13
2.0277e-13
1.92053e-13
1.7536e-13
1.82637e-13
1.84568e-13
1.85939e-13
1.82326e-13
1.77963e-13
1.63834e-13
1.57978e-13
1.60402e-13
1.58602e-13
1.50859e-13
1.43453e-13
1.42873e-13
1.38039e-13
1.34373e-13
1.25102e-13
1.23727e-13
1.28561e-13
1.14289e-13
1.01751e-13
1.00378e-13
1.00062e-13
9.36889e-14
9.46075e-14
9.95821e-14
9.48663e-14
9.58756e-14
9.36542e-14
9.42945e-14
8.94449e-14
9.05298e-14
9.06474e-14
9.32133e-14
8.67003e-14
8.55773e-14
8.75579e-14
8.94506e-14
8.1373e-14
8.91105e-14
9.20963e-14
9.18376e-14
9.24016e-14
8.92421e-14
9.01161e-14
8.29843e-14
7.70794e-14
7.45394e-14
7.14134e-14
6.62924e-14
7.26571e-14
7.68131e-14
7.29089e-14
6.21681e-14
6.24777e-14
5.82633e-14
5.63023e-14
5.72527e-14
5.08414e-14
4.22706e-14
4.8853e-14
4.71123e-14
4.10395e-14
3.94177e-14
3.66488e-14
3.2515e-14
2.63306e-14
2.56815e-14
2.91073e-14
2.77795e-14
2.25233e-14
2.20102e-14
1.67265e-14
1.05691e-14
6.45661e-15
2.36365e-15
-1.5738e-15
-7.47926e-15
-5.02678e-15
-2.94345e-15
-4.10696e-15
2.6649e-13
2.64849e-13
2.5944e-13
2.66204e-13
2.67522e-13
2.69915e-13
2.67608e-13
2.59024e-13
2.47114e-13
2.46847e-13
2.46908e-13
2.40581e-13
2.37075e-13
2.41104e-13
2.34469e-13
2.25879e-13
2.28588e-13
2.19202e-13
2.02495e-13
1.92023e-13
1.81727e-13
1.88903e-13
1.82716e-13
1.80907e-13
1.81822e-13
1.69391e-13
1.6307e-13
1.61948e-13
1.575e-13
1.54617e-13
1.48532e-13
1.45852e-13
1.46478e-13
1.41902e-13
1.33994e-13
1.22038e-13
1.23497e-13
1.23214e-13
1.11638e-13
1.00935e-13
1.01368e-13
1.01035e-13
9.86334e-14
9.68623e-14
1.01415e-13
9.70648e-14
9.24045e-14
8.1053e-14
8.27028e-14
9.46815e-14
9.61998e-14
9.8663e-14
9.27674e-14
8.65201e-14
8.43496e-14
8.34076e-14
8.99548e-14
8.84251e-14
8.97895e-14
9.45028e-14
8.86242e-14
9.19582e-14
9.0204e-14
9.13777e-14
8.94889e-14
7.79631e-14
7.27775e-14
7.64523e-14
7.44646e-14
7.54059e-14
7.44177e-14
6.76442e-14
5.91787e-14
5.65774e-14
5.47383e-14
5.88996e-14
5.98374e-14
5.63327e-14
5.26202e-14
5.18657e-14
4.33017e-14
4.03748e-14
3.28971e-14
2.53369e-14
2.72122e-14
2.53917e-14
2.83531e-14
2.73996e-14
2.68126e-14
2.2181e-14
1.95304e-14
1.62778e-14
1.07178e-14
5.46655e-15
-1.07112e-15
-1.42205e-15
-5.56146e-15
-6.34373e-15
-2.67718e-15
1.57288e-16
2.69794e-13
2.68614e-13
2.62144e-13
2.59136e-13
2.69642e-13
2.67975e-13
2.66474e-13
2.60145e-13
2.50056e-13
2.53215e-13
2.47618e-13
2.37186e-13
2.38681e-13
2.41055e-13
2.36885e-13
2.32915e-13
2.27281e-13
2.19475e-13
2.02806e-13
1.89027e-13
1.86089e-13
1.91229e-13
1.87723e-13
1.85052e-13
1.75766e-13
1.66805e-13
1.61489e-13
1.6306e-13
1.6466e-13
1.59177e-13
1.47689e-13
1.47026e-13
1.45868e-13
1.37067e-13
1.33391e-13
1.29643e-13
1.18916e-13
1.13004e-13
1.20527e-13
1.08795e-13
1.00666e-13
9.51974e-14
9.16048e-14
9.03116e-14
9.88731e-14
1.00749e-13
9.48439e-14
9.29419e-14
9.12394e-14
9.14497e-14
9.32614e-14
9.40635e-14
9.2044e-14
8.72309e-14
9.09271e-14
9.07084e-14
8.90138e-14
8.5865e-14
9.20432e-14
9.35569e-14
9.15577e-14
9.33996e-14
9.17955e-14
8.96909e-14
8.11678e-14
7.72356e-14
7.46419e-14
7.59881e-14
7.22326e-14
7.22885e-14
7.33385e-14
6.90198e-14
6.40813e-14
6.07898e-14
5.75492e-14
5.78089e-14
5.68781e-14
5.4889e-14
5.13569e-14
4.288e-14
4.39497e-14
4.10246e-14
3.72534e-14
2.72717e-14
2.3127e-14
2.26533e-14
3.24966e-14
2.87184e-14
2.70064e-14
1.92349e-14
1.60565e-14
1.66566e-14
9.06249e-15
2.41211e-15
-2.64783e-15
2.39554e-16
-9.7621e-15
-9.35364e-15
-4.98516e-15
-5.47653e-15
2.69868e-13
2.66222e-13
2.65007e-13
2.68632e-13
2.67431e-13
2.68698e-13
2.59594e-13
2.62748e-13
2.60946e-13
2.43194e-13
2.4192e-13
2.40193e-13
2.48251e-13
2.4764e-13
2.33852e-13
2.32046e-13
2.21491e-13
2.2276e-13
2.1938e-13
1.92726e-13
1.84902e-13
1.88093e-13
1.82806e-13
1.80629e-13
1.75094e-13
1.72376e-13
1.6097e-13
1.66581e-13
1.65465e-13
1.56583e-13
1.57444e-13
1.44973e-13
1.40575e-13
1.3721e-13
1.31679e-13
1.2887e-13
1.2582e-13
1.15365e-13
1.12749e-13
1.0692e-13
1.02504e-13
9.68668e-14
9.34581e-14
9.37502e-14
9.99849e-14
1.01392e-13
9.50487e-14
9.25416e-14
8.99634e-14
8.51582e-14
9.40018e-14
9.16421e-14
9.49908e-14
9.18031e-14
9.05818e-14
9.03926e-14
9.10122e-14
9.02348e-14
9.50213e-14
9.35362e-14
9.53097e-14
9.41706e-14
9.7419e-14
9.3248e-14
8.01589e-14
6.79478e-14
7.16598e-14
7.40073e-14
6.8253e-14
7.76809e-14
7.49049e-14
6.7936e-14
6.52006e-14
6.11461e-14
6.14783e-14
6.041e-14
5.49598e-14
5.57548e-14
4.7866e-14
4.18038e-14
4.11497e-14
3.80116e-14
3.35258e-14
2.77669e-14
2.79585e-14
2.18135e-14
2.7671e-14
2.08579e-14
2.34749e-14
1.82301e-14
1.39205e-14
1.43011e-14
4.73191e-15
-1.58905e-15
-3.84832e-16
-2.35789e-15
-1.14884e-14
-1.10627e-14
-1.0934e-14
-5.69123e-15
2.68051e-13
2.66329e-13
2.65044e-13
2.68367e-13
2.70805e-13
2.66495e-13
2.64907e-13
2.65031e-13
2.59736e-13
2.54694e-13
2.42595e-13
2.38604e-13
2.43502e-13
2.45297e-13
2.36745e-13
2.37764e-13
2.31383e-13
2.20452e-13
2.13251e-13
1.97007e-13
1.84939e-13
1.87114e-13
1.83298e-13
1.84653e-13
1.7652e-13
1.70544e-13
1.6248e-13
1.66041e-13
1.64297e-13
1.63281e-13
1.58928e-13
1.47253e-13
1.40331e-13
1.44825e-13
1.30693e-13
1.23742e-13
1.18694e-13
1.17691e-13
1.14535e-13
1.07252e-13
1.02157e-13
9.72066e-14
9.00761e-14
9.74936e-14
1.03793e-13
1.01658e-13
9.64391e-14
8.9614e-14
8.31415e-14
8.21604e-14
9.46025e-14
9.05558e-14
9.22975e-14
9.06067e-14
9.19623e-14
9.29377e-14
9.39153e-14
9.16138e-14
9.57383e-14
8.92627e-14
8.94146e-14
8.78742e-14
9.50672e-14
9.97564e-14
8.62705e-14
7.14438e-14
7.23701e-14
7.31087e-14
7.04815e-14
7.70833e-14
7.44204e-14
6.93421e-14
6.60852e-14
5.92625e-14
6.06204e-14
5.62191e-14
5.32119e-14
5.41458e-14
4.95503e-14
4.72791e-14
4.65179e-14
3.76547e-14
3.34328e-14
2.29659e-14
1.85637e-14
1.54686e-14
2.75464e-14
2.76404e-14
2.27099e-14
1.9472e-14
1.4854e-14
1.20106e-14
4.33008e-15
-1.65267e-15
-1.32464e-15
-2.38654e-15
-1.16788e-14
-1.46552e-14
-1.82455e-14
-5.34264e-15
2.71042e-13
2.70185e-13
2.6577e-13
2.69648e-13
2.73112e-13
2.70819e-13
2.68802e-13
2.65571e-13
2.5916e-13
2.57117e-13
2.42902e-13
2.4201e-13
2.40664e-13
2.42934e-13
2.31511e-13
2.35023e-13
2.37585e-13
2.25175e-13
2.12055e-13
2.00172e-13
1.89136e-13
1.92655e-13
1.84205e-13
1.8044e-13
1.73638e-13
1.68603e-13
1.62348e-13
1.63522e-13
1.73119e-13
1.6879e-13
1.65864e-13
1.44738e-13
1.3868e-13
1.31831e-13
1.27825e-13
1.25724e-13
1.24567e-13
1.1764e-13
1.13269e-13
1.03721e-13
9.91758e-14
9.62217e-14
9.576e-14
1.00763e-13
1.06261e-13
1.06034e-13
9.32804e-14
8.83642e-14
8.86538e-14
8.74884e-14
9.14944e-14
8.61472e-14
8.9498e-14
9.09035e-14
9.20239e-14
9.41772e-14
9.45953e-14
9.30055e-14
9.50439e-14
9.23269e-14
9.04236e-14
9.72834e-14
9.6373e-14
9.32343e-14
7.96969e-14
6.78459e-14
7.43798e-14
7.50718e-14
7.34435e-14
7.57376e-14
7.5536e-14
7.20635e-14
6.67345e-14
6.50507e-14
5.78443e-14
4.56029e-14
4.66616e-14
5.14154e-14
5.67073e-14
4.33865e-14
4.12583e-14
3.60377e-14
3.26762e-14
2.71821e-14
2.29192e-14
1.91002e-14
1.78922e-14
2.1302e-14
2.14935e-14
1.82968e-14
1.02733e-14
1.19879e-14
7.1022e-15
-1.98626e-16
-1.8621e-15
-5.14063e-15
-1.24146e-14
-1.67692e-14
-1.12012e-14
-3.76195e-15
2.70627e-13
2.71167e-13
2.66441e-13
2.72988e-13
2.74888e-13
2.7498e-13
2.71512e-13
2.67769e-13
2.60373e-13
2.4884e-13
2.40852e-13
2.43741e-13
2.53429e-13
2.49705e-13
2.38162e-13
2.35441e-13
2.40318e-13
2.33803e-13
2.14892e-13
2.00494e-13
1.9046e-13
1.81588e-13
1.76977e-13
1.75644e-13
1.70704e-13
1.72355e-13
1.70801e-13
1.6871e-13
1.70428e-13
1.65284e-13
1.66692e-13
1.51838e-13
1.4264e-13
1.34585e-13
1.29052e-13
1.24635e-13
1.22842e-13
1.19056e-13
1.08292e-13
1.04476e-13
1.00412e-13
1.01144e-13
9.95646e-14
1.02851e-13
1.00584e-13
9.89506e-14
9.49906e-14
9.23252e-14
9.2681e-14
8.91501e-14
8.80434e-14
8.53852e-14
8.31888e-14
8.73199e-14
9.06678e-14
1.01859e-13
9.35199e-14
9.32016e-14
9.53045e-14
9.19036e-14
8.73314e-14
8.84791e-14
9.62091e-14
9.83158e-14
8.36257e-14
7.66294e-14
7.16623e-14
7.81338e-14
8.09766e-14
7.41906e-14
7.3507e-14
6.51433e-14
7.18263e-14
5.9386e-14
5.49999e-14
5.07236e-14
5.18907e-14
4.98993e-14
4.82066e-14
4.18568e-14
3.90286e-14
3.60186e-14
2.67352e-14
2.76786e-14
2.36686e-14
1.66252e-14
1.51734e-14
2.22922e-14
2.1134e-14
1.2182e-14
9.86929e-15
7.72323e-15
5.66449e-15
2.98544e-15
-2.58705e-16
-9.67846e-15
-1.31649e-14
-1.2908e-14
-7.36505e-15
-2.20789e-15
2.66046e-13
2.80802e-13
2.76392e-13
2.72531e-13
2.74686e-13
2.75784e-13
2.6907e-13
2.69732e-13
2.62836e-13
2.47577e-13
2.4684e-13
2.48129e-13
2.48261e-13
2.51773e-13
2.46878e-13
2.34344e-13
2.35501e-13
2.29347e-13
2.15174e-13
2.06821e-13
1.96748e-13
1.93918e-13
1.9089e-13
1.79285e-13
1.66582e-13
1.57865e-13
1.64683e-13
1.72056e-13
1.78769e-13
1.67739e-13
1.65801e-13
1.51756e-13
1.36525e-13
1.32805e-13
1.23411e-13
1.18799e-13
1.24241e-13
1.18214e-13
1.16182e-13
1.11945e-13
1.07326e-13
1.02714e-13
9.7489e-14
1.01137e-13
1.04262e-13
9.87174e-14
9.36439e-14
8.49195e-14
9.42017e-14
9.57864e-14
9.01298e-14
8.21513e-14
8.67298e-14
9.59663e-14
8.94337e-14
9.51309e-14
9.50222e-14
9.67978e-14
9.56284e-14
9.72816e-14
8.89581e-14
8.76224e-14
8.86768e-14
9.08939e-14
8.25825e-14
8.13457e-14
7.96297e-14
8.15768e-14
7.77247e-14
7.5787e-14
7.17568e-14
6.79542e-14
6.80634e-14
6.41488e-14
5.71201e-14
5.29762e-14
4.82276e-14
4.16247e-14
4.17913e-14
4.38063e-14
3.90038e-14
3.23917e-14
2.92491e-14
2.41167e-14
2.4189e-14
1.55533e-14
1.5748e-14
2.23276e-14
2.01319e-14
1.0824e-14
1.25518e-14
1.45281e-14
6.71977e-15
2.97695e-15
-2.21792e-15
-1.33789e-14
-1.13747e-14
-9.58901e-15
-8.17812e-15
-4.10905e-15
2.68934e-13
2.75142e-13
2.80382e-13
2.78628e-13
2.77458e-13
2.77946e-13
2.6837e-13
2.61152e-13
2.58779e-13
2.57213e-13
2.52718e-13
2.52317e-13
2.55016e-13
2.53403e-13
2.47132e-13
2.43708e-13
2.37102e-13
2.36318e-13
2.20439e-13
2.07667e-13
1.96449e-13
1.84859e-13
1.7484e-13
1.76184e-13
1.72214e-13
1.72908e-13
1.80839e-13
1.73021e-13
1.76079e-13
1.74085e-13
1.66695e-13
1.53431e-13
1.38299e-13
1.32424e-13
1.19087e-13
1.20854e-13
1.22154e-13
1.19834e-13
1.13708e-13
1.0613e-13
1.12873e-13
1.07537e-13
9.85038e-14
9.62599e-14
1.01126e-13
1.05268e-13
9.78914e-14
8.48158e-14
9.35448e-14
9.74312e-14
9.39883e-14
8.58083e-14
8.8338e-14
8.90806e-14
8.93869e-14
9.27251e-14
9.82617e-14
1.00387e-13
9.39456e-14
9.46483e-14
9.32413e-14
9.42996e-14
9.64304e-14
8.70671e-14
7.55409e-14
8.48093e-14
8.17774e-14
8.29602e-14
8.28759e-14
7.76271e-14
6.88115e-14
6.75063e-14
6.53974e-14
6.13712e-14
5.48161e-14
4.94777e-14
4.65089e-14
4.01377e-14
4.18143e-14
5.12916e-14
4.00002e-14
3.52396e-14
2.63135e-14
2.39105e-14
1.76787e-14
1.33084e-14
2.07243e-14
2.21587e-14
1.3509e-14
1.35639e-14
1.36266e-14
1.2399e-14
5.54545e-15
3.95519e-15
-1.46975e-15
-1.49324e-14
-1.02007e-14
-1.10512e-14
-1.10966e-14
-4.37367e-15
2.72319e-13
2.83663e-13
2.83784e-13
2.78413e-13
2.75775e-13
2.81089e-13
2.78253e-13
2.68599e-13
2.56367e-13
2.47612e-13
2.48962e-13
2.57129e-13
2.55733e-13
2.56081e-13
2.511e-13
2.49485e-13
2.35445e-13
2.27771e-13
2.13427e-13
2.12949e-13
2.01562e-13
1.93729e-13
1.81563e-13
1.74225e-13
1.77401e-13
1.77511e-13
1.78876e-13
1.80564e-13
1.74374e-13
1.74171e-13
1.68525e-13
1.49355e-13
1.43126e-13
1.33184e-13
1.1785e-13
1.14507e-13
1.19565e-13
1.23974e-13
1.14759e-13
1.14945e-13
1.12438e-13
1.09261e-13
1.09579e-13
1.05483e-13
9.97603e-14
1.00743e-13
9.57662e-14
9.38741e-14
9.38402e-14
8.47963e-14
8.90641e-14
9.28307e-14
9.32042e-14
8.6195e-14
9.32942e-14
9.90963e-14
9.96392e-14
9.95507e-14
9.74424e-14
9.07009e-14
9.08971e-14
9.17598e-14
8.85096e-14
8.91333e-14
8.24658e-14
8.04225e-14
7.98671e-14
8.2214e-14
7.91954e-14
8.00006e-14
7.14166e-14
6.88952e-14
7.20949e-14
6.26283e-14
4.8692e-14
4.95463e-14
5.03808e-14
4.39274e-14
4.39521e-14
3.8706e-14
3.89915e-14
3.30869e-14
2.51468e-14
2.26871e-14
2.08867e-14
1.9699e-14
2.11283e-14
1.91025e-14
1.52769e-14
1.22739e-14
7.28917e-15
7.31403e-15
3.31891e-15
5.28127e-15
-2.20469e-15
-7.93462e-15
-1.50891e-14
-1.58757e-14
-1.33878e-14
-1.84621e-15
2.77283e-13
2.81589e-13
2.80635e-13
2.75678e-13
2.78369e-13
2.72262e-13
2.68206e-13
2.66935e-13
2.69331e-13
2.64681e-13
2.61612e-13
2.57352e-13
2.49918e-13
2.54767e-13
2.46749e-13
2.48372e-13
2.38971e-13
2.38127e-13
2.23577e-13
2.11051e-13
2.01761e-13
1.9173e-13
1.86228e-13
1.81804e-13
1.77822e-13
1.78025e-13
1.83314e-13
1.83288e-13
1.76013e-13
1.67293e-13
1.67462e-13
1.52775e-13
1.40343e-13
1.29363e-13
1.21611e-13
1.21774e-13
1.24276e-13
1.257e-13
1.20779e-13
1.14526e-13
1.11157e-13
1.09238e-13
1.03464e-13
1.05388e-13
1.04927e-13
9.99758e-14
9.07368e-14
9.32325e-14
1.0111e-13
9.16726e-14
8.88201e-14
9.34444e-14
9.19026e-14
8.77762e-14
8.90551e-14
9.24141e-14
9.82851e-14
9.95721e-14
9.85763e-14
9.39809e-14
9.11131e-14
9.19293e-14
8.92175e-14
8.98529e-14
9.39118e-14
8.38913e-14
7.76438e-14
7.86749e-14
7.49663e-14
8.11124e-14
7.51888e-14
6.95571e-14
6.61481e-14
6.09829e-14
5.03052e-14
4.76577e-14
4.3696e-14
3.9968e-14
4.20773e-14
4.99157e-14
4.59529e-14
2.88773e-14
2.67169e-14
2.2543e-14
1.97577e-14
1.42166e-14
1.99889e-14
1.5989e-14
1.23747e-14
2.30748e-15
3.589e-15
8.49678e-15
1.1469e-14
6.1683e-15
-2.84721e-15
-1.11342e-14
-1.32122e-14
-1.51724e-14
-1.30938e-14
-2.784e-15
2.79907e-13
2.81722e-13
2.80077e-13
2.80013e-13
2.85469e-13
2.78881e-13
2.71804e-13
2.63343e-13
2.63036e-13
2.65718e-13
2.6349e-13
2.64448e-13
2.59366e-13
2.54105e-13
2.46219e-13
2.45884e-13
2.42397e-13
2.34444e-13
2.22433e-13
2.09071e-13
2.01724e-13
1.97057e-13
1.93166e-13
1.92179e-13
1.90845e-13
1.80119e-13
1.80103e-13
1.76613e-13
1.80111e-13
1.71799e-13
1.67927e-13
1.57512e-13
1.41773e-13
1.30028e-13
1.14852e-13
1.23e-13
1.24858e-13
1.1839e-13
1.24836e-13
1.26516e-13
1.16439e-13
1.07382e-13
1.07006e-13
9.83466e-14
1.01079e-13
1.04924e-13
9.68911e-14
9.54234e-14
9.67996e-14
9.25191e-14
8.98077e-14
9.44532e-14
8.58987e-14
8.57543e-14
9.39916e-14
9.56664e-14
1.00715e-13
9.30652e-14
9.49511e-14
9.32548e-14
9.02108e-14
9.31371e-14
9.15224e-14
9.27595e-14
9.04909e-14
8.40916e-14
8.09486e-14
7.89141e-14
7.36115e-14
7.48647e-14
7.39946e-14
7.24715e-14
6.73038e-14
6.02937e-14
5.30849e-14
4.8109e-14
4.5443e-14
4.50936e-14
4.57812e-14
4.46165e-14
3.74242e-14
3.13697e-14
3.25189e-14
2.77462e-14
2.04731e-14
1.15872e-14
1.90592e-14
1.84397e-14
1.47698e-14
7.12864e-15
-4.81614e-16
3.778e-15
6.739e-15
6.40667e-16
-4.68621e-15
-8.27262e-15
-8.77422e-15
-1.10455e-14
-1.61254e-14
-5.00093e-15
2.77674e-13
2.81507e-13
2.82409e-13
2.84344e-13
2.82232e-13
2.73814e-13
2.72627e-13
2.68558e-13
2.738e-13
2.70811e-13
2.66126e-13
2.70784e-13
2.63525e-13
2.53744e-13
2.45089e-13
2.41123e-13
2.45195e-13
2.39833e-13
2.27127e-13
2.20698e-13
2.0688e-13
1.99623e-13
1.96699e-13
1.92739e-13
1.85787e-13
1.77355e-13
1.84224e-13
1.81528e-13
1.79853e-13
1.70869e-13
1.66701e-13
1.53497e-13
1.43317e-13
1.34674e-13
1.2221e-13
1.30725e-13
1.31394e-13
1.25498e-13
1.26487e-13
1.19207e-13
1.07684e-13
1.07464e-13
1.0837e-13
9.84058e-14
9.70881e-14
1.01323e-13
9.93828e-14
9.54252e-14
9.56618e-14
9.29559e-14
9.01372e-14
9.14085e-14
8.72351e-14
8.80494e-14
9.33785e-14
9.58789e-14
1.02687e-13
9.71424e-14
9.5456e-14
9.0352e-14
9.45278e-14
9.53748e-14
9.32346e-14
9.59009e-14
8.69118e-14
8.0773e-14
8.41485e-14
8.27008e-14
8.12224e-14
7.58271e-14
7.01837e-14
7.53721e-14
6.80941e-14
6.09553e-14
5.48317e-14
4.81709e-14
4.9848e-14
4.81772e-14
3.97639e-14
3.51867e-14
4.50406e-14
4.084e-14
2.95031e-14
3.08198e-14
2.58679e-14
1.53893e-14
1.43621e-14
2.09396e-14
1.5142e-14
9.04583e-15
2.26908e-15
3.03876e-15
4.4552e-15
-3.32583e-15
-1.47785e-15
-4.69201e-15
-1.11772e-14
-1.24754e-14
-1.28115e-14
-6.58237e-15
2.84972e-13
2.81879e-13
2.83902e-13
2.88424e-13
2.8061e-13
2.76593e-13
2.74603e-13
2.71037e-13
2.74479e-13
2.79942e-13
2.69235e-13
2.72047e-13
2.65214e-13
2.57224e-13
2.49449e-13
2.41429e-13
2.39586e-13
2.37832e-13
2.34327e-13
2.25043e-13
2.10456e-13
2.07809e-13
1.99514e-13
1.89551e-13
1.85689e-13
1.79579e-13
1.83914e-13
1.83523e-13
1.82037e-13
1.73101e-13
1.65261e-13
1.5306e-13
1.48003e-13
1.36523e-13
1.26361e-13
1.23502e-13
1.30029e-13
1.27508e-13
1.24565e-13
1.21224e-13
1.10281e-13
1.10584e-13
1.05622e-13
1.03842e-13
1.03686e-13
9.88605e-14
9.21669e-14
9.54021e-14
1.02811e-13
9.29328e-14
9.24343e-14
9.31334e-14
8.94922e-14
9.14882e-14
9.29247e-14
9.00121e-14
9.50286e-14
9.85853e-14
9.74387e-14
9.19771e-14
8.99207e-14
9.90931e-14
9.80707e-14
9.44971e-14
9.2067e-14
8.39727e-14
8.33867e-14
8.49838e-14
7.998e-14
8.08453e-14
7.2004e-14
7.42292e-14
6.80964e-14
6.26216e-14
5.87708e-14
5.22198e-14
4.81832e-14
4.49601e-14
4.36345e-14
4.40934e-14
4.26471e-14
3.88985e-14
3.18852e-14
3.29947e-14
2.83266e-14
1.70636e-14
1.41998e-14
1.69832e-14
1.56387e-14
7.32558e-15
3.0106e-15
4.39918e-15
4.86073e-15
-3.20071e-15
-6.50029e-15
-4.63107e-15
-1.16647e-14
-1.56189e-14
-8.36965e-15
-4.15903e-15
2.90079e-13
2.84734e-13
2.80966e-13
2.87736e-13
2.80814e-13
2.76178e-13
2.76627e-13
2.80311e-13
2.84231e-13
2.8306e-13
2.76855e-13
2.73827e-13
2.68134e-13
2.62196e-13
2.49486e-13
2.45646e-13
2.49166e-13
2.40132e-13
2.35081e-13
2.28935e-13
2.15169e-13
2.08289e-13
1.96012e-13
1.90663e-13
1.85472e-13
1.84989e-13
1.8583e-13
1.80045e-13
1.79879e-13
1.73433e-13
1.68682e-13
1.57402e-13
1.50164e-13
1.41156e-13
1.26854e-13
1.24298e-13
1.30219e-13
1.29746e-13
1.21599e-13
1.18691e-13
1.15639e-13
1.15168e-13
1.05224e-13
1.05342e-13
9.9513e-14
9.49029e-14
9.21426e-14
9.50033e-14
9.74902e-14
9.11291e-14
9.10688e-14
9.06801e-14
9.41255e-14
9.30508e-14
9.49485e-14
9.06708e-14
9.32763e-14
9.80282e-14
9.86078e-14
9.57861e-14
9.60327e-14
9.95298e-14
9.25187e-14
9.19687e-14
9.66859e-14
9.0492e-14
8.55474e-14
8.57748e-14
8.431e-14
8.67469e-14
7.26326e-14
7.09484e-14
6.82063e-14
6.25849e-14
5.47759e-14
5.3521e-14
5.15416e-14
5.21143e-14
4.78593e-14
4.25748e-14
4.17559e-14
3.43008e-14
3.0379e-14
3.39579e-14
2.90493e-14
1.87867e-14
1.69383e-14
1.83244e-14
1.09889e-14
1.47713e-14
7.46381e-15
3.60419e-15
-1.29833e-15
-3.7942e-15
-2.59792e-15
-7.94057e-15
-1.27906e-14
-1.14732e-14
-7.40129e-15
-3.9456e-15
2.90348e-13
2.85443e-13
2.83873e-13
2.87971e-13
2.8451e-13
2.79804e-13
2.78189e-13
2.82441e-13
2.84114e-13
2.87529e-13
2.83544e-13
2.79604e-13
2.68755e-13
2.57651e-13
2.51835e-13
2.46223e-13
2.43655e-13
2.4358e-13
2.40213e-13
2.35174e-13
2.21937e-13
2.06434e-13
1.96952e-13
1.94943e-13
1.94095e-13
1.89342e-13
1.76528e-13
1.70717e-13
1.70213e-13
1.70976e-13
1.73898e-13
1.63459e-13
1.55795e-13
1.52398e-13
1.29746e-13
1.24966e-13
1.22243e-13
1.2583e-13
1.23417e-13
1.15959e-13
1.19565e-13
1.13964e-13
1.09107e-13
1.06984e-13
9.79437e-14
9.39748e-14
9.55174e-14
1.00808e-13
9.02339e-14
9.18806e-14
8.86313e-14
9.51925e-14
9.36984e-14
9.17227e-14
9.28205e-14
8.56008e-14
8.77161e-14
9.66752e-14
9.98046e-14
1.04061e-13
1.07424e-13
9.54179e-14
9.34871e-14
9.69074e-14
9.53428e-14
9.56066e-14
9.1381e-14
8.78258e-14
8.25571e-14
8.45574e-14
7.30038e-14
7.80982e-14
7.21944e-14
6.82336e-14
5.74471e-14
4.78747e-14
5.08286e-14
5.6852e-14
5.04723e-14
4.83792e-14
4.37448e-14
3.9416e-14
3.60624e-14
2.57426e-14
2.24833e-14
1.70147e-14
1.71734e-14
1.8447e-14
1.36244e-14
1.14026e-14
4.44515e-15
4.45027e-15
-1.82222e-15
-3.87746e-15
3.04119e-15
-2.49169e-15
-1.24626e-14
-1.51497e-14
-1.4925e-14
-6.1214e-15
2.89411e-13
2.91362e-13
2.90064e-13
2.88715e-13
2.81466e-13
2.81286e-13
2.77703e-13
2.82906e-13
2.86068e-13
2.85017e-13
2.87264e-13
2.88263e-13
2.7037e-13
2.58011e-13
2.54038e-13
2.50974e-13
2.51357e-13
2.47322e-13
2.43792e-13
2.3538e-13
2.17343e-13
2.07375e-13
2.00363e-13
1.9532e-13
1.90665e-13
1.85357e-13
1.76871e-13
1.75021e-13
1.76576e-13
1.70867e-13
1.71085e-13
1.63609e-13
1.52038e-13
1.48732e-13
1.38052e-13
1.31382e-13
1.28381e-13
1.23721e-13
1.2029e-13
1.19703e-13
1.18466e-13
1.1104e-13
1.07499e-13
1.05556e-13
1.04048e-13
9.48963e-14
9.40158e-14
8.98864e-14
9.50579e-14
9.43407e-14
8.68374e-14
9.79316e-14
9.60454e-14
9.45734e-14
9.45124e-14
8.14051e-14
7.92594e-14
9.48335e-14
1.04631e-13
1.06992e-13
1.05082e-13
1.00307e-13
9.69464e-14
1.00377e-13
9.46215e-14
9.19424e-14
8.85135e-14
8.81497e-14
9.5189e-14
8.78383e-14
8.25435e-14
7.05296e-14
6.44435e-14
5.84049e-14
5.99794e-14
5.56103e-14
4.87787e-14
5.87154e-14
5.75969e-14
4.89624e-14
4.5451e-14
3.82012e-14
3.79822e-14
2.51539e-14
2.13469e-14
1.70881e-14
1.71608e-14
1.88923e-14
1.1769e-14
1.26225e-14
9.31891e-15
9.12163e-15
-1.26554e-15
-4.51901e-15
4.12247e-15
5.05974e-16
-5.36979e-15
-1.30182e-14
-2.02823e-14
-6.26472e-15
2.95156e-13
2.89728e-13
2.84784e-13
2.80538e-13
2.82803e-13
2.84521e-13
2.91237e-13
2.91741e-13
2.89405e-13
2.81626e-13
2.78278e-13
2.85746e-13
2.71467e-13
2.61594e-13
2.61557e-13
2.54553e-13
2.53953e-13
2.43966e-13
2.40816e-13
2.3222e-13
2.19983e-13
2.07248e-13
2.08463e-13
1.98268e-13
1.91303e-13
1.86706e-13
1.79264e-13
1.78991e-13
1.72389e-13
1.70619e-13
1.7057e-13
1.65005e-13
1.57956e-13
1.51646e-13
1.38759e-13
1.2974e-13
1.27914e-13
1.21396e-13
1.1696e-13
1.19152e-13
1.18543e-13
1.14088e-13
1.11948e-13
1.00925e-13
1.02987e-13
9.19311e-14
9.14574e-14
9.92236e-14
9.65812e-14
8.98201e-14
8.6923e-14
9.26214e-14
9.08848e-14
9.08312e-14
8.75086e-14
9.16052e-14
9.22263e-14
9.56428e-14
1.04723e-13
9.40395e-14
1.02276e-13
1.06291e-13
9.91896e-14
1.00024e-13
9.8588e-14
9.84768e-14
9.11088e-14
8.84764e-14
9.45855e-14
9.31724e-14
8.31911e-14
7.08799e-14
6.3858e-14
5.71838e-14
6.33583e-14
5.78103e-14
5.265e-14
5.86229e-14
5.03805e-14
4.91142e-14
4.21912e-14
4.08406e-14
3.83677e-14
2.94742e-14
2.49193e-14
2.48968e-14
2.20311e-14
1.67225e-14
1.1259e-14
1.51348e-14
1.25106e-14
6.68459e-15
-8.07334e-16
-4.14294e-15
2.74118e-15
-4.36438e-16
-7.30172e-15
-8.73131e-15
-1.50618e-14
-5.56748e-15
2.92237e-13
2.89897e-13
2.87271e-13
2.85968e-13
2.85854e-13
2.85346e-13
2.84245e-13
2.86949e-13
2.92074e-13
2.87599e-13
2.84338e-13
2.7985e-13
2.725e-13
2.6607e-13
2.54943e-13
2.52755e-13
2.55937e-13
2.44892e-13
2.41543e-13
2.37553e-13
2.20644e-13
2.11982e-13
2.00777e-13
1.94556e-13
1.90638e-13
1.90414e-13
1.88403e-13
1.79277e-13
1.73687e-13
1.74146e-13
1.65215e-13
1.63627e-13
1.58167e-13
1.53501e-13
1.40663e-13
1.31381e-13
1.29313e-13
1.24665e-13
1.21441e-13