/*--------------------------------*- C++ -*----------------------------------*\
| =========                 |                                                 |
| \\      /  F ield         | OpenFOAM: The Open Source CFD Toolbox           |
|  \\    /   O peration     | Version:  v2012                                 |
|   \\  /    A nd           | Website:  www.openfoam.com                      |
|    \\/     M anipulation  |                                                 |
\*---------------------------------------------------------------------------*/
FoamFile
{
    version     2.0;
    format      ascii;
    class       surfaceScalarField;
    location    "1.5";
    object      phi;
}
// * * * * * * * * * * * * * * * * * * * * * * * * * * * * * * * * * * * * * //

dimensions      [0 3 -1 0 0 0 0];
oriented        oriented;


internalField   nonuniform List<scalar> 
130560
(
3.42052e-06
-3.42052e-06
6.84082e-06
-3.42029e-06
1.02607e-05
-3.41984e-06
1.36798e-05
-3.41917e-06
1.70981e-05
-3.41826e-06
2.05152e-05
-3.41712e-06
2.3931e-05
-3.41576e-06
2.73451e-05
-3.41415e-06
3.07574e-05
-3.41231e-06
3.41677e-05
-3.41023e-06
3.75756e-05
-3.4079e-06
4.09809e-05
-3.40532e-06
4.43834e-05
-3.40248e-06
4.77828e-05
-3.39939e-06
5.11788e-05
-3.39602e-06
5.45712e-05
-3.39238e-06
5.79596e-05
-3.38847e-06
6.13439e-05
-3.38426e-06
6.47236e-05
-3.37976e-06
6.80986e-05
-3.37496e-06
7.14685e-05
-3.36985e-06
7.48329e-05
-3.36442e-06
7.81915e-05
-3.35866e-06
8.15441e-05
-3.35256e-06
8.48902e-05
-3.34612e-06
8.82295e-05
-3.33932e-06
9.15617e-05
-3.33215e-06
9.48863e-05
-3.32461e-06
9.8203e-05
-3.31668e-06
0.000101511
-3.30836e-06
0.000104811
-3.29962e-06
0.000108101
-3.29047e-06
0.000111382
-3.28088e-06
0.000114653
-3.27086e-06
0.000117914
-3.26038e-06
0.000121163
-3.24943e-06
0.000124401
-3.23801e-06
0.000127627
-3.22611e-06
0.000130841
-3.2137e-06
0.000134042
-3.20078e-06
0.000137229
-3.18734e-06
0.000140402
-3.17337e-06
0.000143561
-3.15885e-06
0.000146705
-3.14378e-06
0.000149833
-3.12814e-06
0.000152945
-3.11192e-06
0.00015604
-3.09511e-06
0.000159118
-3.07771e-06
0.000162177
-3.05969e-06
0.000165219
-3.04106e-06
0.00016824
-3.02181e-06
0.000171242
-3.00191e-06
0.000174224
-2.98137e-06
0.000177184
-2.96018e-06
0.000180122
-2.93833e-06
0.000183038
-2.91581e-06
0.000185931
-2.89261e-06
0.000188799
-2.86874e-06
0.000191643
-2.84418e-06
0.000194462
-2.81892e-06
0.000197255
-2.79298e-06
0.000200022
-2.76633e-06
0.000202761
-2.73898e-06
0.000205472
-2.71093e-06
0.000208154
-2.68216e-06
0.000210806
-2.6527e-06
0.000213429
-2.62252e-06
0.000216021
-2.59164e-06
0.000218581
-2.56005e-06
0.000221108
-2.52775e-06
0.000223603
-2.49476e-06
0.000226064
-2.46107e-06
0.000228491
-2.42668e-06
0.000230883
-2.39161e-06
0.000233238
-2.35585e-06
0.000235558
-2.31941e-06
0.00023784
-2.28231e-06
0.000240085
-2.24455e-06
0.000242291
-2.20613e-06
0.000244458
-2.16708e-06
0.000246585
-2.12739e-06
0.000248672
-2.08708e-06
0.000250718
-2.04616e-06
0.000252723
-2.00465e-06
0.000254686
-1.96256e-06
0.000256606
-1.91989e-06
0.000258482
-1.87667e-06
0.000260315
-1.83291e-06
0.000262104
-1.78863e-06
0.000263848
-1.74384e-06
0.000265546
-1.69855e-06
0.000267199
-1.6528e-06
0.000268806
-1.60658e-06
0.000270365
-1.55993e-06
0.000271878
-1.51286e-06
0.000273344
-1.46538e-06
0.000274761
-1.41752e-06
0.000276131
-1.3693e-06
0.000277451
-1.32073e-06
0.000278723
-1.27184e-06
0.000279946
-1.22264e-06
0.000281119
-1.17316e-06
0.000282242
-1.12341e-06
0.000283316
-1.07341e-06
0.000284339
-1.02319e-06
0.000285312
-9.7276e-07
0.000286234
-9.22145e-07
0.000287105
-8.71363e-07
0.000287926
-8.20434e-07
0.000288695
-7.69376e-07
0.000289413
-7.1821e-07
0.00029008
-6.66954e-07
0.000290696
-6.15627e-07
0.00029126
-5.64247e-07
0.000291773
-5.12832e-07
0.000292234
-4.61401e-07
0.000292644
-4.09971e-07
0.000293003
-3.58559e-07
0.00029331
-3.07182e-07
0.000293566
-2.55857e-07
0.00029377
-2.046e-07
0.000293924
-1.53426e-07
0.000294026
-1.0235e-07
0.000294078
-5.13891e-08
0.000294078
-5.56287e-10
0.000294028
5.01338e-08
0.000293927
1.00667e-07
0.000293776
1.51031e-07
0.000293575
2.01211e-07
0.000293324
2.51196e-07
0.000293023
3.00972e-07
0.000292672
3.50529e-07
0.000292273
3.99854e-07
0.000291824
4.48935e-07
0.000291326
4.97763e-07
0.00029078
5.46327e-07
0.000290185
5.94615e-07
0.000289542
6.42619e-07
0.000288852
6.90327e-07
0.000288114
7.37732e-07
0.000287329
7.84824e-07
0.000286498
8.31593e-07
0.00028562
8.78031e-07
0.000284696
9.2413e-07
0.000283726
9.69881e-07
0.000282711
1.01528e-06
0.00028165
1.06031e-06
0.000280545
1.10497e-06
0.000279396
1.14925e-06
0.000278203
1.19314e-06
0.000276966
1.23664e-06
0.000275686
1.27974e-06
0.000274364
1.32243e-06
0.000272999
1.36471e-06
0.000271593
1.40656e-06
0.000270145
1.44799e-06
0.000268656
1.48898e-06
0.000267126
1.52954e-06
0.000265557
1.56964e-06
0.000263947
1.6093e-06
0.000262299
1.64849e-06
0.000260612
1.68722e-06
0.000258886
1.72548e-06
0.000257123
1.76326e-06
0.000255322
1.80057e-06
0.000253485
1.83738e-06
0.000251611
1.87371e-06
0.000249702
1.90954e-06
0.000247757
1.94487e-06
0.000245777
1.9797e-06
0.000243763
2.01402e-06
0.000241715
2.04782e-06
0.000239634
2.08111e-06
0.00023752
2.11388e-06
0.000235374
2.14612e-06
0.000233196
2.17784e-06
0.000230987
2.20902e-06
0.000228748
2.23968e-06
0.000226478
2.2698e-06
0.000224178
2.29939e-06
0.00022185
2.32843e-06
0.000219493
2.35694e-06
0.000217108
2.38491e-06
0.000214696
2.41233e-06
0.000212257
2.43922e-06
0.000209791
2.46556e-06
0.0002073
2.49136e-06
0.000204783
2.51662e-06
0.000202242
2.54133e-06
0.000199676
2.56551e-06
0.000197087
2.58915e-06
0.000194475
2.61226e-06
0.00019184
2.63483e-06
0.000189183
2.65686e-06
0.000186505
2.67837e-06
0.000183805
2.69935e-06
0.000181086
2.71981e-06
0.000178346
2.73975e-06
0.000175587
2.75918e-06
0.000172809
2.77809e-06
0.000170012
2.7965e-06
0.000167198
2.8144e-06
0.000164366
2.83181e-06
0.000161517
2.84873e-06
0.000158652
2.86516e-06
0.000155771
2.88111e-06
0.000152874
2.89659e-06
0.000149963
2.91159e-06
0.000147037
2.92614e-06
0.000144096
2.94023e-06
0.000141142
2.95387e-06
0.000138175
2.96707e-06
0.000135196
2.97984e-06
0.000132203
2.99217e-06
0.000129199
3.00409e-06
0.000126184
3.01559e-06
0.000123157
3.02669e-06
0.00012012
3.03739e-06
0.000117072
3.0477e-06
0.000114014
3.05762e-06
0.000110947
3.06717e-06
0.000107871
3.07634e-06
0.000104786
3.08516e-06
0.000101692
3.09362e-06
9.85902e-05
3.10174e-06
9.54807e-05
3.10952e-06
9.23638e-05
3.11696e-06
8.92397e-05
3.12408e-06
8.61088e-05
3.13088e-06
8.29714e-05
3.13737e-06
7.98279e-05
3.14356e-06
7.66784e-05
3.14945e-06
7.35234e-05
3.15505e-06
7.0363e-05
3.16036e-06
6.71976e-05
3.1654e-06
6.40274e-05
3.17016e-06
6.08528e-05
3.17466e-06
5.76739e-05
3.1789e-06
5.4491e-05
3.18288e-06
5.13044e-05
3.18661e-06
4.81143e-05
3.19009e-06
4.4921e-05
3.19333e-06
4.17246e-05
3.19634e-06
3.85255e-05
3.19911e-06
3.53239e-05
3.20166e-06
3.21199e-05
3.20398e-06
2.89138e-05
3.20608e-06
2.57059e-05
3.20796e-06
2.24962e-05
3.20962e-06
1.92852e-05
3.21107e-06
1.60729e-05
3.21231e-06
1.28595e-05
3.21334e-06
9.64536e-06
3.21416e-06
6.43058e-06
3.21478e-06
3.21539e-06
3.21519e-06
3.21539e-06
3.42074e-06
-6.84126e-06
6.84126e-06
-6.84081e-06
1.02613e-05
-6.83991e-06
1.36807e-05
-6.83856e-06
1.70992e-05
-6.83675e-06
2.05166e-05
-6.83448e-06
2.39326e-05
-6.83175e-06
2.73469e-05
-6.82854e-06
3.07595e-05
-6.82487e-06
3.417e-05
-6.8207e-06
3.75781e-05
-6.81605e-06
4.09837e-05
-6.81089e-06
4.43864e-05
-6.80523e-06
4.77861e-05
-6.79904e-06
5.11824e-05
-6.79232e-06
5.4575e-05
-6.78505e-06
5.79638e-05
-6.77722e-06
6.13484e-05
-6.76882e-06
6.47284e-05
-6.75982e-06
6.81037e-05
-6.75023e-06
7.14738e-05
-6.74001e-06
7.48386e-05
-6.72916e-06
7.81976e-05
-6.71765e-06
8.15505e-05
-6.70546e-06
8.4897e-05
-6.69259e-06
8.82366e-05
-6.679e-06
9.15692e-05
-6.66468e-06
9.48942e-05
-6.64961e-06
9.82112e-05
-6.63376e-06
0.00010152
-6.61712e-06
0.00010482
-6.59966e-06
0.000108111
-6.58136e-06
0.000111392
-6.56221e-06
0.000114664
-6.54217e-06
0.000117924
-6.52122e-06
0.000121174
-6.49934e-06
0.000124413
-6.47651e-06
0.000127639
-6.45271e-06
0.000130854
-6.42791e-06
0.000134055
-6.40208e-06
0.000137243
-6.37521e-06
0.000140417
-6.34728e-06
0.000143576
-6.31825e-06
0.00014672
-6.28812e-06
0.000149849
-6.25685e-06
0.000152962
-6.22442e-06
0.000156057
-6.19082e-06
0.000159136
-6.15602e-06
0.000162196
-6.12001e-06
0.000165238
-6.08275e-06
0.00016826
-6.04425e-06
0.000171263
-6.00447e-06
0.000174245
-5.9634e-06
0.000177206
-5.92102e-06
0.000180145
-5.87732e-06
0.000183061
-5.83229e-06
0.000185954
-5.78591e-06
0.000188824
-5.73816e-06
0.000191669
-5.68904e-06
0.000194488
-5.63854e-06
0.000197282
-5.58665e-06
0.000200049
-5.53336e-06
0.000202789
-5.47866e-06
0.0002055
-5.42256e-06
0.000208183
-5.36504e-06
0.000210837
-5.3061e-06
0.00021346
-5.24575e-06
0.000216052
-5.18398e-06
0.000218613
-5.1208e-06
0.000221141
-5.05621e-06
0.000223637
-4.99022e-06
0.000226099
-4.92283e-06
0.000228526
-4.85405e-06
0.000230918
-4.78389e-06
0.000233275
-4.71237e-06
0.000235595
-4.6395e-06
0.000237878
-4.56528e-06
0.000240123
-4.48975e-06
0.00024233
-4.41291e-06
0.000244497
-4.33479e-06
0.000246625
-4.2554e-06
0.000248713
-4.17477e-06
0.00025076
-4.09293e-06
0.000252765
-4.00989e-06
0.000254728
-3.92568e-06
0.000256649
-3.84034e-06
0.000258526
-3.75388e-06
0.000260359
-3.66635e-06
0.000262149
-3.57776e-06
0.000263893
-3.48817e-06
0.000265592
-3.39758e-06
0.000267245
-3.30605e-06
0.000268852
-3.21361e-06
0.000270412
-3.12028e-06
0.000271926
-3.02612e-06
0.000273392
-2.93115e-06
0.000274809
-2.83541e-06
0.000276179
-2.73895e-06
0.0002775
-2.64179e-06
0.000278772
-2.54399e-06
0.000279995
-2.44557e-06
0.000281169
-2.34658e-06
0.000282292
-2.24706e-06
0.000283366
-2.14705e-06
0.000284389
-2.04659e-06
0.000285362
-1.94571e-06
0.000286285
-1.84446e-06
0.000287156
-1.74288e-06
0.000287977
-1.641e-06
0.000288746
-1.53886e-06
0.000289464
-1.43651e-06
0.000290131
-1.33398e-06
0.000290747
-1.23131e-06
0.000291311
-1.12853e-06
0.000291824
-1.02568e-06
0.000292286
-9.22803e-07
0.000292696
-8.19926e-07
0.000293054
-7.17085e-07
0.000293361
-6.14315e-07
0.000293617
-5.11648e-07
0.000293822
-4.09118e-07
0.000293975
-3.06754e-07
0.000294077
-2.04589e-07
0.000294128
-1.02652e-07
0.000294129
-9.71805e-10
0.000294079
1.00422e-07
0.000293978
2.01503e-07
0.000293827
3.02243e-07
0.000293625
4.02616e-07
0.000293374
5.02598e-07
0.000293073
6.02163e-07
0.000292722
7.01287e-07
0.000292322
7.99948e-07
0.000291872
8.98123e-07
0.000291374
9.95789e-07
0.000290828
1.09293e-06
0.000290233
1.18951e-06
0.00028959
1.28553e-06
0.000288899
1.38096e-06
0.000288161
1.47578e-06
0.000287376
1.56997e-06
0.000286544
1.66352e-06
0.000285666
1.7564e-06
0.000284741
1.84861e-06
0.000283771
1.94012e-06
0.000282756
2.03091e-06
0.000281695
2.12098e-06
0.00028059
2.21031e-06
0.00027944
2.29888e-06
0.000278246
2.38667e-06
0.000277009
2.47368e-06
0.000275729
2.55989e-06
0.000274406
2.64528e-06
0.000273041
2.72984e-06
0.000271634
2.81355e-06
0.000270186
2.89641e-06
0.000268696
2.97841e-06
0.000267166
3.05952e-06
0.000265596
3.13974e-06
0.000263987
3.21905e-06
0.000262338
3.29744e-06
0.00026065
3.37491e-06
0.000258924
3.45143e-06
0.00025716
3.52701e-06
0.000255359
3.60162e-06
0.000253521
3.67526e-06
0.000251647
3.74792e-06
0.000249737
3.81958e-06
0.000247792
3.89025e-06
0.000245811
3.95991e-06
0.000243797
4.02855e-06
0.000241749
4.09616e-06
0.000239667
4.16274e-06
0.000237553
4.22827e-06
0.000235406
4.29276e-06
0.000233228
4.3562e-06
0.000231018
4.41858e-06
0.000228778
4.47989e-06
0.000226507
4.54014e-06
0.000224208
4.59931e-06
0.000221879
4.6574e-06
0.000219521
4.71442e-06
0.000217136
4.77036e-06
0.000214723
4.82521e-06
0.000212283
4.87898e-06
0.000209817
4.93166e-06
0.000207325
4.98326e-06
0.000204808
5.03377e-06
0.000202266
5.08321e-06
0.0001997
5.13156e-06
0.00019711
5.17884e-06
0.000194497
5.22505e-06
0.000191862
5.27018e-06
0.000189205
5.31426e-06
0.000186526
5.35727e-06
0.000183826
5.39923e-06
0.000181106
5.44015e-06
0.000178365
5.48002e-06
0.000175606
5.51887e-06
0.000172827
5.55669e-06
0.00017003
5.5935e-06
0.000167215
5.6293e-06
0.000164383
5.66412e-06
0.000161534
5.69794e-06
0.000158668
5.7308e-06
0.000155786
5.76269e-06
0.000152889
5.79364e-06
0.000149977
5.82365e-06
0.000147051
5.85274e-06
0.00014411
5.88091e-06
0.000141156
5.90819e-06
0.000138188
5.93458e-06
0.000135208
5.9601e-06
0.000132215
5.98477e-06
0.000129211
6.00859e-06
0.000126195
6.03159e-06
0.000123168
6.05378e-06
0.00012013
6.07517e-06
0.000117082
6.09578e-06
0.000114024
6.11561e-06
0.000110956
6.1347e-06
0.00010788
6.15305e-06
0.000104794
6.17067e-06
0.0001017
6.18759e-06
9.85981e-05
6.20382e-06
9.54882e-05
6.21936e-06
9.23709e-05
6.23425e-06
8.92465e-05
6.24848e-06
8.61153e-05
6.26208e-06
8.29777e-05
6.27505e-06
7.98338e-05
6.28742e-06
7.66841e-05
6.29919e-06
7.35287e-05
6.31038e-06
7.03681e-05
6.32101e-06
6.72024e-05
6.33107e-06
6.4032e-05
6.34059e-06
6.0857e-05
6.34958e-06
5.76779e-05
6.35805e-06
5.44948e-05
6.366e-06
5.13079e-05
6.37346e-06
4.81176e-05
6.38042e-06
4.4924e-05
6.3869e-06
4.17274e-05
6.39291e-06
3.85281e-05
6.39846e-06
3.53262e-05
6.40354e-06
3.2122e-05
6.40818e-06
2.89157e-05
6.41237e-06
2.57075e-05
6.41613e-06
2.24977e-05
6.41946e-06
1.92864e-05
6.42236e-06
1.60739e-05
6.42483e-06
1.28603e-05
6.42689e-06
9.64598e-06
6.42854e-06
6.43099e-06
6.42976e-06
3.2156e-06
6.43058e-06
6.43099e-06
3.42119e-06
-1.02625e-05
6.84216e-06
-1.02618e-05
1.02627e-05
-1.02604e-05
1.36825e-05
-1.02584e-05
1.71015e-05
-1.02557e-05
2.05193e-05
-1.02523e-05
2.39358e-05
-1.02482e-05
2.73506e-05
-1.02434e-05
3.07637e-05
-1.02379e-05
3.41746e-05
-1.02317e-05
3.75833e-05
-1.02247e-05
4.09894e-05
-1.0217e-05
4.43926e-05
-1.02085e-05
4.77928e-05
-1.01992e-05
5.11897e-05
-1.01892e-05
5.45829e-05
-1.01783e-05
5.79722e-05
-1.01665e-05
6.13574e-05
-1.0154e-05
6.4738e-05
-1.01405e-05
6.81139e-05
-1.01261e-05
7.14847e-05
-1.01108e-05
7.48501e-05
-1.00946e-05
7.82098e-05
-1.00773e-05
8.15634e-05
-1.00591e-05
8.49106e-05
-1.00398e-05
8.8251e-05
-1.00194e-05
9.15843e-05
-9.99796e-06
9.491e-05
-9.97538e-06
9.82279e-05
-9.95163e-06
0.000101537
-9.9267e-06
0.000104838
-9.90054e-06
0.00010813
-9.87312e-06
0.000111412
-9.84441e-06
0.000114685
-9.81438e-06
0.000117946
-9.78299e-06
0.000121197
-9.7502e-06
0.000124437
-9.71599e-06
0.000127664
-9.68031e-06
0.000130879
-9.64314e-06
0.000134082
-9.60443e-06
0.000137271
-9.56416e-06
0.000140446
-9.52228e-06
0.000143606
-9.47877e-06
0.000146752
-9.43359e-06
0.000149882
-9.38671e-06
0.000152995
-9.3381e-06
0.000156092
-9.28773e-06
0.000159172
-9.23555e-06
0.000162233
-9.18155e-06
0.000165276
-9.1257e-06
0.0001683
-9.06796e-06
0.000171304
-9.00831e-06
0.000174287
-8.94673e-06
0.000177249
-8.88318e-06
0.00018019
-8.81765e-06
0.000183107
-8.75012e-06
0.000186002
-8.68056e-06
0.000188873
-8.60896e-06
0.000191719
-8.53529e-06
0.00019454
-8.45955e-06
0.000197335
-8.38173e-06
0.000200104
-8.3018e-06
0.000202845
-8.21976e-06
0.000205558
-8.1356e-06
0.000208242
-8.04932e-06
0.000210897
-7.96092e-06
0.000213522
-7.87039e-06
0.000216115
-7.77774e-06
0.000218677
-7.68296e-06
0.000221207
-7.58607e-06
0.000223704
-7.48707e-06
0.000226167
-7.38597e-06
0.000228596
-7.2828e-06
0.00023099
-7.17755e-06
0.000233348
-7.07025e-06
0.000235669
-6.96092e-06
0.000237953
-6.84958e-06
0.0002402
-6.73625e-06
0.000242408
-6.62097e-06
0.000244577
-6.50376e-06
0.000246706
-6.38465e-06
0.000248795
-6.26368e-06
0.000250843
-6.14088e-06
0.000252849
-6.01629e-06
0.000254814
-5.88994e-06
0.000256735
-5.76189e-06
0.000258613
-5.63217e-06
0.000260448
-5.50083e-06
0.000262238
-5.36792e-06
0.000263983
-5.23348e-06
0.000265683
-5.09756e-06
0.000267338
-4.96022e-06
0.000268945
-4.82151e-06
0.000270507
-4.68148e-06
0.000272021
-4.54018e-06
0.000273487
-4.39768e-06
0.000274906
-4.25403e-06
0.000276276
-4.10928e-06
0.000277598
-3.9635e-06
0.000278871
-3.81674e-06
0.000280094
-3.66907e-06
0.000281268
-3.52054e-06
0.000282392
-3.37121e-06
0.000283466
-3.22114e-06
0.00028449
-3.07039e-06
0.000285464
-2.91903e-06
0.000286386
-2.76711e-06
0.000287258
-2.61468e-06
0.000288079
-2.46182e-06
0.000288848
-2.30857e-06
0.000289567
-2.15499e-06
0.000290234
-2.00115e-06
0.00029085
-1.84709e-06
0.000291414
-1.69288e-06
0.000291927
-1.53857e-06
0.000292389
-1.3842e-06
0.000292798
-1.22984e-06
0.000293157
-1.07554e-06
0.000293464
-9.21344e-07
0.00029372
-7.67303e-07
0.000293924
-6.13468e-07
0.000294077
-4.59884e-07
0.000294179
-3.06598e-07
0.00029423
-1.53656e-07
0.00029423
-1.10089e-09
0.00029418
1.51025e-07
0.000294078
3.02679e-07
0.000293927
4.53822e-07
0.000293725
6.04414e-07
0.000293473
7.54417e-07
0.000293172
9.03794e-07
0.00029282
1.05251e-06
0.00029242
1.20053e-06
0.00029197
1.34782e-06
0.000291472
1.49434e-06
0.000290924
1.64008e-06
0.000290329
1.78498e-06
0.000289685
1.92903e-06
0.000288994
2.0722e-06
0.000288256
2.21445e-06
0.00028747
2.35576e-06
0.000286637
2.4961e-06
0.000285758
2.63545e-06
0.000284833
2.77378e-06
0.000283862
2.91106e-06
0.000282846
3.04728e-06
0.000281784
3.1824e-06
0.000280678
3.31641e-06
0.000279528
3.44928e-06
0.000278333
3.581e-06
0.000277096
3.71152e-06
0.000275815
3.84085e-06
0.000274491
3.96895e-06
0.000273125
4.09581e-06
0.000271717
4.2214e-06
0.000270268
4.34571e-06
0.000268777
4.46871e-06
0.000267247
4.59039e-06
0.000265676
4.71074e-06
0.000264065
4.82972e-06
0.000262415
4.94732e-06
0.000260726
5.06354e-06
0.000259
5.17834e-06
0.000257235
5.29171e-06
0.000255433
5.40364e-06
0.000253594
5.51412e-06
0.000251719
5.62312e-06
0.000249808
5.73063e-06
0.000247861
5.83664e-06
0.00024588
5.94113e-06
0.000243865
6.0441e-06
0.000241815
6.14553e-06
0.000239732
6.2454e-06
0.000237617
6.34372e-06
0.000235469
6.44046e-06
0.00023329
6.53563e-06
0.000231079
6.6292e-06
0.000228838
6.72118e-06
0.000226567
6.81155e-06
0.000224266
6.90031e-06
0.000221936
6.98746e-06
0.000219577
7.07298e-06
0.00021719
7.15689e-06
0.000214777
7.23917e-06
0.000212336
7.31982e-06
0.000209868
7.39884e-06
0.000207376
7.47624e-06
0.000204857
7.55201e-06
0.000202314
7.62616e-06
0.000199747
7.69869e-06
0.000197156
7.7696e-06
0.000194543
7.83891e-06
0.000191906
7.90661e-06
0.000189248
7.97271e-06
0.000186568
8.03722e-06
0.000183867
8.10015e-06
0.000181145
8.16152e-06
0.000178404
8.22132e-06
0.000175643
8.27958e-06
0.000172864
8.3363e-06
0.000170066
8.3915e-06
0.00016725
8.4452e-06
0.000164417
8.4974e-06
0.000161566
8.54813e-06
0.0001587
8.5974e-06
0.000155817
8.64523e-06
0.000152919
8.69163e-06
0.000150006
8.73663e-06
0.000147079
8.78024e-06
0.000144137
8.82249e-06
0.000141182
8.86338e-06
0.000138214
8.90296e-06
0.000135233
8.94122e-06
0.000132239
8.97821e-06
0.000129234
9.01393e-06
0.000126217
9.04841e-06
0.000123189
9.08167e-06
0.000120151
9.11373e-06
0.000117102
9.14462e-06
0.000114043
9.17436e-06
0.000110975
9.20297e-06
0.000107897
9.23048e-06
0.000104811
9.2569e-06
0.000101716
9.28225e-06
9.86136e-05
9.30657e-06
9.55031e-05
9.32988e-06
9.23851e-05
9.35218e-06
8.92601e-05
9.37351e-06
8.61283e-05
9.39389e-06
8.299e-05
9.41334e-06
7.98456e-05
9.43187e-06
7.66952e-05
9.44952e-06
7.35393e-05
9.46629e-06
7.03781e-05
9.48221e-06
6.72119e-05
9.49729e-06
6.4041e-05
9.51156e-06
6.08655e-05
9.52503e-06
5.76858e-05
9.53771e-06
5.45022e-05
9.54963e-06
5.13149e-05
9.5608e-06
4.81241e-05
9.57123e-06
4.493e-05
9.58095e-06
4.1733e-05
9.58995e-06
3.85332e-05
9.59825e-06
3.53308e-05
9.60588e-06
3.21262e-05
9.61282e-06
2.89195e-05
9.61911e-06
2.57109e-05
9.62474e-06
2.25006e-05
9.62972e-06
1.92889e-05
9.63406e-06
1.6076e-05
9.63777e-06
1.2862e-05
9.64086e-06
9.6472e-06
9.64332e-06
6.43181e-06
9.64516e-06
3.21601e-06
9.64638e-06
9.64699e-06
3.42187e-06
-1.36843e-05
6.84352e-06
-1.36834e-05
1.02647e-05
-1.36816e-05
1.36852e-05
-1.36789e-05
1.71049e-05
-1.36753e-05
2.05234e-05
-1.36708e-05
2.39406e-05
-1.36654e-05
2.73561e-05
-1.3659e-05
3.07699e-05
-1.36517e-05
3.41816e-05
-1.36434e-05
3.7591e-05
-1.36341e-05
4.09979e-05
-1.36238e-05
4.44019e-05
-1.36125e-05
4.78029e-05
-1.36002e-05
5.12006e-05
-1.35868e-05
5.45946e-05
-1.35723e-05
5.79848e-05
-1.35567e-05
6.13708e-05
-1.354e-05
6.47524e-05
-1.35221e-05
6.81292e-05
-1.35029e-05
7.1501e-05
-1.34826e-05
7.48674e-05
-1.34609e-05
7.82281e-05
-1.3438e-05
8.15827e-05
-1.34137e-05
8.49309e-05
-1.3388e-05
8.82725e-05
-1.33609e-05
9.16069e-05
-1.33324e-05
9.49338e-05
-1.33023e-05
9.82529e-05
-1.32707e-05
0.000101564
-1.32375e-05
0.000104866
-1.32027e-05
0.000108159
-1.31662e-05
0.000111442
-1.31279e-05
0.000114716
-1.3088e-05
0.000117979
-1.30462e-05
0.000121231
-1.30025e-05
0.000124472
-1.29569e-05
0.000127701
-1.29094e-05
0.000130918
-1.28599e-05
0.000134122
-1.28083e-05
0.000137313
-1.27547e-05
0.000140489
-1.26989e-05
0.000143652
-1.2641e-05
0.000146799
-1.25808e-05
0.00014993
-1.25183e-05
0.000153046
-1.24535e-05
0.000156144
-1.23864e-05
0.000159226
-1.23169e-05
0.000162289
-1.2245e-05
0.000165334
-1.21705e-05
0.00016836
-1.20936e-05
0.000171365
-1.20141e-05
0.000174351
-1.1932e-05
0.000177315
-1.18473e-05
0.000180257
-1.176e-05
0.000183177
-1.167e-05
0.000186074
-1.15773e-05
0.000188947
-1.14818e-05
0.000191795
-1.13836e-05
0.000194618
-1.12827e-05
0.000197415
-1.11789e-05
0.000200186
-1.10723e-05
0.000202929
-1.0963e-05
0.000205644
-1.08508e-05
0.000208331
-1.07357e-05
0.000210988
-1.06179e-05
0.000213614
-1.04972e-05
0.00021621
-1.03736e-05
0.000218774
-1.02472e-05
0.000221306
-1.0118e-05
0.000223805
-9.98602e-06
0.000226271
-9.85121e-06
0.000228701
-9.71361e-06
0.000231097
-9.57325e-06
0.000233457
-9.43016e-06
0.00023578
-9.28435e-06
0.000238067
-9.13586e-06
0.000240315
-8.98472e-06
0.000242525
-8.83096e-06
0.000244696
-8.67463e-06
0.000246827
-8.51577e-06
0.000248918
-8.35442e-06
0.000250968
-8.19062e-06
0.000252976
-8.02444e-06
0.000254942
-7.85592e-06
0.000256865
-7.68511e-06
0.000258745
-7.51208e-06
0.000260581
-7.33689e-06
0.000262373
-7.1596e-06
0.000264119
-6.98027e-06
0.000265821
-6.79896e-06
0.000267476
-6.61576e-06
0.000269086
-6.43073e-06
0.000270648
-6.24393e-06
0.000272163
-6.05545e-06
0.000273631
-5.86536e-06
0.000275051
-5.67373e-06
0.000276422
-5.48065e-06
0.000277745
-5.28618e-06
0.000279018
-5.09042e-06
0.000280243
-4.89343e-06
0.000281418
-4.69529e-06
0.000282542
-4.49609e-06
0.000283617
-4.29591e-06
0.000284642
-4.09482e-06
0.000285615
-3.89291e-06
0.000286539
-3.69025e-06
0.000287411
-3.48693e-06
0.000288232
-3.28302e-06
0.000289002
-3.0786e-06
0.000289721
-2.87374e-06
0.000290388
-2.66853e-06
0.000291004
-2.46303e-06
0.000291569
-2.25733e-06
0.000292082
-2.0515e-06
0.000292543
-1.8456e-06
0.000292953
-1.6397e-06
0.000293311
-1.43389e-06
0.000293618
-1.22822e-06
0.000293873
-1.02275e-06
0.000294078
-8.17565e-07
0.00029423
-6.12715e-07
0.000294332
-4.08264e-07
0.000294383
-2.04273e-07
0.000294382
-7.99272e-10
0.000294331
2.02099e-07
0.00029423
4.04368e-07
0.000294077
6.05953e-07
0.000293875
8.06801e-07
0.000293623
1.00686e-06
0.00029332
1.20609e-06
0.000292968
1.40443e-06
0.000292567
1.60184e-06
0.000292117
1.79828e-06
0.000291617
1.9937e-06
0.000291069
2.18805e-06
0.000290473
2.38131e-06
0.000289829
2.57342e-06
0.000289136
2.76435e-06
0.000288397
2.95406e-06
0.00028761
3.14252e-06
0.000286777
3.32968e-06
0.000285896
3.51552e-06
0.00028497
3.7e-06
0.000283998
3.88308e-06
0.000282981
4.06474e-06
0.000281918
4.24494e-06
0.000280811
4.42366e-06
0.000279659
4.60085e-06
0.000278464
4.7765e-06
0.000277225
4.95057e-06
0.000275943
5.12304e-06
0.000274618
5.29387e-06
0.000273251
5.46304e-06
0.000271841
5.63053e-06
0.000270391
5.79631e-06
0.000268899
5.96034e-06
0.000267367
6.12261e-06
0.000265795
6.2831e-06
0.000264183
6.44177e-06
0.000262531
6.5986e-06
0.000260841
6.75358e-06
0.000259113
6.90667e-06
0.000257347
7.05786e-06
0.000255543
7.20713e-06
0.000253703
7.35445e-06
0.000251826
7.4998e-06
0.000249914
7.64317e-06
0.000247966
7.78454e-06
0.000245983
7.92389e-06
0.000243966
8.0612e-06
0.000241915
8.19645e-06
0.000239831
8.32964e-06
0.000237714
8.46074e-06
0.000235564
8.58974e-06
0.000233383
8.71664e-06
0.000231171
8.84142e-06
0.000228928
8.96406e-06
0.000226655
9.08457e-06
0.000224353
9.20292e-06
0.000222021
9.31913e-06
0.000219661
9.43317e-06
0.000217273
9.54504e-06
0.000214857
9.65475e-06
0.000212415
9.76229e-06
0.000209946
9.86766e-06
0.000207451
9.97085e-06
0.000204931
1.00719e-05
0.000202387
1.01707e-05
0.000199818
1.02674e-05
0.000197226
1.0362e-05
0.00019461
1.04544e-05
0.000191972
1.05446e-05
0.000189312
1.06327e-05
0.000186631
1.07188e-05
0.000183928
1.08026e-05
0.000181205
1.08844e-05
0.000178462
1.09642e-05
0.0001757
1.10418e-05
0.000172919
1.11174e-05
0.000170119
1.1191e-05
0.000167302
1.12626e-05
0.000164467
1.13322e-05
0.000161616
1.13998e-05
0.000158748
1.14654e-05
0.000155864
1.15292e-05
0.000152964
1.1591e-05
0.00015005
1.1651e-05
0.000147121
1.17091e-05
0.000144178
1.17654e-05
0.000141222
1.18199e-05
0.000138252
1.18726e-05
0.00013527
1.19236e-05
0.000132275
1.19729e-05
0.000129268
1.20205e-05
0.00012625
1.20664e-05
0.000123221
1.21107e-05
0.000120181
1.21535e-05
0.000117131
1.21946e-05
0.000114072
1.22342e-05
0.000111002
1.22724e-05
0.000107924
1.2309e-05
0.000104836
1.23442e-05
0.000101741
1.2378e-05
9.86369e-05
1.24103e-05
9.55254e-05
1.24414e-05
9.24065e-05
1.24711e-05
8.92805e-05
1.24995e-05
8.61477e-05
1.25266e-05
8.30085e-05
1.25525e-05
7.98632e-05
1.25772e-05
7.6712e-05
1.26007e-05
7.35552e-05
1.2623e-05
7.03932e-05
1.26442e-05
6.72262e-05
1.26643e-05
6.40544e-05
1.26833e-05
6.08782e-05
1.27013e-05
5.76978e-05
1.27181e-05
5.45134e-05
1.2734e-05
5.13253e-05
1.27489e-05
4.81338e-05
1.27628e-05
4.4939e-05
1.27757e-05
4.17413e-05
1.27877e-05
3.85408e-05
1.27987e-05
3.53378e-05
1.28089e-05
3.21325e-05
1.28181e-05
2.89251e-05
1.28265e-05
2.57158e-05
1.2834e-05
2.25049e-05
1.28406e-05
1.92926e-05
1.28464e-05
1.6079e-05
1.28513e-05
1.28644e-05
1.28554e-05
9.64905e-06
1.28587e-05
6.43303e-06
1.28612e-05
3.21662e-06
1.28628e-05
1.28636e-05
3.42277e-06
-1.71071e-05
6.84531e-06
-1.7106e-05
1.02674e-05
-1.71037e-05
1.36889e-05
-1.71004e-05
1.71094e-05
-1.70959e-05
2.05289e-05
-1.70903e-05
2.3947e-05
-1.70835e-05
2.73635e-05
-1.70755e-05
3.07782e-05
-1.70664e-05
3.41909e-05
-1.70561e-05
3.76013e-05
-1.70445e-05
4.10092e-05
-1.70317e-05
4.44143e-05
-1.70176e-05
4.78163e-05
-1.70023e-05
5.12151e-05
-1.69856e-05
5.46102e-05
-1.69675e-05
5.80016e-05
-1.69481e-05
6.13888e-05
-1.69272e-05
6.47716e-05
-1.69048e-05
6.81496e-05
-1.6881e-05
7.15227e-05
-1.68556e-05
7.48904e-05
-1.68286e-05
7.82524e-05
-1.68e-05
8.16084e-05
-1.67697e-05
8.49581e-05
-1.67377e-05
8.8301e-05
-1.67039e-05
9.1637e-05
-1.66683e-05
9.49654e-05
-1.66308e-05
9.82861e-05
-1.65914e-05
0.000101599
-1.65499e-05
0.000104902
-1.65065e-05
0.000108197
-1.64609e-05
0.000111482
-1.64132e-05
0.000114758
-1.63633e-05
0.000118023
-1.63112e-05
0.000121277
-1.62567e-05
0.00012452
-1.61998e-05
0.000127751
-1.61405e-05
0.00013097
-1.60787e-05
0.000134176
-1.60143e-05
0.000137369
-1.59474e-05
0.000140547
-1.58777e-05
0.000143712
-1.58054e-05
0.000146861
-1.57302e-05
0.000149995
-1.56522e-05
0.000153113
-1.55714e-05
0.000156214
-1.54875e-05
0.000159298
-1.54007e-05
0.000162364
-1.53108e-05
0.000165411
-1.52179e-05
0.000168439
-1.51218e-05
0.000171448
-1.50225e-05
0.000174435
-1.49199e-05
0.000177402
-1.48141e-05
0.000180347
-1.4705e-05
0.00018327
-1.45925e-05
0.000186169
-1.44767e-05
0.000189045
-1.43574e-05
0.000191896
-1.42347e-05
0.000194722
-1.41085e-05
0.000197522
-1.39789e-05
0.000200295
-1.38457e-05
0.000203041
-1.3709e-05
0.000205759
-1.35688e-05
0.000208448
-1.3425e-05
0.000211108
-1.32777e-05
0.000213738
-1.31268e-05
0.000216337
-1.29723e-05
0.000218904
-1.28143e-05
0.000221438
-1.26528e-05
0.00022394
-1.24878e-05
0.000226408
-1.23192e-05
0.000228842
-1.21472e-05
0.00023124
-1.19717e-05
0.000233603
-1.17928e-05
0.000235929
-1.16105e-05
0.000238218
-1.14248e-05
0.000240469
-1.12358e-05
0.000242682
-1.10435e-05
0.000244855
-1.0848e-05
0.000246989
-1.06494e-05
0.000249082
-1.04476e-05
0.000251134
-1.02428e-05
0.000253144
-1.00349e-05
0.000255113
-9.82417e-06
0.000257038
-9.61056e-06
0.00025892
-9.39416e-06
0.000260758
-9.17505e-06
0.000262552
-8.95331e-06
0.000264301
-8.72902e-06
0.000266004
-8.50227e-06
0.000267661
-8.27313e-06
0.000269272
-8.0417e-06
0.000270837
-7.80807e-06
0.000272353
-7.57233e-06
0.000273823
-7.33458e-06
0.000275244
-7.0949e-06
0.000276617
-6.8534e-06
0.000277941
-6.61017e-06
0.000279215
-6.36531e-06
0.000280441
-6.11892e-06
0.000281617
-5.87111e-06
0.000282743
-5.62196e-06
0.000283818
-5.37158e-06
0.000284844
-5.12007e-06
0.000285818
-4.86753e-06
0.000286742
-4.61406e-06
0.000287615
-4.35976e-06
0.000288437
-4.10473e-06
0.000289207
-3.84906e-06
0.000289926
-3.59284e-06
0.000290594
-3.33619e-06
0.00029121
-3.07918e-06
0.000291774
-2.82192e-06
0.000292287
-2.56449e-06
0.000292749
-2.30698e-06
0.000293159
-2.04949e-06
0.000293517
-1.79209e-06
0.000293824
-1.53488e-06
0.000294079
-1.27793e-06
0.000294282
-1.02132e-06
0.000294435
-7.65145e-07
0.000294536
-5.09469e-07
0.000294586
-2.5437e-07
0.000294585
7.81266e-11
0.000294534
2.53805e-07
0.000294431
5.06742e-07
0.000294278
7.5882e-07
0.000294075
1.00998e-06
0.000293822
1.26015e-06
0.000293519
1.50927e-06
0.000293166
1.75728e-06
0.000292764
2.00413e-06
0.000292312
2.24976e-06
0.000291812
2.49411e-06
0.000291263
2.73713e-06
0.000290665
2.97878e-06
0.00029002
3.21899e-06
0.000289326
3.45772e-06
0.000288585
3.69493e-06
0.000287797
3.93057e-06
0.000286962
4.16459e-06
0.000286081
4.39695e-06
0.000285153
4.62761e-06
0.00028418
4.85652e-06
0.000283161
5.08366e-06
0.000282097
5.30897e-06
0.000280988
5.53242e-06
0.000279835
5.75397e-06
0.000278638
5.97358e-06
0.000277397
6.19122e-06
0.000276114
6.40686e-06
0.000274787
6.62045e-06
0.000273418
6.83197e-06
0.000272007
7.04138e-06
0.000270555
7.24864e-06
0.000269061
7.45373e-06
0.000267527
7.65662e-06
0.000265953
7.85727e-06
0.000264339
8.05565e-06
0.000262686
8.25174e-06
0.000260994
8.4455e-06
0.000259264
8.63691e-06
0.000257496
8.82593e-06
0.000255691
9.01256e-06
0.000253848
9.19674e-06
0.00025197
9.37847e-06
0.000250055
9.55772e-06
0.000248105
9.73446e-06
0.00024612
9.90868e-06
0.000244101
1.00803e-05
0.000242048
1.02494e-05
0.000239962
1.0416e-05
0.000237843
1.05799e-05
0.000235691
1.07411e-05