/*--------------------------------*- C++ -*----------------------------------*\
| =========                 |                                                 |
| \\      /  F ield         | OpenFOAM: The Open Source CFD Toolbox           |
|  \\    /   O peration     | Version:  v2012                                 |
|   \\  /    A nd           | Website:  www.openfoam.com                      |
|    \\/     M anipulation  |                                                 |
\*---------------------------------------------------------------------------*/
FoamFile
{
    version     2.0;
    format      ascii;
    class       volScalarField;
    location    "0";
    object      p;
}
// * * * * * * * * * * * * * * * * * * * * * * * * * * * * * * * * * * * * * //

dimensions      [0 2 -2 0 0 0 0];


internalField   nonuniform List<scalar> 
4000
(
4.26128e-13
4.24694e-13
4.27111e-13
4.27001e-13
4.21547e-13
4.31275e-13
4.30661e-13
4.26164e-13
4.11584e-13
3.99707e-13
3.953e-13
3.98655e-13
3.90546e-13
3.71098e-13
3.64868e-13
3.73412e-13
3.7424e-13
3.63901e-13
3.56108e-13
3.46848e-13
3.45314e-13
3.40487e-13
3.37423e-13
3.32008e-13
3.17612e-13
3.01106e-13
3.09869e-13
3.07327e-13
3.01871e-13
2.98263e-13
2.80117e-13
2.76166e-13
2.77775e-13
2.71903e-13
2.77078e-13
2.69182e-13
2.62109e-13
2.48098e-13
2.40952e-13
2.49177e-13
2.54722e-13
2.5734e-13
2.47347e-13
2.44588e-13
2.35092e-13
2.27065e-13
2.26863e-13
2.20025e-13
2.14353e-13
2.15378e-13
2.16391e-13
2.13278e-13
2.0697e-13
2.0923e-13
2.0627e-13
2.02523e-13
2.00174e-13
1.99775e-13
1.98612e-13
2.02712e-13
2.01759e-13
2.00643e-13
1.89994e-13
1.85875e-13
1.83574e-13
1.82388e-13
1.78437e-13
1.67876e-13
1.69624e-13
1.67606e-13
1.64328e-13
1.64582e-13
1.64725e-13
1.61154e-13
1.58245e-13
1.51886e-13
1.49129e-13
1.48247e-13
1.385e-13
1.26076e-13
1.22299e-13
1.04336e-13
9.91568e-14
1.01709e-13
9.8983e-14
9.02067e-14
7.68496e-14
6.67733e-14
6.75659e-14
6.3081e-14
5.78634e-14
5.83168e-14
4.88337e-14
3.88318e-14
3.48239e-14
2.84993e-14
1.87489e-14
1.87692e-14
1.0232e-14
5.65543e-15
4.19164e-13
4.27705e-13
4.26543e-13
4.27978e-13
4.296e-13
4.29415e-13
4.22373e-13
4.21791e-13
4.16633e-13
4.07206e-13
3.92262e-13
3.95745e-13
3.8648e-13
3.75069e-13
3.72934e-13
3.73978e-13
3.67529e-13
3.65103e-13
3.53861e-13
3.50516e-13
3.46352e-13
3.40228e-13
3.36009e-13
3.23635e-13
3.13357e-13
3.05812e-13
3.11918e-13
3.12082e-13
3.01599e-13
2.92107e-13
2.80775e-13
2.7963e-13
2.76796e-13
2.71059e-13
2.74786e-13
2.67453e-13
2.60454e-13
2.51812e-13
2.45563e-13
2.5207e-13
2.54944e-13
2.52943e-13
2.46187e-13
2.4133e-13
2.36907e-13
2.31511e-13
2.28303e-13
2.18992e-13
2.13362e-13
2.13362e-13
2.14229e-13
2.10162e-13
2.06488e-13
2.1375e-13
2.06772e-13
2.03866e-13
1.98391e-13
1.97185e-13
1.99477e-13
2.01905e-13
2.03302e-13
2.01181e-13
1.92773e-13
1.87553e-13
1.8581e-13
1.80553e-13
1.76806e-13
1.69846e-13
1.72431e-13
1.68575e-13
1.63356e-13
1.67792e-13
1.67561e-13
1.61669e-13
1.56106e-13
1.47997e-13
1.4909e-13
1.45902e-13
1.38579e-13
1.28829e-13
1.20921e-13
1.03741e-13
1.04687e-13
9.78677e-14
9.60629e-14
8.62811e-14
8.02874e-14
6.55148e-14
6.59948e-14
6.20705e-14
6.20076e-14
5.69232e-14
5.04908e-14
3.66372e-14
3.16029e-14
2.95948e-14
2.23622e-14
1.78146e-14
1.34986e-14
9.28492e-15
4.23046e-13
4.24461e-13
4.27544e-13
4.28893e-13
4.31991e-13
4.3384e-13
4.21825e-13
4.1869e-13
4.0965e-13
4.08111e-13
3.98125e-13
3.98165e-13
3.88382e-13
3.74193e-13
3.73725e-13
3.71829e-13
3.67904e-13
3.63895e-13
3.53699e-13
3.48046e-13
3.45214e-13
3.33117e-13
3.36287e-13
3.27682e-13
3.1901e-13
3.10438e-13
3.07955e-13
3.10354e-13
2.98449e-13
2.89607e-13
2.83213e-13
2.82539e-13
2.77011e-13
2.74975e-13
2.72461e-13
2.69471e-13
2.5727e-13
2.55577e-13
2.50463e-13
2.51067e-13
2.51317e-13
2.47846e-13
2.47375e-13
2.42946e-13
2.42083e-13
2.3335e-13
2.25655e-13
2.16554e-13
2.16355e-13
2.12683e-13
2.10155e-13
2.11482e-13
2.09313e-13
2.09536e-13
2.03156e-13
2.03051e-13
1.95818e-13
2.00579e-13
2.03505e-13
2.0751e-13
2.01035e-13
1.9371e-13
1.91386e-13
1.90645e-13
1.92204e-13
1.82499e-13
1.76753e-13
1.71278e-13
1.68139e-13
1.61698e-13
1.62515e-13
1.68775e-13
1.63e-13
1.60146e-13
1.5674e-13
1.52844e-13
1.48383e-13
1.4494e-13
1.38082e-13
1.32793e-13
1.23931e-13
1.11686e-13
9.89442e-14
9.26995e-14
9.29417e-14
8.59533e-14
8.48962e-14
7.21319e-14
6.602e-14
6.1643e-14
5.77484e-14
5.5726e-14
4.95148e-14
3.71954e-14
3.35273e-14
2.88302e-14
2.32142e-14
1.83572e-14
2.03675e-14
9.05777e-15
4.26158e-13
4.24886e-13
4.2807e-13
4.26374e-13
4.3518e-13
4.29364e-13
4.2386e-13
4.16042e-13
4.12478e-13
4.14027e-13
4.00972e-13
3.90115e-13
3.85254e-13
3.81498e-13
3.80852e-13
3.76382e-13
3.61804e-13
3.56805e-13
3.54886e-13
3.53872e-13
3.44045e-13
3.31787e-13
3.28723e-13
3.22676e-13
3.17001e-13
3.09244e-13
3.10986e-13
3.11532e-13
2.99672e-13
2.94934e-13
2.87562e-13
2.84524e-13
2.75728e-13
2.71973e-13
2.7104e-13
2.72713e-13
2.62123e-13
2.57127e-13
2.51308e-13
2.52361e-13
2.557e-13
2.51945e-13
2.43481e-13
2.41625e-13
2.36669e-13
2.31086e-13
2.2889e-13
2.21042e-13
2.16864e-13
2.11709e-13
2.08015e-13
2.13112e-13
2.13357e-13
2.08038e-13
2.01321e-13
2.00264e-13
1.95823e-13
2.03267e-13
2.04495e-13
2.0101e-13
2.00999e-13
1.92724e-13
1.94068e-13
1.91923e-13
1.92231e-13
1.83829e-13
1.78802e-13
1.75683e-13
1.6751e-13
1.62228e-13
1.6287e-13
1.68548e-13
1.64388e-13
1.62476e-13
1.58358e-13
1.49271e-13
1.449e-13
1.4294e-13
1.39231e-13
1.33942e-13
1.21823e-13
1.09886e-13
1.00639e-13
9.43533e-14
9.1035e-14
8.61202e-14
8.08161e-14
7.11251e-14
6.34829e-14
5.89146e-14
5.7861e-14
5.46267e-14
5.09601e-14
3.78938e-14
3.5167e-14
2.91626e-14
2.51061e-14
1.95652e-14
1.54314e-14
4.74258e-15
4.29962e-13
4.30634e-13
4.25809e-13
4.24969e-13
4.25308e-13
4.30093e-13
4.29223e-13
4.17875e-13
4.13493e-13
4.10246e-13
4.03889e-13
3.98399e-13
3.79057e-13
3.73414e-13
3.80943e-13
3.81236e-13
3.74457e-13
3.56928e-13
3.49261e-13
3.49565e-13
3.44218e-13
3.36001e-13
3.2311e-13
3.181e-13
3.15533e-13
3.13024e-13
3.13879e-13
3.10596e-13
3.02297e-13
2.96712e-13
2.92131e-13
2.86251e-13
2.75888e-13
2.73093e-13
2.74926e-13
2.73154e-13
2.60028e-13
2.56846e-13
2.57501e-13
2.52467e-13
2.53173e-13
2.55147e-13
2.47336e-13
2.41287e-13
2.34619e-13
2.33595e-13
2.29614e-13
2.19503e-13
2.14711e-13
2.13798e-13
2.10749e-13
2.16229e-13
2.10494e-13
2.08224e-13
2.07666e-13
1.9866e-13
1.96392e-13
2.00294e-13
2.0852e-13
2.07272e-13
1.99124e-13
1.92575e-13
1.96853e-13
1.9239e-13
1.8639e-13
1.89751e-13
1.90168e-13
1.79158e-13
1.6727e-13
1.63067e-13
1.57728e-13
1.6563e-13
1.62757e-13
1.59654e-13
1.54078e-13
1.46568e-13
1.43772e-13
1.41176e-13
1.43813e-13
1.32688e-13
1.22784e-13
1.12817e-13
1.04074e-13
9.20135e-14
8.68999e-14
8.05448e-14
7.87268e-14
7.73638e-14
6.75317e-14
6.09888e-14
5.70928e-14
5.67506e-14
5.03959e-14
4.21499e-14
3.62733e-14
3.09556e-14
2.99699e-14
1.65757e-14
8.92808e-15
-2.50812e-16
4.25658e-13
4.31282e-13
4.29235e-13
4.24427e-13
4.31256e-13
4.36217e-13
4.30291e-13
4.166e-13
4.11046e-13
4.02445e-13
3.98436e-13
3.95472e-13
3.87473e-13
3.85348e-13
3.83836e-13
3.81354e-13
3.67948e-13
3.63191e-13
3.56092e-13
3.45989e-13
3.44354e-13
3.31797e-13
3.17303e-13
3.12392e-13
3.11334e-13
3.18736e-13
3.14278e-13
3.07077e-13
3.033e-13
2.97555e-13
2.98541e-13
2.8985e-13
2.80791e-13
2.76787e-13
2.82757e-13
2.7425e-13
2.59114e-13
2.55151e-13
2.52712e-13
2.54104e-13
2.59962e-13
2.5277e-13
2.42933e-13
2.41617e-13
2.35983e-13
2.31881e-13
2.2367e-13
2.20836e-13
2.15002e-13
2.13659e-13
2.13191e-13
2.15262e-13
2.12723e-13
2.06852e-13
2.06917e-13
2.02963e-13
2.01376e-13
2.02652e-13
2.0637e-13
2.02982e-13
2.01557e-13
1.94934e-13
1.93447e-13
1.87608e-13
1.89238e-13
1.93749e-13
1.90672e-13
1.79631e-13
1.74716e-13
1.71935e-13
1.58966e-13
1.57444e-13
1.62328e-13
1.58064e-13
1.5197e-13
1.50523e-13
1.43466e-13
1.35908e-13
1.39862e-13
1.33028e-13
1.23614e-13
1.13262e-13
1.0294e-13
8.98583e-14
8.69625e-14
8.53572e-14
7.9471e-14
7.69298e-14
6.79737e-14
6.08198e-14
5.93999e-14
6.04095e-14
4.93969e-14
4.12388e-14
3.37857e-14
3.11669e-14
2.63628e-14
1.62426e-14
4.83972e-15
1.10627e-15
4.29912e-13
4.29488e-13
4.27344e-13
4.33283e-13
4.28907e-13
4.27332e-13
4.2842e-13
4.19077e-13
4.06867e-13
4.05237e-13
3.98665e-13
3.91955e-13
3.94712e-13
3.85899e-13
3.82012e-13
3.75635e-13
3.75271e-13
3.70206e-13
3.54766e-13
3.43052e-13
3.32191e-13
3.20656e-13
3.22115e-13
3.21406e-13
3.14284e-13
3.17042e-13
3.12926e-13
3.04407e-13
3.04665e-13
3.02096e-13
3.05738e-13
2.8907e-13
2.83299e-13
2.72432e-13
2.75002e-13
2.73457e-13
2.61662e-13
2.58082e-13
2.53906e-13
2.52754e-13
2.59207e-13
2.52406e-13
2.47932e-13
2.37216e-13
2.40828e-13
2.35451e-13
2.26018e-13
2.20269e-13
2.16801e-13
2.12719e-13
2.12691e-13
2.12605e-13
2.15772e-13
2.13022e-13
2.16003e-13
2.0835e-13
2.02566e-13
1.95867e-13
2.03209e-13
2.05842e-13
2.08209e-13
1.99537e-13
1.92132e-13
1.90093e-13
1.89258e-13
1.92233e-13
1.84993e-13
1.73247e-13
1.69935e-13
1.73837e-13
1.70821e-13
1.64778e-13
1.61922e-13
1.57721e-13
1.52246e-13
1.47471e-13
1.4048e-13
1.37833e-13
1.38656e-13
1.32267e-13
1.18129e-13
1.10221e-13
1.04527e-13
9.72625e-14
9.27902e-14
8.18649e-14
7.64341e-14
7.85672e-14
7.00617e-14
6.06785e-14
6.0675e-14
5.81286e-14
4.99657e-14
3.8873e-14
3.38613e-14
2.64768e-14
2.15883e-14
1.55006e-14
6.73521e-15
1.63147e-15
4.26653e-13
4.27504e-13
4.2692e-13
4.3192e-13
4.34071e-13
4.35274e-13
4.2816e-13
4.17814e-13
4.10313e-13
4.06323e-13
3.98706e-13
3.9719e-13
3.90849e-13
3.84724e-13
3.83548e-13
3.80903e-13
3.75337e-13
3.62912e-13
3.47052e-13
3.42362e-13
3.39885e-13
3.33579e-13
3.27932e-13
3.15914e-13
3.12612e-13
3.11587e-13
3.08417e-13
3.05218e-13
3.03983e-13
3.02516e-13
3.04944e-13
2.91458e-13
2.90803e-13
2.84084e-13
2.75644e-13
2.71524e-13
2.65711e-13
2.58536e-13
2.5079e-13
2.51954e-13
2.53153e-13
2.51936e-13
2.52076e-13
2.46757e-13
2.4733e-13
2.32167e-13
2.20456e-13
2.16391e-13
2.22063e-13
2.14652e-13
2.11892e-13
2.14808e-13
2.20283e-13
2.1373e-13
2.11861e-13
2.02665e-13
2.00884e-13
2.06249e-13
2.03859e-13
2.04796e-13
2.05427e-13
2.01584e-13
1.97943e-13
1.98259e-13
1.9586e-13
1.94339e-13
1.89395e-13
1.77469e-13
1.72959e-13
1.7409e-13
1.72413e-13
1.66539e-13
1.61396e-13
1.49993e-13
1.46487e-13
1.45599e-13
1.49525e-13
1.4103e-13
1.37021e-13
1.32009e-13
1.18234e-13
1.08385e-13
1.00861e-13
9.53922e-14
8.90734e-14
8.04903e-14
7.93946e-14
7.85824e-14
7.12864e-14
6.11335e-14
5.84703e-14
5.61538e-14
4.64176e-14
3.79806e-14
3.21448e-14
2.33876e-14
1.81368e-14
1.57438e-14
9.28189e-15
1.14833e-15
4.30676e-13
4.31072e-13
4.30335e-13
4.31358e-13
4.29076e-13
4.28325e-13
4.27987e-13
4.25206e-13
4.1604e-13
4.09328e-13
3.98521e-13
3.89274e-13
3.86743e-13
3.82525e-13
3.83138e-13
3.80522e-13
3.73847e-13
3.65175e-13
3.53457e-13
3.45292e-13
3.40128e-13
3.30239e-13
3.21878e-13
3.23199e-13
3.16843e-13
3.09179e-13
3.05858e-13
3.07375e-13
3.07395e-13
3.0782e-13
3.08418e-13
3.01029e-13
2.84684e-13
2.74252e-13
2.72525e-13
2.7155e-13
2.69724e-13
2.66053e-13
2.54328e-13
2.52722e-13
2.61911e-13
2.60238e-13
2.4805e-13
2.38851e-13
2.37804e-13
2.3525e-13
2.24803e-13
2.20135e-13
2.24326e-13
2.1517e-13
2.13075e-13
2.1299e-13
2.1572e-13
2.14247e-13
2.17138e-13
2.0981e-13
2.08425e-13
2.12066e-13
2.06106e-13
2.01362e-13
2.01972e-13
1.98667e-13
2.00218e-13
1.96594e-13
1.99352e-13
1.90428e-13
1.89848e-13
1.78091e-13
1.72349e-13
1.74884e-13
1.72791e-13
1.65378e-13
1.63045e-13
1.53557e-13
1.48261e-13
1.46041e-13
1.4496e-13
1.40993e-13
1.36181e-13
1.30077e-13
1.16693e-13
1.09793e-13
1.02986e-13
9.68685e-14
8.96217e-14
8.10381e-14
8.15648e-14
8.01603e-14
6.99917e-14
6.11318e-14
4.98582e-14
5.40783e-14
4.53106e-14
3.33513e-14
3.13519e-14
2.23108e-14
1.73016e-14
1.28848e-14
7.70031e-15
1.35782e-15
4.30611e-13
4.28376e-13
4.31382e-13
4.28717e-13
4.24318e-13
4.27016e-13
4.26095e-13
4.30742e-13
4.20495e-13
4.12148e-13
4.00936e-13
3.83266e-13
3.80654e-13
3.82427e-13
3.90524e-13
3.84904e-13
3.71085e-13
3.61726e-13
3.57335e-13
3.48441e-13
3.35893e-13
3.2227e-13
3.24213e-13
3.25992e-13
3.1877e-13
3.09121e-13
3.1077e-13
3.07342e-13
3.08883e-13
3.08317e-13
3.08849e-13
3.00994e-13
2.90214e-13
2.74401e-13
2.68937e-13
2.68186e-13
2.72014e-13
2.70447e-13
2.62417e-13
2.53254e-13
2.49786e-13
2.52231e-13
2.52169e-13
2.42461e-13
2.41322e-13
2.40578e-13
2.32539e-13
2.25118e-13
2.25451e-13
2.21266e-13
2.10811e-13
2.14301e-13
2.09976e-13
2.14228e-13
2.20001e-13
2.11075e-13
2.12147e-13
2.12383e-13
2.05257e-13
2.08881e-13
2.06049e-13
2.06402e-13
2.0506e-13
2.00027e-13
1.9862e-13
1.90536e-13
1.79513e-13
1.73304e-13
1.72464e-13
1.82389e-13
1.78393e-13
1.66351e-13
1.60989e-13
1.51755e-13
1.47839e-13
1.45015e-13
1.4146e-13
1.34027e-13
1.34297e-13
1.27744e-13
1.14625e-13
1.12061e-13
1.07591e-13
9.75647e-14
8.87134e-14
8.01908e-14
7.69298e-14
7.74144e-14
7.30536e-14
6.24869e-14
4.78736e-14
4.44945e-14
4.12644e-14
3.24783e-14
2.81721e-14
1.67549e-14
1.39245e-14
9.39264e-15
6.17124e-15
3.45945e-15
4.31761e-13
4.28954e-13
4.30275e-13
4.29534e-13
4.26643e-13
4.25944e-13
4.27124e-13
4.24197e-13
4.15705e-13
4.12292e-13
4.05857e-13
3.84173e-13
3.8421e-13
3.82536e-13
3.83452e-13
3.80103e-13
3.68799e-13
3.63708e-13
3.60306e-13
3.52954e-13
3.41893e-13
3.22435e-13
3.17505e-13
3.22742e-13
3.16282e-13
3.09637e-13
3.1183e-13
3.1451e-13
3.11238e-13
3.05139e-13
3.03694e-13
2.98334e-13
2.89819e-13
2.79143e-13
2.74456e-13
2.73241e-13
2.71686e-13
2.65239e-13
2.61574e-13
2.58454e-13
2.61855e-13
2.5532e-13
2.47636e-13
2.48992e-13
2.44859e-13
2.36496e-13
2.2737e-13
2.27278e-13
2.251e-13
2.22417e-13
2.12613e-13
2.13992e-13
2.12137e-13
2.19175e-13
2.19058e-13
2.21477e-13
2.14653e-13
2.13851e-13
2.08977e-13
2.06746e-13
2.03092e-13
2.0262e-13
2.06854e-13
2.02531e-13
2.01024e-13
1.89015e-13
1.83042e-13
1.73141e-13
1.75491e-13
1.85954e-13
1.733e-13
1.70792e-13
1.6388e-13
1.52499e-13
1.45461e-13
1.35882e-13
1.39956e-13
1.38892e-13
1.35741e-13
1.26325e-13
1.17447e-13
1.12819e-13
1.07195e-13
9.19824e-14
8.6582e-14
7.54513e-14
7.5256e-14
7.73993e-14
7.16744e-14
6.05156e-14
4.60616e-14
4.43412e-14
4.21272e-14
2.99332e-14
2.85731e-14
2.42731e-14
1.37187e-14
2.62805e-15
-3.41783e-15
3.95942e-15
4.30565e-13
4.32593e-13
4.32778e-13
4.23113e-13
4.24402e-13
4.21857e-13
4.26836e-13
4.23815e-13
4.15502e-13
4.07208e-13
4.07787e-13
3.92566e-13
3.87261e-13
3.81597e-13
3.79222e-13
3.74898e-13
3.67243e-13
3.6967e-13
3.61866e-13
3.48891e-13
3.40023e-13
3.33849e-13
3.26189e-13
3.21382e-13
3.20844e-13
3.11858e-13
3.09478e-13
3.11734e-13
3.03987e-13
3.04133e-13
2.96629e-13
2.97654e-13
2.93438e-13
2.81788e-13
2.69266e-13
2.68695e-13
2.72856e-13
2.65407e-13
2.69285e-13
2.61424e-13
2.54829e-13
2.49062e-13
2.48868e-13
2.48788e-13
2.48021e-13
2.39547e-13
2.30135e-13
2.3302e-13
2.21905e-13
2.16248e-13
2.13869e-13
2.18419e-13
2.1772e-13
2.26011e-13
2.21782e-13
2.22038e-13
2.17083e-13
2.12268e-13
2.09566e-13
2.03904e-13
2.07766e-13
2.12081e-13
2.08204e-13
2.0185e-13
1.96198e-13
1.88038e-13
1.90787e-13
1.79995e-13
1.7635e-13
1.75103e-13
1.72414e-13
1.7346e-13
1.64165e-13
1.50413e-13
1.44267e-13
1.34388e-13
1.31427e-13
1.36205e-13
1.34879e-13
1.29683e-13
1.19084e-13
1.09631e-13
1.03921e-13
9.5624e-14
8.44796e-14
7.97271e-14
7.34569e-14
7.00403e-14
6.84661e-14
5.80846e-14
5.07672e-14
4.38217e-14
4.39846e-14
2.92797e-14
2.22953e-14
2.1462e-14
1.2892e-14
1.59481e-15
7.67847e-16
1.14039e-15
4.28267e-13
4.29705e-13
4.22668e-13
4.2875e-13
4.27195e-13
4.23017e-13
4.25309e-13
4.18776e-13
4.14872e-13
4.06353e-13
4.05599e-13
3.93191e-13
3.91562e-13
3.86554e-13
3.79687e-13
3.76716e-13
3.7471e-13
3.72271e-13
3.64747e-13
3.52447e-13
3.32051e-13
3.21331e-13
3.18116e-13
3.22227e-13
3.23957e-13
3.11612e-13
3.07983e-13
3.0845e-13
3.06266e-13
3.10049e-13
3.07425e-13
2.94831e-13
2.84161e-13
2.80232e-13
2.78315e-13
2.72599e-13
2.69231e-13
2.64277e-13
2.70722e-13
2.65e-13
2.57331e-13
2.55862e-13
2.50113e-13
2.53514e-13
2.4834e-13
2.31373e-13
2.24509e-13
2.27104e-13
2.3014e-13
2.22281e-13
2.18532e-13
2.17797e-13
2.24254e-13
2.22253e-13
2.22127e-13
2.28643e-13
2.24296e-13
2.0944e-13
2.01505e-13
1.98215e-13
2.06023e-13
2.08813e-13
2.06931e-13
1.99463e-13
1.96986e-13
1.93004e-13
1.8491e-13
1.82016e-13
1.74934e-13
1.7222e-13
1.72298e-13
1.72786e-13
1.65942e-13
1.51711e-13
1.39014e-13
1.30947e-13
1.33416e-13
1.37582e-13
1.31405e-13
1.2206e-13
1.17369e-13
1.1245e-13
1.05529e-13
9.9622e-14
8.52978e-14
7.96185e-14
7.06488e-14
6.57315e-14
6.36833e-14
5.87393e-14
5.34572e-14
4.67392e-14
4.09162e-14
2.99043e-14
2.53689e-14
2.18224e-14
1.25002e-14
2.5967e-15
-5.6023e-15
-2.43156e-16
4.25187e-13
4.3442e-13
4.31041e-13
4.24906e-13
4.26582e-13
4.21081e-13
4.21192e-13
4.20233e-13
4.17905e-13
4.04098e-13
4.01818e-13
3.98737e-13
3.9229e-13
3.88988e-13
3.86024e-13
3.72582e-13
3.63573e-13
3.62008e-13
3.58849e-13
3.51028e-13
3.51359e-13
3.4613e-13
3.38862e-13
3.20033e-13
3.15439e-13
3.09226e-13
3.06792e-13
3.06433e-13
3.03628e-13
3.08598e-13
3.01981e-13
2.97079e-13
2.84419e-13
2.76209e-13
2.67016e-13
2.71365e-13
2.773e-13
2.75612e-13
2.69762e-13
2.64653e-13
2.59763e-13
2.56528e-13
2.54312e-13
2.51747e-13
2.4074e-13
2.32278e-13
2.24602e-13
2.26184e-13
2.28697e-13
2.25975e-13
2.21942e-13
2.25586e-13
2.27801e-13
2.23648e-13
2.26571e-13
2.249e-13
2.21612e-13
2.17221e-13
2.15997e-13
2.06497e-13
2.02663e-13
1.98955e-13
2.00576e-13
1.97424e-13
1.998e-13
1.93933e-13
1.88019e-13
1.79554e-13
1.73651e-13
1.73526e-13
1.72102e-13
1.68818e-13
1.58664e-13
1.50178e-13
1.32937e-13
1.30163e-13
1.30433e-13
1.3207e-13
1.28202e-13
1.22866e-13
1.15371e-13
1.08549e-13
1.06056e-13
1.00311e-13
8.58703e-14
7.89057e-14
6.8634e-14
6.39627e-14
6.58325e-14
5.812e-14
5.2441e-14
5.16023e-14
4.37884e-14
2.97644e-14
2.37955e-14
1.58721e-14
1.00143e-14
6.2485e-15
-2.54455e-15
1.0216e-15
4.20961e-13
4.26891e-13
4.32659e-13
4.2693e-13
4.22327e-13
4.26448e-13
4.18865e-13
4.11737e-13
4.10033e-13
4.07658e-13
4.11604e-13
4.03046e-13
3.92672e-13
3.87145e-13
3.8133e-13
3.74783e-13
3.75175e-13
3.69198e-13
3.64534e-13
3.51282e-13
3.36739e-13
3.2487e-13
3.25899e-13
3.13864e-13
3.18118e-13
3.15165e-13
3.12321e-13
3.09692e-13
3.04998e-13
3.02979e-13
3.09492e-13
3.01368e-13
2.88125e-13
2.72681e-13
2.62248e-13
2.69628e-13
2.79349e-13
2.81214e-13
2.82621e-13
2.67337e-13
2.59728e-13
2.53273e-13
2.48368e-13
2.48798e-13
2.43535e-13
2.33851e-13
2.28457e-13
2.31904e-13
2.30366e-13
2.31837e-13
2.28714e-13
2.26528e-13
2.25209e-13
2.21583e-13
2.22935e-13
2.24577e-13
2.24244e-13
2.1834e-13
2.13018e-13
2.05989e-13
2.04868e-13
2.01651e-13
1.99359e-13
2.00252e-13
1.94502e-13
1.85928e-13
1.84299e-13
1.81365e-13
1.76508e-13
1.73842e-13
1.67525e-13
1.66633e-13
1.60786e-13
1.50218e-13
1.34898e-13
1.25277e-13
1.215e-13
1.27882e-13
1.28398e-13
1.26458e-13
1.15314e-13
1.10427e-13
1.09238e-13
9.7618e-14
8.21401e-14
7.72074e-14
6.87508e-14
6.20356e-14
6.24003e-14
5.70874e-14
4.94681e-14
4.72483e-14
4.47998e-14
3.61334e-14
2.42182e-14
1.34472e-14
6.28158e-15
3.90626e-15
-3.02929e-15
-2.41035e-15
4.17386e-13
4.27293e-13
4.30415e-13
4.2377e-13
4.20671e-13
4.24936e-13
4.28041e-13
4.19859e-13
4.08383e-13
4.03648e-13
4.00169e-13
3.97828e-13
3.94767e-13
3.93158e-13
3.8481e-13
3.77102e-13
3.6467e-13
3.64189e-13
3.55098e-13
3.49129e-13
3.52162e-13
3.38954e-13
3.30788e-13
3.21792e-13
3.17932e-13
3.1522e-13
3.13121e-13
3.12475e-13
3.01737e-13
3.04558e-13
3.02669e-13
2.95977e-13
2.82808e-13
2.72442e-13
2.68662e-13
2.70379e-13
2.80787e-13
2.83669e-13
2.79864e-13
2.65998e-13
2.58878e-13
2.52568e-13
2.49051e-13
2.48962e-13
2.44811e-13
2.32125e-13
2.29917e-13
2.33908e-13
2.31484e-13
2.26986e-13
2.28066e-13
2.29945e-13
2.27535e-13
2.24796e-13
2.23939e-13
2.30643e-13
2.2488e-13
2.22183e-13
2.18513e-13
2.12506e-13
2.0179e-13
1.97706e-13
1.96149e-13
1.94625e-13
1.90374e-13
1.87029e-13
1.81089e-13
1.76753e-13
1.72331e-13
1.74958e-13
1.69221e-13
1.68681e-13
1.58601e-13
1.46007e-13
1.32668e-13
1.2918e-13
1.25426e-13
1.23257e-13
1.1937e-13
1.18729e-13
1.14281e-13
1.13909e-13
1.07258e-13
9.49473e-14
9.49721e-14
8.46867e-14
6.43701e-14
6.16358e-14
6.07944e-14
5.61422e-14
4.72564e-14
4.21901e-14
3.84716e-14
3.55579e-14
2.60584e-14
1.55098e-14
9.44655e-15
2.14619e-15
-5.58911e-15
-3.73841e-16
4.20041e-13
4.21489e-13
4.2606e-13
4.19192e-13
4.18093e-13
4.19329e-13
4.13342e-13
4.21748e-13
4.19335e-13
4.13668e-13
4.06345e-13
4.02843e-13
3.92388e-13
3.88684e-13
3.85504e-13
3.79574e-13
3.69175e-13
3.69531e-13
3.63911e-13
3.48354e-13
3.37103e-13
3.25363e-13
3.23658e-13
3.25648e-13
3.21371e-13
3.1838e-13
3.14701e-13
3.05453e-13
3.0255e-13
3.06683e-13
3.04839e-13
2.96295e-13
2.85699e-13
2.73585e-13
2.69053e-13
2.75047e-13
2.79359e-13
2.83938e-13
2.77899e-13
2.68868e-13
2.58691e-13
2.42782e-13
2.4639e-13
2.53287e-13
2.44273e-13
2.333e-13
2.31933e-13
2.39204e-13
2.34413e-13
2.30608e-13
2.30753e-13
2.31726e-13
2.30707e-13
2.29148e-13
2.25317e-13
2.29167e-13
2.24141e-13
2.22425e-13
2.18069e-13
2.10423e-13
2.02289e-13
1.96363e-13
1.98426e-13
1.96112e-13
1.91935e-13
1.87078e-13
1.79866e-13
1.74435e-13
1.72433e-13
1.68692e-13
1.64157e-13
1.64456e-13
1.56117e-13
1.49167e-13
1.37467e-13
1.30401e-13
1.22095e-13
1.16347e-13
1.17794e-13
1.21854e-13
1.17182e-13
1.02347e-13
1.02422e-13
9.47099e-14
9.49563e-14
8.35468e-14
7.57145e-14
6.47389e-14
6.0019e-14
5.36449e-14
4.79306e-14
4.07641e-14
3.84905e-14
3.47198e-14
2.43502e-14
1.47992e-14
1.21444e-14
3.71989e-15
-3.37001e-15
2.22206e-16
4.21909e-13
4.19702e-13
4.24946e-13
4.20369e-13
4.26957e-13
4.26901e-13
4.13473e-13
4.10343e-13
4.08862e-13
4.09303e-13
4.09893e-13
4.07881e-13
3.93755e-13
3.89744e-13
3.80678e-13
3.72301e-13
3.73114e-13
3.71959e-13
3.60546e-13
3.50388e-13
3.43879e-13
3.27405e-13
3.2156e-13
3.25107e-13
3.26042e-13
3.18808e-13
3.11257e-13
3.05456e-13
3.07908e-13
3.07942e-13
3.04112e-13
2.94816e-13
2.85545e-13
2.76672e-13
2.71454e-13
2.74651e-13
2.70599e-13
2.78393e-13
2.82208e-13
2.71073e-13
2.60223e-13
2.5153e-13
2.55582e-13
2.46586e-13
2.3796e-13
2.36403e-13
2.35094e-13
2.35326e-13
2.32092e-13
2.31925e-13
2.32492e-13
2.33765e-13
2.36756e-13
2.31128e-13
2.30299e-13
2.29871e-13
2.26122e-13
2.20879e-13
2.16745e-13
2.09581e-13
2.03898e-13
1.96234e-13
2.01752e-13
1.98239e-13
1.93518e-13
1.81281e-13
1.78614e-13
1.7416e-13
1.67535e-13
1.65201e-13
1.63108e-13
1.60145e-13
1.54373e-13
1.45474e-13
1.39128e-13
1.28514e-13
1.28899e-13
1.13686e-13
1.18693e-13
1.2298e-13
1.16774e-13
1.03521e-13
1.04848e-13
9.37984e-14
8.99806e-14
8.23146e-14
7.59424e-14
6.56577e-14
6.41152e-14
5.20951e-14
4.93729e-14
3.91657e-14
3.87359e-14
3.35408e-14
2.68268e-14
1.63372e-14
1.01988e-14
4.65239e-15
-1.53539e-15
3.00991e-15
4.21104e-13
4.23877e-13
4.26216e-13
4.21499e-13
4.23553e-13
4.15701e-13
4.11661e-13
4.13382e-13
4.15379e-13
4.1575e-13
4.10755e-13
4.00313e-13
3.94893e-13
3.89569e-13
3.86202e-13
3.73412e-13
3.73037e-13
3.70429e-13
3.56923e-13
3.48854e-13
3.416e-13
3.30528e-13
3.31726e-13
3.29902e-13
3.16682e-13
3.08215e-13
3.11088e-13
3.13458e-13
3.09219e-13
3.08525e-13
3.04382e-13
2.9233e-13
2.78674e-13
2.78116e-13
2.77096e-13
2.73325e-13
2.79609e-13
2.80788e-13
2.68204e-13
2.65017e-13
2.62601e-13
2.53983e-13
2.46269e-13
2.45005e-13
2.38737e-13
2.40702e-13
2.38015e-13
2.48646e-13
2.37583e-13
2.28515e-13
2.28377e-13
2.37673e-13
2.41173e-13
2.2965e-13
2.30706e-13
2.29876e-13
2.27599e-13
2.19149e-13
2.17104e-13
2.12916e-13
2.07175e-13
2.01703e-13
2.01491e-13
1.97159e-13
1.91222e-13
1.8247e-13
1.7482e-13
1.73121e-13
1.64884e-13
1.62112e-13
1.60819e-13
1.59526e-13
1.52152e-13
1.45269e-13
1.37107e-13
1.32149e-13
1.28316e-13
1.22468e-13
1.173e-13
1.11813e-13
1.15012e-13
1.07523e-13
1.03849e-13
9.86008e-14
8.77318e-14
8.2104e-14
7.73806e-14
6.71381e-14
6.2272e-14
5.42119e-14
4.63721e-14
4.13759e-14
3.95217e-14
3.68086e-14
3.12979e-14
1.62443e-14
7.29457e-15
9.0284e-16
1.74656e-15
7.65211e-15
4.26535e-13
4.26474e-13
4.26695e-13
4.22641e-13
4.17848e-13
4.14271e-13
4.16371e-13
4.13903e-13
4.16679e-13
4.14082e-13
4.09407e-13
3.99678e-13
3.98459e-13
3.95018e-13
3.81374e-13
3.72472e-13
3.6957e-13
3.65307e-13
3.58387e-13
3.54374e-13
3.40936e-13
3.33339e-13
3.33959e-13
3.28903e-13
3.16094e-13
3.18868e-13
3.11785e-13
3.13902e-13
3.06206e-13
3.05403e-13
3.09031e-13
2.91582e-13
2.82475e-13
2.79456e-13
2.78622e-13
2.74705e-13
2.75258e-13
2.78919e-13
2.68827e-13
2.65661e-13
2.57275e-13
2.5229e-13
2.46639e-13
2.51454e-13
2.45375e-13
2.4341e-13
2.38693e-13
2.40163e-13
2.36234e-13
2.34395e-13
2.37054e-13
2.36926e-13
2.37e-13
2.38827e-13
2.31683e-13
2.25784e-13
2.22376e-13
2.2647e-13
2.16119e-13
2.14451e-13
2.12776e-13
2.11174e-13
2.01124e-13
1.9498e-13
1.9326e-13
1.81469e-13
1.70906e-13
1.6916e-13
1.63567e-13
1.60724e-13
1.57993e-13
1.58452e-13
1.54174e-13
1.44906e-13
1.38208e-13
1.32304e-13
1.25582e-13
1.26008e-13
1.23397e-13
1.13784e-13
1.08493e-13
1.01761e-13
1.01718e-13
9.88636e-14
9.42775e-14
8.75517e-14
8.01752e-14
6.61294e-14
6.1713e-14
5.01306e-14
4.6076e-14
4.17752e-14
4.32447e-14
3.73199e-14
2.97216e-14
1.87761e-14
4.62112e-15
-2.59498e-15
5.75287e-15
8.2995e-15
4.28128e-13
4.28444e-13
4.23343e-13
4.20455e-13
4.12584e-13
4.1801e-13
4.15458e-13
4.1441e-13
4.16763e-13
4.11816e-13
4.07449e-13
4.04208e-13
4.02566e-13
3.96211e-13
3.829e-13
3.71303e-13
3.7051e-13
3.64117e-13
3.61527e-13
3.504e-13
3.42022e-13
3.31171e-13
3.30944e-13
3.26918e-13
3.15838e-13
3.20711e-13
3.13337e-13
3.13179e-13
3.06891e-13
3.03844e-13
3.02806e-13
2.94148e-13
2.85219e-13
2.82429e-13
2.78779e-13
2.72517e-13
2.70729e-13
2.72371e-13
2.70848e-13
2.71444e-13
2.60901e-13
2.51866e-13
2.46335e-13
2.47794e-13
2.43842e-13
2.46939e-13
2.45005e-13
2.44189e-13
2.39052e-13
2.34546e-13
2.35865e-13
2.32358e-13
2.36503e-13
2.39228e-13
2.3386e-13
2.29208e-13
2.26851e-13
2.27529e-13
2.19846e-13
2.15858e-13
2.13208e-13
2.08727e-13
2.0463e-13
1.97654e-13
1.86854e-13
1.77114e-13
1.71941e-13
1.69227e-13
1.63693e-13
1.58486e-13
1.58733e-13
1.54284e-13
1.51635e-13
1.41378e-13
1.37313e-13
1.30546e-13
1.25129e-13
1.26319e-13
1.25316e-13
1.12263e-13
1.04551e-13
1.00911e-13
1.02106e-13
9.54019e-14
9.30277e-14
8.26061e-14
7.89377e-14
7.12484e-14
6.4757e-14
5.54671e-14
5.32156e-14
4.55836e-14
3.641e-14
3.5151e-14
2.85231e-14
1.69068e-14
9.20964e-15
1.62288e-15
3.73933e-15
3.82748e-15
4.2955e-13
4.27008e-13
4.23477e-13
4.21776e-13
4.17411e-13
4.2082e-13
4.13852e-13
4.13078e-13
4.14084e-13
4.12813e-13
4.09091e-13
4.02378e-13
3.96702e-13
3.87853e-13
3.86585e-13
3.73984e-13
3.71345e-13
3.61295e-13
3.58669e-13
3.51748e-13
3.41692e-13
3.38379e-13
3.38456e-13
3.26449e-13
3.13918e-13
3.14493e-13
3.14459e-13
3.14791e-13
3.05614e-13
3.04648e-13
3.05954e-13
2.98553e-13
2.89542e-13
2.82737e-13
2.6945e-13
2.70355e-13
2.71929e-13
2.70849e-13
2.70865e-13
2.68588e-13
2.58652e-13
2.49622e-13
2.47957e-13
2.47104e-13
2.47429e-13
2.48771e-13
2.48714e-13
2.46683e-13
2.36853e-13
2.3098e-13
2.378e-13
2.41392e-13
2.42588e-13
2.40043e-13
2.34527e-13
2.29657e-13
2.27109e-13
2.23531e-13
2.187e-13
2.2342e-13
2.31185e-13
2.06336e-13
1.97236e-13
1.95692e-13
1.89607e-13
1.78818e-13
1.71991e-13
1.68185e-13
1.56962e-13
1.54718e-13
1.53539e-13
1.54321e-13
1.58395e-13
1.3985e-13
1.36209e-13
1.28666e-13
1.29036e-13
1.17855e-13
1.19011e-13
1.13043e-13
1.06804e-13
1.02733e-13
1.0117e-13
1.0062e-13
9.26197e-14
8.29062e-14
7.5365e-14
7.23651e-14
6.79389e-14
5.41453e-14
4.59485e-14
4.47431e-14
3.80278e-14
3.08217e-14
2.75978e-14
1.89336e-14
1.24464e-14
6.38377e-15
3.95158e-15
3.54205e-15
4.24609e-13
4.28335e-13
4.27163e-13
4.2092e-13
4.14665e-13
4.21263e-13
4.2027e-13
4.12963e-13
4.10317e-13
4.08473e-13
4.07729e-13
4.00678e-13
3.9441e-13
3.84767e-13
3.86385e-13
3.83671e-13
3.76254e-13
3.67695e-13
3.58561e-13
3.51179e-13
3.34675e-13
3.27381e-13
3.32038e-13
3.30809e-13
3.24824e-13
3.195e-13
3.12345e-13
3.07255e-13
2.99766e-13
3.05209e-13
3.12723e-13
2.90011e-13
2.88885e-13
2.86251e-13
2.77959e-13
2.73382e-13
2.71141e-13
2.6987e-13
2.7035e-13
2.68647e-13
2.61127e-13
2.55424e-13
2.46502e-13
2.43211e-13
2.53648e-13
2.49731e-13
2.5182e-13
2.4593e-13
2.41071e-13
2.40174e-13
2.38475e-13
2.39739e-13
2.42205e-13
2.45388e-13
2.41339e-13
2.31243e-13
2.17305e-13
2.20812e-13
2.27318e-13
2.27663e-13
2.19378e-13
2.07176e-13
2.05286e-13
1.9908e-13
1.90752e-13
1.72301e-13
1.6372e-13
1.64711e-13
1.62527e-13
1.61392e-13
1.52349e-13
1.52119e-13
1.49955e-13
1.38524e-13
1.33637e-13
1.28513e-13
1.21121e-13
1.22873e-13
1.24524e-13
1.13697e-13
1.04816e-13
1.04492e-13
9.87711e-14
8.96034e-14
8.97395e-14
8.82246e-14
7.93615e-14
7.48403e-14
6.63335e-14
5.4726e-14
5.15856e-14
4.79201e-14
4.1081e-14
3.35824e-14
2.47365e-14
1.3484e-14
1.25042e-14
1.18521e-14
1.95819e-15
2.99494e-15
4.29257e-13
4.24577e-13
4.25473e-13
4.20022e-13
4.23016e-13
4.23452e-13
4.18896e-13
4.1603e-13
4.12147e-13
4.09146e-13
4.0224e-13
3.93067e-13
3.92256e-13
3.89105e-13
3.85694e-13
3.83339e-13
3.68962e-13
3.58042e-13
3.5701e-13
3.55127e-13
3.4547e-13
3.38066e-13
3.30031e-13
3.28512e-13
3.26419e-13
3.22563e-13
3.15693e-13
3.09453e-13
3.10834e-13
3.00699e-13
2.99535e-13
3.00647e-13
2.95373e-13
2.83785e-13
2.75309e-13
2.70182e-13
2.71546e-13
2.69877e-13
2.7104e-13
2.65319e-13
2.58732e-13
2.56145e-13
2.55586e-13
2.50835e-13
2.51688e-13
2.50645e-13
2.51139e-13
2.55778e-13
2.43078e-13
2.36382e-13
2.41668e-13
2.39451e-13
2.38708e-13
2.39087e-13
2.40663e-13
2.37139e-13
2.26374e-13
2.27093e-13
2.23152e-13
2.22011e-13
2.31127e-13
2.19788e-13
2.02686e-13
1.97782e-13
1.90041e-13
1.71057e-13
1.68459e-13
1.65753e-13
1.70608e-13
1.587e-13
1.54221e-13
1.44321e-13
1.47613e-13
1.39245e-13
1.34818e-13
1.26763e-13
1.22757e-13
1.20083e-13
1.21318e-13
1.12985e-13
1.04045e-13
1.03452e-13
1.04211e-13
9.77407e-14
9.08891e-14
8.39543e-14
7.92143e-14
7.35538e-14
6.54094e-14
5.47104e-14
4.70268e-14
4.88976e-14
4.18416e-14
3.70619e-14
2.37679e-14
1.73945e-14
1.43669e-14
9.63489e-15
3.08342e-15
-1.4891e-15
4.24835e-13
4.22163e-13
4.30352e-13
4.24552e-13
4.18739e-13
4.2045e-13
4.14811e-13
4.09328e-13
4.08308e-13
4.10091e-13
4.03089e-13
3.95373e-13
3.88948e-13
3.89429e-13
3.86595e-13
3.81332e-13
3.70902e-13
3.66214e-13
3.58373e-13
3.51923e-13
3.36164e-13
3.3678e-13
3.3016e-13
3.28234e-13
3.2865e-13
3.22945e-13
3.18128e-13
3.04442e-13
3.00772e-13
3.0302e-13
3.038e-13
3.01697e-13
2.94966e-13
2.85156e-13
2.74322e-13
2.70373e-13
2.70099e-13
2.68108e-13
2.7143e-13
2.66335e-13
2.60962e-13
2.58761e-13
2.60146e-13
2.5252e-13
2.55536e-13
2.55039e-13
2.51419e-13
2.53271e-13
2.50404e-13
2.40132e-13