/*--------------------------------*- C++ -*----------------------------------*\
| =========                 |                                                 |
| \\      /  F ield         | OpenFOAM: The Open Source CFD Toolbox           |
|  \\    /   O peration     | Version:  v2012                                 |
|   \\  /    A nd           | Website:  www.openfoam.com                      |
|    \\/     M anipulation  |                                                 |
\*---------------------------------------------------------------------------*/
FoamFile
{
    version     2.0;
    format      ascii;
    class       volVectorField;
    location    "0";
    object      uRec;
}
// * * * * * * * * * * * * * * * * * * * * * * * * * * * * * * * * * * * * * //

dimensions      [0 1 -1 0 0 0 0];


internalField   nonuniform List<vector> 
4000
(
(1 -1.75936e-16 0)
(1 2.67365e-15 0)
(1 2.12736e-15 0)
(1 -3.79063e-16 0)
(1 2.3092e-16 0)
(1 -6.23028e-16 0)
(1 1.57586e-16 0)
(1 -8.05143e-16 0)
(1 -2.44348e-15 0)
(1 1.25308e-15 0)
(1 1.07364e-15 0)
(1 -2.29058e-17 0)
(1 5.04749e-16 0)
(1 -1.52735e-16 0)
(1 1.50404e-15 0)
(1 -2.39677e-15 0)
(1 -2.53126e-15 0)
(1 -1.757e-15 0)
(1 -1.85496e-16 0)
(1 -2.17575e-15 0)
(1 -2.47136e-15 0)
(1 -6.46953e-16 0)
(1 2.49183e-15 0)
(1 1.80272e-15 0)
(1 2.69312e-15 0)
(1 8.16324e-16 0)
(1 1.4178e-15 0)
(1 -4.92334e-16 0)
(1 -1.14259e-15 0)
(1 -2.28197e-16 0)
(1 -1.34425e-15 0)
(1 -1.75969e-15 0)
(1 -1.83057e-15 0)
(1 -1.3934e-16 0)
(1 2.06666e-15 0)
(1 1.62934e-15 0)
(1 2.75321e-15 0)
(1 1.28341e-15 0)
(1 2.4917e-15 0)
(1 2.77388e-16 0)
(1 5.92007e-17 0)
(1 -1.6431e-15 0)
(1 -1.17974e-16 0)
(1 -2.01823e-15 0)
(1 -4.32327e-16 0)
(1 -5.12795e-16 0)
(1 -6.94888e-16 0)
(1 2.57276e-17 0)
(1 -1.9901e-16 0)
(1 1.54469e-15 0)
(1 1.31113e-16 0)
(1 1.80409e-15 0)
(1 4.24805e-16 0)
(1 5.58456e-16 0)
(1 -8.42219e-16 0)
(1 -1.17348e-15 0)
(1 -1.84486e-15 0)
(1 5.64926e-16 0)
(1 1.28381e-15 0)
(1 3.82139e-15 0)
(1 1.77124e-15 0)
(1 -5.85905e-17 0)
(1 1.01633e-15 0)
(1 4.44665e-16 0)
(1 -4.16305e-16 0)
(1 -1.37957e-15 0)
(1 3.16668e-16 0)
(1 -3.19292e-16 0)
(1 3.32792e-16 0)
(1 -6.50711e-16 0)
(1 -1.03342e-15 0)
(1 -4.79905e-16 0)
(1 1.20701e-16 0)
(1 -1.86893e-15 0)
(1 -1.34727e-15 0)
(1 -1.2172e-15 0)
(1 -2.82567e-16 0)
(1 -3.19788e-16 0)
(1 7.79672e-16 0)
(1 2.02413e-15 0)
(1 5.90235e-16 0)
(1 2.56245e-16 0)
(1 -1.94487e-16 0)
(1 -7.12317e-16 0)
(1 -1.82722e-15 0)
(1 -8.54215e-16 0)
(1 -2.20901e-15 0)
(1 6.29461e-16 0)
(1 2.22958e-15 0)
(1 1.32988e-15 0)
(1 1.09478e-16 0)
(1 -2.58065e-16 0)
(1 -1.01375e-15 0)
(1 -1.6397e-17 0)
(1 -1.6369e-15 0)
(1 -2.12632e-15 0)
(1 -1.26449e-15 0)
(1 1.33814e-15 0)
(1 1.28344e-15 0)
(1 1.19684e-16 0)
(1 2.16878e-16 0)
(1 3.82404e-15 0)
(1 2.81539e-15 0)
(1 -1.58589e-15 0)
(1 6.03478e-18 0)
(1 -1.5835e-15 0)
(1 -2.51255e-16 0)
(1 -1.68247e-15 0)
(1 -1.71483e-15 0)
(1 -1.57413e-16 0)
(1 1.05655e-15 0)
(1 1.62229e-15 0)
(1 2.58259e-15 0)
(1 1.35084e-15 0)
(1 1.35204e-15 0)
(1 -3.95603e-15 0)
(1 -4.25473e-15 0)
(1 -1.92056e-16 0)
(1 7.82619e-16 0)
(1 -2.16896e-15 0)
(1 -3.30192e-15 0)
(1 -1.31595e-15 0)
(1 7.44083e-16 0)
(1 1.42339e-15 0)
(1 1.67005e-15 0)
(1 1.53995e-17 0)
(1 2.0305e-16 0)
(1 -1.60422e-15 0)
(1 -1.1907e-15 0)
(1 6.66301e-16 0)
(1 4.06963e-16 0)
(1 -4.12571e-16 0)
(1 2.48225e-16 0)
(1 -1.60659e-15 0)
(1 2.85747e-16 0)
(1 -4.50613e-16 0)
(1 1.35173e-15 0)
(1 1.15575e-15 0)
(1 2.48968e-15 0)
(1 8.77186e-16 0)
(1 -9.71473e-16 0)
(1 -6.28068e-16 0)
(1 -1.3795e-15 0)
(1 -3.39856e-15 0)
(1 -1.15853e-15 0)
(1 -2.72608e-15 0)
(1 6.21129e-16 0)
(1 8.2102e-16 0)
(1 2.07472e-15 0)
(1 -1.42669e-15 0)
(1 -1.40405e-15 0)
(1 -5.42344e-16 0)
(1 3.03475e-15 0)
(1 2.51408e-15 0)
(1 2.65071e-15 0)
(1 1.65382e-15 0)
(1 -1.85691e-16 0)
(1 1.23612e-15 0)
(1 -8.8885e-16 0)
(1 -1.14909e-15 0)
(1 -2.32733e-15 0)
(1 -5.85149e-16 0)
(1 1.00918e-15 0)
(1 1.48991e-15 0)
(1 1.93525e-16 0)
(1 -6.66768e-16 0)
(1 -1.16564e-15 0)
(1 -1.15229e-15 0)
(1 -6.06385e-16 0)
(1 -6.01317e-16 0)
(1 -2.19628e-16 0)
(1 1.54216e-15 0)
(1 1.5174e-15 0)
(1 -1.4301e-15 0)
(1 -8.2438e-16 0)
(1 1.56639e-16 0)
(1 4.45605e-16 0)
(1 1.43871e-15 0)
(1 1.86549e-15 0)
(1 2.23266e-15 0)
(1 2.12962e-16 0)
(1 -2.59196e-15 0)
(1 8.20701e-16 0)
(1 -3.25266e-16 0)
(1 4.09375e-17 0)
(1 2.48879e-16 0)
(1 -1.67988e-15 0)
(1 -2.82423e-15 0)
(1 -6.78623e-16 0)
(1 -6.15937e-16 0)
(1 -6.5113e-16 0)
(1 -1.47714e-15 0)
(1 -1.02964e-15 0)
(1 -4.07818e-16 0)
(1 -3.013e-15 0)
(1 -2.03075e-15 0)
(1 -9.23732e-16 0)
(1 2.51876e-15 0)
(1 8.38374e-16 0)
(1 3.43254e-18 0)
(1 4.62573e-16 0)
(1 7.09217e-16 0)
(1 -9.81118e-17 0)
(1 2.6904e-16 0)
(1 1.44775e-15 0)
(1 8.08484e-16 0)
(1 1.1403e-15 0)
(1 1.20292e-15 0)
(1 -5.21867e-16 0)
(1 -1.03144e-15 0)
(1 -4.13532e-16 0)
(1 1.29363e-15 0)
(1 3.60535e-15 0)
(1 2.29893e-15 0)
(1 4.16982e-16 0)
(1 -2.92354e-15 0)
(1 -3.43938e-15 0)
(1 -1.77341e-15 0)
(1 -5.13832e-16 0)
(1 1.08052e-15 0)
(1 -1.4982e-15 0)
(1 5.78198e-16 0)
(1 -7.6531e-16 0)
(1 2.35905e-15 0)
(1 2.43279e-15 0)
(1 2.57163e-15 0)
(1 1.95841e-15 0)
(1 1.22956e-16 0)
(1 7.65063e-17 0)
(1 -2.02537e-16 0)
(1 1.91851e-15 0)
(1 -1.77568e-15 0)
(1 1.50566e-16 0)
(1 -2.19176e-15 0)
(1 -5.87492e-16 0)
(1 -1.88356e-15 0)
(1 -7.70657e-16 0)
(1 -2.59175e-16 0)
(1 5.03304e-16 0)
(1 1.07455e-15 0)
(1 -1.13317e-15 0)
(1 -4.3193e-16 0)
(1 -2.53989e-15 0)
(1 -3.45468e-15 0)
(1 -1.6757e-15 0)
(1 -1.64854e-15 0)
(1 -7.39441e-16 0)
(1 -6.25915e-16 0)
(1 1.81882e-15 0)
(1 5.51141e-16 0)
(1 4.99782e-16 0)
(1 6.97938e-16 0)
(1 4.37951e-15 0)
(1 2.1962e-15 0)
(1 3.60518e-15 0)
(1 9.9537e-16 0)
(1 5.24412e-16 0)
(1 -1.49525e-15 0)
(1 -1.59108e-15 0)
(1 -2.63309e-15 0)
(1 -2.01929e-16 0)
(1 4.60181e-16 0)
(1 1.19933e-15 0)
(1 2.95055e-16 0)
(1 -6.49263e-16 0)
(1 2.4998e-16 0)
(1 -1.15624e-15 0)
(1 -2.20052e-17 0)
(1 -7.67334e-16 0)
(1 5.77554e-16 0)
(1 4.70488e-16 0)
(1 1.69384e-15 0)
(1 1.60887e-15 0)
(1 -1.66758e-16 0)
(1 -1.5869e-15 0)
(1 -8.51044e-16 0)
(1 -4.42298e-16 0)
(1 1.7042e-16 0)
(1 8.38555e-16 0)
(1 -2.22033e-16 0)
(1 -2.21017e-15 0)
(1 -3.11179e-15 0)
(1 -1.63426e-15 0)
(1 -3.67747e-16 0)
(1 3.2222e-16 0)
(1 -1.90025e-17 0)
(1 -1.66194e-16 0)
(1 -3.85787e-15 0)
(1 -2.28682e-15 0)
(1 -9.23077e-16 0)
(1 -7.17819e-16 0)
(1 -1.41126e-15 0)
(1 -1.29902e-15 0)
(1 -7.51145e-16 0)
(1 -9.54774e-16 0)
(1 -1.61659e-15 0)
(1 -6.67364e-16 0)
(1 -3.56221e-16 0)
(1 -4.1244e-16 0)
(1 2.87643e-16 0)
(1 1.10407e-15 0)
(1 -5.16931e-16 0)
(1 8.4514e-16 0)
(1 1.44811e-16 0)
(1 5.07311e-16 0)
(1 1.05184e-15 0)
(1 8.36451e-16 0)
(1 5.15823e-16 0)
(1 5.12282e-16 0)
(1 -7.796e-16 0)
(1 2.01832e-15 0)
(1 3.67639e-15 0)
(1 3.8315e-15 0)
(1 -2.70392e-16 0)
(1 5.52072e-16 0)
(1 -2.7548e-16 0)
(1 -1.85293e-15 0)
(1 -5.87842e-15 0)
(1 -5.07044e-15 0)
(1 1.41097e-15 0)
(1 -1.75665e-16 0)
(1 9.29699e-16 0)
(1 1.67439e-15 0)
(1 3.46251e-15 0)
(1 2.35329e-15 0)
(1 4.71203e-15 0)
(1 2.37891e-15 0)
(1 4.4068e-15 0)
(1 3.40173e-16 0)
(1 6.68655e-16 0)
(1 -1.57385e-15 0)
(1 -2.59952e-15 0)
(1 -2.59546e-15 0)
(1 -1.87809e-16 0)
(1 1.45402e-15 0)
(1 -3.27112e-17 0)
(1 7.6289e-16 0)
(1 1.19873e-16 0)
(1 6.03808e-16 0)
(1 2.03757e-16 0)
(1 -4.6096e-16 0)
(1 -2.8238e-15 0)
(1 -2.42345e-15 0)
(1 -2.90166e-15 0)
(1 -2.36985e-15 0)
(1 1.01408e-15 0)
(1 4.61376e-16 0)
(1 -8.36401e-18 0)
(1 1.39535e-15 0)
(1 3.48288e-15 0)
(1 1.29091e-15 0)
(1 1.25602e-15 0)
(1 1.05892e-15 0)
(1 1.18132e-15 0)
(1 7.13295e-16 0)
(1 -4.02756e-16 0)
(1 -8.35003e-16 0)
(1 -1.76849e-15 0)
(1 -1.04654e-15 0)
(1 1.46708e-15 0)
(1 8.78646e-16 0)
(1 1.42785e-15 0)
(1 5.53241e-16 0)
(1 6.28077e-16 0)
(1 -1.51394e-15 0)
(1 -9.39259e-16 0)
(1 -2.66659e-15 0)
(1 -4.30075e-16 0)
(1 -8.09494e-16 0)
(1 2.84727e-16 0)
(1 3.48807e-16 0)
(1 1.56345e-15 0)
(1 4.08185e-16 0)
(1 -1.58425e-16 0)
(1 -2.38817e-15 0)
(1 -2.0027e-15 0)
(1 -1.62546e-16 0)
(1 -6.76218e-17 0)
(1 1.92951e-16 0)
(1 2.31912e-17 0)
(1 -7.09957e-17 0)
(1 -1.45805e-15 0)
(1 -1.06935e-15 0)
(1 -1.40987e-15 0)
(1 -1.29355e-16 0)
(1 -2.36415e-16 0)
(1 4.83829e-16 0)
(1 -9.53885e-16 0)
(1 -2.91292e-16 0)
(1 -7.54699e-16 0)
(1 -1.33898e-15 0)
(1 -1.58539e-15 0)
(1 -1.26494e-15 0)
(1 -8.53629e-16 0)
(1 -3.10987e-16 0)
(1 -1.87724e-15 0)
(1 -2.36224e-15 0)
(1 -2.65382e-15 0)
(1 -1.95045e-15 0)
(1 4.32814e-17 0)
(1 1.87698e-15 0)
(1 -5.4175e-16 0)
(1 -6.71317e-16 0)
(1 -1.31689e-15 0)
(1 3.27832e-16 0)
(1 1.69014e-16 0)
(1 -1.80394e-16 0)
(1 -1.68417e-15 0)
(1 1.50795e-15 0)
(1 1.39363e-15 0)
(1 3.91354e-15 0)
(1 2.71428e-15 0)
(1 1.33264e-15 0)
(1 -3.81674e-15 0)
(1 7.3015e-16 0)
(1 1.95886e-16 0)
(1 7.8612e-16 0)
(1 -8.42514e-16 0)
(1 -1.53212e-15 0)
(1 -3.74065e-15 0)
(1 -1.06682e-15 0)
(1 -3.60147e-15 0)
(1 2.60655e-15 0)
(1 6.11693e-15 0)
(1 5.06742e-15 0)
(1 3.44677e-15 0)
(1 2.18387e-15 0)
(1 2.06592e-15 0)
(1 1.79386e-15 0)
(1 -9.98924e-16 0)
(1 -1.02644e-15 0)
(1 6.60109e-16 0)
(1 -8.93183e-16 0)
(1 -8.82913e-16 0)
(1 -3.60106e-15 0)
(1 -2.34417e-15 0)
(1 -2.34015e-15 0)
(1 -1.09656e-15 0)
(1 -1.21598e-15 0)
(1 -3.47968e-16 0)
(1 -2.00469e-15 0)
(1 -8.58262e-16 0)
(1 -2.33656e-15 0)
(1 5.86197e-16 0)
(1 -2.15465e-15 0)
(1 2.14778e-16 0)
(1 2.35086e-15 0)
(1 1.58483e-15 0)
(1 1.34977e-15 0)
(1 -8.57652e-16 0)
(1 1.05647e-15 0)
(1 4.20965e-16 0)
(1 4.25929e-16 0)
(1 2.27326e-15 0)
(1 2.5001e-15 0)
(1 3.794e-15 0)
(1 1.09089e-15 0)
(1 1.25698e-18 0)
(1 -1.99203e-15 0)
(1 -3.27332e-15 0)
(1 -2.23926e-15 0)
(1 -2.64734e-17 0)
(1 9.7798e-16 0)
(1 6.29468e-16 0)
(1 1.27301e-15 0)
(1 -5.7701e-16 0)
(1 -2.41958e-15 0)
(1 -1.34179e-15 0)
(1 5.45197e-16 0)
(1 2.27343e-16 0)
(1 1.11466e-15 0)
(1 2.49135e-15 0)
(1 1.03491e-15 0)
(1 9.02372e-16 0)
(1 -3.97675e-16 0)
(1 -2.19775e-16 0)
(1 -4.23099e-16 0)
(1 2.5918e-15 0)
(1 2.3535e-15 0)
(1 -8.68647e-16 0)
(1 -1.70184e-16 0)
(1 -2.16004e-15 0)
(1 7.54511e-16 0)
(1 -1.30183e-15 0)
(1 3.65198e-16 0)
(1 -2.4892e-15 0)
(1 -1.52717e-15 0)
(1 -2.42121e-15 0)
(1 -3.05784e-15 0)
(1 -1.78984e-15 0)
(1 -1.4785e-15 0)
(1 -2.93207e-15 0)
(1 -7.34906e-16 0)
(1 -9.4294e-16 0)
(1 -6.49237e-16 0)
(1 -7.41986e-16 0)
(1 -1.22985e-15 0)
(1 -9.32953e-16 0)
(1 -2.07963e-15 0)
(1 -4.01146e-16 0)
(1 -5.96603e-16 0)
(1 -1.75631e-15 0)
(1 -1.55039e-15 0)
(1 -7.76973e-16 0)
(1 1.09344e-15 0)
(1 4.05875e-16 0)
(1 4.3524e-16 0)
(1 6.94835e-16 0)
(1 1.35732e-15 0)
(1 4.00609e-15 0)
(1 3.43684e-15 0)
(1 1.90545e-15 0)
(1 -6.54288e-16 0)
(1 -4.55044e-16 0)
(1 2.1579e-15 0)
(1 -1.23198e-15 0)
(1 -9.75371e-16 0)
(1 -2.98641e-15 0)
(1 -1.64259e-15 0)
(1 -1.40811e-15 0)
(1 1.64548e-15 0)
(1 1.91405e-15 0)
(1 3.56691e-15 0)
(1 2.02886e-15 0)
(1 7.46141e-16 0)
(1 1.89953e-15 0)
(1 3.72488e-15 0)
(1 -2.46675e-15 0)
(1 2.80154e-15 0)
(1 -1.08454e-15 0)
(1 -2.17374e-15 0)
(1 -2.51473e-15 0)
(1 -1.62215e-15 0)
(1 2.8558e-16 0)
(1 -2.61547e-15 0)
(1 1.62657e-15 0)
(1 8.12785e-16 0)
(1 1.94443e-15 0)
(1 -6.07418e-16 0)
(1 -1.39852e-15 0)
(1 -8.7301e-16 0)
(1 -6.45358e-16 0)
(1 -8.12232e-16 0)
(1 -3.49212e-18 0)
(1 -7.79816e-16 0)
(1 -1.7777e-15 0)
(1 -1.98346e-15 0)
(1 2.55949e-16 0)
(1 1.84834e-15 0)
(1 3.20906e-15 0)
(1 3.56155e-15 0)
(1 1.26356e-15 0)
(1 5.54649e-16 0)
(1 1.86272e-15 0)
(1 2.46157e-15 0)
(1 1.72427e-15 0)
(1 1.10378e-15 0)
(1 1.32819e-15 0)
(1 1.31334e-15 0)
(1 5.47344e-16 0)
(1 2.90673e-15 0)
(1 -4.53333e-16 0)
(1 -4.37109e-16 0)
(1 -1.65477e-15 0)
(1 7.30894e-16 0)
(1 5.80226e-16 0)
(1 3.48086e-15 0)
(1 4.5759e-15 0)
(1 4.85292e-15 0)
(1 4.5231e-15 0)
(1 2.05932e-15 0)
(1 7.23938e-16 0)
(1 1.70184e-15 0)
(1 -3.49975e-16 0)
(1 -3.03667e-15 0)
(1 -4.06537e-15 0)
(1 -2.52133e-15 0)
(1 1.81234e-15 0)
(1 2.30816e-15 0)
(1 4.39536e-16 0)
(1 -1.83803e-15 0)
(1 8.10088e-16 0)
(1 -1.78056e-15 0)
(1 -1.79188e-15 0)
(1 -1.66343e-15 0)
(1 -3.61971e-15 0)
(1 -2.17499e-15 0)
(1 -2.80611e-15 0)
(1 -3.21503e-15 0)
(1 -1.66941e-15 0)
(1 -2.69093e-15 0)
(1 -1.93113e-15 0)
(1 -5.79868e-16 0)
(1 5.53257e-16 0)
(1 1.30126e-15 0)
(1 1.43852e-15 0)
(1 1.35875e-15 0)
(1 1.2217e-15 0)
(1 1.96335e-15 0)
(1 1.35816e-15 0)
(1 -1.04813e-15 0)
(1 -1.25794e-15 0)
(1 3.5225e-15 0)
(1 4.80815e-16 0)
(1 6.19118e-16 0)
(1 -1.95893e-15 0)
(1 -3.8421e-15 0)
(1 -4.91674e-16 0)
(1 1.25304e-15 0)
(1 1.56271e-15 0)
(1 2.23477e-15 0)
(1 6.97701e-16 0)
(1 1.1686e-15 0)
(1 2.99612e-15 0)
(1 2.6629e-15 0)
(1 2.06281e-15 0)
(1 3.52082e-15 0)
(1 -2.2797e-15 0)
(1 1.1668e-15 0)
(1 2.73504e-15 0)
(1 2.96703e-15 0)
(1 -1.0468e-15 0)
(1 -8.88703e-16 0)
(1 -6.57665e-16 0)
(1 -2.88746e-15 0)
(1 -4.01296e-16 0)
(1 -9.48855e-16 0)
(1 -2.63244e-16 0)
(1 1.12426e-15 0)
(1 3.36652e-15 0)
(1 3.5873e-17 0)
(1 -8.11066e-16 0)
(1 -2.18793e-15 0)
(1 -6.1225e-16 0)
(1 -5.53534e-16 0)
(1 6.74209e-16 0)
(1 3.80702e-15 0)
(1 1.88184e-15 0)
(1 1.66258e-16 0)
(1 -4.75429e-15 0)
(1 2.17396e-16 0)
(1 -2.28298e-15 0)
(1 2.54326e-15 0)
(1 8.53135e-16 0)
(1 -8.22568e-16 0)
(1 -3.17178e-15 0)
(1 -3.67221e-15 0)
(1 1.67467e-15 0)
(1 1.25969e-15 0)
(1 5.29793e-15 0)
(1 3.1907e-15 0)
(1 -2.7967e-16 0)
(1 2.20762e-16 0)
(1 1.61279e-15 0)
(1 1.86491e-15 0)
(1 5.08028e-16 0)
(1 -1.10526e-15 0)
(1 3.88031e-16 0)
(1 4.33305e-16 0)
(1 2.28259e-15 0)
(1 1.10755e-15 0)
(1 3.98458e-16 0)
(1 -4.46974e-16 0)
(1 -2.52761e-16 0)
(1 -1.08602e-15 0)
(1 -7.87428e-16 0)
(1 -3.72763e-16 0)
(1 2.36058e-15 0)
(1 2.0641e-15 0)
(1 1.52307e-15 0)
(1 1.09067e-15 0)
(1 2.96652e-16 0)
(1 -4.98743e-17 0)
(1 5.8683e-16 0)
(1 2.11784e-15 0)
(1 8.43436e-16 0)
(1 2.73937e-15 0)
(1 1.06506e-15 0)
(1 1.32775e-15 0)
(1 1.47067e-15 0)
(1 -5.00227e-18 0)
(1 2.15798e-16 0)
(1 -1.3975e-15 0)
(1 -1.75119e-15 0)
(1 -1.67979e-15 0)
(1 -1.1418e-15 0)
(1 -7.81881e-16 0)
(1 -1.36351e-15 0)
(1 -6.25134e-16 0)
(1 -2.22118e-15 0)
(1 -2.34266e-15 0)
(1 1.11826e-15 0)
(1 -4.33768e-17 0)
(1 1.08777e-15 0)
(1 6.77479e-16 0)
(1 1.93854e-15 0)
(1 1.37746e-15 0)
(1 1.32244e-15 0)
(1 2.31352e-15 0)
(1 2.27562e-15 0)
(1 -1.4745e-16 0)
(1 -2.5476e-16 0)
(1 1.4804e-15 0)
(1 4.13137e-16 0)
(1 -8.25965e-16 0)
(1 -5.54676e-16 0)
(1 -2.65907e-15 0)
(1 -1.62792e-15 0)
(1 1.36205e-16 0)
(1 1.99077e-15 0)
(1 -1.83415e-16 0)
(1 -1.84794e-15 0)
(1 1.35594e-15 0)
(1 4.31392e-15 0)
(1 8.21942e-16 0)
(1 3.01821e-15 0)
(1 1.25459e-15 0)
(1 4.32175e-15 0)
(1 6.24336e-15 0)
(1 -6.01021e-16 0)
(1 -3.19694e-15 0)
(1 -4.06539e-15 0)
(1 -4.68981e-15 0)
(1 -4.73904e-16 0)
(1 1.41409e-15 0)
(1 -1.19568e-15 0)
(1 -2.83048e-15 0)
(1 1.58603e-15 0)
(1 -3.005e-15 0)
(1 -8.14192e-16 0)
(1 2.32905e-15 0)
(1 8.2299e-16 0)
(1 -2.14264e-15 0)
(1 -1.74342e-15 0)
(1 9.08784e-16 0)
(1 -1.48972e-15 0)
(1 -2.3535e-16 0)
(1 -1.50388e-15 0)
(1 -8.87956e-16 0)
(1 -2.53546e-16 0)
(1 4.46667e-16 0)
(1 -1.28049e-15 0)
(1 1.95187e-15 0)
(1 2.33974e-15 0)
(1 2.23531e-15 0)
(1 1.49853e-15 0)
(1 6.44263e-16 0)
(1 2.27578e-15 0)
(1 -1.42755e-15 0)
(1 -2.28925e-16 0)
(1 1.58793e-15 0)
(1 3.91772e-15 0)
(1 2.90451e-15 0)
(1 2.12671e-15 0)
(1 2.44867e-15 0)
(1 2.32019e-15 0)
(1 1.8782e-15 0)
(1 -1.9591e-15 0)
(1 1.67511e-15 0)
(1 1.22521e-15 0)
(1 1.73163e-16 0)
(1 1.05581e-15 0)
(1 1.94629e-15 0)
(1 1.205e-15 0)
(1 3.67629e-16 0)
(1 1.2035e-15 0)
(1 2.6537e-15 0)
(1 -9.52596e-16 0)
(1 8.27139e-16 0)
(1 7.51065e-16 0)
(1 3.87719e-15 0)
(1 4.50217e-15 0)
(1 2.23907e-15 0)
(1 1.82678e-15 0)
(1 2.75997e-15 0)
(1 4.33929e-15 0)
(1 3.53465e-15 0)
(1 3.65783e-16 0)
(1 -2.01034e-16 0)
(1 -1.69775e-15 0)
(1 -2.53144e-15 0)
(1 -3.26202e-15 0)
(1 -2.83158e-15 0)
(1 -2.35712e-16 0)
(1 -3.41156e-15 0)
(1 -2.53888e-15 0)
(1 -2.60675e-15 0)
(1 -5.6739e-16 0)
(1 -1.28547e-15 0)
(1 -3.50276e-15 0)
(1 -3.22175e-15 0)
(1 -1.15039e-15 0)
(1 -2.1856e-15 0)
(1 1.86762e-16 0)
(1 1.74008e-15 0)
(1 2.27235e-15 0)
(1 1.19198e-15 0)
(1 2.35499e-15 0)
(1 2.6329e-15 0)
(1 3.89079e-15 0)
(1 -1.09183e-15 0)
(1 2.42723e-15 0)
(1 -2.97599e-15 0)
(1 -3.43904e-15 0)
(1 -2.87029e-15 0)
(1 1.0964e-16 0)
(1 7.03006e-16 0)
(1 -2.91723e-15 0)
(1 -1.85406e-15 0)
(1 2.97146e-15 0)
(1 1.41759e-15 0)
(1 4.95104e-15 0)
(1 4.62454e-15 0)
(1 5.57308e-15 0)
(1 1.30304e-15 0)
(1 2.95568e-15 0)
(1 1.9783e-15 0)
(1 5.47665e-15 0)
(1 5.46552e-16 0)
(1 -2.41153e-15 0)
(1 -6.0141e-15 0)
(1 1.54187e-15 0)
(1 -1.89836e-15 0)
(1 -2.71809e-15 0)
(1 -1.2986e-15 0)
(1 -2.31813e-15 0)
(1 -2.80387e-15 0)
(1 -4.56811e-15 0)
(1 -5.22118e-15 0)
(1 -2.14069e-15 0)
(1 -5.57886e-16 0)
(1 6.85512e-16 0)
(1 5.20972e-16 0)
(1 1.63973e-15 0)
(1 8.7702e-16 0)
(1 2.00474e-15 0)
(1 -1.2397e-15 0)
(1 2.23694e-17 0)
(1 -6.6686e-16 0)
(1 7.28871e-16 0)
(1 -1.78988e-16 0)
(1 1.2376e-15 0)
(1 1.9028e-15 0)
(1 1.72319e-15 0)
(1 5.7715e-15 0)
(1 4.63314e-15 0)
(1 2.03329e-15 0)
(1 -1.09769e-15 0)
(1 -1.80458e-15 0)
(1 -3.34765e-15 0)
(1 1.31463e-15 0)
(1 2.91439e-15 0)
(1 2.68471e-15 0)
(1 1.97943e-15 0)
(1 2.89608e-15 0)
(1 2.35617e-15 0)
(1 4.73191e-15 0)
(1 1.6245e-15 0)
(1 4.03878e-15 0)
(1 1.0638e-15 0)
(1 1.26389e-15 0)
(1 1.10171e-15 0)
(1 -3.51786e-15 0)
(1 -2.98554e-15 0)
(1 -1.5311e-15 0)
(1 4.22641e-16 0)
(1 7.38569e-15 0)
(1 5.59464e-15 0)
(1 5.42698e-15 0)
(1 6.3283e-15 0)
(1 4.98603e-15 0)
(1 4.37312e-15 0)
(1 3.09182e-15 0)
(1 6.05768e-16 0)
(1 -2.45729e-15 0)
(1 3.73775e-16 0)
(1 1.51783e-15 0)
(1 8.81284e-16 0)
(1 -2.04971e-15 0)
(1 6.84101e-17 0)
(1 -7.99092e-17 0)
(1 2.49876e-15 0)
(1 -2.37461e-15 0)
(1 -8.33997e-17 0)
(1 -4.05313e-15 0)
(1 -3.28082e-15 0)
(1 -3.14534e-15 0)
(1 -2.07737e-15 0)
(1 -3.20451e-15 0)
(1 -2.32839e-15 0)
(1 -2.40811e-15 0)
(1 -2.24346e-15 0)
(1 9.4171e-16 0)
(1 2.36033e-15 0)
(1 5.81886e-15 0)
(1 5.18969e-15 0)
(1 5.74897e-15 0)
(1 3.98829e-15 0)
(1 7.15337e-15 0)
(1 7.4671e-15 0)
(1 4.66468e-16 0)
(1 1.02538e-15 0)
(1 -3.6678e-16 0)
(1 2.48657e-16 0)
(1 -1.44733e-15 0)
(1 3.34872e-17 0)
(1 7.83654e-16 0)
(1 9.0195e-16 0)
(1 7.75373e-16 0)
(1 2.44015e-15 0)
(1 1.34039e-15 0)
(1 4.37598e-15 0)
(1 3.45763e-15 0)
(1 -1.44092e-15 0)
(1 -1.09373e-15 0)
(1 -6.6951e-16 0)
(1 1.02633e-15 0)
(1 2.98768e-15 0)
(1 -5.35737e-16 0)
(1 -1.42244e-15 0)
(1 -4.1432e-15 0)
(1 -1.93236e-15 0)
(1 1.1158e-15 0)
(1 -6.25758e-16 0)
(1 8.91321e-16 0)
(1 8.38863e-17 0)
(1 -4.26929e-16 0)
(1 -6.42261e-15 0)
(1 -3.4164e-15 0)
(1 -2.01331e-15 0)
(1 -2.30599e-15 0)
(1 1.44936e-15 0)
(1 1.27924e-15 0)
(1 1.14622e-15 0)
(1 -1.45237e-15 0)
(1 -1.32704e-16 0)
(1 -3.0513e-15 0)
(1 -2.24107e-15 0)
(1 -2.90104e-15 0)
(1 -5.45693e-16 0)
(1 -2.028e-15 0)
(1 2.35784e-15 0)
(1 1.69765e-15 0)
(1 3.12228e-15 0)
(1 3.2259e-15 0)
(1 2.75326e-15 0)
(1 9.00936e-16 0)
(1 -9.34328e-16 0)
(1 2.83643e-15 0)
(1 1.65815e-15 0)
(1 3.80056e-15 0)
(1 1.01504e-15 0)
(1 1.30234e-15 0)
(1 2.06872e-15 0)
(1 3.41477e-15 0)
(1 2.21614e-15 0)
(1 2.03326e-15 0)
(1 2.5796e-15 0)
(1 1.75693e-15 0)
(1 6.80137e-16 0)
(1 1.98393e-15 0)
(1 4.01656e-15 0)
(1 5.65039e-15 0)
(1 1.9833e-15 0)
(1 1.72328e-15 0)
(1 7.62137e-16 0)
(1 2.97087e-15 0)
(1 4.85168e-15 0)
(1 5.26613e-15 0)
(1 3.9432e-15 0)
(1 2.54574e-15 0)
(1 2.51659e-15 0)
(1 2.06099e-15 0)
(1 1.66367e-16 0)
(1 -5.77174e-16 0)
(1 2.22853e-15 0)
(1 4.41371e-15 0)
(1 1.92877e-15 0)
(1 -5.39917e-16 0)
(1 2.2809e-16 0)
(1 7.15506e-16 0)
(1 -5.26796e-16 0)
(1 -2.68606e-15 0)
(1 -3.25934e-15 0)
(1 -3.31326e-15 0)
(1 -3.89244e-15 0)
(1 -2.60719e-15 0)
(1 -3.9511e-15 0)
(1 -1.77714e-15 0)
(1 -2.2189e-15 0)
(1 1.35801e-15 0)
(1 -2.14948e-15 0)
(1 3.91891e-15 0)
(1 1.13192e-15 0)
(1 4.36786e-15 0)
(1 3.93244e-15 0)
(1 3.70708e-15 0)
(1 5.76869e-15 0)
(1 1.05734e-14 0)
(1 8.69157e-15 0)
(1 3.45319e-16 0)
(1 -2.13298e-15 0)
(1 -1.61974e-16 0)
(1 2.19263e-15 0)
(1 -1.17488e-15 0)
(1 8.1797e-16 0)
(1 -1.88446e-16 0)
(1 3.00348e-15 0)
(1 1.78207e-15 0)
(1 -2.13568e-15 0)
(1 -2.28879e-15 0)
(1 2.97971e-16 0)
(1 -2.99996e-16 0)
(1 1.79019e-15 0)
(1 2.23063e-15 0)
(1 1.77135e-15 0)
(1 -3.8902e-16 0)
(1 -1.32941e-15 0)
(1 1.00209e-15 0)
(1 -5.08226e-16 0)
(1 -5.45054e-16 0)
(1 -1.32925e-16 0)
(1 -1.90808e-16 0)
(1 -1.53303e-15 0)
(1 -2.96495e-15 0)
(1 -1.22438e-15 0)
(1 2.81906e-15 0)
(1 -1.08955e-15 0)
(1 2.03052e-17 0)
(1 -3.81829e-15 0)
(1 -3.48458e-15 0)
(1 -4.19128e-15 0)
(1 -1.22425e-15 0)
(1 -6.57526e-16 0)
(1 1.45174e-15 0)
(1 -3.93896e-16 0)
(1 -6.81245e-16 0)
(1 -3.50965e-15 0)
(1 -2.25524e-15 0)
(1 1.55313e-16 0)
(1 8.71315e-16 0)
(1 -6.11516e-17 0)
(1 3.46536e-16 0)
(1 2.4611e-16 0)
(1 1.74047e-15 0)
(1 1.60327e-15 0)
(1 3.16307e-15 0)
(1 9.64644e-16 0)
(1 4.50627e-15 0)
(1 4.04256e-15 0)
(1 2.6393e-15 0)
(1 1.87654e-15 0)
(1 3.75794e-15 0)
(1 3.22601e-15 0)
(1 4.31126e-15 0)
(1 2.72542e-15 0)
(1 4.89487e-15 0)
(1 1.41849e-15 0)
(1 4.13432e-15 0)
(1 1.48417e-15 0)
(1 3.39813e-15 0)
(1 1.61167e-16 0)
(1 4.24489e-15 0)
(1 1.27852e-15 0)
(1 2.10956e-15 0)
(1 5.02926e-15 0)
(1 1.98397e-15 0)
(1 1.84647e-15 0)
(1 3.83311e-15 0)
(1 2.53563e-15 0)
(1 4.82594e-15 0)
(1 1.48121e-15 0)
(1 6.11462e-16 0)
(1 -2.64823e-16 0)
(1 -3.76592e-16 0)
(1 3.40397e-17 0)
(1 2.36596e-15 0)
(1 2.50508e-15 0)
(1 1.71387e-15 0)
(1 -2.29461e-15 0)
(1 -2.79099e-16 0)
(1 -2.86675e-15 0)
(1 1.33371e-15 0)
(1 -2.54622e-15 0)
(1 -1.90781e-15 0)
(1 -3.02459e-15 0)
(1 -1.94677e-15 0)
(1 -1.27525e-15 0)
(1 -1.39461e-15 0)
(1 -3.41334e-15 0)
(1 -6.509e-16 0)
(1 -1.21969e-15 0)
(1 1.86151e-16 0)
(1 4.8132e-16 0)
(1 8.09408e-16 0)
(1 1.6564e-15 0)
(1 2.66369e-15 0)
(1 6.41732e-15 0)
(1 7.05148e-15 0)
(1 6.42693e-15 0)
(1 4.39532e-16 0)
(1 -2.1288e-15 0)
(1 1.75335e-15 0)
(1 1.2629e-15 0)
(1 2.62102e-16 0)
(1 -2.0995e-15 0)
(1 -2.92721e-15 0)
(1 9.46461e-16 0)
(1 2.37206e-15 0)
(1 2.44912e-15 0)
(1 2.54778e-15 0)
(1 -2.04251e-16 0)
(1 -3.5788e-15 0)
(1 -7.13294e-16 0)
(1 7.49211e-16 0)
(1 3.34115e-15 0)
(1 1.86514e-15 0)
(1 -1.45763e-15 0)
(1 -1.83178e-15 0)
(1 -2.20123e-15 0)
(1 1.59213e-15 0)
(1 -1.19095e-16 0)
(1 -4.03113e-16 0)
(1 -1.62988e-15 0)
(1 -9.72103e-16 0)
(1 -2.27345e-15 0)
(1 -1.22468e-15 0)
(1 4.37073e-16 0)
(1 1.52612e-15 0)
(1 -6.35975e-16 0)
(1 -1.54539e-15 0)
(1 -1.52683e-15 0)
(1 -9.51702e-16 0)
(1 -2.06665e-15 0)
(1 -3.35055e-15 0)
(1 -5.01296e-15 0)
(1 8.15601e-16 0)
(1 -1.71019e-15 0)
(1 -1.41216e-15 0)
(1 -2.28402e-15 0)
(1 1.0039e-16 0)
(1 -1.06466e-15 0)
(1 -1.75772e-15 0)
(1 -2.36828e-15 0)
(1 2.36179e-15 0)
(1 5.155e-15 0)
(1 5.63296e-15 0)
(1 5.54351e-15 0)
(1 1.81179e-15 0)
(1 3.85308e-15 0)
(1 1.58711e-15 0)
(1 2.82456e-15 0)
(1 3.4341e-15 0)
(1 4.69092e-15 0)
(1 4.95697e-15 0)
(1 6.56066e-16 0)
(1 -6.05741e-16 0)
(1 9.38904e-16 0)
(1 3.59302e-15 0)
(1 4.20995e-15 0)
(1 5.17114e-15 0)
(1 2.80755e-15 0)
(1 1.01595e-15 0)
(1 2.27524e-15 0)
(1 1.36203e-15 0)
(1 2.04108e-16 0)
(1 2.0759e-15 0)
(1 2.41896e-15 0)
(1 3.07908e-15 0)
(1 2.73717e-15 0)
(1 4.3926e-15 0)
(1 3.18135e-15 0)
(1 1.07176e-15 0)
(1 1.28296e-15 0)
(1 2.07614e-15 0)
(1 5.89901e-16 0)
(1 2.0486e-15 0)
(1 -2.25086e-16 0)
(1 -1.72662e-15 0)
(1 -2.11904e-15 0)
(1 1.82191e-15 0)
(1 9.5106e-16 0)
(1 -2.47053e-16 0)
(1 -1.57071e-15 0)
(1 -2.23297e-15 0)
(1 -1.97831e-15 0)
(1 -2.81624e-15 0)
(1 -2.00776e-15 0)
(1 -3.60486e-15 0)
(1 8.27622e-17 0)
(1 -4.56016e-16 0)
(1 1.73902e-15 0)
(1 3.0735e-16 0)
(1 1.27362e-15 0)
(1 9.69044e-16 0)
(1 2.71661e-15 0)
(1 5.59424e-15 0)
(1 4.46613e-15 0)
(1 3.04827e-15 0)
(1 4.74582e-15 0)
(1 2.73276e-15 0)
(1 -1.00088e-15 0)
(1 5.51243e-17 0)
(1 1.16169e-15 0)
(1 1.98292e-15 0)
(1 7.47746e-16 0)
(1 1.18671e-15 0)
(1 5.98329e-16 0)
(1 -1.19262e-15 0)
(1 1.67032e-15 0)
(1 5.90311e-15 0)
(1 6.74713e-15 0)
(1 1.17096e-15 0)
(1 -1.12074e-15 0)
(1 -3.65968e-15 0)
(1 -4.10458e-15 0)
(1 -3.90942e-15 0)
(1 -3.57717e-15 0)
(1 -1.64243e-15 0)
(1 -1.51265e-15 0)
(1 2.46978e-15 0)
(1 -1.68881e-15 0)
(1 2.06133e-15 0)
(1 -4.0881e-15 0)
(1 3.60273e-15 0)
(1 1.98112e-16 0)
(1 -6.0746e-15 0)
(1 -2.85252e-15 0)
(1 -4.30575e-15 0)
(1 -8.1192e-16 0)
(1 -1.17309e-15 0)
(1 7.94522e-16 0)
(1 -2.04186e-15 0)
(1 -1.1131e-15 0)
(1 -2.24878e-15 0)
(1 1.73067e-16 0)
(1 -7.59719e-16 0)
(1 -9.62579e-16 0)
(1 -1.78534e-15 0)
(1 -1.26502e-15 0)
(1 -4.09475e-15 0)
(1 7.63451e-16 0)
(1 -4.33656e-15 0)
(1 -1.12844e-15 0)
(1 1.18302e-15 0)
(1 3.96202e-15 0)
(1 6.09653e-15 0)
(1 7.08547e-15 0)
(1 2.81052e-15 0)
(1 4.21553e-15 0)
(1 -2.74115e-17 0)
(1 3.70527e-15 0)
(1 3.70578e-15 0)
(1 5.93537e-15 0)
(1 3.07088e-15 0)
(1 3.78515e-15 0)
(1 -1.21574e-15 0)
(1 3.17162e-15 0)
(1 -1.22402e-15 0)
(1 1.28291e-15 0)
(1 7.4936e-16 0)
(1 5.50209e-15 0)
(1 5.51798e-15 0)
(1 7.76878e-15 0)
(1 3.11207e-15 0)
(1 -2.61003e-16 0)
(1 2.1853e-16 0)
(1 8.39177e-16 0)
(1 -7.81037e-16 0)
(1 4.97361e-16 0)
(1 1.60887e-15 0)
(1 1.85739e-15 0)
(1 3.65401e-15 0)
(1 3.08585e-15 0)
(1 2.86687e-15 0)
(1 2.36893e-17 0)
(1 -9.40081e-16 0)
(1 -1.78033e-15 0)
(1 -1.34136e-15 0)
(1 2.39027e-15 0)
(1 -6.58686e-16 0)
(1 -1.12653e-15 0)
(1 -2.22167e-15 0)
(1 -5.39745e-16 0)
(1 -1.94387e-15 0)
(1 1.07663e-15 0)
(1 -3.10534e-15 0)
(1 -2.22416e-15 0)
(1 -2.33435e-15 0)
(1 -5.36546e-16 0)
(1 1.47433e-16 0)
(1 -7.77262e-16 0)
(1 -1.1828e-15 0)
(1 -2.10786e-15 0)
(1 -1.23756e-15 0)
(1 3.24988e-15 0)
(1 3.22015e-15 0)
(1 2.73112e-15 0)
(1 1.08358e-15 0)
(1 2.77151e-15 0)
(1 -1.69513e-16 0)
(1 3.43454e-15 0)
(1 -4.1067e-15 0)
(1 1.64977e-15 0)
(1 1.3686e-15 0)
(1 4.64417e-15 0)
(1 1.75707e-15 0)
(1 1.84649e-15 0)
(1 -2.51816e-15 0)
(1 -3.26263e-15 0)
(1 1.69712e-15 0)
(1 4.48735e-15 0)
(1 2.80486e-15 0)
(1 3.71408e-15 0)
(1 -3.1869e-15 0)
(1 -6.15056e-15 0)
(1 -4.82173e-15 0)
(1 -4.06781e-15 0)
(1 -2.06166e-15 0)
(1 -1.65254e-15 0)
(1 -3.9911e-16 0)
(1 -2.84811e-16 0)
(1 3.81954e-15 0)
(1 -2.80822e-17 0)
(1 1.92938e-15 0)
(1 -1.28638e-15 0)
(1 -3.04979e-15 0)
(1 -4.10523e-15 0)
(1 -2.2485e-15 0)
(1 1.3109e-17 0)
(1 7.87854e-16 0)
(1 -1.83238e-15 0)
(1 -2.29969e-15 0)
(1 -2.45216e-15 0)
(1 8.11384e-16 0)
(1 -3.41564e-16 0)
(1 -4.09858e-16 0)
(1 -3.3739e-15 0)
(1 -7.33911e-16 0)
(1 -3.35335e-15 0)
(1 -1.85971e-15 0)
(1 -1.98984e-15 0)
(1 1.84551e-16 0)
(1 4.61842e-15 0)
(1 8.4435e-16 0)
(1 3.59078e-15 0)
(1 3.21775e-15 0)
(1 5.74303e-15 0)
(1 3.55811e-15 0)
(1 2.84055e-15 0)
(1 4.46537e-16 0)
(1 3.88033e-16 0)
(1 1.57661e-15 0)
(1 3.13619e-15 0)
(1 1.72796e-15 0)
(1 5.23677e-15 0)
(1 6.56961e-15 0)
(1 5.58845e-15 0)
(1 1.83843e-15 0)
(1 3.26737e-16 0)
(1 -1.44665e-16 0)
(1 1.46862e-15 0)
(1 4.06346e-16 0)
(1 2.04571e-15 0)
(1 3.31571e-15 0)
(1 5.94309e-15 0)
(1 9.83741e-16 0)
(1 3.86111e-15 0)
(1 3.12085e-16 0)
(1 2.46243e-15 0)
(1 2.83115e-15 0)
(1 1.85157e-15 0)
(1 4.18248e-15 0)
(1 4.11587e-15 0)
(1 3.17214e-15 0)
(1 9.48681e-16 0)
(1 -2.63942e-16 0)
(1 2.10207e-15 0)
(1 2.91564e-15 0)
(1 2.33899e-15 0)
(1 -1.93909e-15 0)
(1 -1.5988e-15 0)
(1 -1.80473e-15 0)
(1 -3.34298e-16 0)
(1 -1.21933e-15 0)
(1 -1.52985e-15 0)
(1 -3.26235e-15 0)
(1 -3.90616e-16 0)
(1 1.3897e-15 0)
(1 -5.10864e-16 0)
(1 -5.76007e-16 0)
(1 -8.51857e-16 0)
(1 -1.08121e-15 0)
(1 -2.80737e-16 0)
(1 -1.00363e-15 0)
(1 2.13743e-15 0)
(1 1.25428e-15 0)
(1 4.37626e-15 0)
(1 2.33748e-15 0)
(1 3.22594e-16 0)
(1 4.19642e-16 0)
(1 1.88131e-15 0)
(1 3.56492e-15 0)
(1 2.64363e-15 0)
(1 1.91945e-15 0)
(1 -9.81854e-16 0)
(1 -1.65245e-15 0)
(1 -3.47228e-15 0)
(1 1.58954e-15 0)
(1 3.03207e-15 0)
(1 1.53603e-15 0)
(1 -1.41014e-15 0)
(1 -1.63783e-17 0)
(1 -3.34002e-15 0)
(1 -4.19877e-15 0)
(1 -3.96061e-15 0)
(1 -6.47063e-15 0)
(1 -6.96446e-16 0)
(1 -1.43637e-15 0)
(1 6.05696e-16 0)
(1 -1.63583e-15 0)
(1 -1.22994e-16 0)
(1 -2.851e-15 0)
(1 7.83639e-15 0)
(1 4.75243e-15 0)
(1 2.06243e-15 0)
(1 -9.05509e-16 0)
(1 -1.49663e-15 0)
(1 -3.10207e-15 0)
(1 -2.88286e-15 0)
(1 -2.18046e-15 0)
(1 -1.48209e-15 0)
(1 -2.4351e-15 0)
(1 -5.4841e-15 0)
(1 -5.8164e-16 0)
(1 -2.07419e-15 0)
(1 -1.25755e-15 0)
(1 -1.03353e-16 0)
(1 -8.60203e-16 0)
(1 -1.69509e-15 0)
(1 1.09588e-15 0)
(1 1.10781e-16 0)
(1 3.37809e-15 0)
(1 3.9839e-15 0)
(1 1.92811e-15 0)
(1 3.42839e-15 0)
(1 3.4597e-16 0)
(1 3.11221e-15 0)
(1 7.34767e-16 0)
(1 -1.28567e-15 0)
(1 1.88941e-15 0)
(1 1.85381e-15 0)
(1 1.30217e-15 0)
(1 2.4403e-15 0)
(1 3.10551e-15 0)
(1 3.09207e-15 0)
(1 6.51458e-15 0)
(1 5.51083e-15 0)
(1 6.11201e-15 0)
(1 4.62226e-15 0)
(1 3.96689e-15 0)
(1 4.23934e-16 0)
(1 1.2994e-15 0)
(1 1.40237e-15 0)
(1 4.71332e-15 0)
(1 4.20836e-15 0)
(1 4.83191e-15 0)
(1 3.7991e-15 0)
(1 3.74145e-15 0)
(1 3.60112e-15 0)
(1 2.36212e-15 0)
(1 6.26692e-15 0)
(1 4.06332e-15 0)
(1 3.73225e-15 0)
(1 1.47422e-15 0)
(1 3.41963e-15 0)
(1 2.08549e-15 0)
(1 1.76083e-15 0)
(1 2.61665e-15 0)
(1 -1.80305e-15 0)
(1 -5.80594e-16 0)
(1 -4.80975e-16 0)
(1 -2.0108e-15 0)
(1 -1.65255e-15 0)
(1 -3.31512e-15 0)
(1 -6.73295e-15 0)
(1 -4.70345e-15 0)
(1 -3.54744e-15 0)
(1 -1.98721e-15 0)
(1 -2.3092e-15 0)
(1 -1.59148e-16 0)
(1 -2.86609e-16 0)
(1 2.26621e-15 0)
(1 2.15907e-15 0)
(1 4.88726e-15 0)
(1 1.1808e-15 0)
(1 2.38981e-17 0)
(1 3.00737e-15 0)
(1 3.18906e-15 0)
(1 2.58948e-15 0)
(1 -6.1305e-16 0)
(1 -1.01703e-15 0)
(1 1.34135e-15 0)
(1 1.57382e-15 0)
(1 7.84685e-16 0)
(1 2.88011e-15 0)
(1 4.83729e-15 0)
(1 1.48875e-15 0)
(1 7.42552e-16 0)
(1 1.63741e-15 0)
(1 -3.57919e-15 0)
(1 -4.52001e-15 0)
(1 -1.92903e-15 0)
(1 -3.82329e-15 0)
(1 7.86716e-16 0)
(1 1.21147e-16 0)
(1 -4.8212e-15 0)
(1 -3.10694e-15 0)
(1 -2.87858e-15 0)
(1 1.19332e-15 0)
(1 3.33282e-16 0)
(1 3.39793e-15 0)
(1 -4.43837e-15 0)
(1 7.75465e-16 0)
(1 -3.16036e-15 0)
(1 1.39231e-15 0)
(1 -1.49585e-16 0)
(1 2.66332e-15 0)
(1 -2.39881e-15 0)
(1 -3.58633e-15 0)
(1 -1.52824e-15 0)
(1 -4.06697e-15 0)
(1 9.30168e-16 0)
(1 -2.03773e-15 0)
(1 -3.84542e-16 0)
(1 4.53785e-17 0)
(1 -2.7115e-15 0)
(1 3.10866e-16 0)
(1 -3.43109e-16 0)
(1 1.64163e-15 0)
(1 9.73721e-17 0)
(1 2.77459e-15 0)
(1 2.62698e-15 0)
(1 -2.37173e-15 0)
(1 1.697e-16 0)
(1 -4.68779e-15 0)
(1 3.07653e-15 0)
(1 1.15903e-15 0)
(1 3.34328e-15 0)
(1 -6.75774e-16 0)
(1 2.78267e-15 0)
(1 2.75849e-15 0)
(1 4.62794e-15 0)
(1 1.24825e-15 0)
(1 3.43056e-15 0)
(1 5.07234e-15 0)
(1 6.45889e-15 0)
(1 4.092e-15 0)
(1 5.06465e-15 0)
(1 1.07956e-15 0)
(1 1.0061e-15 0)
(1 -1.52994e-16 0)
(1 1.51396e-15 0)
(1 5.92194e-16 0)
(1 2.69795e-15 0)
(1 2.20001e-15 0)
(1 4.44034e-15 0)
(1 2.34084e-15 0)
(1 5.13439e-15 0)
(1 2.45281e-15 0)
(1 2.33593e-15 0)
(1 3.7221e-15 0)
(1 2.2583e-15 0)
(1 4.01339e-15 0)
(1 1.77269e-15 0)
(1 -2.46425e-16 0)
(1 -1.05652e-15 0)
(1 -6.85734e-16 0)
(1 1.39523e-15 0)
(1 -2.41558e-16 0)
(1 1.29588e-16 0)
(1 -2.01086e-15 0)
(1 1.02837e-15 0)
(1 -4.05234e-16 0)
(1 -1.83704e-15 0)
(1 -4.46221e-15 0)
(1 -4.74625e-15 0)
(1 -5.03068e-15 0)
(1 -2.72443e-15 0)