/*--------------------------------*- C++ -*----------------------------------*\
| =========                 |                                                 |
| \\      /  F ield         | OpenFOAM: The Open Source CFD Toolbox           |
|  \\    /   O peration     | Version:  v2012                                 |
|   \\  /    A nd           | Website:  www.openfoam.com                      |
|    \\/     M anipulation  |                                                 |
\*---------------------------------------------------------------------------*/
FoamFile
{
    version     2.0;
    format      ascii;
    class       volScalarField;
    location    "14.75";
    object      W;
}
// * * * * * * * * * * * * * * * * * * * * * * * * * * * * * * * * * * * * * //

dimensions      [0 0 -1 0 0 0 0];


internalField   nonuniform List<scalar> 
65536
(
4.44491e-15
4.46676e-15
4.57305e-15
4.76439e-15
5.04285e-15
5.41192e-15
5.87648e-15
6.44289e-15
7.11902e-15
7.91434e-15
8.84001e-15
9.90901e-15
1.11363e-14
1.25388e-14
1.4136e-14
1.59498e-14
1.80046e-14
2.03281e-14
2.29513e-14
2.59084e-14
2.9238e-14
3.29828e-14
3.719e-14
4.19123e-14
4.72077e-14
5.31406e-14
5.97818e-14
6.72095e-14
7.55099e-14
8.47774e-14
9.51161e-14
1.0664e-13
1.19473e-13
1.33753e-13
1.49627e-13
1.6726e-13
1.86827e-13
2.08521e-13
2.32551e-13
2.59144e-13
2.88544e-13
3.21018e-13
3.56851e-13
3.96351e-13
4.39851e-13
4.87706e-13
5.40297e-13
5.98033e-13
6.61349e-13
7.3071e-13
8.0661e-13
8.89573e-13
9.80153e-13
1.07894e-12
1.18654e-12
1.30362e-12
1.43085e-12
1.56895e-12
1.71866e-12
1.88075e-12
2.05603e-12
2.24532e-12
2.44949e-12
2.66941e-12
2.90598e-12
3.16012e-12
3.43275e-12
3.72481e-12
4.03726e-12
4.37102e-12
4.72705e-12
5.10626e-12
5.50957e-12
5.93787e-12
6.392e-12
6.87277e-12
7.38096e-12
7.91727e-12
8.48235e-12
9.07677e-12
9.70103e-12
1.03555e-11
1.10406e-11
1.17563e-11
1.25029e-11
1.32803e-11
1.40883e-11
1.49266e-11
1.57948e-11
1.66922e-11
1.76181e-11
1.85717e-11
1.95518e-11
2.05572e-11
2.15867e-11
2.26385e-11
2.37112e-11
2.48027e-11
2.59113e-11
2.70347e-11
2.81707e-11
2.93169e-11
3.0471e-11
3.16302e-11
3.2792e-11
3.39537e-11
3.51124e-11
3.62653e-11
3.74096e-11
3.85423e-11
3.96606e-11
4.07616e-11
4.18425e-11
4.29005e-11
4.39327e-11
4.49366e-11
4.59095e-11
4.68489e-11
4.77523e-11
4.86174e-11
4.94421e-11
5.02241e-11
5.09616e-11
5.16526e-11
5.22955e-11
5.28886e-11
5.34303e-11
5.39194e-11
5.43546e-11
5.47347e-11
5.50587e-11
5.53256e-11
5.55346e-11
5.56848e-11
5.57758e-11
5.58067e-11
5.57772e-11
5.56867e-11
5.55349e-11
5.53213e-11
5.50459e-11
5.47082e-11
5.43083e-11
5.38459e-11
5.33212e-11
5.27342e-11
5.2085e-11
5.13741e-11
5.06018e-11
4.97686e-11
4.88754e-11
4.7923e-11
4.69125e-11
4.58454e-11
4.47231e-11
4.35478e-11
4.23214e-11
4.10467e-11
3.97264e-11
3.83638e-11
3.69626e-11
3.55268e-11
3.40609e-11
3.25695e-11
3.10579e-11
2.95315e-11
2.79963e-11
2.64583e-11
2.49237e-11
2.33992e-11
2.18913e-11
2.04066e-11
1.89516e-11
1.75327e-11
1.61562e-11
1.48278e-11
1.3553e-11
1.23368e-11
1.11836e-11
1.00973e-11
9.08088e-12
8.13691e-12
7.26706e-12
6.47229e-12
5.75281e-12
5.10813e-12
4.537e-12
4.03755e-12
3.60725e-12
3.24297e-12
2.94108e-12
2.69746e-12
2.50757e-12
2.36651e-12
2.2691e-12
2.2099e-12
2.18333e-12
2.18371e-12
2.20533e-12
2.24255e-12
2.28985e-12
2.34199e-12
2.39401e-12
2.44139e-12
2.4801e-12
2.50669e-12
2.51838e-12
2.51305e-12
2.48936e-12
2.44667e-12
2.38508e-12
2.30538e-12
2.20897e-12
2.09775e-12
1.97409e-12
1.84062e-12
1.70018e-12
1.55564e-12
1.40984e-12
1.26542e-12
1.1248e-12
9.90039e-13
8.62863e-13
7.44586e-13
6.36129e-13
5.38032e-13
4.50484e-13
3.73368e-13
3.06308e-13
2.48727e-13
1.99899e-13
1.59001e-13
1.25162e-13
9.75011e-14
7.51608e-14
5.73323e-14
4.3273e-14
3.23165e-14
2.38783e-14
1.74557e-14
1.26243e-14
9.03229e-15
6.39276e-15
4.47571e-15
3.09957e-15
2.1232e-15
1.43853e-15
9.64025e-16
6.39049e-16
4.19171e-16
2.72305e-16
1.75645e-16
1.13273e-16
7.43433e-17
5.1754e-17
4.12198e-17
6.72595e-15
6.75915e-15
6.92045e-15
7.21076e-15
7.63323e-15
8.19315e-15
8.898e-15
9.75747e-15
1.07836e-14
1.19908e-14
1.33961e-14
1.50193e-14
1.68833e-14
1.9014e-14
2.1441e-14
2.41977e-14
2.73217e-14
3.08551e-14
3.48452e-14
3.93447e-14
4.44122e-14
5.01132e-14
5.65199e-14
6.3713e-14
7.17813e-14
8.08232e-14
9.09473e-14
1.02273e-13
1.14933e-13
1.29071e-13
1.44847e-13
1.62435e-13
1.82025e-13
2.03828e-13
2.2807e-13
2.55e-13
2.8489e-13
3.18032e-13
3.54747e-13
3.9538e-13
4.40305e-13
4.89928e-13
5.44683e-13
6.05041e-13
6.71505e-13
7.44615e-13
8.24951e-13
9.13131e-13
1.00981e-12
1.1157e-12
1.23153e-12
1.3581e-12
1.49623e-12
1.64681e-12
1.81075e-12
1.98903e-12
2.18265e-12
2.39266e-12
2.62016e-12
2.86629e-12
3.1322e-12
3.41911e-12
3.72824e-12
4.06085e-12
4.41822e-12
4.80164e-12
5.21241e-12
5.65182e-12
6.12115e-12
6.6217e-12
7.15469e-12
7.72134e-12
8.32281e-12
8.96021e-12
9.63457e-12
1.03468e-11
1.10979e-11
1.18884e-11
1.27191e-11
1.35903e-11
1.45026e-11
1.5456e-11
1.64506e-11
1.74862e-11
1.85624e-11
1.96786e-11
2.08341e-11
2.2028e-11
2.32588e-11
2.45253e-11
2.58257e-11
2.71581e-11
2.85204e-11
2.99102e-11
3.13248e-11
3.27616e-11
3.42174e-11
3.56892e-11
3.71734e-11
3.86667e-11
4.01652e-11
4.16653e-11
4.31629e-11
4.46542e-11
4.61351e-11
4.76015e-11
4.90493e-11
5.04745e-11
5.1873e-11
5.32409e-11
5.45744e-11
5.58695e-11
5.71228e-11
5.83307e-11
5.94899e-11
6.05972e-11
6.16497e-11
6.26446e-11
6.35795e-11
6.4452e-11
6.526e-11
6.60017e-11
6.66755e-11
6.72799e-11
6.78137e-11
6.8276e-11
6.86661e-11
6.89833e-11
6.92272e-11
6.93975e-11
6.94943e-11
6.95176e-11
6.94676e-11
6.93446e-11
6.91489e-11
6.88811e-11
6.85418e-11
6.81316e-11
6.76511e-11
6.71012e-11
6.64825e-11
6.5796e-11
6.50425e-11
6.42228e-11
6.33381e-11
6.23891e-11
6.13772e-11
6.03033e-11
5.91687e-11
5.79748e-11
5.67231e-11
5.54151e-11
5.40529e-11
5.26382e-11
5.11735e-11
4.96612e-11
4.81041e-11
4.65054e-11
4.48683e-11
4.31967e-11
4.14947e-11
3.97667e-11
3.80176e-11
3.62526e-11
3.44772e-11
3.26971e-11
3.09186e-11
2.9148e-11
2.73917e-11
2.56564e-11
2.39489e-11
2.22758e-11
2.06436e-11
1.90588e-11
1.75273e-11
1.6055e-11
1.46472e-11
1.33085e-11
1.2043e-11
1.08544e-11
9.74529e-12
8.71778e-12
7.77313e-12
6.91184e-12
6.13363e-12
5.43748e-12
4.82166e-12
4.28375e-12
3.82071e-12
3.42888e-12
3.10414e-12
2.84184e-12
2.63699e-12
2.4842e-12
2.37785e-12
2.31209e-12
2.28094e-12
2.27833e-12
2.29821e-12
2.33462e-12
2.38176e-12
2.43411e-12
2.4865e-12
2.53419e-12
2.57298e-12
2.59931e-12
2.61026e-12
2.60367e-12
2.57813e-12
2.53301e-12
2.46841e-12
2.38516e-12
2.28471e-12
2.16905e-12
2.04062e-12
1.90215e-12
1.75657e-12
1.60685e-12
1.45591e-12
1.30648e-12
1.16104e-12
1.02173e-12
8.90312e-13
7.68128e-13
6.56123e-13
5.54847e-13
4.64486e-13
3.84912e-13
3.15731e-13
2.56341e-13
2.05989e-13
1.63824e-13
1.28942e-13
1.00433e-13
7.74119e-14
5.90428e-14
4.45592e-14
3.32736e-14
2.45831e-14
1.79693e-14
1.29946e-14
9.2964e-15
6.57915e-15
4.60585e-15
3.18946e-15
2.18462e-15
1.48004e-15
9.9178e-16
6.57407e-16
4.31187e-16
2.80095e-16
1.8066e-16
1.16501e-16
7.64573e-17
5.32229e-17
4.23892e-17
1.22242e-14
1.2285e-14
1.25793e-14
1.31087e-14
1.3879e-14
1.49e-14
1.61853e-14
1.77527e-14
1.96244e-14
2.18268e-14
2.43912e-14
2.7354e-14
3.0757e-14
3.46481e-14
3.90816e-14
4.41189e-14
4.98291e-14
5.62897e-14
6.35876e-14
7.18198e-14
8.10944e-14
9.15315e-14
1.03265e-13
1.16442e-13
1.31228e-13
1.47803e-13
1.66368e-13
1.87143e-13
2.10371e-13
2.3632e-13
2.65281e-13
2.97578e-13
3.33562e-13
3.73618e-13
4.18165e-13
4.67663e-13
5.22609e-13
5.83544e-13
6.51057e-13
7.25783e-13
8.08411e-13
8.99682e-13
1.0004e-12
1.11142e-12
1.23366e-12
1.36812e-12
1.51585e-12
1.67798e-12
1.85571e-12
2.05031e-12
2.26313e-12
2.4956e-12
2.74921e-12
3.02554e-12
3.32625e-12
3.65306e-12
4.00777e-12
4.39225e-12
4.80842e-12
5.25828e-12
5.74387e-12
6.26727e-12
6.83061e-12
7.43603e-12
8.08569e-12
8.78176e-12
9.52638e-12
1.03217e-11
1.11697e-11
1.20726e-11
1.30321e-11
1.40501e-11
1.51284e-11
1.62685e-11
1.74717e-11
1.87393e-11
2.00723e-11
2.14713e-11
2.29368e-11
2.44691e-11
2.60679e-11
2.77328e-11
2.9463e-11
3.12574e-11
3.31142e-11
3.50316e-11
3.70071e-11
3.9038e-11
4.1121e-11
4.32525e-11
4.54284e-11
4.76443e-11
4.98953e-11
5.21761e-11
5.44813e-11
5.68048e-11
5.91404e-11
6.14816e-11
6.38217e-11
6.61537e-11
6.84707e-11
7.07654e-11
7.30306e-11
7.5259e-11
7.74435e-11
7.95769e-11
8.16524e-11
8.3663e-11
8.56024e-11
8.74642e-11
8.92424e-11
9.09316e-11
9.25265e-11
9.40223e-11
9.54147e-11
9.67e-11
9.78746e-11
9.89357e-11
9.9881e-11
1.00708e-10
1.01417e-10
1.02005e-10
1.02473e-10
1.0282e-10
1.03047e-10
1.03154e-10
1.03144e-10
1.03017e-10
1.02775e-10
1.0242e-10
1.01955e-10
1.01382e-10
1.00705e-10
9.99246e-11
9.90454e-11
9.807e-11
9.70015e-11
9.58432e-11
9.45981e-11
9.32693e-11
9.18601e-11
9.03735e-11
8.88126e-11
8.71803e-11
8.54797e-11
8.37137e-11
8.18851e-11
7.99969e-11
7.80521e-11
7.60535e-11
7.40042e-11
7.19073e-11
6.97658e-11
6.75832e-11
6.53628e-11
6.31085e-11
6.0824e-11
5.85135e-11
5.61814e-11
5.38325e-11
5.14716e-11
4.91042e-11
4.67358e-11
4.43723e-11
4.20199e-11
3.96851e-11
3.73745e-11
3.5095e-11
3.28533e-11
3.06565e-11
2.85116e-11
2.64252e-11
2.44041e-11
2.24546e-11
2.05824e-11
1.87932e-11
1.70918e-11
1.54825e-11
1.39688e-11
1.25535e-11
1.12387e-11
1.00256e-11
8.91454e-12
7.90499e-12
6.99567e-12
6.1845e-12
5.46865e-12
4.84458e-12
4.30811e-12
3.85449e-12
3.47846e-12
3.17431e-12
2.93595e-12
2.757e-12
2.63084e-12
2.55067e-12
2.5096e-12
2.50074e-12
2.51723e-12
2.5524e-12
2.59976e-12
2.65318e-12
2.70694e-12
2.75585e-12
2.79531e-12
2.82141e-12
2.831e-12
2.82173e-12
2.7921e-12
2.74143e-12
2.66986e-12
2.57829e-12
2.46832e-12
2.34212e-12
2.20231e-12
2.05186e-12
1.89393e-12
1.73172e-12
1.56837e-12
1.40681e-12
1.24971e-12
1.09934e-12
9.57579e-13
8.2587e-13
7.05205e-13
5.96158e-13
4.98912e-13
4.13315e-13
3.38931e-13
2.75101e-13
2.21005e-13
1.75721e-13
1.38272e-13
1.07675e-13
8.29751e-14
6.32723e-14
4.77413e-14
3.56427e-14
2.63285e-14
1.92416e-14
1.39122e-14
9.95124e-15
7.04147e-15
4.92876e-15
3.41258e-15
2.33712e-15
1.58316e-15
1.06074e-15
7.03036e-16
4.61062e-16
2.99469e-16
1.93136e-16
1.24533e-16
8.17199e-17
5.68808e-17
4.52997e-17
2.32705e-14
2.33875e-14
2.39501e-14
2.49615e-14
2.64329e-14
2.8383e-14
3.08382e-14
3.38327e-14
3.7409e-14
4.1618e-14
4.65198e-14
5.21845e-14
5.86926e-14
6.61362e-14
7.46197e-14
8.42613e-14
9.51943e-14
1.07568e-13
1.2155e-13
1.37326e-13
1.55106e-13
1.75121e-13
1.97629e-13
2.22916e-13
2.51298e-13
2.83124e-13
3.18782e-13
3.58698e-13
4.0334e-13
4.53225e-13
5.08919e-13
5.71043e-13
6.40277e-13
7.17365e-13
8.03117e-13
8.98419e-13
1.00423e-12
1.1216e-12
1.25166e-12
1.39564e-12
1.55485e-12
1.73075e-12
1.92485e-12
2.13882e-12
2.37443e-12
2.63358e-12
2.9183e-12
3.23074e-12
3.57319e-12
3.94809e-12
4.35801e-12
4.80566e-12
5.29388e-12
5.82567e-12
6.40413e-12
7.03254e-12
7.71424e-12
8.45275e-12
9.25164e-12
1.01146e-11
1.10454e-11
1.20478e-11
1.31258e-11
1.42832e-11
1.55238e-11
1.68515e-11
1.82701e-11
1.97832e-11
2.13943e-11
2.3107e-11
2.49241e-11
2.68488e-11
2.88835e-11
3.10306e-11
3.32918e-11
3.56686e-11
3.81619e-11
4.07721e-11
4.34992e-11
4.63421e-11
4.92996e-11
5.23695e-11
5.55488e-11
5.88341e-11
6.22208e-11
6.57037e-11
6.9277e-11
7.29336e-11
7.66661e-11
8.0466e-11
8.43241e-11
8.82306e-11
9.21748e-11
9.61455e-11
1.00131e-10
1.04119e-10
1.08096e-10
1.12049e-10
1.15966e-10
1.19832e-10
1.23633e-10
1.27357e-10
1.30988e-10
1.34515e-10
1.37924e-10
1.41202e-10
1.44337e-10
1.47317e-10
1.50133e-10
1.52774e-10
1.5523e-10
1.57494e-10
1.59558e-10
1.61415e-10
1.63062e-10
1.64492e-10
1.65704e-10
1.66695e-10
1.67464e-10
1.68011e-10
1.68337e-10
1.68444e-10
1.68334e-10
1.68012e-10
1.67481e-10
1.66747e-10
1.65816e-10
1.64694e-10
1.63387e-10
1.61902e-10
1.60249e-10
1.58433e-10
1.56462e-10
1.54346e-10
1.52092e-10
1.49708e-10
1.47202e-10
1.44582e-10
1.41856e-10
1.39031e-10
1.36115e-10
1.33115e-10
1.30037e-10
1.26889e-10
1.23676e-10
1.20405e-10
1.17082e-10
1.13713e-10
1.10303e-10
1.06857e-10
1.0338e-10
9.98789e-11
9.63576e-11
9.28214e-11
8.92756e-11
8.57254e-11
8.21761e-11
7.86333e-11
7.51026e-11
7.15899e-11
6.81013e-11
6.4643e-11
6.12217e-11
5.7844e-11
5.45169e-11
5.12474e-11
4.80428e-11
4.49102e-11
4.18571e-11
3.88905e-11
3.60174e-11
3.32447e-11
3.05787e-11
2.80254e-11
2.55902e-11
2.32781e-11
2.1093e-11
1.90383e-11
1.71165e-11
1.53293e-11
1.36771e-11
1.21598e-11
1.07762e-11
9.52407e-12
8.40039e-12
7.40127e-12
6.52203e-12
5.7573e-12
5.10102e-12
4.54659e-12
4.08693e-12
3.71453e-12
3.42157e-12
3.19999e-12
3.04153e-12
2.93788e-12
2.88068e-12
2.86165e-12
2.87266e-12
2.90582e-12
2.95356e-12
3.00877e-12
3.06484e-12
3.1158e-12
3.1564e-12
3.1822e-12
3.18965e-12
3.17611e-12
3.13989e-12
3.08026e-12
2.99741e-12
2.89238e-12
2.76698e-12
2.62366e-12
2.46539e-12
2.29549e-12
2.11749e-12
1.93498e-12
1.75145e-12
1.57018e-12
1.39409e-12
1.22572e-12
1.06714e-12
9.19932e-13
7.85168e-13
6.63466e-13
5.55009e-13
4.59602e-13
3.76742e-13
3.05677e-13
2.45481e-13
1.95115e-13
1.53482e-13
1.19482e-13
9.20455e-14
7.01685e-14
5.293e-14
3.9506e-14
2.91747e-14
2.13165e-14
1.54089e-14
1.10193e-14
7.79557e-15
5.45549e-15
3.77654e-15
2.58591e-15
1.75137e-15
1.17325e-15
7.77481e-16
5.09806e-16
3.3108e-16
2.13492e-16
1.37639e-16
9.0308e-17
6.28501e-17
5.00491e-17
4.43671e-14
4.45926e-14
4.56701e-14
4.76058e-14
5.04212e-14
5.41526e-14
5.88506e-14
6.45814e-14
7.14265e-14
7.94842e-14
8.88704e-14
9.97199e-14
1.12188e-13
1.26452e-13
1.42713e-13
1.612e-13
1.82169e-13
2.05909e-13
2.32743e-13
2.63031e-13
2.97177e-13
3.35628e-13
3.78882e-13
4.27492e-13
4.8207e-13
5.43293e-13
6.11907e-13
6.88739e-13
7.74696e-13
8.70776e-13
9.78076e-13
1.0978e-12
1.23126e-12
1.37991e-12
1.5453e-12
1.72915e-12
1.93333e-12
2.15986e-12
2.41093e-12
2.68891e-12
2.99637e-12
3.33607e-12
3.71099e-12
4.12432e-12
4.57949e-12
5.08014e-12
5.63019e-12
6.23378e-12
6.89532e-12
7.61948e-12
8.41117e-12
9.27558e-12
1.02181e-11
1.12446e-11
1.23607e-11
1.35729e-11
1.48873e-11
1.63106e-11
1.78495e-11
1.95109e-11
2.13017e-11
2.32292e-11
2.53002e-11
2.75219e-11
2.99014e-11
3.24454e-11
3.51606e-11
3.80535e-11
4.11301e-11
4.43961e-11
4.78565e-11
5.1516e-11
5.53785e-11
5.9447e-11
6.37239e-11
6.82105e-11
7.2907e-11
7.78126e-11
8.29253e-11
8.82418e-11
9.37573e-11
9.94657e-11
1.0536e-10
1.1143e-10
1.17665e-10
1.24055e-10
1.30584e-10
1.37237e-10
1.43998e-10
1.50849e-10
1.57769e-10
1.64738e-10
1.71734e-10
1.78734e-10
1.85713e-10
1.92646e-10
1.99509e-10
2.06275e-10
2.12918e-10
2.19412e-10
2.2573e-10
2.31849e-10
2.37741e-10
2.43384e-10
2.48754e-10
2.5383e-10
2.5859e-10
2.63015e-10
2.67089e-10
2.70796e-10
2.74123e-10
2.77057e-10
2.7959e-10
2.81715e-10
2.83427e-10
2.84723e-10
2.85602e-10
2.86066e-10
2.86118e-10
2.85764e-10
2.85012e-10
2.8387e-10
2.82349e-10
2.80461e-10
2.7822e-10
2.75641e-10
2.72737e-10
2.69527e-10
2.66027e-10
2.62255e-10
2.58227e-10
2.53962e-10
2.49478e-10
2.44793e-10
2.39924e-10
2.34889e-10
2.29704e-10
2.24386e-10
2.1895e-10
2.13411e-10
2.07784e-10
2.02083e-10
1.9632e-10
1.90509e-10
1.8466e-10
1.78785e-10
1.72894e-10
1.66996e-10
1.61101e-10
1.55217e-10
1.49353e-10
1.43517e-10
1.37715e-10
1.31956e-10
1.26245e-10
1.20591e-10
1.14999e-10
1.09477e-10
1.04031e-10
9.86679e-11
9.33951e-11
8.82192e-11
8.31475e-11
7.81872e-11
7.33454e-11
6.86295e-11
6.40468e-11
5.96045e-11
5.53097e-11
5.11693e-11
4.71897e-11
4.33771e-11
3.9737e-11
3.62745e-11
3.29938e-11
2.98982e-11
2.69903e-11
2.42717e-11
2.17429e-11
1.94033e-11
1.72513e-11
1.52841e-11
1.34981e-11
1.18883e-11
1.04491e-11
9.17365e-12
8.05451e-12
7.08343e-12
6.25156e-12
5.54948e-12
4.96738e-12
4.49508e-12
4.12219e-12
3.83815e-12
3.63233e-12
3.49415e-12
3.41312e-12
3.37894e-12
3.38162e-12
3.41152e-12
3.4595e-12
3.517e-12
3.57615e-12
3.62986e-12
3.67195e-12
3.69722e-12
3.70151e-12
3.68178e-12
3.63608e-12
3.56361e-12
3.46462e-12
3.34033e-12
3.19288e-12
3.02512e-12
2.84047e-12
2.64281e-12
2.43618e-12
2.22471e-12
2.0124e-12
1.80299e-12
1.59983e-12
1.4058e-12
1.22325e-12
1.05394e-12
8.99079e-13
7.59343e-13
6.34909e-13
5.25526e-13
4.3059e-13
3.49219e-13
2.80334e-13
2.22729e-13
1.75138e-13
1.36291e-13
1.04958e-13
7.99857e-14
6.03161e-14
4.5005e-14
3.3226e-14
2.42697e-14
1.75389e-14
1.25394e-14
8.86875e-15
6.20507e-15
4.29447e-15
2.93992e-15
1.99074e-15
1.33335e-15
8.83408e-16
5.79162e-16
3.76058e-16
2.42456e-16
1.56287e-16
1.02527e-16
7.13432e-17
5.68064e-17
8.373e-14
8.41608e-14
8.62042e-14
8.98723e-14
9.52064e-14
1.02275e-13
1.11177e-13
1.22035e-13
1.35008e-13
1.50281e-13
1.68077e-13
1.88652e-13
2.12303e-13
2.39368e-13
2.70233e-13
3.05332e-13
3.45157e-13
3.90259e-13
4.41256e-13
4.98837e-13
5.63774e-13
6.36924e-13
7.19241e-13
8.11782e-13
9.1572e-13
1.03235e-12
1.16311e-12
1.30958e-12
1.4735e-12
1.65678e-12
1.86153e-12
2.09006e-12
2.3449e-12
2.6288e-12
2.94478e-12
3.29613e-12
3.68642e-12
4.11954e-12
4.59969e-12
5.13142e-12
5.71966e-12
6.36969e-12
7.08723e-12
7.87839e-12
8.74971e-12
9.7082e-12
1.07613e-11
1.1917e-11
1.31836e-11
1.457e-11
1.60857e-11
1.77404e-11
1.95445e-11
2.15087e-11
2.36442e-11
2.59626e-11
2.8476e-11
3.11965e-11
3.41369e-11
3.73098e-11
4.07282e-11
4.4405e-11
4.83534e-11
5.2586e-11
5.71156e-11
6.19543e-11
6.71139e-11
7.26056e-11
7.84396e-11
8.46254e-11
9.11712e-11
9.80841e-11
1.0537e-10
1.13032e-10
1.21073e-10
1.29492e-10
1.38289e-10
1.47458e-10
1.56993e-10
1.66885e-10
1.77121e-10
1.87686e-10
1.98564e-10
2.09732e-10
2.21167e-10
2.32843e-10
2.4473e-10
2.56795e-10
2.69003e-10
2.81316e-10
2.93693e-10
3.06093e-10
3.1847e-10
3.30778e-10
3.42969e-10
3.54995e-10
3.66807e-10
3.78355e-10
3.89589e-10
4.0046e-10
4.10921e-10
4.20925e-10
4.30427e-10
4.39385e-10
4.47759e-10
4.55512e-10
4.6261e-10
4.69024e-10
4.74726e-10
4.79696e-10
4.83914e-10
4.87367e-10
4.90047e-10
4.91947e-10
4.93068e-10
4.93413e-10
4.92991e-10
4.91813e-10
4.89895e-10
4.87256e-10
4.8392e-10
4.7991e-10
4.75256e-10
4.69989e-10
4.6414e-10
4.57743e-10
4.50835e-10
4.43451e-10
4.35627e-10
4.27403e-10
4.18813e-10
4.09896e-10
4.00687e-10
3.91222e-10
3.81535e-10
3.7166e-10
3.61628e-10
3.5147e-10
3.41216e-10
3.30891e-10
3.20523e-10
3.10134e-10
2.99748e-10
2.89384e-10
2.79063e-10
2.68801e-10
2.58615e-10
2.48519e-10
2.38528e-10
2.28652e-10
2.18905e-10
2.09295e-10
1.99832e-10
1.90526e-10
1.81383e-10
1.72413e-10
1.63623e-10
1.55019e-10
1.46608e-10
1.38397e-10
1.30392e-10
1.22601e-10
1.15029e-10
1.07683e-10
1.0057e-10
9.36945e-11
8.7064e-11
8.0684e-11
7.45601e-11
6.86975e-11
6.3101e-11
5.77747e-11
5.27219e-11
4.79453e-11
4.34464e-11
3.9226e-11
3.52835e-11
3.16172e-11
2.82243e-11
2.51006e-11
2.22408e-11
1.96381e-11
1.72848e-11
1.5172e-11
1.32897e-11
1.16269e-11
1.0172e-11
8.91255e-12
7.83554e-12
6.92753e-12
6.17475e-12
5.56323e-12
5.0789e-12
4.70769e-12
4.43564e-12
4.24899e-12
4.13429e-12
4.07844e-12
4.06885e-12
4.09352e-12
4.14112e-12
4.20112e-12
4.26391e-12
4.32091e-12
4.36465e-12
4.38889e-12
4.38867e-12
4.36038e-12
4.30176e-12
4.21187e-12
4.09105e-12
3.94079e-12
3.76364e-12
3.56298e-12
3.34291e-12
3.10794e-12
2.86287e-12
2.61255e-12
2.36164e-12
2.11452e-12
1.87509e-12
1.64669e-12
1.43203e-12
1.23313e-12
1.05137e-12
8.87509e-13
7.41701e-13
6.13624e-13
5.0254e-13
4.07391e-13
3.26891e-13
2.59612e-13
2.04059e-13
1.58737e-13
1.22199e-13
9.30918e-14
7.01756e-14
5.23448e-14
3.86328e-14
2.82108e-14
2.03812e-14
1.45675e-14
1.03005e-14
7.20506e-15
4.98538e-15
3.41215e-15
2.31e-15
1.54687e-15
1.02468e-15
6.71656e-16
4.36039e-16
2.8108e-16
1.81154e-16
1.1882e-16
8.26675e-17
6.58161e-17
1.55962e-13
1.56775e-13
1.60602e-13
1.67465e-13
1.77443e-13
1.90666e-13
2.07317e-13
2.27632e-13
2.51905e-13
2.80491e-13
3.13804e-13
3.5233e-13
3.96628e-13
4.47336e-13
5.0518e-13
5.70983e-13
6.4567e-13
7.30282e-13
8.25986e-13
9.34087e-13
1.05604e-12
1.19347e-12
1.34817e-12
1.52216e-12
1.71765e-12
1.93709e-12
2.1832e-12
2.45897e-12
2.76772e-12
3.11306e-12
3.49898e-12
3.92987e-12
4.41051e-12
4.94615e-12
5.54251e-12
6.20582e-12
6.94286e-12
7.76099e-12
8.66821e-12
9.67315e-12
1.07851e-11
1.20142e-11
1.33712e-11
1.48676e-11
1.6516e-11
1.83295e-11
2.03222e-11
2.25092e-11
2.49062e-11
2.75301e-11
3.03985e-11
3.353e-11
3.69438e-11
4.06603e-11
4.47003e-11
4.90855e-11
5.38383e-11
5.89814e-11
6.45382e-11
7.05323e-11
7.69873e-11
8.3927e-11
9.1375e-11
9.93545e-11
1.07888e-10
1.16997e-10
1.26702e-10
1.37023e-10
1.47976e-10
1.59578e-10
1.7184e-10
1.84775e-10
1.98388e-10
2.12684e-10
2.27664e-10
2.43323e-10
2.59654e-10
2.76643e-10
2.94275e-10
3.12524e-10
3.31365e-10
3.50763e-10
3.70678e-10
3.91067e-10
4.11878e-10
4.33056e-10
4.54539e-10
4.7626e-10
4.98147e-10
5.20125e-10
5.42111e-10
5.64023e-10
5.85771e-10
6.07267e-10
6.28419e-10
6.49133e-10
6.69316e-10
6.88875e-10
7.07719e-10
7.25759e-10
7.42907e-10
7.59081e-10
7.74203e-10
7.882e-10
8.01006e-10
8.1256e-10
8.22809e-10
8.31709e-10
8.39222e-10
8.45319e-10
8.49981e-10
8.53196e-10
8.54961e-10
8.55282e-10
8.54174e-10
8.51659e-10
8.47767e-10
8.42535e-10
8.36007e-10
8.28233e-10
8.19269e-10
8.09175e-10
7.98016e-10
7.8586e-10
7.72776e-10
7.58839e-10
7.44121e-10
7.28697e-10
7.12641e-10
6.96027e-10
6.78927e-10
6.61413e-10
6.43553e-10
6.25412e-10
6.07056e-10
5.88543e-10
5.69931e-10
5.51274e-10
5.3262e-10
5.14017e-10
4.95507e-10
4.77129e-10
4.58919e-10
4.40908e-10
4.23126e-10
4.05597e-10
3.88346e-10
3.71391e-10
3.54751e-10
3.38441e-10
3.22473e-10
3.06859e-10
2.9161e-10
2.76732e-10
2.62233e-10
2.4812e-10
2.34398e-10
2.2107e-10
2.08142e-10
1.95617e-10
1.83499e-10
1.7179e-10
1.60493e-10
1.49613e-10
1.3915e-10
1.29107e-10
1.19488e-10
1.10293e-10
1.01524e-10
9.31825e-11
8.52684e-11
7.77814e-11
7.07202e-11
6.40826e-11
5.78651e-11
5.20633e-11
4.66712e-11
4.16815e-11
3.70857e-11
3.28738e-11
2.90342e-11
2.55543e-11
2.24199e-11
1.9616e-11
1.71264e-11
1.49338e-11
1.30204e-11
1.13678e-11
9.95707e-12
8.76898e-12
7.78424e-12
6.98355e-12
6.34774e-12
5.8579e-12
5.4955e-12
5.24245e-12
5.08124e-12
4.99505e-12
4.96777e-12
4.98421e-12
5.03014e-12
5.09242e-12
5.15914e-12
5.21971e-12
5.26499e-12
5.28735e-12
5.28082e-12
5.24102e-12
5.16525e-12
5.05244e-12
4.90301e-12
4.71881e-12
4.50293e-12
4.25945e-12
3.99328e-12
3.70986e-12
3.4149e-12
3.11416e-12
2.81322e-12
2.51724e-12
2.23083e-12
1.95793e-12
1.70171e-12
1.46454e-12
1.24801e-12
1.05295e-12
8.79528e-13
7.27302e-13
5.95364e-13
4.82425e-13
3.86932e-13
3.07169e-13
2.41344e-13
1.87669e-13
1.44419e-13
1.0998e-13
8.28789e-14
6.18004e-14
4.55974e-14
3.32866e-14
2.40415e-14
1.71791e-14
1.2144e-14
8.49243e-15
5.87478e-15
4.01997e-15
2.72092e-15
1.82167e-15
1.20648e-15
7.90676e-16
5.13217e-16
3.30774e-16
2.13146e-16
1.39781e-16
9.72358e-17
7.74065e-17
2.86544e-13
2.8806e-13
2.95131e-13
3.07803e-13
3.26219e-13
3.50624e-13
3.81356e-13
4.18858e-13
4.63675e-13
5.16463e-13
5.77998e-13
6.49182e-13
7.31053e-13
8.24802e-13
9.31779e-13
1.05352e-12
1.19174e-12
1.34839e-12
1.52563e-12
1.72592e-12
1.95195e-12
2.20677e-12
2.49373e-12
2.81658e-12
3.17947e-12
3.58699e-12
4.04421e-12
4.55674e-12
5.13076e-12
5.77307e-12
6.49113e-12
7.29315e-12
8.1881e-12
9.1858e-12
1.0297e-11
1.15333e-11
1.29075e-11
1.44334e-11
1.6126e-11
1.80014e-11
2.00772e-11
2.23721e-11
2.49064e-11
2.77018e-11
3.07816e-11
3.41706e-11
3.7895e-11
4.19831e-11
4.64643e-11
5.13701e-11
5.67332e-11
6.25882e-11
6.89713e-11
7.59197e-11
8.34725e-11
9.16696e-11
1.00552e-10
1.10163e-10
1.20543e-10
1.31737e-10
1.43788e-10
1.56739e-10
1.70632e-10
1.85508e-10
2.01408e-10
2.18369e-10
2.36428e-10
2.55617e-10
2.75964e-10
2.97496e-10
3.20231e-10
3.44184e-10
3.69364e-10
3.95773e-10
4.23405e-10
4.52245e-10
4.82273e-10
5.13457e-10
5.45756e-10
5.79119e-10
6.13485e-10
6.48782e-10
6.84929e-10
7.21832e-10
7.59388e-10
7.97482e-10
8.35991e-10
8.74782e-10
9.13712e-10
9.52632e-10
9.91383e-10
1.0298e-09
1.06772e-09
1.10497e-09
1.14138e-09
1.17677e-09
1.21096e-09
1.2438e-09
1.2751e-09
1.30472e-09
1.3325e-09
1.35829e-09
1.38196e-09
1.40339e-09
1.42247e-09
1.43911e-09
1.45323e-09
1.46477e-09
1.47367e-09
1.4799e-09
1.48347e-09
1.48436e-09
1.4826e-09
1.47822e-09
1.47129e-09
1.46185e-09
1.45e-09
1.43583e-09
1.41944e-09
1.40094e-09
1.38046e-09
1.35814e-09
1.3341e-09
1.30848e-09
1.28144e-09
1.25312e-09
1.22366e-09
1.1932e-09
1.16189e-09
1.12988e-09
1.09728e-09
1.06424e-09
1.03088e-09
9.97316e-10
9.6366e-10
9.30016e-10
8.96481e-10
8.63145e-10
8.30088e-10
7.97386e-10
7.65106e-10
7.33306e-10
7.02039e-10
6.71351e-10
6.41283e-10
6.11867e-10
5.83132e-10
5.55102e-10
5.27795e-10
5.01225e-10
4.75405e-10
4.50341e-10
4.26038e-10
4.02498e-10
3.79724e-10
3.57711e-10
3.3646e-10
3.15964e-10
2.96221e-10
2.77224e-10
2.58969e-10
2.41449e-10
2.24658e-10
2.0859e-10
1.93238e-10
1.78597e-10
1.64658e-10
1.51415e-10
1.38861e-10
1.26988e-10
1.15787e-10
1.05249e-10
9.53634e-11
8.61195e-11
7.75046e-11
6.9505e-11
6.21055e-11
5.52897e-11
4.90396e-11
4.33356e-11
3.81569e-11
3.34813e-11
2.92854e-11
2.55446e-11
2.22335e-11
1.93259e-11
1.6795e-11
1.46138e-11
1.27549e-11
1.11912e-11
9.89564e-12
8.84153e-12
8.00273e-12
7.35373e-12
6.86978e-12
6.527e-12
6.30247e-12
6.17434e-12
6.12191e-12
6.12574e-12
6.16781e-12
6.23155e-12
6.30206e-12
6.36613e-12
6.41246e-12
6.43167e-12
6.41639e-12
6.36132e-12
6.26319e-12
6.12072e-12
5.93449e-12
5.70677e-12
5.44133e-12
5.14317e-12
4.81823e-12
4.47307e-12
4.11461e-12
3.74977e-12
3.38524e-12
3.02721e-12
2.68118e-12
2.35183e-12
2.04293e-12
1.75726e-12
1.49667e-12
1.26212e-12
1.05373e-12
8.70952e-13
7.12634e-13
5.77199e-13
4.62754e-13
3.67213e-13
2.8841e-13
2.24184e-13
1.72458e-13
1.31288e-13
9.89031e-14
7.3726e-14
5.43798e-14
3.96865e-14
2.8656e-14
2.0471e-14
1.44674e-14
1.01148e-14
6.99548e-15
4.7858e-15
3.2386e-15
2.16783e-15
1.43547e-15
9.40584e-16
6.10417e-16
3.93357e-16
2.53433e-16
1.66175e-16
1.15579e-16
9.19998e-17
5.19212e-13
5.22002e-13
5.34897e-13
5.57979e-13
5.91516e-13
6.35955e-13
6.91919e-13
7.6022e-13
8.41858e-13
9.38039e-13
1.05019e-12
1.17995e-12
1.32925e-12
1.50027e-12
1.69548e-12
1.91771e-12
2.17012e-12
2.45629e-12
2.78022e-12
3.1464e-12
3.55983e-12
4.02609e-12
4.55138e-12
5.14262e-12
5.80744e-12
6.55434e-12
7.39269e-12
8.33284e-12
9.38621e-12
1.05654e-11
1.18841e-11
1.33577e-11
1.50026e-11
1.68371e-11
1.8881e-11
2.1156e-11
2.36855e-11
2.64953e-11
2.9613e-11
3.30686e-11
3.68946e-11
4.11257e-11
4.57996e-11
5.09564e-11
5.66391e-11
6.28937e-11
6.9769e-11
7.73167e-11
8.55917e-11
9.46518e-11
1.04558e-10
1.15373e-10
1.27164e-10
1.4e-10
1.53952e-10
1.69093e-10
1.855e-10
2.03248e-10
2.22415e-10
2.43079e-10
2.6532e-10
2.89213e-10
3.14835e-10
3.42259e-10
3.71556e-10
4.02792e-10
4.36029e-10
4.71321e-10
5.08716e-10
5.48255e-10
5.89965e-10
6.33867e-10
6.79967e-10
7.28259e-10
7.78721e-10
8.31319e-10
8.85997e-10
9.42687e-10
1.0013e-09
1.06173e-09
1.12384e-09
1.1875e-09
1.25252e-09
1.31874e-09
1.38593e-09
1.45388e-09
1.52234e-09
1.59105e-09
1.65974e-09
1.72812e-09
1.79588e-09
1.86272e-09
1.92832e-09
1.99237e-09
2.05453e-09
2.11448e-09
2.17192e-09
2.22654e-09
2.27803e-09
2.32612e-09
2.37054e-09
2.41104e-09
2.44741e-09
2.47943e-09
2.50695e-09
2.52983e-09
2.54794e-09
2.56121e-09
2.5696e-09
2.57308e-09
2.57168e-09
2.56545e-09
2.55446e-09
2.53882e-09
2.51867e-09
2.49418e-09
2.46553e-09
2.43293e-09
2.39661e-09
2.35682e-09
2.3138e-09
2.26782e-09
2.21916e-09
2.1681e-09
2.11492e-09
2.05989e-09
2.0033e-09
1.94541e-09
1.88649e-09
1.82678e-09
1.76654e-09
1.706e-09
1.64537e-09
1.58485e-09
1.52464e-09
1.4649e-09
1.40581e-09
1.34749e-09
1.29007e-09
1.23368e-09
1.1784e-09
1.12433e-09
1.07153e-09
1.02007e-09
9.69986e-10
9.21327e-10
8.74118e-10
8.28378e-10
7.84118e-10
7.41344e-10
7.00053e-10
6.6024e-10
6.21892e-10
5.84996e-10
5.49533e-10
5.15482e-10
4.82821e-10
4.51526e-10
4.21573e-10
3.92936e-10
3.65589e-10
3.39508e-10
3.14665e-10
2.91035e-10
2.68594e-10
2.47316e-10
2.27177e-10
2.08152e-10
1.90216e-10
1.73344e-10
1.57512e-10
1.42694e-10
1.28864e-10
1.15995e-10
1.04058e-10
9.30252e-11
8.28656e-11
7.35477e-11
6.50386e-11
5.7304e-11
5.03086e-11
4.40157e-11
3.83879e-11
3.33867e-11
2.89733e-11
2.51084e-11
2.17525e-11
1.88663e-11
1.64108e-11
1.43477e-11
1.26391e-11
1.12484e-11
1.01399e-11
9.27913e-12
8.6331e-12
8.17014e-12
7.86013e-12
7.6746e-12
7.5868e-12
7.57179e-12
7.60654e-12
7.67011e-12
7.74367e-12
7.81072e-12
7.85712e-12
7.87125e-12
7.84401e-12
7.76889e-12
7.64191e-12
7.46151e-12
7.22846e-12
6.94558e-12
6.6175e-12
6.25033e-12
5.85133e-12
5.4285e-12
4.99022e-12
4.54488e-12
4.10055e-12
3.66471e-12
3.24396e-12
2.84392e-12
2.46907e-12
2.12272e-12
1.80704e-12
1.52312e-12
1.27105e-12
1.0501e-12
8.58847e-13
6.95336e-13
5.57244e-13
4.42024e-13
3.47038e-13
2.6966e-13
2.0737e-13
1.57813e-13
1.18848e-13
8.85669e-14
6.53075e-14
4.76482e-14
3.43957e-14
2.4565e-14
1.73567e-14
1.2132e-14
8.38875e-15
5.73778e-15
3.88205e-15
2.59805e-15
1.72005e-15
1.12686e-15
7.31188e-16
4.7111e-16
3.03482e-16
1.98962e-16
1.38365e-16
1.10127e-16
9.27866e-13
9.32937e-13
9.56138e-13
9.97623e-13
1.05788e-12
1.13772e-12
1.23827e-12
1.361e-12
1.50772e-12
1.68063e-12
1.88229e-12
2.1157e-12
2.38434e-12
2.69215e-12
3.04365e-12
3.44395e-12
3.89879e-12
4.41468e-12
4.99888e-12
5.65954e-12
6.40577e-12
7.24772e-12
8.1967e-12
9.26526e-12
1.04674e-11
1.18184e-11
1.33356e-11
1.50378e-11
1.69457e-11
1.90825e-11
2.14732e-11
2.41457e-11
2.71302e-11
3.04601e-11
3.41716e-11
3.83044e-11
4.29015e-11
4.80097e-11
5.36799e-11
5.9967e-11
6.69302e-11
7.46335e-11
8.31455e-11
9.25399e-11
1.02895e-10
1.14296e-10
1.26831e-10
1.40596e-10
1.5569e-10
1.72219e-10
1.90294e-10
2.10031e-10
2.31551e-10
2.5498e-10
2.80447e-10
3.08086e-10
3.38033e-10
3.70427e-10
4.05408e-10
4.43116e-10
4.83693e-10
5.27275e-10
5.73997e-10
6.23989e-10
6.77375e-10
7.34268e-10
7.94775e-10
8.58986e-10
9.26981e-10
9.9882e-10
1.07455e-09
1.15418e-09
1.23772e-09
1.32514e-09
1.41639e-09
1.51137e-09
1.60997e-09
1.71205e-09
1.81742e-09
1.92586e-09
2.03711e-09
2.15088e-09
2.26685e-09
2.38463e-09
2.50384e-09
2.62404e-09
2.74475e-09
2.86549e-09
2.98573e-09
3.10492e-09
3.22251e-09
3.33791e-09
3.45053e-09
3.5598e-09
3.66511e-09
3.76589e-09
3.86157e-09
3.9516e-09
4.03547e-09
4.11267e-09
4.18277e-09
4.24534e-09
4.30002e-09
4.3465e-09
4.38452e-09
4.41388e-09
4.43443e-09
4.4461e-09
4.44885e-09
4.44274e-09
4.42787e-09
4.40439e-09
4.37253e-09
4.33255e-09
4.28477e-09
4.22955e-09
4.16729e-09
4.09844e-09
4.02347e-09
3.94285e-09
3.85711e-09
3.76676e-09
3.67234e-09
3.57437e-09
3.47338e-09
3.3699e-09
3.26442e-09
3.15745e-09
3.04946e-09
2.94088e-09
2.83216e-09
2.72368e-09
2.61581e-09
2.5089e-09
2.40325e-09
2.29914e-09
2.19683e-09
2.09652e-09
1.99841e-09
1.90267e-09
1.80942e-09
1.71879e-09
1.63085e-09
1.54568e-09
1.46333e-09
1.38381e-09
1.30714e-09
1.23333e-09