/*--------------------------------*- C++ -*----------------------------------*\
| =========                 |                                                 |
| \\      /  F ield         | OpenFOAM: The Open Source CFD Toolbox           |
|  \\    /   O peration     | Version:  v2012                                 |
|   \\  /    A nd           | Website:  www.openfoam.com                      |
|    \\/     M anipulation  |                                                 |
\*---------------------------------------------------------------------------*/
FoamFile
{
    version     2.0;
    format      ascii;
    class       volVectorField;
    location    "0";
    object      U;
}
// * * * * * * * * * * * * * * * * * * * * * * * * * * * * * * * * * * * * * //

dimensions      [0 1 -1 0 0 0 0];


internalField   nonuniform List<vector> 
4000
(
(1 -1.73895e-15 0)
(1 4.07015e-15 0)
(1 5.84864e-16 0)
(1 2.45083e-15 0)
(1 -1.63949e-15 0)
(1 -1.40546e-15 0)
(1 -1.01966e-15 0)
(1 2.16067e-15 0)
(1 -9.67926e-16 0)
(1 -4.88543e-15 0)
(1 1.30626e-15 0)
(1 2.41317e-15 0)
(1 3.19149e-15 0)
(1 1.22025e-15 0)
(1 3.32052e-15 0)
(1 3.96829e-15 0)
(1 -2.55804e-15 0)
(1 -9.68281e-15 0)
(1 -2.1183e-15 0)
(1 -5.45051e-15 0)
(1 -7.83974e-17 0)
(1 -1.47496e-14 0)
(1 3.77638e-15 0)
(1 -3.711e-15 0)
(1 4.39864e-15 0)
(1 -1.39697e-15 0)
(1 -2.31123e-15 0)
(1 3.73136e-15 0)
(1 5.79444e-15 0)
(1 9.1694e-15 0)
(1 4.62833e-15 0)
(1 -1.31009e-15 0)
(1 -2.0408e-15 0)
(1 2.50378e-15 0)
(1 -1.21251e-15 0)
(1 5.3839e-15 0)
(1 6.39417e-15 0)
(1 2.4185e-15 0)
(1 -2.35211e-15 0)
(1 -2.43102e-15 0)
(1 -1.63615e-15 0)
(1 3.51655e-16 0)
(1 -2.43845e-15 0)
(1 -1.38607e-15 0)
(1 -3.72238e-15 0)
(1 -2.00758e-15 0)
(1 2.29299e-15 0)
(1 1.98007e-15 0)
(1 -1.66639e-16 0)
(1 1.35944e-15 0)
(1 2.18347e-15 0)
(1 3.33099e-15 0)
(1 3.84648e-15 0)
(1 -2.94976e-15 0)
(1 -1.26765e-15 0)
(1 -3.01898e-15 0)
(1 -4.4554e-16 0)
(1 -2.56817e-15 0)
(1 -2.64773e-16 0)
(1 2.96704e-15 0)
(1 1.86384e-15 0)
(1 2.73515e-15 0)
(1 2.50069e-15 0)
(1 -1.41961e-16 0)
(1 -5.05749e-15 0)
(1 2.58478e-16 0)
(1 -2.46806e-15 0)
(1 4.14627e-15 0)
(1 7.42403e-16 0)
(1 1.45824e-15 0)
(1 -3.56273e-15 0)
(1 1.08213e-16 0)
(1 -4.31846e-15 0)
(1 -2.42191e-15 0)
(1 -4.52222e-15 0)
(1 -1.00809e-15 0)
(1 -2.23796e-15 0)
(1 -1.33892e-15 0)
(1 3.85299e-15 0)
(1 -2.66829e-16 0)
(1 1.2852e-15 0)
(1 9.97461e-16 0)
(1 -1.33655e-15 0)
(1 -2.26667e-15 0)
(1 1.65263e-15 0)
(1 -1.62001e-15 0)
(1 1.3696e-15 0)
(1 5.1251e-15 0)
(1 -1.75031e-15 0)
(1 3.28935e-15 0)
(1 2.31038e-15 0)
(1 2.01327e-15 0)
(1 -4.55991e-15 0)
(1 -5.75262e-15 0)
(1 -2.36067e-15 0)
(1 3.89385e-16 0)
(1 2.19844e-15 0)
(1 1.23425e-15 0)
(1 -2.8544e-15 0)
(1 -1.86412e-15 0)
(1 2.44092e-15 0)
(1 -2.87043e-15 0)
(1 5.20261e-15 0)
(1 4.77253e-15 0)
(1 -3.9417e-16 0)
(1 -5.14355e-15 0)
(1 -1.2847e-15 0)
(1 -4.67565e-16 0)
(1 4.33335e-15 0)
(1 -7.24342e-15 0)
(1 1.03418e-15 0)
(1 4.46424e-15 0)
(1 4.36808e-15 0)
(1 4.23902e-15 0)
(1 7.25322e-15 0)
(1 6.05344e-15 0)
(1 -1.29288e-15 0)
(1 -1.43798e-14 0)
(1 -3.92658e-15 0)
(1 -7.67562e-15 0)
(1 3.41039e-15 0)
(1 -1.51772e-14 0)
(1 2.33877e-15 0)
(1 -6.90859e-15 0)
(1 7.19009e-15 0)
(1 -3.27536e-15 0)
(1 -5.99646e-15 0)
(1 2.28827e-15 0)
(1 2.81e-15 0)
(1 6.92278e-15 0)
(1 4.11165e-15 0)
(1 -2.46708e-15 0)
(1 2.22536e-15 0)
(1 6.91265e-15 0)
(1 1.50978e-15 0)
(1 5.12387e-15 0)
(1 2.66312e-15 0)
(1 3.84285e-15 0)
(1 -3.74383e-15 0)
(1 -5.84766e-15 0)
(1 -2.89301e-15 0)
(1 -2.94078e-15 0)
(1 -3.73232e-15 0)
(1 -3.61853e-15 0)
(1 -4.23803e-15 0)
(1 -1.44231e-15 0)
(1 -9.75072e-16 0)
(1 1.53499e-15 0)
(1 2.44328e-15 0)
(1 2.62077e-15 0)
(1 -2.25892e-15 0)
(1 1.82396e-15 0)
(1 1.17857e-15 0)
(1 2.86171e-15 0)
(1 -1.14649e-15 0)
(1 -3.02798e-15 0)
(1 -2.35201e-15 0)
(1 2.66334e-15 0)
(1 -1.99805e-15 0)
(1 1.13139e-15 0)
(1 -8.41722e-16 0)
(1 3.47398e-15 0)
(1 5.7847e-15 0)
(1 3.26791e-15 0)
(1 -4.46776e-16 0)
(1 -2.46036e-15 0)
(1 -3.83034e-15 0)
(1 -1.77198e-16 0)
(1 1.50014e-15 0)
(1 -1.33025e-15 0)
(1 -4.71074e-16 0)
(1 -1.4525e-16 0)
(1 1.32997e-15 0)
(1 -9.81398e-17 0)
(1 -7.45403e-16 0)
(1 3.3333e-15 0)
(1 1.94752e-15 0)
(1 8.21923e-17 0)
(1 8.03957e-15 0)
(1 1.77975e-15 0)
(1 -1.11841e-15 0)
(1 1.19353e-15 0)
(1 -3.818e-15 0)
(1 5.67467e-16 0)
(1 2.15246e-15 0)
(1 6.1512e-16 0)
(1 -2.07793e-15 0)
(1 2.31299e-16 0)
(1 -5.57575e-15 0)
(1 1.52741e-16 0)
(1 5.34208e-16 0)
(1 2.02724e-15 0)
(1 -6.17161e-15 0)
(1 -1.37556e-15 0)
(1 -3.12121e-15 0)
(1 1.46328e-15 0)
(1 2.97823e-15 0)
(1 5.91496e-15 0)
(1 -4.67728e-15 0)
(1 -3.44019e-15 0)
(1 5.01954e-15 0)
(1 -1.06809e-14 0)
(1 1.27443e-15 0)
(1 -5.5043e-16 0)
(1 -7.13346e-16 0)
(1 -1.21981e-15 0)
(1 4.4467e-16 0)
(1 -2.16217e-16 0)
(1 3.7645e-15 0)
(1 3.18964e-15 0)
(1 2.29281e-15 0)
(1 6.86068e-15 0)
(1 -5.96492e-16 0)
(1 1.26042e-14 0)
(1 2.68568e-15 0)
(1 -4.20818e-15 0)
(1 -1.16746e-15 0)
(1 -2.41906e-15 0)
(1 -6.38026e-15 0)
(1 1.10861e-15 0)
(1 4.62725e-15 0)
(1 4.90649e-15 0)
(1 -7.70932e-15 0)
(1 -5.4386e-15 0)
(1 -2.62257e-15 0)
(1 -1.66709e-15 0)
(1 1.23816e-15 0)
(1 5.33629e-15 0)
(1 6.91524e-15 0)
(1 8.26043e-15 0)
(1 1.91809e-15 0)
(1 2.70242e-15 0)
(1 5.95906e-15 0)
(1 7.77984e-15 0)
(1 7.93436e-15 0)
(1 3.71322e-15 0)
(1 2.25433e-15 0)
(1 -1.40071e-15 0)
(1 -6.01699e-15 0)
(1 -3.47597e-15 0)
(1 -3.10326e-15 0)
(1 -8.64514e-15 0)
(1 -1.09529e-14 0)
(1 -8.10372e-15 0)
(1 -5.44722e-15 0)
(1 3.25318e-15 0)
(1 2.84893e-15 0)
(1 1.47595e-15 0)
(1 6.39818e-17 0)
(1 1.87454e-15 0)
(1 5.92198e-16 0)
(1 4.11372e-15 0)
(1 2.13695e-15 0)
(1 4.26147e-15 0)
(1 -1.02702e-16 0)
(1 -7.35464e-16 0)
(1 -2.5383e-15 0)
(1 1.66719e-15 0)
(1 -4.01543e-15 0)
(1 -6.6523e-15 0)
(1 1.13074e-15 0)
(1 2.34836e-15 0)
(1 3.59423e-15 0)
(1 2.48687e-15 0)
(1 3.63337e-15 0)
(1 -1.62163e-15 0)
(1 -1.69517e-15 0)
(1 2.46832e-16 0)
(1 2.12034e-15 0)
(1 3.54657e-15 0)
(1 1.21117e-15 0)
(1 -3.12775e-15 0)
(1 -2.29219e-15 0)
(1 -2.33934e-15 0)
(1 -2.98383e-15 0)
(1 2.12452e-15 0)
(1 7.58011e-16 0)
(1 -1.25211e-15 0)
(1 1.3052e-15 0)
(1 7.33788e-16 0)
(1 1.01233e-15 0)
(1 -7.85089e-15 0)
(1 -3.31937e-15 0)
(1 -9.88502e-16 0)
(1 5.9646e-15 0)
(1 2.79834e-15 0)
(1 -1.26037e-15 0)
(1 8.16908e-16 0)
(1 -3.17455e-15 0)
(1 -3.03454e-16 0)
(1 -2.99661e-15 0)
(1 9.98949e-16 0)
(1 -4.63672e-15 0)
(1 -1.55525e-15 0)
(1 -3.78984e-16 0)
(1 -9.43718e-16 0)
(1 -2.29412e-15 0)
(1 2.50222e-15 0)
(1 -2.7446e-16 0)
(1 -1.02091e-15 0)
(1 5.01356e-15 0)
(1 -1.01684e-14 0)
(1 -3.22839e-15 0)
(1 -1.34701e-15 0)
(1 3.78629e-15 0)
(1 -1.81369e-15 0)
(1 1.51012e-15 0)
(1 4.49743e-15 0)
(1 -5.58972e-16 0)
(1 3.69072e-16 0)
(1 8.7246e-15 0)
(1 4.79356e-15 0)
(1 7.35116e-15 0)
(1 1.05102e-14 0)
(1 2.4261e-15 0)
(1 -5.50181e-15 0)
(1 -1.35345e-15 0)
(1 -2.73569e-15 0)
(1 -9.02931e-15 0)
(1 -4.64622e-15 0)
(1 5.92126e-15 0)
(1 6.87152e-15 0)
(1 -2.03461e-15 0)
(1 6.77442e-15 0)
(1 1.32088e-15 0)
(1 -7.35197e-16 0)
(1 4.61631e-15 0)
(1 4.08569e-15 0)
(1 8.55826e-15 0)
(1 9.03469e-15 0)
(1 2.6845e-15 0)
(1 -1.18499e-15 0)
(1 -1.43701e-15 0)
(1 1.28031e-15 0)
(1 5.62135e-15 0)
(1 2.8357e-15 0)
(1 5.39925e-15 0)
(1 -5.05825e-15 0)
(1 -7.37741e-16 0)
(1 4.30742e-15 0)
(1 1.43681e-15 0)
(1 -4.34067e-15 0)
(1 -8.19097e-15 0)
(1 -6.17463e-15 0)
(1 -8.87436e-15 0)
(1 1.60234e-15 0)
(1 1.00581e-14 0)
(1 5.14603e-15 0)
(1 2.20135e-15 0)
(1 3.48654e-15 0)
(1 4.4154e-15 0)
(1 3.22832e-15 0)
(1 -8.43717e-16 0)
(1 -4.83373e-15 0)
(1 -4.34818e-15 0)
(1 1.47977e-15 0)
(1 -2.93954e-15 0)
(1 -7.83011e-15 0)
(1 -5.2205e-15 0)
(1 -4.90364e-15 0)
(1 2.0422e-15 0)
(1 5.13209e-15 0)
(1 5.0916e-15 0)
(1 5.04177e-15 0)
(1 1.68429e-15 0)
(1 -2.02893e-15 0)
(1 -2.62467e-15 0)
(1 -7.66595e-16 0)
(1 -7.67157e-16 0)
(1 1.78693e-15 0)
(1 -2.76497e-15 0)
(1 -1.69531e-15 0)
(1 -4.44886e-15 0)
(1 -4.94378e-15 0)
(1 -1.99135e-15 0)
(1 -7.98684e-16 0)
(1 4.3083e-16 0)
(1 1.21534e-15 0)
(1 8.66175e-16 0)
(1 2.90545e-15 0)
(1 3.66958e-15 0)
(1 -4.28794e-15 0)
(1 -2.15408e-15 0)
(1 -4.93482e-15 0)
(1 1.66332e-16 0)
(1 5.71722e-15 0)
(1 6.20715e-15 0)
(1 8.09187e-15 0)
(1 5.26505e-15 0)
(1 2.6032e-15 0)
(1 1.92717e-16 0)
(1 -2.0302e-15 0)
(1 -1.50125e-15 0)
(1 -4.13723e-16 0)
(1 -3.74761e-15 0)
(1 -5.28382e-15 0)
(1 -4.04422e-15 0)
(1 -9.07634e-15 0)
(1 -4.19466e-15 0)
(1 -7.36662e-16 0)
(1 3.35584e-15 0)
(1 -1.71008e-15 0)
(1 -2.78619e-15 0)
(1 2.36085e-15 0)
(1 3.31839e-15 0)
(1 -2.22712e-15 0)
(1 -4.75814e-15 0)
(1 8.75333e-16 0)
(1 -4.49845e-15 0)
(1 -2.90425e-15 0)
(1 3.84477e-15 0)
(1 -1.19292e-16 0)
(1 1.26477e-14 0)
(1 2.83935e-18 0)
(1 1.06834e-14 0)
(1 4.94062e-15 0)
(1 2.36776e-15 0)
(1 -9.49308e-15 0)
(1 -7.40999e-15 0)
(1 -1.05737e-14 0)
(1 -7.27063e-15 0)
(1 -4.73297e-15 0)
(1 1.30575e-14 0)
(1 1.10486e-14 0)
(1 1.57048e-14 0)
(1 2.78376e-15 0)
(1 5.99174e-15 0)
(1 7.11748e-15 0)
(1 4.00865e-15 0)
(1 6.42538e-15 0)
(1 3.57905e-15 0)
(1 -2.89963e-15 0)
(1 8.85607e-16 0)
(1 2.18397e-15 0)
(1 1.44141e-15 0)
(1 -3.25566e-16 0)
(1 2.38281e-16 0)
(1 -3.32302e-15 0)
(1 -5.43408e-15 0)
(1 -4.80058e-15 0)
(1 -4.75373e-15 0)
(1 -5.77625e-15 0)
(1 -4.13154e-15 0)
(1 -4.72379e-15 0)
(1 -5.18858e-15 0)
(1 -3.30767e-15 0)
(1 2.8595e-15 0)
(1 6.07892e-15 0)
(1 8.94714e-15 0)
(1 1.07512e-14 0)
(1 4.3091e-15 0)
(1 -1.61962e-15 0)
(1 -5.4158e-15 0)
(1 -2.32478e-15 0)
(1 -3.49893e-16 0)
(1 2.72956e-15 0)
(1 -5.61006e-16 0)
(1 -1.86777e-15 0)
(1 4.30122e-15 0)
(1 2.438e-15 0)
(1 -3.38399e-15 0)
(1 -5.37035e-16 0)
(1 3.80292e-15 0)
(1 4.0652e-15 0)
(1 2.90856e-15 0)
(1 -4.25254e-15 0)
(1 2.44613e-15 0)
(1 -2.48026e-15 0)
(1 1.04949e-15 0)
(1 -3.84108e-16 0)
(1 4.37004e-15 0)
(1 -2.02603e-16 0)
(1 1.48575e-15 0)
(1 -5.31534e-15 0)
(1 -5.67262e-16 0)
(1 -1.65641e-15 0)
(1 3.02166e-15 0)
(1 4.0603e-15 0)
(1 2.01838e-15 0)
(1 8.66146e-15 0)
(1 2.06472e-15 0)
(1 1.30522e-15 0)
(1 -2.80032e-15 0)
(1 5.59307e-15 0)
(1 -1.2013e-15 0)
(1 3.68564e-15 0)
(1 5.03293e-15 0)
(1 1.98706e-16 0)
(1 5.93463e-15 0)
(1 -3.07195e-15 0)
(1 3.85422e-15 0)
(1 -5.88487e-15 0)
(1 -1.7418e-15 0)
(1 4.13977e-15 0)
(1 -7.73925e-15 0)
(1 -6.30224e-15 0)
(1 -1.45621e-15 0)
(1 -7.1588e-15 0)
(1 -4.71307e-15 0)
(1 1.10545e-15 0)
(1 -3.33569e-15 0)
(1 4.88517e-15 0)
(1 1.34569e-16 0)
(1 4.34054e-15 0)
(1 1.04739e-16 0)
(1 -8.76245e-17 0)
(1 -8.49526e-15 0)
(1 -9.78791e-15 0)
(1 -6.15134e-15 0)
(1 6.31084e-16 0)
(1 7.24237e-16 0)
(1 3.61684e-15 0)
(1 9.77648e-15 0)
(1 3.45888e-15 0)
(1 4.58517e-16 0)
(1 6.34386e-15 0)
(1 7.02622e-15 0)
(1 -2.39912e-15 0)
(1 1.2119e-15 0)
(1 -1.47127e-15 0)
(1 -7.65419e-16 0)
(1 1.15107e-14 0)
(1 9.92441e-15 0)
(1 -1.06021e-15 0)
(1 -4.40714e-15 0)
(1 -7.27636e-15 0)
(1 -3.11959e-15 0)
(1 6.76767e-15 0)
(1 3.84984e-15 0)
(1 1.1836e-14 0)
(1 7.38333e-15 0)
(1 9.10425e-15 0)
(1 4.344e-15 0)
(1 6.60725e-15 0)
(1 2.91752e-15 0)
(1 7.95916e-15 0)
(1 5.10243e-15 0)
(1 -2.00967e-15 0)
(1 -1.60793e-14 0)
(1 -1.19359e-14 0)
(1 -3.23112e-15 0)
(1 -4.61441e-15 0)
(1 3.16233e-15 0)
(1 1.23756e-15 0)
(1 4.19103e-15 0)
(1 -8.68564e-16 0)
(1 7.00941e-16 0)
(1 -4.72018e-15 0)
(1 9.22833e-16 0)
(1 5.98701e-16 0)
(1 5.44816e-15 0)
(1 3.11641e-15 0)
(1 -4.45187e-16 0)
(1 -1.87669e-15 0)
(1 8.64125e-16 0)
(1 -2.48544e-16 0)
(1 -2.68135e-16 0)
(1 8.83989e-16 0)
(1 6.51407e-15 0)
(1 5.18206e-15 0)
(1 3.3233e-15 0)
(1 -3.21499e-16 0)
(1 -2.92006e-16 0)
(1 -4.70055e-15 0)
(1 7.34045e-16 0)
(1 5.18291e-15 0)
(1 8.15379e-15 0)
(1 8.18912e-15 0)
(1 9.81471e-15 0)
(1 1.7646e-14 0)
(1 9.45718e-15 0)
(1 1.13818e-15 0)
(1 -3.1313e-15 0)
(1 -3.40786e-15 0)
(1 -8.56504e-15 0)
(1 -8.6804e-15 0)
(1 -7.6638e-15 0)
(1 -2.97811e-15 0)
(1 4.53201e-15 0)
(1 1.61698e-14 0)
(1 6.82382e-15 0)
(1 2.60649e-15 0)
(1 4.17856e-17 0)
(1 3.60299e-15 0)
(1 -2.46249e-15 0)
(1 -1.9545e-15 0)
(1 1.58402e-15 0)
(1 4.27927e-15 0)
(1 3.14226e-15 0)
(1 -1.66393e-15 0)
(1 -1.96827e-15 0)
(1 -9.87736e-16 0)
(1 -3.52541e-15 0)
(1 -3.74534e-15 0)
(1 9.3264e-16 0)
(1 -3.24042e-15 0)
(1 3.509e-15 0)
(1 2.61362e-15 0)
(1 2.31704e-15 0)
(1 3.91558e-15 0)
(1 -4.25349e-15 0)
(1 4.38124e-17 0)
(1 -5.01207e-16 0)
(1 4.41365e-15 0)
(1 5.82504e-15 0)
(1 7.55285e-16 0)
(1 -2.44664e-15 0)
(1 -1.62204e-14 0)
(1 9.94178e-16 0)
(1 -4.17018e-15 0)
(1 -9.94038e-16 0)
(1 4.63641e-15 0)
(1 5.72302e-15 0)
(1 6.53857e-15 0)
(1 -7.89949e-17 0)
(1 2.93684e-15 0)
(1 7.9373e-15 0)
(1 5.37876e-15 0)
(1 4.27712e-15 0)
(1 8.78638e-15 0)
(1 2.78053e-15 0)
(1 9.98646e-15 0)
(1 -4.48695e-15 0)
(1 -2.77111e-15 0)
(1 -1.05707e-14 0)
(1 -7.04174e-15 0)
(1 1.33307e-15 0)
(1 7.61434e-15 0)
(1 7.20014e-15 0)
(1 2.72062e-15 0)
(1 8.4644e-15 0)
(1 5.13211e-15 0)
(1 6.5837e-15 0)
(1 -9.45435e-16 0)
(1 -1.00454e-15 0)
(1 1.43142e-16 0)
(1 6.68985e-15 0)
(1 -2.48025e-16 0)
(1 -1.53291e-15 0)
(1 -3.79049e-15 0)
(1 2.10779e-15 0)
(1 3.72274e-16 0)
(1 2.6558e-15 0)
(1 4.12288e-15 0)
(1 5.88893e-15 0)
(1 1.90322e-16 0)
(1 -7.27332e-15 0)
(1 -6.34458e-15 0)
(1 1.22094e-14 0)
(1 8.35718e-15 0)
(1 5.30363e-15 0)
(1 -2.14962e-15 0)
(1 -3.52162e-15 0)
(1 -6.30346e-16 0)
(1 -4.4575e-15 0)
(1 1.03465e-15 0)
(1 2.78497e-15 0)
(1 -1.14997e-15 0)
(1 -2.57341e-15 0)
(1 2.81757e-17 0)
(1 3.32301e-15 0)
(1 5.36797e-15 0)
(1 4.63156e-15 0)
(1 1.59236e-15 0)
(1 8.073e-16 0)
(1 1.96224e-15 0)
(1 3.87228e-15 0)
(1 3.73382e-15 0)
(1 5.07057e-15 0)
(1 3.63498e-15 0)
(1 -2.72052e-15 0)
(1 -1.95791e-15 0)
(1 -7.0708e-16 0)
(1 6.0747e-15 0)
(1 4.64303e-15 0)
(1 -5.85487e-16 0)
(1 -7.79874e-16 0)
(1 1.73251e-15 0)
(1 4.89736e-15 0)
(1 7.71323e-15 0)
(1 5.70781e-15 0)
(1 5.35034e-15 0)
(1 2.04064e-17 0)
(1 1.32502e-15 0)
(1 3.92415e-15 0)
(1 3.66405e-15 0)
(1 6.25493e-15 0)
(1 9.56834e-15 0)
(1 3.61413e-15 0)
(1 2.72923e-15 0)
(1 -6.01058e-16 0)
(1 1.18928e-15 0)
(1 6.13837e-16 0)
(1 1.76467e-15 0)
(1 4.8647e-15 0)
(1 1.47626e-15 0)
(1 3.73494e-15 0)
(1 5.58649e-15 0)
(1 4.48758e-15 0)
(1 5.31413e-15 0)
(1 -1.38277e-15 0)
(1 -8.43451e-16 0)
(1 -5.21163e-15 0)
(1 4.64736e-15 0)
(1 5.47195e-15 0)
(1 -4.75947e-16 0)
(1 3.08904e-15 0)
(1 -8.40286e-15 0)
(1 -1.84526e-15 0)
(1 -6.42048e-15 0)
(1 -1.07985e-14 0)
(1 1.38668e-15 0)
(1 1.86782e-15 0)
(1 9.88762e-15 0)
(1 1.13302e-14 0)
(1 5.89174e-15 0)
(1 1.05838e-15 0)
(1 6.94077e-15 0)
(1 3.1521e-15 0)
(1 1.71228e-14 0)
(1 -5.67889e-15 0)
(1 -1.46473e-15 0)
(1 -1.55314e-14 0)
(1 -7.94624e-15 0)
(1 -6.39468e-15 0)
(1 8.15235e-15 0)
(1 1.17908e-14 0)
(1 8.1298e-15 0)
(1 4.66184e-15 0)
(1 -9.01047e-15 0)
(1 -2.44348e-15 0)
(1 1.75226e-15 0)
(1 5.65267e-15 0)
(1 4.52443e-15 0)
(1 2.24241e-15 0)
(1 -3.20366e-15 0)
(1 1.70785e-15 0)
(1 6.42853e-15 0)
(1 1.71926e-15 0)
(1 -6.37392e-15 0)
(1 -9.1527e-15 0)
(1 3.55023e-16 0)
(1 -6.06385e-15 0)
(1 7.18119e-15 0)
(1 8.85281e-15 0)
(1 2.50919e-15 0)
(1 -3.72957e-15 0)
(1 -3.30392e-16 0)
(1 8.20384e-15 0)
(1 6.08023e-15 0)
(1 3.51938e-15 0)
(1 -2.94781e-15 0)
(1 7.701e-15 0)
(1 8.00321e-15 0)
(1 4.61675e-15 0)
(1 -3.46444e-15 0)
(1 2.01637e-15 0)
(1 -5.28051e-15 0)
(1 -1.69191e-15 0)
(1 -2.73431e-15 0)
(1 2.10893e-15 0)
(1 5.3837e-15 0)
(1 6.3014e-15 0)
(1 4.53132e-15 0)
(1 2.51757e-15 0)
(1 2.73065e-15 0)
(1 7.70214e-15 0)
(1 5.89872e-15 0)
(1 5.32348e-15 0)
(1 -2.95333e-15 0)
(1 3.86157e-15 0)
(1 8.81182e-15 0)
(1 4.35149e-15 0)
(1 4.39066e-15 0)
(1 4.07849e-15 0)
(1 1.52318e-15 0)
(1 5.00745e-15 0)
(1 6.17306e-15 0)
(1 -2.1985e-15 0)
(1 -6.93314e-16 0)
(1 2.49751e-15 0)
(1 1.53878e-15 0)
(1 -1.27454e-15 0)
(1 -1.67169e-15 0)
(1 8.44101e-15 0)
(1 8.44356e-15 0)
(1 3.42573e-15 0)
(1 1.1574e-15 0)
(1 -1.24639e-16 0)
(1 -6.44121e-16 0)
(1 3.13624e-15 0)
(1 -1.36266e-16 0)
(1 4.12748e-15 0)
(1 5.6329e-15 0)
(1 3.51025e-15 0)
(1 2.70872e-15 0)
(1 -3.12631e-16 0)
(1 4.92862e-15 0)
(1 4.98567e-15 0)
(1 1.1749e-14 0)
(1 1.63847e-15 0)
(1 -2.74579e-15 0)
(1 4.98981e-15 0)
(1 -4.57114e-15 0)
(1 7.26059e-16 0)
(1 -4.70527e-15 0)
(1 -4.18311e-15 0)
(1 5.83619e-15 0)
(1 -1.23066e-14 0)
(1 -6.74515e-15 0)
(1 -1.6433e-15 0)
(1 8.0255e-15 0)
(1 6.80468e-15 0)
(1 4.57242e-15 0)
(1 5.59688e-15 0)
(1 1.01102e-14 0)
(1 -3.17698e-16 0)
(1 1.14864e-14 0)
(1 -2.59183e-15 0)
(1 4.28779e-15 0)
(1 3.51205e-15 0)
(1 -3.02219e-15 0)
(1 -8.02145e-15 0)
(1 -1.7527e-15 0)
(1 1.75652e-15 0)
(1 1.13035e-14 0)
(1 4.09395e-15 0)
(1 2.98451e-15 0)
(1 -4.99787e-15 0)
(1 -8.72805e-15 0)
(1 -1.49928e-14 0)
(1 -3.92787e-15 0)
(1 -2.79982e-15 0)
(1 3.67429e-15 0)
(1 7.67613e-15 0)
(1 5.93252e-15 0)
(1 -1.39253e-15 0)
(1 2.84506e-15 0)
(1 3.43937e-15 0)
(1 3.08588e-15 0)
(1 -4.04859e-15 0)
(1 4.79642e-15 0)
(1 2.56218e-15 0)
(1 9.76968e-15 0)
(1 5.88959e-15 0)
(1 9.79137e-15 0)
(1 8.91011e-15 0)
(1 1.3134e-15 0)
(1 -8.85165e-15 0)
(1 -3.51535e-15 0)
(1 1.12267e-15 0)
(1 3.85644e-15 0)
(1 9.97628e-15 0)
(1 5.67202e-15 0)
(1 2.77183e-15 0)
(1 -4.12347e-15 0)
(1 -4.33167e-15 0)
(1 3.73976e-15 0)
(1 -3.65364e-15 0)
(1 6.29501e-15 0)
(1 -2.07578e-15 0)
(1 8.30276e-15 0)
(1 -2.78731e-15 0)
(1 -8.19213e-15 0)
(1 3.78765e-16 0)
(1 1.35573e-14 0)
(1 1.59288e-14 0)
(1 1.4739e-14 0)
(1 1.52596e-14 0)
(1 1.36802e-14 0)
(1 9.86035e-15 0)
(1 1.3136e-14 0)
(1 5.93788e-15 0)
(1 6.32489e-16 0)
(1 -6.77988e-15 0)
(1 -4.21593e-15 0)
(1 2.88894e-16 0)
(1 2.11016e-15 0)
(1 -1.65891e-15 0)
(1 7.66249e-15 0)
(1 4.80716e-15 0)
(1 4.80921e-15 0)
(1 6.15194e-15 0)
(1 2.30325e-15 0)
(1 -1.93407e-15 0)
(1 -1.76256e-15 0)
(1 -4.95162e-15 0)
(1 9.29724e-16 0)
(1 5.24696e-15 0)
(1 3.29394e-15 0)
(1 3.49977e-15 0)
(1 4.83869e-15 0)
(1 8.60476e-15 0)
(1 7.83778e-15 0)
(1 1.07004e-14 0)
(1 6.1332e-15 0)
(1 1.1138e-14 0)
(1 1.1389e-14 0)
(1 1.54603e-14 0)
(1 2.15634e-14 0)
(1 9.80346e-16 0)
(1 3.07489e-15 0)
(1 6.46063e-15 0)
(1 8.99755e-17 0)
(1 -3.41796e-15 0)
(1 1.55351e-15 0)
(1 -8.33568e-16 0)
(1 1.59e-15 0)
(1 -6.10876e-15 0)
(1 -7.6108e-15 0)
(1 4.34194e-15 0)
(1 1.98976e-15 0)
(1 7.11719e-15 0)
(1 3.81386e-15 0)
(1 4.83273e-15 0)
(1 3.0459e-15 0)
(1 1.44885e-15 0)
(1 5.7601e-15 0)
(1 -7.8765e-16 0)
(1 -1.13237e-14 0)
(1 4.76638e-16 0)
(1 -1.32229e-14 0)
(1 9.30863e-16 0)
(1 2.62678e-15 0)
(1 6.31623e-15 0)
(1 1.16721e-14 0)
(1 6.20965e-15 0)
(1 2.5891e-16 0)
(1 2.19504e-15 0)
(1 -3.09438e-15 0)
(1 -9.02208e-15 0)
(1 -7.22014e-15 0)
(1 -5.83077e-15 0)
(1 -3.33681e-15 0)
(1 -2.26001e-15 0)
(1 2.30342e-15 0)
(1 2.73113e-16 0)
(1 2.12823e-15 0)
(1 5.77328e-15 0)
(1 7.92535e-15 0)
(1 3.42037e-15 0)
(1 3.0248e-15 0)
(1 7.74075e-15 0)
(1 1.97221e-15 0)
(1 -2.59561e-15 0)
(1 4.92805e-15 0)
(1 -1.56958e-15 0)
(1 1.12956e-15 0)
(1 -4.18771e-15 0)
(1 6.35857e-15 0)
(1 5.55401e-15 0)
(1 9.2594e-15 0)
(1 5.44626e-15 0)
(1 4.54983e-15 0)
(1 2.14074e-15 0)
(1 6.29328e-15 0)
(1 1.33381e-15 0)
(1 8.51601e-15 0)
(1 -3.9002e-15 0)
(1 3.20517e-15 0)
(1 4.21227e-15 0)
(1 4.84758e-15 0)
(1 8.44211e-15 0)
(1 4.45837e-15 0)
(1 5.30177e-15 0)
(1 1.01496e-14 0)
(1 9.06156e-15 0)
(1 1.10043e-14 0)
(1 1.18473e-14 0)
(1 7.58267e-15 0)
(1 2.53073e-15 0)
(1 3.95994e-15 0)
(1 2.3111e-15 0)
(1 3.84941e-15 0)
(1 -7.68996e-17 0)
(1 4.22656e-15 0)
(1 5.16837e-15 0)
(1 7.05735e-15 0)
(1 7.41572e-15 0)
(1 5.06639e-15 0)
(1 9.47636e-16 0)
(1 2.49717e-16 0)
(1 2.32269e-15 0)
(1 -1.15969e-15 0)
(1 2.13289e-15 0)
(1 7.49532e-16 0)
(1 4.73424e-15 0)
(1 1.08363e-15 0)
(1 8.07617e-15 0)
(1 4.15617e-15 0)
(1 3.72375e-15 0)
(1 2.38776e-15 0)
(1 7.90905e-15 0)
(1 9.47212e-15 0)
(1 9.84985e-15 0)
(1 4.94588e-15 0)
(1 1.20965e-14 0)
(1 9.64798e-15 0)
(1 2.5336e-14 0)
(1 2.25619e-14 0)
(1 3.64702e-16 0)
(1 -8.24841e-17 0)
(1 7.55742e-16 0)
(1 4.21587e-15 0)
(1 -3.21354e-15 0)
(1 1.31092e-15 0)
(1 -1.04345e-15 0)
(1 -8.71445e-15 0)
(1 2.32478e-15 0)
(1 -7.38724e-15 0)
(1 -2.04664e-15 0)
(1 -1.24116e-14 0)
(1 6.21951e-15 0)
(1 6.52228e-15 0)
(1 8.22779e-15 0)
(1 6.32173e-15 0)
(1 3.89404e-15 0)
(1 2.06495e-16 0)
(1 5.20413e-15 0)
(1 -5.98587e-15 0)
(1 -1.59018e-15 0)
(1 -7.48395e-15 0)
(1 -4.63704e-15 0)
(1 -6.07668e-15 0)
(1 -4.19567e-15 0)
(1 2.71693e-15 0)
(1 8.49019e-15 0)
(1 5.65499e-15 0)
(1 6.98018e-15 0)
(1 -1.14765e-15 0)
(1 -5.20871e-15 0)
(1 -3.84735e-15 0)
(1 -5.63538e-15 0)
(1 -5.1389e-15 0)
(1 5.37235e-16 0)
(1 4.97688e-15 0)
(1 5.9686e-15 0)
(1 3.60655e-15 0)
(1 5.66248e-15 0)
(1 7.28076e-16 0)
(1 9.92581e-15 0)
(1 -2.23942e-16 0)
(1 1.20823e-14 0)
(1 -2.40247e-15 0)
(1 -1.2652e-15 0)
(1 -3.78231e-15 0)
(1 2.16501e-15 0)
(1 2.8628e-15 0)
(1 -2.81813e-16 0)
(1 2.86235e-15 0)
(1 6.59929e-15 0)
(1 5.15833e-15 0)
(1 6.15813e-15 0)
(1 4.0326e-15 0)
(1 7.20782e-15 0)
(1 2.12798e-15 0)
(1 3.26571e-15 0)
(1 -3.35828e-15 0)
(1 6.6535e-15 0)
(1 -3.13882e-15 0)
(1 1.15997e-14 0)
(1 -4.40267e-15 0)
(1 8.81021e-15 0)
(1 5.37644e-15 0)
(1 1.00244e-14 0)
(1 2.42511e-15 0)
(1 9.3683e-15 0)
(1 7.21597e-15 0)
(1 1.01085e-14 0)
(1 7.77933e-15 0)
(1 7.02189e-15 0)
(1 4.84875e-15 0)
(1 5.12033e-15 0)
(1 -4.66078e-15 0)
(1 -3.80426e-15 0)
(1 4.00499e-15 0)
(1 1.1802e-14 0)
(1 1.32996e-14 0)
(1 1.28827e-14 0)
(1 8.06336e-16 0)
(1 2.96398e-15 0)
(1 3.83373e-15 0)
(1 1.0778e-15 0)
(1 -3.66539e-15 0)
(1 1.29109e-15 0)
(1 -5.85035e-16 0)
(1 6.89946e-15 0)
(1 2.56388e-15 0)
(1 7.18035e-15 0)
(1 7.39642e-15 0)
(1 3.95572e-15 0)
(1 1.71287e-15 0)
(1 2.79529e-15 0)
(1 1.72082e-15 0)
(1 7.4645e-15 0)
(1 8.66614e-15 0)
(1 1.01794e-14 0)
(1 1.00851e-14 0)
(1 1.39947e-14 0)
(1 1.24267e-14 0)
(1 4.08051e-15 0)
(1 -4.65062e-15 0)
(1 2.43797e-15 0)
(1 -1.09418e-15 0)
(1 2.85478e-15 0)
(1 -7.08981e-16 0)
(1 -7.2534e-15 0)
(1 -9.08288e-15 0)
(1 -2.47401e-15 0)
(1 4.98638e-15 0)
(1 6.04245e-15 0)
(1 6.62801e-15 0)
(1 8.65841e-16 0)
(1 -1.61371e-15 0)
(1 1.68253e-15 0)
(1 5.14013e-15 0)
(1 8.6813e-15 0)
(1 -2.1171e-15 0)
(1 -4.6562e-15 0)
(1 -8.98814e-15 0)
(1 -1.08979e-14 0)
(1 -5.34699e-15 0)
(1 7.64704e-16 0)
(1 7.71547e-15 0)
(1 9.38429e-15 0)
(1 5.11394e-15 0)
(1 6.69905e-15 0)
(1 4.61208e-15 0)
(1 4.70584e-15 0)
(1 2.51116e-15 0)
(1 -2.24927e-15 0)
(1 -6.7027e-15 0)
(1 -3.96428e-15 0)
(1 -6.20593e-15 0)
(1 1.2817e-15 0)
(1 -2.62388e-15 0)
(1 -1.66924e-15 0)
(1 -4.38454e-15 0)
(1 5.78216e-15 0)
(1 8.12604e-16 0)
(1 7.53906e-15 0)
(1 -2.75721e-15 0)
(1 -1.31223e-16 0)
(1 -7.92806e-15 0)
(1 3.50989e-15 0)
(1 3.81027e-15 0)
(1 1.62108e-14 0)
(1 1.10187e-14 0)
(1 7.87663e-15 0)
(1 2.95694e-15 0)
(1 2.76954e-15 0)
(1 1.14241e-15 0)
(1 -8.91067e-16 0)
(1 6.65075e-15 0)
(1 8.80052e-15 0)
(1 3.78646e-15 0)
(1 1.32598e-15 0)
(1 1.50331e-15 0)
(1 4.96639e-15 0)
(1 1.95077e-15 0)
(1 1.42544e-15 0)
(1 4.25909e-15 0)
(1 7.0375e-15 0)
(1 4.85596e-15 0)
(1 5.26271e-15 0)
(1 -2.13343e-16 0)
(1 3.9679e-15 0)
(1 7.3491e-15 0)
(1 9.96498e-16 0)
(1 5.96331e-15 0)
(1 2.84165e-15 0)
(1 4.6097e-15 0)
(1 1.16769e-14 0)
(1 1.21493e-15 0)
(1 2.32438e-15 0)
(1 2.54208e-15 0)
(1 6.03552e-15 0)
(1 2.13056e-15 0)
(1 9.49831e-15 0)
(1 8.12798e-15 0)
(1 7.16733e-15 0)
(1 1.17176e-14 0)
(1 6.8138e-15 0)
(1 4.60131e-15 0)
(1 7.94752e-16 0)
(1 -7.38321e-15 0)
(1 4.23915e-16 0)
(1 3.58202e-15 0)
(1 4.98039e-15 0)
(1 9.1148e-15 0)
(1 3.17348e-15 0)
(1 7.34462e-15 0)
(1 2.15159e-15 0)
(1 7.2136e-15 0)
(1 4.10697e-15 0)
(1 1.15184e-14 0)
(1 1.03659e-14 0)
(1 1.58609e-14 0)
(1 3.07944e-15 0)
(1 4.12716e-15 0)
(1 4.4453e-15 0)
(1 3.73369e-15 0)
(1 -4.7184e-15 0)
(1 -1.94052e-15 0)
(1 4.06834e-16 0)
(1 2.4761e-15 0)
(1 9.68645e-16 0)
(1 1.67662e-15 0)
(1 -3.23074e-15 0)
(1 1.18432e-14 0)
(1 4.34191e-15 0)
(1 1.26172e-14 0)
(1 -1.10332e-15 0)
(1 -6.14119e-15 0)
(1 -6.43145e-15 0)
(1 -4.65183e-15 0)
(1 1.5204e-15 0)
(1 3.4089e-15 0)
(1 3.47307e-15 0)
(1 -4.06045e-15 0)
(1 -3.50909e-15 0)
(1 -3.45734e-15 0)
(1 -6.70893e-15 0)
(1 -9.53153e-15 0)
(1 -4.48534e-15 0)
(1 3.10362e-15 0)
(1 7.51487e-15 0)
(1 -1.26654e-15 0)
(1 -3.0682e-15 0)
(1 -5.18968e-15 0)
(1 -1.73361e-16 0)
(1 -5.68076e-15 0)
(1 -3.71617e-15 0)
(1 6.61133e-15 0)
(1 3.85363e-16 0)
(1 3.21781e-15 0)
(1 3.79963e-15 0)
(1 8.3694e-15 0)
(1 5.09393e-15 0)
(1 3.33389e-16 0)
(1 -1.00662e-14 0)
(1 -4.85474e-15 0)
(1 -9.65982e-15 0)
(1 -6.34664e-16 0)
(1 6.20087e-15 0)
(1 6.14322e-15 0)
(1 5.22991e-15 0)
(1 1.02544e-14 0)
(1 1.57415e-14 0)
(1 3.65485e-15 0)
(1 -2.47414e-15 0)
(1 8.28597e-16 0)
(1 1.08417e-16 0)
(1 4.21259e-15 0)
(1 4.34115e-15 0)
(1 4.65314e-15 0)
(1 2.14124e-15 0)
(1 3.67715e-15 0)
(1 -3.19008e-15 0)
(1 -2.15033e-15 0)
(1 -3.60054e-15 0)
(1 8.64092e-15 0)
(1 1.42099e-14 0)
(1 1.83452e-14 0)
(1 1.0315e-14 0)
(1 6.37419e-15 0)
(1 -1.14282e-15 0)
(1 5.15985e-16 0)
(1 -3.60233e-15 0)
(1 -7.78705e-17 0)
(1 3.33479e-15 0)
(1 6.52649e-15 0)
(1 4.71988e-15 0)
(1 9.32743e-15 0)
(1 1.10501e-14 0)
(1 3.93068e-15 0)
(1 -6.66924e-15 0)
(1 -2.81264e-16 0)
(1 4.91738e-15 0)
(1 7.83957e-15 0)
(1 5.20243e-15 0)
(1 7.51621e-15 0)
(1 4.69673e-15 0)
(1 1.65975e-15 0)
(1 3.4643e-15 0)
(1 6.88502e-15 0)
(1 3.11506e-15 0)
(1 3.22809e-15 0)
(1 2.16562e-15 0)
(1 2.62945e-15 0)
(1 2.44423e-15 0)
(1 3.4373e-15 0)
(1 -8.24533e-16 0)
(1 3.58069e-15 0)
(1 -8.2889e-17 0)
(1 8.38051e-15 0)
(1 1.09749e-14 0)
(1 9.88754e-15 0)
(1 7.29881e-15 0)
(1 7.24739e-15 0)
(1 -3.01455e-15 0)
(1 7.98699e-15 0)
(1 -1.61152e-15 0)
(1 -3.22759e-15 0)
(1 -1.97377e-15 0)
(1 1.73326e-16 0)
(1 7.90019e-16 0)
(1 7.85009e-15 0)
(1 1.21275e-14 0)
(1 9.50453e-15 0)
(1 -3.85138e-15 0)
(1 -6.4415e-16 0)
(1 4.22994e-16 0)
(1 1.85693e-16 0)
(1 -1.93407e-15 0)
(1 -3.92801e-15 0)
(1 -2.9375e-15 0)
(1 -9.55589e-16 0)
(1 3.08676e-15 0)
(1 -6.14129e-15 0)
(1 -6.35897e-15 0)
(1 -6.24393e-15 0)
(1 -5.9846e-15 0)
(1 -5.73603e-15 0)
(1 1.84527e-15 0)
(1 1.37252e-16 0)
(1 -2.0365e-15 0)
(1 1.42475e-15 0)
(1 -3.19043e-15 0)
(1 -6.72351e-15 0)
(1 -4.20132e-15 0)
(1 -4.35823e-15 0)
(1 -2.57446e-15 0)
(1 1.09662e-15 0)
(1 9.00258e-15 0)
(1 1.28526e-14 0)
(1 9.64902e-15 0)
(1 8.27936e-15 0)
(1 -1.69319e-15 0)
(1 3.77777e-15 0)
(1 -8.19132e-15 0)
(1 -5.30388e-15 0)
(1 -5.88016e-15 0)
(1 6.82868e-15 0)
(1 8.11452e-15 0)
(1 2.27411e-15 0)
(1 1.32658e-15 0)
(1 2.6784e-15 0)
(1 1.09482e-14 0)
(1 6.55945e-15 0)
(1 -1.365e-15 0)
(1 -7.17709e-15 0)
(1 -1.46469e-15 0)
(1 -4.86179e-15 0)
(1 5.90124e-15 0)
(1 5.80548e-15 0)
(1 7.40713e-15 0)
(1 6.76344e-15 0)
(1 9.1589e-15 0)
(1 4.33701e-15 0)
(1 1.03658e-15 0)
(1 1.54192e-15 0)
(1 4.32364e-15 0)
(1 5.28843e-15 0)
(1 1.06555e-14 0)
(1 1.19513e-14 0)
(1 5.54867e-15 0)
(1 3.42312e-15 0)
(1 2.50799e-15 0)
(1 4.90194e-15 0)
(1 7.19158e-15 0)
(1 1.00487e-14 0)
(1 1.48219e-15 0)
(1 8.12195e-15 0)
(1 6.26019e-15 0)
(1 6.52275e-15 0)
(1 2.24588e-15 0)
(1 1.28696e-14 0)
(1 1.13053e-14 0)
(1 6.63096e-15 0)
(1 4.94622e-15 0)
(1 -1.66084e-16 0)
(1 5.76821e-16 0)
(1 -7.82773e-16 0)
(1 4.01663e-15 0)
(1 1.05163e-14 0)
(1 3.87439e-15 0)
(1 4.01526e-15 0)
(1 5.07947e-15 0)
(1 4.56686e-15 0)
(1 -9.03107e-17 0)
(1 2.29881e-15 0)
(1 -7.28292e-16 0)
(1 -6.69895e-16 0)
(1 1.2524e-15 0)
(1 7.64016e-15 0)
(1 1.68222e-14 0)
(1 8.37299e-15 0)
(1 1.47482e-14 0)
(1 1.29683e-14 0)
(1 5.30641e-16 0)
(1 4.90266e-15 0)
(1 3.03435e-15 0)
(1 -3.1254e-15 0)
(1 2.10457e-15 0)
(1 3.87384e-15 0)
(1 -6.3865e-15 0)
(1 -8.08774e-15 0)
(1 3.7179e-15 0)
(1 6.06108e-15 0)
(1 3.25075e-15 0)
(1 2.3478e-15 0)
(1 -7.00061e-15 0)
(1 6.23914e-15 0)
(1 9.36077e-16 0)
(1 -8.9842e-15 0)
(1 -3.59235e-15 0)
(1 -8.75666e-15 0)
(1 -4.38264e-15 0)
(1 -6.03742e-15 0)
(1 -1.28712e-14 0)
(1 7.78633e-15 0)
(1 9.12239e-15 0)
(1 1.61047e-14 0)
(1 1.4313e-14 0)
(1 5.3798e-15 0)
(1 -1.0382e-14 0)
(1 -8.10134e-15 0)
(1 -6.24223e-15 0)
(1 -1.62125e-15 0)
(1 -4.70403e-15 0)
(1 -6.13184e-16 0)
(1 1.20014e-15 0)
(1 -8.23486e-15 0)
(1 2.39798e-15 0)
(1 -2.34593e-15 0)
(1 8.75647e-15 0)
(1 3.85878e-15 0)
(1 -2.09143e-15 0)
(1 4.2687e-15 0)
(1 1.14983e-15 0)
(1 8.72769e-15 0)
(1 -7.01536e-16 0)
(1 7.92131e-16 0)
(1 -7.39266e-16 0)
(1 -1.38004e-16 0)
(1 5.1722e-15 0)
(1 3.09583e-15 0)
(1 9.30599e-16 0)
(1 8.12986e-15 0)
(1 4.61365e-15 0)
(1 2.53851e-15 0)
(1 -4.70297e-15 0)
(1 2.1571e-15 0)
(1 7.05831e-15 0)
(1 2.87196e-15 0)
(1 4.24122e-15 0)
(1 2.03325e-15 0)
(1 4.01243e-15 0)
(1 4.17509e-15 0)
(1 6.93576e-15 0)
(1 5.35979e-15 0)
(1 6.47223e-15 0)
(1 7.57771e-15 0)
(1 7.82503e-15 0)
(1 6.51122e-15 0)
(1 1.19887e-14 0)
(1 9.5959e-15 0)
(1 1.06893e-14 0)
(1 8.71236e-15 0)
(1 7.50883e-15 0)
(1 7.86287e-15 0)
(1 2.72899e-15 0)
(1 1.95909e-15 0)
(1 5.41596e-15 0)
(1 8.32051e-15 0)
(1 9.4057e-15 0)
(1 8.33628e-15 0)
(1 8.86614e-15 0)
(1 1.03343e-14 0)
(1 3.89983e-15 0)
(1 7.15239e-16 0)
(1 3.02395e-15 0)
(1 1.77216e-15 0)
(1 4.49094e-15 0)
(1 4.69017e-16 0)
(1 3.42649e-16 0)
(1 -1.48572e-15 0)
(1 1.59687e-16 0)
(1 3.78913e-16 0)
(1 1.17484e-15 0)
(1 9.36627e-16 0)
(1 6.88301e-15 0)
(1 3.91208e-15 0)
(1 8.21232e-15 0)
(1 4.84717e-15 0)
(1 1.03124e-14 0)
(1 1.27356e-14 0)
(1 1.57803e-14 0)
(1 1.34111e-14 0)
(1 -5.31985e-16 0)
(1 -9.41175e-17 0)
(1 -6.37399e-15 0)
(1 6.03706e-15 0)
(1 6.18637e-16 0)
(1 5.86581e-15 0)
(1 9.51511e-15 0)
(1 1.08318e-14 0)
(1 3.05718e-15 0)
(1 -3.27209e-16 0)
(1 -1.29571e-15 0)
(1 -1.20016e-14 0)
(1 -4.7643e-15 0)
(1 -1.36795e-15 0)
(1 2.90114e-15 0)
(1 -3.29925e-15 0)
(1 -2.89885e-15 0)
(1 -2.47006e-15 0)
(1 -1.03629e-14 0)
(1 -7.78518e-15 0)
(1 -5.10647e-15 0)
(1 5.45235e-16 0)
(1 4.29303e-15 0)
(1 -2.65762e-15 0)
(1 3.48276e-16 0)
(1 -2.52435e-15 0)
(1 -5.69659e-15 0)
(1 -1.45996e-14 0)
(1 -7.88222e-15 0)
(1 -2.38562e-15 0)
(1 -3.80532e-15 0)
(1 3.67772e-15 0)
(1 1.29371e-15 0)
(1 1.03445e-14 0)
(1 3.99561e-15 0)
(1 6.68596e-15 0)
(1 7.26905e-15 0)
(1 3.75546e-16 0)
(1 1.07624e-15 0)
(1 -1.63997e-15 0)
(1 2.6901e-15 0)
(1 6.81531e-15 0)
(1 9.27689e-15 0)
(1 1.05616e-15 0)
(1 -7.31966e-15 0)
(1 -6.60183e-15 0)
(1 -1.92038e-15 0)
(1 2.76843e-15 0)
(1 2.28369e-15 0)
(1 -2.16055e-15 0)
(1 8.70618e-15 0)
(1 5.87878e-15 0)
(1 2.19448e-15 0)
(1 4.2528e-16 0)
(1 -3.95782e-16 0)
(1 8.80116e-16 0)
(1 8.85218e-15 0)
(1 2.72388e-15 0)
(1 1.91005e-15 0)
(1 -4.84998e-15 0)
(1 3.57131e-15 0)
(1 3.29947e-16 0)
(1 8.20544e-16 0)
(1 1.06557e-14 0)
(1 1.74145e-16 0)
(1 -4.8867e-15 0)
(1 9.18889e-15 0)
(1 4.53369e-15 0)
(1 1.48439e-14 0)
(1 4.49155e-15 0)
(1 9.63157e-15 0)
(1 5.47652e-15 0)
(1 7.03555e-15 0)
(1 2.06875e-15 0)
(1 7.81258e-15 0)
(1 2.09681e-15 0)
(1 9.46735e-15 0)
(1 9.1025e-15 0)
(1 5.07977e-15 0)
(1 1.12924e-14 0)
(1 -1.19278e-15 0)
(1 7.03987e-15 0)
(1 2.30755e-15 0)
(1 2.10306e-15 0)
(1 -7.69592e-16 0)
(1 -2.75768e-15 0)
(1 -1.74646e-15 0)
(1 -3.14279e-15 0)
(1 -1.34912e-15 0)
(1 8.99498e-16 0)
(1 7.17251e-15 0)
(1 1.99109e-15 0)
(1 7.89539e-15 0)
(1 4.03796e-15 0)
(1 6.33877e-15 0)
(1 1.01268e-14 0)