/*--------------------------------*- C++ -*----------------------------------*\
| =========                 |                                                 |
| \\      /  F ield         | OpenFOAM: The Open Source CFD Toolbox           |
|  \\    /   O peration     | Version:  v2012                                 |
|   \\  /    A nd           | Website:  www.openfoam.com                      |
|    \\/     M anipulation  |                                                 |
\*---------------------------------------------------------------------------*/
FoamFile
{
    version     2.0;
    format      ascii;
    class       volVectorField;
    location    "0";
    object      U;
}
// * * * * * * * * * * * * * * * * * * * * * * * * * * * * * * * * * * * * * //

dimensions      [0 1 -1 0 0 0 0];


internalField   nonuniform List<vector> 
4000
(
(1 3.92161e-15 0)
(1 2.11008e-15 0)
(1 1.56935e-15 0)
(1 -5.16394e-16 0)
(1 -3.73057e-15 0)
(1 -2.93486e-15 0)
(1 1.60919e-16 0)
(1 4.49368e-15 0)
(1 7.51028e-15 0)
(1 -5.70689e-15 0)
(1 -1.35688e-15 0)
(1 1.83709e-15 0)
(1 1.84502e-15 0)
(1 -4.64213e-16 0)
(1 1.14646e-16 0)
(1 2.06811e-15 0)
(1 -3.16136e-15 0)
(1 -3.49433e-15 0)
(1 3.31667e-15 0)
(1 3.02839e-15 0)
(1 -5.83716e-16 0)
(1 -4.23502e-15 0)
(1 -4.45063e-15 0)
(1 -3.1402e-16 0)
(1 -7.9122e-17 0)
(1 1.22793e-15 0)
(1 2.59934e-15 0)
(1 -1.26522e-15 0)
(1 1.33507e-15 0)
(1 -6.56078e-16 0)
(1 3.02372e-15 0)
(1 -1.22e-15 0)
(1 -1.42913e-15 0)
(1 -6.63889e-15 0)
(1 -2.53335e-15 0)
(1 5.94799e-16 0)
(1 3.52943e-15 0)
(1 4.62228e-15 0)
(1 3.78911e-15 0)
(1 -2.19826e-15 0)
(1 -2.82664e-15 0)
(1 -5.27354e-15 0)
(1 -2.22421e-15 0)
(1 2.55989e-15 0)
(1 1.11157e-15 0)
(1 1.7859e-16 0)
(1 -1.90341e-15 0)
(1 3.6309e-16 0)
(1 1.29385e-15 0)
(1 -1.15541e-15 0)
(1 2.25966e-15 0)
(1 2.67518e-15 0)
(1 5.17339e-15 0)
(1 5.16953e-15 0)
(1 4.325e-15 0)
(1 4.21989e-15 0)
(1 1.26267e-16 0)
(1 -7.68211e-16 0)
(1 -3.24714e-15 0)
(1 -1.34919e-15 0)
(1 -2.09059e-15 0)
(1 -1.12439e-15 0)
(1 1.78623e-15 0)
(1 4.16563e-15 0)
(1 -2.3887e-15 0)
(1 -7.76938e-16 0)
(1 -3.25815e-15 0)
(1 2.46833e-15 0)
(1 -1.55849e-15 0)
(1 -3.22857e-15 0)
(1 -1.98511e-15 0)
(1 1.71642e-15 0)
(1 -4.53478e-15 0)
(1 -5.1974e-15 0)
(1 -5.66883e-15 0)
(1 -1.65701e-15 0)
(1 -1.29892e-16 0)
(1 -4.76932e-16 0)
(1 -7.39106e-16 0)
(1 1.42517e-15 0)
(1 1.99321e-15 0)
(1 3.03438e-15 0)
(1 -2.38029e-15 0)
(1 -2.84321e-15 0)
(1 -5.67494e-15 0)
(1 -2.03744e-15 0)
(1 4.61416e-15 0)
(1 2.27156e-15 0)
(1 2.56796e-16 0)
(1 7.3302e-15 0)
(1 1.97168e-15 0)
(1 1.78626e-15 0)
(1 -2.52635e-17 0)
(1 1.35586e-15 0)
(1 -1.55818e-15 0)
(1 8.95474e-16 0)
(1 4.9351e-16 0)
(1 -1.16593e-15 0)
(1 -1.62285e-15 0)
(1 -1.88626e-15 0)
(1 2.5057e-15 0)
(1 3.38278e-15 0)
(1 3.3516e-15 0)
(1 -1.99392e-15 0)
(1 -5.25195e-15 0)
(1 -1.92415e-15 0)
(1 -1.9758e-15 0)
(1 5.87093e-15 0)
(1 1.07344e-14 0)
(1 -2.09669e-15 0)
(1 1.44734e-16 0)
(1 -3.16546e-15 0)
(1 4.26559e-18 0)
(1 -3.65086e-15 0)
(1 4.07259e-16 0)
(1 7.15865e-15 0)
(1 -5.31811e-15 0)
(1 -5.37464e-15 0)
(1 2.7806e-15 0)
(1 3.18919e-15 0)
(1 3.11341e-15 0)
(1 -2.07758e-15 0)
(1 -1.98499e-15 0)
(1 -1.3355e-15 0)
(1 -2.29475e-15 0)
(1 -3.76283e-15 0)
(1 1.51662e-15 0)
(1 -6.65445e-15 0)
(1 2.84025e-15 0)
(1 2.10761e-15 0)
(1 2.46459e-15 0)
(1 -1.73553e-15 0)
(1 -9.5159e-16 0)
(1 -5.73995e-15 0)
(1 1.76344e-15 0)
(1 -2.09885e-15 0)
(1 4.05868e-15 0)
(1 7.04312e-15 0)
(1 -2.25064e-15 0)
(1 -6.22542e-15 0)
(1 -9.23058e-15 0)
(1 -5.02848e-15 0)
(1 5.06161e-16 0)
(1 3.29335e-15 0)
(1 5.42355e-15 0)
(1 9.63075e-16 0)
(1 1.86467e-15 0)
(1 3.85946e-16 0)
(1 2.05032e-15 0)
(1 -1.35021e-15 0)
(1 -1.3708e-15 0)
(1 -2.70614e-15 0)
(1 4.74284e-15 0)
(1 5.27259e-15 0)
(1 4.38192e-15 0)
(1 2.10762e-15 0)
(1 2.35273e-15 0)
(1 1.70296e-15 0)
(1 7.98904e-16 0)
(1 -4.47778e-15 0)
(1 -1.25563e-15 0)
(1 4.03476e-16 0)
(1 2.99262e-15 0)
(1 1.26243e-15 0)
(1 -3.50815e-15 0)
(1 -3.33066e-15 0)
(1 -6.24532e-15 0)
(1 -1.2906e-15 0)
(1 5.53521e-16 0)
(1 -1.76555e-15 0)
(1 1.08911e-15 0)
(1 9.3707e-16 0)
(1 2.49831e-15 0)
(1 -2.65126e-15 0)
(1 4.6967e-16 0)
(1 5.0347e-15 0)
(1 4.25261e-15 0)
(1 -7.97451e-16 0)
(1 2.25206e-15 0)
(1 5.57374e-15 0)
(1 4.28649e-15 0)
(1 3.75255e-17 0)
(1 -3.83434e-15 0)
(1 -4.50822e-15 0)
(1 -5.94537e-15 0)
(1 -8.89853e-16 0)
(1 5.04875e-15 0)
(1 2.46442e-15 0)
(1 -2.30423e-15 0)
(1 4.5322e-15 0)
(1 4.84241e-16 0)
(1 2.80683e-17 0)
(1 -1.75892e-15 0)
(1 3.50262e-15 0)
(1 -2.7844e-15 0)
(1 2.66266e-15 0)
(1 9.5744e-16 0)
(1 -2.0908e-15 0)
(1 -4.05884e-15 0)
(1 -5.16255e-15 0)
(1 -4.22338e-15 0)
(1 4.97133e-15 0)
(1 -4.69465e-15 0)
(1 1.3844e-15 0)
(1 -2.83963e-15 0)
(1 3.08053e-15 0)
(1 2.21747e-15 0)
(1 4.22547e-15 0)
(1 2.66958e-15 0)
(1 1.90291e-15 0)
(1 2.48316e-15 0)
(1 2.34564e-15 0)
(1 2.99751e-15 0)
(1 3.75399e-15 0)
(1 2.16312e-15 0)
(1 -7.36599e-16 0)
(1 -2.42999e-15 0)
(1 1.28983e-15 0)
(1 -8.45889e-15 0)
(1 1.84471e-15 0)
(1 2.54282e-15 0)
(1 -4.91002e-15 0)
(1 -3.86924e-15 0)
(1 2.45528e-15 0)
(1 9.24862e-15 0)
(1 -1.25739e-15 0)
(1 5.49219e-15 0)
(1 -6.12782e-15 0)
(1 5.25368e-15 0)
(1 4.70929e-15 0)
(1 1.06847e-16 0)
(1 -3.81207e-15 0)
(1 -1.79317e-15 0)
(1 -6.41344e-16 0)
(1 1.04048e-16 0)
(1 -3.93573e-15 0)
(1 -3.09734e-15 0)
(1 8.21349e-15 0)
(1 1.48919e-15 0)
(1 -1.18149e-14 0)
(1 -7.48469e-15 0)
(1 -6.38247e-15 0)
(1 1.24687e-15 0)
(1 -1.52089e-15 0)
(1 2.63861e-15 0)
(1 5.09235e-16 0)
(1 9.48908e-15 0)
(1 3.57163e-15 0)
(1 3.10414e-15 0)
(1 -7.51139e-16 0)
(1 4.8305e-15 0)
(1 -4.1565e-16 0)
(1 3.99533e-15 0)
(1 2.2858e-15 0)
(1 4.14588e-15 0)
(1 2.14262e-15 0)
(1 3.74116e-15 0)
(1 4.56954e-15 0)
(1 5.21628e-15 0)
(1 -2.4733e-15 0)
(1 -6.47331e-16 0)
(1 -4.54767e-16 0)
(1 -1.94688e-16 0)
(1 -5.37688e-15 0)
(1 -4.46773e-15 0)
(1 -2.09636e-15 0)
(1 -1.32337e-15 0)
(1 -2.16411e-15 0)
(1 3.16115e-15 0)
(1 1.5629e-15 0)
(1 -1.91065e-15 0)
(1 -4.80859e-15 0)
(1 -5.5761e-16 0)
(1 -2.61223e-15 0)
(1 1.69614e-15 0)
(1 -5.82667e-16 0)
(1 9.76987e-16 0)
(1 -4.98067e-15 0)
(1 2.1399e-15 0)
(1 -1.25342e-16 0)
(1 5.38663e-16 0)
(1 -9.38885e-16 0)
(1 -2.59952e-15 0)
(1 -2.39998e-15 0)
(1 4.2204e-16 0)
(1 1.3834e-15 0)
(1 6.45315e-18 0)
(1 2.25077e-15 0)
(1 -2.63473e-15 0)
(1 2.85507e-15 0)
(1 -1.79088e-15 0)
(1 4.58262e-16 0)
(1 -1.02914e-15 0)
(1 4.64836e-15 0)
(1 -3.83664e-16 0)
(1 4.71773e-15 0)
(1 -9.37211e-16 0)
(1 -3.66838e-15 0)
(1 -3.44602e-15 0)
(1 -5.56441e-15 0)
(1 4.96183e-16 0)
(1 -4.10447e-15 0)
(1 -4.88348e-15 0)
(1 -7.4971e-15 0)
(1 4.42607e-15 0)
(1 5.55438e-15 0)
(1 9.77304e-15 0)
(1 -5.93306e-16 0)
(1 5.61065e-16 0)
(1 -2.3922e-15 0)
(1 2.38384e-15 0)
(1 -1.37254e-16 0)
(1 1.72525e-15 0)
(1 1.14107e-14 0)
(1 6.20481e-15 0)
(1 3.57488e-16 0)
(1 4.68602e-15 0)
(1 -2.45497e-15 0)
(1 -9.07949e-15 0)
(1 3.44997e-15 0)
(1 4.64849e-15 0)
(1 -1.67576e-15 0)
(1 -6.63978e-15 0)
(1 4.46486e-15 0)
(1 6.6189e-15 0)
(1 8.74782e-15 0)
(1 1.48748e-14 0)
(1 4.12649e-15 0)
(1 8.66442e-15 0)
(1 8.7167e-16 0)
(1 1.93089e-15 0)
(1 -7.12704e-15 0)
(1 -4.4522e-15 0)
(1 -6.119e-15 0)
(1 -7.29977e-15 0)
(1 -7.21797e-15 0)
(1 -1.05985e-15 0)
(1 -2.44822e-15 0)
(1 6.06197e-15 0)
(1 -4.201e-15 0)
(1 7.68916e-16 0)
(1 -6.50511e-15 0)
(1 -3.23499e-15 0)
(1 9.09292e-16 0)
(1 4.73175e-16 0)
(1 8.47986e-15 0)
(1 7.18761e-15 0)
(1 4.98339e-15 0)
(1 -4.40857e-17 0)
(1 2.32314e-15 0)
(1 6.14301e-15 0)
(1 4.16429e-15 0)
(1 3.73199e-15 0)
(1 5.38005e-15 0)
(1 5.12928e-15 0)
(1 4.18973e-15 0)
(1 2.98971e-15 0)
(1 2.00598e-15 0)
(1 7.12746e-15 0)
(1 4.11131e-15 0)
(1 6.49569e-16 0)
(1 -7.57741e-15 0)
(1 -3.58776e-15 0)
(1 -3.53462e-15 0)
(1 -2.08231e-15 0)
(1 1.87669e-15 0)
(1 8.24346e-16 0)
(1 -1.56212e-15 0)
(1 -3.77956e-15 0)
(1 -6.7e-15 0)
(1 -7.55929e-15 0)
(1 -5.20046e-15 0)
(1 -3.58129e-15 0)
(1 -3.16134e-15 0)
(1 -2.49993e-15 0)
(1 3.07409e-15 0)
(1 2.55052e-15 0)
(1 -1.87355e-17 0)
(1 5.13974e-15 0)
(1 -6.13887e-15 0)
(1 1.62306e-16 0)
(1 1.1918e-15 0)
(1 -4.05355e-15 0)
(1 -4.02673e-15 0)
(1 -1.85797e-15 0)
(1 2.92837e-15 0)
(1 9.46401e-15 0)
(1 4.19068e-15 0)
(1 4.50933e-15 0)
(1 4.78688e-15 0)
(1 -8.70313e-16 0)
(1 2.5861e-15 0)
(1 3.26879e-15 0)
(1 5.25377e-15 0)
(1 -5.07949e-16 0)
(1 -1.97736e-16 0)
(1 -4.06455e-15 0)
(1 -4.19907e-15 0)
(1 -8.29998e-15 0)
(1 -4.73103e-15 0)
(1 5.08375e-15 0)
(1 -4.16035e-15 0)
(1 4.51339e-15 0)
(1 -6.97478e-15 0)
(1 6.04573e-15 0)
(1 5.40968e-16 0)
(1 -1.02141e-15 0)
(1 -6.85304e-15 0)
(1 -2.0307e-15 0)
(1 1.70153e-15 0)
(1 8.49055e-15 0)
(1 7.6944e-15 0)
(1 6.54292e-15 0)
(1 -1.21267e-16 0)
(1 2.03186e-15 0)
(1 2.00104e-15 0)
(1 8.46173e-15 0)
(1 -5.93904e-15 0)
(1 -7.22708e-15 0)
(1 -4.67974e-15 0)
(1 8.35367e-16 0)
(1 4.48333e-15 0)
(1 2.88155e-15 0)
(1 4.889e-15 0)
(1 -5.14185e-15 0)
(1 1.2707e-15 0)
(1 5.53473e-15 0)
(1 8.13045e-15 0)
(1 2.8348e-15 0)
(1 3.37917e-15 0)
(1 -3.88675e-15 0)
(1 2.48625e-15 0)
(1 -2.78086e-15 0)
(1 2.82347e-15 0)
(1 -7.37474e-15 0)
(1 -8.32671e-15 0)
(1 -1.86346e-15 0)
(1 -8.56706e-15 0)
(1 -1.83895e-15 0)
(1 7.95623e-16 0)
(1 -1.73378e-15 0)
(1 -6.70535e-15 0)
(1 -7.17746e-15 0)
(1 -2.64722e-15 0)
(1 5.11077e-16 0)
(1 1.02674e-14 0)
(1 4.54488e-15 0)
(1 7.77122e-15 0)
(1 3.02794e-15 0)
(1 6.246e-15 0)
(1 -3.48299e-15 0)
(1 3.34225e-16 0)
(1 1.87595e-16 0)
(1 5.57871e-15 0)
(1 4.16928e-15 0)
(1 1.32637e-15 0)
(1 2.66353e-15 0)
(1 9.75929e-16 0)
(1 3.51724e-15 0)
(1 3.4509e-15 0)
(1 3.49481e-15 0)
(1 -4.36425e-16 0)
(1 -1.62813e-15 0)
(1 -2.3166e-15 0)
(1 5.86619e-15 0)
(1 7.81135e-15 0)
(1 8.00866e-15 0)
(1 -3.09049e-15 0)
(1 -6.01576e-15 0)
(1 -2.81523e-15 0)
(1 -8.30487e-15 0)
(1 -2.68657e-15 0)
(1 2.97467e-15 0)
(1 -7.84387e-16 0)
(1 1.69368e-15 0)
(1 2.59964e-15 0)
(1 -2.07095e-16 0)
(1 1.48576e-15 0)
(1 3.86141e-15 0)
(1 -2.41955e-16 0)
(1 -1.15493e-15 0)
(1 -4.02262e-15 0)
(1 -3.51389e-15 0)
(1 -2.34509e-15 0)
(1 1.99264e-15 0)
(1 3.86763e-15 0)
(1 7.02765e-15 0)
(1 1.31892e-15 0)
(1 5.08948e-15 0)
(1 -4.36541e-16 0)
(1 4.38254e-15 0)
(1 -9.42791e-16 0)
(1 6.51863e-15 0)
(1 4.43114e-15 0)
(1 4.27049e-15 0)
(1 -8.50294e-16 0)
(1 -2.20737e-15 0)
(1 -6.42799e-16 0)
(1 -1.41416e-15 0)
(1 2.77926e-15 0)
(1 -7.77655e-16 0)
(1 2.00438e-15 0)
(1 6.11034e-15 0)
(1 2.04553e-15 0)
(1 -8.31421e-16 0)
(1 -7.63269e-15 0)
(1 -5.50399e-15 0)
(1 -1.8932e-15 0)
(1 -4.1963e-15 0)
(1 5.81947e-15 0)
(1 2.60825e-15 0)
(1 1.66433e-14 0)
(1 1.34831e-14 0)
(1 -4.47926e-15 0)
(1 2.44154e-16 0)
(1 -7.31868e-16 0)
(1 4.18192e-15 0)
(1 3.35302e-16 0)
(1 -9.97704e-15 0)
(1 -1.03122e-14 0)
(1 -4.56341e-15 0)
(1 6.63931e-15 0)
(1 1.54075e-14 0)
(1 9.62907e-15 0)
(1 4.15455e-15 0)
(1 -1.42312e-15 0)
(1 1.19416e-15 0)
(1 6.11962e-15 0)
(1 -5.12989e-15 0)
(1 6.04898e-15 0)
(1 -6.84992e-15 0)
(1 6.4465e-15 0)
(1 -3.00494e-15 0)
(1 7.14424e-15 0)
(1 -4.64071e-15 0)
(1 -7.08998e-16 0)
(1 -2.88262e-15 0)
(1 4.01414e-15 0)
(1 -5.19338e-15 0)
(1 -1.27526e-15 0)
(1 -7.33955e-15 0)
(1 -8.76545e-16 0)
(1 -6.10071e-15 0)
(1 -2.68131e-15 0)
(1 7.84687e-15 0)
(1 4.14266e-15 0)
(1 3.50892e-15 0)
(1 2.69831e-15 0)
(1 7.88351e-15 0)
(1 4.52649e-15 0)
(1 2.72635e-15 0)
(1 5.7244e-15 0)
(1 3.62381e-15 0)
(1 3.60648e-15 0)
(1 3.94397e-15 0)
(1 1.45568e-15 0)
(1 1.27451e-15 0)
(1 3.78065e-15 0)
(1 2.13417e-15 0)
(1 1.1167e-14 0)
(1 3.8873e-15 0)
(1 1.26401e-15 0)
(1 -7.60059e-15 0)
(1 -1.59998e-15 0)
(1 4.0624e-15 0)
(1 1.00484e-14 0)
(1 1.08449e-14 0)
(1 5.33532e-15 0)
(1 8.01619e-15 0)
(1 6.58225e-15 0)
(1 3.41236e-15 0)
(1 4.13197e-16 0)
(1 3.71906e-15 0)
(1 -2.35357e-15 0)
(1 -1.39324e-15 0)
(1 -5.84611e-15 0)
(1 -4.50405e-15 0)
(1 -1.15888e-15 0)
(1 -4.07394e-15 0)
(1 3.95251e-15 0)
(1 -4.47897e-16 0)
(1 2.74437e-15 0)
(1 2.19988e-15 0)
(1 2.25056e-15 0)
(1 -5.40993e-15 0)
(1 -5.29178e-15 0)
(1 -4.54789e-15 0)
(1 -1.56632e-15 0)
(1 -4.80902e-16 0)
(1 4.5294e-16 0)
(1 2.29722e-15 0)
(1 2.39089e-15 0)
(1 7.42368e-15 0)
(1 6.64176e-15 0)
(1 8.94492e-15 0)
(1 6.29925e-15 0)
(1 3.7566e-15 0)
(1 1.41683e-15 0)
(1 1.09915e-14 0)
(1 9.19398e-15 0)
(1 -6.34782e-16 0)
(1 -1.50679e-15 0)
(1 5.67601e-15 0)
(1 4.38862e-15 0)
(1 -2.29144e-16 0)
(1 -7.2569e-15 0)
(1 8.03711e-16 0)
(1 6.54161e-15 0)
(1 4.4939e-16 0)
(1 6.84059e-15 0)
(1 -4.17958e-15 0)
(1 5.92961e-15 0)
(1 -3.41252e-16 0)
(1 4.43742e-15 0)
(1 3.41293e-16 0)
(1 2.1034e-15 0)
(1 2.66916e-15 0)
(1 -2.2163e-15 0)
(1 -2.70339e-16 0)
(1 3.4205e-15 0)
(1 9.35434e-16 0)
(1 1.63488e-15 0)
(1 8.70792e-16 0)
(1 -1.03768e-14 0)
(1 4.83469e-15 0)
(1 -2.35789e-15 0)
(1 5.29429e-15 0)
(1 1.36248e-15 0)
(1 2.62901e-15 0)
(1 3.17643e-15 0)
(1 6.37193e-15 0)
(1 1.4675e-15 0)
(1 3.0599e-15 0)
(1 -3.80536e-15 0)
(1 -4.08795e-15 0)
(1 3.68402e-16 0)
(1 -1.7257e-15 0)
(1 3.25107e-15 0)
(1 -2.35598e-15 0)
(1 3.86346e-15 0)
(1 -4.21935e-15 0)
(1 5.25158e-15 0)
(1 6.08828e-16 0)
(1 4.35428e-15 0)
(1 1.33464e-15 0)
(1 3.15585e-15 0)
(1 1.50552e-15 0)
(1 4.77867e-16 0)
(1 3.74108e-15 0)
(1 -7.3169e-16 0)
(1 3.17901e-15 0)
(1 1.86965e-15 0)
(1 6.39073e-15 0)
(1 6.60842e-16 0)
(1 5.18261e-16 0)
(1 2.49987e-15 0)
(1 3.60612e-15 0)
(1 4.72244e-15 0)
(1 3.16857e-15 0)
(1 6.65993e-15 0)
(1 4.17958e-15 0)
(1 4.87537e-15 0)
(1 1.09411e-16 0)
(1 2.08834e-15 0)
(1 -2.78191e-15 0)
(1 3.70371e-16 0)
(1 -2.91124e-16 0)
(1 4.44147e-15 0)
(1 5.6848e-15 0)
(1 3.09548e-15 0)
(1 6.96265e-15 0)
(1 -1.78642e-15 0)
(1 -2.57715e-15 0)
(1 -1.23358e-15 0)
(1 1.33928e-15 0)
(1 7.47759e-15 0)
(1 1.47615e-15 0)
(1 5.54776e-15 0)
(1 -3.84265e-16 0)
(1 9.31828e-16 0)
(1 2.83999e-15 0)
(1 2.72092e-15 0)
(1 2.5026e-15 0)
(1 2.44917e-15 0)
(1 -1.40484e-15 0)
(1 4.07016e-15 0)
(1 4.80233e-15 0)
(1 7.65172e-15 0)
(1 3.99909e-17 0)
(1 2.49211e-15 0)
(1 1.02716e-15 0)
(1 7.98193e-15 0)
(1 9.38473e-15 0)
(1 9.11296e-15 0)
(1 3.89438e-15 0)
(1 8.31083e-15 0)
(1 7.90355e-15 0)
(1 8.14347e-15 0)
(1 1.04866e-14 0)
(1 8.26525e-15 0)
(1 4.63159e-16 0)
(1 -1.8199e-15 0)
(1 -8.51248e-15 0)
(1 4.44244e-15 0)
(1 -1.41454e-15 0)
(1 3.60371e-15 0)
(1 1.83392e-15 0)
(1 3.72641e-15 0)
(1 5.7344e-15 0)
(1 2.91585e-15 0)
(1 2.27173e-15 0)
(1 -1.39833e-15 0)
(1 -8.47244e-16 0)
(1 9.47336e-15 0)
(1 4.74494e-15 0)
(1 5.39908e-15 0)
(1 5.66361e-15 0)
(1 6.57084e-15 0)
(1 7.28966e-15 0)
(1 7.06097e-15 0)
(1 -3.49182e-15 0)
(1 -1.27401e-14 0)
(1 -4.41907e-15 0)
(1 -1.89796e-14 0)
(1 -1.24425e-14 0)
(1 -7.80598e-15 0)
(1 -4.38103e-15 0)
(1 3.50969e-16 0)
(1 1.41252e-14 0)
(1 9.00051e-15 0)
(1 1.27206e-14 0)
(1 9.47968e-16 0)
(1 2.35863e-15 0)
(1 -4.14607e-15 0)
(1 -1.36094e-15 0)
(1 -2.14085e-15 0)
(1 1.37776e-15 0)
(1 -3.22587e-15 0)
(1 6.00593e-15 0)
(1 5.79194e-15 0)
(1 1.62459e-15 0)
(1 -5.23702e-15 0)
(1 -7.42622e-15 0)
(1 -6.94792e-15 0)
(1 -1.30537e-18 0)
(1 9.06364e-15 0)
(1 1.06278e-14 0)
(1 4.73157e-15 0)
(1 1.51372e-15 0)
(1 1.37483e-15 0)
(1 2.3938e-15 0)
(1 5.78415e-16 0)
(1 5.93073e-15 0)
(1 7.8908e-15 0)
(1 8.45905e-15 0)
(1 1.03336e-14 0)
(1 5.62858e-15 0)
(1 5.76243e-15 0)
(1 -3.70563e-15 0)
(1 -5.62084e-15 0)
(1 -3.7233e-15 0)
(1 9.15836e-15 0)
(1 1.55648e-14 0)
(1 1.22317e-14 0)
(1 1.69752e-15 0)
(1 2.28914e-15 0)
(1 4.77369e-15 0)
(1 2.3918e-15 0)
(1 5.24895e-15 0)
(1 3.88002e-15 0)
(1 1.4738e-15 0)
(1 1.74648e-15 0)
(1 2.64838e-15 0)
(1 4.27664e-16 0)
(1 6.00857e-15 0)
(1 5.36233e-15 0)
(1 2.66086e-15 0)
(1 1.91232e-15 0)
(1 -3.53769e-15 0)
(1 -2.36577e-15 0)
(1 6.91143e-16 0)
(1 -2.17652e-15 0)
(1 -1.85378e-15 0)
(1 -1.16147e-15 0)
(1 4.75217e-15 0)
(1 6.6197e-15 0)
(1 4.03093e-15 0)
(1 2.42694e-15 0)
(1 2.94306e-15 0)
(1 1.26183e-15 0)
(1 3.82624e-15 0)
(1 4.62767e-15 0)
(1 7.19139e-15 0)
(1 9.07879e-15 0)
(1 6.97663e-15 0)
(1 7.24864e-15 0)
(1 4.8924e-15 0)
(1 9.08734e-15 0)
(1 1.33878e-14 0)
(1 1.57823e-14 0)
(1 -1.26558e-15 0)
(1 -4.2162e-15 0)
(1 -8.21145e-15 0)
(1 -3.73037e-15 0)
(1 -2.437e-15 0)
(1 8.67874e-15 0)
(1 5.83667e-15 0)
(1 1.32953e-15 0)
(1 1.80114e-15 0)
(1 -6.8375e-15 0)
(1 1.25318e-16 0)
(1 -3.72305e-15 0)
(1 8.3239e-15 0)
(1 1.33386e-14 0)
(1 6.34011e-15 0)
(1 8.41472e-15 0)
(1 -3.3378e-15 0)
(1 9.61626e-15 0)
(1 3.23635e-15 0)
(1 -1.55582e-15 0)
(1 -1.00658e-14 0)
(1 -7.65555e-15 0)
(1 1.30441e-15 0)
(1 1.80165e-15 0)
(1 -3.33726e-15 0)
(1 -1.00054e-15 0)
(1 -5.89792e-15 0)
(1 4.46849e-16 0)
(1 2.91261e-15 0)
(1 4.1711e-15 0)
(1 -8.95892e-16 0)
(1 -3.50722e-15 0)
(1 -4.81457e-15 0)
(1 -4.18917e-15 0)
(1 -2.69255e-15 0)
(1 3.79578e-15 0)
(1 4.72092e-15 0)
(1 5.05553e-15 0)
(1 5.17111e-15 0)
(1 9.21374e-16 0)
(1 -2.62179e-15 0)
(1 -3.26312e-15 0)
(1 -1.73265e-15 0)
(1 6.27673e-16 0)
(1 1.42665e-14 0)
(1 8.17344e-15 0)
(1 1.19455e-14 0)
(1 -1.41842e-15 0)
(1 -2.64839e-15 0)
(1 4.18058e-16 0)
(1 8.08687e-16 0)
(1 6.94113e-15 0)
(1 1.81062e-15 0)
(1 1.35029e-14 0)
(1 1.23381e-14 0)
(1 7.40918e-15 0)
(1 6.29148e-15 0)
(1 -1.08745e-16 0)
(1 8.52749e-15 0)
(1 2.2698e-15 0)
(1 1.26348e-15 0)
(1 -1.18116e-15 0)
(1 3.6122e-15 0)
(1 2.81219e-15 0)
(1 -3.93551e-15 0)
(1 4.14916e-15 0)
(1 1.75004e-15 0)
(1 1.41612e-14 0)
(1 2.04113e-14 0)
(1 1.44914e-14 0)
(1 8.48221e-15 0)
(1 7.01482e-15 0)
(1 9.01388e-15 0)
(1 3.72474e-16 0)
(1 2.03538e-15 0)
(1 -3.14368e-16 0)
(1 2.19597e-15 0)
(1 6.54808e-15 0)
(1 6.43208e-15 0)
(1 5.19207e-15 0)
(1 3.74562e-15 0)
(1 4.47361e-15 0)
(1 -3.04918e-15 0)
(1 -6.10612e-15 0)
(1 -2.79592e-15 0)
(1 -1.66799e-15 0)
(1 -1.62268e-15 0)
(1 1.03559e-15 0)
(1 3.12686e-15 0)
(1 1.75382e-15 0)
(1 1.60312e-16 0)
(1 4.44706e-15 0)
(1 6.38236e-15 0)
(1 1.26374e-14 0)
(1 1.59109e-14 0)
(1 1.414e-14 0)
(1 1.50865e-14 0)
(1 1.90192e-14 0)
(1 2.49087e-14 0)
(1 2.3608e-14 0)
(1 4.28584e-16 0)
(1 1.16459e-16 0)
(1 6.33847e-15 0)
(1 -1.6086e-15 0)
(1 -9.45987e-17 0)
(1 -8.7846e-15 0)
(1 4.9236e-15 0)
(1 2.07933e-15 0)
(1 4.37947e-15 0)
(1 -2.50145e-15 0)
(1 1.0906e-15 0)
(1 7.80661e-15 0)
(1 1.06225e-14 0)
(1 7.74751e-15 0)
(1 -3.55194e-15 0)
(1 -3.81088e-15 0)
(1 -7.60457e-15 0)
(1 5.02553e-15 0)
(1 2.05028e-15 0)
(1 7.82499e-15 0)
(1 -4.35101e-15 0)
(1 -1.10691e-14 0)
(1 -1.75628e-14 0)
(1 4.64531e-15 0)
(1 5.06304e-15 0)
(1 7.75002e-15 0)
(1 3.65097e-15 0)
(1 8.39653e-15 0)
(1 -4.06239e-16 0)
(1 -3.56308e-16 0)
(1 -7.15269e-15 0)
(1 2.80582e-15 0)
(1 -3.76676e-15 0)
(1 8.72579e-16 0)
(1 -2.60473e-15 0)
(1 3.0982e-15 0)
(1 -6.74305e-15 0)
(1 3.68821e-15 0)
(1 -4.9011e-15 0)
(1 -5.06704e-15 0)
(1 -3.96507e-15 0)
(1 4.75363e-15 0)
(1 9.62502e-15 0)
(1 4.83709e-15 0)
(1 3.1748e-15 0)
(1 -3.39999e-15 0)
(1 7.65876e-16 0)
(1 2.05176e-15 0)
(1 -5.69333e-16 0)
(1 3.15869e-15 0)
(1 1.01025e-16 0)
(1 4.96018e-15 0)
(1 8.0428e-15 0)
(1 4.09108e-15 0)
(1 1.43118e-14 0)
(1 1.04553e-14 0)
(1 4.37035e-15 0)
(1 -7.88103e-16 0)
(1 7.8189e-15 0)
(1 8.01188e-15 0)
(1 6.9409e-15 0)
(1 3.8862e-15 0)
(1 4.53254e-15 0)
(1 4.29839e-15 0)
(1 3.44759e-15 0)
(1 3.25407e-15 0)
(1 8.10413e-15 0)
(1 1.49326e-14 0)
(1 1.77832e-14 0)
(1 1.43667e-14 0)
(1 1.10306e-14 0)
(1 2.42694e-15 0)
(1 -7.92557e-16 0)
(1 4.15508e-15 0)
(1 3.54505e-15 0)
(1 2.73194e-17 0)
(1 5.52956e-15 0)
(1 7.77089e-15 0)
(1 9.15442e-15 0)
(1 4.84703e-15 0)
(1 3.8734e-15 0)
(1 2.74163e-15 0)
(1 -3.39646e-15 0)
(1 -6.45312e-15 0)
(1 -3.30262e-15 0)
(1 4.40819e-15 0)
(1 6.55276e-15 0)
(1 6.8754e-15 0)
(1 2.58705e-15 0)
(1 1.08672e-16 0)
(1 6.66246e-15 0)
(1 5.62291e-15 0)
(1 6.88226e-15 0)
(1 1.1882e-14 0)
(1 1.93281e-14 0)
(1 7.53911e-15 0)
(1 1.39039e-14 0)
(1 1.57824e-14 0)
(1 3.05227e-14 0)
(1 2.77103e-14 0)
(1 -1.17614e-15 0)
(1 2.07089e-15 0)
(1 -7.77887e-16 0)
(1 5.11649e-16 0)
(1 -6.31504e-15 0)
(1 -6.42128e-15 0)
(1 6.87049e-16 0)
(1 -1.71517e-15 0)
(1 4.16402e-15 0)
(1 5.46043e-15 0)
(1 3.91249e-15 0)
(1 6.7293e-16 0)
(1 1.81347e-15 0)
(1 -3.81221e-15 0)
(1 1.51348e-15 0)
(1 -1.3679e-15 0)
(1 7.8765e-15 0)
(1 6.72432e-15 0)
(1 5.89773e-15 0)
(1 5.9774e-16 0)
(1 -6.55069e-15 0)
(1 -1.0194e-14 0)
(1 -1.21868e-14 0)
(1 -2.11674e-15 0)
(1 -5.08826e-15 0)
(1 6.46638e-15 0)
(1 1.03856e-14 0)
(1 1.04556e-14 0)
(1 -9.65545e-16 0)
(1 -2.50579e-15 0)
(1 -8.55542e-15 0)
(1 -1.04407e-16 0)
(1 -6.383e-16 0)
(1 1.61724e-15 0)
(1 -9.57033e-16 0)
(1 -9.15391e-16 0)
(1 8.11724e-16 0)
(1 -2.55376e-15 0)
(1 -4.97345e-15 0)
(1 -4.47468e-15 0)
(1 9.63465e-16 0)
(1 -4.5065e-16 0)
(1 9.5352e-15 0)
(1 -4.84179e-16 0)
(1 -5.41768e-16 0)
(1 -1.28208e-15 0)
(1 4.08537e-15 0)
(1 3.49055e-15 0)
(1 5.91419e-15 0)
(1 4.46653e-15 0)
(1 1.27303e-14 0)
(1 1.03261e-14 0)
(1 1.28451e-14 0)
(1 6.91773e-15 0)
(1 8.54139e-15 0)
(1 3.6593e-15 0)
(1 2.0583e-15 0)
(1 1.74584e-15 0)
(1 1.94305e-15 0)
(1 2.79261e-15 0)
(1 7.64095e-15 0)
(1 4.2621e-15 0)
(1 6.26802e-15 0)
(1 8.52962e-15 0)
(1 1.02971e-14 0)
(1 9.99567e-16 0)
(1 8.15146e-15 0)
(1 3.76545e-15 0)
(1 -1.23105e-15 0)
(1 4.54463e-15 0)
(1 9.37243e-15 0)
(1 1.68083e-14 0)
(1 4.44899e-15 0)
(1 -1.45601e-16 0)
(1 1.37785e-15 0)
(1 -3.11646e-16 0)
(1 1.27605e-14 0)
(1 2.02471e-15 0)
(1 6.66495e-15 0)
(1 1.17775e-14 0)
(1 7.54817e-15 0)
(1 5.29343e-15 0)
(1 6.96264e-15 0)
(1 -9.92099e-16 0)
(1 -1.81049e-15 0)
(1 -4.35354e-16 0)
(1 3.50684e-15 0)
(1 -3.22477e-16 0)
(1 2.66583e-15 0)
(1 9.5735e-16 0)
(1 1.33471e-14 0)
(1 4.28958e-16 0)
(1 6.12519e-15 0)
(1 7.81212e-15 0)
(1 1.5015e-14 0)
(1 9.95833e-15 0)
(1 1.2013e-14 0)
(1 9.61491e-15 0)
(1 1.93951e-14 0)
(1 2.11515e-14 0)
(1 1.41205e-15 0)
(1 -1.96042e-15 0)
(1 -1.82516e-15 0)
(1 2.96148e-15 0)
(1 -4.81752e-15 0)
(1 5.04166e-15 0)
(1 -8.73808e-15 0)
(1 3.42943e-15 0)
(1 2.30875e-15 0)
(1 5.01097e-15 0)
(1 6.05505e-15 0)
(1 1.60939e-16 0)
(1 2.39398e-15 0)
(1 -1.36967e-16 0)
(1 1.00021e-14 0)
(1 -8.15612e-16 0)
(1 2.29179e-16 0)
(1 -1.34492e-14 0)
(1 1.22013e-15 0)
(1 -1.70257e-14 0)
(1 -8.80951e-16 0)
(1 2.69056e-15 0)
(1 8.58347e-15 0)
(1 4.87929e-15 0)
(1 6.22042e-15 0)
(1 2.64317e-15 0)
(1 6.80952e-15 0)
(1 6.64091e-15 0)
(1 2.92611e-15 0)
(1 -2.66658e-15 0)
(1 -2.02485e-15 0)
(1 -7.35259e-15 0)
(1 -5.05938e-15 0)
(1 -6.89414e-15 0)
(1 -1.80375e-15 0)
(1 -8.59449e-15 0)
(1 -4.57196e-15 0)
(1 7.75683e-16 0)
(1 3.35776e-15 0)
(1 3.98693e-15 0)
(1 6.01606e-15 0)
(1 -1.36757e-15 0)
(1 -1.9506e-15 0)
(1 6.64007e-15 0)
(1 -1.55312e-15 0)
(1 -2.23891e-16 0)
(1 3.81175e-15 0)
(1 5.48042e-16 0)
(1 1.46065e-14 0)
(1 6.78016e-15 0)
(1 1.08288e-14 0)
(1 4.89564e-15 0)
(1 6.47637e-15 0)
(1 7.67489e-15 0)
(1 1.69291e-15 0)
(1 -8.424e-15 0)
(1 -1.69974e-16 0)
(1 -1.37593e-15 0)
(1 6.93803e-15 0)
(1 2.75615e-15 0)
(1 1.24921e-14 0)
(1 1.17243e-14 0)
(1 1.36081e-14 0)
(1 5.80125e-15 0)
(1 1.18404e-14 0)
(1 3.54938e-15 0)
(1 1.5758e-15 0)
(1 2.71042e-15 0)
(1 -3.54039e-15 0)
(1 3.23484e-15 0)
(1 1.16622e-14 0)
(1 1.14887e-14 0)
(1 3.34037e-15 0)
(1 8.39004e-16 0)
(1 -2.96552e-16 0)
(1 -4.1215e-15 0)
(1 4.41889e-15 0)
(1 3.9529e-15 0)
(1 7.17732e-15 0)
(1 1.51708e-14 0)
(1 8.79834e-15 0)
(1 8.09716e-15 0)
(1 9.66252e-15 0)
(1 3.59843e-15 0)
(1 4.01772e-15 0)
(1 -2.61243e-15 0)
(1 6.72854e-16 0)
(1 -3.02979e-16 0)
(1 6.16773e-15 0)
(1 8.34842e-15 0)
(1 8.63039e-15 0)
(1 -1.28748e-15 0)
(1 5.1555e-15 0)
(1 6.66716e-15 0)
(1 1.26495e-14 0)
(1 1.79628e-14 0)
(1 1.69988e-14 0)
(1 1.66214e-14 0)
(1 8.31253e-15 0)
(1 9.82431e-15 0)
(1 2.54149e-15 0)
(1 8.96492e-16 0)
(1 -4.76132e-15 0)
(1 -5.01017e-15 0)
(1 1.63685e-15 0)
(1 -4.95805e-15 0)
(1 -4.97937e-15 0)
(1 3.73201e-15 0)
(1 -7.21104e-17 0)
(1 1.2336e-15 0)
(1 3.35692e-15 0)
(1 5.20072e-15 0)
(1 3.004e-15 0)
(1 3.58092e-15 0)
(1 2.10676e-15 0)
(1 -3.698e-15 0)
(1 -4.54792e-15 0)
(1 3.98442e-16 0)
(1 1.00265e-14 0)
(1 5.23856e-15 0)
(1 1.11096e-14 0)
(1 -4.3031e-15 0)
(1 -9.95682e-15 0)
(1 -9.97287e-15 0)
(1 -2.33929e-15 0)
(1 3.41727e-15 0)
(1 1.12676e-15 0)
(1 -1.61231e-15 0)
(1 6.76586e-15 0)
(1 -3.96725e-15 0)
(1 -4.25804e-15 0)
(1 -1.29655e-14 0)
(1 -1.25709e-14 0)
(1 -7.24855e-15 0)
(1 8.81707e-15 0)
(1 -1.53306e-15 0)
(1 1.04004e-15 0)
(1 1.79459e-16 0)
(1 3.11906e-15 0)
(1 3.99904e-15 0)
(1 3.56486e-15 0)
(1 1.84805e-15 0)
(1 -6.07761e-15 0)
(1 4.33688e-15 0)
(1 -7.05048e-16 0)
(1 3.89705e-15 0)
(1 1.21835e-15 0)
(1 1.49606e-14 0)
(1 9.85361e-15 0)
(1 8.5577e-15 0)
(1 6.04202e-15 0)
(1 2.88705e-15 0)
(1 2.26853e-15 0)
(1 5.4055e-15 0)
(1 1.66529e-15 0)
(1 6.61555e-15 0)
(1 3.38367e-15 0)
(1 2.31693e-15 0)
(1 -6.09384e-15 0)
(1 -3.23258e-15 0)
(1 -1.09121e-14 0)
(1 2.83868e-15 0)
(1 7.64426e-15 0)
(1 1.38654e-14 0)
(1 1.71597e-14 0)
(1 1.20309e-14 0)
(1 9.61334e-15 0)
(1 2.09822e-15 0)
(1 -8.60121e-16 0)
(1 -7.58633e-16 0)
(1 -4.45526e-15 0)
(1 -4.86092e-15 0)
(1 6.36616e-15 0)
(1 1.32742e-14 0)
(1 7.21507e-15 0)
(1 3.35716e-15 0)
(1 -5.67604e-15 0)
(1 7.28822e-15 0)
(1 2.89829e-15 0)
(1 2.65159e-15 0)
(1 6.20252e-15 0)
(1 7.54004e-15 0)
(1 4.46362e-15 0)
(1 5.95222e-15 0)
(1 7.82359e-15 0)
(1 6.40127e-15 0)
(1 4.82434e-15 0)
(1 5.7716e-15 0)
(1 9.42384e-15 0)
(1 9.302e-15 0)
(1 3.48809e-15 0)
(1 4.55033e-15 0)
(1 1.62841e-15 0)
(1 6.15633e-15 0)
(1 5.16261e-15 0)
(1 1.04205e-14 0)
(1 8.70159e-15 0)
(1 9.46755e-15 0)
(1 5.14508e-15 0)
(1 5.8314e-15 0)
(1 -4.14972e-16 0)
(1 4.85544e-15 0)
(1 -5.01022e-15 0)
(1 -6.20455e-15 0)
(1 -4.70976e-16 0)
(1 -2.50914e-15 0)
(1 9.06522e-16 0)
(1 -3.71163e-16 0)
(1 5.06978e-15 0)
(1 5.74397e-15 0)
(1 2.24231e-15 0)
(1 5.80347e-15 0)
(1 -5.89394e-15 0)
(1 -2.34697e-15 0)
(1 -3.64368e-15 0)
(1 8.15698e-15 0)
(1 -2.18082e-16 0)
(1 6.51645e-15 0)
(1 -7.20189e-15 0)
(1 4.91704e-15 0)
(1 -5.53327e-15 0)
(1 1.20921e-15 0)
(1 -1.26096e-14 0)
(1 2.09341e-15 0)
(1 1.53075e-16 0)
(1 9.91014e-15 0)
(1 6.62084e-15 0)
(1 3.37787e-15 0)
(1 3.59283e-15 0)
(1 -3.03441e-15 0)
(1 -4.42955e-15 0)
(1 -1.6334e-14 0)
(1 -9.93795e-15 0)
(1 -9.96226e-15 0)
(1 1.23248e-15 0)
(1 1.04969e-14 0)
(1 1.29896e-14 0)
(1 -8.34313e-16 0)
(1 1.98895e-15 0)
(1 -6.63492e-15 0)
(1 -7.6907e-15 0)
(1 -2.4101e-15 0)
(1 3.90555e-15 0)
(1 5.94147e-15 0)
(1 9.95497e-15 0)
(1 9.35699e-15 0)
(1 3.62866e-15 0)
(1 1.36216e-14 0)
(1 -8.21368e-16 0)
(1 1.35972e-15 0)
(1 -9.6701e-15 0)
(1 -4.17045e-15 0)
(1 7.02518e-16 0)
(1 8.94113e-15 0)
(1 3.19963e-15 0)
(1 1.69001e-14 0)
(1 9.72431e-15 0)
(1 9.24529e-15 0)
(1 1.53176e-15 0)
(1 8.20464e-15 0)
(1 -8.20317e-15 0)
(1 -3.52284e-15 0)
(1 -3.6158e-15 0)
(1 1.21232e-14 0)
(1 3.80485e-15 0)
(1 1.28972e-14 0)
(1 9.85541e-15 0)
(1 5.98341e-15 0)
(1 2.29649e-15 0)
(1 1.33297e-15 0)
(1 -6.03481e-15 0)
(1 8.84271e-15 0)
(1 8.62294e-15 0)
(1 1.36013e-14 0)
(1 6.6954e-15 0)
(1 1.09869e-14 0)
(1 4.40675e-16 0)
(1 1.17079e-14 0)
(1 7.09518e-15 0)
(1 5.52692e-16 0)
(1 8.87232e-15 0)
(1 4.49336e-15 0)
(1 -7.36469e-16 0)
(1 7.01571e-15 0)
(1 7.54914e-15 0)
(1 9.4759e-15 0)
(1 3.25372e-15 0)
(1 8.59954e-15 0)
(1 8.1856e-15 0)
(1 9.02427e-15 0)
(1 6.32007e-15 0)
(1 9.41334e-15 0)
(1 3.74173e-15 0)
(1 7.51352e-15 0)
(1 1.15069e-15 0)
(1 1.1841e-14 0)
(1 7.57775e-15 0)
(1 9.87378e-15 0)
(1 7.39765e-15 0)
(1 6.66119e-15 0)
(1 7.8322e-16 0)
(1 4.0572e-16 0)
(1 -4.62665e-16 0)
(1 -2.89905e-15 0)
(1 -1.0878e-16 0)
(1 2.12584e-16 0)
(1 -3.97006e-15 0)
(1 -5.47957e-15 0)
(1 2.08853e-15 0)
(1 1.55813e-17 0)
(1 7.33238e-15 0)
(1 5.85306e-15 0)
(1 1.73624e-15 0)
(1 -4.9398e-15 0)
(1 -1.26333e-15 0)
(1 3.54158e-15 0)
(1 -2.82594e-15 0)
(1 -7.18998e-15 0)
(1 -1.1745e-14 0)
(1 5.30401e-15 0)
(1 2.10021e-15 0)
(1 7.73727e-15 0)
(1 2.59919e-15 0)
(1 -6.07277e-16 0)
(1 -1.1779e-15 0)
(1 -3.7543e-15 0)
(1 1.15677e-16 0)
(1 3.07487e-15 0)
(1 1.70234e-16 0)
(1 -3.03186e-15 0)
(1 -1.70048e-15 0)
(1 9.49931e-17 0)
(1 -6.8475e-16 0)
(1 -2.24682e-15 0)
(1 -2.70249e-15 0)
(1 4.21977e-15 0)
(1 -1.15177e-15 0)
(1 -1.74556e-15 0)
(1 4.83463e-15 0)
(1 -3.93072e-15 0)
(1 -8.45372e-15 0)
(1 -4.87682e-16 0)
(1 4.249e-15 0)
(1 4.24298e-15 0)
(1 6.02308e-15 0)
(1 4.79622e-15 0)
(1 3.03437e-15 0)
(1 -3.01649e-16 0)
(1 -6.01895e-16 0)
(1 -1.04763e-15 0)
(1 -1.47162e-15 0)
(1 9.98699e-16 0)
(1 8.02701e-15 0)
(1 1.12774e-14 0)
(1 1.32621e-14 0)
(1 8.76899e-15 0)
(1 6.17249e-15 0)
(1 8.96049e-15 0)
(1 4.51959e-15 0)
(1 1.86453e-15 0)
(1 7.03892e-15 0)
(1 2.17914e-15 0)
(1 6.52658e-15 0)
(1 2.13986e-15 0)
(1 7.68898e-15 0)
(1 9.99254e-15 0)
(1 1.14355e-14 0)
(1 6.94421e-15 0)
(1 1.06399e-14 0)
(1 7.79915e-15 0)
(1 8.63015e-15 0)
(1 5.45484e-15 0)
(1 3.68624e-15 0)
(1 9.12906e-15 0)
(1 4.78568e-15 0)
(1 6.04984e-15 0)
(1 7.22615e-15 0)
(1 8.1129e-15 0)
(1 6.04476e-15 0)
(1 4.06618e-15 0)
(1 6.65283e-15 0)
(1 4.16162e-15 0)
(1 3.63327e-17 0)
(1 6.78372e-15 0)
(1 4.47696e-15 0)
(1 6.39093e-15 0)
(1 1.86602e-15 0)
(1 6.64259e-15 0)
(1 3.20908e-15 0)
(1 2.46297e-15 0)
(1 6.81049e-15 0)
(1 4.91347e-15 0)
(1 7.11778e-15 0)
(1 6.15811e-15 0)
(1 7.37277e-15 0)
(1 5.13501e-15 0)
(1 4.2875e-15 0)
(1 1.13182e-14 0)
(1 1.4599e-14 0)
(1 1.15903e-14 0)
(1 -1.85616e-15 0)
(1 -4.29666e-15 0)
(1 -2.42391e-15 0)
(1 -1.92274e-16 0)
(1 8.58593e-15 0)
(1 7.07858e-15 0)
(1 1.2908e-14 0)
(1 7.99107e-15 0)
(1 -3.55686e-15 0)
(1 -9.38253e-15 0)
(1 -6.01533e-15 0)
(1 -9.30082e-15 0)
(1 1.0809e-15 0)
(1 -3.1596e-15 0)
(1 2.58455e-17 0)
(1 -6.30267e-15 0)
(1 -4.64866e-15 0)
(1 -1.33957e-15 0)
(1 5.43017e-15 0)
(1 -6.10567e-15 0)
(1 -1.49066e-15 0)
(1 -6.90332e-15 0)
(1 1.22183e-14 0)
(1 3.14376e-16 0)
(1 4.2265e-16 0)
(1 -4.53337e-15 0)
(1 -1.79776e-15 0)
(1 -8.06337e-15 0)
(1 -7.42611e-15 0)
(1 -6.08832e-15 0)
(1 -4.61383e-15 0)
(1 7.24262e-15 0)
(1 7.43769e-16 0)
(1 4.75651e-15 0)
(1 -4.2714e-15 0)
(1 2.2284e-15 0)
(1 -3.95792e-15 0)
(1 -1.25355e-15 0)
(1 3.78531e-15 0)
(1 6.2082e-15 0)
(1 -7.42582e-17 0)
(1 -3.50208e-15 0)
(1 5.74006e-15 0)
(1 3.13089e-15 0)
(1 6.17041e-15 0)
(1 4.59869e-15 0)
(1 -1.08303e-15 0)
(1 -3.15845e-15 0)
(1 -7.00274e-15 0)
(1 -5.3377e-15 0)
(1 1.17874e-14 0)
(1 1.31145e-14 0)
(1 9.38622e-15 0)
(1 5.35816e-15 0)
(1 8.74475e-15 0)
(1 3.16781e-15 0)
(1 3.07722e-15 0)
(1 5.64726e-15 0)
(1 1.54671e-15 0)
(1 -9.77544e-15 0)
(1 1.18174e-15 0)
(1 -1.16892e-15 0)
(1 1.81195e-15 0)
(1 4.93889e-17 0)
(1 1.07499e-14 0)
(1 -1.18605e-15 0)
(1 1.60188e-15 0)
(1 -5.80418e-16 0)
(1 7.67165e-15 0)
(1 3.86532e-15 0)
(1 5.14964e-15 0)
(1 5.12816e-15 0)
(1 8.42335e-15 0)
(1 8.76667e-15 0)
(1 7.0873e-15 0)
(1 5.3121e-15 0)
(1 6.95671e-15 0)
(1 6.79363e-15 0)
(1 3.35261e-15 0)
(1 6.75544e-15 0)
(1 -1.41194e-15 0)
(1 5.80777e-15 0)
(1 6.85546e-15 0)
(1 1.20524e-14 0)
(1 9.2609e-15 0)
(1 7.19795e-15 0)
(1 5.00266e-15 0)
(1 5.15754e-15 0)
(1 2.08236e-15 0)
(1 4.79137e-15 0)
(1 -3.59879e-17 0)
(1 3.15856e-15 0)
(1 6.53066e-15 0)
(1 4.32531e-15 0)
(1 4.61082e-15 0)
(1 1.47147e-15 0)
(1 7.89982e-15 0)
(1 8.56422e-15 0)