/*--------------------------------*- C++ -*----------------------------------*\
| =========                 |                                                 |
| \\      /  F ield         | OpenFOAM: The Open Source CFD Toolbox           |
|  \\    /   O peration     | Version:  v2012                                 |
|   \\  /    A nd           | Website:  www.openfoam.com                      |
|    \\/     M anipulation  |                                                 |
\*---------------------------------------------------------------------------*/
FoamFile
{
    version     2.0;
    format      ascii;
    class       surfaceScalarField;
    location    "19.75";
    object      phi;
}
// * * * * * * * * * * * * * * * * * * * * * * * * * * * * * * * * * * * * * //

dimensions      [0 3 -1 0 0 0 0];
oriented        oriented;


internalField   nonuniform List<scalar> 
130560
(
3.17802e-06
-3.17802e-06
6.35617e-06
-3.17815e-06
9.53457e-06
-3.1784e-06
1.27133e-05
-3.17878e-06
1.58926e-05
-3.17928e-06
1.90725e-05
-3.1799e-06
2.22532e-05
-3.18065e-06
2.54347e-05
-3.18151e-06
2.86172e-05
-3.1825e-06
3.18008e-05
-3.1836e-06
3.49856e-05
-3.18481e-06
3.81717e-05
-3.18613e-06
4.13593e-05
-3.18756e-06
4.45484e-05
-3.18909e-06
4.77391e-05
-3.19072e-06
5.09315e-05
-3.19245e-06
5.41258e-05
-3.19426e-06
5.7322e-05
-3.19616e-06
6.05201e-05
-3.19814e-06
6.37203e-05
-3.2002e-06
6.69226e-05
-3.20232e-06
7.01271e-05
-3.20451e-06
7.33339e-05
-3.20675e-06
7.65429e-05
-3.20904e-06
7.97543e-05
-3.21136e-06
8.2968e-05
-3.21373e-06
8.61841e-05
-3.21611e-06
8.94026e-05
-3.21851e-06
9.26236e-05
-3.22092e-06
9.58469e-05
-3.22333e-06
9.90726e-05
-3.22572e-06
0.000102301
-3.22809e-06
0.000105531
-3.23043e-06
0.000108764
-3.23272e-06
0.000111999
-3.23496e-06
0.000115236
-3.23712e-06
0.000118475
-3.23921e-06
0.000121716
-3.2412e-06
0.000124959
-3.24308e-06
0.000128204
-3.24483e-06
0.000131451
-3.24645e-06
0.000134699
-3.24792e-06
0.000137948
-3.24921e-06
0.000141198
-3.25033e-06
0.000144449
-3.25123e-06
0.000147701
-3.25192e-06
0.000150954
-3.25237e-06
0.000154206
-3.25257e-06
0.000157459
-3.25248e-06
0.000160711
-3.25211e-06
0.000163962
-3.25141e-06
0.000167213
-3.25038e-06
0.000170462
-3.24899e-06
0.000173709
-3.24722e-06
0.000176954
-3.24504e-06
0.000180196
-3.24244e-06
0.000183436
-3.23938e-06
0.000186672
-3.23585e-06
0.000189903
-3.23182e-06
0.000193131
-3.22726e-06
0.000196353
-3.22215e-06
0.000199569
-3.21646e-06
0.000202779
-3.21017e-06
0.000205983
-3.20324e-06
0.000209178
-3.19565e-06
0.000212366
-3.18736e-06
0.000215544
-3.17836e-06
0.000218713
-3.16861e-06
0.000221871
-3.15808e-06
0.000225017
-3.14675e-06
0.000228152
-3.13457e-06
0.000231274
-3.12153e-06
0.000234381
-3.10758e-06
0.000237474
-3.09271e-06
0.000240551
-3.07688e-06
0.000243611
-3.06005e-06
0.000246653
-3.0422e-06
0.000249676
-3.0233e-06
0.00025268
-3.00332e-06
0.000255662
-2.98222e-06
0.000258622
-2.95998e-06
0.000261558
-2.93657e-06
0.00026447
-2.91196e-06
0.000267356
-2.88612e-06
0.000270215
-2.85902e-06
0.000273046
-2.83063e-06
0.000275847
-2.80094e-06
0.000278617
-2.76991e-06
0.000281355
-2.73753e-06
0.000284058
-2.70376e-06
0.000286727
-2.66859e-06
0.000289359
-2.63199e-06
0.000291953
-2.59396e-06
0.000294507
-2.55446e-06
0.000297021
-2.51349e-06
0.000299492
-2.47103e-06
0.000301919
-2.42707e-06
0.0003043
-2.3816e-06
0.000306635
-2.33461e-06
0.000308921
-2.2861e-06
0.000311157
-2.23606e-06
0.000313342
-2.18449e-06
0.000315473
-2.13139e-06
0.00031755
-2.07678e-06
0.000319571
-2.02064e-06
0.000321534
-1.963e-06
0.000323437
-1.90387e-06
0.000325281
-1.84326e-06
0.000327062
-1.78119e-06
0.00032878
-1.71768e-06
0.000330432
-1.65275e-06
0.000332019
-1.58644e-06
0.000333537
-1.51877e-06
0.000334987
-1.44977e-06
0.000336367
-1.37949e-06
0.000337675
-1.30795e-06
0.00033891
-1.23521e-06
0.000340071
-1.16131e-06
0.000341158
-1.0863e-06
0.000342168
-1.01022e-06
0.000343101
-9.33135e-07
0.000343956
-8.55099e-07
0.000344732
-7.76171e-07
0.000345429
-6.96411e-07
0.000346044
-6.15884e-07
0.000346579
-5.34656e-07
0.000347032
-4.52795e-07
0.000347402
-3.70371e-07
0.00034769
-2.87456e-07
0.000347894
-2.04121e-07
0.000348014
-1.20443e-07
0.000348051
-3.64952e-08
0.000348003
4.7645e-08
0.000347871
1.31901e-07
0.000347655
2.16195e-07
0.000347355
3.0045e-07
0.00034697
3.84589e-07
0.000346501
4.68533e-07
0.000345949
5.52207e-07
0.000345314
6.35534e-07
0.000344595
7.18439e-07
0.000343794
8.00847e-07
0.000342912
8.82686e-07
0.000341948
9.63885e-07
0.000340903
1.04437e-06
0.000339779
1.12409e-06
0.000338576
1.20295e-06
0.000337296
1.28092e-06
0.000335938
1.35791e-06
0.000334504
1.43388e-06
0.000332995
1.50877e-06
0.000331412
1.58252e-06
0.000329757
1.65509e-06
0.000328031
1.72643e-06
0.000326234
1.79649e-06
0.000324369
1.86523e-06
0.000322437
1.93262e-06
0.000320438
1.99862e-06
0.000318375
2.06319e-06
0.000316248
2.12632e-06
0.000314061
2.18797e-06
0.000311812
2.24812e-06
0.000309506
2.30676e-06
0.000307142
2.36387e-06
0.000304722
2.41943e-06
0.000302249
2.47343e-06
0.000299723
2.52587e-06
0.000297146
2.57675e-06
0.00029452
2.62605e-06
0.000291846
2.67379e-06
0.000289126
2.71997e-06
0.000286362
2.76458e-06
0.000283554
2.80765e-06
0.000280705
2.84918e-06
0.000277816
2.88918e-06
0.000274888
2.92768e-06
0.000271924
2.96467e-06
0.000268923
3.0002e-06
0.000265889
3.03427e-06
0.000262822
3.0669e-06
0.000259724
3.09812e-06
0.000256596
3.12796e-06
0.00025344
3.15644e-06
0.000250256
3.18358e-06
0.000247047
3.20942e-06
0.000243813
3.23398e-06
0.000240555
3.25729e-06
0.000237276
3.27939e-06
0.000233976
3.3003e-06
0.000230656
3.32006e-06
0.000227317
3.3387e-06
0.000223961
3.35624e-06
0.000220588
3.37273e-06
0.0002172
3.3882e-06
0.000213797
3.40267e-06
0.000210381
3.41619e-06
0.000206952
3.42877e-06
0.000203512
3.44047e-06
0.00020006
3.45131e-06
0.000196599
3.46132e-06
0.000193128
3.47053e-06
0.000189649
3.47899e-06
0.000186163
3.48671e-06
0.000182669
3.49373e-06
0.000179169
3.50009e-06
0.000175663
3.50581e-06
0.000172152
3.51092e-06
0.000168637
3.51545e-06
0.000165117
3.51944e-06
0.000161594
3.52291e-06
0.000158069
3.52588e-06
0.00015454
3.52839e-06
0.00015101
3.53047e-06
0.000147478
3.53213e-06
0.000143944
3.53341e-06
0.00014041
3.53434e-06
0.000136875
3.53492e-06
0.00013334
3.5352e-06
0.000129805
3.53519e-06
0.00012627
3.53491e-06
0.000122735
3.53439e-06
0.000119202
3.53365e-06
0.000115669
3.53271e-06
0.000112137
3.53159e-06
0.000108607
3.5303e-06
0.000105078
3.52887e-06
0.000101551
3.52732e-06
9.80251e-05
3.52565e-06
9.45012e-05
3.5239e-06
9.09791e-05
3.52207e-06
8.7459e-05
3.52018e-06
8.39407e-05
3.51825e-06
8.04244e-05
3.51629e-06
7.69101e-05
3.51431e-06
7.33978e-05
3.51232e-06
6.98874e-05
3.51034e-06
6.63791e-05
3.50838e-06
6.28726e-05
3.50646e-06
5.9368e-05
3.50457e-06
5.58653e-05
3.50273e-06
5.23643e-05
3.50096e-06
4.88651e-05
3.49925e-06
4.53675e-05
3.49762e-06
4.18714e-05
3.49608e-06
3.83768e-05
3.49463e-06
3.48835e-05
3.49327e-06
3.13915e-05
3.49203e-06
2.79006e-05
3.49089e-06
2.44107e-05
3.48986e-06
2.09218e-05
3.48896e-06
1.74336e-05
3.48817e-06
1.39461e-05
3.48751e-06
1.04591e-05
3.48698e-06
6.97251e-06
3.48659e-06
3.48619e-06
3.48632e-06
3.48619e-06
3.1779e-06
-6.35592e-06
6.35592e-06
-6.35617e-06
9.53419e-06
-6.35667e-06
1.27128e-05
-6.35743e-06
1.5892e-05
-6.35843e-06
1.90718e-05
-6.35968e-06
2.22523e-05
-6.36118e-06
2.54337e-05
-6.36291e-06
2.86161e-05
-6.36488e-06
3.17996e-05
-6.36708e-06
3.49843e-05
-6.36951e-06
3.81703e-05
-6.37216e-06
4.13578e-05
-6.37502e-06
4.45468e-05
-6.37809e-06
4.77374e-05
-6.38135e-06
5.09298e-05
-6.38481e-06
5.41239e-05
-6.38844e-06
5.732e-05
-6.39225e-06
6.05181e-05
-6.39622e-06
6.37182e-05
-6.40033e-06
6.69205e-05
-6.40458e-06
7.01249e-05
-6.40896e-06
7.33316e-05
-6.41345e-06
7.65406e-05
-6.41803e-06
7.9752e-05
-6.4227e-06
8.29657e-05
-6.42743e-06
8.61818e-05
-6.43221e-06
8.94003e-05
-6.43702e-06
9.26212e-05
-6.44185e-06
9.58445e-05
-6.44667e-06
9.90703e-05
-6.45147e-06
0.000102298
-6.45622e-06
0.000105529
-6.46091e-06
0.000108762
-6.4655e-06
0.000111997
-6.46999e-06
0.000115234
-6.47433e-06
0.000118473
-6.47851e-06
0.000121715
-6.4825e-06
0.000124958
-6.48628e-06
0.000128203
-6.48981e-06
0.000131449
-6.49306e-06
0.000134697
-6.49601e-06
0.000137947
-6.49862e-06
0.000141197
-6.50086e-06
0.000144449
-6.50269e-06
0.000147701
-6.50409e-06
0.000150954
-6.505e-06
0.000154206
-6.50541e-06
0.000157459
-6.50527e-06
0.000160712
-6.50453e-06
0.000163963
-6.50316e-06
0.000167214
-6.50112e-06
0.000170463
-6.49836e-06
0.000173711
-6.49484e-06
0.000176957
-6.49051e-06
0.000180199
-6.48533e-06
0.000183439
-6.47924e-06
0.000186676
-6.47221e-06
0.000189908
-6.46417e-06
0.000193136
-6.45508e-06
0.000196359
-6.44489e-06
0.000199576
-6.43354e-06
0.000202786
-6.42097e-06
0.00020599
-6.40714e-06
0.000209187
-6.39199e-06
0.000212375
-6.37545e-06
0.000215554
-6.35748e-06
0.000218723
-6.33801e-06
0.000221882
-6.31698e-06
0.00022503
-6.29433e-06
0.000228165
-6.27001e-06
0.000231288
-6.24396e-06
0.000234396
-6.2161e-06
0.00023749
-6.18638e-06
0.000240568
-6.15475e-06
0.000243629
-6.12113e-06
0.000246672
-6.08546e-06
0.000249696
-6.04769e-06
0.000252701
-6.00775e-06
0.000255684
-5.96559e-06
0.000258645
-5.92114e-06
0.000261583
-5.87434e-06
0.000264496
-5.82515e-06
0.000267384
-5.77349e-06
0.000270244
-5.71932e-06
0.000273076
-5.66258e-06
0.000275878
-5.60322e-06
0.00027865
-5.54119e-06
0.000281388
-5.47644e-06
0.000284094
-5.40892e-06
0.000286764
-5.3386e-06
0.000289397
-5.26543e-06
0.000291992
-5.18937e-06
0.000294548
-5.1104e-06
0.000297063
-5.02847e-06
0.000299536
-4.94356e-06
0.000301964
-4.85565e-06
0.000304348
-4.76472e-06
0.000306684
-4.67074e-06
0.000308971
-4.57372e-06
0.000311209
-4.47364e-06
0.000313395
-4.3705e-06
0.000315528
-4.26431e-06
0.000317606
-4.15507e-06
0.000319628
-4.04279e-06
0.000321593
-3.9275e-06
0.000323498
-3.80922e-06
0.000325343
-3.68798e-06
0.000327126
-3.56382e-06
0.000328845
-3.43677e-06
0.000330499
-3.30689e-06
0.000332087
-3.17424e-06
0.000333607
-3.03886e-06
0.000335058
-2.90083e-06
0.000336438
-2.76022e-06
0.000337748
-2.61711e-06
0.000338984
-2.47158e-06
0.000340146
-2.32373e-06
0.000341234
-2.17365e-06
0.000342245
-2.02145e-06
0.000343179
-1.86722e-06
0.000344035
-1.71109e-06
0.000344812
-1.55317e-06
0.000345509
-1.39359e-06
0.000346126
-1.23247e-06
0.000346661
-1.06994e-06
0.000347114
-9.06151e-07
0.000347485
-7.41232e-07
0.000347773
-5.75327e-07
0.000347978
-4.08584e-07
0.000348098
-2.41152e-07
0.000348135
-7.31803e-08
0.000348087
9.51769e-08
0.000347956
2.63766e-07
0.000347739
4.32432e-07
0.000347439
6.0102e-07
0.000347054
7.69375e-07
0.000346585
9.37341e-07
0.000346033
1.10476e-06
0.000345397
1.27149e-06
0.000344678
1.43738e-06
0.000343876
1.60227e-06
0.000342993
1.76602e-06
0.000342028
1.92848e-06
0.000340983
2.08953e-06
0.000339858
2.24902e-06
0.000338654
2.40682e-06
0.000337373
2.5628e-06
0.000336014
2.71685e-06
0.000334579
2.86885e-06
0.000333069
3.01867e-06
0.000331485
3.16623e-06
0.000329829
3.31141e-06
0.000328101
3.45413e-06
0.000326303
3.59429e-06
0.000324437
3.73182e-06
0.000322503
3.86663e-06
0.000320503
3.99866e-06
0.000318438
4.12784e-06
0.00031631
4.25412e-06
0.000314121
4.37744e-06
0.000311871
4.49777e-06
0.000309563
4.61506e-06
0.000307197
4.72928e-06
0.000304776
4.84041e-06
0.000302301
4.94842e-06
0.000299774
5.05331e-06
0.000297196
5.15506e-06
0.000294568
5.25367e-06
0.000291893
5.34915e-06
0.000289171
5.44149e-06
0.000286405
5.53072e-06
0.000283596
5.61684e-06
0.000280745
5.69989e-06
0.000277854
5.77988e-06
0.000274925
5.85685e-06
0.000271959
5.93083e-06
0.000268957
6.00185e-06
0.000265922
6.06997e-06
0.000262853
6.13521e-06
0.000259754
6.19763e-06
0.000256625
6.25728e-06
0.000253467
6.31421e-06
0.000250282
6.36847e-06
0.000247071
6.42011e-06
0.000243836
6.46921e-06
0.000240577
6.5158e-06
0.000237297
6.55997e-06
0.000233995
6.60176e-06
0.000230674
6.64125e-06
0.000227334
6.67849e-06
0.000223977
6.71355e-06
0.000220603
6.74649e-06
0.000217214
6.77739e-06
0.000213811
6.8063e-06
0.000210393
6.8333e-06
0.000206964
6.85844e-06
0.000203522
6.8818e-06
0.00020007
6.90345e-06
0.000196608
6.92343e-06
0.000193137
6.94183e-06
0.000189657
6.95871e-06
0.00018617
6.97412e-06
0.000182675
6.98813e-06
0.000179175
7.00081e-06
0.000175668
7.01222e-06
0.000172157
7.02241e-06
0.000168641
7.03145e-06
0.000165121
7.0394e-06
0.000161597
7.0463e-06
0.000158071
7.05223e-06
0.000154542
7.05722e-06
0.000151011
7.06135e-06
0.000147479
7.06465e-06
0.000143945
7.06719e-06
0.00014041
7.06901e-06
0.000136875
7.07016e-06
0.00013334
7.07069e-06
0.000129804
7.07064e-06
0.000126269
7.07007e-06
0.000122734
7.06901e-06
0.000119201
7.0675e-06
0.000115668
7.0656e-06
0.000112136
7.06333e-06
0.000108605
7.06074e-06
0.000105077
7.05787e-06
0.000101549
7.05474e-06
9.80233e-05
7.0514e-06
9.44994e-05
7.04788e-06
9.09772e-05
7.0442e-06
8.7457e-05
7.04041e-06
8.39387e-05
7.03653e-06
8.04224e-05
7.03259e-06
7.69081e-05
7.02862e-06
7.33958e-05
7.02463e-06
6.98855e-05
7.02066e-06
6.63771e-05
7.01674e-06
6.28707e-05
7.01287e-06
5.93662e-05
7.00909e-06
5.58635e-05
7.00541e-06
5.23626e-05
7.00185e-06
4.88635e-05
6.99843e-06
4.53659e-05
6.99516e-06
4.18699e-05
6.99207e-06
3.83754e-05
6.98916e-06
3.48822e-05
6.98644e-06
3.13903e-05
6.98394e-06
2.78995e-05
6.98166e-06
2.44098e-05
6.9796e-06
2.0921e-05
6.97779e-06
1.74329e-05
6.97622e-06
1.39455e-05
6.9749e-06
1.04587e-05
6.97384e-06
6.97224e-06
6.97304e-06
3.48605e-06
6.97251e-06
6.97224e-06
3.17764e-06
-9.53356e-06
6.35541e-06
-9.53394e-06
9.53344e-06
-9.5347e-06
1.27118e-05
-9.53583e-06
1.58907e-05
-9.53734e-06
1.90703e-05
-9.53922e-06
2.22506e-05
-9.54147e-06
2.54317e-05
-9.54407e-06
2.86139e-05
-9.54703e-06
3.17971e-05
-9.55034e-06
3.49816e-05
-9.55399e-06
3.81674e-05
-9.55797e-06
4.13547e-05
-9.56227e-06
4.45435e-05
-9.56688e-06
4.77339e-05
-9.57179e-06
5.09261e-05
-9.57699e-06
5.41201e-05
-9.58245e-06
5.7316e-05
-9.58817e-06
6.0514e-05
-9.59414e-06
6.3714e-05
-9.60033e-06
6.69161e-05
-9.60672e-06
7.01204e-05
-9.6133e-06
7.3327e-05
-9.62005e-06
7.6536e-05
-9.62694e-06
7.97472e-05
-9.63396e-06
8.29609e-05
-9.64108e-06
8.61769e-05
-9.64827e-06
8.93954e-05
-9.65552e-06
9.26164e-05
-9.66278e-06
9.58397e-05
-9.67004e-06
9.90655e-05
-9.67726e-06
0.000102294
-9.68442e-06
0.000105524
-9.69148e-06
0.000108757
-9.6984e-06
0.000111992
-9.70515e-06
0.00011523
-9.7117e-06
0.000118469
-9.71801e-06
0.000121711
-9.72403e-06
0.000124954
-9.72972e-06
0.000128199
-9.73505e-06
0.000131446
-9.73997e-06
0.000134695
-9.74443e-06
0.000137945
-9.74839e-06
0.000141195
-9.75179e-06
0.000144447
-9.75458e-06
0.0001477
-9.75672e-06
0.000150953
-9.75815e-06
0.000154207
-9.75881e-06
0.00015746
-9.75864e-06
0.000160713
-9.75759e-06
0.000163965
-9.75559e-06
0.000167217
-9.75258e-06
0.000170467
-9.74849e-06
0.000173715
-9.74327e-06
0.000176962
-9.73683e-06
0.000180206
-9.72912e-06
0.000183446
-9.72005e-06
0.000186684
-9.70956e-06
0.000189917
-9.69757e-06
0.000193146
-9.684e-06
0.00019637
-9.66878e-06
0.000199588
-9.65182e-06
0.0002028
-9.63304e-06
0.000206005
-9.61237e-06
0.000209203
-9.58971e-06
0.000212393
-9.56497e-06
0.000215573
-9.53809e-06
0.000218744
-9.50895e-06
0.000221905
-9.47749e-06
0.000225054
-9.4436e-06
0.000228191
-9.40719e-06
0.000231315
-9.36818e-06
0.000234426
-9.32648e-06
0.000237521
-9.28198e-06
0.000240601
-9.2346e-06
0.000243664
-9.18424e-06
0.00024671
-9.13082e-06
0.000249736
-9.07424e-06
0.000252743
-9.01441e-06
0.000255729
-8.95124e-06
0.000258692
-8.88464e-06
0.000261632
-8.81452e-06
0.000264548
-8.74079e-06
0.000267438
-8.66338e-06
0.000270301
-8.58219e-06
0.000273135
-8.49714e-06
0.00027594
-8.40817e-06
0.000278714
-8.31518e-06
0.000281456
-8.21811e-06
0.000284164
-8.11689e-06
0.000286837
-8.01146e-06
0.000289473
-7.90175e-06
0.000292071
-7.78771e-06
0.00029463
-7.66929e-06
0.000297148
-7.54643e-06
0.000299624
-7.4191e-06
0.000302055
-7.28725e-06
0.000304442
-7.15087e-06
0.000306781
-7.00993e-06
0.000309071
-6.8644e-06
0.000311312
-6.71428e-06
0.000313501
-6.55957e-06
0.000315637
-6.40027e-06
0.000317718
-6.23639e-06
0.000319744
-6.06796e-06
0.000321711
-5.89499e-06
0.000323619
-5.71753e-06
0.000325467
-5.53563e-06
0.000327253
-5.34933e-06
0.000328974
-5.1587e-06
0.000330631
-4.96381e-06
0.000332222
-4.76475e-06
0.000333745
-4.5616e-06
0.000335198
-4.35447e-06
0.000336581
-4.14346e-06
0.000337893
-3.92869e-06
0.000339132
-3.71028e-06
0.000340296
-3.48839e-06
0.000341386
-3.26314e-06
0.000342399
-3.03469e-06
0.000343335
-2.80321e-06
0.000344193
-2.56887e-06
0.000344972
-2.33183e-06
0.00034567
-2.0923e-06
0.000346288
-1.85045e-06
0.000346825
-1.6065e-06
0.000347279
-1.36064e-06
0.000347651
-1.11308e-06
0.00034794
-8.64038e-07
0.000348145
-6.13738e-07
0.000348266
-3.624e-07
0.000348303
-1.10252e-07
0.000348256
1.42476e-07
0.000348124
3.95553e-07
0.000347908
6.48747e-07
0.000347607
9.01823e-07
0.000347222
1.15455e-06
0.000346753
1.40669e-06
0.000346199
1.65802e-06
0.000345563
1.9083e-06
0.000344843
2.15731e-06
0.00034404
2.40482e-06
0.000343155
2.65063e-06
0.000342189
2.8945e-06
0.000341143
3.13624e-06
0.000340016
3.37564e-06
0.00033881
3.6125e-06
0.000337527
3.84663e-06
0.000336166
4.07784e-06
0.000334729
4.30597e-06
0.000333216
4.53085e-06
0.00033163
4.75231e-06
0.000329971
4.9702e-06
0.000328241
5.18439e-06
0.000326441
5.39473e-06
0.000324571
5.60111e-06
0.000322635
5.80342e-06
0.000320632
6.00154e-06
0.000318564
6.19538e-06
0.000316433
6.38487e-06
0.000314241
6.56991e-06
0.000311988
6.75045e-06
0.000309677
6.92642e-06
0.000307308
7.09779e-06
0.000304884
7.26451e-06
0.000302406
7.42655e-06
0.000299876
7.58389e-06
0.000297294
7.73652e-06
0.000294663
7.88443e-06
0.000291985
8.02763e-06
0.00028926
8.16613e-06
0.000286491
8.29995e-06
0.000283679
8.42911e-06
0.000280825
8.55365e-06
0.000277931
8.6736e-06
0.000274999
8.78901e-06
0.00027203
8.89993e-06
0.000269026
9.00642e-06
0.000265987
9.10854e-06
0.000262916
9.20634e-06
0.000259814
9.29991e-06
0.000256681
9.38932e-06
0.000253521
9.47464e-06
0.000250334
9.55596e-06
0.00024712
9.63336e-06
0.000243883
9.70693e-06
0.000240622
9.77675e-06
0.000237339
9.84292e-06
0.000234035
9.90553e-06
0.000230711
9.96468e-06
0.00022737
1.00205e-05
0.00022401
1.0073e-05
0.000220634
1.01223e-05
0.000217243
1.01686e-05
0.000213838
1.02118e-05
0.000210419
1.02523e-05
0.000206987
1.02899e-05
0.000203544
1.03249e-05
0.00020009
1.03572e-05
0.000196627
1.03871e-05
0.000193154
1.04147e-05
0.000189673
1.04399e-05
0.000186184
1.04629e-05
0.000182688
1.04839e-05
0.000179186
1.05028e-05
0.000175678
1.05198e-05
0.000172166
1.05351e-05
0.000168649
1.05485e-05
0.000165128
1.05604e-05
0.000161603
1.05707e-05
0.000158076
1.05795e-05
0.000154546
1.05869e-05
0.000151015
1.0593e-05
0.000147481
1.05979e-05
0.000143947
1.06017e-05
0.000140412
1.06043e-05
0.000136876
1.0606e-05
0.00013334
1.06067e-05
0.000129804
1.06066e-05
0.000126268
1.06057e-05
0.000122733
1.06041e-05
0.000119199
1.06018e-05
0.000115665
1.05988e-05
0.000112133
1.05954e-05
0.000108603
1.05915e-05
0.000105073
1.05871e-05
0.000101546
1.05824e-05
9.80198e-05
1.05773e-05
9.44957e-05
1.0572e-05
9.09734e-05
1.05665e-05
8.74531e-05
1.05607e-05
8.39348e-05
1.05549e-05
8.04184e-05
1.05489e-05
7.69041e-05
1.05429e-05
7.33918e-05
1.05369e-05
6.98815e-05
1.05309e-05
6.63733e-05
1.0525e-05
6.28669e-05
1.05192e-05
5.93625e-05
1.05135e-05
5.586e-05
1.0508e-05
5.23592e-05
1.05026e-05
4.88602e-05
1.04974e-05
4.53628e-05
1.04925e-05
4.1867e-05
1.04879e-05
3.83727e-05
1.04835e-05
3.48797e-05
1.04794e-05
3.1388e-05
1.04756e-05
2.78975e-05
1.04722e-05
2.4408e-05
1.04691e-05
2.09194e-05
1.04664e-05
1.74316e-05
1.0464e-05
1.39445e-05
1.0462e-05
1.04579e-05
1.04604e-05
6.9717e-06
1.04592e-05
3.48578e-06
1.04584e-05
1.0458e-05
3.17726e-06
-1.27108e-05
6.35465e-06
-1.27113e-05
9.5323e-06
-1.27123e-05
1.27103e-05
-1.27139e-05
1.58889e-05
-1.27159e-05
1.9068e-05
-1.27184e-05
2.2248e-05
-1.27214e-05
2.54288e-05
-1.27249e-05
2.86106e-05
-1.27288e-05
3.17935e-05
-1.27333e-05
3.49776e-05
-1.27381e-05
3.81631e-05
-1.27435e-05
4.13501e-05
-1.27492e-05
4.45386e-05
-1.27554e-05
4.77287e-05
-1.27619e-05
5.09206e-05
-1.27689e-05
5.41144e-05
-1.27762e-05
5.73101e-05
-1.27839e-05
6.05078e-05
-1.27918e-05
6.37075e-05
-1.28001e-05
6.69095e-05
-1.28087e-05
7.01137e-05
-1.28175e-05
7.33201e-05
-1.28265e-05
7.65289e-05
-1.28357e-05
7.97401e-05
-1.28451e-05
8.29537e-05
-1.28547e-05
8.61697e-05
-1.28643e-05
8.93881e-05
-1.2874e-05
9.26091e-05
-1.28837e-05
9.58325e-05
-1.28934e-05
9.90583e-05
-1.29031e-05
0.000102287
-1.29127e-05
0.000105517
-1.29222e-05
0.00010875
-1.29315e-05
0.000111986
-1.29405e-05
0.000115223
-1.29493e-05
0.000118463
-1.29578e-05
0.000121705
-1.29659e-05
0.000124949
-1.29735e-05
0.000128194
-1.29807e-05
0.000131442
-1.29873e-05
0.000134691
-1.29934e-05
0.000137941
-1.29987e-05
0.000141193
-1.30033e-05
0.000144445
-1.30071e-05
0.000147699
-1.30101e-05
0.000150952
-1.30121e-05
0.000154207
-1.3013e-05
0.000157461
-1.30129e-05
0.000160715
-1.30116e-05
0.000163968
-1.3009e-05
0.000167221
-1.30051e-05
0.000170472
-1.29998e-05
0.000173722
-1.29929e-05
0.000176969
-1.29844e-05
0.000180215
-1.29743e-05
0.000183457
-1.29623e-05
0.000186696
-1.29484e-05
0.000189931
-1.29325e-05
0.000193161
-1.29146e-05
0.000196387
-1.28944e-05
0.000199607
-1.28719e-05
0.000202821
-1.2847e-05
0.000206028
-1.28196e-05
0.000209228
-1.27895e-05
0.00021242
-1.27567e-05
0.000215602
-1.27209e-05
0.000218776
-1.26822e-05
0.000221939
-1.26404e-05
0.00022509
-1.25954e-05
0.00022823
-1.2547e-05
0.000231357
-1.24951e-05
0.00023447
-1.24396e-05
0.000237569
-1.23805e-05
0.000240652
-1.23174e-05
0.000243718
-1.22504e-05
0.000246766
-1.21793e-05
0.000249796
-1.2104e-05
0.000252806
-1.20244e-05
0.000255795
-1.19403e-05
0.000258762
-1.18517e-05
0.000261706
-1.17583e-05
0.000264625
-1.16601e-05
0.000267519
-1.1557e-05
0.000270386
-1.14489e-05
0.000273224
-1.13356e-05
0.000276033
-1.12171e-05
0.000278811
-1.10933e-05
0.000281557
-1.09639e-05
0.000284269
-1.08291e-05
0.000286946
-1.06886e-05
0.000289587
-1.05424e-05
0.00029219
-1.03904e-05
0.000294753
-1.02326e-05
0.000297275
-1.00689e-05
0.000299756
-9.89914e-06
0.000302192
-9.7234e-06
0.000304582
-9.54159e-06
0.000306926
-9.35369e-06
0.000309221
-9.15967e-06
0.000311467
-8.95952e-06
0.00031366
-8.75323e-06
0.000315801
-8.54081e-06
0.000317887
-8.32228e-06
0.000319916
-8.09765e-06
0.000321888
-7.86697e-06
0.000323801
-7.63029e-06
0.000325653
-7.38766e-06
0.000327443
-7.13917e-06
0.000329169
-6.88488e-06
0.00033083
-6.62491e-06
0.000332425
-6.35935e-06
0.000333952
-6.08833e-06
0.000335409
-5.81198e-06
0.000336796
-5.53045e-06
0.000338111
-5.24389e-06
0.000339354
-4.95248e-06
0.000340522
-4.65639e-06
0.000341614
-4.35582e-06
0.000342631
-4.05097e-06
0.000343569
-3.74207e-06
0.00034443
-3.42933e-06
0.000345211
-3.113e-06
0.000345912
-2.79332e-06
0.000346532
-2.47056e-06
0.000347071
-2.14496e-06
0.000347527
-1.81682e-06
0.0003479
-1.48641e-06
0.00034819
-1.15401e-06
0.000348396
-8.1993e-07
0.000348518
-4.8446e-07
0.000348556
-1.47906e-07
0.000348509
1.89425e-07
0.000348377
5.27223e-07
0.000348161
8.65177e-07
0.00034786
1.20297e-06
0.000347474
1.5403e-06
0.000347004
1.87685e-06
0.00034645
2.21231e-06
0.000345812
2.54637e-06
0.00034509
2.87873e-06
0.000344286
3.20909e-06
0.000343399
3.53717e-06
0.000342431
3.86266e-06
0.000341382
4.18529e-06
0.000340253
4.50479e-06
0.000339045
4.8209e-06
0.000337758
5.13336e-06
0.000336394
5.44192e-06
0.000334953
5.74636e-06
0.000333438
6.04644e-06
0.000331848
6.34195e-06
0.000330186
6.6327e-06
0.000328452
6.91848e-06
0.000326647
7.19914e-06
0.000324774
7.47449e-06
0.000322833
7.74439e-06
0.000320826
8.0087e-06
0.000318754
8.26729e-06
0.000316619
8.52005e-06
0.000314422
8.76688e-06
0.000312164
9.00769e-06
0.000309848
9.2424e-06
0.000307475
9.47094e-06
0.000305046
9.69328e-06
0.000302564
9.90937e-06
0.000300028
1.01192e-05
0.000297442
1.03227e-05
0.000294807
1.05199e-05
0.000292123
1.07108e-05
0.000289394
1.08955e-05
0.00028662
1.10738e-05
0.000283803
1.1246e-05
0.000280945
1.1412e-05
0.000278047
1.15719e-05
0.00027511
1.17257e-05
0.000272137
1.18735e-05
0.000269128
1.20154e-05
0.000266085
1.21514e-05
0.000263009
1.22817e-05
0.000259903
1.24064e-05
0.000256767
1.25254e-05
0.000253602
1.26391e-05
0.000250411
1.27474e-05
0.000247194
1.28504e-05
0.000243952
1.29484e-05
0.000240688
1.30413e-05
0.000237401
1.31294e-05
0.000234094
1.32128e-05
0.000230767
1.32915e-05
0.000227422
1.33657e-05
0.000224059
1.34356e-05
0.000220681
1.35012e-05
0.000217286
1.35627e-05
0.000213878
1.36203e-05
0.000210456
1.3674e-05
0.000207022
1.3724e-05
0.000203576
1.37705e-05
0.00020012
1.38135e-05
0.000196654
1.38532e-05
0.000193179
1.38898e-05
0.000189696
1.39233e-05
0.000186205
1.39538e-05
0.000182707
1.39816e-05
0.000179203
1.40067e-05
0.000175694
1.40293e-05
0.000172179
1.40494e-05
0.000168661
1.40673e-05
0.000165138
1.40829e-05
0.000161612
1.40965e-05
0.000158083
1.41082e-05
0.000154552
1.41179e-05
0.00015102
1.4126e-05
0.000147485
1.41324e-05
0.00014395
1.41372e-05
0.000140413
1.41407e-05
0.000136876
1.41428e-05
0.00013334
1.41437e-05
0.000129803
1.41434e-05
0.000126266
1.41421e-05
0.000122731
1.41398e-05
0.000119196
1.41366e-05
0.000115662
1.41326e-05
0.000112129
1.4128e-05
0.000108598
1.41226e-05
0.000105069
1.41167e-05
0.000101541
1.41103e-05
9.80145e-05
1.41035e-05
9.44902e-05
1.40964e-05
9.09677e-05
1.40889e-05
8.74473e-05
1.40812e-05
8.39288e-05
1.40733e-05
8.04125e-05
1.40653e-05
7.68981e-05
1.40573e-05
7.33859e-05
1.40492e-05
6.98756e-05
1.40412e-05
6.63674e-05
1.40332e-05
6.28612e-05
1.40254e-05
5.9357e-05
1.40178e-05
5.58546e-05
1.40103e-05
5.23541e-05
1.40031e-05
4.88553e-05
1.39962e-05
4.53582e-05
1.39896e-05
4.18626e-05
1.39834e-05
3.83686e-05
1.39775e-05
3.4876e-05
1.3972e-05
3.13846e-05
1.3967e-05
2.78944e-05
1.39624e-05
2.44053e-05
1.39583e-05
2.0917e-05
1.39546e-05
1.74296e-05
1.39514e-05
1.39429e-05
1.39488e-05
1.04567e-05
1.39466e-05
6.9709e-06
1.3945e-05
3.48538e-06
1.39439e-05
1.39434e-05
3.17675e-06
-1.58876e-05
6.35364e-06
-1.58882e-05
9.53078e-06
-1.58895e-05
1.27083e-05
-1.58914e-05
1.58863e-05
-1.58939e-05
1.9065e-05
-1.58971e-05
2.22445e-05
-1.59008e-05
2.54248e-05
-1.59052e-05
2.86061e-05
-1.59102e-05
3.17886e-05
-1.59157e-05
3.49723e-05
-1.59218e-05
3.81574e-05
-1.59285e-05
4.13439e-05
-1.59357e-05
4.4532e-05
-1.59435e-05
4.77218e-05
-1.59517e-05
5.09133e-05
-1.59604e-05
5.41067e-05
-1.59696e-05
5.73021e-05
-1.59792e-05
6.04995e-05
-1.59892e-05
6.3699e-05
-1.59996e-05
6.69007e-05
-1.60104e-05
7.01046e-05
-1.60214e-05
7.33109e-05
-1.60328e-05
7.65195e-05
-1.60444e-05
7.97305e-05
-1.60562e-05
8.2944e-05
-1.60681e-05
8.61599e-05
-1.60802e-05
8.93784e-05
-1.60924e-05
9.25993e-05
-1.61047e-05
9.58228e-05
-1.61169e-05
9.90487e-05
-1.61291e-05
0.000102277
-1.61411e-05
0.000105508
-1.61531e-05
0.000108741
-1.61647e-05
0.000111977
-1.61762e-05
0.000115215
-1.61872e-05
0.000118455
-1.61979e-05
0.000121697
-1.62081e-05
0.000124942
-1.62178e-05
0.000128188
-1.62269e-05
0.000131436
-1.62353e-05
0.000134685
-1.6243e-05
0.000137936
-1.62498e-05
0.000141189
-1.62557e-05
0.000144442
-1.62606e-05
0.000147696
-1.62644e-05
0.000150951
-1.6267e-05
0.000154207
-1.62683e-05
0.000157462
-1.62683e-05
0.000160717
-1.62668e-05
0.000163972
-1.62638e-05
0.000167226
-1.62591e-05
0.000170479
-1.62526e-05
0.00017373
-1.62442e-05
0.00017698
-1.62337e-05
0.000180226
-1.62212e-05
0.000183471
-1.62064e-05
0.000186711
-1.61893e-05
0.000189949
-1.61696e-05
0.000193181
-1.61474e-05
0.000196409
-1.61223e-05
0.000199632
-1.60944e-05
0.000202848
-1.60635e-05
0.000206058
-1.60294e-05
0.000209261
-1.5992e-05
0.000212455
-1.59512e-05
0.000215641
-1.59068e-05
0.000218817
-1.58586e-05
0.000221984
-1.58066e-05
0.000225139
-1.57505e-05
0.000228282
-1.56902e-05
0.000231412
-1.56256e-05
0.000234529
-1.55565e-05
0.000237632
-1.54828e-05
0.000240718
-1.54042e-05
0.000243789
-1.53207e-05
0.000246841
-1.52321e-05
0.000249876
-1.51382e-05
0.00025289
-1.50389e-05
0.000255884
-1.4934e-05
0.000258855
-1.48234e-05
0.000261804
-1.47069e-05
0.000264728
-1.45844e-05
0.000267627
-1.44557e-05
0.000270499
-1.43208e-05
0.000273343
-1.41794e-05
0.000276157
-1.40314e-05
0.00027894
-1.38768e-05
0.000281692
-1.37153e-05
0.00028441
-1.35469e-05
0.000287092
-1.33714e-05
0.000289739
-1.31889e-05
0.000292347
-1.2999e-05
0.000294917
-1.28018e-05
0.000297445
-1.25973e-05
0.000299931
-1.23852e-05
0.000302373
-1.21656e-05
0.00030477
-1.19384e-05
0.00030712
-1.17036e-05
0.000309422
-1.14611e-05
0.000311673
-1.12109e-05
0.000313873
-1.0953e-05
0.000316019
-1.06875e-05
0.000318111
-1.04143e-05
0.000320147
-1.01334e-05
0.000322125
-9.84496e-06
0.000324044
-9.54899e-06
0.000325902
-9.24558e-06
0.000327697
-8.9348e-06
0.000329429
-8.61676e-06
0.000331096
-8.29159e-06
0.000332696
-7.95942e-06
0.000334228
-7.62039e-06
0.000335691
-7.27469e-06
0.000337083
-6.92247e-06
0.000338403
-6.56396e-06
0.00033965
-6.19935e-06
0.000340822
-5.82888e-06
0.000341919
-5.45278e-06
0.000342939
-5.07132e-06
0.000343882
-4.68476e-06
0.000344746
-4.2934e-06
0.000345531
-3.89752e-06
0.000346235
-3.49744e-06
0.000346858
-3.09348e-06
0.000347399
-2.68598e-06
0.000347857
-2.27527e-06
0.000348233
-1.86172e-06
0.000348524
-1.44567e-06
0.000348732
-1.02751e-06
0.000348855
-6.07606e-07
0.000348893
-1.86339e-07
0.000348847
2.35905e-07
0.000348715
6.58736e-07
0.000348499
1.08176e-06
0.000348197
1.50459e-06
0.000347811
1.92684e-06
0.000347339
2.3481e-06
0.000346784
2.768e-06
0.000346144
3.18614e-06
0.00034542
3.60215e-06
0.000344614
4.01565e-06
0.000343725
4.42628e-06
0.000342754
4.83367e-06
0.000341702
5.23747e-06
0.000340569
5.63734e-06
0.000339357
6.03296e-06
0.000338066
6.42399e-06
0.000336698
6.81013e-06
0.000335253
7.1911e-06
0.000333733
7.56659e-06
0.000332139
7.93636e-06
0.000330471
8.30015e-06
0.000328732
8.65772e-06
0.000326922
9.00884e-06
0.000325044
9.35332e-06
0.000323097
9.69095e-06
0.000321084
1.00216e-05
0.000319006
1.0345e-05
0.000316865
1.06612e-05
0.000314662
1.09699e-05
0.000312399
1.1271e-05
0.000310077
1.15645e-05
0.000307698
1.18503e-05
0.000305262
1.21283e-05
0.000302773
1.23985e-05
0.000300232
1.26608e-05
0.000297639
1.29152e-05
0.000294998
1.31617e-05
0.000292308
1.34003e-05
0.000289573
1.3631e-05
0.000286792
1.38539e-05
0.000283969