/*--------------------------------*- C++ -*----------------------------------*\
| =========                 |                                                 |
| \\      /  F ield         | OpenFOAM: The Open Source CFD Toolbox           |
|  \\    /   O peration     | Version:  v2012                                 |
|   \\  /    A nd           | Website:  www.openfoam.com                      |
|    \\/     M anipulation  |                                                 |
\*---------------------------------------------------------------------------*/
FoamFile
{
    version     2.0;
    format      ascii;
    class       volVectorField;
    location    "19.75";
    object      Psi;
}
// * * * * * * * * * * * * * * * * * * * * * * * * * * * * * * * * * * * * * //

dimensions      [0 2 -1 0 0 0 0];


internalField   nonuniform List<vector> 
65536
(
(0 0 7.94434e-06)
(0 0 2.38334e-05)
(0 0 3.97233e-05)
(0 0 5.56149e-05)
(0 0 7.15086e-05)
(0 0 8.74051e-05)
(0 0 0.000103305)
(0 0 0.000119209)
(0 0 0.000135118)
(0 0 0.000151031)
(0 0 0.000166951)
(0 0 0.000182877)
(0 0 0.00019881)
(0 0 0.00021475)
(0 0 0.000230698)
(0 0 0.000246654)
(0 0 0.000262619)
(0 0 0.000278594)
(0 0 0.000294578)
(0 0 0.000310572)
(0 0 0.000326577)
(0 0 0.000342592)
(0 0 0.000358619)
(0 0 0.000374656)
(0 0 0.000390706)
(0 0 0.000406766)
(0 0 0.000422839)
(0 0 0.000438924)
(0 0 0.000455021)
(0 0 0.000471129)
(0 0 0.00048725)
(0 0 0.000503383)
(0 0 0.000519527)
(0 0 0.000535683)
(0 0 0.00055185)
(0 0 0.000568028)
(0 0 0.000584216)
(0 0 0.000600415)
(0 0 0.000616624)
(0 0 0.000632841)
(0 0 0.000649067)
(0 0 0.0006653)
(0 0 0.000681541)
(0 0 0.000697787)
(0 0 0.000714038)
(0 0 0.000730294)
(0 0 0.000746552)
(0 0 0.000762812)
(0 0 0.000779072)
(0 0 0.00079533)
(0 0 0.000811586)
(0 0 0.000827838)
(0 0 0.000844084)
(0 0 0.000860321)
(0 0 0.000876549)
(0 0 0.000892765)
(0 0 0.000908966)
(0 0 0.000925151)
(0 0 0.000941318)
(0 0 0.000957462)
(0 0 0.000973583)
(0 0 0.000989676)
(0 0 0.00100574)
(0 0 0.00102177)
(0 0 0.00103776)
(0 0 0.00105372)
(0 0 0.00106963)
(0 0 0.00108549)
(0 0 0.00110131)
(0 0 0.00111707)
(0 0 0.00113277)
(0 0 0.0011484)
(0 0 0.00116397)
(0 0 0.00117947)
(0 0 0.00119489)
(0 0 0.00121023)
(0 0 0.00122548)
(0 0 0.00124064)
(0 0 0.00125571)
(0 0 0.00127067)
(0 0 0.00128552)
(0 0 0.00130026)
(0 0 0.00131488)
(0 0 0.00132937)
(0 0 0.00134373)
(0 0 0.00135795)
(0 0 0.00137203)
(0 0 0.00138595)
(0 0 0.00139972)
(0 0 0.00141332)
(0 0 0.00142675)
(0 0 0.00144)
(0 0 0.00145306)
(0 0 0.00146593)
(0 0 0.0014786)
(0 0 0.00149106)
(0 0 0.0015033)
(0 0 0.00151532)
(0 0 0.00152711)
(0 0 0.00153867)
(0 0 0.00154997)
(0 0 0.00156102)
(0 0 0.00157181)
(0 0 0.00158233)
(0 0 0.00159257)
(0 0 0.00160253)
(0 0 0.0016122)
(0 0 0.00162157)
(0 0 0.00163063)
(0 0 0.00163938)
(0 0 0.00164781)
(0 0 0.0016559)
(0 0 0.00166367)
(0 0 0.00167109)
(0 0 0.00167817)
(0 0 0.00168489)
(0 0 0.00169125)
(0 0 0.00169724)
(0 0 0.00170286)
(0 0 0.00170811)
(0 0 0.00171297)
(0 0 0.00171744)
(0 0 0.00172152)
(0 0 0.00172521)
(0 0 0.00172849)
(0 0 0.00173137)
(0 0 0.00173384)
(0 0 0.0017359)
(0 0 0.00173755)
(0 0 0.00173879)
(0 0 0.0017396)
(0 0 0.00174)
(0 0 0.00173997)
(0 0 0.00173953)
(0 0 0.00173866)
(0 0 0.00173738)
(0 0 0.00173567)
(0 0 0.00173354)
(0 0 0.001731)
(0 0 0.00172803)
(0 0 0.00172465)
(0 0 0.00172086)
(0 0 0.00171665)
(0 0 0.00171204)
(0 0 0.00170703)
(0 0 0.00170161)
(0 0 0.0016958)
(0 0 0.00168959)
(0 0 0.001683)
(0 0 0.00167603)
(0 0 0.00166868)
(0 0 0.00166095)
(0 0 0.00165286)
(0 0 0.00164441)
(0 0 0.00163561)
(0 0 0.00162646)
(0 0 0.00161697)
(0 0 0.00160715)
(0 0 0.001597)
(0 0 0.00158653)
(0 0 0.00157575)
(0 0 0.00156466)
(0 0 0.00155328)
(0 0 0.00154161)
(0 0 0.00152965)
(0 0 0.00151742)
(0 0 0.00150493)
(0 0 0.00149218)
(0 0 0.00147917)
(0 0 0.00146593)
(0 0 0.00145245)
(0 0 0.00143874)
(0 0 0.00142481)
(0 0 0.00141067)
(0 0 0.00139633)
(0 0 0.00138179)
(0 0 0.00136706)
(0 0 0.00135215)
(0 0 0.00133707)
(0 0 0.00132182)
(0 0 0.00130641)
(0 0 0.00129084)
(0 0 0.00127513)
(0 0 0.00125929)
(0 0 0.0012433)
(0 0 0.0012272)
(0 0 0.00121097)
(0 0 0.00119463)
(0 0 0.00117818)
(0 0 0.00116163)
(0 0 0.00114499)
(0 0 0.00112825)
(0 0 0.00111143)
(0 0 0.00109453)
(0 0 0.00107755)
(0 0 0.0010605)
(0 0 0.00104339)
(0 0 0.00102622)
(0 0 0.00100899)
(0 0 0.000991709)
(0 0 0.000974379)
(0 0 0.000957006)
(0 0 0.000939592)
(0 0 0.00092214)
(0 0 0.000904656)
(0 0 0.000887141)
(0 0 0.000869599)
(0 0 0.000852032)
(0 0 0.000834445)
(0 0 0.000816838)
(0 0 0.000799216)
(0 0 0.00078158)
(0 0 0.000763932)
(0 0 0.000746275)
(0 0 0.00072861)
(0 0 0.00071094)
(0 0 0.000693266)
(0 0 0.00067559)
(0 0 0.000657913)
(0 0 0.000640237)
(0 0 0.000622563)
(0 0 0.000604891)
(0 0 0.000587224)
(0 0 0.000569563)
(0 0 0.000551907)
(0 0 0.000534258)
(0 0 0.000516616)
(0 0 0.000498982)
(0 0 0.000481357)
(0 0 0.000463741)
(0 0 0.000446134)
(0 0 0.000428537)
(0 0 0.000410949)
(0 0 0.000393371)
(0 0 0.000375803)
(0 0 0.000358245)
(0 0 0.000340697)
(0 0 0.000323158)
(0 0 0.000305629)
(0 0 0.000288109)
(0 0 0.000270599)
(0 0 0.000253097)
(0 0 0.000235603)
(0 0 0.000218117)
(0 0 0.000200639)
(0 0 0.000183167)
(0 0 0.000165703)
(0 0 0.000148244)
(0 0 0.00013079)
(0 0 0.000113342)
(0 0 9.58972e-05)
(0 0 7.84564e-05)
(0 0 6.10185e-05)
(0 0 4.3583e-05)
(0 0 2.61491e-05)
(0 0 8.71627e-06)
(0 0 2.38328e-05)
(0 0 7.14992e-05)
(0 0 0.000119168)
(0 0 0.000166843)
(0 0 0.000214523)
(0 0 0.000262212)
(0 0 0.000309911)
(0 0 0.000357623)
(0 0 0.000405348)
(0 0 0.000453089)
(0 0 0.000500847)
(0 0 0.000548624)
(0 0 0.000596422)
(0 0 0.000644242)
(0 0 0.000692085)
(0 0 0.000739954)
(0 0 0.000787849)
(0 0 0.000835772)
(0 0 0.000883724)
(0 0 0.000931707)
(0 0 0.00097972)
(0 0 0.00102777)
(0 0 0.00107585)
(0 0 0.00112396)
(0 0 0.00117211)
(0 0 0.00122029)
(0 0 0.00126851)
(0 0 0.00131676)
(0 0 0.00136505)
(0 0 0.00141338)
(0 0 0.00146174)
(0 0 0.00151014)
(0 0 0.00155857)
(0 0 0.00160704)
(0 0 0.00165554)
(0 0 0.00170407)
(0 0 0.00175264)
(0 0 0.00180124)
(0 0 0.00184986)
(0 0 0.00189852)
(0 0 0.00194719)
(0 0 0.0019959)
(0 0 0.00204462)
(0 0 0.00209336)
(0 0 0.00214211)
(0 0 0.00219088)
(0 0 0.00223966)
(0 0 0.00228844)
(0 0 0.00233722)
(0 0 0.002386)
(0 0 0.00243477)
(0 0 0.00248352)
(0 0 0.00253226)
(0 0 0.00258098)
(0 0 0.00262966)
(0 0 0.00267831)
(0 0 0.00272692)
(0 0 0.00277548)
(0 0 0.00282398)
(0 0 0.00287241)
(0 0 0.00292078)
(0 0 0.00296906)
(0 0 0.00301725)
(0 0 0.00306535)
(0 0 0.00311333)
(0 0 0.0031612)
(0 0 0.00320894)
(0 0 0.00325653)
(0 0 0.00330398)
(0 0 0.00335126)
(0 0 0.00339837)
(0 0 0.00344528)
(0 0 0.00349199)
(0 0 0.00353849)
(0 0 0.00358476)
(0 0 0.00363078)
(0 0 0.00367655)
(0 0 0.00372203)
(0 0 0.00376723)
(0 0 0.00381212)
(0 0 0.00385668)
(0 0 0.0039009)
(0 0 0.00394477)
(0 0 0.00398825)
(0 0 0.00403134)
(0 0 0.00407401)
(0 0 0.00411624)
(0 0 0.00415802)
(0 0 0.00419933)
(0 0 0.00424014)
(0 0 0.00428043)
(0 0 0.00432019)
(0 0 0.00435939)
(0 0 0.004398)
(0 0 0.00443601)
(0 0 0.0044734)
(0 0 0.00451014)
(0 0 0.00454621)
(0 0 0.00458158)
(0 0 0.00461624)
(0 0 0.00465017)
(0 0 0.00468333)
(0 0 0.0047157)
(0 0 0.00474727)
(0 0 0.00477801)
(0 0 0.00480789)
(0 0 0.0048369)
(0 0 0.00486501)
(0 0 0.00489221)
(0 0 0.00491846)
(0 0 0.00494375)
(0 0 0.00496805)
(0 0 0.00499135)
(0 0 0.00501363)
(0 0 0.00503486)
(0 0 0.00505502)
(0 0 0.00507411)
(0 0 0.0050921)
(0 0 0.00510897)
(0 0 0.0051247)
(0 0 0.00513929)
(0 0 0.00515272)
(0 0 0.00516496)
(0 0 0.00517602)
(0 0 0.00518588)
(0 0 0.00519452)
(0 0 0.00520194)
(0 0 0.00520813)
(0 0 0.00521308)
(0 0 0.00521678)
(0 0 0.00521923)
(0 0 0.00522042)
(0 0 0.00522035)
(0 0 0.00521901)
(0 0 0.00521642)
(0 0 0.00521256)
(0 0 0.00520743)
(0 0 0.00520105)
(0 0 0.00519341)
(0 0 0.00518451)
(0 0 0.00517437)
(0 0 0.00516299)
(0 0 0.00515037)
(0 0 0.00513653)
(0 0 0.00512148)
(0 0 0.00510523)
(0 0 0.00508779)
(0 0 0.00506917)
(0 0 0.00504939)
(0 0 0.00502846)
(0 0 0.0050064)
(0 0 0.00498322)
(0 0 0.00495895)
(0 0 0.0049336)
(0 0 0.00490718)
(0 0 0.00487973)
(0 0 0.00485125)
(0 0 0.00482177)
(0 0 0.00479132)
(0 0 0.0047599)
(0 0 0.00472755)
(0 0 0.00469428)
(0 0 0.00466013)
(0 0 0.0046251)
(0 0 0.00458923)
(0 0 0.00455254)
(0 0 0.00451505)
(0 0 0.00447678)
(0 0 0.00443776)
(0 0 0.00439802)
(0 0 0.00435756)
(0 0 0.00431643)
(0 0 0.00427464)
(0 0 0.00423222)
(0 0 0.00418918)
(0 0 0.00414555)
(0 0 0.00410136)
(0 0 0.00405663)
(0 0 0.00401137)
(0 0 0.00396561)
(0 0 0.00391937)
(0 0 0.00387267)
(0 0 0.00382554)
(0 0 0.00377799)
(0 0 0.00373004)
(0 0 0.00368171)
(0 0 0.00363302)
(0 0 0.003584)
(0 0 0.00353465)
(0 0 0.00348499)
(0 0 0.00343505)
(0 0 0.00338484)
(0 0 0.00333437)
(0 0 0.00328366)
(0 0 0.00323272)
(0 0 0.00318158)
(0 0 0.00313024)
(0 0 0.00307871)
(0 0 0.00302702)
(0 0 0.00297517)
(0 0 0.00292318)
(0 0 0.00287106)
(0 0 0.00281881)
(0 0 0.00276645)
(0 0 0.002714)
(0 0 0.00266145)
(0 0 0.00260882)
(0 0 0.00255612)
(0 0 0.00250335)
(0 0 0.00245053)
(0 0 0.00239766)
(0 0 0.00234475)
(0 0 0.0022918)
(0 0 0.00223883)
(0 0 0.00218584)
(0 0 0.00213282)
(0 0 0.0020798)
(0 0 0.00202677)
(0 0 0.00197374)
(0 0 0.00192071)
(0 0 0.00186768)
(0 0 0.00181467)
(0 0 0.00176167)
(0 0 0.00170868)
(0 0 0.00165571)
(0 0 0.00160276)
(0 0 0.00154984)
(0 0 0.00149694)
(0 0 0.00144406)
(0 0 0.00139121)
(0 0 0.00133839)
(0 0 0.0012856)
(0 0 0.00123284)
(0 0 0.0011801)
(0 0 0.0011274)
(0 0 0.00107472)
(0 0 0.00102208)
(0 0 0.000969464)
(0 0 0.000916878)
(0 0 0.000864319)
(0 0 0.000811787)
(0 0 0.000759281)
(0 0 0.0007068)
(0 0 0.000654343)
(0 0 0.000601909)
(0 0 0.000549495)
(0 0 0.000497102)
(0 0 0.000444726)
(0 0 0.000392366)
(0 0 0.000340021)
(0 0 0.000287688)
(0 0 0.000235366)
(0 0 0.000183053)
(0 0 0.000130747)
(0 0 7.84464e-05)
(0 0 2.61485e-05)
(0 0 3.97202e-05)
(0 0 0.000119162)
(0 0 0.000198609)
(0 0 0.000278064)
(0 0 0.000357529)
(0 0 0.000437009)
(0 0 0.000516506)
(0 0 0.000596023)
(0 0 0.000675563)
(0 0 0.000755129)
(0 0 0.000834724)
(0 0 0.000914351)
(0 0 0.000994012)
(0 0 0.00107371)
(0 0 0.00115345)
(0 0 0.00123323)
(0 0 0.00131305)
(0 0 0.00139292)
(0 0 0.00147284)
(0 0 0.00155281)
(0 0 0.00163283)
(0 0 0.00171291)
(0 0 0.00179304)
(0 0 0.00187323)
(0 0 0.00195347)
(0 0 0.00203377)
(0 0 0.00211414)
(0 0 0.00219456)
(0 0 0.00227504)
(0 0 0.00235559)
(0 0 0.00243619)
(0 0 0.00251686)
(0 0 0.00259758)
(0 0 0.00267836)
(0 0 0.0027592)
(0 0 0.00284009)
(0 0 0.00292103)
(0 0 0.00300203)
(0 0 0.00308307)
(0 0 0.00316417)
(0 0 0.0032453)
(0 0 0.00332647)
(0 0 0.00340768)
(0 0 0.00348891)
(0 0 0.00357018)
(0 0 0.00365146)
(0 0 0.00373275)
(0 0 0.00381406)
(0 0 0.00389537)
(0 0 0.00397667)
(0 0 0.00405796)
(0 0 0.00413922)
(0 0 0.00422046)
(0 0 0.00430166)
(0 0 0.00438281)
(0 0 0.0044639)
(0 0 0.00454492)
(0 0 0.00462586)
(0 0 0.0047067)
(0 0 0.00478744)
(0 0 0.00486805)
(0 0 0.00494853)
(0 0 0.00502887)
(0 0 0.00510904)
(0 0 0.00518902)
(0 0 0.00526881)
(0 0 0.00534839)
(0 0 0.00542773)
(0 0 0.00550682)
(0 0 0.00558563)
(0 0 0.00566415)
(0 0 0.00574236)
(0 0 0.00582023)
(0 0 0.00589774)
(0 0 0.00597487)
(0 0 0.00605159)
(0 0 0.00612788)
(0 0 0.00620371)
(0 0 0.00627906)
(0 0 0.00635389)
(0 0 0.00642818)
(0 0 0.00650191)
(0 0 0.00657503)
(0 0 0.00664752)
(0 0 0.00671936)
(0 0 0.0067905)
(0 0 0.00686091)
(0 0 0.00693057)
(0 0 0.00699944)
(0 0 0.00706748)
(0 0 0.00713465)
(0 0 0.00720094)
(0 0 0.00726629)
(0 0 0.00733067)
(0 0 0.00739405)
(0 0 0.00745639)
(0 0 0.00751764)
(0 0 0.00757779)
(0 0 0.00763677)
(0 0 0.00769456)
(0 0 0.00775112)
(0 0 0.00780642)
(0 0 0.0078604)
(0 0 0.00791304)
(0 0 0.00796429)
(0 0 0.00801413)
(0 0 0.0080625)
(0 0 0.00810938)
(0 0 0.00815473)
(0 0 0.0081985)
(0 0 0.00824067)
(0 0 0.0082812)
(0 0 0.00832006)
(0 0 0.0083572)
(0 0 0.00839261)
(0 0 0.00842624)
(0 0 0.00845807)
(0 0 0.00848807)
(0 0 0.0085162)
(0 0 0.00854245)
(0 0 0.00856678)
(0 0 0.00858917)
(0 0 0.0086096)
(0 0 0.00862804)
(0 0 0.00864448)
(0 0 0.00865889)
(0 0 0.00867127)
(0 0 0.00868159)
(0 0 0.00868985)
(0 0 0.00869602)
(0 0 0.00870011)
(0 0 0.0087021)
(0 0 0.00870198)
(0 0 0.00869976)
(0 0 0.00869544)
(0 0 0.008689)
(0 0 0.00868046)
(0 0 0.00866981)
(0 0 0.00865707)
(0 0 0.00864224)
(0 0 0.00862532)
(0 0 0.00860635)
(0 0 0.00858531)
(0 0 0.00856224)
(0 0 0.00853714)
(0 0 0.00851004)
(0 0 0.00848096)
(0 0 0.00844991)
(0 0 0.00841692)
(0 0 0.00838203)
(0 0 0.00834524)
(0 0 0.00830659)
(0 0 0.00826612)
(0 0 0.00822384)
(0 0 0.0081798)
(0 0 0.00813402)
(0 0 0.00808653)
(0 0 0.00803738)
(0 0 0.00798659)
(0 0 0.00793421)
(0 0 0.00788027)
(0 0 0.0078248)
(0 0 0.00776784)
(0 0 0.00770944)
(0 0 0.00764963)
(0 0 0.00758845)
(0 0 0.00752594)
(0 0 0.00746214)
(0 0 0.00739708)
(0 0 0.00733081)
(0 0 0.00726336)
(0 0 0.00719478)
(0 0 0.00712511)
(0 0 0.00705437)
(0 0 0.00698262)
(0 0 0.00690989)
(0 0 0.00683621)
(0 0 0.00676162)
(0 0 0.00668617)
(0 0 0.00660988)
(0 0 0.00653279)
(0 0 0.00645494)
(0 0 0.00637636)
(0 0 0.00629709)
(0 0 0.00621715)
(0 0 0.00613658)
(0 0 0.00605542)
(0 0 0.00597369)
(0 0 0.00589142)
(0 0 0.00580864)
(0 0 0.00572538)
(0 0 0.00564168)
(0 0 0.00555754)
(0 0 0.00547301)
(0 0 0.0053881)
(0 0 0.00530285)
(0 0 0.00521726)
(0 0 0.00513138)
(0 0 0.00504521)
(0 0 0.00495878)
(0 0 0.00487212)
(0 0 0.00478523)
(0 0 0.00469814)
(0 0 0.00461087)
(0 0 0.00452343)
(0 0 0.00443584)
(0 0 0.00434811)
(0 0 0.00426027)
(0 0 0.00417232)
(0 0 0.00408427)
(0 0 0.00399615)
(0 0 0.00390795)
(0 0 0.0038197)
(0 0 0.00373141)
(0 0 0.00364308)
(0 0 0.00355472)
(0 0 0.00346634)
(0 0 0.00337795)
(0 0 0.00328956)
(0 0 0.00320117)
(0 0 0.0031128)
(0 0 0.00302443)
(0 0 0.00293609)
(0 0 0.00284778)
(0 0 0.0027595)
(0 0 0.00267125)
(0 0 0.00258304)
(0 0 0.00249487)
(0 0 0.00240674)
(0 0 0.00231866)
(0 0 0.00223062)
(0 0 0.00214263)
(0 0 0.00205469)
(0 0 0.0019668)
(0 0 0.00187896)
(0 0 0.00179117)
(0 0 0.00170343)
(0 0 0.00161574)
(0 0 0.0015281)
(0 0 0.0014405)
(0 0 0.00135295)
(0 0 0.00126544)
(0 0 0.00117797)
(0 0 0.00109055)
(0 0 0.00100316)
(0 0 0.000915804)
(0 0 0.000828483)
(0 0 0.000741191)
(0 0 0.000653927)
(0 0 0.000566687)
(0 0 0.000479468)
(0 0 0.000392267)
(0 0 0.000305081)
(0 0 0.000217907)
(0 0 0.000130741)
(0 0 4.35797e-05)
(0 0 5.56061e-05)
(0 0 0.00016682)
(0 0 0.000278042)
(0 0 0.000389274)
(0 0 0.000500521)
(0 0 0.000611788)
(0 0 0.00072308)
(0 0 0.000834399)
(0 0 0.000945751)
(0 0 0.00105714)
(0 0 0.00116857)
(0 0 0.00128004)
(0 0 0.00139156)
(0 0 0.00150314)
(0 0 0.00161477)
(0 0 0.00172646)
(0 0 0.00183821)
(0 0 0.00195002)
(0 0 0.00206191)
(0 0 0.00217386)
(0 0 0.00228589)
(0 0 0.00239799)
(0 0 0.00251017)
(0 0 0.00262243)
(0 0 0.00273478)
(0 0 0.0028472)
(0 0 0.00295971)
(0 0 0.0030723)
(0 0 0.00318498)
(0 0 0.00329774)
(0 0 0.00341059)
(0 0 0.00352352)
(0 0 0.00363653)
(0 0 0.00374962)
(0 0 0.0038628)
(0 0 0.00397605)
(0 0 0.00408937)
(0 0 0.00420277)
(0 0 0.00431624)
(0 0 0.00442977)
(0 0 0.00454336)
(0 0 0.00465701)
(0 0 0.0047707)
(0 0 0.00488444)
(0 0 0.00499822)
(0 0 0.00511202)
(0 0 0.00522584)
(0 0 0.00533968)
(0 0 0.00545352)
(0 0 0.00556735)
(0 0 0.00568117)
(0 0 0.00579496)
(0 0 0.0059087)
(0 0 0.00602239)
(0 0 0.00613601)
(0 0 0.00624956)
(0 0 0.006363)
(0 0 0.00647633)
(0 0 0.00658953)
(0 0 0.00670258)
(0 0 0.00681546)
(0 0 0.00692816)
(0 0 0.00704065)
(0 0 0.0071529)
(0 0 0.00726491)
(0 0 0.00737664)
(0 0 0.00748807)
(0 0 0.00759917)
(0 0 0.00770992)
(0 0 0.00782029)
(0 0 0.00793025)
(0 0 0.00803978)
(0 0 0.00814883)
(0 0 0.00825738)
(0 0 0.00836539)
(0 0 0.00847284)
(0 0 0.00857968)
(0 0 0.00868588)
(0 0 0.0087914)
(0 0 0.0088962)
(0 0 0.00900025)
(0 0 0.00910351)
(0 0 0.00920592)
(0 0 0.00930746)
(0 0 0.00940807)
(0 0 0.00950771)
(0 0 0.00960634)
(0 0 0.00970391)
(0 0 0.00980037)
(0 0 0.00989567)
(0 0 0.00998977)
(0 0 0.0100826)
(0 0 0.0101742)
(0 0 0.0102643)
(0 0 0.0103531)
(0 0 0.0104405)
(0 0 0.0105263)
(0 0 0.0106105)
(0 0 0.0106931)
(0 0 0.0107741)
(0 0 0.0108534)
(0 0 0.0109308)
(0 0 0.0110064)
(0 0 0.0110802)
(0 0 0.011152)
(0 0 0.0112218)
(0 0 0.0112896)
(0 0 0.0113553)
(0 0 0.0114188)
(0 0 0.0114801)
(0 0 0.0115392)
(0 0 0.011596)
(0 0 0.0116505)
(0 0 0.0117025)
(0 0 0.0117521)
(0 0 0.0117993)
(0 0 0.0118439)
(0 0 0.0118859)
(0 0 0.0119253)
(0 0 0.0119621)
(0 0 0.0119962)
(0 0 0.0120276)
(0 0 0.0120562)
(0 0 0.0120821)
(0 0 0.0121051)
(0 0 0.0121253)
(0 0 0.0121427)
(0 0 0.0121571)
(0 0 0.0121687)
(0 0 0.0121774)
(0 0 0.0121831)
(0 0 0.0121859)
(0 0 0.0121857)
(0 0 0.0121826)
(0 0 0.0121766)
(0 0 0.0121675)
(0 0 0.0121556)
(0 0 0.0121407)
(0 0 0.0121228)
(0 0 0.012102)
(0 0 0.0120783)
(0 0 0.0120518)
(0 0 0.0120223)
(0 0 0.01199)
(0 0 0.0119548)
(0 0 0.0119168)
(0 0 0.0118761)
(0 0 0.0118326)
(0 0 0.0117864)
(0 0 0.0117375)
(0 0 0.0116859)
(0 0 0.0116318)
(0 0 0.0115751)
(0 0 0.0115159)
(0 0 0.0114541)
(0 0 0.01139)
(0 0 0.0113235)
(0 0 0.0112546)
(0 0 0.0111835)
(0 0 0.0111101)
(0 0 0.0110345)
(0 0 0.0109568)
(0 0 0.010877)
(0 0 0.0107952)
(0 0 0.0107114)
(0 0 0.0106257)
(0 0 0.0105381)
(0 0 0.0104487)
(0 0 0.0103576)
(0 0 0.0102648)
(0 0 0.0101703)
(0 0 0.0100742)
(0 0 0.00997663)
(0 0 0.00987755)
(0 0 0.00977704)
(0 0 0.00967516)
(0 0 0.00957196)
(0 0 0.00946749)
(0 0 0.0093618)
(0 0 0.00925495)
(0 0 0.00914698)
(0 0 0.00903794)
(0 0 0.00892788)
(0 0 0.00881685)
(0 0 0.00870489)
(0 0 0.00859206)
(0 0 0.00847838)
(0 0 0.00836392)
(0 0 0.0082487)
(0 0 0.00813277)
(0 0 0.00801617)
(0 0 0.00789894)
(0 0 0.00778112)
(0 0 0.00766274)
(0 0 0.00754383)
(0 0 0.00742444)
(0 0 0.00730459)
(0 0 0.00718432)
(0 0 0.00706366)
(0 0 0.00694263)
(0 0 0.00682127)
(0 0 0.0066996)
(0 0 0.00657765)
(0 0 0.00645545)
(0 0 0.00633301)
(0 0 0.00621036)
(0 0 0.00608753)
(0 0 0.00596452)
(0 0 0.00584137)
(0 0 0.00571809)
(0 0 0.0055947)
(0 0 0.00547122)
(0 0 0.00534765)
(0 0 0.00522402)
(0 0 0.00510035)
(0 0 0.00497663)
(0 0 0.00485289)
(0 0 0.00472914)
(0 0 0.00460538)
(0 0 0.00448163)
(0 0 0.00435789)
(0 0 0.00423418)
(0 0 0.0041105)
(0 0 0.00398685)
(0 0 0.00386325)
(0 0 0.0037397)
(0 0 0.0036162)
(0 0 0.00349275)
(0 0 0.00336937)
(0 0 0.00324605)
(0 0 0.0031228)
(0 0 0.00299962)
(0 0 0.0028765)
(0 0 0.00275346)
(0 0 0.00263048)
(0 0 0.00250758)
(0 0 0.00238474)
(0 0 0.00226197)
(0 0 0.00213927)
(0 0 0.00201664)
(0 0 0.00189407)
(0 0 0.00177156)
(0 0 0.00164911)
(0 0 0.00152671)
(0 0 0.00140437)
(0 0 0.00128208)
(0 0 0.00115983)
(0 0 0.00103763)
(0 0 0.000915464)
(0 0 0.000793332)
(0 0 0.00067123)
(0 0 0.000549153)
(0 0 0.000427097)
(0 0 0.000305058)
(0 0 0.00018303)
(0 0 6.10092e-05)
(0 0 7.14897e-05)
(0 0 0.000214472)
(0 0 0.000357463)
(0 0 0.000500468)
(0 0 0.000643493)
(0 0 0.000786544)
(0 0 0.000929625)
(0 0 0.00107274)
(0 0 0.0012159)
(0 0 0.00135911)
(0 0 0.00150237)
(0 0 0.00164569)
(0 0 0.00178907)
(0 0 0.00193251)
(0 0 0.00207603)
(0 0 0.00221962)
(0 0 0.0023633)
(0 0 0.00250705)
(0 0 0.0026509)
(0 0 0.00279484)
(0 0 0.00293887)
(0 0 0.003083)
(0 0 0.00322723)
(0 0 0.00337156)
(0 0 0.003516)
(0 0 0.00366054)
(0 0 0.0038052)
(0 0 0.00394996)
(0 0 0.00409483)
(0 0 0.00423981)
(0 0 0.00438489)
(0 0 0.00453009)
(0 0 0.0046754)
(0 0 0.00482081)
(0 0 0.00496632)
(0 0 0.00511193)
(0 0 0.00525764)
(0 0 0.00540345)
(0 0 0.00554934)
(0 0 0.00569532)
(0 0 0.00584137)
(0 0 0.0059875)
(0 0 0.00613369)
(0 0 0.00627994)
(0 0 0.00642623)
(0 0 0.00657256)
(0 0 0.00671892)
(0 0 0.0068653)
(0 0 0.00701168)
(0 0 0.00715806)
(0 0 0.00730441)
(0 0 0.00745073)
(0 0 0.00759699)
(0 0 0.00774319)
(0 0 0.0078893)
(0 0 0.00803531)
(0 0 0.00818119)
(0 0 0.00832693)
(0 0 0.00847251)
(0 0 0.00861789)
(0 0 0.00876306)
(0 0 0.00890799)
(0 0 0.00905265)
(0 0 0.00919702)
(0 0 0.00934107)
(0 0 0.00948477)
(0 0 0.00962808)
(0 0 0.00977097)
(0 0 0.00991341)
(0 0 0.0100554)
(0 0 0.0101968)
(0 0 0.0103377)
(0 0 0.0104779)
(0 0 0.0106175)
(0 0 0.0107565)
(0 0 0.0108947)
(0 0 0.0110321)
(0 0 0.0111687)
(0 0 0.0113045)
(0 0 0.0114393)
(0 0 0.0115731)
(0 0 0.0117059)
(0 0 0.0118377)
(0 0 0.0119683)
(0 0 0.0120977)
(0 0 0.0122259)
(0 0 0.0123528)
(0 0 0.0124783)
(0 0 0.0126025)
(0 0 0.0127251)
(0 0 0.0128461)
(0 0 0.0129656)
(0 0 0.0130834)
(0 0 0.0131994)
(0 0 0.0133137)
(0 0 0.013426)
(0 0 0.0135365)
(0 0 0.0136449)
(0 0 0.0137512)
(0 0 0.0138554)
(0 0 0.0139574)
(0 0 0.014057)
(0 0 0.0141544)
(0 0 0.0142493)
(0 0 0.0143417)
(0 0 0.0144316)
(0 0 0.0145188)
(0 0 0.0146033)
(0 0 0.0146851)
(0 0 0.014764)
(0 0 0.0148401)
(0 0 0.0149132)
(0 0 0.0149833)
(0 0 0.0150503)
(0 0 0.0151141)
(0 0 0.0151748)
(0 0 0.0152322)
(0 0 0.0152863)
(0 0 0.0153371)
(0 0 0.0153844)
(0 0 0.0154283)
(0 0 0.0154687)
(0 0 0.0155056)
(0 0 0.0155389)
(0 0 0.0155686)
(0 0 0.0155946)
(0 0 0.0156169)
(0 0 0.0156356)
(0 0 0.0156505)
(0 0 0.0156616)
(0 0 0.015669)
(0 0 0.0156726)
(0 0 0.0156724)
(0 0 0.0156684)
(0 0 0.0156606)
(0 0 0.015649)
(0 0 0.0156337)
(0 0 0.0156145)
(0 0 0.0155915)
(0 0 0.0155648)
(0 0 0.0155343)
(0 0 0.0155001)
(0 0 0.0154621)
(0 0 0.0154205)
(0 0 0.0153753)
(0 0 0.0153264)
(0 0 0.015274)
(0 0 0.015218)
(0 0 0.0151585)
(0 0 0.0150956)
(0 0 0.0150292)
(0 0 0.0149596)
(0 0 0.0148866)
(0 0 0.0148103)
(0 0 0.0147309)
(0 0 0.0146484)
(0 0 0.0145628)
(0 0 0.0144741)
(0 0 0.0143826)
(0 0 0.0142881)
(0 0 0.0141909)
(0 0 0.0140909)
(0 0 0.0139882)
(0 0 0.0138829)
(0 0 0.0137751)
(0 0 0.0136648)
(0 0 0.0135521)
(0 0 0.0134371)
(0 0 0.0133198)
(0 0 0.0132004)
(0 0 0.0130788)
(0 0 0.0129552)
(0 0 0.0128296)
(0 0 0.0127022)
(0 0 0.0125728)
(0 0 0.0124418)
(0 0 0.012309)
(0 0 0.0121746)
(0 0 0.0120386)
(0 0 0.0119011)
(0 0 0.0117622)
(0 0 0.011622)
(0 0 0.0114804)
(0 0 0.0113375)
(0 0 0.0111935)
(0 0 0.0110484)
(0 0 0.0109021)
(0 0 0.0107549)
(0 0 0.0106067)
(0 0 0.0104576)
(0 0 0.0103076)
(0 0 0.0101568)
(0 0 0.0100053)
(0 0 0.00985298)
(0 0 0.00970005)
(0 0 0.00954649)
(0 0 0.00939235)
(0 0 0.00923766)
(0 0 0.00908247)
(0 0 0.00892682)
(0 0 0.00877074)
(0 0 0.00861426)
(0 0 0.00845742)
(0 0 0.00830026)
(0 0 0.0081428)
(0 0 0.00798507)
(0 0 0.00782711)
(0 0 0.00766893)
(0 0 0.00751056)
(0 0 0.00735202)
(0 0 0.00719335)
(0 0 0.00703456)
(0 0 0.00687566)
(0 0 0.00671669)
(0 0 0.00655765)
(0 0 0.00639857)
(0 0 0.00623945)
(0 0 0.00608032)
(0 0 0.00592119)
(0 0 0.00576207)
(0 0 0.00560296)
(0 0 0.00544389)
(0 0 0.00528486)
(0 0 0.00512588)
(0 0 0.00496695)
(0 0 0.00480809)
(0 0 0.0046493)
(0 0 0.00449058)
(0 0 0.00433194)
(0 0 0.00417339)
(0 0 0.00401492)
(0 0 0.00385653)
(0 0 0.00369824)
(0 0 0.00354004)
(0 0 0.00338193)
(0 0 0.00322391)
(0 0 0.00306598)
(0 0 0.00290813)
(0 0 0.00275038)
(0 0 0.00259271)
(0 0 0.00243512)
(0 0 0.00227762)
(0 0 0.00212019)
(0 0 0.00196283)
(0 0 0.00180554)
(0 0 0.00164831)
(0 0 0.00149114)
(0 0 0.00133403)
(0 0 0.00117697)
(0 0 0.00101995)
(0 0 0.000862966)
(0 0 0.000706018)
(0 0 0.000549097)
(0 0 0.000392197)
(0 0 0.000235312)
(0 0 7.84364e-05)
(0 0 8.73706e-05)
(0 0 0.000262115)
(0 0 0.00043687)
(0 0 0.000611643)
(0 0 0.00078644)
(0 0 0.000961268)
(0 0 0.00113613)
(0 0 0.00131105)
(0 0 0.00148601)
(0 0 0.00166103)
(0 0 0.00183611)
(0 0 0.00201127)
(0 0 0.0021865)
(0 0 0.00236181)
(0 0 0.00253721)
(0 0 0.00271271)
(0 0 0.0028883)
(0 0 0.003064)
(0 0 0.0032398)
(0 0 0.00341572)
(0 0 0.00359175)
(0 0 0.00376791)
(0 0 0.00394418)
(0 0 0.00412059)
(0 0 0.00429712)
(0 0 0.00447378)
(0 0 0.00465057)
(0 0 0.0048275)
(0 0 0.00500457)
(0 0 0.00518176)
(0 0 0.00535909)
(0 0 0.00553656)
(0 0 0.00571416)
(0 0 0.00589189)
(0 0 0.00606974)
(0 0 0.00624772)
(0 0 0.00642582)
(0 0 0.00660403)
(0 0 0.00678236)
(0 0 0.00696079)
(0 0 0.00713931)
(0 0 0.00731792)
(0 0 0.00749662)
(0 0 0.00767538)
(0 0 0.0078542)
(0 0 0.00803307)
(0 0 0.00821198)
(0 0 0.00839091)
(0 0 0.00856985)
(0 0 0.00874878)
(0 0 0.00892769)
(0 0 0.00910655)
(0 0 0.00928535)
(0 0 0.00946407)
(0 0 0.00964269)
(0 0 0.00982119)
(0 0 0.00999953)
(0 0 0.0101777)
(0 0 0.0103557)
(0 0 0.0105334)
(0 0 0.0107109)
(0 0 0.0108881)
(0 0 0.011065)
(0 0 0.0112415)
(0 0 0.0114176)
(0 0 0.0115933)
(0 0 0.0117685)
(0 0 0.0119432)
(0 0 0.0121174)
(0 0 0.012291)
(0 0 0.0124639)
(0 0 0.0126361)
(0 0 0.0128077)
(0 0 0.0129784)
(0 0 0.0131483)
(0 0 0.0133173)
(0 0 0.0134854)
(0 0 0.0136524)
(0 0 0.0138184)
(0 0 0.0139833)
(0 0 0.014147)
(0 0 0.0143095)
(0 0 0.0144706)
(0 0 0.0146304)
(0 0 0.0147887)
(0 0 0.0149455)
(0 0 0.0151007)
(0 0 0.0152542)
(0 0 0.015406)
(0 0 0.015556)
(0 0 0.0157041)
(0 0 0.0158503)
(0 0 0.0159944)
(0 0 0.0161363)
(0 0 0.0162761)
(0 0 0.0164135)
(0 0 0.0165486)
(0 0 0.0166813)
(0 0 0.0168114)
(0 0 0.0169389)
(0 0 0.0170636)
(0 0 0.0171856)
(0 0 0.0173047)
(0 0 0.0174209)
(0 0 0.017534)
(0 0 0.0176439)
(0 0 0.0177507)
(0 0 0.0178541)
(0 0 0.0179542)
(0 0 0.0180508)
(0 0 0.0181439)
(0 0 0.0182334)
(0 0 0.0183192)
(0 0 0.0184012)
(0 0 0.0184793)
(0 0 0.0185536)
(0 0 0.0186239)
(0 0 0.0186901)
(0 0 0.0187523)
(0 0 0.0188102)
(0 0 0.018864)
(0 0 0.0189134)
(0 0 0.0189586)
(0 0 0.0189993)
(0 0 0.0190357)
(0 0 0.0190675)
(0 0 0.0190949)
(0 0 0.0191177)
(0 0 0.019136)
(0 0 0.0191496)
(0 0 0.0191587)
(0 0 0.0191631)
(0 0 0.0191629)
(0 0 0.019158)
(0 0 0.0191485)
(0 0 0.0191343)
(0 0 0.0191155)
(0 0 0.019092)
(0 0 0.0190639)
(0 0 0.0190312)
(0 0 0.0189939)
(0 0 0.0189521)
(0 0 0.0189056)
(0 0 0.0188547)
(0 0 0.0187994)
(0 0 0.0187396)
(0 0 0.0186754)
(0 0 0.0186069)
(0 0 0.0185341)
(0 0 0.0184571)
(0 0 0.0183759)
(0 0 0.0182906)
(0 0 0.0182013)
(0 0 0.018108)
(0 0 0.0180108)
(0 0 0.0179098)
(0 0 0.0178051)
(0 0 0.0176966)
(0 0 0.0175846)
(0 0 0.017469)
(0 0 0.01735)
(0 0 0.0172276)
(0 0 0.017102)
(0 0 0.0169732)
(0 0 0.0168413)
(0 0 0.0167063)
(0 0 0.0165684)
(0 0 0.0164277)
(0 0 0.0162843)
(0 0 0.0161381)
(0 0 0.0159894)
(0 0 0.0158382)
(0 0 0.0156845)
(0 0 0.0155286)
(0 0 0.0153704)
(0 0 0.0152101)
(0 0 0.0150476)
(0 0 0.0148832)
(0 0 0.0147169)
(0 0 0.0145488)
(0 0 0.0143789)
(0 0 0.0142073)
(0 0 0.0140341)
(0 0 0.0138594)
(0 0 0.0136833)
(0 0 0.0135057)
(0 0 0.0133269)
(0 0 0.0131468)
(0 0 0.0129656)
(0 0 0.0127832)
(0 0 0.0125998)
(0 0 0.0124154)
(0 0 0.0122301)
(0 0 0.0120439)
(0 0 0.0118569)
(0 0 0.0116691)
(0 0 0.0114806)
(0 0 0.0112915)
(0 0 0.0111017)
(0 0 0.0109114)
(0 0 0.0107206)
(0 0 0.0105293)
(0 0 0.0103375)
(0 0 0.0101454)
(0 0 0.00995286)
(0 0 0.00976003)
(0 0 0.0095669)
(0 0 0.00937352)
(0 0 0.00917991)
(0 0 0.0089861)
(0 0 0.00879212)
(0 0 0.008598)
(0 0 0.00840376)
(0 0 0.00820942)
(0 0 0.008015)
(0 0 0.00782054)
(0 0 0.00762604)
(0 0 0.00743152)
(0 0 0.00723699)
(0 0 0.00704249)
(0 0 0.00684801)
(0 0 0.00665357)
(0 0 0.00645918)
(0 0 0.00626485)
(0 0 0.00607059)
(0 0 0.00587642)
(0 0 0.00568233)
(0 0 0.00548833)
(0 0 0.00529443)
(0 0 0.00510063)
(0 0 0.00490694)
(0 0 0.00471336)
(0 0 0.00451989)
(0 0 0.00432653)
(0 0 0.00413328)
(0 0 0.00394015)
(0 0 0.00374712)
(0 0 0.00355421)
(0 0 0.0033614)
(0 0 0.0031687)
(0 0 0.0029761)
(0 0 0.0027836)
(0 0 0.00259119)
(0 0 0.00239887)
(0 0 0.00220664)
(0 0 0.00201448)
(0 0 0.0018224)
(0 0 0.00163038)
(0 0 0.00143843)
(0 0 0.00124652)
(0 0 0.00105467)
(0 0 0.000862856)
(0 0 0.000671076)
(0 0 0.000479321)
(0 0 0.000287585)
(0 0 9.58605e-05)
(0 0 0.000103248)
(0 0 0.000309748)
(0 0 0.00051626)
(0 0 0.000722793)
(0 0 0.000929355)
(0 0 0.00113595)
(0 0 0.0013426)
(0 0 0.0015493)
(0 0 0.00175605)
(0 0 0.00196288)
(0 0 0.00216979)
(0 0 0.00237677)
(0 0 0.00258385)
(0 0 0.00279103)
(0 0 0.00299831)
(0 0 0.0032057)
(0 0 0.0034132)
(0 0 0.00362083)
(0 0 0.00382859)
(0 0 0.00403649)
(0 0 0.00424452)
(0 0 0.00445269)
(0 0 0.00466101)
(0 0 0.00486948)
(0 0 0.0050781)
(0 0 0.00528688)
(0 0 0.00549582)
(0 0 0.00570491)
(0 0 0.00591417)
(0 0 0.00612358)
(0 0 0.00633316)
(0 0 0.0065429)
(0 0 0.00675279)
(0 0 0.00696284)
(0 0 0.00717304)
(0 0 0.00738339)
(0 0 0.00759388)
(0 0 0.00780451)
(0 0 0.00801527)
(0 0 0.00822616)
(0 0 0.00843716)
(0 0 0.00864827)
(0 0 0.00885947)
(0 0 0.00907076)
(0 0 0.00928213)
(0 0 0.00949355)
(0 0 0.00970502)
(0 0 0.00991652)
(0 0 0.010128)
(0 0 0.0103395)
(0 0 0.010551)
(0 0 0.0107624)
(0 0 0.0109738)
(0 0 0.0111851)
(0 0 0.0113962)
(0 0 0.0116072)
(0 0 0.011818)
(0 0 0.0120287)
(0 0 0.0122391)
(0 0 0.0124492)
(0 0 0.012659)
(0 0 0.0128685)
(0 0 0.0130776)
(0 0 0.0132863)
(0 0 0.0134945)
(0 0 0.0137023)
(0 0 0.0139094)
(0 0 0.014116)
(0 0 0.014322)
(0 0 0.0145272)
(0 0 0.0147317)
(0 0 0.0149354)
(0 0 0.0151382)
(0 0 0.0153401)
(0 0 0.015541)
(0 0 0.0157409)
(0 0 0.0159396)
(0 0 0.0161372)
(0 0 0.0163335)
(0 0 0.0165285)
(0 0 0.0167221)
(0 0 0.0169143)
(0 0 0.0171049)
(0 0 0.0172938)
(0 0 0.0174811)
(0 0 0.0176666)
(0 0 0.0178502)
(0 0 0.0180318)
(0 0 0.0182114)
(0 0 0.0183888)
(0 0 0.0185641)
(0 0 0.018737)
(0 0 0.0189074)
(0 0 0.0190754)
(0 0 0.0192408)
(0 0 0.0194034)
(0 0 0.0195633)
(0 0 0.0197202)
(0 0 0.0198742)
(0 0 0.0200251)
(0 0 0.0201727)
(0 0 0.0203171)
(0 0 0.020458)
(0 0 0.0205955)
(0 0 0.0207293)
(0 0 0.0208595)
(0 0 0.0209859)
(0 0 0.0211083)
(0 0 0.0212268)
(0 0 0.0213412)
(0 0 0.0214513)
(0 0 0.0215573)
(0 0 0.0216588)
(0 0 0.0217559)
(0 0 0.0218485)
(0 0 0.0219364)
(0 0 0.0220196)
(0 0 0.022098)
(0 0 0.0221716)
(0 0 0.0222403)
(0 0 0.0223039)
(0 0 0.0223625)
(0 0 0.0224159)
(0 0 0.0224642)
(0 0 0.0225072)
(0 0 0.022545)
(0 0 0.0225774)
(0 0 0.0226044)
(0 0 0.0226261)
(0 0 0.0226423)
(0 0 0.022653)
(0 0 0.0226583)
(0 0 0.0226581)
(0 0 0.0226523)
(0 0 0.0226411)
(0 0 0.0226243)
(0 0 0.022602)
(0 0 0.0225743)
(0 0 0.022541)
(0 0 0.0225023)
(0 0 0.0224581)
(0 0 0.0224086)
(0 0 0.0223537)
(0 0 0.0222934)
(0 0 0.0222279)
(0 0 0.0221571)
(0 0 0.0220811)
(0 0 0.022)
(0 0 0.0219139)
(0 0 0.0218227)
(0 0 0.0217267)
(0 0 0.0216257)
(0 0 0.02152)
(0 0 0.0214096)
(0 0 0.0212946)
(0 0 0.021175)
(0 0 0.021051)
(0 0 0.0209227)
(0 0 0.0207901)
(0 0 0.0206533)
(0 0 0.0205125)
(0 0 0.0203677)
(0 0 0.020219)
(0 0 0.0200665)
(0 0 0.0199104)
(0 0 0.0197507)
(0 0 0.0195876)
(0 0 0.0194211)
(0 0 0.0192513)
(0 0 0.0190784)
(0 0 0.0189025)
(0 0 0.0187235)
(0 0 0.0185418)
(0 0 0.0183573)
(0 0 0.0181701)
(0 0 0.0179804)
(0 0 0.0177883)
(0 0 0.0175938)
(0 0 0.017397)
(0 0 0.0171981)
(0 0 0.0169971)
(0 0 0.0167942)
(0 0 0.0165894)
(0 0 0.0163827)
(0 0 0.0161744)
(0 0 0.0159644)
(0 0 0.0157529)
(0 0 0.01554)
(0 0 0.0153256)
(0 0 0.0151099)
(0 0 0.014893)
(0 0 0.014675)
(0 0 0.0144558)
(0 0 0.0142356)
(0 0 0.0140145)
(0 0 0.0137925)
(0 0 0.0135696)
(0 0 0.013346)
(0 0 0.0131216)
(0 0 0.0128966)
(0 0 0.0126709)
(0 0 0.0124447)
(0 0 0.012218)
(0 0 0.0119908)
(0 0 0.0117632)
(0 0 0.0115353)
(0 0 0.011307)