/*--------------------------------*- C++ -*----------------------------------*\
| =========                 |                                                 |
| \\      /  F ield         | OpenFOAM: The Open Source CFD Toolbox           |
|  \\    /   O peration     | Version:  v2012                                 |
|   \\  /    A nd           | Website:  www.openfoam.com                      |
|    \\/     M anipulation  |                                                 |
\*---------------------------------------------------------------------------*/
FoamFile
{
    version     2.0;
    format      ascii;
    class       volVectorField;
    location    "19.75";
    object      U;
}
// * * * * * * * * * * * * * * * * * * * * * * * * * * * * * * * * * * * * * //

dimensions      [0 1 -1 0 0 0 0];


internalField   nonuniform List<vector> 
65536
(
(0.000647414 -0.000647427 0)
(0.00194227 -0.000647453 0)
(0.0032372 -0.000647504 0)
(0.00453226 -0.000647581 0)
(0.0058275 -0.000647683 0)
(0.00712297 -0.00064781 0)
(0.00841872 -0.000647962 0)
(0.0097148 -0.000648139 0)
(0.0110112 -0.000648339 0)
(0.0123081 -0.000648563 0)
(0.0136055 -0.00064881 0)
(0.0149033 -0.000649079 0)
(0.0162018 -0.00064937 0)
(0.0175008 -0.000649681 0)
(0.0188005 -0.000650013 0)
(0.0201008 -0.000650365 0)
(0.0214019 -0.000650734 0)
(0.0227038 -0.000651121 0)
(0.0240064 -0.000651524 0)
(0.0253098 -0.000651942 0)
(0.0266141 -0.000652375 0)
(0.0279193 -0.000652819 0)
(0.0292254 -0.000653275 0)
(0.0305324 -0.000653741 0)
(0.0318404 -0.000654215 0)
(0.0331493 -0.000654696 0)
(0.0344591 -0.000655181 0)
(0.03577 -0.00065567 0)
(0.0370818 -0.000656161 0)
(0.0383946 -0.00065665 0)
(0.0397084 -0.000657137 0)
(0.0410232 -0.00065762 0)
(0.0423389 -0.000658095 0)
(0.0436556 -0.000658562 0)
(0.0449732 -0.000659016 0)
(0.0462917 -0.000659457 0)
(0.047611 -0.000659881 0)
(0.0489312 -0.000660285 0)
(0.0502522 -0.000660667 0)
(0.0515739 -0.000661025 0)
(0.0528963 -0.000661354 0)
(0.0542194 -0.000661651 0)
(0.055543 -0.000661915 0)
(0.0568671 -0.00066214 0)
(0.0581916 -0.000662324 0)
(0.0595164 -0.000662464 0)
(0.0608415 -0.000662554 0)
(0.0621667 -0.000662593 0)
(0.0634919 -0.000662575 0)
(0.064817 -0.000662497 0)
(0.066142 -0.000662354 0)
(0.0674665 -0.000662143 0)
(0.0687906 -0.000661859 0)
(0.070114 -0.000661496 0)
(0.0714367 -0.000661052 0)
(0.0727583 -0.00066052 0)
(0.0740788 -0.000659897 0)
(0.075398 -0.000659176 0)
(0.0767157 -0.000658354 0)
(0.0780315 -0.000657424 0)
(0.0793455 -0.000656382 0)
(0.0806572 -0.000655221 0)
(0.0819665 -0.000653937 0)
(0.0832731 -0.000652524 0)
(0.0845767 -0.000650976 0)
(0.0858771 -0.000649287 0)
(0.087174 -0.000647452 0)
(0.0884671 -0.000645464 0)
(0.089756 -0.000643318 0)
(0.0910405 -0.000641007 0)
(0.0923202 -0.000638525 0)
(0.0935948 -0.000635866 0)
(0.0948639 -0.000633024 0)
(0.0961271 -0.000629992 0)
(0.097384 -0.000626765 0)
(0.0986344 -0.000623336 0)
(0.0998776 -0.000619698 0)
(0.101113 -0.000615846 0)
(0.102341 -0.000611774 0)
(0.103561 -0.000607475 0)
(0.104771 -0.000602943 0)
(0.105973 -0.000598172 0)
(0.107164 -0.000593156 0)
(0.108346 -0.00058789 0)
(0.109516 -0.000582368 0)
(0.110675 -0.000576585 0)
(0.111823 -0.000570535 0)
(0.112958 -0.000564213 0)
(0.11408 -0.000557614 0)
(0.115188 -0.000550734 0)
(0.116283 -0.000543568 0)
(0.117363 -0.000536112 0)
(0.118428 -0.000528362 0)
(0.119477 -0.000520315 0)
(0.120509 -0.000511968 0)
(0.121525 -0.000503318 0)
(0.122523 -0.000494362 0)
(0.123503 -0.000485098 0)
(0.124464 -0.000475525 0)
(0.125405 -0.000465642 0)
(0.126327 -0.000455448 0)
(0.127227 -0.000444943 0)
(0.128107 -0.000434126 0)
(0.128964 -0.000423 0)
(0.129799 -0.000411565 0)
(0.130611 -0.000399824 0)
(0.131398 -0.000387778 0)
(0.132162 -0.000375432 0)
(0.132901 -0.000362788 0)
(0.133613 -0.000349851 0)
(0.1343 -0.000336626 0)
(0.13496 -0.000323118 0)
(0.135593 -0.000309334 0)
(0.136198 -0.00029528 0)
(0.136774 -0.000280963 0)
(0.137322 -0.000266393 0)
(0.13784 -0.000251577 0)
(0.138328 -0.000236524 0)
(0.138786 -0.000221245 0)
(0.139214 -0.000205749 0)
(0.13961 -0.000190049 0)
(0.139974 -0.000174154 0)
(0.140306 -0.000158078 0)
(0.140607 -0.000141833 0)
(0.140874 -0.000125432 0)
(0.141108 -0.000108888 0)
(0.14131 -9.22146e-05 0)
(0.141477 -7.5427e-05 0)
(0.141611 -5.85392e-05 0)
(0.141712 -4.15663e-05 0)
(0.141778 -2.45233e-05 0)
(0.14181 -7.42553e-06 0)
(0.141808 9.71144e-06 0)
(0.141771 2.6872e-05 0)
(0.1417 4.40403e-05 0)
(0.141595 6.12007e-05 0)
(0.141455 7.83373e-05 0)
(0.141281 9.54344e-05 0)
(0.141073 0.000112476 0)
(0.140831 0.000129448 0)
(0.140556 0.000146333 0)
(0.140246 0.000163118 0)
(0.139903 0.000179786 0)
(0.139527 0.000196324 0)
(0.139117 0.000212718 0)
(0.138676 0.000228953 0)
(0.138202 0.000245017 0)
(0.137695 0.000260896 0)
(0.137158 0.000276579 0)
(0.136589 0.000292052 0)
(0.135989 0.000307305 0)
(0.135359 0.000322328 0)
(0.1347 0.000337109 0)
(0.134011 0.000351639 0)
(0.133293 0.000365909 0)
(0.132547 0.000379912 0)
(0.131773 0.000393638 0)
(0.130972 0.000407082 0)
(0.130144 0.000420236 0)
(0.129291 0.000433094 0)
(0.128412 0.000445653 0)
(0.127508 0.000457906 0)
(0.12658 0.000469851 0)
(0.125628 0.000481484 0)
(0.124654 0.000492802 0)
(0.123657 0.000503803 0)
(0.122638 0.000514486 0)
(0.121598 0.00052485 0)
(0.120538 0.000534895 0)
(0.119458 0.00054462 0)
(0.118359 0.000554027 0)
(0.117242 0.000563117 0)
(0.116107 0.000571891 0)
(0.114954 0.000580352 0)
(0.113785 0.000588502 0)
(0.1126 0.000596345 0)
(0.111399 0.000603883 0)
(0.110184 0.000611121 0)
(0.108954 0.000618062 0)
(0.107711 0.000624711 0)
(0.106455 0.000631073 0)
(0.105187 0.000637153 0)
(0.103906 0.000642956 0)
(0.102615 0.000648487 0)
(0.101312 0.000653752 0)
(0.0999995 0.000658757 0)
(0.098677 0.000663508 0)
(0.0973452 0.000668012 0)
(0.0960047 0.000672273 0)
(0.0946559 0.0006763 0)
(0.0932992 0.000680098 0)
(0.0919353 0.000683674 0)
(0.0905643 0.000687035 0)
(0.0891869 0.000690187 0)
(0.0878034 0.000693138 0)
(0.0864142 0.000695892 0)
(0.0850196 0.000698459 0)
(0.0836201 0.000700843 0)
(0.0822161 0.000703053 0)
(0.0808078 0.000705094 0)
(0.0793955 0.000706973 0)
(0.0779797 0.000708696 0)
(0.0765606 0.000710271 0)
(0.0751385 0.000711703 0)
(0.0737137 0.000713 0)
(0.0722864 0.000714166 0)
(0.0708569 0.000715209 0)
(0.0694254 0.000716134 0)
(0.0679922 0.000716948 0)
(0.0665575 0.000717655 0)
(0.0651215 0.000718263 0)
(0.0636844 0.000718776 0)
(0.0622463 0.0007192 0)
(0.0608075 0.000719541 0)
(0.0593681 0.000719803 0)
(0.0579282 0.000719992 0)
(0.056488 0.000720113 0)
(0.0550477 0.00072017 0)
(0.0536073 0.000720169 0)
(0.0521669 0.000720114 0)
(0.0507268 0.000720009 0)
(0.0492869 0.000719859 0)
(0.0478473 0.000719668 0)
(0.0464082 0.000719441 0)
(0.0449695 0.00071918 0)
(0.0435314 0.00071889 0)
(0.0420939 0.000718574 0)
(0.0406571 0.000718236 0)
(0.039221 0.00071788 0)
(0.0377856 0.000717508 0)
(0.0363509 0.000717124 0)
(0.0349171 0.000716731 0)
(0.033484 0.000716331 0)
(0.0320517 0.000715928 0)
(0.0306203 0.000715525 0)
(0.0291896 0.000715122 0)
(0.0277598 0.000714724 0)
(0.0263307 0.000714332 0)
(0.0249025 0.000713948 0)
(0.023475 0.000713574 0)
(0.0220482 0.000713213 0)
(0.0206221 0.000712866 0)
(0.0191967 0.000712535 0)
(0.017772 0.00071222 0)
(0.0163479 0.000711925 0)
(0.0149243 0.00071165 0)
(0.0135013 0.000711395 0)
(0.0120788 0.000711164 0)
(0.0106567 0.000710955 0)
(0.00923497 0.000710771 0)
(0.00781361 0.000710611 0)
(0.00639255 0.000710477 0)
(0.00497173 0.000710369 0)
(0.0035511 0.000710288 0)
(0.00213061 0.000710234 0)
(0.000710193 0.000710207 0)
(0.000647389 -0.00194226 0)
(0.00194219 -0.00194233 0)
(0.00323707 -0.00194249 0)
(0.00453208 -0.00194272 0)
(0.00582727 -0.00194303 0)
(0.00712269 -0.00194341 0)
(0.00841839 -0.00194386 0)
(0.00971442 -0.00194439 0)
(0.0110108 -0.00194499 0)
(0.0123077 -0.00194567 0)
(0.013605 -0.00194641 0)
(0.0149028 -0.00194722 0)
(0.0162012 -0.00194809 0)
(0.0175002 -0.00194903 0)
(0.0187998 -0.00195002 0)
(0.0201001 -0.00195108 0)
(0.0214012 -0.00195219 0)
(0.022703 -0.00195335 0)
(0.0240056 -0.00195456 0)
(0.025309 -0.00195581 0)
(0.0266133 -0.00195711 0)
(0.0279184 -0.00195845 0)
(0.0292245 -0.00195982 0)
(0.0305315 -0.00196122 0)
(0.0318394 -0.00196264 0)
(0.0331483 -0.00196408 0)
(0.0344582 -0.00196554 0)
(0.035769 -0.00196701 0)
(0.0370809 -0.00196848 0)
(0.0383937 -0.00196996 0)
(0.0397075 -0.00197142 0)
(0.0410223 -0.00197287 0)
(0.042338 -0.0019743 0)
(0.0436547 -0.0019757 0)
(0.0449723 -0.00197706 0)
(0.0462908 -0.00197839 0)
(0.0476102 -0.00197966 0)
(0.0489304 -0.00198088 0)
(0.0502515 -0.00198203 0)
(0.0515732 -0.0019831 0)
(0.0528957 -0.00198409 0)
(0.0542188 -0.00198499 0)
(0.0555425 -0.00198578 0)
(0.0568667 -0.00198646 0)
(0.0581913 -0.00198702 0)
(0.0595162 -0.00198744 0)
(0.0608414 -0.00198772 0)
(0.0621667 -0.00198784 0)
(0.063492 -0.00198779 0)
(0.0648173 -0.00198756 0)
(0.0661423 -0.00198713 0)
(0.067467 -0.0019865 0)
(0.0687913 -0.00198566 0)
(0.0701149 -0.00198457 0)
(0.0714377 -0.00198324 0)
(0.0727595 -0.00198165 0)
(0.0740802 -0.00197979 0)
(0.0753996 -0.00197763 0)
(0.0767174 -0.00197517 0)
(0.0780336 -0.00197239 0)
(0.0793477 -0.00196926 0)
(0.0806597 -0.00196579 0)
(0.0819692 -0.00196194 0)
(0.0832761 -0.00195771 0)
(0.08458 -0.00195307 0)
(0.0858807 -0.00194801 0)
(0.0871779 -0.00194251 0)
(0.0884713 -0.00193655 0)
(0.0897605 -0.00193012 0)
(0.0910454 -0.00192319 0)
(0.0923254 -0.00191575 0)
(0.0936003 -0.00190778 0)
(0.0948698 -0.00189926 0)
(0.0961334 -0.00189017 0)
(0.0973907 -0.0018805 0)
(0.0986415 -0.00187022 0)
(0.0998851 -0.00185931 0)
(0.101121 -0.00184776 0)
(0.10235 -0.00183555 0)
(0.10357 -0.00182266 0)
(0.104781 -0.00180907 0)
(0.105983 -0.00179476 0)
(0.107175 -0.00177972 0)
(0.108356 -0.00176393 0)
(0.109527 -0.00174737 0)
(0.110687 -0.00173002 0)
(0.111835 -0.00171188 0)
(0.112971 -0.00169292 0)
(0.114093 -0.00167312 0)
(0.115203 -0.00165249 0)
(0.116298 -0.00163099 0)
(0.117378 -0.00160863 0)
(0.118444 -0.00158538 0)
(0.119493 -0.00156125 0)
(0.120526 -0.00153621 0)
(0.121543 -0.00151026 0)
(0.122541 -0.00148339 0)
(0.123522 -0.0014556 0)
(0.124483 -0.00142689 0)
(0.125425 -0.00139724 0)
(0.126347 -0.00136665 0)
(0.127249 -0.00133514 0)
(0.128129 -0.00130269 0)
(0.128987 -0.00126931 0)
(0.129822 -0.001235 0)
(0.130634 -0.00119978 0)
(0.131423 -0.00116364 0)
(0.132187 -0.00112659 0)
(0.132926 -0.00108866 0)
(0.13364 -0.00104984 0)
(0.134327 -0.00101016 0)
(0.134988 -0.000969629 0)
(0.135621 -0.000928269 0)
(0.136226 -0.0008861 0)
(0.136803 -0.000843143 0)
(0.137351 -0.000799423 0)
(0.13787 -0.000754965 0)
(0.138359 -0.000709797 0)
(0.138817 -0.000663949 0)
(0.139245 -0.000617452 0)
(0.139641 -0.000570338 0)
(0.140006 -0.000522643 0)
(0.140339 -0.000474402 0)
(0.140639 -0.000425653 0)
(0.140907 -0.000376436 0)
(0.141142 -0.000326789 0)
(0.141343 -0.000276756 0)
(0.141511 -0.000226379 0)
(0.141645 -0.000175701 0)
(0.141746 -0.000124767 0)
(0.141812 -7.36223e-05 0)
(0.141844 -2.23134e-05 0)
(0.141842 2.91132e-05 0)
(0.141805 8.06105e-05 0)
(0.141734 0.000132131 0)
(0.141629 0.000183628 0)
(0.141489 0.000235054 0)
(0.141316 0.000286361 0)
(0.141107 0.000337502 0)
(0.140865 0.000388432 0)
(0.140589 0.000439103 0)
(0.140279 0.000489471 0)
(0.139936 0.000539491 0)
(0.13956 0.00058912 0)
(0.13915 0.000638315 0)
(0.138708 0.000687034 0)
(0.138233 0.000735238 0)
(0.137727 0.000782888 0)
(0.137189 0.000829947 0)
(0.13662 0.000876379 0)
(0.13602 0.000922149 0)
(0.135389 0.000967226 0)
(0.134729 0.00101158 0)
(0.13404 0.00105518 0)
(0.133321 0.001098 0)
(0.132575 0.00114001 0)
(0.1318 0.0011812 0)
(0.130999 0.00122154 0)
(0.13017 0.001261 0)
(0.129316 0.00129959 0)
(0.128437 0.00133727 0)
(0.127532 0.00137403 0)
(0.126603 0.00140987 0)
(0.125651 0.00144477 0)
(0.124676 0.00147872 0)
(0.123678 0.00151173 0)
(0.122659 0.00154378 0)
(0.121619 0.00157487 0)
(0.120558 0.001605 0)
(0.119478 0.00163418 0)
(0.118378 0.0016624 0)
(0.11726 0.00168967 0)
(0.116124 0.00171599 0)
(0.114971 0.00174137 0)
(0.113801 0.00176582 0)
(0.112615 0.00178934 0)
(0.111414 0.00181195 0)
(0.110198 0.00183366 0)
(0.108968 0.00185448 0)
(0.107724 0.00187442 0)
(0.106468 0.0018935 0)
(0.105199 0.00191174 0)
(0.103918 0.00192914 0)
(0.102626 0.00194573 0)
(0.101322 0.00196152 0)
(0.100009 0.00197653 0)
(0.0986862 0.00199077 0)
(0.0973539 0.00200428 0)
(0.0960129 0.00201706 0)
(0.0946637 0.00202913 0)
(0.0933066 0.00204052 0)
(0.0919422 0.00205124 0)
(0.0905708 0.00206132 0)
(0.089193 0.00207076 0)
(0.0878091 0.00207961 0)
(0.0864195 0.00208787 0)
(0.0850245 0.00209556 0)
(0.0836247 0.00210271 0)
(0.0822203 0.00210933 0)
(0.0808117 0.00211544 0)
(0.0793991 0.00212107 0)
(0.077983 0.00212624 0)
(0.0765636 0.00213096 0)
(0.0751412 0.00213525 0)
(0.0737161 0.00213913 0)
(0.0722885 0.00214262 0)
(0.0708588 0.00214574 0)
(0.0694271 0.00214851 0)
(0.0679937 0.00215095 0)
(0.0665588 0.00215307 0)
(0.0651226 0.00215488 0)
(0.0636853 0.00215642 0)
(0.062247 0.00215768 0)
(0.0608081 0.0021587 0)
(0.0593685 0.00215948 0)
(0.0579285 0.00216004 0)
(0.0564882 0.0021604 0)
(0.0550477 0.00216057 0)
(0.0536072 0.00216056 0)
(0.0521668 0.00216039 0)
(0.0507265 0.00216007 0)
(0.0492865 0.00215962 0)
(0.0478469 0.00215904 0)
(0.0464076 0.00215835 0)
(0.0449689 0.00215757 0)
(0.0435308 0.00215669 0)
(0.0420933 0.00215574 0)
(0.0406564 0.00215473 0)
(0.0392202 0.00215365 0)
(0.0377848 0.00215254 0)
(0.0363501 0.00215138 0)
(0.0349162 0.0021502 0)
(0.0334832 0.002149 0)
(0.0320509 0.00214779 0)
(0.0306195 0.00214657 0)
(0.0291888 0.00214536 0)
(0.027759 0.00214416 0)
(0.02633 0.00214299 0)
(0.0249017 0.00214183 0)
(0.0234742 0.00214071 0)
(0.0220475 0.00213962 0)
(0.0206214 0.00213858 0)
(0.0191961 0.00213759 0)
(0.0177714 0.00213664 0)
(0.0163473 0.00213575 0)
(0.0149238 0.00213493 0)
(0.0135008 0.00213416 0)
(0.0120783 0.00213347 0)
(0.0106563 0.00213284 0)
(0.00923462 0.00213229 0)
(0.00781332 0.00213181 0)
(0.00639231 0.0021314 0)
(0.00497154 0.00213108 0)
(0.00355097 0.00213084 0)
(0.00213053 0.00213067 0)
(0.000710166 0.00213059 0)
(0.000647338 -0.00323701 0)
(0.00194204 -0.00323714 0)
(0.00323682 -0.0032374 0)
(0.00453173 -0.00323778 0)
(0.00582681 -0.00323829 0)
(0.00712213 -0.00323893 0)
(0.00841773 -0.00323969 0)
(0.00971367 -0.00324057 0)
(0.01101 -0.00324158 0)
(0.0123067 -0.0032427 0)
(0.0136039 -0.00324394 0)
(0.0149017 -0.00324529 0)
(0.0162 -0.00324675 0)
(0.0174989 -0.00324831 0)
(0.0187984 -0.00324997 0)
(0.0200987 -0.00325173 0)
(0.0213997 -0.00325359 0)
(0.0227014 -0.00325553 0)
(0.0240039 -0.00325755 0)
(0.0253073 -0.00325964 0)
(0.0266115 -0.00326181 0)
(0.0279166 -0.00326404 0)
(0.0292226 -0.00326633 0)
(0.0305296 -0.00326867 0)
(0.0318375 -0.00327104 0)
(0.0331464 -0.00327346 0)
(0.0344562 -0.00327589 0)
(0.0357671 -0.00327835 0)
(0.0370789 -0.00328081 0)
(0.0383917 -0.00328327 0)
(0.0397055 -0.00328571 0)
(0.0410203 -0.00328814 0)
(0.0423361 -0.00329053 0)
(0.0436528 -0.00329287 0)
(0.0449705 -0.00329515 0)
(0.0462891 -0.00329737 0)
(0.0476085 -0.0032995 0)
(0.0489289 -0.00330154 0)
(0.05025 -0.00330347 0)
(0.0515719 -0.00330527 0)
(0.0528944 -0.00330693 0)
(0.0542177 -0.00330843 0)
(0.0555415 -0.00330977 0)
(0.0568658 -0.00331091 0)
(0.0581906 -0.00331185 0)
(0.0595157 -0.00331256 0)
(0.0608411 -0.00331304 0)
(0.0621666 -0.00331325 0)
(0.0634922 -0.00331318 0)
(0.0648177 -0.00331281 0)
(0.066143 -0.00331212 0)
(0.067468 -0.00331108 0)
(0.0687925 -0.00330968 0)
(0.0701165 -0.0033079 0)
(0.0714396 -0.0033057 0)
(0.0727618 -0.00330306 0)
(0.0740829 -0.00329997 0)
(0.0754026 -0.0032964 0)
(0.0767209 -0.00329231 0)
(0.0780375 -0.00328769 0)
(0.0793521 -0.0032825 0)
(0.0806645 -0.00327673 0)
(0.0819746 -0.00327034 0)
(0.083282 -0.0032633 0)
(0.0845864 -0.00325559 0)
(0.0858877 -0.00324717 0)
(0.0871855 -0.00323803 0)
(0.0884795 -0.00322812 0)
(0.0897694 -0.00321742 0)
(0.0910549 -0.00320589 0)
(0.0923356 -0.00319351 0)
(0.0936113 -0.00318025 0)
(0.0948815 -0.00316607 0)
(0.0961459 -0.00315094 0)
(0.097404 -0.00313484 0)
(0.0986556 -0.00311772 0)
(0.0999001 -0.00309957 0)
(0.101137 -0.00308034 0)
(0.102366 -0.00306001 0)
(0.103587 -0.00303854 0)
(0.104799 -0.00301591 0)
(0.106002 -0.00299208 0)
(0.107195 -0.00296704 0)
(0.108378 -0.00294073 0)
(0.10955 -0.00291315 0)
(0.110711 -0.00288426 0)
(0.11186 -0.00285404 0)
(0.112996 -0.00282245 0)
(0.11412 -0.00278948 0)
(0.115231 -0.0027551 0)
(0.116327 -0.00271929 0)
(0.117409 -0.00268203 0)
(0.118475 -0.0026433 0)
(0.119526 -0.00260308 0)
(0.12056 -0.00256136 0)
(0.121578 -0.00251812 0)
(0.122578 -0.00247335 0)
(0.123559 -0.00242704 0)
(0.124522 -0.00237918 0)
(0.125465 -0.00232977 0)
(0.126389 -0.0022788 0)
(0.127291 -0.00222627 0)
(0.128172 -0.00217218 0)
(0.129032 -0.00211654 0)
(0.129868 -0.00205936 0)
(0.130682 -0.00200064 0)
(0.131472 -0.0019404 0)
(0.132237 -0.00187865 0)
(0.132977 -0.0018154 0)
(0.133692 -0.00175069 0)
(0.13438 -0.00168454 0)
(0.135042 -0.00161697 0)
(0.135677 -0.00154802 0)
(0.136283 -0.00147771 0)
(0.136861 -0.00140609 0)
(0.13741 -0.00133319 0)
(0.13793 -0.00125906 0)
(0.13842 -0.00118375 0)
(0.138879 -0.0011073 0)
(0.139307 -0.00102977 0)
(0.139705 -0.00095121 0)
(0.14007 -0.000871678 0)
(0.140404 -0.000791234 0)
(0.140705 -0.000709943 0)
(0.140973 -0.000627869 0)
(0.141208 -0.000545079 0)
(0.14141 -0.000461642 0)
(0.141579 -0.000377631 0)
(0.141713 -0.000293118 0)
(0.141814 -0.000208178 0)
(0.14188 -0.000122886 0)
(0.141913 -3.73193e-05 0)
(0.141911 4.8444e-05 0)
(0.141874 0.000134325 0)
(0.141803 0.000220246 0)
(0.141698 0.000306127 0)
(0.141558 0.000391889 0)
(0.141384 0.000477453 0)
(0.141176 0.00056274 0)
(0.140933 0.000647674 0)
(0.140657 0.000732177 0)
(0.140346 0.000816173 0)
(0.140003 0.000899588 0)
(0.139626 0.00098235 0)
(0.139215 0.00106439 0)
(0.138773 0.00114563 0)
(0.138297 0.00122601 0)
(0.13779 0.00130547 0)
(0.137251 0.00138394 0)
(0.136681 0.00146137 0)
(0.13608 0.00153769 0)
(0.135449 0.00161285 0)
(0.134788 0.0016868 0)
(0.134097 0.0017595 0)
(0.133378 0.00183089 0)
(0.13263 0.00190094 0)
(0.131855 0.00196961 0)
(0.131052 0.00203686 0)
(0.130222 0.00210266 0)
(0.129367 0.00216698 0)
(0.128486 0.00222979 0)
(0.12758 0.00229108 0)
(0.126651 0.00235082 0)
(0.125697 0.002409 0)
(0.12472 0.0024656 0)
(0.123722 0.00252061 0)
(0.122701 0.00257403 0)
(0.12166 0.00262585 0)
(0.120598 0.00267607 0)
(0.119516 0.0027247 0)
(0.118415 0.00277172 0)
(0.117296 0.00281717 0)
(0.116158 0.00286103 0)
(0.115004 0.00290332 0)
(0.113833 0.00294405 0)
(0.112646 0.00298325 0)
(0.111444 0.00302092 0)
(0.110226 0.00305709 0)
(0.108995 0.00309177 0)
(0.10775 0.003125 0)
(0.106493 0.00315678 0)
(0.105222 0.00318715 0)
(0.10394 0.00321614 0)
(0.102647 0.00324377 0)
(0.101343 0.00327006 0)
(0.100029 0.00329506 0)
(0.0987047 0.00331878 0)
(0.0973715 0.00334127 0)
(0.0960295 0.00336254 0)
(0.0946793 0.00338265 0)
(0.0933213 0.0034016 0)
(0.091956 0.00341945 0)
(0.0905838 0.00343622 0)
(0.0892052 0.00345195 0)
(0.0878204 0.00346666 0)
(0.0864301 0.00348041 0)
(0.0850344 0.0034932 0)
(0.0836339 0.00350509 0)
(0.0822288 0.00351611 0)
(0.0808195 0.00352628 0)
(0.0794063 0.00353564 0)
(0.0779896 0.00354423 0)
(0.0765696 0.00355207 0)
(0.0751466 0.0035592 0)
(0.073721 0.00356565 0)
(0.0722929 0.00357145 0)
(0.0708627 0.00357663 0)
(0.0694306 0.00358123 0)
(0.0679967 0.00358527 0)
(0.0665614 0.00358878 0)
(0.0651248 0.00359179 0)
(0.0636871 0.00359432 0)
(0.0622486 0.00359642 0)
(0.0608092 0.0035981 0)
(0.0593694 0.00359938 0)
(0.0579291 0.0036003 0)
(0.0564885 0.00360088 0)
(0.0550478 0.00360114 0)
(0.0536071 0.00360112 0)
(0.0521664 0.00360082 0)
(0.050726 0.00360027 0)
(0.0492858 0.0035995 0)
(0.047846 0.00359853 0)
(0.0464067 0.00359737 0)
(0.0449678 0.00359604 0)
(0.0435296 0.00359457 0)
(0.0420919 0.00359298 0)
(0.040655 0.00359127 0)
(0.0392187 0.00358947 0)
(0.0377833 0.0035876 0)
(0.0363486 0.00358566 0)
(0.0349147 0.00358368 0)
(0.0334816 0.00358167 0)
(0.0320493 0.00357965 0)
(0.0306178 0.00357761 0)
(0.0291872 0.00357559 0)
(0.0277574 0.00357359 0)
(0.0263284 0.00357161 0)
(0.0249002 0.00356969 0)
(0.0234727 0.00356781 0)
(0.022046 0.00356599 0)
(0.0206201 0.00356425 0)
(0.0191948 0.00356258 0)
(0.0177702 0.00356101 0)
(0.0163462 0.00355952 0)
(0.0149227 0.00355814 0)
(0.0134998 0.00355686 0)
(0.0120774 0.0035557 0)
(0.0106555 0.00355465 0)
(0.00923393 0.00355373 0)
(0.00781273 0.00355293 0)
(0.00639182 0.00355225 0)
(0.00497116 0.00355171 0)
(0.00355069 0.00355131 0)
(0.00213036 0.00355103 0)
(0.000710111 0.0035509 0)
(0.00064726 -0.00453163 0)
(0.00194181 -0.00453181 0)
(0.00323643 -0.00453217 0)
(0.00453119 -0.00453271 0)
(0.00582612 -0.00453343 0)
(0.00712129 -0.00453433 0)
(0.00841674 -0.0045354 0)
(0.00971253 -0.00453664 0)
(0.0110087 -0.00453805 0)
(0.0123053 -0.00453962 0)
(0.0136024 -0.00454136 0)
(0.0149 -0.00454325 0)
(0.0161981 -0.0045453 0)
(0.0174969 -0.00454749 0)
(0.0187964 -0.00454983 0)
(0.0200965 -0.0045523 0)
(0.0213974 -0.0045549 0)
(0.022699 -0.00455762 0)
(0.0240014 -0.00456046 0)
(0.0253047 -0.0045634 0)
(0.0266089 -0.00456645 0)
(0.0279139 -0.00456958 0)
(0.0292199 -0.00457279 0)
(0.0305268 -0.00457607 0)
(0.0318346 -0.00457941 0)
(0.0331434 -0.0045828 0)
(0.0344533 -0.00458623 0)
(0.0357641 -0.00458968 0)
(0.0370759 -0.00459314 0)
(0.0383887 -0.00459659 0)
(0.0397026 -0.00460003 0)
(0.0410174 -0.00460344 0)
(0.0423332 -0.0046068 0)
(0.04365 -0.0046101 0)
(0.0449678 -0.00461331 0)
(0.0462864 -0.00461644 0)
(0.047606 -0.00461944 0)
(0.0489264 -0.00462231 0)
(0.0502477 -0.00462503 0)
(0.0515697 -0.00462757 0)
(0.0528925 -0.00462992 0)
(0.0542159 -0.00463205 0)
(0.05554 -0.00463394 0)
(0.0568645 -0.00463556 0)
(0.0581896 -0.0046369 0)
(0.059515 -0.00463793 0)
(0.0608406 -0.00463862 0)
(0.0621665 -0.00463894 0)
(0.0634924 -0.00463887 0)
(0.0648183 -0.00463839 0)
(0.066144 -0.00463745 0)
(0.0674694 -0.00463603 0)
(0.0687944 -0.0046341 0)
(0.0701188 -0.00463163 0)
(0.0714425 -0.00462859 0)
(0.0727652 -0.00462493 0)
(0.0740868 -0.00462064 0)
(0.0754072 -0.00461567 0)
(0.0767261 -0.00460998 0)
(0.0780433 -0.00460355 0)
(0.0793586 -0.00459633 0)
(0.0806718 -0.00458828 0)
(0.0819826 -0.00457937 0)
(0.0832907 -0.00456956 0)
(0.084596 -0.00455881 0)
(0.0858982 -0.00454707 0)
(0.0871969 -0.00453431 0)
(0.0884918 -0.00452048 0)
(0.0897827 -0.00450554 0)
(0.0910692 -0.00448944 0)
(0.092351 -0.00447216 0)
(0.0936277 -0.00445363 0)
(0.094899 -0.00443383 0)
(0.0961645 -0.00441269 0)
(0.0974239 -0.00439019 0)
(0.0986767 -0.00436627 0)
(0.0999224 -0.0043409 0)
(0.101161 -0.00431402 0)
(0.102391 -0.0042856 0)
(0.103614 -0.00425559 0)
(0.104827 -0.00422395 0)
(0.106031 -0.00419063 0)
(0.107226 -0.0041556 0)
(0.10841 -0.00411882 0)
(0.109584 -0.00408024 0)
(0.110746 -0.00403983 0)
(0.111897 -0.00399755 0)
(0.113035 -0.00395337 0)
(0.114161 -0.00390724 0)
(0.115273 -0.00385914 0)
(0.116371 -0.00380904 0)
(0.117454 -0.0037569 0)
(0.118523 -0.0037027 0)
(0.119575 -0.00364642 0)
(0.120611 -0.00358803 0)
(0.121631 -0.00352751 0)
(0.122632 -0.00346484 0)
(0.123616 -0.00340002 0)
(0.12458 -0.00333302 0)
(0.125526 -0.00326385 0)
(0.126451 -0.0031925 0)
(0.127355 -0.00311895 0)
(0.128238 -0.00304323 0)
(0.129099 -0.00296533 0)
(0.129938 -0.00288525 0)
(0.130753 -0.00280303 0)
(0.131545 -0.00271867 0)
(0.132312 -0.00263219 0)
(0.133054 -0.00254362 0)
(0.133771 -0.00245299 0)
(0.134461 -0.00236034 0)
(0.135124 -0.0022657 0)
(0.13576 -0.00216911 0)
(0.136368 -0.00207063 0)
(0.136948 -0.00197031 0)
(0.137498 -0.00186819 0)
(0.13802 -0.00176435 0)
(0.138511 -0.00165884 0)
(0.138971 -0.00155174 0)
(0.139401 -0.00144312 0)
(0.139799 -0.00133305 0)
(0.140166 -0.00122162 0)
(0.140501 -0.00110892 0)
(0.140803 -0.000995016 0)
(0.141072 -0.000880018 0)
(0.141308 -0.000764014 0)
(0.141511 -0.000647104 0)
(0.14168 -0.000529386 0)
(0.141815 -0.000410964 0)
(0.141916 -0.000291941 0)
(0.141983 -0.000172424 0)
(0.142015 -5.25224e-05 0)
(0.142014 6.76559e-05 0)
(0.141977 0.000188 0)
(0.141906 0.0003084 0)
(0.141801 0.000428744 0)
(0.141661 0.000548921 0)
(0.141486 0.00066882 0)
(0.141278 0.000788332 0)
(0.141035 0.000907346 0)
(0.140758 0.00102576 0)
(0.140447 0.00114345 0)
(0.140102 0.00126034 0)
(0.139725 0.0013763 0)
(0.139314 0.00149125 0)
(0.13887 0.00160509 0)
(0.138393 0.00171771 0)
(0.137885 0.00182904 0)
(0.137345 0.00193898 0)
(0.136773 0.00204746 0)
(0.136171 0.00215438 0)
(0.135538 0.00225968 0)
(0.134876 0.00236328 0)
(0.134184 0.00246512 0)
(0.133463 0.00256513 0)
(0.132713 0.00266326 0)
(0.131936 0.00275944 0)
(0.131132 0.00285363 0)
(0.130301 0.00294579 0)
(0.129443 0.00303588 0)
(0.128561 0.00312385 0)
(0.127653 0.00320968 0)
(0.126721 0.00329334 0)
(0.125766 0.0033748 0)
(0.124787 0.00345406 0)
(0.123787 0.00353108 0)
(0.122764 0.00360588 0)
(0.121721 0.00367843 0)
(0.120657 0.00374874 0)
(0.119573 0.00381681 0)
(0.11847 0.00388264 0)
(0.117349 0.00394624 0)
(0.11621 0.00400763 0)
(0.115054 0.00406682 0)
(0.113881 0.00412383 0)
(0.112692 0.00417868 0)
(0.111488 0.0042314 0)
(0.110269 0.004282 0)
(0.109036 0.00433053 0)
(0.107789 0.00437701 0)
(0.10653 0.00442147 0)
(0.105258 0.00446395 0)
(0.103974 0.0045045 0)
(0.102679 0.00454313 0)
(0.101374 0.00457991 0)
(0.100058 0.00461486 0)
(0.0987324 0.00464803 0)
(0.0973977 0.00467947 0)
(0.0960543 0.00470921 0)
(0.0947027 0.0047373 0)
(0.0933434 0.0047638 0)
(0.0919768 0.00478874 0)
(0.0906033 0.00481217 0)
(0.0892234 0.00483414 0)
(0.0878375 0.0048547 0)
(0.086446 0.00487389 0)
(0.0850492 0.00489176 0)
(0.0836476 0.00490836 0)
(0.0822415 0.00492373 0)
(0.0808312 0.00493792 0)
(0.079417 0.00495098 0)
(0.0779994 0.00496296 0)
(0.0765785 0.00497389 0)
(0.0751548 0.00498383 0)
(0.0737283 0.00499282 0)
(0.0722995 0.00500089 0)
(0.0708686 0.00500811 0)
(0.0694357 0.0050145 0)
(0.0680012 0.00502011 0)
(0.0665653 0.00502499 0)
(0.0651281 0.00502916 0)
(0.0636899 0.00503268 0)
(0.0622508 0.00503557 0)
(0.060811 0.00503788 0)
(0.0593707 0.00503964 0)
(0.05793 0.0050409 0)
(0.056489 0.00504168 0)
(0.0550479 0.00504201 0)
(0.0536069 0.00504194 0)
(0.0521659 0.00504149 0)
(0.0507252 0.0050407 0)
(0.0492847 0.00503959 0)
(0.0478447 0.00503819 0)
(0.0464052 0.00503654 0)
(0.0449661 0.00503466 0)
(0.0435277 0.00503258 0)
(0.0420899 0.00503032 0)
(0.0406529 0.00502791 0)
(0.0392165 0.00502537 0)
(0.037781 0.00502272 0)
(0.0363462 0.00501999 0)
(0.0349122 0.0050172 0)
(0.0334791 0.00501437 0)
(0.0320468 0.00501151 0)
(0.0306154 0.00500865 0)
(0.0291848 0.0050058 0)
(0.027755 0.00500298 0)
(0.026326 0.0050002 0)
(0.0248979 0.00499749 0)
(0.0234705 0.00499484 0)
(0.0220439 0.00499229 0)
(0.020618 0.00498984 0)
(0.0191928 0.0049875 0)
(0.0177683 0.00498528 0)
(0.0163444 0.00498319 0)
(0.0149211 0.00498125 0)
(0.0134984 0.00497945 0)
(0.0120761 0.00497782 0)
(0.0106543 0.00497634 0)
(0.0092329 0.00497504 0)
(0.00781184 0.00497392 0)
(0.00639109 0.00497297 0)
(0.00497059 0.00497221 0)
(0.00355028 0.00497164 0)
(0.00213012 0.00497126 0)
(0.000710029 0.00497107 0)
(0.000647156 -0.00582608 0)
(0.0019415 -0.00582631 0)
(0.00323591 -0.00582677 0)
(0.00453046 -0.00582747 0)
(0.0058252 -0.0058284 0)
(0.00712016 -0.00582955 0)
(0.00841542 -0.00583093 0)
(0.00971101 -0.00583253 0)
(0.011007 -0.00583435 0)
(0.0123034 -0.00583638 0)
(0.0136003 -0.00583862 0)
(0.0148977 -0.00584106 0)
(0.0161957 -0.0058437 0)
(0.0174943 -0.00584653 0)
(0.0187936 -0.00584954 0)
(0.0200936 -0.00585273 0)
(0.0213943 -0.00585609 0)
(0.0226958 -0.0058596 0)
(0.0239981 -0.00586327 0)
(0.0253013 -0.00586707 0)
(0.0266053 -0.00587099 0)
(0.0279103 -0.00587504 0)
(0.0292161 -0.00587919 0)
(0.0305229 -0.00588342 0)
(0.0318307 -0.00588774 0)
(0.0331395 -0.00589211 0)
(0.0344493 -0.00589654 0)
(0.0357601 -0.00590099 0)
(0.0370719 -0.00590546 0)
(0.0383848 -0.00590993 0)
(0.0396986 -0.00591438 0)
(0.0410135 -0.00591879 0)
(0.0423294 -0.00592314 0)
(0.0436463 -0.0059274 0)
(0.0449641 -0.00593157 0)
(0.0462829 -0.00593561 0)
(0.0476026 -0.00593951 0)
(0.0489232 -0.00594323 0)
(0.0502447 -0.00594676 0)
(0.0515669 -0.00595007 0)
(0.0528899 -0.00595312 0)
(0.0542136 -0.0059559 0)
(0.0555379 -0.00595837 0)
(0.0568628 -0.0059605 0)
(0.0581882 -0.00596227 0)
(0.0595139 -0.00596363 0)
(0.06084 -0.00596456 0)
(0.0621663 -0.00596503 0)
(0.0634927 -0.00596499 0)
(0.0648191 -0.00596441 0)
(0.0661453 -0.00596325 0)
(0.0674713 -0.00596148 0)
(0.0687969 -0.00595906 0)
(0.0701219 -0.00595594 0)
(0.0714462 -0.00595208 0)
(0.0727697 -0.00594744 0)
(0.0740921 -0.00594198 0)
(0.0754132 -0.00593565 0)
(0.0767329 -0.0059284 0)
(0.078051 -0.0059202 0)
(0.0793672 -0.00591098 0)
(0.0806814 -0.0059007 0)
(0.0819932 -0.00588931 0)
(0.0833024 -0.00587677 0)
(0.0846088 -0.00586301 0)
(0.0859121 -0.00584799 0)
(0.087212 -0.00583165 0)
(0.0885082 -0.00581394 0)
(0.0898003 -0.00579481 0)
(0.0910882 -0.00577419 0)
(0.0923714 -0.00575204 0)
(0.0936495 -0.0057283 0)
(0.0949223 -0.00570291 0)
(0.0961894 -0.00567581 0)
(0.0974503 -0.00564695 0)
(0.0987047 -0.00561628 0)
(0.0999522 -0.00558373 0)
(0.101192 -0.00554924 0)
(0.102425 -0.00551278 0)
(0.103649 -0.00547426 0)
(0.104864 -0.00543365 0)
(0.10607 -0.00539089 0)
(0.107267 -0.00534593 0)
(0.108453 -0.0052987 0)
(0.109629 -0.00524917 0)
(0.110793 -0.00519728 0)
(0.111946 -0.00514298 0)
(0.113087 -0.00508623 0)
(0.114214 -0.00502698 0)
(0.115329 -0.00496519 0)
(0.116429 -0.00490082 0)
(0.117515 -0.00483383 0)
(0.118586 -0.00476419 0)
(0.119641 -0.00469186 0)
(0.120679 -0.00461682 0)
(0.121701 -0.00453904 0)
(0.122705 -0.0044585 0)
(0.123691 -0.00437517 0)
(0.124658 -0.00428905 0)
(0.125606 -0.00420012 0)
(0.126533 -0.00410838 0)
(0.12744 -0.00401382 0)
(0.128326 -0.00391645 0)
(0.12919 -0.00381628 0)
(0.130031 -0.0037133 0)
(0.130849 -0.00360756 0)
(0.131643 -0.00349905 0)
(0.132412 -0.00338782 0)
(0.133156 -0.0032739 0)
(0.133875 -0.00315732 0)
(0.134568 -0.00303812 0)
(0.135233 -0.00291637 0)
(0.135872 -0.00279211 0)
(0.136482 -0.0026654 0)
(0.137064 -0.00253631 0)
(0.137616 -0.00240492 0)
(0.138139 -0.0022713 0)
(0.138632 -0.00213553 0)
(0.139095 -0.0019977 0)
(0.139526 -0.00185791 0)
(0.139926 -0.00171626 0)
(0.140294 -0.00157285 0)
(0.14063 -0.00142779 0)
(0.140934 -0.00128119 0)
(0.141204 -0.00113317 0)
(0.141441 -0.000983858 0)
(0.141645 -0.000833373 0)
(0.141815 -0.000681846 0)
(0.141951 -0.00052941 0)