/*--------------------------------*- C++ -*----------------------------------*\
| =========                 |                                                 |
| \\      /  F ield         | OpenFOAM: The Open Source CFD Toolbox           |
|  \\    /   O peration     | Version:  v2012                                 |
|   \\  /    A nd           | Website:  www.openfoam.com                      |
|    \\/     M anipulation  |                                                 |
\*---------------------------------------------------------------------------*/
FoamFile
{
    version     2.0;
    format      ascii;
    class       volVectorField;
    location    "70";
    object      Usup;
}
// * * * * * * * * * * * * * * * * * * * * * * * * * * * * * * * * * * * * * //

dimensions      [0 1 -1 0 0 0 0];


internalField   nonuniform List<vector> 
4000
(
(-1.49799e-16 -1.42081e-16 0)
(-5.10575e-17 6.23728e-17 0)
(9.18114e-17 1.10701e-16 0)
(-6.49986e-16 -3.01297e-16 0)
(-1.67999e-15 4.26073e-17 0)
(-1.90361e-15 -1.15698e-16 0)
(-1.78325e-15 -2.61794e-16 0)
(-1.82542e-15 -3.92685e-16 0)
(-1.87657e-15 -4.54841e-16 0)
(-1.7489e-15 -3.77542e-16 0)
(-2.12795e-15 -7.34447e-16 0)
(-2.63065e-15 -7.49068e-16 0)
(-3.07238e-15 -5.75189e-16 0)
(-4.12358e-15 -4.27365e-16 0)
(-4.62747e-15 -2.41256e-17 0)
(-4.07193e-15 3.64292e-16 0)
(-3.79301e-15 -8.30746e-17 0)
(-4.30098e-15 -6.79882e-16 0)
(-4.81178e-15 -9.31809e-16 0)
(-5.28139e-15 -8.23927e-16 0)
(-5.75005e-15 -4.83005e-16 0)
(-5.59108e-15 -3.63062e-16 0)
(-4.825e-15 -5.50619e-16 0)
(-4.1099e-15 -5.1609e-16 0)
(-3.53999e-15 -6.12144e-16 0)
(-2.92594e-15 -6.47436e-16 0)
(-2.85196e-15 -8.03363e-16 0)
(-3.19427e-15 -5.37562e-16 0)
(-3.32779e-15 -4.89754e-16 0)
(-3.0339e-15 -2.6358e-16 0)
(-2.37638e-15 2.31435e-16 0)
(-1.5788e-15 3.11324e-16 0)
(-1.00741e-15 -1.93184e-16 0)
(-1.11038e-15 -4.57804e-16 0)
(-1.11678e-15 -6.31874e-16 0)
(-9.7161e-16 -1.10398e-15 0)
(-1.55083e-15 -1.10475e-15 0)
(-2.14043e-15 -7.28682e-16 0)
(-1.45535e-15 -5.17016e-16 0)
(-5.66489e-16 -6.28891e-16 0)
(-2.77355e-16 -9.4207e-16 0)
(-7.58804e-17 -9.59093e-16 0)
(-5.69814e-17 -1.36264e-15 0)
(-3.53078e-16 -1.31289e-15 0)
(-6.07732e-16 -1.1371e-15 0)
(-7.51475e-16 -1.02336e-15 0)
(-8.61023e-16 -8.6789e-16 0)
(-7.41171e-16 -5.98646e-16 0)
(-6.93778e-16 -6.62854e-16 0)
(-5.20521e-16 -8.75322e-16 0)
(-3.90596e-16 -1.01037e-15 0)
(-2.93458e-16 -7.79697e-16 0)
(-8.98695e-17 -8.61619e-16 0)
(-3.52589e-16 -1.01344e-15 0)
(-5.47281e-16 -7.08503e-16 0)
(-3.77069e-16 -7.1698e-16 0)
(-5.75661e-16 -1.07359e-15 0)
(-7.58044e-16 -7.98552e-16 0)
(-7.13666e-16 -7.6538e-16 0)
(-1.07615e-15 -5.2587e-16 0)
(-1.49306e-15 -4.49015e-16 0)
(-1.64199e-15 -4.92194e-16 0)
(-1.64582e-15 -6.24491e-16 0)
(-1.77332e-15 -4.75838e-16 0)
(-1.74802e-15 -3.6921e-16 0)
(-1.40588e-15 -1.4773e-16 0)
(-1.31662e-15 -9.33422e-17 0)
(-1.28477e-15 1.85968e-16 0)
(-1.13214e-15 1.68564e-16 0)
(-1.35252e-15 2.40368e-16 0)
(-1.59106e-15 2.9994e-16 0)
(-1.418e-15 2.41675e-16 0)
(-1.44387e-15 2.38167e-16 0)
(-1.64779e-15 5.45913e-16 0)
(-1.6787e-15 5.78336e-16 0)
(-1.66484e-15 5.23488e-16 0)
(-1.30439e-15 6.84871e-16 0)
(-1.33854e-15 4.44742e-16 0)
(-1.55588e-15 4.75861e-16 0)
(-1.32035e-15 2.04832e-16 0)
(-9.3675e-16 2.23149e-16 0)
(-7.79057e-16 1.83794e-16 0)
(-5.77599e-16 7.19276e-18 0)
(-3.85105e-16 -1.09339e-16 0)
(-4.81556e-16 -2.42607e-16 0)
(-5.57966e-16 -3.44938e-16 0)
(-4.97058e-16 -2.00374e-16 0)
(1.99049e-16 -3.64031e-16 0)
(6.14443e-16 -5.89958e-16 0)
(1.56694e-16 -4.61932e-16 0)
(-4.34923e-16 -4.44002e-16 0)
(-8.8508e-16 -1.67213e-16 0)
(-1.03007e-15 -2.0126e-16 0)
(-1.20405e-15 -4.03427e-16 0)
(-1.37536e-15 -2.90398e-16 0)
(-1.11115e-15 -1.96813e-16 0)
(-8.61876e-16 -5.03017e-16 0)
(-5.45073e-16 -5.62771e-16 0)
(-5.24978e-16 -3.19923e-16 0)
(-4.11266e-16 1.49155e-17 0)
(-1.69487e-16 -8.86622e-17 0)
(-1.87415e-16 3.04794e-16 0)
(-7.41123e-16 9.01956e-18 0)
(-2.20537e-15 -5.5511e-16 0)
(-4.2197e-15 -2.96352e-16 0)
(-5.33517e-15 -4.2603e-16 0)
(-5.32174e-15 -8.45787e-16 0)
(-5.45e-15 -1.14264e-15 0)
(-5.50249e-15 -1.14666e-15 0)
(-5.72269e-15 -1.10376e-15 0)
(-6.73505e-15 -2.15048e-15 0)
(-7.63754e-15 -2.16232e-15 0)
(-8.83887e-15 -1.9981e-15 0)
(-1.09418e-14 -1.13014e-15 0)
(-1.19462e-14 8.02681e-19 0)
(-1.18049e-14 4.34062e-16 0)
(-1.21784e-14 -4.49529e-16 0)
(-1.31108e-14 -1.75497e-15 0)
(-1.3803e-14 -2.56679e-15 0)
(-1.44779e-14 -2.55998e-15 0)
(-1.53803e-14 -2.00282e-15 0)
(-1.53582e-14 -1.44736e-15 0)
(-1.37393e-14 -1.29458e-15 0)
(-1.19301e-14 -1.42491e-15 0)
(-1.04887e-14 -1.64304e-15 0)
(-9.11497e-15 -1.66647e-15 0)
(-8.54463e-15 -1.82649e-15 0)
(-8.85782e-15 -1.48718e-15 0)
(-8.96945e-15 -1.27205e-15 0)
(-7.83601e-15 -6.94705e-16 0)
(-6.36102e-15 7.88378e-17 0)
(-5.23896e-15 4.37886e-16 0)
(-4.14484e-15 -3.62969e-16 0)
(-3.83251e-15 -1.23321e-15 0)
(-3.916e-15 -1.83247e-15 0)
(-3.61023e-15 -2.77057e-15 0)
(-4.05052e-15 -3.08022e-15 0)
(-4.84527e-15 -2.57386e-15 0)
(-3.82805e-15 -2.00144e-15 0)
(-2.33272e-15 -2.51294e-15 0)
(-1.41169e-15 -3.03766e-15 0)
(-9.54485e-16 -2.94776e-15 0)
(-8.45814e-16 -3.53039e-15 0)
(-9.94692e-16 -3.72055e-15 0)
(-1.50997e-15 -3.29472e-15 0)
(-1.87988e-15 -2.9155e-15 0)
(-1.98834e-15 -2.65564e-15 0)
(-1.93899e-15 -2.29935e-15 0)
(-2.13368e-15 -2.12332e-15 0)
(-1.80265e-15 -2.22267e-15 0)
(-1.15569e-15 -2.70771e-15 0)
(-8.65661e-16 -2.58165e-15 0)
(-8.06495e-16 -2.67873e-15 0)
(-1.00208e-15 -2.8509e-15 0)
(-1.298e-15 -2.77899e-15 0)
(-1.60822e-15 -2.56438e-15 0)
(-1.82809e-15 -2.64911e-15 0)
(-1.9805e-15 -2.00134e-15 0)
(-2.13005e-15 -1.93783e-15 0)
(-2.9239e-15 -1.77141e-15 0)
(-4.06539e-15 -1.67664e-15 0)
(-4.65481e-15 -1.78437e-15 0)
(-4.63445e-15 -1.79411e-15 0)
(-4.70282e-15 -1.46465e-15 0)
(-4.56075e-15 -1.09356e-15 0)
(-3.94492e-15 -2.98265e-16 0)
(-3.647e-15 4.68782e-17 0)
(-3.57962e-15 3.86602e-16 0)
(-3.48933e-15 2.89622e-16 0)
(-3.84687e-15 4.10918e-16 0)
(-4.39318e-15 8.03269e-16 0)
(-4.20444e-15 9.17707e-16 0)
(-4.01028e-15 8.35146e-16 0)
(-4.35961e-15 1.4491e-15 0)
(-4.69624e-15 1.75825e-15 0)
(-4.50667e-15 1.74263e-15 0)
(-3.97125e-15 2.03547e-15 0)
(-4.04897e-15 1.59845e-15 0)
(-4.34528e-15 1.5014e-15 0)
(-3.82284e-15 1.02014e-15 0)
(-2.80839e-15 9.34146e-16 0)
(-2.465e-15 3.36858e-16 0)
(-2.00705e-15 -2.50795e-16 0)
(-1.53738e-15 -7.26375e-16 0)
(-1.6091e-15 -7.53087e-16 0)
(-1.45911e-15 -7.84187e-16 0)
(-1.22088e-15 -5.67491e-16 0)
(-1.36461e-16 -8.04326e-16 0)
(8.4996e-16 -1.30478e-15 0)
(1.31931e-16 -1.60339e-15 0)
(-1.06419e-15 -1.43929e-15 0)
(-2.17072e-15 -8.67764e-16 0)
(-3.01521e-15 -8.45731e-16 0)
(-3.346e-15 -1.16255e-15 0)
(-3.43872e-15 -1.17362e-15 0)
(-3.23148e-15 -1.07612e-15 0)
(-2.74324e-15 -1.19056e-15 0)
(-1.62572e-15 -1.13012e-15 0)
(-1.08781e-15 -6.88887e-16 0)
(-8.08284e-16 -4.54227e-17 0)
(-2.85438e-16 3.18603e-16 0)
(-9.07467e-16 7.38185e-16 0)
(-2.04408e-15 6.79742e-17 0)
(-3.96552e-15 -5.22237e-16 0)
(-6.59923e-15 -1.12056e-15 0)
(-8.34223e-15 -9.09667e-16 0)
(-8.73692e-15 -1.36671e-15 0)
(-8.84012e-15 -1.70487e-15 0)
(-9.01852e-15 -1.61563e-15 0)
(-1.00588e-14 -2.0621e-15 0)
(-1.15308e-14 -3.29172e-15 0)
(-1.25811e-14 -3.34573e-15 0)
(-1.39932e-14 -3.29061e-15 0)
(-1.63706e-14 -1.9146e-15 0)
(-1.84051e-14 -3.44518e-16 0)
(-1.92529e-14 -2.93336e-16 0)
(-2.03234e-14 -1.1328e-15 0)
(-2.17419e-14 -2.48003e-15 0)
(-2.24676e-14 -3.78747e-15 0)
(-2.29908e-14 -4.41641e-15 0)
(-2.37146e-14 -3.83682e-15 0)
(-2.33993e-14 -2.71491e-15 0)
(-2.16239e-14 -1.9316e-15 0)
(-1.94149e-14 -2.18393e-15 0)
(-1.71294e-14 -2.22849e-15 0)
(-1.50683e-14 -2.27959e-15 0)
(-1.41227e-14 -2.50776e-15 0)
(-1.41733e-14 -2.3535e-15 0)
(-1.38674e-14 -1.83246e-15 0)
(-1.2194e-14 -8.16592e-16 0)
(-1.00856e-14 -2.54061e-16 0)
(-8.63668e-15 -2.0602e-16 0)
(-7.61059e-15 -1.13758e-15 0)
(-7.11649e-15 -2.19386e-15 0)
(-6.96303e-15 -2.8153e-15 0)
(-6.53857e-15 -3.73394e-15 0)
(-6.69819e-15 -4.70023e-15 0)
(-7.0463e-15 -4.64732e-15 0)
(-6.00107e-15 -4.14522e-15 0)
(-4.32391e-15 -4.52719e-15 0)
(-2.58727e-15 -5.02006e-15 0)
(-1.84233e-15 -4.98011e-15 0)
(-1.92464e-15 -5.1832e-15 0)
(-1.88037e-15 -5.65016e-15 0)
(-2.19786e-15 -5.60794e-15 0)
(-2.81068e-15 -5.01008e-15 0)
(-3.11524e-15 -4.45386e-15 0)
(-2.92458e-15 -4.01511e-15 0)
(-3.0121e-15 -3.71582e-15 0)
(-2.97894e-15 -3.68646e-15 0)
(-2.3594e-15 -4.28341e-15 0)
(-1.72081e-15 -4.27068e-15 0)
(-1.55094e-15 -4.21085e-15 0)
(-2.01319e-15 -4.42643e-15 0)
(-2.26314e-15 -4.91579e-15 0)
(-2.28811e-15 -4.45249e-15 0)
(-2.57322e-15 -3.88851e-15 0)
(-3.11427e-15 -3.23538e-15 0)
(-3.80811e-15 -3.34977e-15 0)
(-4.94417e-15 -3.43753e-15 0)
(-6.43212e-15 -3.15051e-15 0)
(-7.18763e-15 -2.72312e-15 0)
(-7.1213e-15 -2.4974e-15 0)
(-7.16045e-15 -2.374e-15 0)
(-6.69089e-15 -1.71772e-15 0)
(-5.90235e-15 -8.07216e-16 0)
(-5.865e-15 -2.07405e-16 0)
(-6.00011e-15 2.6661e-16 0)
(-5.88806e-15 4.0373e-16 0)
(-6.03278e-15 7.63948e-16 0)
(-6.59382e-15 1.49228e-15 0)
(-6.72155e-15 1.99582e-15 0)
(-6.46943e-15 2.01765e-15 0)
(-6.6311e-15 2.42697e-15 0)
(-7.17351e-15 2.90339e-15 0)
(-7.0164e-15 2.98983e-15 0)
(-6.48851e-15 3.28229e-15 0)
(-6.66577e-15 2.83776e-15 0)
(-6.89898e-15 2.43009e-15 0)
(-6.13556e-15 1.91414e-15 0)
(-5.0631e-15 1.48072e-15 0)
(-4.66514e-15 5.13108e-16 0)
(-3.80919e-15 -3.46189e-16 0)
(-2.76511e-15 -1.43448e-15 0)
(-2.42813e-15 -1.54346e-15 0)
(-2.21043e-15 -1.36365e-15 0)
(-1.88406e-15 -1.32115e-15 0)
(-7.23858e-16 -1.23365e-15 0)
(1.50974e-16 -1.87193e-15 0)
(-5.0353e-16 -2.45932e-15 0)
(-1.61383e-15 -2.4046e-15 0)
(-3.21728e-15 -2.16722e-15 0)
(-4.66556e-15 -1.99566e-15 0)
(-5.33441e-15 -2.16321e-15 0)
(-5.41786e-15 -1.98481e-15 0)
(-4.84756e-15 -1.72295e-15 0)
(-4.03913e-15 -1.47693e-15 0)
(-2.64028e-15 -1.35615e-15 0)
(-1.71516e-15 -1.20553e-15 0)
(-1.14391e-15 -3.42759e-16 0)
(-4.99105e-16 5.73692e-16 0)
(-1.83531e-15 1.18533e-15 0)
(-3.746e-15 5.00157e-16 0)
(-6.2744e-15 -6.10135e-16 0)
(-8.98466e-15 -1.50731e-15 0)
(-1.09101e-14 -1.14241e-15 0)
(-1.18723e-14 -1.49519e-15 0)
(-1.20808e-14 -1.67867e-15 0)
(-1.27028e-14 -2.17023e-15 0)
(-1.44803e-14 -3.37319e-15 0)
(-1.61296e-14 -4.23981e-15 0)
(-1.72793e-14 -4.33862e-15 0)
(-1.87711e-14 -4.10417e-15 0)
(-2.1185e-14 -3.12013e-15 0)
(-2.41505e-14 -1.70944e-15 0)
(-2.61702e-14 -1.22585e-15 0)
(-2.79417e-14 -1.96581e-15 0)
(-2.99259e-14 -3.03747e-15 0)
(-3.09103e-14 -4.59247e-15 0)
(-3.089e-14 -5.9214e-15 0)
(-3.08262e-14 -5.572e-15 0)
(-3.02885e-14 -4.12397e-15 0)
(-2.86644e-14 -3.11249e-15 0)
(-2.6181e-14 -2.54012e-15 0)
(-2.33245e-14 -2.14335e-15 0)
(-2.10026e-14 -2.18445e-15 0)
(-1.9608e-14 -2.7866e-15 0)
(-1.89861e-14 -2.92938e-15 0)
(-1.79659e-14 -2.25917e-15 0)
(-1.59291e-14 -1.26186e-15 0)
(-1.39425e-14 -8.78313e-16 0)
(-1.26054e-14 -1.32203e-15 0)
(-1.12765e-14 -2.25352e-15 0)
(-1.01675e-14 -3.35165e-15 0)
(-9.84467e-15 -3.91492e-15 0)
(-9.67761e-15 -4.75277e-15 0)
(-9.55588e-15 -5.93283e-15 0)
(-9.23676e-15 -6.28807e-15 0)
(-7.82678e-15 -6.46092e-15 0)
(-6.06128e-15 -6.4739e-15 0)
(-4.05201e-15 -6.86046e-15 0)
(-2.90123e-15 -6.92693e-15 0)
(-3.02106e-15 -6.99558e-15 0)
(-3.15099e-15 -7.28795e-15 0)
(-3.14549e-15 -7.39545e-15 0)
(-3.35144e-15 -6.93708e-15 0)
(-3.67748e-15 -6.32481e-15 0)
(-3.75155e-15 -5.75506e-15 0)
(-4.09623e-15 -5.52415e-15 0)
(-4.1978e-15 -5.27514e-15 0)
(-3.34174e-15 -5.31639e-15 0)
(-2.40295e-15 -5.41101e-15 0)
(-2.44735e-15 -5.69304e-15 0)
(-3.21838e-15 -6.27339e-15 0)
(-3.2474e-15 -6.51016e-15 0)
(-2.97343e-15 -5.99222e-15 0)
(-3.3787e-15 -5.23519e-15 0)
(-4.42283e-15 -4.65733e-15 0)
(-5.53869e-15 -4.66878e-15 0)
(-6.62559e-15 -4.8764e-15 0)
(-7.99976e-15 -4.35951e-15 0)
(-9.07602e-15 -3.4155e-15 0)
(-9.53897e-15 -3.22166e-15 0)
(-9.42901e-15 -3.02868e-15 0)
(-8.65651e-15 -1.97332e-15 0)
(-7.85239e-15 -1.66327e-15 0)
(-7.68501e-15 -1.04143e-15 0)
(-7.84054e-15 7.423e-18 0)
(-7.79148e-15 5.93286e-16 0)
(-7.8486e-15 1.06264e-15 0)
(-8.45104e-15 2.16849e-15 0)
(-8.82089e-15 3.15115e-15 0)
(-8.76363e-15 3.47735e-15 0)
(-8.8818e-15 3.65811e-15 0)
(-9.45567e-15 4.02718e-15 0)
(-9.26339e-15 4.14378e-15 0)
(-8.84136e-15 3.97305e-15 0)
(-9.24245e-15 3.54806e-15 0)
(-9.40767e-15 3.2479e-15 0)
(-8.49755e-15 2.74765e-15 0)
(-7.26775e-15 1.80074e-15 0)
(-6.72901e-15 8.7936e-16 0)
(-5.90176e-15 -1.9894e-16 0)
(-4.52068e-15 -1.71749e-15 0)
(-3.45252e-15 -2.38775e-15 0)
(-2.98863e-15 -2.53765e-15 0)
(-2.47667e-15 -2.20702e-15 0)
(-1.38916e-15 -2.06322e-15 0)
(-6.9613e-16 -2.79621e-15 0)
(-1.30803e-15 -3.36998e-15 0)
(-2.63263e-15 -3.51962e-15 0)
(-4.38872e-15 -3.70877e-15 0)
(-6.07533e-15 -3.5095e-15 0)
(-6.76933e-15 -3.35894e-15 0)
(-6.68494e-15 -2.62223e-15 0)
(-6.23018e-15 -2.01314e-15 0)
(-5.4597e-15 -1.73387e-15 0)
(-3.94235e-15 -1.80703e-15 0)
(-2.40977e-15 -1.69679e-15 0)
(-1.17669e-15 -7.27212e-16 0)
(-6.7742e-16 5.66212e-16 0)
(-2.82122e-15 1.30571e-15 0)
(-5.74513e-15 7.70767e-16 0)
(-8.64993e-15 -4.88531e-16 0)
(-1.11372e-14 -1.186e-15 0)
(-1.32713e-14 -9.12691e-16 0)
(-1.46847e-14 -1.04208e-15 0)
(-1.54341e-14 -1.52559e-15 0)
(-1.69165e-14 -2.72253e-15 0)
(-1.88762e-14 -4.17201e-15 0)
(-2.03735e-14 -4.69743e-15 0)
(-2.16228e-14 -5.0915e-15 0)
(-2.33417e-14 -5.05171e-15 0)
(-2.59484e-14 -4.68421e-15 0)
(-2.92004e-14 -3.79215e-15 0)
(-3.21731e-14 -2.65623e-15 0)
(-3.48624e-14 -3.06517e-15 0)
(-3.74545e-14 -3.92956e-15 0)
(-3.89603e-14 -5.07457e-15 0)
(-3.8539e-14 -6.43859e-15 0)
(-3.73757e-14 -6.61701e-15 0)
(-3.62755e-14 -5.17638e-15 0)
(-3.44192e-14 -4.06868e-15 0)
(-3.17099e-14 -2.78242e-15 0)
(-2.88876e-14 -2.05336e-15 0)
(-2.66765e-14 -2.0259e-15 0)
(-2.51294e-14 -2.80592e-15 0)
(-2.37101e-14 -3.12605e-15 0)
(-2.19742e-14 -2.59901e-15 0)
(-1.97218e-14 -2.01833e-15 0)
(-1.76975e-14 -1.97634e-15 0)
(-1.62039e-14 -2.58678e-15 0)
(-1.481e-14 -3.10517e-15 0)
(-1.34726e-14 -4.03091e-15 0)
(-1.27669e-14 -4.98495e-15 0)
(-1.2591e-14 -6.25231e-15 0)
(-1.23033e-14 -7.24363e-15 0)
(-1.17013e-14 -7.57099e-15 0)
(-9.87757e-15 -7.94068e-15 0)
(-7.67172e-15 -8.40386e-15 0)
(-5.38381e-15 -8.71422e-15 0)
(-4.00921e-15 -8.9129e-15 0)
(-4.09046e-15 -9.21931e-15 0)
(-4.10723e-15 -9.02712e-15 0)
(-3.9961e-15 -8.38415e-15 0)
(-4.19587e-15 -8.14093e-15 0)
(-4.47001e-15 -8.32891e-15 0)
(-4.51772e-15 -7.94176e-15 0)
(-4.73365e-15 -7.3755e-15 0)
(-4.75029e-15 -6.75203e-15 0)
(-4.2374e-15 -6.16691e-15 0)
(-3.67549e-15 -6.4249e-15 0)
(-3.84706e-15 -7.22932e-15 0)
(-4.39027e-15 -8.0892e-15 0)
(-4.01308e-15 -7.90305e-15 0)
(-3.51249e-15 -7.10416e-15 0)
(-4.03451e-15 -6.20884e-15 0)
(-5.48008e-15 -5.77225e-15 0)
(-7.13566e-15 -5.50283e-15 0)
(-8.34058e-15 -5.51514e-15 0)
(-9.43958e-15 -4.76477e-15 0)
(-1.07931e-14 -4.0527e-15 0)
(-1.15146e-14 -3.92765e-15 0)
(-1.10421e-14 -3.51926e-15 0)
(-1.04785e-14 -2.56017e-15 0)
(-9.89693e-15 -2.43972e-15 0)
(-9.20037e-15 -1.81009e-15 0)
(-9.28453e-15 -7.22919e-16 0)
(-9.57862e-15 3.75756e-16 0)
(-9.4063e-15 1.33346e-15 0)
(-9.6764e-15 3.10989e-15 0)
(-1.04224e-14 4.19594e-15 0)
(-1.08021e-14 4.68463e-15 0)
(-1.09677e-14 4.9356e-15 0)
(-1.1527e-14 5.09773e-15 0)
(-1.16468e-14 5.23735e-15 0)
(-1.13189e-14 4.33374e-15 0)
(-1.13941e-14 3.65392e-15 0)
(-1.14569e-14 3.81315e-15 0)
(-1.08311e-14 3.58631e-15 0)
(-9.65038e-15 2.59576e-15 0)
(-8.93497e-15 1.16402e-15 0)
(-8.14115e-15 -3.01503e-16 0)
(-6.4876e-15 -1.79144e-15 0)
(-4.91558e-15 -2.87878e-15 0)
(-3.74991e-15 -3.42876e-15 0)
(-2.95352e-15 -2.93749e-15 0)
(-2.30922e-15 -3.01536e-15 0)
(-1.89602e-15 -3.67515e-15 0)
(-2.39159e-15 -4.89803e-15 0)
(-3.70937e-15 -5.37796e-15 0)
(-5.58195e-15 -5.48671e-15 0)
(-7.21103e-15 -5.12624e-15 0)
(-7.77957e-15 -4.53099e-15 0)
(-7.64406e-15 -3.67261e-15 0)
(-7.31648e-15 -3.10003e-15 0)
(-6.76781e-15 -2.54974e-15 0)
(-5.17006e-15 -2.19239e-15 0)
(-3.12772e-15 -1.70175e-15 0)
(-1.19818e-15 -7.56724e-16 0)
(-9.04301e-16 6.79015e-16 0)
(-3.75308e-15 1.05025e-15 0)
(-7.58325e-15 5.41313e-16 0)
(-1.08748e-14 -1.26297e-16 0)
(-1.31892e-14 -5.26158e-16 0)
(-1.53813e-14 -3.3031e-16 0)
(-1.75025e-14 -4.30369e-16 0)
(-1.90584e-14 -1.82747e-15 0)
(-2.09666e-14 -3.30909e-15 0)
(-2.28939e-14 -4.56591e-15 0)
(-2.45279e-14 -4.9512e-15 0)
(-2.6129e-14 -5.33903e-15 0)
(-2.79807e-14 -5.7012e-15 0)
(-3.06589e-14 -5.88154e-15 0)
(-3.38044e-14 -5.45207e-15 0)
(-3.73502e-14 -4.68813e-15 0)
(-4.10828e-14 -4.8175e-15 0)
(-4.40937e-14 -5.22378e-15 0)
(-4.58888e-14 -5.71436e-15 0)
(-4.54668e-14 -6.40451e-15 0)
(-4.34116e-14 -6.52051e-15 0)
(-4.16833e-14 -5.22509e-15 0)
(-3.96315e-14 -3.93456e-15 0)
(-3.67009e-14 -2.77941e-15 0)
(-3.39861e-14 -2.17224e-15 0)
(-3.20313e-14 -2.37606e-15 0)
(-3.0249e-14 -3.22692e-15 0)
(-2.80892e-14 -3.48415e-15 0)
(-2.57978e-14 -3.02878e-15 0)
(-2.34043e-14 -2.67027e-15 0)
(-2.14849e-14 -2.69013e-15 0)
(-1.97426e-14 -3.3079e-15 0)
(-1.79327e-14 -4.06196e-15 0)
(-1.66029e-14 -5.12558e-15 0)
(-1.61447e-14 -6.60306e-15 0)
(-1.57335e-14 -7.76672e-15 0)
(-1.47073e-14 -8.56518e-15 0)
(-1.36546e-14 -8.75627e-15 0)
(-1.19177e-14 -8.87402e-15 0)
(-9.60126e-15 -9.80141e-15 0)
(-6.94055e-15 -1.03422e-14 0)
(-5.45715e-15 -1.10906e-14 0)
(-5.11522e-15 -1.16187e-14 0)
(-4.50939e-15 -1.07349e-14 0)
(-4.50402e-15 -9.52108e-15 0)
(-5.37049e-15 -9.14306e-15 0)
(-5.60865e-15 -9.51192e-15 0)
(-5.0943e-15 -9.61296e-15 0)
(-5.18926e-15 -9.34531e-15 0)
(-5.17724e-15 -8.5567e-15 0)
(-4.87622e-15 -7.41608e-15 0)
(-4.9032e-15 -7.27182e-15 0)
(-5.39857e-15 -8.12178e-15 0)
(-5.53255e-15 -9.10514e-15 0)
(-4.49286e-15 -8.80068e-15 0)
(-3.8899e-15 -7.67562e-15 0)
(-4.8079e-15 -7.04052e-15 0)
(-6.60569e-15 -6.97565e-15 0)
(-8.38308e-15 -6.54568e-15 0)
(-9.4821e-15 -5.73344e-15 0)
(-1.06808e-14 -4.69916e-15 0)
(-1.25108e-14 -4.05179e-15 0)
(-1.34025e-14 -4.04143e-15 0)
(-1.27933e-14 -4.10271e-15 0)
(-1.22543e-14 -3.61418e-15 0)
(-1.16448e-14 -3.16523e-15 0)
(-1.07019e-14 -2.64247e-15 0)
(-1.04649e-14 -1.68123e-15 0)
(-1.04985e-14 1.94847e-16 0)
(-1.00882e-14 2.14836e-15 0)
(-1.06417e-14 4.29806e-15 0)
(-1.19883e-14 5.20584e-15 0)
(-1.2564e-14 5.63162e-15 0)
(-1.2922e-14 6.1543e-15 0)
(-1.35304e-14 6.16415e-15 0)
(-1.40133e-14 5.83761e-15 0)
(-1.40317e-14 5.01224e-15 0)
(-1.34641e-14 4.17329e-15 0)
(-1.30736e-14 4.01893e-15 0)
(-1.27224e-14 3.84387e-15 0)
(-1.20447e-14 3.06949e-15 0)
(-1.15176e-14 1.48941e-15 0)
(-1.04208e-14 -2.90204e-17 0)
(-8.49537e-15 -1.46639e-15 0)
(-6.52081e-15 -3.19863e-15 0)
(-4.70637e-15 -4.0453e-15 0)
(-3.66454e-15 -4.0347e-15 0)
(-3.27997e-15 -4.11293e-15 0)
(-3.42626e-15 -4.94755e-15 0)
(-4.10505e-15 -6.12252e-15 0)
(-4.95604e-15 -7.23834e-15 0)
(-6.48065e-15 -7.37071e-15 0)
(-7.98832e-15 -6.75775e-15 0)
(-8.55989e-15 -5.9149e-15 0)
(-8.60894e-15 -4.98266e-15 0)
(-8.35681e-15 -4.41083e-15 0)
(-7.61059e-15 -3.76011e-15 0)
(-5.93149e-15 -2.88095e-15 0)
(-3.71064e-15 -1.8991e-15 0)
(-1.39407e-15 -6.41564e-16 0)
(-1.4314e-15 7.69932e-16 0)
(-5.11087e-15 8.50925e-16 0)
(-9.16042e-15 3.65202e-16 0)
(-1.25024e-14 6.61871e-17 0)
(-1.4951e-14 3.15151e-16 0)
(-1.74611e-14 3.67099e-16 0)
(-2.06127e-14 -3.46822e-16 0)
(-2.29299e-14 -2.09262e-15 0)
(-2.4877e-14 -3.52032e-15 0)
(-2.66477e-14 -4.59237e-15 0)
(-2.81959e-14 -4.98475e-15 0)
(-3.01824e-14 -5.45968e-15 0)
(-3.25298e-14 -6.50169e-15 0)
(-3.53053e-14 -6.78843e-15 0)
(-3.85199e-14 -6.60767e-15 0)
(-4.24466e-14 -6.53044e-15 0)
(-4.64617e-14 -6.60883e-15 0)
(-4.97359e-14 -6.33784e-15 0)
(-5.1796e-14 -6.4408e-15 0)
(-5.13178e-14 -6.08082e-15 0)
(-4.87231e-14 -5.76781e-15 0)
(-4.63865e-14 -5.22558e-15 0)
(-4.42153e-14 -4.27573e-15 0)
(-4.14414e-14 -3.00351e-15 0)
(-3.89845e-14 -2.54257e-15 0)
(-3.72137e-14 -3.07791e-15 0)
(-3.51133e-14 -3.36523e-15 0)
(-3.21674e-14 -3.28993e-15 0)
(-2.93921e-14 -3.01186e-15 0)
(-2.68471e-14 -2.9441e-15 0)
(-2.48519e-14 -3.26391e-15 0)
(-2.32143e-14 -3.76701e-15 0)
(-2.15353e-14 -5.00802e-15 0)
(-2.02292e-14 -6.47335e-15 0)
(-1.92063e-14 -8.24318e-15 0)
(-1.82238e-14 -8.91416e-15 0)
(-1.69523e-14 -9.57665e-15 0)
(-1.55536e-14 -9.95932e-15 0)
(-1.39067e-14 -1.02877e-14 0)
(-1.16124e-14 -1.09479e-14 0)
(-8.82792e-15 -1.18841e-14 0)
(-7.16525e-15 -1.32208e-14 0)
(-5.87494e-15 -1.35246e-14 0)
(-4.5362e-15 -1.23678e-14 0)
(-4.78322e-15 -1.09799e-14 0)
(-6.15304e-15 -1.04842e-14 0)
(-6.77483e-15 -1.04904e-14 0)
(-6.32372e-15 -1.10552e-14 0)
(-5.83105e-15 -1.10384e-14 0)
(-5.14021e-15 -9.97725e-15 0)
(-5.0445e-15 -8.60421e-15 0)
(-5.92003e-15 -8.28285e-15 0)
(-6.94317e-15 -8.89085e-15 0)
(-6.71852e-15 -9.31149e-15 0)
(-4.92239e-15 -9.28948e-15 0)
(-4.3517e-15 -8.37282e-15 0)
(-5.86864e-15 -7.73877e-15 0)
(-7.71743e-15 -7.65637e-15 0)
(-9.10418e-15 -7.06983e-15 0)
(-1.01622e-14 -5.80348e-15 0)
(-1.16683e-14 -4.81123e-15 0)
(-1.4016e-14 -4.15293e-15 0)
(-1.54354e-14 -3.86452e-15 0)
(-1.47179e-14 -3.88849e-15 0)
(-1.38182e-14 -3.93919e-15 0)
(-1.31999e-14 -3.50096e-15 0)
(-1.20949e-14 -2.96542e-15 0)
(-1.11562e-14 -1.85709e-15 0)
(-1.07111e-14 5.71078e-16 0)
(-1.03498e-14 2.81152e-15 0)
(-1.14092e-14 4.5382e-15 0)
(-1.34354e-14 5.77685e-15 0)
(-1.40982e-14 6.40582e-15 0)
(-1.45487e-14 6.6606e-15 0)
(-1.56756e-14 6.53755e-15 0)
(-1.63088e-14 6.12335e-15 0)
(-1.62161e-14 5.98268e-15 0)
(-1.56263e-14 5.55393e-15 0)
(-1.4997e-14 4.71743e-15 0)
(-1.45828e-14 4.04428e-15 0)
(-1.4162e-14 3.10024e-15 0)
(-1.37168e-14 1.76666e-15 0)
(-1.25591e-14 7.92137e-17 0)
(-1.08369e-14 -1.5695e-15 0)
(-8.64253e-15 -3.61647e-15 0)
(-6.03772e-15 -4.78375e-15 0)
(-4.54747e-15 -5.23726e-15 0)
(-4.44907e-15 -5.57053e-15 0)
(-4.87016e-15 -6.5802e-15 0)
(-5.73064e-15 -7.48786e-15 0)
(-6.53983e-15 -8.50281e-15 0)
(-7.4364e-15 -8.83768e-15 0)
(-8.62077e-15 -8.20639e-15 0)
(-9.16425e-15 -7.58296e-15 0)
(-9.35082e-15 -6.55119e-15 0)
(-9.25952e-15 -5.55867e-15 0)
(-8.43798e-15 -4.8588e-15 0)
(-6.4973e-15 -3.94725e-15 0)
(-4.02828e-15 -2.68774e-15 0)
(-1.59944e-15 -9.98954e-16 0)
(-1.8923e-15 5.5725e-16 0)
(-6.25173e-15 8.83202e-16 0)
(-1.06585e-14 8.03175e-16 0)
(-1.38426e-14 4.87776e-16 0)
(-1.64025e-14 8.35504e-16 0)
(-1.98276e-14 3.41997e-16 0)
(-2.37939e-14 -5.78437e-16 0)
(-2.63993e-14 -1.66365e-15 0)
(-2.83541e-14 -3.17778e-15 0)
(-3.00978e-14 -4.14458e-15 0)
(-3.19164e-14 -4.96726e-15 0)
(-3.46569e-14 -6.21531e-15 0)
(-3.70432e-14 -7.61063e-15 0)
(-3.94678e-14 -7.8245e-15 0)
(-4.29252e-14 -7.78231e-15 0)
(-4.71586e-14 -7.48905e-15 0)
(-5.11734e-14 -7.62964e-15 0)
(-5.45619e-14 -7.42074e-15 0)
(-5.65699e-14 -6.87641e-15 0)
(-5.60041e-14 -5.82163e-15 0)
(-5.38231e-14 -5.59282e-15 0)
(-5.14593e-14 -5.60687e-15 0)
(-4.85394e-14 -4.94695e-15 0)
(-4.55152e-14 -3.93708e-15 0)
(-4.36088e-14 -3.66925e-15 0)
(-4.1663e-14 -3.76846e-15 0)
(-3.88968e-14 -3.21125e-15 0)
(-3.57911e-14 -2.38281e-15 0)
(-3.29597e-14 -2.28156e-15 0)
(-3.04303e-14 -2.90902e-15 0)
(-2.8334e-14 -3.66048e-15 0)
(-2.6683e-14 -4.76333e-15 0)
(-2.50452e-14 -6.34331e-15 0)
(-2.36453e-14 -7.68328e-15 0)
(-2.22224e-14 -8.80683e-15 0)
(-2.06779e-14 -9.60094e-15 0)
(-1.91517e-14 -1.04361e-14 0)
(-1.75593e-14 -1.11741e-14 0)
(-1.57062e-14 -1.15814e-14 0)
(-1.35072e-14 -1.21584e-14 0)
(-1.10433e-14 -1.35008e-14 0)
(-8.85571e-15 -1.49819e-14 0)
(-6.51747e-15 -1.48407e-14 0)
(-4.57554e-15 -1.39214e-14 0)
(-5.01321e-15 -1.28221e-14 0)
(-6.88458e-15 -1.18818e-14 0)
(-7.88362e-15 -1.16693e-14 0)
(-7.32318e-15 -1.18798e-14 0)
(-6.18297e-15 -1.16549e-14 0)
(-5.1314e-15 -1.10069e-14 0)
(-5.34264e-15 -1.01108e-14 0)
(-6.81985e-15 -9.70968e-15 0)
(-7.89197e-15 -9.73165e-15 0)
(-7.63779e-15 -9.23333e-15 0)
(-5.73127e-15 -9.07152e-15 0)
(-4.83149e-15 -8.92313e-15 0)
(-6.55022e-15 -8.39624e-15 0)
(-8.59895e-15 -7.97015e-15 0)
(-9.74207e-15 -7.0141e-15 0)
(-1.07871e-14 -5.72967e-15 0)
(-1.26655e-14 -4.77306e-15 0)
(-1.52124e-14 -4.00415e-15 0)
(-1.67571e-14 -3.35227e-15 0)
(-1.64951e-14 -3.2745e-15 0)
(-1.56633e-14 -4.12947e-15 0)
(-1.46309e-14 -3.746e-15 0)
(-1.31832e-14 -2.76477e-15 0)
(-1.15389e-14 -1.53639e-15 0)
(-1.07316e-14 6.43778e-16 0)
(-1.08381e-14 3.21654e-15 0)
(-1.21322e-14 4.73605e-15 0)
(-1.42838e-14 6.31509e-15 0)
(-1.55684e-14 7.32687e-15 0)
(-1.64456e-14 7.11869e-15 0)
(-1.74842e-14 6.43281e-15 0)
(-1.78853e-14 6.31396e-15 0)
(-1.77874e-14 6.55961e-15 0)
(-1.7577e-14 6.51201e-15 0)
(-1.71849e-14 5.243e-15 0)
(-1.67046e-14 4.18734e-15 0)
(-1.62865e-14 3.0804e-15 0)
(-1.60782e-14 1.83598e-15 0)
(-1.49993e-14 -8.06339e-17 0)
(-1.31501e-14 -1.965e-15 0)
(-1.06649e-14 -3.91439e-15 0)
(-7.55416e-15 -5.3661e-15 0)
(-5.81093e-15 -6.23131e-15 0)
(-5.80042e-15 -7.24804e-15 0)
(-6.41287e-15 -8.38455e-15 0)
(-7.22912e-15 -9.26349e-15 0)
(-7.86333e-15 -9.80997e-15 0)
(-8.41367e-15 -1.00318e-14 0)
(-9.4443e-15 -9.61641e-15 0)
(-9.91021e-15 -9.16428e-15 0)
(-9.82029e-15 -8.08968e-15 0)
(-9.8853e-15 -6.87525e-15 0)
(-9.22605e-15 -6.07608e-15 0)
(-7.14025e-15 -5.02742e-15 0)
(-4.35051e-15 -3.77191e-15 0)
(-1.48071e-15 -1.46322e-15 0)
(-2.15678e-15 5.24394e-16 0)
(-6.99453e-15 9.38242e-16 0)
(-1.18241e-14 1.21083e-15 0)
(-1.52346e-14 1.29479e-15 0)
(-1.82519e-14 8.66431e-16 0)
(-2.21605e-14 -2.61619e-17 0)
(-2.62252e-14 -9.68921e-16 0)
(-2.94676e-14 -1.3285e-15 0)
(-3.18338e-14 -2.91894e-15 0)
(-3.36285e-14 -4.18009e-15 0)
(-3.59457e-14 -5.41598e-15 0)
(-3.89369e-14 -6.98239e-15 0)
(-4.11095e-14 -7.80175e-15 0)
(-4.33891e-14 -8.31402e-15 0)
(-4.67414e-14 -8.72415e-15 0)
(-5.12486e-14 -8.37558e-15 0)
(-5.57056e-14 -8.47817e-15 0)
(-5.87876e-14 -7.84214e-15 0)
(-6.04556e-14 -7.08464e-15 0)
(-6.03354e-14 -6.35718e-15 0)
(-5.8526e-14 -6.68858e-15 0)
(-5.5734e-14 -6.62997e-15 0)
(-5.25426e-14 -5.55717e-15 0)
(-4.96885e-14 -4.71415e-15 0)
(-4.7614e-14 -4.38461e-15 0)
(-4.51654e-14 -3.78473e-15 0)
(-4.19065e-14 -3.10539e-15 0)
(-3.88124e-14 -2.01789e-15 0)
(-3.66111e-14 -2.22916e-15 0)
(-3.41795e-14 -2.94017e-15 0)
(-3.20119e-14 -3.68893e-15 0)
(-3.04739e-14 -5.4686e-15 0)
(-2.84969e-14 -7.22766e-15 0)
(-2.64372e-14 -8.51942e-15 0)
(-2.46517e-14 -9.26171e-15 0)
(-2.31425e-14 -1.0119e-14 0)
(-2.15426e-14 -1.11208e-14 0)
(-1.95484e-14 -1.2065e-14 0)
(-1.74981e-14 -1.27112e-14 0)
(-1.56111e-14 -1.35279e-14 0)
(-1.32375e-14 -1.51213e-14 0)
(-1.02765e-14 -1.61604e-14 0)
(-7.06979e-15 -1.56537e-14 0)
(-4.92845e-15 -1.48245e-14 0)
(-5.10198e-15 -1.4105e-14 0)
(-7.08875e-15 -1.31341e-14 0)
(-8.52983e-15 -1.26373e-14 0)
(-8.04221e-15 -1.22502e-14 0)
(-6.88922e-15 -1.19408e-14 0)
(-5.67858e-15 -1.16844e-14 0)
(-5.74971e-15 -1.14092e-14 0)
(-7.3071e-15 -1.03877e-14 0)
(-8.2952e-15 -9.9993e-15 0)
(-8.00598e-15 -9.58994e-15 0)
(-6.57127e-15 -8.99709e-15 0)
(-5.86696e-15 -9.23967e-15 0)
(-7.34187e-15 -8.928e-15 0)
(-9.05929e-15 -8.07953e-15 0)
(-1.00134e-14 -6.67601e-15 0)
(-1.12729e-14 -5.55622e-15 0)
(-1.33491e-14 -4.54684e-15 0)
(-1.60861e-14 -3.48399e-15 0)
(-1.81424e-14 -2.70573e-15 0)
(-1.86208e-14 -3.23026e-15 0)
(-1.75449e-14 -4.06319e-15 0)
(-1.55941e-14 -3.72922e-15 0)
(-1.38664e-14 -2.49698e-15 0)
(-1.20371e-14 -1.45658e-15 0)
(-1.05945e-14 6.80235e-16 0)
(-1.07125e-14 3.68635e-15 0)
(-1.24951e-14 5.39894e-15 0)
(-1.48809e-14 6.70404e-15 0)
(-1.68329e-14 7.72994e-15 0)
(-1.84898e-14 7.56898e-15 0)
(-1.94871e-14 6.63075e-15 0)
(-1.93458e-14 6.25034e-15 0)
(-1.9086e-14 6.30671e-15 0)
(-1.94724e-14 6.48321e-15 0)
(-1.94256e-14 5.25521e-15 0)
(-1.87153e-14 4.02042e-15 0)
(-1.82456e-14 2.68085e-15 0)
(-1.82086e-14 1.48916e-15 0)
(-1.73464e-14 1.49978e-16 0)
(-1.54949e-14 -2.07982e-15 0)
(-1.28568e-14 -4.06276e-15 0)
(-9.3607e-15 -5.89417e-15 0)
(-7.49404e-15 -7.42128e-15 0)
(-7.58722e-15 -8.78753e-15 0)
(-7.96077e-15 -1.00759e-14 0)
(-8.50665e-15 -1.08852e-14 0)
(-9.00446e-15 -1.13229e-14 0)
(-9.39295e-15 -1.12778e-14 0)
(-1.02809e-14 -1.11006e-14 0)
(-1.05171e-14 -1.04817e-14 0)
(-1.02867e-14 -9.56501e-15 0)
(-1.05075e-14 -8.39907e-15 0)
(-9.89713e-15 -7.58699e-15 0)
(-7.71889e-15 -6.10006e-15 0)
(-4.48284e-15 -4.32102e-15 0)
(-1.16369e-15 -1.54987e-15 0)
(-2.47657e-15 4.39256e-16 0)
(-7.65946e-15 8.9138e-16 0)
(-1.26036e-14 1.15991e-15 0)
(-1.66469e-14 1.46223e-15 0)
(-2.03115e-14 7.69862e-16 0)
(-2.45302e-14 -2.47267e-16 0)
(-2.85384e-14 -1.04991e-15 0)
(-3.20689e-14 -1.60486e-15 0)
(-3.51523e-14 -2.8764e-15 0)
(-3.71208e-14 -3.93068e-15 0)
(-3.96687e-14 -5.773e-15 0)
(-4.26191e-14 -7.19827e-15 0)
(-4.47432e-14 -7.63758e-15 0)
(-4.73572e-14 -8.40813e-15 0)
(-5.06311e-14 -9.38267e-15 0)
(-5.50344e-14 -9.48799e-15 0)
(-5.9174e-14 -9.27831e-15 0)
(-6.22005e-14 -8.07371e-15 0)
(-6.43349e-14 -7.67332e-15 0)
(-6.46718e-14 -7.70355e-15 0)
(-6.29793e-14 -7.85862e-15 0)
(-5.94686e-14 -7.5322e-15 0)
(-5.57536e-14 -6.27433e-15 0)
(-5.29725e-14 -5.40209e-15 0)
(-5.08814e-14 -5.10938e-15 0)
(-4.82785e-14 -4.06164e-15 0)
(-4.47336e-14 -2.9083e-15 0)
(-4.18494e-14 -2.20257e-15 0)
(-3.98947e-14 -2.50522e-15 0)
(-3.73045e-14 -2.75586e-15 0)
(-3.55353e-14 -3.97358e-15 0)
(-3.41806e-14 -5.6341e-15 0)
(-3.17657e-14 -7.34673e-15 0)
(-2.92396e-14 -8.59641e-15 0)
(-2.71611e-14 -9.61359e-15 0)
(-2.55075e-14 -1.06715e-14 0)
(-2.37702e-14 -1.15971e-14 0)
(-2.16544e-14 -1.24053e-14 0)
(-1.94528e-14 -1.33803e-14 0)
(-1.77078e-14 -1.46776e-14 0)
(-1.51895e-14 -1.5838e-14 0)
(-1.12764e-14 -1.63361e-14 0)
(-7.42615e-15 -1.59729e-14 0)
(-5.23084e-15 -1.52942e-14 0)
(-5.50047e-15 -1.50467e-14 0)
(-7.49366e-15 -1.43606e-14 0)
(-8.89178e-15 -1.36352e-14 0)
(-8.44429e-15 -1.3143e-14 0)
(-7.37903e-15 -1.2624e-14 0)
(-6.33773e-15 -1.2078e-14 0)
(-5.98343e-15 -1.18593e-14 0)
(-7.39291e-15 -1.05624e-14 0)
(-8.95451e-15 -9.95337e-15 0)
(-8.61631e-15 -1.00822e-14 0)
(-7.28248e-15 -9.41831e-15 0)
(-6.70769e-15 -9.15795e-15 0)
(-7.76407e-15 -8.47862e-15 0)
(-9.16658e-15 -7.62236e-15 0)
(-1.02766e-14 -6.59601e-15 0)
(-1.17788e-14 -5.49319e-15 0)
(-1.38565e-14 -4.50214e-15 0)
(-1.67103e-14 -3.56657e-15 0)
(-1.95308e-14 -2.66626e-15 0)
(-2.05303e-14 -2.49643e-15 0)
(-1.91132e-14 -2.65731e-15 0)
(-1.65828e-14 -2.59954e-15 0)
(-1.46187e-14 -2.20768e-15 0)
(-1.23028e-14 -1.11363e-15 0)
(-1.00395e-14 1.0413e-15 0)
(-1.04454e-14 3.6685e-15 0)
(-1.29743e-14 5.11082e-15 0)
(-1.56084e-14 6.61371e-15 0)
(-1.79384e-14 7.354e-15 0)
(-2.0213e-14 7.19437e-15 0)
(-2.13485e-14 6.61764e-15 0)
(-2.0934e-14 5.95943e-15 0)
(-2.03228e-14 5.95595e-15 0)
(-2.0935e-14 5.88083e-15 0)
(-2.14431e-14 5.20208e-15 0)
(-2.08951e-14 4.10376e-15 0)
(-2.02898e-14 2.4662e-15 0)
(-1.99283e-14 9.13257e-16 0)
(-1.94714e-14 -5.29052e-16 0)
(-1.79736e-14 -2.56609e-15 0)
(-1.50987e-14 -4.77508e-15 0)