/*--------------------------------*- C++ -*----------------------------------*\
| =========                 |                                                 |
| \\      /  F ield         | OpenFOAM: The Open Source CFD Toolbox           |
|  \\    /   O peration     | Version:  v2012                                 |
|   \\  /    A nd           | Website:  www.openfoam.com                      |
|    \\/     M anipulation  |                                                 |
\*---------------------------------------------------------------------------*/
FoamFile
{
    version     2.0;
    format      ascii;
    class       volVectorField;
    location    "70";
    object      Usup;
}
// * * * * * * * * * * * * * * * * * * * * * * * * * * * * * * * * * * * * * //

dimensions      [0 1 -1 0 0 0 0];


internalField   nonuniform List<vector> 
4000
(
(-0.00309843 -0.00174509 0)
(-0.00926771 -0.00304491 0)
(-0.00217425 0.00175407 0)
(0.0166185 0.0144791 0)
(0.0286436 0.00886296 0)
(0.0162028 -0.00960582 0)
(-0.0200015 -0.0246886 0)
(-0.0485743 -0.0119303 0)
(-0.0530444 0.00952935 0)
(-0.0377045 0.0131743 0)
(-0.0105126 0.0194845 0)
(0.00276096 0.00988793 0)
(0.00421292 -0.00136834 0)
(0.024622 0.00399527 0)
(0.0582117 -0.00643449 0)
(0.060974 -0.0253092 0)
(0.0332163 -0.0303598 0)
(0.013755 -0.0156249 0)
(0.00929525 -0.000286897 0)
(0.00618825 0.00789189 0)
(-0.00843287 -0.00475742 0)
(-0.0273174 -0.01181 0)
(-0.0496792 0.00458714 0)
(-0.0718001 0.00856346 0)
(-0.0551534 0.0185133 0)
(-0.0234022 0.0301047 0)
(-0.0061629 0.0445096 0)
(0.015188 0.0491508 0)
(0.0270016 0.0356043 0)
(0.0203947 0.0239082 0)
(0.00687099 0.0138117 0)
(0.00427486 0.00835146 0)
(0.0144178 0.00245652 0)
(0.0453634 -0.000871219 0)
(0.0549403 -0.0230801 0)
(0.0411057 -0.0199923 0)
(0.020275 -0.0185915 0)
(-0.00407837 -0.0196306 0)
(-0.0191956 -0.0160897 0)
(-0.0439831 -0.000474909 0)
(-0.0386912 3.82977e-05 0)
(-0.0168074 -0.00517642 0)
(-0.0201189 -0.00679411 0)
(-0.0196463 0.00670262 0)
(-0.0174059 0.00957197 0)
(-0.0186765 0.0171302 0)
(-0.00271231 0.0155846 0)
(0.00813935 -0.00824111 0)
(0.0105617 -0.00685295 0)
(0.0144342 0.00168081 0)
(0.0172986 0.0104483 0)
(0.0153972 0.00631213 0)
(0.00525661 -0.00361032 0)
(0.000128693 -0.00398975 0)
(0.00489817 -0.0165955 0)
(0.0226925 -0.0061606 0)
(0.0364719 -0.000180548 0)
(0.0309813 -0.00845475 0)
(0.0141901 -0.00756542 0)
(-0.00427849 -0.00890064 0)
(-0.00770129 -0.0118862 0)
(-0.00507848 -0.0172711 0)
(-0.0105191 -0.0171639 0)
(-0.0233757 -0.0134417 0)
(-0.0417994 -0.000141038 0)
(-0.050684 0.00917739 0)
(-0.0448318 0.0168745 0)
(-0.0267316 0.018054 0)
(-0.011741 0.00785273 0)
(0.00675253 0.00629072 0)
(0.0306882 0.0061464 0)
(0.0299566 0.0186489 0)
(0.0211189 0.0161157 0)
(0.0219391 0.00168059 0)
(0.0243793 -0.00184113 0)
(0.0273329 -0.002465 0)
(0.0361824 -0.000247078 0)
(0.0426121 -0.00601078 0)
(0.0251768 -0.0208504 0)
(-0.0160127 -0.0232099 0)
(-0.035681 -0.0155494 0)
(-0.0221606 -0.0194401 0)
(-0.0184055 -0.0202415 0)
(-0.0253179 -0.0268684 0)
(-0.021889 -0.0301416 0)
(-0.016408 -0.0281251 0)
(-0.0144567 -0.0132142 0)
(-0.00830166 -0.013239 0)
(0.00717957 -0.00491394 0)
(0.0322593 -0.00398861 0)
(0.0345888 -0.0113535 0)
(0.0181678 -0.0136941 0)
(0.00370139 -0.0162921 0)
(-0.0092886 -0.00436879 0)
(-0.0168485 -0.0089751 0)
(-0.0237385 -0.0133697 0)
(-0.0162789 -0.0127965 0)
(-0.00143227 -0.0113329 0)
(0.00376195 -0.00213098 0)
(0.0115067 0.00545035 0)
(-0.00573908 -0.00390474 0)
(-0.0112538 -0.00533342 0)
(0.0140588 0.0107231 0)
(0.0424932 0.0171651 0)
(0.0396458 0.0050294 0)
(0.00248937 -0.024509 0)
(-0.050715 -0.0490433 0)
(-0.0856175 -0.0245221 0)
(-0.104159 0.0151311 0)
(-0.0826809 0.0299805 0)
(-0.034544 0.05834 0)
(-0.0118674 0.0375734 0)
(0.0154242 0.00509506 0)
(0.0644827 -0.00543089 0)
(0.113634 -0.0268619 0)
(0.124385 -0.0550996 0)
(0.0953822 -0.0674649 0)
(0.065971 -0.0387919 0)
(0.0428082 8.57002e-05 0)
(0.00635658 0.0226251 0)
(-0.0418009 0.00386799 0)
(-0.0670868 -0.0248224 0)
(-0.110197 -0.0155294 0)
(-0.156725 0.0188582 0)
(-0.117846 0.0630528 0)
(-0.0471307 0.0836724 0)
(-0.00544418 0.112728 0)
(0.0237455 0.118292 0)
(0.0398834 0.0894212 0)
(0.0335878 0.0692695 0)
(0.015009 0.0564574 0)
(0.0156199 0.0334044 0)
(0.0422983 0.00879457 0)
(0.0904202 -0.00335109 0)
(0.114857 -0.0533288 0)
(0.103048 -0.0557289 0)
(0.050958 -0.0503188 0)
(-0.0046925 -0.0465377 0)
(-0.0342893 -0.0488454 0)
(-0.0871373 -0.0185765 0)
(-0.0962239 -0.00963053 0)
(-0.0592442 -0.01571 0)
(-0.0466739 -0.0136364 0)
(-0.0405772 0.016916 0)
(-0.0386298 0.0354709 0)
(-0.0382229 0.048661 0)
(-0.0278883 0.0412142 0)
(-1.5601e-05 0.00202903 0)
(0.0337775 -0.00137154 0)
(0.0491569 0.00820165 0)
(0.0460338 0.0173526 0)
(0.0278929 0.00944994 0)
(0.0116515 -0.00968706 0)
(0.000588043 -0.00993148 0)
(0.020408 -0.029503 0)
(0.0699234 -0.0152456 0)
(0.0828729 -0.0163125 0)
(0.0675091 -0.0325874 0)
(0.0360312 -0.0397562 0)
(-0.00707224 -0.0296047 0)
(-0.0233937 -0.0396823 0)
(-0.0226786 -0.0423179 0)
(-0.0319037 -0.0396061 0)
(-0.052966 -0.0259638 0)
(-0.0880963 -0.00848004 0)
(-0.110849 0.0182327 0)
(-0.103169 0.0385689 0)
(-0.0759836 0.0417966 0)
(-0.0384869 0.0263122 0)
(0.0150672 0.0321748 0)
(0.0766786 0.0278912 0)
(0.0804072 0.0333728 0)
(0.0478237 0.035475 0)
(0.0489488 0.0167407 0)
(0.0649275 0.00888673 0)
(0.076687 -0.000681321 0)
(0.0887728 -0.00404702 0)
(0.0822183 -0.0207158 0)
(0.0425663 -0.0566581 0)
(-0.0259582 -0.0673112 0)
(-0.0723331 -0.0495689 0)
(-0.0617018 -0.0593565 0)
(-0.057961 -0.0781184 0)
(-0.070613 -0.0796525 0)
(-0.0572552 -0.0812579 0)
(-0.0313048 -0.0802832 0)
(-0.02396 -0.0477321 0)
(-0.0103702 -0.0356682 0)
(0.0270767 -0.0212046 0)
(0.0658698 -0.0122281 0)
(0.0699072 -0.0255593 0)
(0.0409585 -0.0314149 0)
(0.0176119 -0.0370254 0)
(-0.0147294 -0.0251549 0)
(-0.0462924 -0.0282885 0)
(-0.0559014 -0.0373828 0)
(-0.0366467 -0.0326513 0)
(-0.000487204 -0.0245976 0)
(0.0178945 -0.0090479 0)
(0.0162437 0.00617214 0)
(-0.00465904 -0.00550851 0)
(-0.000866501 -0.00649822 0)
(0.0236853 0.00461598 0)
(0.0461339 -0.0103783 0)
(0.0408117 -0.00748862 0)
(-0.0110826 -0.0265975 0)
(-0.0706737 -0.0385883 0)
(-0.10481 -0.0161039 0)
(-0.128926 0.0211628 0)
(-0.0946571 0.0604979 0)
(-0.0442248 0.0780047 0)
(-0.0357503 0.0379076 0)
(0.00366393 0.00856376 0)
(0.0797522 -0.00718903 0)
(0.152048 -0.035176 0)
(0.168399 -0.0551324 0)
(0.143363 -0.0677051 0)
(0.120249 -0.0552415 0)
(0.083927 -0.00950258 0)
(0.0121366 0.023767 0)
(-0.0801649 0.0167116 0)
(-0.12627 -0.0305258 0)
(-0.149664 -0.0497492 0)
(-0.175534 0.00652524 0)
(-0.143086 0.0847448 0)
(-0.0652854 0.133499 0)
(-0.00760588 0.169448 0)
(0.0195102 0.176159 0)
(0.0413175 0.153489 0)
(0.047029 0.120001 0)
(0.0202137 0.0917955 0)
(0.0117348 0.0613386 0)
(0.054863 0.0248186 0)
(0.110748 -0.0110416 0)
(0.142251 -0.0645387 0)
(0.144005 -0.077773 0)
(0.0802467 -0.0766082 0)
(-0.00552126 -0.0642792 0)
(-0.0482621 -0.0694689 0)
(-0.106695 -0.0451747 0)
(-0.12993 -0.0193988 0)
(-0.0905157 -0.0172709 0)
(-0.0618687 -0.0174721 0)
(-0.044085 0.0166022 0)
(-0.046385 0.0520321 0)
(-0.0557736 0.0777458 0)
(-0.0497407 0.0635502 0)
(-0.0104824 0.0279566 0)
(0.0425472 0.0114158 0)
(0.0668257 0.019908 0)
(0.0627588 0.0138604 0)
(0.0366624 0.000837734 0)
(0.0197531 -0.0115152 0)
(0.00934323 -0.00919862 0)
(0.0365899 -0.011192 0)
(0.0952633 -0.0236282 0)
(0.105345 -0.0461836 0)
(0.0850403 -0.0690618 0)
(0.0555911 -0.0788488 0)
(-0.000930885 -0.0644768 0)
(-0.0333615 -0.0561599 0)
(-0.0326168 -0.056636 0)
(-0.0460405 -0.0509783 0)
(-0.0784817 -0.0322948 0)
(-0.120475 -0.0200512 0)
(-0.142245 0.0130894 0)
(-0.140238 0.0494047 0)
(-0.111366 0.0581275 0)
(-0.0513222 0.0561916 0)
(0.0232963 0.0541166 0)
(0.092321 0.0513251 0)
(0.110472 0.0313078 0)
(0.0815089 0.0391187 0)
(0.0778794 0.0399327 0)
(0.0929496 0.0277959 0)
(0.106389 -0.000256431 0)
(0.118711 -0.021574 0)
(0.0960957 -0.0398961 0)
(0.041028 -0.0720405 0)
(-0.0301984 -0.0966035 0)
(-0.0923753 -0.100443 0)
(-0.106384 -0.115792 0)
(-0.0955992 -0.135135 0)
(-0.0950911 -0.122579 0)
(-0.0838085 -0.113403 0)
(-0.040862 -0.111782 0)
(-0.0169966 -0.0856495 0)
(-0.00156981 -0.0623754 0)
(0.0471869 -0.0488909 0)
(0.091003 -0.0298891 0)
(0.0895562 -0.0352543 0)
(0.0544687 -0.0341729 0)
(0.0212532 -0.0397295 0)
(-0.0199256 -0.0596187 0)
(-0.0635832 -0.0617285 0)
(-0.075108 -0.0581416 0)
(-0.0439634 -0.0377565 0)
(0.00148869 -0.0233974 0)
(0.0260208 -0.0105715 0)
(0.0201745 0.000463016 0)
(-0.00226265 -0.00573553 0)
(0.00416722 -0.011075 0)
(0.0239697 -0.00518669 0)
(0.0553767 -0.0124467 0)
(0.0486761 -0.0232374 0)
(-0.0210517 -0.0306121 0)
(-0.0809185 -0.0116755 0)
(-0.110914 -0.00412518 0)
(-0.125576 0.0305065 0)
(-0.102616 0.0951534 0)
(-0.0819589 0.0889093 0)
(-0.0627234 0.0478144 0)
(0.0111949 0.0111096 0)
(0.0945061 -1.54534e-05 0)
(0.169946 -0.0214296 0)
(0.196989 -0.0514022 0)
(0.171348 -0.0585961 0)
(0.157262 -0.0650503 0)
(0.124489 -0.0261702 0)
(0.0235646 0.00165824 0)
(-0.115407 0.0105471 0)
(-0.184272 -0.0135628 0)
(-0.182015 -0.029566 0)
(-0.171995 0.000405177 0)
(-0.1237 0.0720166 0)
(-0.0489313 0.146284 0)
(-0.000536052 0.197211 0)
(0.0199912 0.211041 0)
(0.0292423 0.206018 0)
(0.026295 0.169931 0)
(0.0104656 0.119221 0)
(0.0111758 0.0822564 0)
(0.0504753 0.0366715 0)
(0.107895 -0.0175666 0)
(0.155174 -0.0581998 0)
(0.166791 -0.0831097 0)
(0.100833 -0.103247 0)
(0.00146725 -0.0777416 0)
(-0.0547016 -0.0522043 0)
(-0.112103 -0.0496955 0)
(-0.144101 -0.0278813 0)
(-0.118808 -0.0163384 0)
(-0.0777872 -0.0120108 0)
(-0.0399246 0.0153331 0)
(-0.036087 0.0497986 0)
(-0.0605545 0.0891191 0)
(-0.0763073 0.0873021 0)
(-0.0317934 0.061829 0)
(0.047668 0.0371609 0)
(0.080199 0.0327965 0)
(0.0662287 0.0111126 0)
(0.0427942 -0.0161832 0)
(0.0332874 -0.0153722 0)
(0.0290854 -0.00283831 0)
(0.045761 0.00892466 0)
(0.0940241 -0.0253218 0)
(0.107429 -0.0642748 0)
(0.0939556 -0.0993955 0)
(0.0693628 -0.10147 0)
(0.015579 -0.0837601 0)
(-0.029787 -0.0591311 0)
(-0.0454678 -0.056615 0)
(-0.0581609 -0.0489922 0)
(-0.0958489 -0.0465909 0)
(-0.140358 -0.0344407 0)
(-0.153377 0.0133882 0)
(-0.153773 0.0543485 0)
(-0.129377 0.0725005 0)
(-0.0674267 0.0792144 0)
(0.0205665 0.0678235 0)
(0.100014 0.0605369 0)
(0.127223 0.0385547 0)
(0.115202 0.0422732 0)
(0.105903 0.0392939 0)
(0.105104 0.0250925 0)
(0.113877 -0.0115606 0)
(0.134056 -0.0328629 0)
(0.109472 -0.056567 0)
(0.0355679 -0.0750229 0)
(-0.0540072 -0.107943 0)
(-0.12368 -0.131182 0)
(-0.134135 -0.156438 0)
(-0.113243 -0.182216 0)
(-0.106954 -0.166438 0)
(-0.0974219 -0.149323 0)
(-0.0496982 -0.128461 0)
(-0.013711 -0.115202 0)
(0.00888248 -0.0803753 0)
(0.0671023 -0.0617429 0)
(0.114258 -0.0510817 0)
(0.1103 -0.0464566 0)
(0.068404 -0.0468553 0)
(0.00939096 -0.0523658 0)
(-0.040667 -0.0750079 0)
(-0.0697161 -0.0819352 0)
(-0.0693853 -0.0727651 0)
(-0.0371024 -0.0527052 0)
(0.0050362 -0.0276543 0)
(0.0292567 -0.0115063 0)
(0.0197054 -0.00662258 0)
(-0.0015391 -0.00774772 0)
(0.0129182 -0.0167188 0)
(0.0366026 -0.010393 0)
(0.0480554 -0.00119092 0)
(0.0378072 -0.0228567 0)
(-0.00795454 -0.0334122 0)
(-0.0795766 -0.0167819 0)
(-0.121156 0.00990705 0)
(-0.108704 0.0443063 0)
(-0.0945081 0.092694 0)
(-0.101382 0.0905557 0)
(-0.0919464 0.0853519 0)
(-0.00715592 0.0661665 0)
(0.103674 0.0334711 0)
(0.180247 0.00469228 0)
(0.210597 -0.0413047 0)
(0.1911 -0.0646746 0)
(0.182839 -0.06257 0)
(0.151091 -0.0371507 0)
(0.0350706 -0.0335183 0)
(-0.120241 -0.0269294 0)
(-0.209798 -0.0169677 0)
(-0.213859 -0.00221369 0)
(-0.183884 0.0187355 0)
(-0.109568 0.0796481 0)
(-0.0243171 0.140063 0)
(0.0157247 0.198038 0)
(0.0268631 0.223519 0)
(0.0302926 0.221346 0)
(0.0122199 0.188728 0)
(-0.00984939 0.144357 0)
(-0.00746016 0.0934755 0)
(0.0339984 0.037566 0)
(0.104719 -0.0238201 0)
(0.159437 -0.0461122 0)
(0.16404 -0.0661168 0)
(0.114349 -0.100142 0)
(0.0343856 -0.0944619 0)
(-0.05127 -0.0702353 0)
(-0.132009 -0.0546934 0)
(-0.156416 -0.0256116 0)
(-0.128703 -0.00537906 0)
(-0.0851945 0.0198479 0)
(-0.0403184 0.0364135 0)
(-0.0265608 0.0494726 0)
(-0.0524523 0.0777236 0)
(-0.0803324 0.103617 0)
(-0.0441502 0.107321 0)
(0.0354483 0.0838046 0)
(0.0699662 0.0545528 0)
(0.0536953 0.0169931 0)
(0.0452773 -0.0196194 0)
(0.0568162 -0.0120678 0)
(0.0553852 0.00770767 0)
(0.0530681 0.00998118 0)
(0.0813435 -0.0255144 0)
(0.0936478 -0.067702 0)
(0.0943727 -0.0994435 0)
(0.0897021 -0.115415 0)
(0.0356888 -0.0934456 0)
(-0.0233831 -0.0692657 0)
(-0.0490651 -0.0561329 0)
(-0.0773017 -0.0423086 0)
(-0.121809 -0.0485769 0)
(-0.142958 -0.0259658 0)
(-0.147631 0.0287854 0)
(-0.15982 0.0579929 0)
(-0.138026 0.0845557 0)
(-0.0756663 0.0951946 0)
(0.0145349 0.0885564 0)
(0.098574 0.0564736 0)
(0.139346 0.028756 0)
(0.132062 0.0271577 0)
(0.12022 0.0239115 0)
(0.114015 0.0128861 0)
(0.123734 -0.0143683 0)
(0.143183 -0.0355717 0)
(0.112257 -0.0638769 0)
(0.029144 -0.0807473 0)
(-0.0727846 -0.120817 0)
(-0.150976 -0.148854 0)
(-0.177934 -0.168992 0)
(-0.141978 -0.200315 0)
(-0.111446 -0.198982 0)
(-0.0933833 -0.177772 0)
(-0.0461066 -0.134666 0)
(-0.00146204 -0.129309 0)
(0.0319352 -0.100171 0)
(0.0791533 -0.0743354 0)
(0.126241 -0.0634974 0)
(0.120406 -0.0520247 0)
(0.0708921 -0.0631817 0)
(0.00858942 -0.0652159 0)
(-0.0471013 -0.0733229 0)
(-0.0776111 -0.0844036 0)
(-0.0740016 -0.0801074 0)
(-0.0291882 -0.0638415 0)
(0.019046 -0.0392035 0)
(0.0327704 -0.0184666 0)
(0.0239479 -0.00506124 0)
(0.000663183 -0.00946838 0)
(0.01958 -0.0158794 0)
(0.0500864 -0.00730296 0)
(0.0581223 0.00580507 0)
(0.0306204 -0.0148739 0)
(-0.0227188 -0.0406791 0)
(-0.0700746 -0.0370854 0)
(-0.09882 0.0273713 0)
(-0.100836 0.0801026 0)
(-0.0981183 0.0983796 0)
(-0.102822 0.0985965 0)
(-0.0788245 0.100821 0)
(-0.00726397 0.115629 0)
(0.0857203 0.068771 0)
(0.163263 0.0271019 0)
(0.19679 -0.00579882 0)
(0.199149 -0.0379307 0)
(0.20738 -0.0443259 0)
(0.159334 -0.0592275 0)
(0.026456 -0.0846726 0)
(-0.127133 -0.0791512 0)
(-0.20839 -0.0618519 0)
(-0.21203 -0.0134775 0)
(-0.173379 0.0341094 0)
(-0.089979 0.0848671 0)
(-0.00220127 0.135424 0)
(0.039614 0.207452 0)
(0.0346088 0.231806 0)
(0.0160297 0.22001 0)
(-0.00796158 0.179962 0)
(-0.0302715 0.140479 0)
(-0.0312599 0.0863518 0)
(0.00782166 0.0294326 0)
(0.0958154 -0.0234602 0)
(0.172959 -0.0340639 0)
(0.1666 -0.0457451 0)
(0.10294 -0.0805853 0)
(0.026349 -0.112094 0)
(-0.0417309 -0.102123 0)
(-0.110251 -0.0633675 0)
(-0.146314 -0.0148623 0)
(-0.125234 0.0211546 0)
(-0.0851681 0.0635389 0)
(-0.0522955 0.0683363 0)
(-0.0337277 0.0636154 0)
(-0.040363 0.0668055 0)
(-0.0637741 0.0953381 0)
(-0.0450584 0.119369 0)
(0.0191893 0.119337 0)
(0.0482574 0.0834305 0)
(0.0332879 0.0437087 0)
(0.0451231 -0.0011274 0)
(0.0779233 -0.00115325 0)
(0.0712891 0.0136294 0)
(0.0502873 0.00522989 0)
(0.069069 -0.031931 0)
(0.0854963 -0.071139 0)
(0.0860951 -0.0790961 0)
(0.090706 -0.109116 0)
(0.0536368 -0.103599 0)
(-0.0109809 -0.0718021 0)
(-0.046407 -0.0601959 0)
(-0.0853427 -0.039878 0)
(-0.127784 -0.0259199 0)
(-0.135582 0.00782254 0)
(-0.14571 0.0365536 0)
(-0.160793 0.0572685 0)
(-0.136725 0.0816779 0)
(-0.0812882 0.102613 0)
(-0.00536504 0.0965377 0)
(0.075968 0.0537544 0)
(0.138182 0.0287938 0)
(0.152115 0.00660638 0)
(0.140886 0.00373211 0)
(0.125228 -0.0120947 0)
(0.126786 -0.0275442 0)
(0.142694 -0.0462278 0)
(0.1121 -0.0596519 0)
(0.0139942 -0.0675069 0)
(-0.10249 -0.120745 0)
(-0.173457 -0.165048 0)
(-0.196379 -0.173612 0)
(-0.164933 -0.19474 0)
(-0.121597 -0.209928 0)
(-0.0792453 -0.179985 0)
(-0.0377324 -0.13997 0)
(-0.00380472 -0.125099 0)
(0.0442836 -0.110705 0)
(0.100226 -0.0822939 0)
(0.145614 -0.0623482 0)
(0.128272 -0.0625263 0)
(0.072622 -0.0649488 0)
(0.00792078 -0.0620302 0)
(-0.0576228 -0.0725468 0)
(-0.0845389 -0.0864215 0)
(-0.0675494 -0.0805688 0)
(-0.0197932 -0.0484464 0)
(0.02828 -0.0385998 0)
(0.045743 -0.0187453 0)
(0.025488 -0.00084404 0)
(0.00564618 -0.0182868 0)
(0.0353608 -0.0206968 0)
(0.0680921 -0.000248952 0)
(0.0530015 0.00960338 0)
(0.00752328 -0.0166392 0)
(-0.0294986 -0.0279536 0)
(-0.044828 -0.0137166 0)
(-0.057867 0.0299226 0)
(-0.081346 0.0958748 0)
(-0.10114 0.111986 0)
(-0.109919 0.1188 0)
(-0.0770641 0.114695 0)
(-0.0150766 0.123639 0)
(0.0661901 0.0863086 0)
(0.161111 0.0526683 0)
(0.200212 0.0111717 0)
(0.195227 -0.0229792 0)
(0.189735 -0.0479045 0)
(0.131214 -0.0809085 0)
(0.0158738 -0.104868 0)
(-0.122833 -0.093157 0)
(-0.194438 -0.055453 0)
(-0.186046 -0.0210238 0)
(-0.157832 0.029507 0)
(-0.0772079 0.074427 0)
(0.0341436 0.135895 0)
(0.0686824 0.185149 0)
(0.0322454 0.185167 0)
(0.00036836 0.169314 0)
(-0.0289148 0.147526 0)
(-0.0543822 0.121355 0)
(-0.0588203 0.0804983 0)
(-0.0111918 0.0404776 0)
(0.0966784 -0.00730476 0)
(0.180203 -0.0345362 0)
(0.159674 -0.0500597 0)
(0.0831924 -0.077829 0)
(0.0214818 -0.100589 0)
(-0.0267619 -0.090138 0)
(-0.090438 -0.0661111 0)
(-0.123506 -0.0197835 0)
(-0.10258 0.0439778 0)
(-0.0812975 0.0862438 0)
(-0.0680571 0.0893205 0)
(-0.0504978 0.0766456 0)
(-0.0451826 0.0659977 0)
(-0.0496838 0.0890419 0)
(-0.0262692 0.144191 0)
(0.016594 0.156517 0)
(0.027767 0.105065 0)
(0.00902608 0.0619857 0)
(0.0322847 0.0248308 0)
(0.0891855 0.0134223 0)
(0.0830766 0.00193679 0)
(0.0443435 -0.0102735 0)
(0.0512216 -0.0283471 0)
(0.0840191 -0.0691161 0)
(0.0869737 -0.0757252 0)
(0.0843103 -0.0893988 0)
(0.0658672 -0.0986464 0)
(0.000927347 -0.0781419 0)
(-0.0432808 -0.0631373 0)
(-0.0793431 -0.0357156 0)
(-0.122253 -0.000446627 0)
(-0.137991 0.031847 0)
(-0.15305 0.0454908 0)
(-0.163577 0.062187 0)
(-0.131608 0.0710364 0)
(-0.0782103 0.0811542 0)
(-0.0202126 0.0792609 0)
(0.0634403 0.0626069 0)
(0.129918 0.0437204 0)
(0.146187 0.00484971 0)
(0.143652 -0.019783 0)
(0.130478 -0.0336432 0)
(0.137803 -0.0360762 0)
(0.155182 -0.0483476 0)
(0.124586 -0.0697981 0)
(0.000629716 -0.0872655 0)
(-0.141501 -0.114594 0)
(-0.198795 -0.141816 0)
(-0.217144 -0.166685 0)
(-0.1909 -0.183083 0)
(-0.124478 -0.179757 0)
(-0.0644737 -0.165506 0)
(-0.0242413 -0.134806 0)
(0.00776715 -0.111132 0)
(0.0587755 -0.0885551 0)
(0.117894 -0.063631 0)
(0.149931 -0.0465633 0)
(0.129811 -0.0641857 0)
(0.0805484 -0.0609048 0)
(0.00743078 -0.0583555 0)
(-0.0662923 -0.0616357 0)
(-0.0894113 -0.0730301 0)
(-0.0544004 -0.071682 0)
(-0.00661882 -0.0421728 0)
(0.034001 -0.0175836 0)
(0.0543902 -0.00386801 0)
(0.02956 -0.00101051 0)
(0.0136674 -0.0142268 0)
(0.0573676 -0.00938751 0)
(0.0886112 0.0016917 0)
(0.0560464 -0.020381 0)
(0.006509 -0.0382442 0)
(-0.0243335 -0.0139994 0)
(-0.0384272 0.0191788 0)
(-0.0342059 0.0353863 0)
(-0.057633 0.085273 0)
(-0.0950603 0.118766 0)
(-0.107535 0.137317 0)
(-0.0727004 0.132305 0)
(-0.0158135 0.120015 0)
(0.0544427 0.110348 0)
(0.134539 0.074036 0)
(0.168866 -0.00242824 0)
(0.179852 -0.0469873 0)
(0.181569 -0.0623983 0)
(0.1244 -0.0735978 0)
(0.0132502 -0.0893998 0)
(-0.106326 -0.100862 0)
(-0.180934 -0.058647 0)
(-0.182188 -0.0357868 0)
(-0.138264 0.0393528 0)
(-0.0439526 0.110803 0)
(0.0544025 0.150147 0)
(0.0610835 0.133356 0)
(0.0188793 0.110631 0)
(-0.00604978 0.0894697 0)
(-0.0296967 0.0933804 0)
(-0.0597351 0.0962476 0)
(-0.0658312 0.0859223 0)
(-0.0280451 0.0546278 0)
(0.0709952 0.00254307 0)
(0.170091 -0.0651207 0)
(0.157569 -0.0853082 0)
(0.0794474 -0.0779713 0)
(0.0200393 -0.0697383 0)
(-0.024355 -0.0876052 0)
(-0.0752344 -0.0704565 0)
(-0.0877212 -0.00269383 0)
(-0.072094 0.0677583 0)
(-0.0765283 0.0839549 0)
(-0.0818541 0.0845748 0)
(-0.0694346 0.0615528 0)
(-0.0444337 0.0761331 0)
(-0.0131413 0.102865 0)
(0.00421462 0.159489 0)
(-0.00394228 0.156669 0)
(-0.0106643 0.124427 0)
(-0.011417 0.07919 0)
(0.0262348 0.0615549 0)
(0.0796167 0.0302707 0)
(0.0737171 -0.0194229 0)
(0.0489071 -0.0393305 0)
(0.046918 -0.0339411 0)
(0.070261 -0.0518136 0)
(0.0868413 -0.0701661 0)
(0.0832494 -0.0722551 0)
(0.0635314 -0.0869098 0)
(0.0084196 -0.0963529 0)
(-0.0301078 -0.0718132 0)
(-0.0616823 -0.0372382 0)
(-0.106708 0.0114433 0)
(-0.134138 0.0563464 0)
(-0.155932 0.0620015 0)
(-0.170645 0.0641856 0)
(-0.143774 0.064254 0)
(-0.0860159 0.0624771 0)
(-0.0185591 0.0544928 0)
(0.060863 0.0506443 0)
(0.115444 0.0269652 0)
(0.131509 0.00746931 0)
(0.142752 -0.0195081 0)
(0.145296 -0.0307501 0)
(0.147542 -0.0185553 0)
(0.146281 -0.0394188 0)
(0.105722 -0.0820529 0)
(-0.00542558 -0.115401 0)
(-0.138964 -0.10661 0)
(-0.217194 -0.121434 0)
(-0.23901 -0.151393 0)
(-0.191058 -0.160893 0)
(-0.12684 -0.137118 0)
(-0.0635867 -0.121243 0)
(-0.0122333 -0.0983498 0)
(0.0203012 -0.0902843 0)
(0.074879 -0.066311 0)
(0.132316 -0.0285413 0)
(0.150627 -0.0145922 0)
(0.124889 -0.0274144 0)
(0.0831116 -0.0342978 0)
(0.0106992 -0.0469452 0)
(-0.0686375 -0.0516712 0)
(-0.0950965 -0.0605958 0)
(-0.0495442 -0.0509327 0)
(0.0154298 -0.0260556 0)
(0.0531569 0.0033432 0)
(0.056098 0.012021 0)
(0.0276444 0.00876675 0)
(0.0230267 -0.00475075 0)
(0.0704732 0.00337199 0)
(0.0758703 -0.00662986 0)
(0.0331873 -0.0524886 0)
(0.0157616 -0.0497403 0)
(0.0103461 -0.020457 0)
(-0.0161676 0.0347588 0)
(-0.0204234 0.0539274 0)
(-0.0318914 0.0789414 0)
(-0.0722654 0.14296 0)
(-0.104214 0.153238 0)
(-0.0872691 0.126607 0)
(-0.0215812 0.108834 0)
(0.0481957 0.110327 0)
(0.0979482 0.079486 0)
(0.131754 0.00499388 0)
(0.169021 -0.0472594 0)
(0.182529 -0.0723662 0)
(0.116189 -0.0801193 0)
(-0.00792155 -0.0838624 0)
(-0.112583 -0.0935325 0)
(-0.166445 -0.0742468 0)
(-0.138979 -0.026111 0)
(-0.0767861 0.0530284 0)
(-0.0204427 0.12135 0)
(0.0313546 0.128474 0)
(0.0276879 0.104502 0)
(-0.00380211 0.069885 0)
(-0.00835919 0.0433759 0)
(-0.0133246 0.0409035 0)
(-0.0438549 0.0412402 0)
(-0.0692192 0.0643401 0)
(-0.0494924 0.0513909 0)
(0.0325063 0.0042331 0)
(0.137763 -0.0607544 0)
(0.16782 -0.0994518 0)
(0.105304 -0.0900492 0)
(0.0168458 -0.0704716 0)
(-0.0329804 -0.0636113 0)
(-0.0405084 -0.0502916 0)
(-0.0390566 -0.00559194 0)
(-0.0583749 0.0408405 0)
(-0.0886532 0.0588174 0)
(-0.102671 0.0584905 0)
(-0.0717728 0.0590184 0)
(-0.0256269 0.100031 0)
(0.00578625 0.125888 0)
(0.0126789 0.152563 0)
(-0.00491675 0.14624 0)
(-0.0207576 0.136678 0)
(-0.0254839 0.0971123 0)
(0.0104144 0.0735495 0)
(0.0453956 0.0219234 0)
(0.0487694 -0.030587 0)
(0.0511137 -0.0472781 0)
(0.0591941 -0.0548135 0)
(0.0728567 -0.0533676 0)
(0.0840028 -0.0637863 0)
(0.0789979 -0.0680054 0)
(0.0489466 -0.0742782 0)
(0.00614769 -0.0910667 0)
(-0.0122587 -0.0496973 0)
(-0.036484 -0.0277296 0)
(-0.0764347 0.0230465 0)
(-0.126415 0.0674675 0)
(-0.172773 0.0686551 0)
(-0.184269 0.0455716 0)
(-0.149317 0.0421035 0)
(-0.0939976 0.042389 0)
(-0.0288507 0.0319381 0)
(0.0516038 0.0288196 0)
(0.11367 0.0177544 0)
(0.132878 0.0216311 0)
(0.139906 0.00351355 0)
(0.157099 -0.00891153 0)
(0.156868 -0.00338788 0)
(0.13126 -0.0261904 0)
(0.0866178 -0.073264 0)
(-0.00616165 -0.0982088 0)
(-0.142098 -0.0976779 0)
(-0.234841 -0.118623 0)
(-0.254769 -0.120656 0)
(-0.192593 -0.120791 0)
(-0.109083 -0.107672 0)
(-0.0493748 -0.0855617 0)
(-0.012846 -0.0669232 0)
(0.0232797 -0.0375359 0)
(0.100165 -0.00982491 0)
(0.155894 0.0164761 0)
(0.153785 0.0192444 0)
(0.119791 0.0196844 0)
(0.0703472 0.0066647 0)
(-0.00278356 -0.0144534 0)
(-0.0758411 -0.0215993 0)
(-0.0900802 -0.0280093 0)
(-0.0309353 -0.0176226 0)
(0.0318559 0.00297692 0)
(0.0622039 0.0143399 0)
(0.06143 0.0203694 0)
(0.0227535 0.0131361 0)
(0.0309613 -0.0114706 0)
(0.076229 -0.0149926 0)
(0.0623502 -0.0327619 0)
(0.0333092 -0.0451324 0)
(0.0336089 -0.0221275 0)
(0.0364574 -0.00328873 0)
(0.0109156 0.0147599 0)
(-0.00957323 0.0429793 0)
(-0.00044279 0.0766455 0)
(-0.0468651 0.143765 0)
(-0.122229 0.159917 0)
(-0.10307 0.130034 0)
(-0.0203084 0.121795 0)
(0.0447914 0.110195 0)
(0.0718103 0.0751474 0)
(0.0908776 0.0123944 0)
(0.136174 -0.0513843 0)
(0.16643 -0.092417 0)
(0.119226 -0.100766 0)
(0.000115454 -0.0807167 0)
(-0.109055 -0.066625 0)
(-0.146759 -0.048595 0)
(-0.107784 -0.0135362 0)
(-0.0502909 0.0375791 0)
(-0.00745289 0.0960528 0)
(0.0269478 0.0938297 0)
(0.00849767 0.0740392 0)
(-0.0293009 0.0543164 0)
(-0.0244515 0.0297824 0)
(-0.022904 -0.0064047 0)
(-0.0296406 -0.0106206 0)
(-0.0421003 0.0184724 0)
(-0.0538697 0.031119 0)
(0.00736211 0.0120834 0)
(0.111137 -0.0235378 0)
(0.149704 -0.0693955 0)
(0.109122 -0.0948126 0)
(0.0415973 -0.0927329 0)
(-0.0136318 -0.0552221 0)
(-0.0420209 -0.0383022 0)
(-0.0339771 -0.0229987 0)
(-0.0400638 -0.000228905 0)
(-0.079255 0.0334844 0)
(-0.0962899 0.0461513 0)
(-0.0510965 0.0826063 0)
(-0.00412194 0.110078 0)
(0.0205994 0.134818 0)
(0.0184752 0.16029 0)
(-0.0123321 0.15936 0)
(-0.0399914 0.133685 0)
(-0.0481956 0.101586 0)
(-0.0172721 0.0633712 0)
(0.0163195 0.0106776 0)
(0.0370222 -0.0253455 0)
(0.0455731 -0.0453823 0)
(0.0563818 -0.0684065 0)
(0.0759542 -0.0738789 0)
(0.085434 -0.0760833 0)
(0.0807593 -0.0702208 0)
(0.0468188 -0.074081 0)
(0.0213876 -0.0749756 0)
(0.00612608 -0.027533 0)
(-0.0231611 -0.00493498 0)
(-0.0551867 0.0197332 0)
(-0.120928 0.0453331 0)
(-0.192104 0.0627118 0)
(-0.207713 0.0496731 0)
(-0.159072 0.026662 0)
(-0.100377 0.012866 0)
(-0.0286703 0.00722932 0)
(0.0568965 0.0149844 0)
(0.122363 0.0241576 0)
(0.137692 0.0376391 0)
(0.139886 0.0391489 0)
(0.161124 0.0335164 0)
(0.155337 0.0195693 0)
(0.113243 -0.00788026 0)
(0.0672955 -0.0407703 0)
(-0.0139328 -0.0792279 0)
(-0.150185 -0.108165 0)
(-0.235673 -0.117739 0)
(-0.246568 -0.0964658 0)
(-0.190458 -0.0758215 0)
(-0.111326 -0.0524944 0)
(-0.0439518 -0.0272778 0)
(0.0141339 -0.0203341 0)
(0.0557149 0.0189906 0)
(0.110938 0.0483548 0)
(0.152922 0.0548138 0)
(0.15449 0.0536089 0)
(0.118367 0.0522123 0)
(0.0608264 0.0419062 0)
(-0.00802138 0.0294078 0)
(-0.0776032 0.0265882 0)
(-0.0919544 0.0362006 0)
(-0.0265978 0.0332809 0)
(0.0400027 0.0287197 0)
(0.0689926 0.0154838 0)
(0.0617527 0.0171997 0)
(0.0169699 0.00500986 0)
(0.0328992 -0.0168573 0)
(0.0758808 -0.0313106 0)
(0.0677028 -0.0404556 0)
(0.0491463 -0.0338416 0)
(0.0497959 -0.0181275 0)
(0.0366949 -0.00467702 0)
(0.0139908 0.0056141 0)
(0.0194048 0.0470417 0)
(0.0363005 0.0836158 0)
(-0.015548 0.112619 0)
(-0.116034 0.154255 0)
(-0.113384 0.156947 0)
(-0.0304516 0.123775 0)
(0.0228405 0.0908955 0)
(0.0369724 0.0635192 0)
(0.0499512 0.016991 0)
(0.101657 -0.0466654 0)
(0.152754 -0.0989837 0)
(0.126966 -0.112497 0)
(0.0143797 -0.108265 0)
(-0.096696 -0.0851236 0)
(-0.139329 -0.0351459 0)
(-0.0903325 -0.00355275 0)
(-0.011856 0.039395 0)
(0.00636239 0.0831731 0)
(0.00351953 0.0731443 0)
(-0.00881523 0.0481767 0)
(-0.038958 0.0415446 0)
(-0.0507689 0.0136252 0)
(-0.036389 -0.0290405 0)
(-0.0152527 -0.0230598 0)
(-0.0254876 -0.00812172 0)
(-0.0395552 -0.00328624 0)
(0.00717908 0.0238521 0)
(0.0913917 -0.00410062 0)
(0.126093 -0.0674544 0)
(0.0947256 -0.109248 0)
(0.0477455 -0.103922 0)
(0.00402271 -0.0744735 0)
(-0.024017 -0.0521706 0)
(-0.0213523 -0.0283786 0)
(-0.0289018 -0.0163304 0)
(-0.0670402 0.0158477 0)
(-0.078249 0.0549822 0)
(-0.0346309 0.107831 0)
(0.00554221 0.11895 0)
(0.0386501 0.139452 0)
(0.0300378 0.156696 0)
(-0.0218951 0.144291 0)
(-0.0577244 0.111796 0)
(-0.0692387 0.0864423 0)
(-0.0466147 0.0645324 0)
(-0.00872085 0.0278287 0)
(0.0194013 -0.0105574 0)
(0.0314216 -0.0409047 0)
(0.049582 -0.0749807 0)
(0.0770233 -0.0878839 0)
(0.0939995 -0.0915006 0)
(0.0843875 -0.0832721 0)
(0.0453493 -0.0791076 0)
(0.0359859 -0.0460863 0)
(0.0306945 -0.0168404 0)
(-0.0139013 0.00490491 0)
(-0.054321 0.0105442 0)
(-0.110995 0.0296071 0)
(-0.185461 0.0659381 0)
(-0.224623 0.0621897 0)
(-0.186636 0.0226989 0)
(-0.113811 -0.0156423 0)
(-0.0275298 -0.0260176 0)
(0.0690417 -0.00502005 0)
(0.139948 0.0313624 0)
(0.157172 0.050877 0)
(0.152589 0.0676692 0)
(0.159522 0.0783877 0)
(0.142947 0.0698184 0)
(0.10171 0.0227704 0)
(0.0460061 -0.0175386 0)
(-0.0477787 -0.0696361 0)
(-0.166819 -0.102445 0)
(-0.226818 -0.0987044 0)
(-0.228016 -0.0779694 0)
(-0.166794 -0.0405813 0)
(-0.0812161 -0.0055001 0)
(-0.0336825 0.0334574 0)
(0.014119 0.0367986 0)
(0.0684041 0.0685234 0)
(0.123222 0.097452 0)
(0.158586 0.10117 0)
(0.152423 0.0914758 0)
(0.112789 0.084515 0)
(0.0555106 0.0716388 0)
(-0.0123157 0.0625016 0)
(-0.0694781 0.0647032 0)
(-0.0839024 0.0800007 0)
(-0.0346987 0.0810976 0)
(0.0217703 0.0581301 0)
(0.0588033 0.0170004 0)
(0.0616327 0.000753761 0)
(0.0183388 -0.00136593 0)
(0.0336433 -0.0134024 0)
(0.080114 -0.0344239 0)
(0.0730103 -0.0424617 0)
(0.0565158 -0.0341441 0)
(0.057593 -0.019362 0)
(0.053194 -0.0118697 0)
(0.0458852 0.0169882 0)
(0.0434353 0.0714527 0)
(0.0433364 0.109442 0)
(0.0017403 0.111314 0)
(-0.0908699 0.123894 0)
(-0.124012 0.136487 0)
(-0.0646038 0.0971099 0)
(0.00711801 0.0733403 0)
(0.0255387 0.0576264 0)
(0.0181172 0.0324642 0)
(0.0579892 -0.0346575 0)
(0.122723 -0.109425 0)
(0.113804 -0.134984 0)
(0.0178892 -0.146342 0)
(-0.0613513 -0.114948 0)
(-0.0959671 -0.0448943 0)
(-0.0642327 0.016117 0)
(0.00154028 0.0555582 0)
(0.00625063 0.0618684 0)
(-0.00770988 0.0546984 0)
(-0.0204699 0.0201381 0)
(-0.0567058 0.0141712 0)
(-0.0745388 0.0174396 0)
(-0.0445503 0.00661039 0)
(-0.00599039 -0.00813766 0)
(-0.0171286 -0.022078 0)
(-0.0187179 -0.0252667 0)
(0.0185013 0.0106434 0)
(0.0546287 -0.00882055 0)
(0.080752 -0.0759885 0)
(0.0874829 -0.123567 0)
(0.0686394 -0.10978 0)
(0.0221632 -0.0809706 0)
(-0.0136717 -0.0763938 0)
(-0.0156507 -0.0590722 0)
(-0.0170501 -0.0255885 0)
(-0.0367521 0.014174 0)
(-0.0380247 0.0845597 0)
(-0.0120126 0.132967 0)
(0.013264 0.130374 0)
(0.0450189 0.138535 0)
(0.0214222 0.132912 0)
(-0.0432789 0.12789 0)
(-0.078022 0.100106 0)
(-0.0763854 0.076178 0)
(-0.0522071 0.0543894 0)
(-0.0296241 0.0286663 0)
(-0.00366191 -0.00910916 0)
(0.00807314 -0.0348656 0)
(0.0310711 -0.0598745 0)
(0.0716706 -0.0817322 0)
(0.0945668 -0.104419 0)
(0.0928271 -0.109282 0)
(0.0738648 -0.0765863 0)
(0.0634377 -0.0106762 0)
(0.0365788 0.00262475 0)
(-0.01291 -0.00627618 0)
(-0.0489637 -0.00249793 0)
(-0.0931154 0.0125939 0)
(-0.180763 0.0490947 0)
(-0.250493 0.0419297 0)
(-0.224465 0.0144302 0)
(-0.140658 -0.0205984 0)
(-0.0211619 -0.0207902 0)
(0.102934 0.00576728 0)
(0.171033 0.0379069 0)
(0.174935 0.0651499 0)
(0.17268 0.091133 0)
(0.176206 0.102543 0)
(0.12774 0.0897733 0)
(0.0609927 0.0477129 0)
(0.00903489 0.00808194 0)
(-0.069695 -0.0540608 0)
(-0.168243 -0.0940329 0)
(-0.217621 -0.066114 0)
(-0.206553 -0.0362889 0)