/*--------------------------------*- C++ -*----------------------------------*\
| =========                 |                                                 |
| \\      /  F ield         | OpenFOAM: The Open Source CFD Toolbox           |
|  \\    /   O peration     | Version:  v2012                                 |
|   \\  /    A nd           | Website:  www.openfoam.com                      |
|    \\/     M anipulation  |                                                 |
\*---------------------------------------------------------------------------*/
FoamFile
{
    version     2.0;
    format      ascii;
    class       volScalarField;
    location    "7.25";
    object      W;
}
// * * * * * * * * * * * * * * * * * * * * * * * * * * * * * * * * * * * * * //

dimensions      [0 0 -1 0 0 0 0];


internalField   nonuniform List<scalar> 
65536
(
1.53412e-18
1.5893e-18
1.72455e-18
1.94446e-18
2.257e-18
2.67374e-18
3.21026e-18
3.88661e-18
4.728e-18
5.76557e-18
7.03739e-18
8.58961e-18
1.04779e-17
1.2769e-17
1.55428e-17
1.88945e-17
2.29372e-17
2.78052e-17
3.36574e-17
4.06816e-17
4.9099e-17
5.91703e-17
7.12013e-17
8.55509e-17
1.02639e-16
1.22956e-16
1.47075e-16
1.75661e-16
2.09489e-16
2.49455e-16
2.966e-16
3.52123e-16
4.1741e-16
4.94054e-16
5.83888e-16
6.89011e-16
8.11828e-16
9.55086e-16
1.12192e-15
1.31588e-15
1.54103e-15
1.80194e-15
2.10381e-15
2.45248e-15
2.85456e-15
3.31747e-15
3.8495e-15
4.45998e-15
5.15931e-15
5.95906e-15
6.87213e-15
7.91281e-15
9.09695e-15
1.0442e-14
1.19673e-14
1.36939e-14
1.56451e-14
1.78463e-14
2.03252e-14
2.3112e-14
2.62394e-14
2.97429e-14
3.36606e-14
3.80339e-14
4.29069e-14
4.83269e-14
5.43443e-14
6.10127e-14
6.83891e-14
7.65333e-14
8.55084e-14
9.53806e-14
1.06219e-13
1.18095e-13
1.31083e-13
1.45258e-13
1.607e-13
1.77488e-13
1.95701e-13
2.1542e-13
2.36726e-13
2.59698e-13
2.84412e-13
3.10945e-13
3.39366e-13
3.69742e-13
4.02133e-13
4.36594e-13
4.7317e-13
5.11896e-13
5.52799e-13
5.95891e-13
6.41173e-13
6.88629e-13
7.3823e-13
7.89927e-13
8.43653e-13
8.99321e-13
9.56826e-13
1.01604e-12
1.0768e-12
1.13895e-12
1.20228e-12
1.26657e-12
1.33157e-12
1.39703e-12
1.46264e-12
1.52811e-12
1.59309e-12
1.65724e-12
1.72019e-12
1.78158e-12
1.841e-12
1.89807e-12
1.95238e-12
2.00355e-12
2.05117e-12
2.09486e-12
2.13424e-12
2.16898e-12
2.19873e-12
2.2232e-12
2.24211e-12
2.25523e-12
2.26236e-12
2.26336e-12
2.25812e-12
2.2466e-12
2.22879e-12
2.20476e-12
2.17462e-12
2.13853e-12
2.09672e-12
2.04947e-12
1.99711e-12
1.94002e-12
1.87861e-12
1.81335e-12
1.74474e-12
1.67332e-12
1.59962e-12
1.52422e-12
1.4477e-12
1.37065e-12
1.29364e-12
1.21725e-12
1.14203e-12
1.06852e-12
9.97236e-13
9.28644e-13
8.63191e-13
8.01281e-13
7.43275e-13
6.89491e-13
6.402e-13
5.95627e-13
5.55949e-13
5.21298e-13
4.91755e-13
4.67358e-13
4.48096e-13
4.33914e-13
4.24715e-13
4.20355e-13
4.2065e-13
4.25373e-13
4.3426e-13
4.47003e-13
4.63261e-13
4.82654e-13
5.04768e-13
5.2916e-13
5.55356e-13
5.82861e-13
6.11158e-13
6.39719e-13
6.68007e-13
6.95485e-13
7.21625e-13
7.45917e-13
7.67873e-13
7.87043e-13
8.03018e-13
8.15442e-13
8.24018e-13
8.28515e-13
8.28775e-13
8.24712e-13
8.16319e-13
8.03668e-13
7.86903e-13
7.66241e-13
7.41964e-13
7.14412e-13
6.83975e-13
6.51081e-13
6.16186e-13
5.79764e-13
5.42291e-13
5.0424e-13
4.66067e-13
4.28201e-13
3.91036e-13
3.54929e-13
3.20188e-13
2.87072e-13
2.55791e-13
2.26503e-13
1.99316e-13
1.74291e-13
1.51447e-13
1.30764e-13
1.12186e-13
9.56329e-14
8.09988e-14
6.81619e-14
5.69883e-14
4.73369e-14
3.90638e-14
3.20257e-14
2.60834e-14
2.11038e-14
1.6962e-14
1.35428e-14
1.0741e-14
8.4621e-15
6.62216e-15
5.14756e-15
3.97446e-15
3.04804e-15
2.32178e-15
1.75661e-15
1.32001e-15
9.85182e-16
7.30281e-16
5.37639e-16
3.93109e-16
2.85464e-16
2.05874e-16
1.47453e-16
1.04884e-16
7.40894e-17
5.19749e-17
3.62091e-17
2.50509e-17
1.72112e-17
1.17432e-17
7.95755e-18
5.3563e-18
3.58307e-18
2.38503e-18
1.58473e-18
1.05928e-18
7.25271e-19
5.28126e-19
4.34877e-19
2.17796e-18
2.25614e-18
2.4479e-18
2.75973e-18
3.2029e-18
3.79379e-18
4.55443e-18
5.51321e-18
6.70578e-18
8.17618e-18
9.97825e-18
1.21773e-17
1.48518e-17
1.80963e-17
2.20235e-17
2.67678e-17
3.2489e-17
3.93763e-17
4.7654e-17
5.75866e-17
6.9486e-17
8.37189e-17
1.00716e-16
1.20982e-16
1.45108e-16
1.73782e-16
2.07807e-16
2.4812e-16
2.95803e-16
3.52116e-16
4.18512e-16
4.9667e-16
5.88527e-16
6.96306e-16
8.22564e-16
9.70227e-16
1.14264e-15
1.34362e-15
1.57753e-15
1.84929e-15
2.16451e-15
2.52955e-15
2.95157e-15
3.43863e-15
3.99984e-15
4.64538e-15
5.38668e-15
6.23648e-15
7.20902e-15
8.32013e-15
9.58736e-15
1.10302e-14
1.267e-14
1.45306e-14
1.6638e-14
1.90206e-14
2.17098e-14
2.47396e-14
2.8147e-14
3.19722e-14
3.62589e-14
4.10539e-14
4.64078e-14
5.23749e-14
5.9013e-14
6.6384e-14
7.45535e-14
8.35911e-14
9.357e-14
1.04567e-13
1.16664e-13
1.29943e-13
1.44493e-13
1.60404e-13
1.77767e-13
1.96678e-13
2.17233e-13
2.39529e-13
2.63663e-13
2.89731e-13
3.17829e-13
3.4805e-13
3.80482e-13
4.1521e-13
4.52313e-13
4.91862e-13
5.3392e-13
5.7854e-13
6.25764e-13
6.7562e-13
7.28121e-13
7.83265e-13
8.41032e-13
9.01382e-13
9.64255e-13
1.02957e-12
1.09721e-12
1.16706e-12
1.23896e-12
1.31271e-12
1.38812e-12
1.46494e-12
1.54291e-12
1.62173e-12
1.70109e-12
1.78063e-12
1.85999e-12
1.93877e-12
2.01656e-12
2.09292e-12
2.16741e-12
2.23956e-12
2.30891e-12
2.37499e-12
2.43731e-12
2.49542e-12
2.54886e-12
2.59718e-12
2.63996e-12
2.67682e-12
2.70738e-12
2.73132e-12
2.74836e-12
2.75826e-12
2.76084e-12
2.75596e-12
2.74355e-12
2.72361e-12
2.69619e-12
2.66141e-12
2.61944e-12
2.57055e-12
2.51504e-12
2.45329e-12
2.38572e-12
2.31283e-12
2.23514e-12
2.15322e-12
2.0677e-12
1.97921e-12
1.88842e-12
1.79601e-12
1.70265e-12
1.60905e-12
1.51586e-12
1.42377e-12
1.33339e-12
1.24535e-12
1.16021e-12
1.07851e-12
1.00075e-12
9.27352e-13
8.5872e-13
7.95189e-13
7.37043e-13
6.84512e-13
6.3777e-13
5.96937e-13
5.62079e-13
5.33209e-13
5.10289e-13
4.9323e-13
4.81895e-13
4.76098e-13
4.7561e-13
4.80153e-13
4.89408e-13
5.03015e-13
5.20572e-13
5.41639e-13
5.65743e-13
5.92374e-13
6.20998e-13
6.51054e-13
6.81962e-13
7.1313e-13
7.43959e-13
7.73856e-13
8.02235e-13
8.28532e-13
8.52214e-13
8.72787e-13
8.89805e-13
9.02884e-13
9.11704e-13
9.16018e-13
9.1566e-13
9.10546e-13
9.00678e-13
8.86142e-13
8.67105e-13
8.43815e-13
8.16587e-13
7.85803e-13
7.51894e-13
7.15335e-13
6.76629e-13
6.36297e-13
5.94865e-13
5.52849e-13
5.10747e-13
4.69028e-13
4.28124e-13
3.88418e-13
3.50247e-13
3.1389e-13
2.79573e-13
2.47463e-13
2.17676e-13
1.90275e-13
1.65276e-13
1.42654e-13
1.22345e-13
1.04259e-13
8.82765e-14
7.42633e-14
6.2071e-14
5.15439e-14
4.25237e-14
3.48529e-14
2.83786e-14
2.2955e-14
1.84455e-14
1.47238e-14
1.16751e-14
9.19599e-15
7.19498e-15
5.59172e-15
4.31656e-15
3.30979e-15
2.52072e-15
1.9068e-15
1.43264e-15
1.06908e-15
7.92351e-16
5.83253e-16
4.26403e-16
3.09602e-16
2.23254e-16
1.59883e-16
1.13712e-16
8.03173e-17
5.63383e-17
3.92452e-17
2.7149e-17
1.86511e-17
1.27247e-17
8.62196e-18
5.80312e-18
3.88171e-18
2.58365e-18
1.71661e-18
1.14736e-18
7.85535e-19
5.71982e-19
4.70986e-19
3.68151e-18
3.81336e-18
4.137e-18
4.66333e-18
5.4113e-18
6.40852e-18
7.69208e-18
9.30974e-18
1.13215e-17
1.38015e-17
1.68404e-17
2.05477e-17
2.50558e-17
3.05231e-17
3.71392e-17
4.51297e-17
5.47626e-17
6.63557e-17
8.02846e-17
9.69927e-17
1.17002e-16
1.40927e-16
1.69488e-16
2.03528e-16
2.44034e-16
2.92155e-16
3.49232e-16
4.16821e-16
4.9673e-16
5.9105e-16
7.02199e-16
8.32963e-16
9.86553e-16
1.16666e-15
1.3775e-15
1.62392e-15
1.91144e-15
2.24635e-15
2.63582e-15
3.08797e-15
3.612e-15
4.2183e-15
4.91859e-15
5.72608e-15
6.65556e-15
7.72364e-15
8.94883e-15
1.03518e-14
1.19556e-14
1.37858e-14
1.58705e-14
1.8241e-14
2.09318e-14
2.39806e-14
2.74288e-14
3.13218e-14
3.5709e-14
4.06441e-14
4.61854e-14
5.23958e-14
5.93434e-14
6.7101e-14
7.5747e-14
8.5365e-14
9.60437e-14
1.07878e-13
1.20967e-13
1.35416e-13
1.51335e-13
1.68839e-13
1.88048e-13
2.09086e-13
2.3208e-13
2.57161e-13
2.84463e-13
3.1412e-13
3.46267e-13
3.8104e-13
4.18572e-13
4.58995e-13
5.02435e-13
5.49012e-13
5.98842e-13
6.52028e-13
7.08663e-13
7.68829e-13
8.32592e-13
8.99999e-13
9.7108e-13
1.04584e-12
1.12428e-12
1.20633e-12
1.29195e-12
1.38103e-12
1.47344e-12
1.56902e-12
1.66757e-12
1.76886e-12
1.87263e-12
1.97856e-12
2.08632e-12
2.19551e-12
2.30573e-12
2.41652e-12
2.52739e-12
2.63783e-12
2.74728e-12
2.85517e-12
2.96089e-12
3.06383e-12
3.16336e-12
3.25884e-12
3.34962e-12
3.43506e-12
3.51453e-12
3.58742e-12
3.65312e-12
3.71108e-12
3.76078e-12
3.80172e-12
3.83349e-12
3.8557e-12
3.86806e-12
3.87032e-12
3.86232e-12
3.84397e-12
3.81529e-12
3.77634e-12
3.7273e-12
3.66843e-12
3.60006e-12
3.52263e-12
3.43664e-12
3.34268e-12
3.24139e-12
3.1335e-12
3.01978e-12
2.90104e-12
2.77816e-12
2.65201e-12
2.52352e-12
2.39359e-12
2.26314e-12
2.13309e-12
2.0043e-12
1.87764e-12
1.75392e-12
1.6339e-12
1.51831e-12
1.4078e-12
1.30296e-12
1.20432e-12
1.11233e-12
1.02738e-12
9.4977e-13
8.79746e-13
8.17474e-13
7.6305e-13
7.16504e-13
6.77799e-13
6.46832e-13
6.23443e-13
6.07408e-13
5.9845e-13
5.96237e-13
6.00382e-13
6.10451e-13
6.25961e-13
6.46383e-13
6.71147e-13
6.99642e-13
7.31224e-13
7.65214e-13
8.00914e-13
8.37601e-13
8.74547e-13
9.11017e-13
9.46285e-13
9.79644e-13
1.01041e-12
1.03796e-12
1.06168e-12
1.08106e-12
1.09564e-12
1.10506e-12
1.10903e-12
1.10737e-12
1.1e-12
1.08694e-12
1.06829e-12
1.0443e-12
1.01525e-12
9.81553e-13
9.43668e-13
9.02125e-13
8.575e-13
8.104e-13
7.61452e-13
7.11284e-13
6.60516e-13
6.09738e-13
5.59509e-13
5.10335e-13
4.62672e-13
4.16911e-13
3.7338e-13
3.32338e-13
2.93979e-13
2.58431e-13
2.25762e-13
1.95985e-13
1.69063e-13
1.44915e-13
1.23425e-13
1.0445e-13
8.78252e-14
7.33704e-14
6.08982e-14
5.0218e-14
4.1141e-14
3.34843e-14
2.70738e-14
2.17465e-14
1.73521e-14
1.3754e-14
1.08296e-14
8.47023e-15
6.58062e-15
5.07833e-15
3.8927e-15
2.96379e-15
2.24133e-15
1.68352e-15
1.25597e-15
9.30636e-16
6.84882e-16
5.00589e-16
3.63387e-16
2.61984e-16
1.87582e-16
1.33388e-16
9.41979e-17
6.60636e-17
4.60124e-17
3.18256e-17
2.18607e-17
1.49124e-17
1.01031e-17
6.79917e-18
4.54745e-18
3.02645e-18
2.0106e-18
1.34373e-18
9.1989e-19
6.69754e-19
5.51464e-19
6.5922e-18
6.82782e-18
7.4065e-18
8.34763e-18
9.68507e-18
1.1468e-17
1.37627e-17
1.66543e-17
2.02498e-17
2.46815e-17
3.01106e-17
3.67328e-17
4.47837e-17
5.45455e-17
6.63556e-17
8.06154e-17
9.78018e-17
1.1848e-16
1.43317e-16
1.73101e-16
2.08759e-16
2.5138e-16
3.02241e-16
3.62839e-16
4.34919e-16
5.20517e-16
6.22002e-16
7.42128e-16
8.84085e-16
1.05156e-15
1.24882e-15
1.48077e-15
1.75307e-15
2.07218e-15
2.44554e-15
2.88162e-15
3.39012e-15
3.98203e-15
4.66988e-15
5.46784e-15
6.39194e-15
7.46028e-15
8.69322e-15
1.01137e-14
1.17472e-14
1.36226e-14
1.57718e-14
1.82305e-14
2.1038e-14
2.42383e-14
2.78797e-14
3.20156e-14
3.67044e-14
4.20104e-14
4.80038e-14
5.47612e-14
6.23658e-14
7.09078e-14
8.04848e-14
9.12018e-14
1.03172e-13
1.16516e-13
1.31362e-13
1.47849e-13
1.66122e-13
1.86333e-13
2.08645e-13
2.33227e-13
2.60255e-13
2.89912e-13
3.22388e-13
3.57877e-13
3.96579e-13
4.38694e-13
4.84427e-13
5.33983e-13
5.87563e-13
6.4537e-13
7.07596e-13
7.74431e-13
8.46051e-13
9.22623e-13
1.0043e-12
1.09121e-12
1.18346e-12
1.28116e-12
1.38435e-12
1.49307e-12
1.60731e-12
1.72705e-12
1.8522e-12
1.98264e-12
2.11821e-12
2.2587e-12
2.40384e-12
2.55332e-12
2.70677e-12
2.86377e-12
3.02385e-12
3.18646e-12
3.35104e-12
3.51693e-12
3.68344e-12
3.84984e-12
4.01534e-12
4.1791e-12
4.34028e-12
4.49797e-12
4.65125e-12
4.79918e-12
4.94083e-12
5.07523e-12
5.20146e-12
5.31858e-12
5.4257e-12
5.52196e-12
5.60655e-12
5.67871e-12
5.73775e-12
5.78307e-12
5.81414e-12
5.83053e-12
5.83191e-12
5.81806e-12
5.78889e-12
5.74441e-12
5.68477e-12
5.61022e-12
5.52115e-12
5.41809e-12
5.30166e-12
5.17262e-12
5.0318e-12
4.88018e-12
4.7188e-12
4.54877e-12
4.37131e-12
4.18764e-12
3.99907e-12
3.80691e-12
3.61247e-12
3.41709e-12
3.22207e-12
3.02868e-12
2.83816e-12
2.65168e-12
2.47035e-12
2.29519e-12
2.12714e-12
1.96708e-12
1.81573e-12
1.67378e-12
1.54175e-12
1.42011e-12
1.3092e-12
1.20926e-12
1.12043e-12
1.04277e-12
9.76238e-13
9.20694e-13
8.75929e-13
8.41646e-13
8.17478e-13
8.02982e-13
7.97651e-13
8.00911e-13
8.12129e-13
8.30615e-13
8.55625e-13
8.86365e-13
9.21999e-13
9.61648e-13
1.0044e-12
1.04932e-12
1.09546e-12
1.14186e-12
1.18755e-12
1.23159e-12
1.27307e-12
1.31113e-12
1.34494e-12
1.37377e-12
1.39695e-12
1.41392e-12
1.42423e-12
1.42754e-12
1.42365e-12
1.41247e-12
1.39404e-12
1.36855e-12
1.3363e-12
1.2977e-12
1.25328e-12
1.20364e-12
1.14947e-12
1.09151e-12
1.03055e-12
9.67377e-13
9.02799e-13
8.37597e-13
7.7252e-13
7.08266e-13
6.45474e-13
5.84708e-13
5.26455e-13
4.71118e-13
4.19014e-13
3.70377e-13
3.25357e-13
2.8403e-13
2.46401e-13
2.12413e-13
1.81956e-13
1.54877e-13
1.30988e-13
1.10075e-13
9.19062e-14
7.62413e-14
6.28368e-14
5.14525e-14
4.18559e-14
3.38264e-14
2.71578e-14
2.16602e-14
1.71614e-14
1.35069e-14
1.056e-14
8.20099e-15
6.32643e-15
4.84766e-15
3.68961e-15
2.78929e-15
2.09444e-15
1.56206e-15
1.1571e-15
8.51305e-16
6.22063e-16
4.51452e-16
3.25395e-16
2.32931e-16
1.65598e-16
1.1692e-16
8.19827e-17
5.7089e-17
3.94798e-17
2.71138e-17
1.84928e-17
1.25268e-17
8.42912e-18
5.63684e-18
3.75098e-18
2.49163e-18
1.66502e-18
1.1397e-18
8.29705e-19
6.83116e-19
1.19466e-17
1.23728e-17
1.34201e-17
1.51234e-17
1.7544e-17
2.07706e-17
2.49228e-17
3.01546e-17
3.66591e-17
4.46749e-17
5.44934e-17
6.64674e-17
8.10217e-17
9.86655e-17
1.20007e-16
1.45769e-16
1.76811e-16
2.14151e-16
2.58989e-16
3.12743e-16
3.7708e-16
4.53958e-16
5.45671e-16
6.54903e-16
7.84788e-16
9.38978e-16
1.12172e-15
1.33794e-15
1.59334e-15
1.89454e-15
2.24913e-15
2.6659e-15
3.1549e-15
3.72769e-15
4.39749e-15
5.17938e-15
6.09057e-15
7.15059e-15
8.38162e-15
9.80876e-15
1.14604e-14
1.33684e-14
1.55687e-14
1.81017e-14
2.10124e-14
2.43511e-14
2.81739e-14
3.25431e-14
3.75277e-14
4.32039e-14
4.96559e-14
5.69761e-14
6.52659e-14
7.46363e-14
8.52082e-14
9.71131e-14
1.10494e-13
1.25504e-13
1.4231e-13
1.61091e-13
1.82037e-13
2.05352e-13
2.31253e-13
2.59969e-13
2.91744e-13
3.2683e-13
3.65496e-13
4.08019e-13
4.54687e-13
5.05797e-13
5.61655e-13
6.22572e-13
6.88864e-13
7.6085e-13
8.38848e-13
9.23174e-13
1.01414e-12
1.11204e-12
1.21717e-12
1.3298e-12
1.45019e-12
1.57855e-12
1.71509e-12
1.85998e-12
2.01334e-12
2.17525e-12
2.34576e-12
2.52484e-12
2.71241e-12
2.90835e-12
3.11245e-12
3.32443e-12
3.54394e-12
3.77057e-12
4.00379e-12
4.24304e-12
4.48762e-12
4.73679e-12
4.9897e-12
5.24544e-12
5.50299e-12
5.76128e-12
6.01915e-12
6.27539e-12
6.5287e-12
6.77776e-12
7.02118e-12
7.25755e-12
7.48544e-12
7.7034e-12
7.90998e-12
8.10376e-12
8.28332e-12
8.44733e-12
8.59447e-12
8.72353e-12
8.83337e-12
8.92298e-12
8.99143e-12
9.03796e-12
9.06193e-12
9.06286e-12
9.04045e-12
8.99456e-12
8.92524e-12
8.83271e-12
8.71738e-12
8.57986e-12
8.42094e-12
8.24157e-12
8.04288e-12
7.82617e-12
7.59288e-12
7.34458e-12
7.08297e-12
6.80984e-12
6.52706e-12
6.23655e-12
5.94031e-12
5.6403e-12
5.33852e-12
5.03691e-12
4.7374e-12
4.44183e-12
4.15194e-12
3.86942e-12
3.5958e-12
3.33249e-12
3.08079e-12
2.84182e-12
2.61658e-12
2.40589e-12
2.21044e-12
2.03075e-12
1.8672e-12
1.72001e-12
1.58927e-12
1.47494e-12
1.37684e-12
1.29467e-12
1.22803e-12
1.17641e-12
1.13919e-12
1.11566e-12
1.10504e-12
1.10645e-12
1.11895e-12
1.14151e-12
1.17307e-12
1.21248e-12
1.25855e-12
1.31005e-12
1.36571e-12
1.42424e-12
1.48431e-12
1.54464e-12
1.60392e-12
1.66087e-12
1.71429e-12
1.76301e-12
1.80596e-12
1.84217e-12
1.87078e-12
1.89106e-12
1.90245e-12
1.90452e-12
1.89704e-12
1.87991e-12
1.85325e-12
1.81731e-12
1.77252e-12
1.71946e-12
1.65884e-12
1.59148e-12
1.51832e-12
1.44034e-12
1.35858e-12
1.27409e-12
1.18794e-12
1.10115e-12
1.0147e-12
9.29506e-13
8.46389e-13
7.66081e-13
6.89209e-13
6.16285e-13
5.47712e-13
4.83779e-13
4.24671e-13
3.7047e-13
3.21171e-13
2.76686e-13
2.36862e-13
2.01486e-13
1.70305e-13
1.4303e-13
1.19354e-13
9.89561e-14
8.15144e-14
6.67117e-14
5.42419e-14
4.3815e-14
3.51607e-14
2.80304e-14
2.21988e-14
1.74642e-14
1.36483e-14
1.05953e-14
8.17033e-15
6.25828e-15
4.76157e-15
3.59847e-15
2.70117e-15
2.01393e-15
1.49138e-15
1.09693e-15
8.01328e-16
5.81398e-16
4.18952e-16
2.99832e-16
2.13111e-16
1.50434e-16
1.0546e-16
7.34234e-17
5.07664e-17
3.48589e-17
2.37714e-17
1.60999e-17
1.08318e-17
7.24257e-18
4.81885e-18
3.20056e-18
2.13848e-18
1.46361e-18
1.06539e-18
8.77093e-19
2.1603e-17
2.23724e-17
2.42637e-17
2.734e-17
3.17115e-17
3.75384e-17
4.50361e-17
5.44821e-17
6.62246e-17
8.06933e-17
9.84131e-17
1.20019e-16
1.46277e-16
1.78102e-16
2.1659e-16
2.6304e-16
3.18998e-16
3.86292e-16
4.67082e-16
5.63911e-16
6.79772e-16
8.18179e-16
9.83247e-16
1.17979e-15
1.41341e-15
1.69066e-15
2.01914e-15
2.40764e-15
2.86639e-15
3.40715e-15
4.04353e-15
4.79115e-15
5.66796e-15
6.69451e-15
7.89431e-15
9.29418e-15
1.09246e-14
1.28203e-14
1.50205e-14
1.75697e-14
2.05178e-14
2.39214e-14
2.78437e-14
3.23556e-14
3.75363e-14
4.34743e-14
5.02676e-14
5.80252e-14
6.68675e-14
7.69275e-14
8.83515e-14
1.013e-13
1.15948e-13
1.32489e-13
1.51129e-13
1.72096e-13
1.95633e-13
2.22006e-13
2.51496e-13
2.84407e-13
3.21063e-13
3.61808e-13
4.07007e-13
4.57044e-13
5.12324e-13
5.7327e-13
6.40323e-13
7.1394e-13
7.94593e-13
8.82764e-13
9.78948e-13
1.08364e-12
1.19736e-12
1.32059e-12
1.45383e-12
1.59758e-12
1.75231e-12
1.91846e-12
2.09647e-12
2.28673e-12
2.48958e-12
2.70534e-12
2.93425e-12
3.17651e-12
3.43223e-12
3.70146e-12
3.98416e-12
4.2802e-12
4.58933e-12
4.91123e-12
5.24544e-12
5.59141e-12
5.94844e-12
6.31571e-12
6.69229e-12
7.0771e-12
7.46894e-12
7.86648e-12
8.26826e-12
8.67268e-12
9.07806e-12
9.48257e-12
9.88431e-12
1.02813e-11
1.06713e-11
1.10524e-11
1.14223e-11
1.17787e-11
1.21194e-11
1.24422e-11
1.27449e-11
1.30253e-11
1.32813e-11
1.35109e-11
1.37124e-11
1.38838e-11
1.40238e-11
1.41308e-11
1.42037e-11
1.42415e-11
1.42436e-11
1.42095e-11
1.41389e-11
1.4032e-11
1.3889e-11
1.37107e-11
1.3498e-11
1.3252e-11
1.29743e-11
1.26665e-11
1.23306e-11
1.19688e-11
1.15836e-11
1.11774e-11
1.07531e-11
1.03134e-11
9.86127e-12
9.39977e-12
8.93189e-12
8.46065e-12
7.98903e-12
7.51995e-12
7.05623e-12
6.60054e-12
6.15544e-12
5.72329e-12
5.30627e-12
4.90634e-12
4.52526e-12
4.16455e-12
3.8255e-12
3.50917e-12
3.21639e-12
2.94776e-12
2.70364e-12
2.48421e-12
2.28943e-12
2.11906e-12
1.97271e-12
1.84979e-12
1.74958e-12
1.67121e-12
1.61367e-12
1.57586e-12
1.55652e-12
1.55434e-12
1.56788e-12
1.59564e-12
1.63601e-12
1.68736e-12
1.74796e-12
1.81605e-12
1.88984e-12
1.96751e-12
2.04721e-12
2.12715e-12
2.20552e-12
2.2806e-12
2.35072e-12
2.41431e-12
2.46992e-12
2.51626e-12
2.55218e-12
2.57675e-12
2.58922e-12
2.58906e-12
2.57597e-12
2.54991e-12
2.51102e-12
2.45972e-12
2.39662e-12
2.32252e-12
2.23841e-12
2.14544e-12
2.04487e-12
1.93804e-12
1.82636e-12
1.71126e-12
1.59416e-12
1.47644e-12
1.3594e-12
1.24425e-12
1.1321e-12
1.02389e-12
9.20452e-13
8.22456e-13
7.30419e-13
6.44709e-13
5.65553e-13
4.93045e-13
4.27159e-13
3.67764e-13
3.14638e-13
2.67488e-13
2.25963e-13
1.89668e-13
1.58186e-13
1.31083e-13
1.07923e-13
8.82811e-14
7.17452e-14
5.79268e-14
4.64643e-14
3.70256e-14
2.93103e-14
2.30496e-14
1.80063e-14
1.39731e-14
1.07712e-14
8.24758e-15
6.273e-15
4.73917e-15
3.55632e-15
2.65072e-15
1.96238e-15
1.44296e-15
1.05383e-15
7.64404e-16
5.50692e-16
3.94022e-16
2.79997e-16
1.97606e-16
1.38503e-16
9.64096e-17
6.66474e-17
4.57558e-17
3.11972e-17
2.1126e-17
1.42112e-17
9.50084e-18
6.32055e-18
4.19741e-18
2.80419e-18
1.91899e-18
1.39671e-18
1.14977e-18
3.88213e-17
4.02017e-17
4.35961e-17
4.91175e-17
5.69634e-17
6.74209e-17
8.0876e-17
9.78255e-17
1.18893e-16
1.44848e-16
1.76631e-16
2.15379e-16
2.6246e-16
3.19514e-16
3.88498e-16
4.71739e-16
5.71998e-16
6.9254e-16
8.37223e-16
1.01059e-15
1.21798e-15
1.46567e-15
1.76098e-15
2.11249e-15
2.53021e-15
3.02577e-15
3.6127e-15
4.30665e-15
5.12577e-15
6.09098e-15
7.22638e-15
8.55971e-15
1.01228e-14
1.19519e-14
1.40888e-14
1.65807e-14
1.94816e-14
2.28526e-14
2.67628e-14
3.12906e-14
3.65238e-14
4.25616e-14
4.95149e-14
5.75078e-14
6.66791e-14
7.71828e-14
8.91901e-14
1.02891e-13
1.18494e-13
1.3623e-13
1.56353e-13
1.79139e-13
2.04891e-13
2.3394e-13
2.66643e-13
3.03386e-13
3.44589e-13
3.90699e-13
4.42197e-13
4.99598e-13
5.63448e-13
6.34325e-13
7.1284e-13
7.99636e-13
8.95386e-13
1.00079e-12
1.11657e-12
1.24348e-12
1.38229e-12
1.53377e-12
1.69873e-12
1.87796e-12
2.07226e-12
2.28242e-12
2.5092e-12
2.75336e-12
3.01561e-12
3.29662e-12
3.59701e-12
3.91733e-12
4.25806e-12
4.61958e-12
5.00219e-12
5.40607e-12
5.83127e-12
6.27771e-12
6.74518e-12
7.23329e-12
7.7415e-12
8.26907e-12
8.81509e-12
9.37847e-12
9.95791e-12
1.05519e-11
1.11587e-11
1.17765e-11
1.24031e-11
1.30362e-11
1.36734e-11
1.43119e-11
1.49488e-11
1.55813e-11
1.6206e-11
1.68199e-11
1.74194e-11
1.80013e-11
1.85619e-11
1.90979e-11
1.96056e-11
2.00818e-11
2.05231e-11
2.09262e-11
2.12881e-11
2.16058e-11
2.18767e-11
2.20984e-11
2.22688e-11
2.23859e-11
2.24485e-11
2.24553e-11
2.24056e-11
2.22991e-11
2.2136e-11
2.19168e-11
2.16425e-11
2.13144e-11
2.09344e-11
2.05048e-11
2.00281e-11
1.95074e-11
1.8946e-11
1.83476e-11
1.77161e-11
1.70557e-11
1.63707e-11
1.56656e-11
1.49449e-11
1.42134e-11
1.34757e-11
1.27363e-11
1.19996e-11
1.12701e-11
1.05519e-11
9.84888e-12
9.1647e-12
8.50275e-12
7.86609e-12
7.25743e-12
6.67917e-12
6.13334e-12
5.62161e-12
5.14531e-12
4.70539e-12
4.30251e-12
3.93696e-12
3.60875e-12
3.31758e-12
3.06291e-12
2.84393e-12
2.65958e-12
2.50863e-12
2.38964e-12
2.30099e-12
2.24092e-12
2.20752e-12
2.19875e-12
2.21246e-12
2.2464e-12
2.29823e-12
2.36553e-12
2.44582e-12
2.53656e-12
2.6352e-12
2.73914e-12
2.84583e-12
2.9527e-12
3.05729e-12
3.15718e-12
3.25008e-12
3.33386e-12
3.40655e-12
3.46639e-12
3.51187e-12
3.54171e-12
3.55496e-12
3.55094e-12
3.5293e-12
3.49001e-12
3.43335e-12
3.3599e-12
3.27055e-12
3.16645e-12
3.04897e-12
2.91969e-12
2.78036e-12
2.63282e-12
2.479e-12
2.32085e-12
2.16029e-12
1.99917e-12
1.83927e-12
1.6822e-12
1.52943e-12
1.38225e-12
1.24174e-12
1.10877e-12
9.84034e-13
8.67996e-13
7.60941e-13
6.62971e-13
5.7403e-13
4.93922e-13
4.22331e-13
3.58843e-13
3.02971e-13
2.54174e-13
2.11876e-13
1.75487e-13
1.44413e-13
1.18074e-13
9.59145e-14
7.74071e-14
6.20636e-14
4.94359e-14
3.9119e-14
3.07514e-14
2.4014e-14
1.86285e-14
1.43549e-14
1.0988e-14
8.35464e-15
6.30988e-15
4.73359e-15
3.52719e-15
2.61054e-15
1.91905e-15
1.40118e-15
1.01611e-15
7.31858e-16
5.23532e-16
3.71949e-16
2.62448e-16
1.83915e-16
1.27997e-16
8.84681e-17
6.07264e-17
4.13979e-17
2.80295e-17
1.88524e-17
1.2602e-17
8.38255e-18
5.56606e-18
3.7181e-18
2.54409e-18
1.85148e-18
1.52401e-18
6.92498e-17
7.17081e-17
7.77555e-17
8.75929e-17
1.01572e-16
1.20202e-16
1.44171e-16
1.74362e-16
2.11884e-16
2.58106e-16
3.14697e-16
3.83678e-16
4.67483e-16
5.69024e-16
6.91773e-16
8.39864e-16
1.0182e-15
1.23256e-15
1.4898e-15
1.79797e-15
2.16654e-15
2.6066e-15
3.13114e-15
3.75535e-15
4.49691e-15
5.37639e-15
6.41769e-15
7.64847e-15
9.10073e-15
1.08114e-14
1.2823e-14
1.51842e-14
1.79512e-14
2.11878e-14
2.49671e-14
2.93724e-14
3.44981e-14
4.04513e-14
4.73533e-14
5.53405e-14
6.4567e-14
7.52053e-14
8.74489e-14
1.01514e-13
1.17641e-13
1.36098e-13
1.57181e-13
1.81218e-13
2.08571e-13
2.39637e-13
2.74852e-13
3.14692e-13
3.59676e-13
4.10368e-13
4.67378e-13
5.31365e-13
6.03038e-13
6.83158e-13
7.72537e-13
8.72038e-13
9.82579e-13
1.10513e-12
1.2407e-12
1.39037e-12
1.55523e-12
1.73645e-12
1.93522e-12
2.15274e-12
2.39027e-12
2.64907e-12
2.9304e-12
3.23553e-12
3.56571e-12
3.92216e-12
4.30607e-12
4.71858e-12
5.16074e-12
5.63353e-12
6.13782e-12
6.67437e-12
7.2438e-12
7.84654e-12
8.4829e-12
9.15294e-12
9.85653e-12
1.05933e-11
1.13627e-11
1.21637e-11
1.29954e-11
1.38561e-11
1.47441e-11
1.56574e-11
1.65936e-11
1.75501e-11
1.85237e-11
1.95111e-11
2.05087e-11
2.15126e-11
2.25185e-11
2.3522e-11
2.45184e-11
2.55026e-11
2.64696e-11
2.74142e-11
2.8331e-11
2.92144e-11
3.00593e-11
3.086e-11
3.16112e-11
3.23079e-11
3.29448e-11
3.35174e-11
3.4021e-11
3.44516e-11
3.48054e-11
3.5079e-11
3.52698e-11
3.53754e-11
3.5394e-11
3.53246e-11
3.51667e-11
3.49205e-11
3.45867e-11
3.41668e-11
3.3663e-11
3.3078e-11
3.24153e-11
3.16788e-11
3.08732e-11
3.00035e-11
2.90754e-11
2.80947e-11
2.7068e-11
2.60018e-11
2.49029e-11
2.37785e-11
2.26357e-11
2.14815e-11
2.03229e-11
1.91669e-11
1.80201e-11
1.6889e-11
1.57795e-11
1.46975e-11
1.3648e-11
1.2636e-11
1.16656e-11
1.07407e-11
9.86433e-12
9.0393e-12
8.26769e-12
7.55109e-12
6.89058e-12
6.28674e-12
5.73966e-12
5.24901e-12
4.81403e-12
4.43358e-12
4.10618e-12
3.83004e-12
3.60307e-12
3.42293e-12
3.28706e-12
3.19271e-12
3.13692e-12
3.11662e-12
3.12856e-12
3.1694e-12
3.23569e-12
3.32389e-12
3.4304e-12
3.55159e-12
3.68377e-12
3.8233e-12
3.96655e-12
4.10993e-12
4.24998e-12
4.38337e-12
4.50694e-12
4.61774e-12
4.71309e-12
4.79061e-12
4.84826e-12
4.88434e-12
4.8976e-12
4.88717e-12
4.85264e-12
4.79401e-12
4.71175e-12
4.60671e-12
4.48017e-12
4.33373e-12
4.16933e-12
3.98917e-12
3.79565e-12
3.59132e-12
3.37882e-12
3.1608e-12
2.93988e-12
2.7186e-12
2.49933e-12
2.28427e-12
2.07538e-12
1.87439e-12
1.68273e-12
1.50157e-12
1.3318e-12
1.17403e-12
1.02861e-12
8.95656e-13
7.75058e-13
6.66526e-13
5.69608e-13
4.83726e-13
4.08201e-13
3.42285e-13
2.85187e-13
2.36096e-13
1.94201e-13
1.58712e-13
1.2887e-13
1.03961e-13
8.33204e-14
6.63418e-14
5.24771e-14
4.12371e-14
3.21911e-14
2.49633e-14
1.923e-14
1.47151e-14
1.11851e-14
8.44511e-15
6.33362e-15
4.71816e-15
3.49108e-15
2.56571e-15
1.87288e-15
1.35787e-15
9.77793e-16
6.99312e-16
4.96733e-16
3.50428e-16
2.45523e-16
1.70843e-16
1.18062e-16
8.10276e-17
5.5229e-17
3.73888e-17
2.51439e-17
1.68053e-17
1.11771e-17
7.42076e-18
4.95642e-18
3.391e-18
2.46755e-18
2.03097e-18
1.22582e-16
1.26927e-16
1.37619e-16
1.55012e-16
1.79728e-16
2.12666e-16
2.5504e-16
3.08408e-16
3.74727e-16
4.56413e-16
5.56412e-16
6.78289e-16
8.26333e-16
1.00568e-15
1.22245e-15
1.48393e-15
1.79874e-15
2.17709e-15
2.63102e-15
3.17471e-15
3.8248e-15
4.60082e-15
5.5256e-15
6.62579e-15
7.93247e-15
9.48174e-15
1.13155e-14
1.34823e-14
1.60382e-14
1.90478e-14
2.25855e-14
2.67367e-14
3.15991e-14
3.72846e-14
4.39206e-14
5.16521e-14
6.06437e-14
7.10819e-14
8.31772e-14
9.7167e-14
1.13318e-13
1.3193e-13
1.53337e-13
1.77912e-13
2.06072e-13
2.38278e-13
2.7504e-13
3.16921e-13
3.64542e-13
4.18584e-13
4.79791e-13
5.48976e-13
6.27023e-13
7.14889e-13
8.1361e-13
9.24299e-13
1.04815e-12
1.18645e-12
1.34056e-12
1.51192e-12
1.70206e-12
1.91259e-12
2.14519e-12
2.40163e-12
2.68372e-12
2.99335e-12
3.33245e-12
3.70299e-12
4.10698e-12
4.54641e-12
5.02331e-12
5.53966e-12
6.0974e-12
6.69842e-12
7.34452e-12
8.03739e-12
8.77858e-12
9.56948e-12
1.04113e-11
1.1305e-11
1.22513e-11
1.32506e-11
1.43032e-11
1.54087e-11
1.65667e-11
1.7776e-11
1.90355e-11
2.03432e-11
2.16968e-11
2.30936e-11
2.45303e-11
2.60032e-11
2.75079e-11
2.90399e-11
3.05937e-11
3.21637e-11
3.37437e-11
3.5327e-11
3.69066e-11
3.84752e-11
4.00249e-11
4.15478e-11
4.30357e-11
4.44802e-11
4.58727e-11
4.72049e-11
4.84683e-11
4.96546e-11
5.07556e-11
5.17636e-11
5.26712e-11
5.34714e-11
5.41577e-11
5.47244e-11
5.51662e-11
5.54789e-11
5.56589e-11
5.57035e-11
5.56109e-11
5.53804e-11
5.50121e-11
5.45073e-11
5.38682e-11
5.30979e-11
5.22007e-11
5.11819e-11
5.00474e-11
4.88043e-11
4.74604e-11
4.60241e-11
4.45046e-11
4.29116e-11
4.12554e-11
3.95463e-11
3.77953e-11
3.60131e-11
3.42107e-11
3.23988e-11
3.05882e-11
2.87891e-11
2.70113e-11
2.52644e-11
2.3557e-11
2.18975e-11
2.02931e-11
1.87507e-11
1.72761e-11
1.58745e-11
1.45501e-11
1.33062e-11
1.21456e-11
1.10701e-11
1.00806e-11
9.17761e-12
8.36064e-12
7.62874e-12
6.98031e-12
6.41325e-12
5.92495e-12
5.51239e-12
5.17218e-12
4.90057e-12
4.69353e-12
4.54679e-12
4.45586e-12
4.41606e-12
4.42254e-12
4.47035e-12
4.5544e-12
4.66955e-12
4.81058e-12
4.97224e-12
5.14932e-12
5.33659e-12
5.52894e-12
5.72136e-12
5.909e-12
6.08722e-12
6.25166e-12
6.39828e-12
6.5234e-12
6.62379e-12
6.69668e-12
6.73984e-12
6.75159e-12
6.73084e-12
6.67708e-12
6.59043e-12
6.47158e-12
6.3218e-12
6.14289e-12
5.93714e-12
5.70724e-12
5.45624e-12
5.18747e-12
4.90444e-12
4.61076e-12
4.31006e-12
4.00593e-12
3.70179e-12
3.40087e-12
3.10614e-12
2.82023e-12
2.54545e-12
2.28374e-12
2.03662e-12
1.80528e-12
1.59048e-12
1.39269e-12
1.21199e-12
1.04823e-12
9.0097e-13
7.69566e-13
6.53208e-13
5.50953e-13
4.61766e-13
3.8456e-13
3.1822e-13
2.61639e-13
2.13736e-13
1.73477e-13
1.3989e-13
1.12073e-13
8.92022e-14
7.05344e-14
5.54075e-14
4.32383e-14
3.35192e-14
2.58128e-14
1.97463e-14
1.5005e-14
1.13261e-14
8.49195e-15
6.32433e-15
4.67835e-15
3.43744e-15
2.50862e-15
1.81839e-15
1.30913e-15
9.3609e-16
6.64791e-16
4.68899e-16
3.28469e-16
2.2852e-16
1.57895e-16
1.08348e-16
7.38399e-17
4.99808e-17
3.36074e-17
2.24592e-17
1.49356e-17
9.91491e-18
6.6215e-18
4.52965e-18
3.29574e-18
2.71242e-18
2.15312e-16
2.22931e-16
2.41689e-16
2.72206e-16
3.15568e-16
3.73355e-16
4.47689e-16
5.41302e-16
6.57622e-16
8.00878e-16
9.76227e-16
1.18991e-15
1.44944e-15
1.76379e-15
2.14369e-15
2.60185e-15
3.15338e-15
3.8161e-15
4.61106e-15
5.56301e-15
6.70103e-15
8.05919e-15
9.67733e-15
1.16019e-14
1.38872e-14
1.6596e-14
1.98013e-14
2.35876e-14
2.80524e-14
3.33081e-14
3.94839e-14
4.6728e-14
5.52103e-14
6.51243e-14
7.66911e-14
9.01616e-14
1.0582e-13
1.2399e-13
1.45034e-13
1.69361e-13
1.97431e-13
2.2976e-13
2.66922e-13
3.09559e-13
3.58383e-13
4.14184e-13
4.77836e-13
5.50299e-13
6.32632e-13
7.25991e-13
8.31644e-13
9.50966e-13
1.08545e-12
1.23672e-12
1.40652e-12
1.59671e-12
1.80931e-12
2.04645e-12
2.3104e-12
2.60358e-12
2.9285e-12
3.28782e-12
3.68432e-12
4.12088e-12
4.60047e-12
5.12614e-12
5.70101e-12
6.32826e-12
7.01107e-12
7.75263e-12
8.55609e-12
9.42455e-12
1.0361e-11
1.13683e-11
1.24492e-11
1.3606e-11
1.48412e-11
1.61565e-11
1.75535e-11
1.90335e-11
2.05971e-11
2.22446e-11
2.39757e-11
2.57895e-11
2.76846e-11
2.96587e-11
3.1709e-11
3.38319e-11
3.60231e-11
3.82775e-11
4.05891e-11
4.29514e-11
4.53568e-11
4.77971e-11
5.02633e-11
5.27458e-11
5.52341e-11
5.77171e-11
6.01834e-11
6.26208e-11
6.50168e-11
6.73586e-11
6.96331e-11
7.1827e-11
7.39271e-11
7.59202e-11
7.77935e-11
7.95342e-11
8.11303e-11
8.25702e-11
8.3843e-11
8.49387e-11
8.58484e-11
8.65639e-11
8.70785e-11
8.73867e-11
8.74841e-11
8.73681e-11
8.70374e-11
8.64921e-11
8.5734e-11
8.47664e-11
8.35943e-11
8.22239e-11
8.06631e-11
7.89212e-11
7.70089e-11
7.49379e-11
7.27212e-11
7.03729e-11
6.79076e-11
6.5341e-11
6.26892e-11
5.99686e-11
5.71959e-11
5.43879e-11
5.15611e-11
4.8732e-11
4.59164e-11
4.31295e-11
4.0386e-11
3.76996e-11
3.50828e-11
3.25475e-11
3.01041e-11
2.77619e-11
2.5529e-11
2.34122e-11