/*--------------------------------*- C++ -*----------------------------------*\
| =========                 |                                                 |
| \\      /  F ield         | OpenFOAM: The Open Source CFD Toolbox           |
|  \\    /   O peration     | Version:  v2012                                 |
|   \\  /    A nd           | Website:  www.openfoam.com                      |
|    \\/     M anipulation  |                                                 |
\*---------------------------------------------------------------------------*/
FoamFile
{
    version     2.0;
    format      ascii;
    class       volScalarField;
    location    "0";
    object      pRec;
}
// * * * * * * * * * * * * * * * * * * * * * * * * * * * * * * * * * * * * * //

dimensions      [0 2 -2 0 0 0 0];


internalField   nonuniform List<scalar> 
4000
(
-6.86381e-13
-6.8118e-13
-6.82091e-13
-6.84464e-13
-6.82757e-13
-6.836e-13
-6.81707e-13
-6.76785e-13
-6.67692e-13
-6.63026e-13
-6.63394e-13
-6.58147e-13
-6.49687e-13
-6.3751e-13
-6.23696e-13
-6.17865e-13
-6.14257e-13
-6.11505e-13
-6.03992e-13
-5.92235e-13
-5.81813e-13
-5.74546e-13
-5.69172e-13
-5.60302e-13
-5.49367e-13
-5.38371e-13
-5.35085e-13
-5.30068e-13
-5.23621e-13
-5.12069e-13
-4.97385e-13
-4.89576e-13
-4.8653e-13
-4.83245e-13
-4.77514e-13
-4.7297e-13
-4.6278e-13
-4.45789e-13
-4.28864e-13
-4.24131e-13
-4.23215e-13
-4.20679e-13
-4.19667e-13
-4.1355e-13
-4.03779e-13
-3.94737e-13
-3.85494e-13
-3.76261e-13
-3.67663e-13
-3.60189e-13
-3.52136e-13
-3.44748e-13
-3.37785e-13
-3.29744e-13
-3.22176e-13
-3.1023e-13
-3.02821e-13
-3.00599e-13
-2.98219e-13
-2.95195e-13
-2.87221e-13
-2.80287e-13
-2.70779e-13
-2.59715e-13
-2.52095e-13
-2.44997e-13
-2.40381e-13
-2.32001e-13
-2.21796e-13
-2.14815e-13
-2.07552e-13
-1.99846e-13
-1.86808e-13
-1.79755e-13
-1.78147e-13
-1.73934e-13
-1.68666e-13
-1.6211e-13
-1.5256e-13
-1.39314e-13
-1.27218e-13
-1.21246e-13
-1.12843e-13
-1.07962e-13
-1.02311e-13
-9.63679e-14
-8.79573e-14
-8.04187e-14
-7.72249e-14
-7.29603e-14
-6.7185e-14
-6.0543e-14
-5.43652e-14
-4.9933e-14
-4.06907e-14
-3.18426e-14
-2.47816e-14
-1.71681e-14
-9.28238e-15
-2.12226e-15
-6.83236e-13
-6.81767e-13
-6.84449e-13
-6.84467e-13
-6.85419e-13
-6.82404e-13
-6.79208e-13
-6.77006e-13
-6.71485e-13
-6.65895e-13
-6.60214e-13
-6.55664e-13
-6.48071e-13
-6.37316e-13
-6.26959e-13
-6.20913e-13
-6.16362e-13
-6.10084e-13
-6.0218e-13
-5.95346e-13
-5.84465e-13
-5.7269e-13
-5.65726e-13
-5.57653e-13
-5.47319e-13
-5.41037e-13
-5.36669e-13
-5.30827e-13
-5.22573e-13
-5.09053e-13
-4.99821e-13
-4.927e-13
-4.86092e-13
-4.80114e-13
-4.74956e-13
-4.6952e-13
-4.61384e-13
-4.48533e-13
-4.35009e-13
-4.27802e-13
-4.23178e-13
-4.20507e-13
-4.16884e-13
-4.12045e-13
-4.04648e-13
-3.94715e-13
-3.84385e-13
-3.76146e-13
-3.67512e-13
-3.57982e-13
-3.51146e-13
-3.43839e-13
-3.38103e-13
-3.31112e-13
-3.23521e-13
-3.12691e-13
-3.02517e-13
-2.98812e-13
-2.96563e-13
-2.937e-13
-2.89293e-13
-2.80386e-13
-2.7137e-13
-2.61389e-13
-2.5397e-13
-2.45265e-13
-2.38026e-13
-2.3104e-13
-2.23965e-13
-2.16197e-13
-2.07566e-13
-1.99992e-13
-1.91223e-13
-1.82934e-13
-1.77962e-13
-1.70194e-13
-1.67425e-13
-1.60065e-13
-1.49756e-13
-1.38032e-13
-1.28208e-13
-1.22508e-13
-1.16553e-13
-1.09833e-13
-1.00881e-13
-9.44787e-14
-8.60514e-14
-7.84988e-14
-7.57148e-14
-7.15852e-14
-6.83246e-14
-6.30359e-14
-5.78478e-14
-4.78858e-14
-3.92467e-14
-3.24462e-14
-2.42163e-14
-1.7238e-14
-1.04453e-14
-3.84459e-15
-6.82614e-13
-6.81681e-13
-6.83774e-13
-6.86515e-13
-6.8743e-13
-6.83493e-13
-6.78219e-13
-6.75871e-13
-6.69539e-13
-6.65632e-13
-6.6118e-13
-6.55038e-13
-6.47428e-13
-6.38772e-13
-6.28883e-13
-6.21878e-13
-6.15293e-13
-6.08926e-13
-6.02815e-13
-5.93942e-13
-5.83737e-13
-5.74554e-13
-5.66368e-13
-5.58525e-13
-5.49118e-13
-5.43467e-13
-5.37593e-13
-5.29192e-13
-5.2028e-13
-5.07523e-13
-5.0011e-13
-4.92802e-13
-4.85701e-13
-4.81981e-13
-4.77032e-13
-4.70636e-13
-4.5998e-13
-4.4962e-13
-4.38771e-13
-4.27974e-13
-4.22345e-13
-4.17513e-13
-4.16956e-13
-4.12564e-13
-4.05232e-13
-3.94691e-13
-3.82708e-13
-3.73699e-13
-3.68833e-13
-3.6354e-13
-3.52543e-13
-3.44426e-13
-3.35927e-13
-3.28069e-13
-3.21339e-13
-3.13452e-13
-3.03193e-13
-3.01057e-13
-3.00655e-13
-2.95513e-13
-2.87114e-13
-2.75862e-13
-2.68305e-13
-2.62573e-13
-2.56436e-13
-2.48498e-13
-2.40499e-13
-2.30376e-13
-2.22606e-13
-2.13021e-13
-2.04888e-13
-1.97691e-13
-1.88352e-13
-1.82362e-13
-1.77486e-13
-1.72096e-13
-1.66808e-13
-1.59956e-13
-1.49432e-13
-1.39221e-13
-1.32905e-13
-1.24283e-13
-1.12614e-13
-1.0648e-13
-1.00782e-13
-9.67012e-14
-9.03763e-14
-8.2012e-14
-7.56689e-14
-6.98117e-14
-6.59559e-14
-6.27367e-14
-5.61772e-14
-4.8376e-14
-3.88662e-14
-3.03279e-14
-2.49633e-14
-1.81019e-14
-1.37935e-14
-4.47567e-15
-6.83565e-13
-6.84408e-13
-6.84904e-13
-6.81384e-13
-6.85842e-13
-6.80891e-13
-6.78313e-13
-6.76181e-13
-6.73455e-13
-6.6765e-13
-6.59693e-13
-6.50796e-13
-6.43722e-13
-6.38882e-13
-6.36763e-13
-6.27185e-13
-6.13648e-13
-6.06182e-13
-6.01712e-13
-5.93055e-13
-5.83916e-13
-5.76033e-13
-5.6675e-13
-5.53155e-13
-5.4531e-13
-5.41451e-13
-5.36982e-13
-5.3133e-13
-5.20756e-13
-5.11269e-13
-5.03794e-13
-4.94919e-13
-4.86485e-13
-4.80243e-13
-4.72788e-13
-4.70256e-13
-4.60765e-13
-4.48501e-13
-4.39894e-13
-4.30195e-13
-4.25305e-13
-4.2183e-13
-4.16614e-13
-4.09965e-13
-4.00668e-13
-3.9154e-13
-3.82875e-13
-3.76974e-13
-3.69131e-13
-3.57907e-13
-3.49048e-13
-3.43494e-13
-3.37765e-13
-3.31881e-13
-3.20801e-13
-3.14496e-13
-3.05486e-13
-3.00193e-13
-2.99594e-13
-2.93786e-13
-2.85702e-13
-2.77652e-13
-2.72183e-13
-2.64946e-13
-2.56196e-13
-2.47279e-13
-2.3952e-13
-2.30471e-13
-2.23014e-13
-2.15361e-13
-2.08327e-13
-2.00659e-13
-1.91267e-13
-1.83708e-13
-1.77066e-13
-1.70695e-13
-1.66607e-13
-1.59515e-13
-1.49334e-13
-1.39637e-13
-1.3216e-13
-1.24665e-13
-1.14672e-13
-1.0549e-13
-1.0003e-13
-9.50813e-14
-8.85362e-14
-8.11118e-14
-7.39261e-14
-7.02558e-14
-6.80364e-14
-6.34954e-14
-5.76279e-14
-4.70323e-14
-3.84083e-14
-3.26581e-14
-2.65369e-14
-1.75399e-14
-1.11601e-14
-4.21965e-15
-6.8415e-13
-6.88201e-13
-6.84798e-13
-6.80849e-13
-6.77823e-13
-6.81203e-13
-6.80943e-13
-6.78705e-13
-6.7238e-13
-6.65025e-13
-6.57087e-13
-6.5235e-13
-6.43056e-13
-6.37471e-13
-6.35881e-13
-6.29794e-13
-6.20165e-13
-6.10136e-13
-5.9891e-13
-5.88439e-13
-5.83432e-13
-5.75261e-13
-5.61701e-13
-5.52683e-13
-5.48577e-13
-5.43512e-13
-5.38298e-13
-5.30267e-13
-5.23017e-13
-5.13722e-13
-5.04482e-13
-4.95709e-13
-4.8641e-13
-4.80568e-13
-4.74313e-13
-4.69854e-13
-4.59465e-13
-4.48518e-13
-4.38107e-13
-4.30618e-13
-4.25568e-13
-4.23547e-13
-4.16751e-13
-4.08622e-13
-3.98995e-13
-3.8861e-13
-3.81624e-13
-3.75816e-13
-3.68307e-13
-3.61477e-13
-3.52582e-13
-3.45494e-13
-3.37977e-13
-3.3152e-13
-3.2081e-13
-3.13147e-13
-3.067e-13
-3.01557e-13
-2.98996e-13
-2.92873e-13
-2.85941e-13
-2.78093e-13
-2.70116e-13
-2.64287e-13
-2.58449e-13
-2.51861e-13
-2.43663e-13
-2.31585e-13
-2.22871e-13
-2.1267e-13
-2.04934e-13
-1.98355e-13
-1.91477e-13
-1.83727e-13
-1.74057e-13
-1.67988e-13
-1.65569e-13
-1.59102e-13
-1.51712e-13
-1.41565e-13
-1.33319e-13
-1.26615e-13
-1.14239e-13
-1.04343e-13
-9.70397e-14
-9.22115e-14
-8.87765e-14
-8.36382e-14
-7.60859e-14
-7.15031e-14
-6.69901e-14
-6.3142e-14
-5.56317e-14
-5.00942e-14
-4.23044e-14
-3.29582e-14
-2.62123e-14
-1.95396e-14
-1.06958e-14
-1.65289e-15
-6.80984e-13
-6.8954e-13
-6.86041e-13
-6.77988e-13
-6.82081e-13
-6.84787e-13
-6.82591e-13
-6.78429e-13
-6.70553e-13
-6.58482e-13
-6.54878e-13
-6.51608e-13
-6.47747e-13
-6.3885e-13
-6.32594e-13
-6.31154e-13
-6.21296e-13
-6.12565e-13
-6.04083e-13
-5.91648e-13
-5.80627e-13
-5.69729e-13
-5.53417e-13
-5.49346e-13
-5.49259e-13
-5.46761e-13
-5.38512e-13
-5.30045e-13
-5.22304e-13
-5.1618e-13
-5.05394e-13
-4.95712e-13
-4.87568e-13
-4.83308e-13
-4.79013e-13
-4.68596e-13
-4.57497e-13
-4.48703e-13
-4.37914e-13
-4.32794e-13
-4.28003e-13
-4.23881e-13
-4.15106e-13
-4.08687e-13
-3.99167e-13
-3.87485e-13
-3.78851e-13
-3.72729e-13
-3.68587e-13
-3.61355e-13
-3.5398e-13
-3.45039e-13
-3.37072e-13
-3.29175e-13
-3.19628e-13
-3.1443e-13
-3.09153e-13
-3.02542e-13
-2.97684e-13
-2.93285e-13
-2.88228e-13
-2.79174e-13
-2.70609e-13
-2.63918e-13
-2.55397e-13
-2.50121e-13
-2.4412e-13
-2.32836e-13
-2.23909e-13
-2.15661e-13
-2.0633e-13
-1.98418e-13
-1.92722e-13
-1.85124e-13
-1.75686e-13
-1.70349e-13
-1.64503e-13
-1.55975e-13
-1.50969e-13
-1.4349e-13
-1.35961e-13
-1.25791e-13
-1.12094e-13
-1.02608e-13
-9.8021e-14
-9.41588e-14
-9.01287e-14
-8.19152e-14
-7.50601e-14
-7.08086e-14
-6.67873e-14
-6.33645e-14
-5.40475e-14
-4.88467e-14
-4.18012e-14
-3.53135e-14
-2.65872e-14
-1.87582e-14
-8.9455e-15
-6.83424e-16
-6.85575e-13
-6.85992e-13
-6.85385e-13
-6.82361e-13
-6.79582e-13
-6.82993e-13
-6.81887e-13
-6.76227e-13
-6.68439e-13
-6.59268e-13
-6.51547e-13
-6.50919e-13
-6.49624e-13
-6.39951e-13
-6.33803e-13
-6.29183e-13
-6.25817e-13
-6.17531e-13
-6.01143e-13
-5.84636e-13
-5.69713e-13
-5.64669e-13
-5.62909e-13
-5.59843e-13
-5.53321e-13
-5.4613e-13
-5.36547e-13
-5.28217e-13
-5.23331e-13
-5.18172e-13
-5.08188e-13
-4.94623e-13
-4.88185e-13
-4.79668e-13
-4.73759e-13
-4.66585e-13
-4.59505e-13
-4.53157e-13
-4.42301e-13
-4.31496e-13
-4.24393e-13
-4.18722e-13
-4.1382e-13
-4.09238e-13
-4.02154e-13
-3.91859e-13
-3.80701e-13
-3.71658e-13
-3.6544e-13
-3.61402e-13
-3.5439e-13
-3.48596e-13
-3.39864e-13
-3.2962e-13
-3.21278e-13
-3.15357e-13
-3.0843e-13
-2.97774e-13
-2.94033e-13
-2.92888e-13
-2.9273e-13
-2.84373e-13
-2.72912e-13
-2.61802e-13
-2.52609e-13
-2.46512e-13
-2.38901e-13
-2.28891e-13
-2.2013e-13
-2.15373e-13
-2.13908e-13
-2.03913e-13
-1.9373e-13
-1.8782e-13
-1.78613e-13
-1.68885e-13
-1.60389e-13
-1.52176e-13
-1.47051e-13
-1.42223e-13
-1.35178e-13
-1.2525e-13
-1.16749e-13
-1.07937e-13
-1.00822e-13
-9.14697e-14
-8.74614e-14
-8.29441e-14
-7.6023e-14
-7.23878e-14
-6.62275e-14
-5.89319e-14
-5.40491e-14
-4.78681e-14
-4.13259e-14
-3.33086e-14
-2.63062e-14
-1.72145e-14
-9.17479e-15
-2.81268e-15
-6.84226e-13
-6.83378e-13
-6.81593e-13
-6.83541e-13
-6.8563e-13
-6.85069e-13
-6.81128e-13
-6.7444e-13
-6.66399e-13
-6.6014e-13
-6.55333e-13
-6.50287e-13
-6.46202e-13
-6.37759e-13
-6.33903e-13
-6.29587e-13
-6.25655e-13
-6.17432e-13
-5.97011e-13
-5.86777e-13
-5.81555e-13
-5.73835e-13
-5.62708e-13
-5.53359e-13
-5.50283e-13
-5.42812e-13
-5.33011e-13
-5.27275e-13
-5.21426e-13
-5.15356e-13
-5.08545e-13
-4.99867e-13
-4.93611e-13
-4.86174e-13
-4.7477e-13
-4.6595e-13
-4.57887e-13
-4.48884e-13
-4.41116e-13
-4.31947e-13
-4.25099e-13
-4.21023e-13
-4.14349e-13
-4.12407e-13
-4.07054e-13
-3.92327e-13
-3.76975e-13
-3.64831e-13
-3.64295e-13
-3.62622e-13
-3.58446e-13
-3.51941e-13
-3.4006e-13
-3.29608e-13
-3.18771e-13
-3.1273e-13
-3.09033e-13
-3.03419e-13
-2.95933e-13
-2.90862e-13
-2.8892e-13
-2.81587e-13
-2.73966e-13
-2.65591e-13
-2.57496e-13
-2.48674e-13
-2.40178e-13
-2.30811e-13
-2.24449e-13
-2.17352e-13
-2.10107e-13
-2.04025e-13
-1.92366e-13
-1.80208e-13
-1.73542e-13
-1.68704e-13
-1.63862e-13
-1.55919e-13
-1.51028e-13
-1.44856e-13
-1.36033e-13
-1.25441e-13
-1.1343e-13
-1.0296e-13
-9.50088e-14
-9.10838e-14
-8.83807e-14
-8.43205e-14
-7.75189e-14
-7.09478e-14
-6.40122e-14
-5.85486e-14
-5.41431e-14
-4.9203e-14
-4.00456e-14
-3.17727e-14
-2.56681e-14
-1.86584e-14
-1.05687e-14
-1.42349e-15
-6.86236e-13
-6.87256e-13
-6.82964e-13
-6.78136e-13
-6.80843e-13
-6.83081e-13
-6.82621e-13
-6.74905e-13
-6.6415e-13
-6.61661e-13
-6.56099e-13
-6.4719e-13
-6.40867e-13
-6.38114e-13
-6.35951e-13
-6.31926e-13
-6.25523e-13
-6.15418e-13
-6.01321e-13
-5.88533e-13
-5.79921e-13
-5.71174e-13
-5.65783e-13
-5.59276e-13
-5.50967e-13
-5.40775e-13
-5.31988e-13
-5.27175e-13
-5.24592e-13
-5.15935e-13
-5.09493e-13
-5.01304e-13
-4.90522e-13
-4.79849e-13
-4.74776e-13
-4.67148e-13
-4.57628e-13
-4.48898e-13
-4.42378e-13
-4.35967e-13
-4.31023e-13
-4.23449e-13
-4.11294e-13
-4.04413e-13
-4.00024e-13
-3.93107e-13
-3.81732e-13
-3.73089e-13
-3.6714e-13
-3.60756e-13
-3.54769e-13
-3.48018e-13
-3.38976e-13
-3.30756e-13
-3.22829e-13
-3.17645e-13
-3.1051e-13
-3.03831e-13
-2.96611e-13
-2.92084e-13
-2.86207e-13
-2.79084e-13
-2.72701e-13
-2.6514e-13
-2.54959e-13
-2.45137e-13
-2.39276e-13
-2.31831e-13
-2.2399e-13
-2.16631e-13
-2.08604e-13
-2.04352e-13
-1.96238e-13
-1.86228e-13
-1.75078e-13
-1.68885e-13
-1.64795e-13
-1.57295e-13
-1.51439e-13
-1.42804e-13
-1.36026e-13
-1.26126e-13
-1.1391e-13
-1.04365e-13
-9.71778e-14
-9.15152e-14
-8.88371e-14
-8.36026e-14
-7.71775e-14
-7.07221e-14
-6.33632e-14
-5.78921e-14
-5.11615e-14
-4.61229e-14
-3.95316e-14
-3.19758e-14
-2.45838e-14
-1.54366e-14
-7.22828e-15
9.86999e-16
-6.85703e-13
-6.85098e-13
-6.8556e-13
-6.82051e-13
-6.7909e-13
-6.80762e-13
-6.80058e-13
-6.77226e-13
-6.70207e-13
-6.58206e-13
-6.50697e-13
-6.44463e-13
-6.41603e-13
-6.4044e-13
-6.37073e-13
-6.31013e-13
-6.22137e-13
-6.16495e-13
-6.08398e-13
-5.93136e-13
-5.79881e-13
-5.67386e-13
-5.61879e-13
-5.55385e-13
-5.51699e-13
-5.45249e-13
-5.35952e-13
-5.29645e-13
-5.23305e-13
-5.16558e-13
-5.09807e-13
-5.01061e-13
-4.91138e-13
-4.79539e-13
-4.72106e-13
-4.65629e-13
-4.60085e-13
-4.49688e-13
-4.43934e-13
-4.37063e-13
-4.27277e-13
-4.17871e-13
-4.10299e-13
-4.04663e-13
-4.02503e-13
-3.97706e-13
-3.86146e-13
-3.74993e-13
-3.6755e-13
-3.58976e-13
-3.52374e-13
-3.47662e-13
-3.40267e-13
-3.31853e-13
-3.23368e-13
-3.16313e-13
-3.10129e-13
-3.03163e-13
-2.9662e-13
-2.93732e-13
-2.89562e-13
-2.85058e-13
-2.78334e-13
-2.658e-13
-2.52205e-13
-2.38848e-13
-2.31717e-13
-2.27061e-13
-2.23226e-13
-2.22292e-13
-2.16043e-13
-2.0608e-13
-1.98544e-13
-1.88052e-13
-1.75665e-13
-1.66509e-13
-1.61961e-13
-1.55648e-13
-1.51003e-13
-1.42034e-13
-1.34959e-13
-1.26393e-13
-1.15793e-13
-1.07634e-13
-9.82136e-14
-9.00355e-14
-8.60077e-14
-8.06736e-14
-7.62405e-14
-7.01601e-14
-6.1961e-14
-5.36349e-14
-4.78661e-14
-4.36301e-14
-3.58416e-14
-2.79795e-14
-2.06131e-14
-1.38718e-14
-5.39946e-15
3.24761e-16
-6.83912e-13
-6.8317e-13
-6.8217e-13
-6.83636e-13
-6.83882e-13
-6.78721e-13
-6.76791e-13
-6.73594e-13
-6.68322e-13
-6.6282e-13
-6.51759e-13
-6.43282e-13
-6.42064e-13
-6.42742e-13
-6.37746e-13
-6.33184e-13
-6.2148e-13
-6.14433e-13
-6.07238e-13
-5.94083e-13
-5.83603e-13
-5.68534e-13
-5.58816e-13
-5.5411e-13
-5.48742e-13
-5.43275e-13
-5.38217e-13
-5.31428e-13
-5.25021e-13
-5.17935e-13
-5.0919e-13
-4.99943e-13
-4.8996e-13
-4.81251e-13
-4.75917e-13
-4.67758e-13
-4.58733e-13
-4.49794e-13
-4.44568e-13
-4.35258e-13
-4.27606e-13
-4.18021e-13
-4.11223e-13
-4.08182e-13
-4.04635e-13
-3.96164e-13
-3.83723e-13
-3.71427e-13
-3.64849e-13
-3.57828e-13
-3.54967e-13
-3.49747e-13
-3.39699e-13
-3.31453e-13
-3.22744e-13
-3.19666e-13
-3.12894e-13
-3.05497e-13
-2.96385e-13
-2.88201e-13
-2.8567e-13
-2.78e-13
-2.73323e-13
-2.68274e-13
-2.55197e-13
-2.41751e-13
-2.32535e-13
-2.26219e-13
-2.23658e-13
-2.24787e-13
-2.16542e-13
-2.08517e-13
-1.9906e-13
-1.87583e-13
-1.73894e-13
-1.62959e-13
-1.61582e-13
-1.58373e-13
-1.54043e-13
-1.45265e-13
-1.3825e-13
-1.29632e-13
-1.15405e-13
-1.04457e-13
-9.41161e-14
-8.47112e-14
-8.62601e-14
-8.39631e-14
-7.61649e-14
-6.89005e-14
-5.98017e-14
-5.31459e-14
-4.72497e-14
-4.15617e-14
-3.7358e-14
-3.07841e-14
-1.75531e-14
-5.97498e-15
1.78397e-15
-6.59703e-16
-6.86225e-13
-6.84458e-13
-6.82481e-13
-6.83563e-13
-6.82532e-13
-6.77637e-13
-6.77988e-13
-6.74556e-13
-6.67976e-13
-6.6062e-13
-6.52841e-13
-6.45973e-13
-6.38597e-13
-6.36119e-13
-6.33802e-13
-6.28534e-13
-6.24372e-13
-6.19197e-13
-6.09321e-13
-5.95203e-13
-5.82715e-13
-5.74852e-13
-5.6479e-13
-5.55296e-13
-5.49126e-13
-5.38306e-13
-5.34613e-13
-5.31205e-13
-5.26334e-13
-5.19874e-13
-5.11028e-13
-5.00595e-13
-4.89068e-13
-4.78816e-13
-4.73225e-13
-4.65925e-13
-4.60343e-13
-4.52622e-13
-4.46625e-13
-4.34479e-13
-4.26302e-13
-4.15395e-13
-4.10934e-13
-4.10166e-13
-4.03309e-13
-3.95727e-13
-3.84635e-13
-3.74376e-13
-3.65837e-13
-3.57463e-13
-3.5189e-13
-3.48253e-13
-3.40208e-13
-3.34358e-13
-3.27203e-13
-3.1853e-13
-3.117e-13
-3.04076e-13
-2.96013e-13
-2.90212e-13
-2.87802e-13
-2.87342e-13
-2.77547e-13
-2.65671e-13
-2.48401e-13
-2.3926e-13
-2.32767e-13
-2.28576e-13
-2.23189e-13
-2.19957e-13
-2.1383e-13
-2.11652e-13
-2.05074e-13
-1.9226e-13
-1.73172e-13
-1.57635e-13
-1.55252e-13
-1.58724e-13
-1.55177e-13
-1.45257e-13
-1.36983e-13
-1.27018e-13
-1.16737e-13
-1.08061e-13
-9.75511e-14
-8.73522e-14
-8.13203e-14
-8.02561e-14
-7.46661e-14
-6.74173e-14
-5.77948e-14
-5.23597e-14
-4.67807e-14
-4.01102e-14
-3.31846e-14
-2.75331e-14
-1.6285e-14
-6.81173e-15
-9.99137e-16
-4.67537e-16
-6.8415e-13
-6.83434e-13
-6.76203e-13
-6.84554e-13
-6.84254e-13
-6.81475e-13
-6.75151e-13
-6.69052e-13
-6.63787e-13
-6.56251e-13
-6.52283e-13
-6.47765e-13
-6.46361e-13
-6.40593e-13
-6.35299e-13
-6.31649e-13
-6.26607e-13
-6.2003e-13
-6.09803e-13
-5.95595e-13
-5.77631e-13
-5.64494e-13
-5.56564e-13
-5.54056e-13
-5.48682e-13
-5.434e-13
-5.36801e-13
-5.30619e-13
-5.26899e-13
-5.22444e-13
-5.13794e-13
-5.01026e-13
-4.91096e-13
-4.8282e-13
-4.77912e-13
-4.67828e-13
-4.57561e-13
-4.51782e-13
-4.44901e-13
-4.34401e-13
-4.24451e-13
-4.20004e-13
-4.1496e-13
-4.08657e-13
-3.98707e-13
-3.89259e-13
-3.8226e-13
-3.7461e-13
-3.67552e-13
-3.6109e-13
-3.54587e-13
-3.48908e-13
-3.38466e-13
-3.29291e-13
-3.29855e-13
-3.29006e-13
-3.14814e-13
-3.00332e-13
-2.91254e-13
-2.84588e-13
-2.82404e-13
-2.79508e-13
-2.78293e-13
-2.68978e-13
-2.53072e-13
-2.44362e-13
-2.31572e-13
-2.29267e-13
-2.23424e-13
-2.17951e-13
-2.13173e-13
-2.11869e-13
-2.05458e-13
-1.90608e-13
-1.74925e-13
-1.61583e-13
-1.57386e-13
-1.59536e-13
-1.516e-13
-1.41916e-13
-1.35368e-13
-1.27686e-13
-1.1938e-13
-1.09098e-13
-9.86468e-14
-8.70125e-14
-8.06182e-14
-7.97296e-14
-7.27198e-14
-6.52278e-14
-5.76549e-14
-5.12955e-14
-4.40537e-14
-3.85742e-14
-3.36749e-14
-2.61732e-14
-1.63166e-14
-7.98218e-15
-5.9395e-17
1.02049e-15
-6.80791e-13
-6.89654e-13
-6.8419e-13
-6.7982e-13
-6.80464e-13
-6.79443e-13
-6.7471e-13
-6.73977e-13
-6.64876e-13
-6.52449e-13
-6.48135e-13
-6.47265e-13
-6.44908e-13
-6.423e-13
-6.38154e-13
-6.29339e-13
-6.19158e-13
-6.12305e-13
-6.06823e-13
-5.97458e-13
-5.9002e-13
-5.81854e-13
-5.70698e-13
-5.54321e-13
-5.40825e-13
-5.34196e-13
-5.3555e-13
-5.32225e-13
-5.27558e-13
-5.23731e-13
-5.1438e-13
-5.02545e-13
-4.88071e-13
-4.76045e-13
-4.6962e-13
-4.64574e-13
-4.63608e-13
-4.5761e-13
-4.45486e-13
-4.38188e-13
-4.26654e-13
-4.16958e-13
-4.13661e-13
-4.06645e-13
-3.97602e-13
-3.8889e-13
-3.79684e-13
-3.74886e-13
-3.70273e-13
-3.63237e-13
-3.55604e-13
-3.46946e-13
-3.40337e-13
-3.3316e-13
-3.2822e-13
-3.22632e-13
-3.1689e-13
-3.08771e-13
-3.00554e-13
-2.89816e-13
-2.81279e-13
-2.74867e-13
-2.69696e-13
-2.64391e-13
-2.54896e-13
-2.46621e-13
-2.37335e-13
-2.30246e-13
-2.23959e-13
-2.19372e-13
-2.15564e-13
-2.07543e-13
-1.99712e-13
-1.90815e-13
-1.77307e-13
-1.66456e-13
-1.57472e-13
-1.54624e-13
-1.50773e-13
-1.42805e-13
-1.3631e-13
-1.25765e-13
-1.1741e-13
-1.07618e-13
-9.70872e-14
-8.79859e-14
-8.29152e-14
-7.80274e-14
-7.32132e-14
-6.48322e-14
-5.79105e-14
-5.3613e-14
-4.62995e-14
-3.81901e-14
-2.94843e-14
-2.13946e-14
-1.49602e-14
-9.39134e-15
-2.50162e-15
5.21845e-16
-6.79706e-13
-6.83967e-13
-6.85116e-13
-6.80825e-13
-6.80392e-13
-6.81703e-13
-6.72054e-13
-6.62304e-13
-6.58007e-13
-6.56146e-13
-6.54155e-13
-6.51263e-13
-6.48285e-13
-6.43424e-13
-6.38408e-13
-6.30341e-13
-6.23773e-13
-6.20183e-13
-6.11563e-13
-5.96929e-13
-5.79229e-13
-5.65445e-13
-5.57724e-13
-5.49099e-13
-5.47802e-13
-5.45244e-13
-5.39632e-13
-5.31163e-13
-5.25724e-13
-5.23461e-13
-5.16695e-13
-5.05831e-13
-4.92794e-13
-4.76323e-13
-4.66036e-13
-4.64728e-13
-4.64513e-13
-4.58713e-13
-4.50878e-13
-4.39195e-13
-4.25062e-13
-4.1521e-13
-4.06948e-13
-4.02792e-13
-3.97721e-13
-3.9123e-13
-3.84125e-13
-3.75851e-13
-3.70067e-13
-3.6972e-13
-3.61952e-13
-3.45713e-13
-3.36045e-13
-3.2869e-13
-3.23486e-13
-3.21236e-13
-3.1722e-13
-3.07989e-13
-2.96092e-13
-2.87784e-13
-2.84137e-13
-2.79707e-13
-2.72962e-13
-2.64371e-13
-2.50981e-13
-2.41192e-13
-2.35593e-13
-2.32728e-13
-2.26979e-13
-2.19198e-13
-2.1276e-13
-2.0735e-13
-1.99843e-13
-1.89228e-13
-1.78224e-13
-1.63378e-13
-1.55576e-13
-1.53777e-13
-1.53146e-13
-1.47807e-13
-1.3918e-13
-1.28582e-13
-1.16787e-13
-1.04918e-13
-9.58845e-14
-8.80843e-14
-8.28108e-14
-7.6496e-14
-7.06311e-14
-6.38688e-14
-5.78788e-14
-5.24148e-14
-4.64533e-14
-3.82644e-14
-2.87403e-14
-1.92195e-14
-1.17559e-14
-6.61353e-15
-1.05776e-15
6.45078e-17
-6.78244e-13
-6.85865e-13
-6.86103e-13
-6.82171e-13
-6.79078e-13
-6.83788e-13
-6.80727e-13
-6.68106e-13
-6.51722e-13
-6.48724e-13
-6.48165e-13
-6.49658e-13
-6.48711e-13
-6.46596e-13
-6.41084e-13
-6.31276e-13
-6.21949e-13
-6.15115e-13
-6.03209e-13
-5.94494e-13
-5.86901e-13
-5.73601e-13
-5.62048e-13
-5.49194e-13
-5.47574e-13
-5.44979e-13
-5.41588e-13
-5.35409e-13
-5.26938e-13
-5.22252e-13
-5.1362e-13
-5.01829e-13
-4.91794e-13
-4.76932e-13
-4.64699e-13
-4.62648e-13
-4.63182e-13
-4.59485e-13
-4.50547e-13
-4.4001e-13
-4.2338e-13
-4.13517e-13
-4.10327e-13
-4.05535e-13
-3.98093e-13
-3.90309e-13
-3.86506e-13
-3.80028e-13
-3.70794e-13
-3.60574e-13
-3.53685e-13
-3.47929e-13
-3.3993e-13
-3.27584e-13
-3.27744e-13
-3.24547e-13
-3.16086e-13
-3.10005e-13
-3.02992e-13
-2.90051e-13
-2.82591e-13
-2.77028e-13
-2.68496e-13
-2.61109e-13
-2.50999e-13
-2.43263e-13
-2.33986e-13
-2.30333e-13
-2.23745e-13
-2.21914e-13
-2.14981e-13
-2.09968e-13
-2.02961e-13
-1.89214e-13
-1.75104e-13
-1.63335e-13
-1.58566e-13
-1.541e-13
-1.49703e-13
-1.44168e-13
-1.38106e-13
-1.29152e-13
-1.17237e-13
-1.05296e-13
-9.85838e-14
-9.01643e-14
-8.2857e-14
-7.67635e-14
-7.0964e-14
-6.22977e-14
-5.57331e-14
-5.00878e-14
-4.27171e-14
-3.47193e-14
-2.79982e-14
-2.29601e-14
-1.06746e-14
-3.40256e-15
1.77163e-15
7.87513e-16
-6.84126e-13
-6.83502e-13
-6.79611e-13
-6.75783e-13
-6.77815e-13
-6.72796e-13
-6.6933e-13
-6.70403e-13
-6.67273e-13
-6.60542e-13
-6.56244e-13
-6.48595e-13
-6.4315e-13
-6.41967e-13
-6.39372e-13
-6.33215e-13
-6.24779e-13
-6.21014e-13
-6.10219e-13
-5.94242e-13
-5.75856e-13
-5.64255e-13
-5.58186e-13
-5.56001e-13
-5.49005e-13
-5.45927e-13
-5.41507e-13
-5.34112e-13
-5.27593e-13
-5.21303e-13
-5.13758e-13
-5.01273e-13
-4.89449e-13
-4.76991e-13
-4.6797e-13
-4.65541e-13
-4.66703e-13
-4.59488e-13
-4.4904e-13
-4.38941e-13
-4.24455e-13
-4.118e-13
-4.0882e-13
-4.05552e-13
-4.01515e-13
-3.9117e-13
-3.81976e-13
-3.78807e-13
-3.74002e-13
-3.6338e-13
-3.53215e-13
-3.48158e-13
-3.41822e-13
-3.3071e-13
-3.23369e-13
-3.20164e-13
-3.13885e-13
-3.09128e-13
-3.03889e-13
-2.95211e-13
-2.84658e-13
-2.77404e-13
-2.68214e-13
-2.60924e-13
-2.5405e-13
-2.4442e-13
-2.34344e-13
-2.25348e-13
-2.2121e-13
-2.22345e-13
-2.13769e-13
-2.08253e-13
-2.01513e-13
-1.89829e-13
-1.78566e-13
-1.66563e-13
-1.55601e-13
-1.49769e-13
-1.49093e-13
-1.48611e-13
-1.41829e-13
-1.27459e-13
-1.15969e-13
-1.03087e-13
-9.81588e-14
-9.23534e-14
-8.52493e-14
-7.53085e-14
-6.66357e-14
-6.11286e-14
-5.55798e-14
-4.90122e-14
-4.38889e-14
-3.60866e-14
-2.72405e-14
-1.88937e-14
-1.11232e-14
-4.58065e-15
1.65159e-15
2.23495e-15
-6.8335e-13
-6.82396e-13
-6.79555e-13
-6.77025e-13
-6.8318e-13
-6.80674e-13
-6.69622e-13
-6.63542e-13
-6.59768e-13
-6.57426e-13
-6.56459e-13
-6.55432e-13
-6.44887e-13
-6.37486e-13
-6.35001e-13
-6.30441e-13
-6.26663e-13
-6.19526e-13
-6.08048e-13
-5.92292e-13
-5.79045e-13
-5.65826e-13
-5.56729e-13
-5.56278e-13
-5.55413e-13
-5.46035e-13
-5.38543e-13
-5.34415e-13
-5.31356e-13
-5.23886e-13
-5.1581e-13
-5.02461e-13
-4.88913e-13
-4.76168e-13
-4.65078e-13
-4.63976e-13
-4.61446e-13
-4.58602e-13
-4.52959e-13
-4.42024e-13
-4.27294e-13
-4.16351e-13
-4.09384e-13
-4.00337e-13
-3.98341e-13
-3.92278e-13
-3.85012e-13
-3.75791e-13
-3.69602e-13
-3.63785e-13
-3.54202e-13
-3.48178e-13
-3.41481e-13
-3.32094e-13
-3.29206e-13
-3.24274e-13
-3.12549e-13
-3.03631e-13
-3.00464e-13
-2.93193e-13
-2.86473e-13
-2.77004e-13
-2.69859e-13
-2.63073e-13
-2.54129e-13
-2.42731e-13
-2.36013e-13
-2.25879e-13
-2.17941e-13
-2.16407e-13
-2.1354e-13
-2.09012e-13
-2.02981e-13
-1.90156e-13
-1.77655e-13
-1.66771e-13
-1.58542e-13
-1.51408e-13
-1.51054e-13
-1.47257e-13
-1.39351e-13
-1.28587e-13
-1.17145e-13
-1.04858e-13
-9.66353e-14
-8.76725e-14
-8.10031e-14
-7.70052e-14
-7.09276e-14
-6.126e-14
-5.45469e-14
-4.74987e-14
-4.08892e-14
-3.36884e-14
-2.57374e-14
-2.00623e-14
-1.2596e-14
-3.13907e-15
2.16902e-15
3.70336e-16
-6.78516e-13
-6.80955e-13
-6.81028e-13
-6.79593e-13
-6.78208e-13
-6.72708e-13
-6.68782e-13
-6.65932e-13
-6.65115e-13
-6.62245e-13
-6.57769e-13
-6.53953e-13
-6.47659e-13
-6.39532e-13
-6.33863e-13
-6.27418e-13
-6.24608e-13
-6.17805e-13
-6.05933e-13
-5.94475e-13
-5.79635e-13
-5.66916e-13
-5.61588e-13
-5.56935e-13
-5.48659e-13
-5.44073e-13
-5.42226e-13
-5.38147e-13
-5.30715e-13
-5.20288e-13
-5.11533e-13
-5.01402e-13
-4.88593e-13
-4.77215e-13
-4.68036e-13
-4.68821e-13
-4.68115e-13
-4.60018e-13
-4.48638e-13
-4.35195e-13
-4.24905e-13
-4.19316e-13
-4.10809e-13
-4.01021e-13
-3.95881e-13
-3.89033e-13
-3.87108e-13
-3.85321e-13
-3.7419e-13
-3.60607e-13
-3.51734e-13
-3.49378e-13
-3.42425e-13
-3.31439e-13
-3.27304e-13
-3.23131e-13
-3.16025e-13
-3.06413e-13
-2.98839e-13
-2.91605e-13
-2.88689e-13
-2.80201e-13
-2.70726e-13
-2.62132e-13
-2.50738e-13
-2.42189e-13
-2.33673e-13
-2.27229e-13
-2.19313e-13
-2.14489e-13
-2.09805e-13
-2.09266e-13
-2.03988e-13
-1.90332e-13
-1.77763e-13
-1.66844e-13
-1.60428e-13
-1.54412e-13
-1.4686e-13
-1.38793e-13
-1.40824e-13
-1.34588e-13
-1.18336e-13
-1.05925e-13
-9.61659e-14
-8.56603e-14
-7.8898e-14
-7.60768e-14
-7.03482e-14
-6.12909e-14
-5.34517e-14
-4.81512e-14
-4.1281e-14
-3.25615e-14
-2.78138e-14
-1.86181e-14
-9.63072e-15
-1.86584e-15
2.99017e-15
-1.3379e-16
-6.84675e-13
-6.8197e-13
-6.79723e-13
-6.77066e-13
-6.72709e-13
-6.7062e-13
-6.67918e-13
-6.68107e-13
-6.66455e-13
-6.62961e-13
-6.568e-13
-6.53066e-13
-6.48034e-13
-6.42361e-13
-6.35402e-13
-6.26124e-13
-6.1673e-13
-6.10772e-13
-6.05914e-13
-5.98551e-13
-5.82324e-13
-5.70728e-13
-5.62222e-13
-5.54778e-13
-5.50327e-13
-5.46201e-13
-5.42832e-13
-5.3912e-13
-5.29127e-13
-5.22651e-13
-5.12903e-13
-5.00711e-13
-4.87307e-13
-4.75154e-13
-4.7038e-13
-4.68764e-13
-4.65327e-13
-4.5863e-13
-4.48154e-13
-4.36944e-13
-4.25507e-13
-4.16498e-13
-4.11656e-13
-4.05532e-13
-4.00098e-13
-3.93288e-13
-3.83882e-13
-3.77116e-13
-3.72733e-13
-3.64557e-13
-3.58263e-13
-3.49361e-13
-3.40516e-13
-3.32598e-13
-3.26443e-13
-3.18708e-13
-3.14928e-13
-3.08254e-13
-2.99177e-13
-2.92424e-13
-2.89507e-13
-2.8259e-13
-2.71655e-13
-2.60472e-13
-2.51663e-13
-2.42737e-13
-2.33304e-13
-2.25691e-13
-2.19286e-13
-2.14656e-13
-2.11741e-13
-2.10176e-13
-2.02949e-13
-1.87929e-13
-1.76739e-13
-1.66789e-13
-1.59719e-13
-1.53326e-13
-1.49439e-13
-1.44336e-13
-1.37415e-13
-1.29304e-13
-1.1899e-13
-1.08389e-13
-1.00588e-13
-8.67894e-14
-7.81296e-14
-7.30838e-14
-6.94699e-14
-5.84934e-14
-5.0979e-14
-4.73438e-14
-4.48707e-14
-3.37348e-14
-2.353e-14
-1.757e-14
-1.07292e-14
8.08421e-17
1.62122e-15
-1.06068e-15
-6.86813e-13
-6.81027e-13
-6.7577e-13
-6.75948e-13
-6.69112e-13
-6.70182e-13
-6.68262e-13
-6.69385e-13
-6.6928e-13
-6.61155e-13
-6.56002e-13
-6.53986e-13
-6.52265e-13
-6.44049e-13
-6.35522e-13
-6.28755e-13
-6.21144e-13
-6.1084e-13
-6.04287e-13
-5.92242e-13
-5.825e-13
-5.71038e-13
-5.59541e-13
-5.53113e-13
-5.49223e-13
-5.49655e-13
-5.4367e-13
-5.37956e-13
-5.29212e-13
-5.21719e-13
-5.13276e-13
-5.02808e-13
-4.87737e-13
-4.77387e-13
-4.68944e-13
-4.65238e-13
-4.6418e-13
-4.59012e-13
-4.48825e-13
-4.37406e-13
-4.28767e-13
-4.19285e-13
-4.10748e-13
-4.0429e-13
-3.98381e-13
-3.91876e-13
-3.84482e-13
-3.79583e-13
-3.74925e-13
-3.65734e-13
-3.55488e-13
-3.45681e-13
-3.40135e-13
-3.34861e-13
-3.29429e-13
-3.23261e-13
-3.15992e-13
-3.06993e-13
-3.01331e-13
-2.96482e-13
-2.91088e-13
-2.81632e-13
-2.68406e-13
-2.58989e-13
-2.49971e-13
-2.41263e-13
-2.31875e-13
-2.26477e-13
-2.19261e-13
-2.179e-13
-2.12895e-13
-2.0656e-13
-1.97091e-13
-1.85745e-13
-1.75446e-13
-1.65132e-13
-1.63004e-13
-1.59865e-13
-1.50511e-13
-1.41414e-13
-1.34609e-13
-1.2723e-13
-1.17961e-13
-1.07243e-13
-9.58232e-14
-8.39409e-14
-7.91847e-14
-7.52289e-14
-6.82914e-14
-6.34355e-14
-5.77865e-14
-4.72372e-14
-3.85126e-14
-3.18236e-14
-2.35471e-14
-1.51017e-14
-8.61459e-15
-4.8119e-15
-1.59997e-15
-1.39359e-15
-6.84611e-13
-6.79418e-13
-6.77503e-13
-6.75381e-13
-6.72933e-13
-6.69799e-13
-6.65415e-13
-6.68325e-13
-6.68534e-13
-6.6459e-13
-6.58802e-13
-6.5306e-13
-6.51371e-13
-6.42653e-13
-6.32713e-13
-6.23613e-13
-6.15495e-13
-6.11285e-13
-6.05062e-13
-5.94825e-13
-5.83812e-13
-5.72587e-13
-5.62079e-13
-5.56614e-13
-5.53979e-13
-5.47541e-13
-5.40788e-13
-5.32722e-13
-5.25529e-13
-5.21875e-13
-5.142e-13
-5.07125e-13
-4.95537e-13
-4.83898e-13
-4.67441e-13
-4.61963e-13
-4.60054e-13
-4.55806e-13
-4.47956e-13
-4.3742e-13
-4.30534e-13
-4.19716e-13
-4.13237e-13
-4.03103e-13
-3.9895e-13
-3.93007e-13
-3.88727e-13
-3.81079e-13
-3.7147e-13
-3.5928e-13
-3.5447e-13
-3.51016e-13
-3.43796e-13
-3.31672e-13
-3.24995e-13
-3.18779e-13
-3.1158e-13
-3.09816e-13
-3.02439e-13
-3.0032e-13
-2.9953e-13
-2.79291e-13
-2.66564e-13
-2.60636e-13
-2.52808e-13
-2.43572e-13
-2.34135e-13
-2.27406e-13
-2.16813e-13
-2.12615e-13
-2.08738e-13
-2.09225e-13
-2.01535e-13
-1.88806e-13
-1.73278e-13
-1.61343e-13
-1.62375e-13
-1.58352e-13
-1.50037e-13
-1.4399e-13
-1.36612e-13
-1.27595e-13
-1.16408e-13
-1.05808e-13
-9.66843e-14
-8.53256e-14
-7.82826e-14
-7.51804e-14
-6.92732e-14
-5.93279e-14
-5.21834e-14
-4.685e-14
-3.89783e-14
-3.14052e-14
-2.68845e-14
-2.08184e-14
-8.86508e-15
-1.9388e-15
2.83116e-15
-7.15864e-17
-6.79367e-13
-6.81353e-13
-6.81085e-13
-6.7517e-13
-6.70419e-13
-6.70795e-13
-6.69333e-13
-6.65699e-13
-6.66559e-13
-6.63425e-13
-6.60423e-13
-6.56493e-13
-6.49752e-13
-6.41242e-13
-6.33583e-13
-6.26925e-13
-6.22551e-13
-6.17815e-13
-6.07371e-13
-5.9267e-13
-5.76069e-13
-5.63151e-13
-5.59083e-13
-5.58865e-13
-5.55175e-13
-5.47063e-13
-5.37982e-13
-5.32919e-13
-5.25493e-13
-5.22969e-13
-5.17972e-13
-5.04103e-13
-4.91041e-13
-4.82016e-13
-4.73462e-13
-4.67685e-13
-4.62264e-13
-4.54692e-13
-4.47353e-13
-4.38821e-13
-4.28947e-13
-4.1934e-13
-4.10265e-13
-4.05393e-13
-4.03785e-13
-3.94727e-13
-3.86685e-13
-3.75463e-13
-3.72676e-13
-3.65617e-13
-3.54314e-13
-3.49683e-13
-3.43107e-13
-3.34847e-13
-3.2816e-13
-3.15851e-13
-3.05199e-13
-3.07924e-13
-3.10398e-13
-3.01939e-13
-2.92118e-13
-2.81344e-13