/*--------------------------------*- C++ -*----------------------------------*\
| =========                 |                                                 |
| \\      /  F ield         | OpenFOAM: The Open Source CFD Toolbox           |
|  \\    /   O peration     | Version:  v2012                                 |
|   \\  /    A nd           | Website:  www.openfoam.com                      |
|    \\/     M anipulation  |                                                 |
\*---------------------------------------------------------------------------*/
FoamFile
{
    version     2.0;
    format      ascii;
    class       volScalarField;
    location    "0";
    object      pRec;
}
// * * * * * * * * * * * * * * * * * * * * * * * * * * * * * * * * * * * * * //

dimensions      [0 2 -2 0 0 0 0];


internalField   nonuniform List<scalar> 
4000
(
-6.92949e-13
-6.87319e-13
-6.88552e-13
-6.91529e-13
-6.89326e-13
-6.90065e-13
-6.88566e-13
-6.83423e-13
-6.73245e-13
-6.6922e-13
-6.70311e-13
-6.64755e-13
-6.54146e-13
-6.40186e-13
-6.26321e-13
-6.19863e-13
-6.15378e-13
-6.12748e-13
-6.05332e-13
-5.91789e-13
-5.80852e-13
-5.73706e-13
-5.68433e-13
-5.60885e-13
-5.50167e-13
-5.39277e-13
-5.3726e-13
-5.3176e-13
-5.2537e-13
-5.14194e-13
-4.98117e-13
-4.91125e-13
-4.89168e-13
-4.87269e-13
-4.82363e-13
-4.79366e-13
-4.70015e-13
-4.51466e-13
-4.33921e-13
-4.30243e-13
-4.30927e-13
-4.29311e-13
-4.29584e-13
-4.23432e-13
-4.1227e-13
-4.03342e-13
-3.94524e-13
-3.8526e-13
-3.76065e-13
-3.6837e-13
-3.59625e-13
-3.51641e-13
-3.44355e-13
-3.35588e-13
-3.27485e-13
-3.14885e-13
-3.07931e-13
-3.05148e-13
-3.02753e-13
-2.99819e-13
-2.91705e-13
-2.84547e-13
-2.74485e-13
-2.62553e-13
-2.5441e-13
-2.47136e-13
-2.42821e-13
-2.34644e-13
-2.23914e-13
-2.16435e-13
-2.09066e-13
-2.02127e-13
-1.89087e-13
-1.82061e-13
-1.80921e-13
-1.76653e-13
-1.72857e-13
-1.66499e-13
-1.57345e-13
-1.4422e-13
-1.31561e-13
-1.25847e-13
-1.17235e-13
-1.1293e-13
-1.08384e-13
-1.02685e-13
-9.34533e-14
-8.55677e-14
-8.21762e-14
-7.8176e-14
-7.21585e-14
-6.56931e-14
-5.87751e-14
-5.33528e-14
-4.42555e-14
-3.52296e-14
-2.73461e-14
-1.94165e-14
-1.08947e-14
-2.65236e-15
-6.89491e-13
-6.88203e-13
-6.91381e-13
-6.91293e-13
-6.91958e-13
-6.8868e-13
-6.85651e-13
-6.83283e-13
-6.77801e-13
-6.72644e-13
-6.66755e-13
-6.61394e-13
-6.52305e-13
-6.40729e-13
-6.2963e-13
-6.23116e-13
-6.18214e-13
-6.11273e-13
-6.02407e-13
-5.95065e-13
-5.84408e-13
-5.72324e-13
-5.64568e-13
-5.57622e-13
-5.47986e-13
-5.4188e-13
-5.38526e-13
-5.32556e-13
-5.24165e-13
-5.10532e-13
-5.01269e-13
-4.94564e-13
-4.88588e-13
-4.84023e-13
-4.79761e-13
-4.75601e-13
-4.68061e-13
-4.55087e-13
-4.40853e-13
-4.34437e-13
-4.30803e-13
-4.28706e-13
-4.26307e-13
-4.21464e-13
-4.13789e-13
-4.03525e-13
-3.93116e-13
-3.85185e-13
-3.7627e-13
-3.65925e-13
-3.58522e-13
-3.50731e-13
-3.44383e-13
-3.36796e-13
-3.28697e-13
-3.17627e-13
-3.07735e-13
-3.03353e-13
-3.01017e-13
-2.98363e-13
-2.93938e-13
-2.84602e-13
-2.75513e-13
-2.64322e-13
-2.56158e-13
-2.47013e-13
-2.40337e-13
-2.33747e-13
-2.26106e-13
-2.17893e-13
-2.09336e-13
-2.02144e-13
-1.94028e-13
-1.85231e-13
-1.80703e-13
-1.73169e-13
-1.71436e-13
-1.64262e-13
-1.54348e-13
-1.42451e-13
-1.3259e-13
-1.27295e-13
-1.21167e-13
-1.15278e-13
-1.06483e-13
-1.00388e-13
-9.15509e-14
-8.35397e-14
-8.04723e-14
-7.67197e-14
-7.36769e-14
-6.82552e-14
-6.25289e-14
-5.13934e-14
-4.27414e-14
-3.59485e-14
-2.69168e-14
-1.95545e-14
-1.2483e-14
-4.46445e-15
-6.89058e-13
-6.88087e-13
-6.90278e-13
-6.93466e-13
-6.94435e-13
-6.89973e-13
-6.84743e-13
-6.8214e-13
-6.76055e-13
-6.72272e-13
-6.67247e-13
-6.60729e-13
-6.51865e-13
-6.4204e-13
-6.31516e-13
-6.23786e-13
-6.17619e-13
-6.10549e-13
-6.02859e-13
-5.93889e-13
-5.83279e-13
-5.74105e-13
-5.65457e-13
-5.58438e-13
-5.4983e-13
-5.44335e-13
-5.39493e-13
-5.31384e-13
-5.21839e-13
-5.08583e-13
-5.01786e-13
-4.94865e-13
-4.8856e-13
-4.85635e-13
-4.81644e-13
-4.76831e-13
-4.66738e-13
-4.56664e-13
-4.45645e-13
-4.34642e-13
-4.29921e-13
-4.25409e-13
-4.25793e-13
-4.22004e-13
-4.14813e-13
-4.03829e-13
-3.91823e-13
-3.82389e-13
-3.77017e-13
-3.71855e-13
-3.60539e-13
-3.51085e-13
-3.42067e-13
-3.33689e-13
-3.26815e-13
-3.18587e-13
-3.08033e-13
-3.05612e-13
-3.05745e-13
-2.99856e-13
-2.91665e-13
-2.79622e-13
-2.7139e-13
-2.65634e-13
-2.58967e-13
-2.50704e-13
-2.43164e-13
-2.32687e-13
-2.24718e-13
-2.14767e-13
-2.0637e-13
-1.99504e-13
-1.90553e-13
-1.84684e-13
-1.80243e-13
-1.75586e-13
-1.70361e-13
-1.64281e-13
-1.53828e-13
-1.43301e-13
-1.37816e-13
-1.29349e-13
-1.17239e-13
-1.11565e-13
-1.06161e-13
-1.0272e-13
-9.6377e-14
-8.6996e-14
-8.03634e-14
-7.46849e-14
-7.11689e-14
-6.77149e-14
-6.07032e-14
-5.23717e-14
-4.20866e-14
-3.33764e-14
-2.75225e-14
-2.05628e-14
-1.61943e-14
-5.16013e-15
-6.90144e-13
-6.91237e-13
-6.92046e-13
-6.88186e-13
-6.92682e-13
-6.8704e-13
-6.84781e-13
-6.8239e-13
-6.80165e-13
-6.74601e-13
-6.65404e-13
-6.55977e-13
-6.4819e-13
-6.42726e-13
-6.40303e-13
-6.30002e-13
-6.15664e-13
-6.07188e-13
-6.01932e-13
-5.92793e-13
-5.83789e-13
-5.7601e-13
-5.66154e-13
-5.52425e-13
-5.45238e-13
-5.42006e-13
-5.38709e-13
-5.33319e-13
-5.2181e-13
-5.12735e-13
-5.05877e-13
-4.97863e-13
-4.89334e-13
-4.83613e-13
-4.77272e-13
-4.76281e-13
-4.67066e-13
-4.55222e-13
-4.46783e-13
-4.37337e-13
-4.33251e-13
-4.30473e-13
-4.25566e-13
-4.19135e-13
-4.09761e-13
-4.00045e-13
-3.91652e-13
-3.8624e-13
-3.78267e-13
-3.65474e-13
-3.56031e-13
-3.5012e-13
-3.44215e-13
-3.37775e-13
-3.2616e-13
-3.19557e-13
-3.10266e-13
-3.05219e-13
-3.04661e-13
-2.98512e-13
-2.89991e-13
-2.81018e-13
-2.75622e-13
-2.68098e-13
-2.58422e-13
-2.49712e-13
-2.41948e-13
-2.32716e-13
-2.25343e-13
-2.17221e-13
-2.10175e-13
-2.0285e-13
-1.93694e-13
-1.86123e-13
-1.79724e-13
-1.74132e-13
-1.70632e-13
-1.6354e-13
-1.5371e-13
-1.43914e-13
-1.36653e-13
-1.3002e-13
-1.1942e-13
-1.0996e-13
-1.05322e-13
-1.00577e-13
-9.40448e-14
-8.64045e-14
-7.90767e-14
-7.51917e-14
-7.32648e-14
-6.80941e-14
-6.24724e-14
-5.09726e-14
-4.20301e-14
-3.58685e-14
-2.91402e-14
-1.97157e-14
-1.29419e-14
-4.77218e-15
-6.91189e-13
-6.95594e-13
-6.92043e-13
-6.87364e-13
-6.83808e-13
-6.87502e-13
-6.87631e-13
-6.85763e-13
-6.79214e-13
-6.71514e-13
-6.63022e-13
-6.57636e-13
-6.47747e-13
-6.40497e-13
-6.39165e-13
-6.33238e-13
-6.22569e-13
-6.11837e-13
-5.99348e-13
-5.87516e-13
-5.82648e-13
-5.75047e-13
-5.60779e-13
-5.51428e-13
-5.48442e-13
-5.44939e-13
-5.40336e-13
-5.32188e-13
-5.24105e-13
-5.15144e-13
-5.0655e-13
-4.99022e-13
-4.9001e-13
-4.84126e-13
-4.78353e-13
-4.75516e-13
-4.65984e-13
-4.55178e-13
-4.4429e-13
-4.3697e-13
-4.33346e-13
-4.32571e-13
-4.25807e-13
-4.17638e-13
-4.07537e-13
-3.97634e-13
-3.90245e-13
-3.84673e-13
-3.77093e-13
-3.69161e-13
-3.59733e-13
-3.52845e-13
-3.45e-13
-3.37095e-13
-3.26653e-13
-3.1808e-13
-3.11522e-13
-3.06732e-13
-3.03799e-13
-2.97108e-13
-2.89789e-13
-2.81546e-13
-2.73265e-13
-2.67162e-13
-2.61582e-13
-2.54982e-13
-2.46821e-13
-2.34106e-13
-2.25081e-13
-2.14629e-13
-2.0647e-13
-2.00058e-13
-1.93512e-13
-1.86276e-13
-1.76426e-13
-1.71117e-13
-1.69049e-13
-1.63232e-13
-1.56107e-13
-1.45925e-13
-1.37933e-13
-1.32168e-13
-1.19493e-13
-1.09076e-13
-1.0201e-13
-9.73375e-14
-9.37522e-14
-8.91828e-14
-8.14163e-14
-7.66328e-14
-7.21709e-14
-6.77566e-14
-6.02341e-14
-5.46677e-14
-4.66732e-14
-3.6333e-14
-2.91474e-14
-2.19935e-14
-1.25026e-14
-2.27704e-15
-6.87748e-13
-6.97175e-13
-6.9364e-13
-6.84545e-13
-6.8843e-13
-6.92011e-13
-6.90148e-13
-6.85836e-13
-6.77423e-13
-6.64118e-13
-6.60338e-13
-6.56436e-13
-6.5245e-13
-6.42513e-13
-6.35794e-13
-6.34932e-13
-6.24277e-13
-6.14431e-13
-6.04337e-13
-5.90716e-13
-5.80042e-13
-5.68737e-13
-5.51662e-13
-5.48008e-13
-5.49054e-13
-5.48276e-13
-5.40303e-13
-5.3118e-13
-5.23101e-13
-5.18176e-13
-5.08021e-13
-4.98505e-13
-4.90208e-13
-4.87242e-13
-4.83921e-13
-4.74308e-13
-4.63625e-13
-4.5497e-13
-4.44372e-13
-4.39443e-13
-4.36103e-13
-4.33011e-13
-4.2409e-13
-4.17986e-13
-4.07754e-13
-3.95824e-13
-3.86459e-13
-3.81013e-13
-3.77275e-13
-3.69063e-13
-3.61831e-13
-3.52257e-13
-3.43569e-13
-3.3472e-13
-3.25189e-13
-3.19622e-13
-3.14265e-13
-3.08055e-13
-3.0213e-13
-2.97797e-13
-2.91948e-13
-2.82462e-13
-2.74094e-13
-2.6704e-13
-2.5797e-13
-2.53132e-13
-2.4753e-13
-2.35328e-13
-2.26099e-13
-2.17834e-13
-2.08068e-13
-2.00299e-13
-1.94852e-13
-1.88103e-13
-1.78325e-13
-1.73652e-13
-1.67748e-13
-1.59942e-13
-1.55063e-13
-1.4826e-13
-1.40719e-13
-1.31261e-13
-1.17185e-13
-1.06886e-13
-1.02724e-13
-9.96268e-14
-9.58062e-14
-8.7172e-14
-8.04707e-14
-7.61467e-14
-7.17981e-14
-6.79286e-14
-5.85227e-14
-5.38088e-14
-4.67214e-14
-3.95004e-14
-2.93473e-14
-2.08564e-14
-1.04943e-14
-1.08483e-15
-6.92977e-13
-6.9375e-13
-6.93048e-13
-6.89656e-13
-6.86842e-13
-6.90421e-13
-6.89695e-13
-6.83479e-13
-6.7537e-13
-6.64727e-13
-6.56463e-13
-6.55616e-13
-6.54557e-13
-6.4378e-13
-6.37067e-13
-6.32144e-13
-6.28307e-13
-6.1974e-13
-6.0136e-13
-5.83415e-13
-5.67626e-13
-5.6356e-13
-5.61867e-13
-5.59374e-13
-5.54275e-13
-5.47757e-13
-5.37283e-13
-5.28678e-13
-5.24747e-13
-5.20113e-13
-5.11031e-13
-4.97505e-13
-4.91316e-13
-4.8314e-13
-4.77993e-13
-4.71944e-13
-4.65605e-13
-4.60192e-13
-4.49462e-13
-4.38063e-13
-4.31385e-13
-4.26759e-13
-4.22195e-13
-4.18116e-13
-4.11399e-13
-4.00937e-13
-3.89411e-13
-3.80068e-13
-3.73946e-13
-3.68747e-13
-3.61482e-13
-3.5563e-13
-3.46717e-13
-3.35204e-13
-3.26753e-13
-3.20692e-13
-3.13861e-13
-3.0251e-13
-2.98068e-13
-2.97094e-13
-2.96435e-13
-2.88152e-13
-2.76531e-13
-2.6454e-13
-2.54958e-13
-2.49592e-13
-2.41998e-13
-2.30916e-13
-2.21697e-13
-2.17204e-13
-2.16484e-13
-2.06582e-13
-1.96122e-13
-1.90959e-13
-1.81326e-13
-1.71795e-13
-1.63645e-13
-1.56124e-13
-1.5079e-13
-1.46469e-13
-1.39779e-13
-1.30477e-13
-1.22297e-13
-1.13145e-13
-1.06383e-13
-9.62001e-14
-9.27398e-14
-8.88891e-14
-8.10925e-14
-7.78669e-14
-7.12988e-14
-6.33062e-14
-5.88025e-14
-5.32064e-14
-4.68626e-14
-3.71202e-14
-2.90801e-14
-1.93672e-14
-1.05384e-14
-3.39999e-15
-6.92171e-13
-6.91723e-13
-6.89552e-13
-6.90562e-13
-6.93172e-13
-6.92778e-13
-6.89382e-13
-6.8241e-13
-6.73633e-13
-6.66068e-13
-6.6023e-13
-6.54641e-13
-6.50857e-13
-6.41585e-13
-6.37566e-13
-6.32099e-13
-6.28297e-13
-6.19135e-13
-5.96398e-13
-5.84956e-13
-5.8048e-13
-5.73342e-13
-5.62672e-13
-5.53082e-13
-5.5025e-13
-5.43652e-13
-5.32854e-13
-5.26898e-13
-5.2211e-13
-5.17403e-13
-5.10939e-13
-5.03192e-13
-4.97215e-13
-4.90662e-13
-4.78983e-13
-4.70952e-13
-4.64179e-13
-4.55302e-13
-4.47352e-13
-4.38346e-13
-4.32561e-13
-4.30201e-13
-4.23336e-13
-4.21832e-13
-4.16264e-13
-4.01174e-13
-3.85614e-13
-3.72205e-13
-3.71464e-13
-3.70492e-13
-3.66434e-13
-3.59133e-13
-3.46577e-13
-3.35198e-13
-3.24103e-13
-3.17755e-13
-3.1434e-13
-3.08678e-13
-3.00198e-13
-2.94284e-13
-2.9191e-13
-2.84908e-13
-2.77504e-13
-2.69017e-13
-2.60605e-13
-2.51737e-13
-2.42859e-13
-2.32814e-13
-2.26664e-13
-2.19579e-13
-2.12191e-13
-2.0655e-13
-1.95026e-13
-1.82547e-13
-1.75462e-13
-1.72096e-13
-1.67558e-13
-1.59985e-13
-1.55532e-13
-1.49439e-13
-1.4047e-13
-1.30683e-13
-1.18573e-13
-1.07758e-13
-9.93854e-14
-9.56826e-14
-9.37021e-14
-9.04109e-14
-8.31516e-14
-7.63163e-14
-6.89004e-14
-6.35379e-14
-5.91438e-14
-5.44575e-14
-4.52892e-14
-3.54908e-14
-2.89421e-14
-2.08519e-14
-1.19328e-14
-1.80743e-15
-6.94497e-13
-6.9624e-13
-6.91122e-13
-6.84865e-13
-6.88729e-13
-6.916e-13
-6.91409e-13
-6.83548e-13
-6.71063e-13
-6.67742e-13
-6.61138e-13
-6.51209e-13
-6.4498e-13
-6.41489e-13
-6.38778e-13
-6.34614e-13
-6.27994e-13
-6.16909e-13
-6.0034e-13
-5.87123e-13
-5.79253e-13
-5.70851e-13
-5.66445e-13
-5.59333e-13
-5.50229e-13
-5.40262e-13
-5.31986e-13
-5.27023e-13
-5.25407e-13
-5.1833e-13
-5.11832e-13
-5.04421e-13
-4.93852e-13
-4.83556e-13
-4.7937e-13
-4.72142e-13
-4.63382e-13
-4.54558e-13
-4.49495e-13
-4.43984e-13
-4.38872e-13
-4.31854e-13
-4.20182e-13
-4.12375e-13
-4.08873e-13
-4.01914e-13
-3.91019e-13
-3.81075e-13
-3.74726e-13
-3.67987e-13
-3.61468e-13
-3.54625e-13
-3.45079e-13
-3.36452e-13
-3.28484e-13
-3.23466e-13
-3.15406e-13
-3.08569e-13
-3.00893e-13
-2.95247e-13
-2.88936e-13
-2.82207e-13
-2.76041e-13
-2.6838e-13
-2.57788e-13
-2.47567e-13
-2.41455e-13
-2.33614e-13
-2.25782e-13
-2.18528e-13
-2.10755e-13
-2.06965e-13
-1.99123e-13
-1.88953e-13
-1.77648e-13
-1.72388e-13
-1.68452e-13
-1.61496e-13
-1.55932e-13
-1.46878e-13
-1.40817e-13
-1.31451e-13
-1.18843e-13
-1.09231e-13
-1.01644e-13
-9.63856e-14
-9.44642e-14
-8.96049e-14
-8.25614e-14
-7.62386e-14
-6.85047e-14
-6.26834e-14
-5.60793e-14
-5.14196e-14
-4.48649e-14
-3.63742e-14
-2.75923e-14
-1.70777e-14
-7.92769e-15
9.80277e-16
-6.94407e-13
-6.93693e-13
-6.93663e-13
-6.90476e-13
-6.87083e-13
-6.89416e-13
-6.88038e-13
-6.86182e-13
-6.78273e-13
-6.63912e-13
-6.55598e-13
-6.48324e-13
-6.46007e-13
-6.44413e-13
-6.40381e-13
-6.33851e-13
-6.23988e-13
-6.17218e-13
-6.0757e-13
-5.91969e-13
-5.79332e-13
-5.66571e-13
-5.61329e-13
-5.54396e-13
-5.51569e-13
-5.4539e-13
-5.35389e-13
-5.29595e-13
-5.23879e-13
-5.18363e-13
-5.12792e-13
-5.04307e-13
-4.94111e-13
-4.82675e-13
-4.76129e-13
-4.70533e-13
-4.65948e-13
-4.55885e-13
-4.50344e-13
-4.44791e-13
-4.35268e-13
-4.26034e-13
-4.19347e-13
-4.12794e-13
-4.11566e-13
-4.06414e-13
-3.95382e-13
-3.83244e-13
-3.74972e-13
-3.65572e-13
-3.58476e-13
-3.54334e-13
-3.46588e-13
-3.37602e-13
-3.2907e-13
-3.21597e-13
-3.14748e-13
-3.07549e-13
-3.00749e-13
-2.97314e-13
-2.92633e-13
-2.88714e-13
-2.8151e-13
-2.6886e-13
-2.54541e-13
-2.40504e-13
-2.3348e-13
-2.28612e-13
-2.25006e-13
-2.24768e-13
-2.18524e-13
-2.09294e-13
-2.01889e-13
-1.91316e-13
-1.78697e-13
-1.69579e-13
-1.65119e-13
-1.59373e-13
-1.55138e-13
-1.46526e-13
-1.40036e-13
-1.317e-13
-1.20639e-13
-1.12736e-13
-1.03651e-13
-9.52415e-14
-9.10393e-14
-8.54531e-14
-8.16933e-14
-7.66292e-14
-6.70496e-14
-5.83841e-14
-5.30384e-14
-4.85914e-14
-4.04079e-14
-3.1901e-14
-2.37602e-14
-1.52348e-14
-5.84038e-15
6.97774e-17
-6.92629e-13
-6.9192e-13
-6.91008e-13
-6.92428e-13
-6.92693e-13
-6.8723e-13
-6.85245e-13
-6.82348e-13
-6.76347e-13
-6.6915e-13
-6.5636e-13
-6.46849e-13
-6.45838e-13
-6.45904e-13
-6.40749e-13
-6.36354e-13
-6.23733e-13
-6.15455e-13
-6.07165e-13
-5.9316e-13
-5.83477e-13
-5.67844e-13
-5.57635e-13
-5.53092e-13
-5.47258e-13
-5.42295e-13
-5.37848e-13
-5.31281e-13
-5.25704e-13
-5.20311e-13
-5.1196e-13
-5.02979e-13
-4.92935e-13
-4.8483e-13
-4.80223e-13
-4.72186e-13
-4.63623e-13
-4.56119e-13
-4.51859e-13
-4.43086e-13
-4.35117e-13
-4.2583e-13
-4.19606e-13
-4.17346e-13
-4.14601e-13
-4.04867e-13
-3.92257e-13
-3.79406e-13
-3.71761e-13
-3.64111e-13
-3.6142e-13
-3.56292e-13
-3.46091e-13
-3.37085e-13
-3.27787e-13
-3.2465e-13
-3.17641e-13
-3.09897e-13
-2.99966e-13
-2.91124e-13
-2.89176e-13
-2.81397e-13
-2.76097e-13
-2.71508e-13
-2.57554e-13
-2.43402e-13
-2.33601e-13
-2.27802e-13
-2.25494e-13
-2.27764e-13
-2.19645e-13
-2.11917e-13
-2.02558e-13
-1.90476e-13
-1.76576e-13
-1.65719e-13
-1.64724e-13
-1.62886e-13
-1.58832e-13
-1.50202e-13
-1.43898e-13
-1.35283e-13
-1.20348e-13
-1.09182e-13
-9.86997e-14
-8.96159e-14
-9.17709e-14
-8.99698e-14
-8.20845e-14
-7.5077e-14
-6.51862e-14
-5.89281e-14
-5.25464e-14
-4.65848e-14
-4.21438e-14
-3.51677e-14
-2.01211e-14
-6.48527e-15
1.79209e-15
-1.23497e-15
-6.95689e-13
-6.93777e-13
-6.91543e-13
-6.93114e-13
-6.91707e-13
-6.86527e-13
-6.86707e-13
-6.8326e-13
-6.75844e-13
-6.66366e-13
-6.57902e-13
-6.50148e-13
-6.42241e-13
-6.39188e-13
-6.36032e-13
-6.30316e-13
-6.26871e-13
-6.20871e-13
-6.09471e-13
-5.94628e-13
-5.827e-13
-5.74792e-13
-5.63849e-13
-5.53973e-13
-5.47383e-13
-5.36749e-13
-5.33414e-13
-5.30642e-13
-5.27063e-13
-5.22691e-13
-5.14153e-13
-5.03749e-13
-4.91878e-13
-4.82348e-13
-4.76848e-13
-4.69928e-13
-4.65643e-13
-4.59039e-13
-4.54121e-13
-4.41694e-13
-4.3374e-13
-4.2294e-13
-4.19259e-13
-4.19625e-13
-4.12926e-13
-4.04676e-13
-3.93118e-13
-3.82876e-13
-3.72938e-13
-3.63917e-13
-3.57493e-13
-3.54428e-13
-3.46156e-13
-3.40122e-13
-3.32901e-13
-3.23523e-13
-3.15904e-13
-3.07694e-13
-2.9963e-13
-2.93776e-13
-2.91593e-13
-2.91458e-13
-2.80771e-13
-2.68366e-13
-2.49817e-13
-2.40035e-13
-2.33507e-13
-2.30133e-13
-2.25354e-13
-2.22943e-13
-2.16688e-13
-2.15356e-13
-2.091e-13
-1.96171e-13
-1.75416e-13
-1.58964e-13
-1.57781e-13
-1.63794e-13
-1.60784e-13
-1.50233e-13
-1.4279e-13
-1.32371e-13
-1.22322e-13
-1.13705e-13
-1.03243e-13
-9.25645e-14
-8.65573e-14
-8.57601e-14
-8.0455e-14
-7.36221e-14
-6.31208e-14
-5.82229e-14
-5.24041e-14
-4.52942e-14
-3.761e-14
-3.12437e-14
-1.89993e-14
-8.06547e-15
-1.89135e-15
-1.32075e-15
-6.93316e-13
-6.92964e-13
-6.85183e-13
-6.9429e-13
-6.93929e-13
-6.90829e-13
-6.84525e-13
-6.77708e-13
-6.70932e-13
-6.61387e-13
-6.56664e-13
-6.51584e-13
-6.50515e-13
-6.44314e-13
-6.37958e-13
-6.33958e-13
-6.29028e-13
-6.22198e-13
-6.10233e-13
-5.95586e-13
-5.76444e-13
-5.6251e-13
-5.53509e-13
-5.519e-13
-5.4738e-13
-5.42818e-13
-5.36334e-13
-5.30078e-13
-5.27786e-13
-5.25004e-13
-5.17336e-13
-5.04475e-13
-4.9448e-13
-4.86451e-13
-4.8212e-13
-4.7197e-13
-4.62357e-13
-4.57544e-13
-4.51649e-13
-4.41609e-13
-4.32196e-13
-4.28267e-13
-4.23927e-13
-4.18107e-13
-4.07278e-13
-3.98072e-13
-3.90986e-13
-3.83242e-13
-3.74979e-13
-3.67742e-13
-3.61109e-13
-3.54901e-13
-3.43774e-13
-3.33814e-13
-3.35354e-13
-3.3466e-13
-3.19289e-13
-3.04231e-13
-2.95372e-13
-2.87629e-13
-2.85347e-13
-2.82592e-13
-2.81637e-13
-2.71669e-13
-2.54729e-13
-2.45539e-13
-2.32451e-13
-2.30837e-13
-2.25481e-13
-2.2025e-13
-2.16268e-13
-2.15994e-13
-2.09865e-13
-1.94012e-13
-1.77041e-13
-1.63763e-13
-1.60755e-13
-1.64258e-13
-1.57107e-13
-1.47543e-13
-1.40947e-13
-1.33168e-13
-1.2513e-13
-1.15269e-13
-1.0455e-13
-9.20634e-14
-8.63088e-14
-8.58939e-14
-7.90926e-14
-7.18047e-14
-6.34482e-14
-5.6825e-14
-4.91892e-14
-4.34023e-14
-3.81528e-14
-2.99659e-14
-1.92557e-14
-9.75033e-15
-9.52165e-16
6.55489e-16
-6.89942e-13
-6.99838e-13
-6.94437e-13
-6.89512e-13
-6.90051e-13
-6.88603e-13
-6.83794e-13
-6.82555e-13
-6.71797e-13
-6.57539e-13
-6.53402e-13
-6.5163e-13
-6.489e-13
-6.45352e-13
-6.40789e-13
-6.31135e-13
-6.20433e-13
-6.12726e-13
-6.06983e-13
-5.97993e-13
-5.90979e-13
-5.82423e-13
-5.69757e-13
-5.51891e-13
-5.37934e-13
-5.31784e-13
-5.3419e-13
-5.31968e-13
-5.29164e-13
-5.26977e-13
-5.18073e-13
-5.05719e-13
-4.90528e-13
-4.78301e-13
-4.72972e-13
-4.68612e-13
-4.68659e-13
-4.64223e-13
-4.52548e-13
-4.46117e-13
-4.34836e-13
-4.24718e-13
-4.22475e-13
-4.15477e-13
-4.06516e-13
-3.97606e-13
-3.88157e-13
-3.83287e-13
-3.78582e-13
-3.7021e-13
-3.62238e-13
-3.52775e-13
-3.45515e-13
-3.38137e-13
-3.33288e-13
-3.27625e-13
-3.21253e-13
-3.13779e-13
-3.05144e-13
-2.93405e-13
-2.84094e-13
-2.77466e-13
-2.71959e-13
-2.66332e-13
-2.56218e-13
-2.47863e-13
-2.38854e-13
-2.31988e-13
-2.26011e-13
-2.22655e-13
-2.1881e-13
-2.10824e-13
-2.03152e-13
-1.94783e-13
-1.80022e-13
-1.69e-13
-1.61222e-13
-1.59111e-13
-1.56662e-13
-1.48404e-13
-1.41712e-13
-1.31103e-13
-1.23593e-13
-1.14061e-13
-1.03095e-13
-9.36627e-14
-8.8807e-14
-8.43796e-14
-8.00686e-14
-7.13844e-14
-6.37558e-14
-5.97742e-14
-5.17704e-14
-4.30679e-14
-3.33446e-14
-2.49364e-14
-1.78325e-14
-1.12129e-14
-3.72207e-15
1.64945e-16
-6.89205e-13
-6.93509e-13
-6.95456e-13
-6.91165e-13
-6.90304e-13
-6.91503e-13
-6.8077e-13
-6.69416e-13
-6.64248e-13
-6.62053e-13
-6.59567e-13
-6.55711e-13
-6.52466e-13
-6.46823e-13
-6.41144e-13
-6.3243e-13
-6.25618e-13
-6.21622e-13
-6.12242e-13
-5.976e-13
-5.77937e-13
-5.64135e-13
-5.54922e-13
-5.45228e-13
-5.45596e-13
-5.44124e-13
-5.39303e-13
-5.31744e-13
-5.27342e-13
-5.26164e-13
-5.20168e-13
-5.0918e-13
-4.96078e-13
-4.78644e-13
-4.6825e-13
-4.69023e-13
-4.70085e-13
-4.65627e-13
-4.5855e-13
-4.47244e-13
-4.32576e-13
-4.23313e-13
-4.15737e-13
-4.11128e-13
-4.061e-13
-4.00438e-13
-3.9336e-13
-3.84582e-13
-3.78283e-13
-3.77245e-13
-3.68583e-13
-3.50761e-13
-3.40324e-13
-3.32981e-13
-3.27477e-13
-3.25857e-13
-3.21968e-13
-3.12832e-13
-3.003e-13
-2.90639e-13
-2.87221e-13
-2.82734e-13
-2.75448e-13
-2.66212e-13
-2.5198e-13
-2.4158e-13
-2.37013e-13
-2.34696e-13
-2.29653e-13
-2.2246e-13
-2.15607e-13
-2.10785e-13
-2.03577e-13
-1.93296e-13
-1.81363e-13
-1.65682e-13
-1.59738e-13
-1.58155e-13
-1.58793e-13
-1.53889e-13
-1.45083e-13
-1.34612e-13
-1.23282e-13
-1.11232e-13
-1.01466e-13
-9.40848e-14
-8.93748e-14
-8.34875e-14
-7.74695e-14
-7.05148e-14
-6.40547e-14
-5.85056e-14
-5.23204e-14
-4.31929e-14
-3.26133e-14
-2.23139e-14
-1.39595e-14
-8.43592e-15
-1.88516e-15
-5.43285e-16
-6.87765e-13
-6.96667e-13
-6.97305e-13
-6.92261e-13
-6.88874e-13
-6.94388e-13
-6.90569e-13
-6.76033e-13
-6.57527e-13
-6.53398e-13
-6.52501e-13
-6.53871e-13
-6.52842e-13
-6.49923e-13
-6.44462e-13
-6.33567e-13
-6.23787e-13
-6.15783e-13
-6.02974e-13
-5.94118e-13
-5.85876e-13
-5.72429e-13
-5.60305e-13
-5.46215e-13
-5.45014e-13
-5.43106e-13
-5.41191e-13
-5.36201e-13
-5.28143e-13
-5.25171e-13
-5.1672e-13
-5.04678e-13
-4.94877e-13
-4.79585e-13
-4.67367e-13
-4.66454e-13
-4.68289e-13
-4.66473e-13
-4.58046e-13
-4.47943e-13
-4.31482e-13
-4.22049e-13
-4.19354e-13
-4.13963e-13
-4.06272e-13
-3.98719e-13
-3.95847e-13
-3.88979e-13
-3.78422e-13
-3.67256e-13
-3.59411e-13
-3.53463e-13
-3.44443e-13
-3.31354e-13
-3.3222e-13
-3.29515e-13
-3.21284e-13
-3.14851e-13
-3.07309e-13
-2.92937e-13
-2.85418e-13
-2.78991e-13
-2.70492e-13
-2.62787e-13
-2.51693e-13
-2.44029e-13
-2.34755e-13
-2.31788e-13
-2.26263e-13
-2.25625e-13
-2.18174e-13
-2.13981e-13
-2.07048e-13
-1.92926e-13
-1.78262e-13
-1.66239e-13
-1.62968e-13
-1.59827e-13
-1.5489e-13
-1.49723e-13
-1.43859e-13
-1.35025e-13
-1.24035e-13
-1.11713e-13
-1.04765e-13
-9.73691e-14
-8.98126e-14
-8.31711e-14
-7.74388e-14
-6.92804e-14
-6.23872e-14
-5.63144e-14
-4.82975e-14
-3.94979e-14
-3.2108e-14
-2.59912e-14
-1.23921e-14
-5.24048e-15
9.5464e-16
5.26119e-16
-6.9475e-13
-6.93809e-13
-6.90019e-13
-6.86017e-13
-6.87668e-13
-6.8222e-13
-6.7776e-13
-6.79058e-13
-6.74595e-13
-6.66751e-13
-6.61443e-13
-6.52483e-13
-6.46344e-13
-6.45125e-13
-6.42887e-13
-6.35474e-13
-6.26316e-13
-6.2297e-13
-6.11147e-13
-5.9396e-13
-5.74045e-13
-5.61043e-13
-5.55239e-13
-5.53547e-13
-5.46711e-13
-5.45346e-13
-5.41249e-13
-5.34405e-13
-5.28757e-13
-5.23646e-13
-5.16523e-13
-5.04152e-13
-4.91978e-13
-4.79223e-13
-4.70702e-13
-4.69544e-13
-4.7284e-13
-4.66539e-13
-4.57005e-13
-4.4632e-13
-4.32275e-13
-4.19503e-13
-4.17225e-13
-4.14531e-13
-4.10695e-13
-3.99873e-13
-3.90692e-13
-3.87109e-13
-3.82068e-13
-3.70407e-13
-3.58607e-13
-3.53274e-13
-3.46101e-13
-3.35077e-13
-3.27091e-13
-3.24507e-13
-3.18846e-13
-3.13921e-13
-3.08127e-13
-2.98399e-13
-2.87503e-13
-2.7941e-13
-2.69889e-13
-2.62205e-13
-2.55486e-13
-2.45235e-13
-2.35164e-13
-2.26516e-13
-2.23387e-13
-2.25673e-13
-2.17285e-13
-2.12159e-13
-2.05235e-13
-1.93622e-13
-1.82332e-13
-1.69804e-13
-1.59355e-13
-1.54769e-13
-1.54203e-13
-1.5511e-13
-1.48728e-13
-1.33686e-13
-1.22792e-13
-1.09863e-13
-1.05006e-13
-9.96953e-14
-9.22809e-14
-8.20213e-14
-7.29432e-14
-6.81358e-14
-6.2448e-14
-5.56351e-14
-4.99109e-14
-4.14973e-14
-3.11212e-14
-2.14196e-14
-1.27729e-14
-6.50608e-15
5.66666e-16
1.92364e-15
-6.94171e-13
-6.92876e-13
-6.90248e-13
-6.87817e-13
-6.93958e-13
-6.91097e-13
-6.7804e-13
-6.71319e-13
-6.66484e-13
-6.63328e-13
-6.62172e-13
-6.60019e-13
-6.48258e-13
-6.40751e-13
-6.37702e-13
-6.32629e-13
-6.28104e-13
-6.20724e-13
-6.08011e-13
-5.9144e-13
-5.77212e-13
-5.62704e-13
-5.53381e-13
-5.53825e-13
-5.53937e-13
-5.45146e-13
-5.37536e-13
-5.34729e-13
-5.32296e-13
-5.26339e-13
-5.18852e-13
-5.0583e-13
-4.91879e-13
-4.78362e-13
-4.67487e-13
-4.68035e-13
-4.66863e-13
-4.64636e-13
-4.60917e-13
-4.50609e-13
-4.35863e-13
-4.23876e-13
-4.1712e-13
-4.08847e-13
-4.06805e-13
-4.01315e-13
-3.93332e-13
-3.83922e-13
-3.77346e-13
-3.70552e-13
-3.59398e-13
-3.53712e-13
-3.46203e-13
-3.36395e-13
-3.33386e-13
-3.28826e-13
-3.17064e-13
-3.07856e-13
-3.03615e-13
-2.95574e-13
-2.89561e-13
-2.79374e-13
-2.71119e-13
-2.63799e-13
-2.54784e-13
-2.43715e-13
-2.3714e-13
-2.26916e-13
-2.20185e-13
-2.18307e-13
-2.16427e-13
-2.13086e-13
-2.06947e-13
-1.93759e-13
-1.81072e-13
-1.70631e-13
-1.63738e-13
-1.56959e-13
-1.56488e-13
-1.53226e-13
-1.4585e-13
-1.35454e-13
-1.24186e-13
-1.12526e-13
-1.03738e-13
-9.46169e-14
-8.78689e-14
-8.36792e-14
-7.77303e-14
-6.84115e-14
-6.14646e-14
-5.43752e-14
-4.68019e-14
-3.86912e-14
-2.9551e-14
-2.31481e-14
-1.44839e-14
-4.58986e-15
9.73237e-16
1.70042e-16
-6.8897e-13
-6.91824e-13
-6.91882e-13
-6.90356e-13
-6.88636e-13
-6.82336e-13
-6.77601e-13
-6.7418e-13
-6.73089e-13
-6.6881e-13
-6.63341e-13
-6.58686e-13
-6.51107e-13
-6.42363e-13
-6.36281e-13
-6.28887e-13
-6.26013e-13
-6.19151e-13
-6.06245e-13
-5.93775e-13
-5.77138e-13
-5.63693e-13
-5.58828e-13
-5.54908e-13
-5.46494e-13
-5.42447e-13
-5.4185e-13
-5.39e-13
-5.31699e-13
-5.21815e-13
-5.13726e-13
-5.04528e-13
-4.91528e-13
-4.79452e-13
-4.70079e-13
-4.73607e-13
-4.74621e-13
-4.66751e-13
-4.56006e-13
-4.43256e-13
-4.32606e-13
-4.26681e-13
-4.18842e-13
-4.09046e-13
-4.03937e-13
-3.97392e-13
-3.95843e-13
-3.94181e-13
-3.80928e-13
-3.6715e-13
-3.57206e-13
-3.54889e-13
-3.46674e-13
-3.35709e-13
-3.31846e-13
-3.28396e-13
-3.20496e-13
-3.09711e-13
-3.01389e-13
-2.94542e-13
-2.91808e-13
-2.82745e-13
-2.72224e-13
-2.62592e-13
-2.50895e-13
-2.43087e-13
-2.3408e-13
-2.28341e-13
-2.21174e-13
-2.16578e-13
-2.12348e-13
-2.12856e-13
-2.07674e-13
-1.9371e-13
-1.81145e-13
-1.70643e-13
-1.65695e-13
-1.60013e-13
-1.52134e-13
-1.44504e-13
-1.48283e-13
-1.42648e-13
-1.25796e-13
-1.13314e-13
-1.03794e-13
-9.32967e-14
-8.591e-14
-8.30295e-14
-7.72972e-14
-6.85527e-14
-6.06755e-14
-5.45835e-14
-4.76159e-14
-3.73757e-14
-3.19115e-14
-2.18084e-14
-1.16365e-14
-3.04319e-15
1.90275e-15
-2.22502e-16
-6.96212e-13
-6.93049e-13
-6.90856e-13
-6.87778e-13
-6.82836e-13
-6.80196e-13
-6.77082e-13
-6.77108e-13
-6.74452e-13
-6.69281e-13
-6.62538e-13
-6.58134e-13
-6.52094e-13
-6.46103e-13
-6.38207e-13
-6.27261e-13
-6.16958e-13
-6.10786e-13
-6.05994e-13
-5.97856e-13
-5.7976e-13
-5.67864e-13
-5.59044e-13
-5.52022e-13
-5.4858e-13
-5.44942e-13
-5.42889e-13
-5.39547e-13
-5.29961e-13
-5.24718e-13
-5.15062e-13
-5.03745e-13
-4.8979e-13
-4.77385e-13
-4.72559e-13
-4.73204e-13
-4.71166e-13
-4.65246e-13
-4.55777e-13
-4.44602e-13
-4.33005e-13
-4.23978e-13
-4.19589e-13
-4.13693e-13
-4.08733e-13
-4.01841e-13
-3.91712e-13
-3.84681e-13
-3.79776e-13
-3.7148e-13
-3.64618e-13
-3.54723e-13
-3.45022e-13
-3.36688e-13
-3.30429e-13
-3.23059e-13
-3.18787e-13
-3.11621e-13
-3.01092e-13
-2.94898e-13
-2.9268e-13
-2.84979e-13
-2.7335e-13
-2.60757e-13
-2.52e-13
-2.4326e-13
-2.3385e-13
-2.2656e-13
-2.20911e-13
-2.16677e-13
-2.14156e-13
-2.13229e-13
-2.06482e-13
-1.90649e-13
-1.79956e-13
-1.70801e-13
-1.65092e-13
-1.59474e-13
-1.55543e-13
-1.51045e-13
-1.44792e-13
-1.36568e-13
-1.26892e-13
-1.16842e-13
-1.08864e-13
-9.35943e-14
-8.48603e-14
-7.99529e-14
-7.68727e-14
-6.53536e-14
-5.79174e-14
-5.36083e-14
-5.17023e-14
-3.91134e-14
-2.77526e-14
-2.08827e-14
-1.31369e-14
-5.97648e-16
8.23437e-16
-1.43764e-15
-6.9874e-13
-6.92317e-13
-6.86495e-13
-6.86969e-13
-6.79168e-13
-6.80271e-13
-6.77447e-13
-6.78324e-13
-6.77767e-13
-6.6786e-13
-6.61674e-13
-6.58786e-13
-6.56957e-13
-6.47589e-13
-6.38379e-13
-6.30377e-13
-6.21769e-13
-6.11126e-13
-6.04917e-13
-5.91176e-13
-5.79716e-13
-5.67506e-13
-5.56077e-13
-5.50348e-13
-5.46889e-13
-5.48587e-13
-5.43985e-13
-5.38392e-13
-5.30554e-13
-5.22965e-13
-5.15402e-13
-5.05761e-13
-4.90231e-13
-4.80102e-13
-4.71184e-13
-4.68799e-13
-4.69542e-13
-4.65563e-13
-4.56351e-13
-4.45377e-13
-4.3636e-13
-4.27298e-13
-4.19089e-13
-4.12754e-13
-4.0687e-13
-4.00062e-13
-3.91727e-13
-3.87002e-13
-3.82446e-13
-3.72093e-13
-3.61353e-13
-3.50647e-13
-3.44484e-13
-3.39417e-13
-3.33771e-13
-3.27338e-13
-3.20071e-13
-3.10185e-13
-3.03616e-13
-2.98843e-13
-2.93778e-13
-2.83711e-13
-2.69469e-13
-2.592e-13
-2.50037e-13
-2.41124e-13
-2.31906e-13
-2.27477e-13
-2.20572e-13
-2.20373e-13
-2.15193e-13
-2.09316e-13
-1.99824e-13
-1.88027e-13
-1.78382e-13
-1.69017e-13
-1.6861e-13
-1.66643e-13
-1.572e-13
-1.4835e-13
-1.4189e-13
-1.34225e-13
-1.25627e-13
-1.15633e-13
-1.03601e-13
-9.11983e-14
-8.61633e-14
-8.2602e-14
-7.58255e-14
-7.11257e-14
-6.53015e-14
-5.40683e-14
-4.4315e-14
-3.66906e-14
-2.79501e-14
-1.84056e-14
-1.12508e-14
-6.75812e-15
-2.10119e-15
-1.4011e-15
-6.96614e-13
-6.90588e-13
-6.88904e-13
-6.86952e-13
-6.83594e-13
-6.80059e-13
-6.74546e-13
-6.77232e-13
-6.76975e-13
-6.71625e-13
-6.65261e-13
-6.58133e-13
-6.55606e-13
-6.45791e-13
-6.35378e-13
-6.25309e-13
-6.15553e-13
-6.1135e-13
-6.0555e-13
-5.93729e-13
-5.81236e-13
-5.69026e-13
-5.58218e-13
-5.5404e-13
-5.52808e-13
-5.46223e-13
-5.39928e-13
-5.32507e-13
-5.25912e-13
-5.23548e-13
-5.17267e-13
-5.10244e-13
-4.98276e-13
-4.87008e-13
-4.69165e-13
-4.65061e-13
-4.64648e-13
-4.61993e-13
-4.56159e-13
-4.45398e-13
-4.38262e-13
-4.27562e-13
-4.21776e-13
-4.11212e-13
-4.07273e-13
-4.0155e-13
-3.97072e-13
-3.88845e-13
-3.78701e-13
-3.648e-13
-3.60591e-13
-3.55968e-13
-3.48717e-13
-3.35617e-13
-3.28455e-13
-3.22024e-13
-3.14682e-13
-3.12656e-13
-3.04631e-13
-3.03077e-13
-3.03315e-13
-2.81015e-13
-2.67406e-13
-2.61057e-13
-2.527e-13
-2.44397e-13
-2.34633e-13
-2.27756e-13
-2.17663e-13
-2.14419e-13
-2.10095e-13
-2.12257e-13
-2.05099e-13
-1.92324e-13
-1.76289e-13
-1.64587e-13
-1.68426e-13
-1.65159e-13
-1.57164e-13
-1.50981e-13
-1.43917e-13
-1.34678e-13
-1.24485e-13
-1.1373e-13
-1.04209e-13
-9.25988e-14
-8.53262e-14
-8.30684e-14
-7.72427e-14
-6.69076e-14
-5.89184e-14
-5.35853e-14
-4.5254e-14
-3.60831e-14
-3.21291e-14
-2.5147e-14
-1.16119e-14
-3.06997e-15
2.80068e-15
-2.92856e-16
-6.90984e-13
-6.93072e-13
-6.92714e-13
-6.86641e-13
-6.80993e-13
-6.81364e-13
-6.79263e-13
-6.75456e-13
-6.74769e-13
-6.70387e-13
-6.66861e-13
-6.6197e-13
-6.53787e-13
-6.44348e-13
-6.36252e-13
-6.28792e-13
-6.23324e-13
-6.18711e-13
-6.07996e-13
-5.91145e-13
-5.72331e-13
-5.58665e-13
-5.55267e-13
-5.55852e-13
-5.53321e-13
-5.45754e-13
-5.36738e-13
-5.32571e-13
-5.25972e-13
-5.2471e-13
-5.21505e-13
-5.05988e-13
-4.92922e-13
-4.84414e-13
-4.75848e-13
-4.71292e-13
-4.67212e-13
-4.60809e-13
-4.54462e-13
-4.46101e-13
-4.37464e-13
-4.27274e-13
-4.19279e-13
-4.14435e-13
-4.12524e-13
-4.02863e-13
-3.95091e-13
-3.82665e-13
-3.79563e-13
-3.71767e-13
-3.59832e-13
-3.54585e-13
-3.48162e-13
-3.39637e-13
-3.31565e-13
-3.18249e-13
-3.06597e-13
-3.10211e-13
-3.14003e-13
-3.05051e-13