/*--------------------------------*- C++ -*----------------------------------*\
| =========                 |                                                 |
| \\      /  F ield         | OpenFOAM: The Open Source CFD Toolbox           |
|  \\    /   O peration     | Version:  v2012                                 |
|   \\  /    A nd           | Website:  www.openfoam.com                      |
|    \\/     M anipulation  |                                                 |
\*---------------------------------------------------------------------------*/
FoamFile
{
    version     2.0;
    format      ascii;
    class       volVectorField;
    location    "0";
    object      U;
}
// * * * * * * * * * * * * * * * * * * * * * * * * * * * * * * * * * * * * * //

dimensions      [0 1 -1 0 0 0 0];


internalField   nonuniform List<vector> 
4000
(
(1 -1.0141e-15 0)
(1 3.50413e-15 0)
(1 6.73068e-16 0)
(1 6.84671e-15 0)
(1 -2.79006e-15 0)
(1 2.39017e-15 0)
(1 -8.75453e-16 0)
(1 -4.7711e-15 0)
(1 7.95096e-16 0)
(1 -5.60193e-15 0)
(1 3.57907e-15 0)
(1 3.92826e-15 0)
(1 1.50663e-15 0)
(1 8.56178e-18 0)
(1 4.86823e-15 0)
(1 -1.80796e-15 0)
(1 -4.70923e-15 0)
(1 -2.9434e-15 0)
(1 2.61871e-15 0)
(1 -4.15445e-15 0)
(1 -8.38315e-15 0)
(1 -1.08743e-14 0)
(1 4.41923e-15 0)
(1 4.11239e-16 0)
(1 5.53233e-15 0)
(1 1.46509e-15 0)
(1 6.72317e-15 0)
(1 1.38798e-15 0)
(1 2.58405e-15 0)
(1 3.30939e-16 0)
(1 8.02127e-16 0)
(1 -6.57802e-15 0)
(1 -6.42807e-15 0)
(1 6.58121e-17 0)
(1 5.81209e-15 0)
(1 5.42572e-15 0)
(1 5.3104e-15 0)
(1 4.67568e-15 0)
(1 3.36813e-15 0)
(1 -4.16305e-15 0)
(1 -2.80709e-16 0)
(1 7.70154e-16 0)
(1 1.45239e-15 0)
(1 -4.89654e-16 0)
(1 -6.15326e-15 0)
(1 -2.27639e-15 0)
(1 -1.91257e-15 0)
(1 4.2025e-16 0)
(1 2.44952e-15 0)
(1 1.01691e-15 0)
(1 9.39911e-16 0)
(1 3.44382e-15 0)
(1 1.36438e-15 0)
(1 3.38997e-15 0)
(1 -5.23582e-15 0)
(1 -4.87625e-15 0)
(1 -2.78366e-15 0)
(1 3.24187e-15 0)
(1 3.96324e-15 0)
(1 4.85843e-15 0)
(1 1.85794e-15 0)
(1 -1.01914e-15 0)
(1 2.76058e-15 0)
(1 2.05944e-15 0)
(1 1.48911e-15 0)
(1 -3.95777e-15 0)
(1 -2.9944e-15 0)
(1 -8.77867e-17 0)
(1 -2.47128e-16 0)
(1 -1.64599e-15 0)
(1 -4.64646e-15 0)
(1 9.49506e-16 0)
(1 2.18344e-15 0)
(1 -5.23301e-15 0)
(1 -7.86752e-15 0)
(1 -2.38971e-15 0)
(1 -1.84197e-16 0)
(1 5.175e-15 0)
(1 5.04997e-15 0)
(1 2.91179e-15 0)
(1 8.40287e-17 0)
(1 -1.73585e-15 0)
(1 1.22301e-15 0)
(1 -9.27891e-16 0)
(1 -3.28954e-16 0)
(1 -2.80247e-15 0)
(1 -4.3547e-15 0)
(1 1.44017e-15 0)
(1 2.65896e-15 0)
(1 2.89794e-15 0)
(1 -1.51047e-15 0)
(1 1.30451e-15 0)
(1 -4.31538e-15 0)
(1 -5.10901e-15 0)
(1 1.31577e-16 0)
(1 -1.11127e-15 0)
(1 -2.43474e-15 0)
(1 -1.19874e-15 0)
(1 1.72428e-15 0)
(1 1.41037e-15 0)
(1 3.31396e-15 0)
(1 -1.39603e-15 0)
(1 4.7716e-15 0)
(1 3.82354e-15 0)
(1 -2.59604e-15 0)
(1 -1.69083e-15 0)
(1 -3.44121e-15 0)
(1 -4.72372e-15 0)
(1 1.71326e-15 0)
(1 -8.39618e-15 0)
(1 6.5239e-15 0)
(1 5.7097e-15 0)
(1 4.55214e-15 0)
(1 6.21645e-15 0)
(1 8.20416e-15 0)
(1 -6.68965e-15 0)
(1 -1.32141e-14 0)
(1 -4.34839e-15 0)
(1 2.80009e-15 0)
(1 -7.91923e-15 0)
(1 -8.63483e-15 0)
(1 -9.54512e-15 0)
(1 1.57293e-15 0)
(1 -1.75166e-15 0)
(1 9.7765e-15 0)
(1 4.91801e-16 0)
(1 1.38523e-15 0)
(1 -3.28449e-15 0)
(1 4.41293e-15 0)
(1 7.74644e-16 0)
(1 7.91069e-15 0)
(1 -3.99114e-15 0)
(1 -1.4734e-15 0)
(1 7.82188e-16 0)
(1 1.50826e-15 0)
(1 1.94028e-15 0)
(1 4.07048e-15 0)
(1 4.74389e-15 0)
(1 -1.01679e-15 0)
(1 -4.92433e-15 0)
(1 -9.21386e-16 0)
(1 -4.66068e-16 0)
(1 2.31917e-15 0)
(1 -5.4008e-15 0)
(1 -4.83533e-15 0)
(1 -5.62471e-15 0)
(1 1.04651e-15 0)
(1 1.78449e-15 0)
(1 5.45007e-15 0)
(1 -5.25502e-15 0)
(1 -3.98535e-15 0)
(1 7.18149e-18 0)
(1 -2.0057e-15 0)
(1 4.4786e-15 0)
(1 3.09461e-15 0)
(1 2.28596e-15 0)
(1 6.92786e-15 0)
(1 4.44287e-15 0)
(1 -3.56636e-15 0)
(1 6.94385e-17 0)
(1 8.6642e-16 0)
(1 -1.75362e-17 0)
(1 1.96222e-15 0)
(1 2.11386e-15 0)
(1 1.42975e-15 0)
(1 -5.95644e-15 0)
(1 -6.53091e-15 0)
(1 -4.08999e-15 0)
(1 -3.1949e-15 0)
(1 -1.96786e-15 0)
(1 2.12227e-15 0)
(1 6.97707e-15 0)
(1 2.31177e-15 0)
(1 -1.86352e-15 0)
(1 -3.13607e-15 0)
(1 -8.81704e-16 0)
(1 4.19068e-15 0)
(1 6.89515e-15 0)
(1 8.61325e-15 0)
(1 6.74491e-16 0)
(1 2.93754e-15 0)
(1 -5.55577e-15 0)
(1 8.87876e-16 0)
(1 2.08655e-15 0)
(1 3.20426e-15 0)
(1 -1.14596e-15 0)
(1 -1.11778e-15 0)
(1 -4.6059e-15 0)
(1 -9.50401e-16 0)
(1 -3.42648e-15 0)
(1 -7.89479e-16 0)
(1 4.1829e-15 0)
(1 -6.38466e-15 0)
(1 -7.91619e-15 0)
(1 -3.03098e-15 0)
(1 2.00969e-15 0)
(1 -2.06605e-15 0)
(1 -1.98087e-15 0)
(1 -1.51119e-15 0)
(1 1.1873e-15 0)
(1 2.16416e-15 0)
(1 -2.76168e-15 0)
(1 -1.6523e-15 0)
(1 -5.49283e-15 0)
(1 8.42475e-15 0)
(1 1.21301e-15 0)
(1 3.34874e-15 0)
(1 -7.64615e-16 0)
(1 -1.06394e-15 0)
(1 -1.69803e-15 0)
(1 2.94763e-15 0)
(1 5.38322e-15 0)
(1 1.65985e-15 0)
(1 9.74918e-15 0)
(1 4.04673e-15 0)
(1 3.45195e-16 0)
(1 -9.16972e-15 0)
(1 1.90259e-15 0)
(1 -5.47891e-15 0)
(1 -5.88544e-15 0)
(1 -2.91368e-15 0)
(1 7.93256e-16 0)
(1 -7.57704e-15 0)
(1 -2.01967e-15 0)
(1 8.77265e-15 0)
(1 4.11012e-15 0)
(1 8.05897e-15 0)
(1 9.39003e-15 0)
(1 1.00791e-14 0)
(1 4.6951e-15 0)
(1 3.03306e-15 0)
(1 3.75207e-16 0)
(1 2.88386e-15 0)
(1 -4.93752e-15 0)
(1 -2.9051e-15 0)
(1 -4.86013e-15 0)
(1 -3.00186e-16 0)
(1 2.13879e-15 0)
(1 2.9682e-16 0)
(1 -1.86842e-16 0)
(1 -1.51626e-15 0)
(1 -3.92183e-15 0)
(1 -7.54276e-15 0)
(1 -6.07995e-15 0)
(1 -2.28443e-15 0)
(1 -6.02471e-15 0)
(1 1.23881e-15 0)
(1 8.4704e-16 0)
(1 2.80423e-16 0)
(1 -1.37604e-15 0)
(1 8.08243e-16 0)
(1 1.44085e-15 0)
(1 2.0172e-15 0)
(1 4.07042e-15 0)
(1 1.02217e-14 0)
(1 7.56899e-15 0)
(1 5.79515e-15 0)
(1 -4.04927e-15 0)
(1 -6.19575e-15 0)
(1 -4.16074e-15 0)
(1 4.04775e-15 0)
(1 6.42046e-15 0)
(1 -2.66932e-16 0)
(1 4.38588e-17 0)
(1 -3.05394e-15 0)
(1 -4.39592e-15 0)
(1 -3.02954e-15 0)
(1 -1.51692e-15 0)
(1 -2.27867e-15 0)
(1 6.97492e-16 0)
(1 2.03335e-15 0)
(1 1.61898e-15 0)
(1 -1.5609e-15 0)
(1 1.93091e-16 0)
(1 3.36658e-16 0)
(1 6.88435e-16 0)
(1 2.44076e-15 0)
(1 4.4256e-15 0)
(1 1.35845e-15 0)
(1 -3.43003e-15 0)
(1 -1.80288e-15 0)
(1 -1.53257e-15 0)
(1 -5.82604e-15 0)
(1 -1.13241e-15 0)
(1 4.1087e-15 0)
(1 -6.61253e-16 0)
(1 1.91191e-15 0)
(1 -3.65596e-15 0)
(1 -1.16479e-15 0)
(1 -9.45177e-16 0)
(1 -1.37225e-15 0)
(1 -2.5058e-15 0)
(1 -1.86768e-15 0)
(1 -5.51045e-15 0)
(1 -3.83629e-15 0)
(1 1.30027e-15 0)
(1 -2.00531e-15 0)
(1 -4.0272e-15 0)
(1 -9.80364e-16 0)
(1 8.11152e-16 0)
(1 3.50321e-15 0)
(1 -3.4057e-15 0)
(1 -3.32444e-15 0)
(1 -6.89973e-15 0)
(1 5.06568e-15 0)
(1 4.22402e-15 0)
(1 9.55058e-15 0)
(1 -3.13986e-15 0)
(1 -3.99931e-15 0)
(1 -4.91391e-15 0)
(1 6.93937e-15 0)
(1 7.07591e-15 0)
(1 6.30261e-15 0)
(1 8.18419e-15 0)
(1 2.12712e-15 0)
(1 2.67382e-15 0)
(1 -3.45054e-15 0)
(1 -4.6539e-15 0)
(1 -1.06985e-14 0)
(1 -6.64176e-15 0)
(1 -5.1282e-15 0)
(1 -1.08639e-17 0)
(1 -1.30014e-15 0)
(1 1.01352e-14 0)
(1 4.12419e-15 0)
(1 4.65596e-15 0)
(1 5.48042e-15 0)
(1 1.22607e-14 0)
(1 1.61733e-14 0)
(1 1.27241e-14 0)
(1 1.76285e-15 0)
(1 -2.03382e-15 0)
(1 9.44176e-16 0)
(1 -2.32065e-15 0)
(1 -1.95608e-15 0)
(1 -5.02812e-15 0)
(1 -1.48153e-15 0)
(1 -7.51396e-16 0)
(1 4.64738e-15 0)
(1 4.98666e-15 0)
(1 -2.38878e-15 0)
(1 -5.4024e-15 0)
(1 -8.81535e-15 0)
(1 -2.57513e-15 0)
(1 -4.79438e-15 0)
(1 1.2955e-16 0)
(1 1.71338e-15 0)
(1 2.61288e-15 0)
(1 -1.18441e-15 0)
(1 8.53892e-15 0)
(1 1.44635e-15 0)
(1 -2.52212e-15 0)
(1 7.03208e-16 0)
(1 -9.58898e-16 0)
(1 1.42228e-16 0)
(1 4.60835e-15 0)
(1 2.74288e-15 0)
(1 -4.2881e-15 0)
(1 -4.26554e-15 0)
(1 8.2651e-16 0)
(1 4.15189e-15 0)
(1 6.09909e-15 0)
(1 1.36659e-15 0)
(1 2.56069e-15 0)
(1 -3.00125e-15 0)
(1 -7.71122e-15 0)
(1 -5.91474e-15 0)
(1 -1.46354e-15 0)
(1 -4.55543e-15 0)
(1 3.01265e-16 0)
(1 -5.41476e-16 0)
(1 1.81291e-15 0)
(1 -1.28855e-15 0)
(1 -3.95363e-15 0)
(1 -3.17363e-15 0)
(1 3.75492e-15 0)
(1 4.48288e-15 0)
(1 7.87498e-16 0)
(1 5.43627e-15 0)
(1 -6.04816e-15 0)
(1 1.68694e-15 0)
(1 3.84833e-15 0)
(1 -4.79698e-15 0)
(1 -2.11327e-15 0)
(1 7.42478e-16 0)
(1 8.32907e-16 0)
(1 1.96383e-15 0)
(1 1.90242e-15 0)
(1 2.17926e-15 0)
(1 6.22719e-16 0)
(1 -1.19607e-15 0)
(1 -3.71807e-15 0)
(1 8.29153e-16 0)
(1 -1.92538e-15 0)
(1 -3.02522e-15 0)
(1 -3.01007e-15 0)
(1 -5.94911e-15 0)
(1 -7.32313e-15 0)
(1 -6.93982e-16 0)
(1 8.64787e-16 0)
(1 4.84575e-15 0)
(1 -1.19947e-15 0)
(1 -6.7591e-15 0)
(1 -2.07659e-15 0)
(1 -1.2851e-15 0)
(1 2.71809e-15 0)
(1 3.3577e-15 0)
(1 -2.62335e-15 0)
(1 -5.90749e-15 0)
(1 -2.94297e-15 0)
(1 4.79467e-15 0)
(1 2.28757e-15 0)
(1 9.71037e-15 0)
(1 3.16499e-16 0)
(1 9.29902e-15 0)
(1 4.63387e-15 0)
(1 2.58243e-15 0)
(1 -1.11086e-14 0)
(1 -9.88087e-15 0)
(1 -1.59305e-14 0)
(1 -5.1034e-15 0)
(1 -2.85161e-15 0)
(1 1.00077e-14 0)
(1 1.73545e-14 0)
(1 1.02683e-14 0)
(1 7.31546e-15 0)
(1 9.5528e-15 0)
(1 4.15011e-15 0)
(1 6.99365e-15 0)
(1 8.34269e-15 0)
(1 -5.01987e-16 0)
(1 9.94907e-16 0)
(1 5.62056e-15 0)
(1 -7.18763e-16 0)
(1 -9.46391e-15 0)
(1 -8.71971e-15 0)
(1 -3.27285e-15 0)
(1 -4.85231e-15 0)
(1 3.0214e-16 0)
(1 3.01371e-15 0)
(1 -6.50469e-15 0)
(1 -6.93036e-15 0)
(1 -5.11897e-15 0)
(1 -2.02147e-15 0)
(1 -2.59908e-15 0)
(1 3.35531e-15 0)
(1 5.53489e-15 0)
(1 1.72166e-15 0)
(1 4.16948e-16 0)
(1 4.60769e-15 0)
(1 -2.213e-15 0)
(1 -1.08455e-15 0)
(1 -1.88247e-15 0)
(1 2.78319e-15 0)
(1 6.24807e-15 0)
(1 7.93136e-15 0)
(1 4.75479e-15 0)
(1 3.08135e-16 0)
(1 -4.02336e-16 0)
(1 -3.8768e-16 0)
(1 -8.35666e-16 0)
(1 -3.61557e-15 0)
(1 7.56604e-16 0)
(1 -5.49354e-16 0)
(1 -1.91414e-15 0)
(1 -2.76775e-15 0)
(1 -1.27298e-15 0)
(1 -3.10086e-15 0)
(1 3.9631e-16 0)
(1 -1.14611e-15 0)
(1 1.4439e-15 0)
(1 5.54891e-15 0)
(1 2.06206e-17 0)
(1 -2.81822e-15 0)
(1 2.77843e-15 0)
(1 4.87824e-15 0)
(1 6.55058e-15 0)
(1 5.59333e-15 0)
(1 9.74773e-15 0)
(1 -5.2403e-15 0)
(1 1.85567e-15 0)
(1 -3.70204e-15 0)
(1 2.66569e-15 0)
(1 2.06459e-15 0)
(1 2.78168e-15 0)
(1 1.99001e-15 0)
(1 -2.26211e-15 0)
(1 -8.11521e-15 0)
(1 -3.8762e-15 0)
(1 -2.51834e-15 0)
(1 2.5525e-17 0)
(1 -3.18927e-15 0)
(1 -2.23122e-15 0)
(1 1.83855e-15 0)
(1 -2.50305e-15 0)
(1 -1.44978e-15 0)
(1 -4.63193e-15 0)
(1 -1.89548e-15 0)
(1 -1.27627e-15 0)
(1 4.089e-16 0)
(1 -2.36115e-15 0)
(1 -1.65262e-15 0)
(1 -4.77722e-15 0)
(1 -4.85614e-15 0)
(1 1.59335e-15 0)
(1 3.5866e-15 0)
(1 -4.47666e-15 0)
(1 1.0275e-15 0)
(1 2.32512e-15 0)
(1 8.18427e-15 0)
(1 -3.02979e-15 0)
(1 -1.47102e-15 0)
(1 6.39606e-15 0)
(1 -3.33404e-16 0)
(1 6.95404e-15 0)
(1 4.7449e-15 0)
(1 1.61642e-15 0)
(1 -2.73828e-15 0)
(1 -7.37512e-15 0)
(1 -4.3073e-15 0)
(1 1.54831e-15 0)
(1 8.95922e-15 0)
(1 1.36251e-14 0)
(1 4.14836e-15 0)
(1 3.96192e-15 0)
(1 4.46031e-15 0)
(1 1.17793e-14 0)
(1 2.69196e-15 0)
(1 5.70124e-15 0)
(1 3.02885e-15 0)
(1 -9.06726e-15 0)
(1 2.46456e-15 0)
(1 -5.35546e-15 0)
(1 3.09542e-15 0)
(1 -1.60882e-15 0)
(1 3.03239e-15 0)
(1 8.23282e-16 0)
(1 -5.03619e-16 0)
(1 -2.39822e-15 0)
(1 3.93298e-15 0)
(1 -3.00043e-16 0)
(1 -2.21248e-15 0)
(1 1.56454e-15 0)
(1 -1.53581e-15 0)
(1 9.53855e-16 0)
(1 -6.74936e-15 0)
(1 -3.93862e-15 0)
(1 -2.78363e-15 0)
(1 1.90858e-15 0)
(1 2.0972e-15 0)
(1 9.16091e-15 0)
(1 6.74456e-15 0)
(1 -2.25624e-15 0)
(1 1.81643e-15 0)
(1 4.40825e-15 0)
(1 2.52942e-15 0)
(1 -3.03963e-15 0)
(1 3.78292e-16 0)
(1 1.22217e-14 0)
(1 4.26415e-15 0)
(1 3.47315e-15 0)
(1 -5.34133e-17 0)
(1 -1.11226e-16 0)
(1 -7.47848e-15 0)
(1 -2.50146e-15 0)
(1 4.44078e-15 0)
(1 7.54049e-15 0)
(1 9.29162e-15 0)
(1 1.18933e-14 0)
(1 1.18711e-14 0)
(1 2.26056e-15 0)
(1 -4.10377e-15 0)
(1 1.21544e-15 0)
(1 -2.37176e-15 0)
(1 -4.08829e-15 0)
(1 -4.40372e-15 0)
(1 -9.58485e-16 0)
(1 4.48741e-15 0)
(1 -8.52643e-16 0)
(1 9.69001e-15 0)
(1 4.21225e-15 0)
(1 4.18019e-15 0)
(1 3.72218e-15 0)
(1 -3.13199e-15 0)
(1 1.43853e-15 0)
(1 -1.49534e-15 0)
(1 -6.07354e-15 0)
(1 -5.26257e-15 0)
(1 -3.99644e-15 0)
(1 -2.33633e-15 0)
(1 -6.01991e-15 0)
(1 -1.57928e-15 0)
(1 -2.14058e-15 0)
(1 5.60136e-16 0)
(1 1.22616e-15 0)
(1 9.3131e-16 0)
(1 1.23969e-15 0)
(1 5.40222e-15 0)
(1 1.00457e-14 0)
(1 6.41383e-15 0)
(1 -1.46302e-15 0)
(1 -2.07197e-15 0)
(1 4.44236e-15 0)
(1 -1.03757e-15 0)
(1 -3.87787e-15 0)
(1 -2.86556e-15 0)
(1 -1.05989e-14 0)
(1 -2.8628e-15 0)
(1 8.10344e-16 0)
(1 7.51233e-15 0)
(1 -1.47251e-15 0)
(1 -3.62715e-15 0)
(1 6.00939e-15 0)
(1 2.5268e-15 0)
(1 1.34009e-14 0)
(1 1.97641e-15 0)
(1 6.29977e-15 0)
(1 -4.11326e-16 0)
(1 4.44654e-15 0)
(1 1.15557e-14 0)
(1 -2.11464e-15 0)
(1 3.47263e-15 0)
(1 1.89672e-15 0)
(1 -5.99813e-15 0)
(1 -6.00263e-15 0)
(1 -8.41691e-16 0)
(1 -9.51705e-16 0)
(1 9.52468e-15 0)
(1 8.5148e-15 0)
(1 7.64481e-15 0)
(1 9.60222e-15 0)
(1 2.82957e-15 0)
(1 -8.14105e-15 0)
(1 -4.61087e-15 0)
(1 1.44685e-15 0)
(1 2.18992e-15 0)
(1 2.46899e-15 0)
(1 2.28703e-15 0)
(1 3.62681e-15 0)
(1 -4.74294e-17 0)
(1 -3.39932e-17 0)
(1 -1.61258e-15 0)
(1 1.70895e-15 0)
(1 3.50802e-15 0)
(1 -2.1244e-16 0)
(1 -1.02125e-14 0)
(1 -7.40781e-15 0)
(1 4.21085e-15 0)
(1 6.167e-15 0)
(1 7.02286e-15 0)
(1 8.9984e-15 0)
(1 2.38205e-15 0)
(1 -2.76882e-15 0)
(1 1.21718e-15 0)
(1 -2.6194e-15 0)
(1 1.03486e-15 0)
(1 -1.8899e-17 0)
(1 2.74837e-15 0)
(1 3.17976e-15 0)
(1 2.07017e-15 0)
(1 5.69212e-16 0)
(1 3.52377e-15 0)
(1 -9.03536e-16 0)
(1 -2.18056e-15 0)
(1 -1.48551e-15 0)
(1 -5.10428e-16 0)
(1 1.37942e-15 0)
(1 4.73962e-15 0)
(1 -9.26888e-16 0)
(1 3.26763e-15 0)
(1 3.03427e-15 0)
(1 -4.7131e-15 0)
(1 -8.83341e-16 0)
(1 2.55388e-15 0)
(1 1.68695e-15 0)
(1 3.66763e-15 0)
(1 7.9792e-15 0)
(1 7.03553e-15 0)
(1 3.85809e-15 0)
(1 8.18625e-15 0)
(1 4.05634e-15 0)
(1 6.44737e-15 0)
(1 3.71481e-15 0)
(1 -7.36805e-16 0)
(1 9.1971e-16 0)
(1 9.67524e-16 0)
(1 1.96499e-15 0)
(1 2.31401e-15 0)
(1 -1.14745e-15 0)
(1 -7.91046e-16 0)
(1 -3.08545e-16 0)
(1 3.46121e-15 0)
(1 3.68182e-15 0)
(1 1.86381e-15 0)
(1 3.09048e-16 0)
(1 -8.96719e-16 0)
(1 5.01266e-15 0)
(1 5.95744e-15 0)
(1 7.58051e-15 0)
(1 7.14139e-15 0)
(1 -2.28724e-15 0)
(1 3.5105e-15 0)
(1 -3.61049e-15 0)
(1 8.69124e-15 0)
(1 -5.3784e-15 0)
(1 -4.46514e-15 0)
(1 -4.29142e-15 0)
(1 -8.09869e-15 0)
(1 -2.57959e-15 0)
(1 -1.92481e-16 0)
(1 -2.92376e-15 0)
(1 -3.32388e-15 0)
(1 1.94131e-15 0)
(1 8.89355e-15 0)
(1 1.26442e-14 0)
(1 4.19279e-15 0)
(1 4.11019e-15 0)
(1 2.24552e-15 0)
(1 4.85518e-15 0)
(1 5.81512e-15 0)
(1 3.80614e-16 0)
(1 -5.12935e-15 0)
(1 -3.18186e-15 0)
(1 3.63049e-15 0)
(1 1.36375e-15 0)
(1 2.13263e-15 0)
(1 -5.01863e-15 0)
(1 6.32717e-15 0)
(1 -7.61875e-15 0)
(1 6.38916e-16 0)
(1 7.77591e-15 0)
(1 3.77271e-15 0)
(1 1.77282e-17 0)
(1 -4.54455e-15 0)
(1 2.23688e-15 0)
(1 1.95005e-15 0)
(1 5.82282e-15 0)
(1 4.63397e-15 0)
(1 2.49447e-15 0)
(1 -9.83729e-15 0)
(1 -2.1707e-15 0)
(1 3.61185e-16 0)
(1 -1.04525e-15 0)
(1 4.81709e-15 0)
(1 8.84149e-15 0)
(1 5.82959e-15 0)
(1 8.43051e-16 0)
(1 8.55125e-16 0)
(1 -6.04715e-15 0)
(1 -5.358e-16 0)
(1 -1.54039e-15 0)
(1 3.98664e-15 0)
(1 1.37236e-14 0)
(1 1.15014e-14 0)
(1 1.79019e-15 0)
(1 -9.099e-16 0)
(1 2.42098e-15 0)
(1 3.83997e-15 0)
(1 -2.05023e-15 0)
(1 1.4803e-15 0)
(1 3.9594e-15 0)
(1 2.0695e-15 0)
(1 3.74799e-15 0)
(1 2.28692e-16 0)
(1 5.19728e-15 0)
(1 3.3774e-15 0)
(1 3.65534e-15 0)
(1 -3.75605e-17 0)
(1 6.79016e-16 0)
(1 -2.47671e-15 0)
(1 4.96482e-15 0)
(1 7.96644e-15 0)
(1 4.80636e-15 0)
(1 2.89411e-15 0)
(1 4.92625e-15 0)
(1 1.24808e-14 0)
(1 1.19133e-14 0)
(1 9.01106e-15 0)
(1 2.50707e-15 0)
(1 -1.87767e-15 0)
(1 -4.68876e-15 0)
(1 -1.91812e-15 0)
(1 4.89441e-16 0)
(1 3.83988e-15 0)
(1 -4.18751e-16 0)
(1 -6.9071e-16 0)
(1 -1.7389e-15 0)
(1 2.05906e-15 0)
(1 -3.7261e-15 0)
(1 -1.90472e-15 0)
(1 3.3408e-15 0)
(1 -2.50664e-15 0)
(1 1.3663e-15 0)
(1 9.65249e-16 0)
(1 -7.43417e-16 0)
(1 -1.52315e-15 0)
(1 3.07073e-15 0)
(1 9.16907e-15 0)
(1 7.84827e-15 0)
(1 1.07164e-14 0)
(1 -3.28577e-15 0)
(1 6.1944e-15 0)
(1 -4.87643e-15 0)
(1 -8.26107e-15 0)
(1 -3.10762e-15 0)
(1 -6.37416e-15 0)
(1 -1.06792e-15 0)
(1 -8.55159e-15 0)
(1 -5.18685e-15 0)
(1 -1.69637e-15 0)
(1 7.62149e-16 0)
(1 5.39992e-15 0)
(1 6.89079e-15 0)
(1 1.56418e-14 0)
(1 1.97663e-15 0)
(1 1.20558e-14 0)
(1 6.21645e-15 0)
(1 1.91362e-14 0)
(1 3.60404e-15 0)
(1 -5.20793e-15 0)
(1 -8.67802e-15 0)
(1 -3.55266e-16 0)
(1 2.59322e-15 0)
(1 2.71925e-15 0)
(1 -2.19935e-15 0)
(1 -6.5832e-16 0)
(1 -1.19407e-14 0)
(1 -9.75427e-15 0)
(1 -4.95774e-15 0)
(1 -4.43805e-15 0)
(1 -7.1457e-15 0)
(1 4.30136e-15 0)
(1 3.96589e-15 0)
(1 8.68611e-15 0)
(1 2.84803e-15 0)
(1 9.29486e-15 0)
(1 4.03633e-15 0)
(1 2.76748e-15 0)
(1 -1.72814e-15 0)
(1 -3.96761e-15 0)
(1 4.76553e-15 0)
(1 1.08584e-14 0)
(1 6.62284e-15 0)
(1 7.54778e-15 0)
(1 1.24811e-14 0)
(1 1.59814e-14 0)
(1 5.23041e-15 0)
(1 -9.46627e-15 0)
(1 -9.72853e-15 0)
(1 -6.6646e-15 0)
(1 -4.39332e-16 0)
(1 -4.45659e-16 0)
(1 7.52788e-15 0)
(1 3.52288e-15 0)
(1 3.57153e-16 0)
(1 -1.75655e-17 0)
(1 3.84353e-15 0)
(1 9.88417e-15 0)
(1 5.12165e-15 0)
(1 8.59967e-15 0)
(1 3.93984e-15 0)
(1 4.22625e-15 0)
(1 -4.98746e-15 0)
(1 -7.81825e-15 0)
(1 -8.5951e-16 0)
(1 7.94539e-15 0)
(1 1.15193e-14 0)
(1 1.4868e-14 0)
(1 1.30237e-14 0)
(1 1.22602e-14 0)
(1 4.56364e-15 0)
(1 1.02651e-14 0)
(1 2.64569e-15 0)
(1 -1.42165e-15 0)
(1 -4.06062e-15 0)
(1 1.80156e-15 0)
(1 3.45836e-15 0)
(1 2.18246e-15 0)
(1 3.7356e-15 0)
(1 6.58212e-15 0)
(1 -2.50591e-16 0)
(1 1.14254e-14 0)
(1 4.43348e-15 0)
(1 4.37682e-15 0)
(1 -7.48121e-15 0)
(1 -3.89414e-15 0)
(1 1.63945e-16 0)
(1 1.3076e-15 0)
(1 -1.21809e-15 0)
(1 -3.01234e-15 0)
(1 -2.85312e-15 0)
(1 4.12197e-16 0)
(1 5.92046e-15 0)
(1 4.0928e-15 0)
(1 1.02531e-14 0)
(1 4.77565e-15 0)
(1 1.17494e-14 0)
(1 1.64734e-14 0)
(1 2.01182e-14 0)
(1 1.89192e-14 0)
(1 1.2497e-15 0)
(1 2.09184e-15 0)
(1 2.57935e-15 0)
(1 -1.18157e-15 0)
(1 -4.90888e-15 0)
(1 -4.47395e-15 0)
(1 1.37803e-15 0)
(1 5.87831e-15 0)
(1 -2.21586e-15 0)
(1 1.14945e-15 0)
(1 7.21183e-15 0)
(1 6.11754e-15 0)
(1 -1.65152e-15 0)
(1 2.91478e-15 0)
(1 -3.09355e-15 0)
(1 -5.26417e-15 0)
(1 4.84754e-15 0)
(1 5.23071e-15 0)
(1 2.65905e-15 0)
(1 -1.16088e-14 0)
(1 -7.71633e-15 0)
(1 9.41586e-16 0)
(1 4.83798e-15 0)
(1 2.5506e-15 0)
(1 8.60974e-15 0)
(1 1.43998e-15 0)
(1 -1.96137e-15 0)
(1 -8.97663e-15 0)
(1 5.48764e-16 0)
(1 -2.82779e-15 0)
(1 7.41838e-16 0)
(1 -3.56625e-15 0)
(1 -3.01897e-15 0)
(1 3.00189e-15 0)
(1 -3.93973e-15 0)
(1 2.58164e-15 0)
(1 -2.77771e-15 0)
(1 2.58078e-15 0)
(1 -1.48985e-15 0)
(1 -2.10461e-16 0)
(1 -9.65806e-16 0)
(1 5.79153e-15 0)
(1 5.57146e-15 0)
(1 9.60412e-15 0)
(1 3.53181e-15 0)
(1 8.26426e-15 0)
(1 7.40776e-16 0)
(1 -4.28047e-15 0)
(1 6.07709e-15 0)
(1 2.23818e-15 0)
(1 6.00905e-15 0)
(1 2.18894e-15 0)
(1 3.85888e-15 0)
(1 3.89527e-16 0)
(1 6.32876e-15 0)
(1 3.56116e-15 0)
(1 -1.68114e-15 0)
(1 7.16518e-15 0)
(1 9.99621e-15 0)
(1 2.83894e-15 0)
(1 4.88206e-15 0)
(1 5.52214e-15 0)
(1 9.39036e-15 0)
(1 1.1601e-14 0)
(1 3.02004e-16 0)
(1 3.70011e-16 0)
(1 7.19892e-15 0)
(1 9.57665e-15 0)
(1 1.28982e-14 0)
(1 9.04651e-15 0)
(1 7.13999e-15 0)
(1 2.85007e-15 0)
(1 -1.67276e-15 0)
(1 -4.04047e-16 0)
(1 6.79712e-17 0)
(1 7.6083e-15 0)
(1 6.08744e-15 0)
(1 7.23428e-15 0)
(1 8.4739e-15 0)
(1 7.88717e-15 0)
(1 4.82368e-15 0)
(1 3.31846e-15 0)
(1 -2.76856e-16 0)
(1 -2.39072e-15 0)
(1 -5.36536e-15 0)
(1 -1.41699e-15 0)
(1 4.54135e-15 0)
(1 -4.68786e-15 0)
(1 1.17941e-15 0)
(1 1.53471e-15 0)
(1 -1.84789e-15 0)
(1 5.70049e-15 0)
(1 8.5879e-15 0)
(1 3.9576e-15 0)
(1 9.71144e-15 0)
(1 2.0771e-15 0)
(1 1.44564e-14 0)
(1 1.7334e-14 0)
(1 2.30669e-14 0)
(1 1.96362e-14 0)
(1 -7.87864e-16 0)
(1 -5.00581e-15 0)
(1 1.0497e-15 0)
(1 8.35842e-15 0)
(1 -4.87019e-15 0)
(1 6.04523e-16 0)
(1 8.47048e-16 0)
(1 1.98797e-15 0)
(1 1.31473e-15 0)
(1 -1.08217e-14 0)
(1 -2.09487e-15 0)
(1 -3.932e-15 0)
(1 -4.33474e-15 0)
(1 8.61966e-16 0)
(1 6.43512e-15 0)
(1 7.82039e-15 0)
(1 5.97364e-15 0)
(1 -4.18874e-15 0)
(1 -7.17008e-16 0)
(1 -8.44681e-15 0)
(1 2.09017e-15 0)
(1 -9.57504e-17 0)
(1 4.0453e-15 0)
(1 -8.08254e-16 0)
(1 2.63481e-15 0)
(1 2.40549e-15 0)
(1 1.88367e-15 0)
(1 3.1034e-16 0)
(1 3.0001e-15 0)
(1 1.58049e-15 0)
(1 8.32177e-15 0)
(1 -1.1567e-14 0)
(1 -7.85771e-15 0)
(1 -3.55248e-15 0)
(1 2.72345e-15 0)
(1 2.14472e-15 0)
(1 3.65667e-15 0)
(1 3.33758e-15 0)
(1 2.70643e-15 0)
(1 3.88228e-15 0)
(1 4.01632e-15 0)
(1 -6.32475e-15 0)
(1 5.9699e-15 0)
(1 -2.87368e-15 0)
(1 3.06707e-15 0)
(1 3.39443e-15 0)
(1 1.93509e-15 0)
(1 -9.01854e-16 0)
(1 6.72674e-15 0)
(1 2.95541e-15 0)
(1 3.95383e-15 0)
(1 6.27663e-15 0)
(1 1.21022e-14 0)
(1 4.5281e-15 0)
(1 9.58665e-15 0)
(1 4.14948e-15 0)
(1 4.32435e-15 0)
(1 1.36516e-15 0)
(1 1.35523e-14 0)
(1 -1.28714e-15 0)
(1 9.27862e-15 0)
(1 -9.73135e-17 0)
(1 8.26661e-15 0)
(1 4.15586e-15 0)
(1 5.47431e-15 0)
(1 1.09925e-15 0)
(1 5.98447e-15 0)
(1 2.3789e-15 0)
(1 8.7813e-15 0)
(1 5.10725e-15 0)
(1 1.34153e-14 0)
(1 1.64915e-15 0)
(1 3.12874e-15 0)
(1 -1.20017e-15 0)
(1 -3.78964e-15 0)
(1 5.20185e-15 0)
(1 1.22822e-14 0)
(1 8.35322e-15 0)
(1 2.69897e-15 0)
(1 2.65069e-15 0)
(1 8.65489e-15 0)
(1 -1.06299e-15 0)
(1 2.32947e-15 0)
(1 -1.12909e-15 0)
(1 4.23506e-15 0)
(1 7.09495e-16 0)
(1 -8.18445e-17 0)
(1 3.77251e-15 0)
(1 1.84199e-15 0)
(1 -6.55279e-16 0)
(1 1.3678e-15 0)
(1 1.98168e-15 0)
(1 2.01417e-15 0)
(1 1.06477e-15 0)
(1 4.4272e-15 0)
(1 1.63088e-15 0)
(1 8.22423e-15 0)
(1 1.20424e-14 0)
(1 1.61159e-14 0)
(1 1.63784e-14 0)
(1 1.6324e-15 0)
(1 -7.29741e-15 0)
(1 5.08314e-15 0)
(1 -5.70966e-16 0)
(1 3.23669e-15 0)
(1 -6.91966e-16 0)
(1 -5.58424e-15 0)
(1 -3.88289e-15 0)
(1 2.86484e-15 0)
(1 5.97997e-15 0)
(1 5.33318e-15 0)
(1 -2.6302e-15 0)
(1 -3.25609e-15 0)
(1 -9.89481e-15 0)
(1 1.10086e-15 0)
(1 1.32802e-14 0)
(1 -1.63919e-16 0)
(1 -6.84471e-15 0)
(1 -2.5218e-15 0)
(1 -9.27573e-15 0)
(1 -5.09917e-15 0)
(1 1.64341e-15 0)
(1 4.22013e-15 0)
(1 -1.71965e-15 0)
(1 -4.8245e-17 0)
(1 6.56899e-15 0)
(1 5.01982e-17 0)
(1 2.65416e-15 0)
(1 6.77451e-15 0)
(1 5.95751e-15 0)
(1 4.58056e-15 0)
(1 -6.36378e-16 0)
(1 -2.30779e-15 0)
(1 -6.4185e-15 0)
(1 -6.46986e-15 0)
(1 -6.96752e-15 0)
(1 -1.33952e-15 0)
(1 -1.56634e-15 0)
(1 4.99089e-15 0)
(1 2.52518e-15 0)
(1 4.47666e-15 0)
(1 -3.38125e-15 0)
(1 -3.03787e-15 0)
(1 -9.6924e-15 0)
(1 3.4728e-15 0)
(1 1.08758e-14 0)
(1 1.22401e-14 0)
(1 6.73679e-15 0)
(1 5.5866e-15 0)
(1 4.92145e-15 0)
(1 2.3658e-15 0)
(1 5.96825e-15 0)
(1 8.41609e-15 0)
(1 1.33897e-14 0)
(1 8.07533e-15 0)
(1 8.92006e-16 0)
(1 -2.56909e-16 0)
(1 -3.40466e-15 0)
(1 3.00951e-15 0)
(1 9.8797e-15 0)
(1 7.9345e-15 0)
(1 9.20627e-15 0)
(1 3.08421e-15 0)
(1 -4.67072e-15 0)
(1 2.86197e-15 0)
(1 -2.95455e-16 0)
(1 4.2763e-15 0)
(1 7.8155e-15 0)
(1 4.1112e-15 0)
(1 8.40596e-15 0)
(1 5.70634e-15 0)
(1 1.02246e-15 0)
(1 5.68739e-15 0)
(1 2.37351e-15 0)
(1 4.84032e-15 0)
(1 3.91162e-16 0)
(1 1.06283e-14 0)
(1 1.06007e-14 0)
(1 2.82066e-15 0)
(1 1.39046e-15 0)
(1 8.23992e-15 0)
(1 3.98102e-15 0)
(1 4.52523e-15 0)
(1 1.59662e-15 0)
(1 5.12495e-15 0)
(1 -6.47053e-16 0)
(1 -4.37485e-15 0)
(1 5.05283e-15 0)
(1 -3.69927e-16 0)
(1 1.84359e-15 0)
(1 2.81812e-15 0)
(1 2.55772e-15 0)
(1 3.65413e-15 0)
(1 4.24292e-15 0)
(1 7.56261e-15 0)
(1 9.83909e-15 0)
(1 1.07823e-14 0)
(1 1.29786e-14 0)
(1 4.97841e-15 0)
(1 1.0021e-14 0)
(1 5.97636e-15 0)
(1 -2.93034e-15 0)
(1 1.17988e-15 0)
(1 -1.55398e-15 0)
(1 4.58394e-15 0)
(1 1.73803e-15 0)
(1 2.46195e-16 0)
(1 -9.61737e-16 0)
(1 2.55361e-16 0)
(1 3.5046e-15 0)
(1 4.37197e-15 0)
(1 9.03298e-15 0)
(1 9.20783e-15 0)
(1 -4.84481e-16 0)
(1 -4.08444e-15 0)
(1 -8.76343e-15 0)
(1 -1.19478e-14 0)
(1 -1.67124e-14 0)
(1 -3.30411e-15 0)
(1 -6.64513e-15 0)
(1 3.04494e-15 0)
(1 -5.04252e-16 0)
(1 3.50838e-15 0)
(1 3.35619e-15 0)
(1 5.9563e-15 0)
(1 -8.47247e-16 0)
(1 8.04055e-15 0)
(1 -1.89442e-15 0)
(1 -6.44861e-15 0)
(1 -3.99609e-15 0)
(1 -2.1671e-15 0)
(1 2.45074e-15 0)
(1 -3.23229e-15 0)
(1 -2.96554e-15 0)
(1 -4.38688e-15 0)
(1 5.57839e-15 0)
(1 3.54608e-15 0)
(1 2.36569e-16 0)
(1 4.83524e-15 0)
(1 -2.62903e-15 0)
(1 -1.01614e-14 0)
(1 1.70731e-15 0)
(1 -9.31706e-15 0)
(1 -1.36756e-15 0)
(1 5.98859e-15 0)
(1 6.24472e-15 0)
(1 3.23848e-15 0)
(1 1.00729e-14 0)
(1 4.60858e-15 0)
(1 8.57852e-15 0)
(1 -1.53396e-15 0)
(1 1.09145e-14 0)
(1 7.9172e-15 0)
(1 9.45618e-15 0)
(1 4.24513e-15 0)
(1 5.05698e-15 0)
(1 1.57574e-15 0)
(1 3.27146e-16 0)
(1 -3.19885e-15 0)
(1 3.32813e-15 0)
(1 -1.58288e-15 0)
(1 8.04803e-15 0)
(1 1.49604e-14 0)
(1 1.53924e-14 0)
(1 6.5918e-15 0)
(1 -7.31588e-17 0)
(1 -5.15599e-15 0)
(1 -6.46021e-16 0)
(1 5.12601e-16 0)
(1 4.34937e-15 0)
(1 2.58215e-15 0)
(1 3.37712e-15 0)
(1 4.19652e-15 0)
(1 8.2818e-15 0)
(1 1.26184e-14 0)
(1 1.13959e-15 0)
(1 -1.37421e-15 0)
(1 6.09474e-15 0)
(1 2.66013e-15 0)
(1 3.57354e-15 0)
(1 3.0643e-15 0)
(1 2.36303e-15 0)
(1 1.86999e-15 0)
(1 5.1871e-15 0)
(1 4.87432e-15 0)
(1 3.11071e-15 0)
(1 -8.25171e-16 0)
(1 -6.74988e-16 0)
(1 6.86985e-16 0)
(1 4.92254e-15 0)
(1 -5.54594e-16 0)
(1 2.44417e-15 0)
(1 -1.55428e-15 0)
(1 6.60891e-16 0)
(1 9.61761e-16 0)
(1 6.28684e-15 0)
(1 8.55923e-15 0)
(1 1.12139e-14 0)
(1 5.92705e-15 0)
(1 8.66772e-15 0)
(1 -3.76214e-15 0)
(1 1.14312e-14 0)
(1 -8.63244e-15 0)
(1 1.20589e-15 0)
(1 7.02824e-16 0)
(1 3.26427e-15 0)
(1 -7.17308e-16 0)
(1 3.59714e-15 0)
(1 1.74976e-15 0)
(1 -2.42979e-16 0)
(1 -7.85911e-16 0)
(1 9.86378e-15 0)
(1 6.00958e-15 0)
(1 4.60129e-15 0)
(1 -8.8766e-15 0)
(1 -1.26476e-14 0)
(1 -4.87071e-15 0)
(1 -2.98975e-15 0)
(1 -5.69852e-15 0)
(1 -3.01443e-16 0)
(1 -3.27694e-15 0)
(1 -7.97085e-15 0)
(1 -5.60249e-16 0)
(1 6.11655e-15 0)
(1 1.14639e-14 0)
(1 -6.44559e-15 0)
(1 1.77604e-15 0)
(1 -1.97353e-15 0)
(1 -1.00228e-15 0)
(1 -4.12145e-16 0)
(1 3.87291e-15 0)
(1 1.10301e-15 0)
(1 3.33016e-15 0)
(1 -5.178e-15 0)
(1 1.05045e-15 0)
(1 6.96916e-15 0)
(1 3.90272e-15 0)
(1 -6.51479e-16 0)
(1 8.5401e-16 0)
(1 -5.81957e-15 0)
(1 -6.97557e-15 0)
(1 -3.38915e-15 0)
(1 -2.05989e-15 0)
(1 9.90702e-15 0)
(1 1.47823e-15 0)
(1 2.95818e-15 0)
(1 3.97415e-15 0)
(1 1.11296e-14 0)
(1 4.17408e-15 0)
(1 7.01631e-15 0)
(1 -2.0191e-15 0)
(1 6.46387e-15 0)
(1 5.31792e-15 0)
(1 -5.96817e-15 0)
(1 4.17935e-15 0)
(1 6.35228e-15 0)
(1 1.37254e-14 0)
(1 1.31684e-14 0)
(1 8.58519e-15 0)
(1 2.61245e-16 0)
(1 -1.13576e-15 0)
(1 -3.27026e-15 0)
(1 9.15248e-16 0)
(1 4.90562e-15 0)
(1 2.5521e-15 0)
(1 1.22312e-14 0)
(1 -1.9382e-17 0)
(1 3.93423e-15 0)
(1 -1.47831e-15 0)
(1 2.11916e-15 0)
(1 1.10037e-14 0)
(1 9.16001e-15 0)
(1 6.40874e-15 0)
(1 1.23678e-14 0)
(1 1.12997e-14 0)
(1 6.55175e-15 0)
(1 4.81758e-15 0)
(1 5.20153e-15 0)
(1 6.80511e-15 0)
(1 8.87061e-15 0)
(1 9.23561e-16 0)
(1 7.80375e-16 0)
(1 2.81167e-15 0)
(1 5.34793e-15 0)
(1 4.84866e-15 0)
(1 2.45739e-15 0)
(1 3.4864e-15 0)
(1 1.38117e-15 0)
(1 4.86436e-15 0)
(1 6.11457e-15 0)
(1 -3.26079e-15 0)
(1 8.62475e-16 0)
(1 1.47979e-15 0)
(1 4.42535e-15 0)
(1 5.895e-16 0)
(1 5.1586e-15 0)
(1 7.47993e-15 0)
(1 7.30305e-15 0)
(1 1.23406e-14 0)
(1 1.04773e-14 0)
(1 1.0939e-15 0)
(1 1.78608e-15 0)
(1 1.12098e-14 0)
(1 9.88721e-16 0)
(1 3.69633e-15 0)
(1 -5.21962e-15 0)
(1 -7.93662e-15 0)
(1 -6.27926e-15 0)
(1 3.26561e-15 0)
(1 1.30151e-14 0)
(1 4.30492e-15 0)
(1 -2.0361e-15 0)
(1 -1.02494e-14 0)
(1 -9.4296e-15 0)
(1 -1.43226e-14 0)
(1 -1.30967e-14 0)
(1 -1.90122e-15 0)
(1 -2.43875e-15 0)
(1 -1.39249e-14 0)
(1 5.26311e-15 0)
(1 -8.11653e-15 0)
(1 8.30933e-15 0)
(1 -6.98745e-16 0)
(1 1.05233e-14 0)
(1 1.44484e-14 0)
(1 5.61804e-15 0)
(1 -4.11496e-15 0)
(1 -2.09951e-15 0)
(1 -3.40438e-15 0)
(1 2.17702e-15 0)
(1 1.3597e-15 0)
(1 2.34255e-15 0)
(1 -2.11051e-15 0)
(1 -1.2361e-14 0)
(1 -4.85371e-15 0)
(1 -1.28686e-15 0)
(1 1.17018e-16 0)
(1 2.00481e-15 0)
(1 -8.16261e-17 0)
(1 2.36198e-15 0)
(1 5.12948e-15 0)
(1 4.19466e-15 0)
(1 3.02462e-15 0)
(1 2.40179e-15 0)
(1 1.60036e-15 0)
(1 3.77319e-15 0)
(1 4.71077e-15 0)
(1 1.08362e-14 0)
(1 1.50172e-15 0)
(1 -1.02292e-15 0)
(1 2.15928e-15 0)
(1 -8.56775e-16 0)
(1 8.5766e-16 0)
(1 -9.35608e-16 0)
(1 9.43092e-15 0)
(1 -2.53231e-15 0)
(1 5.18822e-15 0)
(1 1.0627e-14 0)
(1 8.35723e-15 0)
(1 6.53867e-15 0)
(1 1.05892e-14 0)
(1 2.38839e-15 0)
(1 5.81366e-15 0)
(1 2.43332e-15 0)
(1 4.38691e-15 0)
(1 7.02892e-15 0)
(1 8.45798e-15 0)
(1 8.11557e-15 0)
(1 2.41254e-15 0)
(1 7.7946e-15 0)
(1 7.889e-15 0)
(1 1.34092e-14 0)
(1 7.64276e-15 0)
(1 7.57233e-15 0)
(1 8.41409e-15 0)
(1 1.06598e-14 0)
(1 1.1813e-14 0)
(1 3.21516e-15 0)
(1 5.1673e-15 0)
(1 1.02968e-14 0)
(1 4.50299e-15 0)
(1 2.1835e-15 0)
(1 4.36596e-15 0)
(1 3.24603e-15 0)
(1 -3.50729e-15 0)
(1 -6.12284e-15 0)
(1 -1.6394e-15 0)
(1 -5.32258e-15 0)
(1 8.71007e-16 0)
(1 -3.8068e-15 0)
(1 9.92773e-16 0)
(1 3.75788e-15 0)
(1 5.1849e-15 0)
(1 7.93602e-15 0)
(1 1.13046e-14 0)
(1 8.26907e-15 0)
(1 7.04852e-15 0)
(1 5.14101e-15 0)
(1 1.38989e-14 0)
(1 1.11825e-14 0)
(1 -2.10547e-15 0)
(1 -3.09698e-15 0)
(1 4.39499e-17 0)
(1 6.53227e-15 0)
(1 -3.09078e-15 0)
(1 2.90089e-15 0)
(1 9.39387e-15 0)
(1 4.59068e-15 0)
(1 5.58349e-15 0)
(1 2.71908e-15 0)
(1 -7.05829e-15 0)
(1 -8.61838e-15 0)
(1 -9.88686e-15 0)
(1 -7.44699e-15 0)
(1 -4.86637e-15 0)
(1 3.31147e-15 0)
(1 -9.02627e-15 0)
(1 -1.26264e-14 0)
(1 -6.50445e-15 0)
(1 -2.56564e-15 0)
(1 2.88093e-15 0)
(1 1.01418e-14 0)
(1 -6.706e-16 0)
(1 -9.88307e-16 0)
(1 -6.80749e-15 0)
(1 4.40359e-15 0)
(1 2.39548e-15 0)
(1 3.2316e-15 0)
(1 1.27028e-15 0)
(1 2.22593e-15 0)
(1 -3.78451e-15 0)
(1 4.37055e-16 0)
(1 1.40675e-15 0)
(1 1.14679e-15 0)
(1 -4.69891e-16 0)
(1 1.44876e-15 0)
(1 -3.96791e-16 0)
(1 9.08678e-16 0)
(1 5.03468e-15 0)
(1 1.10712e-14 0)
(1 8.34256e-15 0)
(1 1.86001e-15 0)
(1 -7.75445e-16 0)
(1 -1.19645e-14 0)
(1 -4.66279e-15 0)
(1 -1.15167e-14 0)
(1 1.452e-16 0)
(1 4.80937e-15 0)
(1 3.90451e-15 0)
(1 9.98929e-17 0)
(1 8.9379e-15 0)
(1 6.8081e-15 0)
(1 1.51048e-15 0)
(1 5.9972e-16 0)
(1 2.20905e-15 0)
(1 3.83196e-15 0)
(1 1.15942e-14 0)
(1 1.13618e-14 0)
(1 8.83153e-15 0)
(1 1.10899e-15 0)
(1 -3.59318e-15 0)
(1 -6.55464e-15 0)
(1 -1.42128e-15 0)
(1 6.08914e-15 0)
(1 9.17975e-15 0)
(1 -2.54568e-15 0)
(1 7.57862e-15 0)
(1 -2.40065e-15 0)
(1 1.20929e-14 0)
(1 7.30974e-15 0)
(1 2.4216e-15 0)
(1 9.55478e-15 0)
(1 6.70951e-15 0)
(1 6.02627e-15 0)
(1 7.1594e-15 0)
(1 5.03904e-15 0)
(1 2.47587e-15 0)
(1 -3.61908e-15 0)
(1 9.45744e-15 0)
(1 5.74298e-15 0)
(1 1.25702e-15 0)
(1 2.07501e-15 0)
(1 4.0913e-15 0)
(1 6.42261e-15 0)
(1 2.66533e-15 0)
(1 6.43141e-17 0)
(1 -4.11933e-15 0)
(1 -3.86715e-15 0)
(1 2.76527e-16 0)
(1 5.20488e-15 0)
(1 5.04868e-15 0)
(1 6.23489e-16 0)
(1 6.82482e-16 0)
(1 1.73602e-15 0)
(1 8.69049e-15 0)