/*--------------------------------*- C++ -*----------------------------------*\
| =========                 |                                                 |
| \\      /  F ield         | OpenFOAM: The Open Source CFD Toolbox           |
|  \\    /   O peration     | Version:  v2012                                 |
|   \\  /    A nd           | Website:  www.openfoam.com                      |
|    \\/     M anipulation  |                                                 |
\*---------------------------------------------------------------------------*/
FoamFile
{
    version     2.0;
    format      ascii;
    class       surfaceScalarField;
    location    "11";
    object      phi;
}
// * * * * * * * * * * * * * * * * * * * * * * * * * * * * * * * * * * * * * //

dimensions      [0 3 -1 0 0 0 0];
oriented        oriented;


internalField   nonuniform List<scalar> 
130560
(
3.64742e-06
-3.64742e-06
7.29499e-06
-3.64756e-06
1.09428e-05
-3.64783e-06
1.45911e-05
-3.64824e-06
1.82398e-05
-3.64878e-06
2.18893e-05
-3.64944e-06
2.55395e-05
-3.65023e-06
2.91907e-05
-3.65115e-06
3.28428e-05
-3.65217e-06
3.64961e-05
-3.65331e-06
4.01507e-05
-3.65455e-06
4.38066e-05
-3.65588e-06
4.74639e-05
-3.6573e-06
5.11227e-05
-3.6588e-06
5.4783e-05
-3.66036e-06
5.8445e-05
-3.66198e-06
6.21086e-05
-3.66365e-06
6.5774e-05
-3.66534e-06
6.94411e-05
-3.66706e-06
7.31098e-05
-3.66879e-06
7.67803e-05
-3.6705e-06
8.04525e-05
-3.67219e-06
8.41264e-05
-3.67384e-06
8.78018e-05
-3.67544e-06
9.14788e-05
-3.67696e-06
9.51572e-05
-3.67838e-06
9.88368e-05
-3.67969e-06
0.000102518
-3.68086e-06
0.0001062
-3.68188e-06
0.000109882
-3.68272e-06
0.000113566
-3.68337e-06
0.000117249
-3.68378e-06
0.000120933
-3.68395e-06
0.000124617
-3.68385e-06
0.000128301
-3.68345e-06
0.000131983
-3.68272e-06
0.000135665
-3.68164e-06
0.000139345
-3.68017e-06
0.000143024
-3.6783e-06
0.0001467
-3.67599e-06
0.000150373
-3.6732e-06
0.000154043
-3.66992e-06
0.000157709
-3.6661e-06
0.00016137
-3.66172e-06
0.000165027
-3.65674e-06
0.000168678
-3.65113e-06
0.000172323
-3.64486e-06
0.000175961
-3.6379e-06
0.000179591
-3.6302e-06
0.000183213
-3.62173e-06
0.000186826
-3.61247e-06
0.000190428
-3.60237e-06
0.000194019
-3.59141e-06
0.000197599
-3.57954e-06
0.000201166
-3.56672e-06
0.000204718
-3.55294e-06
0.000208257
-3.53815e-06
0.000211779
-3.52231e-06
0.000215284
-3.5054e-06
0.000218772
-3.48738e-06
0.00022224
-3.46821e-06
0.000225688
-3.44787e-06
0.000229114
-3.42632e-06
0.000232518
-3.40354e-06
0.000235897
-3.37949e-06
0.000239251
-3.35414e-06
0.000242579
-3.32747e-06
0.000245878
-3.29945e-06
0.000249148
-3.27006e-06
0.000252388
-3.23927e-06
0.000255595
-3.20706e-06
0.000258768
-3.17342e-06
0.000261906
-3.13831e-06
0.000265008
-3.10173e-06
0.000268072
-3.06366e-06
0.000271096
-3.02409e-06
0.000274079
-2.98301e-06
0.000277019
-2.94041e-06
0.000279916
-2.89628e-06
0.000282766
-2.85063e-06
0.00028557
-2.80344e-06
0.000288324
-2.75473e-06
0.000291029
-2.7045e-06
0.000293682
-2.65275e-06
0.000296281
-2.5995e-06
0.000298826
-2.54475e-06
0.000301314
-2.48852e-06
0.000303745
-2.43084e-06
0.000306117
-2.37172e-06
0.000308428
-2.31118e-06
0.000310677
-2.24925e-06
0.000312863
-2.18596e-06
0.000314985
-2.12135e-06
0.00031704
-2.05545e-06
0.000319028
-1.98829e-06
0.000320948
-1.91992e-06
0.000322799
-1.85037e-06
0.000324578
-1.7797e-06
0.000326286
-1.70795e-06
0.000327922
-1.63518e-06
0.000329483
-1.56142e-06
0.00033097
-1.48675e-06
0.000332381
-1.41121e-06
0.000333716
-1.33486e-06
0.000334973
-1.25776e-06
0.000336153
-1.17997e-06
0.000337255
-1.10156e-06
0.000338278
-1.02258e-06
0.000339221
-9.43113e-07
0.000340084
-8.63212e-07
0.000340867
-7.82946e-07
0.000341569
-7.02382e-07
0.000342191
-6.21588e-07
0.000342731
-5.40631e-07
0.000343191
-4.59579e-07
0.00034357
-3.785e-07
0.000343867
-2.97461e-07
0.000344084
-2.16528e-07
0.000344219
-1.35768e-07
0.000344275
-5.52466e-08
0.00034425
2.4972e-08
0.000344145
1.04824e-07
0.000343961
1.84248e-07
0.000343697
2.63181e-07
0.000343356
3.41566e-07
0.000342936
4.19344e-07
0.00034244
4.96459e-07
0.000341867
5.72856e-07
0.000341219
6.48483e-07
0.000340495
7.23289e-07
0.000339698
7.97227e-07
0.000338828
8.70249e-07
0.000337886
9.42313e-07
0.000336872
1.01338e-06
0.000335789
1.0834e-06
0.000334636
1.15234e-06
0.000333416
1.22017e-06
0.000332129
1.28686e-06
0.000330777
1.35237e-06
0.00032936
1.41669e-06
0.000327881
1.47977e-06
0.000326339
1.5416e-06
0.000324737
1.60217e-06
0.000323075
1.66144e-06
0.000321356
1.71941e-06
0.00031958
1.77606e-06
0.000317748
1.83139e-06
0.000315863
1.88537e-06
0.000313925
1.93802e-06
0.000311936
1.98931e-06
0.000309897
2.03925e-06
0.000307809
2.08783e-06
0.000305674
2.13507e-06
0.000303493
2.18095e-06
0.000301267
2.22549e-06
0.000298999
2.26869e-06
0.000296688
2.31056e-06
0.000294337
2.3511e-06
0.000291947
2.39034e-06
0.000289518
2.42828e-06
0.000287053
2.46493e-06
0.000284553
2.50031e-06
0.000282019
2.53444e-06
0.000279451
2.56733e-06
0.000276852
2.599e-06
0.000274223
2.62947e-06
0.000271564
2.65876e-06
0.000268877
2.68688e-06
0.000266163
2.71386e-06
0.000263424
2.73973e-06
0.000260659
2.7645e-06
0.000257871
2.78819e-06
0.00025506
2.81084e-06
0.000252228
2.83246e-06
0.000249374
2.85307e-06
0.000246502
2.87271e-06
0.00024361
2.89139e-06
0.000240701
2.90914e-06
0.000237775
2.92598e-06
0.000234833
2.94195e-06
0.000231876
2.95706e-06
0.000228905
2.97134e-06
0.00022592
2.98481e-06
0.000222923
2.9975e-06
0.000219913
3.00943e-06
0.000216893
3.02063e-06
0.000213861
3.03113e-06
0.00021082
3.04093e-06
0.00020777
3.05008e-06
0.000204712
3.05859e-06
0.000201645
3.06649e-06
0.000198572
3.0738e-06
0.000195491
3.08054e-06
0.000192404
3.08673e-06
0.000189312
3.0924e-06
0.000186214
3.09757e-06
0.000183112
3.10226e-06
0.000180006
3.10649e-06
0.000176895
3.11028e-06
0.000173782
3.11365e-06
0.000170665
3.11663e-06
0.000167546
3.11922e-06
0.000164424
3.12145e-06
0.000161301
3.12334e-06
0.000158176
3.12491e-06
0.00015505
3.12617e-06
0.000151923
3.12714e-06
0.000148795
3.12784e-06
0.000145667
3.12829e-06
0.000142538
3.12849e-06
0.00013941
3.12847e-06
0.000136281
3.12824e-06
0.000133154
3.12782e-06
0.000130026
3.12722e-06
0.0001269
3.12645e-06
0.000123774
3.12553e-06
0.00012065
3.12447e-06
0.000117527
3.12328e-06
0.000114405
3.12198e-06
0.000111284
3.12058e-06
0.000108165
3.11909e-06
0.000105047
3.11751e-06
0.000101932
3.11587e-06
9.88174e-05
3.11417e-06
9.5705e-05
3.11242e-06
9.25944e-05
3.11063e-06
8.94856e-05
3.10881e-06
8.63786e-05
3.10697e-06
8.32735e-05
3.10512e-06
8.01702e-05
3.10326e-06
7.70688e-05
3.10141e-06
7.39692e-05
3.09957e-06
7.08715e-05
3.09775e-06
6.77755e-05
3.09596e-06
6.46813e-05
3.09419e-06
6.15888e-05
3.09247e-06
5.84981e-05
3.09079e-06
5.54089e-05
3.08916e-06
5.23213e-05
3.08758e-06
4.92353e-05
3.08607e-06
4.61506e-05
3.08462e-06
4.30674e-05
3.08324e-06
3.99855e-05
3.08193e-06
3.69048e-05
3.0807e-06
3.38252e-05
3.07955e-06
3.07467e-05
3.07849e-06
2.76692e-05
3.07751e-06
2.45926e-05
3.07663e-06
2.15167e-05
3.07583e-06
1.84416e-05
3.07513e-06
1.53671e-05
3.07453e-06
1.22931e-05
3.07403e-06
9.21944e-06
3.07362e-06
6.14612e-06
3.07332e-06
3.07301e-06
3.07311e-06
3.07301e-06
3.64729e-06
-7.29472e-06
7.29472e-06
-7.29499e-06
1.09424e-05
-7.29554e-06
1.45905e-05
-7.29635e-06
1.82392e-05
-7.29743e-06
2.18885e-05
-7.29876e-06
2.55386e-05
-7.30035e-06
2.91896e-05
-7.30218e-06
3.28417e-05
-7.30424e-06
3.64949e-05
-7.30652e-06
4.01494e-05
-7.309e-06
4.38052e-05
-7.31167e-06
4.74624e-05
-7.31452e-06
5.11211e-05
-7.31752e-06
5.47814e-05
-7.32066e-06
5.84434e-05
-7.32392e-06
6.2107e-05
-7.32726e-06
6.57723e-05
-7.33067e-06
6.94394e-05
-7.33412e-06
7.31082e-05
-7.33758e-06
7.67787e-05
-7.34103e-06
8.04509e-05
-7.34443e-06
8.41248e-05
-7.34775e-06
8.78003e-05
-7.35095e-06
9.14774e-05
-7.35401e-06
9.51559e-05
-7.35687e-06
9.88357e-05
-7.35951e-06
0.000102517
-7.36188e-06
0.000106199
-7.36394e-06
0.000109882
-7.36565e-06
0.000113565
-7.36696e-06
0.000117249
-7.36782e-06
0.000120934
-7.36818e-06
0.000124618
-7.368e-06
0.000128301
-7.36722e-06
0.000131985
-7.36579e-06
0.000135667
-7.36366e-06
0.000139347
-7.36076e-06
0.000143026
-7.35704e-06
0.000146702
-7.35244e-06
0.000150376
-7.3469e-06
0.000154047
-7.34037e-06
0.000157713
-7.33276e-06
0.000161375
-7.32403e-06
0.000165033
-7.31411e-06
0.000168685
-7.30293e-06
0.00017233
-7.29042e-06
0.000175969
-7.27652e-06
0.0001796
-7.26116e-06
0.000183222
-7.24427e-06
0.000186836
-7.22578e-06
0.000190439
-7.20562e-06
0.000194031
-7.18372e-06
0.000197612
-7.16001e-06
0.000201179
-7.13442e-06
0.000204733
-7.10689e-06
0.000208273
-7.07734e-06
0.000211796
-7.0457e-06
0.000215302
-7.01191e-06
0.000218791
-6.97589e-06
0.00022226
-6.9376e-06
0.000225709
-6.89695e-06
0.000229137
-6.85388e-06
0.000232542
-6.80834e-06
0.000235923
-6.76027e-06
0.000239278
-6.70961e-06
0.000242607
-6.65629e-06
0.000245908
-6.60028e-06
0.000249179
-6.54152e-06
0.00025242
-6.47996e-06
0.000255628
-6.41556e-06
0.000258803
-6.34829e-06
0.000261943
-6.27809e-06
0.000265046
-6.20494e-06
0.000268111
-6.12882e-06
0.000271137
-6.04969e-06
0.000274121
-5.96753e-06
0.000277063
-5.88234e-06
0.000279961
-5.79409e-06
0.000282813
-5.70278e-06
0.000285618
-5.60841e-06
0.000288375
-5.51099e-06
0.000291081
-5.41051e-06
0.000293735
-5.30701e-06
0.000296336
-5.20049e-06
0.000298882
-5.09098e-06
0.000301372
-4.97851e-06
0.000303804
-4.86311e-06
0.000306177
-4.74484e-06
0.00030849
-4.62374e-06
0.000310741
-4.49986e-06
0.000312928
-4.37325e-06
0.000315051
-4.24399e-06
0.000317107
-4.11215e-06
0.000319097
-3.97779e-06
0.000321018
-3.841e-06
0.000322869
-3.70187e-06
0.00032465
-3.56048e-06
0.000326359
-3.41693e-06
0.000327995
-3.27133e-06
0.000329558
-3.12377e-06
0.000331045
-2.97436e-06
0.000332457
-2.82322e-06
0.000333793
-2.67046e-06
0.000335051
-2.5162e-06
0.000336232
-2.36056e-06
0.000337334
-2.20367e-06
0.000338357
-2.04566e-06
0.000339301
-1.88665e-06
0.000340164
-1.72678e-06
0.000340947
-1.56619e-06
0.00034165
-1.40499e-06
0.000342272
-1.24334e-06
0.000342812
-1.08135e-06
0.000343272
-9.19183e-07
0.00034365
-7.56958e-07
0.000343948
-5.94812e-07
0.000344164
-4.32881e-07
0.0003443
-2.71295e-07
0.000344355
-1.10188e-07
0.000344329
5.03125e-08
0.000344224
2.10079e-07
0.000344039
3.68987e-07
0.000343776
5.26914e-07
0.000343433
6.83741e-07
0.000343013
8.39353e-07
0.000342516
9.93636e-07
0.000341943
1.14648e-06
0.000341293
1.29779e-06
0.000340569
1.44745e-06
0.000339771
1.59537e-06
0.0003389
1.74146e-06
0.000337956
1.88563e-06
0.000336942
2.02779e-06
0.000335858
2.16787e-06
0.000334704
2.3058e-06
0.000333483
2.44149e-06
0.000332195
2.5749e-06
0.000330841
2.70595e-06
0.000329423
2.8346e-06
0.000327942
2.96079e-06
0.000326399
3.08448e-06
0.000324796
3.20562e-06
0.000323133
3.32419e-06
0.000321412
3.44014e-06
0.000319635
3.55346e-06
0.000317802
3.66411e-06
0.000315916
3.77209e-06
0.000313976
3.87738e-06
0.000311986
3.97997e-06
0.000309945
4.07985e-06
0.000307856
4.17702e-06
0.000305719
4.27148e-06
0.000303537
4.36324e-06
0.00030131
4.45231e-06
0.00029904
4.53871e-06
0.000296728
4.62244e-06
0.000294376
4.70352e-06
0.000291984
4.78198e-06
0.000289555
4.85784e-06
0.000287089
4.93113e-06
0.000284587
5.00188e-06
0.000282051
5.07012e-06
0.000279483
5.13588e-06
0.000276883
5.1992e-06
0.000274252
5.26012e-06
0.000271592
5.31867e-06
0.000268904
5.3749e-06
0.000266189
5.42885e-06
0.000263448
5.48056e-06
0.000260683
5.53007e-06
0.000257893
5.57744e-06
0.000255081
5.6227e-06
0.000252248
5.66591e-06
0.000249394
5.70712e-06
0.00024652
5.74637e-06
0.000243628
5.7837e-06
0.000240718
5.81918e-06
0.000237791
5.85285e-06
0.000234848
5.88475e-06
0.00023189
5.91494e-06
0.000228918
5.94348e-06
0.000225933
5.9704e-06
0.000222934
5.99575e-06
0.000219924
6.01959e-06
0.000216903
6.04197e-06
0.000213871
6.06293e-06
0.00021083
6.08253e-06
0.000207779
6.1008e-06
0.00020472
6.1178e-06
0.000201653
6.13357e-06
0.000198578
6.14816e-06
0.000195497
6.16162e-06
0.00019241
6.17398e-06
0.000189317
6.1853e-06
0.000186219
6.19562e-06
0.000183116
6.20498e-06
0.000180009
6.21342e-06
0.000176899
6.22098e-06
0.000173784
6.2277e-06
0.000170667
6.23363e-06
0.000167548
6.2388e-06
0.000164426
6.24324e-06
0.000161302
6.24701e-06
0.000158177
6.25012e-06
0.000155051
6.25263e-06
0.000151923
6.25456e-06
0.000148795
6.25594e-06
0.000145667
6.25681e-06
0.000142538
6.25721e-06
0.000139409
6.25715e-06
0.000136281
6.25668e-06
0.000133153
6.25582e-06
0.000130026
6.2546e-06
0.000126899
6.25305e-06
0.000123773
6.2512e-06
0.000120649
6.24906e-06
0.000117525
6.24668e-06
0.000114403
6.24407e-06
0.000111283
6.24125e-06
0.000108163
6.23825e-06
0.000105046
6.23509e-06
0.00010193
6.23179e-06
9.88156e-05
6.22838e-06
9.57032e-05
6.22487e-06
9.25925e-05
6.22128e-06
8.94837e-05
6.21764e-06
8.63767e-05
6.21395e-06
8.32716e-05
6.21024e-06
8.01683e-05
6.20652e-06
7.70669e-05
6.20281e-06
7.39674e-05
6.19912e-06
7.08696e-05
6.19548e-06
6.77737e-05
6.19188e-06
6.46796e-05
6.18835e-06
6.15871e-05
6.18489e-06
5.84964e-05
6.18152e-06
5.54073e-05
6.17826e-06
5.23198e-05
6.1751e-06
4.92338e-05
6.17207e-06
4.61492e-05
6.16916e-06
4.30661e-05
6.1664e-06
3.99842e-05
6.16378e-06
3.69036e-05
6.16132e-06
3.38241e-05
6.15902e-06
3.07457e-05
6.15689e-06
2.76683e-05
6.15494e-06
2.45918e-05
6.15316e-06
2.1516e-05
6.15157e-06
1.8441e-05
6.15017e-06
1.53666e-05
6.14896e-06
1.22927e-05
6.14795e-06
9.21913e-06
6.14714e-06
6.14592e-06
6.14653e-06
3.07291e-06
6.14612e-06
6.14592e-06
3.64702e-06
-1.09417e-05
7.29417e-06
-1.09421e-05
1.09416e-05
-1.0943e-05
1.45895e-05
-1.09442e-05
1.82378e-05
-1.09458e-05
2.18869e-05
-1.09478e-05
2.55368e-05
-1.09502e-05
2.91876e-05
-1.0953e-05
3.28394e-05
-1.09561e-05
3.64924e-05
-1.09595e-05
4.01467e-05
-1.09633e-05
4.38023e-05
-1.09673e-05
4.74594e-05
-1.09716e-05
5.1118e-05
-1.09761e-05
5.47782e-05
-1.09809e-05
5.844e-05
-1.09858e-05
6.21036e-05
-1.09908e-05
6.57688e-05
-1.0996e-05
6.94359e-05
-1.10012e-05
7.31047e-05
-1.10064e-05
7.67753e-05
-1.10116e-05
8.04476e-05
-1.10167e-05
8.41216e-05
-1.10218e-05
8.77973e-05
-1.10266e-05
9.14745e-05
-1.10312e-05
9.51532e-05
-1.10356e-05
9.88333e-05
-1.10396e-05
0.000102515
-1.10432e-05
0.000106197
-1.10464e-05
0.00010988
-1.1049e-05
0.000113564
-1.1051e-05
0.000117249
-1.10523e-05
0.000120934
-1.1053e-05
0.000124618
-1.10528e-05
0.000128303
-1.10516e-05
0.000131987
-1.10496e-05
0.000135669
-1.10464e-05
0.000139351
-1.10422e-05
0.00014303
-1.10367e-05
0.000146708
-1.10298e-05
0.000150383
-1.10216e-05
0.000154054
-1.10119e-05
0.000157722
-1.10006e-05
0.000161385
-1.09875e-05
0.000165044
-1.09727e-05
0.000168697
-1.09561e-05
0.000172344
-1.09374e-05
0.000175984
-1.09166e-05
0.000179617
-1.08937e-05
0.000183241
-1.08684e-05
0.000186856
-1.08408e-05
0.000190461
-1.08106e-05
0.000194055
-1.07778e-05
0.000197637
-1.07424e-05
0.000201207
-1.07041e-05
0.000204763
-1.06629e-05
0.000208304
-1.06186e-05
0.00021183
-1.05712e-05
0.000215338
-1.05206e-05
0.000218829
-1.04667e-05
0.000222301
-1.04093e-05
0.000225752
-1.03484e-05
0.000229182
-1.02839e-05
0.00023259
-1.02157e-05
0.000235973
-1.01436e-05
0.000239331
-1.00677e-05
0.000242663
-9.98781e-06
0.000245966
-9.90386e-06
0.000249241
-9.81578e-06
0.000252484
-9.72349e-06
0.000255696
-9.62695e-06
0.000258873
-9.52607e-06
0.000262016
-9.42082e-06
0.000265122
-9.31114e-06
0.00026819
-9.19698e-06
0.000271219
-9.07831e-06
0.000274207
-8.9551e-06
0.000277152
-8.82732e-06
0.000280053
-8.69496e-06
0.000282908
-8.558e-06
0.000285716
-8.41644e-06
0.000288475
-8.27029e-06
0.000291184
-8.11956e-06
0.000293841
-7.96428e-06
0.000296445
-7.80446e-06
0.000298995
-7.64016e-06
0.000301487
-7.47141e-06
0.000303923
-7.29827e-06
0.000306299
-7.1208e-06
0.000308614
-6.93908e-06
0.000310867
-6.75318e-06
0.000313057
-6.5632e-06
0.000315182
-6.36922e-06
0.000317242
-6.17135e-06
0.000319234
-5.96972e-06
0.000321157
-5.76443e-06
0.000323011
-5.55562e-06
0.000324794
-5.34342e-06
0.000326505
-5.12797e-06
0.000328143
-4.90943e-06
0.000329707
-4.68796e-06
0.000331196
-4.4637e-06
0.00033261
-4.23685e-06
0.000333947
-4.00756e-06
0.000335207
-3.77601e-06
0.000336389
-3.5424e-06
0.000337492
-3.30691e-06
0.000338516
-3.06973e-06
0.00033946
-2.83106e-06
0.000340325
-2.59109e-06
0.000341109
-2.35002e-06
0.000341812
-2.10806e-06
0.000342434
-1.86541e-06
0.000342975
-1.62227e-06
0.000343434
-1.37884e-06
0.000343813
-1.13534e-06
0.00034411
-8.9195e-07
0.000344326
-6.48887e-07
0.000344461
-4.06345e-07
0.000344515
-1.64523e-07
0.000344489
7.63869e-08
0.000344383
3.16193e-07
0.000344197
5.54707e-07
0.000343932
7.91746e-07
0.000343589
1.02713e-06
0.000343168
1.26069e-06
0.000342669
1.49225e-06
0.000342094
1.72165e-06
0.000341443
1.94873e-06
0.000340717
2.17335e-06
0.000339917
2.39535e-06
0.000339044
2.61459e-06
0.000338099
2.83095e-06
0.000337082
3.04429e-06
0.000335996
3.25451e-06
0.00033484
3.46148e-06
0.000333616
3.66511e-06
0.000332326
3.86529e-06
0.00033097
4.06194e-06
0.00032955
4.25497e-06
0.000328066
4.44431e-06
0.000326521
4.62989e-06
0.000324915
4.81166e-06
0.000323249
4.98954e-06
0.000321526
5.16351e-06
0.000319746
5.33351e-06
0.00031791
5.49952e-06
0.000316021
5.66151e-06
0.000314079
5.81945e-06
0.000312086
5.97333e-06
0.000310042
6.12315e-06
0.00030795
6.26891e-06
0.000305811
6.4106e-06
0.000303626
6.54823e-06
0.000301397
6.68182e-06
0.000299124
6.81139e-06
0.000296809
6.93696e-06
0.000294454
7.05856e-06
0.00029206
7.17622e-06
0.000289628
7.28998e-06
0.000287159
7.39988e-06
0.000284655
7.50596e-06
0.000282117
7.60828e-06
0.000279546
7.70688e-06
0.000276944
7.80181e-06
0.00027431
7.89313e-06
0.000271648
7.98091e-06
0.000268958
8.0652e-06
0.000266241
8.14607e-06
0.000263498
8.22358e-06
0.00026073
8.29779e-06
0.000257939
8.36878e-06
0.000255125
8.43662e-06
0.000252289
8.50138e-06
0.000249433
8.56313e-06
0.000246558
8.62194e-06
0.000243664
8.67788e-06
0.000240752
8.73103e-06
0.000237823
8.78147e-06
0.000234879
8.82927e-06
0.000231919
8.87449e-06
0.000228945
8.91723e-06
0.000225958
8.95755e-06
0.000222958
8.99552e-06
0.000219947
9.03122e-06
0.000216924
9.06473e-06
0.000213891
9.09611e-06
0.000210848
9.12544e-06
0.000207796
9.15279e-06
0.000204735
9.17823e-06
0.000201667
9.20183e-06
0.000198592
9.22366e-06
0.000195509
9.24379e-06
0.000192421
9.26228e-06
0.000189327
9.27921e-06
0.000186228
9.29463e-06
0.000183125
9.30861e-06
0.000180017
9.32122e-06
0.000176905
9.33251e-06
0.00017379
9.34255e-06
0.000170673
9.35139e-06
0.000167552
9.35909e-06
0.00016443
9.36572e-06
0.000161306
9.37132e-06
0.00015818
9.37595e-06
0.000155053
9.37966e-06
0.000151925
9.38251e-06
0.000148796
9.38455e-06
0.000145667
9.38582e-06
0.000142538
9.38637e-06
0.000139409
9.38625e-06
0.00013628
9.3855e-06
0.000133152
9.38418e-06
0.000130024
9.38232e-06
0.000126897
9.37996e-06
0.000123771
9.37714e-06
0.000120646
9.37391e-06
0.000117523
9.3703e-06
0.0001144
9.36635e-06
0.00011128
9.3621e-06
0.00010816
9.35757e-06
0.000105042
9.35281e-06
0.000101926
9.34784e-06
9.88121e-05
9.34269e-06
9.56996e-05
9.3374e-06
9.25889e-05
9.332e-06
8.948e-05
9.32651e-06
8.6373e-05
9.32096e-06
8.32679e-05
9.31537e-06
8.01646e-05
9.30977e-06
7.70632e-05
9.30419e-06
7.39637e-05
9.29864e-06
7.08661e-05
9.29315e-06
6.77702e-05
9.28774e-06
6.46761e-05
9.28242e-06
6.15838e-05
9.27722e-06
5.84932e-05
9.27216e-06
5.54042e-05
9.26725e-06
5.23168e-05
9.2625e-06
4.92309e-05
9.25794e-06
4.61465e-05
9.25357e-06
4.30635e-05
9.24942e-06
3.99818e-05
9.24548e-06
3.69013e-05
9.24178e-06
3.3822e-05
9.23832e-06
3.07438e-05
9.23512e-06
2.76665e-05
9.23218e-06
2.45902e-05
9.22951e-06
2.15146e-05
9.22712e-06
1.84398e-05
9.22501e-06
1.53656e-05
9.2232e-06
1.22918e-05
9.22168e-06
9.21852e-06
9.22046e-06
6.14551e-06
9.21954e-06
3.0727e-06
9.21893e-06
9.21862e-06
3.64661e-06
-1.45883e-05
7.29335e-06
-1.45889e-05
1.09404e-05
-1.459e-05
1.45878e-05
-1.45916e-05
1.82358e-05
-1.45938e-05
2.18845e-05
-1.45965e-05
2.5534e-05
-1.45997e-05
2.91845e-05
-1.46034e-05
3.2836e-05
-1.46076e-05
3.64887e-05
-1.46122e-05
4.01427e-05
-1.46172e-05
4.3798e-05
-1.46227e-05
4.74549e-05
-1.46284e-05
5.11132e-05
-1.46345e-05
5.47733e-05
-1.46409e-05
5.8435e-05
-1.46475e-05
6.20984e-05
-1.46543e-05
6.57636e-05
-1.46612e-05
6.94307e-05
-1.46682e-05
7.30995e-05
-1.46752e-05
7.67701e-05
-1.46823e-05
8.04426e-05
-1.46892e-05
8.41168e-05
-1.4696e-05
8.77926e-05
-1.47025e-05
9.14702e-05
-1.47088e-05
9.51492e-05
-1.47147e-05
9.88297e-05
-1.47201e-05
0.000102512
-1.4725e-05
0.000106194
-1.47293e-05
0.000109878
-1.47329e-05
0.000113563
-1.47357e-05
0.000117248
-1.47376e-05
0.000120934
-1.47385e-05
0.00012462
-1.47384e-05
0.000128305
-1.47371e-05
0.00013199
-1.47344e-05
0.000135674
-1.47304e-05
0.000139356
-1.47248e-05
0.000143037
-1.47176e-05
0.000146716
-1.47086e-05
0.000150392
-1.46978e-05
0.000154065
-1.4685e-05
0.000157735
-1.467e-05
0.0001614
-1.46528e-05
0.000165061
-1.46333e-05
0.000168716
-1.46112e-05
0.000172365
-1.45864e-05
0.000176007
-1.45589e-05
0.000179642
-1.45284e-05
0.000183268
-1.44949e-05
0.000186886
-1.44582e-05
0.000190494
-1.44182e-05
0.00019409
-1.43747e-05
0.000197676
-1.43275e-05
0.000201248
-1.42766e-05
0.000204807
-1.42218e-05
0.000208352
-1.4163e-05
0.00021188
-1.41e-05
0.000215392
-1.40327e-05
0.000218887
-1.39609e-05
0.000222362
-1.38846e-05
0.000225817
-1.38036e-05
0.000229251
-1.37177e-05
0.000232662
-1.36268e-05
0.000236049
-1.35309e-05
0.000239411
-1.34298e-05
0.000242747
-1.33234e-05
0.000246055
-1.32116e-05
0.000249333
-1.30942e-05
0.000252581
-1.29713e-05
0.000255796
-1.28427e-05
0.000258979
-1.27082e-05
0.000262126
-1.2568e-05
0.000265236
-1.24218e-05
0.000268309
-1.22697e-05
0.000271342
-1.21115e-05
0.000274334
-1.19472e-05
0.000277284
-1.17769e-05
0.00028019
-1.16004e-05
0.000283049
-1.14178e-05
0.000285862
-1.12291e-05
0.000288626
-1.10342e-05
0.000291339
-1.08332e-05
0.000294001
-1.06261e-05
0.00029661
-1.04129e-05
0.000299163
-1.01938e-05
0.000301661
-9.96871e-06
0.0003041
-9.73776e-06
0.00030648
-9.50102e-06
0.0003088
-9.2586e-06
0.000311057
-9.0106e-06
0.000313251
-8.75713e-06
0.00031538
-8.49833e-06
0.000317443
-8.23434e-06
0.000319439
-7.9653e-06
0.000321366
-7.69138e-06
0.000323223
-7.41276e-06
0.000325009
-7.1296e-06
0.000326723
-6.84211e-06
0.000328364
-6.55048e-06
0.000329931
-6.25492e-06
0.000331423
-5.95566e-06
0.000332839
-5.65291e-06
0.000334179
-5.34691e-06
0.000335441
-5.0379e-06
0.000336624
-4.72613e-06
0.000337729
-4.41184e-06
0.000338755
-4.0953e-06
0.0003397
-3.77676e-06
0.000340566
-3.45649e-06
0.000341351
-3.13475e-06
0.000342054
-2.81182e-06
0.000342677
-2.48797e-06
0.000343218
-2.16347e-06
0.000343678
-1.83858e-06
0.000344056
-1.51359e-06
0.000344353
-1.18877e-06
0.000344568
-8.64372e-07
0.000344703
-5.40677e-07
0.000344756
-2.17945e-07
0.000344729
1.03565e-07
0.000344622
4.23597e-07
0.000344434
7.41901e-07
0.000344168
1.05823e-06
0.000343823
1.37235e-06
0.000343399
1.68402e-06
0.000342899
1.99303e-06
0.000342321
2.29914e-06
0.000341668
2.60215e-06
0.000340939
2.90186e-06
0.000340136
3.19808e-06
0.00033926
3.49061e-06
0.000338312
3.77928e-06
0.000337292
4.06392e-06
0.000336203
4.34438e-06
0.000335044
4.62051e-06
0.000333817
4.89216e-06
0.000332523
5.15921e-06
0.000331163
5.42154e-06
0.000329739
5.67903e-06
0.000328252
5.93159e-06
0.000326702
6.17913e-06
0.000325093
6.42157e-06
0.000323423
6.65882e-06
0.000321696
6.89084e-06
0.000319912
7.11756e-06
0.000318072
7.33895e-06
0.000316179
7.55496e-06
0.000314233
7.76557e-06
0.000312235
7.97077e-06
0.000310188
8.17053e-06
0.000308092
8.36486e-06
0.000305949
8.55377e-06
0.00030376
8.73726e-06
0.000301526
8.91535e-06
0.00029925
9.08807e-06
0.000296931
9.25545e-06
0.000294572
9.41753e-06
0.000292174
9.57436e-06
0.000289738
9.72598e-06
0.000287266
9.87244e-06
0.000284758
1.00138e-05
0.000282216
1.01502e-05
0.000279641
1.02815e-05
0.000277035
1.0408e-05
0.000274398
1.05297e-05
0.000271733
1.06466e-05
0.000269039
1.07589e-05
0.000266318
1.08666e-05
0.000263572
1.09699e-05
0.000260801
1.10687e-05
0.000258007
1.11633e-05
0.00025519
1.12536e-05
0.000252351
1.13399e-05
0.000249492
1.14221e-05
0.000246614
1.15004e-05
0.000243717
1.15748e-05
0.000240802
1.16456e-05
0.000237871
1.17127e-05
0.000234924
1.17763e-05
0.000231962
1.18365e-05
0.000228986
1.18934e-05
0.000225996
1.1947e-05
0.000222994
1.19976e-05
0.00021998
1.2045e-05
0.000216955
1.20896e-05
0.00021392
1.21313e-05
0.000210875
1.21703e-05
0.000207821
1.22067e-05
0.000204759
1.22405e-05
0.000201689
1.22719e-05
0.000198612
1.23009e-05
0.000195528
1.23276e-05
0.000192438
1.23522e-05
0.000189343
1.23746e-05
0.000186242
1.23951e-05
0.000183137
1.24136e-05
0.000180028
1.24303e-05
0.000176915
1.24453e-05
0.000173799
1.24586e-05
0.00017068
1.24703e-05
0.000167559
1.24805e-05
0.000164436
1.24892e-05
0.00016131
1.24966e-05
0.000158184
1.25027e-05
0.000155056
1.25076e-05
0.000151927
1.25113e-05
0.000148797
1.25139e-05
0.000145668
1.25155e-05
0.000142538
1.25162e-05
0.000139408
1.2516e-05
0.000136279
1.25149e-05
0.00013315
1.25131e-05
0.000130022
1.25105e-05
0.000126894
1.25073e-05
0.000123768
1.25035e-05
0.000120643
1.24991e-05
0.000117519
1.24943e-05
0.000114396
1.24889e-05
0.000111275
1.24832e-05
0.000108155
1.24771e-05
0.000105038
1.24707e-05
0.000101921
1.24641e-05
9.88069e-05
1.24571e-05
9.56942e-05
1.24501e-05
9.25834e-05
1.24428e-05
8.94745e-05
1.24354e-05
8.63674e-05
1.2428e-05
8.32623e-05
1.24205e-05
8.01591e-05
1.2413e-05
7.70577e-05
1.24055e-05
7.39583e-05
1.23981e-05
7.08607e-05
1.23907e-05
6.77649e-05
1.23835e-05
6.46709e-05
1.23764e-05
6.15787e-05
1.23694e-05
5.84883e-05
1.23626e-05
5.53994e-05
1.23561e-05
5.23122e-05
1.23497e-05
4.92265e-05
1.23436e-05
4.61423e-05
1.23378e-05
4.30595e-05
1.23322e-05
3.99781e-05
1.23269e-05
3.68979e-05
1.2322e-05
3.38188e-05
1.23174e-05
3.07409e-05
1.23131e-05
2.76639e-05
1.23092e-05
2.45878e-05
1.23056e-05
2.15125e-05
1.23024e-05
1.8438e-05
1.22996e-05
1.5364e-05
1.22971e-05
1.22906e-05
1.22951e-05
9.2176e-06
1.22935e-05
6.1449e-06
1.22922e-05
3.0724e-06
1.22914e-05
1.2291e-05
3.64605e-06
-1.82344e-05
7.29225e-06
-1.82351e-05
1.09387e-05
-1.82365e-05
1.45856e-05
-1.82386e-05
1.82331e-05
-1.82413e-05
2.18813e-05
-1.82447e-05
2.55303e-05
-1.82488e-05
2.91803e-05
-1.82534e-05
3.28314e-05
-1.82587e-05
3.64837e-05
-1.82645e-05
4.01372e-05
-1.82708e-05
4.37922e-05
-1.82777e-05
4.74488e-05
-1.82849e-05
5.11069e-05
-1.82926e-05
5.47667e-05
-1.83007e-05
5.84282e-05
-1.8309e-05
6.20915e-05
-1.83176e-05
6.57566e-05
-1.83263e-05
6.94236e-05
-1.83352e-05
7.30925e-05
-1.83441e-05
7.67632e-05
-1.8353e-05
8.04358e-05
-1.83618e-05
8.41102e-05
-1.83704e-05
8.77864e-05
-1.83787e-05
9.14643e-05
-1.83866e-05
9.51438e-05
-1.83942e-05
9.88248e-05
-1.84011e-05
0.000102507
-1.84074e-05
0.000106191
-1.84129e-05
0.000109876
-1.84176e-05
0.000113561
-1.84213e-05
0.000117247
-1.84239e-05
0.000120934
-1.84252e-05
0.000124621
-1.84252e-05
0.000128308
-1.84237e-05
0.000131994
-1.84207e-05
0.000135679
-1.84158e-05
0.000139364
-1.84091e-05
0.000143046
-1.84003e-05
0.000146727
-1.83893e-05
0.000150405
-1.8376e-05
0.00015408
-1.83602e-05
0.000157752
-1.83418e-05
0.00016142
-1.83205e-05
0.000165083
-1.82963e-05
0.000168741
-1.82689e-05
0.000172392
-1.82382e-05
0.000176038
-1.82041e-05
0.000179675
-1.81663e-05
0.000183305
-1.81247e-05
0.000186926
-1.80791e-05
0.000190537
-1.80293e-05
0.000194138
-1.79751e-05
0.000197726
-1.79165e-05
0.000201303
-1.78531e-05
0.000204866
-1.77849e-05
0.000208415
-1.77116e-05
0.000211948
-1.76331e-05
0.000215464
-1.75492e-05
0.000218963
-1.74598e-05
0.000222443
-1.73646e-05
0.000225903
-1.72635e-05
0.000229342
-1.71564e-05
0.000232758
-1.70431e-05
0.00023615
-1.69234e-05
0.000239518
-1.67972e-05
0.000242859
-1.66644e-05
0.000246172
-1.65248e-05
0.000249456
-1.63783e-05
0.000252709
-1.62248e-05
0.000255931
-1.60641e-05
0.000259119
-1.58963e-05
0.000262272
-1.57211e-05
0.000265389
-1.55385e-05
0.000268467
-1.53484e-05
0.000271507
-1.51507e-05
0.000274505
-1.49455e-05
0.000277461
-1.47326e-05
0.000280372
-1.4512e-05
0.000283238
-1.42838e-05
0.000286057
-1.40478e-05
0.000288827
-1.38042e-05
0.000291547
-1.35529e-05
0.000294214
-1.32939e-05
0.000296829
-1.30274e-05
0.000299388
-1.27534e-05
0.000301892
-1.24719e-05
0.000304337
-1.2183e-05
0.000306723
-1.18869e-05
0.000309048
-1.15837e-05
0.000311311
-1.12735e-05
0.00031351
-1.09564e-05
0.000315644
-1.06326e-05
0.000317712
-1.03024e-05
0.000319713
-9.96577e-06
0.000321645
-9.62305e-06
0.000323506
-9.27442e-06
0.000325297
-8.92012e-06
0.000327015
-8.56038e-06
0.00032866
-8.19545e-06
0.000330231
-7.8256e-06
0.000331726
-7.45109e-06
0.000333145
-7.07222e-06
0.000334488
-6.68928e-06
0.000335752
-6.30256e-06
0.000336939
-5.91237e-06
0.000338046
-5.51903e-06
0.000339073
-5.12286e-06
0.000340021
-4.72419e-06
0.000340888
-4.32335e-06
0.000341674
-3.92068e-06
0.000342378
-3.51651e-06
0.000343002
-3.11119e-06
0.000343543
-2.70504e-06
0.000344003
-2.29843e-06
0.000344381
-1.89169e-06
0.000344677
-1.48515e-06
0.000344892
-1.07916e-06
0.000345026
-6.74047e-07
0.000345078
-2.70145e-07
0.000345049
1.3222e-07
0.00034494
5.32729e-07
0.000344751
9.31068e-07
0.000344482
1.32693e-06
0.000344134
1.72001e-06
0.000343708
2.11003e-06
0.000343205
2.49669e-06
0.000342624
2.87973e-06
0.000341968
3.25887e-06
0.000341235
3.63387e-06
0.000340429
4.00449e-06
0.000339549
4.37048e-06
0.000338597
4.73164e-06
0.000337573
5.08774e-06
0.000336479
5.43859e-06
0.000335315
5.78401e-06
0.000334084
6.12382e-06
0.000332785
6.45785e-06
0.000331421
6.78597e-06
0.000329992
7.10803e-06
0.000328499
7.4239e-06
0.000326945
7.73348e-06
0.00032533
8.03665e-06
0.000323655
8.33334e-06
0.000321923
8.62346e-06
0.000320133
8.90695e-06
0.000318289
9.18375e-06
0.00031639
9.45381e-06
0.000314438
9.71712e-06
0.000312435
9.97363e-06
0.000310382
1.02233e-05
0.000308281
1.04662e-05
0.000306132
1.07024e-05
0.000303938
1.09317e-05
0.000301699
1.11542e-05
0.000299417
1.13701e-05
0.000297093
1.15792e-05
0.000294729
1.17818e-05
0.000292326
1.19777e-05
0.000289885
1.21671e-05
0.000287407
1.23501e-05
0.000284894
1.25267e-05
0.000282347
1.2697e-05
0.000279768
1.28611e-05
0.000277157
1.30191e-05
0.000274515
1.3171e-05
0.000271845
1.3317e-05
0.000269147
1.34572e-05
0.000266422
1.35917e-05
0.000263671
1.37206e-05
0.000260896
1.3844e-05
0.000258097
1.3962e-05
0.000255276
1.40747e-05
0.000252433
1.41823e-05
0.000249571
1.42849e-05
0.000246688
1.43826e-05