/*--------------------------------*- C++ -*----------------------------------*\
| =========                 |                                                 |
| \\      /  F ield         | OpenFOAM: The Open Source CFD Toolbox           |
|  \\    /   O peration     | Version:  v2012                                 |
|   \\  /    A nd           | Website:  www.openfoam.com                      |
|    \\/     M anipulation  |                                                 |
\*---------------------------------------------------------------------------*/
FoamFile
{
    version     2.0;
    format      ascii;
    class       volVectorField;
    location    "11";
    object      U;
}
// * * * * * * * * * * * * * * * * * * * * * * * * * * * * * * * * * * * * * //

dimensions      [0 1 -1 0 0 0 0];


internalField   nonuniform List<vector> 
65536
(
(0.000743417 -0.00074343 0)
(0.00223028 -0.000743459 0)
(0.00371723 -0.000743514 0)
(0.00520431 -0.000743597 0)
(0.00669159 -0.000743706 0)
(0.00817911 -0.000743842 0)
(0.00966693 -0.000744003 0)
(0.0111551 -0.000744188 0)
(0.0126437 -0.000744397 0)
(0.0141327 -0.000744628 0)
(0.0156222 -0.00074488 0)
(0.0171122 -0.000745152 0)
(0.0186027 -0.00074544 0)
(0.0200939 -0.000745745 0)
(0.0215857 -0.000746063 0)
(0.0230782 -0.000746393 0)
(0.0245713 -0.000746732 0)
(0.0260651 -0.000747077 0)
(0.0275596 -0.000747427 0)
(0.0290548 -0.000747777 0)
(0.0305507 -0.000748126 0)
(0.0320473 -0.00074847 0)
(0.0335446 -0.000748806 0)
(0.0350425 -0.00074913 0)
(0.0365411 -0.000749438 0)
(0.0380403 -0.000749727 0)
(0.03954 -0.000749993 0)
(0.0410403 -0.000750231 0)
(0.042541 -0.000750438 0)
(0.0440421 -0.000750609 0)
(0.0455435 -0.000750738 0)
(0.0470451 -0.000750822 0)
(0.0485468 -0.000750856 0)
(0.0500486 -0.000750833 0)
(0.0515502 -0.00075075 0)
(0.0530516 -0.0007506 0)
(0.0545527 -0.000750378 0)
(0.0560532 -0.000750078 0)
(0.0575531 -0.000749695 0)
(0.0590521 -0.000749221 0)
(0.0605501 -0.000748653 0)
(0.0620468 -0.000747981 0)
(0.0635421 -0.000747202 0)
(0.0650357 -0.000746307 0)
(0.0665275 -0.000745291 0)
(0.068017 -0.000744146 0)
(0.0695042 -0.000742867 0)
(0.0709886 -0.000741445 0)
(0.0724701 -0.000739874 0)
(0.0739483 -0.000738147 0)
(0.0754229 -0.000736258 0)
(0.0768935 -0.000734198 0)
(0.0783598 -0.000731961 0)
(0.0798215 -0.000729539 0)
(0.0812782 -0.000726926 0)
(0.0827294 -0.000724115 0)
(0.0841748 -0.000721098 0)
(0.085614 -0.000717869 0)
(0.0870465 -0.00071442 0)
(0.0884719 -0.000710745 0)
(0.0898897 -0.000706837 0)
(0.0912995 -0.00070269 0)
(0.0927007 -0.000698296 0)
(0.0940929 -0.000693651 0)
(0.0954756 -0.000688747 0)
(0.0968482 -0.00068358 0)
(0.0982102 -0.000678143 0)
(0.099561 -0.000672431 0)
(0.1009 -0.000666439 0)
(0.102227 -0.000660162 0)
(0.103541 -0.000653596 0)
(0.104842 -0.000646737 0)
(0.106128 -0.000639581 0)
(0.1074 -0.000632124 0)
(0.108657 -0.000624364 0)
(0.109898 -0.000616299 0)
(0.111123 -0.000607925 0)
(0.11233 -0.000599242 0)
(0.11352 -0.000590248 0)
(0.114691 -0.000580942 0)
(0.115844 -0.000571326 0)
(0.116977 -0.000561398 0)
(0.11809 -0.000551159 0)
(0.119182 -0.000540612 0)
(0.120253 -0.000529759 0)
(0.121301 -0.000518601 0)
(0.122327 -0.000507142 0)
(0.12333 -0.000495385 0)
(0.124309 -0.000483336 0)
(0.125264 -0.000470998 0)
(0.126193 -0.000458377 0)
(0.127098 -0.00044548 0)
(0.127976 -0.000432312 0)
(0.128827 -0.000418882 0)
(0.129651 -0.000405195 0)
(0.130448 -0.000391262 0)
(0.131217 -0.000377089 0)
(0.131957 -0.000362688 0)
(0.132668 -0.000348066 0)
(0.133349 -0.000333235 0)
(0.134001 -0.000318206 0)
(0.134622 -0.000302988 0)
(0.135213 -0.000287594 0)
(0.135773 -0.000272035 0)
(0.136301 -0.000256324 0)
(0.136798 -0.000240472 0)
(0.137263 -0.000224493 0)
(0.137696 -0.0002084 0)
(0.138097 -0.000192206 0)
(0.138465 -0.000175923 0)
(0.138801 -0.000159567 0)
(0.139103 -0.000143149 0)
(0.139373 -0.000126685 0)
(0.13961 -0.000110188 0)
(0.139814 -9.36714e-05 0)
(0.139985 -7.71491e-05 0)
(0.140123 -6.06349e-05 0)
(0.140227 -4.41424e-05 0)
(0.140299 -2.76851e-05 0)
(0.140338 -1.12763e-05 0)
(0.140344 5.07072e-06 0)
(0.140318 2.13432e-05 0)
(0.140259 3.75283e-05 0)
(0.140168 5.36137e-05 0)
(0.140044 6.95873e-05 0)
(0.139889 8.54373e-05 0)
(0.139702 0.000101152 0)
(0.139484 0.000116721 0)
(0.139235 0.000132133 0)
(0.138956 0.000147377 0)
(0.138646 0.000162445 0)
(0.138306 0.000177327 0)
(0.137936 0.000192013 0)
(0.137537 0.000206495 0)
(0.13711 0.000220765 0)
(0.136654 0.000234815 0)
(0.13617 0.000248639 0)
(0.135659 0.00026223 0)
(0.135121 0.000275582 0)
(0.134557 0.000288689 0)
(0.133966 0.000301545 0)
(0.13335 0.000314147 0)
(0.132709 0.000326491 0)
(0.132044 0.000338571 0)
(0.131355 0.000350386 0)
(0.130642 0.000361933 0)
(0.129907 0.000373209 0)
(0.129149 0.000384212 0)
(0.12837 0.000394941 0)
(0.127569 0.000405395 0)
(0.126748 0.000415574 0)
(0.125907 0.000425477 0)
(0.125046 0.000435104 0)
(0.124166 0.000444456 0)
(0.123268 0.000453535 0)
(0.122351 0.00046234 0)
(0.121418 0.000470875 0)
(0.120468 0.00047914 0)
(0.119501 0.000487137 0)
(0.118519 0.000494871 0)
(0.117521 0.000502342 0)
(0.116509 0.000509555 0)
(0.115483 0.000516512 0)
(0.114443 0.000523216 0)
(0.11339 0.000529672 0)
(0.112324 0.000535883 0)
(0.111246 0.000541853 0)
(0.110156 0.000547587 0)
(0.109056 0.000553088 0)
(0.107944 0.000558361 0)
(0.106822 0.000563411 0)
(0.10569 0.000568241 0)
(0.104549 0.000572858 0)
(0.103398 0.000577265 0)
(0.102239 0.000581468 0)
(0.101072 0.000585472 0)
(0.0998973 0.00058928 0)
(0.098715 0.0005929 0)
(0.0975255 0.000596334 0)
(0.0963294 0.00059959 0)
(0.095127 0.000602671 0)
(0.0939186 0.000605582 0)
(0.0927045 0.000608329 0)
(0.0914851 0.000610917 0)
(0.0902607 0.000613351 0)
(0.0890316 0.000615635 0)
(0.087798 0.000617775 0)
(0.0865603 0.000619775 0)
(0.0853188 0.000621641 0)
(0.0840736 0.000623377 0)
(0.0828251 0.000624988 0)
(0.0815736 0.000626478 0)
(0.0803191 0.000627853 0)
(0.079062 0.000629117 0)
(0.0778026 0.000630273 0)
(0.0765409 0.000631328 0)
(0.0752771 0.000632285 0)
(0.0740116 0.000633148 0)
(0.0727445 0.000633922 0)
(0.0714758 0.00063461 0)
(0.0702059 0.000635217 0)
(0.0689349 0.000635746 0)
(0.0676629 0.000636202 0)
(0.06639 0.000636589 0)
(0.0651165 0.000636909 0)
(0.0638423 0.000637167 0)
(0.0625677 0.000637366 0)
(0.0612928 0.000637509 0)
(0.0600177 0.000637601 0)
(0.0587424 0.000637643 0)
(0.057467 0.00063764 0)
(0.0561918 0.000637594 0)
(0.0549166 0.000637509 0)
(0.0536417 0.000637387 0)
(0.052367 0.000637231 0)
(0.0510927 0.000637044 0)
(0.0498188 0.000636829 0)
(0.0485454 0.000636587 0)
(0.0472725 0.000636323 0)
(0.0460001 0.000636037 0)
(0.0447283 0.000635733 0)
(0.0434571 0.000635413 0)
(0.0421866 0.000635079 0)
(0.0409168 0.000634733 0)
(0.0396477 0.000634376 0)
(0.0383793 0.000634012 0)
(0.0371116 0.000633642 0)
(0.0358447 0.000633268 0)
(0.0345786 0.000632891 0)
(0.0333132 0.000632513 0)
(0.0320485 0.000632136 0)
(0.0307846 0.000631761 0)
(0.0295215 0.00063139 0)
(0.0282591 0.000631025 0)
(0.0269974 0.000630666 0)
(0.0257364 0.000630314 0)
(0.0244761 0.000629972 0)
(0.0232165 0.00062964 0)
(0.0219576 0.000629319 0)
(0.0206993 0.000629011 0)
(0.0194416 0.000628716 0)
(0.0181844 0.000628435 0)
(0.0169278 0.000628168 0)
(0.0156718 0.000627918 0)
(0.0144162 0.000627684 0)
(0.0131611 0.000627468 0)
(0.0119063 0.000627269 0)
(0.010652 0.000627088 0)
(0.009398 0.000626927 0)
(0.00814431 0.000626784 0)
(0.00689089 0.000626661 0)
(0.00563769 0.000626558 0)
(0.00438468 0.000626476 0)
(0.00313181 0.000626414 0)
(0.00187904 0.000626372 0)
(0.000626341 0.000626351 0)
(0.00074339 -0.00223027 0)
(0.0022302 -0.00223035 0)
(0.00371709 -0.00223052 0)
(0.00520412 -0.00223076 0)
(0.00669134 -0.00223109 0)
(0.00817882 -0.0022315 0)
(0.00966659 -0.00223198 0)
(0.0111547 -0.00223254 0)
(0.0126432 -0.00223317 0)
(0.0141322 -0.00223387 0)
(0.0156216 -0.00223462 0)
(0.0171116 -0.00223544 0)
(0.0186022 -0.00223631 0)
(0.0200933 -0.00223722 0)
(0.0215851 -0.00223818 0)
(0.0230775 -0.00223917 0)
(0.0245706 -0.00224019 0)
(0.0260644 -0.00224123 0)
(0.0275589 -0.00224228 0)
(0.0290541 -0.00224334 0)
(0.03055 -0.00224439 0)
(0.0320466 -0.00224542 0)
(0.0335439 -0.00224643 0)
(0.0350419 -0.00224741 0)
(0.0365405 -0.00224833 0)
(0.0380398 -0.00224921 0)
(0.0395396 -0.00225001 0)
(0.0410399 -0.00225073 0)
(0.0425406 -0.00225135 0)
(0.0440418 -0.00225187 0)
(0.0455433 -0.00225226 0)
(0.047045 -0.00225252 0)
(0.0485468 -0.00225262 0)
(0.0500487 -0.00225256 0)
(0.0515505 -0.00225232 0)
(0.053052 -0.00225187 0)
(0.0545532 -0.00225121 0)
(0.0560539 -0.00225032 0)
(0.057554 -0.00224917 0)
(0.0590532 -0.00224776 0)
(0.0605513 -0.00224606 0)
(0.0620483 -0.00224405 0)
(0.0635438 -0.00224172 0)
(0.0650377 -0.00223904 0)
(0.0665296 -0.002236 0)
(0.0680195 -0.00223257 0)
(0.0695069 -0.00222874 0)
(0.0709916 -0.00222448 0)
(0.0724734 -0.00221978 0)
(0.0739519 -0.0022146 0)
(0.0754268 -0.00220894 0)
(0.0768978 -0.00220277 0)
(0.0783645 -0.00219607 0)
(0.0798266 -0.00218881 0)
(0.0812836 -0.00218098 0)
(0.0827352 -0.00217255 0)
(0.0841811 -0.00216351 0)
(0.0856207 -0.00215382 0)
(0.0870537 -0.00214348 0)
(0.0884795 -0.00213247 0)
(0.0898978 -0.00212075 0)
(0.0913081 -0.00210831 0)
(0.0927098 -0.00209514 0)
(0.0941025 -0.00208121 0)
(0.0954857 -0.0020665 0)
(0.0968588 -0.00205101 0)
(0.0982213 -0.0020347 0)
(0.0995727 -0.00201757 0)
(0.100912 -0.0019996 0)
(0.10224 -0.00198077 0)
(0.103555 -0.00196108 0)
(0.104856 -0.00194051 0)
(0.106143 -0.00191904 0)
(0.107416 -0.00189667 0)
(0.108673 -0.0018734 0)
(0.109915 -0.0018492 0)
(0.11114 -0.00182408 0)
(0.112348 -0.00179803 0)
(0.113538 -0.00177105 0)
(0.11471 -0.00174314 0)
(0.115864 -0.00171429 0)
(0.116997 -0.0016845 0)
(0.118111 -0.00165378 0)
(0.119203 -0.00162214 0)
(0.120275 -0.00158958 0)
(0.121324 -0.0015561 0)
(0.122351 -0.00152172 0)
(0.123354 -0.00148645 0)
(0.124334 -0.00145029 0)
(0.125289 -0.00141327 0)
(0.126219 -0.00137541 0)
(0.127124 -0.00133671 0)
(0.128002 -0.0012972 0)
(0.128854 -0.0012569 0)
(0.129679 -0.00121583 0)
(0.130476 -0.00117402 0)
(0.131245 -0.00113149 0)
(0.131986 -0.00108828 0)
(0.132697 -0.00104441 0)
(0.133379 -0.000999902 0)
(0.134031 -0.000954802 0)
(0.134653 -0.000909138 0)
(0.135244 -0.000862943 0)
(0.135804 -0.000816255 0)
(0.136333 -0.000769108 0)
(0.13683 -0.000721541 0)
(0.137295 -0.000673592 0)
(0.137729 -0.000625299 0)
(0.138129 -0.000576702 0)
(0.138498 -0.000527842 0)
(0.138833 -0.000478758 0)
(0.139136 -0.000429493 0)
(0.139406 -0.000380087 0)
(0.139643 -0.000330581 0)
(0.139847 -0.000281017 0)
(0.140018 -0.000231437 0)
(0.140156 -0.000181881 0)
(0.14026 -0.00013239 0)
(0.140332 -8.30048e-05 0)
(0.140371 -3.37655e-05 0)
(0.140377 1.52886e-05 0)
(0.14035 6.41185e-05 0)
(0.140291 0.000112686 0)
(0.1402 0.000160955 0)
(0.140076 0.000208887 0)
(0.139921 0.000256448 0)
(0.139734 0.000303604 0)
(0.139515 0.000350321 0)
(0.139266 0.000396567 0)
(0.138986 0.000442311 0)
(0.138676 0.000487523 0)
(0.138335 0.000532176 0)
(0.137965 0.000576242 0)
(0.137566 0.000619697 0)
(0.137138 0.000662515 0)
(0.136682 0.000704674 0)
(0.136198 0.000746152 0)
(0.135686 0.000786931 0)
(0.135148 0.000826991 0)
(0.134583 0.000866316 0)
(0.133992 0.000904891 0)
(0.133375 0.000942701 0)
(0.132734 0.000979734 0)
(0.132068 0.00101598 0)
(0.131378 0.00105143 0)
(0.130665 0.00108607 0)
(0.129929 0.0011199 0)
(0.129171 0.00115291 0)
(0.128391 0.0011851 0)
(0.12759 0.00121646 0)
(0.126768 0.001247 0)
(0.125926 0.0012767 0)
(0.125065 0.00130559 0)
(0.124184 0.00133364 0)
(0.123285 0.00136088 0)
(0.122369 0.00138729 0)
(0.121435 0.00141289 0)
(0.120484 0.00143768 0)
(0.119517 0.00146168 0)
(0.118534 0.00148487 0)
(0.117536 0.00150728 0)
(0.116523 0.00152892 0)
(0.115497 0.00154979 0)
(0.114456 0.0015699 0)
(0.113402 0.00158926 0)
(0.112336 0.00160789 0)
(0.111258 0.00162579 0)
(0.110168 0.00164299 0)
(0.109066 0.00165949 0)
(0.107954 0.0016753 0)
(0.106832 0.00169045 0)
(0.105699 0.00170494 0)
(0.104558 0.00171878 0)
(0.103407 0.001732 0)
(0.102248 0.0017446 0)
(0.10108 0.00175661 0)
(0.0999047 0.00176803 0)
(0.0987219 0.00177888 0)
(0.0975322 0.00178918 0)
(0.0963357 0.00179894 0)
(0.0951329 0.00180818 0)
(0.0939242 0.00181691 0)
(0.0927098 0.00182514 0)
(0.0914901 0.0018329 0)
(0.0902654 0.0018402 0)
(0.0890359 0.00184705 0)
(0.0878021 0.00185346 0)
(0.0865641 0.00185946 0)
(0.0853223 0.00186505 0)
(0.0840769 0.00187025 0)
(0.0828282 0.00187508 0)
(0.0815764 0.00187955 0)
(0.0803217 0.00188367 0)
(0.0790644 0.00188745 0)
(0.0778047 0.00189092 0)
(0.0765428 0.00189408 0)
(0.0752789 0.00189695 0)
(0.0740132 0.00189953 0)
(0.0727459 0.00190185 0)
(0.0714771 0.00190391 0)
(0.070207 0.00190573 0)
(0.0689359 0.00190731 0)
(0.0676637 0.00190868 0)
(0.0663907 0.00190983 0)
(0.065117 0.00191079 0)
(0.0638428 0.00191156 0)
(0.0625681 0.00191215 0)
(0.061293 0.00191258 0)
(0.0600178 0.00191285 0)
(0.0587424 0.00191297 0)
(0.057467 0.00191296 0)
(0.0561916 0.00191282 0)
(0.0549164 0.00191256 0)
(0.0536414 0.00191219 0)
(0.0523667 0.00191172 0)
(0.0510923 0.00191116 0)
(0.0498184 0.00191051 0)
(0.0485449 0.00190978 0)
(0.0472719 0.00190899 0)
(0.0459995 0.00190813 0)
(0.0447277 0.00190722 0)
(0.0434565 0.00190625 0)
(0.0421859 0.00190525 0)
(0.0409161 0.00190421 0)
(0.039647 0.00190314 0)
(0.0383786 0.00190204 0)
(0.0371109 0.00190093 0)
(0.035844 0.0018998 0)
(0.0345778 0.00189867 0)
(0.0333124 0.00189754 0)
(0.0320478 0.0018964 0)
(0.0307839 0.00189528 0)
(0.0295207 0.00189416 0)
(0.0282583 0.00189307 0)
(0.0269967 0.00189199 0)
(0.0257357 0.00189093 0)
(0.0244755 0.00188991 0)
(0.0232159 0.00188891 0)
(0.021957 0.00188794 0)
(0.0206987 0.00188702 0)
(0.019441 0.00188613 0)
(0.0181839 0.00188529 0)
(0.0169273 0.00188449 0)
(0.0156713 0.00188374 0)
(0.0144157 0.00188303 0)
(0.0131606 0.00188238 0)
(0.011906 0.00188179 0)
(0.0106517 0.00188124 0)
(0.0093977 0.00188076 0)
(0.00814405 0.00188033 0)
(0.00689066 0.00187996 0)
(0.0056375 0.00187965 0)
(0.00438453 0.00187941 0)
(0.0031317 0.00187922 0)
(0.00187898 0.0018791 0)
(0.00062632 0.00187903 0)
(0.000743334 -0.00371702 0)
(0.00223003 -0.00371716 0)
(0.00371681 -0.00371744 0)
(0.00520373 -0.00371785 0)
(0.00669085 -0.0037184 0)
(0.00817822 -0.00371908 0)
(0.00966589 -0.00371989 0)
(0.0111539 -0.00372083 0)
(0.0126423 -0.00372188 0)
(0.0141312 -0.00372304 0)
(0.0156206 -0.00372431 0)
(0.0171105 -0.00372567 0)
(0.018601 -0.00372713 0)
(0.020092 -0.00372866 0)
(0.0215838 -0.00373026 0)
(0.0230761 -0.00373192 0)
(0.0245692 -0.00373363 0)
(0.026063 -0.00373537 0)
(0.0275575 -0.00373713 0)
(0.0290527 -0.0037389 0)
(0.0305486 -0.00374066 0)
(0.0320453 -0.00374239 0)
(0.0335426 -0.00374409 0)
(0.0350406 -0.00374573 0)
(0.0365393 -0.00374729 0)
(0.0380386 -0.00374875 0)
(0.0395385 -0.0037501 0)
(0.041039 -0.00375132 0)
(0.0425399 -0.00375237 0)
(0.0440412 -0.00375325 0)
(0.0455428 -0.00375392 0)
(0.0470447 -0.00375437 0)
(0.0485468 -0.00375456 0)
(0.0500489 -0.00375447 0)
(0.0515509 -0.00375408 0)
(0.0530527 -0.00375336 0)
(0.0545542 -0.00375228 0)
(0.0560553 -0.00375081 0)
(0.0575556 -0.00374892 0)
(0.0590552 -0.00374659 0)
(0.0605538 -0.00374377 0)
(0.0620511 -0.00374045 0)
(0.0635471 -0.00373658 0)
(0.0650414 -0.00373214 0)
(0.0665339 -0.0037271 0)
(0.0680243 -0.00372141 0)
(0.0695123 -0.00371504 0)
(0.0709976 -0.00370797 0)
(0.07248 -0.00370015 0)
(0.0739591 -0.00369155 0)
(0.0754347 -0.00368214 0)
(0.0769064 -0.00367187 0)
(0.0783738 -0.00366072 0)
(0.0798366 -0.00364865 0)
(0.0812944 -0.00363562 0)
(0.0827469 -0.0036216 0)
(0.0841936 -0.00360655 0)
(0.085634 -0.00359044 0)
(0.0870679 -0.00357323 0)
(0.0884947 -0.00355489 0)
(0.0899139 -0.00353538 0)
(0.0913251 -0.00351467 0)
(0.0927278 -0.00349274 0)
(0.0941216 -0.00346954 0)
(0.0955058 -0.00344505 0)
(0.09688 -0.00341924 0)
(0.0982436 -0.00339209 0)
(0.0995961 -0.00336355 0)
(0.100937 -0.00333361 0)
(0.102266 -0.00330225 0)
(0.103581 -0.00326944 0)
(0.104884 -0.00323517 0)
(0.106172 -0.0031994 0)
(0.107446 -0.00316213 0)
(0.108705 -0.00312335 0)
(0.109947 -0.00308303 0)
(0.111174 -0.00304117 0)
(0.112383 -0.00299776 0)
(0.113575 -0.00295279 0)
(0.114748 -0.00290626 0)
(0.115903 -0.00285818 0)
(0.117038 -0.00280853 0)
(0.118152 -0.00275734 0)
(0.119246 -0.00270459 0)
(0.120319 -0.00265031 0)
(0.121369 -0.0025945 0)
(0.122397 -0.00253719 0)
(0.123402 -0.00247839 0)
(0.124382 -0.00241811 0)
(0.125339 -0.0023564 0)
(0.12627 -0.00229327 0)
(0.127176 -0.00222875 0)
(0.128055 -0.00216287 0)
(0.128908 -0.00209568 0)
(0.129734 -0.00202721 0)
(0.130532 -0.0019575 0)
(0.131302 -0.00188659 0)
(0.132044 -0.00181453 0)
(0.132756 -0.00174137 0)
(0.133439 -0.00166717 0)
(0.134092 -0.00159196 0)
(0.134714 -0.00151582 0)
(0.135306 -0.00143879 0)
(0.135867 -0.00136093 0)
(0.136396 -0.00128231 0)
(0.136894 -0.00120299 0)
(0.13736 -0.00112303 0)
(0.137793 -0.0010425 0)
(0.138194 -0.000961462 0)
(0.138563 -0.000879983 0)
(0.138899 -0.000798132 0)
(0.139202 -0.000715977 0)
(0.139472 -0.000633588 0)
(0.139709 -0.000551032 0)
(0.139913 -0.00046838 0)
(0.140084 -0.0003857 0)
(0.140222 -0.000303062 0)
(0.140326 -0.000220532 0)
(0.140398 -0.000138179 0)
(0.140436 -5.60693e-05 0)
(0.140442 2.57306e-05 0)
(0.140415 0.000107156 0)
(0.140356 0.000188144 0)
(0.140264 0.000268631 0)
(0.14014 0.000348558 0)
(0.139984 0.000427865 0)
(0.139796 0.000506495 0)
(0.139577 0.000584391 0)
(0.139327 0.000661502 0)
(0.139047 0.000737775 0)
(0.138735 0.000813161 0)
(0.138394 0.000887612 0)
(0.138024 0.000961085 0)
(0.137624 0.00103354 0)
(0.137195 0.00110492 0)
(0.136738 0.00117521 0)
(0.136253 0.00124437 0)
(0.13574 0.00131235 0)
(0.135201 0.00137914 0)
(0.134635 0.00144469 0)
(0.134043 0.001509 0)
(0.133425 0.00157203 0)
(0.132783 0.00163377 0)
(0.132116 0.00169419 0)
(0.131425 0.00175327 0)
(0.130711 0.00181102 0)
(0.129974 0.00186741 0)
(0.129214 0.00192243 0)
(0.128433 0.00197608 0)
(0.127631 0.00202835 0)
(0.126808 0.00207925 0)
(0.125965 0.00212876 0)
(0.125103 0.00217689 0)
(0.124221 0.00222365 0)
(0.123321 0.00226904 0)
(0.122403 0.00231306 0)
(0.121468 0.00235572 0)
(0.120516 0.00239703 0)
(0.119548 0.00243701 0)
(0.118564 0.00247566 0)
(0.117565 0.002513 0)
(0.116552 0.00254905 0)
(0.115524 0.00258382 0)
(0.114482 0.00261732 0)
(0.113428 0.00264958 0)
(0.112361 0.00268062 0)
(0.111281 0.00271045 0)
(0.11019 0.00273909 0)
(0.109088 0.00276658 0)
(0.107975 0.00279292 0)
(0.106851 0.00281814 0)
(0.105718 0.00284227 0)
(0.104576 0.00286533 0)
(0.103424 0.00288735 0)
(0.102264 0.00290834 0)
(0.101096 0.00292833 0)
(0.0999195 0.00294735 0)
(0.0987361 0.00296542 0)
(0.0975455 0.00298257 0)
(0.0963484 0.00299882 0)
(0.0951449 0.0030142 0)
(0.0939355 0.00302873 0)
(0.0927205 0.00304244 0)
(0.0915001 0.00305535 0)
(0.0902748 0.0030675 0)
(0.0890448 0.00307889 0)
(0.0878104 0.00308957 0)
(0.0865719 0.00309954 0)
(0.0853295 0.00310885 0)
(0.0840836 0.00311751 0)
(0.0828344 0.00312554 0)
(0.0815821 0.00313297 0)
(0.080327 0.00313982 0)
(0.0790693 0.00314611 0)
(0.0778091 0.00315188 0)
(0.0765468 0.00315713 0)
(0.0752826 0.00316189 0)
(0.0740165 0.00316618 0)
(0.0727488 0.00317003 0)
(0.0714797 0.00317345 0)
(0.0702093 0.00317647 0)
(0.0689378 0.0031791 0)
(0.0676654 0.00318136 0)
(0.0663921 0.00318327 0)
(0.0651182 0.00318485 0)
(0.0638437 0.00318613 0)
(0.0625687 0.0031871 0)
(0.0612935 0.0031878 0)
(0.060018 0.00318825 0)
(0.0587424 0.00318844 0)
(0.0574669 0.00318841 0)
(0.0561913 0.00318817 0)
(0.054916 0.00318772 0)
(0.0536408 0.0031871 0)
(0.052366 0.00318631 0)
(0.0510915 0.00318536 0)
(0.0498174 0.00318427 0)
(0.0485439 0.00318305 0)
(0.0472708 0.00318172 0)
(0.0459983 0.00318028 0)
(0.0447264 0.00317875 0)
(0.0434552 0.00317713 0)
(0.0421846 0.00317545 0)
(0.0409147 0.00317371 0)
(0.0396455 0.00317192 0)
(0.0383771 0.00317009 0)
(0.0371094 0.00316823 0)
(0.0358425 0.00316635 0)
(0.0345763 0.00316445 0)
(0.0333109 0.00316256 0)
(0.0320463 0.00316067 0)
(0.0307824 0.00315878 0)
(0.0295193 0.00315692 0)
(0.0282569 0.00315509 0)
(0.0269952 0.00315329 0)
(0.0257343 0.00315152 0)
(0.0244741 0.00314981 0)
(0.0232146 0.00314814 0)
(0.0219557 0.00314653 0)
(0.0206975 0.00314499 0)
(0.0194398 0.00314351 0)
(0.0181828 0.0031421 0)
(0.0169263 0.00314076 0)
(0.0156703 0.00313951 0)
(0.0144148 0.00313833 0)
(0.0131598 0.00313725 0)
(0.0119052 0.00313625 0)
(0.010651 0.00313535 0)
(0.00939709 0.00313453 0)
(0.00814351 0.00313382 0)
(0.00689021 0.0031332 0)
(0.00563713 0.00313269 0)
(0.00438424 0.00313227 0)
(0.0031315 0.00313196 0)
(0.00187886 0.00313176 0)
(0.000626278 0.00313165 0)
(0.00074325 -0.00520363 0)
(0.00222978 -0.00520383 0)
(0.00371639 -0.00520422 0)
(0.00520315 -0.0052048 0)
(0.00669011 -0.00520558 0)
(0.00817732 -0.00520654 0)
(0.00966484 -0.00520768 0)
(0.0111527 -0.00520899 0)
(0.012641 -0.00521047 0)
(0.0141297 -0.00521211 0)
(0.015619 -0.00521389 0)
(0.0171088 -0.00521582 0)
(0.0185992 -0.00521786 0)
(0.0200901 -0.00522002 0)
(0.0215818 -0.00522228 0)
(0.0230741 -0.00522462 0)
(0.0245671 -0.00522703 0)
(0.0260609 -0.00522949 0)
(0.0275553 -0.00523197 0)
(0.0290505 -0.00523447 0)
(0.0305465 -0.00523696 0)
(0.0320432 -0.00523941 0)
(0.0335406 -0.00524181 0)
(0.0350387 -0.00524413 0)
(0.0365375 -0.00524634 0)
(0.0380369 -0.00524842 0)
(0.039537 -0.00525034 0)
(0.0410376 -0.00525207 0)
(0.0425387 -0.00525357 0)
(0.0440402 -0.00525483 0)
(0.0455421 -0.00525581 0)
(0.0470443 -0.00525647 0)
(0.0485467 -0.00525677 0)
(0.0500491 -0.00525669 0)
(0.0515515 -0.00525618 0)
(0.0530538 -0.00525521 0)
(0.0545557 -0.00525373 0)
(0.0560572 -0.00525172 0)
(0.0575581 -0.00524912 0)
(0.0590583 -0.00524589 0)
(0.0605574 -0.005242 0)
(0.0620554 -0.00523739 0)
(0.0635521 -0.00523202 0)
(0.0650471 -0.00522585 0)
(0.0665403 -0.00521883 0)
(0.0680315 -0.00521092 0)
(0.0695203 -0.00520205 0)
(0.0710065 -0.0051922 0)
(0.0724898 -0.0051813 0)
(0.0739699 -0.00516931 0)
(0.0754465 -0.00515618 0)
(0.0769192 -0.00514186 0)
(0.0783877 -0.0051263 0)
(0.0798516 -0.00510945 0)
(0.0813106 -0.00509126 0)
(0.0827643 -0.00507168 0)
(0.0842122 -0.00505066 0)
(0.085654 -0.00502815 0)
(0.0870892 -0.0050041 0)
(0.0885173 -0.00497847 0)
(0.089938 -0.00495121 0)
(0.0913507 -0.00492227 0)
(0.0927549 -0.0048916 0)
(0.0941502 -0.00485917 0)
(0.095536 -0.00482493 0)
(0.0969118 -0.00478883 0)
(0.098277 -0.00475085 0)
(0.0996312 -0.00471093 0)
(0.100974 -0.00466906 0)
(0.102304 -0.00462518 0)
(0.103622 -0.00457928 0)
(0.104926 -0.00453131 0)
(0.106216 -0.00448127 0)
(0.107492 -0.00442911 0)
(0.108752 -0.00437483 0)
(0.109997 -0.0043184 0)
(0.111225 -0.0042598 0)
(0.112436 -0.00419904 0)
(0.11363 -0.00413609 0)
(0.114805 -0.00407095 0)
(0.115961 -0.00400363 0)
(0.117098 -0.00393412 0)
(0.118215 -0.00386244 0)
(0.11931 -0.00378858 0)
(0.120385 -0.00371257 0)
(0.121437 -0.00363442 0)
(0.122467 -0.00355415 0)
(0.123473 -0.0034718 0)
(0.124456 -0.00338738 0)
(0.125414 -0.00330094 0)
(0.126347 -0.00321251 0)
(0.127254 -0.00312214 0)
(0.128135 -0.00302987 0)
(0.12899 -0.00293574 0)
(0.129817 -0.00283982 0)
(0.130617 -0.00274217 0)
(0.131388 -0.00264283 0)
(0.132131 -0.00254188 0)
(0.132845 -0.00243939 0)
(0.133529 -0.00233543 0)
(0.134183 -0.00223007 0)
(0.134806 -0.00212338 0)
(0.135399 -0.00201546 0)
(0.135961 -0.00190638 0)
(0.136491 -0.00179622 0)
(0.136989 -0.00168508 0)
(0.137456 -0.00157305 0)
(0.13789 -0.00146021 0)
(0.138292 -0.00134666 0)
(0.138661 -0.0012325 0)
(0.138998 -0.00111781 0)
(0.139301 -0.0010027 0)
(0.139571 -0.000887255 0)
(0.139809 -0.000771581 0)
(0.140013 -0.000655771 0)
(0.140183 -0.000539923 0)
(0.140321 -0.000424133 0)
(0.140425 -0.000308497 0)
(0.140497 -0.000193109 0)
(0.140535 -7.80639e-05 0)
(0.14054 3.65467e-05 0)
(0.140513 0.000150631 0)
(0.140453 0.000264101 0)
(0.14036 0.000376869 0)
(0.140235 0.000488849 0)
(0.140079 0.000599959 0)
(0.13989 0.000710118 0)
(0.13967 0.000819248 0)
(0.139419 0.000927275 0)
(0.139138 0.00103413 0)
(0.138825 0.00113973 0)
(0.138483 0.00124403 0)
(0.138111 0.00134695 0)
(0.13771 0.00144844 0)
(0.13728 0.00154843 0)
(0.136821 0.00164689 0)
(0.136335 0.00174375 0)
(0.135821 0.00183897 0)
(0.13528 0.00193251 0)
(0.134713 0.00202433 0)
(0.134119 0.00211439 0)
(0.1335 0.00220266 0)
(0.132856 0.00228911 0)
(0.132188 0.00237372 0)
(0.131495 0.00245647 0)
(0.130779 0.00253732 0)
(0.130041 0.00261628 0)
(0.12928 0.00269332 0)
(0.128497 0.00276844 0)
(0.127693 0.00284163 0)
(0.126868 0.00291288 0)
(0.126024 0.0029822 0)
(0.12516 0.00304958 0)
(0.124276 0.00311503 0)
(0.123375 0.00317856 0)
(0.122455 0.00324018 0)
(0.121519 0.00329989 0)
(0.120565 0.00335772 0)
(0.119596 0.00341367 0)
(0.11861 0.00346776 0)
(0.117609 0.00352002 0)
(0.116594 0.00357046 0)
(0.115565 0.00361911 0)
(0.114522 0.00366599 0)
(0.113466 0.00371113 0)
(0.112397 0.00375455 0)
(0.111316 0.00379628 0)
(0.110224 0.00383636 0)
(0.10912 0.0038748 0)
(0.108006 0.00391165 0)
(0.106881 0.00394693 0)
(0.105747 0.00398068 0)
(0.104603 0.00401293 0)
(0.10345 0.00404372 0)
(0.102289 0.00407307 0)
(0.101119 0.00410102 0)
(0.0999418 0.00412761 0)
(0.0987572 0.00415288 0)
(0.0975656 0.00417685 0)
(0.0963674 0.00419957 0)
(0.0951629 0.00422106 0)
(0.0939525 0.00424137 0)
(0.0927364 0.00426053 0)
(0.0915152 0.00427857 0)
(0.0902889 0.00429554 0)
(0.089058 0.00431146 0)
(0.0878228 0.00432637 0)
(0.0865834 0.0043403 0)
(0.0853403 0.0043533 0)
(0.0840936 0.00436538 0)
(0.0828437 0.00437659 0)
(0.0815907 0.00438696 0)
(0.0803349 0.00439652 0)
(0.0790765 0.0044053 0)
(0.0778157 0.00441334 0)
(0.0765528 0.00442066 0)
(0.075288 0.0044273 0)
(0.0740214 0.00443328 0)
(0.0727532 0.00443864 0)
(0.0714836 0.0044434 0)
(0.0702127 0.0044476 0)
(0.0689408 0.00445125 0)
(0.0676679 0.00445439 0)
(0.0663942 0.00445704 0)
(0.0651199 0.00445923 0)
(0.063845 0.00446099 0)
(0.0625697 0.00446233 0)
(0.0612942 0.00446329 0)
(0.0600184 0.00446388 0)
(0.0587425 0.00446414 0)
(0.0574667 0.00446407 0)
(0.0561909 0.00446371 0)
(0.0549153 0.00446307 0)
(0.05364 0.00446218 0)
(0.0523649 0.00446105 0)
(0.0510903 0.0044597 0)
(0.0498161 0.00445816 0)
(0.0485423 0.00445643 0)
(0.0472691 0.00445455 0)
(0.0459965 0.00445252 0)
(0.0447245 0.00445036 0)
(0.0434532 0.00444808 0)
(0.0421825 0.00444572 0)
(0.0409126 0.00444326 0)
(0.0396433 0.00444074 0)
(0.0383749 0.00443817 0)
(0.0371071 0.00443555 0)
(0.0358402 0.0044329 0)
(0.034574 0.00443024 0)
(0.0333086 0.00442758 0)
(0.032044 0.00442491 0)
(0.0307801 0.00442227 0)
(0.029517 0.00441966 0)
(0.0282547 0.00441708 0)
(0.0269931 0.00441455 0)
(0.0257322 0.00441207 0)
(0.0244721 0.00440966 0)
(0.0232126 0.00440732 0)
(0.0219538 0.00440506 0)
(0.0206956 0.00440289 0)
(0.0194381 0.00440081 0)
(0.0181811 0.00439883 0)
(0.0169247 0.00439696 0)
(0.0156689 0.00439519 0)
(0.0144135 0.00439355 0)
(0.0131586 0.00439202 0)
(0.0119041 0.00439062 0)
(0.0106499 0.00438935 0)
(0.00939617 0.00438821 0)
(0.00814272 0.00438721 0)
(0.00688953 0.00438635 0)
(0.00563657 0.00438562 0)
(0.00438381 0.00438504 0)
(0.00313118 0.0043846 0)
(0.00187867 0.00438431 0)
(0.000626216 0.00438417 0)
(0.000743137 -0.00669005 0)
(0.00222944 -0.0066903 0)
(0.00371583 -0.00669081 0)
(0.00520237 -0.00669157 0)
(0.00668911 -0.00669257 0)
(0.00817611 -0.00669381 0)
(0.00966342 -0.00669529 0)
(0.0111511 -0.00669699 0)
(0.0126392 -0.00669891 0)
(0.0141278 -0.00670103 0)
(0.0156169 -0.00670334 0)
(0.0171065 -0.00670584 0)
(0.0185967 -0.00670849 0)
(0.0200876 -0.00671129 0)
(0.0215791 -0.00671422 0)
(0.0230714 -0.00671726 0)
(0.0245643 -0.00672039 0)
(0.026058 -0.00672357 0)
(0.0275525 -0.00672681 0)
(0.0290477 -0.00673005 0)
(0.0305436 -0.00673329 0)
(0.0320404 -0.00673648 0)
(0.0335379 -0.00673961 0)
(0.0350361 -0.00674263 0)
(0.036535 -0.00674552 0)
(0.0380346 -0.00674824 0)
(0.0395348 -0.00675076 0)
(0.0410357 -0.00675303 0)
(0.0425371 -0.00675503 0)
(0.0440389 -0.0067567 0)
(0.0455412 -0.00675801 0)
(0.0470437 -0.00675892 0)
(0.0485465 -0.00675937 0)
(0.0500494 -0.00675933 0)
(0.0515523 -0.00675874 0)
(0.0530551 -0.00675756 0)
(0.0545577 -0.00675573 0)
(0.0560598 -0.00675321 0)
(0.0575614 -0.00674994 0)
(0.0590623 -0.00674587 0)
(0.0605622 -0.00674093 0)
(0.0620611 -0.00673509 0)
(0.0635586 -0.00672827 0)
(0.0650546 -0.00672041 0)
(0.0665488 -0.00671147 0)
(0.068041 -0.00670137 0)
(0.0695309 -0.00669006 0)
(0.0710183 -0.00667747 0)
(0.0725028 -0.00666354 0)
(0.0739842 -0.00664822 0)
(0.0754621 -0.00663142 0)
(0.0769362 -0.00661309 0)
(0.0784061 -0.00659317 0)
(0.0798716 -0.00657159 0)
(0.0813322 -0.00654829 0)
(0.0827874 -0.0065232 0)
(0.084237 -0.00649626 0)
(0.0856806 -0.0064674 0)
(0.0871175 -0.00643657 0)
(0.0885475 -0.00640369 0)
(0.0899701 -0.00636872 0)
(0.0913847 -0.00633158 0)
(0.0927909 -0.00629223 0)
(0.0941882 -0.0062506 0)
(0.0955761 -0.00620665 0)
(0.0969541 -0.00616031 0)
(0.0983215 -0.00611154 0)
(0.0996779 -0.00606028 0)
(0.101023 -0.0060065 0)
(0.102355 -0.00595014 0)
(0.103675 -0.00589117 0)
(0.104982 -0.00582955 0)
(0.106274 -0.00576524 0)
(0.107552 -0.00569822 0)
(0.108815 -0.00562846 0)
(0.110062 -0.00555593 0)
(0.111293 -0.00548062 0)
(0.112507 -0.0054025 0)
(0.113703 -0.00532158 0)
(0.114881 -0.00523783 0)
(0.11604 -0.00515127 0)
(0.117179 -0.00506189 0)
(0.118298 -0.0049697 0)
(0.119396 -0.00487472 0)
(0.120473 -0.00477696 0)
(0.121528 -0.00467644 0)
(0.12256 -0.0045732 0)
(0.123568 -0.00446727 0)
(0.124553 -0.00435867 0)
(0.125514 -0.00424747 0)
(0.126449 -0.00413371 0)
(0.127359 -0.00401743 0)
(0.128242 -0.00389871 0)
(0.129099 -0.0037776 0)
(0.129928 -0.00365418 0)
(0.13073 -0.00352852 0)
(0.131503 -0.00340069 0)
(0.132247 -0.00327078 0)
(0.132963 -0.00313889 0)
(0.133648 -0.00300509 0)
(0.134304 -0.00286949 0)
(0.134929 -0.00273219 0)
(0.135523 -0.00259328 0)
(0.136086 -0.00245289 0)
(0.136617 -0.00231111 0)
(0.137117 -0.00216807 0)
(0.137585 -0.00202387 0)
(0.13802 -0.00187863 0)
(0.138422 -0.00173248 0)
(0.138792 -0.00158553 0)
(0.139129 -0.00143791 0)
(0.139433 -0.00128975 0)
(0.139704 -0.00114115 0)
(0.139941 -0.000992265 0)
(0.140145 -0.000843201 0)
(0.140316 -0.000694089 0)
(0.140453 -0.000545052 0)
(0.140558 -0.000396214 0)
(0.140628 -0.000247698 0)
(0.140666 -9.96238e-05 0)
(0.140671 4.78883e-05 0)
(0.140643 0.000194722 0)
(0.140582 0.000340761 0)
(0.140489 0.000485893 0)
(0.140363 0.00063001 0)
(0.140205 0.000773003 0)
(0.140016 0.00091477 0)
(0.139795 0.00105521 0)
(0.139542 0.00119422 0)