/*--------------------------------*- C++ -*----------------------------------*\
| =========                 |                                                 |
| \\      /  F ield         | OpenFOAM: The Open Source CFD Toolbox           |
|  \\    /   O peration     | Version:  v2012                                 |
|   \\  /    A nd           | Website:  www.openfoam.com                      |
|    \\/     M anipulation  |                                                 |
\*---------------------------------------------------------------------------*/
FoamFile
{
    version     2.0;
    format      ascii;
    class       volScalarField;
    location    "0";
    object      p;
}
// * * * * * * * * * * * * * * * * * * * * * * * * * * * * * * * * * * * * * //

dimensions      [0 2 -2 0 0 0 0];


internalField   nonuniform List<scalar> 
4000
(
5.42558e-14
4.75779e-14
4.9872e-14
4.95946e-14
4.49165e-14
4.79971e-14
5.06211e-14
4.41479e-14
3.42654e-14
3.0385e-14
3.94711e-14
4.33313e-14
4.27297e-14
2.5955e-14
2.0975e-14
2.28462e-14
3.23691e-14
2.87297e-14
2.96441e-14
1.90839e-14
1.16897e-14
1.41405e-14
1.10426e-14
1.03593e-14
6.59297e-15
7.32128e-15
5.97178e-15
1.15689e-14
1.33956e-14
5.27181e-15
-3.67593e-15
-7.57542e-15
-9.79854e-15
-1.72002e-14
-1.30884e-14
-7.73471e-15
-1.91565e-14
-2.86545e-14
-3.10998e-14
-2.9416e-14
-2.42056e-14
-1.58754e-14
-5.54653e-15
-1.59766e-14
-2.12549e-14
-1.8289e-14
-1.29738e-14
-1.09789e-14
-1.33155e-14
-7.42066e-15
-1.21345e-15
-1.46432e-15
-6.77859e-15
1.75681e-15
-2.64367e-15
-1.89813e-15
-8.73515e-15
3.50235e-15
1.41848e-14
2.0903e-14
1.8139e-14
1.73332e-14
2.07383e-14
2.74306e-14
3.24201e-14
3.16473e-14
3.813e-14
3.39148e-14
3.34661e-14
3.16207e-14
2.77212e-14
2.69058e-14
2.93251e-14
2.68822e-14
2.46782e-14
3.12463e-14
3.06862e-14
3.22616e-14
3.0373e-14
2.23418e-14
1.97196e-14
1.56737e-14
1.81546e-14
2.11545e-14
2.11904e-14
2.15133e-14
2.79632e-14
2.50691e-14
3.25595e-14
3.39297e-14
3.09355e-14
2.9985e-14
3.30436e-14
2.79291e-14
2.72502e-14
3.11609e-14
2.06743e-14
1.43835e-14
6.03008e-15
4.49906e-15
5.01424e-14
5.00285e-14
4.93251e-14
5.31792e-14
4.59718e-14
4.52564e-14
4.72451e-14
4.55015e-14
3.76626e-14
3.65387e-14
3.87529e-14
3.96071e-14
3.59943e-14
2.83271e-14
2.89898e-14
2.26676e-14
3.18064e-14
2.59709e-14
2.59821e-14
2.01422e-14
1.72823e-14
1.20918e-14
1.12036e-14
7.41834e-15
7.4757e-15
8.8172e-15
1.19118e-14
1.21684e-14
7.67048e-15
2.33077e-15
-1.98084e-15
-2.77874e-15
-1.53232e-14
-2.25392e-14
-1.50653e-14
-1.07761e-14
-1.84109e-14
-2.4374e-14
-2.70769e-14
-2.4657e-14
-2.44196e-14
-1.47961e-14
-1.24441e-14
-2.07278e-14
-1.84706e-14
-1.68569e-14
-1.41943e-14
-1.38348e-14
-1.18905e-14
-8.47181e-15
-4.54135e-16
-4.71863e-15
-3.69128e-15
-5.20609e-17
-4.13703e-15
-1.02579e-15
-4.32119e-15
2.22562e-15
1.28896e-14
1.60313e-14
2.22165e-14
2.13006e-14
2.54694e-14
2.78129e-14
3.02281e-14
3.4323e-14
3.56272e-14
3.09995e-14
3.43232e-14
3.56669e-14
2.70813e-14
2.56312e-14
3.16174e-14
2.64996e-14
2.78366e-14
2.97118e-14
3.34128e-14
3.05022e-14
2.3478e-14
2.29118e-14
2.02411e-14
1.69585e-14
2.30437e-14
1.93491e-14
2.20259e-14
1.97512e-14
2.4946e-14
2.34866e-14
3.02786e-14
3.46876e-14
3.33955e-14
3.09089e-14
3.60971e-14
3.14438e-14
2.88055e-14
2.94802e-14
1.91175e-14
1.42865e-14
8.28393e-15
4.66366e-15
4.99621e-14
5.00887e-14
4.93525e-14
5.30293e-14
5.02624e-14
4.64846e-14
4.67795e-14
4.20694e-14
3.5668e-14
4.15113e-14
4.24524e-14
4.01625e-14
3.23139e-14
2.86296e-14
2.94593e-14
2.63175e-14
2.80522e-14
2.50286e-14
2.44075e-14
2.45922e-14
1.7415e-14
1.16913e-14
1.23693e-14
1.13793e-14
8.84398e-15
3.48046e-15
6.69063e-15
1.04936e-14
6.0853e-15
5.48647e-15
-3.58502e-16
-8.40576e-15
-1.72652e-14
-1.78851e-14
-1.5056e-14
-1.66953e-14
-1.72896e-14
-1.98464e-14
-2.5096e-14
-2.71248e-14
-2.30978e-14
-1.75129e-14
-1.42496e-14
-1.43496e-14
-1.14307e-14
-1.40199e-14
-1.62159e-14
-2.22225e-14
-1.44719e-14
-5.34397e-15
-1.66668e-15
-1.74593e-15
-3.34755e-15
-2.23975e-15
-5.69995e-15
-4.00118e-15
1.09253e-16
6.00721e-15
1.50223e-14
2.00733e-14
1.51926e-14
1.50646e-14
2.18799e-14
2.87446e-14
3.07218e-14
3.46836e-14
3.55106e-14
3.56084e-14
3.44277e-14
3.00171e-14
2.43581e-14
2.10865e-14
2.42817e-14
2.33118e-14
3.37063e-14
3.09905e-14
3.16832e-14
2.734e-14
2.44909e-14
2.23566e-14
2.36066e-14
2.0756e-14
1.76533e-14
1.70249e-14
2.01353e-14
2.40582e-14
3.15268e-14
2.71748e-14
3.09061e-14
3.06872e-14
3.29327e-14
2.8513e-14
3.51124e-14
3.3786e-14
3.02049e-14
2.54259e-14
1.7012e-14
1.32036e-14
1.37966e-14
4.03524e-15
4.9713e-14
5.06565e-14
5.18397e-14
4.74821e-14
5.43078e-14
4.6605e-14
4.16313e-14
4.17443e-14
4.81452e-14
4.73498e-14
3.8131e-14
3.89758e-14
3.29166e-14
2.74204e-14
3.51405e-14
2.63566e-14
2.56199e-14
2.73597e-14
2.56614e-14
2.36193e-14
1.65022e-14
1.43653e-14
8.55719e-15
9.09194e-15
7.51955e-15
3.31284e-15
3.40298e-15
9.11815e-15
1.02261e-14
8.20332e-15
2.95976e-15
-1.28308e-14
-1.79519e-14
-1.77887e-14
-2.38601e-14
-1.82082e-14
-9.22831e-15
-1.80074e-14
-2.79908e-14
-2.71635e-14
-1.86055e-14
-1.1892e-14
-1.59588e-14
-1.75734e-14
-1.89022e-14
-1.71942e-14
-1.36626e-14
-1.9902e-14
-1.14861e-14
-7.24683e-15
-8.74239e-15
-4.22313e-15
-3.06062e-15
2.3483e-15
-5.86704e-15
-2.59627e-15
-3.34181e-17
8.8219e-15
1.48853e-14
1.8718e-14
1.44407e-14
1.77645e-14
2.49404e-14
2.5143e-14
3.05419e-14
3.40856e-14
3.25089e-14
3.97064e-14
3.12842e-14
2.86023e-14
2.73143e-14
2.56418e-14
2.34441e-14
2.43172e-14
3.23126e-14
2.74552e-14
2.68597e-14
2.59928e-14
2.60699e-14
2.44227e-14
1.79097e-14
2.08484e-14
2.22245e-14
2.00301e-14
1.92376e-14
2.13947e-14
2.80404e-14
2.58253e-14
2.96479e-14
2.87296e-14
3.46836e-14
3.08592e-14
3.69234e-14
3.30557e-14
3.13479e-14
2.48511e-14
1.40089e-14
1.33103e-14
7.50401e-15
-1.40176e-15
5.28227e-14
5.49386e-14
5.03054e-14
4.66852e-14
4.54344e-14
4.63667e-14
4.62792e-14
4.67481e-14
4.45116e-14
4.56777e-14
4.13205e-14
3.7859e-14
2.90938e-14
2.71308e-14
3.64822e-14
3.18327e-14
2.60563e-14
2.66732e-14
2.43788e-14
1.56868e-14
2.09572e-14
1.27513e-14
5.2127e-15
4.0561e-15
8.79564e-15
8.79076e-15
2.42236e-15
4.59434e-15
8.71113e-15
1.0627e-14
4.83356e-15
-1.16455e-14
-1.74423e-14
-1.99268e-14
-2.67033e-14
-1.75171e-14
-1.89563e-14
-2.12555e-14
-2.02176e-14
-2.08523e-14
-2.01449e-14
-1.23809e-14
-1.11247e-14
-1.79297e-14
-1.74333e-14
-1.64574e-14
-1.57298e-14
-1.57476e-14
-1.45931e-14
-9.00157e-15
-5.55361e-15
4.23372e-15
-3.28219e-15
-1.83699e-15
-3.73378e-15
-1.15059e-15
1.22401e-15
7.9893e-15
2.15576e-14
2.01131e-14
1.20957e-14
1.55162e-14
2.27988e-14
2.53097e-14
3.45552e-14
3.85324e-14
3.61027e-14
3.69161e-14
2.65396e-14
2.36543e-14
2.64296e-14
2.08742e-14
2.11224e-14
2.38362e-14
2.98738e-14
2.56063e-14
2.76661e-14
2.64664e-14
2.72503e-14
2.7225e-14
2.54e-14
2.12012e-14
1.98546e-14
1.68094e-14
1.4768e-14
1.94184e-14
2.48166e-14
2.76224e-14
3.01809e-14
3.3325e-14
3.17297e-14
3.19631e-14
3.03311e-14
3.42477e-14
3.35245e-14
2.73638e-14
1.25417e-14
9.7015e-15
7.71636e-15
-1.58445e-15
4.70396e-14
5.51554e-14
4.95427e-14
4.35352e-14
5.17891e-14
5.66593e-14
5.09067e-14
4.42004e-14
4.57196e-14
3.90164e-14
3.62286e-14
3.73338e-14
3.68677e-14
3.05829e-14
2.9917e-14
3.48767e-14
2.77513e-14
2.65539e-14
2.72708e-14
2.38941e-14
1.54963e-14
1.17994e-14
-1.44921e-15
-2.50009e-15
1.13266e-14
1.10331e-14
-3.22893e-15
2.31787e-15
9.02622e-15
1.13399e-14
3.95685e-15
-6.23491e-15
-1.68302e-14
-2.06103e-14
-1.77469e-14
-1.51446e-14
-2.18333e-14
-2.15098e-14
-2.24764e-14
-2.3121e-14
-1.73316e-14
-1.05214e-14
-1.21126e-14
-1.4589e-14
-1.17045e-14
-1.74742e-14
-2.31773e-14
-1.61304e-14
-1.08092e-14
-7.82412e-15
-3.7584e-15
1.92364e-16
2.33799e-15
-5.25515e-15
-4.79548e-16
-7.63427e-16
-8.87679e-16
1.3397e-14
1.95614e-14
2.24612e-14
1.8151e-14
1.97783e-14
2.36348e-14
2.3821e-14
3.26395e-14
3.72012e-14
3.85334e-14
3.57964e-14
2.74033e-14
2.92776e-14
2.75947e-14
2.15551e-14
2.23457e-14
2.46451e-14
2.57569e-14
2.82129e-14
2.78546e-14
2.66963e-14
2.27103e-14
2.50984e-14
2.38754e-14
2.12755e-14
1.40786e-14
2.08657e-14
1.97108e-14
1.48657e-14
2.28546e-14
2.40809e-14
2.92663e-14
3.10229e-14
3.3582e-14
3.02448e-14
2.85233e-14
3.12263e-14
3.06948e-14
2.47018e-14
1.99148e-14
5.71211e-15
2.16759e-15
-7.94285e-16
5.23325e-14
5.42257e-14
5.22305e-14
5.24537e-14
4.83273e-14
4.84177e-14
5.41498e-14
4.72633e-14
4.15623e-14
3.66068e-14
3.33851e-14
3.76353e-14
3.59459e-14
3.33487e-14
3.23402e-14
3.11171e-14
3.40937e-14
3.18885e-14
2.4979e-14
1.19429e-14
2.20387e-15
7.29503e-15
9.57221e-15
9.14461e-15
6.61133e-15
9.21506e-15
-2.5158e-15
3.00328e-15
5.38914e-15
1.11034e-14
3.24096e-15
-6.36131e-15
-2.20812e-14
-2.18688e-14
-1.95259e-14
-1.86961e-14
-1.69449e-14
-1.84523e-14
-2.1395e-14
-2.05793e-14
-2.18739e-14
-1.50906e-14
-1.04911e-14
-1.04648e-14
-9.82402e-15
-1.24601e-14
-1.34004e-14
-2.03286e-14
-1.11956e-14
-4.87813e-15
-9.24196e-15
-8.71743e-16
4.88561e-15
8.10904e-16
3.03296e-16
1.7518e-15
3.58292e-15
8.84952e-15
1.50688e-14
2.19993e-14
2.48571e-14
2.14529e-14
1.99868e-14
2.19212e-14
3.01707e-14
3.61155e-14
3.05711e-14
2.71126e-14
2.19948e-14
2.82342e-14
3.77434e-14
2.979e-14
2.05877e-14
2.37619e-14
2.51583e-14
2.47121e-14
2.23657e-14
2.57341e-14
2.83519e-14
2.64997e-14
2.35735e-14
2.05343e-14
1.7769e-14
1.88421e-14
2.01392e-14
1.65929e-14
1.95009e-14
2.46322e-14
2.95262e-14
3.00806e-14
3.13163e-14
2.86781e-14
2.72906e-14
2.71666e-14
2.9534e-14
2.23475e-14
1.70595e-14
6.6176e-15
3.61805e-15
1.39734e-15
4.88538e-14
4.92111e-14
4.97376e-14
5.17769e-14
5.4775e-14
5.68693e-14
5.89717e-14
4.38584e-14
4.21929e-14
4.02289e-14
3.48553e-14
3.52601e-14
3.56182e-14
3.09674e-14
2.88643e-14
3.04551e-14
3.49847e-14
3.13368e-14
2.06728e-14
1.32202e-14
1.48174e-14
1.68148e-14
1.12271e-14
5.20853e-15
2.57555e-16
-7.35685e-16
-2.31601e-15
4.65766e-15
4.85856e-15
5.85034e-15
2.70628e-17
-3.82074e-15
-1.50633e-14
-1.8925e-14
-1.76278e-14
-1.70318e-14
-1.83126e-14
-2.26114e-14
-2.22936e-14
-2.4766e-14
-2.38333e-14
-1.33694e-14
-5.32642e-15
7.44104e-18
1.23518e-15
-1.20133e-14
-1.66205e-14
-1.95138e-14
-1.30729e-14
-6.0777e-15
-1.76347e-15
7.08659e-15
1.32899e-15
-2.81228e-15
-7.19508e-15
2.79306e-15
9.33541e-15
1.08212e-14
1.7794e-14
1.77348e-14
1.80223e-14
2.42306e-14
2.30459e-14
2.58693e-14
2.93254e-14
3.10493e-14
3.17796e-14
2.84602e-14
2.51071e-14
2.72895e-14
3.06798e-14
3.09163e-14
2.10965e-14
1.79558e-14
2.15405e-14
2.4222e-14
2.54933e-14
2.71121e-14
3.25785e-14
2.71705e-14
2.51855e-14
2.13623e-14
1.37947e-14
1.88548e-14
1.23178e-14
1.72467e-14
2.1407e-14
2.52478e-14
3.1283e-14
3.27127e-14
3.17733e-14
2.85793e-14
2.66018e-14
2.76283e-14
2.26888e-14
1.83736e-14
1.89347e-14
6.47525e-15
6.53206e-15
2.42798e-17
5.29238e-14
5.35691e-14
5.39544e-14
5.15228e-14
5.06021e-14
5.72123e-14
5.73007e-14
4.5396e-14
3.93896e-14
4.32847e-14
3.51556e-14
3.51478e-14
2.84593e-14
2.87456e-14
3.29672e-14
2.83598e-14
3.71609e-14
3.07832e-14
2.37939e-14
1.31678e-14
1.39067e-14
9.28197e-15
1.05649e-14
1.02193e-14
3.46611e-15
3.60996e-15
-3.94998e-15
8.7652e-16
9.48976e-16
6.17831e-15
9.51035e-15
-2.52087e-15
-2.11194e-14
-2.08085e-14
-1.96106e-14
-1.93864e-14
-1.73244e-14
-1.74715e-14
-2.08912e-14
-1.84613e-14
-1.31997e-14
-1.04614e-14
-1.34176e-14
-4.7034e-15
-5.54241e-15
-8.62023e-15
-1.48516e-14
-1.82893e-14
-8.77824e-15
-4.33022e-15
-1.04747e-15
-3.05359e-17
-5.10369e-15
-4.87249e-15
1.31006e-15
8.90739e-15
1.46467e-14
1.6505e-14
1.56779e-14
1.49298e-14
1.41891e-14
1.97516e-14
2.28835e-14
2.55455e-14
2.4749e-14
2.7395e-14
3.16745e-14
2.49182e-14
2.43001e-14
2.68682e-14
2.66001e-14
3.04361e-14
2.6307e-14
2.88698e-14
2.47866e-14
2.32711e-14
2.49669e-14
2.95376e-14
2.89353e-14
2.72966e-14
2.83943e-14
2.27168e-14
1.64019e-14
1.63851e-14
2.1341e-14
1.98377e-14
2.41398e-14
2.41969e-14
3.08211e-14
3.26896e-14
3.39237e-14
2.84969e-14
2.63108e-14
2.20534e-14
1.85221e-14
1.83192e-14
1.79063e-14
9.94062e-15
3.79121e-15
-9.88422e-16
5.66433e-14
5.49559e-14
5.55322e-14
5.31554e-14
5.03642e-14
5.78085e-14
5.49634e-14
4.89997e-14
4.74024e-14
4.2478e-14
3.15753e-14
3.0152e-14
3.0698e-14
3.27373e-14
4.2854e-14
2.91802e-14
2.75463e-14
3.22731e-14
2.87357e-14
2.11208e-14
1.13505e-14
4.35271e-15
4.37168e-15
9.42518e-15
8.27911e-15
4.43194e-15
3.2714e-15
4.00535e-15
-4.04565e-15
3.29628e-15
7.88608e-15
2.75355e-17
-1.42824e-14
-2.76909e-14
-2.76017e-14
-1.99586e-14
-1.44115e-14
-1.80276e-14
-1.77591e-14
-1.80171e-14
-1.58063e-14
-1.84394e-14
-1.23059e-14
-5.27032e-15
-4.21164e-15
-7.21168e-15
-9.63199e-15
-1.31816e-14
-2.91561e-15
-1.85488e-15
-1.07951e-14
-5.5533e-15
5.19429e-16
1.20235e-15
-8.19455e-16
3.89737e-15
1.25302e-14
1.47596e-14
1.77265e-14
1.71205e-14
2.1374e-14
2.57249e-14
2.78934e-14
2.3207e-14
2.21588e-14
2.03335e-14
2.27307e-14
2.49442e-14
1.71179e-14
2.95777e-14
3.40606e-14
3.30682e-14
2.44512e-14
3.10787e-14
2.69071e-14
2.23582e-14
2.48764e-14
2.80536e-14
2.83943e-14
2.72504e-14
3.00394e-14
2.80463e-14
2.32556e-14
1.87597e-14
1.63622e-14
2.11894e-14
2.98125e-14
2.49302e-14
2.84562e-14
3.32062e-14
3.22821e-14
2.90518e-14
2.52377e-14
1.85082e-14
1.1581e-14
8.45724e-15
1.16471e-14
1.00181e-14
5.25079e-15
2.07226e-15
5.35367e-14
5.52305e-14
5.48224e-14
5.72559e-14
5.47008e-14
6.23258e-14
5.16718e-14
4.71866e-14
4.80099e-14
4.81874e-14
3.61061e-14
3.12326e-14
3.44159e-14
3.54623e-14
3.33486e-14
3.56732e-14
3.23514e-14
3.36904e-14
2.56202e-14
2.54582e-14
1.82248e-14
5.29328e-15
-4.54079e-15
2.26732e-15
9.62196e-15
6.08317e-15
3.26907e-15
5.70291e-15
3.76962e-15
-7.85236e-16
-6.68836e-16
-6.53692e-15
-1.19455e-14
-1.80624e-14
-1.87187e-14
-1.9162e-14
-1.56604e-14
-1.76307e-14
-1.65961e-14
-2.46897e-14
-1.52905e-14
-9.20417e-15
-9.51179e-15
-5.28466e-15
-2.29471e-15
-6.61356e-15
-7.78373e-15
-1.2882e-14
-1.10679e-14
-5.25449e-15
-1.24019e-15
-3.00128e-15
-6.06642e-15
-1.34271e-17
5.40875e-16
5.25162e-15
1.67173e-14
1.6689e-14
2.01759e-14
1.49268e-14
1.74467e-14
2.39596e-14
2.48236e-14
2.34827e-14
2.30845e-14
1.96329e-14
1.75676e-14
2.22559e-14
2.80698e-14
3.61408e-14
3.35859e-14
2.89027e-14
2.94058e-14
3.04814e-14
2.53647e-14
1.9299e-14
2.58687e-14
3.33481e-14
3.20097e-14
3.41418e-14
3.26761e-14
3.42807e-14
2.169e-14
1.95424e-14
2.00896e-14
1.95993e-14
2.83714e-14
3.24517e-14
3.23103e-14
2.9702e-14
3.15626e-14
2.59744e-14
2.266e-14
1.66629e-14
1.24438e-14
8.362e-15
6.19681e-15
-1.70123e-15
-1.07213e-16
1.77775e-15
5.72526e-14
5.68781e-14
5.67065e-14
5.8983e-14
5.76314e-14
5.56313e-14
5.52919e-14
5.04488e-14
4.5366e-14
4.31781e-14
3.56007e-14
3.76077e-14
3.83133e-14
3.38027e-14
3.64058e-14
3.31901e-14
3.19848e-14
3.2593e-14
2.72868e-14
2.4783e-14
1.42396e-14
1.37451e-14
8.48714e-15
2.5733e-15
8.62665e-15
4.3709e-15
2.53211e-15
4.23817e-15
-2.43296e-15
-5.60341e-15
7.96206e-16
-2.74217e-15
-1.14096e-14
-1.60526e-14
-2.18004e-14
-2.0477e-14
-1.44596e-14
-1.05537e-14
-1.49024e-14
-2.52223e-14
-1.27878e-14
-1.17226e-14
-1.12685e-14
-2.64003e-15
-4.53218e-16
-6.67856e-15
-5.53437e-15
-1.10949e-14
-1.09362e-14
-9.62231e-15
-5.63778e-15
6.49751e-15
-4.26613e-15
3.10114e-15
2.69345e-15
4.25013e-15
8.90265e-15
6.68619e-15
1.47692e-14
2.23914e-14
2.21032e-14
2.90849e-14
2.9115e-14
2.05814e-14
2.08683e-14
1.70787e-14
1.78913e-14
2.30488e-14
1.93251e-14
2.59033e-14
3.15318e-14
3.94251e-14
3.30201e-14
2.95047e-14
2.29789e-14
2.30581e-14
2.06056e-14
3.12167e-14
4.09838e-14
4.24708e-14
3.25606e-14
3.29251e-14
2.89063e-14
2.61998e-14
2.421e-14
2.46801e-14
2.77488e-14
3.03684e-14
3.15369e-14
3.07153e-14
2.65363e-14
2.30799e-14
1.94156e-14
1.43351e-14
1.13042e-14
1.0683e-14
5.23957e-15
-1.7768e-15
-3.85496e-15
5.60203e-16
5.73006e-14
5.87256e-14
5.30884e-14
5.95706e-14
5.88841e-14
5.83018e-14
5.40083e-14
5.16847e-14
4.61593e-14
3.85081e-14
3.33303e-14
3.72063e-14
4.39817e-14
4.02118e-14
4.04121e-14
3.70922e-14
3.49534e-14
3.11625e-14
2.75683e-14
2.78749e-14
7.07494e-15
-3.25748e-16
-3.02272e-15
5.50298e-15
8.7285e-15
4.02678e-15
9.15292e-16
6.58235e-15
5.92567e-16
1.0698e-15
9.43452e-16
-7.28707e-15
-1.3184e-14
-1.3749e-14
-1.73959e-14
-2.04746e-14
-1.15134e-14
-1.08963e-14
-1.32526e-14
-2.57932e-14
-1.96127e-14
-9.02943e-15
-6.00149e-15
-1.1779e-15
-2.4282e-15
-1.2063e-14
-8.34382e-15
-5.08559e-15
-4.78958e-15
-3.95351e-15
-5.65991e-15
-1.61104e-16
-6.50935e-15
-3.91451e-15
5.78869e-15
1.45945e-14
9.29265e-15
-6.17972e-16
7.83568e-15
1.6699e-14
2.47799e-14
2.36264e-14
2.3273e-14
1.79454e-14
1.75114e-14
2.29931e-14
2.05248e-14
2.12183e-14
2.25433e-14
2.81871e-14
3.08538e-14
4.15033e-14
4.51024e-14
3.60375e-14
2.16093e-14
2.0979e-14
2.89039e-14
3.63838e-14
3.21878e-14
3.79248e-14
3.41208e-14
3.62368e-14
3.58359e-14
2.81814e-14
2.65248e-14
2.39879e-14
3.14134e-14
3.19418e-14
3.29901e-14
3.03902e-14
3.23535e-14
2.28019e-14
1.75496e-14
1.50253e-14
1.20348e-14
1.40645e-14
4.68719e-15
-1.12354e-15
-7.47092e-15
2.34684e-15
5.65742e-14
6.46214e-14
5.85887e-14
5.64273e-14
5.78652e-14
5.8687e-14
5.64047e-14
5.2239e-14
4.61109e-14
3.58902e-14
3.40526e-14
3.61872e-14
4.65797e-14
4.59803e-14
4.19073e-14
3.22092e-14
2.50356e-14
2.30539e-14
2.19846e-14
2.86313e-14
3.16318e-14
2.84857e-14
8.29116e-15
8.4611e-15
2.41802e-15
-4.96179e-15
-5.55976e-15
-2.26911e-15
-5.53668e-16
4.21081e-15
9.19716e-16
-5.53037e-15
-1.20802e-14
-1.56528e-14
-2.14391e-14
-1.48256e-14
-5.28776e-15
-7.89141e-15
-1.93048e-14
-2.47639e-14
-1.08992e-14
-7.60967e-15
-8.09494e-15
-8.37007e-15
-1.07363e-14
-1.06243e-14
-1.01621e-14
-2.45294e-15
-2.15121e-15
-8.15392e-16
1.59571e-15
-1.79398e-16
-1.57303e-15
-1.89116e-15
2.02798e-15
8.84032e-15
1.23105e-14
7.18289e-15
1.1603e-14
1.75467e-14
1.74618e-14
1.99255e-14
2.00899e-14
1.66663e-14
2.09862e-14
2.13679e-14
2.57559e-14
2.18057e-14
2.83712e-14
3.00298e-14
3.13484e-14
3.49711e-14
3.56111e-14
3.02265e-14
2.91364e-14
3.09743e-14
2.9084e-14
3.16608e-14
3.28946e-14
4.17262e-14
4.21835e-14
3.49222e-14
3.28953e-14
3.02254e-14
2.8369e-14
2.75718e-14
3.44725e-14
3.06688e-14
3.694e-14
3.39368e-14
3.22324e-14
2.30624e-14
2.31965e-14
1.92192e-14
8.52664e-15
1.02086e-14
2.08604e-15
1.25572e-15
-3.71431e-15
3.96524e-16
5.92181e-14
6.26959e-14
6.10279e-14
5.86214e-14
5.90917e-14
6.45717e-14
5.53672e-14
4.17891e-14
4.10314e-14
4.38553e-14
4.71738e-14
4.39784e-14
4.99319e-14
4.18748e-14
3.9504e-14
3.83667e-14
3.51622e-14
3.34987e-14
2.93839e-14
2.67742e-14
1.70542e-14
2.33385e-15
3.748e-15
2.84789e-15
6.77156e-15
6.32757e-15
1.86752e-15
-2.89106e-16
1.03898e-15
5.07104e-15
-1.21122e-15
-3.01038e-15
-5.88783e-15
-1.84489e-14
-2.4357e-14
-1.22531e-14
-5.38086e-15
-1.10407e-14
-1.00368e-14
-1.4276e-14
-1.60853e-14
-1.08575e-14
-1.6285e-14
-9.39125e-15
-1.20773e-14
-6.37675e-15
-5.77038e-15
-5.25311e-15
-9.73473e-16
2.44707e-15
-1.27724e-15
-1.95694e-15
-6.43736e-15
-3.15691e-15
-4.79449e-15
3.0262e-15
1.51658e-14
1.13368e-14
9.35813e-15
1.19172e-14
1.40454e-14
2.35085e-14
1.98787e-14
1.56928e-14
2.08272e-14
1.41294e-14
2.40553e-14
2.51884e-14
3.1739e-14
3.64163e-14
3.2569e-14
3.39018e-14
3.45869e-14
3.11534e-14
3.56064e-14
2.57592e-14
2.88274e-14
3.38518e-14
4.15554e-14
4.18823e-14
4.14815e-14
4.11174e-14
3.77996e-14
2.74937e-14
2.8827e-14
2.84471e-14
3.38659e-14
3.60374e-14
3.56174e-14
3.10159e-14
3.18265e-14
2.69523e-14
2.31543e-14
1.71965e-14
1.10288e-14
3.516e-15
8.98169e-17
2.53218e-15
-6.56824e-16
1.10808e-15
5.61008e-14
6.42957e-14
6.43797e-14
5.87725e-14
5.39755e-14
6.58243e-14
7.046e-14
5.36292e-14
3.83371e-14
3.74737e-14
3.81884e-14
4.21015e-14
4.96046e-14
4.76768e-14
4.73234e-14
3.89386e-14
3.16365e-14
2.87686e-14
1.98176e-14
2.87492e-14
2.50219e-14
1.30028e-14
7.89783e-15
8.17935e-15
5.58332e-15
5.33453e-15
4.45464e-15
2.78795e-15
1.48005e-15
5.99643e-15
-4.19657e-16
-8.99081e-15
-8.27691e-15
-1.67954e-14
-2.09121e-14
-1.36928e-14
-7.57499e-15
-9.4412e-15
-1.25011e-14
-1.2058e-14
-1.4992e-14
-1.77188e-14
-1.38772e-14
-1.15206e-14
-1.05512e-14
-7.32449e-15
-6.75372e-15
-4.47943e-15
-4.00282e-15
-1.82043e-15
-4.74969e-15
-6.31415e-16
-5.29197e-15
-6.36763e-15
1.51819e-15
5.16318e-15
9.19886e-15
1.41078e-14
1.71775e-14
1.5158e-14
1.30345e-14
1.5584e-14
1.59573e-14
1.58793e-14
2.46275e-14
2.66962e-14
2.17692e-14
2.08505e-14
3.15944e-14
3.76537e-14
3.34913e-14
3.09337e-14
3.81097e-14
3.65004e-14
3.32537e-14
3.03725e-14
3.78656e-14
3.56503e-14
3.65888e-14
3.87967e-14
4.22691e-14
4.57437e-14
3.96391e-14
3.13066e-14
3.22921e-14
3.23463e-14
3.29115e-14
3.68335e-14
3.61757e-14
3.1667e-14
2.78105e-14
2.49346e-14
1.89811e-14
1.56649e-14
1.04718e-14
1.10583e-14
6.33504e-15
-2.17569e-15
-2.49899e-15
-3.76202e-15
6.40165e-14
6.16927e-14
5.62513e-14
5.29603e-14
5.30297e-14
6.16003e-14
5.29297e-14
5.89482e-14
5.6943e-14
5.09636e-14
4.87012e-14
4.57398e-14
4.44951e-14
4.16611e-14
4.8743e-14
4.30335e-14
3.1147e-14
3.35013e-14
2.87642e-14
2.36306e-14
1.0798e-14
4.71376e-15
8.2041e-15
1.476e-14
9.03686e-15
4.88751e-15
6.37529e-15
-3.55099e-15
3.13081e-15
4.79187e-15
2.28775e-15
-5.07597e-15
-9.22801e-15
-2.15278e-14
-2.01182e-14
-1.20322e-14
-5.98689e-15
-8.18933e-15
-7.2295e-15
-9.10817e-15
-1.99301e-14
-2.69208e-14
-1.47359e-14
-1.03767e-14
-9.51513e-15
-7.76266e-15
-1.07545e-14
-1.06763e-14
-1.11682e-14
-1.86207e-15
-3.23388e-15
-2.30052e-16
-4.64528e-15
-2.83609e-15
-4.17103e-15
2.25105e-15
5.90581e-15
1.42308e-14
2.05357e-14
1.86544e-14
1.3706e-14
1.25633e-14
2.09921e-14
2.01525e-14
2.82661e-14
2.38503e-14
2.43638e-14
2.0862e-14
3.00678e-14
3.45117e-14
2.71359e-14
3.06604e-14
3.7666e-14
4.13192e-14
3.73643e-14
3.35543e-14
3.1187e-14
3.82788e-14
3.79778e-14
4.2314e-14
4.92911e-14
4.36061e-14
4.09968e-14
3.0751e-14
3.10064e-14
3.9126e-14
4.02973e-14
3.4467e-14
3.36549e-14
3.29077e-14
2.71557e-14
2.2268e-14
1.50251e-14
1.82229e-14
1.27785e-14
1.25944e-14
9.34906e-15
1.2504e-15
1.1965e-16
-1.77827e-15
6.15805e-14
5.76975e-14
5.77947e-14
6.03344e-14
6.33255e-14
6.60115e-14
5.35912e-14
4.78568e-14
5.28004e-14
5e-14
5.2349e-14
5.42406e-14
4.58712e-14
4.10678e-14
4.25774e-14
3.48239e-14
3.96098e-14
3.09135e-14
2.69015e-14
2.36491e-14
1.94693e-14
7.66988e-15
2.1279e-15
1.43392e-14
1.39609e-14
2.83404e-15
6.33472e-15
4.24197e-15
2.0733e-15
5.14729e-15
3.74433e-15
-5.35136e-15
-8.63828e-15
-1.90038e-14
-2.57353e-14
-1.27107e-14
-1.01749e-14
-7.76809e-15
-7.06247e-15
-8.87417e-15
-1.76667e-14
-2.26069e-14
-1.40773e-14
-1.66697e-14
-1.18011e-14
-7.43543e-15
-9.08493e-15
-1.94547e-14
-2.14558e-14
-4.15414e-15
-2.81007e-18
-2.14102e-15
-3.83193e-15
-2.76779e-15
-1.55565e-15
6.55521e-15
8.1172e-15
1.3118e-14
2.05871e-14
1.67264e-14
1.73459e-14
1.80545e-14
2.05076e-14
2.68214e-14
2.52755e-14
2.71697e-14
2.36463e-14
2.16715e-14
2.71162e-14
2.61213e-14
2.54484e-14
3.14394e-14
3.93429e-14
4.0903e-14
3.44139e-14
3.64488e-14
3.27194e-14
4.1233e-14
3.96868e-14
4.22641e-14
4.41288e-14
4.78885e-14
4.55879e-14
3.76634e-14
3.40953e-14
3.16028e-14
3.60898e-14
3.75038e-14
3.79806e-14
3.06459e-14
2.62356e-14
2.06113e-14
1.38706e-14
1.73233e-14
1.29518e-14
1.31562e-14
1.0862e-14
2.24625e-15
3.28923e-15
1.12091e-15
5.73828e-14
6.1224e-14
6.39575e-14
5.77858e-14
5.80526e-14
5.82901e-14
5.1966e-14
5.02008e-14
5.67952e-14
5.6989e-14
5.25314e-14
4.92145e-14
4.78095e-14
4.73967e-14
4.23987e-14
3.63985e-14
3.77149e-14
3.1751e-14
2.13608e-14
1.72505e-14
1.25024e-14
9.13792e-15
1.33813e-14
1.88972e-14
1.51979e-14
7.81193e-15
8.4734e-15
3.9906e-15
2.33307e-15
2.19192e-15
-2.47252e-15
-7.88658e-15
-1.09148e-14
-1.57733e-14
-2.12628e-14
-1.2944e-14
-2.2685e-15
-7.5412e-15
-1.0942e-14
-1.43588e-14
-1.60246e-14
-1.66342e-14
-1.31297e-14
-1.58553e-14
-1.79251e-14
-1.30778e-14
-1.2296e-14
-1.5823e-14
-1.27897e-14
-9.41525e-15
-5.5134e-15
-4.02945e-15
-1.2224e-15
-5.05035e-15
3.76913e-16
6.48363e-15
6.90064e-15
1.29638e-14
1.74782e-14
2.17942e-14
2.33882e-14
2.45233e-14
2.56759e-14
2.24533e-14
2.06835e-14
3.24633e-14
2.58845e-14
2.06993e-14
2.2657e-14
2.48955e-14
2.69307e-14
3.63324e-14
3.68355e-14
3.51631e-14
3.56112e-14
3.76348e-14
3.68865e-14
3.99089e-14
3.55173e-14
3.11871e-14
4.97655e-14
5.64103e-14
4.77512e-14
4.09079e-14
3.49681e-14
3.74321e-14
3.97765e-14
3.90084e-14
3.30728e-14
3.22811e-14
2.89678e-14
2.07133e-14
1.82343e-14
1.6635e-14
1.42707e-14
1.02113e-14
6.95957e-15
2.86629e-15
3.06789e-15
1.8496e-16
6.27124e-14
6.1516e-14
6.7662e-14
5.93587e-14
5.34308e-14
5.49187e-14
5.29151e-14
5.54572e-14
5.82932e-14
5.7194e-14
4.88073e-14
5.09883e-14
4.85733e-14
4.4642e-14
4.40058e-14
3.71848e-14
3.05343e-14
1.88739e-14
2.07425e-14
2.63145e-14
1.93344e-14
1.64532e-14
9.27578e-15
1.43151e-14
1.74637e-14
1.19639e-14
1.05354e-14
6.68239e-15
3.32855e-15
1.37801e-15
-3.77219e-15
-7.72545e-15
-5.61445e-15
-1.38905e-14
-1.80117e-14
-1.5161e-14
-8.44895e-15
-6.28393e-15
-1.23801e-14
-2.09898e-14
-2.31309e-14
-2.12796e-14
-7.8501e-15
-9.5249e-15
-8.02555e-15
-1.36875e-14
-1.96888e-14
-1.76924e-14
-1.51775e-14
-1.13804e-14
-2.4108e-15
-5.4269e-15
-2.74159e-15
-2.96229e-15
-1.45096e-15
-2.05601e-15
6.64923e-15
1.60438e-14
1.99443e-14
2.26516e-14
2.50666e-14
3.04376e-14
2.9876e-14
2.38749e-14
2.35039e-14
2.73586e-14
2.57805e-14
2.17545e-14
1.80058e-14
2.31348e-14
3.17823e-14
3.97447e-14
3.49547e-14
3.13922e-14
3.69487e-14
3.45163e-14
3.61157e-14
3.94051e-14
4.29966e-14
3.98752e-14
4.66371e-14
5.31201e-14
5.15329e-14
4.63497e-14
3.96489e-14
4.14714e-14
3.61813e-14
3.61849e-14
3.47424e-14
3.3034e-14
3.00873e-14
2.21431e-14
2.27787e-14
1.83978e-14
1.57989e-14
1.17318e-14
8.27077e-15
-3.98628e-17
3.7114e-15
1.75223e-15
6.48206e-14
6.45352e-14
6.41639e-14
5.89752e-14
5.04787e-14
5.28086e-14
5.85909e-14
5.69184e-14
5.79528e-14
5.49699e-14
5.07518e-14
5.47222e-14
4.9914e-14
4.98111e-14
3.85985e-14
3.41533e-14
3.31517e-14
2.38859e-14
1.89486e-14
1.7002e-14
1.88776e-14
1.56995e-14
7.00812e-15
1.40276e-14
1.76726e-14
2.00614e-14
1.04544e-14
5.61791e-15
8.46931e-16
7.99218e-16
1.37688e-15
-4.93508e-15
-8.53385e-15
-1.69454e-14
-1.77449e-14
-1.69695e-14
-1.24073e-14
-1.11976e-14
-7.60972e-15
-8.90521e-15
-1.78475e-14
-1.93688e-14
-1.83484e-14
-1.52187e-14
-1.67501e-14
-1.35375e-14
-1.54765e-14
-1.801e-14
-1.73449e-14
-1.35466e-14
-2.79174e-15
-8.31059e-15
-4.47304e-15
3.01747e-15
2.44023e-15
6.06881e-15
6.53691e-15
1.37895e-14
1.89378e-14
2.69652e-14
2.88585e-14
2.68613e-14
2.45607e-14
2.09298e-14
1.88216e-14
2.77444e-14
2.76869e-14
1.64126e-14
1.68567e-14
2.58027e-14
3.44152e-14
3.84826e-14
3.36433e-14
3.20155e-14
3.20769e-14
3.5302e-14
3.74777e-14
4.65317e-14
4.41588e-14
4.46553e-14
4.24909e-14
5.39894e-14
5.29781e-14
4.77541e-14
3.63535e-14
4.188e-14
3.80735e-14
3.79076e-14
3.86598e-14
4.21356e-14
3.54581e-14
2.21916e-14
2.55514e-14
2.20358e-14
1.78973e-14
8.09929e-15
-5.30137e-17
4.06506e-15
4.09393e-15
2.80628e-16
6.32125e-14
6.39797e-14
6.23961e-14
5.87198e-14
5.74634e-14
5.44107e-14
5.22745e-14
5.57024e-14
5.64771e-14
6.0814e-14
5.34041e-14
4.64638e-14
5.06884e-14
4.85604e-14
4.47806e-14
2.63723e-14
2.88662e-14
2.05986e-14
1.56355e-14
1.78621e-14
2.35089e-14
2.38548e-14
1.22949e-14
1.07167e-14
1.42577e-14
1.72919e-14
9.70336e-15
9.76947e-15
9.87294e-16
3.2514e-15
7.35518e-16
1.3756e-15
-1.55615e-15
-1.28465e-14
-2.3382e-14
-1.85671e-14
-1.25282e-14
-1.27243e-14
-7.03687e-15
-1.35395e-14
-1.71165e-14
-1.84421e-14
-1.64667e-14
-2.0928e-14
-1.34076e-14
-1.37701e-14
-1.60519e-14
-1.94425e-14
-1.96607e-14
-1.9814e-14
-2.74365e-15
3.75429e-15
1.05039e-15
3.85028e-16
1.0097e-15
-1.42993e-16
5.94787e-16
1.08975e-14
1.8523e-14
2.97306e-14
3.97162e-14
2.45134e-14
2.33393e-14
2.40518e-14
2.40492e-14
2.47497e-14
2.61412e-14
2.83513e-14
1.95082e-14
1.88746e-14
2.90249e-14
4.12924e-14
4.2243e-14
3.48486e-14
3.28884e-14
3.47629e-14
3.95894e-14
4.68982e-14
4.89912e-14
4.86315e-14
4.9071e-14
5.09291e-14
5.14819e-14
4.99781e-14
4.56973e-14
4.19092e-14
3.7076e-14
4.05311e-14
4.20644e-14
3.71382e-14
3.01821e-14
2.53251e-14
2.54699e-14
2.56948e-14
1.95811e-14
1.10949e-14
5.98299e-15
-3.29855e-17
-3.97827e-15
-2.959e-15
6.11874e-14
6.34192e-14
6.35366e-14
5.67808e-14
5.48902e-14
5.57021e-14
5.34823e-14
4.9914e-14
5.39479e-14
5.82272e-14
5.62523e-14
5.72607e-14
5.13621e-14
4.90384e-14
3.99486e-14
3.03568e-14
3.42024e-14
2.63768e-14
1.9815e-14
1.67723e-14
1.62234e-14
9.4978e-15
5.7129e-15
1.80176e-14
2.54823e-14
1.49066e-14
5.60406e-15
5.13054e-15
-7.21471e-16
7.5942e-15
5.16648e-15
-6.34009e-15
-1.11769e-14
-1.25484e-14
-1.076e-14
-1.24821e-14
-1.25095e-14
-9.82723e-15
-1.09915e-14
-1.3928e-14
-1.70812e-14
-1.86797e-14
-2.25949e-14
-2.03955e-14
-1.01196e-14
-1.53705e-14
-1.63994e-14
-2.0392e-14
-1.83456e-14
-1.39121e-14
-1.11649e-14
3.88337e-15
5.37952e-15
5.02448e-15
1.95318e-15
-4.82256e-15
-1.7569e-15
8.17026e-15
2.12994e-14
2.78671e-14
2.66898e-14
2.44806e-14
2.69819e-14
3.07749e-14
1.79594e-14
1.90703e-14
2.26399e-14
2.256e-14
2.67551e-14
2.30546e-14
3.04709e-14
3.62397e-14
4.38817e-14
3.60758e-14
4.12255e-14
4.54213e-14
3.83968e-14
5.04753e-14
5.80062e-14
5.47583e-14
4.76052e-14
4.62465e-14
4.20173e-14
4.84963e-14
4.5359e-14
4.51388e-14
4.16388e-14
4.13181e-14
4.11227e-14
3.94738e-14
3.50036e-14
3.09429e-14
3.18725e-14
2.96877e-14
1.7694e-14
1.20176e-14
5.3756e-15
4.07686e-15
-4.9392e-16
-1.10596e-15
6.56925e-14
5.7792e-14
5.72356e-14
5.31679e-14
5.51647e-14
5.85557e-14
6.24091e-14
6.51871e-14
5.44715e-14
5.48826e-14
5.29617e-14
5.27976e-14
4.84637e-14
5.0562e-14
4.23446e-14
3.19329e-14
3.14112e-14
1.39385e-14
1.22608e-14
1.77832e-14
2.16007e-14
1.59436e-14
1.36722e-14
1.59747e-14
1.85268e-14
1.50667e-14
7.41383e-15
1.12769e-14
1.07873e-14
1.89712e-15
-3.78876e-15
1.62872e-15
-6.27927e-16
-1.29257e-14
-1.5995e-14
-1.6491e-14
-1.20757e-14
-1.48072e-14
-1.25629e-14
-1.43124e-14
-1.52632e-14
-1.83937e-14
-1.59372e-14
-1.67586e-14
-1.57639e-14
-2.16647e-14
-1.8711e-14
-1.5071e-14
-1.85589e-14
-1.58237e-14
-1.07091e-14
2.26126e-15
1.91706e-15
9.23586e-17
7.24184e-16
-1.94937e-15
4.74113e-15
1.08393e-14
1.54853e-14
2.08989e-14
3.12922e-14
3.08674e-14
2.7952e-14
2.11092e-14
2.22675e-14
1.92063e-14
2.29676e-14
2.88043e-14
2.99291e-14
3.1421e-14
3.3386e-14
3.79033e-14
4.208e-14
3.86029e-14
4.42132e-14
4.59416e-14
4.64427e-14
4.79779e-14
5.74231e-14
5.32978e-14
5.10792e-14
4.96179e-14
4.89804e-14
5.16081e-14
4.45107e-14
4.5225e-14
4.51253e-14
4.05047e-14
4.39291e-14
3.96534e-14
3.25462e-14
3.13316e-14
3.28745e-14
3.27537e-14
2.78451e-14
1.69125e-14
7.39756e-15
4.08886e-15
-2.61548e-15
-7.81289e-16