/*--------------------------------*- C++ -*----------------------------------*\
| =========                 |                                                 |
| \\      /  F ield         | OpenFOAM: The Open Source CFD Toolbox           |
|  \\    /   O peration     | Version:  v2012                                 |
|   \\  /    A nd           | Website:  www.openfoam.com                      |
|    \\/     M anipulation  |                                                 |
\*---------------------------------------------------------------------------*/
FoamFile
{
    version     2.0;
    format      ascii;
    class       volVectorField;
    location    "0";
    object      U;
}
// * * * * * * * * * * * * * * * * * * * * * * * * * * * * * * * * * * * * * //

dimensions      [0 1 -1 0 0 0 0];


internalField   nonuniform List<vector> 
4000
(
(1 2.84282e-15 0)
(1 4.18583e-15 0)
(1 -1.20644e-15 0)
(1 3.0468e-15 0)
(1 -2.67252e-15 0)
(1 -3.75591e-15 0)
(1 7.1265e-15 0)
(1 -6.91744e-17 0)
(1 6.60269e-16 0)
(1 -3.34658e-15 0)
(1 -5.27603e-15 0)
(1 -2.29496e-15 0)
(1 3.67547e-15 0)
(1 6.42444e-15 0)
(1 -4.48281e-15 0)
(1 -4.89769e-15 0)
(1 1.59807e-15 0)
(1 -1.60681e-15 0)
(1 -3.01121e-15 0)
(1 -1.49504e-15 0)
(1 -1.50665e-16 0)
(1 9.45454e-16 0)
(1 -1.28721e-15 0)
(1 1.36005e-15 0)
(1 4.85445e-15 0)
(1 -3.25124e-15 0)
(1 -7.27036e-15 0)
(1 -3.58727e-15 0)
(1 -9.65434e-16 0)
(1 6.47869e-15 0)
(1 8.03352e-16 0)
(1 -4.64349e-16 0)
(1 -5.78728e-15 0)
(1 7.60261e-15 0)
(1 1.09468e-15 0)
(1 8.1578e-15 0)
(1 6.29973e-15 0)
(1 4.81282e-15 0)
(1 -9.03137e-16 0)
(1 -5.67856e-15 0)
(1 -1.68964e-15 0)
(1 -7.71768e-15 0)
(1 -3.11724e-16 0)
(1 2.96914e-15 0)
(1 3.52574e-15 0)
(1 -1.48327e-15 0)
(1 1.58708e-15 0)
(1 -2.42294e-16 0)
(1 1.41366e-16 0)
(1 5.69228e-15 0)
(1 9.87333e-16 0)
(1 1.23644e-15 0)
(1 5.40881e-16 0)
(1 -4.86907e-16 0)
(1 9.55082e-16 0)
(1 5.08636e-15 0)
(1 -1.84741e-15 0)
(1 9.05672e-16 0)
(1 -3.12959e-16 0)
(1 4.90453e-15 0)
(1 -1.91235e-16 0)
(1 5.09378e-16 0)
(1 -4.54456e-15 0)
(1 -3.97388e-15 0)
(1 -4.65105e-16 0)
(1 -1.43388e-15 0)
(1 9.38864e-16 0)
(1 4.46295e-15 0)
(1 1.78141e-15 0)
(1 -1.52439e-15 0)
(1 -2.95173e-15 0)
(1 -2.95832e-15 0)
(1 -5.68453e-15 0)
(1 -1.86312e-15 0)
(1 -3.60441e-15 0)
(1 -2.30335e-15 0)
(1 -5.2068e-15 0)
(1 -2.96128e-15 0)
(1 7.61833e-16 0)
(1 1.68753e-15 0)
(1 3.7058e-15 0)
(1 2.88885e-15 0)
(1 -3.50921e-15 0)
(1 -1.8081e-15 0)
(1 3.03668e-15 0)
(1 1.78804e-18 0)
(1 2.44013e-16 0)
(1 -2.89785e-16 0)
(1 -4.81236e-16 0)
(1 4.1361e-15 0)
(1 1.70536e-16 0)
(1 3.61603e-16 0)
(1 3.23994e-16 0)
(1 3.68593e-15 0)
(1 2.4447e-16 0)
(1 -2.39565e-15 0)
(1 -1.56677e-15 0)
(1 1.20485e-15 0)
(1 -1.30674e-16 0)
(1 -1.63156e-15 0)
(1 3.28906e-15 0)
(1 3.99552e-15 0)
(1 5.58503e-16 0)
(1 1.56027e-15 0)
(1 -3.44317e-15 0)
(1 -5.22616e-15 0)
(1 5.59687e-15 0)
(1 4.345e-16 0)
(1 1.77568e-15 0)
(1 2.26364e-15 0)
(1 -6.08627e-15 0)
(1 -5.93368e-15 0)
(1 2.45343e-15 0)
(1 6.15552e-15 0)
(1 -2.26175e-15 0)
(1 -2.33969e-15 0)
(1 4.10183e-15 0)
(1 1.84373e-15 0)
(1 -2.11987e-17 0)
(1 6.6502e-16 0)
(1 -3.94745e-15 0)
(1 5.56423e-17 0)
(1 -2.70441e-15 0)
(1 3.21406e-16 0)
(1 2.10908e-15 0)
(1 -2.15573e-15 0)
(1 -6.50017e-15 0)
(1 -7.36562e-15 0)
(1 -1.42635e-16 0)
(1 5.20907e-15 0)
(1 -9.14425e-16 0)
(1 -2.64215e-15 0)
(1 -5.53951e-15 0)
(1 7.66016e-15 0)
(1 -6.00588e-15 0)
(1 7.62119e-15 0)
(1 9.45829e-15 0)
(1 7.74719e-15 0)
(1 -5.77449e-15 0)
(1 -4.22144e-15 0)
(1 -3.67124e-15 0)
(1 -5.86135e-15 0)
(1 -8.98714e-16 0)
(1 4.9584e-15 0)
(1 -1.94078e-15 0)
(1 -7.29179e-15 0)
(1 -4.93785e-15 0)
(1 8.51753e-16 0)
(1 6.55315e-15 0)
(1 6.30996e-15 0)
(1 3.08734e-15 0)
(1 -4.2367e-15 0)
(1 -9.42818e-16 0)
(1 -6.67398e-16 0)
(1 1.55298e-15 0)
(1 2.84636e-15 0)
(1 -3.00168e-17 0)
(1 -1.81846e-15 0)
(1 -2.05463e-15 0)
(1 -1.21653e-15 0)
(1 -2.56709e-15 0)
(1 7.46279e-16 0)
(1 4.40056e-16 0)
(1 3.03408e-15 0)
(1 8.12225e-16 0)
(1 2.59445e-15 0)
(1 -2.44698e-16 0)
(1 2.20091e-15 0)
(1 2.46228e-15 0)
(1 -2.93388e-15 0)
(1 1.92531e-16 0)
(1 -1.53755e-15 0)
(1 3.38024e-15 0)
(1 7.50683e-15 0)
(1 2.96831e-15 0)
(1 -3.2535e-15 0)
(1 -3.86853e-15 0)
(1 -2.22272e-15 0)
(1 5.36007e-16 0)
(1 2.75289e-15 0)
(1 2.25181e-15 0)
(1 -9.21626e-16 0)
(1 -1.48518e-15 0)
(1 3.06022e-15 0)
(1 4.34523e-15 0)
(1 1.991e-15 0)
(1 -2.07475e-15 0)
(1 -4.29567e-15 0)
(1 -2.9378e-15 0)
(1 -5.71421e-16 0)
(1 7.31491e-16 0)
(1 1.80665e-15 0)
(1 -1.49558e-15 0)
(1 3.78287e-15 0)
(1 -3.94854e-15 0)
(1 -1.72753e-15 0)
(1 -1.03195e-15 0)
(1 3.22096e-15 0)
(1 -2.26656e-15 0)
(1 -2.9557e-15 0)
(1 -4.12555e-15 0)
(1 5.28815e-15 0)
(1 -6.70707e-15 0)
(1 2.44492e-15 0)
(1 -1.42692e-16 0)
(1 1.21128e-15 0)
(1 2.50094e-15 0)
(1 1.14764e-14 0)
(1 4.15827e-15 0)
(1 -2.62945e-15 0)
(1 -6.87714e-15 0)
(1 -4.96729e-15 0)
(1 1.87028e-15 0)
(1 6.04128e-15 0)
(1 -8.28768e-16 0)
(1 -3.67768e-15 0)
(1 4.75742e-15 0)
(1 4.3112e-16 0)
(1 2.25397e-15 0)
(1 9.5066e-16 0)
(1 -1.00406e-15 0)
(1 -2.92808e-15 0)
(1 -1.74038e-15 0)
(1 1.4402e-15 0)
(1 2.44157e-15 0)
(1 4.00859e-15 0)
(1 4.79383e-15 0)
(1 6.75859e-15 0)
(1 7.13379e-15 0)
(1 1.72663e-15 0)
(1 -3.95734e-15 0)
(1 -7.22586e-15 0)
(1 -9.08416e-16 0)
(1 -7.27677e-15 0)
(1 -5.34618e-15 0)
(1 4.31235e-15 0)
(1 3.75355e-15 0)
(1 1.58787e-15 0)
(1 2.61716e-16 0)
(1 4.8716e-15 0)
(1 3.43008e-15 0)
(1 -8.8139e-16 0)
(1 2.26344e-16 0)
(1 -1.04484e-15 0)
(1 3.75791e-16 0)
(1 1.13297e-15 0)
(1 -2.69361e-15 0)
(1 2.01583e-15 0)
(1 1.89687e-15 0)
(1 -1.09344e-15 0)
(1 4.17087e-15 0)
(1 -2.65867e-15 0)
(1 3.24399e-15 0)
(1 -1.56334e-15 0)
(1 5.52921e-16 0)
(1 -6.66702e-16 0)
(1 2.0705e-15 0)
(1 -1.27614e-15 0)
(1 6.34743e-16 0)
(1 -6.31575e-15 0)
(1 3.46639e-16 0)
(1 1.47093e-15 0)
(1 -2.20963e-15 0)
(1 9.51919e-16 0)
(1 8.18997e-16 0)
(1 2.53926e-15 0)
(1 2.77926e-15 0)
(1 1.57488e-16 0)
(1 -4.64807e-16 0)
(1 -1.76098e-15 0)
(1 2.13508e-15 0)
(1 -4.2434e-15 0)
(1 7.85083e-16 0)
(1 1.0202e-15 0)
(1 -1.13428e-15 0)
(1 -4.03842e-15 0)
(1 -2.78828e-16 0)
(1 -6.33666e-16 0)
(1 -1.94973e-15 0)
(1 -2.437e-15 0)
(1 -1.48827e-15 0)
(1 9.535e-16 0)
(1 1.16107e-15 0)
(1 1.6068e-15 0)
(1 -5.02518e-16 0)
(1 1.45631e-15 0)
(1 -1.70369e-15 0)
(1 -1.20561e-17 0)
(1 -4.8396e-16 0)
(1 1.14921e-15 0)
(1 1.63511e-15 0)
(1 2.19672e-15 0)
(1 -2.56659e-15 0)
(1 -1.5421e-15 0)
(1 -2.96229e-15 0)
(1 6.10488e-16 0)
(1 1.19561e-15 0)
(1 -3.68263e-15 0)
(1 -1.42556e-15 0)
(1 8.11795e-16 0)
(1 -9.32754e-16 0)
(1 -2.89533e-15 0)
(1 -5.79608e-15 0)
(1 -5.62076e-15 0)
(1 3.61198e-15 0)
(1 5.74186e-15 0)
(1 6.02659e-15 0)
(1 1.06478e-14 0)
(1 1.46867e-15 0)
(1 -3.95251e-15 0)
(1 -7.00867e-15 0)
(1 -6.73322e-16 0)
(1 5.90837e-15 0)
(1 1.04944e-14 0)
(1 3.48027e-15 0)
(1 -5.55716e-15 0)
(1 8.09799e-16 0)
(1 -5.9044e-16 0)
(1 -2.96322e-15 0)
(1 3.78547e-15 0)
(1 3.72323e-15 0)
(1 -2.79278e-15 0)
(1 3.69064e-15 0)
(1 9.58167e-15 0)
(1 1.65463e-14 0)
(1 8.80887e-15 0)
(1 -3.74769e-15 0)
(1 -2.53568e-16 0)
(1 2.9926e-15 0)
(1 2.85764e-15 0)
(1 -7.90095e-15 0)
(1 -6.71618e-15 0)
(1 -5.43761e-15 0)
(1 -9.24714e-15 0)
(1 -2.066e-15 0)
(1 -3.41268e-15 0)
(1 3.80452e-15 0)
(1 2.18521e-15 0)
(1 1.38981e-14 0)
(1 -3.24009e-15 0)
(1 6.13921e-15 0)
(1 -2.60772e-15 0)
(1 -2.04118e-16 0)
(1 -7.88787e-15 0)
(1 3.87107e-15 0)
(1 7.23248e-15 0)
(1 7.96576e-15 0)
(1 3.2281e-15 0)
(1 1.92797e-15 0)
(1 4.41887e-15 0)
(1 2.87643e-15 0)
(1 1.2063e-15 0)
(1 -1.62144e-15 0)
(1 -1.78405e-15 0)
(1 1.64719e-15 0)
(1 -2.00343e-15 0)
(1 -5.6143e-15 0)
(1 4.56095e-15 0)
(1 -6.70893e-16 0)
(1 -2.93913e-15 0)
(1 4.34482e-15 0)
(1 3.51593e-16 0)
(1 -3.29687e-15 0)
(1 -2.14565e-15 0)
(1 3.42535e-15 0)
(1 -2.53168e-15 0)
(1 1.53797e-15 0)
(1 -1.33553e-15 0)
(1 -3.89707e-15 0)
(1 1.49365e-15 0)
(1 5.18097e-16 0)
(1 -7.08115e-15 0)
(1 -6.58155e-15 0)
(1 -8.42124e-15 0)
(1 -7.91462e-15 0)
(1 -1.86366e-15 0)
(1 3.94581e-15 0)
(1 -7.37065e-16 0)
(1 3.6252e-16 0)
(1 1.3232e-15 0)
(1 5.47636e-17 0)
(1 1.98919e-15 0)
(1 6.52553e-16 0)
(1 -9.92289e-16 0)
(1 3.09898e-15 0)
(1 1.50759e-15 0)
(1 5.00627e-15 0)
(1 4.95522e-15 0)
(1 4.33404e-15 0)
(1 5.58214e-15 0)
(1 1.1087e-15 0)
(1 -7.10525e-16 0)
(1 2.28672e-15 0)
(1 -3.91878e-16 0)
(1 -5.00373e-16 0)
(1 -6.23816e-15 0)
(1 -3.32939e-15 0)
(1 -4.89365e-15 0)
(1 -3.99816e-15 0)
(1 7.92929e-16 0)
(1 5.10761e-15 0)
(1 -3.43905e-15 0)
(1 4.44675e-16 0)
(1 -1.86402e-15 0)
(1 3.46417e-15 0)
(1 4.04166e-15 0)
(1 -1.92234e-15 0)
(1 -3.11895e-15 0)
(1 -4.93288e-15 0)
(1 -3.10568e-15 0)
(1 2.48482e-15 0)
(1 2.28775e-15 0)
(1 4.01074e-15 0)
(1 -4.96703e-15 0)
(1 1.14764e-14 0)
(1 2.48409e-15 0)
(1 1.27565e-15 0)
(1 -3.8172e-15 0)
(1 7.05937e-16 0)
(1 -9.77264e-15 0)
(1 -4.33244e-15 0)
(1 -3.96064e-15 0)
(1 6.60692e-15 0)
(1 1.42758e-14 0)
(1 1.46397e-14 0)
(1 6.64315e-15 0)
(1 5.98003e-15 0)
(1 2.64188e-15 0)
(1 6.326e-15 0)
(1 3.38484e-15 0)
(1 -2.80297e-15 0)
(1 -1.65798e-15 0)
(1 -1.05333e-14 0)
(1 2.7086e-15 0)
(1 -7.01346e-15 0)
(1 -1.4809e-14 0)
(1 5.02614e-17 0)
(1 -3.14977e-16 0)
(1 7.24351e-15 0)
(1 -3.08719e-16 0)
(1 -7.67647e-16 0)
(1 1.83384e-15 0)
(1 -1.81703e-15 0)
(1 7.67021e-16 0)
(1 -6.2189e-15 0)
(1 -2.09476e-15 0)
(1 6.66456e-15 0)
(1 6.58006e-15 0)
(1 6.64812e-15 0)
(1 5.28718e-15 0)
(1 4.59953e-16 0)
(1 -2.55722e-16 0)
(1 -9.03953e-15 0)
(1 -2.40802e-15 0)
(1 -1.28788e-15 0)
(1 -2.56753e-15 0)
(1 -1.52765e-15 0)
(1 5.01665e-15 0)
(1 4.22348e-15 0)
(1 4.38306e-15 0)
(1 3.52572e-15 0)
(1 -1.71815e-15 0)
(1 2.41659e-15 0)
(1 4.37471e-15 0)
(1 6.79905e-15 0)
(1 4.18858e-15 0)
(1 2.61326e-15 0)
(1 -2.77811e-15 0)
(1 -3.89628e-15 0)
(1 -2.71155e-16 0)
(1 -3.4481e-15 0)
(1 -5.23918e-15 0)
(1 3.01061e-15 0)
(1 -4.83946e-15 0)
(1 -2.61284e-15 0)
(1 8.45572e-16 0)
(1 1.52308e-15 0)
(1 -5.46719e-15 0)
(1 -1.72213e-15 0)
(1 7.03479e-15 0)
(1 3.15355e-15 0)
(1 -3.4279e-15 0)
(1 5.40447e-16 0)
(1 2.61075e-15 0)
(1 8.43225e-15 0)
(1 3.9524e-15 0)
(1 5.78777e-15 0)
(1 3.79675e-15 0)
(1 4.32973e-15 0)
(1 -1.61684e-15 0)
(1 1.62713e-15 0)
(1 -2.8843e-15 0)
(1 4.6785e-15 0)
(1 2.95165e-15 0)
(1 2.61931e-16 0)
(1 -1.83443e-15 0)
(1 -2.73175e-15 0)
(1 -1.76081e-15 0)
(1 -1.38426e-15 0)
(1 2.40913e-15 0)
(1 -8.9276e-16 0)
(1 2.6157e-15 0)
(1 2.48627e-16 0)
(1 2.77901e-15 0)
(1 -7.84105e-15 0)
(1 4.69507e-15 0)
(1 4.51915e-16 0)
(1 -2.55203e-15 0)
(1 -3.27668e-15 0)
(1 -8.8956e-15 0)
(1 6.43129e-15 0)
(1 4.04771e-15 0)
(1 4.55645e-15 0)
(1 -4.45806e-15 0)
(1 5.0493e-15 0)
(1 4.55224e-15 0)
(1 5.43361e-15 0)
(1 -1.32105e-14 0)
(1 -5.86311e-15 0)
(1 -1.16154e-14 0)
(1 5.83901e-15 0)
(1 1.75126e-14 0)
(1 1.62924e-14 0)
(1 7.14105e-15 0)
(1 2.34353e-15 0)
(1 2.58304e-16 0)
(1 4.41062e-15 0)
(1 7.73134e-15 0)
(1 4.98549e-15 0)
(1 2.40697e-15 0)
(1 9.42148e-16 0)
(1 -2.98517e-15 0)
(1 -1.04863e-14 0)
(1 -1.14437e-15 0)
(1 -1.46145e-15 0)
(1 -2.67925e-15 0)
(1 -5.18958e-16 0)
(1 -3.71401e-15 0)
(1 3.75086e-15 0)
(1 4.57374e-15 0)
(1 1.95744e-16 0)
(1 6.63105e-15 0)
(1 4.97385e-15 0)
(1 9.31974e-15 0)
(1 -2.4805e-15 0)
(1 -3.19267e-15 0)
(1 3.91418e-16 0)
(1 5.73105e-15 0)
(1 2.98635e-15 0)
(1 2.60611e-15 0)
(1 3.74481e-15 0)
(1 2.27728e-15 0)
(1 -3.68608e-16 0)
(1 -4.50844e-16 0)
(1 -6.83871e-15 0)
(1 -3.40193e-15 0)
(1 -1.61873e-15 0)
(1 2.14397e-15 0)
(1 1.02578e-14 0)
(1 1.29665e-14 0)
(1 8.14247e-16 0)
(1 -2.47133e-15 0)
(1 1.8272e-15 0)
(1 2.98524e-16 0)
(1 3.25131e-15 0)
(1 9.13985e-15 0)
(1 6.00917e-15 0)
(1 7.63802e-15 0)
(1 9.78394e-15 0)
(1 1.30178e-14 0)
(1 1.40875e-15 0)
(1 -5.1998e-15 0)
(1 9.14668e-16 0)
(1 -7.48742e-15 0)
(1 -5.15926e-15 0)
(1 -4.6094e-15 0)
(1 -3.25461e-15 0)
(1 -9.29762e-16 0)
(1 -1.77632e-15 0)
(1 1.93576e-15 0)
(1 2.12812e-15 0)
(1 4.10565e-15 0)
(1 -1.22963e-15 0)
(1 6.63902e-16 0)
(1 3.29834e-15 0)
(1 -1.93005e-15 0)
(1 -8.54871e-17 0)
(1 2.86918e-15 0)
(1 1.17008e-15 0)
(1 1.77363e-15 0)
(1 6.72213e-16 0)
(1 3.80636e-15 0)
(1 1.05042e-15 0)
(1 3.61569e-15 0)
(1 2.77577e-15 0)
(1 8.34387e-15 0)
(1 5.98389e-15 0)
(1 2.78701e-15 0)
(1 6.19092e-15 0)
(1 5.35816e-15 0)
(1 -1.78097e-16 0)
(1 9.1486e-16 0)
(1 6.99174e-15 0)
(1 3.39864e-15 0)
(1 -2.42992e-15 0)
(1 1.28246e-15 0)
(1 1.19203e-15 0)
(1 -2.27995e-16 0)
(1 -1.21215e-15 0)
(1 -2.88548e-15 0)
(1 -3.91305e-15 0)
(1 -1.05633e-15 0)
(1 -1.60159e-15 0)
(1 5.86117e-15 0)
(1 1.40472e-15 0)
(1 6.2553e-15 0)
(1 1.48127e-15 0)
(1 -3.20608e-15 0)
(1 -9.17846e-15 0)
(1 6.01939e-15 0)
(1 6.99578e-15 0)
(1 1.15605e-14 0)
(1 3.51322e-15 0)
(1 -5.11053e-15 0)
(1 -4.13764e-15 0)
(1 4.00964e-15 0)
(1 7.35722e-15 0)
(1 4.07164e-15 0)
(1 1.03403e-15 0)
(1 4.33289e-15 0)
(1 5.25038e-15 0)
(1 1.43455e-16 0)
(1 1.38741e-15 0)
(1 -8.75058e-15 0)
(1 -8.60063e-16 0)
(1 -1.68358e-15 0)
(1 -3.56816e-15 0)
(1 -1.01868e-16 0)
(1 5.61986e-15 0)
(1 1.85625e-15 0)
(1 1.15007e-14 0)
(1 1.36112e-14 0)
(1 1.35755e-14 0)
(1 2.55629e-15 0)
(1 -3.3763e-15 0)
(1 -3.55775e-15 0)
(1 -4.78514e-15 0)
(1 -4.80784e-15 0)
(1 2.89317e-15 0)
(1 5.59616e-15 0)
(1 5.13072e-15 0)
(1 -2.81161e-15 0)
(1 -5.44276e-15 0)
(1 -4.54575e-15 0)
(1 -1.31749e-15 0)
(1 -1.25703e-15 0)
(1 -2.63256e-16 0)
(1 -2.92336e-15 0)
(1 4.98842e-15 0)
(1 7.33419e-15 0)
(1 4.50726e-15 0)
(1 5.06575e-15 0)
(1 6.09396e-15 0)
(1 1.06763e-15 0)
(1 3.28146e-15 0)
(1 4.81239e-15 0)
(1 -6.50839e-16 0)
(1 2.7554e-15 0)
(1 6.68499e-15 0)
(1 7.53816e-15 0)
(1 1.2933e-15 0)
(1 -1.59248e-15 0)
(1 -7.78368e-15 0)
(1 -3.49301e-16 0)
(1 4.85903e-16 0)
(1 3.92282e-15 0)
(1 3.92587e-15 0)
(1 7.68488e-15 0)
(1 2.75071e-15 0)
(1 -2.85397e-15 0)
(1 2.91457e-15 0)
(1 1.35879e-15 0)
(1 1.49674e-15 0)
(1 -2.63253e-16 0)
(1 7.27367e-15 0)
(1 6.80775e-15 0)
(1 6.56596e-15 0)
(1 6.81153e-15 0)
(1 3.07528e-15 0)
(1 3.92806e-15 0)
(1 3.89892e-16 0)
(1 5.77268e-15 0)
(1 5.54917e-15 0)
(1 5.95024e-15 0)
(1 2.93792e-15 0)
(1 8.60331e-15 0)
(1 1.0229e-14 0)
(1 1.16431e-14 0)
(1 3.6898e-15 0)
(1 5.38707e-15 0)
(1 9.0302e-16 0)
(1 -6.04081e-16 0)
(1 3.99944e-16 0)
(1 7.81236e-17 0)
(1 7.85023e-15 0)
(1 -3.16604e-15 0)
(1 -1.15682e-15 0)
(1 6.37722e-16 0)
(1 -3.28938e-16 0)
(1 -1.4553e-16 0)
(1 -8.49229e-15 0)
(1 -2.24985e-15 0)
(1 8.70571e-16 0)
(1 1.2103e-14 0)
(1 7.48149e-16 0)
(1 1.0387e-14 0)
(1 -1.32412e-15 0)
(1 7.41825e-15 0)
(1 -3.91875e-15 0)
(1 3.90395e-15 0)
(1 -6.89377e-15 0)
(1 -1.86729e-15 0)
(1 -4.9465e-15 0)
(1 2.53965e-15 0)
(1 -5.3047e-15 0)
(1 -3.61867e-15 0)
(1 1.17193e-14 0)
(1 1.00877e-14 0)
(1 4.46092e-15 0)
(1 7.16204e-15 0)
(1 2.52496e-15 0)
(1 -2.44772e-15 0)
(1 3.47783e-15 0)
(1 -5.49311e-15 0)
(1 -5.83059e-15 0)
(1 -1.38582e-15 0)
(1 -2.62231e-15 0)
(1 3.30937e-16 0)
(1 1.54085e-15 0)
(1 8.03452e-15 0)
(1 3.81616e-15 0)
(1 -2.53117e-15 0)
(1 2.22686e-15 0)
(1 4.59137e-16 0)
(1 -1.13104e-15 0)
(1 5.21531e-15 0)
(1 2.15962e-15 0)
(1 -1.68626e-16 0)
(1 3.00777e-15 0)
(1 7.36015e-15 0)
(1 5.67058e-15 0)
(1 -1.23446e-15 0)
(1 2.67319e-15 0)
(1 1.79592e-15 0)
(1 1.17865e-14 0)
(1 3.36256e-17 0)
(1 -1.74989e-15 0)
(1 -1.39184e-14 0)
(1 -1.48797e-15 0)
(1 -1.34355e-15 0)
(1 8.23785e-15 0)
(1 1.3729e-14 0)
(1 1.12529e-14 0)
(1 8.78575e-15 0)
(1 5.25922e-15 0)
(1 7.0714e-15 0)
(1 4.18398e-15 0)
(1 1.91965e-15 0)
(1 3.30348e-15 0)
(1 -6.24124e-15 0)
(1 -1.2669e-15 0)
(1 8.09192e-15 0)
(1 2.79926e-15 0)
(1 -7.50157e-16 0)
(1 1.6122e-15 0)
(1 8.29497e-15 0)
(1 3.77147e-15 0)
(1 -2.50329e-17 0)
(1 -3.39912e-16 0)
(1 -1.66005e-15 0)
(1 2.14009e-15 0)
(1 -2.59354e-15 0)
(1 2.1442e-15 0)
(1 2.13117e-15 0)
(1 5.79424e-15 0)
(1 4.21512e-15 0)
(1 2.1343e-15 0)
(1 1.5178e-15 0)
(1 1.79748e-15 0)
(1 1.64775e-15 0)
(1 2.43012e-15 0)
(1 -1.67852e-15 0)
(1 6.54767e-15 0)
(1 6.85065e-15 0)
(1 1.02202e-14 0)
(1 1.34808e-14 0)
(1 9.87453e-15 0)
(1 1.20042e-14 0)
(1 6.33052e-15 0)
(1 1.00593e-14 0)
(1 -2.3589e-15 0)
(1 -2.69892e-15 0)
(1 -4.7065e-15 0)
(1 -6.17553e-15 0)
(1 -8.0026e-17 0)
(1 8.3528e-16 0)
(1 3.63445e-15 0)
(1 4.24243e-15 0)
(1 -4.26235e-15 0)
(1 -5.60729e-15 0)
(1 3.02783e-16 0)
(1 4.30072e-15 0)
(1 3.7351e-15 0)
(1 1.23142e-14 0)
(1 3.63769e-16 0)
(1 1.82983e-15 0)
(1 -5.95206e-16 0)
(1 1.11539e-14 0)
(1 -5.20751e-15 0)
(1 -5.01754e-15 0)
(1 -6.4271e-15 0)
(1 7.06267e-15 0)
(1 9.25676e-15 0)
(1 1.39994e-14 0)
(1 2.23007e-15 0)
(1 1.51702e-15 0)
(1 -8.81314e-16 0)
(1 -3.48468e-15 0)
(1 -1.63702e-15 0)
(1 1.20892e-15 0)
(1 -6.28145e-15 0)
(1 -9.60726e-15 0)
(1 -9.07206e-15 0)
(1 -3.91482e-15 0)
(1 1.22179e-16 0)
(1 8.13351e-15 0)
(1 9.68352e-15 0)
(1 3.64574e-15 0)
(1 -4.00926e-15 0)
(1 1.41721e-15 0)
(1 -7.4253e-15 0)
(1 -3.53461e-15 0)
(1 9.73634e-16 0)
(1 5.28128e-15 0)
(1 1.5541e-14 0)
(1 8.55702e-15 0)
(1 5.06587e-15 0)
(1 8.92886e-17 0)
(1 1.85693e-15 0)
(1 2.61413e-15 0)
(1 1.77892e-15 0)
(1 6.63985e-15 0)
(1 1.3532e-14 0)
(1 2.76615e-15 0)
(1 5.39108e-15 0)
(1 -1.83924e-15 0)
(1 5.04099e-16 0)
(1 -3.85491e-15 0)
(1 2.77631e-15 0)
(1 2.49044e-15 0)
(1 3.52276e-15 0)
(1 7.70256e-16 0)
(1 -4.85986e-16 0)
(1 2.88391e-15 0)
(1 -1.38666e-15 0)
(1 3.04052e-15 0)
(1 1.25514e-14 0)
(1 1.12276e-14 0)
(1 2.10314e-14 0)
(1 1.57274e-14 0)
(1 7.25379e-15 0)
(1 9.53662e-15 0)
(1 8.64108e-15 0)
(1 9.18836e-16 0)
(1 -2.68625e-15 0)
(1 8.64577e-16 0)
(1 -1.53599e-15 0)
(1 -1.57604e-15 0)
(1 3.97132e-15 0)
(1 4.95608e-15 0)
(1 5.08307e-15 0)
(1 6.31226e-15 0)
(1 1.33148e-15 0)
(1 3.27644e-15 0)
(1 5.82419e-16 0)
(1 -5.35203e-15 0)
(1 -1.04017e-15 0)
(1 -4.32811e-15 0)
(1 1.85679e-15 0)
(1 2.63593e-15 0)
(1 4.68756e-15 0)
(1 6.96198e-16 0)
(1 2.99227e-15 0)
(1 7.98734e-15 0)
(1 1.52761e-14 0)
(1 1.70144e-14 0)
(1 2.16794e-14 0)
(1 2.32997e-14 0)
(1 2.09896e-14 0)
(1 1.84596e-14 0)
(1 9.9996e-18 0)
(1 1.99447e-15 0)
(1 2.9323e-15 0)
(1 5.3645e-15 0)
(1 -2.91338e-15 0)
(1 -3.94395e-15 0)
(1 2.57884e-15 0)
(1 2.06495e-15 0)
(1 -3.71863e-16 0)
(1 -4.39519e-15 0)
(1 -1.49543e-15 0)
(1 -1.94156e-15 0)
(1 2.66241e-15 0)
(1 -8.96139e-15 0)
(1 8.37085e-15 0)
(1 4.43742e-16 0)
(1 1.49971e-15 0)
(1 3.82766e-15 0)
(1 6.09586e-15 0)
(1 -3.07359e-16 0)
(1 -3.90202e-15 0)
(1 -9.55114e-15 0)
(1 1.43264e-16 0)
(1 1.05545e-14 0)
(1 9.14751e-15 0)
(1 9.42152e-15 0)
(1 3.99901e-15 0)
(1 3.06321e-15 0)
(1 -1.65176e-15 0)
(1 -7.2084e-15 0)
(1 -1.77347e-15 0)
(1 -3.42015e-16 0)
(1 4.7066e-15 0)
(1 9.74544e-16 0)
(1 -2.31271e-15 0)
(1 -1.64371e-15 0)
(1 -9.11552e-16 0)
(1 4.38517e-15 0)
(1 -1.42335e-14 0)
(1 -2.5642e-15 0)
(1 3.80507e-16 0)
(1 6.89634e-15 0)
(1 5.79034e-15 0)
(1 4.51838e-15 0)
(1 1.1204e-14 0)
(1 3.77326e-15 0)
(1 2.51807e-15 0)
(1 -2.24794e-15 0)
(1 2.16604e-15 0)
(1 4.21755e-15 0)
(1 1.55807e-15 0)
(1 5.08914e-15 0)
(1 5.79733e-15 0)
(1 4.54382e-15 0)
(1 3.36447e-15 0)
(1 5.87748e-15 0)
(1 3.01257e-15 0)
(1 3.17744e-15 0)
(1 1.12952e-15 0)
(1 5.66105e-15 0)
(1 3.77442e-15 0)
(1 1.23973e-15 0)
(1 4.14586e-15 0)
(1 5.0534e-15 0)
(1 5.17895e-15 0)
(1 2.21327e-15 0)
(1 1.49064e-14 0)
(1 1.51855e-14 0)
(1 1.38055e-14 0)
(1 1.11093e-14 0)
(1 7.13954e-15 0)
(1 6.37505e-15 0)
(1 5.49997e-15 0)
(1 4.33341e-15 0)
(1 -1.25558e-15 0)
(1 3.59704e-15 0)
(1 4.60894e-15 0)
(1 1.68306e-15 0)
(1 6.99946e-15 0)
(1 1.78301e-16 0)
(1 4.3636e-15 0)
(1 -8.59857e-16 0)
(1 4.70454e-16 0)
(1 3.99192e-15 0)
(1 -2.54949e-15 0)
(1 2.76552e-15 0)
(1 8.12645e-15 0)
(1 -4.7567e-16 0)
(1 2.84694e-15 0)
(1 2.86292e-15 0)
(1 6.80736e-15 0)
(1 7.18513e-15 0)
(1 5.92764e-15 0)
(1 5.5501e-15 0)
(1 1.17154e-14 0)
(1 9.53738e-15 0)
(1 2.26322e-14 0)
(1 2.11247e-14 0)
(1 2.58531e-14 0)
(1 2.30853e-14 0)
(1 7.2254e-16 0)
(1 -1.25399e-16 0)
(1 1.02773e-15 0)
(1 1.83668e-15 0)
(1 -5.05929e-15 0)
(1 -5.80222e-15 0)
(1 -5.10446e-16 0)
(1 -3.87406e-15 0)
(1 -7.47288e-16 0)
(1 3.54722e-15 0)
(1 -2.9104e-15 0)
(1 -4.6122e-17 0)
(1 -2.8836e-15 0)
(1 -1.01139e-14 0)
(1 7.86899e-15 0)
(1 7.79759e-15 0)
(1 1.15083e-14 0)
(1 1.56318e-15 0)
(1 1.71595e-14 0)
(1 7.40914e-15 0)
(1 5.78604e-15 0)
(1 -1.02253e-14 0)
(1 -9.81976e-15 0)
(1 -1.11476e-14 0)
(1 -2.60431e-15 0)
(1 -7.13845e-15 0)
(1 -2.58627e-15 0)
(1 3.68092e-15 0)
(1 4.56983e-17 0)
(1 -6.44576e-15 0)
(1 1.43586e-15 0)
(1 -2.90613e-17 0)
(1 5.83268e-15 0)
(1 4.10119e-15 0)
(1 -6.57366e-16 0)
(1 -1.76712e-15 0)
(1 -2.45063e-15 0)
(1 -7.99995e-17 0)
(1 -1.20854e-14 0)
(1 -1.52211e-15 0)
(1 5.61941e-16 0)
(1 -3.86385e-16 0)
(1 2.48144e-15 0)
(1 4.27844e-15 0)
(1 5.38876e-15 0)
(1 5.47629e-15 0)
(1 8.68219e-15 0)
(1 5.04693e-15 0)
(1 7.40419e-15 0)
(1 3.99006e-15 0)
(1 1.05943e-14 0)
(1 3.18823e-15 0)
(1 1.52762e-16 0)
(1 6.87175e-15 0)
(1 5.35465e-15 0)
(1 2.99305e-15 0)
(1 -1.56657e-15 0)
(1 2.9528e-16 0)
(1 2.38253e-15 0)
(1 1.46538e-15 0)
(1 6.24549e-15 0)
(1 6.32209e-15 0)
(1 4.26138e-15 0)
(1 3.45437e-15 0)
(1 8.40464e-15 0)
(1 8.38691e-15 0)
(1 8.4954e-15 0)
(1 8.22078e-15 0)
(1 -1.20492e-15 0)
(1 4.6153e-15 0)
(1 2.08897e-14 0)
(1 1.31142e-14 0)
(1 9.34493e-15 0)
(1 4.05094e-15 0)
(1 3.68591e-15 0)
(1 3.04208e-15 0)
(1 7.50243e-15 0)
(1 1.22793e-14 0)
(1 7.48604e-15 0)
(1 1.75348e-15 0)
(1 -2.76841e-15 0)
(1 1.23006e-15 0)
(1 5.34173e-15 0)
(1 5.79991e-15 0)
(1 -1.45925e-15 0)
(1 -5.6211e-16 0)
(1 -1.68907e-15 0)
(1 -3.09547e-16 0)
(1 -9.23956e-17 0)
(1 -4.36625e-16 0)
(1 4.59823e-15 0)
(1 5.13462e-15 0)
(1 1.07902e-14 0)
(1 6.49182e-15 0)
(1 1.49839e-14 0)
(1 7.24934e-15 0)
(1 1.31677e-14 0)
(1 1.17979e-14 0)
(1 2.17245e-14 0)
(1 1.97203e-14 0)
(1 2.35575e-15 0)
(1 -5.1972e-15 0)
(1 2.02373e-15 0)
(1 1.33884e-16 0)
(1 -9.91745e-16 0)
(1 8.14041e-16 0)
(1 -6.07659e-16 0)
(1 -1.92878e-15 0)
(1 -8.12735e-15 0)
(1 1.10532e-15 0)
(1 5.8233e-15 0)
(1 6.85055e-15 0)
(1 -2.22609e-15 0)
(1 1.65955e-15 0)
(1 -1.50973e-15 0)
(1 -4.3793e-15 0)
(1 1.41165e-16 0)
(1 -4.80024e-15 0)
(1 9.44835e-15 0)
(1 -5.13914e-15 0)
(1 5.19846e-15 0)
(1 8.3489e-15 0)
(1 8.52476e-15 0)
(1 -1.23055e-16 0)
(1 4.72966e-18 0)
(1 4.44056e-15 0)
(1 4.35483e-15 0)
(1 -3.31347e-16 0)
(1 3.9626e-15 0)
(1 2.86105e-16 0)
(1 -7.3869e-15 0)
(1 -1.18141e-15 0)
(1 -5.17271e-15 0)
(1 4.24138e-15 0)
(1 1.50452e-15 0)
(1 4.09585e-16 0)
(1 1.29265e-15 0)
(1 -7.8741e-15 0)
(1 -6.14005e-15 0)
(1 -7.73657e-15 0)
(1 6.53057e-16 0)
(1 3.05865e-15 0)
(1 6.26464e-15 0)
(1 5.98061e-15 0)
(1 1.16362e-15 0)
(1 7.26754e-15 0)
(1 1.35347e-14 0)
(1 1.02518e-14 0)
(1 5.61722e-15 0)
(1 -2.155e-15 0)
(1 3.92575e-15 0)
(1 5.0774e-15 0)
(1 -3.4137e-15 0)
(1 5.57075e-15 0)
(1 5.84262e-15 0)
(1 -5.88684e-16 0)
(1 -4.34731e-15 0)
(1 2.919e-15 0)
(1 7.68755e-15 0)
(1 8.13807e-15 0)
(1 4.85324e-15 0)
(1 2.00084e-15 0)
(1 4.86079e-15 0)
(1 -2.04632e-15 0)
(1 1.12839e-14 0)
(1 8.21463e-15 0)
(1 1.74945e-15 0)
(1 3.06328e-15 0)
(1 1.89515e-15 0)
(1 9.67122e-15 0)
(1 1.61139e-14 0)
(1 2.02695e-14 0)
(1 3.29132e-15 0)
(1 -1.94707e-15 0)
(1 1.41252e-15 0)
(1 3.12962e-15 0)
(1 -2.18766e-16 0)
(1 4.27275e-15 0)
(1 2.41439e-15 0)
(1 7.80783e-15 0)
(1 3.8545e-15 0)
(1 1.63537e-14 0)
(1 9.26947e-15 0)
(1 5.65963e-16 0)
(1 2.22234e-15 0)
(1 -1.64624e-15 0)
(1 -4.74455e-15 0)
(1 2.52057e-15 0)
(1 4.00264e-15 0)
(1 4.9224e-15 0)
(1 1.92722e-15 0)
(1 -7.76989e-16 0)
(1 6.23377e-15 0)
(1 1.00739e-14 0)
(1 1.09118e-14 0)
(1 1.18793e-14 0)
(1 1.12057e-14 0)
(1 1.36921e-14 0)
(1 1.73091e-14 0)
(1 1.51954e-14 0)
(1 2.20141e-15 0)
(1 -2.02479e-15 0)
(1 -3.65946e-15 0)
(1 -8.08223e-16 0)
(1 -3.15313e-16 0)
(1 6.20454e-16 0)
(1 -3.90756e-15 0)
(1 4.26018e-16 0)
(1 -8.12379e-15 0)
(1 5.79111e-15 0)
(1 -1.18633e-15 0)
(1 8.05487e-15 0)
(1 1.01673e-14 0)
(1 1.62566e-15 0)
(1 -8.5758e-15 0)
(1 -2.30998e-15 0)
(1 -7.17821e-15 0)
(1 1.05527e-14 0)
(1 1.25847e-14 0)
(1 1.97629e-14 0)
(1 5.29111e-15 0)
(1 -4.3466e-15 0)
(1 -2.0057e-14 0)
(1 -1.65165e-14 0)
(1 -1.17059e-14 0)
(1 -1.16759e-15 0)
(1 2.37741e-15 0)
(1 4.42081e-15 0)
(1 7.74122e-15 0)
(1 3.03889e-15 0)
(1 -5.98176e-15 0)
(1 1.0394e-15 0)
(1 -5.24332e-16 0)
(1 -5.2936e-16 0)
(1 -1.79624e-16 0)
(1 2.31709e-15 0)
(1 -3.36579e-15 0)
(1 -1.03319e-14 0)
(1 9.39787e-17 0)
(1 -1.14747e-15 0)
(1 2.64195e-16 0)
(1 2.52041e-15 0)
(1 5.26389e-16 0)
(1 -4.01984e-16 0)
(1 2.29734e-15 0)
(1 1.65283e-14 0)
(1 1.15043e-14 0)
(1 1.68732e-14 0)
(1 5.71536e-15 0)
(1 9.66462e-15 0)
(1 -2.00095e-15 0)
(1 3.78424e-16 0)
(1 -3.21994e-16 0)
(1 5.53791e-15 0)
(1 2.85593e-15 0)
(1 4.0199e-15 0)
(1 -5.14637e-15 0)
(1 -4.88421e-15 0)
(1 -5.75302e-15 0)
(1 -1.56826e-15 0)
(1 -4.04536e-15 0)
(1 4.46812e-15 0)
(1 1.1462e-14 0)
(1 1.23769e-14 0)
(1 1.18711e-14 0)
(1 7.68188e-15 0)
(1 4.24751e-15 0)
(1 6.17326e-15 0)
(1 3.88372e-15 0)
(1 8.87347e-16 0)
(1 -5.3756e-15 0)
(1 7.09643e-15 0)
(1 3.56741e-15 0)
(1 4.50106e-15 0)
(1 9.42907e-15 0)
(1 4.87529e-15 0)
(1 1.95485e-16 0)
(1 3.71096e-16 0)
(1 2.15132e-15 0)
(1 6.32242e-15 0)
(1 4.70958e-15 0)
(1 1.05117e-14 0)
(1 5.19096e-15 0)
(1 5.22986e-15 0)
(1 5.34525e-15 0)
(1 5.90847e-15 0)
(1 1.36755e-15 0)
(1 5.08532e-15 0)
(1 5.25133e-15 0)
(1 4.93918e-15 0)
(1 6.88516e-16 0)
(1 4.29888e-16 0)
(1 -1.45641e-15 0)
(1 2.76695e-15 0)
(1 2.74777e-15 0)
(1 1.11471e-14 0)
(1 1.04879e-14 0)
(1 1.302e-14 0)
(1 8.97352e-15 0)
(1 8.48946e-15 0)
(1 -1.07058e-15 0)
(1 2.58046e-15 0)
(1 -3.70881e-15 0)
(1 -6.02492e-15 0)
(1 1.50203e-15 0)
(1 -2.42913e-15 0)
(1 -7.59225e-15 0)
(1 1.25551e-15 0)
(1 1.10883e-14 0)
(1 1.52802e-14 0)
(1 1.50394e-15 0)
(1 2.44504e-16 0)
(1 -6.12063e-15 0)
(1 -5.0103e-15 0)
(1 -3.7229e-15 0)
(1 3.1687e-15 0)
(1 -1.61947e-15 0)
(1 5.6059e-15 0)
(1 -6.39836e-15 0)
(1 9.30015e-15 0)
(1 -4.39953e-15 0)
(1 4.30411e-15 0)
(1 -8.85944e-15 0)
(1 -7.24108e-15 0)
(1 6.29029e-16 0)
(1 -1.51606e-15 0)
(1 -2.9405e-15 0)
(1 2.38708e-15 0)
(1 1.70412e-15 0)
(1 -4.32827e-15 0)
(1 5.35376e-15 0)
(1 -2.84707e-15 0)
(1 -6.43498e-15 0)
(1 -5.09218e-15 0)
(1 1.29325e-15 0)
(1 7.91775e-15 0)
(1 -1.87142e-15 0)
(1 -4.72255e-15 0)
(1 3.84061e-15 0)
(1 -4.21572e-15 0)
(1 -7.5135e-15 0)
(1 -3.20014e-15 0)
(1 4.00086e-15 0)
(1 9.12775e-15 0)
(1 1.79132e-14 0)
(1 1.57255e-14 0)
(1 3.482e-15 0)
(1 3.21934e-15 0)
(1 1.12049e-15 0)
(1 4.81462e-15 0)
(1 -1.89491e-15 0)
(1 1.52517e-15 0)
(1 6.36007e-15 0)
(1 -4.87061e-17 0)
(1 -1.37459e-15 0)
(1 1.60089e-14 0)
(1 9.9356e-15 0)
(1 6.33837e-16 0)
(1 -2.86378e-15 0)
(1 -2.18544e-15 0)
(1 -4.09673e-16 0)
(1 2.51e-15 0)
(1 -2.00764e-15 0)
(1 1.33133e-14 0)
(1 -2.74131e-15 0)
(1 8.06836e-15 0)
(1 1.22857e-14 0)
(1 1.03546e-14 0)
(1 6.83101e-15 0)
(1 1.8223e-15 0)
(1 1.3734e-15 0)
(1 -2.05876e-15 0)
(1 1.13352e-15 0)
(1 1.26735e-14 0)
(1 9.96432e-15 0)
(1 9.41526e-15 0)
(1 1.31322e-14 0)
(1 1.57678e-14 0)
(1 7.56707e-15 0)
(1 6.17395e-15 0)
(1 2.5403e-15 0)
(1 3.94976e-15 0)
(1 2.10459e-15 0)
(1 5.12468e-15 0)
(1 7.19527e-15 0)
(1 8.38497e-15 0)
(1 4.75636e-15 0)
(1 4.90092e-15 0)
(1 3.96617e-15 0)
(1 5.73757e-15 0)
(1 3.76955e-15 0)
(1 1.37545e-15 0)
(1 -2.43962e-15 0)
(1 3.08492e-15 0)
(1 5.3813e-15 0)
(1 9.84006e-15 0)
(1 1.30919e-14 0)
(1 1.37304e-14 0)
(1 8.69051e-15 0)
(1 6.82754e-15 0)
(1 7.7351e-16 0)
(1 -2.28158e-15 0)
(1 4.79652e-15 0)
(1 -1.16351e-14 0)
(1 4.26037e-15 0)
(1 2.41098e-15 0)
(1 -7.78841e-15 0)
(1 -1.68727e-14 0)
(1 8.94468e-15 0)
(1 -3.7234e-16 0)
(1 1.28934e-14 0)
(1 2.41977e-16 0)
(1 -2.16152e-15 0)
(1 1.36278e-15 0)
(1 9.54193e-16 0)
(1 -3.27209e-15 0)
(1 -2.59238e-16 0)
(1 -1.09673e-14 0)
(1 -1.03324e-14 0)
(1 -5.7899e-15 0)
(1 -6.65706e-15 0)
(1 6.53129e-15 0)
(1 1.82896e-14 0)
(1 1.08973e-14 0)
(1 1.0207e-14 0)
(1 4.91297e-15 0)
(1 7.46867e-16 0)
(1 -2.2237e-15 0)
(1 -3.28724e-15 0)
(1 -6.53452e-15 0)
(1 -1.6216e-15 0)
(1 -5.58438e-15 0)
(1 7.81985e-17 0)
(1 -4.31175e-15 0)
(1 -3.13104e-16 0)
(1 -8.77502e-16 0)
(1 -2.2156e-15 0)
(1 6.40209e-15 0)
(1 3.8112e-15 0)
(1 -5.96845e-15 0)
(1 -7.20904e-15 0)
(1 3.62461e-15 0)
(1 8.8572e-15 0)
(1 1.3029e-14 0)
(1 1.17181e-14 0)
(1 3.1227e-15 0)
(1 4.79578e-16 0)
(1 -4.79142e-15 0)
(1 -7.82198e-15 0)
(1 -1.89654e-15 0)
(1 2.83422e-15 0)
(1 1.2805e-14 0)
(1 9.54002e-15 0)
(1 7.71008e-15 0)
(1 7.18628e-15 0)
(1 6.49402e-15 0)
(1 8.43305e-15 0)
(1 5.05153e-15 0)
(1 -1.34662e-15 0)
(1 1.78668e-15 0)
(1 3.41211e-15 0)
(1 -2.96383e-15 0)
(1 2.5365e-15 0)
(1 2.58491e-15 0)
(1 4.91336e-15 0)
(1 3.28021e-15 0)
(1 8.34167e-15 0)
(1 1.13611e-14 0)
(1 1.61677e-14 0)
(1 8.11937e-15 0)
(1 8.66809e-15 0)
(1 5.46705e-15 0)
(1 3.11848e-15 0)
(1 4.7727e-15 0)
(1 4.44573e-15 0)
(1 1.32354e-14 0)
(1 1.38119e-14 0)
(1 8.32965e-15 0)
(1 7.88323e-15 0)
(1 4.79505e-15 0)
(1 1.19863e-14 0)
(1 2.10408e-15 0)
(1 3.5148e-15 0)
(1 -1.17016e-15 0)
(1 2.66842e-16 0)
(1 5.79764e-16 0)
(1 3.27348e-15 0)
(1 1.12182e-15 0)
(1 3.30128e-16 0)
(1 2.82852e-15 0)
(1 2.37991e-15 0)
(1 1.61853e-15 0)
(1 2.36063e-15 0)
(1 9.04647e-15 0)
(1 1.34337e-14 0)
(1 9.20335e-15 0)
(1 3.06577e-15 0)
(1 8.22205e-15 0)
(1 1.18598e-14 0)
(1 1.09551e-14 0)
(1 -3.21353e-15 0)
(1 -4.81538e-15 0)
(1 7.87226e-16 0)
(1 -1.78403e-15 0)
(1 5.57649e-15 0)
(1 5.70451e-15 0)
(1 1.16062e-14 0)
(1 2.72569e-15 0)
(1 1.46817e-15 0)
(1 -1.05344e-14 0)
(1 -3.16277e-15 0)
(1 -6.9702e-15 0)
(1 -1.2789e-15 0)
(1 -7.23619e-16 0)
(1 -3.32716e-15 0)
(1 -6.0746e-15 0)
(1 -1.30539e-15 0)
(1 3.51673e-15 0)
(1 -5.19313e-15 0)
(1 -1.23391e-15 0)
(1 2.3486e-15 0)
(1 2.52041e-15 0)
(1 1.01635e-14 0)
(1 -6.73015e-15 0)
(1 -9.5314e-15 0)
(1 -6.2127e-15 0)
(1 -2.10137e-15 0)
(1 -1.45105e-15 0)
(1 -2.04024e-15 0)
(1 -1.22196e-15 0)
(1 -1.27607e-15 0)
(1 -1.20049e-15 0)
(1 3.0625e-15 0)
(1 7.23634e-15 0)
(1 3.867e-15 0)
(1 -2.59562e-15 0)
(1 1.67111e-15 0)
(1 4.53541e-15 0)
(1 -2.77914e-15 0)
(1 -5.44896e-15 0)
(1 -2.38282e-15 0)
(1 6.86079e-15 0)
(1 4.29302e-15 0)
(1 5.51621e-15 0)
(1 5.37523e-15 0)
(1 -7.70329e-15 0)
(1 3.3501e-15 0)
(1 1.63475e-15 0)
(1 -9.47793e-16 0)
(1 2.71182e-15 0)
(1 1.09047e-14 0)
(1 1.04173e-14 0)
(1 8.63078e-15 0)
(1 1.01535e-15 0)
(1 4.63802e-15 0)
(1 -4.13727e-15 0)
(1 5.41024e-15 0)
(1 5.35869e-15 0)
(1 -2.14022e-15 0)
(1 5.10831e-16 0)
(1 -1.81014e-15 0)
(1 1.69053e-15 0)
(1 1.67434e-15 0)
(1 -2.37447e-16 0)
(1 5.52699e-15 0)
(1 -5.26336e-15 0)
(1 -5.11878e-15 0)
(1 4.45564e-16 0)
(1 9.91124e-15 0)
(1 7.73963e-15 0)
(1 8.1319e-15 0)
(1 5.6157e-15 0)
(1 9.48797e-15 0)
(1 9.87386e-15 0)
(1 1.06778e-14 0)
(1 3.02491e-15 0)
(1 6.71074e-15 0)
(1 3.22744e-15 0)
(1 1.1915e-14 0)
(1 1.34158e-14 0)
(1 8.1294e-15 0)
(1 2.97656e-15 0)
(1 5.52369e-15 0)
(1 5.242e-15 0)
(1 5.46344e-15 0)
(1 1.23652e-15 0)
(1 -3.26689e-15 0)
(1 -4.96294e-15 0)
(1 -5.89092e-16 0)
(1 -2.00343e-15 0)
(1 6.02615e-16 0)
(1 1.44962e-15 0)
(1 1.10019e-14 0)
(1 9.51469e-15 0)
(1 1.07806e-14 0)
(1 1.14063e-14 0)