/*--------------------------------*- C++ -*----------------------------------*\
| =========                 |                                                 |
| \\      /  F ield         | OpenFOAM: The Open Source CFD Toolbox           |
|  \\    /   O peration     | Version:  v2012                                 |
|   \\  /    A nd           | Website:  www.openfoam.com                      |
|    \\/     M anipulation  |                                                 |
\*---------------------------------------------------------------------------*/
FoamFile
{
    version     2.0;
    format      ascii;
    class       volScalarField;
    location    "0";
    object      pRec;
}
// * * * * * * * * * * * * * * * * * * * * * * * * * * * * * * * * * * * * * //

dimensions      [0 2 -2 0 0 0 0];


internalField   nonuniform List<scalar> 
4000
(
-6.9294e-13
-6.87212e-13
-6.88458e-13
-6.91422e-13
-6.8921e-13
-6.90107e-13
-6.88477e-13
-6.8321e-13
-6.72953e-13
-6.6882e-13
-6.69855e-13
-6.64257e-13
-6.53756e-13
-6.39696e-13
-6.25612e-13
-6.19197e-13
-6.14837e-13
-6.12138e-13
-6.04531e-13
-5.9101e-13
-5.80024e-13
-5.72808e-13
-5.67524e-13
-5.59781e-13
-5.48896e-13
-5.37875e-13
-5.35884e-13
-5.30424e-13
-5.24036e-13
-5.12674e-13
-4.96556e-13
-4.89473e-13
-4.87604e-13
-4.85709e-13
-4.80847e-13
-4.77834e-13
-4.68312e-13
-4.49618e-13
-4.31964e-13
-4.28247e-13
-4.28972e-13
-4.27549e-13
-4.27891e-13
-4.21819e-13
-4.10815e-13
-4.01879e-13
-3.93052e-13
-3.83786e-13
-3.74743e-13
-3.67216e-13
-3.58713e-13
-3.50844e-13
-3.43672e-13
-3.35076e-13
-3.27078e-13
-3.14511e-13
-3.0756e-13
-3.04932e-13
-3.02695e-13
-2.99931e-13
-2.91937e-13
-2.84877e-13
-2.74827e-13
-2.62891e-13
-2.54818e-13
-2.47666e-13
-2.43377e-13
-2.35134e-13
-2.24355e-13
-2.16914e-13
-2.09562e-13
-2.02561e-13
-1.89426e-13
-1.8239e-13
-1.81252e-13
-1.77069e-13
-1.73236e-13
-1.66864e-13
-1.57602e-13
-1.44336e-13
-1.31646e-13
-1.25845e-13
-1.17216e-13
-1.12889e-13
-1.08244e-13
-1.02522e-13
-9.32161e-14
-8.52809e-14
-8.19593e-14
-7.79292e-14
-7.18828e-14
-6.53882e-14
-5.85431e-14
-5.32723e-14
-4.40539e-14
-3.49979e-14
-2.71975e-14
-1.93179e-14
-1.07731e-14
-2.59902e-15
-6.89421e-13
-6.88091e-13
-6.91275e-13
-6.91215e-13
-6.91962e-13
-6.88665e-13
-6.85498e-13
-6.83105e-13
-6.77527e-13
-6.72235e-13
-6.66266e-13
-6.60909e-13
-6.51885e-13
-6.40208e-13
-6.29065e-13
-6.22479e-13
-6.1757e-13
-6.10632e-13
-6.01695e-13
-5.94331e-13
-5.83568e-13
-5.71331e-13
-5.63623e-13
-5.5649e-13
-5.46673e-13
-5.40556e-13
-5.37176e-13
-5.31259e-13
-5.22781e-13
-5.09018e-13
-4.99733e-13
-4.92985e-13
-4.86994e-13
-4.8238e-13
-4.78195e-13
-4.73987e-13
-4.66366e-13
-4.53257e-13
-4.38948e-13
-4.32535e-13
-4.28879e-13
-4.26954e-13
-4.24562e-13
-4.1985e-13
-4.12272e-13
-4.02062e-13
-3.91651e-13
-3.83719e-13
-3.74901e-13
-3.64749e-13
-3.57592e-13
-3.49899e-13
-3.43734e-13
-3.36321e-13
-3.28373e-13
-3.17285e-13
-3.07309e-13
-3.03078e-13
-3.00927e-13
-2.98473e-13
-2.94209e-13
-2.84949e-13
-2.75843e-13
-2.647e-13
-2.56613e-13
-2.47573e-13
-2.40829e-13
-2.34208e-13
-2.26612e-13
-2.18421e-13
-2.09801e-13
-2.02608e-13
-1.94421e-13
-1.85633e-13
-1.81035e-13
-1.73484e-13
-1.71809e-13
-1.64591e-13
-1.54585e-13
-1.42576e-13
-1.32654e-13
-1.27314e-13
-1.21239e-13
-1.1523e-13
-1.06363e-13
-1.0021e-13
-9.12778e-14
-8.32e-14
-8.0218e-14
-7.64813e-14
-7.34104e-14
-6.79927e-14
-6.23397e-14
-5.12617e-14
-4.2547e-14
-3.57312e-14
-2.67536e-14
-1.94352e-14
-1.23407e-14
-4.43948e-15
-6.88979e-13
-6.8799e-13
-6.90187e-13
-6.93417e-13
-6.94416e-13
-6.89941e-13
-6.84581e-13
-6.8192e-13
-6.7571e-13
-6.7186e-13
-6.6686e-13
-6.60246e-13
-6.51413e-13
-6.41555e-13
-6.30994e-13
-6.23222e-13
-6.16907e-13
-6.09808e-13
-6.02167e-13
-5.93161e-13
-5.82463e-13
-5.73101e-13
-5.64492e-13
-5.57334e-13
-5.48586e-13
-5.43043e-13
-5.38125e-13
-5.2999e-13
-5.20394e-13
-5.07048e-13
-5.00206e-13
-4.93294e-13
-4.86968e-13
-4.84083e-13
-4.80116e-13
-4.75172e-13
-4.65009e-13
-4.5485e-13
-4.4375e-13
-4.32709e-13
-4.2797e-13
-4.23601e-13
-4.24111e-13
-4.20402e-13
-4.13305e-13
-4.02368e-13
-3.90277e-13
-3.80876e-13
-3.75761e-13
-3.7077e-13
-3.59547e-13
-3.50286e-13
-3.41395e-13
-3.33131e-13
-3.26369e-13
-3.18216e-13
-3.07674e-13
-3.0544e-13
-3.05711e-13
-3.00083e-13
-2.91891e-13
-2.79875e-13
-2.71727e-13
-2.66027e-13
-2.59458e-13
-2.51291e-13
-2.43696e-13
-2.33187e-13
-2.25199e-13
-2.15193e-13
-2.0677e-13
-1.99964e-13
-1.90915e-13
-1.85035e-13
-1.80624e-13
-1.75957e-13
-1.70744e-13
-1.64585e-13
-1.54066e-13
-1.43514e-13
-1.37923e-13
-1.29359e-13
-1.17201e-13
-1.11479e-13
-1.0604e-13
-1.02554e-13
-9.61731e-14
-8.67905e-14
-8.01352e-14
-7.44132e-14
-7.08511e-14
-6.75e-14
-6.05123e-14
-5.21827e-14
-4.18938e-14
-3.31677e-14
-2.73614e-14
-2.04377e-14
-1.61462e-14
-5.16098e-15
-6.90083e-13
-6.9115e-13
-6.91967e-13
-6.8803e-13
-6.92651e-13
-6.86995e-13
-6.846e-13
-6.82194e-13
-6.79879e-13
-6.74245e-13
-6.64979e-13
-6.55427e-13
-6.47641e-13
-6.42256e-13
-6.39865e-13
-6.29443e-13
-6.14934e-13
-6.06431e-13
-6.01218e-13
-5.92069e-13
-5.82932e-13
-5.75007e-13
-5.65136e-13
-5.51236e-13
-5.43983e-13
-5.4071e-13
-5.37325e-13
-5.31944e-13
-5.20472e-13
-5.11267e-13
-5.04394e-13
-4.96262e-13
-4.87765e-13
-4.82061e-13
-4.75646e-13
-4.74646e-13
-4.6538e-13
-4.53404e-13
-4.4488e-13
-4.35414e-13
-4.31399e-13
-4.28715e-13
-4.23865e-13
-4.17475e-13
-4.08153e-13
-3.98559e-13
-3.90178e-13
-3.84782e-13
-3.76929e-13
-3.64366e-13
-3.55045e-13
-3.49325e-13
-3.43573e-13
-3.37253e-13
-3.25718e-13
-3.19226e-13
-3.09946e-13
-3.04993e-13
-3.04625e-13
-2.98646e-13
-2.90192e-13
-2.81339e-13
-2.76031e-13
-2.68517e-13
-2.58949e-13
-2.5022e-13
-2.42457e-13
-2.33234e-13
-2.25805e-13
-2.17704e-13
-2.10642e-13
-2.03337e-13
-1.94112e-13
-1.86539e-13
-1.80108e-13
-1.74452e-13
-1.70989e-13
-1.63844e-13
-1.53964e-13
-1.44077e-13
-1.36758e-13
-1.29977e-13
-1.19425e-13
-1.09931e-13
-1.05176e-13
-1.00434e-13
-9.38292e-14
-8.61408e-14
-7.87704e-14
-7.49009e-14
-7.29907e-14
-6.79006e-14
-6.22906e-14
-5.07853e-14
-4.18038e-14
-3.5667e-14
-2.9005e-14
-1.95979e-14
-1.28804e-14
-4.76883e-15
-6.91137e-13
-6.95573e-13
-6.91947e-13
-6.87244e-13
-6.83634e-13
-6.87449e-13
-6.87531e-13
-6.85549e-13
-6.78883e-13
-6.71104e-13
-6.62543e-13
-6.57107e-13
-6.47106e-13
-6.4003e-13
-6.38744e-13
-6.327e-13
-6.21957e-13
-6.11101e-13
-5.98536e-13
-5.86712e-13
-5.81842e-13
-5.74057e-13
-5.59639e-13
-5.50297e-13
-5.47238e-13
-5.43644e-13
-5.39001e-13
-5.30824e-13
-5.22816e-13
-5.13774e-13
-5.0511e-13
-4.97408e-13
-4.88363e-13
-4.82563e-13
-4.76806e-13
-4.73897e-13
-4.642e-13
-4.53341e-13
-4.42475e-13
-4.35179e-13
-4.315e-13
-4.30822e-13
-4.24118e-13
-4.15976e-13
-4.05955e-13
-3.96028e-13
-3.88765e-13
-3.8326e-13
-3.75816e-13
-3.68119e-13
-3.58834e-13
-3.52028e-13
-3.44303e-13
-3.3659e-13
-3.26157e-13
-3.17706e-13
-3.11193e-13
-3.0652e-13
-3.03844e-13
-2.97308e-13
-2.90012e-13
-2.81836e-13
-2.73635e-13
-2.67581e-13
-2.62052e-13
-2.55544e-13
-2.47364e-13
-2.34618e-13
-2.25557e-13
-2.15029e-13
-2.06881e-13
-2.00531e-13
-1.93986e-13
-1.86688e-13
-1.76775e-13
-1.71419e-13
-1.69414e-13
-1.63529e-13
-1.56398e-13
-1.46127e-13
-1.38025e-13
-1.32149e-13
-1.19417e-13
-1.08944e-13
-1.0181e-13
-9.71517e-14
-9.35968e-14
-8.89651e-14
-8.11625e-14
-7.63496e-14
-7.18797e-14
-6.75736e-14
-6.00108e-14
-5.44843e-14
-4.6473e-14
-3.61504e-14
-2.89937e-14
-2.18435e-14
-1.24131e-14
-2.17446e-15
-6.87638e-13
-6.97171e-13
-6.93537e-13
-6.84368e-13
-6.88362e-13
-6.91953e-13
-6.89981e-13
-6.85591e-13
-6.77085e-13
-6.63648e-13
-6.59814e-13
-6.55946e-13
-6.51941e-13
-6.4206e-13
-6.35272e-13
-6.34386e-13
-6.23642e-13
-6.13767e-13
-6.03717e-13
-5.89937e-13
-5.79107e-13
-5.67748e-13
-5.50483e-13
-5.46768e-13
-5.47867e-13
-5.47027e-13
-5.38987e-13
-5.29906e-13
-5.21842e-13
-5.16826e-13
-5.06562e-13
-4.96975e-13
-4.8871e-13
-4.85735e-13
-4.82438e-13
-4.72677e-13
-4.61833e-13
-4.53149e-13
-4.42496e-13
-4.37699e-13
-4.34347e-13
-4.31249e-13
-4.22347e-13
-4.16286e-13
-4.06194e-13
-3.94252e-13
-3.84997e-13
-3.79611e-13
-3.7604e-13
-3.68024e-13
-3.60899e-13
-3.51456e-13
-3.42948e-13
-3.34184e-13
-3.24681e-13
-3.19205e-13
-3.1399e-13
-3.07853e-13
-3.02169e-13
-2.97955e-13
-2.92232e-13
-2.8279e-13
-2.74401e-13
-2.67399e-13
-2.58445e-13
-2.53683e-13
-2.4807e-13
-2.35882e-13
-2.26593e-13
-2.18339e-13
-2.08522e-13
-2.0075e-13
-1.95339e-13
-1.88501e-13
-1.7868e-13
-1.74e-13
-1.68102e-13
-1.60154e-13
-1.5534e-13
-1.48452e-13
-1.40898e-13
-1.31231e-13
-1.17053e-13
-1.06764e-13
-1.02528e-13
-9.94432e-14
-9.56009e-14
-8.69563e-14
-8.01852e-14
-7.58179e-14
-7.154e-14
-6.77509e-14
-5.82724e-14
-5.35565e-14
-4.64532e-14
-3.92666e-14
-2.92034e-14
-2.06865e-14
-1.03474e-14
-9.78871e-16
-6.92923e-13
-6.93666e-13
-6.929e-13
-6.89551e-13
-6.86618e-13
-6.90252e-13
-6.89526e-13
-6.83211e-13
-6.74961e-13
-6.64304e-13
-6.55949e-13
-6.55118e-13
-6.54091e-13
-6.43323e-13
-6.3656e-13
-6.3163e-13
-6.27812e-13
-6.19135e-13
-6.00649e-13
-5.82495e-13
-5.66592e-13
-5.62423e-13
-5.6084e-13
-5.58322e-13
-5.53077e-13
-5.46508e-13
-5.3607e-13
-5.27393e-13
-5.23455e-13
-5.18848e-13
-5.09647e-13
-4.95962e-13
-4.89784e-13
-4.81561e-13
-4.76436e-13
-4.70317e-13
-4.63907e-13
-4.58389e-13
-4.47601e-13
-4.363e-13
-4.29689e-13
-4.24999e-13
-4.20499e-13
-4.16471e-13
-4.09861e-13
-3.99423e-13
-3.87882e-13
-3.7861e-13
-3.72652e-13
-3.67748e-13
-3.60605e-13
-3.54902e-13
-3.46123e-13
-3.34732e-13
-3.26292e-13
-3.20293e-13
-3.13532e-13
-3.02266e-13
-2.98043e-13
-2.97259e-13
-2.96843e-13
-2.88541e-13
-2.76854e-13
-2.64916e-13
-2.55373e-13
-2.50055e-13
-2.42453e-13
-2.31384e-13
-2.22166e-13
-2.17745e-13
-2.1711e-13
-2.07121e-13
-1.96596e-13
-1.91382e-13
-1.81759e-13
-1.72155e-13
-1.6387e-13
-1.56274e-13
-1.51037e-13
-1.46677e-13
-1.39892e-13
-1.30465e-13
-1.22257e-13
-1.13051e-13
-1.0614e-13
-9.59983e-14
-9.24812e-14
-8.8615e-14
-8.08589e-14
-7.75732e-14
-7.10371e-14
-6.30568e-14
-5.85109e-14
-5.28837e-14
-4.65364e-14
-3.68675e-14
-2.88915e-14
-1.91567e-14
-1.03737e-14
-3.33342e-15
-6.92019e-13
-6.91515e-13
-6.89303e-13
-6.90479e-13
-6.9312e-13
-6.92704e-13
-6.89141e-13
-6.82004e-13
-6.73134e-13
-6.65614e-13
-6.59813e-13
-6.54224e-13
-6.50335e-13
-6.41042e-13
-6.37011e-13
-6.31655e-13
-6.2777e-13
-6.18568e-13
-5.95651e-13
-5.84179e-13
-5.79627e-13
-5.72401e-13
-5.61554e-13
-5.51859e-13
-5.49068e-13
-5.42345e-13
-5.31603e-13
-5.25721e-13
-5.20852e-13
-5.16051e-13
-5.09574e-13
-5.0178e-13
-4.95829e-13
-4.89184e-13
-4.77449e-13
-4.69363e-13
-4.62427e-13
-4.53473e-13
-4.45541e-13
-4.36602e-13
-4.30788e-13
-4.28371e-13
-4.21599e-13
-4.20301e-13
-4.14914e-13
-3.99694e-13
-3.83991e-13
-3.70728e-13
-3.70308e-13
-3.6946e-13
-3.65554e-13
-3.58461e-13
-3.46023e-13
-3.34683e-13
-3.2358e-13
-3.17295e-13
-3.14046e-13
-3.0851e-13
-3.00199e-13
-2.94467e-13
-2.92257e-13
-2.85254e-13
-2.77873e-13
-2.69445e-13
-2.61088e-13
-2.52249e-13
-2.43406e-13
-2.33362e-13
-2.27188e-13
-2.20116e-13
-2.12765e-13
-2.07102e-13
-1.95449e-13
-1.82875e-13
-1.75846e-13
-1.72335e-13
-1.67855e-13
-1.60208e-13
-1.55769e-13
-1.49632e-13
-1.40619e-13
-1.30688e-13
-1.18458e-13
-1.07567e-13
-9.91273e-14
-9.54341e-14
-9.34428e-14
-9.01333e-14
-8.28763e-14
-7.60003e-14
-6.86132e-14
-6.32128e-14
-5.88405e-14
-5.41741e-14
-4.49598e-14
-3.5185e-14
-2.86726e-14
-2.0672e-14
-1.17932e-14
-1.72399e-15
-6.94381e-13
-6.96065e-13
-6.9094e-13
-6.84717e-13
-6.88503e-13
-6.91378e-13
-6.91162e-13
-6.83126e-13
-6.70614e-13
-6.67337e-13
-6.60696e-13
-6.50702e-13
-6.44342e-13
-6.40974e-13
-6.38364e-13
-6.34192e-13
-6.27508e-13
-6.16377e-13
-5.99756e-13
-5.86372e-13
-5.78359e-13
-5.69812e-13
-5.65244e-13
-5.58175e-13
-5.49125e-13
-5.39033e-13
-5.3071e-13
-5.25813e-13
-5.24228e-13
-5.16996e-13
-5.10544e-13
-5.0311e-13
-4.92363e-13
-4.81957e-13
-4.77773e-13
-4.7057e-13
-4.61742e-13
-4.52869e-13
-4.47681e-13
-4.42152e-13
-4.37193e-13
-4.30174e-13
-4.1838e-13
-4.10777e-13
-4.07336e-13
-4.00523e-13
-3.8949e-13
-3.79711e-13
-3.7356e-13
-3.67004e-13
-3.60666e-13
-3.53905e-13
-3.44499e-13
-3.35962e-13
-3.28063e-13
-3.23098e-13
-3.15215e-13
-3.08473e-13
-3.00868e-13
-2.95425e-13
-2.89215e-13
-2.82519e-13
-2.76418e-13
-2.68799e-13
-2.58241e-13
-2.4806e-13
-2.42025e-13
-2.34192e-13
-2.26319e-13
-2.19089e-13
-2.11285e-13
-2.07486e-13
-1.9962e-13
-1.89396e-13
-1.78006e-13
-1.72619e-13
-1.68723e-13
-1.61736e-13
-1.56161e-13
-1.4711e-13
-1.40915e-13
-1.31432e-13
-1.18756e-13
-1.09023e-13
-1.01421e-13
-9.61343e-14
-9.4189e-14
-8.93019e-14
-8.22772e-14
-7.58834e-14
-6.81625e-14
-6.23689e-14
-5.57116e-14
-5.1015e-14
-4.45079e-14
-3.60301e-14
-2.73262e-14
-1.68836e-14
-7.78505e-15
1.07969e-15
-6.94226e-13
-6.93501e-13
-6.93539e-13
-6.90235e-13
-6.86787e-13
-6.89139e-13
-6.8781e-13
-6.85773e-13
-6.77811e-13
-6.63451e-13
-6.55063e-13
-6.478e-13
-6.45344e-13
-6.43879e-13
-6.39966e-13
-6.33428e-13
-6.235e-13
-6.16747e-13
-6.0719e-13
-5.91355e-13
-5.78394e-13
-5.65442e-13
-5.60201e-13
-5.53339e-13
-5.50444e-13
-5.44142e-13
-5.34242e-13
-5.28429e-13
-5.22683e-13
-5.17119e-13
-5.11499e-13
-5.02975e-13
-4.92753e-13
-4.81143e-13
-4.74525e-13
-4.68936e-13
-4.64317e-13
-4.54198e-13
-4.48663e-13
-4.43009e-13
-4.33426e-13
-4.24208e-13
-4.17548e-13
-4.11192e-13
-4.10078e-13
-4.05165e-13
-3.94041e-13
-3.81916e-13
-3.73864e-13
-3.64662e-13
-3.57674e-13
-3.53596e-13
-3.46005e-13
-3.37128e-13
-3.28646e-13
-3.21241e-13
-3.14553e-13
-3.0745e-13
-3.00757e-13
-2.97521e-13
-2.92971e-13
-2.89161e-13
-2.82035e-13
-2.69257e-13
-2.54944e-13
-2.40905e-13
-2.33887e-13
-2.29094e-13
-2.25582e-13
-2.25421e-13
-2.19185e-13
-2.0976e-13
-2.02393e-13
-1.91733e-13
-1.79034e-13
-1.69774e-13
-1.65341e-13
-1.59629e-13
-1.55366e-13
-1.46656e-13
-1.40062e-13
-1.31667e-13
-1.20633e-13
-1.12572e-13
-1.03349e-13
-9.48955e-14
-9.07312e-14
-8.52135e-14
-8.1368e-14
-7.61522e-14
-6.66658e-14
-5.79678e-14
-5.25641e-14
-4.81412e-14
-4.00352e-14
-3.14816e-14
-2.33559e-14
-1.50208e-14
-5.72928e-15
1.55299e-16
-6.9239e-13
-6.91684e-13
-6.90725e-13
-6.92199e-13
-6.9245e-13
-6.86933e-13
-6.8491e-13
-6.81849e-13
-6.75833e-13
-6.68718e-13
-6.55883e-13
-6.46327e-13
-6.45282e-13
-6.4551e-13
-6.40323e-13
-6.35925e-13
-6.23155e-13
-6.1497e-13
-6.06725e-13
-5.92559e-13
-5.82582e-13
-5.66715e-13
-5.56465e-13
-5.51976e-13
-5.46153e-13
-5.41123e-13
-5.36748e-13
-5.30228e-13
-5.24573e-13
-5.19068e-13
-5.10664e-13
-5.01624e-13
-4.91527e-13
-4.83352e-13
-4.7872e-13
-4.70707e-13
-4.62046e-13
-4.54405e-13
-4.50139e-13
-4.41293e-13
-4.3337e-13
-4.24091e-13
-4.1789e-13
-4.1573e-13
-4.13095e-13
-4.03554e-13
-3.90941e-13
-3.7805e-13
-3.70641e-13
-3.63201e-13
-3.60652e-13
-3.55607e-13
-3.45521e-13
-3.36622e-13
-3.27399e-13
-3.2445e-13
-3.17525e-13
-3.09858e-13
-3.00032e-13
-2.91271e-13
-2.89399e-13
-2.81663e-13
-2.76519e-13
-2.71956e-13
-2.58061e-13
-2.43876e-13
-2.34048e-13
-2.28241e-13
-2.2608e-13
-2.28429e-13
-2.202e-13
-2.12429e-13
-2.03053e-13
-1.90931e-13
-1.76882e-13
-1.65822e-13
-1.64973e-13
-1.6316e-13
-1.59025e-13
-1.50357e-13
-1.43962e-13
-1.35309e-13
-1.20277e-13
-1.08951e-13
-9.84283e-14
-8.9187e-14
-9.14149e-14
-8.96727e-14
-8.17128e-14
-7.45457e-14
-6.47156e-14
-5.83935e-14
-5.20609e-14
-4.61032e-14
-4.1788e-14
-3.48264e-14
-1.97212e-14
-6.1394e-15
2.06105e-15
-1.15455e-15
-6.95428e-13
-6.93526e-13
-6.91277e-13
-6.92796e-13
-6.91395e-13
-6.86154e-13
-6.86371e-13
-6.82817e-13
-6.75355e-13
-6.65938e-13
-6.57384e-13
-6.49613e-13
-6.41664e-13
-6.38671e-13
-6.35587e-13
-6.29897e-13
-6.26327e-13
-6.20415e-13
-6.09031e-13
-5.94048e-13
-5.81772e-13
-5.73783e-13
-5.62814e-13
-5.52931e-13
-5.46377e-13
-5.35566e-13
-5.32336e-13
-5.29589e-13
-5.25914e-13
-5.21409e-13
-5.12889e-13
-5.0245e-13
-4.90525e-13
-4.80828e-13
-4.7533e-13
-4.68429e-13
-4.64041e-13
-4.57413e-13
-4.52445e-13
-4.3995e-13
-4.31985e-13
-4.21182e-13
-4.1755e-13
-4.18022e-13
-4.11438e-13
-4.03324e-13
-3.91831e-13
-3.81577e-13
-3.71815e-13
-3.62989e-13
-3.56752e-13
-3.53819e-13
-3.45679e-13
-3.3974e-13
-3.32547e-13
-3.23306e-13
-3.15816e-13
-3.07702e-13
-2.99695e-13
-2.93905e-13
-2.91845e-13
-2.9189e-13
-2.81263e-13
-2.68806e-13
-2.50234e-13
-2.40513e-13
-2.34035e-13
-2.30631e-13
-2.25847e-13
-2.23433e-13
-2.17237e-13
-2.15949e-13
-2.09671e-13
-1.96596e-13
-1.75705e-13
-1.59118e-13
-1.57942e-13
-1.63957e-13
-1.60892e-13
-1.50415e-13
-1.42797e-13
-1.32298e-13
-1.22143e-13
-1.13516e-13
-1.02906e-13
-9.21761e-14
-8.61486e-14
-8.53931e-14
-8.00595e-14
-7.31126e-14
-6.26379e-14
-5.76404e-14
-5.18273e-14
-4.47681e-14
-3.71714e-14
-3.08833e-14
-1.85521e-14
-7.68009e-15
-1.59222e-15
-1.19907e-15
-6.93061e-13
-6.92682e-13
-6.8475e-13
-6.94004e-13
-6.93624e-13
-6.90488e-13
-6.84041e-13
-6.77151e-13
-6.70407e-13
-6.60905e-13
-6.56212e-13
-6.51129e-13
-6.50094e-13
-6.4388e-13
-6.37504e-13
-6.33539e-13
-6.28586e-13
-6.2172e-13
-6.09784e-13
-5.94976e-13
-5.75486e-13
-5.61426e-13
-5.52427e-13
-5.50908e-13
-5.46363e-13
-5.41682e-13
-5.35255e-13
-5.28984e-13
-5.2665e-13
-5.23881e-13
-5.16119e-13
-5.03141e-13
-4.93071e-13
-4.85e-13
-4.80733e-13
-4.70533e-13
-4.60753e-13
-4.55943e-13
-4.50036e-13
-4.39876e-13
-4.30359e-13
-4.26555e-13
-4.22299e-13
-4.16519e-13
-4.05807e-13
-3.96552e-13
-3.89621e-13
-3.81949e-13
-3.73949e-13
-3.6692e-13
-3.60374e-13
-3.54349e-13
-3.4334e-13
-3.33434e-13
-3.35118e-13
-3.34647e-13
-3.19279e-13
-3.04105e-13
-2.95223e-13
-2.87671e-13
-2.85602e-13
-2.82952e-13
-2.8212e-13
-2.72187e-13
-2.55215e-13
-2.46103e-13
-2.32934e-13
-2.31347e-13
-2.25981e-13
-2.20765e-13
-2.1677e-13
-2.16523e-13
-2.10451e-13
-1.94464e-13
-1.77394e-13
-1.63898e-13
-1.60856e-13
-1.64427e-13
-1.57178e-13
-1.47544e-13
-1.4091e-13
-1.33117e-13
-1.25013e-13
-1.15008e-13
-1.04232e-13
-9.16895e-14
-8.58142e-14
-8.5436e-14
-7.85986e-14
-7.12357e-14
-6.292e-14
-5.62689e-14
-4.86192e-14
-4.28888e-14
-3.76847e-14
-2.95414e-14
-1.88168e-14
-9.32948e-15
-6.50387e-16
7.8039e-16
-6.89647e-13
-6.99648e-13
-6.94085e-13
-6.89097e-13
-6.89664e-13
-6.8825e-13
-6.83323e-13
-6.82173e-13
-6.71398e-13
-6.5696e-13
-6.52743e-13
-6.51106e-13
-6.48451e-13
-6.45021e-13
-6.40459e-13
-6.30705e-13
-6.19887e-13
-6.12214e-13
-6.06443e-13
-5.97332e-13
-5.90236e-13
-5.81611e-13
-5.68825e-13
-5.50931e-13
-5.36857e-13
-5.30678e-13
-5.33132e-13
-5.30916e-13
-5.27996e-13
-5.25789e-13
-5.16841e-13
-5.04451e-13
-4.89163e-13
-4.76848e-13
-4.71425e-13
-4.67083e-13
-4.67235e-13
-4.62685e-13
-4.50899e-13
-4.44419e-13
-4.33034e-13
-4.23018e-13
-4.20872e-13
-4.13897e-13
-4.0495e-13
-3.96148e-13
-3.86789e-13
-3.82024e-13
-3.77553e-13
-3.69464e-13
-3.61543e-13
-3.52263e-13
-3.45165e-13
-3.3784e-13
-3.33051e-13
-3.27492e-13
-3.21267e-13
-3.13779e-13
-3.05204e-13
-2.93535e-13
-2.84324e-13
-2.77739e-13
-2.72359e-13
-2.6682e-13
-2.56793e-13
-2.48459e-13
-2.39417e-13
-2.32501e-13
-2.2653e-13
-2.23105e-13
-2.1935e-13
-2.11347e-13
-2.0363e-13
-1.95139e-13
-1.80354e-13
-1.69237e-13
-1.6127e-13
-1.59168e-13
-1.56664e-13
-1.48437e-13
-1.41687e-13
-1.30984e-13
-1.23355e-13
-1.13742e-13
-1.02739e-13
-9.32372e-14
-8.83161e-14
-8.38668e-14
-7.95277e-14
-7.08216e-14
-6.32332e-14
-5.92408e-14
-5.12117e-14
-4.25437e-14
-3.28206e-14
-2.4396e-14
-1.7366e-14
-1.08566e-14
-3.44986e-15
2.86042e-16
-6.88848e-13
-6.93263e-13
-6.95133e-13
-6.9073e-13
-6.89892e-13
-6.91165e-13
-6.80262e-13
-6.68876e-13
-6.63733e-13
-6.61496e-13
-6.59091e-13
-6.55333e-13
-6.5211e-13
-6.46475e-13
-6.40826e-13
-6.32003e-13
-6.25129e-13
-6.21199e-13
-6.11772e-13
-5.96945e-13
-5.77155e-13
-5.63042e-13
-5.53906e-13
-5.4424e-13
-5.44593e-13
-5.43163e-13
-5.38273e-13
-5.30584e-13
-5.26141e-13
-5.25019e-13
-5.19024e-13
-5.07967e-13
-4.94773e-13
-4.77185e-13
-4.66715e-13
-4.67496e-13
-4.68634e-13
-4.64103e-13
-4.57047e-13
-4.45601e-13
-4.30804e-13
-4.21539e-13
-4.13946e-13
-4.09524e-13
-4.04636e-13
-3.98999e-13
-3.92066e-13
-3.83392e-13
-3.77307e-13
-3.76582e-13
-3.68015e-13
-3.50252e-13
-3.39957e-13
-3.32654e-13
-3.27257e-13
-3.25724e-13
-3.21939e-13
-3.12836e-13
-3.00322e-13
-2.90815e-13
-2.87532e-13
-2.83147e-13
-2.75892e-13
-2.66716e-13
-2.52498e-13
-2.4207e-13
-2.37533e-13
-2.35269e-13
-2.30191e-13
-2.22897e-13
-2.16093e-13
-2.11257e-13
-2.04032e-13
-1.93622e-13
-1.81702e-13
-1.6586e-13
-1.5966e-13
-1.58213e-13
-1.58862e-13
-1.53944e-13
-1.45072e-13
-1.34506e-13
-1.23012e-13
-1.10852e-13
-1.01098e-13
-9.3603e-14
-8.88022e-14
-8.28322e-14
-7.68999e-14
-6.99505e-14
-6.34979e-14
-5.79351e-14
-5.17321e-14
-4.27155e-14
-3.20978e-14
-2.17424e-14
-1.34985e-14
-8.04291e-15
-1.62559e-15
-4.20313e-16
-6.87376e-13
-6.96369e-13
-6.96938e-13
-6.91879e-13
-6.88452e-13
-6.94039e-13
-6.90218e-13
-6.75582e-13
-6.56903e-13
-6.52827e-13
-6.51994e-13
-6.53468e-13
-6.525e-13
-6.49633e-13
-6.44131e-13
-6.33146e-13
-6.23242e-13
-6.15312e-13
-6.02367e-13
-5.935e-13
-5.85269e-13
-5.71543e-13
-5.59375e-13
-5.45251e-13
-5.4407e-13
-5.4219e-13
-5.40199e-13
-5.35147e-13
-5.26992e-13
-5.23983e-13
-5.1554e-13
-5.03425e-13
-4.93573e-13
-4.78172e-13
-4.65788e-13
-4.64898e-13
-4.66863e-13
-4.64995e-13
-4.56552e-13
-4.4634e-13
-4.29645e-13
-4.20212e-13
-4.17633e-13
-4.12426e-13
-4.04852e-13
-3.97405e-13
-3.94631e-13
-3.87875e-13
-3.77533e-13
-3.66501e-13
-3.58825e-13
-3.52974e-13
-3.44139e-13
-3.31084e-13
-3.32049e-13
-3.29408e-13
-3.212e-13
-3.14957e-13
-3.07506e-13
-2.93165e-13
-2.85705e-13
-2.79448e-13
-2.70908e-13
-2.63214e-13
-2.5225e-13
-2.44596e-13
-2.35295e-13
-2.32355e-13
-2.26753e-13
-2.26093e-13
-2.18676e-13
-2.14438e-13
-2.07492e-13
-1.93264e-13
-1.7848e-13
-1.66373e-13
-1.63006e-13
-1.59775e-13
-1.54905e-13
-1.49691e-13
-1.43829e-13
-1.34949e-13
-1.23704e-13
-1.11367e-13
-1.04457e-13
-9.68199e-14
-8.91749e-14
-8.26071e-14
-7.68651e-14
-6.86058e-14
-6.1715e-14
-5.57008e-14
-4.76778e-14
-3.89429e-14
-3.15523e-14
-2.55121e-14
-1.19958e-14
-4.80764e-15
1.28874e-15
6.53325e-16
-6.94403e-13
-6.93493e-13
-6.89595e-13
-6.85484e-13
-6.87208e-13
-6.81677e-13
-6.77239e-13
-6.78615e-13
-6.74224e-13
-6.66377e-13
-6.61029e-13
-6.52108e-13
-6.45985e-13
-6.44755e-13
-6.42511e-13
-6.35122e-13
-6.25872e-13
-6.22514e-13
-6.10608e-13
-5.93284e-13
-5.73191e-13
-5.60151e-13
-5.54378e-13
-5.52695e-13
-5.45856e-13
-5.44338e-13
-5.40251e-13
-5.33317e-13
-5.27648e-13
-5.22497e-13
-5.15371e-13
-5.02885e-13
-4.90664e-13
-4.77882e-13
-4.6921e-13
-4.68084e-13
-4.71399e-13
-4.65056e-13
-4.55489e-13
-4.44829e-13
-4.30538e-13
-4.17663e-13
-4.15566e-13
-4.13022e-13
-4.09295e-13
-3.986e-13
-3.89432e-13
-3.86103e-13
-3.81196e-13
-3.69662e-13
-3.58065e-13
-3.52873e-13
-3.45895e-13
-3.34809e-13
-3.26898e-13
-3.24386e-13
-3.18748e-13
-3.14028e-13
-3.08351e-13
-2.98758e-13
-2.87857e-13
-2.79858e-13
-2.70335e-13
-2.62716e-13
-2.56034e-13
-2.45844e-13
-2.35737e-13
-2.27046e-13
-2.23865e-13
-2.26143e-13
-2.17664e-13
-2.12552e-13
-2.0566e-13
-1.93956e-13
-1.82613e-13
-1.69977e-13
-1.59376e-13
-1.5468e-13
-1.54183e-13
-1.55135e-13
-1.48685e-13
-1.33508e-13
-1.22424e-13
-1.09421e-13
-1.04567e-13
-9.91969e-14
-9.1748e-14
-8.13951e-14
-7.22713e-14
-6.74024e-14
-6.17823e-14
-5.49516e-14
-4.92732e-14
-4.09165e-14
-3.0527e-14
-2.0924e-14
-1.24153e-14
-6.05819e-15
9.05074e-16
2.05776e-15
-6.93791e-13
-6.92495e-13
-6.8979e-13
-6.87246e-13
-6.93556e-13
-6.90714e-13
-6.77529e-13
-6.70766e-13
-6.66002e-13
-6.62907e-13
-6.61777e-13
-6.59777e-13
-6.47934e-13
-6.40282e-13
-6.37243e-13
-6.32205e-13
-6.27731e-13
-6.20347e-13
-6.07546e-13
-5.90808e-13
-5.76528e-13
-5.61861e-13
-5.52481e-13
-5.52985e-13
-5.53154e-13
-5.44188e-13
-5.36557e-13
-5.33706e-13
-5.31322e-13
-5.25284e-13
-5.17714e-13
-5.04547e-13
-4.9053e-13
-4.77008e-13
-4.66008e-13
-4.66536e-13
-4.65384e-13
-4.63267e-13
-4.59484e-13
-4.49034e-13
-4.3415e-13
-4.22221e-13
-4.15629e-13
-4.0732e-13
-4.05419e-13
-4.00036e-13
-3.92213e-13
-3.82878e-13
-3.76468e-13
-3.6984e-13
-3.58937e-13
-3.53293e-13
-3.45948e-13
-3.36171e-13
-3.33321e-13
-3.28802e-13
-3.16988e-13
-3.0791e-13
-3.03883e-13
-2.95951e-13
-2.89943e-13
-2.79801e-13
-2.71647e-13
-2.64424e-13
-2.55435e-13
-2.44276e-13
-2.37743e-13
-2.27472e-13
-2.20556e-13
-2.1878e-13
-2.1686e-13
-2.13442e-13
-2.07368e-13
-1.94101e-13
-1.81309e-13
-1.70741e-13
-1.63733e-13
-1.5684e-13
-1.5651e-13
-1.53276e-13
-1.45783e-13
-1.35245e-13
-1.23825e-13
-1.11992e-13
-1.03189e-13
-9.40917e-14
-8.72687e-14
-8.30941e-14
-7.71065e-14
-6.76485e-14
-6.0775e-14
-5.36216e-14
-4.6111e-14
-3.80871e-14
-2.89723e-14
-2.26275e-14
-1.41132e-14
-4.19327e-15
1.34647e-15
2.82798e-16
-6.88502e-13
-6.91352e-13
-6.91432e-13
-6.8989e-13
-6.88154e-13
-6.81833e-13
-6.77021e-13
-6.7363e-13
-6.72653e-13
-6.68503e-13
-6.63023e-13
-6.58371e-13
-6.50846e-13
-6.42011e-13
-6.35856e-13
-6.28495e-13
-6.25609e-13
-6.18708e-13
-6.05694e-13
-5.93147e-13
-5.76527e-13
-5.62933e-13
-5.58058e-13
-5.54089e-13
-5.4561e-13
-5.41504e-13
-5.40917e-13
-5.38027e-13
-5.30749e-13
-5.20773e-13
-5.12601e-13
-5.03262e-13
-4.90148e-13
-4.78085e-13
-4.68716e-13
-4.72169e-13
-4.73236e-13
-4.65413e-13
-4.54528e-13
-4.4158e-13
-4.30964e-13
-4.25188e-13
-4.1732e-13
-4.0759e-13
-4.02559e-13
-3.96167e-13
-3.94782e-13
-3.93323e-13
-3.80283e-13
-3.66389e-13
-3.56651e-13
-3.54532e-13
-3.46488e-13
-3.3548e-13
-3.31731e-13
-3.28296e-13
-3.20544e-13
-3.0991e-13
-3.0169e-13
-2.94875e-13
-2.92237e-13
-2.83227e-13
-2.72782e-13
-2.63241e-13
-2.51527e-13
-2.43643e-13
-2.34686e-13
-2.28887e-13
-2.216e-13
-2.16994e-13
-2.12742e-13
-2.13224e-13
-2.08115e-13
-1.94068e-13
-1.81387e-13
-1.70773e-13
-1.65702e-13
-1.5997e-13
-1.52068e-13
-1.44331e-13
-1.4815e-13
-1.42426e-13
-1.25418e-13
-1.12865e-13
-1.03235e-13
-9.26303e-14
-8.52663e-14
-8.24176e-14
-7.66356e-14
-6.77902e-14
-5.98958e-14
-5.38952e-14
-4.69038e-14
-3.67684e-14
-3.13815e-14
-2.12813e-14
-1.11491e-14
-2.63347e-15
2.29552e-15
-1.31094e-16
-6.95795e-13
-6.92567e-13
-6.90352e-13
-6.87232e-13
-6.82245e-13
-6.79628e-13
-6.76488e-13
-6.76575e-13
-6.74068e-13
-6.69013e-13
-6.62183e-13
-6.57776e-13
-6.51804e-13
-6.45741e-13
-6.37772e-13
-6.26846e-13
-6.16467e-13
-6.10272e-13
-6.05498e-13
-5.97385e-13
-5.79224e-13
-5.67204e-13
-5.58331e-13
-5.51219e-13
-5.47725e-13
-5.44073e-13
-5.41942e-13
-5.38653e-13
-5.29052e-13
-5.23691e-13
-5.14029e-13
-5.02492e-13
-4.8846e-13
-4.7598e-13
-4.71247e-13
-4.7185e-13
-4.69818e-13
-4.63912e-13
-4.54272e-13
-4.42999e-13
-4.31384e-13
-4.22426e-13
-4.18203e-13
-4.12413e-13
-4.07463e-13
-4.00665e-13
-3.90671e-13
-3.83823e-13
-3.79043e-13
-3.70809e-13
-3.64153e-13
-3.54365e-13
-3.44742e-13
-3.36567e-13
-3.30377e-13
-3.22967e-13
-3.18875e-13
-3.11829e-13
-3.01474e-13
-2.95294e-13
-2.9315e-13
-2.85594e-13
-2.73966e-13
-2.6141e-13
-2.52616e-13
-2.43809e-13
-2.34397e-13
-2.27088e-13
-2.21343e-13
-2.17092e-13
-2.14622e-13
-2.13699e-13
-2.06896e-13
-1.90999e-13
-1.80178e-13
-1.70897e-13
-1.65037e-13
-1.59375e-13
-1.55498e-13
-1.50893e-13
-1.44575e-13
-1.36308e-13
-1.26506e-13
-1.16306e-13
-1.08359e-13
-9.30531e-14
-8.42106e-14
-7.92939e-14
-7.61418e-14
-6.4563e-14
-5.71108e-14
-5.2917e-14
-5.10766e-14
-3.85022e-14
-2.71323e-14
-2.03171e-14
-1.25975e-14
-1.55394e-16
1.14928e-15
-1.38222e-15
-6.98326e-13
-6.91799e-13
-6.85955e-13
-6.86363e-13
-6.78493e-13
-6.79639e-13
-6.76875e-13
-6.77852e-13
-6.77384e-13
-6.67482e-13
-6.61305e-13
-6.58516e-13
-6.56722e-13
-6.47296e-13
-6.37982e-13
-6.2996e-13
-6.21354e-13
-6.10559e-13
-6.04316e-13
-5.90592e-13
-5.79204e-13
-5.66907e-13
-5.55355e-13
-5.49557e-13
-5.46113e-13
-5.47823e-13
-5.43064e-13
-5.37527e-13
-5.29605e-13
-5.22036e-13
-5.14401e-13
-5.04594e-13
-4.88937e-13
-4.78694e-13
-4.69864e-13
-4.67465e-13
-4.6822e-13
-4.64244e-13
-4.54952e-13
-4.43852e-13
-4.34839e-13
-4.25783e-13
-4.17659e-13
-4.11431e-13
-4.05604e-13
-3.98929e-13
-3.90798e-13
-3.86203e-13
-3.81761e-13
-3.71545e-13
-3.60885e-13
-3.5024e-13
-3.44245e-13
-3.39284e-13
-3.33793e-13
-3.27412e-13
-3.20176e-13
-3.10399e-13
-3.0403e-13
-2.99329e-13
-2.94337e-13
-2.84383e-13
-2.70114e-13
-2.59797e-13
-2.50606e-13
-2.41738e-13
-2.32485e-13
-2.27949e-13
-2.21017e-13
-2.20786e-13
-2.15706e-13
-2.09744e-13
-2.00211e-13
-1.88342e-13
-1.78592e-13
-1.69071e-13
-1.68596e-13
-1.66622e-13
-1.57117e-13
-1.48096e-13
-1.41588e-13
-1.3397e-13
-1.25244e-13
-1.15068e-13
-1.03021e-13
-9.05416e-14
-8.55283e-14
-8.1942e-14
-7.50947e-14
-7.03836e-14
-6.46131e-14
-5.33501e-14
-4.36055e-14
-3.61037e-14
-2.73074e-14
-1.77546e-14
-1.06643e-14
-6.31411e-15
-1.88865e-15
-1.35259e-15
-6.96126e-13
-6.9007e-13
-6.88301e-13
-6.86316e-13
-6.82977e-13
-6.79374e-13
-6.7391e-13
-6.76707e-13
-6.76543e-13
-6.71331e-13
-6.64947e-13
-6.57842e-13
-6.55367e-13
-6.45526e-13
-6.34932e-13
-6.24751e-13
-6.15092e-13
-6.1086e-13
-6.04978e-13
-5.93229e-13
-5.80698e-13
-5.68472e-13
-5.5767e-13
-5.53323e-13
-5.52017e-13
-5.45458e-13
-5.39128e-13
-5.31622e-13
-5.25019e-13
-5.22607e-13
-5.16236e-13
-5.09176e-13
-4.97188e-13
-4.85735e-13
-4.67856e-13
-4.6368e-13
-4.63322e-13
-4.60627e-13
-4.54696e-13
-4.43923e-13
-4.36807e-13
-4.26083e-13
-4.20388e-13
-4.09932e-13
-4.0609e-13
-4.00441e-13
-3.96146e-13
-3.88059e-13
-3.77972e-13
-3.6421e-13
-3.6009e-13
-3.55734e-13
-3.48545e-13
-3.35553e-13
-3.28492e-13
-3.22105e-13
-3.148e-13
-3.12963e-13
-3.05088e-13
-3.03709e-13
-3.0403e-13
-2.81647e-13
-2.68018e-13
-2.6168e-13
-2.53364e-13
-2.44972e-13
-2.35199e-13
-2.28348e-13
-2.1805e-13
-2.14746e-13
-2.10577e-13
-2.1276e-13
-2.05525e-13
-1.92598e-13
-1.76451e-13
-1.64588e-13
-1.68381e-13
-1.65057e-13
-1.56964e-13
-1.50818e-13
-1.43718e-13
-1.34434e-13
-1.23999e-13
-1.13188e-13
-1.03659e-13
-9.1936e-14
-8.46585e-14
-8.23641e-14
-7.64902e-14
-6.61292e-14
-5.81457e-14
-5.28533e-14
-4.45166e-14
-3.54915e-14
-3.14647e-14
-2.45392e-14
-1.10091e-14
-2.64952e-15
3.05271e-15
-1.9766e-16
-6.90422e-13
-6.92543e-13
-6.92188e-13
-6.86014e-13
-6.80311e-13
-6.8064e-13
-6.78614e-13
-6.74792e-13
-6.74315e-13
-6.70061e-13
-6.66563e-13
-6.61701e-13
-6.53562e-13
-6.4406e-13
-6.35836e-13
-6.28331e-13
-6.22961e-13
-6.18337e-13
-6.0749e-13
-5.90595e-13
-5.71724e-13
-5.5794e-13
-5.54615e-13
-5.55285e-13
-5.52687e-13
-5.45021e-13
-5.3593e-13
-5.31693e-13
-5.25089e-13
-5.23857e-13
-5.20541e-13
-5.04957e-13
-4.91792e-13
-4.8319e-13
-4.74652e-13
-4.70026e-13
-4.65935e-13
-4.59456e-13
-4.53112e-13
-4.4476e-13
-4.35917e-13
-4.25846e-13
-4.17782e-13
-4.13073e-13
-4.11452e-13
-4.01843e-13
-3.94164e-13
-3.8182e-13
-3.78921e-13
-3.7128e-13
-3.59407e-13
-3.5436e-13
-3.48025e-13
-3.39585e-13
-3.31691e-13
-3.18345e-13
-3.06729e-13
-3.10536e-13
-3.14483e-13
-3.0569e-13
-2.95588e-13
-2.839e-13