/*--------------------------------*- C++ -*----------------------------------*\
| =========                 |                                                 |
| \\      /  F ield         | OpenFOAM: The Open Source CFD Toolbox           |
|  \\    /   O peration     | Version:  v2012                                 |
|   \\  /    A nd           | Website:  www.openfoam.com                      |
|    \\/     M anipulation  |                                                 |
\*---------------------------------------------------------------------------*/
FoamFile
{
    version     2.0;
    format      ascii;
    class       volVectorField;
    location    "0";
    object      uRec;
}
// * * * * * * * * * * * * * * * * * * * * * * * * * * * * * * * * * * * * * //

dimensions      [0 1 -1 0 0 0 0];


internalField   nonuniform List<vector> 
4000
(
(1 2.30837e-16 0)
(1 2.34127e-15 0)
(1 -6.51484e-16 0)
(1 -1.67155e-15 0)
(1 1.90156e-15 0)
(1 3.01742e-16 0)
(1 2.36046e-15 0)
(1 -2.24913e-15 0)
(1 1.54264e-16 0)
(1 2.58229e-15 0)
(1 -2.66734e-15 0)
(1 -1.65745e-16 0)
(1 1.03238e-15 0)
(1 2.18814e-16 0)
(1 -9.42175e-17 0)
(1 -4.54188e-16 0)
(1 -1.76126e-15 0)
(1 -2.30598e-15 0)
(1 7.7235e-16 0)
(1 -6.33605e-16 0)
(1 -1.15984e-16 0)
(1 1.93885e-15 0)
(1 8.44786e-16 0)
(1 2.6474e-15 0)
(1 2.26969e-16 0)
(1 -5.65384e-16 0)
(1 1.02245e-15 0)
(1 -1.78279e-15 0)
(1 -1.05953e-15 0)
(1 1.50182e-16 0)
(1 4.88502e-16 0)
(1 2.41133e-15 0)
(1 -1.04012e-15 0)
(1 1.35373e-16 0)
(1 1.69197e-15 0)
(1 -5.35754e-16 0)
(1 -6.04369e-16 0)
(1 7.72607e-16 0)
(1 2.56815e-15 0)
(1 -1.70647e-16 0)
(1 1.4082e-15 0)
(1 -1.76474e-15 0)
(1 -7.55344e-16 0)
(1 -6.07968e-16 0)
(1 1.1946e-15 0)
(1 -1.55538e-15 0)
(1 7.25074e-16 0)
(1 2.21839e-16 0)
(1 -4.50608e-16 0)
(1 2.61965e-16 0)
(1 -8.79423e-16 0)
(1 1.17509e-15 0)
(1 -9.02529e-17 0)
(1 1.87597e-15 0)
(1 8.471e-16 0)
(1 -5.52336e-17 0)
(1 -6.64617e-16 0)
(1 -5.74909e-16 0)
(1 1.1753e-15 0)
(1 3.6386e-15 0)
(1 4.82408e-16 0)
(1 -1.47895e-15 0)
(1 -5.75857e-16 0)
(1 5.25543e-16 0)
(1 1.39579e-16 0)
(1 -1.86673e-16 0)
(1 8.01205e-16 0)
(1 -8.00667e-16 0)
(1 1.26597e-15 0)
(1 -6.76924e-16 0)
(1 -6.94696e-16 0)
(1 5.17025e-17 0)
(1 4.94246e-16 0)
(1 -2.75259e-16 0)
(1 -6.13853e-16 0)
(1 -2.21023e-15 0)
(1 -4.01566e-16 0)
(1 -8.8508e-16 0)
(1 8.84995e-16 0)
(1 1.50786e-15 0)
(1 1.81803e-16 0)
(1 1.28062e-15 0)
(1 -7.85078e-16 0)
(1 1.72626e-16 0)
(1 -1.13381e-15 0)
(1 -9.84518e-16 0)
(1 -9.699e-16 0)
(1 7.04802e-16 0)
(1 1.45676e-15 0)
(1 7.7581e-16 0)
(1 1.77972e-16 0)
(1 -1.11388e-15 0)
(1 4.60822e-16 0)
(1 1.48285e-15 0)
(1 -1.42587e-15 0)
(1 -2.45052e-15 0)
(1 -1.65763e-16 0)
(1 2.06113e-15 0)
(1 1.65457e-16 0)
(1 -2.49308e-16 0)
(1 2.77609e-16 0)
(1 5.06838e-15 0)
(1 -6.69594e-16 0)
(1 -2.76401e-15 0)
(1 6.3499e-16 0)
(1 1.13935e-15 0)
(1 2.5788e-15 0)
(1 -3.167e-15 0)
(1 4.33174e-16 0)
(1 1.36379e-15 0)
(1 -8.17364e-16 0)
(1 1.14549e-15 0)
(1 1.72789e-15 0)
(1 -1.56397e-16 0)
(1 -9.64199e-16 0)
(1 5.48956e-16 0)
(1 -1.22018e-15 0)
(1 -8.63019e-16 0)
(1 1.58185e-15 0)
(1 -1.03548e-15 0)
(1 -5.28144e-16 0)
(1 5.54166e-16 0)
(1 -8.59795e-16 0)
(1 1.38777e-15 0)
(1 -6.37552e-16 0)
(1 7.53304e-16 0)
(1 2.82682e-15 0)
(1 -2.09839e-15 0)
(1 -1.93059e-15 0)
(1 1.31713e-15 0)
(1 -6.93929e-16 0)
(1 3.28464e-15 0)
(1 -1.34901e-15 0)
(1 -6.71075e-16 0)
(1 1.54029e-15 0)
(1 -1.18751e-15 0)
(1 8.13688e-17 0)
(1 2.95251e-15 0)
(1 2.47862e-15 0)
(1 -9.00382e-17 0)
(1 -8.49514e-16 0)
(1 -1.80841e-15 0)
(1 -3.24576e-15 0)
(1 -1.99897e-15 0)
(1 -7.29274e-16 0)
(1 -2.06839e-15 0)
(1 2.74107e-15 0)
(1 3.08443e-15 0)
(1 2.66957e-15 0)
(1 1.35224e-15 0)
(1 -6.45871e-17 0)
(1 3.61727e-17 0)
(1 2.8475e-15 0)
(1 1.63265e-15 0)
(1 1.5179e-15 0)
(1 -2.06256e-16 0)
(1 -4.37871e-16 0)
(1 2.06421e-15 0)
(1 8.80773e-17 0)
(1 -1.49802e-15 0)
(1 -2.39497e-16 0)
(1 6.41731e-16 0)
(1 -1.61406e-16 0)
(1 1.29379e-15 0)
(1 1.49691e-16 0)
(1 1.9425e-15 0)
(1 -1.18768e-15 0)
(1 -1.75583e-15 0)
(1 9.89782e-16 0)
(1 -7.72644e-16 0)
(1 -1.61963e-15 0)
(1 5.91951e-16 0)
(1 1.8574e-15 0)
(1 -1.09908e-15 0)
(1 -3.44044e-16 0)
(1 -3.81862e-16 0)
(1 2.08178e-16 0)
(1 1.89043e-15 0)
(1 3.38347e-16 0)
(1 2.2744e-15 0)
(1 -4.23202e-16 0)
(1 5.66583e-16 0)
(1 2.25534e-15 0)
(1 -8.88289e-16 0)
(1 2.96558e-16 0)
(1 -9.11041e-16 0)
(1 -2.52995e-15 0)
(1 -1.5492e-15 0)
(1 2.54235e-16 0)
(1 1.46267e-15 0)
(1 -3.01198e-16 0)
(1 -2.12858e-15 0)
(1 2.43099e-15 0)
(1 1.53196e-15 0)
(1 -3.32536e-15 0)
(1 -2.86326e-15 0)
(1 1.07049e-15 0)
(1 1.85724e-15 0)
(1 -1.24188e-16 0)
(1 -2.79565e-16 0)
(1 5.98606e-16 0)
(1 2.54324e-15 0)
(1 2.13457e-16 0)
(1 -7.02546e-16 0)
(1 -4.33182e-16 0)
(1 1.00686e-15 0)
(1 1.80116e-15 0)
(1 4.44919e-15 0)
(1 -1.99357e-15 0)
(1 -1.73867e-15 0)
(1 3.30918e-16 0)
(1 3.43424e-15 0)
(1 2.80433e-15 0)
(1 -6.09654e-16 0)
(1 -3.62232e-16 0)
(1 -4.68281e-16 0)
(1 2.65049e-16 0)
(1 6.97829e-16 0)
(1 4.12795e-16 0)
(1 2.13971e-15 0)
(1 5.70746e-17 0)
(1 -4.03377e-16 0)
(1 -4.71378e-16 0)
(1 1.602e-16 0)
(1 2.0854e-15 0)
(1 3.28615e-15 0)
(1 2.32389e-15 0)
(1 -2.00096e-15 0)
(1 -1.7801e-15 0)
(1 7.94307e-16 0)
(1 1.12616e-15 0)
(1 -1.66829e-15 0)
(1 7.28494e-16 0)
(1 1.51301e-15 0)
(1 1.09571e-16 0)
(1 1.45582e-16 0)
(1 -8.01315e-16 0)
(1 2.12959e-15 0)
(1 2.58659e-15 0)
(1 -8.07245e-16 0)
(1 -1.85949e-15 0)
(1 -1.60112e-16 0)
(1 -2.74019e-15 0)
(1 -3.12185e-15 0)
(1 -2.12608e-15 0)
(1 -5.72346e-16 0)
(1 -8.87698e-16 0)
(1 2.84128e-15 0)
(1 4.3433e-15 0)
(1 3.30781e-15 0)
(1 2.53011e-15 0)
(1 1.49421e-15 0)
(1 4.34931e-15 0)
(1 -6.19316e-16 0)
(1 1.25921e-15 0)
(1 -1.05802e-15 0)
(1 1.02118e-15 0)
(1 1.91772e-15 0)
(1 2.41503e-15 0)
(1 -9.68821e-16 0)
(1 -8.61058e-16 0)
(1 9.99777e-16 0)
(1 1.43222e-15 0)
(1 -1.29876e-15 0)
(1 -4.63067e-16 0)
(1 1.17616e-15 0)
(1 -7.73609e-16 0)
(1 7.49668e-16 0)
(1 1.54855e-15 0)
(1 7.7239e-16 0)
(1 9.98484e-16 0)
(1 1.60011e-15 0)
(1 4.76434e-16 0)
(1 -2.3628e-15 0)
(1 -1.36302e-15 0)
(1 -2.52647e-16 0)
(1 -6.56889e-17 0)
(1 1.16458e-15 0)
(1 1.38093e-15 0)
(1 -6.51012e-16 0)
(1 -1.91213e-15 0)
(1 -1.10062e-15 0)
(1 1.58751e-15 0)
(1 -4.80546e-16 0)
(1 1.14732e-16 0)
(1 3.43128e-16 0)
(1 -2.04508e-15 0)
(1 -2.23718e-15 0)
(1 -8.97149e-16 0)
(1 1.51248e-15 0)
(1 2.96768e-16 0)
(1 -6.68958e-16 0)
(1 -7.9049e-17 0)
(1 1.00649e-15 0)
(1 -1.4341e-15 0)
(1 -1.60188e-15 0)
(1 1.45567e-15 0)
(1 -1.61427e-15 0)
(1 1.68985e-16 0)
(1 5.32955e-16 0)
(1 4.033e-16 0)
(1 2.36123e-15 0)
(1 2.11014e-15 0)
(1 -5.68105e-16 0)
(1 2.5339e-16 0)
(1 -1.56501e-15 0)
(1 1.06083e-15 0)
(1 5.91783e-15 0)
(1 6.92499e-16 0)
(1 -7.487e-17 0)
(1 -7.22109e-16 0)
(1 5.77079e-15 0)
(1 6.34876e-16 0)
(1 -2.37379e-15 0)
(1 2.99366e-15 0)
(1 -2.07029e-15 0)
(1 6.5885e-16 0)
(1 -2.16983e-15 0)
(1 -3.09651e-15 0)
(1 5.22905e-15 0)
(1 -3.93794e-16 0)
(1 2.08835e-15 0)
(1 1.45589e-15 0)
(1 1.10729e-15 0)
(1 4.61118e-15 0)
(1 2.89427e-15 0)
(1 1.34842e-15 0)
(1 -5.02464e-16 0)
(1 -1.45945e-15 0)
(1 1.83223e-15 0)
(1 -3.5604e-16 0)
(1 -6.05689e-16 0)
(1 -6.97938e-17 0)
(1 2.84517e-15 0)
(1 1.83143e-15 0)
(1 6.93225e-16 0)
(1 -1.25373e-15 0)
(1 -9.58091e-16 0)
(1 2.28634e-15 0)
(1 1.29884e-15 0)
(1 1.36995e-15 0)
(1 -9.61519e-16 0)
(1 -2.75159e-15 0)
(1 -2.68142e-15 0)
(1 -5.3258e-16 0)
(1 1.01562e-15 0)
(1 -4.38354e-16 0)
(1 1.7728e-15 0)
(1 4.07775e-15 0)
(1 3.64814e-15 0)
(1 4.03837e-15 0)
(1 2.21962e-15 0)
(1 1.75317e-15 0)
(1 9.15415e-16 0)
(1 1.38291e-15 0)
(1 -2.82616e-16 0)
(1 1.2549e-15 0)
(1 2.11232e-15 0)
(1 2.19972e-15 0)
(1 3.83009e-15 0)
(1 9.84156e-16 0)
(1 -6.03921e-16 0)
(1 -5.73807e-16 0)
(1 3.68517e-16 0)
(1 -1.87978e-15 0)
(1 -4.68348e-16 0)
(1 -1.49888e-15 0)
(1 3.20319e-15 0)
(1 1.08723e-15 0)
(1 8.22945e-16 0)
(1 1.53416e-15 0)
(1 6.6425e-16 0)
(1 -1.02904e-16 0)
(1 -1.3693e-15 0)
(1 -2.73889e-15 0)
(1 -1.00027e-15 0)
(1 1.81032e-15 0)
(1 1.7885e-16 0)
(1 1.56445e-15 0)
(1 2.54239e-15 0)
(1 -2.13116e-15 0)
(1 9.18263e-16 0)
(1 -1.33203e-16 0)
(1 3.15753e-16 0)
(1 6.7883e-16 0)
(1 -1.13969e-15 0)
(1 -2.43e-16 0)
(1 -1.70783e-15 0)
(1 5.49519e-17 0)
(1 4.4267e-16 0)
(1 -8.94446e-16 0)
(1 4.25745e-16 0)
(1 -5.79155e-16 0)
(1 8.94117e-16 0)
(1 7.65079e-16 0)
(1 -6.85455e-16 0)
(1 -2.97554e-16 0)
(1 -6.49466e-16 0)
(1 -1.57559e-15 0)
(1 -1.18346e-15 0)
(1 7.2216e-16 0)
(1 9.45639e-17 0)
(1 1.60485e-15 0)
(1 -9.44437e-16 0)
(1 -3.20158e-18 0)
(1 1.34457e-15 0)
(1 4.28756e-16 0)
(1 5.87401e-16 0)
(1 5.79937e-15 0)
(1 3.06679e-15 0)
(1 2.48822e-15 0)
(1 3.16967e-15 0)
(1 -1.32399e-15 0)
(1 -3.7687e-15 0)
(1 1.30655e-15 0)
(1 1.08086e-15 0)
(1 3.99243e-15 0)
(1 2.5911e-15 0)
(1 2.25359e-16 0)
(1 -9.88002e-16 0)
(1 -1.01018e-15 0)
(1 -1.27176e-15 0)
(1 3.32544e-15 0)
(1 5.01337e-15 0)
(1 1.88383e-15 0)
(1 1.99018e-16 0)
(1 -7.07404e-16 0)
(1 5.33592e-16 0)
(1 7.94824e-16 0)
(1 -1.34836e-15 0)
(1 1.22141e-15 0)
(1 2.15394e-15 0)
(1 -1.04072e-15 0)
(1 2.5189e-15 0)
(1 -1.22291e-15 0)
(1 -1.65497e-15 0)
(1 -9.81548e-16 0)
(1 -3.84691e-16 0)
(1 1.06985e-15 0)
(1 2.47904e-15 0)
(1 1.38913e-15 0)
(1 -1.59133e-16 0)
(1 -3.6246e-15 0)
(1 -6.84022e-16 0)
(1 -2.81051e-15 0)
(1 1.1042e-15 0)
(1 3.50963e-15 0)
(1 4.87076e-15 0)
(1 3.72888e-15 0)
(1 1.6553e-15 0)
(1 3.99187e-15 0)
(1 9.63206e-16 0)
(1 8.83625e-16 0)
(1 2.47391e-15 0)
(1 3.02641e-15 0)
(1 3.05843e-15 0)
(1 1.3821e-15 0)
(1 1.95454e-15 0)
(1 -1.3831e-15 0)
(1 -2.22298e-15 0)
(1 2.66522e-15 0)
(1 4.72594e-16 0)
(1 1.20392e-15 0)
(1 7.30448e-16 0)
(1 1.30887e-16 0)
(1 -3.40412e-16 0)
(1 -9.83549e-16 0)
(1 2.39222e-15 0)
(1 1.32765e-16 0)
(1 2.38552e-15 0)
(1 9.45921e-16 0)
(1 8.73511e-16 0)
(1 2.33466e-15 0)
(1 1.58017e-16 0)
(1 -1.36545e-15 0)
(1 -2.4806e-16 0)
(1 1.81615e-15 0)
(1 3.33388e-15 0)
(1 1.48524e-15 0)
(1 3.53689e-16 0)
(1 -9.02322e-16 0)
(1 5.1877e-16 0)
(1 1.3043e-16 0)
(1 -7.59051e-16 0)
(1 1.07077e-15 0)
(1 -2.44409e-15 0)
(1 -1.76758e-16 0)
(1 -1.00579e-15 0)
(1 -1.94311e-15 0)
(1 -3.0029e-16 0)
(1 -1.07452e-15 0)
(1 -6.15399e-16 0)
(1 1.1753e-15 0)
(1 -2.32615e-16 0)
(1 1.53346e-15 0)
(1 4.75909e-16 0)
(1 -1.09635e-15 0)
(1 -7.43873e-17 0)
(1 -3.17513e-15 0)
(1 -1.53604e-15 0)
(1 -1.67292e-16 0)
(1 -2.76815e-15 0)
(1 1.42869e-15 0)
(1 1.6538e-15 0)
(1 5.38228e-16 0)
(1 2.44474e-15 0)
(1 1.06212e-15 0)
(1 1.93321e-15 0)
(1 3.28214e-15 0)
(1 3.79197e-15 0)
(1 6.13143e-15 0)
(1 1.27266e-15 0)
(1 -2.39344e-15 0)
(1 1.17514e-15 0)
(1 5.31066e-16 0)
(1 8.09942e-16 0)
(1 3.13938e-16 0)
(1 3.42186e-16 0)
(1 1.70645e-15 0)
(1 -9.97565e-16 0)
(1 1.71149e-15 0)
(1 -1.85892e-15 0)
(1 4.49977e-15 0)
(1 3.0981e-15 0)
(1 -2.57125e-16 0)
(1 2.62595e-15 0)
(1 6.80802e-16 0)
(1 -1.64026e-15 0)
(1 4.10361e-17 0)
(1 -1.14872e-15 0)
(1 1.87118e-16 0)
(1 -2.7596e-16 0)
(1 1.18487e-15 0)
(1 1.6479e-15 0)
(1 -2.57625e-15 0)
(1 1.3591e-15 0)
(1 3.68687e-15 0)
(1 3.15823e-15 0)
(1 4.86938e-16 0)
(1 -1.52827e-15 0)
(1 1.57014e-15 0)
(1 -2.23755e-16 0)
(1 -1.58841e-15 0)
(1 -1.79906e-15 0)
(1 -1.81874e-16 0)
(1 1.47411e-15 0)
(1 8.8437e-16 0)
(1 3.63325e-15 0)
(1 3.70471e-15 0)
(1 4.16528e-15 0)
(1 2.04674e-15 0)
(1 1.75704e-15 0)
(1 2.75868e-15 0)
(1 3.43254e-15 0)
(1 2.42642e-15 0)
(1 2.69762e-15 0)
(1 3.45528e-15 0)
(1 3.20047e-15 0)
(1 2.8828e-15 0)
(1 2.91091e-15 0)
(1 2.93356e-15 0)
(1 -9.71594e-16 0)
(1 1.09025e-16 0)
(1 -1.5319e-15 0)
(1 1.12899e-15 0)
(1 3.05916e-16 0)
(1 4.16096e-15 0)
(1 2.55448e-15 0)
(1 2.23088e-15 0)
(1 2.39938e-15 0)
(1 2.41834e-15 0)
(1 2.07887e-15 0)
(1 2.53438e-15 0)
(1 -2.03292e-16 0)
(1 -2.24083e-15 0)
(1 -1.38259e-15 0)
(1 2.4036e-16 0)
(1 4.04407e-15 0)
(1 1.15164e-15 0)
(1 -2.02179e-15 0)
(1 -4.12283e-16 0)
(1 1.341e-15 0)
(1 -1.0475e-15 0)
(1 5.14878e-16 0)
(1 -3.08342e-16 0)
(1 -1.68222e-15 0)
(1 -8.20508e-16 0)
(1 -2.80642e-15 0)
(1 -2.60111e-15 0)
(1 -5.4857e-16 0)
(1 -3.35567e-16 0)
(1 -6.4623e-16 0)
(1 1.47675e-15 0)
(1 2.04722e-15 0)
(1 3.4955e-15 0)
(1 2.20353e-15 0)
(1 1.53649e-16 0)
(1 -2.14636e-15 0)
(1 -4.31911e-16 0)
(1 9.83548e-16 0)
(1 -1.14977e-15 0)
(1 -5.24232e-16 0)
(1 3.26778e-15 0)
(1 -2.14227e-16 0)
(1 3.00047e-15 0)
(1 -7.88931e-16 0)
(1 -1.43003e-16 0)
(1 3.88919e-15 0)
(1 1.72614e-15 0)
(1 2.07973e-15 0)
(1 5.09055e-15 0)
(1 1.82492e-16 0)
(1 7.27588e-16 0)
(1 3.77082e-15 0)
(1 1.11052e-15 0)
(1 4.81979e-15 0)
(1 3.42056e-15 0)
(1 -2.56477e-16 0)
(1 1.0813e-15 0)
(1 2.14179e-15 0)
(1 2.71858e-15 0)
(1 -4.38548e-15 0)
(1 2.62277e-15 0)
(1 -9.07909e-16 0)
(1 5.79725e-16 0)
(1 5.92244e-16 0)
(1 -8.04479e-16 0)
(1 -8.30293e-16 0)
(1 6.0003e-16 0)
(1 3.40418e-15 0)
(1 -4.7911e-16 0)
(1 1.05374e-15 0)
(1 1.87252e-15 0)
(1 -5.71545e-16 0)
(1 -1.06905e-15 0)
(1 3.14757e-15 0)
(1 4.69381e-15 0)
(1 2.01611e-15 0)
(1 -2.908e-15 0)
(1 -1.43297e-15 0)
(1 7.48825e-16 0)
(1 -2.37825e-15 0)
(1 1.88103e-15 0)
(1 -7.97766e-16 0)
(1 2.10125e-15 0)
(1 1.5007e-15 0)
(1 2.01985e-15 0)
(1 1.35358e-15 0)
(1 2.50116e-15 0)
(1 6.05155e-15 0)
(1 2.3389e-15 0)
(1 1.50803e-15 0)
(1 2.63444e-15 0)
(1 5.28855e-15 0)
(1 2.78694e-15 0)
(1 1.19451e-15 0)
(1 1.37441e-15 0)
(1 3.07659e-15 0)
(1 3.62101e-15 0)
(1 4.1158e-15 0)
(1 -4.12105e-16 0)
(1 5.93959e-16 0)
(1 -2.81063e-16 0)
(1 7.88534e-16 0)
(1 -1.266e-16 0)
(1 -9.24295e-16 0)
(1 -4.44118e-16 0)
(1 2.90237e-15 0)
(1 2.79553e-15 0)
(1 1.79524e-16 0)
(1 3.08166e-15 0)
(1 3.3989e-15 0)
(1 6.56506e-16 0)
(1 1.10602e-16 0)
(1 4.50479e-16 0)
(1 2.19305e-15 0)
(1 1.16327e-15 0)
(1 1.89209e-15 0)
(1 1.27859e-15 0)
(1 6.65701e-16 0)
(1 8.94254e-16 0)
(1 8.53991e-16 0)
(1 3.80734e-16 0)
(1 1.92115e-17 0)
(1 -4.55974e-16 0)
(1 2.82382e-16 0)
(1 -9.4498e-16 0)
(1 -7.17257e-16 0)
(1 6.27975e-16 0)
(1 -1.37287e-15 0)
(1 -6.84491e-16 0)
(1 8.78653e-16 0)
(1 1.95737e-15 0)
(1 2.22524e-15 0)
(1 1.31334e-15 0)
(1 2.96659e-15 0)
(1 -1.74314e-16 0)
(1 -1.17901e-15 0)
(1 1.26784e-15 0)
(1 7.04978e-16 0)
(1 -6.65994e-16 0)
(1 -1.55359e-16 0)
(1 1.18145e-15 0)
(1 7.99353e-18 0)
(1 3.1187e-15 0)
(1 7.87325e-16 0)
(1 -3.16393e-16 0)
(1 1.53658e-15 0)
(1 4.51467e-15 0)
(1 6.34196e-15 0)
(1 2.65219e-15 0)
(1 -2.86375e-15 0)
(1 2.96681e-15 0)
(1 4.32326e-16 0)
(1 1.07776e-15 0)
(1 5.33901e-15 0)
(1 1.92248e-15 0)
(1 6.49092e-15 0)
(1 4.13974e-15 0)
(1 -1.59518e-15 0)
(1 -1.75452e-15 0)
(1 -3.46097e-15 0)
(1 -2.09564e-15 0)
(1 1.10277e-15 0)
(1 1.48918e-15 0)
(1 -3.02885e-15 0)
(1 -2.55619e-15 0)
(1 8.16161e-16 0)
(1 -2.68225e-17 0)
(1 1.76163e-15 0)
(1 5.37592e-15 0)
(1 1.64854e-15 0)
(1 3.79355e-16 0)
(1 -1.72617e-15 0)
(1 -6.89609e-16 0)
(1 -6.78583e-16 0)
(1 -1.23524e-15 0)
(1 8.11165e-16 0)
(1 1.07948e-15 0)
(1 4.68837e-15 0)
(1 -7.1318e-16 0)
(1 -9.77883e-17 0)
(1 4.08558e-15 0)
(1 1.1088e-15 0)
(1 1.40568e-16 0)
(1 2.69215e-15 0)
(1 4.11316e-15 0)
(1 4.24838e-15 0)
(1 5.98542e-17 0)
(1 2.3154e-15 0)
(1 4.59731e-15 0)
(1 3.48135e-15 0)
(1 3.80792e-16 0)
(1 4.14362e-15 0)
(1 5.58686e-15 0)
(1 5.68476e-15 0)
(1 2.14687e-15 0)
(1 -3.66077e-16 0)
(1 5.21e-15 0)
(1 9.36816e-16 0)
(1 -2.13364e-15 0)
(1 1.43254e-15 0)
(1 2.78763e-15 0)
(1 2.51687e-15 0)
(1 3.72274e-16 0)
(1 2.11339e-15 0)
(1 2.33531e-15 0)
(1 -4.73729e-16 0)
(1 2.65764e-15 0)
(1 2.47952e-15 0)
(1 4.33332e-15 0)
(1 3.68405e-15 0)
(1 1.68604e-15 0)
(1 2.32212e-16 0)
(1 1.07755e-15 0)
(1 4.16034e-15 0)
(1 2.22203e-15 0)
(1 -4.13773e-16 0)
(1 -2.48701e-16 0)
(1 -1.62716e-15 0)
(1 1.13365e-15 0)
(1 -1.3561e-15 0)
(1 5.07099e-16 0)
(1 1.36146e-15 0)
(1 -3.58408e-15 0)
(1 -5.10786e-16 0)
(1 -1.34137e-17 0)
(1 1.46997e-15 0)
(1 1.11847e-15 0)
(1 -4.02677e-15 0)
(1 -2.15081e-15 0)
(1 1.06107e-15 0)
(1 6.7123e-16 0)
(1 2.44731e-15 0)
(1 2.54089e-15 0)
(1 2.95332e-15 0)
(1 -1.23319e-15 0)
(1 -6.32621e-16 0)
(1 1.27093e-15 0)
(1 1.65412e-15 0)
(1 -2.09191e-16 0)
(1 8.50958e-16 0)
(1 -1.03553e-15 0)
(1 5.79662e-16 0)
(1 -5.20548e-16 0)
(1 3.02816e-15 0)
(1 3.90175e-16 0)
(1 -1.05951e-15 0)
(1 3.37174e-15 0)
(1 5.0054e-15 0)
(1 3.10502e-15 0)
(1 3.06822e-15 0)
(1 2.21859e-15 0)
(1 2.64624e-15 0)
(1 2.44118e-15 0)
(1 2.72559e-15 0)
(1 2.43962e-15 0)
(1 4.57154e-15 0)
(1 4.25205e-15 0)
(1 -1.39689e-15 0)
(1 -4.70292e-15 0)
(1 1.30558e-15 0)
(1 -2.38714e-15 0)
(1 9.52484e-17 0)
(1 8.00454e-16 0)
(1 -2.32935e-15 0)
(1 2.40965e-16 0)
(1 -3.21921e-15 0)
(1 -2.05606e-15 0)
(1 1.86236e-15 0)
(1 3.45677e-15 0)
(1 -3.12624e-16 0)
(1 1.94188e-15 0)
(1 1.31843e-15 0)
(1 -3.78408e-16 0)
(1 -1.32314e-16 0)
(1 -1.29538e-15 0)
(1 2.18786e-15 0)
(1 1.92558e-15 0)
(1 3.26545e-15 0)
(1 -1.46983e-15 0)
(1 1.74797e-15 0)
(1 2.75534e-15 0)
(1 1.79312e-15 0)
(1 4.06068e-15 0)
(1 1.11984e-15 0)
(1 2.70747e-15 0)
(1 2.71631e-15 0)
(1 -7.87743e-16 0)
(1 2.62221e-16 0)
(1 3.75948e-15 0)
(1 5.26771e-15 0)
(1 2.50421e-15 0)
(1 4.34151e-15 0)
(1 6.49957e-15 0)
(1 5.6608e-15 0)
(1 5.37349e-15 0)
(1 1.21974e-15 0)
(1 5.36135e-15 0)
(1 9.97568e-16 0)
(1 2.38535e-15 0)
(1 1.95469e-15 0)
(1 -8.46339e-16 0)
(1 2.38766e-15 0)
(1 -2.97119e-15 0)
(1 2.322e-15 0)
(1 5.00465e-15 0)
(1 -5.98444e-16 0)
(1 5.72856e-15 0)
(1 5.60067e-15 0)
(1 5.7161e-15 0)
(1 1.56205e-15 0)
(1 2.61814e-15 0)
(1 1.24805e-15 0)
(1 -4.42844e-16 0)
(1 2.38578e-15 0)
(1 1.20101e-15 0)
(1 -3.08507e-16 0)
(1 -2.16277e-15 0)
(1 1.90674e-15 0)
(1 2.19735e-15 0)
(1 2.95281e-15 0)
(1 -4.30444e-16 0)
(1 1.58374e-15 0)
(1 -2.98718e-15 0)
(1 -2.61492e-15 0)
(1 -2.38742e-15 0)
(1 -6.83773e-16 0)
(1 -6.57616e-16 0)
(1 -6.66387e-16 0)
(1 -6.27713e-16 0)
(1 6.87727e-16 0)
(1 2.34148e-15 0)
(1 4.25512e-15 0)
(1 5.1679e-15 0)
(1 3.53361e-15 0)
(1 1.09923e-15 0)
(1 -7.46566e-16 0)
(1 3.11496e-15 0)
(1 3.96515e-15 0)
(1 4.51575e-16 0)
(1 6.93967e-16 0)
(1 5.82088e-16 0)
(1 -2.86898e-17 0)
(1 1.07216e-15 0)
(1 8.11211e-16 0)
(1 2.21938e-15 0)
(1 2.32438e-15 0)
(1 2.57222e-15 0)
(1 2.86729e-15 0)
(1 1.4836e-15 0)
(1 7.58142e-15 0)
(1 3.57406e-15 0)
(1 1.91597e-15 0)
(1 3.15484e-15 0)
(1 9.76268e-16 0)
(1 1.4245e-15 0)
(1 1.74943e-15 0)
(1 1.29883e-15 0)
(1 1.27279e-15 0)
(1 -2.01775e-15 0)
(1 1.66728e-16 0)
(1 -1.72594e-15 0)
(1 -1.53482e-15 0)
(1 1.23386e-15 0)
(1 1.35154e-15 0)
(1 -8.12402e-16 0)
(1 -3.75613e-15 0)
(1 2.2067e-16 0)
(1 -1.00935e-15 0)
(1 -1.10104e-15 0)
(1 2.62287e-15 0)
(1 2.53955e-15 0)
(1 2.21195e-15 0)
(1 2.42275e-15 0)
(1 -9.80091e-17 0)
(1 -2.32297e-15 0)
(1 -1.93966e-15 0)
(1 -1.31575e-15 0)
(1 -9.11136e-16 0)
(1 -3.23126e-16 0)
(1 3.404e-15 0)
(1 2.48861e-15 0)
(1 4.0952e-15 0)
(1 5.80337e-15 0)
(1 2.56556e-15 0)
(1 1.39003e-15 0)
(1 8.26566e-16 0)
(1 3.15763e-15 0)
(1 3.75843e-15 0)
(1 2.0387e-15 0)
(1 9.42326e-16 0)
(1 3.43465e-15 0)
(1 5.52335e-15 0)
(1 6.68266e-15 0)
(1 4.79524e-15 0)
(1 2.6538e-15 0)
(1 8.6886e-16 0)
(1 2.63643e-15 0)
(1 2.7815e-15 0)
(1 4.09737e-15 0)
(1 6.06623e-15 0)
(1 3.18844e-15 0)
(1 1.97802e-15 0)
(1 2.70156e-15 0)
(1 -9.61055e-17 0)
(1 2.57338e-15 0)
(1 2.65675e-15 0)
(1 3.46677e-15 0)
(1 3.71855e-15 0)
(1 4.4102e-15 0)
(1 3.2093e-15 0)
(1 1.76426e-15 0)
(1 1.0451e-15 0)
(1 1.1859e-15 0)
(1 1.64999e-15 0)
(1 2.52462e-15 0)
(1 -5.56226e-16 0)
(1 1.2172e-16 0)
(1 5.20998e-16 0)
(1 1.60128e-15 0)
(1 8.50989e-16 0)
(1 -4.43232e-16 0)
(1 1.72758e-17 0)
(1 -1.22304e-15 0)
(1 -2.79759e-15 0)
(1 -7.96134e-16 0)
(1 -4.50607e-16 0)
(1 -1.32474e-15 0)
(1 -2.78015e-16 0)
(1 2.9951e-15 0)
(1 -9.2019e-16 0)
(1 3.63536e-15 0)
(1 -1.11039e-15 0)
(1 5.18634e-15 0)
(1 2.63495e-15 0)
(1 1.12512e-15 0)
(1 3.42399e-15 0)
(1 4.26578e-15 0)
(1 3.75668e-15 0)
(1 3.40385e-16 0)
(1 -1.21499e-15 0)
(1 1.50152e-15 0)
(1 2.50399e-15 0)
(1 7.15948e-16 0)
(1 -1.13956e-15 0)
(1 3.35335e-15 0)
(1 2.92823e-15 0)
(1 3.93872e-15 0)
(1 2.9127e-15 0)
(1 -1.09725e-15 0)
(1 4.58496e-15 0)
(1 1.29152e-15 0)
(1 3.33812e-15 0)
(1 2.05515e-15 0)
(1 -5.08226e-16 0)
(1 -1.26661e-17 0)
(1 1.3459e-15 0)
(1 3.22003e-15 0)
(1 2.48196e-15 0)
(1 -1.79519e-15 0)
(1 -3.90915e-16 0)
(1 -3.4841e-15 0)
(1 -6.69707e-16 0)
(1 -4.17167e-15 0)
(1 5.00203e-15 0)
(1 4.56135e-15 0)
(1 2.75864e-15 0)
(1 2.41615e-15 0)
(1 -4.35617e-15 0)
(1 -3.56228e-15 0)
(1 -7.91545e-17 0)
(1 -3.69283e-16 0)
(1 -2.89574e-16 0)
(1 3.09104e-15 0)
(1 -7.82851e-16 0)
(1 -2.15829e-16 0)
(1 -4.26491e-15 0)
(1 -1.433e-15 0)
(1 -4.81511e-16 0)
(1 4.99552e-15 0)
(1 3.58949e-15 0)
(1 1.12267e-15 0)
(1 2.44165e-15 0)
(1 3.73988e-15 0)
(1 3.67347e-15 0)
(1 2.08865e-15 0)
(1 2.1116e-15 0)
(1 6.4271e-15 0)
(1 3.7654e-15 0)
(1 5.78859e-16 0)
(1 1.13212e-15 0)
(1 4.74013e-15 0)
(1 6.1909e-15 0)
(1 6.74491e-15 0)
(1 4.91194e-15 0)
(1 5.76366e-15 0)
(1 1.81704e-15 0)
(1 5.36594e-15 0)
(1 2.81645e-15 0)
(1 3.66169e-15 0)
(1 2.45561e-15 0)
(1 2.9856e-15 0)
(1 9.4744e-16 0)
(1 4.54305e-15 0)
(1 4.42595e-15 0)
(1 1.99963e-15 0)
(1 3.75404e-15 0)
(1 -5.64359e-16 0)
(1 8.24677e-16 0)
(1 3.13864e-15 0)
(1 3.20306e-15 0)
(1 1.70348e-15 0)
(1 1.69472e-15 0)
(1 -3.94603e-16 0)
(1 -2.33033e-15 0)
(1 3.62253e-15 0)
(1 1.97189e-15 0)
(1 -8.88069e-16 0)
(1 -1.28226e-15 0)
(1 2.05839e-15 0)
(1 5.46776e-16 0)
(1 5.08707e-15 0)
(1 -5.76344e-16 0)
(1 -1.5687e-15 0)
(1 -6.48998e-16 0)
(1 2.04705e-16 0)
(1 -1.79629e-15 0)
(1 -1.85456e-15 0)
(1 -2.91336e-15 0)
(1 3.21848e-15 0)
(1 2.22426e-16 0)
(1 7.56636e-16 0)
(1 6.18413e-16 0)
(1 1.73045e-15 0)
(1 2.87613e-15 0)
(1 2.04758e-15 0)
(1 5.83201e-15 0)
(1 1.88665e-15 0)
(1 1.64353e-15 0)
(1 -1.94143e-16 0)
(1 2.28026e-16 0)
(1 1.36189e-15 0)
(1 2.72588e-15 0)
(1 -9.6675e-16 0)
(1 9.85213e-16 0)
(1 -7.59707e-16 0)
(1 1.99356e-15 0)
(1 3.00778e-15 0)
(1 3.8168e-15 0)
(1 4.06395e-15 0)
(1 1.45192e-16 0)
(1 -1.5419e-15 0)
(1 2.02291e-15 0)
(1 2.50565e-15 0)
(1 2.69956e-15 0)
(1 3.05787e-15 0)
(1 5.64244e-16 0)
(1 2.61427e-15 0)
(1 2.10451e-15 0)
(1 -4.48586e-16 0)
(1 3.30245e-16 0)
(1 -1.66389e-15 0)
(1 -2.44248e-15 0)
(1 -1.01162e-15 0)
(1 -1.28436e-15 0)
(1 2.70257e-15 0)
(1 2.01197e-15 0)
(1 1.90472e-15 0)
(1 -1.35071e-15 0)
(1 3.40355e-16 0)
(1 1.44683e-15 0)
(1 -1.81714e-15 0)
(1 -2.683e-15 0)
(1 -3.12992e-15 0)
(1 -8.52145e-16 0)
(1 2.26503e-15 0)
(1 -3.79155e-15 0)
(1 -8.14903e-16 0)
(1 5.58792e-18 0)
(1 4.09156e-15 0)
(1 1.31388e-15 0)
(1 -1.52045e-15 0)
(1 1.43938e-15 0)
(1 5.97239e-15 0)
(1 4.30987e-15 0)
(1 5.57058e-15 0)
(1 2.12221e-15 0)
(1 2.4608e-15 0)
(1 4.04825e-15 0)
(1 1.35476e-15 0)
(1 3.74666e-15 0)
(1 4.81771e-15 0)
(1 6.4062e-15 0)
(1 6.16474e-15 0)
(1 3.86757e-16 0)
(1 2.96928e-15 0)
(1 4.31149e-15 0)
(1 4.57369e-15 0)
(1 3.00464e-15 0)
(1 4.72499e-15 0)
(1 2.97547e-15 0)
(1 4.71161e-15 0)
(1 3.98294e-15 0)
(1 6.15963e-16 0)
(1 1.97107e-15 0)
(1 1.32875e-15 0)
(1 2.57757e-15 0)
(1 2.54224e-15 0)
(1 5.8628e-16 0)
(1 4.11917e-15 0)
(1 2.5563e-15 0)
(1 -1.06871e-15 0)
(1 1.7634e-15 0)
(1 2.67049e-15 0)
(1 -2.35029e-16 0)
(1 1.28495e-15 0)
(1 -7.00714e-16 0)
(1 -1.74144e-15 0)
(1 5.25482e-16 0)
(1 3.82482e-15 0)
(1 1.63915e-15 0)
(1 2.32804e-15 0)
(1 -1.85172e-15 0)
(1 -1.04443e-15 0)
(1 1.76699e-15 0)
(1 -2.35839e-15 0)
(1 -2.35963e-15 0)
(1 -1.80999e-15 0)
(1 3.049e-15 0)
(1 2.12888e-15 0)
(1 2.08966e-15 0)
(1 -9.20479e-16 0)
(1 2.59882e-15 0)
(1 1.77027e-17 0)
(1 3.66363e-15 0)
(1 3.98837e-15 0)
(1 3.75368e-15 0)
(1 1.32417e-15 0)
(1 3.59596e-16 0)
(1 1.0525e-15 0)
(1 5.81666e-16 0)
(1 4.05759e-16 0)
(1 1.04727e-15 0)
(1 2.17834e-15 0)
(1 2.31676e-15 0)
(1 2.07396e-15 0)
(1 2.27822e-15 0)
(1 2.14878e-16 0)
(1 5.126e-15 0)
(1 7.94021e-15 0)
(1 3.04569e-15 0)
(1 -3.02233e-16 0)
(1 -9.9839e-16 0)
(1 9.69533e-16 0)
(1 -7.24009e-16 0)
(1 -1.58094e-15 0)
(1 -1.18314e-15 0)
(1 1.30496e-15 0)
(1 8.34229e-16 0)
(1 3.23392e-15 0)
(1 3.39157e-15 0)
(1 5.53265e-16 0)
(1 -6.4578e-15 0)
(1 5.57421e-15 0)
(1 -1.22392e-15 0)
(1 -3.77269e-15 0)
(1 -9.71315e-16 0)
(1 -1.34348e-15 0)
(1 1.93753e-15 0)
(1 -6.38275e-16 0)
(1 2.47118e-15 0)
(1 -2.40728e-15 0)
(1 -2.06515e-15 0)
(1 7.11803e-16 0)
(1 1.75913e-16 0)
(1 8.12727e-16 0)
(1 -2.43226e-15 0)
(1 -4.60766e-16 0)
(1 2.01194e-15 0)
(1 3.59545e-16 0)
(1 1.83446e-15 0)
(1 -2.2863e-15 0)
(1 2.46328e-15 0)
(1 1.96092e-15 0)
(1 5.39071e-15 0)
(1 7.0485e-15 0)
(1 3.70209e-15 0)
(1 2.6938e-16 0)
(1 2.41909e-15 0)
(1 2.68336e-15 0)
(1 3.00655e-15 0)
(1 6.92752e-15 0)
(1 7.22174e-15 0)
(1 4.47873e-15 0)
(1 4.62076e-15 0)
(1 1.64946e-15 0)
(1 6.20861e-15 0)
(1 -3.79909e-17 0)
(1 2.86544e-15 0)
(1 2.07238e-15 0)
(1 4.47788e-15 0)
(1 5.069e-15 0)
(1 5.52211e-15 0)
(1 3.2676e-15 0)
(1 1.12153e-15 0)
(1 2.91447e-15 0)
(1 2.21831e-15 0)
(1 6.84857e-16 0)
(1 1.13847e-15 0)
(1 -9.71093e-16 0)
(1 2.14062e-15 0)
(1 1.97101e-15 0)
(1 1.57074e-15 0)
(1 2.41861e-15 0)
(1 1.57694e-15 0)
(1 -1.2075e-15 0)
(1 -1.43024e-15 0)
(1 3.17038e-15 0)
(1 1.52856e-15 0)
(1 -9.38652e-16 0)
(1 -1.64891e-15 0)
(1 -1.30799e-15 0)
(1 -7.43972e-17 0)
(1 2.85518e-16 0)
(1 1.72329e-15 0)
(1 -1.88802e-15 0)
(1 3.70445e-16 0)
(1 -1.03686e-15 0)
(1 2.72512e-15 0)
(1 1.87662e-17 0)
(1 -1.21709e-16 0)
(1 1.33208e-15 0)
(1 -1.39816e-15 0)
(1 1.53849e-15 0)
(1 3.46585e-15 0)
(1 1.05626e-15 0)
(1 1.41162e-15 0)
(1 5.97002e-16 0)
(1 1.962e-16 0)
(1 2.22628e-16 0)
(1 8.38142e-16 0)
(1 -9.98487e-16 0)
(1 2.34299e-15 0)
(1 3.2143e-15 0)
(1 4.75279e-15 0)
(1 3.09314e-15 0)
(1 1.61788e-15 0)
(1 -1.43628e-15 0)
(1 3.24826e-16 0)
(1 3.89464e-15 0)
(1 4.31477e-15 0)
(1 3.81901e-15 0)
(1 2.07035e-15 0)
(1 -1.37696e-15 0)
(1 -1.82666e-15 0)
(1 -3.08953e-15 0)
(1 -1.10042e-15 0)
(1 -9.97459e-16 0)
(1 -1.3779e-15 0)
(1 4.44963e-15 0)
(1 3.00997e-15 0)
(1 4.48082e-15 0)
(1 -1.99067e-15 0)
(1 -8.19628e-16 0)
(1 1.05292e-18 0)
(1 -1.52886e-15 0)
(1 -3.13617e-15 0)
(1 7.44467e-16 0)
(1 1.43477e-15 0)
(1 6.14518e-16 0)
(1 -3.69818e-15 0)
(1 -1.05771e-15 0)
(1 7.99947e-16 0)
(1 -1.42286e-15 0)
(1 -3.32743e-15 0)
(1 -2.8899e-16 0)
(1 -2.18773e-15 0)
(1 2.19977e-15 0)
(1 8.19994e-16 0)
(1 5.70537e-16 0)
(1 -3.81561e-16 0)
(1 4.89525e-15 0)
(1 5.26598e-15 0)
(1 9.1477e-16 0)
(1 4.53585e-15 0)
(1 6.24245e-16 0)
(1 6.40338e-15 0)
(1 1.60993e-15 0)
(1 3.80019e-16 0)
(1 8.24389e-16 0)
(1 1.94095e-16 0)
(1 6.19763e-15 0)
(1 6.14002e-15 0)
(1 1.63945e-15 0)
(1 7.14312e-15 0)
(1 5.32263e-15 0)
(1 4.50027e-15 0)
(1 2.31128e-15 0)
(1 1.84975e-15 0)
(1 3.21456e-15 0)
(1 2.54346e-15 0)
(1 1.4931e-15 0)
(1 4.02557e-15 0)
(1 5.19968e-15 0)
(1 3.85457e-15 0)
(1 2.73282e-15 0)
(1 3.67379e-15 0)
(1 7.98537e-16 0)
(1 2.26997e-15 0)
(1 -2.85584e-16 0)
(1 3.5023e-15 0)
(1 4.1542e-15 0)
(1 1.60501e-15 0)
(1 5.31831e-16 0)
(1 2.07738e-15 0)
(1 3.07188e-16 0)
(1 3.12015e-15 0)
(1 2.80454e-15 0)
(1 -1.28731e-15 0)
(1 -1.17484e-15 0)
(1 5.78113e-17 0)
(1 -2.60408e-15 0)
(1 6.51834e-16 0)
(1 1.0462e-16 0)
(1 -1.17094e-15 0)
(1 -2.26828e-15 0)
(1 1.24831e-15 0)
(1 1.53317e-15 0)
(1 1.08101e-15 0)
(1 1.08903e-15 0)
(1 -8.53965e-16 0)
(1 1.08275e-15 0)
(1 1.85823e-15 0)
(1 1.08277e-15 0)
(1 1.40121e-15 0)
(1 -8.98861e-17 0)
(1 3.92238e-15 0)
(1 5.24071e-16 0)
(1 -1.77593e-15 0)
(1 -1.16604e-16 0)
(1 2.7638e-15 0)
(1 1.20503e-15 0)
(1 4.53321e-15 0)
(1 1.00712e-15 0)
(1 2.95898e-15 0)
(1 -1.03356e-15 0)
(1 -7.75299e-17 0)
(1 3.0698e-15 0)
(1 9.01739e-17 0)
(1 4.35516e-15 0)
(1 3.61233e-15 0)
(1 4.0796e-15 0)
(1 -2.99626e-15 0)
(1 -4.24177e-15 0)
(1 -2.85469e-16 0)
(1 -7.00101e-15 0)
(1 4.49825e-15 0)
(1 6.01978e-17 0)
(1 1.47064e-15 0)
(1 4.29823e-15 0)
(1 -1.62296e-15 0)
(1 7.30558e-16 0)
(1 5.50959e-15 0)
(1 -3.54836e-16 0)
(1 -6.18442e-16 0)
(1 -2.43359e-15 0)
(1 -1.08403e-15 0)
(1 -5.05013e-16 0)
(1 -1.81342e-15 0)
(1 -1.66124e-15 0)
(1 -1.2881e-15 0)
(1 -1.14134e-15 0)
(1 -2.53815e-15 0)
(1 -9.85435e-16 0)
(1 -1.20684e-15 0)
(1 -2.57844e-15 0)
(1 6.6946e-16 0)
(1 1.87861e-15 0)
(1 -4.09839e-16 0)
(1 5.65575e-16 0)
(1 7.62218e-16 0)
(1 7.18474e-15 0)
(1 2.84231e-15 0)
(1 4.23119e-15 0)
(1 2.90634e-15 0)
(1 -3.146e-15 0)
(1 4.24125e-15 0)
(1 9.41049e-16 0)
(1 -1.73671e-15 0)
(1 1.3332e-15 0)
(1 3.884e-15 0)
(1 4.65358e-15 0)
(1 4.24798e-15 0)
(1 3.75025e-15 0)
(1 6.65887e-15 0)
(1 4.72108e-15 0)
(1 5.54368e-15 0)
(1 5.52178e-15 0)
(1 3.32831e-15 0)
(1 4.30053e-15 0)
(1 4.05799e-16 0)
(1 3.60086e-15 0)
(1 2.73278e-15 0)
(1 5.61377e-15 0)
(1 5.19e-15 0)
(1 4.24043e-15 0)
(1 3.45252e-15 0)
(1 3.21155e-15 0)
(1 2.34929e-15 0)
(1 3.00771e-15 0)
(1 3.65464e-15 0)
(1 1.9111e-15 0)
(1 1.38166e-15 0)
(1 -3.95623e-16 0)
(1 2.00337e-15 0)
(1 7.96009e-16 0)
(1 3.62155e-15 0)
(1 1.43988e-16 0)
(1 -4.31261e-15 0)
(1 6.37145e-16 0)
(1 6.47563e-16 0)
(1 -1.95839e-15 0)
(1 -4.92162e-17 0)
(1 -7.64783e-16 0)
(1 -3.02442e-15 0)
(1 -2.3616e-15 0)
(1 3.55416e-16 0)
(1 8.55906e-16 0)
(1 -1.08144e-15 0)
(1 3.81428e-16 0)
(1 -5.33482e-16 0)
(1 1.65689e-15 0)
(1 2.83083e-15 0)
(1 3.76937e-15 0)
(1 1.25121e-16 0)
(1 -1.29297e-15 0)
(1 2.11642e-15 0)
(1 1.56684e-15 0)
(1 1.54898e-15 0)
(1 -2.11015e-16 0)
(1 2.38118e-15 0)
(1 1.2855e-15 0)
(1 1.5098e-15 0)
(1 2.03081e-15 0)
(1 2.83966e-15 0)
(1 2.10417e-15 0)
(1 1.286e-15 0)
(1 3.21933e-15 0)
(1 2.78389e-15 0)
(1 -6.99648e-16 0)
(1 1.04083e-16 0)
(1 1.7539e-15 0)
(1 -3.5918e-16 0)
(1 3.94551e-16 0)
(1 -1.14429e-16 0)
(1 -2.62064e-15 0)
(1 1.20143e-16 0)
(1 2.02657e-15 0)
(1 1.36882e-15 0)
(1 -7.83723e-16 0)
(1 7.88334e-16 0)
(1 -1.3249e-15 0)
(1 1.39892e-15 0)
(1 -3.23457e-15 0)
(1 -4.13191e-16 0)
(1 -3.69911e-16 0)
(1 5.36341e-15 0)
(1 -3.77668e-15 0)
(1 -1.51294e-15 0)
(1 -3.44217e-15 0)
(1 -1.87472e-15 0)
(1 -7.60407e-16 0)
(1 -3.20273e-15 0)
(1 1.47134e-15 0)
(1 -7.50534e-16 0)
(1 -1.3168e-15 0)
(1 -7.90215e-17 0)
(1 -1.61112e-15 0)
(1 -6.57063e-16 0)
(1 7.2932e-16 0)
(1 5.32982e-15 0)
(1 2.08339e-15 0)
(1 2.51543e-15 0)
(1 1.10774e-15 0)
(1 -1.21222e-15 0)
(1 3.34923e-15 0)
(1 9.95078e-16 0)
(1 1.06781e-15 0)
(1 -4.61784e-15 0)
(1 2.15676e-15 0)
(1 5.91225e-15 0)
(1 6.34214e-15 0)
(1 2.91669e-15 0)
(1 6.91316e-15 0)
(1 7.18716e-15 0)
(1 4.60712e-15 0)
(1 4.06527e-15 0)
(1 3.02499e-15 0)
(1 2.26384e-15 0)
(1 2.1689e-15 0)
(1 2.37462e-15 0)
(1 2.36189e-15 0)
(1 -1.20724e-15 0)
(1 4.68261e-15 0)
(1 4.55038e-15 0)
(1 4.8437e-15 0)
(1 3.72007e-15 0)
(1 3.44595e-15 0)
(1 2.8295e-15 0)
(1 1.95385e-15 0)
(1 -1.47317e-15 0)
(1 4.6282e-16 0)
(1 3.12984e-15 0)
(1 -6.98534e-17 0)
(1 -1.61022e-16 0)
(1 1.2355e-16 0)
(1 1.30717e-15 0)
(1 1.4637e-16 0)
(1 1.41104e-15 0)
(1 -1.77616e-15 0)
(1 -3.14765e-15 0)
(1 1.35126e-15 0)
(1 -1.40675e-15 0)
(1 -2.06335e-15 0)
(1 -3.68744e-15 0)
(1 -1.15836e-15 0)
(1 8.61749e-16 0)
(1 2.13417e-15 0)
(1 -3.32803e-16 0)
(1 6.74535e-16 0)
(1 1.73879e-15 0)
(1 2.05211e-15 0)
(1 1.59582e-15 0)
(1 1.04091e-15 0)
(1 -1.4374e-15 0)
(1 6.34569e-16 0)
(1 -1.18428e-15 0)
(1 7.90912e-16 0)