/*--------------------------------*- C++ -*----------------------------------*\
| =========                 |                                                 |
| \\      /  F ield         | OpenFOAM: The Open Source CFD Toolbox           |
|  \\    /   O peration     | Version:  v2012                                 |
|   \\  /    A nd           | Website:  www.openfoam.com                      |
|    \\/     M anipulation  |                                                 |
\*---------------------------------------------------------------------------*/
FoamFile
{
    version     2.0;
    format      ascii;
    class       volVectorField;
    location    "70";
    object      Usup;
}
// * * * * * * * * * * * * * * * * * * * * * * * * * * * * * * * * * * * * * //

dimensions      [0 1 -1 0 0 0 0];


internalField   nonuniform List<vector> 
4000
(
(-8.10053e-17 -1.50271e-16 0)
(6.443e-17 7.47556e-17 0)
(2.28994e-16 1.32665e-16 0)
(-3.21202e-17 7.58903e-17 0)
(-4.14157e-16 -5.68216e-17 0)
(-1.03854e-15 -3.46141e-16 0)
(-1.66973e-15 -2.59471e-17 0)
(-1.48446e-15 5.66452e-16 0)
(-1.07913e-15 3.15744e-16 0)
(-1.05646e-15 -1.57462e-16 0)
(-1.32211e-15 -3.96493e-16 0)
(-2.17127e-15 -4.52873e-16 0)
(-3.08114e-15 5.31111e-17 0)
(-3.30549e-15 5.92473e-16 0)
(-3.24884e-15 4.54913e-16 0)
(-3.66714e-15 3.84408e-16 0)
(-4.44879e-15 5.89754e-16 0)
(-5.13712e-15 3.23451e-16 0)
(-5.84011e-15 1.11819e-16 0)
(-6.56623e-15 3.90149e-16 0)
(-6.74357e-15 5.21143e-16 0)
(-6.24653e-15 7.36856e-16 0)
(-5.76458e-15 8.40677e-16 0)
(-5.85105e-15 7.7155e-16 0)
(-6.01395e-15 9.78778e-16 0)
(-5.85934e-15 1.15189e-15 0)
(-5.99294e-15 1.25746e-15 0)
(-6.53691e-15 1.07105e-15 0)
(-7.09151e-15 8.87426e-16 0)
(-7.03493e-15 1.1919e-15 0)
(-6.25755e-15 1.77836e-15 0)
(-5.68828e-15 1.64018e-15 0)
(-5.32249e-15 1.32864e-15 0)
(-5.11645e-15 9.97197e-16 0)
(-5.2095e-15 9.95752e-16 0)
(-5.5221e-15 8.15727e-16 0)
(-5.68911e-15 1.09225e-15 0)
(-5.61013e-15 1.31976e-15 0)
(-5.40738e-15 1.43558e-15 0)
(-5.10891e-15 1.1754e-15 0)
(-4.65611e-15 9.41903e-16 0)
(-4.20777e-15 5.9827e-16 0)
(-4.18537e-15 2.3122e-16 0)
(-4.25746e-15 4.38317e-16 0)
(-4.49646e-15 3.71034e-16 0)
(-5.01656e-15 2.14502e-16 0)
(-5.35005e-15 2.72819e-16 0)
(-5.09344e-15 4.67544e-16 0)
(-4.93524e-15 2.2015e-16 0)
(-5.22659e-15 1.11656e-16 0)
(-5.62088e-15 -3.34393e-17 0)
(-5.86207e-15 -9.5354e-17 0)
(-6.19453e-15 -1.25255e-16 0)
(-6.50292e-15 -2.8145e-16 0)
(-6.81297e-15 -3.71601e-16 0)
(-7.04418e-15 -2.8235e-16 0)
(-6.9003e-15 -4.13856e-16 0)
(-7.01297e-15 -6.74121e-16 0)
(-7.09357e-15 -3.90669e-16 0)
(-6.98334e-15 -2.57058e-16 0)
(-7.37513e-15 -3.7208e-16 0)
(-8.05964e-15 -2.69168e-16 0)
(-8.43974e-15 -8.43306e-17 0)
(-8.34435e-15 -2.90651e-17 0)
(-8.31414e-15 2.28234e-16 0)
(-8.45881e-15 4.69814e-16 0)
(-8.54614e-15 3.92275e-16 0)
(-8.73789e-15 3.13151e-16 0)
(-8.74232e-15 3.82788e-16 0)
(-8.3097e-15 2.11946e-16 0)
(-8.16139e-15 1.89546e-16 0)
(-8.47683e-15 4.07842e-16 0)
(-8.74478e-15 6.173e-16 0)
(-8.92035e-15 7.42725e-16 0)
(-8.86484e-15 9.39621e-16 0)
(-8.6042e-15 8.23019e-16 0)
(-8.65198e-15 6.63976e-16 0)
(-9.23943e-15 5.04426e-16 0)
(-9.77832e-15 3.93043e-16 0)
(-9.90561e-15 3.66384e-16 0)
(-9.32789e-15 6.80448e-16 0)
(-8.40693e-15 9.4703e-16 0)
(-7.70582e-15 7.75779e-16 0)
(-7.48047e-15 4.53109e-16 0)
(-7.75036e-15 3.56364e-16 0)
(-8.04542e-15 5.58174e-16 0)
(-7.64483e-15 6.38953e-16 0)
(-6.61082e-15 7.0278e-16 0)
(-5.7303e-15 5.97665e-16 0)
(-5.25619e-15 5.81648e-16 0)
(-5.28506e-15 4.08098e-16 0)
(-5.4443e-15 4.60104e-16 0)
(-5.36882e-15 5.90475e-16 0)
(-4.92485e-15 6.53151e-16 0)
(-4.03306e-15 7.91429e-16 0)
(-3.11275e-15 6.79716e-16 0)
(-2.39481e-15 4.75948e-16 0)
(-1.70556e-15 2.74783e-16 0)
(-9.94284e-16 -1.29054e-17 0)
(-4.17763e-16 -6.06527e-17 0)
(4.72732e-17 -1.04543e-16 0)
(2.70171e-16 1.51186e-16 0)
(1.82171e-16 1.45121e-16 0)
(-6.19964e-16 -3.53041e-17 0)
(-1.80271e-15 -1.65714e-16 0)
(-2.93333e-15 -4.31331e-16 0)
(-3.64665e-15 1.41129e-16 0)
(-3.9209e-15 1.06983e-15 0)
(-4.09494e-15 5.06038e-16 0)
(-4.19567e-15 -2.03615e-16 0)
(-4.7211e-15 -7.19876e-16 0)
(-6.1489e-15 -8.59361e-16 0)
(-7.80512e-15 1.47963e-16 0)
(-9.14222e-15 1.09402e-15 0)
(-9.93086e-15 1.14261e-15 0)
(-1.08754e-14 1.16942e-15 0)
(-1.29405e-14 1.31923e-15 0)
(-1.508e-14 9.3149e-16 0)
(-1.64907e-14 7.17849e-16 0)
(-1.79147e-14 1.0769e-15 0)
(-1.84613e-14 1.65615e-15 0)
(-1.76261e-14 2.17602e-15 0)
(-1.69318e-14 2.39439e-15 0)
(-1.6949e-14 2.35949e-15 0)
(-1.70669e-14 3.03332e-15 0)
(-1.69818e-14 3.42283e-15 0)
(-1.76382e-14 3.58247e-15 0)
(-1.89942e-14 3.33502e-15 0)
(-1.97104e-14 3.19642e-15 0)
(-1.8962e-14 3.94756e-15 0)
(-1.76906e-14 4.87861e-15 0)
(-1.69957e-14 4.75263e-15 0)
(-1.6204e-14 3.99009e-15 0)
(-1.54597e-14 3.37757e-15 0)
(-1.54749e-14 3.18271e-15 0)
(-1.58386e-14 3.01483e-15 0)
(-1.58448e-14 3.14824e-15 0)
(-1.57623e-14 3.28947e-15 0)
(-1.56001e-14 3.52191e-15 0)
(-1.50875e-14 3.07975e-15 0)
(-1.40938e-14 2.73617e-15 0)
(-1.32159e-14 1.94337e-15 0)
(-1.26642e-14 1.47245e-15 0)
(-1.26297e-14 1.46107e-15 0)
(-1.34969e-14 1.04924e-15 0)
(-1.45158e-14 5.97992e-16 0)
(-1.49943e-14 7.23355e-16 0)
(-1.49015e-14 1.26963e-15 0)
(-1.49644e-14 1.06363e-15 0)
(-1.55675e-14 6.45863e-16 0)
(-1.6475e-14 6.52114e-17 0)
(-1.71218e-14 -2.56389e-16 0)
(-1.80673e-14 -3.66878e-16 0)
(-1.89463e-14 -9.60595e-16 0)
(-1.95618e-14 -1.28679e-15 0)
(-2.01695e-14 -1.052e-15 0)
(-2.03401e-14 -1.33556e-15 0)
(-2.03261e-14 -1.60853e-15 0)
(-2.02935e-14 -1.02088e-15 0)
(-2.06154e-14 -7.48523e-16 0)
(-2.15957e-14 -1.22107e-15 0)
(-2.28787e-14 -1.06017e-15 0)
(-2.38436e-14 -5.34257e-16 0)
(-2.38151e-14 -5.01883e-17 0)
(-2.37331e-14 6.26745e-16 0)
(-2.43175e-14 1.31511e-15 0)
(-2.48133e-14 1.1397e-15 0)
(-2.50862e-14 9.19741e-16 0)
(-2.51341e-14 9.18864e-16 0)
(-2.44243e-14 5.85642e-16 0)
(-2.38777e-14 5.91443e-16 0)
(-2.43188e-14 1.13879e-15 0)
(-2.49866e-14 1.6188e-15 0)
(-2.53908e-14 1.967e-15 0)
(-2.55042e-14 2.45663e-15 0)
(-2.53612e-14 2.22576e-15 0)
(-2.55965e-14 1.98182e-15 0)
(-2.67527e-14 1.75804e-15 0)
(-2.77308e-14 1.39979e-15 0)
(-2.75646e-14 1.45081e-15 0)
(-2.60308e-14 2.22412e-15 0)
(-2.43198e-14 2.81479e-15 0)
(-2.30831e-14 2.17317e-15 0)
(-2.2337e-14 1.33765e-15 0)
(-2.22294e-14 1.2831e-15 0)
(-2.23665e-14 1.74482e-15 0)
(-2.13612e-14 2.21407e-15 0)
(-1.91355e-14 2.3924e-15 0)
(-1.70517e-14 2.18132e-15 0)
(-1.58033e-14 1.72332e-15 0)
(-1.54726e-14 1.31828e-15 0)
(-1.5255e-14 1.50038e-15 0)
(-1.47627e-14 1.7058e-15 0)
(-1.34409e-14 1.8817e-15 0)
(-1.13171e-14 2.01544e-15 0)
(-9.16479e-15 1.78843e-15 0)
(-7.1508e-15 1.30285e-15 0)
(-5.21057e-15 8.24319e-16 0)
(-3.09219e-15 1.05173e-16 0)
(-1.02416e-15 -1.28714e-16 0)
(-2.10624e-17 7.68741e-17 0)
(3.61365e-17 2.82953e-16 0)
(-3.16895e-16 7.6708e-17 0)
(-1.41826e-15 -4.8218e-16 0)
(-2.99848e-15 -2.84236e-16 0)
(-4.54715e-15 -1.57307e-16 0)
(-5.54375e-15 4.64384e-16 0)
(-6.44213e-15 8.93196e-16 0)
(-7.12604e-15 8.04648e-16 0)
(-7.45666e-15 9.60152e-17 0)
(-8.40255e-15 -7.14961e-16 0)
(-1.00839e-14 -8.39811e-16 0)
(-1.2255e-14 3.42184e-16 0)
(-1.44909e-14 1.51592e-15 0)
(-1.60766e-14 1.8999e-15 0)
(-1.79298e-14 1.91725e-15 0)
(-2.10643e-14 1.83354e-15 0)
(-2.40989e-14 1.49299e-15 0)
(-2.62376e-14 1.24502e-15 0)
(-2.8031e-14 1.59534e-15 0)
(-2.87348e-14 2.57485e-15 0)
(-2.80886e-14 3.43931e-15 0)
(-2.74471e-14 3.45267e-15 0)
(-2.72093e-14 3.9156e-15 0)
(-2.72769e-14 4.95219e-15 0)
(-2.75766e-14 5.70727e-15 0)
(-2.86448e-14 5.78216e-15 0)
(-3.0344e-14 5.85694e-15 0)
(-3.09319e-14 6.1883e-15 0)
(-2.98501e-14 7.05846e-15 0)
(-2.84201e-14 7.5852e-15 0)
(-2.77776e-14 7.48033e-15 0)
(-2.67754e-14 6.60144e-15 0)
(-2.5587e-14 5.90351e-15 0)
(-2.53333e-14 5.20268e-15 0)
(-2.57286e-14 5.35705e-15 0)
(-2.58286e-14 5.02894e-15 0)
(-2.54351e-14 4.75897e-15 0)
(-2.50894e-14 4.88576e-15 0)
(-2.43868e-14 4.62729e-15 0)
(-2.31793e-14 4.65785e-15 0)
(-2.19599e-14 3.8922e-15 0)
(-2.11243e-14 3.23513e-15 0)
(-2.13452e-14 2.25873e-15 0)
(-2.25213e-14 1.41657e-15 0)
(-2.36058e-14 1.13052e-15 0)
(-2.38979e-14 1.4078e-15 0)
(-2.39326e-14 2.12924e-15 0)
(-2.46158e-14 1.81366e-15 0)
(-2.58839e-14 9.62948e-16 0)
(-2.71794e-14 -1.42862e-17 0)
(-2.80035e-14 -3.45582e-16 0)
(-2.95404e-14 -7.65897e-16 0)
(-3.09822e-14 -1.24905e-15 0)
(-3.15743e-14 -2.15504e-15 0)
(-3.24304e-14 -2.20592e-15 0)
(-3.28988e-14 -2.4082e-15 0)
(-3.27473e-14 -2.27369e-15 0)
(-3.28142e-14 -1.94614e-15 0)
(-3.38705e-14 -1.66419e-15 0)
(-3.53522e-14 -1.60828e-15 0)
(-3.66729e-14 -1.26836e-15 0)
(-3.77912e-14 -8.17338e-16 0)
(-3.79227e-14 -9.11664e-17 0)
(-3.79807e-14 6.08887e-16 0)
(-3.91134e-14 1.37712e-15 0)
(-4.01914e-14 1.37725e-15 0)
(-4.05639e-14 1.26643e-15 0)
(-4.06288e-14 1.1614e-15 0)
(-3.9723e-14 1.47217e-15 0)
(-3.87922e-14 1.84176e-15 0)
(-3.9218e-14 2.14751e-15 0)
(-4.01709e-14 2.35311e-15 0)
(-4.07097e-14 2.7623e-15 0)
(-4.11131e-14 3.20858e-15 0)
(-4.12457e-14 3.19487e-15 0)
(-4.15806e-14 2.9786e-15 0)
(-4.3167e-14 2.83639e-15 0)
(-4.42802e-14 2.82584e-15 0)
(-4.35101e-14 3.13184e-15 0)
(-4.12785e-14 3.7703e-15 0)
(-3.94832e-14 4.34392e-15 0)
(-3.81507e-14 3.58468e-15 0)
(-3.65622e-14 2.48358e-15 0)
(-3.56382e-14 2.50098e-15 0)
(-3.52237e-14 3.02543e-15 0)
(-3.36833e-14 3.8469e-15 0)
(-3.08604e-14 4.08278e-15 0)
(-2.82223e-14 4.01559e-15 0)
(-2.63231e-14 3.00017e-15 0)
(-2.50891e-14 2.57996e-15 0)
(-2.42431e-14 2.84052e-15 0)
(-2.32086e-14 2.89164e-15 0)
(-2.11029e-14 2.82073e-15 0)
(-1.80129e-14 2.99415e-15 0)
(-1.48056e-14 2.74609e-15 0)
(-1.16622e-14 1.87334e-15 0)
(-8.6018e-15 1.20203e-15 0)
(-5.20417e-15 4.87564e-16 0)
(-1.55827e-15 5.79547e-17 0)
(-3.45329e-17 1.46909e-16 0)
(-3.02222e-16 5.10029e-16 0)
(-1.3099e-15 1.88232e-16 0)
(-2.47871e-15 -4.01793e-16 0)
(-4.07835e-15 -3.01793e-16 0)
(-5.96359e-15 3.42733e-16 0)
(-7.38066e-15 8.38348e-16 0)
(-8.6627e-15 1.01392e-15 0)
(-9.98815e-15 1.05735e-15 0)
(-1.11977e-14 3.24244e-16 0)
(-1.23186e-14 -4.35553e-16 0)
(-1.37647e-14 -2.81859e-16 0)
(-1.60454e-14 8.4855e-16 0)
(-1.92713e-14 2.00825e-15 0)
(-2.20821e-14 2.3653e-15 0)
(-2.47764e-14 2.34185e-15 0)
(-2.87724e-14 2.32536e-15 0)
(-3.27374e-14 2.38684e-15 0)
(-3.52254e-14 1.85136e-15 0)
(-3.70082e-14 1.75581e-15 0)
(-3.78173e-14 2.76601e-15 0)
(-3.77256e-14 4.08512e-15 0)
(-3.71822e-14 4.30532e-15 0)
(-3.64896e-14 5.35239e-15 0)
(-3.65548e-14 6.84646e-15 0)
(-3.73568e-14 8.00279e-15 0)
(-3.88773e-14 7.97033e-15 0)
(-4.05742e-14 8.16011e-15 0)
(-4.1062e-14 8.88889e-15 0)
(-3.99595e-14 9.83702e-15 0)
(-3.86233e-14 1.00582e-14 0)
(-3.80628e-14 9.61543e-15 0)
(-3.69617e-14 9.08433e-15 0)
(-3.56162e-14 8.26371e-15 0)
(-3.48542e-14 7.35446e-15 0)
(-3.4986e-14 7.15562e-15 0)
(-3.52806e-14 6.62482e-15 0)
(-3.46209e-14 6.20194e-15 0)
(-3.39898e-14 6.17758e-15 0)
(-3.29223e-14 5.96768e-15 0)
(-3.16043e-14 6.21396e-15 0)
(-3.06688e-14 5.76328e-15 0)
(-3.00692e-14 4.73538e-15 0)
(-3.03025e-14 3.1596e-15 0)
(-3.10917e-14 2.30989e-15 0)
(-3.19061e-14 2.04485e-15 0)
(-3.21618e-14 2.27728e-15 0)
(-3.27802e-14 2.47174e-15 0)
(-3.43208e-14 1.85767e-15 0)
(-3.60045e-14 9.63018e-16 0)
(-3.73075e-14 4.56271e-17 0)
(-3.8365e-14 -1.90611e-16 0)
(-4.02793e-14 -9.94285e-16 0)
(-4.2351e-14 -1.56313e-15 0)
(-4.34071e-14 -3.00264e-15 0)
(-4.40999e-14 -3.58358e-15 0)
(-4.45424e-14 -3.52231e-15 0)
(-4.45563e-14 -3.25614e-15 0)
(-4.48583e-14 -3.35327e-15 0)
(-4.58993e-14 -2.84474e-15 0)
(-4.76431e-14 -1.63959e-15 0)
(-4.95977e-14 -1.39274e-15 0)
(-5.10518e-14 -9.97079e-16 0)
(-5.12955e-14 -1.92032e-16 0)
(-5.15144e-14 4.29197e-18 0)
(-5.29405e-14 6.17974e-16 0)
(-5.43674e-14 1.22453e-15 0)
(-5.49351e-14 1.18784e-15 0)
(-5.47037e-14 1.36173e-15 0)
(-5.34977e-14 2.42928e-15 0)
(-5.29523e-14 2.91198e-15 0)
(-5.37834e-14 3.12008e-15 0)
(-5.47187e-14 3.19565e-15 0)
(-5.52071e-14 3.67603e-15 0)
(-5.57324e-14 3.69901e-15 0)
(-5.61158e-14 3.7498e-15 0)
(-5.66792e-14 3.62729e-15 0)
(-5.81466e-14 3.65085e-15 0)
(-5.91135e-14 4.25559e-15 0)
(-5.82547e-14 5.08557e-15 0)
(-5.56168e-14 5.76223e-15 0)
(-5.36106e-14 5.64064e-15 0)
(-5.23383e-14 4.90454e-15 0)
(-5.01059e-14 3.98673e-15 0)
(-4.81944e-14 3.84702e-15 0)
(-4.70366e-14 4.281e-15 0)
(-4.50097e-14 5.14531e-15 0)
(-4.17125e-14 5.63236e-15 0)
(-3.87994e-14 5.60088e-15 0)
(-3.63843e-14 4.68109e-15 0)
(-3.40746e-14 4.15741e-15 0)
(-3.25802e-14 4.08164e-15 0)
(-3.11503e-14 3.89428e-15 0)
(-2.80854e-14 3.86652e-15 0)
(-2.39589e-14 4.03356e-15 0)
(-2.02098e-14 3.46044e-15 0)
(-1.61188e-14 2.41926e-15 0)
(-1.16844e-14 1.53515e-15 0)
(-7.02796e-15 8.10024e-16 0)
(-2.2069e-15 7.94316e-17 0)
(-1.00569e-16 1.34343e-16 0)
(-7.9514e-16 5.76772e-16 0)
(-2.27172e-15 2.10645e-16 0)
(-3.66856e-15 4.52601e-17 0)
(-5.10852e-15 5.12941e-16 0)
(-7.21196e-15 1.68828e-15 0)
(-9.32329e-15 1.86404e-15 0)
(-1.11313e-14 1.74581e-15 0)
(-1.29948e-14 9.95798e-16 0)
(-1.45832e-14 3.26576e-16 0)
(-1.58207e-14 3.19518e-16 0)
(-1.73236e-14 8.19154e-16 0)
(-2.00557e-14 1.43113e-15 0)
(-2.40782e-14 1.91404e-15 0)
(-2.77141e-14 2.42548e-15 0)
(-3.11298e-14 2.91642e-15 0)
(-3.56106e-14 2.68228e-15 0)
(-4.04419e-14 2.93623e-15 0)
(-4.39921e-14 2.68292e-15 0)
(-4.56822e-14 2.46101e-15 0)
(-4.59749e-14 3.18839e-15 0)
(-4.61577e-14 4.38652e-15 0)
(-4.57981e-14 5.15189e-15 0)
(-4.47347e-14 6.56584e-15 0)
(-4.48842e-14 8.04435e-15 0)
(-4.65003e-14 9.22873e-15 0)
(-4.85508e-14 9.41804e-15 0)
(-4.99966e-14 9.83538e-15 0)
(-5.01846e-14 1.10417e-14 0)
(-4.92965e-14 1.21142e-14 0)
(-4.83782e-14 1.22003e-14 0)
(-4.76621e-14 1.14478e-14 0)
(-4.63754e-14 1.11104e-14 0)
(-4.50652e-14 1.06584e-14 0)
(-4.41418e-14 9.78072e-15 0)
(-4.41592e-14 8.75806e-15 0)
(-4.42992e-14 8.06934e-15 0)
(-4.32889e-14 7.46474e-15 0)
(-4.2409e-14 7.29731e-15 0)
(-4.10332e-14 7.35579e-15 0)
(-3.95096e-14 7.32831e-15 0)
(-3.88433e-14 7.10321e-15 0)
(-3.86817e-14 6.16449e-15 0)
(-3.88625e-14 4.9555e-15 0)
(-3.93794e-14 4.13577e-15 0)
(-4.01026e-14 3.09959e-15 0)
(-4.04777e-14 2.87044e-15 0)
(-4.14812e-14 2.10729e-15 0)
(-4.33537e-14 1.6993e-15 0)
(-4.53805e-14 9.28316e-16 0)
(-4.68502e-14 3.621e-16 0)
(-4.83059e-14 -2.94245e-16 0)
(-5.0829e-14 -1.39514e-15 0)
(-5.34645e-14 -2.42871e-15 0)
(-5.47339e-14 -3.97632e-15 0)
(-5.50563e-14 -4.7592e-15 0)
(-5.53689e-14 -4.69155e-15 0)
(-5.57838e-14 -4.76929e-15 0)
(-5.61437e-14 -4.66357e-15 0)
(-5.67802e-14 -3.68462e-15 0)
(-5.91297e-14 -2.30309e-15 0)
(-6.17858e-14 -2.00071e-15 0)
(-6.31341e-14 -1.19864e-15 0)
(-6.38796e-14 -5.32563e-16 0)
(-6.44395e-14 -8.75869e-16 0)
(-6.55835e-14 -4.79892e-16 0)
(-6.74002e-14 4.19443e-16 0)
(-6.82809e-14 5.94921e-16 0)
(-6.76136e-14 1.6959e-15 0)
(-6.648e-14 3.15751e-15 0)
(-6.62424e-14 3.41417e-15 0)
(-6.71543e-14 3.75571e-15 0)
(-6.81403e-14 4.12292e-15 0)
(-6.89117e-14 4.70801e-15 0)
(-6.97466e-14 4.6719e-15 0)
(-7.00723e-14 4.39412e-15 0)
(-7.05833e-14 4.31785e-15 0)
(-7.18467e-14 4.42503e-15 0)
(-7.24383e-14 5.27974e-15 0)
(-7.13349e-14 6.82976e-15 0)
(-6.90964e-14 7.87487e-15 0)
(-6.73537e-14 7.1505e-15 0)
(-6.55929e-14 6.33139e-15 0)
(-6.26911e-14 5.76082e-15 0)
(-6.00131e-14 5.40389e-15 0)
(-5.80125e-14 5.62561e-15 0)
(-5.52927e-14 6.37986e-15 0)
(-5.17154e-14 6.96441e-15 0)
(-4.86503e-14 6.97914e-15 0)
(-4.57948e-14 6.26408e-15 0)
(-4.27992e-14 5.55968e-15 0)
(-4.05977e-14 4.97308e-15 0)
(-3.82479e-14 4.73545e-15 0)
(-3.42939e-14 4.94141e-15 0)
(-2.97001e-14 4.61796e-15 0)
(-2.52774e-14 3.88723e-15 0)
(-2.01791e-14 2.81632e-15 0)
(-1.46698e-14 1.92937e-15 0)
(-8.92889e-15 1.11665e-15 0)
(-2.64611e-15 2.03638e-16 0)
(-1.48245e-16 2.84504e-16 0)
(-1.33033e-15 4.20775e-16 0)
(-3.24108e-15 3.84077e-16 0)
(-4.35556e-15 9.53582e-16 0)
(-5.62847e-15 1.61977e-15 0)
(-8.43665e-15 2.5359e-15 0)
(-1.14823e-14 2.83119e-15 0)
(-1.40451e-14 2.51291e-15 0)
(-1.63636e-14 1.75747e-15 0)
(-1.77186e-14 1.29215e-15 0)
(-1.88472e-14 1.40552e-15 0)
(-2.08737e-14 1.67361e-15 0)
(-2.42818e-14 1.76464e-15 0)
(-2.86913e-14 2.22415e-15 0)
(-3.26063e-14 2.88613e-15 0)
(-3.70111e-14 3.3859e-15 0)
(-4.23933e-14 3.41071e-15 0)
(-4.75654e-14 3.5139e-15 0)
(-5.14882e-14 3.22013e-15 0)
(-5.34311e-14 3.18545e-15 0)
(-5.38013e-14 3.669e-15 0)
(-5.4029e-14 5.10634e-15 0)
(-5.35289e-14 6.70032e-15 0)
(-5.24799e-14 8.21555e-15 0)
(-5.28866e-14 8.93517e-15 0)
(-5.48198e-14 9.41666e-15 0)
(-5.71068e-14 1.00213e-14 0)
(-5.82381e-14 1.10064e-14 0)
(-5.83054e-14 1.25663e-14 0)
(-5.78749e-14 1.3724e-14 0)
(-5.75232e-14 1.40162e-14 0)
(-5.68225e-14 1.3422e-14 0)
(-5.50681e-14 1.29784e-14 0)
(-5.37774e-14 1.23403e-14 0)
(-5.32006e-14 1.13692e-14 0)
(-5.30265e-14 1.0133e-14 0)
(-5.2839e-14 9.51984e-15 0)
(-5.15574e-14 8.97102e-15 0)
(-5.01241e-14 8.7679e-15 0)
(-4.85889e-14 9.03494e-15 0)
(-4.71213e-14 8.54658e-15 0)
(-4.65857e-14 8.04031e-15 0)
(-4.65985e-14 7.2148e-15 0)
(-4.6811e-14 6.66469e-15 0)
(-4.76978e-14 5.65958e-15 0)
(-4.84059e-14 4.52575e-15 0)
(-4.88173e-14 3.50294e-15 0)
(-4.99216e-14 1.98096e-15 0)
(-5.18665e-14 1.36189e-15 0)
(-5.41569e-14 6.21652e-16 0)
(-5.59509e-14 1.56727e-16 0)
(-5.80279e-14 -8.83802e-16 0)
(-6.08684e-14 -2.09602e-15 0)
(-6.39082e-14 -3.43292e-15 0)
(-6.53806e-14 -5.01267e-15 0)
(-6.54247e-14 -5.71445e-15 0)
(-6.58286e-14 -6.01553e-15 0)
(-6.62761e-14 -6.12644e-15 0)
(-6.6276e-14 -5.57795e-15 0)
(-6.68968e-14 -4.47202e-15 0)
(-6.9722e-14 -3.5956e-15 0)
(-7.27097e-14 -2.76269e-15 0)
(-7.44437e-14 -1.59311e-15 0)
(-7.59731e-14 -1.10795e-15 0)
(-7.67499e-14 -1.32567e-15 0)
(-7.75633e-14 -1.3804e-15 0)
(-7.93985e-14 -1.09336e-15 0)
(-8.00019e-14 -8.7909e-17 0)
(-7.89379e-14 1.73614e-15 0)
(-7.84208e-14 3.6108e-15 0)
(-7.87901e-14 4.47689e-15 0)
(-7.96863e-14 4.55851e-15 0)
(-8.06122e-14 4.77684e-15 0)
(-8.15449e-14 5.21481e-15 0)
(-8.28088e-14 5.32316e-15 0)
(-8.33008e-14 5.019e-15 0)
(-8.36674e-14 4.98632e-15 0)
(-8.45173e-14 5.5423e-15 0)
(-8.43617e-14 6.62458e-15 0)
(-8.30578e-14 8.02324e-15 0)
(-8.15073e-14 9.0194e-15 0)
(-8.00859e-14 8.71566e-15 0)
(-7.78501e-14 8.4256e-15 0)
(-7.44564e-14 7.91719e-15 0)
(-7.11607e-14 7.21143e-15 0)
(-6.83044e-14 6.99949e-15 0)
(-6.4953e-14 7.57813e-15 0)
(-6.0977e-14 8.16611e-15 0)
(-5.77427e-14 7.94815e-15 0)
(-5.46276e-14 7.29318e-15 0)
(-5.10604e-14 6.61668e-15 0)
(-4.8047e-14 5.86492e-15 0)
(-4.47292e-14 5.81765e-15 0)
(-4.02101e-14 5.77403e-15 0)
(-3.50321e-14 4.99457e-15 0)
(-2.99266e-14 3.96285e-15 0)
(-2.39462e-14 3.18386e-15 0)
(-1.72562e-14 2.26868e-15 0)
(-1.05057e-14 1.58304e-15 0)
(-3.23947e-15 5.85608e-16 0)
(-5.50992e-16 2.7327e-16 0)
(-2.02407e-15 3.04106e-16 0)
(-3.62081e-15 6.58871e-16 0)
(-5.01396e-15 1.9052e-15 0)
(-6.7774e-15 2.58438e-15 0)
(-9.7678e-15 3.06269e-15 0)
(-1.33967e-14 3.67288e-15 0)
(-1.65653e-14 3.47361e-15 0)
(-1.91384e-14 3.01996e-15 0)
(-2.07656e-14 3.09688e-15 0)
(-2.22582e-14 2.82036e-15 0)
(-2.46853e-14 2.43e-15 0)
(-2.82524e-14 2.15373e-15 0)
(-3.2853e-14 2.97212e-15 0)
(-3.74715e-14 3.66806e-15 0)
(-4.23937e-14 3.84491e-15 0)
(-4.82181e-14 4.0605e-15 0)
(-5.43033e-14 4.33865e-15 0)
(-5.888e-14 4.268e-15 0)
(-6.07668e-14 4.34829e-15 0)
(-6.05485e-14 5.11302e-15 0)
(-6.03009e-14 6.47751e-15 0)
(-6.01459e-14 8.24138e-15 0)
(-5.99293e-14 8.8082e-15 0)
(-6.1019e-14 9.12283e-15 0)
(-6.28874e-14 9.38666e-15 0)
(-6.47222e-14 1.05671e-14 0)
(-6.55781e-14 1.20638e-14 0)
(-6.56541e-14 1.34106e-14 0)
(-6.55698e-14 1.45747e-14 0)
(-6.56759e-14 1.52803e-14 0)
(-6.51633e-14 1.54233e-14 0)
(-6.35682e-14 1.51031e-14 0)
(-6.2351e-14 1.40254e-14 0)
(-6.1633e-14 1.26393e-14 0)
(-6.11933e-14 1.15265e-14 0)
(-6.06339e-14 1.11446e-14 0)
(-5.90958e-14 1.0424e-14 0)
(-5.73504e-14 1.00062e-14 0)
(-5.5898e-14 1.02024e-14 0)
(-5.46762e-14 9.99377e-15 0)
(-5.40627e-14 9.23568e-15 0)
(-5.38545e-14 8.08224e-15 0)
(-5.42207e-14 7.52842e-15 0)
(-5.5341e-14 6.39457e-15 0)
(-5.6339e-14 5.71332e-15 0)
(-5.73082e-14 3.88749e-15 0)
(-5.83523e-14 2.03027e-15 0)
(-6.0033e-14 9.45239e-16 0)
(-6.2395e-14 3.61582e-16 0)
(-6.45962e-14 -1.87737e-16 0)
(-6.71543e-14 -1.64074e-15 0)
(-7.04683e-14 -3.35141e-15 0)
(-7.39435e-14 -4.80967e-15 0)
(-7.52908e-14 -5.7625e-15 0)
(-7.51796e-14 -6.32449e-15 0)
(-7.55288e-14 -6.81995e-15 0)
(-7.57751e-14 -6.67424e-15 0)
(-7.57025e-14 -6.25775e-15 0)
(-7.65838e-14 -5.89562e-15 0)
(-7.96494e-14 -5.26282e-15 0)
(-8.26089e-14 -3.80727e-15 0)
(-8.46907e-14 -2.48909e-15 0)
(-8.68656e-14 -1.73779e-15 0)
(-8.81656e-14 -1.3648e-15 0)
(-8.92259e-14 -1.67106e-15 0)
(-9.04986e-14 -1.78817e-15 0)
(-9.04319e-14 -1.54853e-16 0)
(-8.92576e-14 1.86754e-15 0)
(-8.89288e-14 3.65855e-15 0)
(-9.0113e-14 4.57504e-15 0)
(-9.16248e-14 4.83367e-15 0)
(-9.24791e-14 5.02729e-15 0)
(-9.34447e-14 5.23338e-15 0)
(-9.49077e-14 5.43667e-15 0)
(-9.53917e-14 5.65087e-15 0)
(-9.53013e-14 5.79919e-15 0)
(-9.57261e-14 6.77741e-15 0)
(-9.55655e-14 8.19415e-15 0)
(-9.42155e-14 9.31938e-15 0)
(-9.27226e-14 1.02658e-14 0)
(-9.12664e-14 1.03863e-14 0)
(-8.89182e-14 1.022e-14 0)
(-8.55589e-14 9.7325e-15 0)
(-8.18736e-14 8.71927e-15 0)
(-7.80658e-14 8.71017e-15 0)
(-7.37767e-14 9.01051e-15 0)
(-6.9693e-14 9.38268e-15 0)
(-6.63946e-14 8.58737e-15 0)
(-6.27271e-14 7.90954e-15 0)
(-5.866e-14 7.29079e-15 0)
(-5.48155e-14 6.71112e-15 0)
(-5.06597e-14 6.74133e-15 0)
(-4.58031e-14 6.38938e-15 0)
(-4.03291e-14 5.30693e-15 0)
(-3.41613e-14 4.15094e-15 0)
(-2.71324e-14 3.57916e-15 0)
(-1.96318e-14 2.67243e-15 0)
(-1.1948e-14 1.82113e-15 0)
(-3.88616e-15 5.83055e-16 0)
(-7.50657e-16 2.75991e-16 0)
(-2.50978e-15 8.67191e-16 0)
(-3.96489e-15 1.49145e-15 0)
(-5.31333e-15 2.14004e-15 0)
(-7.66444e-15 3.22083e-15 0)
(-1.10653e-14 3.67248e-15 0)
(-1.51611e-14 4.44697e-15 0)
(-1.90627e-14 4.8811e-15 0)
(-2.17598e-14 4.6489e-15 0)
(-2.36256e-14 4.66403e-15 0)
(-2.58215e-14 3.92814e-15 0)
(-2.86524e-14 3.11507e-15 0)
(-3.20327e-14 2.94979e-15 0)
(-3.66179e-14 3.80304e-15 0)
(-4.19124e-14 4.69312e-15 0)
(-4.75909e-14 4.81132e-15 0)
(-5.38155e-14 4.6943e-15 0)
(-6.00779e-14 5.2537e-15 0)
(-6.49452e-14 6.10929e-15 0)
(-6.69512e-14 6.60797e-15 0)
(-6.69082e-14 7.24385e-15 0)
(-6.67928e-14 7.52452e-15 0)
(-6.71656e-14 8.69611e-15 0)
(-6.74031e-14 8.95335e-15 0)
(-6.82141e-14 9.36597e-15 0)
(-6.96636e-14 1.00232e-14 0)
(-7.11662e-14 1.14235e-14 0)
(-7.2248e-14 1.2988e-14 0)
(-7.25531e-14 1.42201e-14 0)
(-7.24851e-14 1.55319e-14 0)
(-7.26806e-14 1.66172e-14 0)
(-7.24725e-14 1.69999e-14 0)
(-7.13401e-14 1.66894e-14 0)
(-7.05777e-14 1.555e-14 0)
(-6.98037e-14 1.40898e-14 0)
(-6.86921e-14 1.3048e-14 0)
(-6.80203e-14 1.27205e-14 0)
(-6.65551e-14 1.20569e-14 0)
(-6.42209e-14 1.15317e-14 0)
(-6.23025e-14 1.17433e-14 0)
(-6.13326e-14 1.1494e-14 0)
(-6.13475e-14 9.99828e-15 0)
(-6.1155e-14 8.45269e-15 0)
(-6.13992e-14 7.43207e-15 0)
(-6.25214e-14 6.66722e-15 0)
(-6.39561e-14 5.82952e-15 0)
(-6.55028e-14 4.2623e-15 0)
(-6.63741e-14 2.62207e-15 0)
(-6.77392e-14 1.07731e-15 0)
(-7.00442e-14 -3.77234e-17 0)
(-7.2934e-14 -1.26616e-15 0)
(-7.63566e-14 -2.82373e-15 0)
(-7.97108e-14 -4.60343e-15 0)
(-8.27042e-14 -5.8553e-15 0)
(-8.4014e-14 -5.9591e-15 0)
(-8.41948e-14 -6.43523e-15 0)
(-8.45291e-14 -6.89994e-15 0)
(-8.47453e-14 -6.94823e-15 0)
(-8.50263e-14 -7.05003e-15 0)
(-8.59387e-14 -7.23853e-15 0)
(-8.84209e-14 -6.8533e-15 0)
(-9.13595e-14 -5.02458e-15 0)
(-9.40346e-14 -3.64562e-15 0)
(-9.66329e-14 -2.76407e-15 0)
(-9.85083e-14 -2.09561e-15 0)
(-9.9954e-14 -2.44645e-15 0)
(-1.00588e-13 -1.83505e-15 0)
(-9.97991e-14 -3.64609e-17 0)
(-9.876e-14 1.81269e-15 0)
(-9.91703e-14 3.30643e-15 0)
(-1.00773e-13 3.99457e-15 0)
(-1.02308e-13 4.88416e-15 0)
(-1.03377e-13 5.38677e-15 0)
(-1.04389e-13 5.65757e-15 0)
(-1.05706e-13 6.02086e-15 0)
(-1.06266e-13 6.42122e-15 0)
(-1.06061e-13 6.62425e-15 0)
(-1.05908e-13 7.75173e-15 0)
(-1.05475e-13 9.41641e-15 0)
(-1.04213e-13 1.08606e-14 0)
(-1.0295e-13 1.15475e-14 0)
(-1.01774e-13 1.19268e-14 0)
(-9.9331e-14 1.16943e-14 0)
(-9.58559e-14 1.12513e-14 0)
(-9.14568e-14 1.05714e-14 0)
(-8.68147e-14 1.06724e-14 0)
(-8.22744e-14 1.04207e-14 0)
(-7.81122e-14 1.01318e-14 0)
(-7.46034e-14 9.09079e-15 0)
(-7.02845e-14 8.36541e-15 0)
(-6.55468e-14 7.5907e-15 0)
(-6.09077e-14 7.11029e-15 0)
(-5.61842e-14 6.77702e-15 0)
(-5.11241e-14 6.2893e-15 0)
(-4.5049e-14 5.63621e-15 0)
(-3.79641e-14 4.82087e-15 0)
(-3.01027e-14 3.7631e-15 0)
(-2.18404e-14 2.74946e-15 0)
(-1.34682e-14 1.6878e-15 0)
(-4.42237e-15 4.26369e-16 0)
(-8.21449e-16 4.82526e-16 0)
(-2.75301e-15 1.44061e-15 0)
(-4.72761e-15 2.50782e-15 0)
(-6.21337e-15 2.88476e-15 0)
(-8.57694e-15 3.60672e-15 0)
(-1.22723e-14 4.17305e-15 0)
(-1.6411e-14 5.07862e-15 0)
(-2.08336e-14 6.04798e-15 0)
(-2.42582e-14 6.50416e-15 0)
(-2.68479e-14 5.95607e-15 0)
(-2.96033e-14 4.7836e-15 0)
(-3.23254e-14 3.91377e-15 0)
(-3.54281e-14 4.1943e-15 0)
(-4.00425e-14 4.86923e-15 0)
(-4.60074e-14 5.77617e-15 0)
(-5.24817e-14 5.81328e-15 0)
(-5.8782e-14 5.84141e-15 0)
(-6.49154e-14 6.69063e-15 0)
(-7.02321e-14 8.27103e-15 0)
(-7.28798e-14 8.60304e-15 0)
(-7.33092e-14 8.71499e-15 0)
(-7.30462e-14 8.15093e-15 0)
(-7.31974e-14 8.97951e-15 0)
(-7.37628e-14 9.99798e-15 0)
(-7.47357e-14 1.093e-14 0)
(-7.60169e-14 1.16535e-14 0)
(-7.72844e-14 1.28816e-14 0)
(-7.83136e-14 1.37568e-14 0)
(-7.85587e-14 1.50763e-14 0)
(-7.84892e-14 1.65969e-14 0)
(-7.91152e-14 1.75835e-14 0)
(-7.94187e-14 1.81387e-14 0)
(-7.87147e-14 1.76348e-14 0)
(-7.81199e-14 1.63632e-14 0)
(-7.71232e-14 1.53109e-14 0)
(-7.56574e-14 1.46663e-14 0)
(-7.46312e-14 1.42096e-14 0)
(-7.30463e-14 1.41814e-14 0)
(-7.04618e-14 1.34208e-14 0)
(-6.8619e-14 1.29077e-14 0)
(-6.84927e-14 1.18533e-14 0)
(-6.87235e-14 9.97054e-15 0)
(-6.81278e-14 8.6834e-15 0)
(-6.79619e-14 7.59837e-15 0)
(-6.90674e-14 7.07236e-15 0)
(-7.08417e-14 6.08563e-15 0)
(-7.26401e-14 4.89779e-15 0)
(-7.39512e-14 3.34544e-15 0)
(-7.55724e-14 1.24289e-15 0)
(-7.80722e-14 -4.53163e-16 0)
(-8.10086e-14 -2.40642e-15 0)
(-8.44114e-14 -3.87747e-15 0)
(-8.79569e-14 -5.13983e-15 0)
(-9.06601e-14 -6.27526e-15 0)
(-9.18899e-14 -6.36067e-15 0)
(-9.2483e-14 -6.6267e-15 0)
(-9.29422e-14 -7.01314e-15 0)
(-9.33372e-14 -7.49399e-15 0)
(-9.3781e-14 -8.03902e-15 0)
(-9.47195e-14 -8.1185e-15 0)
(-9.67173e-14 -7.65508e-15 0)
(-9.93508e-14 -6.13871e-15 0)
(-1.02507e-13 -5.00418e-15 0)
(-1.05545e-13 -3.99537e-15 0)
(-1.08048e-13 -3.49393e-15 0)
(-1.09405e-13 -3.64479e-15 0)
(-1.09312e-13 -2.43543e-15 0)
(-1.08511e-13 -3.31098e-16 0)
(-1.07703e-13 1.38813e-15 0)
(-1.08346e-13 2.87952e-15 0)
(-1.10078e-13 4.12879e-15 0)
(-1.11822e-13 5.17515e-15 0)
(-1.13215e-13 5.99271e-15 0)
(-1.14348e-13 6.30199e-15 0)
(-1.15754e-13 6.56473e-15 0)
(-1.1636e-13 6.73847e-15 0)
(-1.15696e-13 7.33357e-15 0)
(-1.14946e-13 8.80408e-15 0)
(-1.14367e-13 1.05055e-14 0)
(-1.13442e-13 1.18746e-14 0)
(-1.12325e-13 1.25422e-14 0)
(-1.11035e-13 1.31142e-14 0)
(-1.08704e-13 1.3168e-14 0)
(-1.05027e-13 1.27458e-14 0)
(-1.0024e-13 1.24543e-14 0)
(-9.53504e-14 1.20454e-14 0)
(-9.05094e-14 1.14597e-14 0)
(-8.60991e-14 1.06596e-14 0)
(-8.21611e-14 9.54422e-15 0)
(-7.72972e-14 8.64504e-15 0)
(-7.201e-14 7.67866e-15 0)
(-6.67455e-14 6.8706e-15 0)
(-6.14206e-14 6.40245e-15 0)
(-5.55264e-14 6.17283e-15 0)
(-4.8916e-14 5.78712e-15 0)
(-4.15711e-14 5.1937e-15 0)
(-3.313e-14 3.87684e-15 0)
(-2.40032e-14 2.5785e-15 0)
(-1.48057e-14 1.4116e-15 0)
(-4.81725e-15 4.24915e-16 0)
(-8.78432e-16 5.46812e-16 0)
(-2.85242e-15 1.61117e-15 0)
(-5.08289e-15 2.83639e-15 0)
(-7.05911e-15 3.93186e-15 0)
(-9.66957e-15 4.45753e-15 0)
(-1.33569e-14 5.03817e-15 0)
(-1.75983e-14 6.20617e-15 0)
(-2.22946e-14 6.70333e-15 0)
(-2.66022e-14 7.45854e-15 0)
(-3.02017e-14 7.20708e-15 0)
(-3.32189e-14 5.97995e-15 0)
(-3.56134e-14 5.28134e-15 0)
(-3.85282e-14 5.56942e-15 0)
(-4.33487e-14 5.72373e-15 0)
(-4.9822e-14 6.34117e-15 0)
(-5.68583e-14 6.96603e-15 0)
(-6.31837e-14 7.58573e-15 0)
(-6.89682e-14 8.12445e-15 0)
(-7.48226e-14 9.84142e-15 0)
(-7.84384e-14 1.07207e-14 0)
(-7.94964e-14 1.07777e-14 0)
(-7.92089e-14 9.79727e-15 0)
(-7.86965e-14 9.9472e-15 0)
(-7.90752e-14 1.12342e-14 0)
(-8.02714e-14 1.23564e-14 0)
(-8.16289e-14 1.2926e-14 0)
(-8.31033e-14 1.39858e-14 0)
(-8.41532e-14 1.48812e-14 0)
(-8.39627e-14 1.5962e-14 0)
(-8.40584e-14 1.73642e-14 0)
(-8.48283e-14 1.80952e-14 0)
(-8.5542e-14 1.86701e-14 0)
(-8.55595e-14 1.83783e-14 0)
(-8.5004e-14 1.75139e-14 0)
(-8.35792e-14 1.69534e-14 0)
(-8.18477e-14 1.6245e-14 0)
(-8.05455e-14 1.54966e-14 0)
(-7.91289e-14 1.58916e-14 0)
(-7.69812e-14 1.47376e-14 0)
(-7.51224e-14 1.31512e-14 0)
(-7.5031e-14 1.17177e-14 0)
(-7.5133e-14 1.04592e-14 0)
(-7.43278e-14 9.15776e-15 0)
(-7.40514e-14 8.29414e-15 0)
(-7.52051e-14 7.54681e-15 0)
(-7.72886e-14 6.5207e-15 0)
(-7.94635e-14 5.08659e-15 0)
(-8.12632e-14 3.26305e-15 0)
(-8.30304e-14 1.27093e-15 0)
(-8.55603e-14 -4.49217e-16 0)
(-8.8653e-14 -2.26534e-15 0)
(-9.19614e-14 -4.45242e-15 0)
(-9.54787e-14 -5.92571e-15 0)
(-9.80223e-14 -6.67929e-15 0)
(-9.91058e-14 -6.6442e-15 0)
(-9.9913e-14 -6.77706e-15 0)
(-1.00801e-13 -6.91937e-15 0)
(-1.01522e-13 -7.85913e-15 0)
(-1.01892e-13 -8.96271e-15 0)
(-1.02444e-13 -9.30421e-15 0)
(-1.04128e-13 -8.53487e-15 0)
(-1.06936e-13 -7.5891e-15 0)
(-1.10325e-13 -6.38924e-15 0)
(-1.13697e-13 -5.14648e-15 0)
(-1.16698e-13 -4.6325e-15 0)
(-1.17861e-13 -4.03449e-15 0)
(-1.17038e-13 -2.5827e-15 0)
(-1.16042e-13 -5.42469e-16 0)
(-1.15593e-13 1.02356e-15 0)
(-1.16465e-13 2.66394e-15 0)
(-1.18493e-13 4.13251e-15 0)
(-1.20431e-13 5.34113e-15 0)
(-1.2211e-13 6.44041e-15 0)
(-1.23578e-13 6.62058e-15 0)
(-1.25015e-13 6.64758e-15 0)
(-1.25317e-13 7.05446e-15 0)
(-1.241e-13 8.27682e-15 0)
(-1.23017e-13 9.84148e-15 0)
(-1.22468e-13 1.16276e-14 0)
(-1.21686e-13 1.31326e-14 0)
(-1.20638e-13 1.38896e-14 0)
(-1.19455e-13 1.41335e-14 0)
(-1.17213e-13 1.40561e-14 0)
(-1.134e-13 1.39158e-14 0)
(-1.08343e-13 1.36114e-14 0)
(-1.03208e-13 1.26126e-14 0)
(-9.81851e-14 1.21187e-14 0)
(-9.3582e-14 1.0951e-14 0)
(-8.9264e-14 9.95882e-15 0)
(-8.39084e-14 8.8034e-15 0)
(-7.81304e-14 7.78283e-15 0)
(-7.20956e-14 6.93894e-15 0)
(-6.58466e-14 6.39887e-15 0)
(-5.95429e-14 6.47711e-15 0)
(-5.24649e-14 6.07692e-15 0)
(-4.47117e-14 5.47737e-15 0)
(-3.59437e-14 4.00781e-15 0)
(-2.60887e-14 2.22154e-15 0)
(-1.59662e-14 1.11168e-15 0)
(-5.15894e-15 5.13529e-16 0)
(-9.73985e-16 7.01264e-16 0)
(-3.07904e-15 1.97888e-15 0)
(-5.32423e-15 3.14252e-15 0)
(-7.64458e-15 4.40431e-15 0)
(-1.07296e-14 5.09481e-15 0)
(-1.43171e-14 6.07638e-15 0)