/*--------------------------------*- C++ -*----------------------------------*\
| =========                 |                                                 |
| \\      /  F ield         | OpenFOAM: The Open Source CFD Toolbox           |
|  \\    /   O peration     | Version:  v2012                                 |
|   \\  /    A nd           | Website:  www.openfoam.com                      |
|    \\/     M anipulation  |                                                 |
\*---------------------------------------------------------------------------*/
FoamFile
{
    version     2.0;
    format      ascii;
    class       volVectorField;
    location    "0";
    object      uRec;
}
// * * * * * * * * * * * * * * * * * * * * * * * * * * * * * * * * * * * * * //

dimensions      [0 1 -1 0 0 0 0];


internalField   nonuniform List<vector> 
4000
(
(1 -3.76406e-16 0)
(1 3.10462e-15 0)
(1 -1.89272e-15 0)
(1 4.096e-15 0)
(1 -1.59342e-15 0)
(1 4.95864e-16 0)
(1 1.61174e-15 0)
(1 -7.71045e-16 0)
(1 -9.40179e-16 0)
(1 -4.68899e-15 0)
(1 1.77455e-15 0)
(1 1.84956e-15 0)
(1 2.39383e-15 0)
(1 9.17294e-16 0)
(1 4.01585e-15 0)
(1 -2.04023e-15 0)
(1 -9.02978e-16 0)
(1 -3.54576e-15 0)
(1 5.13148e-16 0)
(1 -2.36077e-15 0)
(1 -3.62226e-15 0)
(1 -9.04668e-15 0)
(1 -3.73571e-16 0)
(1 -2.93876e-15 0)
(1 4.1273e-15 0)
(1 -5.4872e-16 0)
(1 3.00729e-15 0)
(1 1.97403e-15 0)
(1 1.24469e-15 0)
(1 3.25189e-15 0)
(1 2.55079e-15 0)
(1 -2.02942e-15 0)
(1 -3.34764e-15 0)
(1 5.37062e-16 0)
(1 2.10692e-15 0)
(1 4.70181e-15 0)
(1 6.79704e-15 0)
(1 4.37037e-15 0)
(1 -4.81699e-17 0)
(1 -3.75833e-15 0)
(1 -3.49622e-15 0)
(1 -2.01893e-15 0)
(1 -2.07717e-16 0)
(1 1.95602e-15 0)
(1 -1.37091e-15 0)
(1 6.76774e-17 0)
(1 -8.40784e-16 0)
(1 -1.76319e-16 0)
(1 -3.34025e-16 0)
(1 8.05452e-16 0)
(1 1.29289e-15 0)
(1 3.77146e-15 0)
(1 1.08328e-15 0)
(1 1.77795e-15 0)
(1 -7.03298e-16 0)
(1 -3.20334e-15 0)
(1 -1.97566e-15 0)
(1 1.9811e-15 0)
(1 1.73475e-15 0)
(1 2.24408e-15 0)
(1 2.33524e-15 0)
(1 1.26109e-15 0)
(1 1.93809e-15 0)
(1 -1.17535e-15 0)
(1 -5.12277e-16 0)
(1 -1.6049e-15 0)
(1 -1.55592e-15 0)
(1 1.31687e-15 0)
(1 -1.67272e-15 0)
(1 2.28239e-16 0)
(1 -3.45937e-15 0)
(1 -3.0177e-16 0)
(1 2.90726e-16 0)
(1 -2.56292e-15 0)
(1 -5.6387e-15 0)
(1 -2.05043e-15 0)
(1 -1.51426e-15 0)
(1 1.30684e-15 0)
(1 1.65124e-15 0)
(1 2.16024e-15 0)
(1 1.68854e-15 0)
(1 -9.02878e-16 0)
(1 4.70768e-16 0)
(1 -6.86354e-16 0)
(1 -1.57725e-15 0)
(1 -5.44038e-16 0)
(1 -1.39338e-15 0)
(1 1.03905e-15 0)
(1 1.98438e-15 0)
(1 3.46279e-15 0)
(1 -2.83059e-17 0)
(1 1.79176e-15 0)
(1 -3.52484e-15 0)
(1 -1.96911e-15 0)
(1 -8.09735e-16 0)
(1 -1.33042e-15 0)
(1 -1.6581e-15 0)
(1 -9.91784e-16 0)
(1 7.81096e-16 0)
(1 -3.3738e-16 0)
(1 2.40195e-15 0)
(1 -6.81633e-16 0)
(1 9.22646e-16 0)
(1 4.06727e-15 0)
(1 -8.40527e-17 0)
(1 -2.94852e-15 0)
(1 1.76416e-15 0)
(1 -2.39641e-15 0)
(1 -5.28711e-16 0)
(1 -4.35502e-15 0)
(1 1.31261e-15 0)
(1 2.40475e-15 0)
(1 6.24373e-15 0)
(1 6.52512e-15 0)
(1 5.17103e-15 0)
(1 -4.70155e-15 0)
(1 -4.64334e-15 0)
(1 -6.09859e-15 0)
(1 2.63811e-16 0)
(1 -4.44931e-15 0)
(1 -2.72553e-15 0)
(1 -7.67377e-15 0)
(1 -8.30762e-16 0)
(1 -5.22435e-15 0)
(1 3.98157e-15 0)
(1 -1.81279e-15 0)
(1 1.14121e-15 0)
(1 3.76541e-16 0)
(1 2.16996e-15 0)
(1 2.81222e-15 0)
(1 6.31926e-15 0)
(1 -5.49217e-16 0)
(1 -2.80983e-15 0)
(1 1.34986e-15 0)
(1 -2.36565e-17 0)
(1 3.88926e-15 0)
(1 4.82687e-15 0)
(1 4.91206e-15 0)
(1 -2.86321e-15 0)
(1 -5.44885e-15 0)
(1 -5.10624e-15 0)
(1 -1.84409e-15 0)
(1 8.45808e-16 0)
(1 9.2906e-16 0)
(1 -5.92453e-16 0)
(1 -2.96527e-15 0)
(1 -1.47864e-15 0)
(1 -4.04803e-16 0)
(1 2.41446e-15 0)
(1 -2.50493e-15 0)
(1 -2.08364e-15 0)
(1 8.14063e-16 0)
(1 -1.41912e-15 0)
(1 2.44126e-15 0)
(1 2.79437e-15 0)
(1 1.67335e-15 0)
(1 1.64901e-15 0)
(1 2.3491e-15 0)
(1 -1.6888e-15 0)
(1 5.32889e-16 0)
(1 -1.28927e-15 0)
(1 3.50729e-16 0)
(1 3.04359e-15 0)
(1 1.12006e-15 0)
(1 1.66359e-15 0)
(1 -1.98588e-15 0)
(1 -2.74773e-15 0)
(1 -5.25636e-16 0)
(1 -3.23501e-15 0)
(1 -1.06486e-15 0)
(1 -7.05325e-16 0)
(1 2.26495e-15 0)
(1 3.87246e-15 0)
(1 1.32316e-15 0)
(1 -9.9197e-16 0)
(1 -1.87229e-15 0)
(1 1.06258e-15 0)
(1 2.50325e-15 0)
(1 4.04042e-15 0)
(1 2.46396e-15 0)
(1 2.75283e-15 0)
(1 -3.97909e-15 0)
(1 5.63673e-17 0)
(1 2.24114e-15 0)
(1 7.93541e-16 0)
(1 1.11358e-15 0)
(1 -5.88982e-16 0)
(1 -1.50134e-15 0)
(1 -2.38528e-15 0)
(1 -2.48397e-16 0)
(1 6.63054e-16 0)
(1 2.79859e-15 0)
(1 -5.40621e-15 0)
(1 -2.57784e-15 0)
(1 -2.48343e-15 0)
(1 9.48431e-16 0)
(1 -1.9578e-15 0)
(1 4.5563e-16 0)
(1 -1.28433e-15 0)
(1 -1.75597e-15 0)
(1 7.04872e-16 0)
(1 -2.89997e-15 0)
(1 -2.00953e-15 0)
(1 -2.29882e-15 0)
(1 3.18771e-15 0)
(1 5.16182e-16 0)
(1 2.82873e-15 0)
(1 3.97306e-16 0)
(1 1.28267e-15 0)
(1 4.4826e-17 0)
(1 -4.68666e-16 0)
(1 3.11057e-15 0)
(1 3.60786e-15 0)
(1 1.00326e-14 0)
(1 1.70354e-15 0)
(1 -1.02725e-15 0)
(1 -6.1721e-15 0)
(1 -2.49284e-16 0)
(1 -1.71848e-15 0)
(1 -2.4483e-15 0)
(1 2.35279e-16 0)
(1 1.32766e-15 0)
(1 -5.22178e-15 0)
(1 -4.26339e-15 0)
(1 1.73369e-15 0)
(1 1.8452e-15 0)
(1 5.56441e-15 0)
(1 7.47704e-15 0)
(1 8.02502e-15 0)
(1 4.96388e-15 0)
(1 4.15993e-15 0)
(1 3.95776e-16 0)
(1 1.4893e-16 0)
(1 -3.36682e-15 0)
(1 -1.15173e-15 0)
(1 -4.67612e-16 0)
(1 3.62364e-16 0)
(1 4.4313e-15 0)
(1 -9.11157e-16 0)
(1 -1.6585e-15 0)
(1 -2.32814e-15 0)
(1 -2.44581e-15 0)
(1 -4.7253e-15 0)
(1 -2.96041e-15 0)
(1 -6.036e-16 0)
(1 -1.62241e-15 0)
(1 2.15677e-15 0)
(1 -1.46177e-16 0)
(1 -2.38907e-15 0)
(1 -2.35132e-15 0)
(1 1.68987e-16 0)
(1 9.98352e-16 0)
(1 2.62967e-15 0)
(1 2.54529e-15 0)
(1 5.35875e-15 0)
(1 6.95989e-15 0)
(1 2.82346e-15 0)
(1 -1.23003e-15 0)
(1 -4.07533e-15 0)
(1 -3.82387e-15 0)
(1 -1.03049e-15 0)
(1 2.57204e-15 0)
(1 1.33588e-15 0)
(1 1.32123e-15 0)
(1 1.12274e-15 0)
(1 -2.53253e-16 0)
(1 -1.39447e-15 0)
(1 -1.73796e-15 0)
(1 -1.25286e-15 0)
(1 -1.31343e-15 0)
(1 3.92874e-17 0)
(1 -3.94803e-16 0)
(1 -7.66911e-16 0)
(1 1.24665e-15 0)
(1 5.21584e-17 0)
(1 -5.71872e-16 0)
(1 5.21352e-16 0)
(1 -1.9915e-16 0)
(1 3.93387e-16 0)
(1 -3.6913e-16 0)
(1 -1.66752e-16 0)
(1 -2.43284e-15 0)
(1 -3.42231e-15 0)
(1 -3.04682e-16 0)
(1 2.4777e-15 0)
(1 6.92268e-16 0)
(1 1.96125e-15 0)
(1 -7.01814e-16 0)
(1 -3.36647e-15 0)
(1 -1.25459e-15 0)
(1 -3.99172e-16 0)
(1 -5.20863e-17 0)
(1 -1.11289e-15 0)
(1 -2.08998e-15 0)
(1 -1.84408e-15 0)
(1 -1.14341e-16 0)
(1 -2.11621e-15 0)
(1 -1.34359e-15 0)
(1 -1.99295e-15 0)
(1 -9.75014e-16 0)
(1 2.36892e-15 0)
(1 -5.53712e-15 0)
(1 -4.15285e-15 0)
(1 -6.95665e-15 0)
(1 4.60264e-15 0)
(1 4.31088e-15 0)
(1 5.88239e-15 0)
(1 2.32102e-16 0)
(1 -8.5101e-16 0)
(1 -1.32726e-15 0)
(1 4.17e-15 0)
(1 5.3116e-15 0)
(1 5.43589e-15 0)
(1 6.43322e-15 0)
(1 1.86848e-15 0)
(1 1.53726e-15 0)
(1 -3.09647e-15 0)
(1 -2.38376e-15 0)
(1 -7.03743e-15 0)
(1 -2.42634e-15 0)
(1 -5.48514e-17 0)
(1 5.36044e-16 0)
(1 2.55258e-16 0)
(1 4.85187e-15 0)
(1 3.33541e-15 0)
(1 2.68359e-15 0)
(1 4.5468e-15 0)
(1 7.7091e-15 0)
(1 9.00778e-15 0)
(1 4.88418e-15 0)
(1 2.56033e-15 0)
(1 -2.32937e-16 0)
(1 -2.69838e-16 0)
(1 -3.45493e-15 0)
(1 3.90772e-17 0)
(1 -1.81248e-15 0)
(1 8.4191e-16 0)
(1 -2.75354e-17 0)
(1 2.94038e-15 0)
(1 2.1251e-15 0)
(1 1.18685e-15 0)
(1 -2.73794e-15 0)
(1 -5.10938e-15 0)
(1 -2.65374e-15 0)
(1 -1.55781e-15 0)
(1 3.03767e-15 0)
(1 4.67595e-15 0)
(1 1.7031e-15 0)
(1 -1.82688e-15 0)
(1 2.25328e-15 0)
(1 1.69065e-15 0)
(1 3.06472e-16 0)
(1 2.18423e-16 0)
(1 -1.20109e-15 0)
(1 -4.30843e-16 0)
(1 2.39255e-15 0)
(1 9.28169e-16 0)
(1 -2.61977e-15 0)
(1 -3.97854e-15 0)
(1 -1.4462e-15 0)
(1 2.23161e-15 0)
(1 4.08774e-15 0)
(1 2.0158e-15 0)
(1 3.29678e-15 0)
(1 8.27419e-16 0)
(1 -2.02536e-15 0)
(1 -3.27326e-15 0)
(1 -4.39477e-15 0)
(1 -3.12958e-15 0)
(1 -1.44882e-15 0)
(1 -1.74756e-15 0)
(1 -8.61467e-16 0)
(1 -2.51067e-15 0)
(1 -2.80109e-15 0)
(1 -8.77282e-16 0)
(1 9.24719e-16 0)
(1 1.37657e-15 0)
(1 -1.10445e-15 0)
(1 2.79303e-15 0)
(1 -1.44441e-15 0)
(1 1.35151e-15 0)
(1 2.39043e-15 0)
(1 -2.56735e-15 0)
(1 -1.27355e-15 0)
(1 5.32423e-16 0)
(1 1.86328e-15 0)
(1 5.07989e-15 0)
(1 2.49575e-15 0)
(1 2.05329e-15 0)
(1 1.96154e-16 0)
(1 -6.14391e-17 0)
(1 -1.08438e-15 0)
(1 8.75441e-16 0)
(1 -2.56809e-16 0)
(1 -2.42679e-15 0)
(1 -4.77641e-15 0)
(1 -5.49922e-15 0)
(1 -4.80497e-15 0)
(1 -2.5825e-15 0)
(1 -6.68518e-16 0)
(1 3.49388e-15 0)
(1 -1.8115e-15 0)
(1 -4.99986e-15 0)
(1 -6.07599e-16 0)
(1 3.32603e-15 0)
(1 1.5143e-15 0)
(1 8.5889e-16 0)
(1 -3.37325e-15 0)
(1 -5.89864e-15 0)
(1 -3.47141e-15 0)
(1 4.50013e-15 0)
(1 8.88956e-16 0)
(1 7.6338e-15 0)
(1 8.20009e-16 0)
(1 7.63167e-15 0)
(1 2.89098e-15 0)
(1 1.67329e-15 0)
(1 -8.38852e-15 0)
(1 -6.23354e-15 0)
(1 -9.35307e-15 0)
(1 -1.75442e-15 0)
(1 -2.70865e-15 0)
(1 6.2579e-15 0)
(1 1.06873e-14 0)
(1 9.58739e-15 0)
(1 5.83685e-15 0)
(1 6.43139e-15 0)
(1 4.05952e-15 0)
(1 6.91685e-15 0)
(1 3.72535e-15 0)
(1 9.84757e-16 0)
(1 2.06421e-15 0)
(1 2.41113e-15 0)
(1 -4.22105e-16 0)
(1 -3.80015e-15 0)
(1 -6.63647e-15 0)
(1 -2.33855e-15 0)
(1 -4.88761e-15 0)
(1 -2.73287e-16 0)
(1 1.01004e-15 0)
(1 -2.19055e-15 0)
(1 -3.03284e-15 0)
(1 -2.72651e-15 0)
(1 -2.1591e-15 0)
(1 -1.66112e-15 0)
(1 2.0429e-16 0)
(1 1.57008e-15 0)
(1 2.08776e-15 0)
(1 3.29862e-15 0)
(1 4.4973e-15 0)
(1 -9.77754e-16 0)
(1 -4.15774e-16 0)
(1 -1.47429e-15 0)
(1 1.12659e-15 0)
(1 3.34401e-15 0)
(1 4.7282e-15 0)
(1 3.96547e-15 0)
(1 2.54191e-17 0)
(1 1.26863e-15 0)
(1 7.32955e-16 0)
(1 2.12601e-17 0)
(1 -1.52163e-15 0)
(1 2.06555e-15 0)
(1 1.79283e-15 0)
(1 1.25242e-15 0)
(1 1.25093e-18 0)
(1 3.21174e-17 0)
(1 -3.76167e-15 0)
(1 -2.94906e-16 0)
(1 -1.9918e-15 0)
(1 3.17336e-16 0)
(1 1.09705e-15 0)
(1 9.22883e-16 0)
(1 -2.04935e-15 0)
(1 2.03105e-15 0)
(1 1.78312e-15 0)
(1 1.93478e-15 0)
(1 1.6268e-15 0)
(1 5.38823e-15 0)
(1 1.57951e-15 0)
(1 1.00751e-15 0)
(1 -1.63048e-15 0)
(1 9.3509e-16 0)
(1 2.201e-15 0)
(1 1.69814e-15 0)
(1 3.65224e-15 0)
(1 1.51425e-15 0)
(1 -1.55399e-15 0)
(1 -2.76908e-17 0)
(1 -3.75749e-15 0)
(1 1.07924e-15 0)
(1 -1.33562e-15 0)
(1 -1.08883e-16 0)
(1 1.57057e-15 0)
(1 -2.17852e-15 0)
(1 -2.42149e-15 0)
(1 -4.23708e-15 0)
(1 -1.58122e-15 0)
(1 -1.12489e-15 0)
(1 2.2506e-16 0)
(1 -2.10935e-15 0)
(1 9.10025e-16 0)
(1 -2.95157e-15 0)
(1 3.47836e-16 0)
(1 -1.45822e-15 0)
(1 2.71663e-15 0)
(1 -4.8603e-15 0)
(1 -3.77939e-15 0)
(1 -1.18007e-15 0)
(1 1.49095e-15 0)
(1 2.10017e-15 0)
(1 1.73235e-15 0)
(1 4.30481e-15 0)
(1 -8.22703e-17 0)
(1 5.03742e-15 0)
(1 3.11308e-15 0)
(1 2.94716e-15 0)
(1 -2.67631e-15 0)
(1 -7.67904e-16 0)
(1 -3.50596e-15 0)
(1 2.4795e-15 0)
(1 6.10839e-15 0)
(1 6.69705e-15 0)
(1 2.84174e-15 0)
(1 4.43253e-15 0)
(1 5.25238e-16 0)
(1 2.991e-15 0)
(1 6.43118e-15 0)
(1 5.26265e-15 0)
(1 7.1818e-15 0)
(1 -2.776e-15 0)
(1 1.12376e-15 0)
(1 -3.15342e-15 0)
(1 1.22907e-15 0)
(1 1.36324e-15 0)
(1 1.27006e-15 0)
(1 2.22021e-15 0)
(1 1.20608e-15 0)
(1 -2.30085e-15 0)
(1 -1.81001e-15 0)
(1 -2.29223e-15 0)
(1 -9.18207e-16 0)
(1 3.78871e-15 0)
(1 3.09333e-15 0)
(1 1.80377e-15 0)
(1 -3.60894e-15 0)
(1 -2.55167e-15 0)
(1 -2.43473e-15 0)
(1 7.09165e-16 0)
(1 2.84133e-15 0)
(1 3.77018e-15 0)
(1 3.80352e-15 0)
(1 -9.10517e-16 0)
(1 7.01078e-17 0)
(1 3.62798e-15 0)
(1 3.662e-15 0)
(1 6.48544e-16 0)
(1 2.87867e-16 0)
(1 8.2143e-15 0)
(1 3.48969e-15 0)
(1 3.69686e-15 0)
(1 3.55684e-16 0)
(1 -7.38117e-17 0)
(1 -3.32073e-15 0)
(1 6.976e-17 0)
(1 3.63094e-15 0)
(1 4.60732e-15 0)
(1 7.23202e-15 0)
(1 9.90156e-15 0)
(1 1.0575e-14 0)
(1 3.59456e-15 0)
(1 -2.61853e-15 0)
(1 -7.05845e-16 0)
(1 -1.59728e-15 0)
(1 -3.69031e-15 0)
(1 -4.355e-15 0)
(1 -4.3062e-15 0)
(1 2.92859e-17 0)
(1 4.97955e-16 0)
(1 8.17963e-15 0)
(1 3.87014e-15 0)
(1 3.44051e-15 0)
(1 3.95794e-15 0)
(1 -9.31675e-16 0)
(1 -1.39025e-15 0)
(1 -1.02022e-15 0)
(1 -2.33671e-15 0)
(1 -7.60876e-16 0)
(1 -1.8412e-15 0)
(1 -1.25628e-15 0)
(1 -2.40381e-15 0)
(1 1.7243e-17 0)
(1 -6.75979e-16 0)
(1 8.72443e-17 0)
(1 3.38183e-16 0)
(1 2.71916e-16 0)
(1 2.71127e-15 0)
(1 4.01761e-15 0)
(1 6.29881e-15 0)
(1 4.61079e-15 0)
(1 -1.9527e-15 0)
(1 -1.75377e-15 0)
(1 3.01357e-15 0)
(1 3.3068e-15 0)
(1 -3.17477e-15 0)
(1 -8.87896e-16 0)
(1 -6.14052e-15 0)
(1 -4.54371e-15 0)
(1 7.92495e-16 0)
(1 3.22237e-15 0)
(1 1.26345e-15 0)
(1 -7.42868e-16 0)
(1 1.72123e-15 0)
(1 1.2132e-15 0)
(1 4.66695e-15 0)
(1 1.06904e-15 0)
(1 4.76473e-15 0)
(1 2.37682e-15 0)
(1 2.96763e-15 0)
(1 1.04369e-14 0)
(1 3.05462e-15 0)
(1 6.06125e-15 0)
(1 -1.09216e-15 0)
(1 -5.19847e-15 0)
(1 -6.51789e-15 0)
(1 -2.63971e-15 0)
(1 -1.39043e-15 0)
(1 6.21362e-15 0)
(1 4.72449e-15 0)
(1 6.49954e-15 0)
(1 8.33051e-15 0)
(1 3.29525e-15 0)
(1 -3.72577e-15 0)
(1 -3.84084e-15 0)
(1 4.60203e-16 0)
(1 2.31799e-15 0)
(1 6.8354e-16 0)
(1 2.26123e-15 0)
(1 2.77686e-15 0)
(1 -1.05546e-16 0)
(1 2.65262e-15 0)
(1 1.65284e-15 0)
(1 5.91851e-15 0)
(1 4.06138e-15 0)
(1 1.47486e-16 0)
(1 -6.39786e-15 0)
(1 -6.80797e-15 0)
(1 -1.18023e-15 0)
(1 6.61883e-15 0)
(1 4.72769e-15 0)
(1 5.2323e-15 0)
(1 1.4378e-15 0)
(1 -1.98988e-15 0)
(1 -1.4265e-15 0)
(1 -5.40018e-16 0)
(1 2.56164e-15 0)
(1 2.66828e-15 0)
(1 1.55778e-15 0)
(1 5.26728e-16 0)
(1 3.80132e-15 0)
(1 4.63769e-15 0)
(1 4.28513e-15 0)
(1 1.06698e-15 0)
(1 8.26819e-16 0)
(1 -6.58683e-16 0)
(1 3.8194e-16 0)
(1 -3.21979e-17 0)
(1 3.21646e-15 0)
(1 1.41909e-15 0)
(1 2.71493e-15 0)
(1 6.61654e-16 0)
(1 -2.771e-15 0)
(1 -1.31297e-15 0)
(1 1.35422e-15 0)
(1 2.9459e-15 0)
(1 2.55645e-15 0)
(1 3.90642e-15 0)
(1 4.17675e-15 0)
(1 2.32803e-15 0)
(1 4.68864e-15 0)
(1 3.79062e-15 0)
(1 3.75099e-15 0)
(1 2.85087e-15 0)
(1 7.00529e-16 0)
(1 1.26064e-15 0)
(1 2.04432e-15 0)
(1 3.92234e-15 0)
(1 3.27062e-15 0)
(1 1.22289e-15 0)
(1 2.32561e-15 0)
(1 1.04612e-15 0)
(1 3.48054e-15 0)
(1 2.57401e-15 0)
(1 1.81946e-15 0)
(1 1.68928e-15 0)
(1 2.75744e-15 0)
(1 6.00993e-15 0)
(1 5.46939e-15 0)
(1 5.06833e-15 0)
(1 5.94163e-15 0)
(1 -2.51464e-15 0)
(1 1.94141e-15 0)
(1 -2.91354e-15 0)
(1 4.78687e-15 0)
(1 -1.09228e-15 0)
(1 -2.64804e-15 0)
(1 -3.91373e-16 0)
(1 -4.38546e-15 0)
(1 -1.63625e-15 0)
(1 -2.17962e-15 0)
(1 -3.71314e-15 0)
(1 -2.73695e-15 0)
(1 1.04894e-15 0)
(1 7.11212e-15 0)
(1 6.26942e-15 0)
(1 4.84778e-15 0)
(1 2.05808e-15 0)
(1 4.1163e-15 0)
(1 3.15051e-15 0)
(1 9.32712e-15 0)
(1 -1.71173e-15 0)
(1 -2.30024e-15 0)
(1 -5.33047e-15 0)
(1 -2.34387e-15 0)
(1 -4.40651e-15 0)
(1 4.62379e-15 0)
(1 2.95744e-15 0)
(1 5.97198e-15 0)
(1 -2.59621e-16 0)
(1 -4.81949e-16 0)
(1 2.84622e-15 0)
(1 2.02578e-15 0)
(1 -3.32201e-16 0)
(1 -1.08223e-15 0)
(1 -1.56265e-15 0)
(1 3.22244e-16 0)
(1 8.04252e-16 0)
(1 3.91437e-15 0)
(1 6.51321e-15 0)
(1 -1.18583e-15 0)
(1 -1.84711e-15 0)
(1 -2.26627e-15 0)
(1 1.31237e-16 0)
(1 3.40669e-15 0)
(1 5.90774e-15 0)
(1 3.72523e-15 0)
(1 -5.57362e-16 0)
(1 1.2066e-15 0)
(1 6.60657e-17 0)
(1 7.19607e-16 0)
(1 -5.72424e-16 0)
(1 2.3079e-15 0)
(1 8.79152e-15 0)
(1 6.21241e-15 0)
(1 3.16214e-15 0)
(1 5.16966e-16 0)
(1 4.77053e-15 0)
(1 2.48968e-15 0)
(1 -2.25657e-15 0)
(1 1.05152e-15 0)
(1 5.89061e-15 0)
(1 3.78885e-15 0)
(1 4.67704e-15 0)
(1 8.6438e-16 0)
(1 3.8067e-15 0)
(1 2.77593e-15 0)
(1 3.85422e-15 0)
(1 2.24932e-15 0)
(1 2.54252e-16 0)
(1 -2.9689e-15 0)
(1 2.24804e-15 0)
(1 6.09275e-15 0)
(1 4.09128e-15 0)
(1 3.74597e-15 0)
(1 5.19808e-15 0)
(1 6.54201e-15 0)
(1 5.26321e-15 0)
(1 5.45286e-15 0)
(1 1.92633e-15 0)
(1 6.05356e-17 0)
(1 -2.10034e-15 0)
(1 -2.29228e-15 0)
(1 -1.0158e-15 0)
(1 1.5436e-15 0)
(1 3.29985e-15 0)
(1 2.99427e-15 0)
(1 5.84184e-16 0)
(1 7.52416e-16 0)
(1 7.08268e-16 0)
(1 1.2375e-15 0)
(1 3.17743e-15 0)
(1 -7.97617e-16 0)
(1 1.93162e-15 0)
(1 1.76516e-15 0)
(1 1.84501e-15 0)
(1 2.93319e-15 0)
(1 4.08002e-15 0)
(1 7.0942e-15 0)
(1 5.74761e-15 0)
(1 1.0367e-14 0)
(1 -1.59622e-15 0)
(1 1.05547e-15 0)
(1 -9.72841e-16 0)
(1 -7.0705e-15 0)
(1 -3.45402e-15 0)
(1 -3.70656e-15 0)
(1 7.63347e-16 0)
(1 -3.51399e-16 0)
(1 -4.55653e-15 0)
(1 -1.02313e-15 0)
(1 -6.35022e-17 0)
(1 4.88462e-15 0)
(1 3.59072e-15 0)
(1 8.48616e-15 0)
(1 1.32524e-16 0)
(1 6.84781e-15 0)
(1 2.31312e-15 0)
(1 1.33066e-14 0)
(1 3.35647e-15 0)
(1 -4.0618e-16 0)
(1 -3.639e-15 0)
(1 -5.50758e-17 0)
(1 1.20806e-15 0)
(1 2.41508e-15 0)
(1 -1.97876e-15 0)
(1 6.95833e-16 0)
(1 -2.84075e-15 0)
(1 -1.74606e-15 0)
(1 -4.50138e-15 0)
(1 -2.91663e-15 0)
(1 -8.93886e-15 0)
(1 -2.63192e-15 0)
(1 -1.52864e-15 0)
(1 5.69095e-15 0)
(1 2.16004e-15 0)
(1 5.54898e-15 0)
(1 3.14716e-15 0)
(1 2.02767e-15 0)
(1 1.86359e-15 0)
(1 -1.93474e-16 0)
(1 -1.08055e-15 0)
(1 6.02553e-15 0)
(1 4.97495e-15 0)
(1 9.24223e-15 0)
(1 1.19904e-14 0)
(1 1.25055e-14 0)
(1 4.37588e-15 0)
(1 -2.78685e-15 0)
(1 -6.20458e-15 0)
(1 -5.97342e-15 0)
(1 -1.07117e-15 0)
(1 3.31727e-15 0)
(1 6.68697e-15 0)
(1 3.82755e-15 0)
(1 1.06835e-15 0)
(1 5.07685e-16 0)
(1 2.56745e-15 0)
(1 6.31642e-15 0)
(1 4.21239e-15 0)
(1 4.80704e-15 0)
(1 3.34256e-15 0)
(1 3.11054e-15 0)
(1 -3.25475e-15 0)
(1 -3.70992e-15 0)
(1 6.27492e-16 0)
(1 6.92526e-15 0)
(1 1.15379e-14 0)
(1 1.4231e-14 0)
(1 1.08238e-14 0)
(1 1.20793e-14 0)
(1 4.61963e-15 0)
(1 8.43979e-15 0)
(1 4.68173e-15 0)
(1 1.52375e-15 0)
(1 -2.6577e-15 0)
(1 -1.81907e-15 0)
(1 5.71098e-16 0)
(1 1.28612e-15 0)
(1 2.78785e-15 0)
(1 5.2486e-15 0)
(1 2.2016e-15 0)
(1 7.2657e-15 0)
(1 2.76335e-15 0)
(1 6.94444e-16 0)
(1 -2.26511e-15 0)
(1 -3.542e-15 0)
(1 -7.11488e-16 0)
(1 -4.72102e-16 0)
(1 1.25217e-15 0)
(1 6.53499e-16 0)
(1 9.84525e-16 0)
(1 2.79047e-16 0)
(1 4.68004e-15 0)
(1 4.45622e-15 0)
(1 1.04878e-14 0)
(1 7.35085e-15 0)
(1 1.19923e-14 0)
(1 1.46327e-14 0)
(1 1.6246e-14 0)
(1 1.67076e-14 0)
(1 1.56754e-15 0)
(1 1.00101e-15 0)
(1 3.63641e-15 0)
(1 -1.74903e-16 0)
(1 -4.78795e-15 0)
(1 -2.29721e-15 0)
(1 4.4182e-17 0)
(1 4.94088e-15 0)
(1 1.08066e-16 0)
(1 -1.76554e-15 0)
(1 2.07285e-15 0)
(1 1.92577e-15 0)
(1 2.96473e-15 0)
(1 -1.06555e-15 0)
(1 1.43795e-16 0)
(1 -1.84578e-15 0)
(1 4.39434e-15 0)
(1 4.24077e-15 0)
(1 1.26995e-16 0)
(1 -7.3284e-15 0)
(1 -4.41907e-15 0)
(1 -2.90023e-15 0)
(1 3.12463e-15 0)
(1 2.08004e-15 0)
(1 4.81434e-15 0)
(1 3.11684e-15 0)
(1 3.44635e-15 0)
(1 -3.59859e-15 0)
(1 -4.24944e-16 0)
(1 -9.6897e-16 0)
(1 -2.35689e-15 0)
(1 -4.44114e-15 0)
(1 -2.07973e-15 0)
(1 -4.69644e-16 0)
(1 -2.64228e-15 0)
(1 7.68766e-16 0)
(1 -6.26969e-16 0)
(1 1.56224e-15 0)
(1 -2.12724e-15 0)
(1 2.20263e-15 0)
(1 2.4512e-15 0)
(1 7.1881e-15 0)
(1 5.71996e-15 0)
(1 8.01793e-15 0)
(1 1.91778e-15 0)
(1 3.52808e-15 0)
(1 -2.69518e-16 0)
(1 -2.20921e-15 0)
(1 3.19388e-15 0)
(1 1.93953e-15 0)
(1 7.3755e-15 0)
(1 4.26897e-15 0)
(1 3.07896e-15 0)
(1 9.62619e-16 0)
(1 3.79062e-15 0)
(1 5.27533e-15 0)
(1 4.40887e-15 0)
(1 5.69671e-15 0)
(1 4.38696e-15 0)
(1 5.32013e-15 0)
(1 5.06642e-15 0)
(1 4.76034e-15 0)
(1 6.51633e-15 0)
(1 7.87751e-15 0)
(1 1.6679e-15 0)
(1 1.56566e-15 0)
(1 7.46023e-15 0)
(1 9.34972e-15 0)
(1 1.16076e-14 0)
(1 8.21978e-15 0)
(1 3.45702e-15 0)
(1 4.38966e-15 0)
(1 1.06365e-16 0)
(1 2.4581e-15 0)
(1 -7.253e-16 0)
(1 2.41596e-15 0)
(1 5.01533e-15 0)
(1 5.58724e-15 0)
(1 7.00811e-15 0)
(1 5.078e-15 0)
(1 2.72917e-15 0)
(1 1.22179e-15 0)
(1 -1.72328e-15 0)
(1 -2.10181e-15 0)
(1 -1.43969e-15 0)
(1 4.71859e-16 0)
(1 4.62714e-15 0)
(1 3.58302e-17 0)
(1 2.04201e-15 0)
(1 2.05202e-15 0)
(1 2.31798e-15 0)
(1 4.08825e-15 0)
(1 5.81013e-15 0)
(1 4.28042e-15 0)
(1 9.40347e-15 0)
(1 5.09824e-15 0)
(1 1.3497e-14 0)
(1 1.35532e-14 0)
(1 2.20834e-14 0)
(1 1.81753e-14 0)
(1 3.55266e-16 0)
(1 -1.38468e-15 0)
(1 -9.58098e-16 0)
(1 2.40957e-15 0)
(1 -1.79247e-15 0)
(1 -1.26337e-15 0)
(1 6.89042e-16 0)
(1 -1.45373e-15 0)
(1 7.79751e-16 0)
(1 -8.01222e-15 0)
(1 -4.41158e-15 0)
(1 -4.06851e-15 0)
(1 -8.25399e-16 0)
(1 8.87327e-17 0)
(1 6.97602e-15 0)
(1 7.47158e-15 0)
(1 1.01734e-14 0)
(1 -2.00692e-15 0)
(1 3.12829e-16 0)
(1 -4.89238e-15 0)
(1 1.57939e-15 0)
(1 -2.31768e-15 0)
(1 -2.13427e-15 0)
(1 -6.4126e-15 0)
(1 -2.67715e-15 0)
(1 -8.28173e-16 0)
(1 4.43845e-15 0)
(1 1.94148e-15 0)
(1 3.89619e-15 0)
(1 2.15757e-16 0)
(1 1.24098e-15 0)
(1 -6.97241e-15 0)
(1 -2.92756e-15 0)
(1 -1.55666e-15 0)
(1 1.3573e-15 0)
(1 1.12308e-15 0)
(1 2.22547e-15 0)
(1 4.66241e-15 0)
(1 2.66136e-15 0)
(1 2.34734e-15 0)
(1 4.91472e-15 0)
(1 -1.02069e-15 0)
(1 6.77829e-15 0)
(1 1.4109e-15 0)
(1 3.98325e-16 0)
(1 8.80994e-16 0)
(1 3.67385e-15 0)
(1 3.54466e-16 0)
(1 3.49826e-15 0)
(1 2.52202e-15 0)
(1 5.30149e-15 0)
(1 4.1294e-15 0)
(1 7.263e-15 0)
(1 3.88971e-15 0)
(1 7.48923e-15 0)
(1 3.12849e-15 0)
(1 6.38128e-15 0)
(1 1.43348e-15 0)
(1 6.27949e-15 0)
(1 9.69482e-16 0)
(1 8.60222e-15 0)
(1 1.00488e-15 0)
(1 6.45212e-15 0)
(1 3.38139e-15 0)
(1 4.84862e-15 0)
(1 2.53342e-15 0)
(1 7.93171e-15 0)
(1 4.12537e-15 0)
(1 9.19907e-15 0)
(1 4.92863e-15 0)
(1 9.94194e-15 0)
(1 3.38265e-15 0)
(1 1.62732e-15 0)
(1 -1.00912e-15 0)
(1 -9.87446e-16 0)
(1 4.62108e-15 0)
(1 8.83168e-15 0)
(1 8.38877e-15 0)
(1 7.02429e-15 0)
(1 2.53462e-15 0)
(1 4.32441e-15 0)
(1 -1.9978e-15 0)
(1 4.63147e-16 0)
(1 -1.0418e-15 0)
(1 1.2456e-15 0)
(1 1.60843e-15 0)
(1 8.67624e-16 0)
(1 3.43642e-15 0)
(1 2.64133e-15 0)
(1 1.77268e-15 0)
(1 1.80222e-15 0)
(1 3.58198e-15 0)
(1 3.3483e-15 0)
(1 1.60815e-15 0)
(1 4.3747e-15 0)
(1 3.88431e-15 0)
(1 8.64028e-15 0)
(1 9.43905e-15 0)
(1 1.53818e-14 0)
(1 1.41165e-14 0)
(1 3.17625e-15 0)
(1 -5.68383e-15 0)
(1 2.10364e-15 0)
(1 -1.53108e-15 0)
(1 1.78094e-15 0)
(1 -1.75903e-15 0)
(1 -3.19027e-15 0)
(1 -2.9168e-15 0)
(1 -3.22742e-16 0)
(1 4.10425e-15 0)
(1 3.55067e-15 0)
(1 4.08898e-15 0)
(1 6.77641e-16 0)
(1 -3.1448e-15 0)
(1 -2.05398e-15 0)
(1 4.02492e-15 0)
(1 3.11709e-15 0)
(1 -3.27833e-15 0)
(1 -2.47286e-15 0)
(1 -7.33373e-15 0)
(1 -2.04629e-15 0)
(1 -1.45053e-15 0)
(1 3.82147e-16 0)
(1 2.54636e-15 0)
(1 1.29766e-15 0)
(1 3.53756e-15 0)
(1 1.08355e-15 0)
(1 1.73945e-15 0)
(1 4.65316e-15 0)
(1 3.30171e-15 0)
(1 3.08825e-17 0)
(1 -3.10317e-15 0)
(1 -2.70152e-15 0)
(1 -3.11995e-15 0)
(1 -1.98902e-15 0)
(1 -5.35646e-15 0)
(1 -2.05472e-15 0)
(1 -5.35061e-16 0)
(1 2.74561e-15 0)
(1 1.33207e-15 0)
(1 5.2167e-15 0)
(1 8.47873e-16 0)
(1 1.58108e-15 0)
(1 -4.45426e-15 0)
(1 1.65922e-15 0)
(1 7.00827e-15 0)
(1 1.05301e-14 0)
(1 7.44703e-15 0)
(1 3.78845e-15 0)
(1 1.42495e-15 0)
(1 1.74615e-15 0)
(1 4.6574e-15 0)
(1 5.39038e-15 0)
(1 1.09448e-14 0)
(1 8.73653e-15 0)
(1 3.80086e-15 0)
(1 4.8121e-16 0)
(1 7.4466e-16 0)
(1 2.08237e-15 0)
(1 4.06823e-15 0)
(1 5.83353e-15 0)
(1 8.18627e-15 0)
(1 3.93268e-15 0)
(1 -1.03858e-15 0)
(1 3.60053e-15 0)
(1 3.36269e-15 0)
(1 5.16764e-15 0)
(1 5.6961e-15 0)
(1 2.97416e-15 0)
(1 6.67774e-15 0)
(1 5.97684e-15 0)
(1 3.85172e-15 0)
(1 5.40995e-15 0)
(1 7.65112e-16 0)
(1 2.26724e-15 0)
(1 1.85181e-15 0)
(1 5.19122e-15 0)
(1 7.18802e-15 0)
(1 5.19778e-15 0)
(1 2.97334e-15 0)
(1 6.64238e-15 0)
(1 5.53208e-15 0)
(1 3.96131e-15 0)
(1 1.80347e-15 0)
(1 1.14136e-15 0)
(1 -2.20024e-15 0)
(1 -2.33294e-15 0)
(1 3.34979e-15 0)
(1 1.64695e-15 0)
(1 3.56608e-16 0)
(1 1.51392e-15 0)
(1 3.40415e-15 0)
(1 5.24194e-15 0)
(1 5.15627e-15 0)
(1 7.06624e-15 0)
(1 1.09145e-14 0)
(1 9.59074e-15 0)
(1 9.86066e-15 0)
(1 6.24911e-15 0)
(1 8.97841e-15 0)
(1 4.2832e-15 0)
(1 -5.44158e-16 0)
(1 -2.13963e-15 0)
(1 -2.54139e-15 0)
(1 1.61252e-15 0)
(1 1.60744e-15 0)
(1 -1.18958e-15 0)
(1 4.3792e-16 0)
(1 -1.37089e-15 0)
(1 3.65727e-15 0)
(1 3.91449e-15 0)
(1 6.6464e-15 0)
(1 6.02514e-15 0)
(1 2.68043e-15 0)
(1 -3.07129e-15 0)
(1 -5.17313e-15 0)
(1 -7.08144e-15 0)
(1 -3.83289e-15 0)
(1 -9.73395e-16 0)
(1 -9.32582e-16 0)
(1 -1.61718e-15 0)
(1 -6.6212e-15 0)
(1 -3.01694e-15 0)
(1 -2.32736e-15 0)
(1 1.27012e-16 0)
(1 1.17802e-15 0)
(1 4.76015e-15 0)
(1 1.70973e-15 0)
(1 -1.44503e-15 0)
(1 -3.94251e-15 0)
(1 -3.70855e-15 0)
(1 -2.69844e-15 0)
(1 -3.53241e-15 0)
(1 -1.36765e-15 0)
(1 -1.49541e-15 0)
(1 1.80163e-15 0)
(1 3.82135e-15 0)
(1 1.09546e-15 0)
(1 3.50042e-15 0)
(1 1.10206e-15 0)
(1 -4.46208e-15 0)
(1 1.72624e-15 0)
(1 -1.83987e-15 0)
(1 -5.56165e-16 0)
(1 2.20721e-15 0)
(1 5.50988e-15 0)
(1 5.32199e-15 0)
(1 1.21112e-14 0)
(1 5.60658e-15 0)
(1 6.47767e-15 0)
(1 6.27839e-16 0)
(1 3.13656e-15 0)
(1 1.25117e-15 0)
(1 5.86271e-15 0)
(1 4.5931e-15 0)
(1 3.9385e-15 0)
(1 2.23984e-15 0)
(1 9.81417e-16 0)
(1 -1.88398e-15 0)
(1 1.19156e-15 0)
(1 1.0937e-16 0)
(1 8.26444e-15 0)
(1 1.22293e-14 0)
(1 1.30697e-14 0)
(1 8.68558e-15 0)
(1 3.31182e-15 0)
(1 -3.09366e-15 0)
(1 2.03856e-16 0)
(1 -1.48881e-16 0)
(1 2.80054e-15 0)
(1 1.73388e-15 0)
(1 2.99578e-15 0)
(1 4.95177e-15 0)
(1 7.81996e-15 0)
(1 7.89549e-15 0)
(1 1.52745e-15 0)
(1 -2.70391e-15 0)
(1 3.23194e-15 0)
(1 1.5334e-15 0)
(1 3.97094e-15 0)
(1 2.78731e-15 0)
(1 5.60304e-15 0)
(1 1.99149e-15 0)
(1 4.57534e-15 0)
(1 3.02352e-15 0)
(1 2.89153e-15 0)
(1 -1.97145e-18 0)
(1 1.17251e-15 0)
(1 -2.23157e-16 0)
(1 2.13736e-15 0)
(1 1.89438e-15 0)
(1 1.39864e-15 0)
(1 -5.45836e-16 0)
(1 2.11701e-15 0)
(1 1.67319e-15 0)
(1 7.36251e-15 0)
(1 7.8865e-15 0)
(1 8.4736e-15 0)
(1 5.84171e-15 0)
(1 8.18585e-15 0)
(1 -3.28473e-15 0)
(1 8.10829e-15 0)
(1 -4.62462e-15 0)
(1 -2.18124e-15 0)
(1 2.23435e-16 0)
(1 -4.5735e-16 0)
(1 -1.36599e-15 0)
(1 3.99145e-15 0)
(1 5.33393e-15 0)
(1 3.59238e-15 0)
(1 1.39684e-15 0)
(1 3.58816e-15 0)
(1 6.51549e-16 0)
(1 4.04285e-15 0)
(1 -4.08532e-15 0)
(1 -7.36729e-15 0)
(1 -5.15329e-15 0)
(1 -3.10448e-16 0)
(1 -1.56034e-15 0)
(1 2.6134e-16 0)
(1 -3.6131e-15 0)
(1 -6.39209e-15 0)
(1 -5.06695e-15 0)
(1 -7.01123e-16 0)
(1 5.20624e-15 0)
(1 -3.70035e-15 0)
(1 -7.74681e-17 0)
(1 -1.05731e-15 0)
(1 -2.45084e-15 0)
(1 -3.55744e-15 0)
(1 -6.79639e-16 0)
(1 -7.40138e-16 0)
(1 -1.57591e-15 0)
(1 -2.71258e-15 0)
(1 4.62841e-15 0)
(1 9.18569e-15 0)
(1 5.6581e-15 0)
(1 2.68092e-15 0)
(1 3.23637e-16 0)
(1 -2.276e-15 0)
(1 -5.60546e-15 0)
(1 -2.24775e-15 0)
(1 -2.00107e-15 0)
(1 7.2743e-15 0)
(1 5.19108e-15 0)
(1 4.83736e-15 0)
(1 3.6561e-15 0)
(1 6.01945e-15 0)
(1 4.57523e-15 0)
(1 5.27632e-15 0)
(1 -9.57092e-16 0)
(1 5.41224e-16 0)
(1 4.04927e-15 0)
(1 -2.54068e-15 0)
(1 3.55605e-15 0)
(1 6.68567e-15 0)
(1 1.08149e-14 0)
(1 9.59668e-15 0)
(1 7.79172e-15 0)
(1 3.59752e-15 0)
(1 1.92865e-15 0)
(1 2.84821e-16 0)
(1 1.44555e-15 0)
(1 6.40126e-15 0)
(1 3.7928e-15 0)
(1 1.15432e-14 0)
(1 2.85611e-15 0)
(1 4.28171e-15 0)
(1 1.23935e-15 0)
(1 1.87783e-15 0)
(1 4.25252e-15 0)
(1 3.68925e-15 0)
(1 5.27712e-15 0)
(1 1.04127e-14 0)
(1 7.97324e-15 0)
(1 6.78577e-15 0)
(1 3.5699e-15 0)
(1 5.74047e-15 0)
(1 7.3471e-15 0)
(1 7.82894e-15 0)
(1 1.52618e-15 0)
(1 1.32431e-15 0)
(1 1.84943e-15 0)
(1 3.38852e-15 0)
(1 2.85624e-15 0)
(1 3.64621e-15 0)
(1 1.21271e-15 0)
(1 3.01136e-15 0)
(1 1.74805e-15 0)
(1 3.80598e-15 0)
(1 1.12445e-15 0)
(1 2.785e-15 0)
(1 4.36516e-16 0)
(1 1.71032e-15 0)
(1 3.64905e-16 0)
(1 4.40869e-15 0)
(1 8.25804e-15 0)
(1 7.12541e-15 0)
(1 1.06825e-14 0)
(1 1.13469e-14 0)
(1 7.85088e-16 0)
(1 9.04144e-16 0)
(1 5.62056e-15 0)
(1 -6.57857e-16 0)
(1 2.64684e-15 0)
(1 -4.11114e-15 0)
(1 -5.34429e-15 0)
(1 -7.33747e-15 0)
(1 2.93968e-15 0)
(1 7.86542e-15 0)
(1 4.48187e-15 0)
(1 2.72855e-15 0)
(1 -3.15649e-15 0)
(1 -2.59831e-15 0)
(1 -6.57673e-15 0)
(1 -9.24394e-15 0)
(1 -5.95544e-15 0)
(1 -5.6156e-15 0)
(1 -9.69291e-15 0)
(1 -1.7929e-15 0)
(1 -6.38822e-15 0)
(1 4.78534e-15 0)
(1 2.81154e-15 0)
(1 9.56596e-15 0)
(1 1.10186e-14 0)
(1 6.19794e-15 0)
(1 -2.71212e-15 0)
(1 -4.33958e-15 0)
(1 -4.79072e-15 0)
(1 -1.04277e-15 0)
(1 -2.12285e-15 0)
(1 -5.79433e-17 0)
(1 -8.5225e-16 0)
(1 -7.62263e-15 0)
(1 -3.18364e-15 0)
(1 9.82392e-17 0)
(1 3.5942e-15 0)
(1 4.50434e-15 0)
(1 1.02471e-15 0)
(1 7.52419e-16 0)
(1 3.38732e-15 0)
(1 1.68179e-15 0)
(1 -1.46767e-15 0)
(1 3.86104e-15 0)
(1 4.09868e-15 0)
(1 6.63901e-15 0)
(1 4.21949e-15 0)
(1 1.37306e-15 0)
(1 2.24341e-15 0)
(1 1.91579e-15 0)
(1 5.59471e-15 0)
(1 3.24956e-15 0)
(1 2.78886e-15 0)
(1 9.18631e-16 0)
(1 6.02219e-15 0)
(1 3.11732e-15 0)
(1 5.1593e-15 0)
(1 6.32565e-15 0)
(1 5.47889e-15 0)
(1 5.85332e-15 0)
(1 7.62327e-15 0)
(1 3.86811e-15 0)
(1 4.62503e-15 0)
(1 3.18687e-15 0)
(1 4.70857e-15 0)
(1 5.34307e-15 0)
(1 8.43921e-15 0)
(1 8.29937e-15 0)
(1 6.3416e-15 0)
(1 6.87788e-15 0)
(1 4.44639e-15 0)
(1 8.81707e-15 0)
(1 5.8617e-15 0)
(1 6.69656e-15 0)
(1 7.41703e-15 0)
(1 8.1633e-15 0)
(1 8.22486e-15 0)
(1 2.34695e-15 0)
(1 5.62063e-15 0)
(1 7.99584e-15 0)
(1 5.09932e-15 0)
(1 8.58343e-16 0)
(1 3.31611e-15 0)
(1 1.68353e-15 0)
(1 6.788e-16 0)
(1 -1.71153e-15 0)
(1 -1.4123e-15 0)
(1 -3.75591e-15 0)
(1 -8.14715e-17 0)
(1 -9.69538e-16 0)
(1 8.38207e-16 0)
(1 2.55914e-15 0)
(1 3.82531e-15 0)
(1 5.12875e-15 0)
(1 7.21598e-15 0)
(1 5.77303e-15 0)
(1 7.29224e-15 0)
(1 6.46289e-15 0)
(1 1.14374e-14 0)
(1 1.1278e-14 0)
(1 -1.98724e-15 0)
(1 -2.40779e-15 0)
(1 -1.91589e-15 0)
(1 4.37586e-15 0)
(1 5.83559e-16 0)
(1 2.52173e-15 0)
(1 9.65699e-15 0)
(1 4.43378e-15 0)
(1 3.70754e-16 0)
(1 -1.36065e-15 0)
(1 -4.58199e-15 0)
(1 -5.72345e-15 0)
(1 -4.8194e-15 0)
(1 -2.21422e-15 0)
(1 6.41171e-17 0)
(1 -1.11159e-15 0)
(1 -1.91329e-15 0)
(1 -1.08259e-14 0)
(1 -8.14285e-15 0)
(1 -5.00894e-15 0)
(1 3.78831e-16 0)
(1 4.86422e-15 0)
(1 1.53026e-15 0)
(1 -3.38316e-15 0)
(1 -7.15421e-15 0)
(1 2.87031e-16 0)
(1 -4.13834e-15 0)
(1 -1.13609e-15 0)
(1 -2.30242e-15 0)
(1 -1.26349e-16 0)
(1 -3.19205e-15 0)
(1 1.60259e-15 0)
(1 2.45667e-15 0)
(1 4.34251e-15 0)
(1 1.18173e-15 0)
(1 3.23644e-15 0)
(1 3.61866e-15 0)
(1 1.79879e-15 0)
(1 3.15818e-15 0)
(1 3.34434e-15 0)
(1 4.66225e-15 0)
(1 1.85698e-15 0)
(1 2.28661e-15 0)
(1 -5.59683e-15 0)
(1 -1.79381e-15 0)
(1 -4.7524e-15 0)
(1 3.09665e-16 0)
(1 1.7602e-15 0)
(1 3.74446e-15 0)
(1 4.21688e-15 0)
(1 8.47823e-15 0)
(1 6.13965e-15 0)
(1 2.14462e-15 0)
(1 1.12511e-15 0)
(1 2.59377e-15 0)
(1 1.69739e-15 0)
(1 8.33393e-15 0)
(1 6.41606e-15 0)
(1 6.27049e-15 0)
(1 1.66362e-15 0)
(1 -1.64198e-15 0)
(1 -2.26896e-15 0)
(1 3.46011e-15 0)
(1 4.93153e-15 0)
(1 6.9098e-15 0)
(1 -2.70108e-15 0)
(1 3.6005e-15 0)
(1 -5.12374e-16 0)
(1 8.93312e-15 0)
(1 6.94301e-15 0)
(1 4.95398e-15 0)
(1 6.35037e-15 0)
(1 6.71012e-15 0)
(1 4.02757e-15 0)
(1 6.8671e-15 0)
(1 3.72801e-15 0)
(1 4.50063e-15 0)
(1 1.61916e-15 0)
(1 5.79632e-15 0)
(1 5.46545e-15 0)
(1 1.64048e-15 0)
(1 2.9713e-15 0)
(1 2.11565e-15 0)
(1 3.81356e-15 0)
(1 2.1167e-15 0)
(1 1.81986e-16 0)
(1 -2.33687e-15 0)
(1 -4.04322e-15 0)
(1 -1.06256e-15 0)
(1 2.59594e-15 0)
(1 3.46795e-15 0)
(1 2.28389e-15 0)
(1 2.56985e-15 0)
(1 1.11801e-15 0)
(1 5.21279e-15 0)
(1 7.16403e-15 0)
(1 6.02175e-15 0)