/*--------------------------------*- C++ -*----------------------------------*\
| =========                 |                                                 |
| \\      /  F ield         | OpenFOAM: The Open Source CFD Toolbox           |
|  \\    /   O peration     | Version:  v2012                                 |
|   \\  /    A nd           | Website:  www.openfoam.com                      |
|    \\/     M anipulation  |                                                 |
\*---------------------------------------------------------------------------*/
FoamFile
{
    version     2.0;
    format      ascii;
    class       volVectorField;
    location    "70";
    object      Usup;
}
// * * * * * * * * * * * * * * * * * * * * * * * * * * * * * * * * * * * * * //

dimensions      [0 1 -1 0 0 0 0];


internalField   nonuniform List<vector> 
4000
(
(0.00173029 -0.00196155 0)
(0.00975431 0.000267937 0)
(0.015725 -0.00140377 0)
(0.0194553 0.000409375 0)
(0.0248507 0.0017795 0)
(0.0229373 -0.00185198 0)
(0.0212218 -0.00286625 0)
(0.0292579 -0.000678417 0)
(0.0358977 -0.00295257 0)
(0.0342765 -0.00755616 0)
(0.0291746 -0.0101304 0)
(0.0192668 -0.0113436 0)
(0.00344995 -0.00631267 0)
(-0.00435165 0.00447692 0)
(-0.000947339 0.00628966 0)
(-0.000214577 0.00285209 0)
(-0.00633603 -8.73266e-05 0)
(-0.0144535 -0.00193484 0)
(-0.0159902 -0.00258232 0)
(-0.0195001 -0.00434332 0)
(-0.0232403 -0.00659065 0)
(-0.0196308 -0.0104897 0)
(-0.0118964 -0.0107511 0)
(-0.00263992 -0.0111367 0)
(0.00273291 -0.0100609 0)
(0.00756657 -0.00791992 0)
(0.00594645 -0.00905791 0)
(0.000280198 -0.00503841 0)
(-0.00359909 -0.00550585 0)
(-0.00217016 -0.00119955 0)
(0.008124 0.00391527 0)
(0.0189568 0.00517067 0)
(0.0239209 -0.000642042 0)
(0.0188555 -0.0047122 0)
(0.0124273 -0.00571014 0)
(0.000350611 -0.00605622 0)
(-0.015422 -0.000342282 0)
(-0.0204716 0.0061525 0)
(-0.0148852 0.0103434 0)
(-0.00640805 0.00974755 0)
(-0.00263744 0.00581939 0)
(0.000602787 0.0015309 0)
(-0.000860062 -0.00193184 0)
(-0.00741728 -0.00018682 0)
(-0.00832679 0.00132928 0)
(-0.00506624 0.000243902 0)
(0.00112347 0.00258133 0)
(0.00599375 0.00183495 0)
(0.00221294 0.000503459 0)
(-0.000244721 0.00340075 0)
(0.00159677 0.00230998 0)
(0.000938191 0.0024046 0)
(0.000181565 0.00320233 0)
(0.000758645 0.00373179 0)
(-0.00145151 0.00443705 0)
(0.000335109 0.00460327 0)
(0.00631899 0.00124956 0)
(0.00861543 0.000882375 0)
(0.00979518 0.00132559 0)
(0.00699269 -0.00134881 0)
(0.00114274 -0.00192238 0)
(-0.0028528 -0.00129295 0)
(-0.00410663 -0.00101505 0)
(-0.0053486 -0.00354995 0)
(-0.00746062 -0.00453911 0)
(-0.00548216 -0.00440422 0)
(-0.00327577 -0.00523961 0)
(-0.00105501 -0.00500918 0)
(0.00185913 -0.00450151 0)
(0.00412824 -0.00363304 0)
(0.00991764 -0.00197823 0)
(0.0137182 -0.00309037 0)
(0.0115732 -0.00087413 0)
(0.0108708 0.0011973 0)
(0.0127984 0.000943062 0)
(0.0110748 -0.00200656 0)
(0.00446712 -0.00277815 0)
(-0.00579489 -0.00239647 0)
(-0.014251 0.00270677 0)
(-0.016912 0.00492467 0)
(-0.0145227 0.00735086 0)
(-0.0150128 0.00684453 0)
(-0.0167205 0.00633623 0)
(-0.0139909 0.00716611 0)
(-0.0139923 0.0070455 0)
(-0.0179401 0.010237 0)
(-0.019416 0.0111585 0)
(-0.0136749 0.0103412 0)
(-0.00559788 0.0122704 0)
(0.000104707 0.0128922 0)
(0.000115802 0.0117849 0)
(-0.000262801 0.0132383 0)
(0.00748403 0.0155889 0)
(0.0135 0.0117956 0)
(0.0145782 0.00894277 0)
(0.0154802 0.00557832 0)
(0.0191262 0.0033304 0)
(0.0207824 0.00253517 0)
(0.0121348 0.000200254 0)
(0.00345476 0.000520031 0)
(0.00778153 -0.000439276 0)
(0.0254739 0.00271092 0)
(0.0405386 -0.00232229 0)
(0.0541 0.00120353 0)
(0.0624043 0.00149113 0)
(0.0599573 -0.00575975 0)
(0.0639416 -0.00772769 0)
(0.0791268 -0.00529447 0)
(0.0871303 -0.0126149 0)
(0.0832976 -0.0190064 0)
(0.0723384 -0.0249217 0)
(0.0533598 -0.0281137 0)
(0.0274226 -0.0178846 0)
(0.0055587 0.00564354 0)
(-0.00332022 0.0146098 0)
(-0.00875309 0.0079925 0)
(-0.0218897 -0.00138499 0)
(-0.0380883 -0.00738283 0)
(-0.044599 -0.010313 0)
(-0.0540005 -0.0188244 0)
(-0.0620709 -0.0248827 0)
(-0.0522835 -0.0301188 0)
(-0.0318116 -0.0287051 0)
(-0.00962214 -0.0311739 0)
(0.00640962 -0.02886 0)
(0.0156336 -0.0236592 0)
(0.0148545 -0.0220409 0)
(0.00498447 -0.0136937 0)
(-0.0015102 -0.0101204 0)
(0.00755048 0.000149377 0)
(0.0273528 0.0073128 0)
(0.04249 0.0110626 0)
(0.0489392 0.000159752 0)
(0.0421553 -0.00824435 0)
(0.0279786 -0.0123875 0)
(0.00439003 -0.0146525 0)
(-0.0244157 -0.00181387 0)
(-0.0381167 0.00959853 0)
(-0.0336017 0.0183999 0)
(-0.0224647 0.0195106 0)
(-0.0156024 0.0163988 0)
(-0.00840787 0.010557 0)
(-0.00677922 0.00219104 0)
(-0.0149383 0.000612336 0)
(-0.018748 0.00331824 0)
(-0.0108686 0.00181741 0)
(0.00246607 0.00545508 0)
(0.0096205 0.00642476 0)
(0.0065738 0.00677142 0)
(0.00230259 0.0127429 0)
(0.002917 0.00890585 0)
(0.00322706 0.00732073 0)
(0.00220696 0.00849273 0)
(0.00289784 0.0066755 0)
(-0.000415361 0.00526411 0)
(0.00108589 0.00900915 0)
(0.0126854 0.00899194 0)
(0.0211309 0.0084456 0)
(0.0213807 0.0072065 0)
(0.0141697 -0.00111843 0)
(0.0039734 -0.00648966 0)
(-0.00497019 -0.00800025 0)
(-0.0115808 -0.00939049 0)
(-0.0159445 -0.0111042 0)
(-0.0177573 -0.0117043 0)
(-0.0137287 -0.0112385 0)
(-0.00824558 -0.0143075 0)
(-0.00123349 -0.0144104 0)
(0.00672248 -0.0133567 0)
(0.0145799 -0.0145944 0)
(0.0257125 -0.012738 0)
(0.0344227 -0.00872411 0)
(0.0339769 -0.0057587 0)
(0.030649 -0.000537907 0)
(0.0287934 8.11144e-05 0)
(0.0225317 -0.00440208 0)
(0.00864664 -0.00519258 0)
(-0.0106474 -0.00115581 0)
(-0.0291583 0.00794436 0)
(-0.0391215 0.0135333 0)
(-0.0389071 0.022206 0)
(-0.0425328 0.0213773 0)
(-0.0445163 0.0180861 0)
(-0.0398654 0.0186216 0)
(-0.0383243 0.0229001 0)
(-0.0441911 0.0290423 0)
(-0.0482793 0.0367597 0)
(-0.0345683 0.0393377 0)
(-0.0152369 0.0398237 0)
(-0.00364085 0.0373709 0)
(0.000426089 0.0343229 0)
(0.00594974 0.038743 0)
(0.0189046 0.0428664 0)
(0.0291198 0.0351044 0)
(0.0342463 0.0256774 0)
(0.0381178 0.0182232 0)
(0.0467399 0.0132415 0)
(0.0475888 0.00803322 0)
(0.0296214 0.00175517 0)
(0.00939749 0.000388065 0)
(0.0111418 0.00389636 0)
(0.0340403 0.00857584 0)
(0.0582724 0.00286575 0)
(0.0806304 -0.00278575 0)
(0.090757 -0.00627889 0)
(0.0914843 -0.0103604 0)
(0.101094 -0.00968908 0)
(0.117875 -0.00991936 0)
(0.127404 -0.0194603 0)
(0.12301 -0.0268157 0)
(0.105389 -0.0369449 0)
(0.0820814 -0.0362712 0)
(0.054472 -0.0202325 0)
(0.0248386 0.00397761 0)
(-0.000400229 0.014634 0)
(-0.0201139 0.00948631 0)
(-0.0402151 -0.0025001 0)
(-0.0600683 -0.012556 0)
(-0.0731102 -0.0216019 0)
(-0.0869302 -0.0372267 0)
(-0.0920396 -0.0453134 0)
(-0.0748992 -0.0485566 0)
(-0.0481683 -0.0472635 0)
(-0.0182408 -0.0482628 0)
(0.00823147 -0.0435618 0)
(0.0229818 -0.0373674 0)
(0.0239962 -0.0315505 0)
(0.0137507 -0.0220907 0)
(0.00814116 -0.00930209 0)
(0.0189219 0.00313103 0)
(0.0432165 0.0127742 0)
(0.0601869 0.013445 0)
(0.0645012 0.00333853 0)
(0.0558237 -0.00998326 0)
(0.0357013 -0.0184636 0)
(0.00857468 -0.019182 0)
(-0.0263533 -0.00464915 0)
(-0.0474841 0.00433552 0)
(-0.0443332 0.0155569 0)
(-0.0317287 0.0203621 0)
(-0.0235301 0.0266246 0)
(-0.018304 0.0260451 0)
(-0.0183032 0.0142856 0)
(-0.0239139 0.00250402 0)
(-0.0256151 0.00254985 0)
(-0.0150899 0.00312382 0)
(0.00381631 0.00893385 0)
(0.0141823 0.0153867 0)
(0.0120851 0.0145072 0)
(0.00394336 0.0155258 0)
(0.00125145 0.013506 0)
(0.00374375 0.0117964 0)
(0.00207821 0.0123281 0)
(0.0011108 0.0102254 0)
(0.00244146 0.00384078 0)
(0.00989992 0.00722056 0)
(0.022006 0.0134868 0)
(0.0288503 0.0143581 0)
(0.0252437 0.0110048 0)
(0.0133154 -0.000160583 0)
(0.0015156 -0.00838296 0)
(-0.00900992 -0.0113107 0)
(-0.0160744 -0.0135571 0)
(-0.0206518 -0.016788 0)
(-0.0235914 -0.0200204 0)
(-0.0203132 -0.0194874 0)
(-0.0129549 -0.0230828 0)
(-0.000825648 -0.0231712 0)
(0.00946654 -0.0219933 0)
(0.0210045 -0.0206106 0)
(0.0418309 -0.0166989 0)
(0.0538698 -0.0113114 0)
(0.052289 -0.0111127 0)
(0.0483608 -0.0082952 0)
(0.0416113 -0.00887113 0)
(0.0306375 -0.00969094 0)
(0.0132784 -0.00473837 0)
(-0.0122545 0.00116029 0)
(-0.039102 0.0116299 0)
(-0.0522649 0.0219522 0)
(-0.0566618 0.0316752 0)
(-0.0681863 0.0340465 0)
(-0.0709673 0.0346224 0)
(-0.0606674 0.0314041 0)
(-0.0567684 0.0369147 0)
(-0.0613275 0.0458135 0)
(-0.0635605 0.0589796 0)
(-0.0508088 0.0683688 0)
(-0.0292729 0.0682723 0)
(-0.0117833 0.0644817 0)
(0.00110678 0.0615161 0)
(0.0137066 0.0626224 0)
(0.0278478 0.0635407 0)
(0.0377022 0.0564769 0)
(0.0463815 0.0458481 0)
(0.0553657 0.0341738 0)
(0.0650068 0.026418 0)
(0.0631761 0.0148897 0)
(0.0404238 0.00166999 0)
(0.0140566 -0.00113717 0)
(0.0148204 0.00629203 0)
(0.0412097 0.014795 0)
(0.0651054 0.00971897 0)
(0.0940187 -0.00135712 0)
(0.114489 -0.0102175 0)
(0.121843 -0.00870723 0)
(0.134445 -0.00777832 0)
(0.149704 -0.0103855 0)
(0.156928 -0.0222195 0)
(0.14914 -0.0358432 0)
(0.132534 -0.0444839 0)
(0.114448 -0.0378587 0)
(0.0844847 -0.0168682 0)
(0.0420532 0.00461592 0)
(0.00170601 0.0111952 0)
(-0.0293045 0.00767329 0)
(-0.0574321 -0.00269798 0)
(-0.0832107 -0.0153674 0)
(-0.102223 -0.0338564 0)
(-0.116602 -0.055914 0)
(-0.116984 -0.0653395 0)
(-0.0946006 -0.0684112 0)
(-0.0610004 -0.0696208 0)
(-0.0226427 -0.0596524 0)
(0.0103127 -0.0487865 0)
(0.0282719 -0.0413223 0)
(0.032278 -0.0379359 0)
(0.0265504 -0.0316596 0)
(0.022763 -0.0150055 0)
(0.035346 0.00270333 0)
(0.0579422 0.0148131 0)
(0.0697545 0.0120693 0)
(0.0702603 0.00322035 0)
(0.0589796 -0.0125061 0)
(0.040836 -0.0179698 0)
(0.0155587 -0.0190772 0)
(-0.0245396 -0.0107695 0)
(-0.0504337 -0.00242145 0)
(-0.0483495 0.0111721 0)
(-0.0346704 0.0186457 0)
(-0.02585 0.0313261 0)
(-0.0282309 0.0355882 0)
(-0.0349898 0.0246282 0)
(-0.0368978 0.00968582 0)
(-0.0312682 0.00598974 0)
(-0.0148471 0.00607186 0)
(0.00928402 0.0113157 0)
(0.0163723 0.0146128 0)
(0.00982229 0.0167051 0)
(0.00410758 0.0180107 0)
(0.00304856 0.0204746 0)
(0.00517794 0.0197444 0)
(0.00378606 0.0170747 0)
(-0.00015469 0.0112699 0)
(0.00142324 0.00252675 0)
(0.0155528 0.00205703 0)
(0.0304626 0.00857424 0)
(0.0351457 0.0122037 0)
(0.026641 0.0089932 0)
(0.0117794 -0.000370299 0)
(0.000747508 -0.00347461 0)
(-0.0103907 -0.00971098 0)
(-0.0219003 -0.0143714 0)
(-0.0300081 -0.0197332 0)
(-0.0302205 -0.0250672 0)
(-0.0244515 -0.0262892 0)
(-0.015284 -0.0300794 0)
(0.000731487 -0.0327368 0)
(0.0162632 -0.0309574 0)
(0.0331068 -0.0228255 0)
(0.0545357 -0.01546 0)
(0.0654233 -0.0147178 0)
(0.0638213 -0.0146146 0)
(0.0585223 -0.0162002 0)
(0.0507301 -0.019681 0)
(0.0408625 -0.0168439 0)
(0.0190571 -0.00886537 0)
(-0.0120072 -0.000349197 0)
(-0.0414384 0.0131411 0)
(-0.0610072 0.0308833 0)
(-0.0708981 0.0387765 0)
(-0.0839456 0.0424686 0)
(-0.0916375 0.0501485 0)
(-0.0830337 0.0482006 0)
(-0.072457 0.0508123 0)
(-0.0726762 0.0609568 0)
(-0.0730125 0.0750655 0)
(-0.0600618 0.08994 0)
(-0.0383455 0.0940517 0)
(-0.0175715 0.0916641 0)
(-0.00120129 0.0871167 0)
(0.0157879 0.0847529 0)
(0.0338513 0.0805517 0)
(0.0457596 0.0731152 0)
(0.0542667 0.0650416 0)
(0.064419 0.0499682 0)
(0.0749211 0.0386276 0)
(0.0681806 0.0224175 0)
(0.045017 0.00531443 0)
(0.0196933 -0.00106576 0)
(0.0175119 0.0069763 0)
(0.0450659 0.0178434 0)
(0.0700457 0.0143325 0)
(0.102352 0.00615051 0)
(0.131945 0.000736325 0)
(0.147257 0.00419509 0)
(0.159718 0.000925105 0)
(0.172259 -0.0106411 0)
(0.175857 -0.0256642 0)
(0.170598 -0.0432848 0)
(0.158968 -0.0426823 0)
(0.143961 -0.0313534 0)
(0.111887 -0.0162367 0)
(0.0582554 -0.00440078 0)
(0.00446618 0.00275026 0)
(-0.0367678 0.00619196 0)
(-0.073056 -0.00365689 0)
(-0.107884 -0.02091 0)
(-0.134654 -0.0442471 0)
(-0.146001 -0.06718 0)
(-0.137742 -0.0809096 0)
(-0.110479 -0.0806584 0)
(-0.0662203 -0.0822381 0)
(-0.0178209 -0.0703466 0)
(0.0155324 -0.0584658 0)
(0.0311636 -0.0504558 0)
(0.0345827 -0.0468711 0)
(0.035507 -0.0372288 0)
(0.0404302 -0.0204422 0)
(0.0526689 0.000998045 0)
(0.0691803 0.00944684 0)
(0.0772832 0.00631496 0)
(0.0741774 -0.0017157 0)
(0.0638367 -0.00937987 0)
(0.0450329 -0.010836 0)
(0.0153425 -0.0177176 0)
(-0.0248628 -0.0158411 0)
(-0.0494473 -0.0051033 0)
(-0.0481698 0.00765335 0)
(-0.033602 0.0161792 0)
(-0.0244048 0.0275192 0)
(-0.0342015 0.0331817 0)
(-0.0477897 0.0274744 0)
(-0.0484602 0.0197623 0)
(-0.0381868 0.0198607 0)
(-0.0180995 0.014478 0)
(0.00726817 0.0101541 0)
(0.0185872 0.00640829 0)
(0.0162404 0.0125683 0)
(0.00866954 0.0189963 0)
(0.00484036 0.0246517 0)
(0.00377979 0.0233953 0)
(-0.00134859 0.0172255 0)
(-0.00615849 0.00690221 0)
(0.000249842 -0.00261848 0)
(0.0212796 -0.000956651 0)
(0.0394172 0.005141 0)
(0.0410251 0.00522375 0)
(0.027638 0.00419861 0)
(0.0130077 0.00367928 0)
(-0.0010082 0.00498252 0)
(-0.0172681 -0.0043173 0)
(-0.0272419 -0.0132651 0)
(-0.0345419 -0.0196925 0)
(-0.0350565 -0.0287263 0)
(-0.0291815 -0.0343607 0)
(-0.0197435 -0.0398267 0)
(0.000781243 -0.0428781 0)
(0.0240629 -0.0374763 0)
(0.0450393 -0.0229262 0)
(0.0654846 -0.0176497 0)
(0.0755107 -0.0197814 0)
(0.0729061 -0.0165717 0)
(0.0648922 -0.0191474 0)
(0.05779 -0.0236602 0)
(0.048536 -0.0215833 0)
(0.0254463 -0.0142645 0)
(-0.00764224 -0.00446328 0)
(-0.038391 0.0113247 0)
(-0.0634227 0.0363039 0)
(-0.0828519 0.0493618 0)
(-0.0974359 0.0522713 0)
(-0.105931 0.0588426 0)
(-0.099566 0.0634118 0)
(-0.0863504 0.0682495 0)
(-0.0811601 0.0781278 0)
(-0.0762002 0.0908493 0)
(-0.0637837 0.104656 0)
(-0.0458525 0.111194 0)
(-0.0255688 0.110254 0)
(-0.00442833 0.106021 0)
(0.0165347 0.103237 0)
(0.0356856 0.0935832 0)
(0.0505993 0.0822734 0)
(0.0593916 0.0735247 0)
(0.0693846 0.0604392 0)
(0.0789861 0.0466301 0)
(0.0697647 0.0282969 0)
(0.0462467 0.0134345 0)
(0.0223463 0.00374628 0)
(0.0200445 0.00948106 0)
(0.0484871 0.0173543 0)
(0.0721918 0.0203408 0)
(0.111503 0.0206111 0)
(0.150111 0.0143643 0)
(0.166362 0.0133954 0)
(0.173471 0.0093659 0)
(0.184005 -0.0111523 0)
(0.187959 -0.0268197 0)
(0.188919 -0.0376434 0)
(0.186766 -0.0332173 0)
(0.169271 -0.0252102 0)
(0.128129 -0.017817 0)
(0.0689715 -0.0133209 0)
(0.0131588 -0.00700638 0)
(-0.0387197 -0.000213724 0)
(-0.0900683 -0.0107703 0)
(-0.132967 -0.0294972 0)
(-0.161645 -0.0566444 0)
(-0.172179 -0.0751213 0)
(-0.155866 -0.085156 0)
(-0.121641 -0.0828151 0)
(-0.0738911 -0.076489 0)
(-0.0187477 -0.0721212 0)
(0.0179596 -0.0673711 0)
(0.0350759 -0.0649988 0)
(0.0437848 -0.0620542 0)
(0.0501834 -0.0473851 0)
(0.0577431 -0.0254829 0)
(0.068076 -0.0041583 0)
(0.0773853 0.00700829 0)
(0.0809738 0.00414574 0)
(0.0790594 -0.00525624 0)
(0.0694602 -0.011992 0)
(0.0451726 -0.016742 0)
(0.0135657 -0.0209352 0)
(-0.0220048 -0.0160497 0)
(-0.0454812 -0.000953757 0)
(-0.0469129 0.0104198 0)
(-0.0334969 0.0152195 0)
(-0.0250469 0.0195417 0)
(-0.0384712 0.0222825 0)
(-0.0543339 0.0217568 0)
(-0.0515682 0.0258703 0)
(-0.0431223 0.0311874 0)
(-0.027764 0.0257963 0)
(0.00033871 0.0118326 0)
(0.0174879 0.00431864 0)
(0.0197398 0.00698369 0)
(0.0143251 0.0129125 0)
(0.0081104 0.0193807 0)
(0.00194531 0.0190307 0)
(-0.00566037 0.0132892 0)
(-0.0113678 0.0038905 0)
(0.000113341 -0.00387929 0)
(0.0273872 0.000336563 0)
(0.042972 0.00240362 0)
(0.043503 0.000685182 0)
(0.0342274 -0.00109272 0)
(0.0191458 0.00559111 0)
(-0.0013783 0.00823459 0)
(-0.0232473 0.00544779 0)
(-0.035229 -0.00379664 0)
(-0.0449887 -0.0138933 0)
(-0.0449443 -0.029426 0)
(-0.0354158 -0.0427589 0)
(-0.0219447 -0.0524166 0)
(0.00538966 -0.0531152 0)
(0.0377419 -0.0436069 0)
(0.0584783 -0.0257073 0)
(0.0711773 -0.0140546 0)
(0.0827857 -0.0201835 0)
(0.0812288 -0.0222547 0)
(0.0687609 -0.0238354 0)
(0.0609545 -0.026665 0)
(0.0540989 -0.0291584 0)
(0.0302107 -0.021553 0)
(-0.00343557 -0.00740557 0)
(-0.0299894 0.0127866 0)
(-0.0580804 0.0355949 0)
(-0.0886654 0.0547377 0)
(-0.109342 0.0642263 0)
(-0.117359 0.0730801 0)
(-0.110381 0.0812386 0)
(-0.0953039 0.0845851 0)
(-0.0879904 0.0907493 0)
(-0.0818757 0.101782 0)
(-0.0677683 0.113037 0)
(-0.0497144 0.120595 0)
(-0.0292839 0.122909 0)
(-0.00694071 0.120325 0)
(0.0132614 0.11474 0)
(0.032211 0.101721 0)
(0.0511421 0.0879979 0)
(0.0631048 0.0774229 0)
(0.072351 0.0633764 0)
(0.0795362 0.0491964 0)
(0.0697669 0.0313654 0)
(0.0479563 0.0189549 0)
(0.0218512 0.0066455 0)
(0.0177 0.0105878 0)
(0.0488661 0.0171406 0)
(0.0812511 0.0238986 0)
(0.11774 0.0329368 0)
(0.15539 0.0266121 0)
(0.179317 0.018769 0)
(0.182568 0.0142465 0)
(0.189834 -0.00417766 0)
(0.201397 -0.0188456 0)
(0.208731 -0.0211114 0)
(0.205726 -0.0197491 0)
(0.185263 -0.0223204 0)
(0.14173 -0.024191 0)
(0.078487 -0.0191316 0)
(0.0183147 -0.0126293 0)
(-0.0427 -0.0111093 0)
(-0.104537 -0.0218048 0)
(-0.157456 -0.0388721 0)
(-0.188496 -0.0637955 0)
(-0.189832 -0.0775238 0)
(-0.166591 -0.0774325 0)
(-0.125251 -0.0786294 0)
(-0.0755113 -0.0711946 0)
(-0.0232325 -0.0736219 0)
(0.0137197 -0.0773858 0)
(0.0323763 -0.0797951 0)
(0.0482015 -0.0735503 0)
(0.0657661 -0.0565462 0)
(0.0782838 -0.032651 0)
(0.0857573 -0.0144888 0)
(0.0877566 -0.00152901 0)
(0.0831108 0.00386504 0)
(0.077442 0.0020496 0)
(0.0680991 -0.0111624 0)
(0.0463424 -0.0241222 0)
(0.0175617 -0.0227842 0)
(-0.0144339 -0.0168693 0)
(-0.0385303 -0.000998008 0)
(-0.0468181 0.00902518 0)
(-0.0375877 0.0127355 0)
(-0.0291457 0.0155414 0)
(-0.0416044 0.0152188 0)
(-0.0534894 0.0166089 0)
(-0.0492078 0.0275389 0)
(-0.0448518 0.0315579 0)
(-0.0372789 0.0317629 0)
(-0.0114961 0.0156659 0)
(0.0138163 0.00235556 0)
(0.0225757 0.00361068 0)
(0.0185895 0.00971815 0)
(0.0107284 0.0142135 0)
(0.00119024 0.013225 0)
(-0.0100579 0.00495036 0)
(-0.015669 -0.00261564 0)
(0.00168127 -0.00185276 0)
(0.0311267 0.00415903 0)
(0.0460566 0.00245735 0)
(0.0454497 0.00604511 0)
(0.0379139 0.000535607 0)
(0.0251806 0.0028603 0)
(0.00213254 0.0063988 0)
(-0.0250792 0.0110321 0)
(-0.0422529 0.00497109 0)
(-0.0552708 -0.00737687 0)
(-0.0583068 -0.0244422 0)
(-0.0471965 -0.0432984 0)
(-0.0266086 -0.0537481 0)
(0.010566 -0.0540554 0)
(0.0504628 -0.0456226 0)
(0.0759556 -0.035077 0)
(0.0812102 -0.0226131 0)
(0.0826093 -0.0250898 0)
(0.0834007 -0.0314356 0)
(0.0733426 -0.0357418 0)
(0.0624703 -0.0368126 0)
(0.0561239 -0.0364884 0)
(0.039096 -0.0274966 0)
(0.00840147 -0.00798243 0)
(-0.0225308 0.0171842 0)
(-0.0537618 0.038383 0)
(-0.0869777 0.0597363 0)
(-0.111784 0.0729694 0)
(-0.122718 0.082691 0)
(-0.120761 0.0921267 0)
(-0.108348 0.0927884 0)
(-0.0957014 0.099244 0)
(-0.0837596 0.111693 0)
(-0.069148 0.123005 0)
(-0.0519297 0.129926 0)
(-0.0327657 0.130567 0)
(-0.0110733 0.128931 0)
(0.00846149 0.122265 0)
(0.0276067 0.110787 0)
(0.0495568 0.0952913 0)
(0.0620947 0.0809524 0)
(0.0718325 0.0625325 0)
(0.079221 0.0473492 0)
(0.0699206 0.0319255 0)
(0.0476099 0.0190395 0)
(0.0206715 0.00450286 0)
(0.0171434 0.0104681 0)
(0.0493146 0.0223991 0)
(0.0868388 0.0312466 0)
(0.126665 0.0344657 0)
(0.161207 0.0349856 0)
(0.185347 0.0249287 0)
(0.189482 0.0193247 0)
(0.195507 0.0117966 0)
(0.212144 -0.00270572 0)
(0.223284 -0.00778806 0)
(0.216955 -0.0132529 0)
(0.191256 -0.0193561 0)
(0.148818 -0.0279575 0)
(0.0886781 -0.0230119 0)
(0.0234403 -0.0165006 0)
(-0.0474099 -0.018666 0)
(-0.118154 -0.0292274 0)
(-0.17639 -0.0446229 0)
(-0.206272 -0.058529 0)
(-0.200535 -0.0692307 0)
(-0.17537 -0.0723872 0)
(-0.13433 -0.0802195 0)
(-0.0846097 -0.0774741 0)
(-0.0339617 -0.0814382 0)
(0.0066857 -0.0879645 0)
(0.0347593 -0.0912031 0)
(0.0607926 -0.0782601 0)
(0.082794 -0.0593432 0)
(0.0937032 -0.0367956 0)
(0.0985249 -0.0196176 0)
(0.100773 -0.00776024 0)
(0.0949995 -0.000590218 0)
(0.0793956 0.00292488 0)
(0.0597424 -0.0108552 0)
(0.0426622 -0.0244208 0)
(0.0205223 -0.0206234 0)
(-0.00868623 -0.0157384 0)
(-0.0324476 -0.0060427 0)
(-0.0446796 0.00699848 0)
(-0.0371512 0.0177902 0)
(-0.0314691 0.016843 0)
(-0.0454302 0.00699677 0)
(-0.0524541 0.00614908 0)
(-0.047093 0.0157793 0)
(-0.0455898 0.0230262 0)
(-0.043736 0.0302678 0)
(-0.0241041 0.023641 0)
(0.00716558 0.0117529 0)
(0.0247575 0.00696115 0)
(0.0225063 0.00283536 0)
(0.011685 0.000486613 0)
(-0.00333452 -0.00258948 0)
(-0.0152287 -0.00493719 0)
(-0.0136531 -0.00423879 0)
(0.00857762 0.00173978 0)
(0.0348951 0.0106277 0)
(0.0494518 0.0108585 0)
(0.0475364 0.00999009 0)
(0.0370546 0.00580398 0)
(0.0276806 0.00363638 0)
(0.00744356 0.00707013 0)
(-0.0229974 0.0131824 0)
(-0.0487177 0.0103589 0)
(-0.0672884 -0.00577451 0)
(-0.0720436 -0.0264739 0)
(-0.0568949 -0.0439871 0)
(-0.0283358 -0.0515624 0)
(0.0148399 -0.0514706 0)
(0.0573805 -0.0467524 0)
(0.0832255 -0.0419734 0)
(0.0880655 -0.0365309 0)
(0.0867468 -0.0313668 0)
(0.0836444 -0.0345681 0)
(0.0736129 -0.0427168 0)
(0.0664778 -0.0460644 0)
(0.063039 -0.0424127 0)
(0.048285 -0.0336188 0)
(0.0210813 -0.0146149 0)
(-0.00949547 0.0129801 0)
(-0.0448988 0.0430649 0)
(-0.0848064 0.0655252 0)
(-0.116413 0.0799021 0)
(-0.128552 0.0884461 0)
(-0.128554 0.097883 0)
(-0.115003 0.102038 0)
(-0.0973074 0.111642 0)
(-0.0847467 0.123352 0)
(-0.0706916 0.133176 0)
(-0.0556017 0.139308 0)
(-0.0361161 0.137396 0)
(-0.0136789 0.137027 0)
(0.0046573 0.130014 0)
(0.0221708 0.118516 0)
(0.0433994 0.0994208 0)
(0.0565974 0.0828425 0)
(0.0673278 0.0644983 0)
(0.0773808 0.0421439 0)
(0.0685371 0.0262132 0)
(0.0456309 0.0137255 0)
(0.0209447 0.00279642 0)
(0.0173774 0.0105738 0)
(0.0516745 0.0261165 0)
(0.0883824 0.0399888 0)
(0.128009 0.0436698 0)
(0.163618 0.0419937 0)
(0.189173 0.0328626 0)
(0.198783 0.0277462 0)
(0.202286 0.0279449 0)
(0.216553 0.0144385 0)
(0.229466 0.000121765 0)
(0.222774 -0.00879384 0)
(0.195561 -0.0139468 0)
(0.154756 -0.0204867 0)
(0.0968699 -0.0177251 0)
(0.0257981 -0.0168569 0)
(-0.0531026 -0.0250093 0)
(-0.129476 -0.0351366 0)
(-0.188911 -0.0428406 0)
(-0.219539 -0.0454537 0)
(-0.214763 -0.0600653 0)
(-0.18982 -0.077681 0)
(-0.143187 -0.0908606 0)
(-0.0885201 -0.0891599 0)
(-0.0402541 -0.0874422 0)
(0.00029878 -0.0916328 0)
(0.0362322 -0.0906577 0)
(0.071017 -0.0773963 0)
(0.0980304 -0.0622633 0)
(0.111479 -0.0423023 0)
(0.113149 -0.020684 0)
(0.109509 -0.00567638 0)
(0.0997274 -0.00472706 0)
(0.0785359 -0.00491051 0)
(0.0552189 -0.0128896 0)
(0.0438416 -0.0211779 0)
(0.0254355 -0.0187712 0)
(-0.0054017 -0.00989673 0)
(-0.0260623 -0.00226271 0)
(-0.0351744 0.00776308 0)
(-0.0369689 0.0145902 0)
(-0.0438106 0.00676346 0)
(-0.0559571 -0.00178899 0)
(-0.0531061 -0.000698505 0)
(-0.0423027 0.00734743 0)
(-0.0389215 0.0159132 0)
(-0.040551 0.0271146 0)
(-0.0277221 0.0302441 0)
(1.13768e-06 0.0188863 0)
(0.0153611 0.00470237 0)
(0.0138843 -0.00573578 0)
(0.00738133 -0.0115955 0)
(-0.00163317 -0.0141258 0)
(-0.00958576 -0.00911686 0)
(-0.0085102 -0.00285743 0)
(0.0154831 0.00135387 0)
(0.0413347 0.011867 0)
(0.0496053 0.0161062 0)
(0.0459697 0.0103857 0)
(0.0372702 0.0113627 0)
(0.0294934 0.0140348 0)
(0.0115854 0.0143586 0)
(-0.0212405 0.0148459 0)
(-0.055598 0.00919115 0)
(-0.0821983 -0.00747004 0)
(-0.0861701 -0.0277137 0)
(-0.0647721 -0.0476962 0)
(-0.0301012 -0.0552065 0)
(0.0176087 -0.053607 0)
(0.0625992 -0.0485082 0)
(0.0901707 -0.044033 0)
(0.0968714 -0.0388187 0)
(0.0924153 -0.034192 0)
(0.0830404 -0.0372107 0)
(0.0715036 -0.0481818 0)
(0.066917 -0.055519 0)
(0.0661617 -0.0553419 0)
(0.0563632 -0.0482579 0)
(0.0350939 -0.0257405 0)
(0.00803297 0.00327681 0)
(-0.0307194 0.0405007 0)
(-0.0784476 0.0643801 0)
(-0.115565 0.0844926 0)
(-0.131304 0.099269 0)
(-0.132844 0.108655 0)
(-0.119674 0.116172 0)
(-0.0999068 0.120623 0)
(-0.0852804 0.130839 0)
(-0.0713487 0.140534 0)
(-0.0586365 0.146429 0)
(-0.0397108 0.146221 0)
(-0.0170797 0.141169 0)
(-0.00111248 0.132676 0)
(0.0134675 0.120935 0)
(0.0354395 0.103879 0)
(0.0514611 0.0834704 0)
(0.0588529 0.0655814 0)
(0.0687696 0.0390073 0)
(0.0663367 0.0206645 0)
(0.0463588 0.00986823 0)
(0.0224267 0.00341067 0)
(0.0184136 0.0101006 0)
(0.0556622 0.0268124 0)
(0.0940252 0.0405798 0)
(0.130847 0.0533601 0)
(0.16309 0.0561567 0)
(0.190417 0.0477287 0)
(0.205655 0.0449135 0)
(0.208204 0.043067 0)
(0.215232 0.0339402 0)
(0.229164 0.0173589 0)
(0.227458 0.00397179 0)
(0.200144 -0.00417525 0)
(0.159319 -0.010186 0)
(0.100014 -0.015011 0)
(0.0220952 -0.0202818 0)
(-0.0612785 -0.0272892 0)
(-0.135705 -0.032785 0)
(-0.191797 -0.0359091 0)
(-0.2293 -0.0391641 0)
(-0.236132 -0.0517959 0)
(-0.210357 -0.0754807 0)
(-0.154496 -0.0909766 0)
(-0.0923107 -0.0994541 0)
(-0.0438758 -0.0979416 0)
(-0.00136769 -0.100188 0)
(0.0419634 -0.0931478 0)
(0.0806892 -0.0787282 0)
(0.109708 -0.061244 0)
(0.127293 -0.0442247 0)
(0.130158 -0.0212114 0)
(0.118527 -0.00680801 0)
(0.102292 -0.00505437 0)
(0.0799921 -0.00663379 0)
(0.0533196 -0.00685666 0)
(0.0420155 -0.0107633 0)
(0.0301655 -0.0142098 0)
(0.00244093 -0.0089955 0)
(-0.0224601 0.00325985 0)
(-0.0366662 0.00784435 0)
(-0.0430217 0.00617262 0)
(-0.0489104 -0.0024387 0)
(-0.0562482 -0.00475212 0)
(-0.0507903 -0.00125213 0)
(-0.0394862 0.00776642 0)
(-0.0350462 0.0134133 0)
(-0.0364226 0.0200585 0)
(-0.0325325 0.0239127 0)
(-0.0131679 0.0102054 0)
(0.00583008 -0.00514056 0)
(0.0103159 -0.0109575 0)
(0.00583645 -0.0130209 0)
(-0.000713832 -0.0172121 0)
(-0.00567779 -0.0189924 0)
(-0.00420473 -0.0106173 0)
(0.0216551 0.00293734 0)
(0.0484722 0.0147341 0)
(0.0514632 0.0206138 0)
(0.0473048 0.0159659 0)
(0.0428602 0.0164559 0)
(0.0325852 0.0173328 0)
(0.0101277 0.0157129 0)
(-0.0253581 0.00973499 0)
(-0.0641978 0.00301158 0)
(-0.0937223 -0.00358609 0)
(-0.10077 -0.0188766 0)
(-0.0757084 -0.0415862 0)
(-0.0303754 -0.0510431 0)
(0.0232177 -0.0533092 0)
(0.0690958 -0.050199 0)
(0.0961259 -0.0440785 0)
(0.101838 -0.0437665 0)
(0.0946798 -0.039932 0)
(0.0796162 -0.0445344 0)
(0.0651233 -0.0606654 0)
(0.0640968 -0.0728252 0)
(0.0684502 -0.0757186 0)
(0.0667746 -0.0628607 0)
(0.0521005 -0.0350827 0)
(0.0288259 -0.000806837 0)
(-0.0134752 0.0367217 0)
(-0.0684786 0.0613773 0)
(-0.10857 0.0856547 0)
(-0.12961 0.0993272 0)
(-0.13517 0.112128 0)
(-0.12466 0.121597 0)
(-0.10358 0.126029 0)
(-0.0849592 0.135839 0)
(-0.0711439 0.144148 0)
(-0.0598202 0.148027 0)
(-0.0445005 0.151089 0)
(-0.0241216 0.143011 0)
(-0.00672379 0.135613 0)
(0.00821852 0.125234 0)
(0.0263312 0.111853 0)
(0.0415038 0.0892407 0)
(0.0494611 0.0672242 0)
(0.0600194 0.0425846 0)
(0.062667 0.0178933 0)
(0.0474289 0.0076116 0)
(0.0233666 0.005526 0)
(0.0186372 0.0123715 0)
(0.0564627 0.0305794 0)
(0.0988165 0.0429493 0)
(0.138065 0.0581874 0)
(0.164656 0.0667806 0)
(0.191426 0.0661213 0)
(0.209901 0.0651745 0)
(0.211412 0.0607655 0)
(0.216078 0.0497488 0)
(0.225694 0.0346597 0)
(0.223759 0.0198671 0)
(0.199468 0.00788356 0)
(0.157855 -0.00101026 0)
(0.0968473 -0.0129806 0)
(0.0203876 -0.0229587 0)
(-0.0623358 -0.0305573 0)
(-0.139183 -0.0266131 0)
(-0.199785 -0.0297022 0)
(-0.23954 -0.0412695 0)
(-0.251116 -0.0517759 0)
(-0.228742 -0.0706714 0)
(-0.17055 -0.0817107 0)
(-0.102286 -0.0948426 0)
(-0.0478321 -0.0995526 0)
(-0.00132281 -0.102411 0)
(0.0488412 -0.0950114 0)
(0.0932269 -0.0802695 0)
(0.123945 -0.0609673 0)
(0.143083 -0.0395905 0)
(0.144223 -0.0162836 0)
(0.125998 -0.00376571 0)
(0.105008 -0.00250303 0)
(0.0822681 -0.00969344 0)
(0.0564652 -0.00725806 0)
(0.0413631 -0.00417537 0)
(0.027958 -0.00753224 0)
(0.00690735 -0.00561384 0)
(-0.0157529 0.00601151 0)
(-0.0362471 0.0114569 0)
(-0.0484492 0.00986954 0)
(-0.0560888 -0.000278337 0)
(-0.0593724 -0.00797933 0)
(-0.0480275 -0.00425325 0)
(-0.0353231 0.00203995 0)
(-0.0332247 0.00391131 0)
(-0.0355986 0.00653825 0)
(-0.0371012 0.0128338 0)
(-0.0228663 0.00822549 0)
(-0.00112833 -0.00340477 0)
(0.00766779 -0.0125436 0)
(0.00280709 -0.0200903 0)
(-0.00558835 -0.0292782 0)
(-0.00390152 -0.0327588 0)
(0.00885293 -0.0186914 0)
(0.0357651 0.00733478 0)
(0.0563454 0.0198969 0)
(0.0528088 0.0249311 0)
(0.0453429 0.0220981 0)
(0.0406453 0.0196806 0)
(0.0310714 0.0163368 0)
(0.00775739 0.0153714 0)
(-0.0291993 0.0114308 0)
(-0.0642846 0.00574012 0)
(-0.0972491 -0.000821767 0)
(-0.112862 -0.0183757 0)
(-0.0866856 -0.0303994 0)
(-0.0362502 -0.0374507 0)
(0.021585 -0.0448116 0)
(0.0736488 -0.0512681 0)
(0.0999345 -0.0532458 0)
(0.105424 -0.0543782 0)
(0.097369 -0.0477777 0)
(0.072754 -0.0538971 0)
(0.0544644 -0.0712543 0)
(0.0577821 -0.084498 0)
(0.0730345 -0.0922066 0)
(0.0829957 -0.0770828 0)
(0.0744968 -0.0456529 0)
(0.0516939 -0.0065915 0)
(0.003258 0.0242587 0)
(-0.0563421 0.0521069 0)
(-0.103066 0.0797943 0)
(-0.128113 0.0958508 0)
(-0.132917 0.11283 0)
(-0.125367 0.125933 0)
(-0.104106 0.132418 0)
(-0.0847047 0.133984 0)
(-0.0725989 0.142377 0)
(-0.0607235 0.147622 0)
(-0.0472463 0.150818 0)
(-0.0288194 0.143854 0)
(-0.0110892 0.134998 0)
(0.00233807 0.128464 0)
(0.01818 0.116676 0)
(0.0301806 0.095445 0)
(0.0377527 0.0715048 0)
(0.0466418 0.0482813 0)
(0.0549403 0.0215493 0)
(0.0509314 0.0102908 0)
(0.0246105 0.00614356 0)
(0.0195749 0.0113107 0)
(0.058032 0.0337099 0)
(0.102333 0.0470223 0)
(0.143468 0.0629465 0)
(0.170119 0.0735629 0)
(0.195442 0.0815204 0)
(0.211766 0.0816819 0)
(0.209535 0.0743375 0)
(0.210101 0.0600854 0)
(0.22145 0.043704 0)
(0.221131 0.0339177 0)
(0.196348 0.0272173 0)
(0.153058 0.0194747 0)
(0.0900742 0.00450291 0)
(0.0123283 -0.0128203 0)
(-0.0637942 -0.0304904 0)
(-0.13765 -0.0304636 0)
(-0.207487 -0.0351106 0)
(-0.252242 -0.0420832 0)
(-0.265618 -0.0542537 0)
(-0.240702 -0.0703542 0)
(-0.1804 -0.0805412 0)
(-0.112781 -0.0945887 0)
(-0.0555756 -0.100287 0)
(-0.00267761 -0.0977033 0)
(0.0551969 -0.0850773 0)
(0.104275 -0.06802 0)
(0.13969 -0.0505783 0)
(0.161594 -0.0303392 0)
(0.159109 -0.0122606 0)
(0.132129 -0.00117678 0)
(0.101855 0.00196151 0)
(0.0803794 -0.00397175 0)
(0.0607173 -0.00286893 0)
(0.0441816 0.000843685 0)
(0.0302334 -0.00157142 0)
(0.0122179 0.00455149 0)
(-0.0112704 0.0106969 0)
(-0.0361163 0.0150444 0)
(-0.0545589 0.0139342 0)
(-0.0652814 0.00505535 0)
(-0.0625261 -0.00342525 0)
(-0.046709 -0.00251793 0)
(-0.0365592 -0.00508755 0)
(-0.0344916 -0.0105806 0)
(-0.0322064 -0.00844968 0)
(-0.0331809 0.000891004 0)
(-0.026537 0.00548004 0)
(-0.0104384 -0.000104047 0)
(-0.00255929 -0.0116703 0)
(-0.00672113 -0.0281939 0)
(-0.00995082 -0.0407906 0)
(0.00250822 -0.0410835 0)
(0.0260022 -0.02443 0)
(0.0510763 0.00687576 0)
(0.0627534 0.0226098 0)
(0.0546577 0.0255937 0)
(0.0451522 0.0258622 0)
(0.0403403 0.0226252 0)
(0.0310269 0.019585 0)
(0.00795544 0.0176035 0)
(-0.0311767 0.0160185 0)
(-0.0720324 0.0112299 0)
(-0.110217 0.000639986 0)
(-0.121027 -0.0106246 0)