/*--------------------------------*- C++ -*----------------------------------*\
| =========                 |                                                 |
| \\      /  F ield         | OpenFOAM: The Open Source CFD Toolbox           |
|  \\    /   O peration     | Version:  v2012                                 |
|   \\  /    A nd           | Website:  www.openfoam.com                      |
|    \\/     M anipulation  |                                                 |
\*---------------------------------------------------------------------------*/
FoamFile
{
    version     2.0;
    format      ascii;
    class       volScalarField;
    location    "0";
    object      pRec;
}
// * * * * * * * * * * * * * * * * * * * * * * * * * * * * * * * * * * * * * //

dimensions      [0 2 -2 0 0 0 0];


internalField   nonuniform List<scalar> 
4000
(
-7.12193e-13
-7.06063e-13
-7.07567e-13
-7.11292e-13
-7.08756e-13
-7.09141e-13
-7.08121e-13
-7.02813e-13
-6.91327e-13
-6.87901e-13
-6.8984e-13
-6.83952e-13
-6.70525e-13
-6.54572e-13
-6.40858e-13
-6.33803e-13
-6.28319e-13
-6.25624e-13
-6.18019e-13
-6.02474e-13
-5.90938e-13
-5.8387e-13
-5.78236e-13
-5.72092e-13
-5.61501e-13
-5.50626e-13
-5.49682e-13
-5.43442e-13
-5.36893e-13
-5.26188e-13
-5.08486e-13
-5.01972e-13
-5.00869e-13
-5.001e-13
-4.95682e-13
-4.94166e-13
-4.85655e-13
-4.65358e-13
-4.46828e-13
-4.44042e-13
-4.46141e-13
-4.4525e-13
-4.4658e-13
-4.39879e-13
-4.27081e-13
-4.18121e-13
-4.09557e-13
-4.00056e-13
-3.8998e-13
-3.81869e-13
-3.71916e-13
-3.63183e-13
-3.55261e-13
-3.45559e-13
-3.36601e-13
-3.23179e-13
-3.16736e-13
-3.13534e-13
-3.10939e-13
-3.0807e-13
-2.99804e-13
-2.92261e-13
-2.81638e-13
-2.68771e-13
-2.60389e-13
-2.53003e-13
-2.48972e-13
-2.41244e-13
-2.3028e-13
-2.22295e-13
-2.14903e-13
-2.09072e-13
-1.96095e-13
-1.8926e-13
-1.88979e-13
-1.84721e-13
-1.82378e-13
-1.7637e-13
-1.67945e-13
-1.55077e-13
-1.4172e-13
-1.36213e-13
-1.27629e-13
-1.23882e-13
-1.20715e-13
-1.14959e-13
-1.04539e-13
-9.60583e-14
-9.21103e-14
-8.83274e-14
-8.16584e-14
-7.51815e-14
-6.70708e-14
-5.9928e-14
-5.08929e-14
-4.11718e-14
-3.19777e-14
-2.30601e-14
-1.34275e-14
-3.4594e-15
-7.08383e-13
-7.07344e-13
-7.10937e-13
-7.10816e-13
-7.11222e-13
-7.07574e-13
-7.0485e-13
-7.02192e-13
-6.96719e-13
-6.9204e-13
-6.8587e-13
-6.7956e-13
-6.68488e-13
-6.55997e-13
-6.44209e-13
-6.37169e-13
-6.31895e-13
-6.24118e-13
-6.13881e-13
-6.0597e-13
-5.95412e-13
-5.82884e-13
-5.74029e-13
-5.68306e-13
-5.59209e-13
-5.53086e-13
-5.50671e-13
-5.44356e-13
-5.35531e-13
-5.21798e-13
-5.12209e-13
-5.05714e-13
-5.00198e-13
-4.96747e-13
-4.92963e-13
-4.90149e-13
-4.83165e-13
-4.69885e-13
-4.54639e-13
-4.48731e-13
-4.45899e-13
-4.44027e-13
-4.42812e-13
-4.3751e-13
-4.29405e-13
-4.18512e-13
-4.07856e-13
-3.99868e-13
-3.90565e-13
-3.79096e-13
-3.70751e-13
-3.62263e-13
-3.54982e-13
-3.46527e-13
-3.37655e-13
-3.26232e-13
-3.16753e-13
-3.11654e-13
-3.09148e-13
-3.06582e-13
-3.02208e-13
-2.92225e-13
-2.8315e-13
-2.70653e-13
-2.61931e-13
-2.52406e-13
-2.46381e-13
-2.40452e-13
-2.32362e-13
-2.23844e-13
-2.15524e-13
-2.0898e-13
-2.0168e-13
-1.92362e-13
-1.88588e-13
-1.81503e-13
-1.80903e-13
-1.73997e-13
-1.64732e-13
-1.5275e-13
-1.42897e-13
-1.37881e-13
-1.31779e-13
-1.26803e-13
-1.18127e-13
-1.12216e-13
-1.02716e-13
-9.39383e-14
-9.03045e-14
-8.67582e-14
-8.3604e-14
-7.78488e-14
-7.11909e-14
-5.81747e-14
-4.92439e-14
-4.19439e-14
-3.16958e-14
-2.33106e-14
-1.54637e-14
-5.38664e-15
-7.08148e-13
-7.07121e-13
-7.09416e-13
-7.13114e-13
-7.14262e-13
-7.0917e-13
-7.0402e-13
-7.01063e-13
-6.95201e-13
-6.91655e-13
-6.85852e-13
-6.7881e-13
-6.6837e-13
-6.57227e-13
-6.46087e-13
-6.37439e-13
-6.31773e-13
-6.23933e-13
-6.143e-13
-6.05012e-13
-5.93824e-13
-5.84517e-13
-5.7523e-13
-5.69162e-13
-5.6123e-13
-5.5557e-13
-5.51593e-13
-5.43762e-13
-5.3319e-13
-5.19497e-13
-5.13037e-13
-5.0618e-13
-5.00547e-13
-4.98072e-13
-4.9476e-13
-4.91617e-13
-4.82049e-13
-4.71941e-13
-4.60385e-13
-4.48994e-13
-4.44975e-13
-4.40344e-13
-4.41653e-13
-4.38284e-13
-4.30998e-13
-4.19134e-13
-4.06934e-13
-3.96914e-13
-3.90688e-13
-3.85434e-13
-3.73458e-13
-3.62356e-13
-3.52543e-13
-3.43314e-13
-3.36069e-13
-3.27532e-13
-3.16616e-13
-3.13882e-13
-3.1457e-13
-3.07649e-13
-2.99713e-13
-2.86821e-13
-2.77878e-13
-2.722e-13
-2.65099e-13
-2.56501e-13
-2.49531e-13
-2.38919e-13
-2.31035e-13
-2.20823e-13
-2.12212e-13
-2.05915e-13
-1.97565e-13
-1.91948e-13
-1.88108e-13
-1.84431e-13
-1.79232e-13
-1.74127e-13
-1.63947e-13
-1.53193e-13
-1.48732e-13
-1.40351e-13
-1.27769e-13
-1.22654e-13
-1.17466e-13
-1.14547e-13
-1.08055e-13
-9.73352e-14
-9.01908e-14
-8.44677e-14
-8.10831e-14
-7.69283e-14
-6.91824e-14
-5.98589e-14
-4.83202e-14
-3.88848e-14
-3.21496e-14
-2.44579e-14
-1.95074e-14
-6.15966e-15
-7.09311e-13
-7.10796e-13
-7.1182e-13
-7.07708e-13
-7.12412e-13
-7.05815e-13
-7.03929e-13
-7.01286e-13
-6.99571e-13
-6.9439e-13
-6.83774e-13
-6.73549e-13
-6.64925e-13
-6.58622e-13
-6.55797e-13
-6.44786e-13
-6.29604e-13
-6.1993e-13
-6.13594e-13
-6.03813e-13
-5.94681e-13
-5.86899e-13
-5.76226e-13
-5.62551e-13
-5.55805e-13
-5.53039e-13
-5.50832e-13
-5.45573e-13
-5.32708e-13
-5.24024e-13
-5.17499e-13
-5.10152e-13
-5.01373e-13
-4.95731e-13
-4.90137e-13
-4.90947e-13
-4.8191e-13
-4.70229e-13
-4.61551e-13
-4.52146e-13
-4.48776e-13
-4.46325e-13
-4.41608e-13
-4.35142e-13
-4.25436e-13
-4.14772e-13
-4.06476e-13
-4.01466e-13
-3.92969e-13
-3.78247e-13
-3.67881e-13
-3.61381e-13
-3.54958e-13
-3.4775e-13
-3.3542e-13
-3.2836e-13
-3.18764e-13
-3.14061e-13
-3.13439e-13
-3.06757e-13
-2.97775e-13
-2.87788e-13
-2.82465e-13
-2.74796e-13
-2.64266e-13
-2.55791e-13
-2.48141e-13
-2.38907e-13
-2.31938e-13
-2.23368e-13
-2.16481e-13
-2.09597e-13
-2.00892e-13
-1.93509e-13
-1.87504e-13
-1.82829e-13
-1.80023e-13
-1.7303e-13
-1.63787e-13
-1.54057e-13
-1.46997e-13
-1.41427e-13
-1.30082e-13
-1.20357e-13
-1.16538e-13
-1.11675e-13
-1.05112e-13
-9.71201e-14
-8.9519e-14
-8.49842e-14
-8.31807e-14
-7.69405e-14
-7.1287e-14
-5.83143e-14
-4.87935e-14
-4.16308e-14
-3.37745e-14
-2.34032e-14
-1.57164e-14
-5.57843e-15
-7.10919e-13
-7.15677e-13
-7.12017e-13
-7.06719e-13
-7.0259e-13
-7.0648e-13
-7.07044e-13
-7.05648e-13
-6.98877e-13
-6.90958e-13
-6.81704e-13
-6.75421e-13
-6.64919e-13
-6.5555e-13
-6.54353e-13
-6.48604e-13
-6.36869e-13
-6.25321e-13
-6.11432e-13
-5.98053e-13
-5.92936e-13
-5.85815e-13
-5.70681e-13
-5.61009e-13
-5.59084e-13
-5.56982e-13
-5.52842e-13
-5.44278e-13
-5.35115e-13
-5.26448e-13
-5.18199e-13
-5.11812e-13
-5.02895e-13
-4.9648e-13
-4.90921e-13
-4.89854e-13
-4.80992e-13
-4.70079e-13
-4.58502e-13
-4.50998e-13
-4.48611e-13
-4.48873e-13
-4.41988e-13
-4.33483e-13
-4.22606e-13
-4.13017e-13
-4.04951e-13
-3.99467e-13
-3.91522e-13
-3.82127e-13
-3.71739e-13
-3.64905e-13
-3.56424e-13
-3.46864e-13
-3.366e-13
-3.26796e-13
-3.20081e-13
-3.15715e-13
-3.12158e-13
-3.04864e-13
-2.9712e-13
-2.88369e-13
-2.79881e-13
-2.73625e-13
-2.68366e-13
-2.61818e-13
-2.53915e-13
-2.40582e-13
-2.31481e-13
-2.20995e-13
-2.12408e-13
-2.06315e-13
-2.00295e-13
-1.93868e-13
-1.83889e-13
-1.79441e-13
-1.77729e-13
-1.72807e-13
-1.6613e-13
-1.56032e-13
-1.48572e-13
-1.43822e-13
-1.30709e-13
-1.19719e-13
-1.1286e-13
-1.07971e-13
-1.042e-13
-1.00285e-13
-9.20907e-14
-8.6722e-14
-8.19917e-14
-7.66019e-14
-6.88162e-14
-6.27392e-14
-5.41805e-14
-4.23038e-14
-3.42039e-14
-2.59608e-14
-1.52392e-14
-3.16588e-15
-7.07199e-13
-7.17623e-13
-7.14054e-13
-7.03863e-13
-7.07675e-13
-7.12313e-13
-7.10615e-13
-7.06139e-13
-6.9708e-13
-6.82459e-13
-6.78492e-13
-6.73928e-13
-6.69665e-13
-6.58359e-13
-6.51185e-13
-6.50812e-13
-6.39137e-13
-6.28097e-13
-6.1615e-13
-6.01345e-13
-5.90786e-13
-5.78882e-13
-5.60693e-13
-5.57471e-13
-5.59545e-13
-5.6051e-13
-5.52691e-13
-5.42464e-13
-5.33919e-13
-5.30167e-13
-5.20432e-13
-5.10887e-13
-5.01997e-13
-4.9997e-13
-4.97447e-13
-4.88704e-13
-4.78472e-13
-4.69471e-13
-4.58788e-13
-4.53766e-13
-4.51814e-13
-4.49522e-13
-4.40242e-13
-4.342e-13
-4.22979e-13
-4.10492e-13
-4.00148e-13
-3.95237e-13
-3.91631e-13
-3.81998e-13
-3.74692e-13
-3.64191e-13
-3.54466e-13
-3.44608e-13
-3.34882e-13
-3.28706e-13
-3.23089e-13
-3.17403e-13
-3.10198e-13
-3.05925e-13
-2.99106e-13
-2.89222e-13
-2.81193e-13
-2.737e-13
-2.64202e-13
-2.59989e-13
-2.55046e-13
-2.41812e-13
-2.32566e-13
-2.2438e-13
-2.14134e-13
-2.06703e-13
-2.01831e-13
-1.9616e-13
-1.86132e-13
-1.8216e-13
-1.76245e-13
-1.69334e-13
-1.64614e-13
-1.58793e-13
-1.51432e-13
-1.4288e-13
-1.2828e-13
-1.17041e-13
-1.13211e-13
-1.10747e-13
-1.06997e-13
-9.78908e-14
-9.11929e-14
-8.64988e-14
-8.14627e-14
-7.67276e-14
-6.6931e-14
-6.23172e-14
-5.48072e-14
-4.64402e-14
-3.42288e-14
-2.44805e-14
-1.29636e-14
-1.8912e-15
-7.13161e-13
-7.14402e-13
-7.13726e-13
-7.09904e-13
-7.07299e-13
-7.1091e-13
-7.10375e-13
-7.03656e-13
-6.95224e-13
-6.82868e-13
-6.74029e-13
-6.72845e-13
-6.72046e-13
-6.59901e-13
-6.52525e-13
-6.47159e-13
-6.42799e-13
-6.33959e-13
-6.13271e-13
-5.93831e-13
-5.76767e-13
-5.73733e-13
-5.71831e-13
-5.6985e-13
-5.66046e-13
-5.6009e-13
-5.48626e-13
-5.3941e-13
-5.36349e-13
-5.32182e-13
-5.2375e-13
-5.10034e-13
-5.03545e-13
-4.95469e-13
-4.90991e-13
-4.85915e-13
-4.80345e-13
-4.75606e-13
-4.64784e-13
-4.52454e-13
-4.45874e-13
-4.42193e-13
-4.3768e-13
-4.33806e-13
-4.27344e-13
-4.16486e-13
-4.04374e-13
-3.94539e-13
-3.88207e-13
-3.81349e-13
-3.73619e-13
-3.67328e-13
-3.5808e-13
-3.45149e-13
-3.36449e-13
-3.29993e-13
-3.23174e-13
-3.11121e-13
-3.05937e-13
-3.04949e-13
-3.03507e-13
-2.95374e-13
-2.83767e-13
-2.70893e-13
-2.61041e-13
-2.56617e-13
-2.49201e-13
-2.36983e-13
-2.2746e-13
-2.23308e-13
-2.23378e-13
-2.13961e-13
-2.03384e-13
-1.99144e-13
-1.89049e-13
-1.79807e-13
-1.72177e-13
-1.65666e-13
-1.60105e-13
-1.56401e-13
-1.50311e-13
-1.4182e-13
-1.33831e-13
-1.24289e-13
-1.1784e-13
-1.06611e-13
-1.03548e-13
-1.00356e-13
-9.13495e-14
-8.83742e-14
-8.09822e-14
-7.18243e-14
-6.74687e-14
-6.21813e-14
-5.56587e-14
-4.36147e-14
-3.40343e-14
-2.30989e-14
-1.27546e-14
-4.30071e-15
-7.13031e-13
-7.13083e-13
-7.10627e-13
-7.10677e-13
-7.13908e-13
-7.13625e-13
-7.10609e-13
-7.03549e-13
-6.93825e-13
-6.84752e-13
-6.77688e-13
-6.71461e-13
-6.68105e-13
-6.578e-13
-6.53611e-13
-6.46743e-13
-6.43083e-13
-6.32751e-13
-6.07595e-13
-5.94764e-13
-5.90841e-13
-5.84327e-13
-5.73889e-13
-5.63705e-13
-5.60861e-13
-5.55262e-13
-5.43338e-13
-5.36807e-13
-5.32973e-13
-5.29586e-13
-5.23213e-13
-5.16185e-13
-5.1011e-13
-5.04127e-13
-4.92133e-13
-4.84634e-13
-4.79111e-13
-4.70111e-13
-4.61663e-13
-4.52473e-13
-4.47577e-13
-4.471e-13
-4.39681e-13
-4.38302e-13
-4.32085e-13
-4.16486e-13
-4.00611e-13
-3.85562e-13
-3.84192e-13
-3.83737e-13
-3.79704e-13
-3.71106e-13
-3.5765e-13
-3.45244e-13
-3.33754e-13
-3.26912e-13
-3.23508e-13
-3.17838e-13
-3.08329e-13
-3.01363e-13
-2.98352e-13
-2.91789e-13
-2.84664e-13
-2.76129e-13
-2.67482e-13
-2.58853e-13
-2.49619e-13
-2.38789e-13
-2.33082e-13
-2.26105e-13
-2.1873e-13
-2.13831e-13
-2.02571e-13
-1.89838e-13
-1.82337e-13
-1.80751e-13
-1.76645e-13
-1.69658e-13
-1.65671e-13
-1.59854e-13
-1.5081e-13
-1.41974e-13
-1.29733e-13
-1.18523e-13
-1.09467e-13
-1.05916e-13
-1.04623e-13
-1.02009e-13
-9.40015e-14
-8.67356e-14
-7.83451e-14
-7.26812e-14
-6.81227e-14
-6.33639e-14
-5.38365e-14
-4.19037e-14
-3.43884e-14
-2.45702e-14
-1.41124e-14
-2.49385e-15
-7.15825e-13
-7.18427e-13
-7.12532e-13
-7.04756e-13
-7.09884e-13
-7.13376e-13
-7.13316e-13
-7.05403e-13
-6.90907e-13
-6.86683e-13
-6.78786e-13
-6.67737e-13
-6.61743e-13
-6.57323e-13
-6.53952e-13
-6.49556e-13
-6.42561e-13
-6.30413e-13
-6.11186e-13
-5.97462e-13
-5.90054e-13
-5.82005e-13
-5.78543e-13
-5.70552e-13
-5.6028e-13
-5.50421e-13
-5.42517e-13
-5.37181e-13
-5.36376e-13
-5.31067e-13
-5.24238e-13
-5.17357e-13
-5.06677e-13
-4.96373e-13
-4.92844e-13
-4.8571e-13
-4.77628e-13
-4.68505e-13
-4.64723e-13
-4.60156e-13
-4.54506e-13
-4.47984e-13
-4.36412e-13
-4.27214e-13
-4.24375e-13
-4.17118e-13
-4.06684e-13
-3.94939e-13
-3.88057e-13
-3.80608e-13
-3.73367e-13
-3.66064e-13
-3.55907e-13
-3.46697e-13
-3.38495e-13
-3.33432e-13
-3.24374e-13
-3.17234e-13
-3.09073e-13
-3.02035e-13
-2.95226e-13
-2.88902e-13
-2.83043e-13
-2.75291e-13
-2.64474e-13
-2.54013e-13
-2.47642e-13
-2.3938e-13
-2.31712e-13
-2.24595e-13
-2.17371e-13
-2.14343e-13
-2.06983e-13
-1.96664e-13
-1.85351e-13
-1.81325e-13
-1.77467e-13
-1.71246e-13
-1.6617e-13
-1.56791e-13
-1.51586e-13
-1.42839e-13
-1.29809e-13
-1.20106e-13
-1.11897e-13
-1.06869e-13
-1.05684e-13
-1.01122e-13
-9.31085e-14
-8.6785e-14
-7.8199e-14
-7.16509e-14
-6.49732e-14
-6.04747e-14
-5.34959e-14
-4.35675e-14
-3.26669e-14
-2.01491e-14
-9.43806e-15
6.29529e-16
-7.163e-13
-7.15624e-13
-7.15094e-13
-7.12199e-13
-7.08385e-13
-7.11393e-13
-7.0925e-13
-7.08451e-13
-6.99422e-13
-6.82597e-13
-6.73247e-13
-6.64752e-13
-6.63172e-13
-6.61144e-13
-6.56315e-13
-6.49e-13
-6.37911e-13
-6.29996e-13
-6.18563e-13
-6.02431e-13
-5.90341e-13
-5.7725e-13
-5.72158e-13
-5.6457e-13
-5.62444e-13
-5.56325e-13
-5.45476e-13
-5.39967e-13
-5.34772e-13
-5.30418e-13
-5.25883e-13
-5.17483e-13
-5.06607e-13
-4.94846e-13
-4.88921e-13
-4.84091e-13
-4.80452e-13
-4.70511e-13
-4.64919e-13
-4.60549e-13
-4.5124e-13
-4.41992e-13
-4.35865e-13
-4.27989e-13
-4.27367e-13
-4.2158e-13
-4.10935e-13
-3.97465e-13
-3.88092e-13
-3.7751e-13
-3.69805e-13
-3.66042e-13
-3.57771e-13
-3.48078e-13
-3.39173e-13
-3.31091e-13
-3.236e-13
-3.15862e-13
-3.08706e-13
-3.04663e-13
-2.99403e-13
-2.96002e-13
-2.88259e-13
-2.75786e-13
-2.60847e-13
-2.46131e-13
-2.3912e-13
-2.34264e-13
-2.3097e-13
-2.31391e-13
-2.25473e-13
-2.17366e-13
-2.10215e-13
-1.99666e-13
-1.86905e-13
-1.78166e-13
-1.73737e-13
-1.68639e-13
-1.65042e-13
-1.56957e-13
-1.512e-13
-1.43156e-13
-1.31505e-13
-1.2378e-13
-1.14933e-13
-1.06097e-13
-1.01707e-13
-9.55825e-14
-9.23499e-14
-8.82449e-14
-7.66415e-14
-6.7335e-14
-6.22979e-14
-5.74207e-14
-4.81387e-14
-3.84914e-14
-2.91637e-14
-1.79348e-14
-7.06924e-15
-5.16001e-16
-7.14685e-13
-7.14118e-13
-7.13371e-13
-7.14701e-13
-7.14842e-13
-7.09227e-13
-7.07034e-13
-7.04506e-13
-6.97554e-13
-6.886e-13
-6.73924e-13
-6.63106e-13
-6.62366e-13
-6.61713e-13
-6.56302e-13
-6.51963e-13
-6.38402e-13
-6.28599e-13
-6.18971e-13
-6.04173e-13
-5.95089e-13
-5.78657e-13
-5.67821e-13
-5.63423e-13
-5.56808e-13
-5.52078e-13
-5.48051e-13
-5.41572e-13
-5.36833e-13
-5.32957e-13
-5.2479e-13
-5.1593e-13
-5.05594e-13
-4.97562e-13
-4.9342e-13
-4.85256e-13
-4.77049e-13
-4.70936e-13
-4.67412e-13
-4.59167e-13
-4.50703e-13
-4.41507e-13
-4.35415e-13
-4.33734e-13
-4.31573e-13
-4.20082e-13
-4.07033e-13
-3.9356e-13
-3.84413e-13
-3.75899e-13
-3.73209e-13
-3.67957e-13
-3.57385e-13
-3.47539e-13
-3.37207e-13
-3.3383e-13
-3.26585e-13
-3.18384e-13
-3.07512e-13
-2.97879e-13
-2.96466e-13
-2.88468e-13
-2.82581e-13
-2.78711e-13
-2.63841e-13
-2.48921e-13
-2.38575e-13
-2.33637e-13
-2.31408e-13
-2.35064e-13
-2.27418e-13
-2.20142e-13
-2.11038e-13
-1.98469e-13
-1.84468e-13
-1.73928e-13
-1.73431e-13
-1.73223e-13
-1.69459e-13
-1.61098e-13
-1.55634e-13
-1.47106e-13
-1.31249e-13
-1.1986e-13
-1.09013e-13
-1.00185e-13
-1.02884e-13
-1.01399e-13
-9.33225e-14
-8.64385e-14
-7.52384e-14
-6.90958e-14
-6.19421e-14
-5.53956e-14
-5.00482e-14
-4.21714e-14
-2.48953e-14
-8.33353e-15
9.53815e-16
-2.20089e-15
-7.1866e-13
-7.16649e-13
-7.14308e-13
-7.16301e-13
-7.14411e-13
-7.09013e-13
-7.08887e-13
-7.05409e-13
-6.96931e-13
-6.85133e-13
-6.76086e-13
-6.67229e-13
-6.5872e-13
-6.54969e-13
-6.50938e-13
-6.44471e-13
-6.41949e-13
-6.3485e-13
-6.21627e-13
-6.05979e-13
-5.94451e-13
-5.86461e-13
-5.74448e-13
-5.63991e-13
-5.56634e-13
-5.46207e-13
-5.42897e-13
-5.40518e-13
-5.38207e-13
-5.35942e-13
-5.27424e-13
-5.16839e-13
-5.04232e-13
-4.95197e-13
-4.89417e-13
-4.82632e-13
-4.79572e-13
-4.7404e-13
-4.70195e-13
-4.57259e-13
-4.49265e-13
-4.38409e-13
-4.35124e-13
-4.36428e-13
-4.29628e-13
-4.20369e-13
-4.08061e-13
-3.97728e-13
-3.85959e-13
-3.75864e-13
-3.68307e-13
-3.65782e-13
-3.57026e-13
-3.50648e-13
-3.43032e-13
-3.3288e-13
-3.24301e-13
-3.15417e-13
-3.07239e-13
-3.01374e-13
-2.99317e-13
-2.99422e-13
-2.87713e-13
-2.75039e-13
-2.55222e-13
-2.44733e-13
-2.38312e-13
-2.35885e-13
-2.3172e-13
-2.30424e-13
-2.24194e-13
-2.23886e-13
-2.18107e-13
-2.05167e-13
-1.82887e-13
-1.65695e-13
-1.6583e-13
-1.7466e-13
-1.72495e-13
-1.61332e-13
-1.54761e-13
-1.43969e-13
-1.33892e-13
-1.25248e-13
-1.14848e-13
-1.03519e-13
-9.73063e-14
-9.67083e-14
-9.15908e-14
-8.49623e-14
-7.30831e-14
-6.8452e-14
-6.21376e-14
-5.42538e-14
-4.52974e-14
-3.76357e-14
-2.38279e-14
-1.06602e-14
-3.59951e-15
-2.53875e-15
-7.16063e-13
-7.16134e-13
-7.07935e-13
-7.17833e-13
-7.17304e-13
-7.13939e-13
-7.07579e-13
-6.99997e-13
-6.91552e-13
-6.79612e-13
-6.73969e-13
-6.68225e-13
-6.67569e-13
-6.60863e-13
-6.53457e-13
-6.48858e-13
-6.43973e-13
-6.36672e-13
-6.22896e-13
-6.0767e-13
-5.86933e-13
-5.72183e-13
-5.61948e-13
-5.61198e-13
-5.57229e-13
-5.53323e-13
-5.46509e-13
-5.40201e-13
-5.3929e-13
-5.38013e-13
-5.31097e-13
-5.17829e-13
-5.07558e-13
-4.99495e-13
-4.95365e-13
-4.84876e-13
-4.75862e-13
-4.72081e-13
-4.67105e-13
-4.57177e-13
-4.48145e-13
-4.44541e-13
-4.4055e-13
-4.35144e-13
-4.23124e-13
-4.13985e-13
-4.06279e-13
-3.98287e-13
-3.88437e-13
-3.80028e-13
-3.73023e-13
-3.66052e-13
-3.53935e-13
-3.43054e-13
-3.45335e-13
-3.44716e-13
-3.27937e-13
-3.1237e-13
-3.03773e-13
-2.94749e-13
-2.9234e-13
-2.89631e-13
-2.88729e-13
-2.78198e-13
-2.60308e-13
-2.50716e-13
-2.37352e-13
-2.36671e-13
-2.31938e-13
-2.27042e-13
-2.2403e-13
-2.25035e-13
-2.19307e-13
-2.02629e-13
-1.84303e-13
-1.71325e-13
-1.69896e-13
-1.75003e-13
-1.68763e-13
-1.59345e-13
-1.52596e-13
-1.44898e-13
-1.36921e-13
-1.27419e-13
-1.16313e-13
-1.02853e-13
-9.75755e-14
-9.76709e-14
-9.08529e-14
-8.35895e-14
-7.40642e-14
-6.66854e-14
-5.81979e-14
-5.18725e-14
-4.59188e-14
-3.65658e-14
-2.4273e-14
-1.2888e-14
-2.55601e-15
-8.57276e-17
-7.12763e-13
-7.23783e-13
-7.18568e-13
-7.13136e-13
-7.13482e-13
-7.11597e-13
-7.06608e-13
-7.04657e-13
-6.92088e-13
-6.75799e-13
-6.71823e-13
-6.69121e-13
-6.66022e-13
-6.6116e-13
-6.56179e-13
-6.45412e-13
-6.34168e-13
-6.25398e-13
-6.19428e-13
-6.10719e-13
-6.0412e-13
-5.94916e-13
-5.80485e-13
-5.60801e-13
-5.4618e-13
-5.40338e-13
-5.43508e-13
-5.42409e-13
-5.41397e-13
-5.40795e-13
-5.32233e-13
-5.18962e-13
-5.02716e-13
-4.90041e-13
-4.85485e-13
-4.81724e-13
-4.8268e-13
-4.79688e-13
-4.68227e-13
-4.6246e-13
-4.51517e-13
-4.40801e-13
-4.3911e-13
-4.31779e-13
-4.227e-13
-4.13454e-13
-4.03347e-13
-3.98252e-13
-3.93229e-13
-3.82946e-13
-3.74448e-13
-3.63853e-13
-3.55582e-13
-3.47858e-13
-3.42836e-13
-3.37163e-13
-3.29942e-13
-3.23161e-13
-3.14015e-13
-3.01231e-13
-2.90969e-13
-2.83973e-13
-2.78136e-13
-2.72226e-13
-2.61539e-13
-2.53042e-13
-2.44511e-13
-2.3798e-13
-2.32583e-13
-2.30641e-13
-2.267e-13
-2.18996e-13
-2.11598e-13
-2.04025e-13
-1.88061e-13
-1.76909e-13
-1.7076e-13
-1.69556e-13
-1.68674e-13
-1.60229e-13
-1.53372e-13
-1.42637e-13
-1.35937e-13
-1.26465e-13
-1.15107e-13
-1.05169e-13
-1.00346e-13
-9.6269e-14
-9.23346e-14
-8.31508e-14
-7.4375e-14
-7.03556e-14
-6.12415e-14
-5.15504e-14
-4.03847e-14
-3.11609e-14
-2.28037e-14
-1.44494e-14
-5.75149e-15
-5.32645e-16
-7.12601e-13
-7.16866e-13
-7.19794e-13
-7.15566e-13
-7.14229e-13
-7.15309e-13
-7.03284e-13
-6.90148e-13
-6.83887e-13
-6.81336e-13
-6.78344e-13
-6.73339e-13
-6.69748e-13
-6.63082e-13
-6.56554e-13
-6.47132e-13
-6.40161e-13
-6.35601e-13
-6.25182e-13
-6.10335e-13
-5.88465e-13
-5.74504e-13
-5.63887e-13
-5.52813e-13
-5.54795e-13
-5.54158e-13
-5.49868e-13
-5.43312e-13
-5.39681e-13
-5.39482e-13
-5.34225e-13
-5.22726e-13
-5.09238e-13
-4.90592e-13
-4.79727e-13
-4.82475e-13
-4.84767e-13
-4.81475e-13
-4.75075e-13
-4.63991e-13
-4.486e-13
-4.39857e-13
-4.32643e-13
-4.27169e-13
-4.21775e-13
-4.1681e-13
-4.09595e-13
-3.99974e-13
-3.92895e-13
-3.90592e-13
-3.80856e-13
-3.61186e-13
-3.49467e-13
-3.42092e-13
-3.36004e-13
-3.35028e-13
-3.3129e-13
-3.22397e-13
-3.08888e-13
-2.97464e-13
-2.94363e-13
-2.89704e-13
-2.81961e-13
-2.72167e-13
-2.5704e-13
-2.45954e-13
-2.42621e-13
-2.40971e-13
-2.36833e-13
-2.30471e-13
-2.23239e-13
-2.19188e-13
-2.12449e-13
-2.02677e-13
-1.89823e-13
-1.73431e-13
-1.69781e-13
-1.68491e-13
-1.70628e-13
-1.66249e-13
-1.57406e-13
-1.46967e-13
-1.35954e-13
-1.23518e-13
-1.12918e-13
-1.05906e-13
-1.01717e-13
-9.62191e-14
-8.96527e-14
-8.23444e-14
-7.49777e-14
-6.90485e-14
-6.23572e-14
-5.16663e-14
-3.94858e-14
-2.80055e-14
-1.82017e-14
-1.15079e-14
-3.65018e-15
-1.5368e-15
-7.11185e-13
-7.21569e-13
-7.22741e-13
-7.16387e-13
-7.12774e-13
-7.19089e-13
-7.143e-13
-6.97745e-13
-6.76748e-13
-6.71331e-13
-6.70113e-13
-6.71283e-13
-6.70098e-13
-6.66302e-13
-6.60703e-13
-6.48595e-13
-6.38302e-13
-6.29044e-13
-6.14966e-13
-6.05948e-13
-5.96963e-13
-5.83269e-13
-5.702e-13
-5.54504e-13
-5.53837e-13
-5.52498e-13
-5.5191e-13
-5.48002e-13
-5.4028e-13
-5.38885e-13
-5.30416e-13
-5.17842e-13
-5.07953e-13
-4.91982e-13
-4.79518e-13
-4.79729e-13
-4.82675e-13
-4.82511e-13
-4.74457e-13
-4.647e-13
-4.48438e-13
-4.39065e-13
-4.36582e-13
-4.30145e-13
-4.22083e-13
-4.14266e-13
-4.12213e-13
-4.04791e-13
-3.92498e-13
-3.79746e-13
-3.70666e-13
-3.64484e-13
-3.53888e-13
-3.4008e-13
-3.41449e-13
-3.39252e-13
-3.31209e-13
-3.24419e-13
-3.16044e-13
-3.00156e-13
-2.92475e-13
-2.84843e-13
-2.76615e-13
-2.68672e-13
-2.56355e-13
-2.48915e-13
-2.3976e-13
-2.37543e-13
-2.33278e-13
-2.34085e-13
-2.26183e-13
-2.23058e-13
-2.16313e-13
-2.01908e-13
-1.86834e-13
-1.74673e-13
-1.73252e-13
-1.71631e-13
-1.66173e-13
-1.61634e-13
-1.56007e-13
-1.47279e-13
-1.37073e-13
-1.24101e-13
-1.16771e-13
-1.10468e-13
-1.0257e-13
-9.5198e-14
-8.93446e-14
-8.15097e-14
-7.3873e-14
-6.69616e-14
-5.7928e-14
-4.78223e-14
-3.9282e-14
-3.16074e-14
-1.60464e-14
-8.43111e-15
-7.23499e-16
-7.4221e-17
-7.19459e-13
-7.18258e-13
-7.1474e-13
-7.1039e-13
-7.11626e-13
-7.05897e-13
-7.00158e-13
-7.01678e-13
-6.95553e-13
-6.86333e-13
-6.80026e-13
-6.69644e-13
-6.62681e-13
-6.61421e-13
-6.59332e-13
-6.50451e-13
-6.40406e-13
-6.3759e-13
-6.24605e-13
-6.05963e-13
-5.84279e-13
-5.6958e-13
-5.63967e-13
-5.62571e-13
-5.55821e-13
-5.56164e-13
-5.52331e-13
-5.4578e-13
-5.40897e-13
-5.36813e-13
-5.30038e-13
-5.17633e-13
-5.04666e-13
-4.91218e-13
-4.8307e-13
-4.83136e-13
-4.88544e-13
-4.82727e-13
-4.74107e-13
-4.62593e-13
-4.48983e-13
-4.35664e-13
-4.33851e-13
-4.31456e-13
-4.27767e-13
-4.16027e-13
-4.06519e-13
-4.02282e-13
-3.96502e-13
-3.83548e-13
-3.69655e-13
-3.63824e-13
-3.55466e-13
-3.44628e-13
-3.35617e-13
-3.3379e-13
-3.28594e-13
-3.23488e-13
-3.16888e-13
-3.05945e-13
-2.94508e-13
-2.85467e-13
-2.75861e-13
-2.67728e-13
-2.61208e-13
-2.50259e-13
-2.40207e-13
-2.31959e-13
-2.30034e-13
-2.33725e-13
-2.25792e-13
-2.21192e-13
-2.14012e-13
-2.02661e-13
-1.91644e-13
-1.78687e-13
-1.68914e-13
-1.65824e-13
-1.65382e-13
-1.67885e-13
-1.62096e-13
-1.46218e-13
-1.35888e-13
-1.2273e-13
-1.17778e-13
-1.12922e-13
-1.05176e-13
-9.44725e-14
-8.47692e-14
-8.04321e-14
-7.41755e-14
-6.66799e-14
-6.00624e-14
-5.05456e-14
-3.81226e-14
-2.64677e-14
-1.62887e-14
-9.86198e-15
-1.39029e-15
1.30047e-15
-7.19211e-13
-7.17678e-13
-7.15319e-13
-7.13051e-13
-7.19112e-13
-7.15854e-13
-7.00471e-13
-6.92957e-13
-6.86775e-13
-6.82679e-13
-6.81342e-13
-6.77994e-13
-6.64813e-13
-6.57183e-13
-6.53323e-13
-6.47594e-13
-6.42222e-13
-6.34567e-13
-6.20548e-13
-6.02987e-13
-5.87533e-13
-5.71482e-13
-5.61692e-13
-5.63039e-13
-5.63985e-13
-5.55665e-13
-5.4789e-13
-5.46171e-13
-5.44236e-13
-5.39724e-13
-5.32695e-13
-5.19975e-13
-5.0526e-13
-4.90466e-13
-4.79594e-13
-4.81804e-13
-4.81914e-13
-4.80017e-13
-4.78065e-13
-4.68448e-13
-4.53519e-13
-4.39932e-13
-4.33087e-13
-4.2547e-13
-4.23243e-13
-4.18003e-13
-4.08874e-13
-3.98898e-13
-3.91548e-13
-3.83653e-13
-3.70413e-13
-3.6488e-13
-3.56209e-13
-3.45932e-13
-3.42456e-13
-3.38263e-13
-3.26484e-13
-3.16974e-13
-3.11275e-13
-3.02391e-13
-2.96863e-13
-2.85968e-13
-2.76702e-13
-2.68893e-13
-2.59738e-13
-2.48998e-13
-2.42579e-13
-2.32233e-13
-2.27055e-13
-2.24823e-13
-2.24166e-13
-2.22243e-13
-2.16058e-13
-2.02579e-13
-1.89981e-13
-1.803e-13
-1.7498e-13
-1.68641e-13
-1.67918e-13
-1.65394e-13
-1.58738e-13
-1.4868e-13
-1.37538e-13
-1.26469e-13
-1.16788e-13
-1.07308e-13
-1.0055e-13
-9.60669e-14
-9.01048e-14
-8.08417e-14
-7.33006e-14
-6.56777e-14
-5.68904e-14
-4.746e-14
-3.6529e-14
-2.87767e-14
-1.82541e-14
-7.4098e-15
-1.13977e-15
-3.12047e-16
-7.13709e-13
-7.17184e-13
-7.17279e-13
-7.15541e-13
-7.13505e-13
-7.06237e-13
-7.00544e-13
-6.9647e-13
-6.94868e-13
-6.88982e-13
-6.82319e-13
-6.76841e-13
-6.6776e-13
-6.58324e-13
-6.51689e-13
-6.43226e-13
-6.40283e-13
-6.33212e-13
-6.19131e-13
-6.05467e-13
-5.86693e-13
-5.72313e-13
-5.67875e-13
-5.64678e-13
-5.55966e-13
-5.5212e-13
-5.52909e-13
-5.51236e-13
-5.43855e-13
-5.34432e-13
-5.26789e-13
-5.18413e-13
-5.04949e-13
-4.91889e-13
-4.81826e-13
-4.88184e-13
-4.90916e-13
-4.82938e-13
-4.72623e-13
-4.60542e-13
-4.49408e-13
-4.42674e-13
-4.3543e-13
-4.2535e-13
-4.20035e-13
-4.1326e-13
-4.11804e-13
-4.10167e-13
-3.94172e-13
-3.8013e-13
-3.68767e-13
-3.66218e-13
-3.56295e-13
-3.45262e-13
-3.41543e-13
-3.38724e-13
-3.29941e-13
-3.17705e-13
-3.08491e-13
-3.02142e-13
-2.99428e-13
-2.89725e-13
-2.77977e-13
-2.67358e-13
-2.5536e-13
-2.48384e-13
-2.38846e-13
-2.33848e-13
-2.27623e-13
-2.234e-13
-2.19798e-13
-2.21575e-13
-2.16494e-13
-2.02426e-13
-1.90082e-13
-1.80186e-13
-1.77042e-13
-1.71701e-13
-1.63483e-13
-1.56371e-13
-1.62115e-13
-1.57209e-13
-1.39558e-13
-1.26654e-13
-1.17331e-13
-1.06891e-13
-9.88619e-14
-9.56861e-14
-8.97463e-14
-8.11374e-14
-7.29236e-14
-6.54267e-14
-5.81245e-14
-4.59298e-14
-3.92737e-14
-2.75799e-14
-1.55367e-14
-5.41521e-15
-5.04137e-17
-6.64667e-16
-7.22204e-13
-7.18662e-13
-7.16775e-13
-7.1314e-13
-7.07391e-13
-7.0412e-13
-7.00448e-13
-7.00226e-13
-6.96352e-13
-6.8917e-13
-6.81655e-13
-6.76734e-13
-6.69587e-13
-6.63214e-13
-6.54172e-13
-6.41283e-13
-6.30033e-13
-6.23495e-13
-6.18789e-13
-6.09544e-13
-5.89227e-13
-5.76995e-13
-5.6786e-13
-5.61078e-13
-5.58541e-13
-5.55113e-13
-5.54536e-13
-5.51356e-13
-5.42065e-13
-5.3791e-13
-5.28242e-13
-5.17519e-13
-5.0296e-13
-4.89916e-13
-4.84566e-13
-4.8739e-13
-4.86761e-13
-4.81391e-13
-4.72895e-13
-4.61554e-13
-4.49633e-13
-4.4019e-13
-4.36139e-13
-4.30149e-13
-4.25423e-13
-4.18064e-13
-4.06962e-13
-3.99326e-13
-3.93543e-13
-3.8507e-13
-3.77238e-13
-3.65951e-13
-3.55075e-13
-3.46078e-13
-3.39615e-13
-3.32535e-13
-3.27684e-13
-3.19781e-13
-3.07626e-13
-3.01918e-13
-3.00417e-13
-2.91682e-13
-2.79439e-13
-2.65353e-13
-2.56767e-13
-2.48297e-13
-2.38807e-13
-2.31834e-13
-2.27195e-13
-2.23445e-13
-2.21355e-13
-2.21283e-13
-2.15133e-13
-1.98688e-13
-1.88932e-13
-1.80643e-13
-1.76468e-13
-1.71745e-13
-1.67787e-13
-1.639e-13
-1.58387e-13
-1.50206e-13
-1.41051e-13
-1.31553e-13
-1.23057e-13
-1.06147e-13
-9.73902e-14
-9.25345e-14
-8.98895e-14
-7.74403e-14
-6.97565e-14
-6.42317e-14
-6.26119e-14
-4.82355e-14
-3.54059e-14
-2.67717e-14
-1.74437e-14
-2.39984e-15
-6.84613e-16
-2.15403e-15
-7.25286e-13
-7.18283e-13
-7.11879e-13
-7.12719e-13
-7.03781e-13
-7.04781e-13
-7.00892e-13
-7.01441e-13
-7.00219e-13
-6.8823e-13
-6.80931e-13
-6.77152e-13
-6.75146e-13
-6.64495e-13
-6.54448e-13
-6.44934e-13
-6.353e-13
-6.24446e-13
-6.18322e-13
-6.02467e-13
-5.89025e-13
-5.76024e-13
-5.64548e-13
-5.59448e-13
-5.56209e-13
-5.59158e-13
-5.56021e-13
-5.50258e-13
-5.43315e-13
-5.35476e-13
-5.28575e-13
-5.19499e-13
-5.03426e-13
-4.93409e-13
-4.83324e-13
-4.82094e-13
-4.84563e-13
-4.81667e-13
-4.73553e-13
-4.6293e-13
-4.53119e-13
-4.44224e-13
-4.35964e-13
-4.29553e-13
-4.23527e-13
-4.16091e-13
-4.0631e-13
-4.01685e-13
-3.97054e-13
-3.85111e-13
-3.73524e-13
-3.61469e-13
-3.54535e-13
-3.49448e-13
-3.43376e-13
-3.36615e-13
-3.29238e-13
-3.18145e-13
-3.10711e-13
-3.05853e-13
-3.00935e-13
-2.90111e-13
-2.74742e-13
-2.63781e-13
-2.54624e-13
-2.45541e-13
-2.36382e-13
-2.32977e-13
-2.26448e-13
-2.27669e-13
-2.22417e-13
-2.17108e-13
-2.07655e-13
-1.95678e-13
-1.86991e-13
-1.78788e-13
-1.80128e-13
-1.79487e-13
-1.70084e-13
-1.61505e-13
-1.55407e-13
-1.47378e-13
-1.39461e-13
-1.30328e-13
-1.17311e-13
-1.04173e-13
-9.88675e-14
-9.5673e-14
-8.89917e-14
-8.40829e-14
-7.77303e-14
-6.53115e-14
-5.42532e-14
-4.51306e-14
-3.5691e-14
-2.42764e-14
-1.58459e-14
-9.97575e-15
-3.24207e-15
-1.65967e-15
-7.23322e-13
-7.16488e-13
-7.15125e-13
-7.13302e-13
-7.08901e-13
-7.0486e-13
-6.98047e-13
-7.00462e-13
-6.99511e-13
-6.92399e-13
-6.85352e-13
-6.76742e-13
-6.73381e-13
-6.6217e-13
-6.51342e-13
-6.40183e-13
-6.2861e-13
-6.24191e-13
-6.18867e-13
-6.0508e-13
-5.90959e-13
-5.7776e-13
-5.66359e-13
-5.63356e-13
-5.63448e-13
-5.56537e-13
-5.50751e-13
-5.4401e-13
-5.3767e-13
-5.36454e-13
-5.31573e-13
-5.2438e-13
-5.11719e-13
-5.00633e-13
-4.80816e-13
-4.78104e-13
-4.79114e-13
-4.78033e-13
-4.74047e-13
-4.62916e-13
-4.55261e-13
-4.44348e-13
-4.39008e-13
-4.2765e-13
-4.23805e-13
-4.18031e-13
-4.13004e-13
-4.03931e-13
-3.92948e-13
-3.77039e-13
-3.73296e-13
-3.6705e-13
-3.59439e-13
-3.45048e-13
-3.37266e-13
-3.30362e-13
-3.22724e-13
-3.20344e-13
-3.11554e-13
-3.10465e-13
-3.11706e-13
-2.8718e-13
-2.72554e-13
-2.65927e-13
-2.5719e-13
-2.49982e-13
-2.39733e-13
-2.32655e-13
-2.23038e-13
-2.21131e-13
-2.16409e-13
-2.20263e-13
-2.13998e-13
-2.01247e-13
-1.84971e-13
-1.73724e-13
-1.80556e-13
-1.78104e-13
-1.70536e-13
-1.64043e-13
-1.57318e-13
-1.47891e-13
-1.38805e-13
-1.27893e-13
-1.17759e-13
-1.05718e-13
-9.80507e-14
-9.66014e-14
-9.08352e-14
-7.96666e-14
-7.05297e-14
-6.46751e-14
-5.57208e-14
-4.43636e-14
-4.07228e-14
-3.21201e-14
-1.63615e-14
-5.30738e-15
2.0906e-15
-8.06681e-16
-7.17352e-13
-7.19618e-13
-7.19214e-13
-7.1285e-13
-7.06251e-13
-7.06555e-13
-7.037e-13
-6.99566e-13
-6.97098e-13
-6.91185e-13
-6.871e-13
-6.8119e-13
-6.71375e-13
-6.60848e-13
-6.52329e-13
-6.43824e-13
-6.37233e-13
-6.32335e-13
-6.21547e-13
-6.02177e-13
-5.80817e-13
-5.66382e-13
-5.6365e-13
-5.64866e-13
-5.63424e-13
-5.56274e-13
-5.47061e-13
-5.43844e-13
-5.37898e-13
-5.3785e-13
-5.36328e-13
-5.18687e-13
-5.05542e-13
-4.97412e-13
-4.88404e-13
-4.84947e-13
-4.82086e-13
-4.76866e-13
-4.71354e-13
-4.62885e-13
-4.55403e-13
-4.44205e-13
-4.37209e-13
-4.3209e-13
-4.29552e-13
-4.18937e-13
-4.11269e-13
-3.97423e-13
-3.93584e-13
-3.84713e-13
-3.71858e-13
-3.6572e-13
-3.59141e-13
-3.50105e-13
-3.40201e-13
-3.25702e-13
-3.12953e-13
-3.1743e-13
-3.22585e-13
-3.12897e-13
-3.02362e-13