/*--------------------------------*- C++ -*----------------------------------*\
| =========                 |                                                 |
| \\      /  F ield         | OpenFOAM: The Open Source CFD Toolbox           |
|  \\    /   O peration     | Version:  v2012                                 |
|   \\  /    A nd           | Website:  www.openfoam.com                      |
|    \\/     M anipulation  |                                                 |
\*---------------------------------------------------------------------------*/
FoamFile
{
    version     2.0;
    format      ascii;
    class       volVectorField;
    location    "0";
    object      uRec;
}
// * * * * * * * * * * * * * * * * * * * * * * * * * * * * * * * * * * * * * //

dimensions      [0 1 -1 0 0 0 0];


internalField   nonuniform List<vector> 
4000
(
(1 5.40793e-16 0)
(1 1.53452e-15 0)
(1 -9.11385e-16 0)
(1 -5.9053e-16 0)
(1 1.23634e-15 0)
(1 2.60248e-16 0)
(1 2.19427e-15 0)
(1 -1.92948e-15 0)
(1 1.65094e-15 0)
(1 1.56193e-15 0)
(1 -2.49967e-15 0)
(1 2.12586e-16 0)
(1 1.00231e-15 0)
(1 4.45668e-16 0)
(1 -1.11402e-16 0)
(1 3.15148e-16 0)
(1 -1.4292e-15 0)
(1 -1.40742e-15 0)
(1 1.40558e-15 0)
(1 5.67905e-16 0)
(1 3.85249e-17 0)
(1 1.89864e-15 0)
(1 1.75599e-16 0)
(1 2.35556e-15 0)
(1 2.53787e-17 0)
(1 -4.1578e-16 0)
(1 1.36806e-15 0)
(1 -1.49521e-15 0)
(1 -1.40776e-16 0)
(1 -2.12294e-16 0)
(1 1.05704e-15 0)
(1 2.04127e-15 0)
(1 -8.98999e-16 0)
(1 -3.99186e-16 0)
(1 9.46507e-16 0)
(1 -8.87403e-16 0)
(1 -7.50156e-16 0)
(1 1.05126e-15 0)
(1 2.20316e-15 0)
(1 -8.57272e-17 0)
(1 1.55227e-15 0)
(1 -1.36772e-15 0)
(1 -3.93994e-16 0)
(1 5.23108e-16 0)
(1 1.36391e-15 0)
(1 -1.19568e-15 0)
(1 1.01627e-15 0)
(1 1.9837e-16 0)
(1 9.6381e-17 0)
(1 2.02061e-16 0)
(1 -5.07822e-16 0)
(1 1.09265e-15 0)
(1 3.13739e-16 0)
(1 2.44845e-15 0)
(1 1.194e-15 0)
(1 8.14839e-16 0)
(1 1.05538e-16 0)
(1 -1.60382e-16 0)
(1 9.92559e-16 0)
(1 2.26745e-15 0)
(1 -1.23901e-16 0)
(1 -1.41159e-15 0)
(1 -4.05673e-16 0)
(1 9.11159e-16 0)
(1 5.72844e-16 0)
(1 1.58012e-16 0)
(1 3.08234e-16 0)
(1 -7.57643e-16 0)
(1 9.05835e-16 0)
(1 -7.40706e-16 0)
(1 -4.57926e-16 0)
(1 3.10942e-16 0)
(1 3.04702e-16 0)
(1 -3.11718e-16 0)
(1 -7.96884e-16 0)
(1 -1.6381e-15 0)
(1 -1.09559e-16 0)
(1 -9.60321e-17 0)
(1 8.02207e-16 0)
(1 1.33979e-15 0)
(1 6.10795e-16 0)
(1 1.37857e-15 0)
(1 -5.89844e-16 0)
(1 4.09186e-16 0)
(1 -1.01659e-15 0)
(1 -1.06397e-15 0)
(1 -5.36102e-17 0)
(1 9.12335e-16 0)
(1 1.31021e-15 0)
(1 8.219e-16 0)
(1 1.9572e-16 0)
(1 -6.90502e-16 0)
(1 8.84361e-16 0)
(1 1.55785e-15 0)
(1 -8.29754e-16 0)
(1 -1.70487e-15 0)
(1 1.6829e-16 0)
(1 1.36907e-15 0)
(1 3.012e-18 0)
(1 -1.37986e-16 0)
(1 4.25764e-16 0)
(1 3.65619e-15 0)
(1 -8.98661e-16 0)
(1 -1.36058e-15 0)
(1 7.52799e-18 0)
(1 1.2412e-15 0)
(1 2.56619e-15 0)
(1 -1.92727e-15 0)
(1 2.05941e-15 0)
(1 1.62543e-15 0)
(1 -3.01931e-16 0)
(1 6.41282e-16 0)
(1 1.34732e-15 0)
(1 -1.85199e-16 0)
(1 -7.22434e-16 0)
(1 1.89591e-15 0)
(1 -5.80486e-16 0)
(1 -6.31534e-17 0)
(1 2.14833e-15 0)
(1 5.57438e-16 0)
(1 1.49677e-16 0)
(1 9.27006e-16 0)
(1 -5.80905e-16 0)
(1 1.66122e-15 0)
(1 1.35011e-16 0)
(1 1.08737e-15 0)
(1 3.45226e-15 0)
(1 -1.9721e-15 0)
(1 -3.10142e-16 0)
(1 1.10396e-15 0)
(1 1.97832e-16 0)
(1 2.83941e-15 0)
(1 -1.20476e-15 0)
(1 -4.56751e-16 0)
(1 1.87524e-15 0)
(1 -7.94864e-16 0)
(1 6.85498e-16 0)
(1 3.18293e-15 0)
(1 1.91735e-15 0)
(1 -9.26e-17 0)
(1 -2.89045e-16 0)
(1 -1.18286e-15 0)
(1 -1.40814e-15 0)
(1 -6.6524e-17 0)
(1 8.97086e-16 0)
(1 -6.66674e-16 0)
(1 3.5704e-15 0)
(1 3.48449e-15 0)
(1 3.37607e-15 0)
(1 1.75927e-15 0)
(1 7.93091e-16 0)
(1 2.61527e-16 0)
(1 2.58514e-15 0)
(1 2.05795e-15 0)
(1 1.97323e-15 0)
(1 6.27378e-16 0)
(1 1.2376e-15 0)
(1 2.52268e-15 0)
(1 1.33692e-15 0)
(1 -6.57164e-16 0)
(1 5.83834e-16 0)
(1 7.86261e-16 0)
(1 -1.67275e-16 0)
(1 1.27366e-15 0)
(1 3.13931e-16 0)
(1 1.7223e-15 0)
(1 -1.43553e-15 0)
(1 -1.57324e-15 0)
(1 1.03311e-15 0)
(1 -5.81613e-16 0)
(1 -1.08746e-15 0)
(1 6.17191e-16 0)
(1 1.73243e-15 0)
(1 -5.63356e-16 0)
(1 8.12884e-17 0)
(1 -6.24111e-17 0)
(1 8.91479e-16 0)
(1 2.21362e-15 0)
(1 7.47386e-16 0)
(1 2.5577e-15 0)
(1 1.07452e-15 0)
(1 1.27416e-15 0)
(1 2.17299e-15 0)
(1 -1.85241e-16 0)
(1 3.55324e-16 0)
(1 -9.46484e-16 0)
(1 -9.06559e-16 0)
(1 1.10174e-16 0)
(1 1.20563e-15 0)
(1 1.99919e-15 0)
(1 5.0319e-16 0)
(1 -1.04309e-15 0)
(1 2.63022e-15 0)
(1 1.94854e-15 0)
(1 -2.32395e-15 0)
(1 -1.75652e-15 0)
(1 1.21556e-15 0)
(1 6.72726e-16 0)
(1 -3.70507e-16 0)
(1 -3.23448e-16 0)
(1 1.06276e-17 0)
(1 2.57752e-15 0)
(1 -1.15036e-16 0)
(1 -1.83918e-16 0)
(1 1.53788e-16 0)
(1 1.40352e-15 0)
(1 2.60694e-15 0)
(1 4.89085e-15 0)
(1 -1.17342e-15 0)
(1 -7.46157e-16 0)
(1 1.31623e-15 0)
(1 3.06924e-15 0)
(1 2.591e-15 0)
(1 1.31415e-16 0)
(1 3.70792e-16 0)
(1 1.20507e-15 0)
(1 1.69862e-15 0)
(1 2.42132e-15 0)
(1 6.74022e-16 0)
(1 2.12777e-15 0)
(1 6.83377e-16 0)
(1 -7.39342e-16 0)
(1 -6.72506e-17 0)
(1 4.92018e-16 0)
(1 3.59733e-15 0)
(1 3.77059e-15 0)
(1 3.51173e-15 0)
(1 -1.26566e-15 0)
(1 -1.57755e-16 0)
(1 1.60924e-15 0)
(1 1.26139e-15 0)
(1 -6.65378e-16 0)
(1 1.00982e-15 0)
(1 1.57642e-15 0)
(1 4.22888e-16 0)
(1 7.18382e-16 0)
(1 2.73903e-17 0)
(1 3.08584e-15 0)
(1 3.33725e-15 0)
(1 -6.62831e-16 0)
(1 -4.29767e-16 0)
(1 4.94731e-16 0)
(1 -4.99127e-16 0)
(1 -8.80758e-16 0)
(1 3.43492e-16 0)
(1 6.98793e-16 0)
(1 1.28652e-15 0)
(1 4.61042e-15 0)
(1 5.34503e-15 0)
(1 3.91796e-15 0)
(1 3.94562e-15 0)
(1 1.9002e-15 0)
(1 4.04086e-15 0)
(1 6.4015e-17 0)
(1 2.34863e-15 0)
(1 7.33509e-16 0)
(1 2.75387e-15 0)
(1 3.29315e-15 0)
(1 4.09928e-15 0)
(1 7.88202e-16 0)
(1 2.92674e-16 0)
(1 1.59462e-15 0)
(1 1.2968e-15 0)
(1 -9.74265e-16 0)
(1 -1.74353e-16 0)
(1 8.79635e-16 0)
(1 -7.01544e-16 0)
(1 5.99315e-16 0)
(1 1.88846e-15 0)
(1 8.92116e-16 0)
(1 1.08241e-15 0)
(1 9.06543e-16 0)
(1 2.08111e-16 0)
(1 -1.60019e-15 0)
(1 3.09142e-17 0)
(1 3.70362e-16 0)
(1 9.82741e-16 0)
(1 1.70823e-15 0)
(1 1.88483e-15 0)
(1 6.44119e-16 0)
(1 -2.82759e-16 0)
(1 8.39712e-16 0)
(1 2.5885e-15 0)
(1 5.79572e-16 0)
(1 8.79114e-16 0)
(1 9.44539e-16 0)
(1 -6.83571e-16 0)
(1 -3.33718e-17 0)
(1 6.26062e-16 0)
(1 2.57034e-15 0)
(1 1.32075e-15 0)
(1 6.52394e-16 0)
(1 5.3852e-16 0)
(1 1.68697e-15 0)
(1 -7.28284e-16 0)
(1 -9.89806e-17 0)
(1 1.68918e-15 0)
(1 -1.6471e-15 0)
(1 2.35816e-16 0)
(1 1.63934e-16 0)
(1 1.70194e-16 0)
(1 2.13408e-15 0)
(1 1.4742e-15 0)
(1 -5.71818e-16 0)
(1 1.68761e-15 0)
(1 -3.23285e-16 0)
(1 2.63797e-15 0)
(1 5.40082e-15 0)
(1 1.08167e-15 0)
(1 4.6688e-16 0)
(1 -9.79099e-18 0)
(1 5.3e-15 0)
(1 6.98107e-16 0)
(1 2.66332e-16 0)
(1 4.21751e-15 0)
(1 -4.87851e-16 0)
(1 2.52883e-15 0)
(1 2.46012e-16 0)
(1 -1.2878e-15 0)
(1 5.31401e-15 0)
(1 2.7287e-16 0)
(1 2.28513e-15 0)
(1 1.28725e-15 0)
(1 1.48656e-15 0)
(1 5.34703e-15 0)
(1 3.47955e-15 0)
(1 3.11515e-15 0)
(1 6.56508e-16 0)
(1 9.40153e-16 0)
(1 2.73447e-15 0)
(1 1.20971e-15 0)
(1 8.43934e-16 0)
(1 1.09395e-15 0)
(1 2.75051e-15 0)
(1 1.19716e-15 0)
(1 6.77962e-16 0)
(1 -5.38379e-16 0)
(1 1.55171e-16 0)
(1 3.57749e-15 0)
(1 2.03043e-15 0)
(1 2.9209e-15 0)
(1 7.59327e-16 0)
(1 -5.56348e-16 0)
(1 5.59678e-16 0)
(1 1.83771e-15 0)
(1 2.84639e-15 0)
(1 1.63234e-15 0)
(1 4.03172e-15 0)
(1 5.14036e-15 0)
(1 4.94587e-15 0)
(1 5.20277e-15 0)
(1 3.34876e-15 0)
(1 2.87374e-15 0)
(1 2.36908e-15 0)
(1 3.49366e-15 0)
(1 2.3362e-15 0)
(1 3.68013e-15 0)
(1 4.23151e-15 0)
(1 3.95915e-15 0)
(1 4.90834e-15 0)
(1 2.31266e-15 0)
(1 -3.73718e-16 0)
(1 -6.93174e-17 0)
(1 7.24615e-16 0)
(1 -8.8486e-16 0)
(1 1.90567e-16 0)
(1 -4.23357e-16 0)
(1 3.00469e-15 0)
(1 8.98918e-16 0)
(1 6.63816e-16 0)
(1 1.38846e-15 0)
(1 2.67512e-16 0)
(1 -2.86006e-16 0)
(1 -6.54441e-16 0)
(1 -1.07694e-15 0)
(1 8.04549e-16 0)
(1 3.12179e-15 0)
(1 1.21782e-15 0)
(1 3.29156e-15 0)
(1 2.81631e-15 0)
(1 -6.49148e-16 0)
(1 2.85111e-15 0)
(1 1.24908e-15 0)
(1 1.95642e-15 0)
(1 1.78977e-15 0)
(1 6.49277e-17 0)
(1 1.50055e-15 0)
(1 1.96019e-16 0)
(1 1.68374e-15 0)
(1 2.11613e-15 0)
(1 4.92562e-16 0)
(1 2.08218e-15 0)
(1 8.78141e-16 0)
(1 2.02174e-15 0)
(1 1.64551e-15 0)
(1 5.49673e-16 0)
(1 5.73432e-16 0)
(1 5.60728e-16 0)
(1 -1.29276e-15 0)
(1 -1.3553e-15 0)
(1 8.28535e-16 0)
(1 -5.14071e-17 0)
(1 2.12061e-15 0)
(1 -4.06203e-16 0)
(1 1.03954e-15 0)
(1 2.22849e-15 0)
(1 1.6183e-15 0)
(1 1.62399e-15 0)
(1 5.93382e-15 0)
(1 3.75654e-15 0)
(1 2.87097e-15 0)
(1 4.21947e-15 0)
(1 1.18405e-16 0)
(1 -9.89959e-16 0)
(1 2.57133e-15 0)
(1 2.28343e-15 0)
(1 4.94416e-15 0)
(1 3.35487e-15 0)
(1 1.46847e-15 0)
(1 4.39749e-16 0)
(1 6.60063e-16 0)
(1 2.07376e-15 0)
(1 3.57001e-15 0)
(1 4.66496e-15 0)
(1 1.35493e-15 0)
(1 8.8549e-16 0)
(1 6.11022e-16 0)
(1 2.16657e-15 0)
(1 2.00043e-15 0)
(1 4.05739e-16 0)
(1 1.84262e-15 0)
(1 3.34484e-15 0)
(1 8.86173e-17 0)
(1 3.95524e-15 0)
(1 1.23781e-16 0)
(1 -5.10072e-16 0)
(1 9.5765e-16 0)
(1 4.87308e-16 0)
(1 2.41418e-15 0)
(1 4.14025e-15 0)
(1 3.23209e-15 0)
(1 1.56457e-15 0)
(1 -1.03199e-15 0)
(1 1.59624e-15 0)
(1 5.20742e-16 0)
(1 4.63984e-15 0)
(1 5.61836e-15 0)
(1 6.82983e-15 0)
(1 5.37509e-15 0)
(1 4.10958e-15 0)
(1 4.47166e-15 0)
(1 2.79839e-15 0)
(1 2.55772e-15 0)
(1 4.36776e-15 0)
(1 4.74281e-15 0)
(1 4.4092e-15 0)
(1 3.50578e-15 0)
(1 3.72476e-15 0)
(1 1.02516e-15 0)
(1 9.70549e-16 0)
(1 4.46578e-15 0)
(1 1.29122e-15 0)
(1 1.94686e-15 0)
(1 1.41744e-15 0)
(1 9.81933e-16 0)
(1 1.2078e-15 0)
(1 8.82231e-16 0)
(1 2.87758e-15 0)
(1 -2.8827e-16 0)
(1 2.3708e-15 0)
(1 2.69051e-16 0)
(1 5.63383e-16 0)
(1 2.60749e-15 0)
(1 1.01772e-15 0)
(1 2.97429e-16 0)
(1 1.30268e-15 0)
(1 3.38746e-15 0)
(1 3.79467e-15 0)
(1 3.16722e-15 0)
(1 1.67698e-15 0)
(1 1.09993e-15 0)
(1 1.79258e-15 0)
(1 1.65949e-15 0)
(1 1.15222e-15 0)
(1 2.91897e-15 0)
(1 2.71748e-16 0)
(1 1.98103e-15 0)
(1 1.00204e-15 0)
(1 5.97159e-16 0)
(1 1.6335e-15 0)
(1 1.11785e-15 0)
(1 1.47595e-15 0)
(1 2.95437e-15 0)
(1 1.50864e-15 0)
(1 2.99149e-15 0)
(1 1.54466e-15 0)
(1 2.71688e-17 0)
(1 1.16441e-15 0)
(1 -2.17692e-15 0)
(1 -1.07185e-15 0)
(1 1.99023e-16 0)
(1 -2.19485e-15 0)
(1 2.29681e-15 0)
(1 2.26488e-15 0)
(1 1.5256e-15 0)
(1 2.81046e-15 0)
(1 1.57705e-15 0)
(1 3.60655e-15 0)
(1 4.13066e-15 0)
(1 4.6118e-15 0)
(1 5.9214e-15 0)
(1 2.78864e-15 0)
(1 2.62226e-16 0)
(1 2.14611e-15 0)
(1 2.02472e-15 0)
(1 3.00603e-15 0)
(1 1.65571e-15 0)
(1 2.53338e-15 0)
(1 2.35786e-15 0)
(1 -9.88626e-17 0)
(1 2.55884e-15 0)
(1 3.06125e-16 0)
(1 5.96496e-15 0)
(1 4.48474e-15 0)
(1 1.71526e-15 0)
(1 3.6384e-15 0)
(1 2.14984e-15 0)
(1 1.2774e-15 0)
(1 3.97268e-16 0)
(1 5.86064e-16 0)
(1 6.8141e-16 0)
(1 1.83965e-15 0)
(1 1.64488e-15 0)
(1 3.30316e-15 0)
(1 -5.59482e-16 0)
(1 2.4509e-15 0)
(1 4.38076e-15 0)
(1 4.29294e-15 0)
(1 2.21308e-15 0)
(1 1.90053e-15 0)
(1 3.50352e-15 0)
(1 2.66719e-15 0)
(1 9.46585e-16 0)
(1 3.90514e-16 0)
(1 2.84613e-15 0)
(1 4.36518e-15 0)
(1 4.07405e-15 0)
(1 6.34891e-15 0)
(1 6.83373e-15 0)
(1 6.12406e-15 0)
(1 3.86365e-15 0)
(1 4.03665e-15 0)
(1 4.98716e-15 0)
(1 5.3559e-15 0)
(1 4.12705e-15 0)
(1 4.70588e-15 0)
(1 5.23194e-15 0)
(1 5.00822e-15 0)
(1 4.80242e-15 0)
(1 5.2291e-15 0)
(1 3.86403e-15 0)
(1 1.07635e-15 0)
(1 1.24093e-15 0)
(1 1.52108e-16 0)
(1 2.50438e-15 0)
(1 1.99167e-15 0)
(1 4.59104e-15 0)
(1 2.49138e-15 0)
(1 2.07961e-15 0)
(1 1.57055e-15 0)
(1 2.01247e-15 0)
(1 1.99557e-15 0)
(1 3.18188e-15 0)
(1 8.77947e-16 0)
(1 9.5941e-17 0)
(1 7.52876e-16 0)
(1 2.25757e-15 0)
(1 5.02998e-15 0)
(1 2.05374e-15 0)
(1 7.93156e-16 0)
(1 2.14106e-15 0)
(1 3.19125e-15 0)
(1 1.70144e-15 0)
(1 2.76096e-15 0)
(1 2.01661e-15 0)
(1 1.11473e-15 0)
(1 1.00323e-15 0)
(1 -5.69001e-16 0)
(1 -8.71906e-17 0)
(1 1.65507e-15 0)
(1 2.26719e-15 0)
(1 1.95269e-15 0)
(1 3.35178e-15 0)
(1 3.63114e-15 0)
(1 4.6928e-15 0)
(1 3.41077e-15 0)
(1 1.23473e-15 0)
(1 -1.20869e-15 0)
(1 7.23934e-16 0)
(1 1.47548e-15 0)
(1 -5.54081e-16 0)
(1 -9.99863e-18 0)
(1 3.3052e-15 0)
(1 6.98982e-16 0)
(1 3.18996e-15 0)
(1 2.20752e-16 0)
(1 1.29753e-15 0)
(1 5.9762e-15 0)
(1 2.82948e-15 0)
(1 4.22683e-15 0)
(1 5.39903e-15 0)
(1 1.62601e-15 0)
(1 1.9917e-15 0)
(1 4.49871e-15 0)
(1 3.0789e-15 0)
(1 5.76895e-15 0)
(1 4.28989e-15 0)
(1 1.29791e-15 0)
(1 2.28159e-15 0)
(1 3.44534e-15 0)
(1 3.30747e-15 0)
(1 -2.64841e-15 0)
(1 4.55656e-15 0)
(1 1.59476e-16 0)
(1 3.67816e-15 0)
(1 2.47216e-15 0)
(1 1.59782e-15 0)
(1 1.52794e-15 0)
(1 2.19677e-15 0)
(1 4.12438e-15 0)
(1 1.86721e-15 0)
(1 2.31201e-15 0)
(1 3.2164e-15 0)
(1 7.27228e-16 0)
(1 1.22203e-15 0)
(1 4.66425e-15 0)
(1 4.63287e-15 0)
(1 3.92729e-15 0)
(1 -3.33775e-16 0)
(1 2.42489e-15 0)
(1 2.3282e-15 0)
(1 1.32512e-15 0)
(1 3.98508e-15 0)
(1 2.39471e-15 0)
(1 4.61607e-15 0)
(1 4.96874e-15 0)
(1 5.88038e-15 0)
(1 4.55287e-15 0)
(1 5.48203e-15 0)
(1 6.97782e-15 0)
(1 4.8171e-15 0)
(1 4.58904e-15 0)
(1 5.54397e-15 0)
(1 6.78428e-15 0)
(1 4.48998e-15 0)
(1 3.95533e-15 0)
(1 4.3036e-15 0)
(1 5.46487e-15 0)
(1 5.564e-15 0)
(1 5.74384e-15 0)
(1 1.80271e-15 0)
(1 2.99215e-15 0)
(1 1.50103e-15 0)
(1 2.27174e-15 0)
(1 1.42335e-15 0)
(1 5.90805e-16 0)
(1 7.34644e-16 0)
(1 3.13297e-15 0)
(1 2.98773e-15 0)
(1 4.75069e-16 0)
(1 3.92383e-15 0)
(1 3.71483e-15 0)
(1 1.38529e-15 0)
(1 9.81608e-16 0)
(1 1.13361e-15 0)
(1 3.83625e-15 0)
(1 2.54045e-15 0)
(1 4.33479e-15 0)
(1 3.19493e-15 0)
(1 3.07257e-15 0)
(1 3.36564e-15 0)
(1 3.40048e-15 0)
(1 3.26503e-15 0)
(1 2.87728e-15 0)
(1 2.19272e-15 0)
(1 2.96835e-15 0)
(1 1.57586e-15 0)
(1 1.98932e-15 0)
(1 2.64943e-15 0)
(1 1.67249e-15 0)
(1 2.26467e-15 0)
(1 3.33499e-15 0)
(1 4.24405e-15 0)
(1 3.99419e-15 0)
(1 2.757e-15 0)
(1 3.79953e-15 0)
(1 1.20801e-15 0)
(1 1.10658e-16 0)
(1 1.8652e-15 0)
(1 9.26551e-16 0)
(1 -6.33979e-16 0)
(1 7.9028e-16 0)
(1 7.73413e-16 0)
(1 1.48749e-15 0)
(1 3.23882e-15 0)
(1 2.26398e-15 0)
(1 1.26932e-15 0)
(1 3.37506e-15 0)
(1 6.10735e-15 0)
(1 7.25044e-15 0)
(1 4.68278e-15 0)
(1 -7.1108e-16 0)
(1 4.03373e-15 0)
(1 2.01725e-15 0)
(1 3.3305e-15 0)
(1 6.01815e-15 0)
(1 4.35092e-15 0)
(1 6.71795e-15 0)
(1 4.84369e-15 0)
(1 4.65774e-16 0)
(1 1.06728e-15 0)
(1 -1.6353e-15 0)
(1 1.30871e-15 0)
(1 2.18221e-15 0)
(1 1.92786e-15 0)
(1 -1.57878e-15 0)
(1 -1.14091e-15 0)
(1 1.91224e-15 0)
(1 2.64172e-15 0)
(1 4.58333e-15 0)
(1 7.41689e-15 0)
(1 3.2182e-15 0)
(1 3.12098e-15 0)
(1 -1.97724e-17 0)
(1 1.33886e-15 0)
(1 1.93668e-15 0)
(1 1.67706e-15 0)
(1 2.92467e-15 0)
(1 3.68735e-15 0)
(1 6.27411e-15 0)
(1 2.44097e-15 0)
(1 2.80012e-15 0)
(1 5.80113e-15 0)
(1 3.15413e-15 0)
(1 2.84464e-15 0)
(1 6.24118e-15 0)
(1 7.57281e-15 0)
(1 7.02334e-15 0)
(1 2.95836e-15 0)
(1 5.27394e-15 0)
(1 6.9138e-15 0)
(1 6.1558e-15 0)
(1 3.29226e-15 0)
(1 6.81743e-15 0)
(1 7.6012e-15 0)
(1 8.31306e-15 0)
(1 4.69332e-15 0)
(1 3.35212e-15 0)
(1 6.0568e-15 0)
(1 2.51613e-15 0)
(1 3.09304e-16 0)
(1 4.13867e-15 0)
(1 5.27136e-15 0)
(1 4.77221e-15 0)
(1 2.39952e-15 0)
(1 2.95038e-15 0)
(1 2.95108e-15 0)
(1 9.34563e-16 0)
(1 3.05609e-15 0)
(1 3.01208e-15 0)
(1 4.14198e-15 0)
(1 3.40038e-15 0)
(1 2.4014e-15 0)
(1 1.05134e-15 0)
(1 2.21587e-15 0)
(1 5.30941e-15 0)
(1 3.51309e-15 0)
(1 2.28044e-15 0)
(1 2.31116e-15 0)
(1 1.61201e-15 0)
(1 3.87858e-15 0)
(1 1.87149e-15 0)
(1 3.73853e-15 0)
(1 3.91739e-15 0)
(1 1.74757e-16 0)
(1 2.55115e-15 0)
(1 2.80819e-15 0)
(1 4.19192e-15 0)
(1 3.88605e-15 0)
(1 -1.71279e-16 0)
(1 1.50271e-15 0)
(1 3.66334e-15 0)
(1 3.80112e-15 0)
(1 4.29271e-15 0)
(1 3.73046e-15 0)
(1 3.75971e-15 0)
(1 2.24198e-16 0)
(1 5.51675e-16 0)
(1 2.07402e-15 0)
(1 1.87742e-15 0)
(1 -2.24685e-16 0)
(1 8.50141e-16 0)
(1 -4.52934e-16 0)
(1 1.68188e-15 0)
(1 9.64683e-16 0)
(1 4.49516e-15 0)
(1 2.11868e-15 0)
(1 3.23589e-16 0)
(1 5.39415e-15 0)
(1 4.92831e-15 0)
(1 4.33987e-15 0)
(1 3.20948e-15 0)
(1 3.43646e-15 0)
(1 4.55406e-15 0)
(1 4.41545e-15 0)
(1 4.90877e-15 0)
(1 3.80477e-15 0)
(1 5.99776e-15 0)
(1 5.98895e-15 0)
(1 6.79174e-16 0)
(1 -1.95574e-15 0)
(1 2.07841e-15 0)
(1 3.68776e-16 0)
(1 3.01434e-15 0)
(1 1.82602e-15 0)
(1 -6.43948e-16 0)
(1 1.81512e-15 0)
(1 -6.8313e-16 0)
(1 1.10916e-15 0)
(1 4.29979e-15 0)
(1 5.1239e-15 0)
(1 2.05319e-15 0)
(1 4.09067e-15 0)
(1 2.9948e-15 0)
(1 1.30389e-15 0)
(1 2.26993e-15 0)
(1 2.29603e-15 0)
(1 4.72637e-15 0)
(1 4.65787e-15 0)
(1 4.71858e-15 0)
(1 2.00599e-15 0)
(1 4.60626e-15 0)
(1 5.34405e-15 0)
(1 4.39092e-15 0)
(1 6.81451e-15 0)
(1 3.7822e-15 0)
(1 6.06209e-15 0)
(1 5.64382e-15 0)
(1 2.72178e-15 0)
(1 4.4414e-15 0)
(1 6.25132e-15 0)
(1 7.7913e-15 0)
(1 4.95304e-15 0)
(1 7.21522e-15 0)
(1 8.98499e-15 0)
(1 7.95103e-15 0)
(1 7.86152e-15 0)
(1 3.81096e-15 0)
(1 7.15968e-15 0)
(1 3.59605e-15 0)
(1 4.98707e-15 0)
(1 3.94613e-15 0)
(1 2.27173e-15 0)
(1 5.18258e-15 0)
(1 -9.80439e-16 0)
(1 3.73684e-15 0)
(1 3.95363e-15 0)
(1 4.51071e-16 0)
(1 6.16945e-15 0)
(1 5.16049e-15 0)
(1 5.37735e-15 0)
(1 1.9009e-15 0)
(1 3.33302e-15 0)
(1 1.97681e-15 0)
(1 1.67341e-15 0)
(1 4.35277e-15 0)
(1 3.14607e-15 0)
(1 2.72674e-15 0)
(1 2.17785e-15 0)
(1 5.21408e-15 0)
(1 4.7668e-15 0)
(1 5.53129e-15 0)
(1 2.5916e-15 0)
(1 3.96345e-15 0)
(1 3.29008e-16 0)
(1 7.27907e-16 0)
(1 1.53072e-15 0)
(1 2.73156e-15 0)
(1 2.82971e-15 0)
(1 2.6185e-15 0)
(1 2.30846e-15 0)
(1 3.54763e-15 0)
(1 4.38173e-15 0)
(1 5.71304e-15 0)
(1 5.97705e-15 0)
(1 4.39032e-15 0)
(1 2.33541e-15 0)
(1 1.13082e-15 0)
(1 3.5645e-15 0)
(1 3.62499e-15 0)
(1 5.32587e-16 0)
(1 8.63304e-16 0)
(1 1.75069e-15 0)
(1 2.70296e-16 0)
(1 2.21132e-15 0)
(1 9.42694e-16 0)
(1 3.75484e-15 0)
(1 3.77195e-15 0)
(1 4.12858e-15 0)
(1 4.23968e-15 0)
(1 3.06797e-15 0)
(1 8.79683e-15 0)
(1 4.649e-15 0)
(1 4.545e-15 0)
(1 4.21418e-15 0)
(1 2.4028e-15 0)
(1 2.42753e-15 0)
(1 3.37066e-15 0)
(1 3.29569e-15 0)
(1 4.19142e-15 0)
(1 9.26953e-16 0)
(1 2.31554e-15 0)
(1 -1.45653e-15 0)
(1 7.35265e-16 0)
(1 3.22494e-15 0)
(1 3.37577e-15 0)
(1 1.17802e-15 0)
(1 2.85717e-16 0)
(1 2.88649e-15 0)
(1 1.13261e-15 0)
(1 1.06138e-15 0)
(1 4.18005e-15 0)
(1 4.09394e-15 0)
(1 4.50911e-15 0)
(1 4.45412e-15 0)
(1 2.61651e-15 0)
(1 4.11178e-16 0)
(1 2.09474e-15 0)
(1 1.41327e-15 0)
(1 1.26517e-15 0)
(1 2.4485e-15 0)
(1 5.75897e-15 0)
(1 5.54264e-15 0)
(1 6.64974e-15 0)
(1 8.58032e-15 0)
(1 4.94521e-15 0)
(1 4.78659e-15 0)
(1 4.41121e-15 0)
(1 6.03564e-15 0)
(1 6.66732e-15 0)
(1 4.66449e-15 0)
(1 4.06989e-15 0)
(1 6.76543e-15 0)
(1 7.89026e-15 0)
(1 9.50478e-15 0)
(1 7.2147e-15 0)
(1 5.38543e-15 0)
(1 2.74902e-15 0)
(1 5.36072e-15 0)
(1 5.51439e-15 0)
(1 6.54902e-15 0)
(1 7.09251e-15 0)
(1 4.10272e-15 0)
(1 4.09724e-15 0)
(1 3.90336e-15 0)
(1 1.37279e-15 0)
(1 3.42542e-15 0)
(1 3.16469e-15 0)
(1 4.74179e-15 0)
(1 4.79202e-15 0)
(1 5.38409e-15 0)
(1 3.46779e-15 0)
(1 2.44406e-15 0)
(1 2.47196e-15 0)
(1 2.93341e-15 0)
(1 3.09685e-15 0)
(1 3.85693e-15 0)
(1 2.53775e-15 0)
(1 3.85161e-15 0)
(1 3.92773e-15 0)
(1 4.77106e-15 0)
(1 4.30551e-15 0)
(1 2.78911e-15 0)
(1 3.20428e-15 0)
(1 1.60602e-15 0)
(1 1.3494e-15 0)
(1 3.26687e-15 0)
(1 3.3216e-15 0)
(1 1.99097e-15 0)
(1 3.06311e-15 0)
(1 5.40856e-15 0)
(1 2.76627e-15 0)
(1 4.89458e-15 0)
(1 1.6688e-15 0)
(1 6.73085e-15 0)
(1 3.51909e-15 0)
(1 2.96266e-15 0)
(1 4.1727e-15 0)
(1 3.93194e-15 0)
(1 3.57033e-15 0)
(1 2.29956e-16 0)
(1 -8.47348e-17 0)
(1 1.94861e-15 0)
(1 2.82495e-15 0)
(1 1.20282e-15 0)
(1 -2.94141e-16 0)
(1 4.55285e-15 0)
(1 3.75884e-15 0)
(1 5.0061e-15 0)
(1 5.18937e-15 0)
(1 1.79361e-15 0)
(1 6.19706e-15 0)
(1 2.73741e-15 0)
(1 4.15683e-15 0)
(1 3.09611e-15 0)
(1 1.10093e-15 0)
(1 2.93621e-15 0)
(1 3.55938e-15 0)
(1 4.54038e-15 0)
(1 4.08233e-15 0)
(1 3.63004e-16 0)
(1 1.2905e-15 0)
(1 -1.60815e-15 0)
(1 1.53777e-15 0)
(1 -1.21844e-15 0)
(1 7.37048e-15 0)
(1 5.94014e-15 0)
(1 5.41951e-15 0)
(1 3.77856e-15 0)
(1 -1.23718e-15 0)
(1 -5.93602e-16 0)
(1 2.23842e-15 0)
(1 1.77586e-15 0)
(1 2.84873e-15 0)
(1 5.02554e-15 0)
(1 1.46302e-15 0)
(1 2.4626e-15 0)
(1 -2.71627e-16 0)
(1 1.18927e-15 0)
(1 2.45119e-15 0)
(1 6.83922e-15 0)
(1 5.41778e-15 0)
(1 4.44989e-15 0)
(1 4.73828e-15 0)
(1 6.24877e-15 0)
(1 6.41818e-15 0)
(1 4.92488e-15 0)
(1 5.26972e-15 0)
(1 9.07787e-15 0)
(1 6.35434e-15 0)
(1 4.7869e-15 0)
(1 5.14611e-15 0)
(1 8.02617e-15 0)
(1 9.00702e-15 0)
(1 9.13057e-15 0)
(1 7.36233e-15 0)
(1 7.22747e-15 0)
(1 4.4405e-15 0)
(1 6.69555e-15 0)
(1 4.6805e-15 0)
(1 5.65088e-15 0)
(1 5.0227e-15 0)
(1 4.64184e-15 0)
(1 3.0478e-15 0)
(1 5.86041e-15 0)
(1 4.12441e-15 0)
(1 3.21102e-15 0)
(1 3.99652e-15 0)
(1 -4.76177e-16 0)
(1 1.89544e-15 0)
(1 3.91822e-15 0)
(1 4.76522e-15 0)
(1 3.42436e-15 0)
(1 3.16506e-15 0)
(1 1.77323e-15 0)
(1 -8.60701e-18 0)
(1 5.79875e-15 0)
(1 3.11561e-15 0)
(1 1.59098e-15 0)
(1 3.24449e-15 0)
(1 6.0044e-15 0)
(1 4.58073e-15 0)
(1 7.90203e-15 0)
(1 3.14265e-15 0)
(1 2.12629e-15 0)
(1 3.29796e-15 0)
(1 3.36427e-15 0)
(1 1.38283e-15 0)
(1 1.59326e-15 0)
(1 6.41113e-16 0)
(1 6.82966e-15 0)
(1 3.21825e-15 0)
(1 3.58506e-15 0)
(1 3.06638e-15 0)
(1 4.36113e-15 0)
(1 4.63189e-15 0)
(1 3.72189e-15 0)
(1 5.34323e-15 0)
(1 2.01336e-15 0)
(1 1.96351e-15 0)
(1 -1.40315e-16 0)
(1 9.16996e-16 0)
(1 1.34184e-15 0)
(1 3.19518e-15 0)
(1 -1.8759e-16 0)
(1 3.10062e-15 0)
(1 1.01127e-15 0)
(1 3.17828e-15 0)
(1 4.34783e-15 0)
(1 5.07441e-15 0)
(1 5.05726e-15 0)
(1 1.35426e-15 0)
(1 1.41617e-15 0)
(1 3.57993e-15 0)
(1 4.6793e-15 0)
(1 3.84746e-15 0)
(1 3.89249e-15 0)
(1 1.4672e-15 0)
(1 5.08789e-15 0)
(1 2.92511e-15 0)
(1 1.03537e-15 0)
(1 2.65485e-15 0)
(1 1.537e-15 0)
(1 1.77712e-16 0)
(1 1.38332e-15 0)
(1 1.66095e-15 0)
(1 4.36972e-15 0)
(1 3.61797e-15 0)
(1 3.798e-15 0)
(1 8.39081e-16 0)
(1 2.56594e-15 0)
(1 3.20238e-15 0)
(1 2.24395e-16 0)
(1 2.14182e-16 0)
(1 1.20029e-16 0)
(1 1.84038e-15 0)
(1 3.58833e-15 0)
(1 -1.59634e-16 0)
(1 2.76127e-15 0)
(1 3.65724e-15 0)
(1 6.59735e-15 0)
(1 3.94173e-15 0)
(1 1.69671e-15 0)
(1 5.1417e-15 0)
(1 7.67299e-15 0)
(1 6.06585e-15 0)
(1 7.34955e-15 0)
(1 3.69143e-15 0)
(1 6.35733e-15 0)
(1 6.49696e-15 0)
(1 5.65129e-15 0)
(1 7.13238e-15 0)
(1 7.82482e-15 0)
(1 8.74634e-15 0)
(1 7.8203e-15 0)
(1 2.74994e-15 0)
(1 5.41613e-15 0)
(1 6.0048e-15 0)
(1 5.98767e-15 0)
(1 4.53638e-15 0)
(1 6.8642e-15 0)
(1 5.99257e-15 0)
(1 6.9987e-15 0)
(1 4.63839e-15 0)
(1 2.32706e-15 0)
(1 3.6574e-15 0)
(1 2.13272e-15 0)
(1 3.15344e-15 0)
(1 2.57812e-15 0)
(1 1.51513e-15 0)
(1 4.73708e-15 0)
(1 3.67437e-15 0)
(1 6.19672e-16 0)
(1 2.73044e-15 0)
(1 3.70737e-15 0)
(1 1.19578e-15 0)
(1 3.56584e-15 0)
(1 2.67227e-15 0)
(1 1.95621e-15 0)
(1 4.80716e-15 0)
(1 6.75519e-15 0)
(1 4.60311e-15 0)
(1 5.57242e-15 0)
(1 1.68767e-15 0)
(1 3.39875e-15 0)
(1 5.2495e-15 0)
(1 1.43896e-15 0)
(1 1.55646e-15 0)
(1 2.44091e-15 0)
(1 5.68555e-15 0)
(1 5.62026e-15 0)
(1 3.93485e-15 0)
(1 2.07834e-15 0)
(1 4.34212e-15 0)
(1 3.04058e-15 0)
(1 5.96938e-15 0)
(1 5.09421e-15 0)
(1 4.53581e-15 0)
(1 1.67808e-15 0)
(1 4.28678e-16 0)
(1 7.28758e-16 0)
(1 9.66455e-16 0)
(1 7.15541e-16 0)
(1 8.43578e-16 0)
(1 3.12135e-15 0)
(1 2.77678e-15 0)
(1 2.68822e-15 0)
(1 3.13726e-15 0)
(1 2.05216e-15 0)
(1 5.42145e-15 0)
(1 7.13216e-15 0)
(1 2.86802e-15 0)
(1 2.35291e-15 0)
(1 1.68023e-15 0)
(1 4.0801e-15 0)
(1 1.42867e-15 0)
(1 5.42212e-16 0)
(1 4.50576e-16 0)
(1 3.9573e-15 0)
(1 2.96021e-15 0)
(1 5.38229e-15 0)
(1 5.46448e-15 0)
(1 1.86412e-15 0)
(1 -3.06887e-15 0)
(1 6.41923e-15 0)
(1 8.20014e-16 0)
(1 -4.96459e-16 0)
(1 6.53024e-16 0)
(1 1.86868e-15 0)
(1 3.23786e-15 0)
(1 1.04582e-15 0)
(1 3.19833e-15 0)
(1 -3.98477e-16 0)
(1 -3.22653e-16 0)
(1 3.48686e-15 0)
(1 2.30919e-15 0)
(1 3.34939e-15 0)
(1 3.46104e-16 0)
(1 2.78014e-15 0)
(1 4.46676e-15 0)
(1 3.9913e-15 0)
(1 4.77512e-15 0)
(1 1.30498e-15 0)
(1 5.54586e-15 0)
(1 4.18787e-15 0)
(1 7.24576e-15 0)
(1 7.80311e-15 0)
(1 5.69458e-15 0)
(1 3.11247e-15 0)
(1 5.77437e-15 0)
(1 6.53626e-15 0)
(1 6.16681e-15 0)
(1 9.47893e-15 0)
(1 9.1738e-15 0)
(1 6.76892e-15 0)
(1 7.01383e-15 0)
(1 4.69812e-15 0)
(1 7.30882e-15 0)
(1 1.90666e-15 0)
(1 4.4625e-15 0)
(1 3.33528e-15 0)
(1 5.26001e-15 0)
(1 5.69535e-15 0)
(1 5.55715e-15 0)
(1 4.772e-15 0)
(1 3.17765e-15 0)
(1 4.22694e-15 0)
(1 3.21818e-15 0)
(1 2.51132e-15 0)
(1 2.17951e-15 0)
(1 -8.06445e-16 0)
(1 2.34998e-15 0)
(1 2.70873e-15 0)
(1 3.53876e-15 0)
(1 4.07772e-15 0)
(1 3.53244e-15 0)
(1 1.08488e-15 0)
(1 2.72183e-15 0)
(1 5.88831e-15 0)
(1 3.51441e-15 0)
(1 2.38378e-15 0)
(1 1.83514e-15 0)
(1 2.44063e-15 0)
(1 3.44e-15 0)
(1 4.53666e-15 0)
(1 4.57057e-15 0)
(1 2.54249e-15 0)
(1 4.33541e-15 0)
(1 3.49429e-15 0)
(1 6.31833e-15 0)
(1 2.81692e-15 0)
(1 3.34438e-15 0)
(1 4.03101e-15 0)
(1 1.93318e-15 0)
(1 4.19835e-15 0)
(1 4.98504e-15 0)
(1 2.30377e-15 0)
(1 2.5312e-15 0)
(1 1.23749e-15 0)
(1 1.39591e-16 0)
(1 3.01814e-16 0)
(1 1.07854e-15 0)
(1 -3.11446e-16 0)
(1 2.16857e-15 0)
(1 3.61907e-15 0)
(1 4.30346e-15 0)
(1 3.48781e-15 0)
(1 2.05336e-15 0)
(1 3.24809e-16 0)
(1 2.14235e-15 0)
(1 4.60755e-15 0)
(1 5.32093e-15 0)
(1 4.34261e-15 0)
(1 3.0012e-15 0)
(1 6.68135e-16 0)
(1 1.51018e-15 0)
(1 3.09303e-16 0)
(1 2.45586e-15 0)
(1 3.59911e-16 0)
(1 1.39143e-15 0)
(1 5.35496e-15 0)
(1 4.60144e-15 0)
(1 4.04582e-15 0)
(1 2.32411e-16 0)
(1 8.2176e-16 0)
(1 2.02337e-15 0)
(1 1.94761e-15 0)
(1 -6.68581e-17 0)
(1 3.44251e-15 0)
(1 2.65526e-15 0)
(1 1.82763e-15 0)
(1 -1.90328e-15 0)
(1 1.08357e-15 0)
(1 2.2899e-15 0)
(1 2.58016e-16 0)
(1 -5.90303e-16 0)
(1 2.6817e-15 0)
(1 2.49974e-16 0)
(1 4.45213e-15 0)
(1 2.68534e-15 0)
(1 2.40553e-15 0)
(1 2.51013e-15 0)
(1 7.68542e-15 0)
(1 7.28809e-15 0)
(1 3.60539e-15 0)
(1 6.74827e-15 0)
(1 2.75291e-15 0)
(1 8.59301e-15 0)
(1 3.30025e-15 0)
(1 3.49127e-15 0)
(1 2.99393e-15 0)
(1 3.77341e-15 0)
(1 8.68273e-15 0)
(1 8.61832e-15 0)
(1 4.62016e-15 0)
(1 9.33302e-15 0)
(1 6.53917e-15 0)
(1 6.21061e-15 0)
(1 4.20323e-15 0)
(1 3.92649e-15 0)
(1 4.17667e-15 0)
(1 2.98806e-15 0)
(1 2.58863e-15 0)
(1 5.59742e-15 0)
(1 4.85728e-15 0)
(1 3.99852e-15 0)
(1 3.8769e-15 0)
(1 4.07927e-15 0)
(1 1.93322e-15 0)
(1 2.5819e-15 0)
(1 4.89312e-17 0)
(1 4.73613e-15 0)
(1 5.00103e-15 0)
(1 3.48838e-15 0)
(1 2.52064e-15 0)
(1 4.66808e-15 0)
(1 2.35367e-15 0)
(1 4.62599e-15 0)
(1 4.13753e-15 0)
(1 7.93365e-16 0)
(1 2.52312e-15 0)
(1 3.5686e-15 0)
(1 1.26017e-15 0)
(1 4.54471e-15 0)
(1 4.0703e-15 0)
(1 2.70818e-15 0)
(1 2.24888e-15 0)
(1 4.9365e-15 0)
(1 4.92466e-15 0)
(1 4.59196e-15 0)
(1 3.85908e-15 0)
(1 2.90079e-15 0)
(1 4.2645e-15 0)
(1 5.1624e-15 0)
(1 3.43221e-15 0)
(1 3.68008e-15 0)
(1 1.60774e-15 0)
(1 4.17069e-15 0)
(1 9.78489e-16 0)
(1 -1.24105e-15 0)
(1 8.57354e-18 0)
(1 2.35514e-15 0)
(1 1.20659e-15 0)
(1 4.00313e-15 0)
(1 1.50053e-15 0)
(1 3.61128e-15 0)
(1 -1.53233e-16 0)
(1 1.62438e-15 0)
(1 3.66461e-15 0)
(1 9.98371e-16 0)
(1 5.39641e-15 0)
(1 4.83241e-15 0)
(1 4.67611e-15 0)
(1 -1.35484e-15 0)
(1 -2.17998e-15 0)
(1 2.3628e-15 0)
(1 -3.13615e-15 0)
(1 6.1656e-15 0)
(1 2.07149e-16 0)
(1 3.78942e-15 0)
(1 5.85581e-15 0)
(1 9.47733e-16 0)
(1 2.81934e-15 0)
(1 3.61781e-15 0)
(1 -6.30553e-16 0)
(1 -5.07214e-16 0)
(1 -5.32402e-16 0)
(1 1.32843e-15 0)
(1 2.02996e-15 0)
(1 5.98782e-16 0)
(1 4.50322e-16 0)
(1 7.49296e-16 0)
(1 1.21668e-15 0)
(1 3.63279e-16 0)
(1 3.30565e-16 0)
(1 1.4514e-15 0)
(1 -8.21106e-16 0)
(1 2.02806e-15 0)
(1 3.81468e-15 0)
(1 1.42542e-15 0)
(1 1.88098e-15 0)
(1 2.60601e-15 0)
(1 8.3828e-15 0)
(1 4.6385e-15 0)
(1 6.20773e-15 0)
(1 4.6798e-15 0)
(1 -3.92118e-16 0)
(1 6.02167e-15 0)
(1 3.41742e-15 0)
(1 1.35475e-15 0)
(1 3.36924e-15 0)
(1 5.95702e-15 0)
(1 7.39294e-15 0)
(1 6.84945e-15 0)
(1 6.73182e-15 0)
(1 7.94694e-15 0)
(1 5.44775e-15 0)
(1 6.68109e-15 0)
(1 6.09362e-15 0)
(1 4.24088e-15 0)
(1 5.41263e-15 0)
(1 1.92994e-15 0)
(1 4.89291e-15 0)
(1 3.47604e-15 0)
(1 5.32227e-15 0)
(1 5.02494e-15 0)
(1 4.4794e-15 0)
(1 3.57862e-15 0)
(1 3.54995e-15 0)
(1 2.76518e-15 0)
(1 4.01917e-15 0)
(1 3.46655e-15 0)
(1 2.44742e-15 0)
(1 2.78001e-15 0)
(1 1.69402e-15 0)
(1 3.44076e-15 0)
(1 2.6531e-15 0)
(1 5.06743e-15 0)
(1 2.09743e-15 0)
(1 -7.88843e-16 0)
(1 3.21674e-15 0)
(1 3.64193e-15 0)
(1 1.69317e-15 0)
(1 3.76112e-15 0)
(1 2.94108e-15 0)
(1 2.19608e-15 0)
(1 2.08819e-15 0)
(1 4.7594e-15 0)
(1 4.3323e-15 0)
(1 2.38491e-15 0)
(1 3.52915e-15 0)
(1 2.67439e-15 0)
(1 4.17326e-15 0)
(1 5.30629e-15 0)
(1 5.11119e-15 0)
(1 2.49697e-15 0)
(1 4.69467e-16 0)
(1 2.76337e-15 0)
(1 2.34295e-15 0)
(1 1.56016e-15 0)
(1 -1.08926e-16 0)
(1 2.12761e-15 0)
(1 1.68502e-15 0)
(1 1.68795e-15 0)
(1 2.54797e-15 0)
(1 3.01459e-15 0)
(1 2.58644e-15 0)
(1 2.17471e-15 0)
(1 3.72996e-15 0)
(1 2.48171e-15 0)
(1 6.53401e-16 0)
(1 1.4838e-15 0)
(1 2.91955e-15 0)
(1 1.29059e-15 0)
(1 1.11926e-15 0)
(1 1.47514e-15 0)
(1 -6.53835e-16 0)
(1 1.70556e-15 0)
(1 4.12685e-15 0)
(1 2.16169e-15 0)
(1 6.56833e-16 0)
(1 1.16611e-15 0)
(1 1.74456e-15 0)
(1 2.35163e-15 0)
(1 -1.51161e-15 0)
(1 2.74897e-16 0)
(1 1.08078e-15 0)
(1 5.18357e-15 0)
(1 -1.79481e-15 0)
(1 5.16128e-16 0)
(1 -1.63486e-15 0)
(1 7.44544e-16 0)
(1 5.22069e-16 0)
(1 -1.27922e-15 0)
(1 1.72543e-15 0)
(1 5.40611e-16 0)
(1 -1.8074e-16 0)
(1 1.23875e-15 0)
(1 3.89294e-16 0)
(1 1.7233e-15 0)
(1 3.23475e-15 0)
(1 5.37896e-15 0)
(1 2.55807e-15 0)
(1 3.97356e-15 0)
(1 3.23422e-15 0)
(1 2.12766e-15 0)
(1 4.17638e-15 0)
(1 2.48364e-15 0)
(1 2.05249e-15 0)
(1 -1.70453e-15 0)
(1 4.84786e-15 0)
(1 8.34124e-15 0)
(1 7.93335e-15 0)
(1 5.49914e-15 0)
(1 8.44981e-15 0)
(1 7.54434e-15 0)
(1 5.17475e-15 0)
(1 5.16724e-15 0)
(1 3.80102e-15 0)
(1 3.16995e-15 0)
(1 2.2901e-15 0)
(1 2.87628e-15 0)
(1 3.10428e-15 0)
(1 -4.69133e-16 0)
(1 5.53557e-15 0)
(1 4.11686e-15 0)
(1 4.22865e-15 0)
(1 3.41696e-15 0)
(1 3.30713e-15 0)
(1 2.99542e-15 0)
(1 2.15807e-15 0)
(1 -6.05513e-16 0)
(1 1.32866e-15 0)
(1 4.09154e-15 0)
(1 1.58776e-15 0)
(1 1.92532e-15 0)
(1 2.14066e-15 0)
(1 2.87722e-15 0)
(1 2.26086e-15 0)
(1 3.17827e-15 0)
(1 4.81165e-16 0)
(1 1.43989e-16 0)
(1 4.01953e-15 0)
(1 2.49343e-15 0)
(1 2.34528e-15 0)
(1 1.69131e-15 0)
(1 3.35688e-15 0)
(1 5.35606e-15 0)
(1 5.47527e-15 0)
(1 3.48471e-15 0)
(1 3.34469e-15 0)
(1 3.93838e-15 0)
(1 4.11155e-15 0)
(1 3.71597e-15 0)
(1 3.05801e-15 0)
(1 7.57247e-16 0)
(1 1.94917e-15 0)
(1 1.07929e-16 0)
(1 2.06478e-15 0)
(1 2.95927e-15 0)
(1 -7.98805e-16 0)
(1 1.80313e-15 0)
(1 8.78379e-17 0)
(1 1.30068e-15 0)
(1 2.93199e-15 0)
(1 3.82233e-15 0)
(1 4.7171e-15 0)
(1 4.51572e-15 0)
(1 8.34919e-16 0)
(1 1.96224e-15 0)
(1 -9.51314e-17 0)
(1 -1.18205e-15 0)
(1 9.22244e-16 0)
(1 5.51493e-15 0)
(1 1.58402e-15 0)
(1 7.41506e-16 0)
(1 3.08889e-15 0)