/*--------------------------------*- C++ -*----------------------------------*\
| =========                 |                                                 |
| \\      /  F ield         | OpenFOAM: The Open Source CFD Toolbox           |
|  \\    /   O peration     | Version:  v2012                                 |
|   \\  /    A nd           | Website:  www.openfoam.com                      |
|    \\/     M anipulation  |                                                 |
\*---------------------------------------------------------------------------*/
FoamFile
{
    version     2.0;
    format      ascii;
    class       volVectorField;
    location    "0";
    object      uRec;
}
// * * * * * * * * * * * * * * * * * * * * * * * * * * * * * * * * * * * * * //

dimensions      [0 1 -1 0 0 0 0];


internalField   nonuniform List<vector> 
4000
(
(1 2.97864e-16 0)
(1 2.69004e-15 0)
(1 -1.775e-15 0)
(1 -1.53462e-15 0)
(1 2.3467e-15 0)
(1 -1.6298e-16 0)
(1 3.19451e-15 0)
(1 -2.98654e-15 0)
(1 2.22858e-15 0)
(1 2.76651e-15 0)
(1 -4.2544e-15 0)
(1 1.60168e-17 0)
(1 1.16994e-15 0)
(1 5.37813e-16 0)
(1 -3.45737e-16 0)
(1 4.76169e-16 0)
(1 -2.54133e-15 0)
(1 -2.94083e-15 0)
(1 1.27087e-15 0)
(1 1.11132e-16 0)
(1 3.50357e-16 0)
(1 2.29797e-15 0)
(1 2.09856e-16 0)
(1 3.05239e-15 0)
(1 -6.91355e-17 0)
(1 -1.23541e-15 0)
(1 1.62982e-15 0)
(1 -2.43942e-15 0)
(1 -2.05838e-16 0)
(1 7.0319e-17 0)
(1 1.59e-15 0)
(1 3.21736e-15 0)
(1 -1.37571e-15 0)
(1 -5.37252e-16 0)
(1 8.4254e-16 0)
(1 -1.98065e-15 0)
(1 -1.73961e-15 0)
(1 6.2707e-16 0)
(1 3.07025e-15 0)
(1 -3.24424e-16 0)
(1 2.22367e-15 0)
(1 -2.35306e-15 0)
(1 -1.30974e-15 0)
(1 -2.33135e-16 0)
(1 1.84966e-15 0)
(1 -2.23408e-15 0)
(1 1.57543e-15 0)
(1 3.17551e-16 0)
(1 -7.98053e-16 0)
(1 -2.758e-16 0)
(1 -1.51436e-15 0)
(1 1.04986e-15 0)
(1 -1.65696e-16 0)
(1 2.84752e-15 0)
(1 1.48905e-15 0)
(1 2.79094e-16 0)
(1 -1.64709e-16 0)
(1 -1.09347e-15 0)
(1 1.19888e-15 0)
(1 3.40004e-15 0)
(1 -2.42586e-16 0)
(1 -2.33473e-15 0)
(1 -1.05455e-15 0)
(1 9.97064e-16 0)
(1 3.33782e-16 0)
(1 2.61272e-16 0)
(1 5.49931e-16 0)
(1 -7.6247e-16 0)
(1 1.52889e-15 0)
(1 -9.21718e-16 0)
(1 -8.75959e-16 0)
(1 4.34679e-16 0)
(1 2.19691e-17 0)
(1 -3.73568e-16 0)
(1 -1.14006e-15 0)
(1 -2.62992e-15 0)
(1 -4.60138e-16 0)
(1 -8.86902e-16 0)
(1 9.89515e-16 0)
(1 1.20199e-15 0)
(1 3.34492e-16 0)
(1 2.12677e-15 0)
(1 -1.25432e-15 0)
(1 2.62207e-16 0)
(1 -1.32997e-15 0)
(1 -1.70264e-15 0)
(1 -3.59574e-16 0)
(1 7.80481e-16 0)
(1 1.44538e-15 0)
(1 7.55237e-16 0)
(1 6.65907e-17 0)
(1 -1.48162e-15 0)
(1 8.42981e-16 0)
(1 1.94942e-15 0)
(1 -1.3749e-15 0)
(1 -2.70962e-15 0)
(1 2.26346e-16 0)
(1 2.13857e-15 0)
(1 -3.96515e-16 0)
(1 -3.31976e-16 0)
(1 2.86563e-16 0)
(1 5.8039e-15 0)
(1 -2.00113e-15 0)
(1 -2.96195e-15 0)
(1 2.28047e-16 0)
(1 1.24435e-15 0)
(1 3.33812e-15 0)
(1 -3.6436e-15 0)
(1 2.61358e-15 0)
(1 1.7642e-15 0)
(1 -1.2998e-15 0)
(1 5.23092e-16 0)
(1 9.62119e-16 0)
(1 -1.06736e-15 0)
(1 -1.66399e-15 0)
(1 2.68104e-15 0)
(1 -1.34723e-15 0)
(1 -1.99279e-15 0)
(1 1.64632e-15 0)
(1 -5.1211e-16 0)
(1 1.90393e-17 0)
(1 -1.73655e-16 0)
(1 -1.40944e-15 0)
(1 1.14295e-15 0)
(1 -2.65313e-16 0)
(1 4.92517e-16 0)
(1 4.42973e-15 0)
(1 -3.13059e-15 0)
(1 -1.4829e-15 0)
(1 1.67234e-15 0)
(1 -6.1112e-16 0)
(1 3.99569e-15 0)
(1 -2.46276e-15 0)
(1 -1.30912e-15 0)
(1 1.64171e-15 0)
(1 -2.30813e-15 0)
(1 -1.76608e-16 0)
(1 3.94398e-15 0)
(1 2.3656e-15 0)
(1 -1.164e-15 0)
(1 -1.34865e-15 0)
(1 -3.38857e-15 0)
(1 -4.41315e-15 0)
(1 -2.07067e-15 0)
(1 -1.658e-16 0)
(1 -2.09862e-15 0)
(1 4.07623e-15 0)
(1 4.06084e-15 0)
(1 3.25155e-15 0)
(1 1.7759e-15 0)
(1 -2.44773e-16 0)
(1 -4.40519e-16 0)
(1 2.78907e-15 0)
(1 1.53094e-15 0)
(1 9.34843e-16 0)
(1 -1.12319e-15 0)
(1 -8.85344e-18 0)
(1 2.7153e-15 0)
(1 7.68622e-16 0)
(1 -1.63966e-15 0)
(1 1.87749e-16 0)
(1 5.22957e-16 0)
(1 -6.75215e-16 0)
(1 1.30995e-15 0)
(1 -4.03306e-16 0)
(1 2.26795e-15 0)
(1 -2.26231e-15 0)
(1 -2.45669e-15 0)
(1 1.65061e-15 0)
(1 -1.20645e-15 0)
(1 -2.02092e-15 0)
(1 2.92103e-17 0)
(1 1.85302e-15 0)
(1 -1.39538e-15 0)
(1 -1.0867e-16 0)
(1 -4.16953e-16 0)
(1 5.66418e-16 0)
(1 2.22818e-15 0)
(1 2.05642e-16 0)
(1 2.22716e-15 0)
(1 -4.4691e-16 0)
(1 1.8483e-15 0)
(1 2.41874e-15 0)
(1 -1.64709e-15 0)
(1 -1.08649e-17 0)
(1 -2.14706e-15 0)
(1 -2.79085e-15 0)
(1 -1.1985e-15 0)
(1 6.36437e-16 0)
(1 2.27275e-15 0)
(1 -1.2282e-16 0)
(1 -2.3667e-15 0)
(1 3.29569e-15 0)
(1 2.24314e-15 0)
(1 -3.96077e-15 0)
(1 -3.12504e-15 0)
(1 1.64862e-15 0)
(1 1.28809e-15 0)
(1 -9.6325e-16 0)
(1 -8.31339e-16 0)
(1 6.23322e-16 0)
(1 2.86516e-15 0)
(1 1.57908e-16 0)
(1 -1.72982e-15 0)
(1 -9.97518e-16 0)
(1 1.07311e-15 0)
(1 2.53518e-15 0)
(1 6.20953e-15 0)
(1 -2.66289e-15 0)
(1 -2.16238e-15 0)
(1 1.0367e-15 0)
(1 3.91376e-15 0)
(1 2.27115e-15 0)
(1 -1.40848e-15 0)
(1 -7.75164e-16 0)
(1 2.17335e-16 0)
(1 1.5153e-15 0)
(1 1.61904e-15 0)
(1 -5.06779e-16 0)
(1 2.03412e-15 0)
(1 -1.40524e-17 0)
(1 -2.0875e-15 0)
(1 -1.74891e-15 0)
(1 -1.33698e-15 0)
(1 2.79473e-15 0)
(1 3.65061e-15 0)
(1 3.2253e-15 0)
(1 -3.19969e-15 0)
(1 -1.51782e-15 0)
(1 1.98285e-15 0)
(1 1.14269e-15 0)
(1 -1.70287e-15 0)
(1 7.41417e-16 0)
(1 2.16578e-15 0)
(1 -3.07853e-16 0)
(1 -3.96696e-16 0)
(1 -2.04416e-15 0)
(1 2.52265e-15 0)
(1 3.1279e-15 0)
(1 -3.26679e-15 0)
(1 -3.15834e-15 0)
(1 -1.59829e-15 0)
(1 -3.71577e-15 0)
(1 -3.78814e-15 0)
(1 -2.64088e-15 0)
(1 -4.3926e-16 0)
(1 -8.5782e-16 0)
(1 4.5765e-15 0)
(1 6.21975e-15 0)
(1 4.05057e-15 0)
(1 3.64009e-15 0)
(1 1.09208e-15 0)
(1 3.97049e-15 0)
(1 -2.60116e-15 0)
(1 1.82974e-16 0)
(1 -2.02959e-15 0)
(1 1.32441e-15 0)
(1 3.30576e-15 0)
(1 4.40058e-15 0)
(1 -4.6867e-16 0)
(1 -1.10022e-15 0)
(1 9.81684e-16 0)
(1 1.46937e-15 0)
(1 -2.62715e-15 0)
(1 -1.06519e-15 0)
(1 6.07733e-16 0)
(1 -1.35737e-15 0)
(1 5.85042e-16 0)
(1 2.73057e-15 0)
(1 9.25689e-16 0)
(1 1.24321e-15 0)
(1 8.50622e-16 0)
(1 -4.1666e-16 0)
(1 -3.67244e-15 0)
(1 -1.32901e-15 0)
(1 -1.94591e-17 0)
(1 -2.18057e-16 0)
(1 1.36513e-15 0)
(1 1.34864e-15 0)
(1 -8.91028e-16 0)
(1 -2.45345e-15 0)
(1 -9.38869e-16 0)
(1 2.77994e-15 0)
(1 -1.34389e-15 0)
(1 2.96677e-17 0)
(1 -7.87063e-17 0)
(1 -3.19352e-15 0)
(1 -1.82568e-15 0)
(1 -9.8199e-16 0)
(1 2.36047e-15 0)
(1 3.11229e-16 0)
(1 -3.52921e-16 0)
(1 -3.49805e-16 0)
(1 1.68073e-15 0)
(1 -2.19346e-15 0)
(1 -1.42643e-15 0)
(1 1.94387e-15 0)
(1 -2.61956e-15 0)
(1 2.02245e-16 0)
(1 1.99738e-16 0)
(1 3.83541e-16 0)
(1 2.7064e-15 0)
(1 2.25371e-15 0)
(1 -1.93639e-15 0)
(1 8.90001e-16 0)
(1 -2.49454e-15 0)
(1 1.79303e-15 0)
(1 7.36091e-15 0)
(1 -2.43879e-16 0)
(1 -4.97325e-16 0)
(1 -1.65078e-15 0)
(1 6.52484e-15 0)
(1 -6.89809e-16 0)
(1 -1.91132e-15 0)
(1 5.03229e-15 0)
(1 -3.258e-15 0)
(1 1.5018e-15 0)
(1 -1.88859e-15 0)
(1 -4.09438e-15 0)
(1 5.75446e-15 0)
(1 -1.26208e-15 0)
(1 1.84686e-15 0)
(1 -8.94279e-17 0)
(1 -1.58055e-17 0)
(1 5.53307e-15 0)
(1 2.97712e-15 0)
(1 2.39318e-15 0)
(1 -1.56842e-15 0)
(1 -7.18389e-16 0)
(1 2.77355e-15 0)
(1 3.92098e-16 0)
(1 -3.05857e-16 0)
(1 4.72733e-16 0)
(1 3.11835e-15 0)
(1 8.4574e-16 0)
(1 -8.49492e-16 0)
(1 -3.4749e-15 0)
(1 -3.01634e-15 0)
(1 2.70005e-15 0)
(1 8.40584e-16 0)
(1 1.46874e-15 0)
(1 -1.42565e-15 0)
(1 -4.09721e-15 0)
(1 -3.08726e-15 0)
(1 -1.23431e-15 0)
(1 7.16879e-16 0)
(1 -8.91099e-16 0)
(1 3.09787e-15 0)
(1 4.97873e-15 0)
(1 4.20931e-15 0)
(1 5.11894e-15 0)
(1 2.13309e-15 0)
(1 1.09144e-15 0)
(1 -3.97904e-17 0)
(1 1.51068e-15 0)
(1 -2.73421e-16 0)
(1 1.83668e-15 0)
(1 3.50417e-15 0)
(1 3.60905e-15 0)
(1 4.52663e-15 0)
(1 1.37362e-15 0)
(1 -1.92847e-15 0)
(1 -1.34188e-15 0)
(1 -1.58514e-16 0)
(1 -2.43754e-15 0)
(1 -6.70819e-16 0)
(1 -1.46058e-15 0)
(1 4.41987e-15 0)
(1 1.04514e-15 0)
(1 3.4716e-16 0)
(1 1.25809e-15 0)
(1 1.55237e-16 0)
(1 -8.36778e-16 0)
(1 -2.36226e-15 0)
(1 -3.48704e-15 0)
(1 -8.93666e-16 0)
(1 2.63708e-15 0)
(1 -1.19112e-16 0)
(1 2.08732e-15 0)
(1 2.47423e-15 0)
(1 -3.59399e-15 0)
(1 1.54988e-15 0)
(1 -4.40332e-16 0)
(1 2.63574e-16 0)
(1 3.06043e-16 0)
(1 -2.18921e-15 0)
(1 -5.61093e-16 0)
(1 -1.89131e-15 0)
(1 2.17546e-17 0)
(1 1.02256e-15 0)
(1 -1.38347e-15 0)
(1 8.49612e-16 0)
(1 -6.95853e-16 0)
(1 1.39302e-15 0)
(1 8.79301e-16 0)
(1 -4.3706e-16 0)
(1 9.4642e-18 0)
(1 -2.53541e-16 0)
(1 -2.24186e-15 0)
(1 -2.02325e-15 0)
(1 6.45872e-16 0)
(1 -1.49688e-16 0)
(1 2.41216e-15 0)
(1 -1.72302e-15 0)
(1 -5.89295e-16 0)
(1 1.7557e-15 0)
(1 3.50602e-16 0)
(1 1.23558e-15 0)
(1 7.08538e-15 0)
(1 3.41565e-15 0)
(1 1.92558e-15 0)
(1 3.54722e-15 0)
(1 -1.83214e-15 0)
(1 -4.15681e-15 0)
(1 2.07692e-15 0)
(1 1.44511e-15 0)
(1 4.9784e-15 0)
(1 2.56433e-15 0)
(1 -7.50003e-16 0)
(1 -1.95219e-15 0)
(1 -2.11389e-15 0)
(1 -3.34988e-16 0)
(1 3.33599e-15 0)
(1 4.56145e-15 0)
(1 5.06571e-17 0)
(1 -1.27924e-15 0)
(1 -1.78469e-15 0)
(1 6.83395e-16 0)
(1 5.65228e-16 0)
(1 -1.37231e-15 0)
(1 1.60154e-15 0)
(1 2.97762e-15 0)
(1 -1.57044e-15 0)
(1 3.49195e-15 0)
(1 -1.9532e-15 0)
(1 -3.21717e-15 0)
(1 -1.57383e-15 0)
(1 -1.75453e-15 0)
(1 2.72941e-16 0)
(1 2.47592e-15 0)
(1 1.15948e-15 0)
(1 -1.59172e-15 0)
(1 -5.1146e-15 0)
(1 -2.13147e-15 0)
(1 -3.70803e-15 0)
(1 1.57377e-15 0)
(1 4.02528e-15 0)
(1 6.78842e-15 0)
(1 4.44813e-15 0)
(1 2.76425e-15 0)
(1 3.61211e-15 0)
(1 3.75273e-16 0)
(1 -3.8716e-16 0)
(1 2.19947e-15 0)
(1 2.81868e-15 0)
(1 2.58387e-15 0)
(1 1.16181e-15 0)
(1 2.15053e-15 0)
(1 -1.92808e-15 0)
(1 -2.03731e-15 0)
(1 4.18661e-15 0)
(1 -6.85749e-17 0)
(1 8.95564e-16 0)
(1 6.81746e-16 0)
(1 -3.33654e-16 0)
(1 -1.08854e-16 0)
(1 -9.90367e-17 0)
(1 3.62085e-15 0)
(1 -1.11554e-15 0)
(1 2.70778e-15 0)
(1 1.37064e-16 0)
(1 -4.33735e-16 0)
(1 2.96801e-15 0)
(1 -5.15967e-16 0)
(1 -1.54472e-15 0)
(1 -9.26181e-16 0)
(1 3.09048e-15 0)
(1 3.45894e-15 0)
(1 1.39071e-15 0)
(1 -3.17246e-16 0)
(1 -1.98216e-15 0)
(1 4.00529e-16 0)
(1 -1.19901e-15 0)
(1 -1.01008e-15 0)
(1 6.84982e-16 0)
(1 -2.69859e-15 0)
(1 1.71502e-16 0)
(1 -1.22889e-15 0)
(1 -1.87489e-15 0)
(1 -4.3509e-16 0)
(1 -1.23127e-15 0)
(1 -7.66203e-16 0)
(1 1.56948e-15 0)
(1 -2.48935e-16 0)
(1 2.25474e-15 0)
(1 7.24239e-16 0)
(1 -1.11073e-15 0)
(1 2.8644e-16 0)
(1 -4.32516e-15 0)
(1 -1.90692e-15 0)
(1 -1.54029e-16 0)
(1 -3.51661e-15 0)
(1 2.49238e-15 0)
(1 2.44482e-15 0)
(1 2.00186e-16 0)
(1 2.34936e-15 0)
(1 5.1366e-16 0)
(1 2.31032e-15 0)
(1 3.83294e-15 0)
(1 3.75355e-15 0)
(1 6.61831e-15 0)
(1 1.24868e-15 0)
(1 -2.5678e-15 0)
(1 9.19298e-16 0)
(1 -6.79641e-16 0)
(1 1.94377e-15 0)
(1 2.94429e-16 0)
(1 1.4824e-15 0)
(1 1.4648e-15 0)
(1 -2.86415e-15 0)
(1 2.76539e-16 0)
(1 -3.27484e-15 0)
(1 5.31915e-15 0)
(1 3.38615e-15 0)
(1 -1.19693e-15 0)
(1 2.16878e-15 0)
(1 -8.33296e-16 0)
(1 -6.40568e-16 0)
(1 -1.36286e-15 0)
(1 -4.65309e-16 0)
(1 2.41683e-16 0)
(1 1.50493e-15 0)
(1 1.29921e-15 0)
(1 1.74374e-15 0)
(1 -4.54668e-15 0)
(1 4.08105e-16 0)
(1 3.00825e-15 0)
(1 2.75095e-15 0)
(1 -1.09825e-15 0)
(1 -2.0732e-15 0)
(1 8.43013e-16 0)
(1 -8.91013e-16 0)
(1 -3.02902e-15 0)
(1 -3.85677e-15 0)
(1 -4.03051e-16 0)
(1 1.68627e-15 0)
(1 1.00706e-15 0)
(1 4.37336e-15 0)
(1 5.17943e-15 0)
(1 4.42953e-15 0)
(1 9.44431e-16 0)
(1 1.37856e-15 0)
(1 2.81095e-15 0)
(1 3.43173e-15 0)
(1 1.69446e-15 0)
(1 2.19045e-15 0)
(1 3.40655e-15 0)
(1 3.16766e-15 0)
(1 3.01933e-15 0)
(1 4.31363e-15 0)
(1 2.92059e-15 0)
(1 -1.74478e-15 0)
(1 -8.84097e-16 0)
(1 -2.02256e-15 0)
(1 1.55073e-15 0)
(1 9.31567e-16 0)
(1 5.49909e-15 0)
(1 2.16767e-15 0)
(1 1.69567e-15 0)
(1 1.71825e-15 0)
(1 2.43058e-15 0)
(1 1.74356e-15 0)
(1 2.61454e-15 0)
(1 -9.38555e-16 0)
(1 -2.54887e-15 0)
(1 -1.55797e-15 0)
(1 6.56373e-17 0)
(1 4.45867e-15 0)
(1 3.02885e-16 0)
(1 -2.61975e-15 0)
(1 -7.50872e-16 0)
(1 7.8253e-16 0)
(1 -1.3752e-15 0)
(1 8.15487e-16 0)
(1 -7.94025e-16 0)
(1 -1.69167e-15 0)
(1 -1.33717e-15 0)
(1 -4.04893e-15 0)
(1 -3.58243e-15 0)
(1 -1.10527e-15 0)
(1 -3.76428e-16 0)
(1 -7.92949e-16 0)
(1 1.78832e-15 0)
(1 2.39386e-15 0)
(1 4.51699e-15 0)
(1 2.37288e-15 0)
(1 1.49262e-16 0)
(1 -3.47229e-15 0)
(1 -5.68042e-16 0)
(1 1.698e-15 0)
(1 -1.57124e-15 0)
(1 -4.0857e-16 0)
(1 2.92259e-15 0)
(1 -3.41742e-16 0)
(1 3.9015e-15 0)
(1 -1.60663e-15 0)
(1 7.27747e-17 0)
(1 5.06929e-15 0)
(1 1.44954e-15 0)
(1 2.39524e-15 0)
(1 5.74508e-15 0)
(1 -5.07926e-16 0)
(1 -1.49502e-17 0)
(1 3.89134e-15 0)
(1 5.30888e-16 0)
(1 5.64462e-15 0)
(1 3.63492e-15 0)
(1 -4.56691e-16 0)
(1 5.46385e-16 0)
(1 1.19116e-15 0)
(1 1.2818e-15 0)
(1 -7.62506e-15 0)
(1 3.70392e-15 0)
(1 -2.10976e-15 0)
(1 1.8195e-15 0)
(1 6.03788e-17 0)
(1 -8.46535e-16 0)
(1 -8.86499e-16 0)
(1 8.6827e-16 0)
(1 3.61161e-15 0)
(1 -9.30373e-18 0)
(1 1.06302e-15 0)
(1 2.87825e-15 0)
(1 -2.30221e-15 0)
(1 -2.15192e-15 0)
(1 3.44969e-15 0)
(1 3.8208e-15 0)
(1 1.31779e-15 0)
(1 -5.34326e-15 0)
(1 -9.64942e-16 0)
(1 -1.52898e-15 0)
(1 -3.2026e-15 0)
(1 3.67473e-16 0)
(1 -1.25088e-15 0)
(1 2.03015e-15 0)
(1 2.31874e-15 0)
(1 3.42422e-15 0)
(1 6.61113e-16 0)
(1 2.7855e-15 0)
(1 5.27904e-15 0)
(1 1.95274e-15 0)
(1 1.55841e-15 0)
(1 3.18764e-15 0)
(1 5.45529e-15 0)
(1 1.57547e-15 0)
(1 9.28539e-16 0)
(1 1.67787e-15 0)
(1 3.19324e-15 0)
(1 3.89756e-15 0)
(1 4.33055e-15 0)
(1 -1.48765e-15 0)
(1 7.09085e-16 0)
(1 -7.71346e-16 0)
(1 8.37941e-16 0)
(1 -7.06535e-17 0)
(1 -1.30548e-15 0)
(1 -4.00222e-16 0)
(1 2.94471e-15 0)
(1 3.09458e-15 0)
(1 -8.10843e-16 0)
(1 4.0523e-15 0)
(1 4.27896e-15 0)
(1 1.23155e-16 0)
(1 -5.2119e-16 0)
(1 -8.90387e-16 0)
(1 2.46788e-15 0)
(1 -3.40463e-16 0)
(1 1.85671e-15 0)
(1 9.2492e-16 0)
(1 9.69254e-17 0)
(1 7.15014e-16 0)
(1 5.27032e-16 0)
(1 5.21659e-16 0)
(1 3.61e-16 0)
(1 -6.7541e-16 0)
(1 4.24569e-16 0)
(1 -1.64239e-15 0)
(1 -6.7088e-16 0)
(1 2.80529e-18 0)
(1 -1.60597e-15 0)
(1 -1.0546e-15 0)
(1 5.02572e-16 0)
(1 2.49003e-15 0)
(1 2.54597e-15 0)
(1 1.43818e-15 0)
(1 3.27923e-15 0)
(1 -6.42746e-16 0)
(1 -1.73785e-15 0)
(1 1.70755e-15 0)
(1 8.36877e-16 0)
(1 -1.37625e-15 0)
(1 9.0301e-17 0)
(1 -5.15629e-17 0)
(1 4.33572e-16 0)
(1 3.89371e-15 0)
(1 1.20223e-15 0)
(1 -4.00175e-16 0)
(1 2.02925e-15 0)
(1 6.04628e-15 0)
(1 7.3044e-15 0)
(1 3.50242e-15 0)
(1 -4.56273e-15 0)
(1 3.06425e-15 0)
(1 -1.05532e-15 0)
(1 1.98077e-15 0)
(1 5.8313e-15 0)
(1 2.83246e-15 0)
(1 6.81727e-15 0)
(1 3.48933e-15 0)
(1 -3.08176e-15 0)
(1 -2.49916e-15 0)
(1 -5.95853e-15 0)
(1 -2.19315e-15 0)
(1 1.44819e-16 0)
(1 1.1164e-16 0)
(1 -4.89259e-15 0)
(1 -3.59789e-15 0)
(1 -2.8918e-16 0)
(1 1.0435e-15 0)
(1 2.57934e-15 0)
(1 7.74933e-15 0)
(1 1.04199e-15 0)
(1 1.26603e-15 0)
(1 -2.47268e-15 0)
(1 -8.59715e-16 0)
(1 -1.1698e-15 0)
(1 -1.78161e-15 0)
(1 3.84296e-18 0)
(1 4.1584e-17 0)
(1 3.97801e-15 0)
(1 -2.40741e-15 0)
(1 -8.96931e-16 0)
(1 3.4033e-15 0)
(1 -3.39636e-16 0)
(1 -1.52692e-15 0)
(1 3.09496e-15 0)
(1 5.11801e-15 0)
(1 4.61984e-15 0)
(1 -9.24191e-16 0)
(1 2.32191e-15 0)
(1 5.01098e-15 0)
(1 2.66754e-15 0)
(1 -1.03927e-15 0)
(1 4.3271e-15 0)
(1 6.0417e-15 0)
(1 6.75643e-15 0)
(1 1.90171e-15 0)
(1 -6.49401e-16 0)
(1 4.97074e-15 0)
(1 -8.54794e-16 0)
(1 -4.56332e-15 0)
(1 2.02878e-15 0)
(1 4.12458e-15 0)
(1 3.88751e-15 0)
(1 4.7305e-16 0)
(1 2.38019e-15 0)
(1 2.58511e-15 0)
(1 -2.69855e-16 0)
(1 3.32391e-15 0)
(1 3.03382e-15 0)
(1 4.38757e-15 0)
(1 2.90978e-15 0)
(1 1.05057e-15 0)
(1 -1.08981e-15 0)
(1 -1.32609e-16 0)
(1 4.17632e-15 0)
(1 1.41438e-15 0)
(1 -1.17613e-15 0)
(1 -1.49946e-15 0)
(1 -2.66805e-15 0)
(1 1.70409e-15 0)
(1 -1.81625e-15 0)
(1 9.61155e-16 0)
(1 1.52559e-15 0)
(1 -4.07523e-15 0)
(1 -2.01597e-16 0)
(1 -4.59434e-18 0)
(1 1.59477e-15 0)
(1 1.25141e-15 0)
(1 -5.3385e-15 0)
(1 -2.43756e-15 0)
(1 1.34794e-15 0)
(1 1.47693e-15 0)
(1 2.93054e-15 0)
(1 2.5542e-15 0)
(1 3.10311e-15 0)
(1 -2.57328e-15 0)
(1 -1.57342e-15 0)
(1 1.63223e-15 0)
(1 2.07615e-15 0)
(1 -8.03095e-17 0)
(1 -1.95577e-16 0)
(1 -5.89394e-16 0)
(1 1.31683e-15 0)
(1 1.92946e-16 0)
(1 3.90284e-15 0)
(1 6.14539e-17 0)
(1 -1.50613e-15 0)
(1 4.3065e-15 0)
(1 4.02142e-15 0)
(1 2.90353e-15 0)
(1 1.34702e-15 0)
(1 9.9804e-16 0)
(1 2.33189e-15 0)
(1 3.53319e-15 0)
(1 3.56341e-15 0)
(1 1.76389e-15 0)
(1 4.44381e-15 0)
(1 5.20625e-15 0)
(1 -2.25742e-15 0)
(1 -6.53921e-15 0)
(1 -4.44529e-16 0)
(1 -3.98421e-15 0)
(1 3.87469e-16 0)
(1 1.82203e-16 0)
(1 -3.08728e-15 0)
(1 6.0194e-16 0)
(1 -3.5731e-15 0)
(1 -2.20081e-15 0)
(1 2.93522e-15 0)
(1 3.94817e-15 0)
(1 -1.21102e-15 0)
(1 1.96637e-15 0)
(1 8.55734e-16 0)
(1 -1.29125e-15 0)
(1 -1.36006e-15 0)
(1 -1.59218e-15 0)
(1 2.30512e-15 0)
(1 2.16984e-15 0)
(1 2.44422e-15 0)
(1 -2.54478e-15 0)
(1 1.59816e-15 0)
(1 2.52497e-15 0)
(1 9.09582e-16 0)
(1 3.58637e-15 0)
(1 -8.31214e-16 0)
(1 2.66627e-15 0)
(1 2.89044e-15 0)
(1 -2.02665e-15 0)
(1 3.04107e-16 0)
(1 2.87991e-15 0)
(1 5.01694e-15 0)
(1 1.32576e-15 0)
(1 5.08239e-15 0)
(1 7.69258e-15 0)
(1 5.78516e-15 0)
(1 5.02862e-15 0)
(1 5.53925e-16 0)
(1 5.36378e-15 0)
(1 8.08556e-16 0)
(1 2.26416e-15 0)
(1 2.18116e-15 0)
(1 -7.64831e-16 0)
(1 4.48856e-15 0)
(1 -4.29612e-15 0)
(1 3.93078e-15 0)
(1 3.87629e-15 0)
(1 -2.28922e-15 0)
(1 7.34314e-15 0)
(1 6.03637e-15 0)
(1 5.87382e-15 0)
(1 9.4966e-17 0)
(1 2.06197e-15 0)
(1 3.31571e-16 0)
(1 -1.16587e-15 0)
(1 2.50585e-15 0)
(1 3.1196e-16 0)
(1 -7.92403e-16 0)
(1 -2.80835e-15 0)
(1 2.65306e-15 0)
(1 2.42058e-15 0)
(1 3.05781e-15 0)
(1 -3.59171e-16 0)
(1 1.42484e-15 0)
(1 -4.06835e-15 0)
(1 -3.77555e-15 0)
(1 -3.15771e-15 0)
(1 -7.31683e-16 0)
(1 -2.18622e-16 0)
(1 -8.78184e-16 0)
(1 -8.61212e-16 0)
(1 1.19436e-15 0)
(1 2.45896e-15 0)
(1 4.72455e-15 0)
(1 4.88902e-15 0)
(1 3.05513e-15 0)
(1 3.11914e-17 0)
(1 -1.3698e-15 0)
(1 3.65069e-15 0)
(1 4.64055e-15 0)
(1 4.86052e-16 0)
(1 4.83245e-16 0)
(1 1.58514e-15 0)
(1 -1.09103e-15 0)
(1 1.63579e-15 0)
(1 -3.95112e-16 0)
(1 2.75573e-15 0)
(1 2.54389e-15 0)
(1 2.56754e-15 0)
(1 2.93672e-15 0)
(1 1.33733e-15 0)
(1 9.53632e-15 0)
(1 3.50411e-15 0)
(1 3.13121e-15 0)
(1 3.18894e-15 0)
(1 8.12967e-17 0)
(1 -4.56757e-16 0)
(1 6.2407e-16 0)
(1 6.40505e-16 0)
(1 2.07846e-15 0)
(1 -2.10054e-15 0)
(1 -2.0739e-18 0)
(1 -5.13931e-15 0)
(1 -2.77054e-15 0)
(1 1.3113e-15 0)
(1 2.21387e-15 0)
(1 -1.25814e-15 0)
(1 -2.83401e-15 0)
(1 1.25427e-15 0)
(1 -1.64476e-15 0)
(1 -2.50678e-15 0)
(1 2.11704e-15 0)
(1 1.67137e-15 0)
(1 2.24854e-15 0)
(1 2.20813e-15 0)
(1 -6.32572e-16 0)
(1 -3.75647e-15 0)
(1 -1.95027e-15 0)
(1 -2.07973e-15 0)
(1 -2.52774e-15 0)
(1 -1.36091e-15 0)
(1 2.92884e-15 0)
(1 2.52907e-15 0)
(1 3.67859e-15 0)
(1 6.27759e-15 0)
(1 1.48977e-15 0)
(1 9.64805e-16 0)
(1 5.00502e-16 0)
(1 1.93446e-15 0)
(1 3.34816e-15 0)
(1 9.64411e-17 0)
(1 6.36199e-17 0)
(1 3.79276e-15 0)
(1 6.21981e-15 0)
(1 7.79997e-15 0)
(1 4.88645e-15 0)
(1 1.60946e-15 0)
(1 -8.6445e-16 0)
(1 2.59827e-15 0)
(1 3.47424e-15 0)
(1 4.88568e-15 0)
(1 6.38254e-15 0)
(1 1.9866e-15 0)
(1 2.01224e-15 0)
(1 3.3105e-15 0)
(1 -4.38396e-16 0)
(1 2.41519e-15 0)
(1 2.2223e-15 0)
(1 4.0861e-15 0)
(1 4.31196e-15 0)
(1 5.19507e-15 0)
(1 3.02437e-15 0)
(1 7.72643e-16 0)
(1 8.34619e-16 0)
(1 1.11444e-15 0)
(1 9.92011e-16 0)
(1 1.30715e-15 0)
(1 -1.35062e-15 0)
(1 2.59392e-16 0)
(1 4.68692e-16 0)
(1 1.58029e-15 0)
(1 1.32378e-15 0)
(1 -4.23794e-16 0)
(1 1.59723e-16 0)
(1 -1.88094e-15 0)
(1 -3.80229e-15 0)
(1 -5.03686e-16 0)
(1 5.53053e-17 0)
(1 -2.02242e-15 0)
(1 -6.2722e-16 0)
(1 3.04416e-15 0)
(1 -8.57773e-16 0)
(1 2.96018e-15 0)
(1 -1.82926e-15 0)
(1 6.01666e-15 0)
(1 1.7961e-15 0)
(1 8.94974e-16 0)
(1 3.17116e-15 0)
(1 3.89903e-15 0)
(1 4.26476e-15 0)
(1 1.5186e-17 0)
(1 -6.1792e-16 0)
(1 1.62372e-15 0)
(1 2.99346e-15 0)
(1 -4.20795e-17 0)
(1 -2.58994e-15 0)
(1 4.23524e-15 0)
(1 2.30856e-15 0)
(1 4.81921e-15 0)
(1 4.6518e-15 0)
(1 -1.13266e-15 0)
(1 5.96659e-15 0)
(1 1.23651e-15 0)
(1 2.38506e-15 0)
(1 4.0577e-16 0)
(1 -3.6346e-15 0)
(1 -5.0792e-16 0)
(1 1.29543e-15 0)
(1 3.15497e-15 0)
(1 2.74405e-15 0)
(1 -3.05725e-15 0)
(1 -1.52739e-15 0)
(1 -6.00966e-15 0)
(1 -6.94166e-16 0)
(1 -5.28923e-15 0)
(1 8.15496e-15 0)
(1 5.64628e-15 0)
(1 4.90021e-15 0)
(1 2.9689e-15 0)
(1 -5.76821e-15 0)
(1 -4.88705e-15 0)
(1 3.79206e-16 0)
(1 -1.87174e-15 0)
(1 -8.35861e-16 0)
(1 3.06413e-15 0)
(1 -1.49903e-15 0)
(1 -8.64501e-16 0)
(1 -5.5197e-15 0)
(1 -2.89797e-15 0)
(1 -1.89031e-15 0)
(1 6.41811e-15 0)
(1 3.07526e-15 0)
(1 1.0122e-15 0)
(1 8.37952e-16 0)
(1 3.23798e-15 0)
(1 3.02649e-15 0)
(1 9.14559e-16 0)
(1 1.40466e-15 0)
(1 6.78659e-15 0)
(1 3.22391e-15 0)
(1 -1.00384e-16 0)
(1 8.19664e-16 0)
(1 5.09767e-15 0)
(1 6.75658e-15 0)
(1 7.19172e-15 0)
(1 4.84379e-15 0)
(1 5.02132e-15 0)
(1 8.14715e-16 0)
(1 5.25189e-15 0)
(1 2.25875e-15 0)
(1 4.00523e-15 0)
(1 2.61216e-15 0)
(1 2.98339e-15 0)
(1 5.6777e-16 0)
(1 5.8311e-15 0)
(1 3.11553e-15 0)
(1 2.16229e-15 0)
(1 4.18908e-15 0)
(1 -2.96383e-15 0)
(1 -3.20022e-16 0)
(1 2.79271e-15 0)
(1 4.20958e-15 0)
(1 2.33525e-15 0)
(1 1.68227e-15 0)
(1 -8.6616e-16 0)
(1 -3.83728e-15 0)
(1 4.48447e-15 0)
(1 2.46666e-16 0)
(1 -2.76923e-15 0)
(1 -1.0175e-15 0)
(1 3.12657e-15 0)
(1 1.83603e-15 0)
(1 6.78822e-15 0)
(1 -4.42132e-16 0)
(1 -2.0857e-15 0)
(1 -3.32648e-16 0)
(1 2.90509e-16 0)
(1 -3.60837e-15 0)
(1 -2.75401e-15 0)
(1 -4.32823e-15 0)
(1 4.88995e-15 0)
(1 -4.21245e-16 0)
(1 5.14492e-16 0)
(1 5.13451e-17 0)
(1 2.35449e-15 0)
(1 3.6217e-15 0)
(1 2.51809e-15 0)
(1 6.07666e-15 0)
(1 7.39417e-16 0)
(1 1.42484e-15 0)
(1 -4.13464e-16 0)
(1 8.51734e-16 0)
(1 8.80543e-16 0)
(1 3.45531e-15 0)
(1 -2.42714e-15 0)
(1 1.88676e-15 0)
(1 -1.17489e-15 0)
(1 2.08566e-15 0)
(1 3.81198e-15 0)
(1 5.05399e-15 0)
(1 4.40444e-15 0)
(1 -1.08159e-15 0)
(1 -1.63982e-15 0)
(1 1.5416e-15 0)
(1 2.76479e-15 0)
(1 1.42053e-15 0)
(1 2.56948e-15 0)
(1 -1.48079e-15 0)
(1 3.41583e-15 0)
(1 1.60969e-15 0)
(1 -2.91732e-15 0)
(1 -8.57763e-17 0)
(1 -1.9048e-15 0)
(1 -2.5478e-15 0)
(1 -6.95938e-16 0)
(1 -1.10669e-15 0)
(1 3.82959e-15 0)
(1 2.4726e-15 0)
(1 2.2147e-15 0)
(1 -1.96471e-15 0)
(1 6.78058e-16 0)
(1 1.51025e-15 0)
(1 -3.84351e-15 0)
(1 -4.8583e-15 0)
(1 -4.07336e-15 0)
(1 -8.37588e-16 0)
(1 1.44831e-15 0)
(1 -6.03686e-15 0)
(1 -7.88438e-16 0)
(1 -1.47749e-16 0)
(1 5.15688e-15 0)
(1 3.77095e-16 0)
(1 -3.35559e-15 0)
(1 1.19244e-15 0)
(1 6.43365e-15 0)
(1 3.1038e-15 0)
(1 5.58084e-15 0)
(1 -3.53904e-16 0)
(1 3.25519e-15 0)
(1 3.66121e-15 0)
(1 1.06954e-15 0)
(1 3.37726e-15 0)
(1 4.37832e-15 0)
(1 6.084e-15 0)
(1 5.50301e-15 0)
(1 -1.41501e-15 0)
(1 3.35775e-15 0)
(1 4.04995e-15 0)
(1 4.18015e-15 0)
(1 1.76847e-15 0)
(1 5.19394e-15 0)
(1 4.07594e-15 0)
(1 6.94605e-15 0)
(1 3.86365e-15 0)
(1 -1.39204e-16 0)
(1 2.26084e-15 0)
(1 4.19074e-16 0)
(1 2.12548e-15 0)
(1 1.32293e-15 0)
(1 -7.21939e-16 0)
(1 4.35133e-15 0)
(1 2.7022e-15 0)
(1 -1.92167e-15 0)
(1 1.22848e-15 0)
(1 2.73323e-15 0)
(1 -1.84202e-15 0)
(1 8.88896e-16 0)
(1 -1.25091e-15 0)
(1 -1.78147e-15 0)
(1 1.84615e-15 0)
(1 4.75574e-15 0)
(1 1.80026e-15 0)
(1 3.51605e-15 0)
(1 -2.64506e-15 0)
(1 -1.16623e-15 0)
(1 2.31858e-15 0)
(1 -3.28425e-15 0)
(1 -3.57198e-15 0)
(1 -1.46573e-15 0)
(1 3.59721e-15 0)
(1 3.44252e-15 0)
(1 1.2304e-15 0)
(1 -2.21833e-15 0)
(1 2.02586e-15 0)
(1 -7.75526e-16 0)
(1 5.2563e-15 0)
(1 3.94438e-15 0)
(1 4.83011e-15 0)
(1 5.4126e-16 0)
(1 -8.84115e-16 0)
(1 7.69238e-16 0)
(1 1.17761e-15 0)
(1 -1.00375e-17 0)
(1 2.55431e-16 0)
(1 2.43523e-15 0)
(1 2.2258e-15 0)
(1 2.1542e-15 0)
(1 2.44389e-15 0)
(1 2.60181e-16 0)
(1 6.12972e-15 0)
(1 8.27418e-15 0)
(1 5.9328e-16 0)
(1 -1.3542e-15 0)
(1 -1.79229e-15 0)
(1 2.13175e-15 0)
(1 -1.26823e-15 0)
(1 -1.81336e-15 0)
(1 -2.77563e-15 0)
(1 1.93033e-15 0)
(1 6.78269e-16 0)
(1 4.25557e-15 0)
(1 5.3899e-15 0)
(1 -4.17707e-16 0)
(1 -8.74855e-15 0)
(1 6.75663e-15 0)
(1 -2.1001e-15 0)
(1 -3.52941e-15 0)
(1 -2.20745e-15 0)
(1 -6.6913e-16 0)
(1 2.00143e-15 0)
(1 -1.36143e-15 0)
(1 1.55477e-15 0)
(1 -4.05209e-15 0)
(1 -3.70417e-15 0)
(1 1.4082e-15 0)
(1 -3.78512e-16 0)
(1 1.59332e-15 0)
(1 -3.55995e-15 0)
(1 -6.88365e-16 0)
(1 1.77272e-15 0)
(1 2.38793e-16 0)
(1 1.2377e-15 0)
(1 -3.64203e-15 0)
(1 2.79922e-15 0)
(1 7.64682e-16 0)
(1 5.59476e-15 0)
(1 6.45294e-15 0)
(1 2.08332e-15 0)
(1 -1.25118e-15 0)
(1 1.57312e-15 0)
(1 3.55272e-15 0)
(1 2.0654e-15 0)
(1 7.77979e-15 0)
(1 7.11847e-15 0)
(1 4.25705e-15 0)
(1 4.48514e-15 0)
(1 2.13966e-15 0)
(1 6.45062e-15 0)
(1 -1.54489e-15 0)
(1 1.96383e-15 0)
(1 7.83353e-16 0)
(1 3.77151e-15 0)
(1 5.12074e-15 0)
(1 5.23822e-15 0)
(1 4.06502e-15 0)
(1 1.99308e-15 0)
(1 3.70446e-15 0)
(1 2.2197e-15 0)
(1 6.46011e-16 0)
(1 9.85812e-16 0)
(1 -3.08566e-15 0)
(1 1.57615e-15 0)
(1 9.15045e-16 0)
(1 1.6039e-15 0)
(1 2.67989e-15 0)
(1 1.91525e-15 0)
(1 -2.40777e-15 0)
(1 -7.43136e-16 0)
(1 4.92416e-15 0)
(1 6.9503e-16 0)
(1 -1.24273e-15 0)
(1 -2.49576e-15 0)
(1 -1.71287e-15 0)
(1 -7.9111e-16 0)
(1 9.43584e-16 0)
(1 1.13771e-15 0)
(1 -1.96648e-15 0)
(1 8.52644e-16 0)
(1 -9.47048e-16 0)
(1 4.00921e-15 0)
(1 -9.46455e-16 0)
(1 -1.12547e-16 0)
(1 1.55978e-15 0)
(1 -1.60524e-15 0)
(1 2.07155e-15 0)
(1 3.79789e-15 0)
(1 -1.77753e-17 0)
(1 1.23727e-15 0)
(1 4.65624e-16 0)
(1 -6.47429e-16 0)
(1 2.09792e-16 0)
(1 6.24096e-16 0)
(1 -7.98627e-16 0)
(1 1.90022e-15 0)
(1 3.8883e-15 0)
(1 5.03517e-15 0)
(1 3.55933e-15 0)
(1 1.01638e-15 0)
(1 -2.01485e-15 0)
(1 5.4432e-16 0)
(1 3.74851e-15 0)
(1 4.39647e-15 0)
(1 3.3076e-15 0)
(1 9.91938e-16 0)
(1 -2.02782e-15 0)
(1 -1.31183e-15 0)
(1 -3.46904e-15 0)
(1 -3.40207e-18 0)
(1 -1.86743e-15 0)
(1 -2.24546e-15 0)
(1 5.40721e-15 0)
(1 3.24071e-15 0)
(1 3.17658e-15 0)
(1 -3.72076e-15 0)
(1 -2.16018e-15 0)
(1 4.37567e-16 0)
(1 5.30056e-17 0)
(1 -2.75318e-15 0)
(1 2.10314e-15 0)
(1 1.2922e-15 0)
(1 -5.81147e-16 0)
(1 -5.72739e-15 0)
(1 -1.13246e-15 0)
(1 1.10995e-15 0)
(1 -2.66995e-15 0)
(1 -4.90859e-15 0)
(1 1.60401e-16 0)
(1 -2.90931e-15 0)
(1 2.10587e-15 0)
(1 5.95861e-16 0)
(1 -1.14327e-15 0)
(1 -1.03618e-15 0)
(1 6.35938e-15 0)
(1 6.25155e-15 0)
(1 6.10405e-16 0)
(1 4.68333e-15 0)
(1 -1.58895e-15 0)
(1 6.80855e-15 0)
(1 -2.30844e-16 0)
(1 -1.25637e-15 0)
(1 -1.09648e-15 0)
(1 -1.2752e-15 0)
(1 7.13087e-15 0)
(1 6.96722e-15 0)
(1 1.12949e-15 0)
(1 8.07119e-15 0)
(1 4.53237e-15 0)
(1 4.18508e-15 0)
(1 2.09543e-15 0)
(1 1.69829e-15 0)
(1 2.90177e-15 0)
(1 1.44473e-15 0)
(1 6.4587e-16 0)
(1 5.24475e-15 0)
(1 5.75301e-15 0)
(1 3.12564e-15 0)
(1 3.57145e-15 0)
(1 3.48989e-15 0)
(1 7.22374e-16 0)
(1 1.94564e-15 0)
(1 -1.99743e-15 0)
(1 4.65514e-15 0)
(1 4.66855e-15 0)
(1 1.78269e-15 0)
(1 -3.98397e-16 0)
(1 3.42212e-15 0)
(1 2.69885e-17 0)
(1 3.46154e-15 0)
(1 2.27735e-15 0)
(1 -3.6504e-15 0)
(1 -9.39842e-16 0)
(1 3.77148e-16 0)
(1 -3.58197e-15 0)
(1 8.46568e-16 0)
(1 5.87042e-16 0)
(1 -1.34639e-15 0)
(1 -2.71555e-15 0)
(1 1.38535e-15 0)
(1 1.40241e-15 0)
(1 1.60187e-15 0)
(1 4.27433e-16 0)
(1 -1.16796e-15 0)
(1 1.57587e-15 0)
(1 2.93417e-15 0)
(1 1.23522e-15 0)
(1 1.22803e-15 0)
(1 -4.03437e-16 0)
(1 4.19409e-15 0)
(1 4.07597e-16 0)
(1 -2.49495e-15 0)
(1 -1.85693e-16 0)
(1 3.25195e-15 0)
(1 4.20562e-16 0)
(1 5.25457e-15 0)
(1 6.54047e-16 0)
(1 4.73675e-15 0)
(1 -2.22085e-15 0)
(1 4.95609e-16 0)
(1 3.07984e-15 0)
(1 -1.21685e-15 0)
(1 4.84489e-15 0)
(1 5.00922e-15 0)
(1 4.1491e-15 0)
(1 -4.50273e-15 0)
(1 -6.38141e-15 0)
(1 5.55427e-16 0)
(1 -8.7857e-15 0)
(1 6.61056e-15 0)
(1 -1.04142e-15 0)
(1 1.82738e-15 0)
(1 6.06411e-15 0)
(1 -2.24733e-15 0)
(1 1.95779e-15 0)
(1 3.42251e-15 0)
(1 -3.87433e-15 0)
(1 -3.20575e-15 0)
(1 -3.39871e-15 0)
(1 -5.83147e-16 0)
(1 8.206e-16 0)
(1 -1.42763e-15 0)
(1 -2.03312e-15 0)
(1 -1.17901e-15 0)
(1 -4.85996e-16 0)
(1 -2.12354e-15 0)
(1 -2.32575e-15 0)
(1 -1.49198e-15 0)
(1 -4.69181e-15 0)
(1 -4.97286e-16 0)
(1 2.16828e-15 0)
(1 -7.09077e-16 0)
(1 -7.94174e-16 0)
(1 4.84779e-16 0)
(1 8.45088e-15 0)
(1 2.59499e-15 0)
(1 5.11752e-15 0)
(1 2.63444e-15 0)
(1 -5.43713e-15 0)
(1 3.97708e-15 0)
(1 -2.25713e-16 0)
(1 -3.04482e-15 0)
(1 -6.28283e-16 0)
(1 3.76817e-15 0)
(1 5.1814e-15 0)
(1 4.82844e-15 0)
(1 4.1833e-15 0)
(1 7.54295e-15 0)
(1 3.21593e-15 0)
(1 5.20624e-15 0)
(1 4.9426e-15 0)
(1 2.52263e-15 0)
(1 4.88649e-15 0)
(1 2.47354e-16 0)
(1 4.5053e-15 0)
(1 3.10081e-15 0)
(1 6.13003e-15 0)
(1 5.59316e-15 0)
(1 4.74577e-15 0)
(1 3.36121e-15 0)
(1 3.39991e-15 0)
(1 2.01851e-15 0)
(1 3.60761e-15 0)
(1 2.54203e-15 0)
(1 9.70212e-16 0)
(1 1.05002e-15 0)
(1 -7.28124e-16 0)
(1 1.86405e-15 0)
(1 5.28926e-16 0)
(1 4.50413e-15 0)
(1 -7.74775e-16 0)
(1 -5.35604e-15 0)
(1 5.93926e-16 0)
(1 9.92627e-16 0)
(1 -2.72713e-15 0)
(1 7.286e-16 0)
(1 -5.68241e-16 0)
(1 -2.33248e-15 0)
(1 -2.77497e-15 0)
(1 1.26521e-15 0)
(1 9.03714e-16 0)
(1 -1.7386e-15 0)
(1 2.87937e-17 0)
(1 -1.08136e-15 0)
(1 1.36521e-15 0)
(1 2.81886e-15 0)
(1 3.35197e-15 0)
(1 -5.04145e-16 0)
(1 -1.69176e-15 0)
(1 2.37507e-15 0)
(1 2.03247e-15 0)
(1 1.68062e-15 0)
(1 -1.85397e-16 0)
(1 3.27591e-15 0)
(1 1.21726e-15 0)
(1 1.76623e-15 0)
(1 2.24398e-15 0)
(1 3.18833e-15 0)
(1 1.43384e-15 0)
(1 1.75368e-15 0)
(1 4.10749e-15 0)
(1 2.21841e-15 0)
(1 -1.04447e-15 0)
(1 -8.56593e-17 0)
(1 1.89046e-15 0)
(1 -4.79194e-16 0)
(1 -1.04126e-15 0)
(1 -7.37749e-16 0)
(1 -3.65782e-15 0)
(1 2.73851e-16 0)
(1 3.23724e-15 0)
(1 6.93957e-16 0)
(1 -1.62685e-15 0)
(1 -7.20158e-16 0)
(1 3.68347e-16 0)
(1 1.46342e-15 0)
(1 -3.94881e-15 0)
(1 -1.9536e-15 0)
(1 -4.59974e-16 0)
(1 5.62014e-15 0)
(1 -4.735e-15 0)
(1 -1.39899e-15 0)
(1 -4.09081e-15 0)
(1 -3.87794e-16 0)
(1 -1.17313e-15 0)
(1 -3.74988e-15 0)
(1 5.67264e-16 0)
(1 -1.43632e-15 0)
(1 -2.15809e-15 0)
(1 -6.55585e-16 0)
(1 -2.26107e-15 0)
(1 -1.0359e-15 0)
(1 1.65037e-15 0)
(1 6.1675e-15 0)
(1 1.67487e-15 0)
(1 3.39086e-15 0)
(1 4.63282e-16 0)
(1 -6.78933e-16 0)
(1 2.24915e-15 0)
(1 -3.34688e-16 0)
(1 -1.92673e-15 0)
(1 -8.03451e-15 0)
(1 2.07914e-15 0)
(1 7.65498e-15 0)
(1 7.04814e-15 0)
(1 3.30301e-15 0)
(1 8.06855e-15 0)
(1 7.68957e-15 0)
(1 3.43057e-15 0)
(1 3.48542e-15 0)
(1 1.36125e-15 0)
(1 1.52979e-15 0)
(1 1.59878e-15 0)
(1 2.1162e-15 0)
(1 2.59555e-15 0)
(1 -2.64424e-15 0)
(1 5.94129e-15 0)
(1 5.30259e-15 0)
(1 5.53568e-15 0)
(1 4.25332e-15 0)
(1 3.32217e-15 0)
(1 2.4943e-15 0)
(1 1.74351e-15 0)
(1 -3.44405e-15 0)
(1 -3.09169e-17 0)
(1 3.43433e-15 0)
(1 -7.96831e-18 0)
(1 1.2395e-16 0)
(1 6.92281e-16 0)
(1 1.73847e-15 0)
(1 -5.29552e-16 0)
(1 1.99631e-15 0)
(1 -3.38616e-15 0)
(1 -3.70983e-15 0)
(1 1.12091e-15 0)
(1 -1.66597e-15 0)
(1 -2.40484e-15 0)
(1 -3.78594e-15 0)
(1 -5.16228e-16 0)
(1 2.48697e-15 0)
(1 2.90121e-15 0)
(1 -5.64192e-16 0)
(1 5.15586e-16 0)
(1 1.44582e-15 0)
(1 1.73035e-15 0)
(1 1.31077e-15 0)