/*--------------------------------*- C++ -*----------------------------------*\
| =========                 |                                                 |
| \\      /  F ield         | OpenFOAM: The Open Source CFD Toolbox           |
|  \\    /   O peration     | Version:  v2012                                 |
|   \\  /    A nd           | Website:  www.openfoam.com                      |
|    \\/     M anipulation  |                                                 |
\*---------------------------------------------------------------------------*/
FoamFile
{
    version     2.0;
    format      ascii;
    class       surfaceScalarField;
    location    "3.25";
    object      phi;
}
// * * * * * * * * * * * * * * * * * * * * * * * * * * * * * * * * * * * * * //

dimensions      [0 3 -1 0 0 0 0];
oriented        oriented;


internalField   nonuniform List<scalar> 
130560
(
3.54294e-06
-3.54294e-06
7.08568e-06
-3.54274e-06
1.0628e-05
-3.54232e-06
1.41697e-05
-3.54171e-06
1.77106e-05
-3.54088e-06
2.12504e-05
-3.53985e-06
2.4789e-05
-3.5386e-06
2.83262e-05
-3.53713e-06
3.18616e-05
-3.53545e-06
3.53952e-05
-3.53354e-06
3.89266e-05
-3.53139e-06
4.24556e-05
-3.52902e-06
4.5982e-05
-3.52639e-06
4.95055e-05
-3.52353e-06
5.30259e-05
-3.5204e-06
5.65429e-05
-3.51701e-06
6.00562e-05
-3.51335e-06
6.35657e-05
-3.50941e-06
6.70708e-05
-3.50518e-06
7.05715e-05
-3.50064e-06
7.40673e-05
-3.4958e-06
7.75579e-05
-3.49064e-06
8.10431e-05
-3.48515e-06
8.45224e-05
-3.47931e-06
8.79955e-05
-3.47312e-06
9.14621e-05
-3.46656e-06
9.49217e-05
-3.45963e-06
9.8374e-05
-3.4523e-06
0.000101819
-3.44457e-06
0.000105255
-3.43642e-06
0.000108683
-3.42784e-06
0.000112102
-3.41881e-06
0.000115511
-3.40932e-06
0.00011891
-3.39936e-06
0.000122299
-3.38891e-06
0.000125677
-3.37795e-06
0.000129044
-3.36648e-06
0.000132398
-3.35447e-06
0.00013574
-3.34192e-06
0.000139069
-3.3288e-06
0.000142384
-3.31511e-06
0.000145685
-3.30082e-06
0.000148971
-3.28593e-06
0.000152241
-3.27042e-06
0.000155495
-3.25427e-06
0.000158733
-3.23747e-06
0.000161953
-3.22001e-06
0.000165155
-3.20187e-06
0.000168338
-3.18304e-06
0.000171501
-3.1635e-06
0.000174645
-3.14325e-06
0.000177767
-3.12228e-06
0.000180867
-3.10056e-06
0.000183945
-3.07809e-06
0.000187
-3.05486e-06
0.000190031
-3.03085e-06
0.000193037
-3.00607e-06
0.000196018
-2.9805e-06
0.000198972
-2.95413e-06
0.000201899
-2.92695e-06
0.000204798
-2.89896e-06
0.000207668
-2.87016e-06
0.000210508
-2.84053e-06
0.000213318
-2.81007e-06
0.000216097
-2.77879e-06
0.000218844
-2.74667e-06
0.000221558
-2.71372e-06
0.000224238
-2.67994e-06
0.000226883
-2.64533e-06
0.000229493
-2.60988e-06
0.000232066
-2.57361e-06
0.000234603
-2.53651e-06
0.000237102
-2.49859e-06
0.000239561
-2.45985e-06
0.000241982
-2.42031e-06
0.000244362
-2.37997e-06
0.000246701
-2.33885e-06
0.000248997
-2.29694e-06
0.000251252
-2.25426e-06
0.000253463
-2.21082e-06
0.000255629
-2.16665e-06
0.000257751
-2.12174e-06
0.000259827
-2.07612e-06
0.000261857
-2.0298e-06
0.00026384
-1.9828e-06
0.000265775
-1.93514e-06
0.000267662
-1.88684e-06
0.0002695
-1.83792e-06
0.000271288
-1.78839e-06
0.000273026
-1.73828e-06
0.000274714
-1.68762e-06
0.00027635
-1.63642e-06
0.000277935
-1.58471e-06
0.000279467
-1.53251e-06
0.000280947
-1.47985e-06
0.000282374
-1.42676e-06
0.000283747
-1.37326e-06
0.000285067
-1.31937e-06
0.000286332
-1.26513e-06
0.000287542
-1.21056e-06
0.000288698
-1.15568e-06
0.000289799
-1.10054e-06
0.000290844
-1.04514e-06
0.000291833
-9.89532e-07
0.000292767
-9.33731e-07
0.000293645
-8.77769e-07
0.000294466
-8.21673e-07
0.000295232
-7.65471e-07
0.000295941
-7.0919e-07
0.000296594
-6.5286e-07
0.00029719
-5.96505e-07
0.000297731
-5.40155e-07
0.000298214
-4.83835e-07
0.000298642
-4.27571e-07
0.000299013
-3.7139e-07
0.000299329
-3.15317e-07
0.000299588
-2.59377e-07
0.000299792
-2.03593e-07
0.00029994
-1.4799e-07
0.000300032
-9.2591e-08
0.00030007
-3.74183e-08
0.000300052
1.7506e-08
0.00029998
7.21609e-08
0.000299854
1.26526e-07
0.000299673
1.80581e-07
0.000299439
2.34307e-07
0.000299151
2.87686e-07
0.00029881
3.407e-07
0.000298417
3.93333e-07
0.000297971
4.45567e-07
0.000297474
4.97388e-07
0.000296925
5.48782e-07
0.000296325
5.99734e-07
0.000295675
6.5023e-07
0.000294975
7.0026e-07
0.000294225
7.4981e-07
0.000293426
7.98871e-07
0.000292579
8.47431e-07
0.000291683
8.95481e-07
0.00029074
9.43012e-07
0.00028975
9.90016e-07
0.000288714
1.03649e-06
0.000287631
1.08241e-06
0.000286504
1.12779e-06
0.000285331
1.17262e-06
0.000284114
1.21688e-06
0.000282854
1.26058e-06
0.00028155
1.30372e-06
0.000280204
1.34628e-06
0.000278815
1.38826e-06
0.000277386
1.42967e-06
0.000275915
1.4705e-06
0.000274404
1.51074e-06
0.000272854
1.5504e-06
0.000271265
1.58947e-06
0.000269637
1.62796e-06
0.000267971
1.66586e-06
0.000266268
1.70317e-06
0.000264528
1.7399e-06
0.000262752
1.77604e-06
0.00026094
1.81159e-06
0.000259093
1.84656e-06
0.000257212
1.88094e-06
0.000255298
1.91475e-06
0.00025335
1.94797e-06
0.000251369
1.98061e-06
0.000249356
2.01267e-06
0.000247312
2.04416e-06
0.000245237
2.07507e-06
0.000243132
2.10542e-06
0.000240997
2.1352e-06
0.000238832
2.16441e-06
0.000236639
2.19306e-06
0.000234418
2.22115e-06
0.000232169
2.24869e-06
0.000229894
2.27567e-06
0.000227592
2.30211e-06
0.000225264
2.328e-06
0.00022291
2.35335e-06
0.000220532
2.37816e-06
0.00021813
2.40244e-06
0.000215703
2.42619e-06
0.000213254
2.44942e-06
0.000210782
2.47212e-06
0.000208288
2.49431e-06
0.000205772
2.51598e-06
0.000203234
2.53716e-06
0.000200677
2.55782e-06
0.000198099
2.578e-06
0.000195501
2.59767e-06
0.000192884
2.61687e-06
0.000190248
2.63558e-06
0.000187595
2.65381e-06
0.000184923
2.67158e-06
0.000182234
2.68888e-06
0.000179528
2.70572e-06
0.000176806
2.72211e-06
0.000174068
2.73805e-06
0.000171315
2.75355e-06
0.000168546
2.76861e-06
0.000165763
2.78324e-06
0.000162965
2.79745e-06
0.000160154
2.81124e-06
0.00015733
2.82463e-06
0.000154492
2.8376e-06
0.000151642
2.85019e-06
0.000148779
2.86237e-06
0.000145905
2.87418e-06
0.00014302
2.88561e-06
0.000140123
2.89666e-06
0.000137216
2.90735e-06
0.000134298
2.91769e-06
0.00013137
2.92767e-06
0.000128433
2.93731e-06
0.000125486
2.94661e-06
0.000122531
2.95558e-06
0.000119567
2.96422e-06
0.000116594
2.97255e-06
0.000113613
2.98056e-06
0.000110625
2.98828e-06
0.00010763
2.99569e-06
0.000104627
3.00281e-06
0.000101617
3.00965e-06
9.86008e-05
3.01621e-06
9.55783e-05
3.0225e-06
9.25498e-05
3.02852e-06
8.95155e-05
3.03428e-06
8.64757e-05
3.03978e-06
8.34307e-05
3.04504e-06
8.03806e-05
3.05006e-06
7.73258e-05
3.05484e-06
7.42664e-05
3.05938e-06
7.12027e-05
3.06371e-06
6.81349e-05
3.06781e-06
6.50632e-05
3.07169e-06
6.19879e-05
3.07536e-06
5.8909e-05
3.07883e-06
5.58269e-05
3.08209e-06
5.27418e-05
3.08516e-06
4.96538e-05
3.08803e-06
4.6563e-05
3.09071e-06
4.34698e-05
3.09321e-06
4.03743e-05
3.09552e-06
3.72767e-05
3.09766e-06
3.4177e-05
3.09962e-06
3.10756e-05
3.1014e-06
2.79726e-05
3.10302e-06
2.48682e-05
3.10446e-06
2.17624e-05
3.10574e-06
1.86556e-05
3.10686e-06
1.55477e-05
3.10781e-06
1.24391e-05
3.1086e-06
9.32991e-06
3.10923e-06
6.2202e-06
3.10971e-06
3.11018e-06
3.11002e-06
3.11018e-06
3.54314e-06
-7.08608e-06
7.08608e-06
-7.08567e-06
1.06286e-05
-7.08485e-06
1.41705e-05
-7.08362e-06
1.77116e-05
-7.08198e-06
2.12517e-05
-7.07991e-06
2.47905e-05
-7.07741e-06
2.83278e-05
-7.07449e-06
3.18635e-05
-7.07112e-06
3.53973e-05
-7.0673e-06
3.89289e-05
-7.06302e-06
4.24582e-05
-7.05827e-06
4.59848e-05
-7.05304e-06
4.95086e-05
-7.04731e-06
5.30293e-05
-7.04106e-06
5.65465e-05
-7.03429e-06
6.00602e-05
-7.02698e-06
6.35699e-05
-7.0191e-06
6.70753e-05
-7.01065e-06
7.05763e-05
-7.00159e-06
7.40724e-05
-6.99192e-06
7.75634e-05
-6.98161e-06
8.10489e-05
-6.97064e-06
8.45285e-05
-6.95898e-06
8.8002e-05
-6.94661e-06
9.1469e-05
-6.93351e-06
9.4929e-05
-6.91965e-06
9.83817e-05
-6.90501e-06
0.000101827
-6.88956e-06
0.000105264
-6.87327e-06
0.000108692
-6.85612e-06
0.000112111
-6.83808e-06
0.000115521
-6.81911e-06
0.000118921
-6.7992e-06
0.00012231
-6.77831e-06
0.000125689
-6.75642e-06
0.000129056
-6.73349e-06
0.000132411
-6.70949e-06
0.000135753
-6.6844e-06
0.000139082
-6.65818e-06
0.000142398
-6.63081e-06
0.0001457
-6.60225e-06
0.000148986
-6.57248e-06
0.000152257
-6.54147e-06
0.000155512
-6.50918e-06
0.00015875
-6.4756e-06
0.000161971
-6.44069e-06
0.000165173
-6.40442e-06
0.000168357
-6.36678e-06
0.000171521
-6.32772e-06
0.000174665
-6.28723e-06
0.000177788
-6.24529e-06
0.00018089
-6.20186e-06
0.000183969
-6.15694e-06
0.000187024
-6.11048e-06
0.000190056
-6.06249e-06
0.000193063
-6.01293e-06
0.000196044
-5.96179e-06
0.000198999
-5.90906e-06
0.000201927
-5.85471e-06
0.000204826
-5.79874e-06
0.000207697
-5.74113e-06
0.000210539
-5.68188e-06
0.00021335
-5.62098e-06
0.000216129
-5.55841e-06
0.000218877
-5.49418e-06
0.000221591
-5.42828e-06
0.000224272
-5.36072e-06
0.000226918
-5.29148e-06
0.000229529
-5.22059e-06
0.000232103
-5.14804e-06
0.000234641
-5.07383e-06
0.00023714
-4.99799e-06
0.000239601
-4.92052e-06
0.000242022
-4.84143e-06
0.000244403
-4.76074e-06
0.000246742
-4.67847e-06
0.00024904
-4.59464e-06
0.000251295
-4.50927e-06
0.000253507
-4.42239e-06
0.000255674
-4.33402e-06
0.000257796
-4.24419e-06
0.000259873
-4.15293e-06
0.000261904
-4.06028e-06
0.000263887
-3.96627e-06
0.000265823
-3.87093e-06
0.00026771
-3.7743e-06
0.000269549
-3.67643e-06
0.000271338
-3.57736e-06
0.000273077
-3.47712e-06
0.000274765
-3.37577e-06
0.000276402
-3.27335e-06
0.000277987
-3.1699e-06
0.00027952
-3.06548e-06
0.000281
-2.96014e-06
0.000282427
-2.85393e-06
0.000283801
-2.7469e-06
0.000285121
-2.6391e-06
0.000286386
-2.53058e-06
0.000287597
-2.42141e-06
0.000288753
-2.31164e-06
0.000289854
-2.20132e-06
0.000290899
-2.0905e-06
0.000291889
-1.97925e-06
0.000292823
-1.86763e-06
0.000293701
-1.75567e-06
0.000294523
-1.64345e-06
0.000295288
-1.53102e-06
0.000295997
-1.41843e-06
0.00029665
-1.30574e-06
0.000297247
-1.19301e-06
0.000297787
-1.08028e-06
0.000298271
-9.67615e-07
0.000298698
-8.55062e-07
0.000299069
-7.42674e-07
0.000299385
-6.30503e-07
0.000299644
-5.18598e-07
0.000299847
-4.07007e-07
0.000299995
-2.95778e-07
0.000300087
-1.84957e-07
0.000300125
-7.459e-08
0.000300107
3.528e-08
0.000300034
1.4461e-07
0.000299908
2.5336e-07
0.000299727
3.61489e-07
0.000299492
4.6896e-07
0.000299204
5.75735e-07
0.000298863
6.81781e-07
0.000298469
7.87061e-07
0.000298023
8.91546e-07
0.000297525
9.95203e-07
0.000296976
1.098e-06
0.000296376
1.19992e-06
0.000295725
1.30093e-06
0.000295024
1.401e-06
0.000294274
1.50011e-06
0.000293475
1.59824e-06
0.000292627
1.69537e-06
0.000291731
1.79148e-06
0.000290787
1.88655e-06
0.000289797
1.98057e-06
0.00028876
2.07351e-06
0.000287677
2.16537e-06
0.000286548
2.25614e-06
0.000285375
2.34579e-06
0.000284158
2.43433e-06
0.000282897
2.52174e-06
0.000281592
2.60801e-06
0.000280246
2.69313e-06
0.000278857
2.7771e-06
0.000277426
2.85992e-06
0.000275955
2.94158e-06
0.000274444
3.02206e-06
0.000272893
3.10138e-06
0.000271303
3.17953e-06
0.000269674
3.25651e-06
0.000268008
3.33231e-06
0.000266304
3.40693e-06
0.000264564
3.48039e-06
0.000262787
3.55266e-06
0.000260975
3.62377e-06
0.000259128
3.6937e-06
0.000257246
3.76247e-06
0.000255331
3.83007e-06
0.000253382
3.89651e-06
0.000251401
3.96179e-06
0.000249388
4.02592e-06
0.000247343
4.08889e-06
0.000245268
4.15072e-06
0.000243162
4.21141e-06
0.000241026
4.27096e-06
0.000238861
4.32938e-06
0.000236667
4.38668e-06
0.000234446
4.44286e-06
0.000232196
4.49793e-06
0.00022992
4.55189e-06
0.000227617
4.60476e-06
0.000225289
4.65654e-06
0.000222935
4.70724e-06
0.000220556
4.75686e-06
0.000218153
4.80541e-06
0.000215727
4.8529e-06
0.000213277
4.89935e-06
0.000210804
4.94475e-06
0.000208309
4.98913e-06
0.000205793
5.03248e-06
0.000203255
5.07481e-06
0.000200697
5.11614e-06
0.000198118
5.15648e-06
0.00019552
5.19584e-06
0.000192903
5.23422e-06
0.000190267
5.27163e-06
0.000187612
5.3081e-06
0.00018494
5.34362e-06
0.000182251
5.37822e-06
0.000179545
5.4119e-06
0.000176822
5.44466e-06
0.000174084
5.47654e-06
0.00017133
5.50753e-06
0.000168561
5.53765e-06
0.000165777
5.56691e-06
0.000162979
5.59532e-06
0.000160168
5.6229e-06
0.000157343
5.64966e-06
0.000154505
5.67561e-06
0.000151654
5.70076e-06
0.000148791
5.72513e-06
0.000145917
5.74874e-06
0.000143031
5.77159e-06
0.000140134
5.79369e-06
0.000137226
5.81507e-06
0.000134308
5.83573e-06
0.00013138
5.85568e-06
0.000128442
5.87495e-06
0.000125495
5.89355e-06
0.000122539
5.91148e-06
0.000119575
5.92876e-06
0.000116602
5.94541e-06
0.000113621
5.96143e-06
0.000110633
5.97685e-06
0.000107637
5.99167e-06
0.000104634
6.00591e-06
0.000101624
6.01958e-06
9.86071e-05
6.03269e-06
9.55844e-05
6.04526e-06
9.25556e-05
6.0573e-06
8.95211e-05
6.06881e-06
8.6481e-05
6.07982e-06
8.34357e-05
6.09033e-06
8.03855e-05
6.10035e-06
7.73304e-05
6.10991e-06
7.42708e-05
6.119e-06
7.12068e-05
6.12763e-06
6.81388e-05
6.13583e-06
6.50669e-05
6.14359e-06
6.19914e-05
6.15093e-06
5.89123e-05
6.15786e-06
5.583e-05
6.16438e-06
5.27447e-05
6.17051e-06
4.96565e-05
6.17625e-06
4.65656e-05
6.18161e-06
4.34722e-05
6.1866e-06
4.03765e-05
6.19123e-06
3.72786e-05
6.19549e-06
3.41788e-05
6.19941e-06
3.10773e-05
6.20298e-06
2.79741e-05
6.2062e-06
2.48694e-05
6.20909e-06
2.17635e-05
6.21165e-06
1.86565e-05
6.21388e-06
1.55485e-05
6.21578e-06
1.24398e-05
6.21737e-06
9.33038e-06
6.21863e-06
6.22052e-06
6.21957e-06
3.11034e-06
6.2202e-06
6.22052e-06
3.54355e-06
-1.06296e-05
7.0869e-06
-1.0629e-05
1.06298e-05
-1.06278e-05
1.41722e-05
-1.0626e-05
1.77137e-05
-1.06235e-05
2.12542e-05
-1.06204e-05
2.47934e-05
-1.06167e-05
2.83312e-05
-1.06123e-05
3.18673e-05
-1.06072e-05
3.54016e-05
-1.06015e-05
3.89337e-05
-1.05951e-05
4.24634e-05
-1.0588e-05
4.59905e-05
-1.05802e-05
4.95148e-05
-1.05716e-05
5.3036e-05
-1.05623e-05
5.65539e-05
-1.05521e-05
6.0068e-05
-1.05412e-05
6.35783e-05
-1.05294e-05
6.70844e-05
-1.05167e-05
7.0586e-05
-1.05032e-05
7.40827e-05
-1.04887e-05
7.75744e-05
-1.04732e-05
8.10605e-05
-1.04568e-05
8.45409e-05
-1.04393e-05
8.80151e-05
-1.04208e-05
9.14828e-05
-1.04012e-05
9.49436e-05
-1.03805e-05
9.83971e-05
-1.03585e-05
0.000101843
-1.03354e-05
0.000105281
-1.0311e-05
0.00010871
-1.02853e-05
0.00011213
-1.02583e-05
0.000115541
-1.02299e-05
0.000118942
-1.02e-05
0.000122332
-1.01687e-05
0.000125712
-1.01359e-05
0.00012908
-1.01016e-05
0.000132436
-1.00656e-05
0.000135779
-1.0028e-05
0.00013911
-9.98871e-06
0.000142427
-9.94769e-06
0.000145729
-9.90489e-06
0.000149017
-9.86027e-06
0.000152289
-9.81379e-06
0.000155546
-9.7654e-06
0.000158785
-9.71506e-06
0.000162007
-9.66273e-06
0.000165211
-9.60836e-06
0.000168396
-9.55192e-06
0.000171562
-9.49337e-06
0.000174707
-9.43267e-06
0.000177832
-9.36978e-06
0.000180935
-9.30467e-06
0.000184015
-9.23731e-06
0.000187072
-9.16766e-06
0.000190105
-9.09569e-06
0.000193114
-9.02137e-06
0.000196097
-8.94468e-06
0.000199053
-8.8656e-06
0.000201983
-8.7841e-06
0.000204884
-8.70015e-06
0.000207757
-8.61376e-06
0.0002106
-8.52489e-06
0.000213412
-8.43354e-06
0.000216194
-8.33969e-06
0.000218943
-8.24335e-06
0.000221659
-8.14451e-06
0.000224341
-8.04316e-06
0.000226989
-7.93931e-06
0.000229602
-7.83296e-06
0.000232178
-7.72412e-06
0.000234717
-7.6128e-06
0.000237218
-7.49902e-06
0.00023968
-7.38279e-06
0.000242103
-7.26414e-06
0.000244485
-7.14309e-06
0.000246826
-7.01966e-06
0.000249125
-6.89388e-06
0.000251382
-6.7658e-06
0.000253595
-6.63544e-06
0.000255764
-6.50285e-06
0.000257888
-6.36807e-06
0.000259966
-6.23114e-06
0.000261998
-6.09212e-06
0.000263983
-5.95106e-06
0.00026592
-5.808e-06
0.000267808
-5.66301e-06
0.000269648
-5.51616e-06
0.000271438
-5.36749e-06
0.000273178
-5.21708e-06
0.000274867
-5.06499e-06
0.000276505
-4.9113e-06
0.000278092
-4.75607e-06
0.000279625
-4.59938e-06
0.000281107
-4.4413e-06
0.000282535
-4.28192e-06
0.000283909
-4.1213e-06
0.000285229
-3.95954e-06
0.000286496
-3.7967e-06
0.000287707
-3.63287e-06
0.000288863
-3.46814e-06
0.000289965
-3.30259e-06
0.000291011
-3.1363e-06
0.000292001
-2.96936e-06
0.000292935
-2.80184e-06
0.000293813
-2.63384e-06
0.000294635
-2.46544e-06
0.000295401
-2.29673e-06
0.00029611
-2.12778e-06
0.000296763
-1.95867e-06
0.00029736
-1.7895e-06
0.0002979
-1.62035e-06
0.000298383
-1.45128e-06
0.000298811
-1.28239e-06
0.000299182
-1.11374e-06
0.000299497
-9.45423e-07
0.000299755
-7.77504e-07
0.000299959
-6.10058e-07
0.000300106
-4.43156e-07
0.000300198
-2.76869e-07
0.000300234
-1.11264e-07
0.000300216
5.3594e-08
0.000300143
2.17641e-07
0.000300016
3.80815e-07
0.000299834
5.43056e-07
0.000299599
7.04308e-07
0.00029931
8.64516e-07
0.000298968
1.02363e-06
0.000298574
1.18159e-06
0.000298127
1.33835e-06
0.000297628
1.49387e-06
0.000297078
1.64811e-06
0.000296477
1.80102e-06
0.000295825
1.95256e-06
0.000295124
2.10269e-06
0.000294372
2.25139e-06
0.000293572
2.39861e-06
0.000292723
2.54433e-06
0.000291826
2.68852e-06
0.000290881
2.83114e-06
0.00028989
2.97219e-06
0.000288852
3.11162e-06
0.000287768
3.24943e-06
0.000286638
3.38559e-06
0.000285464
3.52009e-06
0.000284245
3.6529e-06
0.000282983
3.78403e-06
0.000281678
3.91344e-06
0.00028033
4.04114e-06
0.00027894
4.1671e-06
0.000277508
4.29133e-06
0.000276036
4.41382e-06
0.000274523
4.53456e-06
0.000272971
4.65354e-06
0.00027138
4.77076e-06
0.00026975
4.88623e-06
0.000268083
4.99993e-06
0.000266378
5.11187e-06
0.000264636
5.22205e-06
0.000262858
5.33046e-06
0.000261045
5.43712e-06
0.000259197
5.54202e-06
0.000257314
5.64516e-06
0.000255397
5.74656e-06
0.000253448
5.84621e-06
0.000251465
5.94413e-06
0.000249451
6.04031e-06
0.000247405
6.13477e-06
0.000245328
6.2275e-06
0.000243221
6.31853e-06
0.000241084
6.40785e-06
0.000238918
6.49548e-06
0.000236723
6.58142e-06
0.000234501
6.66568e-06
0.00023225
6.74827e-06
0.000229973
6.82921e-06
0.000227669
6.90851e-06
0.00022534
6.98616e-06
0.000222985
7.0622e-06
0.000220605
7.13662e-06
0.000218201
7.20944e-06
0.000215773
7.28067e-06
0.000213322
7.35033e-06
0.000210848
7.41842e-06
0.000208353
7.48497e-06
0.000205835
7.54998e-06
0.000203296
7.61347e-06
0.000200737
7.67546e-06
0.000198158
7.73595e-06
0.000195559
7.79497e-06
0.00019294
7.85253e-06
0.000190303
7.90864e-06
0.000187648
7.96333e-06
0.000184975
8.0166e-06
0.000182285
8.06848e-06
0.000179578
8.11898e-06
0.000176854
8.16811e-06
0.000174115
8.21591e-06
0.00017136
8.26238e-06
0.00016859
8.30754e-06
0.000165806
8.35142e-06
0.000163007
8.39402e-06
0.000160194
8.43538e-06
0.000157369
8.4755e-06
0.00015453
8.51441e-06
0.000151678
8.55212e-06
0.000148815
8.58866e-06
0.00014594
8.62405e-06
0.000143053
8.65831e-06
0.000140155
8.69145e-06
0.000137247
8.72349e-06
0.000134328
8.75447e-06
0.000131399
8.78439e-06
0.000128461
8.81327e-06
0.000125513
8.84115e-06
0.000122557
8.86803e-06
0.000119592
8.89393e-06
0.000116618
8.91889e-06
0.000113637
8.94291e-06
0.000110647
8.96602e-06
0.000107651
8.98824e-06
0.000104647
9.00958e-06
0.000101637
9.03007e-06
9.86197e-05
9.04972e-06
9.55964e-05
9.06856e-06
9.25671e-05
9.08659e-06
8.95321e-05
9.10385e-06
8.64915e-05
9.12035e-06
8.34458e-05
9.1361e-06
8.0395e-05
9.15112e-06
7.73395e-05
9.16544e-06
7.42794e-05
9.17906e-06
7.1215e-05
9.192e-06
6.81466e-05
9.20428e-06
6.50743e-05
9.21591e-06
6.19983e-05
9.22691e-06
5.89188e-05
9.23729e-06
5.58362e-05
9.24707e-06
5.27504e-05
9.25625e-06
4.96618e-05
9.26485e-06
4.65705e-05
9.27288e-06
4.34768e-05
9.28036e-06
4.03807e-05
9.28729e-06
3.72825e-05
9.29368e-06
3.41824e-05
9.29955e-06
3.10805e-05
9.30489e-06
2.7977e-05
9.30972e-06
2.4872e-05
9.31405e-06
2.17658e-05
9.31789e-06
1.86584e-05
9.32122e-06
1.55501e-05
9.32408e-06
1.2441e-05
9.32645e-06
9.33133e-06
9.32834e-06
6.22115e-06
9.32976e-06
3.11065e-06
9.3307e-06
9.33117e-06
3.54417e-06
-1.41738e-05
7.08813e-06
-1.4173e-05
1.06317e-05
-1.41714e-05
1.41746e-05
-1.41689e-05
1.77168e-05
-1.41656e-05
2.12579e-05
-1.41615e-05
2.47978e-05
-1.41566e-05
2.83363e-05
-1.41507e-05
3.18731e-05
-1.4144e-05
3.5408e-05
-1.41364e-05
3.89408e-05
-1.41279e-05
4.24713e-05
-1.41185e-05
4.59991e-05
-1.41081e-05
4.95242e-05
-1.40967e-05
5.30462e-05
-1.40842e-05
5.65648e-05
-1.40708e-05
6.00799e-05
-1.40562e-05
6.3591e-05
-1.40405e-05
6.7098e-05
-1.40237e-05
7.06005e-05
-1.40057e-05
7.40982e-05
-1.39864e-05
7.75908e-05
-1.39659e-05
8.1078e-05
-1.3944e-05
8.45595e-05
-1.39208e-05
8.80348e-05
-1.38961e-05
9.15036e-05
-1.387e-05
9.49656e-05
-1.38424e-05
9.84203e-05
-1.38133e-05
0.000101867
-1.37825e-05
0.000105306
-1.375e-05
0.000108737
-1.37158e-05
0.000112158
-1.36798e-05
0.000115571
-1.3642e-05
0.000118973
-1.36023e-05
0.000122365
-1.35607e-05
0.000125746
-1.3517e-05
0.000129116
-1.34712e-05
0.000132473
-1.34234e-05
0.000135819
-1.33733e-05
0.000139151
-1.3321e-05
0.00014247
-1.32664e-05
0.000145774
-1.32094e-05
0.000149064
-1.31499e-05
0.000152338
-1.3088e-05
0.000155596
-1.30236e-05
0.000158838
-1.29565e-05
0.000162062
-1.28868e-05
0.000165268
-1.28144e-05
0.000168455
-1.27392e-05
0.000171623
-1.26612e-05
0.00017477
-1.25803e-05
0.000177897
-1.24965e-05
0.000181002
-1.24097e-05
0.000184085
-1.232e-05
0.000187144
-1.22271e-05
0.00019018
-1.21312e-05
0.000193191
-1.20322e-05
0.000196176
-1.193e-05
0.000199135
-1.18246e-05
0.000202067
-1.17159e-05
0.000204971
-1.1604e-05
0.000207846
-1.14889e-05
0.000210691
-1.13704e-05
0.000213506
-1.12486e-05
0.00021629
-1.11235e-05
0.000219042
-1.0995e-05
0.00022176
-1.08632e-05
0.000224445
-1.07281e-05
0.000227096
-1.05896e-05
0.000229711
-1.04478e-05
0.000232289
-1.03027e-05
0.00023483
-1.01542e-05
0.000237334
-1.00025e-05
0.000239799
-9.84749e-06
0.000242224
-9.68925e-06
0.000244609
-9.52781e-06
0.000246952
-9.36319e-06
0.000249254
-9.19544e-06
0.000251512
-9.0246e-06
0.000253728
-8.85073e-06
0.000255899
-8.67388e-06
0.000258025
-8.4941e-06
0.000260105
-8.31145e-06
0.000262139
-8.12601e-06
0.000264126
-7.93783e-06
0.000266065
-7.747e-06
0.000267955
-7.5536e-06
0.000269797
-7.35769e-06
0.000271589
-7.15936e-06
0.00027333
-6.95871e-06
0.000275021
-6.75582e-06
0.000276661
-6.55078e-06
0.000278248
-6.3437e-06
0.000279784
-6.13466e-06
0.000281266
-5.92377e-06
0.000282695
-5.71114e-06
0.000284071
-5.49686e-06
0.000285392
-5.28104e-06
0.000286659
-5.0638e-06
0.000287872
-4.84524e-06
0.000289029
-4.62547e-06
0.000290131
-4.4046e-06
0.000291178
-4.18275e-06
0.000292168
-3.96003e-06
0.000293103
-3.73654e-06
0.000293982
-3.51241e-06
0.000294804
-3.28775e-06
0.00029557
-3.06266e-06
0.000296279
-2.83727e-06
0.000296932
-2.61167e-06
0.000297529
-2.38599e-06
0.000298069
-2.16032e-06
0.000298552
-1.93477e-06
0.000298979
-1.70946e-06
0.00029935
-1.48448e-06
0.000299665
-1.25994e-06
0.000299923
-1.03594e-06
0.000300125
-8.12564e-07
0.000300272
-5.8992e-07
0.000300363
-3.68099e-07
0.000300399
-1.47189e-07
0.00030038
7.27201e-08
0.000300306
2.91545e-07
0.000300178
5.09203e-07
0.000299995
7.25614e-07
0.000299759
9.40702e-07
0.000299469
1.15439e-06
0.000299126
1.36662e-06
0.00029873
1.57731e-06
0.000298282
1.7864e-06
0.000297782
1.99383e-06
0.000297231
2.19955e-06
0.000296629
2.40348e-06
0.000295975
2.6056e-06
0.000295272
2.80583e-06
0.00029452
3.00414e-06
0.000293718
3.20049e-06
0.000292867
3.39482e-06
0.000291969
3.58711e-06
0.000291022
3.77732e-06
0.000290029
3.96541e-06
0.000288989
4.15136e-06
0.000287904
4.33514e-06
0.000286773
4.51671e-06
0.000285597
4.69606e-06
0.000284376
4.87318e-06
0.000283112
5.04802e-06
0.000281805
5.22059e-06
0.000280456
5.39087e-06
0.000279064
5.55884e-06
0.000277631
5.72449e-06
0.000276157
5.88782e-06
0.000274642
6.04881e-06
0.000273088
6.20745e-06
0.000271495
6.36376e-06
0.000269864
6.51771e-06
0.000268195
6.66931e-06
0.000266488
6.81857e-06
0.000264744
6.96547e-06
0.000262965
7.11002e-06
0.00026115
7.25222e-06
0.0002593
7.39208e-06
0.000257415
7.52961e-06
0.000255497
7.66479e-06
0.000253546
7.79766e-06
0.000251562
7.9282e-06
0.000249545
8.05643e-06
0.000247498
8.18236e-06
0.000245419
8.306e-06
0.000243311
8.42736e-06
0.000241172
8.54644e-06
0.000239004
8.66326e-06
0.000236808
8.77783e-06
0.000234583
8.89016e-06
0.000232331
9.00028e-06
0.000230052
9.10818e-06
0.000227747
9.21388e-06
0.000225416
9.31741e-06
0.000223059
9.41877e-06
0.000220678
9.51798e-06
0.000218272
9.61505e-06
0.000215843
9.71001e-06
0.00021339
9.80286e-06
0.000210915
9.89364e-06
0.000208418
9.98234e-06
0.000205899
1.0069e-05
0.000203358
1.01536e-05
0.000200798
1.02363e-05
0.000198217
1.03169e-05
0.000195616
1.03956e-05
0.000192996
1.04723e-05
0.000190358
1.05471e-05
0.000187701
1.062e-05
0.000185027
1.0691e-05
0.000182335
1.07601e-05
0.000179627
1.08274e-05
0.000176902
1.08929e-05
0.000174161
1.09566e-05
0.000171405
1.10185e-05
0.000168634
1.10787e-05
0.000165848
1.11372e-05
0.000163048
1.1194e-05
0.000160235
1.12491e-05
0.000157407
1.13025e-05
0.000154567
1.13544e-05
0.000151715
1.14047e-05
0.00014885
1.14533e-05
0.000145974
1.15005e-05
0.000143086
1.15461e-05
0.000140187
1.15903e-05
0.000137278
1.1633e-05
0.000134358
1.16743e-05
0.000131428
1.17141e-05
0.000128489
1.17526e-05
0.00012554
1.17897e-05
0.000122583
1.18255e-05
0.000119617
1.18601e-05
0.000116642
1.18933e-05
0.00011366
1.19253e-05
0.00011067
1.19561e-05
0.000107672
1.19857e-05
0.000104668
1.20141e-05
0.000101656
1.20414e-05
9.86385e-05
1.20676e-05
9.56144e-05
1.20926e-05
9.25844e-05
1.21167e-05
8.95486e-05
1.21397e-05
8.65073e-05
1.21616e-05
8.34608e-05
1.21826e-05
8.04093e-05
1.22026e-05
7.73531e-05
1.22217e-05
7.42923e-05
1.22398e-05
7.12273e-05
1.2257e-05
6.81582e-05
1.22734e-05
6.50852e-05
1.22889e-05
6.20086e-05
1.23035e-05
5.89286e-05
1.23173e-05
5.58453e-05
1.23303e-05
5.2759e-05
1.23426e-05
4.96698e-05
1.2354e-05
4.6578e-05
1.23647e-05
4.34837e-05
1.23747e-05
4.03871e-05
1.23839e-05
3.72884e-05
1.23924e-05
3.41877e-05
1.24002e-05
3.10853e-05
1.24073e-05
2.79813e-05
1.24138e-05
2.48758e-05
1.24195e-05
2.17691e-05
1.24246e-05
1.86613e-05
1.24291e-05
1.55525e-05
1.24329e-05
1.24429e-05
1.2436e-05
9.33275e-06
1.24385e-05
6.22209e-06
1.24404e-05
3.11112e-06
1.24417e-05
1.24423e-05
3.54498e-06
-1.77188e-05
7.08976e-06
-1.77178e-05
1.06341e-05
-1.77157e-05
1.41779e-05
-1.77127e-05
1.77209e-05
-1.77086e-05
2.12629e-05
-1.77035e-05
2.48036e-05
-1.76973e-05
2.8343e-05
-1.76901e-05
3.18807e-05
-1.76817e-05
3.54165e-05
-1.76723e-05
3.89503e-05
-1.76617e-05
4.24817e-05
-1.76499e-05
4.60106e-05
-1.76369e-05
4.95366e-05
-1.76227e-05
5.30597e-05
-1.76073e-05
5.65794e-05
-1.75905e-05
6.00956e-05
-1.75724e-05
6.36079e-05
-1.75528e-05
6.7116e-05
-1.75319e-05
7.06198e-05
-1.75094e-05
7.41188e-05
-1.74854e-05
7.76127e-05
-1.74598e-05
8.11013e-05
-1.74326e-05
8.45841e-05
-1.74036e-05
8.80609e-05
-1.73729e-05
9.15313e-05
-1.73404e-05
9.49948e-05
-1.7306e-05
9.84511e-05
-1.72696e-05
0.0001019
-1.72312e-05
0.000105341
-1.71907e-05
0.000108773
-1.71481e-05
0.000112196
-1.71032e-05
0.00011561
-1.70561e-05
0.000119015
-1.70066e-05
0.000122409
-1.69546e-05
0.000125792
-1.69001e-05
0.000129164
-1.6843e-05
0.000132523
-1.67833e-05
0.000135871
-1.67208e-05
0.000139206
-1.66556e-05
0.000142527
-1.65874e-05
0.000145834
-1.65162e-05
0.000149126
-1.64421e-05
0.000152402
-1.63648e-05
0.000155663
-1.62843e-05
0.000158907
-1.62006e-05
0.000162134
-1.61136e-05
0.000165343
-1.60232e-05
0.000168533
-1.59293e-05
0.000171704
-1.58318e-05
0.000174854
-1.57308e-05
0.000177984
-1.56262e-05
0.000181092
-1.55178e-05
0.000184178
-1.54057e-05
0.00018724
-1.52897e-05
0.000190279
-1.51699e-05
0.000193293
-1.50462e-05
0.000196281
-1.49185e-05
0.000199244
-1.47868e-05
0.000202179
-1.4651e-05
0.000205086
-1.45112e-05
0.000207964
-1.43672e-05
0.000210813
-1.42192e-05
0.000213631
-1.4067e-05
0.000216418
-1.39106e-05
0.000219174
-1.375e-05
0.000221896
-1.35853e-05
0.000224584
-1.34164e-05
0.000227238
-1.32433e-05
0.000229856
-1.3066e-05
0.000232438
-1.28845e-05
0.000234982
-1.2699e-05
0.000237489
-1.25092e-05
0.000239957
-1.23154e-05
0.000242385
-1.21176e-05
0.000244773
-1.19157e-05
0.00024712
-1.17098e-05
0.000249424
-1.15001e-05
0.000251686
-1.12864e-05
0.000253905
-1.1069e-05
0.000256079
-1.08478e-05
0.000258207
-1.0623e-05
0.000260291
-1.03946e-05
0.000262327
-1.01626e-05
0.000264317
-9.92727e-06
0.000266258
-9.68859e-06
0.000268151
-9.44668e-06
0.000269995
-9.20163e-06
0.000271789
-8.95357e-06
0.000273533
-8.70258e-06
0.000275226
-8.44879e-06
0.000276868
-8.19232e-06
0.000278457
-7.93328e-06
0.000279995
-7.67179e-06
0.000281479
-7.40799e-06
0.00028291
-7.142e-06
0.000284287
-6.87395e-06
0.00028561
-6.60398e-06
0.000286878
-6.33222e-06
0.000288092
-6.05881e-06
0.00028925
-5.78389e-06
0.000290353
-5.5076e-06
0.0002914
-5.23007e-06
0.000292392
-4.95146e-06
0.000293327
-4.67189e-06
0.000294206
-4.39152e-06
0.000295029
-4.11048e-06
0.000295795
-3.82891e-06
0.000296505
-3.54696e-06
0.000297158
-3.26476e-06
0.000297754
-2.98245e-06
0.000298294
-2.70016e-06
0.000298778
-2.41804e-06
0.000299204
-2.1362e-06
0.000299575
-1.85479e-06
0.000299889
-1.57392e-06
0.000300146
-1.29373e-06
0.000300348
-1.01434e-06
0.000300494
-7.35862e-07
0.000300584
-4.58416e-07
0.000300619
-1.82114e-07
0.000300599
9.29318e-08
0.000300524
3.66617e-07
0.000300394
6.38838e-07
0.000300211
9.09495e-07
0.000299973
1.17849e-06
0.000299681
1.44574e-06
0.000299337
1.71115e-06
0.00029894
1.97463e-06
0.00029849
2.23611e-06
0.000297988
2.49551e-06
0.000297435
2.75276e-06
0.000296831
3.00778e-06
0.000296176
3.26051e-06
0.000295471
3.51089e-06
0.000294716
3.75886e-06
0.000293912
4.00437e-06
0.00029306
4.24736e-06
0.000292159
4.48779e-06
0.000291211
4.72561e-06
0.000290215
4.96079e-06
0.000289173
5.19327e-06
0.000288085
5.42304e-06
0.000286952
5.65005e-06
0.000285774
5.87429e-06
0.000284551
6.09571e-06
0.000283285
6.3143e-06
0.000281976
6.53004e-06
0.000280624
6.74291e-06
0.000279229
6.95289e-06
0.000277794
7.15998e-06
0.000276318
7.36415e-06
0.000274801
7.5654e-06
0.000273245
7.76372e-06
0.000271649
7.9591e-06
0.000270016
8.15155e-06
0.000268344
8.34105e-06
0.000266635
8.52762e-06
0.000264889
8.71124e-06
0.000263107
8.89192e-06
0.00026129
9.06967e-06
0.000259437
9.24449e-06
0.000257551
9.41638e-06
0.00025563
9.58536e-06
0.000253676
9.75142e-06
0.00025169
9.91459e-06
0.000249671
1.00749e-05
0.000247621
1.02323e-05
0.000245541
1.03868e-05
0.00024343
1.05385e-05
0.000241289
1.06873e-05
0.000239119
1.08333e-05
0.00023692
1.09765e-05
0.000234693
1.11169e-05
0.000232439
1.12545e-05
0.000230158
1.13893e-05
0.00022785
1.15214e-05
0.000225517