/*--------------------------------*- C++ -*----------------------------------*\
| =========                 |                                                 |
| \\      /  F ield         | OpenFOAM: The Open Source CFD Toolbox           |
|  \\    /   O peration     | Version:  v2012                                 |
|   \\  /    A nd           | Website:  www.openfoam.com                      |
|    \\/     M anipulation  |                                                 |
\*---------------------------------------------------------------------------*/
FoamFile
{
    version     2.0;
    format      ascii;
    class       volVectorField;
    location    "3.25";
    object      U;
}
// * * * * * * * * * * * * * * * * * * * * * * * * * * * * * * * * * * * * * //

dimensions      [0 1 -1 0 0 0 0];


internalField   nonuniform List<vector> 
65536
(
(0.000721773 -0.000721752 0)
(0.00216528 -0.00072171 0)
(0.00360865 -0.000721626 0)
(0.00505182 -0.000721501 0)
(0.0064947 -0.000721332 0)
(0.00793719 -0.000721121 0)
(0.00937922 -0.000720867 0)
(0.0108207 -0.000720568 0)
(0.0122615 -0.000720224 0)
(0.0137016 -0.000719835 0)
(0.0151409 -0.000719398 0)
(0.0165793 -0.000718913 0)
(0.0180166 -0.000718379 0)
(0.0194528 -0.000717794 0)
(0.0208879 -0.000717157 0)
(0.0223215 -0.000716466 0)
(0.0237538 -0.00071572 0)
(0.0251845 -0.000714916 0)
(0.0266135 -0.000714053 0)
(0.0280407 -0.00071313 0)
(0.0294661 -0.000712143 0)
(0.0308894 -0.000711091 0)
(0.0323105 -0.000709971 0)
(0.0337293 -0.000708782 0)
(0.0351457 -0.00070752 0)
(0.0365595 -0.000706184 0)
(0.0379705 -0.00070477 0)
(0.0393786 -0.000703277 0)
(0.0407837 -0.000701701 0)
(0.0421855 -0.00070004 0)
(0.0435839 -0.000698291 0)
(0.0449788 -0.000696451 0)
(0.0463698 -0.000694517 0)
(0.0477569 -0.000692487 0)
(0.0491399 -0.000690357 0)
(0.0505185 -0.000688124 0)
(0.0518925 -0.000685786 0)
(0.0532617 -0.00068334 0)
(0.054626 -0.000680782 0)
(0.055985 -0.000678109 0)
(0.0573385 -0.000675318 0)
(0.0586864 -0.000672407 0)
(0.0600283 -0.000669373 0)
(0.061364 -0.000666212 0)
(0.0626932 -0.000662921 0)
(0.0640158 -0.000659498 0)
(0.0653314 -0.00065594 0)
(0.0666397 -0.000652244 0)
(0.0679405 -0.000648407 0)
(0.0692335 -0.000644427 0)
(0.0705183 -0.000640301 0)
(0.0717948 -0.000636027 0)
(0.0730626 -0.000631602 0)
(0.0743214 -0.000627024 0)
(0.0755708 -0.000622291 0)
(0.0768107 -0.000617401 0)
(0.0780406 -0.000612352 0)
(0.0792603 -0.000607142 0)
(0.0804693 -0.000601769 0)
(0.0816675 -0.000596232 0)
(0.0828544 -0.00059053 0)
(0.0840298 -0.000584662 0)
(0.0851932 -0.000578626 0)
(0.0863445 -0.000572421 0)
(0.0874831 -0.000566048 0)
(0.0886088 -0.000559506 0)
(0.0897213 -0.000552793 0)
(0.0908202 -0.000545911 0)
(0.0919051 -0.000538859 0)
(0.0929758 -0.000531639 0)
(0.0940318 -0.000524249 0)
(0.0950729 -0.000516691 0)
(0.0960988 -0.000508967 0)
(0.097109 -0.000501076 0)
(0.0981032 -0.000493022 0)
(0.0990812 -0.000484804 0)
(0.100043 -0.000476426 0)
(0.100987 -0.000467889 0)
(0.101914 -0.000459195 0)
(0.102824 -0.000450347 0)
(0.103716 -0.000441348 0)
(0.10459 -0.000432201 0)
(0.105445 -0.000422908 0)
(0.106281 -0.000413473 0)
(0.107099 -0.0004039 0)
(0.107897 -0.000394191 0)
(0.108676 -0.000384352 0)
(0.109435 -0.000374386 0)
(0.110173 -0.000364298 0)
(0.110892 -0.000354091 0)
(0.11159 -0.000343771 0)
(0.112267 -0.000333342 0)
(0.112923 -0.000322809 0)
(0.113558 -0.000312177 0)
(0.114172 -0.000301451 0)
(0.114764 -0.000290636 0)
(0.115335 -0.000279738 0)
(0.115883 -0.000268762 0)
(0.11641 -0.000257713 0)
(0.116914 -0.000246597 0)
(0.117396 -0.00023542 0)
(0.117856 -0.000224187 0)
(0.118293 -0.000212903 0)
(0.118708 -0.000201576 0)
(0.119099 -0.00019021 0)
(0.119469 -0.000178811 0)
(0.119815 -0.000167384 0)
(0.120138 -0.000155936 0)
(0.120439 -0.000144472 0)
(0.120716 -0.000132998 0)
(0.120971 -0.000121519 0)
(0.121202 -0.000110041 0)
(0.121411 -9.85686e-05 0)
(0.121596 -8.71081e-05 0)
(0.121759 -7.56642e-05 0)
(0.121899 -6.42423e-05 0)
(0.122016 -5.28474e-05 0)
(0.12211 -4.14845e-05 0)
(0.122182 -3.01583e-05 0)
(0.122231 -1.88737e-05 0)
(0.122257 -7.6351e-06 0)
(0.122261 3.55292e-06 0)
(0.122243 1.46861e-05 0)
(0.122203 2.57602e-05 0)
(0.12214 3.67713e-05 0)
(0.122055 4.77153e-05 0)
(0.121949 5.85887e-05 0)
(0.121821 6.93878e-05 0)
(0.121671 8.01092e-05 0)
(0.121501 9.07495e-05 0)
(0.121308 0.000101306 0)
(0.121095 0.000111775 0)
(0.120861 0.000122154 0)
(0.120607 0.00013244 0)
(0.120331 0.000142632 0)
(0.120036 0.000152726 0)
(0.11972 0.000162719 0)
(0.119385 0.000172612 0)
(0.11903 0.0001824 0)
(0.118655 0.000192082 0)
(0.118261 0.000201658 0)
(0.117848 0.000211124 0)
(0.117417 0.00022048 0)
(0.116966 0.000229724 0)
(0.116498 0.000238856 0)
(0.116011 0.000247873 0)
(0.115506 0.000256776 0)
(0.114984 0.000265562 0)
(0.114444 0.000274233 0)
(0.113887 0.000282786 0)
(0.113313 0.000291221 0)
(0.112722 0.000299538 0)
(0.112114 0.000307736 0)
(0.111491 0.000315815 0)
(0.110851 0.000323775 0)
(0.110195 0.000331616 0)
(0.109524 0.000339337 0)
(0.108838 0.000346938 0)
(0.108136 0.00035442 0)
(0.10742 0.000361782 0)
(0.106689 0.000369025 0)
(0.105944 0.000376149 0)
(0.105184 0.000383154 0)
(0.104411 0.00039004 0)
(0.103624 0.000396807 0)
(0.102824 0.000403457 0)
(0.10201 0.000409989 0)
(0.101184 0.000416404 0)
(0.100345 0.000422702 0)
(0.0994928 0.000428884 0)
(0.0986289 0.00043495 0)
(0.0977529 0.000440902 0)
(0.0968651 0.000446738 0)
(0.0959658 0.000452461 0)
(0.0950552 0.000458071 0)
(0.0941334 0.000463569 0)
(0.0932008 0.000468954 0)
(0.0922575 0.000474229 0)
(0.0913038 0.000479393 0)
(0.0903398 0.000484448 0)
(0.0893659 0.000489394 0)
(0.0883821 0.000494233 0)
(0.0873888 0.000498964 0)
(0.0863862 0.00050359 0)
(0.0853744 0.00050811 0)
(0.0843536 0.000512527 0)
(0.0833242 0.00051684 0)
(0.0822862 0.00052105 0)
(0.0812398 0.00052516 0)
(0.0801854 0.000529169 0)
(0.0791231 0.00053308 0)
(0.078053 0.000536892 0)
(0.0769754 0.000540607 0)
(0.0758905 0.000544226 0)
(0.0747984 0.000547751 0)
(0.0736994 0.000551182 0)
(0.0725936 0.000554521 0)
(0.0714812 0.000557768 0)
(0.0703624 0.000560926 0)
(0.0692374 0.000563994 0)
(0.0681064 0.000566976 0)
(0.0669694 0.000569871 0)
(0.0658268 0.000572681 0)
(0.0646786 0.000575408 0)
(0.0635251 0.000578052 0)
(0.0623663 0.000580615 0)
(0.0612025 0.000583099 0)
(0.0600339 0.000585504 0)
(0.0588604 0.000587832 0)
(0.0576825 0.000590085 0)
(0.0565 0.000592263 0)
(0.0553133 0.000594368 0)
(0.0541225 0.000596402 0)
(0.0529277 0.000598366 0)
(0.051729 0.000600261 0)
(0.0505265 0.000602088 0)
(0.0493205 0.00060385 0)
(0.0481111 0.000605547 0)
(0.0468983 0.00060718 0)
(0.0456823 0.000608751 0)
(0.0444632 0.000610262 0)
(0.0432412 0.000611713 0)
(0.0420163 0.000613107 0)
(0.0407887 0.000614443 0)
(0.0395585 0.000615724 0)
(0.0383258 0.000616951 0)
(0.0370906 0.000618125 0)
(0.0358532 0.000619247 0)
(0.0346136 0.000620318 0)
(0.0333719 0.000621341 0)
(0.0321282 0.000622314 0)
(0.0308826 0.000623241 0)
(0.0296352 0.000624121 0)
(0.028386 0.000624957 0)
(0.0271353 0.000625748 0)
(0.025883 0.000626497 0)
(0.0246293 0.000627203 0)
(0.0233741 0.000627868 0)
(0.0221177 0.000628493 0)
(0.0208601 0.000629078 0)
(0.0196014 0.000629625 0)
(0.0183416 0.000630134 0)
(0.0170808 0.000630606 0)
(0.0158191 0.000631041 0)
(0.0145566 0.00063144 0)
(0.0132933 0.000631804 0)
(0.0120294 0.000632133 0)
(0.0107648 0.000632427 0)
(0.00949962 0.000632688 0)
(0.00823399 0.000632915 0)
(0.00696793 0.00063311 0)
(0.00570151 0.000633271 0)
(0.00443481 0.0006334 0)
(0.00316788 0.000633496 0)
(0.00190079 0.00063356 0)
(0.000633608 0.000633592 0)
(0.000721814 -0.0021653 0)
(0.0021654 -0.00216517 0)
(0.00360886 -0.00216492 0)
(0.00505211 -0.00216454 0)
(0.00649507 -0.00216404 0)
(0.00793765 -0.00216341 0)
(0.00937977 -0.00216264 0)
(0.0108213 -0.00216175 0)
(0.0122623 -0.00216072 0)
(0.0137025 -0.00215955 0)
(0.0151418 -0.00215824 0)
(0.0165803 -0.00215679 0)
(0.0180177 -0.00215519 0)
(0.0194541 -0.00215343 0)
(0.0208892 -0.00215152 0)
(0.022323 -0.00214945 0)
(0.0237553 -0.00214721 0)
(0.0251861 -0.00214481 0)
(0.0266153 -0.00214222 0)
(0.0280426 -0.00213945 0)
(0.0294681 -0.00213649 0)
(0.0308915 -0.00213334 0)
(0.0323128 -0.00212998 0)
(0.0337318 -0.00212642 0)
(0.0351483 -0.00212263 0)
(0.0365622 -0.00211863 0)
(0.0379734 -0.00211439 0)
(0.0393817 -0.00210991 0)
(0.0407869 -0.00210519 0)
(0.0421889 -0.00210021 0)
(0.0435875 -0.00209496 0)
(0.0449825 -0.00208944 0)
(0.0463738 -0.00208365 0)
(0.0477611 -0.00207756 0)
(0.0491442 -0.00207117 0)
(0.050523 -0.00206448 0)
(0.0518972 -0.00205747 0)
(0.0532667 -0.00205013 0)
(0.0546312 -0.00204246 0)
(0.0559904 -0.00203444 0)
(0.0573442 -0.00202607 0)
(0.0586923 -0.00201734 0)
(0.0600344 -0.00200824 0)
(0.0613704 -0.00199876 0)
(0.0626999 -0.00198889 0)
(0.0640227 -0.00197863 0)
(0.0653386 -0.00196796 0)
(0.0666472 -0.00195687 0)
(0.0679483 -0.00194536 0)
(0.0692415 -0.00193343 0)
(0.0705267 -0.00192105 0)
(0.0718035 -0.00190823 0)
(0.0730716 -0.00189496 0)
(0.0743306 -0.00188123 0)
(0.0755804 -0.00186703 0)
(0.0768206 -0.00185236 0)
(0.0780508 -0.00183722 0)
(0.0792708 -0.00182159 0)
(0.0804802 -0.00180547 0)
(0.0816787 -0.00178886 0)
(0.082866 -0.00177176 0)
(0.0840417 -0.00175415 0)
(0.0852054 -0.00173604 0)
(0.086357 -0.00171743 0)
(0.087496 -0.00169831 0)
(0.088622 -0.00167869 0)
(0.0897348 -0.00165855 0)
(0.0908341 -0.0016379 0)
(0.0919193 -0.00161675 0)
(0.0929903 -0.00159508 0)
(0.0940467 -0.00157291 0)
(0.0950882 -0.00155024 0)
(0.0961143 -0.00152707 0)
(0.0971249 -0.00150339 0)
(0.0981195 -0.00147923 0)
(0.0990978 -0.00145457 0)
(0.100059 -0.00142944 0)
(0.101004 -0.00140382 0)
(0.101932 -0.00137774 0)
(0.102842 -0.00135119 0)
(0.103734 -0.00132419 0)
(0.104608 -0.00129675 0)
(0.105463 -0.00126887 0)
(0.1063 -0.00124056 0)
(0.107118 -0.00121183 0)
(0.107917 -0.00118271 0)
(0.108695 -0.00115318 0)
(0.109455 -0.00112328 0)
(0.110194 -0.00109301 0)
(0.110912 -0.00106239 0)
(0.111611 -0.00103142 0)
(0.112288 -0.00100013 0)
(0.112944 -0.000968527 0)
(0.11358 -0.000936625 0)
(0.114194 -0.000904442 0)
(0.114786 -0.000871992 0)
(0.115357 -0.000839292 0)
(0.115905 -0.000806358 0)
(0.116432 -0.000773206 0)
(0.116937 -0.000739853 0)
(0.117419 -0.000706315 0)
(0.117878 -0.00067261 0)
(0.118316 -0.000638755 0)
(0.11873 -0.000604767 0)
(0.119122 -0.000570663 0)
(0.119491 -0.00053646 0)
(0.119838 -0.000502175 0)
(0.120161 -0.000467825 0)
(0.120461 -0.000433428 0)
(0.120739 -0.000399 0)
(0.120993 -0.000364557 0)
(0.121225 -0.000330117 0)
(0.121434 -0.000295696 0)
(0.121619 -0.000261309 0)
(0.121782 -0.000226972 0)
(0.121922 -0.000192701 0)
(0.122039 -0.000158512 0)
(0.122133 -0.000124418 0)
(0.122205 -9.04348e-05 0)
(0.122253 -5.65762e-05 0)
(0.12228 -2.28561e-05 0)
(0.122284 1.07123e-05 0)
(0.122265 4.41159e-05 0)
(0.122225 7.73423e-05 0)
(0.122162 0.000110379 0)
(0.122077 0.000143215 0)
(0.121971 0.000175839 0)
(0.121843 0.00020824 0)
(0.121693 0.000240407 0)
(0.121522 0.000272331 0)
(0.121329 0.000304003 0)
(0.121116 0.000335413 0)
(0.120882 0.000366553 0)
(0.120627 0.000397415 0)
(0.120352 0.000427991 0)
(0.120056 0.000458275 0)
(0.11974 0.000488259 0)
(0.119405 0.000517937 0)
(0.119049 0.000547304 0)
(0.118674 0.000576353 0)
(0.11828 0.00060508 0)
(0.117867 0.000633481 0)
(0.117435 0.00066155 0)
(0.116985 0.000689284 0)
(0.116516 0.000716679 0)
(0.116029 0.000743733 0)
(0.115524 0.000770441 0)
(0.115001 0.000796802 0)
(0.114461 0.000822814 0)
(0.113904 0.000848474 0)
(0.113329 0.00087378 0)
(0.112738 0.000898731 0)
(0.112131 0.000923326 0)
(0.111507 0.000947564 0)
(0.110867 0.000971444 0)
(0.110211 0.000994966 0)
(0.10954 0.00101813 0)
(0.108853 0.00104093 0)
(0.108151 0.00106338 0)
(0.107435 0.00108546 0)
(0.106704 0.00110719 0)
(0.105958 0.00112856 0)
(0.105198 0.00114958 0)
(0.104425 0.00117024 0)
(0.103638 0.00119054 0)
(0.102837 0.00121049 0)
(0.102023 0.00123008 0)
(0.101196 0.00124933 0)
(0.100357 0.00126822 0)
(0.0995051 0.00128677 0)
(0.0986409 0.00130497 0)
(0.0977647 0.00132282 0)
(0.0968767 0.00134033 0)
(0.0959772 0.0013575 0)
(0.0950663 0.00137433 0)
(0.0941443 0.00139082 0)
(0.0932115 0.00140697 0)
(0.0922679 0.0014228 0)
(0.091314 0.00143829 0)
(0.0903498 0.00145345 0)
(0.0893757 0.00146829 0)
(0.0883917 0.0014828 0)
(0.0873982 0.001497 0)
(0.0863953 0.00151087 0)
(0.0853833 0.00152443 0)
(0.0843624 0.00153768 0)
(0.0833327 0.00155062 0)
(0.0822945 0.00156325 0)
(0.081248 0.00157558 0)
(0.0801934 0.00158761 0)
(0.0791308 0.00159934 0)
(0.0780605 0.00161077 0)
(0.0769828 0.00162192 0)
(0.0758976 0.00163277 0)
(0.0748054 0.00164335 0)
(0.0737062 0.00165364 0)
(0.0726002 0.00166365 0)
(0.0714876 0.00167339 0)
(0.0703687 0.00168287 0)
(0.0692435 0.00169207 0)
(0.0681123 0.00170101 0)
(0.0669752 0.0017097 0)
(0.0658323 0.00171813 0)
(0.064684 0.00172631 0)
(0.0635303 0.00173424 0)
(0.0623714 0.00174193 0)
(0.0612074 0.00174937 0)
(0.0600386 0.00175659 0)
(0.058865 0.00176357 0)
(0.0576869 0.00177033 0)
(0.0565043 0.00177686 0)
(0.0553175 0.00178318 0)
(0.0541265 0.00178928 0)
(0.0529315 0.00179517 0)
(0.0517327 0.00180085 0)
(0.0505301 0.00180633 0)
(0.049324 0.00181161 0)
(0.0481144 0.0018167 0)
(0.0469015 0.0018216 0)
(0.0456854 0.00182632 0)
(0.0444662 0.00183085 0)
(0.043244 0.0018352 0)
(0.042019 0.00183938 0)
(0.0407913 0.00184339 0)
(0.039561 0.00184723 0)
(0.0383282 0.00185091 0)
(0.0370929 0.00185443 0)
(0.0358554 0.00185779 0)
(0.0346157 0.00186101 0)
(0.0333739 0.00186407 0)
(0.0321301 0.00186699 0)
(0.0308844 0.00186977 0)
(0.0296369 0.00187241 0)
(0.0283877 0.00187492 0)
(0.0271368 0.00187729 0)
(0.0258845 0.00187953 0)
(0.0246306 0.00188165 0)
(0.0233754 0.00188365 0)
(0.022119 0.00188552 0)
(0.0208613 0.00188727 0)
(0.0196025 0.00188891 0)
(0.0183426 0.00189044 0)
(0.0170817 0.00189185 0)
(0.01582 0.00189316 0)
(0.0145574 0.00189436 0)
(0.013294 0.00189545 0)
(0.01203 0.00189643 0)
(0.0107653 0.00189732 0)
(0.00950011 0.0018981 0)
(0.00823441 0.00189878 0)
(0.00696829 0.00189936 0)
(0.00570181 0.00189985 0)
(0.00443504 0.00190023 0)
(0.00316804 0.00190052 0)
(0.00190089 0.00190071 0)
(0.000633641 0.00190081 0)
(0.000721897 -0.00360897 0)
(0.00216565 -0.00360876 0)
(0.00360928 -0.00360834 0)
(0.0050527 -0.00360771 0)
(0.00649583 -0.00360687 0)
(0.00793858 -0.00360582 0)
(0.00938088 -0.00360455 0)
(0.0108226 -0.00360306 0)
(0.0122637 -0.00360135 0)
(0.0137041 -0.0035994 0)
(0.0151437 -0.00359723 0)
(0.0165823 -0.00359481 0)
(0.01802 -0.00359215 0)
(0.0194565 -0.00358923 0)
(0.0208918 -0.00358605 0)
(0.0223258 -0.0035826 0)
(0.0237584 -0.00357888 0)
(0.0251894 -0.00357487 0)
(0.0266188 -0.00357057 0)
(0.0280465 -0.00356596 0)
(0.0294722 -0.00356104 0)
(0.0308959 -0.00355579 0)
(0.0323174 -0.0035502 0)
(0.0337367 -0.00354427 0)
(0.0351535 -0.00353797 0)
(0.0365677 -0.0035313 0)
(0.0379792 -0.00352425 0)
(0.0393878 -0.00351679 0)
(0.0407934 -0.00350893 0)
(0.0421957 -0.00350064 0)
(0.0435947 -0.00349191 0)
(0.0449901 -0.00348272 0)
(0.0463817 -0.00347307 0)
(0.0477694 -0.00346293 0)
(0.0491529 -0.00345229 0)
(0.0505322 -0.00344115 0)
(0.0519068 -0.00342947 0)
(0.0532767 -0.00341725 0)
(0.0546416 -0.00340448 0)
(0.0560013 -0.00339113 0)
(0.0573556 -0.00337719 0)
(0.0587042 -0.00336265 0)
(0.0600468 -0.00334749 0)
(0.0613833 -0.0033317 0)
(0.0627133 -0.00331527 0)
(0.0640367 -0.00329817 0)
(0.0653531 -0.00328039 0)
(0.0666623 -0.00326192 0)
(0.0679639 -0.00324275 0)
(0.0692577 -0.00322286 0)
(0.0705435 -0.00320225 0)
(0.0718209 -0.00318089 0)
(0.0730896 -0.00315877 0)
(0.0743493 -0.0031359 0)
(0.0755997 -0.00311224 0)
(0.0768405 -0.0030878 0)
(0.0780714 -0.00306256 0)
(0.079292 -0.00303652 0)
(0.080502 -0.00300966 0)
(0.0817012 -0.00298199 0)
(0.0828891 -0.00295348 0)
(0.0840655 -0.00292414 0)
(0.0852299 -0.00289397 0)
(0.0863822 -0.00286295 0)
(0.0875218 -0.00283109 0)
(0.0886486 -0.00279837 0)
(0.089762 -0.00276481 0)
(0.0908619 -0.0027304 0)
(0.0919479 -0.00269514 0)
(0.0930196 -0.00265904 0)
(0.0940766 -0.00262208 0)
(0.0951188 -0.00258429 0)
(0.0961456 -0.00254566 0)
(0.0971568 -0.0025062 0)
(0.098152 -0.00246592 0)
(0.099131 -0.00242483 0)
(0.100093 -0.00238292 0)
(0.101039 -0.00234023 0)
(0.101967 -0.00229675 0)
(0.102878 -0.00225249 0)
(0.10377 -0.00220748 0)
(0.104645 -0.00216173 0)
(0.105501 -0.00211525 0)
(0.106338 -0.00206806 0)
(0.107157 -0.00202017 0)
(0.107956 -0.00197161 0)
(0.108735 -0.0019224 0)
(0.109495 -0.00187255 0)
(0.110234 -0.00182208 0)
(0.110953 -0.00177103 0)
(0.111652 -0.0017194 0)
(0.11233 -0.00166723 0)
(0.112987 -0.00161454 0)
(0.113623 -0.00156136 0)
(0.114237 -0.0015077 0)
(0.114829 -0.0014536 0)
(0.1154 -0.00139908 0)
(0.115949 -0.00134417 0)
(0.116476 -0.0012889 0)
(0.116981 -0.00123329 0)
(0.117464 -0.00117738 0)
(0.117924 -0.00112118 0)
(0.118361 -0.00106474 0)
(0.118776 -0.00100807 0)
(0.119168 -0.000951215 0)
(0.119537 -0.000894191 0)
(0.119883 -0.00083703 0)
(0.120207 -0.000779762 0)
(0.120507 -0.000722415 0)
(0.120785 -0.000665016 0)
(0.121039 -0.000607593 0)
(0.121271 -0.000550175 0)
(0.121479 -0.000492788 0)
(0.121665 -0.000435459 0)
(0.121828 -0.000378214 0)
(0.121967 -0.000321079 0)
(0.122084 -0.00026408 0)
(0.122178 -0.000207241 0)
(0.12225 -0.000150587 0)
(0.122299 -9.41403e-05 0)
(0.122325 -3.79253e-05 0)
(0.122328 1.80364e-05 0)
(0.12231 7.37231e-05 0)
(0.122269 0.000129114 0)
(0.122206 0.000184188 0)
(0.122121 0.000238928 0)
(0.122014 0.000293312 0)
(0.121886 0.000347325 0)
(0.121736 0.000400948 0)
(0.121564 0.000454166 0)
(0.121371 0.000506962 0)
(0.121158 0.000559321 0)
(0.120923 0.00061123 0)
(0.120668 0.000662675 0)
(0.120392 0.000713644 0)
(0.120096 0.000764124 0)
(0.11978 0.000814104 0)
(0.119444 0.000863574 0)
(0.119088 0.000912525 0)
(0.118713 0.000960946 0)
(0.118318 0.00100883 0)
(0.117905 0.00105617 0)
(0.117473 0.00110295 0)
(0.117022 0.00114918 0)
(0.116552 0.00119484 0)
(0.116065 0.00123994 0)
(0.115559 0.00128445 0)
(0.115036 0.00132839 0)
(0.114495 0.00137175 0)
(0.113938 0.00141451 0)
(0.113363 0.00145669 0)
(0.112771 0.00149828 0)
(0.112163 0.00153927 0)
(0.111539 0.00157967 0)
(0.110898 0.00161947 0)
(0.110242 0.00165867 0)
(0.10957 0.00169728 0)
(0.108883 0.00173529 0)
(0.108181 0.0017727 0)
(0.107464 0.00180951 0)
(0.106732 0.00184572 0)
(0.105986 0.00188134 0)
(0.105226 0.00191636 0)
(0.104452 0.00195079 0)
(0.103664 0.00198462 0)
(0.102863 0.00201787 0)
(0.102049 0.00205053 0)
(0.101222 0.0020826 0)
(0.100382 0.00211409 0)
(0.0995295 0.002145 0)
(0.0986649 0.00217533 0)
(0.0977883 0.00220508 0)
(0.0968998 0.00223426 0)
(0.0959998 0.00226287 0)
(0.0950885 0.00229092 0)
(0.0941661 0.0023184 0)
(0.0932328 0.00234532 0)
(0.0922888 0.00237169 0)
(0.0913344 0.00239751 0)
(0.0903698 0.00242278 0)
(0.0893952 0.00244751 0)
(0.0884108 0.0024717 0)
(0.0874169 0.00249535 0)
(0.0864136 0.00251847 0)
(0.0854012 0.00254107 0)
(0.0843798 0.00256315 0)
(0.0833497 0.00258471 0)
(0.0823111 0.00260576 0)
(0.0812642 0.0026263 0)
(0.0802092 0.00264634 0)
(0.0791462 0.00266589 0)
(0.0780756 0.00268494 0)
(0.0769974 0.00270351 0)
(0.0759119 0.0027216 0)
(0.0748193 0.00273922 0)
(0.0737197 0.00275637 0)
(0.0726134 0.00277306 0)
(0.0715004 0.00278929 0)
(0.0703811 0.00280507 0)
(0.0692556 0.00282041 0)
(0.068124 0.00283531 0)
(0.0669866 0.00284978 0)
(0.0658434 0.00286382 0)
(0.0646947 0.00287745 0)
(0.0635407 0.00289066 0)
(0.0623815 0.00290347 0)
(0.0612172 0.00291589 0)
(0.0600481 0.0029279 0)
(0.0588742 0.00293954 0)
(0.0576958 0.0029508 0)
(0.0565129 0.00296168 0)
(0.0553258 0.0029722 0)
(0.0541345 0.00298236 0)
(0.0529392 0.00299217 0)
(0.0517401 0.00300164 0)
(0.0505373 0.00301077 0)
(0.0493309 0.00301957 0)
(0.0481211 0.00302805 0)
(0.0469079 0.00303621 0)
(0.0456915 0.00304406 0)
(0.0444721 0.00305161 0)
(0.0432497 0.00305886 0)
(0.0420245 0.00306582 0)
(0.0407966 0.00307249 0)
(0.039566 0.00307889 0)
(0.038333 0.00308502 0)
(0.0370975 0.00309088 0)
(0.0358598 0.00309649 0)
(0.0346199 0.00310184 0)
(0.0333779 0.00310695 0)
(0.0321339 0.00311181 0)
(0.030888 0.00311644 0)
(0.0296403 0.00312083 0)
(0.0283909 0.00312501 0)
(0.0271399 0.00312896 0)
(0.0258874 0.0031327 0)
(0.0246334 0.00313622 0)
(0.023378 0.00313954 0)
(0.0221214 0.00314266 0)
(0.0208635 0.00314559 0)
(0.0196046 0.00314832 0)
(0.0183445 0.00315086 0)
(0.0170835 0.00315321 0)
(0.0158216 0.00315538 0)
(0.0145589 0.00315738 0)
(0.0132954 0.00315919 0)
(0.0120312 0.00316084 0)
(0.0107664 0.00316231 0)
(0.00950109 0.00316361 0)
(0.00823525 0.00316474 0)
(0.006969 0.00316571 0)
(0.00570239 0.00316652 0)
(0.00443549 0.00316716 0)
(0.00316836 0.00316764 0)
(0.00190108 0.00316796 0)
(0.000633705 0.00316812 0)
(0.000722022 -0.00505284 0)
(0.00216602 -0.00505255 0)
(0.0036099 -0.00505197 0)
(0.00505358 -0.00505109 0)
(0.00649696 -0.00504992 0)
(0.00793998 -0.00504845 0)
(0.00938253 -0.00504668 0)
(0.0108245 -0.0050446 0)
(0.0122659 -0.00504221 0)
(0.0137066 -0.0050395 0)
(0.0151464 -0.00503645 0)
(0.0165854 -0.00503308 0)
(0.0180233 -0.00502936 0)
(0.0194602 -0.00502528 0)
(0.0208958 -0.00502085 0)
(0.0223301 -0.00501603 0)
(0.023763 -0.00501083 0)
(0.0251944 -0.00500524 0)
(0.0266242 -0.00499923 0)
(0.0280522 -0.00499279 0)
(0.0294783 -0.00498591 0)
(0.0309024 -0.00497858 0)
(0.0323243 -0.00497077 0)
(0.033744 -0.00496248 0)
(0.0351612 -0.00495368 0)
(0.0365759 -0.00494436 0)
(0.0379879 -0.00493451 0)
(0.039397 -0.00492409 0)
(0.0408031 -0.0049131 0)
(0.0422059 -0.00490151 0)
(0.0436054 -0.0048893 0)
(0.0450014 -0.00487646 0)
(0.0463936 -0.00486297 0)
(0.0477819 -0.0048488 0)
(0.049166 -0.00483393 0)
(0.0505458 -0.00481834 0)
(0.0519211 -0.00480202 0)
(0.0532917 -0.00478494 0)
(0.0546573 -0.00476707 0)
(0.0560177 -0.00474841 0)
(0.0573727 -0.00472891 0)
(0.058722 -0.00470858 0)
(0.0600654 -0.00468738 0)
(0.0614026 -0.00466529 0)
(0.0627335 -0.0046423 0)
(0.0640576 -0.00461838 0)
(0.0653748 -0.00459351 0)
(0.0666848 -0.00456768 0)
(0.0679873 -0.00454086 0)
(0.0692821 -0.00451303 0)
(0.0705687 -0.00448418 0)
(0.071847 -0.0044543 0)
(0.0731166 -0.00442336 0)
(0.0743772 -0.00439134 0)
(0.0756286 -0.00435824 0)
(0.0768703 -0.00432403 0)
(0.0781021 -0.00428871 0)
(0.0793237 -0.00425226 0)
(0.0805348 -0.00421468 0)
(0.0817349 -0.00417594 0)
(0.0829238 -0.00413604 0)
(0.0841012 -0.00409498 0)
(0.0852667 -0.00405274 0)
(0.0864199 -0.00400931 0)
(0.0875606 -0.00396471 0)
(0.0886883 -0.00391891 0)
(0.0898029 -0.00387193 0)
(0.0909038 -0.00382375 0)
(0.0919907 -0.00377439 0)
(0.0930634 -0.00372383 0)
(0.0941215 -0.00367209 0)
(0.0951646 -0.00361918 0)
(0.0961925 -0.00356509 0)
(0.0972047 -0.00350984 0)
(0.0982009 -0.00345343 0)
(0.0991808 -0.00339588 0)
(0.100144 -0.00333721 0)
(0.10109 -0.00327741 0)
(0.10202 -0.00321652 0)
(0.102931 -0.00315455 0)
(0.103825 -0.00309152 0)
(0.1047 -0.00302744 0)
(0.105557 -0.00296234 0)
(0.106395 -0.00289625 0)
(0.107215 -0.00282919 0)
(0.108014 -0.00276117 0)
(0.108795 -0.00269224 0)
(0.109555 -0.00262242 0)
(0.110295 -0.00255174 0)
(0.111015 -0.00248023 0)
(0.111714 -0.00240793 0)
(0.112393 -0.00233485 0)
(0.11305 -0.00226105 0)
(0.113687 -0.00218656 0)
(0.114301 -0.0021114 0)
(0.114895 -0.00203562 0)
(0.115466 -0.00195926 0)
(0.116016 -0.00188235 0)
(0.116543 -0.00180493 0)
(0.117048 -0.00172704 0)
(0.117531 -0.00164872 0)
(0.117991 -0.00157001 0)
(0.118429 -0.00149095 0)
(0.118844 -0.00141157 0)
(0.119236 -0.00133193 0)
(0.119606 -0.00125206 0)
(0.119952 -0.00117199 0)
(0.120276 -0.00109178 0)
(0.120576 -0.00101145 0)
(0.120854 -0.000931055 0)
(0.121108 -0.000850625 0)
(0.12134 -0.000770201 0)
(0.121548 -0.000689822 0)
(0.121734 -0.000609524 0)
(0.121896 -0.000529345 0)
(0.122036 -0.000449321 0)
(0.122153 -0.000369487 0)
(0.122247 -0.000289879 0)
(0.122318 -0.00021053 0)
(0.122366 -0.000131473 0)
(0.122392 -5.27407e-05 0)
(0.122395 2.56359e-05 0)
(0.122376 0.000103627 0)
(0.122335 0.000181202 0)
(0.122272 0.000258334 0)
(0.122186 0.000334994 0)
(0.122079 0.000411158 0)
(0.12195 0.0004868 0)
(0.1218 0.000561896 0)
(0.121628 0.000636422 0)
(0.121435 0.000710357 0)
(0.12122 0.00078368 0)
(0.120985 0.000856371 0)
(0.120729 0.000928412 0)
(0.120453 0.000999785 0)
(0.120156 0.00107047 0)
(0.11984 0.00114046 0)
(0.119503 0.00120973 0)
(0.119147 0.00127827 0)
(0.118771 0.00134608 0)
(0.118376 0.00141312 0)
(0.117961 0.00147941 0)
(0.117528 0.00154492 0)
(0.117077 0.00160965 0)
(0.116607 0.00167358 0)
(0.116118 0.00173672 0)
(0.115612 0.00179905 0)
(0.115088 0.00186057 0)
(0.114547 0.00192127 0)
(0.113989 0.00198115 0)
(0.113413 0.0020402 0)
(0.112821 0.00209842 0)
(0.112212 0.00215582 0)
(0.111587 0.00221237 0)
(0.110946 0.0022681 0)
(0.110289 0.00232298 0)
(0.109616 0.00237703 0)
(0.108928 0.00243024 0)
(0.108225 0.00248261 0)
(0.107508 0.00253414 0)
(0.106775 0.00258484 0)
(0.106029 0.0026347 0)
(0.105268 0.00268373 0)
(0.104493 0.00273193 0)
(0.103705 0.0027793 0)
(0.102903 0.00282584 0)
(0.102088 0.00287156 0)
(0.10126 0.00291646 0)
(0.100419 0.00296054 0)
(0.0995663 0.0030038 0)
(0.098701 0.00304626 0)
(0.0978236 0.00308791 0)
(0.0969345 0.00312876 0)
(0.0960338 0.00316881 0)
(0.0951218 0.00320807 0)
(0.0941987 0.00324654 0)
(0.0932647 0.00328423 0)
(0.0923201 0.00332114 0)
(0.0913651 0.00335728 0)
(0.0903998 0.00339266 0)
(0.0894246 0.00342727 0)
(0.0884395 0.00346113 0)
(0.087445 0.00349423 0)
(0.086441 0.0035266 0)
(0.085428 0.00355823 0)
(0.084406 0.00358913 0)
(0.0833753 0.00361931 0)
(0.0823361 0.00364877 0)
(0.0812886 0.00367752 0)
(0.0802329 0.00370557 0)
(0.0791694 0.00373293 0)
(0.0780982 0.0037596 0)
(0.0770194 0.00378559 0)
(0.0759333 0.00381091 0)
(0.0748401 0.00383556 0)
(0.07374 0.00385957 0)
(0.0726331 0.00388292 0)
(0.0715196 0.00390564 0)
(0.0703998 0.00392772 0)
(0.0692737 0.00394919 0)
(0.0681416 0.00397004 0)
(0.0670036 0.00399029 0)
(0.06586 0.00400994 0)
(0.0647108 0.00402901 0)
(0.0635563 0.0040475 0)
(0.0623966 0.00406542 0)
(0.0612319 0.00408279 0)
(0.0600622 0.00409961 0)
(0.0588879 0.00411588 0)
(0.057709 0.00413163 0)
(0.0565257 0.00414686 0)
(0.0553382 0.00416158 0)
(0.0541465 0.0041758 0)
(0.0529508 0.00418953 0)
(0.0517513 0.00420277 0)
(0.0505481 0.00421554 0)
(0.0493413 0.00422786 0)
(0.048131 0.00423971 0)
(0.0469175 0.00425113 0)
(0.0457008 0.00426211 0)
(0.044481 0.00427267 0)
(0.0432582 0.00428281 0)
(0.0420327 0.00429254 0)
(0.0408044 0.00430188 0)
(0.0395735 0.00431083 0)
(0.0383401 0.0043194 0)
(0.0371044 0.0043276 0)
(0.0358663 0.00433544 0)
(0.0346261 0.00434292 0)
(0.0333838 0.00435006 0)
(0.0321396 0.00435686 0)
(0.0308934 0.00436333 0)
(0.0296454 0.00436948 0)
(0.0283958 0.00437532 0)
(0.0271445 0.00438084 0)
(0.0258917 0.00438607 0)
(0.0246375 0.004391 0)
(0.0233819 0.00439564 0)
(0.022125 0.00440001 0)
(0.0208669 0.00440409 0)
(0.0196077 0.00440791 0)
(0.0183475 0.00441146 0)
(0.0170862 0.00441475 0)
(0.0158241 0.00441779 0)
(0.0145612 0.00442057 0)
(0.0132975 0.00442311 0)
(0.0120331 0.00442541 0)
(0.0107681 0.00442747 0)
(0.00950255 0.00442929 0)
(0.00823651 0.00443087 0)
(0.00697006 0.00443223 0)
(0.00570325 0.00443336 0)
(0.00443616 0.00443425 0)
(0.00316884 0.00443493 0)
(0.00190137 0.00443537 0)
(0.000633801 0.0044356 0)
(0.000722188 -0.00649701 0)
(0.00216652 -0.00649664 0)
(0.00361074 -0.00649589 0)
(0.00505475 -0.00649477 0)
(0.00649847 -0.00649327 0)
(0.00794183 -0.00649139 0)
(0.00938473 -0.00648912 0)
(0.0108271 -0.00648646 0)
(0.0122688 -0.00648339 0)
(0.0137099 -0.00647991 0)
(0.0151501 -0.00647602 0)
(0.0165894 -0.00647169 0)
(0.0180278 -0.00646693 0)
(0.019465 -0.00646171 0)
(0.0209011 -0.00645602 0)
(0.0223358 -0.00644985 0)
(0.0237692 -0.00644319 0)
(0.0252011 -0.00643601 0)
(0.0266313 -0.00642831 0)
(0.0280598 -0.00642006 0)
(0.0294864 -0.00641124 0)
(0.030911 -0.00640184 0)
(0.0323335 -0.00639183 0)
(0.0337538 -0.0063812 0)
(0.0351716 -0.00636992 0)
(0.0365869 -0.00635797 0)
(0.0379995 -0.00634532 0)
(0.0394092 -0.00633196 0)
(0.040816 -0.00631786 0)
(0.0422195 -0.00630299 0)
(0.0436197 -0.00628734 0)
(0.0450164 -0.00627086 0)
(0.0464094 -0.00625355 0)
(0.0477984 -0.00623536 0)
(0.0491834 -0.00621628 0)
(0.0505641 -0.00619628 0)
(0.0519402 -0.00617533 0)
(0.0533117 -0.0061534 0)
(0.0546782 -0.00613047 0)
(0.0560395 -0.0061065 0)
(0.0573954 -0.00608148 0)
(0.0587457 -0.00605537 0)
(0.0600901 -0.00602815 0)
(0.0614284 -0.00599979 0)
(0.0627603 -0.00597026 0)
(0.0640855 -0.00593954 0)
(0.0654038 -0.0059076 0)
(0.0667149 -0.00587442 0)
(0.0680186 -0.00583996 0)
(0.0693144 -0.00580422 0)
(0.0706023 -0.00576716 0)
(0.0718817 -0.00572877 0)
(0.0731526 -0.00568901 0)
(0.0744144 -0.00564787 0)
(0.075667 -0.00560534 0)
(0.07691 -0.00556138 0)
(0.0781432 -0.00551599 0)
(0.0793661 -0.00546915 0)
(0.0805784 -0.00542084 0)
(0.0817799 -0.00537105 0)
(0.0829701 -0.00531977 0)
(0.0841488 -0.00526698 0)
(0.0853156 -0.00521268 0)
(0.0864702 -0.00515686 0)
(0.0876123 -0.00509952 0)
(0.0887414 -0.00504064 0)
(0.0898573 -0.00498023 0)
(0.0909595 -0.00491829 0)
(0.0920479 -0.00485482 0)
(0.0931219 -0.00478981 0)
(0.0941814 -0.00472328 0)
(0.0952258 -0.00465524 0)
(0.096255 -0.00458568 0)
(0.0972685 -0.00451462 0)
(0.098266 -0.00444208 0)
(0.0992473 -0.00436807 0)
(0.100212 -0.0042926 0)
(0.10116 -0.0042157 0)
(0.10209 -0.00413738 0)
(0.103003 -0.00405767 0)
(0.103897 -0.00397659 0)
(0.104774 -0.00389417 0)
(0.105632 -0.00381044 0)
(0.106472 -0.00372542 0)
(0.107292 -0.00363914 0)
(0.108093 -0.00355165 0)
(0.108874 -0.00346298 0)
(0.109635 -0.00337316 0)
(0.110377 -0.00328223 0)
(0.111097 -0.00319024 0)
(0.111798 -0.00309721 0)
(0.112477 -0.00300321 0)
(0.113135 -0.00290826 0)
(0.113772 -0.00281242 0)
(0.114388 -0.00271572 0)
(0.114982 -0.00261823 0)
(0.115554 -0.00251998 0)
(0.116104 -0.00242103 0)
(0.116632 -0.00232143 0)
(0.117137 -0.00222122 0)
(0.117621 -0.00212045 0)
(0.118081 -0.00201918 0)
(0.11852 -0.00191747 0)
(0.118935 -0.00181535 0)
(0.119327 -0.00171288 0)
(0.119697 -0.00161012 0)
(0.120044 -0.00150711 0)
(0.120367 -0.00140391 0)
(0.120668 -0.00130056 0)
(0.120946 -0.00119713 0)
(0.1212 -0.00109365 0)
(0.121432 -0.000990183 0)
(0.12164 -0.000886774 0)
(0.121826 -0.00078347 0)
(0.121988 -0.000680321 0)
(0.122127 -0.000577372 0)
(0.122244 -0.000474669 0)
(0.122337 -0.000372257 0)
(0.122408 -0.00027018 0)
(0.122456 -0.000168481 0)
(0.122482 -6.72001e-05 0)
(0.122485 3.36217e-05 0)
(0.122465 0.000133946 0)
(0.122424 0.000233734 0)
(0.12236 0.00033295 0)