/*--------------------------------*- C++ -*----------------------------------*\
| =========                 |                                                 |
| \\      /  F ield         | OpenFOAM: The Open Source CFD Toolbox           |
|  \\    /   O peration     | Version:  v2012                                 |
|   \\  /    A nd           | Website:  www.openfoam.com                      |
|    \\/     M anipulation  |                                                 |
\*---------------------------------------------------------------------------*/
FoamFile
{
    version     2.0;
    format      ascii;
    class       surfaceScalarField;
    location    "8.5";
    object      phi;
}
// * * * * * * * * * * * * * * * * * * * * * * * * * * * * * * * * * * * * * //

dimensions      [0 3 -1 0 0 0 0];
oriented        oriented;


internalField   nonuniform List<scalar> 
130560
(
3.71845e-06
-3.71845e-06
7.43691e-06
-3.71846e-06
1.11554e-05
-3.71847e-06
1.48739e-05
-3.7185e-06
1.85924e-05
-3.71852e-06
2.2311e-05
-3.71855e-06
2.60295e-05
-3.71858e-06
2.97481e-05
-3.71859e-06
3.34667e-05
-3.71859e-06
3.71853e-05
-3.71858e-06
4.09038e-05
-3.71853e-06
4.46223e-05
-3.71845e-06
4.83406e-05
-3.71832e-06
5.20587e-05
-3.71814e-06
5.57766e-05
-3.7179e-06
5.94942e-05
-3.71758e-06
6.32114e-05
-3.71717e-06
6.6928e-05
-3.71666e-06
7.06441e-05
-3.71603e-06
7.43593e-05
-3.71528e-06
7.80737e-05
-3.71439e-06
8.17871e-05
-3.71333e-06
8.54992e-05
-3.7121e-06
8.92098e-05
-3.71067e-06
9.29189e-05
-3.70903e-06
9.6626e-05
-3.70716e-06
0.000100331
-3.70505e-06
0.000104034
-3.70266e-06
0.000107734
-3.69997e-06
0.000111431
-3.69698e-06
0.000115124
-3.69365e-06
0.000118814
-3.68996e-06
0.0001225
-3.68589e-06
0.000126182
-3.68142e-06
0.000129858
-3.67651e-06
0.000133529
-3.67115e-06
0.000137195
-3.6653e-06
0.000140854
-3.65895e-06
0.000144506
-3.65207e-06
0.00014815
-3.64462e-06
0.000151787
-3.63659e-06
0.000155415
-3.62794e-06
0.000159033
-3.61865e-06
0.000162642
-3.60868e-06
0.00016624
-3.59802e-06
0.000169827
-3.58663e-06
0.000173401
-3.57448e-06
0.000176963
-3.56155e-06
0.000180511
-3.5478e-06
0.000184044
-3.53321e-06
0.000187561
-3.51775e-06
0.000191063
-3.5014e-06
0.000194547
-3.48412e-06
0.000198013
-3.46589e-06
0.00020146
-3.44668e-06
0.000204886
-3.42647e-06
0.000208291
-3.40523e-06
0.000211674
-3.38294e-06
0.000215034
-3.35956e-06
0.000218369
-3.33509e-06
0.000221678
-3.30949e-06
0.000224961
-3.28274e-06
0.000228216
-3.25483e-06
0.000231442
-3.22574e-06
0.000234637
-3.19545e-06
0.000237801
-3.16394e-06
0.000240932
-3.13119e-06
0.000244029
-3.0972e-06
0.000247091
-3.06196e-06
0.000250117
-3.02544e-06
0.000253105
-2.98765e-06
0.000256053
-2.94857e-06
0.000258961
-2.90821e-06
0.000261828
-2.86655e-06
0.000264651
-2.8236e-06
0.000267431
-2.77936e-06
0.000270165
-2.73383e-06
0.000272852
-2.68701e-06
0.000275491
-2.63892e-06
0.00027808
-2.58956e-06
0.000280619
-2.53894e-06
0.000283106
-2.48708e-06
0.00028554
-2.43399e-06
0.00028792
-2.37968e-06
0.000290244
-2.32419e-06
0.000292512
-2.26754e-06
0.000294721
-2.20973e-06
0.000296872
-2.15081e-06
0.000298963
-2.0908e-06
0.000300993
-2.02974e-06
0.00030296
-1.96764e-06
0.000304865
-1.90456e-06
0.000306705
-1.84052e-06
0.000308481
-1.77556e-06
0.000310191
-1.70973e-06
0.000311834
-1.64306e-06
0.000313409
-1.5756e-06
0.000314917
-1.50739e-06
0.000316355
-1.43848e-06
0.000317724
-1.36891e-06
0.000319023
-1.29874e-06
0.000320251
-1.22802e-06
0.000321408
-1.15679e-06
0.000322493
-1.0851e-06
0.000323506
-1.01302e-06
0.000324446
-9.40579e-07
0.000325314
-8.67847e-07
0.000326109
-7.94872e-07
0.000326831
-7.21708e-07
0.000327479
-6.48409e-07
0.000328054
-5.7503e-07
0.000328556
-5.01623e-07
0.000328984
-4.28242e-07
0.000329339
-3.54941e-07
0.000329621
-2.81771e-07
0.00032983
-2.08785e-07
0.000329966
-1.36034e-07
0.000330029
-6.3569e-08
0.000330021
8.5613e-09
0.00032994
8.03081e-08
0.000329789
1.51624e-07
0.000329566
2.22463e-07
0.000329273
2.9278e-07
0.000328911
3.62531e-07
0.000328479
4.31675e-07
0.000327979
5.00171e-07
0.000327411
5.67979e-07
0.000326776
6.35062e-07
0.000326075
7.01384e-07
0.000325308
7.66912e-07
0.000324476
8.31612e-07
0.000323581
8.95454e-07
0.000322622
9.58409e-07
0.000321602
1.02045e-06
0.00032052
1.08155e-06
0.000319379
1.14169e-06
0.000318178
1.20084e-06
0.000316919
1.25899e-06
0.000315603
1.31612e-06
0.00031423
1.3722e-06
0.000312803
1.42723e-06
0.000311322
1.4812e-06
0.000309788
1.53408e-06
0.000308202
1.58588e-06
0.000306565
1.63658e-06
0.000304879
1.68618e-06
0.000303145
1.73467e-06
0.000301363
1.78205e-06
0.000299534
1.82831e-06
0.000297661
1.87347e-06
0.000295743
1.91751e-06
0.000293783
1.96044e-06
0.000291781
2.00226e-06
0.000289738
2.04299e-06
0.000287655
2.08261e-06
0.000285534
2.12115e-06
0.000283375
2.1586e-06
0.00028118
2.19499e-06
0.00027895
2.23031e-06
0.000276685
2.26458e-06
0.000274387
2.2978e-06
0.000272057
2.33e-06
0.000269696
2.36119e-06
0.000267305
2.39137e-06
0.000264884
2.42057e-06
0.000262436
2.4488e-06
0.000259959
2.47607e-06
0.000257457
2.5024e-06
0.000254929
2.52781e-06
0.000252377
2.55231e-06
0.000249801
2.57592e-06
0.000247202
2.59866e-06
0.000244582
2.62054e-06
0.00024194
2.64159e-06
0.000239278
2.66182e-06
0.000236597
2.68125e-06
0.000233897
2.6999e-06
0.000231179
2.71779e-06
0.000228445
2.73493e-06
0.000225693
2.75134e-06
0.000222926
2.76705e-06
0.000220144
2.78207e-06
0.000217348
2.79642e-06
0.000214538
2.81012e-06
0.000211714
2.82318e-06
0.000208879
2.83563e-06
0.000206031
2.84748e-06
0.000203173
2.85876e-06
0.000200303
2.86947e-06
0.000197423
2.87964e-06
0.000194534
2.88928e-06
0.000191636
2.89842e-06
0.000188729
2.90706e-06
0.000185813
2.91523e-06
0.00018289
2.92294e-06
0.00017996
2.93021e-06
0.000177023
2.93705e-06
0.00017408
2.94348e-06
0.00017113
2.94952e-06
0.000168175
2.95518e-06
0.000165215
2.96047e-06
0.000162249
2.96542e-06
0.000159279
2.97003e-06
0.000156305
2.97431e-06
0.000153326
2.97829e-06
0.000150345
2.98198e-06
0.000147359
2.98539e-06
0.000144371
2.98852e-06
0.000141379
2.99141e-06
0.000138385
2.99405e-06
0.000135389
2.99645e-06
0.00013239
2.99864e-06
0.000129389
3.00063e-06
0.000126387
3.00241e-06
0.000123383
3.00401e-06
0.000120378
3.00544e-06
0.000117371
3.0067e-06
0.000114363
3.0078e-06
0.000111354
3.00876e-06
0.000108345
3.00959e-06
0.000105334
3.01029e-06
0.000102324
3.01087e-06
9.93122e-05
3.01134e-06
9.63005e-05
3.01171e-06
9.32885e-05
3.01199e-06
9.02763e-05
3.01218e-06
8.72641e-05
3.01229e-06
8.42517e-05
3.01234e-06
8.12394e-05
3.01232e-06
7.82272e-05
3.01224e-06
7.52151e-05
3.01211e-06
7.22031e-05
3.01194e-06
6.91914e-05
3.01173e-06
6.61799e-05
3.01149e-06
6.31687e-05
3.01122e-06
6.01578e-05
3.01092e-06
5.71471e-05
3.01061e-06
5.41369e-05
3.01029e-06
5.11269e-05
3.00996e-06
4.81173e-05
3.00962e-06
4.5108e-05
3.00929e-06
4.2099e-05
3.00895e-06
3.90904e-05
3.00863e-06
3.60821e-05
3.00831e-06
3.30741e-05
3.00801e-06
3.00664e-05
3.00772e-06
2.70589e-05
3.00745e-06
2.40517e-05
3.0072e-06
2.10447e-05
3.00698e-06
1.80379e-05
3.00678e-06
1.50313e-05
3.0066e-06
1.20249e-05
3.00645e-06
9.01857e-06
3.00633e-06
6.01233e-06
3.00624e-06
3.00615e-06
3.00618e-06
3.00615e-06
3.71844e-06
-7.43689e-06
7.43689e-06
-7.43691e-06
1.11554e-05
-7.43694e-06
1.48739e-05
-7.43699e-06
1.85924e-05
-7.43705e-06
2.23109e-05
-7.43711e-06
2.60295e-05
-7.43716e-06
2.97481e-05
-7.4372e-06
3.34667e-05
-7.43721e-06
3.71853e-05
-7.43718e-06
4.09039e-05
-7.43709e-06
4.46224e-05
-7.43694e-06
4.83408e-05
-7.4367e-06
5.2059e-05
-7.43635e-06
5.57769e-05
-7.43587e-06
5.94946e-05
-7.43524e-06
6.32119e-05
-7.43443e-06
6.69287e-05
-7.43343e-06
7.06448e-05
-7.4322e-06
7.43602e-05
-7.43071e-06
7.80748e-05
-7.42893e-06
8.17883e-05
-7.42683e-06
8.55006e-05
-7.42439e-06
8.92115e-05
-7.42155e-06
9.29207e-05
-7.4183e-06
9.66281e-05
-7.41458e-06
0.000100333
-7.41036e-06
0.000104036
-7.4056e-06
0.000107737
-7.40026e-06
0.000111434
-7.39429e-06
0.000115128
-7.38766e-06
0.000118818
-7.3803e-06
0.000122505
-7.37219e-06
0.000126186
-7.36326e-06
0.000129863
-7.35347e-06
0.000133535
-7.34277e-06
0.000137201
-7.33111e-06
0.00014086
-7.31844e-06
0.000144513
-7.3047e-06
0.000148158
-7.28983e-06
0.000151795
-7.27379e-06
0.000155424
-7.25652e-06
0.000159043
-7.23796e-06
0.000162653
-7.21806e-06
0.000166251
-7.19676e-06
0.000169839
-7.17401e-06
0.000173414
-7.14974e-06
0.000176976
-7.1239e-06
0.000180525
-7.09644e-06
0.000184059
-7.06729e-06
0.000187578
-7.03641e-06
0.00019108
-7.00373e-06
0.000194565
-6.9692e-06
0.000198032
-6.93276e-06
0.00020148
-6.89437e-06
0.000204907
-6.85397e-06
0.000208314
-6.81152e-06
0.000211698
-6.76695e-06
0.000215058
-6.72022e-06
0.000218394
-6.67129e-06
0.000221705
-6.62012e-06
0.000224989
-6.56665e-06
0.000228245
-6.51085e-06
0.000231472
-6.45268e-06
0.000234669
-6.39211e-06
0.000237834
-6.32911e-06
0.000240966
-6.26363e-06
0.000244065
-6.19567e-06
0.000247128
-6.12518e-06
0.000250155
-6.05216e-06
0.000253144
-5.97658e-06
0.000256093
-5.89843e-06
0.000259003
-5.8177e-06
0.000261871
-5.73439e-06
0.000264696
-5.64849e-06
0.000267476
-5.56e-06
0.000270211
-5.46894e-06
0.0002729
-5.3753e-06
0.00027554
-5.2791e-06
0.000278131
-5.18037e-06
0.000280671
-5.07912e-06
0.000283159
-4.97538e-06
0.000285594
-4.86918e-06
0.000287975
-4.76056e-06
0.000290301
-4.64956e-06
0.000292569
-4.53621e-06
0.00029478
-4.42058e-06
0.000296932
-4.30271e-06
0.000299024
-4.18266e-06
0.000301055
-4.0605e-06
0.000303023
-3.93627e-06
0.000304929
-3.81007e-06
0.00030677
-3.68195e-06
0.000308547
-3.552e-06
0.000310257
-3.42029e-06
0.000311901
-3.28691e-06
0.000313477
-3.15194e-06
0.000314985
-3.01548e-06
0.000316425
-2.87761e-06
0.000317794
-2.73843e-06
0.000319093
-2.59804e-06
0.000320322
-2.45654e-06
0.000321479
-2.31403e-06
0.000322565
-2.17061e-06
0.000323578
-2.02638e-06
0.000324519
-1.88145e-06
0.000325387
-1.73593e-06
0.000326182
-1.58993e-06
0.000326904
-1.44355e-06
0.000327552
-1.2969e-06
0.000328127
-1.15009e-06
0.000328629
-1.00322e-06
0.000329057
-8.56405e-07
0.000329412
-7.09749e-07
0.000329694
-5.63358e-07
0.000329902
-4.17335e-07
0.000330038
-2.71783e-07
0.000330101
-1.26803e-07
0.000330092
1.75065e-08
0.000330011
1.61048e-07
0.000329859
3.03726e-07
0.000329636
4.45448e-07
0.000329343
5.86126e-07
0.00032898
7.25671e-07
0.000328548
8.63999e-07
0.000328047
1.00103e-06
0.000327478
1.13668e-06
0.000326842
1.27088e-06
0.00032614
1.40356e-06
0.000325372
1.53465e-06
0.00032454
1.66408e-06
0.000323643
1.79179e-06
0.000322684
1.91773e-06
0.000321663
2.04184e-06
0.00032058
2.16406e-06
0.000319438
2.28436e-06
0.000318236
2.40269e-06
0.000316976
2.519e-06
0.000315659
2.63327e-06
0.000314285
2.74545e-06
0.000312857
2.85553e-06
0.000311375
2.96347e-06
0.00030984
3.06925e-06
0.000308253
3.17285e-06
0.000306615
3.27426e-06
0.000304928
3.37346e-06
0.000303192
3.47044e-06
0.000301409
3.56521e-06
0.000299579
3.65774e-06
0.000297705
3.74805e-06
0.000295786
3.83613e-06
0.000293825
3.92199e-06
0.000291821
4.00563e-06
0.000289777
4.08707e-06
0.000287693
4.16631e-06
0.000285571
4.24338e-06
0.000283411
4.31828e-06
0.000281215
4.39104e-06
0.000278984
4.46167e-06
0.000276718
4.53019e-06
0.00027442
4.59663e-06
0.000272089
4.66102e-06
0.000269726
4.72338e-06
0.000267334
4.78373e-06
0.000264913
4.84212e-06
0.000262463
4.89855e-06
0.000259986
4.95308e-06
0.000257482
5.00573e-06
0.000254954
5.05652e-06
0.000252401
5.10551e-06
0.000249824
5.15271e-06
0.000247224
5.19817e-06
0.000244603
5.24192e-06
0.00024196
5.284e-06
0.000239298
5.32444e-06
0.000236616
5.36328e-06
0.000233915
5.40056e-06
0.000231197
5.43631e-06
0.000228461
5.47058e-06
0.000225709
5.50339e-06
0.000222941
5.53479e-06
0.000220158
5.56481e-06
0.000217361
5.59349e-06
0.000214551
5.62086e-06
0.000211727
5.64697e-06
0.000208891
5.67186e-06
0.000206042
5.69554e-06
0.000203183
5.71807e-06
0.000200313
5.73948e-06
0.000197433
5.7598e-06
0.000194543
5.77907e-06
0.000191644
5.79733e-06
0.000188737
5.8146e-06
0.000185821
5.83092e-06
0.000182898
5.84632e-06
0.000179967
5.86084e-06
0.00017703
5.87451e-06
0.000174086
5.88736e-06
0.000171136
5.89942e-06
0.00016818
5.91072e-06
0.000165219
5.9213e-06
0.000162254
5.93117e-06
0.000159283
5.94037e-06
0.000156309
5.94893e-06
0.00015333
5.95688e-06
0.000150348
5.96424e-06
0.000147362
5.97104e-06
0.000144373
5.9773e-06
0.000141382
5.98305e-06
0.000138388
5.98832e-06
0.000135391
5.99313e-06
0.000132392
5.9975e-06
0.000129391
6.00145e-06
0.000126389
6.00501e-06
0.000123384
6.0082e-06
0.000120379
6.01104e-06
0.000117372
6.01355e-06
0.000114364
6.01575e-06
0.000111355
6.01766e-06
0.000108345
6.0193e-06
0.000105335
6.02069e-06
0.000102324
6.02184e-06
9.93126e-05
6.02278e-06
9.63008e-05
6.02351e-06
9.32887e-05
6.02406e-06
9.02764e-05
6.02443e-06
8.72641e-05
6.02465e-06
8.42517e-05
6.02473e-06
8.12393e-05
6.02469e-06
7.8227e-05
6.02453e-06
7.52149e-05
6.02427e-06
7.22029e-05
6.02392e-06
6.91911e-05
6.02349e-06
6.61796e-05
6.023e-06
6.31684e-05
6.02245e-06
6.01574e-05
6.02186e-06
5.71468e-05
6.02124e-06
5.41365e-05
6.02059e-06
5.11265e-05
6.01992e-06
4.81169e-05
6.01925e-06
4.51076e-05
6.01857e-06
4.20987e-05
6.0179e-06
3.90901e-05
6.01725e-06
3.60818e-05
6.01661e-06
3.30738e-05
6.016e-06
3.00661e-05
6.01542e-06
2.70587e-05
6.01488e-06
2.40515e-05
6.01438e-06
2.10445e-05
6.01393e-06
1.80378e-05
6.01353e-06
1.50312e-05
6.01317e-06
1.20248e-05
6.01287e-06
9.01848e-06
6.01263e-06
6.01227e-06
6.01245e-06
3.00612e-06
6.01233e-06
6.01227e-06
3.71842e-06
-1.11553e-05
7.43686e-06
-1.11553e-05
1.11553e-05
-1.11554e-05
1.48738e-05
-1.11555e-05
1.85923e-05
-1.11556e-05
2.23109e-05
-1.11557e-05
2.60295e-05
-1.11558e-05
2.97481e-05
-1.11558e-05
3.34668e-05
-1.11559e-05
3.71854e-05
-1.11558e-05
4.09041e-05
-1.11557e-05
4.46226e-05
-1.11555e-05
4.83411e-05
-1.11552e-05
5.20595e-05
-1.11547e-05
5.57776e-05
-1.1154e-05
5.94954e-05
-1.11531e-05
6.32129e-05
-1.11519e-05
6.69299e-05
-1.11504e-05
7.06463e-05
-1.11486e-05
7.4362e-05
-1.11464e-05
7.80769e-05
-1.11438e-05
8.17907e-05
-1.11407e-05
8.55034e-05
-1.11371e-05
8.92147e-05
-1.11329e-05
9.29244e-05
-1.1128e-05
9.66324e-05
-1.11225e-05
0.000100338
-1.11162e-05
0.000104042
-1.11091e-05
0.000107743
-1.11012e-05
0.000111441
-1.10923e-05
0.000115135
-1.10824e-05
0.000118826
-1.10714e-05
0.000122514
-1.10593e-05
0.000126196
-1.1046e-05
0.000129874
-1.10313e-05
0.000133547
-1.10154e-05
0.000137214
-1.09979e-05
0.000140874
-1.0979e-05
0.000144528
-1.09584e-05
0.000148174
-1.09362e-05
0.000151813
-1.09122e-05
0.000155443
-1.08864e-05
0.000159063
-1.08586e-05
0.000162674
-1.08288e-05
0.000166274
-1.0797e-05
0.000169863
-1.07629e-05
0.00017344
-1.07266e-05
0.000177004
-1.06879e-05
0.000180554
-1.06468e-05
0.00018409
-1.06031e-05
0.000187611
-1.05569e-05
0.000191115
-1.05079e-05
0.000194602
-1.04562e-05
0.00019807
-1.04016e-05
0.00020152
-1.03441e-05
0.00020495
-1.02835e-05
0.000208358
-1.02199e-05
0.000211744
-1.01531e-05
0.000215107
-1.00831e-05
0.000218446
-1.00097e-05
0.000221759
-9.93304e-06
0.000225045
-9.85289e-06
0.000228303
-9.76924e-06
0.000231533
-9.68203e-06
0.000234732
-9.59122e-06
0.000237899
-9.49674e-06
0.000241034
-9.39857e-06
0.000244135
-9.29664e-06
0.000247201
-9.19094e-06
0.00025023
-9.08143e-06
0.000253222
-8.96808e-06
0.000256174
-8.85087e-06
0.000259086
-8.72979e-06
0.000261957
-8.60482e-06
0.000264784
-8.47597e-06
0.000267567
-8.34323e-06
0.000270305
-8.20662e-06
0.000272996
-8.06614e-06
0.000275639
-7.92183e-06
0.000278232
-7.7737e-06
0.000280775
-7.62179e-06
0.000283265
-7.46614e-06
0.000285703
-7.3068e-06
0.000288086
-7.14382e-06
0.000290414
-6.97725e-06
0.000292685
-6.80718e-06
0.000294898
-6.63367e-06
0.000297052
-6.45679e-06
0.000299146
-6.27664e-06
0.000301179
-6.09331e-06
0.00030315
-5.90689e-06
0.000305057
-5.71749e-06
0.0003069
-5.52522e-06
0.000308678
-5.33019e-06
0.000310391
-5.13252e-06
0.000312036
-4.93234e-06
0.000313614
-4.72978e-06
0.000315123
-4.52497e-06
0.000316564
-4.31805e-06
0.000317935
-4.10916e-06
0.000319235
-3.89846e-06
0.000320465
-3.68608e-06
0.000321623
-3.47218e-06
0.000322709
-3.25691e-06
0.000323723
-3.04044e-06
0.000324664
-2.82292e-06
0.000325533
-2.60451e-06
0.000326329
-2.38537e-06
0.000327051
-2.16566e-06
0.000327699
-1.94555e-06
0.000328274
-1.7252e-06
0.000328776
-1.50476e-06
0.000329204
-1.28441e-06
0.000329558
-1.06429e-06
0.00032984
-8.44576e-07
0.000330048
-6.25414e-07
0.000330183
-4.06959e-07
0.000330246
-1.89365e-07
0.000330236
2.72197e-08
0.000330154
2.4265e-07
0.000330001
4.56782e-07
0.000329777
6.69479e-07
0.000329483
8.80604e-07
0.000329118
1.09003e-06
0.000328685
1.29762e-06
0.000328182
1.50326e-06
0.000327612
1.70684e-06
0.000326975
1.90823e-06
0.000326271
2.10733e-06
0.000325502
2.30405e-06
0.000324668
2.49827e-06
0.000323769
2.68991e-06
0.000322808
2.87888e-06
0.000321785
3.06511e-06
0.000320701
3.24851e-06
0.000319556
3.42901e-06
0.000318352
3.60655e-06
0.00031709
3.78106e-06
0.000315771
3.9525e-06
0.000314395
4.12082e-06
0.000312965
4.28596e-06
0.000311481
4.4479e-06
0.000309943
4.6066e-06
0.000308354
4.76202e-06
0.000306714
4.91415e-06
0.000305025
5.06296e-06
0.000303287
5.20845e-06
0.000301501
5.35059e-06
0.00029967
5.48939e-06
0.000297793
5.62485e-06
0.000295872
5.75697e-06
0.000293908
5.88575e-06
0.000291903
6.0112e-06
0.000289856
6.13334e-06
0.00028777
6.25219e-06
0.000285646
6.36777e-06
0.000283484
6.4801e-06
0.000281286
6.58921e-06
0.000279053
6.69513e-06
0.000276785
6.79789e-06
0.000274484
6.89752e-06
0.000272151
6.99407e-06
0.000269787
7.08757e-06
0.000267392
7.17807e-06
0.000264969
7.2656e-06
0.000262517
7.35022e-06
0.000260038
7.43197e-06
0.000257533
7.5109e-06
0.000255003
7.58705e-06
0.000252448
7.66048e-06
0.000249869
7.73125e-06
0.000247268
7.79939e-06
0.000244645
7.86497e-06
0.000242001
7.92805e-06
0.000239337
7.98866e-06
0.000236653
8.04688e-06
0.000233951
8.10275e-06
0.000231231
8.15633e-06
0.000228494
8.20768e-06
0.00022574
8.25685e-06
0.000222971
8.3039e-06
0.000220187
8.34888e-06
0.000217389
8.39186e-06
0.000214577
8.43288e-06
0.000211752
8.472e-06
0.000208914
8.50928e-06
0.000206065
8.54476e-06
0.000203205
8.57851e-06
0.000200334
8.61058e-06
0.000197452
8.64102e-06
0.000194561
8.66988e-06
0.000191662
8.69722e-06
0.000188753
8.72308e-06
0.000185837
8.74752e-06
0.000182912
8.77059e-06
0.000179981
8.79233e-06
0.000177042
8.81279e-06
0.000174098
8.83203e-06
0.000171147
8.85008e-06
0.000168191
8.867e-06
0.000165229
8.88282e-06
0.000162263
8.89759e-06
0.000159292
8.91136e-06
0.000156317
8.92417e-06
0.000153338
8.93606e-06
0.000150355
8.94706e-06
0.000147369
8.95723e-06
0.000144379
8.96659e-06
0.000141387
8.97519e-06
0.000138392
8.98306e-06
0.000135395
8.99024e-06
0.000132396
8.99676e-06
0.000129395
9.00267e-06
0.000126392
9.00798e-06
0.000123387
9.01274e-06
0.000120381
9.01697e-06
0.000117374
9.02071e-06
0.000114366
9.02399e-06
0.000111357
9.02683e-06
0.000108347
9.02927e-06
0.000105336
9.03133e-06
0.000102325
9.03304e-06
9.93133e-05
9.03442e-06
9.63013e-05
9.0355e-06
9.32891e-05
9.0363e-06
9.02767e-05
9.03684e-06
8.72642e-05
9.03716e-06
8.42516e-05
9.03726e-06
8.12392e-05
9.03717e-06
7.82268e-05
9.03692e-06
7.52145e-05
9.03651e-06
7.22025e-05
9.03597e-06
6.91906e-05
9.03532e-06
6.61791e-05
9.03457e-06
6.31678e-05
9.03374e-06
6.01568e-05
9.03284e-06
5.71462e-05
9.03189e-06
5.41358e-05
9.0309e-06
5.11259e-05
9.02989e-06
4.81163e-05
9.02887e-06
4.5107e-05
9.02785e-06
4.2098e-05
9.02683e-06
3.90894e-05
9.02584e-06
3.60812e-05
9.02488e-06
3.30732e-05
9.02396e-06
3.00655e-05
9.02309e-06
2.70582e-05
9.02227e-06
2.4051e-05
9.02152e-06
2.10441e-05
9.02083e-06
1.80374e-05
9.02022e-06
1.50309e-05
9.01969e-06
1.20245e-05
9.01924e-06
9.01829e-06
9.01887e-06
6.01214e-06
9.0186e-06
3.00606e-06
9.01842e-06
9.01832e-06
3.71839e-06
-1.48737e-05
7.4368e-06
-1.48737e-05
1.11552e-05
-1.48738e-05
1.48737e-05
-1.48739e-05
1.85922e-05
-1.48741e-05
2.23108e-05
-1.48742e-05
2.60294e-05
-1.48744e-05
2.97481e-05
-1.48745e-05
3.34668e-05
-1.48746e-05
3.71855e-05
-1.48746e-05
4.09043e-05
-1.48745e-05
4.4623e-05
-1.48742e-05
4.83416e-05
-1.48738e-05
5.20601e-05
-1.48732e-05
5.57785e-05
-1.48723e-05
5.94966e-05
-1.48712e-05
6.32144e-05
-1.48697e-05
6.69317e-05
-1.48678e-05
7.06485e-05
-1.48654e-05
7.43646e-05
-1.48626e-05
7.808e-05
-1.48591e-05
8.17944e-05
-1.48551e-05
8.55076e-05
-1.48503e-05
8.92196e-05
-1.48448e-05
9.293e-05
-1.48384e-05
9.66386e-05
-1.48312e-05
0.000100345
-1.48229e-05
0.00010405
-1.48135e-05
0.000107752
-1.4803e-05
0.000111451
-1.47913e-05
0.000115146
-1.47782e-05
0.000118839
-1.47637e-05
0.000122527
-1.47476e-05
0.000126211
-1.473e-05
0.00012989
-1.47106e-05
0.000133564
-1.46894e-05
0.000137233
-1.46663e-05
0.000140895
-1.46411e-05
0.00014455
-1.46139e-05
0.000148198
-1.45844e-05
0.000151839
-1.45525e-05
0.00015547
-1.45182e-05
0.000159093
-1.44813e-05
0.000162706
-1.44417e-05
0.000166308
-1.43994e-05
0.000169899
-1.43541e-05
0.000173479
-1.43058e-05
0.000177045
-1.42543e-05
0.000180598
-1.41996e-05
0.000184136
-1.41415e-05
0.000187659
-1.408e-05
0.000191166
-1.40148e-05
0.000194656
-1.3946e-05
0.000198128
-1.38734e-05
0.000201581
-1.37968e-05
0.000205013
-1.37162e-05
0.000208425
-1.36315e-05
0.000211814
-1.35425e-05
0.000215181
-1.34493e-05
0.000218522
-1.33516e-05
0.000221839
-1.32494e-05
0.000225128
-1.31426e-05
0.00022839
-1.30312e-05
0.000231623
-1.2915e-05
0.000234826
-1.2794e-05
0.000237997
-1.26681e-05
0.000241136
-1.25372e-05
0.000244241
-1.24014e-05
0.00024731
-1.22605e-05
0.000250344
-1.21145e-05
0.000253339
-1.19634e-05
0.000256295
-1.18072e-05
0.000259211
-1.16458e-05
0.000262086
-1.14791e-05
0.000264917
-1.13073e-05
0.000267704
-1.11303e-05
0.000270446
-1.09482e-05
0.00027314
-1.07608e-05
0.000275787
-1.05684e-05
0.000278384
-1.03708e-05
0.00028093
-1.01682e-05
0.000283425
-9.96059e-06
0.000285866
-9.74805e-06
0.000288253
-9.53065e-06
0.000290584
-9.30847e-06
0.000292858
-9.08159e-06
0.000295075
-8.85011e-06
0.000297232
-8.61415e-06
0.000299329
-8.37381e-06
0.000301365
-8.12921e-06
0.000303339
-7.88049e-06
0.000305249
-7.62779e-06
0.000307095
-7.37125e-06
0.000308876
-7.11102e-06
0.000310591
-6.84727e-06
0.000312239
-6.58016e-06
0.000313819
-6.30987e-06
0.00031533
-6.03657e-06
0.000316773
-5.76046e-06
0.000318145
-5.48172e-06
0.000319447
-5.20054e-06
0.000320678
-4.91713e-06
0.000321838
-4.63169e-06
0.000322925
-4.34443e-06
0.000323941
-4.05555e-06
0.000324883
-3.76528e-06
0.000325752
-3.47381e-06
0.000326548
-3.18137e-06
0.000327271
-2.88818e-06
0.00032792
-2.59445e-06
0.000328495
-2.30039e-06
0.000328996
-2.00623e-06
0.000329424
-1.71217e-06
0.000329778
-1.41844e-06
0.000330059
-1.12524e-06
0.000330266
-8.32784e-07
0.000330401
-5.41276e-07
0.000330462
-2.50919e-07
0.000330451
3.80877e-08
0.000330368
3.25549e-07
0.000330214
6.11275e-07
0.000329988
8.95081e-07
0.000329692
1.17678e-06
0.000329326
1.45621e-06
0.00032889
1.73319e-06
0.000328386
2.00757e-06
0.000327814
2.27917e-06
0.000327174
2.54786e-06
0.000326468
2.8135e-06
0.000325696
3.07593e-06
0.000324859
3.33504e-06
0.000323958
3.5907e-06
0.000322995
3.84279e-06
0.000321968
4.0912e-06
0.000320881
4.33584e-06
0.000319734
4.57661e-06
0.000318527
4.81343e-06
0.000317262
5.0462e-06
0.000315939
5.27487e-06
0.000314561
5.49935e-06
0.000313127
5.71961e-06
0.000311639
5.93558e-06
0.000310099
6.14721e-06
0.000308506
6.35448e-06
0.000306863
6.55735e-06
0.00030517
6.75579e-06
0.000303429
6.94978e-06
0.00030164
7.13932e-06
0.000299805
7.3244e-06
0.000297925
7.505e-06
0.000296001
7.68114e-06
0.000294034
7.85283e-06
0.000292025
8.02008e-06
0.000289975
8.18291e-06
0.000287886
8.34135e-06
0.000285758
8.49542e-06
0.000283593
8.64515e-06
0.000281392
8.79058e-06
0.000279155
8.93175e-06
0.000276885
9.06871e-06
0.000274581
9.2015e-06
0.000272245
9.33017e-06
0.000269877
9.45477e-06
0.00026748
9.57536e-06
0.000265054
9.69201e-06
0.000262599
9.80476e-06
0.000260117
9.91368e-06
0.000257609
1.00188e-05
0.000255076
1.01203e-05
0.000252519
1.02181e-05
0.000249937
1.03124e-05
0.000247334
1.04032e-05
0.000244708
1.04905e-05
0.000242062
1.05745e-05
0.000239395
1.06553e-05
0.000236709
1.07328e-05
0.000234005
1.08072e-05
0.000231282
1.08786e-05
0.000228543
1.0947e-05
0.000225787
1.10124e-05
0.000223016
1.10751e-05
0.00022023
1.1135e-05
0.00021743
1.11922e-05
0.000214616
1.12468e-05
0.000211789
1.12989e-05
0.00020895
1.13485e-05
0.000206099
1.13957e-05
0.000203237
1.14406e-05
0.000200364
1.14833e-05
0.000197481
1.15238e-05
0.000194589
1.15622e-05
0.000191687
1.15986e-05
0.000188778
1.1633e-05
0.00018586
1.16655e-05
0.000182934
1.16962e-05
0.000180001
1.17251e-05
0.000177062
1.17523e-05
0.000174116
1.17779e-05
0.000171164
1.18019e-05
0.000168207
1.18244e-05
0.000165244
1.18454e-05
0.000162277
1.1865e-05
0.000159305
1.18833e-05
0.000156329
1.19003e-05
0.000153349
1.19161e-05
0.000150365
1.19307e-05
0.000147378
1.19442e-05
0.000144388
1.19566e-05
0.000141395
1.1968e-05
0.0001384
1.19785e-05
0.000135402
1.1988e-05
0.000132402
1.19967e-05
0.0001294
1.20045e-05
0.000126397
1.20115e-05
0.000123392
1.20178e-05
0.000120385
1.20234e-05
0.000117377
1.20283e-05
0.000114369
1.20327e-05
0.000111359
1.20364e-05
0.000108349
1.20396e-05
0.000105338
1.20423e-05
0.000102326
1.20446e-05
9.93144e-05
1.20464e-05
9.63021e-05
1.20478e-05
9.32896e-05
1.20488e-05
9.0277e-05
1.20495e-05
8.72643e-05
1.20499e-05
8.42516e-05
1.205e-05
8.12389e-05
1.20498e-05
7.82264e-05
1.20495e-05
7.5214e-05
1.20489e-05
7.22018e-05
1.20481e-05
6.91899e-05
1.20472e-05
6.61782e-05
1.20462e-05
6.31669e-05
1.20451e-05
6.01559e-05
1.20439e-05
5.71452e-05
1.20426e-05
5.41348e-05
1.20412e-05
5.11249e-05
1.20399e-05
4.81152e-05
1.20385e-05
4.5106e-05
1.20371e-05
4.20971e-05
1.20357e-05
3.90885e-05
1.20344e-05
3.60803e-05
1.20331e-05
3.30723e-05
1.20319e-05
3.00647e-05
1.20307e-05
2.70574e-05
1.20296e-05
2.40503e-05
1.20286e-05
2.10435e-05
1.20277e-05
1.80369e-05
1.20268e-05
1.50305e-05
1.20261e-05
1.20242e-05
1.20255e-05
9.01802e-06
1.2025e-05
6.01196e-06
1.20247e-05
3.00596e-06
1.20244e-05
1.20243e-05
3.71835e-06
-1.85921e-05
7.43672e-06
-1.85921e-05
1.11551e-05
-1.85922e-05
1.48736e-05
-1.85924e-05
1.85921e-05
-1.85926e-05
2.23106e-05
-1.85928e-05
2.60293e-05
-1.8593e-05
2.9748e-05
-1.85932e-05
3.34668e-05
-1.85934e-05
3.71856e-05
-1.85934e-05
4.09045e-05
-1.85933e-05
4.46234e-05
-1.85931e-05
4.83422e-05
-1.85927e-05
5.2061e-05
-1.8592e-05
5.57797e-05
-1.8591e-05
5.94981e-05
-1.85896e-05
6.32163e-05
-1.85878e-05
6.69341e-05
-1.85856e-05
7.06514e-05
-1.85827e-05
7.43681e-05
-1.85793e-05
7.8084e-05
-1.85751e-05
8.17991e-05
-1.85702e-05
8.55132e-05
-1.85643e-05
8.92259e-05
-1.85576e-05
9.29373e-05
-1.85498e-05
9.66469e-05
-1.85408e-05
0.000100355
-1.85306e-05
0.00010406
-1.85191e-05
0.000107763
-1.85061e-05
0.000111464
-1.84916e-05
0.000115161
-1.84754e-05
0.000118855
-1.84574e-05
0.000122545
-1.84376e-05
0.00012623
-1.84157e-05
0.000129911
-1.83916e-05
0.000133587
-1.83654e-05
0.000137258
-1.83367e-05
0.000140922
-1.83054e-05
0.00014458
-1.82715e-05
0.00014823
-1.82349e-05
0.000151873
-1.81953e-05
0.000155507
-1.81526e-05
0.000159133
-1.81067e-05
0.000162748
-1.80574e-05
0.000166354
-1.80047e-05
0.000169948
-1.79483e-05
0.00017353
-1.78881e-05
0.0001771
-1.7824e-05
0.000180656
-1.77558e-05
0.000184198
-1.76834e-05
0.000187725
-1.76067e-05
0.000191235
-1.75255e-05
0.000194729
-1.74397e-05
0.000198205
-1.7349e-05
0.000201661
-1.72535e-05
0.000205098
-1.7153e-05
0.000208514
-1.70473e-05
0.000211908
-1.69363e-05
0.000215278
-1.68199e-05
0.000218625
-1.66979e-05
0.000221946
-1.65703e-05
0.00022524
-1.6437e-05
0.000228507
-1.62979e-05
0.000231744
-1.61528e-05
0.000234952
-1.60016e-05
0.000238128
-1.58444e-05
0.000241272
-1.56809e-05
0.000244382
-1.55112e-05
0.000247457
-1.53352e-05
0.000250495
-1.51528e-05
0.000253495
-1.49639e-05
0.000256457
-1.47687e-05
0.000259378
-1.45669e-05
0.000262257
-1.43586e-05
0.000265094
-1.41439e-05
0.000267886
-1.39226e-05
0.000270633
-1.36949e-05
0.000273333
-1.34606e-05
0.000275984
-1.322e-05
0.000278587
-1.2973e-05
0.000281138
-1.27196e-05
0.000283637
-1.246e-05
0.000286083
-1.21942e-05
0.000288475
-1.19223e-05
0.000290811
-1.16444e-05
0.00029309
-1.13606e-05
0.000295311
-1.10711e-05
0.000297473
-1.07759e-05
0.000299574
-1.04752e-05
0.000301614
-1.01692e-05
0.000303592
-9.85808e-06
0.000305506
-9.54192e-06
0.000307356
-9.22096e-06
0.00030914
-8.89537e-06
0.000310858
-8.56537e-06
0.000312509
-8.23116e-06
0.000314092
-7.89296e-06
0.000315607
-7.551e-06
0.000317052
-7.2055e-06
0.000318427
-6.8567e-06
0.000319731
-6.50486e-06
0.000320964
-6.15022e-06
0.000322125
-5.79303e-06
0.000323214
-5.43356e-06
0.000324231
-5.07207e-06
0.000325174
-4.70882e-06
0.000326045
-4.34409e-06
0.000326842
-3.97813e-06
0.000327565
-3.61124e-06
0.000328214
-3.24366e-06
0.000328789
-2.87569e-06
0.00032929
-2.50758e-06
0.000329718
-2.13961e-06
0.000330072
-1.77205e-06
0.000330351
-1.40516e-06
0.000330558
-1.03921e-06
0.000330691
-6.74442e-07
0.000330751
-3.11123e-07
0.000330739
5.05006e-08
0.000330654
4.10184e-07
0.000330498
7.67689e-07
0.00033027
1.12278e-06
0.000329972
1.47524e-06
0.000329603
1.82484e-06
0.000329165
2.17137e-06
0.000328658
2.51463e-06
0.000328082
2.85443e-06
0.00032744
3.19056e-06
0.00032673
3.52286e-06
0.000325955
3.85114e-06
0.000325115
4.17526e-06
0.000324211
4.49505e-06
0.000323243
4.81037e-06
0.000322213
5.12108e-06
0.000321122
5.42705e-06
0.00031997
5.72818e-06
0.00031876
6.02434e-06
0.00031749
6.31545e-06
0.000316164
6.6014e-06
0.000314781
6.88212e-06
0.000313343
7.15754e-06
0.000311851
7.42758e-06
0.000310306
7.6922e-06
0.000308709
7.95135e-06
0.000307062
8.20498e-06
0.000305364
8.45306e-06
0.000303618
8.69558e-06
0.000301825
8.93252e-06
0.000299986
9.16386e-06
0.000298101
9.38961e-06
0.000296173
9.60977e-06
0.000294201
9.82436e-06
0.000292188
1.00334e-05
0.000290134
1.02369e-05
0.00028804
1.04349e-05
0.000285908
1.06274e-05
0.000283739
1.08145e-05
0.000281533
1.09962e-05
0.000279292
1.11726e-05
0.000277017
1.13437e-05
0.000274709
1.15096e-05
0.000272369
1.16703e-05
0.000269998
1.1826e-05
0.000267597
1.19766e-05
0.000265166
1.21223e-05
0.000262708
1.22631e-05
0.000260223
1.23992e-05
0.000257711
1.25305e-05
0.000255174
1.26572e-05
0.000252613
1.27793e-05
0.000250028
1.2897e-05
0.000247421
1.30104e-05
0.000244792
1.31194e-05
0.000242142
1.32243e-05
0.000239473
1.33251e-05
0.000236783
1.34219e-05
0.000234076