/*--------------------------------*- C++ -*----------------------------------*\
| =========                 |                                                 |
| \\      /  F ield         | OpenFOAM: The Open Source CFD Toolbox           |
|  \\    /   O peration     | Version:  v2012                                 |
|   \\  /    A nd           | Website:  www.openfoam.com                      |
|    \\/     M anipulation  |                                                 |
\*---------------------------------------------------------------------------*/
FoamFile
{
    version     2.0;
    format      ascii;
    class       volVectorField;
    location    "8.5";
    object      Psi;
}
// * * * * * * * * * * * * * * * * * * * * * * * * * * * * * * * * * * * * * //

dimensions      [0 2 -1 0 0 0 0];


internalField   nonuniform List<vector> 
65536
(
(0 0 9.29595e-06)
(0 0 2.78879e-05)
(0 0 4.64799e-05)
(0 0 6.5072e-05)
(0 0 8.36642e-05)
(0 0 0.000102257)
(0 0 0.000120849)
(0 0 0.000139442)
(0 0 0.000158034)
(0 0 0.000176627)
(0 0 0.00019522)
(0 0 0.000213812)
(0 0 0.000232404)
(0 0 0.000250995)
(0 0 0.000269585)
(0 0 0.000288174)
(0 0 0.00030676)
(0 0 0.000325345)
(0 0 0.000343927)
(0 0 0.000362505)
(0 0 0.00038108)
(0 0 0.000399649)
(0 0 0.000418213)
(0 0 0.00043677)
(0 0 0.00045532)
(0 0 0.000473861)
(0 0 0.000492392)
(0 0 0.000510912)
(0 0 0.000529419)
(0 0 0.000547913)
(0 0 0.00056639)
(0 0 0.00058485)
(0 0 0.000603291)
(0 0 0.00062171)
(0 0 0.000640106)
(0 0 0.000658477)
(0 0 0.000676819)
(0 0 0.000695131)
(0 0 0.000713411)
(0 0 0.000731654)
(0 0 0.000749859)
(0 0 0.000768022)
(0 0 0.00078614)
(0 0 0.000804211)
(0 0 0.00082223)
(0 0 0.000840194)
(0 0 0.000858099)
(0 0 0.000875942)
(0 0 0.000893718)
(0 0 0.000911423)
(0 0 0.000929053)
(0 0 0.000946604)
(0 0 0.000964071)
(0 0 0.000981449)
(0 0 0.000998734)
(0 0 0.00101592)
(0 0 0.001033)
(0 0 0.00104998)
(0 0 0.00106684)
(0 0 0.00108358)
(0 0 0.00110019)
(0 0 0.00111668)
(0 0 0.00113302)
(0 0 0.00114923)
(0 0 0.00116529)
(0 0 0.00118119)
(0 0 0.00119693)
(0 0 0.00121251)
(0 0 0.00122791)
(0 0 0.00124313)
(0 0 0.00125817)
(0 0 0.00127302)
(0 0 0.00128766)
(0 0 0.00130211)
(0 0 0.00131634)
(0 0 0.00133035)
(0 0 0.00134414)
(0 0 0.00135769)
(0 0 0.00137101)
(0 0 0.00138409)
(0 0 0.00139692)
(0 0 0.00140949)
(0 0 0.00142179)
(0 0 0.00143383)
(0 0 0.0014456)
(0 0 0.00145708)
(0 0 0.00146828)
(0 0 0.00147919)
(0 0 0.0014898)
(0 0 0.0015001)
(0 0 0.0015101)
(0 0 0.00151979)
(0 0 0.00152915)
(0 0 0.0015382)
(0 0 0.00154692)
(0 0 0.0015553)
(0 0 0.00156335)
(0 0 0.00157107)
(0 0 0.00157844)
(0 0 0.00158546)
(0 0 0.00159213)
(0 0 0.00159845)
(0 0 0.00160442)
(0 0 0.00161003)
(0 0 0.00161528)
(0 0 0.00162016)
(0 0 0.00162469)
(0 0 0.00162885)
(0 0 0.00163264)
(0 0 0.00163607)
(0 0 0.00163913)
(0 0 0.00164183)
(0 0 0.00164415)
(0 0 0.00164611)
(0 0 0.00164771)
(0 0 0.00164894)
(0 0 0.0016498)
(0 0 0.0016503)
(0 0 0.00165044)
(0 0 0.00165022)
(0 0 0.00164964)
(0 0 0.0016487)
(0 0 0.00164742)
(0 0 0.00164578)
(0 0 0.00164379)
(0 0 0.00164146)
(0 0 0.00163879)
(0 0 0.00163579)
(0 0 0.00163244)
(0 0 0.00162877)
(0 0 0.00162478)
(0 0 0.00162046)
(0 0 0.00161582)
(0 0 0.00161087)
(0 0 0.00160562)
(0 0 0.00160006)
(0 0 0.0015942)
(0 0 0.00158805)
(0 0 0.00158161)
(0 0 0.00157488)
(0 0 0.00156788)
(0 0 0.00156061)
(0 0 0.00155307)
(0 0 0.00154527)
(0 0 0.00153721)
(0 0 0.0015289)
(0 0 0.00152034)
(0 0 0.00151155)
(0 0 0.00150252)
(0 0 0.00149326)
(0 0 0.00148378)
(0 0 0.00147408)
(0 0 0.00146417)
(0 0 0.00145405)
(0 0 0.00144374)
(0 0 0.00143322)
(0 0 0.00142252)
(0 0 0.00141163)
(0 0 0.00140057)
(0 0 0.00138932)
(0 0 0.00137791)
(0 0 0.00136634)
(0 0 0.00135461)
(0 0 0.00134272)
(0 0 0.00133069)
(0 0 0.00131851)
(0 0 0.0013062)
(0 0 0.00129374)
(0 0 0.00128117)
(0 0 0.00126846)
(0 0 0.00125564)
(0 0 0.0012427)
(0 0 0.00122964)
(0 0 0.00121648)
(0 0 0.00120322)
(0 0 0.00118986)
(0 0 0.0011764)
(0 0 0.00116285)
(0 0 0.00114922)
(0 0 0.0011355)
(0 0 0.0011217)
(0 0 0.00110782)
(0 0 0.00109387)
(0 0 0.00107985)
(0 0 0.00106576)
(0 0 0.00105161)
(0 0 0.0010374)
(0 0 0.00102313)
(0 0 0.00100881)
(0 0 0.000994433)
(0 0 0.000980007)
(0 0 0.000965534)
(0 0 0.000951017)
(0 0 0.000936458)
(0 0 0.00092186)
(0 0 0.000907223)
(0 0 0.000892552)
(0 0 0.000877848)
(0 0 0.000863112)
(0 0 0.000848348)
(0 0 0.000833556)
(0 0 0.000818738)
(0 0 0.000803897)
(0 0 0.000789033)
(0 0 0.000774149)
(0 0 0.000759246)
(0 0 0.000744325)
(0 0 0.000729388)
(0 0 0.000714435)
(0 0 0.000699469)
(0 0 0.000684491)
(0 0 0.000669501)
(0 0 0.000654501)
(0 0 0.000639491)
(0 0 0.000624473)
(0 0 0.000609447)
(0 0 0.000594415)
(0 0 0.000579377)
(0 0 0.000564334)
(0 0 0.000549286)
(0 0 0.000534235)
(0 0 0.00051918)
(0 0 0.000504123)
(0 0 0.000489064)
(0 0 0.000474003)
(0 0 0.000458941)
(0 0 0.000443879)
(0 0 0.000428816)
(0 0 0.000413753)
(0 0 0.00039869)
(0 0 0.000383628)
(0 0 0.000368567)
(0 0 0.000353506)
(0 0 0.000338447)
(0 0 0.000323389)
(0 0 0.000308333)
(0 0 0.000293278)
(0 0 0.000278225)
(0 0 0.000263173)
(0 0 0.000248123)
(0 0 0.000233075)
(0 0 0.000218029)
(0 0 0.000202984)
(0 0 0.000187941)
(0 0 0.000172899)
(0 0 0.000157859)
(0 0 0.00014282)
(0 0 0.000127783)
(0 0 0.000112746)
(0 0 9.77113e-05)
(0 0 8.26771e-05)
(0 0 6.76438e-05)
(0 0 5.26111e-05)
(0 0 3.7579e-05)
(0 0 2.25472e-05)
(0 0 7.51572e-06)
(0 0 2.78878e-05)
(0 0 8.36636e-05)
(0 0 0.00013944)
(0 0 0.000195216)
(0 0 0.000250993)
(0 0 0.00030677)
(0 0 0.000362547)
(0 0 0.000418325)
(0 0 0.000474103)
(0 0 0.000529882)
(0 0 0.00058566)
(0 0 0.000641437)
(0 0 0.000697212)
(0 0 0.000752986)
(0 0 0.000808756)
(0 0 0.000864522)
(0 0 0.000920283)
(0 0 0.000976038)
(0 0 0.00103178)
(0 0 0.00108752)
(0 0 0.00114324)
(0 0 0.00119895)
(0 0 0.00125465)
(0 0 0.00131032)
(0 0 0.00136597)
(0 0 0.00142159)
(0 0 0.00147719)
(0 0 0.00153275)
(0 0 0.00158827)
(0 0 0.00164375)
(0 0 0.00169919)
(0 0 0.00175457)
(0 0 0.00180989)
(0 0 0.00186515)
(0 0 0.00192034)
(0 0 0.00197546)
(0 0 0.00203049)
(0 0 0.00208543)
(0 0 0.00214027)
(0 0 0.002195)
(0 0 0.00224962)
(0 0 0.00230411)
(0 0 0.00235847)
(0 0 0.00241268)
(0 0 0.00246674)
(0 0 0.00252064)
(0 0 0.00257436)
(0 0 0.00262789)
(0 0 0.00268122)
(0 0 0.00273434)
(0 0 0.00278724)
(0 0 0.0028399)
(0 0 0.0028923)
(0 0 0.00294444)
(0 0 0.0029963)
(0 0 0.00304786)
(0 0 0.00309912)
(0 0 0.00315004)
(0 0 0.00320063)
(0 0 0.00325086)
(0 0 0.00330071)
(0 0 0.00335017)
(0 0 0.00339922)
(0 0 0.00344784)
(0 0 0.00349602)
(0 0 0.00354373)
(0 0 0.00359096)
(0 0 0.0036377)
(0 0 0.00368391)
(0 0 0.00372959)
(0 0 0.0037747)
(0 0 0.00381925)
(0 0 0.00386319)
(0 0 0.00390653)
(0 0 0.00394922)
(0 0 0.00399127)
(0 0 0.00403264)
(0 0 0.00407332)
(0 0 0.00411328)
(0 0 0.00415252)
(0 0 0.004191)
(0 0 0.00422872)
(0 0 0.00426565)
(0 0 0.00430177)
(0 0 0.00433707)
(0 0 0.00437153)
(0 0 0.00440513)
(0 0 0.00443786)
(0 0 0.00446969)
(0 0 0.00450061)
(0 0 0.00453061)
(0 0 0.00455968)
(0 0 0.00458778)
(0 0 0.00461492)
(0 0 0.00464108)
(0 0 0.00466624)
(0 0 0.0046904)
(0 0 0.00471354)
(0 0 0.00473565)
(0 0 0.00475672)
(0 0 0.00477675)
(0 0 0.00479571)
(0 0 0.00481361)
(0 0 0.00483044)
(0 0 0.00484619)
(0 0 0.00486085)
(0 0 0.00487443)
(0 0 0.00488691)
(0 0 0.00489829)
(0 0 0.00490858)
(0 0 0.00491776)
(0 0 0.00492584)
(0 0 0.00493282)
(0 0 0.0049387)
(0 0 0.00494348)
(0 0 0.00494717)
(0 0 0.00494976)
(0 0 0.00495126)
(0 0 0.00495167)
(0 0 0.00495101)
(0 0 0.00494927)
(0 0 0.00494646)
(0 0 0.0049426)
(0 0 0.00493768)
(0 0 0.00493172)
(0 0 0.00492473)
(0 0 0.00491672)
(0 0 0.00490769)
(0 0 0.00489766)
(0 0 0.00488664)
(0 0 0.00487465)
(0 0 0.00486169)
(0 0 0.00484777)
(0 0 0.00483292)
(0 0 0.00481715)
(0 0 0.00480047)
(0 0 0.00478289)
(0 0 0.00476443)
(0 0 0.0047451)
(0 0 0.00472493)
(0 0 0.00470392)
(0 0 0.00468209)
(0 0 0.00465947)
(0 0 0.00463605)
(0 0 0.00461187)
(0 0 0.00458694)
(0 0 0.00456127)
(0 0 0.00453488)
(0 0 0.00450778)
(0 0 0.00448)
(0 0 0.00445156)
(0 0 0.00442245)
(0 0 0.00439272)
(0 0 0.00436236)
(0 0 0.0043314)
(0 0 0.00429986)
(0 0 0.00426774)
(0 0 0.00423507)
(0 0 0.00420187)
(0 0 0.00416814)
(0 0 0.0041339)
(0 0 0.00409918)
(0 0 0.00406398)
(0 0 0.00402832)
(0 0 0.00399221)
(0 0 0.00395567)
(0 0 0.00391872)
(0 0 0.00388136)
(0 0 0.00384362)
(0 0 0.0038055)
(0 0 0.00376702)
(0 0 0.0037282)
(0 0 0.00368904)
(0 0 0.00364955)
(0 0 0.00360976)
(0 0 0.00356967)
(0 0 0.0035293)
(0 0 0.00348865)
(0 0 0.00344774)
(0 0 0.00340657)
(0 0 0.00336517)
(0 0 0.00332354)
(0 0 0.00328168)
(0 0 0.00323962)
(0 0 0.00319736)
(0 0 0.0031549)
(0 0 0.00311226)
(0 0 0.00306945)
(0 0 0.00302648)
(0 0 0.00298335)
(0 0 0.00294007)
(0 0 0.00289665)
(0 0 0.00285309)
(0 0 0.00280941)
(0 0 0.00276562)
(0 0 0.0027217)
(0 0 0.00267769)
(0 0 0.00263357)
(0 0 0.00258937)
(0 0 0.00254507)
(0 0 0.00250069)
(0 0 0.00245624)
(0 0 0.00241171)
(0 0 0.00236712)
(0 0 0.00232247)
(0 0 0.00227775)
(0 0 0.00223299)
(0 0 0.00218818)
(0 0 0.00214332)
(0 0 0.00209842)
(0 0 0.00205348)
(0 0 0.00200851)
(0 0 0.00196351)
(0 0 0.00191848)
(0 0 0.00187343)
(0 0 0.00182835)
(0 0 0.00178325)
(0 0 0.00173813)
(0 0 0.001693)
(0 0 0.00164786)
(0 0 0.00160271)
(0 0 0.00155754)
(0 0 0.00151237)
(0 0 0.00146719)
(0 0 0.00142201)
(0 0 0.00137682)
(0 0 0.00133164)
(0 0 0.00128645)
(0 0 0.00124126)
(0 0 0.00119607)
(0 0 0.00115088)
(0 0 0.0011057)
(0 0 0.00106052)
(0 0 0.00101534)
(0 0 0.000970166)
(0 0 0.000924997)
(0 0 0.000879832)
(0 0 0.000834672)
(0 0 0.000789517)
(0 0 0.000744368)
(0 0 0.000699223)
(0 0 0.000654084)
(0 0 0.000608949)
(0 0 0.00056382)
(0 0 0.000518695)
(0 0 0.000473575)
(0 0 0.000428459)
(0 0 0.000383347)
(0 0 0.000338238)
(0 0 0.000293133)
(0 0 0.000248031)
(0 0 0.000202931)
(0 0 0.000157833)
(0 0 0.000112737)
(0 0 6.76415e-05)
(0 0 2.25471e-05)
(0 0 4.64796e-05)
(0 0 0.000139439)
(0 0 0.000232399)
(0 0 0.000325359)
(0 0 0.00041832)
(0 0 0.000511282)
(0 0 0.000604245)
(0 0 0.000697209)
(0 0 0.000790173)
(0 0 0.000883137)
(0 0 0.0009761)
(0 0 0.00106906)
(0 0 0.00116202)
(0 0 0.00125498)
(0 0 0.00134793)
(0 0 0.00144088)
(0 0 0.00153381)
(0 0 0.00162674)
(0 0 0.00171965)
(0 0 0.00181255)
(0 0 0.00190542)
(0 0 0.00199827)
(0 0 0.0020911)
(0 0 0.00218389)
(0 0 0.00227664)
(0 0 0.00236936)
(0 0 0.00246202)
(0 0 0.00255462)
(0 0 0.00264717)
(0 0 0.00273964)
(0 0 0.00283204)
(0 0 0.00292435)
(0 0 0.00301656)
(0 0 0.00310867)
(0 0 0.00320066)
(0 0 0.00329252)
(0 0 0.00338425)
(0 0 0.00347582)
(0 0 0.00356723)
(0 0 0.00365846)
(0 0 0.0037495)
(0 0 0.00384033)
(0 0 0.00393094)
(0 0 0.00402131)
(0 0 0.00411142)
(0 0 0.00420126)
(0 0 0.00429081)
(0 0 0.00438004)
(0 0 0.00446894)
(0 0 0.00455749)
(0 0 0.00464566)
(0 0 0.00473344)
(0 0 0.0048208)
(0 0 0.00490771)
(0 0 0.00499416)
(0 0 0.00508012)
(0 0 0.00516556)
(0 0 0.00525045)
(0 0 0.00533478)
(0 0 0.00541851)
(0 0 0.00550161)
(0 0 0.00558407)
(0 0 0.00566583)
(0 0 0.00574689)
(0 0 0.00582721)
(0 0 0.00590675)
(0 0 0.0059855)
(0 0 0.0060634)
(0 0 0.00614045)
(0 0 0.0062166)
(0 0 0.00629182)
(0 0 0.00636607)
(0 0 0.00643934)
(0 0 0.00651158)
(0 0 0.00658277)
(0 0 0.00665286)
(0 0 0.00672183)
(0 0 0.00678965)
(0 0 0.00685628)
(0 0 0.00692169)
(0 0 0.00698586)
(0 0 0.00704874)
(0 0 0.00711031)
(0 0 0.00717054)
(0 0 0.00722939)
(0 0 0.00728684)
(0 0 0.00734286)
(0 0 0.00739742)
(0 0 0.00745049)
(0 0 0.00750205)
(0 0 0.00755207)
(0 0 0.00760052)
(0 0 0.00764738)
(0 0 0.00769263)
(0 0 0.00773624)
(0 0 0.00777819)
(0 0 0.00781847)
(0 0 0.00785704)
(0 0 0.00789391)
(0 0 0.00792904)
(0 0 0.00796242)
(0 0 0.00799403)
(0 0 0.00802388)
(0 0 0.00805193)
(0 0 0.00807818)
(0 0 0.00810263)
(0 0 0.00812526)
(0 0 0.00814606)
(0 0 0.00816504)
(0 0 0.00818218)
(0 0 0.00819749)
(0 0 0.00821096)
(0 0 0.0082226)
(0 0 0.00823239)
(0 0 0.00824036)
(0 0 0.00824649)
(0 0 0.00825081)
(0 0 0.0082533)
(0 0 0.00825399)
(0 0 0.00825287)
(0 0 0.00824997)
(0 0 0.00824528)
(0 0 0.00823883)
(0 0 0.00823063)
(0 0 0.00822068)
(0 0 0.00820902)
(0 0 0.00819565)
(0 0 0.00818059)
(0 0 0.00816387)
(0 0 0.00814549)
(0 0 0.00812548)
(0 0 0.00810387)
(0 0 0.00808066)
(0 0 0.0080559)
(0 0 0.00802959)
(0 0 0.00800177)
(0 0 0.00797246)
(0 0 0.00794167)
(0 0 0.00790945)
(0 0 0.00787581)
(0 0 0.00784078)
(0 0 0.00780438)
(0 0 0.00776665)
(0 0 0.00772761)
(0 0 0.00768729)
(0 0 0.00764571)
(0 0 0.00760291)
(0 0 0.00755891)
(0 0 0.00751373)
(0 0 0.00746742)
(0 0 0.00741998)
(0 0 0.00737146)
(0 0 0.00732188)
(0 0 0.00727127)
(0 0 0.00721966)
(0 0 0.00716706)
(0 0 0.00711352)
(0 0 0.00705906)
(0 0 0.00700369)
(0 0 0.00694746)
(0 0 0.00689039)
(0 0 0.00683249)
(0 0 0.00677381)
(0 0 0.00671435)
(0 0 0.00665416)
(0 0 0.00659325)
(0 0 0.00653164)
(0 0 0.00646937)
(0 0 0.00640645)
(0 0 0.0063429)
(0 0 0.00627876)
(0 0 0.00621403)
(0 0 0.00614875)
(0 0 0.00608293)
(0 0 0.0060166)
(0 0 0.00594977)
(0 0 0.00588247)
(0 0 0.0058147)
(0 0 0.00574651)
(0 0 0.00567789)
(0 0 0.00560887)
(0 0 0.00553947)
(0 0 0.00546971)
(0 0 0.00539959)
(0 0 0.00532914)
(0 0 0.00525837)
(0 0 0.0051873)
(0 0 0.00511594)
(0 0 0.0050443)
(0 0 0.00497241)
(0 0 0.00490027)
(0 0 0.00482789)
(0 0 0.00475529)
(0 0 0.00468249)
(0 0 0.00460948)
(0 0 0.00453629)
(0 0 0.00446292)
(0 0 0.00438939)
(0 0 0.00431571)
(0 0 0.00424187)
(0 0 0.0041679)
(0 0 0.00409381)
(0 0 0.00401959)
(0 0 0.00394527)
(0 0 0.00387084)
(0 0 0.00379632)
(0 0 0.0037217)
(0 0 0.00364701)
(0 0 0.00357224)
(0 0 0.00349741)
(0 0 0.00342251)
(0 0 0.00334756)
(0 0 0.00327255)
(0 0 0.0031975)
(0 0 0.0031224)
(0 0 0.00304727)
(0 0 0.0029721)
(0 0 0.00289691)
(0 0 0.00282169)
(0 0 0.00274645)
(0 0 0.00267119)
(0 0 0.00259591)
(0 0 0.00252062)
(0 0 0.00244533)
(0 0 0.00237002)
(0 0 0.00229471)
(0 0 0.00221939)
(0 0 0.00214408)
(0 0 0.00206876)
(0 0 0.00199345)
(0 0 0.00191813)
(0 0 0.00184283)
(0 0 0.00176752)
(0 0 0.00169223)
(0 0 0.00161694)
(0 0 0.00154166)
(0 0 0.00146638)
(0 0 0.00139111)
(0 0 0.00131586)
(0 0 0.00124061)
(0 0 0.00116537)
(0 0 0.00109013)
(0 0 0.00101491)
(0 0 0.000939695)
(0 0 0.000864487)
(0 0 0.000789287)
(0 0 0.000714094)
(0 0 0.000638907)
(0 0 0.000563727)
(0 0 0.000488552)
(0 0 0.000413382)
(0 0 0.000338216)
(0 0 0.000263053)
(0 0 0.000187893)
(0 0 0.000112735)
(0 0 3.75782e-05)
(0 0 6.50713e-05)
(0 0 0.000195214)
(0 0 0.000325358)
(0 0 0.000455502)
(0 0 0.000585647)
(0 0 0.000715794)
(0 0 0.000845942)
(0 0 0.000976091)
(0 0 0.00110624)
(0 0 0.00123639)
(0 0 0.00136654)
(0 0 0.00149669)
(0 0 0.00162684)
(0 0 0.00175698)
(0 0 0.00188711)
(0 0 0.00201724)
(0 0 0.00214735)
(0 0 0.00227745)
(0 0 0.00240753)
(0 0 0.00253759)
(0 0 0.00266762)
(0 0 0.00279762)
(0 0 0.00292758)
(0 0 0.0030575)
(0 0 0.00318736)
(0 0 0.00331717)
(0 0 0.0034469)
(0 0 0.00357656)
(0 0 0.00370613)
(0 0 0.00383561)
(0 0 0.00396497)
(0 0 0.00409422)
(0 0 0.00422333)
(0 0 0.0043523)
(0 0 0.0044811)
(0 0 0.00460973)
(0 0 0.00473816)
(0 0 0.00486638)
(0 0 0.00499437)
(0 0 0.00512212)
(0 0 0.00524959)
(0 0 0.00537678)
(0 0 0.00550365)
(0 0 0.0056302)
(0 0 0.00575638)
(0 0 0.00588218)
(0 0 0.00600757)
(0 0 0.00613252)
(0 0 0.00625701)
(0 0 0.00638101)
(0 0 0.00650448)
(0 0 0.0066274)
(0 0 0.00674973)
(0 0 0.00687145)
(0 0 0.00699251)
(0 0 0.00711289)
(0 0 0.00723254)
(0 0 0.00735143)
(0 0 0.00746953)
(0 0 0.00758679)
(0 0 0.00770317)
(0 0 0.00781865)
(0 0 0.00793317)
(0 0 0.00804669)
(0 0 0.00815917)
(0 0 0.00827058)
(0 0 0.00838086)
(0 0 0.00848998)
(0 0 0.00859788)
(0 0 0.00870453)
(0 0 0.00880989)
(0 0 0.00891389)
(0 0 0.00901651)
(0 0 0.00911769)
(0 0 0.0092174)
(0 0 0.00931557)
(0 0 0.00941218)
(0 0 0.00950717)
(0 0 0.0096005)
(0 0 0.00969212)
(0 0 0.00978199)
(0 0 0.00987007)
(0 0 0.00995631)
(0 0 0.0100407)
(0 0 0.0101231)
(0 0 0.0102036)
(0 0 0.010282)
(0 0 0.0103585)
(0 0 0.0104328)
(0 0 0.010505)
(0 0 0.0105751)
(0 0 0.010643)
(0 0 0.0107086)
(0 0 0.010772)
(0 0 0.0108331)
(0 0 0.0108918)
(0 0 0.0109482)
(0 0 0.0110023)
(0 0 0.0110539)
(0 0 0.0111031)
(0 0 0.0111499)
(0 0 0.0111941)
(0 0 0.0112359)
(0 0 0.0112752)
(0 0 0.011312)
(0 0 0.0113462)
(0 0 0.0113779)
(0 0 0.011407)
(0 0 0.0114336)
(0 0 0.0114576)
(0 0 0.0114791)
(0 0 0.0114979)
(0 0 0.0115142)
(0 0 0.0115279)
(0 0 0.0115391)
(0 0 0.0115476)
(0 0 0.0115537)
(0 0 0.0115572)
(0 0 0.0115581)
(0 0 0.0115565)
(0 0 0.0115524)
(0 0 0.0115459)
(0 0 0.0115368)
(0 0 0.0115253)
(0 0 0.0115114)
(0 0 0.011495)
(0 0 0.0114763)
(0 0 0.0114552)
(0 0 0.0114317)
(0 0 0.011406)
(0 0 0.0113779)
(0 0 0.0113476)
(0 0 0.0113151)
(0 0 0.0112804)
(0 0 0.0112436)
(0 0 0.0112046)
(0 0 0.0111635)
(0 0 0.0111204)
(0 0 0.0110752)
(0 0 0.0110281)
(0 0 0.010979)
(0 0 0.010928)
(0 0 0.0108751)
(0 0 0.0108204)
(0 0 0.010764)
(0 0 0.0107057)
(0 0 0.0106457)
(0 0 0.0105841)
(0 0 0.0105208)
(0 0 0.0104559)
(0 0 0.0103895)
(0 0 0.0103215)
(0 0 0.0102521)
(0 0 0.0101812)
(0 0 0.0101089)
(0 0 0.0100352)
(0 0 0.00996022)
(0 0 0.00988393)
(0 0 0.00980639)
(0 0 0.00972763)
(0 0 0.00964768)
(0 0 0.0095666)
(0 0 0.0094844)
(0 0 0.00940113)
(0 0 0.00931683)
(0 0 0.00923152)
(0 0 0.00914524)
(0 0 0.00905802)
(0 0 0.0089699)
(0 0 0.0088809)
(0 0 0.00879107)
(0 0 0.00870042)
(0 0 0.008609)
(0 0 0.00851683)
(0 0 0.00842393)
(0 0 0.00833034)
(0 0 0.00823609)
(0 0 0.0081412)
(0 0 0.0080457)
(0 0 0.00794961)
(0 0 0.00785296)
(0 0 0.00775578)
(0 0 0.00765808)
(0 0 0.00755989)
(0 0 0.00746124)
(0 0 0.00736214)
(0 0 0.00726262)
(0 0 0.0071627)
(0 0 0.00706239)
(0 0 0.00696172)
(0 0 0.0068607)
(0 0 0.00675936)
(0 0 0.00665771)
(0 0 0.00655576)
(0 0 0.00645354)
(0 0 0.00635105)
(0 0 0.00624833)
(0 0 0.00614537)
(0 0 0.00604219)
(0 0 0.00593881)
(0 0 0.00583524)
(0 0 0.0057315)
(0 0 0.00562758)
(0 0 0.00552352)
(0 0 0.00541931)
(0 0 0.00531496)
(0 0 0.0052105)
(0 0 0.00510592)
(0 0 0.00500124)
(0 0 0.00489646)
(0 0 0.00479159)
(0 0 0.00468665)
(0 0 0.00458163)
(0 0 0.00447655)
(0 0 0.00437141)
(0 0 0.00426622)
(0 0 0.00416098)
(0 0 0.00405571)
(0 0 0.0039504)
(0 0 0.00384505)
(0 0 0.00373968)
(0 0 0.00363429)
(0 0 0.00352889)
(0 0 0.00342347)
(0 0 0.00331804)
(0 0 0.0032126)
(0 0 0.00310715)
(0 0 0.00300171)
(0 0 0.00289626)
(0 0 0.00279082)
(0 0 0.00268538)
(0 0 0.00257995)
(0 0 0.00247453)
(0 0 0.00236911)
(0 0 0.0022637)
(0 0 0.00215831)
(0 0 0.00205292)
(0 0 0.00194755)
(0 0 0.00184219)
(0 0 0.00173684)
(0 0 0.0016315)
(0 0 0.00152618)
(0 0 0.00142086)
(0 0 0.00131556)
(0 0 0.00121027)
(0 0 0.00110499)
(0 0 0.000999722)
(0 0 0.000894462)
(0 0 0.00078921)
(0 0 0.000683966)
(0 0 0.000578728)
(0 0 0.000473497)
(0 0 0.00036827)
(0 0 0.000263048)
(0 0 0.000157827)
(0 0 5.2609e-05)
(0 0 8.36628e-05)
(0 0 0.000250989)
(0 0 0.000418316)
(0 0 0.000585643)
(0 0 0.000752973)
(0 0 0.000920305)
(0 0 0.00108764)
(0 0 0.00125497)
(0 0 0.00142231)
(0 0 0.00158965)
(0 0 0.00175699)
(0 0 0.00192432)
(0 0 0.00209165)
(0 0 0.00225898)
(0 0 0.0024263)
(0 0 0.00259361)
(0 0 0.00276091)
(0 0 0.00292819)
(0 0 0.00309544)
(0 0 0.00326267)
(0 0 0.00342986)
(0 0 0.00359701)
(0 0 0.00376411)
(0 0 0.00393116)
(0 0 0.00409814)
(0 0 0.00426504)
(0 0 0.00443186)
(0 0 0.00459859)
(0 0 0.0047652)
(0 0 0.00493168)
(0 0 0.00509803)
(0 0 0.00526423)
(0 0 0.00543025)
(0 0 0.00559609)
(0 0 0.00576172)
(0 0 0.00592712)
(0 0 0.00609228)
(0 0 0.00625717)
(0 0 0.00642176)
(0 0 0.00658604)
(0 0 0.00674997)
(0 0 0.00691354)
(0 0 0.0070767)
(0 0 0.00723944)
(0 0 0.00740172)
(0 0 0.0075635)
(0 0 0.00772476)
(0 0 0.00788547)
(0 0 0.00804558)
(0 0 0.00820505)
(0 0 0.00836386)
(0 0 0.00852195)
(0 0 0.00867929)
(0 0 0.00883584)
(0 0 0.00899155)
(0 0 0.00914638)
(0 0 0.00930028)
(0 0 0.00945321)
(0 0 0.00960511)
(0 0 0.00975594)
(0 0 0.00990565)
(0 0 0.0100542)
(0 0 0.0102015)
(0 0 0.0103475)
(0 0 0.0104922)
(0 0 0.0106355)
(0 0 0.0107774)
(0 0 0.0109178)
(0 0 0.0110566)
(0 0 0.0111938)
(0 0 0.0113293)
(0 0 0.0114631)
(0 0 0.0115951)
(0 0 0.0117253)
(0 0 0.0118536)
(0 0 0.0119799)
(0 0 0.0121041)
(0 0 0.0122264)
(0 0 0.0123464)
(0 0 0.0124643)
(0 0 0.0125799)
(0 0 0.0126932)
(0 0 0.0128042)
(0 0 0.0129127)
(0 0 0.0130188)
(0 0 0.0131223)
(0 0 0.0132233)
(0 0 0.0133216)
(0 0 0.0134172)
(0 0 0.0135102)
(0 0 0.0136003)
(0 0 0.0136876)
(0 0 0.0137721)
(0 0 0.0138536)
(0 0 0.0139322)
(0 0 0.0140078)
(0 0 0.0140804)
(0 0 0.0141499)
(0 0 0.0142163)
(0 0 0.0142796)
(0 0 0.0143398)
(0 0 0.0143967)
(0 0 0.0144505)
(0 0 0.014501)
(0 0 0.0145483)
(0 0 0.0145924)
(0 0 0.0146331)
(0 0 0.0146706)
(0 0 0.0147048)
(0 0 0.0147356)
(0 0 0.0147632)
(0 0 0.0147874)
(0 0 0.0148084)
(0 0 0.014826)
(0 0 0.0148403)
(0 0 0.0148514)
(0 0 0.0148591)
(0 0 0.0148635)
(0 0 0.0148647)
(0 0 0.0148627)
(0 0 0.0148574)
(0 0 0.0148489)
(0 0 0.0148373)
(0 0 0.0148224)
(0 0 0.0148045)
(0 0 0.0147834)
(0 0 0.0147593)
(0 0 0.0147321)
(0 0 0.0147019)
(0 0 0.0146687)
(0 0 0.0146326)
(0 0 0.0145936)
(0 0 0.0145518)
(0 0 0.0145071)
(0 0 0.0144596)
(0 0 0.0144095)
(0 0 0.0143566)
(0 0 0.0143011)
(0 0 0.014243)
(0 0 0.0141823)
(0 0 0.0141191)
(0 0 0.0140535)
(0 0 0.0139855)
(0 0 0.0139151)
(0 0 0.0138424)
(0 0 0.0137674)
(0 0 0.0136903)
(0 0 0.0136109)
(0 0 0.0135295)
(0 0 0.013446)
(0 0 0.0133605)
(0 0 0.0132731)
(0 0 0.0131837)
(0 0 0.0130925)
(0 0 0.0129995)
(0 0 0.0129047)
(0 0 0.0128082)
(0 0 0.0127101)
(0 0 0.0126103)
(0 0 0.012509)
(0 0 0.0124061)
(0 0 0.0123018)
(0 0 0.0121961)
(0 0 0.012089)
(0 0 0.0119805)
(0 0 0.0118708)
(0 0 0.0117598)
(0 0 0.0116476)
(0 0 0.0115342)
(0 0 0.0114197)
(0 0 0.0113042)
(0 0 0.0111876)
(0 0 0.01107)
(0 0 0.0109514)
(0 0 0.010832)
(0 0 0.0107116)
(0 0 0.0105904)
(0 0 0.0104683)
(0 0 0.0103455)
(0 0 0.0102219)
(0 0 0.0100976)
(0 0 0.00997259)
(0 0 0.00984694)
(0 0 0.00972067)
(0 0 0.00959379)
(0 0 0.00946634)
(0 0 0.00933835)
(0 0 0.00920984)
(0 0 0.00908084)
(0 0 0.00895137)
(0 0 0.00882146)
(0 0 0.00869114)
(0 0 0.00856041)
(0 0 0.00842931)
(0 0 0.00829785)
(0 0 0.00816606)
(0 0 0.00803396)
(0 0 0.00790156)
(0 0 0.00776888)
(0 0 0.00763594)
(0 0 0.00750276)
(0 0 0.00736935)
(0 0 0.00723573)
(0 0 0.00710191)
(0 0 0.00696791)
(0 0 0.00683374)
(0 0 0.00669941)
(0 0 0.00656493)
(0 0 0.00643033)
(0 0 0.0062956)
(0 0 0.00616076)
(0 0 0.00602582)
(0 0 0.00589078)
(0 0 0.00575567)
(0 0 0.00562048)
(0 0 0.00548522)
(0 0 0.00534991)
(0 0 0.00521454)
(0 0 0.00507913)
(0 0 0.00494368)
(0 0 0.0048082)
(0 0 0.0046727)
(0 0 0.00453717)
(0 0 0.00440162)
(0 0 0.00426606)
(0 0 0.00413049)
(0 0 0.00399492)
(0 0 0.00385934)
(0 0 0.00372376)
(0 0 0.00358819)
(0 0 0.00345263)
(0 0 0.00331707)
(0 0 0.00318152)
(0 0 0.00304598)
(0 0 0.00291046)
(0 0 0.00277495)
(0 0 0.00263945)
(0 0 0.00250397)
(0 0 0.00236851)
(0 0 0.00223306)
(0 0 0.00209762)
(0 0 0.00196221)
(0 0 0.0018268)
(0 0 0.00169142)
(0 0 0.00155604)
(0 0 0.00142069)
(0 0 0.00128534)
(0 0 0.00115001)
(0 0 0.00101469)
(0 0 0.000879373)
(0 0 0.000744069)
(0 0 0.000608774)
(0 0 0.000473484)
(0 0 0.000338199)
(0 0 0.000202918)
(0 0 6.76392e-05)
(0 0 0.000102254)
(0 0 0.000306763)
(0 0 0.000511272)
(0 0 0.000715783)
(0 0 0.000920297)
(0 0 0.00112481)
(0 0 0.00132933)
(0 0 0.00153385)
(0 0 0.00173838)
(0 0 0.0019429)
(0 0 0.00214743)
(0 0 0.00235196)
(0 0 0.00255648)
(0 0 0.002761)
(0 0 0.0029655)
(0 0 0.00317)
(0 0 0.00337448)
(0 0 0.00357894)
(0 0 0.00378338)
(0 0 0.00398778)
(0 0 0.00419214)
(0 0 0.00439645)
(0 0 0.0046007)
(0 0 0.00480489)
(0 0 0.00500899)
(0 0 0.00521301)
(0 0 0.00541692)
(0 0 0.00562072)
(0 0 0.00582438)
(0 0 0.0060279)
(0 0 0.00623124)
(0 0 0.00643441)
(0 0 0.00663736)
(0 0 0.00684009)
(0 0 0.00704257)
(0 0 0.00724477)
(0 0 0.00744667)
(0 0 0.00764825)
(0 0 0.00784947)
(0 0 0.00805031)
(0 0 0.00825072)
(0 0 0.00845069)
(0 0 0.00865018)
(0 0 0.00884914)
(0 0 0.00904754)
(0 0 0.00924535)
(0 0 0.00944252)
(0 0 0.00963901)
(0 0 0.00983477)
(0 0 0.0100298)
(0 0 0.0102239)
(0 0 0.0104173)
(0 0 0.0106096)
(0 0 0.0108011)
(0 0 0.0109915)
(0 0 0.0111808)
(0 0 0.011369)
(0 0 0.011556)
(0 0 0.0117418)
(0 0 0.0119262)
(0 0 0.0121093)
(0 0 0.0122909)
(0 0 0.0124711)
(0 0 0.0126497)
(0 0 0.0128266)
(0 0 0.0130019)
(0 0 0.0131754)
(0 0 0.0133471)
(0 0 0.0135169)
(0 0 0.0136847)
(0 0 0.0138504)
(0 0 0.0140141)
(0 0 0.0141756)
(0 0 0.0143348)
(0 0 0.0144917)
(0 0 0.0146462)
(0 0 0.0147982)
(0 0 0.0149477)
(0 0 0.0150945)
(0 0 0.0152387)
(0 0 0.0153802)
(0 0 0.0155188)
(0 0 0.0156545)
(0 0 0.0157873)
(0 0 0.015917)
(0 0 0.0160437)
(0 0 0.0161671)
(0 0 0.0162874)
(0 0 0.0164044)
(0 0 0.0165181)
(0 0 0.0166283)
(0 0 0.0167351)
(0 0 0.0168384)
(0 0 0.0169382)
(0 0 0.0170343)
(0 0 0.0171268)
(0 0 0.0172156)
(0 0 0.0173006)
(0 0 0.0173819)
(0 0 0.0174593)
(0 0 0.0175328)
(0 0 0.0176025)
(0 0 0.0176683)
(0 0 0.0177301)
(0 0 0.0177879)
(0 0 0.0178418)
(0 0 0.0178916)
(0 0 0.0179374)
(0 0 0.0179792)
(0 0 0.018017)
(0 0 0.0180507)
(0 0 0.0180803)
(0 0 0.0181059)
(0 0 0.0181274)
(0 0 0.0181449)
(0 0 0.0181583)
(0 0 0.0181678)
(0 0 0.0181732)
(0 0 0.0181746)
(0 0 0.0181721)
(0 0 0.0181656)
(0 0 0.0181552)
(0 0 0.0181409)
(0 0 0.0181227)
(0 0 0.0181007)
(0 0 0.0180749)
(0 0 0.0180453)
(0 0 0.018012)
(0 0 0.017975)
(0 0 0.0179344)
(0 0 0.0178902)
(0 0 0.0178425)
(0 0 0.0177912)
(0 0 0.0177365)
(0 0 0.0176785)
(0 0 0.017617)
(0 0 0.0175523)
(0 0 0.0174844)
(0 0 0.0174133)
(0 0 0.017339)
(0 0 0.0172617)
(0 0 0.0171814)
(0 0 0.0170982)
(0 0 0.017012)
(0 0 0.0169231)
(0 0 0.0168314)
(0 0 0.016737)
(0 0 0.0166399)
(0 0 0.0165403)
(0 0 0.0164381)
(0 0 0.0163335)
(0 0 0.0162265)
(0 0 0.0161172)
(0 0 0.0160056)
(0 0 0.0158918)
(0 0 0.0157759)
(0 0 0.0156579)
(0 0 0.0155378)
(0 0 0.0154158)
(0 0 0.0152918)
(0 0 0.015166)
(0 0 0.0150385)
(0 0 0.0149091)
(0 0 0.0147781)
(0 0 0.0146455)
(0 0 0.0145112)
(0 0 0.0143755)
(0 0 0.0142383)
(0 0 0.0140997)
(0 0 0.0139597)
(0 0 0.0138184)
(0 0 0.0136758)
(0 0 0.013532)
(0 0 0.013387)
(0 0 0.0132409)
(0 0 0.0130937)
(0 0 0.0129454)
(0 0 0.0127962)
(0 0 0.012646)
(0 0 0.0124949)
(0 0 0.0123429)
(0 0 0.0121901)
(0 0 0.0120364)
(0 0 0.011882)
(0 0 0.0117269)
(0 0 0.0115711)
(0 0 0.0114146)
(0 0 0.0112575)
(0 0 0.0110998)
(0 0 0.0109415)
(0 0 0.0107826)
(0 0 0.0106233)
(0 0 0.0104635)
(0 0 0.0103032)
(0 0 0.0101425)
(0 0 0.00998139)
(0 0 0.00981989)
(0 0 0.00965803)
(0 0 0.00949583)
(0 0 0.00933332)
(0 0 0.00917051)
(0 0 0.00900742)
(0 0 0.00884408)
(0 0 0.00868049)
(0 0 0.00851668)
(0 0 0.00835267)
(0 0 0.00818846)
(0 0 0.00802408)
(0 0 0.00785954)
(0 0 0.00769485)
(0 0 0.00753002)
(0 0 0.00736507)
(0 0 0.00720002)
(0 0 0.00703486)
(0 0 0.00686961)
(0 0 0.00670428)
(0 0 0.00653888)
(0 0 0.00637342)
(0 0 0.00620791)
(0 0 0.00604235)
(0 0 0.00587675)
(0 0 0.00571112)
(0 0 0.00554546)
(0 0 0.00537978)
(0 0 0.00521409)
(0 0 0.00504839)
(0 0 0.00488268)
(0 0 0.00471697)
(0 0 0.00455126)
(0 0 0.00438556)
(0 0 0.00421986)
(0 0 0.00405417)
(0 0 0.0038885)
(0 0 0.00372284)
(0 0 0.0035572)
(0 0 0.00339157)
(0 0 0.00322597)
(0 0 0.00306038)
(0 0 0.00289481)
(0 0 0.00272926)
(0 0 0.00256373)
(0 0 0.00239822)
(0 0 0.00223273)
(0 0 0.00206726)
(0 0 0.0019018)
(0 0 0.00173637)
(0 0 0.00157095)
(0 0 0.00140554)
(0 0 0.00124015)
(0 0 0.00107477)
(0 0 0.000909403)
(0 0 0.000744044)
(0 0 0.000578693)
(0 0 0.000413348)
(0 0 0.000248007)
(0 0 8.26686e-05)
(0 0 0.000120845)
(0 0 0.000362535)
(0 0 0.000604227)
(0 0 0.000845921)
(0 0 0.00108762)
(0 0 0.00132932)
(0 0 0.00157102)
(0 0 0.00181273)
(0 0 0.00205444)
(0 0 0.00229616)
(0 0 0.00253788)
(0 0 0.00277959)
(0 0 0.00302131)
(0 0 0.00326302)
(0 0 0.00350472)
(0 0 0.00374641)
(0 0 0.00398808)
(0 0 0.00422973)
(0 0 0.00447134)
(0 0 0.00471293)
(0 0 0.00495446)
(0 0 0.00519594)
(0 0 0.00543735)
(0 0 0.00567869)
(0 0 0.00591994)
(0 0 0.00616108)
(0 0 0.0064021)
(0 0 0.00664299)
(0 0 0.00688372)
(0 0 0.00712428)
(0 0 0.00736464)
(0 0 0.00760479)
(0 0 0.0078447)
(0 0 0.00808434)
(0 0 0.00832369)
(0 0 0.00856272)
(0 0 0.00880139)
(0 0 0.00903969)
(0 0 0.00927756)
(0 0 0.00951499)
(0 0 0.00975193)
(0 0 0.00998833)
(0 0 0.0102242)
(0 0 0.0104594)
(0 0 0.010694)
(0 0 0.0109278)
(0 0 0.011161)
(0 0 0.0113933)
(0 0 0.0116247)
(0 0 0.0118553)
(0 0 0.0120849)
(0 0 0.0123135)
(0 0 0.012541)
(0 0 0.0127673)
(0 0 0.0129925)
(0 0 0.0132164)
(0 0 0.0134389)
(0 0 0.0136601)
(0 0 0.0138797)
(0 0 0.0140979)
(0 0 0.0143144)
(0 0 0.0145292)
(0 0 0.0147423)
(0 0 0.0149535)
(0 0 0.0151628)
(0 0 0.0153701)
(0 0 0.0155753)
(0 0 0.0157783)
(0 0 0.0159791)
(0 0 0.0161776)
(0 0 0.0163737)
(0 0 0.0165673)
(0 0 0.0167583)
(0 0 0.0169466)
(0 0 0.0171322)
(0 0 0.0173149)
(0 0 0.0174948)
(0 0 0.0176716)
(0 0 0.0178453)
(0 0 0.0180159)
(0 0 0.0181832)
(0 0 0.0183472)
(0 0 0.0185078)
(0 0 0.0186648)
(0 0 0.0188183)
(0 0 0.0189681)
(0 0 0.0191142)
(0 0 0.0192565)
(0 0 0.0193949)
(0 0 0.0195294)
(0 0 0.0196598)
(0 0 0.0197862)
(0 0 0.0199084)
(0 0 0.0200264)
(0 0 0.0201401)
(0 0 0.0202495)
(0 0 0.0203545)
(0 0 0.0204551)
(0 0 0.0205512)
(0 0 0.0206428)
(0 0 0.0207298)
(0 0 0.0208122)
(0 0 0.02089)
(0 0 0.0209631)
(0 0 0.0210315)
(0 0 0.0210952)
(0 0 0.0211541)
(0 0 0.0212083)
(0 0 0.0212577)
(0 0 0.0213023)
(0 0 0.0213422)
(0 0 0.0213772)
(0 0 0.0214074)
(0 0 0.0214329)
(0 0 0.0214535)
(0 0 0.0214694)
(0 0 0.0214805)
(0 0 0.0214868)
(0 0 0.0214885)
(0 0 0.0214854)
(0 0 0.0214777)
(0 0 0.0214653)
(0 0 0.0214483)
(0 0 0.0214268)
(0 0 0.0214007)
(0 0 0.0213701)
(0 0 0.021335)
(0 0 0.0212956)
(0 0 0.0212518)
(0 0 0.0212037)
(0 0 0.0211514)
(0 0 0.0210948)
(0 0 0.0210341)
(0 0 0.0209694)
(0 0 0.0209006)
(0 0 0.0208279)
(0 0 0.0207513)
(0 0 0.0206709)
(0 0 0.0205867)
(0 0 0.0204988)
(0 0 0.0204073)
(0 0 0.0203123)
(0 0 0.0202137)
(0 0 0.0201118)
(0 0 0.0200065)
(0 0 0.019898)
(0 0 0.0197863)
(0 0 0.0196714)
(0 0 0.0195535)
(0 0 0.0194327)
(0 0 0.0193089)
(0 0 0.0191823)
(0 0 0.019053)
(0 0 0.018921)
(0 0 0.0187864)
(0 0 0.0186492)
(0 0 0.0185096)
(0 0 0.0183675)
(0 0 0.0182232)
(0 0 0.0180766)
(0 0 0.0179278)
(0 0 0.0177768)
(0 0 0.0176239)
(0 0 0.0174689)
(0 0 0.017312)
(0 0 0.0171533)
(0 0 0.0169927)
(0 0 0.0168304)
(0 0 0.0166665)
(0 0 0.0165009)
(0 0 0.0163338)
(0 0 0.0161652)
(0 0 0.0159951)
(0 0 0.0158237)
(0 0 0.0156509)
(0 0 0.0154768)
(0 0 0.0153015)
(0 0 0.015125)
(0 0 0.0149474)
(0 0 0.0147688)
(0 0 0.014589)
(0 0 0.0144083)
(0 0 0.0142267)
(0 0 0.0140441)
(0 0 0.0138607)
(0 0 0.0136765)
(0 0 0.0134915)
(0 0 0.0133057)
(0 0 0.0131192)
(0 0 0.0129321)
(0 0 0.0127443)
(0 0 0.012556)
(0 0 0.012367)
(0 0 0.0121775)
(0 0 0.0119876)
(0 0 0.0117971)
(0 0 0.0116062)
(0 0 0.0114148)
(0 0 0.0112231)
(0 0 0.011031)
(0 0 0.0108385)
(0 0 0.0106457)
(0 0 0.0104527)
(0 0 0.0102593)
(0 0 0.0100657)