/*--------------------------------*- C++ -*----------------------------------*\
| =========                 |                                                 |
| \\      /  F ield         | OpenFOAM: The Open Source CFD Toolbox           |
|  \\    /   O peration     | Version:  v2012                                 |
|   \\  /    A nd           | Website:  www.openfoam.com                      |
|    \\/     M anipulation  |                                                 |
\*---------------------------------------------------------------------------*/
FoamFile
{
    version     2.0;
    format      ascii;
    class       volScalarField;
    location    "8.5";
    object      W;
}
// * * * * * * * * * * * * * * * * * * * * * * * * * * * * * * * * * * * * * //

dimensions      [0 0 -1 0 0 0 0];


internalField   nonuniform List<scalar> 
65536
(
5.08192e-18
5.2888e-18
5.7118e-18
6.36453e-18
7.26799e-18
8.45118e-18
9.95189e-18
1.18178e-17
1.41077e-17
1.68934e-17
2.0261e-17
2.43138e-17
2.91745e-17
3.49886e-17
4.19276e-17
5.01933e-17
6.00225e-17
7.16925e-17
8.55275e-17
1.01905e-16
1.21266e-16
1.44121e-16
1.71063e-16
2.0278e-16
2.40066e-16
2.8384e-16
3.35159e-16
3.9524e-16
4.65481e-16
5.47487e-16
6.43095e-16
7.54405e-16
8.83814e-16
1.03405e-15
1.20823e-15
1.40987e-15
1.64297e-15
1.91206e-15
2.22225e-15
2.5793e-15
2.98971e-15
3.46076e-15
4.00063e-15
4.61848e-15
5.32453e-15
6.1302e-15
7.04819e-15
8.09261e-15
9.27911e-15
1.0625e-14
1.21495e-14
1.38736e-14
1.58206e-14
1.8016e-14
2.04876e-14
2.3266e-14
2.63846e-14
2.98796e-14
3.37903e-14
3.81595e-14
4.30332e-14
4.84613e-14
5.44974e-14
6.11988e-14
6.8627e-14
7.68479e-14
8.59312e-14
9.59513e-14
1.06987e-13
1.19121e-13
1.3244e-13
1.47037e-13
1.63007e-13
1.8045e-13
1.99469e-13
2.20171e-13
2.42666e-13
2.67067e-13
2.93488e-13
3.22047e-13
3.5286e-13
3.86046e-13
4.2172e-13
4.59999e-13
5.00994e-13
5.44815e-13
5.91566e-13
6.41345e-13
6.9424e-13
7.50334e-13
8.09695e-13
8.72383e-13
9.3844e-13
1.00789e-12
1.08076e-12
1.15702e-12
1.23665e-12
1.31959e-12
1.40577e-12
1.49509e-12
1.5874e-12
1.68256e-12
1.78036e-12
1.88059e-12
1.98299e-12
2.08727e-12
2.19309e-12
2.30012e-12
2.40795e-12
2.51616e-12
2.6243e-12
2.73188e-12
2.83838e-12
2.94327e-12
3.04599e-12
3.14594e-12
3.24253e-12
3.33515e-12
3.4232e-12
3.50604e-12
3.58308e-12
3.65371e-12
3.71735e-12
3.77344e-12
3.82146e-12
3.86092e-12
3.89139e-12
3.91247e-12
3.92383e-12
3.92521e-12
3.91642e-12
3.89733e-12
3.86791e-12
3.82821e-12
3.77836e-12
3.71857e-12
3.64916e-12
3.57053e-12
3.48314e-12
3.38757e-12
3.28445e-12
3.17448e-12
3.05844e-12
2.93716e-12
2.81151e-12
2.68239e-12
2.55075e-12
2.41754e-12
2.28371e-12
2.15021e-12
2.01797e-12
1.8879e-12
1.76086e-12
1.63768e-12
1.51911e-12
1.40587e-12
1.29859e-12
1.19783e-12
1.10408e-12
1.01776e-12
9.39192e-13
8.68627e-13
8.06238e-13
7.52115e-13
7.06274e-13
6.68655e-13
6.39122e-13
6.17473e-13
6.03434e-13
5.96667e-13
5.96771e-13
6.03284e-13
6.15687e-13
6.33405e-13
6.55815e-13
6.82245e-13
7.11984e-13
7.44285e-13
7.78371e-13
8.13449e-13
8.48712e-13
8.83357e-13
9.16592e-13
9.4765e-13
9.75805e-13
1.00038e-12
1.02077e-12
1.03644e-12
1.04695e-12
1.05195e-12
1.05123e-12
1.04465e-12
1.03222e-12
1.01404e-12
9.90334e-13
9.61436e-13
9.27765e-13
8.89827e-13
8.48193e-13
8.0349e-13
7.56375e-13
7.07525e-13
6.57616e-13
6.07305e-13
5.57217e-13
5.07931e-13
4.5997e-13
4.1379e-13
3.69775e-13
3.28235e-13
2.89405e-13
2.53445e-13
2.20446e-13
1.90434e-13
1.6338e-13
1.39204e-13
1.17783e-13
9.89661e-14
8.25743e-14
6.84141e-14
5.62831e-14
4.59758e-14
3.72896e-14
3.00291e-14
2.40095e-14
1.90589e-14
1.50203e-14
1.1752e-14
9.12835e-15
7.03895e-15
5.38828e-15
4.09459e-15
3.08873e-15
2.31286e-15
1.71914e-15
1.26841e-15
9.28931e-16
6.75269e-16
4.87227e-16
3.48932e-16
2.48026e-16
1.74982e-16
1.22524e-16
8.51488e-17
5.87296e-17
4.02027e-17
2.73135e-17
1.84184e-17
1.23297e-17
8.1977e-18
5.42027e-18
3.57559e-18
2.37229e-18
1.61332e-18
1.17045e-18
9.66949e-19
7.28552e-18
7.58161e-18
8.18727e-18
9.12191e-18
1.04155e-17
1.21095e-17
1.4258e-17
1.6929e-17
2.02065e-17
2.4193e-17
2.90117e-17
3.48098e-17
4.17627e-17
5.00777e-17
5.99996e-17
7.1816e-17
8.58645e-17
1.0254e-16
1.22305e-16
1.45696e-16
1.73341e-16
2.05965e-16
2.44413e-16
2.89661e-16
3.42837e-16
4.05243e-16
4.7838e-16
5.63972e-16
6.64e-16
7.80733e-16
9.16768e-16
1.07507e-15
1.25903e-15
1.47249e-15
1.71983e-15
2.00601e-15
2.33665e-15
2.71812e-15
3.15757e-15
3.66308e-15
4.24372e-15
4.90968e-15
5.67237e-15
6.54453e-15
7.5404e-15
8.67579e-15
9.96833e-15
1.14375e-14
1.3105e-14
1.49946e-14
1.71327e-14
1.95482e-14
2.22729e-14
2.53416e-14
2.87924e-14
3.26666e-14
3.70096e-14
4.18702e-14
4.73015e-14
5.33609e-14
6.01101e-14
6.76156e-14
7.59485e-14
8.5185e-14
9.54063e-14
1.06699e-13
1.19154e-13
1.32868e-13
1.47944e-13
1.64489e-13
1.82614e-13
2.02437e-13
2.2408e-13
2.47667e-13
2.7333e-13
3.01201e-13
3.31416e-13
3.64114e-13
3.99434e-13
4.37516e-13
4.78501e-13
5.22527e-13
5.69729e-13
6.20242e-13
6.7419e-13
7.31695e-13
7.92869e-13
8.57813e-13
9.26619e-13
9.99363e-13
1.07611e-12
1.15689e-12
1.24175e-12
1.33067e-12
1.42365e-12
1.52062e-12
1.62153e-12
1.72627e-12
1.8347e-12
1.94666e-12
2.06193e-12
2.1803e-12
2.30147e-12
2.42514e-12
2.55095e-12
2.67851e-12
2.8074e-12
2.93714e-12
3.06724e-12
3.19714e-12
3.32627e-12
3.45402e-12
3.57976e-12
3.70283e-12
3.82254e-12
3.93819e-12
4.04906e-12
4.15445e-12
4.25363e-12
4.3459e-12
4.43055e-12
4.50691e-12
4.57432e-12
4.63219e-12
4.67993e-12
4.71705e-12
4.74307e-12
4.75762e-12
4.76038e-12
4.75111e-12
4.72967e-12
4.69601e-12
4.65016e-12
4.59227e-12
4.52256e-12
4.44139e-12
4.34919e-12
4.24649e-12
4.13394e-12
4.01225e-12
3.88221e-12
3.74472e-12
3.60072e-12
3.4512e-12
3.29722e-12
3.13985e-12
2.98019e-12
2.81936e-12
2.65845e-12
2.49857e-12
2.34077e-12
2.18608e-12
2.03546e-12
1.88984e-12
1.75006e-12
1.61688e-12
1.49099e-12
1.37301e-12
1.26343e-12
1.16269e-12
1.07111e-12
9.88932e-13
9.163e-13
8.53277e-13
7.99833e-13
7.55858e-13
7.21161e-13
6.95473e-13
6.78451e-13
6.69683e-13
6.68687e-13
6.74918e-13
6.87771e-13
7.06582e-13
7.30635e-13
7.59167e-13
7.91371e-13
8.26407e-13
8.63406e-13
9.0148e-13
9.39733e-13
9.77276e-13
1.01323e-12
1.04676e-12
1.07707e-12
1.10341e-12
1.12512e-12
1.14163e-12
1.15246e-12
1.15724e-12
1.15574e-12
1.14783e-12
1.13351e-12
1.11292e-12
1.08632e-12
1.05406e-12
1.01662e-12
9.74557e-13
9.28505e-13
8.79151e-13
8.27217e-13
7.73445e-13
7.18572e-13
6.63315e-13
6.08357e-13
5.54327e-13
5.0179e-13
4.51241e-13
4.03094e-13
3.57684e-13
3.15261e-13
2.75996e-13
2.39983e-13
2.07247e-13
1.7775e-13
1.51403e-13
1.28069e-13
1.07579e-13
8.97363e-14
7.43289e-14
6.11338e-14
4.99262e-14
4.04842e-14
3.25944e-14
2.60549e-14
2.06783e-14
1.62932e-14
1.27455e-14
9.89823e-15
7.63125e-15
5.84068e-15
4.43764e-15
3.34698e-15
2.50586e-15
1.86233e-15
1.37386e-15
1.00603e-15
7.31219e-16
5.27533e-16
3.77753e-16
2.68483e-16
1.89394e-16
1.32603e-16
9.21442e-17
6.35488e-17
4.34979e-17
2.95499e-17
1.99249e-17
1.33373e-17
8.86699e-18
5.86242e-18
3.86702e-18
2.56548e-18
1.7446e-18
1.26563e-18
1.04556e-18
1.25629e-17
1.30726e-17
1.41154e-17
1.57247e-17
1.79521e-17
2.08685e-17
2.4567e-17
2.91643e-17
3.48049e-17
4.16645e-17
4.99544e-17
5.99275e-17
7.18843e-17
8.61805e-17
1.03235e-16
1.23542e-16
1.47678e-16
1.7632e-16
2.10258e-16
2.50411e-16
2.9785e-16
3.53816e-16
4.19749e-16
4.97314e-16
5.88435e-16
6.95329e-16
8.20549e-16
9.67028e-16
1.13813e-15
1.33771e-15
1.57017e-15
1.84053e-15
2.15453e-15
2.51866e-15
2.94032e-15
3.42788e-15
3.9908e-15
4.63976e-15
5.3868e-15
6.24546e-15
7.23092e-15
8.36021e-15
9.65233e-15
1.11285e-14
1.28124e-14
1.47303e-14
1.69112e-14
1.93875e-14
2.21946e-14
2.53719e-14
2.89624e-14
3.30134e-14
3.75768e-14
4.27089e-14
4.84716e-14
5.49316e-14
6.21616e-14
7.02402e-14
7.9252e-14
8.92881e-14
1.00446e-13
1.12832e-13
1.26556e-13
1.41737e-13
1.58502e-13
1.76984e-13
1.97324e-13
2.19669e-13
2.44175e-13
2.71003e-13
3.0032e-13
3.32302e-13
3.67126e-13
4.04976e-13
4.46041e-13
4.90511e-13
5.38579e-13
5.90439e-13
6.46283e-13
7.06302e-13
7.70684e-13
8.39611e-13
9.13257e-13
9.91788e-13
1.07536e-12
1.16411e-12
1.25816e-12
1.35762e-12
1.46258e-12
1.57309e-12
1.68919e-12
1.81088e-12
1.93815e-12
2.07092e-12
2.20911e-12
2.35256e-12
2.50112e-12
2.65454e-12
2.81257e-12
2.97488e-12
3.14112e-12
3.31087e-12
3.48365e-12
3.65895e-12
3.83621e-12
4.01481e-12
4.19407e-12
4.37328e-12
4.55169e-12
4.72849e-12
4.90284e-12
5.07386e-12
5.24066e-12
5.40231e-12
5.55787e-12
5.70638e-12
5.8469e-12
5.97847e-12
6.10017e-12
6.21108e-12
6.31034e-12
6.3971e-12
6.4706e-12
6.53011e-12
6.57499e-12
6.60469e-12
6.61872e-12
6.61673e-12
6.59845e-12
6.56373e-12
6.51254e-12
6.44498e-12
6.36127e-12
6.26176e-12
6.14694e-12
6.01741e-12
5.87392e-12
5.71731e-12
5.54855e-12
5.36872e-12
5.17898e-12
4.98058e-12
4.77484e-12
4.56315e-12
4.34691e-12
4.12756e-12
3.90658e-12
3.68539e-12
3.46544e-12
3.24809e-12
3.03471e-12
2.82654e-12
2.62479e-12
2.43057e-12
2.24487e-12
2.06861e-12
1.90257e-12
1.74742e-12
1.60373e-12
1.47193e-12
1.35235e-12
1.24518e-12
1.15052e-12
1.06835e-12
9.98546e-13
9.40887e-13
8.95054e-13
8.60635e-13
8.37136e-13
8.2398e-13
8.20514e-13
8.26013e-13
8.39686e-13
8.60679e-13
8.88081e-13
9.2093e-13
9.58221e-13
9.98915e-13
1.04194e-12
1.08623e-12
1.13068e-12
1.17422e-12
1.21582e-12
1.25446e-12
1.2892e-12
1.31917e-12
1.34359e-12
1.3618e-12
1.37324e-12
1.3775e-12
1.37431e-12
1.36356e-12
1.34525e-12
1.31958e-12
1.28686e-12
1.24754e-12
1.20219e-12
1.15148e-12
1.09617e-12
1.03708e-12
9.75059e-13
9.10989e-13
8.45736e-13
7.80144e-13
7.1501e-13
6.51068e-13
5.88976e-13
5.29306e-13
4.72538e-13
4.19054e-13
3.69137e-13
3.22979e-13
2.80681e-13
2.42265e-13
2.07677e-13
1.76805e-13
1.49484e-13
1.25509e-13
1.04645e-13
8.66401e-14
7.12294e-14
5.81471e-14
4.71319e-14
3.79321e-14
3.03105e-14
2.40472e-14
1.89412e-14
1.48121e-14
1.14995e-14
8.86305e-15
6.78147e-15
5.15098e-15
3.88394e-15
2.90713e-15
2.16001e-15
1.59308e-15
1.16629e-15
8.47518e-16
6.11308e-16
4.37655e-16
3.10998e-16
2.19346e-16
1.53547e-16
1.0668e-16
7.35623e-17
5.03445e-17
3.41963e-17
2.30548e-17
1.54304e-17
1.02573e-17
6.78089e-18
4.47238e-18
2.96678e-18
2.01728e-18
1.4633e-18
1.20879e-18
2.29583e-17
2.38882e-17
2.57915e-17
2.87286e-17
3.27934e-17
3.81155e-17
4.48639e-17
5.32515e-17
6.35411e-17
7.60525e-17
9.11703e-17
1.09355e-16
1.31152e-16
1.57209e-16
1.88287e-16
2.25283e-16
2.69246e-16
3.21404e-16
3.83189e-16
4.5627e-16
5.42586e-16
6.44388e-16
7.64281e-16
9.05281e-16
1.07086e-15
1.26504e-15
1.49242e-15
1.75829e-15
2.06873e-15
2.43067e-15
2.85203e-15
3.34187e-15
3.91046e-15
4.56949e-15
5.33219e-15
6.21356e-15
7.23053e-15
8.40217e-15
9.74996e-15
1.1298e-14
1.30733e-14
1.51061e-14
1.74301e-14
2.00829e-14
2.31063e-14
2.65464e-14
3.04546e-14
3.48875e-14
3.99074e-14
4.55829e-14
5.19891e-14
5.92083e-14
6.73303e-14
7.64528e-14
8.66822e-14
9.81335e-14
1.10931e-13
1.25209e-13
1.41111e-13
1.58792e-13
1.78417e-13
2.00162e-13
2.24214e-13
2.50771e-13
2.80041e-13
3.12245e-13
3.47613e-13
3.86385e-13
4.28813e-13
4.75156e-13
5.25682e-13
5.80665e-13
6.40387e-13
7.05133e-13
7.75193e-13
8.50857e-13
9.32415e-13
1.02015e-12
1.11435e-12
1.21529e-12
1.32323e-12
1.43841e-12
1.56108e-12
1.69144e-12
1.82968e-12
1.97597e-12
2.13043e-12
2.29316e-12
2.46422e-12
2.64361e-12
2.83132e-12
3.02724e-12
3.23125e-12
3.44315e-12
3.66269e-12
3.88954e-12
4.12331e-12
4.36356e-12
4.60975e-12
4.86128e-12
5.11748e-12
5.37761e-12
5.64085e-12
5.9063e-12
6.173e-12
6.43993e-12
6.70599e-12
6.97002e-12
7.23082e-12
7.48714e-12
7.73768e-12
7.9811e-12
8.21605e-12
8.44117e-12
8.65507e-12
8.8564e-12
9.0438e-12
9.21595e-12
9.37159e-12
9.50949e-12
9.62851e-12
9.72759e-12
9.80577e-12
9.86218e-12
9.8961e-12
9.90694e-12
9.89424e-12
9.85771e-12
9.79721e-12
9.71278e-12
9.60464e-12
9.47319e-12
9.31899e-12
9.1428e-12
8.94556e-12
8.72835e-12
8.49245e-12
8.23928e-12
7.97039e-12
7.68747e-12
7.39231e-12
7.08681e-12
6.77292e-12
6.45266e-12
6.12808e-12
5.80122e-12
5.47413e-12
5.14881e-12
4.82722e-12
4.51123e-12
4.20261e-12
3.90304e-12
3.61407e-12
3.33709e-12
3.07337e-12
2.824e-12
2.58992e-12
2.37191e-12
2.17058e-12
1.98637e-12
1.81957e-12
1.67029e-12
1.53854e-12
1.42413e-12
1.32677e-12
1.24604e-12
1.18139e-12
1.13217e-12
1.09762e-12
1.07687e-12
1.06899e-12
1.07295e-12
1.08764e-12
1.1119e-12
1.14448e-12
1.18409e-12
1.22941e-12
1.27907e-12
1.33166e-12
1.38581e-12
1.44011e-12
1.49319e-12
1.54372e-12
1.59045e-12
1.63218e-12
1.66784e-12
1.69647e-12
1.71725e-12
1.72952e-12
1.73278e-12
1.72673e-12
1.71124e-12
1.68638e-12
1.65239e-12
1.6097e-12
1.5589e-12
1.50071e-12
1.43599e-12
1.3657e-12
1.29086e-12
1.21256e-12
1.13188e-12
1.04989e-12
9.67651e-13
8.86134e-13
8.06244e-13
7.28787e-13
6.54459e-13
5.8384e-13
5.17388e-13
4.55442e-13
3.98224e-13
3.45847e-13
2.98322e-13
2.55574e-13
2.17453e-13
1.83744e-13
1.54188e-13
1.28487e-13
1.06324e-13
8.73678e-14
7.12866e-14
5.77548e-14
4.64602e-14
3.71087e-14
2.9428e-14
2.31701e-14
1.81118e-14
1.40559e-14
1.08294e-14
8.28306e-15
6.2894e-15
4.74079e-15
3.54736e-15
2.63491e-15
1.94278e-15
1.42191e-15
1.033e-15
7.44903e-16
5.33171e-16
3.78784e-16
2.67096e-16
1.86933e-16
1.29851e-16
8.95226e-17
6.12564e-17
4.1601e-17
2.80425e-17
1.87657e-17
1.24726e-17
8.24422e-18
5.4368e-18
3.60605e-18
2.45164e-18
1.77817e-18
1.46878e-18
4.24013e-17
4.41165e-17
4.76274e-17
5.30454e-17
6.05434e-17
7.036e-17
8.28061e-17
9.8274e-17
1.17247e-16
1.40314e-16
1.68183e-16
2.01699e-16
2.41868e-16
2.89878e-16
3.47131e-16
4.15271e-16
4.96227e-16
5.92253e-16
7.05977e-16
8.40461e-16
9.99261e-16
1.1865e-15
1.40696e-15
1.66614e-15
1.97043e-15
2.32713e-15
2.7447e-15
3.23277e-15
3.80244e-15
4.46635e-15
5.23896e-15
6.13671e-15
7.17831e-15
8.38499e-15
9.7808e-15
1.13929e-14
1.3252e-14
1.53926e-14
1.78534e-14
2.06781e-14
2.39153e-14
2.76193e-14
3.18509e-14
3.66773e-14
4.21734e-14
4.84219e-14
5.55143e-14
6.35515e-14
7.26441e-14
8.29139e-14
9.44939e-14
1.07529e-13
1.22178e-13
1.38612e-13
1.57018e-13
1.77595e-13
2.00562e-13
2.2615e-13
2.54608e-13
2.86204e-13
3.21219e-13
3.59956e-13
4.02731e-13
4.4988e-13
5.01757e-13
5.58728e-13
6.2118e-13
6.89511e-13
7.64133e-13
8.45473e-13
9.33963e-13
1.03005e-12
1.13418e-12
1.2468e-12
1.36838e-12
1.49935e-12
1.64016e-12
1.79125e-12
1.95301e-12
2.12587e-12
2.31017e-12
2.50628e-12
2.71448e-12
2.93505e-12
3.16821e-12
3.41412e-12
3.67288e-12
3.94455e-12
4.22908e-12
4.52638e-12
4.83627e-12
5.15846e-12
5.49259e-12
5.83821e-12
6.19473e-12
6.56151e-12
6.93776e-12
7.32261e-12
7.71504e-12
8.11397e-12
8.51817e-12
8.92632e-12
9.33699e-12
9.74864e-12
1.01597e-11
1.05683e-11
1.09728e-11
1.13713e-11
1.17617e-11
1.21423e-11
1.25108e-11
1.28653e-11
1.32036e-11
1.35238e-11
1.38238e-11
1.41016e-11
1.43552e-11
1.45828e-11
1.47827e-11
1.49532e-11
1.50928e-11
1.52001e-11
1.5274e-11
1.53134e-11
1.53177e-11
1.52861e-11
1.52184e-11
1.51145e-11
1.49746e-11
1.4799e-11
1.45885e-11
1.4344e-11
1.40667e-11
1.37581e-11
1.34198e-11
1.30538e-11
1.26623e-11
1.22475e-11
1.18121e-11
1.13587e-11
1.08901e-11
1.04091e-11
9.91888e-12
9.42231e-12
8.92246e-12
8.42229e-12
7.92477e-12
7.43272e-12
6.9489e-12
6.4759e-12
6.01616e-12
5.57191e-12
5.1452e-12
4.73787e-12
4.35151e-12
3.98747e-12
3.64689e-12
3.33065e-12
3.03939e-12
2.77353e-12
2.53325e-12
2.31852e-12
2.12913e-12
1.96464e-12
1.82447e-12
1.70785e-12
1.61386e-12
1.54145e-12
1.48944e-12
1.45653e-12
1.44133e-12
1.44231e-12
1.45791e-12
1.48645e-12
1.52621e-12
1.5754e-12
1.63218e-12
1.69469e-12
1.76106e-12
1.82942e-12
1.8979e-12
1.96471e-12
2.02809e-12
2.08641e-12
2.13812e-12
2.18184e-12
2.21634e-12
2.24059e-12
2.25376e-12
2.25525e-12
2.2447e-12
2.22198e-12
2.18722e-12
2.14077e-12
2.08321e-12
2.01534e-12
1.93812e-12
1.85268e-12
1.76027e-12
1.66223e-12
1.55995e-12
1.45483e-12
1.34826e-12
1.24158e-12
1.13603e-12
1.03277e-12
9.32806e-13
8.37022e-13
7.46141e-13
6.60732e-13
5.8121e-13
5.0784e-13
4.40748e-13
3.79934e-13
3.25286e-13
2.76596e-13
2.3358e-13
1.95894e-13
1.6315e-13
1.34935e-13
1.10819e-13
9.03754e-14
7.31842e-14
5.88442e-14
4.69785e-14
3.72385e-14
2.9307e-14
2.28996e-14
1.77644e-14
1.36814e-14
1.04606e-14
7.94e-15
5.98292e-15
4.47534e-15
3.32315e-15
2.44949e-15
1.79224e-15
1.30168e-15
9.38404e-16
6.715e-16
4.76942e-16
3.36233e-16
2.35269e-16
1.63392e-16
1.12624e-16
7.7049e-17
5.23168e-17
3.52597e-17
2.35915e-17
1.56777e-17
1.03612e-17
6.83189e-18
4.53073e-18
3.07987e-18
2.23353e-18
1.84475e-18
7.80354e-17
8.11883e-17
8.76427e-17
9.7603e-17
1.11386e-16
1.29431e-16
1.52308e-16
1.80735e-16
2.15602e-16
2.57986e-16
3.09187e-16
3.70756e-16
4.44535e-16
5.32702e-16
6.37825e-16
7.62917e-16
9.11508e-16
1.08773e-15
1.29638e-15
1.54307e-15
1.83429e-15
2.17759e-15
2.58169e-15
3.05665e-15
3.6141e-15
4.2674e-15
5.0319e-15
5.92522e-15
6.96751e-15
8.18179e-15
9.59433e-15
1.1235e-14
1.31377e-14
1.53411e-14
1.78885e-14
2.08293e-14
2.42188e-14
2.81194e-14
3.26011e-14
3.77423e-14
4.36306e-14
5.03636e-14
5.80502e-14
6.68111e-14
7.67801e-14
8.81049e-14
1.00949e-13
1.15491e-13
1.31928e-13
1.50475e-13
1.71369e-13
1.94864e-13
2.2124e-13
2.50798e-13
2.83863e-13
3.20787e-13
3.61947e-13
4.07746e-13
4.58614e-13
5.15012e-13
5.77425e-13
6.46367e-13
7.22381e-13
8.06035e-13
8.97923e-13
9.98664e-13
1.1089e-12
1.22929e-12
1.36053e-12
1.50329e-12
1.65829e-12
1.82625e-12
2.00788e-12
2.2039e-12
2.415e-12
2.64189e-12
2.88524e-12
3.14569e-12
3.42384e-12
3.72026e-12
4.03547e-12
4.36991e-12
4.72396e-12
5.09793e-12
5.49203e-12
5.90637e-12
6.34097e-12
6.79571e-12
7.27036e-12
7.76456e-12
8.27779e-12
8.80941e-12
9.3586e-12
9.92438e-12
1.05056e-11
1.1101e-11
1.17091e-11
1.23283e-11
1.29566e-11
1.35922e-11
1.42329e-11
1.48763e-11
1.55201e-11
1.61616e-11
1.67982e-11
1.74269e-11
1.80448e-11
1.86489e-11
1.92361e-11
1.98032e-11
2.03472e-11
2.08648e-11
2.1353e-11
2.18085e-11
2.22286e-11
2.26101e-11
2.29504e-11
2.32469e-11
2.34972e-11
2.3699e-11
2.38506e-11
2.39501e-11
2.39962e-11
2.39878e-11
2.39243e-11
2.38052e-11
2.36306e-11
2.34009e-11
2.31168e-11
2.27794e-11
2.23903e-11
2.19514e-11
2.14651e-11
2.09339e-11
2.03609e-11
1.97493e-11
1.91028e-11
1.84251e-11
1.77203e-11
1.69927e-11
1.62466e-11
1.54865e-11
1.47168e-11
1.39422e-11
1.3167e-11
1.23958e-11
1.16326e-11
1.08816e-11
1.01467e-11
9.4314e-12
8.73918e-12
8.07302e-12
7.43566e-12
6.82946e-12
6.25647e-12
5.71835e-12
5.21642e-12
4.75166e-12
4.32469e-12
3.93579e-12
3.58495e-12
3.27184e-12
2.99588e-12
2.75619e-12
2.5517e-12
2.38109e-12
2.24286e-12
2.13533e-12
2.05667e-12
2.0049e-12
1.97792e-12
1.97351e-12
1.98936e-12
2.02309e-12
2.07222e-12
2.13424e-12
2.2066e-12
2.2867e-12
2.37198e-12
2.45987e-12
2.54787e-12
2.63353e-12
2.71453e-12
2.78868e-12
2.85395e-12
2.90851e-12
2.95077e-12
2.97939e-12
2.99333e-12
2.99183e-12
2.97445e-12
2.94109e-12
2.89195e-12
2.82755e-12
2.7487e-12
2.65647e-12
2.55218e-12
2.43733e-12
2.31359e-12
2.18274e-12
2.0466e-12
1.90703e-12
1.76584e-12
1.62477e-12
1.48544e-12
1.34936e-12
1.21782e-12
1.09195e-12
9.72686e-13
8.60736e-13
7.56621e-13
6.60666e-13
5.73011e-13
4.93635e-13
4.22373e-13
3.58936e-13
3.02939e-13
2.5392e-13
2.11362e-13
1.74716e-13
1.43418e-13
1.16902e-13
9.46198e-14
7.60444e-14
6.06831e-14
4.80809e-14
3.78243e-14
2.95428e-14
2.29089e-14
1.76369e-14
1.348e-14
1.02283e-14
7.70461e-15
5.76134e-15
4.27674e-15
3.15145e-15
2.30519e-15
1.67377e-15
1.20633e-15
8.63009e-16
6.12817e-16
4.31923e-16
3.02159e-16
2.09802e-16
1.44586e-16
9.88962e-17
6.71391e-17
4.52417e-17
3.02654e-17
2.01097e-17
1.32882e-17
8.76066e-18
5.80902e-18
3.94827e-18
2.86292e-18
2.36437e-18
1.4256e-16
1.48313e-16
1.60092e-16
1.78269e-16
2.03423e-16
2.3635e-16
2.78092e-16
3.29959e-16
3.93567e-16
4.70882e-16
5.64269e-16
6.76552e-16
8.11085e-16
9.71832e-16
1.16346e-15
1.39146e-15
1.66224e-15
1.98331e-15
2.36341e-15
2.8127e-15
3.343e-15
3.96798e-15
4.70347e-15
5.56773e-15
6.58182e-15
7.76996e-15
9.15994e-15
1.07836e-14
1.26775e-14
1.48831e-14
1.74478e-14
2.04257e-14
2.38779e-14
2.78738e-14
3.24918e-14
3.78202e-14
4.39588e-14
5.10193e-14
5.91274e-14
6.84233e-14
7.90637e-14
9.12231e-14
1.05096e-13
1.20896e-13
1.38863e-13
1.59258e-13
1.8237e-13
2.08517e-13
2.38047e-13
2.71338e-13
3.08806e-13
3.50899e-13
3.98104e-13
4.5095e-13
5.10002e-13
5.75871e-13
6.49209e-13
7.30713e-13
8.21125e-13
9.21231e-13
1.03186e-12
1.1539e-12
1.28825e-12
1.43588e-12
1.59778e-12
1.775e-12
1.96859e-12
2.17964e-12
2.40928e-12
2.65864e-12
2.92885e-12
3.22106e-12
3.5364e-12
3.87599e-12
4.24093e-12
4.63227e-12
5.05101e-12
5.4981e-12
5.97439e-12
6.48068e-12
7.01763e-12
7.5858e-12
8.18562e-12
8.81734e-12
9.4811e-12
1.01768e-11
1.09043e-11
1.16629e-11
1.24522e-11
1.32711e-11
1.41185e-11
1.49931e-11
1.58931e-11
1.68167e-11
1.77617e-11
1.87256e-11
1.97058e-11
2.06992e-11
2.17026e-11
2.27126e-11
2.37254e-11
2.47372e-11
2.57436e-11
2.67405e-11
2.77233e-11
2.86874e-11
2.9628e-11
3.05404e-11
3.14195e-11
3.22606e-11
3.30588e-11
3.38093e-11
3.45074e-11
3.51485e-11
3.57283e-11
3.62426e-11
3.66876e-11
3.70598e-11
3.73558e-11
3.75731e-11
3.7709e-11
3.77618e-11
3.773e-11
3.76126e-11
3.74094e-11
3.71205e-11
3.67467e-11
3.62892e-11
3.57501e-11
3.51318e-11
3.44374e-11
3.36705e-11
3.28352e-11
3.19361e-11
3.09783e-11
2.99674e-11
2.89091e-11
2.78097e-11
2.66755e-11
2.55132e-11
2.43296e-11
2.31314e-11
2.19255e-11
2.07185e-11
1.95171e-11
1.83278e-11
1.71565e-11
1.60092e-11
1.48912e-11
1.38077e-11
1.27632e-11
1.17617e-11
1.0807e-11
9.90204e-12
9.04938e-12
8.25103e-12
7.50847e-12
6.82266e-12
6.19409e-12
5.62274e-12
5.10819e-12
4.64958e-12
4.24567e-12
3.89489e-12
3.59533e-12
3.34484e-12
3.14099e-12
2.98113e-12
2.86243e-12
2.78189e-12
2.73637e-12
2.72259e-12
2.73719e-12
2.77669e-12
2.83758e-12
2.91628e-12
3.0092e-12
3.11272e-12
3.22329e-12
3.33737e-12
3.45153e-12
3.56246e-12
3.66701e-12
3.76223e-12
3.84541e-12
3.91414e-12
3.96631e-12
4.00018e-12
4.0144e-12
4.00802e-12
3.98051e-12
3.93178e-12
3.86218e-12
3.77244e-12
3.66369e-12
3.53742e-12
3.39541e-12
3.23969e-12
3.07252e-12
2.89625e-12
2.71333e-12
2.52621e-12
2.33731e-12
2.1489e-12
1.96314e-12
1.78197e-12
1.60709e-12
1.43998e-12
1.28182e-12
1.13353e-12
9.95767e-13
8.68931e-13
7.53179e-13
6.48456e-13
5.5452e-13
4.70969e-13
3.97275e-13
3.32813e-13
2.76889e-13
2.28767e-13
1.87695e-13
1.52921e-13
1.23716e-13
9.93849e-14
7.92748e-14
6.27856e-14
4.93724e-14
3.85476e-14
2.98806e-14
2.29959e-14
1.75699e-14
1.33271e-14
1.00356e-14
7.50209e-15
5.56728e-15
4.10125e-15
2.99912e-15
2.17705e-15
1.56867e-15
1.12195e-15
7.96506e-16
5.61266e-16
3.9256e-16
2.72517e-16
1.8777e-16
1.2841e-16
8.71606e-17
5.87234e-17
3.9278e-17
2.60942e-17
1.72403e-17
1.13645e-17
7.53455e-18
5.12037e-18
3.71235e-18
3.06561e-18
2.58254e-16
2.68666e-16
2.89983e-16
3.2288e-16
3.68401e-16
4.27987e-16
5.0352e-16
5.97366e-16
7.12447e-16
8.52314e-16
1.02124e-15
1.22432e-15
1.46761e-15
1.75828e-15
2.10474e-15
2.51688e-15
3.0063e-15
3.58651e-15
4.27327e-15
5.08491e-15
6.0427e-15
7.17127e-15
8.4991e-15
1.00591e-14
1.1889e-14
1.40325e-14
1.65395e-14
1.94671e-14
2.28808e-14
2.68552e-14
3.14753e-14
3.68377e-14
4.30518e-14
5.02418e-14
5.85476e-14
6.81272e-14
7.91582e-14
9.18399e-14
1.06396e-13
1.23075e-13
1.42156e-13
1.63948e-13
1.88795e-13
2.17077e-13
2.49214e-13
2.8567e-13
3.26952e-13
3.73618e-13
4.26278e-13
4.85598e-13
5.52298e-13
6.27165e-13
7.11044e-13
8.04851e-13
9.09566e-13
1.02624e-12
1.156e-12
1.30004e-12
1.45963e-12
1.6361e-12
1.83087e-12
2.04542e-12
2.2813e-12
2.5401e-12
2.8235e-12
3.13321e-12
3.47098e-12
3.8386e-12
4.2379e-12
4.67068e-12
5.13879e-12
5.64403e-12
6.18817e-12
6.77296e-12
7.40004e-12
8.07101e-12
8.78734e-12
9.55036e-12
1.03613e-11
1.12211e-11
1.21306e-11
1.30905e-11
1.41011e-11
1.51624e-11
1.62743e-11
1.74362e-11
1.86473e-11
1.99064e-11
2.12119e-11
2.25619e-11
2.39539e-11
2.53853e-11
2.68528e-11
2.83528e-11
2.98813e-11
3.14339e-11
3.30056e-11
3.45914e-11
3.61855e-11
3.77819e-11
3.93744e-11
4.09564e-11
4.25208e-11
4.40607e-11
4.55687e-11
4.70373e-11
4.8459e-11
4.98262e-11
5.11314e-11
5.23669e-11
5.35255e-11
5.45999e-11
5.55832e-11
5.64689e-11
5.72507e-11
5.79229e-11
5.84801e-11
5.89177e-11
5.92316e-11
5.94185e-11
5.94755e-11
5.94009e-11
5.91934e-11
5.88529e-11
5.83797e-11
5.77755e-11
5.70424e-11
5.61836e-11
5.52032e-11
5.4106e-11
5.28977e-11
5.15848e-11
5.01744e-11
4.86743e-11
4.70931e-11
4.54396e-11
4.37233e-11
4.1954e-11
4.01417e-11
3.82968e-11
3.64294e-11
3.45499e-11
3.26685e-11
3.07951e-11
2.89395e-11
2.71109e-11
2.5318e-11
2.35691e-11
2.18718e-11
2.02331e-11
1.86592e-11
1.71555e-11
1.57266e-11
1.43766e-11
1.31084e-11
1.19244e-11
1.0826e-11
9.81401e-12
8.88855e-12
8.04901e-12
7.29415e-12
6.62221e-12
6.03089e-12
5.51742e-12
5.07864e-12
4.71102e-12
4.41071e-12
4.1736e-12
3.99535e-12
3.87143e-12
3.79715e-12
3.76768e-12
3.7781e-12
3.8234e-12
3.89853e-12
3.99842e-12
4.11798e-12
4.25217e-12
4.39603e-12
4.54467e-12
4.69339e-12
4.83766e-12
4.9732e-12
5.09602e-12
5.2025e-12
5.2894e-12
5.35394e-12
5.39384e-12
5.40733e-12
5.3932e-12
5.35085e-12
5.28021e-12
5.1818e-12
5.0567e-12
4.90648e-12
4.73317e-12
4.53921e-12
4.32737e-12
4.10067e-12
3.86229e-12
3.61549e-12
3.36357e-12
3.1097e-12
2.85693e-12
2.60809e-12
2.36573e-12
2.13211e-12
1.90913e-12
1.69833e-12
1.50091e-12
1.31768e-12
1.14915e-12
9.95491e-13
8.5659e-13
7.32098e-13
6.21456e-13
5.23942e-13
4.38704e-13
3.64807e-13
3.01262e-13
2.47059e-13
2.01197e-13
1.62702e-13
1.30648e-13
1.04169e-13
8.24695e-14
6.48264e-14
5.05947e-14
3.92051e-14
3.01616e-14
2.30371e-14
1.74686e-14
1.31502e-14
9.82748e-15
7.29086e-15
5.36949e-15
3.92552e-15
2.8488e-15
2.0522e-15
1.46744e-15
1.04155e-15
7.33783e-16
5.13117e-16
3.56139e-16
2.45342e-16
1.67752e-16
1.13845e-16
7.66898e-17
5.12872e-17
3.40675e-17
2.2505e-17
1.48329e-17
9.83274e-18
6.68128e-18
4.84342e-18
3.9993e-18
4.63801e-16
4.82481e-16
5.2073e-16
5.79755e-16
6.61428e-16
7.68335e-16
9.03842e-16
1.07219e-15
1.27862e-15
1.52949e-15
1.83245e-15
2.19663e-15
2.63287e-15
3.15399e-15
3.77507e-15
4.51381e-15
5.39093e-15
6.43061e-15
7.66103e-15
9.11494e-15
1.08303e-14
1.28513e-14
1.52285e-14
1.80208e-14
2.12956e-14
2.51306e-14
2.96148e-14
3.485e-14
4.09528e-14
4.80559e-14
5.63104e-14
6.58879e-14
7.69829e-14
8.98154e-14
1.04634e-13
1.21718e-13
1.41381e-13
1.63977e-13
1.899e-13
2.1959e-13
2.53537e-13
2.92286e-13
3.3644e-13
3.86669e-13
4.43708e-13
5.08366e-13
5.81534e-13
6.64185e-13
7.57379e-13
8.62273e-13
9.8012e-13
1.11228e-12
1.26021e-12
1.42549e-12
1.60981e-12
1.81496e-12
2.04287e-12
2.29558e-12
2.57524e-12
2.88411e-12
3.22458e-12
3.59913e-12
4.01034e-12
4.46088e-12
4.95351e-12
5.49105e-12
6.07636e-12
6.71237e-12
7.40199e-12
8.14815e-12
8.95373e-12
9.82157e-12
1.07544e-11
1.17549e-11
1.28256e-11
1.39687e-11
1.51864e-11
1.64804e-11
1.78525e-11
1.93037e-11
2.0835e-11
2.24468e-11
2.41391e-11
2.59115e-11
2.7763e-11
2.9692e-11
3.16966e-11
3.3774e-11
3.59209e-11
3.81333e-11
4.04067e-11
4.27357e-11
4.51145e-11
4.75365e-11
4.99944e-11
5.24803e-11
5.49858e-11
5.75017e-11
6.00186e-11
6.25261e-11
6.50139e-11
6.74709e-11
6.98858e-11
7.22472e-11
7.45432e-11
7.67621e-11
7.88919e-11
8.0921e-11
8.28376e-11
8.46305e-11
8.62886e-11
8.78014e-11
8.91588e-11
9.03515e-11
9.13708e-11
9.2209e-11
9.2859e-11
9.33151e-11
9.35723e-11
9.36268e-11
9.34762e-11
9.31191e-11
9.25555e-11
9.17866e-11
9.0815e-11
8.96446e-11
8.82806e-11
8.67294e-11
8.49989e-11
8.30978e-11
8.10364e-11
7.88257e-11
7.64779e-11
7.40059e-11
7.14236e-11
6.87453e-11
6.5986e-11
6.3161e-11
6.02859e-11
5.73762e-11
5.44477e-11
5.15157e-11
4.85954e-11
4.57014e-11
4.28476e-11
4.00474e-11
3.73133e-11
3.46568e-11
3.20884e-11
2.96176e-11
2.72526e-11
2.50006e-11
2.28676e-11
2.08582e-11
1.89761e-11
1.72235e-11
1.56019e-11
1.41113e-11
1.27511e-11
1.15195e-11
1.04139e-11
9.43091e-12
8.5666e-12
7.81626e-12
7.17473e-12
6.63636e-12
6.19514e-12
5.84473e-12
5.57853e-12
5.38973e-12
5.27136e-12
5.21634e-12
5.21748e-12
5.26757e-12
5.35937e-12
5.48565e-12
5.63927e-12
5.81314e-12
6.00035e-12
6.19416e-12
6.38807e-12
6.57589e-12
6.7518e-12
6.91042e-12
7.04684e-12
7.15675e-12
7.23645e-12
7.28292e-12
7.29388e-12
7.2678e-12
7.20392e-12
7.10227e-12
6.96364e-12
6.78955e-12
6.58219e-12
6.34436e-12
6.07939e-12
5.79102e-12
5.48333e-12
5.16061e-12
4.82724e-12
4.48758e-12
4.14591e-12
3.80625e-12
3.47235e-12
3.14759e-12
2.83491e-12
2.53682e-12
2.25532e-12
1.99195e-12
1.74776e-12
1.52335e-12
1.31891e-12
1.13427e-12
9.6891e-13
8.22057e-13
6.92721e-13
5.79744e-13
4.81863e-13
3.97746e-13
3.2604e-13
2.65402e-13
2.14533e-13
1.72198e-13
1.37245e-13
1.08614e-13
8.53466e-14
6.65865e-14
5.15792e-14
3.96682e-14
3.02886e-14
2.29602e-14
1.72791e-14
1.29094e-14
9.5747e-15
7.04961e-15
5.15251e-15
3.73834e-15
2.69237e-15
1.92477e-15
1.36585e-15
9.62061e-16
6.72614e-16
4.66754e-16
3.21486e-16
2.19778e-16
1.49128e-16
1.00442e-16
6.71617e-17
4.46058e-17
2.94625e-17
1.9416e-17
1.28691e-17
8.74334e-18
6.33747e-18
5.23252e-18
8.25706e-16
8.58931e-16
9.26968e-16
1.03196e-15
1.17724e-15
1.36739e-15
1.60841e-15
1.90782e-15
2.27493e-15
2.72103e-15
3.25972e-15
3.90721e-15
4.68275e-15
5.60909e-15
6.713e-15
8.02588e-15
9.58448e-15
1.14317e-14
1.36175e-14
1.62e-14
1.92465e-14
2.28349e-14
2.70553e-14
3.20116e-14
3.78232e-14
4.46275e-14
5.25818e-14
6.18662e-14
7.26863e-14
8.52765e-14
9.99033e-14
1.16869e-13
1.36517e-13
1.59234e-13
1.85457e-13
2.15678e-13
2.50448e-13
2.90386e-13
3.36184e-13
3.88612e-13
4.48528e-13
5.16883e-13
5.94732e-13
6.83238e-13
7.83683e-13
8.97474e-13
1.02615e-12
1.17141e-12
1.33507e-12
1.51914e-12
1.72578e-12
1.95731e-12
2.21625e-12
2.50529e-12
2.82731e-12
3.18538e-12
3.58276e-12
4.02289e-12
4.50941e-12
5.04613e-12
5.63702e-12
6.28622e-12
6.99804e-12
7.77687e-12
8.62724e-12
9.55376e-12
1.05611e-11
1.16539e-11
1.28369e-11
1.41147e-11
1.54918e-11
1.69726e-11
1.85613e-11
2.0262e-11
2.20781e-11
2.40131e-11
2.60698e-11
2.82506e-11
3.05574e-11
3.29915e-11
3.55535e-11
3.82433e-11
4.106e-11
4.40018e-11
4.70662e-11
5.02496e-11
5.35475e-11
5.69544e-11
6.04638e-11
6.4068e-11
6.77585e-11
7.15256e-11
7.53584e-11
7.92453e-11
8.31736e-11
8.71294e-11
9.10982e-11
9.50646e-11
9.90124e-11
1.02925e-10
1.06784e-10
1.10573e-10
1.14273e-10
1.17865e-10
1.21331e-10
1.24653e-10
1.27812e-10
1.3079e-10
1.33569e-10
1.36134e-10
1.38466e-10
1.40552e-10
1.42377e-10
1.43929e-10
1.45194e-10
1.46165e-10
1.4683e-10
1.47185e-10
1.47223e-10
1.46941e-10
1.46339e-10
1.45415e-10
1.44174e-10
1.42619e-10
1.40757e-10
1.38596e-10
1.36147e-10
1.33423e-10
1.30436e-10
1.27204e-10
1.23743e-10
1.20072e-10
1.16211e-10
1.12182e-10
1.08005e-10
1.03705e-10
9.93048e-11
9.48274e-11
9.02971e-11
8.57375e-11
8.1172e-11
7.66235e-11
7.2114e-11
6.7665e-11
6.32964e-11