/*--------------------------------*- C++ -*----------------------------------*\
| =========                 |                                                 |
| \\      /  F ield         | OpenFOAM: The Open Source CFD Toolbox           |
|  \\    /   O peration     | Version:  v2012                                 |
|   \\  /    A nd           | Website:  www.openfoam.com                      |
|    \\/     M anipulation  |                                                 |
\*---------------------------------------------------------------------------*/
FoamFile
{
    version     2.0;
    format      ascii;
    class       volScalarField;
    location    "0";
    object      p;
}
// * * * * * * * * * * * * * * * * * * * * * * * * * * * * * * * * * * * * * //

dimensions      [0 2 -2 0 0 0 0];


internalField   nonuniform List<scalar> 
4000
(
0.112081
0.0754908
0.10632
0.102759
0.0786601
0.00648917
0.0909145
0.131637
0.0681681
0.0923125
0.0997453
0.0421417
0.0321015
0.0876446
0.057065
0.0484317
0.12447
0.0568072
0.148512
0.146585
0.135908
0.157548
0.246613
0.226202
0.212946
0.13642
0.117148
0.124017
0.12297
0.10841
-0.0377008
-0.0371232
-0.0164447
-0.0787727
-0.0206568
0.0150693
0.0161423
-0.113648
-0.140484
-0.140155
-0.190362
-0.174014
-0.126455
-0.110108
-0.160789
-0.26579
-0.209677
-0.234865
-0.261019
-0.221073
-0.330204
-0.346177
-0.32918
-0.296547
-0.247711
-0.171441
-0.182028
-0.091737
-0.0504736
0.0713496
0.090382
0.0361898
0.0830135
0.0304829
0.0514143
0.144652
0.171498
0.106014
0.155235
0.220593
0.209019
0.150575
0.0855785
0.0803936
0.076508
0.047383
0.0328437
0.0460802
0.0270867
0.0307504
0.0373461
0.0596141
0.0321403
0.108433
0.129921
0.0848437
0.189711
0.209138
0.266848
0.222948
0.294065
0.223949
0.261668
0.279491
0.252313
0.262613
0.187991
0.196082
0.0838463
0.0298559
0.110828
0.0796474
0.085216
0.093175
0.0512804
0.0667748
0.0684334
0.104882
0.0912977
0.101654
0.0818759
0.0538815
0.0399268
0.061706
0.05939
0.0580744
0.119914
0.118174
0.143619
0.149596
0.169267
0.166112
0.20717
0.185797
0.190376
0.148511
0.15139
0.117317
0.0903682
0.0603726
-0.0343159
-0.0083299
-0.0172508
-0.0897496
-0.0352801
0.0262045
0.0144122
-0.0787256
-0.140848
-0.139109
-0.196145
-0.164469
-0.103232
-0.127075
-0.192028
-0.243544
-0.226957
-0.244659
-0.237708
-0.244628
-0.32233
-0.354263
-0.320756
-0.28749
-0.228627
-0.191062
-0.210034
-0.0830414
-0.0561036
0.043647
0.100875
0.0466669
0.0788149
0.040824
0.0889344
0.125352
0.158626
0.110403
0.13725
0.219476
0.217263
0.151072
0.160822
0.0863403
0.0438296
0.0307931
0.038372
0.0300025
0.0105505
0.0546559
0.0331403
0.0109893
0.0850907
0.107259
0.0971957
0.102931
0.149499
0.201399
0.274852
0.225154
0.306041
0.26246
0.276668
0.273075
0.235762
0.272116
0.18146
0.183926
0.122663
0.022583
0.0760146
0.0638765
0.0729733
0.111074
0.0944497
0.0910884
0.0328464
0.0541088
0.0912415
0.125036
0.0341338
0.0416241
0.0376934
0.0945524
0.0868431
0.0390076
0.11208
0.129962
0.144843
0.131772
0.128039
0.188868
0.197364
0.178978
0.190838
0.188488
0.108781
0.119507
0.0938403
0.0355548
-0.00409098
0.0173133
-0.0386172
-0.0895006
0.0027019
0.0130778
-0.000426749
-0.0648617
-0.105729
-0.173235
-0.175813
-0.117737
-0.130357
-0.143296
-0.212772
-0.210622
-0.250496
-0.256214
-0.258888
-0.258826
-0.299269
-0.3196
-0.303925
-0.294148
-0.215919
-0.179745
-0.191681
-0.0874469
-0.0360798
0.0425734
0.120172
0.0516399
0.00513583
0.0487311
0.105764
0.142539
0.170742
0.125714
0.132047
0.177195
0.197424
0.161406
0.129616
0.0624147
0.045162
0.0499039
0.0393633
0.0085064
0.0195856
0.081572
0.00201114
-0.0131523
0.0822424
0.0927311
0.0985597
0.122535
0.191977
0.211726
0.257682
0.208924
0.265228
0.240447
0.290863
0.265964
0.217944
0.258226
0.207355
0.152606
0.138581
0.0582625
0.0913116
0.0616809
0.0817542
0.066297
0.0761215
0.0907429
0.0224946
0.0262556
0.0483115
0.10069
0.069204
0.063076
0.0871223
-0.00302612
0.0694708
0.0761245
0.0687196
0.151957
0.126592
0.105097
0.102794
0.197259
0.217081
0.18878
0.184699
0.122185
0.0895441
0.1039
0.0809422
0.0492287
-0.00653926
0.00767125
-0.0418024
-0.0764656
-0.0296265
-0.00591833
0.00660826
-0.0236766
-0.111998
-0.223289
-0.163671
-0.0811823
-0.108764
-0.15999
-0.249209
-0.247804
-0.178482
-0.238958
-0.21819
-0.282891
-0.302975
-0.292122
-0.280214
-0.257366
-0.217609
-0.1624
-0.171706
-0.0726771
-0.0146705
0.0349847
0.0592447
0.0750595
0.0665126
0.0360347
0.0819066
0.118081
0.154897
0.138947
0.132341
0.20213
0.185482
0.166653
0.132862
0.102573
0.0190875
0.0113979
0.0606882
-0.0231246
0.0306503
0.0643128
0.0162688
0.0122609
0.0547807
0.0979415
0.0838894
0.123313
0.176434
0.208822
0.198225
0.210575
0.271542
0.254968
0.245882
0.301342
0.229432
0.21966
0.207378
0.121235
0.10461
0.0288955
0.0684646
0.075239
0.03297
0.0471647
0.0425631
0.0712383
0.0298014
0.0394752
0.042183
0.0680117
0.0425914
0.0213164
0.0914711
0.0204874
0.0579021
0.119848
0.117551
0.119251
0.0999376
0.0558869
0.118146
0.190259
0.113152
0.156583
0.160946
0.151918
0.100306
0.0773743
0.0831692
0.0278437
-0.00712374
-0.00563508
-0.0397527
-0.0494042
-0.047553
0.00524784
-0.0215622
-0.135224
-0.14861
-0.150467
-0.0866591
-0.0497096
-0.0715474
-0.150332
-0.203339
-0.267019
-0.236408
-0.233807
-0.195071
-0.21657
-0.222958
-0.215174
-0.257423
-0.241848
-0.192652
-0.20399
-0.151514
-0.0795459
-0.00743237
0.0463104
0.0405959
0.0643731
0.0706663
0.0724019
0.129589
0.161486
0.159823
0.0976682
0.131667
0.165265
0.15797
0.123494
0.0850539
0.0934096
0.00945596
0.0205741
0.020799
-0.057919
0.00343797
0.0155211
9.33807e-05
0.0396424
0.0444002
0.102061
0.0549229
0.098937
0.190901
0.174465
0.20346
0.222859
0.243058
0.26428
0.247098
0.277908
0.226411
0.216938
0.161082
0.132782
0.0804124
0.0355861
0.0555463
0.0893561
0.0668214
0.0241249
0.0404063
0.0633512
0.0460118
0.00749483
0.0377982
0.0163804
0.0259029
-0.0020497
0.0343811
-0.000794085
0.0158933
0.134499
0.159606
0.156875
0.120664
0.0761873
0.0842079
0.137388
0.0382538
0.119042
0.155982
0.12759
0.10115
0.0563077
0.0319743
0.00946783
-0.0313156
0.0428262
-0.0288893
-0.01153
-0.0402477
-0.00731524
-0.0758586
-0.113107
-0.108084
-0.109432
-0.0633168
-0.0604649
-0.0874661
-0.116125
-0.139783
-0.194981
-0.264204
-0.227956
-0.187189
-0.171728
-0.193619
-0.218198
-0.199411
-0.237844
-0.193582
-0.215405
-0.152635
-0.0547076
-0.0456204
0.0996274
0.124487
0.0932742
0.0532516
0.0661358
0.144044
0.13097
0.143485
0.102055
0.153097
0.128355
0.155494
0.17764
0.116228
0.0450988
-0.0493976
-0.0132718
-0.0312543
-0.0341448
0.0547373
0.0195745
-0.0355136
0.0401196
0.0290025
0.0664291
0.0715425
0.120838
0.142216
0.187706
0.147889
0.198986
0.224726
0.263358
0.2397
0.244167
0.235471
0.203901
0.126315
0.113517
0.0722978
0.016525
0.0696996
0.0455206
0.0581242
0.0491215
0.00944548
0.0328493
0.0314226
0.0186271
-0.00173483
-0.0177278
-0.0436826
0.00118693
0.0581328
0.0366221
0.0285566
0.045774
0.134179
0.130328
0.0575517
0.0745214
0.0402722
0.0932886
0.133639
0.152467
0.162159
0.122802
0.0374112
-0.0379969
0.0284187
0.0353759
-0.0330657
0.0147229
-0.00120393
0.00574455
-0.0552081
-0.0743733
-0.083823
-0.0685803
-0.131185
-0.105153
-0.0294681
-0.0320397
-0.0537781
-0.0997356
-0.102111
-0.154653
-0.151649
-0.187103
-0.183656
-0.181717
-0.188743
-0.183906
-0.155759
-0.206329
-0.166401
-0.14123
-0.129977
-0.0894952
-0.00117722
0.0371775
0.119716
0.140535
0.0423845
0.0979601
0.136717
0.095727
0.13274
0.109472
0.118266
0.103427
0.21225
0.155907
0.108128
0.028141
-0.0249719
0.00929202
-0.0628237
-0.12685
-0.0644779
-0.0372038
-0.00106693
0.00963541
0.0486949
0.0540808
0.057479
0.0987586
0.119508
0.150624
0.137694
0.171128
0.203443
0.229807
0.221867
0.229934
0.23879
0.204318
0.053171
0.0866308
0.044734
-0.00860879
0.0499691
0.0413548
0.0183915
0.0382178
-0.0024209
0.0143155
0.0371582
0.0119242
-0.0387679
-0.0478585
0.00414473
-0.0114778
-0.0290085
-0.0222486
-0.0231868
0.105199
0.107439
0.0895169
0.0607894
0.0813524
0.0727432
0.0866179
0.0903313
0.107005
0.18015
0.0950877
0.000764924
-0.00947532
0.0389431
-0.0331244
-0.0239513
0.0175476
0.0215783
0.0110494
-0.0315274
-0.0878031
-0.109556
-0.11033
-0.108599
-0.026601
-0.0744904
-0.0470946
-0.0475367
-0.0302555
0.0207284
-0.0886709
-0.17098
-0.206708
-0.204196
-0.156029
-0.187077
-0.0893774
-0.103812
-0.177109
-0.158038
-0.17941
-0.135029
0.00619237
0.00172011
0.0376968
0.0769843
0.106682
0.0612522
0.110289
0.152596
0.111656
0.147025
0.158451
0.14441
0.112506
0.140019
0.103975
0.0449201
-0.0675185
-0.0690921
-0.0295884
-0.0369019
-0.0790605
-0.023439
-0.045883
-0.0658082
-0.0190199
0.00663881
0.00842084
0.0330258
0.06358
0.0961204
0.12969
0.147629
0.159977
0.187335
0.196997
0.161653
0.191398
0.228633
0.196238
0.0902894
0.0592453
0.0385562
-0.00670758
0.0476118
0.0311929
0.00330376
0.0201373
-0.0184889
0.00782232
0.00126061
0.0308873
0.00518388
-0.00119432
-0.0739448
-0.0866092
-0.0697889
-0.045227
-0.0146985
0.0982861
0.0944992
0.0730308
0.0374693
0.0486835
0.046276
0.0624013
0.116209
0.10631
0.0913913
0.0765442
-0.00445907
0.0209556
0.0532407
0.0312269
-0.0222183
0.000105599
-0.0699606
-0.0806774
-0.0454678
-0.0473068
-0.0455648
-0.133515
-0.0513533
-0.0130508
-0.026411
-0.0426558
-0.0647475
-0.0636982
0.0175325
-0.0103895
-0.0951581
-0.0977238
-0.103661
-0.13986
-0.164155
-0.150498
-0.124327
-0.0969045
-0.0633661
-0.0791792
-0.0829676
-0.0134673
-0.00373775
-0.028939
0.0493375
0.131649
0.0673311
0.0917509
0.1168
0.0996642
0.146448
0.150343
0.12768
0.0997414
0.11837
0.101754
0.0381558
0.00292772
-0.0832756
-0.0633077
-0.0942047
-0.114251
-0.070026
-0.0707899
-0.0617142
-0.0137861
-0.012596
0.0135875
-0.0381429
0.0238595
0.0976513
0.136821
0.14185
0.132098
0.130961
0.170045
0.134584
0.13758
0.21512
0.153808
0.0650974
0.0697413
0.0421123
-0.020988
0.0413031
-0.0034204
0.0192229
-0.00175402
-0.0383487
0.0141308
-0.0385147
0.0380104
0.0715431
-0.0522879
-0.109351
-0.118774
-0.0858104
-0.0779026
-0.0511598
0.0383627
0.0503815
0.0949058
0.118759
0.0423337
-0.00539298
0.0373539
0.0850563
0.0744802
0.0522986
0.0615161
0.0158494
0.0445447
0.0691633
0.0323164
0.0217791
-0.0282965
-0.0737464
-0.114843
-0.0868959
-0.0712091
-0.022399
-0.0936537
-0.0401232
-0.0190761
-0.0201361
-0.0194144
0.0105398
0.00118879
0.0809077
0.0194722
-0.0488654
-0.0992854
-0.0511172
-0.106581
-0.0999761
-0.142599
-0.116151
-0.0433564
-0.0457372
-0.0564424
-0.0597662
-0.0123443
-0.00906776
-0.0118577
0.0693303
0.132591
0.137612
0.0997614
0.0777592
0.03687
0.133073
0.182451
0.0834043
0.12521
0.130038
0.0833849
-0.00392482
-0.0468859
-0.0510203
-0.0551096
-0.12873
-0.121801
-0.116449
-0.0992459
-0.100945
-0.086887
-0.0680598
0.0104222
-0.0180607
-0.013137
0.0248648
0.0421622
0.123387
0.119908
0.108556
0.104871
0.068126
0.11381
0.219606
0.135053
0.0513359
0.0631666
0.0134854
0.00707633
0.0145312
-0.0218205
-0.0284329
-0.0154574
-0.0201721
-0.0333376
0.00880225
0.0607986
0.0467493
-0.055089
-0.138045
-0.152508
-0.112933
-0.0552485
-0.0614729
0.0263243
0.0692146
0.072041
0.0765685
0.00419139
-0.0459022
-0.00701978
0.0278801
0.0488008
0.0565183
0.0273845
0.0316643
0.0595967
0.0821943
0.0659323
0.0095833
-0.0103286
-0.0747598
-0.087082
-0.0688189
-0.0670693
-0.0622741
-0.0566812
-0.0359061
0.0132757
0.0216591
0.0383344
0.00339859
0.0991971
0.0875138
-0.0364828
-0.0136088
-0.0368566
-0.049245
-0.108386
-0.0859336
-0.0826817
-0.0979824
-0.0211289
-0.00132215
0.00874243
-0.0330487
-0.0789446
0.0399125
-0.0161691
0.0154071
0.0884218
0.116094
0.156248
0.0861176
0.0769263
0.0952215
0.156702
0.124838
0.138395
0.0511663
0.0878035
0.0383559
-0.0335561
-0.131124
-0.143302
-0.138744
-0.15293
-0.137731
-0.083869
-0.0901941
-0.0412689
-0.0781282
-0.0877933
-0.0423333
-0.081612
0.0195205
0.07122
0.109927
0.120898
0.071454
0.0400624
0.0720452
0.0953714
0.17322
0.0897457
0.0558014
0.111936
-0.0166496
-0.00959455
0.0298266
-0.0180861
-0.0289447
-0.0258169
-0.0269662
-0.0459781
0.0122934
0.0110698
0.0525467
-0.0599743
-0.170535
-0.162293
-0.163138
-0.126775
-0.0726136
0.00719262
0.0602089
0.0854412
0.0546239
-0.0279719
-0.041028
0.0343271
0.0179282
-0.00844814
0.0523665
0.0494537
-0.00111562
0.017334
0.0913343
0.0753113
0.0388097
-0.0181478
-0.028875
-0.0711799
-0.0989549
-0.0836237
-0.0390358
-0.0361448
-0.0043675
-0.000148584
0.0283431
0.0825501
0.0763011
0.116226
0.145024
0.0337287
-0.0061377
-0.0739319
-0.0462793
-0.0566388
-0.0179095
-0.04997
-0.0331207
0.0114746
-0.00163903
0.0093094
0.00247538
-0.0287798
0.034191
-0.00434477
0.0569305
0.17272
0.115944
0.058027
0.0293086
0.078031
0.0921951
0.120119
0.112656
0.121426
0.0901223
0.0786156
0.0118928
-0.025386
-0.121591
-0.194975
-0.179233
-0.141906
-0.152245
-0.111803
-0.127239
-0.0980376
-0.106454
-0.0667302
-0.0750555
-0.0371577
-0.00740582
0.0121297
0.0798029
0.0964329
0.0372291
0.0358942
0.0779745
0.0967025
0.129895
0.0943591
0.0383291
0.0266612
0.00902894
-0.00168
0.00286191
-0.0269694
-0.0833284
-0.0410762
-0.0443793
-0.0852979
-0.0403881
0.00629088
0.00488201
-0.150821
-0.150517
-0.183552
-0.112673
-0.0983733
-0.0859207
-0.0376463
0.0633784
0.109736
0.0238054
-0.014467
-0.0635348
-0.0747041
-0.0588729
-0.0290048
-0.00241765
-0.0132817
0.0284954
0.0732469
0.105362
0.0714852
0.0695682
-0.0153541
-0.0530913
-0.0399915
-0.0636395
-0.0759847
-0.0206259
-0.00386885
0.00778601
0.0487718
0.0806231
0.104515
0.140809
0.148619
0.0903091
0.006592
0.0492041
-0.0187421
0.029112
-0.0222147
-0.0160716
-0.0215952
-0.0367434
0.0226284
0.0172867
0.0178617
0.0268891
-0.0465884
0.0215095
0.0161378
0.0753616
0.0957942
0.0973884
0.103188
0.0844745
0.110944
0.0630609
0.12652
0.119774
0.0869069
0.0299443
0.030587
0.0151556
-0.0364467
-0.124001
-0.177459
-0.146604
-0.142077
-0.199036
-0.103817
-0.157776
-0.13301
-0.0953121
-0.0940573
-0.0566459
-0.034967
-0.0442268
0.0335285
0.0549786
0.0486864
-0.00147039
0.0399028
0.028418
0.0903348
0.106996
0.0506612
0.032918
0.0559443
-5.32415e-05
-0.0278685
-0.0462635
-0.00951042
-0.0834482
-0.0680707
-0.0581296
-0.0946415
-0.111454
-0.0471789
-0.0553799
-0.164213
-0.19055
-0.178827
-0.114643
-0.0753306
-0.0404897
-0.080252
0.000168704
0.0213069
0.0201767
-0.0137861
-0.0635241
-0.0644649
0.0300528
-0.00920829
-0.0331932
-0.0841584
-0.0601751
0.0688188
0.120064
0.0723199
0.0688218
0.0257092
-0.0922568
-0.0969787
-0.0588463
-0.088991
0.0448037
0.0839035
0.0972877
0.144793
0.111103
0.115075
0.171013
0.16354
0.133092
0.0525885
0.0744783
-0.0304462
0.0284516
0.0296512
0.0303514
0.0386173
0.031239
0.0399283
0.0156977
-0.00167337
0.00894978
-0.000119506
0.0462755
0.0334481
0.027426
0.0760844
0.0687208
0.058728
0.107123
0.0811077
0.0865443
0.104445
0.10683
0.0500602
0.00607545
0.0633669
0.0287145
-0.0702763
-0.140063
-0.184354
-0.152467
-0.184177
-0.215202
-0.176292
-0.16468
-0.138866
-0.113343
-0.109686
-0.0493962
-0.0868637
-0.0194928
0.0100954
0.0281337
0.0183347
0.0173216
0.0246012
0.0137927
0.0698422
0.0561386
0.0098119
-0.0269052
0.039719
-0.0254524
-0.00803596
-0.0569054
-0.0826931
-0.0894766
-0.0726489
-0.0816182
-0.0850856
-0.10772
-0.108947
-0.119458
-0.175757
-0.125066
-0.150209
-0.10688
-0.0622938
-0.0326138
-0.0563148
-0.00530706
0.066215
0.0265341
-0.0446775
-0.0831614
-0.172291
-0.112551
-0.0749788
-0.0625698
-0.014761
-0.0132159
0.0207988
0.0871056
0.0532649
0.123935
0.0461096
-0.0685056
-0.104346
-0.0814176
-0.0227594
0.0562103
0.13551
0.150497
0.11029
0.177641
0.159504
0.15314
0.126482
0.131542
0.131434
0.143693
0.0641681
0.0216452
0.0888428
0.104018
0.0365519
0.0997741
0.0181183
0.0089755
0.0130365
-0.00365013
0.036583
0.0522306
0.0221101
0.0217613
0.095257
0.103022
0.0752762
0.0472103
0.0591154
0.0510141
0.109748
0.162789
0.0187047
-0.0288562
0.024738
-0.0400937
-0.106535
-0.0914334
-0.21924
-0.18648
-0.235401
-0.188387
-0.13725
-0.120988
-0.137229
-0.139455
-0.126073
-0.107665
-0.0584823
-0.00570132
-0.0418129
-0.0601822
-0.0205359
-0.00577468
-0.0215913
-0.0121353
0.0430539
-0.000832567
-0.030876
-0.0600091
0.0396792
-0.0106119
0.00325655
-0.119704
-0.0579866
-0.0755616
-0.0571672
-0.123489
-0.0747866
-0.061339
-0.0369817
-0.137061
-0.186476
-0.172945
-0.158729
-0.117271
-0.0345742
0.00504915
-0.0218386
-0.0770431
-0.0177388
-0.0499739
0.0122412
-0.0880389
-0.165887
-0.107335
-0.109192
-0.0733787
-0.0335538
0.0317466
0.00974477
0.0293609
0.0295959
0.0815384
0.0460873
-0.0341925
-0.0959163
-0.0757859
-0.0327678
0.0539197
0.163795
0.160705
0.197755
0.202284
0.185328
0.215946
0.178769
0.163227
0.172756
0.175188
0.143319
0.0636936
0.0615058
0.0671528
0.124637
0.130452
0.0531311
0.0418959
0.0344591
-0.00245498
0.029909
0.0531487
0.0428626
0.0099586
0.0706713
0.0835129
0.0586425
0.0557866
0.043112
0.0243065
0.116267
0.114694
0.0133192
-0.038616
-0.0131331
-0.0360868
-0.102374
-0.129671
-0.186989
-0.190476
-0.214849
-0.222656
-0.229096
-0.100255
-0.11797
-0.165417
-0.195384
-0.0719569
-0.0510556
-0.0454948
-0.0650041
-0.0432599
-0.0403174
-0.0394509
-0.068489
-0.0920594
-0.0281209
-0.0183629
-0.0195247
-0.0317557
0.000812598
0.00589997
-0.00558128
-0.0830829
-0.0566966
-0.109579
-0.101769
-0.109351
-0.13625
-0.135898
-0.0901015
-0.0382998
-0.0804867
-0.0783862
-0.0993377
-0.157891
-0.0857492
-0.0386719
-0.00258871
0.005729
0.0771035
0.0145602
-0.11805
-0.154676
-0.165987
-0.113559
-0.110593
-0.125315
-0.0715705
-0.0134571
-0.00161526
0.024918
-0.00539157
0.0580451
0.0157166
-0.00930479
-0.112747
-0.0732453
0.00664349
0.104752
0.191501
0.210416
0.274998
0.185374
0.151574
0.197325
0.273196
0.176454
0.189734
0.148719
0.210103
0.165405
0.109917
0.0830318
0.132662
0.122425
0.0697505
0.0473353
0.0231323
0.0114164
0.0332721
0.0560766
0.0564214
0.0349674
0.0841005
0.0494567
0.0586923
0.0752933
0.0333279
0.0192562
0.0754948
0.0710661
-0.0102225
-0.0281599
-0.0822503
-0.0914908
-0.13616
-0.145637
-0.136691
-0.235203
-0.234299
-0.200719
-0.185059
-0.127023
-0.211539
-0.162896
-0.18385
-0.1287
-0.115555
-0.0637733
-0.0938926
-0.118172
-0.0889556
-0.0555131
-0.069541
-0.0476476
-0.0541746
-0.0272981
-0.044242
-0.0236515
-0.0432372
0.0209359
-0.00407596
-0.0890395
-0.0676393
-0.129722
-0.0974206
-0.0705788
-0.126856
-0.106441
-0.0940702
-0.114077
-0.0879592
-0.0599779
-0.0857999
-0.0816116
-0.071239
-0.104959
-0.0316062
-0.0177944
0.0380302
-0.0352991
-0.134519
-0.162451
-0.167136
-0.13503
-0.08574
-0.0832449
-0.0762954
-0.0752899
-0.0528095
-0.0354869
-0.00575643
0.061807
0.0272639
0.0179937
-0.101536
-0.118033
0.00951219
0.0990512
0.165195
0.245285
0.266735
0.218028
0.209403
0.262639
0.229612
0.16973
0.208854
0.200668
0.229089
0.161697
0.152197
0.123202
0.152592
0.106894
0.0583653
0.0967142
0.0656314
0.0204351
0.0307178
0.110357
0.0726341
0.0526363
0.0474289
0.027068
0.0357744
0.074437
0.0419101
0.0488915
0.0275866
0.0206576
-0.0372287
-0.0455577
-0.114984
-0.092791
-0.165029
-0.11881
-0.15301
-0.213882
-0.228498
-0.201478
-0.211784
-0.212718
-0.177199
-0.194951
-0.188822
-0.150324
-0.139033
-0.101207
-0.108307
-0.118815
-0.0811561
-0.0862193
-0.0983406
-0.0937872
-0.066991
-0.0675496
-0.0161218
0.0227479
-0.0109607
-0.0205441
-0.00357365
-0.105269
-0.0665303
-0.109731
-0.119148
-0.136425
-0.158722
-0.108861
-0.0483262
-0.0632234
-0.0427496
-0.0528858
-0.0809896
-0.072274
-0.028924
-0.0571416
-0.100332
-0.0230199
0.00678442
-0.0304012
-0.0966684
-0.157411
-0.150802
-0.154992
-0.113167
-0.141222
-0.140889
-0.0823836
-0.072342
-0.0277772
-0.0231439
0.0198172
-0.0247822
0.00557795
-0.04158
-0.0632902
0.0429965
0.172206
0.234595
0.218249
0.237845
0.217672
0.210238
0.24328
0.231121
0.181143
0.291996
0.247621
0.211261
0.214166
0.193964
0.134123
0.148562
0.133408
0.0510428
0.11597
0.0933731
0.0719982
0.0870864
0.139508
0.0393963
0.0791341
0.0581125
0.0301753
0.0523501
0.0484155
0.0578817
0.0381488
0.0270415
0.0754195
-0.0757369
-0.113801
-0.103301
-0.145732
-0.146565
-0.1407
-0.149115
-0.212457
-0.228166
-0.267239
-0.290571
-0.208477
-0.198872
-0.219995
-0.141091
-0.142719
-0.165512
-0.150515
-0.15952
-0.108685
-0.0731306
-0.102096
-0.104998
-0.114332
-0.0582119
-0.0395733
-0.0241127
-0.0143015
-0.02031
-0.0255443
0.0118378
-0.083903
-0.0887043
-0.0969643
-0.112284
-0.170385
-0.165899
-0.0918551
-0.102676
-0.0455997
-0.00826988
-0.0586071
-0.0564449
-0.0116156
-0.0257481
-0.0733754
-0.0804191
-0.0874701
-0.0139106
0.00987316
-0.0845886
-0.175007
-0.140913
-0.16267
-0.175659
-0.131511
-0.126699
-0.0905265
-0.0780325
-0.0681917
-0.0372036
-0.0165271
-0.0314928
0.000195949
-0.00667627
-0.0571128
0.0337206
0.146497
0.22709
0.234497
0.24345
0.212778
0.257371
0.221457
0.28763
0.289001
0.280052
0.223878
0.253833
0.283932
0.172587
0.180323
0.158115
0.132846
0.136336
0.114435
0.0772774
0.0365435
0.084465
0.119494
0.0918545
0.0666816
0.0800531
0.0753612
0.0659305
0.0535572
0.0432474
0.00358966
0.0265644
0.00162266
-0.0655932
-0.125302
-0.113237
-0.161367
-0.132129
-0.104034
-0.170771
-0.241103
-0.286719
-0.247452
-0.243781
-0.224065
-0.259505
-0.208708
-0.165245
-0.147007
-0.146425
-0.141635
-0.161254
-0.100888
-0.123848
-0.0869406
-0.122381
-0.0672134
-0.106019
-0.0680626
0.0126581
-0.019719
-0.0362579
-0.00421177
0.0396119
-0.107521
-0.100276
-0.10805
-0.132302
-0.191138
-0.174483
-0.11241
-0.0719105
-0.0390989
-0.0135551
-0.0196666
-0.0253162
0.0224624
0.0124092
-0.0779942
-0.102013
-0.026428
-0.0465386
-0.0329666
-0.0769886
-0.148969
-0.148523
-0.181132
-0.191827
-0.18452
-0.153483
-0.0953099
-0.11041
-0.0782127
-0.06556
-0.0431949
-0.0416392
-0.0242461
-0.0197869
-0.0202383
0.0569024
0.125726
0.200582
0.219768
0.267686
0.261765
0.243748
0.237175
0.271459
0.271151
0.285945
0.274465
0.294005
0.274703
0.161311
0.153871
0.195985
0.169784
0.132751
0.115222
0.123812
0.0641343
0.0545973
0.155601
0.100926
0.066623
0.110596
0.0681215
0.0176315
0.0674038
0.0811674
0.0975258
0.0103451
0.01924
-0.0711341
-0.117965
-0.133296
-0.152423
-0.174137
-0.159353
-0.168722
-0.253043
-0.260398
-0.261276
-0.254133
-0.227474
-0.250057
-0.234155
-0.180208
-0.172864
-0.157511
-0.120426
-0.122645
-0.11725
-0.114868
-0.0735167
-0.104735
-0.0421154
-0.0872558
-0.0784194
-0.0408469
-0.0544585
-0.0250567
0.0616645
0.0347372
-0.115519
-0.116305
-0.152383
-0.166306
-0.181519
-0.151463
-0.10756
-0.063228
-0.0568568
0.0354229
-0.00811033
-0.0118037
0.00747298
-0.053156
-0.0206474
-0.0837503
-0.0511368
-0.0284518
-0.0455537
-0.0907073
-0.0728912
-0.171176
-0.217647
-0.189349
-0.161321
-0.123211
-0.15005
-0.161244
-0.161302
-0.0674115
-0.0516913
-0.0393153
-0.0155544
-0.0409236
-0.0337227
0.0648451
0.162226
0.176792
0.210774
0.281009
0.259381
0.231125
0.300377
0.275102
0.276019
0.267587
0.286271
0.317904
0.25287
0.172267
0.150086
0.226605
0.176336
0.131007
0.112951
0.099256
0.0549502
0.0848225
0.132501
0.16439
0.138841
0.0559316
0.0621052
0.0926528
0.0769121
0.0535336
0.0612585
0.0201672
-0.0185259
-0.108528
-0.151017
-0.0483032
-0.0955412
-0.135937
-0.168772
-0.191388
-0.236111
-0.305401
-0.269837
-0.224824
-0.187143
-0.220831
-0.244312
-0.174385
-0.167247
-0.191174
-0.147365
-0.129636
-0.110968
-0.126497
-0.113058
-0.0705524
-0.0662099
-0.0704577
-0.0369592
-0.0188746
-0.0442942
-0.00488321
-0.00121416
-0.0214552
-0.122702
-0.112376
-0.158
-0.183612
-0.190888
-0.132986
-0.104055
-0.0847118
-0.0530774
0.00239544
0.0611464
0.0400167
-0.00355133
-0.0282816
-0.0180015
-0.0435316
-0.019127
-0.0232564
-0.0427593
-0.132077
-0.143875
-0.150834
-0.196041
-0.201018
-0.174306
-0.185392
-0.192228
-0.144615
-0.115942
-0.0945476
-0.0420089
-0.0398351
-0.0846095
-0.0447324
-0.0147512
0.0686803
0.10696
0.17678
0.270458
0.263737
0.272676
0.28671
0.274836
0.239705
0.294831
0.273142
0.254295
0.23464
0.274576
0.241395
0.16589
0.177004
0.171062
0.172928
0.164157
0.0397665
-0.0340724
0.0735886
0.167655
0.157305
0.070741
0.0596913
0.058033
0.139101
0.0658686
0.0450802
0.0253668
-0.0321258
0.0401057
-0.0397894
-0.0998767
-0.137383
-0.177722
-0.169013
-0.154863
-0.160346
-0.218797
-0.267769
-0.208682
-0.225194
-0.202368
-0.242355
-0.253275
-0.183305
-0.177311
-0.14372
-0.131355
-0.10672
-0.123458
-0.115304
-0.0639441
-0.0658152
-0.0666943
-0.0808616
-0.0493554
0.0175988
-0.000985112
-0.0017649
-0.0115547
0.0064153
-0.108512
-0.138335
-0.192259
-0.19833
-0.161484
-0.178778
-0.0736434
-0.0167242
-0.0240885
0.0118038
-0.0347342
0.0217628
0.0245924
0.0142313
-0.0202455
-0.00378209
0.0100438
-0.0970861
-0.112883
-0.103969
-0.086558
-0.143609
-0.153772
-0.151566
-0.14601
-0.165373
-0.182448
-0.12029
-0.132481
-0.0861237
-0.0596997
-0.0249671
-0.0824919
-0.0351554
-0.0650148
0.0273728
0.0870899
0.180703
0.192794
0.221073
0.268146
0.285745
0.298742
0.245986
0.262935
0.222989
0.26262
0.276245
0.196538
0.21493
0.190353
0.173079
0.149618
0.120294
0.136526
0.0900639
0.0584073
0.116602
0.0922556
0.0732792
0.0967335
0.087127
0.0530086
0.100573
0.0615419
0.0527237
0.0420628
-0.0190541
-0.00364626
-0.0444193
-0.109317
-0.111739
-0.149194
-0.185913
-0.12718
-0.150873
-0.193172
-0.244457
-0.218443
-0.185832
-0.258211
-0.272468
-0.16832
-0.163069
-0.193071
-0.115427
-0.0812776
-0.120807
-0.0847259
-0.0659495
-0.0606356
-0.0514144
-0.0430431
-0.0487407
-0.0153723
-0.0313097
-0.041521
0.0236401
0.0326914
-0.0200396
-0.0993311
-0.112015
-0.180995
-0.195558
-0.143579
-0.155258
-0.0992533
-0.0643019
-0.00335238
0.0299165
0.0325622
-0.0050166
0.019392
0.0251816
-0.0344934
-0.0220145
0.0195224
-0.0150031
-0.0385595
-0.0875589
-0.119337
-0.170594
-0.21189
-0.175724
-0.124299
-0.137036
-0.153056
-0.137017
-0.112611
-0.096518
-0.0672336
-0.0636117
-0.062132
-0.0504098
-0.0606216
-0.00105922
0.094592
0.163541
0.220718
0.25579
0.224191
0.218806
0.260638
0.22136
0.253637
0.212328
0.184101
0.239228
0.216315
0.158109
0.116237
0.150373
0.142264
0.163796
0.152884
0.0645428
0.0664089
0.0993543
0.0904693
0.0823901
0.043198
0.084519
0.0328214
0.054484
0.0400977
0.0550277
-0.028666
-0.053701
-0.0304948
-0.0326565
-0.0594581
-0.10294
-0.15787
-0.161704
-0.144223
-0.195371
-0.155812
-0.203206
-0.16738
-0.190359
-0.245268
-0.237257
-0.171872
-0.148519
-0.170154
-0.171302
-0.114169
-0.0718057
-0.0302336
0.0137782
-0.0741954
-0.0642835
-0.0233108
-0.0327559
0.0111009
0.0486408
-0.0514337
-0.0111515
0.00827355
-0.0262971
-0.138814
-0.102651
-0.1568
-0.173179
-0.132586
-0.112249
-0.0847217
-0.0282826
-0.00511622
-0.0224915
0.00747197
0.0190099
0.024665
0.0265442
0.0151104
0.0262873
0.0337784
0.039114
-0.00637397
-0.0902236
-0.0831818
-0.161713
-0.209615
-0.200771
-0.0975772
-0.110419
-0.119252
-0.125297
-0.0953448
-0.0722981
-0.111659
-0.0974881
-0.0466738
-0.0405697
-0.0234493
0.0590202
0.0750911
0.143673
0.182017
0.242708
0.196225
0.187966
0.222849
0.204232
0.211343
0.229756
0.170048
0.172164
0.168813
0.150329
0.118004
0.0805984
0.0946291
0.151954
0.167681
0.068244
0.0316555
0.0454911
0.0577845
0.086686
0.0456007
0.0421389
0.0851265
0.0260156
0.0682974
0.0173326
-0.0676262
-0.0472571
-0.0356987
-0.0248196
-0.0860995
-0.0926526
-0.0910971
-0.123151
-0.122505
-0.155965
-0.171896
-0.208559
-0.08895
-0.185066
-0.24022
-0.213599
-0.18786
-0.172948
-0.115309
-0.134468
-0.0695836
-0.0538402
-0.0576863
-0.00105788
-0.0236544
-0.0243764
-0.00557691
0.0411891
-0.000364462
-0.00389162
-0.0238482
-0.0224969
-0.0134363
0.00778279
-0.105219
-0.0962122
-0.127575
-0.168156
-0.170483
-0.107638
-0.0803088
-0.0393338
0.001329
0.00958599
0.00784188
0.0739606
0.00930664
0.00105483
0.0254812
-0.0019071
0.0109401
0.0563525
0.0230435
0.00279798
-0.0825199
-0.140941
-0.139805
-0.108917
-0.0997993
-0.105222
-0.0933747
-0.0963761
-0.0812033
-0.148053
-0.108958
-0.0505753
-0.0169588
-0.0316804
-0.0253437
0.0327933
0.0837805
0.155751
0.203271
0.26398
0.162725
0.124624
0.201771
0.23915
0.148795
0.162443
0.159647
0.122605
0.126382
0.13246
0.0939871
0.0890936
0.108239
0.102737
0.137441
0.0745889
0.0320062
0.00195118
0.0224801
0.0827301
0.0281111
-0.0098288
0.0160925
0.0154353
0.0609467
0.0188298
-0.0140094
-0.0175776
-0.0306831
-0.0485034
-0.0258177
-0.0423891
-0.0993904
-0.139264
-0.0957557
-0.164739
-0.14888
-0.140176
-0.124994
-0.146713
-0.1729
-0.166513
-0.177534
-0.171877
-0.136535
-0.123882
-0.128829
-0.0804532
-0.0540051
0.012212
-0.00228662
0.00367132
0.0406277
0.0404485
-0.0298724
0.00557812
-0.00448038
-0.00139549
-0.00932849
-0.0303423
-0.0756119
-0.0906205
-0.166421
-0.139147
-0.116813
-0.114789
-0.070956
-0.0164107
0.0488409
0.000653321
-0.0265244
0.0918528
0.0845809
-0.0418736
-0.0247402
0.0652941
0.12001
0.0529667
0.00660209
0.0406875
-0.0296067
-0.0917037
-0.116551
-0.145493
-0.0901858
-0.137841
-0.0851008
-0.0609297
-0.0571805
-0.152704
-0.110488
-0.0375501
-0.0610673
-0.0855606
0.0225769
0.119535
0.114178
0.120977
0.205518
0.207085
0.162646
0.112486
0.220271
0.22247
0.135314
0.108423
0.114305
0.108116
0.0944014
0.0930019
0.0430391
0.0250891
0.085719
0.104713
0.0553643
0.0171156
0.027616
0.0277251
0.0111242
0.0779789
0.0561681
-0.0441648
-0.0375839
0.0279557
0.0424448
-0.0410098
-0.0711496
0.00100826
0.0175967
0.0171075
0.0268031
-0.0128848
-0.0827278
-0.0633034
-0.0413403
-0.136486
-0.150867
-0.111569
-0.0955598
-0.127193
-0.142244
-0.12557
-0.148988
-0.145323
-0.135414
-0.109726
-0.0241473
-0.0746281
-0.0241189
-0.0225818
0.00924944
0.0409928
0.0651787
0.0317222
0.0200656
0.0165141
0.0141908
-0.0353459
-0.0461549
-0.0189781
-0.0761828
-0.0773675
-0.116963
-0.116543
-0.128853
-0.122027
-0.112305
-0.0512801
0.0488089
0.095413
0.090775
0.0690228
0.0329837
0.00303303
-0.0387111
0.0840266
0.18884
0.0890934
0.0115212
0.00374314
-0.0145432
-0.0683273
-0.158826
-0.142045
-0.103372
-0.0892353
-0.103808
-0.0816985
-0.0254521
-0.0899791
-0.053949
-0.0164398
-0.0431414
-0.121196
-0.0496581
0.105751
0.0969946
0.133339
0.217564
0.195749
0.146383
0.112338
0.213056
0.146304
0.103929
0.0748607
0.092211
0.0887977
0.0665381
0.0957458
0.0236634
-0.00713973
0.00099302
0.0518122
0.00962354
-0.000660652
-0.0112926
0.00792812
-0.0213218
0.0333229
0.0310779
-0.0176304
-0.0186371
-0.00140874
0.0382624
-0.00137937
-0.0331979
-0.000624601
0.000158788
0.0094455
0.0474563
-0.0407164
-0.00948978
0.0240113
-0.0260767
-0.124971
-0.13864
-0.0728364
-0.100732
-0.118284
-0.0868574
-0.0592837
-0.1344
-0.131121
-0.125258
-0.145507
-0.0830092
-0.0931257
-0.0221059
0.0163504
0.0762878
0.0659042
0.0470351
0.0699016
0.0691764
0.0232649
-0.0117998
-0.0455468
-0.070982
-0.0211459
-0.0877095
-0.0738174
-0.10491
-0.0957102
-0.0924543