/*--------------------------------*- C++ -*----------------------------------*\
| =========                 |                                                 |
| \\      /  F ield         | OpenFOAM: The Open Source CFD Toolbox           |
|  \\    /   O peration     | Version:  v2012                                 |
|   \\  /    A nd           | Website:  www.openfoam.com                      |
|    \\/     M anipulation  |                                                 |
\*---------------------------------------------------------------------------*/
FoamFile
{
    version     2.0;
    format      ascii;
    class       volVectorField;
    location    "0";
    object      U;
}
// * * * * * * * * * * * * * * * * * * * * * * * * * * * * * * * * * * * * * //

dimensions      [0 1 -1 0 0 0 0];


internalField   nonuniform List<vector> 
4000
(
(0.000323655 0.00993987 0)
(0.00825386 0.0244745 0)
(0.00233268 -0.047044 0)
(0.0640715 -0.0197725 0)
(-0.152269 -0.0934769 0)
(0.336836 0.0109553 0)
(0.0921904 0.057609 0)
(0.00348335 0.0980184 0)
(-0.0901854 0.0197059 0)
(-0.115884 0.0401035 0)
(-0.0536745 -0.12404 0)
(0.0818422 -0.0367138 0)
(0.0224246 0.0304637 0)
(0.0851162 0.0463166 0)
(0.128141 -0.0407075 0)
(0.0137049 -0.135816 0)
(0.0630593 -0.0552597 0)
(-0.00801077 0.106327 0)
(0.0636285 0.0537988 0)
(-0.233123 0.0267505 0)
(0.13451 0.00639979 0)
(-0.056139 -0.0635041 0)
(0.0951878 0.00824473 0)
(-0.00747005 0.0685226 0)
(0.0378179 0.00457054 0)
(0.0559701 -0.07443 0)
(0.024678 0.0131208 0)
(0.0660115 0.0176053 0)
(-0.0311305 0.0311365 0)
(-0.021821 0.116994 0)
(0.00695228 0.00164686 0)
(-0.0409811 -0.042133 0)
(0.109512 -0.136605 0)
(0.128 -0.082579 0)
(-0.0505977 0.135995 0)
(0.0395553 0.0538054 0)
(-0.0875438 -0.0782365 0)
(0.0613292 0.0215783 0)
(-0.00523589 0.066656 0)
(-0.099623 -0.0043034 0)
(-0.120684 -0.0400737 0)
(0.0587846 0.0351917 0)
(0.011833 -0.0328655 0)
(0.0178378 0.0561315 0)
(-0.106806 0.008287 0)
(0.0929387 -0.0433 0)
(-0.0315296 0.00779796 0)
(-0.0488241 -0.0752497 0)
(0.0284063 -0.0475985 0)
(-0.00393867 0.103447 0)
(-0.117807 0.025187 0)
(-0.0506098 -0.00343713 0)
(-0.0056769 -0.0164863 0)
(-0.0466281 -0.0125543 0)
(-0.0108988 -0.0150031 0)
(0.000387111 0.0038299 0)
(0.0121601 0.00279966 0)
(-0.0163201 -0.0317777 0)
(-0.0272735 0.00805324 0)
(-0.0800877 0.134291 0)
(0.0370492 -0.0225151 0)
(0.0601224 -0.0196706 0)
(-0.0140126 -0.0409721 0)
(0.061142 -0.0480004 0)
(-0.000887472 0.0344953 0)
(-0.0842016 -0.0248083 0)
(-0.00477862 -0.00609319 0)
(-0.0842355 0.0414704 0)
(-0.01613 0.0462868 0)
(-0.0588416 -0.0615542 0)
(0.0455082 -0.0429787 0)
(-0.162653 0.00611858 0)
(0.0414487 -0.0165427 0)
(-0.120819 0.141438 0)
(-0.0611521 0.0435079 0)
(-0.0389423 -0.0525629 0)
(0.0246521 -0.0243198 0)
(-0.201551 0.0587405 0)
(-0.10032 -0.0561135 0)
(0.0464166 -0.0447584 0)
(-0.0498014 0.0417047 0)
(0.0725574 0.0507588 0)
(-0.0963684 -0.0748098 0)
(0.148413 -0.056514 0)
(0.0209309 0.0591199 0)
(-0.0915413 0.0301132 0)
(0.0199304 -0.043766 0)
(-0.0315861 -0.0707829 0)
(-0.0588166 0.0536858 0)
(-0.0165054 0.0401165 0)
(0.000774971 -0.0319856 0)
(0.0042505 -0.0144298 0)
(-0.00600883 0.0388839 0)
(0.105661 -0.0465042 0)
(-0.00397666 0.00367645 0)
(-0.0359915 0.06237 0)
(-0.0634581 0.0409194 0)
(-0.118485 -0.0537094 0)
(-0.00588489 -0.0578613 0)
(0.0149391 0.0102007 0)
(-0.0458747 -0.00560804 0)
(0.199972 -0.0331191 0)
(-0.0501468 0.0355457 0)
(-0.00260557 0.0363744 0)
(-0.00862771 -0.113439 0)
(0.0616251 -0.00556795 0)
(-0.0216385 0.0152144 0)
(0.00518107 0.142398 0)
(-0.097944 0.109682 0)
(0.0128265 -0.00797831 0)
(-0.0645627 -0.168059 0)
(-0.101903 -0.0600101 0)
(0.0519926 0.0629731 0)
(0.0104882 -0.0422949 0)
(0.00448681 0.0233898 0)
(0.0228997 0.00304321 0)
(-0.0162023 -0.163302 0)
(-0.037079 0.0717199 0)
(-0.000586551 0.06782 0)
(0.0729668 -0.00767753 0)
(0.0253286 -0.00690986 0)
(0.037056 0.128481 0)
(0.000105969 -0.0557613 0)
(0.061263 -0.159423 0)
(-0.0736558 0.153967 0)
(0.0617785 -0.0123429 0)
(-0.0758613 -0.0193221 0)
(-0.125104 -0.0540412 0)
(-0.0059497 0.0832088 0)
(0.0155575 0.0433709 0)
(-0.0250118 0.00740601 0)
(-0.0196818 -0.0726245 0)
(0.124045 -0.115981 0)
(-0.139303 0.00780091 0)
(-0.128567 0.129151 0)
(0.0932563 0.052674 0)
(-0.0376558 -0.0535409 0)
(-0.0375026 0.00506933 0)
(0.0575687 0.0325568 0)
(-0.00971979 0.00520722 0)
(0.0333672 -0.0583115 0)
(0.00056177 -0.140905 0)
(0.055688 -0.0126113 0)
(0.0098304 0.0627439 0)
(0.0897443 0.0632086 0)
(0.100818 -0.060444 0)
(-0.0242302 -0.00549441 0)
(-0.0186123 -0.00232193 0)
(0.0813318 -0.0564945 0)
(-0.0506179 0.132802 0)
(0.0730041 -0.0383446 0)
(-0.0179363 -0.037419 0)
(-0.0269855 0.0377443 0)
(0.0153179 0.0550397 0)
(-0.0869296 0.0302301 0)
(0.018821 -0.123479 0)
(0.079135 0.0182416 0)
(0.00316735 0.0887476 0)
(-0.0713531 -0.0172585 0)
(0.0025672 -0.0497202 0)
(0.204415 -0.089833 0)
(0.050133 0.0958232 0)
(0.00836803 -0.0342778 0)
(-0.0509121 -0.013135 0)
(0.116731 0.0474731 0)
(0.130233 0.0320635 0)
(-0.122502 -0.0625985 0)
(-0.00362143 -0.0418345 0)
(-0.00299189 0.015838 0)
(-0.00168291 -0.0266893 0)
(-0.0201514 0.055653 0)
(-0.13711 0.10186 0)
(-0.0572846 -0.0170208 0)
(0.0612441 -0.0300311 0)
(0.0987905 0.0541625 0)
(-0.0052873 0.0455235 0)
(-0.0143751 -0.026834 0)
(-0.0203147 0.0273363 0)
(-0.0270309 -0.0726606 0)
(-0.0289903 -0.0566269 0)
(-0.018818 0.0384455 0)
(-0.0754686 0.0554561 0)
(-0.0628017 -0.0709012 0)
(0.0150553 -0.126647 0)
(-0.0730575 0.0347234 0)
(-0.107519 0.0427663 0)
(-0.146495 0.0296841 0)
(0.211174 -0.0374851 0)
(-0.00923987 -0.00653578 0)
(0.0593633 -0.019805 0)
(0.00831246 -0.0668773 0)
(0.0523218 -0.030708 0)
(-0.0137201 -0.0034991 0)
(0.0311133 0.0633884 0)
(0.0922226 0.0766457 0)
(0.0740496 0.0399229 0)
(-0.0149491 0.0387638 0)
(0.0044556 -0.048976 0)
(0.00421407 -0.130046 0)
(-0.0633095 -0.0200866 0)
(-0.00502617 -0.0311588 0)
(0.00414596 0.00392489 0)
(-0.00471006 0.0456481 0)
(-0.00941566 -0.0204852 0)
(0.00309344 0.00167347 0)
(-0.00244015 -0.0334137 0)
(0.017421 0.0848151 0)
(0.0350296 0.105723 0)
(-0.0867412 0.021715 0)
(0.0879003 -0.0354704 0)
(0.0357503 -0.071862 0)
(-0.00760445 -0.0936012 0)
(-0.00322937 0.031613 0)
(-0.041764 0.0297312 0)
(0.00199083 -0.0807158 0)
(0.0189672 -0.0390372 0)
(-0.0165748 0.120151 0)
(0.0455966 0.00264247 0)
(-0.0822218 -0.100467 0)
(0.0249626 0.014481 0)
(-0.00937511 0.09942 0)
(0.0184869 0.0780737 0)
(-0.0851311 -0.122134 0)
(-0.0796315 -0.105675 0)
(-0.0427642 0.0607479 0)
(0.0686958 0.0925696 0)
(-0.0426028 -0.00866063 0)
(0.0576048 -0.00577682 0)
(0.131872 0.08592 0)
(0.0878532 0.0260263 0)
(-0.174605 -0.0759142 0)
(0.0111572 -0.143451 0)
(0.197768 -0.0235373 0)
(-0.20038 0.177672 0)
(0.0503928 -0.00572559 0)
(0.0233543 -0.0311364 0)
(-0.0673845 0.0267024 0)
(-0.056076 -0.0343064 0)
(-0.100738 -0.174782 0)
(0.0930815 -0.0209179 0)
(0.249691 -0.0330758 0)
(0.00063911 -0.00778933 0)
(-0.183914 0.0972313 0)
(-0.0215648 -0.0411928 0)
(-0.0296979 -0.00232802 0)
(-0.0440595 0.0361737 0)
(0.0681699 0.0586889 0)
(-0.120998 0.0438218 0)
(0.0230959 -0.141161 0)
(0.0538259 0.0130764 0)
(0.0605679 0.0331379 0)
(-0.0915649 -0.0200567 0)
(-0.0475072 0.00907511 0)
(0.0790957 0.050617 0)
(-0.00256555 0.0417002 0)
(0.00134625 -0.0799526 0)
(0.0548178 0.0849772 0)
(-0.0464725 0.0779726 0)
(0.0256327 -0.0561775 0)
(0.0866303 -0.0800396 0)
(0.0324616 -0.00098668 0)
(-0.133708 0.00506332 0)
(0.0430179 -0.0631599 0)
(0.0159813 0.00235142 0)
(-0.040953 -0.0163821 0)
(0.045997 -0.0461388 0)
(0.0145334 0.0774285 0)
(0.0315297 0.0466802 0)
(-0.171404 -0.0352889 0)
(-0.0715756 0.00682343 0)
(0.0314196 0.00643232 0)
(0.0233769 0.030037 0)
(0.000115873 0.0329502 0)
(0.00973907 -0.0744612 0)
(-0.0786051 0.0229144 0)
(0.338188 0.0145449 0)
(0.0620308 0.0746712 0)
(-0.0556833 0.0665128 0)
(0.0637574 -0.0978801 0)
(0.00747751 -0.132681 0)
(0.02378 0.110707 0)
(-0.0358282 0.0756519 0)
(-0.0114387 -0.0689736 0)
(-0.0262519 -0.0552219 0)
(0.00312152 0.114344 0)
(-0.0652584 0.00247501 0)
(-0.0420057 -0.173464 0)
(0.010411 -0.0576888 0)
(0.226418 0.0495508 0)
(-0.0199601 0.0640659 0)
(-0.0327263 0.0570309 0)
(-0.107244 -0.0132928 0)
(-0.0267958 -0.081936 0)
(-0.0120726 -0.0553729 0)
(0.0712662 0.0876855 0)
(0.0469072 0.138358 0)
(0.015001 0.0513909 0)
(0.110417 -0.107999 0)
(0.0563384 -0.0511018 0)
(0.0128823 -0.00511447 0)
(0.000464728 0.00179254 0)
(0.00135172 0.0154801 0)
(-0.00184382 0.013984 0)
(-0.0126272 0.0951701 0)
(-0.044938 -0.144001 0)
(-0.0793582 -0.269836 0)
(0.00895882 0.203454 0)
(0.0467351 0.32052 0)
(0.111918 -0.0260475 0)
(-0.1164 -0.0018943 0)
(0.0154467 -0.109131 0)
(-0.00354294 -0.127094 0)
(-0.0692495 0.0297848 0)
(0.00257127 0.0374161 0)
(-0.00106102 -0.133499 0)
(-0.00883858 -0.102962 0)
(0.0201424 0.0835224 0)
(0.00999026 0.0631439 0)
(-0.0325488 -0.00718432 0)
(-0.224966 -0.0852241 0)
(0.0656884 0.170815 0)
(0.0592064 0.193726 0)
(-0.02313 -0.239151 0)
(-0.0704758 -0.0653307 0)
(-0.0840819 0.0490834 0)
(0.139364 0.163425 0)
(-0.0341019 -0.107229 0)
(-0.00960161 -0.20125 0)
(0.178752 0.0327727 0)
(0.0516462 0.377155 0)
(-0.137203 0.120324 0)
(-0.102452 -0.312706 0)
(-0.0392059 -0.148039 0)
(0.0439426 0.12547 0)
(0.0856236 0.033528 0)
(-0.0194498 0.0518412 0)
(-0.0222003 -0.00363693 0)
(-0.038564 -0.0551902 0)
(-0.0408592 -0.0319932 0)
(0.00976795 -0.183126 0)
(-0.0145501 0.0215945 0)
(-0.210428 0.15704 0)
(-0.0338515 0.0206623 0)
(0.0658843 -0.133269 0)
(0.00954922 -0.0473353 0)
(-0.0786933 0.142902 0)
(-0.0986628 0.073389 0)
(-0.0867325 -0.030235 0)
(-0.0461203 -0.139432 0)
(0.0712473 0.019504 0)
(-0.00347809 0.177767 0)
(-0.0387282 -0.0662127 0)
(-0.0133363 -0.0677589 0)
(-0.0326156 0.0162654 0)
(0.0212831 0.110333 0)
(-0.0217009 0.0223114 0)
(-0.0295496 -0.0488178 0)
(0.0297668 0.0562987 0)
(-0.0230885 -0.0588513 0)
(0.0469933 -0.0279021 0)
(-0.0196848 0.0602366 0)
(-0.0172043 0.00788816 0)
(-0.00139178 -0.0606662 0)
(0.0157052 0.0105951 0)
(0.0408498 -0.0332452 0)
(-0.119327 -0.0943054 0)
(-0.040291 0.0450893 0)
(0.0313976 0.134828 0)
(-0.0469476 -0.0233172 0)
(-0.0255675 -0.0389092 0)
(0.0420381 -0.0476954 0)
(-0.0331811 0.0114245 0)
(-0.0477392 0.0994529 0)
(-0.0394999 0.0471575 0)
(0.00946374 -0.108985 0)
(0.0297777 -0.0421567 0)
(0.00807416 0.127519 0)
(-0.0185863 -0.0445332 0)
(0.11093 -0.12619 0)
(-0.0894776 0.0450254 0)
(-0.116612 0.121514 0)
(0.0566329 -0.000493357 0)
(0.053328 -0.0896267 0)
(0.123251 -0.0534686 0)
(0.108283 0.0213817 0)
(0.027878 0.103226 0)
(-0.0319078 -0.0890614 0)
(-0.0984186 -0.160561 0)
(-0.0343094 0.0551747 0)
(-0.024392 0.104862 0)
(0.119236 0.0222485 0)
(0.0181812 -0.0291619 0)
(0.0817141 0.00558881 0)
(-0.0572241 0.0111279 0)
(-0.0561368 0.0861202 0)
(-0.0122316 0.078122 0)
(-0.00826624 -0.0440959 0)
(0.0482441 -0.184621 0)
(0.0185666 0.0103415 0)
(0.0488046 0.0764729 0)
(0.00332952 -0.0175014 0)
(-0.0017957 0.0446887 0)
(0.0703446 0.0279255 0)
(0.013486 0.0141254 0)
(-0.0837409 -0.0521534 0)
(-0.043307 -0.072888 0)
(0.00782653 0.0313971 0)
(0.0761611 0.130258 0)
(0.0552002 0.111461 0)
(0.00401045 0.0290905 0)
(0.0344664 -0.150352 0)
(0.1124 -0.0359403 0)
(-0.00131993 -0.0185004 0)
(0.00177978 -0.0664643 0)
(-0.0274276 0.000682179 0)
(0.013565 -0.0588809 0)
(0.0581548 0.0883631 0)
(-0.0712249 0.0695346 0)
(0.00120531 -0.0196659 0)
(0.0215298 -0.0728261 0)
(-0.214409 0.0299643 0)
(0.0137749 0.115918 0)
(0.107274 -0.0865538 0)
(-0.092824 0.0234272 0)
(0.0647222 0.0545513 0)
(0.16348 -0.153304 0)
(0.329604 0.0624468 0)
(-0.275256 0.0475627 0)
(-0.203067 -0.0495754 0)
(-0.002106 0.144138 0)
(0.170777 0.188779 0)
(0.00611567 -0.187755 0)
(-0.0446144 -0.184903 0)
(0.00619248 0.112524 0)
(0.173523 0.0870186 0)
(0.0676932 0.0423496 0)
(0.105817 -0.0595316 0)
(-0.0850882 -0.235401 0)
(0.057268 0.0419585 0)
(0.133695 0.0980292 0)
(0.0280832 0.110861 0)
(-0.0154177 -0.0595015 0)
(0.0329828 -0.0756002 0)
(0.0223239 0.0240133 0)
(-0.0180763 -0.0590392 0)
(-0.0840603 0.0653445 0)
(-0.00806193 0.163175 0)
(-0.105535 -0.0937786 0)
(-0.0487728 -0.217049 0)
(0.00785251 0.0551314 0)
(0.126977 0.185845 0)
(-0.0773858 -0.0436356 0)
(0.0490962 -0.0762543 0)
(0.00144922 0.0137976 0)
(-0.0308268 0.100851 0)
(0.0677718 0.00938045 0)
(0.0774519 -0.114473 0)
(0.0109894 0.0270071 0)
(0.0266555 0.127583 0)
(0.0254879 -0.0637295 0)
(-0.0277714 -0.0366919 0)
(0.033927 0.0217867 0)
(-0.0218814 -0.070083 0)
(-0.00760568 0.055572 0)
(0.00629974 0.0312123 0)
(-0.150071 -0.0790454 0)
(-0.0515341 0.0213528 0)
(0.025217 -0.02768 0)
(0.0185954 -0.0341951 0)
(0.0877681 0.106661 0)
(-0.0492805 -0.0457212 0)
(-0.018684 0.0838389 0)
(-0.024539 0.0901243 0)
(-0.000585637 -0.127716 0)
(0.0914941 -0.103276 0)
(-0.0222927 0.105385 0)
(-0.0675604 0.152352 0)
(-0.0514486 -0.0986953 0)
(-0.0248537 -0.148796 0)
(0.0844044 0.135143 0)
(0.0490494 0.0516288 0)
(-0.00410714 -0.133931 0)
(0.0796608 -0.096193 0)
(0.0313809 -0.00223041 0)
(0.0311672 0.103176 0)
(-0.258918 0.0513208 0)
(-0.00805503 -0.0527767 0)
(-0.0343518 -0.0730053 0)
(0.0143095 -0.0107906 0)
(0.0261883 -0.000745401 0)
(-0.00972126 -0.0055372 0)
(0.0112939 -0.0828756 0)
(-0.0518385 0.0326213 0)
(0.00499487 0.19037 0)
(-0.0264726 0.0170036 0)
(-0.0411855 -0.0533395 0)
(-0.0052974 -0.0839156 0)
(-0.124139 -0.0623968 0)
(0.0547192 0.0193929 0)
(-0.0350023 0.0495576 0)
(0.00217639 -0.00468338 0)
(0.00119759 -0.00406957 0)
(-0.0167864 0.0132585 0)
(0.0501089 0.154394 0)
(-0.00607529 -0.133608 0)
(0.0115556 -0.0150104 0)
(0.0157249 -0.0392143 0)
(0.0224617 -0.13137 0)
(0.137589 0.141909 0)
(0.15299 0.141646 0)
(0.118868 -0.183306 0)
(-0.0154674 -0.00470193 0)
(-0.000106253 0.159897 0)
(0.0274542 -0.0689358 0)
(-0.0140094 -0.0270742 0)
(-0.0167973 -0.141775 0)
(0.00276623 0.04728 0)
(0.0528724 0.0743737 0)
(0.00151455 -0.0846861 0)
(0.0178593 -0.0243073 0)
(0.0176144 0.0645827 0)
(-0.00605036 -0.0968743 0)
(0.00912929 0.0490688 0)
(-0.0373172 0.121237 0)
(0.102306 -0.114842 0)
(-0.0666965 -0.138052 0)
(-0.075582 0.270902 0)
(0.0179747 0.115164 0)
(-0.0125604 -0.0939429 0)
(0.0201134 -0.00585915 0)
(0.0274387 0.145 0)
(0.0110626 0.0731954 0)
(0.0116854 -0.203502 0)
(-0.201938 0.0536545 0)
(-0.11299 -0.0606925 0)
(0.0927009 -0.0481179 0)
(0.0742265 0.10198 0)
(-0.173599 -0.0298457 0)
(-0.35916 -0.258944 0)
(0.00229 -0.0441065 0)
(-0.0133999 0.207994 0)
(0.000967005 0.133625 0)
(0.0157142 -0.0759572 0)
(-0.00571373 0.0208252 0)
(0.000112206 -0.0713387 0)
(-0.0931964 -0.0078388 0)
(-0.00419005 0.141536 0)
(0.0423477 -0.0630965 0)
(-0.0968507 -0.157091 0)
(-0.0314369 -0.0776825 0)
(-0.0641614 0.195649 0)
(0.0130262 -0.0079955 0)
(0.00390665 -0.105952 0)
(0.0082308 0.128967 0)
(-0.0442126 0.0389792 0)
(-0.0264467 -0.0767978 0)
(-0.0228621 -0.0651195 0)
(0.0113809 -0.0837281 0)
(0.0853442 0.157425 0)
(0.0507151 0.0955927 0)
(0.110998 -0.128348 0)
(0.0130914 -0.033747 0)
(0.0426655 0.0960452 0)
(-0.00529125 -0.0261026 0)
(0.0197439 -0.114023 0)
(-0.0612204 -0.0185879 0)
(0.00527088 0.0217655 0)
(0.0346642 -0.0825915 0)
(0.00828055 0.0378877 0)
(-0.0317155 0.0794498 0)
(0.0783326 -0.00440024 0)
(-0.0504025 -0.00942256 0)
(-0.0016952 0.0847094 0)
(0.0352632 -0.0410255 0)
(-0.0410936 -0.121977 0)
(-0.132543 0.0682463 0)
(-0.0305992 0.167455 0)
(-0.011435 -0.00238394 0)
(-0.0310276 -0.220345 0)
(0.0065618 0.00394502 0)
(0.194639 0.118436 0)
(-0.0979687 -0.0102566 0)
(-0.038787 -0.143999 0)
(-0.117865 -0.100167 0)
(0.183871 0.214982 0)
(-0.0724519 0.100468 0)
(-0.0312327 -0.149612 0)
(-0.0155629 -0.0529334 0)
(-0.0574292 0.0596958 0)
(0.027394 0.00244296 0)
(0.0654378 -0.0110431 0)
(-0.0214121 0.0532116 0)
(0.00195192 0.00780895 0)
(0.039129 -0.0167721 0)
(0.0548091 0.0268214 0)
(-0.024251 0.102092 0)
(-0.0282201 -0.0402681 0)
(-0.0167072 -0.121839 0)
(4.64317e-06 -0.0283324 0)
(0.119854 0.0358489 0)
(0.000699325 0.00206536 0)
(-0.00602577 0.0307884 0)
(-0.0117122 0.0146383 0)
(0.00584376 0.0403178 0)
(-0.0577449 -0.0401746 0)
(0.0104945 0.00755049 0)
(0.021837 -0.0489377 0)
(-0.0728929 -0.12098 0)
(-0.0289145 0.033995 0)
(0.0441077 -0.0664329 0)
(0.0285895 0.0298366 0)
(0.022696 0.0583242 0)
(-0.00296207 0.107923 0)
(0.0864432 -0.034732 0)
(-0.042216 -0.110038 0)
(-0.0101443 0.0411662 0)
(0.0119879 -0.100431 0)
(0.00749757 -0.0224579 0)
(0.0109459 0.072488 0)
(-0.00748415 -0.0748626 0)
(0.00962552 -0.126383 0)
(-0.0105076 0.0164925 0)
(0.0841466 0.217449 0)
(-0.0912205 -0.0181853 0)
(0.0778996 -0.0854319 0)
(-0.0717904 0.0688447 0)
(-0.0142677 0.0410411 0)
(0.0137477 0.0460007 0)
(0.00421699 0.0130737 0)
(-0.103569 -0.0354743 0)
(-0.0229907 0.0447695 0)
(0.269137 0.0239545 0)
(0.0908072 0.00758984 0)
(-0.0645302 -0.0232584 0)
(-0.143397 -0.0519987 0)
(0.152697 -0.0243707 0)
(-0.0884269 0.0668057 0)
(0.0290014 0.0669818 0)
(0.0555493 -0.120134 0)
(-0.0303144 -0.117975 0)
(-0.201478 0.0961329 0)
(-0.055218 0.0844236 0)
(-0.187106 -0.0105003 0)
(-0.0813686 -0.112603 0)
(0.0620084 -0.0486525 0)
(0.0210274 0.112671 0)
(-0.0113629 -0.0141234 0)
(-0.04446 -0.156817 0)
(-0.0592488 -0.0612518 0)
(0.00470533 0.0629889 0)
(0.0292908 0.0568464 0)
(0.0821324 -0.0253939 0)
(-0.044564 -0.0181303 0)
(-0.155125 0.12416 0)
(0.0173993 0.110839 0)
(-0.0670009 -0.118012 0)
(-0.114659 -0.133666 0)
(0.0538843 -0.072114 0)
(-0.00665727 0.228244 0)
(0.0578307 0.112208 0)
(0.0572907 -0.188549 0)
(-0.0893547 -0.0196815 0)
(0.0367297 0.134481 0)
(0.0773493 -0.148883 0)
(0.08311 -0.120473 0)
(0.136536 0.125732 0)
(0.0106231 -0.0929287 0)
(0.0226906 0.0102039 0)
(-0.00901507 0.00557052 0)
(0.00346485 0.00644862 0)
(0.0186586 0.148155 0)
(0.0225013 -0.0738802 0)
(-0.0382388 -0.0142234 0)
(0.0419316 0.081838 0)
(0.0759609 -0.040581 0)
(0.0395122 0.0347744 0)
(0.0798534 0.0704583 0)
(-0.0081046 -0.0243697 0)
(-0.0950057 -0.117607 0)
(-0.102355 -0.098708 0)
(-0.0657985 0.101061 0)
(-0.0243848 0.134685 0)
(0.203707 -0.120218 0)
(-0.0162232 -0.158184 0)
(-0.045756 0.125402 0)
(-0.0390996 0.145472 0)
(-0.0219354 -0.0396757 0)
(0.0248144 -0.0543079 0)
(-0.0685253 -0.0703407 0)
(0.0820501 -0.0400976 0)
(-0.113564 0.0252579 0)
(0.0653164 -0.0414114 0)
(0.0606598 0.0362496 0)
(-0.058995 0.144997 0)
(-0.0710953 0.00353295 0)
(0.154257 -0.130846 0)
(0.0850338 -0.08605 0)
(0.0575161 0.018366 0)
(-0.129595 -0.00246483 0)
(0.00534316 -0.0277066 0)
(0.00168596 0.0295628 0)
(0.00435709 -0.00496788 0)
(-0.00944166 0.0115127 0)
(-0.0616565 -0.0428796 0)
(-0.08423 0.131404 0)
(-0.116569 0.0573137 0)
(-0.0967401 -0.0642868 0)
(-0.0673717 -0.0913924 0)
(-0.0380156 -0.0724103 0)
(0.0202471 -0.0140466 0)
(-0.139222 0.0922317 0)
(0.0377054 0.00666529 0)
(0.0116205 0.0124926 0)
(0.0486052 0.0335192 0)
(0.0144885 -0.149282 0)
(0.0483602 0.0871295 0)
(-0.0789653 -0.0362394 0)
(0.00816363 -0.0926695 0)
(0.053227 0.0468878 0)
(-0.0167234 -0.104588 0)
(-0.0348165 -0.127984 0)
(-0.0317479 -0.011124 0)
(0.0452684 0.0422296 0)
(-0.00999975 0.12386 0)
(-0.129852 0.0512753 0)
(-0.154917 -0.0805421 0)
(-0.153659 0.0130005 0)
(-0.0445772 0.195208 0)
(0.0330896 0.122442 0)
(-0.0545606 -0.0530591 0)
(-0.0735551 -0.143153 0)
(0.0234919 0.012745 0)
(0.0297229 0.150598 0)
(0.0082896 0.00372905 0)
(-0.0270739 -0.132287 0)
(0.0160463 -0.130783 0)
(-0.0818588 0.236914 0)
(0.0652757 0.0124314 0)
(0.00221456 -0.0297384 0)
(0.039354 0.00275918 0)
(-0.203836 -0.0378269 0)
(-0.0494333 0.045245 0)
(0.0049076 0.0203545 0)
(0.0151702 -0.137182 0)
(0.0330435 -0.0823637 0)
(0.135233 0.123085 0)
(0.0581082 0.0761049 0)
(-0.0630256 -0.135574 0)
(-0.124945 -0.126068 0)
(-0.0906292 0.17905 0)
(-0.0736518 0.0263871 0)
(-0.191799 -0.146023 0)
(-0.0119884 0.101819 0)
(-0.00406078 0.204099 0)
(0.0321509 0.00593903 0)
(-0.0392831 -0.0298372 0)
(-0.101606 -0.204196 0)
(-0.00896065 -0.155605 0)
(-0.0475521 0.227104 0)
(0.114699 0.0491234 0)
(0.0180459 -0.121571 0)
(-0.0213343 -0.0349462 0)
(-0.0994126 0.0849222 0)
(-0.0768488 0.0335305 0)
(-0.0857106 -0.119958 0)
(0.0291924 0.0439264 0)
(-0.130972 0.0743794 0)
(0.0227592 -0.0782821 0)
(-0.0702803 -0.032605 0)
(-0.0283875 -0.0560189 0)
(0.0779666 -0.036094 0)
(-0.0243905 0.116807 0)
(0.043779 0.074573 0)
(-0.00875791 -0.118191 0)
(-0.0334763 -0.0835186 0)
(0.025339 0.0715543 0)
(-0.0494225 0.20512 0)
(0.117825 0.0507694 0)
(-0.0467068 -0.0825973 0)
(-0.0249125 -0.197546 0)
(0.0305349 0.0379582 0)
(-0.0200777 0.100178 0)
(0.0776449 -0.00658252 0)
(-0.0871859 -0.0374813 0)
(-0.0284941 0.0468147 0)
(0.0913239 0.0785553 0)
(0.127897 -0.0366732 0)
(0.125495 -0.00430157 0)
(0.0144154 -0.048635 0)
(-0.0483335 -0.050999 0)
(0.00760032 0.0363384 0)
(-0.132552 -0.0845588 0)
(-0.154989 0.0904981 0)
(0.171004 0.12069 0)
(0.0536258 -0.0222394 0)
(-0.105186 -0.107269 0)
(-0.0621347 -0.00205054 0)
(-0.0170517 -0.0256853 0)
(-0.0314726 -0.0419838 0)
(-0.0496083 -0.0412362 0)
(0.00283684 0.0483128 0)
(0.00765154 -0.0468372 0)
(0.000976485 -0.0384316 0)
(0.0113397 0.0176981 0)
(0.057596 0.0646096 0)
(0.0748823 0.121139 0)
(-0.0217276 -0.0684415 0)
(-0.0661063 -0.11613 0)
(0.0669031 -0.0456418 0)
(0.129634 0.0780778 0)
(0.0117088 -0.0474114 0)
(0.011553 -0.0019407 0)
(-0.0389431 0.0708063 0)
(-0.0140018 -0.0478751 0)
(0.055646 -0.157866 0)
(-0.0834051 0.0816952 0)
(0.0994328 -0.00103823 0)
(0.126235 -0.0292837 0)
(0.210773 0.0187949 0)
(-0.0441386 -0.0920675 0)
(-0.0943445 -0.0253171 0)
(0.133927 0.0273068 0)
(-0.038455 -0.0343585 0)
(-0.0020003 0.219025 0)
(0.0266121 0.0741998 0)
(-0.100612 -0.0648314 0)
(-0.0981921 -0.0482439 0)
(-0.0358026 -0.0725002 0)
(-0.0205094 0.0773018 0)
(0.197594 0.17954 0)
(-0.0182794 -0.162318 0)
(0.0759072 0.0398151 0)
(-0.136065 0.0989766 0)
(0.0331928 0.000199798 0)
(-0.0163126 -0.0698385 0)
(-0.0438055 0.00132117 0)
(-0.11989 0.160741 0)
(-0.0631522 0.083012 0)
(0.0673907 -0.0977779 0)
(-0.103849 -0.0685231 0)
(0.00951335 -0.0145563 0)
(-0.0596859 0.0535346 0)
(0.0567974 -0.0354762 0)
(-0.014753 -0.0896276 0)
(-0.0301033 0.00615106 0)
(-0.150611 -0.0187164 0)
(0.132209 0.136185 0)
(-0.0648417 -0.0957092 0)
(-0.0839753 -0.154963 0)
(-0.0490844 0.136188 0)
(0.0410389 0.18385 0)
(-0.0594347 -0.0721299 0)
(-0.0413164 -0.0610661 0)
(0.0508562 0.0971083 0)
(0.0346462 0.0181877 0)
(0.0214191 0.0185413 0)
(-0.0350802 -0.0494577 0)
(0.0294022 -0.203646 0)
(0.190651 0.051051 0)
(0.153019 0.0631877 0)
(-0.102235 -0.0554878 0)
(-0.0710641 0.0389995 0)
(0.0903266 0.0415199 0)
(0.02763 0.0169206 0)
(-0.00773633 -0.0786904 0)
(-0.00730732 -0.019894 0)
(-0.0200077 -0.0150098 0)
(-0.014404 0.000112463 0)
(0.140425 0.0247106 0)
(-0.0781124 -0.0212004 0)
(-0.0104275 0.0423567 0)
(-0.194095 0.00281764 0)
(0.142791 -0.0589839 0)
(-0.110595 -0.0588818 0)
(-0.0705644 0.0237638 0)
(-0.223899 0.0559465 0)
(-0.0305182 0.105592 0)
(0.0544657 -0.0722189 0)
(0.0229919 0.0608349 0)
(0.00671616 0.0304659 0)
(-0.0613813 -0.0778635 0)
(-0.0725186 -0.0312208 0)
(-0.00759174 -0.026689 0)
(-0.00591551 0.0350114 0)
(-0.00217769 -0.0839493 0)
(0.0556981 -0.0441537 0)
(0.144223 0.0392934 0)
(-0.00440482 0.0360054 0)
(0.0264156 0.0501558 0)
(0.0118699 0.0318518 0)
(-0.00832701 -0.0270103 0)
(-0.0294905 0.0230629 0)
(-0.00778484 -0.0152192 0)
(0.036997 0.050853 0)
(0.149611 0.0252563 0)
(0.133722 -0.0387158 0)
(0.0745884 0.074943 0)
(-0.00855722 -0.0478347 0)
(-0.0190838 -0.101027 0)
(-0.0320148 -0.0401505 0)
(0.00324696 -0.0108335 0)
(-0.00308183 0.0514696 0)
(-0.0129296 -0.0626651 0)
(0.0478092 -0.0717448 0)
(0.0135403 0.113738 0)
(-0.0210537 0.08787 0)
(-0.0668221 0.0883921 0)
(-0.0587563 -0.191215 0)
(0.146251 -0.136755 0)
(-0.0683207 0.0581606 0)
(0.0579146 0.103697 0)
(0.00821047 0.140625 0)
(-0.0825465 -0.171205 0)
(-0.128415 -0.0525383 0)
(0.0197317 0.0820896 0)
(-0.0211221 -0.111675 0)
(-0.133401 -0.120324 0)
(0.19378 0.0197216 0)
(0.0390048 0.169264 0)
(-0.0253018 -0.00356238 0)
(-0.17688 -0.219743 0)
(-0.0391295 -0.0887532 0)
(0.12943 0.175847 0)
(0.106962 0.181306 0)
(-0.042204 0.0407769 0)
(0.0183906 0.0806185 0)
(-0.0330439 -0.0568546 0)
(-0.199689 -0.0581795 0)
(-0.00399428 0.00968312 0)
(0.0251944 -0.115517 0)
(-0.02696 -0.142058 0)
(0.0408611 0.0811677 0)
(-0.110778 0.193465 0)
(0.00829221 -0.0496657 0)
(-0.00844257 0.0539884 0)
(0.0492587 0.0880603 0)
(0.0195428 -0.148933 0)
(-0.00996639 0.0994428 0)
(-0.0565395 -0.0353441 0)
(-0.0562374 0.0710121 0)
(0.075938 -0.0717463 0)
(0.0882434 -0.0970706 0)
(0.0143542 -0.00251714 0)
(0.0302298 0.0138591 0)
(0.0783424 0.0481708 0)
(-0.119007 0.0314598 0)
(-0.0310855 -0.0172351 0)
(0.184645 -0.123028 0)
(-0.116974 0.066726 0)
(-0.0943993 0.149998 0)
(-0.0846453 -0.0644057 0)
(0.0762302 -0.0203186 0)
(-0.0152699 -0.0300777 0)
(0.0643776 -0.0664989 0)
(0.03648 0.112797 0)
(-0.0413529 0.049832 0)
(0.0585209 -0.113425 0)
(0.0443268 -0.114916 0)
(-0.0499008 0.064616 0)
(-0.00624311 0.0906586 0)
(0.0421832 -0.0205792 0)
(-0.0174456 -0.0571982 0)
(0.0245331 0.0386068 0)
(-0.0823316 0.118567 0)
(-0.197679 0.00996014 0)
(0.0625594 -0.0782078 0)
(-0.112484 -0.0321368 0)
(-0.130044 0.0129588 0)
(0.0761346 -0.0862006 0)
(-0.159514 0.00539969 0)
(0.0892641 0.149358 0)
(0.0872017 0.0191485 0)
(-0.138984 0.0457316 0)
(-0.143192 0.019431 0)
(-0.159193 -0.0180321 0)
(-0.070411 0.0107381 0)
(-0.053172 -0.0580906 0)
(-0.00744778 -0.105809 0)
(0.0433979 -0.0278384 0)
(0.138477 0.00220531 0)
(0.0696531 0.00405116 0)
(0.0457382 0.0372762 0)
(-0.0323551 0.0209212 0)
(0.0379358 -0.0815115 0)
(0.00340495 -0.110411 0)
(0.125526 0.102479 0)
(-0.0921776 0.077494 0)
(0.0387707 -0.0580952 0)
(-0.0355699 0.0337583 0)
(-0.0295367 0.0688826 0)
(-0.0760601 0.00779465 0)
(-0.0733624 -0.0530002 0)
(0.0383138 -0.0149982 0)
(0.14302 0.0841453 0)
(0.0339822 -0.0117552 0)
(-0.0281434 -0.141758 0)
(0.00830458 0.0250375 0)
(0.0580751 0.0947245 0)
(-0.0228381 0.00156021 0)
(-0.0442507 -0.066214 0)
(0.000460771 -0.00737321 0)
(0.00146353 -0.0304165 0)
(0.00118141 0.0413563 0)
(0.00326867 0.041676 0)
(0.000525309 0.0367099 0)
(0.022125 0.0126613 0)
(-0.00531279 0.0773144 0)
(0.00497411 -0.174338 0)
(-0.00034092 -0.119727 0)
(0.000104208 0.126956 0)
(-0.0385245 0.0302669 0)
(0.0349324 0.188131 0)
(-0.0483469 0.0565248 0)
(0.0120398 -0.2853 0)
(0.00461754 0.102249 0)
(0.00431985 -0.0345763 0)
(-0.00567895 -0.289284 0)
(0.00176684 0.0662404 0)
(0.00984145 0.191992 0)
(0.0821863 0.0283937 0)
(-0.0278352 -0.161151 0)
(0.124408 -0.0863448 0)
(-0.0309362 0.0823821 0)
(-0.151245 0.0316309 0)
(-0.00416278 0.114867 0)
(-0.147328 0.0394303 0)
(0.00102665 0.0283596 0)
(0.0150486 0.0347374 0)
(0.00505896 0.0423679 0)
(-0.064222 -0.227743 0)
(-0.00216816 -0.105629 0)
(-0.00332031 0.0818286 0)
(-0.00655257 0.226843 0)
(-0.0309193 -0.0256486 0)
(-0.119437 -0.096188 0)
(0.0286836 0.0154946 0)
(0.0917946 0.00917859 0)
(-0.0874861 -0.089663 0)
(-0.0146951 0.0312834 0)
(0.00953812 0.153842 0)
(-0.00258784 -0.0638197 0)
(-0.109339 -0.140682 0)
(0.0323192 -0.0255022 0)
(-0.0346965 -0.0968351 0)
(0.0206874 0.0361339 0)
(-0.0112515 0.20764 0)
(-0.0304508 -0.0364621 0)
(-0.0872119 -0.0409368 0)
(-0.135505 0.0644788 0)
(0.205858 0.111532 0)
(0.0842323 0.079453 0)
(0.0128256 -0.102206 0)
(0.0527048 -0.225033 0)
(0.013884 -0.0345409 0)
(0.0270982 0.202563 0)
(-0.0329531 0.0559932 0)
(-0.0082664 -0.219614 0)
(-0.033978 -0.0149605 0)
(-0.0424593 0.127048 0)
(0.050711 0.0318217 0)
(0.0268001 -0.123598 0)
(-0.00648793 -0.00750443 0)
(0.011066 0.171222 0)
(-0.0248391 0.100567 0)
(-0.0154599 -0.117335 0)
(-0.084765 -0.0991042 0)
(0.233036 0.0930255 0)
(0.027728 -0.0777684 0)
(-0.175482 -0.115577 0)
(-0.0927078 0.0815344 0)
(-0.00824631 0.0422691 0)
(-0.0687426 0.123642 0)
(0.0309761 0.0525656 0)
(0.127254 0.0844929 0)
(-0.113784 -0.114764 0)
(0.0476848 -0.114454 0)
(0.094005 -0.0847257 0)
(0.0066728 0.0951125 0)
(0.10134 0.0630323 0)
(-0.146161 -0.0515776 0)
(-0.0756307 -0.00419862 0)
(-0.0477818 0.0337098 0)
(0.0023926 0.106973 0)
(-0.0162502 -0.0899442 0)
(-0.0406118 -0.0840766 0)
(-0.0023121 0.0701977 0)
(-0.0146846 -0.00899652 0)
(-0.00292055 -0.021475 0)
(0.0857109 0.0210541 0)
(0.0403602 0.0710275 0)
(-0.0696506 0.0255068 0)
(-0.032137 -0.0417387 0)
(0.0534894 -0.11196 0)
(0.124844 -0.0254192 0)
(0.0477134 0.0934992 0)
(0.00896851 0.0547845 0)
(-0.074154 0.045654 0)
(0.0247759 -0.0035436 0)
(0.0129002 -0.104003 0)
(-0.0148088 -0.058988 0)
(0.000782098 -0.0296818 0)
(0.00203259 0.0275067 0)
(0.00850347 0.0206858 0)
(0.00771843 -0.0468969 0)
(0.00256129 0.0259283 0)
(-0.00392209 0.204537 0)
(0.060124 -0.0805313 0)
(0.110587 -0.186109 0)
(0.00936223 -0.122378 0)
(-0.0111711 0.0626127 0)
(0.00262605 0.150214 0)
(0.00046675 -0.00157393 0)
(0.015374 -0.0894475 0)
(0.0216455 -0.168309 0)
(-0.0123333 0.0863303 0)
(0.0723124 0.191344 0)
(0.00790962 -0.170358 0)
(0.0300855 -0.0650816 0)
(0.00560405 0.261284 0)
(-0.0177536 0.0166289 0)
(-0.0373592 -0.346648 0)
(-0.00285239 -0.0242162 0)
(-0.0835604 0.339399 0)
(0.034992 0.108578 0)
(-0.0133418 -0.0486888 0)
(-0.005924 -0.0353577 0)
(0.0320656 -0.0617387 0)
(-0.0412097 0.0250853 0)
(-0.108344 0.136712 0)
(-0.0139989 -0.0715791 0)
(-0.00614779 -0.0717972 0)
(-0.101307 0.0657355 0)
(0.171953 0.0531446 0)
(0.15844 0.0345961 0)
(-0.020875 0.017258 0)
(0.0575478 -0.0545232 0)
(0.0312393 -0.0330686 0)
(0.0127738 -0.0271937 0)
(-0.0237859 -0.000909136 0)
(-0.0307126 0.115825 0)
(0.0005108 0.00578217 0)
(0.0372202 -0.136893 0)
(-0.012368 -0.0734075 0)
(0.0741559 0.0234491 0)
(-0.0613099 0.0260388 0)
(0.0219869 0.00324796 0)
(-0.0429567 0.0485568 0)
(0.051158 -0.0208505 0)
(0.00387068 -0.019573 0)
(-0.00968832 0.0200941 0)
(0.0323256 0.0728218 0)
(0.143927 0.0220514 0)
(-0.0966776 -0.177124 0)
(-0.0140412 -0.0423738 0)
(0.0258343 0.0817296 0)
(0.05068 0.0487036 0)
(-0.0137843 0.0481948 0)
(-0.0552124 -0.0781178 0)
(-0.0477326 0.0160639 0)
(0.0034552 0.0999331 0)
(0.0078726 -0.083864 0)
(-0.00130524 -0.0784852 0)
(-0.0976408 0.185235 0)
(-0.0397532 0.067688 0)
(-0.0591096 -0.0458506 0)
(-0.0420477 -0.12817 0)
(0.0345799 -0.0808713 0)
(-0.0641832 0.11024 0)
(0.0385332 0.0844148 0)
(-0.0635585 0.0494548 0)
(0.0784024 0.0104214 0)
(-0.0217665 -0.000584642 0)
(-0.0821508 -0.0471466 0)
(0.0772935 0.0669308 0)
(0.0659492 -0.0419393 0)
(-0.0028089 -0.0603572 0)
(-0.0498978 -0.055715 0)
(-0.0510531 -0.0317145 0)
(0.0438627 0.0681936 0)
(0.0200901 0.0960482 0)
(0.0543002 -0.0316662 0)
(0.104034 -0.0910168 0)