/*--------------------------------*- C++ -*----------------------------------*\
| =========                 |                                                 |
| \\      /  F ield         | OpenFOAM: The Open Source CFD Toolbox           |
|  \\    /   O peration     | Version:  v2012                                 |
|   \\  /    A nd           | Website:  www.openfoam.com                      |
|    \\/     M anipulation  |                                                 |
\*---------------------------------------------------------------------------*/
FoamFile
{
    version     2.0;
    format      ascii;
    class       volVectorField;
    location    "6.5";
    object      Psi;
}
// * * * * * * * * * * * * * * * * * * * * * * * * * * * * * * * * * * * * * //

dimensions      [0 2 -1 0 0 0 0];


internalField   nonuniform List<vector> 
65536
(
(0 0 9.23991e-06)
(0 0 2.77195e-05)
(0 0 4.61983e-05)
(0 0 6.4676e-05)
(0 0 8.31519e-05)
(0 0 0.000101626)
(0 0 0.000120097)
(0 0 0.000138564)
(0 0 0.000157028)
(0 0 0.000175488)
(0 0 0.000193942)
(0 0 0.00021239)
(0 0 0.000230833)
(0 0 0.000249267)
(0 0 0.000267694)
(0 0 0.000286112)
(0 0 0.000304521)
(0 0 0.000322918)
(0 0 0.000341304)
(0 0 0.000359677)
(0 0 0.000378036)
(0 0 0.00039638)
(0 0 0.000414708)
(0 0 0.000433018)
(0 0 0.000451308)
(0 0 0.000469578)
(0 0 0.000487825)
(0 0 0.000506049)
(0 0 0.000524246)
(0 0 0.000542416)
(0 0 0.000560556)
(0 0 0.000578664)
(0 0 0.000596738)
(0 0 0.000614775)
(0 0 0.000632775)
(0 0 0.000650732)
(0 0 0.000668647)
(0 0 0.000686514)
(0 0 0.000704333)
(0 0 0.000722099)
(0 0 0.00073981)
(0 0 0.000757463)
(0 0 0.000775053)
(0 0 0.000792579)
(0 0 0.000810036)
(0 0 0.000827422)
(0 0 0.000844731)
(0 0 0.00086196)
(0 0 0.000879106)
(0 0 0.000896164)
(0 0 0.000913131)
(0 0 0.000930001)
(0 0 0.000946771)
(0 0 0.000963436)
(0 0 0.000979991)
(0 0 0.000996432)
(0 0 0.00101275)
(0 0 0.00102895)
(0 0 0.00104502)
(0 0 0.00106096)
(0 0 0.00107676)
(0 0 0.00109241)
(0 0 0.00110791)
(0 0 0.00112326)
(0 0 0.00113845)
(0 0 0.00115348)
(0 0 0.00116834)
(0 0 0.00118301)
(0 0 0.00119751)
(0 0 0.00121182)
(0 0 0.00122594)
(0 0 0.00123986)
(0 0 0.00125358)
(0 0 0.00126709)
(0 0 0.00128038)
(0 0 0.00129346)
(0 0 0.00130631)
(0 0 0.00131893)
(0 0 0.00133131)
(0 0 0.00134345)
(0 0 0.00135535)
(0 0 0.001367)
(0 0 0.00137838)
(0 0 0.00138951)
(0 0 0.00140037)
(0 0 0.00141096)
(0 0 0.00142128)
(0 0 0.00143131)
(0 0 0.00144107)
(0 0 0.00145053)
(0 0 0.0014597)
(0 0 0.00146857)
(0 0 0.00147715)
(0 0 0.00148542)
(0 0 0.00149338)
(0 0 0.00150104)
(0 0 0.00150838)
(0 0 0.0015154)
(0 0 0.00152211)
(0 0 0.00152849)
(0 0 0.00153455)
(0 0 0.00154029)
(0 0 0.0015457)
(0 0 0.00155078)
(0 0 0.00155553)
(0 0 0.00155995)
(0 0 0.00156404)
(0 0 0.00156779)
(0 0 0.00157121)
(0 0 0.0015743)
(0 0 0.00157705)
(0 0 0.00157947)
(0 0 0.00158156)
(0 0 0.00158331)
(0 0 0.00158474)
(0 0 0.00158583)
(0 0 0.00158659)
(0 0 0.00158702)
(0 0 0.00158712)
(0 0 0.0015869)
(0 0 0.00158636)
(0 0 0.00158549)
(0 0 0.00158431)
(0 0 0.00158281)
(0 0 0.001581)
(0 0 0.00157887)
(0 0 0.00157644)
(0 0 0.0015737)
(0 0 0.00157066)
(0 0 0.00156732)
(0 0 0.00156368)
(0 0 0.00155976)
(0 0 0.00155554)
(0 0 0.00155104)
(0 0 0.00154626)
(0 0 0.00154121)
(0 0 0.00153588)
(0 0 0.00153029)
(0 0 0.00152443)
(0 0 0.00151831)
(0 0 0.00151193)
(0 0 0.00150531)
(0 0 0.00149843)
(0 0 0.00149132)
(0 0 0.00148397)
(0 0 0.00147638)
(0 0 0.00146857)
(0 0 0.00146053)
(0 0 0.00145227)
(0 0 0.0014438)
(0 0 0.00143512)
(0 0 0.00142623)
(0 0 0.00141714)
(0 0 0.00140786)
(0 0 0.00139838)
(0 0 0.00138871)
(0 0 0.00137886)
(0 0 0.00136884)
(0 0 0.00135863)
(0 0 0.00134826)
(0 0 0.00133773)
(0 0 0.00132703)
(0 0 0.00131617)
(0 0 0.00130516)
(0 0 0.001294)
(0 0 0.0012827)
(0 0 0.00127126)
(0 0 0.00125968)
(0 0 0.00124797)
(0 0 0.00123613)
(0 0 0.00122416)
(0 0 0.00121207)
(0 0 0.00119987)
(0 0 0.00118755)
(0 0 0.00117512)
(0 0 0.00116258)
(0 0 0.00114994)
(0 0 0.00113719)
(0 0 0.00112436)
(0 0 0.00111142)
(0 0 0.0010984)
(0 0 0.00108529)
(0 0 0.00107209)
(0 0 0.00105881)
(0 0 0.00104546)
(0 0 0.00103202)
(0 0 0.00101852)
(0 0 0.00100494)
(0 0 0.000991296)
(0 0 0.000977585)
(0 0 0.000963811)
(0 0 0.000949977)
(0 0 0.000936083)
(0 0 0.000922134)
(0 0 0.000908131)
(0 0 0.000894076)
(0 0 0.000879971)
(0 0 0.000865819)
(0 0 0.000851621)
(0 0 0.000837379)
(0 0 0.000823095)
(0 0 0.000808771)
(0 0 0.000794409)
(0 0 0.00078001)
(0 0 0.000765576)
(0 0 0.000751108)
(0 0 0.000736609)
(0 0 0.000722079)
(0 0 0.00070752)
(0 0 0.000692933)
(0 0 0.00067832)
(0 0 0.000663682)
(0 0 0.00064902)
(0 0 0.000634335)
(0 0 0.000619629)
(0 0 0.000604902)
(0 0 0.000590156)
(0 0 0.000575392)
(0 0 0.000560611)
(0 0 0.000545813)
(0 0 0.000530999)
(0 0 0.000516171)
(0 0 0.000501329)
(0 0 0.000486474)
(0 0 0.000471607)
(0 0 0.000456728)
(0 0 0.000441839)
(0 0 0.000426939)
(0 0 0.00041203)
(0 0 0.000397111)
(0 0 0.000382185)
(0 0 0.00036725)
(0 0 0.000352308)
(0 0 0.00033736)
(0 0 0.000322405)
(0 0 0.000307444)
(0 0 0.000292477)
(0 0 0.000277506)
(0 0 0.000262529)
(0 0 0.000247549)
(0 0 0.000232564)
(0 0 0.000217576)
(0 0 0.000202584)
(0 0 0.00018759)
(0 0 0.000172592)
(0 0 0.000157592)
(0 0 0.00014259)
(0 0 0.000127586)
(0 0 0.00011258)
(0 0 9.7572e-05)
(0 0 8.25631e-05)
(0 0 6.75531e-05)
(0 0 5.25422e-05)
(0 0 3.75306e-05)
(0 0 2.25186e-05)
(0 0 7.50623e-06)
(0 0 2.772e-05)
(0 0 8.31591e-05)
(0 0 0.000138596)
(0 0 0.00019403)
(0 0 0.000249458)
(0 0 0.00030488)
(0 0 0.000360293)
(0 0 0.000415697)
(0 0 0.000471089)
(0 0 0.000526468)
(0 0 0.000581831)
(0 0 0.000637178)
(0 0 0.000692505)
(0 0 0.00074781)
(0 0 0.000803092)
(0 0 0.000858347)
(0 0 0.000913572)
(0 0 0.000968766)
(0 0 0.00102392)
(0 0 0.00107905)
(0 0 0.00113412)
(0 0 0.00118916)
(0 0 0.00124414)
(0 0 0.00129907)
(0 0 0.00135395)
(0 0 0.00140876)
(0 0 0.0014635)
(0 0 0.00151817)
(0 0 0.00157277)
(0 0 0.00162728)
(0 0 0.0016817)
(0 0 0.00173602)
(0 0 0.00179025)
(0 0 0.00184436)
(0 0 0.00189836)
(0 0 0.00195224)
(0 0 0.00200599)
(0 0 0.00205959)
(0 0 0.00211305)
(0 0 0.00216635)
(0 0 0.00221949)
(0 0 0.00227245)
(0 0 0.00232522)
(0 0 0.00237781)
(0 0 0.00243018)
(0 0 0.00248234)
(0 0 0.00253427)
(0 0 0.00258596)
(0 0 0.00263741)
(0 0 0.00268858)
(0 0 0.00273949)
(0 0 0.0027901)
(0 0 0.00284042)
(0 0 0.00289041)
(0 0 0.00294009)
(0 0 0.00298941)
(0 0 0.00303839)
(0 0 0.00308699)
(0 0 0.0031352)
(0 0 0.00318301)
(0 0 0.00323041)
(0 0 0.00327738)
(0 0 0.0033239)
(0 0 0.00336995)
(0 0 0.00341553)
(0 0 0.00346061)
(0 0 0.00350518)
(0 0 0.00354922)
(0 0 0.00359272)
(0 0 0.00363566)
(0 0 0.00367802)
(0 0 0.00371979)
(0 0 0.00376095)
(0 0 0.00380148)
(0 0 0.00384137)
(0 0 0.0038806)
(0 0 0.00391916)
(0 0 0.00395702)
(0 0 0.00399417)
(0 0 0.00403061)
(0 0 0.0040663)
(0 0 0.00410124)
(0 0 0.00413541)
(0 0 0.0041688)
(0 0 0.00420139)
(0 0 0.00423316)
(0 0 0.00426411)
(0 0 0.00429422)
(0 0 0.00432348)
(0 0 0.00435188)
(0 0 0.00437939)
(0 0 0.00440602)
(0 0 0.00443174)
(0 0 0.00445656)
(0 0 0.00448045)
(0 0 0.00450342)
(0 0 0.00452544)
(0 0 0.00454652)
(0 0 0.00456664)
(0 0 0.00458579)
(0 0 0.00460398)
(0 0 0.00462119)
(0 0 0.00463742)
(0 0 0.00465267)
(0 0 0.00466692)
(0 0 0.00468018)
(0 0 0.00469244)
(0 0 0.00470371)
(0 0 0.00471397)
(0 0 0.00472323)
(0 0 0.00473149)
(0 0 0.00473875)
(0 0 0.00474501)
(0 0 0.00475027)
(0 0 0.00475453)
(0 0 0.0047578)
(0 0 0.00476009)
(0 0 0.00476138)
(0 0 0.00476169)
(0 0 0.00476103)
(0 0 0.0047594)
(0 0 0.0047568)
(0 0 0.00475325)
(0 0 0.00474874)
(0 0 0.0047433)
(0 0 0.00473692)
(0 0 0.00472961)
(0 0 0.00472139)
(0 0 0.00471227)
(0 0 0.00470225)
(0 0 0.00469134)
(0 0 0.00467955)
(0 0 0.00466691)
(0 0 0.00465341)
(0 0 0.00463907)
(0 0 0.0046239)
(0 0 0.00460791)
(0 0 0.00459112)
(0 0 0.00457353)
(0 0 0.00455517)
(0 0 0.00453604)
(0 0 0.00451616)
(0 0 0.00449554)
(0 0 0.00447419)
(0 0 0.00445213)
(0 0 0.00442937)
(0 0 0.00440593)
(0 0 0.00438181)
(0 0 0.00435703)
(0 0 0.00433161)
(0 0 0.00430556)
(0 0 0.00427889)
(0 0 0.00425162)
(0 0 0.00422376)
(0 0 0.00419532)
(0 0 0.00416632)
(0 0 0.00413677)
(0 0 0.00410668)
(0 0 0.00407607)
(0 0 0.00404495)
(0 0 0.00401334)
(0 0 0.00398124)
(0 0 0.00394866)
(0 0 0.00391563)
(0 0 0.00388216)
(0 0 0.00384825)
(0 0 0.00381391)
(0 0 0.00377917)
(0 0 0.00374403)
(0 0 0.0037085)
(0 0 0.0036726)
(0 0 0.00363633)
(0 0 0.00359971)
(0 0 0.00356275)
(0 0 0.00352545)
(0 0 0.00348784)
(0 0 0.00344991)
(0 0 0.00341168)
(0 0 0.00337316)
(0 0 0.00333436)
(0 0 0.00329529)
(0 0 0.00325595)
(0 0 0.00321636)
(0 0 0.00317652)
(0 0 0.00313645)
(0 0 0.00309615)
(0 0 0.00305563)
(0 0 0.00301489)
(0 0 0.00297395)
(0 0 0.00293282)
(0 0 0.00289149)
(0 0 0.00284999)
(0 0 0.00280831)
(0 0 0.00276646)
(0 0 0.00272444)
(0 0 0.00268228)
(0 0 0.00263996)
(0 0 0.0025975)
(0 0 0.00255491)
(0 0 0.00251218)
(0 0 0.00246932)
(0 0 0.00242635)
(0 0 0.00238326)
(0 0 0.00234006)
(0 0 0.00229676)
(0 0 0.00225336)
(0 0 0.00220986)
(0 0 0.00216626)
(0 0 0.00212259)
(0 0 0.00207882)
(0 0 0.00203498)
(0 0 0.00199107)
(0 0 0.00194708)
(0 0 0.00190303)
(0 0 0.00185891)
(0 0 0.00181473)
(0 0 0.00177049)
(0 0 0.00172619)
(0 0 0.00168185)
(0 0 0.00163745)
(0 0 0.00159301)
(0 0 0.00154853)
(0 0 0.001504)
(0 0 0.00145944)
(0 0 0.00141483)
(0 0 0.0013702)
(0 0 0.00132553)
(0 0 0.00128083)
(0 0 0.0012361)
(0 0 0.00119134)
(0 0 0.00114656)
(0 0 0.00110176)
(0 0 0.00105693)
(0 0 0.00101209)
(0 0 0.00096722)
(0 0 0.000922337)
(0 0 0.000877437)
(0 0 0.000832522)
(0 0 0.000787593)
(0 0 0.00074265)
(0 0 0.000697696)
(0 0 0.000652731)
(0 0 0.000607756)
(0 0 0.000562771)
(0 0 0.000517779)
(0 0 0.000472778)
(0 0 0.000427771)
(0 0 0.000382758)
(0 0 0.00033774)
(0 0 0.000292717)
(0 0 0.00024769)
(0 0 0.00020266)
(0 0 0.000157627)
(0 0 0.000112592)
(0 0 6.7556e-05)
(0 0 2.25188e-05)
(0 0 4.62007e-05)
(0 0 0.000138601)
(0 0 0.000230998)
(0 0 0.000323388)
(0 0 0.00041577)
(0 0 0.000508142)
(0 0 0.000600499)
(0 0 0.000692841)
(0 0 0.000785163)
(0 0 0.000877463)
(0 0 0.000969738)
(0 0 0.00106198)
(0 0 0.0011542)
(0 0 0.00124638)
(0 0 0.00133852)
(0 0 0.00143061)
(0 0 0.00152266)
(0 0 0.00161465)
(0 0 0.00170658)
(0 0 0.00179846)
(0 0 0.00189026)
(0 0 0.00198198)
(0 0 0.00207363)
(0 0 0.00216518)
(0 0 0.00225664)
(0 0 0.002348)
(0 0 0.00243925)
(0 0 0.00253037)
(0 0 0.00262137)
(0 0 0.00271223)
(0 0 0.00280294)
(0 0 0.00289349)
(0 0 0.00298387)
(0 0 0.00307407)
(0 0 0.00316408)
(0 0 0.00325388)
(0 0 0.00334346)
(0 0 0.00343282)
(0 0 0.00352192)
(0 0 0.00361077)
(0 0 0.00369934)
(0 0 0.00378762)
(0 0 0.00387559)
(0 0 0.00396324)
(0 0 0.00405054)
(0 0 0.00413749)
(0 0 0.00422405)
(0 0 0.00431022)
(0 0 0.00439597)
(0 0 0.00448128)
(0 0 0.00456613)
(0 0 0.00465051)
(0 0 0.00473438)
(0 0 0.00481772)
(0 0 0.00490052)
(0 0 0.00498275)
(0 0 0.00506439)
(0 0 0.0051454)
(0 0 0.00522578)
(0 0 0.00530548)
(0 0 0.0053845)
(0 0 0.00546279)
(0 0 0.00554034)
(0 0 0.00561712)
(0 0 0.0056931)
(0 0 0.00576825)
(0 0 0.00584255)
(0 0 0.00591598)
(0 0 0.00598849)
(0 0 0.00606008)
(0 0 0.0061307)
(0 0 0.00620033)
(0 0 0.00626895)
(0 0 0.00633652)
(0 0 0.00640302)
(0 0 0.00646842)
(0 0 0.00653269)
(0 0 0.00659582)
(0 0 0.00665776)
(0 0 0.0067185)
(0 0 0.00677801)
(0 0 0.00683626)
(0 0 0.00689322)
(0 0 0.00694889)
(0 0 0.00700322)
(0 0 0.00705619)
(0 0 0.00710779)
(0 0 0.00715799)
(0 0 0.00720677)
(0 0 0.0072541)
(0 0 0.00729997)
(0 0 0.00734436)
(0 0 0.00738725)
(0 0 0.00742862)
(0 0 0.00746845)
(0 0 0.00750674)
(0 0 0.00754345)
(0 0 0.00757859)
(0 0 0.00761213)
(0 0 0.00764407)
(0 0 0.00767439)
(0 0 0.00770308)
(0 0 0.00773013)
(0 0 0.00775554)
(0 0 0.0077793)
(0 0 0.0078014)
(0 0 0.00782184)
(0 0 0.00784062)
(0 0 0.00785773)
(0 0 0.00787316)
(0 0 0.00788693)
(0 0 0.00789903)
(0 0 0.00790946)
(0 0 0.00791822)
(0 0 0.00792533)
(0 0 0.00793077)
(0 0 0.00793457)
(0 0 0.00793672)
(0 0 0.00793724)
(0 0 0.00793613)
(0 0 0.0079334)
(0 0 0.00792907)
(0 0 0.00792313)
(0 0 0.00791562)
(0 0 0.00790653)
(0 0 0.00789589)
(0 0 0.00788371)
(0 0 0.00787)
(0 0 0.00785478)
(0 0 0.00783806)
(0 0 0.00781987)
(0 0 0.00780022)
(0 0 0.00777913)
(0 0 0.00775661)
(0 0 0.0077327)
(0 0 0.0077074)
(0 0 0.00768074)
(0 0 0.00765274)
(0 0 0.00762342)
(0 0 0.0075928)
(0 0 0.00756091)
(0 0 0.00752776)
(0 0 0.00749337)
(0 0 0.00745778)
(0 0 0.00742099)
(0 0 0.00738305)
(0 0 0.00734396)
(0 0 0.00730374)
(0 0 0.00726244)
(0 0 0.00722005)
(0 0 0.00717662)
(0 0 0.00713216)
(0 0 0.00708669)
(0 0 0.00704024)
(0 0 0.00699283)
(0 0 0.00694448)
(0 0 0.00689521)
(0 0 0.00684505)
(0 0 0.00679402)
(0 0 0.00674214)
(0 0 0.00668943)
(0 0 0.00663592)
(0 0 0.00658162)
(0 0 0.00652655)
(0 0 0.00647074)
(0 0 0.00641421)
(0 0 0.00635698)
(0 0 0.00629906)
(0 0 0.00624048)
(0 0 0.00618125)
(0 0 0.0061214)
(0 0 0.00606094)
(0 0 0.0059999)
(0 0 0.00593828)
(0 0 0.00587611)
(0 0 0.00581341)
(0 0 0.00575018)
(0 0 0.00568646)
(0 0 0.00562225)
(0 0 0.00555757)
(0 0 0.00549244)
(0 0 0.00542686)
(0 0 0.00536087)
(0 0 0.00529447)
(0 0 0.00522767)
(0 0 0.00516049)
(0 0 0.00509295)
(0 0 0.00502505)
(0 0 0.00495681)
(0 0 0.00488824)
(0 0 0.00481936)
(0 0 0.00475017)
(0 0 0.0046807)
(0 0 0.00461094)
(0 0 0.00454091)
(0 0 0.00447063)
(0 0 0.00440009)
(0 0 0.00432932)
(0 0 0.00425832)
(0 0 0.0041871)
(0 0 0.00411568)
(0 0 0.00404405)
(0 0 0.00397223)
(0 0 0.00390022)
(0 0 0.00382805)
(0 0 0.0037557)
(0 0 0.0036832)
(0 0 0.00361054)
(0 0 0.00353774)
(0 0 0.0034648)
(0 0 0.00339172)
(0 0 0.00331853)
(0 0 0.00324521)
(0 0 0.00317178)
(0 0 0.00309825)
(0 0 0.00302461)
(0 0 0.00295087)
(0 0 0.00287705)
(0 0 0.00280314)
(0 0 0.00272914)
(0 0 0.00265507)
(0 0 0.00258092)
(0 0 0.00250671)
(0 0 0.00243243)
(0 0 0.00235809)
(0 0 0.0022837)
(0 0 0.00220925)
(0 0 0.00213474)
(0 0 0.00206019)
(0 0 0.0019856)
(0 0 0.00191096)
(0 0 0.00183629)
(0 0 0.00176158)
(0 0 0.00168683)
(0 0 0.00161205)
(0 0 0.00153725)
(0 0 0.00146241)
(0 0 0.00138755)
(0 0 0.00131267)
(0 0 0.00123776)
(0 0 0.00116284)
(0 0 0.0010879)
(0 0 0.00101294)
(0 0 0.000937962)
(0 0 0.000862973)
(0 0 0.000787972)
(0 0 0.000712959)
(0 0 0.000637937)
(0 0 0.000562905)
(0 0 0.000487866)
(0 0 0.000412821)
(0 0 0.00033777)
(0 0 0.000262715)
(0 0 0.000187656)
(0 0 0.000112594)
(0 0 3.75316e-05)
(0 0 6.46827e-05)
(0 0 0.000194046)
(0 0 0.000323405)
(0 0 0.000452755)
(0 0 0.000582094)
(0 0 0.000711417)
(0 0 0.000840722)
(0 0 0.000970004)
(0 0 0.00109926)
(0 0 0.00122848)
(0 0 0.00135767)
(0 0 0.00148682)
(0 0 0.00161593)
(0 0 0.00174498)
(0 0 0.00187398)
(0 0 0.00200292)
(0 0 0.00213179)
(0 0 0.00226059)
(0 0 0.00238931)
(0 0 0.00251793)
(0 0 0.00264647)
(0 0 0.00277489)
(0 0 0.0029032)
(0 0 0.00303139)
(0 0 0.00315945)
(0 0 0.00328736)
(0 0 0.00341511)
(0 0 0.0035427)
(0 0 0.00367011)
(0 0 0.00379732)
(0 0 0.00392433)
(0 0 0.00405112)
(0 0 0.00417767)
(0 0 0.00430397)
(0 0 0.00443)
(0 0 0.00455574)
(0 0 0.00468117)
(0 0 0.00480629)
(0 0 0.00493106)
(0 0 0.00505546)
(0 0 0.00517948)
(0 0 0.0053031)
(0 0 0.00542628)
(0 0 0.00554901)
(0 0 0.00567126)
(0 0 0.00579301)
(0 0 0.00591423)
(0 0 0.00603489)
(0 0 0.00615497)
(0 0 0.00627443)
(0 0 0.00639326)
(0 0 0.00651141)
(0 0 0.00662886)
(0 0 0.00674558)
(0 0 0.00686153)
(0 0 0.00697669)
(0 0 0.00709101)
(0 0 0.00720447)
(0 0 0.00731703)
(0 0 0.00742865)
(0 0 0.0075393)
(0 0 0.00764895)
(0 0 0.00775756)
(0 0 0.00786508)
(0 0 0.00797149)
(0 0 0.00807675)
(0 0 0.00818081)
(0 0 0.00828364)
(0 0 0.0083852)
(0 0 0.00848545)
(0 0 0.00858436)
(0 0 0.00868189)
(0 0 0.00877799)
(0 0 0.00887262)
(0 0 0.00896576)
(0 0 0.00905736)
(0 0 0.00914739)
(0 0 0.00923579)
(0 0 0.00932255)
(0 0 0.00940762)
(0 0 0.00949097)
(0 0 0.00957255)
(0 0 0.00965234)
(0 0 0.0097303)
(0 0 0.0098064)
(0 0 0.0098806)
(0 0 0.00995287)
(0 0 0.0100232)
(0 0 0.0100915)
(0 0 0.0101578)
(0 0 0.010222)
(0 0 0.0102842)
(0 0 0.0103443)
(0 0 0.0104022)
(0 0 0.010458)
(0 0 0.0105116)
(0 0 0.010563)
(0 0 0.0106123)
(0 0 0.0106592)
(0 0 0.010704)
(0 0 0.0107464)
(0 0 0.0107866)
(0 0 0.0108245)
(0 0 0.0108601)
(0 0 0.0108933)
(0 0 0.0109243)
(0 0 0.0109529)
(0 0 0.0109792)
(0 0 0.0110032)
(0 0 0.0110248)
(0 0 0.011044)
(0 0 0.011061)
(0 0 0.0110756)
(0 0 0.0110878)
(0 0 0.0110978)
(0 0 0.0111054)
(0 0 0.0111107)
(0 0 0.0111137)
(0 0 0.0111144)
(0 0 0.0111128)
(0 0 0.011109)
(0 0 0.0111029)
(0 0 0.0110946)
(0 0 0.0110841)
(0 0 0.0110713)
(0 0 0.0110564)
(0 0 0.0110393)
(0 0 0.0110201)
(0 0 0.0109988)
(0 0 0.0109754)
(0 0 0.0109499)
(0 0 0.0109223)
(0 0 0.0108928)
(0 0 0.0108612)
(0 0 0.0108277)
(0 0 0.0107923)
(0 0 0.0107549)
(0 0 0.0107157)
(0 0 0.0106746)
(0 0 0.0106317)
(0 0 0.010587)
(0 0 0.0105406)
(0 0 0.0104924)
(0 0 0.0104426)
(0 0 0.010391)
(0 0 0.0103379)
(0 0 0.0102831)
(0 0 0.0102268)
(0 0 0.0101689)
(0 0 0.0101095)
(0 0 0.0100487)
(0 0 0.00998643)
(0 0 0.00992274)
(0 0 0.00985768)
(0 0 0.00979127)
(0 0 0.00972355)
(0 0 0.00965454)
(0 0 0.00958429)
(0 0 0.00951282)
(0 0 0.00944015)
(0 0 0.00936633)
(0 0 0.00929138)
(0 0 0.00921533)
(0 0 0.00913821)
(0 0 0.00906005)
(0 0 0.00898088)
(0 0 0.00890072)
(0 0 0.00881961)
(0 0 0.00873757)
(0 0 0.00865463)
(0 0 0.00857081)
(0 0 0.00848614)
(0 0 0.00840065)
(0 0 0.00831437)
(0 0 0.00822731)
(0 0 0.00813949)
(0 0 0.00805096)
(0 0 0.00796172)
(0 0 0.0078718)
(0 0 0.00778123)
(0 0 0.00769002)
(0 0 0.0075982)
(0 0 0.00750579)
(0 0 0.0074128)
(0 0 0.00731927)
(0 0 0.0072252)
(0 0 0.00713062)
(0 0 0.00703554)
(0 0 0.00693999)
(0 0 0.00684398)
(0 0 0.00674753)
(0 0 0.00665065)
(0 0 0.00655337)
(0 0 0.00645569)
(0 0 0.00635764)
(0 0 0.00625923)
(0 0 0.00616046)
(0 0 0.00606137)
(0 0 0.00596196)
(0 0 0.00586224)
(0 0 0.00576223)
(0 0 0.00566193)
(0 0 0.00556137)
(0 0 0.00546056)
(0 0 0.0053595)
(0 0 0.0052582)
(0 0 0.00515669)
(0 0 0.00505496)
(0 0 0.00495302)
(0 0 0.0048509)
(0 0 0.00474859)
(0 0 0.0046461)
(0 0 0.00454345)
(0 0 0.00444065)
(0 0 0.00433769)
(0 0 0.00423459)
(0 0 0.00413135)
(0 0 0.00402799)
(0 0 0.0039245)
(0 0 0.00382091)
(0 0 0.0037172)
(0 0 0.00361339)
(0 0 0.00350949)
(0 0 0.00340549)
(0 0 0.00330141)
(0 0 0.00319725)
(0 0 0.00309301)
(0 0 0.00298871)
(0 0 0.00288433)
(0 0 0.0027799)
(0 0 0.0026754)
(0 0 0.00257085)
(0 0 0.00246625)
(0 0 0.00236161)
(0 0 0.00225692)
(0 0 0.00215218)
(0 0 0.00204741)
(0 0 0.00194261)
(0 0 0.00183777)
(0 0 0.0017329)
(0 0 0.001628)
(0 0 0.00152308)
(0 0 0.00141813)
(0 0 0.00131317)
(0 0 0.00120818)
(0 0 0.00110318)
(0 0 0.000998157)
(0 0 0.000893124)
(0 0 0.000788078)
(0 0 0.000683022)
(0 0 0.000577957)
(0 0 0.000472884)
(0 0 0.000367805)
(0 0 0.000262721)
(0 0 0.000157634)
(0 0 5.2545e-05)
(0 0 8.31663e-05)
(0 0 0.000249497)
(0 0 0.000415821)
(0 0 0.000582134)
(0 0 0.000748433)
(0 0 0.000914712)
(0 0 0.00108097)
(0 0 0.00124719)
(0 0 0.00141339)
(0 0 0.00157954)
(0 0 0.00174565)
(0 0 0.00191171)
(0 0 0.00207771)
(0 0 0.00224364)
(0 0 0.00240951)
(0 0 0.0025753)
(0 0 0.002741)
(0 0 0.00290661)
(0 0 0.00307212)
(0 0 0.00323751)
(0 0 0.00340278)
(0 0 0.00356791)
(0 0 0.0037329)
(0 0 0.00389773)
(0 0 0.00406239)
(0 0 0.00422687)
(0 0 0.00439115)
(0 0 0.00455521)
(0 0 0.00471904)
(0 0 0.00488263)
(0 0 0.00504595)
(0 0 0.00520899)
(0 0 0.00537172)
(0 0 0.00553413)
(0 0 0.0056962)
(0 0 0.0058579)
(0 0 0.00601921)
(0 0 0.0061801)
(0 0 0.00634056)
(0 0 0.00650054)
(0 0 0.00666004)
(0 0 0.00681901)
(0 0 0.00697743)
(0 0 0.00713526)
(0 0 0.00729249)
(0 0 0.00744906)
(0 0 0.00760496)
(0 0 0.00776015)
(0 0 0.00791458)
(0 0 0.00806823)
(0 0 0.00822105)
(0 0 0.00837302)
(0 0 0.00852408)
(0 0 0.0086742)
(0 0 0.00882334)
(0 0 0.00897145)
(0 0 0.00911849)
(0 0 0.00926443)
(0 0 0.00940921)
(0 0 0.00955279)
(0 0 0.00969512)
(0 0 0.00983616)
(0 0 0.00997585)
(0 0 0.0101142)
(0 0 0.010251)
(0 0 0.0103864)
(0 0 0.0105203)
(0 0 0.0106526)
(0 0 0.0107832)
(0 0 0.0109122)
(0 0 0.0110394)
(0 0 0.0111649)
(0 0 0.0112885)
(0 0 0.0114102)
(0 0 0.01153)
(0 0 0.0116479)
(0 0 0.0117637)
(0 0 0.0118774)
(0 0 0.011989)
(0 0 0.0120985)
(0 0 0.0122057)
(0 0 0.0123106)
(0 0 0.0124133)
(0 0 0.0125136)
(0 0 0.0126115)
(0 0 0.0127069)
(0 0 0.0127999)
(0 0 0.0128904)
(0 0 0.0129782)
(0 0 0.0130635)
(0 0 0.0131462)
(0 0 0.0132262)
(0 0 0.0133034)
(0 0 0.013378)
(0 0 0.0134497)
(0 0 0.0135187)
(0 0 0.0135849)
(0 0 0.0136482)
(0 0 0.0137086)
(0 0 0.0137661)
(0 0 0.0138207)
(0 0 0.0138724)
(0 0 0.0139211)
(0 0 0.0139669)
(0 0 0.0140097)
(0 0 0.0140495)
(0 0 0.0140863)
(0 0 0.0141201)
(0 0 0.0141509)
(0 0 0.0141787)
(0 0 0.0142035)
(0 0 0.0142253)
(0 0 0.014244)
(0 0 0.0142598)
(0 0 0.0142725)
(0 0 0.0142823)
(0 0 0.0142891)
(0 0 0.014293)
(0 0 0.0142939)
(0 0 0.0142918)
(0 0 0.0142869)
(0 0 0.014279)
(0 0 0.0142683)
(0 0 0.0142547)
(0 0 0.0142383)
(0 0 0.0142191)
(0 0 0.0141971)
(0 0 0.0141723)
(0 0 0.0141449)
(0 0 0.0141147)
(0 0 0.0140819)
(0 0 0.0140464)
(0 0 0.0140084)
(0 0 0.0139678)
(0 0 0.0139247)
(0 0 0.013879)
(0 0 0.013831)
(0 0 0.0137805)
(0 0 0.0137276)
(0 0 0.0136724)
(0 0 0.0136149)
(0 0 0.0135551)
(0 0 0.0134932)
(0 0 0.013429)
(0 0 0.0133627)
(0 0 0.0132943)
(0 0 0.0132238)
(0 0 0.0131513)
(0 0 0.0130769)
(0 0 0.0130005)
(0 0 0.0129222)
(0 0 0.0128421)
(0 0 0.0127602)
(0 0 0.0126765)
(0 0 0.012591)
(0 0 0.0125039)
(0 0 0.0124151)
(0 0 0.0123248)
(0 0 0.0122328)
(0 0 0.0121393)
(0 0 0.0120444)
(0 0 0.0119479)
(0 0 0.0118501)
(0 0 0.0117509)
(0 0 0.0116504)
(0 0 0.0115485)
(0 0 0.0114454)
(0 0 0.0113411)
(0 0 0.0112356)
(0 0 0.0111289)
(0 0 0.0110211)
(0 0 0.0109122)
(0 0 0.0108022)
(0 0 0.0106912)
(0 0 0.0105792)
(0 0 0.0104663)
(0 0 0.0103524)
(0 0 0.0102377)
(0 0 0.010122)
(0 0 0.0100055)
(0 0 0.00988822)
(0 0 0.00977013)
(0 0 0.00965128)
(0 0 0.0095317)
(0 0 0.0094114)
(0 0 0.00929042)
(0 0 0.00916879)
(0 0 0.00904651)
(0 0 0.00892363)
(0 0 0.00880016)
(0 0 0.00867612)
(0 0 0.00855154)
(0 0 0.00842643)
(0 0 0.00830082)
(0 0 0.00817473)
(0 0 0.00804817)
(0 0 0.00792117)
(0 0 0.00779374)
(0 0 0.0076659)
(0 0 0.00753766)
(0 0 0.00740906)
(0 0 0.00728009)
(0 0 0.00715078)
(0 0 0.00702114)
(0 0 0.00689118)
(0 0 0.00676093)
(0 0 0.00663039)
(0 0 0.00649958)
(0 0 0.00636851)
(0 0 0.00623718)
(0 0 0.00610563)
(0 0 0.00597385)
(0 0 0.00584185)
(0 0 0.00570966)
(0 0 0.00557727)
(0 0 0.0054447)
(0 0 0.00531196)
(0 0 0.00517905)
(0 0 0.00504599)
(0 0 0.00491278)
(0 0 0.00477943)
(0 0 0.00464595)
(0 0 0.00451235)
(0 0 0.00437864)
(0 0 0.00424481)
(0 0 0.00411088)
(0 0 0.00397685)
(0 0 0.00384274)
(0 0 0.00370854)
(0 0 0.00357425)
(0 0 0.0034399)
(0 0 0.00330547)
(0 0 0.00317098)
(0 0 0.00303643)
(0 0 0.00290182)
(0 0 0.00276716)
(0 0 0.00263245)
(0 0 0.00249769)
(0 0 0.00236289)
(0 0 0.00222806)
(0 0 0.00209319)
(0 0 0.00195828)
(0 0 0.00182335)
(0 0 0.00168839)
(0 0 0.0015534)
(0 0 0.0014184)
(0 0 0.00128337)
(0 0 0.00114832)
(0 0 0.00101326)
(0 0 0.000878187)
(0 0 0.000743101)
(0 0 0.000608005)
(0 0 0.000472901)
(0 0 0.00033779)
(0 0 0.000202676)
(0 0 6.7559e-05)
(0 0 0.000101652)
(0 0 0.000304953)
(0 0 0.000508247)
(0 0 0.000711528)
(0 0 0.000914791)
(0 0 0.00111803)
(0 0 0.00132124)
(0 0 0.00152442)
(0 0 0.00172755)
(0 0 0.00193064)
(0 0 0.00213367)
(0 0 0.00233665)
(0 0 0.00253955)
(0 0 0.00274238)
(0 0 0.00294512)
(0 0 0.00314777)
(0 0 0.00335031)
(0 0 0.00355274)
(0 0 0.00375504)
(0 0 0.00395721)
(0 0 0.00415923)
(0 0 0.00436108)
(0 0 0.00456276)
(0 0 0.00476425)
(0 0 0.00496553)
(0 0 0.00516658)
(0 0 0.0053674)
(0 0 0.00556795)
(0 0 0.00576822)
(0 0 0.0059682)
(0 0 0.00616785)
(0 0 0.00636716)
(0 0 0.0065661)
(0 0 0.00676465)
(0 0 0.00696277)
(0 0 0.00716045)
(0 0 0.00735766)
(0 0 0.00755436)
(0 0 0.00775052)
(0 0 0.00794612)
(0 0 0.00814111)
(0 0 0.00833547)
(0 0 0.00852915)
(0 0 0.00872213)
(0 0 0.00891436)
(0 0 0.0091058)
(0 0 0.00929641)
(0 0 0.00948615)
(0 0 0.00967498)
(0 0 0.00986285)
(0 0 0.0100497)
(0 0 0.0102355)
(0 0 0.0104202)
(0 0 0.0106038)
(0 0 0.0107862)
(0 0 0.0109673)
(0 0 0.0111471)
(0 0 0.0113255)
(0 0 0.0115026)
(0 0 0.0116782)
(0 0 0.0118522)
(0 0 0.0120247)
(0 0 0.0121955)
(0 0 0.0123647)
(0 0 0.0125321)
(0 0 0.0126977)
(0 0 0.0128614)
(0 0 0.0130231)
(0 0 0.0131829)
(0 0 0.0133406)
(0 0 0.0134962)
(0 0 0.0136497)
(0 0 0.0138009)
(0 0 0.0139498)
(0 0 0.0140963)
(0 0 0.0142404)
(0 0 0.0143821)
(0 0 0.0145212)
(0 0 0.0146577)
(0 0 0.0147915)
(0 0 0.0149227)
(0 0 0.0150511)
(0 0 0.0151766)
(0 0 0.0152993)
(0 0 0.015419)
(0 0 0.0155357)
(0 0 0.0156495)
(0 0 0.0157601)
(0 0 0.0158676)
(0 0 0.0159719)
(0 0 0.016073)
(0 0 0.0161708)
(0 0 0.0162653)
(0 0 0.0163565)
(0 0 0.0164443)
(0 0 0.0165286)
(0 0 0.0166095)
(0 0 0.0166869)
(0 0 0.0167608)
(0 0 0.0168312)
(0 0 0.016898)
(0 0 0.0169612)
(0 0 0.0170208)
(0 0 0.0170767)
(0 0 0.0171291)
(0 0 0.0171777)
(0 0 0.0172227)
(0 0 0.0172641)
(0 0 0.0173017)
(0 0 0.0173357)
(0 0 0.0173659)
(0 0 0.0173925)
(0 0 0.0174155)
(0 0 0.0174347)
(0 0 0.0174503)
(0 0 0.0174622)
(0 0 0.0174705)
(0 0 0.0174752)
(0 0 0.0174763)
(0 0 0.0174737)
(0 0 0.0174676)
(0 0 0.017458)
(0 0 0.0174448)
(0 0 0.0174282)
(0 0 0.0174081)
(0 0 0.0173845)
(0 0 0.0173576)
(0 0 0.0173273)
(0 0 0.0172937)
(0 0 0.0172567)
(0 0 0.0172166)
(0 0 0.0171732)
(0 0 0.0171266)
(0 0 0.0170769)
(0 0 0.0170241)
(0 0 0.0169683)
(0 0 0.0169094)
(0 0 0.0168477)
(0 0 0.016783)
(0 0 0.0167154)
(0 0 0.016645)
(0 0 0.0165719)
(0 0 0.0164961)
(0 0 0.0164176)
(0 0 0.0163364)
(0 0 0.0162528)
(0 0 0.0161666)
(0 0 0.0160779)
(0 0 0.0159868)
(0 0 0.0158934)
(0 0 0.0157976)
(0 0 0.0156996)
(0 0 0.0155994)
(0 0 0.015497)
(0 0 0.0153925)
(0 0 0.0152859)
(0 0 0.0151773)
(0 0 0.0150668)
(0 0 0.0149543)
(0 0 0.01484)
(0 0 0.0147238)
(0 0 0.0146059)
(0 0 0.0144863)
(0 0 0.014365)
(0 0 0.014242)
(0 0 0.0141175)
(0 0 0.0139914)
(0 0 0.0138638)
(0 0 0.0137347)
(0 0 0.0136043)
(0 0 0.0134724)
(0 0 0.0133393)
(0 0 0.0132048)
(0 0 0.0130691)
(0 0 0.0129322)
(0 0 0.0127941)
(0 0 0.0126548)
(0 0 0.0125145)
(0 0 0.0123731)
(0 0 0.0122306)
(0 0 0.0120872)
(0 0 0.0119428)
(0 0 0.0117975)
(0 0 0.0116513)
(0 0 0.0115042)
(0 0 0.0113563)
(0 0 0.0112076)
(0 0 0.0110581)
(0 0 0.0109079)
(0 0 0.0107569)
(0 0 0.0106053)
(0 0 0.010453)
(0 0 0.0103)
(0 0 0.0101464)
(0 0 0.00999228)
(0 0 0.00983756)
(0 0 0.0096823)
(0 0 0.00952651)
(0 0 0.00937023)
(0 0 0.00921347)
(0 0 0.00905625)
(0 0 0.00889859)
(0 0 0.00874051)
(0 0 0.00858203)
(0 0 0.00842317)
(0 0 0.00826394)
(0 0 0.00810437)
(0 0 0.00794446)
(0 0 0.00778423)
(0 0 0.00762371)
(0 0 0.00746289)
(0 0 0.00730181)
(0 0 0.00714046)
(0 0 0.00697886)
(0 0 0.00681704)
(0 0 0.00665499)
(0 0 0.00649273)
(0 0 0.00633027)
(0 0 0.00616762)
(0 0 0.00600479)
(0 0 0.00584179)
(0 0 0.00567864)
(0 0 0.00551534)
(0 0 0.00535189)
(0 0 0.00518831)
(0 0 0.00502461)
(0 0 0.00486079)
(0 0 0.00469685)
(0 0 0.00453282)
(0 0 0.00436869)
(0 0 0.00420446)
(0 0 0.00404015)
(0 0 0.00387577)
(0 0 0.00371131)
(0 0 0.00354678)
(0 0 0.00338218)
(0 0 0.00321753)
(0 0 0.00305282)
(0 0 0.00288806)
(0 0 0.00272326)
(0 0 0.00255841)
(0 0 0.00239352)
(0 0 0.00222859)
(0 0 0.00206364)
(0 0 0.00189865)
(0 0 0.00173364)
(0 0 0.0015686)
(0 0 0.00140354)
(0 0 0.00123846)
(0 0 0.00107336)
(0 0 0.000908254)
(0 0 0.000743133)
(0 0 0.000578002)
(0 0 0.000412864)
(0 0 0.00024772)
(0 0 8.25738e-05)
(0 0 0.00012014)
(0 0 0.000360418)
(0 0 0.000600686)
(0 0 0.00084094)
(0 0 0.00108117)
(0 0 0.00132138)
(0 0 0.00156155)
(0 0 0.00180168)
(0 0 0.00204177)
(0 0 0.00228179)
(0 0 0.00252176)
(0 0 0.00276166)
(0 0 0.00300147)
(0 0 0.0032412)
(0 0 0.00348082)
(0 0 0.00372034)
(0 0 0.00395973)
(0 0 0.00419899)
(0 0 0.00443811)
(0 0 0.00467706)
(0 0 0.00491584)
(0 0 0.00515443)
(0 0 0.00539281)
(0 0 0.00563097)
(0 0 0.00586888)
(0 0 0.00610653)
(0 0 0.0063439)
(0 0 0.00658097)
(0 0 0.00681771)
(0 0 0.00705409)
(0 0 0.0072901)
(0 0 0.0075257)
(0 0 0.00776087)
(0 0 0.00799558)
(0 0 0.00822979)
(0 0 0.00846348)
(0 0 0.00869661)
(0 0 0.00892915)
(0 0 0.00916106)
(0 0 0.00939229)
(0 0 0.00962282)
(0 0 0.0098526)
(0 0 0.0100816)
(0 0 0.0103097)
(0 0 0.010537)
(0 0 0.0107634)
(0 0 0.0109887)
(0 0 0.0112131)
(0 0 0.0114363)
(0 0 0.0116585)
(0 0 0.0118794)
(0 0 0.0120991)
(0 0 0.0123175)
(0 0 0.0125346)
(0 0 0.0127503)
(0 0 0.0129644)
(0 0 0.013177)
(0 0 0.0133881)
(0 0 0.0135974)
(0 0 0.0138051)
(0 0 0.0140109)
(0 0 0.0142149)
(0 0 0.0144169)
(0 0 0.014617)
(0 0 0.0148149)
(0 0 0.0150107)
(0 0 0.0152044)
(0 0 0.0153957)
(0 0 0.0155847)
(0 0 0.0157712)
(0 0 0.0159552)
(0 0 0.0161367)
(0 0 0.0163156)
(0 0 0.0164917)
(0 0 0.016665)
(0 0 0.0168355)
(0 0 0.017003)
(0 0 0.0171675)
(0 0 0.017329)
(0 0 0.0174873)
(0 0 0.0176424)
(0 0 0.0177943)
(0 0 0.0179428)
(0 0 0.0180879)
(0 0 0.0182295)
(0 0 0.0183676)
(0 0 0.0185021)
(0 0 0.018633)
(0 0 0.0187601)
(0 0 0.0188835)
(0 0 0.0190031)
(0 0 0.0191188)
(0 0 0.0192306)
(0 0 0.0193384)
(0 0 0.0194422)
(0 0 0.019542)
(0 0 0.0196377)
(0 0 0.0197292)
(0 0 0.0198166)
(0 0 0.0198998)
(0 0 0.0199788)
(0 0 0.0200536)
(0 0 0.020124)
(0 0 0.0201902)
(0 0 0.0202521)
(0 0 0.0203096)
(0 0 0.0203628)
(0 0 0.0204117)
(0 0 0.0204562)
(0 0 0.0204963)
(0 0 0.0205321)
(0 0 0.0205635)
(0 0 0.0205906)
(0 0 0.0206133)
(0 0 0.0206317)
(0 0 0.0206458)
(0 0 0.0206556)
(0 0 0.020661)
(0 0 0.0206622)
(0 0 0.0206592)
(0 0 0.0206519)
(0 0 0.0206405)
(0 0 0.0206249)
(0 0 0.0206051)
(0 0 0.0205813)
(0 0 0.0205534)
(0 0 0.0205215)
(0 0 0.0204856)
(0 0 0.0204457)
(0 0 0.020402)
(0 0 0.0203544)
(0 0 0.0203031)
(0 0 0.0202479)
(0 0 0.0201891)
(0 0 0.0201266)
(0 0 0.0200605)
(0 0 0.0199909)
(0 0 0.0199177)
(0 0 0.0198412)
(0 0 0.0197612)
(0 0 0.0196779)
(0 0 0.0195914)
(0 0 0.0195017)
(0 0 0.0194088)
(0 0 0.0193128)
(0 0 0.0192138)
(0 0 0.0191118)
(0 0 0.0190069)
(0 0 0.0188991)
(0 0 0.0187885)
(0 0 0.0186753)
(0 0 0.0185593)
(0 0 0.0184407)
(0 0 0.0183196)
(0 0 0.018196)
(0 0 0.0180699)
(0 0 0.0179415)
(0 0 0.0178107)
(0 0 0.0176777)
(0 0 0.0175425)
(0 0 0.0174051)
(0 0 0.0172656)
(0 0 0.0171241)
(0 0 0.0169806)
(0 0 0.0168352)
(0 0 0.0166879)
(0 0 0.0165388)
(0 0 0.0163879)
(0 0 0.0162353)
(0 0 0.016081)
(0 0 0.0159251)
(0 0 0.0157676)
(0 0 0.0156086)
(0 0 0.0154481)
(0 0 0.0152862)
(0 0 0.0151229)
(0 0 0.0149583)
(0 0 0.0147924)
(0 0 0.0146252)
(0 0 0.0144568)
(0 0 0.0142872)
(0 0 0.0141164)
(0 0 0.0139446)
(0 0 0.0137718)
(0 0 0.0135979)
(0 0 0.013423)
(0 0 0.0132472)
(0 0 0.0130704)
(0 0 0.0128928)
(0 0 0.0127143)
(0 0 0.0125351)
(0 0 0.012355)
(0 0 0.0121742)
(0 0 0.0119926)
(0 0 0.0118104)
(0 0 0.0116275)
(0 0 0.011444)
(0 0 0.0112598)
(0 0 0.011075)
(0 0 0.0108897)
(0 0 0.0107039)
(0 0 0.0105175)
(0 0 0.0103306)
(0 0 0.0101433)
(0 0 0.00995552)