/*--------------------------------*- C++ -*----------------------------------*\
| =========                 |                                                 |
| \\      /  F ield         | OpenFOAM: The Open Source CFD Toolbox           |
|  \\    /   O peration     | Version:  v2012                                 |
|   \\  /    A nd           | Website:  www.openfoam.com                      |
|    \\/     M anipulation  |                                                 |
\*---------------------------------------------------------------------------*/
FoamFile
{
    version     2.0;
    format      ascii;
    class       volScalarField;
    location    "6.5";
    object      W;
}
// * * * * * * * * * * * * * * * * * * * * * * * * * * * * * * * * * * * * * //

dimensions      [0 0 -1 0 0 0 0];


internalField   nonuniform List<scalar> 
65536
(
7.353e-19
7.75898e-19
8.59152e-19
9.88581e-19
1.16966e-18
1.41004e-18
1.71982e-18
2.11197e-18
2.60278e-18
3.21245e-18
3.96581e-18
4.89316e-18
6.0313e-18
7.42471e-18
9.12701e-18
1.12026e-17
1.37288e-17
1.67978e-17
2.05199e-17
2.50263e-17
3.04729e-17
3.70445e-17
4.49601e-17
5.44783e-17
6.59039e-17
7.95956e-17
9.59749e-17
1.15536e-16
1.38855e-16
1.66609e-16
1.99581e-16
2.38687e-16
2.84987e-16
3.39707e-16
4.04268e-16
4.80306e-16
5.69705e-16
6.74626e-16
7.97551e-16
9.41312e-16
1.10914e-15
1.30473e-15
1.53226e-15
1.79647e-15
2.10273e-15
2.4571e-15
2.86638e-15
3.33825e-15
3.88128e-15
4.50507e-15
5.22032e-15
6.03894e-15
6.97414e-15
8.04057e-15
9.25436e-15
1.06333e-14
1.2197e-14
1.39667e-14
1.5966e-14
1.82202e-14
2.0757e-14
2.36064e-14
2.68006e-14
3.03745e-14
3.43654e-14
3.8813e-14
4.37598e-14
4.92508e-14
5.53337e-14
6.20585e-14
6.94776e-14
7.76459e-14
8.66201e-14
9.64589e-14
1.07223e-13
1.18973e-13
1.31772e-13
1.45683e-13
1.60769e-13
1.77091e-13
1.9471e-13
2.13685e-13
2.34073e-13
2.55924e-13
2.79288e-13
3.04206e-13
3.30715e-13
3.58842e-13
3.88607e-13
4.20021e-13
4.53082e-13
4.87778e-13
5.24084e-13
5.61961e-13
6.01353e-13
6.42191e-13
6.84388e-13
7.27839e-13
7.72424e-13
8.18002e-13
8.64415e-13
9.11486e-13
9.59021e-13
1.00681e-12
1.05462e-12
1.10221e-12
1.14932e-12
1.19568e-12
1.24101e-12
1.28502e-12
1.32741e-12
1.36789e-12
1.40615e-12
1.4419e-12
1.47485e-12
1.50472e-12
1.53124e-12
1.55417e-12
1.57328e-12
1.58836e-12
1.59924e-12
1.60577e-12
1.60784e-12
1.60537e-12
1.59832e-12
1.58671e-12
1.57055e-12
1.54995e-12
1.52503e-12
1.49594e-12
1.46291e-12
1.42616e-12
1.38597e-12
1.34266e-12
1.29657e-12
1.24806e-12
1.19751e-12
1.14534e-12
1.09195e-12
1.03776e-12
9.83205e-13
9.28699e-13
8.74659e-13
8.21487e-13
7.69571e-13
7.19279e-13
6.70957e-13
6.24924e-13
5.81474e-13
5.40868e-13
5.03337e-13
4.69081e-13
4.38263e-13
4.11017e-13
3.87439e-13
3.67596e-13
3.51518e-13
3.39204e-13
3.3062e-13
3.25702e-13
3.24351e-13
3.26442e-13
3.31815e-13
3.40284e-13
3.51632e-13
3.65615e-13
3.8196e-13
4.0037e-13
4.20523e-13
4.42075e-13
4.64663e-13
4.87907e-13
5.11416e-13
5.34791e-13
5.57629e-13
5.79532e-13
6.00109e-13
6.18986e-13
6.3581e-13
6.50257e-13
6.62039e-13
6.70907e-13
6.76659e-13
6.79144e-13
6.78265e-13
6.73981e-13
6.66309e-13
6.55322e-13
6.41149e-13
6.2397e-13
6.04014e-13
5.81549e-13
5.56881e-13
5.30341e-13
5.0228e-13
4.7306e-13
4.43046e-13
4.12598e-13
3.82062e-13
3.51767e-13
3.22013e-13
2.93073e-13
2.65183e-13
2.38546e-13
2.13323e-13
1.89641e-13
1.67587e-13
1.47214e-13
1.28544e-13
1.11566e-13
9.62446e-14
8.25236e-14
7.03275e-14
5.95671e-14
5.01433e-14
4.19502e-14
3.48787e-14
2.88193e-14
2.36643e-14
1.931e-14
1.56582e-14
1.26173e-14
1.01028e-14
8.03838e-15
6.35527e-15
4.99267e-15
3.89725e-15
3.02277e-15
2.32951e-15
1.78374e-15
1.35707e-15
1.02581e-15
7.70413e-16
5.74865e-16
4.26175e-16
3.13896e-16
2.29696e-16
1.66989e-16
1.2061e-16
8.6544e-17
6.16939e-17
4.36915e-17
3.07394e-17
2.14851e-17
1.49182e-17
1.02905e-17
7.05191e-18
4.80126e-18
3.24839e-18
2.18512e-18
1.46341e-18
9.79086e-19
6.59812e-19
4.56417e-19
3.36728e-19
2.81416e-19
1.01902e-18
1.07521e-18
1.19048e-18
1.36967e-18
1.62037e-18
1.95313e-18
2.38193e-18
2.92467e-18
3.60387e-18
4.44742e-18
5.48962e-18
6.77229e-18
8.34622e-18
1.02728e-17
1.2626e-17
1.54946e-17
1.89851e-17
2.32248e-17
2.83653e-17
3.45873e-17
4.21054e-17
5.11739e-17
6.20937e-17
7.52202e-17
9.09721e-17
1.09842e-16
1.32408e-16
1.59346e-16
1.91449e-16
2.2964e-16
2.74994e-16
3.28761e-16
3.92388e-16
4.67553e-16
5.5619e-16
6.6053e-16
7.83137e-16
9.26953e-16
1.09535e-15
1.29216e-15
1.52179e-15
1.78922e-15
2.1001e-15
2.46085e-15
2.87871e-15
3.36184e-15
3.9194e-15
4.56169e-15
5.30022e-15
6.14785e-15
7.11888e-15
8.2292e-15
9.49643e-15
1.094e-14
1.25814e-14
1.44442e-14
1.65541e-14
1.89395e-14
2.1631e-14
2.46622e-14
2.80692e-14
3.1891e-14
3.61699e-14
4.09509e-14
4.62823e-14
5.22155e-14
5.88051e-14
6.61087e-14
7.41872e-14
8.31041e-14
9.29259e-14
1.03722e-13
1.15563e-13
1.28522e-13
1.42675e-13
1.58097e-13
1.74864e-13
1.93053e-13
2.1274e-13
2.33999e-13
2.56901e-13
2.81515e-13
3.07905e-13
3.36129e-13
3.66241e-13
3.98283e-13
4.32292e-13
4.68294e-13
5.06301e-13
5.46315e-13
5.88322e-13
6.32294e-13
6.78186e-13
7.25934e-13
7.75457e-13
8.26652e-13
8.79398e-13
9.3355e-13
9.88943e-13
1.04539e-12
1.10268e-12
1.16059e-12
1.21886e-12
1.27721e-12
1.33537e-12
1.39302e-12
1.44984e-12
1.50549e-12
1.55963e-12
1.6119e-12
1.66193e-12
1.70939e-12
1.75389e-12
1.7951e-12
1.83267e-12
1.86628e-12
1.89563e-12
1.92043e-12
1.94042e-12
1.9554e-12
1.96516e-12
1.96956e-12
1.9685e-12
1.96191e-12
1.94977e-12
1.93213e-12
1.90905e-12
1.88068e-12
1.84718e-12
1.8088e-12
1.76579e-12
1.71848e-12
1.66722e-12
1.61241e-12
1.55446e-12
1.49383e-12
1.43098e-12
1.36641e-12
1.30062e-12
1.23412e-12
1.16739e-12
1.10095e-12
1.03528e-12
9.70848e-13
9.08102e-13
8.47465e-13
7.89332e-13
7.34064e-13
6.8199e-13
6.334e-13
5.88547e-13
5.47646e-13
5.1087e-13
4.78355e-13
4.50196e-13
4.26451e-13
4.07137e-13
3.92237e-13
3.81694e-13
3.75416e-13
3.73276e-13
3.75114e-13
3.80735e-13
3.89911e-13
4.02383e-13
4.17861e-13
4.36026e-13
4.56529e-13
4.78998e-13
5.03036e-13
5.28225e-13
5.54132e-13
5.80312e-13
6.0631e-13
6.31672e-13
6.55949e-13
6.78702e-13
6.99513e-13
7.17988e-13
7.33766e-13
7.46528e-13
7.56e-13
7.61963e-13
7.64253e-13
7.62769e-13
7.5747e-13
7.48383e-13
7.35597e-13
7.19262e-13
6.99586e-13
6.7683e-13
6.51298e-13
6.23336e-13
5.93316e-13
5.61635e-13
5.28698e-13
4.94912e-13
4.60681e-13
4.26389e-13
3.92402e-13
3.59053e-13
3.26644e-13
2.95437e-13
2.65652e-13
2.3747e-13
2.11026e-13
1.86415e-13
1.63695e-13
1.42884e-13
1.23969e-13
1.06909e-13
9.16383e-14
7.80707e-14
6.61056e-14
5.5631e-14
4.6528e-14
3.86743e-14
3.19469e-14
2.62257e-14
2.13948e-14
1.73446e-14
1.39729e-14
1.11858e-14
8.89813e-15
7.03354e-15
5.52441e-15
4.3115e-15
3.34344e-15
2.57618e-15
1.97228e-15
1.50026e-15
1.13387e-15
8.51443e-16
6.35236e-16
4.70866e-16
3.46767e-16
2.53718e-16
1.84431e-16
1.33193e-16
9.5562e-17
6.81155e-17
4.82345e-17
3.39326e-17
2.37148e-17
1.64651e-17
1.13567e-17
7.78196e-18
5.29795e-18
3.58421e-18
2.41087e-18
1.61451e-18
1.08012e-18
7.27861e-19
5.03462e-19
3.71421e-19
3.10408e-19
1.68683e-18
1.77971e-18
1.97027e-18
2.26654e-18
2.68098e-18
3.23103e-18
3.93974e-18
4.83663e-18
5.95882e-18
7.3523e-18
9.07357e-18
1.11915e-17
1.37899e-17
1.69695e-17
2.08523e-17
2.55843e-17
3.13404e-17
3.83299e-17
4.68018e-17
5.70529e-17
6.9435e-17
8.43653e-17
1.02337e-16
1.23932e-16
1.49835e-16
1.80852e-16
2.17928e-16
2.62168e-16
3.14864e-16
3.77521e-16
4.51891e-16
5.40006e-16
6.44222e-16
7.67261e-16
9.12262e-16
1.08284e-15
1.28314e-15
1.51793e-15
1.79264e-15
2.11348e-15
2.4875e-15
2.92273e-15
3.42825e-15
4.01434e-15
4.69258e-15
5.47601e-15
6.37924e-15
7.41865e-15
8.61253e-15
9.98126e-15
1.15475e-14
1.33362e-14
1.53752e-14
1.76951e-14
2.03294e-14
2.33149e-14
2.66919e-14
3.05042e-14
3.47994e-14
3.96292e-14
4.50492e-14
5.11194e-14
5.7904e-14
6.54717e-14
7.38957e-14
8.32535e-14
9.3627e-14
1.05102e-13
1.1777e-13
1.31724e-13
1.47062e-13
1.63884e-13
1.82295e-13
2.02399e-13
2.24303e-13
2.48115e-13
2.73941e-13
3.01888e-13
3.32059e-13
3.64552e-13
3.99464e-13
4.36882e-13
4.76886e-13
5.19549e-13
5.64929e-13
6.13073e-13
6.64014e-13
7.17768e-13
7.74332e-13
8.33683e-13
8.95778e-13
9.60549e-13
1.0279e-12
1.09772e-12
1.16986e-12
1.24414e-12
1.32035e-12
1.39827e-12
1.47763e-12
1.55813e-12
1.63945e-12
1.72124e-12
1.80311e-12
1.88467e-12
1.96548e-12
2.04509e-12
2.12303e-12
2.19884e-12
2.272e-12
2.34204e-12
2.40845e-12
2.47074e-12
2.52844e-12
2.58106e-12
2.62817e-12
2.66934e-12
2.7042e-12
2.73239e-12
2.7536e-12
2.76759e-12
2.77413e-12
2.7731e-12
2.7644e-12
2.748e-12
2.72394e-12
2.69235e-12
2.65338e-12
2.60728e-12
2.55435e-12
2.49496e-12
2.42953e-12
2.35854e-12
2.28252e-12
2.20205e-12
2.11772e-12
2.03017e-12
1.94008e-12
1.84811e-12
1.75495e-12
1.66128e-12
1.56778e-12
1.47511e-12
1.38391e-12
1.29479e-12
1.20833e-12
1.12506e-12
1.04549e-12
9.7006e-13
8.99172e-13
8.33176e-13
7.7237e-13
7.16997e-13
6.67248e-13
6.23263e-13
5.85128e-13
5.5288e-13
5.26508e-13
5.05951e-13
4.91103e-13
4.81815e-13
4.77892e-13
4.79099e-13
4.85161e-13
4.95763e-13
5.10552e-13
5.29141e-13
5.51107e-13
5.75995e-13
6.03322e-13
6.32578e-13
6.6323e-13
6.9473e-13
7.26515e-13
7.58018e-13
7.88674e-13
8.17925e-13
8.45232e-13
8.70081e-13
8.91992e-13
9.1053e-13
9.2531e-13
9.36008e-13
9.42363e-13
9.44189e-13
9.41373e-13
9.33881e-13
9.21759e-13
9.05128e-13
8.84185e-13
8.59196e-13
8.30491e-13
7.98451e-13
7.63507e-13
7.2612e-13
6.86777e-13
6.45977e-13
6.04219e-13
5.61993e-13
5.19769e-13
4.77987e-13
4.37052e-13
3.97325e-13
3.59121e-13
3.22702e-13
2.88282e-13
2.56019e-13
2.26023e-13
1.98358e-13
1.7304e-13
1.50049e-13
1.2933e-13
1.10798e-13
9.43455e-14
7.98464e-14
6.71622e-14
5.61462e-14
4.66478e-14
3.85166e-14
3.16055e-14
2.57731e-14
2.08857e-14
1.68192e-14
1.34594e-14
1.07029e-14
8.45725e-15
6.64045e-15
5.18085e-15
4.01636e-15
3.09376e-15
2.36787e-15
1.80068e-15
1.36057e-15
1.02142e-15
7.61866e-16
5.646e-16
4.15706e-16
3.04095e-16
2.21006e-16
1.59576e-16
1.14471e-16
8.15793e-17
5.77592e-17
4.06268e-17
2.83891e-17
1.97077e-17
1.35914e-17
9.31214e-18
6.33896e-18
4.28801e-18
2.88398e-18
1.93116e-18
1.29184e-18
8.70454e-19
6.02043e-19
4.44113e-19
3.71142e-19
2.97105e-18
3.13443e-18
3.46969e-18
3.99089e-18
4.71994e-18
5.68745e-18
6.93387e-18
8.51103e-18
1.0484e-17
1.29336e-17
1.59588e-17
1.96804e-17
2.42451e-17
2.98299e-17
3.6648e-17
4.49551e-17
5.50575e-17
6.7321e-17
8.21815e-17
1.00157e-16
1.21863e-16
1.48027e-16
1.79509e-16
2.17325e-16
2.62669e-16
3.16943e-16
3.81791e-16
4.59137e-16
5.51225e-16
6.60668e-16
7.90507e-16
9.44264e-16
1.12602e-15
1.34048e-15
1.59308e-15
1.89005e-15
2.23856e-15
2.64679e-15
3.12411e-15
3.68118e-15
4.33012e-15
5.08468e-15
5.96041e-15
6.97486e-15
8.1478e-15
9.50143e-15
1.10606e-14
1.28532e-14
1.49101e-14
1.72658e-14
1.99585e-14
2.30304e-14
2.65281e-14
3.05028e-14
3.50107e-14
4.01132e-14
4.58771e-14
5.23753e-14
5.96865e-14
6.78957e-14
7.70945e-14
8.7381e-14
9.886e-14
1.11643e-13
1.25849e-13
1.41602e-13
1.59034e-13
1.78282e-13
1.99491e-13
2.22807e-13
2.48386e-13
2.76383e-13
3.06958e-13
3.40275e-13
3.76494e-13
4.15778e-13
4.58286e-13
5.04174e-13
5.53592e-13
6.0668e-13
6.63572e-13
7.24386e-13
7.89227e-13
8.58183e-13
9.3132e-13
1.00868e-12
1.0903e-12
1.17614e-12
1.26619e-12
1.36037e-12
1.45857e-12
1.56064e-12
1.6664e-12
1.77563e-12
1.88805e-12
2.00336e-12
2.12118e-12
2.24113e-12
2.36275e-12
2.48555e-12
2.60901e-12
2.73253e-12
2.85553e-12
2.97735e-12
3.09732e-12
3.21473e-12
3.32889e-12
3.43904e-12
3.54446e-12
3.6444e-12
3.73814e-12
3.82496e-12
3.90417e-12
3.9751e-12
4.03715e-12
4.08973e-12
4.13234e-12
4.16452e-12
4.18589e-12
4.19615e-12
4.19509e-12
4.18258e-12
4.15857e-12
4.12313e-12
4.07641e-12
4.01866e-12
3.95024e-12
3.87159e-12
3.78323e-12
3.68579e-12
3.57996e-12
3.46652e-12
3.34629e-12
3.22017e-12
3.08908e-12
2.95399e-12
2.81589e-12
2.67578e-12
2.53465e-12
2.3935e-12
2.25329e-12
2.11496e-12
1.97941e-12
1.84747e-12
1.71996e-12
1.59758e-12
1.48101e-12
1.37083e-12
1.26756e-12
1.17163e-12
1.08342e-12
1.00321e-12
9.312e-13
8.67537e-13
8.12283e-13
7.65432e-13
7.26914e-13
6.96592e-13
6.74269e-13
6.59691e-13
6.52546e-13
6.52469e-13
6.59045e-13
6.71809e-13
6.9025e-13
7.13812e-13
7.41899e-13
7.73877e-13
8.09075e-13
8.46796e-13
8.86314e-13
9.2689e-13
9.67769e-13
1.0082e-12
1.04742e-12
1.08471e-12
1.11936e-12
1.1507e-12
1.17811e-12
1.20104e-12
1.21898e-12
1.23155e-12
1.2384e-12
1.23932e-12
1.23419e-12
1.22297e-12
1.20575e-12
1.1827e-12
1.1541e-12
1.1203e-12
1.08177e-12
1.03899e-12
9.92543e-13
9.43035e-13
8.91103e-13
8.37396e-13
7.82563e-13
7.27237e-13
6.72023e-13
6.17487e-13
5.64146e-13
5.12459e-13
4.62826e-13
4.15577e-13
3.70977e-13
3.29224e-13
2.90449e-13
2.54725e-13
2.22066e-13
1.92438e-13
1.65762e-13
1.41924e-13
1.20778e-13
1.02158e-13
8.58822e-14
7.17571e-14
5.95867e-14
4.91753e-14
4.0332e-14
3.28736e-14
2.66277e-14
2.14337e-14
1.71448e-14
1.36279e-14
1.07642e-14
8.44859e-15
6.58911e-15
5.10628e-15
3.93197e-15
3.00841e-15
2.28707e-15
1.72755e-15
1.29654e-15
9.66807e-16
7.16285e-16
5.27254e-16
3.85599e-16
2.80175e-16
2.02253e-16
1.45054e-16
1.03354e-16
7.31619e-17
5.14514e-17
3.59469e-17
2.49502e-17
1.72043e-17
1.17858e-17
8.02169e-18
5.4256e-18
3.64864e-18
2.4429e-18
1.63399e-18
1.10088e-18
7.61335e-19
5.61567e-19
4.69267e-19
5.30944e-18
5.60107e-18
6.19955e-18
7.12993e-18
8.43126e-18
1.01581e-17
1.23824e-17
1.51966e-17
1.87166e-17
2.30861e-17
2.84815e-17
3.51178e-17
4.32557e-17
5.32102e-17
6.53601e-17
8.01602e-17
9.81546e-17
1.19993e-16
1.46448e-16
1.78441e-16
2.17061e-16
2.636e-16
3.19581e-16
3.86802e-16
4.67376e-16
5.63784e-16
6.78933e-16
8.16218e-16
9.79603e-16
1.1737e-15
1.40386e-15
1.67629e-15
1.99818e-15
2.37779e-15
2.82467e-15
3.34977e-15
3.96564e-15
4.68662e-15
5.52909e-15
6.51169e-15
7.65555e-15
8.98466e-15
1.05261e-14
1.23103e-14
1.43717e-14
1.67487e-14
1.94843e-14
2.26266e-14
2.62291e-14
3.0351e-14
3.50579e-14
4.04223e-14
4.65238e-14
5.345e-14
6.12965e-14
7.01677e-14
8.01769e-14
9.14472e-14
1.04111e-13
1.18312e-13
1.34204e-13
1.51949e-13
1.71723e-13
1.93711e-13
2.18108e-13
2.4512e-13
2.74963e-13
3.07859e-13
3.44043e-13
3.83754e-13
4.27237e-13
4.74742e-13
5.26524e-13
5.82834e-13
6.43927e-13
7.10051e-13
7.81448e-13
8.58353e-13
9.40985e-13
1.02955e-12
1.12423e-12
1.22519e-12
1.33257e-12
1.44646e-12
1.56694e-12
1.69404e-12
1.82773e-12
1.96796e-12
2.11462e-12
2.26753e-12
2.42646e-12
2.59112e-12
2.76117e-12
2.93618e-12
3.11565e-12
3.29904e-12
3.48572e-12
3.67498e-12
3.86608e-12
4.05818e-12
4.25039e-12
4.44178e-12
4.63134e-12
4.81804e-12
5.0008e-12
5.17852e-12
5.35007e-12
5.51431e-12
5.6701e-12
5.81634e-12
5.9519e-12
6.07574e-12
6.18684e-12
6.28425e-12
6.36709e-12
6.43457e-12
6.486e-12
6.52079e-12
6.53846e-12
6.53869e-12
6.52127e-12
6.48613e-12
6.43334e-12
6.36313e-12
6.27588e-12
6.17209e-12
6.05244e-12
5.91771e-12
5.76884e-12
5.60686e-12
5.43293e-12
5.24831e-12
5.05433e-12
4.85239e-12
4.64396e-12
4.43052e-12
4.21358e-12
3.99466e-12
3.77526e-12
3.55684e-12
3.34082e-12
3.12858e-12
2.9214e-12
2.72048e-12
2.52695e-12
2.34181e-12
2.16596e-12
2.00021e-12
1.84524e-12
1.70159e-12
1.56973e-12
1.44999e-12
1.34258e-12
1.24763e-12
1.16514e-12
1.09504e-12
1.03714e-12
9.9118e-13
9.56801e-13
9.33576e-13
9.21001e-13
9.18501e-13
9.25435e-13
9.41099e-13
9.6473e-13
9.9551e-13
1.03257e-12
1.075e-12
1.12184e-12
1.17209e-12
1.22475e-12
1.27878e-12
1.33313e-12
1.38676e-12
1.43864e-12
1.48778e-12
1.53322e-12
1.57406e-12
1.60947e-12
1.63871e-12
1.66114e-12
1.67622e-12
1.68355e-12
1.68285e-12
1.67397e-12
1.6569e-12
1.63178e-12
1.59887e-12
1.55856e-12
1.51137e-12
1.4579e-12
1.39887e-12
1.33505e-12
1.26725e-12
1.19636e-12
1.12324e-12
1.04876e-12
9.73766e-13
8.99074e-13
8.25429e-13
7.53516e-13
6.83941e-13
6.17224e-13
5.53797e-13
4.94002e-13
4.38089e-13
3.86224e-13
3.38491e-13
2.94898e-13
2.55389e-13
2.19849e-13
1.88118e-13
1.59996e-13
1.35253e-13
1.13641e-13
9.48989e-14
7.87623e-14
6.49675e-14
5.32581e-14
4.33887e-14
3.51287e-14
2.82639e-14
2.25985e-14
1.79555e-14
1.41767e-14
1.11227e-14
8.6714e-15
6.71753e-15
5.17088e-15
3.955e-15
3.00572e-15
2.26969e-15
1.70292e-15
1.26947e-15
9.40267e-16
6.91945e-16
5.05917e-16
3.6751e-16
2.65238e-16
1.90185e-16
1.35483e-16
9.58859e-17
6.74195e-17
4.70947e-17
3.26822e-17
2.25323e-17
1.54333e-17
1.05028e-17
7.10281e-18
4.77594e-18
3.19728e-18
2.13832e-18
1.44051e-18
9.96102e-19
7.34658e-19
6.13867e-19
9.48016e-18
1.00003e-17
1.10678e-17
1.27272e-17
1.50481e-17
1.81276e-17
2.20939e-17
2.71115e-17
3.33865e-17
4.11748e-17
5.07899e-17
6.26144e-17
7.71118e-17
9.48419e-17
1.16478e-16
1.42828e-16
1.74857e-16
2.13719e-16
2.60787e-16
3.1769e-16
3.86363e-16
4.69093e-16
5.68579e-16
6.88004e-16
8.31105e-16
1.00227e-15
1.20663e-15
1.4502e-15
1.73995e-15
2.08404e-15
2.49188e-15
2.97443e-15
3.5443e-15
4.21606e-15
5.00646e-15
5.93473e-15
7.02287e-15
8.29603e-15
9.78285e-15
1.15159e-14
1.35321e-14
1.58734e-14
1.85867e-14
2.17253e-14
2.53487e-14
2.95236e-14
3.43248e-14
3.98351e-14
4.61469e-14
5.33624e-14
6.15945e-14
7.09677e-14
8.16184e-14
9.36963e-14
1.07365e-13
1.22801e-13
1.40199e-13
1.59765e-13
1.81726e-13
2.06321e-13
2.33808e-13
2.64462e-13
2.98574e-13
3.36452e-13
3.78419e-13
4.24817e-13
4.75997e-13
5.32327e-13
5.94186e-13
6.6196e-13
7.36046e-13
8.16843e-13
9.04753e-13
1.00017e-12
1.1035e-12
1.21512e-12
1.33539e-12
1.46467e-12
1.60329e-12
1.75153e-12
1.90965e-12
2.07787e-12
2.25636e-12
2.44521e-12
2.64449e-12
2.85416e-12
3.07414e-12
3.30424e-12
3.5442e-12
3.79366e-12
4.05218e-12
4.3192e-12
4.59406e-12
4.87599e-12
5.16413e-12
5.4575e-12
5.75501e-12
6.05548e-12
6.3576e-12
6.66002e-12
6.96124e-12
7.25971e-12
7.55383e-12
7.84191e-12
8.12222e-12
8.39302e-12
8.65252e-12
8.89897e-12
9.13062e-12
9.34575e-12
9.5427e-12
9.71989e-12
9.87584e-12
1.00092e-11
1.01186e-11
1.02032e-11
1.02618e-11
1.02939e-11
1.02987e-11
1.02761e-11
1.02258e-11
1.01479e-11
1.00428e-11
9.91103e-12
9.75331e-12
9.57064e-12
9.36422e-12
9.13544e-12
8.88588e-12
8.6173e-12
8.3316e-12
8.03081e-12
7.71707e-12
7.3926e-12
7.05969e-12
6.72065e-12
6.37781e-12
6.03347e-12
5.68989e-12
5.34928e-12
5.01373e-12
4.68525e-12
4.36572e-12
4.05687e-12
3.76029e-12
3.47738e-12
3.2094e-12
2.95743e-12
2.72236e-12
2.5049e-12
2.30561e-12
2.12486e-12
1.96286e-12
1.81967e-12
1.69519e-12
1.5892e-12
1.50131e-12
1.43105e-12
1.3778e-12
1.34086e-12
1.3194e-12
1.31254e-12
1.31927e-12
1.33852e-12
1.36914e-12
1.40991e-12
1.45956e-12
1.51674e-12
1.58008e-12
1.64815e-12
1.7195e-12
1.79265e-12
1.86615e-12
1.93852e-12
2.00834e-12
2.07422e-12
2.13485e-12
2.189e-12
2.23553e-12
2.27345e-12
2.3019e-12
2.32016e-12
2.32771e-12
2.3242e-12
2.30946e-12
2.28352e-12
2.24658e-12
2.19906e-12
2.1415e-12
2.07465e-12
1.99936e-12
1.91662e-12
1.8275e-12
1.73316e-12
1.63477e-12
1.53354e-12
1.43066e-12
1.32727e-12
1.22448e-12
1.12331e-12
1.02466e-12
9.29352e-13
8.38085e-13
7.51427e-13
6.69828e-13
5.93612e-13
5.2299e-13
4.58058e-13
3.98817e-13
3.45174e-13
2.96964e-13
2.53957e-13
2.1587e-13
1.82387e-13
1.53162e-13
1.27836e-13
1.06046e-13
8.74301e-14
7.16384e-14
5.83363e-14
4.72098e-14
3.7968e-14
3.03449e-14
2.41007e-14
1.90213e-14
1.4918e-14
1.16261e-14
9.00338e-15
6.92811e-15
5.29733e-15
4.02462e-15
3.03818e-15
2.27885e-15
1.69835e-15
1.25759e-15
9.2523e-16
6.7632e-16
4.91181e-16
3.54415e-16
2.54074e-16
1.80959e-16
1.28046e-16
9.00158e-17
6.2868e-17
4.36212e-17
3.00692e-17
2.05927e-17
1.4012e-17
9.47468e-18
6.36999e-18
4.26392e-18
2.85135e-18
1.92063e-18
1.32796e-18
9.79312e-19
8.1824e-19
1.68355e-17
1.77582e-17
1.96519e-17
2.25957e-17
2.67128e-17
3.2175e-17
3.92095e-17
4.81073e-17
5.92336e-17
7.30409e-17
9.00844e-17
1.11041e-16
1.36729e-16
1.6814e-16
2.06464e-16
2.53127e-16
3.09836e-16
3.78627e-16
4.61924e-16
5.62602e-16
6.84073e-16
8.30369e-16
1.00625e-15
1.21731e-15
1.47014e-15
1.77246e-15
2.13329e-15
2.56319e-15
3.07443e-15
3.68129e-15
4.40032e-15
5.25069e-15
6.25453e-15
7.43731e-15
8.82832e-15
1.04612e-14
1.23742e-14
1.46114e-14
1.72226e-14
2.02644e-14
2.38012e-14
2.79054e-14
3.26589e-14
3.81536e-14
4.44927e-14
5.17914e-14
6.01784e-14
6.97968e-14
8.08052e-14
9.33792e-14
1.07712e-13
1.24017e-13
1.42527e-13
1.63497e-13
1.87204e-13
2.13951e-13
2.44062e-13
2.77891e-13
3.15815e-13
3.58238e-13
4.05592e-13
4.58335e-13
5.16952e-13
5.81953e-13
6.53873e-13
7.33272e-13
8.20726e-13
9.16836e-13
1.02221e-12
1.13749e-12
1.26329e-12
1.40025e-12
1.54901e-12
1.71019e-12
1.88441e-12
2.07225e-12
2.27426e-12
2.49097e-12
2.72285e-12
2.97031e-12
3.23369e-12
3.51327e-12
3.80922e-12
4.12164e-12
4.45049e-12
4.79564e-12
5.15682e-12
5.53363e-12
5.9255e-12
6.33175e-12
6.75152e-12
7.18378e-12
7.62735e-12
8.08087e-12
8.54281e-12
9.01148e-12
9.48503e-12
9.96145e-12
1.04386e-11
1.09141e-11
1.13856e-11
1.18506e-11
1.23064e-11
1.27504e-11
1.31797e-11
1.35917e-11
1.39836e-11
1.43525e-11
1.4696e-11
1.50112e-11
1.52959e-11
1.55475e-11
1.57641e-11
1.59435e-11
1.60841e-11
1.61843e-11
1.62431e-11
1.62594e-11
1.62328e-11
1.61629e-11
1.60498e-11
1.58939e-11
1.56961e-11
1.54574e-11
1.51794e-11
1.48638e-11
1.45127e-11
1.41285e-11
1.37138e-11
1.32716e-11
1.28049e-11
1.23171e-11
1.18115e-11
1.12916e-11
1.07611e-11
1.02234e-11
9.68221e-12
9.14095e-12
8.60305e-12
8.07181e-12
7.55034e-12
7.04159e-12
6.54827e-12
6.07287e-12
5.61765e-12
5.18459e-12
4.7754e-12
4.39153e-12
4.03414e-12
3.70415e-12
3.40218e-12
3.12864e-12
2.88367e-12
2.66718e-12
2.47888e-12
2.31826e-12
2.18465e-12
2.07718e-12
1.99484e-12
1.93646e-12
1.90076e-12
1.88631e-12
1.89157e-12
1.91492e-12
1.95462e-12
2.00885e-12
2.07572e-12
2.15328e-12
2.2395e-12
2.33234e-12
2.42969e-12
2.52948e-12
2.62961e-12
2.72802e-12
2.82271e-12
2.91174e-12
2.99329e-12
3.06565e-12
3.12728e-12
3.17681e-12
3.21307e-12
3.23513e-12
3.24229e-12
3.23411e-12
3.21039e-12
3.17121e-12
3.11693e-12
3.04811e-12
2.9656e-12
2.87042e-12
2.76379e-12
2.64711e-12
2.52188e-12
2.38969e-12
2.25218e-12
2.11103e-12
1.96786e-12
1.82425e-12
1.68171e-12
1.54162e-12
1.40523e-12
1.27363e-12
1.14777e-12
1.0284e-12
9.16123e-13
8.11366e-13
7.14392e-13
6.25318e-13
5.44123e-13
4.70665e-13
4.04701e-13
3.45902e-13
2.9387e-13
2.4816e-13
2.08291e-13
1.73765e-13
1.44078e-13
1.18731e-13
9.72425e-14
7.9152e-14
6.40285e-14
5.14733e-14
4.11225e-14
3.26481e-14
2.57579e-14
2.01942e-14
1.57327e-14
1.21795e-14
9.36916e-15
7.16158e-15
5.43937e-15
4.105e-15
3.0782e-15
2.29347e-15
1.69784e-15
1.24883e-15
9.12648e-16
6.62667e-16
4.78051e-16
3.42636e-16
2.43988e-16
1.72614e-16
1.21325e-16
8.47204e-17
5.87741e-17
4.05084e-17
2.77379e-17
1.88712e-17
1.27588e-17
8.57687e-18
5.74048e-18
3.83831e-18
2.58514e-18
1.78721e-18
1.31786e-18
1.10103e-18
2.96967e-17
3.13225e-17
3.46595e-17
3.98469e-17
4.71012e-17
5.67248e-17
6.91173e-17
8.47906e-17
1.04387e-16
1.28702e-16
1.58711e-16
1.95603e-16
2.4082e-16
2.96098e-16
3.63529e-16
4.45617e-16
5.45358e-16
6.66322e-16
8.1276e-16
9.89715e-16
1.20316e-15
1.46017e-15
1.76905e-15
2.13963e-15
2.58342e-15
3.1139e-15
3.74686e-15
4.50072e-15
5.3969e-15
6.4603e-15
7.7198e-15
9.20876e-15
1.09657e-14
1.30349e-14
1.54674e-14
1.83213e-14
2.16635e-14
2.55698e-14
3.01267e-14
3.54322e-14
4.15975e-14
4.87476e-14
5.70236e-14
6.6584e-14
7.76061e-14
9.02878e-14
1.0485e-13
1.21537e-13
1.40621e-13
1.62402e-13
1.87208e-13
2.15402e-13
2.47381e-13
2.83575e-13
3.24456e-13
3.7053e-13
4.22348e-13
4.80499e-13
5.45618e-13
6.18379e-13
6.99502e-13
7.89747e-13
8.89916e-13
1.00085e-12
1.12343e-12
1.25857e-12
1.40721e-12
1.57032e-12
1.74889e-12
1.94393e-12
2.15644e-12
2.38742e-12
2.63788e-12
2.90879e-12
3.20107e-12
3.51563e-12
3.8533e-12
4.21482e-12
4.60087e-12
5.01201e-12
5.4487e-12
5.91122e-12
6.39974e-12
6.91425e-12
7.45454e-12
8.02022e-12
8.61069e-12
9.22509e-12
9.86237e-12
1.05212e-11
1.12e-11
1.18969e-11
1.26098e-11
1.33365e-11
1.40741e-11
1.48199e-11
1.55706e-11
1.63231e-11
1.70736e-11
1.78184e-11
1.85535e-11
1.92749e-11
1.99783e-11
2.06594e-11
2.1314e-11
2.19377e-11
2.25262e-11
2.30752e-11
2.35808e-11
2.4039e-11
2.44461e-11
2.47987e-11
2.50937e-11
2.53283e-11
2.55002e-11
2.56074e-11
2.56484e-11
2.56222e-11
2.55284e-11
2.53669e-11
2.51383e-11
2.48438e-11
2.44849e-11
2.40639e-11
2.35833e-11
2.30464e-11
2.24567e-11
2.18183e-11
2.11356e-11
2.04133e-11
1.96564e-11
1.88701e-11
1.80598e-11
1.7231e-11
1.63893e-11
1.55401e-11
1.46888e-11
1.38409e-11
1.30013e-11
1.21751e-11
1.13667e-11
1.05806e-11
9.82053e-12
9.09019e-12
8.3927e-12
7.73083e-12
7.10691e-12
6.52286e-12
5.98017e-12
5.47995e-12
5.02289e-12
4.60934e-12
4.23926e-12
3.91229e-12
3.62776e-12
3.38472e-12
3.18196e-12
3.01801e-12
2.89121e-12
2.79969e-12
2.74139e-12
2.71411e-12
2.7155e-12
2.74307e-12
2.79421e-12
2.86622e-12
2.9563e-12
3.06159e-12
3.17913e-12
3.30597e-12
3.43909e-12
3.57551e-12
3.71226e-12
3.84642e-12
3.97517e-12
4.09581e-12
4.20578e-12
4.30274e-12
4.38455e-12
4.44935e-12
4.49555e-12
4.5219e-12
4.52748e-12
4.51171e-12
4.47441e-12
4.41574e-12
4.33622e-12
4.23672e-12
4.11844e-12
3.98286e-12
3.8317e-12
3.66692e-12
3.49063e-12
3.30505e-12
3.11247e-12
2.91519e-12
2.71547e-12
2.51548e-12
2.31728e-12
2.12277e-12
1.93365e-12
1.7514e-12
1.5773e-12
1.41236e-12
1.25739e-12
1.11294e-12
9.79343e-13
8.56741e-13
7.45078e-13
6.44139e-13
5.53568e-13
4.72894e-13
4.01557e-13
3.3893e-13
2.84343e-13
2.37101e-13
1.96504e-13
1.61864e-13
1.32512e-13
1.07816e-13
8.7181e-14
7.00588e-14
5.59497e-14
4.44037e-14
3.50202e-14
2.74466e-14
2.13757e-14
1.65429e-14
1.27218e-14
9.72142e-15
7.38153e-15
5.56919e-15
4.17505e-15
3.10991e-15
2.30168e-15
1.69258e-15
1.23667e-15
8.97745e-16
6.47503e-16
4.63998e-16
3.30347e-16
2.33668e-16
1.6421e-16
1.14648e-16
7.95235e-17
5.48012e-17
3.75195e-17
2.55226e-17
1.72536e-17
1.1597e-17
7.76095e-18
5.1887e-18
3.49425e-18
2.41545e-18
1.78093e-18
1.48781e-18
5.20123e-17
5.48567e-17
6.06956e-17
6.97717e-17
8.24634e-17
9.92991e-17
1.20977e-16
1.4839e-16
1.82661e-16
2.25178e-16
2.77645e-16
3.42136e-16
4.21166e-16
5.17766e-16
6.3558e-16
7.78977e-16
9.53176e-16
1.1644e-15
1.42005e-15
1.72891e-15
2.10137e-15
2.54973e-15
3.08846e-15
3.73462e-15
4.5082e-15
5.43265e-15
6.53533e-15
7.84821e-15
9.40843e-15
1.12591e-14
1.34503e-14
1.60397e-14
1.90939e-14
2.26895e-14
2.69143e-14
3.18691e-14
3.76686e-14
4.44438e-14
5.23433e-14
6.15358e-14
7.22117e-14
8.4586e-14
9.89003e-14
1.15425e-13
1.34465e-13
1.56356e-13
1.81476e-13
2.10241e-13
2.43112e-13
2.80598e-13
3.23257e-13
3.71701e-13
4.266e-13
4.8868e-13
5.5873e-13
6.37605e-13
7.26223e-13
8.25569e-13
9.36699e-13
1.06073e-12
1.19886e-12
1.35235e-12
1.5225e-12
1.7107e-12
1.91839e-12
2.14705e-12
2.3982e-12
2.67342e-12
2.97428e-12
3.30239e-12
3.65933e-12
4.04669e-12
4.46601e-12
4.9188e-12
5.40646e-12
5.93035e-12
6.49168e-12
7.09153e-12
7.73083e-12
8.41031e-12
9.13049e-12
9.89168e-12
1.06939e-11
1.15368e-11
1.242e-11
1.33424e-11
1.43029e-11
1.52997e-11
1.63309e-11
1.7394e-11
1.84863e-11
1.96044e-11
2.07448e-11
2.19032e-11
2.30754e-11
2.42563e-11
2.54408e-11
2.66233e-11
2.77979e-11
2.89585e-11
3.00987e-11
3.1212e-11
3.22915e-11
3.33307e-11
3.43226e-11
3.52606e-11
3.6138e-11
3.69486e-11
3.7686e-11
3.83446e-11
3.89189e-11
3.94039e-11
3.97952e-11
4.00892e-11
4.02825e-11
4.03728e-11
4.03583e-11
4.02381e-11
4.00121e-11
3.9681e-11
3.92463e-11
3.87105e-11
3.80766e-11
3.73486e-11
3.65312e-11
3.563e-11
3.46508e-11
3.36005e-11
3.24862e-11
3.13155e-11
3.00964e-11
2.88372e-11
2.75463e-11
2.62323e-11
2.49037e-11
2.35688e-11
2.2236e-11
2.09133e-11
1.96082e-11
1.8328e-11
1.70795e-11
1.58689e-11
1.47018e-11
1.35833e-11
1.25179e-11
1.15092e-11
1.05606e-11
9.67433e-12
8.85242e-12
8.09609e-12
7.40601e-12
6.78232e-12
6.22461e-12
5.73201e-12
5.30321e-12
4.93648e-12
4.62974e-12
4.38056e-12
4.18626e-12
4.04384e-12
3.95011e-12
3.90165e-12
3.89486e-12
3.92599e-12
3.99113e-12
4.08626e-12
4.20725e-12
4.34991e-12
4.50995e-12
4.68308e-12
4.86499e-12
5.05141e-12
5.23811e-12
5.42097e-12
5.59602e-12
5.75948e-12
5.90778e-12
6.03768e-12
6.14622e-12
6.23086e-12
6.28945e-12
6.3203e-12
6.3222e-12
6.29444e-12
6.23681e-12
6.14963e-12
6.03368e-12
5.89026e-12
5.72107e-12
5.52822e-12
5.31418e-12
5.08167e-12
4.83366e-12
4.57324e-12
4.30359e-12
4.0279e-12
3.74929e-12
3.47076e-12
3.19514e-12
2.925e-12
2.66267e-12
2.41019e-12
2.16925e-12
1.94124e-12
1.72721e-12
1.5279e-12
1.34374e-12
1.17487e-12
1.0212e-12
8.82388e-13
7.5793e-13
6.47152e-13
5.49262e-13
4.63381e-13
3.88572e-13
3.23869e-13
2.68299e-13
2.2091e-13
1.80778e-13
1.47028e-13
1.18842e-13
9.54663e-14
7.62129e-14
6.04642e-14
4.76706e-14
3.7349e-14
2.90787e-14
2.24973e-14
1.72958e-14
1.32129e-14
1.00299e-14
7.56532e-15
5.67004e-15
4.22246e-15
3.12436e-15
2.29703e-15
1.67794e-15
1.21783e-15
8.78188e-16
6.29185e-16
4.4787e-16
3.16741e-16
2.22552e-16
1.55356e-16
1.07744e-16
7.42377e-17
5.08196e-17
3.45654e-17
2.33637e-17
1.57021e-17
1.05069e-17
7.02375e-18
4.72951e-18
3.26898e-18
2.40999e-18
2.01319e-18
9.04439e-17
9.53849e-17
1.05528e-16
1.21294e-16
1.43341e-16
1.72583e-16
2.10232e-16
2.57838e-16
3.17345e-16
3.91161e-16
4.82238e-16
5.94173e-16
7.3132e-16
8.98931e-16
1.10332e-15
1.35204e-15
1.65413e-15
2.02036e-15
2.46352e-15
2.9988e-15
3.64418e-15
4.42088e-15
5.35391e-15
6.4727e-15
7.81176e-15
9.41151e-15
1.13192e-14
1.35897e-14
1.62872e-14
1.94858e-14
2.32716e-14
2.77437e-14
3.30166e-14
3.92216e-14
4.65096e-14
5.5053e-14
6.50484e-14
7.67199e-14
9.03216e-14
1.06141e-13
1.24504e-13
1.45776e-13
1.70369e-13
1.98744e-13
2.31414e-13
2.68954e-13
3.12001e-13
3.6126e-13
4.17509e-13
4.81606e-13
5.54492e-13
6.37195e-13
7.30837e-13
8.36635e-13
9.55909e-13
1.09008e-12
1.24068e-12
1.40934e-12
1.59781e-12
1.80794e-12
2.04169e-12
2.30112e-12
2.58838e-12
2.90573e-12
3.25549e-12
3.64007e-12
4.06192e-12
4.52355e-12
5.02746e-12
5.5762e-12
6.17226e-12
6.8181e-12
7.51611e-12
8.26857e-12
9.07762e-12
9.94523e-12
1.08732e-11
1.18629e-11
1.29158e-11
1.40326e-11
1.52139e-11
1.64598e-11
1.777e-11
1.91438e-11
2.05797e-11
2.20759e-11
2.363e-11
2.52388e-11
2.68988e-11
2.86055e-11
3.0354e-11
3.21387e-11
3.39532e-11
3.57907e-11
3.76437e-11
3.9504e-11
4.1363e-11
4.32116e-11
4.50403e-11
4.6839e-11
4.85977e-11
5.03057e-11
5.19527e-11
5.35279e-11
5.5021e-11
5.64214e-11
5.77193e-11
5.89049e-11
5.9969e-11
6.09032e-11
6.16995e-11
6.2351e-11
6.28515e-11
6.3196e-11
6.33803e-11
6.34017e-11
6.32583e-11
6.29498e-11
6.24769e-11
6.18418e-11
6.10478e-11
6.00996e-11
5.90029e-11
5.77648e-11
5.63935e-11
5.4898e-11
5.32885e-11
5.15759e-11
4.97718e-11
4.78883e-11
4.59382e-11
4.39344e-11
4.189e-11
3.98183e-11
3.77321e-11
3.56444e-11
3.35675e-11
3.15134e-11
2.94935e-11
2.75182e-11
2.55976e-11
2.37405e-11
2.19551e-11
2.02484e-11
1.86265e-11
1.70947e-11