/*--------------------------------*- C++ -*----------------------------------*\
| =========                 |                                                 |
| \\      /  F ield         | OpenFOAM: The Open Source CFD Toolbox           |
|  \\    /   O peration     | Version:  v2012                                 |
|   \\  /    A nd           | Website:  www.openfoam.com                      |
|    \\/     M anipulation  |                                                 |
\*---------------------------------------------------------------------------*/
FoamFile
{
    version     2.0;
    format      ascii;
    class       volScalarField;
    location    "10.5";
    object      W;
}
// * * * * * * * * * * * * * * * * * * * * * * * * * * * * * * * * * * * * * //

dimensions      [0 0 -1 0 0 0 0];


internalField   nonuniform List<scalar> 
65536
(
4.20407e-17
4.27627e-17
4.48499e-17
4.83408e-17
5.33115e-17
5.98757e-17
6.81873e-17
7.84429e-17
9.08854e-17
1.05809e-16
1.23565e-16
1.44569e-16
1.69305e-16
1.98342e-16
2.32337e-16
2.72051e-16
3.18362e-16
3.7228e-16
4.34964e-16
5.07741e-16
5.9213e-16
6.89864e-16
8.0292e-16
9.33547e-16
1.0843e-15
1.25808e-15
1.45817e-15
1.6883e-15
1.95265e-15
2.25598e-15
2.60362e-15
3.00159e-15
3.45661e-15
3.97628e-15
4.56905e-15
5.24441e-15
6.01294e-15
6.88644e-15
7.87803e-15
9.00231e-15
1.02755e-14
1.17154e-14
1.33421e-14
1.51772e-14
1.72451e-14
1.95722e-14
2.21877e-14
2.51237e-14
2.84152e-14
3.21004e-14
3.62211e-14
4.08228e-14
4.59549e-14
5.16711e-14
5.80293e-14
6.50923e-14
7.29278e-14
8.16084e-14
9.12126e-14
1.01824e-13
1.13532e-13
1.26433e-13
1.40629e-13
1.56227e-13
1.73343e-13
1.92098e-13
2.12621e-13
2.35045e-13
2.59512e-13
2.86171e-13
3.15177e-13
3.46689e-13
3.80876e-13
4.1791e-13
4.5797e-13
5.01239e-13
5.47904e-13
5.98157e-13
6.52194e-13
7.1021e-13
7.72404e-13
8.38976e-13
9.10123e-13
9.86041e-13
1.06692e-12
1.15296e-12
1.24433e-12
1.34121e-12
1.44377e-12
1.55216e-12
1.66652e-12
1.78697e-12
1.91363e-12
2.04658e-12
2.1859e-12
2.33163e-12
2.48378e-12
2.64235e-12
2.80729e-12
2.97854e-12
3.15598e-12
3.33947e-12
3.52883e-12
3.72382e-12
3.92417e-12
4.12958e-12
4.33967e-12
4.55404e-12
4.77222e-12
4.99369e-12
5.21789e-12
5.4442e-12
5.67195e-12
5.90042e-12
6.12883e-12
6.35635e-12
6.58212e-12
6.8052e-12
7.02465e-12
7.23946e-12
7.44858e-12
7.65096e-12
7.84549e-12
8.03107e-12
8.20658e-12
8.37089e-12
8.52288e-12
8.66145e-12
8.78551e-12
8.89403e-12
8.986e-12
9.06049e-12
9.11663e-12
9.15363e-12
9.1708e-12
9.16755e-12
9.14342e-12
9.09806e-12
9.03128e-12
8.94302e-12
8.83339e-12
8.70264e-12
8.55122e-12
8.37974e-12
8.18895e-12
7.97982e-12
7.75344e-12
7.51108e-12
7.25418e-12
6.98426e-12
6.70303e-12
6.41227e-12
6.11384e-12
5.80971e-12
5.50186e-12
5.19231e-12
4.88308e-12
4.57616e-12
4.2735e-12
3.97699e-12
3.68842e-12
3.40946e-12
3.14167e-12
2.88646e-12
2.64509e-12
2.41862e-12
2.20799e-12
2.01392e-12
1.83697e-12
1.6775e-12
1.53571e-12
1.41162e-12
1.30507e-12
1.21577e-12
1.14322e-12
1.08684e-12
1.04585e-12
1.01938e-12
1.00641e-12
1.00584e-12
1.01643e-12
1.03687e-12
1.06577e-12
1.10164e-12
1.14298e-12
1.18822e-12
1.23577e-12
1.28406e-12
1.33154e-12
1.3767e-12
1.41811e-12
1.45446e-12
1.48455e-12
1.50734e-12
1.52199e-12
1.52782e-12
1.52439e-12
1.51148e-12
1.48909e-12
1.45744e-12
1.41697e-12
1.3683e-12
1.31224e-12
1.24974e-12
1.18186e-12
1.10973e-12
1.03454e-12
9.57464e-13
8.7967e-13
8.02257e-13
7.26238e-13
6.52519e-13
5.8188e-13
5.14967e-13
4.52282e-13
3.94189e-13
3.40914e-13
2.92558e-13
2.49108e-13
2.10454e-13
1.76401e-13
1.46691e-13
1.21018e-13
9.90437e-14
8.04111e-14
6.47597e-14
5.17343e-14
4.09944e-14
3.22203e-14
2.51177e-14
1.94207e-14
1.48926e-14
1.13262e-14
8.54274e-15
6.38993e-15
4.7399e-15
3.48664e-15
2.54329e-15
1.83962e-15
1.31945e-15
9.38374e-16
6.61714e-16
4.62664e-16
3.20738e-16
2.20454e-16
1.50231e-16
1.01502e-16
6.79961e-17
4.51692e-17
2.97663e-17
1.94807e-17
1.26979e-17
8.30431e-18
5.54828e-18
3.94076e-18
3.18788e-18
6.25721e-17
6.36435e-17
6.67459e-17
7.19362e-17
7.93268e-17
8.90868e-17
1.01445e-16
1.16692e-16
1.35191e-16
1.57377e-16
1.83772e-16
2.14991e-16
2.51757e-16
2.9491e-16
3.45428e-16
4.04437e-16
4.73242e-16
5.53337e-16
6.46441e-16
7.54522e-16
8.79827e-16
1.02492e-15
1.19274e-15
1.38659e-15
1.61027e-15
1.86805e-15
2.1648e-15
2.50599e-15
2.89783e-15
3.3473e-15
3.86226e-15
4.45156e-15
5.12512e-15
5.89404e-15
6.77078e-15
7.76922e-15
8.90486e-15
1.01949e-14
1.16587e-14
1.33173e-14
1.51944e-14
1.73162e-14
1.97113e-14
2.24115e-14
2.54518e-14
2.88706e-14
3.27098e-14
3.70156e-14
4.18383e-14
4.72325e-14
5.32581e-14
5.99797e-14
6.74676e-14
7.57978e-14
8.50521e-14
9.53189e-14
1.06693e-13
1.19276e-13
1.33178e-13
1.48513e-13
1.65407e-13
1.83991e-13
2.04404e-13
2.26794e-13
2.51316e-13
2.78135e-13
3.07421e-13
3.39354e-13
3.74122e-13
4.1192e-13
4.52948e-13
4.97417e-13
5.4554e-13
5.97538e-13
6.53636e-13
7.14064e-13
7.79053e-13
8.48837e-13
9.23653e-13
1.00374e-12
1.08932e-12
1.18063e-12
1.27789e-12
1.38132e-12
1.49114e-12
1.60754e-12
1.73071e-12
1.86082e-12
1.99802e-12
2.14246e-12
2.29425e-12
2.45348e-12
2.62021e-12
2.79449e-12
2.97632e-12
3.16566e-12
3.36246e-12
3.56662e-12
3.77799e-12
3.99638e-12
4.22156e-12
4.45326e-12
4.69114e-12
4.93482e-12
5.18388e-12
5.43783e-12
5.69612e-12
5.95817e-12
6.22331e-12
6.49084e-12
6.75999e-12
7.02995e-12
7.29983e-12
7.56871e-12
7.83561e-12
8.09949e-12
8.3593e-12
8.61391e-12
8.86217e-12
9.1029e-12
9.33488e-12
9.55689e-12
9.76769e-12
9.96603e-12
1.01507e-11
1.03204e-11
1.04739e-11
1.06102e-11
1.0728e-11
1.08263e-11
1.09041e-11
1.09605e-11
1.09946e-11
1.10058e-11
1.09934e-11
1.09569e-11
1.0896e-11
1.08106e-11
1.07006e-11
1.05661e-11
1.04076e-11
1.02255e-11
1.00205e-11
9.79347e-12
9.5455e-12
9.27782e-12
8.99185e-12
8.68916e-12
8.37149e-12
8.04071e-12
7.6988e-12
7.34785e-12
6.99004e-12
6.62758e-12
6.26273e-12
5.89775e-12
5.53489e-12
5.17635e-12
4.82426e-12
4.48066e-12
4.14746e-12
3.82645e-12
3.51927e-12
3.22737e-12
2.95204e-12
2.69436e-12
2.45524e-12
2.23536e-12
2.03521e-12
1.8551e-12
1.69512e-12
1.55519e-12
1.43503e-12
1.33421e-12
1.25212e-12
1.18801e-12
1.14097e-12
1.10997e-12
1.09385e-12
1.09134e-12
1.10106e-12
1.12153e-12
1.15122e-12
1.18849e-12
1.23168e-12
1.27909e-12
1.329e-12
1.3797e-12
1.42952e-12
1.47685e-12
1.52015e-12
1.55802e-12
1.5892e-12
1.61257e-12
1.62723e-12
1.63251e-12
1.62792e-12
1.61326e-12
1.58852e-12
1.55397e-12
1.51007e-12
1.45751e-12
1.39716e-12
1.33002e-12
1.25724e-12
1.18002e-12
1.09962e-12
1.0173e-12
9.34294e-13
8.51764e-13
7.70783e-13
6.92307e-13
6.17158e-13
5.46015e-13
4.79404e-13
4.17703e-13
3.61147e-13
3.09836e-13
2.6375e-13
2.22767e-13
1.86676e-13
1.55199e-13
1.28007e-13
1.0474e-13
8.50181e-14
6.84559e-14
5.46763e-14
4.33175e-14
3.404e-14
2.65316e-14
2.05105e-14
1.57258e-14
1.1958e-14
9.01795e-15
6.74442e-15
5.00218e-15
3.67909e-15
2.68334e-15
1.94069e-15
1.39178e-15
9.89709e-16
6.97843e-16
4.87876e-16
3.38185e-16
2.32425e-16
1.58375e-16
1.06997e-16
7.16711e-17
4.76069e-17
3.13706e-17
2.05293e-17
1.33805e-17
8.75017e-18
5.8458e-18
4.15184e-18
3.35858e-18
1.1179e-16
1.13699e-16
1.19234e-16
1.28496e-16
1.41685e-16
1.59102e-16
1.81155e-16
2.08363e-16
2.4137e-16
2.80954e-16
3.28045e-16
3.83738e-16
4.4932e-16
5.26288e-16
6.1638e-16
7.21605e-16
8.44279e-16
9.87065e-16
1.15302e-15
1.34563e-15
1.5689e-15
1.82739e-15
2.12629e-15
2.47149e-15
2.86971e-15
3.32852e-15
3.85654e-15
4.46346e-15
5.16026e-15
5.95927e-15
6.87437e-15
7.92116e-15
9.11712e-15
1.04818e-14
1.20371e-14
1.38074e-14
1.58199e-14
1.81048e-14
2.06956e-14
2.36295e-14
2.69477e-14
3.06955e-14
3.49229e-14
3.96851e-14
4.50424e-14
5.10612e-14
5.78138e-14
6.53793e-14
7.3844e-14
8.33015e-14
9.38535e-14
1.0561e-13
1.1869e-13
1.33221e-13
1.49342e-13
1.672e-13
1.86954e-13
2.08772e-13
2.32835e-13
2.59333e-13
2.88471e-13
3.20461e-13
3.5553e-13
3.93915e-13
4.35865e-13
4.81639e-13
5.31508e-13
5.85753e-13
6.44665e-13
7.08542e-13
7.77691e-13
8.52428e-13
9.33071e-13
1.01995e-12
1.11338e-12
1.2137e-12
1.32123e-12
1.4363e-12
1.55923e-12
1.69034e-12
1.82991e-12
1.97826e-12
2.13564e-12
2.30231e-12
2.47853e-12
2.66448e-12
2.86037e-12
3.06633e-12
3.28251e-12
3.50897e-12
3.74576e-12
3.99287e-12
4.25027e-12
4.51786e-12
4.79548e-12
5.08293e-12
5.37995e-12
5.68621e-12
6.00133e-12
6.32485e-12
6.65625e-12
6.99496e-12
7.34031e-12
7.69159e-12
8.04798e-12
8.40864e-12
8.77261e-12
9.13891e-12
9.50646e-12
9.87411e-12
1.02407e-11
1.06049e-11
1.09655e-11
1.1321e-11
1.167e-11
1.20112e-11
1.2343e-11
1.26638e-11
1.29721e-11
1.32665e-11
1.35452e-11
1.38068e-11
1.40496e-11
1.42723e-11
1.44732e-11
1.4651e-11
1.48043e-11
1.49318e-11
1.50323e-11
1.51047e-11
1.5148e-11
1.51613e-11
1.5144e-11
1.50954e-11
1.50151e-11
1.49031e-11
1.47591e-11
1.45835e-11
1.43766e-11
1.4139e-11
1.38715e-11
1.35752e-11
1.32513e-11
1.29013e-11
1.25269e-11
1.213e-11
1.17127e-11
1.12771e-11
1.08258e-11
1.03611e-11
9.88591e-12
9.40281e-12
8.91463e-12
8.42419e-12
7.93431e-12
7.44779e-12
6.96735e-12
6.49564e-12
6.03516e-12
5.58829e-12
5.15724e-12
4.74401e-12
4.35041e-12
3.97801e-12
3.62817e-12
3.30197e-12
3.00028e-12
2.7237e-12
2.4726e-12
2.24712e-12
2.04715e-12
1.87239e-12
1.72229e-12
1.59616e-12
1.49309e-12
1.41201e-12
1.35171e-12
1.31082e-12
1.28784e-12
1.28117e-12
1.28908e-12
1.30977e-12
1.34135e-12
1.38187e-12
1.42935e-12
1.48176e-12
1.53708e-12
1.59333e-12
1.64856e-12
1.7009e-12
1.7486e-12
1.79005e-12
1.82381e-12
1.84864e-12
1.86353e-12
1.86771e-12
1.86067e-12
1.8422e-12
1.81233e-12
1.77137e-12
1.71989e-12
1.65868e-12
1.58874e-12
1.51125e-12
1.42749e-12
1.33885e-12
1.24676e-12
1.15265e-12
1.05791e-12
9.63855e-13
8.71684e-13
7.82472e-13
6.97137e-13
6.16432e-13
5.40941e-13
4.71076e-13
4.07089e-13
3.49082e-13
2.9702e-13
2.50753e-13
2.10036e-13
1.74546e-13
1.43907e-13
1.17704e-13
9.55046e-14
7.68716e-14
6.13765e-14
4.86093e-14
3.8186e-14
2.97539e-14
2.29946e-14
1.76253e-14
1.33987e-14
1.01017e-14
7.55305e-15
5.60055e-15
4.11822e-15
3.00295e-15
2.17138e-15
1.5569e-15
1.10691e-15
7.80336e-16
5.45451e-16
3.78031e-16
2.59767e-16
1.76979e-16
1.19548e-16
8.00672e-17
5.31769e-17
3.50365e-17
2.29256e-17
1.49406e-17
9.76925e-18
6.52588e-18
4.63437e-18
3.74866e-18
2.10251e-16
2.13834e-16
2.24233e-16
2.41634e-16
2.66416e-16
2.99142e-16
3.40578e-16
3.91699e-16
4.53713e-16
5.28081e-16
6.16546e-16
7.21165e-16
8.44351e-16
9.88912e-16
1.15811e-15
1.35571e-15
1.58605e-15
1.85412e-15
2.16565e-15
2.52719e-15
2.9462e-15
3.43123e-15
3.99199e-15
4.6395e-15
5.3863e-15
6.24657e-15
7.23635e-15
8.37376e-15
9.67925e-15
1.11758e-14
1.28893e-14
1.48487e-14
1.70865e-14
1.9639e-14
2.25469e-14
2.58553e-14
2.96145e-14
3.38805e-14
3.87151e-14
4.41869e-14
5.03716e-14
5.73526e-14
6.52218e-14
7.40801e-14
8.4038e-14
9.52163e-14
1.07747e-13
1.21774e-13
1.37453e-13
1.54954e-13
1.7446e-13
1.9617e-13
2.20295e-13
2.47065e-13
2.76726e-13
3.0954e-13
3.45787e-13
3.85765e-13
4.29788e-13
4.78191e-13
5.31327e-13
5.89564e-13
6.53292e-13
7.22914e-13
7.98854e-13
8.81548e-13
9.7145e-13
1.06903e-12
1.17475e-12
1.28912e-12
1.41262e-12
1.54575e-12
1.68903e-12
1.84295e-12
2.00803e-12
2.18474e-12
2.37358e-12
2.57502e-12
2.78952e-12
3.0175e-12
3.25936e-12
3.51548e-12
3.7862e-12
4.0718e-12
4.37254e-12
4.6886e-12
5.02013e-12
5.3672e-12
5.72983e-12
6.10794e-12
6.50142e-12
6.91002e-12
7.33347e-12
7.77136e-12
8.22321e-12
8.68846e-12
9.16642e-12
9.65633e-12
1.01573e-11
1.06684e-11
1.11886e-11
1.17166e-11
1.22512e-11
1.2791e-11
1.33345e-11
1.38803e-11
1.44266e-11
1.49717e-11
1.55138e-11
1.6051e-11
1.65814e-11
1.71029e-11
1.76135e-11
1.8111e-11
1.85934e-11
1.90584e-11
1.95039e-11
1.99277e-11
2.03276e-11
2.07015e-11
2.10473e-11
2.13629e-11
2.16463e-11
2.18957e-11
2.21093e-11
2.22853e-11
2.24222e-11
2.25186e-11
2.25733e-11
2.25851e-11
2.25532e-11
2.24769e-11
2.23559e-11
2.21899e-11
2.19789e-11
2.17232e-11
2.14236e-11
2.10807e-11
2.06957e-11
2.02702e-11
1.98056e-11
1.93042e-11
1.8768e-11
1.81996e-11
1.76018e-11
1.69775e-11
1.633e-11
1.56625e-11
1.49787e-11
1.42822e-11
1.35768e-11
1.28661e-11
1.21541e-11
1.14445e-11
1.0741e-11
1.00473e-11
9.36696e-12
8.70318e-12
8.05913e-12
7.4377e-12
6.84151e-12
6.27291e-12
5.73394e-12
5.22632e-12
4.75147e-12
4.31047e-12
3.90406e-12
3.53269e-12
3.19648e-12
2.89527e-12
2.62859e-12
2.39574e-12
2.19575e-12
2.02742e-12
1.88935e-12
1.77996e-12
1.69748e-12
1.63998e-12
1.60543e-12
1.59164e-12
1.59632e-12
1.61712e-12
1.65158e-12
1.69722e-12
1.75152e-12
1.81194e-12
1.87596e-12
1.94113e-12
2.00506e-12
2.06548e-12
2.12026e-12
2.16746e-12
2.20537e-12
2.23252e-12
2.24771e-12
2.25006e-12
2.239e-12
2.2143e-12
2.17604e-12
2.12464e-12
2.06079e-12
1.9855e-12
1.89997e-12
1.80562e-12
1.70401e-12
1.59681e-12
1.48572e-12
1.37244e-12
1.25864e-12
1.14585e-12
1.0355e-12
9.28844e-13
8.26963e-13
7.30731e-13
6.40819e-13
5.57697e-13
4.81647e-13
4.12768e-13
3.51005e-13
2.96163e-13
2.47938e-13
2.05937e-13
1.69701e-13
1.38734e-13
1.12515e-13
9.05224e-14
7.22441e-14
5.71922e-14
4.49102e-14
3.49796e-14
2.7023e-14
2.07055e-14
1.57349e-14
1.18591e-14
8.86418e-15
6.57073e-15
4.83019e-15
3.52112e-15
2.54537e-15
1.82458e-15
1.2969e-15
9.14057e-16
6.38778e-16
4.42616e-16
3.04086e-16
2.07133e-16
1.3989e-16
9.3675e-17
6.22041e-17
4.09777e-17
2.68089e-17
1.74688e-17
1.14207e-17
7.62794e-18
5.41627e-18
4.38072e-18
3.97891e-16
4.04663e-16
4.24324e-16
4.57231e-16
5.04093e-16
5.6598e-16
6.44335e-16
7.41005e-16
8.58269e-16
9.98889e-16
1.16616e-15
1.36396e-15
1.59686e-15
1.87015e-15
2.18999e-15
2.5635e-15
2.99886e-15
3.5055e-15
4.09421e-15
4.77733e-15
5.56899e-15
6.48525e-15
7.54441e-15
8.76726e-15
1.01774e-14
1.18015e-14
1.36697e-14
1.58161e-14
1.82792e-14
2.11021e-14
2.43332e-14
2.80271e-14
3.22445e-14
3.70535e-14
4.253e-14
4.87585e-14
5.58329e-14
6.38574e-14
7.29473e-14
8.32302e-14
9.48468e-14
1.07952e-13
1.22715e-13
1.39324e-13
1.57982e-13
1.78912e-13
2.02357e-13
2.2858e-13
2.57869e-13
2.90531e-13
3.26902e-13
3.67342e-13
4.12236e-13
4.62e-13
5.17074e-13
5.77931e-13
6.45071e-13
7.19025e-13
8.00352e-13
8.89644e-13
9.87519e-13
1.09463e-12
1.21164e-12
1.33926e-12
1.47821e-12
1.62925e-12
1.79313e-12
1.97065e-12
2.16259e-12
2.36978e-12
2.593e-12
2.83309e-12
3.09083e-12
3.36703e-12
3.66246e-12
3.97788e-12
4.31399e-12
4.6715e-12
5.05102e-12
5.45314e-12
5.87838e-12
6.32719e-12
6.79994e-12
7.2969e-12
7.81826e-12
8.36412e-12
8.93443e-12
9.52904e-12
1.01477e-11
1.079e-11
1.14553e-11
1.21431e-11
1.28524e-11
1.35822e-11
1.43315e-11
1.50989e-11
1.5883e-11
1.66821e-11
1.74944e-11
1.83181e-11
1.9151e-11
1.9991e-11
2.08356e-11
2.16824e-11
2.25287e-11
2.33717e-11
2.42087e-11
2.50366e-11
2.58525e-11
2.66532e-11
2.74356e-11
2.81964e-11
2.89324e-11
2.96403e-11
3.0317e-11
3.09592e-11
3.15638e-11
3.21275e-11
3.26474e-11
3.31206e-11
3.35442e-11
3.39156e-11
3.42322e-11
3.44918e-11
3.46922e-11
3.48316e-11
3.49082e-11
3.49206e-11
3.48679e-11
3.47491e-11
3.45638e-11
3.43118e-11
3.39934e-11
3.3609e-11
3.31596e-11
3.26466e-11
3.20715e-11
3.14364e-11
3.07438e-11
2.99966e-11
2.91978e-11
2.8351e-11
2.74601e-11
2.65292e-11
2.55629e-11
2.45658e-11
2.35428e-11
2.24991e-11
2.144e-11
2.03706e-11
1.92965e-11
1.8223e-11
1.71554e-11
1.60989e-11
1.50586e-11
1.40392e-11
1.30455e-11
1.20816e-11
1.11514e-11
1.02587e-11
9.40652e-12
8.59762e-12
7.83434e-12
7.11852e-12
6.45158e-12
5.83447e-12
5.26773e-12
4.75144e-12
4.2853e-12
3.86861e-12
3.50032e-12
3.17905e-12
2.90312e-12
2.67057e-12
2.47921e-12
2.32663e-12
2.21021e-12
2.12719e-12
2.07465e-12
2.04956e-12
2.04877e-12
2.06908e-12
2.10721e-12
2.15984e-12
2.22367e-12
2.29539e-12
2.37177e-12
2.44964e-12
2.52596e-12
2.59787e-12
2.6627e-12
2.71803e-12
2.76174e-12
2.79201e-12
2.80741e-12
2.80688e-12
2.78976e-12
2.75579e-12
2.70514e-12
2.63837e-12
2.55639e-12
2.46047e-12
2.35213e-12
2.23317e-12
2.10552e-12
1.97126e-12
1.83249e-12
1.69132e-12
1.54978e-12
1.40975e-12
1.27298e-12
1.141e-12
1.01509e-12
8.96321e-13
7.85485e-13
6.83137e-13
5.89594e-13
5.04957e-13
4.29135e-13
3.61871e-13
3.02772e-13
2.51342e-13
2.07006e-13
1.69143e-13
1.37109e-13
1.10255e-13
8.79513e-14
6.95954e-14
5.46261e-14
4.25293e-14
3.28421e-14
2.51545e-14
1.91087e-14
1.43967e-14
1.07572e-14
7.97134e-15
5.85794e-15
4.26902e-15
3.08512e-15
2.21087e-15
1.57106e-15
1.107e-15
7.73424e-16
5.35789e-16
3.68016e-16
2.50627e-16
1.6923e-16
1.133e-16
7.52225e-17
4.9545e-17
3.24086e-17
2.11141e-17
1.38017e-17
9.2168e-18
6.54348e-18
5.29188e-18
7.48314e-16
7.61036e-16
7.97986e-16
8.59834e-16
9.47916e-16
1.06424e-15
1.21151e-15
1.39321e-15
1.61361e-15
1.87791e-15
2.19228e-15
2.56403e-15
3.00171e-15
3.51529e-15
4.11633e-15
4.81817e-15
5.6362e-15
6.58808e-15
7.69408e-15
8.97736e-15
1.04644e-14
1.21853e-14
1.41743e-14
1.64705e-14
1.9118e-14
2.21667e-14
2.56732e-14
2.97011e-14
3.43223e-14
3.96174e-14
4.5677e-14
5.26026e-14
6.05078e-14
6.95192e-14
7.97782e-14
9.14421e-14
1.04685e-13
1.19701e-13
1.36704e-13
1.55929e-13
1.77638e-13
2.02116e-13
2.29677e-13
2.60665e-13
2.95456e-13
3.34458e-13
3.78117e-13
4.26915e-13
4.81374e-13
5.4206e-13
6.09578e-13
6.84582e-13
7.6777e-13
8.59888e-13
9.61732e-13
1.07415e-12
1.19802e-12
1.33431e-12
1.48399e-12
1.64812e-12
1.82777e-12
2.02408e-12
2.23823e-12
2.47142e-12
2.7249e-12
2.99994e-12
3.29785e-12
3.61993e-12
3.96751e-12
4.34193e-12
4.74449e-12
5.1765e-12
5.63923e-12
6.13392e-12
6.66175e-12
7.22384e-12
7.82125e-12
8.45491e-12
9.12569e-12
9.83431e-12
1.05814e-11
1.13674e-11
1.21925e-11
1.3057e-11
1.39608e-11
1.49035e-11
1.58848e-11
1.69039e-11
1.79599e-11
1.90517e-11
2.01777e-11
2.13365e-11
2.2526e-11
2.37441e-11
2.49884e-11
2.62561e-11
2.75444e-11
2.88501e-11
3.01697e-11
3.14996e-11
3.28359e-11
3.41747e-11
3.55115e-11
3.68421e-11
3.81618e-11
3.94659e-11
4.07496e-11
4.2008e-11
4.3236e-11
4.44288e-11
4.55812e-11
4.66883e-11
4.77451e-11
4.87466e-11
4.96882e-11
5.0565e-11
5.13726e-11
5.21066e-11
5.2763e-11
5.33377e-11
5.38273e-11
5.42284e-11
5.4538e-11
5.47535e-11
5.48727e-11
5.48935e-11
5.48147e-11
5.46352e-11
5.43545e-11
5.39726e-11
5.34899e-11
5.29074e-11
5.22266e-11
5.14495e-11
5.05786e-11
4.96171e-11
4.85685e-11
4.74371e-11
4.62273e-11
4.49443e-11
4.35938e-11
4.21816e-11
4.07143e-11
3.91985e-11
3.76414e-11
3.60503e-11
3.44327e-11
3.27963e-11
3.11488e-11
2.94981e-11
2.78518e-11
2.62177e-11
2.4603e-11
2.30149e-11
2.14604e-11
1.99458e-11
1.84772e-11
1.706e-11
1.56993e-11
1.43995e-11
1.31642e-11
1.19968e-11
1.08998e-11
9.87491e-12
8.92353e-12
8.04624e-12
7.24309e-12
6.51352e-12
5.85648e-12
5.27037e-12
4.75317e-12
4.30245e-12
3.9154e-12
3.58887e-12
3.31946e-12
3.1035e-12
2.93712e-12
2.81628e-12
2.73679e-12
2.69436e-12
2.68459e-12
2.70304e-12
2.74524e-12
2.80672e-12
2.88301e-12
2.96974e-12
3.06262e-12
3.15751e-12
3.25048e-12
3.3378e-12
3.41605e-12
3.48216e-12
3.53343e-12
3.56759e-12
3.58284e-12
3.5779e-12
3.55197e-12
3.50481e-12
3.43668e-12
3.34832e-12
3.24097e-12
3.11626e-12
2.97617e-12
2.82299e-12
2.6592e-12
2.48742e-12
2.31032e-12
2.13055e-12
1.95064e-12
1.77299e-12
1.59975e-12
1.43281e-12
1.27377e-12
1.12394e-12
9.84284e-13
8.55463e-13
7.37846e-13
6.31533e-13
5.3638e-13
4.5204e-13
3.78e-13
3.13618e-13
2.5816e-13
2.10832e-13
1.70817e-13
1.37296e-13
1.09471e-13
8.65849e-14
6.7932e-14
5.28666e-14
4.08084e-14
3.1244e-14
2.37257e-14
1.78688e-14
1.3347e-14
9.88718e-15
7.26353e-15
5.29176e-15
3.82311e-15
2.73897e-15
1.94581e-15
1.3707e-15
9.57433e-16
6.63106e-16
4.55364e-16
3.10048e-16
2.0931e-16
1.40107e-16
9.30031e-17
6.12454e-17
4.00554e-17
2.60917e-17
1.70528e-17
1.1386e-17
8.08231e-18
6.53571e-18
1.39414e-15
1.41782e-15
1.48662e-15
1.6018e-15
1.76582e-15
1.98244e-15
2.2567e-15
2.59506e-15
3.0055e-15
3.49767e-15
4.08309e-15
4.77535e-15
5.59038e-15
6.54671e-15
7.66585e-15
8.97266e-15
1.04957e-14
1.2268e-14
1.4327e-14
1.67159e-14
1.9484e-14
2.26871e-14
2.6389e-14
3.06622e-14
3.55885e-14
4.12608e-14
4.77839e-14
5.52759e-14
6.38699e-14
7.37155e-14
8.49803e-14
9.78523e-14
1.12541e-13
1.29282e-13
1.48335e-13
1.6999e-13
1.9457e-13
2.2243e-13
2.53964e-13
2.89608e-13
3.29837e-13
3.75178e-13
4.26205e-13
4.83547e-13
5.47889e-13
6.19977e-13
7.00621e-13
7.90699e-13
8.91156e-13
1.00301e-12
1.12737e-12
1.2654e-12
1.41835e-12
1.58756e-12
1.77446e-12
1.98055e-12
2.2074e-12
2.45669e-12
2.73017e-12
3.02966e-12
3.35705e-12
3.71431e-12
4.10347e-12
4.5266e-12
4.98582e-12
5.4833e-12
6.0212e-12
6.60173e-12
7.22705e-12
7.89934e-12
8.6207e-12
9.39321e-12
1.02189e-11
1.10995e-11
1.20369e-11
1.30328e-11
1.40884e-11
1.52052e-11
1.63841e-11
1.7626e-11
1.89314e-11
2.03006e-11
2.17334e-11
2.32295e-11
2.47882e-11
2.64084e-11
2.80886e-11
2.98268e-11
3.16208e-11
3.34679e-11
3.53649e-11
3.73083e-11
3.92941e-11
4.13178e-11
4.33747e-11
4.54595e-11
4.75666e-11
4.96901e-11
5.18236e-11
5.39604e-11
5.60938e-11
5.82164e-11
6.03208e-11
6.23995e-11
6.44447e-11
6.64484e-11
6.84028e-11
7.02999e-11
7.21316e-11
7.38903e-11
7.55679e-11
7.7157e-11
7.865e-11
8.00398e-11
8.13195e-11
8.24824e-11
8.35225e-11
8.44338e-11
8.52112e-11
8.58496e-11
8.63449e-11
8.66933e-11
8.68916e-11
8.69373e-11
8.68285e-11
8.6564e-11
8.61433e-11
8.55666e-11
8.4835e-11
8.395e-11
8.29142e-11
8.17307e-11
8.04035e-11
7.89374e-11
7.73378e-11
7.56109e-11
7.37636e-11
7.18034e-11
6.97386e-11
6.75779e-11
6.53308e-11
6.30072e-11
6.06172e-11
5.81716e-11
5.56814e-11
5.31578e-11
5.06122e-11
4.80558e-11
4.55001e-11
4.29564e-11
4.04355e-11
3.79482e-11
3.55047e-11
3.31149e-11
3.07878e-11
2.85321e-11
2.63555e-11
2.4265e-11
2.22668e-11
2.03662e-11
1.85675e-11
1.68744e-11
1.52892e-11
1.38136e-11
1.24485e-11
1.11937e-11
1.00482e-11
9.01052e-12
8.07814e-12
7.24809e-12
6.51678e-12
5.88009e-12
5.33348e-12
4.87202e-12
4.49044e-12
4.18324e-12
3.94468e-12
3.76884e-12
3.64971e-12
3.58115e-12
3.557e-12
3.57106e-12
3.61717e-12
3.68921e-12
3.78113e-12
3.88705e-12
4.00125e-12
4.11824e-12
4.23281e-12
4.34012e-12
4.43571e-12
4.51559e-12
4.57632e-12
4.61499e-12
4.62935e-12
4.61779e-12
4.57937e-12
4.51382e-12
4.42156e-12
4.30362e-12
4.16163e-12
3.99774e-12
3.81455e-12
3.61501e-12
3.40232e-12
3.17986e-12
2.95105e-12
2.71925e-12
2.48771e-12
2.25944e-12
2.03717e-12
1.82329e-12
1.61979e-12
1.4283e-12
1.25e-12
1.08572e-12
9.35867e-13
8.00543e-13
6.79531e-13
5.72361e-13
4.78354e-13
3.9667e-13
3.26359e-13
2.66397e-13
2.15733e-13
1.73317e-13
1.3813e-13
1.09206e-13
8.56442e-14
6.6624e-14
5.14081e-14
3.93448e-14
2.98665e-14
2.2486e-14
1.67902e-14
1.24338e-14
9.13162e-15
6.65077e-15
4.80359e-15
3.44048e-15
2.44354e-15
1.7209e-15
1.20176e-15
8.32139e-16
5.71318e-16
3.88918e-16
2.62504e-16
1.75681e-16
1.16596e-16
7.67691e-17
5.01999e-17
3.26946e-17
2.13649e-17
1.4263e-17
1.0123e-17
8.18512e-18
2.57091e-15
2.61456e-15
2.7414e-15
2.95372e-15
3.25611e-15
3.65546e-15
4.16109e-15
4.7849e-15
5.54159e-15
6.44898e-15
7.52828e-15
8.80456e-15
1.03072e-14
1.20703e-14
1.41335e-14
1.65427e-14
1.93506e-14
2.26176e-14
2.64133e-14
3.0817e-14
3.59192e-14
4.18231e-14
4.86461e-14
5.65211e-14
6.55991e-14
7.60508e-14
8.80688e-14
1.0187e-13
1.177e-13
1.35831e-13
1.56574e-13
1.80271e-13
2.07307e-13
2.38113e-13
2.73166e-13
3.12995e-13
3.58191e-13
4.09402e-13
4.67349e-13
5.32821e-13
6.06689e-13
6.89908e-13
7.83522e-13
8.88669e-13
1.00659e-12
1.13864e-12
1.28628e-12
1.45108e-12
1.63476e-12
1.83914e-12
2.06618e-12
2.31799e-12
2.5968e-12
2.90498e-12
3.24506e-12
3.61968e-12
4.03164e-12
4.48387e-12
4.9794e-12
5.52142e-12
6.11321e-12
6.75815e-12
7.45971e-12
8.22142e-12
9.04687e-12
9.93967e-12
1.09035e-11
1.19418e-11
1.30583e-11
1.42564e-11
1.55395e-11
1.69108e-11
1.83733e-11
1.99298e-11
2.15828e-11
2.33346e-11
2.51871e-11
2.71418e-11
2.91998e-11
3.13615e-11
3.36272e-11
3.59964e-11
3.84681e-11
4.10405e-11
4.37114e-11
4.64779e-11
4.93363e-11
5.22823e-11
5.53108e-11
5.84161e-11
6.15916e-11
6.48303e-11
6.81242e-11
7.14648e-11
7.48429e-11
7.82488e-11
8.16721e-11
8.5102e-11
8.8527e-11
9.19355e-11
9.53153e-11
9.8654e-11
1.01939e-10
1.05157e-10
1.08297e-10
1.11344e-10
1.14285e-10
1.1711e-10
1.19804e-10
1.22356e-10
1.24754e-10
1.26987e-10
1.29044e-10
1.30914e-10
1.32589e-10
1.3406e-10
1.35317e-10
1.36355e-10
1.37167e-10
1.37748e-10
1.38092e-10
1.38197e-10
1.38059e-10
1.37679e-10
1.37054e-10
1.36187e-10
1.35079e-10
1.33732e-10
1.32152e-10
1.30343e-10
1.28311e-10
1.26065e-10
1.23612e-10
1.20962e-10
1.18125e-10
1.15113e-10
1.11939e-10
1.08614e-10
1.05154e-10
1.01573e-10
9.78855e-11
9.41081e-11
9.02567e-11
8.6348e-11
8.23985e-11
7.84251e-11
7.44446e-11
7.04736e-11
6.65285e-11
6.26253e-11
5.87794e-11
5.50055e-11
5.13177e-11
4.77291e-11
4.42518e-11
4.08969e-11
3.76742e-11
3.45924e-11
3.16591e-11
2.88801e-11
2.62604e-11
2.38034e-11
2.15112e-11
1.93847e-11
1.74235e-11
1.56261e-11
1.39899e-11
1.25113e-11
1.11858e-11
1.0008e-11
8.9719e-12
8.07077e-12
7.29742e-12
6.6442e-12
6.10314e-12
5.66595e-12
5.32419e-12
5.06924e-12
4.89242e-12
4.78503e-12
4.73835e-12
4.74374e-12
4.79266e-12
4.8767e-12
4.98764e-12
5.11751e-12
5.25863e-12
5.40367e-12
5.54574e-12
5.67844e-12
5.79592e-12
5.89301e-12
5.96522e-12
6.00884e-12
6.021e-12
5.99968e-12
5.94373e-12
5.8529e-12
5.72781e-12
5.56986e-12
5.38124e-12
5.16479e-12
4.92391e-12
4.66245e-12
4.38458e-12
4.09467e-12
3.79711e-12
3.49624e-12
3.19621e-12
2.90087e-12
2.61369e-12
2.33771e-12
2.07544e-12
1.82892e-12
1.59963e-12
1.38856e-12
1.19621e-12
1.02267e-12
8.67602e-13
7.30382e-13
6.10106e-13
5.05672e-13
4.15838e-13
3.39277e-13
2.74628e-13
2.20536e-13
1.75688e-13
1.38842e-13
1.08843e-13
8.46388e-14
6.52846e-14
4.99473e-14
3.79019e-14
2.85263e-14
2.12937e-14
1.57641e-14
1.1574e-14
8.42728e-15
6.08506e-15
4.35719e-15
3.09385e-15
2.17838e-15
1.52089e-15
1.05288e-15
7.22725e-16
4.9189e-16
3.31943e-16
2.22114e-16
1.47388e-16
9.7027e-17
6.34368e-17
4.13094e-17
2.69903e-17
1.80158e-17
1.27848e-17
1.03363e-17
4.69191e-15
4.77155e-15
5.00299e-15
5.39042e-15
5.94221e-15
6.67095e-15
7.59364e-15
8.73201e-15
1.01129e-14
1.17688e-14
1.37385e-14
1.60677e-14
1.881e-14
2.20277e-14
2.57933e-14
3.01902e-14
3.53147e-14
4.12773e-14
4.82046e-14
5.62413e-14
6.55526e-14
7.63266e-14
8.87773e-14
1.03147e-13
1.19711e-13
1.3878e-13
1.60705e-13
1.85881e-13
2.14754e-13
2.47822e-13
2.85645e-13
3.2885e-13
3.78136e-13
4.34281e-13
4.98153e-13
5.70714e-13
6.53028e-13
7.46275e-13
8.51752e-13
9.70891e-13
1.10526e-12
1.25658e-12
1.42674e-12
1.61777e-12
1.83192e-12
2.0716e-12
2.33943e-12
2.63823e-12
2.97105e-12
3.34114e-12
3.75199e-12
4.20732e-12
4.71109e-12
5.26748e-12
5.88092e-12
6.55606e-12
7.29778e-12
8.11117e-12
9.00151e-12
9.97428e-12
1.10351e-11
1.21898e-11
1.34442e-11
1.48043e-11
1.62761e-11
1.78656e-11
1.95789e-11
2.14216e-11
2.33996e-11
2.55184e-11
2.77832e-11
3.01989e-11
3.277e-11
3.55006e-11
3.83941e-11
4.14535e-11
4.46808e-11
4.80775e-11
5.16443e-11
5.53808e-11
5.92858e-11
6.33571e-11
6.75913e-11
7.19839e-11
7.65296e-11
8.12214e-11
8.60514e-11
9.10106e-11
9.60885e-11
1.01274e-10
1.06553e-10
1.11914e-10
1.1734e-10
1.22815e-10
1.28324e-10
1.33848e-10
1.39368e-10
1.44866e-10
1.50321e-10
1.55713e-10
1.61021e-10
1.66224e-10
1.71302e-10
1.76233e-10
1.80997e-10
1.85572e-10
1.8994e-10
1.94079e-10
1.97972e-10
2.016e-10
2.04946e-10
2.07994e-10
2.10729e-10
2.13137e-10
2.15206e-10
2.16925e-10
2.18283e-10
2.19274e-10
2.1989e-10
2.20126e-10
2.1998e-10
2.1945e-10
2.18536e-10
2.1724e-10
2.15565e-10
2.13517e-10
2.11103e-10
2.08331e-10
2.05211e-10
2.01756e-10
1.97979e-10
1.93895e-10
1.89519e-10
1.8487e-10
1.79966e-10
1.74827e-10
1.69475e-10
1.63931e-10
1.58218e-10
1.52361e-10
1.46382e-10
1.40307e-10
1.34161e-10
1.27968e-10
1.21754e-10
1.15543e-10
1.0936e-10
1.03229e-10
9.7173e-11
9.1214e-11
8.53736e-11
7.96717e-11
7.41272e-11
6.87573e-11
6.35777e-11
5.86023e-11
5.38433e-11
4.9311e-11
4.50138e-11
4.09583e-11
3.71491e-11
3.35888e-11
3.02784e-11
2.72171e-11
2.44023e-11
2.18299e-11
1.94943e-11
1.73888e-11
1.55054e-11
1.38349e-11
1.23676e-11
1.10928e-11
9.99925e-12
9.07529e-12
8.30886e-12
7.68771e-12
7.1994e-12
6.83146e-12
6.57142e-12
6.40688e-12
6.32557e-12
6.31542e-12
6.36459e-12
6.46152e-12
6.59499e-12
6.75418e-12
6.92876e-12
7.10892e-12
7.28548e-12
7.44997e-12
7.59471e-12
7.71291e-12
7.79875e-12
7.84744e-12
7.8553e-12
7.81977e-12
7.73948e-12
7.61418e-12
7.44477e-12
7.23317e-12
6.9823e-12
6.69592e-12
6.3785e-12
6.03508e-12
5.67108e-12
5.29216e-12
4.90402e-12
4.51226e-12
4.12221e-12
3.7388e-12
3.36647e-12
3.00909e-12
2.66985e-12
2.35131e-12
2.05533e-12
1.78312e-12
1.53527e-12
1.31183e-12
1.11234e-12
9.35943e-13
7.81433e-13
6.47365e-13
5.32114e-13
4.33952e-13
3.51111e-13
2.81837e-13
2.24433e-13
1.77295e-13
1.38935e-13
1.08e-13
8.32742e-14
6.3689e-14
4.83139e-14
3.63513e-14
2.71266e-14
2.00764e-14
1.47361e-14
1.07267e-14
7.74342e-15
5.54328e-15
3.93512e-15
2.77009e-15
1.93359e-15
1.33831e-15
9.18467e-16
6.24995e-16
4.21691e-16
2.82118e-16
1.87174e-16
1.232e-16
8.05367e-17
5.24371e-17
3.42559e-17
2.28622e-17
1.62218e-17
1.31139e-17
8.47389e-15
8.61772e-15
9.03572e-15
9.73547e-15
1.07321e-14
1.20483e-14
1.37149e-14
1.57712e-14
1.82655e-14
2.12568e-14
2.4815e-14
2.90227e-14
3.39768e-14
3.979e-14
4.65932e-14
5.45371e-14
6.37958e-14
7.45689e-14
8.7085e-14
1.01606e-13
1.1843e-13
1.37896e-13
1.60391e-13
1.86354e-13
2.16279e-13
2.50729e-13
2.90336e-13
3.35814e-13
3.87964e-13
4.47686e-13
5.1599e-13
5.94002e-13
6.82982e-13
7.8433e-13
8.99605e-13
1.03054e-12
1.17904e-12
1.34722e-12
1.53741e-12
1.75217e-12
1.99432e-12
2.26692e-12
2.57334e-12
2.91722e-12
3.30255e-12
3.73363e-12
4.21509e-12
4.75196e-12
5.34961e-12
6.01379e-12
6.75066e-12
7.56676e-12
8.46902e-12
9.46478e-12
1.05618e-11
1.1768e-11
1.30921e-11
1.45427e-11
1.61289e-11
1.78601e-11
1.9746e-11
2.17963e-11
2.40209e-11
2.64299e-11
2.90331e-11
3.18405e-11
3.48619e-11
3.81065e-11
4.15836e-11
4.53017e-11
4.92689e-11
5.34924e-11
5.79788e-11
6.27336e-11
6.77612e-11
7.30649e-11
7.86467e-11
8.45071e-11
9.06451e-11
9.7058e-11
1.03741e-10
1.10689e-10
1.17892e-10
1.25342e-10
1.33025e-10
1.40928e-10
1.49034e-10
1.57325e-10
1.65781e-10
1.7438e-10
1.83098e-10
1.91908e-10
2.00784e-10
2.09696e-10
2.18614e-10
2.27506e-10
2.36339e-10
2.45081e-10
2.53697e-10
2.62152e-10
2.70412e-10
2.78442e-10
2.86208e-10
2.93675e-10
3.00812e-10
3.07585e-10
3.13964e-10
3.1992e-10
3.25423e-10
3.30449e-10
3.34973e-10
3.38972e-10
3.42428e-10
3.45322e-10
3.4764e-10
3.49368e-10
3.50499e-10
3.51023e-10
3.50938e-10
3.50241e-10
3.48933e-10
3.47019e-10
3.44504e-10
3.41399e-10
3.37715e-10
3.33466e-10
3.28669e-10
3.23343e-10
3.17511e-10
3.11194e-10
3.04421e-10
2.97217e-10
2.89612e-10
2.81637e-10
2.73326e-10
2.6471e-10
2.55826e-10
2.4671e-10
2.37397e-10
2.27925e-10
2.18331e-10
2.08654e-10
1.98931e-10
1.89198e-10
1.79493e-10
1.69852e-10
1.6031e-10
1.50899e-10