/*--------------------------------*- C++ -*----------------------------------*\
| =========                 |                                                 |
| \\      /  F ield         | OpenFOAM: The Open Source CFD Toolbox           |
|  \\    /   O peration     | Version:  v2012                                 |
|   \\  /    A nd           | Website:  www.openfoam.com                      |
|    \\/     M anipulation  |                                                 |
\*---------------------------------------------------------------------------*/
FoamFile
{
    version     2.0;
    format      ascii;
    class       volVectorField;
    location    "0";
    object      U;
}
// * * * * * * * * * * * * * * * * * * * * * * * * * * * * * * * * * * * * * //

dimensions      [0 1 -1 0 0 0 0];


internalField   nonuniform List<vector> 
4000
(
(0.00739996 0.0408817 0)
(-0.0558906 0.0606468 0)
(-0.0314208 -0.0107311 0)
(0.00990328 -0.0959032 0)
(0.008143 -0.00807575 0)
(0.351563 -0.082713 0)
(0.14942 0.0639138 0)
(-0.00433028 0.11238 0)
(-0.136739 0.066533 0)
(-0.195993 -0.0689539 0)
(-0.148755 -0.149171 0)
(0.211393 0.0649515 0)
(-0.0956483 0.0882331 0)
(0.0143014 -0.014869 0)
(0.185344 -0.0407037 0)
(-0.0496444 -0.0880721 0)
(0.094215 -0.0258629 0)
(0.0116983 0.0534874 0)
(-0.0101308 0.0604051 0)
(0.0184043 -0.0467651 0)
(-0.0419368 0.0244379 0)
(-0.0163455 0.0446359 0)
(-0.00119367 -0.0291292 0)
(-0.0494952 0.0144676 0)
(0.0339294 -0.00417875 0)
(0.0342325 0.0218715 0)
(-0.0274182 -0.101448 0)
(0.0188462 -0.0252271 0)
(-0.0415072 0.0836359 0)
(0.145813 0.124849 0)
(0.0725078 -0.0202974 0)
(-0.0821981 -0.0597204 0)
(-0.0060242 -0.129686 0)
(0.112024 0.0630947 0)
(-0.0565485 0.115832 0)
(-0.0407073 -0.0747179 0)
(-0.0924912 -0.0147629 0)
(0.0733927 -0.0115781 0)
(-0.058557 0.0804871 0)
(-0.132623 0.00619233 0)
(-0.0834607 -0.0227223 0)
(-0.0211282 0.0266743 0)
(0.0295263 0.0591919 0)
(-0.166476 0.0499017 0)
(-0.103891 -0.151365 0)
(0.172639 -0.0463548 0)
(-0.0633086 0.109734 0)
(-0.0726289 -0.0745642 0)
(0.0404837 -0.102491 0)
(0.257203 0.0237165 0)
(-0.0593783 0.0697591 0)
(-0.0588996 0.0289575 0)
(-0.0325261 -0.000834154 0)
(0.022019 -0.0175179 0)
(0.0394284 -0.0472128 0)
(-0.037302 0.0403171 0)
(-0.0257892 0.0116484 0)
(0.0130213 -0.0669042 0)
(-0.0210237 0.0293141 0)
(0.043355 0.11523 0)
(-0.0166913 -0.0463684 0)
(-0.00977313 0.0186922 0)
(-0.00497433 -0.0653393 0)
(0.0490819 -0.0885398 0)
(0.0486461 0.0783772 0)
(-0.0993203 -0.0349949 0)
(0.168623 -0.0634878 0)
(-0.022921 0.11727 0)
(-0.0347759 0.0706489 0)
(-0.0173539 -0.0863807 0)
(0.0650794 -0.0435351 0)
(-0.136884 0.0320436 0)
(-0.0947803 0.096006 0)
(-0.110555 0.0444881 0)
(-0.0104137 -0.0527508 0)
(-0.0882278 -0.102586 0)
(0.321006 0.042695 0)
(-0.223269 0.0695629 0)
(0.00289536 -0.0663011 0)
(0.00410598 -0.0681425 0)
(0.0178346 -0.0213301 0)
(0.149043 0.116541 0)
(-0.0992533 -0.0332198 0)
(0.31317 -0.0985948 0)
(0.051748 0.0286206 0)
(-0.0583109 0.081368 0)
(-0.123373 0.0740736 0)
(-0.124398 0.0134676 0)
(-0.156252 -0.0488862 0)
(-0.0110831 0.0084166 0)
(-0.0432958 -0.0276768 0)
(0.103279 -0.0750189 0)
(-0.00307095 0.0522947 0)
(-0.0283492 0.0492523 0)
(0.0587171 -0.0362071 0)
(0.0851672 0.0187324 0)
(-0.00957501 0.0147757 0)
(-0.0455972 -0.0151874 0)
(0.0386172 -0.038923 0)
(0.0308863 0.0136014 0)
(-0.0236604 0.0327687 0)
(0.067208 0.0692671 0)
(-0.0960344 0.080396 0)
(0.00109164 -0.0862258 0)
(0.0025592 -0.160906 0)
(0.0605024 -0.0455801 0)
(-0.0562087 0.0726417 0)
(-0.00974749 0.150778 0)
(-0.0154424 0.0878082 0)
(0.281903 -0.07483 0)
(-0.084498 -0.150773 0)
(-0.0436827 0.0505175 0)
(0.020379 0.12041 0)
(-0.0340836 -0.0785541 0)
(-0.00527174 -0.11678 0)
(0.0338431 0.0515334 0)
(-0.0597672 0.000131481 0)
(-0.139625 -0.0126255 0)
(-0.0901576 -0.0147007 0)
(0.147725 0.00193828 0)
(-0.0119375 0.0121861 0)
(0.0898958 0.107565 0)
(-0.0745283 0.00798802 0)
(0.00717606 -0.102619 0)
(0.0789831 -0.0349101 0)
(0.106042 0.090095 0)
(-0.119165 0.00177458 0)
(-0.0876757 -0.124136 0)
(0.105356 0.0277248 0)
(0.11818 0.0731855 0)
(0.0793542 0.0242574 0)
(-0.0653318 0.0559068 0)
(-0.036404 -0.0564189 0)
(-0.0577287 0.0588165 0)
(-0.043565 0.0505732 0)
(-0.144424 -0.133811 0)
(-0.122793 0.0135564 0)
(-0.069334 -0.0379322 0)
(0.0297559 0.122844 0)
(-0.0245 0.0512241 0)
(0.0105312 -0.0404022 0)
(0.0129445 -0.0318285 0)
(0.116013 -0.0871631 0)
(0.0774948 -0.0120443 0)
(0.0769293 -0.0375488 0)
(0.032033 0.0259044 0)
(-0.0121708 0.0908428 0)
(-0.000193846 -0.023736 0)
(-0.0688478 -0.164826 0)
(-0.12515 0.066536 0)
(-0.0723415 0.0819914 0)
(-0.0974439 -0.0662753 0)
(0.0370024 0.00816416 0)
(0.14997 0.0435211 0)
(-0.0049843 0.0239374 0)
(-0.0915994 -0.0396217 0)
(-0.0233974 -0.0257997 0)
(-0.0495943 0.0592633 0)
(-0.184984 -0.00713006 0)
(0.0542661 -0.068663 0)
(-0.0339235 -0.0320188 0)
(-0.0354555 0.00942035 0)
(-0.000293849 -0.0440244 0)
(-0.0904092 0.0330527 0)
(-0.00619913 0.0522602 0)
(0.085838 0.00692849 0)
(-0.107236 -0.0590814 0)
(-0.127465 0.0849201 0)
(0.0714977 -0.0401508 0)
(-0.0787643 -0.101712 0)
(-0.0596076 0.066847 0)
(-0.14104 0.0899156 0)
(0.0858135 -0.0369799 0)
(0.104982 -0.0012132 0)
(-0.00430886 -0.00721012 0)
(-0.026642 -0.0674022 0)
(-0.00663742 0.0276652 0)
(-0.0239799 0.0873946 0)
(-0.0415154 -0.0688 0)
(-0.179548 0.0221541 0)
(-0.047948 -0.0967361 0)
(0.128543 0.0318622 0)
(-0.0208883 0.0842557 0)
(0.0419449 -0.0974442 0)
(-0.123401 -0.0129988 0)
(-0.144674 0.0385287 0)
(0.0945993 0.0681525 0)
(0.0727618 0.0564507 0)
(0.0329754 0.0329023 0)
(0.00831393 -0.0927876 0)
(-0.0230489 -0.136024 0)
(-0.0204178 -0.0328901 0)
(-0.140729 0.108874 0)
(0.0137663 0.0460621 0)
(0.0277451 -0.0569714 0)
(-0.06731 0.0449288 0)
(-0.0306907 0.00209757 0)
(0.00836349 -0.0593302 0)
(-0.00762344 -0.0452058 0)
(-0.0204359 0.00488102 0)
(-0.000486643 0.00160574 0)
(-0.00157157 0.0357571 0)
(0.00667048 0.0893051 0)
(-0.00698977 0.0187924 0)
(-0.00255411 -0.148956 0)
(-0.0203407 -0.0410916 0)
(-0.00541865 0.153797 0)
(-0.00370045 0.0750427 0)
(-0.0659669 -0.181848 0)
(0.207355 -0.00715421 0)
(-0.0258157 0.0131588 0)
(-0.0520885 0.0058832 0)
(-0.0551053 0.0689805 0)
(-0.00506456 -0.0411915 0)
(0.00454645 -0.0768447 0)
(0.0228103 0.0133411 0)
(0.0541182 0.0837467 0)
(0.0329664 -0.0313711 0)
(-0.106746 -0.0655669 0)
(-0.078665 0.0147375 0)
(0.0473201 0.017803 0)
(-0.0354686 0.144896 0)
(-0.0467841 -0.0196369 0)
(-0.0591154 -0.0972313 0)
(0.0288781 0.0821092 0)
(0.0152846 0.0845394 0)
(-0.0739246 -0.128159 0)
(0.121862 -0.170867 0)
(0.0767616 0.0220894 0)
(-0.0117387 0.129908 0)
(-0.231684 0.0147704 0)
(0.00998887 -0.06918 0)
(0.0526747 0.053817 0)
(-0.101541 0.132034 0)
(0.0305129 -0.0793731 0)
(-0.00824804 -0.0996644 0)
(-0.0268794 -0.0434924 0)
(0.15151 -0.0191888 0)
(-0.160908 0.00472675 0)
(-0.0433749 0.0841326 0)
(0.260809 -0.115526 0)
(0.186571 -0.0257445 0)
(-0.127367 0.0271836 0)
(-0.078247 -0.0243518 0)
(-0.162612 -0.0523752 0)
(0.0480671 0.0165468 0)
(0.290894 0.0762078 0)
(-0.109418 0.0269874 0)
(-0.0629535 -0.127583 0)
(-0.056535 0.0831804 0)
(0.00872707 0.106481 0)
(-0.000916113 -0.0658713 0)
(0.0994862 -0.0799496 0)
(0.212461 0.0196558 0)
(0.0733124 0.00682144 0)
(0.0612452 -0.0671749 0)
(0.0285977 0.0589764 0)
(0.00338926 0.106539 0)
(0.0113499 0.0169246 0)
(0.00544643 -0.0842286 0)
(0.0326519 -0.0528527 0)
(-0.0512641 -0.0305824 0)
(-0.0909889 -0.000321999 0)
(-0.0315903 0.0496332 0)
(-0.0491454 -0.0698608 0)
(0.0795006 -0.0802222 0)
(-0.0231269 0.123889 0)
(0.142047 0.106527 0)
(0.0740504 -0.054402 0)
(-0.10499 0.0568708 0)
(-0.0330693 0.0150807 0)
(-0.0608759 0.00611356 0)
(0.0509147 -0.0610245 0)
(-0.0688244 -0.0358687 0)
(0.0165729 -0.0292838 0)
(0.123146 -0.0134451 0)
(-0.102019 0.121894 0)
(-0.0704879 0.136001 0)
(-0.0453353 -0.020249 0)
(-0.0712789 -0.112479 0)
(0.0220054 -0.11258 0)
(0.04784 0.0432113 0)
(-0.038944 0.0282909 0)
(0.0365498 -0.0514194 0)
(0.0489257 0.0403522 0)
(-0.163073 0.00128876 0)
(-0.108314 -0.0841145 0)
(0.0573335 0.0511943 0)
(0.00343551 0.0714163 0)
(-0.0111719 -0.0508907 0)
(0.126288 0.00284345 0)
(-0.0343606 -0.0594359 0)
(0.0408893 0.0242902 0)
(0.0251406 0.0893196 0)
(-0.03328 -0.0532445 0)
(0.0399909 -0.0298761 0)
(0.0610104 0.0684096 0)
(0.213476 -0.0821637 0)
(0.0551258 -0.00465819 0)
(-0.0547716 0.0165952 0)
(0.00101404 0.00557764 0)
(0.00187637 0.0633883 0)
(7.29454e-05 0.119783 0)
(-0.0278643 0.0305441 0)
(0.0505841 -0.251113 0)
(0.0192398 -0.265822 0)
(0.016135 0.273295 0)
(0.0750247 0.284725 0)
(0.0691916 -0.142532 0)
(-0.143757 -0.0600571 0)
(-0.0142604 -0.0230532 0)
(-0.0406125 -0.0161337 0)
(-0.10416 0.0611657 0)
(-0.0151208 -0.10431 0)
(0.00642719 -0.0381525 0)
(0.0339462 -0.024701 0)
(0.0123382 0.0346605 0)
(0.00257438 -0.0266279 0)
(-0.133618 0.083588 0)
(-0.112526 -0.108022 0)
(0.156633 -0.0739289 0)
(-0.0698882 0.304427 0)
(0.191521 -0.0465818 0)
(-0.0279302 -0.07917 0)
(-0.090999 0.149742 0)
(0.0449567 0.144784 0)
(0.0476941 -0.169637 0)
(-0.0293172 -0.239591 0)
(-0.0724837 0.00822808 0)
(0.152304 0.288755 0)
(-0.0130505 0.0510307 0)
(0.0245144 -0.166861 0)
(0.0292517 -0.053999 0)
(-0.0251944 0.164641 0)
(-0.0555926 0.0757304 0)
(-0.0666052 0.000272086 0)
(0.0842514 -0.18345 0)
(-0.0143757 0.0534207 0)
(0.00484378 0.0592202 0)
(0.000617981 -0.0658326 0)
(-0.0826106 -0.125256 0)
(-0.171836 0.0591791 0)
(-0.0312258 0.123672 0)
(0.0348836 -0.0985722 0)
(-0.0083204 -0.0758786 0)
(-0.0070184 0.0430188 0)
(-0.00171086 -0.00214168 0)
(-0.0442145 0.0676349 0)
(0.0180161 -0.0229353 0)
(-0.0666642 0.0167871 0)
(0.0770125 0.126115 0)
(-0.00667307 -0.120751 0)
(-0.0249924 -0.156836 0)
(-0.0274452 -0.00561089 0)
(0.0186397 0.224998 0)
(-0.177897 0.110096 0)
(-0.166666 -0.11626 0)
(-0.0353647 -0.0622915 0)
(0.0251112 0.0299076 0)
(0.227379 0.0494785 0)
(-0.132508 0.0134946 0)
(-0.0162453 -0.0193231 0)
(0.0462088 -0.0810509 0)
(0.0670786 -0.0389327 0)
(0.0543638 -0.0735087 0)
(-0.0199239 -0.0835377 0)
(-0.077415 0.0595948 0)
(0.100377 0.0844208 0)
(-0.0573184 -0.020376 0)
(-0.0244366 0.114947 0)
(0.0476503 0.0100085 0)
(0.135307 -0.113027 0)
(-0.0456993 0.0590674 0)
(-0.110975 0.0875456 0)
(0.034788 -0.180568 0)
(0.0417695 -0.0333935 0)
(-0.0757891 0.234186 0)
(-0.068574 0.0193389 0)
(0.214784 -0.0746234 0)
(-0.0930679 -0.00773332 0)
(-0.103519 -0.0752743 0)
(-0.032937 0.0323743 0)
(-0.0345086 -0.0857191 0)
(0.158082 -0.0539696 0)
(0.0175108 0.138873 0)
(-0.0361013 0.111684 0)
(-0.0273247 -0.109047 0)
(-0.0118644 -0.0170937 0)
(-0.0514577 0.0308183 0)
(0.0404943 -0.0170194 0)
(0.0280666 -0.0450945 0)
(0.0884876 -0.0177973 0)
(-0.0821363 0.0212437 0)
(0.0941417 0.0640925 0)
(0.0582318 0.0558988 0)
(-0.0294693 -0.00993242 0)
(0.0246208 -0.132182 0)
(0.0865135 -0.132102 0)
(0.168499 0.0979521 0)
(0.055906 0.0926527 0)
(0.000690763 -0.00244508 0)
(-0.00466014 0.038757 0)
(0.225276 0.081285 0)
(0.0641066 0.0142817 0)
(-0.0611431 -0.113155 0)
(-0.0737374 -0.10245 0)
(0.0679088 0.0110047 0)
(0.0282398 0.159092 0)
(0.109338 0.0557504 0)
(-0.084443 -0.0373424 0)
(0.00820618 0.00599628 0)
(0.094409 -0.0128808 0)
(-0.0155973 -0.0141785 0)
(-0.0386825 -0.152592 0)
(-0.00489061 0.015618 0)
(-0.0129387 0.100612 0)
(0.0242362 0.0737605 0)
(-0.109591 -0.0349798 0)
(-0.00483465 -0.0205271 0)
(0.196863 0.0219077 0)
(-0.301809 -0.0751832 0)
(-0.15119 -0.00961946 0)
(0.0452761 -0.0543088 0)
(-0.235618 0.133953 0)
(0.121453 0.120164 0)
(0.298195 -0.176846 0)
(0.19169 -0.0211971 0)
(-0.01563 0.025086 0)
(-0.0488791 -0.0327123 0)
(0.0116284 0.0199808 0)
(0.0359257 0.157496 0)
(0.0582319 -0.0241037 0)
(0.0435536 -0.0231927 0)
(-0.132269 0.170576 0)
(-0.0238901 0.0075883 0)
(-0.0486321 -0.0945882 0)
(0.074304 -0.198791 0)
(0.0445719 -0.0550533 0)
(0.0308802 0.0661034 0)
(0.0224446 0.110031 0)
(-0.0106242 0.0884006 0)
(-0.00995868 -0.113058 0)
(0.0148403 -0.0772799 0)
(0.079544 0.0425026 0)
(-0.0657556 -0.0455457 0)
(-0.0964341 0.00606797 0)
(-0.0454215 0.0230227 0)
(-0.181359 0.10557 0)
(-0.161536 -0.0474772 0)
(0.0751021 -0.0270112 0)
(0.027669 0.0681625 0)
(-0.0996308 -0.099146 0)
(-0.104649 -0.0364169 0)
(-0.148697 0.0255829 0)
(-0.0251486 0.116166 0)
(0.236899 0.0478215 0)
(0.0390725 -0.0949004 0)
(0.00218882 0.0113872 0)
(0.0523847 0.00531762 0)
(-0.0211295 -0.0841437 0)
(0.0541794 0.040397 0)
(-0.012126 -0.00472833 0)
(-0.022249 -0.11739 0)
(0.021946 0.00808906 0)
(0.0060928 -0.0213168 0)
(0.0218901 -0.0860829 0)
(-0.0341423 0.0860867 0)
(0.000997218 0.0449949 0)
(-0.0466508 -0.0328153 0)
(0.0916273 0.0685345 0)
(-0.0716274 0.0151607 0)
(-0.0394298 0.00580086 0)
(-0.0555137 0.0551657 0)
(-0.0314027 -0.0850816 0)
(0.284194 -0.13983 0)
(0.0224166 0.121929 0)
(-0.171577 0.216183 0)
(0.0623311 -0.0705694 0)
(-0.109445 -0.0969558 0)
(0.0353861 0.125722 0)
(0.0684972 0.0022044 0)
(-0.00947678 -0.117822 0)
(0.000757033 -0.146151 0)
(0.0565629 -0.0122432 0)
(0.0319129 0.200108 0)
(-0.074249 -0.00274662 0)
(-0.0484172 -0.0784518 0)
(-0.134881 0.0636566 0)
(0.0588778 0.0334047 0)
(-0.0635125 -0.0236322 0)
(0.00150391 -0.122774 0)
(0.0330542 -0.0581212 0)
(0.0509435 0.0468916 0)
(-0.0196262 -0.00853005 0)
(-0.073073 0.038339 0)
(0.0498198 0.0416242 0)
(0.0126721 -0.144489 0)
(-0.0563075 -0.0967498 0)
(-0.0135958 0.0309314 0)
(0.0673799 0.0515636 0)
(-0.00436785 0.00465804 0)
(0.00140933 -0.0476302 0)
(-0.0393984 0.0871778 0)
(0.0796434 0.121947 0)
(-0.00361124 -0.109445 0)
(-0.0172346 -0.178332 0)
(0.0365019 -0.083233 0)
(0.0208778 0.0602833 0)
(0.191353 0.0967572 0)
(-0.0417709 0.0703407 0)
(-0.0667191 -0.0059091 0)
(0.0377747 -0.111347 0)
(-0.0379011 -0.00714942 0)
(0.018538 0.0629686 0)
(-0.229481 0.0711492 0)
(-0.00348865 -0.0628507 0)
(0.00394347 -0.00656814 0)
(0.00280117 0.0540216 0)
(-0.0256314 -0.146088 0)
(0.0595516 0.111207 0)
(-0.0405733 0.120942 0)
(0.00272437 -0.279494 0)
(0.049748 0.0160933 0)
(-0.179552 0.101849 0)
(0.125205 -0.0669156 0)
(-0.0653526 -0.0064322 0)
(-0.122393 0.0452959 0)
(0.045393 -0.0635988 0)
(-0.0153476 0.00531694 0)
(0.062271 0.0708765 0)
(-0.0198714 0.205713 0)
(0.0410298 0.00633711 0)
(-0.00888426 0.041132 0)
(-0.0813064 0.0929717 0)
(0.0752188 -0.0602322 0)
(-0.00461454 -0.125564 0)
(-0.012567 -0.0295734 0)
(-0.134705 -0.040153 0)
(-0.226837 -0.0948931 0)
(0.109544 0.066722 0)
(0.0166378 0.102348 0)
(0.150409 -0.11253 0)
(-0.0108561 -0.123184 0)
(-0.00948319 0.13073 0)
(-0.00912523 0.0474037 0)
(-0.105394 -0.0875047 0)
(0.0240297 0.0316971 0)
(-0.0659876 0.049864 0)
(-0.0636926 -0.152337 0)
(0.000758771 -0.0419928 0)
(-0.00775592 0.166552 0)
(0.0190114 0.0515053 0)
(-0.0222463 -0.191811 0)
(-0.0249198 1.73556e-05 0)
(-0.0233167 0.0704452 0)
(-0.0316937 0.0591369 0)
(-0.00179574 -0.0311273 0)
(-0.00180279 -0.040091 0)
(0.110337 0.109326 0)
(-0.0215739 0.0351975 0)
(-0.0228354 -0.103897 0)
(-0.0199594 -0.0299559 0)
(0.0539303 -0.0460805 0)
(-0.0119803 -0.0223728 0)
(0.0711391 -0.0067955 0)
(-0.0937015 -0.078302 0)
(-0.0565377 0.0448603 0)
(0.0541091 -0.0450828 0)
(0.0129122 0.0432924 0)
(0.0925086 0.11024 0)
(-0.0557129 0.0438619 0)
(-0.0452326 -0.0199154 0)
(0.0266265 0.100141 0)
(0.0298667 -0.15726 0)
(0.0913255 -0.19631 0)
(-0.119555 0.190232 0)
(0.0562657 0.256164 0)
(0.0146564 -0.0234697 0)
(-0.00432858 -0.137368 0)
(-0.120197 -0.055409 0)
(0.177792 -0.0123667 0)
(0.149987 -0.0548551 0)
(0.00336176 -0.058576 0)
(-0.196932 -0.0713151 0)
(0.0824494 0.146114 0)
(0.051852 0.104449 0)
(0.0597923 -0.00797273 0)
(-0.0449206 -0.0402515 0)
(0.0235208 -0.0156737 0)
(-0.029252 0.00870035 0)
(-0.0407322 0.00419109 0)
(0.0456198 -0.13139 0)
(-0.093703 0.089964 0)
(-0.0414251 0.12564 0)
(-0.0441419 -0.080699 0)
(-0.020822 -0.0354118 0)
(-0.0472919 -0.0166881 0)
(-0.019957 -0.0539544 0)
(-0.127851 0.00932556 0)
(-0.0431825 -4.86126e-05 0)
(0.00298196 -0.020588 0)
(0.00043365 0.00979753 0)
(0.00212717 -0.0321452 0)
(0.0206693 -0.0135505 0)
(-0.0199486 0.0786422 0)
(0.00334779 -0.117038 0)
(-0.0249663 -0.111732 0)
(-0.00742388 0.120235 0)
(-0.0354848 0.0778046 0)
(-0.050121 0.0458575 0)
(0.0347257 0.0416326 0)
(0.0302784 -0.138792 0)
(-0.0167195 0.0253809 0)
(0.0144317 0.0262487 0)
(-0.0515178 -0.0721405 0)
(-0.0763185 0.0274488 0)
(0.0446181 -0.0809236 0)
(-0.00477276 0.0663376 0)
(-0.00385063 0.0936589 0)
(0.0031048 -0.104088 0)
(-0.0600567 -0.118595 0)
(0.032658 -0.118944 0)
(0.125025 0.280514 0)
(-0.181874 0.192638 0)
(-0.152527 -0.238916 0)
(-0.015027 -0.0449718 0)
(0.0313988 0.122182 0)
(0.0359087 -0.0515105 0)
(-0.0425892 -0.109236 0)
(-0.0642512 0.0566949 0)
(0.0351206 0.108065 0)
(0.153245 0.0829275 0)
(0.00137142 0.0919282 0)
(-0.021613 0.0178578 0)
(-0.0274211 -0.051433 0)
(0.202062 0.0483424 0)
(0.0555249 0.0547156 0)
(0.0339429 -0.0850276 0)
(-0.0905945 -0.0670947 0)
(0.107888 -0.0128318 0)
(-0.0757597 -0.0680822 0)
(-0.175363 -0.0216368 0)
(-0.121875 0.0519628 0)
(-0.184469 -0.0573918 0)
(0.0652205 0.0639006 0)
(0.264011 0.062033 0)
(-0.0938362 -0.0426028 0)
(-0.0382221 -0.119197 0)
(-0.0055393 -0.0473502 0)
(-0.226568 0.0898943 0)
(0.00478462 0.0154188 0)
(0.226898 -0.0712036 0)
(-0.18563 -0.0238102 0)
(-0.166839 0.0444483 0)
(0.00812809 0.0899748 0)
(-0.0767646 -0.0114801 0)
(0.0346317 -0.0540071 0)
(-0.079672 -0.082783 0)
(0.0336376 0.136917 0)
(0.0528689 0.063377 0)
(0.0336503 0.00251028 0)
(-0.233233 -0.0954273 0)
(0.00618267 -0.174453 0)
(0.0521348 -0.133582 0)
(0.0249572 0.0364112 0)
(0.182306 0.125939 0)
(-0.0389785 -0.0894364 0)
(0.0181344 -0.0820004 0)
(-0.00939493 -0.0301125 0)
(0.0624448 0.118226 0)
(0.0229957 0.182768 0)
(0.020505 -0.0131038 0)
(0.0221098 0.0110271 0)
(0.0225759 -0.0438522 0)
(-0.0493337 -0.16278 0)
(-0.0276678 0.12585 0)
(0.0687765 0.234308 0)
(0.0054617 -0.0271772 0)
(-0.150339 -0.133572 0)
(0.0276731 -0.151645 0)
(0.0998441 0.0344095 0)
(-0.00562089 0.107475 0)
(-0.0162586 -0.058358 0)
(-0.0122402 -0.132295 0)
(0.007145 -0.00146188 0)
(-0.0683591 0.112882 0)
(-0.0357192 -0.0147387 0)
(0.13237 -0.0143372 0)
(0.000521485 0.0375741 0)
(-0.136882 0.0110615 0)
(0.125679 -0.0479312 0)
(-0.101079 -0.111255 0)
(0.0916373 0.0802235 0)
(-0.0642064 0.153149 0)
(0.00407314 -0.0866728 0)
(0.0737001 -0.0863329 0)
(-0.0308435 -0.0277332 0)
(-0.0190283 0.0111974 0)
(-0.0800222 0.0224227 0)
(0.154297 -0.0448256 0)
(0.00865442 0.00395647 0)
(-0.00302319 -0.00210282 0)
(-0.043686 -0.0977775 0)
(-0.194766 -0.0897965 0)
(-0.0111405 0.189108 0)
(0.00979761 -0.00528756 0)
(0.0253974 -0.047927 0)
(-0.0759038 -0.0242613 0)
(0.0558075 0.118186 0)
(0.0945923 0.108868 0)
(0.0944048 0.0125914 0)
(0.0705258 -0.0808301 0)
(0.0323469 0.0289909 0)
(0.0649281 0.0156339 0)
(0.0132615 -0.132484 0)
(0.120852 0.073408 0)
(-0.0499246 -0.0440673 0)
(-0.0683774 -0.0106951 0)
(0.0413231 0.147941 0)
(-0.0328822 -0.204228 0)
(0.00835201 -0.156656 0)
(-0.00534016 -0.139457 0)
(0.0218301 0.0510979 0)
(0.0549201 0.33524 0)
(-0.114034 -0.0372568 0)
(0.017408 -0.308387 0)
(0.0678566 0.0680315 0)
(-0.00160263 0.190873 0)
(0.0407358 0.0736763 0)
(-0.0425808 0.0314975 0)
(-0.0275788 0.01893 0)
(0.0191883 0.00182488 0)
(0.0173188 0.110493 0)
(-0.000868322 0.0160462 0)
(-0.00433081 -0.199155 0)
(0.00254662 -0.0921085 0)
(0.000358909 0.171232 0)
(0.0387268 -0.0253202 0)
(-0.0620404 -0.0903603 0)
(0.0374324 0.0082877 0)
(-0.035416 -0.0179708 0)
(-0.0498119 0.0776326 0)
(0.000657076 0.0936534 0)
(0.00645392 -0.112425 0)
(-0.0600105 -0.0938661 0)
(0.154875 0.023907 0)
(-0.061105 0.114187 0)
(-0.0147594 -0.00216166 0)
(-0.0270969 -0.0956478 0)
(-0.0294207 0.0482459 0)
(0.0146558 0.0216581 0)
(-0.1784 -0.112658 0)
(-0.0439571 0.167978 0)
(-0.0344439 0.0852492 0)
(-0.0811405 -0.0438971 0)
(-0.124257 0.0230109 0)
(0.0082461 -0.177935 0)
(0.0339657 -0.157668 0)
(0.0214044 0.162079 0)
(0.0310319 0.0472451 0)
(-0.0764142 -0.0220563 0)
(0.141851 -0.0775328 0)
(-0.112956 -0.0622302 0)
(-0.0705304 -0.0660872 0)
(0.00952279 -0.168265 0)
(0.0561054 0.100166 0)
(-0.0663208 0.0667269 0)
(-0.0115726 -0.0765422 0)
(0.0304562 0.0579413 0)
(-0.0922943 0.0791306 0)
(-0.00232294 -0.00742599 0)
(-0.0342301 0.0265251 0)
(-0.00996633 0.039602 0)
(0.009635 -0.110685 0)
(0.0185232 -0.0923135 0)
(0.0638335 0.0943637 0)
(-0.151707 0.226118 0)
(0.093361 0.100082 0)
(0.0301425 -0.0803093 0)
(-0.128056 -0.254407 0)
(0.0720058 0.0617417 0)
(0.0867002 0.0739845 0)
(0.0546099 -0.0938332 0)
(-0.0521988 -0.00945816 0)
(-0.114489 0.028563 0)
(-0.131969 0.0432795 0)
(-0.0315362 0.0188529 0)
(0.152843 -0.0503831 0)
(0.0611388 -0.0178491 0)
(0.0693129 0.0416402 0)
(-0.0466665 0.0307237 0)
(-0.144261 -0.0181414 0)
(-0.0628082 0.000834561 0)
(0.00879775 0.0223767 0)
(-0.10665 -0.0270061 0)
(-0.184398 -0.0511198 0)
(0.0350933 0.0142154 0)
(-0.0258857 -0.00685323 0)
(0.0582379 -0.0988559 0)
(-0.0816029 -0.0535379 0)
(0.00173929 0.0130206 0)
(0.0122547 -0.0149707 0)
(-0.00701718 0.0162794 0)
(0.00952118 -0.063688 0)
(-0.00561857 0.00295307 0)
(-0.080114 -0.00632543 0)
(-0.0111024 -0.00618887 0)
(-0.0169097 -0.0231189 0)
(0.0532348 0.144623 0)
(0.0647538 -0.0882807 0)
(0.0109387 0.0180867 0)
(-0.0437231 0.161739 0)
(0.0728325 -0.069378 0)
(0.0192499 -0.0500233 0)
(0.0599142 -0.0257041 0)
(-0.0664524 -0.143961 0)
(0.0936645 -0.0647386 0)
(0.0898379 0.120327 0)
(0.103974 0.199031 0)
(-0.0401542 -0.121217 0)
(-0.0479177 -0.211628 0)
(-0.100131 0.00340327 0)
(-0.0156952 0.151095 0)
(-0.0770389 0.094653 0)
(0.167449 -0.0251508 0)
(-0.0677064 -0.0159766 0)
(-0.26431 0.0334389 0)
(0.255811 -0.0431164 0)
(-0.032629 -0.0100901 0)
(0.0890916 0.190104 0)
(-0.0254201 0.0621311 0)
(-0.0135367 -0.0438288 0)
(0.0538476 0.0503134 0)
(0.195174 0.00743124 0)
(0.032169 0.025184 0)
(-0.023356 -0.0852638 0)
(-0.0489469 0.0885442 0)
(-0.010867 0.0761952 0)
(-0.0489001 -0.119282 0)
(-0.0222791 -0.0155039 0)
(0.0511171 0.0274488 0)
(-0.124186 0.0567071 0)
(0.0776968 -0.0741249 0)
(0.00329593 -0.147883 0)
(-0.0588732 0.039713 0)
(-0.0992118 0.0830596 0)
(-0.0541256 0.123069 0)
(-0.0229848 -0.195098 0)
(0.00726278 -0.111702 0)
(-0.109121 0.113201 0)
(0.0138192 0.151556 0)
(-0.009984 -0.00182567 0)
(0.0119229 -0.0894219 0)
(0.0533423 0.0582081 0)
(0.0309771 0.11212 0)
(-0.0262666 0.0857437 0)
(0.0204379 -0.180869 0)
(0.17441 -0.22028 0)
(0.14464 0.153442 0)
(0.120712 0.112468 0)
(-0.179429 -0.0710593 0)
(-0.04025 -0.0588268 0)
(-0.00701577 -0.02221 0)
(0.0218036 -0.0304915 0)
(-0.0401393 -0.167449 0)
(0.032212 0.0181931 0)
(0.00220274 0.0869744 0)
(-0.0441347 -0.112843 0)
(0.0394587 -0.0120296 0)
(0.0917758 0.194527 0)
(0.153303 0.140623 0)
(0.0761577 -0.0762521 0)
(0.0396099 -0.00664881 0)
(-0.0879151 -0.118154 0)
(-0.100513 0.00490587 0)
(-0.20542 0.214393 0)
(-0.0632689 0.0513469 0)
(0.0615561 -0.0687001 0)
(0.0569178 0.0525202 0)
(0.00456189 -0.0957486 0)
(-0.0112009 -0.102804 0)
(-0.00663027 0.00730317 0)
(-0.0258868 -0.0780527 0)
(-0.0102989 0.100406 0)
(-0.0352539 0.0489769 0)
(-0.0219134 -0.0361177 0)
(0.123737 -0.043172 0)
(-0.035989 -0.0536462 0)
(-0.0208229 0.00725192 0)
(-0.0597189 0.0535275 0)
(-0.00463355 0.098586 0)
(-0.0175909 0.0108767 0)
(0.0851319 -0.0586333 0)
(0.049721 0.0784435 0)
(-0.0138632 0.0192263 0)
(0.0419441 -0.12325 0)
(0.13647 -0.0656467 0)
(-0.0041026 -0.015757 0)
(0.0286628 -0.0242676 0)
(-0.0427396 -0.00498822 0)
(-0.00190534 -0.00254325 0)
(-0.00323068 0.030036 0)
(0.00904688 -0.104601 0)
(0.00609575 -0.00547056 0)
(0.014044 0.0817837 0)
(0.0106259 -0.0175113 0)
(-0.0229844 -0.0179778 0)
(-0.000478299 -0.0567022 0)
(0.173729 -0.0135208 0)
(-0.106649 0.0313102 0)
(-0.0598087 0.0701684 0)
(0.101558 0.0617559 0)
(0.043519 -0.136326 0)
(-0.0930539 0.0348885 0)
(0.0650841 0.135068 0)
(0.0712779 -0.109528 0)
(-0.222222 -0.0596708 0)
(-0.0233758 -0.0394288 0)
(0.110159 0.0509461 0)
(0.117141 0.167508 0)
(-0.124414 -0.120392 0)
(-0.198448 -0.047324 0)
(-0.0102895 0.112054 0)
(0.15006 -0.0104942 0)
(-0.149485 0.105656 0)
(-0.141963 0.0401354 0)
(-0.164574 -0.170434 0)
(0.134806 -0.034257 0)
(-0.0143645 0.000392975 0)
(-0.0377266 0.0167737 0)
(-0.0593925 0.0275478 0)
(-0.109337 0.0261936 0)
(-0.00205132 0.026303 0)
(0.00903418 0.0569023 0)
(-0.0330833 -0.0120121 0)
(0.0155643 -0.111199 0)
(0.0381644 -0.00982627 0)
(-0.00502593 0.153025 0)
(-0.0614697 -0.0470172 0)
(-0.00162708 -0.019484 0)
(0.183681 0.0372452 0)
(0.0760653 -0.0177471 0)
(0.0421952 -0.0443535 0)
(-0.0295772 0.0634 0)
(0.107307 0.0457377 0)
(-0.125389 0.0203513 0)
(-0.100624 -0.0321494 0)
(-0.0187459 -0.236394 0)
(0.0372031 0.0701633 0)
(-0.213386 0.112449 0)
(-0.0442033 -0.0357843 0)
(0.10055 -0.00687188 0)
(0.0409877 0.0275706 0)
(0.020857 0.067799 0)
(-0.0272381 0.0245446 0)
(-0.00573595 -0.0891618 0)
(0.0660501 -0.132681 0)
(0.0540404 -0.165904 0)
(-0.00489219 0.10808 0)
(0.0200578 0.159445 0)
(-0.0026992 -0.0591138 0)
(0.104369 -0.137894 0)
(-0.121965 0.0346394 0)
(-0.00943926 0.00872484 0)
(0.0130104 -0.0211266 0)
(-0.0556013 -0.0561994 0)
(-0.0829873 -0.0364965 0)
(0.0305838 0.0709719 0)
(-0.149888 -0.0150253 0)
(-0.146081 0.0528 0)
(0.0990585 0.0952977 0)
(0.0589935 0.0330854 0)
(0.017517 0.054478 0)
(-0.0120273 -0.10132 0)
(-0.178986 0.0694254 0)
(-0.0151231 0.113694 0)
(-0.0753492 -0.0235872 0)
(-0.00719366 -0.0888103 0)
(0.0474754 -0.035297 0)
(0.139304 -0.0272301 0)
(0.00270474 -0.026973 0)
(-0.0759192 -0.0385098 0)
(0.0318924 0.0288531 0)
(0.0787342 0.0126695 0)
(-0.0147201 -0.0975351 0)
(0.175736 -0.0385948 0)
(0.0105551 -0.00431675 0)
(-0.00335306 0.00401559 0)
(0.0361141 0.00363455 0)
(-0.0042155 0.0265588 0)
(0.0173517 0.104308 0)
(0.00651722 -0.00041922 0)
(0.0359465 -0.0900167 0)
(0.105899 0.00492204 0)
(0.117458 0.124278 0)
(-0.0401618 -0.168611 0)
(0.0197736 -0.0470018 0)
(0.128087 0.110134 0)
(0.0186707 -0.0549616 0)
(-0.0416446 -0.0214658 0)
(0.00100968 -0.000299116 0)
(-0.0015174 -0.0128115 0)
(-0.00381324 -0.022527 0)
(0.000270535 0.00273027 0)
(0.00234678 -0.00673284 0)
(0.0140051 0.0203926 0)
(0.00379343 -0.000301502 0)
(-0.00230381 -0.137813 0)
(0.00344758 0.0536872 0)
(0.00678615 0.238969 0)
(-0.00241055 -0.18041 0)
(0.0338911 0.10806 0)
(-0.0738301 0.120901 0)
(0.0415867 -0.232311 0)
(0.0252893 -0.0349532 0)
(0.00592447 0.0318341 0)
(0.00337123 -0.013903 0)
(0.00814359 -0.0470665 0)
(-0.0184727 -0.0599845 0)
(0.0817126 0.0578125 0)
(0.226295 0.0840326 0)
(0.094208 -0.00784672 0)
(-0.264536 -0.0777928 0)
(-0.139011 0.00666354 0)
(0.0315251 0.135577 0)
(-0.0288101 0.124852 0)
(-0.0478518 -0.182873 0)
(0.0100866 -0.0634633 0)
(-0.010001 0.301465 0)
(-0.149193 -0.117786 0)
(0.0258504 -0.129294 0)
(0.013014 -0.0155672 0)
(-0.0567404 0.166619 0)
(-0.0195248 0.0832447 0)
(0.0309928 -0.174062 0)
(-0.0649504 -0.0465631 0)
(-0.0480532 0.156166 0)
(-0.0936642 -0.04735 0)
(0.0590341 -0.0804426 0)
(0.0297591 -0.104013 0)
(-0.0248224 0.0229311 0)
(-0.0490189 0.0781104 0)
(-0.0236545 -0.0570036 0)
(-0.0513158 0.0185724 0)
(0.0149281 0.0891886 0)
(0.0232282 0.0206822 0)
(-0.0742547 -0.0262231 0)
(-0.11227 0.0174212 0)
(-0.186054 -0.0652513 0)
(-0.0140861 -0.0201457 0)
(0.0770829 0.091114 0)
(-0.0148699 -0.0108501 0)
(-0.0323924 -0.12672 0)
(-0.0753704 0.0104578 0)
(-0.0196929 0.0927368 0)
(0.0216692 0.0346306 0)
(-0.021347 -0.178567 0)
(-0.0627446 -0.103716 0)
(-0.118952 0.0930582 0)
(0.0904673 0.14225 0)
(0.0505916 -0.123661 0)
(-0.0206216 -0.0187564 0)
(0.000110108 0.155435 0)
(-0.0315981 -0.0510387 0)
(-0.0357908 -0.141315 0)
(0.0644156 -0.0460696 0)
(0.0912896 -0.0300524 0)
(-0.131648 0.0435742 0)
(-0.0979525 0.0107435 0)
(0.00163341 0.0277353 0)
(-0.0291742 0.00468846 0)
(0.0485201 0.0651125 0)
(-0.00856749 -0.00590969 0)
(0.0844161 0.0147988 0)
(-0.110002 0.122664 0)
(0.000681895 -0.0663746 0)
(0.141964 -0.0516174 0)
(-0.105921 0.0375278 0)
(0.0640595 0.048829 0)
(-0.0660474 0.0234889 0)
(0.0242412 -0.0487568 0)
(0.00506332 -0.103985 0)
(0.00380913 0.125398 0)
(-0.019496 -0.0707301 0)
(-0.0493699 -0.04948 0)
(-0.00167986 -9.19242e-05 0)
(-0.0116697 0.0414131 0)
(-0.0469326 -0.0579077 0)
(0.0816055 -0.0547307 0)
(0.04512 0.0270687 0)
(0.120258 0.0524159 0)
(0.00275617 -0.0106725 0)
(0.0836875 -0.071298 0)
(0.141634 0.0183432 0)
(-0.0414894 0.104186 0)
(-0.0569045 -0.0403896 0)
(-0.148956 -0.0437077 0)
(0.0186603 0.0392816 0)
(-0.0117703 -0.0530538 0)
(0.000136847 -0.0195756 0)
(0.00349947 -0.0270722 0)
(-0.000926727 0.0404329 0)
(0.0118366 -0.0288086 0)
(1.50597e-05 -0.0468048 0)
(0.00087365 -0.025682 0)
(-0.00379072 0.165689 0)
(0.00117805 -0.170623 0)
(0.0656714 -0.0831892 0)
(0.01544 -0.0108003 0)
(-0.00249192 0.0952242 0)
(0.00676377 0.0934034 0)
(0.00209182 0.0723723 0)
(-0.00322282 -0.121102 0)
(0.01478 -0.273465 0)
(-0.0177903 0.0215263 0)
(-0.0166672 0.223039 0)
(0.0173076 -0.0878778 0)
(0.0393738 0.0104731 0)
(0.00619745 0.203762 0)
(0.00877445 -0.09142 0)
(-0.0205754 -0.126702 0)
(-0.137754 0.0848621 0)
(-0.00531645 0.160024 0)
(0.00914723 0.0691672 0)
(-0.0233968 -0.0521289 0)
(-0.000536423 -0.0399826 0)
(0.0408965 -0.125723 0)
(0.0415008 0.0193652 0)
(-0.0708232 0.15321 0)
(0.0804854 -0.0420372 0)
(0.108293 0.0282845 0)
(-0.0123478 0.0853896 0)
(-0.0304593 0.0478342 0)
(0.0338257 -0.00433317 0)
(-0.00334283 -0.0811981 0)
(-0.180331 0.0460596 0)
(-0.0419499 0.0921727 0)
(0.0712633 -0.151645 0)
(0.0837683 -0.143661 0)
(0.0525875 0.0684662 0)
(-0.00900363 0.0853086 0)
(-0.00939183 -0.0787553 0)
(0.0100392 -0.0695339 0)
(-0.0603962 0.0405285 0)
(-0.0886018 0.0148534 0)
(0.0654067 0.0725072 0)
(-0.000725052 0.072336 0)
(0.0188321 -0.0416128 0)
(0.0127187 -0.0846064 0)
(-0.0158158 -0.00647647 0)
(0.0590349 -0.035717 0)
(-0.00641401 0.0326275 0)
(-0.0880355 0.0263688 0)
(-0.0568245 0.0360323 0)
(0.0624636 0.0225515 0)
(0.0589133 -0.142604 0)
(0.0565899 0.00845845 0)
(-0.0664698 -0.0328552 0)
(-0.0170409 -0.063251 0)
(0.0101087 0.15508 0)
(-0.00993494 0.031314 0)
(0.00708841 -0.0952608 0)
(-0.0163422 0.187759 0)
(-0.041255 0.0328862 0)
(-0.0573753 -0.213751 0)
(-0.0892986 -0.126368 0)
(-0.00162313 0.0689365 0)
(-0.00304148 0.00551427 0)
(-0.184877 0.101398 0)
(-0.121662 0.0821279 0)
(-0.0149985 -0.0145825 0)
(-0.0601971 0.125021 0)
(-0.0512621 -0.0694075 0)
(-0.0574536 -0.0827426 0)
(0.000471716 -0.0233607 0)
(0.212448 0.050952 0)
(0.027214 0.0318396 0)
(-0.0706863 0.0138686 0)
(0.00606689 -0.0469703 0)
(0.00219846 0.0559696 0)
(0.0104759 -0.0873616 0)
(0.0583398 -0.143634 0)
(0.0225636 0.0833635 0)