/*--------------------------------*- C++ -*----------------------------------*\
| =========                 |                                                 |
| \\      /  F ield         | OpenFOAM: The Open Source CFD Toolbox           |
|  \\    /   O peration     | Version:  v2012                                 |
|   \\  /    A nd           | Website:  www.openfoam.com                      |
|    \\/     M anipulation  |                                                 |
\*---------------------------------------------------------------------------*/
FoamFile
{
    version     2.0;
    format      ascii;
    class       surfaceScalarField;
    location    "13.25";
    object      phi;
}
// * * * * * * * * * * * * * * * * * * * * * * * * * * * * * * * * * * * * * //

dimensions      [0 3 -1 0 0 0 0];
oriented        oriented;


internalField   nonuniform List<scalar> 
130560
(
3.52112e-06
-3.52112e-06
7.04244e-06
-3.52132e-06
1.05642e-05
-3.52173e-06
1.40865e-05
-3.52234e-06
1.76097e-05
-3.52315e-06
2.11338e-05
-3.52415e-06
2.46592e-05
-3.52535e-06
2.81859e-05
-3.52674e-06
3.17142e-05
-3.52831e-06
3.52443e-05
-3.53007e-06
3.87763e-05
-3.532e-06
4.23104e-05
-3.53411e-06
4.58468e-05
-3.53637e-06
4.93856e-05
-3.53879e-06
5.29269e-05
-3.54135e-06
5.6471e-05
-3.54406e-06
6.00179e-05
-3.54689e-06
6.35677e-05
-3.54984e-06
6.71206e-05
-3.5529e-06
7.06767e-05
-3.55605e-06
7.42359e-05
-3.55929e-06
7.77985e-05
-3.56259e-06
8.13645e-05
-3.56595e-06
8.49338e-05
-3.56935e-06
8.85066e-05
-3.57278e-06
9.20828e-05
-3.57622e-06
9.56625e-05
-3.57965e-06
9.92456e-05
-3.58306e-06
0.000102832
-3.58642e-06
0.000106422
-3.58972e-06
0.000110015
-3.59294e-06
0.000113611
-3.59606e-06
0.00011721
-3.59904e-06
0.000120812
-3.60189e-06
0.000124416
-3.60455e-06
0.000128023
-3.60703e-06
0.000131632
-3.60928e-06
0.000135244
-3.61129e-06
0.000138857
-3.61302e-06
0.000142471
-3.61445e-06
0.000146087
-3.61555e-06
0.000149703
-3.6163e-06
0.00015332
-3.61665e-06
0.000156936
-3.61659e-06
0.000160552
-3.61608e-06
0.000164168
-3.61508e-06
0.000167781
-3.61357e-06
0.000171393
-3.6115e-06
0.000175001
-3.60886e-06
0.000178607
-3.60559e-06
0.000182209
-3.60167e-06
0.000185806
-3.59706e-06
0.000189397
-3.59173e-06
0.000192983
-3.58563e-06
0.000196562
-3.57873e-06
0.000200133
-3.57099e-06
0.000203695
-3.56238e-06
0.000207248
-3.55285e-06
0.00021079
-3.54236e-06
0.000214321
-3.53089e-06
0.00021784
-3.51838e-06
0.000221345
-3.50481e-06
0.000224835
-3.49014e-06
0.000228309
-3.47432e-06
0.000231766
-3.45731e-06
0.000235205
-3.4391e-06
0.000238625
-3.41962e-06
0.000242024
-3.39886e-06
0.000245401
-3.37678e-06
0.000248754
-3.35333e-06
0.000252082
-3.3285e-06
0.000255385
-3.30224e-06
0.000258659
-3.27453e-06
0.000261905
-3.24534e-06
0.000265119
-3.21464e-06
0.000268302
-3.18241e-06
0.00027145
-3.14862e-06
0.000274563
-3.11324e-06
0.00027764
-3.07627e-06
0.000280677
-3.03767e-06
0.000283675
-2.99745e-06
0.00028663
-2.95557e-06
0.000289542
-2.91204e-06
0.000292409
-2.86684e-06
0.000295229
-2.81996e-06
0.000298001
-2.77141e-06
0.000300722
-2.72118e-06
0.000303391
-2.66928e-06
0.000306007
-2.61572e-06
0.000308567
-2.56049e-06
0.000311071
-2.50362e-06
0.000313516
-2.44511e-06
0.000315901
-2.385e-06
0.000318224
-2.32329e-06
0.000320484
-2.26001e-06
0.00032268
-2.1952e-06
0.000324808
-2.12888e-06
0.00032687
-2.06108e-06
0.000328861
-1.99186e-06
0.000330783
-1.92123e-06
0.000332632
-1.84926e-06
0.000334408
-1.77598e-06
0.000336109
-1.70145e-06
0.000337735
-1.62572e-06
0.000339284
-1.54884e-06
0.000340755
-1.47088e-06
0.000342147
-1.39189e-06
0.000343459
-1.31193e-06
0.00034469
-1.23108e-06
0.000345839
-1.14939e-06
0.000346906
-1.06694e-06
0.00034789
-9.83793e-07
0.00034879
-9.00029e-07
0.000349606
-8.15719e-07
0.000350336
-7.30936e-07
0.000350982
-6.45756e-07
0.000351542
-5.60256e-07
0.000352017
-4.74512e-07
0.000352406
-3.88602e-07
0.000352708
-3.02603e-07
0.000352925
-2.16592e-07
0.000353055
-1.30647e-07
0.0003531
-4.4843e-08
0.00035306
4.07433e-08
0.000352933
1.26037e-07
0.000352723
2.10965e-07
0.000352427
2.95454e-07
0.000352048
3.79432e-07
0.000351585
4.62831e-07
0.000351039
5.45582e-07
0.000350412
6.27619e-07
0.000349703
7.08879e-07
0.000348913
7.893e-07
0.000348045
8.68821e-07
0.000347097
9.47386e-07
0.000346072
1.02494e-06
0.000344971
1.10143e-06
0.000343794
1.17681e-06
0.000342543
1.25103e-06
0.000341219
1.32405e-06
0.000339823
1.39582e-06
0.000338357
1.46631e-06
0.000336821
1.53549e-06
0.000335218
1.60331e-06
0.000333548
1.66975e-06
0.000331813
1.73479e-06
0.000330015
1.79839e-06
0.000328155
1.86055e-06
0.000326233
1.92123e-06
0.000324253
1.98043e-06
0.000322215
2.03813e-06
0.00032012
2.09432e-06
0.000317971
2.149e-06
0.000315769
2.20215e-06
0.000313515
2.25378e-06
0.000311212
2.30389e-06
0.000308859
2.35247e-06
0.00030646
2.39954e-06
0.000304014
2.4451e-06
0.000301525
2.48915e-06
0.000298994
2.5317e-06
0.000296421
2.57278e-06
0.000293808
2.61239e-06
0.000291158
2.65055e-06
0.000288471
2.68727e-06
0.000285748
2.72257e-06
0.000282992
2.75648e-06
0.000280203
2.78901e-06
0.000277382
2.82019e-06
0.000274532
2.85003e-06
0.000271654
2.87857e-06
0.000268748
2.90583e-06
0.000265816
2.93183e-06
0.00026286
2.9566e-06
0.000259879
2.98017e-06
0.000256877
3.00256e-06
0.000253853
3.02381e-06
0.000250809
3.04394e-06
0.000247746
3.06298e-06
0.000244665
3.08095e-06
0.000241567
3.0979e-06
0.000238453
3.11385e-06
0.000235325
3.12883e-06
0.000232182
3.14287e-06
0.000229026
3.15599e-06
0.000225857
3.16823e-06
0.000222678
3.17962e-06
0.000219488
3.19018e-06
0.000216288
3.19995e-06
0.000213079
3.20896e-06
0.000209862
3.21722e-06
0.000206637
3.22478e-06
0.000203405
3.23166e-06
0.000200167
3.23789e-06
0.000196924
3.24349e-06
0.000193675
3.24849e-06
0.000190422
3.25292e-06
0.000187166
3.2568e-06
0.000183905
3.26016e-06
0.000180642
3.26302e-06
0.000177377
3.26542e-06
0.00017411
3.26736e-06
0.000170841
3.26889e-06
0.000167571
3.27001e-06
0.0001643
3.27075e-06
0.000161029
3.27114e-06
0.000157758
3.2712e-06
0.000154487
3.27094e-06
0.000151216
3.27039e-06
0.000147947
3.26956e-06
0.000144678
3.26848e-06
0.000141411
3.26717e-06
0.000138145
3.26564e-06
0.000134881
3.26391e-06
0.000131619
3.262e-06
0.00012836
3.25993e-06
0.000125102
3.25771e-06
0.000121846
3.25535e-06
0.000118594
3.25288e-06
0.000115343
3.25031e-06
0.000112096
3.24764e-06
0.000108851
3.24491e-06
0.000105609
3.24211e-06
0.000102369
3.23926e-06
9.9133e-05
3.23638e-06
9.58995e-05
3.23347e-06
9.2669e-05
3.23055e-06
8.94414e-05
3.22763e-06
8.62167e-05
3.22471e-06
8.29948e-05
3.22182e-06
7.97759e-05
3.21895e-06
7.65598e-05
3.21612e-06
7.33464e-05
3.21334e-06
7.01358e-05
3.21061e-06
6.69279e-05
3.20795e-06
6.37225e-05
3.20535e-06
6.05197e-05
3.20284e-06
5.73193e-05
3.2004e-06
5.41212e-05
3.19806e-06
5.09254e-05
3.19582e-06
4.77317e-05
3.19368e-06
4.45401e-05
3.19165e-06
4.13503e-05
3.18973e-06
3.81624e-05
3.18793e-06
3.49762e-05
3.18625e-06
3.17915e-05
3.1847e-06
2.86082e-05
3.18327e-06
2.54262e-05
3.18198e-06
2.22454e-05
3.18083e-06
1.90656e-05
3.17981e-06
1.58866e-05
3.17894e-06
1.27084e-05
3.17821e-06
9.5308e-06
3.17762e-06
6.35362e-06
3.17718e-06
3.17674e-06
3.17689e-06
3.17674e-06
3.52092e-06
-7.04204e-06
7.04205e-06
-7.04245e-06
1.05636e-05
-7.04326e-06
1.40857e-05
-7.04448e-06
1.76087e-05
-7.0461e-06
2.11326e-05
-7.04811e-06
2.46578e-05
-7.05051e-06
2.81844e-05
-7.05329e-06
3.17125e-05
-7.05645e-06
3.52424e-05
-7.05997e-06
3.87742e-05
-7.06384e-06
4.23082e-05
-7.06805e-06
4.58444e-05
-7.07259e-06
4.9383e-05
-7.07743e-06
5.29242e-05
-7.08257e-06
5.64682e-05
-7.08799e-06
6.0015e-05
-7.09367e-06
6.35647e-05
-7.09958e-06
6.71175e-05
-7.1057e-06
7.06735e-05
-7.11202e-06
7.42327e-05
-7.1185e-06
7.77952e-05
-7.12513e-06
8.13611e-05
-7.13187e-06
8.49305e-05
-7.13869e-06
8.85032e-05
-7.14556e-06
9.20795e-05
-7.15245e-06
9.56592e-05
-7.15933e-06
9.92423e-05
-7.16616e-06
0.000102829
-7.17291e-06
0.000106419
-7.17953e-06
0.000110012
-7.18599e-06
0.000113608
-7.19224e-06
0.000117207
-7.19824e-06
0.000120809
-7.20394e-06
0.000124414
-7.20931e-06
0.000128021
-7.21428e-06
0.000131631
-7.21881e-06
0.000135242
-7.22285e-06
0.000138855
-7.22634e-06
0.00014247
-7.22923e-06
0.000146086
-7.23147e-06
0.000149703
-7.23299e-06
0.00015332
-7.23373e-06
0.000156937
-7.23363e-06
0.000160554
-7.23264e-06
0.000164169
-7.23067e-06
0.000167783
-7.22768e-06
0.000171395
-7.22359e-06
0.000175005
-7.21833e-06
0.000178611
-7.21184e-06
0.000182213
-7.20404e-06
0.000185811
-7.19486e-06
0.000189404
-7.18422e-06
0.00019299
-7.17206e-06
0.00019657
-7.1583e-06
0.000200142
-7.14286e-06
0.000203705
-7.12567e-06
0.000207259
-7.10664e-06
0.000210802
-7.08572e-06
0.000214334
-7.06281e-06
0.000217853
-7.03784e-06
0.000221359
-7.01073e-06
0.000224851
-6.98142e-06
0.000228326
-6.94981e-06
0.000231785
-6.91585e-06
0.000235225
-6.87945e-06
0.000238646
-6.84054e-06
0.000242046
-6.79905e-06
0.000245424
-6.75491e-06
0.000248779
-6.70805e-06
0.000252109
-6.65842e-06
0.000255413
-6.60593e-06
0.000258689
-6.55054e-06
0.000261935
-6.49219e-06
0.000265152
-6.43082e-06
0.000268336
-6.36637e-06
0.000271486
-6.29881e-06
0.000274601
-6.22808e-06
0.000277678
-6.15415e-06
0.000280718
-6.07698e-06
0.000283717
-5.99654e-06
0.000286674
-5.9128e-06
0.000289588
-5.82574e-06
0.000292456
-5.73534e-06
0.000295278
-5.64159e-06
0.000298051
-5.54449e-06
0.000300774
-5.44404e-06
0.000303445
-5.34023e-06
0.000306062
-5.23309e-06
0.000308624
-5.12262e-06
0.00031113
-5.00886e-06
0.000313576
-4.89183e-06
0.000315963
-4.77158e-06
0.000318288
-4.64814e-06
0.000320549
-4.52156e-06
0.000322746
-4.3919e-06
0.000324876
-4.25922e-06
0.000326939
-4.1236e-06
0.000328932
-3.9851e-06
0.000330855
-3.84381e-06
0.000332705
-3.69982e-06
0.000334482
-3.55321e-06
0.000336185
-3.4041e-06
0.000337812
-3.25258e-06
0.000339362
-3.09877e-06
0.000340834
-2.94278e-06
0.000342227
-2.78473e-06
0.000343539
-2.62476e-06
0.000344771
-2.46298e-06
0.000345921
-2.29953e-06
0.000346989
-2.13456e-06
0.000347973
-1.9682e-06
0.000348874
-1.8006e-06
0.00034969
-1.63191e-06
0.000350422
-1.46226e-06
0.000351068
-1.29183e-06
0.000351628
-1.12075e-06
0.000352103
-9.49186e-07
0.000352492
-7.77289e-07
0.000352794
-6.05214e-07
0.000353011
-4.33116e-07
0.000353141
-2.61148e-07
0.000353186
-8.94646e-08
0.000353145
8.1783e-08
0.000353018
2.52445e-07
0.000352807
4.22372e-07
0.000352511
5.91421e-07
0.000352131
7.59448e-07
0.000351667
9.26313e-07
0.000351121
1.09188e-06
0.000350493
1.25602e-06
0.000349783
1.4186e-06
0.000348993
1.5795e-06
0.000348123
1.7386e-06
0.000347175
1.89579e-06
0.000346149
2.05095e-06
0.000345046
2.20398e-06
0.000343868
2.35478e-06
0.000342616
2.50327e-06
0.000341291
2.64934e-06
0.000339893
2.79293e-06
0.000338426
2.93394e-06
0.000336889
3.07232e-06
0.000335284
3.208e-06
0.000333613
3.34091e-06
0.000331877
3.47101e-06
0.000330077
3.59824e-06
0.000328215
3.72257e-06
0.000326292
3.84395e-06
0.00032431
3.96236e-06
0.000322271
4.07777e-06
0.000320175
4.19016e-06
0.000318024
4.29952e-06
0.000315821
4.40583e-06
0.000313565
4.50909e-06
0.00031126
4.6093e-06
0.000308906
4.70647e-06
0.000306505
4.80059e-06
0.000304058
4.89169e-06
0.000301568
4.97979e-06
0.000299035
5.06489e-06
0.00029646
5.14703e-06
0.000293846
5.22623e-06
0.000291194
5.30253e-06
0.000288506
5.37595e-06
0.000285782
5.44654e-06
0.000283024
5.51433e-06
0.000280234
5.57937e-06
0.000277412
5.6417e-06
0.000274561
5.70137e-06
0.000271681
5.75842e-06
0.000268774
5.81291e-06
0.000265841
5.86488e-06
0.000262883
5.9144e-06
0.000259902
5.96151e-06
0.000256898
6.00626e-06
0.000253873
6.04873e-06
0.000250828
6.08896e-06
0.000247764
6.12701e-06
0.000244682
6.16294e-06
0.000241583
6.19681e-06
0.000238468
6.22867e-06
0.000235338
6.2586e-06
0.000232195
6.28664e-06
0.000229038
6.31286e-06
0.000225869
6.33731e-06
0.000222688
6.36006e-06
0.000219497
6.38116e-06
0.000216297
6.40067e-06
0.000213087
6.41865e-06
0.000209869
6.43516e-06
0.000206644
6.45025e-06
0.000203411
6.46397e-06
0.000200173
6.4764e-06
0.000196929
6.48757e-06
0.00019368
6.49754e-06
0.000190426
6.50637e-06
0.000187169
6.51411e-06
0.000183908
6.52081e-06
0.000180645
6.52651e-06
0.000177379
6.53128e-06
0.000174111
6.53515e-06
0.000170842
6.53817e-06
0.000167571
6.54039e-06
0.0001643
6.54186e-06
0.000161029
6.54262e-06
0.000157757
6.54271e-06
0.000154486
6.54217e-06
0.000151215
6.54104e-06
0.000147946
6.53938e-06
0.000144677
6.5372e-06
0.000141409
6.53456e-06
0.000138144
6.53148e-06
0.000134879
6.52801e-06
0.000131617
6.52417e-06
0.000128357
6.52001e-06
0.000125099
6.51555e-06
0.000121844
6.51082e-06
0.000118591
6.50586e-06
0.000115341
6.5007e-06
0.000112093
6.49536e-06
0.000108848
6.48987e-06
0.000105606
6.48426e-06
0.000102366
6.47855e-06
9.913e-05
6.47278e-06
9.58966e-05
6.46695e-06
9.2666e-05
6.4611e-06
8.94384e-05
6.45524e-06
8.62137e-05
6.4494e-06
8.29919e-05
6.4436e-06
7.9773e-05
6.43786e-06
7.65569e-05
6.4322e-06
7.33437e-05
6.42662e-06
7.01331e-05
6.42116e-06
6.69252e-05
6.41582e-06
6.372e-05
6.41063e-06
6.05172e-05
6.40559e-06
5.73169e-05
6.40072e-06
5.41189e-05
6.39603e-06
5.09232e-05
6.39154e-06
4.77296e-05
6.38725e-06
4.45381e-05
6.38318e-06
4.13485e-05
6.37934e-06
3.81607e-05
6.37573e-06
3.49746e-05
6.37237e-06
3.179e-05
6.36926e-06
2.86069e-05
6.36641e-06
2.5425e-05
6.36383e-06
2.22444e-05
6.36152e-06
1.90647e-05
6.35948e-06
1.58859e-05
6.35773e-06
1.27078e-05
6.35627e-06
9.53036e-06
6.35509e-06
6.35333e-06
6.35421e-06
3.17659e-06
6.35362e-06
6.35333e-06
3.52051e-06
-1.05626e-05
7.04123e-06
-1.05632e-05
1.05624e-05
-1.05644e-05
1.40841e-05
-1.05662e-05
1.76067e-05
-1.05687e-05
2.11302e-05
-1.05717e-05
2.4655e-05
-1.05753e-05
2.81812e-05
-1.05795e-05
3.1709e-05
-1.05842e-05
3.52385e-05
-1.05895e-05
3.877e-05
-1.05953e-05
4.23036e-05
-1.06017e-05
4.58395e-05
-1.06085e-05
4.93779e-05
-1.06158e-05
5.29188e-05
-1.06235e-05
5.64625e-05
-1.06317e-05
6.0009e-05
-1.06402e-05
6.35586e-05
-1.06491e-05
6.71112e-05
-1.06583e-05
7.0667e-05
-1.06678e-05
7.4226e-05
-1.06776e-05
7.77885e-05
-1.06876e-05
8.13543e-05
-1.06977e-05
8.49236e-05
-1.0708e-05
8.84963e-05
-1.07183e-05
9.20726e-05
-1.07287e-05
9.56523e-05
-1.07391e-05
9.92355e-05
-1.07494e-05
0.000102822
-1.07595e-05
0.000106412
-1.07695e-05
0.000110005
-1.07792e-05
0.000113602
-1.07887e-05
0.000117201
-1.07977e-05
0.000120804
-1.08063e-05
0.000124409
-1.08144e-05
0.000128016
-1.0822e-05
0.000131627
-1.08288e-05
0.000135239
-1.0835e-05
0.000138853
-1.08403e-05
0.000142468
-1.08447e-05
0.000146085
-1.08481e-05
0.000149702
-1.08505e-05
0.00015332
-1.08516e-05
0.000156938
-1.08516e-05
0.000160555
-1.08502e-05
0.000164172
-1.08473e-05
0.000167787
-1.08429e-05
0.000171401
-1.08368e-05
0.000175011
-1.0829e-05
0.000178619
-1.08194e-05
0.000182223
-1.08078e-05
0.000185822
-1.07941e-05
0.000189416
-1.07782e-05
0.000193004
-1.07601e-05
0.000196585
-1.07395e-05
0.000200159
-1.07165e-05
0.000203724
-1.06908e-05
0.00020728
-1.06623e-05
0.000210825
-1.06311e-05
0.000214359
-1.05968e-05
0.00021788
-1.05594e-05
0.000221389
-1.05189e-05
0.000224882
-1.0475e-05
0.00022836
-1.04277e-05
0.000231821
-1.03768e-05
0.000235264
-1.03223e-05
0.000238687
-1.0264e-05
0.00024209
-1.02019e-05
0.000245471
-1.01358e-05
0.000248829
-1.00656e-05
0.000252161
-9.99118e-06
0.000255468
-9.91253e-06
0.000258747
-9.82952e-06
0.000261997
-9.74206e-06
0.000265216
-9.65006e-06
0.000268403
-9.55346e-06
0.000271556
-9.45217e-06
0.000274674
-9.34613e-06
0.000277756
-9.23528e-06
0.000280798
-9.11956e-06
0.000283801
-8.99893e-06
0.000286761
-8.87335e-06
0.000289678
-8.74278e-06
0.00029255
-8.6072e-06
0.000295375
-8.46658e-06
0.000298151
-8.32093e-06
0.000300878
-8.17024e-06
0.000303552
-8.01451e-06
0.000306173
-7.85378e-06
0.000308738
-7.68805e-06
0.000311247
-7.51737e-06
0.000313697
-7.34179e-06
0.000316086
-7.16135e-06
0.000318414
-6.97613e-06
0.000320679
-6.78619e-06
0.000322879
-6.59162e-06
0.000325012
-6.39252e-06
0.000327077
-6.18899e-06
0.000329073
-5.98114e-06
0.000330999
-5.7691e-06
0.000332852
-5.55299e-06
0.000334632
-5.33296e-06
0.000336337
-5.10915e-06
0.000337966
-4.88174e-06
0.000339518
-4.65087e-06
0.000340992
-4.41674e-06
0.000342387
-4.17951e-06
0.000343701
-3.93938e-06
0.000344935
-3.69655e-06
0.000346086
-3.45121e-06
0.000347155
-3.20357e-06
0.000348141
-2.95385e-06
0.000349043
-2.70227e-06
0.00034986
-2.44904e-06
0.000350592
-2.19439e-06
0.000351239
-1.93854e-06
0.0003518
-1.68173e-06
0.000352275
-1.42419e-06
0.000352664
-1.16615e-06
0.000352966
-9.07849e-07
0.000353183
-6.49509e-07
0.000353313
-3.91366e-07
0.000353357
-1.33651e-07
0.000353315
1.23408e-07
0.000353188
3.79585e-07
0.000352976
6.34659e-07
0.000352679
8.8841e-07
0.000352298
1.14062e-06
0.000351833
1.39109e-06
0.000351285
1.63961e-06
0.000350655
1.88598e-06
0.000349944
2.13e-06
0.000349152
2.3715e-06
0.00034828
2.6103e-06
0.00034733
2.84621e-06
0.000346302
3.07908e-06
0.000345197
3.30875e-06
0.000344017
3.53508e-06
0.000342762
3.75791e-06
0.000341434
3.97713e-06
0.000340035
4.1926e-06
0.000338564
4.40421e-06
0.000337025
4.61186e-06
0.000335417
4.81545e-06
0.000333743
5.01489e-06
0.000332004
5.21009e-06
0.000330201
5.40099e-06
0.000328337
5.58753e-06
0.000326411
5.76964e-06
0.000324426
5.94729e-06
0.000322383
6.12043e-06
0.000320284
6.28904e-06
0.000318131
6.45308e-06
0.000315924
6.61256e-06
0.000313666
6.76745e-06
0.000311357
6.91776e-06
0.000309
7.0635e-06
0.000306596
7.20467e-06
0.000304147
7.3413e-06
0.000301653
7.47342e-06
0.000299117
7.60104e-06
0.00029654
7.72421e-06
0.000293923
7.84298e-06
0.000291268
7.95738e-06
0.000288576
8.06747e-06
0.00028585
8.17331e-06
0.000283089
8.27494e-06
0.000280296
8.37245e-06
0.000277472
8.46588e-06
0.000274618
8.55532e-06
0.000271735
8.64084e-06
0.000268826
8.7225e-06
0.00026589
8.8004e-06
0.00026293
8.8746e-06
0.000259946
8.9452e-06
0.00025694
9.01226e-06
0.000253913
9.07589e-06
0.000250866
9.13616e-06
0.0002478
9.19316e-06
0.000244716
9.24698e-06
0.000241615
9.29771e-06
0.000238498
9.34544e-06
0.000235367
9.39025e-06
0.000232221
9.43224e-06
0.000229062
9.47149e-06
0.000225892
9.5081e-06
0.000222709
9.54214e-06
0.000219517
9.57372e-06
0.000216315
9.60292e-06
0.000213103
9.62982e-06
0.000209884
9.65451e-06
0.000206657
9.67707e-06
0.000203424
9.69759e-06
0.000200184
9.71616e-06
0.000196939
9.73285e-06
0.000193688
9.74775e-06
0.000190434
9.76093e-06
0.000187176
9.77247e-06
0.000183914
9.78245e-06
0.000180649
9.79095e-06
0.000177383
9.79804e-06
0.000174114
9.80378e-06
0.000170844
9.80826e-06
0.000167573
9.81154e-06
0.000164301
9.81368e-06
0.000161029
9.81476e-06
0.000157757
9.81484e-06
0.000154485
9.81398e-06
0.000151214
9.81225e-06
0.000147943
9.8097e-06
0.000144674
9.80639e-06
0.000141406
9.80237e-06
0.00013814
9.79771e-06
0.000134876
9.79246e-06
0.000131613
9.78667e-06
0.000128353
9.78038e-06
0.000125095
9.77365e-06
0.000121839
9.76652e-06
0.000118586
9.75905e-06
0.000115335
9.75127e-06
0.000112087
9.74323e-06
0.000108842
9.73496e-06
0.0001056
9.72651e-06
0.000102361
9.71792e-06
9.91242e-05
9.70922e-06
9.58907e-05
9.70046e-06
9.26602e-05
9.69165e-06
8.94326e-05
9.68284e-06
8.62079e-05
9.67406e-06
8.29862e-05
9.66533e-06
7.97674e-05
9.6567e-06
7.65514e-05
9.64818e-06
7.33382e-05
9.63979e-06
7.01278e-05
9.63158e-06
6.692e-05
9.62355e-06
6.37149e-05
9.61574e-06
6.05123e-05
9.60817e-06
5.73122e-05
9.60085e-06
5.41144e-05
9.5938e-06
5.09189e-05
9.58705e-06
4.77256e-05
9.5806e-06
4.45343e-05
9.57448e-06
4.13449e-05
9.56871e-06
3.81574e-05
9.56329e-06
3.49715e-05
9.55824e-06
3.17872e-05
9.55356e-06
2.86043e-05
9.54928e-06
2.54227e-05
9.5454e-06
2.22423e-05
9.54193e-06
1.90629e-05
9.53887e-06
1.58844e-05
9.53624e-06
1.27067e-05
9.53404e-06
9.52947e-06
9.53227e-06
6.35274e-06
9.53095e-06
3.17629e-06
9.53006e-06
9.52962e-06
3.5199e-06
-1.40825e-05
7.04e-06
-1.40833e-05
1.05605e-05
-1.40849e-05
1.40817e-05
-1.40874e-05
1.76036e-05
-1.40906e-05
2.11266e-05
-1.40947e-05
2.46508e-05
-1.40995e-05
2.81764e-05
-1.41051e-05
3.17037e-05
-1.41114e-05
3.52327e-05
-1.41185e-05
3.87637e-05
-1.41263e-05
4.22968e-05
-1.41348e-05
4.58322e-05
-1.41439e-05
4.93701e-05
-1.41537e-05
5.29107e-05
-1.4164e-05
5.64539e-05
-1.4175e-05
6.00001e-05
-1.41864e-05
6.35493e-05
-1.41983e-05
6.71016e-05
-1.42106e-05
7.06572e-05
-1.42234e-05
7.4216e-05
-1.42364e-05
7.77783e-05
-1.42498e-05
8.1344e-05
-1.42634e-05
8.49132e-05
-1.42772e-05
8.84859e-05
-1.4291e-05
9.20622e-05
-1.4305e-05
9.5642e-05
-1.43189e-05
9.92253e-05
-1.43327e-05
0.000102812
-1.43463e-05
0.000106402
-1.43597e-05
0.000109996
-1.43728e-05
0.000113593
-1.43855e-05
0.000117193
-1.43977e-05
0.000120796
-1.44093e-05
0.000124401
-1.44202e-05
0.00012801
-1.44303e-05
0.00013162
-1.44396e-05
0.000135233
-1.44479e-05
0.000138848
-1.44551e-05
0.000142465
-1.44611e-05
0.000146082
-1.44658e-05
0.000149701
-1.44691e-05
0.00015332
-1.44708e-05
0.000156939
-1.44709e-05
0.000160558
-1.44691e-05
0.000164176
-1.44655e-05
0.000167793
-1.44598e-05
0.000171408
-1.44519e-05
0.000175021
-1.44416e-05
0.00017863
-1.44289e-05
0.000182236
-1.44136e-05
0.000185838
-1.43955e-05
0.000189434
-1.43746e-05
0.000193024
-1.43505e-05
0.000196608
-1.43233e-05
0.000200184
-1.42927e-05
0.000203752
-1.42586e-05
0.000207311
-1.42209e-05
0.000210859
-1.41794e-05
0.000214396
-1.41339e-05
0.000217921
-1.40842e-05
0.000221432
-1.40303e-05
0.000224929
-1.3972e-05
0.000228411
-1.39091e-05
0.000231875
-1.38414e-05
0.000235322
-1.37689e-05
0.000238749
-1.36914e-05
0.000242156
-1.36087e-05
0.000245541
-1.35207e-05
0.000248903
-1.34272e-05
0.00025224
-1.33282e-05
0.000255551
-1.32235e-05
0.000258834
-1.31129e-05
0.000262089
-1.29965e-05
0.000265313
-1.28739e-05
0.000268504
-1.27452e-05
0.000271662
-1.26103e-05
0.000274785
-1.2469e-05
0.000277871
-1.23213e-05
0.000280919
-1.21671e-05
0.000283926
-1.20063e-05
0.000286892
-1.18389e-05
0.000289814
-1.16648e-05
0.000292691
-1.14841e-05
0.000295521
-1.12966e-05
0.000298302
-1.11024e-05
0.000301033
-1.09015e-05
0.000303713
-1.06938e-05
0.000306338
-1.04795e-05
0.000308909
-1.02584e-05
0.000311422
-1.00308e-05
0.000313877
-9.79659e-06
0.000316272
-9.55591e-06
0.000318604
-9.30883e-06
0.000320873
-9.05545e-06
0.000323078
-8.79588e-06
0.000325215
-8.53025e-06
0.000327285
-8.2587e-06
0.000329285
-7.98138e-06
0.000331215
-7.69844e-06
0.000333072
-7.41008e-06
0.000334855
-7.11647e-06
0.000336564
-6.81782e-06
0.000338197
-6.51434e-06
0.000339752
-6.20625e-06
0.000341229
-5.89379e-06
0.000342627
-5.57719e-06
0.000343944
-5.25672e-06
0.00034518
-4.93262e-06
0.000346334
-4.60518e-06
0.000347405
-4.27467e-06
0.000348393
-3.94138e-06
0.000349296
-3.60558e-06
0.000350115
-3.26759e-06
0.000350848
-2.9277e-06
0.000351496
-2.58622e-06
0.000352057
-2.24345e-06
0.000352533
-1.8997e-06
0.000352922
-1.55529e-06
0.000353225
-1.21052e-06
0.000353441
-8.65706e-07
0.000353571
-5.21158e-07
0.000353614
-1.77183e-07
0.000353572
1.65913e-07
0.000353443
5.07828e-07
0.00035323
8.48266e-07
0.000352931
1.18693e-06
0.000352548
1.52355e-06
0.000352082
1.85782e-06
0.000351532
2.18949e-06
0.000350899
2.51828e-06
0.000350186
2.84393e-06
0.000349391
3.16621e-06
0.000348516
3.48487e-06
0.000347563
3.79967e-06
0.000346531
4.11041e-06
0.000345423
4.41687e-06
0.00034424
4.71886e-06
0.000342981
5.01618e-06
0.00034165
5.30866e-06
0.000340246
5.59613e-06
0.000338772
5.87845e-06
0.000337228
6.15547e-06
0.000335617
6.42705e-06
0.000333939
6.69309e-06
0.000332195
6.95348e-06
0.000330388
7.20811e-06
0.000328519
7.45691e-06
0.000326589
7.6998e-06
0.000324599
7.93672e-06
0.000322552
8.16763e-06
0.000320448
8.39247e-06
0.00031829
8.61122e-06
0.000316079
8.82387e-06
0.000313816
9.03039e-06
0.000311503
9.2308e-06
0.000309141
9.42509e-06
0.000306733
9.6133e-06
0.000304279
9.79543e-06
0.000301781
9.97153e-06
0.00029924
1.01416e-05
0.000296658
1.03058e-05
0.000294037
1.04641e-05
0.000291378
1.06165e-05
0.000288682
1.07632e-05
0.000285951
1.09043e-05
0.000283187
1.10397e-05
0.00028039
1.11696e-05
0.000277561
1.12941e-05
0.000274703
1.14132e-05
0.000271817
1.15271e-05
0.000268904
1.16359e-05
0.000265965
1.17396e-05
0.000263001
1.18384e-05
0.000260014
1.19324e-05
0.000257004
1.20217e-05
0.000253974
1.21064e-05
0.000250923
1.21866e-05
0.000247854
1.22625e-05
0.000244767
1.23341e-05
0.000241663
1.24016e-05
0.000238543
1.24651e-05
0.000235409
1.25247e-05
0.00023226
1.25806e-05
0.000229099
1.26328e-05
0.000225926
1.26814e-05
0.000222741
1.27267e-05
0.000219546
1.27687e-05
0.000216342
1.28075e-05
0.000213128
1.28432e-05
0.000209907
1.2876e-05
0.000206678
1.29059e-05
0.000203442
1.29332e-05
0.000200201
1.29578e-05
0.000196954
1.29799e-05
0.000193702
1.29997e-05
0.000190445
1.30171e-05
0.000187186
1.30324e-05
0.000183922
1.30456e-05
0.000180657
1.30568e-05
0.000177388
1.30661e-05
0.000174119
1.30737e-05
0.000170847
1.30795e-05
0.000167575
1.30838e-05
0.000164302
1.30866e-05
0.000161029
1.30879e-05
0.000157756
1.30879e-05
0.000154483
1.30867e-05
0.000151211
1.30843e-05
0.00014794
1.30808e-05
0.00014467
1.30763e-05
0.000141402
1.30708e-05
0.000138135
1.30645e-05
0.00013487
1.30575e-05
0.000131607
1.30497e-05
0.000128346
1.30412e-05
0.000125088
1.30322e-05
0.000121832
1.30226e-05
0.000118578
1.30125e-05
0.000115327
1.30021e-05
0.000112079
1.29913e-05
0.000108834
1.29802e-05
0.000105591
1.29689e-05
0.000102352
1.29574e-05
9.91155e-05
1.29457e-05
9.5882e-05
1.2934e-05
9.26514e-05
1.29222e-05
8.94238e-05
1.29104e-05
8.61992e-05
1.28987e-05
8.29776e-05
1.2887e-05
7.97589e-05
1.28754e-05
7.6543e-05
1.2864e-05
7.333e-05
1.28528e-05
7.01198e-05
1.28418e-05
6.69123e-05
1.28311e-05
6.37074e-05
1.28206e-05
6.0505e-05
1.28105e-05
5.73052e-05
1.28007e-05
5.41077e-05
1.27913e-05
5.09125e-05
1.27822e-05
4.77195e-05
1.27736e-05
4.45285e-05
1.27655e-05
4.13395e-05
1.27577e-05
3.81523e-05
1.27505e-05
3.49668e-05
1.27437e-05
3.17829e-05
1.27375e-05
2.86004e-05
1.27318e-05
2.54193e-05
1.27266e-05
2.22393e-05
1.27219e-05
1.90603e-05
1.27178e-05
1.58822e-05
1.27143e-05
1.27049e-05
1.27114e-05
9.52815e-06
1.2709e-05
6.35185e-06
1.27072e-05
3.17585e-06
1.27061e-05
1.27055e-05
3.51908e-06
-1.76015e-05
7.03836e-06
-1.76026e-05
1.05581e-05
-1.76046e-05
1.40784e-05
-1.76077e-05
1.75996e-05
-1.76118e-05
2.11218e-05
-1.76169e-05
2.46452e-05
-1.76229e-05
2.81701e-05
-1.763e-05
3.16966e-05
-1.76379e-05
3.52249e-05
-1.76468e-05
3.87552e-05
-1.76566e-05
4.22876e-05
-1.76673e-05
4.58224e-05
-1.76787e-05
4.93598e-05
-1.7691e-05
5.28997e-05
-1.7704e-05
5.64425e-05
-1.77177e-05
5.99882e-05
-1.77321e-05
6.35369e-05
-1.77471e-05
6.70889e-05
-1.77626e-05
7.06441e-05
-1.77786e-05
7.42027e-05
-1.7795e-05
7.77647e-05
-1.78118e-05
8.13302e-05
-1.78289e-05
8.48993e-05
-1.78462e-05
8.8472e-05
-1.78637e-05
9.20482e-05
-1.78812e-05
9.56281e-05
-1.78987e-05
9.92116e-05
-1.79162e-05
0.000102799
-1.79334e-05
0.000106389
-1.79503e-05
0.000109983
-1.79668e-05
0.00011358
-1.79828e-05
0.000117181
-1.79982e-05
0.000120785
-1.80128e-05
0.000124391
-1.80267e-05
0.000128
-1.80395e-05
0.000131612
-1.80513e-05
0.000135226
-1.80619e-05
0.000138842
-1.80711e-05
0.00014246
-1.80788e-05
0.000146079
-1.80849e-05
0.000149699
-1.80892e-05
0.00015332
-1.80916e-05
0.000156941
-1.8092e-05
0.000160562
-1.809e-05
0.000164182
-1.80857e-05
0.000167801
-1.80788e-05
0.000171419
-1.80692e-05
0.000175034
-1.80567e-05
0.000178646
-1.8041e-05
0.000182254
-1.80222e-05
0.000185859
-1.79998e-05
0.000189458
-1.79739e-05
0.000193052
-1.79442e-05
0.000196639
-1.79104e-05
0.000200218
-1.78725e-05
0.00020379
-1.78302e-05
0.000207352
-1.77833e-05
0.000210905
-1.77316e-05
0.000214446
-1.7675e-05
0.000217975
-1.76133e-05
0.000221491
-1.75462e-05
0.000224992
-1.74736e-05
0.000228478
-1.73952e-05
0.000231948
-1.73109e-05
0.0002354
-1.72206e-05
0.000238832
-1.71239e-05
0.000242244
-1.70208e-05
0.000245635
-1.69111e-05
0.000249002
-1.67945e-05
0.000252345
-1.6671e-05
0.000255661
-1.65403e-05
0.000258951
-1.64023e-05
0.000262211
-1.62569e-05
0.000265441
-1.61039e-05
0.000268639
-1.59433e-05
0.000271804
-1.57747e-05
0.000274933
-1.55983e-05
0.000278026
-1.54138e-05
0.00028108
-1.52211e-05
0.000284094
-1.50202e-05
0.000287066
-1.48111e-05
0.000289994
-1.45936e-05
0.000292878
-1.43677e-05
0.000295715
-1.41334e-05
0.000298503
-1.38906e-05
0.000301241
-1.36394e-05
0.000303927
-1.33798e-05
0.000306559
-1.31118e-05
0.000309136
-1.28354e-05
0.000311656
-1.25508e-05
0.000314118
-1.22579e-05
0.000316519
-1.19569e-05
0.000318858
-1.16478e-05
0.000321133
-1.13309e-05
0.000323343
-1.10062e-05
0.000325487
-1.06739e-05
0.000327563
-1.03342e-05
0.000329568
-9.98722e-06
0.000331503
-9.63323e-06
0.000333366
-9.27242e-06
0.000335154
-8.90504e-06
0.000336868
-8.53133e-06
0.000338505
-8.15156e-06
0.000340065
-7.76601e-06
0.000341546
-7.37497e-06
0.000342947
-6.97876e-06
0.000344268
-6.57767e-06
0.000345508
-6.17205e-06
0.000346665
-5.76223e-06
0.000347739
-5.34856e-06
0.000348729
-4.93139e-06
0.000349634
-4.5111e-06
0.000350455
-4.08805e-06
0.00035119
-3.66262e-06
0.000351838
-3.23519e-06
0.000352401
-2.80615e-06
0.000352877
-2.37588e-06
0.000353267
-1.94478e-06
0.00035357
-1.51324e-06
0.000353785
-1.08164e-06
0.000353915
-6.50377e-07
0.000353957
-2.19838e-07
0.000353914
2.09597e-07
0.000353784
6.37548e-07
0.000353569
1.06364e-06
0.000353268
1.48751e-06
0.000352883
1.9088e-06
0.000352413
2.32716e-06
0.000351861
2.74224e-06
0.000351225
3.1537e-06
0.000350508
3.56124e-06
0.00034971
3.96454e-06
0.000348831
4.36329e-06
0.000347874
4.75721e-06
0.000346838
5.14602e-06
0.000345725
5.52947e-06
0.000344537
5.9073e-06
0.000343274
6.27928e-06
0.000341937
6.64519e-06
0.000340529
7.00482e-06
0.000339049
7.35798e-06
0.0003375
7.7045e-06
0.000335883
8.0442e-06
0.000334199
8.37695e-06
0.00033245
8.70261e-06
0.000330637
9.02106e-06
0.000328762
9.3322e-06
0.000326826
9.63593e-06
0.00032483
9.93218e-06
0.000322777
1.02209e-05
0.000320667
1.0502e-05
0.000318503
1.07755e-05
0.000316286
1.10413e-05
0.000314017
1.12995e-05
0.000311697
1.15499e-05
0.00030933
1.17928e-05
0.000306915
1.2028e-05
0.000304455
1.22556e-05
0.000301951
1.24756e-05
0.000299404
1.26882e-05
0.000296817
1.28933e-05
0.00029419
1.3091e-05
0.000291525
1.32815e-05
0.000288823
1.34647e-05
0.000286087
1.36408e-05
0.000283317
1.38099e-05
0.000280514
1.39722e-05
0.000277681
1.41276e-05
0.000274817
1.42763e-05
0.000271926
1.44185e-05
0.000269008
1.45543e-05
0.000266064
1.46837e-05
0.000263095
1.48071e-05
0.000260103
1.49243e-05
0.000257089