/*--------------------------------*- C++ -*----------------------------------*\
| =========                 |                                                 |
| \\      /  F ield         | OpenFOAM: The Open Source CFD Toolbox           |
|  \\    /   O peration     | Version:  v2012                                 |
|   \\  /    A nd           | Website:  www.openfoam.com                      |
|    \\/     M anipulation  |                                                 |
\*---------------------------------------------------------------------------*/
FoamFile
{
    version     2.0;
    format      ascii;
    class       volVectorField;
    location    "13.25";
    object      Psi;
}
// * * * * * * * * * * * * * * * * * * * * * * * * * * * * * * * * * * * * * //

dimensions      [0 2 -1 0 0 0 0];


internalField   nonuniform List<vector> 
65536
(
(0 0 8.80115e-06)
(0 0 2.6404e-05)
(0 0 4.40084e-05)
(0 0 6.16153e-05)
(0 0 7.92258e-05)
(0 0 9.68408e-05)
(0 0 0.000114461)
(0 0 0.000132088)
(0 0 0.000149723)
(0 0 0.000167365)
(0 0 0.000185017)
(0 0 0.000202679)
(0 0 0.000220352)
(0 0 0.000238037)
(0 0 0.000255734)
(0 0 0.000273445)
(0 0 0.000291169)
(0 0 0.000308908)
(0 0 0.000326661)
(0 0 0.000344431)
(0 0 0.000362216)
(0 0 0.000380018)
(0 0 0.000397836)
(0 0 0.000415671)
(0 0 0.000433524)
(0 0 0.000451393)
(0 0 0.00046928)
(0 0 0.000487184)
(0 0 0.000505105)
(0 0 0.000523042)
(0 0 0.000540996)
(0 0 0.000558966)
(0 0 0.000576951)
(0 0 0.000594951)
(0 0 0.000612964)
(0 0 0.00063099)
(0 0 0.000649029)
(0 0 0.000667078)
(0 0 0.000685136)
(0 0 0.000703202)
(0 0 0.000721275)
(0 0 0.000739353)
(0 0 0.000757433)
(0 0 0.000775514)
(0 0 0.000793594)
(0 0 0.00081167)
(0 0 0.000829739)
(0 0 0.0008478)
(0 0 0.00086585)
(0 0 0.000883884)
(0 0 0.000901901)
(0 0 0.000919896)
(0 0 0.000937867)
(0 0 0.00095581)
(0 0 0.000973719)
(0 0 0.000991593)
(0 0 0.00100943)
(0 0 0.00102721)
(0 0 0.00104495)
(0 0 0.00106263)
(0 0 0.00108026)
(0 0 0.00109781)
(0 0 0.0011153)
(0 0 0.00113271)
(0 0 0.00115004)
(0 0 0.00116728)
(0 0 0.00118443)
(0 0 0.00120148)
(0 0 0.00121842)
(0 0 0.00123524)
(0 0 0.00125195)
(0 0 0.00126853)
(0 0 0.00128497)
(0 0 0.00130127)
(0 0 0.00131743)
(0 0 0.00133342)
(0 0 0.00134925)
(0 0 0.00136491)
(0 0 0.00138038)
(0 0 0.00139567)
(0 0 0.00141076)
(0 0 0.00142565)
(0 0 0.00144032)
(0 0 0.00145477)
(0 0 0.00146899)
(0 0 0.00148298)
(0 0 0.00149671)
(0 0 0.00151019)
(0 0 0.00152341)
(0 0 0.00153635)
(0 0 0.00154902)
(0 0 0.0015614)
(0 0 0.00157348)
(0 0 0.00158525)
(0 0 0.00159672)
(0 0 0.00160786)
(0 0 0.00161867)
(0 0 0.00162916)
(0 0 0.00163929)
(0 0 0.00164908)
(0 0 0.00165851)
(0 0 0.00166758)
(0 0 0.00167628)
(0 0 0.00168461)
(0 0 0.00169255)
(0 0 0.00170011)
(0 0 0.00170727)
(0 0 0.00171404)
(0 0 0.0017204)
(0 0 0.00172636)
(0 0 0.00173191)
(0 0 0.00173704)
(0 0 0.00174176)
(0 0 0.00174605)
(0 0 0.00174993)
(0 0 0.00175337)
(0 0 0.0017564)
(0 0 0.00175899)
(0 0 0.00176115)
(0 0 0.00176289)
(0 0 0.00176419)
(0 0 0.00176507)
(0 0 0.00176551)
(0 0 0.00176553)
(0 0 0.00176512)
(0 0 0.00176428)
(0 0 0.00176302)
(0 0 0.00176134)
(0 0 0.00175924)
(0 0 0.00175672)
(0 0 0.0017538)
(0 0 0.00175046)
(0 0 0.00174672)
(0 0 0.00174258)
(0 0 0.00173804)
(0 0 0.00173312)
(0 0 0.0017278)
(0 0 0.00172211)
(0 0 0.00171605)
(0 0 0.00170961)
(0 0 0.00170282)
(0 0 0.00169567)
(0 0 0.00168816)
(0 0 0.00168032)
(0 0 0.00167214)
(0 0 0.00166363)
(0 0 0.0016548)
(0 0 0.00164566)
(0 0 0.0016362)
(0 0 0.00162645)
(0 0 0.00161641)
(0 0 0.00160608)
(0 0 0.00159547)
(0 0 0.00158459)
(0 0 0.00157345)
(0 0 0.00156206)
(0 0 0.00155042)
(0 0 0.00153854)
(0 0 0.00152643)
(0 0 0.00151409)
(0 0 0.00150154)
(0 0 0.00148878)
(0 0 0.00147582)
(0 0 0.00146266)
(0 0 0.00144931)
(0 0 0.00143579)
(0 0 0.00142209)
(0 0 0.00140822)
(0 0 0.0013942)
(0 0 0.00138002)
(0 0 0.0013657)
(0 0 0.00135124)
(0 0 0.00133664)
(0 0 0.00132192)
(0 0 0.00130707)
(0 0 0.00129212)
(0 0 0.00127705)
(0 0 0.00126188)
(0 0 0.00124661)
(0 0 0.00123124)
(0 0 0.0012158)
(0 0 0.00120026)
(0 0 0.00118465)
(0 0 0.00116897)
(0 0 0.00115322)
(0 0 0.00113741)
(0 0 0.00112154)
(0 0 0.00110561)
(0 0 0.00108963)
(0 0 0.00107361)
(0 0 0.00105754)
(0 0 0.00104143)
(0 0 0.00102529)
(0 0 0.00100911)
(0 0 0.000992903)
(0 0 0.00097667)
(0 0 0.000960414)
(0 0 0.000944136)
(0 0 0.000927841)
(0 0 0.00091153)
(0 0 0.000895206)
(0 0 0.000878871)
(0 0 0.000862527)
(0 0 0.000846177)
(0 0 0.000829822)
(0 0 0.000813464)
(0 0 0.000797105)
(0 0 0.000780746)
(0 0 0.00076439)
(0 0 0.000748037)
(0 0 0.000731689)
(0 0 0.000715347)
(0 0 0.000699012)
(0 0 0.000682685)
(0 0 0.000666367)
(0 0 0.000650059)
(0 0 0.000633762)
(0 0 0.000617476)
(0 0 0.000601203)
(0 0 0.000584942)
(0 0 0.000568694)
(0 0 0.00055246)
(0 0 0.000536239)
(0 0 0.000520033)
(0 0 0.000503841)
(0 0 0.000487663)
(0 0 0.0004715)
(0 0 0.000455352)
(0 0 0.000439218)
(0 0 0.000423099)
(0 0 0.000406995)
(0 0 0.000390904)
(0 0 0.000374828)
(0 0 0.000358765)
(0 0 0.000342716)
(0 0 0.00032668)
(0 0 0.000310657)
(0 0 0.000294646)
(0 0 0.000278647)
(0 0 0.00026266)
(0 0 0.000246683)
(0 0 0.000230717)
(0 0 0.000214761)
(0 0 0.000198814)
(0 0 0.000182876)
(0 0 0.000166946)
(0 0 0.000151024)
(0 0 0.000135108)
(0 0 0.000119198)
(0 0 0.000103294)
(0 0 8.73947e-05)
(0 0 7.14992e-05)
(0 0 5.56071e-05)
(0 0 3.97175e-05)
(0 0 2.38298e-05)
(0 0 7.94314e-06)
(0 0 2.6403e-05)
(0 0 7.92106e-05)
(0 0 0.000132023)
(0 0 0.000184843)
(0 0 0.000237673)
(0 0 0.000290517)
(0 0 0.000343378)
(0 0 0.000396258)
(0 0 0.00044916)
(0 0 0.000502088)
(0 0 0.000555043)
(0 0 0.000608028)
(0 0 0.000661046)
(0 0 0.0007141)
(0 0 0.000767191)
(0 0 0.000820321)
(0 0 0.000873493)
(0 0 0.000926709)
(0 0 0.00097997)
(0 0 0.00103328)
(0 0 0.00108663)
(0 0 0.00114004)
(0 0 0.00119349)
(0 0 0.001247)
(0 0 0.00130055)
(0 0 0.00135416)
(0 0 0.00140782)
(0 0 0.00146154)
(0 0 0.0015153)
(0 0 0.00156911)
(0 0 0.00162297)
(0 0 0.00167688)
(0 0 0.00173084)
(0 0 0.00178484)
(0 0 0.00183888)
(0 0 0.00189296)
(0 0 0.00194708)
(0 0 0.00200123)
(0 0 0.0020554)
(0 0 0.0021096)
(0 0 0.00216382)
(0 0 0.00221806)
(0 0 0.0022723)
(0 0 0.00232655)
(0 0 0.00238079)
(0 0 0.00243502)
(0 0 0.00248923)
(0 0 0.00254342)
(0 0 0.00259757)
(0 0 0.00265167)
(0 0 0.00270573)
(0 0 0.00275972)
(0 0 0.00281363)
(0 0 0.00286746)
(0 0 0.0029212)
(0 0 0.00297482)
(0 0 0.00302832)
(0 0 0.00308169)
(0 0 0.00313491)
(0 0 0.00318796)
(0 0 0.00324084)
(0 0 0.00329351)
(0 0 0.00334598)
(0 0 0.00339822)
(0 0 0.00345022)
(0 0 0.00350195)
(0 0 0.0035534)
(0 0 0.00360454)
(0 0 0.00365537)
(0 0 0.00370586)
(0 0 0.00375598)
(0 0 0.00380572)
(0 0 0.00385506)
(0 0 0.00390397)
(0 0 0.00395244)
(0 0 0.00400043)
(0 0 0.00404793)
(0 0 0.00409491)
(0 0 0.00414134)
(0 0 0.00418721)
(0 0 0.0042325)
(0 0 0.00427716)
(0 0 0.00432119)
(0 0 0.00436455)
(0 0 0.00440722)
(0 0 0.00444917)
(0 0 0.00449039)
(0 0 0.00453084)
(0 0 0.0045705)
(0 0 0.00460934)
(0 0 0.00464734)
(0 0 0.00468448)
(0 0 0.00472073)
(0 0 0.00475607)
(0 0 0.00479047)
(0 0 0.0048239)
(0 0 0.00485636)
(0 0 0.00488781)
(0 0 0.00491823)
(0 0 0.0049476)
(0 0 0.00497591)
(0 0 0.00500312)
(0 0 0.00502923)
(0 0 0.00505421)
(0 0 0.00507804)
(0 0 0.00510071)
(0 0 0.00512221)
(0 0 0.00514251)
(0 0 0.00516161)
(0 0 0.00517949)
(0 0 0.00519613)
(0 0 0.00521154)
(0 0 0.00522569)
(0 0 0.00523858)
(0 0 0.0052502)
(0 0 0.00526055)
(0 0 0.00526961)
(0 0 0.0052774)
(0 0 0.00528389)
(0 0 0.00528909)
(0 0 0.00529301)
(0 0 0.00529563)
(0 0 0.00529696)
(0 0 0.00529701)
(0 0 0.00529578)
(0 0 0.00529326)
(0 0 0.00528948)
(0 0 0.00528443)
(0 0 0.00527813)
(0 0 0.00527058)
(0 0 0.00526179)
(0 0 0.00525178)
(0 0 0.00524055)
(0 0 0.00522813)
(0 0 0.00521452)
(0 0 0.00519973)
(0 0 0.00518379)
(0 0 0.00516671)
(0 0 0.00514851)
(0 0 0.0051292)
(0 0 0.0051088)
(0 0 0.00508734)
(0 0 0.00506483)
(0 0 0.00504129)
(0 0 0.00501675)
(0 0 0.00499121)
(0 0 0.00496471)
(0 0 0.00493727)
(0 0 0.00490891)
(0 0 0.00487964)
(0 0 0.0048495)
(0 0 0.0048185)
(0 0 0.00478667)
(0 0 0.00475404)
(0 0 0.00472061)
(0 0 0.00468642)
(0 0 0.00465149)
(0 0 0.00461585)
(0 0 0.00457951)
(0 0 0.00454249)
(0 0 0.00450483)
(0 0 0.00446654)
(0 0 0.00442764)
(0 0 0.00438816)
(0 0 0.00434811)
(0 0 0.00430753)
(0 0 0.00426643)
(0 0 0.00422483)
(0 0 0.00418275)
(0 0 0.00414021)
(0 0 0.00409724)
(0 0 0.00405384)
(0 0 0.00401005)
(0 0 0.00396587)
(0 0 0.00392134)
(0 0 0.00387645)
(0 0 0.00383124)
(0 0 0.00378572)
(0 0 0.00373991)
(0 0 0.00369382)
(0 0 0.00364747)
(0 0 0.00360086)
(0 0 0.00355403)
(0 0 0.00350698)
(0 0 0.00345973)
(0 0 0.00341228)
(0 0 0.00336466)
(0 0 0.00331688)
(0 0 0.00326894)
(0 0 0.00322086)
(0 0 0.00317265)
(0 0 0.00312432)
(0 0 0.00307589)
(0 0 0.00302736)
(0 0 0.00297873)
(0 0 0.00293003)
(0 0 0.00288126)
(0 0 0.00283242)
(0 0 0.00278354)
(0 0 0.0027346)
(0 0 0.00268563)
(0 0 0.00263662)
(0 0 0.00258759)
(0 0 0.00253853)
(0 0 0.00248947)
(0 0 0.00244039)
(0 0 0.00239131)
(0 0 0.00234224)
(0 0 0.00229316)
(0 0 0.0022441)
(0 0 0.00219506)
(0 0 0.00214603)
(0 0 0.00209702)
(0 0 0.00204804)
(0 0 0.00199909)
(0 0 0.00195016)
(0 0 0.00190127)
(0 0 0.00185241)
(0 0 0.00180359)
(0 0 0.00175481)
(0 0 0.00170607)
(0 0 0.00165736)
(0 0 0.0016087)
(0 0 0.00156008)
(0 0 0.00151151)
(0 0 0.00146297)
(0 0 0.00141449)
(0 0 0.00136604)
(0 0 0.00131764)
(0 0 0.00126928)
(0 0 0.00122097)
(0 0 0.0011727)
(0 0 0.00112447)
(0 0 0.00107628)
(0 0 0.00102813)
(0 0 0.000980026)
(0 0 0.000931957)
(0 0 0.000883925)
(0 0 0.000835929)
(0 0 0.000787967)
(0 0 0.000740039)
(0 0 0.000692141)
(0 0 0.000644274)
(0 0 0.000596434)
(0 0 0.00054862)
(0 0 0.000500831)
(0 0 0.000453064)
(0 0 0.000405318)
(0 0 0.000357589)
(0 0 0.000309878)
(0 0 0.00026218)
(0 0 0.000214494)
(0 0 0.000166819)
(0 0 0.000119151)
(0 0 7.14882e-05)
(0 0 2.3829e-05)
(0 0 4.40034e-05)
(0 0 0.000132013)
(0 0 0.00022003)
(0 0 0.000308059)
(0 0 0.000396107)
(0 0 0.000484177)
(0 0 0.000572275)
(0 0 0.000660405)
(0 0 0.000748573)
(0 0 0.000836782)
(0 0 0.000925038)
(0 0 0.00101334)
(0 0 0.00110171)
(0 0 0.00119012)
(0 0 0.00127861)
(0 0 0.00136716)
(0 0 0.00145577)
(0 0 0.00154447)
(0 0 0.00163323)
(0 0 0.00172208)
(0 0 0.001811)
(0 0 0.00190001)
(0 0 0.0019891)
(0 0 0.00207827)
(0 0 0.00216753)
(0 0 0.00225688)
(0 0 0.00234632)
(0 0 0.00243584)
(0 0 0.00252544)
(0 0 0.00261513)
(0 0 0.0027049)
(0 0 0.00279476)
(0 0 0.00288468)
(0 0 0.00297469)
(0 0 0.00306476)
(0 0 0.0031549)
(0 0 0.00324509)
(0 0 0.00333534)
(0 0 0.00342564)
(0 0 0.00351598)
(0 0 0.00360636)
(0 0 0.00369675)
(0 0 0.00378716)
(0 0 0.00387758)
(0 0 0.00396799)
(0 0 0.00405838)
(0 0 0.00414875)
(0 0 0.00423906)
(0 0 0.00432933)
(0 0 0.00441951)
(0 0 0.00450962)
(0 0 0.00459961)
(0 0 0.00468948)
(0 0 0.00477921)
(0 0 0.00486878)
(0 0 0.00495817)
(0 0 0.00504736)
(0 0 0.00513632)
(0 0 0.00522503)
(0 0 0.00531347)
(0 0 0.00540161)
(0 0 0.00548943)
(0 0 0.00557689)
(0 0 0.00566398)
(0 0 0.00575065)
(0 0 0.00583689)
(0 0 0.00592266)
(0 0 0.00600793)
(0 0 0.00609266)
(0 0 0.00617683)
(0 0 0.00626039)
(0 0 0.00634332)
(0 0 0.00642558)
(0 0 0.00650712)
(0 0 0.00658792)
(0 0 0.00666793)
(0 0 0.00674712)
(0 0 0.00682545)
(0 0 0.00690287)
(0 0 0.00697935)
(0 0 0.00705484)
(0 0 0.00712931)
(0 0 0.00720272)
(0 0 0.00727501)
(0 0 0.00734616)
(0 0 0.00741611)
(0 0 0.00748483)
(0 0 0.00755228)
(0 0 0.0076184)
(0 0 0.00768317)
(0 0 0.00774654)
(0 0 0.00780846)
(0 0 0.0078689)
(0 0 0.00792782)
(0 0 0.00798518)
(0 0 0.00804093)
(0 0 0.00809505)
(0 0 0.00814749)
(0 0 0.00819822)
(0 0 0.00824719)
(0 0 0.00829439)
(0 0 0.00833977)
(0 0 0.0083833)
(0 0 0.00842495)
(0 0 0.00846469)
(0 0 0.0085025)
(0 0 0.00853834)
(0 0 0.00857219)
(0 0 0.00860404)
(0 0 0.00863384)
(0 0 0.0086616)
(0 0 0.00868728)
(0 0 0.00871088)
(0 0 0.00873237)
(0 0 0.00875175)
(0 0 0.008769)
(0 0 0.00878412)
(0 0 0.00879709)
(0 0 0.00880792)
(0 0 0.00881659)
(0 0 0.00882311)
(0 0 0.00882748)
(0 0 0.0088297)
(0 0 0.00882978)
(0 0 0.00882771)
(0 0 0.00882352)
(0 0 0.00881721)
(0 0 0.00880878)
(0 0 0.00879827)
(0 0 0.00878567)
(0 0 0.00877102)
(0 0 0.00875431)
(0 0 0.00873559)
(0 0 0.00871486)
(0 0 0.00869216)
(0 0 0.0086675)
(0 0 0.00864092)
(0 0 0.00861243)
(0 0 0.00858207)
(0 0 0.00854987)
(0 0 0.00851586)
(0 0 0.00848007)
(0 0 0.00844253)
(0 0 0.00840327)
(0 0 0.00836234)
(0 0 0.00831976)
(0 0 0.00827557)
(0 0 0.00822981)
(0 0 0.00818251)
(0 0 0.00813371)
(0 0 0.00808345)
(0 0 0.00803176)
(0 0 0.00797869)
(0 0 0.00792427)
(0 0 0.00786853)
(0 0 0.00781153)
(0 0 0.00775329)
(0 0 0.00769385)
(0 0 0.00763326)
(0 0 0.00757154)
(0 0 0.00750874)
(0 0 0.0074449)
(0 0 0.00738005)
(0 0 0.00731422)
(0 0 0.00724746)
(0 0 0.0071798)
(0 0 0.00711127)
(0 0 0.00704191)
(0 0 0.00697175)
(0 0 0.00690084)
(0 0 0.00682919)
(0 0 0.00675685)
(0 0 0.00668384)
(0 0 0.00661019)
(0 0 0.00653594)
(0 0 0.00646112)
(0 0 0.00638575)
(0 0 0.00630987)
(0 0 0.00623349)
(0 0 0.00615666)
(0 0 0.00607938)
(0 0 0.0060017)
(0 0 0.00592363)
(0 0 0.0058452)
(0 0 0.00576643)
(0 0 0.00568734)
(0 0 0.00560795)
(0 0 0.0055283)
(0 0 0.00544839)
(0 0 0.00536824)
(0 0 0.00528788)
(0 0 0.00520733)
(0 0 0.00512659)
(0 0 0.00504569)
(0 0 0.00496464)
(0 0 0.00488346)
(0 0 0.00480217)
(0 0 0.00472077)
(0 0 0.00463928)
(0 0 0.00455771)
(0 0 0.00447608)
(0 0 0.00439439)
(0 0 0.00431266)
(0 0 0.0042309)
(0 0 0.00414912)
(0 0 0.00406732)
(0 0 0.00398552)
(0 0 0.00390372)
(0 0 0.00382193)
(0 0 0.00374016)
(0 0 0.00365841)
(0 0 0.00357669)
(0 0 0.00349501)
(0 0 0.00341337)
(0 0 0.00333178)
(0 0 0.00325024)
(0 0 0.00316875)
(0 0 0.00308732)
(0 0 0.00300595)
(0 0 0.00292464)
(0 0 0.0028434)
(0 0 0.00276223)
(0 0 0.00268112)
(0 0 0.00260009)
(0 0 0.00251913)
(0 0 0.00243824)
(0 0 0.00235743)
(0 0 0.00227669)
(0 0 0.00219602)
(0 0 0.00211542)
(0 0 0.0020349)
(0 0 0.00195445)
(0 0 0.00187407)
(0 0 0.00179376)
(0 0 0.00171351)
(0 0 0.00163333)
(0 0 0.00155322)
(0 0 0.00147317)
(0 0 0.00139318)
(0 0 0.00131324)
(0 0 0.00123336)
(0 0 0.00115354)
(0 0 0.00107376)
(0 0 0.000994027)
(0 0 0.00091434)
(0 0 0.000834693)
(0 0 0.000755084)
(0 0 0.000675509)
(0 0 0.000595964)
(0 0 0.000516447)
(0 0 0.000436953)
(0 0 0.000357479)
(0 0 0.000278022)
(0 0 0.000198578)
(0 0 0.000119143)
(0 0 3.97138e-05)
(0 0 6.16012e-05)
(0 0 0.000184807)
(0 0 0.000308024)
(0 0 0.000431258)
(0 0 0.000554518)
(0 0 0.000677809)
(0 0 0.000801139)
(0 0 0.000924515)
(0 0 0.00104794)
(0 0 0.00117143)
(0 0 0.00129498)
(0 0 0.0014186)
(0 0 0.0015423)
(0 0 0.00166609)
(0 0 0.00178996)
(0 0 0.00191392)
(0 0 0.00203798)
(0 0 0.00216215)
(0 0 0.00228641)
(0 0 0.00241079)
(0 0 0.00253528)
(0 0 0.00265989)
(0 0 0.00278462)
(0 0 0.00290946)
(0 0 0.00303443)
(0 0 0.00315951)
(0 0 0.00328472)
(0 0 0.00341005)
(0 0 0.0035355)
(0 0 0.00366107)
(0 0 0.00378675)
(0 0 0.00391255)
(0 0 0.00403846)
(0 0 0.00416446)
(0 0 0.00429057)
(0 0 0.00441677)
(0 0 0.00454306)
(0 0 0.00466942)
(0 0 0.00479585)
(0 0 0.00492233)
(0 0 0.00504887)
(0 0 0.00517543)
(0 0 0.00530202)
(0 0 0.00542862)
(0 0 0.00555521)
(0 0 0.00568178)
(0 0 0.0058083)
(0 0 0.00593477)
(0 0 0.00606116)
(0 0 0.00618744)
(0 0 0.00631361)
(0 0 0.00643963)
(0 0 0.00656547)
(0 0 0.00669113)
(0 0 0.00681655)
(0 0 0.00694173)
(0 0 0.00706662)
(0 0 0.00719119)
(0 0 0.00731542)
(0 0 0.00743927)
(0 0 0.00756271)
(0 0 0.00768569)
(0 0 0.00780818)
(0 0 0.00793014)
(0 0 0.00805153)
(0 0 0.00817231)
(0 0 0.00829243)
(0 0 0.00841185)
(0 0 0.00853052)
(0 0 0.0086484)
(0 0 0.00876544)
(0 0 0.00888159)
(0 0 0.0089968)
(0 0 0.00911102)
(0 0 0.00922419)
(0 0 0.00933626)
(0 0 0.00944718)
(0 0 0.00955689)
(0 0 0.00966534)
(0 0 0.00977246)
(0 0 0.00987822)
(0 0 0.00998253)
(0 0 0.0100854)
(0 0 0.0101866)
(0 0 0.0102863)
(0 0 0.0103843)
(0 0 0.0104806)
(0 0 0.010575)
(0 0 0.0106677)
(0 0 0.0107584)
(0 0 0.0108472)
(0 0 0.0109339)
(0 0 0.0110186)
(0 0 0.0111011)
(0 0 0.0111815)
(0 0 0.0112596)
(0 0 0.0113354)
(0 0 0.0114089)
(0 0 0.01148)
(0 0 0.0115486)
(0 0 0.0116147)
(0 0 0.0116783)
(0 0 0.0117392)
(0 0 0.0117976)
(0 0 0.0118533)
(0 0 0.0119062)
(0 0 0.0119565)
(0 0 0.0120039)
(0 0 0.0120485)
(0 0 0.0120903)
(0 0 0.0121291)
(0 0 0.0121651)
(0 0 0.0121982)
(0 0 0.0122283)
(0 0 0.0122554)
(0 0 0.0122796)
(0 0 0.0123008)
(0 0 0.0123189)
(0 0 0.0123341)
(0 0 0.0123462)
(0 0 0.0123554)
(0 0 0.0123615)
(0 0 0.0123646)
(0 0 0.0123647)
(0 0 0.0123618)
(0 0 0.0123559)
(0 0 0.012347)
(0 0 0.0123352)
(0 0 0.0123205)
(0 0 0.0123028)
(0 0 0.0122823)
(0 0 0.0122589)
(0 0 0.0122326)
(0 0 0.0122036)
(0 0 0.0121718)
(0 0 0.0121372)
(0 0 0.0120999)
(0 0 0.01206)
(0 0 0.0120175)
(0 0 0.0119724)
(0 0 0.0119247)
(0 0 0.0118745)
(0 0 0.0118219)
(0 0 0.0117669)
(0 0 0.0117096)
(0 0 0.0116499)
(0 0 0.011588)
(0 0 0.0115239)
(0 0 0.0114576)
(0 0 0.0113892)
(0 0 0.0113188)
(0 0 0.0112464)
(0 0 0.0111721)
(0 0 0.0110958)
(0 0 0.0110177)
(0 0 0.0109379)
(0 0 0.0108563)
(0 0 0.010773)
(0 0 0.0106881)
(0 0 0.0106017)
(0 0 0.0105137)
(0 0 0.0104243)
(0 0 0.0103334)
(0 0 0.0102412)
(0 0 0.0101477)
(0 0 0.0100529)
(0 0 0.00995694)
(0 0 0.00985979)
(0 0 0.00976153)
(0 0 0.00966219)
(0 0 0.00956184)
(0 0 0.00946052)
(0 0 0.00935826)
(0 0 0.00925511)
(0 0 0.00915112)
(0 0 0.00904633)
(0 0 0.00894078)
(0 0 0.0088345)
(0 0 0.00872754)
(0 0 0.00861993)
(0 0 0.00851171)
(0 0 0.00840292)
(0 0 0.00829359)
(0 0 0.00818375)
(0 0 0.00807344)
(0 0 0.00796269)
(0 0 0.00785152)
(0 0 0.00773997)
(0 0 0.00762807)
(0 0 0.00751584)
(0 0 0.00740331)
(0 0 0.00729051)
(0 0 0.00717746)
(0 0 0.00706417)
(0 0 0.00695069)
(0 0 0.00683701)
(0 0 0.00672318)
(0 0 0.0066092)
(0 0 0.0064951)
(0 0 0.00638089)
(0 0 0.00626658)
(0 0 0.00615221)
(0 0 0.00603777)
(0 0 0.00592329)
(0 0 0.00580878)
(0 0 0.00569426)
(0 0 0.00557972)
(0 0 0.00546519)
(0 0 0.00535068)
(0 0 0.00523619)
(0 0 0.00512173)
(0 0 0.00500732)
(0 0 0.00489296)
(0 0 0.00477866)
(0 0 0.00466442)
(0 0 0.00455026)
(0 0 0.00443617)
(0 0 0.00432216)
(0 0 0.00420824)
(0 0 0.0040944)
(0 0 0.00398066)
(0 0 0.00386702)
(0 0 0.00375347)
(0 0 0.00364002)
(0 0 0.00352668)
(0 0 0.00341344)
(0 0 0.00330029)
(0 0 0.00318726)
(0 0 0.00307432)
(0 0 0.00296149)
(0 0 0.00284876)
(0 0 0.00273613)
(0 0 0.0026236)
(0 0 0.00251116)
(0 0 0.00239882)
(0 0 0.00228658)
(0 0 0.00217442)
(0 0 0.00206235)
(0 0 0.00195037)
(0 0 0.00183846)
(0 0 0.00172663)
(0 0 0.00161488)
(0 0 0.0015032)
(0 0 0.00139158)
(0 0 0.00128002)
(0 0 0.00116852)
(0 0 0.00105707)
(0 0 0.00094567)
(0 0 0.000834312)
(0 0 0.000722992)
(0 0 0.000611706)
(0 0 0.000500448)
(0 0 0.000389213)
(0 0 0.000277997)
(0 0 0.000166793)
(0 0 5.55967e-05)
(0 0 7.91953e-05)
(0 0 0.000237591)
(0 0 0.000396)
(0 0 0.000554432)
(0 0 0.000712897)
(0 0 0.000871402)
(0 0 0.00102996)
(0 0 0.00118857)
(0 0 0.00134725)
(0 0 0.00150601)
(0 0 0.00166485)
(0 0 0.00182379)
(0 0 0.00198282)
(0 0 0.00214196)
(0 0 0.00230121)
(0 0 0.00246059)
(0 0 0.00262009)
(0 0 0.00277972)
(0 0 0.00293949)
(0 0 0.0030994)
(0 0 0.00325945)
(0 0 0.00341966)
(0 0 0.00358002)
(0 0 0.00374053)
(0 0 0.0039012)
(0 0 0.00406202)
(0 0 0.00422301)
(0 0 0.00438415)
(0 0 0.00454544)
(0 0 0.00470689)
(0 0 0.00486849)
(0 0 0.00503024)
(0 0 0.00519212)
(0 0 0.00535414)
(0 0 0.00551629)
(0 0 0.00567856)
(0 0 0.00584094)
(0 0 0.00600342)
(0 0 0.00616599)
(0 0 0.00632863)
(0 0 0.00649134)
(0 0 0.00665409)
(0 0 0.00681687)
(0 0 0.00697967)
(0 0 0.00714246)
(0 0 0.00730522)
(0 0 0.00746792)
(0 0 0.00763056)
(0 0 0.00779309)
(0 0 0.0079555)
(0 0 0.00811775)
(0 0 0.00827981)
(0 0 0.00844166)
(0 0 0.00860326)
(0 0 0.00876457)
(0 0 0.00892556)
(0 0 0.00908619)
(0 0 0.00924642)
(0 0 0.0094062)
(0 0 0.0095655)
(0 0 0.00972426)
(0 0 0.00988244)
(0 0 0.01004)
(0 0 0.0101969)
(0 0 0.010353)
(0 0 0.0105084)
(0 0 0.0106629)
(0 0 0.0108165)
(0 0 0.0109692)
(0 0 0.0111208)
(0 0 0.0112714)
(0 0 0.0114208)
(0 0 0.011569)
(0 0 0.011716)
(0 0 0.0118616)
(0 0 0.0120057)
(0 0 0.0121484)
(0 0 0.0122896)
(0 0 0.0124291)
(0 0 0.012567)
(0 0 0.012703)
(0 0 0.0128372)
(0 0 0.0129695)
(0 0 0.0130999)
(0 0 0.0132281)
(0 0 0.0133542)
(0 0 0.0134781)
(0 0 0.0135996)
(0 0 0.0137188)
(0 0 0.0138356)
(0 0 0.0139498)
(0 0 0.0140615)
(0 0 0.0141704)
(0 0 0.0142766)
(0 0 0.01438)
(0 0 0.0144806)
(0 0 0.0145781)
(0 0 0.0146727)
(0 0 0.0147641)
(0 0 0.0148524)
(0 0 0.0149375)
(0 0 0.0150193)
(0 0 0.0150978)
(0 0 0.0151729)
(0 0 0.0152446)
(0 0 0.0153127)
(0 0 0.0153774)
(0 0 0.0154384)
(0 0 0.0154958)
(0 0 0.0155495)
(0 0 0.0155996)
(0 0 0.0156459)
(0 0 0.0156884)
(0 0 0.0157272)
(0 0 0.0157621)
(0 0 0.0157932)
(0 0 0.0158204)
(0 0 0.0158438)
(0 0 0.0158633)
(0 0 0.0158789)
(0 0 0.0158906)
(0 0 0.0158985)
(0 0 0.0159025)
(0 0 0.0159026)
(0 0 0.0158988)
(0 0 0.0158912)
(0 0 0.0158798)
(0 0 0.0158646)
(0 0 0.0158456)
(0 0 0.0158229)
(0 0 0.0157964)
(0 0 0.0157663)
(0 0 0.0157325)
(0 0 0.0156951)
(0 0 0.0156541)
(0 0 0.0156096)
(0 0 0.0155616)
(0 0 0.0155102)
(0 0 0.0154555)
(0 0 0.0153974)
(0 0 0.015336)
(0 0 0.0152715)
(0 0 0.0152037)
(0 0 0.0151329)
(0 0 0.0150591)
(0 0 0.0149823)
(0 0 0.0149026)
(0 0 0.0148201)
(0 0 0.0147348)
(0 0 0.0146468)
(0 0 0.0145562)
(0 0 0.014463)
(0 0 0.0143673)
(0 0 0.0142692)
(0 0 0.0141687)
(0 0 0.0140659)
(0 0 0.0139609)
(0 0 0.0138538)
(0 0 0.0137446)
(0 0 0.0136333)
(0 0 0.0135201)
(0 0 0.0134051)
(0 0 0.0132882)
(0 0 0.0131695)
(0 0 0.0130492)
(0 0 0.0129273)
(0 0 0.0128038)
(0 0 0.0126788)
(0 0 0.0125524)
(0 0 0.0124246)
(0 0 0.0122955)
(0 0 0.0121651)
(0 0 0.0120336)
(0 0 0.0119009)
(0 0 0.0117671)
(0 0 0.0116323)
(0 0 0.0114965)
(0 0 0.0113598)
(0 0 0.0112222)
(0 0 0.0110838)
(0 0 0.0109446)
(0 0 0.0108047)
(0 0 0.0106641)
(0 0 0.0105228)
(0 0 0.0103809)
(0 0 0.0102384)
(0 0 0.0100955)
(0 0 0.009952)
(0 0 0.00980808)
(0 0 0.00966374)
(0 0 0.00951902)
(0 0 0.00937395)
(0 0 0.00922855)
(0 0 0.00908286)
(0 0 0.00893691)
(0 0 0.00879073)
(0 0 0.00864434)
(0 0 0.00849776)
(0 0 0.00835102)
(0 0 0.00820415)
(0 0 0.00805717)
(0 0 0.00791009)
(0 0 0.00776293)
(0 0 0.00761572)
(0 0 0.00746847)
(0 0 0.0073212)
(0 0 0.00717392)
(0 0 0.00702665)
(0 0 0.0068794)
(0 0 0.00673218)
(0 0 0.00658501)
(0 0 0.0064379)
(0 0 0.00629085)
(0 0 0.00614388)
(0 0 0.00599699)
(0 0 0.0058502)
(0 0 0.00570351)
(0 0 0.00555692)
(0 0 0.00541044)
(0 0 0.00526408)
(0 0 0.00511783)
(0 0 0.00497171)
(0 0 0.00482572)
(0 0 0.00467986)
(0 0 0.00453413)
(0 0 0.00438853)
(0 0 0.00424306)
(0 0 0.00409773)
(0 0 0.00395252)
(0 0 0.00380746)
(0 0 0.00366252)
(0 0 0.00351771)
(0 0 0.00337303)
(0 0 0.00322848)
(0 0 0.00308404)
(0 0 0.00293973)
(0 0 0.00279554)
(0 0 0.00265145)
(0 0 0.00250748)
(0 0 0.0023636)
(0 0 0.00221983)
(0 0 0.00207616)
(0 0 0.00193257)
(0 0 0.00178907)
(0 0 0.00164564)
(0 0 0.00150229)
(0 0 0.00135901)
(0 0 0.00121579)
(0 0 0.00107262)
(0 0 0.000929505)
(0 0 0.000786431)
(0 0 0.000643394)
(0 0 0.000500386)
(0 0 0.000357402)
(0 0 0.000214435)
(0 0 7.14771e-05)
(0 0 9.67849e-05)
(0 0 0.00029036)
(0 0 0.000483953)
(0 0 0.000677574)
(0 0 0.000871234)
(0 0 0.00106495)
(0 0 0.00125872)
(0 0 0.00145256)
(0 0 0.00164649)
(0 0 0.00184051)
(0 0 0.00203464)
(0 0 0.00222887)
(0 0 0.00242323)
(0 0 0.00261772)
(0 0 0.00281235)
(0 0 0.00300713)
(0 0 0.00320206)
(0 0 0.00339716)
(0 0 0.00359242)
(0 0 0.00378786)
(0 0 0.00398347)
(0 0 0.00417927)
(0 0 0.00437526)
(0 0 0.00457144)
(0 0 0.00476781)
(0 0 0.00496438)
(0 0 0.00516113)
(0 0 0.00535809)
(0 0 0.00555523)
(0 0 0.00575256)
(0 0 0.00595008)
(0 0 0.00614778)
(0 0 0.00634565)
(0 0 0.00654369)
(0 0 0.00674189)
(0 0 0.00694024)
(0 0 0.00713872)
(0 0 0.00733733)
(0 0 0.00753605)
(0 0 0.00773487)
(0 0 0.00793377)
(0 0 0.00813272)
(0 0 0.00833171)
(0 0 0.00853072)
(0 0 0.00872973)
(0 0 0.0089287)
(0 0 0.00912762)
(0 0 0.00932644)
(0 0 0.00952515)
(0 0 0.0097237)
(0 0 0.00992207)
(0 0 0.0101202)
(0 0 0.0103181)
(0 0 0.0105157)
(0 0 0.0107129)
(0 0 0.0109098)
(0 0 0.0111062)
(0 0 0.0113021)
(0 0 0.0114975)
(0 0 0.0116922)
(0 0 0.0118864)
(0 0 0.0120798)
(0 0 0.0122725)
(0 0 0.0124643)
(0 0 0.0126553)
(0 0 0.0128453)
(0 0 0.0130343)
(0 0 0.0132221)
(0 0 0.0134088)
(0 0 0.0135943)
(0 0 0.0137785)
(0 0 0.0139612)
(0 0 0.0141425)
(0 0 0.0143222)
(0 0 0.0145003)
(0 0 0.0146767)
(0 0 0.0148513)
(0 0 0.0150239)
(0 0 0.0151946)
(0 0 0.0153632)
(0 0 0.0155297)
(0 0 0.0156939)
(0 0 0.0158557)
(0 0 0.0160151)
(0 0 0.016172)
(0 0 0.0163263)
(0 0 0.0164779)
(0 0 0.0166266)
(0 0 0.0167724)
(0 0 0.0169153)
(0 0 0.0170551)
(0 0 0.0171917)
(0 0 0.017325)
(0 0 0.017455)
(0 0 0.0175815)
(0 0 0.0177045)
(0 0 0.0178239)
(0 0 0.0179396)
(0 0 0.0180515)
(0 0 0.0181595)
(0 0 0.0182636)
(0 0 0.0183638)
(0 0 0.0184598)
(0 0 0.0185517)
(0 0 0.0186394)
(0 0 0.0187228)
(0 0 0.0188019)
(0 0 0.0188765)
(0 0 0.0189468)
(0 0 0.0190125)
(0 0 0.0190738)
(0 0 0.0191304)
(0 0 0.0191825)
(0 0 0.0192299)
(0 0 0.0192726)
(0 0 0.0193106)
(0 0 0.0193439)
(0 0 0.0193725)
(0 0 0.0193964)
(0 0 0.0194155)
(0 0 0.0194298)
(0 0 0.0194394)
(0 0 0.0194442)
(0 0 0.0194443)
(0 0 0.0194397)
(0 0 0.0194304)
(0 0 0.0194164)
(0 0 0.0193978)
(0 0 0.0193745)
(0 0 0.0193466)
(0 0 0.0193142)
(0 0 0.0192773)
(0 0 0.0192359)
(0 0 0.0191901)
(0 0 0.01914)
(0 0 0.0190855)
(0 0 0.0190268)
(0 0 0.0189638)
(0 0 0.0188968)
(0 0 0.0188257)
(0 0 0.0187506)
(0 0 0.0186715)
(0 0 0.0185887)
(0 0 0.018502)
(0 0 0.0184116)
(0 0 0.0183176)
(0 0 0.0182201)
(0 0 0.0181191)
(0 0 0.0180147)
(0 0 0.017907)
(0 0 0.0177961)
(0 0 0.0176821)
(0 0 0.017565)
(0 0 0.0174449)
(0 0 0.017322)
(0 0 0.0171962)
(0 0 0.0170678)
(0 0 0.0169367)
(0 0 0.016803)
(0 0 0.0166669)
(0 0 0.0165284)
(0 0 0.0163877)
(0 0 0.0162447)
(0 0 0.0160995)
(0 0 0.0159523)
(0 0 0.0158032)
(0 0 0.0156521)
(0 0 0.0154992)
(0 0 0.0153446)
(0 0 0.0151883)
(0 0 0.0150304)
(0 0 0.0148709)
(0 0 0.01471)
(0 0 0.0145477)
(0 0 0.0143841)
(0 0 0.0142193)
(0 0 0.0140532)
(0 0 0.013886)
(0 0 0.0137178)
(0 0 0.0135485)
(0 0 0.0133783)
(0 0 0.0132071)
(0 0 0.0130352)
(0 0 0.0128624)
(0 0 0.0126889)
(0 0 0.0125147)
(0 0 0.0123399)
(0 0 0.0121645)
(0 0 0.0119885)
(0 0 0.011812)
(0 0 0.0116351)
(0 0 0.0114577)
(0 0 0.0112799)
(0 0 0.0111018)
(0 0 0.0109234)
(0 0 0.0107447)
(0 0 0.0105657)
(0 0 0.0103865)
(0 0 0.0102071)
(0 0 0.0100275)
(0 0 0.00984784)
(0 0 0.00966804)
(0 0 0.00948814)
(0 0 0.00930818)
(0 0 0.00912818)
(0 0 0.00894815)
(0 0 0.00876811)
(0 0 0.00858808)
(0 0 0.00840809)
(0 0 0.00822813)
(0 0 0.00804823)
(0 0 0.00786841)
(0 0 0.00768867)
(0 0 0.00750902)
(0 0 0.00732947)
(0 0 0.00715005)
(0 0 0.00697074)
(0 0 0.00679156)
(0 0 0.00661252)
(0 0 0.00643363)
(0 0 0.00625488)
(0 0 0.00607628)
(0 0 0.00589784)
(0 0 0.00571956)
(0 0 0.00554144)
(0 0 0.00536349)
(0 0 0.00518569)
(0 0 0.00500806)
(0 0 0.0048306)
(0 0 0.00465329)
(0 0 0.00447615)
(0 0 0.00429917)
(0 0 0.00412234)
(0 0 0.00394567)
(0 0 0.00376915)
(0 0 0.00359277)
(0 0 0.00341654)
(0 0 0.00324044)
(0 0 0.00306448)
(0 0 0.00288865)
(0 0 0.00271294)
(0 0 0.00253734)
(0 0 0.00236186)
(0 0 0.00218648)
(0 0 0.00201119)
(0 0 0.001836)
(0 0 0.00166089)
(0 0 0.00148585)
(0 0 0.00131088)
(0 0 0.00113597)
(0 0 0.000961119)
(0 0 0.000786309)
(0 0 0.000611536)
(0 0 0.000436791)
(0 0 0.000262066)
(0 0 8.73541e-05)
(0 0 0.000114369)
(0 0 0.000343113)
(0 0 0.000571878)
(0 0 0.000800676)
(0 0 0.00102952)
(0 0 0.00125843)
(0 0 0.00148741)
(0 0 0.00171647)
(0 0 0.00194563)
(0 0 0.00217491)
(0 0 0.0024043)
(0 0 0.00263383)
(0 0 0.00286351)
(0 0 0.00309334)
(0 0 0.00332334)
(0 0 0.00355351)
(0 0 0.00378387)
(0 0 0.00401442)
(0 0 0.00424518)
(0 0 0.00447614)
(0 0 0.00470731)
(0 0 0.0049387)
(0 0 0.00517032)
(0 0 0.00540216)
(0 0 0.00563423)
(0 0 0.00586653)
(0 0 0.00609907)
(0 0 0.00633183)
(0 0 0.00656483)
(0 0 0.00679805)
(0 0 0.00703149)
(0 0 0.00726515)
(0 0 0.00749902)
(0 0 0.00773308)
(0 0 0.00796734)
(0 0 0.00820178)
(0 0 0.00843638)
(0 0 0.00867114)
(0 0 0.00890603)
(0 0 0.00914103)
(0 0 0.00937613)
(0 0 0.00961131)
(0 0 0.00984653)
(0 0 0.0100818)
(0 0 0.010317)
(0 0 0.0105522)
(0 0 0.0107874)
(0 0 0.0110224)
(0 0 0.0112574)
(0 0 0.0114921)
(0 0 0.0117266)
(0 0 0.0119609)
(0 0 0.0121948)
(0 0 0.0124284)
(0 0 0.0126616)
(0 0 0.0128944)
(0 0 0.0131266)
(0 0 0.0133583)
(0 0 0.0135893)
(0 0 0.0138196)
(0 0 0.0140492)
(0 0 0.014278)
(0 0 0.0145058)
(0 0 0.0147327)
(0 0 0.0149585)
(0 0 0.0151832)
(0 0 0.0154067)
(0 0 0.0156289)
(0 0 0.0158498)
(0 0 0.0160691)
(0 0 0.0162869)
(0 0 0.0165031)
(0 0 0.0167176)
(0 0 0.0169302)
(0 0 0.0171408)
(0 0 0.0173495)
(0 0 0.017556)
(0 0 0.0177602)
(0 0 0.0179622)
(0 0 0.0181616)
(0 0 0.0183586)
(0 0 0.0185528)
(0 0 0.0187443)
(0 0 0.018933)
(0 0 0.0191186)
(0 0 0.0193011)
(0 0 0.0194805)
(0 0 0.0196565)
(0 0 0.0198291)
(0 0 0.0199981)
(0 0 0.0201635)
(0 0 0.0203251)
(0 0 0.0204829)
(0 0 0.0206367)
(0 0 0.0207865)
(0 0 0.020932)
(0 0 0.0210733)
(0 0 0.0212102)
(0 0 0.0213427)
(0 0 0.0214705)
(0 0 0.0215938)
(0 0 0.0217123)
(0 0 0.0218259)
(0 0 0.0219347)
(0 0 0.0220384)
(0 0 0.0221372)
(0 0 0.0222307)
(0 0 0.0223191)
(0 0 0.0224023)
(0 0 0.0224801)
(0 0 0.0225525)
(0 0 0.0226196)
(0 0 0.0226811)
(0 0 0.0227372)
(0 0 0.0227878)
(0 0 0.0228328)
(0 0 0.0228722)
(0 0 0.022906)
(0 0 0.0229342)
(0 0 0.0229568)
(0 0 0.0229737)
(0 0 0.022985)
(0 0 0.0229907)
(0 0 0.0229908)
(0 0 0.0229853)
(0 0 0.0229743)
(0 0 0.0229577)
(0 0 0.0229356)
(0 0 0.022908)
(0 0 0.022875)
(0 0 0.0228366)
(0 0 0.0227928)
(0 0 0.0227438)
(0 0 0.0226895)
(0 0 0.0226301)
(0 0 0.0225656)
(0 0 0.0224961)
(0 0 0.0224216)
(0 0 0.0223422)
(0 0 0.022258)
(0 0 0.022169)
(0 0 0.0220755)
(0 0 0.0219773)
(0 0 0.0218747)
(0 0 0.0217678)
(0 0 0.0216565)
(0 0 0.021541)
(0 0 0.0214215)
(0 0 0.0212979)
(0 0 0.0211705)
(0 0 0.0210392)
(0 0 0.0209042)
(0 0 0.0207656)
(0 0 0.0206235)
(0 0 0.020478)
(0 0 0.0203292)
(0 0 0.0201772)
(0 0 0.0200221)
(0 0 0.019864)
(0 0 0.0197029)
(0 0 0.019539)
(0 0 0.0193725)
(0 0 0.0192033)
(0 0 0.0190316)
(0 0 0.0188574)
(0 0 0.018681)
(0 0 0.0185022)
(0 0 0.0183214)
(0 0 0.0181385)
(0 0 0.0179536)
(0 0 0.0177668)
(0 0 0.0175782)
(0 0 0.0173879)
(0 0 0.0171959)
(0 0 0.0170024)
(0 0 0.0168074)
(0 0 0.016611)
(0 0 0.0164133)
(0 0 0.0162143)
(0 0 0.0160141)
(0 0 0.0158128)
(0 0 0.0156104)
(0 0 0.0154071)
(0 0 0.0152028)
(0 0 0.0149976)
(0 0 0.0147917)
(0 0 0.0145849)
(0 0 0.0143775)
(0 0 0.0141695)
(0 0 0.0139608)
(0 0 0.0137516)
(0 0 0.0135418)
(0 0 0.0133317)
(0 0 0.0131211)
(0 0 0.0129101)
(0 0 0.0126988)
(0 0 0.0124872)
(0 0 0.0122754)
(0 0 0.0120633)
(0 0 0.0118511)
(0 0 0.0116386)
(0 0 0.0114261)
(0 0 0.0112134)
(0 0 0.0110007)
(0 0 0.0107879)