/*--------------------------------*- C++ -*----------------------------------*\
| =========                 |                                                 |
| \\      /  F ield         | OpenFOAM: The Open Source CFD Toolbox           |
|  \\    /   O peration     | Version:  v2012                                 |
|   \\  /    A nd           | Website:  www.openfoam.com                      |
|    \\/     M anipulation  |                                                 |
\*---------------------------------------------------------------------------*/
FoamFile
{
    version     2.0;
    format      ascii;
    class       volScalarField;
    location    "13.25";
    object      W;
}
// * * * * * * * * * * * * * * * * * * * * * * * * * * * * * * * * * * * * * //

dimensions      [0 0 -1 0 0 0 0];


internalField   nonuniform List<scalar> 
65536
(
8.50323e-16
8.57241e-16
8.83424e-16
9.29123e-16
9.94973e-16
1.08198e-15
1.19155e-15
1.32547e-15
1.48596e-15
1.67569e-15
1.8978e-15
2.15598e-15
2.45446e-15
2.79813e-15
3.19256e-15
3.64406e-15
4.15981e-15
4.74791e-15
5.41746e-15
6.17874e-15
7.04324e-15
8.02385e-15
9.13498e-15
1.03927e-14
1.18151e-14
1.34219e-14
1.52356e-14
1.72806e-14
1.95845e-14
2.21774e-14
2.5093e-14
2.83681e-14
3.20437e-14
3.61646e-14
4.07803e-14
4.59451e-14
5.17186e-14
5.81659e-14
6.53584e-14
7.3374e-14
8.22975e-14
9.22212e-14
1.03246e-13
1.1548e-13
1.29041e-13
1.44058e-13
1.60668e-13
1.79018e-13
1.99269e-13
2.21592e-13
2.4617e-13
2.732e-13
3.0289e-13
3.35464e-13
3.71158e-13
4.10224e-13
4.52927e-13
4.99549e-13
5.50384e-13
6.05742e-13
6.6595e-13
7.31346e-13
8.02285e-13
8.79136e-13
9.62279e-13
1.05211e-12
1.14903e-12
1.25346e-12
1.36583e-12
1.48657e-12
1.61611e-12
1.75492e-12
1.90342e-12
2.06208e-12
2.23134e-12
2.41165e-12
2.60343e-12
2.80712e-12
3.02313e-12
3.25185e-12
3.49368e-12
3.74896e-12
4.01803e-12
4.30118e-12
4.5987e-12
4.91081e-12
5.23771e-12
5.57955e-12
5.93644e-12
6.30843e-12
6.69554e-12
7.09771e-12
7.51483e-12
7.94674e-12
8.39322e-12
8.85396e-12
9.32862e-12
9.81678e-12
1.03179e-11
1.08315e-11
1.1357e-11
1.18935e-11
1.24404e-11
1.29969e-11
1.3562e-11
1.41348e-11
1.47143e-11
1.52994e-11
1.5889e-11
1.64818e-11
1.70767e-11
1.76724e-11
1.82674e-11
1.88604e-11
1.94501e-11
2.00348e-11
2.06132e-11
2.11836e-11
2.17446e-11
2.22945e-11
2.28316e-11
2.33544e-11
2.38612e-11
2.43504e-11
2.48202e-11
2.52689e-11
2.56949e-11
2.60964e-11
2.64718e-11
2.68194e-11
2.71374e-11
2.74243e-11
2.76784e-11
2.78982e-11
2.80819e-11
2.82282e-11
2.83357e-11
2.84028e-11
2.84283e-11
2.84111e-11
2.83499e-11
2.82439e-11
2.80922e-11
2.78941e-11
2.76492e-11
2.73571e-11
2.70177e-11
2.66312e-11
2.6198e-11
2.57186e-11
2.51941e-11
2.46257e-11
2.40148e-11
2.33634e-11
2.26737e-11
2.1948e-11
2.11894e-11
2.04008e-11
1.95858e-11
1.8748e-11
1.78915e-11
1.70205e-11
1.61393e-11
1.52524e-11
1.43647e-11
1.34806e-11
1.2605e-11
1.17425e-11
1.08976e-11
1.00747e-11
9.27778e-12
8.5108e-12
7.77724e-12
7.08025e-12
6.42254e-12
5.80641e-12
5.23371e-12
4.70578e-12
4.22353e-12
3.78737e-12
3.39724e-12
3.05265e-12
2.75266e-12
2.49595e-12
2.28081e-12
2.10516e-12
1.96663e-12
1.86256e-12
1.79003e-12
1.74589e-12
1.72682e-12
1.72936e-12
1.7499e-12
1.7848e-12
1.8304e-12
1.88303e-12
1.93915e-12
1.99534e-12
2.04837e-12
2.0953e-12
2.1335e-12
2.16069e-12
2.17506e-12
2.17521e-12
2.16027e-12
2.12983e-12
2.08399e-12
2.02332e-12
1.94882e-12
1.86186e-12
1.76413e-12
1.65759e-12
1.54431e-12
1.42648e-12
1.30627e-12
1.18577e-12
1.06694e-12
9.51524e-13
8.41031e-13
7.36701e-13
6.39488e-13
5.50062e-13
4.6882e-13
3.95907e-13
3.31248e-13
2.74578e-13
2.25481e-13
1.83429e-13
1.47815e-13
1.17991e-13
9.32907e-14
7.30583e-14
5.66665e-14
4.35304e-14
3.31171e-14
2.4951e-14
1.86159e-14
1.3754e-14
1.00624e-14
7.28934e-15
5.22848e-15
3.71319e-15
2.61088e-15
1.81753e-15
1.25261e-15
8.54625e-16
5.77239e-16
3.85976e-16
2.55526e-16
1.67543e-16
1.08905e-16
7.03646e-17
4.5509e-17
2.99941e-17
2.09877e-17
1.6786e-17
1.2881e-15
1.29858e-15
1.33827e-15
1.40755e-15
1.50739e-15
1.63931e-15
1.80544e-15
2.00852e-15
2.2519e-15
2.53965e-15
2.87656e-15
3.2682e-15
3.72105e-15
4.24252e-15
4.84108e-15
5.52634e-15
6.30921e-15
7.202e-15
8.21859e-15
9.37458e-15
1.06875e-14
1.21768e-14
1.38647e-14
1.57754e-14
1.79363e-14
2.03778e-14
2.31337e-14
2.62414e-14
2.97426e-14
3.36832e-14
3.81142e-14
4.30917e-14
4.86776e-14
5.49402e-14
6.19543e-14
6.98022e-14
7.85741e-14
8.83686e-14
9.92934e-14
1.11466e-13
1.25015e-13
1.40079e-13
1.56808e-13
1.75368e-13
1.95934e-13
2.18698e-13
2.43866e-13
2.71659e-13
3.02314e-13
3.36086e-13
3.73247e-13
4.14087e-13
4.58915e-13
5.08058e-13
5.61864e-13
6.20699e-13
6.84951e-13
7.55025e-13
8.31349e-13
9.14367e-13
1.00455e-12
1.10237e-12
1.20833e-12
1.32295e-12
1.44677e-12
1.58032e-12
1.72417e-12
1.87888e-12
2.04503e-12
2.22319e-12
2.41394e-12
2.61787e-12
2.83555e-12
3.06754e-12
3.3144e-12
3.57666e-12
3.85485e-12
4.14944e-12
4.46091e-12
4.78968e-12
5.13613e-12
5.50061e-12
5.8834e-12
6.28475e-12
6.70485e-12
7.14379e-12
7.60164e-12
8.07836e-12
8.57387e-12
9.08799e-12
9.62045e-12
1.01709e-11
1.07389e-11
1.1324e-11
1.19256e-11
1.25429e-11
1.31752e-11
1.38215e-11
1.44811e-11
1.51527e-11
1.58352e-11
1.65275e-11
1.72283e-11
1.79363e-11
1.86499e-11
1.93677e-11
2.00881e-11
2.08096e-11
2.15305e-11
2.22491e-11
2.29637e-11
2.36725e-11
2.43738e-11
2.50656e-11
2.57463e-11
2.6414e-11
2.70668e-11
2.77029e-11
2.83204e-11
2.89176e-11
2.94926e-11
3.00437e-11
3.0569e-11
3.10668e-11
3.15354e-11
3.19731e-11
3.23781e-11
3.2749e-11
3.30839e-11
3.33815e-11
3.36402e-11
3.38585e-11
3.40351e-11
3.41685e-11
3.42576e-11
3.4301e-11
3.42978e-11
3.42468e-11
3.41472e-11
3.39981e-11
3.37989e-11
3.3549e-11
3.32481e-11
3.2896e-11
3.24927e-11
3.20383e-11
3.15333e-11
3.09783e-11
3.03743e-11
2.97225e-11
2.90242e-11
2.82815e-11
2.74962e-11
2.66708e-11
2.58081e-11
2.49111e-11
2.39831e-11
2.30278e-11
2.20492e-11
2.10514e-11
2.00389e-11
1.90163e-11
1.79884e-11
1.69602e-11
1.59366e-11
1.49227e-11
1.39233e-11
1.29433e-11
1.19873e-11
1.106e-11
1.01653e-11
9.30729e-12
8.48933e-12
7.71451e-12
6.98546e-12
6.3043e-12
5.6727e-12
5.09178e-12
4.5622e-12
4.08408e-12
3.65708e-12
3.28039e-12
2.95276e-12
2.67251e-12
2.4376e-12
2.24562e-12
2.09387e-12
1.97933e-12
1.89878e-12
1.84874e-12
1.8256e-12
1.82558e-12
1.84481e-12
1.87938e-12
1.92537e-12
1.97889e-12
2.03618e-12
2.09362e-12
2.14782e-12
2.19569e-12
2.23445e-12
2.26174e-12
2.27566e-12
2.27477e-12
2.25815e-12
2.22541e-12
2.17665e-12
2.11248e-12
2.03396e-12
1.94252e-12
1.83995e-12
1.72827e-12
1.60967e-12
1.48641e-12
1.36076e-12
1.2349e-12
1.11086e-12
9.90438e-13
8.75214e-13
7.66465e-13
6.65175e-13
5.72033e-13
4.87445e-13
4.11554e-13
3.44273e-13
2.85322e-13
2.34263e-13
1.90541e-13
1.53522e-13
1.22527e-13
9.68625e-14
7.58447e-14
5.88196e-14
4.51785e-14
3.43665e-14
2.58892e-14
1.93137e-14
1.42679e-14
1.04373e-14
7.56018e-15
5.42222e-15
3.85042e-15
2.70714e-15
1.88438e-15
1.29857e-15
8.8592e-16
5.98332e-16
4.00053e-16
2.64828e-16
1.7363e-16
1.12855e-16
7.29126e-17
4.71541e-17
3.10765e-17
2.17439e-17
1.73906e-17
2.34587e-15
2.36496e-15
2.43733e-15
2.56365e-15
2.74568e-15
2.98622e-15
3.28916e-15
3.65949e-15
4.10337e-15
4.62823e-15
5.24282e-15
5.95737e-15
6.78371e-15
7.73539e-15
8.82792e-15
1.00789e-14
1.15083e-14
1.31386e-14
1.49953e-14
1.71069e-14
1.95055e-14
2.22269e-14
2.53112e-14
2.88034e-14
3.27533e-14
3.72165e-14
4.22549e-14
4.79371e-14
5.43391e-14
6.1545e-14
6.96479e-14
7.87504e-14
8.89656e-14
1.00418e-13
1.13244e-13
1.27594e-13
1.43632e-13
1.61537e-13
1.81505e-13
2.03751e-13
2.28505e-13
2.56021e-13
2.86572e-13
3.20453e-13
3.57983e-13
3.99507e-13
4.45395e-13
4.96043e-13
5.51876e-13
6.1335e-13
6.80948e-13
7.55184e-13
8.36606e-13
9.25791e-13
1.02335e-12
1.12992e-12
1.24619e-12
1.37285e-12
1.51064e-12
1.66032e-12
1.82269e-12
1.99857e-12
2.1888e-12
2.39424e-12
2.61578e-12
2.8543e-12
3.11071e-12
3.38593e-12
3.68085e-12
3.99639e-12
4.33342e-12
4.69284e-12
5.07547e-12
5.48214e-12
5.91363e-12
6.37064e-12
6.85385e-12
7.36387e-12
7.90122e-12
8.46634e-12
9.05959e-12
9.68122e-12
1.03314e-11
1.10101e-11
1.17173e-11
1.24527e-11
1.32161e-11
1.40068e-11
1.48243e-11
1.56677e-11
1.65362e-11
1.74286e-11
1.83438e-11
1.92802e-11
2.02364e-11
2.12108e-11
2.22013e-11
2.32062e-11
2.42233e-11
2.52505e-11
2.62854e-11
2.73255e-11
2.83685e-11
2.94117e-11
3.04526e-11
3.14883e-11
3.25161e-11
3.35334e-11
3.45374e-11
3.55252e-11
3.64941e-11
3.74413e-11
3.83642e-11
3.92601e-11
4.01263e-11
4.09604e-11
4.17599e-11
4.25223e-11
4.32454e-11
4.3927e-11
4.45649e-11
4.51571e-11
4.57017e-11
4.61969e-11
4.66411e-11
4.70325e-11
4.73697e-11
4.76513e-11
4.78762e-11
4.8043e-11
4.81508e-11
4.81986e-11
4.81857e-11
4.81112e-11
4.79747e-11
4.77756e-11
4.75136e-11
4.71886e-11
4.68005e-11
4.63493e-11
4.58354e-11
4.52592e-11
4.46212e-11
4.39225e-11
4.31639e-11
4.23467e-11
4.14725e-11
4.0543e-11
3.95603e-11
3.85267e-11
3.74448e-11
3.63176e-11
3.51482e-11
3.39403e-11
3.26977e-11
3.14246e-11
3.01253e-11
2.88047e-11
2.74678e-11
2.61196e-11
2.47657e-11
2.34116e-11
2.20628e-11
2.07252e-11
1.94042e-11
1.81057e-11
1.6835e-11
1.55974e-11
1.4398e-11
1.32415e-11
1.21321e-11
1.10739e-11
1.00702e-11
9.12405e-12
8.23772e-12
7.41309e-12
6.65141e-12
5.95335e-12
5.31902e-12
4.74799e-12
4.23927e-12
3.79137e-12
3.40236e-12
3.06985e-12
2.79106e-12
2.56285e-12
2.38177e-12
2.2441e-12
2.14588e-12
2.08295e-12
2.05101e-12
2.04562e-12
2.06231e-12
2.09654e-12
2.14384e-12
2.1998e-12
2.26016e-12
2.32086e-12
2.37811e-12
2.42845e-12
2.46884e-12
2.49667e-12
2.50984e-12
2.50678e-12
2.48653e-12
2.44865e-12
2.3933e-12
2.32116e-12
2.23342e-12
2.13169e-12
2.01791e-12
1.89433e-12
1.76335e-12
1.62745e-12
1.48911e-12
1.3507e-12
1.21444e-12
1.0823e-12
9.55959e-13
8.36817e-13
7.2593e-13
6.24032e-13
5.31551e-13
4.48627e-13
3.75153e-13
3.10808e-13
2.55104e-13
2.07426e-13
1.67076e-13
1.33306e-13
1.05354e-13
8.24716e-14
6.39425e-14
4.91011e-14
3.73415e-14
2.8124e-14
2.09763e-14
1.54929e-14
1.13311e-14
8.20605e-15
5.88437e-15
4.17787e-15
2.93687e-15
2.04396e-15
1.40833e-15
9.6066e-16
6.48721e-16
4.33686e-16
2.87056e-16
1.88181e-16
1.22299e-16
7.9005e-17
5.10885e-17
3.36657e-17
2.35531e-17
1.88363e-17
4.47992e-15
4.51648e-15
4.65489e-15
4.89645e-15
5.24454e-15
5.70454e-15
6.2839e-15
6.9922e-15
7.84127e-15
8.84535e-15
1.00212e-14
1.13886e-14
1.297e-14
1.47917e-14
1.68832e-14
1.92785e-14
2.20159e-14
2.51385e-14
2.86953e-14
3.2741e-14
3.73373e-14
4.2553e-14
4.84652e-14
5.516e-14
6.27334e-14
7.12921e-14
8.09548e-14
9.18534e-14
1.04134e-13
1.17957e-13
1.33502e-13
1.50966e-13
1.70565e-13
1.92538e-13
2.17147e-13
2.44679e-13
2.75447e-13
3.09796e-13
3.48099e-13
3.90765e-13
4.38235e-13
4.90991e-13
5.49553e-13
6.14482e-13
6.86384e-13
7.65911e-13
8.53764e-13
9.50691e-13
1.05749e-12
1.17503e-12
1.3042e-12
1.44597e-12
1.60136e-12
1.77145e-12
1.95737e-12
2.1603e-12
2.38149e-12
2.62222e-12
2.88383e-12
3.16773e-12
3.47532e-12
3.80809e-12
4.16754e-12
4.55517e-12
4.97255e-12
5.42122e-12
5.90273e-12
6.41862e-12
6.97042e-12
7.5596e-12
8.18762e-12
8.85584e-12
9.56559e-12
1.03181e-11
1.11144e-11
1.19555e-11
1.28423e-11
1.37756e-11
1.47557e-11
1.5783e-11
1.68578e-11
1.79799e-11
1.91491e-11
2.03647e-11
2.1626e-11
2.2932e-11
2.42813e-11
2.56724e-11
2.71033e-11
2.85719e-11
3.00758e-11
3.16123e-11
3.31783e-11
3.47707e-11
3.6386e-11
3.80205e-11
3.96702e-11
4.1331e-11
4.29985e-11
4.46683e-11
4.63358e-11
4.79963e-11
4.96449e-11
5.12767e-11
5.2887e-11
5.44708e-11
5.60233e-11
5.75396e-11
5.9015e-11
6.0445e-11
6.1825e-11
6.31507e-11
6.44179e-11
6.56227e-11
6.67614e-11
6.78304e-11
6.88263e-11
6.97463e-11
7.05874e-11
7.13472e-11
7.20233e-11
7.26137e-11
7.31168e-11
7.35309e-11
7.38548e-11
7.40876e-11
7.42284e-11
7.42768e-11
7.42324e-11
7.40951e-11
7.3865e-11
7.35426e-11
7.31282e-11
7.26226e-11
7.20267e-11
7.13416e-11
7.05686e-11
6.9709e-11
6.87645e-11
6.7737e-11
6.66284e-11
6.5441e-11
6.41772e-11
6.28397e-11
6.14313e-11
5.99551e-11
5.84145e-11
5.68131e-11
5.5155e-11
5.34441e-11
5.16851e-11
4.98827e-11
4.80419e-11
4.61681e-11
4.4267e-11
4.23445e-11
4.04067e-11
3.84599e-11
3.65108e-11
3.4566e-11
3.26325e-11
3.07169e-11
2.88263e-11
2.69674e-11
2.51469e-11
2.33712e-11
2.16467e-11
1.9979e-11
1.83738e-11
1.6836e-11
1.537e-11
1.39797e-11
1.26685e-11
1.14388e-11
1.02927e-11
9.23126e-12
8.25515e-12
7.36416e-12
6.55748e-12
5.83367e-12
5.19066e-12
4.62584e-12
4.13609e-12
3.71783e-12
3.36706e-12
3.07942e-12
2.85025e-12
2.67462e-12
2.5474e-12
2.46328e-12
2.41685e-12
2.4026e-12
2.41502e-12
2.44861e-12
2.49796e-12
2.55782e-12
2.62312e-12
2.68908e-12
2.75126e-12
2.80564e-12
2.84868e-12
2.87738e-12
2.88935e-12
2.88283e-12
2.85669e-12
2.81052e-12
2.74451e-12
2.65948e-12
2.55682e-12
2.4384e-12
2.30648e-12
2.16362e-12
2.01258e-12
1.85619e-12
1.69728e-12
1.53853e-12
1.38246e-12
1.2313e-12
1.08694e-12
9.50947e-13
8.24493e-13
7.08394e-13
6.03109e-13
5.08778e-13
4.25255e-13
3.5216e-13
2.88921e-13
2.34826e-13
1.89071e-13
1.50797e-13
1.19134e-13
9.32256e-14
7.22558e-14
5.54668e-14
4.21695e-14
3.17507e-14
2.36745e-14
1.74809e-14
1.27818e-14
9.25425e-15
6.63441e-15
4.70931e-15
3.30971e-15
2.30297e-15
1.58647e-15
1.08197e-15
7.30504e-16
4.88275e-16
3.23135e-16
2.11799e-16
1.37627e-16
8.88938e-17
5.74747e-17
3.78685e-17
2.64898e-17
2.11829e-17
8.57848e-15
8.64874e-15
8.91427e-15
9.37758e-15
1.00452e-14
1.09274e-14
1.20387e-14
1.33974e-14
1.50263e-14
1.69528e-14
1.92093e-14
2.18335e-14
2.48691e-14
2.83664e-14
3.23825e-14
3.69826e-14
4.22405e-14
4.82397e-14
5.5074e-14
6.28492e-14
7.16839e-14
8.1711e-14
9.3079e-14
1.05954e-13
1.20521e-13
1.36985e-13
1.55576e-13
1.76547e-13
2.00179e-13
2.26784e-13
2.56706e-13
2.90323e-13
3.28054e-13
3.70356e-13
4.17734e-13
4.70741e-13
5.29979e-13
5.96108e-13
6.69847e-13
7.51977e-13
8.43348e-13
9.4488e-13
1.05757e-12
1.18248e-12
1.32078e-12
1.47371e-12
1.6426e-12
1.82888e-12
2.03406e-12
2.25975e-12
2.50769e-12
2.77968e-12
3.07764e-12
3.40358e-12
3.75962e-12
4.14797e-12
4.57094e-12
5.0309e-12
5.53032e-12
6.07176e-12
6.65781e-12
7.29114e-12
7.97442e-12
8.7104e-12
9.50179e-12
1.03513e-11
1.12617e-11
1.22355e-11
1.32753e-11
1.43837e-11
1.55628e-11
1.6815e-11
1.81422e-11
1.95462e-11
2.10285e-11
2.25905e-11
2.4233e-11
2.59567e-11
2.77619e-11
2.96484e-11
3.16157e-11
3.36628e-11
3.57883e-11
3.79902e-11
4.0266e-11
4.26128e-11
4.50272e-11
4.75052e-11
5.00421e-11
5.26331e-11
5.52725e-11
5.79544e-11
6.06723e-11
6.34192e-11
6.61878e-11
6.89705e-11
7.17591e-11
7.45455e-11
7.73211e-11
8.00772e-11
8.2805e-11
8.54954e-11
8.81397e-11
9.0729e-11
9.32545e-11
9.57076e-11
9.80799e-11
1.00363e-10
1.0255e-10
1.04632e-10
1.06604e-10
1.08457e-10
1.10187e-10
1.11787e-10
1.13253e-10
1.14579e-10
1.15763e-10
1.168e-10
1.17688e-10
1.18424e-10
1.19006e-10
1.19435e-10
1.19708e-10
1.19825e-10
1.19788e-10
1.19597e-10
1.19252e-10
1.18757e-10
1.18112e-10
1.1732e-10
1.16384e-10
1.15307e-10
1.14092e-10
1.12744e-10
1.11264e-10
1.09659e-10
1.07932e-10
1.06087e-10
1.0413e-10
1.02064e-10
9.9896e-11
9.76302e-11
9.52723e-11
9.28279e-11
9.0303e-11
8.77034e-11
8.50356e-11
8.23059e-11
7.95212e-11
7.66885e-11
7.38148e-11
7.09078e-11
6.7975e-11
6.50243e-11
6.2064e-11
5.91022e-11
5.61474e-11
5.32083e-11
5.02933e-11
4.74114e-11
4.4571e-11
4.17807e-11
3.9049e-11
3.6384e-11
3.37935e-11
3.1285e-11
2.88654e-11
2.65412e-11
2.43182e-11
2.22016e-11
2.01956e-11
1.83038e-11
1.6529e-11
1.48732e-11
1.33372e-11
1.19212e-11
1.06245e-11
9.44565e-12
8.38218e-12
7.43104e-12
6.58848e-12
5.85011e-12
5.21096e-12
4.66562e-12
4.20821e-12
3.83254e-12
3.5321e-12
3.30016e-12
3.12983e-12
3.0141e-12
2.94589e-12
2.91812e-12
2.92377e-12
2.95591e-12
3.00779e-12
3.07288e-12
3.14496e-12
3.21821e-12
3.28723e-12
3.3472e-12
3.39386e-12
3.42366e-12
3.43377e-12
3.42212e-12
3.38744e-12
3.32926e-12
3.24786e-12
3.14427e-12
3.02015e-12
2.87775e-12
2.71976e-12
2.54923e-12
2.3694e-12
2.18363e-12
1.99522e-12
1.80733e-12
1.62288e-12
1.44447e-12
1.27431e-12
1.11418e-12
9.65449e-13
8.29025e-13
7.0542e-13
5.94769e-13
4.96873e-13
4.11263e-13
3.37249e-13
2.73979e-13
2.20497e-13
1.75787e-13
1.38819e-13
1.08587e-13
8.41298e-14
6.45582e-14
4.90641e-14
3.69294e-14
2.7527e-14
2.03193e-14
1.48527e-14
1.07506e-14
7.70507e-15
5.46788e-15
3.84188e-15
2.67262e-15
1.84071e-15
1.25508e-15
8.4721e-16
5.66172e-16
3.74616e-16
2.45499e-16
1.59498e-16
1.03003e-16
6.65861e-17
4.38646e-17
3.06795e-17
2.45307e-17
1.62787e-14
1.64126e-14
1.69175e-14
1.77984e-14
1.90676e-14
2.07449e-14
2.28577e-14
2.54412e-14
2.85389e-14
3.22029e-14
3.64952e-14
4.14878e-14
4.72642e-14
5.39201e-14
6.15648e-14
7.03229e-14
8.03353e-14
9.17613e-14
1.04781e-13
1.19595e-13
1.36432e-13
1.55544e-13
1.77216e-13
2.01766e-13
2.29547e-13
2.60951e-13
2.96418e-13
3.36432e-13
3.81531e-13
4.3231e-13
4.89425e-13
5.53603e-13
6.25639e-13
7.06411e-13
7.96882e-13
8.98104e-13
1.01123e-12
1.13752e-12
1.27834e-12
1.43518e-12
1.60966e-12
1.80352e-12
2.01866e-12
2.25712e-12
2.52109e-12
2.81291e-12
3.13513e-12
3.49041e-12
3.88163e-12
4.31184e-12
4.78425e-12
5.30227e-12
5.86949e-12
6.48967e-12
7.16673e-12
7.90478e-12
8.70807e-12
9.58099e-12
1.05281e-11
1.1554e-11
1.26634e-11
1.38611e-11
1.51519e-11
1.65408e-11
1.80324e-11
1.96316e-11
2.13429e-11
2.31709e-11
2.51198e-11
2.71938e-11
2.93964e-11
3.17312e-11
3.4201e-11
3.68084e-11
3.95553e-11
4.24432e-11
4.54727e-11
4.86438e-11
5.19559e-11
5.54075e-11
5.89961e-11
6.27186e-11
6.65707e-11
7.05473e-11
7.46424e-11
7.88489e-11
8.31588e-11
8.75631e-11
9.20517e-11
9.6614e-11
1.01238e-10
1.05911e-10
1.10621e-10
1.15352e-10
1.2009e-10
1.2482e-10
1.29527e-10
1.34194e-10
1.38805e-10
1.43344e-10
1.47795e-10
1.5214e-10
1.56366e-10
1.60454e-10
1.64392e-10
1.68163e-10
1.71754e-10
1.75151e-10
1.78343e-10
1.81318e-10
1.84066e-10
1.86576e-10
1.88841e-10
1.90854e-10
1.92608e-10
1.94099e-10
1.95323e-10
1.96277e-10
1.9696e-10
1.97371e-10
1.97512e-10
1.97383e-10
1.96989e-10
1.96331e-10
1.95415e-10
1.94246e-10
1.9283e-10
1.91173e-10
1.89283e-10
1.87167e-10
1.84833e-10
1.82289e-10
1.79546e-10
1.76611e-10
1.73494e-10
1.70204e-10
1.66752e-10
1.63147e-10
1.594e-10
1.55519e-10
1.51516e-10
1.474e-10
1.43182e-10
1.38873e-10
1.34482e-10
1.3002e-10
1.25498e-10
1.20926e-10
1.16316e-10
1.11677e-10
1.07021e-10
1.02359e-10
9.77029e-11
9.30628e-11
8.84504e-11
8.38769e-11
7.93538e-11
7.48921e-11
7.0503e-11
6.61976e-11
6.19864e-11
5.78799e-11
5.38881e-11
5.00205e-11
4.6286e-11
4.26928e-11
3.92485e-11
3.59597e-11
3.28322e-11
2.98708e-11
2.70792e-11
2.446e-11
2.20149e-11
1.97443e-11
1.76474e-11
1.57226e-11
1.39669e-11
1.23767e-11
1.0947e-11
9.67225e-12
8.54608e-12
7.56138e-12
6.71046e-12
5.98512e-12
5.37677e-12
4.87649e-12
4.47511e-12
4.16331e-12
3.93166e-12
3.77074e-12
3.67112e-12
3.6235e-12
3.61872e-12
3.64787e-12
3.7023e-12
3.77375e-12
3.85442e-12
3.937e-12
4.01482e-12
4.08192e-12
4.13311e-12
4.16404e-12
4.17129e-12
4.1524e-12
4.10587e-12
4.03118e-12
3.92873e-12
3.7998e-12
3.64647e-12
3.47147e-12
3.27809e-12
3.07002e-12
2.85119e-12
2.62562e-12
2.39729e-12
2.16998e-12
1.94717e-12
1.73194e-12
1.52692e-12
1.33421e-12
1.15541e-12
9.91557e-13
8.43241e-13
7.10582e-13
5.93311e-13
4.90835e-13
4.02302e-13
3.26673e-13
2.62785e-13
2.09408e-13
1.653e-13
1.29248e-13
1.00098e-13
7.67826e-14
5.83336e-14
4.38911e-14
3.27053e-14
2.4134e-14
1.76357e-14
1.27612e-14
9.14353e-15
6.48693e-15
4.55673e-15
3.16913e-15
2.18215e-15
1.48756e-15
1.00393e-15
6.70767e-16
4.43737e-16
2.90743e-16
1.88859e-16
1.21943e-16
7.88168e-17
5.1913e-17
3.63029e-17
2.90238e-17
3.05241e-14
3.07765e-14
3.17258e-14
3.33812e-14
3.57661e-14
3.8918e-14
4.28885e-14
4.77441e-14
5.35666e-14
6.04549e-14
6.85255e-14
7.79145e-14
8.87795e-14
1.01301e-13
1.15686e-13
1.32169e-13
1.51017e-13
1.72531e-13
1.9705e-13
2.24955e-13
2.56676e-13
2.92693e-13
3.33543e-13
3.79826e-13
4.3221e-13
4.9144e-13
5.58344e-13
6.33839e-13
7.18943e-13
8.14782e-13
9.22597e-13
1.04376e-12
1.17978e-12
1.33231e-12
1.50317e-12
1.69436e-12
1.90804e-12
2.1466e-12
2.41262e-12
2.7089e-12
3.0385e-12
3.40471e-12
3.81109e-12
4.26147e-12
4.75998e-12
5.31103e-12
5.91934e-12
6.58995e-12
7.32822e-12
8.13982e-12
9.03077e-12
1.00074e-11
1.10763e-11
1.22446e-11
1.35193e-11
1.49081e-11
1.64189e-11
1.80595e-11
1.98382e-11
2.17635e-11
2.38438e-11
2.60877e-11
2.85038e-11
3.11007e-11
3.38867e-11
3.687e-11
4.00586e-11
4.34601e-11
4.70814e-11
5.09291e-11
5.50091e-11
5.93263e-11
6.38851e-11
6.86884e-11
7.37385e-11
7.90362e-11
8.4581e-11
9.03711e-11
9.6403e-11
1.02672e-10
1.09171e-10
1.15892e-10
1.22825e-10
1.29958e-10
1.37278e-10
1.44768e-10
1.52411e-10
1.60189e-10
1.6808e-10
1.76063e-10
1.84113e-10
1.92205e-10
2.00313e-10
2.0841e-10
2.16466e-10
2.24453e-10
2.32342e-10
2.40102e-10
2.47703e-10
2.55117e-10
2.62313e-10
2.69263e-10
2.75939e-10
2.82314e-10
2.88363e-10
2.94062e-10
2.99388e-10
3.04321e-10
3.08843e-10
3.12936e-10
3.16586e-10
3.19782e-10
3.22513e-10
3.24772e-10
3.26553e-10
3.27854e-10
3.28673e-10
3.29012e-10
3.28875e-10
3.28266e-10
3.27194e-10
3.25668e-10
3.23697e-10
3.21295e-10
3.18474e-10
3.1525e-10
3.11638e-10
3.07656e-10
3.03319e-10
2.98646e-10
2.93656e-10
2.88368e-10
2.828e-10
2.76971e-10
2.70901e-10
2.64609e-10
2.58114e-10
2.51436e-10
2.44591e-10
2.376e-10
2.3048e-10
2.2325e-10
2.15927e-10
2.08528e-10
2.01071e-10
1.93572e-10
1.86049e-10
1.78517e-10
1.70992e-10
1.63492e-10
1.56031e-10
1.48625e-10
1.4129e-10
1.3404e-10
1.26891e-10
1.19857e-10
1.12953e-10
1.06193e-10
9.95904e-11
9.31583e-11
8.69095e-11
8.08558e-11
7.50085e-11
6.9378e-11
6.39737e-11
5.8804e-11
5.38763e-11
4.91966e-11
4.47698e-11
4.05992e-11
3.66869e-11
3.30336e-11
2.96384e-11
2.64991e-11
2.3612e-11
2.09721e-11
1.85731e-11
1.64076e-11
1.4467e-11
1.27417e-11
1.12214e-11
9.89494e-12
8.75055e-12
7.77605e-12
6.95888e-12
6.28622e-12
5.74513e-12
5.32262e-12
5.00573e-12
4.78162e-12
4.63765e-12
4.56144e-12
4.54093e-12
4.56446e-12
4.62086e-12
4.69952e-12
4.79045e-12
4.88441e-12
4.97302e-12
5.04879e-12
5.10527e-12
5.13709e-12
5.14005e-12
5.11116e-12
5.04861e-12
4.95183e-12
4.82138e-12
4.65888e-12
4.46693e-12
4.24893e-12
4.00894e-12
3.75149e-12
3.48139e-12
3.20358e-12
2.92287e-12
2.64387e-12
2.3708e-12
2.10737e-12
1.85673e-12
1.6214e-12
1.40327e-12
1.20358e-12
1.02298e-12
8.61586e-13
7.19021e-13
5.94535e-13
4.87063e-13
3.95316e-13
3.1786e-13
2.53186e-13
1.99774e-13
1.5614e-13
1.20879e-13
9.26885e-14
7.03926e-14
5.29463e-14
3.94398e-14
2.90943e-14
2.1254e-14
1.5375e-14
1.10132e-14
7.81134e-15
5.48567e-15
3.81427e-15
2.62577e-15
1.78958e-15
1.2075e-15
8.0662e-16
5.33508e-16
3.49498e-16
2.26986e-16
1.46537e-16
9.46967e-17
6.23621e-17
4.36033e-17
3.48567e-17
5.65189e-14
5.69889e-14
5.87517e-14
6.18246e-14
6.62514e-14
7.21018e-14
7.94721e-14
8.84863e-14
9.92972e-14
1.12089e-13
1.27079e-13
1.44521e-13
1.64708e-13
1.87979e-13
2.14719e-13
2.45366e-13
2.80418e-13
3.20436e-13
3.66056e-13
4.1799e-13
4.77038e-13
5.44099e-13
6.20177e-13
7.06392e-13
8.03996e-13
9.1438e-13
1.03909e-12
1.17985e-12
1.33855e-12
1.51731e-12
1.71844e-12
1.94452e-12
2.19835e-12
2.48304e-12
2.802e-12
3.15893e-12
3.55791e-12
4.00338e-12
4.50015e-12
5.05348e-12
5.66905e-12
6.35299e-12
7.11196e-12
7.95307e-12
8.884e-12
9.91294e-12
1.10487e-11
1.23005e-11
1.36785e-11
1.51929e-11
1.6855e-11
1.86764e-11
2.06693e-11
2.28464e-11
2.52211e-11
2.78071e-11
3.06186e-11
3.36701e-11
3.69764e-11
4.05527e-11
4.44141e-11
4.8576e-11
5.30533e-11
5.78611e-11
6.30138e-11
6.85257e-11
7.44099e-11
8.06792e-11
8.73449e-11
9.44174e-11
1.01905e-10
1.09816e-10
1.18155e-10
1.26926e-10
1.36129e-10
1.45764e-10
1.55826e-10
1.66309e-10
1.77204e-10
1.88497e-10
2.00172e-10
2.12211e-10
2.24591e-10
2.37286e-10
2.50267e-10
2.63502e-10
2.76955e-10
2.90587e-10
3.04357e-10
3.1822e-10
3.32129e-10
3.46037e-10
3.5989e-10
3.73638e-10
3.87227e-10
4.00603e-10
4.13711e-10
4.26497e-10
4.38907e-10
4.50889e-10
4.6239e-10
4.73362e-10
4.83758e-10
4.93532e-10
5.02644e-10
5.11056e-10
5.18733e-10
5.25645e-10
5.31765e-10
5.37072e-10
5.41548e-10
5.4518e-10
5.47959e-10
5.4988e-10
5.50945e-10
5.51157e-10
5.50526e-10
5.49062e-10
5.46783e-10
5.43707e-10
5.39858e-10
5.35261e-10
5.29943e-10
5.23935e-10
5.17269e-10
5.09979e-10
5.02099e-10
4.93666e-10
4.84716e-10
4.75286e-10
4.65414e-10
4.55138e-10
4.44493e-10
4.33517e-10
4.22245e-10
4.10714e-10
3.98957e-10
3.87009e-10
3.74902e-10
3.62667e-10
3.50336e-10
3.37938e-10
3.25501e-10
3.13053e-10
3.00621e-10
2.88231e-10
2.75906e-10
2.63671e-10
2.51548e-10
2.3956e-10
2.27729e-10
2.16075e-10
2.04618e-10
1.93377e-10
1.82371e-10
1.71618e-10
1.61134e-10
1.50938e-10
1.41042e-10
1.31463e-10
1.22214e-10
1.13308e-10
1.04755e-10
9.65652e-11
8.87478e-11
8.13097e-11
7.42563e-11
6.75915e-11
6.13174e-11
5.54341e-11
4.99402e-11
4.48324e-11
4.01053e-11
3.57521e-11
3.17641e-11
2.81308e-11
2.48406e-11
2.18802e-11
1.92353e-11
1.68903e-11
1.48289e-11
1.3034e-11
1.1488e-11
1.01729e-11
9.07045e-12
8.16237e-12
7.43035e-12
6.8563e-12
6.42236e-12
6.11103e-12
5.90522e-12
5.78839e-12
5.74454e-12
5.75835e-12
5.81523e-12
5.90144e-12
6.00413e-12
6.1115e-12
6.21286e-12
6.29878e-12
6.36115e-12
6.39325e-12
6.38988e-12
6.34735e-12
6.26348e-12
6.13762e-12
5.97052e-12
5.76428e-12
5.52215e-12
5.2484e-12
4.94809e-12
4.62682e-12
4.29056e-12
3.94537e-12
3.59719e-12
3.25166e-12
2.91392e-12
2.58852e-12
2.27927e-12
1.98923e-12
1.72063e-12
1.47497e-12
1.25299e-12
1.05476e-12
8.79791e-13
7.27121e-13
5.95405e-13
4.83033e-13
3.88222e-13
3.09104e-13
2.43797e-13
1.90475e-13
1.47404e-13
1.12988e-13
8.57792e-14
6.44981e-14
4.80295e-14
3.54201e-14
2.58676e-14
1.87072e-14
1.33965e-14
9.49929e-15
6.66943e-15
4.63628e-15
3.19094e-15
2.17431e-15
1.46679e-15
9.79643e-16
6.47828e-16
4.24315e-16
2.75531e-16
1.77847e-16
1.14913e-16
7.56634e-17
5.28957e-17
4.22809e-17
1.03327e-13
1.04192e-13
1.07425e-13
1.13059e-13
1.21174e-13
1.31899e-13
1.45412e-13
1.6194e-13
1.81765e-13
2.05227e-13
2.32725e-13
2.64729e-13
3.01779e-13
3.44497e-13
3.93595e-13
4.49881e-13
5.14272e-13
5.87808e-13
6.71656e-13
7.67136e-13
8.75724e-13
9.99079e-13
1.13906e-12
1.29773e-12
1.4774e-12
1.68066e-12
1.91035e-12
2.16966e-12
2.4621e-12
2.79156e-12
3.16235e-12
3.5792e-12
4.04732e-12
4.57246e-12
5.1609e-12
5.81951e-12
6.55582e-12
7.37801e-12
8.29502e-12
9.31651e-12
1.0453e-11
1.17158e-11
1.31171e-11
1.46702e-11
1.6389e-11
1.82888e-11
2.03856e-11
2.26965e-11
2.52398e-11
2.80347e-11
3.11015e-11
3.44613e-11
3.81366e-11
4.21504e-11
4.65269e-11
5.12909e-11
5.6468e-11
6.20843e-11
6.81663e-11
7.4741e-11
8.18353e-11
8.94759e-11
9.76894e-11
1.06502e-10
1.15938e-10
1.26021e-10
1.36775e-10
1.48219e-10
1.60372e-10
1.7325e-10
1.86865e-10
2.01228e-10
2.16344e-10
2.32215e-10
2.48839e-10
2.66208e-10
2.8431e-10
3.03128e-10
3.22639e-10
3.42813e-10
3.63615e-10
3.85005e-10
4.06934e-10
4.2935e-10
4.52193e-10
4.75397e-10
4.98893e-10
5.22603e-10
5.46446e-10
5.70338e-10
5.94187e-10
6.17902e-10
6.41387e-10
6.64545e-10
6.87276e-10
7.09483e-10
7.31067e-10
7.51931e-10
7.7198e-10
7.91123e-10
8.09271e-10
8.26342e-10
8.42257e-10
8.56945e-10
8.70341e-10
8.82387e-10
8.93032e-10
9.02235e-10
9.09962e-10
9.16187e-10
9.20894e-10
9.24073e-10
9.25726e-10
9.25861e-10
9.24495e-10
9.2165e-10
9.17359e-10
9.11658e-10
9.04593e-10
8.96213e-10
8.86571e-10
8.75727e-10
8.63744e-10
8.50686e-10
8.36622e-10
8.21621e-10
8.05755e-10
7.89095e-10
7.71713e-10
7.53679e-10
7.35065e-10
7.1594e-10
6.96372e-10
6.76426e-10
6.56168e-10
6.35657e-10
6.14955e-10
5.94116e-10
5.73197e-10
5.52247e-10
5.31317e-10
5.10451e-10
4.89695e-10
4.69088e-10
4.48671e-10
4.2848e-10
4.08549e-10
3.88911e-10
3.69596e-10
3.50633e-10
3.3205e-10
3.1387e-10
2.9612e-10
2.7882e-10
2.61992e-10
2.45655e-10
2.29828e-10
2.14527e-10
1.99767e-10
1.85562e-10
1.71924e-10
1.58864e-10
1.46391e-10
1.3451e-10
1.23228e-10
1.12546e-10
1.02466e-10
9.29859e-11
8.41022e-11
7.58088e-11
6.80973e-11
6.09571e-11
5.43754e-11
4.83373e-11
4.28258e-11
3.78221e-11
3.33057e-11
2.92546e-11
2.56455e-11
2.2454e-11
1.96551e-11
1.7223e-11
1.51315e-11
1.33542e-11
1.18651e-11
1.06379e-11
9.64692e-12
8.86707e-12
8.27368e-12
7.84289e-12
7.5516e-12
7.37762e-12
7.29967e-12
7.29755e-12
7.35214e-12
7.44554e-12
7.56116e-12
7.68381e-12
7.79986e-12
7.8973e-12
7.96586e-12
7.99712e-12
7.98457e-12
7.92363e-12
7.81165e-12
7.64787e-12
7.43332e-12
7.17066e-12
6.86404e-12
6.51879e-12
6.14124e-12
5.7384e-12
5.31767e-12
4.88655e-12
4.45241e-12
4.02219e-12
3.60222e-12
3.19805e-12
2.81437e-12
2.45486e-12
2.12225e-12
1.81829e-12
1.54385e-12
1.29897e-12
1.08298e-12
8.9464e-13
7.32255e-13
5.93801e-13
4.77052e-13
3.79678e-13
2.99346e-13
2.33787e-13
1.80859e-13
1.38584e-13
1.05177e-13
7.90582e-14
5.88541e-14
4.33902e-14
3.16793e-14
2.29041e-14
1.63978e-14
1.16246e-14
8.1597e-15
5.67098e-15
3.90224e-15
2.65845e-15
1.79306e-15
1.19733e-15
7.91644e-16
5.18427e-16
3.36589e-16
2.17226e-16
1.40335e-16
9.23891e-17
6.45796e-17
5.16152e-17
1.86509e-13
1.88081e-13
1.9394e-13
2.04141e-13
2.18835e-13
2.38253e-13
2.62721e-13
2.92653e-13
3.28561e-13
3.71064e-13
4.2089e-13
4.78891e-13
5.46054e-13
6.23513e-13
7.12561e-13
8.14674e-13
9.31525e-13
1.06501e-12
1.21725e-12
1.39066e-12
1.58794e-12
1.81211e-12
2.06656e-12
2.35507e-12
2.68187e-12
3.05166e-12
3.46966e-12
3.94169e-12
4.47416e-12
5.07421e-12
5.74968e-12
6.50925e-12
7.36245e-12
8.31978e-12
9.39272e-12
1.05939e-11
1.19369e-11
1.34369e-11
1.51102e-11
1.69743e-11
1.90485e-11
2.13535e-11
2.39116e-11
2.67468e-11
2.98848e-11
3.33531e-11
3.7181e-11
4.13997e-11
4.60423e-11
5.11436e-11
5.67403e-11
6.28709e-11
6.95756e-11
7.68962e-11
8.48759e-11
9.35594e-11
1.02992e-10
1.13221e-10
1.24293e-10
1.36256e-10
1.49157e-10
1.63042e-10
1.77958e-10
1.9395e-10
2.1106e-10
2.29327e-10
2.4879e-10
2.69481e-10
2.91429e-10
3.14657e-10
3.39185e-10
3.65023e-10
3.92175e-10
4.20638e-10
4.504e-10
4.81441e-10
5.13729e-10
5.47223e-10
5.81872e-10
6.17614e-10
6.54376e-10
6.92073e-10
7.3061e-10
7.69879e-10
8.09764e-10
8.50136e-10
8.90859e-10
9.31786e-10
9.72763e-10
1.01363e-09
1.05421e-09
1.09434e-09
1.13385e-09
1.17254e-09
1.21026e-09
1.24681e-09
1.28202e-09
1.31573e-09
1.34778e-09
1.37799e-09
1.40624e-09
1.43237e-09
1.45627e-09
1.47782e-09
1.49692e-09
1.5135e-09
1.52747e-09
1.5388e-09
1.54743e-09
1.55335e-09
1.55656e-09
1.55707e-09
1.5549e-09
1.55009e-09
1.54271e-09
1.53281e-09
1.52048e-09
1.50582e-09
1.48891e-09
1.46988e-09
1.44884e-09
1.42591e-09
1.40122e-09
1.37491e-09
1.3471e-09
1.31794e-09
1.28755e-09
1.25609e-09
1.22366e-09
1.19042e-09
1.15648e-09
1.12197e-09
1.087e-09
1.0517e-09
1.01616e-09
9.805e-10
9.44808e-10
9.09176e-10
8.73691e-10
8.38434e-10
8.03478e-10
7.68892e-10
7.3474e-10
7.01081e-10
6.67969e-10
6.35451e-10