/*--------------------------------*- C++ -*----------------------------------*\
| =========                 |                                                 |
| \\      /  F ield         | OpenFOAM: The Open Source CFD Toolbox           |
|  \\    /   O peration     | Version:  v2012                                 |
|   \\  /    A nd           | Website:  www.openfoam.com                      |
|    \\/     M anipulation  |                                                 |
\*---------------------------------------------------------------------------*/
FoamFile
{
    version     2.0;
    format      ascii;
    class       volVectorField;
    location    "70";
    object      Usup;
}
// * * * * * * * * * * * * * * * * * * * * * * * * * * * * * * * * * * * * * //

dimensions      [0 1 -1 0 0 0 0];


internalField   nonuniform List<vector> 
4000
(
(-2.88289e-16 -2.15891e-16 0)
(-4.92551e-16 -1.05746e-16 0)
(-4.60314e-16 -7.57111e-17 0)
(-3.73499e-16 1.02264e-16 0)
(-1.53499e-16 -4.14495e-17 0)
(-6.16373e-16 -3.71395e-16 0)
(-1.73638e-15 -8.43743e-16 0)
(-2.53483e-15 -6.29597e-16 0)
(-2.75923e-15 1.05749e-17 0)
(-2.88394e-15 2.08793e-16 0)
(-3.09128e-15 -4.75658e-16 0)
(-3.59796e-15 -7.40756e-16 0)
(-4.30013e-15 -5.066e-16 0)
(-4.56351e-15 -8.90461e-17 0)
(-4.32586e-15 1.65167e-17 0)
(-4.04334e-15 -4.08452e-16 0)
(-4.76966e-15 -9.72528e-16 0)
(-5.94712e-15 -8.46259e-16 0)
(-6.08271e-15 -7.11613e-16 0)
(-5.57288e-15 -5.66984e-16 0)
(-5.22525e-15 -5.00691e-16 0)
(-5.3834e-15 -4.57241e-16 0)
(-5.49597e-15 -3.70712e-16 0)
(-5.1028e-15 -4.87666e-16 0)
(-4.45004e-15 -6.35745e-16 0)
(-3.75262e-15 -5.17548e-16 0)
(-3.86279e-15 -5.28281e-16 0)
(-4.70904e-15 -5.18031e-16 0)
(-5.12518e-15 -2.34691e-16 0)
(-4.37201e-15 1.07387e-16 0)
(-3.42958e-15 2.87737e-16 0)
(-3.46305e-15 1.08279e-17 0)
(-3.7935e-15 -1.76784e-16 0)
(-3.87545e-15 -1.08822e-16 0)
(-3.61892e-15 -1.7652e-16 0)
(-3.41737e-15 -2.11222e-16 0)
(-3.68556e-15 3.49683e-17 0)
(-3.51642e-15 4.12301e-16 0)
(-2.92931e-15 3.44239e-16 0)
(-2.49486e-15 4.74218e-16 0)
(-2.03142e-15 4.3496e-17 0)
(-1.95899e-15 -3.35584e-16 0)
(-2.09613e-15 -4.95344e-16 0)
(-2.27262e-15 -6.16808e-17 0)
(-2.35946e-15 4.18214e-16 0)
(-2.12147e-15 5.7486e-16 0)
(-2.10629e-15 3.68782e-16 0)
(-2.23341e-15 1.3395e-16 0)
(-2.25956e-15 2.59315e-16 0)
(-2.28286e-15 2.5128e-16 0)
(-2.47338e-15 3.08786e-16 0)
(-2.42407e-15 4.2901e-16 0)
(-2.31584e-15 5.19564e-16 0)
(-2.0986e-15 5.16873e-16 0)
(-1.68451e-15 6.8237e-16 0)
(-8.97788e-16 1.09162e-15 0)
(-1.99421e-16 6.18975e-16 0)
(-5.84755e-16 5.0308e-16 0)
(-1.15975e-15 5.92366e-16 0)
(-1.7288e-15 3.32177e-16 0)
(-2.39843e-15 2.46517e-16 0)
(-2.67147e-15 3.30487e-16 0)
(-2.81658e-15 5.00025e-16 0)
(-2.46319e-15 9.59102e-16 0)
(-1.96754e-15 8.6994e-16 0)
(-2.35939e-15 5.60575e-16 0)
(-2.77819e-15 5.62557e-16 0)
(-2.85903e-15 6.27023e-16 0)
(-3.17359e-15 6.86773e-16 0)
(-3.35434e-15 7.11669e-16 0)
(-3.28217e-15 7.18672e-16 0)
(-3.75516e-15 7.55446e-16 0)
(-4.04882e-15 9.68379e-16 0)
(-3.71004e-15 7.90048e-16 0)
(-3.51144e-15 6.67942e-16 0)
(-3.23156e-15 4.63006e-16 0)
(-3.38961e-15 2.53025e-16 0)
(-4.12559e-15 1.19285e-16 0)
(-4.75469e-15 9.07063e-17 0)
(-5.26108e-15 1.18792e-16 0)
(-5.41694e-15 1.56115e-16 0)
(-5.46669e-15 1.4424e-16 0)
(-5.49278e-15 2.96092e-16 0)
(-5.27736e-15 1.16065e-16 0)
(-5.23079e-15 -4.2896e-16 0)
(-5.78956e-15 -3.93179e-16 0)
(-5.44872e-15 8.54747e-17 0)
(-4.48227e-15 -4.03786e-16 0)
(-3.94049e-15 -5.33396e-16 0)
(-3.11385e-15 -5.15816e-16 0)
(-2.59019e-15 -4.69609e-16 0)
(-2.64787e-15 -5.30317e-16 0)
(-2.76475e-15 -2.61176e-16 0)
(-2.83088e-15 -1.94455e-16 0)
(-2.76892e-15 -2.5379e-16 0)
(-2.66701e-15 -7.89812e-17 0)
(-2.46414e-15 2.11252e-17 0)
(-2.32689e-15 -2.34436e-17 0)
(-2.10441e-15 -9.12032e-17 0)
(-1.05474e-15 5.27947e-17 0)
(-4.29998e-16 -4.4298e-16 0)
(-9.59802e-16 -3.56244e-16 0)
(-1.10266e-15 -2.60794e-16 0)
(-1.23142e-15 -1.27e-16 0)
(-1.50351e-15 -3.27544e-16 0)
(-2.99136e-15 -1.074e-15 0)
(-5.09581e-15 -1.85471e-15 0)
(-6.24653e-15 -1.56078e-15 0)
(-7.13446e-15 -6.96732e-16 0)
(-8.70211e-15 -1.60136e-16 0)
(-9.79002e-15 -8.93454e-16 0)
(-1.04157e-14 -1.73077e-15 0)
(-1.15106e-14 -1.52714e-15 0)
(-1.23482e-14 -8.36663e-16 0)
(-1.27512e-14 -5.01092e-16 0)
(-1.30305e-14 -1.00842e-15 0)
(-1.42463e-14 -2.26878e-15 0)
(-1.61182e-14 -2.29641e-15 0)
(-1.65746e-14 -2.11447e-15 0)
(-1.57559e-14 -1.78421e-15 0)
(-1.51416e-14 -1.76045e-15 0)
(-1.52874e-14 -1.76507e-15 0)
(-1.54465e-14 -1.34651e-15 0)
(-1.46907e-14 -1.4033e-15 0)
(-1.3051e-14 -1.59439e-15 0)
(-1.15249e-14 -1.34197e-15 0)
(-1.17583e-14 -1.835e-15 0)
(-1.30638e-14 -1.73391e-15 0)
(-1.35034e-14 -6.95842e-16 0)
(-1.2082e-14 3.23841e-16 0)
(-1.06468e-14 5.98629e-16 0)
(-1.07611e-14 2.39067e-16 0)
(-1.10095e-14 -3.01638e-16 0)
(-1.10157e-14 -2.18031e-16 0)
(-1.05678e-14 -4.10678e-16 0)
(-9.89932e-15 -4.39485e-16 0)
(-9.89188e-15 2.08757e-16 0)
(-9.61992e-15 1.03521e-15 0)
(-8.49254e-15 8.29346e-16 0)
(-7.64531e-15 5.17464e-16 0)
(-6.95924e-15 7.1018e-17 0)
(-6.47496e-15 -5.59204e-16 0)
(-6.07592e-15 -6.54173e-16 0)
(-5.9232e-15 1.77555e-16 0)
(-6.2606e-15 9.91145e-16 0)
(-6.34691e-15 1.30152e-15 0)
(-6.58365e-15 9.12833e-16 0)
(-6.56072e-15 6.92558e-16 0)
(-6.47052e-15 8.65964e-16 0)
(-6.59654e-15 9.5005e-16 0)
(-6.81751e-15 9.88242e-16 0)
(-6.66445e-15 1.55631e-15 0)
(-6.4226e-15 1.67568e-15 0)
(-5.74183e-15 1.70534e-15 0)
(-4.3626e-15 1.90084e-15 0)
(-3.11512e-15 2.48751e-15 0)
(-2.12273e-15 1.86971e-15 0)
(-2.39959e-15 1.72716e-15 0)
(-3.80547e-15 1.78648e-15 0)
(-5.34334e-15 1.10256e-15 0)
(-6.6206e-15 6.39701e-16 0)
(-7.19947e-15 9.12118e-16 0)
(-7.2655e-15 1.34216e-15 0)
(-6.83999e-15 2.5002e-15 0)
(-6.59004e-15 2.55148e-15 0)
(-7.27635e-15 1.99664e-15 0)
(-7.92221e-15 2.01707e-15 0)
(-8.2754e-15 2.04615e-15 0)
(-9.04114e-15 2.01504e-15 0)
(-9.57475e-15 2.14743e-15 0)
(-9.6659e-15 1.88738e-15 0)
(-1.04819e-14 1.99756e-15 0)
(-1.12431e-14 2.25237e-15 0)
(-1.09442e-14 2.20472e-15 0)
(-1.05593e-14 1.95792e-15 0)
(-1.01965e-14 1.68662e-15 0)
(-1.06347e-14 9.36682e-16 0)
(-1.21248e-14 4.78401e-16 0)
(-1.3536e-14 1.85173e-16 0)
(-1.47206e-14 4.64286e-16 0)
(-1.52707e-14 7.89635e-16 0)
(-1.53923e-14 6.20026e-16 0)
(-1.55714e-14 2.08035e-16 0)
(-1.57043e-14 4.39026e-17 0)
(-1.54617e-14 -8.62095e-16 0)
(-1.5511e-14 -8.48457e-16 0)
(-1.50312e-14 9.57676e-18 0)
(-1.33588e-14 -8.1413e-16 0)
(-1.14269e-14 -1.33728e-15 0)
(-9.35325e-15 -1.42404e-15 0)
(-8.11434e-15 -1.47567e-15 0)
(-7.80323e-15 -1.56924e-15 0)
(-7.8054e-15 -9.30601e-16 0)
(-8.07557e-15 -6.52499e-16 0)
(-7.77275e-15 -7.80793e-16 0)
(-7.2931e-15 -4.08292e-16 0)
(-6.85532e-15 -2.39279e-16 0)
(-6.35863e-15 -4.65299e-16 0)
(-5.18054e-15 -2.25671e-16 0)
(-2.39729e-15 1.43822e-16 0)
(-5.40556e-16 -3.55637e-16 0)
(-1.32243e-15 -3.40896e-16 0)
(-1.83117e-15 -3.4922e-16 0)
(-2.30829e-15 -6.57346e-16 0)
(-3.18865e-15 -9.53811e-16 0)
(-5.53674e-15 -1.80234e-15 0)
(-8.24613e-15 -2.1008e-15 0)
(-9.91369e-15 -2.03328e-15 0)
(-1.12848e-14 -1.67829e-15 0)
(-1.36043e-14 -1.32375e-15 0)
(-1.59276e-14 -1.62626e-15 0)
(-1.71988e-14 -2.64911e-15 0)
(-1.83359e-14 -2.77175e-15 0)
(-1.9438e-14 -1.98243e-15 0)
(-2.03458e-14 -1.34402e-15 0)
(-2.15902e-14 -1.53222e-15 0)
(-2.3472e-14 -2.82272e-15 0)
(-2.55006e-14 -3.37475e-15 0)
(-2.60073e-14 -3.08733e-15 0)
(-2.51715e-14 -3.03722e-15 0)
(-2.45659e-14 -3.10995e-15 0)
(-2.43511e-14 -3.33858e-15 0)
(-2.4273e-14 -2.99442e-15 0)
(-2.34092e-14 -2.87468e-15 0)
(-2.11951e-14 -2.55202e-15 0)
(-1.95612e-14 -2.22049e-15 0)
(-1.97695e-14 -2.79958e-15 0)
(-2.03857e-14 -2.41673e-15 0)
(-2.0423e-14 -8.2382e-16 0)
(-1.90687e-14 7.46457e-16 0)
(-1.76616e-14 9.73095e-16 0)
(-1.78729e-14 5.85664e-16 0)
(-1.80126e-14 -1.00825e-16 0)
(-1.77769e-14 -1.94918e-16 0)
(-1.71482e-14 -2.90692e-16 0)
(-1.58971e-14 -1.07936e-16 0)
(-1.54198e-14 4.28371e-16 0)
(-1.52299e-14 1.06957e-15 0)
(-1.42546e-14 9.6929e-16 0)
(-1.28061e-14 5.21818e-16 0)
(-1.15496e-14 7.40552e-16 0)
(-1.07854e-14 2.1455e-16 0)
(-9.86267e-15 1.24226e-16 0)
(-9.53551e-15 4.84339e-16 0)
(-1.00444e-14 8.54191e-16 0)
(-1.04255e-14 1.16648e-15 0)
(-1.0731e-14 1.14323e-15 0)
(-1.05649e-14 1.36095e-15 0)
(-1.04416e-14 1.37526e-15 0)
(-1.06385e-14 1.61804e-15 0)
(-1.06157e-14 1.91863e-15 0)
(-1.03348e-14 2.99221e-15 0)
(-1.01884e-14 3.16532e-15 0)
(-9.16188e-15 3.42754e-15 0)
(-7.18729e-15 3.29282e-15 0)
(-5.50221e-15 3.32724e-15 0)
(-4.29888e-15 2.91143e-15 0)
(-4.63516e-15 2.64513e-15 0)
(-6.79733e-15 2.53631e-15 0)
(-9.18406e-15 1.74789e-15 0)
(-1.06029e-14 1.5222e-15 0)
(-1.11157e-14 1.99295e-15 0)
(-1.09973e-14 2.72894e-15 0)
(-1.06248e-14 3.48887e-15 0)
(-1.10231e-14 3.68323e-15 0)
(-1.20304e-14 3.39694e-15 0)
(-1.28652e-14 3.82467e-15 0)
(-1.36076e-14 3.9728e-15 0)
(-1.45997e-14 3.53966e-15 0)
(-1.55479e-14 3.77284e-15 0)
(-1.59015e-14 3.25887e-15 0)
(-1.68074e-14 3.06341e-15 0)
(-1.77371e-14 3.23382e-15 0)
(-1.75458e-14 3.61266e-15 0)
(-1.726e-14 3.1282e-15 0)
(-1.72394e-14 2.63776e-15 0)
(-1.81759e-14 1.60937e-15 0)
(-2.00592e-14 1.00438e-15 0)
(-2.16929e-14 5.77397e-16 0)
(-2.30127e-14 8.90618e-16 0)
(-2.41987e-14 1.23511e-15 0)
(-2.51149e-14 9.70847e-16 0)
(-2.52093e-14 6.16743e-17 0)
(-2.51226e-14 -4.48774e-16 0)
(-2.48429e-14 -9.78065e-16 0)
(-2.42839e-14 -1.0712e-15 0)
(-2.35899e-14 -5.42737e-16 0)
(-2.1699e-14 -1.04099e-15 0)
(-1.87743e-14 -1.9017e-15 0)
(-1.56603e-14 -2.04498e-15 0)
(-1.375e-14 -2.19022e-15 0)
(-1.27777e-14 -2.30356e-15 0)
(-1.24329e-14 -1.73576e-15 0)
(-1.28763e-14 -1.44308e-15 0)
(-1.23713e-14 -1.26669e-15 0)
(-1.14928e-14 -1.1279e-15 0)
(-1.09206e-14 -8.7316e-16 0)
(-9.69111e-15 -1.26849e-15 0)
(-7.35481e-15 -9.50997e-16 0)
(-3.4968e-15 -1.89583e-16 0)
(-5.95687e-16 -1.35872e-16 0)
(-1.71861e-15 -1.09549e-16 0)
(-2.82224e-15 -4.30979e-16 0)
(-3.75955e-15 -1.005e-15 0)
(-5.17076e-15 -1.76896e-15 0)
(-7.92756e-15 -2.05037e-15 0)
(-1.10762e-14 -1.99225e-15 0)
(-1.33943e-14 -2.12456e-15 0)
(-1.53785e-14 -2.64751e-15 0)
(-1.85406e-14 -3.07596e-15 0)
(-2.17565e-14 -3.05419e-15 0)
(-2.34802e-14 -3.54362e-15 0)
(-2.44535e-14 -3.97478e-15 0)
(-2.56229e-14 -3.43419e-15 0)
(-2.73173e-14 -2.64901e-15 0)
(-2.96411e-14 -2.3827e-15 0)
(-3.21995e-14 -3.00548e-15 0)
(-3.40804e-14 -3.80872e-15 0)
(-3.46485e-14 -3.95475e-15 0)
(-3.40403e-14 -4.41446e-15 0)
(-3.33973e-14 -4.34385e-15 0)
(-3.30596e-14 -4.48773e-15 0)
(-3.26446e-14 -4.72323e-15 0)
(-3.12398e-14 -4.39216e-15 0)
(-2.85765e-14 -3.5188e-15 0)
(-2.69947e-14 -3.17578e-15 0)
(-2.70276e-14 -3.24205e-15 0)
(-2.69752e-14 -2.56678e-15 0)
(-2.64998e-14 -7.07591e-16 0)
(-2.5391e-14 1.10894e-15 0)
(-2.45277e-14 1.47259e-15 0)
(-2.48632e-14 9.8129e-16 0)
(-2.47411e-14 4.43896e-16 0)
(-2.41193e-14 -2.98314e-18 0)
(-2.31129e-14 1.17686e-16 0)
(-2.15991e-14 3.1294e-16 0)
(-2.09151e-14 4.1642e-16 0)
(-2.05101e-14 9.65567e-16 0)
(-1.92988e-14 1.35319e-15 0)
(-1.73135e-14 1.44903e-15 0)
(-1.59223e-14 1.44633e-15 0)
(-1.52346e-14 1.34653e-15 0)
(-1.40402e-14 1.0281e-15 0)
(-1.35325e-14 7.12606e-16 0)
(-1.38583e-14 6.406e-16 0)
(-1.40899e-14 7.23615e-16 0)
(-1.43265e-14 9.5865e-16 0)
(-1.42956e-14 1.15433e-15 0)
(-1.42082e-14 1.7025e-15 0)
(-1.41358e-14 2.55772e-15 0)
(-1.37321e-14 3.16788e-15 0)
(-1.34787e-14 4.26052e-15 0)
(-1.34368e-14 4.83575e-15 0)
(-1.23609e-14 5.3472e-15 0)
(-1.03096e-14 5.28843e-15 0)
(-8.34656e-15 4.66841e-15 0)
(-7.01043e-15 3.7755e-15 0)
(-7.28918e-15 3.05687e-15 0)
(-9.85041e-15 2.9088e-15 0)
(-1.24855e-14 2.76204e-15 0)
(-1.38527e-14 2.92302e-15 0)
(-1.44517e-14 3.45684e-15 0)
(-1.46891e-14 4.20641e-15 0)
(-1.47019e-14 4.22267e-15 0)
(-1.52459e-14 4.34269e-15 0)
(-1.61827e-14 4.85502e-15 0)
(-1.71166e-14 5.67698e-15 0)
(-1.86835e-14 5.78081e-15 0)
(-1.99963e-14 5.20623e-15 0)
(-2.1131e-14 5.23822e-15 0)
(-2.20085e-14 4.80432e-15 0)
(-2.28788e-14 4.33084e-15 0)
(-2.36043e-14 4.64434e-15 0)
(-2.38439e-14 4.54691e-15 0)
(-2.41052e-14 4.11666e-15 0)
(-2.4298e-14 3.42729e-15 0)
(-2.54048e-14 2.18243e-15 0)
(-2.74806e-14 1.54004e-15 0)
(-2.9336e-14 1.41997e-15 0)
(-3.09068e-14 1.46366e-15 0)
(-3.25014e-14 1.3666e-15 0)
(-3.38709e-14 8.26567e-16 0)
(-3.43236e-14 9.45053e-17 0)
(-3.40659e-14 -8.21114e-16 0)
(-3.33611e-14 -1.42976e-15 0)
(-3.24036e-14 -1.48068e-15 0)
(-3.13949e-14 -1.03501e-15 0)
(-2.93714e-14 -1.21896e-15 0)
(-2.5705e-14 -2.0561e-15 0)
(-2.16441e-14 -2.34633e-15 0)
(-1.92468e-14 -2.56221e-15 0)
(-1.77456e-14 -2.93488e-15 0)
(-1.70391e-14 -2.73599e-15 0)
(-1.7231e-14 -2.35896e-15 0)
(-1.65781e-14 -1.94924e-15 0)
(-1.54255e-14 -2.10842e-15 0)
(-1.45524e-14 -2.12112e-15 0)
(-1.2905e-14 -2.22693e-15 0)
(-9.26465e-15 -1.90828e-15 0)
(-3.99552e-15 -7.75521e-16 0)
(-7.14462e-16 -1.77145e-16 0)
(-2.31161e-15 -5.06459e-17 0)
(-3.99243e-15 -3.35847e-16 0)
(-5.49506e-15 -8.56821e-16 0)
(-6.9849e-15 -1.37484e-15 0)
(-9.84568e-15 -1.68915e-15 0)
(-1.38077e-14 -2.06913e-15 0)
(-1.72663e-14 -2.54025e-15 0)
(-2.00666e-14 -3.82908e-15 0)
(-2.30789e-14 -5.00187e-15 0)
(-2.65117e-14 -4.66352e-15 0)
(-2.91958e-14 -4.38457e-15 0)
(-3.06011e-14 -4.26931e-15 0)
(-3.16556e-14 -4.32185e-15 0)
(-3.34444e-14 -4.07616e-15 0)
(-3.6409e-14 -3.74295e-15 0)
(-3.99115e-14 -3.52569e-15 0)
(-4.23993e-14 -3.88926e-15 0)
(-4.31248e-14 -4.62133e-15 0)
(-4.22312e-14 -5.67235e-15 0)
(-4.13028e-14 -5.76815e-15 0)
(-4.11484e-14 -5.58022e-15 0)
(-4.0426e-14 -5.64275e-15 0)
(-3.82582e-14 -5.18745e-15 0)
(-3.54431e-14 -4.33538e-15 0)
(-3.4001e-14 -4.07125e-15 0)
(-3.37361e-14 -4.09063e-15 0)
(-3.28884e-14 -3.01584e-15 0)
(-3.19055e-14 -9.0664e-16 0)
(-3.11727e-14 1.07958e-15 0)
(-3.08856e-14 1.85828e-15 0)
(-3.1347e-14 1.56328e-15 0)
(-3.119e-14 1.31908e-15 0)
(-3.02109e-14 6.0091e-16 0)
(-2.87816e-14 8.13869e-16 0)
(-2.71773e-14 6.27571e-16 0)
(-2.60412e-14 6.62125e-16 0)
(-2.51005e-14 1.29175e-15 0)
(-2.3772e-14 1.76455e-15 0)
(-2.19081e-14 2.20822e-15 0)
(-2.01932e-14 2.15927e-15 0)
(-1.92579e-14 2.18519e-15 0)
(-1.82774e-14 1.78996e-15 0)
(-1.76564e-14 1.28507e-15 0)
(-1.7776e-14 1.02239e-15 0)
(-1.78165e-14 5.52297e-16 0)
(-1.7961e-14 5.01942e-16 0)
(-1.75314e-14 8.17521e-16 0)
(-1.68969e-14 1.99182e-15 0)
(-1.70072e-14 3.19896e-15 0)
(-1.67232e-14 4.34934e-15 0)
(-1.62638e-14 5.42763e-15 0)
(-1.61976e-14 6.4064e-15 0)
(-1.51442e-14 7.08738e-15 0)
(-1.33999e-14 7.30755e-15 0)
(-1.17422e-14 6.35571e-15 0)
(-1.02876e-14 5.05421e-15 0)
(-1.0217e-14 3.97362e-15 0)
(-1.24768e-14 3.39819e-15 0)
(-1.53524e-14 3.94336e-15 0)
(-1.70083e-14 4.25378e-15 0)
(-1.76762e-14 4.59906e-15 0)
(-1.83192e-14 5.04341e-15 0)
(-1.86095e-14 5.00966e-15 0)
(-1.88347e-14 5.35759e-15 0)
(-1.9692e-14 5.9708e-15 0)
(-2.13114e-14 6.78192e-15 0)
(-2.35883e-14 6.64495e-15 0)
(-2.51512e-14 6.50282e-15 0)
(-2.64818e-14 6.75469e-15 0)
(-2.76551e-14 6.60973e-15 0)
(-2.84542e-14 6.18795e-15 0)
(-2.94459e-14 6.13318e-15 0)
(-2.9986e-14 5.44714e-15 0)
(-3.02937e-14 5.20907e-15 0)
(-3.11427e-14 4.74269e-15 0)
(-3.25641e-14 3.33586e-15 0)
(-3.43837e-14 2.18265e-15 0)
(-3.63437e-14 2.0743e-15 0)
(-3.83763e-14 1.97252e-15 0)
(-4.05092e-14 1.60706e-15 0)
(-4.21878e-14 6.51595e-16 0)
(-4.26551e-14 -1.05525e-16 0)
(-4.2403e-14 -8.88324e-16 0)
(-4.12954e-14 -1.58236e-15 0)
(-3.96071e-14 -1.66264e-15 0)
(-3.8298e-14 -1.4397e-15 0)
(-3.6305e-14 -1.42797e-15 0)
(-3.2291e-14 -1.93958e-15 0)
(-2.75696e-14 -2.59662e-15 0)
(-2.47599e-14 -3.1516e-15 0)
(-2.27899e-14 -3.67853e-15 0)
(-2.13763e-14 -3.87516e-15 0)
(-2.11955e-14 -3.63849e-15 0)
(-2.05616e-14 -3.34949e-15 0)
(-1.93538e-14 -3.41721e-15 0)
(-1.79302e-14 -3.63545e-15 0)
(-1.54129e-14 -3.34094e-15 0)
(-1.07922e-14 -2.38732e-15 0)
(-4.30366e-15 -1.02565e-15 0)
(-7.16659e-16 -9.35227e-17 0)
(-2.64211e-15 -4.88313e-17 0)
(-4.95026e-15 -1.95477e-16 0)
(-6.77854e-15 -2.92883e-16 0)
(-8.85443e-15 -6.50714e-16 0)
(-1.25022e-14 -1.82569e-15 0)
(-1.69046e-14 -2.7024e-15 0)
(-2.10538e-14 -3.4701e-15 0)
(-2.4651e-14 -4.53769e-15 0)
(-2.76441e-14 -5.64617e-15 0)
(-3.07828e-14 -5.79473e-15 0)
(-3.36377e-14 -5.64981e-15 0)
(-3.57626e-14 -4.93457e-15 0)
(-3.76317e-14 -5.10997e-15 0)
(-3.97352e-14 -5.25068e-15 0)
(-4.27457e-14 -5.12816e-15 0)
(-4.6504e-14 -4.64079e-15 0)
(-4.97026e-14 -4.73278e-15 0)
(-5.11817e-14 -5.41557e-15 0)
(-5.02667e-14 -6.4274e-15 0)
(-4.87018e-14 -7.08758e-15 0)
(-4.82175e-14 -6.74902e-15 0)
(-4.73676e-14 -5.87533e-15 0)
(-4.49292e-14 -5.36206e-15 0)
(-4.19839e-14 -5.26675e-15 0)
(-4.06676e-14 -5.25383e-15 0)
(-3.98578e-14 -4.88171e-15 0)
(-3.80741e-14 -3.28714e-15 0)
(-3.66976e-14 -1.03058e-15 0)
(-3.61954e-14 1.15556e-15 0)
(-3.65808e-14 2.21256e-15 0)
(-3.73023e-14 2.04143e-15 0)
(-3.7196e-14 1.78746e-15 0)
(-3.59523e-14 1.2057e-15 0)
(-3.4236e-14 1.21282e-15 0)
(-3.24995e-14 9.97639e-16 0)
(-3.0818e-14 1.40095e-15 0)
(-2.96087e-14 1.89802e-15 0)
(-2.79761e-14 2.21183e-15 0)
(-2.58102e-14 2.65743e-15 0)
(-2.42311e-14 2.86223e-15 0)
(-2.34287e-14 2.84627e-15 0)
(-2.23806e-14 2.63722e-15 0)
(-2.16142e-14 2.12965e-15 0)
(-2.17873e-14 1.65945e-15 0)
(-2.17471e-14 7.29143e-16 0)
(-2.13152e-14 4.31975e-16 0)
(-2.03178e-14 1.07956e-15 0)
(-1.95133e-14 2.40225e-15 0)
(-1.93806e-14 3.70581e-15 0)
(-1.89512e-14 5.33381e-15 0)
(-1.86236e-14 6.73815e-15 0)
(-1.85774e-14 7.90824e-15 0)
(-1.76747e-14 8.79601e-15 0)
(-1.63929e-14 8.93655e-15 0)
(-1.5166e-14 8.12953e-15 0)
(-1.37322e-14 6.86442e-15 0)
(-1.35784e-14 5.32208e-15 0)
(-1.53059e-14 4.16893e-15 0)
(-1.78062e-14 4.49619e-15 0)
(-1.98717e-14 5.33487e-15 0)
(-2.0852e-14 5.7522e-15 0)
(-2.17315e-14 5.99001e-15 0)
(-2.20818e-14 6.33889e-15 0)
(-2.24098e-14 6.36238e-15 0)
(-2.33467e-14 6.3381e-15 0)
(-2.52445e-14 6.9431e-15 0)
(-2.79538e-14 6.92774e-15 0)
(-2.94302e-14 7.43296e-15 0)
(-3.09999e-14 8.14196e-15 0)
(-3.278e-14 8.91151e-15 0)
(-3.39657e-14 8.73384e-15 0)
(-3.52028e-14 7.84101e-15 0)
(-3.58198e-14 7.08164e-15 0)
(-3.61544e-14 6.5073e-15 0)
(-3.75184e-14 5.63037e-15 0)
(-3.95877e-14 4.29988e-15 0)
(-4.13024e-14 3.15249e-15 0)
(-4.30182e-14 2.9357e-15 0)
(-4.53439e-14 2.3935e-15 0)
(-4.79874e-14 1.7008e-15 0)
(-4.98969e-14 8.64163e-16 0)
(-5.03088e-14 2.50097e-16 0)
(-4.99377e-14 -5.65151e-16 0)
(-4.85115e-14 -1.25202e-15 0)
(-4.65071e-14 -1.72661e-15 0)
(-4.48173e-14 -1.83107e-15 0)
(-4.25022e-14 -1.70812e-15 0)
(-3.83907e-14 -1.94484e-15 0)
(-3.34281e-14 -2.70133e-15 0)
(-3.011e-14 -3.70376e-15 0)
(-2.76751e-14 -4.57425e-15 0)
(-2.5851e-14 -5.19199e-15 0)
(-2.51688e-14 -5.3793e-15 0)
(-2.41906e-14 -5.02168e-15 0)
(-2.27763e-14 -5.00696e-15 0)
(-2.08729e-14 -4.82329e-15 0)
(-1.7433e-14 -4.18124e-15 0)
(-1.18837e-14 -2.79744e-15 0)
(-4.54975e-15 -1.10249e-15 0)
(-9.67989e-16 1.27445e-16 0)
(-3.29545e-15 5.15705e-17 0)
(-5.74413e-15 -1.71224e-16 0)
(-8.08447e-15 -1.68199e-16 0)
(-1.11326e-14 -7.88871e-16 0)
(-1.52589e-14 -2.04587e-15 0)
(-1.99018e-14 -3.3184e-15 0)
(-2.45112e-14 -4.34496e-15 0)
(-2.85471e-14 -5.17148e-15 0)
(-3.18274e-14 -5.93232e-15 0)
(-3.52472e-14 -6.35338e-15 0)
(-3.81699e-14 -6.7457e-15 0)
(-4.06295e-14 -6.63607e-15 0)
(-4.3053e-14 -6.56501e-15 0)
(-4.52875e-14 -6.19538e-15 0)
(-4.8411e-14 -5.97748e-15 0)
(-5.26604e-14 -5.952e-15 0)
(-5.65173e-14 -6.29743e-15 0)
(-5.82753e-14 -6.70944e-15 0)
(-5.75464e-14 -6.90925e-15 0)
(-5.56609e-14 -7.1277e-15 0)
(-5.43019e-14 -6.64295e-15 0)
(-5.32729e-14 -6.09201e-15 0)
(-5.1411e-14 -5.85746e-15 0)
(-4.86519e-14 -6.21588e-15 0)
(-4.67109e-14 -6.52598e-15 0)
(-4.50445e-14 -5.41446e-15 0)
(-4.26058e-14 -3.3513e-15 0)
(-4.0948e-14 -1.10279e-15 0)
(-4.07869e-14 1.08355e-15 0)
(-4.1888e-14 2.17456e-15 0)
(-4.29889e-14 2.5251e-15 0)
(-4.28403e-14 2.30519e-15 0)
(-4.13805e-14 1.86612e-15 0)
(-3.93734e-14 1.67449e-15 0)
(-3.71406e-14 1.68128e-15 0)
(-3.5106e-14 1.95465e-15 0)
(-3.38046e-14 2.41164e-15 0)
(-3.20466e-14 2.9874e-15 0)
(-2.97961e-14 3.14592e-15 0)
(-2.80023e-14 3.28722e-15 0)
(-2.70358e-14 3.60823e-15 0)
(-2.61681e-14 3.44502e-15 0)
(-2.55558e-14 3.07193e-15 0)
(-2.58406e-14 2.26653e-15 0)
(-2.56299e-14 1.21291e-15 0)
(-2.45107e-14 1.16964e-15 0)
(-2.28022e-14 1.835e-15 0)
(-2.15998e-14 3.28599e-15 0)
(-2.13854e-14 4.76857e-15 0)
(-2.08933e-14 6.52808e-15 0)
(-2.05823e-14 8.31653e-15 0)
(-2.06463e-14 9.44841e-15 0)
(-2.00508e-14 1.0106e-14 0)
(-1.92412e-14 1.00324e-14 0)
(-1.83607e-14 9.55471e-15 0)
(-1.73301e-14 8.58432e-15 0)
(-1.7257e-14 7.00231e-15 0)
(-1.84043e-14 5.57061e-15 0)
(-2.01973e-14 5.02568e-15 0)
(-2.22099e-14 5.56549e-15 0)
(-2.37152e-14 6.4476e-15 0)
(-2.47439e-14 7.09501e-15 0)
(-2.54767e-14 7.89617e-15 0)
(-2.62564e-14 7.51005e-15 0)
(-2.70064e-14 7.30152e-15 0)
(-2.89824e-14 7.32353e-15 0)
(-3.17197e-14 7.88769e-15 0)
(-3.31441e-14 8.75566e-15 0)
(-3.46653e-14 9.4463e-15 0)
(-3.68569e-14 1.04238e-14 0)
(-3.92201e-14 1.05018e-14 0)
(-4.09413e-14 9.65354e-15 0)
(-4.15118e-14 8.48911e-15 0)
(-4.21714e-14 7.39429e-15 0)
(-4.38921e-14 6.23908e-15 0)
(-4.59132e-14 5.21728e-15 0)
(-4.73898e-14 4.47345e-15 0)
(-4.93992e-14 4.01059e-15 0)
(-5.22253e-14 2.95796e-15 0)
(-5.4913e-14 2.12062e-15 0)
(-5.67404e-14 1.60482e-15 0)
(-5.72603e-14 6.55815e-16 0)
(-5.69944e-14 -3.95955e-16 0)
(-5.54347e-14 -1.22077e-15 0)
(-5.29666e-14 -1.64436e-15 0)
(-5.06918e-14 -1.5547e-15 0)
(-4.81166e-14 -1.4783e-15 0)
(-4.39848e-14 -1.87511e-15 0)
(-3.90528e-14 -2.74962e-15 0)
(-3.56117e-14 -4.19049e-15 0)
(-3.27329e-14 -5.34882e-15 0)
(-3.02629e-14 -6.53505e-15 0)
(-2.88385e-14 -6.88362e-15 0)
(-2.75099e-14 -6.54539e-15 0)
(-2.58243e-14 -6.52236e-15 0)
(-2.32441e-14 -5.88445e-15 0)
(-1.90409e-14 -4.5626e-15 0)
(-1.27389e-14 -3.00767e-15 0)
(-4.70265e-15 -1.16213e-15 0)
(-1.1787e-15 3.29167e-16 0)
(-3.92483e-15 4.00004e-16 0)
(-6.71079e-15 1.49357e-16 0)
(-9.44181e-15 -5.86648e-16 0)
(-1.31407e-14 -1.74159e-15 0)
(-1.80552e-14 -2.71158e-15 0)
(-2.31463e-14 -3.84673e-15 0)
(-2.78557e-14 -5.00477e-15 0)
(-3.2139e-14 -5.77998e-15 0)
(-3.56906e-14 -6.4279e-15 0)
(-3.93852e-14 -7.29314e-15 0)
(-4.2641e-14 -8.1262e-15 0)
(-4.5168e-14 -8.30649e-15 0)
(-4.75273e-14 -7.63757e-15 0)
(-5.01428e-14 -7.02592e-15 0)
(-5.39754e-14 -6.88833e-15 0)
(-5.8665e-14 -7.26733e-15 0)
(-6.26221e-14 -7.46855e-15 0)
(-6.43129e-14 -7.43846e-15 0)
(-6.34414e-14 -7.36447e-15 0)
(-6.14377e-14 -7.34922e-15 0)
(-6.03505e-14 -7.23348e-15 0)
(-5.95597e-14 -6.88905e-15 0)
(-5.75948e-14 -6.53939e-15 0)
(-5.48152e-14 -6.83091e-15 0)
(-5.21808e-14 -6.92911e-15 0)
(-4.94084e-14 -5.52208e-15 0)
(-4.65807e-14 -3.40379e-15 0)
(-4.4884e-14 -1.20798e-15 0)
(-4.49647e-14 7.70037e-16 0)
(-4.64088e-14 1.98816e-15 0)
(-4.78058e-14 2.70113e-15 0)
(-4.80024e-14 2.39542e-15 0)
(-4.64595e-14 1.98111e-15 0)
(-4.41226e-14 1.89401e-15 0)
(-4.17286e-14 2.51029e-15 0)
(-3.93715e-14 2.6457e-15 0)
(-3.7563e-14 3.183e-15 0)
(-3.57507e-14 3.96541e-15 0)
(-3.35093e-14 4.16289e-15 0)
(-3.14504e-14 4.42537e-15 0)
(-3.05684e-14 4.49149e-15 0)
(-2.97888e-14 3.72088e-15 0)
(-2.9304e-14 2.93248e-15 0)
(-2.98222e-14 2.17386e-15 0)
(-2.90899e-14 2.22018e-15 0)
(-2.72803e-14 2.80934e-15 0)
(-2.50822e-14 3.53029e-15 0)
(-2.35759e-14 4.6811e-15 0)
(-2.31044e-14 6.1217e-15 0)
(-2.23135e-14 7.80299e-15 0)
(-2.22752e-14 9.22346e-15 0)
(-2.28513e-14 1.03573e-14 0)
(-2.26012e-14 1.09575e-14 0)
(-2.19259e-14 1.118e-14 0)
(-2.11824e-14 1.1016e-14 0)
(-2.04891e-14 1.01563e-14 0)
(-2.07404e-14 8.58183e-15 0)
(-2.19021e-14 7.06097e-15 0)
(-2.32423e-14 6.07664e-15 0)
(-2.45904e-14 6.01644e-15 0)
(-2.58205e-14 6.86056e-15 0)
(-2.70618e-14 7.84489e-15 0)
(-2.84502e-14 8.62664e-15 0)
(-2.97972e-14 8.56083e-15 0)
(-3.07323e-14 8.3399e-15 0)
(-3.23863e-14 8.08246e-15 0)
(-3.48152e-14 9.02839e-15 0)
(-3.6546e-14 1.00288e-14 0)
(-3.83774e-14 1.06362e-14 0)
(-4.09367e-14 1.12054e-14 0)
(-4.37746e-14 1.14535e-14 0)
(-4.62103e-14 1.1482e-14 0)
(-4.72745e-14 1.01638e-14 0)
(-4.78716e-14 8.33593e-15 0)
(-4.94828e-14 7.14026e-15 0)
(-5.15991e-14 6.23666e-15 0)
(-5.32918e-14 5.44354e-15 0)
(-5.56272e-14 4.62089e-15 0)
(-5.8579e-14 3.92283e-15 0)
(-6.10973e-14 3.07672e-15 0)
(-6.32537e-14 2.46403e-15 0)
(-6.41092e-14 1.23771e-15 0)
(-6.3578e-14 -1.42363e-16 0)
(-6.15003e-14 -8.74287e-16 0)
(-5.8506e-14 -1.00268e-15 0)
(-5.59981e-14 -8.23954e-16 0)
(-5.34765e-14 -9.80753e-16 0)
(-4.9431e-14 -1.81733e-15 0)
(-4.4586e-14 -3.00814e-15 0)
(-4.08544e-14 -4.62707e-15 0)
(-3.76603e-14 -6.07444e-15 0)
(-3.47125e-14 -7.52639e-15 0)
(-3.23994e-14 -8.09787e-15 0)
(-3.06261e-14 -7.88373e-15 0)
(-2.84311e-14 -7.63815e-15 0)
(-2.49559e-14 -6.82529e-15 0)
(-2.01631e-14 -5.03756e-15 0)
(-1.35027e-14 -3.1472e-15 0)
(-4.87427e-15 -1.1648e-15 0)
(-1.42477e-15 4.743e-16 0)
(-4.60905e-15 3.94645e-16 0)
(-8.05493e-15 1.44572e-16 0)
(-1.15917e-14 -9.56646e-16 0)
(-1.54365e-14 -2.73272e-15 0)
(-2.02499e-14 -3.86961e-15 0)
(-2.5789e-14 -4.65604e-15 0)
(-3.09196e-14 -5.79031e-15 0)
(-3.5368e-14 -6.43084e-15 0)
(-3.94868e-14 -7.00781e-15 0)
(-4.37908e-14 -8.15976e-15 0)
(-4.69256e-14 -8.94323e-15 0)
(-4.89546e-14 -8.9109e-15 0)
(-5.14189e-14 -8.2929e-15 0)
(-5.46138e-14 -7.97852e-15 0)
(-5.89834e-14 -8.0304e-15 0)
(-6.39423e-14 -8.61837e-15 0)
(-6.78838e-14 -8.52108e-15 0)
(-6.9729e-14 -7.92344e-15 0)
(-6.91947e-14 -7.79564e-15 0)
(-6.73617e-14 -8.58878e-15 0)
(-6.57552e-14 -9.38769e-15 0)
(-6.44732e-14 -8.14901e-15 0)
(-6.29384e-14 -7.00635e-15 0)
(-6.0331e-14 -6.80388e-15 0)
(-5.69498e-14 -6.33089e-15 0)
(-5.34627e-14 -5.02008e-15 0)
(-5.02503e-14 -3.11511e-15 0)
(-4.84854e-14 -1.31178e-15 0)
(-4.88088e-14 1.36755e-16 0)
(-5.05885e-14 1.42434e-15 0)
(-5.25537e-14 2.11123e-15 0)
(-5.2978e-14 2.16435e-15 0)
(-5.10969e-14 1.95983e-15 0)
(-4.80592e-14 2.07373e-15 0)
(-4.5372e-14 2.7757e-15 0)
(-4.30834e-14 3.50102e-15 0)
(-4.09733e-14 4.28231e-15 0)
(-3.91201e-14 4.86785e-15 0)
(-3.69122e-14 5.14782e-15 0)
(-3.49006e-14 5.19027e-15 0)
(-3.44196e-14 4.74287e-15 0)
(-3.39509e-14 4.18773e-15 0)
(-3.31404e-14 3.3981e-15 0)
(-3.26528e-14 3.07432e-15 0)
(-3.13147e-14 3.83112e-15 0)
(-2.95792e-14 4.77507e-15 0)
(-2.7347e-14 5.5907e-15 0)
(-2.55061e-14 6.36027e-15 0)
(-2.47848e-14 7.62219e-15 0)
(-2.41743e-14 8.84349e-15 0)
(-2.41107e-14 9.70049e-15 0)
(-2.46021e-14 1.08513e-14 0)
(-2.44922e-14 1.16679e-14 0)
(-2.40742e-14 1.2164e-14 0)
(-2.38655e-14 1.19863e-14 0)
(-2.38279e-14 1.12636e-14 0)
(-2.42964e-14 9.3946e-15 0)
(-2.51616e-14 8.13825e-15 0)
(-2.61053e-14 7.68957e-15 0)
(-2.70385e-14 7.59637e-15 0)
(-2.80508e-14 8.13812e-15 0)
(-2.93933e-14 8.39018e-15 0)
(-3.11573e-14 8.86432e-15 0)
(-3.2935e-14 8.99775e-15 0)
(-3.40998e-14 8.85752e-15 0)
(-3.55081e-14 8.39174e-15 0)
(-3.76228e-14 9.32715e-15 0)
(-3.9603e-14 1.08269e-14 0)
(-4.17451e-14 1.15468e-14 0)
(-4.44951e-14 1.22599e-14 0)
(-4.75365e-14 1.25351e-14 0)
(-5.06748e-14 1.27498e-14 0)
(-5.28651e-14 1.14392e-14 0)
(-5.36927e-14 9.44767e-15 0)
(-5.50105e-14 7.84186e-15 0)
(-5.70388e-14 6.80589e-15 0)
(-5.87772e-14 5.801e-15 0)
(-6.10323e-14 5.30656e-15 0)
(-6.41544e-14 5.10423e-15 0)
(-6.6993e-14 4.34829e-15 0)
(-6.92285e-14 3.45363e-15 0)
(-7.03452e-14 2.32768e-15 0)
(-6.96466e-14 1.01087e-15 0)
(-6.6993e-14 1.9513e-16 0)
(-6.35746e-14 -3.40522e-16 0)
(-6.09356e-14 -5.39147e-16 0)
(-5.86339e-14 -6.00274e-16 0)
(-5.47324e-14 -1.45319e-15 0)
(-4.98247e-14 -2.97851e-15 0)
(-4.60311e-14 -4.88638e-15 0)
(-4.25151e-14 -6.74888e-15 0)
(-3.89121e-14 -8.11189e-15 0)
(-3.57857e-14 -8.84204e-15 0)
(-3.33729e-14 -8.81342e-15 0)
(-3.07416e-14 -8.38386e-15 0)
(-2.64921e-14 -7.49442e-15 0)
(-2.09353e-14 -5.68364e-15 0)
(-1.39209e-14 -3.48573e-15 0)
(-5.00344e-15 -1.11105e-15 0)
(-1.77365e-15 2.24455e-16 0)
(-5.35036e-15 -4.32498e-18 0)
(-9.20705e-15 -4.1128e-16 0)
(-1.35315e-14 -1.17644e-15 0)
(-1.78182e-14 -2.68588e-15 0)
(-2.26321e-14 -4.29745e-15 0)
(-2.83942e-14 -5.58388e-15 0)
(-3.36941e-14 -6.7422e-15 0)
(-3.82704e-14 -7.56793e-15 0)
(-4.28912e-14 -8.08885e-15 0)
(-4.74112e-14 -8.66436e-15 0)
(-5.04418e-14 -8.57937e-15 0)
(-5.25476e-14 -8.45101e-15 0)
(-5.52658e-14 -8.64546e-15 0)
(-5.88928e-14 -8.97494e-15 0)
(-6.3858e-14 -9.65138e-15 0)
(-6.88511e-14 -1.02546e-14 0)
(-7.22819e-14 -9.75008e-15 0)
(-7.42157e-14 -8.72388e-15 0)
(-7.45459e-14 -8.44369e-15 0)
(-7.33188e-14 -9.29954e-15 0)
(-7.07568e-14 -1.00562e-14 0)
(-6.84924e-14 -9.38812e-15 0)
(-6.71917e-14 -7.97254e-15 0)
(-6.47714e-14 -6.98003e-15 0)
(-6.11691e-14 -5.77515e-15 0)
(-5.71812e-14 -4.39975e-15 0)
(-5.38194e-14 -2.75207e-15 0)
(-5.22716e-14 -1.49143e-15 0)
(-5.25271e-14 -5.94192e-16 0)
(-5.43124e-14 1.6093e-16 0)
(-5.63906e-14 1.21673e-15 0)
(-5.7011e-14 2.0451e-15 0)
(-5.51848e-14 2.46073e-15 0)
(-5.19317e-14 2.98416e-15 0)
(-4.88239e-14 3.1511e-15 0)
(-4.61286e-14 4.07582e-15 0)
(-4.4129e-14 4.85929e-15 0)
(-4.23849e-14 5.40148e-15 0)
(-4.02477e-14 5.87264e-15 0)
(-3.84473e-14 5.71726e-15 0)
(-3.77574e-14 5.04577e-15 0)
(-3.70152e-14 5.2255e-15 0)
(-3.61772e-14 5.13401e-15 0)
(-3.54009e-14 5.07651e-15 0)
(-3.35987e-14 5.14662e-15 0)
(-3.16224e-14 6.17029e-15 0)
(-2.94375e-14 7.4221e-15 0)
(-2.74903e-14 8.22586e-15 0)
(-2.65696e-14 8.89416e-15 0)
(-2.59497e-14 9.84713e-15 0)
(-2.58242e-14 1.06848e-14 0)
(-2.62817e-14 1.1567e-14 0)
(-2.63652e-14 1.22739e-14 0)
(-2.62911e-14 1.23049e-14 0)
(-2.63542e-14 1.21074e-14 0)
(-2.68768e-14 1.15854e-14 0)
(-2.75672e-14 1.01015e-14 0)
(-2.78041e-14 9.13274e-15 0)
(-2.84667e-14 8.82668e-15 0)
(-2.9301e-14 8.81011e-15 0)
(-3.0508e-14 9.08339e-15 0)
(-3.20334e-14 8.91309e-15 0)
(-3.37433e-14 9.34487e-15 0)
(-3.57804e-14 9.43664e-15 0)
(-3.74038e-14 9.50481e-15 0)
(-3.85256e-14 9.09366e-15 0)
(-3.97763e-14 9.86504e-15 0)
(-4.19362e-14 1.14168e-14 0)
(-4.46146e-14 1.24269e-14 0)
(-4.77629e-14 1.28795e-14 0)
(-5.12199e-14 1.34861e-14 0)
(-5.50645e-14 1.31665e-14 0)
(-5.79876e-14 1.1761e-14 0)
(-5.90402e-14 9.89125e-15 0)
(-6.01972e-14 8.15337e-15 0)
(-6.21328e-14 7.48925e-15 0)
(-6.36939e-14 6.80782e-15 0)
(-6.56947e-14 6.38919e-15 0)
(-6.9061e-14 6.26193e-15 0)
(-7.22569e-14 5.85945e-15 0)
(-7.47837e-14 5.00282e-15 0)
(-7.59678e-14 3.64063e-15 0)
(-7.51407e-14 2.4137e-15 0)
(-7.23322e-14 1.80027e-15 0)
(-6.86392e-14 3.82293e-16 0)
(-6.54536e-14 -4.02915e-16 0)
(-6.30144e-14 -4.07785e-16 0)
(-5.95993e-14 -8.31685e-16 0)
(-5.50613e-14 -2.70945e-15 0)
(-5.11087e-14 -4.87847e-15 0)
(-4.70575e-14 -6.54505e-15 0)
(-4.2835e-14 -8.03485e-15 0)
(-3.90644e-14 -8.93213e-15 0)
(-3.60019e-14 -8.86299e-15 0)
(-3.27278e-14 -8.3411e-15 0)
(-2.77809e-14 -7.59527e-15 0)