/*--------------------------------*- C++ -*----------------------------------*\
| =========                 |                                                 |
| \\      /  F ield         | OpenFOAM: The Open Source CFD Toolbox           |
|  \\    /   O peration     | Version:  v2012                                 |
|   \\  /    A nd           | Website:  www.openfoam.com                      |
|    \\/     M anipulation  |                                                 |
\*---------------------------------------------------------------------------*/
FoamFile
{
    version     2.0;
    format      ascii;
    class       volVectorField;
    location    "0";
    object      uRec;
}
// * * * * * * * * * * * * * * * * * * * * * * * * * * * * * * * * * * * * * //

dimensions      [0 1 -1 0 0 0 0];


internalField   nonuniform List<vector> 
4000
(
(1 1.42466e-15 0)
(1 7.48062e-17 0)
(1 -1.31832e-15 0)
(1 1.31232e-16 0)
(1 2.34346e-17 0)
(1 6.04703e-16 0)
(1 1.65053e-15 0)
(1 -5.43804e-16 0)
(1 2.86027e-15 0)
(1 -9.48428e-16 0)
(1 -2.69131e-15 0)
(1 1.93141e-16 0)
(1 1.3172e-15 0)
(1 8.28943e-16 0)
(1 -7.19532e-16 0)
(1 8.67431e-16 0)
(1 1.48507e-16 0)
(1 -4.87828e-16 0)
(1 1.65249e-15 0)
(1 1.36915e-15 0)
(1 3.80521e-16 0)
(1 6.83904e-16 0)
(1 -1.57874e-15 0)
(1 6.472e-16 0)
(1 -1.13708e-15 0)
(1 -4.09748e-16 0)
(1 2.16422e-16 0)
(1 -9.06066e-16 0)
(1 4.55198e-17 0)
(1 9.99769e-17 0)
(1 1.66359e-15 0)
(1 1.87979e-15 0)
(1 -4.96137e-16 0)
(1 -4.44528e-16 0)
(1 5.06472e-17 0)
(1 -4.57674e-16 0)
(1 -5.01868e-16 0)
(1 1.64567e-15 0)
(1 4.06713e-16 0)
(1 -1.20502e-15 0)
(1 8.21359e-17 0)
(1 -1.23015e-15 0)
(1 -3.69159e-16 0)
(1 2.12794e-15 0)
(1 1.0521e-15 0)
(1 -8.5528e-16 0)
(1 3.34327e-16 0)
(1 -5.36261e-17 0)
(1 6.57849e-16 0)
(1 -2.0072e-16 0)
(1 3.86508e-16 0)
(1 6.90508e-16 0)
(1 1.01498e-15 0)
(1 2.2956e-15 0)
(1 1.72641e-15 0)
(1 1.81143e-15 0)
(1 4.7006e-16 0)
(1 3.76399e-17 0)
(1 -3.28035e-16 0)
(1 1.18518e-17 0)
(1 -1.051e-15 0)
(1 -7.5904e-16 0)
(1 -4.18738e-16 0)
(1 5.77825e-16 0)
(1 3.28031e-16 0)
(1 4.16652e-16 0)
(1 -3.25924e-16 0)
(1 -1.87374e-16 0)
(1 2.38439e-16 0)
(1 -6.31063e-16 0)
(1 -3.89225e-16 0)
(1 3.47066e-16 0)
(1 -2.69232e-16 0)
(1 -3.76825e-16 0)
(1 -1.16694e-15 0)
(1 -1.25011e-15 0)
(1 -3.63825e-16 0)
(1 4.57785e-17 0)
(1 1.96585e-16 0)
(1 8.134e-16 0)
(1 4.34541e-16 0)
(1 7.53073e-16 0)
(1 -5.90994e-16 0)
(1 -2.84905e-17 0)
(1 -1.10488e-15 0)
(1 -7.25405e-16 0)
(1 1.20036e-15 0)
(1 1.14544e-15 0)
(1 2.03259e-16 0)
(1 1.16747e-15 0)
(1 2.71828e-16 0)
(1 2.29403e-16 0)
(1 8.45717e-16 0)
(1 1.04709e-15 0)
(1 -2.39974e-16 0)
(1 -1.64467e-16 0)
(1 5.28495e-16 0)
(1 2.18847e-16 0)
(1 -5.44295e-16 0)
(1 -5.6114e-16 0)
(1 1.16333e-15 0)
(1 1.12909e-15 0)
(1 -1.10623e-15 0)
(1 2.2915e-16 0)
(1 -6.84154e-16 0)
(1 1.15433e-15 0)
(1 2.05132e-15 0)
(1 -1.87624e-16 0)
(1 2.95555e-15 0)
(1 8.51821e-16 0)
(1 -9.7711e-16 0)
(1 -6.21989e-16 0)
(1 8.48802e-16 0)
(1 -1.54918e-16 0)
(1 -9.80901e-16 0)
(1 2.64851e-15 0)
(1 1.25056e-15 0)
(1 1.3036e-16 0)
(1 1.71663e-15 0)
(1 1.08093e-15 0)
(1 1.06652e-15 0)
(1 6.89905e-16 0)
(1 -1.39284e-15 0)
(1 4.53409e-16 0)
(1 -1.25863e-15 0)
(1 3.10403e-16 0)
(1 1.41745e-15 0)
(1 -1.76679e-15 0)
(1 2.8508e-16 0)
(1 3.23591e-16 0)
(1 5.35247e-16 0)
(1 1.69755e-15 0)
(1 -1.651e-15 0)
(1 2.55705e-16 0)
(1 1.33744e-15 0)
(1 2.89775e-16 0)
(1 8.06997e-16 0)
(1 2.68757e-15 0)
(1 -1.1568e-15 0)
(1 -1.98539e-15 0)
(1 -1.66679e-15 0)
(1 -1.14454e-15 0)
(1 1.18626e-16 0)
(1 2.50411e-15 0)
(1 1.26307e-15 0)
(1 -5.71367e-17 0)
(1 1.64086e-15 0)
(1 2.01276e-15 0)
(1 2.35266e-15 0)
(1 1.64884e-15 0)
(1 1.37924e-15 0)
(1 2.28761e-16 0)
(1 7.86657e-16 0)
(1 1.09539e-15 0)
(1 1.68635e-15 0)
(1 7.94668e-16 0)
(1 1.25777e-15 0)
(1 1.37721e-15 0)
(1 9.36968e-16 0)
(1 -7.15373e-16 0)
(1 1.13885e-15 0)
(1 9.03919e-16 0)
(1 1.32311e-16 0)
(1 8.49049e-16 0)
(1 2.6358e-16 0)
(1 1.20951e-15 0)
(1 -1.20206e-15 0)
(1 -6.54134e-16 0)
(1 6.89124e-16 0)
(1 -4.54017e-16 0)
(1 -6.06952e-16 0)
(1 4.36088e-16 0)
(1 1.49904e-15 0)
(1 4.78655e-16 0)
(1 2.98699e-16 0)
(1 -6.11525e-16 0)
(1 3.83821e-16 0)
(1 1.08394e-15 0)
(1 1.65776e-16 0)
(1 2.27459e-15 0)
(1 1.54545e-15 0)
(1 6.29171e-16 0)
(1 3.80002e-16 0)
(1 -3.71891e-16 0)
(1 -9.57191e-16 0)
(1 -9.56936e-16 0)
(1 1.73467e-16 0)
(1 1.51381e-15 0)
(1 4.19054e-16 0)
(1 1.7388e-15 0)
(1 4.63313e-16 0)
(1 -9.1437e-17 0)
(1 1.44752e-15 0)
(1 1.53041e-15 0)
(1 -1.19704e-15 0)
(1 2.08598e-16 0)
(1 9.71896e-16 0)
(1 -7.99594e-16 0)
(1 -9.87373e-16 0)
(1 -9.49779e-16 0)
(1 -1.00654e-15 0)
(1 2.78524e-15 0)
(1 -1.53141e-15 0)
(1 9.67455e-16 0)
(1 -5.40788e-16 0)
(1 1.02328e-15 0)
(1 1.90074e-15 0)
(1 3.7733e-15 0)
(1 -1.18342e-16 0)
(1 2.25121e-16 0)
(1 8.15133e-16 0)
(1 1.79784e-15 0)
(1 1.43349e-15 0)
(1 8.00014e-16 0)
(1 6.18723e-16 0)
(1 1.83702e-15 0)
(1 1.62085e-15 0)
(1 2.85245e-15 0)
(1 1.07141e-16 0)
(1 6.68505e-16 0)
(1 7.76599e-16 0)
(1 -1.16948e-15 0)
(1 1.37101e-16 0)
(1 -2.37992e-16 0)
(1 2.8191e-15 0)
(1 1.82742e-15 0)
(1 2.55073e-15 0)
(1 -1.06988e-15 0)
(1 3.94317e-16 0)
(1 6.76304e-16 0)
(1 -3.19525e-16 0)
(1 -9.29817e-16 0)
(1 -3.16537e-16 0)
(1 5.68405e-16 0)
(1 2.13308e-16 0)
(1 1.72631e-15 0)
(1 6.64459e-16 0)
(1 3.23058e-15 0)
(1 1.88696e-15 0)
(1 -1.59348e-15 0)
(1 -5.46804e-16 0)
(1 -3.88662e-16 0)
(1 6.2825e-16 0)
(1 3.46797e-16 0)
(1 1.31882e-15 0)
(1 4.66407e-16 0)
(1 2.38993e-15 0)
(1 3.74778e-15 0)
(1 2.63224e-15 0)
(1 2.00278e-15 0)
(1 3.22077e-15 0)
(1 1.31996e-15 0)
(1 1.951e-15 0)
(1 1.29374e-16 0)
(1 1.80072e-15 0)
(1 1.69166e-15 0)
(1 2.73221e-15 0)
(1 3.02341e-15 0)
(1 3.58761e-15 0)
(1 8.19299e-16 0)
(1 8.63318e-17 0)
(1 1.0484e-15 0)
(1 4.21556e-16 0)
(1 -3.43829e-16 0)
(1 6.13265e-17 0)
(1 4.80901e-16 0)
(1 -2.87953e-16 0)
(1 2.23584e-16 0)
(1 1.57538e-15 0)
(1 2.58765e-16 0)
(1 5.20006e-16 0)
(1 -6.40393e-16 0)
(1 -5.71374e-16 0)
(1 -8.8957e-16 0)
(1 8.03108e-16 0)
(1 -4.66251e-16 0)
(1 8.92352e-16 0)
(1 8.79884e-17 0)
(1 9.23003e-16 0)
(1 2.01364e-16 0)
(1 6.73465e-16 0)
(1 1.15525e-15 0)
(1 1.01807e-15 0)
(1 2.64226e-16 0)
(1 -2.9521e-16 0)
(1 5.53979e-16 0)
(1 -4.19105e-16 0)
(1 1.57832e-15 0)
(1 6.99089e-16 0)
(1 1.90559e-15 0)
(1 7.01838e-16 0)
(1 8.21255e-16 0)
(1 2.36559e-16 0)
(1 1.27808e-15 0)
(1 -3.39022e-16 0)
(1 1.19905e-15 0)
(1 1.06434e-15 0)
(1 -1.55994e-15 0)
(1 -3.20943e-16 0)
(1 -7.40494e-16 0)
(1 -1.66253e-16 0)
(1 1.02726e-15 0)
(1 -7.58001e-16 0)
(1 -1.34602e-15 0)
(1 2.31979e-15 0)
(1 1.13794e-15 0)
(1 3.48278e-15 0)
(1 3.79061e-15 0)
(1 1.30474e-15 0)
(1 -1.92387e-17 0)
(1 -7.6343e-16 0)
(1 2.51737e-15 0)
(1 -2.47544e-16 0)
(1 2.85142e-15 0)
(1 3.63215e-15 0)
(1 2.55034e-16 0)
(1 2.32942e-15 0)
(1 2.33905e-15 0)
(1 3.57264e-16 0)
(1 3.26783e-15 0)
(1 1.17653e-16 0)
(1 9.84977e-16 0)
(1 3.53933e-16 0)
(1 8.86011e-16 0)
(1 4.65581e-15 0)
(1 1.62945e-15 0)
(1 2.29798e-15 0)
(1 -6.13036e-16 0)
(1 1.49468e-15 0)
(1 8.39235e-16 0)
(1 8.66991e-16 0)
(1 4.51093e-17 0)
(1 8.77898e-17 0)
(1 -5.90314e-16 0)
(1 -1.20627e-15 0)
(1 -2.46882e-16 0)
(1 -2.00995e-16 0)
(1 5.21977e-16 0)
(1 3.18482e-15 0)
(1 3.66142e-16 0)
(1 2.51618e-15 0)
(1 4.6716e-16 0)
(1 2.0449e-18 0)
(1 1.2451e-15 0)
(1 2.67323e-15 0)
(1 2.41391e-15 0)
(1 2.16005e-15 0)
(1 3.31486e-15 0)
(1 2.95941e-15 0)
(1 2.27942e-15 0)
(1 3.80521e-15 0)
(1 2.77533e-15 0)
(1 2.73958e-15 0)
(1 2.27956e-15 0)
(1 3.07733e-15 0)
(1 3.20223e-15 0)
(1 3.97301e-15 0)
(1 3.77561e-15 0)
(1 3.32726e-15 0)
(1 3.28927e-15 0)
(1 1.47793e-15 0)
(1 -1.25337e-15 0)
(1 -4.26876e-16 0)
(1 4.39381e-16 0)
(1 2.21579e-16 0)
(1 5.27498e-16 0)
(1 6.28692e-16 0)
(1 1.38897e-15 0)
(1 2.35921e-16 0)
(1 -3.55238e-16 0)
(1 2.34112e-16 0)
(1 -1.86005e-15 0)
(1 -1.73454e-15 0)
(1 -1.49154e-15 0)
(1 -2.97639e-16 0)
(1 1.74729e-15 0)
(1 2.55008e-15 0)
(1 6.38508e-16 0)
(1 2.75859e-15 0)
(1 6.59622e-16 0)
(1 -8.79321e-16 0)
(1 2.22334e-15 0)
(1 4.51968e-17 0)
(1 9.59266e-16 0)
(1 6.69448e-16 0)
(1 7.30753e-18 0)
(1 2.16493e-15 0)
(1 8.2442e-16 0)
(1 1.73368e-15 0)
(1 1.74052e-15 0)
(1 5.60851e-16 0)
(1 2.19511e-15 0)
(1 1.0039e-15 0)
(1 1.70953e-15 0)
(1 8.92363e-16 0)
(1 3.81976e-16 0)
(1 3.88074e-16 0)
(1 6.58583e-16 0)
(1 -1.5392e-15 0)
(1 -1.7465e-15 0)
(1 1.13636e-15 0)
(1 -5.94727e-16 0)
(1 2.21516e-15 0)
(1 -1.36011e-16 0)
(1 2.76998e-15 0)
(1 1.96728e-15 0)
(1 1.273e-15 0)
(1 2.50679e-16 0)
(1 2.61082e-15 0)
(1 2.03335e-15 0)
(1 2.06056e-15 0)
(1 3.24567e-15 0)
(1 7.99043e-16 0)
(1 1.4466e-15 0)
(1 2.62273e-15 0)
(1 1.92146e-15 0)
(1 3.77537e-15 0)
(1 1.5498e-15 0)
(1 7.97291e-16 0)
(1 3.11422e-16 0)
(1 1.09228e-15 0)
(1 3.249e-15 0)
(1 2.19264e-15 0)
(1 2.16332e-15 0)
(1 -2.88687e-16 0)
(1 3.21922e-17 0)
(1 -1.71007e-16 0)
(1 1.25846e-15 0)
(1 1.38893e-15 0)
(1 3.86136e-16 0)
(1 9.70981e-17 0)
(1 1.38194e-15 0)
(1 -1.15957e-15 0)
(1 2.78341e-15 0)
(1 -1.55786e-16 0)
(1 -1.22097e-15 0)
(1 1.04999e-15 0)
(1 -8.39267e-16 0)
(1 2.06922e-15 0)
(1 2.81512e-15 0)
(1 2.75093e-15 0)
(1 6.82187e-16 0)
(1 -1.04203e-15 0)
(1 4.08257e-16 0)
(1 6.70995e-16 0)
(1 4.22492e-15 0)
(1 3.1213e-15 0)
(1 4.80705e-15 0)
(1 4.07826e-15 0)
(1 4.01139e-15 0)
(1 2.54373e-15 0)
(1 2.24699e-15 0)
(1 2.11829e-15 0)
(1 3.20845e-15 0)
(1 3.38598e-15 0)
(1 2.34628e-15 0)
(1 3.31535e-15 0)
(1 2.92372e-15 0)
(1 2.52175e-15 0)
(1 3.39135e-15 0)
(1 4.79125e-15 0)
(1 7.86337e-16 0)
(1 1.52397e-15 0)
(1 8.52795e-16 0)
(1 1.64867e-15 0)
(1 2.35234e-15 0)
(1 2.53746e-15 0)
(1 1.94002e-15 0)
(1 -9.09255e-16 0)
(1 9.66449e-16 0)
(1 -1.3588e-15 0)
(1 -7.75407e-16 0)
(1 1.33489e-15 0)
(1 1.0133e-16 0)
(1 1.26077e-16 0)
(1 1.33091e-15 0)
(1 1.77916e-15 0)
(1 1.24161e-15 0)
(1 1.37664e-15 0)
(1 1.50009e-15 0)
(1 1.90339e-16 0)
(1 3.55913e-16 0)
(1 3.69734e-17 0)
(1 2.33265e-16 0)
(1 2.24695e-15 0)
(1 1.18934e-15 0)
(1 2.22831e-15 0)
(1 1.13097e-15 0)
(1 1.82253e-15 0)
(1 9.13054e-16 0)
(1 1.59166e-15 0)
(1 1.75721e-15 0)
(1 2.76133e-15 0)
(1 1.81252e-15 0)
(1 2.63244e-15 0)
(1 6.64941e-16 0)
(1 -4.78269e-16 0)
(1 9.14845e-16 0)
(1 -8.41595e-16 0)
(1 -2.53188e-16 0)
(1 2.80319e-16 0)
(1 -3.52415e-16 0)
(1 3.25465e-15 0)
(1 2.68657e-15 0)
(1 9.72692e-16 0)
(1 1.55686e-15 0)
(1 -3.10758e-16 0)
(1 2.06329e-15 0)
(1 1.60879e-15 0)
(1 2.31644e-15 0)
(1 3.6065e-15 0)
(1 3.57376e-15 0)
(1 2.63587e-15 0)
(1 1.50137e-15 0)
(1 2.08751e-15 0)
(1 2.85759e-15 0)
(1 1.69543e-15 0)
(1 1.74808e-15 0)
(1 8.0941e-16 0)
(1 -1.26537e-15 0)
(1 1.77892e-15 0)
(1 2.01158e-15 0)
(1 5.79808e-15 0)
(1 3.5228e-15 0)
(1 1.8807e-15 0)
(1 1.54405e-15 0)
(1 1.0096e-16 0)
(1 2.24067e-15 0)
(1 -2.0895e-15 0)
(1 1.5569e-16 0)
(1 -1.39993e-15 0)
(1 9.62923e-16 0)
(1 -4.28952e-16 0)
(1 2.84875e-15 0)
(1 5.89565e-16 0)
(1 8.92089e-16 0)
(1 2.85874e-15 0)
(1 2.07638e-15 0)
(1 1.08032e-15 0)
(1 1.38717e-15 0)
(1 1.63677e-15 0)
(1 2.07388e-15 0)
(1 7.98623e-16 0)
(1 3.16833e-16 0)
(1 2.71488e-15 0)
(1 3.67913e-15 0)
(1 3.89214e-15 0)
(1 4.75858e-15 0)
(1 4.67878e-15 0)
(1 3.80447e-15 0)
(1 2.13214e-15 0)
(1 3.3567e-15 0)
(1 4.1155e-15 0)
(1 3.89677e-15 0)
(1 2.78271e-15 0)
(1 3.85672e-15 0)
(1 4.32027e-15 0)
(1 4.20492e-15 0)
(1 4.65115e-15 0)
(1 5.42416e-15 0)
(1 2.21257e-15 0)
(1 1.82049e-15 0)
(1 1.0048e-15 0)
(1 6.01303e-16 0)
(1 2.27707e-15 0)
(1 2.76403e-15 0)
(1 3.33059e-15 0)
(1 1.72393e-15 0)
(1 1.48952e-15 0)
(1 9.69424e-16 0)
(1 1.37121e-15 0)
(1 1.25084e-15 0)
(1 1.76148e-15 0)
(1 3.56331e-16 0)
(1 4.51766e-16 0)
(1 6.56234e-16 0)
(1 1.51302e-15 0)
(1 1.72853e-15 0)
(1 -9.77082e-16 0)
(1 5.41937e-16 0)
(1 1.76522e-15 0)
(1 1.8268e-15 0)
(1 1.39772e-15 0)
(1 1.69776e-15 0)
(1 6.30995e-16 0)
(1 5.52195e-16 0)
(1 -1.74797e-16 0)
(1 -3.47957e-16 0)
(1 5.03555e-16 0)
(1 1.19277e-15 0)
(1 2.32776e-15 0)
(1 2.20209e-15 0)
(1 2.85705e-15 0)
(1 2.84879e-15 0)
(1 3.70528e-15 0)
(1 2.6175e-15 0)
(1 8.89426e-16 0)
(1 -6.39907e-16 0)
(1 1.66958e-15 0)
(1 1.88057e-15 0)
(1 1.53529e-16 0)
(1 3.53079e-16 0)
(1 3.19475e-15 0)
(1 1.20491e-15 0)
(1 1.60185e-15 0)
(1 8.48084e-16 0)
(1 2.76649e-15 0)
(1 5.95578e-15 0)
(1 1.94574e-15 0)
(1 3.74391e-15 0)
(1 2.02245e-15 0)
(1 1.71448e-15 0)
(1 1.09092e-15 0)
(1 3.14572e-15 0)
(1 2.04848e-15 0)
(1 3.76306e-15 0)
(1 1.53908e-15 0)
(1 1.29945e-15 0)
(1 8.03134e-16 0)
(1 3.17146e-15 0)
(1 2.18161e-15 0)
(1 4.15492e-16 0)
(1 3.12209e-15 0)
(1 -1.6535e-15 0)
(1 3.14973e-15 0)
(1 8.79732e-16 0)
(1 1.41094e-15 0)
(1 1.16057e-15 0)
(1 4.53737e-16 0)
(1 1.19554e-15 0)
(1 1.3091e-15 0)
(1 1.27552e-15 0)
(1 1.81404e-15 0)
(1 -7.09139e-16 0)
(1 3.12438e-16 0)
(1 2.37929e-15 0)
(1 3.86157e-16 0)
(1 2.24924e-15 0)
(1 -5.03838e-16 0)
(1 3.78068e-15 0)
(1 2.09021e-15 0)
(1 2.93021e-15 0)
(1 2.8421e-15 0)
(1 1.51205e-15 0)
(1 3.39212e-15 0)
(1 3.89547e-15 0)
(1 4.86858e-15 0)
(1 2.33803e-15 0)
(1 4.40748e-15 0)
(1 3.3171e-15 0)
(1 2.84299e-15 0)
(1 3.65003e-15 0)
(1 4.17481e-15 0)
(1 4.2538e-15 0)
(1 3.18578e-15 0)
(1 3.61655e-15 0)
(1 5.07211e-15 0)
(1 5.41666e-15 0)
(1 5.08596e-15 0)
(1 4.85905e-15 0)
(1 2.653e-15 0)
(1 3.67979e-15 0)
(1 2.00325e-15 0)
(1 2.22664e-15 0)
(1 1.32319e-15 0)
(1 8.89247e-16 0)
(1 7.45171e-16 0)
(1 2.47352e-15 0)
(1 2.13456e-15 0)
(1 5.84094e-16 0)
(1 3.23863e-15 0)
(1 1.91994e-15 0)
(1 2.7165e-16 0)
(1 -2.26098e-17 0)
(1 -3.16933e-17 0)
(1 3.13575e-15 0)
(1 1.34192e-15 0)
(1 3.59259e-15 0)
(1 9.92402e-16 0)
(1 8.06493e-16 0)
(1 1.72908e-15 0)
(1 1.90635e-15 0)
(1 2.26875e-15 0)
(1 1.65185e-15 0)
(1 1.22945e-15 0)
(1 2.39675e-15 0)
(1 1.41687e-15 0)
(1 1.94845e-15 0)
(1 1.56702e-15 0)
(1 1.83699e-15 0)
(1 2.31372e-15 0)
(1 2.73599e-15 0)
(1 3.66938e-15 0)
(1 3.11114e-15 0)
(1 1.88088e-15 0)
(1 3.15016e-15 0)
(1 2.23162e-15 0)
(1 1.30633e-15 0)
(1 1.70748e-15 0)
(1 1.13985e-15 0)
(1 -7.59605e-17 0)
(1 9.16715e-16 0)
(1 -6.17034e-16 0)
(1 1.64187e-15 0)
(1 2.89906e-15 0)
(1 2.59354e-15 0)
(1 2.84573e-15 0)
(1 3.95404e-15 0)
(1 5.18424e-15 0)
(1 5.32952e-15 0)
(1 3.15059e-15 0)
(1 4.29641e-16 0)
(1 2.3352e-15 0)
(1 2.36776e-15 0)
(1 2.59685e-15 0)
(1 4.4873e-15 0)
(1 3.04903e-15 0)
(1 4.36616e-15 0)
(1 1.21843e-15 0)
(1 2.76234e-15 0)
(1 2.11042e-15 0)
(1 -2.75518e-16 0)
(1 1.44281e-15 0)
(1 -1.13125e-15 0)
(1 -2.40383e-15 0)
(1 -2.63577e-15 0)
(1 -5.31733e-16 0)
(1 6.04709e-16 0)
(1 3.93618e-15 0)
(1 4.39324e-15 0)
(1 4.687e-15 0)
(1 1.32402e-15 0)
(1 1.78372e-15 0)
(1 -1.85445e-15 0)
(1 -1.71706e-15 0)
(1 7.74645e-16 0)
(1 -1.93481e-16 0)
(1 2.53086e-15 0)
(1 4.63314e-15 0)
(1 5.81932e-15 0)
(1 1.78988e-15 0)
(1 1.03807e-15 0)
(1 1.83352e-15 0)
(1 1.85209e-16 0)
(1 1.29216e-15 0)
(1 4.80299e-15 0)
(1 5.99999e-15 0)
(1 4.37249e-15 0)
(1 3.20288e-15 0)
(1 4.17853e-15 0)
(1 4.88426e-15 0)
(1 3.67236e-15 0)
(1 2.92464e-15 0)
(1 5.95028e-15 0)
(1 6.54234e-15 0)
(1 6.72e-15 0)
(1 4.16837e-15 0)
(1 4.8493e-15 0)
(1 3.67099e-15 0)
(1 1.90133e-15 0)
(1 2.00396e-15 0)
(1 4.67244e-15 0)
(1 5.38078e-15 0)
(1 4.84094e-15 0)
(1 2.6933e-15 0)
(1 1.84521e-15 0)
(1 2.06205e-15 0)
(1 1.87895e-15 0)
(1 2.11565e-15 0)
(1 1.76079e-15 0)
(1 1.91307e-15 0)
(1 1.5092e-15 0)
(1 1.56662e-15 0)
(1 2.50923e-16 0)
(1 1.40257e-15 0)
(1 2.7461e-15 0)
(1 9.31395e-16 0)
(1 1.35159e-15 0)
(1 8.83302e-16 0)
(1 4.39246e-16 0)
(1 2.11156e-15 0)
(1 9.51989e-16 0)
(1 2.48735e-15 0)
(1 1.37459e-15 0)
(1 9.76292e-16 0)
(1 2.3715e-15 0)
(1 2.46293e-15 0)
(1 2.4982e-15 0)
(1 2.60209e-15 0)
(1 8.83921e-16 0)
(1 2.27189e-15 0)
(1 2.65672e-15 0)
(1 4.18691e-15 0)
(1 3.54488e-15 0)
(1 2.55708e-15 0)
(1 2.86437e-15 0)
(1 1.24145e-15 0)
(1 1.83937e-15 0)
(1 2.30634e-15 0)
(1 2.5711e-15 0)
(1 -1.51985e-16 0)
(1 -2.85545e-16 0)
(1 -5.78488e-16 0)
(1 1.87544e-15 0)
(1 1.54261e-15 0)
(1 4.93592e-15 0)
(1 2.44948e-15 0)
(1 2.37255e-15 0)
(1 5.29037e-15 0)
(1 2.15008e-15 0)
(1 3.04191e-15 0)
(1 9.656e-16 0)
(1 2.38068e-15 0)
(1 3.58404e-15 0)
(1 2.98557e-15 0)
(1 3.61707e-15 0)
(1 1.96544e-15 0)
(1 4.44464e-15 0)
(1 4.1241e-15 0)
(1 1.0208e-15 0)
(1 -3.29692e-17 0)
(1 3.31182e-16 0)
(1 2.08525e-15 0)
(1 4.09412e-15 0)
(1 2.93622e-16 0)
(1 -1.07922e-15 0)
(1 2.38615e-16 0)
(1 1.79184e-16 0)
(1 2.37588e-15 0)
(1 2.89084e-15 0)
(1 2.07376e-15 0)
(1 -9.03137e-16 0)
(1 -1.20382e-16 0)
(1 -5.44746e-16 0)
(1 -1.04839e-15 0)
(1 9.39093e-16 0)
(1 2.03411e-15 0)
(1 3.32469e-15 0)
(1 3.24989e-15 0)
(1 2.46524e-15 0)
(1 2.08964e-16 0)
(1 1.84931e-15 0)
(1 2.50342e-15 0)
(1 3.00666e-15 0)
(1 5.13756e-15 0)
(1 2.89352e-15 0)
(1 5.10418e-15 0)
(1 3.94211e-15 0)
(1 1.99485e-15 0)
(1 4.49974e-15 0)
(1 4.8473e-15 0)
(1 6.45391e-15 0)
(1 4.35864e-15 0)
(1 6.50986e-15 0)
(1 7.2919e-15 0)
(1 6.81493e-15 0)
(1 5.91452e-15 0)
(1 3.02157e-15 0)
(1 5.60528e-15 0)
(1 3.35163e-15 0)
(1 4.85378e-15 0)
(1 2.73617e-15 0)
(1 3.99691e-15 0)
(1 5.23981e-15 0)
(1 -1.54691e-16 0)
(1 2.78862e-15 0)
(1 1.71636e-15 0)
(1 1.8303e-15 0)
(1 5.40655e-15 0)
(1 3.90333e-15 0)
(1 4.04641e-15 0)
(1 1.85409e-15 0)
(1 2.87689e-15 0)
(1 1.29477e-15 0)
(1 2.24075e-15 0)
(1 2.32553e-15 0)
(1 1.26686e-15 0)
(1 1.45441e-15 0)
(1 3.12416e-15 0)
(1 3.28251e-15 0)
(1 2.66045e-15 0)
(1 2.40945e-15 0)
(1 1.37165e-15 0)
(1 1.09956e-15 0)
(1 -2.88447e-16 0)
(1 -2.90041e-16 0)
(1 7.67847e-16 0)
(1 9.60549e-16 0)
(1 2.12335e-15 0)
(1 1.86707e-15 0)
(1 1.60598e-15 0)
(1 2.97242e-15 0)
(1 3.27137e-15 0)
(1 4.34643e-15 0)
(1 4.54117e-15 0)
(1 3.60602e-15 0)
(1 3.07649e-15 0)
(1 3.48447e-15 0)
(1 3.93259e-15 0)
(1 4.13963e-15 0)
(1 3.96011e-16 0)
(1 7.1072e-16 0)
(1 2.84896e-15 0)
(1 7.43915e-16 0)
(1 1.98365e-15 0)
(1 2.3649e-16 0)
(1 3.46143e-15 0)
(1 3.52247e-15 0)
(1 4.06383e-15 0)
(1 1.78243e-15 0)
(1 2.28385e-15 0)
(1 5.1844e-15 0)
(1 3.24143e-15 0)
(1 4.55362e-15 0)
(1 3.87502e-15 0)
(1 1.92196e-15 0)
(1 1.49573e-15 0)
(1 2.40516e-15 0)
(1 3.45041e-15 0)
(1 3.44131e-15 0)
(1 8.45414e-16 0)
(1 1.36451e-17 0)
(1 -3.20505e-15 0)
(1 1.55494e-15 0)
(1 2.16789e-15 0)
(1 2.39048e-15 0)
(1 3.78411e-16 0)
(1 2.43964e-15 0)
(1 1.8748e-15 0)
(1 4.83918e-16 0)
(1 1.44133e-16 0)
(1 1.13938e-15 0)
(1 8.25023e-16 0)
(1 1.34425e-15 0)
(1 1.88904e-15 0)
(1 5.0815e-16 0)
(1 -4.78358e-17 0)
(1 1.85205e-15 0)
(1 -7.03219e-17 0)
(1 -3.79078e-16 0)
(1 2.14856e-15 0)
(1 3.86309e-15 0)
(1 4.27e-15 0)
(1 4.60532e-15 0)
(1 5.40907e-15 0)
(1 1.92768e-15 0)
(1 2.83064e-15 0)
(1 3.45359e-15 0)
(1 3.67128e-15 0)
(1 5.24222e-15 0)
(1 3.12409e-15 0)
(1 3.58499e-15 0)
(1 6.24187e-15 0)
(1 5.96541e-15 0)
(1 7.784e-15 0)
(1 6.96272e-15 0)
(1 5.60266e-15 0)
(1 2.2258e-15 0)
(1 5.08603e-15 0)
(1 6.0732e-15 0)
(1 6.41811e-15 0)
(1 4.95447e-15 0)
(1 2.52069e-15 0)
(1 3.84613e-15 0)
(1 2.59612e-15 0)
(1 1.56271e-15 0)
(1 3.62052e-15 0)
(1 3.23955e-15 0)
(1 5.46294e-15 0)
(1 5.10914e-15 0)
(1 4.38222e-15 0)
(1 1.98392e-15 0)
(1 1.23902e-15 0)
(1 1.87716e-15 0)
(1 2.09072e-15 0)
(1 9.32281e-16 0)
(1 1.49293e-15 0)
(1 1.28214e-15 0)
(1 3.72224e-15 0)
(1 2.19511e-15 0)
(1 2.49452e-15 0)
(1 1.64892e-15 0)
(1 9.55755e-16 0)
(1 1.39031e-15 0)
(1 2.93791e-17 0)
(1 2.02353e-15 0)
(1 2.97777e-15 0)
(1 3.15986e-15 0)
(1 1.38877e-15 0)
(1 2.2151e-15 0)
(1 3.12207e-15 0)
(1 2.9319e-15 0)
(1 2.37553e-15 0)
(1 1.55595e-15 0)
(1 5.64449e-15 0)
(1 2.29155e-15 0)
(1 4.21734e-15 0)
(1 4.25813e-15 0)
(1 4.35245e-15 0)
(1 4.2421e-15 0)
(1 1.88944e-16 0)
(1 9.66237e-16 0)
(1 2.09467e-15 0)
(1 1.43799e-15 0)
(1 1.08435e-15 0)
(1 -1.06768e-15 0)
(1 3.9618e-15 0)
(1 1.2584e-15 0)
(1 3.83589e-15 0)
(1 5.53286e-15 0)
(1 3.39677e-15 0)
(1 3.63817e-15 0)
(1 2.03531e-15 0)
(1 2.54972e-15 0)
(1 2.91777e-15 0)
(1 2.35118e-15 0)
(1 5.30044e-15 0)
(1 3.9087e-15 0)
(1 3.59208e-15 0)
(1 2.43042e-15 0)
(1 -3.39685e-16 0)
(1 -1.14017e-15 0)
(1 -3.70184e-15 0)
(1 -7.70778e-16 0)
(1 -1.42056e-15 0)
(1 4.66106e-15 0)
(1 2.75243e-15 0)
(1 3.79938e-15 0)
(1 1.33773e-15 0)
(1 -1.16961e-16 0)
(1 -7.05858e-16 0)
(1 9.00961e-16 0)
(1 6.21561e-16 0)
(1 1.38258e-15 0)
(1 1.05042e-15 0)
(1 -1.20167e-15 0)
(1 1.11238e-15 0)
(1 4.56304e-16 0)
(1 3.3367e-16 0)
(1 3.17529e-16 0)
(1 3.09624e-15 0)
(1 3.6054e-15 0)
(1 4.25612e-15 0)
(1 3.89588e-15 0)
(1 3.88048e-15 0)
(1 4.12321e-15 0)
(1 3.24788e-15 0)
(1 4.04248e-15 0)
(1 5.80792e-15 0)
(1 3.66084e-15 0)
(1 4.93344e-15 0)
(1 4.8967e-15 0)
(1 7.06085e-15 0)
(1 7.28766e-15 0)
(1 7.1437e-15 0)
(1 5.72777e-15 0)
(1 4.95053e-15 0)
(1 4.22022e-15 0)
(1 4.64795e-15 0)
(1 4.12943e-15 0)
(1 5.22415e-15 0)
(1 5.71235e-15 0)
(1 3.45316e-15 0)
(1 3.69829e-15 0)
(1 5.361e-15 0)
(1 2.71042e-15 0)
(1 3.4307e-15 0)
(1 2.97023e-15 0)
(1 -5.22021e-16 0)
(1 2.5735e-15 0)
(1 3.14025e-15 0)
(1 4.98387e-15 0)
(1 2.93185e-15 0)
(1 1.84157e-15 0)
(1 9.58147e-16 0)
(1 -2.88273e-16 0)
(1 4.39241e-15 0)
(1 1.76367e-15 0)
(1 1.0221e-15 0)
(1 3.90768e-15 0)
(1 4.26676e-15 0)
(1 3.08937e-15 0)
(1 3.76005e-15 0)
(1 1.40091e-15 0)
(1 4.9291e-16 0)
(1 1.2482e-15 0)
(1 1.51876e-15 0)
(1 3.88444e-16 0)
(1 4.26389e-16 0)
(1 8.08569e-16 0)
(1 5.27903e-15 0)
(1 2.46121e-15 0)
(1 3.00775e-15 0)
(1 2.16732e-15 0)
(1 4.28341e-15 0)
(1 3.29133e-15 0)
(1 3.42506e-15 0)
(1 3.1405e-15 0)
(1 3.11246e-15 0)
(1 3.14904e-15 0)
(1 2.88603e-16 0)
(1 1.00636e-15 0)
(1 8.09703e-16 0)
(1 2.27943e-15 0)
(1 1.4447e-16 0)
(1 4.35645e-15 0)
(1 1.68097e-15 0)
(1 2.36184e-15 0)
(1 1.75464e-15 0)
(1 3.65939e-15 0)
(1 4.27354e-15 0)
(1 2.38666e-15 0)
(1 3.70509e-15 0)
(1 3.32184e-15 0)
(1 3.98264e-15 0)
(1 1.62312e-15 0)
(1 2.57121e-15 0)
(1 4.2701e-16 0)
(1 4.76369e-15 0)
(1 -1.87828e-16 0)
(1 -1.86889e-16 0)
(1 1.68623e-15 0)
(1 1.91161e-15 0)
(1 2.31419e-16 0)
(1 1.38286e-15 0)
(1 2.1571e-15 0)
(1 3.01161e-15 0)
(1 1.69381e-15 0)
(1 1.64031e-15 0)
(1 -5.9744e-16 0)
(1 1.60095e-16 0)
(1 -7.56783e-17 0)
(1 -1.65088e-15 0)
(1 -8.3247e-16 0)
(1 -7.53074e-16 0)
(1 3.17604e-16 0)
(1 2.24266e-16 0)
(1 -1.52172e-16 0)
(1 1.5269e-15 0)
(1 2.91241e-15 0)
(1 4.47132e-15 0)
(1 3.90155e-15 0)
(1 2.5716e-15 0)
(1 5.26731e-15 0)
(1 3.57117e-15 0)
(1 2.97341e-15 0)
(1 4.01383e-15 0)
(1 1.26396e-15 0)
(1 5.64342e-15 0)
(1 3.89601e-15 0)
(1 5.5436e-15 0)
(1 6.17245e-15 0)
(1 6.29027e-15 0)
(1 7.10752e-15 0)
(1 5.88062e-15 0)
(1 1.9796e-15 0)
(1 4.2086e-15 0)
(1 4.99202e-15 0)
(1 4.98373e-15 0)
(1 3.64167e-15 0)
(1 6.06059e-15 0)
(1 6.22458e-15 0)
(1 6.91221e-15 0)
(1 3.7256e-15 0)
(1 4.43998e-15 0)
(1 4.62092e-15 0)
(1 1.93197e-15 0)
(1 2.79172e-15 0)
(1 1.12243e-15 0)
(1 1.62543e-15 0)
(1 3.76012e-15 0)
(1 3.32231e-15 0)
(1 6.71774e-16 0)
(1 7.64369e-16 0)
(1 8.17901e-16 0)
(1 -1.77557e-16 0)
(1 1.57686e-15 0)
(1 2.25381e-15 0)
(1 1.71328e-15 0)
(1 5.0404e-15 0)
(1 4.01635e-15 0)
(1 3.1676e-15 0)
(1 3.65538e-15 0)
(1 7.88424e-16 0)
(1 2.7393e-15 0)
(1 1.65811e-15 0)
(1 -9.79254e-18 0)
(1 5.68821e-16 0)
(1 1.96365e-15 0)
(1 2.98457e-15 0)
(1 3.06188e-15 0)
(1 1.15236e-15 0)
(1 2.01672e-15 0)
(1 3.18111e-15 0)
(1 3.46198e-15 0)
(1 5.18381e-15 0)
(1 4.04182e-15 0)
(1 3.76412e-15 0)
(1 2.23503e-15 0)
(1 1.21046e-15 0)
(1 1.3935e-16 0)
(1 1.44876e-15 0)
(1 -1.12081e-17 0)
(1 -3.32389e-16 0)
(1 2.19522e-15 0)
(1 1.79984e-15 0)
(1 9.42678e-16 0)
(1 3.03458e-15 0)
(1 2.09306e-15 0)
(1 4.17003e-15 0)
(1 3.96422e-15 0)
(1 2.09881e-15 0)
(1 3.15186e-15 0)
(1 2.70191e-15 0)
(1 4.06855e-15 0)
(1 2.04083e-15 0)
(1 6.44158e-16 0)
(1 3.06478e-15 0)
(1 5.36202e-15 0)
(1 3.80859e-15 0)
(1 2.77695e-15 0)
(1 1.97788e-15 0)
(1 -2.72444e-15 0)
(1 -2.95507e-15 0)
(1 7.86738e-16 0)
(1 -8.5236e-17 0)
(1 1.68399e-15 0)
(1 1.24871e-15 0)
(1 2.76433e-15 0)
(1 4.2288e-16 0)
(1 -1.51647e-15 0)
(1 -1.44488e-15 0)
(1 -2.40958e-15 0)
(1 -2.88845e-15 0)
(1 1.86574e-15 0)
(1 -6.40898e-17 0)
(1 1.3309e-15 0)
(1 -1.1199e-15 0)
(1 2.20367e-15 0)
(1 3.72873e-15 0)
(1 4.92492e-15 0)
(1 3.61653e-15 0)
(1 2.0711e-15 0)
(1 4.34999e-15 0)
(1 2.4518e-15 0)
(1 4.83195e-15 0)
(1 4.12516e-15 0)
(1 4.58641e-15 0)
(1 3.24579e-15 0)
(1 5.04675e-15 0)
(1 5.52037e-15 0)
(1 4.61295e-15 0)
(1 6.05963e-15 0)
(1 6.05513e-15 0)
(1 5.03551e-15 0)
(1 5.78499e-15 0)
(1 4.68721e-15 0)
(1 5.03646e-15 0)
(1 1.88417e-15 0)
(1 3.79083e-15 0)
(1 2.37057e-15 0)
(1 3.83666e-15 0)
(1 4.74871e-15 0)
(1 4.45507e-15 0)
(1 6.0785e-15 0)
(1 5.43932e-15 0)
(1 4.44532e-15 0)
(1 3.09759e-15 0)
(1 3.32926e-15 0)
(1 1.64265e-15 0)
(1 -1.88749e-15 0)
(1 2.68983e-16 0)
(1 1.44501e-15 0)
(1 3.11931e-15 0)
(1 2.5744e-15 0)
(1 2.24205e-15 0)
(1 -7.08565e-16 0)
(1 1.90324e-15 0)
(1 3.21967e-15 0)
(1 7.71332e-16 0)
(1 1.08442e-15 0)
(1 1.90458e-15 0)
(1 2.01813e-15 0)
(1 2.72747e-15 0)
(1 3.32173e-15 0)
(1 2.04082e-15 0)
(1 1.63127e-15 0)
(1 3.09718e-15 0)
(1 2.85607e-15 0)
(1 3.75078e-15 0)
(1 7.71739e-16 0)
(1 1.87187e-15 0)
(1 1.79281e-15 0)
(1 1.82429e-15 0)
(1 3.00366e-15 0)
(1 3.15442e-15 0)
(1 2.0187e-15 0)
(1 2.49633e-15 0)
(1 1.56784e-15 0)
(1 7.17419e-16 0)
(1 1.01145e-16 0)
(1 8.9748e-16 0)
(1 9.94252e-16 0)
(1 3.15647e-16 0)
(1 2.11014e-15 0)
(1 4.68236e-16 0)
(1 1.68797e-15 0)
(1 1.68174e-15 0)
(1 4.09957e-15 0)
(1 5.8785e-15 0)
(1 4.42229e-15 0)
(1 3.12821e-15 0)
(1 1.34855e-15 0)
(1 5.21828e-16 0)
(1 9.65563e-16 0)
(1 4.4968e-15 0)
(1 2.39046e-15 0)
(1 4.35981e-15 0)
(1 -6.99706e-16 0)
(1 2.6615e-15 0)
(1 1.81657e-15 0)
(1 3.2101e-15 0)
(1 -1.56312e-15 0)
(1 -7.45167e-17 0)
(1 -8.83648e-16 0)
(1 1.49577e-15 0)
(1 1.67177e-15 0)
(1 2.98362e-16 0)
(1 2.05798e-15 0)
(1 -3.9374e-16 0)
(1 -1.01472e-15 0)
(1 -4.42899e-15 0)
(1 -1.90928e-15 0)
(1 -1.5396e-15 0)
(1 -1.61271e-15 0)
(1 8.09325e-16 0)
(1 2.49181e-15 0)
(1 4.98934e-16 0)
(1 2.89312e-15 0)
(1 1.29712e-15 0)
(1 1.33903e-15 0)
(1 1.99662e-15 0)
(1 5.54869e-15 0)
(1 3.58149e-15 0)
(1 4.02244e-15 0)
(1 5.45046e-15 0)
(1 2.34052e-15 0)
(1 5.99581e-15 0)
(1 1.64638e-15 0)
(1 2.92599e-15 0)
(1 1.3607e-15 0)
(1 3.55729e-15 0)
(1 6.72425e-15 0)
(1 6.60361e-15 0)
(1 4.31269e-15 0)
(1 8.4499e-15 0)
(1 5.35871e-15 0)
(1 5.32312e-15 0)
(1 3.69648e-15 0)
(1 5.04325e-15 0)
(1 3.96596e-15 0)
(1 2.70121e-15 0)
(1 3.0127e-15 0)
(1 6.31443e-15 0)
(1 3.00742e-15 0)
(1 4.45183e-15 0)
(1 4.86322e-15 0)
(1 3.65566e-15 0)
(1 2.25483e-15 0)
(1 1.29376e-15 0)
(1 -1.53575e-15 0)
(1 3.38529e-15 0)
(1 2.50441e-15 0)
(1 3.20437e-15 0)
(1 1.82028e-15 0)
(1 3.75851e-15 0)
(1 1.47608e-15 0)
(1 2.83459e-15 0)
(1 1.96692e-15 0)
(1 -4.18745e-16 0)
(1 1.77671e-15 0)
(1 1.81023e-15 0)
(1 2.7808e-16 0)
(1 2.73187e-15 0)
(1 2.18691e-15 0)
(1 2.04335e-15 0)
(1 1.79189e-15 0)
(1 3.15561e-15 0)
(1 1.92302e-15 0)
(1 2.61418e-15 0)
(1 2.48991e-15 0)
(1 2.41462e-15 0)
(1 2.0569e-15 0)
(1 3.04064e-15 0)
(1 1.74469e-15 0)
(1 2.69807e-15 0)
(1 1.69854e-15 0)
(1 2.64317e-15 0)
(1 1.2864e-15 0)
(1 1.16954e-15 0)
(1 1.36543e-17 0)
(1 1.18494e-15 0)
(1 3.92702e-16 0)
(1 1.03593e-15 0)
(1 9.03187e-16 0)
(1 2.38101e-15 0)
(1 6.06315e-16 0)
(1 1.42111e-15 0)
(1 3.66473e-15 0)
(1 1.21587e-15 0)
(1 5.92416e-15 0)
(1 5.06685e-15 0)
(1 4.41438e-15 0)
(1 1.95416e-16 0)
(1 6.07715e-16 0)
(1 2.84186e-15 0)
(1 5.90889e-16 0)
(1 2.054e-15 0)
(1 -2.67221e-15 0)
(1 2.35307e-15 0)
(1 3.45848e-15 0)
(1 1.68866e-15 0)
(1 3.31953e-15 0)
(1 4.51948e-17 0)
(1 -1.32931e-15 0)
(1 -1.52906e-15 0)
(1 -1.30019e-15 0)
(1 -6.19014e-16 0)
(1 -3.63847e-17 0)
(1 -8.61276e-16 0)
(1 -1.0541e-15 0)
(1 -1.30452e-15 0)
(1 -3.32197e-16 0)
(1 -2.61905e-16 0)
(1 -1.51415e-15 0)
(1 1.34396e-15 0)
(1 -5.5353e-16 0)
(1 1.23854e-15 0)
(1 2.35197e-15 0)
(1 -2.83499e-16 0)
(1 -4.41616e-16 0)
(1 1.25639e-15 0)
(1 4.62703e-15 0)
(1 2.26798e-15 0)
(1 4.45334e-15 0)
(1 3.11435e-15 0)
(1 1.01155e-15 0)
(1 3.16843e-15 0)
(1 2.3783e-15 0)
(1 2.42694e-15 0)
(1 3.47088e-15 0)
(1 5.4764e-15 0)
(1 7.31822e-15 0)
(1 6.82266e-15 0)
(1 7.47082e-15 0)
(1 6.72471e-15 0)
(1 4.31607e-15 0)
(1 5.61763e-15 0)
(1 4.00993e-15 0)
(1 3.16301e-15 0)
(1 4.59704e-15 0)
(1 2.90319e-15 0)
(1 5.51447e-15 0)
(1 3.44867e-15 0)
(1 4.19212e-15 0)
(1 4.13494e-15 0)
(1 4.33752e-15 0)
(1 3.6938e-15 0)
(1 3.82998e-15 0)
(1 2.86623e-15 0)
(1 4.02001e-15 0)
(1 1.38736e-15 0)
(1 2.3988e-16 0)
(1 1.209e-15 0)
(1 1.21873e-15 0)
(1 1.9695e-15 0)
(1 1.74436e-15 0)
(1 2.33104e-15 0)
(1 1.88834e-16 0)
(1 -6.27691e-17 0)
(1 2.30475e-15 0)
(1 1.20723e-15 0)
(1 6.86785e-16 0)
(1 1.55259e-15 0)
(1 1.81905e-15 0)
(1 2.82917e-15 0)
(1 1.85522e-15 0)
(1 3.06519e-15 0)
(1 2.14754e-15 0)
(1 1.09555e-15 0)
(1 1.39766e-15 0)
(1 9.90309e-16 0)
(1 1.6847e-15 0)
(1 3.00839e-15 0)
(1 1.98225e-15 0)
(1 1.69913e-15 0)
(1 3.35321e-16 0)
(1 1.87632e-15 0)
(1 2.78643e-15 0)
(1 2.79117e-15 0)
(1 -2.7301e-16 0)
(1 1.27308e-15 0)
(1 6.46271e-16 0)
(1 9.36486e-16 0)
(1 3.45466e-15 0)
(1 2.66487e-15 0)
(1 3.74208e-15 0)
(1 2.73605e-15 0)
(1 2.61969e-15 0)
(1 -3.92155e-17 0)
(1 1.65156e-15 0)
(1 2.07161e-15 0)
(1 3.55078e-15 0)
(1 2.43753e-15 0)
(1 6.12828e-16 0)
(1 1.53669e-17 0)
(1 1.43476e-15 0)
(1 1.72106e-15 0)
(1 3.88063e-15 0)
(1 -5.70169e-16 0)
(1 -2.23911e-16 0)
(1 -1.84893e-15 0)
(1 3.70759e-15 0)
(1 -1.37138e-16 0)
(1 -1.41873e-15 0)
(1 -1.84466e-15 0)
(1 -1.22248e-15 0)
(1 1.74954e-16 0)
(1 -3.40343e-15 0)
(1 -6.25477e-16 0)
(1 -3.6748e-15 0)
(1 7.70695e-16 0)
(1 -1.53279e-15 0)
(1 -6.38599e-16 0)
(1 -1.47431e-16 0)
(1 -7.40482e-16 0)
(1 -3.65879e-16 0)
(1 -4.329e-16 0)
(1 -2.82999e-16 0)
(1 6.46902e-16 0)
(1 1.53076e-15 0)
(1 1.11351e-15 0)
(1 5.81556e-16 0)
(1 3.96996e-15 0)
(1 3.60854e-15 0)
(1 3.6821e-15 0)
(1 2.62372e-15 0)
(1 1.82508e-15 0)
(1 1.06009e-15 0)
(1 2.9884e-16 0)
(1 5.69696e-15 0)
(1 8.0597e-15 0)
(1 6.4912e-15 0)
(1 5.58141e-15 0)
(1 7.39568e-15 0)
(1 4.53605e-15 0)
(1 3.99315e-15 0)
(1 4.78467e-15 0)
(1 3.46088e-15 0)
(1 2.49339e-15 0)
(1 1.82114e-15 0)
(1 3.73998e-15 0)
(1 3.48777e-15 0)
(1 1.70822e-15 0)
(1 5.83618e-15 0)
(1 1.78992e-15 0)
(1 1.72196e-15 0)
(1 1.66901e-15 0)
(1 2.81971e-15 0)
(1 3.28539e-15 0)
(1 2.26525e-15 0)
(1 -6.61302e-16 0)
(1 1.08066e-15 0)
(1 1.99651e-15 0)
(1 1.00602e-15 0)
(1 1.77191e-15 0)
(1 1.59795e-15 0)
(1 1.87412e-15 0)
(1 1.04286e-15 0)
(1 2.09844e-15 0)
(1 -8.36797e-16 0)
(1 8.06181e-18 0)
(1 1.34513e-15 0)
(1 1.48757e-15 0)
(1 1.85712e-15 0)
(1 1.88886e-15 0)
(1 2.148e-15 0)
(1 3.51248e-15 0)
(1 2.90005e-15 0)
(1 1.89753e-15 0)
(1 6.92636e-17 0)
(1 6.81945e-16 0)
(1 1.37945e-15 0)
(1 1.34612e-15 0)
(1 7.02072e-16 0)
(1 5.27167e-16 0)
(1 8.36547e-16 0)
(1 6.63693e-16 0)
(1 2.70853e-15 0)
(1 2.50347e-15 0)
(1 -1.57831e-16 0)
(1 7.05324e-16 0)
(1 1.44125e-15 0)
(1 2.64665e-15 0)
(1 3.22405e-15 0)
(1 1.67272e-15 0)
(1 3.4556e-15 0)
(1 3.09425e-15 0)
(1 2.00967e-15 0)
(1 2.09023e-15 0)
(1 2.55575e-17 0)
(1 -1.02034e-15 0)
(1 6.05774e-16 0)
(1 2.40101e-15 0)