/*--------------------------------*- C++ -*----------------------------------*\
| =========                 |                                                 |
| \\      /  F ield         | OpenFOAM: The Open Source CFD Toolbox           |
|  \\    /   O peration     | Version:  v2012                                 |
|   \\  /    A nd           | Website:  www.openfoam.com                      |
|    \\/     M anipulation  |                                                 |
\*---------------------------------------------------------------------------*/
FoamFile
{
    version     2.0;
    format      ascii;
    class       volVectorField;
    location    "0";
    object      U;
}
// * * * * * * * * * * * * * * * * * * * * * * * * * * * * * * * * * * * * * //

dimensions      [0 1 -1 0 0 0 0];


internalField   nonuniform List<vector> 
4000
(
(1 -3.48062e-16 0)
(1 1.85095e-15 0)
(1 4.69806e-15 0)
(1 3.71868e-15 0)
(1 8.02805e-17 0)
(1 2.29958e-16 0)
(1 -1.2204e-15 0)
(1 -2.2384e-15 0)
(1 -5.75886e-15 0)
(1 -4.19592e-15 0)
(1 7.37765e-15 0)
(1 2.04149e-15 0)
(1 1.60348e-16 0)
(1 -1.55143e-16 0)
(1 5.33138e-15 0)
(1 -1.6776e-15 0)
(1 -2.27828e-15 0)
(1 -4.48617e-15 0)
(1 -5.53664e-16 0)
(1 -5.90398e-15 0)
(1 -6.87238e-15 0)
(1 -6.23333e-15 0)
(1 4.23203e-15 0)
(1 6.87564e-16 0)
(1 9.04324e-15 0)
(1 3.64951e-15 0)
(1 3.81569e-15 0)
(1 7.09357e-17 0)
(1 -9.38887e-16 0)
(1 -3.10872e-15 0)
(1 -4.54528e-16 0)
(1 -4.18915e-15 0)
(1 -2.70686e-15 0)
(1 3.32903e-15 0)
(1 1.87844e-15 0)
(1 2.36734e-15 0)
(1 7.23876e-15 0)
(1 3.07006e-15 0)
(1 -9.61716e-17 0)
(1 1.647e-15 0)
(1 3.44297e-15 0)
(1 -1.35749e-16 0)
(1 6.75867e-16 0)
(1 -5.73037e-15 0)
(1 -6.54675e-15 0)
(1 1.64425e-15 0)
(1 -1.80156e-15 0)
(1 2.02879e-15 0)
(1 8.04873e-16 0)
(1 1.82768e-15 0)
(1 8.07347e-16 0)
(1 2.92157e-15 0)
(1 2.96849e-15 0)
(1 3.96293e-16 0)
(1 -4.30152e-15 0)
(1 -2.26022e-15 0)
(1 -3.12176e-15 0)
(1 2.59194e-15 0)
(1 1.57342e-15 0)
(1 1.13901e-15 0)
(1 2.43076e-15 0)
(1 1.60438e-15 0)
(1 4.85331e-15 0)
(1 2.91004e-15 0)
(1 -9.58008e-16 0)
(1 -5.10463e-15 0)
(1 -7.23116e-16 0)
(1 -4.72153e-16 0)
(1 -1.06937e-15 0)
(1 3.5081e-16 0)
(1 -1.83481e-15 0)
(1 1.24178e-15 0)
(1 5.24842e-17 0)
(1 -7.70936e-15 0)
(1 -5.43234e-15 0)
(1 7.30283e-16 0)
(1 1.35638e-15 0)
(1 1.54086e-15 0)
(1 1.62169e-15 0)
(1 3.42594e-15 0)
(1 1.70991e-15 0)
(1 -4.38484e-16 0)
(1 1.75217e-15 0)
(1 -9.93287e-16 0)
(1 -2.8344e-15 0)
(1 -5.10298e-15 0)
(1 -3.61148e-15 0)
(1 2.09076e-15 0)
(1 2.98858e-15 0)
(1 2.28937e-15 0)
(1 5.46211e-16 0)
(1 3.58785e-16 0)
(1 -4.47982e-15 0)
(1 -6.08841e-16 0)
(1 -5.20224e-17 0)
(1 -4.17593e-15 0)
(1 -4.10686e-15 0)
(1 1.69282e-15 0)
(1 4.06227e-15 0)
(1 8.46535e-16 0)
(1 1.79858e-15 0)
(1 4.24985e-16 0)
(1 8.11836e-15 0)
(1 1.14897e-15 0)
(1 4.88255e-16 0)
(1 -6.74362e-15 0)
(1 -1.2154e-15 0)
(1 -5.05512e-15 0)
(1 -5.30786e-15 0)
(1 -2.20135e-15 0)
(1 8.3332e-15 0)
(1 2.17578e-15 0)
(1 6.44132e-15 0)
(1 6.74226e-15 0)
(1 1.29446e-15 0)
(1 -7.90908e-15 0)
(1 -6.88106e-15 0)
(1 -4.34086e-15 0)
(1 -2.44201e-17 0)
(1 -8.30104e-15 0)
(1 -4.95959e-15 0)
(1 -5.71172e-15 0)
(1 1.12581e-15 0)
(1 1.04848e-15 0)
(1 8.37342e-15 0)
(1 6.80116e-16 0)
(1 1.6274e-16 0)
(1 -1.81961e-15 0)
(1 -5.45186e-16 0)
(1 -4.94516e-16 0)
(1 7.58583e-15 0)
(1 -4.48132e-15 0)
(1 2.01154e-15 0)
(1 -7.61505e-16 0)
(1 1.33383e-15 0)
(1 -8.23997e-16 0)
(1 2.51936e-15 0)
(1 -4.436e-16 0)
(1 1.75083e-15 0)
(1 3.40677e-15 0)
(1 1.25736e-15 0)
(1 1.57373e-15 0)
(1 7.10583e-18 0)
(1 -9.70794e-15 0)
(1 -5.65656e-15 0)
(1 -3.22274e-15 0)
(1 1.23041e-15 0)
(1 1.85843e-15 0)
(1 6.72185e-15 0)
(1 -4.95171e-15 0)
(1 -1.48158e-15 0)
(1 -4.75959e-15 0)
(1 6.87857e-16 0)
(1 7.534e-15 0)
(1 5.53972e-15 0)
(1 4.79375e-15 0)
(1 2.71849e-15 0)
(1 -7.45552e-16 0)
(1 -4.75655e-16 0)
(1 3.07536e-15 0)
(1 -8.27181e-16 0)
(1 -2.2447e-15 0)
(1 1.52989e-15 0)
(1 2.78911e-15 0)
(1 -2.19123e-15 0)
(1 -7.15014e-15 0)
(1 -2.02676e-15 0)
(1 -2.64376e-15 0)
(1 -2.07668e-15 0)
(1 2.10389e-16 0)
(1 5.79707e-16 0)
(1 1.69146e-15 0)
(1 2.21054e-15 0)
(1 -1.18928e-15 0)
(1 -3.89786e-15 0)
(1 2.97794e-15 0)
(1 4.42129e-15 0)
(1 2.96776e-15 0)
(1 4.95606e-15 0)
(1 5.66776e-15 0)
(1 3.70569e-15 0)
(1 -6.96586e-15 0)
(1 1.42568e-15 0)
(1 2.08421e-15 0)
(1 5.31296e-17 0)
(1 -3.05845e-15 0)
(1 -9.03166e-16 0)
(1 -1.58666e-15 0)
(1 -1.79614e-15 0)
(1 -3.96613e-15 0)
(1 3.79069e-16 0)
(1 1.72848e-16 0)
(1 -9.00907e-15 0)
(1 -1.32116e-15 0)
(1 -2.73974e-15 0)
(1 -2.98187e-15 0)
(1 -4.87659e-15 0)
(1 3.32431e-15 0)
(1 5.27759e-15 0)
(1 1.88088e-15 0)
(1 2.24056e-15 0)
(1 -2.30537e-15 0)
(1 -2.55547e-15 0)
(1 1.72956e-15 0)
(1 7.14888e-15 0)
(1 -9.89409e-16 0)
(1 2.76278e-15 0)
(1 -1.46039e-15 0)
(1 -2.42232e-15 0)
(1 1.51452e-15 0)
(1 3.18548e-15 0)
(1 -6.60243e-16 0)
(1 2.99674e-15 0)
(1 1.15442e-14 0)
(1 3.91692e-15 0)
(1 -4.6075e-15 0)
(1 -8.29991e-15 0)
(1 1.68051e-16 0)
(1 -6.93734e-15 0)
(1 -3.05268e-15 0)
(1 -3.88814e-16 0)
(1 3.01843e-15 0)
(1 -7.26126e-15 0)
(1 1.88962e-15 0)
(1 8.54292e-15 0)
(1 4.25359e-15 0)
(1 1.02036e-14 0)
(1 4.73358e-15 0)
(1 3.21079e-15 0)
(1 1.18203e-15 0)
(1 3.74416e-15 0)
(1 4.78631e-16 0)
(1 1.07672e-15 0)
(1 -8.94986e-15 0)
(1 -5.52952e-17 0)
(1 -3.50757e-15 0)
(1 9.49695e-16 0)
(1 1.38476e-15 0)
(1 2.90489e-15 0)
(1 5.84641e-16 0)
(1 -2.11736e-15 0)
(1 -4.24365e-15 0)
(1 -6.28658e-15 0)
(1 -6.385e-15 0)
(1 -4.48173e-15 0)
(1 -4.48271e-15 0)
(1 1.39371e-15 0)
(1 -3.46497e-15 0)
(1 4.14144e-15 0)
(1 6.97514e-16 0)
(1 3.81966e-15 0)
(1 -8.55882e-16 0)
(1 3.66429e-15 0)
(1 7.03291e-15 0)
(1 9.80588e-15 0)
(1 6.29287e-15 0)
(1 1.07862e-15 0)
(1 -6.40026e-15 0)
(1 -2.72755e-15 0)
(1 -2.46647e-15 0)
(1 3.84848e-15 0)
(1 1.63414e-15 0)
(1 3.12205e-17 0)
(1 5.55281e-16 0)
(1 -4.82289e-15 0)
(1 -1.60908e-15 0)
(1 -3.02081e-15 0)
(1 -1.97189e-15 0)
(1 -2.41138e-15 0)
(1 1.00856e-15 0)
(1 2.65735e-15 0)
(1 7.11794e-16 0)
(1 8.9515e-16 0)
(1 4.03222e-15 0)
(1 -1.18074e-15 0)
(1 6.55319e-16 0)
(1 3.2288e-15 0)
(1 -2.15504e-15 0)
(1 -2.10565e-15 0)
(1 2.32207e-15 0)
(1 -2.16646e-17 0)
(1 -6.37034e-15 0)
(1 -5.3797e-15 0)
(1 1.984e-15 0)
(1 1.12854e-15 0)
(1 -5.87951e-16 0)
(1 4.36366e-15 0)
(1 -2.91018e-15 0)
(1 -3.85963e-15 0)
(1 -2.72484e-15 0)
(1 -2.36722e-15 0)
(1 -1.15583e-15 0)
(1 -3.76672e-15 0)
(1 -4.30231e-15 0)
(1 -2.44576e-15 0)
(1 -1.72228e-15 0)
(1 -3.23219e-15 0)
(1 -1.12155e-15 0)
(1 1.69977e-15 0)
(1 1.28488e-15 0)
(1 4.24693e-15 0)
(1 -5.76315e-15 0)
(1 -3.06097e-15 0)
(1 -1.57632e-15 0)
(1 7.42409e-15 0)
(1 9.24641e-15 0)
(1 4.06772e-15 0)
(1 -7.96226e-15 0)
(1 -5.44463e-15 0)
(1 -3.53594e-15 0)
(1 7.3399e-15 0)
(1 3.77513e-15 0)
(1 8.6109e-15 0)
(1 4.39249e-15 0)
(1 4.92311e-15 0)
(1 8.51878e-16 0)
(1 -2.35998e-15 0)
(1 -3.97379e-15 0)
(1 -1.39306e-14 0)
(1 -4.8031e-15 0)
(1 -1.23468e-15 0)
(1 -1.2481e-15 0)
(1 1.04154e-15 0)
(1 7.7968e-15 0)
(1 2.71175e-15 0)
(1 5.14801e-15 0)
(1 1.15613e-14 0)
(1 2.13457e-14 0)
(1 1.03028e-14 0)
(1 1.51887e-16 0)
(1 -3.70022e-15 0)
(1 3.25182e-15 0)
(1 -3.72738e-15 0)
(1 -6.09611e-15 0)
(1 -1.81856e-15 0)
(1 -2.94764e-15 0)
(1 3.60272e-15 0)
(1 4.64674e-15 0)
(1 2.08322e-15 0)
(1 1.55773e-15 0)
(1 -1.49037e-15 0)
(1 -5.78399e-15 0)
(1 -6.04174e-15 0)
(1 2.03122e-16 0)
(1 -7.93686e-15 0)
(1 -9.77755e-16 0)
(1 3.32048e-15 0)
(1 3.32438e-15 0)
(1 9.47434e-16 0)
(1 8.45038e-15 0)
(1 -1.15578e-15 0)
(1 2.61159e-15 0)
(1 1.93916e-16 0)
(1 -1.25126e-15 0)
(1 1.28261e-15 0)
(1 4.67904e-15 0)
(1 -2.07089e-15 0)
(1 -7.0987e-15 0)
(1 -1.77491e-15 0)
(1 1.75206e-15 0)
(1 3.94216e-15 0)
(1 3.22112e-15 0)
(1 1.19858e-15 0)
(1 1.16018e-15 0)
(1 -5.33285e-15 0)
(1 -3.29007e-15 0)
(1 -3.97184e-15 0)
(1 -5.3029e-15 0)
(1 -2.76431e-15 0)
(1 2.18395e-15 0)
(1 3.09552e-16 0)
(1 3.20993e-15 0)
(1 -1.41871e-15 0)
(1 -6.07729e-16 0)
(1 2.09542e-15 0)
(1 2.09468e-15 0)
(1 -2.41322e-15 0)
(1 -1.51668e-15 0)
(1 1.60831e-15 0)
(1 -3.50944e-15 0)
(1 5.54288e-15 0)
(1 -1.87437e-15 0)
(1 -2.28534e-15 0)
(1 -4.60399e-16 0)
(1 4.73305e-16 0)
(1 -1.45754e-16 0)
(1 3.98475e-15 0)
(1 2.54159e-15 0)
(1 7.84485e-16 0)
(1 -6.17607e-16 0)
(1 -1.65661e-15 0)
(1 -2.51826e-15 0)
(1 -1.15539e-15 0)
(1 -3.30986e-15 0)
(1 -1.62985e-15 0)
(1 -5.23365e-15 0)
(1 -5.8055e-15 0)
(1 -7.53326e-16 0)
(1 -1.28429e-15 0)
(1 -1.57709e-15 0)
(1 5.64386e-15 0)
(1 -4.39625e-15 0)
(1 -5.21196e-15 0)
(1 -2.06817e-15 0)
(1 9.82887e-16 0)
(1 2.27609e-15 0)
(1 -2.82456e-17 0)
(1 -6.61414e-15 0)
(1 -4.40435e-15 0)
(1 5.92182e-16 0)
(1 6.5211e-15 0)
(1 4.79666e-15 0)
(1 9.16619e-15 0)
(1 -8.91027e-16 0)
(1 3.31566e-15 0)
(1 2.11095e-15 0)
(1 -1.27217e-15 0)
(1 -6.66108e-15 0)
(1 -4.63235e-15 0)
(1 -1.10225e-14 0)
(1 -2.01277e-15 0)
(1 -4.68153e-15 0)
(1 7.55605e-15 0)
(1 1.36675e-14 0)
(1 8.41775e-15 0)
(1 9.90344e-15 0)
(1 8.61912e-15 0)
(1 9.75959e-15 0)
(1 9.03063e-15 0)
(1 8.04502e-16 0)
(1 -5.91386e-15 0)
(1 3.40014e-15 0)
(1 2.96356e-16 0)
(1 -4.37799e-15 0)
(1 -7.45905e-15 0)
(1 -4.47153e-15 0)
(1 -1.4938e-15 0)
(1 -1.86807e-16 0)
(1 -4.60809e-16 0)
(1 -5.65909e-17 0)
(1 -9.61729e-15 0)
(1 -3.73847e-15 0)
(1 -3.6397e-15 0)
(1 1.36689e-15 0)
(1 3.49017e-16 0)
(1 2.6857e-15 0)
(1 5.26129e-15 0)
(1 2.46827e-15 0)
(1 3.64022e-15 0)
(1 1.94053e-15 0)
(1 -5.25271e-15 0)
(1 1.41102e-15 0)
(1 7.6285e-16 0)
(1 4.75892e-15 0)
(1 4.83925e-15 0)
(1 8.76203e-15 0)
(1 3.97318e-15 0)
(1 -1.4327e-15 0)
(1 -1.23994e-15 0)
(1 9.60612e-16 0)
(1 -6.57411e-15 0)
(1 -5.61795e-15 0)
(1 1.88289e-16 0)
(1 -1.96529e-15 0)
(1 -1.22359e-15 0)
(1 7.65467e-16 0)
(1 -5.77274e-16 0)
(1 -3.52278e-15 0)
(1 -5.02407e-16 0)
(1 -2.58813e-15 0)
(1 3.76265e-15 0)
(1 3.07109e-15 0)
(1 7.26895e-18 0)
(1 2.11206e-15 0)
(1 6.10815e-15 0)
(1 4.87834e-15 0)
(1 -1.40798e-15 0)
(1 3.80469e-15 0)
(1 6.53752e-15 0)
(1 -7.77528e-16 0)
(1 4.13613e-15 0)
(1 -4.65838e-15 0)
(1 3.85775e-15 0)
(1 7.62493e-16 0)
(1 1.51672e-15 0)
(1 -2.69744e-15 0)
(1 -2.77405e-15 0)
(1 -2.54303e-15 0)
(1 -1.30909e-15 0)
(1 -2.98889e-15 0)
(1 -9.33648e-16 0)
(1 -4.99567e-15 0)
(1 -2.31343e-15 0)
(1 7.50498e-18 0)
(1 -1.96257e-15 0)
(1 -2.14531e-15 0)
(1 -2.38904e-15 0)
(1 2.79561e-15 0)
(1 -3.28973e-15 0)
(1 -2.93183e-15 0)
(1 -1.71663e-15 0)
(1 -3.14542e-15 0)
(1 -4.80635e-15 0)
(1 -5.33395e-15 0)
(1 5.15988e-15 0)
(1 2.29937e-16 0)
(1 -1.2136e-15 0)
(1 3.61452e-15 0)
(1 -1.15079e-15 0)
(1 3.92864e-15 0)
(1 8.59049e-16 0)
(1 5.5615e-15 0)
(1 1.28225e-15 0)
(1 1.90408e-16 0)
(1 6.82634e-15 0)
(1 4.1808e-15 0)
(1 5.52992e-16 0)
(1 -7.05917e-15 0)
(1 -5.04838e-15 0)
(1 -1.16529e-15 0)
(1 2.61882e-15 0)
(1 1.23874e-14 0)
(1 7.12124e-15 0)
(1 2.17127e-15 0)
(1 7.15793e-15 0)
(1 4.29459e-15 0)
(1 7.83919e-15 0)
(1 -2.85231e-15 0)
(1 6.62451e-15 0)
(1 -1.21634e-15 0)
(1 -6.32371e-15 0)
(1 -1.216e-15 0)
(1 -5.70206e-15 0)
(1 5.07303e-15 0)
(1 -2.24309e-15 0)
(1 4.68605e-15 0)
(1 3.99514e-15 0)
(1 3.67178e-15 0)
(1 1.79246e-15 0)
(1 1.63854e-15 0)
(1 -5.53114e-15 0)
(1 -2.89715e-15 0)
(1 1.04527e-15 0)
(1 -2.63789e-15 0)
(1 9.99324e-16 0)
(1 -3.80435e-15 0)
(1 -2.54904e-15 0)
(1 -3.80546e-15 0)
(1 4.66507e-15 0)
(1 8.14838e-15 0)
(1 8.56225e-15 0)
(1 1.18244e-15 0)
(1 -7.92667e-16 0)
(1 2.9821e-15 0)
(1 3.62705e-15 0)
(1 4.96773e-15 0)
(1 8.60825e-16 0)
(1 5.95575e-15 0)
(1 3.96141e-15 0)
(1 -1.63123e-15 0)
(1 4.60332e-15 0)
(1 -4.05286e-16 0)
(1 -3.51536e-15 0)
(1 -7.58143e-15 0)
(1 8.68e-16 0)
(1 5.1905e-15 0)
(1 7.18385e-15 0)
(1 1.23468e-14 0)
(1 1.15164e-14 0)
(1 9.13038e-15 0)
(1 1.4268e-15 0)
(1 -3.94924e-16 0)
(1 3.40628e-15 0)
(1 -7.19351e-17 0)
(1 -6.71888e-16 0)
(1 -5.64665e-15 0)
(1 -6.17278e-15 0)
(1 -3.29558e-15 0)
(1 4.06798e-15 0)
(1 1.44422e-14 0)
(1 1.51999e-15 0)
(1 3.4965e-15 0)
(1 -7.99026e-18 0)
(1 -1.05098e-15 0)
(1 -1.43665e-15 0)
(1 -7.15442e-15 0)
(1 -4.99112e-15 0)
(1 -1.59598e-15 0)
(1 -3.50821e-15 0)
(1 -2.77299e-15 0)
(1 -3.48232e-15 0)
(1 -2.93545e-15 0)
(1 -4.18131e-16 0)
(1 -8.04238e-16 0)
(1 5.84247e-16 0)
(1 3.25922e-15 0)
(1 5.70862e-15 0)
(1 7.75231e-15 0)
(1 5.38911e-15 0)
(1 1.1788e-15 0)
(1 -9.4287e-16 0)
(1 -5.44651e-15 0)
(1 6.94627e-15 0)
(1 3.84506e-16 0)
(1 -1.07566e-15 0)
(1 -3.71603e-15 0)
(1 -9.46349e-15 0)
(1 -1.34791e-15 0)
(1 -3.5818e-16 0)
(1 2.65411e-15 0)
(1 -3.58279e-15 0)
(1 2.66512e-15 0)
(1 3.82971e-15 0)
(1 4.11838e-15 0)
(1 1.2478e-14 0)
(1 1.34506e-15 0)
(1 1.28696e-14 0)
(1 -9.48766e-16 0)
(1 4.12022e-15 0)
(1 7.93773e-15 0)
(1 2.60879e-15 0)
(1 1.68921e-15 0)
(1 -5.54456e-15 0)
(1 -5.32649e-15 0)
(1 -1.64556e-15 0)
(1 7.0747e-17 0)
(1 3.02204e-15 0)
(1 8.01391e-15 0)
(1 3.96361e-15 0)
(1 5.73419e-15 0)
(1 7.18683e-15 0)
(1 -3.41536e-15 0)
(1 -7.19674e-15 0)
(1 5.87792e-16 0)
(1 4.21249e-15 0)
(1 5.56471e-16 0)
(1 2.18676e-15 0)
(1 5.49769e-15 0)
(1 9.22153e-15 0)
(1 -4.80007e-15 0)
(1 -2.06523e-15 0)
(1 -3.31514e-15 0)
(1 2.75402e-15 0)
(1 5.64636e-15 0)
(1 5.51181e-16 0)
(1 -7.71214e-15 0)
(1 -5.09752e-15 0)
(1 5.24475e-15 0)
(1 5.60252e-15 0)
(1 8.36776e-15 0)
(1 9.45949e-15 0)
(1 1.47711e-15 0)
(1 -1.16459e-15 0)
(1 -1.9478e-15 0)
(1 -2.16809e-15 0)
(1 4.7348e-15 0)
(1 1.82844e-15 0)
(1 1.91144e-16 0)
(1 -5.32441e-15 0)
(1 -5.72921e-16 0)
(1 4.6692e-15 0)
(1 1.97274e-15 0)
(1 -3.30105e-15 0)
(1 -1.9161e-15 0)
(1 7.7379e-16 0)
(1 -2.83635e-16 0)
(1 2.29818e-15 0)
(1 1.18278e-15 0)
(1 3.30651e-15 0)
(1 5.66006e-15 0)
(1 -3.02481e-15 0)
(1 -2.15902e-15 0)
(1 1.88899e-15 0)
(1 2.68827e-15 0)
(1 6.67442e-15 0)
(1 4.33517e-15 0)
(1 5.82748e-15 0)
(1 1.60538e-15 0)
(1 4.73923e-15 0)
(1 9.76566e-15 0)
(1 4.48028e-15 0)
(1 3.93081e-15 0)
(1 -9.95062e-16 0)
(1 -1.16462e-15 0)
(1 9.2474e-16 0)
(1 9.06961e-16 0)
(1 1.83586e-15 0)
(1 2.03307e-15 0)
(1 -1.92582e-15 0)
(1 -1.6805e-15 0)
(1 -1.12793e-15 0)
(1 3.24666e-15 0)
(1 2.21396e-15 0)
(1 7.37348e-16 0)
(1 1.39179e-15 0)
(1 4.16532e-15 0)
(1 7.43993e-15 0)
(1 5.28584e-15 0)
(1 5.41129e-15 0)
(1 5.97005e-15 0)
(1 -1.53127e-16 0)
(1 3.77134e-16 0)
(1 -1.16529e-15 0)
(1 7.48233e-15 0)
(1 -8.63948e-15 0)
(1 -2.32429e-15 0)
(1 -5.76551e-15 0)
(1 -6.00091e-15 0)
(1 1.37637e-15 0)
(1 -1.48855e-15 0)
(1 -4.88618e-15 0)
(1 -2.88236e-15 0)
(1 7.21335e-16 0)
(1 1.12399e-14 0)
(1 8.13313e-15 0)
(1 3.2982e-15 0)
(1 7.00046e-15 0)
(1 5.37924e-15 0)
(1 1.10293e-14 0)
(1 1.04454e-14 0)
(1 -3.60876e-15 0)
(1 -7.37866e-15 0)
(1 -1.95027e-15 0)
(1 -1.58071e-15 0)
(1 -4.71902e-15 0)
(1 -2.79836e-16 0)
(1 -3.35559e-15 0)
(1 4.35769e-15 0)
(1 -7.46096e-15 0)
(1 2.71942e-15 0)
(1 4.60689e-15 0)
(1 1.35598e-16 0)
(1 -1.06814e-15 0)
(1 -3.36163e-15 0)
(1 7.0288e-15 0)
(1 4.05874e-15 0)
(1 8.86082e-16 0)
(1 7.20559e-16 0)
(1 -1.39191e-15 0)
(1 -5.33278e-15 0)
(1 1.14518e-15 0)
(1 -1.06058e-15 0)
(1 6.83246e-16 0)
(1 9.54783e-15 0)
(1 1.02716e-14 0)
(1 5.56025e-15 0)
(1 3.14782e-16 0)
(1 1.41657e-15 0)
(1 -3.91064e-15 0)
(1 -2.79703e-15 0)
(1 9.6946e-16 0)
(1 1.24758e-14 0)
(1 1.39772e-14 0)
(1 2.18845e-15 0)
(1 2.62635e-16 0)
(1 2.68522e-15 0)
(1 9.56353e-15 0)
(1 2.91791e-16 0)
(1 -7.39908e-15 0)
(1 1.09862e-15 0)
(1 5.53637e-16 0)
(1 9.9059e-16 0)
(1 3.44952e-15 0)
(1 2.55097e-15 0)
(1 6.2302e-15 0)
(1 1.06459e-15 0)
(1 4.00235e-15 0)
(1 1.11003e-15 0)
(1 8.6895e-16 0)
(1 -7.41427e-16 0)
(1 6.24347e-15 0)
(1 6.53488e-15 0)
(1 5.56423e-15 0)
(1 6.93721e-15 0)
(1 1.09911e-14 0)
(1 1.04306e-14 0)
(1 6.50031e-15 0)
(1 5.92363e-15 0)
(1 -2.74974e-16 0)
(1 -3.61068e-17 0)
(1 -3.39285e-15 0)
(1 -1.13939e-15 0)
(1 -3.25568e-15 0)
(1 -1.13841e-15 0)
(1 -1.64363e-15 0)
(1 6.24689e-16 0)
(1 -1.88025e-15 0)
(1 -1.93809e-16 0)
(1 -2.23621e-15 0)
(1 5.1052e-16 0)
(1 -1.7801e-15 0)
(1 -2.79775e-15 0)
(1 -1.40406e-15 0)
(1 -1.10891e-16 0)
(1 8.56306e-16 0)
(1 5.758e-15 0)
(1 7.80833e-15 0)
(1 6.40208e-15 0)
(1 6.37783e-15 0)
(1 1.11714e-14 0)
(1 -2.91349e-15 0)
(1 7.68598e-15 0)
(1 -8.041e-15 0)
(1 -6.81682e-15 0)
(1 -6.66864e-15 0)
(1 -4.99086e-15 0)
(1 1.63367e-15 0)
(1 -7.03079e-15 0)
(1 -5.084e-15 0)
(1 -4.60613e-15 0)
(1 1.02092e-15 0)
(1 8.45124e-15 0)
(1 1.11383e-14 0)
(1 1.26376e-14 0)
(1 4.47781e-15 0)
(1 1.2362e-14 0)
(1 7.93935e-15 0)
(1 1.87018e-14 0)
(1 -9.18085e-16 0)
(1 -3.47161e-15 0)
(1 -7.41747e-15 0)
(1 3.76567e-15 0)
(1 1.68678e-15 0)
(1 -9.21174e-15 0)
(1 -8.59314e-15 0)
(1 -3.62475e-15 0)
(1 -5.91501e-15 0)
(1 -3.18608e-15 0)
(1 -9.47762e-15 0)
(1 -6.89801e-15 0)
(1 -2.76044e-15 0)
(1 2.34212e-15 0)
(1 4.36808e-15 0)
(1 6.93508e-15 0)
(1 3.2626e-15 0)
(1 9.87142e-15 0)
(1 1.45744e-15 0)
(1 -3.3074e-16 0)
(1 1.7137e-16 0)
(1 2.09223e-15 0)
(1 4.77932e-15 0)
(1 6.25769e-15 0)
(1 5.53353e-15 0)
(1 7.25909e-15 0)
(1 1.27521e-14 0)
(1 1.51051e-14 0)
(1 1.25799e-15 0)
(1 -4.80161e-15 0)
(1 -3.95143e-15 0)
(1 -7.68284e-15 0)
(1 -3.59206e-15 0)
(1 3.99029e-15 0)
(1 8.75073e-15 0)
(1 9.42945e-16 0)
(1 2.88393e-15 0)
(1 2.11358e-15 0)
(1 9.4645e-15 0)
(1 9.39379e-15 0)
(1 2.89797e-15 0)
(1 5.30865e-15 0)
(1 2.4039e-15 0)
(1 3.87921e-15 0)
(1 -8.32631e-15 0)
(1 -8.8008e-15 0)
(1 -1.12701e-15 0)
(1 3.07629e-15 0)
(1 1.3611e-14 0)
(1 1.5162e-14 0)
(1 1.30787e-14 0)
(1 1.33091e-14 0)
(1 6.5892e-15 0)
(1 9.34119e-15 0)
(1 4.68286e-15 0)
(1 1.83235e-15 0)
(1 -3.27511e-15 0)
(1 1.53669e-15 0)
(1 -9.41267e-16 0)
(1 6.54915e-15 0)
(1 2.94803e-15 0)
(1 7.59242e-16 0)
(1 3.36492e-15 0)
(1 1.45895e-14 0)
(1 3.92106e-17 0)
(1 -6.08991e-16 0)
(1 -6.85149e-15 0)
(1 -3.71558e-16 0)
(1 -1.40684e-15 0)
(1 -1.60056e-15 0)
(1 -3.51643e-15 0)
(1 -2.35369e-15 0)
(1 -8.9705e-16 0)
(1 -9.83213e-16 0)
(1 2.696e-15 0)
(1 3.42916e-15 0)
(1 1.0118e-14 0)
(1 9.49276e-15 0)
(1 1.75102e-14 0)
(1 1.45867e-14 0)
(1 1.87475e-14 0)
(1 1.91066e-14 0)
(1 1.33206e-15 0)
(1 1.94549e-15 0)
(1 5.40181e-16 0)
(1 -7.79865e-16 0)
(1 -5.38788e-15 0)
(1 -4.42602e-15 0)
(1 2.08249e-15 0)
(1 5.61063e-15 0)
(1 -1.36765e-15 0)
(1 3.29977e-15 0)
(1 1.09575e-15 0)
(1 1.9702e-15 0)
(1 1.02177e-14 0)
(1 1.41465e-15 0)
(1 -9.87991e-15 0)
(1 5.11772e-18 0)
(1 4.49986e-15 0)
(1 9.53906e-15 0)
(1 -4.98941e-16 0)
(1 -7.18244e-15 0)
(1 2.54065e-16 0)
(1 5.70204e-16 0)
(1 -7.76187e-16 0)
(1 -1.63704e-15 0)
(1 2.08009e-15 0)
(1 -2.07175e-15 0)
(1 1.86828e-15 0)
(1 -5.05242e-15 0)
(1 -1.72616e-15 0)
(1 6.33271e-16 0)
(1 -4.44231e-15 0)
(1 -7.08984e-15 0)
(1 2.12885e-16 0)
(1 5.39801e-15 0)
(1 -2.78401e-15 0)
(1 3.15643e-15 0)
(1 -2.1436e-15 0)
(1 3.02855e-15 0)
(1 -3.66017e-15 0)
(1 -9.24972e-16 0)
(1 7.77573e-16 0)
(1 4.8781e-15 0)
(1 8.21044e-15 0)
(1 7.58582e-15 0)
(1 4.11588e-15 0)
(1 7.56006e-15 0)
(1 3.79212e-16 0)
(1 9.98469e-16 0)
(1 5.17876e-15 0)
(1 7.49276e-17 0)
(1 8.29576e-15 0)
(1 4.12587e-15 0)
(1 3.88333e-15 0)
(1 1.5352e-15 0)
(1 5.87855e-15 0)
(1 8.46015e-16 0)
(1 5.97862e-15 0)
(1 9.52766e-15 0)
(1 1.82425e-15 0)
(1 -2.72748e-15 0)
(1 5.60735e-15 0)
(1 4.63498e-15 0)
(1 1.30565e-14 0)
(1 5.58703e-15 0)
(1 -2.28037e-15 0)
(1 3.44831e-15 0)
(1 8.62779e-15 0)
(1 9.77908e-15 0)
(1 1.47285e-14 0)
(1 9.77051e-15 0)
(1 1.65195e-15 0)
(1 1.57008e-15 0)
(1 8.00843e-16 0)
(1 3.49924e-15 0)
(1 1.78283e-15 0)
(1 6.21112e-15 0)
(1 7.12911e-15 0)
(1 1.23413e-14 0)
(1 7.05823e-15 0)
(1 4.35076e-15 0)
(1 3.05091e-15 0)
(1 4.1107e-15 0)
(1 -7.11614e-16 0)
(1 -5.69602e-15 0)
(1 -4.86877e-15 0)
(1 -1.74327e-15 0)
(1 2.0126e-15 0)
(1 -7.71988e-15 0)
(1 5.6537e-16 0)
(1 -2.41011e-15 0)
(1 4.53348e-15 0)
(1 5.10473e-15 0)
(1 3.6575e-15 0)
(1 6.35281e-15 0)
(1 8.93976e-15 0)
(1 7.72943e-15 0)
(1 1.85656e-14 0)
(1 1.14191e-14 0)
(1 2.17441e-14 0)
(1 2.29024e-14 0)
(1 -6.54631e-16 0)
(1 -3.79221e-15 0)
(1 -4.1484e-16 0)
(1 3.82921e-15 0)
(1 -4.04136e-15 0)
(1 3.37687e-15 0)
(1 -1.49265e-15 0)
(1 4.49604e-15 0)
(1 3.37357e-15 0)
(1 -7.47373e-15 0)
(1 -4.19268e-15 0)
(1 -6.66219e-15 0)
(1 -1.9045e-15 0)
(1 6.37267e-15 0)
(1 6.53074e-15 0)
(1 9.23019e-15 0)
(1 3.70977e-15 0)
(1 -5.75679e-15 0)
(1 -3.29352e-15 0)
(1 -3.98136e-15 0)
(1 6.72008e-15 0)
(1 1.66364e-15 0)
(1 -1.66772e-16 0)
(1 -5.56285e-16 0)
(1 -3.09251e-15 0)
(1 -6.43909e-15 0)
(1 2.12646e-15 0)
(1 5.92895e-15 0)
(1 7.41716e-15 0)
(1 4.49429e-15 0)
(1 -3.64688e-15 0)
(1 -1.62856e-14 0)
(1 -5.65072e-15 0)
(1 -1.15689e-15 0)
(1 4.24331e-15 0)
(1 2.50837e-15 0)
(1 3.49767e-15 0)
(1 3.14139e-15 0)
(1 -4.1129e-16 0)
(1 4.01885e-16 0)
(1 3.95725e-15 0)
(1 -1.21872e-15 0)
(1 9.0555e-15 0)
(1 -6.86917e-16 0)
(1 7.78887e-16 0)
(1 -1.95637e-15 0)
(1 4.75569e-15 0)
(1 2.13889e-15 0)
(1 6.20634e-15 0)
(1 4.36708e-15 0)
(1 9.09376e-15 0)
(1 8.91152e-15 0)
(1 9.6088e-15 0)
(1 5.39848e-15 0)
(1 1.04136e-14 0)
(1 1.8927e-15 0)
(1 1.14028e-14 0)
(1 5.02707e-15 0)
(1 5.9832e-15 0)
(1 -3.62085e-15 0)
(1 1.00931e-14 0)
(1 -3.32238e-15 0)
(1 8.65268e-15 0)
(1 4.09663e-15 0)
(1 2.01942e-15 0)
(1 3.10937e-15 0)
(1 4.88647e-15 0)
(1 4.83106e-15 0)
(1 1.16631e-14 0)
(1 4.72188e-15 0)
(1 7.2524e-15 0)
(1 -1.53189e-15 0)
(1 3.03798e-15 0)
(1 -7.85883e-16 0)
(1 2.02466e-15 0)
(1 6.77273e-15 0)
(1 9.70256e-15 0)
(1 3.46539e-15 0)
(1 4.44292e-15 0)
(1 5.21159e-15 0)
(1 3.76706e-15 0)
(1 -3.63503e-15 0)
(1 3.74575e-15 0)
(1 -2.25593e-16 0)
(1 3.18401e-15 0)
(1 -1.59227e-15 0)
(1 1.52721e-15 0)
(1 8.44085e-17 0)
(1 1.66393e-15 0)
(1 -3.12516e-15 0)
(1 1.11053e-15 0)
(1 4.13048e-15 0)
(1 1.40693e-15 0)
(1 2.10664e-15 0)
(1 1.70051e-15 0)
(1 5.5358e-15 0)
(1 1.07543e-14 0)
(1 1.27236e-14 0)
(1 1.86052e-14 0)
(1 1.76081e-14 0)
(1 1.48266e-15 0)
(1 -5.92379e-15 0)
(1 2.52154e-15 0)
(1 -7.7236e-16 0)
(1 3.74706e-15 0)
(1 -4.17429e-15 0)
(1 -5.09658e-15 0)
(1 -1.51474e-15 0)
(1 5.63943e-15 0)
(1 3.7003e-15 0)
(1 1.10129e-15 0)
(1 -7.2642e-16 0)
(1 -5.81708e-15 0)
(1 -2.25955e-15 0)
(1 9.66005e-15 0)
(1 4.53837e-15 0)
(1 6.60394e-16 0)
(1 -3.55209e-15 0)
(1 -5.3772e-15 0)
(1 -9.40289e-15 0)
(1 5.47932e-15 0)
(1 1.37081e-17 0)
(1 -3.42544e-15 0)
(1 -4.93201e-15 0)
(1 3.70411e-15 0)
(1 3.48294e-15 0)
(1 -8.80129e-16 0)
(1 4.04108e-15 0)
(1 7.42649e-15 0)
(1 4.09079e-15 0)
(1 2.03037e-16 0)
(1 -3.78332e-15 0)
(1 -1.32385e-15 0)
(1 -5.6174e-15 0)
(1 -1.9136e-15 0)
(1 -7.625e-15 0)
(1 -7.28184e-16 0)
(1 7.47542e-16 0)
(1 5.91428e-15 0)
(1 -1.51896e-15 0)
(1 1.56718e-15 0)
(1 -2.87305e-15 0)
(1 -2.7046e-15 0)
(1 -5.42417e-15 0)
(1 3.58316e-15 0)
(1 7.72972e-15 0)
(1 1.15689e-14 0)
(1 9.73692e-15 0)
(1 7.80148e-15 0)
(1 5.47884e-15 0)
(1 5.22655e-15 0)
(1 9.54546e-15 0)
(1 9.55613e-15 0)
(1 9.05667e-15 0)
(1 5.10363e-15 0)
(1 4.05128e-17 0)
(1 -2.47021e-15 0)
(1 -7.45742e-16 0)
(1 6.03427e-15 0)
(1 6.64463e-15 0)
(1 6.42613e-15 0)
(1 9.95249e-15 0)
(1 1.02321e-16 0)
(1 -2.9825e-17 0)
(1 3.59104e-15 0)
(1 -1.89154e-15 0)
(1 5.4088e-15 0)
(1 4.17278e-15 0)
(1 4.72611e-15 0)
(1 3.84425e-15 0)
(1 1.81435e-15 0)
(1 3.55124e-15 0)
(1 8.14043e-15 0)
(1 2.09816e-15 0)
(1 8.84255e-15 0)
(1 2.4942e-15 0)
(1 1.06071e-14 0)
(1 4.59356e-15 0)
(1 1.21921e-15 0)
(1 2.31841e-15 0)
(1 6.427e-15 0)
(1 4.89406e-15 0)
(1 4.56757e-15 0)
(1 2.10372e-15 0)
(1 3.91313e-15 0)
(1 -2.29634e-15 0)
(1 -1.79922e-15 0)
(1 4.46367e-15 0)
(1 -3.99478e-15 0)
(1 3.93442e-16 0)
(1 2.68552e-15 0)
(1 7.63278e-15 0)
(1 5.36692e-15 0)
(1 2.22764e-15 0)
(1 5.90249e-15 0)
(1 9.68787e-15 0)
(1 1.09259e-14 0)
(1 1.10177e-14 0)
(1 1.01904e-14 0)
(1 1.271e-14 0)
(1 5.92209e-15 0)
(1 -1.39727e-15 0)
(1 -5.34132e-16 0)
(1 -3.34167e-15 0)
(1 6.15346e-15 0)
(1 -3.80998e-16 0)
(1 1.28207e-15 0)
(1 2.31454e-15 0)
(1 4.39857e-16 0)
(1 1.50888e-15 0)
(1 3.86992e-15 0)
(1 1.42405e-14 0)
(1 1.03302e-14 0)
(1 -9.85289e-16 0)
(1 -4.75272e-15 0)
(1 -1.60527e-14 0)
(1 -9.80422e-15 0)
(1 -1.19563e-14 0)
(1 -3.4727e-15 0)
(1 -5.63328e-15 0)
(1 6.05423e-15 0)
(1 -7.93852e-16 0)
(1 6.25299e-15 0)
(1 -3.90667e-15 0)
(1 5.10242e-16 0)
(1 7.11726e-15 0)
(1 3.87263e-15 0)
(1 -8.2133e-15 0)
(1 -4.98409e-15 0)
(1 -3.295e-15 0)
(1 -2.1124e-16 0)
(1 -3.92135e-16 0)
(1 -6.05053e-15 0)
(1 -3.17038e-16 0)
(1 -8.80027e-16 0)
(1 3.47335e-15 0)
(1 1.91624e-15 0)
(1 5.08447e-15 0)
(1 1.38908e-15 0)
(1 -3.93454e-15 0)
(1 -9.17885e-15 0)
(1 5.41237e-16 0)
(1 -6.49771e-15 0)
(1 2.25868e-15 0)
(1 -4.66585e-17 0)
(1 1.48906e-15 0)
(1 9.78978e-15 0)
(1 1.35906e-14 0)
(1 2.98497e-15 0)
(1 9.65464e-15 0)
(1 6.33916e-15 0)
(1 1.19735e-14 0)
(1 2.65598e-15 0)
(1 1.14107e-14 0)
(1 3.86464e-15 0)
(1 8.87353e-15 0)
(1 -1.88085e-15 0)
(1 1.34174e-15 0)
(1 -2.0084e-15 0)
(1 -6.03717e-16 0)
(1 -3.38287e-15 0)
(1 1.15244e-14 0)
(1 1.23823e-14 0)
(1 1.26322e-14 0)
(1 5.67681e-15 0)
(1 -6.73806e-16 0)
(1 -2.82925e-15 0)
(1 1.05987e-15 0)
(1 -1.23378e-15 0)
(1 5.5555e-16 0)
(1 4.16545e-16 0)
(1 3.19592e-15 0)
(1 6.50765e-15 0)
(1 1.18045e-14 0)
(1 1.28724e-14 0)
(1 7.7615e-16 0)
(1 -1.13036e-18 0)
(1 3.27331e-15 0)
(1 -8.87648e-16 0)
(1 5.34451e-15 0)
(1 2.25683e-15 0)
(1 2.72676e-15 0)
(1 1.8908e-15 0)
(1 3.09839e-15 0)
(1 1.56506e-15 0)
(1 4.2782e-15 0)
(1 1.95165e-15 0)
(1 -8.30207e-16 0)
(1 6.85309e-16 0)
(1 2.92031e-15 0)
(1 2.44159e-15 0)
(1 1.25778e-15 0)
(1 -2.77779e-15 0)
(1 2.19996e-15 0)
(1 -1.38668e-15 0)
(1 7.3741e-15 0)
(1 1.24539e-14 0)
(1 9.51791e-15 0)
(1 6.54182e-15 0)
(1 8.21948e-15 0)
(1 -3.30012e-15 0)
(1 1.27965e-14 0)
(1 -1.13303e-14 0)
(1 1.4021e-15 0)
(1 -1.11784e-15 0)
(1 5.52709e-15 0)
(1 4.95969e-16 0)
(1 5.75221e-15 0)
(1 6.03351e-16 0)
(1 -3.32369e-15 0)
(1 2.1361e-16 0)
(1 9.76273e-15 0)
(1 3.27894e-15 0)
(1 6.47759e-15 0)
(1 -4.54087e-15 0)
(1 -1.20585e-14 0)
(1 -5.01041e-15 0)
(1 -6.8758e-15 0)
(1 -6.23494e-15 0)
(1 -3.30101e-15 0)
(1 -4.61317e-15 0)
(1 -4.44457e-15 0)
(1 7.3061e-15 0)
(1 5.56326e-15 0)
(1 1.96814e-15 0)
(1 -4.96583e-15 0)
(1 1.86387e-15 0)
(1 -1.68142e-15 0)
(1 1.65642e-15 0)
(1 -1.0675e-15 0)
(1 3.59213e-15 0)
(1 8.35599e-17 0)
(1 -5.71373e-15 0)
(1 -6.21975e-15 0)
(1 7.97802e-15 0)
(1 5.57116e-15 0)
(1 4.01315e-15 0)
(1 1.63107e-15 0)
(1 -2.5051e-15 0)
(1 -5.38659e-15 0)
(1 -6.39175e-15 0)
(1 -3.42416e-15 0)
(1 -8.87772e-16 0)
(1 1.07251e-14 0)
(1 1.49304e-15 0)
(1 6.53675e-15 0)
(1 6.7702e-15 0)
(1 8.87346e-15 0)
(1 6.85945e-15 0)
(1 1.1453e-14 0)
(1 2.5458e-15 0)
(1 2.75618e-15 0)
(1 -6.76094e-15 0)
(1 -6.28509e-16 0)
(1 6.86919e-15 0)
(1 8.66703e-15 0)
(1 1.58615e-14 0)
(1 9.13917e-15 0)
(1 4.60557e-15 0)
(1 -2.81478e-15 0)
(1 -1.23363e-15 0)
(1 -1.48433e-15 0)
(1 -5.79665e-16 0)
(1 1.12382e-15 0)
(1 3.80821e-15 0)
(1 1.22504e-14 0)
(1 -1.057e-15 0)
(1 4.34739e-15 0)
(1 -2.51023e-15 0)
(1 6.60369e-15 0)
(1 1.11013e-14 0)
(1 2.96526e-15 0)
(1 9.38806e-15 0)
(1 1.47715e-14 0)
(1 7.86427e-15 0)
(1 9.35388e-15 0)
(1 3.50171e-15 0)
(1 8.96999e-16 0)
(1 8.2515e-15 0)
(1 6.34752e-15 0)
(1 -5.94571e-18 0)
(1 1.65173e-15 0)
(1 2.31677e-15 0)
(1 5.31261e-15 0)
(1 5.14579e-15 0)
(1 2.60251e-15 0)
(1 6.13679e-16 0)
(1 8.58305e-16 0)
(1 7.67958e-15 0)
(1 3.76751e-15 0)
(1 -3.20175e-15 0)
(1 2.4379e-15 0)
(1 6.50356e-16 0)
(1 4.92552e-15 0)
(1 -4.77006e-16 0)
(1 7.45319e-15 0)
(1 9.62377e-15 0)
(1 1.14942e-14 0)
(1 1.23209e-14 0)
(1 5.80464e-15 0)
(1 -8.16802e-17 0)
(1 3.69865e-15 0)
(1 9.65225e-15 0)
(1 -2.98671e-16 0)
(1 1.26737e-15 0)
(1 -3.62179e-15 0)
(1 -3.37014e-15 0)
(1 -7.10478e-15 0)
(1 4.17154e-15 0)
(1 1.01012e-14 0)
(1 2.95003e-15 0)
(1 -5.48849e-15 0)
(1 -6.9724e-15 0)
(1 -5.01288e-15 0)
(1 -1.27485e-14 0)
(1 -7.84792e-15 0)
(1 -8.49668e-15 0)
(1 -7.37156e-15 0)
(1 -4.22961e-15 0)
(1 4.38788e-15 0)
(1 -5.30676e-15 0)
(1 5.7023e-15 0)
(1 -7.49075e-15 0)
(1 1.61477e-14 0)
(1 1.45763e-14 0)
(1 2.42279e-15 0)
(1 -2.54071e-15 0)
(1 2.72262e-15 0)
(1 -6.99811e-16 0)
(1 5.19014e-16 0)
(1 -5.72754e-15 0)
(1 -1.73329e-15 0)
(1 -1.88902e-15 0)
(1 -1.03543e-14 0)
(1 -1.9614e-15 0)
(1 -4.07179e-16 0)
(1 1.85612e-15 0)
(1 2.37087e-15 0)
(1 -1.04749e-15 0)
(1 1.11552e-15 0)
(1 5.76472e-15 0)
(1 1.69731e-15 0)
(1 8.21416e-17 0)
(1 5.62892e-15 0)
(1 5.05244e-15 0)
(1 9.88318e-15 0)
(1 5.36389e-15 0)
(1 2.99319e-15 0)
(1 -2.68275e-16 0)
(1 1.35769e-15 0)
(1 2.5469e-15 0)
(1 1.37128e-15 0)
(1 -1.72457e-15 0)
(1 -3.22402e-16 0)
(1 8.10628e-15 0)
(1 -2.06064e-15 0)
(1 1.21623e-14 0)
(1 8.85394e-15 0)
(1 9.37437e-15 0)
(1 8.71938e-15 0)
(1 6.80649e-15 0)
(1 2.39177e-15 0)
(1 4.18087e-15 0)
(1 -1.29213e-15 0)
(1 5.98253e-15 0)
(1 5.86423e-15 0)
(1 1.15966e-14 0)
(1 4.25309e-15 0)
(1 3.8974e-15 0)
(1 9.55795e-15 0)
(1 6.94287e-15 0)
(1 1.14467e-14 0)
(1 8.78711e-15 0)
(1 1.18993e-14 0)
(1 7.43059e-15 0)
(1 1.06691e-14 0)
(1 6.92414e-15 0)
(1 1.29133e-15 0)
(1 1.20343e-14 0)
(1 7.92148e-15 0)
(1 2.66836e-16 0)
(1 3.21087e-15 0)
(1 2.74448e-15 0)
(1 -1.13723e-15 0)
(1 -2.15061e-15 0)
(1 -3.12828e-15 0)
(1 -5.57402e-15 0)
(1 -3.77373e-15 0)
(1 3.08173e-16 0)
(1 -4.8098e-15 0)
(1 3.16934e-15 0)
(1 2.96526e-15 0)
(1 6.51844e-15 0)
(1 8.39736e-15 0)
(1 1.32561e-14 0)
(1 1.02525e-14 0)
(1 4.03733e-15 0)
(1 8.60472e-15 0)
(1 1.41422e-14 0)
(1 7.75568e-15 0)
(1 -1.93557e-15 0)
(1 -3.70513e-15 0)
(1 9.3653e-16 0)
(1 4.26947e-15 0)
(1 -5.0761e-15 0)
(1 4.62201e-15 0)
(1 9.95869e-15 0)
(1 6.55196e-15 0)
(1 4.95305e-15 0)
(1 5.49518e-16 0)
(1 -3.05397e-15 0)
(1 -1.21842e-14 0)
(1 -9.68956e-15 0)
(1 -5.73052e-15 0)
(1 -2.68555e-15 0)
(1 5.52919e-15 0)
(1 -1.3925e-14 0)
(1 -1.09918e-14 0)
(1 -9.86371e-15 0)
(1 2.86464e-15 0)
(1 4.48611e-15 0)
(1 8.08091e-15 0)
(1 -6.93893e-15 0)
(1 -1.29065e-15 0)
(1 -2.14823e-15 0)
(1 7.18241e-15 0)
(1 5.75418e-15 0)
(1 3.61956e-15 0)
(1 1.61079e-15 0)
(1 -3.76925e-15 0)
(1 -4.52048e-15 0)
(1 -2.57342e-15 0)
(1 9.57357e-16 0)
(1 1.9464e-15 0)
(1 -3.76058e-15 0)
(1 2.58835e-15 0)
(1 -1.0128e-15 0)
(1 2.27828e-15 0)
(1 7.05153e-15 0)
(1 7.56573e-15 0)
(1 6.02456e-15 0)
(1 8.3232e-16 0)
(1 1.60445e-15 0)
(1 -1.04115e-14 0)
(1 -9.69691e-17 0)
(1 -8.01276e-15 0)
(1 5.83423e-15 0)
(1 3.09512e-15 0)
(1 9.73613e-16 0)
(1 1.83724e-16 0)
(1 8.28628e-15 0)
(1 2.74753e-15 0)
(1 5.4089e-15 0)
(1 6.8843e-16 0)
(1 2.63702e-15 0)
(1 6.8964e-15 0)
(1 1.25689e-14 0)
(1 7.58988e-15 0)
(1 9.20557e-15 0)
(1 1.25893e-15 0)
(1 -7.70361e-15 0)
(1 -7.74075e-15 0)
(1 1.38558e-15 0)
(1 6.10876e-15 0)
(1 3.72096e-15 0)
(1 -2.09002e-15 0)
(1 6.73507e-15 0)
(1 9.72884e-16 0)
(1 1.38789e-14 0)
(1 6.0776e-15 0)
(1 3.30979e-15 0)
(1 1.1333e-14 0)
(1 5.70375e-15 0)
(1 8.04528e-15 0)
(1 7.90322e-15 0)
(1 2.57082e-15 0)
(1 -2.4918e-15 0)
(1 1.52802e-15 0)
(1 8.77714e-15 0)
(1 7.63099e-17 0)
(1 3.79684e-15 0)
(1 4.48577e-15 0)
(1 7.19278e-15 0)
(1 4.41318e-15 0)
(1 9.06705e-16 0)
(1 9.31489e-17 0)
(1 -3.85677e-15 0)
(1 -5.01252e-15 0)
(1 -2.25207e-15 0)
(1 3.59404e-16 0)
(1 3.21391e-15 0)
(1 2.96671e-15 0)
(1 6.40607e-15 0)