/*--------------------------------*- C++ -*----------------------------------*\
| =========                 |                                                 |
| \\      /  F ield         | OpenFOAM: The Open Source CFD Toolbox           |
|  \\    /   O peration     | Version:  v2012                                 |
|   \\  /    A nd           | Website:  www.openfoam.com                      |
|    \\/     M anipulation  |                                                 |
\*---------------------------------------------------------------------------*/
FoamFile
{
    version     2.0;
    format      ascii;
    class       volScalarField;
    location    "5.5";
    object      p;
}
// * * * * * * * * * * * * * * * * * * * * * * * * * * * * * * * * * * * * * //

dimensions      [0 2 -2 0 0 0 0];


internalField   nonuniform List<scalar> 
65536
(
-1.01145e-09
-2.66698e-06
-8.0007e-06
-1.5989e-05
-2.6632e-05
-3.99319e-05
-5.58897e-05
-7.4506e-05
-9.57812e-05
-0.000119716
-0.000146309
-0.000175562
-0.000207474
-0.000242046
-0.000279276
-0.000319164
-0.000361709
-0.000406911
-0.000454767
-0.000505275
-0.000558433
-0.000614238
-0.000672687
-0.000733775
-0.000797497
-0.000863848
-0.000932822
-0.00100441
-0.00107861
-0.0011554
-0.00123478
-0.00131673
-0.00140125
-0.00148832
-0.00157791
-0.00167003
-0.00176464
-0.00186173
-0.00196127
-0.00206325
-0.00216762
-0.00227438
-0.00238349
-0.00249491
-0.00260862
-0.00272458
-0.00284274
-0.00296307
-0.00308553
-0.00321007
-0.00333665
-0.0034652
-0.00359569
-0.00372806
-0.00386224
-0.00399818
-0.00413581
-0.00427507
-0.00441589
-0.00455819
-0.00470192
-0.00484698
-0.0049933
-0.00514079
-0.00528939
-0.00543899
-0.00558951
-0.00574085
-0.00589294
-0.00604566
-0.00619892
-0.00635262
-0.00650667
-0.00666095
-0.00681537
-0.00696981
-0.00712417
-0.00727834
-0.00743221
-0.00758567
-0.00773861
-0.00789092
-0.00804248
-0.00819319
-0.00834292
-0.00849157
-0.00863902
-0.00878517
-0.0089299
-0.00907311
-0.00921468
-0.00935451
-0.00949248
-0.00962851
-0.00976248
-0.0098943
-0.0100239
-0.0101511
-0.0102759
-0.0103981
-0.0105177
-0.0106347
-0.0107488
-0.0108601
-0.0109684
-0.0110737
-0.011176
-0.0112751
-0.011371
-0.0114636
-0.011553
-0.011639
-0.0117216
-0.0118007
-0.0118764
-0.0119485
-0.0120171
-0.0120822
-0.0121436
-0.0122015
-0.0122557
-0.0123064
-0.0123534
-0.0123968
-0.0124365
-0.0124727
-0.0125053
-0.0125342
-0.0125596
-0.0125815
-0.0125998
-0.0126146
-0.012626
-0.0126339
-0.0126385
-0.0126397
-0.0126375
-0.0126322
-0.0126236
-0.0126118
-0.0125969
-0.012579
-0.012558
-0.0125341
-0.0125073
-0.0124777
-0.0124453
-0.0124102
-0.0123725
-0.0123322
-0.0122895
-0.0122442
-0.0121967
-0.0121468
-0.0120947
-0.0120404
-0.0119841
-0.0119258
-0.0118655
-0.0118034
-0.0117395
-0.0116738
-0.0116066
-0.0115377
-0.0114674
-0.0113956
-0.0113225
-0.0112481
-0.0111725
-0.0110958
-0.011018
-0.0109393
-0.0108596
-0.010779
-0.0106977
-0.0106156
-0.0105329
-0.0104496
-0.0103658
-0.0102815
-0.0101969
-0.0101119
-0.0100267
-0.00994123
-0.00985566
-0.00977
-0.00968432
-0.00959867
-0.00951312
-0.00942771
-0.00934251
-0.00925756
-0.00917292
-0.00908864
-0.00900477
-0.00892136
-0.00883846
-0.00875611
-0.00867437
-0.00859327
-0.00851287
-0.00843319
-0.0083543
-0.00827622
-0.008199
-0.00812267
-0.00804728
-0.00797286
-0.00789944
-0.00782707
-0.00775577
-0.00768558
-0.00761653
-0.00754865
-0.00748197
-0.00741652
-0.00735233
-0.00728942
-0.00722782
-0.00716756
-0.00710867
-0.00705115
-0.00699504
-0.00694037
-0.00688714
-0.00683538
-0.00678511
-0.00673635
-0.00668912
-0.00664343
-0.0065993
-0.00655675
-0.00651579
-0.00647643
-0.00643869
-0.00640258
-0.00636811
-0.0063353
-0.00630415
-0.00627468
-0.0062469
-0.0062208
-0.00619642
-0.00617374
-0.00615277
-0.00613354
-0.00611603
-0.00610026
-0.00608623
-0.00607394
-0.0060634
-0.00605461
-0.00604758
-0.0060423
-0.00603878
-0.00603702
-1.80929e-06
-4.47353e-06
-9.80255e-06
-1.7787e-05
-2.84273e-05
-4.17249e-05
-5.76802e-05
-7.62937e-05
-9.75657e-05
-0.000121497
-0.000148086
-0.000177335
-0.000209243
-0.00024381
-0.000281035
-0.000320918
-0.000363459
-0.000408654
-0.000456505
-0.000507007
-0.000560159
-0.000615958
-0.000674401
-0.000735483
-0.000799199
-0.000865544
-0.000934511
-0.00100609
-0.00108028
-0.00115707
-0.00123644
-0.00131839
-0.00140291
-0.00148997
-0.00157956
-0.00167167
-0.00176628
-0.00186336
-0.00196291
-0.00206488
-0.00216926
-0.00227601
-0.00238512
-0.00249654
-0.00261025
-0.00272621
-0.00284438
-0.00296471
-0.00308718
-0.00321172
-0.0033383
-0.00346687
-0.00359737
-0.00372974
-0.00386393
-0.00399988
-0.00413752
-0.0042768
-0.00441763
-0.00455996
-0.0047037
-0.00484878
-0.00499512
-0.00514263
-0.00529125
-0.00544087
-0.00559142
-0.00574279
-0.0058949
-0.00604765
-0.00620094
-0.00635467
-0.00650875
-0.00666306
-0.00681751
-0.00697199
-0.00712638
-0.00728059
-0.0074345
-0.00758799
-0.00774097
-0.00789332
-0.00804492
-0.00819566
-0.00834543
-0.00849412
-0.00864162
-0.0087878
-0.00893258
-0.00907582
-0.00921743
-0.0093573
-0.00949532
-0.00963139
-0.0097654
-0.00989725
-0.0100269
-0.0101541
-0.0102789
-0.0104012
-0.0105209
-0.0106378
-0.010752
-0.0108633
-0.0109717
-0.011077
-0.0111793
-0.0112784
-0.0113744
-0.0114671
-0.0115564
-0.0116424
-0.011725
-0.0118042
-0.0118799
-0.0119521
-0.0120207
-0.0120857
-0.0121472
-0.0122051
-0.0122594
-0.01231
-0.012357
-0.0124004
-0.0124402
-0.0124764
-0.0125089
-0.0125379
-0.0125633
-0.0125851
-0.0126034
-0.0126183
-0.0126296
-0.0126376
-0.0126421
-0.0126433
-0.0126412
-0.0126358
-0.0126271
-0.0126154
-0.0126005
-0.0125825
-0.0125615
-0.0125376
-0.0125108
-0.0124812
-0.0124488
-0.0124137
-0.0123759
-0.0123356
-0.0122928
-0.0122476
-0.0122
-0.0121501
-0.0120979
-0.0120437
-0.0119873
-0.0119289
-0.0118686
-0.0118065
-0.0117425
-0.0116769
-0.0116096
-0.0115407
-0.0114703
-0.0113986
-0.0113254
-0.011251
-0.0111754
-0.0110986
-0.0110208
-0.010942
-0.0108623
-0.0107817
-0.0107003
-0.0106182
-0.0105355
-0.0104522
-0.0103683
-0.010284
-0.0101993
-0.0101143
-0.0100291
-0.00994361
-0.009858
-0.00977231
-0.0096866
-0.00960093
-0.00951535
-0.00942991
-0.00934468
-0.0092597
-0.00917504
-0.00909073
-0.00900683
-0.0089234
-0.00884047
-0.0087581
-0.00867633
-0.00859521
-0.00851478
-0.00843508
-0.00835616
-0.00827806
-0.00820081
-0.00812447
-0.00804905
-0.00797461
-0.00790117
-0.00782878
-0.00775746
-0.00768725
-0.00761818
-0.00755028
-0.00748358
-0.00741812
-0.00735391
-0.00729098
-0.00722937
-0.0071691
-0.00711018
-0.00705265
-0.00699653
-0.00694184
-0.0068886
-0.00683683
-0.00678655
-0.00673778
-0.00669053
-0.00664483
-0.00660069
-0.00655813
-0.00651716
-0.00647779
-0.00644004
-0.00640392
-0.00636945
-0.00633663
-0.00630548
-0.006276
-0.00624821
-0.00622211
-0.00619771
-0.00617503
-0.00615406
-0.00613482
-0.00611731
-0.00610153
-0.0060875
-0.00607521
-0.00606467
-0.00605588
-0.00604885
-0.00604357
-0.00604005
-0.00603829
-5.42556e-06
-8.0853e-06
-1.34083e-05
-2.13874e-05
-3.20232e-05
-4.53161e-05
-6.12663e-05
-7.9874e-05
-0.00010114
-0.000125064
-0.000151646
-0.000180887
-0.000212786
-0.000247344
-0.000284559
-0.000324432
-0.000366962
-0.000412147
-0.000459986
-0.000510476
-0.000563617
-0.000619404
-0.000677834
-0.000738904
-0.000802608
-0.00086894
-0.000937896
-0.00100947
-0.00108364
-0.00116042
-0.00123978
-0.00132172
-0.00140622
-0.00149328
-0.00158286
-0.00167496
-0.00176956
-0.00186664
-0.00196618
-0.00206815
-0.00217252
-0.00227928
-0.00238838
-0.00249981
-0.00261352
-0.00272948
-0.00284765
-0.002968
-0.00309047
-0.00321503
-0.00334162
-0.0034702
-0.00360072
-0.00373311
-0.00386732
-0.0040033
-0.00414097
-0.00428027
-0.00442113
-0.00456349
-0.00470726
-0.00485238
-0.00499876
-0.00514632
-0.00529498
-0.00544465
-0.00559524
-0.00574667
-0.00589883
-0.00605163
-0.00620498
-0.00635878
-0.00651291
-0.00666729
-0.00682181
-0.00697635
-0.00713081
-0.00728509
-0.00743907
-0.00759264
-0.0077457
-0.00789812
-0.00804979
-0.00820062
-0.00835047
-0.00849923
-0.00864681
-0.00879308
-0.00893793
-0.00908126
-0.00922295
-0.0093629
-0.009501
-0.00963714
-0.00977123
-0.00990317
-0.0100328
-0.0101602
-0.0102851
-0.0104074
-0.0105272
-0.0106442
-0.0107584
-0.0108698
-0.0109782
-0.0110836
-0.011186
-0.0112852
-0.0113812
-0.0114739
-0.0115633
-0.0116494
-0.011732
-0.0118112
-0.011887
-0.0119592
-0.0120278
-0.0120929
-0.0121544
-0.0122123
-0.0122666
-0.0123173
-0.0123643
-0.0124077
-0.0124475
-0.0124837
-0.0125162
-0.0125452
-0.0125706
-0.0125924
-0.0126108
-0.0126256
-0.0126369
-0.0126448
-0.0126494
-0.0126505
-0.0126484
-0.012643
-0.0126343
-0.0126225
-0.0126076
-0.0125896
-0.0125686
-0.0125446
-0.0125178
-0.0124881
-0.0124557
-0.0124205
-0.0123827
-0.0123424
-0.0122995
-0.0122542
-0.0122066
-0.0121566
-0.0121044
-0.0120501
-0.0119937
-0.0119353
-0.0118749
-0.0118127
-0.0117487
-0.011683
-0.0116156
-0.0115467
-0.0114763
-0.0114044
-0.0113312
-0.0112568
-0.0111811
-0.0111043
-0.0110264
-0.0109475
-0.0108677
-0.0107871
-0.0107056
-0.0106235
-0.0105407
-0.0104573
-0.0103734
-0.010289
-0.0102043
-0.0101192
-0.0100339
-0.00994837
-0.0098627
-0.00977696
-0.00969119
-0.00960545
-0.00951981
-0.00943432
-0.00934903
-0.009264
-0.00917928
-0.00909492
-0.00901097
-0.00892748
-0.0088445
-0.00876207
-0.00868025
-0.00859908
-0.0085186
-0.00843886
-0.00835989
-0.00828174
-0.00820445
-0.00812806
-0.0080526
-0.00797812
-0.00790464
-0.0078322
-0.00776084
-0.00769059
-0.00762149
-0.00755355
-0.00748682
-0.00742132
-0.00735707
-0.00729411
-0.00723247
-0.00717216
-0.00711322
-0.00705566
-0.00699951
-0.00694479
-0.00689152
-0.00683973
-0.00678942
-0.00674063
-0.00669336
-0.00664764
-0.00660348
-0.0065609
-0.0065199
-0.00648052
-0.00644275
-0.00640662
-0.00637213
-0.00633929
-0.00630812
-0.00627863
-0.00625083
-0.00622472
-0.00620031
-0.00617762
-0.00615664
-0.00613739
-0.00611988
-0.00610409
-0.00609005
-0.00607776
-0.00606721
-0.00605842
-0.00605138
-0.0060461
-0.00604258
-0.00604082
-1.08396e-05
-1.34957e-05
-1.88136e-05
-2.67872e-05
-3.74169e-05
-5.07031e-05
-6.66458e-05
-8.52452e-05
-0.000106502
-0.000130415
-0.000156986
-0.000186215
-0.000218102
-0.000252645
-0.000289846
-0.000329704
-0.000372218
-0.000417386
-0.000465208
-0.000515682
-0.000568804
-0.000624573
-0.000682985
-0.000744036
-0.000807722
-0.000874036
-0.000942973
-0.00101453
-0.00108869
-0.00116544
-0.00124479
-0.00132671
-0.0014112
-0.00149824
-0.00158781
-0.0016799
-0.00177449
-0.00187156
-0.00197109
-0.00207305
-0.00217742
-0.00228418
-0.00239328
-0.00250471
-0.00261842
-0.00273439
-0.00285257
-0.00297293
-0.00309542
-0.00321999
-0.0033466
-0.00347521
-0.00360575
-0.00373817
-0.00387241
-0.00400842
-0.00414613
-0.00428547
-0.00442638
-0.00456879
-0.00471262
-0.00485779
-0.00500423
-0.00515185
-0.00530058
-0.00545032
-0.00560098
-0.00575249
-0.00590473
-0.00605762
-0.00621105
-0.00636494
-0.00651917
-0.00667364
-0.00682825
-0.0069829
-0.00713747
-0.00729185
-0.00744594
-0.00759962
-0.00775279
-0.00790532
-0.00805712
-0.00820805
-0.00835802
-0.00850691
-0.00865461
-0.008801
-0.00894597
-0.00908942
-0.00923123
-0.0093713
-0.00950952
-0.00964579
-0.00977999
-0.00991205
-0.0100418
-0.0101693
-0.0102943
-0.0104168
-0.0105366
-0.0106537
-0.0107681
-0.0108795
-0.0109881
-0.0110936
-0.011196
-0.0112953
-0.0113914
-0.0114842
-0.0115737
-0.0116598
-0.0117425
-0.0118218
-0.0118976
-0.0119698
-0.0120385
-0.0121037
-0.0121652
-0.0122232
-0.0122775
-0.0123282
-0.0123753
-0.0124187
-0.0124585
-0.0124947
-0.0125272
-0.0125562
-0.0125816
-0.0126034
-0.0126217
-0.0126365
-0.0126479
-0.0126558
-0.0126603
-0.0126614
-0.0126592
-0.0126538
-0.0126451
-0.0126332
-0.0126183
-0.0126002
-0.0125792
-0.0125552
-0.0125283
-0.0124985
-0.012466
-0.0124308
-0.012393
-0.0123525
-0.0123096
-0.0122642
-0.0122165
-0.0121665
-0.0121142
-0.0120598
-0.0120033
-0.0119448
-0.0118844
-0.0118221
-0.011758
-0.0116922
-0.0116247
-0.0115557
-0.0114852
-0.0114133
-0.01134
-0.0112654
-0.0111896
-0.0111127
-0.0110347
-0.0109558
-0.0108759
-0.0107951
-0.0107136
-0.0106314
-0.0105485
-0.010465
-0.010381
-0.0102965
-0.0102117
-0.0101265
-0.0100411
-0.00995551
-0.00986976
-0.00978392
-0.00969806
-0.00961224
-0.00952651
-0.00944094
-0.00935556
-0.00927045
-0.00918564
-0.0091012
-0.00901717
-0.0089336
-0.00885054
-0.00876804
-0.00868614
-0.00860489
-0.00852434
-0.00844452
-0.00836548
-0.00828727
-0.00820991
-0.00813345
-0.00805792
-0.00798337
-0.00790983
-0.00783734
-0.00776592
-0.00769561
-0.00762645
-0.00755845
-0.00749167
-0.00742611
-0.00736182
-0.00729881
-0.00723712
-0.00717676
-0.00711777
-0.00706017
-0.00700398
-0.00694922
-0.00689591
-0.00684408
-0.00679374
-0.00674491
-0.0066976
-0.00665185
-0.00660766
-0.00656504
-0.00652402
-0.00648461
-0.00644682
-0.00641066
-0.00637614
-0.00634329
-0.0063121
-0.00628259
-0.00625476
-0.00622864
-0.00620421
-0.0061815
-0.00616052
-0.00614125
-0.00612372
-0.00610793
-0.00609388
-0.00608157
-0.00607102
-0.00606222
-0.00605518
-0.0060499
-0.00604637
-0.00604461
-1.80538e-05
-2.07073e-05
-2.60207e-05
-3.39884e-05
-4.46108e-05
-5.78884e-05
-7.38213e-05
-9.24096e-05
-0.000113654
-0.000137554
-0.00016411
-0.000193323
-0.000225192
-0.000259717
-0.000296899
-0.000336737
-0.000379229
-0.000424376
-0.000472175
-0.000522625
-0.000575724
-0.000631469
-0.000689857
-0.000750883
-0.000814544
-0.000880834
-0.000949747
-0.00102128
-0.00109541
-0.00117215
-0.00125147
-0.00133338
-0.00141784
-0.00150486
-0.00159442
-0.00168649
-0.00178107
-0.00187812
-0.00197764
-0.0020796
-0.00218396
-0.00229071
-0.00239982
-0.00251125
-0.00262497
-0.00274094
-0.00285914
-0.00297951
-0.00310201
-0.00322661
-0.00335325
-0.00348188
-0.00361246
-0.00374492
-0.00387921
-0.00401526
-0.00415302
-0.00429242
-0.00443339
-0.00457586
-0.00471976
-0.00486501
-0.00501153
-0.00515923
-0.00530805
-0.00545788
-0.00560865
-0.00576025
-0.0059126
-0.0060656
-0.00621915
-0.00637316
-0.00652751
-0.00668211
-0.00683686
-0.00699164
-0.00714635
-0.00730087
-0.00745511
-0.00760894
-0.00776225
-0.00791494
-0.00806689
-0.00821799
-0.00836811
-0.00851716
-0.00866502
-0.00881157
-0.0089567
-0.00910031
-0.00924229
-0.00938252
-0.0095209
-0.00965732
-0.00979169
-0.0099239
-0.0100539
-0.0101814
-0.0103066
-0.0104292
-0.0105492
-0.0106665
-0.0107809
-0.0108926
-0.0110012
-0.0111068
-0.0112094
-0.0113088
-0.011405
-0.0114979
-0.0115875
-0.0116737
-0.0117565
-0.0118359
-0.0119117
-0.0119841
-0.0120529
-0.0121181
-0.0121797
-0.0122377
-0.012292
-0.0123428
-0.0123899
-0.0124333
-0.0124731
-0.0125093
-0.0125419
-0.0125709
-0.0125963
-0.0126181
-0.0126364
-0.0126512
-0.0126625
-0.0126704
-0.0126748
-0.0126759
-0.0126737
-0.0126682
-0.0126595
-0.0126476
-0.0126325
-0.0126144
-0.0125933
-0.0125692
-0.0125422
-0.0125124
-0.0124798
-0.0124445
-0.0124066
-0.0123661
-0.012323
-0.0122776
-0.0122297
-0.0121796
-0.0121273
-0.0120727
-0.0120161
-0.0119575
-0.011897
-0.0118346
-0.0117703
-0.0117044
-0.0116369
-0.0115677
-0.0114971
-0.011425
-0.0113516
-0.0112769
-0.011201
-0.011124
-0.0110459
-0.0109668
-0.0108868
-0.0108059
-0.0107242
-0.0106419
-0.0105588
-0.0104752
-0.0103911
-0.0103066
-0.0102216
-0.0101363
-0.0100508
-0.00996504
-0.00987916
-0.00979321
-0.00970723
-0.00962129
-0.00953545
-0.00944976
-0.00936427
-0.00927904
-0.00919412
-0.00910957
-0.00902543
-0.00894176
-0.00885859
-0.00877599
-0.00869399
-0.00861264
-0.00853199
-0.00845208
-0.00837295
-0.00829463
-0.00821718
-0.00814063
-0.00806502
-0.00799039
-0.00791676
-0.00784418
-0.00777269
-0.0077023
-0.00763306
-0.00756499
-0.00749813
-0.00743251
-0.00736814
-0.00730507
-0.00724331
-0.0071829
-0.00712385
-0.00706619
-0.00700994
-0.00695512
-0.00690176
-0.00684988
-0.00679948
-0.00675061
-0.00670326
-0.00665746
-0.00661323
-0.00657057
-0.00652951
-0.00649006
-0.00645223
-0.00641604
-0.00638149
-0.00634861
-0.00631739
-0.00628785
-0.00626001
-0.00623386
-0.00620941
-0.00618668
-0.00616567
-0.00614639
-0.00612885
-0.00611304
-0.00609898
-0.00608667
-0.0060761
-0.0060673
-0.00606025
-0.00605496
-0.00605143
-0.00604967
-2.70732e-05
-2.97241e-05
-3.50328e-05
-4.29938e-05
-5.36077e-05
-6.6875e-05
-8.27958e-05
-0.00010137
-0.000122599
-0.000146482
-0.00017302
-0.000202213
-0.00023406
-0.000268563
-0.000305721
-0.000345533
-0.000387999
-0.000433118
-0.000480889
-0.000531311
-0.00058438
-0.000640095
-0.000698452
-0.000759448
-0.000823078
-0.000889338
-0.00095822
-0.00102972
-0.00110383
-0.00118053
-0.00125983
-0.00134171
-0.00142615
-0.00151315
-0.00160268
-0.00169473
-0.00178929
-0.00188633
-0.00198584
-0.00208778
-0.00219214
-0.00229889
-0.00240799
-0.00251943
-0.00263315
-0.00274914
-0.00286735
-0.00298774
-0.00311027
-0.00323489
-0.00336157
-0.00349024
-0.00362086
-0.00375336
-0.00388771
-0.00402382
-0.00416165
-0.00430112
-0.00444216
-0.00458472
-0.0047287
-0.00487404
-0.00502066
-0.00516847
-0.0053174
-0.00546735
-0.00561824
-0.00576997
-0.00592246
-0.00607559
-0.00622929
-0.00638345
-0.00653796
-0.00669272
-0.00684763
-0.00700258
-0.00715746
-0.00731217
-0.00746658
-0.0076206
-0.0077741
-0.00792699
-0.00807913
-0.00823042
-0.00838074
-0.00852999
-0.00867805
-0.0088248
-0.00897014
-0.00911396
-0.00925613
-0.00939656
-0.00953515
-0.00967177
-0.00980634
-0.00993874
-0.0100689
-0.0101967
-0.010322
-0.0104448
-0.010565
-0.0106824
-0.0107971
-0.0109088
-0.0110177
-0.0111235
-0.0112262
-0.0113257
-0.011422
-0.0115151
-0.0116048
-0.0116912
-0.0117741
-0.0118535
-0.0119295
-0.0120019
-0.0120708
-0.0121361
-0.0121977
-0.0122558
-0.0123102
-0.012361
-0.0124081
-0.0124516
-0.0124915
-0.0125277
-0.0125603
-0.0125893
-0.0126146
-0.0126365
-0.0126547
-0.0126695
-0.0126808
-0.0126886
-0.012693
-0.0126941
-0.0126918
-0.0126863
-0.0126775
-0.0126655
-0.0126504
-0.0126322
-0.012611
-0.0125868
-0.0125597
-0.0125298
-0.0124971
-0.0124617
-0.0124237
-0.012383
-0.0123399
-0.0122943
-0.0122463
-0.0121961
-0.0121436
-0.0120889
-0.0120322
-0.0119734
-0.0119127
-0.0118502
-0.0117858
-0.0117197
-0.011652
-0.0115827
-0.0115119
-0.0114397
-0.0113662
-0.0112913
-0.0112153
-0.0111381
-0.0110598
-0.0109806
-0.0109004
-0.0108194
-0.0107375
-0.010655
-0.0105718
-0.0104881
-0.0104038
-0.0103191
-0.010234
-0.0101485
-0.0100628
-0.00997695
-0.00989093
-0.00980482
-0.0097187
-0.00963261
-0.00954662
-0.00946079
-0.00937516
-0.00928979
-0.00920474
-0.00912004
-0.00903577
-0.00895196
-0.00886867
-0.00878593
-0.00870381
-0.00862233
-0.00854156
-0.00846152
-0.00838227
-0.00830384
-0.00822628
-0.00814962
-0.0080739
-0.00799915
-0.00792542
-0.00785274
-0.00778114
-0.00771066
-0.00764132
-0.00757317
-0.00750621
-0.0074405
-0.00737605
-0.0073129
-0.00725106
-0.00719056
-0.00713144
-0.0070737
-0.00701738
-0.0069625
-0.00690907
-0.00685712
-0.00680667
-0.00675773
-0.00671033
-0.00666447
-0.00662019
-0.00657748
-0.00653637
-0.00649688
-0.006459
-0.00642277
-0.00638818
-0.00635526
-0.00632401
-0.00629444
-0.00626656
-0.00624038
-0.00621591
-0.00619315
-0.00617212
-0.00615282
-0.00613526
-0.00611943
-0.00610535
-0.00609303
-0.00608245
-0.00607364
-0.00606658
-0.00606129
-0.00605776
-0.00605599
-3.79019e-05
-4.05502e-05
-4.58535e-05
-5.38069e-05
-6.4411e-05
-7.76663e-05
-9.3573e-05
-0.000112131
-0.000133342
-0.000157205
-0.00018372
-0.000212889
-0.000244711
-0.000279187
-0.000316315
-0.000356097
-0.000398532
-0.000443618
-0.000491355
-0.000541742
-0.000594776
-0.000650454
-0.000708775
-0.000769735
-0.000833328
-0.000899551
-0.000968398
-0.00103986
-0.00111393
-0.00119061
-0.00126987
-0.00135172
-0.00143613
-0.0015231
-0.0016126
-0.00170464
-0.00179917
-0.0018962
-0.00199569
-0.00209762
-0.00220197
-0.00230871
-0.00241782
-0.00252925
-0.00264299
-0.00275899
-0.00287721
-0.00299763
-0.00312019
-0.00324485
-0.00337156
-0.00350028
-0.00363095
-0.00376351
-0.00389792
-0.0040341
-0.00417201
-0.00431156
-0.0044527
-0.00459535
-0.00473944
-0.0048849
-0.00503164
-0.00517958
-0.00532864
-0.00547873
-0.00562977
-0.00578165
-0.0059343
-0.00608761
-0.00624148
-0.00639582
-0.00655051
-0.00670547
-0.00686058
-0.00701573
-0.00717083
-0.00732574
-0.00748038
-0.00763462
-0.00778835
-0.00794146
-0.00809384
-0.00824537
-0.00839593
-0.00854542
-0.00869372
-0.00884072
-0.0089863
-0.00913036
-0.00927278
-0.00941346
-0.00955228
-0.00968914
-0.00982395
-0.00995659
-0.010087
-0.010215
-0.0103405
-0.0104636
-0.0105839
-0.0107016
-0.0108165
-0.0109284
-0.0110375
-0.0111434
-0.0112463
-0.011346
-0.0114425
-0.0115357
-0.0116256
-0.0117121
-0.0117952
-0.0118748
-0.0119508
-0.0120234
-0.0120923
-0.0121577
-0.0122195
-0.0122776
-0.0123321
-0.0123829
-0.0124301
-0.0124736
-0.0125135
-0.0125498
-0.0125824
-0.0126114
-0.0126367
-0.0126586
-0.0126768
-0.0126915
-0.0127028
-0.0127106
-0.012715
-0.0127159
-0.0127136
-0.012708
-0.0126991
-0.012687
-0.0126718
-0.0126535
-0.0126322
-0.0126079
-0.0125808
-0.0125507
-0.0125179
-0.0124824
-0.0124442
-0.0124034
-0.0123601
-0.0123144
-0.0122662
-0.0122158
-0.0121632
-0.0121084
-0.0120515
-0.0119925
-0.0119317
-0.0118689
-0.0118044
-0.0117382
-0.0116703
-0.0116008
-0.0115298
-0.0114574
-0.0113837
-0.0113086
-0.0112324
-0.011155
-0.0110765
-0.0109971
-0.0109167
-0.0108355
-0.0107535
-0.0106708
-0.0105874
-0.0105035
-0.010419
-0.0103341
-0.0102488
-0.0101632
-0.0100773
-0.00999126
-0.00990505
-0.00981877
-0.00973247
-0.00964621
-0.00956004
-0.00947403
-0.00938823
-0.0093027
-0.00921747
-0.00913262
-0.00904818
-0.00896421
-0.00888076
-0.00879787
-0.00871559
-0.00863397
-0.00855304
-0.00847286
-0.00839347
-0.0083149
-0.0082372
-0.0081604
-0.00808455
-0.00800968
-0.00793582
-0.00786302
-0.0077913
-0.0077207
-0.00765124
-0.00758297
-0.00751591
-0.00745009
-0.00738554
-0.00732229
-0.00726035
-0.00719976
-0.00714054
-0.00708272
-0.00702632
-0.00697135
-0.00691784
-0.00686582
-0.00681529
-0.00676628
-0.00671881
-0.00667289
-0.00662854
-0.00658577
-0.00654461
-0.00650505
-0.00646713
-0.00643084
-0.00639621
-0.00636324
-0.00633195
-0.00630234
-0.00627442
-0.0062482
-0.0062237
-0.00620092
-0.00617986
-0.00616053
-0.00614294
-0.0061271
-0.006113
-0.00610066
-0.00609007
-0.00608124
-0.00607418
-0.00606888
-0.00606534
-0.00606358
-5.05445e-05
-5.31899e-05
-5.84874e-05
-6.64322e-05
-7.7025e-05
-9.02665e-05
-0.000106157
-0.000124697
-0.000145886
-0.000169725
-0.000196215
-0.000225356
-0.000257148
-0.000291592
-0.000328687
-0.000368434
-0.000410831
-0.00045588
-0.000503577
-0.000553924
-0.000606916
-0.000662553
-0.000720831
-0.000781748
-0.000845299
-0.000911479
-0.000980284
-0.00105171
-0.00112574
-0.00120237
-0.0012816
-0.00136341
-0.00144778
-0.00153472
-0.0016242
-0.0017162
-0.00181071
-0.00190772
-0.00200719
-0.00210911
-0.00221345
-0.00232019
-0.00242929
-0.00254073
-0.00265448
-0.00277049
-0.00288874
-0.00300918
-0.00313177
-0.00325647
-0.00338323
-0.003512
-0.00364273
-0.00377537
-0.00390985
-0.00404612
-0.00418412
-0.00432377
-0.00446502
-0.00460779
-0.004752
-0.00489759
-0.00504447
-0.00519256
-0.00534177
-0.00549203
-0.00564324
-0.00579531
-0.00594814
-0.00610165
-0.00625573
-0.00641028
-0.00656519
-0.00672038
-0.00687572
-0.00703111
-0.00718645
-0.00734162
-0.00749651
-0.00765101
-0.00780501
-0.00795839
-0.00811104
-0.00826285
-0.00841369
-0.00856346
-0.00871205
-0.00885933
-0.0090052
-0.00914954
-0.00929225
-0.00943321
-0.00957232
-0.00970946
-0.00984455
-0.00997746
-0.0101081
-0.0102364
-0.0103622
-0.0104855
-0.0106061
-0.010724
-0.0108391
-0.0109514
-0.0110606
-0.0111668
-0.0112699
-0.0113698
-0.0114665
-0.0115599
-0.01165
-0.0117366
-0.0118198
-0.0118996
-0.0119758
-0.0120485
-0.0121176
-0.012183
-0.0122449
-0.0123031
-0.0123577
-0.0124086
-0.0124558
-0.0124994
-0.0125393
-0.0125756
-0.0126082
-0.0126372
-0.0126626
-0.0126844
-0.0127026
-0.0127173
-0.0127285
-0.0127363
-0.0127406
-0.0127415
-0.0127391
-0.0127334
-0.0127244
-0.0127122
-0.0126969
-0.0126785
-0.0126571
-0.0126327
-0.0126053
-0.0125751
-0.0125422
-0.0125065
-0.0124681
-0.0124272
-0.0123837
-0.0123378
-0.0122895
-0.0122389
-0.0121861
-0.0121311
-0.012074
-0.0120149
-0.0119538
-0.0118909
-0.0118261
-0.0117597
-0.0116916
-0.0116219
-0.0115507
-0.0114781
-0.0114041
-0.0113288
-0.0112524
-0.0111748
-0.0110961
-0.0110164
-0.0109359
-0.0108544
-0.0107722
-0.0106893
-0.0106057
-0.0105215
-0.0104368
-0.0103517
-0.0102662
-0.0101803
-0.0100943
-0.010008
-0.00992155
-0.00983505
-0.00974854
-0.00966208
-0.00957571
-0.0094895
-0.0094035
-0.00931776
-0.00923234
-0.00914729
-0.00906267
-0.00897851
-0.00889487
-0.0088118
-0.00872934
-0.00864754
-0.00856645
-0.0084861
-0.00840653
-0.0083278
-0.00824994
-0.00817298
-0.00809698
-0.00802195
-0.00794795
-0.007875
-0.00780314
-0.0077324
-0.00766282
-0.00759442
-0.00752723
-0.00746129
-0.00739662
-0.00733324
-0.00727119
-0.00721049
-0.00715117
-0.00709324
-0.00703674
-0.00698167
-0.00692807
-0.00687596
-0.00682534
-0.00677625
-0.0067287
-0.0066827
-0.00663828
-0.00659544
-0.00655421
-0.00651459
-0.0064766
-0.00644026
-0.00640557
-0.00637255
-0.0063412
-0.00631155
-0.00628359
-0.00625733
-0.00623279
-0.00620997
-0.00618888
-0.00616952
-0.00615191
-0.00613604
-0.00612192
-0.00610956
-0.00609895
-0.00609011
-0.00608304
-0.00607773
-0.00607419
-0.00607242
-6.5006e-05
-6.76484e-05
-7.29396e-05
-8.08747e-05
-9.14549e-05
-0.000104681
-0.000120553
-0.000139071
-0.000160236
-0.000184049
-0.00021051
-0.000239619
-0.000271377
-0.000305784
-0.000342841
-0.000382548
-0.000424903
-0.000469908
-0.000517561
-0.000567861
-0.000620807
-0.000676396
-0.000734626
-0.000795494
-0.000858996
-0.000925128
-0.000993884
-0.00106526
-0.00113924
-0.00121583
-0.00129502
-0.00137678
-0.00146112
-0.00154802
-0.00163746
-0.00172944
-0.00182392
-0.0019209
-0.00202035
-0.00212226
-0.00222659
-0.00233332
-0.00244242
-0.00255387
-0.00266763
-0.00278366
-0.00290193
-0.00302241
-0.00314504
-0.00326978
-0.0033966
-0.00352543
-0.00365623
-0.00378894
-0.00392351
-0.00405988
-0.00419798
-0.00433775
-0.00447912
-0.00462202
-0.00476638
-0.00491212
-0.00505916
-0.00520742
-0.00535681
-0.00550726
-0.00565867
-0.00581095
-0.005964
-0.00611773
-0.00627205
-0.00642684
-0.00658201
-0.00673745
-0.00689306
-0.00704873
-0.00720435
-0.00735981
-0.00751499
-0.0076698
-0.0078241
-0.00797779
-0.00813075
-0.00828288
-0.00843404
-0.00858414
-0.00873305
-0.00888066
-0.00902685
-0.00917153
-0.00931456
-0.00945585
-0.00959528
-0.00973275
-0.00986815
-0.0100014
-0.0101324
-0.0102609
-0.0103871
-0.0105107
-0.0106316
-0.0107498
-0.0108651
-0.0109776
-0.0110871
-0.0111936
-0.0112969
-0.0113971
-0.011494
-0.0115876
-0.0116779
-0.0117647
-0.0118481
-0.011928
-0.0120044
-0.0120772
-0.0121464
-0.0122121
-0.012274
-0.0123323
-0.012387
-0.012438
-0.0124853
-0.0125289
-0.0125689
-0.0126052
-0.0126378
-0.0126668
-0.0126922
-0.012714
-0.0127322
-0.0127468
-0.012758
-0.0127657
-0.0127699
-0.0127708
-0.0127682
-0.0127624
-0.0127533
-0.0127411
-0.0127256
-0.0127071
-0.0126855
-0.012661
-0.0126335
-0.0126031
-0.01257
-0.0125341
-0.0124956
-0.0124545
-0.0124108
-0.0123647
-0.0123162
-0.0122654
-0.0122123
-0.0121571
-0.0120998
-0.0120404
-0.0119791
-0.011916
-0.011851
-0.0117843
-0.0117159
-0.011646
-0.0115746
-0.0115017
-0.0114275
-0.011352
-0.0112753
-0.0111974
-0.0111185
-0.0110386
-0.0109577
-0.010876
-0.0107936
-0.0107104
-0.0106265
-0.0105421
-0.0104572
-0.0103718
-0.010286
-0.0102
-0.0101136
-0.0100271
-0.00994042
-0.00985368
-0.00976693
-0.00968023
-0.00959362
-0.00950718
-0.00942095
-0.00933499
-0.00924935
-0.00916408
-0.00907923
-0.00899486
-0.00891101
-0.00882773
-0.00874507
-0.00866306
-0.00858177
-0.00850122
-0.00842147
-0.00834255
-0.0082645
-0.00818737
-0.00811119
-0.00803599
-0.00796182
-0.0078887
-0.00781668
-0.00774579
-0.00767605
-0.0076075
-0.00754016
-0.00747408
-0.00740927
-0.00734576
-0.00728358
-0.00722276
-0.00716331
-0.00710527
-0.00704865
-0.00699347
-0.00693977
-0.00688755
-0.00683683
-0.00678764
-0.00674
-0.00669391
-0.0066494
-0.00660649
-0.00656518
-0.00652549
-0.00648743
-0.00645102
-0.00641627
-0.00638318
-0.00635178
-0.00632207
-0.00629406
-0.00626776
-0.00624317
-0.00622031
-0.00619918
-0.00617979
-0.00616215
-0.00614625
-0.00613211
-0.00611972
-0.0061091
-0.00610024
-0.00609316
-0.00608784
-0.00608429
-0.00608252
-8.12926e-05
-8.39315e-05
-8.92156e-05
-9.71402e-05
-0.000107706
-0.000120915
-0.000136766
-0.000155261
-0.000176399
-0.000200182
-0.00022661
-0.000255683
-0.000287403
-0.00032177
-0.000358784
-0.000398445
-0.000440754
-0.00048571
-0.000533313
-0.000583561
-0.000636454
-0.000691989
-0.000750165
-0.000810979
-0.000874426
-0.000940503
-0.00100921
-0.00108053
-0.00115446
-0.001231
-0.00131013
-0.00139185
-0.00147615
-0.001563
-0.00165241
-0.00174435
-0.0018388
-0.00193576
-0.00203519
-0.00213707
-0.00224139
-0.00234812
-0.00245722
-0.00256868
-0.00268245
-0.0027985
-0.0029168
-0.00303731
-0.00315999
-0.00328478
-0.00341166
-0.00354056
-0.00367144
-0.00380425
-0.00393892
-0.00407539
-0.00421361
-0.00435351
-0.00449502
-0.00463807
-0.00478259
-0.0049285
-0.00507572
-0.00522417
-0.00537378
-0.00552444
-0.00567607
-0.00582859
-0.00598188
-0.00613587
-0.00629045
-0.00644552
-0.00660097
-0.00675671
-0.00691262
-0.0070686
-0.00722454
-0.00738033
-0.00753584
-0.00769099
-0.00784563
-0.00799968
-0.008153
-0.00830548
-0.00845701
-0.00860747
-0.00875675
-0.00890473
-0.00905129
-0.00919634
-0.00933974
-0.0094814
-0.0096212
-0.00975903
-0.0098948
-0.0100284
-0.0101597
-0.0102887
-0.0104151
-0.010539
-0.0106603
-0.0107788
-0.0108945
-0.0110073
-0.0111171
-0.0112238
-0.0113274
-0.0114279
-0.011525
-0.0116189
-0.0117094
-0.0117964
-0.01188
-0.0119601
-0.0120367
-0.0121097
-0.0121791
-0.0122448
-0.0123069
-0.0123653
-0.0124201
-0.0124712
-0.0125185
-0.0125622
-0.0126022
-0.0126385
-0.0126712
-0.0127002
-0.0127256
-0.0127473
-0.0127655
-0.0127801
-0.0127912
-0.0127988
-0.012803
-0.0128038
-0.0128011
-0.0127952
-0.012786
-0.0127736
-0.012758
-0.0127393
-0.0127176
-0.0126929
-0.0126652
-0.0126347
-0.0126013
-0.0125653
-0.0125265
-0.0124852
-0.0124413
-0.012395
-0.0123462
-0.0122952
-0.0122419
-0.0121864
-0.0121288
-0.0120692
-0.0120077
-0.0119442
-0.011879
-0.011812
-0.0117434
-0.0116732
-0.0116015
-0.0115283
-0.0114538
-0.0113781
-0.011301
-0.0112229
-0.0111437
-0.0110635
-0.0109824
-0.0109004
-0.0108176
-0.0107342
-0.01065
-0.0105653
-0.0104801
-0.0103944
-0.0103084
-0.010222
-0.0101354
-0.0100486
-0.00996167
-0.00987466
-0.00978764
-0.00970067
-0.0096138
-0.00952709
-0.0094406
-0.00935438
-0.00926849
-0.00918297
-0.00909788
-0.00901326
-0.00892918
-0.00884566