/*--------------------------------*- C++ -*----------------------------------*\
| =========                 |                                                 |
| \\      /  F ield         | OpenFOAM: The Open Source CFD Toolbox           |
|  \\    /   O peration     | Version:  v2012                                 |
|   \\  /    A nd           | Website:  www.openfoam.com                      |
|    \\/     M anipulation  |                                                 |
\*---------------------------------------------------------------------------*/
FoamFile
{
    version     2.0;
    format      ascii;
    class       volVectorField;
    location    "5.5";
    object      Psi;
}
// * * * * * * * * * * * * * * * * * * * * * * * * * * * * * * * * * * * * * //

dimensions      [0 2 -1 0 0 0 0];


internalField   nonuniform List<vector> 
65536
(
(0 0 9.16182e-06)
(0 0 2.74851e-05)
(0 0 4.58074e-05)
(0 0 6.4128e-05)
(0 0 8.24462e-05)
(0 0 0.000100761)
(0 0 0.000119072)
(0 0 0.000137379)
(0 0 0.00015568)
(0 0 0.000173974)
(0 0 0.000192262)
(0 0 0.000210542)
(0 0 0.000228813)
(0 0 0.000247074)
(0 0 0.000265324)
(0 0 0.000283562)
(0 0 0.000301787)
(0 0 0.000319999)
(0 0 0.000338195)
(0 0 0.000356374)
(0 0 0.000374536)
(0 0 0.000392678)
(0 0 0.0004108)
(0 0 0.0004289)
(0 0 0.000446975)
(0 0 0.000465026)
(0 0 0.000483049)
(0 0 0.000501043)
(0 0 0.000519006)
(0 0 0.000536936)
(0 0 0.000554831)
(0 0 0.000572689)
(0 0 0.000590507)
(0 0 0.000608284)
(0 0 0.000626016)
(0 0 0.000643701)
(0 0 0.000661337)
(0 0 0.000678921)
(0 0 0.000696449)
(0 0 0.00071392)
(0 0 0.000731329)
(0 0 0.000748675)
(0 0 0.000765953)
(0 0 0.00078316)
(0 0 0.000800292)
(0 0 0.000817347)
(0 0 0.000834321)
(0 0 0.000851209)
(0 0 0.000868009)
(0 0 0.000884715)
(0 0 0.000901325)
(0 0 0.000917833)
(0 0 0.000934237)
(0 0 0.00095053)
(0 0 0.00096671)
(0 0 0.000982772)
(0 0 0.000998711)
(0 0 0.00101452)
(0 0 0.0010302)
(0 0 0.00104574)
(0 0 0.00106114)
(0 0 0.0010764)
(0 0 0.0010915)
(0 0 0.00110645)
(0 0 0.00112123)
(0 0 0.00113585)
(0 0 0.0011503)
(0 0 0.00116457)
(0 0 0.00117866)
(0 0 0.00119257)
(0 0 0.00120628)
(0 0 0.0012198)
(0 0 0.00123311)
(0 0 0.00124622)
(0 0 0.00125911)
(0 0 0.00127179)
(0 0 0.00128425)
(0 0 0.00129648)
(0 0 0.00130848)
(0 0 0.00132025)
(0 0 0.00133177)
(0 0 0.00134305)
(0 0 0.00135408)
(0 0 0.00136485)
(0 0 0.00137537)
(0 0 0.00138562)
(0 0 0.00139561)
(0 0 0.00140532)
(0 0 0.00141476)
(0 0 0.00142392)
(0 0 0.0014328)
(0 0 0.0014414)
(0 0 0.0014497)
(0 0 0.00145772)
(0 0 0.00146544)
(0 0 0.00147286)
(0 0 0.00147998)
(0 0 0.0014868)
(0 0 0.00149331)
(0 0 0.00149952)
(0 0 0.00150541)
(0 0 0.001511)
(0 0 0.00151627)
(0 0 0.00152123)
(0 0 0.00152588)
(0 0 0.00153021)
(0 0 0.00153422)
(0 0 0.00153791)
(0 0 0.00154129)
(0 0 0.00154435)
(0 0 0.0015471)
(0 0 0.00154952)
(0 0 0.00155163)
(0 0 0.00155342)
(0 0 0.00155489)
(0 0 0.00155605)
(0 0 0.0015569)
(0 0 0.00155743)
(0 0 0.00155766)
(0 0 0.00155757)
(0 0 0.00155717)
(0 0 0.00155647)
(0 0 0.00155547)
(0 0 0.00155416)
(0 0 0.00155255)
(0 0 0.00155065)
(0 0 0.00154845)
(0 0 0.00154596)
(0 0 0.00154318)
(0 0 0.00154012)
(0 0 0.00153678)
(0 0 0.00153315)
(0 0 0.00152925)
(0 0 0.00152508)
(0 0 0.00152063)
(0 0 0.00151592)
(0 0 0.00151095)
(0 0 0.00150572)
(0 0 0.00150024)
(0 0 0.0014945)
(0 0 0.00148852)
(0 0 0.0014823)
(0 0 0.00147583)
(0 0 0.00146913)
(0 0 0.0014622)
(0 0 0.00145505)
(0 0 0.00144767)
(0 0 0.00144007)
(0 0 0.00143225)
(0 0 0.00142423)
(0 0 0.00141599)
(0 0 0.00140756)
(0 0 0.00139892)
(0 0 0.00139009)
(0 0 0.00138107)
(0 0 0.00137187)
(0 0 0.00136248)
(0 0 0.00135291)
(0 0 0.00134317)
(0 0 0.00133326)
(0 0 0.00132318)
(0 0 0.00131293)
(0 0 0.00130253)
(0 0 0.00129198)
(0 0 0.00128127)
(0 0 0.00127041)
(0 0 0.00125941)
(0 0 0.00124827)
(0 0 0.00123699)
(0 0 0.00122558)
(0 0 0.00121404)
(0 0 0.00120237)
(0 0 0.00119057)
(0 0 0.00117866)
(0 0 0.00116663)
(0 0 0.00115449)
(0 0 0.00114224)
(0 0 0.00112988)
(0 0 0.00111741)
(0 0 0.00110485)
(0 0 0.00109219)
(0 0 0.00107943)
(0 0 0.00106658)
(0 0 0.00105364)
(0 0 0.00104061)
(0 0 0.0010275)
(0 0 0.0010143)
(0 0 0.00100103)
(0 0 0.000987682)
(0 0 0.000974259)
(0 0 0.000960764)
(0 0 0.0009472)
(0 0 0.000933569)
(0 0 0.000919873)
(0 0 0.000906114)
(0 0 0.000892295)
(0 0 0.000878417)
(0 0 0.000864484)
(0 0 0.000850495)
(0 0 0.000836455)
(0 0 0.000822363)
(0 0 0.000808223)
(0 0 0.000794037)
(0 0 0.000779805)
(0 0 0.000765529)
(0 0 0.000751212)
(0 0 0.000736855)
(0 0 0.000722459)
(0 0 0.000708026)
(0 0 0.000693557)
(0 0 0.000679054)
(0 0 0.000664519)
(0 0 0.000649952)
(0 0 0.000635354)
(0 0 0.000620728)
(0 0 0.000606075)
(0 0 0.000591395)
(0 0 0.00057669)
(0 0 0.00056196)
(0 0 0.000547208)
(0 0 0.000532434)
(0 0 0.000517638)
(0 0 0.000502823)
(0 0 0.000487989)
(0 0 0.000473136)
(0 0 0.000458267)
(0 0 0.000443381)
(0 0 0.000428479)
(0 0 0.000413563)
(0 0 0.000398633)
(0 0 0.000383689)
(0 0 0.000368733)
(0 0 0.000353765)
(0 0 0.000338786)
(0 0 0.000323797)
(0 0 0.000308798)
(0 0 0.000293789)
(0 0 0.000278772)
(0 0 0.000263747)
(0 0 0.000248714)
(0 0 0.000233674)
(0 0 0.000218628)
(0 0 0.000203575)
(0 0 0.000188517)
(0 0 0.000173454)
(0 0 0.000158386)
(0 0 0.000143314)
(0 0 0.000128238)
(0 0 0.000113159)
(0 0 9.80773e-05)
(0 0 8.29927e-05)
(0 0 6.7906e-05)
(0 0 5.28176e-05)
(0 0 3.77278e-05)
(0 0 2.26371e-05)
(0 0 7.54576e-06)
(0 0 2.74858e-05)
(0 0 8.24564e-05)
(0 0 0.000137424)
(0 0 0.000192386)
(0 0 0.000247342)
(0 0 0.000302287)
(0 0 0.000357221)
(0 0 0.000412141)
(0 0 0.000467045)
(0 0 0.00052193)
(0 0 0.000576794)
(0 0 0.000631634)
(0 0 0.000686447)
(0 0 0.000741231)
(0 0 0.000795983)
(0 0 0.000850699)
(0 0 0.000905376)
(0 0 0.000960011)
(0 0 0.0010146)
(0 0 0.00106914)
(0 0 0.00112363)
(0 0 0.00117806)
(0 0 0.00123242)
(0 0 0.00128672)
(0 0 0.00134095)
(0 0 0.0013951)
(0 0 0.00144917)
(0 0 0.00150316)
(0 0 0.00155705)
(0 0 0.00161084)
(0 0 0.00166453)
(0 0 0.00171811)
(0 0 0.00177156)
(0 0 0.00182489)
(0 0 0.00187809)
(0 0 0.00193115)
(0 0 0.00198406)
(0 0 0.00203682)
(0 0 0.00208941)
(0 0 0.00214182)
(0 0 0.00219405)
(0 0 0.00224609)
(0 0 0.00229793)
(0 0 0.00234955)
(0 0 0.00240095)
(0 0 0.00245212)
(0 0 0.00250305)
(0 0 0.00255372)
(0 0 0.00260412)
(0 0 0.00265424)
(0 0 0.00270408)
(0 0 0.00275361)
(0 0 0.00280282)
(0 0 0.0028517)
(0 0 0.00290025)
(0 0 0.00294844)
(0 0 0.00299626)
(0 0 0.0030437)
(0 0 0.00309074)
(0 0 0.00313737)
(0 0 0.00318358)
(0 0 0.00322935)
(0 0 0.00327466)
(0 0 0.0033195)
(0 0 0.00336387)
(0 0 0.00340773)
(0 0 0.00345108)
(0 0 0.0034939)
(0 0 0.00353617)
(0 0 0.00357789)
(0 0 0.00361903)
(0 0 0.00365959)
(0 0 0.00369953)
(0 0 0.00373886)
(0 0 0.00377756)
(0 0 0.0038156)
(0 0 0.00385298)
(0 0 0.00388968)
(0 0 0.00392568)
(0 0 0.00396098)
(0 0 0.00399556)
(0 0 0.0040294)
(0 0 0.00406249)
(0 0 0.00409481)
(0 0 0.00412636)
(0 0 0.00415713)
(0 0 0.00418709)
(0 0 0.00421624)
(0 0 0.00424456)
(0 0 0.00427205)
(0 0 0.0042987)
(0 0 0.00432448)
(0 0 0.0043494)
(0 0 0.00437345)
(0 0 0.00439661)
(0 0 0.00441887)
(0 0 0.00444024)
(0 0 0.00446069)
(0 0 0.00448023)
(0 0 0.00449885)
(0 0 0.00451655)
(0 0 0.00453331)
(0 0 0.00454913)
(0 0 0.00456401)
(0 0 0.00457795)
(0 0 0.00459093)
(0 0 0.00460297)
(0 0 0.00461406)
(0 0 0.00462419)
(0 0 0.00463338)
(0 0 0.0046416)
(0 0 0.00464888)
(0 0 0.0046552)
(0 0 0.00466057)
(0 0 0.004665)
(0 0 0.00466847)
(0 0 0.00467101)
(0 0 0.00467261)
(0 0 0.00467328)
(0 0 0.00467301)
(0 0 0.00467182)
(0 0 0.00466972)
(0 0 0.0046667)
(0 0 0.00466277)
(0 0 0.00465795)
(0 0 0.00465224)
(0 0 0.00464565)
(0 0 0.00463818)
(0 0 0.00462984)
(0 0 0.00462065)
(0 0 0.00461061)
(0 0 0.00459973)
(0 0 0.00458802)
(0 0 0.0045755)
(0 0 0.00456216)
(0 0 0.00454803)
(0 0 0.00453312)
(0 0 0.00451743)
(0 0 0.00450097)
(0 0 0.00448376)
(0 0 0.00446581)
(0 0 0.00444713)
(0 0 0.00442774)
(0 0 0.00440764)
(0 0 0.00438684)
(0 0 0.00436536)
(0 0 0.00434322)
(0 0 0.00432041)
(0 0 0.00429696)
(0 0 0.00427288)
(0 0 0.00424818)
(0 0 0.00422287)
(0 0 0.00419696)
(0 0 0.00417047)
(0 0 0.00414341)
(0 0 0.00411579)
(0 0 0.00408762)
(0 0 0.00405891)
(0 0 0.00402968)
(0 0 0.00399994)
(0 0 0.0039697)
(0 0 0.00393896)
(0 0 0.00390776)
(0 0 0.00387608)
(0 0 0.00384395)
(0 0 0.00381138)
(0 0 0.00377837)
(0 0 0.00374494)
(0 0 0.0037111)
(0 0 0.00367686)
(0 0 0.00364223)
(0 0 0.00360722)
(0 0 0.00357184)
(0 0 0.0035361)
(0 0 0.00350001)
(0 0 0.00346358)
(0 0 0.00342682)
(0 0 0.00338974)
(0 0 0.00335235)
(0 0 0.00331465)
(0 0 0.00327666)
(0 0 0.00323838)
(0 0 0.00319982)
(0 0 0.003161)
(0 0 0.00312191)
(0 0 0.00308257)
(0 0 0.00304299)
(0 0 0.00300317)
(0 0 0.00296312)
(0 0 0.00292285)
(0 0 0.00288236)
(0 0 0.00284167)
(0 0 0.00280077)
(0 0 0.00275968)
(0 0 0.0027184)
(0 0 0.00267694)
(0 0 0.00263531)
(0 0 0.00259351)
(0 0 0.00255154)
(0 0 0.00250942)
(0 0 0.00246714)
(0 0 0.00242472)
(0 0 0.00238216)
(0 0 0.00233946)
(0 0 0.00229663)
(0 0 0.00225368)
(0 0 0.0022106)
(0 0 0.00216741)
(0 0 0.00212411)
(0 0 0.00208071)
(0 0 0.0020372)
(0 0 0.00199359)
(0 0 0.00194989)
(0 0 0.00190609)
(0 0 0.00186221)
(0 0 0.00181825)
(0 0 0.00177421)
(0 0 0.00173009)
(0 0 0.00168591)
(0 0 0.00164165)
(0 0 0.00159732)
(0 0 0.00155294)
(0 0 0.00150849)
(0 0 0.00146399)
(0 0 0.00141943)
(0 0 0.00137482)
(0 0 0.00133016)
(0 0 0.00128545)
(0 0 0.0012407)
(0 0 0.00119591)
(0 0 0.00115108)
(0 0 0.00110621)
(0 0 0.00106131)
(0 0 0.00101637)
(0 0 0.000971402)
(0 0 0.000926403)
(0 0 0.000881377)
(0 0 0.000836325)
(0 0 0.000791248)
(0 0 0.000746149)
(0 0 0.000701029)
(0 0 0.000655889)
(0 0 0.000610731)
(0 0 0.000565556)
(0 0 0.000520367)
(0 0 0.000475163)
(0 0 0.000429946)
(0 0 0.000384719)
(0 0 0.000339481)
(0 0 0.000294235)
(0 0 0.00024898)
(0 0 0.00020372)
(0 0 0.000158454)
(0 0 0.000113184)
(0 0 6.79118e-05)
(0 0 2.26375e-05)
(0 0 4.58108e-05)
(0 0 0.000137431)
(0 0 0.000229046)
(0 0 0.000320652)
(0 0 0.000412247)
(0 0 0.000503825)
(0 0 0.000595385)
(0 0 0.000686921)
(0 0 0.00077843)
(0 0 0.000869908)
(0 0 0.00096135)
(0 0 0.00105275)
(0 0 0.00114411)
(0 0 0.00123542)
(0 0 0.00132668)
(0 0 0.00141788)
(0 0 0.00150901)
(0 0 0.00160007)
(0 0 0.00169106)
(0 0 0.00178196)
(0 0 0.00187278)
(0 0 0.0019635)
(0 0 0.00205411)
(0 0 0.00214462)
(0 0 0.002235)
(0 0 0.00232526)
(0 0 0.00241539)
(0 0 0.00250537)
(0 0 0.00259519)
(0 0 0.00268486)
(0 0 0.00277434)
(0 0 0.00286364)
(0 0 0.00295275)
(0 0 0.00304164)
(0 0 0.00313031)
(0 0 0.00321875)
(0 0 0.00330695)
(0 0 0.00339488)
(0 0 0.00348254)
(0 0 0.00356991)
(0 0 0.00365697)
(0 0 0.00374371)
(0 0 0.00383012)
(0 0 0.00391617)
(0 0 0.00400185)
(0 0 0.00408715)
(0 0 0.00417203)
(0 0 0.00425649)
(0 0 0.00434051)
(0 0 0.00442406)
(0 0 0.00450713)
(0 0 0.0045897)
(0 0 0.00467173)
(0 0 0.00475322)
(0 0 0.00483415)
(0 0 0.00491448)
(0 0 0.00499419)
(0 0 0.00507327)
(0 0 0.00515169)
(0 0 0.00522943)
(0 0 0.00530645)
(0 0 0.00538275)
(0 0 0.00545829)
(0 0 0.00553305)
(0 0 0.005607)
(0 0 0.00568012)
(0 0 0.00575239)
(0 0 0.00582377)
(0 0 0.00589425)
(0 0 0.00596379)
(0 0 0.00603238)
(0 0 0.00609999)
(0 0 0.00616658)
(0 0 0.00623215)
(0 0 0.00629665)
(0 0 0.00636007)
(0 0 0.00642239)
(0 0 0.00648357)
(0 0 0.0065436)
(0 0 0.00660244)
(0 0 0.00666008)
(0 0 0.0067165)
(0 0 0.00677166)
(0 0 0.00682555)
(0 0 0.00687815)
(0 0 0.00692944)
(0 0 0.00697939)
(0 0 0.00702798)
(0 0 0.0070752)
(0 0 0.00712103)
(0 0 0.00716545)
(0 0 0.00720844)
(0 0 0.00724998)
(0 0 0.00729006)
(0 0 0.00732867)
(0 0 0.00736579)
(0 0 0.00740141)
(0 0 0.00743551)
(0 0 0.00746809)
(0 0 0.00749912)
(0 0 0.00752862)
(0 0 0.00755656)
(0 0 0.00758293)
(0 0 0.00760774)
(0 0 0.00763097)
(0 0 0.00765262)
(0 0 0.00767268)
(0 0 0.00769116)
(0 0 0.00770806)
(0 0 0.00772336)
(0 0 0.00773707)
(0 0 0.00774919)
(0 0 0.00775973)
(0 0 0.00776868)
(0 0 0.00777605)
(0 0 0.00778184)
(0 0 0.00778607)
(0 0 0.00778873)
(0 0 0.00778983)
(0 0 0.00778938)
(0 0 0.0077874)
(0 0 0.00778388)
(0 0 0.00777884)
(0 0 0.00777229)
(0 0 0.00776425)
(0 0 0.00775472)
(0 0 0.00774372)
(0 0 0.00773126)
(0 0 0.00771736)
(0 0 0.00770203)
(0 0 0.00768528)
(0 0 0.00766714)
(0 0 0.00764762)
(0 0 0.00762673)
(0 0 0.0076045)
(0 0 0.00758093)
(0 0 0.00755606)
(0 0 0.0075299)
(0 0 0.00750246)
(0 0 0.00747376)
(0 0 0.00744384)
(0 0 0.00741269)
(0 0 0.00738035)
(0 0 0.00734684)
(0 0 0.00731216)
(0 0 0.00727635)
(0 0 0.00723943)
(0 0 0.00720141)
(0 0 0.00716232)
(0 0 0.00712217)
(0 0 0.00708098)
(0 0 0.00703878)
(0 0 0.00699559)
(0 0 0.00695143)
(0 0 0.00690631)
(0 0 0.00686026)
(0 0 0.0068133)
(0 0 0.00676544)
(0 0 0.00671671)
(0 0 0.00666713)
(0 0 0.00661671)
(0 0 0.00656548)
(0 0 0.00651345)
(0 0 0.00646064)
(0 0 0.00640708)
(0 0 0.00635278)
(0 0 0.00629776)
(0 0 0.00624203)
(0 0 0.00618562)
(0 0 0.00612854)
(0 0 0.00607081)
(0 0 0.00601245)
(0 0 0.00595348)
(0 0 0.0058939)
(0 0 0.00583374)
(0 0 0.00577301)
(0 0 0.00571173)
(0 0 0.00564992)
(0 0 0.00558758)
(0 0 0.00552474)
(0 0 0.00546141)
(0 0 0.00539761)
(0 0 0.00533334)
(0 0 0.00526862)
(0 0 0.00520347)
(0 0 0.0051379)
(0 0 0.00507192)
(0 0 0.00500555)
(0 0 0.00493879)
(0 0 0.00487166)
(0 0 0.00480417)
(0 0 0.00473634)
(0 0 0.00466817)
(0 0 0.00459968)
(0 0 0.00453088)
(0 0 0.00446177)
(0 0 0.00439238)
(0 0 0.0043227)
(0 0 0.00425274)
(0 0 0.00418253)
(0 0 0.00411207)
(0 0 0.00404136)
(0 0 0.00397041)
(0 0 0.00389925)
(0 0 0.00382786)
(0 0 0.00375627)
(0 0 0.00368447)
(0 0 0.00361248)
(0 0 0.00354031)
(0 0 0.00346796)
(0 0 0.00339544)
(0 0 0.00332275)
(0 0 0.00324991)
(0 0 0.00317692)
(0 0 0.00310378)
(0 0 0.00303051)
(0 0 0.00295711)
(0 0 0.00288357)
(0 0 0.00280992)
(0 0 0.00273615)
(0 0 0.00266228)
(0 0 0.0025883)
(0 0 0.00251421)
(0 0 0.00244004)
(0 0 0.00236577)
(0 0 0.00229142)
(0 0 0.00221698)
(0 0 0.00214247)
(0 0 0.00206789)
(0 0 0.00199323)
(0 0 0.00191851)
(0 0 0.00184373)
(0 0 0.00176888)
(0 0 0.00169399)
(0 0 0.00161904)
(0 0 0.00154404)
(0 0 0.00146899)
(0 0 0.0013939)
(0 0 0.00131877)
(0 0 0.00124361)
(0 0 0.0011684)
(0 0 0.00109317)
(0 0 0.0010179)
(0 0 0.000942612)
(0 0 0.000867294)
(0 0 0.000791953)
(0 0 0.00071659)
(0 0 0.00064121)
(0 0 0.000565812)
(0 0 0.0004904)
(0 0 0.000414975)
(0 0 0.000339539)
(0 0 0.000264095)
(0 0 0.000188644)
(0 0 0.000113188)
(0 0 3.77298e-05)
(0 0 6.41376e-05)
(0 0 0.000192411)
(0 0 0.000320677)
(0 0 0.000448931)
(0 0 0.000577168)
(0 0 0.000705384)
(0 0 0.000833572)
(0 0 0.000961728)
(0 0 0.00108985)
(0 0 0.00121792)
(0 0 0.00134595)
(0 0 0.00147392)
(0 0 0.00160183)
(0 0 0.00172967)
(0 0 0.00185743)
(0 0 0.00198512)
(0 0 0.00211271)
(0 0 0.00224021)
(0 0 0.0023676)
(0 0 0.00249487)
(0 0 0.00262202)
(0 0 0.00274904)
(0 0 0.00287591)
(0 0 0.00300263)
(0 0 0.00312919)
(0 0 0.00325556)
(0 0 0.00338175)
(0 0 0.00350774)
(0 0 0.00363351)
(0 0 0.00375905)
(0 0 0.00388434)
(0 0 0.00400938)
(0 0 0.00413414)
(0 0 0.00425861)
(0 0 0.00438277)
(0 0 0.00450661)
(0 0 0.0046301)
(0 0 0.00475322)
(0 0 0.00487596)
(0 0 0.0049983)
(0 0 0.00512021)
(0 0 0.00524167)
(0 0 0.00536267)
(0 0 0.00548316)
(0 0 0.00560314)
(0 0 0.00572258)
(0 0 0.00584145)
(0 0 0.00595972)
(0 0 0.00607737)
(0 0 0.00619437)
(0 0 0.0063107)
(0 0 0.00642632)
(0 0 0.0065412)
(0 0 0.00665532)
(0 0 0.00676864)
(0 0 0.00688113)
(0 0 0.00699277)
(0 0 0.00710351)
(0 0 0.00721333)
(0 0 0.0073222)
(0 0 0.00743007)
(0 0 0.00753692)
(0 0 0.00764271)
(0 0 0.0077474)
(0 0 0.00785097)
(0 0 0.00795338)
(0 0 0.00805458)
(0 0 0.00815456)
(0 0 0.00825326)
(0 0 0.00835066)
(0 0 0.00844672)
(0 0 0.0085414)
(0 0 0.00863467)
(0 0 0.0087265)
(0 0 0.00881684)
(0 0 0.00890566)
(0 0 0.00899294)
(0 0 0.00907863)
(0 0 0.0091627)
(0 0 0.00924511)
(0 0 0.00932584)
(0 0 0.00940485)
(0 0 0.00948212)
(0 0 0.0095576)
(0 0 0.00963127)
(0 0 0.00970309)
(0 0 0.00977305)
(0 0 0.00984111)
(0 0 0.00990725)
(0 0 0.00997143)
(0 0 0.0100336)
(0 0 0.0100938)
(0 0 0.010152)
(0 0 0.0102082)
(0 0 0.0102622)
(0 0 0.0103142)
(0 0 0.0103641)
(0 0 0.0104119)
(0 0 0.0104575)
(0 0 0.0105009)
(0 0 0.0105423)
(0 0 0.0105814)
(0 0 0.0106183)
(0 0 0.010653)
(0 0 0.0106856)
(0 0 0.0107159)
(0 0 0.010744)
(0 0 0.0107699)
(0 0 0.0107935)
(0 0 0.0108149)
(0 0 0.0108341)
(0 0 0.0108511)
(0 0 0.0108658)
(0 0 0.0108784)
(0 0 0.0108887)
(0 0 0.0108968)
(0 0 0.0109027)
(0 0 0.0109064)
(0 0 0.0109079)
(0 0 0.0109073)
(0 0 0.0109045)
(0 0 0.0108996)
(0 0 0.0108925)
(0 0 0.0108833)
(0 0 0.010872)
(0 0 0.0108587)
(0 0 0.0108433)
(0 0 0.0108258)
(0 0 0.0108063)
(0 0 0.0107848)
(0 0 0.0107614)
(0 0 0.0107359)
(0 0 0.0107086)
(0 0 0.0106793)
(0 0 0.0106482)
(0 0 0.0106152)
(0 0 0.0105803)
(0 0 0.0105436)
(0 0 0.0105052)
(0 0 0.010465)
(0 0 0.0104231)
(0 0 0.0103795)
(0 0 0.0103342)
(0 0 0.0102872)
(0 0 0.0102386)
(0 0 0.0101885)
(0 0 0.0101367)
(0 0 0.0100835)
(0 0 0.0100287)
(0 0 0.00997249)
(0 0 0.00991481)
(0 0 0.0098557)
(0 0 0.0097952)
(0 0 0.00973335)
(0 0 0.00967015)
(0 0 0.00960565)
(0 0 0.00953988)
(0 0 0.00947285)
(0 0 0.0094046)
(0 0 0.00933516)
(0 0 0.00926454)
(0 0 0.00919279)
(0 0 0.00911993)
(0 0 0.00904597)
(0 0 0.00897096)
(0 0 0.00889491)
(0 0 0.00881786)
(0 0 0.00873981)
(0 0 0.00866081)
(0 0 0.00858088)
(0 0 0.00850004)
(0 0 0.00841831)
(0 0 0.00833571)
(0 0 0.00825228)
(0 0 0.00816804)
(0 0 0.008083)
(0 0 0.00799719)
(0 0 0.00791062)
(0 0 0.00782334)
(0 0 0.00773534)
(0 0 0.00764666)
(0 0 0.00755731)
(0 0 0.00746731)
(0 0 0.00737669)
(0 0 0.00728546)
(0 0 0.00719364)
(0 0 0.00710125)
(0 0 0.00700831)
(0 0 0.00691483)
(0 0 0.00682084)
(0 0 0.00672634)
(0 0 0.00663136)
(0 0 0.00653591)
(0 0 0.00644)
(0 0 0.00634366)
(0 0 0.0062469)
(0 0 0.00614973)
(0 0 0.00605216)
(0 0 0.00595422)
(0 0 0.00585591)
(0 0 0.00575724)
(0 0 0.00565824)
(0 0 0.0055589)
(0 0 0.00545926)
(0 0 0.0053593)
(0 0 0.00525906)
(0 0 0.00515854)
(0 0 0.00505774)
(0 0 0.00495669)
(0 0 0.00485539)
(0 0 0.00475385)
(0 0 0.00465208)
(0 0 0.0045501)
(0 0 0.0044479)
(0 0 0.0043455)
(0 0 0.00424291)
(0 0 0.00414013)
(0 0 0.00403718)
(0 0 0.00393406)
(0 0 0.00383077)
(0 0 0.00372734)
(0 0 0.00362376)
(0 0 0.00352004)
(0 0 0.00341618)
(0 0 0.0033122)
(0 0 0.0032081)
(0 0 0.00310389)
(0 0 0.00299957)
(0 0 0.00289514)
(0 0 0.00279062)
(0 0 0.00268601)
(0 0 0.0025813)
(0 0 0.00247652)
(0 0 0.00237166)
(0 0 0.00226672)
(0 0 0.00216172)
(0 0 0.00205665)
(0 0 0.00195152)
(0 0 0.00184634)
(0 0 0.0017411)
(0 0 0.00163581)
(0 0 0.00153048)
(0 0 0.00142511)
(0 0 0.00131969)
(0 0 0.00121425)
(0 0 0.00110876)
(0 0 0.00100325)
(0 0 0.000897718)
(0 0 0.000792158)
(0 0 0.000686578)
(0 0 0.00058098)
(0 0 0.000475368)
(0 0 0.000369743)
(0 0 0.000264109)
(0 0 0.000158468)
(0 0 5.28231e-05)
(0 0 8.2467e-05)
(0 0 0.000247398)
(0 0 0.00041232)
(0 0 0.000577227)
(0 0 0.000742112)
(0 0 0.00090697)
(0 0 0.00107179)
(0 0 0.00123657)
(0 0 0.00140131)
(0 0 0.00156599)
(0 0 0.0017306)
(0 0 0.00189515)
(0 0 0.00205961)
(0 0 0.00222399)
(0 0 0.00238827)
(0 0 0.00255245)
(0 0 0.00271651)
(0 0 0.00288045)
(0 0 0.00304425)
(0 0 0.00320791)
(0 0 0.00337141)
(0 0 0.00353473)
(0 0 0.00369787)
(0 0 0.00386082)
(0 0 0.00402355)
(0 0 0.00418606)
(0 0 0.00434832)
(0 0 0.00451032)
(0 0 0.00467205)
(0 0 0.00483348)
(0 0 0.0049946)
(0 0 0.00515539)
(0 0 0.00531583)
(0 0 0.00547589)
(0 0 0.00563556)
(0 0 0.00579481)
(0 0 0.00595361)
(0 0 0.00611195)
(0 0 0.0062698)
(0 0 0.00642713)
(0 0 0.00658391)
(0 0 0.00674011)
(0 0 0.00689571)
(0 0 0.00705068)
(0 0 0.00720498)
(0 0 0.00735859)
(0 0 0.00751146)
(0 0 0.00766357)
(0 0 0.00781489)
(0 0 0.00796536)
(0 0 0.00811497)
(0 0 0.00826368)
(0 0 0.00841144)
(0 0 0.00855821)
(0 0 0.00870396)
(0 0 0.00884865)
(0 0 0.00899224)
(0 0 0.00913468)
(0 0 0.00927594)
(0 0 0.00941596)
(0 0 0.00955471)
(0 0 0.00969215)
(0 0 0.00982822)
(0 0 0.00996289)
(0 0 0.0100961)
(0 0 0.0102278)
(0 0 0.010358)
(0 0 0.0104866)
(0 0 0.0106136)
(0 0 0.0107389)
(0 0 0.0108624)
(0 0 0.0109842)
(0 0 0.0111042)
(0 0 0.0112223)
(0 0 0.0113386)
(0 0 0.0114528)
(0 0 0.0115651)
(0 0 0.0116753)
(0 0 0.0117835)
(0 0 0.0118895)
(0 0 0.0119933)
(0 0 0.012095)
(0 0 0.0121944)
(0 0 0.0122915)
(0 0 0.0123862)
(0 0 0.0124786)
(0 0 0.0125686)
(0 0 0.0126562)
(0 0 0.0127413)
(0 0 0.0128238)
(0 0 0.0129038)
(0 0 0.0129813)
(0 0 0.0130561)
(0 0 0.0131283)
(0 0 0.0131979)
(0 0 0.0132648)
(0 0 0.0133289)
(0 0 0.0133904)
(0 0 0.013449)
(0 0 0.013505)
(0 0 0.0135581)
(0 0 0.0136084)
(0 0 0.0136559)
(0 0 0.0137006)
(0 0 0.0137424)
(0 0 0.0137814)
(0 0 0.0138175)
(0 0 0.0138508)
(0 0 0.0138812)
(0 0 0.0139088)
(0 0 0.0139334)
(0 0 0.0139552)
(0 0 0.0139742)
(0 0 0.0139903)
(0 0 0.0140035)
(0 0 0.0140139)
(0 0 0.0140215)
(0 0 0.0140263)
(0 0 0.0140282)
(0 0 0.0140274)
(0 0 0.0140238)
(0 0 0.0140174)
(0 0 0.0140083)
(0 0 0.0139965)
(0 0 0.0139819)
(0 0 0.0139647)
(0 0 0.0139449)
(0 0 0.0139224)
(0 0 0.0138973)
(0 0 0.0138696)
(0 0 0.0138394)
(0 0 0.0138067)
(0 0 0.0137715)
(0 0 0.0137338)
(0 0 0.0136937)
(0 0 0.0136512)
(0 0 0.0136064)
(0 0 0.0135592)
(0 0 0.0135097)
(0 0 0.013458)
(0 0 0.013404)
(0 0 0.0133479)
(0 0 0.0132896)
(0 0 0.0132292)
(0 0 0.0131667)
(0 0 0.0131022)
(0 0 0.0130356)
(0 0 0.0129671)
(0 0 0.0128966)
(0 0 0.0128243)
(0 0 0.0127501)
(0 0 0.012674)
(0 0 0.0125962)
(0 0 0.0125166)
(0 0 0.0124353)
(0 0 0.0123523)
(0 0 0.0122677)
(0 0 0.0121815)
(0 0 0.0120937)
(0 0 0.0120044)
(0 0 0.0119135)
(0 0 0.0118212)
(0 0 0.0117275)
(0 0 0.0116324)
(0 0 0.0115359)
(0 0 0.0114381)
(0 0 0.0113389)
(0 0 0.0112386)
(0 0 0.011137)
(0 0 0.0110341)
(0 0 0.0109302)
(0 0 0.010825)
(0 0 0.0107188)
(0 0 0.0106115)
(0 0 0.0105031)
(0 0 0.0103938)
(0 0 0.0102834)
(0 0 0.0101721)
(0 0 0.0100598)
(0 0 0.00994663)
(0 0 0.00983257)
(0 0 0.00971766)
(0 0 0.00960192)
(0 0 0.00948537)
(0 0 0.00936805)
(0 0 0.00924996)
(0 0 0.00913114)
(0 0 0.00901162)
(0 0 0.0088914)
(0 0 0.00877052)
(0 0 0.008649)
(0 0 0.00852685)
(0 0 0.0084041)
(0 0 0.00828077)
(0 0 0.00815688)
(0 0 0.00803244)
(0 0 0.00790748)
(0 0 0.00778202)
(0 0 0.00765606)
(0 0 0.00752964)
(0 0 0.00740276)
(0 0 0.00727545)
(0 0 0.00714772)
(0 0 0.00701958)
(0 0 0.00689105)
(0 0 0.00676214)
(0 0 0.00663288)
(0 0 0.00650327)
(0 0 0.00637333)
(0 0 0.00624307)
(0 0 0.0061125)
(0 0 0.00598164)
(0 0 0.00585049)
(0 0 0.00571908)
(0 0 0.00558741)
(0 0 0.00545549)
(0 0 0.00532334)
(0 0 0.00519095)
(0 0 0.00505836)
(0 0 0.00492555)
(0 0 0.00479255)
(0 0 0.00465937)
(0 0 0.004526)
(0 0 0.00439246)
(0 0 0.00425876)
(0 0 0.00412491)
(0 0 0.00399091)
(0 0 0.00385677)
(0 0 0.0037225)
(0 0 0.00358811)
(0 0 0.00345359)
(0 0 0.00331897)
(0 0 0.00318424)
(0 0 0.00304941)
(0 0 0.00291448)
(0 0 0.00277947)
(0 0 0.00264437)
(0 0 0.0025092)
(0 0 0.00237396)
(0 0 0.00223865)
(0 0 0.00210327)
(0 0 0.00196784)
(0 0 0.00183235)
(0 0 0.00169681)
(0 0 0.00156123)
(0 0 0.00142561)
(0 0 0.00128995)
(0 0 0.00115425)
(0 0 0.00101853)
(0 0 0.000882775)
(0 0 0.000747001)
(0 0 0.000611209)
(0 0 0.0004754)
(0 0 0.00033958)
(0 0 0.000203752)
(0 0 6.79178e-05)
(0 0 0.000100799)
(0 0 0.000302395)
(0 0 0.000503979)
(0 0 0.000705545)
(0 0 0.000907085)
(0 0 0.00110859)
(0 0 0.00131006)
(0 0 0.00151147)
(0 0 0.00171283)
(0 0 0.00191411)
(0 0 0.00211533)
(0 0 0.00231645)
(0 0 0.00251749)
(0 0 0.00271841)
(0 0 0.00291922)
(0 0 0.0031199)
(0 0 0.00332045)
(0 0 0.00352084)
(0 0 0.00372106)
(0 0 0.00392111)
(0 0 0.00412096)
(0 0 0.00432061)
(0 0 0.00452003)
(0 0 0.00471922)
(0 0 0.00491814)
(0 0 0.00511679)
(0 0 0.00531515)
(0 0 0.00551319)
(0 0 0.00571089)
(0 0 0.00590824)
(0 0 0.0061052)
(0 0 0.00630177)
(0 0 0.0064979)
(0 0 0.00669358)
(0 0 0.00688877)
(0 0 0.00708346)
(0 0 0.0072776)
(0 0 0.00747118)
(0 0 0.00766416)
(0 0 0.0078565)
(0 0 0.00804818)
(0 0 0.00823916)
(0 0 0.0084294)
(0 0 0.00861887)
(0 0 0.00880752)
(0 0 0.00899533)
(0 0 0.00918225)
(0 0 0.00936823)
(0 0 0.00955324)
(0 0 0.00973723)
(0 0 0.00992017)
(0 0 0.010102)
(0 0 0.0102827)
(0 0 0.0104621)
(0 0 0.0106404)
(0 0 0.0108173)
(0 0 0.0109929)
(0 0 0.011167)
(0 0 0.0113398)
(0 0 0.011511)
(0 0 0.0116807)
(0 0 0.0118488)
(0 0 0.0120152)
(0 0 0.0121798)
(0 0 0.0123428)
(0 0 0.0125039)
(0 0 0.0126631)
(0 0 0.0128203)
(0 0 0.0129756)
(0 0 0.0131288)
(0 0 0.0132799)
(0 0 0.0134289)
(0 0 0.0135756)
(0 0 0.0137201)
(0 0 0.0138622)
(0 0 0.014002)
(0 0 0.0141393)
(0 0 0.0142741)
(0 0 0.0144064)
(0 0 0.014536)
(0 0 0.014663)
(0 0 0.0147874)
(0 0 0.0149089)
(0 0 0.0150277)
(0 0 0.0151436)
(0 0 0.0152566)
(0 0 0.0153666)
(0 0 0.0154737)
(0 0 0.0155778)
(0 0 0.0156788)
(0 0 0.0157766)
(0 0 0.0158713)
(0 0 0.0159629)
(0 0 0.0160512)
(0 0 0.0161363)
(0 0 0.016218)
(0 0 0.0162965)
(0 0 0.0163716)
(0 0 0.0164434)
(0 0 0.0165118)
(0 0 0.0165767)
(0 0 0.0166382)
(0 0 0.0166963)
(0 0 0.016751)
(0 0 0.0168021)
(0 0 0.0168498)
(0 0 0.0168939)
(0 0 0.0169346)
(0 0 0.0169718)
(0 0 0.0170055)
(0 0 0.0170356)
(0 0 0.0170623)
(0 0 0.0170854)
(0 0 0.0171051)
(0 0 0.0171213)
(0 0 0.017134)
(0 0 0.0171432)
(0 0 0.017149)
(0 0 0.0171513)
(0 0 0.0171503)
(0 0 0.0171458)
(0 0 0.017138)
(0 0 0.0171268)
(0 0 0.0171123)
(0 0 0.0170945)
(0 0 0.0170734)
(0 0 0.0170491)
(0 0 0.0170216)
(0 0 0.0169908)
(0 0 0.016957)
(0 0 0.01692)
(0 0 0.0168799)
(0 0 0.0168368)
(0 0 0.0167907)
(0 0 0.0167417)
(0 0 0.0166897)
(0 0 0.0166348)
(0 0 0.0165771)
(0 0 0.0165165)
(0 0 0.0164532)
(0 0 0.0163872)
(0 0 0.0163185)
(0 0 0.0162472)
(0 0 0.0161733)
(0 0 0.0160968)
(0 0 0.0160179)
(0 0 0.0159365)
(0 0 0.0158526)
(0 0 0.0157664)
(0 0 0.0156779)
(0 0 0.0155872)
(0 0 0.0154941)
(0 0 0.0153989)
(0 0 0.0153016)
(0 0 0.0152022)
(0 0 0.0151007)
(0 0 0.0149972)
(0 0 0.0148917)
(0 0 0.0147843)
(0 0 0.0146751)
(0 0 0.014564)
(0 0 0.0144511)
(0 0 0.0143365)
(0 0 0.0142202)
(0 0 0.0141022)
(0 0 0.0139825)
(0 0 0.0138613)
(0 0 0.0137386)
(0 0 0.0136143)
(0 0 0.0134886)
(0 0 0.0133614)
(0 0 0.0132329)
(0 0 0.013103)
(0 0 0.0129718)
(0 0 0.0128393)
(0 0 0.0127055)
(0 0 0.0125706)
(0 0 0.0124345)
(0 0 0.0122972)
(0 0 0.0121588)
(0 0 0.0120194)
(0 0 0.0118789)
(0 0 0.0117373)
(0 0 0.0115949)
(0 0 0.0114514)
(0 0 0.011307)
(0 0 0.0111618)
(0 0 0.0110156)
(0 0 0.0108686)
(0 0 0.0107209)
(0 0 0.0105723)
(0 0 0.010423)
(0 0 0.0102729)
(0 0 0.0101221)
(0 0 0.00997064)
(0 0 0.00981852)
(0 0 0.00966575)
(0 0 0.00951237)
(0 0 0.00935839)
(0 0 0.00920384)
(0 0 0.00904873)
(0 0 0.00889309)
(0 0 0.00873694)
(0 0 0.0085803)
(0 0 0.00842317)
(0 0 0.0082656)
(0 0 0.00810758)
(0 0 0.00794914)
(0 0 0.00779029)
(0 0 0.00763105)
(0 0 0.00747145)
(0 0 0.00731148)
(0 0 0.00715117)
(0 0 0.00699053)
(0 0 0.00682957)
(0 0 0.00666832)
(0 0 0.00650677)
(0 0 0.00634495)
(0 0 0.00618287)
(0 0 0.00602053)
(0 0 0.00585796)
(0 0 0.00569516)
(0 0 0.00553213)
(0 0 0.00536891)
(0 0 0.00520548)
(0 0 0.00504186)
(0 0 0.00487807)
(0 0 0.00471411)
(0 0 0.00454999)
(0 0 0.00438571)
(0 0 0.00422129)
(0 0 0.00405674)
(0 0 0.00389205)
(0 0 0.00372725)
(0 0 0.00356233)
(0 0 0.00339731)
(0 0 0.00323218)
(0 0 0.00306696)
(0 0 0.00290165)
(0 0 0.00273626)
(0 0 0.00257079)
(0 0 0.00240525)
(0 0 0.00223964)
(0 0 0.00207398)
(0 0 0.00190826)
(0 0 0.00174249)
(0 0 0.00157667)
(0 0 0.00141081)
(0 0 0.00124492)
(0 0 0.00107899)
(0 0 0.000913042)
(0 0 0.000747066)
(0 0 0.000581071)
(0 0 0.000415061)
(0 0 0.000249041)
(0 0 8.30142e-05)
(0 0 0.000119136)
(0 0 0.000357403)
(0 0 0.000595658)
(0 0 0.000833891)
(0 0 0.00107209)
(0 0 0.00131026)
(0 0 0.00154837)
(0 0 0.00178643)
(0 0 0.00202441)
(0 0 0.00226232)
(0 0 0.00250014)
(0 0 0.00273786)
(0 0 0.00297547)
(0 0 0.00321295)
(0 0 0.0034503)
(0 0 0.0036875)
(0 0 0.00392453)
(0 0 0.00416139)
(0 0 0.00439805)
(0 0 0.0046345)
(0 0 0.00487073)
(0 0 0.00510672)
(0 0 0.00534244)
(0 0 0.00557788)
(0 0 0.00581302)
(0 0 0.00604783)
(0 0 0.0062823)
(0 0 0.00651639)
(0 0 0.0067501)
(0 0 0.00698338)
(0 0 0.00721621)
(0 0 0.00744857)
(0 0 0.00768043)
(0 0 0.00791175)
(0 0 0.0081425)
(0 0 0.00837265)
(0 0 0.00860217)
(0 0 0.00883102)
(0 0 0.00905916)
(0 0 0.00928655)
(0 0 0.00951316)
(0 0 0.00973895)
(0 0 0.00996387)
(0 0 0.0101879)
(0 0 0.0104109)
(0 0 0.010633)
(0 0 0.010854)
(0 0 0.0110739)
(0 0 0.0112926)
(0 0 0.0115102)
(0 0 0.0117265)
(0 0 0.0119415)
(0 0 0.0121551)
(0 0 0.0123673)
(0 0 0.0125781)
(0 0 0.0127873)
(0 0 0.0129949)
(0 0 0.0132009)
(0 0 0.0134051)
(0 0 0.0136076)
(0 0 0.0138083)
(0 0 0.014007)
(0 0 0.0142038)
(0 0 0.0143986)
(0 0 0.0145912)
(0 0 0.0147818)
(0 0 0.01497)
(0 0 0.015156)
(0 0 0.0153397)
(0 0 0.0155209)
(0 0 0.0156996)
(0 0 0.0158758)
(0 0 0.0160493)
(0 0 0.0162202)
(0 0 0.0163883)
(0 0 0.0165536)
(0 0 0.016716)
(0 0 0.0168754)
(0 0 0.0170319)
(0 0 0.0171852)
(0 0 0.0173355)
(0 0 0.0174825)
(0 0 0.0176263)
(0 0 0.0177667)
(0 0 0.0179038)
(0 0 0.0180375)
(0 0 0.0181677)
(0 0 0.0182943)
(0 0 0.0184174)
(0 0 0.0185368)
(0 0 0.0186526)
(0 0 0.0187646)
(0 0 0.0188729)
(0 0 0.0189773)
(0 0 0.0190779)
(0 0 0.0191746)
(0 0 0.0192674)
(0 0 0.0193563)
(0 0 0.0194411)
(0 0 0.019522)
(0 0 0.0195988)
(0 0 0.0196716)
(0 0 0.0197402)
(0 0 0.0198048)
(0 0 0.0198653)
(0 0 0.0199217)
(0 0 0.0199739)
(0 0 0.020022)
(0 0 0.0200659)
(0 0 0.0201057)
(0 0 0.0201413)
(0 0 0.0201728)
(0 0 0.0202001)
(0 0 0.0202234)
(0 0 0.0202425)
(0 0 0.0202574)
(0 0 0.0202683)
(0 0 0.0202751)
(0 0 0.0202779)
(0 0 0.0202766)
(0 0 0.0202712)
(0 0 0.0202619)
(0 0 0.0202487)
(0 0 0.0202315)
(0 0 0.0202104)
(0 0 0.0201854)
(0 0 0.0201566)
(0 0 0.0201239)
(0 0 0.0200876)
(0 0 0.0200474)
(0 0 0.0200037)
(0 0 0.0199562)
(0 0 0.0199052)
(0 0 0.0198506)
(0 0 0.0197926)
(0 0 0.019731)
(0 0 0.019666)
(0 0 0.0195977)
(0 0 0.0195261)
(0 0 0.0194512)
(0 0 0.0193731)
(0 0 0.0192918)
(0 0 0.0192074)
(0 0 0.0191199)
(0 0 0.0190295)
(0 0 0.0189361)
(0 0 0.0188397)
(0 0 0.0187406)
(0 0 0.0186386)
(0 0 0.0185339)
(0 0 0.0184265)
(0 0 0.0183165)
(0 0 0.0182038)
(0 0 0.0180887)
(0 0 0.0179711)
(0 0 0.017851)
(0 0 0.0177286)
(0 0 0.0176039)
(0 0 0.0174769)
(0 0 0.0173477)
(0 0 0.0172163)
(0 0 0.0170828)
(0 0 0.0169472)
(0 0 0.0168096)
(0 0 0.0166701)
(0 0 0.0165286)
(0 0 0.0163852)
(0 0 0.0162401)
(0 0 0.0160931)
(0 0 0.0159445)
(0 0 0.0157941)
(0 0 0.0156421)
(0 0 0.0154885)
(0 0 0.0153333)
(0 0 0.0151767)
(0 0 0.0150185)
(0 0 0.014859)
(0 0 0.014698)
(0 0 0.0145357)
(0 0 0.0143721)
(0 0 0.0142072)
(0 0 0.0140411)
(0 0 0.0138738)
(0 0 0.0137053)
(0 0 0.0135357)
(0 0 0.013365)
(0 0 0.0131933)
(0 0 0.0130205)
(0 0 0.0128467)
(0 0 0.012672)
(0 0 0.0124963)
(0 0 0.0123198)
(0 0 0.0121424)
(0 0 0.0119641)
(0 0 0.0117851)
(0 0 0.0116052)
(0 0 0.0114246)
(0 0 0.0112433)
(0 0 0.0110613)
(0 0 0.0108786)
(0 0 0.0106952)
(0 0 0.0105113)
(0 0 0.0103267)
(0 0 0.0101415)