/*--------------------------------*- C++ -*----------------------------------*\
| =========                 |                                                 |
| \\      /  F ield         | OpenFOAM: The Open Source CFD Toolbox           |
|  \\    /   O peration     | Version:  v2012                                 |
|   \\  /    A nd           | Website:  www.openfoam.com                      |
|    \\/     M anipulation  |                                                 |
\*---------------------------------------------------------------------------*/
FoamFile
{
    version     2.0;
    format      ascii;
    class       volVectorField;
    location    "5.5";
    object      U;
}
// * * * * * * * * * * * * * * * * * * * * * * * * * * * * * * * * * * * * * //

dimensions      [0 1 -1 0 0 0 0];


internalField   nonuniform List<vector> 
65536
(
(0.000746521 -0.000746535 0)
(0.00223956 -0.000746512 0)
(0.00373255 -0.000746452 0)
(0.00522539 -0.000746367 0)
(0.00671801 -0.000746252 0)
(0.00821039 -0.000746109 0)
(0.00970245 -0.000745935 0)
(0.0111941 -0.000745729 0)
(0.0126854 -0.000745491 0)
(0.0141761 -0.00074522 0)
(0.0156662 -0.000744914 0)
(0.0171558 -0.000744571 0)
(0.0186445 -0.000744191 0)
(0.0201325 -0.000743772 0)
(0.0216196 -0.000743311 0)
(0.0231058 -0.000742807 0)
(0.0245909 -0.000742257 0)
(0.0260748 -0.00074166 0)
(0.0275575 -0.000741014 0)
(0.0290389 -0.000740315 0)
(0.0305188 -0.000739561 0)
(0.0319972 -0.000738749 0)
(0.0334738 -0.000737877 0)
(0.0349487 -0.000736942 0)
(0.0364216 -0.00073594 0)
(0.0378925 -0.000734869 0)
(0.0393611 -0.000733725 0)
(0.0408274 -0.000732504 0)
(0.0422912 -0.000731204 0)
(0.0437523 -0.000729821 0)
(0.0452106 -0.000728351 0)
(0.0466658 -0.000726791 0)
(0.0481178 -0.000725137 0)
(0.0495664 -0.000723384 0)
(0.0510114 -0.00072153 0)
(0.0524526 -0.00071957 0)
(0.0538897 -0.0007175 0)
(0.0553227 -0.000715317 0)
(0.0567511 -0.000713015 0)
(0.0581748 -0.000710592 0)
(0.0595935 -0.000708043 0)
(0.0610071 -0.000705364 0)
(0.0624151 -0.00070255 0)
(0.0638174 -0.000699599 0)
(0.0652136 -0.000696505 0)
(0.0666035 -0.000693264 0)
(0.0679868 -0.000689874 0)
(0.0693631 -0.000686329 0)
(0.0707322 -0.000682626 0)
(0.0720937 -0.000678761 0)
(0.0734474 -0.000674731 0)
(0.0747928 -0.000670531 0)
(0.0761296 -0.000666159 0)
(0.0774576 -0.000661611 0)
(0.0787762 -0.000656883 0)
(0.0800853 -0.000651973 0)
(0.0813843 -0.000646877 0)
(0.0826729 -0.000641593 0)
(0.0839508 -0.000636117 0)
(0.0852175 -0.000630448 0)
(0.0864727 -0.000624582 0)
(0.087716 -0.000618519 0)
(0.088947 -0.000612255 0)
(0.0901652 -0.00060579 0)
(0.0913703 -0.000599121 0)
(0.0925619 -0.000592249 0)
(0.0937395 -0.00058517 0)
(0.0949027 -0.000577886 0)
(0.0960512 -0.000570396 0)
(0.0971845 -0.000562699 0)
(0.0983021 -0.000554795 0)
(0.0994038 -0.000546685 0)
(0.100489 -0.000538369 0)
(0.101557 -0.000529849 0)
(0.102609 -0.000521125 0)
(0.103642 -0.000512199 0)
(0.104658 -0.000503074 0)
(0.105655 -0.000493751 0)
(0.106633 -0.000484232 0)
(0.107592 -0.00047452 0)
(0.108531 -0.000464619 0)
(0.10945 -0.000454532 0)
(0.110349 -0.000444262 0)
(0.111227 -0.000433813 0)
(0.112085 -0.00042319 0)
(0.11292 -0.000412396 0)
(0.113734 -0.000401438 0)
(0.114526 -0.00039032 0)
(0.115296 -0.000379047 0)
(0.116042 -0.000367625 0)
(0.116766 -0.00035606 0)
(0.117467 -0.000344358 0)
(0.118144 -0.000332525 0)
(0.118797 -0.000320568 0)
(0.119426 -0.000308493 0)
(0.120031 -0.000296307 0)
(0.120611 -0.000284018 0)
(0.121167 -0.000271631 0)
(0.121698 -0.000259155 0)
(0.122204 -0.000246598 0)
(0.122684 -0.000233965 0)
(0.12314 -0.000221267 0)
(0.12357 -0.000208509 0)
(0.123974 -0.0001957 0)
(0.124352 -0.000182847 0)
(0.124705 -0.000169959 0)
(0.125032 -0.000157043 0)
(0.125333 -0.000144108 0)
(0.125609 -0.00013116 0)
(0.125858 -0.000118209 0)
(0.126081 -0.000105261 0)
(0.126279 -9.23236e-05 0)
(0.126451 -7.94054e-05 0)
(0.126596 -6.65134e-05 0)
(0.126717 -5.36551e-05 0)
(0.126811 -4.08376e-05 0)
(0.12688 -2.8068e-05 0)
(0.126923 -1.53535e-05 0)
(0.126941 -2.70071e-06 0)
(0.126934 9.88344e-06 0)
(0.126901 2.23925e-05 0)
(0.126844 3.48203e-05 0)
(0.126762 4.71607e-05 0)
(0.126655 5.94077e-05 0)
(0.126524 7.15559e-05 0)
(0.126369 8.35996e-05 0)
(0.12619 9.55338e-05 0)
(0.125987 0.000107354 0)
(0.12576 0.000119054 0)
(0.12551 0.000130631 0)
(0.125237 0.000142079 0)
(0.124942 0.000153396 0)
(0.124624 0.000164576 0)
(0.124283 0.000175617 0)
(0.123921 0.000186515 0)
(0.123537 0.000197268 0)
(0.123132 0.000207871 0)
(0.122705 0.000218323 0)
(0.122258 0.000228621 0)
(0.121791 0.000238763 0)
(0.121303 0.000248747 0)
(0.120795 0.000258572 0)
(0.120268 0.000268235 0)
(0.119722 0.000277736 0)
(0.119157 0.000287074 0)
(0.118574 0.000296247 0)
(0.117972 0.000305255 0)
(0.117352 0.000314097 0)
(0.116715 0.000322774 0)
(0.116061 0.000331285 0)
(0.11539 0.000339629 0)
(0.114702 0.000347808 0)
(0.113999 0.000355821 0)
(0.113279 0.000363669 0)
(0.112544 0.000371352 0)
(0.111793 0.000378872 0)
(0.111028 0.000386229 0)
(0.110248 0.000393425 0)
(0.109454 0.000400459 0)
(0.108646 0.000407335 0)
(0.107824 0.000414052 0)
(0.10699 0.000420613 0)
(0.106142 0.000427019 0)
(0.105281 0.000433271 0)
(0.104409 0.000439372 0)
(0.103524 0.000445322 0)
(0.102627 0.000451125 0)
(0.101719 0.000456781 0)
(0.1008 0.000462292 0)
(0.0998696 0.000467661 0)
(0.0989289 0.000472889 0)
(0.0979778 0.000477979 0)
(0.0970168 0.000482932 0)
(0.0960459 0.000487751 0)
(0.0950656 0.000492437 0)
(0.094076 0.000496993 0)
(0.0930774 0.000501422 0)
(0.0920701 0.000505725 0)
(0.0910544 0.000509905 0)
(0.0900303 0.000513963 0)
(0.0889983 0.000517903 0)
(0.0879586 0.000521726 0)
(0.0869113 0.000525434 0)
(0.0858567 0.00052903 0)
(0.084795 0.000532516 0)
(0.0837265 0.000535894 0)
(0.0826513 0.000539167 0)
(0.0815696 0.000542336 0)
(0.0804818 0.000545404 0)
(0.0793879 0.000548373 0)
(0.0782881 0.000551245 0)
(0.0771828 0.000554023 0)
(0.0760719 0.000556708 0)
(0.0749558 0.000559303 0)
(0.0738346 0.000561809 0)
(0.0727084 0.000564229 0)
(0.0715775 0.000566565 0)
(0.070442 0.000568819 0)
(0.0693021 0.000570993 0)
(0.0681579 0.000573089 0)
(0.0670097 0.000575109 0)
(0.0658574 0.000577055 0)
(0.0647013 0.000578929 0)
(0.0635416 0.000580733 0)
(0.0623783 0.000582468 0)
(0.0612116 0.000584136 0)
(0.0600416 0.00058574 0)
(0.0588685 0.000587281 0)
(0.0576924 0.000588761 0)
(0.0565134 0.000590181 0)
(0.0553316 0.000591543 0)
(0.0541471 0.00059285 0)
(0.0529601 0.000594102 0)
(0.0517706 0.000595301 0)
(0.0505788 0.000596449 0)
(0.0493847 0.000597548 0)
(0.0481885 0.000598599 0)
(0.0469903 0.000599604 0)
(0.04579 0.000600563 0)
(0.0445879 0.000601479 0)
(0.043384 0.000602353 0)
(0.0421784 0.000603186 0)
(0.0409712 0.00060398 0)
(0.0397625 0.000604735 0)
(0.0385522 0.000605454 0)
(0.0373406 0.000606137 0)
(0.0361276 0.000606786 0)
(0.0349134 0.000607402 0)
(0.0336979 0.000607985 0)
(0.0324814 0.000608538 0)
(0.0312637 0.000609061 0)
(0.0300451 0.000609556 0)
(0.0288254 0.000610022 0)
(0.0276049 0.000610462 0)
(0.0263835 0.000610875 0)
(0.0251614 0.000611264 0)
(0.0239384 0.000611629 0)
(0.0227148 0.00061197 0)
(0.0214905 0.000612289 0)
(0.0202656 0.000612586 0)
(0.0190401 0.000612862 0)
(0.0178141 0.000613117 0)
(0.0165876 0.000613353 0)
(0.0153606 0.000613569 0)
(0.0141333 0.000613767 0)
(0.0129055 0.000613947 0)
(0.0116774 0.000614109 0)
(0.010449 0.000614253 0)
(0.00922036 0.000614381 0)
(0.00799146 0.000614492 0)
(0.00676235 0.000614587 0)
(0.00553307 0.000614666 0)
(0.00430364 0.000614729 0)
(0.00307411 0.000614776 0)
(0.00184451 0.000614807 0)
(0.000614847 0.000614822 0)
(0.000746546 -0.00223962 0)
(0.00223965 -0.00223954 0)
(0.00373269 -0.00223937 0)
(0.00522558 -0.00223911 0)
(0.00671827 -0.00223877 0)
(0.00821071 -0.00223834 0)
(0.00970283 -0.00223782 0)
(0.0111946 -0.0022372 0)
(0.0126859 -0.00223649 0)
(0.0141767 -0.00223568 0)
(0.0156669 -0.00223476 0)
(0.0171565 -0.00223374 0)
(0.0186453 -0.0022326 0)
(0.0201334 -0.00223134 0)
(0.0216206 -0.00222996 0)
(0.0231068 -0.00222845 0)
(0.024592 -0.0022268 0)
(0.0260761 -0.00222501 0)
(0.0275589 -0.00222308 0)
(0.0290404 -0.00222098 0)
(0.0305204 -0.00221872 0)
(0.0319989 -0.00221629 0)
(0.0334757 -0.00221368 0)
(0.0349507 -0.00221088 0)
(0.0364237 -0.00220787 0)
(0.0378947 -0.00220466 0)
(0.0393636 -0.00220123 0)
(0.04083 -0.00219758 0)
(0.0422939 -0.00219368 0)
(0.0437552 -0.00218953 0)
(0.0452136 -0.00218513 0)
(0.046669 -0.00218045 0)
(0.0481212 -0.00217549 0)
(0.04957 -0.00217024 0)
(0.0510152 -0.00216468 0)
(0.0524567 -0.0021588 0)
(0.053894 -0.0021526 0)
(0.0553272 -0.00214605 0)
(0.0567559 -0.00213915 0)
(0.0581798 -0.00213189 0)
(0.0595988 -0.00212424 0)
(0.0610126 -0.00211621 0)
(0.0624209 -0.00210777 0)
(0.0638235 -0.00209892 0)
(0.06522 -0.00208964 0)
(0.0666102 -0.00207993 0)
(0.0679938 -0.00206976 0)
(0.0693704 -0.00205913 0)
(0.0707398 -0.00204802 0)
(0.0721017 -0.00203643 0)
(0.0734557 -0.00202434 0)
(0.0748014 -0.00201175 0)
(0.0761386 -0.00199864 0)
(0.0774669 -0.001985 0)
(0.0787859 -0.00197082 0)
(0.0800953 -0.00195609 0)
(0.0813947 -0.0019408 0)
(0.0826838 -0.00192495 0)
(0.083962 -0.00190853 0)
(0.0852292 -0.00189152 0)
(0.0864848 -0.00187393 0)
(0.0877284 -0.00185574 0)
(0.0889598 -0.00183695 0)
(0.0901784 -0.00181755 0)
(0.0913839 -0.00179755 0)
(0.0925759 -0.00177693 0)
(0.0937539 -0.0017557 0)
(0.0949176 -0.00173385 0)
(0.0960665 -0.00171138 0)
(0.0972002 -0.00168828 0)
(0.0983182 -0.00166457 0)
(0.0994203 -0.00164024 0)
(0.100506 -0.00161529 0)
(0.101575 -0.00158973 0)
(0.102626 -0.00156356 0)
(0.10366 -0.00153678 0)
(0.104676 -0.0015094 0)
(0.105674 -0.00148143 0)
(0.106652 -0.00145287 0)
(0.107611 -0.00142373 0)
(0.108551 -0.00139402 0)
(0.109471 -0.00136375 0)
(0.11037 -0.00133294 0)
(0.111249 -0.00130159 0)
(0.112106 -0.00126971 0)
(0.112942 -0.00123733 0)
(0.113756 -0.00120445 0)
(0.114549 -0.00117109 0)
(0.115319 -0.00113726 0)
(0.116066 -0.00110299 0)
(0.11679 -0.00106829 0)
(0.11749 -0.00103318 0)
(0.118168 -0.000997673 0)
(0.118821 -0.000961794 0)
(0.119451 -0.000925562 0)
(0.120056 -0.000888997 0)
(0.120636 -0.000852121 0)
(0.121192 -0.000814954 0)
(0.121723 -0.000777518 0)
(0.122229 -0.000739837 0)
(0.12271 -0.000701933 0)
(0.123165 -0.000663828 0)
(0.123595 -0.000625546 0)
(0.124 -0.00058711 0)
(0.124378 -0.000548545 0)
(0.124731 -0.000509873 0)
(0.125058 -0.000471117 0)
(0.125359 -0.000432303 0)
(0.125635 -0.000393452 0)
(0.125884 -0.000354589 0)
(0.126107 -0.000315737 0)
(0.126305 -0.000276918 0)
(0.126476 -0.000238156 0)
(0.126622 -0.000199472 0)
(0.126742 -0.00016089 0)
(0.126837 -0.00012243 0)
(0.126905 -8.41143e-05 0)
(0.126949 -4.59637e-05 0)
(0.126966 -7.99878e-06 0)
(0.126959 2.97603e-05 0)
(0.126926 6.72941e-05 0)
(0.126869 0.000104584 0)
(0.126787 0.000141611 0)
(0.12668 0.000178358 0)
(0.126549 0.000214808 0)
(0.126393 0.000250944 0)
(0.126214 0.000286752 0)
(0.12601 0.000322216 0)
(0.125783 0.000357322 0)
(0.125533 0.000392056 0)
(0.12526 0.000426406 0)
(0.124964 0.000460359 0)
(0.124646 0.000493904 0)
(0.124305 0.00052703 0)
(0.123943 0.000559728 0)
(0.123558 0.000591987 0)
(0.123153 0.0006238 0)
(0.122726 0.000655158 0)
(0.122279 0.000686055 0)
(0.121811 0.000716483 0)
(0.121323 0.000746437 0)
(0.120815 0.000775912 0)
(0.120288 0.000804903 0)
(0.119741 0.000833406 0)
(0.119176 0.000861419 0)
(0.118592 0.000888939 0)
(0.11799 0.000915964 0)
(0.11737 0.000942492 0)
(0.116733 0.000968522 0)
(0.116078 0.000994053 0)
(0.115407 0.00101909 0)
(0.114719 0.00104362 0)
(0.114015 0.00106766 0)
(0.113295 0.0010912 0)
(0.112559 0.00111425 0)
(0.111808 0.00113681 0)
(0.111043 0.00115888 0)
(0.110262 0.00118047 0)
(0.109468 0.00120157 0)
(0.10866 0.00122219 0)
(0.107838 0.00124234 0)
(0.107003 0.00126202 0)
(0.106155 0.00128124 0)
(0.105294 0.00129999 0)
(0.104421 0.00131829 0)
(0.103536 0.00133614 0)
(0.102639 0.00135355 0)
(0.10173 0.00137052 0)
(0.100811 0.00138705 0)
(0.0998803 0.00140315 0)
(0.0989393 0.00141883 0)
(0.097988 0.0014341 0)
(0.0970267 0.00144896 0)
(0.0960556 0.00146341 0)
(0.0950749 0.00147747 0)
(0.0940851 0.00149113 0)
(0.0930863 0.00150442 0)
(0.0920787 0.00151732 0)
(0.0910627 0.00152986 0)
(0.0900385 0.00154203 0)
(0.0890062 0.00155385 0)
(0.0879662 0.00156532 0)
(0.0869187 0.00157644 0)
(0.0858639 0.00158722 0)
(0.084802 0.00159768 0)
(0.0837332 0.00160781 0)
(0.0826578 0.00161763 0)
(0.081576 0.00162713 0)
(0.0804879 0.00163633 0)
(0.0793938 0.00164524 0)
(0.0782939 0.00165385 0)
(0.0771883 0.00166218 0)
(0.0760773 0.00167024 0)
(0.074961 0.00167802 0)
(0.0738396 0.00168553 0)
(0.0727133 0.00169279 0)
(0.0715822 0.0016998 0)
(0.0704466 0.00170656 0)
(0.0693065 0.00171308 0)
(0.0681622 0.00171936 0)
(0.0670137 0.00172542 0)
(0.0658613 0.00173126 0)
(0.0647051 0.00173688 0)
(0.0635452 0.00174229 0)
(0.0623818 0.00174749 0)
(0.0612149 0.00175249 0)
(0.0600449 0.0017573 0)
(0.0588716 0.00176192 0)
(0.0576954 0.00176636 0)
(0.0565162 0.00177062 0)
(0.0553343 0.0017747 0)
(0.0541498 0.00177862 0)
(0.0529626 0.00178238 0)
(0.051773 0.00178597 0)
(0.0505811 0.00178941 0)
(0.049387 0.00179271 0)
(0.0481907 0.00179586 0)
(0.0469923 0.00179887 0)
(0.045792 0.00180175 0)
(0.0445898 0.0018045 0)
(0.0433858 0.00180712 0)
(0.0421801 0.00180961 0)
(0.0409728 0.00181199 0)
(0.039764 0.00181426 0)
(0.0385537 0.00181641 0)
(0.037342 0.00181846 0)
(0.0361289 0.00182041 0)
(0.0349146 0.00182225 0)
(0.0336991 0.001824 0)
(0.0324825 0.00182566 0)
(0.0312648 0.00182723 0)
(0.0300461 0.00182871 0)
(0.0288264 0.00183011 0)
(0.0276058 0.00183143 0)
(0.0263844 0.00183267 0)
(0.0251621 0.00183383 0)
(0.0239392 0.00183492 0)
(0.0227155 0.00183595 0)
(0.0214911 0.0018369 0)
(0.0202662 0.00183779 0)
(0.0190407 0.00183862 0)
(0.0178146 0.00183939 0)
(0.0165881 0.00184009 0)
(0.0153611 0.00184074 0)
(0.0141337 0.00184133 0)
(0.0129059 0.00184187 0)
(0.0116777 0.00184236 0)
(0.0104493 0.00184279 0)
(0.00922061 0.00184317 0)
(0.00799168 0.00184351 0)
(0.00676253 0.00184379 0)
(0.00553322 0.00184403 0)
(0.00430376 0.00184422 0)
(0.00307419 0.00184436 0)
(0.00184455 0.00184445 0)
(0.000614863 0.0018445 0)
(0.00074661 -0.00373276 0)
(0.00223983 -0.00373263 0)
(0.00373299 -0.00373235 0)
(0.00522599 -0.00373193 0)
(0.0067188 -0.00373137 0)
(0.00821136 -0.00373065 0)
(0.00970361 -0.00372979 0)
(0.0111955 -0.00372877 0)
(0.0126869 -0.00372758 0)
(0.0141779 -0.00372623 0)
(0.0156682 -0.00372471 0)
(0.017158 -0.00372301 0)
(0.018647 -0.00372111 0)
(0.0201352 -0.00371902 0)
(0.0216226 -0.00371673 0)
(0.023109 -0.00371422 0)
(0.0245944 -0.00371148 0)
(0.0260786 -0.00370851 0)
(0.0275616 -0.00370529 0)
(0.0290433 -0.00370181 0)
(0.0305236 -0.00369805 0)
(0.0320023 -0.00369401 0)
(0.0334793 -0.00368966 0)
(0.0349546 -0.003685 0)
(0.0364279 -0.00368001 0)
(0.0378992 -0.00367467 0)
(0.0393683 -0.00366897 0)
(0.0408351 -0.00366288 0)
(0.0422994 -0.0036564 0)
(0.043761 -0.0036495 0)
(0.0452198 -0.00364217 0)
(0.0466755 -0.00363439 0)
(0.0481281 -0.00362613 0)
(0.0495773 -0.00361739 0)
(0.051023 -0.00360814 0)
(0.0524648 -0.00359836 0)
(0.0539026 -0.00358803 0)
(0.0553363 -0.00357713 0)
(0.0567654 -0.00356565 0)
(0.0581899 -0.00355355 0)
(0.0596094 -0.00354083 0)
(0.0610237 -0.00352745 0)
(0.0624326 -0.0035134 0)
(0.0638357 -0.00349867 0)
(0.0652328 -0.00348322 0)
(0.0666236 -0.00346703 0)
(0.0680078 -0.0034501 0)
(0.069385 -0.0034324 0)
(0.0707551 -0.0034139 0)
(0.0721176 -0.00339459 0)
(0.0734723 -0.00337446 0)
(0.0748187 -0.00335348 0)
(0.0761566 -0.00333164 0)
(0.0774856 -0.00330891 0)
(0.0788054 -0.00328529 0)
(0.0801155 -0.00326075 0)
(0.0814156 -0.00323529 0)
(0.0827054 -0.00320888 0)
(0.0839845 -0.00318151 0)
(0.0852524 -0.00315318 0)
(0.0865088 -0.00312386 0)
(0.0877533 -0.00309355 0)
(0.0889854 -0.00306224 0)
(0.0902049 -0.00302992 0)
(0.0914112 -0.00299658 0)
(0.092604 -0.00296222 0)
(0.0937828 -0.00292684 0)
(0.0949473 -0.00289042 0)
(0.096097 -0.00285297 0)
(0.0972315 -0.00281448 0)
(0.0983505 -0.00277496 0)
(0.0994534 -0.0027344 0)
(0.10054 -0.00269282 0)
(0.101609 -0.00265021 0)
(0.102662 -0.00260658 0)
(0.103697 -0.00256195 0)
(0.104713 -0.00251631 0)
(0.105711 -0.00246968 0)
(0.106691 -0.00242207 0)
(0.107651 -0.00237349 0)
(0.108591 -0.00232397 0)
(0.109512 -0.00227351 0)
(0.110412 -0.00222214 0)
(0.111291 -0.00216988 0)
(0.112149 -0.00211674 0)
(0.112986 -0.00206275 0)
(0.113801 -0.00200793 0)
(0.114594 -0.00195231 0)
(0.115364 -0.00189592 0)
(0.116112 -0.00183878 0)
(0.116836 -0.00178092 0)
(0.117538 -0.00172238 0)
(0.118216 -0.00166318 0)
(0.118869 -0.00160336 0)
(0.119499 -0.00154295 0)
(0.120105 -0.00148198 0)
(0.120686 -0.0014205 0)
(0.121242 -0.00135853 0)
(0.121774 -0.00129611 0)
(0.12228 -0.00123328 0)
(0.122761 -0.00117008 0)
(0.123216 -0.00110655 0)
(0.123647 -0.00104272 0)
(0.124051 -0.000978636 0)
(0.12443 -0.000914333 0)
(0.124783 -0.000849853 0)
(0.12511 -0.000785234 0)
(0.125411 -0.000720517 0)
(0.125687 -0.00065574 0)
(0.125936 -0.000590942 0)
(0.126159 -0.000526162 0)
(0.126357 -0.000461439 0)
(0.126528 -0.00039681 0)
(0.126674 -0.000332313 0)
(0.126794 -0.000267984 0)
(0.126888 -0.00020386 0)
(0.126957 -0.000139977 0)
(0.127 -7.63704e-05 0)
(0.127017 -1.30733e-05 0)
(0.127009 4.98802e-05 0)
(0.126977 0.000112458 0)
(0.126919 0.000174627 0)
(0.126836 0.000236359 0)
(0.126729 0.000297623 0)
(0.126597 0.000358391 0)
(0.126441 0.000418636 0)
(0.126261 0.000478333 0)
(0.126058 0.000537455 0)
(0.12583 0.00059598 0)
(0.12558 0.000653885 0)
(0.125306 0.000711148 0)
(0.12501 0.000767749 0)
(0.124691 0.00082367 0)
(0.124349 0.000878891 0)
(0.123986 0.000933397 0)
(0.123601 0.000987173 0)
(0.123195 0.0010402 0)
(0.122768 0.00109247 0)
(0.12232 0.00114398 0)
(0.121851 0.0011947 0)
(0.121363 0.00124462 0)
(0.120854 0.00129375 0)
(0.120326 0.00134208 0)
(0.119779 0.00138959 0)
(0.119213 0.00143628 0)
(0.118629 0.00148215 0)
(0.118026 0.00152719 0)
(0.117405 0.0015714 0)
(0.116767 0.00161479 0)
(0.116112 0.00165734 0)
(0.11544 0.00169906 0)
(0.114751 0.00173995 0)
(0.114047 0.00178001 0)
(0.113326 0.00181925 0)
(0.11259 0.00185766 0)
(0.111838 0.00189526 0)
(0.111072 0.00193204 0)
(0.110291 0.00196801 0)
(0.109496 0.00200317 0)
(0.108687 0.00203754 0)
(0.107865 0.00207112 0)
(0.107029 0.00210392 0)
(0.10618 0.00213594 0)
(0.105319 0.00216719 0)
(0.104445 0.00219769 0)
(0.103559 0.00222743 0)
(0.102662 0.00225643 0)
(0.101753 0.0022847 0)
(0.100833 0.00231225 0)
(0.0999017 0.00233908 0)
(0.0989602 0.00236521 0)
(0.0980083 0.00239065 0)
(0.0970464 0.0024154 0)
(0.0960748 0.00243948 0)
(0.0950937 0.0024629 0)
(0.0941033 0.00248567 0)
(0.093104 0.00250781 0)
(0.0920959 0.00252931 0)
(0.0910794 0.0025502 0)
(0.0900547 0.00257048 0)
(0.089022 0.00259016 0)
(0.0879815 0.00260926 0)
(0.0869335 0.00262779 0)
(0.0858782 0.00264576 0)
(0.0848159 0.00266318 0)
(0.0837467 0.00268006 0)
(0.0826709 0.00269641 0)
(0.0815887 0.00271225 0)
(0.0805002 0.00272757 0)
(0.0794057 0.00274241 0)
(0.0783054 0.00275676 0)
(0.0771994 0.00277063 0)
(0.076088 0.00278405 0)
(0.0749714 0.00279701 0)
(0.0738496 0.00280953 0)
(0.072723 0.00282162 0)
(0.0715916 0.00283329 0)
(0.0704556 0.00284455 0)
(0.0693152 0.00285541 0)
(0.0681706 0.00286588 0)
(0.0670218 0.00287597 0)
(0.0658691 0.00288569 0)
(0.0647126 0.00289505 0)
(0.0635524 0.00290406 0)
(0.0623887 0.00291272 0)
(0.0612217 0.00292105 0)
(0.0600513 0.00292906 0)
(0.0588778 0.00293676 0)
(0.0577013 0.00294415 0)
(0.056522 0.00295124 0)
(0.0553398 0.00295804 0)
(0.054155 0.00296457 0)
(0.0529677 0.00297082 0)
(0.0517779 0.00297681 0)
(0.0505858 0.00298254 0)
(0.0493914 0.00298803 0)
(0.0481949 0.00299327 0)
(0.0469963 0.00299829 0)
(0.0457958 0.00300308 0)
(0.0445935 0.00300765 0)
(0.0433893 0.00301201 0)
(0.0421835 0.00301617 0)
(0.040976 0.00302013 0)
(0.039767 0.0030239 0)
(0.0385566 0.00302749 0)
(0.0373447 0.0030309 0)
(0.0361315 0.00303414 0)
(0.0349171 0.00303721 0)
(0.0337015 0.00304012 0)
(0.0324847 0.00304288 0)
(0.0312669 0.00304549 0)
(0.0300481 0.00304796 0)
(0.0288283 0.00305028 0)
(0.0276076 0.00305248 0)
(0.026386 0.00305454 0)
(0.0251637 0.00305648 0)
(0.0239406 0.0030583 0)
(0.0227169 0.00306 0)
(0.0214924 0.00306159 0)
(0.0202674 0.00306307 0)
(0.0190418 0.00306445 0)
(0.0178156 0.00306572 0)
(0.016589 0.0030669 0)
(0.0153619 0.00306798 0)
(0.0141344 0.00306896 0)
(0.0129066 0.00306986 0)
(0.0116784 0.00307067 0)
(0.0104499 0.00307139 0)
(0.00922111 0.00307202 0)
(0.0079921 0.00307258 0)
(0.00676289 0.00307305 0)
(0.00553351 0.00307344 0)
(0.00430399 0.00307376 0)
(0.00307435 0.00307399 0)
(0.00184465 0.00307415 0)
(0.000614895 0.00307423 0)
(0.000746698 -0.00522606 0)
(0.00224009 -0.00522588 0)
(0.00373343 -0.00522549 0)
(0.00522661 -0.00522491 0)
(0.0067196 -0.00522413 0)
(0.00821234 -0.00522313 0)
(0.00970477 -0.00522193 0)
(0.0111968 -0.00522051 0)
(0.0126885 -0.00521886 0)
(0.0141796 -0.00521698 0)
(0.0156702 -0.00521485 0)
(0.0171602 -0.00521248 0)
(0.0186494 -0.00520984 0)
(0.0201379 -0.00520693 0)
(0.0216255 -0.00520373 0)
(0.0231122 -0.00520023 0)
(0.0245979 -0.00519642 0)
(0.0260824 -0.00519227 0)
(0.0275657 -0.00518778 0)
(0.0290477 -0.00518292 0)
(0.0305283 -0.00517768 0)
(0.0320074 -0.00517204 0)
(0.0334848 -0.00516598 0)
(0.0349605 -0.00515947 0)
(0.0364342 -0.00515251 0)
(0.037906 -0.00514505 0)
(0.0393755 -0.00513709 0)
(0.0408428 -0.0051286 0)
(0.0423075 -0.00511954 0)
(0.0437696 -0.00510991 0)
(0.0452289 -0.00509968 0)
(0.0466853 -0.00508881 0)
(0.0481384 -0.00507728 0)
(0.0495883 -0.00506507 0)
(0.0510345 -0.00505214 0)
(0.052477 -0.00503848 0)
(0.0539155 -0.00502405 0)
(0.0553498 -0.00500882 0)
(0.0567797 -0.00499277 0)
(0.0582049 -0.00497586 0)
(0.0596252 -0.00495807 0)
(0.0610403 -0.00493938 0)
(0.06245 -0.00491974 0)
(0.063854 -0.00489913 0)
(0.0652519 -0.00487753 0)
(0.0666436 -0.0048549 0)
(0.0680287 -0.00483123 0)
(0.0694069 -0.00480647 0)
(0.070778 -0.0047806 0)
(0.0721415 -0.0047536 0)
(0.0734971 -0.00472543 0)
(0.0748446 -0.00469609 0)
(0.0761836 -0.00466553 0)
(0.0775136 -0.00463374 0)
(0.0788345 -0.00460069 0)
(0.0801457 -0.00456636 0)
(0.081447 -0.00453073 0)
(0.0827379 -0.00449377 0)
(0.0840181 -0.00445548 0)
(0.0852872 -0.00441582 0)
(0.0865448 -0.0043748 0)
(0.0877905 -0.00433238 0)
(0.0890238 -0.00428855 0)
(0.0902445 -0.00424332 0)
(0.0914521 -0.00419665 0)
(0.0926461 -0.00414856 0)
(0.0938262 -0.00409902 0)
(0.0949919 -0.00404804 0)
(0.0961429 -0.0039956 0)
(0.0972786 -0.00394172 0)
(0.0983988 -0.00388639 0)
(0.0995029 -0.00382961 0)
(0.100591 -0.00377138 0)
(0.101662 -0.00371172 0)
(0.102715 -0.00365063 0)
(0.103751 -0.00358813 0)
(0.104769 -0.00352422 0)
(0.105768 -0.00345892 0)
(0.106749 -0.00339225 0)
(0.10771 -0.00332422 0)
(0.108652 -0.00325487 0)
(0.109573 -0.0031842 0)
(0.110474 -0.00311225 0)
(0.111355 -0.00303905 0)
(0.112214 -0.00296462 0)
(0.113052 -0.002889 0)
(0.113867 -0.00281222 0)
(0.114661 -0.00273432 0)
(0.115433 -0.00265533 0)
(0.116181 -0.00257529 0)
(0.116907 -0.00249425 0)
(0.117609 -0.00241225 0)
(0.118287 -0.00232933 0)
(0.118942 -0.00224553 0)
(0.119573 -0.00216091 0)
(0.120179 -0.00207551 0)
(0.12076 -0.00198938 0)
(0.121317 -0.00190257 0)
(0.121849 -0.00181513 0)
(0.122356 -0.00172712 0)
(0.122837 -0.00163859 0)
(0.123293 -0.00154959 0)
(0.123724 -0.00146017 0)
(0.124129 -0.0013704 0)
(0.124508 -0.00128032 0)
(0.124861 -0.00118999 0)
(0.125188 -0.00109947 0)
(0.125489 -0.00100881 0)
(0.125765 -0.000918067 0)
(0.126014 -0.000827296 0)
(0.126237 -0.00073655 0)
(0.126435 -0.000645884 0)
(0.126606 -0.000555351 0)
(0.126752 -0.000465003 0)
(0.126871 -0.000374892 0)
(0.126965 -0.00028507 0)
(0.127034 -0.000195585 0)
(0.127076 -0.000106487 0)
(0.127093 -1.78247e-05 0)
(0.127085 7.03555e-05 0)
(0.127052 0.000158008 0)
(0.126994 0.000245088 0)
(0.12691 0.000331554 0)
(0.126803 0.000417363 0)
(0.12667 0.000502477 0)
(0.126514 0.000586857 0)
(0.126333 0.000670467 0)
(0.126129 0.000753272 0)
(0.125901 0.000835238 0)
(0.125649 0.000916335 0)
(0.125375 0.000996532 0)
(0.125078 0.0010758 0)
(0.124758 0.00115411 0)
(0.124416 0.00123145 0)
(0.124052 0.00130778 0)
(0.123666 0.00138308 0)
(0.123259 0.00145734 0)
(0.122831 0.00153054 0)
(0.122382 0.00160266 0)
(0.121912 0.00167368 0)
(0.121423 0.00174359 0)
(0.120913 0.00181238 0)
(0.120384 0.00188004 0)
(0.119836 0.00194656 0)
(0.119269 0.00201194 0)
(0.118684 0.00207616 0)
(0.11808 0.00213922 0)
(0.117458 0.00220113 0)
(0.116819 0.00226186 0)
(0.116163 0.00232144 0)
(0.11549 0.00237985 0)
(0.1148 0.00243709 0)
(0.114095 0.00249318 0)
(0.113373 0.0025481 0)
(0.112636 0.00260187 0)
(0.111883 0.0026545 0)
(0.111116 0.00270599 0)
(0.110334 0.00275634 0)
(0.109538 0.00280556 0)
(0.108728 0.00285367 0)
(0.107905 0.00290067 0)
(0.107068 0.00294657 0)
(0.106218 0.00299139 0)
(0.105356 0.00303513 0)
(0.104482 0.00307781 0)
(0.103595 0.00311944 0)
(0.102696 0.00316003 0)
(0.101787 0.0031996 0)
(0.100866 0.00323815 0)
(0.0999339 0.0032757 0)
(0.0989915 0.00331227 0)
(0.0980388 0.00334786 0)
(0.0970761 0.0033825 0)
(0.0961036 0.0034162 0)
(0.0951217 0.00344898 0)
(0.0941306 0.00348084 0)
(0.0931305 0.00351181 0)
(0.0921217 0.0035419 0)
(0.0911044 0.00357112 0)
(0.090079 0.0035995 0)
(0.0890456 0.00362705 0)
(0.0880044 0.00365377 0)
(0.0869557 0.0036797 0)
(0.0858998 0.00370484 0)
(0.0848368 0.00372921 0)
(0.083767 0.00375283 0)
(0.0826905 0.0037757 0)
(0.0816077 0.00379786 0)
(0.0805186 0.0038193 0)
(0.0794235 0.00384005 0)
(0.0783226 0.00386013 0)
(0.0772161 0.00387954 0)
(0.0761042 0.00389831 0)
(0.074987 0.00391644 0)
(0.0738647 0.00393395 0)
(0.0727375 0.00395086 0)
(0.0716056 0.00396719 0)
(0.0704691 0.00398293 0)
(0.0693283 0.00399812 0)
(0.0681832 0.00401277 0)
(0.067034 0.00402688 0)
(0.0658808 0.00404047 0)
(0.0647239 0.00405356 0)
(0.0635633 0.00406616 0)
(0.0623992 0.00407828 0)
(0.0612317 0.00408993 0)
(0.060061 0.00410114 0)
(0.0588871 0.0041119 0)
(0.0577103 0.00412223 0)
(0.0565305 0.00413214 0)
(0.055348 0.00414166 0)
(0.0541629 0.00415078 0)
(0.0529752 0.00415952 0)
(0.0517851 0.00416789 0)
(0.0505927 0.00417591 0)
(0.049398 0.00418358 0)
(0.0482012 0.00419091 0)
(0.0470024 0.00419792 0)
(0.0458016 0.00420462 0)
(0.044599 0.00421101 0)
(0.0433946 0.00421711 0)
(0.0421885 0.00422292 0)
(0.0409808 0.00422846 0)
(0.0397716 0.00423373 0)
(0.0385609 0.00423874 0)
(0.0373488 0.0042435 0)
(0.0361355 0.00424803 0)
(0.0349208 0.00425232 0)
(0.033705 0.00425639 0)
(0.0324881 0.00426025 0)
(0.0312701 0.00426389 0)
(0.030051 0.00426734 0)
(0.0288311 0.00427059 0)
(0.0276102 0.00427365 0)
(0.0263885 0.00427654 0)
(0.0251661 0.00427925 0)
(0.0239428 0.00428179 0)
(0.0227189 0.00428416 0)
(0.0214943 0.00428639 0)
(0.0202692 0.00428845 0)
(0.0190434 0.00429038 0)
(0.0178172 0.00429216 0)
(0.0165904 0.0042938 0)
(0.0153632 0.0042953 0)
(0.0141356 0.00429668 0)
(0.0129076 0.00429793 0)
(0.0116793 0.00429906 0)
(0.0104507 0.00430007 0)
(0.00922186 0.00430096 0)
(0.00799275 0.00430173 0)
(0.00676343 0.00430239 0)
(0.00553395 0.00430294 0)
(0.00430433 0.00430338 0)
(0.0030746 0.0043037 0)
(0.0018448 0.00430392 0)
(0.000614944 0.00430403 0)
(0.000746814 -0.00671958 0)
(0.00224044 -0.00671934 0)
(0.003734 -0.00671885 0)
(0.00522742 -0.0067181 0)
(0.00672065 -0.0067171 0)
(0.00821363 -0.00671583 0)
(0.00970632 -0.00671429 0)
(0.0111986 -0.00671247 0)
(0.0126905 -0.00671037 0)
(0.014182 -0.00670796 0)
(0.0156728 -0.00670525 0)
(0.0171631 -0.00670222 0)
(0.0186526 -0.00669884 0)
(0.0201415 -0.00669512 0)
(0.0216294 -0.00669103 0)
(0.0231165 -0.00668656 0)
(0.0246025 -0.00668168 0)
(0.0260874 -0.00667638 0)
(0.0275712 -0.00667064 0)
(0.0290536 -0.00666442 0)
(0.0305347 -0.00665772 0)
(0.0320142 -0.0066505 0)
(0.0334921 -0.00664274 0)
(0.0349683 -0.00663441 0)
(0.0364426 -0.00662549 0)
(0.0379149 -0.00661595 0)
(0.039385 -0.00660575 0)
(0.0408529 -0.00659487 0)
(0.0423183 -0.00658328 0)
(0.0437811 -0.00657094 0)
(0.0452411 -0.00655782 0)
(0.0466982 -0.00654389 0)
(0.0481522 -0.00652911 0)
(0.0496028 -0.00651346 0)
(0.0510499 -0.00649689 0)
(0.0524932 -0.00647937 0)
(0.0539326 -0.00646086 0)
(0.0553679 -0.00644133 0)
(0.0567987 -0.00642074 0)
(0.0582249 -0.00639905 0)
(0.0596462 -0.00637623 0)
(0.0610624 -0.00635224 0)
(0.0624732 -0.00632705 0)
(0.0638783 -0.0063006 0)
(0.0652774 -0.00627288 0)
(0.0666703 -0.00624383 0)
(0.0680566 -0.00621344 0)
(0.0694361 -0.00618165 0)
(0.0708084 -0.00614844 0)
(0.0721732 -0.00611376 0)
(0.0735302 -0.0060776 0)
(0.0748791 -0.00603991 0)
(0.0762194 -0.00600066 0)
(0.0775509 -0.00595983 0)
(0.0788732 -0.00591737 0)
(0.080186 -0.00587327 0)
(0.0814887 -0.00582749 0)
(0.0827812 -0.00578001 0)
(0.0840629 -0.00573081 0)
(0.0853336 -0.00567985 0)
(0.0865928 -0.00562712 0)
(0.08784 -0.00557261 0)
(0.089075 -0.00551629 0)
(0.0902973 -0.00545814 0)
(0.0915065 -0.00539816 0)
(0.0927022 -0.00533633 0)
(0.0938839 -0.00527265 0)
(0.0950513 -0.00520711 0)
(0.0962039 -0.0051397 0)
(0.0973414 -0.00507042 0)
(0.0984632 -0.00499927 0)
(0.099569 -0.00492626 0)
(0.100658 -0.00485139 0)
(0.101731 -0.00477467 0)
(0.102786 -0.00469611 0)
(0.103824 -0.00461572 0)
(0.104843 -0.00453352 0)
(0.105844 -0.00444954 0)
(0.106826 -0.00436378 0)
(0.107789 -0.00427629 0)
(0.108732 -0.00418707 0)
(0.109655 -0.00409618 0)
(0.110558 -0.00400362 0)
(0.111439 -0.00390946 0)
(0.1123 -0.00381371 0)
(0.113139 -0.00371642 0)
(0.113956 -0.00361765 0)
(0.114751 -0.00351742 0)
(0.115524 -0.00341579 0)
(0.116274 -0.00331282 0)
(0.117 -0.00320855 0)
(0.117704 -0.00310304 0)
(0.118383 -0.00299635 0)
(0.119039 -0.00288853 0)
(0.11967 -0.00277965 0)
(0.120277 -0.00266976 0)
(0.12086 -0.00255894 0)
(0.121417 -0.00244724 0)
(0.12195 -0.00233473 0)
(0.122457 -0.00222148 0)
(0.122939 -0.00210756 0)
(0.123396 -0.00199304 0)
(0.123827 -0.00187798 0)
(0.124232 -0.00176247 0)
(0.124611 -0.00164656 0)
(0.124965 -0.00153033 0)
(0.125292 -0.00141385 0)
(0.125594 -0.00129719 0)
(0.125869 -0.00118043 0)
(0.126118 -0.00106363 0)
(0.126342 -0.000946862 0)
(0.126539 -0.0008302 0)
(0.12671 -0.00071371 0)
(0.126855 -0.000597459 0)
(0.126975 -0.000481515 0)
(0.127068 -0.000365943 0)
(0.127136 -0.000250807 0)
(0.127178 -0.000136172 0)
(0.127195 -2.20972e-05 0)
(0.127186 9.13551e-05 0)
(0.127152 0.000204126 0)
(0.127093 0.00031616 0)
(0.127009 0.000427401 0)
(0.126901 0.000537795 0)
(0.126768 0.000647293 0)
(0.12661 0.000755845 0)
(0.126429 0.000863403 0)