/*--------------------------------*- C++ -*----------------------------------*\
| =========                 |                                                 |
| \\      /  F ield         | OpenFOAM: The Open Source CFD Toolbox           |
|  \\    /   O peration     | Version:  v2012                                 |
|   \\  /    A nd           | Website:  www.openfoam.com                      |
|    \\/     M anipulation  |                                                 |
\*---------------------------------------------------------------------------*/
FoamFile
{
    version     2.0;
    format      ascii;
    class       volScalarField;
    location    "5.5";
    object      W_z;
}
// * * * * * * * * * * * * * * * * * * * * * * * * * * * * * * * * * * * * * //

dimensions      [0 0 -1 0 0 0 0];


internalField   nonuniform List<scalar> 
65536
(
-4.2722e-08
-1.11166e-07
-4.1969e-09
-5.22249e-09
-3.5094e-08
-7.28991e-08
-1.10003e-07
-1.4361e-07
-1.74387e-07
-2.04129e-07
-2.33991e-07
-2.64249e-07
-2.95e-07
-3.26434e-07
-3.58567e-07
-3.91258e-07
-4.24209e-07
-4.57102e-07
-4.89655e-07
-5.2169e-07
-5.53363e-07
-5.84906e-07
-6.16344e-07
-6.47581e-07
-6.78516e-07
-7.09216e-07
-7.39899e-07
-7.70675e-07
-8.01484e-07
-8.32156e-07
-8.62489e-07
-8.92395e-07
-9.21918e-07
-9.51076e-07
-9.79887e-07
-1.0084e-06
-1.03659e-06
-1.06435e-06
-1.09162e-06
-1.11838e-06
-1.14467e-06
-1.17062e-06
-1.19645e-06
-1.22246e-06
-1.24904e-06
-1.2766e-06
-1.30539e-06
-1.33539e-06
-1.36654e-06
-1.39874e-06
-1.4317e-06
-1.46489e-06
-1.49762e-06
-1.52923e-06
-1.55939e-06
-1.58805e-06
-1.61522e-06
-1.64092e-06
-1.66536e-06
-1.68914e-06
-1.71301e-06
-1.73753e-06
-1.7629e-06
-1.78908e-06
-1.81597e-06
-1.8434e-06
-1.87095e-06
-1.89806e-06
-1.9242e-06
-1.94927e-06
-1.97356e-06
-1.99757e-06
-2.02164e-06
-2.04595e-06
-2.07054e-06
-2.09538e-06
-2.12027e-06
-2.14471e-06
-2.16805e-06
-2.18975e-06
-2.20962e-06
-2.22791e-06
-2.24515e-06
-2.26193e-06
-2.27883e-06
-2.29644e-06
-2.31543e-06
-2.33625e-06
-2.35873e-06
-2.38208e-06
-2.40517e-06
-2.42707e-06
-2.44721e-06
-2.46526e-06
-2.48101e-06
-2.49455e-06
-2.50644e-06
-2.51756e-06
-2.52879e-06
-2.54079e-06
-2.55392e-06
-2.56818e-06
-2.58313e-06
-2.59808e-06
-2.61242e-06
-2.62575e-06
-2.63792e-06
-2.64884e-06
-2.65835e-06
-2.66628e-06
-2.67263e-06
-2.67757e-06
-2.68134e-06
-2.68437e-06
-2.68717e-06
-2.69039e-06
-2.69473e-06
-2.70073e-06
-2.70864e-06
-2.71832e-06
-2.72917e-06
-2.74033e-06
-2.75083e-06
-2.7598e-06
-2.76669e-06
-2.77119e-06
-2.77338e-06
-2.77374e-06
-2.77283e-06
-2.77098e-06
-2.76826e-06
-2.76473e-06
-2.76055e-06
-2.75607e-06
-2.75164e-06
-2.74769e-06
-2.74462e-06
-2.74299e-06
-2.74289e-06
-2.74385e-06
-2.74493e-06
-2.74516e-06
-2.74375e-06
-2.74024e-06
-2.73455e-06
-2.72718e-06
-2.71903e-06
-2.71104e-06
-2.70393e-06
-2.69792e-06
-2.69285e-06
-2.68807e-06
-2.68284e-06
-2.67638e-06
-2.66826e-06
-2.65855e-06
-2.64757e-06
-2.63562e-06
-2.62281e-06
-2.60892e-06
-2.59344e-06
-2.57586e-06
-2.55602e-06
-2.53427e-06
-2.51178e-06
-2.49007e-06
-2.47065e-06
-2.45452e-06
-2.44173e-06
-2.43158e-06
-2.42278e-06
-2.41391e-06
-2.40386e-06
-2.39216e-06
-2.37882e-06
-2.36439e-06
-2.34946e-06
-2.33454e-06
-2.31968e-06
-2.30489e-06
-2.28996e-06
-2.27453e-06
-2.25834e-06
-2.24099e-06
-2.22242e-06
-2.20281e-06
-2.1824e-06
-2.16139e-06
-2.13972e-06
-2.11737e-06
-2.09452e-06
-2.07134e-06
-2.04795e-06
-2.02413e-06
-1.99952e-06
-1.97393e-06
-1.9474e-06
-1.92015e-06
-1.89243e-06
-1.86453e-06
-1.83665e-06
-1.80897e-06
-1.78145e-06
-1.75376e-06
-1.72578e-06
-1.69742e-06
-1.66871e-06
-1.63972e-06
-1.61033e-06
-1.58038e-06
-1.54953e-06
-1.51765e-06
-1.48458e-06
-1.45036e-06
-1.41527e-06
-1.3797e-06
-1.34417e-06
-1.30902e-06
-1.27438e-06
-1.24012e-06
-1.20593e-06
-1.17152e-06
-1.13667e-06
-1.10114e-06
-1.06485e-06
-1.02799e-06
-9.90835e-07
-9.53857e-07
-9.17446e-07
-8.81789e-07
-8.46895e-07
-8.12641e-07
-7.78891e-07
-7.45559e-07
-7.12474e-07
-6.7936e-07
-6.45948e-07
-6.12112e-07
-5.77874e-07
-5.43296e-07
-5.08391e-07
-4.7313e-07
-4.37532e-07
-4.01723e-07
-3.65806e-07
-3.29766e-07
-2.93559e-07
-2.57259e-07
-2.21183e-07
-1.85859e-07
-1.51875e-07
-1.19704e-07
-8.96166e-08
-6.16468e-08
-3.56683e-08
-1.16029e-08
-1.26805e-07
-3.30554e-07
-2.33462e-07
-2.72772e-07
-3.4917e-07
-4.35125e-07
-5.18466e-07
-5.96619e-07
-6.71778e-07
-7.46573e-07
-8.22741e-07
-9.01452e-07
-9.835e-07
-1.06906e-06
-1.15764e-06
-1.24827e-06
-1.3399e-06
-1.4318e-06
-1.52354e-06
-1.61491e-06
-1.70585e-06
-1.79623e-06
-1.88594e-06
-1.97508e-06
-2.06394e-06
-2.1529e-06
-2.24213e-06
-2.33147e-06
-2.42061e-06
-2.50926e-06
-2.59721e-06
-2.68437e-06
-2.77064e-06
-2.85589e-06
-2.94012e-06
-3.02336e-06
-3.10552e-06
-3.18641e-06
-3.26592e-06
-3.34398e-06
-3.42063e-06
-3.49617e-06
-3.5712e-06
-3.64667e-06
-3.72378e-06
-3.80365e-06
-3.88707e-06
-3.97435e-06
-4.06542e-06
-4.15969e-06
-4.25597e-06
-4.35266e-06
-4.44802e-06
-4.54049e-06
-4.62896e-06
-4.71281e-06
-4.79183e-06
-4.86637e-06
-4.9375e-06
-5.00692e-06
-5.07645e-06
-5.14763e-06
-5.22146e-06
-5.2983e-06
-5.37782e-06
-5.45905e-06
-5.54054e-06
-5.6207e-06
-5.69838e-06
-5.77325e-06
-5.84584e-06
-5.91717e-06
-5.98835e-06
-6.06038e-06
-6.13375e-06
-6.20819e-06
-6.28258e-06
-6.35529e-06
-6.42466e-06
-6.48946e-06
-6.54921e-06
-6.60423e-06
-6.6558e-06
-6.70594e-06
-6.75697e-06
-6.81099e-06
-6.86948e-06
-6.93296e-06
-7.0007e-06
-7.07084e-06
-7.14078e-06
-7.20785e-06
-7.26986e-06
-7.32524e-06
-7.37338e-06
-7.41485e-06
-7.45151e-06
-7.48599e-06
-7.52083e-06
-7.55782e-06
-7.5978e-06
-7.64063e-06
-7.68522e-06
-7.72993e-06
-7.77316e-06
-7.8137e-06
-7.85082e-06
-7.88406e-06
-7.91306e-06
-7.9376e-06
-7.95775e-06
-7.97383e-06
-7.98626e-06
-7.99598e-06
-8.00459e-06
-8.01427e-06
-8.02734e-06
-8.04545e-06
-8.06924e-06
-8.09814e-06
-8.13052e-06
-8.16395e-06
-8.1955e-06
-8.22254e-06
-8.24351e-06
-8.25793e-06
-8.26613e-06
-8.26906e-06
-8.26777e-06
-8.26328e-06
-8.25632e-06
-8.24745e-06
-8.23692e-06
-8.2252e-06
-8.2132e-06
-8.20243e-06
-8.19434e-06
-8.19017e-06
-8.19008e-06
-8.19266e-06
-8.19544e-06
-8.19561e-06
-8.19094e-06
-8.18022e-06
-8.16341e-06
-8.14196e-06
-8.11843e-06
-8.09551e-06
-8.07533e-06
-8.05848e-06
-8.04429e-06
-8.03081e-06
-8.01587e-06
-7.99741e-06
-7.97421e-06
-7.94618e-06
-7.91413e-06
-7.87907e-06
-7.84145e-06
-7.8007e-06
-7.75526e-06
-7.7035e-06
-7.64488e-06
-7.58056e-06
-7.51378e-06
-7.44921e-06
-7.39135e-06
-7.3432e-06
-7.30499e-06
-7.27453e-06
-7.2479e-06
-7.22109e-06
-7.19071e-06
-7.15538e-06
-7.1149e-06
-7.07076e-06
-7.02467e-06
-6.97853e-06
-6.93303e-06
-6.88808e-06
-6.84287e-06
-6.79591e-06
-6.7463e-06
-6.69338e-06
-6.63726e-06
-6.57841e-06
-6.51714e-06
-6.45368e-06
-6.38827e-06
-6.32104e-06
-6.2526e-06
-6.18315e-06
-6.11273e-06
-6.04082e-06
-5.96671e-06
-5.88973e-06
-5.80972e-06
-5.72709e-06
-5.64266e-06
-5.55768e-06
-5.47292e-06
-5.38872e-06
-5.30486e-06
-5.22065e-06
-5.13554e-06
-5.04955e-06
-4.96267e-06
-4.87514e-06
-4.78655e-06
-4.6964e-06
-4.60366e-06
-4.50756e-06
-4.40771e-06
-4.30428e-06
-4.19836e-06
-4.09131e-06
-3.98447e-06
-3.8788e-06
-3.77461e-06
-3.6717e-06
-3.5694e-06
-3.46669e-06
-3.36266e-06
-3.25663e-06
-3.14842e-06
-3.03863e-06
-2.92826e-06
-2.81845e-06
-2.71019e-06
-2.60403e-06
-2.50018e-06
-2.39848e-06
-2.29849e-06
-2.19966e-06
-2.10134e-06
-2.00284e-06
-1.90364e-06
-1.80346e-06
-1.7022e-06
-1.59986e-06
-1.49645e-06
-1.39213e-06
-1.28712e-06
-1.18161e-06
-1.07566e-06
-9.69144e-07
-8.6215e-07
-7.55181e-07
-6.49198e-07
-5.45527e-07
-4.4565e-07
-3.50987e-07
-2.62546e-07
-1.80551e-07
-1.04575e-07
-3.40323e-08
-3.39623e-07
-7.39215e-07
-7.39821e-07
-8.0597e-07
-8.98342e-07
-1.00035e-06
-1.10276e-06
-1.20316e-06
-1.30301e-06
-1.4051e-06
-1.51205e-06
-1.62561e-06
-1.74634e-06
-1.87383e-06
-2.00696e-06
-2.14426e-06
-2.2843e-06
-2.42584e-06
-2.56792e-06
-2.70995e-06
-2.85154e-06
-2.99254e-06
-3.13303e-06
-3.27322e-06
-3.41339e-06
-3.5538e-06
-3.6945e-06
-3.83543e-06
-3.97635e-06
-4.1169e-06
-4.25678e-06
-4.39571e-06
-4.5334e-06
-4.66972e-06
-4.80469e-06
-4.93824e-06
-5.07021e-06
-5.20032e-06
-5.32817e-06
-5.45343e-06
-5.57618e-06
-5.69696e-06
-5.81681e-06
-5.93729e-06
-6.0603e-06
-6.18768e-06
-6.32088e-06
-6.46068e-06
-6.60685e-06
-6.75819e-06
-6.91274e-06
-7.06812e-06
-7.22164e-06
-7.37067e-06
-7.51301e-06
-7.64734e-06
-7.77341e-06
-7.89207e-06
-8.00522e-06
-8.11539e-06
-8.22552e-06
-8.33846e-06
-8.45636e-06
-8.57999e-06
-8.7086e-06
-8.84036e-06
-8.97286e-06
-9.10364e-06
-9.23082e-06
-9.35356e-06
-9.47237e-06
-9.58876e-06
-9.70476e-06
-9.82217e-06
-9.94183e-06
-1.00632e-05
-1.01845e-05
-1.0303e-05
-1.04161e-05
-1.05218e-05
-1.06193e-05
-1.07093e-05
-1.0794e-05
-1.08769e-05
-1.0962e-05
-1.10526e-05
-1.11507e-05
-1.12569e-05
-1.13701e-05
-1.14875e-05
-1.16052e-05
-1.17186e-05
-1.18235e-05
-1.19172e-05
-1.19992e-05
-1.20704e-05
-1.21339e-05
-1.21932e-05
-1.22524e-05
-1.23145e-05
-1.2381e-05
-1.24516e-05
-1.25248e-05
-1.25982e-05
-1.26694e-05
-1.27364e-05
-1.2798e-05
-1.28537e-05
-1.29031e-05
-1.29459e-05
-1.29817e-05
-1.30105e-05
-1.30327e-05
-1.30501e-05
-1.30652e-05
-1.30814e-05
-1.31026e-05
-1.31316e-05
-1.31697e-05
-1.32163e-05
-1.32688e-05
-1.33232e-05
-1.33752e-05
-1.34208e-05
-1.34572e-05
-1.34835e-05
-1.35001e-05
-1.35083e-05
-1.35099e-05
-1.35065e-05
-1.34993e-05
-1.34891e-05
-1.34761e-05
-1.3461e-05
-1.34452e-05
-1.34311e-05
-1.34206e-05
-1.34151e-05
-1.34149e-05
-1.34181e-05
-1.34212e-05
-1.342e-05
-1.34109e-05
-1.33923e-05
-1.33647e-05
-1.33308e-05
-1.32943e-05
-1.32593e-05
-1.32288e-05
-1.32038e-05
-1.31832e-05
-1.31637e-05
-1.31417e-05
-1.31136e-05
-1.30776e-05
-1.30337e-05
-1.29831e-05
-1.29277e-05
-1.28681e-05
-1.28033e-05
-1.27307e-05
-1.26476e-05
-1.25531e-05
-1.24491e-05
-1.2341e-05
-1.22364e-05
-1.21425e-05
-1.20642e-05
-1.20022e-05
-1.1953e-05
-1.19101e-05
-1.18668e-05
-1.18172e-05
-1.17589e-05
-1.16914e-05
-1.16176e-05
-1.15403e-05
-1.14628e-05
-1.13864e-05
-1.1311e-05
-1.12351e-05
-1.11567e-05
-1.10742e-05
-1.09868e-05
-1.08945e-05
-1.07976e-05
-1.06966e-05
-1.05918e-05
-1.0484e-05
-1.03736e-05
-1.02613e-05
-1.01471e-05
-1.00312e-05
-9.91266e-06
-9.79027e-06
-9.66284e-06
-9.52983e-06
-9.39193e-06
-9.25069e-06
-9.10816e-06
-8.9658e-06
-8.82423e-06
-8.68315e-06
-8.54204e-06
-8.40011e-06
-8.25745e-06
-8.11401e-06
-7.96994e-06
-7.82443e-06
-7.67621e-06
-7.52357e-06
-7.36497e-06
-7.19991e-06
-7.02884e-06
-6.85353e-06
-6.67638e-06
-6.49959e-06
-6.32495e-06
-6.15315e-06
-5.98387e-06
-5.81599e-06
-5.64776e-06
-5.47742e-06
-5.30396e-06
-5.12721e-06
-4.94794e-06
-4.76781e-06
-4.58861e-06
-4.41191e-06
-4.23868e-06
-4.06921e-06
-3.90319e-06
-3.7399e-06
-3.57834e-06
-3.41756e-06
-3.25666e-06
-3.09482e-06
-2.93149e-06
-2.76638e-06
-2.5995e-06
-2.43105e-06
-2.2613e-06
-2.09052e-06
-1.91885e-06
-1.74636e-06
-1.57306e-06
-1.39917e-06
-1.22541e-06
-1.05318e-06
-8.84596e-07
-7.2219e-07
-5.68461e-07
-4.25095e-07
-2.92308e-07
-1.69265e-07
-5.50262e-08
-4.04972e-07
-9.18135e-07
-1.06202e-06
-1.20898e-06
-1.35268e-06
-1.49141e-06
-1.62378e-06
-1.75129e-06
-1.87757e-06
-2.00681e-06
-2.14259e-06
-2.28722e-06
-2.4415e-06
-2.60493e-06
-2.77607e-06
-2.95313e-06
-3.13428e-06
-3.3179e-06
-3.50278e-06
-3.68803e-06
-3.87308e-06
-4.05768e-06
-4.24179e-06
-4.42559e-06
-4.60938e-06
-4.79342e-06
-4.97791e-06
-5.16283e-06
-5.34794e-06
-5.5329e-06
-5.71738e-06
-5.90103e-06
-6.08361e-06
-6.26505e-06
-6.44521e-06
-6.62389e-06
-6.80076e-06
-6.97526e-06
-7.14668e-06
-7.31451e-06
-7.4787e-06
-7.6399e-06
-7.79959e-06
-7.95996e-06
-8.12361e-06
-8.29304e-06
-8.47035e-06
-8.65667e-06
-8.85182e-06
-9.0543e-06
-9.26148e-06
-9.46991e-06
-9.67584e-06
-9.87564e-06
-1.00662e-05
-1.02456e-05
-1.04131e-05
-1.05699e-05
-1.07186e-05
-1.08631e-05
-1.10076e-05
-1.11564e-05
-1.13124e-05
-1.14771e-05
-1.16496e-05
-1.18276e-05
-1.20073e-05
-1.21851e-05
-1.23582e-05
-1.25253e-05
-1.26869e-05
-1.28451e-05
-1.30023e-05
-1.3161e-05
-1.33223e-05
-1.34858e-05
-1.36489e-05
-1.38083e-05
-1.39603e-05
-1.41022e-05
-1.42332e-05
-1.43545e-05
-1.44695e-05
-1.45827e-05
-1.46994e-05
-1.48243e-05
-1.49604e-05
-1.51082e-05
-1.52658e-05
-1.54294e-05
-1.55934e-05
-1.57521e-05
-1.58998e-05
-1.60327e-05
-1.61497e-05
-1.6252e-05
-1.63434e-05
-1.64284e-05
-1.65122e-05
-1.65986e-05
-1.66898e-05
-1.67858e-05
-1.68847e-05
-1.69838e-05
-1.70802e-05
-1.71717e-05
-1.72567e-05
-1.73345e-05
-1.74046e-05
-1.74665e-05
-1.75192e-05
-1.75623e-05
-1.75961e-05
-1.76224e-05
-1.76445e-05
-1.76671e-05
-1.76951e-05
-1.77326e-05
-1.7782e-05
-1.7843e-05
-1.79126e-05
-1.79858e-05
-1.80571e-05
-1.81212e-05
-1.81742e-05
-1.82144e-05
-1.82422e-05
-1.82591e-05
-1.82677e-05
-1.82701e-05
-1.82675e-05
-1.8261e-05
-1.82509e-05
-1.82382e-05
-1.82241e-05
-1.82112e-05
-1.82016e-05
-1.81971e-05
-1.81972e-05
-1.81998e-05
-1.82011e-05
-1.81961e-05
-1.81811e-05
-1.81541e-05
-1.81166e-05
-1.8072e-05
-1.80257e-05
-1.79825e-05
-1.7946e-05
-1.7917e-05
-1.78936e-05
-1.78716e-05
-1.78457e-05
-1.78114e-05
-1.77662e-05
-1.77101e-05
-1.76451e-05
-1.75734e-05
-1.7496e-05
-1.74114e-05
-1.73163e-05
-1.72068e-05
-1.70813e-05
-1.69427e-05
-1.67985e-05
-1.6659e-05
-1.65341e-05
-1.64305e-05
-1.6349e-05
-1.6285e-05
-1.62295e-05
-1.61731e-05
-1.61076e-05
-1.60291e-05
-1.59375e-05
-1.58362e-05
-1.57298e-05
-1.56226e-05
-1.5517e-05
-1.54129e-05
-1.53086e-05
-1.52014e-05
-1.5089e-05
-1.49702e-05
-1.48449e-05
-1.47135e-05
-1.45768e-05
-1.44351e-05
-1.42891e-05
-1.41395e-05
-1.39873e-05
-1.38328e-05
-1.36757e-05
-1.35147e-05
-1.33479e-05
-1.31734e-05
-1.29904e-05
-1.27998e-05
-1.26036e-05
-1.24048e-05
-1.22059e-05
-1.20082e-05
-1.18116e-05
-1.16157e-05
-1.14202e-05
-1.12249e-05
-1.103e-05
-1.08351e-05
-1.06389e-05
-1.04387e-05
-1.02321e-05
-1.00165e-05
-9.79123e-06
-9.55724e-06
-9.31706e-06
-9.07422e-06
-8.83205e-06
-8.59314e-06
-8.35866e-06
-8.12819e-06
-7.89996e-06
-7.67166e-06
-7.44079e-06
-7.20568e-06
-6.96621e-06
-6.72338e-06
-6.47933e-06
-6.23655e-06
-5.9971e-06
-5.76219e-06
-5.53214e-06
-5.30644e-06
-5.08417e-06
-4.86411e-06
-4.64502e-06
-4.42576e-06
-4.20537e-06
-3.98312e-06
-3.7586e-06
-3.53177e-06
-3.3029e-06
-3.07237e-06
-2.84046e-06
-2.60732e-06
-2.37296e-06
-2.13745e-06
-1.90109e-06
-1.66487e-06
-1.43067e-06
-1.20133e-06
-9.80353e-07
-7.7125e-07
-5.76412e-07
-3.96151e-07
-2.29225e-07
-7.44565e-08
-4.24785e-07
-1.00514e-06
-1.2646e-06
-1.49528e-06
-1.70009e-06
-1.88489e-06
-2.05406e-06
-2.21292e-06
-2.36761e-06
-2.52408e-06
-2.68702e-06
-2.85941e-06
-3.04248e-06
-3.23586e-06
-3.43818e-06
-3.64756e-06
-3.86202e-06
-4.07983e-06
-4.29954e-06
-4.52004e-06
-4.74057e-06
-4.96071e-06
-5.1803e-06
-5.39942e-06
-5.6183e-06
-5.83728e-06
-6.05667e-06
-6.27658e-06
-6.49696e-06
-6.71762e-06
-6.93824e-06
-7.15852e-06
-7.37834e-06
-7.59756e-06
-7.81596e-06
-8.0332e-06
-8.24862e-06
-8.46128e-06
-8.67016e-06
-8.87446e-06
-9.07391e-06
-9.26919e-06
-9.46215e-06
-9.65555e-06
-9.85266e-06
-1.00567e-05
-1.02705e-05
-1.04952e-05
-1.0731e-05
-1.09762e-05
-1.12276e-05
-1.1481e-05
-1.17315e-05
-1.19744e-05
-1.22058e-05
-1.24229e-05
-1.26246e-05
-1.28124e-05
-1.29893e-05
-1.31606e-05
-1.33321e-05
-1.35094e-05
-1.36966e-05
-1.38959e-05
-1.41064e-05
-1.43252e-05
-1.45475e-05
-1.47682e-05
-1.49834e-05
-1.51911e-05
-1.53917e-05
-1.55874e-05
-1.57815e-05
-1.59769e-05
-1.61749e-05
-1.63748e-05
-1.65739e-05
-1.67681e-05
-1.69531e-05
-1.71256e-05
-1.72848e-05
-1.74327e-05
-1.75736e-05
-1.77135e-05
-1.78589e-05
-1.80153e-05
-1.81863e-05
-1.83728e-05
-1.85721e-05
-1.87792e-05
-1.89874e-05
-1.91896e-05
-1.9379e-05
-1.95511e-05
-1.9704e-05
-1.98388e-05
-1.99595e-05
-2.00713e-05
-2.01797e-05
-2.02896e-05
-2.04034e-05
-2.05216e-05
-2.06426e-05
-2.07636e-05
-2.08819e-05
-2.09952e-05
-2.1102e-05
-2.12015e-05
-2.12927e-05
-2.13748e-05
-2.14462e-05
-2.15057e-05
-2.15531e-05
-2.159e-05
-2.16202e-05
-2.16492e-05
-2.1683e-05
-2.1727e-05
-2.17846e-05
-2.18563e-05
-2.19394e-05
-2.20285e-05
-2.21172e-05
-2.21992e-05
-2.22696e-05
-2.23258e-05
-2.23677e-05
-2.2397e-05
-2.24165e-05
-2.24287e-05
-2.24355e-05
-2.24379e-05
-2.24367e-05
-2.24324e-05
-2.24262e-05
-2.24199e-05
-2.24157e-05
-2.24147e-05
-2.24162e-05
-2.24177e-05
-2.24152e-05
-2.24042e-05
-2.23815e-05
-2.23458e-05
-2.22993e-05
-2.22468e-05
-2.21942e-05
-2.21473e-05
-2.21093e-05
-2.20808e-05
-2.20587e-05
-2.20377e-05
-2.20115e-05
-2.19747e-05
-2.19244e-05
-2.18608e-05
-2.17861e-05
-2.17032e-05
-2.16131e-05
-2.15141e-05
-2.14019e-05
-2.12719e-05
-2.11221e-05
-2.09559e-05
-2.07827e-05
-2.06152e-05
-2.0466e-05
-2.03432e-05
-2.02481e-05
-2.01744e-05
-2.01113e-05
-2.0046e-05
-1.99687e-05
-1.98735e-05
-1.97608e-05
-1.96348e-05
-1.95017e-05
-1.93673e-05
-1.9235e-05
-1.91049e-05
-1.89749e-05
-1.8842e-05
-1.87032e-05
-1.8557e-05
-1.8403e-05
-1.82417e-05
-1.80738e-05
-1.79002e-05
-1.77212e-05
-1.75382e-05
-1.73519e-05
-1.71631e-05
-1.69708e-05
-1.67732e-05
-1.65674e-05
-1.63507e-05
-1.61218e-05
-1.58819e-05
-1.56336e-05
-1.53807e-05
-1.5127e-05
-1.48746e-05
-1.46246e-05
-1.43769e-05
-1.41317e-05
-1.38891e-05
-1.3649e-05
-1.34104e-05
-1.31709e-05
-1.29266e-05
-1.26731e-05
-1.24074e-05
-1.21282e-05
-1.18373e-05
-1.1538e-05
-1.12353e-05
-1.09336e-05
-1.06365e-05
-1.03455e-05
-1.00602e-05
-9.77828e-06
-9.4965e-06
-9.21188e-06
-8.92212e-06
-8.62693e-06
-8.32767e-06
-8.02692e-06
-7.72769e-06
-7.43241e-06
-7.14241e-06
-6.85793e-06
-6.57822e-06
-6.30209e-06
-6.02826e-06
-5.75543e-06
-5.48238e-06
-5.20817e-06
-4.932e-06
-4.65342e-06
-4.37228e-06
-4.08882e-06
-3.80344e-06
-3.51643e-06
-3.22788e-06
-2.93775e-06
-2.64608e-06
-2.35326e-06
-2.0605e-06
-1.77013e-06
-1.4857e-06
-1.21166e-06
-9.52453e-07
-7.1119e-07
-4.88343e-07
-2.82316e-07
-9.16275e-08
-4.26175e-07
-1.04177e-06
-1.38285e-06
-1.68233e-06
-1.94335e-06
-2.17399e-06
-2.38143e-06
-2.57327e-06
-2.75738e-06
-2.94096e-06
-3.12962e-06
-3.32701e-06
-3.53476e-06
-3.75288e-06
-3.98025e-06
-4.21517e-06
-4.4558e-06
-4.70041e-06
-4.94744e-06
-5.19564e-06
-5.44403e-06
-5.69195e-06
-5.93907e-06
-6.1853e-06
-6.43089e-06
-6.67625e-06
-6.9218e-06
-7.16791e-06
-7.41485e-06
-7.66263e-06
-7.91112e-06
-8.16018e-06
-8.4097e-06
-8.65948e-06
-8.90922e-06
-9.15832e-06
-9.40576e-06
-9.65018e-06
-9.89016e-06
-1.01245e-05
-1.03528e-05
-1.05756e-05
-1.0795e-05
-1.10143e-05
-1.12371e-05
-1.14677e-05
-1.17091e-05
-1.19633e-05
-1.22303e-05
-1.25085e-05
-1.27943e-05
-1.30831e-05
-1.33691e-05
-1.36466e-05
-1.39106e-05
-1.41576e-05
-1.43863e-05
-1.45978e-05
-1.47961e-05
-1.49873e-05
-1.51788e-05
-1.53778e-05
-1.55897e-05
-1.58174e-05
-1.60603e-05
-1.63147e-05
-1.65748e-05
-1.68343e-05
-1.70878e-05
-1.73326e-05
-1.75686e-05
-1.77982e-05
-1.80249e-05
-1.82522e-05
-1.84816e-05
-1.87123e-05
-1.89414e-05
-1.91641e-05
-1.93757e-05
-1.95727e-05
-1.97547e-05
-1.9924e-05
-2.00861e-05
-2.02484e-05
-2.04184e-05
-2.06024e-05
-2.08042e-05
-2.10247e-05
-2.12608e-05
-2.1507e-05
-2.17553e-05
-2.19976e-05
-2.22264e-05
-2.24366e-05
-2.26254e-05
-2.27936e-05
-2.29447e-05
-2.3084e-05
-2.32171e-05
-2.33491e-05
-2.3483e-05
-2.36199e-05
-2.37588e-05
-2.38974e-05
-2.40336e-05
-2.41654e-05
-2.42916e-05
-2.44115e-05
-2.45238e-05
-2.46269e-05
-2.47186e-05
-2.47967e-05
-2.48601e-05
-2.49099e-05
-2.49497e-05
-2.49855e-05
-2.50243e-05
-2.50728e-05
-2.51358e-05
-2.52146e-05
-2.53075e-05
-2.54092e-05
-2.55127e-05
-2.56111e-05
-2.56985e-05
-2.57714e-05
-2.5829e-05
-2.58726e-05
-2.59051e-05
-2.59296e-05
-2.59486e-05
-2.59637e-05
-2.59755e-05
-2.59847e-05
-2.59918e-05
-2.59976e-05
-2.60031e-05
-2.60085e-05
-2.60128e-05
-2.60132e-05
-2.60058e-05
-2.59872e-05
-2.59553e-05
-2.59106e-05
-2.58563e-05
-2.57982e-05
-2.57428e-05
-2.56958e-05
-2.56601e-05
-2.56354e-05
-2.56176e-05
-2.56004e-05
-2.55766e-05
-2.55406e-05
-2.5489e-05
-2.54221e-05
-2.53426e-05
-2.52533e-05
-2.51557e-05
-2.50475e-05
-2.4924e-05
-2.47798e-05
-2.46129e-05
-2.44272e-05
-2.42334e-05
-2.40463e-05
-2.38807e-05
-2.37461e-05
-2.36439e-05
-2.35664e-05
-2.35006e-05
-2.3431e-05
-2.33456e-05
-2.32374e-05
-2.31068e-05
-2.29591e-05
-2.28021e-05
-2.26431e-05
-2.24866e-05
-2.23333e-05
-2.21807e-05
-2.20252e-05
-2.18635e-05
-2.16937e-05
-2.15151e-05
-2.13281e-05
-2.11337e-05
-2.09329e-05
-2.07267e-05
-2.05164e-05
-2.03028e-05
-2.00865e-05
-1.98661e-05
-1.96386e-05
-1.94001e-05
-1.91468e-05
-1.88772e-05
-1.85919e-05
-1.8295e-05
-1.79909e-05
-1.76848e-05
-1.73802e-05
-1.70794e-05
-1.67834e-05
-1.64932e-05
-1.62091e-05
-1.5931e-05
-1.56566e-05
-1.53821e-05
-1.51017e-05
-1.48095e-05
-1.45011e-05
-1.41752e-05
-1.38341e-05
-1.34826e-05
-1.31267e-05
-1.27725e-05
-1.24243e-05
-1.2084e-05
-1.17511e-05
-1.14227e-05
-1.10948e-05
-1.07636e-05
-1.04265e-05
-1.00831e-05
-9.73526e-06
-9.38592e-06
-9.03844e-06
-8.69539e-06
-8.35793e-06
-8.02592e-06
-7.69838e-06
-7.37397e-06
-7.05135e-06
-6.72949e-06
-6.40742e-06
-6.08436e-06
-5.75963e-06
-5.43281e-06
-5.10368e-06
-4.7723e-06
-4.43893e-06
-4.10379e-06
-3.76691e-06
-3.42814e-06
-3.08744e-06
-2.74526e-06
-2.40297e-06
-2.06334e-06
-1.73058e-06
-1.41005e-06
-1.10713e-06
-8.25623e-07
-5.66193e-07
-3.26941e-07
-1.06019e-07
-4.17773e-07
-1.04696e-06
-1.44126e-06
-1.79077e-06
-2.09697e-06
-2.36761e-06
-2.61058e-06
-2.8343e-06
-3.04726e-06
-3.25717e-06
-3.47014e-06
-3.69018e-06
-3.91933e-06
-4.15802e-06
-4.40551e-06
-4.66049e-06
-4.9214e-06
-5.18662e-06
-5.45464e-06
-5.72409e-06
-5.99376e-06
-6.26273e-06
-6.53037e-06
-6.7965e-06
-7.06134e-06
-7.32542e-06
-7.58942e-06
-7.85408e-06
-8.12e-06
-8.3875e-06
-8.65676e-06
-8.92782e-06
-9.20054e-06
-9.47464e-06
-9.74966e-06
-1.00247e-05
-1.02983e-05
-1.05687e-05
-1.08341e-05
-1.10927e-05
-1.13439e-05
-1.15884e-05
-1.18281e-05
-1.20666e-05
-1.23081e-05
-1.25573e-05
-1.28179e-05
-1.30922e-05
-1.33808e-05
-1.36821e-05
-1.39925e-05
-1.43068e-05
-1.4619e-05
-1.49224e-05
-1.52112e-05
-1.54811e-05
-1.57302e-05
-1.59598e-05
-1.6174e-05
-1.63799e-05
-1.65863e-05
-1.68018e-05
-1.70333e-05
-1.72845e-05
-1.75549e-05
-1.78403e-05
-1.8134e-05
-1.84283e-05
-1.87167e-05
-1.89954e-05
-1.92637e-05
-1.95238e-05
-1.97794e-05
-2.00342e-05
-2.02901e-05
-2.05462e-05
-2.07993e-05
-2.10445e-05
-2.12767e-05
-2.14928e-05
-2.16922e-05
-2.18783e-05
-2.20574e-05
-2.22377e-05
-2.24279e-05
-2.26346e-05
-2.2862e-05
-2.31106e-05
-2.33771e-05
-2.36556e-05
-2.39379e-05
-2.42153e-05
-2.44798e-05
-2.47256e-05
-2.49495e-05
-2.51511e-05
-2.53331e-05
-2.55e-05
-2.56573e-05
-2.58098e-05
-2.59611e-05
-2.61129e-05
-2.62651e-05
-2.64168e-05
-2.65664e-05
-2.6713e-05
-2.68557e-05
-2.6994e-05
-2.71265e-05
-2.72508e-05
-2.73638e-05
-2.74623e-05
-2.7544e-05
-2.76089e-05
-2.76603e-05
-2.7704e-05
-2.77478e-05
-2.77996e-05
-2.78654e-05
-2.79481e-05
-2.80469e-05
-2.81574e-05
-2.82725e-05
-2.83848e-05
-2.84874e-05
-2.85756e-05
-2.86479e-05
-2.87049e-05
-2.87498e-05
-2.8786e-05
-2.88171e-05
-2.88453e-05
-2.88719e-05
-2.88971e-05
-2.89209e-05
-2.89427e-05
-2.89617e-05
-2.89766e-05
-2.89855e-05
-2.89853e-05
-2.89729e-05
-2.89461e-05
-2.89046e-05
-2.88509e-05
-2.87898e-05
-2.87279e-05
-2.8672e-05
-2.86273e-05
-2.85959e-05
-2.85765e-05
-2.85642e-05
-2.85519e-05
-2.8532e-05
-2.84984e-05
-2.84481e-05
-2.83811e-05
-2.83003e-05
-2.82089e-05
-2.8108e-05
-2.79953e-05
-2.78657e-05
-2.77135e-05
-2.75365e-05
-2.73392e-05
-2.71336e-05
-2.6936e-05
-2.67627e-05
-2.66241e-05
-2.65214e-05
-2.64457e-05
-2.63816e-05
-2.63115e-05
-2.62211e-05
-2.61029e-05
-2.59574e-05
-2.57907e-05
-2.56125e-05
-2.54317e-05
-2.52538e-05
-2.508e-05
-2.49077e-05
-2.47328e-05
-2.45512e-05
-2.43607e-05
-2.41604e-05
-2.39512e-05
-2.37341e-05
-2.35105e-05
-2.32821e-05
-2.30504e-05
-2.28162e-05
-2.25793e-05
-2.23378e-05
-2.20874e-05
-2.18227e-05
-2.15389e-05
-2.12337e-05
-2.0908e-05
-2.05663e-05
-2.02146e-05
-1.98593e-05
-1.95055e-05
-1.91572e-05
-1.88168e-05
-1.84866e-05
-1.81672e-05
-1.78582e-05
-1.75561e-05
-1.72547e-05
-1.69463e-05
-1.6623e-05
-1.62794e-05
-1.59141e-05
-1.55301e-05
-1.51337e-05
-1.47324e-05
-1.43334e-05
-1.39419e-05
-1.35601e-05
-1.31871e-05
-1.28196e-05
-1.24529e-05
-1.20822e-05
-1.17051e-05
-1.13212e-05
-1.09328e-05
-1.05434e-05
-1.01565e-05
-9.77449e-06
-9.39792e-06
-9.02601e-06
-8.65726e-06
-8.29025e-06
-7.92383e-06
-7.5575e-06
-7.19095e-06
-6.82391e-06
-6.45602e-06
-6.08694e-06
-5.71637e-06
-5.34418e-06
-4.97028e-06
-4.59461e-06
-4.21706e-06
-3.83733e-06
-3.4553e-06
-3.07143e-06
-2.68722e-06
-2.3058e-06
-1.93206e-06
-1.57217e-06
-1.23249e-06
-9.17514e-07
-6.28144e-07
-3.62168e-07
-1.1732e-07
-4.04028e-07
-1.033e-06
-1.45828e-06
-1.84073e-06
-2.18023e-06
-2.48314e-06
-2.75692e-06
-3.00971e-06
-3.24981e-06
-3.48477e-06
-3.72062e-06
-3.96146e-06
-4.20962e-06
-4.46584e-06
-4.72989e-06
-5.00092e-06
-5.27772e-06
-5.55894e-06
-5.84314e-06
-6.12886e-06
-6.41469e-06
-6.69936e-06
-6.98197e-06
-7.26221e-06
-7.54027e-06
-7.81687e-06
-8.09311e-06
-8.37015e-06
-8.64902e-06
-8.93048e-06
-9.21503e-06
-9.50281e-06
-9.79368e-06
-1.00873e-05
-1.03828e-05
-1.0679e-05
-1.09742e-05
-1.12661e-05
-1.15523e-05
-1.18308e-05
-1.21005e-05
-1.23619e-05
-1.2617e-05
-1.28694e-05
-1.31237e-05
-1.33849e-05
-1.36571e-05
-1.39435e-05
-1.4245e-05
-1.45602e-05
-1.48859e-05
-1.52168e-05
-1.55466e-05
-1.58683e-05
-1.61753e-05
-1.64626e-05
-1.67276e-05
-1.69714e-05
-1.71984e-05
-1.74165e-05
-1.76352e-05
-1.78644e-05
-1.81124e-05
-1.83835e-05
-1.86776e-05
-1.89902e-05
-1.93136e-05
-1.96392e-05
-1.99591e-05
-2.02686e-05
-2.05661e-05
-2.08535e-05
-2.11346e-05
-2.1413e-05
-2.16908e-05
-2.19673e-05
-2.22392e-05
-2.25016e-05
-2.27495e-05
-2.29799e-05
-2.31929e-05
-2.33924e-05
-2.35853e-05
-2.37804e-05
-2.39869e-05
-2.42118e-05
-2.44592e-05
-2.47294e-05
-2.50191e-05
-2.53224e-05
-2.56313e-05
-2.59373e-05
-2.62324e-05
-2.65103e-05
-2.6767e-05
-2.7001e-05
-2.72134e-05
-2.74076e-05
-2.7588e-05
-2.77593e-05
-2.79252e-05
-2.80882e-05
-2.82496e-05
-2.84096e-05
-2.85683e-05
-2.87255e-05
-2.88813e-05
-2.90353e-05
-2.91862e-05
-2.9331e-05
-2.94655e-05
-2.95852e-05
-2.96868e-05
-2.9769e-05
-2.9834e-05
-2.98874e-05
-2.9937e-05
-2.99917e-05
-3.00588e-05
-3.01427e-05
-3.0244e-05
-3.03594e-05
-3.04824e-05
-3.06048e-05
-3.07189e-05
-3.08189e-05
-3.0902e-05
-3.09686e-05
-3.10217e-05
-3.10656e-05
-3.11048e-05
-3.1143e-05
-3.11823e-05
-3.12229e-05
-3.1264e-05
-3.13034e-05
-3.13383e-05
-3.13652e-05
-3.13807e-05
-3.13815e-05
-3.1365e-05
-3.13307e-05
-3.12804e-05
-3.12184e-05
-3.11514e-05
-3.10867e-05
-3.10312e-05
-3.09894e-05
-3.09624e-05
-3.09479e-05
-3.09403e-05
-3.0932e-05
-3.09153e-05
-3.08843e-05
-3.0836e-05
-3.07706e-05
-3.06908e-05
-3.05998e-05
-3.04987e-05
-3.03851e-05
-3.02535e-05
-3.00983e-05
-2.99176e-05
-2.97165e-05
-2.95075e-05
-2.93081e-05
-2.91353e-05
-2.9e-05
-2.89024e-05
-2.8833e-05
-2.87738e-05
-2.87055e-05
-2.86122e-05
-2.84859e-05
-2.83273e-05
-2.81442e-05
-2.79476e-05
-2.7748e-05
-2.75517e-05
-2.73603e-05
-2.71712e-05
-2.69794e-05
-2.67804e-05
-2.65713e-05
-2.63516e-05
-2.61222e-05
-2.5885e-05
-2.56419e-05
-2.53952e-05
-2.51469e-05
-2.48978e-05
-2.46469e-05
-2.43908e-05
-2.41237e-05
-2.38387e-05
-2.35299e-05
-2.31943e-05
-2.28332e-05
-2.24512e-05
-2.2056e-05
-2.16553e-05
-2.1256e-05
-2.0864e-05
-2.04837e-05
-2.01185e-05
-1.97698e-05
-1.94364e-05
-1.91135e-05
-1.87926e-05
-1.84633e-05
-1.81157e-05
-1.77435e-05
-1.73457e-05
-1.69259e-05
-1.6492e-05
-1.6053e-05
-1.56174e-05
-1.51908e-05
-1.47756e-05
-1.43703e-05
-1.39708e-05
-1.35719e-05
-1.31684e-05
-1.27579e-05
-1.23406e-05
-1.19196e-05
-1.14988e-05
-1.10816e-05
-1.06697e-05
-1.02628e-05
-9.85887e-06
-9.45572e-06
-9.05168e-06
-8.64619e-06
-8.23953e-06
-7.83253e-06
-7.42593e-06
-7.01998e-06
-6.61452e-06
-6.20909e-06
-5.80316e-06
-5.39623e-06
-4.98779e-06
-4.57736e-06
-4.16449e-06
-3.7489e-06
-3.33104e-06
-2.91256e-06
-2.49689e-06
-2.0895e-06
-1.69745e-06
-1.328e-06
-9.86397e-07
-6.73812e-07
-3.87762e-07
-1.25457e-07
-3.88253e-07
-1.0082e-06
-1.44859e-06
-1.85093e-06
-2.21367e-06
-2.54165e-06
-2.84127e-06
-3.11986e-06
-3.38498e-06
-3.64348e-06
-3.90092e-06
-4.16124e-06
-4.42677e-06
-4.69859e-06
-4.97691e-06
-5.26134e-06
-5.55112e-06
-5.84523e-06
-6.14234e-06
-6.44093e-06
-6.7393e-06
-7.03588e-06
-7.3295e-06
-7.61963e-06
-7.90647e-06
-8.19104e-06
-8.47488e-06
-8.75966e-06
-9.04701e-06
-9.33821e-06
-9.63401e-06
-9.93472e-06
-1.02402e-05
-1.05499e-05
-1.08626e-05
-1.11769e-05
-1.14905e-05
-1.18009e-05
-1.21051e-05
-1.24007e-05
-1.26863e-05
-1.29619e-05
-1.32292e-05
-1.34919e-05
-1.37548e-05
-1.4023e-05
-1.43014e-05
-1.45934e-05
-1.49006e-05
-1.52223e-05
-1.55558e-05
-1.58961e-05
-1.62367e-05
-1.65707e-05
-1.6891e-05
-1.7192e-05
-1.74707e-05
-1.77275e-05
-1.7967e-05
-1.81971e-05
-1.84282e-05
-1.86709e-05
-1.89342e-05
-1.92233e-05
-1.95383e-05
-1.98747e-05
-2.02243e-05
-2.05773e-05
-2.09252e-05
-2.12618e-05
-2.15852e-05
-2.18967e-05
-2.21996e-05
-2.24978e-05
-2.27933e-05
-2.30856e-05
-2.33719e-05
-2.36472e-05
-2.39071e-05
-2.4149e-05
-2.43734e-05
-2.45847e-05
-2.47902e-05
-2.49989e-05
-2.52197e-05
-2.54596e-05
-2.57225e-05
-2.60085e-05
-2.63147e-05
-2.66353e-05
-2.69634e-05
-2.72911e-05
-2.76109e-05
-2.79163e-05
-2.82025e-05
-2.84666e-05
-2.8708e-05
-2.89283e-05
-2.91305e-05
-2.93187e-05
-2.94966e-05
-2.96677e-05
-2.98344e-05
-2.99989e-05
-3.01623e-05
-3.03262e-05
-3.04913e-05
-3.06579e-05
-3.08244e-05
-3.09878e-05
-3.11428e-05
-3.1284e-05
-3.14063e-05
-3.15073e-05
-3.15878e-05
-3.16526e-05
-3.17095e-05
-3.17675e-05
-3.18352e-05
-3.19187e-05
-3.202e-05
-3.21368e-05
-3.22633e-05
-3.23911e-05
-3.25116e-05
-3.26177e-05
-3.27056e-05
-3.27751e-05
-3.28292e-05
-3.28732e-05
-3.29133e-05
-3.29549e-05
-3.30012e-05
-3.30532e-05
-3.31092e-05
-3.31653e-05
-3.32164e-05
-3.32567e-05
-3.32807e-05
-3.32845e-05
-3.32662e-05
-3.32263e-05
-3.31689e-05
-3.31001e-05
-3.30281e-05
-3.29611e-05
-3.29057e-05
-3.28659e-05
-3.28417e-05
-3.28298e-05
-3.28241e-05
-3.28171e-05
-3.28013e-05
-3.27712e-05
-3.2724e-05
-3.26602e-05
-3.25821e-05
-3.24928e-05
-3.2393e-05
-3.22804e-05
-3.21496e-05
-3.19956e-05
-3.18167e-05
-3.16183e-05
-3.14134e-05
-3.12197e-05
-3.10543e-05
-3.09277e-05
-3.08394e-05
-3.07784e-05
-3.07252e-05
-3.06592e-05
-3.05634e-05
-3.04298e-05
-3.02596e-05
-3.00623e-05
-2.98502e-05
-2.96348e-05
-2.94234e-05
-2.92176e-05
-2.90143e-05
-2.8808e-05
-2.85937e-05
-2.83678e-05
-2.81299e-05
-2.78814e-05
-2.76252e-05
-2.73644e-05
-2.71022e-05
-2.68408e-05
-2.6581e-05
-2.63209e-05
-2.60552e-05
-2.57765e-05
-2.54762e-05
-2.51472e-05
-2.4786e-05
-2.4394e-05
-2.39765e-05
-2.35423e-05
-2.31006e-05
-2.26603e-05
-2.2229e-05
-2.18134e-05
-2.1418e-05
-2.10453e-05
-2.06931e-05
-2.0355e-05
-2.00199e-05
-1.96749e-05
-1.93083e-05