/*--------------------------------*- C++ -*----------------------------------*\
| =========                 |                                                 |
| \\      /  F ield         | OpenFOAM: The Open Source CFD Toolbox           |
|  \\    /   O peration     | Version:  v2012                                 |
|   \\  /    A nd           | Website:  www.openfoam.com                      |
|    \\/     M anipulation  |                                                 |
\*---------------------------------------------------------------------------*/
FoamFile
{
    version     2.0;
    format      ascii;
    class       volVectorField;
    location    "0";
    object      uRec;
}
// * * * * * * * * * * * * * * * * * * * * * * * * * * * * * * * * * * * * * //

dimensions      [0 1 -1 0 0 0 0];


internalField   nonuniform List<vector> 
4000
(
(1 2.21781e-15 0)
(1 8.56395e-16 0)
(1 -1.49439e-15 0)
(1 1.45148e-16 0)
(1 1.64846e-19 0)
(1 -4.40626e-16 0)
(1 2.95925e-15 0)
(1 -1.85052e-15 0)
(1 4.85766e-15 0)
(1 -3.41096e-16 0)
(1 -4.91829e-15 0)
(1 -8.89845e-18 0)
(1 1.44531e-15 0)
(1 9.7211e-16 0)
(1 -2.02071e-15 0)
(1 7.03059e-16 0)
(1 -1.17753e-15 0)
(1 -8.9437e-16 0)
(1 2.47438e-15 0)
(1 2.42699e-15 0)
(1 -3.02776e-16 0)
(1 3.27929e-15 0)
(1 -1.87024e-15 0)
(1 2.64951e-15 0)
(1 -1.24405e-15 0)
(1 -5.94277e-16 0)
(1 9.6778e-16 0)
(1 -2.91213e-15 0)
(1 -7.01929e-16 0)
(1 -1.72587e-15 0)
(1 1.49324e-15 0)
(1 2.57029e-15 0)
(1 -1.55114e-15 0)
(1 -1.91375e-15 0)
(1 -2.37495e-16 0)
(1 -1.79708e-15 0)
(1 -1.37047e-15 0)
(1 2.02227e-15 0)
(1 2.3045e-15 0)
(1 -1.44985e-15 0)
(1 8.95719e-16 0)
(1 -3.09873e-15 0)
(1 -8.74709e-16 0)
(1 2.18101e-15 0)
(1 1.99153e-15 0)
(1 -2.10385e-15 0)
(1 5.95222e-16 0)
(1 -7.41998e-16 0)
(1 7.73869e-16 0)
(1 -3.63515e-16 0)
(1 -6.01175e-16 0)
(1 7.92067e-16 0)
(1 7.33698e-16 0)
(1 4.05025e-15 0)
(1 2.06898e-15 0)
(1 2.95243e-15 0)
(1 4.7924e-16 0)
(1 -1.92068e-16 0)
(1 -2.4871e-16 0)
(1 5.54712e-16 0)
(1 -2.07349e-15 0)
(1 -2.42004e-15 0)
(1 -1.25154e-15 0)
(1 1.34198e-15 0)
(1 9.95225e-16 0)
(1 3.78968e-16 0)
(1 -3.81759e-16 0)
(1 -1.13707e-15 0)
(1 6.55437e-16 0)
(1 -1.58351e-15 0)
(1 -4.37286e-16 0)
(1 5.14138e-16 0)
(1 -8.42846e-16 0)
(1 -1.21408e-15 0)
(1 -1.95807e-15 0)
(1 -2.29751e-15 0)
(1 -5.46192e-16 0)
(1 -2.29357e-16 0)
(1 8.20317e-17 0)
(1 1.40105e-15 0)
(1 8.31102e-16 0)
(1 1.74272e-15 0)
(1 -1.67093e-15 0)
(1 -3.92903e-16 0)
(1 -2.28373e-15 0)
(1 -1.91904e-15 0)
(1 1.0049e-15 0)
(1 1.34603e-15 0)
(1 7.44754e-16 0)
(1 1.03759e-15 0)
(1 1.3512e-16 0)
(1 -4.86977e-16 0)
(1 1.76765e-15 0)
(1 2.1866e-15 0)
(1 -6.51951e-16 0)
(1 -1.19541e-15 0)
(1 5.18454e-16 0)
(1 8.31556e-16 0)
(1 -4.91797e-16 0)
(1 -5.10606e-16 0)
(1 1.28359e-15 0)
(1 3.61842e-15 0)
(1 -1.79286e-15 0)
(1 -7.92405e-16 0)
(1 -2.65671e-15 0)
(1 8.6607e-16 0)
(1 2.72299e-15 0)
(1 -1.15376e-15 0)
(1 4.63244e-15 0)
(1 1.76664e-15 0)
(1 -2.19085e-15 0)
(1 -2.02605e-15 0)
(1 -2.97731e-16 0)
(1 -2.04619e-15 0)
(1 -3.30451e-15 0)
(1 3.40327e-15 0)
(1 2.92939e-16 0)
(1 4.08671e-16 0)
(1 2.50097e-15 0)
(1 1.97107e-15 0)
(1 -7.6614e-16 0)
(1 1.69841e-15 0)
(1 -2.27935e-15 0)
(1 1.96208e-15 0)
(1 -1.6392e-15 0)
(1 5.06097e-17 0)
(1 3.24182e-15 0)
(1 -4.99848e-15 0)
(1 -6.90639e-16 0)
(1 -4.51681e-16 0)
(1 -4.76287e-16 0)
(1 2.11676e-15 0)
(1 -3.43774e-15 0)
(1 -2.07155e-15 0)
(1 1.23058e-15 0)
(1 -1.65155e-15 0)
(1 6.31233e-16 0)
(1 3.87468e-15 0)
(1 -5.29756e-16 0)
(1 -3.173e-15 0)
(1 -3.23861e-15 0)
(1 -3.41433e-15 0)
(1 -1.29481e-15 0)
(1 1.5949e-15 0)
(1 1.24432e-15 0)
(1 -1.90867e-15 0)
(1 2.90846e-15 0)
(1 2.63206e-15 0)
(1 3.71491e-15 0)
(1 9.16353e-16 0)
(1 6.80544e-16 0)
(1 -1.32603e-15 0)
(1 1.35627e-15 0)
(1 1.12293e-15 0)
(1 1.91345e-15 0)
(1 3.536e-16 0)
(1 1.71764e-15 0)
(1 1.72399e-15 0)
(1 1.34122e-15 0)
(1 -2.76762e-15 0)
(1 -5.59857e-18 0)
(1 2.38416e-16 0)
(1 -1.13158e-15 0)
(1 9.19621e-16 0)
(1 -4.11618e-16 0)
(1 1.50591e-15 0)
(1 -2.87718e-15 0)
(1 -2.40126e-15 0)
(1 1.31813e-15 0)
(1 -1.05897e-15 0)
(1 -1.26869e-15 0)
(1 4.89517e-16 0)
(1 1.76218e-15 0)
(1 -4.83684e-16 0)
(1 4.7757e-17 0)
(1 -1.14062e-15 0)
(1 6.05483e-16 0)
(1 1.31422e-15 0)
(1 -5.29534e-16 0)
(1 2.83103e-15 0)
(1 1.89846e-15 0)
(1 5.44633e-16 0)
(1 1.30015e-16 0)
(1 -2.00468e-15 0)
(1 -1.87219e-15 0)
(1 -2.94486e-15 0)
(1 -5.60284e-16 0)
(1 6.43233e-16 0)
(1 7.46539e-16 0)
(1 1.90077e-15 0)
(1 1.29793e-16 0)
(1 -1.60032e-15 0)
(1 2.95159e-15 0)
(1 2.54128e-15 0)
(1 -3.1656e-15 0)
(1 -1.44526e-15 0)
(1 1.19686e-15 0)
(1 -1.15741e-15 0)
(1 -1.62511e-15 0)
(1 -1.35207e-15 0)
(1 -2.14551e-15 0)
(1 5.37487e-15 0)
(1 -2.52016e-15 0)
(1 7.75915e-16 0)
(1 -1.51651e-15 0)
(1 1.2989e-15 0)
(1 2.82901e-15 0)
(1 6.26886e-15 0)
(1 -2.04654e-15 0)
(1 -1.64792e-15 0)
(1 1.16551e-16 0)
(1 1.32368e-15 0)
(1 1.68873e-15 0)
(1 -1.79611e-15 0)
(1 -6.93264e-16 0)
(1 1.43074e-15 0)
(1 2.19196e-15 0)
(1 3.57654e-15 0)
(1 -1.10284e-15 0)
(1 -1.44727e-16 0)
(1 -1.20647e-15 0)
(1 -4.77298e-15 0)
(1 -8.23925e-16 0)
(1 -7.09481e-17 0)
(1 5.57021e-15 0)
(1 3.53818e-15 0)
(1 3.90053e-15 0)
(1 -3.8285e-15 0)
(1 -1.0173e-15 0)
(1 2.24487e-16 0)
(1 -1.18775e-15 0)
(1 -3.6534e-15 0)
(1 -1.66348e-15 0)
(1 -1.40894e-15 0)
(1 -1.90565e-15 0)
(1 -2.32744e-16 0)
(1 -1.51881e-15 0)
(1 3.27323e-15 0)
(1 2.9525e-15 0)
(1 -3.88561e-15 0)
(1 -2.2713e-15 0)
(1 -2.06622e-15 0)
(1 -2.98452e-16 0)
(1 -1.57974e-15 0)
(1 4.27145e-16 0)
(1 -1.59373e-15 0)
(1 1.12581e-15 0)
(1 4.71782e-15 0)
(1 4.69527e-15 0)
(1 1.84886e-15 0)
(1 4.01281e-15 0)
(1 -1.79589e-16 0)
(1 2.14643e-15 0)
(1 -2.63567e-15 0)
(1 1.47498e-15 0)
(1 -2.38566e-16 0)
(1 2.97327e-15 0)
(1 3.24926e-15 0)
(1 5.36318e-15 0)
(1 5.01421e-17 0)
(1 -1.11024e-15 0)
(1 9.41762e-16 0)
(1 -3.26358e-17 0)
(1 -2.56969e-15 0)
(1 -2.06942e-15 0)
(1 -6.52687e-16 0)
(1 -1.80105e-15 0)
(1 -3.92782e-16 0)
(1 2.38389e-15 0)
(1 4.38555e-16 0)
(1 6.07948e-16 0)
(1 -1.04852e-15 0)
(1 -9.63906e-16 0)
(1 -2.91451e-15 0)
(1 1.87091e-16 0)
(1 -1.63322e-15 0)
(1 4.44389e-16 0)
(1 -1.38706e-16 0)
(1 3.51503e-16 0)
(1 -7.20543e-16 0)
(1 -1.59031e-15 0)
(1 6.33507e-16 0)
(1 1.14205e-15 0)
(1 -1.31306e-15 0)
(1 -1.93067e-15 0)
(1 -1.01882e-15 0)
(1 -2.38965e-15 0)
(1 -6.26976e-20 0)
(1 -1.48114e-16 0)
(1 2.35181e-15 0)
(1 7.1534e-16 0)
(1 3.01955e-16 0)
(1 -9.64434e-16 0)
(1 1.39182e-15 0)
(1 -1.75795e-15 0)
(1 8.62085e-16 0)
(1 1.66171e-15 0)
(1 -3.45877e-15 0)
(1 -7.73238e-16 0)
(1 -1.11356e-15 0)
(1 -7.30901e-16 0)
(1 2.32405e-15 0)
(1 -6.49272e-16 0)
(1 -2.52383e-15 0)
(1 2.48815e-15 0)
(1 2.02992e-16 0)
(1 4.09677e-15 0)
(1 4.7262e-15 0)
(1 2.94792e-16 0)
(1 -2.10774e-15 0)
(1 -3.29101e-15 0)
(1 2.73273e-15 0)
(1 -2.07884e-15 0)
(1 2.26242e-15 0)
(1 5.13784e-15 0)
(1 -1.54278e-15 0)
(1 2.31621e-15 0)
(1 5.19103e-16 0)
(1 -2.44504e-15 0)
(1 4.38691e-15 0)
(1 -1.84978e-15 0)
(1 -7.62797e-16 0)
(1 -1.56232e-15 0)
(1 1.21061e-16 0)
(1 7.54915e-15 0)
(1 3.64603e-15 0)
(1 3.50074e-15 0)
(1 -1.50052e-15 0)
(1 2.87959e-16 0)
(1 2.89466e-16 0)
(1 -7.58716e-16 0)
(1 -2.08609e-15 0)
(1 -1.57622e-15 0)
(1 -1.76762e-15 0)
(1 -3.64998e-15 0)
(1 -3.62434e-15 0)
(1 -3.2561e-15 0)
(1 -1.88484e-15 0)
(1 3.65745e-15 0)
(1 -1.50549e-15 0)
(1 2.00755e-15 0)
(1 -2.16855e-15 0)
(1 -2.52424e-15 0)
(1 -4.32886e-16 0)
(1 1.58341e-15 0)
(1 1.28415e-15 0)
(1 -9.38593e-17 0)
(1 2.81825e-15 0)
(1 2.98216e-15 0)
(1 2.74246e-15 0)
(1 4.09648e-15 0)
(1 2.00062e-15 0)
(1 1.67242e-15 0)
(1 1.47451e-15 0)
(1 3.0457e-15 0)
(1 2.14717e-15 0)
(1 4.03689e-15 0)
(1 4.92184e-15 0)
(1 4.26139e-15 0)
(1 4.67926e-15 0)
(1 1.14214e-15 0)
(1 -4.25712e-15 0)
(1 -2.66282e-15 0)
(1 -1.75116e-15 0)
(1 -1.93604e-15 0)
(1 -5.53013e-16 0)
(1 -5.97857e-16 0)
(1 2.31554e-15 0)
(1 -4.67069e-16 0)
(1 -1.1735e-15 0)
(1 2.12225e-16 0)
(1 -2.84976e-15 0)
(1 -3.17303e-15 0)
(1 -3.35193e-15 0)
(1 -2.82324e-15 0)
(1 7.89669e-16 0)
(1 3.12621e-15 0)
(1 -5.03765e-16 0)
(1 3.01973e-15 0)
(1 -4.31117e-16 0)
(1 -4.3581e-15 0)
(1 1.54334e-15 0)
(1 -1.40671e-15 0)
(1 -4.03311e-16 0)
(1 -9.47298e-16 0)
(1 -2.72746e-15 0)
(1 8.74429e-16 0)
(1 -9.73038e-16 0)
(1 5.09683e-16 0)
(1 1.3307e-15 0)
(1 -1.11842e-15 0)
(1 1.95744e-15 0)
(1 -2.24554e-16 0)
(1 1.56937e-15 0)
(1 1.09376e-15 0)
(1 1.11873e-16 0)
(1 3.0611e-16 0)
(1 8.13811e-16 0)
(1 -3.18285e-15 0)
(1 -2.73155e-15 0)
(1 1.70193e-15 0)
(1 -1.60337e-15 0)
(1 3.48852e-15 0)
(1 -2.00664e-15 0)
(1 1.81816e-15 0)
(1 1.71395e-15 0)
(1 2.87734e-16 0)
(1 -8.09783e-16 0)
(1 4.29786e-15 0)
(1 2.35627e-15 0)
(1 1.77317e-15 0)
(1 3.8539e-15 0)
(1 -1.90716e-15 0)
(1 -1.09434e-15 0)
(1 1.66305e-15 0)
(1 6.03353e-16 0)
(1 4.33728e-15 0)
(1 1.74e-15 0)
(1 -7.48197e-16 0)
(1 -1.73625e-15 0)
(1 -9.95452e-16 0)
(1 3.02108e-15 0)
(1 3.08271e-16 0)
(1 2.21642e-15 0)
(1 -2.77748e-15 0)
(1 -1.8909e-15 0)
(1 -1.83605e-15 0)
(1 1.36966e-15 0)
(1 1.96413e-16 0)
(1 -1.35604e-15 0)
(1 -1.70557e-15 0)
(1 1.19497e-15 0)
(1 -4.6179e-15 0)
(1 2.88992e-15 0)
(1 -3.37228e-15 0)
(1 -5.36578e-15 0)
(1 -1.00475e-15 0)
(1 -3.62539e-15 0)
(1 3.56497e-16 0)
(1 2.49133e-15 0)
(1 1.60996e-15 0)
(1 -1.50267e-15 0)
(1 -4.71898e-15 0)
(1 -1.60197e-15 0)
(1 -2.33028e-15 0)
(1 4.34199e-15 0)
(1 3.21499e-15 0)
(1 5.2178e-15 0)
(1 2.55747e-15 0)
(1 2.44867e-15 0)
(1 5.68556e-16 0)
(1 3.05402e-16 0)
(1 -1.61668e-16 0)
(1 2.74367e-15 0)
(1 2.61479e-15 0)
(1 1.3825e-15 0)
(1 1.91517e-15 0)
(1 1.78711e-15 0)
(1 -5.38676e-17 0)
(1 1.47338e-15 0)
(1 5.13936e-15 0)
(1 -6.76733e-16 0)
(1 2.78763e-16 0)
(1 -2.04415e-16 0)
(1 1.03318e-15 0)
(1 2.41022e-15 0)
(1 2.22399e-15 0)
(1 2.8656e-15 0)
(1 -3.12196e-15 0)
(1 9.81921e-16 0)
(1 -3.61805e-15 0)
(1 -2.20021e-15 0)
(1 1.82506e-15 0)
(1 -3.90095e-16 0)
(1 -1.45298e-15 0)
(1 1.52964e-16 0)
(1 1.69422e-15 0)
(1 1.91835e-16 0)
(1 8.5015e-16 0)
(1 -1.47321e-15 0)
(1 -2.2505e-15 0)
(1 -2.95617e-15 0)
(1 -2.18955e-15 0)
(1 -2.56294e-15 0)
(1 1.3813e-15 0)
(1 -1.59298e-15 0)
(1 9.60798e-16 0)
(1 -8.80253e-16 0)
(1 -5.44604e-16 0)
(1 -4.74906e-16 0)
(1 -4.66501e-16 0)
(1 1.03203e-16 0)
(1 2.96851e-15 0)
(1 1.07789e-15 0)
(1 3.56078e-15 0)
(1 6.4942e-16 0)
(1 -7.82547e-16 0)
(1 1.36586e-15 0)
(1 -2.58693e-15 0)
(1 -5.72561e-16 0)
(1 5.52439e-16 0)
(1 -2.96104e-15 0)
(1 4.11006e-15 0)
(1 2.75305e-15 0)
(1 1.28959e-16 0)
(1 4.0465e-16 0)
(1 -1.0406e-15 0)
(1 3.2996e-15 0)
(1 1.80702e-15 0)
(1 2.69754e-15 0)
(1 4.4136e-15 0)
(1 3.23989e-15 0)
(1 7.84873e-16 0)
(1 -7.37968e-16 0)
(1 4.61877e-16 0)
(1 1.56317e-15 0)
(1 -7.78713e-16 0)
(1 3.16565e-16 0)
(1 -2.56725e-15 0)
(1 -5.65568e-15 0)
(1 -6.08821e-16 0)
(1 -2.95976e-16 0)
(1 7.7717e-15 0)
(1 4.87073e-15 0)
(1 7.20713e-16 0)
(1 2.0828e-15 0)
(1 2.5669e-17 0)
(1 1.26568e-15 0)
(1 -4.99051e-15 0)
(1 -2.72351e-15 0)
(1 -4.85744e-15 0)
(1 -1.01605e-15 0)
(1 -3.71249e-15 0)
(1 1.65421e-15 0)
(1 -3.30396e-15 0)
(1 -1.14911e-15 0)
(1 8.31514e-16 0)
(1 1.01432e-15 0)
(1 -7.84973e-16 0)
(1 1.28327e-15 0)
(1 4.33807e-16 0)
(1 1.18063e-15 0)
(1 -3.1561e-15 0)
(1 -4.19894e-15 0)
(1 -4.05597e-16 0)
(1 1.98235e-15 0)
(1 1.86771e-15 0)
(1 5.09264e-15 0)
(1 5.76471e-15 0)
(1 3.14334e-15 0)
(1 -5.70188e-16 0)
(1 1.49159e-15 0)
(1 3.66396e-15 0)
(1 3.47695e-15 0)
(1 3.72195e-16 0)
(1 1.9762e-15 0)
(1 2.98722e-15 0)
(1 3.08039e-15 0)
(1 3.13478e-15 0)
(1 6.24702e-15 0)
(1 1.41611e-15 0)
(1 -1.97546e-16 0)
(1 -1.19491e-15 0)
(1 -8.64341e-16 0)
(1 2.09044e-15 0)
(1 2.69916e-15 0)
(1 5.04369e-15 0)
(1 1.69497e-15 0)
(1 1.0103e-15 0)
(1 -8.90893e-16 0)
(1 3.27312e-16 0)
(1 9.44536e-17 0)
(1 2.57199e-15 0)
(1 -1.12151e-15 0)
(1 -9.53146e-16 0)
(1 -1.23182e-15 0)
(1 4.24619e-16 0)
(1 1.89029e-15 0)
(1 -3.50314e-15 0)
(1 -3.57763e-15 0)
(1 -1.62268e-15 0)
(1 -5.43365e-16 0)
(1 -1.93449e-15 0)
(1 -3.94269e-16 0)
(1 -1.51268e-15 0)
(1 -2.21897e-15 0)
(1 -3.34164e-15 0)
(1 -4.61355e-15 0)
(1 -2.97456e-15 0)
(1 -1.03832e-15 0)
(1 6.14522e-16 0)
(1 8.11239e-16 0)
(1 2.64199e-15 0)
(1 3.65662e-15 0)
(1 4.95578e-15 0)
(1 4.17404e-15 0)
(1 9.62003e-16 0)
(1 -2.38389e-15 0)
(1 2.44137e-15 0)
(1 3.20311e-15 0)
(1 -3.61143e-17 0)
(1 -1.82126e-16 0)
(1 4.33109e-15 0)
(1 3.7211e-16 0)
(1 1.50722e-15 0)
(1 -2.05981e-15 0)
(1 7.28873e-16 0)
(1 8.48695e-15 0)
(1 7.24794e-16 0)
(1 4.42205e-15 0)
(1 1.78037e-15 0)
(1 -3.00639e-16 0)
(1 -1.44733e-15 0)
(1 2.66567e-15 0)
(1 1.16664e-15 0)
(1 4.27933e-15 0)
(1 4.82477e-16 0)
(1 -2.84493e-15 0)
(1 -2.22174e-15 0)
(1 9.48709e-16 0)
(1 7.05039e-16 0)
(1 -5.77195e-15 0)
(1 4.08552e-15 0)
(1 -4.9828e-15 0)
(1 4.11986e-15 0)
(1 7.01719e-16 0)
(1 8.62034e-16 0)
(1 -2.65365e-16 0)
(1 -6.52989e-16 0)
(1 5.56873e-16 0)
(1 -7.89823e-16 0)
(1 -1.30603e-15 0)
(1 4.76223e-16 0)
(1 -3.89004e-15 0)
(1 -2.05899e-15 0)
(1 1.73499e-15 0)
(1 -1.50016e-15 0)
(1 7.44805e-16 0)
(1 -4.75621e-15 0)
(1 2.04699e-15 0)
(1 -1.04503e-15 0)
(1 6.94095e-16 0)
(1 4.49416e-16 0)
(1 -1.55737e-15 0)
(1 7.27215e-17 0)
(1 2.28661e-15 0)
(1 4.01387e-15 0)
(1 1.05513e-15 0)
(1 1.96126e-15 0)
(1 1.19332e-15 0)
(1 2.37931e-16 0)
(1 1.40968e-15 0)
(1 3.7345e-15 0)
(1 3.31457e-15 0)
(1 9.67311e-16 0)
(1 1.08894e-15 0)
(1 2.94672e-15 0)
(1 4.54261e-15 0)
(1 4.40919e-15 0)
(1 4.8602e-15 0)
(1 3.13108e-16 0)
(1 2.24877e-15 0)
(1 -7.28881e-17 0)
(1 5.84569e-16 0)
(1 -5.25923e-16 0)
(1 -9.38952e-16 0)
(1 -6.98487e-16 0)
(1 2.57942e-15 0)
(1 2.47552e-15 0)
(1 -7.92192e-16 0)
(1 4.55747e-15 0)
(1 2.12133e-15 0)
(1 -1.75806e-15 0)
(1 -2.10371e-15 0)
(1 -2.50752e-15 0)
(1 2.92218e-15 0)
(1 -4.84938e-16 0)
(1 3.02259e-15 0)
(1 -9.69167e-16 0)
(1 -1.80907e-15 0)
(1 -8.82277e-16 0)
(1 -8.71485e-16 0)
(1 -1.31408e-16 0)
(1 -8.36794e-16 0)
(1 -1.60294e-15 0)
(1 5.58806e-16 0)
(1 -1.63298e-15 0)
(1 -6.65294e-16 0)
(1 -7.70912e-16 0)
(1 -1.02491e-15 0)
(1 -3.35992e-16 0)
(1 1.74253e-15 0)
(1 3.50887e-15 0)
(1 3.62491e-15 0)
(1 1.18672e-15 0)
(1 3.80114e-15 0)
(1 1.63402e-15 0)
(1 8.63223e-16 0)
(1 2.53587e-15 0)
(1 1.70269e-15 0)
(1 -6.6915e-16 0)
(1 1.03169e-15 0)
(1 -1.60049e-15 0)
(1 8.48201e-16 0)
(1 2.63169e-15 0)
(1 1.7585e-15 0)
(1 3.20914e-17 0)
(1 3.66936e-15 0)
(1 6.32643e-15 0)
(1 7.60131e-15 0)
(1 3.72562e-15 0)
(1 -3.01176e-15 0)
(1 1.16401e-15 0)
(1 2.52722e-16 0)
(1 9.23637e-16 0)
(1 4.36852e-15 0)
(1 3.02193e-15 0)
(1 4.59839e-15 0)
(1 7.60486e-16 0)
(1 -2.5048e-15 0)
(1 -3.97183e-16 0)
(1 -6.51493e-15 0)
(1 1.40972e-16 0)
(1 -3.11036e-15 0)
(1 -4.14265e-15 0)
(1 -8.30781e-15 0)
(1 -5.77848e-15 0)
(1 -1.99939e-15 0)
(1 3.39085e-15 0)
(1 5.74834e-15 0)
(1 7.87725e-15 0)
(1 -2.97362e-16 0)
(1 8.30995e-16 0)
(1 -5.79607e-15 0)
(1 -4.06966e-15 0)
(1 -1.44945e-15 0)
(1 -1.95326e-15 0)
(1 -1.39274e-15 0)
(1 1.41176e-15 0)
(1 5.14958e-15 0)
(1 4.52696e-16 0)
(1 -2.28379e-15 0)
(1 -4.97062e-17 0)
(1 -4.35405e-15 0)
(1 -3.01336e-15 0)
(1 3.90537e-15 0)
(1 6.2224e-15 0)
(1 3.80475e-15 0)
(1 -1.52015e-15 0)
(1 1.78139e-15 0)
(1 3.52942e-15 0)
(1 1.79244e-15 0)
(1 -1.51378e-15 0)
(1 4.29853e-15 0)
(1 6.63383e-15 0)
(1 7.92005e-15 0)
(1 1.87491e-15 0)
(1 2.00547e-15 0)
(1 2.31552e-15 0)
(1 -1.6644e-15 0)
(1 -2.22352e-15 0)
(1 4.66832e-15 0)
(1 6.37433e-15 0)
(1 5.97254e-15 0)
(1 1.65849e-15 0)
(1 9.95861e-16 0)
(1 1.4074e-15 0)
(1 -3.68998e-17 0)
(1 2.0395e-15 0)
(1 2.01408e-15 0)
(1 1.90486e-15 0)
(1 6.32507e-16 0)
(1 1.57426e-16 0)
(1 -2.33416e-15 0)
(1 -4.46841e-16 0)
(1 2.87051e-15 0)
(1 -1.05657e-15 0)
(1 -1.679e-15 0)
(1 -2.15499e-15 0)
(1 -2.94379e-15 0)
(1 -1.77227e-16 0)
(1 -2.81272e-15 0)
(1 4.69038e-16 0)
(1 -6.42556e-16 0)
(1 -3.60966e-15 0)
(1 -8.50028e-16 0)
(1 -5.85425e-16 0)
(1 1.06074e-15 0)
(1 1.06609e-15 0)
(1 -3.54478e-15 0)
(1 -1.14392e-15 0)
(1 1.09365e-15 0)
(1 3.08713e-15 0)
(1 3.24238e-15 0)
(1 2.65304e-15 0)
(1 3.45643e-15 0)
(1 1.87797e-16 0)
(1 1.35036e-15 0)
(1 3.42219e-15 0)
(1 3.60279e-15 0)
(1 -1.13193e-15 0)
(1 -6.68197e-16 0)
(1 -3.25436e-15 0)
(1 8.91062e-16 0)
(1 4.16549e-16 0)
(1 6.45165e-15 0)
(1 2.02773e-15 0)
(1 -1.57025e-15 0)
(1 6.65597e-15 0)
(1 1.23482e-15 0)
(1 1.86683e-15 0)
(1 -1.28527e-15 0)
(1 1.09095e-15 0)
(1 4.02574e-15 0)
(1 2.50788e-15 0)
(1 3.32648e-15 0)
(1 -6.6163e-18 0)
(1 4.12812e-15 0)
(1 3.86607e-15 0)
(1 -3.19871e-15 0)
(1 -6.04379e-15 0)
(1 -2.26327e-15 0)
(1 -4.20871e-16 0)
(1 3.4406e-15 0)
(1 -2.66157e-15 0)
(1 -5.40175e-15 0)
(1 -2.04244e-15 0)
(1 -4.20533e-15 0)
(1 5.3023e-16 0)
(1 3.3375e-15 0)
(1 3.29092e-15 0)
(1 -2.09336e-15 0)
(1 -9.89521e-16 0)
(1 -3.0949e-15 0)
(1 -4.71153e-15 0)
(1 -1.29963e-15 0)
(1 4.3426e-16 0)
(1 2.14466e-15 0)
(1 1.22346e-15 0)
(1 -1.89795e-16 0)
(1 -2.66463e-15 0)
(1 -1.05532e-15 0)
(1 3.38925e-16 0)
(1 -1.03086e-15 0)
(1 4.5924e-15 0)
(1 -1.02355e-15 0)
(1 3.53752e-15 0)
(1 1.47845e-15 0)
(1 -1.54932e-15 0)
(1 1.84431e-15 0)
(1 2.38079e-15 0)
(1 4.84848e-15 0)
(1 8.10026e-16 0)
(1 5.61856e-15 0)
(1 8.29395e-15 0)
(1 6.64757e-15 0)
(1 6.26215e-15 0)
(1 -4.28296e-16 0)
(1 5.73848e-15 0)
(1 6.63153e-16 0)
(1 4.08332e-15 0)
(1 6.1922e-16 0)
(1 2.30734e-15 0)
(1 6.17203e-15 0)
(1 -3.9595e-15 0)
(1 1.3827e-15 0)
(1 1.0109e-16 0)
(1 -9.0142e-16 0)
(1 7.23162e-15 0)
(1 4.58742e-15 0)
(1 4.59307e-15 0)
(1 -1.70099e-16 0)
(1 2.4505e-15 0)
(1 -9.84456e-16 0)
(1 4.92439e-16 0)
(1 2.10092e-15 0)
(1 -6.97718e-16 0)
(1 -6.31746e-16 0)
(1 4.87569e-16 0)
(1 1.84889e-15 0)
(1 4.8315e-16 0)
(1 8.71309e-16 0)
(1 -2.42778e-15 0)
(1 -1.71606e-15 0)
(1 -5.01224e-15 0)
(1 -4.47434e-15 0)
(1 -2.39276e-15 0)
(1 -1.72027e-15 0)
(1 -1.01421e-15 0)
(1 -1.26678e-15 0)
(1 -2.02393e-15 0)
(1 5.12774e-16 0)
(1 1.55939e-15 0)
(1 4.18562e-15 0)
(1 5.1699e-15 0)
(1 4.66366e-15 0)
(1 3.20462e-15 0)
(1 3.63176e-15 0)
(1 6.12368e-15 0)
(1 6.02211e-15 0)
(1 2.88679e-16 0)
(1 2.99669e-16 0)
(1 2.57022e-15 0)
(1 -1.29142e-15 0)
(1 2.0284e-15 0)
(1 -2.81406e-15 0)
(1 3.42312e-15 0)
(1 2.49386e-15 0)
(1 4.46307e-15 0)
(1 1.75916e-15 0)
(1 1.75279e-16 0)
(1 7.43153e-15 0)
(1 2.33318e-15 0)
(1 3.49577e-15 0)
(1 1.7601e-15 0)
(1 -1.3774e-15 0)
(1 -2.33233e-15 0)
(1 6.51368e-16 0)
(1 1.98551e-15 0)
(1 4.69036e-15 0)
(1 -2.26695e-15 0)
(1 -1.46491e-15 0)
(1 -9.7277e-15 0)
(1 -1.30914e-15 0)
(1 1.09347e-15 0)
(1 2.0927e-15 0)
(1 -2.08596e-15 0)
(1 2.65657e-16 0)
(1 3.6412e-16 0)
(1 -2.36591e-15 0)
(1 -2.29373e-15 0)
(1 2.03703e-15 0)
(1 1.49566e-16 0)
(1 9.78371e-16 0)
(1 2.45804e-16 0)
(1 -1.6814e-15 0)
(1 -5.20666e-15 0)
(1 -3.77588e-16 0)
(1 -4.37917e-15 0)
(1 -6.00277e-15 0)
(1 -3.06031e-15 0)
(1 1.83615e-15 0)
(1 2.57254e-15 0)
(1 3.1435e-15 0)
(1 6.28864e-15 0)
(1 -7.80877e-16 0)
(1 1.07668e-15 0)
(1 4.97712e-16 0)
(1 1.31222e-15 0)
(1 2.47379e-15 0)
(1 -1.4128e-15 0)
(1 -1.27674e-15 0)
(1 4.30554e-15 0)
(1 4.85574e-15 0)
(1 8.35464e-15 0)
(1 5.41633e-15 0)
(1 3.47194e-15 0)
(1 -1.93985e-15 0)
(1 4.02632e-15 0)
(1 4.80063e-15 0)
(1 5.98276e-15 0)
(1 4.68612e-15 0)
(1 5.74712e-16 0)
(1 2.67881e-15 0)
(1 2.16281e-15 0)
(1 -8.72148e-16 0)
(1 2.54021e-15 0)
(1 2.95046e-15 0)
(1 6.54306e-15 0)
(1 5.94367e-15 0)
(1 5.77369e-15 0)
(1 1.43727e-15 0)
(1 -6.97362e-17 0)
(1 2.19738e-16 0)
(1 6.3798e-16 0)
(1 -9.95151e-16 0)
(1 -3.39606e-16 0)
(1 -1.70149e-15 0)
(1 1.30221e-15 0)
(1 -1.33419e-16 0)
(1 1.16122e-15 0)
(1 -6.02252e-17 0)
(1 -2.46072e-15 0)
(1 -1.51591e-15 0)
(1 -4.80681e-15 0)
(1 -2.34706e-15 0)
(1 2.65852e-16 0)
(1 4.86396e-16 0)
(1 -2.93477e-15 0)
(1 -9.6687e-16 0)
(1 1.71215e-15 0)
(1 3.27588e-16 0)
(1 1.25612e-15 0)
(1 -6.52024e-16 0)
(1 6.84683e-15 0)
(1 1.79786e-15 0)
(1 3.81283e-15 0)
(1 5.59982e-15 0)
(1 5.94384e-15 0)
(1 6.64006e-15 0)
(1 -8.06963e-17 0)
(1 5.07671e-16 0)
(1 1.62681e-15 0)
(1 1.35822e-15 0)
(1 -1.12837e-15 0)
(1 -4.09679e-15 0)
(1 3.52721e-15 0)
(1 1.74129e-15 0)
(1 3.87005e-15 0)
(1 7.27017e-15 0)
(1 2.24914e-15 0)
(1 4.64365e-15 0)
(1 -9.69445e-16 0)
(1 -3.88158e-16 0)
(1 -7.13479e-16 0)
(1 -2.71325e-15 0)
(1 2.98009e-15 0)
(1 2.8225e-15 0)
(1 3.61106e-15 0)
(1 2.21911e-15 0)
(1 -3.31653e-15 0)
(1 -3.8545e-15 0)
(1 -8.51891e-15 0)
(1 -2.31825e-15 0)
(1 -4.82465e-15 0)
(1 6.68797e-15 0)
(1 3.14379e-15 0)
(1 4.17057e-15 0)
(1 -7.80453e-16 0)
(1 -4.72288e-15 0)
(1 -3.72643e-15 0)
(1 1.29245e-16 0)
(1 -1.15947e-15 0)
(1 4.32835e-16 0)
(1 -2.29563e-16 0)
(1 -5.00991e-15 0)
(1 -2.75814e-15 0)
(1 -4.57867e-15 0)
(1 -5.18586e-15 0)
(1 -3.19197e-15 0)
(1 7.95466e-16 0)
(1 7.18646e-16 0)
(1 1.00768e-15 0)
(1 1.07782e-15 0)
(1 2.31742e-15 0)
(1 2.86378e-15 0)
(1 1.50712e-15 0)
(1 1.57912e-15 0)
(1 6.18619e-15 0)
(1 1.63738e-15 0)
(1 2.55238e-15 0)
(1 2.14684e-15 0)
(1 5.48732e-15 0)
(1 6.93134e-15 0)
(1 6.20261e-15 0)
(1 4.381e-15 0)
(1 3.01385e-15 0)
(1 2.10317e-15 0)
(1 2.94241e-15 0)
(1 2.48357e-15 0)
(1 3.51036e-15 0)
(1 5.49411e-15 0)
(1 2.27829e-15 0)
(1 1.97628e-15 0)
(1 5.83168e-15 0)
(1 2.16615e-15 0)
(1 1.69382e-15 0)
(1 1.97588e-15 0)
(1 -4.88675e-15 0)
(1 7.40123e-16 0)
(1 3.58328e-15 0)
(1 6.61033e-15 0)
(1 3.04332e-15 0)
(1 1.44896e-15 0)
(1 -1.8812e-16 0)
(1 -4.54279e-15 0)
(1 3.30776e-15 0)
(1 -2.41863e-15 0)
(1 -3.51125e-15 0)
(1 1.57759e-15 0)
(1 3.22441e-15 0)
(1 1.82575e-15 0)
(1 4.32035e-15 0)
(1 -7.98865e-16 0)
(1 -3.50455e-15 0)
(1 -2.00093e-15 0)
(1 -2.36271e-15 0)
(1 -4.63078e-15 0)
(1 -4.08014e-15 0)
(1 -4.84779e-15 0)
(1 5.54032e-15 0)
(1 -6.02829e-16 0)
(1 1.5586e-15 0)
(1 5.578e-16 0)
(1 4.79108e-15 0)
(1 3.37493e-15 0)
(1 3.50054e-15 0)
(1 3.91662e-15 0)
(1 3.41809e-15 0)
(1 5.05776e-15 0)
(1 -4.27637e-16 0)
(1 1.2943e-15 0)
(1 -1.12785e-16 0)
(1 3.18047e-15 0)
(1 -3.03529e-15 0)
(1 4.75647e-15 0)
(1 -1.44241e-16 0)
(1 2.53808e-15 0)
(1 2.12961e-15 0)
(1 3.602e-15 0)
(1 3.60101e-15 0)
(1 -1.64635e-15 0)
(1 5.24835e-16 0)
(1 1.19261e-15 0)
(1 3.26451e-15 0)
(1 -8.12197e-16 0)
(1 -7.16349e-17 0)
(1 -3.91694e-15 0)
(1 5.47394e-15 0)
(1 -2.88708e-15 0)
(1 -2.193e-15 0)
(1 1.31747e-15 0)
(1 1.76777e-15 0)
(1 -2.50861e-15 0)
(1 -1.07044e-15 0)
(1 -4.61329e-16 0)
(1 2.69171e-15 0)
(1 1.30027e-15 0)
(1 1.187e-15 0)
(1 -3.19354e-15 0)
(1 -1.80517e-15 0)
(1 -1.2833e-15 0)
(1 -5.03243e-15 0)
(1 -3.62501e-15 0)
(1 -4.68387e-15 0)
(1 -3.01905e-15 0)
(1 -2.23342e-15 0)
(1 -4.24365e-15 0)
(1 -1.30805e-15 0)
(1 2.46751e-16 0)
(1 3.12923e-15 0)
(1 1.16713e-15 0)
(1 -1.84799e-15 0)
(1 4.70125e-15 0)
(1 2.46048e-15 0)
(1 6.76663e-16 0)
(1 2.26189e-15 0)
(1 -2.9967e-15 0)
(1 4.56054e-15 0)
(1 2.13455e-15 0)
(1 3.78564e-15 0)
(1 4.32929e-15 0)
(1 4.20351e-15 0)
(1 5.25837e-15 0)
(1 3.65887e-15 0)
(1 -3.50859e-15 0)
(1 1.08594e-15 0)
(1 2.70134e-15 0)
(1 3.8759e-15 0)
(1 2.31089e-15 0)
(1 7.15978e-15 0)
(1 6.06915e-15 0)
(1 7.98383e-15 0)
(1 2.48771e-15 0)
(1 2.84466e-15 0)
(1 4.31549e-15 0)
(1 -1.64489e-16 0)
(1 1.05884e-15 0)
(1 -4.75186e-16 0)
(1 2.40507e-16 0)
(1 4.98269e-15 0)
(1 3.98517e-15 0)
(1 -1.93002e-15 0)
(1 -6.65332e-16 0)
(1 -4.27315e-16 0)
(1 -4.1523e-15 0)
(1 -7.99862e-16 0)
(1 -5.82179e-16 0)
(1 -2.1419e-15 0)
(1 4.07649e-15 0)
(1 3.43643e-15 0)
(1 1.07048e-15 0)
(1 2.56524e-15 0)
(1 -3.64298e-15 0)
(1 1.1505e-16 0)
(1 3.74044e-16 0)
(1 -4.40846e-15 0)
(1 -3.95464e-15 0)
(1 -1.37062e-15 0)
(1 1.33714e-15 0)
(1 2.65254e-15 0)
(1 -2.26689e-15 0)
(1 -1.1663e-15 0)
(1 9.57707e-16 0)
(1 2.19359e-15 0)
(1 5.78096e-15 0)
(1 4.73625e-15 0)
(1 4.77079e-15 0)
(1 2.82074e-15 0)
(1 2.03379e-15 0)
(1 2.27809e-16 0)
(1 8.57883e-16 0)
(1 -6.89575e-16 0)
(1 -1.63017e-15 0)
(1 2.28566e-15 0)
(1 6.15973e-16 0)
(1 -2.24057e-16 0)
(1 1.96305e-15 0)
(1 4.98121e-16 0)
(1 3.15766e-15 0)
(1 4.16905e-15 0)
(1 -9.81568e-16 0)
(1 1.59474e-15 0)
(1 3.35034e-16 0)
(1 3.35193e-15 0)
(1 -9.06178e-16 0)
(1 -3.03521e-15 0)
(1 -6.75193e-16 0)
(1 4.93788e-15 0)
(1 3.51286e-15 0)
(1 4.84836e-15 0)
(1 3.33852e-15 0)
(1 -4.62808e-15 0)
(1 -7.83135e-15 0)
(1 2.22938e-15 0)
(1 -2.99638e-15 0)
(1 -2.49785e-15 0)
(1 -1.67967e-15 0)
(1 2.35216e-15 0)
(1 3.42931e-16 0)
(1 -4.14853e-15 0)
(1 -2.92085e-15 0)
(1 -5.76192e-15 0)
(1 -7.07943e-15 0)
(1 9.39849e-16 0)
(1 -2.79531e-15 0)
(1 -8.05107e-16 0)
(1 -5.97951e-15 0)
(1 -5.93449e-16 0)
(1 1.52485e-15 0)
(1 4.10441e-15 0)
(1 2.88567e-15 0)
(1 -2.03998e-15 0)
(1 2.86466e-15 0)
(1 -4.25509e-16 0)
(1 4.57638e-15 0)
(1 3.10567e-15 0)
(1 3.12283e-15 0)
(1 -7.66353e-16 0)
(1 3.41173e-15 0)
(1 3.94901e-15 0)
(1 2.61114e-15 0)
(1 5.78252e-15 0)
(1 5.23808e-15 0)
(1 2.8211e-15 0)
(1 4.45773e-15 0)
(1 2.00707e-15 0)
(1 3.87128e-15 0)
(1 -2.85338e-15 0)
(1 1.26967e-15 0)
(1 -5.80234e-16 0)
(1 2.00934e-15 0)
(1 3.4561e-15 0)
(1 3.9596e-15 0)
(1 6.01867e-15 0)
(1 5.20485e-15 0)
(1 5.61001e-15 0)
(1 3.1848e-15 0)
(1 2.88813e-15 0)
(1 4.77113e-16 0)
(1 -6.11122e-15 0)
(1 -2.00761e-15 0)
(1 2.99619e-16 0)
(1 2.39572e-15 0)
(1 1.36115e-15 0)
(1 1.00235e-15 0)
(1 -3.43642e-15 0)
(1 3.62928e-16 0)
(1 2.45682e-15 0)
(1 -1.59311e-15 0)
(1 -1.72833e-15 0)
(1 -1.96877e-15 0)
(1 -1.3696e-15 0)
(1 -5.0973e-16 0)
(1 1.44705e-15 0)
(1 -6.32636e-16 0)
(1 -1.73011e-15 0)
(1 9.22734e-16 0)
(1 7.78572e-16 0)
(1 3.52929e-15 0)
(1 -2.41103e-15 0)
(1 -2.69707e-16 0)
(1 -1.45065e-16 0)
(1 -1.21486e-15 0)
(1 1.75289e-15 0)
(1 2.72894e-15 0)
(1 1.78128e-16 0)
(1 2.04319e-15 0)
(1 1.04179e-15 0)
(1 2.20537e-16 0)
(1 6.33495e-16 0)
(1 4.25085e-16 0)
(1 -1.00282e-15 0)
(1 -2.98288e-16 0)
(1 2.65835e-15 0)
(1 9.76571e-16 0)
(1 1.30577e-15 0)
(1 -7.16391e-16 0)
(1 5.35862e-17 0)
(1 3.94682e-15 0)
(1 4.47192e-15 0)
(1 3.5302e-15 0)
(1 -2.34593e-16 0)
(1 -1.71087e-15 0)
(1 -2.90908e-15 0)
(1 2.83969e-15 0)
(1 -1.5585e-16 0)
(1 3.79789e-15 0)
(1 -4.94498e-15 0)
(1 1.66682e-15 0)
(1 2.10593e-15 0)
(1 4.53591e-15 0)
(1 -2.81499e-15 0)
(1 -2.51683e-15 0)
(1 -2.43291e-15 0)
(1 1.24831e-15 0)
(1 2.08634e-15 0)
(1 -1.64154e-15 0)
(1 3.24696e-15 0)
(1 -7.00677e-16 0)
(1 -1.91487e-15 0)
(1 -8.33914e-15 0)
(1 -4.29002e-15 0)
(1 -4.11158e-15 0)
(1 -5.97305e-15 0)
(1 -4.11671e-15 0)
(1 8.39986e-16 0)
(1 -4.29595e-15 0)
(1 2.12929e-15 0)
(1 -2.18958e-15 0)
(1 -1.24511e-15 0)
(1 -2.30334e-16 0)
(1 7.61096e-15 0)
(1 4.20983e-15 0)
(1 1.99651e-15 0)
(1 6.1589e-15 0)
(1 -7.35107e-16 0)
(1 6.88268e-15 0)
(1 -2.80933e-15 0)
(1 -4.76443e-16 0)
(1 -3.2181e-15 0)
(1 6.48221e-16 0)
(1 6.15285e-15 0)
(1 7.54637e-15 0)
(1 1.20096e-15 0)
(1 9.89757e-15 0)
(1 4.20532e-15 0)
(1 4.14999e-15 0)
(1 1.67426e-16 0)
(1 2.5382e-15 0)
(1 9.46328e-16 0)
(1 2.97741e-16 0)
(1 9.11705e-17 0)
(1 7.45799e-15 0)
(1 1.49305e-15 0)
(1 3.64267e-15 0)
(1 5.79282e-15 0)
(1 4.25082e-15 0)
(1 1.00956e-15 0)
(1 2.24631e-16 0)
(1 -4.76968e-15 0)
(1 4.03654e-15 0)
(1 3.57895e-15 0)
(1 2.96074e-15 0)
(1 3.71983e-16 0)
(1 3.96858e-15 0)
(1 -6.53253e-16 0)
(1 1.95881e-15 0)
(1 -1.44871e-16 0)
(1 -4.94266e-15 0)
(1 -6.67747e-16 0)
(1 1.90918e-16 0)
(1 -3.60126e-15 0)
(1 1.08514e-15 0)
(1 7.10337e-17 0)
(1 -1.62181e-15 0)
(1 -1.73894e-15 0)
(1 1.44532e-15 0)
(1 4.45785e-16 0)
(1 6.57262e-16 0)
(1 1.05682e-17 0)
(1 4.07901e-16 0)
(1 6.34542e-16 0)
(1 2.65349e-15 0)
(1 -2.3597e-16 0)
(1 2.14428e-15 0)
(1 -2.03474e-16 0)
(1 3.16571e-15 0)
(1 -3.93973e-16 0)
(1 -1.27033e-15 0)
(1 -6.30179e-18 0)
(1 1.23693e-15 0)
(1 -1.059e-16 0)
(1 1.41623e-15 0)
(1 -1.65844e-17 0)
(1 2.84854e-15 0)
(1 -1.27914e-15 0)
(1 -1.15866e-16 0)
(1 3.2498e-15 0)
(1 -1.6352e-15 0)
(1 6.38668e-15 0)
(1 5.00244e-15 0)
(1 3.82647e-15 0)
(1 -5.08973e-15 0)
(1 -4.3229e-15 0)
(1 2.09496e-15 0)
(1 -3.41154e-15 0)
(1 3.91085e-15 0)
(1 -6.35846e-15 0)
(1 3.01917e-15 0)
(1 5.16769e-15 0)
(1 1.8967e-16 0)
(1 3.21498e-15 0)
(1 -2.35463e-15 0)
(1 -5.65575e-15 0)
(1 -5.00202e-15 0)
(1 -2.2017e-15 0)
(1 -2.82809e-16 0)
(1 5.75323e-16 0)
(1 -2.1342e-15 0)
(1 -2.08195e-15 0)
(1 -2.73429e-15 0)
(1 -1.52038e-15 0)
(1 -1.3799e-15 0)
(1 -4.28946e-15 0)
(1 -4.7888e-16 0)
(1 -5.17359e-15 0)
(1 -1.20615e-15 0)
(1 1.68748e-15 0)
(1 -3.47855e-15 0)
(1 -3.71126e-15 0)
(1 -1.03859e-15 0)
(1 8.05439e-15 0)
(1 2.76984e-15 0)
(1 5.13597e-15 0)
(1 1.95991e-15 0)
(1 -4.11547e-15 0)
(1 2.27104e-15 0)
(1 -9.60758e-16 0)
(1 -2.35669e-15 0)
(1 -7.4683e-16 0)
(1 3.41805e-15 0)
(1 7.36806e-15 0)
(1 7.03817e-15 0)
(1 7.58358e-15 0)
(1 7.14331e-15 0)
(1 2.88798e-15 0)
(1 5.516e-15 0)
(1 3.54137e-15 0)
(1 1.21606e-15 0)
(1 3.97087e-15 0)
(1 1.81568e-16 0)
(1 5.11612e-15 0)
(1 2.27872e-15 0)
(1 4.53447e-15 0)
(1 4.77977e-15 0)
(1 5.36177e-15 0)
(1 3.39154e-15 0)
(1 3.92886e-15 0)
(1 2.12046e-15 0)
(1 4.7922e-15 0)
(1 9.844e-16 0)
(1 -6.9611e-16 0)
(1 8.33778e-16 0)
(1 -5.82176e-16 0)
(1 9.80161e-16 0)
(1 1.83793e-16 0)
(1 2.56658e-15 0)
(1 -1.90304e-15 0)
(1 -4.92216e-15 0)
(1 4.13033e-16 0)
(1 -1.76781e-16 0)
(1 -3.02153e-15 0)
(1 -4.70172e-16 0)
(1 -2.01675e-15 0)
(1 -8.15794e-16 0)
(1 -1.76818e-15 0)
(1 1.92352e-15 0)
(1 -2.28141e-16 0)
(1 -2.03515e-15 0)
(1 -7.76202e-16 0)
(1 -1.24829e-15 0)
(1 -8.56716e-17 0)
(1 2.47411e-15 0)
(1 1.11067e-15 0)
(1 5.23004e-17 0)
(1 -2.42984e-15 0)
(1 1.06116e-15 0)
(1 2.6086e-15 0)
(1 2.62975e-15 0)
(1 -6.16219e-16 0)
(1 1.13586e-15 0)
(1 1.52152e-15 0)
(1 -1.64015e-16 0)
(1 3.97367e-15 0)
(1 2.8534e-15 0)
(1 3.71535e-15 0)
(1 1.54487e-15 0)
(1 2.40183e-15 0)
(1 -2.28644e-15 0)
(1 -9.55619e-16 0)
(1 4.30885e-16 0)
(1 2.11481e-15 0)
(1 -1.05803e-16 0)
(1 -2.51413e-15 0)
(1 -2.32824e-15 0)
(1 -2.61414e-15 0)
(1 1.29171e-15 0)
(1 5.36785e-15 0)
(1 -6.86082e-16 0)
(1 -1.12004e-15 0)
(1 -3.86738e-15 0)
(1 4.00444e-15 0)
(1 4.56584e-16 0)
(1 -3.93907e-15 0)
(1 -3.16156e-15 0)
(1 -1.05531e-15 0)
(1 2.33164e-15 0)
(1 -5.20241e-15 0)
(1 -1.30262e-15 0)
(1 -5.12725e-15 0)
(1 -2.46147e-16 0)
(1 -2.21246e-15 0)
(1 -3.89963e-15 0)
(1 -1.94981e-15 0)
(1 -3.2763e-15 0)
(1 -4.40694e-15 0)
(1 -1.6268e-15 0)
(1 -2.35639e-15 0)
(1 5.79861e-16 0)
(1 1.08047e-15 0)
(1 1.5079e-15 0)
(1 -6.94613e-16 0)
(1 3.60336e-15 0)
(1 3.80192e-15 0)
(1 2.37512e-15 0)
(1 1.37984e-15 0)
(1 -1.21031e-15 0)
(1 -2.81471e-15 0)
(1 -5.63689e-15 0)
(1 4.41266e-15 0)
(1 9.44757e-15 0)
(1 7.64355e-15 0)
(1 4.95497e-15 0)
(1 8.80246e-15 0)
(1 4.76685e-15 0)
(1 2.09778e-15 0)
(1 4.1186e-15 0)
(1 2.06005e-15 0)
(1 4.21563e-16 0)
(1 -5.97483e-16 0)
(1 2.54072e-15 0)
(1 2.70736e-15 0)
(1 -2.50267e-15 0)
(1 7.85538e-15 0)
(1 2.7739e-15 0)
(1 1.99314e-15 0)
(1 1.91453e-15 0)
(1 2.21033e-15 0)
(1 2.73716e-15 0)
(1 1.675e-15 0)
(1 -2.66222e-15 0)
(1 -4.95952e-17 0)
(1 3.31241e-15 0)
(1 -1.48067e-16 0)
(1 3.64835e-16 0)
(1 -1.70412e-16 0)
(1 1.92762e-16 0)
(1 -4.18523e-16 0)
(1 3.77713e-16 0)
(1 -3.55725e-15 0)
(1 -3.71704e-15 0)
(1 2.92609e-16 0)
(1 -4.56424e-16 0)
(1 -4.97273e-16 0)
(1 -8.05361e-16 0)
(1 -4.56264e-16 0)
(1 2.29021e-15 0)
(1 1.39276e-15 0)