/*--------------------------------*- C++ -*----------------------------------*\
| =========                 |                                                 |
| \\      /  F ield         | OpenFOAM: The Open Source CFD Toolbox           |
|  \\    /   O peration     | Version:  v2012                                 |
|   \\  /    A nd           | Website:  www.openfoam.com                      |
|    \\/     M anipulation  |                                                 |
\*---------------------------------------------------------------------------*/
FoamFile
{
    version     2.0;
    format      ascii;
    class       surfaceScalarField;
    location    "7";
    object      phi;
}
// * * * * * * * * * * * * * * * * * * * * * * * * * * * * * * * * * * * * * //

dimensions      [0 3 -1 0 0 0 0];
oriented        oriented;


internalField   nonuniform List<scalar> 
130560
(
3.7079e-06
-3.7079e-06
7.41572e-06
-3.70783e-06
1.11234e-05
-3.70768e-06
1.48309e-05
-3.70746e-06
1.8538e-05
-3.70717e-06
2.22448e-05
-3.70679e-06
2.59512e-05
-3.70633e-06
2.96569e-05
-3.70579e-06
3.33621e-05
-3.70515e-06
3.70665e-05
-3.70441e-06
4.07701e-05
-3.70356e-06
4.44727e-05
-3.7026e-06
4.81742e-05
-3.70152e-06
5.18745e-05
-3.7003e-06
5.55734e-05
-3.69895e-06
5.92709e-05
-3.69744e-06
6.29666e-05
-3.69576e-06
6.66605e-05
-3.69392e-06
7.03524e-05
-3.69188e-06
7.40421e-05
-3.68964e-06
7.77292e-05
-3.68719e-06
8.14137e-05
-3.6845e-06
8.50953e-05
-3.68157e-06
8.87737e-05
-3.67837e-06
9.24486e-05
-3.6749e-06
9.61197e-05
-3.67113e-06
9.97867e-05
-3.66704e-06
0.000103449
-3.66262e-06
0.000107107
-3.65785e-06
0.00011076
-3.6527e-06
0.000114407
-3.64716e-06
0.000118048
-3.64121e-06
0.000121683
-3.63483e-06
0.000125311
-3.62799e-06
0.000128932
-3.62067e-06
0.000132545
-3.61285e-06
0.000136149
-3.6045e-06
0.000139745
-3.59561e-06
0.000143331
-3.58615e-06
0.000146907
-3.5761e-06
0.000150472
-3.56543e-06
0.000154027
-3.55412e-06
0.000157569
-3.54215e-06
0.000161098
-3.52948e-06
0.000164614
-3.5161e-06
0.000168116
-3.50199e-06
0.000171603
-3.48712e-06
0.000175075
-3.47146e-06
0.00017853
-3.45499e-06
0.000181968
-3.4377e-06
0.000185387
-3.41955e-06
0.000188788
-3.40052e-06
0.000192168
-3.38059e-06
0.000195528
-3.35975e-06
0.000198866
-3.33796e-06
0.000202181
-3.31522e-06
0.000205473
-3.29149e-06
0.000208739
-3.26676e-06
0.00021198
-3.24102e-06
0.000215195
-3.21424e-06
0.000218381
-3.18641e-06
0.000221539
-3.15751e-06
0.000224666
-3.12754e-06
0.000227763
-3.09647e-06
0.000230827
-3.0643e-06
0.000233858
-3.03101e-06
0.000236854
-2.9966e-06
0.000239815
-2.96106e-06
0.00024274
-2.92438e-06
0.000245626
-2.88656e-06
0.000248474
-2.8476e-06
0.000251282
-2.80749e-06
0.000254048
-2.76624e-06
0.000256772
-2.72384e-06
0.000259452
-2.6803e-06
0.000262088
-2.63562e-06
0.000264677
-2.58982e-06
0.00026722
-2.5429e-06
0.000269715
-2.49487e-06
0.000272161
-2.44574e-06
0.000274556
-2.39554e-06
0.000276901
-2.34426e-06
0.000279193
-2.29194e-06
0.000281431
-2.23859e-06
0.000283615
-2.18423e-06
0.000285744
-2.12889e-06
0.000287817
-2.07259e-06
0.000289832
-2.01536e-06
0.000291789
-1.95722e-06
0.000293688
-1.89821e-06
0.000295526
-1.83836e-06
0.000297304
-1.77769e-06
0.00029902
-1.71625e-06
0.000300674
-1.65407e-06
0.000302265
-1.59119e-06
0.000303793
-1.52764e-06
0.000305256
-1.46346e-06
0.000306655
-1.3987e-06
0.000307988
-1.33339e-06
0.000309256
-1.26759e-06
0.000310457
-1.20132e-06
0.000311592
-1.13463e-06
0.00031266
-1.06758e-06
0.00031366
-1.00019e-06
0.000314592
-9.32527e-07
0.000315457
-8.64626e-07
0.000316253
-7.96534e-07
0.000316982
-7.28297e-07
0.000317642
-6.5996e-07
0.000318233
-5.91571e-07
0.000318756
-5.23173e-07
0.000319211
-4.54812e-07
0.000319598
-3.86533e-07
0.000319916
-3.18381e-07
0.000320167
-2.50399e-07
0.000320349
-1.8263e-07
0.000320464
-1.15117e-07
0.000320512
-4.79013e-08
0.000320493
1.89762e-08
0.000320408
8.54758e-08
0.000320256
1.51559e-07
0.000320039
2.17187e-07
0.000319757
2.82324e-07
0.00031941
3.46935e-07
0.000318999
4.10985e-07
0.000318524
4.74442e-07
0.000317987
5.37273e-07
0.000317388
5.99449e-07
0.000316727
6.60941e-07
0.000316005
7.21722e-07
0.000315223
7.81765e-07
0.000314382
8.41046e-07
0.000313483
8.99541e-07
0.000312525
9.5723e-07
0.000311511
1.01409e-06
0.000310441
1.07011e-06
0.000309316
1.12526e-06
0.000308136
1.17954e-06
0.000306903
1.23292e-06
0.000305618
1.28539e-06
0.000304281
1.33695e-06
0.000302894
1.38758e-06
0.000301456
1.43727e-06
0.00029997
1.48602e-06
0.000298436
1.53382e-06
0.000296856
1.58067e-06
0.000295229
1.62655e-06
0.000293558
1.67148e-06
0.000291842
1.71544e-06
0.000290084
1.75844e-06
0.000288283
1.80047e-06
0.000286442
1.84155e-06
0.00028456
1.88167e-06
0.000282639
1.92083e-06
0.00028068
1.95905e-06
0.000278684
1.99632e-06
0.000276651
2.03266e-06
0.000274583
2.06806e-06
0.000272481
2.10255e-06
0.000270345
2.13612e-06
0.000268176
2.16879e-06
0.000265975
2.20056e-06
0.000263744
2.23145e-06
0.000261482
2.26146e-06
0.000259192
2.29062e-06
0.000256873
2.31893e-06
0.000254526
2.34639e-06
0.000252153
2.37304e-06
0.000249754
2.39887e-06
0.000247331
2.42391e-06
0.000244882
2.44816e-06
0.000242411
2.47164e-06
0.000239916
2.49436e-06
0.0002374
2.51635e-06
0.000234862
2.5376e-06
0.000232304
2.55814e-06
0.000229726
2.57798e-06
0.000227129
2.59714e-06
0.000224514
2.61563e-06
0.00022188
2.63347e-06
0.000219229
2.65066e-06
0.000216562
2.66724e-06
0.000213879
2.6832e-06
0.00021118
2.69856e-06
0.000208467
2.71335e-06
0.00020574
2.72757e-06
0.000202998
2.74124e-06
0.000200244
2.75437e-06
0.000197477
2.76698e-06
0.000194698
2.77909e-06
0.000191907
2.79069e-06
0.000189105
2.80182e-06
0.000186293
2.81248e-06
0.00018347
2.82269e-06
0.000180638
2.83246e-06
0.000177796
2.8418e-06
0.000174945
2.85073e-06
0.000172086
2.85926e-06
0.000169218
2.8674e-06
0.000166343
2.87517e-06
0.000163461
2.88257e-06
0.000160571
2.88963e-06
0.000157675
2.89634e-06
0.000154772
2.90273e-06
0.000151863
2.9088e-06
0.000148949
2.91457e-06
0.000146029
2.92004e-06
0.000143103
2.92524e-06
0.000140173
2.93015e-06
0.000137238
2.93481e-06
0.000134299
2.93922e-06
0.000131356
2.94338e-06
0.000128408
2.94732e-06
0.000125457
2.95103e-06
0.000122503
2.95452e-06
0.000119545
2.95782e-06
0.000116584
2.96092e-06
0.00011362
2.96383e-06
0.000110654
2.96656e-06
0.000107685
2.96912e-06
0.000104713
2.97152e-06
0.000101739
2.97377e-06
9.87635e-05
2.97587e-06
9.57857e-05
2.97783e-06
9.28061e-05
2.97965e-06
8.98247e-05
2.98135e-06
8.68418e-05
2.98293e-06
8.38574e-05
2.9844e-06
8.08716e-05
2.98576e-06
7.78846e-05
2.98702e-06
7.48964e-05
2.98818e-06
7.19072e-05
2.98926e-06
6.89169e-05
2.99025e-06
6.59258e-05
2.99116e-06
6.29338e-05
2.992e-06
5.9941e-05
2.99276e-06
5.69475e-05
2.99346e-06
5.39534e-05
2.99411e-06
5.09587e-05
2.99469e-06
4.79635e-05
2.99522e-06
4.49678e-05
2.9957e-06
4.19717e-05
2.99613e-06
3.89752e-05
2.99652e-06
3.59783e-05
2.99687e-06
3.29811e-05
2.99719e-06
2.99836e-05
2.99747e-06
2.69859e-05
2.99771e-06
2.3988e-05
2.99793e-06
2.09899e-05
2.99811e-06
1.79916e-05
2.99827e-06
1.49932e-05
2.9984e-06
1.19947e-05
2.99851e-06
8.9961e-06
2.9986e-06
5.99744e-06
2.99866e-06
2.99873e-06
2.99871e-06
2.99873e-06
3.70797e-06
-7.41587e-06
7.41587e-06
-7.41572e-06
1.11236e-05
-7.41544e-06
1.48312e-05
-7.415e-06
1.85384e-05
-7.41441e-06
2.22453e-05
-7.41367e-06
2.59517e-05
-7.41275e-06
2.96576e-05
-7.41167e-06
3.33628e-05
-7.41039e-06
3.70673e-05
-7.40892e-06
4.0771e-05
-7.40724e-06
4.44737e-05
-7.40532e-06
4.81754e-05
-7.40317e-06
5.18758e-05
-7.40075e-06
5.55749e-05
-7.39804e-06
5.92725e-05
-7.39504e-06
6.29685e-05
-7.3917e-06
6.66626e-05
-7.38802e-06
7.03546e-05
-7.38396e-06
7.40445e-05
-7.3795e-06
7.77319e-05
-7.3746e-06
8.14167e-05
-7.36924e-06
8.50985e-05
-7.3634e-06
8.87771e-05
-7.35702e-06
9.24523e-05
-7.35009e-06
9.61238e-05
-7.34256e-06
9.97911e-05
-7.33441e-06
0.000103454
-7.32559e-06
0.000107112
-7.31606e-06
0.000110765
-7.30579e-06
0.000114413
-7.29474e-06
0.000118055
-7.28286e-06
0.00012169
-7.27011e-06
0.000125318
-7.25645e-06
0.00012894
-7.24183e-06
0.000132553
-7.22621e-06
0.000136158
-7.20955e-06
0.000139754
-7.19179e-06
0.000143341
-7.1729e-06
0.000146918
-7.15282e-06
0.000150484
-7.1315e-06
0.000154038
-7.1089e-06
0.000157581
-7.08498e-06
0.000161111
-7.05967e-06
0.000164628
-7.03295e-06
0.000168131
-7.00474e-06
0.000171619
-6.97502e-06
0.000175091
-6.94373e-06
0.000178547
-6.91082e-06
0.000181986
-6.87625e-06
0.000185406
-6.83997e-06
0.000188807
-6.80194e-06
0.000192189
-6.76211e-06
0.00019555
-6.72044e-06
0.000198889
-6.67689e-06
0.000202205
-6.63141e-06
0.000205497
-6.58398e-06
0.000208765
-6.53454e-06
0.000212007
-6.48307e-06
0.000215222
-6.42952e-06
0.00021841
-6.37388e-06
0.000221568
-6.3161e-06
0.000224697
-6.25616e-06
0.000227795
-6.19404e-06
0.00023086
-6.1297e-06
0.000233892
-6.06314e-06
0.00023689
-5.99433e-06
0.000239852
-5.92325e-06
0.000242778
-5.8499e-06
0.000245665
-5.77427e-06
0.000248514
-5.69634e-06
0.000251323
-5.61613e-06
0.00025409
-5.53361e-06
0.000256815
-5.44881e-06
0.000259497
-5.36173e-06
0.000262133
-5.27237e-06
0.000264724
-5.18076e-06
0.000267268
-5.08691e-06
0.000269764
-4.99083e-06
0.000272211
-4.89257e-06
0.000274608
-4.79214e-06
0.000276953
-4.68957e-06
0.000279246
-4.58491e-06
0.000281485
-4.47819e-06
0.000283671
-4.36945e-06
0.000285801
-4.25874e-06
0.000287874
-4.14612e-06
0.00028989
-4.03162e-06
0.000291848
-3.91532e-06
0.000293747
-3.79727e-06
0.000295587
-3.67753e-06
0.000297365
-3.55617e-06
0.000299082
-3.43325e-06
0.000300737
-3.30885e-06
0.000302329
-3.18304e-06
0.000303857
-3.0559e-06
0.000305321
-2.92751e-06
0.00030672
-2.79795e-06
0.000308054
-2.66729e-06
0.000309322
-2.53563e-06
0.000310524
-2.40305e-06
0.000311659
-2.26964e-06
0.000312727
-2.13548e-06
0.000313727
-2.00067e-06
0.00031466
-1.86529e-06
0.000315525
-1.72944e-06
0.000316322
-1.59321e-06
0.00031705
-1.45669e-06
0.00031771
-1.31997e-06
0.000318302
-1.18315e-06
0.000318825
-1.04631e-06
0.000319279
-9.09542e-07
0.000319666
-7.7294e-07
0.000319984
-6.36592e-07
0.000320234
-5.00585e-07
0.000320417
-3.65004e-07
0.000320531
-2.29937e-07
0.000320579
-9.54646e-08
0.00032056
3.83302e-08
0.000320474
1.71368e-07
0.000320322
3.03571e-07
0.000320104
4.34865e-07
0.000319821
5.65174e-07
0.000319474
6.9443e-07
0.000319062
8.22563e-07
0.000318587
9.49508e-07
0.000318049
1.0752e-06
0.000317449
1.19958e-06
0.000316787
1.32259e-06
0.000316065
1.44418e-06
0.000315282
1.56429e-06
0.000314441
1.68288e-06
0.00031354
1.79989e-06
0.000312582
1.91529e-06
0.000311567
2.02903e-06
0.000310496
2.14108e-06
0.00030937
2.2514e-06
0.00030819
2.35996e-06
0.000306956
2.46674e-06
0.00030567
2.5717e-06
0.000304332
2.67483e-06
0.000302943
2.7761e-06
0.000301505
2.87549e-06
0.000300018
2.973e-06
0.000298483
3.0686e-06
0.000296902
3.16229e-06
0.000295274
3.25407e-06
0.000293602
3.34392e-06
0.000291885
3.43184e-06
0.000290126
3.51783e-06
0.000288324
3.6019e-06
0.000286482
3.68405e-06
0.000284599
3.76429e-06
0.000282677
3.84261e-06
0.000280717
3.91904e-06
0.00027872
3.99358e-06
0.000276687
4.06624e-06
0.000274618
4.13705e-06
0.000272514
4.20601e-06
0.000270377
4.27314e-06
0.000268208
4.33846e-06
0.000266006
4.402e-06
0.000263774
4.46377e-06
0.000261511
4.52379e-06
0.00025922
4.58209e-06
0.0002569
4.63869e-06
0.000254553
4.69361e-06
0.000252179
4.74689e-06
0.000249779
4.79854e-06
0.000247355
4.8486e-06
0.000244906
4.89709e-06
0.000242433
4.94403e-06
0.000239938
4.98947e-06
0.000237421
5.03342e-06
0.000234883
5.07591e-06
0.000232324
5.11698e-06
0.000229745
5.15665e-06
0.000227148
5.19495e-06
0.000224531
5.23192e-06
0.000221897
5.26757e-06
0.000219246
5.30195e-06
0.000216578
5.33508e-06
0.000213894
5.36699e-06
0.000211195
5.39771e-06
0.000208481
5.42726e-06
0.000205753
5.45569e-06
0.000203011
5.48302e-06
0.000200256
5.50927e-06
0.000197489
5.53447e-06
0.000194709
5.55866e-06
0.000191918
5.58187e-06
0.000189116
5.60411e-06
0.000186303
5.62542e-06
0.00018348
5.64582e-06
0.000180647
5.66534e-06
0.000177805
5.68402e-06
0.000174954
5.70186e-06
0.000172094
5.71891e-06
0.000169226
5.73518e-06
0.000166351
5.7507e-06
0.000163468
5.7655e-06
0.000160578
5.77959e-06
0.000157681
5.79301e-06
0.000154778
5.80578e-06
0.000151869
5.81791e-06
0.000148954
5.82943e-06
0.000146034
5.84037e-06
0.000143108
5.85074e-06
0.000140178
5.86057e-06
0.000137243
5.86988e-06
0.000134303
5.87868e-06
0.00013136
5.887e-06
0.000128412
5.89486e-06
0.000125461
5.90227e-06
0.000122506
5.90925e-06
0.000119548
5.91583e-06
0.000116587
5.92202e-06
0.000113623
5.92783e-06
0.000110656
5.93329e-06
0.000107687
5.93841e-06
0.000104715
5.9432e-06
0.000101742
5.94768e-06
9.87655e-05
5.95187e-06
9.57875e-05
5.95578e-06
9.28078e-05
5.95943e-06
8.98263e-05
5.96282e-06
8.68433e-05
5.96598e-06
8.38587e-05
5.9689e-06
8.08729e-05
5.97162e-06
7.78858e-05
5.97413e-06
7.48975e-05
5.97646e-06
7.19082e-05
5.9786e-06
6.89178e-05
5.98058e-06
6.59266e-05
5.98239e-06
6.29345e-05
5.98406e-06
5.99417e-05
5.98559e-06
5.69482e-05
5.98699e-06
5.3954e-05
5.98827e-06
5.09593e-05
5.98943e-06
4.7964e-05
5.99049e-06
4.49683e-05
5.99144e-06
4.19721e-05
5.99231e-06
3.89755e-05
5.99309e-06
3.59786e-05
5.99379e-06
3.29814e-05
5.99441e-06
2.99839e-05
5.99496e-06
2.69861e-05
5.99545e-06
2.39882e-05
5.99588e-06
2.09901e-05
5.99625e-06
1.79918e-05
5.99657e-06
1.49933e-05
5.99683e-06
1.19948e-05
5.99705e-06
8.99616e-06
5.99722e-06
5.99748e-06
5.99735e-06
2.99875e-06
5.99744e-06
5.99748e-06
3.70811e-06
-1.1124e-05
7.41615e-06
-1.11238e-05
1.11241e-05
-1.11233e-05
1.48317e-05
-1.11227e-05
1.85392e-05
-1.11218e-05
2.22462e-05
-1.11207e-05
2.59528e-05
-1.11194e-05
2.96589e-05
-1.11177e-05
3.33643e-05
-1.11158e-05
3.7069e-05
-1.11136e-05
4.07729e-05
-1.11111e-05
4.44759e-05
-1.11083e-05
4.81778e-05
-1.11051e-05
5.18785e-05
-1.11015e-05
5.55779e-05
-1.10974e-05
5.92759e-05
-1.1093e-05
6.29722e-05
-1.1088e-05
6.66666e-05
-1.10825e-05
7.03591e-05
-1.10764e-05
7.40494e-05
-1.10698e-05
7.77373e-05
-1.10625e-05
8.14225e-05
-1.10545e-05
8.51049e-05
-1.10457e-05
8.87841e-05
-1.10362e-05
9.24599e-05
-1.10259e-05
9.61319e-05
-1.10146e-05
9.98e-05
-1.10024e-05
0.000103464
-1.09893e-05
0.000107123
-1.0975e-05
0.000110776
-1.09597e-05
0.000114425
-1.09431e-05
0.000118067
-1.09254e-05
0.000121704
-1.09063e-05
0.000125333
-1.08859e-05
0.000128955
-1.0864e-05
0.00013257
-1.08406e-05
0.000136176
-1.08157e-05
0.000139773
-1.07891e-05
0.000143361
-1.07608e-05
0.000146939
-1.07308e-05
0.000150506
-1.06989e-05
0.000154062
-1.0665e-05
0.000157607
-1.06292e-05
0.000161138
-1.05913e-05
0.000164657
-1.05513e-05
0.000168161
-1.0509e-05
0.00017165
-1.04645e-05
0.000175124
-1.04176e-05
0.000178582
-1.03683e-05
0.000182022
-1.03165e-05
0.000185444
-1.02621e-05
0.000188847
-1.02052e-05
0.000192231
-1.01455e-05
0.000195593
-1.0083e-05
0.000198934
-1.00177e-05
0.000202252
-9.94957e-06
0.000205547
-9.87846e-06
0.000208817
-9.80435e-06
0.000212061
-9.72719e-06
0.000215278
-9.64691e-06
0.000218468
-9.56348e-06
0.000221628
-9.47685e-06
0.000224759
-9.38698e-06
0.000227859
-9.29382e-06
0.000230927
-9.19734e-06
0.000233961
-9.09752e-06
0.000236961
-8.99432e-06
0.000239925
-8.88772e-06
0.000242853
-8.77771e-06
0.000245743
-8.66427e-06
0.000248594
-8.54738e-06
0.000251405
-8.42706e-06
0.000254175
-8.30328e-06
0.000256902
-8.17607e-06
0.000259586
-8.04543e-06
0.000262225
-7.91138e-06
0.000264818
-7.77394e-06
0.000267364
-7.63313e-06
0.000269862
-7.48899e-06
0.000272311
-7.34156e-06
0.00027471
-7.19087e-06
0.000277058
-7.03698e-06
0.000279353
-6.87993e-06
0.000281594
-6.7198e-06
0.000283781
-6.55663e-06
0.000285913
-6.39051e-06
0.000287989
-6.22151e-06
0.000290007
-6.0497e-06
0.000291967
-5.87517e-06
0.000293867
-5.69801e-06
0.000295708
-5.51832e-06
0.000297488
-5.33619e-06
0.000299207
-5.15173e-06
0.000300863
-4.96504e-06
0.000302456
-4.77623e-06
0.000303985
-4.58542e-06
0.000305451
-4.39273e-06
0.000306851
-4.19828e-06
0.000308186
-4.00219e-06
0.000309455
-3.80459e-06
0.000310657
-3.60561e-06
0.000311793
-3.40538e-06
0.000312862
-3.20403e-06
0.000313863
-3.0017e-06
0.000314796
-2.79853e-06
0.000315661
-2.59464e-06
0.000316458
-2.39018e-06
0.000317187
-2.18529e-06
0.000317847
-1.98009e-06
0.000318438
-1.77474e-06
0.000318962
-1.56937e-06
0.000319416
-1.36411e-06
0.000319802
-1.15909e-06
0.00032012
-9.54462e-07
0.00032037
-7.50343e-07
0.000320552
-5.46867e-07
0.000320666
-3.44161e-07
0.000320713
-1.42351e-07
0.000320693
5.84412e-08
0.000320606
2.58095e-07
0.000320453
4.56494e-07
0.000320234
6.53526e-07
0.000319951
8.49079e-07
0.000319602
1.04305e-06
0.000319189
1.23533e-06
0.000318713
1.42583e-06
0.000318174
1.61444e-06
0.000317572
1.80109e-06
0.000316909
1.98567e-06
0.000316185
2.16812e-06
0.000315401
2.34834e-06
0.000314558
2.52628e-06
0.000313656
2.70185e-06
0.000312696
2.875e-06
0.000311679
3.04566e-06
0.000310607
3.21378e-06
0.000309479
3.3793e-06
0.000308296
3.54218e-06
0.000307061
3.70238e-06
0.000305773
3.85985e-06
0.000304433
4.01456e-06
0.000303043
4.16649e-06
0.000301602
4.3156e-06
0.000300114
4.46187e-06
0.000298577
4.60529e-06
0.000296993
4.74584e-06
0.000295364
4.8835e-06
0.00029369
5.01828e-06
0.000291971
5.15017e-06
0.00029021
5.27916e-06
0.000288407
5.40526e-06
0.000286562
5.52847e-06
0.000284678
5.64882e-06
0.000282754
5.76629e-06
0.000280792
5.88092e-06
0.000278793
5.99271e-06
0.000276757
6.10169e-06
0.000274687
6.20787e-06
0.000272581
6.31129e-06
0.000270443
6.41197e-06
0.000268271
6.50993e-06
0.000266068
6.60521e-06
0.000263834
6.69783e-06
0.00026157
6.78784e-06
0.000259277
6.87525e-06
0.000256955
6.96012e-06
0.000254606
7.04248e-06
0.000252231
7.12236e-06
0.00024983
7.19981e-06
0.000247403
7.27486e-06
0.000244953
7.34756e-06
0.000242479
7.41794e-06
0.000239982
7.48606e-06
0.000237464
7.55195e-06
0.000234924
7.61565e-06
0.000232364
7.67722e-06
0.000229784
7.73668e-06
0.000227185
7.7941e-06
0.000224567
7.84951e-06
0.000221932
7.90296e-06
0.000219279
7.95449e-06
0.00021661
8.00414e-06
0.000213925
8.05197e-06
0.000211225
8.09801e-06
0.00020851
8.14231e-06
0.00020578
8.18491e-06
0.000203038
8.22587e-06
0.000200282
8.26521e-06
0.000197513
8.30298e-06
0.000194733
8.33923e-06
0.00019194
8.374e-06
0.000189137
8.40733e-06
0.000186323
8.43926e-06
0.000183499
8.46983e-06
0.000180666
8.49908e-06
0.000177823
8.52706e-06
0.000174971
8.5538e-06
0.00017211
8.57933e-06
0.000169242
8.60371e-06
0.000166366
8.62696e-06
0.000163482
8.64913e-06
0.000160591
8.67024e-06
0.000157694
8.69034e-06
0.00015479
8.70945e-06
0.000151881
8.72762e-06
0.000148965
8.74488e-06
0.000146044
8.76126e-06
0.000143118
8.77679e-06
0.000140187
8.79151e-06
0.000137252
8.80544e-06
0.000134312
8.81862e-06
0.000131368
8.83108e-06
0.00012842
8.84284e-06
0.000125468
8.85393e-06
0.000122513
8.86439e-06
0.000119554
8.87423e-06
0.000116593
8.88349e-06
0.000113629
8.89219e-06
0.000110662
8.90036e-06
0.000107692
8.90802e-06
0.00010472
8.91519e-06
0.000101746
8.92189e-06
9.87694e-05
8.92816e-06
9.57912e-05
8.93401e-06
9.28112e-05
8.93946e-06
8.98295e-05
8.94453e-06
8.68462e-05
8.94925e-06
8.38615e-05
8.95362e-06
8.08754e-05
8.95768e-06
7.78881e-05
8.96144e-06
7.48996e-05
8.96491e-06
7.19101e-05
8.96811e-06
6.89196e-05
8.97106e-06
6.59283e-05
8.97378e-06
6.29361e-05
8.97627e-06
5.99431e-05
8.97855e-06
5.69495e-05
8.98064e-06
5.39552e-05
8.98254e-06
5.09603e-05
8.98428e-06
4.7965e-05
8.98585e-06
4.49691e-05
8.98728e-06
4.19729e-05
8.98857e-06
3.89762e-05
8.98973e-06
3.59792e-05
8.99077e-06
3.29819e-05
8.9917e-06
2.99844e-05
8.99253e-06
2.69866e-05
8.99325e-06
2.39886e-05
8.99389e-06
2.09904e-05
8.99444e-06
1.7992e-05
8.99492e-06
1.49935e-05
8.99531e-06
1.1995e-05
8.99564e-06
8.99629e-06
8.99589e-06
5.99756e-06
8.99608e-06
2.99879e-06
8.99621e-06
8.99627e-06
3.70833e-06
-1.48323e-05
7.41658e-06
-1.4832e-05
1.11247e-05
-1.48315e-05
1.48326e-05
-1.48306e-05
1.85403e-05
-1.48295e-05
2.22476e-05
-1.4828e-05
2.59544e-05
-1.48262e-05
2.96608e-05
-1.48241e-05
3.33665e-05
-1.48216e-05
3.70715e-05
-1.48187e-05
4.07758e-05
-1.48154e-05
4.44791e-05
-1.48116e-05
4.81814e-05
-1.48074e-05
5.18826e-05
-1.48026e-05
5.55824e-05
-1.47973e-05
5.92808e-05
-1.47914e-05
6.29777e-05
-1.47848e-05
6.66727e-05
-1.47775e-05
7.03658e-05
-1.47695e-05
7.40567e-05
-1.47607e-05
7.77453e-05
-1.4751e-05
8.14313e-05
-1.47405e-05
8.51144e-05
-1.47289e-05
8.87945e-05
-1.47163e-05
9.24711e-05
-1.47026e-05
9.61441e-05
-1.46876e-05
9.98132e-05
-1.46715e-05
0.000103478
-1.4654e-05
0.000107138
-1.46351e-05
0.000110793
-1.46147e-05
0.000114443
-1.45928e-05
0.000118087
-1.45692e-05
0.000121724
-1.45439e-05
0.000125355
-1.45167e-05
0.000128979
-1.44877e-05
0.000132595
-1.44566e-05
0.000136202
-1.44235e-05
0.000139801
-1.43881e-05
0.000143391
-1.43505e-05
0.000146971
-1.43106e-05
0.00015054
-1.42681e-05
0.000154098
-1.42231e-05
0.000157645
-1.41755e-05
0.000161178
-1.41251e-05
0.000164699
-1.40718e-05
0.000168205
-1.40156e-05
0.000171697
-1.39563e-05
0.000175174
-1.38939e-05
0.000178634
-1.38283e-05
0.000182076
-1.37593e-05
0.000185501
-1.3687e-05
0.000188907
-1.36111e-05
0.000192293
-1.35316e-05
0.000195659
-1.34484e-05
0.000199002
-1.33615e-05
0.000202323
-1.32707e-05
0.000205621
-1.3176e-05
0.000208894
-1.30772e-05
0.000212141
-1.29744e-05
0.000215362
-1.28675e-05
0.000218554
-1.27563e-05
0.000221718
-1.26408e-05
0.000224852
-1.25211e-05
0.000227956
-1.23969e-05
0.000231027
-1.22683e-05
0.000234064
-1.21353e-05
0.000237068
-1.19977e-05
0.000240036
-1.18556e-05
0.000242967
-1.17089e-05
0.00024586
-1.15577e-05
0.000248715
-1.14019e-05
0.000251529
-1.12414e-05
0.000254302
-1.10764e-05
0.000257033
-1.09068e-05
0.00025972
-1.07325e-05
0.000262362
-1.05538e-05
0.000264959
-1.03705e-05
0.000267509
-1.01827e-05
0.00027001
-9.99045e-06
0.000272462
-9.7938e-06
0.000274864
-9.59281e-06
0.000277215
-9.38754e-06
0.000279513
-9.17805e-06
0.000281757
-8.96444e-06
0.000283948
-8.74678e-06
0.000286082
-8.52517e-06
0.00028816
-8.2997e-06
0.000290181
-8.07049e-06
0.000292144
-7.83765e-06
0.000294047
-7.60129e-06
0.00029589
-7.36155e-06
0.000297673
-7.11855e-06
0.000299393
-6.87243e-06
0.000301052
-6.62334e-06
0.000302647
-6.37142e-06
0.000304178
-6.11683e-06
0.000305645
-5.85972e-06
0.000307047
-5.60026e-06
0.000308384
-5.33861e-06
0.000309654
-5.07494e-06
0.000310858
-4.80943e-06
0.000311995
-4.54225e-06
0.000313064
-4.27357e-06
0.000314066
-4.00359e-06
0.000315
-3.73247e-06
0.000315866
-3.46041e-06
0.000316663
-3.18758e-06
0.000317392
-2.91418e-06
0.000318052
-2.64038e-06
0.000318644
-2.36636e-06
0.000319167
-2.09232e-06
0.000319621
-1.81843e-06
0.000320007
-1.54487e-06
0.000320324
-1.27182e-06
0.000320573
-9.99458e-07
0.000320755
-7.27958e-07
0.000320868
-4.57489e-07
0.000320914
-1.88218e-07
0.000320892
7.96903e-08
0.000320804
3.46077e-07
0.00032065
6.10786e-07
0.00032043
8.73665e-07
0.000320145
1.13457e-06
0.000319794
1.39335e-06
0.00031938
1.64988e-06
0.000318902
1.90402e-06
0.00031836
2.15565e-06
0.000317757
2.40465e-06
0.000317092
2.65089e-06
0.000316365
2.89427e-06
0.000315579
3.13469e-06
0.000314733
3.37204e-06
0.000313829
3.60624e-06
0.000312867
3.8372e-06
0.000311847
4.06483e-06
0.000310772
4.28907e-06
0.000309642
4.50984e-06
0.000308457
4.72708e-06
0.000307218
4.94074e-06
0.000305927
5.15075e-06
0.000304585
5.35709e-06
0.000303192
5.5597e-06
0.000301749
5.75854e-06
0.000300257
5.9536e-06
0.000298718
6.14485e-06
0.000297131
6.33226e-06
0.000295499
6.51583e-06
0.000293822
6.69554e-06
0.0002921
6.87139e-06
0.000290336
7.04337e-06
0.00028853
7.2115e-06
0.000286683
7.37577e-06
0.000284795
7.53621e-06
0.000282869
7.69282e-06
0.000280904
7.84563e-06
0.000278902
7.99466e-06
0.000276864
8.13993e-06
0.00027479
8.28147e-06
0.000272682
8.41932e-06
0.000270541
8.55351e-06
0.000268366
8.68408e-06
0.000266161
8.81107e-06
0.000263924
8.93452e-06
0.000261657
9.05447e-06
0.000259361
9.17097e-06
0.000257038
9.28407e-06
0.000254686
9.39382e-06
0.000252308
9.50027e-06
0.000249905
9.60347e-06
0.000247476
9.70347e-06
0.000245023
9.80034e-06
0.000242547
9.89412e-06
0.000240048
9.98488e-06
0.000237528
1.00727e-05
0.000234986
1.01575e-05
0.000232423
1.02395e-05
0.000229841
1.03188e-05
0.00022724
1.03953e-05
0.000224621
1.04691e-05
0.000221983
1.05403e-05
0.000219329
1.06089e-05
0.000216658
1.0675e-05
0.000213971
1.07387e-05
0.000211269
1.08001e-05
0.000208552
1.08591e-05
0.000205821
1.09158e-05
0.000203077
1.09703e-05
0.000200319
1.10227e-05
0.000197549
1.1073e-05
0.000194767
1.11213e-05
0.000191974
1.11676e-05
0.000189169
1.12119e-05
0.000186354
1.12545e-05
0.000183529
1.12952e-05
0.000180694
1.13341e-05
0.000177849
1.13713e-05
0.000174996
1.14069e-05
0.000172135
1.14409e-05
0.000169265
1.14734e-05
0.000166388
1.15043e-05
0.000163503
1.15338e-05
0.000160611
1.15619e-05
0.000157713
1.15886e-05
0.000154808
1.16141e-05
0.000151898
1.16383e-05
0.000148981
1.16612e-05
0.00014606
1.1683e-05
0.000143133
1.17037e-05
0.000140201
1.17232e-05
0.000137265
1.17418e-05
0.000134324
1.17593e-05
0.000131379
1.17759e-05
0.000128431
1.17915e-05
0.000125478
1.18062e-05
0.000122523
1.18201e-05
0.000119564
1.18332e-05
0.000116602
1.18455e-05
0.000113637
1.18571e-05
0.000110669
1.18679e-05
0.000107699
1.18781e-05
0.000104727
1.18876e-05
0.000101752
1.18965e-05
9.87753e-05
1.19049e-05
9.57966e-05
1.19126e-05
9.28162e-05
1.19199e-05
8.98342e-05
1.19266e-05
8.68506e-05
1.19329e-05
8.38655e-05
1.19387e-05
8.08792e-05
1.1944e-05
7.78916e-05
1.1949e-05
7.49029e-05
1.19536e-05
7.19131e-05
1.19579e-05
6.89224e-05
1.19618e-05
6.59308e-05
1.19654e-05
6.29383e-05
1.19687e-05
5.99452e-05
1.19717e-05
5.69514e-05
1.19745e-05
5.39569e-05
1.1977e-05
5.09619e-05
1.19793e-05
4.79664e-05
1.19814e-05
4.49704e-05
1.19833e-05
4.1974e-05
1.1985e-05
3.89773e-05
1.19865e-05
3.59802e-05
1.19879e-05
3.29828e-05
1.19891e-05
2.99851e-05
1.19902e-05
2.69872e-05
1.19911e-05
2.39891e-05
1.1992e-05
2.09908e-05
1.19927e-05
1.79924e-05
1.19933e-05
1.49939e-05
1.19939e-05
1.19952e-05
1.19943e-05
8.99648e-06
1.19946e-05
5.99769e-06
1.19949e-05
2.99885e-06
1.1995e-05
1.19951e-05
3.70861e-06
-1.85409e-05
7.41715e-06
-1.85406e-05
1.11256e-05
-1.85399e-05
1.48338e-05
-1.85388e-05
1.85417e-05
-1.85374e-05
2.22493e-05
-1.85356e-05
2.59566e-05
-1.85334e-05
2.96633e-05
-1.85308e-05
3.33694e-05
-1.85277e-05
3.70749e-05
-1.85242e-05
4.07796e-05
-1.85201e-05
4.44834e-05
-1.85154e-05
4.81862e-05
-1.85102e-05
5.18879e-05
-1.85043e-05
5.55884e-05
-1.84978e-05
5.92874e-05
-1.84904e-05
6.29849e-05
-1.84823e-05
6.66807e-05
-1.84733e-05
7.03746e-05
-1.84634e-05
7.40664e-05
-1.84525e-05
7.77559e-05
-1.84405e-05
8.14429e-05
-1.84274e-05
8.5127e-05
-1.84131e-05
8.88082e-05
-1.83974e-05
9.24861e-05
-1.83804e-05
9.61603e-05
-1.83619e-05
9.98307e-05
-1.83419e-05
0.000103497
-1.83201e-05
0.000107158
-1.82967e-05
0.000110815
-1.82713e-05
0.000114466
-1.82441e-05
0.000118112
-1.82147e-05
0.000121751
-1.81832e-05
0.000125384
-1.81495e-05
0.00012901
-1.81133e-05
0.000132628
-1.80747e-05
0.000136238
-1.80334e-05
0.000139839
-1.79894e-05
0.000143431
-1.79426e-05
0.000147013
-1.78928e-05
0.000150585
-1.784e-05
0.000154146
-1.77839e-05
0.000157695
-1.77245e-05
0.000161232
-1.76617e-05
0.000164755
-1.75953e-05
0.000168265
-1.75252e-05
0.00017176
-1.74513e-05
0.000175239
-1.73735e-05
0.000178702
-1.72916e-05
0.000182149
-1.72056e-05
0.000185577
-1.71153e-05
0.000188987
-1.70206e-05
0.000192376
-1.69214e-05
0.000195746
-1.68176e-05
0.000199093
-1.67091e-05
0.000202418
-1.65957e-05
0.00020572
-1.64774e-05
0.000208997
-1.63542e-05
0.000212248
-1.62258e-05
0.000215473
-1.60922e-05
0.00021867
-1.59534e-05
0.000221838
-1.58092e-05
0.000224977
-1.56596e-05
0.000228084
-1.55044e-05
0.00023116
-1.53438e-05
0.000234202
-1.51775e-05
0.00023721
-1.50056e-05
0.000240182
-1.48281e-05
0.000243118
-1.46448e-05
0.000246016
-1.44557e-05
0.000248875
-1.4261e-05
0.000251694
-1.40604e-05
0.000254472
-1.38541e-05
0.000257207
-1.3642e-05
0.000259899
-1.34242e-05
0.000262546
-1.32007e-05
0.000265147
-1.29715e-05
0.000267701
-1.27367e-05
0.000270207
-1.24963e-05
0.000272663
-1.22504e-05
0.000275069
-1.1999e-05
0.000277424
-1.17423e-05
0.000279726
-1.14803e-05
0.000281975
-1.12131e-05
0.000284169
-1.09409e-05
0.000286308
-1.06637e-05
0.00028839
-1.03816e-05
0.000290414
-1.00949e-05
0.00029238
-9.80364e-06
0.000294287
-9.50796e-06
0.000296133
-9.20803e-06
0.000297919
-8.90402e-06
0.000299642
-8.59611e-06
0.000301304
-8.28446e-06
0.000302901
-7.96928e-06
0.000304435
-7.65074e-06
0.000305905
-7.32905e-06
0.000307309
-7.00442e-06
0.000308647
-6.67704e-06
0.000309919
-6.34713e-06
0.000311125
-6.01491e-06
0.000312263
-5.6806e-06
0.000313334
-5.34443e-06
0.000314337
-5.0066e-06
0.000315272
-4.66737e-06
0.000316139
-4.32695e-06
0.000316937
-3.98557e-06
0.000317666
-3.64346e-06
0.000318326
-3.30087e-06
0.000318918
-2.95801e-06
0.000319441
-2.61511e-06
0.000319895
-2.27241e-06
0.00032028
-1.93013e-06
0.000320597
-1.58849e-06
0.000320845
-1.24771e-06
0.000321025
-9.08018e-07
0.000321137
-5.69619e-07
0.000321182
-2.32724e-07
0.000321159
1.02462e-07
0.000321069
4.35737e-07
0.000320913
7.66906e-07
0.000320691
1.09578e-06
0.000320403
1.42218e-06
0.000320051
1.74591e-06
0.000319634
2.06682e-06
0.000319153
2.38474e-06
0.000318609
2.6995e-06
0.000318003
3.01096e-06
0.000317335
3.31897e-06
0.000316606
3.62339e-06
0.000315816
3.9241e-06
0.000314968
4.22096e-06
0.00031406
4.51387e-06
0.000313094
4.80272e-06
0.000312072
5.0874e-06
0.000310993
5.36783e-06
0.000309859
5.64391e-06
0.00030867
5.91557e-06
0.000307428
6.18274e-06
0.000306134
6.44534e-06
0.000304788
6.70334e-06
0.000303391
6.95666e-06
0.000301944
7.20528e-06
0.000300448
7.44915e-06
0.000298905
7.68825e-06
0.000297315
7.92254e-06
0.000295679
8.15202e-06
0.000293997
8.37666e-06
0.000292272
8.59647e-06
0.000290504
8.81145e-06
0.000288694
9.02159e-06
0.000286843
9.22691e-06
0.000284952
9.42743e-06
0.000283021
9.62315e-06
0.000281053
9.81412e-06
0.000279047
1.00004e-05
0.000277005
1.01819e-05
0.000274928
1.03588e-05
0.000272816
1.0531e-05
0.000270671
1.06987e-05
0.000268493
1.08618e-05
0.000266284
1.10205e-05
0.000264044
1.11747e-05
0.000261774
1.13246e-05
0.000259475
1.14701e-05
0.000257147
1.16114e-05
0.000254793
1.17485e-05
0.000252412
1.18814e-05
0.000250005
1.20103e-05
0.000247573
1.21352e-05
0.000245117
1.22562e-05
0.000242638
1.23733e-05
0.000240136
1.24867e-05
0.000237612
1.25963e-05
0.000235068
1.27023e-05
0.000232503