/*--------------------------------*- C++ -*----------------------------------*\
| =========                 |                                                 |
| \\      /  F ield         | OpenFOAM: The Open Source CFD Toolbox           |
|  \\    /   O peration     | Version:  v2012                                 |
|   \\  /    A nd           | Website:  www.openfoam.com                      |
|    \\/     M anipulation  |                                                 |
\*---------------------------------------------------------------------------*/
FoamFile
{
    version     2.0;
    format      ascii;
    class       volScalarField;
    location    "7";
    object      Psi_z;
}
// * * * * * * * * * * * * * * * * * * * * * * * * * * * * * * * * * * * * * //

dimensions      [0 2 -1 0 0 0 0];


internalField   nonuniform List<scalar> 
65536
(
9.27026e-06
2.78106e-05
4.63504e-05
6.48892e-05
8.34269e-05
0.000101963
0.000120497
0.000139028
0.000157556
0.000176081
0.000194603
0.000213119
0.000231631
0.000250136
0.000268636
0.000287128
0.000305612
0.000324088
0.000342554
0.000361009
0.000379453
0.000397883
0.0004163
0.000434702
0.000453087
0.000471453
0.000489801
0.000508127
0.00052643
0.000544708
0.00056296
0.000581183
0.000599375
0.000617535
0.000635659
0.000653745
0.000671791
0.000689794
0.000707751
0.000725659
0.000743516
0.000761317
0.000779061
0.000796743
0.00081436
0.000831909
0.000849385
0.000866784
0.000884104
0.000901339
0.000918486
0.00093554
0.000952496
0.000969351
0.000986099
0.00100274
0.00101926
0.00103566
0.00105193
0.00106807
0.00108408
0.00109994
0.00111566
0.00113122
0.00114663
0.00116187
0.00117695
0.00119184
0.00120656
0.00122109
0.00123543
0.00124958
0.00126351
0.00127724
0.00129076
0.00130405
0.00131712
0.00132996
0.00134256
0.00135491
0.00136702
0.00137887
0.00139047
0.0014018
0.00141286
0.00142365
0.00143416
0.00144438
0.00145431
0.00146396
0.0014733
0.00148235
0.00149108
0.00149951
0.00150763
0.00151543
0.00152291
0.00153007
0.0015369
0.00154341
0.00154958
0.00155542
0.00156093
0.0015661
0.00157094
0.00157543
0.00157959
0.0015834
0.00158687
0.00159
0.00159279
0.00159524
0.00159734
0.0015991
0.00160052
0.00160161
0.00160235
0.00160276
0.00160283
0.00160257
0.00160198
0.00160105
0.0015998
0.00159823
0.00159633
0.00159412
0.00159159
0.00158874
0.00158559
0.00158213
0.00157837
0.00157431
0.00156996
0.00156531
0.00156038
0.00155517
0.00154968
0.00154391
0.00153788
0.00153158
0.00152502
0.0015182
0.00151114
0.00150382
0.00149627
0.00148848
0.00148046
0.00147221
0.00146374
0.00145505
0.00144615
0.00143704
0.00142773
0.00141821
0.00140851
0.00139862
0.00138854
0.00137828
0.00136785
0.00135725
0.00134649
0.00133556
0.00132447
0.00131324
0.00130185
0.00129032
0.00127866
0.00126685
0.00125492
0.00124286
0.00123067
0.00121837
0.00120595
0.00119342
0.00118078
0.00116804
0.00115519
0.00114225
0.00112921
0.00111609
0.00110287
0.00108957
0.00107619
0.00106274
0.0010492
0.0010356
0.00102192
0.00100818
0.000994373
0.000980504
0.000966577
0.000952592
0.000938554
0.000924463
0.000910322
0.000896134
0.0008819
0.000867622
0.000853303
0.000838944
0.000824547
0.000810114
0.000795647
0.000781148
0.000766617
0.000752056
0.000737468
0.000722853
0.000708213
0.000693548
0.000678862
0.000664154
0.000649426
0.000634678
0.000619913
0.000605131
0.000590333
0.00057552
0.000560693
0.000545853
0.000531
0.000516136
0.000501261
0.000486376
0.000471482
0.000456579
0.000441667
0.000426749
0.000411823
0.00039689
0.000381952
0.000367008
0.000352059
0.000337105
0.000322147
0.000307185
0.000292219
0.00027725
0.000262278
0.000247303
0.000232326
0.000217347
0.000202365
0.000187381
0.000172396
0.00015741
0.000142422
0.000127433
0.000112443
9.74524e-05
8.24609e-05
6.74688e-05
5.24763e-05
3.74833e-05
2.24901e-05
7.49671e-06
2.78109e-05
8.34322e-05
0.000139052
0.000194669
0.000250282
0.00030589
0.000361492
0.000417087
0.000472673
0.000528248
0.000583812
0.000639362
0.000694897
0.000750415
0.000805914
0.000861392
0.000916846
0.000972273
0.00102767
0.00108304
0.00113837
0.00119366
0.00124892
0.00130412
0.00135928
0.00141438
0.00146942
0.0015244
0.00157931
0.00163415
0.00168891
0.00174358
0.00179816
0.00185264
0.00190701
0.00196127
0.00201541
0.00206943
0.0021233
0.00217703
0.0022306
0.00228401
0.00233724
0.00239029
0.00244315
0.0024958
0.00254823
0.00260043
0.0026524
0.0027041
0.00275555
0.00280671
0.00285759
0.00290816
0.00295841
0.00300832
0.00305789
0.00310709
0.00315592
0.00320435
0.00325237
0.00329997
0.00334713
0.00339382
0.00344005
0.00348578
0.00353101
0.00357571
0.00361987
0.00366347
0.0037065
0.00374893
0.00379075
0.00383195
0.0038725
0.00391238
0.00395159
0.00399011
0.00402791
0.00406498
0.00410131
0.00413688
0.00417167
0.00420567
0.00423885
0.00427122
0.00430275
0.00433342
0.00436323
0.00439217
0.00442021
0.00444734
0.00447356
0.00449885
0.0045232
0.00454661
0.00456905
0.00459053
0.00461103
0.00463055
0.00464908
0.00466661
0.00468313
0.00469865
0.00471315
0.00472663
0.0047391
0.00475054
0.00476096
0.00477035
0.00477871
0.00478605
0.00479236
0.00479765
0.00480191
0.00480516
0.00480739
0.00480861
0.00480882
0.00480804
0.00480625
0.00480348
0.00479973
0.00479501
0.00478931
0.00478267
0.00477507
0.00476654
0.00475707
0.00474669
0.00473541
0.00472322
0.00471016
0.00469622
0.00468142
0.00466578
0.0046493
0.004632
0.00461389
0.00459499
0.00457531
0.00455486
0.00453365
0.00451171
0.00448905
0.00446567
0.0044416
0.00441685
0.00439143
0.00436536
0.00433865
0.00431132
0.00428337
0.00425484
0.00422572
0.00419604
0.0041658
0.00413503
0.00410373
0.00407192
0.00403962
0.00400683
0.00397357
0.00393986
0.0039057
0.00387111
0.0038361
0.00380069
0.00376488
0.00372869
0.00369214
0.00365522
0.00361796
0.00358036
0.00354244
0.00350421
0.00346567
0.00342684
0.00338773
0.00334835
0.0033087
0.0032688
0.00322866
0.00318828
0.00314768
0.00310686
0.00306583
0.0030246
0.00298318
0.00294157
0.00289979
0.00285783
0.00281571
0.00277344
0.00273101
0.00268845
0.00264574
0.00260291
0.00255995
0.00251687
0.00247368
0.00243038
0.00238697
0.00234347
0.00229988
0.0022562
0.00221243
0.00216858
0.00212466
0.00208067
0.00203661
0.00199248
0.0019483
0.00190405
0.00185976
0.00181541
0.00177101
0.00172657
0.00168209
0.00163757
0.00159301
0.00154842
0.00150379
0.00145914
0.00141445
0.00136974
0.00132501
0.00128025
0.00123547
0.00119068
0.00114586
0.00110103
0.00105618
0.00101132
0.000966445
0.000921559
0.000876661
0.000831754
0.000786837
0.000741913
0.00069698
0.000652042
0.000607097
0.000562146
0.000517191
0.000472231
0.000427267
0.0003823
0.000337331
0.000292358
0.000247383
0.000202407
0.000157429
0.00011245
6.74704e-05
2.24902e-05
4.63521e-05
0.000139056
0.000231756
0.000324453
0.000417142
0.000509824
0.000602496
0.000695155
0.000787799
0.000880427
0.000973035
0.00106562
0.00115818
0.00125071
0.00134321
0.00143568
0.00152811
0.00162049
0.00171282
0.0018051
0.00189733
0.00198949
0.00208158
0.00217359
0.00226552
0.00235736
0.00244911
0.00254075
0.00263227
0.00272367
0.00281494
0.00290607
0.00299704
0.00308785
0.00317848
0.00326892
0.00335917
0.0034492
0.003539
0.00362855
0.00371785
0.00380688
0.00389561
0.00398404
0.00407214
0.0041599
0.0042473
0.00433432
0.00442094
0.00450714
0.00459289
0.00467818
0.00476299
0.00484728
0.00493105
0.00501426
0.00509688
0.00517891
0.0052603
0.00534104
0.00542109
0.00550044
0.00557905
0.0056569
0.00573396
0.0058102
0.0058856
0.00596012
0.00603374
0.00610642
0.00617815
0.00624889
0.00631862
0.00638729
0.0064549
0.0065214
0.00658676
0.00665097
0.00671399
0.0067758
0.00683637
0.00689566
0.00695366
0.00701034
0.00706567
0.00711963
0.00717219
0.00722334
0.00727303
0.00732127
0.00736801
0.00741325
0.00745696
0.00749913
0.00753973
0.00757874
0.00761616
0.00765197
0.00768615
0.00771869
0.00774957
0.00777879
0.00780634
0.0078322
0.00785638
0.00787886
0.00789963
0.0079187
0.00793607
0.00795172
0.00796566
0.00797788
0.0079884
0.00799721
0.00800432
0.00800972
0.00801344
0.00801547
0.00801582
0.0080145
0.00801152
0.0080069
0.00800063
0.00799275
0.00798325
0.00797216
0.00795949
0.00794526
0.00792947
0.00791216
0.00789334
0.00787302
0.00785123
0.00782799
0.00780331
0.00777722
0.00774974
0.00772089
0.0076907
0.00765918
0.00762636
0.00759226
0.00755691
0.00752033
0.00748253
0.00744356
0.00740342
0.00736215
0.00731977
0.0072763
0.00723177
0.0071862
0.00713962
0.00709204
0.00704349
0.00699401
0.0069436
0.00689229
0.00684012
0.00678709
0.00673323
0.00667857
0.00662312
0.00656692
0.00650997
0.00645231
0.00639395
0.00633492
0.00627523
0.0062149
0.00615396
0.00609242
0.0060303
0.00596763
0.00590442
0.00584068
0.00577644
0.00571172
0.00564652
0.00558087
0.00551478
0.00544828
0.00538136
0.00531406
0.00524638
0.00517833
0.00510994
0.00504122
0.00497217
0.00490282
0.00483317
0.00476323
0.00469303
0.00462256
0.00455185
0.0044809
0.00440972
0.00433832
0.00426671
0.00419491
0.00412292
0.00405074
0.0039784
0.00390589
0.00383323
0.00376042
0.00368747
0.00361439
0.00354118
0.00346785
0.00339442
0.00332087
0.00324722
0.00317348
0.00309965
0.00302573
0.00295174
0.00287767
0.00280353
0.00272933
0.00265506
0.00258073
0.00250636
0.00243193
0.00235745
0.00228293
0.00220838
0.00213378
0.00205915
0.00198448
0.00190979
0.00183507
0.00176032
0.00168555
0.00161076
0.00153594
0.00146111
0.00138627
0.0013114
0.00123653
0.00116164
0.00108674
0.00101183
0.000936916
0.000861989
0.000787056
0.000712116
0.000637171
0.00056222
0.000487266
0.000412308
0.000337347
0.000262383
0.000187418
0.000112451
3.74838e-05
6.48942e-05
0.000194681
0.000324465
0.000454242
0.000584011
0.000713768
0.000843511
0.000973237
0.00110294
0.00123262
0.00136228
0.0014919
0.00162149
0.00175104
0.00188055
0.00201001
0.00213941
0.00226875
0.00239802
0.00252723
0.00265635
0.00278538
0.00291431
0.00304314
0.00317186
0.00330045
0.0034289
0.00355721
0.00368535
0.00381333
0.00394112
0.00406871
0.00419609
0.00432324
0.00445014
0.00457678
0.00470313
0.00482919
0.00495493
0.00508033
0.00520537
0.00533003
0.00545429
0.00557811
0.00570148
0.00582437
0.00594676
0.00606861
0.0061899
0.00631061
0.0064307
0.00655014
0.00666889
0.00678694
0.00690425
0.00702077
0.00713649
0.00725135
0.00736534
0.00747841
0.00759052
0.00770165
0.00781174
0.00792077
0.00802869
0.00813547
0.00824106
0.00834543
0.00844854
0.00855034
0.0086508
0.00874987
0.00884753
0.00894371
0.0090384
0.00913154
0.00922309
0.00931302
0.00940129
0.00948786
0.00957269
0.00965574
0.00973698
0.00981636
0.00989386
0.00996944
0.0100431
0.0101147
0.0101843
0.0102519
0.0103173
0.0103807
0.0104419
0.010501
0.0105578
0.0106125
0.0106649
0.010715
0.0107629
0.0108085
0.0108517
0.0108927
0.0109312
0.0109675
0.0110013
0.0110328
0.0110619
0.0110886
0.0111129
0.0111348
0.0111543
0.0111714
0.0111862
0.0111985
0.0112084
0.011216
0.0112212
0.011224
0.0112245
0.0112226
0.0112184
0.0112119
0.0112032
0.0111921
0.0111788
0.0111632
0.0111455
0.0111255
0.0111034
0.0110791
0.0110528
0.0110243
0.0109938
0.0109612
0.0109266
0.0108901
0.0108516
0.0108111
0.0107688
0.0107247
0.0106787
0.0106309
0.0105814
0.0105301
0.0104772
0.0104226
0.0103664
0.0103086
0.0102492
0.0101883
0.0101259
0.0100621
0.00999685
0.00993021
0.00986221
0.0097929
0.00972229
0.00965044
0.00957735
0.00950308
0.00942765
0.00935109
0.00927344
0.00919472
0.00911497
0.00903421
0.00895248
0.0088698
0.00878621
0.00870172
0.00861637
0.00853019
0.00844321
0.00835544
0.00826691
0.00817766
0.0080877
0.00799706
0.00790576
0.00781383
0.00772129
0.00762816
0.00753446
0.00744021
0.00734543
0.00725015
0.00715439
0.00705815
0.00696147
0.00686436
0.00676683
0.00666891
0.0065706
0.00647194
0.00637292
0.00627357
0.00617391
0.00607394
0.00597367
0.00587314
0.00577233
0.00567128
0.00556999
0.00546847
0.00536673
0.00526478
0.00516265
0.00506032
0.00495782
0.00485515
0.00475233
0.00464936
0.00454624
0.004443
0.00433963
0.00423614
0.00413254
0.00402884
0.00392503
0.00382114
0.00371716
0.0036131
0.00350897
0.00340477
0.0033005
0.00319617
0.00309178
0.00298734
0.00288285
0.00277832
0.00267374
0.00256913
0.00246448
0.0023598
0.00225508
0.00215035
0.00204558
0.00194079
0.00183599
0.00173116
0.00162631
0.00152145
0.00141658
0.00131169
0.0012068
0.00110189
0.00099697
0.000892046
0.000787114
0.000682177
0.000577235
0.000472289
0.000367339
0.000262387
0.000157433
5.24777e-05
8.34376e-05
0.000250311
0.00041718
0.000584041
0.000750891
0.000917727
0.00108454
0.00125134
0.00141811
0.00158485
0.00175156
0.00191822
0.00208485
0.00225142
0.00241793
0.00258439
0.00275077
0.00291708
0.0030833
0.00324943
0.00341546
0.00358137
0.00374716
0.00391281
0.00407832
0.00424366
0.00440884
0.00457382
0.00473861
0.00490317
0.0050675
0.00523157
0.00539536
0.00555887
0.00572206
0.00588491
0.0060474
0.00620951
0.00637121
0.00653248
0.00669328
0.0068536
0.00701339
0.00717263
0.0073313
0.00748934
0.00764674
0.00780346
0.00795946
0.0081147
0.00826915
0.00842277
0.00857551
0.00872735
0.00887822
0.0090281
0.00917693
0.00932468
0.0094713
0.00961673
0.00976094
0.00990388
0.0100455
0.0101857
0.0103246
0.0104619
0.0105977
0.010732
0.0108646
0.0109956
0.0111248
0.0112523
0.0113779
0.0115016
0.0116234
0.0117433
0.011861
0.0119767
0.0120903
0.0122017
0.0123108
0.0124176
0.0125221
0.0126243
0.012724
0.0128212
0.0129159
0.0130081
0.0130976
0.0131845
0.0132688
0.0133503
0.013429
0.013505
0.0135782
0.0136485
0.0137159
0.0137804
0.013842
0.0139006
0.0139562
0.0140089
0.0140585
0.0141051
0.0141486
0.0141891
0.0142265
0.0142608
0.0142921
0.0143203
0.0143454
0.0143674
0.0143863
0.0144021
0.0144149
0.0144246
0.0144313
0.0144349
0.0144355
0.0144331
0.0144277
0.0144193
0.014408
0.0143937
0.0143766
0.0143565
0.0143337
0.014308
0.0142795
0.0142482
0.0142143
0.0141776
0.0141383
0.0140964
0.0140519
0.0140048
0.0139553
0.0139033
0.0138488
0.013792
0.0137328
0.0136713
0.0136076
0.0135417
0.0134735
0.0134033
0.0133309
0.0132565
0.0131802
0.0131018
0.0130216
0.0129394
0.0128555
0.0127697
0.0126823
0.0125931
0.0125022
0.0124098
0.0123158
0.0122202
0.0121232
0.0120247
0.0119248
0.0118236
0.011721
0.0116171
0.011512
0.0114056
0.0112981
0.0111894
0.0110796
0.0109688
0.0108569
0.010744
0.0106301
0.0105153
0.0103996
0.0102831
0.0101656
0.0100474
0.00992838
0.0098086
0.00968809
0.00956688
0.009445
0.00932246
0.0091993
0.00907554
0.0089512
0.00882631
0.00870089
0.00857496
0.00844854
0.00832166
0.00819433
0.00806657
0.0079384
0.00780984
0.00768091
0.00755163
0.007422
0.00729206
0.0071618
0.00703126
0.00690043
0.00676934
0.00663801
0.00650643
0.00637463
0.00624261
0.00611039
0.00597799
0.0058454
0.00571264
0.00557972
0.00544665
0.00531344
0.0051801
0.00504663
0.00491304
0.00477935
0.00464555
0.00451165
0.00437767
0.0042436
0.00410945
0.00397523
0.00384095
0.0037066
0.00357219
0.00343773
0.00330323
0.00316867
0.00303408
0.00289944
0.00276477
0.00263007
0.00249534
0.00236059
0.0022258
0.002091
0.00195618
0.00182134
0.00168648
0.00155161
0.00141673
0.00128183
0.00114693
0.00101201
0.000877093
0.000742166
0.000607234
0.000472297
0.000337357
0.000202415
6.74719e-05
0.000101982
0.000305945
0.000509903
0.000713851
0.000917785
0.0011217
0.0013256
0.00152947
0.00173331
0.00193711
0.00214087
0.00234459
0.00254825
0.00275185
0.00295538
0.00315884
0.00336221
0.00356549
0.00376867
0.00397174
0.00417468
0.00437748
0.00458013
0.00478263
0.00498494
0.00518706
0.00538897
0.00559065
0.00579208
0.00599325
0.00619413
0.0063947
0.00659493
0.00679481
0.00699431
0.0071934
0.00739205
0.00759024
0.00778793
0.00798508
0.00818168
0.00837768
0.00857304
0.00876774
0.00896173
0.00915496
0.00934741
0.00953903
0.00972977
0.00991959
0.0101084
0.0102963
0.010483
0.0106687
0.0108532
0.0110365
0.0112185
0.0113991
0.0115784
0.0117563
0.0119326
0.0121074
0.0122806
0.0124521
0.0126219
0.0127899
0.012956
0.0131202
0.0132824
0.0134426
0.0136006
0.0137565
0.0139102
0.0140615
0.0142105
0.014357
0.0145011
0.0146426
0.0147815
0.0149177
0.0150512
0.0151819
0.0153097
0.0154346
0.0155566
0.0156755
0.0157913
0.015904
0.0160136
0.0161199
0.0162229
0.0163226
0.0164189
0.0165119
0.0166013
0.0166873
0.0167698
0.0168487
0.016924
0.0169957
0.0170637
0.0171281
0.0171888
0.0172457
0.017299
0.0173485
0.0173942
0.0174362
0.0174744
0.0175089
0.0175395
0.0175664
0.0175895
0.0176089
0.0176245
0.0176363
0.0176444
0.0176488
0.0176495
0.0176465
0.0176399
0.0176296
0.0176157
0.0175982
0.0175772
0.0175527
0.0175247
0.0174932
0.0174583
0.0174201
0.0173785
0.0173336
0.0172855
0.0172342
0.0171797
0.0171221
0.0170615
0.0169978
0.0169312
0.0168617
0.0167892
0.016714
0.016636
0.0165553
0.016472
0.016386
0.0162975
0.0162065
0.0161131
0.0160172
0.015919
0.0158186
0.0157159
0.015611
0.015504
0.0153949
0.0152838
0.0151707
0.0150557
0.0149389
0.0148202
0.0146997
0.0145776
0.0144537
0.0143283
0.0142012
0.0140726
0.0139426
0.0138111
0.0136782
0.013544
0.0134084
0.0132716
0.0131335
0.0129943
0.0128539
0.0127125
0.0125699
0.0124263
0.0122818
0.0121362
0.0119898
0.0118424
0.0116942
0.0115452
0.0113954
0.0112448
0.0110935
0.0109415
0.0107888
0.0106355
0.0104815
0.0103269
0.0101718
0.0100162
0.00985997
0.00970329
0.00954612
0.00938851
0.00923046
0.009072
0.00891314
0.00875391
0.00859433
0.0084344
0.00827416
0.0081136
0.00795276
0.00779165
0.00763027
0.00746865
0.0073068
0.00714472
0.00698244
0.00681997
0.00665731
0.00649448
0.00633149
0.00616834
0.00600506
0.00584164
0.00567809
0.00551443
0.00535065
0.00518678
0.00502281
0.00485876
0.00469462
0.00453041
0.00436612
0.00420178
0.00403737
0.00387291
0.00370839
0.00354383
0.00337923
0.00321459
0.00304992
0.00288521
0.00272047
0.00255571
0.00239092
0.00222611
0.00206129
0.00189644
0.00173158
0.0015667
0.00140182
0.00123692
0.00107202
0.000907103
0.000742183
0.000577259
0.00041233
0.000247399
8.24666e-05
0.000120529
0.000361585
0.000602635
0.000843674
0.0010847
0.0013257
0.00156668
0.00180763
0.00204854
0.00228941
0.00253023
0.002771
0.00301171
0.00325235
0.0034929
0.00373337
0.00397375
0.00421401
0.00445416
0.00469417
0.00493404
0.00517374
0.00541328
0.00565262
0.00589175
0.00613066
0.00636932
0.00660771
0.00684582
0.00708361
0.00732107
0.00755816
0.00779486
0.00803114
0.00826698
0.00850233
0.00873717
0.00897146
0.00920517
0.00943825
0.00967067
0.00990239
0.0101334
0.0103636
0.0105929
0.0108214
0.0110489
0.0112755
0.011501
0.0117254
0.0119487
0.0121708
0.0123917
0.0126112
0.0128294
0.0130461
0.0132613
0.013475
0.013687
0.0138973
0.0141059
0.0143126
0.0145174
0.0147203
0.0149211
0.0151197
0.0153162
0.0155104
0.0157022
0.0158917
0.0160786
0.016263
0.0164447
0.0166237
0.0167999
0.0169733
0.0171437
0.0173111
0.0174754
0.0176365
0.0177944
0.0179489
0.0181002
0.0182479
0.0183922
0.0185328
0.0186699
0.0188032
0.0189328
0.0190585
0.0191804
0.0192983
0.0194123
0.0195222
0.019628
0.0197297
0.0198272
0.0199205
0.0200096
0.0200944
0.0201749
0.020251
0.0203228
0.0203901
0.0204531
0.0205116
0.0205657
0.0206153
0.0206605
0.0207012
0.0207374
0.0207692
0.0207965
0.0208194
0.0208378
0.0208517
0.0208613
0.0208664
0.0208672
0.0208636
0.0208557
0.0208435
0.020827
0.0208063
0.0207814
0.0207523
0.0207191
0.0206818
0.0206405
0.0205952
0.020546
0.0204929
0.0204359
0.0203751
0.0203106
0.0202425
0.0201707
0.0200953
0.0200165
0.0199342
0.0198485
0.0197595
0.0196672
0.0195717
0.0194731
0.0193713
0.0192666
0.0191589
0.0190484
0.018935
0.0188188
0.0187
0.0185785
0.0184544
0.0183278
0.0181988
0.0180673
0.0179336
0.0177976
0.0176593
0.017519
0.0173765
0.017232
0.0170855
0.0169371
0.0167869
0.0166348
0.016481
0.0163255
0.0161683
0.0160096
0.0158493
0.0156875
0.0155243
0.0153596
0.0151936
0.0150263
0.0148578
0.014688
0.0145171
0.014345
0.0141718
0.0139976
0.0138224
0.0136462
0.0134691
0.0132911
0.0131122
0.0129324
0.0127519
0.0125706
0.0123886
0.0122059
0.0120225
0.0118385
0.0116539
0.0114686
0.0112829
0.0110965
0.0109097
0.0107224
0.0105346
0.0103464
0.0101577
0.00996869
0.00977927
0.00958949
0.00939937
0.00920893
0.00901818
0.00882714
0.00863583
0.00844426
0.00825244
0.0080604
0.00786814
0.00767568
0.00748303
0.0072902
0.0070972
0.00690405
0.00671075
0.00651731
0.00632374
0.00613006
0.00593626
0.00574236
0.00554837
0.00535428
0.00516012
0.00496588
0.00477157
0.00457719
0.00438276
0.00418827
0.00399373
0.00379915
0.00360453
0.00340986
0.00321517
0.00302044
0.00282569
0.00263091
0.00243611
0.00224128
0.00204644
0.00185159
0.00165672
0.00146184
0.00126695
0.00107205
0.000877138
0.000682224
0.000487306
0.000292385
9.74619e-05
0.000139078
0.000417232
0.000695378
0.000973512
0.00125163
0.00152972
0.00180779
0.00208582
0.00236381
0.00264176
0.00291965
0.00319748
0.00347524
0.00375292
0.00403051
0.00430801
0.00458539
0.00486265
0.00513977
0.00541675
0.00569355
0.00597018
0.00624661
0.00652282
0.00679879
0.00707451
0.00734994
0.00762507
0.00789987
0.00817431
0.00844837
0.00872201
0.00899521
0.00926792
0.00954013
0.00981178
0.0100828
0.0103533
0.010623
0.0108921
0.0111604
0.0114279
0.0116945
0.0119602
0.012225
0.0124887
0.0127514
0.013013
0.0132733
0.0135324
0.0137902
0.0140467
0.0143017
0.0145551
0.014807
0.0150573
0.0153058
0.0155525
0.0157973
0.0160402
0.016281
0.0165197
0.0167562
0.0169904
0.0172223
0.0174517
0.0176786
0.0179029
0.0181245
0.0183433
0.0185592
0.0187721
0.018982
0.0191887
0.0193923
0.0195925
0.0197893
0.0199826
0.0201724
0.0203585
0.0205409
0.0207194
0.0208941
0.0210647
0.0212314
0.0213938
0.0215521
0.0217061
0.0218558
0.022001
0.0221418
0.022278
0.0224096
0.0225366
0.0226588
0.0227762
0.0228889
0.0229967
0.0230995
0.0231974
0.0232904
0.0233783
0.0234611
0.0235389
0.0236116
0.0236792
0.0237416
0.0237989
0.023851
0.023898
0.0239398
0.0239765
0.0240079
0.0240343
0.0240555
0.0240716
0.0240825
0.0240884
0.0240892
0.024085
0.0240758
0.0240616
0.0240425
0.0240185
0.0239897
0.023956
0.0239176
0.0238745
0.0238267
0.0237743
0.0237174
0.0236559
0.0235901
0.0235198
0.0234453
0.0233665
0.0232835
0.0231964
0.0231052
0.0230101
0.0229111
0.0228082
0.0227015
0.0225912
0.0224772
0.0223597
0.0222387
0.0221143
0.0219865
0.0218555
0.0217213
0.021584
0.0214436
0.0213003
0.0211541
0.021005
0.0208532
0.0206987
0.0205416
0.020382
0.0202198
0.0200553
0.0198884
0.0197192
0.0195479
0.0193743
0.0191987
0.0190211
0.0188415
0.0186601
0.0184768
0.0182917
0.0181049
0.0179164
0.0177263
0.0175346
0.0173415
0.0171469
0.0169509
0.0167535
0.0165549
0.016355
0.0161538
0.0159516
0.0157482
0.0155437
0.0153382
0.0151317
0.0149242
0.0147158
0.0145066
0.0142965
0.0140856
0.0138739
0.0136615
0.0134484
0.0132346
0.0130201
0.0128051
0.0125894
0.0123732
0.0121565
0.0119393
0.0117215
0.0115034
0.0112847
0.0110657
0.0108463
0.0106265
0.0104064
0.0101859
0.00996511
0.00974403
0.00952267
0.00930105
0.00907918
0.00885707
0.00863475
0.00841222
0.00818951
0.00796661
0.00774354
0.00752032
0.00729695
0.00707344
0.00684981
0.00662606
0.0064022
0.00617824
0.00595419
0.00573005
0.00550583
0.00528154
0.00505718
0.00483275
0.00460828
0.00438375
0.00415917
0.00393455
0.00370989
0.0034852
0.00326048
0.00303572
0.00281095
0.00258615
0.00236133
0.00213649
0.00191163
0.00168676
0.00146189
0.001237
0.0010121
0.000787194
0.000562285
0.000337373
0.000112458
0.000157629
0.000472885
0.000788133
0.00110337
0.00141858
0.00173377
0.00204894
0.00236406
0.00267914
0.00299416
0.00330913
0.00362403
0.00393885
0.00425359
0.00456822
0.00488275
0.00519715
0.00551142
0.00582554
0.00613949
0.00645325
0.00676682
0.00708016
0.00739326
0.00770609
0.00801864
0.00833087
0.00864276
0.00895428
0.0092654
0.00957609
0.00988631
0.010196
0.0105052
0.0108138
0.0111218
0.0114291
0.0117358
0.0120416
0.0123467
0.0126509
0.0129542
0.0132565
0.0135578
0.013858
0.0141571
0.014455
0.0147516
0.0150469
0.0153407
0.0156331
0.0159239
0.0162131
0.0165006
0.0167863
0.0170701
0.017352
0.0176318
0.0179095
0.018185
0.0184582
0.018729
0.0189973
0.019263
0.019526
0.0197863
0.0200437
0.0202981
0.0205495
0.0207977
0.0210427
0.0212843
0.0215224
0.021757
0.0219879
0.0222151
0.0224384
0.0226578
0.0228731
0.0230842
0.0232912
0.0234938
0.0236919
0.0238856
0.0240747
0.0242591
0.0244387
0.0246134
0.0247832
0.024948
0.0251077
0.0252623
0.0254116
0.0255557
0.0256944
0.0258276
0.0259554
0.0260777
0.0261944
0.0263055
0.0264109
0.0265106
0.0266046
0.0266928
0.0267753
0.0268519
0.0269227
0.0269877
0.0270468
0.0271
0.0271474
0.0271889
0.0272245
0.0272544
0.0272783
0.0272965
0.0273089
0.0273155
0.0273163
0.0273115
0.0273009
0.0272848
0.027263
0.0272357
0.0272028
0.0271645
0.0271209
0.0270718
0.0270175
0.026958
0.0268933
0.0268234
0.0267486
0.0266688
0.0265841
0.0264946
0.0264004
0.0263014
0.0261979
0.0260899
0.0259775
0.0258607
0.0257396
0.0256143
0.0254849
0.0253515
0.0252141
0.0250729
0.0249279
0.0247792
0.0246269
0.0244711
0.0243118
0.0241491
0.0239832
0.023814
0.0236418
0.0234665
0.0232882
0.023107
0.0229231
0.0227364
0.0225471
0.0223552
0.0221607
0.0219639
0.0217647
0.0215632
0.0213595
0.0211537
0.0209457
0.0207358
0.0205239
0.0203101
0.0200945
0.0198771
0.0196581
0.0194374
0.0192151
0.0189913
0.018766
0.0185393
0.0183112
0.0180818
0.0178512
0.0176193
0.0173863
0.0171521
0.0169169
0.0166806
0.0164433
0.0162051
0.015966
0.015726
0.0154852
0.0152435
0.0150011
0.014758
0.0145142
0.0142697
0.0140246
0.0137789
0.0135326
0.0132858
0.0130385
0.0127906
0.0125423
0.0122936
0.0120444
0.0117949
0.011545
0.0112947
0.0110441
0.0107932
0.0105419
0.0102904
0.0100387
0.00978668
0.00953444
0.00928199
0.00902934
0.00877649
0.00852347
0.00827029
0.00801696
0.00776348
0.00750987
0.00725614
0.00700229
0.00674834
0.0064943
0.00624016
0.00598595
0.00573166
0.00547729
0.00522287
0.00496839
0.00471386
0.00445928
0.00420466
0.00394999
0.0036953
0.00344057
0.00318581
0.00293103
0.00267622
0.0024214
0.00216656
0.0019117
0.00165683
0.00140195
0.00114707
0.000892169
0.000637268
0.000382362
0.000127454
0.000176183
0.000528547
0.000880902
0.00123324
0.00158556
0.00193786
0.00229012
0.00264234
0.00299451
0.00334663
0.00369868
0.00405066
0.00440255
0.00475435
0.00510604
0.00545762
0.00580906
0.00616035
0.00651147
0.00686241
0.00721316
0.00756368
0.00791395
0.00826396
0.00861368
0.00896308
0.00931214
0.00966082
0.0100091
0.0103569
0.0107043
0.0110511
0.0113974
0.0117431
0.0120881
0.0124325
0.0127761
0.013119
0.013461
0.0138021
0.0141423
0.0144815
0.0148195
0.0151565
0.0154923
0.0158267
0.0161599
0.0164916
0.0168219
0.0171505
0.0174776
0.0178029
0.0181263
0.0184479
0.0187675
0.019085
0.0194003
0.0197133
0.020024
0.0203322
0.0206378
0.0209407
0.0212409
0.0215382
0.0218325
0.0221237
0.0224117
0.0226964
0.0229777
0.0232555
0.0235296
0.0237999
0.0240664
0.0243289
0.0245873
0.0248415
0.0250914
0.0253369
0.0255779
0.0258142
0.0260458
0.0262726
0.0264943
0.0267111
0.0269227
0.027129
0.02733
0.0275256
0.0277157
0.0279001
0.0280789
0.0282518
0.0284189
0.0285801
0.0287353
0.0288845
0.0290275
0.0291643
0.0292949
0.0294192
0.0295371
0.0296487
0.0297538
0.0298525
0.0299447
0.0300304
0.0301096
0.0301822
0.0302483
0.0303078
0.0303608
0.0304072
0.030447
0.0304803
0.030507
0.0305272
0.030541
0.0305483
0.0305491
0.0305436
0.0305317
0.0305135
0.030489
0.0304583
0.0304214
0.0303785
0.0303294
0.0302744
0.0302135
0.0301468
0.0300742
0.029996
0.0299121
0.0298227
0.0297278
0.0296275
0.0295219
0.0294111
0.0292952
0.0291742
0.0290482
0.0289174
0.0287818
0.0286415
0.0284966
0.0283472
0.0281934
0.0280353
0.027873
0.0277065
0.027536
0.0273616
0.0271833
0.0270012
0.0268155
0.0266262
0.0264334
0.0262372
0.0260377
0.0258349
0.0256291
0.0254202
0.0252083
0.0249936
0.024776
0.0245558
0.0243329
0.0241075
0.0238796
0.0236493
0.0234167
0.0231818
0.0229448
0.0227057
0.0224645
0.0222214
0.0219763
0.0217295
0.0214808
0.0212305
0.0209785
0.020725
0.0204699
0.0202134
0.0199554
0.0196961
0.0194355
0.0191736
0.0189106
0.0186464
0.0183811
0.0181147
0.0178473
0.0175789
0.0173096
0.0170395
0.0167684
0.0164966
0.016224
0.0159506
0.0156766
0.0154019
0.0151265
0.0148506
0.0145741
0.014297
0.0140194
0.0137413
0.0134628
0.0131838
0.0129044
0.0126246
0.0123445
0.0120639
0.0117831
0.011502
0.0112205
0.0109388
0.0106569
0.0103747
0.0100923
0.00980962
0.0095268
0.00924379
0.00896061
0.00867728
0.0083938
0.00811019
0.00782645
0.0075426
0.00725864
0.00697458
0.00669043
0.0064062
0.0061219
0.00583752
0.00555309
0.00526859
0.00498405
0.00469945
0.00441482
0.00413015
0.00384544
0.0035607
0.00327593
0.00299114
0.00270633
0.0024215
0.00213665
0.00185179
0.00156692
0.00128204
0.00099715
0.000712254
0.000427354
0.000142452
0.00019474
0.000584217
0.000973685
0.00136314
0.00175257
0.00214197
0.00253134
0.00292067
0.00330994
0.00369915
0.0040883
0.00447737
0.00486635
0.00525522
0.00564398
0.00603262
0.00642111
0.00680944
0.00719759
0.00758554
0.00797328
0.00836078
0.00874801
0.00913496
0.00952159
0.00990788
0.0102938
0.0106793
0.0110643
0.0114489
0.011833
0.0122165
0.0125994
0.0129816
0.0133631
0.0137439
0.0141239
0.0145031
0.0148813
0.0152585
0.0156347
0.0160098
0.0163837
0.0167564
0.0171277
0.0174977
0.0178662
0.0182331
0.0185984
0.018962
0.0193237
0.0196836
0.0200414
0.0203972
0.0207507
0.021102
0.0214508
0.0217972
0.0221409
0.0224819
0.0228201
0.0231553
0.0234874
0.0238164
0.0241421
0.0244644
0.0247831
0.0250982
0.0254095
0.0257168
0.0260202
0.0263194
0.0266144
0.0269049
0.0271909
0.0274723
0.0277489
0.0280206
0.0282874
0.028549
0.0288053
0.0290563
0.0293018
0.0295417
0.0297759
0.0300044
0.0302269
0.0304433
0.0306537
0.0308579
0.0310557
0.0312472
0.0314322
0.0316106
0.0317824
0.0319474
0.0321057
0.0322571
0.0324017
0.0325392
0.0326697
0.0327932
0.0329095
0.0330187
0.0331207
0.0332155
0.0333031
0.0333834
0.0334565
0.0335222
0.0335808
0.033632
0.033676
0.0337127
0.0337422
0.0337645
0.0337796
0.0337875
0.0337883
0.033782
0.0337687
0.0337484
0.0337212
0.0336871
0.0336461
0.0335984
0.033544
0.033483
0.0334154
0.0333414
0.0332609
0.0331742
0.0330812
0.0329821
0.0328769
0.0327657
0.0326487
0.0325259
0.0323975
0.0322634
0.0321239
0.0319789
0.0318287
0.0316733
0.0315129
0.0313474
0.0311771
0.031002
0.0308222
0.0306379
0.0304491
0.0302559
0.0300585
0.029857
0.0296513
0.0294418
0.0292283
0.0290112
0.0287903
0.028566
0.0283381
0.0281069
0.0278724
0.0276348
0.0273941
0.0271503
0.0269037
0.0266543
0.0264021
0.0261473
0.0258899
0.0256301
0.0253678
0.0251032
0.0248364
0.0245675
0.0242964
0.0240233
0.0237483
0.0234714
0.0231927
0.0229122
0.0226301
0.0223463
0.022061
0.0217742
0.021486
0.0211964
0.0209054
0.0206132
0.0203198
0.0200252
0.0197295
0.0194328
0.019135
0.0188362
0.0185365
0.018236
0.0179345
0.0176323
0.0173293
0.0170255