/*--------------------------------*- C++ -*----------------------------------*\
| =========                 |                                                 |
| \\      /  F ield         | OpenFOAM: The Open Source CFD Toolbox           |
|  \\    /   O peration     | Version:  v2012                                 |
|   \\  /    A nd           | Website:  www.openfoam.com                      |
|    \\/     M anipulation  |                                                 |
\*---------------------------------------------------------------------------*/
FoamFile
{
    version     2.0;
    format      ascii;
    class       volScalarField;
    location    "7";
    object      W;
}
// * * * * * * * * * * * * * * * * * * * * * * * * * * * * * * * * * * * * * //

dimensions      [0 0 -1 0 0 0 0];


internalField   nonuniform List<scalar> 
65536
(
1.17623e-18
1.23633e-18
1.35946e-18
1.55049e-18
1.81697e-18
2.16941e-18
2.62166e-18
3.19137e-18
3.90065e-18
4.77674e-18
5.85298e-18
7.1698e-18
8.77606e-18
1.07305e-17
1.31035e-17
1.59791e-17
1.94577e-17
2.36585e-17
2.8723e-17
3.48187e-17
4.21438e-17
5.09319e-17
6.14584e-17
7.40467e-17
8.90763e-17
1.06992e-16
1.28312e-16
1.53645e-16
1.83694e-16
2.19281e-16
2.61357e-16
3.11024e-16
3.69556e-16
4.38421e-16
5.1931e-16
6.14166e-16
7.25215e-16
8.55007e-16
1.00645e-15
1.18287e-15
1.38803e-15
1.62622e-15
1.90228e-15
2.22172e-15
2.59069e-15
3.01619e-15
3.50601e-15
4.06892e-15
4.71473e-15
5.45435e-15
6.29997e-15
7.26509e-15
8.36467e-15
9.61528e-15
1.10352e-14
1.26444e-14
1.44649e-14
1.65209e-14
1.88386e-14
2.14467e-14
2.43763e-14
2.76609e-14
3.13369e-14
3.54434e-14
4.00224e-14
4.51185e-14
5.07797e-14
5.70567e-14
6.40033e-14
7.16762e-14
8.01349e-14
8.94417e-14
9.96615e-14
1.10862e-13
1.23111e-13
1.36482e-13
1.51046e-13
1.66878e-13
1.84051e-13
2.0264e-13
2.22718e-13
2.44357e-13
2.67626e-13
2.92593e-13
3.19319e-13
3.47863e-13
3.78276e-13
4.10602e-13
4.44877e-13
4.81127e-13
5.19368e-13
5.59602e-13
6.0182e-13
6.45997e-13
6.92092e-13
7.40048e-13
7.89789e-13
8.41221e-13
8.94228e-13
9.48677e-13
1.00441e-12
1.06125e-12
1.119e-12
1.17743e-12
1.23631e-12
1.29537e-12
1.35433e-12
1.41289e-12
1.47073e-12
1.52753e-12
1.58294e-12
1.63661e-12
1.68818e-12
1.73728e-12
1.78357e-12
1.82667e-12
1.86625e-12
1.90196e-12
1.93349e-12
1.96054e-12
1.98283e-12
2.00011e-12
2.01219e-12
2.01888e-12
2.02006e-12
2.01563e-12
2.00555e-12
1.98982e-12
1.9685e-12
1.94169e-12
1.90955e-12
1.87229e-12
1.83015e-12
1.78343e-12
1.73248e-12
1.67768e-12
1.61945e-12
1.55823e-12
1.4945e-12
1.42876e-12
1.36152e-12
1.2933e-12
1.22461e-12
1.15599e-12
1.08794e-12
1.02096e-12
9.55531e-13
8.921e-13
8.31096e-13
7.72913e-13
7.1791e-13
6.66408e-13
6.1869e-13
5.74997e-13
5.3553e-13
5.00446e-13
4.69861e-13
4.4385e-13
4.22446e-13
4.05642e-13
3.93388e-13
3.85599e-13
3.82149e-13
3.82877e-13
3.87581e-13
3.96028e-13
4.07947e-13
4.23034e-13
4.40954e-13
4.61341e-13
4.83799e-13
5.0791e-13
5.33231e-13
5.59303e-13
5.85654e-13
6.11803e-13
6.3727e-13
6.61581e-13
6.84273e-13
7.04907e-13
7.23072e-13
7.38394e-13
7.50544e-13
7.59245e-13
7.64276e-13
7.6548e-13
7.62767e-13
7.56114e-13
7.45567e-13
7.31241e-13
7.13314e-13
6.92025e-13
6.67666e-13
6.40577e-13
6.11132e-13
5.79737e-13
5.46812e-13
5.12789e-13
4.78094e-13
4.43143e-13
4.08333e-13
3.74032e-13
3.40571e-13
3.08247e-13
2.7731e-13
2.47967e-13
2.20378e-13
1.94659e-13
1.70884e-13
1.49085e-13
1.29259e-13
1.1137e-13
9.5355e-14
8.11293e-14
6.85896e-14
5.76202e-14
4.80968e-14
3.98908e-14
3.28726e-14
2.69148e-14
2.18945e-14
1.76952e-14
1.42084e-14
1.13343e-14
8.98254e-15
7.07207e-15
5.53134e-15
4.29779e-15
3.31728e-15
2.54351e-15
1.93729e-15
1.46575e-15
1.10159e-15
8.22379e-16
6.09829e-16
4.49183e-16
3.28633e-16
2.38818e-16
1.7238e-16
1.23584e-16
8.80019e-17
6.224e-17
4.37211e-17
3.05036e-17
2.11373e-17
1.45473e-17
9.94406e-18
6.75177e-18
4.5544e-18
3.05373e-18
2.03797e-18
1.3583e-18
9.11588e-19
6.27796e-19
4.61189e-19
3.84315e-19
1.64451e-18
1.72842e-18
1.90039e-18
2.16719e-18
2.53935e-18
3.03152e-18
3.663e-18
4.45841e-18
5.44853e-18
6.67134e-18
8.17324e-18
1.00106e-17
1.22513e-17
1.49772e-17
1.82862e-17
2.22953e-17
2.71439e-17
3.29976e-17
4.0053e-17
4.85428e-17
5.8742e-17
7.09748e-17
8.56228e-17
1.03134e-16
1.24035e-16
1.4894e-16
1.78568e-16
2.13756e-16
2.55481e-16
3.04875e-16
3.63249e-16
4.32124e-16
5.13253e-16
6.08658e-16
7.20662e-16
8.51934e-16
1.00553e-15
1.18495e-15
1.39417e-15
1.63773e-15
1.92079e-15
2.2492e-15
2.62956e-15
3.06934e-15
3.57695e-15
4.16183e-15
4.83459e-15
5.60708e-15
6.49254e-15
7.5057e-15
8.66295e-15
9.98244e-15
1.14843e-14
1.31905e-14
1.51256e-14
1.73163e-14
1.97919e-14
2.25842e-14
2.57282e-14
2.92616e-14
3.32252e-14
3.76634e-14
4.26235e-14
4.81566e-14
5.43171e-14
6.11633e-14
6.87568e-14
7.7163e-14
8.64507e-14
9.66924e-14
1.07964e-13
1.20343e-13
1.33913e-13
1.48757e-13
1.64962e-13
1.82615e-13
2.01807e-13
2.22626e-13
2.45163e-13
2.69506e-13
2.95743e-13
3.23958e-13
3.54231e-13
3.86637e-13
4.21247e-13
4.58122e-13
4.97316e-13
5.38872e-13
5.82821e-13
6.29182e-13
6.7796e-13
7.29142e-13
7.827e-13
8.38584e-13
8.96726e-13
9.57036e-13
1.0194e-12
1.08369e-12
1.14973e-12
1.21734e-12
1.28632e-12
1.35642e-12
1.42738e-12
1.49891e-12
1.5707e-12
1.64242e-12
1.7137e-12
1.78418e-12
1.85346e-12
1.92113e-12
1.98677e-12
2.04995e-12
2.11025e-12
2.16723e-12
2.22046e-12
2.26952e-12
2.31401e-12
2.35355e-12
2.38776e-12
2.41632e-12
2.43893e-12
2.45532e-12
2.46528e-12
2.46864e-12
2.46527e-12
2.4551e-12
2.43813e-12
2.4144e-12
2.38401e-12
2.34713e-12
2.30399e-12
2.25486e-12
2.20009e-12
2.14005e-12
2.07519e-12
2.00598e-12
1.93295e-12
1.85665e-12
1.77766e-12
1.69657e-12
1.61401e-12
1.53058e-12
1.44691e-12
1.36361e-12
1.28126e-12
1.20045e-12
1.12173e-12
1.04561e-12
9.7258e-13
9.03073e-13
8.37492e-13
7.7619e-13
7.19473e-13
6.67599e-13
6.20776e-13
5.79164e-13
5.42873e-13
5.11966e-13
4.86459e-13
4.6632e-13
4.51473e-13
4.41798e-13
4.37133e-13
4.37274e-13
4.41975e-13
4.50955e-13
4.63891e-13
4.80425e-13
5.00165e-13
5.22687e-13
5.47535e-13
5.74229e-13
6.02264e-13
6.31118e-13
6.60257e-13
6.8914e-13
7.17226e-13
7.43984e-13
7.68899e-13
7.91481e-13
8.11276e-13
8.27869e-13
8.409e-13
8.50065e-13
8.55125e-13
8.55914e-13
8.52338e-13
8.44378e-13
8.32096e-13
8.15624e-13
7.95169e-13
7.71002e-13
7.43455e-13
7.12908e-13
6.79783e-13
6.44532e-13
6.07625e-13
5.69542e-13
5.30756e-13
4.9173e-13
4.52901e-13
4.14674e-13
3.77418e-13
3.41456e-13
3.07063e-13
2.74464e-13
2.43834e-13
2.15299e-13
1.88935e-13
1.64776e-13
1.42815e-13
1.23009e-13
1.05288e-13
8.95525e-14
7.56884e-14
6.35653e-14
5.30445e-14
4.39824e-14
3.62349e-14
2.96603e-14
2.41219e-14
1.94909e-14
1.56467e-14
1.24789e-14
9.88754e-15
7.783e-15
6.0862e-15
4.72801e-15
3.64869e-15
2.79713e-15
2.13011e-15
1.61138e-15
1.21085e-15
9.03812e-16
6.7012e-16
4.93525e-16
3.61028e-16
2.62328e-16
1.89327e-16
1.35719e-16
9.66327e-17
6.83373e-17
4.79996e-17
3.34857e-17
2.32017e-17
1.59669e-17
1.09136e-17
7.40952e-18
4.99775e-18
3.35078e-18
2.23608e-18
1.49026e-18
1.00009e-18
6.88711e-19
5.05914e-19
4.21582e-19
2.7518e-18
2.89199e-18
3.17936e-18
3.62521e-18
4.24709e-18
5.06942e-18
6.12437e-18
7.45296e-18
9.1065e-18
1.11483e-17
1.36555e-17
1.67221e-17
2.04611e-17
2.50085e-17
3.05272e-17
3.72116e-17
4.52934e-17
5.50477e-17
6.68008e-17
8.09388e-17
9.79174e-17
1.18274e-16
1.4264e-16
1.71758e-16
2.06498e-16
2.47875e-16
2.97076e-16
3.55484e-16
4.24707e-16
5.0661e-16
6.03353e-16
7.17434e-16
8.51732e-16
1.00956e-15
1.19474e-15
1.41162e-15
1.66522e-15
1.96122e-15
2.30614e-15
2.70736e-15
3.17326e-15
3.71333e-15
4.33829e-15
5.06021e-15
5.89269e-15
6.85094e-15
7.95202e-15
9.21498e-15
1.0661e-14
1.23137e-14
1.41992e-14
1.63464e-14
1.87871e-14
2.15564e-14
2.46929e-14
2.82386e-14
3.22395e-14
3.67456e-14
4.18112e-14
4.74951e-14
5.38606e-14
6.09758e-14
6.89139e-14
7.77529e-14
8.75759e-14
9.84712e-14
1.10532e-13
1.23856e-13
1.38547e-13
1.54712e-13
1.72462e-13
1.91914e-13
2.13186e-13
2.364e-13
2.6168e-13
2.8915e-13
3.18937e-13
3.51165e-13
3.85958e-13
4.23435e-13
4.63712e-13
5.069e-13
5.53099e-13
6.02404e-13
6.54896e-13
7.10645e-13
7.69706e-13
8.32115e-13
8.97892e-13
9.67035e-13
1.03952e-12
1.11529e-12
1.19429e-12
1.27639e-12
1.36146e-12
1.44935e-12
1.53985e-12
1.63272e-12
1.7277e-12
1.82449e-12
1.92275e-12
2.0221e-12
2.12215e-12
2.22245e-12
2.32254e-12
2.42192e-12
2.52006e-12
2.61643e-12
2.71045e-12
2.80156e-12
2.88916e-12
2.97266e-12
3.05148e-12
3.12502e-12
3.19273e-12
3.25405e-12
3.30847e-12
3.35548e-12
3.39464e-12
3.42556e-12
3.44787e-12
3.4613e-12
3.4656e-12
3.46062e-12
3.44627e-12
3.42255e-12
3.3895e-12
3.34729e-12
3.29613e-12
3.23633e-12
3.16826e-12
3.09238e-12
3.00921e-12
2.91934e-12
2.82342e-12
2.72215e-12
2.61626e-12
2.50654e-12
2.39379e-12
2.27883e-12
2.1625e-12
2.04563e-12
1.92904e-12
1.81353e-12
1.69987e-12
1.58882e-12
1.48106e-12
1.37725e-12
1.278e-12
1.18383e-12
1.09523e-12
1.01261e-12
9.36342e-13
8.66699e-13
8.03907e-13
7.48124e-13
6.99447e-13
6.57907e-13
6.23479e-13
5.96079e-13
5.75566e-13
5.61748e-13
5.54378e-13
5.53161e-13
5.57756e-13
5.67772e-13
5.82779e-13
6.023e-13
6.25823e-13
6.52796e-13
6.82637e-13
7.14733e-13
7.48446e-13
7.83122e-13
8.18096e-13
8.52695e-13
8.86255e-13
9.18123e-13
9.47672e-13
9.74308e-13
9.97482e-13
1.0167e-12
1.03153e-12
1.04162e-12
1.04669e-12
1.04654e-12
1.0411e-12
1.03034e-12
1.01435e-12
9.93312e-13
9.67491e-13
9.37227e-13
9.0293e-13
8.65074e-13
8.24174e-13
7.80784e-13
7.35477e-13
6.88834e-13
6.41428e-13
5.93816e-13
5.46524e-13
5.00037e-13
4.54795e-13
4.1118e-13
3.6952e-13
3.30078e-13
2.93059e-13
2.58605e-13
2.26805e-13
1.9769e-13
1.71246e-13
1.47418e-13
1.26114e-13
1.07212e-13
9.05689e-14
7.6026e-14
6.34134e-14
5.25564e-14
4.32798e-14
3.5412e-14
2.8788e-14
2.3252e-14
1.86589e-14
1.48759e-14
1.17826e-14
9.27155e-15
7.24785e-15
5.62866e-15
4.34241e-15
3.32799e-15
2.53366e-15
1.91614e-15
1.43949e-15
1.07421e-15
7.96272e-16
5.86299e-16
4.28803e-16
3.11509e-16
2.24778e-16
1.61102e-16
1.14685e-16
8.10898e-17
5.69477e-17
3.9722e-17
2.75188e-17
1.89352e-17
1.29408e-17
8.78478e-18
5.92469e-18
3.97183e-18
2.65025e-18
1.76612e-18
1.18511e-18
8.16044e-19
5.99402e-19
4.9946e-19
4.89487e-18
5.14388e-18
5.65442e-18
6.44651e-18
7.55124e-18
9.01191e-18
1.08855e-17
1.32449e-17
1.61807e-17
1.98053e-17
2.42553e-17
2.96969e-17
3.63303e-17
4.43962e-17
5.41824e-17
6.60329e-17
8.03569e-17
9.76404e-17
1.1846e-16
1.43495e-16
1.73552e-16
2.09577e-16
2.52682e-16
3.04175e-16
3.65585e-16
4.387e-16
5.25605e-16
6.28727e-16
7.50886e-16
8.95353e-16
1.06591e-15
1.26693e-15
1.50345e-15
1.78125e-15
2.10699e-15
2.48828e-15
2.93381e-15
3.4535e-15
4.05864e-15
4.76205e-15
5.57825e-15
6.52363e-15
7.61672e-15
8.87832e-15
1.03318e-14
1.20034e-14
1.39223e-14
1.61211e-14
1.86361e-14
2.15074e-14
2.47795e-14
2.85014e-14
3.27272e-14
3.75161e-14
4.29329e-14
4.90484e-14
5.59396e-14
6.36901e-14
7.23902e-14
8.21374e-14
9.30367e-14
1.052e-13
1.18748e-13
1.33808e-13
1.50514e-13
1.69011e-13
1.89448e-13
2.11984e-13
2.36781e-13
2.64011e-13
2.93849e-13
3.26477e-13
3.6208e-13
4.00844e-13
4.4296e-13
4.88616e-13
5.38e-13
5.91297e-13
6.48685e-13
7.10336e-13
7.76413e-13
8.47065e-13
9.22428e-13
1.00262e-12
1.08774e-12
1.17785e-12
1.27302e-12
1.37325e-12
1.47854e-12
1.58883e-12
1.70404e-12
1.82404e-12
1.94866e-12
2.07769e-12
2.21086e-12
2.34787e-12
2.48834e-12
2.63186e-12
2.77797e-12
2.92615e-12
3.07584e-12
3.22642e-12
3.37722e-12
3.52754e-12
3.67663e-12
3.8237e-12
3.96796e-12
4.10854e-12
4.2446e-12
4.37527e-12
4.49967e-12
4.61694e-12
4.72621e-12
4.82666e-12
4.91748e-12
4.9979e-12
5.06723e-12
5.12481e-12
5.17006e-12
5.20247e-12
5.22163e-12
5.22722e-12
5.21901e-12
5.19689e-12
5.16084e-12
5.11097e-12
5.04751e-12
4.97077e-12
4.88123e-12
4.77942e-12
4.66602e-12
4.54179e-12
4.40759e-12
4.26435e-12
4.1131e-12
3.95492e-12
3.79093e-12
3.62231e-12
3.45024e-12
3.27594e-12
3.10061e-12
2.92544e-12
2.7516e-12
2.5802e-12
2.41233e-12
2.249e-12
2.09115e-12
1.93966e-12
1.79531e-12
1.65879e-12
1.53072e-12
1.41161e-12
1.30188e-12
1.20186e-12
1.11179e-12
1.03181e-12
9.61974e-13
9.02264e-13
8.52572e-13
8.12716e-13
7.82442e-13
7.61423e-13
7.4927e-13
7.45531e-13
7.49692e-13
7.61185e-13
7.79387e-13
8.03628e-13
8.33188e-13
8.67306e-13
9.05183e-13
9.45988e-13
9.88864e-13
1.03294e-12
1.07732e-12
1.12114e-12
1.16351e-12
1.2036e-12
1.24057e-12
1.27369e-12
1.30223e-12
1.32559e-12
1.34321e-12
1.35465e-12
1.35958e-12
1.35778e-12
1.34913e-12
1.33366e-12
1.31151e-12
1.28291e-12
1.24823e-12
1.20792e-12
1.16253e-12
1.11268e-12
1.05904e-12
1.00233e-12
9.43292e-13
8.82667e-13
8.21194e-13
7.59582e-13
6.98498e-13
6.38559e-13
5.80318e-13
5.24256e-13
4.7078e-13
4.20219e-13
3.72821e-13
3.2876e-13
2.88135e-13
2.50981e-13
2.17269e-13
1.8692e-13
1.59809e-13
1.35776e-13
1.14634e-13
9.61732e-14
8.0175e-14
6.64135e-14
5.46634e-14
4.47043e-14
3.63249e-14
2.93261e-14
2.35228e-14
1.87456e-14
1.48415e-14
1.16739e-14
9.12239e-15
7.0818e-15
5.46155e-15
4.18425e-15
3.18451e-15
2.40759e-15
1.80815e-15
1.34892e-15
9.99628e-16
7.35835e-16
5.38032e-16
3.90764e-16
2.81901e-16
2.01998e-16
1.43767e-16
1.01633e-16
7.13609e-17
4.97664e-17
3.44715e-17
2.37153e-17
1.62052e-17
1.09992e-17
7.41714e-18
4.9717e-18
3.31702e-18
2.2102e-18
1.48292e-18
1.021e-18
7.4987e-19
6.24797e-19
8.82541e-18
9.27381e-18
1.01933e-17
1.16197e-17
1.36091e-17
1.62392e-17
1.96125e-17
2.38597e-17
2.9144e-17
3.56668e-17
4.36738e-17
5.34632e-17
6.53942e-17
7.98987e-17
9.74931e-17
1.18794e-16
1.44534e-16
1.75586e-16
2.12979e-16
2.57934e-16
3.11888e-16
3.76536e-16
4.53867e-16
5.46214e-16
6.56307e-16
7.87338e-16
9.43022e-16
1.12769e-15
1.34635e-15
1.60483e-15
1.90986e-15
2.2692e-15
2.69178e-15
3.18787e-15
3.76925e-15
4.44939e-15
5.24366e-15
6.16959e-15
7.24708e-15
8.49871e-15
9.95002e-15
1.16298e-14
1.35707e-14
1.5809e-14
1.83856e-14
2.13464e-14
2.47423e-14
2.863e-14
3.30726e-14
3.81397e-14
4.39083e-14
5.04631e-14
5.78972e-14
6.63124e-14
7.58199e-14
8.65409e-14
9.86067e-14
1.12159e-13
1.27353e-13
1.44351e-13
1.63332e-13
1.84483e-13
2.08006e-13
2.34113e-13
2.63029e-13
2.94991e-13
3.30245e-13
3.69049e-13
4.11672e-13
4.58388e-13
5.09483e-13
5.65244e-13
6.25964e-13
6.9194e-13
7.63466e-13
8.40833e-13
9.24329e-13
1.01423e-12
1.1108e-12
1.21429e-12
1.32493e-12
1.44293e-12
1.56846e-12
1.70166e-12
1.84265e-12
1.9915e-12
2.14821e-12
2.31277e-12
2.48509e-12
2.66501e-12
2.85233e-12
3.04678e-12
3.24801e-12
3.45559e-12
3.66903e-12
3.88776e-12
4.11112e-12
4.33837e-12
4.56872e-12
4.80127e-12
5.03505e-12
5.26905e-12
5.50216e-12
5.73323e-12
5.96104e-12
6.18434e-12
6.40184e-12
6.61222e-12
6.81415e-12
7.00629e-12
7.18732e-12
7.35593e-12
7.51085e-12
7.65086e-12
7.77482e-12
7.88164e-12
7.97035e-12
8.04007e-12
8.09004e-12
8.11965e-12
8.1284e-12
8.11596e-12
8.08217e-12
8.02701e-12
7.95065e-12
7.85343e-12
7.73585e-12
7.59858e-12
7.44248e-12
7.26854e-12
7.07791e-12
6.87188e-12
6.65188e-12
6.41942e-12
6.17613e-12
5.9237e-12
5.6639e-12
5.39851e-12
5.12936e-12
4.85825e-12
4.58697e-12
4.31728e-12
4.05087e-12
3.78937e-12
3.53429e-12
3.28707e-12
3.04902e-12
2.82134e-12
2.60507e-12
2.40115e-12
2.21035e-12
2.03333e-12
1.87058e-12
1.72247e-12
1.58924e-12
1.47099e-12
1.36771e-12
1.27925e-12
1.20537e-12
1.14572e-12
1.09984e-12
1.06721e-12
1.04719e-12
1.03907e-12
1.04208e-12
1.05534e-12
1.07796e-12
1.10894e-12
1.14724e-12
1.19179e-12
1.24145e-12
1.29505e-12
1.3514e-12
1.4093e-12
1.46753e-12
1.52489e-12
1.58019e-12
1.63229e-12
1.68011e-12
1.72263e-12
1.75892e-12
1.78816e-12
1.80965e-12
1.82283e-12
1.82727e-12
1.8227e-12
1.80902e-12
1.78626e-12
1.75465e-12
1.71454e-12
1.66642e-12
1.61095e-12
1.54885e-12
1.48096e-12
1.40821e-12
1.33154e-12
1.25195e-12
1.17043e-12
1.08796e-12
1.00546e-12
9.23826e-13
8.43858e-13
7.66277e-13
6.91709e-13
6.20679e-13
5.53607e-13
4.90808e-13
4.32497e-13
3.78794e-13
3.29729e-13
2.85254e-13
2.45254e-13
2.09554e-13
1.77934e-13
1.5014e-13
1.25891e-13
1.04892e-13
8.68419e-14
7.14409e-14
5.83962e-14
4.74276e-14
3.82719e-14
3.06845e-14
2.44423e-14
1.93437e-14
1.5209e-14
1.18802e-14
9.21922e-15
7.10737e-15
5.44326e-15
4.14131e-15
3.12996e-15
2.34993e-15
1.75259e-15
1.29839e-15
9.55497e-16
6.98462e-16
5.07156e-16
3.65779e-16
2.62041e-16
1.86461e-16
1.31787e-16
9.25151e-17
6.45071e-17
4.46738e-17
3.07291e-17
2.09944e-17
1.42478e-17
9.60638e-18
6.43827e-18
4.29494e-18
2.86145e-18
1.91964e-18
1.32153e-18
9.70487e-19
8.08558e-19
1.58879e-17
1.66942e-17
1.83476e-17
2.09127e-17
2.44898e-17
2.92186e-17
3.52831e-17
4.29176e-17
5.24152e-17
6.4137e-17
7.85237e-17
9.61097e-17
1.17539e-16
1.43586e-16
1.75175e-16
2.13411e-16
2.59606e-16
3.15318e-16
3.82393e-16
4.6301e-16
5.59741e-16
6.75611e-16
8.14172e-16
9.79588e-16
1.17673e-15
1.41128e-15
1.68987e-15
2.02019e-15
2.41118e-15
2.87319e-15
3.41816e-15
4.05987e-15
4.81418e-15
5.69928e-15
6.73604e-15
7.94826e-15
9.36315e-15
1.10116e-14
1.29288e-14
1.51544e-14
1.77334e-14
2.07166e-14
2.41608e-14
2.813e-14
3.26959e-14
3.79382e-14
4.39461e-14
5.08183e-14
5.86644e-14
6.76054e-14
7.77745e-14
8.93183e-14
1.02397e-13
1.17187e-13
1.33878e-13
1.52678e-13
1.73812e-13
1.97522e-13
2.24068e-13
2.53731e-13
2.86808e-13
3.23617e-13
3.64496e-13
4.09799e-13
4.59902e-13
5.15194e-13
5.76085e-13
6.42998e-13
7.16369e-13
7.96648e-13
8.84291e-13
9.79761e-13
1.08353e-12
1.19605e-12
1.31779e-12
1.4492e-12
1.59072e-12
1.74277e-12
1.90572e-12
2.07995e-12
2.26577e-12
2.46346e-12
2.67325e-12
2.89528e-12
3.12968e-12
3.37645e-12
3.63555e-12
3.90682e-12
4.19004e-12
4.48486e-12
4.79084e-12
5.10742e-12
5.43394e-12
5.7696e-12
6.11349e-12
6.46458e-12
6.82171e-12
7.18361e-12
7.54888e-12
7.91601e-12
8.28338e-12
8.64929e-12
9.01192e-12
9.36937e-12
9.7197e-12
1.00609e-11
1.03909e-11
1.07077e-11
1.10091e-11
1.12932e-11
1.15578e-11
1.18011e-11
1.20212e-11
1.22163e-11
1.23846e-11
1.25248e-11
1.26355e-11
1.27155e-11
1.27638e-11
1.27797e-11
1.27626e-11
1.27124e-11
1.2629e-11
1.25127e-11
1.23639e-11
1.21834e-11
1.19722e-11
1.17316e-11
1.14632e-11
1.11686e-11
1.08499e-11
1.05092e-11
1.01487e-11
9.7711e-12
9.37881e-12
8.97456e-12
8.56108e-12
8.14113e-12
7.71749e-12
7.29289e-12
6.87001e-12
6.45146e-12
6.0397e-12
5.63711e-12
5.24586e-12
4.868e-12
4.50535e-12
4.15957e-12
3.83208e-12
3.5241e-12
3.23666e-12
2.97054e-12
2.72635e-12
2.50446e-12
2.30508e-12
2.1282e-12
1.97366e-12
1.84112e-12
1.7301e-12
1.63995e-12
1.56992e-12
1.51912e-12
1.48655e-12
1.47109e-12
1.47154e-12
1.48661e-12
1.51493e-12
1.55504e-12
1.60544e-12
1.66454e-12
1.73073e-12
1.80234e-12
1.87769e-12
1.95509e-12
2.03283e-12
2.10924e-12
2.1827e-12
2.25165e-12
2.31459e-12
2.37016e-12
2.4171e-12
2.45432e-12
2.48089e-12
2.49608e-12
2.49933e-12
2.49033e-12
2.46896e-12
2.43532e-12
2.38973e-12
2.33273e-12
2.26501e-12
2.18747e-12
2.10114e-12
2.00717e-12
1.90682e-12
1.80139e-12
1.69224e-12
1.58069e-12
1.46808e-12
1.35565e-12
1.24459e-12
1.13597e-12
1.03074e-12
9.29748e-13
8.33669e-13
7.43054e-13
6.5831e-13
5.79709e-13
5.07394e-13
4.4139e-13
3.81617e-13
3.27906e-13
2.8001e-13
2.37623e-13
2.00394e-13
1.67938e-13
1.39852e-13
1.15728e-13
9.51572e-14
7.77449e-14
6.3113e-14
5.09065e-14
4.07967e-14
3.24837e-14
2.56973e-14
2.01967e-14
1.57702e-14
1.22335e-14
9.42789e-15
7.21802e-15
5.48979e-15
4.14783e-15
3.11319e-15
2.32116e-15
1.71914e-15
1.26479e-15
9.2432e-16
6.70988e-16
4.83828e-16
3.46533e-16
2.46531e-16
1.74207e-16
1.22271e-16
8.5239e-17
5.90212e-17
4.05913e-17
2.7728e-17
1.88146e-17
1.26838e-17
8.49962e-18
5.66933e-18
3.77665e-18
2.53331e-18
1.74379e-18
1.28044e-18
1.06671e-18
2.84335e-17
2.98748e-17
3.28307e-17
3.74162e-17
4.38106e-17
5.22631e-17
6.31019e-17
7.67453e-17
9.37158e-17
1.14658e-16
1.40357e-16
1.71765e-16
2.10032e-16
2.56535e-16
3.12923e-16
3.81161e-16
4.63586e-16
5.62971e-16
6.82598e-16
8.26344e-16
9.98777e-16
1.20527e-15
1.45214e-15
1.74676e-15
2.09779e-15
2.51529e-15
3.01101e-15
3.59859e-15
4.29383e-15
5.11502e-15
6.08329e-15
7.22298e-15
8.56206e-15
1.01326e-14
1.19714e-14
1.41203e-14
1.66272e-14
1.95463e-14
2.29394e-14
2.68761e-14
3.14351e-14
3.6705e-14
4.27854e-14
4.97879e-14
5.78372e-14
6.70722e-14
7.76475e-14
8.97345e-14
1.03523e-13
1.19221e-13
1.37061e-13
1.57292e-13
1.80192e-13
2.06061e-13
2.35226e-13
2.6804e-13
3.04887e-13
3.46177e-13
3.92352e-13
4.43884e-13
5.01275e-13
5.65058e-13
6.35795e-13
7.14079e-13
8.00531e-13
8.95796e-13
1.00055e-12
1.11547e-12
1.24129e-12
1.37872e-12
1.52849e-12
1.69135e-12
1.86804e-12
2.05927e-12
2.26578e-12
2.48825e-12
2.72733e-12
2.98365e-12
3.25777e-12
3.5502e-12
3.86137e-12
4.19164e-12
4.54126e-12
4.91039e-12
5.29906e-12
5.70717e-12
6.1345e-12
6.58067e-12
7.04514e-12
7.5272e-12
8.02597e-12
8.54039e-12
9.06921e-12
9.61099e-12
1.01641e-11
1.07267e-11
1.12968e-11
1.18723e-11
1.24506e-11
1.30294e-11
1.36059e-11
1.41772e-11
1.47405e-11
1.52926e-11
1.58305e-11
1.63509e-11
1.68506e-11
1.73263e-11
1.77749e-11
1.81933e-11
1.85783e-11
1.89271e-11
1.92369e-11
1.95052e-11
1.97295e-11
1.99077e-11
2.00381e-11
2.01192e-11
2.01498e-11
2.0129e-11
2.00565e-11
1.99322e-11
1.97564e-11
1.95299e-11
1.92538e-11
1.89297e-11
1.85596e-11
1.81456e-11
1.76905e-11
1.71973e-11
1.66691e-11
1.61097e-11
1.55226e-11
1.4912e-11
1.42818e-11
1.36363e-11
1.29796e-11
1.23162e-11
1.165e-11
1.09854e-11
1.03263e-11
9.6765e-12
9.03968e-12
8.41926e-12
7.81838e-12
7.23991e-12
6.68643e-12
6.16019e-12
5.66313e-12
5.19685e-12
4.76265e-12
4.36148e-12
3.99401e-12
3.66059e-12
3.36128e-12
3.09591e-12
2.864e-12
2.6649e-12
2.49768e-12
2.36128e-12
2.2544e-12
2.17561e-12
2.12332e-12
2.09582e-12
2.09125e-12
2.10766e-12
2.14299e-12
2.1951e-12
2.26176e-12
2.34068e-12
2.42953e-12
2.52592e-12
2.62745e-12
2.73172e-12
2.83635e-12
2.939e-12
3.03741e-12
3.12942e-12
3.21298e-12
3.28622e-12
3.34743e-12
3.39515e-12
3.42813e-12
3.4454e-12
3.44626e-12
3.4303e-12
3.39742e-12
3.34782e-12
3.28197e-12
3.20063e-12
3.10482e-12
2.9958e-12
2.87499e-12
2.74401e-12
2.60458e-12
2.45851e-12
2.30764e-12
2.1538e-12
1.99878e-12
1.8443e-12
1.69193e-12
1.54313e-12
1.39919e-12
1.26121e-12
1.13011e-12
1.0066e-12
8.91219e-13
7.84312e-13
6.8605e-13
5.96446e-13
5.15373e-13
4.42584e-13
3.77728e-13
3.20376e-13
2.7004e-13
2.26188e-13
1.88268e-13
1.55717e-13
1.27979e-13
1.04513e-13
8.48063e-14
6.8375e-14
5.47736e-14
4.35953e-14
3.44742e-14
2.70848e-14
2.11411e-14
1.63942e-14
1.26301e-14
9.66656e-15
7.34979e-15
5.5515e-15
4.16554e-15
3.10492e-15
2.29901e-15
1.69098e-15
1.23548e-15
8.96657e-16
6.46405e-16
4.62877e-16
3.29233e-16
2.32602e-16
1.63226e-16
1.1377e-16
7.87632e-17
5.41599e-17
3.69911e-17
2.50964e-17
1.69162e-17
1.13344e-17
7.55921e-18
5.03499e-18
3.37697e-18
2.32424e-18
1.70647e-18
1.42153e-18
5.05235e-17
5.30817e-17
5.83284e-17
6.64678e-17
7.78172e-17
9.28184e-17
1.12053e-16
1.36262e-16
1.66371e-16
2.0352e-16
2.49102e-16
3.04803e-16
3.72655e-16
4.55097e-16
5.55044e-16
6.75972e-16
8.22012e-16
9.98066e-16
1.20993e-15
1.46445e-15
1.76969e-15
2.13514e-15
2.57192e-15
3.09305e-15
3.71377e-15
4.45181e-15
5.32785e-15
6.36586e-15
7.59364e-15
9.04333e-15
1.0752e-14
1.27624e-14
1.51235e-14
1.78916e-14
2.11309e-14
2.49148e-14
2.93268e-14
3.44617e-14
4.04271e-14
4.73442e-14
5.53502e-14
6.4599e-14
7.52635e-14
8.7537e-14
1.01635e-13
1.17799e-13
1.36295e-13
1.57418e-13
1.81495e-13
2.08885e-13
2.39983e-13
2.75219e-13
3.15066e-13
3.60035e-13
4.10682e-13
4.67609e-13
5.31461e-13
6.02935e-13
6.82772e-13
7.71766e-13
8.70755e-13
9.8063e-13
1.10232e-12
1.23682e-12
1.38514e-12
1.54835e-12
1.72753e-12
1.92383e-12
2.13838e-12
2.37236e-12
2.62692e-12
2.90325e-12
3.20251e-12
3.52582e-12
3.87428e-12
4.24895e-12
4.65079e-12
5.08073e-12
5.53955e-12
6.02796e-12
6.54651e-12
7.09561e-12
7.67551e-12
8.28628e-12
8.92776e-12
9.5996e-12
1.03012e-11
1.10317e-11
1.179e-11
1.25748e-11
1.33843e-11
1.42166e-11
1.50694e-11
1.59401e-11
1.6826e-11
1.77238e-11
1.86302e-11
1.95413e-11
2.04532e-11
2.13617e-11
2.22624e-11
2.31506e-11
2.40216e-11
2.48704e-11
2.56921e-11
2.64816e-11
2.72339e-11
2.79439e-11
2.86069e-11
2.9218e-11
2.97727e-11
3.02667e-11
3.06959e-11
3.10567e-11
3.13458e-11
3.15604e-11
3.16981e-11
3.1757e-11
3.17359e-11
3.16341e-11
3.14514e-11
3.11882e-11
3.08457e-11
3.04257e-11
2.99303e-11
2.93626e-11
2.87261e-11
2.80246e-11
2.72629e-11
2.64458e-11
2.55788e-11
2.46676e-11
2.37182e-11
2.2737e-11
2.17303e-11
2.07046e-11
1.96665e-11
1.86225e-11
1.7579e-11
1.65421e-11
1.55177e-11
1.45116e-11
1.35291e-11
1.25751e-11
1.16541e-11
1.077e-11
9.92661e-12
9.12685e-12
8.37335e-12
7.66816e-12
7.0129e-12
6.40867e-12
5.85611e-12
5.35545e-12
4.90648e-12
4.50861e-12
4.16091e-12
3.86209e-12
3.6106e-12
3.40459e-12
3.24198e-12
3.12049e-12
3.03762e-12
2.9907e-12
2.97693e-12
2.99334e-12
3.03687e-12
3.10434e-12
3.19249e-12
3.29799e-12
3.41745e-12
3.54746e-12
3.6846e-12
3.82546e-12
3.96668e-12
4.105e-12
4.23724e-12
4.36041e-12
4.4717e-12
4.56852e-12
4.64856e-12
4.70983e-12
4.75065e-12
4.76975e-12
4.76621e-12
4.73953e-12
4.68964e-12
4.61686e-12
4.52192e-12
4.4059e-12
4.27027e-12
4.11678e-12
3.94744e-12
3.7645e-12
3.57033e-12
3.36743e-12
3.15833e-12
2.94555e-12
2.73152e-12
2.51857e-12
2.30886e-12
2.10434e-12
1.90676e-12
1.71759e-12
1.53805e-12
1.3691e-12
1.21142e-12
1.06546e-12
9.3143e-13
8.09315e-13
6.9892e-13
5.99882e-13
5.11706e-13
4.3379e-13
3.65452e-13
3.05958e-13
2.54545e-13
2.10438e-13
1.72876e-13
1.41117e-13
1.14461e-13
9.22465e-14
7.38675e-14
5.87702e-14
4.64571e-14
3.64863e-14
2.84697e-14
2.207e-14
1.69974e-14
1.3005e-14
9.88519e-15
7.46442e-15
5.59934e-15
4.17254e-15
3.08874e-15
2.27129e-15
1.65908e-15
1.20382e-15
8.67651e-16
6.21179e-16
4.41742e-16
3.1203e-16
2.18924e-16
1.52565e-16
1.05604e-16
7.26052e-17
4.95819e-17
3.36338e-17
2.26678e-17
1.51862e-17
1.01268e-17
6.74438e-18
4.52293e-18
3.1126e-18
2.28504e-18
1.90335e-18
8.91062e-17
9.3613e-17
1.02857e-16
1.17197e-16
1.37192e-16
1.63618e-16
1.97498e-16
2.40136e-16
2.9316e-16
3.58574e-16
4.38825e-16
5.36876e-16
6.56299e-16
8.01377e-16
9.7723e-16
1.18996e-15
1.44682e-15
1.7564e-15
2.12888e-15
2.57625e-15
3.11265e-15
3.7547e-15
4.52187e-15
5.43698e-15
6.52664e-15
7.82191e-15
9.35888e-15
1.11795e-14
1.33322e-14
1.58731e-14
1.88668e-14
2.23878e-14
2.65215e-14
3.13656e-14
3.70319e-14
4.36478e-14
5.13583e-14
6.03277e-14
7.07422e-14
8.28119e-14
9.67737e-14
1.12893e-13
1.31469e-13
1.52834e-13
1.77359e-13
2.05457e-13
2.37586e-13
2.74252e-13
3.16013e-13
3.63482e-13
4.17331e-13
4.78294e-13
5.47171e-13
6.2483e-13
7.1221e-13
8.10324e-13
9.20262e-13
1.04319e-12
1.18035e-12
1.33306e-12
1.50272e-12
1.69081e-12
1.89886e-12
2.1285e-12
2.3814e-12
2.65929e-12
2.96395e-12
3.2972e-12
3.66088e-12
4.05686e-12
4.48698e-12
4.9531e-12
5.457e-12
6.00043e-12
6.58506e-12
7.21247e-12
7.88408e-12
8.60118e-12
9.3649e-12
1.01761e-11
1.10355e-11
1.19435e-11
1.29002e-11
1.39054e-11
1.49585e-11
1.60586e-11
1.72045e-11
1.83944e-11
1.96261e-11
2.0897e-11
2.22041e-11
2.35437e-11
2.4912e-11
2.63044e-11
2.7716e-11
2.91414e-11
3.05748e-11
3.201e-11
3.34403e-11
3.48589e-11
3.62585e-11
3.76317e-11
3.89707e-11
4.02678e-11
4.15151e-11
4.27048e-11
4.3829e-11
4.48802e-11
4.58509e-11
4.6734e-11
4.75227e-11
4.82108e-11
4.87926e-11
4.92629e-11
4.96173e-11
4.9852e-11
4.9964e-11
4.99514e-11
4.98129e-11
4.95482e-11
4.91579e-11
4.86437e-11
4.8008e-11
4.72545e-11
4.63873e-11
4.54119e-11
4.43343e-11
4.31613e-11
4.19007e-11
4.05605e-11
3.91496e-11
3.76771e-11
3.61527e-11
3.45862e-11
3.29877e-11
3.13671e-11
2.97344e-11
2.80996e-11
2.64721e-11
2.48612e-11
2.32757e-11
2.17239e-11
2.02134e-11
1.87513e-11
1.7344e-11
1.59972e-11
1.47156e-11
1.35036e-11
1.23643e-11
1.13006e-11
1.03141e-11
9.40618e-12
8.57725e-12
7.82717e-12
7.15521e-12
6.56007e-12
6.03996e-12
5.59263e-12
5.21543e-12
4.90534e-12
4.65901e-12
4.47281e-12
4.34288e-12
4.26513e-12
4.23528e-12
4.24889e-12
4.3014e-12
4.38812e-12
4.50427e-12
4.645e-12
4.80544e-12
4.98067e-12
5.16583e-12
5.35608e-12
5.5467e-12
5.73308e-12
5.91083e-12
6.07577e-12
6.22401e-12
6.35201e-12
6.45662e-12
6.53512e-12
6.58528e-12
6.60538e-12
6.59426e-12
6.55131e-12
6.4765e-12
6.37034e-12
6.23392e-12
6.06882e-12
5.87709e-12
5.66121e-12
5.424e-12
5.16857e-12
4.89821e-12
4.61638e-12
4.32653e-12
4.03213e-12
3.73651e-12
3.44283e-12
3.15402e-12
2.87275e-12
2.60134e-12
2.34177e-12
2.09569e-12
1.86436e-12
1.64867e-12
1.4492e-12
1.26619e-12
1.09959e-12
9.49091e-13
8.14181e-13
6.94156e-13
5.8817e-13
4.95275e-13
4.14455e-13
3.44653e-13
2.84808e-13
2.33871e-13
1.90829e-13
1.5472e-13
1.24644e-13
9.97725e-14
7.93517e-14
6.27044e-14
4.92297e-14
3.84005e-14
2.9759e-14
2.2912e-14
1.75252e-14
1.33172e-14
1.00532e-14
7.53927e-15
5.61671e-15
4.15676e-15
3.05593e-15
2.23172e-15
1.61896e-15
1.16662e-15
8.35055e-16
5.93722e-16
4.19306e-16
2.94138e-16
2.04947e-16
1.41839e-16
9.75027e-17
6.65746e-17
4.51545e-17
3.04283e-17
2.03827e-17
1.35904e-17
9.05004e-18
6.06844e-18
4.17569e-18
3.06515e-18
2.55297e-18
1.55969e-16
1.6385e-16
1.80014e-16
2.05089e-16
2.4005e-16
2.86253e-16
3.45484e-16
4.20019e-16
5.12697e-16
6.27019e-16
7.67253e-16
9.38569e-16
1.14719e-15
1.4006e-15
1.70771e-15
2.07915e-15
2.52757e-15
3.06793e-15
3.71794e-15
4.4985e-15
5.43419e-15
6.5539e-15
7.89152e-15
9.48666e-15
1.13856e-14
1.36422e-14
1.63192e-14
1.94891e-14
2.32362e-14
2.76575e-14
3.2865e-14
3.89874e-14
4.61724e-14
5.4589e-14
6.443e-14
7.59152e-14
8.92945e-14
1.04851e-13
1.22905e-13
1.43818e-13
1.67995e-13
1.95894e-13
2.28025e-13
2.64957e-13
3.07325e-13
3.55834e-13
4.11264e-13
4.74476e-13
5.46417e-13
6.28128e-13
7.20746e-13
8.25512e-13
9.43775e-13
1.077e-12
1.22675e-12
1.39475e-12
1.58279e-12
1.79283e-12
2.02694e-12
2.28731e-12
2.57624e-12
2.89616e-12
3.24961e-12
3.63923e-12
4.06775e-12
4.53797e-12
5.05276e-12
5.61505e-12
6.22776e-12
6.89385e-12
7.61623e-12
8.39775e-12
9.24121e-12
1.01493e-11
1.11244e-11
1.21689e-11
1.32849e-11
1.44741e-11
1.57381e-11
1.70778e-11
1.84941e-11
1.99871e-11
2.15566e-11
2.32018e-11
2.49213e-11
2.6713e-11
2.85743e-11
3.05019e-11
3.24917e-11
3.45389e-11
3.66381e-11
3.8783e-11
4.09666e-11
4.31812e-11
4.54185e-11
4.76693e-11
4.99239e-11
5.21721e-11
5.4403e-11
5.66054e-11
5.87675e-11
6.08775e-11
6.29232e-11
6.48923e-11
6.67725e-11
6.85516e-11
7.02178e-11
7.17595e-11
7.31656e-11
7.44255e-11
7.55294e-11
7.64683e-11
7.72343e-11
7.78202e-11
7.82201e-11
7.84295e-11
7.84449e-11
7.82643e-11
7.78871e-11
7.73141e-11
7.65477e-11
7.55915e-11
7.44507e-11
7.31319e-11
7.16431e-11
6.99934e-11
6.81934e-11
6.62544e-11
6.4189e-11
6.20105e-11
5.97331e-11
5.73714e-11
5.49405e-11
5.24557e-11
4.99324e-11
4.73861e-11
4.48318e-11
4.22845e-11
3.97583e-11
3.7267e-11
3.48234e-11
3.24396e-11
3.01266e-11
2.78945e-11
2.57521e-11
2.37074e-11
2.17668e-11