/*--------------------------------*- C++ -*----------------------------------*\
| =========                 |                                                 |
| \\      /  F ield         | OpenFOAM: The Open Source CFD Toolbox           |
|  \\    /   O peration     | Version:  v2012                                 |
|   \\  /    A nd           | Website:  www.openfoam.com                      |
|    \\/     M anipulation  |                                                 |
\*---------------------------------------------------------------------------*/
FoamFile
{
    version     2.0;
    format      ascii;
    class       volScalarField;
    location    "0";
    object      pRec;
}
// * * * * * * * * * * * * * * * * * * * * * * * * * * * * * * * * * * * * * //

dimensions      [0 2 -2 0 0 0 0];


internalField   nonuniform List<scalar> 
4000
(
-6.93759e-13
-6.87931e-13
-6.89179e-13
-6.921e-13
-6.90116e-13
-6.90787e-13
-6.8893e-13
-6.83652e-13
-6.73572e-13
-6.6937e-13
-6.70666e-13
-6.65099e-13
-6.54771e-13
-6.40818e-13
-6.26506e-13
-6.2011e-13
-6.15906e-13
-6.13401e-13
-6.05761e-13
-5.92294e-13
-5.81041e-13
-5.7364e-13
-5.68349e-13
-5.60185e-13
-5.4934e-13
-5.38226e-13
-5.36162e-13
-5.30729e-13
-5.24118e-13
-5.12555e-13
-4.96518e-13
-4.89368e-13
-4.87511e-13
-4.85332e-13
-4.80224e-13
-4.76919e-13
-4.66801e-13
-4.48127e-13
-4.30322e-13
-4.26504e-13
-4.26831e-13
-4.25245e-13
-4.25504e-13
-4.1945e-13
-4.08742e-13
-3.99736e-13
-3.90847e-13
-3.81484e-13
-3.72629e-13
-3.65023e-13
-3.56597e-13
-3.48871e-13
-3.41792e-13
-3.33165e-13
-3.252e-13
-3.12665e-13
-3.05745e-13
-3.03428e-13
-3.01511e-13
-2.99007e-13
-2.90983e-13
-2.83946e-13
-2.73962e-13
-2.62203e-13
-2.543e-13
-2.47205e-13
-2.43066e-13
-2.34852e-13
-2.24126e-13
-2.16947e-13
-2.09672e-13
-2.02473e-13
-1.89155e-13
-1.81946e-13
-1.8072e-13
-1.76822e-13
-1.72814e-13
-1.66449e-13
-1.57046e-13
-1.43312e-13
-1.30505e-13
-1.24764e-13
-1.16221e-13
-1.11603e-13
-1.06745e-13
-1.00975e-13
-9.18912e-14
-8.40168e-14
-8.07115e-14
-7.6722e-14
-7.08436e-14
-6.4326e-14
-5.77389e-14
-5.25535e-14
-4.33851e-14
-3.45528e-14
-2.67601e-14
-1.88355e-14
-1.03401e-14
-2.46597e-15
-6.90161e-13
-6.88767e-13
-6.91991e-13
-6.92038e-13
-6.92769e-13
-6.89365e-13
-6.86123e-13
-6.83702e-13
-6.78144e-13
-6.72678e-13
-6.66944e-13
-6.61778e-13
-6.529e-13
-6.41266e-13
-6.29923e-13
-6.23419e-13
-6.18649e-13
-6.11895e-13
-6.03071e-13
-5.95615e-13
-5.84545e-13
-5.72154e-13
-5.64379e-13
-5.57015e-13
-5.47124e-13
-5.40953e-13
-5.37439e-13
-5.31446e-13
-5.22788e-13
-5.08975e-13
-4.99741e-13
-4.92892e-13
-4.8682e-13
-4.81907e-13
-4.77447e-13
-4.72981e-13
-4.65002e-13
-4.51767e-13
-4.37434e-13
-4.30663e-13
-4.26767e-13
-4.24734e-13
-4.22145e-13
-4.17604e-13
-4.10164e-13
-3.99898e-13
-3.89426e-13
-3.81339e-13
-3.72636e-13
-3.6257e-13
-3.55469e-13
-3.47927e-13
-3.41975e-13
-3.34473e-13
-3.26515e-13
-3.15447e-13
-3.05452e-13
-3.01564e-13
-2.99698e-13
-2.97375e-13
-2.93222e-13
-2.84085e-13
-2.75011e-13
-2.64154e-13
-2.56133e-13
-2.47175e-13
-2.40463e-13
-2.33824e-13
-2.26486e-13
-2.18533e-13
-2.0987e-13
-2.02452e-13
-1.94078e-13
-1.85284e-13
-1.8058e-13
-1.73162e-13
-1.71415e-13
-1.64133e-13
-1.53904e-13
-1.41726e-13
-1.31669e-13
-1.2619e-13
-1.20122e-13
-1.13914e-13
-1.04925e-13
-9.87521e-14
-8.98507e-14
-8.19105e-14
-7.89285e-14
-7.52895e-14
-7.23833e-14
-6.70006e-14
-6.15173e-14
-5.05671e-14
-4.1874e-14
-3.51531e-14
-2.62102e-14
-1.89781e-14
-1.1963e-14
-4.33957e-15
-6.89584e-13
-6.88645e-13
-6.90901e-13
-6.94256e-13
-6.95207e-13
-6.90701e-13
-6.85143e-13
-6.82525e-13
-6.76102e-13
-6.7244e-13
-6.67569e-13
-6.60997e-13
-6.52349e-13
-6.42654e-13
-6.31952e-13
-6.2431e-13
-6.17854e-13
-6.1093e-13
-6.0359e-13
-5.9437e-13
-5.83403e-13
-5.74052e-13
-5.65296e-13
-5.57885e-13
-5.49018e-13
-5.43449e-13
-5.38417e-13
-5.30047e-13
-5.20389e-13
-5.0713e-13
-5.00112e-13
-4.93084e-13
-4.86646e-13
-4.8372e-13
-4.79453e-13
-4.74158e-13
-4.63643e-13
-4.5323e-13
-4.41956e-13
-4.30759e-13
-4.25889e-13
-4.21345e-13
-4.21894e-13
-4.18194e-13
-4.11098e-13
-4.00098e-13
-3.87931e-13
-3.78497e-13
-3.73568e-13
-3.6865e-13
-3.57389e-13
-3.48362e-13
-3.39475e-13
-3.31181e-13
-3.24454e-13
-3.16396e-13
-3.05957e-13
-3.04036e-13
-3.04456e-13
-2.99009e-13
-2.90755e-13
-2.79034e-13
-2.71004e-13
-2.65401e-13
-2.58905e-13
-2.50867e-13
-2.43307e-13
-2.32936e-13
-2.25133e-13
-2.15224e-13
-2.06753e-13
-1.99687e-13
-1.90587e-13
-1.84818e-13
-1.8027e-13
-1.75426e-13
-1.70403e-13
-1.641e-13
-1.53404e-13
-1.42806e-13
-1.37012e-13
-1.28227e-13
-1.15966e-13
-1.10223e-13
-1.04667e-13
-1.01112e-13
-9.48213e-14
-8.55855e-14
-7.89259e-14
-7.32016e-14
-6.97149e-14
-6.65168e-14
-5.97363e-14
-5.14756e-14
-4.12299e-14
-3.25738e-14
-2.68965e-14
-1.99844e-14
-1.5695e-14
-5.00227e-15
-6.9067e-13
-6.91777e-13
-6.92584e-13
-6.88724e-13
-6.93441e-13
-6.87682e-13
-6.85194e-13
-6.8277e-13
-6.8047e-13
-6.74767e-13
-6.6572e-13
-6.56307e-13
-6.48543e-13
-6.43132e-13
-6.40823e-13
-6.30397e-13
-6.15942e-13
-6.07584e-13
-6.02411e-13
-5.93213e-13
-5.83882e-13
-5.75895e-13
-5.65981e-13
-5.51891e-13
-5.44506e-13
-5.41092e-13
-5.3745e-13
-5.31994e-13
-5.20619e-13
-5.11292e-13
-5.04361e-13
-4.95913e-13
-4.87375e-13
-4.81584e-13
-4.74779e-13
-4.7355e-13
-4.6408e-13
-4.51905e-13
-4.43107e-13
-4.33447e-13
-4.29287e-13
-4.26492e-13
-4.21637e-13
-4.15252e-13
-4.05889e-13
-3.96262e-13
-3.87857e-13
-3.82524e-13
-3.74549e-13
-3.62189e-13
-3.52971e-13
-3.47193e-13
-3.41556e-13
-3.35393e-13
-3.23896e-13
-3.17453e-13
-3.083e-13
-3.0343e-13
-3.03362e-13
-2.97408e-13
-2.8906e-13
-2.80697e-13
-2.75247e-13
-2.67854e-13
-2.58461e-13
-2.4971e-13
-2.42064e-13
-2.33013e-13
-2.25747e-13
-2.17759e-13
-2.10724e-13
-2.03126e-13
-1.93732e-13
-1.86251e-13
-1.79815e-13
-1.73978e-13
-1.70562e-13
-1.63444e-13
-1.53338e-13
-1.43406e-13
-1.35836e-13
-1.28913e-13
-1.18238e-13
-1.08706e-13
-1.03796e-13
-9.90797e-14
-9.24941e-14
-8.48916e-14
-7.74825e-14
-7.37415e-14
-7.18953e-14
-6.69915e-14
-6.15201e-14
-5.01235e-14
-4.10834e-14
-3.51252e-14
-2.85432e-14
-1.92554e-14
-1.25515e-14
-4.66145e-15
-6.91623e-13
-6.96103e-13
-6.92413e-13
-6.87963e-13
-6.84463e-13
-6.88094e-13
-6.87971e-13
-6.86047e-13
-6.79494e-13
-6.71709e-13
-6.63116e-13
-6.57952e-13
-6.48076e-13
-6.41256e-13
-6.39754e-13
-6.33412e-13
-6.22834e-13
-6.12221e-13
-5.99706e-13
-5.87695e-13
-5.82764e-13
-5.74852e-13
-5.60367e-13
-5.51097e-13
-5.48051e-13
-5.44069e-13
-5.3911e-13
-5.30735e-13
-5.22963e-13
-5.13807e-13
-5.04947e-13
-4.97026e-13
-4.88002e-13
-4.81938e-13
-4.75968e-13
-4.72773e-13
-4.62824e-13
-4.51829e-13
-4.4073e-13
-4.33329e-13
-4.29453e-13
-4.28542e-13
-4.21875e-13
-4.13742e-13
-4.03656e-13
-3.93548e-13
-3.86462e-13
-3.80991e-13
-3.73573e-13
-3.66065e-13
-3.56764e-13
-3.49894e-13
-3.4218e-13
-3.34685e-13
-3.24177e-13
-3.15944e-13
-3.0964e-13
-3.05003e-13
-3.02503e-13
-2.96134e-13
-2.89049e-13
-2.80971e-13
-2.72772e-13
-2.66875e-13
-2.6162e-13
-2.55077e-13
-2.46898e-13
-2.34325e-13
-2.25403e-13
-2.15065e-13
-2.06982e-13
-2.00412e-13
-1.93733e-13
-1.86316e-13
-1.76394e-13
-1.70964e-13
-1.69121e-13
-1.6316e-13
-1.55787e-13
-1.45551e-13
-1.37209e-13
-1.31055e-13
-1.18212e-13
-1.07757e-13
-1.00475e-13
-9.57058e-14
-9.24704e-14
-8.77415e-14
-7.99077e-14
-7.52334e-14
-7.07859e-14
-6.66956e-14
-5.92848e-14
-5.37542e-14
-4.57194e-14
-3.55772e-14
-2.8482e-14
-2.14227e-14
-1.20748e-14
-2.02176e-15
-6.88039e-13
-6.97701e-13
-6.93937e-13
-6.84767e-13
-6.89067e-13
-6.92625e-13
-6.90475e-13
-6.86101e-13
-6.77585e-13
-6.642e-13
-6.60535e-13
-6.56872e-13
-6.52877e-13
-6.42967e-13
-6.36155e-13
-6.35221e-13
-6.246e-13
-6.14807e-13
-6.04823e-13
-5.91137e-13
-5.80082e-13
-5.68448e-13
-5.51036e-13
-5.47564e-13
-5.48577e-13
-5.47398e-13
-5.39105e-13
-5.30047e-13
-5.22057e-13
-5.16788e-13
-5.0632e-13
-4.96618e-13
-4.88346e-13
-4.85032e-13
-4.81517e-13
-4.71543e-13
-4.60583e-13
-4.51651e-13
-4.40735e-13
-4.35857e-13
-4.32183e-13
-4.28939e-13
-4.2021e-13
-4.14017e-13
-4.03964e-13
-3.91748e-13
-3.82734e-13
-3.77346e-13
-3.73703e-13
-3.65859e-13
-3.58639e-13
-3.49307e-13
-3.40869e-13
-3.32243e-13
-3.22778e-13
-3.17457e-13
-3.12285e-13
-3.06148e-13
-3.00941e-13
-2.96854e-13
-2.91332e-13
-2.81969e-13
-2.73564e-13
-2.66791e-13
-2.57928e-13
-2.5306e-13
-2.4758e-13
-2.35611e-13
-2.26444e-13
-2.1837e-13
-2.08572e-13
-2.00727e-13
-1.95228e-13
-1.88151e-13
-1.78383e-13
-1.7359e-13
-1.67958e-13
-1.59782e-13
-1.54766e-13
-1.47832e-13
-1.40189e-13
-1.3017e-13
-1.15832e-13
-1.0564e-13
-1.0136e-13
-9.81018e-14
-9.42746e-14
-8.57363e-14
-7.89577e-14
-7.45789e-14
-7.04857e-14
-6.69954e-14
-5.74799e-14
-5.2735e-14
-4.56236e-14
-3.86773e-14
-2.86934e-14
-2.01664e-14
-9.99204e-15
-8.63028e-16
-6.93296e-13
-6.93998e-13
-6.93321e-13
-6.89947e-13
-6.87057e-13
-6.90806e-13
-6.89978e-13
-6.83656e-13
-6.75291e-13
-6.64836e-13
-6.56686e-13
-6.55993e-13
-6.54964e-13
-6.44353e-13
-6.37548e-13
-6.32601e-13
-6.28851e-13
-6.20101e-13
-6.01716e-13
-5.83477e-13
-5.67443e-13
-5.63184e-13
-5.61726e-13
-5.59231e-13
-5.53633e-13
-5.46924e-13
-5.36288e-13
-5.27603e-13
-5.23385e-13
-5.18771e-13
-5.09368e-13
-4.95603e-13
-4.89171e-13
-4.80674e-13
-4.75587e-13
-4.69103e-13
-4.62629e-13
-4.56964e-13
-4.45987e-13
-4.34435e-13
-4.27521e-13
-4.22767e-13
-4.18168e-13
-4.14253e-13
-4.07423e-13
-3.96963e-13
-3.85474e-13
-3.76298e-13
-3.70298e-13
-3.65614e-13
-3.58512e-13
-3.52901e-13
-3.44059e-13
-3.32658e-13
-3.24292e-13
-3.18386e-13
-3.11747e-13
-3.00727e-13
-2.96834e-13
-2.9624e-13
-2.95899e-13
-2.87616e-13
-2.76138e-13
-2.64335e-13
-2.54857e-13
-2.49396e-13
-2.41834e-13
-2.31026e-13
-2.21996e-13
-2.17809e-13
-2.17198e-13
-2.07111e-13
-1.96529e-13
-1.91175e-13
-1.81548e-13
-1.7186e-13
-1.63662e-13
-1.55916e-13
-1.50569e-13
-1.46133e-13
-1.39272e-13
-1.29578e-13
-1.21115e-13
-1.11922e-13
-1.04917e-13
-9.47823e-14
-9.12071e-14
-8.73341e-14
-7.97307e-14
-7.63747e-14
-7.00127e-14
-6.22785e-14
-5.76215e-14
-5.19272e-14
-4.55591e-14
-3.6199e-14
-2.83558e-14
-1.86679e-14
-1.01723e-14
-3.13097e-15
-6.92234e-13
-6.91604e-13
-6.89463e-13
-6.90865e-13
-6.93509e-13
-6.93205e-13
-6.89557e-13
-6.8236e-13
-6.73432e-13
-6.66057e-13
-6.606e-13
-6.55025e-13
-6.51038e-13
-6.41964e-13
-6.3789e-13
-6.32732e-13
-6.28718e-13
-6.19676e-13
-5.96805e-13
-5.85297e-13
-5.80563e-13
-5.73206e-13
-5.62268e-13
-5.52485e-13
-5.49552e-13
-5.42664e-13
-5.31948e-13
-5.2615e-13
-5.20909e-13
-5.15837e-13
-5.09298e-13
-5.01258e-13
-4.95237e-13
-4.88265e-13
-4.7654e-13
-4.68226e-13
-4.6101e-13
-4.51944e-13
-4.43909e-13
-4.34624e-13
-4.2858e-13
-4.26015e-13
-4.193e-13
-4.18035e-13
-4.12417e-13
-3.97434e-13
-3.8147e-13
-3.68113e-13
-3.67773e-13
-3.67347e-13
-3.63548e-13
-3.56468e-13
-3.43788e-13
-3.32581e-13
-3.21655e-13
-3.15516e-13
-3.12322e-13
-3.06883e-13
-2.98964e-13
-2.93417e-13
-2.91438e-13
-2.84551e-13
-2.77166e-13
-2.68733e-13
-2.60498e-13
-2.51663e-13
-2.42871e-13
-2.33071e-13
-2.2703e-13
-2.20145e-13
-2.12846e-13
-2.07152e-13
-1.95315e-13
-1.82737e-13
-1.75643e-13
-1.72135e-13
-1.67638e-13
-1.59983e-13
-1.55372e-13
-1.49166e-13
-1.40098e-13
-1.29876e-13
-1.17369e-13
-1.06386e-13
-9.80667e-14
-9.43392e-14
-9.22842e-14
-8.88602e-14
-8.16899e-14
-7.48763e-14
-6.75935e-14
-6.23228e-14
-5.7914e-14
-5.33001e-14
-4.39917e-14
-3.4452e-14
-2.81301e-14
-2.02398e-14
-1.15541e-14
-1.55792e-15
-6.94564e-13
-6.96101e-13
-6.91094e-13
-6.85001e-13
-6.88792e-13
-6.91598e-13
-6.9133e-13
-6.83342e-13
-6.70824e-13
-6.67871e-13
-6.61433e-13
-6.51453e-13
-6.4501e-13
-6.4195e-13
-6.3948e-13
-6.35218e-13
-6.28511e-13
-6.1737e-13
-6.00834e-13
-5.87431e-13
-5.79228e-13
-5.7048e-13
-5.66056e-13
-5.58924e-13
-5.49724e-13
-5.39525e-13
-5.30942e-13
-5.26093e-13
-5.24327e-13
-5.16881e-13
-5.10285e-13
-5.02548e-13
-4.91803e-13
-4.81132e-13
-4.76713e-13
-4.69372e-13
-4.60236e-13
-4.51159e-13
-4.45866e-13
-4.40194e-13
-4.35039e-13
-4.27683e-13
-4.15802e-13
-4.08509e-13
-4.04872e-13
-3.9809e-13
-3.8689e-13
-3.77215e-13
-3.71215e-13
-3.64848e-13
-3.58588e-13
-3.51819e-13
-3.42311e-13
-3.33866e-13
-3.26088e-13
-3.21172e-13
-3.13649e-13
-3.06981e-13
-2.99551e-13
-2.94414e-13
-2.88426e-13
-2.81858e-13
-2.7567e-13
-2.6813e-13
-2.57593e-13
-2.47555e-13
-2.41568e-13
-2.3399e-13
-2.26131e-13
-2.19061e-13
-2.11317e-13
-2.07612e-13
-1.99683e-13
-1.89486e-13
-1.77856e-13
-1.72435e-13
-1.6859e-13
-1.61542e-13
-1.55826e-13
-1.46744e-13
-1.40383e-13
-1.3071e-13
-1.1786e-13
-1.08017e-13
-1.00379e-13
-9.50836e-14
-9.31031e-14
-8.81519e-14
-8.11806e-14
-7.47417e-14
-6.71696e-14
-6.14859e-14
-5.46919e-14
-5.00748e-14
-4.35037e-14
-3.52477e-14
-2.67687e-14
-1.65131e-14
-7.61069e-15
1.29071e-15
-6.94321e-13
-6.93571e-13
-6.93774e-13
-6.90318e-13
-6.86997e-13
-6.89223e-13
-6.88046e-13
-6.85989e-13
-6.77972e-13
-6.63692e-13
-6.55601e-13
-6.48541e-13
-6.46084e-13
-6.44825e-13
-6.41015e-13
-6.34253e-13
-6.24315e-13
-6.17981e-13
-6.08584e-13
-5.92347e-13
-5.79098e-13
-5.66092e-13
-5.60842e-13
-5.54112e-13
-5.50951e-13
-5.44756e-13
-5.34792e-13
-5.28613e-13
-5.22723e-13
-5.16987e-13
-5.11144e-13
-5.02362e-13
-4.92071e-13
-4.80331e-13
-4.73417e-13
-4.67692e-13
-4.62887e-13
-4.52487e-13
-4.46754e-13
-4.40911e-13
-4.31187e-13
-4.21757e-13
-4.15007e-13
-4.08828e-13
-4.07569e-13
-4.02737e-13
-3.91444e-13
-3.79393e-13
-3.71369e-13
-3.62351e-13
-3.55527e-13
-3.51491e-13
-3.43932e-13
-3.35079e-13
-3.26527e-13
-3.19393e-13
-3.12908e-13
-3.06039e-13
-2.99521e-13
-2.96572e-13
-2.92232e-13
-2.88443e-13
-2.81545e-13
-2.68733e-13
-2.54332e-13
-2.40176e-13
-2.33296e-13
-2.28869e-13
-2.25387e-13
-2.2535e-13
-2.19342e-13
-2.09892e-13
-2.02429e-13
-1.9179e-13
-1.78987e-13
-1.69713e-13
-1.6545e-13
-1.59572e-13
-1.55113e-13
-1.46316e-13
-1.39453e-13
-1.30984e-13
-1.19991e-13
-1.11655e-13
-1.02237e-13
-9.39129e-14
-8.97567e-14
-8.43305e-14
-8.02332e-14
-7.48647e-14
-6.56879e-14
-5.69393e-14
-5.14483e-14
-4.7145e-14
-3.91237e-14
-3.078e-14
-2.27489e-14
-1.47273e-14
-5.4956e-15
3.80993e-16
-6.92389e-13
-6.91658e-13
-6.90699e-13
-6.92269e-13
-6.92599e-13
-6.86922e-13
-6.85015e-13
-6.8201e-13
-6.76089e-13
-6.69191e-13
-6.56404e-13
-6.46959e-13
-6.4611e-13
-6.4651e-13
-6.41329e-13
-6.36779e-13
-6.24045e-13
-6.16022e-13
-6.07857e-13
-5.93782e-13
-5.83371e-13
-5.67192e-13
-5.57007e-13
-5.52787e-13
-5.46975e-13
-5.41636e-13
-5.37194e-13
-5.30474e-13
-5.24558e-13
-5.18822e-13
-5.10282e-13
-5.00997e-13
-4.90815e-13
-4.82538e-13
-4.77585e-13
-4.69337e-13
-4.60554e-13
-4.52584e-13
-4.48051e-13
-4.39007e-13
-4.31142e-13
-4.216e-13
-4.15278e-13
-4.13152e-13
-4.10533e-13
-4.01188e-13
-3.88431e-13
-3.75481e-13
-3.6812e-13
-3.60791e-13
-3.58485e-13
-3.53608e-13
-3.43348e-13
-3.34536e-13
-3.25357e-13
-3.22552e-13
-3.16033e-13
-3.08576e-13
-2.98922e-13
-2.90287e-13
-2.8846e-13
-2.80816e-13
-2.75976e-13
-2.71513e-13
-2.57617e-13
-2.4332e-13
-2.33689e-13
-2.27987e-13
-2.2588e-13
-2.28422e-13
-2.20262e-13
-2.1259e-13
-2.03148e-13
-1.91108e-13
-1.76967e-13
-1.65855e-13
-1.65165e-13
-1.63056e-13
-1.58839e-13
-1.50121e-13
-1.43585e-13
-1.34756e-13
-1.19584e-13
-1.08149e-13
-9.72983e-14
-8.81311e-14
-9.05426e-14
-8.86521e-14
-8.06285e-14
-7.34162e-14
-6.37199e-14
-5.72972e-14
-5.08883e-14
-4.50877e-14
-4.08681e-14
-3.4059e-14
-1.90577e-14
-5.64832e-15
2.32565e-15
-9.08619e-16
-6.95351e-13
-6.93393e-13
-6.9117e-13
-6.92736e-13
-6.9146e-13
-6.86185e-13
-6.86515e-13
-6.82997e-13
-6.75564e-13
-6.66387e-13
-6.57858e-13
-6.50137e-13
-6.42204e-13
-6.39473e-13
-6.36547e-13
-6.30906e-13
-6.27353e-13
-6.21569e-13
-6.10171e-13
-5.95129e-13
-5.82475e-13
-5.74343e-13
-5.63511e-13
-5.53717e-13
-5.47045e-13
-5.36071e-13
-5.327e-13
-5.29808e-13
-5.25914e-13
-5.21237e-13
-5.1265e-13
-5.01775e-13
-4.89504e-13
-4.79734e-13
-4.74174e-13
-4.67136e-13
-4.62503e-13
-4.55526e-13
-4.5025e-13
-4.3771e-13
-4.29601e-13
-4.18665e-13
-4.14946e-13
-4.15368e-13
-4.08884e-13
-4.00796e-13
-3.89312e-13
-3.78956e-13
-3.69322e-13
-3.6056e-13
-3.54538e-13
-3.51681e-13
-3.43535e-13
-3.37652e-13
-3.30525e-13
-3.21461e-13
-3.14334e-13
-3.0643e-13
-2.98552e-13
-2.9298e-13
-2.90949e-13
-2.91248e-13
-2.8075e-13
-2.68278e-13
-2.49812e-13
-2.40039e-13
-2.33785e-13
-2.30445e-13
-2.25665e-13
-2.23387e-13
-2.1737e-13
-2.16246e-13
-2.09957e-13
-1.96795e-13
-1.7587e-13
-1.59241e-13
-1.58031e-13
-1.63732e-13
-1.60823e-13
-1.50302e-13
-1.4248e-13
-1.31911e-13
-1.21578e-13
-1.12655e-13
-1.01966e-13
-9.12274e-14
-8.50954e-14
-8.44121e-14
-7.90586e-14
-7.20348e-14
-6.15767e-14
-5.63606e-14
-5.06638e-14
-4.3716e-14
-3.6354e-14
-3.02163e-14
-1.77731e-14
-7.14831e-15
-1.12245e-15
-9.93105e-16
-6.92977e-13
-6.92507e-13
-6.84575e-13
-6.93875e-13
-6.93545e-13
-6.90497e-13
-6.84077e-13
-6.77314e-13
-6.70644e-13
-6.61283e-13
-6.56567e-13
-6.51879e-13
-6.50856e-13
-6.44737e-13
-6.38511e-13
-6.34448e-13
-6.29542e-13
-6.22784e-13
-6.11027e-13
-5.95952e-13
-5.76238e-13
-5.62068e-13
-5.5326e-13
-5.51602e-13
-5.4685e-13
-5.41986e-13
-5.35616e-13
-5.294e-13
-5.26565e-13
-5.23648e-13
-5.15662e-13
-5.02322e-13
-4.92107e-13
-4.83974e-13
-4.7954e-13
-4.69065e-13
-4.59034e-13
-4.54031e-13
-4.47837e-13
-4.37347e-13
-4.27795e-13
-4.2389e-13
-4.19556e-13
-4.13884e-13
-4.03209e-13
-3.93832e-13
-3.87034e-13
-3.79353e-13
-3.71472e-13
-3.64473e-13
-3.57978e-13
-3.52225e-13
-3.41109e-13
-3.31415e-13
-3.33199e-13
-3.32969e-13
-3.17764e-13
-3.02719e-13
-2.93956e-13
-2.86686e-13
-2.84832e-13
-2.82302e-13
-2.81521e-13
-2.71705e-13
-2.55017e-13
-2.45842e-13
-2.3257e-13
-2.31206e-13
-2.25964e-13
-2.20926e-13
-2.16861e-13
-2.16666e-13
-2.10742e-13
-1.94809e-13
-1.77667e-13
-1.64077e-13
-1.61059e-13
-1.64547e-13
-1.57102e-13
-1.47293e-13
-1.40667e-13
-1.32901e-13
-1.24551e-13
-1.14026e-13
-1.03258e-13
-9.0902e-14
-8.4895e-14
-8.44291e-14
-7.75017e-14
-7.00712e-14
-6.18402e-14
-5.49254e-14
-4.74737e-14
-4.19806e-14
-3.67669e-14
-2.87951e-14
-1.80223e-14
-8.7725e-15
-2.39873e-16
8.6988e-16
-6.89435e-13
-6.99559e-13
-6.93855e-13
-6.88848e-13
-6.89535e-13
-6.8822e-13
-6.83363e-13
-6.8229e-13
-6.71654e-13
-6.57208e-13
-6.5294e-13
-6.51713e-13
-6.49189e-13
-6.46033e-13
-6.41427e-13
-6.31757e-13
-6.20891e-13
-6.13283e-13
-6.07678e-13
-5.98244e-13
-5.90893e-13
-5.822e-13
-5.69512e-13
-5.51707e-13
-5.37445e-13
-5.30956e-13
-5.33284e-13
-5.31123e-13
-5.27947e-13
-5.25457e-13
-5.16339e-13
-5.03692e-13
-4.88153e-13
-4.75858e-13
-4.70125e-13
-4.65563e-13
-4.65571e-13
-4.60496e-13
-4.48483e-13
-4.41882e-13
-4.30392e-13
-4.20373e-13
-4.18039e-13
-4.11089e-13
-4.02168e-13
-3.93409e-13
-3.84095e-13
-3.79357e-13
-3.74976e-13
-3.67155e-13
-3.59231e-13
-3.49987e-13
-3.42952e-13
-3.3581e-13
-3.31228e-13
-3.25775e-13
-3.19798e-13
-3.12185e-13
-3.03872e-13
-2.92548e-13
-2.83565e-13
-2.77172e-13
-2.71868e-13
-2.66459e-13
-2.56596e-13
-2.48305e-13
-2.39184e-13
-2.3247e-13
-2.26597e-13
-2.23109e-13
-2.19495e-13
-2.1165e-13
-2.04093e-13
-1.9542e-13
-1.80776e-13
-1.69589e-13
-1.6141e-13
-1.59154e-13
-1.56532e-13
-1.48354e-13
-1.41613e-13
-1.30826e-13
-1.22858e-13
-1.12866e-13
-1.01844e-13
-9.24345e-14
-8.75504e-14
-8.28264e-14
-7.83925e-14
-6.96408e-14
-6.2107e-14
-5.80016e-14
-5.0182e-14
-4.15239e-14
-3.19437e-14
-2.35341e-14
-1.65805e-14
-1.04234e-14
-3.03388e-15
4.19315e-16
-6.88514e-13
-6.93088e-13
-6.94893e-13
-6.90454e-13
-6.89823e-13
-6.91034e-13
-6.80135e-13
-6.68845e-13
-6.63983e-13
-6.61859e-13
-6.59415e-13
-6.56027e-13
-6.52885e-13
-6.47465e-13
-6.41824e-13
-6.32992e-13
-6.26152e-13
-6.22206e-13
-6.12834e-13
-5.97734e-13
-5.77914e-13
-5.63468e-13
-5.54608e-13
-5.45161e-13
-5.45208e-13
-5.43571e-13
-5.3856e-13
-5.30592e-13
-5.25912e-13
-5.24573e-13
-5.18416e-13
-5.07247e-13
-4.93737e-13
-4.76067e-13
-4.65333e-13
-4.65767e-13
-4.66771e-13
-4.61903e-13
-4.54507e-13
-4.4283e-13
-4.28162e-13
-4.18772e-13
-4.10991e-13
-4.06718e-13
-4.01778e-13
-3.9609e-13
-3.89217e-13
-3.80648e-13
-3.74726e-13
-3.74075e-13
-3.65782e-13
-3.48126e-13
-3.379e-13
-3.30723e-13
-3.25435e-13
-3.23922e-13
-3.20325e-13
-3.11324e-13
-2.99089e-13
-2.89936e-13
-2.868e-13
-2.82482e-13
-2.75452e-13
-2.66394e-13
-2.52175e-13
-2.42062e-13
-2.37413e-13
-2.35225e-13
-2.30282e-13
-2.22942e-13
-2.16392e-13
-2.11666e-13
-2.04472e-13
-1.93896e-13
-1.82072e-13
-1.66193e-13
-1.59842e-13
-1.58304e-13
-1.58838e-13
-1.53966e-13
-1.45161e-13
-1.34416e-13
-1.22538e-13
-1.10064e-13
-1.00267e-13
-9.28376e-14
-8.79056e-14
-8.18221e-14
-7.58415e-14
-6.87884e-14
-6.23735e-14
-5.67454e-14
-5.06364e-14
-4.16296e-14
-3.12923e-14
-2.0925e-14
-1.28483e-14
-7.53986e-15
-1.34448e-15
-2.38734e-16
-6.87004e-13
-6.96053e-13
-6.96505e-13
-6.91593e-13
-6.88346e-13
-6.93897e-13
-6.90165e-13
-6.75632e-13
-6.56954e-13
-6.53082e-13
-6.52434e-13
-6.54211e-13
-6.53267e-13
-6.50661e-13
-6.45116e-13
-6.34162e-13
-6.24228e-13
-6.16377e-13
-6.03477e-13
-5.94443e-13
-5.86011e-13
-5.72242e-13
-5.59783e-13
-5.45614e-13
-5.44562e-13
-5.42769e-13
-5.40517e-13
-5.35194e-13
-5.26979e-13
-5.23466e-13
-5.1493e-13
-5.02571e-13
-4.92551e-13
-4.76827e-13
-4.64199e-13
-4.63147e-13
-4.64771e-13
-4.62652e-13
-4.54054e-13
-4.43699e-13
-4.2677e-13
-4.17203e-13
-4.14769e-13
-4.09478e-13
-4.01914e-13
-3.94506e-13
-3.91704e-13
-3.85146e-13
-3.74984e-13
-3.63901e-13
-3.56622e-13
-3.50897e-13
-3.42106e-13
-3.29153e-13
-3.30271e-13
-3.27604e-13
-3.19428e-13
-3.1345e-13
-3.06277e-13
-2.92283e-13
-2.84948e-13
-2.7888e-13
-2.70485e-13
-2.6308e-13
-2.52229e-13
-2.44558e-13
-2.35182e-13
-2.32369e-13
-2.26791e-13
-2.26166e-13
-2.18982e-13
-2.14743e-13
-2.08053e-13
-1.93825e-13
-1.78905e-13
-1.66678e-13
-1.63226e-13
-1.5979e-13
-1.55009e-13
-1.49797e-13
-1.43997e-13
-1.34992e-13
-1.23328e-13
-1.10769e-13
-1.03686e-13
-9.59917e-14
-8.84038e-14
-8.17147e-14
-7.5939e-14
-6.7487e-14
-6.04362e-14
-5.44737e-14
-4.65926e-14
-3.78915e-14
-3.07874e-14
-2.49834e-14
-1.1511e-14
-4.19967e-15
1.6188e-15
7.62671e-16
-6.94039e-13
-6.93202e-13
-6.89209e-13
-6.85041e-13
-6.86966e-13
-6.81475e-13
-6.77108e-13
-6.7865e-13
-6.74485e-13
-6.66735e-13
-6.61619e-13
-6.52846e-13
-6.46835e-13
-6.45678e-13
-6.43393e-13
-6.3602e-13
-6.26902e-13
-6.23538e-13
-6.1161e-13
-5.94099e-13
-5.73813e-13
-5.60944e-13
-5.55204e-13
-5.53361e-13
-5.46123e-13
-5.44574e-13
-5.40577e-13
-5.33315e-13
-5.27495e-13
-5.21954e-13
-5.14736e-13
-5.01961e-13
-4.89456e-13
-4.76294e-13
-4.67563e-13
-4.6632e-13
-4.6923e-13
-4.62688e-13
-4.52812e-13
-4.42109e-13
-4.2758e-13
-4.14737e-13
-4.12583e-13
-4.10006e-13
-4.06298e-13
-3.95539e-13
-3.86371e-13
-3.83277e-13
-3.78535e-13
-3.67117e-13
-3.55885e-13
-3.50837e-13
-3.43923e-13
-3.32867e-13
-3.25106e-13
-3.22536e-13
-3.16911e-13
-3.12493e-13
-3.07185e-13
-2.97899e-13
-2.87113e-13
-2.79346e-13
-2.69922e-13
-2.62579e-13
-2.56169e-13
-2.45936e-13
-2.35562e-13
-2.2703e-13
-2.23848e-13
-2.26445e-13
-2.18132e-13
-2.1298e-13
-2.06176e-13
-1.94563e-13
-1.831e-13
-1.70394e-13
-1.59651e-13
-1.5477e-13
-1.54391e-13
-1.55419e-13
-1.48916e-13
-1.33536e-13
-1.22042e-13
-1.08665e-13
-1.03788e-13
-9.84819e-14
-9.10461e-14
-8.04929e-14
-7.13721e-14
-6.63013e-14
-6.0612e-14
-5.365e-14
-4.81976e-14
-4.00215e-14
-2.97547e-14
-2.03497e-14
-1.19665e-14
-5.5669e-15
1.23632e-15
2.16288e-15
-6.934e-13
-6.92133e-13
-6.89433e-13
-6.86874e-13
-6.93353e-13
-6.90607e-13
-6.77489e-13
-6.70693e-13
-6.66057e-13
-6.63237e-13
-6.62323e-13
-6.60582e-13
-6.48827e-13
-6.41105e-13
-6.38146e-13
-6.33102e-13
-6.28792e-13
-6.21315e-13
-6.08608e-13
-5.91691e-13
-5.77302e-13
-5.62694e-13
-5.53198e-13
-5.53627e-13
-5.53505e-13
-5.4435e-13
-5.36861e-13
-5.33661e-13
-5.31242e-13
-5.2472e-13
-5.16981e-13
-5.03528e-13
-4.89269e-13
-4.75339e-13
-4.63999e-13
-4.64571e-13
-4.6321e-13
-4.60943e-13
-4.56751e-13
-4.46274e-13
-4.31202e-13
-4.19131e-13
-4.1243e-13
-4.04052e-13
-4.02466e-13
-3.96976e-13
-3.8933e-13
-3.80028e-13
-3.73771e-13
-3.67392e-13
-3.56751e-13
-3.51101e-13
-3.43818e-13
-3.34141e-13
-3.31534e-13
-3.27032e-13
-3.15312e-13
-3.06252e-13
-3.0279e-13
-2.9525e-13
-2.89095e-13
-2.79249e-13
-2.7142e-13
-2.64474e-13
-2.55652e-13
-2.4432e-13
-2.37603e-13
-2.27637e-13
-2.20568e-13
-2.19098e-13
-2.17256e-13
-2.14006e-13
-2.08099e-13
-1.9485e-13
-1.81981e-13
-1.71181e-13
-1.63835e-13
-1.57138e-13
-1.56891e-13
-1.53538e-13
-1.45938e-13
-1.35219e-13
-1.23621e-13
-1.11458e-13
-1.02566e-13
-9.32509e-14
-8.65652e-14
-8.23374e-14
-7.6245e-14
-6.65475e-14
-5.96767e-14
-5.24038e-14
-4.50383e-14
-3.72362e-14
-2.81457e-14
-2.20529e-14
-1.37454e-14
-3.89258e-15
1.70147e-15
4.32074e-16
-6.88066e-13
-6.91027e-13
-6.91102e-13
-6.89462e-13
-6.87873e-13
-6.8171e-13
-6.77012e-13
-6.73696e-13
-6.72748e-13
-6.68838e-13
-6.63525e-13
-6.59036e-13
-6.51724e-13
-6.42959e-13
-6.36782e-13
-6.29395e-13
-6.26623e-13
-6.196e-13
-6.06695e-13
-5.94036e-13
-5.77338e-13
-5.63725e-13
-5.58731e-13
-5.54614e-13
-5.45895e-13
-5.41713e-13
-5.4116e-13
-5.37993e-13
-5.30566e-13
-5.20244e-13
-5.11818e-13
-5.02033e-13
-4.88731e-13
-4.76413e-13
-4.66779e-13
-4.70092e-13
-4.70948e-13
-4.62867e-13
-4.51738e-13
-4.38479e-13
-4.27896e-13
-4.22157e-13
-4.14214e-13
-4.04466e-13
-3.99449e-13
-3.93006e-13
-3.91729e-13
-3.90269e-13
-3.77737e-13
-3.63682e-13
-3.54327e-13
-3.52185e-13
-3.44387e-13
-3.33619e-13
-3.29877e-13
-3.26476e-13
-3.18858e-13
-3.08522e-13
-3.00585e-13
-2.93934e-13
-2.91624e-13
-2.82751e-13
-2.72463e-13
-2.63148e-13
-2.51736e-13
-2.43771e-13
-2.34893e-13
-2.29143e-13
-2.21817e-13
-2.17318e-13
-2.13175e-13
-2.14043e-13
-2.09058e-13
-1.95033e-13
-1.82144e-13
-1.7132e-13
-1.66002e-13
-1.60313e-13
-1.52301e-13
-1.44526e-13
-1.48357e-13
-1.42535e-13
-1.25232e-13
-1.12294e-13
-1.02542e-13
-9.19781e-14
-8.47018e-14
-8.17624e-14
-7.58344e-14
-6.68044e-14
-5.88473e-14
-5.28522e-14
-4.57897e-14
-3.58857e-14
-3.06233e-14
-2.06935e-14
-1.06576e-14
-2.34176e-15
2.6424e-15
-2.78574e-17
-6.95308e-13
-6.92205e-13
-6.90023e-13
-6.86893e-13
-6.81913e-13
-6.79448e-13
-6.76473e-13
-6.76536e-13
-6.74138e-13
-6.69461e-13
-6.6261e-13
-6.58388e-13
-6.52467e-13
-6.46547e-13
-6.38712e-13
-6.27843e-13
-6.17424e-13
-6.11193e-13
-6.06478e-13
-5.98365e-13
-5.80192e-13
-5.67979e-13
-5.59068e-13
-5.5189e-13
-5.48088e-13
-5.44249e-13
-5.42073e-13
-5.38601e-13
-5.28699e-13
-5.22937e-13
-5.13103e-13
-5.01244e-13
-4.87023e-13
-4.74179e-13
-4.69326e-13
-4.69599e-13
-4.67381e-13
-4.61165e-13
-4.51298e-13
-4.39898e-13
-4.28207e-13
-4.19405e-13
-4.15118e-13
-4.09123e-13
-4.04113e-13
-3.97503e-13
-3.87628e-13
-3.80859e-13
-3.76437e-13
-3.68136e-13
-3.61629e-13
-3.52003e-13
-3.4259e-13
-3.34625e-13
-3.28436e-13
-3.21098e-13
-3.17306e-13
-3.1055e-13
-3.00546e-13
-2.94406e-13
-2.92399e-13
-2.85176e-13
-2.73713e-13
-2.61475e-13
-2.52821e-13
-2.44046e-13
-2.3464e-13
-2.27525e-13
-2.21795e-13
-2.17529e-13
-2.15277e-13
-2.14577e-13
-2.07769e-13
-1.92003e-13
-1.8111e-13
-1.71704e-13
-1.65407e-13
-1.5952e-13
-1.55817e-13
-1.51191e-13
-1.44852e-13
-1.36557e-13
-1.26505e-13
-1.16014e-13
-1.07893e-13
-9.24746e-14
-8.34639e-14
-7.86545e-14
-7.54259e-14
-6.3609e-14
-5.60945e-14
-5.20035e-14
-5.00011e-14
-3.75807e-14
-2.63399e-14
-1.97811e-14
-1.21114e-14
1.26772e-16
1.32763e-15
-1.28673e-15
-6.97973e-13
-6.9148e-13
-6.85494e-13
-6.86003e-13
-6.78169e-13
-6.79369e-13
-6.76814e-13
-6.77832e-13
-6.77531e-13
-6.67798e-13
-6.61826e-13
-6.59239e-13
-6.57438e-13
-6.4813e-13
-6.38829e-13
-6.30887e-13
-6.22445e-13
-6.11588e-13
-6.04987e-13
-5.91358e-13
-5.80164e-13
-5.67828e-13
-5.56065e-13
-5.50034e-13
-5.46459e-13
-5.48074e-13
-5.43104e-13
-5.37269e-13
-5.2903e-13
-5.21376e-13
-5.13545e-13
-5.03256e-13
-4.87322e-13
-4.76753e-13
-4.67738e-13
-4.65126e-13
-4.65654e-13
-4.61513e-13
-4.51928e-13
-4.40637e-13
-4.31642e-13
-4.22532e-13
-4.14303e-13
-4.08004e-13
-4.02167e-13
-3.95592e-13
-3.87677e-13
-3.83229e-13
-3.78921e-13
-3.689e-13
-3.58284e-13
-3.47859e-13
-3.42093e-13
-3.37296e-13
-3.3179e-13
-3.25732e-13
-3.18544e-13
-3.09123e-13
-3.03158e-13
-2.98669e-13
-2.93834e-13
-2.8398e-13
-2.69591e-13
-2.59657e-13
-2.51043e-13
-2.42298e-13
-2.32943e-13
-2.28411e-13
-2.21579e-13
-2.21325e-13
-2.16486e-13
-2.1062e-13
-2.01148e-13
-1.89542e-13
-1.79646e-13
-1.69988e-13
-1.69164e-13
-1.67112e-13
-1.57509e-13
-1.48425e-13
-1.41847e-13
-1.34238e-13
-1.25319e-13
-1.14818e-13
-1.0269e-13
-8.99611e-14
-8.49098e-14
-8.13281e-14
-7.44515e-14
-6.96003e-14
-6.36981e-14
-5.23284e-14
-4.27906e-14
-3.53062e-14
-2.64109e-14
-1.70807e-14
-1.01263e-14
-6.04411e-15
-1.79027e-15
-1.31441e-15
-6.9568e-13
-6.89705e-13
-6.87828e-13
-6.85867e-13
-6.82571e-13
-6.79044e-13
-6.7394e-13
-6.76705e-13
-6.76675e-13
-6.71748e-13
-6.65375e-13
-6.58477e-13
-6.56108e-13
-6.46331e-13
-6.35731e-13
-6.25515e-13
-6.16036e-13
-6.1171e-13
-6.05782e-13
-5.94208e-13
-5.81746e-13
-5.69466e-13
-5.58475e-13
-5.53844e-13
-5.52335e-13
-5.45749e-13
-5.39132e-13
-5.31342e-13
-5.24325e-13
-5.21651e-13
-5.1506e-13
-5.07938e-13
-4.95717e-13
-4.83798e-13
-4.65835e-13
-4.61352e-13
-4.60737e-13
-4.57718e-13
-4.51366e-13
-4.40539e-13
-4.33553e-13
-4.22796e-13
-4.16967e-13
-4.06427e-13
-4.0264e-13
-3.96898e-13
-3.9271e-13
-3.84936e-13
-3.7495e-13
-3.61569e-13
-3.57505e-13
-3.53409e-13
-3.46278e-13
-3.33459e-13
-3.26605e-13
-3.20354e-13
-3.13175e-13
-3.11795e-13
-3.04275e-13
-3.0302e-13
-3.03442e-13
-2.8126e-13
-2.67791e-13
-2.61808e-13
-2.5396e-13
-2.4541e-13
-2.35717e-13
-2.29123e-13
-2.18809e-13
-2.1532e-13
-2.11487e-13
-2.13592e-13
-2.06541e-13
-1.93684e-13
-1.77553e-13
-1.65485e-13
-1.68998e-13
-1.65677e-13
-1.57462e-13
-1.51397e-13
-1.4417e-13
-1.3488e-13
-1.23985e-13
-1.12975e-13
-1.03545e-13
-9.15503e-14
-8.41948e-14
-8.1773e-14
-7.57904e-14
-6.53181e-14
-5.73563e-14
-5.19442e-14
-4.37088e-14
-3.48309e-14
-3.06012e-14
-2.37649e-14
-1.04504e-14
-2.28554e-15
3.33684e-15
-8.7502e-17
-6.89965e-13
-6.9216e-13
-6.91831e-13
-6.85559e-13
-6.79911e-13
-6.80224e-13
-6.78355e-13
-6.74516e-13
-6.74449e-13
-6.70478e-13
-6.67059e-13
-6.62472e-13
-6.54372e-13
-6.44854e-13
-6.3659e-13
-6.29159e-13
-6.24011e-13
-6.19212e-13
-6.08237e-13
-5.9161e-13
-5.72728e-13
-5.58901e-13
-5.55427e-13
-5.55907e-13
-5.53062e-13
-5.45145e-13
-5.3588e-13
-5.31432e-13
-5.24483e-13
-5.23004e-13
-5.19296e-13
-5.03603e-13
-4.90157e-13
-4.81285e-13
-4.72622e-13
-4.67639e-13
-4.63184e-13
-4.56419e-13
-4.4992e-13
-4.41532e-13
-4.32345e-13
-4.22195e-13
-4.13959e-13
-4.09322e-13
-4.07945e-13
-3.98317e-13
-3.90592e-13
-3.78519e-13
-3.75944e-13
-3.68481e-13
-3.56758e-13
-3.51947e-13
-3.45774e-13
-3.37419e-13
-3.29796e-13
-3.16572e-13
-3.05289e-13
-3.09462e-13
-3.13668e-13
-3.05016e-13
-2.95013e-13
-2.83545e-13