/*--------------------------------*- C++ -*----------------------------------*\
| =========                 |                                                 |
| \\      /  F ield         | OpenFOAM: The Open Source CFD Toolbox           |
|  \\    /   O peration     | Version:  v2012                                 |
|   \\  /    A nd           | Website:  www.openfoam.com                      |
|    \\/     M anipulation  |                                                 |
\*---------------------------------------------------------------------------*/
FoamFile
{
    version     2.0;
    format      ascii;
    class       volScalarField;
    location    "0";
    object      p;
}
// * * * * * * * * * * * * * * * * * * * * * * * * * * * * * * * * * * * * * //

dimensions      [0 2 -2 0 0 0 0];


internalField   nonuniform List<scalar> 
4000
(
-6.61757e-13
-6.61294e-13
-6.66248e-13
-6.69222e-13
-6.76146e-13
-6.74725e-13
-6.75354e-13
-6.82828e-13
-6.80691e-13
-6.83201e-13
-6.74436e-13
-6.76858e-13
-6.76575e-13
-6.82106e-13
-6.93585e-13
-6.97317e-13
-7.00002e-13
-6.84712e-13
-6.8464e-13
-6.82643e-13
-6.9527e-13
-7.01689e-13
-6.9245e-13
-6.98973e-13
-6.96253e-13
-7.00774e-13
-6.91062e-13
-6.90309e-13
-6.90473e-13
-6.93994e-13
-6.95166e-13
-6.95321e-13
-6.86152e-13
-6.81714e-13
-6.8012e-13
-6.70287e-13
-6.77182e-13
-6.72569e-13
-6.74934e-13
-6.6954e-13
-6.57607e-13
-6.52318e-13
-6.49452e-13
-6.38592e-13
-6.33605e-13
-6.28003e-13
-6.2307e-13
-6.17219e-13
-6.15006e-13
-6.00912e-13
-5.92176e-13
-5.82753e-13
-5.73551e-13
-5.5879e-13
-5.50505e-13
-5.4342e-13
-5.33211e-13
-5.21666e-13
-5.06776e-13
-4.89094e-13
-4.66851e-13
-4.60256e-13
-4.62208e-13
-4.66731e-13
-4.58639e-13
-4.39734e-13
-4.24766e-13
-4.14553e-13
-4.0764e-13
-3.89109e-13
-3.74193e-13
-3.60901e-13
-3.52314e-13
-3.48259e-13
-3.38604e-13
-3.28953e-13
-3.10073e-13
-2.97735e-13
-2.87987e-13
-2.79381e-13
-2.76053e-13
-2.60847e-13
-2.47729e-13
-2.4304e-13
-2.32335e-13
-2.16761e-13
-1.94086e-13
-1.8294e-13
-1.66237e-13
-1.47369e-13
-1.3622e-13
-1.24545e-13
-1.07538e-13
-8.69733e-14
-7.54912e-14
-5.90941e-14
-4.88244e-14
-3.18246e-14
-1.7324e-14
-4.96139e-15
-6.65879e-13
-6.63851e-13
-6.61317e-13
-6.70205e-13
-6.69883e-13
-6.77238e-13
-6.79297e-13
-6.7969e-13
-6.79111e-13
-6.83384e-13
-6.77892e-13
-6.8107e-13
-6.79925e-13
-6.81724e-13
-6.9063e-13
-6.92154e-13
-6.9242e-13
-6.88562e-13
-6.82809e-13
-6.86359e-13
-6.89168e-13
-6.97451e-13
-6.98313e-13
-7.024e-13
-6.99545e-13
-6.99499e-13
-6.94183e-13
-6.91519e-13
-6.93289e-13
-6.95241e-13
-6.91876e-13
-6.86143e-13
-6.90974e-13
-6.8376e-13
-6.8467e-13
-6.79662e-13
-6.71819e-13
-6.68886e-13
-6.70638e-13
-6.6286e-13
-6.59419e-13
-6.53748e-13
-6.48552e-13
-6.39807e-13
-6.37336e-13
-6.29822e-13
-6.2335e-13
-6.17445e-13
-6.16311e-13
-6.0193e-13
-5.93113e-13
-5.81641e-13
-5.71182e-13
-5.57716e-13
-5.45787e-13
-5.40638e-13
-5.31555e-13
-5.26157e-13
-5.09684e-13
-4.89835e-13
-4.69884e-13
-4.61386e-13
-4.59059e-13
-4.60058e-13
-4.58838e-13
-4.44714e-13
-4.30081e-13
-4.175e-13
-4.00533e-13
-3.84198e-13
-3.68951e-13
-3.62369e-13
-3.53216e-13
-3.44813e-13
-3.38011e-13
-3.33218e-13
-3.12656e-13
-2.98486e-13
-2.8931e-13
-2.80007e-13
-2.76289e-13
-2.61893e-13
-2.48107e-13
-2.42233e-13
-2.27517e-13
-2.14793e-13
-1.98674e-13
-1.86492e-13
-1.66962e-13
-1.48552e-13
-1.35104e-13
-1.21552e-13
-1.01924e-13
-9.05767e-14
-7.58531e-14
-5.8103e-14
-4.67692e-14
-3.322e-14
-1.9299e-14
-7.47937e-15
-6.67232e-13
-6.65786e-13
-6.65026e-13
-6.69594e-13
-6.7029e-13
-6.78072e-13
-6.79318e-13
-6.79713e-13
-6.80593e-13
-6.84918e-13
-6.83768e-13
-6.82533e-13
-6.83593e-13
-6.82516e-13
-6.87632e-13
-6.907e-13
-6.86397e-13
-6.91381e-13
-6.84967e-13
-6.88627e-13
-6.89345e-13
-6.96887e-13
-6.9579e-13
-6.99656e-13
-6.99353e-13
-6.96627e-13
-6.94273e-13
-6.93525e-13
-6.95085e-13
-6.98068e-13
-6.97416e-13
-6.89999e-13
-6.89306e-13
-6.79425e-13
-6.82141e-13
-6.79755e-13
-6.73288e-13
-6.70336e-13
-6.64359e-13
-6.64781e-13
-6.59976e-13
-6.51412e-13
-6.46593e-13
-6.42777e-13
-6.36251e-13
-6.27013e-13
-6.23271e-13
-6.24689e-13
-6.10618e-13
-6.02134e-13
-5.92298e-13
-5.8328e-13
-5.71209e-13
-5.53698e-13
-5.46468e-13
-5.40969e-13
-5.30786e-13
-5.1923e-13
-5.05903e-13
-4.87927e-13
-4.74623e-13
-4.69333e-13
-4.63515e-13
-4.59629e-13
-4.53932e-13
-4.43264e-13
-4.29863e-13
-4.17351e-13
-3.98588e-13
-3.83522e-13
-3.74177e-13
-3.62448e-13
-3.53868e-13
-3.4714e-13
-3.39882e-13
-3.29042e-13
-3.11651e-13
-3.00667e-13
-2.86715e-13
-2.74974e-13
-2.73685e-13
-2.61643e-13
-2.53259e-13
-2.41143e-13
-2.25866e-13
-2.1188e-13
-1.99816e-13
-1.85572e-13
-1.6469e-13
-1.52875e-13
-1.37747e-13
-1.17473e-13
-1.03434e-13
-9.22916e-14
-7.68089e-14
-6.23273e-14
-4.34144e-14
-3.14752e-14
-1.6385e-14
-7.79512e-15
-6.65499e-13
-6.64517e-13
-6.66593e-13
-6.72033e-13
-6.74822e-13
-6.83628e-13
-6.81104e-13
-6.78793e-13
-6.78039e-13
-6.85141e-13
-6.84704e-13
-6.84903e-13
-6.91128e-13
-6.82326e-13
-6.80417e-13
-6.86719e-13
-6.90422e-13
-6.90605e-13
-6.91191e-13
-6.94845e-13
-6.87645e-13
-6.889e-13
-6.9107e-13
-6.99405e-13
-6.9972e-13
-7.00646e-13
-7.04201e-13
-6.9946e-13
-6.98654e-13
-7.01387e-13
-6.90011e-13
-6.87915e-13
-6.95311e-13
-6.85922e-13
-6.7688e-13
-6.75037e-13
-6.75555e-13
-6.72058e-13
-6.63732e-13
-6.61689e-13
-6.55634e-13
-6.51062e-13
-6.45636e-13
-6.45032e-13
-6.42178e-13
-6.33334e-13
-6.20991e-13
-6.18271e-13
-6.09899e-13
-6.0676e-13
-5.97179e-13
-5.8496e-13
-5.68256e-13
-5.51738e-13
-5.44312e-13
-5.37323e-13
-5.30743e-13
-5.17161e-13
-5.06347e-13
-4.91746e-13
-4.78028e-13
-4.6707e-13
-4.64023e-13
-4.59783e-13
-4.54391e-13
-4.48417e-13
-4.31413e-13
-4.2028e-13
-3.96265e-13
-3.80175e-13
-3.70119e-13
-3.61195e-13
-3.52806e-13
-3.43802e-13
-3.4076e-13
-3.25884e-13
-3.11548e-13
-2.98492e-13
-2.87604e-13
-2.76078e-13
-2.67033e-13
-2.59829e-13
-2.53417e-13
-2.4375e-13
-2.31791e-13
-2.09594e-13
-2.03185e-13
-1.86892e-13
-1.65776e-13
-1.50751e-13
-1.3382e-13
-1.19822e-13
-1.05615e-13
-9.18584e-14
-7.61758e-14
-5.90071e-14
-4.43369e-14
-2.90492e-14
-1.64694e-14
-8.00434e-15
-6.68172e-13
-6.6296e-13
-6.71026e-13
-6.74696e-13
-6.82244e-13
-6.80963e-13
-6.82557e-13
-6.77481e-13
-6.81579e-13
-6.89647e-13
-6.90074e-13
-6.88357e-13
-6.88323e-13
-6.8082e-13
-6.79769e-13
-6.83575e-13
-6.86458e-13
-6.86808e-13
-6.92908e-13
-7.0373e-13
-6.9603e-13
-6.90413e-13
-6.9756e-13
-6.97376e-13
-6.92474e-13
-6.9632e-13
-6.97013e-13
-7.01621e-13
-6.98379e-13
-6.97464e-13
-6.93986e-13
-6.91563e-13
-6.93417e-13
-6.83216e-13
-6.75656e-13
-6.75977e-13
-6.70227e-13
-6.71548e-13
-6.72237e-13
-6.62993e-13
-6.55804e-13
-6.50897e-13
-6.45271e-13
-6.44534e-13
-6.46356e-13
-6.33674e-13
-6.22683e-13
-6.17885e-13
-6.1023e-13
-6.05053e-13
-5.92906e-13
-5.79691e-13
-5.7006e-13
-5.5426e-13
-5.46198e-13
-5.37974e-13
-5.29034e-13
-5.14277e-13
-5.07372e-13
-4.94886e-13
-4.82397e-13
-4.73199e-13
-4.69676e-13
-4.63797e-13
-4.47991e-13
-4.3848e-13
-4.27801e-13
-4.18256e-13
-3.98847e-13
-3.79016e-13
-3.73287e-13
-3.64684e-13
-3.54439e-13
-3.46306e-13
-3.38288e-13
-3.29523e-13
-3.11797e-13
-2.97389e-13
-2.86051e-13
-2.78028e-13
-2.67813e-13
-2.60224e-13
-2.48093e-13
-2.44079e-13
-2.34033e-13
-2.14703e-13
-1.96914e-13
-1.85699e-13
-1.68121e-13
-1.46991e-13
-1.35413e-13
-1.17272e-13
-1.05882e-13
-8.79571e-14
-7.54229e-14
-5.52035e-14
-3.96977e-14
-3.32292e-14
-1.6442e-14
-8.40101e-15
-6.73677e-13
-6.66048e-13
-6.70066e-13
-6.78051e-13
-6.86469e-13
-6.81983e-13
-6.78816e-13
-6.79864e-13
-6.7985e-13
-6.90911e-13
-6.88039e-13
-6.93231e-13
-6.89831e-13
-6.824e-13
-6.88404e-13
-6.81033e-13
-6.81366e-13
-6.86155e-13
-6.91211e-13
-7.00354e-13
-6.95526e-13
-6.9731e-13
-7.00874e-13
-7.00407e-13
-6.93108e-13
-6.94077e-13
-7.01499e-13
-7.0454e-13
-6.97041e-13
-6.92796e-13
-6.95501e-13
-6.95065e-13
-6.93355e-13
-6.77272e-13
-6.70839e-13
-6.7461e-13
-6.71859e-13
-6.73321e-13
-6.70332e-13
-6.62227e-13
-6.55121e-13
-6.54726e-13
-6.48413e-13
-6.4513e-13
-6.42639e-13
-6.37653e-13
-6.29184e-13
-6.19009e-13
-6.07293e-13
-6.03264e-13
-5.91279e-13
-5.80374e-13
-5.71693e-13
-5.54893e-13
-5.49235e-13
-5.37753e-13
-5.30235e-13
-5.15556e-13
-5.05132e-13
-4.94823e-13
-4.83576e-13
-4.76151e-13
-4.70071e-13
-4.59099e-13
-4.51715e-13
-4.40603e-13
-4.28394e-13
-4.17366e-13
-4.01295e-13
-3.83557e-13
-3.7147e-13
-3.6098e-13
-3.55307e-13
-3.46352e-13
-3.41855e-13
-3.26379e-13
-3.13968e-13
-3.01648e-13
-2.88179e-13
-2.74015e-13
-2.68344e-13
-2.60695e-13
-2.47384e-13
-2.40538e-13
-2.3427e-13
-2.15129e-13
-1.95601e-13
-1.81906e-13
-1.70842e-13
-1.47519e-13
-1.36723e-13
-1.18245e-13
-1.025e-13
-8.45363e-14
-7.33006e-14
-5.68546e-14
-4.21672e-14
-3.52803e-14
-1.5789e-14
-9.64443e-15
-6.75584e-13
-6.73951e-13
-6.75893e-13
-6.80875e-13
-6.88228e-13
-6.78316e-13
-6.81123e-13
-6.79404e-13
-6.90231e-13
-6.95896e-13
-6.90842e-13
-6.93624e-13
-6.85997e-13
-6.80704e-13
-6.86686e-13
-6.86286e-13
-6.88667e-13
-6.91607e-13
-6.91294e-13
-7.00826e-13
-7.09165e-13
-6.98946e-13
-6.88236e-13
-6.91188e-13
-6.90035e-13
-6.92047e-13
-7.07451e-13
-7.13719e-13
-6.97712e-13
-6.95273e-13
-6.94184e-13
-6.88438e-13
-6.86284e-13
-6.78665e-13
-6.78092e-13
-6.74615e-13
-6.68996e-13
-6.70929e-13
-6.68199e-13
-6.64734e-13
-6.55428e-13
-6.57797e-13
-6.51744e-13
-6.44177e-13
-6.36988e-13
-6.2912e-13
-6.27615e-13
-6.2289e-13
-6.12052e-13
-6.01863e-13
-5.90439e-13
-5.68246e-13
-5.65189e-13
-5.56731e-13
-5.49268e-13
-5.38134e-13
-5.31339e-13
-5.21252e-13
-5.12272e-13
-4.96212e-13
-4.87586e-13
-4.74645e-13
-4.69699e-13
-4.60599e-13
-4.52038e-13
-4.42421e-13
-4.31325e-13
-4.20412e-13
-4.07516e-13
-3.84329e-13
-3.66686e-13
-3.62727e-13
-3.59065e-13
-3.50076e-13
-3.36223e-13
-3.21775e-13
-3.1949e-13
-3.04819e-13
-2.97029e-13
-2.80845e-13
-2.69439e-13
-2.60636e-13
-2.41485e-13
-2.34201e-13
-2.32604e-13
-2.19229e-13
-2.02032e-13
-1.79188e-13
-1.6873e-13
-1.48052e-13
-1.38507e-13
-1.18945e-13
-9.83881e-14
-8.20442e-14
-6.73563e-14
-6.07202e-14
-5.1465e-14
-3.66436e-14
-1.71318e-14
-1.024e-14
-6.78378e-13
-6.79066e-13
-6.81542e-13
-6.8904e-13
-6.85048e-13
-6.76277e-13
-6.79952e-13
-6.84352e-13
-6.9415e-13
-6.98345e-13
-6.91029e-13
-6.95011e-13
-6.92224e-13
-6.84074e-13
-6.88189e-13
-6.87821e-13
-6.90506e-13
-6.89447e-13
-6.96064e-13
-7.01013e-13
-7.00627e-13
-6.98724e-13
-7.00475e-13
-6.97994e-13
-6.918e-13
-7.00994e-13
-7.06742e-13
-7.0783e-13
-6.95138e-13
-6.98322e-13
-6.94328e-13
-6.82915e-13
-6.78189e-13
-6.76638e-13
-6.75796e-13
-6.76805e-13
-6.72239e-13
-6.71078e-13
-6.72342e-13
-6.63001e-13
-6.58151e-13
-6.57915e-13
-6.56659e-13
-6.41246e-13
-6.26448e-13
-6.27039e-13
-6.33445e-13
-6.31096e-13
-6.16501e-13
-5.92786e-13
-5.83899e-13
-5.70902e-13
-5.62423e-13
-5.5566e-13
-5.49395e-13
-5.43792e-13
-5.30631e-13
-5.18692e-13
-5.12119e-13
-5.01841e-13
-4.92681e-13
-4.82526e-13
-4.69577e-13
-4.59675e-13
-4.46871e-13
-4.38739e-13
-4.32347e-13
-4.16543e-13
-4.0724e-13
-3.85095e-13
-3.76303e-13
-3.71608e-13
-3.63713e-13
-3.54954e-13
-3.41849e-13
-3.2461e-13
-3.16069e-13
-3.02935e-13
-2.94124e-13
-2.79102e-13
-2.67779e-13
-2.57339e-13
-2.44541e-13
-2.40378e-13
-2.27871e-13
-2.20603e-13
-2.00975e-13
-1.82094e-13
-1.66915e-13
-1.48937e-13
-1.35252e-13
-1.16856e-13
-9.75134e-14
-8.10489e-14
-7.24858e-14
-6.19425e-14
-5.12505e-14
-3.74316e-14
-1.93225e-14
-1.04259e-14
-6.80798e-13
-6.81627e-13
-6.85758e-13
-6.91857e-13
-6.85948e-13
-6.83182e-13
-6.84957e-13
-6.86355e-13
-6.91911e-13
-6.96479e-13
-6.99104e-13
-7.02057e-13
-6.99102e-13
-6.90198e-13
-6.86469e-13
-6.84191e-13
-6.89649e-13
-6.94309e-13
-6.99937e-13
-6.97852e-13
-6.98342e-13
-6.97965e-13
-6.94977e-13
-7.00452e-13
-7.02301e-13
-7.06237e-13
-7.03886e-13
-6.99732e-13
-6.91261e-13
-6.97789e-13
-6.95277e-13
-6.86908e-13
-6.88455e-13
-6.80466e-13
-6.71296e-13
-6.68518e-13
-6.72235e-13
-6.72504e-13
-6.68497e-13
-6.61183e-13
-6.60669e-13
-6.61303e-13
-6.56672e-13
-6.38575e-13
-6.28573e-13
-6.23857e-13
-6.27119e-13
-6.21273e-13
-6.11541e-13
-5.95567e-13
-5.85315e-13
-5.77736e-13
-5.63803e-13
-5.53679e-13
-5.48259e-13
-5.42641e-13
-5.33615e-13
-5.22921e-13
-5.19397e-13
-5.03473e-13
-4.93383e-13
-4.81235e-13
-4.68087e-13
-4.62501e-13
-4.5509e-13
-4.44594e-13
-4.36629e-13
-4.16826e-13
-4.10731e-13
-3.94711e-13
-3.79207e-13
-3.69131e-13
-3.61388e-13
-3.51017e-13
-3.40731e-13
-3.32877e-13
-3.1608e-13
-3.0092e-13
-2.9244e-13
-2.78066e-13
-2.66802e-13
-2.53217e-13
-2.42806e-13
-2.38803e-13
-2.30543e-13
-2.197e-13
-1.97384e-13
-1.8112e-13
-1.63669e-13
-1.48483e-13
-1.36485e-13
-1.18262e-13
-9.9951e-14
-8.12232e-14
-6.76992e-14
-5.65656e-14
-5.28666e-14
-4.14605e-14
-2.65444e-14
-1.31833e-14
-6.82768e-13
-6.87742e-13
-6.87268e-13
-6.89307e-13
-6.91137e-13
-6.88427e-13
-6.94122e-13
-6.91283e-13
-6.86092e-13
-7.08284e-13
-7.03779e-13
-6.99287e-13
-6.98659e-13
-6.91334e-13
-6.87848e-13
-6.87796e-13
-6.90272e-13
-6.92472e-13
-6.9377e-13
-6.95977e-13
-7.00076e-13
-7.05818e-13
-7.06595e-13
-7.02448e-13
-7.02377e-13
-7.01579e-13
-7.05373e-13
-6.97886e-13
-6.94277e-13
-6.95291e-13
-6.90544e-13
-6.9192e-13
-6.83392e-13
-6.79434e-13
-6.71175e-13
-6.70855e-13
-6.71876e-13
-6.7447e-13
-6.72764e-13
-6.59857e-13
-6.63158e-13
-6.63635e-13
-6.50487e-13
-6.41258e-13
-6.29386e-13
-6.20109e-13
-6.18523e-13
-6.21845e-13
-6.07262e-13
-5.99884e-13
-5.89061e-13
-5.78255e-13
-5.64698e-13
-5.55871e-13
-5.48108e-13
-5.44547e-13
-5.35907e-13
-5.23185e-13
-5.14806e-13
-5.04419e-13
-4.91888e-13
-4.78917e-13
-4.65348e-13
-4.68518e-13
-4.58989e-13
-4.51178e-13
-4.4061e-13
-4.20413e-13
-4.10448e-13
-3.90424e-13
-3.78808e-13
-3.72924e-13
-3.57957e-13
-3.50282e-13
-3.41317e-13
-3.34221e-13
-3.20729e-13
-3.01627e-13
-2.94236e-13
-2.79796e-13
-2.70232e-13
-2.52443e-13
-2.42167e-13
-2.30941e-13
-2.22051e-13
-2.13139e-13
-2.04262e-13
-1.84721e-13
-1.66157e-13
-1.49465e-13
-1.3567e-13
-1.17763e-13
-1.06207e-13
-8.71431e-14
-6.94596e-14
-6.02299e-14
-5.6592e-14
-4.25943e-14
-3.11145e-14
-1.13299e-14
-6.89778e-13
-6.90514e-13
-6.92863e-13
-6.9209e-13
-6.93252e-13
-6.94274e-13
-6.92245e-13
-6.92546e-13
-6.92912e-13
-7.04039e-13
-7.06667e-13
-7.02513e-13
-6.97285e-13
-6.91491e-13
-6.89884e-13
-6.89655e-13
-6.90024e-13
-6.91203e-13
-6.94591e-13
-6.99255e-13
-7.02746e-13
-7.07212e-13
-7.06031e-13
-7.00395e-13
-7.08138e-13
-7.10046e-13
-6.99929e-13
-6.93321e-13
-6.93937e-13
-6.89533e-13
-6.92108e-13
-6.87809e-13
-6.83199e-13
-6.7784e-13
-6.70289e-13
-6.73718e-13
-6.77574e-13
-6.73205e-13
-6.67904e-13
-6.64951e-13
-6.66085e-13
-6.65869e-13
-6.49576e-13
-6.36707e-13
-6.26084e-13
-6.15813e-13
-6.17194e-13
-6.18806e-13
-6.10871e-13
-6.08697e-13
-5.95035e-13
-5.76182e-13
-5.62364e-13
-5.56334e-13
-5.53113e-13
-5.4138e-13
-5.32287e-13
-5.2122e-13
-5.15512e-13
-5.09742e-13
-4.88624e-13
-4.86756e-13
-4.76177e-13
-4.5945e-13
-4.53398e-13
-4.51517e-13
-4.43788e-13
-4.21299e-13
-4.08848e-13
-3.92503e-13
-3.82101e-13
-3.70995e-13
-3.58112e-13
-3.51061e-13
-3.44415e-13
-3.37557e-13
-3.18379e-13
-3.03914e-13
-2.93351e-13
-2.75027e-13
-2.61722e-13
-2.47941e-13
-2.4095e-13
-2.33329e-13
-2.27829e-13
-2.11918e-13
-1.99333e-13
-1.78171e-13
-1.60661e-13
-1.52066e-13
-1.3713e-13
-1.19628e-13
-1.06e-13
-8.88656e-14
-6.99795e-14
-5.97665e-14
-5.90201e-14
-5.33941e-14
-3.41264e-14
-1.09801e-14
-6.88645e-13
-6.94395e-13
-6.95701e-13
-6.96087e-13
-6.95445e-13
-6.95941e-13
-6.93923e-13
-6.95173e-13
-6.93334e-13
-6.99731e-13
-7.08291e-13
-7.06435e-13
-6.98873e-13
-6.94779e-13
-6.9806e-13
-6.93824e-13
-6.88707e-13
-6.86755e-13
-6.92666e-13
-6.9929e-13
-7.01183e-13
-7.02769e-13
-7.06508e-13
-7.01986e-13
-7.06624e-13
-7.11519e-13
-7.06607e-13
-6.99155e-13
-6.9212e-13
-6.88148e-13
-6.84874e-13
-6.77715e-13
-6.80337e-13
-6.87088e-13
-6.86422e-13
-6.72402e-13
-6.71134e-13
-6.69649e-13
-6.70744e-13
-6.6848e-13
-6.68032e-13
-6.59349e-13
-6.45967e-13
-6.34139e-13
-6.27325e-13
-6.18815e-13
-6.1901e-13
-6.13919e-13
-6.12606e-13
-6.05777e-13
-5.8561e-13
-5.78913e-13
-5.62885e-13
-5.57916e-13
-5.51078e-13
-5.40763e-13
-5.35818e-13
-5.22468e-13
-5.15204e-13
-5.06454e-13
-4.90077e-13
-4.79642e-13
-4.73341e-13
-4.66186e-13
-4.54793e-13
-4.5742e-13
-4.46239e-13
-4.26321e-13
-4.07695e-13
-3.896e-13
-3.79474e-13
-3.70789e-13
-3.5179e-13
-3.4799e-13
-3.45907e-13
-3.39679e-13
-3.26704e-13
-3.03202e-13
-2.88836e-13
-2.76614e-13
-2.64474e-13
-2.55912e-13
-2.41683e-13
-2.23525e-13
-2.2205e-13
-2.12043e-13
-2.00736e-13
-1.81977e-13
-1.60615e-13
-1.49611e-13
-1.31358e-13
-1.21182e-13
-1.07014e-13
-8.8257e-14
-7.63601e-14
-6.76381e-14
-6.48595e-14
-4.96266e-14
-2.72408e-14
-9.92974e-15
-6.96001e-13
-6.97061e-13
-7.05806e-13
-6.96733e-13
-6.9564e-13
-6.98854e-13
-6.98466e-13
-7.00769e-13
-7.05607e-13
-7.09164e-13
-7.03011e-13
-6.94712e-13
-6.93718e-13
-6.94245e-13
-7.01088e-13
-6.97841e-13
-6.8743e-13
-6.79206e-13
-6.95919e-13
-7.0272e-13
-7.03504e-13
-7.09931e-13
-7.06755e-13
-7.09871e-13
-7.11305e-13
-7.04921e-13
-6.98444e-13
-6.97499e-13
-6.98334e-13
-6.87288e-13
-6.84292e-13
-6.76698e-13
-6.78286e-13
-6.76981e-13
-6.78558e-13
-6.7688e-13
-6.72877e-13
-6.72189e-13
-6.71668e-13
-6.67175e-13
-6.70979e-13
-6.57695e-13
-6.4493e-13
-6.36059e-13
-6.38051e-13
-6.27368e-13
-6.18159e-13
-6.06903e-13
-6.0852e-13
-6.0346e-13
-5.81704e-13
-5.74602e-13
-5.68108e-13
-5.61954e-13
-5.49934e-13
-5.3559e-13
-5.29409e-13
-5.22694e-13
-5.16497e-13
-5.07456e-13
-4.96332e-13
-4.87912e-13
-4.69725e-13
-4.60155e-13
-4.48729e-13
-4.48242e-13
-4.48068e-13
-4.30066e-13
-4.10881e-13
-3.91137e-13
-3.81819e-13
-3.70961e-13
-3.51067e-13
-3.50678e-13
-3.44472e-13
-3.30173e-13
-3.1946e-13
-3.07692e-13
-2.90841e-13
-2.73947e-13
-2.64584e-13
-2.52449e-13
-2.38569e-13
-2.28107e-13
-2.20625e-13
-2.1055e-13
-1.97669e-13
-1.82302e-13
-1.58836e-13
-1.48423e-13
-1.37526e-13
-1.22433e-13
-1.03176e-13
-8.76052e-14
-8.00089e-14
-6.99679e-14
-5.90171e-14
-4.71141e-14
-2.9559e-14
-1.02127e-14
-7.02782e-13
-6.95894e-13
-7.01852e-13
-7.06998e-13
-7.06995e-13
-7.0638e-13
-7.01074e-13
-6.95196e-13
-6.99275e-13
-7.12021e-13
-7.11801e-13
-7.00441e-13
-6.88526e-13
-6.9718e-13
-6.95895e-13
-6.94769e-13
-6.90336e-13
-6.88769e-13
-7.03654e-13
-7.0404e-13
-6.99331e-13
-7.01236e-13
-6.98776e-13
-7.05435e-13
-7.1381e-13
-7.12866e-13
-7.04906e-13
-6.97528e-13
-6.92333e-13
-6.85603e-13
-6.8191e-13
-6.7574e-13
-6.85248e-13
-6.87146e-13
-6.85067e-13
-6.8501e-13
-6.69956e-13
-6.6681e-13
-6.65624e-13
-6.61444e-13
-6.67135e-13
-6.64242e-13
-6.52895e-13
-6.39641e-13
-6.30313e-13
-6.25306e-13
-6.20891e-13
-6.14715e-13
-6.07987e-13
-5.93996e-13
-5.79356e-13
-5.74414e-13
-5.70577e-13
-5.59513e-13
-5.49963e-13
-5.33938e-13
-5.28585e-13
-5.19842e-13
-5.10083e-13
-5.04276e-13
-4.94831e-13
-4.89398e-13
-4.77149e-13
-4.65276e-13
-4.52886e-13
-4.44772e-13
-4.39386e-13
-4.26559e-13
-4.11224e-13
-3.96267e-13
-3.77996e-13
-3.61444e-13
-3.52183e-13
-3.49005e-13
-3.3694e-13
-3.29351e-13
-3.20149e-13
-3.06072e-13
-2.87828e-13
-2.74794e-13
-2.61716e-13
-2.51607e-13
-2.44177e-13
-2.31267e-13
-2.22821e-13
-2.06665e-13
-1.94024e-13
-1.81902e-13
-1.60606e-13
-1.48488e-13
-1.32872e-13
-1.16317e-13
-1.03712e-13
-9.1605e-14
-8.12128e-14
-7.27826e-14
-5.89229e-14
-4.77482e-14
-3.1561e-14
-1.10294e-14
-7.05562e-13
-7.05252e-13
-7.0433e-13
-7.08334e-13
-7.09518e-13
-7.0714e-13
-7.02632e-13
-7.06733e-13
-7.06596e-13
-7.07487e-13
-7.07995e-13
-6.99477e-13
-6.89742e-13
-6.93997e-13
-6.94273e-13
-6.93029e-13
-6.90785e-13
-6.9542e-13
-6.97931e-13
-7.02419e-13
-7.02233e-13
-7.08301e-13
-7.14288e-13
-7.16398e-13
-7.12913e-13
-7.0519e-13
-6.98567e-13
-6.96652e-13
-6.96384e-13
-6.8713e-13
-6.80071e-13
-6.73939e-13
-6.80226e-13
-6.87977e-13
-6.90226e-13
-6.7903e-13
-6.67749e-13
-6.67413e-13
-6.65068e-13
-6.62692e-13
-6.64154e-13
-6.67001e-13
-6.60277e-13
-6.52497e-13
-6.30635e-13
-6.21688e-13
-6.18752e-13
-6.14956e-13
-6.05822e-13
-5.91024e-13
-5.75402e-13
-5.77011e-13
-5.70715e-13
-5.62718e-13
-5.50917e-13
-5.36046e-13
-5.32945e-13
-5.21122e-13
-5.06529e-13
-5.0568e-13
-4.92289e-13
-4.87106e-13
-4.71965e-13
-4.67054e-13
-4.59752e-13
-4.46213e-13
-4.36063e-13
-4.2404e-13
-4.05555e-13
-3.9795e-13
-3.75802e-13
-3.63768e-13
-3.56833e-13
-3.45061e-13
-3.32096e-13
-3.36746e-13
-3.1919e-13
-3.07192e-13
-2.85011e-13
-2.65341e-13
-2.51345e-13
-2.4368e-13
-2.4533e-13
-2.38333e-13
-2.22623e-13
-2.07319e-13
-1.93268e-13
-1.83168e-13
-1.61465e-13
-1.45573e-13
-1.32936e-13
-1.17635e-13
-1.04754e-13
-9.02256e-14
-8.13544e-14
-7.36784e-14
-6.70354e-14
-4.78758e-14
-3.09759e-14
-8.74969e-15
-7.12383e-13
-7.0204e-13
-7.07021e-13
-7.17172e-13
-7.07811e-13
-6.97587e-13
-6.96116e-13
-7.05042e-13
-7.14798e-13
-7.13448e-13
-7.07675e-13
-6.98204e-13
-6.90386e-13
-6.9613e-13
-6.92005e-13
-6.91404e-13
-6.93601e-13
-7.02279e-13
-7.05815e-13
-7.04485e-13
-7.11736e-13
-7.11436e-13
-7.06345e-13
-7.14999e-13
-7.10299e-13
-7.04483e-13
-6.94184e-13
-6.95976e-13
-6.97249e-13
-6.88175e-13
-6.82405e-13
-6.73334e-13
-6.79991e-13
-6.85881e-13
-6.93851e-13
-6.86069e-13
-6.76598e-13
-6.6703e-13
-6.68947e-13
-6.62782e-13
-6.63121e-13
-6.61097e-13
-6.52333e-13
-6.50385e-13
-6.37847e-13
-6.29483e-13
-6.12115e-13
-6.13305e-13
-6.10158e-13
-5.93222e-13
-5.76752e-13
-5.72587e-13
-5.61548e-13
-5.60989e-13
-5.48016e-13
-5.37997e-13
-5.30286e-13
-5.20057e-13
-5.0992e-13
-5.08825e-13
-4.95513e-13
-4.88939e-13
-4.77808e-13
-4.65415e-13
-4.50774e-13
-4.44167e-13
-4.41213e-13
-4.25096e-13
-4.04501e-13
-3.88986e-13
-3.74538e-13
-3.66069e-13
-3.50654e-13
-3.43214e-13
-3.36118e-13
-3.33457e-13
-3.14791e-13
-3.01185e-13
-2.88085e-13
-2.68887e-13
-2.53906e-13
-2.43338e-13
-2.43081e-13
-2.37305e-13
-2.15679e-13
-2.07013e-13
-1.91354e-13
-1.80281e-13
-1.62732e-13
-1.51345e-13
-1.33186e-13
-1.19109e-13
-1.07019e-13
-9.15248e-14
-8.52144e-14
-7.1064e-14
-6.78116e-14
-4.85207e-14
-2.9444e-14
-1.15959e-14
-7.09338e-13
-7.07402e-13
-7.14332e-13
-7.17035e-13
-7.08296e-13
-7.13552e-13
-7.10172e-13
-7.05321e-13
-7.02432e-13
-7.00602e-13
-7.01899e-13
-7.0122e-13
-6.99172e-13
-6.99158e-13
-6.9106e-13
-6.92709e-13
-6.87689e-13
-6.89412e-13
-7.02838e-13
-7.09309e-13
-7.16831e-13
-7.1319e-13
-7.06608e-13
-7.11039e-13
-7.11031e-13
-7.04381e-13
-7.00139e-13
-6.95499e-13
-6.98645e-13
-6.9106e-13
-6.85501e-13
-6.76444e-13
-6.84476e-13
-6.89427e-13
-6.89847e-13
-6.84308e-13
-6.70039e-13
-6.62458e-13
-6.6719e-13
-6.64859e-13
-6.71126e-13
-6.64479e-13
-6.55528e-13
-6.38749e-13
-6.32138e-13
-6.30425e-13
-6.25477e-13
-6.16393e-13
-6.01501e-13
-5.91617e-13
-5.78069e-13
-5.70545e-13
-5.63639e-13
-5.63323e-13
-5.52845e-13
-5.4066e-13
-5.32033e-13
-5.15368e-13
-5.10849e-13
-5.02338e-13
-4.97114e-13
-4.8334e-13
-4.74873e-13
-4.61319e-13
-4.56557e-13
-4.47731e-13
-4.41498e-13
-4.2036e-13
-4.04699e-13
-3.89018e-13
-3.75212e-13
-3.65102e-13
-3.51433e-13
-3.41173e-13
-3.33911e-13
-3.29751e-13
-3.18717e-13
-3.0425e-13
-2.86153e-13
-2.59417e-13
-2.49107e-13
-2.43473e-13
-2.42324e-13
-2.34634e-13
-2.14408e-13
-2.05759e-13
-1.92713e-13
-1.79948e-13
-1.65382e-13
-1.51412e-13
-1.34752e-13
-1.19979e-13
-1.09106e-13
-9.15406e-14
-8.645e-14
-7.1694e-14
-6.56853e-14
-4.96407e-14
-2.96998e-14
-9.54689e-15
-7.11216e-13
-7.11658e-13
-7.14636e-13
-7.18665e-13
-7.05751e-13
-7.01319e-13
-7.06882e-13
-7.0959e-13
-7.08729e-13
-7.06954e-13
-7.01767e-13
-6.95227e-13
-6.95441e-13
-6.96739e-13
-6.93841e-13
-6.9245e-13
-6.93258e-13
-6.99747e-13
-7.09548e-13
-7.07481e-13
-7.11638e-13
-7.14378e-13
-7.12096e-13
-7.07094e-13
-7.02812e-13
-7.02165e-13
-7.01056e-13
-6.98714e-13
-6.95811e-13
-6.91321e-13
-6.79178e-13
-6.7875e-13
-6.80727e-13
-6.90386e-13
-6.98537e-13
-6.83825e-13
-6.79788e-13
-6.72355e-13
-6.62724e-13
-6.61488e-13
-6.6835e-13
-6.64232e-13
-6.59397e-13
-6.49281e-13
-6.37795e-13
-6.2616e-13
-6.20819e-13
-6.12559e-13
-5.97773e-13
-5.89494e-13
-5.76258e-13
-5.72052e-13
-5.64422e-13
-5.6552e-13
-5.47851e-13
-5.3805e-13
-5.36493e-13
-5.20599e-13
-5.10902e-13
-5.0226e-13
-4.93739e-13
-4.8511e-13
-4.76085e-13
-4.63283e-13
-4.51322e-13
-4.42306e-13
-4.38936e-13
-4.17495e-13
-4.05368e-13
-3.94764e-13
-3.77338e-13
-3.60493e-13
-3.45089e-13
-3.41281e-13
-3.30495e-13
-3.29664e-13
-3.11746e-13
-3.03171e-13
-2.81604e-13
-2.67034e-13
-2.56758e-13
-2.41299e-13
-2.36772e-13
-2.27427e-13
-2.13215e-13
-2.07298e-13
-1.95877e-13
-1.77784e-13
-1.59826e-13
-1.44783e-13
-1.37078e-13
-1.22448e-13
-1.10524e-13
-9.67348e-14
-8.82878e-14
-7.11541e-14
-5.99664e-14
-4.59943e-14
-3.40368e-14
-1.07427e-14
-7.16726e-13
-7.15275e-13
-7.16428e-13
-7.14116e-13
-7.09179e-13
-7.10129e-13
-7.11539e-13
-7.08018e-13
-7.06072e-13
-7.04822e-13
-7.00161e-13
-6.98047e-13
-7.00136e-13
-6.94159e-13
-6.97064e-13
-6.97351e-13
-6.95247e-13
-7.01988e-13
-7.03384e-13
-7.05518e-13
-7.09506e-13
-7.14051e-13
-7.10909e-13
-7.06236e-13
-7.05141e-13
-7.03204e-13
-6.99353e-13
-6.97545e-13
-6.95079e-13
-6.95196e-13
-6.85927e-13
-6.81102e-13
-6.83761e-13
-6.9198e-13
-6.95869e-13
-6.79076e-13
-6.72171e-13
-6.68034e-13
-6.64387e-13
-6.67607e-13
-6.69992e-13
-6.67892e-13
-6.60462e-13
-6.51359e-13
-6.42647e-13
-6.23185e-13
-6.13886e-13
-6.13533e-13
-6.01833e-13
-5.9016e-13
-5.79956e-13
-5.68803e-13
-5.61351e-13
-5.67326e-13
-5.50484e-13
-5.38043e-13
-5.30806e-13
-5.1159e-13
-5.10328e-13
-5.04479e-13
-4.92687e-13
-4.86181e-13
-4.72901e-13
-4.61828e-13
-4.49875e-13
-4.42541e-13
-4.38422e-13
-4.20753e-13
-4.03239e-13
-3.90607e-13
-3.77494e-13
-3.58228e-13
-3.47166e-13
-3.39184e-13
-3.30263e-13
-3.25747e-13
-3.10141e-13
-3.00282e-13
-2.86941e-13
-2.69965e-13
-2.51647e-13
-2.43167e-13
-2.33594e-13
-2.2192e-13
-2.08556e-13
-2.01484e-13
-1.96312e-13
-1.78498e-13
-1.58306e-13
-1.46792e-13
-1.33139e-13
-1.244e-13
-1.15723e-13
-9.28007e-14
-8.62785e-14
-7.20297e-14
-6.1646e-14
-3.99134e-14
-3.54368e-14
-1.09009e-14
-7.11409e-13
-7.15806e-13
-7.17899e-13
-7.19631e-13
-7.16326e-13
-7.12844e-13
-7.1343e-13
-7.08497e-13
-7.06642e-13
-7.04206e-13
-7.04829e-13
-7.00745e-13
-7.0348e-13
-6.88525e-13
-6.94784e-13
-6.98469e-13
-7.02269e-13
-7.07369e-13
-7.04154e-13
-7.06011e-13
-7.08463e-13
-7.1415e-13
-7.06864e-13
-7.06149e-13
-7.02259e-13
-7.04866e-13
-6.95991e-13
-6.97135e-13
-6.97928e-13
-6.91611e-13
-6.88531e-13
-6.83999e-13
-6.94421e-13
-6.95444e-13
-6.92455e-13
-6.83364e-13
-6.74055e-13
-6.71991e-13
-6.70288e-13
-6.70787e-13
-6.6803e-13
-6.60446e-13
-6.55736e-13
-6.53061e-13
-6.38936e-13
-6.2869e-13
-6.1832e-13
-6.11406e-13
-5.96964e-13
-5.89856e-13
-5.78729e-13
-5.71006e-13
-5.64344e-13
-5.62436e-13
-5.54477e-13
-5.45762e-13
-5.32832e-13
-5.13072e-13
-5.05439e-13
-4.95865e-13
-4.92595e-13
-4.81067e-13
-4.70087e-13
-4.6388e-13
-4.53441e-13
-4.43952e-13
-4.36449e-13
-4.19128e-13
-4.06426e-13
-3.89616e-13
-3.69531e-13
-3.59397e-13
-3.44396e-13
-3.41518e-13
-3.27492e-13
-3.24034e-13
-3.10866e-13
-2.98005e-13
-2.78098e-13
-2.65671e-13
-2.5725e-13
-2.44168e-13
-2.29642e-13
-2.19067e-13
-2.04816e-13
-2.01678e-13
-1.95469e-13
-1.80908e-13
-1.58493e-13
-1.46708e-13
-1.37127e-13
-1.24744e-13
-1.11158e-13
-9.2942e-14
-8.77102e-14
-7.25247e-14
-6.03896e-14
-4.44355e-14
-2.85734e-14
-5.64861e-15
-7.11447e-13
-7.19755e-13
-7.23548e-13
-7.20052e-13
-7.20981e-13
-7.16692e-13
-7.15818e-13
-7.08993e-13
-7.03696e-13
-7.09108e-13
-7.0802e-13
-7.01136e-13
-6.972e-13
-6.90982e-13
-6.96352e-13
-6.97129e-13
-6.96675e-13
-7.0833e-13
-7.07596e-13
-7.0988e-13
-7.07019e-13
-7.11501e-13
-7.04626e-13
-7.08585e-13
-7.04241e-13
-7.02613e-13
-6.99501e-13
-6.96705e-13
-6.95856e-13
-6.9319e-13
-6.89361e-13
-6.84008e-13
-6.93505e-13
-7.02194e-13
-6.98389e-13
-6.81903e-13
-6.73226e-13
-6.71342e-13
-6.71274e-13
-6.75409e-13
-6.69633e-13
-6.60309e-13
-6.53393e-13
-6.51403e-13
-6.40915e-13
-6.31024e-13
-6.19934e-13
-6.13473e-13
-5.9812e-13
-5.90685e-13
-5.82095e-13
-5.72488e-13
-5.64714e-13
-5.61008e-13
-5.53258e-13
-5.4129e-13
-5.26779e-13
-5.1535e-13
-5.06828e-13
-4.92224e-13
-4.89671e-13
-4.79045e-13
-4.75299e-13
-4.65871e-13
-4.52435e-13
-4.44112e-13
-4.30205e-13
-4.2127e-13
-4.0489e-13
-3.86392e-13
-3.68568e-13
-3.62469e-13
-3.48998e-13
-3.42553e-13
-3.32311e-13
-3.21414e-13
-3.07613e-13
-2.92005e-13
-2.75066e-13
-2.68444e-13
-2.56103e-13
-2.44678e-13
-2.29394e-13
-2.15151e-13
-2.04602e-13
-1.99339e-13
-1.88403e-13
-1.7801e-13
-1.59973e-13
-1.4224e-13
-1.33669e-13
-1.26463e-13
-1.16646e-13
-9.45815e-14
-8.89069e-14
-7.30253e-14
-5.9183e-14
-3.89983e-14
-1.81629e-14
-9.52806e-15
-7.18584e-13
-7.20254e-13
-7.24378e-13
-7.22319e-13
-7.23276e-13
-7.18909e-13
-7.18427e-13
-7.18646e-13
-7.09628e-13
-7.03098e-13
-7.04419e-13
-6.99922e-13
-7.04209e-13
-6.9671e-13
-6.99442e-13
-7.04114e-13
-7.07862e-13
-7.06146e-13
-7.04524e-13
-7.05934e-13
-7.08892e-13
-7.15465e-13
-7.09196e-13
-7.0339e-13
-6.94565e-13
-6.97032e-13
-7.0143e-13
-7.07678e-13
-7.0083e-13
-6.92496e-13
-6.92801e-13
-6.85574e-13
-6.88533e-13
-6.91423e-13
-6.96088e-13
-6.9139e-13
-6.83575e-13
-6.77974e-13
-6.71184e-13
-6.7111e-13
-6.66934e-13
-6.63003e-13
-6.49872e-13
-6.47943e-13
-6.42343e-13
-6.31541e-13
-6.19931e-13
-6.06381e-13
-5.98298e-13
-5.95244e-13
-5.84053e-13
-5.73286e-13
-5.65854e-13
-5.62574e-13
-5.52617e-13
-5.41674e-13
-5.30005e-13
-5.12806e-13
-5.04698e-13
-4.86845e-13
-4.83335e-13
-4.81989e-13
-4.75098e-13
-4.63464e-13
-4.47721e-13
-4.44363e-13
-4.29134e-13
-4.15864e-13
-4.06073e-13
-3.9451e-13
-3.74356e-13
-3.54601e-13
-3.44722e-13
-3.38783e-13
-3.35699e-13
-3.27903e-13
-3.10534e-13
-2.92904e-13
-2.74025e-13
-2.63678e-13
-2.49244e-13
-2.39205e-13
-2.31672e-13
-2.16258e-13
-2.08532e-13
-1.99413e-13
-1.83235e-13
-1.70992e-13
-1.55045e-13
-1.45821e-13
-1.34861e-13
-1.27599e-13
-1.17492e-13
-9.77756e-14
-8.16628e-14
-6.97852e-14
-5.64709e-14
-4.59759e-14
-2.77678e-14
-1.12811e-14
-7.24815e-13
-7.21449e-13
-7.23078e-13
-7.20143e-13
-7.26367e-13
-7.22028e-13
-7.19266e-13
-7.17354e-13
-7.12481e-13
-7.07616e-13
-7.06029e-13
-7.01619e-13
-7.0329e-13
-7.01748e-13
-7.01187e-13
-7.03468e-13
-7.01398e-13
-6.97584e-13
-7.03022e-13
-7.12218e-13
-7.17216e-13
-7.20843e-13
-7.08633e-13
-7.00629e-13
-7.03864e-13
-7.00853e-13
-6.99788e-13
-6.96725e-13
-6.9691e-13
-6.88973e-13
-6.88846e-13
-6.91596e-13
-6.94691e-13
-6.95852e-13
-6.93336e-13
-6.89512e-13
-6.85241e-13
-6.81388e-13
-6.73424e-13
-6.73223e-13
-6.68996e-13
-6.5916e-13
-6.53219e-13
-6.48166e-13
-6.34552e-13
-6.29681e-13
-6.23619e-13
-6.18586e-13
-5.98496e-13
-5.93691e-13
-5.84485e-13
-5.72112e-13
-5.61159e-13
-5.58226e-13
-5.50226e-13
-5.42979e-13
-5.36538e-13
-5.19502e-13
-4.95433e-13