/*--------------------------------*- C++ -*----------------------------------*\
| =========                 |                                                 |
| \\      /  F ield         | OpenFOAM: The Open Source CFD Toolbox           |
|  \\    /   O peration     | Version:  v2012                                 |
|   \\  /    A nd           | Website:  www.openfoam.com                      |
|    \\/     M anipulation  |                                                 |
\*---------------------------------------------------------------------------*/
FoamFile
{
    version     2.0;
    format      ascii;
    class       volScalarField;
    location    "7";
    object      p;
}
// * * * * * * * * * * * * * * * * * * * * * * * * * * * * * * * * * * * * * //

dimensions      [0 2 -2 0 0 0 0];


internalField   nonuniform List<scalar> 
65536
(
1.09068e-09
-2.49261e-06
-7.48344e-06
-1.49667e-05
-2.49439e-05
-3.74165e-05
-5.23864e-05
-6.98557e-05
-8.9827e-05
-0.000112303
-0.000137285
-0.000164777
-0.000194781
-0.0002273
-0.000262338
-0.000299898
-0.000339983
-0.000382596
-0.000427739
-0.000475417
-0.000525631
-0.000578384
-0.000633678
-0.000691514
-0.000751893
-0.000814817
-0.000880285
-0.000948296
-0.00101885
-0.00109194
-0.00116757
-0.00124573
-0.00132642
-0.00140962
-0.00149534
-0.00158356
-0.00167428
-0.00176747
-0.00186313
-0.00196124
-0.00206178
-0.00216474
-0.00227009
-0.0023778
-0.00248786
-0.00260024
-0.0027149
-0.00283181
-0.00295094
-0.00307225
-0.0031957
-0.00332124
-0.00344884
-0.00357843
-0.00370998
-0.00384342
-0.0039787
-0.00411576
-0.00425454
-0.00439496
-0.00453696
-0.00468047
-0.0048254
-0.00497169
-0.00511926
-0.00526801
-0.00541786
-0.00556871
-0.00572049
-0.00587309
-0.00602641
-0.00618036
-0.00633483
-0.00648971
-0.00664491
-0.0068003
-0.00695578
-0.00711124
-0.00726656
-0.00742162
-0.00757632
-0.00773053
-0.00788414
-0.00803702
-0.00818906
-0.00834013
-0.00849012
-0.00863892
-0.00878639
-0.00893243
-0.00907691
-0.00921973
-0.00936076
-0.00949989
-0.00963702
-0.00977204
-0.00990484
-0.0100353
-0.0101634
-0.0102889
-0.0104118
-0.010532
-0.0106494
-0.0107639
-0.0108755
-0.010984
-0.0110894
-0.0111916
-0.0112906
-0.0113862
-0.0114785
-0.0115674
-0.0116529
-0.0117348
-0.0118132
-0.011888
-0.0119592
-0.0120267
-0.0120907
-0.0121509
-0.0122075
-0.0122604
-0.0123097
-0.0123552
-0.0123971
-0.0124353
-0.0124699
-0.0125009
-0.0125282
-0.012552
-0.0125722
-0.012589
-0.0126022
-0.0126121
-0.0126185
-0.0126216
-0.0126214
-0.012618
-0.0126114
-0.0126016
-0.0125888
-0.012573
-0.0125542
-0.0125326
-0.0125081
-0.0124809
-0.012451
-0.0124185
-0.0123835
-0.012346
-0.0123062
-0.012264
-0.0122196
-0.012173
-0.0121243
-0.0120736
-0.012021
-0.0119665
-0.0119102
-0.0118522
-0.0117926
-0.0117314
-0.0116687
-0.0116046
-0.0115392
-0.0114725
-0.0114047
-0.0113357
-0.0112656
-0.0111946
-0.0111227
-0.0110499
-0.0109764
-0.0109021
-0.0108272
-0.0107518
-0.0106758
-0.0105994
-0.0105225
-0.0104454
-0.010368
-0.0102904
-0.0102126
-0.0101348
-0.0100569
-0.00997899
-0.00990118
-0.00982348
-0.00974595
-0.00966863
-0.00959158
-0.00951485
-0.00943847
-0.0093625
-0.00928697
-0.00921194
-0.00913743
-0.0090635
-0.00899017
-0.0089175
-0.00884551
-0.00877424
-0.00870373
-0.00863401
-0.00856511
-0.00849707
-0.00842992
-0.00836368
-0.00829839
-0.00823408
-0.00817077
-0.00810849
-0.00804726
-0.00798711
-0.00792806
-0.00787014
-0.00781337
-0.00775777
-0.00770337
-0.00765017
-0.0075982
-0.00754748
-0.00749803
-0.00744986
-0.00740299
-0.00735744
-0.00731322
-0.00727035
-0.00722883
-0.00718869
-0.00714993
-0.00711257
-0.00707662
-0.00704209
-0.00700899
-0.00697733
-0.00694712
-0.00691837
-0.00689108
-0.00686527
-0.00684094
-0.00681809
-0.00679675
-0.0067769
-0.00675856
-0.00674173
-0.00672642
-0.00671262
-0.00670035
-0.00668961
-0.00668039
-0.00667271
-0.00666656
-0.00666195
-0.00665887
-0.00665733
-2.08371e-06
-4.57569e-06
-9.5645e-06
-1.70454e-05
-2.70201e-05
-3.94904e-05
-5.44574e-05
-7.19234e-05
-9.18906e-05
-0.000114362
-0.000139339
-0.000166826
-0.000196824
-0.000229337
-0.000264369
-0.000301922
-0.000342
-0.000384605
-0.000429741
-0.00047741
-0.000527616
-0.000580361
-0.000635646
-0.000693473
-0.000753843
-0.000816758
-0.000882216
-0.000950218
-0.00102076
-0.00109384
-0.00116946
-0.00124762
-0.00132829
-0.00141149
-0.0014972
-0.00158542
-0.00167612
-0.00176931
-0.00186496
-0.00196306
-0.0020636
-0.00216655
-0.00227189
-0.00237961
-0.00248966
-0.00260203
-0.00271669
-0.0028336
-0.00295273
-0.00307404
-0.00319749
-0.00332304
-0.00345064
-0.00358024
-0.00371179
-0.00384524
-0.00398053
-0.0041176
-0.00425638
-0.00439682
-0.00453883
-0.00468235
-0.00482731
-0.00497361
-0.00512119
-0.00526996
-0.00541983
-0.00557071
-0.00572251
-0.00587514
-0.00602849
-0.00618246
-0.00633696
-0.00649187
-0.00664709
-0.00680252
-0.00695803
-0.00711352
-0.00726888
-0.00742398
-0.00757871
-0.00773296
-0.00788661
-0.00803952
-0.0081916
-0.00834272
-0.00849275
-0.00864158
-0.0087891
-0.00893517
-0.0090797
-0.00922255
-0.00936363
-0.0095028
-0.00963997
-0.00977503
-0.00990787
-0.0100384
-0.0101665
-0.010292
-0.010415
-0.0105352
-0.0106526
-0.0107672
-0.0108788
-0.0109873
-0.0110928
-0.011195
-0.011294
-0.0113897
-0.011482
-0.011571
-0.0116564
-0.0117384
-0.0118168
-0.0118916
-0.0119628
-0.0120304
-0.0120943
-0.0121546
-0.0122112
-0.0122641
-0.0123134
-0.0123589
-0.0124008
-0.012439
-0.0124736
-0.0125046
-0.0125319
-0.0125557
-0.012576
-0.0125927
-0.0126059
-0.0126158
-0.0126222
-0.0126253
-0.0126251
-0.0126216
-0.012615
-0.0126052
-0.0125924
-0.0125766
-0.0125578
-0.0125361
-0.0125116
-0.0124844
-0.0124545
-0.012422
-0.012387
-0.0123495
-0.0123096
-0.0122674
-0.0122229
-0.0121763
-0.0121276
-0.0120769
-0.0120242
-0.0119697
-0.0119134
-0.0118554
-0.0117957
-0.0117345
-0.0116718
-0.0116077
-0.0115422
-0.0114755
-0.0114076
-0.0113386
-0.0112685
-0.0111975
-0.0111255
-0.0110527
-0.0109791
-0.0109048
-0.0108299
-0.0107544
-0.0106784
-0.010602
-0.0105251
-0.010448
-0.0103705
-0.0102929
-0.0102151
-0.0101372
-0.0100593
-0.0099814
-0.00990355
-0.00982583
-0.00974827
-0.00967093
-0.00959386
-0.0095171
-0.0094407
-0.0093647
-0.00928915
-0.00921409
-0.00913956
-0.0090656
-0.00899225
-0.00891955
-0.00884754
-0.00877625
-0.00870572
-0.00863598
-0.00856706
-0.008499
-0.00843183
-0.00836557
-0.00830027
-0.00823593
-0.0081726
-0.0081103
-0.00804906
-0.00798889
-0.00792983
-0.0078719
-0.00781511
-0.0077595
-0.00770507
-0.00765186
-0.00759988
-0.00754915
-0.00749968
-0.0074515
-0.00740462
-0.00735906
-0.00731483
-0.00727194
-0.00723041
-0.00719026
-0.00715149
-0.00711412
-0.00707817
-0.00704363
-0.00701052
-0.00697885
-0.00694863
-0.00691987
-0.00689258
-0.00686676
-0.00684242
-0.00681957
-0.00679822
-0.00677837
-0.00676002
-0.00674319
-0.00672787
-0.00671407
-0.0067018
-0.00669105
-0.00668184
-0.00667415
-0.006668
-0.00666339
-0.00666031
-0.00665878
-6.25569e-06
-8.74589e-06
-1.37318e-05
-2.12088e-05
-3.1179e-05
-4.3644e-05
-5.86052e-05
-7.60644e-05
-9.60237e-05
-0.000118486
-0.000143453
-0.000170929
-0.000200916
-0.000233418
-0.000268436
-0.000305976
-0.000346039
-0.000388629
-0.000433749
-0.000481403
-0.000531592
-0.000584319
-0.000639587
-0.000697396
-0.000757749
-0.000820645
-0.000886085
-0.000954069
-0.00102459
-0.00109766
-0.00117326
-0.00125139
-0.00133205
-0.00141523
-0.00150093
-0.00158913
-0.00167982
-0.00177299
-0.00186863
-0.00196672
-0.00206724
-0.00217018
-0.00227551
-0.00238322
-0.00249327
-0.00260563
-0.00272029
-0.0028372
-0.00295633
-0.00307764
-0.00320109
-0.00332664
-0.00345425
-0.00358386
-0.00371542
-0.00384889
-0.00398419
-0.00412128
-0.00426008
-0.00440054
-0.00454258
-0.00468613
-0.00483111
-0.00497746
-0.00512507
-0.00527388
-0.00542379
-0.00557472
-0.00572656
-0.00587924
-0.00603264
-0.00618667
-0.00634122
-0.00649619
-0.00665148
-0.00680696
-0.00696254
-0.0071181
-0.00727353
-0.0074287
-0.00758351
-0.00773783
-0.00789155
-0.00804455
-0.0081967
-0.00834789
-0.00849801
-0.00864692
-0.00879452
-0.00894068
-0.00908528
-0.00922822
-0.00936937
-0.00950863
-0.00964589
-0.00978102
-0.00991394
-0.0100445
-0.0101727
-0.0102983
-0.0104214
-0.0105417
-0.0106592
-0.0107738
-0.0108854
-0.0109941
-0.0110996
-0.0112019
-0.0113009
-0.0113967
-0.0114891
-0.011578
-0.0116635
-0.0117455
-0.0118239
-0.0118988
-0.0119701
-0.0120377
-0.0121016
-0.012162
-0.0122186
-0.0122715
-0.0123208
-0.0123663
-0.0124082
-0.0124465
-0.0124811
-0.012512
-0.0125394
-0.0125632
-0.0125834
-0.0126001
-0.0126133
-0.0126232
-0.0126296
-0.0126326
-0.0126324
-0.0126289
-0.0126223
-0.0126125
-0.0125996
-0.0125838
-0.0125649
-0.0125432
-0.0125187
-0.0124914
-0.0124615
-0.0124289
-0.0123939
-0.0123563
-0.0123164
-0.0122741
-0.0122296
-0.0121829
-0.0121342
-0.0120834
-0.0120307
-0.0119761
-0.0119198
-0.0118617
-0.011802
-0.0117407
-0.0116779
-0.0116138
-0.0115483
-0.0114815
-0.0114135
-0.0113444
-0.0112743
-0.0112032
-0.0111312
-0.0110583
-0.0109847
-0.0109103
-0.0108354
-0.0107598
-0.0106838
-0.0106072
-0.0105304
-0.0104531
-0.0103756
-0.0102979
-0.0102201
-0.0101422
-0.0100642
-0.00998621
-0.00990831
-0.00983054
-0.00975292
-0.00967553
-0.00959841
-0.0095216
-0.00944515
-0.0093691
-0.0092935
-0.00921839
-0.00914381
-0.00906981
-0.00899642
-0.00892367
-0.00885162
-0.00878028
-0.00870971
-0.00863993
-0.00857097
-0.00850287
-0.00843565
-0.00836936
-0.00830402
-0.00823965
-0.00817628
-0.00811394
-0.00805266
-0.00799247
-0.00793337
-0.0078754
-0.00781859
-0.00776294
-0.00770849
-0.00765525
-0.00760324
-0.00755248
-0.00750299
-0.00745478
-0.00740788
-0.00736229
-0.00731804
-0.00727513
-0.00723358
-0.00719341
-0.00715462
-0.00711723
-0.00708125
-0.0070467
-0.00701357
-0.00698189
-0.00695166
-0.00692288
-0.00689557
-0.00686974
-0.0068454
-0.00682254
-0.00680117
-0.00678131
-0.00676296
-0.00674612
-0.00673079
-0.00671699
-0.00670471
-0.00669396
-0.00668473
-0.00667705
-0.00667089
-0.00666628
-0.0066632
-0.00666166
-1.25113e-05
-1.49996e-05
-1.99821e-05
-2.74544e-05
-3.74181e-05
-4.98752e-05
-6.48272e-05
-8.2276e-05
-0.000102224
-0.000124673
-0.000149626
-0.000177086
-0.000207055
-0.000239538
-0.000274538
-0.000312057
-0.000352098
-0.000394666
-0.000439763
-0.000487392
-0.000537557
-0.000590258
-0.0006455
-0.000703282
-0.000763608
-0.000826477
-0.000891889
-0.000959845
-0.00103034
-0.00110338
-0.00117895
-0.00125706
-0.00133769
-0.00142085
-0.00150652
-0.00159469
-0.00168536
-0.00177851
-0.00187412
-0.0019722
-0.0020727
-0.00217563
-0.00228094
-0.00238864
-0.00249868
-0.00261103
-0.00272568
-0.00284259
-0.00296172
-0.00308303
-0.00320649
-0.00333205
-0.00345966
-0.00358929
-0.00372087
-0.00385436
-0.00398968
-0.0041268
-0.00426564
-0.00440613
-0.00454821
-0.0046918
-0.00483683
-0.00498322
-0.00513089
-0.00527976
-0.00542973
-0.00558073
-0.00573264
-0.00588539
-0.00603887
-0.00619298
-0.00634762
-0.00650268
-0.00665805
-0.00681364
-0.00696932
-0.00712498
-0.0072805
-0.00743579
-0.0075907
-0.00774514
-0.00789897
-0.00805208
-0.00820435
-0.00835567
-0.0085059
-0.00865494
-0.00880265
-0.00894894
-0.00909367
-0.00923673
-0.009378
-0.00951738
-0.00965476
-0.00979002
-0.00992305
-0.0100538
-0.010182
-0.0103078
-0.0104309
-0.0105513
-0.010669
-0.0107837
-0.0108954
-0.0110042
-0.0111097
-0.0112121
-0.0113113
-0.0114071
-0.0114996
-0.0115886
-0.0116742
-0.0117562
-0.0118347
-0.0119097
-0.011981
-0.0120486
-0.0121127
-0.012173
-0.0122297
-0.0122826
-0.0123319
-0.0123775
-0.0124194
-0.0124577
-0.0124923
-0.0125232
-0.0125506
-0.0125743
-0.0125946
-0.0126113
-0.0126245
-0.0126343
-0.0126406
-0.0126437
-0.0126434
-0.0126399
-0.0126332
-0.0126234
-0.0126105
-0.0125945
-0.0125757
-0.0125539
-0.0125293
-0.012502
-0.012472
-0.0124394
-0.0124042
-0.0123666
-0.0123266
-0.0122842
-0.0122397
-0.0121929
-0.0121441
-0.0120932
-0.0120404
-0.0119858
-0.0119293
-0.0118712
-0.0118114
-0.01175
-0.0116872
-0.0116229
-0.0115573
-0.0114904
-0.0114224
-0.0113532
-0.011283
-0.0112118
-0.0111397
-0.0110667
-0.010993
-0.0109186
-0.0108435
-0.0107679
-0.0106917
-0.0106151
-0.0105382
-0.0104609
-0.0103833
-0.0103055
-0.0102276
-0.0101495
-0.0100715
-0.00999344
-0.00991546
-0.0098376
-0.00975991
-0.00968244
-0.00960524
-0.00952835
-0.00945182
-0.0093757
-0.00930003
-0.00922485
-0.0091502
-0.00907612
-0.00900266
-0.00892985
-0.00885773
-0.00878633
-0.00871569
-0.00864584
-0.00857682
-0.00850866
-0.00844139
-0.00837504
-0.00830964
-0.00824521
-0.00818179
-0.0081194
-0.00805807
-0.00799782
-0.00793868
-0.00788066
-0.0078238
-0.00776811
-0.00771361
-0.00766033
-0.00760828
-0.00755748
-0.00750795
-0.0074597
-0.00741276
-0.00736714
-0.00732285
-0.00727991
-0.00723833
-0.00719812
-0.00715931
-0.00712189
-0.00708589
-0.00705131
-0.00701816
-0.00698645
-0.00695619
-0.0069274
-0.00690007
-0.00687422
-0.00684985
-0.00682698
-0.0068056
-0.00678572
-0.00676736
-0.0067505
-0.00673517
-0.00672135
-0.00670906
-0.0066983
-0.00668908
-0.00668138
-0.00667523
-0.00667061
-0.00666753
-0.00666599
-2.08537e-05
-2.33396e-05
-2.83179e-05
-3.5784e-05
-4.57396e-05
-5.81864e-05
-7.31263e-05
-9.05611e-05
-0.000110493
-0.000132924
-0.000157858
-0.000185297
-0.000215244
-0.000247703
-0.000282676
-0.000320168
-0.000360181
-0.000402719
-0.000447785
-0.000495382
-0.000545513
-0.00059818
-0.000653387
-0.000711134
-0.000771423
-0.000834256
-0.000899632
-0.000967551
-0.00103801
-0.00111101
-0.00118655
-0.00126462
-0.00134522
-0.00142834
-0.00151398
-0.00160212
-0.00169275
-0.00178587
-0.00188146
-0.00197951
-0.00207999
-0.00218289
-0.00228819
-0.00239587
-0.00250589
-0.00261824
-0.00273288
-0.00284978
-0.00296891
-0.00309023
-0.00321369
-0.00333926
-0.00346689
-0.00359654
-0.00372814
-0.00386165
-0.00399701
-0.00413417
-0.00427305
-0.00441359
-0.00455572
-0.00469937
-0.00484446
-0.00499092
-0.00513866
-0.00528761
-0.00543767
-0.00558875
-0.00574076
-0.0058936
-0.00604719
-0.00620141
-0.00635616
-0.00651134
-0.00666684
-0.00682255
-0.00697836
-0.00713415
-0.00728982
-0.00744524
-0.00760031
-0.00775489
-0.00790888
-0.00806214
-0.00821457
-0.00836605
-0.00851644
-0.00866564
-0.00881352
-0.00895997
-0.00910486
-0.00924808
-0.00938953
-0.00952907
-0.00966661
-0.00980203
-0.00993522
-0.0100661
-0.0101945
-0.0103204
-0.0104437
-0.0105643
-0.010682
-0.0107969
-0.0109088
-0.0110176
-0.0111233
-0.0112259
-0.0113251
-0.0114211
-0.0115136
-0.0116028
-0.0116884
-0.0117706
-0.0118492
-0.0119242
-0.0119955
-0.0120633
-0.0121273
-0.0121877
-0.0122444
-0.0122974
-0.0123468
-0.0123924
-0.0124343
-0.0124726
-0.0125072
-0.0125381
-0.0125655
-0.0125893
-0.0126095
-0.0126261
-0.0126393
-0.0126491
-0.0126554
-0.0126584
-0.0126581
-0.0126546
-0.0126478
-0.0126379
-0.0126249
-0.0126089
-0.01259
-0.0125681
-0.0125435
-0.0125161
-0.012486
-0.0124533
-0.012418
-0.0123803
-0.0123402
-0.0122978
-0.0122531
-0.0122062
-0.0121573
-0.0121063
-0.0120534
-0.0119986
-0.0119421
-0.0118838
-0.0118239
-0.0117624
-0.0116995
-0.0116351
-0.0115694
-0.0115024
-0.0114342
-0.0113649
-0.0112946
-0.0112233
-0.011151
-0.011078
-0.0110041
-0.0109296
-0.0108544
-0.0107787
-0.0107024
-0.0106257
-0.0105486
-0.0104712
-0.0103935
-0.0103156
-0.0102375
-0.0101594
-0.0100812
-0.0100031
-0.00992498
-0.00984702
-0.00976922
-0.00969165
-0.00961434
-0.00953735
-0.00946073
-0.00938451
-0.00930873
-0.00923346
-0.00915871
-0.00908455
-0.00901099
-0.00893809
-0.00886588
-0.00879439
-0.00872367
-0.00865374
-0.00858464
-0.00851639
-0.00844904
-0.00838261
-0.00831713
-0.00825264
-0.00818914
-0.00812668
-0.00806528
-0.00800496
-0.00794575
-0.00788767
-0.00783075
-0.007775
-0.00772044
-0.0076671
-0.00761499
-0.00756414
-0.00751456
-0.00746626
-0.00741927
-0.0073736
-0.00732927
-0.00728628
-0.00724466
-0.00720441
-0.00716556
-0.0071281
-0.00709206
-0.00705745
-0.00702426
-0.00699252
-0.00696224
-0.00693342
-0.00690606
-0.00688019
-0.0068558
-0.0068329
-0.0068115
-0.00679161
-0.00677322
-0.00675635
-0.006741
-0.00672717
-0.00671487
-0.0067041
-0.00669487
-0.00668717
-0.006681
-0.00667638
-0.00667329
-0.00667175
-3.12864e-05
-3.37695e-05
-3.87422e-05
-4.62007e-05
-5.61463e-05
-6.85807e-05
-8.35055e-05
-0.000100923
-0.000120835
-0.000143245
-0.000168154
-0.000195567
-0.000225486
-0.000257914
-0.000292855
-0.000330313
-0.00037029
-0.000412791
-0.000457818
-0.000505375
-0.000555464
-0.000608089
-0.000663252
-0.000720955
-0.000781199
-0.000843987
-0.000909317
-0.00097719
-0.0010476
-0.00112056
-0.00119605
-0.00127408
-0.00135463
-0.00143771
-0.0015233
-0.00161141
-0.001702
-0.00179509
-0.00189064
-0.00198865
-0.00208911
-0.00219198
-0.00229726
-0.00240491
-0.00251492
-0.00262726
-0.00274189
-0.00285878
-0.00297791
-0.00309923
-0.0032227
-0.00334829
-0.00347594
-0.0036056
-0.00373724
-0.00387079
-0.00400619
-0.00414339
-0.00428232
-0.00442292
-0.00456511
-0.00470884
-0.00485401
-0.00500055
-0.00514839
-0.00529743
-0.0054476
-0.00559879
-0.00575092
-0.00590389
-0.0060576
-0.00621195
-0.00636685
-0.00652218
-0.00667783
-0.0068337
-0.00698967
-0.00714564
-0.00730148
-0.00745709
-0.00761233
-0.00776711
-0.00792128
-0.00807474
-0.00822737
-0.00837904
-0.00852964
-0.00867904
-0.00882713
-0.00897378
-0.00911888
-0.00926231
-0.00940395
-0.0095437
-0.00968144
-0.00981707
-0.00995046
-0.0100815
-0.0102102
-0.0103363
-0.0104597
-0.0105805
-0.0106984
-0.0108134
-0.0109255
-0.0110345
-0.0111404
-0.0112431
-0.0113425
-0.0114386
-0.0115313
-0.0116205
-0.0117063
-0.0117885
-0.0118672
-0.0119423
-0.0120138
-0.0120816
-0.0121457
-0.0122062
-0.012263
-0.012316
-0.0123654
-0.012411
-0.012453
-0.0124913
-0.0125259
-0.0125568
-0.0125842
-0.0126079
-0.0126281
-0.0126448
-0.0126579
-0.0126676
-0.0126739
-0.0126769
-0.0126765
-0.0126729
-0.0126661
-0.0126561
-0.012643
-0.0126269
-0.0126079
-0.012586
-0.0125612
-0.0125337
-0.0125035
-0.0124707
-0.0124353
-0.0123975
-0.0123572
-0.0123147
-0.0122699
-0.0122229
-0.0121738
-0.0121227
-0.0120697
-0.0120148
-0.0119581
-0.0118996
-0.0118396
-0.011778
-0.0117149
-0.0116503
-0.0115845
-0.0115173
-0.011449
-0.0113796
-0.0113091
-0.0112376
-0.0111653
-0.011092
-0.0110181
-0.0109434
-0.010868
-0.0107921
-0.0107157
-0.0106389
-0.0105616
-0.010484
-0.0104062
-0.0103282
-0.01025
-0.0101717
-0.0100934
-0.0100151
-0.0099369
-0.0098588
-0.00978087
-0.00970317
-0.00962573
-0.00954861
-0.00947186
-0.00939552
-0.00931962
-0.00924422
-0.00916936
-0.00909508
-0.00902141
-0.00894839
-0.00887607
-0.00880447
-0.00873364
-0.00866361
-0.0085944
-0.00852606
-0.00845861
-0.00839208
-0.00832651
-0.00826191
-0.00819833
-0.00813578
-0.00807429
-0.00801389
-0.0079546
-0.00789644
-0.00783944
-0.00778361
-0.00772898
-0.00767556
-0.00762339
-0.00757247
-0.00752282
-0.00747446
-0.00742741
-0.00738168
-0.00733729
-0.00729424
-0.00725257
-0.00721227
-0.00717337
-0.00713587
-0.00709978
-0.00706512
-0.0070319
-0.00700012
-0.0069698
-0.00694094
-0.00691355
-0.00688764
-0.00686322
-0.0068403
-0.00681887
-0.00679895
-0.00678055
-0.00676366
-0.00674829
-0.00673444
-0.00672213
-0.00671135
-0.0067021
-0.00669439
-0.00668822
-0.00668359
-0.0066805
-0.00667896
-4.38127e-05
-4.62925e-05
-5.12589e-05
-5.87081e-05
-6.86416e-05
-8.1061e-05
-9.59681e-05
-0.000113365
-0.000133253
-0.000155637
-0.000180517
-0.000207899
-0.000237784
-0.000270176
-0.000305078
-0.000342495
-0.000382429
-0.000424885
-0.000469866
-0.000517374
-0.000567414
-0.000619989
-0.000675099
-0.000732749
-0.00079294
-0.000855673
-0.000920948
-0.000988766
-0.00105913
-0.00113203
-0.00120746
-0.00128544
-0.00136594
-0.00144897
-0.00153451
-0.00162256
-0.00171311
-0.00180615
-0.00190167
-0.00199964
-0.00210006
-0.0022029
-0.00230815
-0.00241578
-0.00252577
-0.00263809
-0.00275271
-0.0028696
-0.00298872
-0.00311005
-0.00323353
-0.00335913
-0.0034868
-0.0036165
-0.00374817
-0.00388176
-0.00401721
-0.00415447
-0.00429346
-0.00443413
-0.00457641
-0.00472022
-0.00486549
-0.00501213
-0.00516008
-0.00530924
-0.00545953
-0.00561086
-0.00576313
-0.00591625
-0.00607012
-0.00622464
-0.0063797
-0.00653521
-0.00669105
-0.00684711
-0.00700328
-0.00715945
-0.00731551
-0.00747133
-0.0076268
-0.00778179
-0.0079362
-0.00808989
-0.00824276
-0.00839467
-0.00854551
-0.00869516
-0.00884349
-0.00899039
-0.00913574
-0.00927941
-0.00942131
-0.00956131
-0.00969929
-0.00983516
-0.00996879
-0.0101001
-0.010229
-0.0103553
-0.010479
-0.0105999
-0.0107181
-0.0108334
-0.0109456
-0.0110548
-0.0111609
-0.0112637
-0.0113633
-0.0114596
-0.0115524
-0.0116418
-0.0117278
-0.0118102
-0.011889
-0.0119642
-0.0120357
-0.0121036
-0.0121679
-0.0122284
-0.0122852
-0.0123384
-0.0123878
-0.0124334
-0.0124754
-0.0125137
-0.0125484
-0.0125793
-0.0126067
-0.0126304
-0.0126505
-0.0126672
-0.0126803
-0.0126899
-0.0126962
-0.0126991
-0.0126986
-0.0126949
-0.012688
-0.0126779
-0.0126648
-0.0126486
-0.0126295
-0.0126074
-0.0125825
-0.0125549
-0.0125246
-0.0124916
-0.0124561
-0.0124181
-0.0123777
-0.012335
-0.01229
-0.0122429
-0.0121937
-0.0121424
-0.0120892
-0.0120341
-0.0119772
-0.0119187
-0.0118584
-0.0117966
-0.0117334
-0.0116687
-0.0116026
-0.0115353
-0.0114668
-0.0113972
-0.0113265
-0.0112549
-0.0111823
-0.0111089
-0.0110348
-0.0109599
-0.0108844
-0.0108083
-0.0107317
-0.0106547
-0.0105773
-0.0104995
-0.0104215
-0.0103433
-0.010265
-0.0101865
-0.010108
-0.0100296
-0.00995121
-0.00987294
-0.00979486
-0.00971699
-0.0096394
-0.00956213
-0.00948523
-0.00940873
-0.00933269
-0.00925715
-0.00918214
-0.00910772
-0.00903391
-0.00896076
-0.0088883
-0.00881658
-0.00874561
-0.00867545
-0.00860612
-0.00853766
-0.00847009
-0.00840344
-0.00833775
-0.00827305
-0.00820936
-0.0081467
-0.00808511
-0.00802461
-0.00796521
-0.00790696
-0.00784986
-0.00779394
-0.00773922
-0.00768572
-0.00763346
-0.00758246
-0.00753273
-0.00748429
-0.00743717
-0.00739137
-0.00734691
-0.0073038
-0.00726206
-0.0072217
-0.00718274
-0.00714518
-0.00710904
-0.00707433
-0.00704106
-0.00700923
-0.00697886
-0.00694996
-0.00692253
-0.00689659
-0.00687213
-0.00684917
-0.00682772
-0.00680777
-0.00678934
-0.00677242
-0.00675703
-0.00674317
-0.00673084
-0.00672004
-0.00671078
-0.00670306
-0.00669688
-0.00669224
-0.00668915
-0.00668761
-5.8436e-05
-6.09124e-05
-6.58719e-05
-7.33103e-05
-8.32297e-05
-9.56317e-05
-0.000110518
-0.000127891
-0.000147752
-0.000170105
-0.000194952
-0.000222296
-0.000252142
-0.000284492
-0.000319349
-0.000356719
-0.000396603
-0.000439007
-0.000483934
-0.000531386
-0.000581369
-0.000633883
-0.000688934
-0.000746522
-0.00080665
-0.000869319
-0.000934531
-0.00100229
-0.00107258
-0.00114542
-0.00122079
-0.0012987
-0.00137915
-0.00146211
-0.0015476
-0.00163559
-0.00172609
-0.00181908
-0.00191455
-0.00201248
-0.00211285
-0.00221566
-0.00232087
-0.00242848
-0.00253844
-0.00265074
-0.00276535
-0.00288223
-0.00300135
-0.00312268
-0.00324618
-0.0033718
-0.0034995
-0.00362923
-0.00376094
-0.00389458
-0.00403009
-0.00416742
-0.00430649
-0.00444724
-0.00458961
-0.00473352
-0.0048789
-0.00502567
-0.00517375
-0.00532304
-0.00547348
-0.00562496
-0.0057774
-0.0059307
-0.00608475
-0.00623946
-0.00639473
-0.00655045
-0.0067065
-0.00686279
-0.0070192
-0.00717561
-0.00733191
-0.00748798
-0.00764371
-0.00779897
-0.00795364
-0.00810761
-0.00826076
-0.00841295
-0.00856408
-0.00871401
-0.00886263
-0.00900982
-0.00915546
-0.00929943
-0.00944161
-0.0095819
-0.00972017
-0.00985632
-0.00999024
-0.0101218
-0.010251
-0.0103776
-0.0105015
-0.0106227
-0.0107411
-0.0108566
-0.0109691
-0.0110786
-0.0111849
-0.0112879
-0.0113877
-0.0114842
-0.0115772
-0.0116668
-0.0117529
-0.0118354
-0.0119144
-0.0119897
-0.0120614
-0.0121294
-0.0121938
-0.0122544
-0.0123113
-0.0123645
-0.0124139
-0.0124597
-0.0125017
-0.01254
-0.0125747
-0.0126056
-0.0126329
-0.0126567
-0.0126768
-0.0126934
-0.0127064
-0.012716
-0.0127222
-0.012725
-0.0127245
-0.0127207
-0.0127137
-0.0127035
-0.0126902
-0.0126739
-0.0126547
-0.0126325
-0.0126074
-0.0125797
-0.0125492
-0.012516
-0.0124804
-0.0124422
-0.0124017
-0.0123588
-0.0123136
-0.0122663
-0.0122169
-0.0121654
-0.012112
-0.0120567
-0.0119997
-0.0119409
-0.0118805
-0.0118185
-0.011755
-0.0116901
-0.0116238
-0.0115563
-0.0114876
-0.0114178
-0.0113469
-0.011275
-0.0112023
-0.0111287
-0.0110543
-0.0109792
-0.0109035
-0.0108272
-0.0107504
-0.0106732
-0.0105955
-0.0105176
-0.0104394
-0.010361
-0.0102824
-0.0102038
-0.0101251
-0.0100465
-0.00996791
-0.00988946
-0.00981118
-0.00973314
-0.00965537
-0.00957791
-0.00950083
-0.00942416
-0.00934795
-0.00927224
-0.00919706
-0.00912247
-0.0090485
-0.00897519
-0.00890258
-0.0088307
-0.00875958
-0.00868927
-0.0086198
-0.00855119
-0.00848348
-0.0084167
-0.00835088
-0.00828604
-0.00822222
-0.00815944
-0.00809773
-0.00803711
-0.0079776
-0.00791923
-0.00786202
-0.00780599
-0.00775117
-0.00769757
-0.00764521
-0.00759411
-0.00754429
-0.00749577
-0.00744856
-0.00740267
-0.00735813
-0.00731494
-0.00727313
-0.0072327
-0.00719367
-0.00715604
-0.00711984
-0.00708507
-0.00705174
-0.00701985
-0.00698943
-0.00696048
-0.00693301
-0.00690702
-0.00688252
-0.00685953
-0.00683803
-0.00681805
-0.00679959
-0.00678264
-0.00676723
-0.00675334
-0.00674099
-0.00673017
-0.0067209
-0.00671316
-0.00670697
-0.00670233
-0.00669923
-0.00669769
-7.51615e-05
-7.7634e-05
-8.25855e-05
-9.0012e-05
-9.99154e-05
-0.000112298
-0.00012716
-0.000144505
-0.000164336
-0.000186654
-0.000211462
-0.000238765
-0.000268566
-0.000300867
-0.000335674
-0.000372989
-0.000412817
-0.000455162
-0.000500027
-0.000547415
-0.000597332
-0.000649779
-0.000704761
-0.000762278
-0.000822335
-0.000884932
-0.000950071
-0.00101775
-0.00108798
-0.00116074
-0.00123604
-0.00131388
-0.00139426
-0.00147715
-0.00156257
-0.00165051
-0.00174094
-0.00183388
-0.00192929
-0.00202717
-0.0021275
-0.00223026
-0.00233544
-0.00244301
-0.00255294
-0.00266522
-0.00277982
-0.00289669
-0.00301582
-0.00313715
-0.00326066
-0.00338631
-0.00351404
-0.00364381
-0.00377557
-0.00390927
-0.00404484
-0.00418224
-0.0043214
-0.00446225
-0.00460473
-0.00474876
-0.00489426
-0.00504117
-0.0051894
-0.00533886
-0.00548946
-0.00564113
-0.00579375
-0.00594725
-0.00610151
-0.00625645
-0.00641195
-0.0065679
-0.00672421
-0.00688076
-0.00703743
-0.00719412
-0.0073507
-0.00750707
-0.00766309
-0.00781865
-0.00797364
-0.00812793
-0.00828139
-0.0084339
-0.00858536
-0.00873562
-0.00888457
-0.00903209
-0.00917806
-0.00932237
-0.00946489
-0.0096055
-0.00974411
-0.00988058
-0.0100148
-0.0101467
-0.0102762
-0.0104031
-0.0105273
-0.0106489
-0.0107676
-0.0108833
-0.0109961
-0.0111058
-0.0112124
-0.0113157
-0.0114157
-0.0115124
-0.0116056
-0.0116954
-0.0117817
-0.0118644
-0.0119435
-0.012019
-0.0120908
-0.012159
-0.0122234
-0.0122842
-0.0123412
-0.0123944
-0.0124439
-0.0124897
-0.0125318
-0.0125701
-0.0126048
-0.0126358
-0.0126631
-0.0126868
-0.0127069
-0.0127234
-0.0127364
-0.0127459
-0.012752
-0.0127548
-0.0127541
-0.0127502
-0.0127431
-0.0127328
-0.0127194
-0.0127029
-0.0126835
-0.0126612
-0.012636
-0.012608
-0.0125774
-0.0125441
-0.0125082
-0.0124698
-0.0124291
-0.012386
-0.0123406
-0.0122931
-0.0122435
-0.0121918
-0.0121382
-0.0120827
-0.0120254
-0.0119663
-0.0119057
-0.0118434
-0.0117797
-0.0117146
-0.0116481
-0.0115803
-0.0115114
-0.0114413
-0.0113702
-0.0112981
-0.0112251
-0.0111512
-0.0110766
-0.0110013
-0.0109254
-0.0108488
-0.0107718
-0.0106943
-0.0106165
-0.0105383
-0.0104599
-0.0103812
-0.0103024
-0.0102236
-0.0101447
-0.0100658
-0.00998701
-0.00990835
-0.00982986
-0.0097516
-0.00967362
-0.00959596
-0.00951868
-0.00944181
-0.0093654
-0.00928949
-0.00921412
-0.00913934
-0.00906519
-0.00899169
-0.0089189
-0.00884684
-0.00877556
-0.00870508
-0.00863543
-0.00856666
-0.00849879
-0.00843186
-0.00836588
-0.00830089
-0.00823693
-0.008174
-0.00811215
-0.00805139
-0.00799175
-0.00793325
-0.00787592
-0.00781977
-0.00776482
-0.00771111
-0.00765864
-0.00760743
-0.0075575
-0.00750888
-0.00746157
-0.00741559
-0.00737095
-0.00732768
-0.00728578
-0.00724527
-0.00720615
-0.00716845
-0.00713218
-0.00709733
-0.00706394
-0.00703199
-0.00700151
-0.0069725
-0.00694498
-0.00691894
-0.00689439
-0.00687135
-0.00684982
-0.0068298
-0.0068113
-0.00679432
-0.00677887
-0.00676496
-0.00675258
-0.00674175
-0.00673245
-0.00672471
-0.0067185
-0.00671385
-0.00671075
-0.0067092
-9.39947e-05
-9.64627e-05
-0.000101405
-0.000108818
-0.000118704
-0.000131064
-0.0001459
-0.000163214
-0.00018301
-0.000205289
-0.000230055
-0.000257311
-0.000287061
-0.000319309
-0.000354058
-0.000391313
-0.000431077
-0.000473355
-0.000518151
-0.000565468
-0.000615311
-0.000667682
-0.000722586
-0.000780025
-0.000840002
-0.000902519
-0.000967576
-0.00103518
-0.00110532
-0.001178
-0.00125322
-0.00133098
-0.00141128
-0.0014941
-0.00157945
-0.00166731
-0.00175768
-0.00185054
-0.00194589
-0.00204372
-0.00214399
-0.00224671
-0.00235185
-0.00245938
-0.00256929
-0.00268155
-0.00279613
-0.00291299
-0.00303212
-0.00315346
-0.00327699
-0.00340266
-0.00353042
-0.00366024
-0.00379206
-0.00392582
-0.00406148
-0.00419896
-0.00433822
-0.00447918
-0.00462178
-0.00476594
-0.00491159
-0.00505865
-0.00520705
-0.00535669
-0.00550749
-0.00565935
-0.0058122
-0.00596592
-0.00612043
-0.00627561
-0.00643137
-0.0065876
-0.00674419
-0.00690103
-0.00705801
-0.00721501
-0.00737191
-0.0075286
-0.00768496
-0.00784087
-0.00799621
-0.00815085
-0.00830467
-0.00845756
-0.00860938
-0.00876001
-0.00890934
-0.00905724
-0.00920359
-0.00934827
-0.00949116
-0.00963216
-0.00977113
-0.00990798
-0.0100426
-0.0101748
-0.0103047
-0.0104319
-0.0105565
-0.0106784
-0.0107974
-0.0109135
-0.0110266
-0.0111366
-0.0112434
-0.011347
-0.0114473
-0.0115442
-0.0116377
-0.0117277
-0.0118142
-0.0118971
-0.0119764
-0.0120521
-0.0121241
-0.0121924
-0.0122569
-0.0123178
-0.0123749
-0.0124282
-0.0124778
-0.0125237
-0.0125658
-0.0126041
-0.0126388
-0.0126698
-0.0126971
-0.0127207
-0.0127408
-0.0127573
-0.0127702
-0.0127797
-0.0127857
-0.0127883
-0.0127876
-0.0127835
-0.0127763
-0.0127658
-0.0127523
-0.0127357
-0.0127161
-0.0126936
-0.0126682
-0.01264
-0.0126092
-0.0125756
-0.0125396
-0.012501
-0.01246
-0.0124167
-0.0123711
-0.0123233
-0.0122734
-0.0122215
-0.0121676
-0.0121119
-0.0120543
-0.011995
-0.0119341
-0.0118716
-0.0118076
-0.0117422
-0.0116754
-0.0116074
-0.0115382
-0.0114678
-0.0113965
-0.0113241
-0.0112508
-0.0111767
-0.0111018
-0.0110262
-0.01095
-0.0108732
-0.0107959
-0.0107181
-0.01064
-0.0105616
-0.0104829
-0.010404
-0.010325
-0.0102458
-0.0101667
-0.0100876
-0.0100085
-0.00992962
-0.00985089
-0.00977239
-0.00969417
-0.00961628
-0.00953877
-0.00946167
-0.00938503
-0.00930891
-0.00923332
-0.00915833