/*--------------------------------*- C++ -*----------------------------------*\
| =========                 |                                                 |
| \\      /  F ield         | OpenFOAM: The Open Source CFD Toolbox           |
|  \\    /   O peration     | Version:  v2012                                 |
|   \\  /    A nd           | Website:  www.openfoam.com                      |
|    \\/     M anipulation  |                                                 |
\*---------------------------------------------------------------------------*/
FoamFile
{
    version     2.0;
    format      ascii;
    class       surfaceScalarField;
    location    "7";
    object      phi;
}
// * * * * * * * * * * * * * * * * * * * * * * * * * * * * * * * * * * * * * //

dimensions      [0 3 -1 0 0 0 0];
oriented        oriented;


internalField   nonuniform List<scalar> 
130560
(
3.71282e-06
-3.71282e-06
7.42558e-06
-3.71276e-06
1.11382e-05
-3.71262e-06
1.48506e-05
-3.71241e-06
1.85627e-05
-3.71212e-06
2.22745e-05
-3.71175e-06
2.59858e-05
-3.7113e-06
2.96965e-05
-3.71077e-06
3.34067e-05
-3.71014e-06
3.71161e-05
-3.70941e-06
4.08247e-05
-3.70857e-06
4.45323e-05
-3.70762e-06
4.82388e-05
-3.70655e-06
5.19442e-05
-3.70535e-06
5.56482e-05
-3.70401e-06
5.93507e-05
-3.70251e-06
6.30516e-05
-3.70085e-06
6.67506e-05
-3.69902e-06
7.04476e-05
-3.697e-06
7.41423e-05
-3.69477e-06
7.78347e-05
-3.69233e-06
8.15243e-05
-3.68966e-06
8.52111e-05
-3.68674e-06
8.88946e-05
-3.68356e-06
9.25747e-05
-3.6801e-06
9.62511e-05
-3.67634e-06
9.99234e-05
-3.67227e-06
0.000103591
-3.66786e-06
0.000107254
-3.6631e-06
0.000110912
-3.65797e-06
0.000114565
-3.65244e-06
0.000118211
-3.6465e-06
0.000121851
-3.64012e-06
0.000125485
-3.63328e-06
0.000129111
-3.62597e-06
0.000132729
-3.61815e-06
0.000136339
-3.60981e-06
0.000139939
-3.60092e-06
0.000143531
-3.59146e-06
0.000147112
-3.5814e-06
0.000150683
-3.57072e-06
0.000154242
-3.5594e-06
0.00015779
-3.54742e-06
0.000161325
-3.53474e-06
0.000164846
-3.52135e-06
0.000168353
-3.50721e-06
0.000171845
-3.49231e-06
0.000175322
-3.47663e-06
0.000178782
-3.46013e-06
0.000182225
-3.4428e-06
0.00018565
-3.42461e-06
0.000189055
-3.40554e-06
0.000192441
-3.38557e-06
0.000195805
-3.36467e-06
0.000199148
-3.34283e-06
0.000202468
-3.32002e-06
0.000205765
-3.29623e-06
0.000209036
-3.27143e-06
0.000212282
-3.24561e-06
0.0002155
-3.21875e-06
0.000218691
-3.19084e-06
0.000221853
-3.16185e-06
0.000224985
-3.13178e-06
0.000228085
-3.10061e-06
0.000231154
-3.06834e-06
0.000234189
-3.03494e-06
0.000237189
-3.00041e-06
0.000240154
-2.96475e-06
0.000243082
-2.92794e-06
0.000245972
-2.88999e-06
0.000248823
-2.85088e-06
0.000251633
-2.81063e-06
0.000254402
-2.76922e-06
0.000257129
-2.72667e-06
0.000259812
-2.68297e-06
0.00026245
-2.63813e-06
0.000265042
-2.59216e-06
0.000267587
-2.54506e-06
0.000270084
-2.49685e-06
0.000272532
-2.44754e-06
0.000274929
-2.39714e-06
0.000277275
-2.34567e-06
0.000279568
-2.29315e-06
0.000281807
-2.2396e-06
0.000283992
-2.18504e-06
0.000286122
-2.12949e-06
0.000288195
-2.07298e-06
0.00029021
-2.01553e-06
0.000292168
-1.95718e-06
0.000294066
-1.89795e-06
0.000295903
-1.83787e-06
0.00029768
-1.77699e-06
0.000299396
-1.71532e-06
0.000301049
-1.65291e-06
0.000302639
-1.5898e-06
0.000304165
-1.52603e-06
0.000305626
-1.46163e-06
0.000307023
-1.39664e-06
0.000308354
-1.33111e-06
0.000309619
-1.26508e-06
0.000310818
-1.1986e-06
0.000311949
-1.13169e-06
0.000313014
-1.06443e-06
0.000314011
-9.96831e-07
0.00031494
-9.28959e-07
0.0003158
-8.60854e-07
0.000316593
-7.92563e-07
0.000317317
-7.2413e-07
0.000317973
-6.55603e-07
0.00031856
-5.87028e-07
0.000319078
-5.18449e-07
0.000319528
-4.49914e-07
0.00031991
-3.81466e-07
0.000320223
-3.13151e-07
0.000320468
-2.45012e-07
0.000320645
-1.77093e-07
0.000320754
-1.09437e-07
0.000320796
-4.20852e-08
0.000320771
2.49214e-08
0.00032068
9.15431e-08
0.000320522
1.57741e-07
0.000320299
2.23476e-07
0.00032001
2.88714e-07
0.000319656
3.53417e-07
0.000319239
4.17553e-07
0.000318758
4.81087e-07
0.000318214
5.43988e-07
0.000317608
6.06226e-07
0.00031694
6.67773e-07
0.000316211
7.286e-07
0.000315423
7.88681e-07
0.000314575
8.47993e-07
0.000313668
9.06512e-07
0.000312704
9.64217e-07
0.000311683
1.02109e-06
0.000310606
1.0771e-06
0.000309473
1.13225e-06
0.000308287
1.18651e-06
0.000307047
1.23988e-06
0.000305755
1.29233e-06
0.000304411
1.34385e-06
0.000303016
1.39445e-06
0.000301572
1.4441e-06
0.000300079
1.4928e-06
0.000298539
1.54054e-06
0.000296952
1.58732e-06
0.000295318
1.63314e-06
0.00029364
1.678e-06
0.000291919
1.72188e-06
0.000290154
1.7648e-06
0.000288347
1.80675e-06
0.000286499
1.84774e-06
0.000284612
1.88776e-06
0.000282685
1.92683e-06
0.00028072
1.96495e-06
0.000278718
2.00212e-06
0.000276679
2.03835e-06
0.000274606
2.07365e-06
0.000272498
2.10802e-06
0.000270356
2.14147e-06
0.000268182
2.17402e-06
0.000265976
2.20567e-06
0.00026374
2.23644e-06
0.000261474
2.26633e-06
0.000259178
2.29536e-06
0.000256855
2.32354e-06
0.000254504
2.35088e-06
0.000252127
2.37739e-06
0.000249723
2.4031e-06
0.000247295
2.428e-06
0.000244843
2.45212e-06
0.000242368
2.47547e-06
0.00023987
2.49806e-06
0.00023735
2.51991e-06
0.000234809
2.54103e-06
0.000232247
2.56143e-06
0.000229666
2.58114e-06
0.000227066
2.60017e-06
0.000224448
2.61852e-06
0.000221811
2.63622e-06
0.000219158
2.65328e-06
0.000216488
2.66972e-06
0.000213803
2.68555e-06
0.000211102
2.70078e-06
0.000208387
2.71543e-06
0.000205657
2.72952e-06
0.000202914
2.74306e-06
0.000200158
2.75606e-06
0.000197389
2.76854e-06
0.000194609
2.78052e-06
0.000191817
2.792e-06
0.000189014
2.803e-06
0.0001862
2.81354e-06
0.000183377
2.82363e-06
0.000180543
2.83327e-06
0.000177701
2.8425e-06
0.00017485
2.85131e-06
0.00017199
2.85973e-06
0.000169122
2.86775e-06
0.000166247
2.87541e-06
0.000163364
2.8827e-06
0.000160474
2.88965e-06
0.000157578
2.89626e-06
0.000154676
2.90254e-06
0.000151767
2.90852e-06
0.000148853
2.91419e-06
0.000145933
2.91956e-06
0.000143009
2.92466e-06
0.000140079
2.92949e-06
0.000137145
2.93406e-06
0.000134207
2.93838e-06
0.000131264
2.94246e-06
0.000128318
2.94631e-06
0.000125368
2.94994e-06
0.000122415
2.95336e-06
0.000119458
2.95658e-06
0.000116499
2.9596e-06
0.000113536
2.96244e-06
0.000110571
2.96511e-06
0.000107603
2.9676e-06
0.000104633
2.96994e-06
0.000101661
2.97212e-06
9.86871e-05
2.97416e-06
9.57111e-05
2.97606e-06
9.27332e-05
2.97784e-06
8.97538e-05
2.97948e-06
8.67727e-05
2.98101e-06
8.37903e-05
2.98243e-06
8.08066e-05
2.98375e-06
7.78216e-05
2.98496e-06
7.48355e-05
2.98608e-06
7.18484e-05
2.98712e-06
6.88603e-05
2.98807e-06
6.58714e-05
2.98894e-06
6.28816e-05
2.98975e-06
5.98912e-05
2.99048e-06
5.69e-05
2.99115e-06
5.39083e-05
2.99176e-06
5.09159e-05
2.99232e-06
4.79231e-05
2.99282e-06
4.49298e-05
2.99328e-06
4.19361e-05
2.99369e-06
3.89421e-05
2.99406e-06
3.59477e-05
2.99439e-06
3.2953e-05
2.99469e-06
2.99581e-05
2.99495e-06
2.69629e-05
2.99518e-06
2.39675e-05
2.99539e-06
2.09719e-05
2.99556e-06
1.79762e-05
2.99572e-06
1.49804e-05
2.99584e-06
1.19844e-05
2.99595e-06
8.98838e-06
2.99603e-06
5.99229e-06
2.99609e-06
2.99615e-06
2.99613e-06
2.99615e-06
3.7129e-06
-7.42572e-06
7.42573e-06
-7.42559e-06
1.11384e-05
-7.42531e-06
1.48509e-05
-7.42489e-06
1.85631e-05
-7.42432e-06
2.22749e-05
-7.42359e-06
2.59863e-05
-7.42269e-06
2.96972e-05
-7.42163e-06
3.34074e-05
-7.42037e-06
3.71169e-05
-7.41892e-06
4.08256e-05
-7.41726e-06
4.45334e-05
-7.41537e-06
4.82401e-05
-7.41324e-06
5.19456e-05
-7.41085e-06
5.56497e-05
-7.40817e-06
5.93524e-05
-7.40519e-06
6.30534e-05
-7.40188e-06
6.67527e-05
-7.39823e-06
7.04499e-05
-7.3942e-06
7.41448e-05
-7.38976e-06
7.78374e-05
-7.3849e-06
8.15273e-05
-7.37957e-06
8.52143e-05
-7.37375e-06
8.88982e-05
-7.36741e-06
9.25786e-05
-7.3605e-06
9.62552e-05
-7.35301e-06
9.99278e-05
-7.34488e-06
0.000103596
-7.33608e-06
0.00010726
-7.32658e-06
0.000110918
-7.31633e-06
0.000114571
-7.3053e-06
0.000118218
-7.29343e-06
0.000121858
-7.2807e-06
0.000125492
-7.26705e-06
0.000129119
-7.25244e-06
0.000132737
-7.23683e-06
0.000136348
-7.22017e-06
0.000139949
-7.20241e-06
0.000143541
-7.18351e-06
0.000147123
-7.16342e-06
0.000150695
-7.14209e-06
0.000154255
-7.11948e-06
0.000157803
-7.09553e-06
0.000161338
-7.0702e-06
0.00016486
-7.04343e-06
0.000168368
-7.01519e-06
0.000171861
-6.98542e-06
0.000175339
-6.95407e-06
0.0001788
-6.9211e-06
0.000182243
-6.88646e-06
0.000185669
-6.8501e-06
0.000189075
-6.81199e-06
0.000192462
-6.77206e-06
0.000195827
-6.73029e-06
0.000199171
-6.68663e-06
0.000202492
-6.64103e-06
0.000205789
-6.59346e-06
0.000209062
-6.54389e-06
0.000212309
-6.49227e-06
0.000215528
-6.43856e-06
0.00021872
-6.38275e-06
0.000221883
-6.32479e-06
0.000225016
-6.26466e-06
0.000228118
-6.20234e-06
0.000231187
-6.13779e-06
0.000234223
-6.071e-06
0.000237225
-6.00196e-06
0.000240191
-5.93064e-06
0.00024312
-5.85703e-06
0.000246011
-5.78112e-06
0.000248863
-5.70292e-06
0.000251675
-5.62241e-06
0.000254445
-5.5396e-06
0.000257173
-5.45448e-06
0.000259857
-5.36708e-06
0.000262496
-5.27739e-06
0.00026509
-5.18544e-06
0.000267636
-5.09123e-06
0.000270134
-4.9948e-06
0.000272582
-4.89616e-06
0.000274981
-4.79535e-06
0.000277327
-4.6924e-06
0.000279622
-4.58734e-06
0.000281862
-4.48022e-06
0.000284048
-4.37107e-06
0.000286179
-4.25995e-06
0.000288253
-4.1469e-06
0.000290269
-4.03197e-06
0.000292227
-3.91524e-06
0.000294126
-3.79675e-06
0.000295965
-3.67656e-06
0.000297742
-3.55475e-06
0.000299458
-3.43139e-06
0.000301112
-3.30654e-06
0.000302702
-3.18028e-06
0.000304229
-3.05269e-06
0.000305691
-2.92384e-06
0.000307089
-2.79383e-06
0.00030842
-2.66273e-06
0.000309686
-2.53063e-06
0.000310885
-2.39761e-06
0.000312017
-2.26376e-06
0.000313082
-2.12918e-06
0.000314079
-1.99394e-06
0.000315008
-1.85815e-06
0.000315869
-1.7219e-06
0.000316662
-1.58527e-06
0.000317386
-1.44836e-06
0.000318041
-1.31126e-06
0.000318629
-1.17406e-06
0.000319147
-1.03686e-06
0.000319597
-8.99742e-07
0.000319978
-7.62802e-07
0.000320291
-6.26128e-07
0.000320536
-4.89807e-07
0.000320713
-3.53926e-07
0.000320822
-2.18572e-07
0.000320864
-8.38273e-08
0.000320838
5.02261e-08
0.000320746
1.83508e-07
0.000320588
3.15941e-07
0.000320364
4.47449e-07
0.000320075
5.77959e-07
0.000319721
7.07401e-07
0.000319303
8.35704e-07
0.000318821
9.62804e-07
0.000318276
1.08864e-06
0.000317669
1.21314e-06
0.000317001
1.33626e-06
0.000316272
1.45794e-06
0.000315482
1.57813e-06
0.000314633
1.69678e-06
0.000313726
1.81384e-06
0.000312761
1.92927e-06
0.000311739
2.04303e-06
0.000310661
2.15508e-06
0.000309528
2.26539e-06
0.000308341
2.37393e-06
0.0003071
2.48067e-06
0.000305807
2.58558e-06
0.000304462
2.68864e-06
0.000303066
2.78983e-06
0.000301621
2.88914e-06
0.000300128
2.98655e-06
0.000298586
3.08204e-06
0.000296998
3.17561e-06
0.000295364
3.26725e-06
0.000293685
3.35696e-06
0.000291962
3.44473e-06
0.000290196
3.53056e-06
0.000288388
3.61447e-06
0.00028654
3.69644e-06
0.000284651
3.77649e-06
0.000282723
3.85462e-06
0.000280757
3.93085e-06
0.000278754
4.00518e-06
0.000276715
4.07763e-06
0.00027464
4.14822e-06
0.000272531
4.21695e-06
0.000270389
4.28385e-06
0.000268214
4.34894e-06
0.000266008
4.41224e-06
0.00026377
4.47376e-06
0.000261503
4.53353e-06
0.000259207
4.59158e-06
0.000256882
4.64792e-06
0.000254531
4.70259e-06
0.000252153
4.7556e-06
0.000249749
4.80699e-06
0.00024732
4.85679e-06
0.000244867
4.90501e-06
0.000242391
4.95169e-06
0.000239892
4.99686e-06
0.000237371
5.04054e-06
0.00023483
5.08277e-06
0.000232267
5.12357e-06
0.000229686
5.16297e-06
0.000227085
5.201e-06
0.000224466
5.2377e-06
0.000221829
5.27308e-06
0.000219175
5.30719e-06
0.000216504
5.34005e-06
0.000213818
5.37169e-06
0.000211117
5.40214e-06
0.000208401
5.43143e-06
0.000205671
5.45959e-06
0.000202927
5.48666e-06
0.000200171
5.51265e-06
0.000197402
5.5376e-06
0.000194621
5.56153e-06
0.000191828
5.58448e-06
0.000189025
5.60647e-06
0.000186211
5.62753e-06
0.000183387
5.64769e-06
0.000180553
5.66698e-06
0.00017771
5.68541e-06
0.000174858
5.70302e-06
0.000171998
5.71984e-06
0.00016913
5.73588e-06
0.000166254
5.75118e-06
0.000163371
5.76576e-06
0.000160481
5.77964e-06
0.000157585
5.79285e-06
0.000154682
5.8054e-06
0.000151773
5.81734e-06
0.000148858
5.82866e-06
0.000145939
5.83941e-06
0.000143014
5.8496e-06
0.000140084
5.85924e-06
0.00013715
5.86837e-06
0.000134211
5.877e-06
0.000131268
5.88515e-06
0.000128322
5.89284e-06
0.000125372
5.9001e-06
0.000122418
5.90693e-06
0.000119461
5.91335e-06
0.000116502
5.91939e-06
0.000113539
5.92506e-06
0.000110574
5.93039e-06
0.000107606
5.93537e-06
0.000104636
5.94004e-06
0.000101663
5.9444e-06
9.86892e-05
5.94847e-06
9.5713e-05
5.95226e-06
9.2735e-05
5.9558e-06
8.97554e-05
5.95909e-06
8.67743e-05
5.96214e-06
8.37917e-05
5.96497e-06
8.08079e-05
5.96759e-06
7.78228e-05
5.97002e-06
7.48367e-05
5.97226e-06
7.18495e-05
5.97432e-06
6.88613e-05
5.97622e-06
6.58723e-05
5.97796e-06
6.28825e-05
5.97956e-06
5.98919e-05
5.98103e-06
5.69007e-05
5.98236e-06
5.39089e-05
5.98358e-06
5.09165e-05
5.98469e-06
4.79236e-05
5.98569e-06
4.49303e-05
5.9866e-06
4.19366e-05
5.98743e-06
3.89425e-05
5.98816e-06
3.5948e-05
5.98883e-06
3.29533e-05
5.98942e-06
2.99583e-05
5.98994e-06
2.69631e-05
5.9904e-06
2.39677e-05
5.99081e-06
2.09721e-05
5.99116e-06
1.79764e-05
5.99146e-06
1.49805e-05
5.99171e-06
1.19845e-05
5.99192e-06
8.98845e-06
5.99209e-06
5.99233e-06
5.99221e-06
2.99618e-06
5.99229e-06
5.99233e-06
3.71305e-06
-1.11388e-05
7.42603e-06
-1.11386e-05
1.11389e-05
-1.11382e-05
1.48515e-05
-1.11375e-05
1.85639e-05
-1.11367e-05
2.22759e-05
-1.11356e-05
2.59875e-05
-1.11343e-05
2.96985e-05
-1.11327e-05
3.34089e-05
-1.11308e-05
3.71187e-05
-1.11287e-05
4.08276e-05
-1.11262e-05
4.45356e-05
-1.11234e-05
4.82426e-05
-1.11202e-05
5.19483e-05
-1.11166e-05
5.56528e-05
-1.11126e-05
5.93558e-05
-1.11082e-05
6.30572e-05
-1.11033e-05
6.67568e-05
-1.10978e-05
7.04544e-05
-1.10918e-05
7.41498e-05
-1.10852e-05
7.78429e-05
-1.10779e-05
8.15333e-05
-1.107e-05
8.52208e-05
-1.10613e-05
8.89052e-05
-1.10518e-05
9.25862e-05
-1.10415e-05
9.62635e-05
-1.10303e-05
9.99368e-05
-1.10182e-05
0.000103606
-1.1005e-05
0.00010727
-1.09908e-05
0.000110929
-1.09755e-05
0.000114583
-1.0959e-05
0.000118231
-1.09412e-05
0.000121872
-1.09222e-05
0.000125507
-1.09018e-05
0.000129134
-1.08799e-05
0.000132754
-1.08566e-05
0.000136366
-1.08316e-05
0.000139968
-1.08051e-05
0.000143561
-1.07768e-05
0.000147145
-1.07467e-05
0.000150717
-1.07148e-05
0.000154279
-1.06809e-05
0.000157828
-1.0645e-05
0.000161365
-1.06071e-05
0.000164889
-1.0567e-05
0.000168398
-1.05247e-05
0.000171893
-1.04801e-05
0.000175372
-1.04331e-05
0.000178835
-1.03837e-05
0.00018228
-1.03318e-05
0.000185707
-1.02774e-05
0.000189116
-1.02202e-05
0.000192504
-1.01604e-05
0.000195871
-1.00978e-05
0.000199217
-1.00324e-05
0.00020254
-9.96402e-06
0.000205839
-9.89271e-06
0.000209114
-9.81839e-06
0.000212363
-9.741e-06
0.000215585
-9.66049e-06
0.000218779
-9.57681e-06
0.000221944
-9.48991e-06
0.000225079
-9.39975e-06
0.000228183
-9.30629e-06
0.000231254
-9.20949e-06
0.000234293
-9.10934e-06
0.000237297
-9.00578e-06
0.000240265
-8.89882e-06
0.000243196
-8.78842e-06
0.00024609
-8.67457e-06
0.000248944
-8.55726e-06
0.000251758
-8.4365e-06
0.000254531
-8.31227e-06
0.000257261
-8.1846e-06
0.000259947
-8.05347e-06
0.000262589
-7.91893e-06
0.000265184
-7.78097e-06
0.000267733
-7.63964e-06
0.000270233
-7.49495e-06
0.000272684
-7.34696e-06
0.000275084
-7.19571e-06
0.000277433
-7.04123e-06
0.000279729
-6.8836e-06
0.000281972
-6.72286e-06
0.00028416
-6.55908e-06
0.000286292
-6.39233e-06
0.000288368
-6.22269e-06
0.000290386
-6.05023e-06
0.000292346
-5.87505e-06
0.000294247
-5.69724e-06
0.000296087
-5.51688e-06
0.000297866
-5.33408e-06
0.000299584
-5.14894e-06
0.000301239
-4.96157e-06
0.000302831
-4.77208e-06
0.000304358
-4.5806e-06
0.000305822
-4.38723e-06
0.00030722
-4.19211e-06
0.000308553
-3.99535e-06
0.000309819
-3.79709e-06
0.000311019
-3.59745e-06
0.000312152
-3.39657e-06
0.000313217
-3.19458e-06
0.000314215
-2.99162e-06
0.000315145
-2.78782e-06
0.000316006
-2.58332e-06
0.000316799
-2.37826e-06
0.000317523
-2.17278e-06
0.000318179
-1.96701e-06
0.000318766
-1.7611e-06
0.000319285
-1.55518e-06
0.000319734
-1.3494e-06
0.000320115
-1.14388e-06
0.000320428
-9.38753e-07
0.000320672
-7.34163e-07
0.000320849
-5.30236e-07
0.000320957
-3.271e-07
0.000320998
-1.2488e-07
0.000320972
7.63002e-08
0.000320879
2.76321e-07
0.00032072
4.75065e-07
0.000320495
6.72419e-07
0.000320205
8.68273e-07
0.00031985
1.06252e-06
0.00031943
1.25506e-06
0.000318947
1.44579e-06
0.000318401
1.63461e-06
0.000317793
1.82144e-06
0.000317123
2.00619e-06
0.000316392
2.18878e-06
0.000315601
2.36912e-06
0.000314751
2.54715e-06
0.000313842
2.72279e-06
0.000312875
2.89598e-06
0.000311852
3.06667e-06
0.000310772
3.23479e-06
0.000309637
3.4003e-06
0.000308448
3.56314e-06
0.000307205
3.72328e-06
0.00030591
3.88068e-06
0.000304564
4.03529e-06
0.000303166
4.18711e-06
0.000301719
4.33609e-06
0.000300224
4.48221e-06
0.00029868
4.62546e-06
0.00029709
4.76583e-06
0.000295454
4.90329e-06
0.000293773
5.03786e-06
0.000292048
5.16951e-06
0.000290281
5.29826e-06
0.000288471
5.42411e-06
0.00028662
5.54706e-06
0.00028473
5.66712e-06
0.0002828
5.78431e-06
0.000280832
5.89864e-06
0.000278827
6.01012e-06
0.000276786
6.11878e-06
0.00027471
6.22464e-06
0.000272599
6.32772e-06
0.000270455
6.42805e-06
0.000268278
6.52565e-06
0.00026607
6.62057e-06
0.000263831
6.71283e-06
0.000261562
6.80246e-06
0.000259264
6.8895e-06
0.000256938
6.97398e-06
0.000254584
7.05595e-06
0.000252204
7.13544e-06
0.000249799
7.21249e-06
0.000247369
7.28715e-06
0.000244914
7.35945e-06
0.000242436
7.42944e-06
0.000239936
7.49715e-06
0.000237414
7.56264e-06
0.000234871
7.62594e-06
0.000232307
7.6871e-06
0.000229724
7.74617e-06
0.000227122
7.80318e-06
0.000224501
7.85818e-06
0.000221863
7.91122e-06
0.000219208
7.96235e-06
0.000216537
8.0116e-06
0.000213849
8.05902e-06
0.000211147
8.10466e-06
0.00020843
8.14856e-06
0.000205698
8.19077e-06
0.000202954
8.23133e-06
0.000200196
8.27028e-06
0.000197426
8.30767e-06
0.000194644
8.34354e-06
0.000191851
8.37792e-06
0.000189046
8.41088e-06
0.000186231
8.44244e-06
0.000183406
8.47264e-06
0.000180572
8.50153e-06
0.000177728
8.52915e-06
0.000174876
8.55554e-06
0.000172015
8.58073e-06
0.000169146
8.60477e-06
0.000166269
8.62768e-06
0.000163386
8.64952e-06
0.000160495
8.67031e-06
0.000157598
8.69009e-06
0.000154694
8.7089e-06
0.000151785
8.72677e-06
0.00014887
8.74373e-06
0.000145949
8.75983e-06
0.000143024
8.77508e-06
0.000140093
8.78952e-06
0.000137159
8.80319e-06
0.00013422
8.81611e-06
0.000131276
8.82831e-06
0.000128329
8.83983e-06
0.000125379
8.85068e-06
0.000122425
8.8609e-06
0.000119468
8.87052e-06
0.000116507
8.87956e-06
0.000113545
8.88805e-06
0.000110579
8.89601e-06
0.000107611
8.90346e-06
0.00010464
8.91044e-06
0.000101668
8.91697e-06
9.86932e-05
8.92306e-06
9.57168e-05
8.92873e-06
9.27385e-05
8.93402e-06
8.97587e-05
8.93893e-06
8.67773e-05
8.9435e-06
8.37946e-05
8.94773e-06
8.08105e-05
8.95165e-06
7.78253e-05
8.95527e-06
7.48389e-05
8.95862e-06
7.18515e-05
8.9617e-06
6.88632e-05
8.96453e-06
6.5874e-05
8.96714e-06
6.28841e-05
8.96952e-06
5.98934e-05
8.97171e-06
5.69021e-05
8.9737e-06
5.39101e-05
8.97552e-06
5.09176e-05
8.97717e-06
4.79247e-05
8.97867e-06
4.49312e-05
8.98003e-06
4.19374e-05
8.98125e-06
3.89432e-05
8.98235e-06
3.59487e-05
8.98334e-06
3.29539e-05
8.98422e-06
2.99589e-05
8.985e-06
2.69636e-05
8.98569e-06
2.39681e-05
8.98629e-06
2.09724e-05
8.98681e-06
1.79766e-05
8.98726e-06
1.49807e-05
8.98764e-06
1.19847e-05
8.98795e-06
8.98859e-06
8.98819e-06
5.99243e-06
8.98837e-06
2.99622e-06
8.98849e-06
8.98855e-06
3.71327e-06
-1.4852e-05
7.42647e-06
-1.48518e-05
1.11395e-05
-1.48512e-05
1.48524e-05
-1.48504e-05
1.8565e-05
-1.48493e-05
2.22773e-05
-1.48479e-05
2.59891e-05
-1.48461e-05
2.97005e-05
-1.4844e-05
3.34112e-05
-1.48416e-05
3.71213e-05
-1.48387e-05
4.08305e-05
-1.48355e-05
4.45389e-05
-1.48317e-05
4.82463e-05
-1.48276e-05
5.19525e-05
-1.48228e-05
5.56574e-05
-1.48176e-05
5.93609e-05
-1.48117e-05
6.30628e-05
-1.48052e-05
6.6763e-05
-1.4798e-05
7.04612e-05
-1.479e-05
7.41573e-05
-1.47813e-05
7.7851e-05
-1.47717e-05
8.15422e-05
-1.47611e-05
8.52305e-05
-1.47496e-05
8.89158e-05
-1.47371e-05
9.25977e-05
-1.47234e-05
9.62759e-05
-1.47086e-05
9.99502e-05
-1.46924e-05
0.00010362
-1.4675e-05
0.000107286
-1.46562e-05
0.000110946
-1.46358e-05
0.000114601
-1.46139e-05
0.00011825
-1.45904e-05
0.000121893
-1.45651e-05
0.000125529
-1.4538e-05
0.000129158
-1.45089e-05
0.000132779
-1.44779e-05
0.000136392
-1.44447e-05
0.000139997
-1.44094e-05
0.000143592
-1.43718e-05
0.000147177
-1.43318e-05
0.000150752
-1.42894e-05
0.000154315
-1.42443e-05
0.000157867
-1.41966e-05
0.000161406
-1.41461e-05
0.000164931
-1.40928e-05
0.000168443
-1.40365e-05
0.00017194
-1.39772e-05
0.000175422
-1.39147e-05
0.000178887
-1.38489e-05
0.000182335
-1.37798e-05
0.000185765
-1.37073e-05
0.000189176
-1.36312e-05
0.000192567
-1.35515e-05
0.000195937
-1.34682e-05
0.000199286
-1.3381e-05
0.000202612
-1.329e-05
0.000205914
-1.3195e-05
0.000209192
-1.3096e-05
0.000212444
-1.29929e-05
0.000215669
-1.28856e-05
0.000218866
-1.27741e-05
0.000222034
-1.26583e-05
0.000225173
-1.25381e-05
0.00022828
-1.24136e-05
0.000231355
-1.22846e-05
0.000234397
-1.21511e-05
0.000237404
-1.2013e-05
0.000240376
-1.18704e-05
0.000243311
-1.17233e-05
0.000246208
-1.15715e-05
0.000249065
-1.14151e-05
0.000251883
-1.12541e-05
0.000254659
-1.10884e-05
0.000257393
-1.09182e-05
0.000260082
-1.07433e-05
0.000262727
-1.05639e-05
0.000265326
-1.03799e-05
0.000267878
-1.01914e-05
0.000270382
-9.99843e-06
0.000272836
-9.80104e-06
0.000275239
-9.59929e-06
0.000277591
-9.39324e-06
0.000279891
-9.18296e-06
0.000282136
-8.96854e-06
0.000284327
-8.75006e-06
0.000286462
-8.52761e-06
0.000288541
-8.3013e-06
0.000290562
-8.07122e-06
0.000292525
-7.83751e-06
0.000294428
-7.60027e-06
0.00029627
-7.35964e-06
0.000298052
-7.11574e-06
0.000299772
-6.86872e-06
0.000301429
-6.61872e-06
0.000303023
-6.3659e-06
0.000304553
-6.1104e-06
0.000306018
-5.85239e-06
0.000307418
-5.59203e-06
0.000308752
-5.32948e-06
0.00031002
-5.06493e-06
0.000311221
-4.79854e-06
0.000312355
-4.53049e-06
0.000313421
-4.26096e-06
0.000314419
-3.99013e-06
0.00031535
-3.71818e-06
0.000316212
-3.4453e-06
0.000317005
-3.17167e-06
0.00031773
-2.89748e-06
0.000318386
-2.62291e-06
0.000318973
-2.34815e-06
0.000319491
-2.07338e-06
0.00031994
-1.79879e-06
0.000320321
-1.52455e-06
0.000320633
-1.25085e-06
0.000320877
-9.77861e-07
0.000321052
-7.05758e-07
0.00032116
-4.34714e-07
0.0003212
-1.64896e-07
0.000321173
1.03531e-07
0.000321079
3.70407e-07
0.000320918
6.35576e-07
0.000320692
8.98886e-07
0.0003204
1.16019e-06
0.000320043
1.41935e-06
0.000319622
1.67622e-06
0.000319137
1.93067e-06
0.000318589
2.18258e-06
0.000317979
2.43182e-06
0.000317307
2.67828e-06
0.000316574
2.92185e-06
0.00031578
3.16242e-06
0.000314927
3.3999e-06
0.000314016
3.63419e-06
0.000313047
3.86521e-06
0.000312021
4.09287e-06
0.000310938
4.31712e-06
0.000309801
4.53786e-06
0.000308609
4.75506e-06
0.000307363
4.96863e-06
0.000306066
5.17855e-06
0.000304716
5.38475e-06
0.000303316
5.58721e-06
0.000301866
5.78588e-06
0.000300368
5.98074e-06
0.000298821
6.17177e-06
0.000297228
6.35894e-06
0.000295589
6.54224e-06
0.000293906
6.72166e-06
0.000292178
6.89721e-06
0.000290407
7.06887e-06
0.000288595
7.23665e-06
0.000286741
7.40057e-06
0.000284848
7.56064e-06
0.000282915
7.71686e-06
0.000280944
7.86927e-06
0.000278937
8.01789e-06
0.000276893
8.16273e-06
0.000274814
8.30384e-06
0.0002727
8.44124e-06
0.000270553
8.57497e-06
0.000268374
8.70506e-06
0.000266163
8.83157e-06
0.000263921
8.95452e-06
0.00026165
9.07398e-06
0.000259349
9.18997e-06
0.00025702
9.30256e-06
0.000254665
9.41179e-06
0.000252282
9.51772e-06
0.000249874
9.62039e-06
0.000247442
9.71987e-06
0.000244985
9.81621e-06
0.000242505
9.90945e-06
0.000240002
9.99968e-06
0.000237478
1.00869e-05
0.000234933
1.01713e-05
0.000232367
1.02527e-05
0.000229782
1.03314e-05
0.000227178
1.04074e-05
0.000224555
1.04806e-05
0.000221915
1.05513e-05
0.000219258
1.06194e-05
0.000216585
1.0685e-05
0.000213896
1.07481e-05
0.000211191
1.08089e-05
0.000208473
1.08674e-05
0.00020574
1.09236e-05
0.000202993
1.09776e-05
0.000200234
1.10295e-05
0.000197463
1.10793e-05
0.000194679
1.1127e-05
0.000191884
1.11728e-05
0.000189078
1.12167e-05
0.000186262
1.12587e-05
0.000183436
1.12989e-05
0.0001806
1.13374e-05
0.000177755
1.13741e-05
0.000174901
1.14093e-05
0.000172039
1.14428e-05
0.000169169
1.14748e-05
0.000166292
1.15053e-05
0.000163407
1.15343e-05
0.000160515
1.1562e-05
0.000157617
1.15883e-05
0.000154713
1.16133e-05
0.000151802
1.16371e-05
0.000148886
1.16597e-05
0.000145965
1.16811e-05
0.000143039
1.17014e-05
0.000140108
1.17206e-05
0.000137172
1.17388e-05
0.000134232
1.17559e-05
0.000131288
1.17722e-05
0.000128341
1.17875e-05
0.00012539
1.18019e-05
0.000122435
1.18155e-05
0.000119477
1.18283e-05
0.000116516
1.18403e-05
0.000113553
1.18516e-05
0.000110587
1.18621e-05
0.000107618
1.18721e-05
0.000104647
1.18813e-05
0.000101674
1.189e-05
9.86993e-05
1.18981e-05
9.57224e-05
1.19056e-05
9.27438e-05
1.19126e-05
8.97636e-05
1.19191e-05
8.67819e-05
1.19252e-05
8.37988e-05
1.19308e-05
8.08144e-05
1.1936e-05
7.78289e-05
1.19408e-05
7.48423e-05
1.19452e-05
7.18546e-05
1.19493e-05
6.88661e-05
1.19531e-05
6.58767e-05
1.19565e-05
6.28865e-05
1.19597e-05
5.98956e-05
1.19626e-05
5.69041e-05
1.19652e-05
5.3912e-05
1.19676e-05
5.09193e-05
1.19698e-05
4.79262e-05
1.19718e-05
4.49326e-05
1.19736e-05
4.19387e-05
1.19752e-05
3.89444e-05
1.19767e-05
3.59497e-05
1.1978e-05
3.29548e-05
1.19791e-05
2.99597e-05
1.19802e-05
2.69643e-05
1.19811e-05
2.39687e-05
1.19819e-05
2.0973e-05
1.19826e-05
1.79771e-05
1.19831e-05
1.49811e-05
1.19836e-05
1.1985e-05
1.1984e-05
8.9888e-06
1.19844e-05
5.99257e-06
1.19846e-05
2.99629e-06
1.19848e-05
1.19848e-05
3.71356e-06
-1.85656e-05
7.42706e-06
-1.85653e-05
1.11404e-05
-1.85646e-05
1.48536e-05
-1.85636e-05
1.85665e-05
-1.85622e-05
2.22791e-05
-1.85605e-05
2.59913e-05
-1.85583e-05
2.9703e-05
-1.85557e-05
3.34142e-05
-1.85527e-05
3.71247e-05
-1.85492e-05
4.08344e-05
-1.85452e-05
4.45433e-05
-1.85406e-05
4.82511e-05
-1.85354e-05
5.19579e-05
-1.85296e-05
5.56635e-05
-1.85231e-05
5.93676e-05
-1.85159e-05
6.30703e-05
-1.85078e-05
6.67712e-05
-1.84989e-05
7.04702e-05
-1.84891e-05
7.41672e-05
-1.84782e-05
7.78618e-05
-1.84663e-05
8.1554e-05
-1.84533e-05
8.52434e-05
-1.8439e-05
8.89297e-05
-1.84235e-05
9.26128e-05
-1.84065e-05
9.62924e-05
-1.83881e-05
9.9968e-05
-1.83681e-05
0.000103639
-1.83464e-05
0.000107306
-1.8323e-05
0.000110968
-1.82978e-05
0.000114625
-1.82705e-05
0.000118276
-1.82413e-05
0.00012192
-1.82098e-05
0.000125558
-1.81761e-05
0.00012919
-1.81399e-05
0.000132813
-1.81013e-05
0.000136428
-1.80601e-05
0.000140035
-1.80161e-05
0.000143632
-1.79692e-05
0.00014722
-1.79194e-05
0.000150797
-1.78665e-05
0.000154363
-1.78104e-05
0.000157918
-1.7751e-05
0.00016146
-1.76881e-05
0.000164988
-1.76216e-05
0.000168503
-1.75514e-05
0.000172003
-1.74774e-05
0.000175488
-1.73994e-05
0.000178957
-1.73174e-05
0.000182408
-1.72312e-05
0.000185842
-1.71407e-05
0.000189256
-1.70458e-05
0.000192651
-1.69464e-05
0.000196025
-1.68423e-05
0.000199378
-1.67335e-05
0.000202708
-1.66199e-05
0.000206014
-1.65013e-05
0.000209296
-1.63777e-05
0.000212552
-1.62489e-05
0.000215781
-1.61149e-05
0.000218983
-1.59757e-05
0.000222155
-1.5831e-05
0.000225298
-1.56809e-05
0.00022841
-1.55253e-05
0.000231489
-1.53641e-05
0.000234536
-1.51973e-05
0.000237547
-1.50248e-05
0.000240524
-1.48466e-05
0.000243463
-1.46627e-05
0.000246365
-1.4473e-05
0.000249227
-1.42775e-05
0.000252049
-1.40762e-05
0.00025483
-1.38692e-05
0.000257568
-1.36563e-05
0.000260263
-1.34377e-05
0.000262912
-1.32134e-05
0.000265516
-1.29833e-05
0.000268072
-1.27476e-05
0.00027058
-1.25063e-05
0.000273038
-1.22595e-05
0.000275446
-1.20072e-05
0.000277802
-1.17495e-05
0.000280106
-1.14865e-05
0.000282356
-1.12183e-05
0.00028455
-1.0945e-05
0.00028669
-1.06668e-05
0.000288772
-1.03837e-05
0.000290797
-1.00959e-05
0.000292763
-9.80349e-06
0.000294669
-9.50671e-06
0.000296515
-9.20566e-06
0.0002983
-8.90053e-06
0.000300023
-8.59149e-06
0.000301683
-8.27871e-06
0.000303279
-7.96239e-06
0.000304811
-7.64272e-06
0.000306279
-7.3199e-06
0.000307681
-6.99413e-06
0.000309017
-6.66563e-06
0.000310287
-6.33461e-06
0.00031149
-6.00129e-06
0.000312625
-5.6659e-06
0.000313693
-5.32864e-06
0.000314692
-4.98976e-06
0.000315624
-4.64948e-06
0.000316486
-4.30804e-06
0.00031728
-3.96566e-06
0.000318005
-3.62257e-06
0.000318662
-3.27901e-06
0.000319249
-2.93522e-06
0.000319767
-2.59142e-06
0.000320216
-2.24783e-06
0.000320596
-1.9047e-06
0.000320907
-1.56224e-06
0.00032115
-1.22068e-06
0.000321325
-8.80227e-07
0.000321431
-5.41107e-07
0.00032147
-2.03526e-07
0.000321441
1.32308e-07
0.000321345
4.66196e-07
0.000321183
7.97942e-07
0.000320954
1.12736e-06
0.00032066
1.45425e-06
0.000320301
1.77845e-06
0.000319877
2.09979e-06
0.00031939
2.41809e-06
0.000318839
2.7332e-06
0.000318226
3.04497e-06
0.000317551
3.35325e-06
0.000316815
3.65791e-06
0.000316019
3.95881e-06
0.000315163
4.25583e-06
0.000314248
4.54885e-06
0.000313276
4.83778e-06
0.000312246
5.1225e-06
0.00031116
5.40293e-06
0.000310019
5.67899e-06
0.000308824
5.95058e-06
0.000307574
6.21765e-06
0.000306273
6.48013e-06
0.00030492
6.73796e-06
0.000303516
6.9911e-06
0.000302062
7.23949e-06
0.00030056
7.48311e-06
0.00029901
7.72193e-06
0.000297413
7.95592e-06
0.00029577
8.18506e-06
0.000294082
8.40935e-06
0.000292351
8.62878e-06
0.000290576
8.84335e-06
0.00028876
9.05306e-06
0.000286902
9.25794e-06
0.000285005
9.45799e-06
0.000283069
9.65324e-06
0.000281094
9.8437e-06
0.000279083
1.00294e-05
0.000277035
1.02104e-05
0.000274952
1.03867e-05
0.000272835
1.05584e-05
0.000270684
1.07255e-05
0.000268501
1.08881e-05
0.000266287
1.10461e-05
0.000264042
1.11997e-05
0.000261767
1.1349e-05
0.000259463
1.14939e-05
0.000257131
1.16345e-05
0.000254772
1.17709e-05
0.000252386
1.19033e-05
0.000249975
1.20315e-05
0.000247539
1.21557e-05
0.000245079
1.22761e-05
0.000242596
1.23925e-05
0.000240091
1.25052e-05
0.000237563
1.26141e-05
0.000235015
1.27194e-05
0.000232447
1.28212e-05
0.000229859
1.29194e-05