/*--------------------------------*- C++ -*----------------------------------*\
| =========                 |                                                 |
| \\      /  F ield         | OpenFOAM: The Open Source CFD Toolbox           |
|  \\    /   O peration     | Version:  v2012                                 |
|   \\  /    A nd           | Website:  www.openfoam.com                      |
|    \\/     M anipulation  |                                                 |
\*---------------------------------------------------------------------------*/
FoamFile
{
    version     2.0;
    format      ascii;
    class       volScalarField;
    location    "0";
    object      p;
}
// * * * * * * * * * * * * * * * * * * * * * * * * * * * * * * * * * * * * * //

dimensions      [0 2 -2 0 0 0 0];


internalField   nonuniform List<scalar> 
4000
(
2.12431e-13
2.0551e-13
2.05406e-13
2.02161e-13
2.05829e-13
2.17526e-13
2.22122e-13
2.14402e-13
2.03971e-13
2.01377e-13
2.05004e-13
2.08754e-13
2.0204e-13
1.91052e-13
1.84488e-13
1.88325e-13
2.0022e-13
1.90296e-13
1.75343e-13
1.68292e-13
1.65823e-13
1.65455e-13
1.56167e-13
1.51149e-13
1.47919e-13
1.47631e-13
1.55575e-13
1.5381e-13
1.41476e-13
1.26563e-13
1.29112e-13
1.36199e-13
1.34905e-13
1.307e-13
1.26269e-13
1.2788e-13
1.25194e-13
1.12633e-13
1.12624e-13
1.10317e-13
1.14202e-13
1.22028e-13
1.2194e-13
1.19947e-13
1.11678e-13
1.09139e-13
1.12798e-13
1.12857e-13
1.10686e-13
1.09487e-13
1.08927e-13
1.01519e-13
1.01968e-13
9.51664e-14
9.47821e-14
8.5457e-14
9.989e-14
1.08417e-13
1.08026e-13
1.11931e-13
1.10325e-13
1.03345e-13
1.00706e-13
8.7528e-14
9.38888e-14
1.00227e-13
9.62028e-14
9.37521e-14
9.42945e-14
8.7746e-14
8.74939e-14
8.8987e-14
7.79126e-14
7.54381e-14
7.67136e-14
7.52308e-14
8.47487e-14
8.36985e-14
8.1378e-14
7.5055e-14
6.77533e-14
6.37658e-14
5.66488e-14
5.24773e-14
5.62517e-14
5.35275e-14
3.07476e-14
3.55404e-14
3.22873e-14
2.95716e-14
3.41962e-14
3.67311e-14
3.30164e-14
3.11134e-14
2.77246e-14
2.50682e-14
1.94279e-14
1.96102e-14
1.21583e-14
2.42039e-15
2.0845e-13
2.06168e-13
2.05035e-13
2.07023e-13
2.0826e-13
2.17821e-13
2.13741e-13
2.09935e-13
2.1171e-13
2.11487e-13
1.98922e-13
2.02662e-13
2.01305e-13
1.96957e-13
1.91188e-13
1.87191e-13
1.92043e-13
1.88321e-13
1.75136e-13
1.69296e-13
1.67988e-13
1.68415e-13
1.58922e-13
1.50805e-13
1.44264e-13
1.46503e-13
1.57485e-13
1.54067e-13
1.41155e-13
1.27248e-13
1.33206e-13
1.34159e-13
1.31969e-13
1.30419e-13
1.25175e-13
1.25111e-13
1.23795e-13
1.16173e-13
1.13394e-13
1.19983e-13
1.14453e-13
1.17498e-13
1.12718e-13
1.16846e-13
1.15184e-13
1.14092e-13
1.14471e-13
1.08973e-13
1.10559e-13
1.07634e-13
1.0816e-13
9.9493e-14
1.01435e-13
9.3201e-14
9.48978e-14
9.55702e-14
9.82446e-14
1.05787e-13
1.09463e-13
1.10328e-13
1.1039e-13
1.0361e-13
1.00717e-13
9.29162e-14
9.5308e-14
9.63613e-14
9.32974e-14
9.2452e-14
9.48076e-14
8.77242e-14
8.95144e-14
9.03755e-14
8.48272e-14
7.65184e-14
7.74393e-14
7.2872e-14
8.29983e-14
8.22795e-14
8.18287e-14
7.4152e-14
6.5396e-14
6.15594e-14
6.35264e-14
5.64906e-14
5.03415e-14
4.89635e-14
3.6909e-14
3.08072e-14
2.95476e-14
2.84606e-14
3.51936e-14
3.51308e-14
3.50687e-14
3.22119e-14
2.68674e-14
2.67623e-14
2.2475e-14
2.28704e-14
1.0859e-14
3.61645e-15
2.05708e-13
2.03345e-13
2.04466e-13
2.06015e-13
2.10911e-13
2.17879e-13
2.11355e-13
2.08266e-13
2.07581e-13
2.13226e-13
2.07974e-13
2.03677e-13
2.01726e-13
1.95772e-13
1.90736e-13
1.90972e-13
1.88949e-13
1.86415e-13
1.71261e-13
1.69903e-13
1.66662e-13
1.65749e-13
1.636e-13
1.56175e-13
1.45992e-13
1.51288e-13
1.50268e-13
1.45492e-13
1.38889e-13
1.28135e-13
1.31346e-13
1.36035e-13
1.29599e-13
1.30836e-13
1.22727e-13
1.20472e-13
1.24056e-13
1.21807e-13
1.15843e-13
1.1121e-13
1.0986e-13
1.11733e-13
1.10434e-13
1.19485e-13
1.19534e-13
1.19056e-13
1.14579e-13
1.10276e-13
1.11851e-13
1.09932e-13
1.04628e-13
1.00991e-13
9.96879e-14
9.01795e-14
9.17023e-14
9.51162e-14
9.95069e-14
1.09993e-13
1.14796e-13
1.11976e-13
1.03231e-13
9.86703e-14
9.32001e-14
9.67348e-14
1.00909e-13
9.80257e-14
9.3341e-14
8.99525e-14
9.2017e-14
8.79265e-14
8.42706e-14
8.97718e-14
8.16415e-14
7.63537e-14
7.77773e-14
7.9481e-14
8.35752e-14
8.16499e-14
7.65206e-14
7.42085e-14
7.13986e-14
6.5814e-14
5.60432e-14
5.90502e-14
4.97368e-14
4.80151e-14
4.18329e-14
3.27726e-14
2.84841e-14
2.71213e-14
3.20454e-14
3.11273e-14
3.56617e-14
3.55315e-14
2.52297e-14
2.90707e-14
2.41243e-14
2.04868e-14
1.63233e-14
8.6581e-15
2.0425e-13
2.0454e-13
2.06278e-13
2.0551e-13
2.12158e-13
2.11597e-13
2.09319e-13
2.0564e-13
2.11611e-13
2.19035e-13
2.07596e-13
1.98575e-13
1.97025e-13
2.00055e-13
1.98456e-13
1.94568e-13
1.85876e-13
1.79531e-13
1.75315e-13
1.70817e-13
1.67734e-13
1.62538e-13
1.60536e-13
1.50292e-13
1.44295e-13
1.51051e-13
1.49143e-13
1.44566e-13
1.39295e-13
1.33537e-13
1.34857e-13
1.35057e-13
1.26652e-13
1.29072e-13
1.21659e-13
1.22863e-13
1.25191e-13
1.20484e-13
1.12941e-13
1.09716e-13
1.17382e-13
1.12746e-13
1.09764e-13
1.1743e-13
1.16044e-13
1.18004e-13
1.16747e-13
1.16851e-13
1.11026e-13
1.05209e-13
1.02265e-13
1.04728e-13
9.96028e-14
9.3338e-14
8.9337e-14
9.3506e-14
9.90194e-14
1.09156e-13
1.15421e-13
1.04944e-13
1.03232e-13
9.9399e-14
9.98884e-14
9.74022e-14
1.01166e-13
9.28118e-14
9.41502e-14
9.59167e-14
9.07911e-14
9.22373e-14
8.67464e-14
8.71816e-14
8.04944e-14
8.40434e-14
7.89211e-14
7.64931e-14
8.19654e-14
8.14334e-14
7.50256e-14
7.28443e-14
7.0542e-14
6.83108e-14
6.03694e-14
5.56104e-14
5.11418e-14
4.77697e-14
4.08704e-14
3.19845e-14
2.31652e-14
2.5913e-14
3.23158e-14
3.13613e-14
3.78197e-14
3.37177e-14
2.86037e-14
2.83484e-14
3.01996e-14
2.10295e-14
1.07947e-14
7.29006e-15
2.06507e-13
2.06228e-13
2.04143e-13
2.02869e-13
1.99149e-13
2.11535e-13
2.1366e-13
2.12549e-13
2.08869e-13
2.12667e-13
2.11634e-13
2.02994e-13
1.90252e-13
1.90198e-13
1.93955e-13
1.98893e-13
1.92426e-13
1.80742e-13
1.71008e-13
1.66651e-13
1.6911e-13
1.65689e-13
1.54672e-13
1.48049e-13
1.47081e-13
1.52576e-13
1.50307e-13
1.42761e-13
1.41593e-13
1.37551e-13
1.35952e-13
1.34741e-13
1.26561e-13
1.25083e-13
1.201e-13
1.21717e-13
1.20065e-13
1.19062e-13
1.16884e-13
1.12979e-13
1.10221e-13
1.15024e-13
1.11556e-13
1.15678e-13
1.141e-13
1.16226e-13
1.16926e-13
1.09792e-13
1.10826e-13
1.13379e-13
1.03083e-13
1.04039e-13
1.00762e-13
9.40818e-14
9.39423e-14
9.35277e-14
9.54366e-14
1.03486e-13
1.13855e-13
1.09308e-13
1.02179e-13
1.00311e-13
1.01496e-13
9.58616e-14
9.63695e-14
9.94259e-14
1.02427e-13
1.00439e-13
9.23542e-14
8.9534e-14
8.23632e-14
8.16516e-14
8.27935e-14
7.80662e-14
7.80673e-14
7.76777e-14
7.63273e-14
7.85361e-14
7.73191e-14
7.53315e-14
7.24436e-14
6.68908e-14
5.87007e-14
5.52821e-14
4.49323e-14
4.40475e-14
4.3856e-14
3.58465e-14
2.39515e-14
2.63916e-14
3.44631e-14
2.9554e-14
3.60029e-14
3.82994e-14
3.34319e-14
3.10635e-14
2.66579e-14
1.98954e-14
8.97599e-15
4.16244e-15
2.01172e-13
2.06777e-13
2.06935e-13
2.0217e-13
2.08635e-13
2.15862e-13
2.14162e-13
2.13287e-13
2.07323e-13
2.02243e-13
2.04025e-13
2.02674e-13
2.00712e-13
1.97964e-13
1.96052e-13
1.95264e-13
1.93142e-13
1.87224e-13
1.77711e-13
1.62657e-13
1.65662e-13
1.64226e-13
1.52795e-13
1.43604e-13
1.4775e-13
1.54569e-13
1.43945e-13
1.38664e-13
1.39221e-13
1.37911e-13
1.39747e-13
1.35662e-13
1.31951e-13
1.25032e-13
1.25759e-13
1.2146e-13
1.18668e-13
1.18917e-13
1.12775e-13
1.14323e-13
1.17135e-13
1.15985e-13
1.09552e-13
1.14203e-13
1.14897e-13
1.13401e-13
1.12068e-13
1.08345e-13
1.09913e-13
1.06529e-13
1.04152e-13
1.04011e-13
1.01441e-13
9.55833e-14
9.75271e-14
9.43264e-14
9.38121e-14
1.03518e-13
1.08324e-13
1.10988e-13
1.05079e-13
9.88842e-14
1.01081e-13
9.14146e-14
1.00102e-13
9.79451e-14
1.05803e-13
1.00592e-13
9.20205e-14
9.49889e-14
8.39745e-14
8.00857e-14
8.14747e-14
7.62336e-14
7.8264e-14
8.39843e-14
8.23854e-14
7.4298e-14
7.33424e-14
7.46894e-14
7.42693e-14
6.43541e-14
5.60367e-14
5.21049e-14
4.4625e-14
4.55155e-14
4.16785e-14
3.48184e-14
2.47696e-14
2.43078e-14
3.18974e-14
3.115e-14
3.73676e-14
3.71822e-14
3.23227e-14
3.12475e-14
2.53704e-14
1.59893e-14
8.47864e-15
2.9209e-15
2.04405e-13
2.06266e-13
2.04858e-13
2.07508e-13
2.0958e-13
2.10912e-13
2.13048e-13
2.13404e-13
2.08445e-13
2.05647e-13
2.05781e-13
1.99169e-13
2.02391e-13
1.9538e-13
1.90974e-13
1.93024e-13
1.96497e-13
1.89062e-13
1.76424e-13
1.6294e-13
1.54552e-13
1.53171e-13
1.56099e-13
1.52418e-13
1.47575e-13
1.51735e-13
1.42948e-13
1.38236e-13
1.4148e-13
1.43614e-13
1.44398e-13
1.35051e-13
1.2758e-13
1.22087e-13
1.20556e-13
1.1653e-13
1.21138e-13
1.20593e-13
1.13685e-13
1.13704e-13
1.13398e-13
1.1505e-13
1.13161e-13
1.14732e-13
1.16328e-13
1.1103e-13
1.06377e-13
1.02924e-13
1.07122e-13
1.07528e-13
1.02372e-13
1.02909e-13
1.01677e-13
1.00503e-13
1.02307e-13
9.82986e-14
9.73588e-14
9.91491e-14
1.02406e-13
1.07284e-13
1.10806e-13
1.04751e-13
9.97501e-14
9.5446e-14
9.54342e-14
9.19366e-14
1.03358e-13
9.27712e-14
8.83337e-14
8.99373e-14
9.27774e-14
9.09701e-14
8.138e-14
7.90836e-14
8.26677e-14
8.18726e-14
7.59098e-14
7.17034e-14
7.702e-14
7.48359e-14
7.04588e-14
6.17046e-14
5.91712e-14
5.59596e-14
4.64077e-14
4.12778e-14
3.75312e-14
3.33232e-14
2.56003e-14
2.70045e-14
3.33695e-14
2.7492e-14
3.43513e-14
3.40508e-14
3.37274e-14
2.97381e-14
2.36618e-14
1.30157e-14
6.031e-15
1.81866e-15
2.02756e-13
2.05428e-13
2.03587e-13
2.09211e-13
2.17902e-13
2.19491e-13
2.12394e-13
2.10698e-13
2.06833e-13
2.02444e-13
2.06945e-13
2.02775e-13
2.00625e-13
1.93607e-13
1.95789e-13
1.96583e-13
1.94773e-13
1.84357e-13
1.72267e-13
1.62518e-13
1.64064e-13
1.69506e-13
1.58799e-13
1.47655e-13
1.44861e-13
1.41461e-13
1.36421e-13
1.37762e-13
1.39747e-13
1.44574e-13
1.4413e-13
1.40585e-13
1.36313e-13
1.2832e-13
1.26832e-13
1.19139e-13
1.16769e-13
1.16337e-13
1.12956e-13
1.10165e-13
1.10648e-13
1.17105e-13
1.14712e-13
1.24724e-13
1.21566e-13
1.04841e-13
1.01785e-13
9.7426e-14
1.05684e-13
1.03007e-13
1.03381e-13
1.12221e-13
1.08542e-13
1.02412e-13
9.88601e-14
9.61689e-14
9.7641e-14
1.03674e-13
1.0378e-13
1.02126e-13
1.01837e-13
1.0216e-13
1.03258e-13
1.03166e-13
1.0011e-13
9.635e-14
1.00432e-13
9.78335e-14
9.3186e-14
9.46654e-14
9.37139e-14
9.06235e-14
8.27176e-14
7.37968e-14
7.809e-14
8.10698e-14
8.03695e-14
7.58918e-14
7.96123e-14
7.05569e-14
6.85904e-14
6.52814e-14
5.50736e-14
5.04498e-14
4.03694e-14
3.88215e-14
3.81024e-14
3.47246e-14
2.69327e-14
2.84405e-14
3.02752e-14
3.08799e-14
3.09315e-14
3.18917e-14
3.22036e-14
2.53916e-14
2.145e-14
1.57301e-14
6.65612e-15
3.94715e-16
2.07399e-13
2.10486e-13
2.09559e-13
2.08931e-13
2.09085e-13
2.15563e-13
2.15392e-13
2.1275e-13
2.08229e-13
2.07258e-13
2.05052e-13
1.91834e-13
1.90185e-13
1.92285e-13
1.93995e-13
1.97102e-13
1.96008e-13
1.87107e-13
1.74275e-13
1.62996e-13
1.62255e-13
1.64685e-13
1.59773e-13
1.53466e-13
1.41597e-13
1.37207e-13
1.34988e-13
1.35165e-13
1.42405e-13
1.49453e-13
1.49597e-13
1.45579e-13
1.30615e-13
1.21757e-13
1.17827e-13
1.23114e-13
1.18081e-13
1.16905e-13
1.16816e-13
1.13675e-13
1.1723e-13
1.23721e-13
1.11708e-13
1.0976e-13
1.04899e-13
1.03851e-13
1.03198e-13
9.81422e-14
1.03595e-13
1.05307e-13
1.05375e-13
1.07588e-13
1.07304e-13
1.03267e-13
1.05287e-13
1.05236e-13
1.04169e-13
1.05052e-13
1.03391e-13
9.87918e-14
9.78644e-14
9.72291e-14
1.02265e-13
1.03056e-13
1.01018e-13
9.62624e-14
1.01752e-13
9.92731e-14
9.38356e-14
9.23402e-14
9.19834e-14
9.08841e-14
9.1691e-14
8.44856e-14
7.85744e-14
8.2208e-14
7.90351e-14
7.67341e-14
7.58798e-14
7.37457e-14
6.69272e-14
6.3317e-14
5.5773e-14
4.59604e-14
3.80151e-14
3.97868e-14
4.25511e-14
3.7201e-14
2.46823e-14
2.65518e-14
3.12101e-14
2.7103e-14
2.72969e-14
2.68927e-14
3.03225e-14
2.4324e-14
1.72719e-14
1.39408e-14
7.22481e-15
-1.34475e-16
2.10363e-13
2.09313e-13
2.11675e-13
2.10926e-13
2.06831e-13
2.1213e-13
2.14843e-13
2.0989e-13
2.10443e-13
2.08935e-13
2.02449e-13
1.89793e-13
1.89571e-13
1.92492e-13
1.97717e-13
2.02726e-13
1.94084e-13
1.83597e-13
1.76816e-13
1.68229e-13
1.59851e-13
1.48799e-13
1.59039e-13
1.55707e-13
1.45309e-13
1.38169e-13
1.32897e-13
1.37599e-13
1.41881e-13
1.46044e-13
1.52318e-13
1.45755e-13
1.36526e-13
1.22758e-13
1.18437e-13
1.18152e-13
1.18766e-13
1.21356e-13
1.17223e-13
1.13268e-13
1.14666e-13
1.17154e-13
1.11155e-13
1.12543e-13
1.08075e-13
1.06392e-13
1.06901e-13
9.94552e-14
1.02061e-13
1.05009e-13
1.0525e-13
1.06891e-13
1.08213e-13
1.04634e-13
1.08519e-13
1.05321e-13
1.08883e-13
1.01871e-13
1.0095e-13
1.04396e-13
1.02022e-13
1.06073e-13
1.02478e-13
1.02698e-13
1.0128e-13
9.67228e-14
9.12322e-14
9.34816e-14
9.82284e-14
9.49402e-14
9.90896e-14
9.19325e-14
9.61255e-14
8.43726e-14
8.17696e-14
8.17284e-14
7.93245e-14
6.84916e-14
7.51757e-14
7.31435e-14
6.72758e-14
6.18074e-14
5.41173e-14
4.62879e-14
3.48741e-14
3.68804e-14
3.86979e-14
3.96547e-14
2.77836e-14
2.8181e-14
2.79423e-14
2.16945e-14
2.28947e-14
2.3378e-14
2.34292e-14
1.70953e-14
1.29191e-14
1.26348e-14
7.67239e-15
2.93177e-15
2.10027e-13
2.09091e-13
2.10298e-13
2.1447e-13
2.11612e-13
2.12934e-13
2.11223e-13
2.08191e-13
2.05467e-13
2.07617e-13
2.00616e-13
1.92631e-13
1.94263e-13
1.93088e-13
1.96006e-13
1.97034e-13
1.87305e-13
1.81828e-13
1.79723e-13
1.72158e-13
1.62556e-13
1.50924e-13
1.49224e-13
1.51442e-13
1.38242e-13
1.38042e-13
1.36933e-13
1.40853e-13
1.45558e-13
1.47321e-13
1.45683e-13
1.47857e-13
1.37408e-13
1.2575e-13
1.24519e-13
1.1826e-13
1.19131e-13
1.18137e-13
1.13687e-13
1.15187e-13
1.1998e-13
1.17154e-13
1.13632e-13
1.13342e-13
1.06988e-13
9.75008e-14
1.0068e-13
1.01053e-13
1.06757e-13
1.0366e-13
1.06007e-13
1.06547e-13
1.07761e-13
1.08362e-13
1.07779e-13
1.085e-13
1.10631e-13
1.02865e-13
1.0176e-13
1.01512e-13
1.00084e-13
1.0231e-13
9.71752e-14
1.05594e-13
1.02875e-13
9.66414e-14
8.97999e-14
9.2936e-14
9.75078e-14
1.01162e-13
9.68198e-14
1.00901e-13
9.83616e-14
8.52747e-14
7.77722e-14
7.44302e-14
7.92988e-14
7.52011e-14
7.40682e-14
7.13147e-14
6.90916e-14
6.78121e-14
5.22166e-14
3.85285e-14
3.88414e-14
3.07588e-14
3.30574e-14
3.83148e-14
3.30589e-14
2.49746e-14
2.32549e-14
2.14078e-14
1.96711e-14
1.64926e-14
2.55768e-14
2.14593e-14
1.04595e-14
5.50829e-15
-1.77799e-15
-1.14565e-15
2.10201e-13
2.11684e-13
2.10608e-13
2.11457e-13
2.09598e-13
2.10438e-13
2.10461e-13
2.07397e-13
2.01088e-13
1.99625e-13
1.99973e-13
1.9696e-13
1.95812e-13
1.94047e-13
1.97272e-13
1.90406e-13
1.86468e-13
1.8354e-13
1.80511e-13
1.70456e-13
1.56356e-13
1.56988e-13
1.52232e-13
1.49608e-13
1.45234e-13
1.4165e-13
1.36796e-13
1.40752e-13
1.40331e-13
1.48058e-13
1.43399e-13
1.44566e-13
1.39718e-13
1.29573e-13
1.24212e-13
1.17399e-13
1.17066e-13
1.17227e-13
1.19375e-13
1.18725e-13
1.13902e-13
1.11511e-13
1.12317e-13
1.1472e-13
1.12588e-13
9.83997e-14
1.03085e-13
1.05409e-13
1.03335e-13
1.01348e-13
1.00781e-13
1.10081e-13
1.14777e-13
1.14652e-13
1.0921e-13
1.01604e-13
1.0769e-13
1.03161e-13
1.01277e-13
1.01484e-13
1.02293e-13
1.065e-13
1.04713e-13
1.02641e-13
9.49948e-14
9.93673e-14
9.59692e-14
8.79912e-14
9.8917e-14
9.70271e-14
9.57068e-14
1.02332e-13
1.01219e-13
8.64874e-14
7.56495e-14
7.38899e-14
7.50661e-14
6.93376e-14
7.21665e-14
8.10446e-14
7.0797e-14
5.86075e-14
5.07387e-14
4.39775e-14
4.13125e-14
3.24353e-14
3.09963e-14
3.34167e-14
3.13115e-14
2.6728e-14
2.20054e-14
1.95536e-14
1.78605e-14
1.94621e-14
2.06835e-14
1.60533e-14
7.17974e-15
3.54571e-15
5.67896e-16
1.62023e-15
2.09568e-13
2.10761e-13
2.05997e-13
2.13842e-13
2.11734e-13
2.09359e-13
2.09136e-13
1.99949e-13
1.99392e-13
1.93983e-13
1.97739e-13
1.92569e-13
2.00147e-13
1.97531e-13
1.92666e-13
1.91327e-13
1.88894e-13
1.87237e-13
1.82101e-13
1.71978e-13
1.49131e-13
1.42367e-13
1.42111e-13
1.54948e-13
1.47729e-13
1.41616e-13
1.33324e-13
1.40409e-13
1.5293e-13
1.53887e-13
1.4742e-13
1.40285e-13
1.32823e-13
1.29114e-13
1.31302e-13
1.20009e-13
1.16322e-13
1.17013e-13
1.20456e-13
1.19464e-13
1.14232e-13
1.14404e-13
1.16939e-13
1.15332e-13
1.11633e-13
9.88229e-14
1.0138e-13
1.00254e-13
1.05783e-13
1.05727e-13
1.0594e-13
1.13876e-13
1.10139e-13
1.05082e-13
1.05426e-13
1.13371e-13
1.11399e-13
9.62146e-14
9.2306e-14
9.37249e-14
1.03595e-13
1.02383e-13
1.03991e-13
1.01511e-13
9.74138e-14
9.95933e-14
9.46308e-14
9.07133e-14
9.95557e-14
9.60171e-14
9.65016e-14
1.04362e-13
1.06402e-13
9.39914e-14
7.74892e-14
7.22915e-14
7.29554e-14
7.14566e-14
7.03676e-14
7.48124e-14
7.03433e-14
6.27283e-14
5.43564e-14
4.38772e-14
4.61484e-14
3.20907e-14
2.81541e-14
3.2387e-14
3.26257e-14
2.94023e-14
2.28483e-14
2.02889e-14
1.51501e-14
1.88835e-14
1.57721e-14
1.38442e-14
1.01473e-14
2.01538e-15
4.52515e-16
-1.02885e-15
2.08286e-13
2.17022e-13
2.15077e-13
2.10913e-13
2.09916e-13
2.10037e-13
2.0714e-13
2.04799e-13
2.01028e-13
1.90019e-13
1.88857e-13
1.96587e-13
1.98313e-13
1.98506e-13
1.94336e-13
1.86817e-13
1.74744e-13
1.78226e-13
1.75507e-13
1.71025e-13
1.7038e-13
1.66993e-13
1.56153e-13
1.48117e-13
1.42778e-13
1.40158e-13
1.36231e-13
1.39376e-13
1.48601e-13
1.5174e-13
1.50688e-13
1.39839e-13
1.34208e-13
1.23402e-13
1.18228e-13
1.1934e-13
1.29215e-13
1.24873e-13
1.17819e-13
1.20711e-13
1.13534e-13
1.1466e-13
1.18824e-13
1.08576e-13
1.02478e-13
1.02549e-13
1.01802e-13
9.90591e-14
1.06224e-13
1.0946e-13
1.09226e-13
1.16112e-13
1.10095e-13
1.05294e-13
1.0559e-13
1.06461e-13
1.08106e-13
1.0874e-13
1.04244e-13
9.89598e-14
1.01405e-13
9.39574e-14
9.90807e-14
9.72994e-14
9.86989e-14
1.01334e-13
9.93972e-14
9.58793e-14
9.83574e-14
1.00515e-13
9.74326e-14
9.88555e-14
9.75766e-14
9.44712e-14
7.96457e-14
7.89255e-14
7.2646e-14
6.67504e-14
7.08857e-14
7.22066e-14
7.34266e-14
6.34224e-14
6.1655e-14
4.76557e-14
4.31633e-14
3.56846e-14
3.20041e-14
3.07646e-14
3.28758e-14
3.03051e-14
2.47202e-14
2.50569e-14
1.89391e-14
1.25086e-14
9.97098e-15
9.50485e-15
1.15876e-14
7.31622e-15
1.19178e-15
2.14343e-15
2.10001e-13
2.13238e-13
2.16541e-13
2.12102e-13
2.08435e-13
2.12526e-13
2.04595e-13
1.97354e-13
1.92083e-13
1.91358e-13
2.00822e-13
2.02753e-13
1.98076e-13
1.9391e-13
1.93733e-13
1.87004e-13
1.83398e-13
1.87139e-13
1.78777e-13
1.71096e-13
1.56297e-13
1.48184e-13
1.47963e-13
1.40771e-13
1.43657e-13
1.47293e-13
1.47483e-13
1.38852e-13
1.44225e-13
1.50418e-13
1.57095e-13
1.42055e-13
1.35914e-13
1.19588e-13
1.11015e-13
1.24209e-13
1.26382e-13
1.29565e-13
1.31816e-13
1.23639e-13
1.1298e-13
1.10056e-13
1.06026e-13
1.03615e-13
1.05027e-13
1.05597e-13
1.05042e-13
1.05466e-13
1.08601e-13
1.14881e-13
1.09828e-13
1.09552e-13
1.05772e-13
9.61317e-14
1.03114e-13
1.06754e-13
1.06946e-13
1.09799e-13
1.01724e-13
9.33231e-14
1.02808e-13
9.64669e-14
1.04413e-13
9.82264e-14
9.64532e-14
8.99333e-14
9.41287e-14
1.01038e-13
1.03553e-13
1.00275e-13
9.629e-14
9.84017e-14
9.28532e-14
9.51397e-14
8.79738e-14
7.05037e-14
7.05082e-14
6.95204e-14
7.60038e-14
7.72287e-14
7.71379e-14
6.49713e-14
6.31484e-14
5.23939e-14
4.00781e-14
3.62503e-14
3.19447e-14
3.3847e-14
3.22368e-14
2.99789e-14
2.43596e-14
2.21526e-14
1.97457e-14
1.35816e-14
8.60771e-15
7.3639e-15
8.56507e-15
9.06003e-15
3.54536e-15
4.1181e-16
2.09957e-13
2.18786e-13
2.14867e-13
2.11598e-13
2.08164e-13
2.11509e-13
2.13153e-13
2.05188e-13
1.9033e-13
1.8956e-13
1.92809e-13
1.94498e-13
1.96355e-13
1.95922e-13
1.97704e-13
1.86513e-13
1.80374e-13
1.77579e-13
1.66785e-13
1.67727e-13
1.70101e-13
1.60625e-13
1.54087e-13
1.47251e-13
1.44392e-13
1.47507e-13
1.50681e-13
1.48542e-13
1.39181e-13
1.47525e-13
1.47231e-13
1.3604e-13
1.32337e-13
1.23603e-13
1.1596e-13
1.2753e-13
1.3053e-13
1.23962e-13
1.3105e-13
1.27043e-13
1.15882e-13
1.03722e-13
1.05604e-13
1.03689e-13
1.07801e-13
1.09011e-13
1.06801e-13
1.12335e-13
1.09355e-13
1.07089e-13
1.05138e-13
1.09413e-13
1.07462e-13
9.96786e-14
1.04007e-13
1.06636e-13
1.05435e-13
1.11484e-13
1.09504e-13
9.97057e-14
9.6964e-14
9.28225e-14
9.86958e-14
9.45073e-14
9.35434e-14
9.49334e-14
9.59901e-14
9.65e-14
1.00153e-13
1.02185e-13
1.00293e-13
1.0046e-13
9.20049e-14
8.92442e-14
8.25104e-14
7.29027e-14
7.39069e-14
7.43788e-14
7.39588e-14
7.41871e-14
7.86635e-14
7.58717e-14
6.17146e-14
4.86353e-14
4.84461e-14
3.80005e-14
3.12356e-14
3.66369e-14
2.94572e-14
2.96647e-14
2.67113e-14
2.30271e-14
1.29816e-14
9.73078e-15
1.13542e-14
1.08819e-14
8.95847e-15
5.17576e-15
3.76039e-15
1.29255e-15
2.12858e-13
2.14436e-13
2.12692e-13
2.06366e-13
2.06286e-13
2.04171e-13
2.03951e-13
2.10031e-13
2.05857e-13
2.00634e-13
1.9752e-13
1.96333e-13
1.94838e-13
1.89031e-13
1.92288e-13
1.88496e-13
1.80797e-13
1.801e-13
1.82068e-13
1.65314e-13
1.5347e-13
1.50606e-13
1.48379e-13
1.49519e-13
1.47566e-13
1.52867e-13
1.53539e-13
1.46639e-13
1.42695e-13
1.45236e-13
1.45526e-13
1.39004e-13
1.31954e-13
1.26491e-13
1.19492e-13
1.31476e-13
1.30579e-13
1.2389e-13
1.30376e-13
1.25065e-13
1.17988e-13
9.8032e-14
1.01875e-13
1.06015e-13
1.11867e-13
1.11348e-13
1.08278e-13
1.15601e-13
1.13239e-13
1.08944e-13
1.06349e-13
1.07122e-13
1.09112e-13
1.02799e-13
1.02091e-13
1.06297e-13
1.04473e-13
1.03769e-13
1.08407e-13
1.02261e-13
9.55515e-14
9.18006e-14
9.6531e-14
9.79205e-14
9.67748e-14
9.91181e-14
9.59469e-14
9.62741e-14
9.61001e-14
9.96238e-14
9.74938e-14
9.56911e-14
9.13757e-14
9.33396e-14
8.5423e-14
7.75252e-14
7.4125e-14
7.50495e-14
7.50931e-14
7.79379e-14
7.88031e-14
7.04238e-14
5.63215e-14
5.00101e-14
4.3964e-14
4.29985e-14
4.10498e-14
3.67708e-14
3.28184e-14
2.87066e-14
2.59214e-14
1.90158e-14
1.4594e-14
1.01287e-14
8.02731e-15
1.22162e-14
1.00208e-14
1.53746e-15
3.56951e-15
2.23036e-15
2.14902e-13
2.13936e-13
2.10506e-13
2.06297e-13
2.16232e-13
2.14817e-13
2.02926e-13
2.04087e-13
2.02559e-13
2.02104e-13
1.98633e-13
2.01774e-13
1.93652e-13
1.8387e-13
1.84259e-13
1.84206e-13
1.83162e-13
1.83786e-13
1.74666e-13
1.69146e-13
1.61274e-13
1.48654e-13
1.41863e-13
1.50685e-13
1.55762e-13
1.55344e-13
1.51176e-13
1.44415e-13
1.44539e-13
1.51123e-13
1.45378e-13
1.3915e-13
1.33073e-13
1.28363e-13
1.21838e-13
1.28086e-13
1.26015e-13
1.28353e-13
1.30269e-13
1.25744e-13
1.21566e-13
1.09279e-13
1.07522e-13
1.05657e-13
1.08559e-13
1.1018e-13
1.1277e-13
1.07084e-13
1.12992e-13
1.09482e-13
1.068e-13
1.0535e-13
1.10288e-13
1.05565e-13
1.06185e-13
1.05374e-13
1.03861e-13
1.00175e-13
1.05023e-13
9.86885e-14
9.64787e-14
9.41414e-14
9.75157e-14
9.67735e-14
9.89691e-14
9.49259e-14
9.53805e-14
9.66278e-14
9.62276e-14
9.34515e-14
9.71079e-14
9.44358e-14
9.20937e-14
8.67372e-14
8.25304e-14
8.03645e-14
7.66291e-14
7.39666e-14
7.7781e-14
8.16072e-14
7.91242e-14
7.29307e-14
5.81421e-14
4.6803e-14
4.05831e-14
4.5519e-14
4.28247e-14
3.60461e-14
3.76364e-14
3.13965e-14
2.48137e-14
1.66974e-14
1.3676e-14
1.19307e-14
9.09859e-15
1.08611e-14
4.53911e-15
4.86833e-16
3.43474e-16
9.83141e-16
2.09729e-13
2.10416e-13
2.09971e-13
2.1052e-13
2.10557e-13
2.08773e-13
2.0331e-13
2.0653e-13
2.08959e-13
2.06849e-13
2.04468e-13
2.02245e-13
1.95433e-13
1.86222e-13
1.86312e-13
1.81811e-13
1.8254e-13
1.79869e-13
1.69017e-13
1.65015e-13
1.62686e-13
1.50586e-13
1.52647e-13
1.57491e-13
1.50517e-13
1.44814e-13
1.53066e-13
1.496e-13
1.48444e-13
1.50895e-13
1.45689e-13
1.37177e-13
1.27184e-13
1.3114e-13
1.25175e-13
1.27522e-13
1.34371e-13
1.33159e-13
1.28138e-13
1.20607e-13
1.17516e-13
1.14875e-13
1.08857e-13
1.04408e-13
1.08162e-13
1.13462e-13
1.13723e-13
1.22223e-13
1.22176e-13
1.05199e-13
1.03433e-13
1.07153e-13
1.09874e-13
1.0705e-13
1.08641e-13
1.05929e-13
1.01732e-13
9.6469e-14
1.03099e-13
1.00693e-13
1.05671e-13
9.82259e-14
9.70006e-14
9.52495e-14
9.56671e-14
9.40126e-14
9.74923e-14
9.56548e-14
9.47351e-14
9.48084e-14
9.27116e-14
9.09623e-14
9.13678e-14
8.39969e-14
8.51465e-14
7.78506e-14
8.1824e-14
7.95245e-14
7.51884e-14
7.29828e-14
8.0067e-14
7.76667e-14
5.76643e-14
4.98319e-14
4.84274e-14
4.25732e-14
4.23726e-14
3.65922e-14
3.72803e-14
3.225e-14
2.4805e-14
2.10376e-14
1.51641e-14
1.16652e-14
1.14113e-14
8.11267e-15
9.41128e-16
-4.02425e-15
-6.78649e-16
1.14649e-15
2.11924e-13
2.08962e-13
2.11439e-13
2.10265e-13
2.06346e-13
2.05817e-13
2.06463e-13
2.12131e-13
2.14373e-13
2.08867e-13
2.04015e-13
1.99027e-13
1.9842e-13
1.96496e-13
1.85798e-13
1.78582e-13
1.75687e-13
1.75535e-13
1.70504e-13
1.68778e-13
1.58831e-13
1.58806e-13
1.54334e-13
1.5128e-13
1.50535e-13
1.53002e-13
1.53712e-13
1.45271e-13
1.4773e-13
1.51843e-13
1.46194e-13
1.38034e-13
1.29716e-13
1.30074e-13
1.25893e-13
1.3059e-13
1.31561e-13
1.3442e-13
1.28631e-13
1.22127e-13
1.12916e-13
1.12762e-13
1.14513e-13
1.11945e-13
1.1802e-13
1.11713e-13
1.113e-13
1.18228e-13
1.17963e-13
1.10927e-13
1.15279e-13
1.06469e-13
1.02245e-13
1.02343e-13
1.08862e-13
1.0687e-13
1.01888e-13
1.05511e-13
1.00143e-13
1.01595e-13
1.08351e-13
1.01869e-13
1.00629e-13
9.80314e-14
9.37772e-14
9.51167e-14
9.83343e-14
9.0307e-14
9.19767e-14
9.62215e-14
9.37069e-14
9.19836e-14
8.84312e-14
8.28017e-14
8.61159e-14
7.93427e-14
7.73435e-14
8.03826e-14
8.0183e-14
7.98101e-14
7.15814e-14
7.23057e-14
6.03238e-14
5.4359e-14
5.4263e-14
4.6987e-14
3.99686e-14
3.55165e-14
3.26351e-14
2.56645e-14
2.59326e-14
2.19688e-14
2.22188e-14
1.62565e-14
7.83068e-15
1.37033e-15
2.25174e-15
-3.22039e-15
-5.52745e-15
3.54101e-15
2.1573e-13
2.08066e-13
2.08794e-13
2.09314e-13
2.03953e-13
2.04262e-13
2.07777e-13
2.13377e-13
2.16116e-13
2.07844e-13
2.03465e-13
2.01804e-13
2.02883e-13
2.02538e-13
1.89848e-13
1.76376e-13
1.77667e-13
1.73193e-13
1.67418e-13
1.61129e-13
1.60285e-13
1.5574e-13
1.52043e-13
1.51882e-13
1.50057e-13
1.53474e-13
1.51587e-13
1.47847e-13
1.47853e-13
1.44175e-13
1.44428e-13
1.39625e-13
1.31843e-13
1.30992e-13
1.28669e-13
1.25638e-13
1.28966e-13
1.29483e-13
1.31156e-13
1.29519e-13
1.16279e-13
1.20726e-13
1.15427e-13
1.14803e-13
1.12496e-13
1.17561e-13
1.15282e-13
1.19988e-13
1.21238e-13
1.1422e-13
1.13554e-13
1.02259e-13
1.0346e-13
1.06205e-13
1.08677e-13
1.09855e-13
1.01342e-13
1.10549e-13
1.06073e-13
1.02286e-13
1.03366e-13
1.04387e-13
1.01596e-13
1.00459e-13
8.93416e-14
9.91942e-14
9.72151e-14
9.09449e-14
9.54857e-14
9.56198e-14
1.00598e-13
9.41729e-14
8.8679e-14
7.75674e-14
8.14141e-14
7.88926e-14
7.82648e-14
8.26927e-14
8.22729e-14
8.23482e-14
7.15407e-14
6.87951e-14
6.21474e-14
5.61313e-14
4.95323e-14
4.30566e-14
3.96197e-14
3.49032e-14
3.36257e-14
2.99312e-14
3.22511e-14
2.50077e-14
1.35604e-14
1.11591e-14
8.88943e-15
4.18483e-15
1.72585e-15
1.97195e-15
-5.11928e-15
-7.86491e-16
2.12085e-13
2.07302e-13
2.07555e-13
2.11515e-13
2.10045e-13
2.03125e-13
2.05292e-13
2.11788e-13
2.12672e-13
2.12179e-13
2.10514e-13
2.02515e-13
1.97779e-13
1.9543e-13
1.88844e-13
1.80553e-13
1.75685e-13
1.70175e-13
1.65558e-13
1.5794e-13
1.59057e-13
1.5822e-13
1.5507e-13
1.55231e-13
1.47601e-13
1.44872e-13
1.52524e-13
1.48722e-13
1.49524e-13
1.45704e-13
1.47967e-13
1.42845e-13
1.38244e-13
1.31938e-13
1.21558e-13
1.24162e-13
1.30554e-13
1.2954e-13
1.33639e-13
1.31849e-13
1.22682e-13
1.20604e-13
1.17785e-13
1.14947e-13
1.13726e-13
1.21347e-13
1.19817e-13
1.16775e-13
1.1753e-13
1.12728e-13
1.13296e-13
1.09401e-13
1.08014e-13
1.06304e-13
1.04263e-13
1.07909e-13
1.02326e-13
1.05374e-13
1.05093e-13
1.16327e-13
1.16072e-13
1.07941e-13
1.04082e-13
1.04641e-13
9.47205e-14
9.74464e-14
9.95435e-14
9.37222e-14
8.9478e-14
9.44139e-14
9.85516e-14
9.58742e-14
9.613e-14
8.271e-14
7.71318e-14
7.45809e-14
8.24463e-14
7.69194e-14
7.89141e-14
8.19279e-14
7.88877e-14
7.41887e-14
6.19489e-14
5.61758e-14
5.36538e-14
4.46973e-14
2.97898e-14
3.35707e-14
3.40725e-14
2.986e-14
2.70719e-14
1.87295e-14
1.53e-14
9.21158e-15
1.57604e-14
6.90751e-15
1.83736e-15
-2.63704e-15
-3.43894e-15
2.58544e-16
2.07168e-13
2.09061e-13
2.10414e-13
2.08873e-13
2.06689e-13
2.02685e-13
2.12513e-13
2.12771e-13
2.12534e-13
2.11055e-13
2.1015e-13
1.99313e-13
1.96847e-13
1.95456e-13
1.90259e-13
1.84405e-13
1.79821e-13
1.71956e-13
1.67525e-13
1.54567e-13
1.47278e-13
1.4501e-13
1.50794e-13
1.60615e-13
1.5328e-13
1.50342e-13
1.47319e-13
1.40926e-13
1.44969e-13
1.49428e-13
1.48097e-13
1.38017e-13
1.37177e-13
1.33387e-13
1.27922e-13
1.2715e-13
1.28752e-13
1.29481e-13
1.34109e-13
1.32773e-13
1.27679e-13
1.27682e-13
1.20899e-13
1.1304e-13
1.18611e-13
1.215e-13
1.23459e-13
1.18193e-13
1.1976e-13
1.17512e-13
1.13191e-13
1.09085e-13
1.09038e-13
1.08619e-13
1.08948e-13
1.03598e-13
9.63232e-14
9.98076e-14
1.122e-13
1.19459e-13
1.07636e-13
1.09111e-13
1.10123e-13
1.13879e-13
1.01678e-13
9.21009e-14
9.39771e-14
8.9985e-14
9.25459e-14
1.009e-13
9.71761e-14
8.87491e-14
8.9305e-14
8.3969e-14
7.61815e-14
7.45149e-14
8.14657e-14
7.60675e-14
8.37768e-14
8.1538e-14
8.01461e-14
7.02318e-14
5.39853e-14
4.84064e-14
5.57689e-14
5.56774e-14
3.6678e-14
3.13553e-14
2.82268e-14
2.84365e-14
2.85135e-14
2.23691e-14
1.80765e-14
1.4002e-14
8.47888e-15
2.54942e-15
3.06404e-16
8.35969e-16
1.85667e-15
-2.7758e-16
2.12836e-13
2.04985e-13
2.05027e-13
2.06694e-13
2.12049e-13
2.08036e-13
2.12631e-13
2.13498e-13
2.13403e-13
2.14403e-13
2.07906e-13
1.98283e-13
1.92708e-13
2.0199e-13
1.83155e-13
1.76242e-13
1.78161e-13
1.68717e-13
1.58299e-13
1.49492e-13
1.54359e-13
1.51418e-13
1.50553e-13
1.52171e-13
1.54836e-13
1.51737e-13
1.46661e-13
1.4313e-13
1.46438e-13
1.41579e-13
1.42253e-13
1.4229e-13
1.37701e-13
1.32994e-13
1.25518e-13
1.24015e-13
1.30754e-13
1.30943e-13
1.30489e-13
1.27594e-13
1.2919e-13
1.27878e-13
1.25479e-13
1.224e-13
1.2211e-13
1.20458e-13
1.19462e-13
1.25857e-13
1.26407e-13
1.1762e-13
1.09294e-13
1.07591e-13
1.09085e-13
1.02622e-13
1.08346e-13
1.06756e-13
1.08671e-13
1.06558e-13
1.07133e-13
1.18971e-13
1.19419e-13
1.13512e-13
1.11944e-13
1.08786e-13
1.00153e-13
9.04429e-14
9.45623e-14
9.26998e-14
9.86375e-14
9.76713e-14
9.6742e-14
8.58554e-14
8.59946e-14
8.10824e-14
7.91382e-14
7.25572e-14
8.26149e-14
7.9552e-14
8.40031e-14
8.3085e-14
7.84829e-14
6.84226e-14
5.99439e-14
5.68762e-14
5.71658e-14
4.89683e-14
4.06194e-14
2.96329e-14
2.69178e-14
2.4856e-14
1.90171e-14
1.90359e-14
1.84492e-14
1.2883e-14
7.53913e-15
4.80407e-15
-3.43202e-17
9.06163e-16
5.91133e-15
-2.27324e-15
2.11156e-13
2.03647e-13
2.11191e-13
2.09873e-13
2.09383e-13
2.05982e-13
2.0948e-13
2.08134e-13
2.10553e-13
2.13775e-13
2.12681e-13
2.00548e-13
1.91941e-13
1.99522e-13
1.87397e-13
1.80533e-13
1.71188e-13
1.71786e-13
1.60796e-13
1.46207e-13
1.47758e-13
1.48757e-13
1.47522e-13
1.4636e-13
1.5279e-13
1.51629e-13
1.45977e-13
1.39794e-13
1.3425e-13
1.36458e-13
1.42145e-13
1.43665e-13
1.42318e-13
1.3434e-13
1.26006e-13
1.23141e-13
1.25777e-13
1.27768e-13
1.28653e-13
1.24119e-13
1.34791e-13
1.29321e-13
1.25642e-13
1.29068e-13
1.26257e-13
1.21878e-13
1.21169e-13
1.22248e-13
1.25865e-13
1.19864e-13
1.09672e-13