/*--------------------------------*- C++ -*----------------------------------*\
| =========                 |                                                 |
| \\      /  F ield         | OpenFOAM: The Open Source CFD Toolbox           |
|  \\    /   O peration     | Version:  v2012                                 |
|   \\  /    A nd           | Website:  www.openfoam.com                      |
|    \\/     M anipulation  |                                                 |
\*---------------------------------------------------------------------------*/
FoamFile
{
    version     2.0;
    format      ascii;
    class       volVectorField;
    location    "0";
    object      U;
}
// * * * * * * * * * * * * * * * * * * * * * * * * * * * * * * * * * * * * * //

dimensions      [0 1 -1 0 0 0 0];


internalField   nonuniform List<vector> 
4000
(
(1 3.50686e-15 0)
(1 1.64468e-15 0)
(1 1.63909e-15 0)
(1 2.16382e-16 0)
(1 -4.59358e-16 0)
(1 -6.29513e-15 0)
(1 2.25351e-16 0)
(1 7.91592e-15 0)
(1 2.51686e-15 0)
(1 -4.43226e-15 0)
(1 -2.24854e-15 0)
(1 1.98189e-15 0)
(1 2.96442e-15 0)
(1 2.14951e-15 0)
(1 -3.36717e-15 0)
(1 -8.44144e-15 0)
(1 2.65071e-15 0)
(1 2.83076e-15 0)
(1 -3.86701e-16 0)
(1 -4.01315e-16 0)
(1 -4.34385e-15 0)
(1 -2.66837e-15 0)
(1 -1.84542e-15 0)
(1 -1.09742e-15 0)
(1 4.49596e-15 0)
(1 4.73809e-15 0)
(1 3.46012e-16 0)
(1 9.7891e-16 0)
(1 -3.66024e-15 0)
(1 -2.23562e-15 0)
(1 -6.67542e-15 0)
(1 -3.58671e-15 0)
(1 8.64856e-16 0)
(1 -2.34659e-15 0)
(1 3.80389e-16 0)
(1 2.24083e-15 0)
(1 8.2851e-15 0)
(1 2.7466e-15 0)
(1 4.88536e-15 0)
(1 -3.07027e-15 0)
(1 -5.52939e-15 0)
(1 -4.61254e-15 0)
(1 2.27164e-15 0)
(1 2.45013e-15 0)
(1 2.22725e-15 0)
(1 5.45879e-16 0)
(1 -3.712e-15 0)
(1 2.45899e-15 0)
(1 2.15726e-15 0)
(1 3.28171e-15 0)
(1 2.03132e-15 0)
(1 3.43869e-15 0)
(1 2.23875e-15 0)
(1 2.08331e-15 0)
(1 2.16111e-15 0)
(1 2.70303e-16 0)
(1 -2.81583e-15 0)
(1 2.33204e-15 0)
(1 -1.27885e-15 0)
(1 3.29382e-15 0)
(1 5.20835e-17 0)
(1 1.31869e-15 0)
(1 -8.04605e-16 0)
(1 -1.08154e-15 0)
(1 -5.48218e-16 0)
(1 -2.42071e-15 0)
(1 -2.15887e-16 0)
(1 3.77119e-15 0)
(1 -2.69324e-15 0)
(1 4.2639e-16 0)
(1 -2.99783e-15 0)
(1 9.84258e-16 0)
(1 -3.12088e-15 0)
(1 -4.5973e-15 0)
(1 -6.82898e-15 0)
(1 -3.02924e-15 0)
(1 -1.16878e-15 0)
(1 -9.09084e-16 0)
(1 -1.00144e-15 0)
(1 5.04227e-16 0)
(1 3.53653e-16 0)
(1 3.97342e-15 0)
(1 -3.07401e-16 0)
(1 -6.72898e-15 0)
(1 -1.97192e-15 0)
(1 5.71678e-15 0)
(1 1.54761e-15 0)
(1 2.35109e-15 0)
(1 1.32736e-15 0)
(1 3.05019e-15 0)
(1 -9.05566e-17 0)
(1 2.06048e-15 0)
(1 1.13336e-16 0)
(1 -7.53898e-16 0)
(1 -1.59308e-15 0)
(1 4.5536e-15 0)
(1 -2.04718e-15 0)
(1 -1.42333e-15 0)
(1 -1.1945e-16 0)
(1 -2.27435e-15 0)
(1 2.28388e-15 0)
(1 2.90947e-15 0)
(1 2.11854e-15 0)
(1 1.28845e-15 0)
(1 -1.97546e-15 0)
(1 -7.06831e-15 0)
(1 -1.46353e-15 0)
(1 7.81536e-15 0)
(1 5.52606e-15 0)
(1 1.08797e-15 0)
(1 -4.91624e-15 0)
(1 1.61103e-15 0)
(1 2.52007e-15 0)
(1 2.14077e-16 0)
(1 -5.20796e-15 0)
(1 -8.98817e-15 0)
(1 5.21897e-15 0)
(1 3.08263e-15 0)
(1 -4.84946e-16 0)
(1 1.94223e-15 0)
(1 -2.94568e-15 0)
(1 1.03751e-15 0)
(1 2.77677e-15 0)
(1 -2.31809e-15 0)
(1 1.49667e-15 0)
(1 -3.33226e-15 0)
(1 -6.20661e-15 0)
(1 -1.15299e-15 0)
(1 -2.48481e-15 0)
(1 9.32514e-16 0)
(1 1.06783e-15 0)
(1 -2.34866e-15 0)
(1 2.17259e-15 0)
(1 -2.38426e-15 0)
(1 -4.51016e-15 0)
(1 2.75578e-15 0)
(1 4.2177e-15 0)
(1 1.16752e-15 0)
(1 1.69572e-16 0)
(1 -4.03291e-15 0)
(1 -7.46246e-15 0)
(1 -2.24287e-15 0)
(1 3.58591e-15 0)
(1 8.41943e-15 0)
(1 5.12731e-15 0)
(1 -2.44178e-15 0)
(1 -4.8313e-15 0)
(1 -3.29787e-15 0)
(1 1.38168e-15 0)
(1 -2.6991e-15 0)
(1 -5.83292e-16 0)
(1 2.85841e-15 0)
(1 3.89454e-15 0)
(1 2.27262e-15 0)
(1 6.25079e-15 0)
(1 2.01217e-15 0)
(1 -1.85039e-15 0)
(1 1.19888e-15 0)
(1 -1.94522e-15 0)
(1 -2.32834e-15 0)
(1 -6.24722e-15 0)
(1 -2.82072e-15 0)
(1 6.52193e-15 0)
(1 3.33942e-15 0)
(1 -1.43343e-15 0)
(1 -6.2888e-15 0)
(1 1.11005e-17 0)
(1 1.98764e-15 0)
(1 -2.50024e-15 0)
(1 5.35621e-16 0)
(1 2.69779e-15 0)
(1 3.01863e-15 0)
(1 1.90375e-15 0)
(1 4.06577e-16 0)
(1 -1.24313e-17 0)
(1 -2.4205e-15 0)
(1 2.96022e-15 0)
(1 9.23559e-16 0)
(1 3.99806e-15 0)
(1 3.14942e-15 0)
(1 -1.63424e-16 0)
(1 1.34122e-15 0)
(1 -1.1943e-15 0)
(1 -7.63833e-15 0)
(1 -1.55404e-15 0)
(1 7.48802e-15 0)
(1 5.25929e-15 0)
(1 -1.1258e-15 0)
(1 -2.67657e-15 0)
(1 -9.50579e-16 0)
(1 -3.59493e-15 0)
(1 1.44593e-15 0)
(1 -1.84423e-16 0)
(1 8.87463e-16 0)
(1 -2.43843e-15 0)
(1 6.57458e-15 0)
(1 -4.29967e-15 0)
(1 2.07104e-15 0)
(1 -3.70798e-15 0)
(1 -6.47476e-15 0)
(1 -4.6239e-15 0)
(1 3.98927e-15 0)
(1 -4.57302e-15 0)
(1 3.95243e-15 0)
(1 -5.32998e-15 0)
(1 2.37975e-15 0)
(1 2.80057e-15 0)
(1 1.04355e-16 0)
(1 6.16175e-15 0)
(1 5.38245e-15 0)
(1 -1.95472e-15 0)
(1 4.84617e-16 0)
(1 9.04664e-15 0)
(1 -9.57732e-16 0)
(1 -1.58088e-15 0)
(1 -7.09789e-15 0)
(1 -4.62139e-15 0)
(1 4.88064e-16 0)
(1 2.25333e-15 0)
(1 -2.43535e-15 0)
(1 -3.82131e-16 0)
(1 4.35086e-15 0)
(1 4.60989e-15 0)
(1 4.01206e-15 0)
(1 1.87233e-15 0)
(1 -6.04489e-16 0)
(1 -3.82586e-15 0)
(1 4.16636e-16 0)
(1 5.41567e-15 0)
(1 2.67924e-15 0)
(1 4.49528e-15 0)
(1 -8.26582e-15 0)
(1 5.29263e-16 0)
(1 -3.72888e-15 0)
(1 -1.89333e-15 0)
(1 -6.27183e-16 0)
(1 -5.52374e-15 0)
(1 -2.88124e-15 0)
(1 -2.28391e-15 0)
(1 -2.02487e-15 0)
(1 -2.54313e-15 0)
(1 7.53612e-16 0)
(1 3.47556e-15 0)
(1 7.47086e-15 0)
(1 5.12595e-15 0)
(1 1.57132e-15 0)
(1 8.64699e-15 0)
(1 -3.00549e-15 0)
(1 -2.85063e-16 0)
(1 -3.00067e-15 0)
(1 1.16142e-15 0)
(1 1.34747e-15 0)
(1 4.42654e-15 0)
(1 3.79037e-15 0)
(1 5.94345e-15 0)
(1 2.66642e-15 0)
(1 9.99598e-16 0)
(1 1.73477e-16 0)
(1 -4.01388e-15 0)
(1 -5.13609e-15 0)
(1 -2.46378e-15 0)
(1 -5.71595e-16 0)
(1 6.60558e-15 0)
(1 5.11925e-15 0)
(1 -4.72752e-15 0)
(1 -4.58686e-15 0)
(1 1.90804e-15 0)
(1 -2.28908e-15 0)
(1 -2.94497e-15 0)
(1 -7.53849e-16 0)
(1 -4.06688e-16 0)
(1 -6.83567e-16 0)
(1 5.76525e-15 0)
(1 1.07969e-15 0)
(1 -4.35087e-15 0)
(1 -3.9401e-15 0)
(1 -9.83002e-16 0)
(1 -6.63449e-16 0)
(1 3.31657e-15 0)
(1 -6.46249e-19 0)
(1 -6.81016e-16 0)
(1 1.2858e-16 0)
(1 -1.08929e-15 0)
(1 -3.49379e-15 0)
(1 -5.45603e-16 0)
(1 1.39108e-15 0)
(1 3.37969e-15 0)
(1 -9.92773e-16 0)
(1 -3.6902e-15 0)
(1 -5.77095e-16 0)
(1 1.34858e-16 0)
(1 1.25303e-15 0)
(1 3.44144e-15 0)
(1 5.53579e-15 0)
(1 -1.35943e-15 0)
(1 1.96134e-15 0)
(1 -3.15903e-15 0)
(1 -2.11506e-16 0)
(1 -5.5942e-15 0)
(1 -5.10751e-15 0)
(1 2.66747e-16 0)
(1 -6.54478e-15 0)
(1 -4.30875e-15 0)
(1 -4.39859e-15 0)
(1 1.41478e-16 0)
(1 1.06666e-14 0)
(1 8.77222e-15 0)
(1 5.0988e-16 0)
(1 3.25265e-15 0)
(1 -2.01277e-15 0)
(1 3.49195e-15 0)
(1 -5.4743e-15 0)
(1 5.89355e-15 0)
(1 9.93864e-15 0)
(1 5.71893e-15 0)
(1 4.11675e-15 0)
(1 -7.22384e-15 0)
(1 -4.79393e-15 0)
(1 2.72275e-15 0)
(1 -4.81133e-15 0)
(1 5.52726e-15 0)
(1 2.61895e-15 0)
(1 1.13896e-15 0)
(1 7.91564e-15 0)
(1 6.98434e-15 0)
(1 1.34071e-14 0)
(1 3.18848e-15 0)
(1 5.78322e-15 0)
(1 3.85452e-15 0)
(1 -7.40009e-16 0)
(1 -2.61371e-15 0)
(1 -1.65798e-14 0)
(1 -2.14702e-15 0)
(1 -6.82539e-15 0)
(1 1.75629e-15 0)
(1 -8.37058e-15 0)
(1 -2.81722e-15 0)
(1 2.47079e-16 0)
(1 1.22027e-15 0)
(1 -3.40605e-15 0)
(1 4.26846e-15 0)
(1 6.69965e-16 0)
(1 2.2163e-15 0)
(1 -5.3256e-15 0)
(1 2.82284e-15 0)
(1 6.81952e-15 0)
(1 8.85323e-15 0)
(1 6.55355e-15 0)
(1 1.71389e-15 0)
(1 2.27903e-15 0)
(1 2.93463e-15 0)
(1 3.86737e-15 0)
(1 3.95274e-15 0)
(1 9.84647e-15 0)
(1 3.1492e-15 0)
(1 -2.26506e-15 0)
(1 -3.92609e-15 0)
(1 -2.74265e-16 0)
(1 1.63325e-15 0)
(1 -1.72921e-15 0)
(1 2.06931e-15 0)
(1 7.93742e-16 0)
(1 1.47553e-15 0)
(1 -2.01001e-15 0)
(1 1.08101e-15 0)
(1 2.565e-15 0)
(1 -2.82893e-15 0)
(1 -6.78815e-15 0)
(1 -4.41475e-15 0)
(1 -2.49555e-15 0)
(1 -3.92811e-15 0)
(1 -2.48697e-15 0)
(1 3.96413e-15 0)
(1 -3.64884e-15 0)
(1 -1.15436e-14 0)
(1 -1.89182e-15 0)
(1 4.90662e-16 0)
(1 -4.48982e-16 0)
(1 9.85784e-16 0)
(1 -1.20479e-15 0)
(1 2.75019e-15 0)
(1 2.74123e-16 0)
(1 2.05391e-16 0)
(1 -2.4787e-15 0)
(1 -1.43112e-15 0)
(1 3.70088e-15 0)
(1 4.90429e-15 0)
(1 8.61353e-15 0)
(1 4.41925e-15 0)
(1 2.78434e-15 0)
(1 3.91329e-15 0)
(1 1.40764e-15 0)
(1 4.83708e-15 0)
(1 2.94326e-15 0)
(1 -1.15361e-15 0)
(1 -3.27617e-15 0)
(1 -5.80791e-15 0)
(1 -1.02354e-14 0)
(1 -5.88051e-15 0)
(1 5.82795e-16 0)
(1 4.87876e-15 0)
(1 -2.7187e-15 0)
(1 1.13707e-15 0)
(1 -2.61136e-15 0)
(1 4.29056e-15 0)
(1 1.3313e-15 0)
(1 -1.15953e-15 0)
(1 -2.86895e-15 0)
(1 -6.80265e-15 0)
(1 -4.21379e-15 0)
(1 1.46063e-14 0)
(1 -7.33343e-17 0)
(1 4.18439e-15 0)
(1 1.9345e-15 0)
(1 4.74727e-15 0)
(1 3.96784e-15 0)
(1 6.76266e-17 0)
(1 -4.69824e-15 0)
(1 -5.64636e-15 0)
(1 -2.28804e-15 0)
(1 5.26245e-15 0)
(1 -3.40299e-15 0)
(1 -4.45275e-15 0)
(1 5.00025e-15 0)
(1 8.55446e-15 0)
(1 6.06302e-15 0)
(1 3.57871e-15 0)
(1 8.15976e-15 0)
(1 3.53463e-15 0)
(1 5.4292e-15 0)
(1 2.38967e-15 0)
(1 -1.57945e-15 0)
(1 -1.16305e-15 0)
(1 -2.41918e-15 0)
(1 -8.70783e-15 0)
(1 -1.42018e-14 0)
(1 -9.22295e-15 0)
(1 -3.20084e-15 0)
(1 -2.77669e-15 0)
(1 2.30412e-16 0)
(1 1.99516e-15 0)
(1 -2.45665e-15 0)
(1 2.89751e-15 0)
(1 -1.88634e-15 0)
(1 -1.4698e-15 0)
(1 7.8367e-16 0)
(1 5.57238e-16 0)
(1 9.77698e-15 0)
(1 2.94362e-15 0)
(1 3.72739e-15 0)
(1 2.49185e-15 0)
(1 3.17927e-15 0)
(1 9.74799e-16 0)
(1 6.03395e-15 0)
(1 1.72465e-15 0)
(1 -6.73442e-16 0)
(1 7.46995e-16 0)
(1 -2.66594e-15 0)
(1 1.87743e-15 0)
(1 -1.03378e-15 0)
(1 1.09373e-16 0)
(1 2.86493e-15 0)
(1 5.11699e-16 0)
(1 5.31018e-15 0)
(1 1.11507e-14 0)
(1 4.48801e-15 0)
(1 7.0993e-16 0)
(1 -6.77336e-15 0)
(1 1.9826e-16 0)
(1 -4.17963e-15 0)
(1 -2.70892e-15 0)
(1 2.89035e-17 0)
(1 2.40964e-15 0)
(1 -3.52386e-15 0)
(1 -1.89599e-15 0)
(1 3.2757e-16 0)
(1 -2.0309e-15 0)
(1 -2.63078e-15 0)
(1 2.70765e-15 0)
(1 3.93645e-15 0)
(1 8.72147e-16 0)
(1 -3.01935e-15 0)
(1 -1.96918e-15 0)
(1 2.38363e-15 0)
(1 5.67209e-15 0)
(1 1.97826e-15 0)
(1 4.90474e-15 0)
(1 3.1939e-15 0)
(1 4.61665e-15 0)
(1 1.7138e-15 0)
(1 4.81526e-15 0)
(1 -2.57237e-16 0)
(1 3.76513e-15 0)
(1 2.91214e-15 0)
(1 3.60461e-15 0)
(1 -2.71911e-15 0)
(1 -3.23186e-15 0)
(1 -7.03967e-15 0)
(1 -5.95752e-16 0)
(1 5.66577e-15 0)
(1 -1.30903e-15 0)
(1 4.52319e-15 0)
(1 2.71134e-15 0)
(1 3.35887e-15 0)
(1 -5.9507e-15 0)
(1 -8.36892e-15 0)
(1 2.77001e-16 0)
(1 -1.55778e-15 0)
(1 -2.50345e-15 0)
(1 1.03749e-15 0)
(1 6.81291e-15 0)
(1 1.23804e-14 0)
(1 8.64801e-15 0)
(1 -3.96203e-15 0)
(1 2.27989e-15 0)
(1 -4.78522e-15 0)
(1 3.21778e-15 0)
(1 -3.14464e-15 0)
(1 -6.65207e-15 0)
(1 -3.38128e-15 0)
(1 -1.82872e-15 0)
(1 7.59636e-15 0)
(1 7.63968e-15 0)
(1 8.08701e-15 0)
(1 4.67657e-15 0)
(1 3.2132e-15 0)
(1 3.81093e-15 0)
(1 5.20122e-15 0)
(1 4.72664e-15 0)
(1 7.61912e-15 0)
(1 -5.13266e-15 0)
(1 5.82188e-17 0)
(1 -3.33648e-15 0)
(1 -2.53891e-16 0)
(1 -3.75133e-15 0)
(1 -1.94441e-15 0)
(1 -7.95747e-15 0)
(1 -1.55813e-15 0)
(1 -5.18228e-15 0)
(1 2.1919e-15 0)
(1 -2.91982e-15 0)
(1 4.22913e-15 0)
(1 2.90009e-15 0)
(1 8.58675e-15 0)
(1 -9.17639e-16 0)
(1 -2.23253e-15 0)
(1 2.53196e-15 0)
(1 6.00704e-15 0)
(1 4.76383e-15 0)
(1 6.43602e-15 0)
(1 2.69902e-15 0)
(1 5.58863e-15 0)
(1 4.28636e-15 0)
(1 7.20142e-15 0)
(1 4.63028e-15 0)
(1 -9.75263e-18 0)
(1 -5.15881e-15 0)
(1 -4.19718e-15 0)
(1 -2.87732e-15 0)
(1 7.57334e-15 0)
(1 6.63684e-15 0)
(1 1.80698e-15 0)
(1 -3.59256e-15 0)
(1 8.53172e-15 0)
(1 3.93945e-15 0)
(1 3.0258e-15 0)
(1 7.81778e-15 0)
(1 7.5771e-15 0)
(1 1.31061e-14 0)
(1 1.23035e-14 0)
(1 8.71127e-15 0)
(1 -4.26704e-16 0)
(1 -1.34889e-15 0)
(1 -5.33174e-15 0)
(1 -4.53342e-15 0)
(1 -6.92697e-15 0)
(1 -5.41062e-15 0)
(1 -5.06885e-16 0)
(1 1.74565e-15 0)
(1 4.20895e-15 0)
(1 3.15545e-17 0)
(1 3.79046e-15 0)
(1 -9.01907e-16 0)
(1 4.46858e-16 0)
(1 -1.32417e-15 0)
(1 -5.49185e-15 0)
(1 -2.41753e-15 0)
(1 -1.36587e-15 0)
(1 1.41864e-15 0)
(1 5.37553e-15 0)
(1 1.47902e-15 0)
(1 2.28118e-15 0)
(1 4.38748e-15 0)
(1 8.20015e-15 0)
(1 5.18507e-15 0)
(1 6.75363e-16 0)
(1 5.81186e-15 0)
(1 2.92776e-15 0)
(1 8.93155e-15 0)
(1 8.24844e-15 0)
(1 -1.62373e-15 0)
(1 8.76931e-16 0)
(1 4.56703e-15 0)
(1 6.31452e-15 0)
(1 -5.77573e-16 0)
(1 -3.66651e-15 0)
(1 2.06732e-15 0)
(1 1.12779e-15 0)
(1 1.97009e-16 0)
(1 3.97203e-15 0)
(1 -3.46092e-15 0)
(1 1.79143e-15 0)
(1 -1.83054e-15 0)
(1 2.54311e-15 0)
(1 -1.89611e-15 0)
(1 -1.164e-15 0)
(1 2.50891e-17 0)
(1 6.37532e-16 0)
(1 5.07963e-15 0)
(1 4.87279e-15 0)
(1 2.60607e-15 0)
(1 6.98686e-15 0)
(1 2.37196e-15 0)
(1 -3.42804e-15 0)
(1 -1.257e-14 0)
(1 -3.79429e-15 0)
(1 6.17977e-15 0)
(1 2.25053e-15 0)
(1 8.64292e-15 0)
(1 7.80408e-15 0)
(1 4.68805e-15 0)
(1 1.65666e-15 0)
(1 -8.03323e-16 0)
(1 -2.816e-15 0)
(1 -4.88373e-15 0)
(1 -3.68736e-15 0)
(1 -1.37043e-15 0)
(1 -3.47808e-16 0)
(1 -1.93455e-15 0)
(1 4.35056e-16 0)
(1 3.97206e-15 0)
(1 1.90196e-14 0)
(1 6.86551e-15 0)
(1 5.09057e-15 0)
(1 -7.53495e-15 0)
(1 -5.11731e-15 0)
(1 -4.96568e-15 0)
(1 3.81444e-15 0)
(1 6.9263e-15 0)
(1 3.66844e-15 0)
(1 3.32106e-15 0)
(1 -1.50528e-17 0)
(1 4.64607e-15 0)
(1 1.02918e-15 0)
(1 3.55857e-15 0)
(1 -6.57541e-16 0)
(1 1.44501e-15 0)
(1 9.69943e-16 0)
(1 2.49044e-15 0)
(1 4.82713e-15 0)
(1 7.38386e-15 0)
(1 1.6279e-15 0)
(1 3.83018e-15 0)
(1 1.50716e-15 0)
(1 -7.65059e-16 0)
(1 1.0749e-15 0)
(1 -5.83139e-16 0)
(1 5.97629e-15 0)
(1 5.27062e-15 0)
(1 1.04313e-14 0)
(1 7.20882e-15 0)
(1 -2.73128e-15 0)
(1 -7.00582e-15 0)
(1 -2.45574e-16 0)
(1 2.61427e-15 0)
(1 4.39209e-15 0)
(1 7.96568e-15 0)
(1 2.61791e-16 0)
(1 7.18217e-16 0)
(1 2.03964e-17 0)
(1 6.37942e-15 0)
(1 2.28634e-15 0)
(1 7.70828e-16 0)
(1 -2.19672e-16 0)
(1 -3.03322e-15 0)
(1 3.63786e-15 0)
(1 4.94393e-15 0)
(1 6.44063e-15 0)
(1 5.50465e-15 0)
(1 7.64105e-15 0)
(1 -4.48506e-16 0)
(1 4.68081e-15 0)
(1 5.7166e-15 0)
(1 1.15579e-14 0)
(1 3.79619e-15 0)
(1 6.77366e-15 0)
(1 9.04969e-15 0)
(1 9.42391e-15 0)
(1 6.00508e-15 0)
(1 6.63385e-15 0)
(1 7.96132e-16 0)
(1 -1.67723e-15 0)
(1 -3.66758e-15 0)
(1 -1.51452e-15 0)
(1 3.956e-15 0)
(1 2.44077e-15 0)
(1 1.29113e-15 0)
(1 2.09902e-15 0)
(1 -5.65754e-15 0)
(1 1.1088e-15 0)
(1 -4.82969e-15 0)
(1 -1.64327e-15 0)
(1 3.97094e-15 0)
(1 1.23485e-14 0)
(1 1.0817e-15 0)
(1 6.53658e-15 0)
(1 -3.40306e-16 0)
(1 9.79861e-15 0)
(1 5.4718e-15 0)
(1 1.74652e-15 0)
(1 3.70545e-16 0)
(1 -9.72459e-15 0)
(1 -1.03685e-14 0)
(1 -1.00309e-14 0)
(1 -1.0387e-14 0)
(1 -4.50443e-15 0)
(1 9.90272e-15 0)
(1 4.72191e-15 0)
(1 1.19852e-14 0)
(1 3.4355e-15 0)
(1 9.64176e-15 0)
(1 -2.89929e-16 0)
(1 -5.02431e-15 0)
(1 -1.98925e-15 0)
(1 -6.42994e-16 0)
(1 -4.82832e-15 0)
(1 4.35074e-15 0)
(1 1.02963e-15 0)
(1 2.02979e-15 0)
(1 1.03392e-15 0)
(1 4.74955e-15 0)
(1 -5.66018e-15 0)
(1 -4.72075e-15 0)
(1 -8.49434e-15 0)
(1 8.31712e-16 0)
(1 3.96759e-15 0)
(1 3.68423e-15 0)
(1 7.29124e-15 0)
(1 8.77013e-15 0)
(1 5.11549e-15 0)
(1 8.0619e-15 0)
(1 1.23284e-15 0)
(1 8.69197e-15 0)
(1 1.54099e-15 0)
(1 7.56408e-15 0)
(1 4.51918e-15 0)
(1 4.43816e-15 0)
(1 -1.10099e-16 0)
(1 3.23848e-16 0)
(1 -2.75698e-15 0)
(1 7.04081e-16 0)
(1 9.72088e-15 0)
(1 9.3884e-15 0)
(1 6.5417e-15 0)
(1 4.09841e-15 0)
(1 6.21089e-15 0)
(1 5.57659e-15 0)
(1 1.75532e-15 0)
(1 2.04898e-15 0)
(1 3.73616e-15 0)
(1 2.54067e-15 0)
(1 6.06069e-15 0)
(1 3.44572e-15 0)
(1 5.21111e-16 0)
(1 4.83852e-15 0)
(1 6.51158e-15 0)
(1 4.05572e-15 0)
(1 -2.28497e-15 0)
(1 7.55952e-17 0)
(1 -2.95994e-15 0)
(1 1.77682e-15 0)
(1 -1.43128e-15 0)
(1 -1.20716e-15 0)
(1 5.56386e-16 0)
(1 3.90564e-15 0)
(1 6.62932e-15 0)
(1 3.97974e-15 0)
(1 -2.832e-15 0)
(1 4.12521e-15 0)
(1 4.44691e-15 0)
(1 1.60167e-15 0)
(1 2.25835e-15 0)
(1 6.11081e-16 0)
(1 6.39861e-15 0)
(1 1.00044e-14 0)
(1 1.17304e-14 0)
(1 1.04829e-14 0)
(1 1.28157e-14 0)
(1 6.92865e-15 0)
(1 1.14449e-14 0)
(1 -1.74215e-15 0)
(1 -4.08638e-15 0)
(1 -4.94304e-15 0)
(1 -1.00548e-14 0)
(1 2.75521e-16 0)
(1 6.56498e-15 0)
(1 8.5895e-15 0)
(1 3.07981e-15 0)
(1 -2.91023e-15 0)
(1 -4.23514e-16 0)
(1 -8.19049e-15 0)
(1 2.56044e-16 0)
(1 7.903e-15 0)
(1 1.53458e-14 0)
(1 3.11021e-15 0)
(1 5.31233e-15 0)
(1 -1.79449e-15 0)
(1 8.26999e-15 0)
(1 -3.7101e-16 0)
(1 -2.99081e-15 0)
(1 -1.12183e-14 0)
(1 -1.83028e-16 0)
(1 6.91484e-15 0)
(1 5.67544e-16 0)
(1 -5.87304e-15 0)
(1 1.62647e-15 0)
(1 1.80339e-15 0)
(1 2.2889e-15 0)
(1 1.77782e-15 0)
(1 4.11267e-15 0)
(1 -4.85645e-15 0)
(1 -3.71585e-15 0)
(1 -1.19809e-14 0)
(1 -4.27378e-15 0)
(1 1.36255e-15 0)
(1 5.90389e-15 0)
(1 4.83832e-15 0)
(1 3.85584e-15 0)
(1 -1.04823e-15 0)
(1 6.32517e-16 0)
(1 8.84973e-16 0)
(1 -7.4481e-15 0)
(1 -5.90056e-16 0)
(1 5.63938e-17 0)
(1 1.37418e-14 0)
(1 1.18678e-14 0)
(1 8.1424e-15 0)
(1 -3.1372e-16 0)
(1 6.96369e-15 0)
(1 3.11879e-15 0)
(1 6.42218e-15 0)
(1 3.47128e-15 0)
(1 8.46929e-15 0)
(1 1.173e-14 0)
(1 6.67077e-15 0)
(1 7.95882e-15 0)
(1 -2.21362e-15 0)
(1 -3.10955e-15 0)
(1 6.64957e-15 0)
(1 -1.85012e-15 0)
(1 4.01066e-16 0)
(1 -4.13218e-15 0)
(1 8.01775e-16 0)
(1 -3.37396e-15 0)
(1 3.64e-15 0)
(1 2.1105e-15 0)
(1 1.10561e-14 0)
(1 1.86955e-14 0)
(1 1.17458e-14 0)
(1 2.005e-14 0)
(1 1.05325e-14 0)
(1 9.36665e-15 0)
(1 9.34847e-15 0)
(1 2.17721e-15 0)
(1 2.38553e-15 0)
(1 -5.76127e-16 0)
(1 7.92295e-16 0)
(1 6.09831e-15 0)
(1 4.81326e-15 0)
(1 -1.99578e-15 0)
(1 2.199e-15 0)
(1 2.30684e-15 0)
(1 3.85535e-15 0)
(1 -9.42689e-16 0)
(1 -1.02068e-15 0)
(1 1.25497e-15 0)
(1 -6.07098e-16 0)
(1 -1.1835e-15 0)
(1 2.35658e-15 0)
(1 8.06546e-16 0)
(1 9.45714e-16 0)
(1 2.25291e-15 0)
(1 3.79603e-15 0)
(1 9.08099e-15 0)
(1 1.33684e-14 0)
(1 1.65043e-14 0)
(1 1.92652e-14 0)
(1 2.121e-14 0)
(1 2.23568e-14 0)
(1 2.09266e-14 0)
(1 1.66481e-16 0)
(1 5.74231e-16 0)
(1 4.64581e-15 0)
(1 1.95637e-15 0)
(1 -3.32586e-16 0)
(1 -2.23137e-15 0)
(1 1.60308e-15 0)
(1 -1.93435e-15 0)
(1 5.95853e-15 0)
(1 -3.74413e-16 0)
(1 3.38205e-15 0)
(1 -3.81713e-15 0)
(1 3.14119e-15 0)
(1 -1.26171e-15 0)
(1 -4.21321e-16 0)
(1 -3.5572e-15 0)
(1 -3.49371e-15 0)
(1 3.56679e-15 0)
(1 3.46691e-15 0)
(1 6.57099e-15 0)
(1 -9.2422e-15 0)
(1 -4.15705e-15 0)
(1 1.83097e-15 0)
(1 2.03459e-15 0)
(1 5.57738e-16 0)
(1 7.58374e-15 0)
(1 5.06036e-15 0)
(1 4.79418e-15 0)
(1 -4.38717e-15 0)
(1 3.15982e-15 0)
(1 -2.68897e-15 0)
(1 9.02459e-15 0)
(1 -9.08362e-16 0)
(1 -2.37633e-15 0)
(1 -9.29072e-15 0)
(1 4.99174e-16 0)
(1 -4.54925e-15 0)
(1 -3.58867e-15 0)
(1 1.5484e-15 0)
(1 5.52601e-15 0)
(1 -3.66456e-15 0)
(1 -8.75089e-16 0)
(1 3.30648e-15 0)
(1 5.5456e-15 0)
(1 -4.45816e-15 0)
(1 -1.50867e-16 0)
(1 5.3043e-15 0)
(1 2.48848e-15 0)
(1 8.03225e-15 0)
(1 6.33871e-15 0)
(1 8.76143e-15 0)
(1 3.84704e-15 0)
(1 6.77981e-15 0)
(1 4.75767e-15 0)
(1 2.35245e-15 0)
(1 5.73031e-15 0)
(1 2.01835e-15 0)
(1 6.21181e-15 0)
(1 1.21509e-14 0)
(1 5.35968e-15 0)
(1 2.84794e-15 0)
(1 8.54623e-16 0)
(1 5.8636e-15 0)
(1 -7.51763e-17 0)
(1 4.10589e-15 0)
(1 3.99712e-15 0)
(1 8.72411e-15 0)
(1 2.05572e-14 0)
(1 2.04753e-14 0)
(1 1.22173e-14 0)
(1 3.39082e-15 0)
(1 8.19899e-15 0)
(1 -1.22454e-17 0)
(1 1.29557e-15 0)
(1 2.68809e-15 0)
(1 4.83841e-15 0)
(1 1.17221e-14 0)
(1 6.88903e-15 0)
(1 2.7365e-15 0)
(1 1.54395e-15 0)
(1 4.77999e-15 0)
(1 2.32577e-16 0)
(1 -3.35521e-15 0)
(1 -1.38849e-15 0)
(1 2.58722e-17 0)
(1 1.86559e-15 0)
(1 4.69441e-15 0)
(1 8.49366e-15 0)
(1 3.34439e-15 0)
(1 1.49357e-15 0)
(1 2.87224e-15 0)
(1 3.93313e-15 0)
(1 9.02952e-15 0)
(1 1.30111e-14 0)
(1 1.77615e-14 0)
(1 1.02299e-14 0)
(1 1.46392e-14 0)
(1 1.24833e-14 0)
(1 2.79325e-14 0)
(1 2.56774e-14 0)
(1 -3.98667e-16 0)
(1 1.94796e-15 0)
(1 -3.96515e-15 0)
(1 8.33844e-16 0)
(1 -4.71269e-15 0)
(1 -2.6913e-15 0)
(1 -5.1672e-15 0)
(1 -1.90218e-15 0)
(1 4.73051e-15 0)
(1 3.66166e-15 0)
(1 7.32487e-15 0)
(1 9.80501e-16 0)
(1 -2.48973e-15 0)
(1 -1.07154e-14 0)
(1 3.5073e-16 0)
(1 -1.83603e-15 0)
(1 6.82853e-15 0)
(1 6.88524e-16 0)
(1 7.36387e-15 0)
(1 5.07559e-15 0)
(1 7.31047e-15 0)
(1 -8.74928e-16 0)
(1 -8.99139e-15 0)
(1 -2.53075e-15 0)
(1 3.56878e-15 0)
(1 -4.43871e-15 0)
(1 -2.8581e-15 0)
(1 -4.13474e-15 0)
(1 -4.00985e-15 0)
(1 -7.47491e-15 0)
(1 -2.8645e-16 0)
(1 1.09071e-14 0)
(1 7.70272e-15 0)
(1 1.67912e-15 0)
(1 -8.60001e-15 0)
(1 1.54538e-15 0)
(1 -2.83005e-15 0)
(1 -7.34529e-17 0)
(1 1.83591e-15 0)
(1 -7.19882e-16 0)
(1 -5.50626e-15 0)
(1 -2.95602e-15 0)
(1 -1.77592e-15 0)
(1 -9.52439e-16 0)
(1 -2.63029e-15 0)
(1 -5.04741e-15 0)
(1 1.03464e-14 0)
(1 4.20903e-15 0)
(1 7.8768e-15 0)
(1 1.50208e-14 0)
(1 1.74375e-14 0)
(1 1.23957e-14 0)
(1 7.65962e-15 0)
(1 8.6679e-16 0)
(1 1.56393e-15 0)
(1 -1.1089e-15 0)
(1 -1.24758e-15 0)
(1 4.10567e-15 0)
(1 2.58199e-15 0)
(1 8.47963e-15 0)
(1 6.05867e-15 0)
(1 6.08878e-15 0)
(1 4.07241e-15 0)
(1 1.41405e-15 0)
(1 3.80998e-15 0)
(1 1.16207e-14 0)
(1 7.23253e-15 0)
(1 2.06007e-15 0)
(1 1.20371e-14 0)
(1 3.90142e-15 0)
(1 8.9169e-15 0)
(1 1.34308e-14 0)
(1 4.74424e-15 0)
(1 2.64777e-15 0)
(1 8.31367e-15 0)
(1 8.91109e-15 0)
(1 1.04796e-14 0)
(1 1.14982e-14 0)
(1 9.07098e-15 0)
(1 6.25671e-15 0)
(1 -1.8718e-15 0)
(1 -9.88693e-16 0)
(1 -7.22505e-16 0)
(1 2.62859e-16 0)
(1 2.32653e-15 0)
(1 -1.72811e-15 0)
(1 1.23392e-15 0)
(1 2.66891e-15 0)
(1 5.36466e-15 0)
(1 1.84091e-15 0)
(1 5.37432e-15 0)
(1 -6.89134e-16 0)
(1 8.47785e-15 0)
(1 3.30238e-15 0)
(1 1.60646e-14 0)
(1 7.47553e-15 0)
(1 1.05841e-14 0)
(1 8.93401e-15 0)
(1 2.04755e-14 0)
(1 2.32701e-14 0)
(1 2.22188e-15 0)
(1 -2.76593e-15 0)
(1 -9.04868e-16 0)
(1 3.05711e-15 0)
(1 -2.58173e-15 0)
(1 -9.7621e-16 0)
(1 -6.31241e-15 0)
(1 5.66336e-15 0)
(1 -5.31847e-16 0)
(1 8.98948e-15 0)
(1 4.4361e-15 0)
(1 7.09856e-15 0)
(1 3.16622e-16 0)
(1 -7.27941e-15 0)
(1 -1.54798e-15 0)
(1 -1.4988e-15 0)
(1 6.01611e-16 0)
(1 -9.84758e-15 0)
(1 1.89298e-15 0)
(1 -1.35575e-14 0)
(1 3.72385e-15 0)
(1 4.92651e-15 0)
(1 1.18105e-14 0)
(1 1.02363e-14 0)
(1 6.83137e-15 0)
(1 -3.98038e-15 0)
(1 -4.34451e-15 0)
(1 5.56222e-15 0)
(1 2.41414e-15 0)
(1 2.05572e-15 0)
(1 -2.79959e-15 0)
(1 -5.341e-15 0)
(1 2.22947e-15 0)
(1 1.64508e-15 0)
(1 -3.44606e-15 0)
(1 -7.77467e-15 0)
(1 1.88207e-15 0)
(1 8.00986e-16 0)
(1 -8.48036e-16 0)
(1 -5.55929e-15 0)
(1 -1.13883e-15 0)
(1 5.08806e-15 0)
(1 -1.67438e-15 0)
(1 -2.64472e-15 0)
(1 -3.14618e-15 0)
(1 2.39268e-15 0)
(1 1.86002e-15 0)
(1 1.10111e-14 0)
(1 1.15507e-14 0)
(1 1.61129e-14 0)
(1 1.04854e-14 0)
(1 7.03174e-15 0)
(1 -1.26303e-17 0)
(1 1.46051e-15 0)
(1 4.21778e-15 0)
(1 -1.38578e-15 0)
(1 -1.98711e-15 0)
(1 -3.78819e-15 0)
(1 4.45023e-15 0)
(1 1.27495e-14 0)
(1 1.63218e-14 0)
(1 3.17885e-15 0)
(1 6.42798e-15 0)
(1 1.41403e-15 0)
(1 1.07188e-14 0)
(1 4.47626e-15 0)
(1 7.02611e-15 0)
(1 4.56278e-15 0)
(1 -5.54135e-16 0)
(1 8.63221e-15 0)
(1 1.28348e-14 0)
(1 1.14344e-14 0)
(1 6.69538e-15 0)
(1 5.40604e-15 0)
(1 7.0131e-15 0)
(1 4.11613e-15 0)
(1 1.73927e-15 0)
(1 4.92381e-15 0)
(1 1.20925e-15 0)
(1 5.89482e-15 0)
(1 4.4824e-15 0)
(1 4.58428e-15 0)
(1 1.02142e-14 0)
(1 6.20942e-15 0)
(1 -7.49522e-16 0)
(1 -3.99717e-15 0)
(1 2.32039e-15 0)
(1 2.76152e-15 0)
(1 7.27837e-15 0)
(1 3.18396e-15 0)
(1 7.51461e-15 0)
(1 6.65811e-17 0)
(1 7.8292e-15 0)
(1 6.84026e-15 0)
(1 8.48407e-15 0)
(1 1.24974e-14 0)
(1 1.0348e-14 0)
(1 1.31351e-14 0)
(1 1.19188e-14 0)
(1 1.69075e-14 0)
(1 3.99963e-15 0)
(1 -3.85445e-16 0)
(1 -3.71684e-15 0)
(1 8.36684e-16 0)
(1 -2.76464e-15 0)
(1 -5.12802e-15 0)
(1 -5.25819e-15 0)
(1 2.59598e-15 0)
(1 -1.16558e-15 0)
(1 4.95672e-16 0)
(1 7.33912e-15 0)
(1 8.90354e-15 0)
(1 9.4702e-16 0)
(1 1.00444e-15 0)
(1 -4.98561e-15 0)
(1 2.33906e-15 0)
(1 -5.50403e-15 0)
(1 8.60087e-15 0)
(1 3.21645e-15 0)
(1 9.13776e-15 0)
(1 6.848e-15 0)
(1 -6.93032e-15 0)
(1 -4.63336e-15 0)
(1 -5.86222e-15 0)
(1 -1.94508e-15 0)
(1 -7.45269e-15 0)
(1 -2.61701e-15 0)
(1 3.7511e-15 0)
(1 -1.06544e-15 0)
(1 -5.89235e-16 0)
(1 -5.47103e-15 0)
(1 -9.25659e-15 0)
(1 -4.84543e-16 0)
(1 1.2421e-15 0)
(1 8.26418e-15 0)
(1 2.43603e-15 0)
(1 6.76534e-15 0)
(1 -4.06597e-15 0)
(1 -1.81951e-15 0)
(1 -3.10498e-15 0)
(1 -8.34394e-16 0)
(1 2.69805e-15 0)
(1 -9.36475e-15 0)
(1 -1.09042e-14 0)
(1 -2.40406e-15 0)
(1 1.0497e-14 0)
(1 3.99539e-15 0)
(1 2.28229e-14 0)
(1 1.66577e-14 0)
(1 1.39063e-14 0)
(1 3.29177e-15 0)
(1 5.70399e-15 0)
(1 -2.94051e-15 0)
(1 3.52929e-16 0)
(1 8.07966e-16 0)
(1 -5.5126e-16 0)
(1 -6.70698e-16 0)
(1 1.91892e-15 0)
(1 -6.6589e-17 0)
(1 -1.16204e-15 0)
(1 -5.64583e-15 0)
(1 1.4061e-15 0)
(1 4.46123e-15 0)
(1 1.66934e-14 0)
(1 1.14734e-14 0)
(1 7.34067e-15 0)
(1 6.23249e-15 0)
(1 8.34197e-15 0)
(1 1.09942e-15 0)
(1 7.2952e-16 0)
(1 3.97745e-15 0)
(1 -1.47197e-15 0)
(1 7.83007e-15 0)
(1 8.16026e-15 0)
(1 3.90975e-15 0)
(1 1.58517e-15 0)
(1 2.51529e-15 0)
(1 2.7672e-15 0)
(1 -2.01894e-15 0)
(1 7.13372e-15 0)
(1 7.90742e-15 0)
(1 1.25665e-14 0)
(1 6.32789e-15 0)
(1 5.08829e-15 0)
(1 1.41739e-15 0)
(1 4.65333e-15 0)
(1 3.10855e-15 0)
(1 8.35544e-15 0)
(1 4.50957e-15 0)
(1 5.58103e-15 0)
(1 6.85053e-15 0)
(1 4.68992e-15 0)
(1 -2.56726e-15 0)
(1 4.60717e-15 0)
(1 2.13415e-15 0)
(1 7.79088e-15 0)
(1 9.30781e-15 0)
(1 8.47015e-15 0)
(1 5.30714e-15 0)
(1 9.59703e-15 0)
(1 -8.50887e-17 0)
(1 4.9227e-15 0)
(1 -4.08234e-15 0)
(1 -6.88274e-15 0)
(1 -1.42488e-15 0)
(1 -3.65597e-15 0)
(1 -2.80105e-15 0)
(1 6.56061e-16 0)
(1 5.21538e-15 0)
(1 5.33691e-15 0)
(1 8.47997e-15 0)
(1 7.03169e-16 0)
(1 -5.73357e-15 0)
(1 -7.20733e-16 0)
(1 -4.44222e-15 0)
(1 4.08374e-15 0)
(1 -3.63071e-15 0)
(1 2.40003e-15 0)
(1 -6.9403e-15 0)
(1 9.56664e-15 0)
(1 -5.02874e-15 0)
(1 3.27917e-15 0)
(1 -9.42856e-15 0)
(1 -7.12251e-16 0)
(1 8.63638e-15 0)
(1 3.54299e-15 0)
(1 -6.0552e-16 0)
(1 -2.19082e-15 0)
(1 -4.51702e-15 0)
(1 -7.05095e-16 0)
(1 -3.19878e-15 0)
(1 -2.82183e-15 0)
(1 -3.02591e-15 0)
(1 -6.06883e-15 0)
(1 5.80201e-15 0)
(1 1.12156e-14 0)
(1 6.50406e-15 0)
(1 -1.79061e-15 0)
(1 -4.01843e-15 0)
(1 -1.03224e-14 0)
(1 -7.00021e-15 0)
(1 -3.46291e-15 0)
(1 -4.29297e-15 0)
(1 1.74557e-15 0)
(1 1.26146e-14 0)
(1 1.12316e-14 0)
(1 1.26243e-14 0)
(1 6.53495e-15 0)
(1 3.51268e-15 0)
(1 3.74089e-15 0)
(1 -1.94788e-15 0)
(1 4.94377e-15 0)
(1 -1.47092e-15 0)
(1 5.40722e-15 0)
(1 9.18504e-16 0)
(1 6.9078e-15 0)
(1 1.37059e-14 0)
(1 1.45308e-14 0)
(1 -1.4226e-15 0)
(1 3.85476e-15 0)
(1 -8.71646e-15 0)
(1 2.37149e-15 0)
(1 -4.3119e-15 0)
(1 8.60657e-15 0)
(1 -3.61835e-15 0)
(1 1.10571e-14 0)
(1 1.08073e-14 0)
(1 1.25161e-14 0)
(1 1.16453e-16 0)
(1 8.22178e-16 0)
(1 6.29422e-16 0)
(1 1.30497e-15 0)
(1 9.46854e-15 0)
(1 1.55332e-14 0)
(1 3.92105e-15 0)
(1 4.67058e-15 0)
(1 6.53478e-15 0)
(1 1.42429e-14 0)
(1 1.38553e-14 0)
(1 7.89261e-15 0)
(1 4.04661e-15 0)
(1 7.94794e-15 0)
(1 4.15454e-15 0)
(1 -1.59356e-15 0)
(1 3.47535e-15 0)
(1 1.10013e-14 0)
(1 3.58212e-15 0)
(1 9.03253e-15 0)
(1 5.39583e-15 0)
(1 1.09072e-14 0)
(1 7.95489e-15 0)
(1 6.69723e-15 0)
(1 2.91905e-15 0)
(1 -6.09731e-16 0)
(1 -4.88058e-15 0)
(1 2.39702e-15 0)
(1 1.27497e-14 0)
(1 1.32445e-14 0)
(1 8.84378e-15 0)
(1 8.99876e-15 0)
(1 2.50518e-15 0)
(1 -1.34994e-15 0)
(1 2.62232e-15 0)
(1 -6.99524e-15 0)
(1 1.03246e-15 0)
(1 -4.46132e-15 0)
(1 -1.51566e-16 0)
(1 -1.07931e-14 0)
(1 2.76999e-16 0)
(1 4.97607e-15 0)
(1 1.19065e-15 0)
(1 2.37928e-15 0)
(1 4.55894e-15 0)
(1 5.00831e-16 0)
(1 4.77427e-15 0)
(1 -4.80594e-15 0)
(1 -7.06795e-17 0)
(1 -1.45597e-14 0)
(1 -3.49247e-15 0)
(1 1.5412e-15 0)
(1 -4.75507e-15 0)
(1 4.03444e-15 0)
(1 5.82229e-15 0)
(1 8.30079e-15 0)
(1 9.87123e-15 0)
(1 8.79966e-15 0)
(1 3.87853e-15 0)
(1 -5.6898e-15 0)
(1 -7.78252e-15 0)
(1 -4.89154e-15 0)
(1 -1.25957e-15 0)
(1 5.68482e-16 0)
(1 1.8655e-15 0)
(1 -2.85621e-16 0)
(1 1.9863e-15 0)
(1 1.62449e-15 0)
(1 -3.88494e-15 0)
(1 1.54974e-15 0)
(1 -3.1968e-15 0)
(1 -7.46303e-15 0)
(1 -7.57015e-15 0)
(1 -9.04798e-15 0)
(1 4.57539e-15 0)
(1 1.29071e-14 0)
(1 6.67656e-15 0)
(1 8.55539e-15 0)
(1 9.73269e-15 0)
(1 -3.99478e-15 0)
(1 -6.43884e-15 0)
(1 -6.99015e-16 0)
(1 6.60178e-15 0)
(1 6.54696e-15 0)
(1 6.07094e-15 0)
(1 9.05443e-15 0)
(1 8.62446e-15 0)
(1 8.35916e-15 0)
(1 1.05906e-14 0)
(1 7.39521e-15 0)
(1 8.08431e-15 0)
(1 6.58487e-15 0)
(1 3.19916e-15 0)
(1 9.95546e-16 0)
(1 5.14244e-16 0)
(1 -2.02043e-15 0)
(1 3.541e-15 0)
(1 2.99023e-15 0)
(1 1.4222e-14 0)
(1 1.51675e-14 0)
(1 1.05814e-14 0)
(1 7.35474e-15 0)
(1 4.27661e-15 0)
(1 4.66031e-15 0)
(1 7.42349e-15 0)
(1 1.22485e-14 0)
(1 6.64449e-15 0)
(1 8.83322e-15 0)
(1 6.49112e-15 0)
(1 5.86592e-15 0)
(1 9.11672e-15 0)
(1 7.594e-15 0)
(1 1.06119e-14 0)
(1 5.77753e-15 0)
(1 6.29119e-16 0)
(1 3.38254e-15 0)
(1 2.70255e-15 0)
(1 -1.12398e-15 0)
(1 2.78377e-15 0)
(1 1.56535e-15 0)
(1 2.85099e-15 0)
(1 7.46565e-15 0)
(1 2.72818e-15 0)
(1 5.1314e-15 0)
(1 6.96347e-15 0)
(1 3.73863e-15 0)
(1 6.5541e-15 0)
(1 5.60696e-16 0)
(1 9.88744e-15 0)
(1 1.11509e-14 0)
(1 1.19266e-14 0)
(1 1.15568e-14 0)
(1 -1.70292e-15 0)
(1 -3.1653e-15 0)
(1 -2.24701e-15 0)
(1 -2.29424e-15 0)
(1 7.55033e-15 0)
(1 4.39162e-15 0)
(1 1.48095e-14 0)
(1 4.43853e-15 0)
(1 -1.50689e-15 0)
(1 -1.23042e-14 0)
(1 -1.1448e-14 0)
(1 -1.79414e-15 0)
(1 -2.72791e-15 0)
(1 -2.483e-15 0)
(1 3.54006e-15 0)
(1 -7.9402e-15 0)
(1 -2.18092e-15 0)
(1 -2.59141e-15 0)
(1 -3.09155e-15 0)
(1 -3.66613e-15 0)
(1 7.13272e-15 0)
(1 3.96246e-16 0)
(1 7.11716e-15 0)
(1 9.71166e-16 0)
(1 -1.15427e-15 0)
(1 -4.60551e-15 0)
(1 -4.15392e-15 0)
(1 -8.18542e-15 0)
(1 -7.19767e-15 0)
(1 -9.29604e-15 0)
(1 1.26121e-15 0)
(1 5.5516e-15 0)
(1 6.93175e-15 0)
(1 4.84972e-15 0)
(1 2.40043e-16 0)
(1 3.21318e-15 0)
(1 -5.57082e-15 0)
(1 3.38978e-16 0)
(1 -1.71334e-15 0)
(1 1.78358e-15 0)
(1 -9.72749e-15 0)
(1 -5.51493e-15 0)
(1 1.31151e-14 0)
(1 6.21254e-15 0)
(1 6.88844e-15 0)
(1 -1.17724e-15 0)
(1 4.63354e-15 0)
(1 6.91294e-16 0)
(1 -1.86957e-15 0)
(1 -4.61456e-16 0)
(1 9.7558e-15 0)
(1 8.34584e-15 0)
(1 8.4896e-15 0)
(1 1.59769e-15 0)
(1 2.98313e-15 0)
(1 3.56419e-15 0)
(1 2.62106e-15 0)
(1 1.41534e-15 0)
(1 8.42786e-15 0)
(1 -2.32617e-15 0)
(1 2.75988e-17 0)
(1 3.90844e-16 0)
(1 1.44341e-15 0)
(1 -9.53829e-16 0)
(1 5.01286e-15 0)
(1 -2.62732e-15 0)
(1 -2.48863e-15 0)
(1 -1.74871e-15 0)
(1 7.90203e-15 0)
(1 3.28836e-15 0)
(1 6.42804e-15 0)
(1 6.19934e-15 0)
(1 1.43218e-14 0)
(1 1.10334e-14 0)
(1 1.19307e-14 0)
(1 7.8776e-15 0)
(1 2.53851e-15 0)
(1 1.91086e-15 0)
(1 4.44093e-15 0)
(1 1.19541e-14 0)
(1 4.42468e-15 0)
(1 8.4206e-15 0)
(1 6.02722e-15 0)
(1 1.45943e-14 0)
(1 9.41766e-15 0)
(1 5.64004e-15 0)
(1 1.91571e-16 0)
(1 -4.93812e-15 0)
(1 -2.31238e-15 0)
(1 1.39222e-15 0)
(1 -2.83349e-15 0)
(1 2.34304e-15 0)
(1 3.94337e-15 0)
(1 3.97974e-15 0)
(1 1.08708e-14 0)