/*--------------------------------*- C++ -*----------------------------------*\
| =========                 |                                                 |
| \\      /  F ield         | OpenFOAM: The Open Source CFD Toolbox           |
|  \\    /   O peration     | Version:  v2012                                 |
|   \\  /    A nd           | Website:  www.openfoam.com                      |
|    \\/     M anipulation  |                                                 |
\*---------------------------------------------------------------------------*/
FoamFile
{
    version     2.0;
    format      ascii;
    class       volScalarField;
    location    "0";
    object      pRec;
}
// * * * * * * * * * * * * * * * * * * * * * * * * * * * * * * * * * * * * * //

dimensions      [0 2 -2 0 0 0 0];


internalField   nonuniform List<scalar> 
4000
(
-7.10967e-13
-7.04831e-13
-7.06313e-13
-7.09991e-13
-7.07487e-13
-7.07879e-13
-7.06688e-13
-7.01343e-13
-6.89997e-13
-6.86518e-13
-6.8848e-13
-6.8259e-13
-6.69406e-13
-6.53577e-13
-6.39666e-13
-6.3257e-13
-6.27211e-13
-6.2463e-13
-6.17045e-13
-6.01562e-13
-5.89935e-13
-5.82807e-13
-5.77223e-13
-5.70811e-13
-5.60198e-13
-5.49255e-13
-5.4831e-13
-5.42102e-13
-5.35525e-13
-5.24685e-13
-5.07022e-13
-5.00475e-13
-4.99387e-13
-4.98563e-13
-4.94088e-13
-4.92397e-13
-4.83638e-13
-4.63365e-13
-4.44809e-13
-4.41962e-13
-4.43913e-13
-4.42995e-13
-4.44312e-13
-4.37721e-13
-4.25098e-13
-4.16128e-13
-4.07513e-13
-3.97979e-13
-3.8804e-13
-3.79938e-13
-3.70127e-13
-3.61483e-13
-3.53631e-13
-3.43971e-13
-3.35066e-13
-3.21661e-13
-3.15165e-13
-3.12056e-13
-3.09612e-13
-3.06831e-13
-2.98572e-13
-2.91042e-13
-2.80403e-13
-2.67612e-13
-2.59233e-13
-2.51848e-13
-2.47876e-13
-2.40068e-13
-2.29047e-13
-2.21143e-13
-2.13749e-13
-2.07771e-13
-1.94667e-13
-1.87725e-13
-1.87362e-13
-1.83215e-13
-1.80744e-13
-1.74708e-13
-1.66121e-13
-1.53047e-13
-1.39681e-13
-1.34231e-13
-1.25642e-13
-1.21765e-13
-1.18425e-13
-1.12704e-13
-1.02491e-13
-9.41361e-14
-9.03011e-14
-8.65704e-14
-8.00523e-14
-7.3597e-14
-6.57013e-14
-5.88696e-14
-4.98325e-14
-4.03096e-14
-3.12976e-14
-2.24953e-14
-1.30043e-14
-3.31937e-15
-7.07138e-13
-7.06044e-13
-7.09666e-13
-7.09579e-13
-7.09993e-13
-7.06306e-13
-7.0347e-13
-7.00813e-13
-6.95356e-13
-6.90551e-13
-6.84461e-13
-6.78268e-13
-6.67384e-13
-6.54912e-13
-6.43019e-13
-6.35993e-13
-6.30777e-13
-6.23107e-13
-6.13002e-13
-6.05076e-13
-5.94372e-13
-5.81774e-13
-5.72965e-13
-5.67069e-13
-5.57894e-13
-5.51755e-13
-5.4929e-13
-5.42982e-13
-5.3413e-13
-5.20348e-13
-5.1078e-13
-5.04245e-13
-4.98687e-13
-4.95154e-13
-4.91311e-13
-4.88334e-13
-4.81201e-13
-4.67863e-13
-4.52639e-13
-4.46622e-13
-4.43697e-13
-4.41847e-13
-4.40539e-13
-4.35401e-13
-4.27354e-13
-4.16501e-13
-4.05816e-13
-3.97801e-13
-3.88559e-13
-3.7717e-13
-3.68937e-13
-3.60557e-13
-3.53427e-13
-3.44999e-13
-3.36173e-13
-3.24713e-13
-3.15116e-13
-3.1016e-13
-3.07779e-13
-3.05289e-13
-3.00972e-13
-2.91053e-13
-2.81915e-13
-2.69542e-13
-2.60812e-13
-2.51314e-13
-2.45251e-13
-2.39214e-13
-2.31199e-13
-2.22731e-13
-2.14325e-13
-2.07643e-13
-2.00213e-13
-1.90896e-13
-1.87021e-13
-1.79924e-13
-1.79261e-13
-1.72307e-13
-1.62866e-13
-1.50799e-13
-1.40903e-13
-1.35872e-13
-1.29748e-13
-1.24633e-13
-1.15926e-13
-1.10027e-13
-1.00615e-13
-9.19729e-14
-8.84652e-14
-8.50122e-14
-8.19798e-14
-7.63015e-14
-6.98218e-14
-5.7069e-14
-4.82018e-14
-4.10445e-14
-3.09585e-14
-2.27378e-14
-1.50283e-14
-5.26139e-15
-7.06862e-13
-7.05836e-13
-7.08158e-13
-7.11899e-13
-7.12981e-13
-7.07893e-13
-7.02614e-13
-6.99696e-13
-6.93751e-13
-6.90214e-13
-6.84486e-13
-6.77471e-13
-6.67182e-13
-6.56153e-13
-6.44971e-13
-6.3638e-13
-6.3059e-13
-6.22812e-13
-6.13403e-13
-6.04077e-13
-5.92795e-13
-5.83465e-13
-5.74176e-13
-5.67922e-13
-5.59868e-13
-5.54266e-13
-5.50234e-13
-5.42291e-13
-5.31769e-13
-5.1807e-13
-5.11548e-13
-5.04689e-13
-4.98989e-13
-4.96546e-13
-4.93144e-13
-4.89776e-13
-4.80046e-13
-4.69854e-13
-4.58283e-13
-4.46857e-13
-4.42783e-13
-4.38181e-13
-4.39504e-13
-4.36139e-13
-4.28878e-13
-4.17083e-13
-4.04809e-13
-3.94825e-13
-3.88782e-13
-3.83554e-13
-3.71588e-13
-3.60677e-13
-3.50919e-13
-3.41732e-13
-3.34537e-13
-3.25978e-13
-3.15068e-13
-3.12467e-13
-3.13197e-13
-3.06415e-13
-2.98449e-13
-2.85647e-13
-2.76732e-13
-2.71044e-13
-2.63953e-13
-2.5541e-13
-2.48396e-13
-2.37758e-13
-2.29869e-13
-2.1965e-13
-2.10996e-13
-2.04566e-13
-1.96125e-13
-1.90495e-13
-1.86569e-13
-1.82779e-13
-1.77643e-13
-1.72415e-13
-1.62124e-13
-1.51339e-13
-1.46736e-13
-1.38304e-13
-1.25677e-13
-1.20519e-13
-1.15314e-13
-1.1239e-13
-1.05981e-13
-9.54448e-14
-8.83748e-14
-8.26962e-14
-7.93864e-14
-7.54421e-14
-6.78508e-14
-5.86771e-14
-4.72693e-14
-3.79883e-14
-3.14343e-14
-2.38925e-14
-1.90729e-14
-6.00765e-15
-7.08024e-13
-7.0948e-13
-7.1053e-13
-7.06419e-13
-7.111e-13
-7.04536e-13
-7.02572e-13
-6.99943e-13
-6.98155e-13
-6.92899e-13
-6.82405e-13
-6.72256e-13
-6.63672e-13
-6.57427e-13
-6.54678e-13
-6.43624e-13
-6.28434e-13
-6.1885e-13
-6.12611e-13
-6.02843e-13
-5.93615e-13
-5.85817e-13
-5.75186e-13
-5.61332e-13
-5.54505e-13
-5.51691e-13
-5.49368e-13
-5.44096e-13
-5.31365e-13
-5.2259e-13
-5.16057e-13
-5.08584e-13
-4.99805e-13
-4.94194e-13
-4.88463e-13
-4.89079e-13
-4.79941e-13
-4.68188e-13
-4.59477e-13
-4.50008e-13
-4.4657e-13
-4.44145e-13
-4.39441e-13
-4.32992e-13
-4.23304e-13
-4.12719e-13
-4.04373e-13
-3.99379e-13
-3.9093e-13
-3.76363e-13
-3.66083e-13
-3.59633e-13
-3.53323e-13
-3.46195e-13
-3.33896e-13
-3.26855e-13
-3.17273e-13
-3.1255e-13
-3.12057e-13
-3.05419e-13
-2.96499e-13
-2.86715e-13
-2.81329e-13
-2.7365e-13
-2.63159e-13
-2.54642e-13
-2.46987e-13
-2.3776e-13
-2.30754e-13
-2.22224e-13
-2.153e-13
-2.08273e-13
-1.99438e-13
-1.92036e-13
-1.85986e-13
-1.81195e-13
-1.7839e-13
-1.7137e-13
-1.61984e-13
-1.52196e-13
-1.45033e-13
-1.3936e-13
-1.28019e-13
-1.18267e-13
-1.14363e-13
-1.09611e-13
-1.0308e-13
-9.5181e-14
-8.76194e-14
-8.32424e-14
-8.15299e-14
-7.54963e-14
-6.99505e-14
-5.71513e-14
-4.76842e-14
-4.07373e-14
-3.30642e-14
-2.28525e-14
-1.53149e-14
-5.46255e-15
-7.0956e-13
-7.14345e-13
-7.10654e-13
-7.05442e-13
-7.01328e-13
-7.05182e-13
-7.05626e-13
-7.04212e-13
-6.97456e-13
-6.89468e-13
-6.80214e-13
-6.741e-13
-6.63658e-13
-6.54532e-13
-6.53274e-13
-6.47374e-13
-6.35706e-13
-6.24223e-13
-6.10375e-13
-5.96988e-13
-5.91874e-13
-5.84686e-13
-5.69554e-13
-5.59898e-13
-5.57894e-13
-5.55606e-13
-5.51359e-13
-5.42781e-13
-5.3377e-13
-5.25031e-13
-5.16715e-13
-5.102e-13
-5.01278e-13
-4.9487e-13
-4.89271e-13
-4.88002e-13
-4.79016e-13
-4.68057e-13
-4.56439e-13
-4.48948e-13
-4.46473e-13
-4.46647e-13
-4.39804e-13
-4.31349e-13
-4.20495e-13
-4.1082e-13
-4.02858e-13
-3.97407e-13
-3.89518e-13
-3.80295e-13
-3.69985e-13
-3.63125e-13
-3.54693e-13
-3.45295e-13
-3.34961e-13
-3.25276e-13
-3.18627e-13
-3.14258e-13
-3.10798e-13
-3.03585e-13
-2.95924e-13
-2.87228e-13
-2.78701e-13
-2.72468e-13
-2.67258e-13
-2.60685e-13
-2.52707e-13
-2.39407e-13
-2.30286e-13
-2.19802e-13
-2.11233e-13
-2.05035e-13
-1.98911e-13
-1.9235e-13
-1.82352e-13
-1.77842e-13
-1.76193e-13
-1.71159e-13
-1.64351e-13
-1.54231e-13
-1.4659e-13
-1.41728e-13
-1.28603e-13
-1.17627e-13
-1.10717e-13
-1.05887e-13
-1.02278e-13
-9.83352e-14
-9.02052e-14
-8.49751e-14
-8.03383e-14
-7.51638e-14
-6.74899e-14
-6.15194e-14
-5.30398e-14
-4.13885e-14
-3.34405e-14
-2.53762e-14
-1.48418e-14
-3.01354e-15
-7.05816e-13
-7.16275e-13
-7.1264e-13
-7.02459e-13
-7.06366e-13
-7.10909e-13
-7.09152e-13
-7.04703e-13
-6.95648e-13
-6.81029e-13
-6.77106e-13
-6.72632e-13
-6.68401e-13
-6.57176e-13
-6.49991e-13
-6.49597e-13
-6.37996e-13
-6.26991e-13
-6.1514e-13
-6.00362e-13
-5.89685e-13
-5.77718e-13
-5.59498e-13
-5.56336e-13
-5.58353e-13
-5.59112e-13
-5.51212e-13
-5.41103e-13
-5.32611e-13
-5.28703e-13
-5.1886e-13
-5.0927e-13
-5.00479e-13
-4.98368e-13
-4.95752e-13
-4.86839e-13
-4.76505e-13
-4.67499e-13
-4.56739e-13
-4.51737e-13
-4.49616e-13
-4.47262e-13
-4.38091e-13
-4.3202e-13
-4.20883e-13
-4.0833e-13
-3.98128e-13
-3.93189e-13
-3.89579e-13
-3.80127e-13
-3.72822e-13
-3.62413e-13
-3.52778e-13
-3.42982e-13
-3.33263e-13
-3.27191e-13
-3.21614e-13
-3.15854e-13
-3.08891e-13
-3.04665e-13
-2.97949e-13
-2.88085e-13
-2.79993e-13
-2.72583e-13
-2.6309e-13
-2.58778e-13
-2.53788e-13
-2.40654e-13
-2.31371e-13
-2.23216e-13
-2.12968e-13
-2.05449e-13
-2.00482e-13
-1.94639e-13
-1.84595e-13
-1.80574e-13
-1.74733e-13
-1.67671e-13
-1.62907e-13
-1.56977e-13
-1.49533e-13
-1.40781e-13
-1.26154e-13
-1.14991e-13
-1.11148e-13
-1.08672e-13
-1.04977e-13
-9.59702e-14
-8.93099e-14
-8.46887e-14
-7.98293e-14
-7.53273e-14
-6.5585e-14
-6.10425e-14
-5.36146e-14
-4.54435e-14
-3.34592e-14
-2.38831e-14
-1.25663e-14
-1.72745e-15
-7.1176e-13
-7.12955e-13
-7.12272e-13
-7.08461e-13
-7.05785e-13
-7.09475e-13
-7.08933e-13
-7.02185e-13
-6.9368e-13
-6.8146e-13
-6.72699e-13
-6.71568e-13
-6.70757e-13
-6.58759e-13
-6.51394e-13
-6.46044e-13
-6.41716e-13
-6.32801e-13
-6.12197e-13
-5.92733e-13
-5.75689e-13
-5.72555e-13
-5.70748e-13
-5.68757e-13
-5.64764e-13
-5.58705e-13
-5.47228e-13
-5.38068e-13
-5.34888e-13
-5.30694e-13
-5.22183e-13
-5.08425e-13
-5.01925e-13
-4.9376e-13
-4.89291e-13
-4.84066e-13
-4.78421e-13
-4.7362e-13
-4.62737e-13
-4.50379e-13
-4.43755e-13
-4.39991e-13
-4.35506e-13
-4.31699e-13
-4.25178e-13
-4.14313e-13
-4.02226e-13
-3.92431e-13
-3.86129e-13
-3.7951e-13
-3.71834e-13
-3.65654e-13
-3.56379e-13
-3.43492e-13
-3.34792e-13
-3.28418e-13
-3.21627e-13
-3.09636e-13
-3.046e-13
-3.03734e-13
-3.02392e-13
-2.94225e-13
-2.82619e-13
-2.69786e-13
-2.59915e-13
-2.55368e-13
-2.47899e-13
-2.35794e-13
-2.26293e-13
-2.22202e-13
-2.22253e-13
-2.12677e-13
-2.02027e-13
-1.97688e-13
-1.87604e-13
-1.78292e-13
-1.70616e-13
-1.63967e-13
-1.58392e-13
-1.54633e-13
-1.48444e-13
-1.398e-13
-1.31762e-13
-1.22231e-13
-1.15707e-13
-1.04586e-13
-1.01538e-13
-9.83699e-14
-8.95445e-14
-8.6579e-14
-7.93427e-14
-7.04173e-14
-6.60913e-14
-6.081e-14
-5.43729e-14
-4.26079e-14
-3.32363e-14
-2.24824e-14
-1.24181e-14
-4.12798e-15
-7.11546e-13
-7.11492e-13
-7.09043e-13
-7.09215e-13
-7.12429e-13
-7.12183e-13
-7.09136e-13
-7.01974e-13
-6.92246e-13
-6.83269e-13
-6.76416e-13
-6.70212e-13
-6.66766e-13
-6.56588e-13
-6.52376e-13
-6.45698e-13
-6.41952e-13
-6.31708e-13
-6.06564e-13
-5.93792e-13
-5.89775e-13
-5.83139e-13
-5.72643e-13
-5.62496e-13
-5.59611e-13
-5.53874e-13
-5.42008e-13
-5.35572e-13
-5.31584e-13
-5.28026e-13
-5.21659e-13
-5.14565e-13
-5.08511e-13
-5.02386e-13
-4.90383e-13
-4.82807e-13
-4.77136e-13
-4.68111e-13
-4.59694e-13
-4.5042e-13
-4.45417e-13
-4.44759e-13
-4.37431e-13
-4.36151e-13
-4.29965e-13
-4.14399e-13
-3.98385e-13
-3.83387e-13
-3.8215e-13
-3.81874e-13
-3.77892e-13
-3.6942e-13
-3.55902e-13
-3.43553e-13
-3.32102e-13
-3.25352e-13
-3.22026e-13
-3.16342e-13
-3.06999e-13
-3.0017e-13
-2.97285e-13
-2.90696e-13
-2.83535e-13
-2.74973e-13
-2.66337e-13
-2.57638e-13
-2.48386e-13
-2.37667e-13
-2.31925e-13
-2.24965e-13
-2.17575e-13
-2.12574e-13
-2.01176e-13
-1.88417e-13
-1.8091e-13
-1.79211e-13
-1.75072e-13
-1.68021e-13
-1.63979e-13
-1.58096e-13
-1.49012e-13
-1.39988e-13
-1.27657e-13
-1.16439e-13
-1.07494e-13
-1.03957e-13
-1.02639e-13
-1.00016e-13
-9.21254e-14
-8.49455e-14
-7.67119e-14
-7.12033e-14
-6.67019e-14
-6.20331e-14
-5.2567e-14
-4.08852e-14
-3.35625e-14
-2.39804e-14
-1.3781e-14
-2.33361e-15
-7.14317e-13
-7.16773e-13
-7.1093e-13
-7.03256e-13
-7.08349e-13
-7.11778e-13
-7.11729e-13
-7.03758e-13
-6.89328e-13
-6.85248e-13
-6.77489e-13
-6.6647e-13
-6.60384e-13
-6.5615e-13
-6.52883e-13
-6.48503e-13
-6.41482e-13
-6.29316e-13
-6.10176e-13
-5.96458e-13
-5.88962e-13
-5.80784e-13
-5.77278e-13
-5.6933e-13
-5.59082e-13
-5.49169e-13
-5.41176e-13
-5.35897e-13
-5.35032e-13
-5.29501e-13
-5.22665e-13
-5.15695e-13
-5.0504e-13
-4.9463e-13
-4.91052e-13
-4.83891e-13
-4.7569e-13
-4.66545e-13
-4.62679e-13
-4.5797e-13
-4.52312e-13
-4.45668e-13
-4.34074e-13
-4.25116e-13
-4.22241e-13
-4.15029e-13
-4.04449e-13
-3.92855e-13
-3.86068e-13
-3.78761e-13
-3.71603e-13
-3.64317e-13
-3.54169e-13
-3.45016e-13
-3.36855e-13
-3.31819e-13
-3.22924e-13
-3.15823e-13
-3.07713e-13
-3.00883e-13
-2.94162e-13
-2.87853e-13
-2.81925e-13
-2.74173e-13
-2.63293e-13
-2.5285e-13
-2.46474e-13
-2.3831e-13
-2.30574e-13
-2.23489e-13
-2.16199e-13
-2.13111e-13
-2.05676e-13
-1.95332e-13
-1.83901e-13
-1.79759e-13
-1.75928e-13
-1.69634e-13
-1.64499e-13
-1.55095e-13
-1.49762e-13
-1.40891e-13
-1.27807e-13
-1.18078e-13
-1.09922e-13
-1.04934e-13
-1.03718e-13
-9.91628e-14
-9.12877e-14
-8.49748e-14
-7.65579e-14
-7.01805e-14
-6.35044e-14
-5.90868e-14
-5.22119e-14
-4.25015e-14
-3.18585e-14
-1.9596e-14
-9.13707e-15
8.0897e-16
-7.1471e-13
-7.13985e-13
-7.13561e-13
-7.1058e-13
-7.06808e-13
-7.09745e-13
-7.07701e-13
-7.06806e-13
-6.9776e-13
-6.81034e-13
-6.71845e-13
-6.6349e-13
-6.61841e-13
-6.59906e-13
-6.55158e-13
-6.47845e-13
-6.36805e-13
-6.29036e-13
-6.17745e-13
-6.01481e-13
-5.89175e-13
-5.76016e-13
-5.70932e-13
-5.63434e-13
-5.61161e-13
-5.55065e-13
-5.44269e-13
-5.38647e-13
-5.33374e-13
-5.28907e-13
-5.24254e-13
-5.15768e-13
-5.04957e-13
-4.9321e-13
-4.87169e-13
-4.82262e-13
-4.78534e-13
-4.68498e-13
-4.62886e-13
-4.58371e-13
-4.4895e-13
-4.39658e-13
-4.33524e-13
-4.25836e-13
-4.2521e-13
-4.19519e-13
-4.08767e-13
-3.95384e-13
-3.86089e-13
-3.75641e-13
-3.68039e-13
-3.64275e-13
-3.56056e-13
-3.4638e-13
-3.3749e-13
-3.29516e-13
-3.22109e-13
-3.14494e-13
-3.07411e-13
-3.03511e-13
-2.98345e-13
-2.9494e-13
-2.87314e-13
-2.747e-13
-2.59668e-13
-2.44883e-13
-2.37931e-13
-2.33171e-13
-2.29854e-13
-2.30294e-13
-2.24394e-13
-2.16111e-13
-2.08906e-13
-1.98307e-13
-1.85468e-13
-1.76628e-13
-1.72281e-13
-1.67104e-13
-1.63407e-13
-1.55212e-13
-1.49314e-13
-1.41219e-13
-1.29632e-13
-1.21831e-13
-1.129e-13
-1.04143e-13
-9.97779e-14
-9.38032e-14
-9.04888e-14
-8.63084e-14
-7.50085e-14
-6.57859e-14
-6.07393e-14
-5.60035e-14
-4.69247e-14
-3.74922e-14
-2.82662e-14
-1.74271e-14
-6.7593e-15
-3.46305e-16
-7.13038e-13
-7.12436e-13
-7.11664e-13
-7.13046e-13
-7.13253e-13
-7.07518e-13
-7.05378e-13
-7.02831e-13
-6.95951e-13
-6.87127e-13
-6.72511e-13
-6.61813e-13
-6.61116e-13
-6.60588e-13
-6.55192e-13
-6.50818e-13
-6.37245e-13
-6.27592e-13
-6.18045e-13
-6.03235e-13
-5.93911e-13
-5.77381e-13
-5.66595e-13
-5.62254e-13
-5.55674e-13
-5.50878e-13
-5.46855e-13
-5.40304e-13
-5.354e-13
-5.31411e-13
-5.23191e-13
-5.14247e-13
-5.03907e-13
-4.95876e-13
-4.91652e-13
-4.8344e-13
-4.75181e-13
-4.68906e-13
-4.65268e-13
-4.56881e-13
-4.48438e-13
-4.39172e-13
-4.33098e-13
-4.3146e-13
-4.29329e-13
-4.18032e-13
-4.04956e-13
-3.91428e-13
-3.82403e-13
-3.73996e-13
-3.71408e-13
-3.66253e-13
-3.5565e-13
-3.45823e-13
-3.35578e-13
-3.32305e-13
-3.25176e-13
-3.17062e-13
-3.06274e-13
-2.96715e-13
-2.95291e-13
-2.87324e-13
-2.81564e-13
-2.77671e-13
-2.62794e-13
-2.47813e-13
-2.37508e-13
-2.32495e-13
-2.30335e-13
-2.33961e-13
-2.26215e-13
-2.18937e-13
-2.09761e-13
-1.97171e-13
-1.83079e-13
-1.72461e-13
-1.71989e-13
-1.71594e-13
-1.67817e-13
-1.59407e-13
-1.5385e-13
-1.45228e-13
-1.29375e-13
-1.17939e-13
-1.07024e-13
-9.82032e-14
-1.00993e-13
-9.95132e-14
-9.14304e-14
-8.45596e-14
-7.35514e-14
-6.74454e-14
-6.03613e-14
-5.39876e-14
-4.88432e-14
-4.11518e-14
-2.40122e-14
-7.73973e-15
1.30309e-15
-2.00377e-15
-7.1696e-13
-7.14915e-13
-7.12566e-13
-7.1455e-13
-7.12742e-13
-7.07314e-13
-7.07253e-13
-7.03768e-13
-6.95361e-13
-6.83734e-13
-6.74623e-13
-6.65856e-13
-6.57356e-13
-6.53739e-13
-6.49796e-13
-6.43452e-13
-6.40861e-13
-6.33864e-13
-6.20689e-13
-6.05006e-13
-5.93248e-13
-5.85185e-13
-5.73291e-13
-5.62899e-13
-5.55514e-13
-5.44943e-13
-5.41652e-13
-5.39255e-13
-5.36817e-13
-5.34402e-13
-5.25904e-13
-5.15165e-13
-5.0247e-13
-4.93384e-13
-4.8766e-13
-4.80863e-13
-4.77667e-13
-4.71976e-13
-4.67958e-13
-4.55012e-13
-4.46986e-13
-4.36077e-13
-4.32783e-13
-4.3412e-13
-4.27382e-13
-4.18215e-13
-4.05962e-13
-3.95566e-13
-3.83941e-13
-3.73965e-13
-3.66557e-13
-3.6403e-13
-3.55313e-13
-3.48964e-13
-3.4141e-13
-3.31352e-13
-3.22932e-13
-3.14152e-13
-3.0601e-13
-3.00194e-13
-2.98141e-13
-2.98363e-13
-2.86737e-13
-2.73998e-13
-2.54152e-13
-2.43668e-13
-2.37277e-13
-2.34817e-13
-2.3062e-13
-2.29263e-13
-2.23066e-13
-2.22759e-13
-2.16917e-13
-2.03864e-13
-1.81539e-13
-1.64314e-13
-1.64389e-13
-1.72991e-13
-1.70815e-13
-1.59656e-13
-1.52963e-13
-1.42135e-13
-1.32029e-13
-1.2331e-13
-1.12875e-13
-1.0156e-13
-9.53591e-14
-9.48372e-14
-8.97383e-14
-8.31176e-14
-7.13902e-14
-6.67285e-14
-6.05366e-14
-5.28078e-14
-4.40891e-14
-3.66373e-14
-2.2915e-14
-1.00445e-14
-3.16505e-15
-2.3309e-15
-7.14379e-13
-7.14378e-13
-7.06145e-13
-7.16058e-13
-7.15574e-13
-7.12231e-13
-7.05847e-13
-6.98291e-13
-6.8994e-13
-6.78197e-13
-6.7261e-13
-6.67005e-13
-6.66347e-13
-6.59684e-13
-6.52312e-13
-6.47748e-13
-6.42923e-13
-6.35658e-13
-6.21973e-13
-6.06614e-13
-5.85814e-13
-5.71002e-13
-5.60912e-13
-5.60079e-13
-5.56023e-13
-5.52009e-13
-5.45296e-13
-5.38963e-13
-5.3783e-13
-5.36491e-13
-5.29487e-13
-5.16118e-13
-5.05802e-13
-4.97747e-13
-4.93618e-13
-4.83057e-13
-4.7391e-13
-4.7001e-13
-4.64879e-13
-4.54851e-13
-4.45786e-13
-4.42167e-13
-4.38157e-13
-4.32771e-13
-4.20837e-13
-4.11693e-13
-4.04128e-13
-3.96134e-13
-3.86433e-13
-3.78117e-13
-3.71156e-13
-3.64338e-13
-3.52237e-13
-3.41442e-13
-3.43802e-13
-3.43271e-13
-3.266e-13
-3.11039e-13
-3.0241e-13
-2.93533e-13
-2.91216e-13
-2.88577e-13
-2.87746e-13
-2.77235e-13
-2.59386e-13
-2.4973e-13
-2.36305e-13
-2.35616e-13
-2.30879e-13
-2.2599e-13
-2.22882e-13
-2.23802e-13
-2.18094e-13
-2.01391e-13
-1.83057e-13
-1.69948e-13
-1.68409e-13
-1.73433e-13
-1.67098e-13
-1.57568e-13
-1.50846e-13
-1.43162e-13
-1.35114e-13
-1.25412e-13
-1.14335e-13
-1.00968e-13
-9.56428e-14
-9.57396e-14
-8.89234e-14
-8.16773e-14
-7.23118e-14
-6.49697e-14
-5.6656e-14
-5.05084e-14
-4.4665e-14
-3.54954e-14
-2.33611e-14
-1.22366e-14
-2.16162e-15
7.1428e-17
-7.11025e-13
-7.22072e-13
-7.16754e-13
-7.11292e-13
-7.11703e-13
-7.09881e-13
-7.04932e-13
-7.03053e-13
-6.90591e-13
-6.74341e-13
-6.703e-13
-6.67787e-13
-6.64749e-13
-6.60086e-13
-6.55111e-13
-6.44432e-13
-6.3321e-13
-6.24474e-13
-6.18504e-13
-6.09616e-13
-6.02836e-13
-5.93644e-13
-5.79332e-13
-5.59789e-13
-5.45098e-13
-5.39106e-13
-5.42268e-13
-5.41148e-13
-5.39965e-13
-5.39196e-13
-5.30556e-13
-5.17273e-13
-5.00987e-13
-4.88338e-13
-4.83661e-13
-4.79813e-13
-4.80746e-13
-4.77501e-13
-4.65971e-13
-4.6016e-13
-4.49084e-13
-4.38373e-13
-4.36666e-13
-4.29401e-13
-4.20371e-13
-4.11196e-13
-4.0114e-13
-3.96064e-13
-3.91124e-13
-3.81076e-13
-3.72598e-13
-3.62077e-13
-3.53903e-13
-3.46274e-13
-3.41355e-13
-3.35686e-13
-3.28603e-13
-3.21761e-13
-3.12682e-13
-3.00013e-13
-2.89871e-13
-2.82972e-13
-2.7718e-13
-2.71292e-13
-2.60655e-13
-2.52137e-13
-2.43497e-13
-2.36977e-13
-2.31533e-13
-2.29463e-13
-2.256e-13
-2.17875e-13
-2.10479e-13
-2.02753e-13
-1.86826e-13
-1.75616e-13
-1.69251e-13
-1.67954e-13
-1.66968e-13
-1.58519e-13
-1.51692e-13
-1.40927e-13
-1.34082e-13
-1.24479e-13
-1.13128e-13
-1.03252e-13
-9.84701e-14
-9.43189e-14
-9.03802e-14
-8.12353e-14
-7.26264e-14
-6.86453e-14
-5.9725e-14
-5.01538e-14
-3.91603e-14
-3.00615e-14
-2.18912e-14
-1.38401e-14
-5.31094e-15
-3.6281e-16
-7.10774e-13
-7.15147e-13
-7.17989e-13
-7.13688e-13
-7.12453e-13
-7.13543e-13
-7.01572e-13
-6.88499e-13
-6.82404e-13
-6.79885e-13
-6.76876e-13
-6.72064e-13
-6.68552e-13
-6.62054e-13
-6.5559e-13
-6.46098e-13
-6.3911e-13
-6.34586e-13
-6.24224e-13
-6.09255e-13
-5.87407e-13
-5.73284e-13
-5.62762e-13
-5.5186e-13
-5.53693e-13
-5.52982e-13
-5.48615e-13
-5.41902e-13
-5.38161e-13
-5.3787e-13
-5.32519e-13
-5.21036e-13
-5.07484e-13
-4.88848e-13
-4.77938e-13
-4.8051e-13
-4.82742e-13
-4.7929e-13
-4.72743e-13
-4.61554e-13
-4.46204e-13
-4.37381e-13
-4.30069e-13
-4.24754e-13
-4.19469e-13
-4.14474e-13
-4.07293e-13
-3.97756e-13
-3.90813e-13
-3.88669e-13
-3.79061e-13
-3.59473e-13
-3.47884e-13
-3.40557e-13
-3.34548e-13
-3.33545e-13
-3.29849e-13
-3.20955e-13
-3.0759e-13
-2.96389e-13
-2.93307e-13
-2.88703e-13
-2.81041e-13
-2.71238e-13
-2.56096e-13
-2.45124e-13
-2.4166e-13
-2.39972e-13
-2.35792e-13
-2.29297e-13
-2.22155e-13
-2.18086e-13
-2.113e-13
-2.01403e-13
-1.88581e-13
-1.72134e-13
-1.68246e-13
-1.66946e-13
-1.68989e-13
-1.64592e-13
-1.55751e-13
-1.45265e-13
-1.34108e-13
-1.21564e-13
-1.11009e-13
-1.03997e-13
-9.97518e-14
-9.42007e-14
-8.774e-14
-8.04468e-14
-7.32162e-14
-6.73354e-14
-6.07623e-14
-5.02745e-14
-3.8331e-14
-2.69479e-14
-1.73822e-14
-1.08927e-14
-3.23994e-15
-1.33975e-15
-7.09353e-13
-7.19719e-13
-7.20805e-13
-7.14562e-13
-7.11024e-13
-7.17323e-13
-7.12623e-13
-6.96127e-13
-6.75195e-13
-6.69921e-13
-6.68781e-13
-6.70085e-13
-6.68929e-13
-6.6525e-13
-6.59676e-13
-6.47581e-13
-6.37269e-13
-6.28103e-13
-6.14086e-13
-6.04935e-13
-5.95853e-13
-5.82105e-13
-5.69025e-13
-5.53398e-13
-5.52735e-13
-5.51416e-13
-5.50684e-13
-5.4665e-13
-5.3885e-13
-5.37225e-13
-5.2873e-13
-5.16123e-13
-5.06226e-13
-4.90153e-13
-4.77585e-13
-4.77695e-13
-4.80555e-13
-4.80273e-13
-4.72143e-13
-4.62314e-13
-4.45876e-13
-4.36488e-13
-4.34076e-13
-4.27719e-13
-4.19722e-13
-4.12014e-13
-4.09904e-13
-4.02548e-13
-3.90469e-13
-3.77812e-13
-3.68924e-13
-3.62793e-13
-3.52309e-13
-3.38538e-13
-3.3998e-13
-3.37747e-13
-3.29696e-13
-3.23015e-13
-3.14778e-13
-2.99019e-13
-2.9141e-13
-2.83957e-13
-2.75702e-13
-2.67808e-13
-2.55578e-13
-2.48038e-13
-2.38824e-13
-2.36617e-13
-2.32229e-13
-2.32935e-13
-2.25093e-13
-2.21897e-13
-2.15222e-13
-2.00778e-13
-1.85605e-13
-1.73349e-13
-1.71747e-13
-1.69999e-13
-1.6461e-13
-1.60009e-13
-1.54413e-13
-1.45626e-13
-1.35232e-13
-1.22235e-13
-1.14895e-13
-1.08497e-13
-1.00646e-13
-9.32767e-14
-8.74818e-14
-7.95807e-14
-7.19898e-14
-6.52392e-14
-5.6378e-14
-4.64189e-14
-3.81168e-14
-3.06811e-14
-1.531e-14
-7.75581e-15
-2.99286e-16
7.09363e-17
-7.17609e-13
-7.16461e-13
-7.12851e-13
-7.08497e-13
-7.09855e-13
-7.04082e-13
-6.98459e-13
-7.00024e-13
-6.9408e-13
-6.84979e-13
-6.78758e-13
-6.68473e-13
-6.61588e-13
-6.6033e-13
-6.58258e-13
-6.49442e-13
-6.39487e-13
-6.36597e-13
-6.2359e-13
-6.04906e-13
-5.83172e-13
-5.68621e-13
-5.63007e-13
-5.61569e-13
-5.54649e-13
-5.54898e-13
-5.51075e-13
-5.44419e-13
-5.39432e-13
-5.35198e-13
-5.28362e-13
-5.15838e-13
-5.02859e-13
-4.89354e-13
-4.81148e-13
-4.81125e-13
-4.86355e-13
-4.80473e-13
-4.71675e-13
-4.60203e-13
-4.4644e-13
-4.33188e-13
-4.31362e-13
-4.28996e-13
-4.25332e-13
-4.13662e-13
-4.04165e-13
-4.00051e-13
-3.94437e-13
-3.81589e-13
-3.67935e-13
-3.62177e-13
-3.53948e-13
-3.43044e-13
-3.34158e-13
-3.32256e-13
-3.27048e-13
-3.22071e-13
-3.15658e-13
-3.04895e-13
-2.93516e-13
-2.84578e-13
-2.74939e-13
-2.66881e-13
-2.60401e-13
-2.4944e-13
-2.39277e-13
-2.31037e-13
-2.28993e-13
-2.32687e-13
-2.24728e-13
-2.20069e-13
-2.12952e-13
-2.01555e-13
-1.90431e-13
-1.77415e-13
-1.67486e-13
-1.64235e-13
-1.6388e-13
-1.66339e-13
-1.60484e-13
-1.44584e-13
-1.34024e-13
-1.20766e-13
-1.15864e-13
-1.1101e-13
-1.03272e-13
-9.25119e-14
-8.28797e-14
-7.8487e-14
-7.23269e-14
-6.49358e-14
-5.85012e-14
-4.91721e-14
-3.69418e-14
-2.55386e-14
-1.5586e-14
-9.22434e-15
-9.60927e-16
1.46072e-15
-7.17345e-13
-7.15835e-13
-7.13447e-13
-7.1112e-13
-7.17307e-13
-7.14114e-13
-6.98827e-13
-6.91325e-13
-6.85259e-13
-6.81318e-13
-6.8007e-13
-6.76878e-13
-6.63764e-13
-6.5605e-13
-6.52285e-13
-6.46609e-13
-6.41325e-13
-6.33601e-13
-6.19618e-13
-6.0198e-13
-5.86512e-13
-5.70535e-13
-5.60719e-13
-5.62027e-13
-5.62854e-13
-5.54428e-13
-5.46684e-13
-5.44805e-13
-5.42861e-13
-5.38131e-13
-5.30997e-13
-5.18137e-13
-5.03379e-13
-4.88544e-13
-4.7755e-13
-4.79714e-13
-4.7973e-13
-4.7782e-13
-4.7565e-13
-4.65945e-13
-4.50911e-13
-4.37426e-13
-4.30602e-13
-4.22924e-13
-4.20842e-13
-4.15588e-13
-4.06616e-13
-3.9671e-13
-3.89487e-13
-3.81724e-13
-3.68705e-13
-3.63149e-13
-3.54581e-13
-3.44341e-13
-3.41022e-13
-3.36799e-13
-3.24998e-13
-3.15499e-13
-3.1012e-13
-3.01419e-13
-2.95842e-13
-2.85032e-13
-2.75875e-13
-2.68145e-13
-2.59027e-13
-2.4816e-13
-2.41671e-13
-2.31386e-13
-2.25979e-13
-2.23873e-13
-2.23153e-13
-2.212e-13
-2.15073e-13
-2.01558e-13
-1.88851e-13
-1.78986e-13
-1.73429e-13
-1.67118e-13
-1.66505e-13
-1.63892e-13
-1.57129e-13
-1.4698e-13
-1.35756e-13
-1.2452e-13
-1.149e-13
-1.05405e-13
-9.86467e-14
-9.4182e-14
-8.82291e-14
-7.89033e-14
-7.14921e-14
-6.39384e-14
-5.53153e-14
-4.60763e-14
-3.53227e-14
-2.78318e-14
-1.75849e-14
-6.85382e-15
-6.93081e-16
-1.66587e-16
-7.11849e-13
-7.15312e-13
-7.1541e-13
-7.1367e-13
-7.11686e-13
-7.04527e-13
-6.98898e-13
-6.94871e-13
-6.93323e-13
-6.87627e-13
-6.81097e-13
-6.75681e-13
-6.66742e-13
-6.57307e-13
-6.50695e-13
-6.42275e-13
-6.39352e-13
-6.32215e-13
-6.18176e-13
-6.04493e-13
-5.85779e-13
-5.71417e-13
-5.6689e-13
-5.63595e-13
-5.54817e-13
-5.50972e-13
-5.51685e-13
-5.49845e-13
-5.42432e-13
-5.32854e-13
-5.25113e-13
-5.16533e-13
-5.03029e-13
-4.89919e-13
-4.79871e-13
-4.86069e-13
-4.88671e-13
-4.80655e-13
-4.70222e-13
-4.57946e-13
-4.46822e-13
-4.40212e-13
-4.32919e-13
-4.2287e-13
-4.17595e-13
-4.10894e-13
-4.09494e-13
-4.07864e-13
-3.92231e-13
-3.78111e-13
-3.66967e-13
-3.64435e-13
-3.54711e-13
-3.43732e-13
-3.40026e-13
-3.37183e-13
-3.28493e-13
-3.16475e-13
-3.07378e-13
-3.01023e-13
-2.98427e-13
-2.8878e-13
-2.77139e-13
-2.66627e-13
-2.54677e-13
-2.47581e-13
-2.38079e-13
-2.33018e-13
-2.26673e-13
-2.2245e-13
-2.18812e-13
-2.20628e-13
-2.15605e-13
-2.0151e-13
-1.88996e-13
-1.78944e-13
-1.75585e-13
-1.70243e-13
-1.62e-13
-1.54834e-13
-1.60482e-13
-1.55484e-13
-1.37792e-13
-1.24807e-13
-1.15434e-13
-1.04955e-13
-9.69629e-14
-9.38421e-14
-8.7912e-14
-7.9255e-14
-7.10794e-14
-6.37609e-14
-5.6532e-14
-4.45617e-14
-3.80945e-14
-2.66185e-14
-1.47748e-14
-4.89462e-15
3.72798e-16
-5.31791e-16
-7.20326e-13
-7.16809e-13
-7.14852e-13
-7.11263e-13
-7.05563e-13
-7.02381e-13
-6.98805e-13
-6.98593e-13
-6.94835e-13
-6.87935e-13
-6.8044e-13
-6.75544e-13
-6.68445e-13
-6.62121e-13
-6.53193e-13
-6.40402e-13
-6.29122e-13
-6.22571e-13
-6.17849e-13
-6.08671e-13
-5.88409e-13
-5.76089e-13
-5.6692e-13
-5.60106e-13
-5.57431e-13
-5.53945e-13
-5.53246e-13
-5.50009e-13
-5.40579e-13
-5.36267e-13
-5.26544e-13
-5.15679e-13
-5.00996e-13
-4.87899e-13
-4.82615e-13
-4.85282e-13
-4.84516e-13
-4.79021e-13
-4.7039e-13
-4.59012e-13
-4.47043e-13
-4.3773e-13
-4.33657e-13
-4.27649e-13
-4.22907e-13
-4.15696e-13
-4.04673e-13
-3.97132e-13
-3.91543e-13
-3.83025e-13
-3.75331e-13
-3.64183e-13
-3.53449e-13
-3.44566e-13
-3.38101e-13
-3.31021e-13
-3.26304e-13
-3.18568e-13
-3.06601e-13
-3.0087e-13
-2.9938e-13
-2.90836e-13
-2.78627e-13
-2.64675e-13
-2.56076e-13
-2.47543e-13
-2.38041e-13
-2.31098e-13
-2.26356e-13
-2.22558e-13
-2.20513e-13
-2.20441e-13
-2.14235e-13
-1.97823e-13
-1.87882e-13
-1.79457e-13
-1.75062e-13
-1.70197e-13
-1.66299e-13
-1.62394e-13
-1.56819e-13
-1.48596e-13
-1.3934e-13
-1.29697e-13
-1.21235e-13
-1.04334e-13
-9.54841e-14
-9.06858e-14
-8.8039e-14
-7.56074e-14
-6.79495e-14
-6.26365e-14
-6.1051e-14
-4.68449e-14
-3.41541e-14
-2.57994e-14
-1.66532e-14
-1.91963e-15
-3.5861e-16
-2.02823e-15
-7.23454e-13
-7.16432e-13
-7.09975e-13
-7.10827e-13
-7.01947e-13
-7.03012e-13
-6.99243e-13
-6.99853e-13
-6.98756e-13
-6.86923e-13
-6.7972e-13
-6.76042e-13
-6.74052e-13
-6.63474e-13
-6.53467e-13
-6.44071e-13
-6.34458e-13
-6.23488e-13
-6.17259e-13
-6.01552e-13
-5.88238e-13
-5.75211e-13
-5.63639e-13
-5.58428e-13
-5.55164e-13
-5.58007e-13
-5.54675e-13
-5.48847e-13
-5.41744e-13
-5.33915e-13
-5.26932e-13
-5.1765e-13
-5.01454e-13
-4.91287e-13
-4.81304e-13
-4.79989e-13
-4.8235e-13
-4.7936e-13
-4.71048e-13
-4.60302e-13
-4.5055e-13
-4.41658e-13
-4.33405e-13
-4.27e-13
-4.2098e-13
-4.13651e-13
-4.04058e-13
-3.99487e-13
-3.94913e-13
-3.8313e-13
-3.71621e-13
-3.59727e-13
-3.52922e-13
-3.47886e-13
-3.41863e-13
-3.35219e-13
-3.2787e-13
-3.16936e-13
-3.09654e-13
-3.04915e-13
-3.0006e-13
-2.89309e-13
-2.73887e-13
-2.63024e-13
-2.54022e-13
-2.4495e-13
-2.357e-13
-2.32241e-13
-2.25697e-13
-2.26807e-13
-2.2161e-13
-2.16278e-13
-2.06838e-13
-1.94892e-13
-1.86025e-13
-1.77648e-13
-1.78845e-13
-1.78087e-13
-1.68609e-13
-1.5996e-13
-1.53811e-13
-1.45828e-13
-1.37812e-13
-1.2849e-13
-1.1552e-13
-1.02336e-13
-9.70445e-14
-9.38302e-14
-8.71676e-14
-8.22874e-14
-7.59843e-14
-6.36431e-14
-5.27583e-14
-4.38399e-14
-3.43968e-14
-2.32396e-14
-1.50144e-14
-9.44403e-15
-2.9991e-15
-1.58771e-15
-7.21446e-13
-7.14646e-13
-7.13195e-13
-7.11372e-13
-7.07039e-13
-7.03059e-13
-6.9644e-13
-6.98874e-13
-6.98044e-13
-6.91153e-13
-6.84141e-13
-6.75657e-13
-6.72327e-13
-6.61217e-13
-6.50339e-13
-6.39183e-13
-6.27737e-13
-6.23285e-13
-6.179e-13
-6.04286e-13
-5.90177e-13
-5.76955e-13
-5.65532e-13
-5.6238e-13
-5.62368e-13
-5.55461e-13
-5.49499e-13
-5.42556e-13
-5.36122e-13
-5.34787e-13
-5.29737e-13
-5.22551e-13
-5.09865e-13
-4.98607e-13
-4.78896e-13
-4.75999e-13
-4.76871e-13
-4.75607e-13
-4.71393e-13
-4.6027e-13
-4.52698e-13
-4.41802e-13
-4.36435e-13
-4.25111e-13
-4.21265e-13
-4.15508e-13
-4.10572e-13
-4.01672e-13
-3.9078e-13
-3.75091e-13
-3.71338e-13
-3.65314e-13
-3.5778e-13
-3.43508e-13
-3.35824e-13
-3.28995e-13
-3.21403e-13
-3.1922e-13
-3.10607e-13
-3.09561e-13
-3.10769e-13
-2.86345e-13
-2.71804e-13
-2.65279e-13
-2.5666e-13
-2.49299e-13
-2.3905e-13
-2.32076e-13
-2.22377e-13
-2.20289e-13
-2.15689e-13
-2.19481e-13
-2.13167e-13
-2.00373e-13
-1.84012e-13
-1.72623e-13
-1.79243e-13
-1.76743e-13
-1.69082e-13
-1.62673e-13
-1.55861e-13
-1.46407e-13
-1.3707e-13
-1.26089e-13
-1.1605e-13
-1.03937e-13
-9.62861e-14
-9.47766e-14
-8.8982e-14
-7.78771e-14
-6.88468e-14
-6.30603e-14
-5.41863e-14
-4.31065e-14
-3.94152e-14
-3.1027e-14
-1.55093e-14
-4.7894e-15
2.40835e-15
-6.88987e-16
-7.15476e-13
-7.1777e-13
-7.17366e-13
-7.1097e-13
-7.04409e-13
-7.0473e-13
-7.01975e-13
-6.97852e-13
-6.95675e-13
-6.89961e-13
-6.85911e-13
-6.80124e-13
-6.70395e-13
-6.59907e-13
-6.51333e-13
-6.42896e-13
-6.36405e-13
-6.31486e-13
-6.20576e-13
-6.01409e-13
-5.80098e-13
-5.65621e-13
-5.628e-13
-5.63953e-13
-5.62381e-13
-5.55103e-13
-5.45838e-13
-5.42482e-13
-5.36414e-13
-5.36223e-13
-5.3451e-13
-5.16947e-13
-5.03651e-13
-4.95403e-13
-4.86431e-13
-4.82834e-13
-4.79813e-13
-4.74408e-13
-4.68828e-13
-4.60385e-13
-4.52656e-13
-4.41518e-13
-4.34422e-13
-4.29383e-13
-4.27017e-13
-4.16463e-13
-4.08752e-13
-3.95055e-13
-3.91459e-13
-3.82717e-13
-3.69964e-13
-3.63957e-13
-3.57475e-13
-3.48505e-13
-3.38813e-13
-3.24377e-13
-3.11754e-13
-3.16375e-13
-3.21582e-13
-3.11979e-13
-3.01461e-13
-2.88838e-13