/*--------------------------------*- C++ -*----------------------------------*\
| =========                 |                                                 |
| \\      /  F ield         | OpenFOAM: The Open Source CFD Toolbox           |
|  \\    /   O peration     | Version:  v2012                                 |
|   \\  /    A nd           | Website:  www.openfoam.com                      |
|    \\/     M anipulation  |                                                 |
\*---------------------------------------------------------------------------*/
FoamFile
{
    version     2.0;
    format      ascii;
    class       volVectorField;
    location    "0";
    object      uRec;
}
// * * * * * * * * * * * * * * * * * * * * * * * * * * * * * * * * * * * * * //

dimensions      [0 1 -1 0 0 0 0];


internalField   nonuniform List<vector> 
4000
(
(1 4.52811e-16 0)
(1 1.63513e-15 0)
(1 -9.40808e-16 0)
(1 -4.76074e-16 0)
(1 1.09521e-15 0)
(1 2.10441e-16 0)
(1 2.2209e-15 0)
(1 -1.77769e-15 0)
(1 1.37233e-15 0)
(1 1.46231e-15 0)
(1 -2.27424e-15 0)
(1 2.1607e-16 0)
(1 1.0769e-15 0)
(1 4.37788e-16 0)
(1 -7.4229e-17 0)
(1 1.24511e-16 0)
(1 -1.31855e-15 0)
(1 -1.33794e-15 0)
(1 1.27666e-15 0)
(1 5.06161e-16 0)
(1 4.00446e-17 0)
(1 1.76852e-15 0)
(1 2.29572e-16 0)
(1 2.14043e-15 0)
(1 1.14402e-16 0)
(1 -4.52138e-16 0)
(1 1.31857e-15 0)
(1 -1.33543e-15 0)
(1 -1.82107e-16 0)
(1 -3.33509e-17 0)
(1 9.26707e-16 0)
(1 1.8662e-15 0)
(1 -8.93915e-16 0)
(1 -2.74565e-16 0)
(1 1.0193e-15 0)
(1 -5.94808e-16 0)
(1 -4.46377e-16 0)
(1 1.13465e-15 0)
(1 2.12389e-15 0)
(1 -1.51356e-16 0)
(1 1.27639e-15 0)
(1 -1.38409e-15 0)
(1 -3.28617e-16 0)
(1 5.87729e-16 0)
(1 1.40334e-15 0)
(1 -1.05016e-15 0)
(1 1.02741e-15 0)
(1 1.42539e-16 0)
(1 6.83078e-17 0)
(1 3.10119e-16 0)
(1 -4.60732e-16 0)
(1 1.15063e-15 0)
(1 2.31564e-16 0)
(1 2.33501e-15 0)
(1 1.12024e-15 0)
(1 6.60462e-16 0)
(1 7.2049e-17 0)
(1 -3.85979e-17 0)
(1 1.1271e-15 0)
(1 2.35438e-15 0)
(1 1.34396e-17 0)
(1 -1.27205e-15 0)
(1 -3.87037e-16 0)
(1 7.17178e-16 0)
(1 5.60142e-16 0)
(1 1.58347e-16 0)
(1 3.52552e-16 0)
(1 -6.48945e-16 0)
(1 8.07961e-16 0)
(1 -6.98788e-16 0)
(1 -5.11756e-16 0)
(1 1.90736e-16 0)
(1 3.34741e-16 0)
(1 -2.0432e-16 0)
(1 -7.64298e-16 0)
(1 -1.58701e-15 0)
(1 -1.86044e-16 0)
(1 -8.01084e-17 0)
(1 7.60123e-16 0)
(1 1.30388e-15 0)
(1 7.04292e-16 0)
(1 1.29342e-15 0)
(1 -5.48753e-16 0)
(1 4.70635e-16 0)
(1 -8.80721e-16 0)
(1 -8.9271e-16 0)
(1 -1.43055e-16 0)
(1 7.64483e-16 0)
(1 1.33335e-15 0)
(1 8.35053e-16 0)
(1 1.90681e-16 0)
(1 -5.68502e-16 0)
(1 7.90032e-16 0)
(1 1.46529e-15 0)
(1 -7.93632e-16 0)
(1 -1.6779e-15 0)
(1 7.68569e-17 0)
(1 1.27934e-15 0)
(1 6.66833e-17 0)
(1 -1.07502e-16 0)
(1 4.03129e-16 0)
(1 3.55018e-15 0)
(1 -8.98632e-16 0)
(1 -1.18399e-15 0)
(1 6.52028e-17 0)
(1 1.14331e-15 0)
(1 2.6033e-15 0)
(1 -1.76202e-15 0)
(1 1.75659e-15 0)
(1 1.47274e-15 0)
(1 -2.98961e-16 0)
(1 7.04248e-16 0)
(1 1.5525e-15 0)
(1 1.37113e-16 0)
(1 -4.612e-16 0)
(1 1.54396e-15 0)
(1 -5.5937e-16 0)
(1 6.53348e-18 0)
(1 2.09868e-15 0)
(1 5.65859e-16 0)
(1 4.1106e-17 0)
(1 9.4669e-16 0)
(1 -4.44142e-16 0)
(1 1.47974e-15 0)
(1 1.52651e-16 0)
(1 9.68147e-16 0)
(1 3.34649e-15 0)
(1 -1.69892e-15 0)
(1 -2.68662e-16 0)
(1 1.1871e-15 0)
(1 2.51093e-16 0)
(1 2.7957e-15 0)
(1 -1.18038e-15 0)
(1 -3.35472e-16 0)
(1 1.73688e-15 0)
(1 -4.49314e-16 0)
(1 9.32055e-16 0)
(1 3.21153e-15 0)
(1 1.90916e-15 0)
(1 -5.17289e-17 0)
(1 -3.4777e-16 0)
(1 -1.07014e-15 0)
(1 -1.22834e-15 0)
(1 1.1491e-16 0)
(1 9.47854e-16 0)
(1 -6.16365e-16 0)
(1 3.38591e-15 0)
(1 3.30383e-15 0)
(1 3.25512e-15 0)
(1 1.7275e-15 0)
(1 7.76752e-16 0)
(1 4.1944e-16 0)
(1 2.47826e-15 0)
(1 1.96675e-15 0)
(1 1.994e-15 0)
(1 7.55948e-16 0)
(1 1.24149e-15 0)
(1 2.52922e-15 0)
(1 1.27767e-15 0)
(1 -5.43265e-16 0)
(1 4.54996e-16 0)
(1 8.11933e-16 0)
(1 -2.81243e-17 0)
(1 1.23194e-15 0)
(1 4.63063e-16 0)
(1 1.77554e-15 0)
(1 -1.24692e-15 0)
(1 -1.34292e-15 0)
(1 8.5672e-16 0)
(1 -5.71483e-16 0)
(1 -1.04646e-15 0)
(1 6.40279e-16 0)
(1 1.77672e-15 0)
(1 -3.83831e-16 0)
(1 1.68577e-16 0)
(1 -1.55662e-16 0)
(1 7.79467e-16 0)
(1 2.13551e-15 0)
(1 7.30698e-16 0)
(1 2.3941e-15 0)
(1 1.15739e-15 0)
(1 1.19677e-15 0)
(1 2.08925e-15 0)
(1 8.0381e-17 0)
(1 5.74456e-16 0)
(1 -6.60592e-16 0)
(1 -8.41841e-16 0)
(1 -1.834e-17 0)
(1 1.17236e-15 0)
(1 1.89635e-15 0)
(1 5.485e-16 0)
(1 -8.37469e-16 0)
(1 2.49237e-15 0)
(1 1.79484e-15 0)
(1 -2.18156e-15 0)
(1 -1.6964e-15 0)
(1 1.07814e-15 0)
(1 7.46756e-16 0)
(1 -3.51109e-16 0)
(1 -3.05728e-16 0)
(1 -5.10281e-18 0)
(1 2.36144e-15 0)
(1 -6.47238e-17 0)
(1 -1.96758e-16 0)
(1 2.99448e-16 0)
(1 1.43809e-15 0)
(1 2.60314e-15 0)
(1 4.72433e-15 0)
(1 -9.59559e-16 0)
(1 -7.29742e-16 0)
(1 1.15427e-15 0)
(1 2.99383e-15 0)
(1 2.68783e-15 0)
(1 4.07758e-16 0)
(1 4.03879e-16 0)
(1 1.14911e-15 0)
(1 1.59661e-15 0)
(1 2.26717e-15 0)
(1 1.00501e-15 0)
(1 2.15667e-15 0)
(1 7.07431e-16 0)
(1 -5.02323e-16 0)
(1 6.73959e-17 0)
(1 5.28697e-16 0)
(1 3.27553e-15 0)
(1 3.68896e-15 0)
(1 3.40803e-15 0)
(1 -7.87446e-16 0)
(1 1.06376e-16 0)
(1 1.67121e-15 0)
(1 1.42351e-15 0)
(1 -5.38127e-16 0)
(1 1.03038e-15 0)
(1 1.41353e-15 0)
(1 3.65805e-16 0)
(1 7.75606e-16 0)
(1 1.20933e-16 0)
(1 3.08806e-15 0)
(1 3.27117e-15 0)
(1 -2.45303e-16 0)
(1 -1.33795e-16 0)
(1 7.46526e-16 0)
(1 -3.25549e-16 0)
(1 -6.8339e-16 0)
(1 5.45138e-16 0)
(1 8.72293e-16 0)
(1 1.29956e-15 0)
(1 4.48277e-15 0)
(1 5.00949e-15 0)
(1 3.69518e-15 0)
(1 3.72051e-15 0)
(1 1.95757e-15 0)
(1 4.02919e-15 0)
(1 1.99412e-16 0)
(1 2.41409e-15 0)
(1 9.98501e-16 0)
(1 2.79988e-15 0)
(1 3.2049e-15 0)
(1 3.74766e-15 0)
(1 7.43099e-16 0)
(1 2.84628e-16 0)
(1 1.64324e-15 0)
(1 1.40549e-15 0)
(1 -7.38408e-16 0)
(1 4.59995e-17 0)
(1 1.00454e-15 0)
(1 -5.04459e-16 0)
(1 6.0273e-16 0)
(1 1.69285e-15 0)
(1 7.87549e-16 0)
(1 1.00091e-15 0)
(1 9.61202e-16 0)
(1 2.98931e-16 0)
(1 -1.42128e-15 0)
(1 9.31766e-17 0)
(1 3.72865e-16 0)
(1 9.50257e-16 0)
(1 1.81533e-15 0)
(1 1.83876e-15 0)
(1 7.00702e-16 0)
(1 -1.66514e-16 0)
(1 9.3635e-16 0)
(1 2.4976e-15 0)
(1 7.08811e-16 0)
(1 1.04993e-15 0)
(1 1.03703e-15 0)
(1 -4.83528e-16 0)
(1 -3.93227e-17 0)
(1 6.22968e-16 0)
(1 2.42613e-15 0)
(1 1.39688e-15 0)
(1 7.04066e-16 0)
(1 6.49299e-16 0)
(1 1.59003e-15 0)
(1 -6.30348e-16 0)
(1 -1.48513e-16 0)
(1 1.57709e-15 0)
(1 -1.47147e-15 0)
(1 1.65539e-16 0)
(1 1.905e-16 0)
(1 1.51882e-16 0)
(1 1.96264e-15 0)
(1 1.4097e-15 0)
(1 -5.91479e-16 0)
(1 1.60439e-15 0)
(1 -1.94209e-16 0)
(1 2.65697e-15 0)
(1 5.34372e-15 0)
(1 1.20211e-15 0)
(1 6.2902e-16 0)
(1 1.57536e-16 0)
(1 5.2825e-15 0)
(1 1.01905e-15 0)
(1 3.54487e-16 0)
(1 3.88023e-15 0)
(1 -2.94627e-16 0)
(1 2.3985e-15 0)
(1 2.48496e-16 0)
(1 -1.07465e-15 0)
(1 5.21602e-15 0)
(1 5.55672e-16 0)
(1 2.34692e-15 0)
(1 1.55237e-15 0)
(1 1.67577e-15 0)
(1 5.2146e-15 0)
(1 3.46669e-15 0)
(1 2.83957e-15 0)
(1 7.76999e-16 0)
(1 9.66516e-16 0)
(1 2.7894e-15 0)
(1 1.22249e-15 0)
(1 8.68497e-16 0)
(1 1.14371e-15 0)
(1 2.75215e-15 0)
(1 1.42149e-15 0)
(1 8.18021e-16 0)
(1 -3.00597e-16 0)
(1 3.9814e-16 0)
(1 3.65473e-15 0)
(1 2.19103e-15 0)
(1 3.06985e-15 0)
(1 8.98357e-16 0)
(1 -3.31234e-16 0)
(1 5.73167e-16 0)
(1 2.12438e-15 0)
(1 3.12017e-15 0)
(1 1.92058e-15 0)
(1 3.95223e-15 0)
(1 4.97804e-15 0)
(1 4.81779e-15 0)
(1 5.07234e-15 0)
(1 3.29177e-15 0)
(1 2.86094e-15 0)
(1 2.40285e-15 0)
(1 3.39205e-15 0)
(1 2.28059e-15 0)
(1 3.63754e-15 0)
(1 4.17747e-15 0)
(1 3.66326e-15 0)
(1 4.72805e-15 0)
(1 2.3681e-15 0)
(1 -5.63305e-18 0)
(1 1.61228e-16 0)
(1 9.08904e-16 0)
(1 -6.06712e-16 0)
(1 2.54846e-16 0)
(1 -3.52951e-16 0)
(1 2.74307e-15 0)
(1 8.39338e-16 0)
(1 6.64484e-16 0)
(1 1.36241e-15 0)
(1 3.24522e-16 0)
(1 -2.30982e-16 0)
(1 -6.03168e-16 0)
(1 -9.76387e-16 0)
(1 7.7197e-16 0)
(1 3.06414e-15 0)
(1 1.26273e-15 0)
(1 3.21509e-15 0)
(1 2.93376e-15 0)
(1 -3.86385e-16 0)
(1 2.92582e-15 0)
(1 1.37903e-15 0)
(1 2.00744e-15 0)
(1 1.95478e-15 0)
(1 3.10346e-16 0)
(1 1.64048e-15 0)
(1 3.33857e-16 0)
(1 1.72394e-15 0)
(1 2.10704e-15 0)
(1 5.84035e-16 0)
(1 2.04603e-15 0)
(1 9.61578e-16 0)
(1 2.00027e-15 0)
(1 1.61739e-15 0)
(1 4.45657e-16 0)
(1 3.9462e-16 0)
(1 4.01414e-16 0)
(1 -1.1303e-15 0)
(1 -1.12313e-15 0)
(1 8.05535e-16 0)
(1 3.2191e-17 0)
(1 1.87307e-15 0)
(1 -2.78268e-16 0)
(1 1.18292e-15 0)
(1 2.24472e-15 0)
(1 1.69352e-15 0)
(1 1.68335e-15 0)
(1 5.58453e-15 0)
(1 3.56648e-15 0)
(1 2.93035e-15 0)
(1 4.03527e-15 0)
(1 3.12851e-16 0)
(1 -8.48411e-16 0)
(1 2.80726e-15 0)
(1 2.29106e-15 0)
(1 4.77428e-15 0)
(1 3.2719e-15 0)
(1 1.55161e-15 0)
(1 5.42021e-16 0)
(1 8.62674e-16 0)
(1 1.97259e-15 0)
(1 3.57745e-15 0)
(1 4.78151e-15 0)
(1 1.90014e-15 0)
(1 1.16456e-15 0)
(1 9.18819e-16 0)
(1 2.14557e-15 0)
(1 2.15169e-15 0)
(1 5.99684e-16 0)
(1 2.01614e-15 0)
(1 3.33025e-15 0)
(1 2.95351e-16 0)
(1 3.84643e-15 0)
(1 2.34359e-16 0)
(1 -4.73432e-16 0)
(1 1.02103e-15 0)
(1 6.3069e-16 0)
(1 2.5467e-15 0)
(1 4.19919e-15 0)
(1 3.39646e-15 0)
(1 1.8758e-15 0)
(1 -6.50163e-16 0)
(1 1.83465e-15 0)
(1 7.51828e-16 0)
(1 4.57364e-15 0)
(1 5.67613e-15 0)
(1 6.66973e-15 0)
(1 5.33527e-15 0)
(1 4.10467e-15 0)
(1 4.56173e-15 0)
(1 2.81045e-15 0)
(1 2.59271e-15 0)
(1 4.29939e-15 0)
(1 4.72601e-15 0)
(1 4.49755e-15 0)
(1 3.63224e-15 0)
(1 3.79252e-15 0)
(1 1.18895e-15 0)
(1 1.0379e-15 0)
(1 4.36176e-15 0)
(1 1.50145e-15 0)
(1 2.10679e-15 0)
(1 1.65199e-15 0)
(1 1.10406e-15 0)
(1 1.1929e-15 0)
(1 7.62251e-16 0)
(1 2.63972e-15 0)
(1 -1.19922e-16 0)
(1 2.25744e-15 0)
(1 3.43551e-16 0)
(1 6.9061e-16 0)
(1 2.53212e-15 0)
(1 1.00397e-15 0)
(1 3.8292e-16 0)
(1 1.34944e-15 0)
(1 3.38117e-15 0)
(1 3.65841e-15 0)
(1 3.28165e-15 0)
(1 1.89173e-15 0)
(1 1.34394e-15 0)
(1 1.94593e-15 0)
(1 1.9019e-15 0)
(1 1.41117e-15 0)
(1 3.02999e-15 0)
(1 5.62185e-16 0)
(1 2.08501e-15 0)
(1 1.16816e-15 0)
(1 6.78721e-16 0)
(1 1.63688e-15 0)
(1 1.15596e-15 0)
(1 1.51533e-15 0)
(1 2.93938e-15 0)
(1 1.55206e-15 0)
(1 2.828e-15 0)
(1 1.50538e-15 0)
(1 -3.39735e-18 0)
(1 1.05194e-15 0)
(1 -1.88848e-15 0)
(1 -9.08679e-16 0)
(1 1.76126e-16 0)
(1 -1.97493e-15 0)
(1 1.99715e-15 0)
(1 2.26697e-15 0)
(1 1.39304e-15 0)
(1 3.02109e-15 0)
(1 1.65381e-15 0)
(1 3.40934e-15 0)
(1 4.10791e-15 0)
(1 4.43505e-15 0)
(1 5.94709e-15 0)
(1 2.68016e-15 0)
(1 3.47088e-16 0)
(1 2.18628e-15 0)
(1 2.2981e-15 0)
(1 2.95035e-15 0)
(1 1.79993e-15 0)
(1 2.45333e-15 0)
(1 2.55239e-15 0)
(1 1.45711e-16 0)
(1 2.88176e-15 0)
(1 5.64e-16 0)
(1 5.73957e-15 0)
(1 4.39194e-15 0)
(1 1.87209e-15 0)
(1 3.71407e-15 0)
(1 2.35151e-15 0)
(1 1.54425e-15 0)
(1 9.05488e-16 0)
(1 9.59066e-16 0)
(1 9.8177e-16 0)
(1 1.74277e-15 0)
(1 1.66146e-15 0)
(1 3.04509e-15 0)
(1 -2.90613e-16 0)
(1 2.45798e-15 0)
(1 4.32408e-15 0)
(1 4.28355e-15 0)
(1 2.47011e-15 0)
(1 2.12417e-15 0)
(1 3.73891e-15 0)
(1 2.93649e-15 0)
(1 1.42212e-15 0)
(1 1.07715e-15 0)
(1 2.97213e-15 0)
(1 4.36957e-15 0)
(1 4.07039e-15 0)
(1 6.31767e-15 0)
(1 6.6458e-15 0)
(1 6.10084e-15 0)
(1 4.01202e-15 0)
(1 4.20012e-15 0)
(1 4.97613e-15 0)
(1 5.23955e-15 0)
(1 4.17805e-15 0)
(1 4.77192e-15 0)
(1 5.26233e-15 0)
(1 4.91976e-15 0)
(1 5.00643e-15 0)
(1 5.19821e-15 0)
(1 3.96205e-15 0)
(1 1.25475e-15 0)
(1 1.56865e-15 0)
(1 3.86451e-16 0)
(1 2.48192e-15 0)
(1 1.96599e-15 0)
(1 4.35475e-15 0)
(1 2.53773e-15 0)
(1 2.25036e-15 0)
(1 1.83499e-15 0)
(1 1.99111e-15 0)
(1 1.79695e-15 0)
(1 3.00332e-15 0)
(1 9.12207e-16 0)
(1 9.39671e-17 0)
(1 8.36946e-16 0)
(1 2.31057e-15 0)
(1 5.03663e-15 0)
(1 2.24231e-15 0)
(1 9.64197e-16 0)
(1 2.35874e-15 0)
(1 3.38108e-15 0)
(1 1.95661e-15 0)
(1 2.81028e-15 0)
(1 2.18853e-15 0)
(1 1.37368e-15 0)
(1 1.27128e-15 0)
(1 -2.26218e-16 0)
(1 1.46157e-16 0)
(1 1.7822e-15 0)
(1 2.26241e-15 0)
(1 2.06262e-15 0)
(1 3.28839e-15 0)
(1 3.61135e-15 0)
(1 4.38785e-15 0)
(1 3.31094e-15 0)
(1 1.30112e-15 0)
(1 -9.81181e-16 0)
(1 8.47969e-16 0)
(1 1.46858e-15 0)
(1 -5.34031e-16 0)
(1 6.46791e-17 0)
(1 3.13671e-15 0)
(1 9.46063e-16 0)
(1 3.01324e-15 0)
(1 4.54306e-16 0)
(1 1.18232e-15 0)
(1 5.49431e-15 0)
(1 2.95076e-15 0)
(1 4.17448e-15 0)
(1 5.49884e-15 0)
(1 1.68856e-15 0)
(1 2.11484e-15 0)
(1 4.41172e-15 0)
(1 3.08214e-15 0)
(1 5.66436e-15 0)
(1 4.30015e-15 0)
(1 1.47605e-15 0)
(1 2.34728e-15 0)
(1 3.69983e-15 0)
(1 3.63416e-15 0)
(1 -1.94082e-15 0)
(1 4.60805e-15 0)
(1 4.72814e-16 0)
(1 3.33485e-15 0)
(1 2.60018e-15 0)
(1 1.55993e-15 0)
(1 1.74306e-15 0)
(1 2.38196e-15 0)
(1 4.28969e-15 0)
(1 2.06781e-15 0)
(1 2.51802e-15 0)
(1 3.07293e-15 0)
(1 7.73758e-16 0)
(1 1.40058e-15 0)
(1 4.72269e-15 0)
(1 4.74772e-15 0)
(1 3.9268e-15 0)
(1 1.56848e-16 0)
(1 2.52758e-15 0)
(1 2.8644e-15 0)
(1 1.64072e-15 0)
(1 4.47452e-15 0)
(1 2.70269e-15 0)
(1 4.69204e-15 0)
(1 4.91208e-15 0)
(1 5.6732e-15 0)
(1 4.6015e-15 0)
(1 5.54665e-15 0)
(1 7.13825e-15 0)
(1 4.95238e-15 0)
(1 4.60285e-15 0)
(1 5.48289e-15 0)
(1 6.69945e-15 0)
(1 4.64991e-15 0)
(1 4.04739e-15 0)
(1 4.29858e-15 0)
(1 5.43193e-15 0)
(1 5.5701e-15 0)
(1 5.79149e-15 0)
(1 2.15365e-15 0)
(1 3.18267e-15 0)
(1 1.79298e-15 0)
(1 2.41072e-15 0)
(1 1.51463e-15 0)
(1 7.54075e-16 0)
(1 7.29474e-16 0)
(1 3.11143e-15 0)
(1 2.92607e-15 0)
(1 6.30536e-16 0)
(1 3.77213e-15 0)
(1 3.46823e-15 0)
(1 1.32743e-15 0)
(1 1.10192e-15 0)
(1 1.28675e-15 0)
(1 3.81437e-15 0)
(1 2.79119e-15 0)
(1 4.43603e-15 0)
(1 3.3335e-15 0)
(1 3.21117e-15 0)
(1 3.56684e-15 0)
(1 3.54065e-15 0)
(1 3.43939e-15 0)
(1 2.95493e-15 0)
(1 2.39006e-15 0)
(1 3.08901e-15 0)
(1 1.8963e-15 0)
(1 2.14432e-15 0)
(1 2.8529e-15 0)
(1 1.9052e-15 0)
(1 2.42424e-15 0)
(1 3.4824e-15 0)
(1 4.19426e-15 0)
(1 3.97177e-15 0)
(1 2.73164e-15 0)
(1 3.74529e-15 0)
(1 1.33676e-15 0)
(1 3.06106e-16 0)
(1 1.82638e-15 0)
(1 9.91342e-16 0)
(1 -6.33223e-16 0)
(1 8.59887e-16 0)
(1 9.64493e-16 0)
(1 1.49204e-15 0)
(1 3.31517e-15 0)
(1 2.08572e-15 0)
(1 1.31888e-15 0)
(1 3.19463e-15 0)
(1 5.77227e-15 0)
(1 6.97906e-15 0)
(1 4.51918e-15 0)
(1 -4.13086e-16 0)
(1 4.0595e-15 0)
(1 2.25102e-15 0)
(1 3.28169e-15 0)
(1 6.01248e-15 0)
(1 4.22068e-15 0)
(1 6.61767e-15 0)
(1 4.83904e-15 0)
(1 7.46432e-16 0)
(1 1.2018e-15 0)
(1 -1.18961e-15 0)
(1 1.33754e-15 0)
(1 2.58954e-15 0)
(1 2.28027e-15 0)
(1 -8.87599e-16 0)
(1 -6.40184e-16 0)
(1 2.27406e-15 0)
(1 2.62603e-15 0)
(1 4.42288e-15 0)
(1 7.05416e-15 0)
(1 3.32575e-15 0)
(1 3.09266e-15 0)
(1 3.08647e-16 0)
(1 1.41218e-15 0)
(1 2.05742e-15 0)
(1 1.95422e-15 0)
(1 3.02305e-15 0)
(1 3.87822e-15 0)
(1 6.32274e-15 0)
(1 2.76734e-15 0)
(1 2.96635e-15 0)
(1 6.06621e-15 0)
(1 3.49807e-15 0)
(1 3.24391e-15 0)
(1 6.32587e-15 0)
(1 7.43537e-15 0)
(1 7.09007e-15 0)
(1 3.25067e-15 0)
(1 5.50629e-15 0)
(1 6.89468e-15 0)
(1 6.1422e-15 0)
(1 3.55425e-15 0)
(1 6.83777e-15 0)
(1 7.57936e-15 0)
(1 8.05536e-15 0)
(1 4.72073e-15 0)
(1 3.33504e-15 0)
(1 6.16967e-15 0)
(1 2.77411e-15 0)
(1 1.02532e-15 0)
(1 4.32509e-15 0)
(1 5.23672e-15 0)
(1 4.60173e-15 0)
(1 2.46051e-15 0)
(1 3.08066e-15 0)
(1 2.94718e-15 0)
(1 9.49103e-16 0)
(1 2.95049e-15 0)
(1 2.81679e-15 0)
(1 4.01473e-15 0)
(1 3.49269e-15 0)
(1 2.42784e-15 0)
(1 1.2125e-15 0)
(1 2.33059e-15 0)
(1 5.37069e-15 0)
(1 3.71358e-15 0)
(1 2.53496e-15 0)
(1 2.66585e-15 0)
(1 1.97962e-15 0)
(1 3.97491e-15 0)
(1 1.99536e-15 0)
(1 3.82349e-15 0)
(1 4.08623e-15 0)
(1 5.03862e-16 0)
(1 2.68312e-15 0)
(1 2.88715e-15 0)
(1 4.21801e-15 0)
(1 3.99907e-15 0)
(1 1.83315e-16 0)
(1 1.78321e-15 0)
(1 3.68981e-15 0)
(1 3.75685e-15 0)
(1 4.23104e-15 0)
(1 3.80196e-15 0)
(1 3.72701e-15 0)
(1 4.32878e-16 0)
(1 7.58207e-16 0)
(1 2.01456e-15 0)
(1 1.88675e-15 0)
(1 -2.23569e-16 0)
(1 8.99018e-16 0)
(1 -2.2366e-16 0)
(1 1.43572e-15 0)
(1 9.28559e-16 0)
(1 4.13872e-15 0)
(1 2.2104e-15 0)
(1 5.47071e-16 0)
(1 5.12748e-15 0)
(1 5.11884e-15 0)
(1 4.29507e-15 0)
(1 3.54409e-15 0)
(1 3.52035e-15 0)
(1 4.68081e-15 0)
(1 4.21533e-15 0)
(1 4.74489e-15 0)
(1 3.83022e-15 0)
(1 6.05602e-15 0)
(1 5.99441e-15 0)
(1 9.03978e-16 0)
(1 -1.61014e-15 0)
(1 2.47167e-15 0)
(1 7.18057e-16 0)
(1 3.30252e-15 0)
(1 2.08939e-15 0)
(1 -2.80345e-16 0)
(1 1.94688e-15 0)
(1 -4.89224e-16 0)
(1 1.13145e-15 0)
(1 4.26419e-15 0)
(1 4.82023e-15 0)
(1 2.12348e-15 0)
(1 4.05806e-15 0)
(1 3.25087e-15 0)
(1 1.62225e-15 0)
(1 2.52691e-15 0)
(1 2.5948e-15 0)
(1 4.80665e-15 0)
(1 4.70369e-15 0)
(1 4.81707e-15 0)
(1 2.1255e-15 0)
(1 4.82381e-15 0)
(1 5.54091e-15 0)
(1 4.775e-15 0)
(1 7.14811e-15 0)
(1 4.33711e-15 0)
(1 6.20226e-15 0)
(1 5.76749e-15 0)
(1 3.06216e-15 0)
(1 4.49339e-15 0)
(1 6.36014e-15 0)
(1 7.86275e-15 0)
(1 5.24969e-15 0)
(1 7.12299e-15 0)
(1 8.73358e-15 0)
(1 7.73082e-15 0)
(1 7.7763e-15 0)
(1 4.01334e-15 0)
(1 7.22496e-15 0)
(1 3.73299e-15 0)
(1 5.0948e-15 0)
(1 4.08485e-15 0)
(1 2.293e-15 0)
(1 5.00034e-15 0)
(1 -5.85268e-16 0)
(1 3.77905e-15 0)
(1 4.23958e-15 0)
(1 8.54115e-16 0)
(1 6.00694e-15 0)
(1 5.20589e-15 0)
(1 5.20832e-15 0)
(1 2.06768e-15 0)
(1 3.36799e-15 0)
(1 2.06443e-15 0)
(1 1.70723e-15 0)
(1 4.29049e-15 0)
(1 3.31609e-15 0)
(1 2.80767e-15 0)
(1 2.33833e-15 0)
(1 5.34435e-15 0)
(1 4.85249e-15 0)
(1 5.6642e-15 0)
(1 2.82713e-15 0)
(1 4.09238e-15 0)
(1 7.41821e-16 0)
(1 9.45845e-16 0)
(1 1.80197e-15 0)
(1 2.88774e-15 0)
(1 2.98418e-15 0)
(1 2.79688e-15 0)
(1 2.55144e-15 0)
(1 3.51793e-15 0)
(1 4.41799e-15 0)
(1 5.61985e-15 0)
(1 6.05139e-15 0)
(1 4.49259e-15 0)
(1 2.51802e-15 0)
(1 1.38144e-15 0)
(1 3.61362e-15 0)
(1 3.57508e-15 0)
(1 5.57527e-16 0)
(1 9.18611e-16 0)
(1 1.6908e-15 0)
(1 4.58627e-16 0)
(1 2.07169e-15 0)
(1 1.16349e-15 0)
(1 3.58865e-15 0)
(1 3.781e-15 0)
(1 4.13917e-15 0)
(1 4.24288e-15 0)
(1 3.07738e-15 0)
(1 8.42464e-15 0)
(1 4.61353e-15 0)
(1 4.20004e-15 0)
(1 4.4056e-15 0)
(1 2.49275e-15 0)
(1 2.80276e-15 0)
(1 3.54129e-15 0)
(1 3.40596e-15 0)
(1 4.01659e-15 0)
(1 9.05681e-16 0)
(1 2.47133e-15 0)
(1 -6.04606e-16 0)
(1 1.07569e-15 0)
(1 3.4153e-15 0)
(1 3.449e-15 0)
(1 1.51988e-15 0)
(1 2.68999e-16 0)
(1 2.83628e-15 0)
(1 1.21336e-15 0)
(1 1.38709e-15 0)
(1 4.27234e-15 0)
(1 4.26431e-15 0)
(1 4.47924e-15 0)
(1 4.46256e-15 0)
(1 2.73823e-15 0)
(1 7.43709e-16 0)
(1 2.30437e-15 0)
(1 1.65892e-15 0)
(1 1.69233e-15 0)
(1 2.64686e-15 0)
(1 6.04398e-15 0)
(1 5.60626e-15 0)
(1 6.85994e-15 0)
(1 8.69115e-15 0)
(1 5.28447e-15 0)
(1 5.03471e-15 0)
(1 4.44282e-15 0)
(1 6.34658e-15 0)
(1 6.79774e-15 0)
(1 5.07247e-15 0)
(1 4.38281e-15 0)
(1 6.75666e-15 0)
(1 7.84797e-15 0)
(1 9.29548e-15 0)
(1 7.19497e-15 0)
(1 5.53436e-15 0)
(1 3.1742e-15 0)
(1 5.39828e-15 0)
(1 5.60211e-15 0)
(1 6.39595e-15 0)
(1 7.07361e-15 0)
(1 4.2541e-15 0)
(1 4.27678e-15 0)
(1 4.05752e-15 0)
(1 1.46652e-15 0)
(1 3.53583e-15 0)
(1 3.37269e-15 0)
(1 4.65777e-15 0)
(1 4.65627e-15 0)
(1 5.19739e-15 0)
(1 3.62027e-15 0)
(1 2.54098e-15 0)
(1 2.49961e-15 0)
(1 2.91317e-15 0)
(1 3.23556e-15 0)
(1 4.08184e-15 0)
(1 2.68731e-15 0)
(1 3.96001e-15 0)
(1 4.1083e-15 0)
(1 4.91511e-15 0)
(1 4.39385e-15 0)
(1 2.93695e-15 0)
(1 3.38814e-15 0)
(1 1.89173e-15 0)
(1 1.58167e-15 0)
(1 3.43982e-15 0)
(1 3.44525e-15 0)
(1 2.21397e-15 0)
(1 3.24509e-15 0)
(1 5.51793e-15 0)
(1 2.88038e-15 0)
(1 5.09298e-15 0)
(1 1.83032e-15 0)
(1 6.61678e-15 0)
(1 3.64923e-15 0)
(1 3.02652e-15 0)
(1 4.35099e-15 0)
(1 4.15995e-15 0)
(1 3.54994e-15 0)
(1 3.02633e-16 0)
(1 -5.92921e-17 0)
(1 1.87528e-15 0)
(1 2.73822e-15 0)
(1 1.2753e-15 0)
(1 -6.82311e-17 0)
(1 4.39769e-15 0)
(1 3.79455e-15 0)
(1 4.84359e-15 0)
(1 4.82792e-15 0)
(1 1.64625e-15 0)
(1 6.02314e-15 0)
(1 2.76514e-15 0)
(1 4.04157e-15 0)
(1 3.40021e-15 0)
(1 1.55673e-15 0)
(1 3.34268e-15 0)
(1 3.63478e-15 0)
(1 4.73178e-15 0)
(1 4.09252e-15 0)
(1 7.33408e-16 0)
(1 1.50426e-15 0)
(1 -1.08983e-15 0)
(1 1.44601e-15 0)
(1 -9.17247e-16 0)
(1 6.88935e-15 0)
(1 5.91556e-15 0)
(1 5.11943e-15 0)
(1 3.7907e-15 0)
(1 -1.064e-15 0)
(1 -9.10105e-17 0)
(1 2.32727e-15 0)
(1 2.07186e-15 0)
(1 3.06615e-15 0)
(1 5.13372e-15 0)
(1 1.77648e-15 0)
(1 2.55434e-15 0)
(1 1.79065e-16 0)
(1 1.48267e-15 0)
(1 2.86417e-15 0)
(1 6.82819e-15 0)
(1 5.4691e-15 0)
(1 4.47911e-15 0)
(1 5.08033e-15 0)
(1 6.42761e-15 0)
(1 6.65047e-15 0)
(1 5.32048e-15 0)
(1 5.46804e-15 0)
(1 9.13661e-15 0)
(1 6.57678e-15 0)
(1 4.99746e-15 0)
(1 5.20669e-15 0)
(1 7.91046e-15 0)
(1 8.92813e-15 0)
(1 9.05811e-15 0)
(1 7.42932e-15 0)
(1 7.30423e-15 0)
(1 4.61763e-15 0)
(1 6.75493e-15 0)
(1 4.86398e-15 0)
(1 5.66811e-15 0)
(1 5.06815e-15 0)
(1 4.75821e-15 0)
(1 3.09144e-15 0)
(1 5.73559e-15 0)
(1 4.29225e-15 0)
(1 3.35748e-15 0)
(1 4.02504e-15 0)
(1 1.26876e-17 0)
(1 2.06112e-15 0)
(1 4.22254e-15 0)
(1 4.67691e-15 0)
(1 3.30373e-15 0)
(1 3.16659e-15 0)
(1 1.92633e-15 0)
(1 3.78537e-16 0)
(1 5.76456e-15 0)
(1 3.52376e-15 0)
(1 2.06209e-15 0)
(1 3.20829e-15 0)
(1 5.90149e-15 0)
(1 4.51967e-15 0)
(1 7.73901e-15 0)
(1 3.37988e-15 0)
(1 2.27156e-15 0)
(1 3.5222e-15 0)
(1 3.44099e-15 0)
(1 1.83595e-15 0)
(1 1.89314e-15 0)
(1 9.92113e-16 0)
(1 6.61929e-15 0)
(1 3.43894e-15 0)
(1 3.79223e-15 0)
(1 3.23374e-15 0)
(1 4.40048e-15 0)
(1 4.52362e-15 0)
(1 3.7618e-15 0)
(1 5.29451e-15 0)
(1 2.21793e-15 0)
(1 2.02476e-15 0)
(1 -2.19965e-17 0)
(1 7.73819e-16 0)
(1 1.44125e-15 0)
(1 3.01665e-15 0)
(1 2.80883e-18 0)
(1 2.88363e-15 0)
(1 1.13726e-15 0)
(1 3.15096e-15 0)
(1 4.22551e-15 0)
(1 5.06281e-15 0)
(1 5.04185e-15 0)
(1 1.65014e-15 0)
(1 1.4882e-15 0)
(1 3.60458e-15 0)
(1 4.30818e-15 0)
(1 4.01712e-15 0)
(1 4.05498e-15 0)
(1 1.7904e-15 0)
(1 5.04866e-15 0)
(1 3.08423e-15 0)
(1 1.46297e-15 0)
(1 2.8879e-15 0)
(1 1.73417e-15 0)
(1 5.4449e-16 0)
(1 1.39913e-15 0)
(1 1.67845e-15 0)
(1 4.22384e-15 0)
(1 3.53448e-15 0)
(1 3.83534e-15 0)
(1 1.16264e-15 0)
(1 2.60304e-15 0)
(1 3.31802e-15 0)
(1 5.21584e-16 0)
(1 6.85736e-16 0)
(1 4.60389e-16 0)
(1 2.04428e-15 0)
(1 3.70206e-15 0)
(1 1.96332e-16 0)
(1 2.81664e-15 0)
(1 3.73314e-15 0)
(1 6.60514e-15 0)
(1 4.11303e-15 0)
(1 2.11714e-15 0)
(1 5.19596e-15 0)
(1 7.7091e-15 0)
(1 6.43459e-15 0)
(1 7.68698e-15 0)
(1 4.34055e-15 0)
(1 6.30955e-15 0)
(1 6.50542e-15 0)
(1 5.62571e-15 0)
(1 7.11973e-15 0)
(1 7.82912e-15 0)
(1 8.92174e-15 0)
(1 8.09934e-15 0)
(1 3.34093e-15 0)
(1 5.47202e-15 0)
(1 6.15666e-15 0)
(1 6.03202e-15 0)
(1 4.72991e-15 0)
(1 6.74779e-15 0)
(1 5.84768e-15 0)
(1 6.73245e-15 0)
(1 4.55284e-15 0)
(1 2.34136e-15 0)
(1 3.70514e-15 0)
(1 2.38628e-15 0)
(1 3.25783e-15 0)
(1 2.78573e-15 0)
(1 1.91782e-15 0)
(1 4.90236e-15 0)
(1 3.78009e-15 0)
(1 7.76107e-16 0)
(1 2.83784e-15 0)
(1 3.7041e-15 0)
(1 1.50075e-15 0)
(1 3.59534e-15 0)
(1 2.94495e-15 0)
(1 2.22143e-15 0)
(1 4.69963e-15 0)
(1 6.75034e-15 0)
(1 4.81278e-15 0)
(1 5.55721e-15 0)
(1 1.93325e-15 0)
(1 3.40213e-15 0)
(1 5.31428e-15 0)
(1 1.70438e-15 0)
(1 1.90955e-15 0)
(1 2.66825e-15 0)
(1 5.60784e-15 0)
(1 5.47801e-15 0)
(1 4.09028e-15 0)
(1 2.39792e-15 0)
(1 4.50647e-15 0)
(1 3.2538e-15 0)
(1 5.91315e-15 0)
(1 5.14768e-15 0)
(1 4.3885e-15 0)
(1 1.76071e-15 0)
(1 6.55612e-16 0)
(1 7.95262e-16 0)
(1 8.59653e-16 0)
(1 7.50447e-16 0)
(1 9.97515e-16 0)
(1 2.98013e-15 0)
(1 2.91182e-15 0)
(1 2.70023e-15 0)
(1 3.03987e-15 0)
(1 1.97555e-15 0)
(1 5.33965e-15 0)
(1 7.07435e-15 0)
(1 3.04818e-15 0)
(1 2.43298e-15 0)
(1 1.9507e-15 0)
(1 3.94908e-15 0)
(1 1.75963e-15 0)
(1 6.34338e-16 0)
(1 8.1011e-16 0)
(1 3.85987e-15 0)
(1 3.24406e-15 0)
(1 5.21067e-15 0)
(1 5.03734e-15 0)
(1 1.85786e-15 0)
(1 -2.60281e-15 0)
(1 6.32772e-15 0)
(1 9.94948e-16 0)
(1 -4.62421e-16 0)
(1 9.68422e-16 0)
(1 1.92719e-15 0)
(1 3.34224e-15 0)
(1 1.18922e-15 0)
(1 3.45712e-15 0)
(1 5.98218e-17 0)
(1 7.14516e-17 0)
(1 3.42582e-15 0)
(1 2.50219e-15 0)
(1 3.37131e-15 0)
(1 5.40863e-16 0)
(1 2.9448e-15 0)
(1 4.51483e-15 0)
(1 3.99192e-15 0)
(1 4.90355e-15 0)
(1 1.71506e-15 0)
(1 5.56701e-15 0)
(1 4.51039e-15 0)
(1 7.43888e-15 0)
(1 7.96499e-15 0)
(1 6.20919e-15 0)
(1 3.51165e-15 0)
(1 5.93768e-15 0)
(1 6.40946e-15 0)
(1 6.20446e-15 0)
(1 9.36145e-15 0)
(1 9.15492e-15 0)
(1 6.96969e-15 0)
(1 6.94391e-15 0)
(1 4.77414e-15 0)
(1 7.24795e-15 0)
(1 2.1789e-15 0)
(1 4.56297e-15 0)
(1 3.62432e-15 0)
(1 5.39595e-15 0)
(1 5.833e-15 0)
(1 5.72281e-15 0)
(1 4.69913e-15 0)
(1 3.0565e-15 0)
(1 4.02773e-15 0)
(1 3.19114e-15 0)
(1 2.50023e-15 0)
(1 2.32929e-15 0)
(1 -4.14815e-16 0)
(1 2.56759e-15 0)
(1 2.87255e-15 0)
(1 3.58074e-15 0)
(1 4.08161e-15 0)
(1 3.55399e-15 0)
(1 1.32306e-15 0)
(1 2.8027e-15 0)
(1 5.77613e-15 0)
(1 3.80923e-15 0)
(1 2.61906e-15 0)
(1 2.17632e-15 0)
(1 2.60643e-15 0)
(1 3.62e-15 0)
(1 4.61647e-15 0)
(1 4.74522e-15 0)
(1 2.68267e-15 0)
(1 4.38681e-15 0)
(1 3.50437e-15 0)
(1 6.21575e-15 0)
(1 3.07053e-15 0)
(1 3.4616e-15 0)
(1 4.11346e-15 0)
(1 2.06806e-15 0)
(1 4.24923e-15 0)
(1 5.0838e-15 0)
(1 2.42922e-15 0)
(1 2.6071e-15 0)
(1 1.29622e-15 0)
(1 3.46744e-16 0)
(1 2.77098e-16 0)
(1 1.11481e-15 0)
(1 -2.74718e-16 0)
(1 2.11278e-15 0)
(1 3.62071e-15 0)
(1 4.21035e-15 0)
(1 3.37692e-15 0)
(1 2.18675e-15 0)
(1 4.45442e-16 0)
(1 2.08721e-15 0)
(1 4.56469e-15 0)
(1 5.27273e-15 0)
(1 4.38854e-15 0)
(1 3.25941e-15 0)
(1 8.80625e-16 0)
(1 1.39846e-15 0)
(1 2.53244e-16 0)
(1 2.4824e-15 0)
(1 7.41948e-16 0)
(1 1.71352e-15 0)
(1 5.32936e-15 0)
(1 4.39047e-15 0)
(1 3.94884e-15 0)
(1 2.78087e-16 0)
(1 1.25269e-15 0)
(1 1.95393e-15 0)
(1 1.81329e-15 0)
(1 -1.99909e-17 0)
(1 3.23853e-15 0)
(1 2.68047e-15 0)
(1 2.04959e-15 0)
(1 -1.26699e-15 0)
(1 1.36789e-15 0)
(1 2.43284e-15 0)
(1 6.13368e-16 0)
(1 -1.76091e-16 0)
(1 2.67659e-15 0)
(1 4.13355e-16 0)
(1 4.49928e-15 0)
(1 2.75833e-15 0)
(1 2.55702e-15 0)
(1 2.6829e-15 0)
(1 7.48913e-15 0)
(1 7.39717e-15 0)
(1 3.87048e-15 0)
(1 6.80036e-15 0)
(1 3.09005e-15 0)
(1 8.49228e-15 0)
(1 3.67872e-15 0)
(1 3.75913e-15 0)
(1 3.43977e-15 0)
(1 4.0827e-15 0)
(1 8.83927e-15 0)
(1 8.42841e-15 0)
(1 4.73136e-15 0)
(1 9.17251e-15 0)
(1 6.71536e-15 0)
(1 6.342e-15 0)
(1 4.39765e-15 0)
(1 4.00848e-15 0)
(1 4.27083e-15 0)
(1 3.20905e-15 0)
(1 2.70604e-15 0)
(1 5.57379e-15 0)
(1 4.75652e-15 0)
(1 4.07656e-15 0)
(1 3.85769e-15 0)
(1 4.09784e-15 0)
(1 2.0693e-15 0)
(1 2.5744e-15 0)
(1 3.11858e-16 0)
(1 4.45868e-15 0)
(1 4.97094e-15 0)
(1 3.57271e-15 0)
(1 2.73319e-15 0)
(1 4.62012e-15 0)
(1 2.61655e-15 0)
(1 4.75413e-15 0)
(1 4.25902e-15 0)
(1 1.36706e-15 0)
(1 2.62599e-15 0)
(1 3.69235e-15 0)
(1 1.55254e-15 0)
(1 4.6189e-15 0)
(1 4.19068e-15 0)
(1 2.92215e-15 0)
(1 2.43087e-15 0)
(1 5.03617e-15 0)
(1 4.95128e-15 0)
(1 4.61942e-15 0)
(1 4.01386e-15 0)
(1 3.04619e-15 0)
(1 4.30754e-15 0)
(1 5.08785e-15 0)
(1 3.53972e-15 0)
(1 3.72614e-15 0)
(1 1.81737e-15 0)
(1 4.14708e-15 0)
(1 1.07764e-15 0)
(1 -1.00822e-15 0)
(1 7.7301e-17 0)
(1 2.18677e-15 0)
(1 1.33897e-15 0)
(1 3.87309e-15 0)
(1 1.75319e-15 0)
(1 3.29265e-15 0)
(1 -1.32896e-16 0)
(1 1.40775e-15 0)
(1 3.62104e-15 0)
(1 1.19633e-15 0)
(1 5.27661e-15 0)
(1 4.77369e-15 0)
(1 4.68196e-15 0)
(1 -1.00548e-15 0)
(1 -1.83391e-15 0)
(1 2.15671e-15 0)
(1 -2.9267e-15 0)
(1 5.94657e-15 0)
(1 3.56366e-16 0)
(1 3.49938e-15 0)
(1 5.53276e-15 0)
(1 1.16154e-15 0)
(1 2.98369e-15 0)
(1 3.87116e-15 0)
(1 -2.22414e-17 0)
(1 6.24945e-18 0)
(1 -2.60697e-16 0)
(1 1.29277e-15 0)
(1 1.88755e-15 0)
(1 6.29144e-16 0)
(1 6.51564e-16 0)
(1 9.29061e-16 0)
(1 1.25435e-15 0)
(1 3.66918e-16 0)
(1 5.41933e-16 0)
(1 1.45273e-15 0)
(1 -4.09745e-16 0)
(1 2.3133e-15 0)
(1 3.81287e-15 0)
(1 1.5731e-15 0)
(1 2.20075e-15 0)
(1 2.80609e-15 0)
(1 8.17465e-15 0)
(1 4.85731e-15 0)
(1 6.20037e-15 0)
(1 4.86045e-15 0)
(1 2.95146e-17 0)
(1 5.97041e-15 0)
(1 3.7332e-15 0)
(1 1.67908e-15 0)
(1 3.8167e-15 0)
(1 6.16053e-15 0)
(1 7.45613e-15 0)
(1 6.77479e-15 0)
(1 6.54602e-15 0)
(1 7.93053e-15 0)
(1 5.59788e-15 0)
(1 6.69592e-15 0)
(1 6.13712e-15 0)
(1 4.40449e-15 0)
(1 5.36025e-15 0)
(1 2.01726e-15 0)
(1 4.69379e-15 0)
(1 3.508e-15 0)
(1 5.18192e-15 0)
(1 4.89691e-15 0)
(1 4.37021e-15 0)
(1 3.70732e-15 0)
(1 3.61034e-15 0)
(1 2.76695e-15 0)
(1 3.78745e-15 0)
(1 3.61174e-15 0)
(1 2.72355e-15 0)
(1 2.90268e-15 0)
(1 1.92115e-15 0)
(1 3.60921e-15 0)
(1 2.89447e-15 0)
(1 5.01993e-15 0)
(1 2.31277e-15 0)
(1 -4.04526e-16 0)
(1 3.44991e-15 0)
(1 3.67418e-15 0)
(1 1.99202e-15 0)
(1 3.81465e-15 0)
(1 3.05113e-15 0)
(1 2.21221e-15 0)
(1 2.2938e-15 0)
(1 4.6319e-15 0)
(1 4.36793e-15 0)
(1 2.6436e-15 0)
(1 3.63448e-15 0)
(1 2.92501e-15 0)
(1 4.26825e-15 0)
(1 5.37844e-15 0)
(1 5.21277e-15 0)
(1 2.66113e-15 0)
(1 7.85481e-16 0)
(1 2.75225e-15 0)
(1 2.27922e-15 0)
(1 1.60157e-15 0)
(1 -1.18618e-16 0)
(1 1.93899e-15 0)
(1 1.67074e-15 0)
(1 1.72636e-15 0)
(1 2.56131e-15 0)
(1 2.92333e-15 0)
(1 2.71918e-15 0)
(1 2.10195e-15 0)
(1 3.48609e-15 0)
(1 2.48909e-15 0)
(1 6.10613e-16 0)
(1 1.57891e-15 0)
(1 2.88014e-15 0)
(1 1.3574e-15 0)
(1 1.39992e-15 0)
(1 1.53248e-15 0)
(1 -2.63134e-16 0)
(1 1.59755e-15 0)
(1 3.73783e-15 0)
(1 2.21615e-15 0)
(1 8.32805e-16 0)
(1 1.62078e-15 0)
(1 1.6996e-15 0)
(1 2.24183e-15 0)
(1 -1.67499e-15 0)
(1 3.72414e-16 0)
(1 9.14614e-16 0)
(1 5.13066e-15 0)
(1 -1.42886e-15 0)
(1 6.91447e-16 0)
(1 -1.18696e-15 0)
(1 6.52079e-16 0)
(1 8.01161e-16 0)
(1 -1.00259e-15 0)
(1 1.97869e-15 0)
(1 7.28226e-16 0)
(1 1.59043e-16 0)
(1 1.46408e-15 0)
(1 4.658e-16 0)
(1 1.71295e-15 0)
(1 3.24673e-15 0)
(1 5.49346e-15 0)
(1 2.76943e-15 0)
(1 3.79291e-15 0)
(1 3.15785e-15 0)
(1 2.03697e-15 0)
(1 4.22949e-15 0)
(1 2.7054e-15 0)
(1 2.59402e-15 0)
(1 -8.63849e-16 0)
(1 5.00482e-15 0)
(1 8.20049e-15 0)
(1 7.76526e-15 0)
(1 5.4327e-15 0)
(1 8.20119e-15 0)
(1 7.34475e-15 0)
(1 5.32058e-15 0)
(1 5.23447e-15 0)
(1 3.97314e-15 0)
(1 3.41015e-15 0)
(1 2.47063e-15 0)
(1 2.87107e-15 0)
(1 3.161e-15 0)
(1 -3.35567e-16 0)
(1 5.37055e-15 0)
(1 4.00308e-15 0)
(1 4.04673e-15 0)
(1 3.33886e-15 0)
(1 3.22377e-15 0)
(1 2.98545e-15 0)
(1 2.23031e-15 0)
(1 -2.75635e-16 0)
(1 1.59895e-15 0)
(1 4.10351e-15 0)
(1 1.81697e-15 0)
(1 1.92559e-15 0)
(1 2.23699e-15 0)
(1 2.82261e-15 0)
(1 2.56746e-15 0)
(1 3.26362e-15 0)
(1 8.18576e-16 0)
(1 3.40112e-16 0)
(1 4.10482e-15 0)
(1 2.64809e-15 0)
(1 2.49405e-15 0)
(1 1.79468e-15 0)
(1 3.34951e-15 0)
(1 5.09885e-15 0)
(1 5.39405e-15 0)
(1 3.62097e-15 0)
(1 3.62262e-15 0)
(1 4.1263e-15 0)
(1 4.33281e-15 0)
(1 3.81474e-15 0)
(1 3.2394e-15 0)
(1 1.06087e-15 0)
(1 2.12164e-15 0)
(1 2.63466e-16 0)
(1 1.93046e-15 0)
(1 2.82546e-15 0)
(1 -8.76501e-16 0)
(1 1.79358e-15 0)
(1 1.77787e-16 0)
(1 1.18981e-15 0)
(1 2.7331e-15 0)
(1 3.59214e-15 0)
(1 4.51859e-15 0)
(1 4.51043e-15 0)
(1 1.0195e-15 0)
(1 2.0357e-15 0)
(1 1.48184e-16 0)
(1 -1.016e-15 0)
(1 8.33071e-16 0)
(1 5.179e-15 0)
(1 1.6365e-15 0)
(1 1.03506e-15 0)
(1 3.25806e-15 0)
(1 -2.32645e-15 0)
(1 1.63464e-17 0)