/*--------------------------------*- C++ -*----------------------------------*\
| =========                 |                                                 |
| \\      /  F ield         | OpenFOAM: The Open Source CFD Toolbox           |
|  \\    /   O peration     | Version:  v2012                                 |
|   \\  /    A nd           | Website:  www.openfoam.com                      |
|    \\/     M anipulation  |                                                 |
\*---------------------------------------------------------------------------*/
FoamFile
{
    version     2.0;
    format      ascii;
    class       volScalarField;
    location    "0";
    object      pRec;
}
// * * * * * * * * * * * * * * * * * * * * * * * * * * * * * * * * * * * * * //

dimensions      [0 2 -2 0 0 0 0];


internalField   nonuniform List<scalar> 
4000
(
-6.84554e-13
-6.79433e-13
-6.80321e-13
-6.82614e-13
-6.81068e-13
-6.81778e-13
-6.7996e-13
-6.7517e-13
-6.66243e-13
-6.61548e-13
-6.61902e-13
-6.56762e-13
-6.48497e-13
-6.36607e-13
-6.23054e-13
-6.17417e-13
-6.13858e-13
-6.11082e-13
-6.03607e-13
-5.92169e-13
-5.81891e-13
-5.7464e-13
-5.69241e-13
-5.60369e-13
-5.49548e-13
-5.38667e-13
-5.35151e-13
-5.30222e-13
-5.23731e-13
-5.12278e-13
-4.9792e-13
-4.90075e-13
-4.86836e-13
-4.83275e-13
-4.77394e-13
-4.72698e-13
-4.62467e-13
-4.45846e-13
-4.29115e-13
-4.24274e-13
-4.23068e-13
-4.20297e-13
-4.19046e-13
-4.12844e-13
-4.03257e-13
-3.94225e-13
-3.85005e-13
-3.7582e-13
-3.67259e-13
-3.59771e-13
-3.51691e-13
-3.44365e-13
-3.37432e-13
-3.29441e-13
-3.21937e-13
-3.10145e-13
-3.02759e-13
-3.00616e-13
-2.98175e-13
-2.95113e-13
-2.87131e-13
-2.8023e-13
-2.70903e-13
-2.60027e-13
-2.52554e-13
-2.45494e-13
-2.40817e-13
-2.32539e-13
-2.22535e-13
-2.1567e-13
-2.08464e-13
-2.00705e-13
-1.87792e-13
-1.8078e-13
-1.79098e-13
-1.7486e-13
-1.69429e-13
-1.62866e-13
-1.53404e-13
-1.40221e-13
-1.28222e-13
-1.2218e-13
-1.1385e-13
-1.08889e-13
-1.03167e-13
-9.71356e-14
-8.87484e-14
-8.11585e-14
-7.78377e-14
-7.34692e-14
-6.76618e-14
-6.09679e-14
-5.4775e-14
-5.01424e-14
-4.09531e-14
-3.20501e-14
-2.49011e-14
-1.72049e-14
-9.30605e-15
-2.14742e-15
-6.81482e-13
-6.80034e-13
-6.82602e-13
-6.82641e-13
-6.83592e-13
-6.80657e-13
-6.77574e-13
-6.75411e-13
-6.69921e-13
-6.64387e-13
-6.58806e-13
-6.54368e-13
-6.46909e-13
-6.36378e-13
-6.26241e-13
-6.20344e-13
-6.1587e-13
-6.09704e-13
-6.0193e-13
-5.95198e-13
-5.84406e-13
-5.72801e-13
-5.65923e-13
-5.5784e-13
-5.47561e-13
-5.41285e-13
-5.3678e-13
-5.30936e-13
-5.22733e-13
-5.09361e-13
-5.00206e-13
-4.93073e-13
-4.86423e-13
-4.80226e-13
-4.74886e-13
-4.69349e-13
-4.61174e-13
-4.4846e-13
-4.3512e-13
-4.27786e-13
-4.23022e-13
-4.20161e-13
-4.16363e-13
-4.11421e-13
-4.04087e-13
-3.94183e-13
-3.83933e-13
-3.75656e-13
-3.67065e-13
-3.57631e-13
-3.50761e-13
-3.43475e-13
-3.37751e-13
-3.30779e-13
-3.23215e-13
-3.12541e-13
-3.02513e-13
-2.98878e-13
-2.96582e-13
-2.93606e-13
-2.89142e-13
-2.80312e-13
-2.71437e-13
-2.61673e-13
-2.54407e-13
-2.45777e-13
-2.38529e-13
-2.31603e-13
-2.24645e-13
-2.17007e-13
-2.08466e-13
-2.00878e-13
-1.9209e-13
-1.83889e-13
-1.78906e-13
-1.71176e-13
-1.68246e-13
-1.60884e-13
-1.50641e-13
-1.39017e-13
-1.29217e-13
-1.23406e-13
-1.17477e-13
-1.10721e-13
-1.01748e-13
-9.52881e-14
-8.68711e-14
-7.93258e-14
-7.63902e-14
-7.21071e-14
-6.87559e-14
-6.34084e-14
-5.81612e-14
-4.81685e-14
-3.95027e-14
-3.26113e-14
-2.43399e-14
-1.72937e-14
-1.04441e-14
-3.83498e-15
-6.80818e-13
-6.79927e-13
-6.8198e-13
-6.84629e-13
-6.85577e-13
-6.81744e-13
-6.76579e-13
-6.74279e-13
-6.67959e-13
-6.64144e-13
-6.59788e-13
-6.53757e-13
-6.4631e-13
-6.37843e-13
-6.28099e-13
-6.21266e-13
-6.14758e-13
-6.08566e-13
-6.02623e-13
-5.93778e-13
-5.83713e-13
-5.74668e-13
-5.66531e-13
-5.58719e-13
-5.49372e-13
-5.43661e-13
-5.37689e-13
-5.29306e-13
-5.20487e-13
-5.07947e-13
-5.00489e-13
-4.93109e-13
-4.85955e-13
-4.82073e-13
-4.76963e-13
-4.70466e-13
-4.59814e-13
-4.49474e-13
-4.38681e-13
-4.2795e-13
-4.22213e-13
-4.1721e-13
-4.16463e-13
-4.11985e-13
-4.0462e-13
-3.94097e-13
-3.82272e-13
-3.73311e-13
-3.68355e-13
-3.63041e-13
-3.52112e-13
-3.4409e-13
-3.35621e-13
-3.278e-13
-3.21058e-13
-3.13313e-13
-3.03188e-13
-3.0104e-13
-3.00517e-13
-2.95381e-13
-2.86969e-13
-2.75928e-13
-2.68511e-13
-2.62837e-13
-2.5679e-13
-2.48894e-13
-2.40919e-13
-2.30976e-13
-2.23334e-13
-2.13897e-13
-2.05847e-13
-1.98606e-13
-1.89316e-13
-1.83372e-13
-1.78441e-13
-1.72957e-13
-1.67671e-13
-1.60777e-13
-1.50305e-13
-1.40184e-13
-1.33822e-13
-1.25163e-13
-1.13615e-13
-1.07449e-13
-1.01669e-13
-9.74504e-14
-9.10735e-14
-8.27409e-14
-7.63532e-14
-7.04231e-14
-6.64623e-14
-6.30701e-14
-5.65026e-14
-4.86657e-14
-3.91898e-14
-3.05706e-14
-2.51219e-14
-1.81195e-14
-1.36514e-14
-4.45022e-15
-6.8173e-13
-6.82583e-13
-6.82989e-13
-6.79597e-13
-6.84069e-13
-6.79185e-13
-6.76647e-13
-6.74539e-13
-6.71863e-13
-6.66118e-13
-6.58388e-13
-6.49644e-13
-6.42694e-13
-6.37886e-13
-6.35764e-13
-6.26438e-13
-6.13186e-13
-6.05904e-13
-6.01495e-13
-5.92936e-13
-5.83896e-13
-5.76066e-13
-5.6687e-13
-5.5353e-13
-5.45688e-13
-5.41752e-13
-5.37154e-13
-5.31461e-13
-5.20991e-13
-5.1157e-13
-5.04034e-13
-4.95094e-13
-4.86704e-13
-4.8035e-13
-4.72761e-13
-4.70098e-13
-4.60654e-13
-4.4842e-13
-4.39765e-13
-4.30068e-13
-4.25068e-13
-4.21395e-13
-4.16118e-13
-4.09457e-13
-4.00177e-13
-3.9106e-13
-3.82456e-13
-3.76507e-13
-3.68587e-13
-3.57556e-13
-3.48759e-13
-3.43147e-13
-3.37358e-13
-3.31543e-13
-3.20568e-13
-3.14317e-13
-3.05429e-13
-3.00147e-13
-2.99479e-13
-2.93669e-13
-2.85636e-13
-2.77728e-13
-2.72245e-13
-2.65137e-13
-2.56579e-13
-2.47695e-13
-2.40009e-13
-2.31075e-13
-2.23732e-13
-2.16166e-13
-2.0919e-13
-2.01492e-13
-1.92159e-13
-1.84668e-13
-1.78045e-13
-1.71603e-13
-1.67408e-13
-1.60368e-13
-1.50207e-13
-1.40603e-13
-1.33113e-13
-1.25557e-13
-1.15618e-13
-1.06517e-13
-1.00972e-13
-9.58598e-14
-8.92911e-14
-8.18435e-14
-7.46189e-14
-7.08491e-14
-6.84769e-14
-6.38669e-14
-5.7901e-14
-4.73452e-14
-3.87102e-14
-3.28726e-14
-2.66719e-14
-1.76456e-14
-1.11554e-14
-4.20353e-15
-6.82268e-13
-6.86218e-13
-6.82877e-13
-6.79093e-13
-6.76229e-13
-6.79469e-13
-6.79205e-13
-6.76981e-13
-6.7079e-13
-6.63633e-13
-6.55843e-13
-6.51181e-13
-6.4204e-13
-6.36566e-13
-6.34904e-13
-6.28887e-13
-6.19493e-13
-6.09713e-13
-5.98766e-13
-5.88504e-13
-5.83492e-13
-5.75338e-13
-5.61972e-13
-5.53064e-13
-5.48928e-13
-5.43707e-13
-5.38409e-13
-5.30373e-13
-5.23223e-13
-5.13975e-13
-5.04694e-13
-4.95854e-13
-4.86598e-13
-4.80656e-13
-4.74303e-13
-4.69716e-13
-4.59315e-13
-4.48422e-13
-4.38081e-13
-4.30537e-13
-4.25307e-13
-4.23065e-13
-4.16249e-13
-4.08117e-13
-3.98559e-13
-3.88175e-13
-3.81228e-13
-3.75374e-13
-3.67832e-13
-3.61061e-13
-3.52169e-13
-3.45055e-13
-3.37551e-13
-3.31223e-13
-3.20564e-13
-3.13028e-13
-3.06628e-13
-3.01428e-13
-2.98854e-13
-2.92786e-13
-2.8593e-13
-2.78139e-13
-2.70265e-13
-2.64516e-13
-2.58707e-13
-2.52117e-13
-2.44023e-13
-2.32138e-13
-2.23579e-13
-2.1354e-13
-2.05889e-13
-1.99276e-13
-1.92396e-13
-1.84683e-13
-1.75088e-13
-1.68935e-13
-1.66419e-13
-1.59947e-13
-1.52544e-13
-1.42481e-13
-1.34319e-13
-1.27476e-13
-1.15164e-13
-1.05377e-13
-9.80507e-14
-9.30647e-14
-8.95765e-14
-8.43207e-14
-7.6721e-14
-7.20767e-14
-6.74573e-14
-6.35214e-14
-5.5976e-14
-5.03174e-14
-4.24802e-14
-3.31451e-14
-2.63317e-14
-1.95974e-14
-1.06882e-14
-1.68356e-15
-6.79163e-13
-6.87514e-13
-6.84085e-13
-6.76264e-13
-6.8037e-13
-6.83004e-13
-6.80783e-13
-6.76658e-13
-6.68925e-13
-6.57192e-13
-6.53675e-13
-6.50507e-13
-6.4666e-13
-6.37869e-13
-6.31737e-13
-6.30216e-13
-6.20545e-13
-6.12053e-13
-6.03803e-13
-5.91683e-13
-5.80762e-13
-5.6995e-13
-5.53883e-13
-5.49823e-13
-5.49569e-13
-5.46908e-13
-5.38647e-13
-5.30206e-13
-5.22532e-13
-5.16334e-13
-5.05572e-13
-4.9594e-13
-4.87753e-13
-4.83249e-13
-4.78825e-13
-4.6847e-13
-4.57462e-13
-4.48606e-13
-4.37835e-13
-4.32624e-13
-4.27662e-13
-4.23405e-13
-4.14648e-13
-4.08181e-13
-3.98725e-13
-3.87103e-13
-3.78558e-13
-3.72379e-13
-3.68129e-13
-3.60931e-13
-3.53494e-13
-3.44611e-13
-3.3669e-13
-3.2895e-13
-3.19453e-13
-3.14263e-13
-3.08959e-13
-3.02372e-13
-2.97592e-13
-2.93165e-13
-2.882e-13
-2.79245e-13
-2.70741e-13
-2.64125e-13
-2.55724e-13
-2.50419e-13
-2.44476e-13
-2.33363e-13
-2.24609e-13
-2.1642e-13
-2.07199e-13
-1.99335e-13
-1.93641e-13
-1.86015e-13
-1.76705e-13
-1.71252e-13
-1.65446e-13
-1.56907e-13
-1.51802e-13
-1.44322e-13
-1.36853e-13
-1.26693e-13
-1.13086e-13
-1.03709e-13
-9.90583e-14
-9.49759e-14
-9.08354e-14
-8.2624e-14
-7.57105e-14
-7.13773e-14
-6.72701e-14
-6.37657e-14
-5.44226e-14
-4.90482e-14
-4.19276e-14
-3.54552e-14
-2.674e-14
-1.88448e-14
-8.99576e-15
-7.80138e-16
-6.8361e-13
-6.84004e-13
-6.83481e-13
-6.80508e-13
-6.7787e-13
-6.81184e-13
-6.79994e-13
-6.74509e-13
-6.66882e-13
-6.57955e-13
-6.50387e-13
-6.49801e-13
-6.48476e-13
-6.38936e-13
-6.32896e-13
-6.28327e-13
-6.25048e-13
-6.16938e-13
-6.00964e-13
-5.84823e-13
-5.70089e-13
-5.65007e-13
-5.63173e-13
-5.60061e-13
-5.53447e-13
-5.46268e-13
-5.36796e-13
-5.2851e-13
-5.23501e-13
-5.18306e-13
-5.08258e-13
-4.94825e-13
-4.88301e-13
-4.79762e-13
-4.73765e-13
-4.66467e-13
-4.59376e-13
-4.52949e-13
-4.42136e-13
-4.31387e-13
-4.24145e-13
-4.18423e-13
-4.13391e-13
-4.08724e-13
-4.01553e-13
-3.91343e-13
-3.80311e-13
-3.71347e-13
-3.65066e-13
-3.61004e-13
-3.53988e-13
-3.48101e-13
-3.39414e-13
-3.29341e-13
-3.21095e-13
-3.15148e-13
-3.08242e-13
-2.97774e-13
-2.94081e-13
-2.92799e-13
-2.92581e-13
-2.84281e-13
-2.72997e-13
-2.62077e-13
-2.53016e-13
-2.46863e-13
-2.39346e-13
-2.29533e-13
-2.2092e-13
-2.16128e-13
-2.14525e-13
-2.04689e-13
-1.94636e-13
-1.88656e-13
-1.79518e-13
-1.69834e-13
-1.61417e-13
-1.5319e-13
-1.4803e-13
-1.43132e-13
-1.36123e-13
-1.26184e-13
-1.17585e-13
-1.08847e-13
-1.01765e-13
-9.24255e-14
-8.82767e-14
-8.35975e-14
-7.66721e-14
-7.29195e-14
-6.6739e-14
-5.94075e-14
-5.43753e-14
-4.80772e-14
-4.14018e-14
-3.35022e-14
-2.64913e-14
-1.73443e-14
-9.26555e-15
-2.83244e-15
-6.82215e-13
-6.81386e-13
-6.79709e-13
-6.81727e-13
-6.83721e-13
-6.83152e-13
-6.79191e-13
-6.72719e-13
-6.64847e-13
-6.58795e-13
-6.54087e-13
-6.49138e-13
-6.45102e-13
-6.36807e-13
-6.33006e-13
-6.28749e-13
-6.24875e-13
-6.16843e-13
-5.96979e-13
-5.86921e-13
-5.81666e-13
-5.73998e-13
-5.62942e-13
-5.53631e-13
-5.50521e-13
-5.4306e-13
-5.33408e-13
-5.27663e-13
-5.21693e-13
-5.15531e-13
-5.08673e-13
-4.99857e-13
-4.93545e-13
-4.86058e-13
-4.7479e-13
-4.65897e-13
-4.57744e-13
-4.48765e-13
-4.40993e-13
-4.31775e-13
-4.24818e-13
-4.20633e-13
-4.13931e-13
-4.11775e-13
-4.06297e-13
-3.91833e-13
-3.76674e-13
-3.64673e-13
-3.6399e-13
-3.62168e-13
-3.57933e-13
-3.51402e-13
-3.39624e-13
-3.29361e-13
-3.18665e-13
-3.12638e-13
-3.08802e-13
-3.03247e-13
-2.95898e-13
-2.90868e-13
-2.88921e-13
-2.81636e-13
-2.74031e-13
-2.65708e-13
-2.57717e-13
-2.48989e-13
-2.40619e-13
-2.3138e-13
-2.25088e-13
-2.18059e-13
-2.10865e-13
-2.04818e-13
-1.93269e-13
-1.81243e-13
-1.74608e-13
-1.69675e-13
-1.64785e-13
-1.56865e-13
-1.51862e-13
-1.45717e-13
-1.36953e-13
-1.26371e-13
-1.14402e-13
-1.03991e-13
-9.60707e-14
-9.20557e-14
-8.92063e-14
-8.49577e-14
-7.81353e-14
-7.15422e-14
-6.45713e-14
-5.8979e-14
-5.44644e-14
-4.93975e-14
-4.01573e-14
-3.19811e-14
-2.58266e-14
-1.87668e-14
-1.06237e-14
-1.49296e-15
-6.84153e-13
-6.85169e-13
-6.81028e-13
-6.76402e-13
-6.78956e-13
-6.81123e-13
-6.80594e-13
-6.73083e-13
-6.62607e-13
-6.60245e-13
-6.54837e-13
-6.46126e-13
-6.39916e-13
-6.37202e-13
-6.35056e-13
-6.31011e-13
-6.24726e-13
-6.14879e-13
-6.01221e-13
-5.88595e-13
-5.79978e-13
-5.71314e-13
-5.65958e-13
-5.59508e-13
-5.51284e-13
-5.41163e-13
-5.32332e-13
-5.27513e-13
-5.24761e-13
-5.16092e-13
-5.09634e-13
-5.01328e-13
-4.90597e-13
-4.79972e-13
-4.74725e-13
-4.67047e-13
-4.57466e-13
-4.48734e-13
-4.421e-13
-4.35677e-13
-4.30683e-13
-4.23039e-13
-4.10896e-13
-4.04023e-13
-3.99441e-13
-3.9251e-13
-3.81242e-13
-3.72704e-13
-3.66764e-13
-3.60362e-13
-3.54379e-13
-3.47642e-13
-3.38621e-13
-3.30461e-13
-3.22576e-13
-3.17374e-13
-3.10345e-13
-3.03685e-13
-2.96577e-13
-2.92099e-13
-2.86284e-13
-2.7915e-13
-2.72763e-13
-2.65271e-13
-2.55265e-13
-2.45567e-13
-2.39762e-13
-2.324e-13
-2.24664e-13
-2.17332e-13
-2.09371e-13
-2.05139e-13
-1.97044e-13
-1.8714e-13
-1.76077e-13
-1.69871e-13
-1.65731e-13
-1.58197e-13
-1.52272e-13
-1.43722e-13
-1.36921e-13
-1.27037e-13
-1.14915e-13
-1.05398e-13
-9.82113e-14
-9.2434e-14
-8.96301e-14
-8.42863e-14
-7.78166e-14
-7.13218e-14
-6.39193e-14
-5.83484e-14
-5.15463e-14
-4.63866e-14
-3.96367e-14
-3.21009e-14
-2.47699e-14
-1.56535e-14
-7.40763e-15
8.35858e-16
-6.83611e-13
-6.83077e-13
-6.83545e-13
-6.80069e-13
-6.7722e-13
-6.7879e-13
-6.78154e-13
-6.75325e-13
-6.68516e-13
-6.56893e-13
-6.49531e-13
-6.43423e-13
-6.40594e-13
-6.39462e-13
-6.36152e-13
-6.30106e-13
-6.21401e-13
-6.16002e-13
-6.08099e-13
-5.93002e-13
-5.79929e-13
-5.67655e-13
-5.62127e-13
-5.55692e-13
-5.5196e-13
-5.45571e-13
-5.3632e-13
-5.29929e-13
-5.23557e-13
-5.16715e-13
-5.09859e-13
-5.01106e-13
-4.91192e-13
-4.79612e-13
-4.72097e-13
-4.65542e-13
-4.59889e-13
-4.49493e-13
-4.43668e-13
-4.3673e-13
-4.27037e-13
-4.17605e-13
-4.09891e-13
-4.04255e-13
-4.01867e-13
-3.97021e-13
-3.8551e-13
-3.74519e-13
-3.67126e-13
-3.58629e-13
-3.52061e-13
-3.47281e-13
-3.39891e-13
-3.31579e-13
-3.23086e-13
-3.16121e-13
-3.10016e-13
-3.03071e-13
-2.96567e-13
-2.93687e-13
-2.8956e-13
-2.84954e-13
-2.78271e-13
-2.65985e-13
-2.5263e-13
-2.39462e-13
-2.32319e-13
-2.27727e-13
-2.23859e-13
-2.22805e-13
-2.16628e-13
-2.068e-13
-1.99246e-13
-1.88878e-13
-1.76629e-13
-1.67619e-13
-1.63021e-13
-1.56609e-13
-1.51897e-13
-1.4299e-13
-1.35867e-13
-1.27306e-13
-1.16744e-13
-1.08547e-13
-9.91275e-14
-9.09844e-14
-8.69307e-14
-8.14813e-14
-7.69159e-14
-7.07158e-14
-6.25454e-14
-5.41695e-14
-4.8309e-14
-4.39773e-14
-3.60656e-14
-2.81887e-14
-2.09048e-14
-1.41315e-14
-5.61014e-15
2.42947e-16
-6.81853e-13
-6.81135e-13
-6.80165e-13
-6.81603e-13
-6.81815e-13
-6.7681e-13
-6.74911e-13
-6.71766e-13
-6.66623e-13
-6.61362e-13
-6.5061e-13
-6.42271e-13
-6.41071e-13
-6.41741e-13
-6.36792e-13
-6.32199e-13
-6.20785e-13
-6.13864e-13
-6.06835e-13
-5.93985e-13
-5.836e-13
-5.68741e-13
-5.59139e-13
-5.5449e-13
-5.49212e-13
-5.43646e-13
-5.38465e-13
-5.31653e-13
-5.25239e-13
-5.17971e-13
-5.09231e-13
-4.99986e-13
-4.90052e-13
-4.81287e-13
-4.75813e-13
-4.67628e-13
-4.58606e-13
-4.49544e-13
-4.44203e-13
-4.3495e-13
-4.2739e-13
-4.17771e-13
-4.10836e-13
-4.07625e-13
-4.0391e-13
-3.95514e-13
-3.8314e-13
-3.71054e-13
-3.64525e-13
-3.57523e-13
-3.54602e-13
-3.49332e-13
-3.39283e-13
-3.31196e-13
-3.22545e-13
-3.1938e-13
-3.12702e-13
-3.05371e-13
-2.96396e-13
-2.88304e-13
-2.85689e-13
-2.78063e-13
-2.73445e-13
-2.68375e-13
-2.5549e-13
-2.42246e-13
-2.33202e-13
-2.26933e-13
-2.24229e-13
-2.25233e-13
-2.17145e-13
-2.09137e-13
-1.99725e-13
-1.8845e-13
-1.74941e-13
-1.64122e-13
-1.62662e-13
-1.59269e-13
-1.54861e-13
-1.46099e-13
-1.39029e-13
-1.30447e-13
-1.16339e-13
-1.05492e-13
-9.51304e-14
-8.57547e-14
-8.71182e-14
-8.46226e-14
-7.68347e-14
-6.95299e-14
-6.0418e-14
-5.36227e-14
-4.76766e-14
-4.18978e-14
-3.75208e-14
-3.08831e-14
-1.79126e-14
-6.46178e-15
1.39339e-15
-6.99823e-16
-6.84046e-13
-6.82325e-13
-6.80418e-13
-6.81468e-13
-6.80469e-13
-6.75683e-13
-6.76038e-13
-6.72677e-13
-6.66218e-13
-6.59157e-13
-6.5165e-13
-6.44887e-13
-6.37642e-13
-6.35228e-13
-6.33014e-13
-6.27727e-13
-6.2358e-13
-6.18491e-13
-6.08875e-13
-5.95009e-13
-5.82695e-13
-5.74924e-13
-5.64981e-13
-5.55584e-13
-5.49515e-13
-5.38867e-13
-5.35033e-13
-5.31479e-13
-5.26489e-13
-5.19851e-13
-5.10951e-13
-5.00561e-13
-4.89131e-13
-4.78894e-13
-4.73232e-13
-4.65853e-13
-4.60157e-13
-4.52324e-13
-4.46252e-13
-4.3423e-13
-4.26043e-13
-4.15179e-13
-4.10586e-13
-4.09537e-13
-4.0265e-13
-3.9509e-13
-3.84056e-13
-3.73885e-13
-3.65485e-13
-3.57118e-13
-3.51591e-13
-3.47879e-13
-3.39833e-13
-3.3401e-13
-3.26861e-13
-3.18274e-13
-3.11554e-13
-3.04005e-13
-2.95988e-13
-2.90236e-13
-2.87771e-13
-2.87176e-13
-2.77514e-13
-2.65836e-13
-2.48953e-13
-2.39904e-13
-2.33476e-13
-2.29215e-13
-2.23764e-13
-2.20509e-13
-2.14428e-13
-2.12155e-13
-2.05586e-13
-1.9296e-13
-1.7429e-13
-1.58996e-13
-1.56439e-13
-1.59543e-13
-1.55969e-13
-1.46118e-13
-1.37808e-13
-1.27946e-13
-1.17634e-13
-1.08907e-13
-9.84405e-14
-8.8342e-14
-8.22497e-14
-8.10366e-14
-7.53593e-14
-6.80317e-14
-5.84079e-14
-5.28394e-14
-4.72062e-14
-4.04705e-14
-3.34984e-14
-2.77942e-14
-1.66249e-14
-7.18436e-15
-1.23466e-15
-5.10684e-16
-6.81996e-13
-6.81275e-13
-6.74247e-13
-6.82392e-13
-6.82084e-13
-6.79396e-13
-6.73194e-13
-6.67302e-13
-6.62237e-13
-6.54905e-13
-6.50997e-13
-6.46622e-13
-6.45161e-13
-6.39497e-13
-6.34451e-13
-6.3079e-13
-6.25707e-13
-6.19231e-13
-6.09328e-13
-5.95358e-13
-5.7776e-13
-5.64875e-13
-5.57082e-13
-5.5446e-13
-5.49009e-13
-5.43705e-13
-5.37037e-13
-5.30963e-13
-5.27062e-13
-5.22354e-13
-5.13621e-13
-5.00923e-13
-4.91068e-13
-4.82782e-13
-4.7772e-13
-4.6768e-13
-4.57438e-13
-4.51574e-13
-4.44616e-13
-4.34103e-13
-4.24173e-13
-4.19604e-13
-4.14451e-13
-4.08123e-13
-3.98269e-13
-3.88774e-13
-3.81702e-13
-3.74087e-13
-3.67099e-13
-3.60665e-13
-3.54166e-13
-3.48506e-13
-3.38139e-13
-3.29131e-13
-3.29435e-13
-3.28513e-13
-3.14534e-13
-3.00285e-13
-2.91312e-13
-2.84767e-13
-2.82534e-13
-2.79561e-13
-2.78201e-13
-2.69039e-13
-2.53465e-13
-2.44895e-13
-2.32239e-13
-2.29901e-13
-2.24033e-13
-2.18594e-13
-2.13757e-13
-2.12373e-13
-2.05941e-13
-1.9138e-13
-1.75975e-13
-1.6281e-13
-1.58537e-13
-1.60447e-13
-1.52413e-13
-1.42786e-13
-1.36235e-13
-1.28543e-13
-1.20197e-13
-1.09892e-13
-9.94897e-14
-8.8019e-14
-8.1544e-14
-8.04758e-14
-7.34021e-14
-6.5844e-14
-5.82579e-14
-5.179e-14
-4.45221e-14
-3.89774e-14
-3.39928e-14
-2.64864e-14
-1.6607e-14
-8.30345e-15
-2.86216e-16
8.93918e-16
-6.78665e-13
-6.87301e-13
-6.8195e-13
-6.77738e-13
-6.78378e-13
-6.77398e-13
-6.72716e-13
-6.72009e-13
-6.63184e-13
-6.51132e-13
-6.46894e-13
-6.46105e-13
-6.43781e-13
-6.41232e-13
-6.37145e-13
-6.28489e-13
-6.18414e-13
-6.11739e-13
-6.06426e-13
-5.97154e-13
-5.89806e-13
-5.81729e-13
-5.70815e-13
-5.5467e-13
-5.41362e-13
-5.34733e-13
-5.3586e-13
-5.32411e-13
-5.27579e-13
-5.23577e-13
-5.14225e-13
-5.02457e-13
-4.88147e-13
-4.76228e-13
-4.69691e-13
-4.64555e-13
-4.63354e-13
-4.57213e-13
-4.45083e-13
-4.3769e-13
-4.26316e-13
-4.16719e-13
-4.13192e-13
-4.06147e-13
-3.97087e-13
-3.88356e-13
-3.79194e-13
-3.74397e-13
-3.69714e-13
-3.62741e-13
-3.55154e-13
-3.46572e-13
-3.39989e-13
-3.3284e-13
-3.27868e-13
-3.22319e-13
-3.16632e-13
-3.0844e-13
-3.00361e-13
-2.89844e-13
-2.81415e-13
-2.75027e-13
-2.69865e-13
-2.64629e-13
-2.55259e-13
-2.47077e-13
-2.37861e-13
-2.3084e-13
-2.24591e-13
-2.19931e-13
-2.16072e-13
-2.08148e-13
-2.00384e-13
-1.9153e-13
-1.78299e-13
-1.67557e-13
-1.5857e-13
-1.55599e-13
-1.51572e-13
-1.43669e-13
-1.37182e-13
-1.26675e-13
-1.18232e-13
-1.08422e-13
-9.79708e-14
-8.89194e-14
-8.3797e-14
-7.87807e-14
-7.38348e-14
-6.54517e-14
-5.84754e-14
-5.40258e-14
-4.67169e-14
-3.85762e-14
-2.99314e-14
-2.17923e-14
-1.52788e-14
-9.68882e-15
-2.71109e-15
4.0082e-16
-6.77571e-13
-6.81726e-13
-6.82818e-13
-6.78654e-13
-6.78268e-13
-6.7953e-13
-6.70094e-13
-6.60656e-13
-6.56464e-13
-6.54696e-13
-6.52789e-13
-6.49997e-13
-6.4701e-13
-6.4221e-13
-6.37256e-13
-6.29461e-13
-6.2302e-13
-6.19454e-13
-6.10992e-13
-5.96513e-13
-5.79236e-13
-5.65644e-13
-5.58214e-13
-5.49717e-13
-5.48185e-13
-5.4545e-13
-5.39812e-13
-5.31311e-13
-5.25777e-13
-5.23338e-13
-5.16515e-13
-5.05693e-13
-4.92699e-13
-4.76471e-13
-4.66213e-13
-4.64614e-13
-4.64174e-13
-4.58242e-13
-4.50331e-13
-4.38699e-13
-4.24788e-13
-4.14929e-13
-4.06652e-13
-4.02443e-13
-3.972e-13
-3.90609e-13
-3.83494e-13
-3.7528e-13
-3.69477e-13
-3.69035e-13
-3.61408e-13
-3.45464e-13
-3.35834e-13
-3.28495e-13
-3.23305e-13
-3.20958e-13
-3.16951e-13
-3.07769e-13
-2.95995e-13
-2.87824e-13
-2.84152e-13
-2.79684e-13
-2.73037e-13
-2.64629e-13
-2.51449e-13
-2.41816e-13
-2.36141e-13
-2.33244e-13
-2.27492e-13
-2.19781e-13
-2.13411e-13
-2.07974e-13
-2.00497e-13
-1.89941e-13
-1.79121e-13
-1.64543e-13
-1.56694e-13
-1.54757e-13
-1.53918e-13
-1.48535e-13
-1.39988e-13
-1.29377e-13
-1.17571e-13
-1.05784e-13
-9.67992e-14
-8.89896e-14
-8.36429e-14
-7.72784e-14
-7.12693e-14
-6.44655e-14
-5.84206e-14
-5.28848e-14
-4.68707e-14
-3.85983e-14
-2.91478e-14
-1.96819e-14
-1.21555e-14
-6.92219e-15
-1.3606e-15
-1.81731e-17
-6.76113e-13
-6.83489e-13
-6.83719e-13
-6.79943e-13
-6.76917e-13
-6.81451e-13
-6.78478e-13
-6.6626e-13
-6.50303e-13
-6.47423e-13
-6.46901e-13
-6.48364e-13
-6.47395e-13
-6.45402e-13
-6.3988e-13
-6.3033e-13
-6.21176e-13
-6.14481e-13
-6.02789e-13
-5.94237e-13
-5.86827e-13
-5.7374e-13
-5.62238e-13
-5.49575e-13
-5.47937e-13
-5.45256e-13
-5.41718e-13
-5.35414e-13
-5.27016e-13
-5.22122e-13
-5.13499e-13
-5.01763e-13
-4.91694e-13
-4.76992e-13
-4.64884e-13
-4.62693e-13
-4.62917e-13
-4.58971e-13
-4.5002e-13
-4.39515e-13
-4.23101e-13
-4.13184e-13
-4.09905e-13
-4.05074e-13
-3.97602e-13
-3.89697e-13
-3.85792e-13
-3.79407e-13
-3.70224e-13
-3.60069e-13
-3.53306e-13
-3.47575e-13
-3.39643e-13
-3.27468e-13
-3.27468e-13
-3.24203e-13
-3.1576e-13
-3.09702e-13
-3.02763e-13
-2.90121e-13
-2.8265e-13
-2.77087e-13
-2.68678e-13
-2.61438e-13
-2.51456e-13
-2.43837e-13
-2.34618e-13
-2.30883e-13
-2.243e-13
-2.22381e-13
-2.15571e-13
-2.10505e-13
-2.03523e-13
-1.89952e-13
-1.76053e-13
-1.64428e-13
-1.59578e-13
-1.54946e-13
-1.50556e-13
-1.45024e-13
-1.38914e-13
-1.29968e-13
-1.18032e-13
-1.06117e-13
-9.93615e-14
-9.09213e-14
-8.36458e-14
-7.75675e-14
-7.16626e-14
-6.29374e-14
-5.63057e-14
-5.05543e-14
-4.31643e-14
-3.51521e-14
-2.84126e-14
-2.33729e-14
-1.11371e-14
-3.75398e-15
1.43993e-15
6.69495e-16
-6.81777e-13
-6.81162e-13
-6.77362e-13
-6.73599e-13
-6.75613e-13
-6.70787e-13
-6.67405e-13
-6.68443e-13
-6.6544e-13
-6.58839e-13
-6.5475e-13
-6.4731e-13
-6.41968e-13
-6.40832e-13
-6.38169e-13
-6.32179e-13
-6.23894e-13
-6.20165e-13
-6.09651e-13
-5.93971e-13
-5.75965e-13
-5.64579e-13
-5.58514e-13
-5.56238e-13
-5.49267e-13
-5.46063e-13
-5.41646e-13
-5.34196e-13
-5.27636e-13
-5.21182e-13
-5.13648e-13
-5.01249e-13
-4.89454e-13
-4.77019e-13
-4.68043e-13
-4.65467e-13
-4.6627e-13
-4.58964e-13
-4.48497e-13
-4.38477e-13
-4.24126e-13
-4.11528e-13
-4.08405e-13
-4.04981e-13
-4.00879e-13
-3.9054e-13
-3.81395e-13
-3.78219e-13
-3.73336e-13
-3.62841e-13
-3.52854e-13
-3.4782e-13
-3.41484e-13
-3.30515e-13
-3.23229e-13
-3.19962e-13
-3.1362e-13
-3.08835e-13
-3.03637e-13
-2.95067e-13
-2.84604e-13
-2.77481e-13
-2.68448e-13
-2.61279e-13
-2.54476e-13
-2.4496e-13
-2.34919e-13
-2.25964e-13
-2.218e-13
-2.2285e-13
-2.14383e-13
-2.08844e-13
-2.02101e-13
-1.90548e-13
-1.79383e-13
-1.67557e-13
-1.56677e-13
-1.50752e-13
-1.49949e-13
-1.49268e-13
-1.4248e-13
-1.28226e-13
-1.16799e-13
-1.03922e-13
-9.88934e-14
-9.30484e-14
-8.59999e-14
-7.61235e-14
-6.74562e-14
-6.18185e-14
-5.61274e-14
-4.94221e-14
-4.42741e-14
-3.6449e-14
-2.77214e-14
-1.94028e-14
-1.15672e-14
-4.91609e-15
1.35881e-15
2.08954e-15
-6.80974e-13
-6.80056e-13
-6.77249e-13
-6.74813e-13
-6.80827e-13
-6.78356e-13
-6.67659e-13
-6.61711e-13
-6.58053e-13
-6.55795e-13
-6.54849e-13
-6.5391e-13
-6.43616e-13
-6.36383e-13
-6.33938e-13
-6.29412e-13
-6.25745e-13
-6.18732e-13
-6.07552e-13
-5.92074e-13
-5.79058e-13
-5.66111e-13
-5.57098e-13
-5.56492e-13
-5.55466e-13
-5.46129e-13
-5.38739e-13
-5.34461e-13
-5.31301e-13
-5.23663e-13
-5.15603e-13
-5.02341e-13
-4.88904e-13
-4.76233e-13
-4.65188e-13
-4.63899e-13
-4.61161e-13
-4.58157e-13
-4.5232e-13
-4.41459e-13
-4.26898e-13
-4.15995e-13
-4.08922e-13
-3.99847e-13
-3.97815e-13
-3.91639e-13
-3.84408e-13
-3.75185e-13
-3.68985e-13
-3.63278e-13
-3.53817e-13
-3.47795e-13
-3.41138e-13
-3.31854e-13
-3.28887e-13
-3.23946e-13
-3.12364e-13
-3.03489e-13
-3.00346e-13
-2.93166e-13
-2.86346e-13
-2.77057e-13
-2.70114e-13
-2.63445e-13
-2.54577e-13
-2.43253e-13
-2.36507e-13
-2.26506e-13
-2.18609e-13
-2.17084e-13
-2.14154e-13
-2.09551e-13
-2.03532e-13
-1.90869e-13
-1.78537e-13
-1.67732e-13
-1.59422e-13
-1.52319e-13
-1.51821e-13
-1.47949e-13
-1.4006e-13
-1.29302e-13
-1.17913e-13
-1.0564e-13
-9.74091e-14
-8.8398e-14
-8.18251e-14
-7.77898e-14
-7.16289e-14
-6.19236e-14
-5.50796e-14
-4.79336e-14
-4.1341e-14
-3.41684e-14
-2.62368e-14
-2.04932e-14
-1.29904e-14
-3.55105e-15
1.8741e-15
2.62039e-16
-6.76211e-13
-6.78626e-13
-6.78683e-13
-6.77237e-13
-6.75928e-13
-6.70552e-13
-6.66783e-13
-6.6402e-13
-6.6319e-13
-6.60429e-13
-6.56071e-13
-6.52412e-13
-6.46297e-13
-6.38374e-13
-6.32795e-13
-6.26468e-13
-6.23719e-13
-6.17006e-13
-6.05408e-13
-5.94174e-13
-5.79619e-13
-5.67109e-13
-5.61788e-13
-5.57092e-13
-5.48868e-13
-5.44208e-13
-5.42268e-13
-5.3809e-13
-5.30642e-13
-5.20224e-13
-5.11433e-13
-5.01275e-13
-4.88563e-13
-4.77306e-13
-4.68082e-13
-4.68546e-13
-4.67598e-13
-4.59428e-13
-4.48078e-13
-4.34729e-13
-4.24554e-13
-4.18902e-13
-4.10359e-13
-4.00568e-13
-3.95401e-13
-3.88403e-13
-3.86389e-13
-3.8453e-13
-3.73586e-13
-3.60143e-13
-3.5137e-13
-3.4895e-13
-3.4209e-13
-3.31218e-13
-3.27006e-13
-3.22771e-13
-3.15738e-13
-3.06203e-13
-2.98761e-13
-2.91558e-13
-2.88617e-13
-2.80236e-13
-2.70903e-13
-2.62457e-13
-2.51252e-13
-2.42724e-13
-2.34294e-13
-2.27856e-13
-2.19975e-13
-2.15152e-13
-2.10492e-13
-2.09889e-13
-2.04564e-13
-1.91042e-13
-1.78631e-13
-1.67778e-13
-1.61264e-13
-1.55224e-13
-1.47711e-13
-1.39641e-13
-1.41445e-13
-1.35179e-13
-1.19025e-13
-1.06592e-13
-9.68371e-14
-8.64462e-14
-7.97794e-14
-7.68248e-14
-7.10226e-14
-6.19221e-14
-5.40257e-14
-4.86404e-14
-4.1672e-14
-3.30429e-14
-2.82363e-14
-1.90538e-14
-1.01068e-14
-2.30415e-15
2.69305e-15
-2.52838e-16
-6.82125e-13
-6.79551e-13
-6.77407e-13
-6.74792e-13
-6.70521e-13
-6.68499e-13
-6.65856e-13
-6.66032e-13
-6.64444e-13
-6.61075e-13
-6.5504e-13
-6.51489e-13
-6.46606e-13
-6.41044e-13
-6.34231e-13
-6.25197e-13
-6.16046e-13
-6.10168e-13
-6.05373e-13
-5.98105e-13
-5.82242e-13
-5.7081e-13
-5.62431e-13
-5.5499e-13
-5.50431e-13
-5.4625e-13
-5.42816e-13
-5.39041e-13
-5.29065e-13
-5.22442e-13
-5.12719e-13
-5.00536e-13
-4.87387e-13
-4.75255e-13
-4.70373e-13
-4.68431e-13
-4.64851e-13
-4.58074e-13
-4.47583e-13
-4.36439e-13
-4.25124e-13
-4.16087e-13
-4.11156e-13
-4.04932e-13
-3.99446e-13
-3.92587e-13
-3.83284e-13
-3.7649e-13
-3.72134e-13
-3.64028e-13
-3.57722e-13
-3.4893e-13
-3.40188e-13
-3.3231e-13
-3.26179e-13
-3.18459e-13
-3.14712e-13
-3.08056e-13
-2.99156e-13
-2.92376e-13
-2.89383e-13
-2.82522e-13
-2.71771e-13
-2.60854e-13
-2.52153e-13
-2.43321e-13
-2.33934e-13
-2.26345e-13
-2.19963e-13
-2.15309e-13
-2.12354e-13
-2.10766e-13
-2.03539e-13
-1.88721e-13
-1.77674e-13
-1.67757e-13
-1.60538e-13
-1.54084e-13
-1.50182e-13
-1.45001e-13
-1.38055e-13
-1.3e-13
-1.19634e-13
-1.09021e-13
-1.01142e-13
-8.75735e-14
-7.89889e-14
-7.389e-14
-7.01512e-14
-5.91681e-14
-5.16021e-14
-4.78479e-14
-4.51239e-14
-3.41244e-14
-2.40434e-14
-1.80473e-14
-1.11837e-14
-4.15253e-16
1.32594e-15
-1.1147e-15
-6.84182e-13
-6.78598e-13
-6.73468e-13
-6.7364e-13
-6.66976e-13
-6.67974e-13
-6.66166e-13
-6.67243e-13
-6.67132e-13
-6.59257e-13
-6.54287e-13
-6.52376e-13
-6.50657e-13
-6.42661e-13
-6.3428e-13
-6.27664e-13
-6.20323e-13
-6.10279e-13
-6.03682e-13
-5.91862e-13
-5.82396e-13
-5.7116e-13
-5.59763e-13
-5.53289e-13
-5.49317e-13
-5.49628e-13
-5.43614e-13
-5.37849e-13
-5.29056e-13
-5.21561e-13
-5.13052e-13
-5.02576e-13
-4.87717e-13
-4.77445e-13
-4.68918e-13
-4.65019e-13
-4.63678e-13
-4.58376e-13
-4.48201e-13
-4.36864e-13
-4.28289e-13
-4.18767e-13
-4.1016e-13
-4.03654e-13
-3.9775e-13
-3.91227e-13
-3.83875e-13
-3.78941e-13
-3.74263e-13
-3.65195e-13
-3.54999e-13
-3.45306e-13
-3.39796e-13
-3.34513e-13
-3.29032e-13
-3.22932e-13
-3.15674e-13
-3.06834e-13
-3.01293e-13
-2.96379e-13
-2.90943e-13
-2.81561e-13
-2.68578e-13
-2.59399e-13
-2.50521e-13
-2.41905e-13
-2.32595e-13
-2.27129e-13
-2.19941e-13
-2.18478e-13
-2.13521e-13
-2.07213e-13
-1.97779e-13
-1.86627e-13
-1.76403e-13
-1.66133e-13
-1.63708e-13
-1.60455e-13
-1.51182e-13
-1.42155e-13
-1.35329e-13
-1.27934e-13
-1.18613e-13
-1.07897e-13
-9.65414e-14
-8.47297e-14
-7.99511e-14
-7.59497e-14
-6.89596e-14
-6.39719e-14
-5.82223e-14
-4.76902e-14
-3.90416e-14
-3.22538e-14
-2.40454e-14
-1.56276e-14
-9.07385e-15
-5.13358e-15
-1.83525e-15
-1.47115e-15
-6.81997e-13
-6.76975e-13
-6.75106e-13
-6.72995e-13
-6.70646e-13
-6.67579e-13
-6.63341e-13
-6.66204e-13
-6.66397e-13
-6.6256e-13
-6.56872e-13
-6.51333e-13
-6.49802e-13
-6.41239e-13
-6.3153e-13
-6.22649e-13
-6.14766e-13
-6.10592e-13
-6.04401e-13
-5.94358e-13
-5.83696e-13
-5.72702e-13
-5.62249e-13
-5.56684e-13
-5.53872e-13
-5.47479e-13
-5.40775e-13
-5.32786e-13
-5.25454e-13
-5.21636e-13
-5.13895e-13
-5.06828e-13
-4.953e-13
-4.83697e-13
-4.67423e-13
-4.61841e-13
-4.59724e-13
-4.55305e-13
-4.47277e-13
-4.36801e-13
-4.29965e-13
-4.19168e-13
-4.12559e-13
-4.02461e-13
-3.98308e-13
-3.92284e-13
-3.87971e-13
-3.80362e-13
-3.70836e-13
-3.5888e-13
-3.5401e-13
-3.50572e-13
-3.43319e-13
-3.31347e-13
-3.24729e-13
-3.18548e-13
-3.11408e-13
-3.09616e-13
-3.02293e-13
-3.00041e-13
-2.99152e-13
-2.79346e-13
-2.66806e-13
-2.60985e-13
-2.53332e-13
-2.44095e-13
-2.34793e-13
-2.28095e-13
-2.17588e-13
-2.13342e-13
-2.0951e-13
-2.09713e-13
-2.02093e-13
-1.89535e-13
-1.74269e-13
-1.62422e-13
-1.63075e-13
-1.58978e-13
-1.50689e-13
-1.44596e-13
-1.37222e-13
-1.2829e-13
-1.17095e-13
-1.06531e-13
-9.74289e-14
-8.61242e-14
-7.90606e-14
-7.58206e-14
-6.98752e-14
-5.99024e-14
-5.27856e-14
-4.7316e-14
-3.94895e-14
-3.19005e-14
-2.72627e-14
-2.11442e-14
-9.32453e-15
-2.35416e-15
2.47993e-15
-1.54604e-16
-6.76856e-13
-6.78801e-13
-6.78557e-13
-6.72729e-13
-6.68145e-13
-6.68504e-13
-6.67098e-13
-6.63506e-13
-6.64415e-13
-6.61381e-13
-6.58473e-13
-6.54705e-13
-6.48156e-13
-6.39814e-13
-6.32342e-13
-6.2583e-13
-6.2162e-13
-6.16854e-13
-6.06625e-13
-5.92272e-13
-5.76103e-13
-5.63437e-13
-5.59301e-13
-5.58919e-13
-5.55113e-13
-5.47022e-13
-5.37988e-13
-5.32888e-13
-5.2535e-13
-5.22681e-13
-5.17487e-13
-5.03856e-13
-4.90947e-13
-4.81925e-13
-4.73324e-13
-4.67388e-13
-4.61797e-13
-4.54171e-13
-4.46731e-13
-4.38175e-13
-4.28339e-13
-4.18756e-13
-4.09608e-13
-4.04673e-13
-4.02974e-13
-3.93982e-13
-3.85959e-13
-3.74926e-13
-3.72025e-13
-3.65027e-13
-3.53831e-13
-3.49234e-13
-3.42614e-13
-3.34387e-13
-3.27803e-13
-3.15715e-13
-3.0528e-13
-3.07773e-13
-3.10021e-13