/*--------------------------------*- C++ -*----------------------------------*\
| =========                 |                                                 |
| \\      /  F ield         | OpenFOAM: The Open Source CFD Toolbox           |
|  \\    /   O peration     | Version:  v2012                                 |
|   \\  /    A nd           | Website:  www.openfoam.com                      |
|    \\/     M anipulation  |                                                 |
\*---------------------------------------------------------------------------*/
FoamFile
{
    version     2.0;
    format      ascii;
    class       surfaceScalarField;
    location    "8";
    object      phi;
}
// * * * * * * * * * * * * * * * * * * * * * * * * * * * * * * * * * * * * * //

dimensions      [0 3 -1 0 0 0 0];
oriented        oriented;


internalField   nonuniform List<scalar> 
130560
(
3.72437e-06
-3.72437e-06
7.44872e-06
-3.72435e-06
1.1173e-05
-3.72432e-06
1.48973e-05
-3.72427e-06
1.86215e-05
-3.72419e-06
2.23456e-05
-3.72409e-06
2.60696e-05
-3.72396e-06
2.97933e-05
-3.72379e-06
3.35169e-05
-3.72359e-06
3.72403e-05
-3.72333e-06
4.09633e-05
-3.72303e-06
4.46859e-05
-3.72266e-06
4.84082e-05
-3.72222e-06
5.21299e-05
-3.7217e-06
5.58509e-05
-3.72108e-06
5.95713e-05
-3.72037e-06
6.32909e-05
-3.71954e-06
6.70094e-05
-3.71859e-06
7.07269e-05
-3.71749e-06
7.44432e-05
-3.71624e-06
7.8158e-05
-3.71482e-06
8.18712e-05
-3.71322e-06
8.55826e-05
-3.71141e-06
8.9292e-05
-3.70939e-06
9.29991e-05
-3.70713e-06
9.67038e-05
-3.70461e-06
0.000100406
-3.70182e-06
0.000104104
-3.69874e-06
0.0001078
-3.69534e-06
0.000111491
-3.6916e-06
0.000115179
-3.68751e-06
0.000118862
-3.68303e-06
0.00012254
-3.67816e-06
0.000126213
-3.67285e-06
0.00012988
-3.66709e-06
0.000133541
-3.66086e-06
0.000137195
-3.65413e-06
0.000140842
-3.64687e-06
0.000144481
-3.63907e-06
0.000148112
-3.63068e-06
0.000151733
-3.62169e-06
0.000155345
-3.61207e-06
0.000158947
-3.6018e-06
0.000162538
-3.59084e-06
0.000166117
-3.57916e-06
0.000169684
-3.56675e-06
0.000173237
-3.55358e-06
0.000176777
-3.53961e-06
0.000180302
-3.52483e-06
0.000183811
-3.5092e-06
0.000187304
-3.49269e-06
0.000190779
-3.47529e-06
0.000194236
-3.45696e-06
0.000197674
-3.43769e-06
0.000201091
-3.41744e-06
0.000204487
-3.39619e-06
0.000207861
-3.37392e-06
0.000211212
-3.3506e-06
0.000214538
-3.32622e-06
0.000217839
-3.30074e-06
0.000221113
-3.27416e-06
0.000224359
-3.24646e-06
0.000227577
-3.2176e-06
0.000230765
-3.18759e-06
0.000233921
-3.1564e-06
0.000237045
-3.12401e-06
0.000240135
-3.09042e-06
0.000243191
-3.05562e-06
0.000246211
-3.01959e-06
0.000249193
-2.98232e-06
0.000252137
-2.94382e-06
0.000255041
-2.90407e-06
0.000257904
-2.86307e-06
0.000260725
-2.82082e-06
0.000263502
-2.77732e-06
0.000266235
-2.73258e-06
0.000268921
-2.68659e-06
0.000271561
-2.63938e-06
0.000274152
-2.59093e-06
0.000276693
-2.54127e-06
0.000279183
-2.49041e-06
0.000281622
-2.43836e-06
0.000284007
-2.38514e-06
0.000286337
-2.33077e-06
0.000288613
-2.27527e-06
0.000290831
-2.21866e-06
0.000292992
-2.16097e-06
0.000295095
-2.10222e-06
0.000297137
-2.04245e-06
0.000299119
-1.98168e-06
0.000301039
-1.91994e-06
0.000302896
-1.85728e-06
0.00030469
-1.79373e-06
0.000306419
-1.72932e-06
0.000308083
-1.6641e-06
0.000309681
-1.5981e-06
0.000311213
-1.53138e-06
0.000312677
-1.46396e-06
0.000314072
-1.39591e-06
0.0003154
-1.32725e-06
0.000316658
-1.25805e-06
0.000317846
-1.18835e-06
0.000318964
-1.1182e-06
0.000320012
-1.04765e-06
0.000320989
-9.76742e-07
0.000321894
-9.05537e-07
0.000322728
-8.34082e-07
0.000323491
-7.62429e-07
0.000324181
-6.90629e-07
0.0003248
-6.18733e-07
0.000325347
-5.46794e-07
0.000325822
-4.74862e-07
0.000326225
-4.02987e-07
0.000326556
-3.31221e-07
0.000326816
-2.59613e-07
0.000327004
-1.88212e-07
0.000327121
-1.17067e-07
0.000327167
-4.62247e-08
0.000327143
2.42672e-08
0.000327048
9.43638e-08
0.000326884
1.6402e-07
0.000326651
2.33193e-07
0.000326349
3.01841e-07
0.000325979
3.69922e-07
0.000325542
4.37399e-07
0.000325038
5.04231e-07
0.000324467
5.70385e-07
0.000323832
6.35823e-07
0.000323131
7.00514e-07
0.000322367
7.64426e-07
0.000321539
8.27528e-07
0.000320649
8.89793e-07
0.000319698
9.51192e-07
0.000318686
1.0117e-06
0.000317615
1.0713e-06
0.000316485
1.12996e-06
0.000315298
1.18767e-06
0.000314053
1.2444e-06
0.000312753
1.30015e-06
0.000311398
1.35489e-06
0.000309989
1.40862e-06
0.000308528
1.46131e-06
0.000307015
1.51297e-06
0.000305452
1.56358e-06
0.000303839
1.61313e-06
0.000302177
1.66162e-06
0.000300468
1.70905e-06
0.000298712
1.75542e-06
0.000296912
1.80071e-06
0.000295067
1.84494e-06
0.000293179
1.8881e-06
0.000291248
1.93019e-06
0.000289277
1.97122e-06
0.000287266
2.0112e-06
0.000285216
2.05013e-06
0.000283128
2.08801e-06
0.000281003
2.12485e-06
0.000278842
2.16067e-06
0.000276647
2.19548e-06
0.000274418
2.22927e-06
0.000272156
2.26207e-06
0.000269862
2.29388e-06
0.000267537
2.32472e-06
0.000265182
2.3546e-06
0.000262799
2.38354e-06
0.000260387
2.41154e-06
0.000257949
2.43863e-06
0.000255484
2.46482e-06
0.000252994
2.49012e-06
0.000250479
2.51455e-06
0.000247941
2.53812e-06
0.00024538
2.56086e-06
0.000242797
2.58278e-06
0.000240194
2.60389e-06
0.000237569
2.62422e-06
0.000234926
2.64378e-06
0.000232263
2.66259e-06
0.000229582
2.68066e-06
0.000226884
2.69801e-06
0.00022417
2.71467e-06
0.000221439
2.73064e-06
0.000218693
2.74594e-06
0.000215932
2.7606e-06
0.000213158
2.77463e-06
0.00021037
2.78804e-06
0.000207569
2.80086e-06
0.000204756
2.8131e-06
0.000201931
2.82478e-06
0.000199095
2.83591e-06
0.000196249
2.84651e-06
0.000193392
2.8566e-06
0.000190526
2.86619e-06
0.00018765
2.87531e-06
0.000184767
2.88396e-06
0.000181874
2.89216e-06
0.000178974
2.89993e-06
0.000176067
2.90728e-06
0.000173153
2.91422e-06
0.000170232
2.92078e-06
0.000167305
2.92696e-06
0.000164372
2.93278e-06
0.000161434
2.93826e-06
0.000158491
2.9434e-06
0.000155543
2.94823e-06
0.00015259
2.95274e-06
0.000149633
2.95697e-06
0.000146672
2.96091e-06
0.000143707
2.96459e-06
0.000140739
2.968e-06
0.000137768
2.97118e-06
0.000134794
2.97412e-06
0.000131817
2.97683e-06
0.000128838
2.97934e-06
0.000125856
2.98164e-06
0.000122872
2.98375e-06
0.000119887
2.98568e-06
0.000116899
2.98744e-06
0.00011391
2.98904e-06
0.00011092
2.99048e-06
0.000107928
2.99178e-06
0.000104935
2.99295e-06
0.000101941
2.99399e-06
9.89462e-05
2.99491e-06
9.59505e-05
2.99572e-06
9.29541e-05
2.99643e-06
8.9957e-05
2.99704e-06
8.69595e-05
2.99757e-06
8.39614e-05
2.99801e-06
8.09631e-05
2.99838e-06
7.79644e-05
2.99868e-06
7.49655e-05
2.99892e-06
7.19664e-05
2.9991e-06
6.89671e-05
2.99923e-06
6.59678e-05
2.99932e-06
6.29685e-05
2.99936e-06
5.99691e-05
2.99937e-06
5.69697e-05
2.99935e-06
5.39704e-05
2.9993e-06
5.09712e-05
2.99924e-06
4.7972e-05
2.99915e-06
4.4973e-05
2.99905e-06
4.19741e-05
2.99894e-06
3.89752e-05
2.99882e-06
3.59765e-05
2.9987e-06
3.2978e-05
2.99857e-06
2.99795e-05
2.99845e-06
2.69812e-05
2.99833e-06
2.3983e-05
2.99822e-06
2.09848e-05
2.99812e-06
1.79868e-05
2.99802e-06
1.49889e-05
2.99794e-06
1.1991e-05
2.99786e-06
8.99321e-06
2.99781e-06
5.99545e-06
2.99776e-06
2.99772e-06
2.99773e-06
2.99772e-06
3.72439e-06
-7.44876e-06
7.44877e-06
-7.44873e-06
1.11731e-05
-7.44866e-06
1.48974e-05
-7.44856e-06
1.86216e-05
-7.44841e-06
2.23457e-05
-7.44821e-06
2.60697e-05
-7.44796e-06
2.97936e-05
-7.44763e-06
3.35172e-05
-7.44722e-06
3.72406e-05
-7.44672e-06
4.09637e-05
-7.44612e-06
4.46864e-05
-7.44539e-06
4.84087e-05
-7.44452e-06
5.21305e-05
-7.44348e-06
5.58517e-05
-7.44227e-06
5.95722e-05
-7.44085e-06
6.32919e-05
-7.43921e-06
6.70106e-05
-7.43731e-06
7.07282e-05
-7.43514e-06
7.44447e-05
-7.43265e-06
7.81597e-05
-7.42983e-06
8.18731e-05
-7.42664e-06
8.55847e-05
-7.42305e-06
8.92943e-05
-7.41902e-06
9.30017e-05
-7.41452e-06
9.67066e-05
-7.4095e-06
0.000100409
-7.40394e-06
0.000104108
-7.39779e-06
0.000107803
-7.39102e-06
0.000111495
-7.38357e-06
0.000115183
-7.3754e-06
0.000118867
-7.36647e-06
0.000122545
-7.35674e-06
0.000126219
-7.34615e-06
0.000129886
-7.33467e-06
0.000133548
-7.32223e-06
0.000137202
-7.30879e-06
0.00014085
-7.2943e-06
0.000144489
-7.27871e-06
0.000148121
-7.26197e-06
0.000151743
-7.24401e-06
0.000155356
-7.2248e-06
0.000158958
-7.20428e-06
0.00016255
-7.18238e-06
0.00016613
-7.15907e-06
0.000169697
-7.13428e-06
0.000173252
-7.10796e-06
0.000176792
-7.08005e-06
0.000180318
-7.0505e-06
0.000183828
-7.01927e-06
0.000187321
-6.98629e-06
0.000190798
-6.95151e-06
0.000194255
-6.91488e-06
0.000197694
-6.87635e-06
0.000201113
-6.83587e-06
0.00020451
-6.7934e-06
0.000207885
-6.74888e-06
0.000211236
-6.70227e-06
0.000214564
-6.65352e-06
0.000217866
-6.6026e-06
0.000221141
-6.54946e-06
0.000224388
-6.49406e-06
0.000227607
-6.43637e-06
0.000230796
-6.37636e-06
0.000233954
-6.31399e-06
0.000237079
-6.24923e-06
0.00024017
-6.18207e-06
0.000243227
-6.11246e-06
0.000246248
-6.04041e-06
0.000249232
-5.96589e-06
0.000252177
-5.88888e-06
0.000255082
-5.80938e-06
0.000257946
-5.72738e-06
0.000260768
-5.64288e-06
0.000263547
-5.55589e-06
0.000266281
-5.4664e-06
0.000268969
-5.37442e-06
0.000271609
-5.27998e-06
0.000274201
-5.18308e-06
0.000276744
-5.08375e-06
0.000279235
-4.98201e-06
0.000281675
-4.8779e-06
0.000284061
-4.77144e-06
0.000286393
-4.66267e-06
0.00028867
-4.55165e-06
0.000290889
-4.4384e-06
0.000293051
-4.32299e-06
0.000295155
-4.20547e-06
0.000297198
-4.08589e-06
0.000299181
-3.96432e-06
0.000301102
-3.84082e-06
0.00030296
-3.71546e-06
0.000304754
-3.58831e-06
0.000306484
-3.45946e-06
0.000308149
-3.32897e-06
0.000309748
-3.19694e-06
0.00031128
-3.06344e-06
0.000312745
-2.92857e-06
0.000314141
-2.79241e-06
0.000315469
-2.65506e-06
0.000316728
-2.51661e-06
0.000317916
-2.37716e-06
0.000319035
-2.23681e-06
0.000320083
-2.09565e-06
0.00032106
-1.95379e-06
0.000321966
-1.81133e-06
0.0003228
-1.66836e-06
0.000323563
-1.52501e-06
0.000324253
-1.38136e-06
0.000324872
-1.23751e-06
0.000325419
-1.09358e-06
0.000325894
-9.49668e-07
0.000326297
-8.05869e-07
0.000326628
-6.62287e-07
0.000326887
-5.19021e-07
0.000327075
-3.76171e-07
0.000327192
-2.33833e-07
0.000327238
-9.2102e-08
0.000327213
4.89277e-08
0.000327118
1.89165e-07
0.000326954
3.28521e-07
0.00032672
4.6691e-07
0.000326418
6.04246e-07
0.000326047
7.40448e-07
0.000325609
8.75438e-07
0.000325104
1.00914e-06
0.000324533
1.14148e-06
0.000323897
1.27239e-06
0.000323195
1.40181e-06
0.00032243
1.52966e-06
0.000321602
1.65589e-06
0.000320711
1.78045e-06
0.000319759
1.90327e-06
0.000318746
2.02432e-06
0.000317674
2.14353e-06
0.000316543
2.26088e-06
0.000315355
2.37631e-06
0.000314109
2.4898e-06
0.000312808
2.6013e-06
0.000311452
2.7108e-06
0.000310042
2.81826e-06
0.00030858
2.92366e-06
0.000307066
3.02698e-06
0.000305501
3.12821e-06
0.000303887
3.22732e-06
0.000302225
3.32431e-06
0.000300514
3.41917e-06
0.000298758
3.5119e-06
0.000296956
3.60249e-06
0.00029511
3.69094e-06
0.000293221
3.77726e-06
0.00029129
3.86144e-06
0.000289318
3.9435e-06
0.000287305
4.02345e-06
0.000285254
4.1013e-06
0.000283165
4.17705e-06
0.000281039
4.25074e-06
0.000278877
4.32237e-06
0.000276681
4.39196e-06
0.000274451
4.45954e-06
0.000272188
4.52512e-06
0.000269893
4.58873e-06
0.000267567
4.6504e-06
0.000265212
4.71015e-06
0.000262827
4.76801e-06
0.000260415
4.824e-06
0.000257975
4.87816e-06
0.000255509
4.93052e-06
0.000253018
4.9811e-06
0.000250503
5.02995e-06
0.000247964
5.07708e-06
0.000245402
5.12254e-06
0.000242819
5.16636e-06
0.000240214
5.20858e-06
0.000237589
5.24922e-06
0.000234945
5.28832e-06
0.000232281
5.32591e-06
0.0002296
5.36204e-06
0.000226901
5.39673e-06
0.000224186
5.43002e-06
0.000221455
5.46194e-06
0.000218708
5.49254e-06
0.000215947
5.52184e-06
0.000213171
5.54987e-06
0.000210383
5.57668e-06
0.000207581
5.6023e-06
0.000204768
5.62676e-06
0.000201942
5.6501e-06
0.000199106
5.67235e-06
0.000196259
5.69353e-06
0.000193402
5.7137e-06
0.000190535
5.73287e-06
0.000187659
5.75108e-06
0.000184775
5.76837e-06
0.000181882
5.78475e-06
0.000178982
5.80027e-06
0.000176074
5.81496e-06
0.00017316
5.82883e-06
0.000170239
5.84193e-06
0.000167311
5.85429e-06
0.000164378
5.86592e-06
0.00016144
5.87685e-06
0.000158496
5.88713e-06
0.000155547
5.89676e-06
0.000152594
5.90578e-06
0.000149637
5.91422e-06
0.000146676
5.9221e-06
0.000143711
5.92943e-06
0.000140743
5.93626e-06
0.000137771
5.94259e-06
0.000134797
5.94846e-06
0.00013182
5.95388e-06
0.00012884
5.95888e-06
0.000125859
5.96347e-06
0.000122875
5.96768e-06
0.000119889
5.97153e-06
0.000116901
5.97504e-06
0.000113912
5.97823e-06
0.000110921
5.98111e-06
0.000107929
5.9837e-06
0.000104936
5.98603e-06
0.000101942
5.9881e-06
9.89472e-05
5.98993e-06
9.59513e-05
5.99155e-06
9.29548e-05
5.99296e-06
8.99577e-05
5.99418e-06
8.696e-05
5.99522e-06
8.39619e-05
5.9961e-06
8.09635e-05
5.99683e-06
7.79647e-05
5.99743e-06
7.49657e-05
5.9979e-06
7.19666e-05
5.99826e-06
6.89673e-05
5.99851e-06
6.59679e-05
5.99868e-06
6.29685e-05
5.99876e-06
5.99691e-05
5.99878e-06
5.69698e-05
5.99873e-06
5.39704e-05
5.99864e-06
5.09712e-05
5.99849e-06
4.7972e-05
5.99832e-06
4.49729e-05
5.99811e-06
4.1974e-05
5.99789e-06
3.89752e-05
5.99765e-06
3.59765e-05
5.9974e-06
3.29779e-05
5.99715e-06
2.99794e-05
5.9969e-06
2.69811e-05
5.99666e-06
2.39829e-05
5.99644e-06
2.09848e-05
5.99623e-06
1.79868e-05
5.99603e-06
1.49888e-05
5.99586e-06
1.1991e-05
5.99572e-06
8.99318e-06
5.9956e-06
5.99543e-06
5.99551e-06
2.99771e-06
5.99545e-06
5.99542e-06
3.72443e-06
-1.11732e-05
7.44885e-06
-1.11731e-05
1.11732e-05
-1.11731e-05
1.48976e-05
-1.11729e-05
1.86219e-05
-1.11727e-05
2.23461e-05
-1.11724e-05
2.60701e-05
-1.1172e-05
2.9794e-05
-1.11716e-05
3.35178e-05
-1.1171e-05
3.72413e-05
-1.11702e-05
4.09645e-05
-1.11693e-05
4.46874e-05
-1.11683e-05
4.84098e-05
-1.1167e-05
5.21318e-05
-1.11655e-05
5.58532e-05
-1.11637e-05
5.95739e-05
-1.11616e-05
6.32939e-05
-1.11591e-05
6.70129e-05
-1.11563e-05
7.07308e-05
-1.11531e-05
7.44476e-05
-1.11494e-05
7.8163e-05
-1.11452e-05
8.18768e-05
-1.11405e-05
8.55889e-05
-1.11351e-05
8.9299e-05
-1.11291e-05
9.30069e-05
-1.11224e-05
9.67123e-05
-1.11149e-05
0.000100415
-1.11067e-05
0.000104115
-1.10975e-05
0.000107811
-1.10874e-05
0.000111504
-1.10763e-05
0.000115192
-1.10641e-05
0.000118877
-1.10507e-05
0.000122556
-1.10362e-05
0.00012623
-1.10204e-05
0.000129899
-1.10032e-05
0.000133561
-1.09846e-05
0.000137217
-1.09645e-05
0.000140866
-1.09428e-05
0.000144506
-1.09195e-05
0.000148139
-1.08945e-05
0.000151762
-1.08676e-05
0.000155376
-1.08389e-05
0.00015898
-1.08081e-05
0.000162573
-1.07754e-05
0.000166155
-1.07405e-05
0.000169724
-1.07033e-05
0.00017328
-1.06639e-05
0.000176822
-1.06221e-05
0.000180349
-1.05779e-05
0.000183861
-1.05311e-05
0.000187356
-1.04817e-05
0.000190834
-1.04296e-05
0.000194294
-1.03747e-05
0.000197735
-1.0317e-05
0.000201155
-1.02563e-05
0.000204555
-1.01927e-05
0.000207932
-1.01259e-05
0.000211285
-1.00561e-05
0.000214615
-9.98301e-06
0.000217919
-9.90667e-06
0.000221197
-9.82701e-06
0.000224446
-9.74396e-06
0.000227668
-9.65747e-06
0.000230859
-9.56749e-06
0.000234019
-9.47397e-06
0.000237146
-9.37687e-06
0.00024024
-9.27614e-06
0.0002433
-9.17177e-06
0.000246323
-9.06371e-06
0.000249309
-8.95194e-06
0.000252257
-8.83644e-06
0.000255164
-8.7172e-06
0.000258031
-8.5942e-06
0.000260856
-8.46745e-06
0.000263637
-8.33695e-06
0.000266373
-8.2027e-06
0.000269063
-8.06473e-06
0.000271706
-7.92304e-06
0.000274301
-7.77766e-06
0.000276846
-7.62863e-06
0.00027934
-7.47599e-06
0.000281782
-7.31978e-06
0.00028417
-7.16004e-06
0.000286505
-6.99684e-06
0.000288783
-6.83025e-06
0.000291005
-6.66032e-06
0.000293169
-6.48713e-06
0.000295275
-6.31077e-06
0.00029732
-6.13133e-06
0.000299305
-5.94889e-06
0.000301227
-5.76355e-06
0.000303087
-5.57542e-06
0.000304884
-5.38461e-06
0.000306615
-5.19123e-06
0.000308282
-4.9954e-06
0.000309882
-4.79724e-06
0.000311415
-4.59688e-06
0.000312881
-4.39446e-06
0.000314279
-4.19011e-06
0.000315608
-3.98396e-06
0.000316868
-3.77617e-06
0.000318057
-3.56687e-06
0.000319177
-3.35622e-06
0.000320225
-3.14436e-06
0.000321203
-2.93144e-06
0.000322109
-2.71762e-06
0.000322944
-2.50305e-06
0.000323707
-2.28788e-06
0.000324398
-2.07228e-06
0.000325017
-1.85638e-06
0.000325563
-1.64036e-06
0.000326038
-1.42436e-06
0.000326441
-1.20854e-06
0.000326772
-9.93038e-07
0.000327031
-7.78017e-07
0.000327218
-5.6362e-07
0.000327334
-3.49994e-07
0.000327379
-1.37281e-07
0.000327354
7.4378e-08
0.000327258
2.84845e-07
0.000327093
4.93988e-07
0.000326858
7.01676e-07
0.000326554
9.07782e-07
0.000326183
1.11218e-06
0.000325743
1.31476e-06
0.000325237
1.51541e-06
0.000324665
1.71401e-06
0.000324027
1.91046e-06
0.000323324
2.10466e-06
0.000322557
2.29651e-06
0.000321727
2.48593e-06
0.000320834
2.67283e-06
0.000319881
2.85713e-06
0.000318866
3.03875e-06
0.000317792
3.21763e-06
0.000316659
3.3937e-06
0.000315469
3.5669e-06
0.000314221
3.73717e-06
0.000312918
3.90446e-06
0.00031156
4.06874e-06
0.000310148
4.22996e-06
0.000308684
4.38809e-06
0.000307168
4.54309e-06
0.000305601
4.69495e-06
0.000303985
4.84363e-06
0.00030232
4.98913e-06
0.000300608
5.13143e-06
0.000298849
5.27052e-06
0.000297045
5.40641e-06
0.000295197
5.53908e-06
0.000293306
5.66855e-06
0.000291372
5.79482e-06
0.000289398
5.9179e-06
0.000287384
6.0378e-06
0.00028533
6.15456e-06
0.000283239
6.26817e-06
0.000281111
6.37868e-06
0.000278948
6.4861e-06
0.000276749
6.59046e-06
0.000274517
6.6918e-06
0.000272252
6.79014e-06
0.000269955
6.88553e-06
0.000267627
6.978e-06
0.00026527
7.06759e-06
0.000262884
7.15434e-06
0.000260469
7.23829e-06
0.000258028
7.3195e-06
0.000255561
7.39799e-06
0.000253068
7.47383e-06
0.000250551
7.54706e-06
0.00024801
7.61772e-06
0.000245447
7.68587e-06
0.000242862
7.75156e-06
0.000240255
7.81484e-06
0.000237629
7.87575e-06
0.000234983
7.93436e-06
0.000232318
7.99071e-06
0.000229635
8.04486e-06
0.000226935
8.09685e-06
0.000224218
8.14674e-06
0.000221486
8.19458e-06
0.000218738
8.24043e-06
0.000215975
8.28433e-06
0.000213199
8.32635e-06
0.000210409
8.36652e-06
0.000207606
8.40491e-06
0.000204792
8.44155e-06
0.000201965
8.47652e-06
0.000199128
8.50985e-06
0.00019628
8.54159e-06
0.000193421
8.57179e-06
0.000190554
8.60051e-06
0.000187677
8.62779e-06
0.000184792
8.65368e-06
0.000181898
8.67822e-06
0.000178997
8.70146e-06
0.000176089
8.72345e-06
0.000173173
8.74423e-06
0.000170251
8.76384e-06
0.000167323
8.78234e-06
0.000164389
8.79975e-06
0.00016145
8.81612e-06
0.000158506
8.8315e-06
0.000155557
8.84592e-06
0.000152603
8.85942e-06
0.000149645
8.87204e-06
0.000146683
8.88382e-06
0.000143718
8.8948e-06
0.000140749
8.90501e-06
0.000137777
8.91448e-06
0.000134803
8.92325e-06
0.000131825
8.93136e-06
0.000128845
8.93882e-06
0.000125863
8.94569e-06
0.000122879
8.95199e-06
0.000119893
8.95774e-06
0.000116905
8.96298e-06
0.000113915
8.96773e-06
0.000110924
8.97203e-06
0.000107932
8.9759e-06
0.000104939
8.97937e-06
0.000101944
8.98245e-06
9.8949e-05
8.98519e-06
9.5953e-05
8.98759e-06
9.29563e-05
8.98969e-06
8.99589e-05
8.9915e-06
8.69611e-05
8.99305e-06
8.39629e-05
8.99435e-06
8.09643e-05
8.99543e-06
7.79654e-05
8.99631e-06
7.49663e-05
8.997e-06
7.1967e-05
8.99752e-06
6.89676e-05
8.99789e-06
6.59682e-05
8.99813e-06
6.29687e-05
8.99824e-06
5.99692e-05
8.99825e-06
5.69698e-05
8.99817e-06
5.39704e-05
8.99802e-06
5.09711e-05
8.9978e-06
4.79719e-05
8.99752e-06
4.49728e-05
8.99721e-06
4.19738e-05
8.99686e-06
3.8975e-05
8.99649e-06
3.59763e-05
8.99611e-06
3.29777e-05
8.99573e-06
2.99793e-05
8.99535e-06
2.69809e-05
8.99499e-06
2.39827e-05
8.99464e-06
2.09846e-05
8.99432e-06
1.79866e-05
8.99403e-06
1.49887e-05
8.99378e-06
1.19909e-05
8.99356e-06
8.99311e-06
8.99338e-06
5.99538e-06
8.99324e-06
2.99768e-06
8.99315e-06
8.9931e-06
3.7245e-06
-1.48977e-05
7.44898e-06
-1.48976e-05
1.11734e-05
-1.48975e-05
1.48979e-05
-1.48973e-05
1.86222e-05
-1.48971e-05
2.23465e-05
-1.48967e-05
2.60707e-05
-1.48962e-05
2.97947e-05
-1.48956e-05
3.35186e-05
-1.48948e-05
3.72423e-05
-1.48939e-05
4.09657e-05
-1.48927e-05
4.46888e-05
-1.48914e-05
4.84115e-05
-1.48897e-05
5.21337e-05
-1.48877e-05
5.58555e-05
-1.48854e-05
5.95765e-05
-1.48826e-05
6.32968e-05
-1.48795e-05
6.70163e-05
-1.48758e-05
7.07347e-05
-1.48715e-05
7.4452e-05
-1.48667e-05
7.81679e-05
-1.48612e-05
8.18824e-05
-1.48549e-05
8.55951e-05
-1.48479e-05
8.93059e-05
-1.48399e-05
9.30146e-05
-1.48311e-05
9.67209e-05
-1.48212e-05
0.000100424
-1.48103e-05
0.000104125
-1.47981e-05
0.000107822
-1.47847e-05
0.000111516
-1.477e-05
0.000115206
-1.47539e-05
0.000118892
-1.47362e-05
0.000122572
-1.47169e-05
0.000126248
-1.46959e-05
0.000129918
-1.46732e-05
0.000133582
-1.46485e-05
0.000137239
-1.46218e-05
0.000140889
-1.4593e-05
0.000144532
-1.45621e-05
0.000148166
-1.45288e-05
0.000151792
-1.44931e-05
0.000155408
-1.44549e-05
0.000159013
-1.4414e-05
0.000162609
-1.43705e-05
0.000166192
-1.43241e-05
0.000169764
-1.42747e-05
0.000173322
-1.42223e-05
0.000176866
-1.41667e-05
0.000180396
-1.41078e-05
0.000183911
-1.40455e-05
0.000187409
-1.39798e-05
0.00019089
-1.39104e-05
0.000194352
-1.38374e-05
0.000197796
-1.37605e-05
0.000201219
-1.36798e-05
0.000204622
-1.3595e-05
0.000208002
-1.35061e-05
0.000211359
-1.34131e-05
0.000214692
-1.33158e-05
0.000217999
-1.32141e-05
0.00022128
-1.3108e-05
0.000224533
-1.29973e-05
0.000227758
-1.28821e-05
0.000230953
-1.27622e-05
0.000234116
-1.26375e-05
0.000237248
-1.25081e-05
0.000240345
-1.23739e-05
0.000243408
-1.22348e-05
0.000246435
-1.20907e-05
0.000249425
-1.19417e-05
0.000252376
-1.17877e-05
0.000255288
-1.16288e-05
0.000258158
-1.14648e-05
0.000260987
-1.12958e-05
0.000263772
-1.11218e-05
0.000266512
-1.09427e-05
0.000269206
-1.07587e-05
0.000271852
-1.05698e-05
0.000274451
-1.03759e-05
0.000276999
-1.01771e-05
0.000279497
-9.97354e-06
0.000281942
-9.76518e-06
0.000284334
-9.55211e-06
0.000286672
-9.33442e-06
0.000288954
-9.11218e-06
0.000291179
-8.88549e-06
0.000293346
-8.65445e-06
0.000295455
-8.41917e-06
0.000297503
-8.17976e-06
0.000299491
-7.93636e-06
0.000301416
-7.68908e-06
0.000303279
-7.43807e-06
0.000305078
-7.18348e-06
0.000306812
-6.92545e-06
0.000308481
-6.66415e-06
0.000310083
-6.39974e-06
0.000311619
-6.1324e-06
0.000313086
-5.86229e-06
0.000314486
-5.5896e-06
0.000315816
-5.31452e-06
0.000317077
-5.03724e-06
0.000318269
-4.75795e-06
0.000319389
-4.47684e-06
0.000320439
-4.19412e-06
0.000321418
-3.91e-06
0.000322325
-3.62466e-06
0.00032316
-3.33833e-06
0.000323923
-3.0512e-06
0.000324614
-2.76349e-06
0.000325233
-2.47539e-06
0.00032578
-2.18712e-06
0.000326255
-1.89888e-06
0.000326657
-1.61088e-06
0.000326987
-1.32332e-06
0.000327246
-1.03639e-06
0.000327432
-7.50302e-07
0.000327548
-4.65245e-07
0.000327592
-1.8141e-07
0.000327565
1.01015e-07
0.000327468
3.81847e-07
0.000327301
6.60907e-07
0.000327065
9.3802e-07
0.00032676
1.21302e-06
0.000326386
1.48574e-06
0.000325945
1.75602e-06
0.000325436
2.02372e-06
0.000324862
2.28868e-06
0.000324221
2.55077e-06
0.000323516
2.80985e-06
0.000322747
3.0658e-06
0.000321914
3.31849e-06
0.000321019
3.56781e-06
0.000320063
3.81366e-06
0.000319046
4.05594e-06
0.000317969
4.29454e-06
0.000316833
4.52939e-06
0.00031564
4.7604e-06
0.000314389
4.98751e-06
0.000313083
5.21064e-06
0.000311722
5.42974e-06
0.000310307
5.64476e-06
0.00030884
5.85564e-06
0.000307321
6.06235e-06
0.000305751
6.26485e-06
0.000304131
6.46313e-06
0.000302463
6.65714e-06
0.000300748
6.84689e-06
0.000298986
7.03235e-06
0.000297179
7.21353e-06
0.000295327
7.39043e-06
0.000293433
7.56304e-06
0.000291496
7.73138e-06
0.000289519
7.89546e-06
0.000287501
8.05531e-06
0.000285445
8.21095e-06
0.000283351
8.3624e-06
0.00028122
8.5097e-06
0.000279053
8.65288e-06
0.000276851
8.79199e-06
0.000274616
8.92705e-06
0.000272348
9.05812e-06
0.000270048
9.18525e-06
0.000267718
9.30848e-06
0.000265358
9.42787e-06
0.000262968
9.54347e-06
0.000260551
9.65534e-06
0.000258107
9.76354e-06
0.000255637
9.86813e-06
0.000253142
9.96918e-06
0.000250622
1.00667e-05
0.000248079
1.01609e-05
0.000245513
1.02517e-05
0.000242926
1.03392e-05
0.000240317
1.04235e-05
0.000237688
1.05046e-05
0.00023504
1.05827e-05
0.000232373
1.06577e-05
0.000229688
1.07298e-05
0.000226986
1.07991e-05
0.000224267
1.08655e-05
0.000221532
1.09292e-05
0.000218782
1.09903e-05
0.000216018
1.10487e-05
0.00021324
1.11047e-05
0.000210448
1.11581e-05
0.000207644
1.12092e-05
0.000204827
1.1258e-05
0.000201999
1.13046e-05
0.00019916
1.13489e-05
0.00019631
1.13912e-05
0.000193451
1.14314e-05
0.000190582
1.14696e-05
0.000187704
1.15059e-05
0.000184817
1.15403e-05
0.000181922
1.1573e-05
0.00017902
1.16039e-05
0.00017611
1.16332e-05
0.000173193
1.16608e-05
0.00017027
1.16869e-05
0.000167341
1.17115e-05
0.000164406
1.17346e-05
0.000161466
1.17564e-05
0.000158521
1.17768e-05
0.000155571
1.1796e-05
0.000152616
1.18139e-05
0.000149658
1.18307e-05
0.000146695
1.18464e-05
0.000143729
1.18609e-05
0.000140759
1.18745e-05
0.000137787
1.18871e-05
0.000134811
1.18987e-05
0.000131833
1.19095e-05
0.000128853
1.19194e-05
0.00012587
1.19285e-05
0.000122885
1.19368e-05
0.000119898
1.19445e-05
0.00011691
1.19514e-05
0.00011392
1.19577e-05
0.000110928
1.19634e-05
0.000107936
1.19685e-05
0.000104942
1.19731e-05
0.000101947
1.19772e-05
9.89518e-05
1.19808e-05
9.59554e-05
1.1984e-05
9.29584e-05
1.19867e-05
8.99608e-05
1.19891e-05
8.69627e-05
1.19911e-05
8.39643e-05
1.19928e-05
8.09654e-05
1.19942e-05
7.79664e-05
1.19954e-05
7.49671e-05
1.19963e-05
7.19677e-05
1.19969e-05
6.89681e-05
1.19974e-05
6.59686e-05
1.19977e-05
6.2969e-05
1.19978e-05
5.99694e-05
1.19978e-05
5.69699e-05
1.19977e-05
5.39704e-05
1.19975e-05
5.0971e-05
1.19972e-05
4.79718e-05
1.19968e-05
4.49726e-05
1.19963e-05
4.19736e-05
1.19959e-05
3.89748e-05
1.19954e-05
3.5976e-05
1.19948e-05
3.29774e-05
1.19943e-05
2.9979e-05
1.19938e-05
2.69807e-05
1.19933e-05
2.39825e-05
1.19928e-05
2.09844e-05
1.19924e-05
1.79864e-05
1.1992e-05
1.49885e-05
1.19917e-05
1.19907e-05
1.19914e-05
8.993e-06
1.19911e-05
5.99531e-06
1.19909e-05
2.99764e-06
1.19908e-05
1.19907e-05
3.72457e-06
-1.86223e-05
7.44913e-06
-1.86222e-05
1.11737e-05
-1.86221e-05
1.48982e-05
-1.86218e-05
1.86227e-05
-1.86215e-05
2.23471e-05
-1.86211e-05
2.60714e-05
-1.86205e-05
2.97956e-05
-1.86198e-05
3.35197e-05
-1.86189e-05
3.72436e-05
-1.86178e-05
4.09672e-05
-1.86164e-05
4.46906e-05
-1.86147e-05
4.84136e-05
-1.86127e-05
5.21363e-05
-1.86103e-05
5.58584e-05
-1.86075e-05
5.95799e-05
-1.86042e-05
6.33007e-05
-1.86003e-05
6.70207e-05
-1.85958e-05
7.07398e-05
-1.85906e-05
7.44577e-05
-1.85846e-05
7.81744e-05
-1.85779e-05
8.18897e-05
-1.85702e-05
8.56033e-05
-1.85615e-05
8.9315e-05
-1.85517e-05
9.30247e-05
-1.85408e-05
9.67321e-05
-1.85286e-05
0.000100437
-1.8515e-05
0.000104139
-1.85e-05
0.000107838
-1.84835e-05
0.000111533
-1.84652e-05
0.000115224
-1.84452e-05
0.000118911
-1.84233e-05
0.000122594
-1.83994e-05
0.000126271
-1.83733e-05
0.000129943
-1.8345e-05
0.000133609
-1.83144e-05
0.000137268
-1.82812e-05
0.000140921
-1.82454e-05
0.000144565
-1.82069e-05
0.000148202
-1.81655e-05
0.00015183
-1.81211e-05
0.000155449
-1.80735e-05
0.000159057
-1.80227e-05
0.000162655
-1.79684e-05
0.000166242
-1.79106e-05
0.000169816
-1.78491e-05
0.000173378
-1.77838e-05
0.000176926
-1.77145e-05
0.000180459
-1.76411e-05
0.000183977
-1.75635e-05
0.000187479
-1.74815e-05
0.000190963
-1.7395e-05
0.00019443
-1.73039e-05
0.000197877
-1.7208e-05
0.000201305
-1.71072e-05
0.000204711
-1.70014e-05
0.000208096
-1.68905e-05
0.000211457
-1.67744e-05
0.000214794
-1.66529e-05
0.000218106
-1.65259e-05
0.000221391
-1.63934e-05
0.000224649
-1.62553e-05
0.000227879
-1.61113e-05
0.000231078
-1.59616e-05
0.000234246
-1.58059e-05
0.000237382
-1.56442e-05
0.000240485
-1.54765e-05
0.000243553
-1.53027e-05
0.000246585
-1.51227e-05
0.00024958
-1.49365e-05
0.000252536
-1.47441e-05
0.000255453
-1.45454e-05
0.000258328
-1.43404e-05
0.000261162
-1.41291e-05
0.000263951
-1.39116e-05
0.000266696
-1.36878e-05
0.000269395
-1.34577e-05
0.000272047
-1.32215e-05
0.00027465
-1.2979e-05
0.000277204
-1.27305e-05
0.000279706
-1.24759e-05
0.000282156
-1.22153e-05
0.000284553
-1.19488e-05
0.000286895
-1.16765e-05
0.000289181
-1.13986e-05
0.000291411
-1.1115e-05
0.000293582
-1.0826e-05
0.000295695
-1.05317e-05
0.000297747
-1.02322e-05
0.000299739
-9.9277e-06
0.000301668
-9.61834e-06
0.000303534
-9.30431e-06
0.000305336
-8.98578e-06
0.000307074
-8.66295e-06
0.000308746
-8.33602e-06
0.000310351
-8.00519e-06
0.000311889
-7.67067e-06
0.00031336
-7.3327e-06
0.000314762
-6.9915e-06
0.000316095
-6.64729e-06
0.000317358
-6.30032e-06
0.000318551
-5.95084e-06
0.000319673
-5.59908e-06
0.000320724
-5.24531e-06
0.000321704
-4.88977e-06
0.000322612
-4.53271e-06
0.000323448
-4.17441e-06
0.000324212
-3.81511e-06
0.000324903
-3.45508e-06
0.000325523
-3.09457e-06
0.000326069
-2.73385e-06
0.000326544
-2.37317e-06
0.000326945
-2.01279e-06
0.000327275
-1.65296e-06
0.000327533
-1.29393e-06
0.000327718
-9.35959e-07
0.000327832
-5.79279e-07
0.000327875
-2.24134e-07
0.000327847
1.29241e-07
0.000327748
4.80615e-07
0.000327579
8.29766e-07
0.000327341
1.17647e-06
0.000327033
1.52053e-06
0.000326657
1.86173e-06
0.000326213
2.19987e-06
0.000325702
2.53476e-06
0.000325125
2.86622e-06
0.000324482
3.19408e-06
0.000323773
3.51817e-06
0.000323001
3.83833e-06
0.000322165
4.15441e-06
0.000321266
4.46627e-06
0.000320306
4.77377e-06
0.000319285
5.07678e-06
0.000318205
5.3752e-06
0.000317065
5.66891e-06
0.000315868
5.95781e-06
0.000314613
6.24182e-06
0.000313303
6.52085e-06
0.000311938
6.79482e-06
0.000310519
7.06368e-06
0.000309048
7.32736e-06
0.000307524
7.58581e-06
0.00030595
7.83899e-06
0.000304326
8.08688e-06
0.000302654
8.32943e-06
0.000300934
8.56663e-06
0.000299168
8.79847e-06
0.000297357
9.02494e-06
0.000295501
9.24605e-06
0.000293602
9.4618e-06
0.000291661
9.67219e-06
0.00028968
9.87727e-06
0.000287658
1.0077e-05
0.000285597
1.02715e-05
0.000283499
1.04608e-05
0.000281364
1.06448e-05
0.000279193
1.08238e-05
0.000276987
1.09976e-05
0.000274748
1.11663e-05
0.000272476
1.13301e-05
0.000270173
1.14889e-05
0.000267838
1.16428e-05
0.000265474
1.17919e-05
0.000263081
1.19363e-05
0.000260661
1.20761e-05
0.000258213
1.22112e-05
0.000255739
1.23418e-05
0.00025324
1.2468e-05
0.000250717
1.25898e-05
0.000248171
1.27074e-05
0.000245602
1.28208e-05
0.000243011
1.293e-05
0.000240399
1.30352e-05
0.000237767
1.31365e-05
0.000235116
1.3234e-05