/*--------------------------------*- C++ -*----------------------------------*\
| =========                 |                                                 |
| \\      /  F ield         | OpenFOAM: The Open Source CFD Toolbox           |
|  \\    /   O peration     | Version:  v2012                                 |
|   \\  /    A nd           | Website:  www.openfoam.com                      |
|    \\/     M anipulation  |                                                 |
\*---------------------------------------------------------------------------*/
FoamFile
{
    version     2.0;
    format      ascii;
    class       volVectorField;
    location    "15";
    object      U;
}
// * * * * * * * * * * * * * * * * * * * * * * * * * * * * * * * * * * * * * //

dimensions      [0 1 -1 0 0 0 0];


internalField   nonuniform List<vector> 
65536
(
(0.000694022 -0.000694043 0)
(0.00208211 -0.000694088 0)
(0.00347033 -0.000694175 0)
(0.00485877 -0.000694306 0)
(0.00624752 -0.00069448 0)
(0.00763665 -0.000694696 0)
(0.00902626 -0.000694954 0)
(0.0104164 -0.000695254 0)
(0.0118072 -0.000695595 0)
(0.0131988 -0.000695976 0)
(0.0145911 -0.000696396 0)
(0.0159843 -0.000696854 0)
(0.0173785 -0.000697348 0)
(0.0187737 -0.000697879 0)
(0.02017 -0.000698444 0)
(0.0215674 -0.000699041 0)
(0.0229661 -0.00069967 0)
(0.0243661 -0.000700329 0)
(0.0257674 -0.000701015 0)
(0.0271701 -0.000701727 0)
(0.0285743 -0.000702463 0)
(0.0299799 -0.00070322 0)
(0.0313871 -0.000703996 0)
(0.0327959 -0.000704789 0)
(0.0342063 -0.000705596 0)
(0.0356183 -0.000706414 0)
(0.0370319 -0.000707241 0)
(0.0384472 -0.000708073 0)
(0.0398642 -0.000708908 0)
(0.0412829 -0.000709741 0)
(0.0427032 -0.00071057 0)
(0.0441252 -0.000711391 0)
(0.0455488 -0.0007122 0)
(0.046974 -0.000712994 0)
(0.0484008 -0.000713767 0)
(0.0498291 -0.000714516 0)
(0.0512589 -0.000715237 0)
(0.0526901 -0.000715925 0)
(0.0541226 -0.000716575 0)
(0.0555564 -0.000717182 0)
(0.0569914 -0.000717742 0)
(0.0584274 -0.000718249 0)
(0.0598644 -0.000718697 0)
(0.0613023 -0.000719081 0)
(0.0627408 -0.000719396 0)
(0.0641799 -0.000719635 0)
(0.0656195 -0.000719792 0)
(0.0670592 -0.000719862 0)
(0.068499 -0.000719837 0)
(0.0699387 -0.000719712 0)
(0.071378 -0.000719479 0)
(0.0728167 -0.000719132 0)
(0.0742546 -0.000718664 0)
(0.0756915 -0.000718067 0)
(0.077127 -0.000717335 0)
(0.078561 -0.000716461 0)
(0.079993 -0.000715436 0)
(0.0814229 -0.000714253 0)
(0.0828502 -0.000712905 0)
(0.0842747 -0.000711384 0)
(0.0856959 -0.000709682 0)
(0.0871136 -0.000707792 0)
(0.0885273 -0.000705705 0)
(0.0899366 -0.000703413 0)
(0.0913411 -0.00070091 0)
(0.0927405 -0.000698186 0)
(0.0941341 -0.000695234 0)
(0.0955216 -0.000692046 0)
(0.0969025 -0.000688615 0)
(0.0982763 -0.000684933 0)
(0.0996425 -0.000680992 0)
(0.101001 -0.000676785 0)
(0.10235 -0.000672305 0)
(0.10369 -0.000667544 0)
(0.10502 -0.000662496 0)
(0.10634 -0.000657154 0)
(0.107649 -0.000651512 0)
(0.108947 -0.000645563 0)
(0.110232 -0.000639302 0)
(0.111504 -0.000632723 0)
(0.112763 -0.000625821 0)
(0.114008 -0.000618591 0)
(0.115238 -0.000611029 0)
(0.116452 -0.000603131 0)
(0.117651 -0.000594894 0)
(0.118832 -0.000586314 0)
(0.119996 -0.000577388 0)
(0.121142 -0.000568116 0)
(0.122269 -0.000558495 0)
(0.123376 -0.000548525 0)
(0.124464 -0.000538205 0)
(0.12553 -0.000527536 0)
(0.126574 -0.000516518 0)
(0.127596 -0.000505154 0)
(0.128595 -0.000493445 0)
(0.12957 -0.000481394 0)
(0.130521 -0.000469005 0)
(0.131446 -0.000456282 0)
(0.132346 -0.000443231 0)
(0.13322 -0.000429856 0)
(0.134066 -0.000416164 0)
(0.134885 -0.000402162 0)
(0.135675 -0.000387858 0)
(0.136436 -0.00037326 0)
(0.137168 -0.000358377 0)
(0.13787 -0.000343218 0)
(0.138541 -0.000327795 0)
(0.139182 -0.000312118 0)
(0.13979 -0.000296198 0)
(0.140367 -0.000280048 0)
(0.140911 -0.00026368 0)
(0.141422 -0.000247108 0)
(0.141899 -0.000230344 0)
(0.142343 -0.000213404 0)
(0.142753 -0.000196302 0)
(0.143128 -0.000179052 0)
(0.143469 -0.00016167 0)
(0.143775 -0.000144171 0)
(0.144046 -0.000126572 0)
(0.144282 -0.000108888 0)
(0.144482 -9.11362e-05 0)
(0.144646 -7.33319e-05 0)
(0.144775 -5.54921e-05 0)
(0.144868 -3.76333e-05 0)
(0.144926 -1.97719e-05 0)
(0.144947 -1.92437e-06 0)
(0.144933 1.58929e-05 0)
(0.144884 3.36635e-05 0)
(0.144799 5.13716e-05 0)
(0.144678 6.90013e-05 0)
(0.144522 8.65368e-05 0)
(0.144332 0.000103963 0)
(0.144106 0.000121265 0)
(0.143847 0.000138428 0)
(0.143553 0.000155438 0)
(0.143225 0.000172281 0)
(0.142863 0.000188944 0)
(0.142469 0.000205414 0)
(0.142041 0.000221679 0)
(0.141582 0.000237727 0)
(0.14109 0.000253546 0)
(0.140567 0.000269127 0)
(0.140014 0.00028446 0)
(0.139429 0.000299534 0)
(0.138815 0.000314341 0)
(0.138172 0.000328873 0)
(0.137499 0.000343122 0)
(0.136799 0.000357082 0)
(0.136071 0.000370746 0)
(0.135316 0.000384109 0)
(0.134534 0.000397165 0)
(0.133727 0.00040991 0)
(0.132894 0.00042234 0)
(0.132037 0.000434453 0)
(0.131156 0.000446245 0)
(0.130252 0.000457714 0)
(0.129325 0.00046886 0)
(0.128376 0.000479681 0)
(0.127406 0.000490177 0)
(0.126415 0.000500348 0)
(0.125404 0.000510194 0)
(0.124374 0.000519717 0)
(0.123325 0.000528919 0)
(0.122258 0.0005378 0)
(0.121173 0.000546365 0)
(0.120072 0.000554616 0)
(0.118954 0.000562555 0)
(0.117821 0.000570186 0)
(0.116673 0.000577514 0)
(0.115511 0.000584543 0)
(0.114335 0.000591276 0)
(0.113146 0.00059772 0)
(0.111944 0.000603878 0)
(0.11073 0.000609756 0)
(0.109504 0.00061536 0)
(0.108268 0.000620694 0)
(0.107021 0.000625766 0)
(0.105765 0.00063058 0)
(0.104499 0.000635143 0)
(0.103224 0.000639462 0)
(0.101941 0.000643541 0)
(0.10065 0.000647388 0)
(0.099351 0.00065101 0)
(0.0980453 0.000654412 0)
(0.0967331 0.000657601 0)
(0.0954147 0.000660583 0)
(0.0940906 0.000663366 0)
(0.0927611 0.000665955 0)
(0.0914266 0.000668358 0)
(0.0900875 0.00067058 0)
(0.0887441 0.000672628 0)
(0.0873968 0.000674509 0)
(0.0860459 0.000676229 0)
(0.0846917 0.000677794 0)
(0.0833346 0.000679211 0)
(0.0819747 0.000680485 0)
(0.0806125 0.000681623 0)
(0.0792481 0.000682631 0)
(0.0778819 0.000683514 0)
(0.0765139 0.000684279 0)
(0.0751446 0.000684931 0)
(0.0737741 0.000685476 0)
(0.0724026 0.000685919 0)
(0.0710303 0.000686266 0)
(0.0696575 0.000686522 0)
(0.0682842 0.000686691 0)
(0.0669106 0.000686781 0)
(0.065537 0.000686794 0)
(0.0641634 0.000686736 0)
(0.06279 0.000686612 0)
(0.0614169 0.000686426 0)
(0.0600442 0.000686183 0)
(0.0586721 0.000685887 0)
(0.0573006 0.000685542 0)
(0.0559299 0.000685152 0)
(0.05456 0.000684722 0)
(0.053191 0.000684255 0)
(0.0518229 0.000683754 0)
(0.0504559 0.000683225 0)
(0.04909 0.000682669 0)
(0.0477252 0.000682091 0)
(0.0463616 0.000681493 0)
(0.0449992 0.000680879 0)
(0.0436381 0.000680252 0)
(0.0422782 0.000679615 0)
(0.0409196 0.000678971 0)
(0.0395623 0.000678321 0)
(0.0382063 0.00067767 0)
(0.0368516 0.00067702 0)
(0.0354983 0.000676372 0)
(0.0341462 0.000675729 0)
(0.0327954 0.000675094 0)
(0.0314458 0.000674469 0)
(0.0300975 0.000673855 0)
(0.0287504 0.000673254 0)
(0.0274045 0.000672669 0)
(0.0260597 0.0006721 0)
(0.0247161 0.00067155 0)
(0.0233736 0.00067102 0)
(0.0220321 0.000670512 0)
(0.0206915 0.000670027 0)
(0.019352 0.000669566 0)
(0.0180133 0.000669131 0)
(0.0166755 0.000668722 0)
(0.0153384 0.00066834 0)
(0.0140021 0.000667988 0)
(0.0126665 0.000667664 0)
(0.0113315 0.000667371 0)
(0.00999707 0.000667108 0)
(0.00866312 0.000666877 0)
(0.0073296 0.000666678 0)
(0.00599644 0.000666512 0)
(0.00466359 0.000666378 0)
(0.00333097 0.000666278 0)
(0.00199851 0.00066621 0)
(0.00066616 0.000666177 0)
(0.00069398 -0.00208209 0)
(0.00208198 -0.00208222 0)
(0.00347012 -0.00208249 0)
(0.00485847 -0.00208288 0)
(0.00624713 -0.0020834 0)
(0.00763618 -0.00208405 0)
(0.00902571 -0.00208482 0)
(0.0104158 -0.00208572 0)
(0.0118065 -0.00208675 0)
(0.013198 -0.00208789 0)
(0.0145902 -0.00208915 0)
(0.0159834 -0.00209053 0)
(0.0173775 -0.00209201 0)
(0.0187726 -0.0020936 0)
(0.0201688 -0.0020953 0)
(0.0215662 -0.0020971 0)
(0.0229648 -0.00209898 0)
(0.0243647 -0.00210096 0)
(0.025766 -0.00210302 0)
(0.0271687 -0.00210516 0)
(0.0285728 -0.00210737 0)
(0.0299784 -0.00210964 0)
(0.0313856 -0.00211197 0)
(0.0327943 -0.00211435 0)
(0.0342047 -0.00211678 0)
(0.0356167 -0.00211924 0)
(0.0370303 -0.00212172 0)
(0.0384456 -0.00212422 0)
(0.0398626 -0.00212673 0)
(0.0412812 -0.00212923 0)
(0.0427016 -0.00213172 0)
(0.0441236 -0.00213419 0)
(0.0455472 -0.00213662 0)
(0.0469725 -0.002139 0)
(0.0483993 -0.00214133 0)
(0.0498276 -0.00214358 0)
(0.0512575 -0.00214575 0)
(0.0526888 -0.00214782 0)
(0.0541214 -0.00214977 0)
(0.0555553 -0.0021516 0)
(0.0569904 -0.00215328 0)
(0.0584265 -0.00215481 0)
(0.0598637 -0.00215616 0)
(0.0613016 -0.00215731 0)
(0.0627403 -0.00215826 0)
(0.0641796 -0.00215899 0)
(0.0656193 -0.00215947 0)
(0.0670592 -0.00215968 0)
(0.0684992 -0.00215961 0)
(0.0699391 -0.00215924 0)
(0.0713786 -0.00215855 0)
(0.0728175 -0.00215752 0)
(0.0742557 -0.00215612 0)
(0.0756928 -0.00215434 0)
(0.0771287 -0.00215215 0)
(0.0785629 -0.00214953 0)
(0.0799953 -0.00214647 0)
(0.0814254 -0.00214293 0)
(0.0828531 -0.00213889 0)
(0.0842779 -0.00213433 0)
(0.0856996 -0.00212924 0)
(0.0871176 -0.00212357 0)
(0.0885317 -0.00211732 0)
(0.0899414 -0.00211045 0)
(0.0913464 -0.00210295 0)
(0.0927462 -0.00209479 0)
(0.0941403 -0.00208594 0)
(0.0955283 -0.00207638 0)
(0.0969097 -0.0020661 0)
(0.098284 -0.00205506 0)
(0.0996507 -0.00204324 0)
(0.101009 -0.00203063 0)
(0.102359 -0.00201719 0)
(0.1037 -0.00200292 0)
(0.105031 -0.00198778 0)
(0.106351 -0.00197176 0)
(0.107661 -0.00195484 0)
(0.108959 -0.001937 0)
(0.110245 -0.00191822 0)
(0.111518 -0.00189849 0)
(0.112777 -0.00187779 0)
(0.114023 -0.0018561 0)
(0.115253 -0.00183342 0)
(0.116468 -0.00180973 0)
(0.117668 -0.00178502 0)
(0.11885 -0.00175928 0)
(0.120015 -0.00173251 0)
(0.121161 -0.00170469 0)
(0.122289 -0.00167583 0)
(0.123397 -0.00164592 0)
(0.124485 -0.00161496 0)
(0.125551 -0.00158295 0)
(0.126596 -0.0015499 0)
(0.127619 -0.0015158 0)
(0.128619 -0.00148067 0)
(0.129595 -0.00144452 0)
(0.130546 -0.00140735 0)
(0.131472 -0.00136917 0)
(0.132373 -0.00133001 0)
(0.133247 -0.00128988 0)
(0.134094 -0.0012488 0)
(0.134913 -0.00120678 0)
(0.135704 -0.00116386 0)
(0.136466 -0.00112006 0)
(0.137198 -0.0010754 0)
(0.137901 -0.00102992 0)
(0.138573 -0.000983635 0)
(0.139213 -0.000936592 0)
(0.139822 -0.00088882 0)
(0.140399 -0.000840357 0)
(0.140944 -0.000791241 0)
(0.141455 -0.00074151 0)
(0.141933 -0.000691205 0)
(0.142377 -0.00064037 0)
(0.142787 -0.000589048 0)
(0.143163 -0.000537283 0)
(0.143504 -0.000485122 0)
(0.14381 -0.000432611 0)
(0.144081 -0.000379797 0)
(0.144317 -0.00032673 0)
(0.144517 -0.000273457 0)
(0.144682 -0.000220028 0)
(0.144811 -0.000166492 0)
(0.144904 -0.000112899 0)
(0.144961 -5.92979e-05 0)
(0.144983 -5.73909e-06 0)
(0.144969 4.77288e-05 0)
(0.144919 0.000101057 0)
(0.144834 0.000154197 0)
(0.144713 0.000207101 0)
(0.144557 0.000259723 0)
(0.144367 0.000312017 0)
(0.144141 0.000363937 0)
(0.143881 0.000415441 0)
(0.143586 0.000466484 0)
(0.143258 0.000517027 0)
(0.142896 0.000567028 0)
(0.142501 0.000616451 0)
(0.142074 0.000665257 0)
(0.141614 0.000713411 0)
(0.141122 0.000760881 0)
(0.140598 0.000807634 0)
(0.140044 0.00085364 0)
(0.139459 0.000898871 0)
(0.138844 0.0009433 0)
(0.1382 0.000986904 0)
(0.137528 0.00102966 0)
(0.136826 0.00107154 0)
(0.136098 0.00111254 0)
(0.135342 0.00115263 0)
(0.13456 0.00119181 0)
(0.133752 0.00123005 0)
(0.132919 0.00126734 0)
(0.132061 0.00130368 0)
(0.131179 0.00133906 0)
(0.130274 0.00137347 0)
(0.129347 0.00140691 0)
(0.128397 0.00143937 0)
(0.127426 0.00147086 0)
(0.126435 0.00150137 0)
(0.125423 0.00153091 0)
(0.124392 0.00155947 0)
(0.123343 0.00158708 0)
(0.122275 0.00161372 0)
(0.12119 0.00163941 0)
(0.120088 0.00166416 0)
(0.11897 0.00168797 0)
(0.117836 0.00171086 0)
(0.116688 0.00173284 0)
(0.115525 0.00175392 0)
(0.114348 0.00177412 0)
(0.113158 0.00179344 0)
(0.111956 0.00181191 0)
(0.110741 0.00182954 0)
(0.109515 0.00184635 0)
(0.108278 0.00186235 0)
(0.107031 0.00187755 0)
(0.105774 0.00189199 0)
(0.104508 0.00190567 0)
(0.103232 0.00191862 0)
(0.101949 0.00193086 0)
(0.100657 0.00194239 0)
(0.0993579 0.00195325 0)
(0.0980519 0.00196345 0)
(0.0967392 0.00197301 0)
(0.0954204 0.00198195 0)
(0.0940959 0.00199029 0)
(0.092766 0.00199805 0)
(0.0914312 0.00200525 0)
(0.0900917 0.00201191 0)
(0.088748 0.00201805 0)
(0.0874003 0.00202369 0)
(0.0860491 0.00202884 0)
(0.0846946 0.00203353 0)
(0.0833372 0.00203777 0)
(0.0819771 0.00204159 0)
(0.0806146 0.002045 0)
(0.07925 0.00204802 0)
(0.0778834 0.00205066 0)
(0.0765153 0.00205295 0)
(0.0751458 0.0020549 0)
(0.073775 0.00205653 0)
(0.0724034 0.00205785 0)
(0.0710309 0.00205889 0)
(0.0696578 0.00205965 0)
(0.0682844 0.00206015 0)
(0.0669107 0.00206042 0)
(0.0655369 0.00206045 0)
(0.0641631 0.00206027 0)
(0.0627896 0.0020599 0)
(0.0614164 0.00205933 0)
(0.0600436 0.0020586 0)
(0.0586714 0.00205771 0)
(0.0572998 0.00205667 0)
(0.055929 0.0020555 0)
(0.054559 0.0020542 0)
(0.0531899 0.0020528 0)
(0.0518218 0.00205129 0)
(0.0504548 0.0020497 0)
(0.0490888 0.00204803 0)
(0.047724 0.00204629 0)
(0.0463604 0.00204449 0)
(0.044998 0.00204265 0)
(0.0436368 0.00204076 0)
(0.0422769 0.00203885 0)
(0.0409183 0.00203691 0)
(0.039561 0.00203496 0)
(0.038205 0.00203301 0)
(0.0368503 0.00203105 0)
(0.0354969 0.00202911 0)
(0.0341449 0.00202718 0)
(0.0327941 0.00202527 0)
(0.0314445 0.00202339 0)
(0.0300963 0.00202155 0)
(0.0287492 0.00201974 0)
(0.0274033 0.00201799 0)
(0.0260586 0.00201628 0)
(0.024715 0.00201463 0)
(0.0233725 0.00201304 0)
(0.022031 0.00201151 0)
(0.0206906 0.00201006 0)
(0.0193511 0.00200867 0)
(0.0180124 0.00200736 0)
(0.0166747 0.00200614 0)
(0.0153377 0.00200499 0)
(0.0140015 0.00200393 0)
(0.0126659 0.00200296 0)
(0.011331 0.00200208 0)
(0.00999657 0.00200129 0)
(0.00866269 0.0020006 0)
(0.00732923 0.002 0)
(0.00599614 0.0019995 0)
(0.00466335 0.0019991 0)
(0.0033308 0.0019988 0)
(0.00199841 0.0019986 0)
(0.000666126 0.0019985 0)
(0.000693892 -0.00347001 0)
(0.00208172 -0.00347023 0)
(0.00346968 -0.00347066 0)
(0.00485786 -0.00347132 0)
(0.00624635 -0.00347219 0)
(0.00763523 -0.00347327 0)
(0.00902459 -0.00347457 0)
(0.0104145 -0.00347607 0)
(0.0118051 -0.00347778 0)
(0.0131964 -0.00347969 0)
(0.0145885 -0.00348179 0)
(0.0159815 -0.00348409 0)
(0.0173754 -0.00348657 0)
(0.0187704 -0.00348923 0)
(0.0201665 -0.00349206 0)
(0.0215637 -0.00349506 0)
(0.0229622 -0.00349821 0)
(0.024362 -0.00350151 0)
(0.0257632 -0.00350495 0)
(0.0271658 -0.00350852 0)
(0.0285698 -0.00351221 0)
(0.0299753 -0.00351601 0)
(0.0313824 -0.0035199 0)
(0.0327911 -0.00352388 0)
(0.0342014 -0.00352793 0)
(0.0356134 -0.00353203 0)
(0.037027 -0.00353618 0)
(0.0384422 -0.00354036 0)
(0.0398592 -0.00354455 0)
(0.0412779 -0.00354873 0)
(0.0426983 -0.0035529 0)
(0.0441203 -0.00355702 0)
(0.045544 -0.00356108 0)
(0.0469693 -0.00356507 0)
(0.0483962 -0.00356896 0)
(0.0498247 -0.00357273 0)
(0.0512546 -0.00357636 0)
(0.0526861 -0.00357982 0)
(0.0541188 -0.00358309 0)
(0.0555529 -0.00358615 0)
(0.0569882 -0.00358898 0)
(0.0584246 -0.00359154 0)
(0.0598619 -0.00359381 0)
(0.0613002 -0.00359576 0)
(0.0627392 -0.00359736 0)
(0.0641788 -0.00359858 0)
(0.0656188 -0.0035994 0)
(0.0670591 -0.00359978 0)
(0.0684995 -0.00359969 0)
(0.0699397 -0.0035991 0)
(0.0713797 -0.00359797 0)
(0.0728191 -0.00359627 0)
(0.0742578 -0.00359396 0)
(0.0756955 -0.00359102 0)
(0.0771318 -0.00358739 0)
(0.0785667 -0.00358306 0)
(0.0799996 -0.00357797 0)
(0.0814305 -0.0035721 0)
(0.0828588 -0.00356539 0)
(0.0842843 -0.00355783 0)
(0.0857067 -0.00354936 0)
(0.0871255 -0.00353994 0)
(0.0885404 -0.00352955 0)
(0.089951 -0.00351813 0)
(0.0913568 -0.00350565 0)
(0.0927575 -0.00349207 0)
(0.0941525 -0.00347735 0)
(0.0955415 -0.00346145 0)
(0.0969239 -0.00344433 0)
(0.0982992 -0.00342596 0)
(0.099667 -0.00340629 0)
(0.101027 -0.00338529 0)
(0.102378 -0.00336293 0)
(0.10372 -0.00333916 0)
(0.105052 -0.00331395 0)
(0.106373 -0.00328727 0)
(0.107684 -0.00325909 0)
(0.108983 -0.00322937 0)
(0.11027 -0.0031981 0)
(0.111545 -0.00316523 0)
(0.112806 -0.00313074 0)
(0.114052 -0.00309461 0)
(0.115284 -0.00305682 0)
(0.116501 -0.00301735 0)
(0.117701 -0.00297618 0)
(0.118885 -0.00293329 0)
(0.120051 -0.00288867 0)
(0.121199 -0.00284232 0)
(0.122328 -0.00279422 0)
(0.123437 -0.00274437 0)
(0.124527 -0.00269277 0)
(0.125595 -0.00263942 0)
(0.126641 -0.00258432 0)
(0.127665 -0.00252749 0)
(0.128666 -0.00246893 0)
(0.129644 -0.00240866 0)
(0.130596 -0.00234669 0)
(0.131524 -0.00228305 0)
(0.132426 -0.00221777 0)
(0.133301 -0.00215086 0)
(0.134149 -0.00208236 0)
(0.13497 -0.00201232 0)
(0.135762 -0.00194075 0)
(0.136525 -0.00186772 0)
(0.137259 -0.00179325 0)
(0.137962 -0.00171741 0)
(0.138635 -0.00164024 0)
(0.139277 -0.00156179 0)
(0.139886 -0.00148213 0)
(0.140464 -0.00140132 0)
(0.141009 -0.00131942 0)
(0.141522 -0.00123649 0)
(0.142 -0.0011526 0)
(0.142445 -0.00106782 0)
(0.142856 -0.000982237 0)
(0.143232 -0.000895912 0)
(0.143574 -0.000808924 0)
(0.143881 -0.000721353 0)
(0.144152 -0.000633277 0)
(0.144388 -0.000544776 0)
(0.144588 -0.000455934 0)
(0.144753 -0.00036683 0)
(0.144882 -0.000277549 0)
(0.144975 -0.000188172 0)
(0.145033 -9.87823e-05 0)
(0.145054 -9.46292e-06 0)
(0.14504 7.97044e-05 0)
(0.14499 0.000168638 0)
(0.144905 0.000257258 0)
(0.144784 0.000345484 0)
(0.144627 0.000433238 0)
(0.144436 0.000520444 0)
(0.14421 0.000607027 0)
(0.143949 0.000692913 0)
(0.143654 0.000778031 0)
(0.143325 0.000862313 0)
(0.142963 0.000945692 0)
(0.142567 0.0010281 0)
(0.142138 0.00110949 0)
(0.141677 0.00118978 0)
(0.141185 0.00126893 0)
(0.14066 0.00134689 0)
(0.140105 0.0014236 0)
(0.139519 0.00149901 0)
(0.138903 0.00157309 0)
(0.138258 0.00164578 0)
(0.137584 0.00171706 0)
(0.136882 0.00178689 0)
(0.136152 0.00185524 0)
(0.135395 0.00192208 0)
(0.134611 0.00198738 0)
(0.133802 0.00205113 0)
(0.132968 0.00211329 0)
(0.132109 0.00217387 0)
(0.131226 0.00223284 0)
(0.130319 0.0022902 0)
(0.129391 0.00234593 0)
(0.12844 0.00240003 0)
(0.127468 0.00245251 0)
(0.126475 0.00250336 0)
(0.125462 0.00255259 0)
(0.12443 0.0026002 0)
(0.123379 0.00264619 0)
(0.12231 0.00269059 0)
(0.121224 0.0027334 0)
(0.12012 0.00277464 0)
(0.119001 0.00281431 0)
(0.117866 0.00285245 0)
(0.116716 0.00288907 0)
(0.115552 0.00292419 0)
(0.114374 0.00295783 0)
(0.113183 0.00299003 0)
(0.11198 0.00302079 0)
(0.110764 0.00305015 0)
(0.109537 0.00307814 0)
(0.108299 0.00310479 0)
(0.107051 0.00313012 0)
(0.105793 0.00315416 0)
(0.104525 0.00317694 0)
(0.103249 0.0031985 0)
(0.101964 0.00321887 0)
(0.100672 0.00323807 0)
(0.099372 0.00325615 0)
(0.098065 0.00327312 0)
(0.0967516 0.00328903 0)
(0.095432 0.00330391 0)
(0.0941066 0.00331779 0)
(0.092776 0.00333071 0)
(0.0914404 0.00334269 0)
(0.0901002 0.00335377 0)
(0.0887558 0.00336398 0)
(0.0874075 0.00337335 0)
(0.0860557 0.00338192 0)
(0.0847006 0.00338971 0)
(0.0833426 0.00339676 0)
(0.0819819 0.0034031 0)
(0.0806189 0.00340876 0)
(0.0792537 0.00341377 0)
(0.0778867 0.00341816 0)
(0.0765181 0.00342196 0)
(0.0751482 0.00342519 0)
(0.073777 0.00342788 0)
(0.0724049 0.00343007 0)
(0.0710321 0.00343178 0)
(0.0696587 0.00343303 0)
(0.0682849 0.00343386 0)
(0.0669109 0.00343428 0)
(0.0655368 0.00343432 0)
(0.0641628 0.00343401 0)
(0.062789 0.00343337 0)
(0.0614155 0.00343241 0)
(0.0600425 0.00343118 0)
(0.0586701 0.00342967 0)
(0.0572984 0.00342793 0)
(0.0559274 0.00342596 0)
(0.0545572 0.00342379 0)
(0.053188 0.00342143 0)
(0.0518198 0.00341892 0)
(0.0504526 0.00341625 0)
(0.0490866 0.00341345 0)
(0.0477216 0.00341055 0)
(0.0463579 0.00340754 0)
(0.0449955 0.00340446 0)
(0.0436343 0.00340131 0)
(0.0422743 0.00339811 0)
(0.0409157 0.00339487 0)
(0.0395584 0.00339161 0)
(0.0382024 0.00338835 0)
(0.0368477 0.00338508 0)
(0.0354944 0.00338183 0)
(0.0341423 0.00337861 0)
(0.0327915 0.00337542 0)
(0.0314421 0.00337228 0)
(0.0300938 0.0033692 0)
(0.0287468 0.00336619 0)
(0.027401 0.00336325 0)
(0.0260564 0.0033604 0)
(0.0247129 0.00335765 0)
(0.0233704 0.00335499 0)
(0.0220291 0.00335244 0)
(0.0206887 0.00335001 0)
(0.0193493 0.0033477 0)
(0.0180108 0.00334552 0)
(0.0166731 0.00334347 0)
(0.0153362 0.00334156 0)
(0.0140001 0.00333979 0)
(0.0126647 0.00333817 0)
(0.0113298 0.0033367 0)
(0.00999559 0.00333538 0)
(0.00866182 0.00333422 0)
(0.0073285 0.00333322 0)
(0.00599554 0.00333239 0)
(0.00466288 0.00333172 0)
(0.00333046 0.00333122 0)
(0.00199821 0.00333088 0)
(0.000666059 0.00333071 0)
(0.00069376 -0.0048577 0)
(0.00208133 -0.00485801 0)
(0.00346902 -0.00485863 0)
(0.00485694 -0.00485954 0)
(0.00624517 -0.00486077 0)
(0.00763379 -0.00486229 0)
(0.0090229 -0.0048641 0)
(0.0104126 -0.00486621 0)
(0.0118029 -0.00486861 0)
(0.013194 -0.00487129 0)
(0.0145858 -0.00487424 0)
(0.0159786 -0.00487746 0)
(0.0173723 -0.00488094 0)
(0.0187671 -0.00488468 0)
(0.020163 -0.00488865 0)
(0.02156 -0.00489286 0)
(0.0229584 -0.00489728 0)
(0.024358 -0.00490192 0)
(0.025759 -0.00490675 0)
(0.0271614 -0.00491176 0)
(0.0285653 -0.00491694 0)
(0.0299707 -0.00492227 0)
(0.0313777 -0.00492774 0)
(0.0327863 -0.00493333 0)
(0.0341965 -0.00493902 0)
(0.0356084 -0.00494478 0)
(0.0370219 -0.00495061 0)
(0.0384372 -0.00495648 0)
(0.0398542 -0.00496237 0)
(0.0412729 -0.00496826 0)
(0.0426932 -0.00497411 0)
(0.0441153 -0.00497991 0)
(0.0455391 -0.00498563 0)
(0.0469645 -0.00499124 0)
(0.0483916 -0.00499671 0)
(0.0498202 -0.00500202 0)
(0.0512503 -0.00500713 0)
(0.052682 -0.00501201 0)
(0.054115 -0.00501663 0)
(0.0555493 -0.00502095 0)
(0.0569849 -0.00502494 0)
(0.0584216 -0.00502856 0)
(0.0598594 -0.00503178 0)
(0.061298 -0.00503455 0)
(0.0627374 -0.00503683 0)
(0.0641775 -0.00503859 0)
(0.065618 -0.00503978 0)
(0.0670588 -0.00504035 0)
(0.0684998 -0.00504027 0)
(0.0699407 -0.00503949 0)
(0.0713813 -0.00503795 0)
(0.0728215 -0.00503562 0)
(0.0742609 -0.00503244 0)
(0.0756993 -0.00502837 0)
(0.0771366 -0.00502335 0)
(0.0785723 -0.00501733 0)
(0.0800061 -0.00501026 0)
(0.0814379 -0.00500209 0)
(0.0828673 -0.00499276 0)
(0.0842939 -0.00498222 0)
(0.0857174 -0.00497042 0)
(0.0871373 -0.0049573 0)
(0.0885534 -0.0049428 0)
(0.0899653 -0.00492687 0)
(0.0913724 -0.00490945 0)
(0.0927744 -0.00489049 0)
(0.0941708 -0.00486994 0)
(0.0955612 -0.00484774 0)
(0.0969451 -0.00482382 0)
(0.098322 -0.00479815 0)
(0.0996913 -0.00477067 0)
(0.101053 -0.00474132 0)
(0.102405 -0.00471006 0)
(0.103749 -0.00467683 0)
(0.105083 -0.00464159 0)
(0.106406 -0.00460428 0)
(0.107719 -0.00456487 0)
(0.10902 -0.00452331 0)
(0.110309 -0.00447956 0)
(0.111585 -0.00443358 0)
(0.112848 -0.00438533 0)
(0.114097 -0.00433479 0)
(0.115331 -0.00428191 0)
(0.116549 -0.00422667 0)
(0.117752 -0.00416905 0)
(0.118937 -0.00410903 0)
(0.120105 -0.00404658 0)
(0.121255 -0.00398169 0)
(0.122387 -0.00391436 0)
(0.123498 -0.00384457 0)
(0.124589 -0.00377233 0)
(0.12566 -0.00369763 0)
(0.126708 -0.00362048 0)
(0.127735 -0.0035409 0)
(0.128738 -0.0034589 0)
(0.129717 -0.00337449 0)
(0.130672 -0.00328771 0)
(0.131601 -0.00319858 0)
(0.132505 -0.00310714 0)
(0.133382 -0.00301343 0)
(0.134232 -0.00291748 0)
(0.135055 -0.00281936 0)
(0.135849 -0.00271911 0)
(0.136613 -0.0026168 0)
(0.137349 -0.00251248 0)
(0.138054 -0.00240623 0)
(0.138728 -0.00229812 0)
(0.139371 -0.00218821 0)
(0.139983 -0.0020766 0)
(0.140562 -0.00196338 0)
(0.141108 -0.00184862 0)
(0.141622 -0.00173242 0)
(0.142102 -0.00161488 0)
(0.142548 -0.00149609 0)
(0.142959 -0.00137617 0)
(0.143337 -0.0012552 0)
(0.143679 -0.00113331 0)
(0.143986 -0.0010106 0)
(0.144258 -0.000887181 0)
(0.144495 -0.000763166 0)
(0.144695 -0.000638672 0)
(0.14486 -0.000513811 0)
(0.14499 -0.000388701 0)
(0.145083 -0.000263458 0)
(0.14514 -0.000138197 0)
(0.145162 -1.30353e-05 0)
(0.145147 0.000111913 0)
(0.145097 0.000236533 0)
(0.145011 0.000360711 0)
(0.144889 0.000484337 0)
(0.144732 0.000607301 0)
(0.14454 0.000729494 0)
(0.144313 0.000850812 0)
(0.144052 0.000971152 0)
(0.143756 0.00109041 0)
(0.143426 0.0012085 0)
(0.143062 0.00132532 0)
(0.142665 0.00144078 0)
(0.142235 0.0015548 0)
(0.141773 0.00166729 0)
(0.141279 0.00177818 0)
(0.140753 0.00188739 0)
(0.140196 0.00199484 0)
(0.139609 0.00210049 0)
(0.138991 0.00220425 0)
(0.138344 0.00230608 0)
(0.137669 0.00240592 0)
(0.136965 0.00250373 0)
(0.136233 0.00259945 0)
(0.135474 0.00269306 0)
(0.134689 0.00278451 0)
(0.133878 0.00287378 0)
(0.133041 0.00296084 0)
(0.13218 0.00304566 0)
(0.131295 0.00312824 0)
(0.130387 0.00320854 0)
(0.129456 0.00328658 0)
(0.128504 0.00336233 0)
(0.12753 0.0034358 0)
(0.126535 0.00350698 0)
(0.12552 0.00357589 0)
(0.124486 0.00364253 0)
(0.123433 0.00370691 0)
(0.122362 0.00376905 0)
(0.121274 0.00382896 0)
(0.120169 0.00388667 0)
(0.119048 0.00394219 0)
(0.117911 0.00399556 0)
(0.116759 0.0040468 0)
(0.115594 0.00409593 0)
(0.114414 0.004143 0)
(0.113221 0.00418803 0)
(0.112016 0.00423107 0)
(0.110799 0.00427214 0)
(0.10957 0.00431128 0)
(0.10833 0.00434855 0)
(0.107081 0.00438396 0)
(0.105821 0.00441758 0)
(0.104552 0.00444943 0)
(0.103274 0.00447957 0)
(0.101988 0.00450804 0)
(0.100694 0.00453488 0)
(0.099393 0.00456014 0)
(0.0980848 0.00458386 0)
(0.09677 0.00460609 0)
(0.0954492 0.00462688 0)
(0.0941227 0.00464627 0)
(0.0927909 0.0046643 0)
(0.0914542 0.00468103 0)
(0.090113 0.00469649 0)
(0.0887676 0.00471074 0)
(0.0874183 0.00472382 0)
(0.0860655 0.00473577 0)
(0.0847095 0.00474664 0)
(0.0833506 0.00475647 0)
(0.0819891 0.0047653 0)
(0.0806253 0.00477318 0)
(0.0792594 0.00478015 0)
(0.0778916 0.00478625 0)
(0.0765223 0.00479153 0)
(0.0751517 0.00479601 0)
(0.0737799 0.00479975 0)
(0.0724073 0.00480278 0)
(0.0710339 0.00480513 0)
(0.0696599 0.00480685 0)
(0.0682856 0.00480797 0)
(0.0669111 0.00480852 0)
(0.0655366 0.00480855 0)
(0.0641622 0.00480808 0)
(0.062788 0.00480714 0)
(0.0614142 0.00480578 0)
(0.0600409 0.00480402 0)
(0.0586682 0.00480188 0)
(0.0572961 0.00479941 0)
(0.0559249 0.00479663 0)
(0.0545545 0.00479356 0)
(0.0531851 0.00479024 0)
(0.0518167 0.00478669 0)
(0.0504493 0.00478293 0)
(0.0490831 0.00477899 0)
(0.0477181 0.0047749 0)
(0.0463543 0.00477067 0)
(0.0449917 0.00476633 0)
(0.0436304 0.0047619 0)
(0.0422705 0.0047574 0)
(0.0409118 0.00475285 0)
(0.0395545 0.00474827 0)
(0.0381985 0.00474368 0)
(0.0368438 0.00473909 0)
(0.0354905 0.00473453 0)
(0.0341385 0.00473 0)
(0.0327877 0.00472552 0)
(0.0314383 0.00472111 0)
(0.0300902 0.00471679 0)
(0.0287432 0.00471256 0)
(0.0273975 0.00470844 0)
(0.026053 0.00470443 0)
(0.0247096 0.00470056 0)
(0.0233673 0.00469684 0)
(0.0220261 0.00469326 0)
(0.0206858 0.00468985 0)
(0.0193466 0.0046866 0)
(0.0180082 0.00468354 0)
(0.0166707 0.00468066 0)
(0.015334 0.00467798 0)
(0.0139981 0.0046755 0)
(0.0126628 0.00467322 0)
(0.0113282 0.00467116 0)
(0.0099941 0.00466931 0)
(0.00866053 0.00466769 0)
(0.0073274 0.00466629 0)
(0.00599463 0.00466511 0)
(0.00466218 0.00466417 0)
(0.00332996 0.00466347 0)
(0.00199791 0.004663 0)
(0.000665957 0.00466276 0)
(0.000693584 -0.00624509 0)
(0.0020808 -0.00624549 0)
(0.00346814 -0.00624628 0)
(0.00485572 -0.00624747 0)
(0.0062436 -0.00624904 0)
(0.00763188 -0.006251 0)
(0.00902065 -0.00625335 0)
(0.01041 -0.00625607 0)
(0.0118 -0.00625916 0)
(0.0131907 -0.00626261 0)
(0.0145823 -0.00626642 0)
(0.0159747 -0.00627058 0)
(0.0173682 -0.00627507 0)
(0.0187627 -0.00627988 0)
(0.0201583 -0.00628501 0)
(0.0215551 -0.00629044 0)
(0.0229532 -0.00629615 0)
(0.0243525 -0.00630213 0)
(0.0257533 -0.00630837 0)
(0.0271555 -0.00631484 0)
(0.0285593 -0.00632152 0)
(0.0299645 -0.00632841 0)
(0.0313713 -0.00633547 0)
(0.0327798 -0.00634268 0)
(0.0341899 -0.00635002 0)
(0.0356017 -0.00635748 0)
(0.0370152 -0.00636501 0)
(0.0384304 -0.00637259 0)
(0.0398474 -0.0063802 0)
(0.0412661 -0.00638781 0)
(0.0426865 -0.00639538 0)
(0.0441087 -0.00640288 0)
(0.0455326 -0.00641028 0)
(0.0469581 -0.00641754 0)
(0.0483854 -0.00642463 0)
(0.0498142 -0.00643151 0)
(0.0512446 -0.00643813 0)
(0.0526765 -0.00644446 0)
(0.0541098 -0.00645046 0)
(0.0555445 -0.00645608 0)
(0.0569805 -0.00646127 0)
(0.0584177 -0.00646599 0)
(0.0598559 -0.00647019 0)
(0.0612951 -0.00647382 0)
(0.062735 -0.00647683 0)
(0.0641757 -0.00647916 0)
(0.0656169 -0.00648077 0)
(0.0670585 -0.00648158 0)
(0.0685002 -0.00648156 0)
(0.069942 -0.00648063 0)
(0.0713835 -0.00647874 0)
(0.0728245 -0.00647582 0)
(0.074265 -0.00647182 0)
(0.0757045 -0.00646667 0)
(0.0771428 -0.0064603 0)
(0.0785796 -0.00645266 0)
(0.0800148 -0.00644366 0)
(0.0814478 -0.00643324 0)
(0.0828786 -0.00642134 0)
(0.0843066 -0.00640789 0)
(0.0857315 -0.0063928 0)
(0.087153 -0.00637602 0)
(0.0885707 -0.00635748 0)
(0.0899842 -0.00633709 0)
(0.0913931 -0.00631479 0)
(0.0927969 -0.00629051 0)
(0.0941952 -0.00626418 0)
(0.0955875 -0.00623573 0)
(0.0969734 -0.00620508 0)
(0.0983523 -0.00617216 0)
(0.0997237 -0.00613692 0)
(0.101087 -0.00609927 0)
(0.102442 -0.00605916 0)
(0.103788 -0.00601652 0)
(0.105124 -0.00597129 0)
(0.10645 -0.0059234 0)
(0.107765 -0.00587281 0)
(0.109069 -0.00581944 0)
(0.11036 -0.00576326 0)
(0.111639 -0.0057042 0)
(0.112904 -0.00564223 0)
(0.114156 -0.00557729 0)
(0.115392 -0.00550935 0)
(0.116614 -0.00543838 0)
(0.117819 -0.00536433 0)
(0.119007 -0.00528718 0)
(0.120178 -0.00520692 0)
(0.121331 -0.00512351 0)
(0.122465 -0.00503695 0)
(0.123579 -0.00494723 0)
(0.124673 -0.00485434 0)
(0.125747 -0.00475829 0)
(0.126798 -0.00465908 0)
(0.127827 -0.00455673 0)
(0.128833 -0.00445126 0)
(0.129815 -0.0043427 0)
(0.130772 -0.00423107 0)
(0.131704 -0.00411642 0)
(0.132611 -0.00399879 0)
(0.133491 -0.00387822 0)
(0.134343 -0.00375478 0)
(0.135168 -0.00362853 0)
(0.135964 -0.00349955 0)
(0.136732 -0.00336789 0)
(0.137469 -0.00323365 0)
(0.138176 -0.00309692 0)
(0.138853 -0.00295778 0)
(0.139498 -0.00281634 0)
(0.140111 -0.0026727 0)
(0.140692 -0.00252696 0)
(0.141241 -0.00237926 0)
(0.141756 -0.00222969 0)
(0.142237 -0.0020784 0)
(0.142684 -0.0019255 0)
(0.143097 -0.00177113 0)
(0.143475 -0.00161542 0)
(0.143819 -0.00145852 0)
(0.144127 -0.00130056 0)
(0.1444 -0.00114168 0)
(0.144637 -0.000982038 0)
(0.144838 -0.000821776 0)
(0.145003 -0.000661043 0)
(0.145133 -0.000499988 0)
(0.145226 -0.000338762 0)
(0.145283 -0.000177514 0)
(0.145305 -1.63945e-05 0)
(0.14529 0.000144449 0)
(0.145239 0.000304868 0)
(0.145153 0.000464717 0)
(0.14503 0.000623853 0)