/*--------------------------------*- C++ -*----------------------------------*\
| =========                 |                                                 |
| \\      /  F ield         | OpenFOAM: The Open Source CFD Toolbox           |
|  \\    /   O peration     | Version:  v2012                                 |
|   \\  /    A nd           | Website:  www.openfoam.com                      |
|    \\/     M anipulation  |                                                 |
\*---------------------------------------------------------------------------*/
FoamFile
{
    version     2.0;
    format      ascii;
    class       volScalarField;
    location    "15";
    object      W;
}
// * * * * * * * * * * * * * * * * * * * * * * * * * * * * * * * * * * * * * //

dimensions      [0 0 -1 0 0 0 0];


internalField   nonuniform List<scalar> 
65536
(
5.84242e-15
5.86851e-15
6.00253e-15
6.2452e-15
6.59901e-15
7.06825e-15
7.65895e-15
8.37897e-15
9.23803e-15
1.02478e-14
1.14222e-14
1.27772e-14
1.43313e-14
1.61054e-14
1.81235e-14
2.04126e-14
2.30028e-14
2.59283e-14
2.92268e-14
3.29409e-14
3.71174e-14
4.18089e-14
4.70732e-14
5.29747e-14
5.95843e-14
6.69806e-14
7.52499e-14
8.44875e-14
9.47981e-14
1.06297e-13
1.1911e-13
1.33375e-13
1.49244e-13
1.66882e-13
1.86468e-13
2.082e-13
2.32291e-13
2.58974e-13
2.88499e-13
3.2114e-13
3.57192e-13
3.96974e-13
4.40828e-13
4.89126e-13
5.42264e-13
6.00668e-13
6.64796e-13
7.35134e-13
8.12203e-13
8.96557e-13
9.88785e-13
1.08951e-12
1.19939e-12
1.31913e-12
1.44945e-12
1.59113e-12
1.74498e-12
1.91184e-12
2.09258e-12
2.28812e-12
2.49942e-12
2.72743e-12
2.97317e-12
3.23767e-12
3.52198e-12
3.82717e-12
4.15433e-12
4.50454e-12
4.8789e-12
5.27851e-12
5.70444e-12
6.15776e-12
6.63951e-12
7.1507e-12
7.69228e-12
8.26518e-12
8.87025e-12
9.50826e-12
1.01799e-11
1.08858e-11
1.16265e-11
1.24023e-11
1.32135e-11
1.40604e-11
1.49427e-11
1.58605e-11
1.68135e-11
1.7801e-11
1.88225e-11
1.98772e-11
2.0964e-11
2.20817e-11
2.3229e-11
2.44043e-11
2.56058e-11
2.68316e-11
2.80796e-11
2.93474e-11
3.06326e-11
3.19325e-11
3.32444e-11
3.45654e-11
3.58925e-11
3.72225e-11
3.85521e-11
3.98782e-11
4.11972e-11
4.2506e-11
4.38009e-11
4.50787e-11
4.63359e-11
4.75691e-11
4.87751e-11
4.99506e-11
5.10925e-11
5.21977e-11
5.32634e-11
5.42866e-11
5.52648e-11
5.61954e-11
5.70761e-11
5.79047e-11
5.86793e-11
5.93978e-11
6.00587e-11
6.06604e-11
6.12016e-11
6.16811e-11
6.20979e-11
6.2451e-11
6.27397e-11
6.29634e-11
6.31217e-11
6.3214e-11
6.32402e-11
6.32001e-11
6.30934e-11
6.29203e-11
6.26807e-11
6.23747e-11
6.20024e-11
6.15642e-11
6.10601e-11
6.04906e-11
5.98559e-11
5.91565e-11
5.83929e-11
5.75656e-11
5.66752e-11
5.57226e-11
5.47086e-11
5.36342e-11
5.25007e-11
5.13095e-11
5.00621e-11
4.87604e-11
4.74066e-11
4.60031e-11
4.45528e-11
4.30586e-11
4.15241e-11
3.99533e-11
3.83502e-11
3.67197e-11
3.50668e-11
3.33969e-11
3.17158e-11
3.00296e-11
2.83447e-11
2.66678e-11
2.50056e-11
2.3365e-11
2.17529e-11
2.01761e-11
1.86413e-11
1.71549e-11
1.5723e-11
1.43513e-11
1.30447e-11
1.18079e-11
1.06446e-11
9.55813e-12
8.55072e-12
7.624e-12
6.77875e-12
6.01499e-12
5.33192e-12
4.72801e-12
4.201e-12
3.74797e-12
3.36538e-12
3.04914e-12
2.79466e-12
2.59693e-12
2.45055e-12
2.34985e-12
2.28892e-12
2.26171e-12
2.26208e-12
2.28393e-12
2.32123e-12
2.36815e-12
2.41915e-12
2.46907e-12
2.51323e-12
2.54754e-12
2.56852e-12
2.57345e-12
2.56035e-12
2.52804e-12
2.47611e-12
2.40492e-12
2.31553e-12
2.20961e-12
2.08936e-12
1.95736e-12
1.81648e-12
1.66969e-12
1.52001e-12
1.37031e-12
1.22325e-12
1.08119e-12
9.46128e-13
8.19651e-13
7.0293e-13
5.96723e-13
5.01403e-13
4.16996e-13
3.43228e-13
2.79589e-13
2.25384e-13
1.79791e-13
1.41918e-13
1.10844e-13
8.56592e-14
6.54939e-14
4.95422e-14
3.70748e-14
2.74469e-14
2.01002e-14
1.45607e-14
1.04333e-14
7.39429e-15
5.18312e-15
3.59326e-15
2.46361e-15
1.67043e-15
1.12011e-15
7.42849e-16
4.87399e-16
3.16668e-16
2.04251e-16
1.31688e-16
8.63899e-17
6.01027e-17
4.78434e-17
8.83278e-15
8.87244e-15
9.07575e-15
9.44374e-15
9.98022e-15
1.06917e-14
1.15874e-14
1.26794e-14
1.39824e-14
1.55143e-14
1.72962e-14
1.93527e-14
2.17117e-14
2.44056e-14
2.74707e-14
3.09483e-14
3.48846e-14
3.93315e-14
4.43471e-14
4.99961e-14
5.63505e-14
6.34904e-14
7.15045e-14
8.04914e-14
9.05596e-14
1.01829e-13
1.14433e-13
1.28517e-13
1.4424e-13
1.61781e-13
1.81331e-13
2.03102e-13
2.27327e-13
2.54258e-13
2.8417e-13
3.17366e-13
3.54172e-13
3.94942e-13
4.40063e-13
4.89952e-13
5.45058e-13
6.05869e-13
6.7291e-13
7.46742e-13
8.27973e-13
9.17249e-13
1.01526e-12
1.12276e-12
1.24052e-12
1.36939e-12
1.51026e-12
1.66405e-12
1.83177e-12
2.01447e-12
2.21323e-12
2.4292e-12
2.66359e-12
2.91764e-12
3.19266e-12
3.48997e-12
3.81097e-12
4.15707e-12
4.52972e-12
4.9304e-12
5.36061e-12
5.82187e-12
6.31568e-12
6.84357e-12
7.40704e-12
8.00755e-12
8.64655e-12
9.32543e-12
1.00455e-11
1.08081e-11
1.16143e-11
1.24651e-11
1.33617e-11
1.43046e-11
1.52946e-11
1.63322e-11
1.74177e-11
1.85512e-11
1.97326e-11
2.09616e-11
2.22375e-11
2.35596e-11
2.49268e-11
2.63378e-11
2.7791e-11
2.92845e-11
3.0816e-11
3.23832e-11
3.39834e-11
3.56134e-11
3.72702e-11
3.89502e-11
4.06496e-11
4.23645e-11
4.40907e-11
4.58239e-11
4.75595e-11
4.9293e-11
5.10195e-11
5.27342e-11
5.44322e-11
5.61087e-11
5.77588e-11
5.93775e-11
6.09602e-11
6.25022e-11
6.39989e-11
6.5446e-11
6.68392e-11
6.81745e-11
6.94483e-11
7.0657e-11
7.17973e-11
7.28664e-11
7.38614e-11
7.47801e-11
7.56204e-11
7.63804e-11
7.70587e-11
7.76541e-11
7.81657e-11
7.85928e-11
7.89351e-11
7.91924e-11
7.93648e-11
7.94527e-11
7.94565e-11
7.93769e-11
7.92148e-11
7.89711e-11
7.86469e-11
7.82434e-11
7.77617e-11
7.72033e-11
7.65694e-11
7.58615e-11
7.50809e-11
7.42292e-11
7.33076e-11
7.23178e-11
7.1261e-11
7.01388e-11
6.89527e-11
6.77041e-11
6.63947e-11
6.5026e-11
6.35997e-11
6.21177e-11
6.05818e-11
5.89941e-11
5.7357e-11
5.56728e-11
5.39442e-11
5.21743e-11
5.03663e-11
4.85239e-11
4.66508e-11
4.47515e-11
4.28306e-11
4.08931e-11
3.89443e-11
3.699e-11
3.50363e-11
3.30893e-11
3.11558e-11
2.92425e-11
2.73562e-11
2.55039e-11
2.36924e-11
2.19287e-11
2.02191e-11
1.857e-11
1.69873e-11
1.54763e-11
1.40418e-11
1.26881e-11
1.14185e-11
1.02358e-11
9.14197e-12
8.138e-12
7.22422e-12
6.40006e-12
5.66421e-12
5.01454e-12
4.44826e-12
3.96188e-12
3.5513e-12
3.21189e-12
2.93853e-12
2.72569e-12
2.5675e-12
2.45783e-12
2.39031e-12
2.35849e-12
2.35585e-12
2.37592e-12
2.41234e-12
2.45901e-12
2.5101e-12
2.56023e-12
2.60452e-12
2.63871e-12
2.65921e-12
2.66318e-12
2.64858e-12
2.61419e-12
2.55961e-12
2.48522e-12
2.39211e-12
2.28203e-12
2.15723e-12
2.02041e-12
1.87452e-12
1.72263e-12
1.56783e-12
1.41311e-12
1.26119e-12
1.1145e-12
9.75085e-13
8.44579e-13
7.24178e-13
6.14656e-13
5.16387e-13
4.29389e-13
3.53376e-13
2.87814e-13
2.31982e-13
1.8503e-13
1.46035e-13
1.14046e-13
8.81232e-14
6.73703e-14
5.09562e-14
3.81291e-14
2.82247e-14
2.06679e-14
1.49706e-14
1.07261e-14
7.60119e-15
5.32774e-15
3.69325e-15
2.53198e-15
1.71668e-15
1.15104e-15
7.63321e-16
5.00801e-16
3.25358e-16
2.09844e-16
1.35287e-16
8.87457e-17
6.17385e-17
4.9145e-17
1.60347e-14
1.61074e-14
1.64782e-14
1.71487e-14
1.81262e-14
1.94226e-14
2.10547e-14
2.30445e-14
2.54195e-14
2.82122e-14
3.14615e-14
3.52122e-14
3.95162e-14
4.44323e-14
5.00278e-14
5.63782e-14
6.35686e-14
7.16946e-14
8.08629e-14
9.11926e-14
1.02816e-13
1.15882e-13
1.30552e-13
1.47009e-13
1.65452e-13
1.86103e-13
2.09207e-13
2.35033e-13
2.63875e-13
2.9606e-13
3.31944e-13
3.71918e-13
4.16408e-13
4.65882e-13
5.20848e-13
5.81862e-13
6.49525e-13
7.24493e-13
8.07475e-13
8.99239e-13
1.00061e-12
1.1125e-12
1.23585e-12
1.3717e-12
1.52117e-12
1.68545e-12
1.86579e-12
2.06355e-12
2.28018e-12
2.51719e-12
2.7762e-12
3.05891e-12
3.36713e-12
3.70272e-12
4.06766e-12
4.46402e-12
4.89394e-12
5.35963e-12
5.86339e-12
6.40758e-12
6.99462e-12
7.62699e-12
8.3072e-12
9.03777e-12
9.82127e-12
1.06602e-11
1.15572e-11
1.25146e-11
1.35349e-11
1.46205e-11
1.57736e-11
1.69963e-11
1.82905e-11
1.9658e-11
2.11004e-11
2.2619e-11
2.42148e-11
2.58886e-11
2.76407e-11
2.94714e-11
3.13801e-11
3.33663e-11
3.54287e-11
3.75658e-11
3.97754e-11
4.2055e-11
4.44015e-11
4.68113e-11
4.92804e-11
5.18042e-11
5.43775e-11
5.69948e-11
5.96501e-11
6.23368e-11
6.50479e-11
6.77763e-11
7.05142e-11
7.32535e-11
7.59862e-11
7.87036e-11
8.13972e-11
8.40583e-11
8.66781e-11
8.92478e-11
9.17588e-11
9.42026e-11
9.65709e-11
9.88556e-11
1.01049e-10
1.03144e-10
1.05133e-10
1.0701e-10
1.0877e-10
1.10406e-10
1.11914e-10
1.1329e-10
1.1453e-10
1.15632e-10
1.16592e-10
1.1741e-10
1.18085e-10
1.18615e-10
1.19001e-10
1.19245e-10
1.19346e-10
1.19307e-10
1.1913e-10
1.18818e-10
1.18374e-10
1.17801e-10
1.17102e-10
1.16282e-10
1.15345e-10
1.14294e-10
1.13134e-10
1.1187e-10
1.10505e-10
1.09044e-10
1.07492e-10
1.05852e-10
1.0413e-10
1.02328e-10
1.00452e-10
9.85045e-11
9.64898e-11
9.44114e-11
9.2273e-11
9.0078e-11
8.78297e-11
8.55315e-11
8.31867e-11
8.07985e-11
7.83703e-11
7.59055e-11
7.34075e-11
7.08799e-11
6.83264e-11
6.57511e-11
6.31581e-11
6.05518e-11
5.7937e-11
5.53187e-11
5.27022e-11
5.00931e-11
4.74974e-11
4.49214e-11
4.23714e-11
3.98542e-11
3.73767e-11
3.49459e-11
3.25687e-11
3.02523e-11
2.80035e-11
2.58289e-11
2.3735e-11
2.17277e-11
1.98124e-11
1.7994e-11
1.62768e-11
1.46641e-11
1.31587e-11
1.17624e-11
1.04762e-11
9.30007e-12
8.23325e-12
7.27405e-12
6.41997e-12
5.66772e-12
5.01327e-12
4.45193e-12
3.97842e-12
3.5869e-12
3.27112e-12
3.02442e-12
2.83986e-12
2.71024e-12
2.62825e-12
2.58647e-12
2.57753e-12
2.59414e-12
2.62918e-12
2.67587e-12
2.72777e-12
2.77894e-12
2.82405e-12
2.85844e-12
2.87819e-12
2.88024e-12
2.86238e-12
2.82332e-12
2.76263e-12
2.68074e-12
2.57885e-12
2.45885e-12
2.32319e-12
2.17478e-12
2.01679e-12
1.85253e-12
1.68534e-12
1.51839e-12
1.35461e-12
1.1966e-12
1.04653e-12
9.06143e-13
7.76703e-13
6.59023e-13
5.53488e-13
4.60102e-13
3.78543e-13
3.08227e-13
2.48369e-13
1.9805e-13
1.56274e-13
1.22013e-13
9.42582e-14
7.20451e-14
5.44808e-14
4.07585e-14
3.01654e-14
2.20851e-14
1.59944e-14
1.14577e-14
8.11839e-15
5.68941e-15
3.9434e-15
2.70311e-15
1.83246e-15
1.22853e-15
8.14608e-16
5.3439e-16
3.47141e-16
2.2387e-16
1.44315e-16
9.46579e-17
6.58452e-17
5.24107e-17
3.04858e-14
3.06257e-14
3.13339e-14
3.26139e-14
3.44793e-14
3.69532e-14
4.0068e-14
4.38662e-14
4.83999e-14
5.37324e-14
5.9938e-14
6.71031e-14
7.53271e-14
8.47238e-14
9.54221e-14
1.07567e-13
1.21324e-13
1.36876e-13
1.54428e-13
1.7421e-13
1.96479e-13
2.21517e-13
2.49642e-13
2.81202e-13
3.16585e-13
3.56218e-13
4.00572e-13
4.50167e-13
5.05575e-13
5.67424e-13
6.36403e-13
7.13267e-13
7.98841e-13
8.94028e-13
9.99811e-13
1.11726e-12
1.24754e-12
1.39192e-12
1.55177e-12
1.72857e-12
1.92392e-12
2.13954e-12
2.37729e-12
2.63917e-12
2.92731e-12
3.24399e-12
3.59166e-12
3.9729e-12
4.39046e-12
4.84728e-12
5.34642e-12
5.89113e-12
6.48484e-12
7.13111e-12
7.83367e-12
8.59642e-12
9.42338e-12
1.03187e-11
1.12867e-11
1.23318e-11
1.34583e-11
1.46709e-11
1.59742e-11
1.73728e-11
1.88711e-11
2.04739e-11
2.21854e-11
2.40101e-11
2.5952e-11
2.80152e-11
3.02032e-11
3.25195e-11
3.49669e-11
3.75481e-11
4.02651e-11
4.31194e-11
4.6112e-11
4.92431e-11
5.25124e-11
5.59186e-11
5.94597e-11
6.3133e-11
6.69347e-11
7.08601e-11
7.49036e-11
7.90587e-11
8.33178e-11
8.76725e-11
9.21131e-11
9.66292e-11
1.01209e-10
1.05842e-10
1.10513e-10
1.15209e-10
1.19915e-10
1.24616e-10
1.29297e-10
1.33942e-10
1.38533e-10
1.43055e-10
1.4749e-10
1.51823e-10
1.56036e-10
1.60114e-10
1.6404e-10
1.67801e-10
1.7138e-10
1.74766e-10
1.77944e-10
1.80904e-10
1.83634e-10
1.86126e-10
1.88371e-10
1.90362e-10
1.92094e-10
1.93562e-10
1.94764e-10
1.95698e-10
1.96363e-10
1.9676e-10
1.96893e-10
1.96764e-10
1.96378e-10
1.95741e-10
1.94858e-10
1.93737e-10
1.92387e-10
1.90817e-10
1.89034e-10
1.8705e-10
1.84875e-10
1.82518e-10
1.79991e-10
1.77303e-10
1.74467e-10
1.71491e-10
1.68387e-10
1.65164e-10
1.61834e-10
1.58404e-10
1.54885e-10
1.51285e-10
1.47613e-10
1.43876e-10
1.40083e-10
1.36241e-10
1.32357e-10
1.28437e-10
1.24487e-10
1.20514e-10
1.16522e-10
1.12518e-10
1.08506e-10
1.04492e-10
1.00481e-10
9.64781e-11
9.24876e-11
8.85151e-11
8.45658e-11
8.0645e-11
7.67584e-11
7.29117e-11
6.9111e-11
6.53623e-11
6.16723e-11
5.80475e-11
5.44947e-11
5.10209e-11
4.76331e-11
4.43385e-11
4.11438e-11
3.8056e-11
3.50816e-11
3.22269e-11
2.94977e-11
2.68991e-11
2.44357e-11
2.21115e-11
1.99294e-11
1.78917e-11
1.59996e-11
1.42533e-11
1.26521e-11
1.11943e-11
9.87733e-12
8.69752e-12
7.65042e-12
6.73075e-12
5.93248e-12
5.24892e-12
4.67282e-12
4.1964e-12
3.81151e-12
3.50966e-12
3.28214e-12
3.12007e-12
3.01452e-12
2.95657e-12
2.93741e-12
2.94842e-12
2.98127e-12
3.02805e-12
3.08132e-12
3.13427e-12
3.18079e-12
3.21556e-12
3.23419e-12
3.2332e-12
3.21013e-12
3.16354e-12
3.09298e-12
2.99895e-12
2.88282e-12
2.74673e-12
2.59344e-12
2.42619e-12
2.24854e-12
2.06418e-12
1.87682e-12
1.68997e-12
1.50689e-12
1.33043e-12
1.16301e-12
1.00653e-12
8.62359e-13
7.31383e-13
6.14004e-13
5.10203e-13
4.19601e-13
3.41532e-13
2.75108e-13
2.19297e-13
1.72982e-13
1.35016e-13
1.04272e-13
7.9676e-14
6.02347e-14
4.50512e-14
3.3334e-14
2.43989e-14
1.7666e-14
1.26524e-14
8.963e-15
6.28004e-15
4.35193e-15
2.9826e-15
2.02158e-15
1.35509e-15
8.98385e-16
5.89259e-16
3.82729e-16
2.46786e-16
1.59065e-16
1.04318e-16
7.25554e-17
5.77466e-17
5.80418e-14
5.83116e-14
5.96667e-14
6.2114e-14
6.56797e-14
7.04083e-14
7.63623e-14
8.36233e-14
9.22921e-14
1.0249e-13
1.1436e-13
1.2807e-13
1.43809e-13
1.61798e-13
1.82285e-13
2.05551e-13
2.31911e-13
2.61721e-13
2.95378e-13
3.33324e-13
3.76053e-13
4.24116e-13
4.78121e-13
5.38744e-13
6.06734e-13
6.82918e-13
7.68207e-13
8.63608e-13
9.70227e-13
1.08928e-12
1.2221e-12
1.37015e-12
1.53503e-12
1.71848e-12
1.92242e-12
2.14891e-12
2.40022e-12
2.67879e-12
2.98727e-12
3.32854e-12
3.70568e-12
4.12205e-12
4.58122e-12
5.08705e-12
5.64367e-12
6.25548e-12
6.92717e-12
7.66375e-12
8.47051e-12
9.35306e-12
1.03173e-11
1.13695e-11
1.25161e-11
1.3764e-11
1.51203e-11
1.65924e-11
1.81878e-11
1.99145e-11
2.17805e-11
2.3794e-11
2.59634e-11
2.82971e-11
3.08036e-11
3.34912e-11
3.63683e-11
3.94431e-11
4.27233e-11
4.62167e-11
4.99304e-11
5.38709e-11
5.80444e-11
6.2456e-11
6.71104e-11
7.20109e-11
7.71601e-11
8.25594e-11
8.82086e-11
9.41067e-11
1.00251e-10
1.06636e-10
1.13257e-10
1.20106e-10
1.27173e-10
1.34447e-10
1.41914e-10
1.4956e-10
1.57367e-10
1.65317e-10
1.73388e-10
1.81557e-10
1.89802e-10
1.98096e-10
2.06412e-10
2.1472e-10
2.22993e-10
2.31199e-10
2.39306e-10
2.47284e-10
2.551e-10
2.62723e-10
2.70121e-10
2.77263e-10
2.84118e-10
2.90658e-10
2.96855e-10
3.02683e-10
3.08116e-10
3.13133e-10
3.17714e-10
3.2184e-10
3.25496e-10
3.28669e-10
3.31349e-10
3.33529e-10
3.35205e-10
3.36373e-10
3.37036e-10
3.37197e-10
3.36861e-10
3.36037e-10
3.34736e-10
3.32971e-10
3.30757e-10
3.2811e-10
3.25048e-10
3.21592e-10
3.17761e-10
3.13577e-10
3.09062e-10
3.04239e-10
2.99131e-10
2.93761e-10
2.88152e-10
2.82326e-10
2.76307e-10
2.70115e-10
2.63772e-10
2.57298e-10
2.50713e-10
2.44035e-10
2.37282e-10
2.3047e-10
2.23615e-10
2.16732e-10
2.09834e-10
2.02933e-10
1.96042e-10
1.89171e-10
1.82331e-10
1.7553e-10
1.68776e-10
1.62078e-10
1.55444e-10
1.48879e-10
1.42391e-10
1.35985e-10
1.29669e-10
1.23447e-10
1.17325e-10
1.1131e-10
1.05407e-10
9.96222e-11
9.39616e-11
8.84314e-11
8.30379e-11
7.77875e-11
7.26867e-11
6.77419e-11
6.29597e-11
5.83463e-11
5.3908e-11
4.96506e-11
4.55795e-11
4.16998e-11
3.80157e-11
3.4531e-11
3.12484e-11
2.81698e-11
2.52962e-11
2.26274e-11
2.01622e-11
1.78983e-11
1.58322e-11
1.39594e-11
1.22744e-11
1.07704e-11
9.44004e-12
8.27497e-12
7.2661e-12
6.40374e-12
5.67764e-12
5.07714e-12
4.59127e-12
4.20883e-12
3.9185e-12
3.70893e-12
3.56882e-12
3.48703e-12
3.45269e-12
3.45525e-12
3.48461e-12
3.53122e-12
3.58623e-12
3.64152e-12
3.68988e-12
3.7251e-12
3.74201e-12
3.73659e-12
3.70602e-12
3.64863e-12
3.56394e-12
3.45256e-12
3.31609e-12
3.15703e-12
2.97857e-12
2.78445e-12
2.57875e-12
2.36573e-12
2.14959e-12
1.93438e-12
1.72379e-12
1.52106e-12
1.32891e-12
1.14949e-12
9.84333e-13
8.34417e-13
7.00168e-13
5.81533e-13
4.78053e-13
3.88943e-13
3.13171e-13
2.49541e-13
1.96764e-13
1.53523e-13
1.18523e-13
9.05356e-14
6.84227e-14
5.11596e-14
3.78426e-14
2.76913e-14
2.00445e-14
1.43522e-14
1.01646e-14
7.12032e-15
4.93313e-15
3.38021e-15
2.29061e-15
1.53513e-15
1.01756e-15
6.6731e-16
4.33351e-16
2.79382e-16
1.80046e-16
1.18059e-16
8.21002e-17
6.53365e-17
1.09365e-13
1.09881e-13
1.12448e-13
1.1708e-13
1.23828e-13
1.32775e-13
1.44042e-13
1.57784e-13
1.74192e-13
1.935e-13
2.15978e-13
2.41946e-13
2.71768e-13
3.05862e-13
3.44703e-13
3.88826e-13
4.38835e-13
4.95408e-13
5.59303e-13
6.31368e-13
7.12548e-13
8.03892e-13
9.06568e-13
1.02187e-12
1.15123e-12
1.29624e-12
1.45863e-12
1.64035e-12
1.8435e-12
2.07043e-12
2.32369e-12
2.60609e-12
2.92069e-12
3.27085e-12
3.66023e-12
4.09281e-12
4.57292e-12
5.10526e-12
5.69492e-12
6.34741e-12
7.06867e-12
7.86511e-12
8.74361e-12
9.71154e-12
1.07768e-11
1.19479e-11
1.32337e-11
1.46438e-11
1.61883e-11
1.7878e-11
1.97241e-11
2.17384e-11
2.39334e-11
2.63219e-11
2.89175e-11
3.1734e-11
3.47858e-11
3.80877e-11
4.16547e-11
4.55023e-11
4.96458e-11
5.41008e-11
5.88829e-11
6.40073e-11
6.94892e-11
7.5343e-11
8.15829e-11
8.82221e-11
9.52727e-11
1.02746e-10
1.10651e-10
1.18997e-10
1.2779e-10
1.37035e-10
1.46732e-10
1.56883e-10
1.67485e-10
1.78532e-10
1.90014e-10
2.01922e-10
2.14238e-10
2.26945e-10
2.40021e-10
2.53439e-10
2.67171e-10
2.81183e-10
2.95439e-10
3.09899e-10
3.24518e-10
3.3925e-10
3.54047e-10
3.68854e-10
3.83617e-10
3.98281e-10
4.12785e-10
4.27071e-10
4.41077e-10
4.54744e-10
4.68011e-10
4.80817e-10
4.93106e-10
5.0482e-10
5.15905e-10
5.26309e-10
5.35986e-10
5.4489e-10
5.52981e-10
5.60224e-10
5.66589e-10
5.72049e-10
5.76584e-10
5.8018e-10
5.82828e-10
5.84523e-10
5.85268e-10
5.85069e-10
5.8394e-10
5.81897e-10
5.78962e-10
5.75162e-10
5.70528e-10
5.65093e-10
5.58894e-10
5.51972e-10
5.4437e-10
5.36131e-10
5.27301e-10
5.17927e-10
5.08057e-10
4.97736e-10
4.87014e-10
4.75936e-10
4.64547e-10
4.52893e-10
4.41016e-10
4.28958e-10
4.16758e-10
4.04454e-10
3.9208e-10
3.79669e-10
3.67253e-10
3.5486e-10
3.42516e-10
3.30245e-10
3.18069e-10
3.06007e-10
2.94078e-10
2.82297e-10
2.70679e-10
2.59235e-10
2.47978e-10
2.36916e-10
2.26059e-10
2.15415e-10
2.04989e-10
1.94789e-10
1.84819e-10
1.75086e-10
1.65593e-10
1.56346e-10
1.47349e-10
1.38606e-10
1.30122e-10
1.21901e-10
1.13947e-10
1.06265e-10
9.88599e-11
9.17354e-11
8.48958e-11
7.83452e-11
7.20873e-11
6.61254e-11
6.04622e-11
5.50997e-11
5.00394e-11
4.52816e-11
4.08257e-11
3.66701e-11
3.2812e-11
2.92472e-11
2.59706e-11
2.29756e-11
2.02544e-11
1.7798e-11
1.55963e-11
1.36383e-11
1.19119e-11
1.04042e-11
9.10173e-12
7.99034e-12
7.05553e-12
6.28248e-12
5.65622e-12
5.1617e-12
4.78393e-12
4.50808e-12
4.31959e-12
4.20423e-12
4.14825e-12
4.13844e-12
4.16228e-12
4.20802e-12
4.26479e-12
4.32277e-12
4.37323e-12
4.4087e-12
4.42302e-12
4.41143e-12
4.37056e-12
4.29851e-12
4.19471e-12
4.05993e-12
3.8961e-12
3.70616e-12
3.4939e-12
3.26372e-12
3.02042e-12
2.76897e-12
2.5143e-12
2.2611e-12
2.01368e-12
1.77578e-12
1.55055e-12
1.34045e-12
1.14724e-12
9.7201e-13
8.15215e-13
6.7676e-13
5.56077e-13
4.52221e-13
3.63965e-13
2.89895e-13
2.28492e-13
1.7821e-13
1.37533e-13
1.05019e-13
7.9342e-14
5.93048e-14
4.3854e-14
3.20807e-14
2.32152e-14
1.66179e-14
1.17663e-14
8.24025e-15
5.7077e-15
3.91008e-15
2.64911e-15
1.77503e-15
1.17635e-15
7.71303e-16
5.00796e-16
3.22808e-16
2.07997e-16
1.36364e-16
9.48152e-17
7.54471e-17
2.03357e-13
2.04331e-13
2.09133e-13
2.17788e-13
2.30393e-13
2.47106e-13
2.68154e-13
2.93827e-13
3.24488e-13
3.60573e-13
4.02596e-13
4.51154e-13
5.06937e-13
5.7073e-13
6.43427e-13
7.2604e-13
8.19708e-13
9.25707e-13
1.04547e-12
1.1806e-12
1.33288e-12
1.50429e-12
1.69704e-12
1.91357e-12
2.15661e-12
2.42914e-12
2.73448e-12
3.07627e-12
3.45854e-12
3.88571e-12
4.36261e-12
4.89459e-12
5.48744e-12
6.14754e-12
6.88182e-12
7.69784e-12
8.60382e-12
9.60867e-12
1.07221e-11
1.19544e-11
1.33171e-11
1.48221e-11
1.64826e-11
1.83125e-11
2.03269e-11
2.25417e-11
2.49739e-11
2.76415e-11
3.05638e-11
3.37609e-11
3.72541e-11
4.10656e-11
4.52188e-11
4.97381e-11
5.46486e-11
5.99763e-11
6.57483e-11
7.19917e-11
7.87348e-11
8.60058e-11
9.38332e-11
1.02246e-10
1.11271e-10
1.20938e-10
1.31272e-10
1.42301e-10
1.54048e-10
1.66536e-10
1.79787e-10
1.93818e-10
2.08645e-10
2.2428e-10
2.40732e-10
2.58005e-10
2.76099e-10
2.95009e-10
3.14725e-10
3.3523e-10
3.56504e-10
3.78517e-10
4.01235e-10
4.24618e-10
4.48615e-10
4.73172e-10
4.98228e-10
5.23712e-10
5.49549e-10
5.75658e-10
6.01949e-10
6.28328e-10
6.54697e-10
6.80952e-10
7.06986e-10
7.32687e-10
7.57943e-10
7.8264e-10
8.06664e-10
8.299e-10
8.52237e-10
8.73566e-10
8.9378e-10
9.1278e-10
9.30469e-10
9.46761e-10
9.61574e-10
9.74836e-10
9.86485e-10
9.96466e-10
1.00474e-09
1.01127e-09
1.01603e-09
1.01902e-09
1.02023e-09
1.01968e-09
1.01738e-09
1.01338e-09
1.0077e-09
1.00041e-09
9.9155e-10
9.81196e-10
9.69419e-10
9.56297e-10
9.41915e-10
9.26358e-10
9.09719e-10
8.9209e-10
8.73564e-10
8.54237e-10
8.34202e-10
8.13552e-10
7.9238e-10
7.70772e-10
7.48816e-10
7.26593e-10
7.04181e-10
6.81655e-10
6.59084e-10
6.36533e-10
6.14061e-10
5.91725e-10
5.69575e-10
5.47655e-10
5.26008e-10
5.04669e-10
4.83671e-10
4.63042e-10
4.42806e-10
4.22984e-10
4.03592e-10
3.84646e-10
3.66157e-10
3.48135e-10
3.30585e-10
3.13515e-10
2.96927e-10
2.80824e-10
2.65208e-10
2.50079e-10
2.35437e-10
2.21282e-10
2.07612e-10
1.94428e-10
1.81728e-10
1.6951e-10
1.57774e-10
1.4652e-10
1.35744e-10
1.25448e-10
1.15629e-10
1.06285e-10
9.74158e-11
8.9018e-11
8.10888e-11
7.36247e-11
6.66211e-11
6.00724e-11
5.39719e-11
4.83117e-11
4.30827e-11
3.82743e-11
3.38747e-11
2.98706e-11
2.62476e-11
2.299e-11
2.00808e-11
1.75022e-11
1.52355e-11
1.32613e-11
1.15596e-11
1.01101e-11
8.89224e-12
7.88533e-12
7.06883e-12
6.42238e-12
5.92595e-12
5.55996e-12
5.30537e-12
5.14381e-12
5.05764e-12
5.03011e-12
5.04543e-12
5.0889e-12
5.14704e-12
5.20772e-12
5.26024e-12
5.29547e-12
5.30595e-12
5.2859e-12
5.23133e-12
5.13993e-12
5.01109e-12
4.84575e-12
4.64625e-12
4.41615e-12
4.15999e-12
3.88302e-12
3.59097e-12
3.28974e-12
2.98518e-12
2.68283e-12
2.38777e-12
2.10442e-12
1.83645e-12
1.58672e-12
1.35728e-12
1.14937e-12
9.63485e-13
7.99463e-13
6.56594e-13
5.33726e-13
4.29379e-13
3.41854e-13
2.69339e-13
2.09988e-13
1.61997e-13
1.23657e-13
9.33912e-14
6.97834e-14
5.15866e-14
3.77261e-14
2.72928e-14
1.95315e-14
1.38256e-14
9.68006e-15
6.70342e-15
4.59117e-15
3.10989e-15
2.08335e-15
1.38042e-15
9.04937e-16
5.87459e-16
3.78607e-16
2.43909e-16
1.59883e-16
1.1115e-16
8.84359e-17
3.72905e-13
3.74721e-13
3.83583e-13
3.9954e-13
4.2277e-13
4.53569e-13
4.92357e-13
5.39676e-13
5.962e-13
6.62736e-13
7.40241e-13
8.29825e-13
9.32767e-13
1.05053e-12
1.18478e-12
1.3374e-12
1.5105e-12
1.70646e-12
1.92796e-12
2.17797e-12
2.45983e-12
2.77723e-12
3.13429e-12
3.53559e-12
3.98617e-12
4.49165e-12
5.05822e-12
5.69268e-12
6.40258e-12
7.19617e-12
8.08253e-12
9.07162e-12
1.01743e-11
1.14026e-11
1.27694e-11
1.42889e-11
1.59766e-11
1.7849e-11
1.99245e-11
2.22224e-11
2.4764e-11
2.75721e-11
3.0671e-11
3.40871e-11
3.78484e-11
4.19848e-11
4.65281e-11
5.15122e-11
5.69728e-11
6.29477e-11
6.94765e-11
7.66009e-11
8.43642e-11
9.28118e-11
1.0199e-10
1.11948e-10
1.22735e-10
1.34402e-10
1.46999e-10
1.6058e-10
1.75196e-10
1.90898e-10
2.07739e-10
2.25768e-10
2.45033e-10
2.6558e-10
2.87451e-10
3.10687e-10
3.35321e-10
3.61384e-10
3.889e-10
4.17885e-10
4.4835e-10
4.80296e-10
5.13717e-10
5.48594e-10
5.84901e-10
6.22599e-10
6.61638e-10
7.01956e-10
7.43476e-10
7.86113e-10
8.29764e-10
8.74315e-10
9.19639e-10
9.65598e-10
1.01204e-09
1.0588e-09
1.1057e-09
1.15256e-09
1.19918e-09
1.24537e-09
1.29092e-09
1.33562e-09
1.37925e-09
1.4216e-09
1.46246e-09
1.50162e-09
1.53888e-09
1.57403e-09
1.6069e-09
1.6373e-09
1.66507e-09
1.69007e-09
1.71216e-09
1.73123e-09
1.74719e-09
1.75996e-09
1.76948e-09
1.77573e-09
1.77869e-09
1.77837e-09
1.77481e-09
1.76804e-09
1.75815e-09
1.74522e-09
1.72935e-09
1.71068e-09
1.68933e-09
1.66544e-09
1.63919e-09
1.61074e-09
1.58025e-09
1.54792e-09
1.51393e-09
1.47845e-09
1.44167e-09
1.40378e-09
1.36496e-09
1.32537e-09
1.2852e-09
1.24459e-09
1.20371e-09
1.16269e-09
1.12169e-09
1.08082e-09
1.04019e-09
9.99932e-10
9.60126e-10
9.20864e-10
8.82223e-10
8.44274e-10
8.07074e-10
7.70675e-10
7.3512e-10
7.00445e-10
6.66677e-10
6.33839e-10
6.01946e-10
5.71009e-10
5.41036e-10
5.12026e-10
4.83981e-10
4.56894e-10
4.30759e-10
4.05567e-10
3.81307e-10
3.57968e-10
3.35537e-10
3.14e-10
2.93345e-10
2.73556e-10
2.54622e-10
2.36527e-10
2.19259e-10
2.02805e-10
1.87151e-10
1.72285e-10
1.58195e-10
1.44867e-10
1.32288e-10
1.20447e-10
1.09328e-10
9.89175e-11
8.92008e-11
8.01615e-11
7.17824e-11
6.40453e-11
5.69305e-11
5.0417e-11
4.44825e-11
3.91036e-11
3.42553e-11
2.99119e-11
2.60464e-11
2.2631e-11
1.96374e-11
1.70367e-11
1.48e-11
1.28979e-11
1.13016e-11
9.98224e-12
8.91166e-12
8.06223e-12
7.40708e-12
6.92021e-12
6.57661e-12
6.35233e-12
6.22462e-12
6.17202e-12
6.17446e-12
6.21338e-12
6.27189e-12
6.33485e-12
6.38899e-12
6.42307e-12
6.42791e-12
6.39649e-12
6.32393e-12
6.20747e-12
6.04639e-12
5.84188e-12
5.5968e-12
5.31547e-12
5.00339e-12
4.66691e-12
4.3129e-12
3.94847e-12
3.58061e-12
3.21596e-12
2.86055e-12
2.51963e-12
2.19755e-12
1.8977e-12
1.62244e-12
1.37322e-12
1.15057e-12
9.54251e-13
7.83367e-13
6.36499e-13
5.11844e-13
4.07345e-13
3.20813e-13
2.50027e-13
1.92816e-13
1.47131e-13
1.11083e-13
8.29769e-14
6.13212e-14
4.48321e-14
3.24246e-14
2.31978e-14
1.64167e-14
1.14915e-14
7.956e-15
5.44787e-15
3.68943e-15
2.4711e-15
1.63703e-15
1.07297e-15
6.96425e-16
4.4876e-16
2.89058e-16
1.89448e-16
1.31684e-16
1.04763e-16
6.74289e-13
6.77632e-13
6.93766e-13
7.22786e-13
7.65017e-13
8.21005e-13
8.91518e-13
9.77552e-13
1.08034e-12
1.20136e-12
1.34238e-12
1.50542e-12
1.69283e-12
1.9073e-12
2.15187e-12
2.43002e-12
2.74562e-12
3.10305e-12
3.50722e-12
3.96361e-12
4.47834e-12
5.05824e-12
5.71089e-12
6.4447e-12
7.26901e-12
8.19415e-12
9.23154e-12
1.03938e-11
1.16947e-11
1.31497e-11
1.47755e-11
1.65904e-11
1.86147e-11
2.08705e-11
2.33816e-11
2.61745e-11
2.92775e-11
3.27217e-11
3.65407e-11
4.07706e-11
4.54506e-11
5.0623e-11
5.63331e-11
6.26293e-11
6.95638e-11
7.71918e-11
8.55723e-11
9.4768e-11
1.04845e-10
1.15873e-10
1.27925e-10
1.41078e-10
1.55412e-10
1.71011e-10
1.8796e-10
2.06348e-10
2.26266e-10
2.47807e-10
2.71064e-10
2.96132e-10
3.23106e-10
3.52078e-10
3.83141e-10
4.16383e-10
4.51889e-10
4.89741e-10
5.30011e-10
5.72767e-10
6.18067e-10
6.65957e-10
7.16475e-10
7.69644e-10
8.25471e-10
8.83948e-10
9.4505e-10
1.00873e-09
1.07493e-09
1.14356e-09
1.21452e-09
1.28766e-09
1.36284e-09
1.43988e-09
1.51856e-09
1.59867e-09
1.67995e-09
1.76213e-09
1.8449e-09
1.92795e-09
2.01093e-09
2.09351e-09
2.1753e-09
2.25593e-09
2.335e-09
2.41212e-09
2.4869e-09
2.55895e-09
2.62786e-09
2.69327e-09
2.75481e-09
2.81213e-09
2.8649e-09
2.91283e-09
2.95564e-09
2.99309e-09
3.02496e-09
3.0511e-09
3.07136e-09
3.08565e-09
3.09392e-09
3.09615e-09
3.09238e-09
3.08267e-09
3.06713e-09
3.0459e-09
3.01915e-09
2.98711e-09
2.95002e-09
2.90813e-09
2.86175e-09
2.81117e-09
2.75674e-09
2.69879e-09
2.63766e-09
2.57371e-09
2.50729e-09
2.43876e-09
2.36847e-09
2.29675e-09
2.22393e-09
2.15033e-09
2.07626e-09
2.00199e-09
1.92781e-09
1.85395e-09
1.78065e-09
1.70811e-09
1.63654e-09
1.56609e-09
1.49693e-09
1.42918e-09
1.36296e-09
1.29836e-09
1.23547e-09
1.17433e-09
1.11502e-09
1.05756e-09
1.00197e-09
9.48268e-10
8.96459e-10
8.46535e-10
7.98483e-10
7.52284e-10
7.07912e-10
6.65338e-10
6.24528e-10
5.85446e-10
5.48055e-10
5.12315e-10
4.78186e-10
4.45626e-10
4.14596e-10
3.85056e-10
3.56964e-10
3.30284e-10
3.04977e-10
2.81006e-10
2.58335e-10
2.3693e-10
2.16756e-10
1.9778e-10
1.7997e-10
1.63291e-10
1.47712e-10
1.332e-10
1.19721e-10
1.07242e-10
9.57286e-11
8.51447e-11
7.54543e-11
6.66201e-11
5.86035e-11
5.13653e-11
4.48651e-11
3.90619e-11
3.3914e-11
2.93793e-11
2.54156e-11
2.19807e-11
1.90326e-11
1.65299e-11
1.44319e-11
1.26988e-11
1.12918e-11
1.01735e-11
9.30793e-12
8.6604e-12
8.19796e-12
7.88933e-12
7.705e-12
7.61735e-12
7.60074e-12
7.63162e-12
7.68865e-12
7.75284e-12
7.80764e-12
7.83909e-12
7.83584e-12
7.78923e-12
7.69331e-12
7.54473e-12
7.34263e-12
7.0885e-12
6.78585e-12
6.43997e-12
6.05755e-12
5.6463e-12
5.21456e-12
4.7709e-12
4.32376e-12
3.88111e-12
3.45021e-12
3.03733e-12
2.64765e-12
2.2852e-12
1.95276e-12
1.652e-12
1.3835e-12
1.14692e-12
9.41125e-13
7.64359e-13
6.14415e-13
4.88786e-13
3.8481e-13
2.99795e-13
2.31117e-13
1.76298e-13
1.33062e-13
9.93644e-14
7.34104e-14
5.36556e-14
3.87958e-14
2.77489e-14
1.96327e-14
1.37395e-14
9.51027e-15
6.5108e-15
4.40839e-15
2.9521e-15
1.95533e-15
1.28138e-15
8.31559e-16
5.35755e-16
3.45042e-16
2.26106e-16
1.57144e-16
1.25006e-16
1.20229e-12
1.20836e-12
1.23734e-12
1.28941e-12
1.36514e-12
1.46554e-12
1.592e-12
1.7463e-12
1.9307e-12
2.14786e-12
2.40096e-12
2.69368e-12
3.03028e-12
3.41561e-12
3.8552e-12
4.35532e-12
4.92302e-12
5.56624e-12
6.29388e-12
7.1159e-12
8.04342e-12
9.08883e-12
1.02659e-11
1.159e-11
1.30781e-11
1.47489e-11
1.66234e-11
1.87244e-11
2.10773e-11
2.37099e-11
2.66529e-11
2.99398e-11
3.36076e-11
3.76964e-11
4.22503e-11
4.73172e-11
5.29492e-11
5.9203e-11
6.61399e-11
7.38265e-11
8.23343e-11
9.17406e-11
1.02128e-10
1.13586e-10
1.2621e-10
1.40101e-10
1.55366e-10
1.72121e-10
1.90486e-10
2.10588e-10
2.32563e-10
2.56549e-10
2.82693e-10
3.11147e-10
3.42067e-10
3.75615e-10
4.11956e-10
4.51257e-10
4.93687e-10
5.39419e-10
5.88619e-10
6.41457e-10
6.98095e-10
7.58691e-10
8.23394e-10
8.92345e-10
9.6567e-10
1.04348e-09
1.12588e-09
1.21293e-09
1.3047e-09
1.4012e-09
1.50244e-09
1.60838e-09
1.71896e-09
1.83408e-09
1.9536e-09
2.07733e-09
2.20505e-09
2.33651e-09
2.47137e-09
2.60929e-09
2.74987e-09
2.89266e-09
3.03716e-09
3.18285e-09
3.32915e-09
3.47546e-09
3.62114e-09
3.7655e-09
3.90787e-09
4.04753e-09
4.18376e-09
4.31583e-09
4.44302e-09
4.5646e-09
4.67989e-09
4.7882e-09
4.88888e-09
4.98134e-09
5.06502e-09
5.1394e-09
5.20403e-09
5.25853e-09
5.30258e-09
5.33594e-09
5.35842e-09
5.36994e-09
5.37048e-09
5.36009e-09
5.33891e-09
5.30715e-09
5.26508e-09
5.21306e-09
5.15148e-09
5.08081e-09
5.00157e-09
4.91431e-09
4.81962e-09
4.71814e-09
4.6105e-09
4.49736e-09
4.3794e-09
4.25729e-09
4.13168e-09
4.00325e-09
3.87262e-09
3.7404e-09
3.6072e-09
3.47356e-09
3.34002e-09
3.20707e-09
3.07517e-09
2.94472e-09
2.8161e-09
2.68966e-09
2.56569e-09
2.44445e-09
2.32617e-09
2.21102e-09
2.09918e-09
1.99075e-09
1.88583e-09
1.78449e-09
1.68677e-09
1.59268e-09