/*--------------------------------*- C++ -*----------------------------------*\
| =========                 |                                                 |
| \\      /  F ield         | OpenFOAM: The Open Source CFD Toolbox           |
|  \\    /   O peration     | Version:  v2012                                 |
|   \\  /    A nd           | Website:  www.openfoam.com                      |
|    \\/     M anipulation  |                                                 |
\*---------------------------------------------------------------------------*/
FoamFile
{
    version     2.0;
    format      ascii;
    class       volScalarField;
    location    "0";
    object      p;
}
// * * * * * * * * * * * * * * * * * * * * * * * * * * * * * * * * * * * * * //

dimensions      [0 2 -2 0 0 0 0];


internalField   nonuniform List<scalar> 
4000
(
-3.84181e-13
-3.82041e-13
-3.84819e-13
-3.79688e-13
-3.75474e-13
-3.7434e-13
-3.77864e-13
-3.75982e-13
-3.8283e-13
-3.88854e-13
-3.73542e-13
-3.74003e-13
-3.78968e-13
-3.88698e-13
-3.925e-13
-3.82668e-13
-3.79991e-13
-3.81419e-13
-3.75522e-13
-3.70548e-13
-3.75987e-13
-3.76498e-13
-3.72569e-13
-3.76977e-13
-3.8024e-13
-3.8305e-13
-3.75745e-13
-3.71931e-13
-3.74908e-13
-3.58681e-13
-3.68204e-13
-3.7057e-13
-3.54557e-13
-3.43785e-13
-3.3981e-13
-3.43578e-13
-3.42112e-13
-3.45318e-13
-3.55063e-13
-3.48764e-13
-3.41055e-13
-3.34868e-13
-3.31642e-13
-3.24017e-13
-3.26495e-13
-3.25054e-13
-3.2817e-13
-3.18491e-13
-3.08317e-13
-3.05715e-13
-2.95317e-13
-2.91717e-13
-2.87758e-13
-2.88248e-13
-2.81747e-13
-2.84223e-13
-2.75206e-13
-2.69767e-13
-2.652e-13
-2.57319e-13
-2.52353e-13
-2.53976e-13
-2.48083e-13
-2.40174e-13
-2.37827e-13
-2.35375e-13
-2.32095e-13
-2.29882e-13
-2.27801e-13
-2.33264e-13
-2.22572e-13
-2.13079e-13
-2.151e-13
-2.09949e-13
-2.08232e-13
-1.99668e-13
-1.87419e-13
-1.69441e-13
-1.62991e-13
-1.66975e-13
-1.6509e-13
-1.55383e-13
-1.37683e-13
-1.35645e-13
-1.32678e-13
-1.16388e-13
-1.09032e-13
-1.06261e-13
-8.8219e-14
-7.25374e-14
-6.58822e-14
-5.69755e-14
-4.70678e-14
-3.71257e-14
-3.04072e-14
-2.10534e-14
-1.51235e-14
-1.18717e-14
-8.28893e-15
-2.43642e-15
-3.85344e-13
-3.82701e-13
-3.79012e-13
-3.80374e-13
-3.78718e-13
-3.77831e-13
-3.76873e-13
-3.71805e-13
-3.77253e-13
-3.87596e-13
-3.76509e-13
-3.81523e-13
-3.82711e-13
-3.86115e-13
-3.88353e-13
-3.82618e-13
-3.79175e-13
-3.76675e-13
-3.75194e-13
-3.73979e-13
-3.72538e-13
-3.75172e-13
-3.80456e-13
-3.75613e-13
-3.789e-13
-3.82659e-13
-3.80225e-13
-3.70398e-13
-3.74057e-13
-3.64526e-13
-3.66155e-13
-3.63103e-13
-3.55333e-13
-3.45978e-13
-3.45352e-13
-3.44785e-13
-3.41381e-13
-3.45356e-13
-3.44929e-13
-3.4463e-13
-3.41578e-13
-3.39793e-13
-3.36413e-13
-3.26145e-13
-3.2425e-13
-3.19774e-13
-3.27986e-13
-3.19849e-13
-3.08996e-13
-3.06818e-13
-3.01346e-13
-2.90609e-13
-2.84874e-13
-2.86855e-13
-2.84063e-13
-2.78908e-13
-2.75369e-13
-2.72563e-13
-2.67644e-13
-2.60089e-13
-2.50424e-13
-2.52009e-13
-2.46777e-13
-2.37939e-13
-2.36674e-13
-2.35863e-13
-2.30708e-13
-2.31911e-13
-2.30796e-13
-2.2874e-13
-2.21829e-13
-2.13968e-13
-2.1813e-13
-2.0817e-13
-2.06759e-13
-1.94938e-13
-1.88183e-13
-1.73151e-13
-1.71946e-13
-1.6303e-13
-1.59329e-13
-1.56325e-13
-1.41524e-13
-1.34863e-13
-1.31307e-13
-1.2268e-13
-1.13591e-13
-1.00984e-13
-9.14767e-14
-7.39437e-14
-6.06654e-14
-5.47886e-14
-4.35338e-14
-3.72747e-14
-2.60187e-14
-2.4054e-14
-1.62779e-14
-1.49968e-14
-6.74979e-15
-1.89166e-15
-3.87942e-13
-3.87025e-13
-3.81647e-13
-3.78364e-13
-3.7523e-13
-3.76469e-13
-3.75922e-13
-3.75294e-13
-3.7903e-13
-3.85099e-13
-3.7853e-13
-3.82897e-13
-3.85054e-13
-3.81609e-13
-3.86945e-13
-3.81862e-13
-3.80382e-13
-3.75458e-13
-3.77115e-13
-3.74825e-13
-3.80735e-13
-3.76553e-13
-3.74049e-13
-3.71894e-13
-3.77096e-13
-3.82041e-13
-3.80257e-13
-3.70708e-13
-3.66763e-13
-3.67768e-13
-3.66705e-13
-3.61406e-13
-3.54843e-13
-3.44677e-13
-3.44062e-13
-3.43412e-13
-3.449e-13
-3.46321e-13
-3.45985e-13
-3.46602e-13
-3.43294e-13
-3.42386e-13
-3.36598e-13
-3.27348e-13
-3.16444e-13
-3.15648e-13
-3.27093e-13
-3.25354e-13
-3.1151e-13
-3.08734e-13
-2.97306e-13
-2.90261e-13
-2.85566e-13
-2.91695e-13
-2.84158e-13
-2.77128e-13
-2.7598e-13
-2.68265e-13
-2.62966e-13
-2.60038e-13
-2.55067e-13
-2.55464e-13
-2.51094e-13
-2.42254e-13
-2.36112e-13
-2.33361e-13
-2.29381e-13
-2.26464e-13
-2.28711e-13
-2.27599e-13
-2.23053e-13
-2.20569e-13
-2.18124e-13
-2.08619e-13
-2.06795e-13
-1.92534e-13
-1.87406e-13
-1.76485e-13
-1.69025e-13
-1.6454e-13
-1.55513e-13
-1.5799e-13
-1.46293e-13
-1.36333e-13
-1.31098e-13
-1.19351e-13
-1.06905e-13
-1.04023e-13
-8.8031e-14
-7.48001e-14
-6.02997e-14
-5.21515e-14
-4.49229e-14
-3.7705e-14
-2.97459e-14
-2.63689e-14
-1.80961e-14
-1.3427e-14
-7.35872e-15
-4.62258e-15
-3.87168e-13
-3.88707e-13
-3.78478e-13
-3.82083e-13
-3.74553e-13
-3.81516e-13
-3.78866e-13
-3.7954e-13
-3.77027e-13
-3.79299e-13
-3.7932e-13
-3.8347e-13
-3.8873e-13
-3.82787e-13
-3.80367e-13
-3.74192e-13
-3.80405e-13
-3.81474e-13
-3.80875e-13
-3.75615e-13
-3.76462e-13
-3.75703e-13
-3.74197e-13
-3.76212e-13
-3.76451e-13
-3.8066e-13
-3.8356e-13
-3.69019e-13
-3.64244e-13
-3.67374e-13
-3.66257e-13
-3.59776e-13
-3.58346e-13
-3.50994e-13
-3.45234e-13
-3.4434e-13
-3.51078e-13
-3.45061e-13
-3.38511e-13
-3.41008e-13
-3.4093e-13
-3.40389e-13
-3.34817e-13
-3.29928e-13
-3.20193e-13
-3.1925e-13
-3.2168e-13
-3.15466e-13
-3.09699e-13
-3.15024e-13
-3.02338e-13
-2.99264e-13
-2.88322e-13
-2.87602e-13
-2.8194e-13
-2.79754e-13
-2.74717e-13
-2.66728e-13
-2.6365e-13
-2.61813e-13
-2.5778e-13
-2.55498e-13
-2.46607e-13
-2.43614e-13
-2.38211e-13
-2.34702e-13
-2.30839e-13
-2.28295e-13
-2.26281e-13
-2.23122e-13
-2.1576e-13
-2.1586e-13
-2.17907e-13
-2.09312e-13
-2.04627e-13
-1.94141e-13
-1.84998e-13
-1.71871e-13
-1.69944e-13
-1.61491e-13
-1.63595e-13
-1.52978e-13
-1.46176e-13
-1.41861e-13
-1.33607e-13
-1.21605e-13
-1.13261e-13
-1.01844e-13
-8.85852e-14
-7.30274e-14
-5.96673e-14
-5.20874e-14
-4.47728e-14
-3.58444e-14
-3.15514e-14
-2.46695e-14
-1.56085e-14
-1.85405e-14
-6.86444e-15
-3.12702e-15
-3.85557e-13
-3.85769e-13
-3.82063e-13
-3.83305e-13
-3.77899e-13
-3.79001e-13
-3.81818e-13
-3.80125e-13
-3.79175e-13
-3.81541e-13
-3.83954e-13
-3.84381e-13
-3.84582e-13
-3.80471e-13
-3.80816e-13
-3.78099e-13
-3.8007e-13
-3.76855e-13
-3.77315e-13
-3.83039e-13
-3.76143e-13
-3.77423e-13
-3.7746e-13
-3.74305e-13
-3.72842e-13
-3.76696e-13
-3.76816e-13
-3.72428e-13
-3.65537e-13
-3.67618e-13
-3.6394e-13
-3.60724e-13
-3.5338e-13
-3.51602e-13
-3.48907e-13
-3.49366e-13
-3.44668e-13
-3.43875e-13
-3.4878e-13
-3.4159e-13
-3.38715e-13
-3.34964e-13
-3.33e-13
-3.30391e-13
-3.2461e-13
-3.20184e-13
-3.19458e-13
-3.18931e-13
-3.10553e-13
-3.09989e-13
-3.03981e-13
-2.94797e-13
-2.90174e-13
-2.87715e-13
-2.82293e-13
-2.81338e-13
-2.73254e-13
-2.68773e-13
-2.67173e-13
-2.62234e-13
-2.60862e-13
-2.55407e-13
-2.48028e-13
-2.42389e-13
-2.35857e-13
-2.32705e-13
-2.28204e-13
-2.30356e-13
-2.28455e-13
-2.24109e-13
-2.1628e-13
-2.14643e-13
-2.19227e-13
-2.14045e-13
-2.09644e-13
-1.92998e-13
-1.8241e-13
-1.73135e-13
-1.69972e-13
-1.64375e-13
-1.57486e-13
-1.50456e-13
-1.52321e-13
-1.42151e-13
-1.31175e-13
-1.21567e-13
-1.13607e-13
-9.78929e-14
-8.94302e-14
-7.09752e-14
-6.44165e-14
-5.14972e-14
-4.30595e-14
-3.37046e-14
-2.93975e-14
-2.37967e-14
-1.77243e-14
-1.82671e-14
-6.63651e-15
-2.98249e-15
-3.91574e-13
-3.83182e-13
-3.81766e-13
-3.88562e-13
-3.76675e-13
-3.75016e-13
-3.75742e-13
-3.79045e-13
-3.8558e-13
-3.8784e-13
-3.84965e-13
-3.83837e-13
-3.85755e-13
-3.85607e-13
-3.81804e-13
-3.76008e-13
-3.75651e-13
-3.75756e-13
-3.76597e-13
-3.79731e-13
-3.79225e-13
-3.81e-13
-3.84022e-13
-3.76197e-13
-3.72947e-13
-3.73503e-13
-3.75888e-13
-3.68823e-13
-3.64275e-13
-3.64196e-13
-3.59728e-13
-3.62038e-13
-3.60198e-13
-3.53464e-13
-3.48492e-13
-3.45995e-13
-3.45339e-13
-3.47619e-13
-3.51083e-13
-3.41014e-13
-3.34265e-13
-3.34527e-13
-3.29714e-13
-3.28855e-13
-3.23517e-13
-3.23659e-13
-3.1961e-13
-3.17016e-13
-3.14125e-13
-3.1433e-13
-3.05425e-13
-2.96378e-13
-2.91181e-13
-2.908e-13
-2.84122e-13
-2.81907e-13
-2.75166e-13
-2.69143e-13
-2.66198e-13
-2.60601e-13
-2.60691e-13
-2.55864e-13
-2.47073e-13
-2.43178e-13
-2.43192e-13
-2.39216e-13
-2.29612e-13
-2.31481e-13
-2.2932e-13
-2.23669e-13
-2.17535e-13
-2.1488e-13
-2.16668e-13
-2.10532e-13
-2.05757e-13
-1.94337e-13
-1.82586e-13
-1.77553e-13
-1.74521e-13
-1.67035e-13
-1.57711e-13
-1.4727e-13
-1.50968e-13
-1.44927e-13
-1.32948e-13
-1.2037e-13
-1.10946e-13
-1.01028e-13
-8.93923e-14
-7.73621e-14
-6.34433e-14
-5.00655e-14
-4.2126e-14
-3.36322e-14
-2.81649e-14
-2.09302e-14
-2.03712e-14
-2.31532e-14
-7.71645e-15
-2.08703e-16
-3.86664e-13
-3.87828e-13
-3.79582e-13
-3.82002e-13
-3.79817e-13
-3.75657e-13
-3.75894e-13
-3.8042e-13
-3.86111e-13
-3.89442e-13
-3.92606e-13
-3.85995e-13
-3.79411e-13
-3.82367e-13
-3.82002e-13
-3.75467e-13
-3.75324e-13
-3.79125e-13
-3.8273e-13
-3.84526e-13
-3.86091e-13
-3.8184e-13
-3.74743e-13
-3.72519e-13
-3.69897e-13
-3.66195e-13
-3.75787e-13
-3.69543e-13
-3.6608e-13
-3.64319e-13
-3.57816e-13
-3.60633e-13
-3.61908e-13
-3.60546e-13
-3.50773e-13
-3.51132e-13
-3.49322e-13
-3.36925e-13
-3.39107e-13
-3.41816e-13
-3.4486e-13
-3.42218e-13
-3.34716e-13
-3.32546e-13
-3.21852e-13
-3.19485e-13
-3.1509e-13
-3.10547e-13
-3.14821e-13
-3.1577e-13
-3.07176e-13
-2.95732e-13
-2.91802e-13
-2.91314e-13
-2.89363e-13
-2.8046e-13
-2.7977e-13
-2.70506e-13
-2.67617e-13
-2.58383e-13
-2.596e-13
-2.57889e-13
-2.46661e-13
-2.45233e-13
-2.47891e-13
-2.43383e-13
-2.37228e-13
-2.3916e-13
-2.35109e-13
-2.24886e-13
-2.10981e-13
-2.14972e-13
-2.13117e-13
-2.06732e-13
-2.0259e-13
-1.96269e-13
-1.87133e-13
-1.80413e-13
-1.74432e-13
-1.67703e-13
-1.58143e-13
-1.5121e-13
-1.47872e-13
-1.3863e-13
-1.29872e-13
-1.21908e-13
-1.14508e-13
-9.94047e-14
-8.87366e-14
-8.0196e-14
-6.40576e-14
-5.07223e-14
-3.86815e-14
-3.59305e-14
-2.89647e-14
-2.58684e-14
-2.22657e-14
-1.98694e-14
-9.45968e-15
-1.32079e-15
-3.84994e-13
-3.88851e-13
-3.83825e-13
-3.82115e-13
-3.74211e-13
-3.73654e-13
-3.77298e-13
-3.76174e-13
-3.8218e-13
-3.90565e-13
-3.92114e-13
-3.89557e-13
-3.86528e-13
-3.82438e-13
-3.81739e-13
-3.74126e-13
-3.77147e-13
-3.8108e-13
-3.89089e-13
-3.88053e-13
-3.82711e-13
-3.77583e-13
-3.6942e-13
-3.70639e-13
-3.77279e-13
-3.7655e-13
-3.7565e-13
-3.69435e-13
-3.6726e-13
-3.70546e-13
-3.55357e-13
-3.56668e-13
-3.51598e-13
-3.52991e-13
-3.49179e-13
-3.57754e-13
-3.50389e-13
-3.45267e-13
-3.44982e-13
-3.47353e-13
-3.45923e-13
-3.35459e-13
-3.28255e-13
-3.28846e-13
-3.15472e-13
-3.11707e-13
-3.21017e-13
-3.28372e-13
-3.18638e-13
-3.09103e-13
-2.98006e-13
-2.95438e-13
-2.91631e-13
-2.94757e-13
-2.85044e-13
-2.84196e-13
-2.80371e-13
-2.71568e-13
-2.64519e-13
-2.62928e-13
-2.63838e-13
-2.56674e-13
-2.48817e-13
-2.45471e-13
-2.48874e-13
-2.41026e-13
-2.37436e-13
-2.39022e-13
-2.26485e-13
-2.21405e-13
-2.19757e-13
-2.20191e-13
-2.11839e-13
-2.11196e-13
-2.07395e-13
-1.99716e-13
-1.87356e-13
-1.79962e-13
-1.71168e-13
-1.69642e-13
-1.5823e-13
-1.48438e-13
-1.47535e-13
-1.41549e-13
-1.35917e-13
-1.24307e-13
-1.13529e-13
-9.84849e-14
-8.76786e-14
-7.60498e-14
-6.98307e-14
-5.89386e-14
-4.18452e-14
-3.25743e-14
-3.03769e-14
-2.60255e-14
-2.25178e-14
-2.04441e-14
-1.15381e-14
-7.17841e-15
-3.81228e-13
-3.81556e-13
-3.81574e-13
-3.85468e-13
-3.79081e-13
-3.74697e-13
-3.77195e-13
-3.78552e-13
-3.8381e-13
-3.88455e-13
-3.94066e-13
-3.93321e-13
-3.8991e-13
-3.80553e-13
-3.80627e-13
-3.74472e-13
-3.77179e-13
-3.84287e-13
-3.9022e-13
-3.8867e-13
-3.80695e-13
-3.77776e-13
-3.67057e-13
-3.69381e-13
-3.75494e-13
-3.77455e-13
-3.77482e-13
-3.68857e-13
-3.62245e-13
-3.61584e-13
-3.56785e-13
-3.52657e-13
-3.50422e-13
-3.50848e-13
-3.5095e-13
-3.62934e-13
-3.60355e-13
-3.56711e-13
-3.42646e-13
-3.30337e-13
-3.34605e-13
-3.43365e-13
-3.41292e-13
-3.30237e-13
-3.20238e-13
-3.18722e-13
-3.16295e-13
-3.13979e-13
-3.13268e-13
-3.10514e-13
-3.06421e-13
-3.00124e-13
-2.8954e-13
-2.89009e-13
-2.79746e-13
-2.82837e-13
-2.78457e-13
-2.7503e-13
-2.6582e-13
-2.63741e-13
-2.65182e-13
-2.54102e-13
-2.48808e-13
-2.49466e-13
-2.51787e-13
-2.46407e-13
-2.38376e-13
-2.32465e-13
-2.28677e-13
-2.29036e-13
-2.25764e-13
-2.15973e-13
-2.0926e-13
-2.09642e-13
-2.02467e-13
-1.96676e-13
-1.90931e-13
-1.78486e-13
-1.71728e-13
-1.69742e-13
-1.57391e-13
-1.50649e-13
-1.49103e-13
-1.40666e-13
-1.33064e-13
-1.24239e-13
-1.1113e-13
-9.80809e-14
-8.80427e-14
-8.04216e-14
-6.88592e-14
-6.01545e-14
-4.94298e-14
-3.73419e-14
-2.91204e-14
-2.34254e-14
-2.34252e-14
-2.29367e-14
-1.27188e-14
-1.06912e-14
-3.81156e-13
-3.79382e-13
-3.80892e-13
-3.80616e-13
-3.76643e-13
-3.81136e-13
-3.80294e-13
-3.82014e-13
-3.83673e-13
-3.93766e-13
-3.94755e-13
-3.95975e-13
-3.87393e-13
-3.72067e-13
-3.75948e-13
-3.84936e-13
-3.8236e-13
-3.79088e-13
-3.83523e-13
-3.88108e-13
-3.79677e-13
-3.79013e-13
-3.78321e-13
-3.73822e-13
-3.7115e-13
-3.70128e-13
-3.73867e-13
-3.70546e-13
-3.64627e-13
-3.62277e-13
-3.5471e-13
-3.48963e-13
-3.56616e-13
-3.55638e-13
-3.55055e-13
-3.54653e-13
-3.49945e-13
-3.49215e-13
-3.48783e-13
-3.42254e-13
-3.40015e-13
-3.44455e-13
-3.35884e-13
-3.34444e-13
-3.27707e-13
-3.12185e-13
-3.10007e-13
-3.1586e-13
-3.17062e-13
-3.16965e-13
-3.0718e-13
-2.97142e-13
-2.88114e-13
-2.87294e-13
-2.84076e-13
-2.81217e-13
-2.7525e-13
-2.74204e-13
-2.63883e-13
-2.63489e-13
-2.64527e-13
-2.51772e-13
-2.49165e-13
-2.49334e-13
-2.55654e-13
-2.50704e-13
-2.46902e-13
-2.34779e-13
-2.27219e-13
-2.23108e-13
-2.21529e-13
-2.15534e-13
-2.12902e-13
-2.05652e-13
-2.01192e-13
-2.00763e-13
-1.90648e-13
-1.78168e-13
-1.80074e-13
-1.7151e-13
-1.6115e-13
-1.49079e-13
-1.43291e-13
-1.35647e-13
-1.36892e-13
-1.25208e-13
-1.09432e-13
-9.92822e-14
-9.24584e-14
-7.72764e-14
-7.37504e-14
-6.84438e-14
-5.18546e-14
-4.62147e-14
-3.07064e-14
-2.3457e-14
-2.24587e-14
-1.75872e-14
-1.72292e-14
-9.18606e-15
-3.82046e-13
-3.82131e-13
-3.83977e-13
-3.80916e-13
-3.7694e-13
-3.83663e-13
-3.81192e-13
-3.83499e-13
-3.82632e-13
-3.88135e-13
-3.97431e-13
-4.01519e-13
-3.89307e-13
-3.77757e-13
-3.78192e-13
-3.77647e-13
-3.78933e-13
-3.79599e-13
-3.7896e-13
-3.78122e-13
-3.76176e-13
-3.81496e-13
-3.80443e-13
-3.72744e-13
-3.76951e-13
-3.74974e-13
-3.7121e-13
-3.65428e-13
-3.64378e-13
-3.59651e-13
-3.52565e-13
-3.53695e-13
-3.51825e-13
-3.58554e-13
-3.53127e-13
-3.51979e-13
-3.56438e-13
-3.52611e-13
-3.49253e-13
-3.40891e-13
-3.43125e-13
-3.47176e-13
-3.419e-13
-3.29894e-13
-3.21126e-13
-3.12165e-13
-3.14571e-13
-3.17008e-13
-3.19086e-13
-3.13718e-13
-3.01344e-13
-2.94559e-13
-2.90787e-13
-2.86845e-13
-2.89027e-13
-2.85418e-13
-2.69112e-13
-2.65942e-13
-2.67848e-13
-2.72502e-13
-2.64687e-13
-2.53164e-13
-2.54e-13
-2.46623e-13
-2.45351e-13
-2.52034e-13
-2.51307e-13
-2.36313e-13
-2.27833e-13
-2.22183e-13
-2.1927e-13
-2.15973e-13
-2.13917e-13
-2.04744e-13
-2.02927e-13
-1.97366e-13
-1.89794e-13
-1.81054e-13
-1.74636e-13
-1.66285e-13
-1.58145e-13
-1.46264e-13
-1.46647e-13
-1.40412e-13
-1.36884e-13
-1.28154e-13
-1.09211e-13
-9.86625e-14
-8.94681e-14
-8.05907e-14
-7.32815e-14
-6.79284e-14
-5.43004e-14
-4.61004e-14
-3.72357e-14
-2.57525e-14
-2.82954e-14
-2.27093e-14
-1.56191e-14
-5.50609e-15
-3.82892e-13
-3.82946e-13
-3.81919e-13
-3.81817e-13
-3.76776e-13
-3.81944e-13
-3.85686e-13
-3.7917e-13
-3.91723e-13
-3.89867e-13
-3.95279e-13
-3.99995e-13
-3.94381e-13
-3.81902e-13
-3.82716e-13
-3.82202e-13
-3.7484e-13
-3.73851e-13
-3.72219e-13
-3.80997e-13
-3.81043e-13
-3.75678e-13
-3.70956e-13
-3.72383e-13
-3.8218e-13
-3.77291e-13
-3.70304e-13
-3.67166e-13
-3.62449e-13
-3.54291e-13
-3.48637e-13
-3.50203e-13
-3.56086e-13
-3.60835e-13
-3.54686e-13
-3.57004e-13
-3.55899e-13
-3.51703e-13
-3.49214e-13
-3.45851e-13
-3.47343e-13
-3.50224e-13
-3.38263e-13
-3.29678e-13
-3.20491e-13
-3.17729e-13
-3.14463e-13
-3.10425e-13
-3.14622e-13
-3.11556e-13
-3.07762e-13
-2.9693e-13
-2.93649e-13
-2.84315e-13
-2.83057e-13
-2.86536e-13
-2.72925e-13
-2.67652e-13
-2.68082e-13
-2.67508e-13
-2.62862e-13
-2.46961e-13
-2.53954e-13
-2.51454e-13
-2.5467e-13
-2.53823e-13
-2.53374e-13
-2.39347e-13
-2.25804e-13
-2.19993e-13
-2.2079e-13
-2.16266e-13
-2.02788e-13
-1.92897e-13
-2.03057e-13
-2.03497e-13
-1.96463e-13
-1.81297e-13
-1.71935e-13
-1.67067e-13
-1.57034e-13
-1.45501e-13
-1.4483e-13
-1.36228e-13
-1.32447e-13
-1.23878e-13
-1.17445e-13
-1.0155e-13
-9.21084e-14
-7.97198e-14
-7.97162e-14
-7.43148e-14
-5.16984e-14
-4.99453e-14
-3.94525e-14
-3.14896e-14
-3.17134e-14
-2.2885e-14
-1.25437e-14
-2.2863e-15
-3.83708e-13
-3.81651e-13
-3.8736e-13
-3.81765e-13
-3.81326e-13
-3.78326e-13
-3.81302e-13
-3.80821e-13
-3.88944e-13
-3.98329e-13
-4.07193e-13
-3.98577e-13
-3.81678e-13
-3.80044e-13
-3.83495e-13
-3.82724e-13
-3.72875e-13
-3.68571e-13
-3.75632e-13
-3.79486e-13
-3.84175e-13
-3.85821e-13
-3.81087e-13
-3.81391e-13
-3.77518e-13
-3.74376e-13
-3.64119e-13
-3.60316e-13
-3.60007e-13
-3.51335e-13
-3.4815e-13
-3.52399e-13
-3.51164e-13
-3.54616e-13
-3.47549e-13
-3.58773e-13
-3.60562e-13
-3.56341e-13
-3.51971e-13
-3.53071e-13
-3.50033e-13
-3.44974e-13
-3.33449e-13
-3.27659e-13
-3.23571e-13
-3.23692e-13
-3.1684e-13
-3.11781e-13
-3.10995e-13
-3.07478e-13
-3.03283e-13
-2.9418e-13
-2.98109e-13
-2.95058e-13
-2.8364e-13
-2.8076e-13
-2.68827e-13
-2.71283e-13
-2.68192e-13
-2.71823e-13
-2.64899e-13
-2.57348e-13
-2.55157e-13
-2.4737e-13
-2.43941e-13
-2.45709e-13
-2.54947e-13
-2.43502e-13
-2.31456e-13
-2.20643e-13
-2.18671e-13
-2.14284e-13
-2.06268e-13
-1.95076e-13
-2.00025e-13
-2.00895e-13
-1.8746e-13
-1.79454e-13
-1.73876e-13
-1.70997e-13
-1.60001e-13
-1.47844e-13
-1.40766e-13
-1.39736e-13
-1.32221e-13
-1.23231e-13
-1.15743e-13
-1.02748e-13
-9.57845e-14
-7.83642e-14
-7.77525e-14
-7.99779e-14
-5.93983e-14
-4.87267e-14
-4.19336e-14
-3.61031e-14
-3.27406e-14
-2.54304e-14
-1.25443e-14
-3.70522e-15
-3.85642e-13
-3.7812e-13
-3.81845e-13
-3.86044e-13
-3.82422e-13
-3.80456e-13
-3.84819e-13
-3.83319e-13
-3.89802e-13
-3.9826e-13
-4.0183e-13
-3.95835e-13
-3.81371e-13
-3.79783e-13
-3.86012e-13
-3.82909e-13
-3.75833e-13
-3.77941e-13
-3.79147e-13
-3.77621e-13
-3.78453e-13
-3.75135e-13
-3.71977e-13
-3.74695e-13
-3.84605e-13
-3.77194e-13
-3.75006e-13
-3.60287e-13
-3.51156e-13
-3.46248e-13
-3.43538e-13
-3.52101e-13
-3.56483e-13
-3.60304e-13
-3.53845e-13
-3.53904e-13
-3.52181e-13
-3.55523e-13
-3.58572e-13
-3.52022e-13
-3.48771e-13
-3.45401e-13
-3.33531e-13
-3.28852e-13
-3.2391e-13
-3.2791e-13
-3.19839e-13
-3.12238e-13
-3.06096e-13
-3.03425e-13
-3.05187e-13
-3.01372e-13
-2.94838e-13
-2.93215e-13
-2.88571e-13
-2.81397e-13
-2.72276e-13
-2.71249e-13
-2.67476e-13
-2.69225e-13
-2.67687e-13
-2.60717e-13
-2.55334e-13
-2.52356e-13
-2.50556e-13
-2.48459e-13
-2.46785e-13
-2.43089e-13
-2.3051e-13
-2.22326e-13
-2.16316e-13
-2.16375e-13
-2.08875e-13
-1.99373e-13
-1.99767e-13
-1.9875e-13
-1.9014e-13
-1.84276e-13
-1.75146e-13
-1.67236e-13
-1.58386e-13
-1.49845e-13
-1.45005e-13
-1.41547e-13
-1.31048e-13
-1.21183e-13
-1.17913e-13
-1.1415e-13
-9.22237e-14
-8.27273e-14
-7.99932e-14
-7.41846e-14
-5.49093e-14
-5.03975e-14
-4.52922e-14
-4.53297e-14
-3.481e-14
-2.98078e-14
-1.89452e-14
-4.32903e-15
-3.8392e-13
-3.85144e-13
-3.84618e-13
-3.83663e-13
-3.7779e-13
-3.82585e-13
-3.89207e-13
-3.9604e-13
-3.96167e-13
-3.92485e-13
-3.94793e-13
-3.90691e-13
-3.81858e-13
-3.80131e-13
-3.83621e-13
-3.80418e-13
-3.71106e-13
-3.7078e-13
-3.77422e-13
-3.81921e-13
-3.89798e-13
-3.88807e-13
-3.84778e-13
-3.81027e-13
-3.76962e-13
-3.66102e-13
-3.61919e-13
-3.58419e-13
-3.59763e-13
-3.48254e-13
-3.41378e-13
-3.45929e-13
-3.53905e-13
-3.62519e-13
-3.62824e-13
-3.5944e-13
-3.54041e-13
-3.52602e-13
-3.5338e-13
-3.46932e-13
-3.4808e-13
-3.39951e-13
-3.37105e-13
-3.28282e-13
-3.29187e-13
-3.23436e-13
-3.21035e-13
-3.09698e-13
-3.08808e-13
-3.03755e-13
-3.01008e-13
-3.06411e-13
-2.99234e-13
-2.94487e-13
-2.92557e-13
-2.83597e-13
-2.75167e-13
-2.70189e-13
-2.72387e-13
-2.75639e-13
-2.62136e-13
-2.58854e-13
-2.54499e-13
-2.55651e-13
-2.5661e-13
-2.51225e-13
-2.4689e-13
-2.45554e-13
-2.30282e-13
-2.16913e-13
-2.154e-13
-2.14006e-13
-2.0775e-13
-2.06848e-13
-1.99366e-13
-2.04567e-13
-1.90963e-13
-1.86781e-13
-1.70622e-13
-1.57747e-13
-1.51354e-13
-1.45488e-13
-1.47054e-13
-1.4766e-13
-1.38277e-13
-1.26705e-13
-1.19027e-13
-1.11529e-13
-9.48618e-14
-8.26881e-14
-8.22651e-14
-7.38795e-14
-5.97621e-14
-5.16416e-14
-4.93571e-14
-4.8546e-14
-3.68483e-14
-3.31645e-14
-2.23015e-14
-5.56332e-15
-3.89275e-13
-3.81709e-13
-3.79879e-13
-3.82764e-13
-3.80604e-13
-3.83895e-13
-3.81034e-13
-3.92396e-13
-4.03283e-13
-4.01885e-13
-3.96979e-13
-3.89855e-13
-3.82638e-13
-3.80502e-13
-3.79338e-13
-3.73895e-13
-3.70419e-13
-3.78412e-13
-3.78201e-13
-3.81171e-13
-3.81972e-13
-3.85684e-13
-3.88039e-13
-3.84017e-13
-3.78342e-13
-3.66917e-13
-3.59211e-13
-3.56871e-13
-3.54304e-13
-3.46564e-13
-3.41431e-13
-3.52103e-13
-3.53281e-13
-3.61215e-13
-3.61802e-13
-3.57512e-13
-3.56127e-13
-3.54357e-13
-3.51268e-13
-3.42024e-13
-3.45658e-13
-3.41293e-13
-3.35051e-13
-3.33336e-13
-3.30155e-13
-3.24836e-13
-3.2161e-13
-3.08763e-13
-3.13469e-13
-3.12978e-13
-3.11069e-13
-2.99538e-13
-2.94495e-13
-2.99382e-13
-2.88499e-13
-2.79437e-13
-2.77118e-13
-2.72248e-13
-2.69982e-13
-2.72399e-13
-2.67796e-13
-2.62954e-13
-2.57584e-13
-2.58386e-13
-2.57021e-13
-2.49911e-13
-2.51386e-13
-2.45507e-13
-2.34852e-13
-2.18296e-13
-2.15026e-13
-2.14597e-13
-2.05088e-13
-2.02242e-13
-2.05906e-13
-2.04543e-13
-1.87687e-13
-1.78894e-13
-1.74513e-13
-1.62799e-13
-1.50613e-13
-1.41867e-13
-1.4832e-13
-1.46195e-13
-1.37023e-13
-1.26173e-13
-1.20719e-13
-1.15381e-13
-9.9626e-14
-8.23954e-14
-8.06717e-14
-7.34204e-14
-6.42583e-14
-5.61528e-14
-4.86156e-14
-4.62869e-14
-3.66378e-14
-3.8488e-14
-2.2852e-14
-7.59e-15
-3.87128e-13
-3.85258e-13
-3.88204e-13
-3.91391e-13
-3.83937e-13
-3.85164e-13
-3.90441e-13
-3.86485e-13
-3.87455e-13
-3.90286e-13
-3.86592e-13
-3.89559e-13
-3.8632e-13
-3.81271e-13
-3.83136e-13
-3.78535e-13
-3.74766e-13
-3.66962e-13
-3.72889e-13
-3.82938e-13
-3.90272e-13
-3.92538e-13
-3.84035e-13
-3.73193e-13
-3.74687e-13
-3.67745e-13
-3.60758e-13
-3.57962e-13
-3.50725e-13
-3.43672e-13
-3.41269e-13
-3.57073e-13
-3.58525e-13
-3.6537e-13
-3.60189e-13
-3.53839e-13
-3.45008e-13
-3.53032e-13
-3.47669e-13
-3.41851e-13
-3.46701e-13
-3.45801e-13
-3.35766e-13
-3.28026e-13
-3.28931e-13
-3.28192e-13
-3.27178e-13
-3.14094e-13
-3.11255e-13
-3.11325e-13
-3.06049e-13
-3.04284e-13
-2.97625e-13
-3.03728e-13
-2.95295e-13
-2.82538e-13
-2.78851e-13
-2.70003e-13
-2.6628e-13
-2.69448e-13
-2.76615e-13
-2.65476e-13
-2.58268e-13
-2.56892e-13
-2.53029e-13
-2.48291e-13
-2.48272e-13
-2.49952e-13
-2.44746e-13
-2.22717e-13
-2.1263e-13
-2.16203e-13
-2.07301e-13
-2.02501e-13
-2.03161e-13
-2.07002e-13
-1.9346e-13
-1.79699e-13
-1.73664e-13
-1.51486e-13
-1.381e-13
-1.37686e-13
-1.5004e-13
-1.49215e-13
-1.35768e-13
-1.29943e-13
-1.24381e-13
-1.16603e-13
-1.04049e-13
-8.13906e-14
-7.5404e-14
-7.27607e-14
-6.10043e-14
-5.19242e-14
-5.37487e-14
-5.06455e-14
-3.65922e-14
-3.65179e-14
-2.15692e-14
-9.53313e-15
-3.85996e-13
-3.87221e-13
-3.87397e-13
-3.83235e-13
-3.76493e-13
-3.77136e-13
-3.88521e-13
-3.94913e-13
-3.97197e-13
-3.93094e-13
-3.81299e-13
-3.81383e-13
-3.87667e-13
-3.85748e-13
-3.85279e-13
-3.78704e-13
-3.76137e-13
-3.73651e-13
-3.76837e-13
-3.82925e-13
-3.88329e-13
-3.88382e-13
-3.82678e-13
-3.70894e-13
-3.66672e-13
-3.66969e-13
-3.64425e-13
-3.54284e-13
-3.47671e-13
-3.43113e-13
-3.44793e-13
-3.46481e-13
-3.48602e-13
-3.6839e-13
-3.68636e-13
-3.55852e-13
-3.46821e-13
-3.44501e-13
-3.40127e-13
-3.35132e-13
-3.43313e-13
-3.44951e-13
-3.43564e-13
-3.38964e-13
-3.27886e-13
-3.22758e-13
-3.22834e-13
-3.18217e-13
-3.14975e-13
-3.14892e-13
-3.05906e-13
-3.01464e-13
-3.05244e-13
-3.06716e-13
-2.95664e-13
-2.77941e-13
-2.75189e-13
-2.72958e-13
-2.71288e-13
-2.73832e-13
-2.75257e-13
-2.62554e-13
-2.57919e-13
-2.57696e-13
-2.54472e-13
-2.55754e-13
-2.50982e-13
-2.46065e-13
-2.4067e-13
-2.34887e-13
-2.23436e-13
-2.16517e-13
-2.11388e-13
-2.05774e-13
-2.02001e-13
-2.01969e-13
-1.87806e-13
-1.77351e-13
-1.65872e-13
-1.55273e-13
-1.42777e-13
-1.36418e-13
-1.37634e-13
-1.3851e-13
-1.35602e-13
-1.37103e-13
-1.27466e-13
-1.14895e-13
-1.04907e-13
-8.95018e-14
-7.41095e-14
-6.72871e-14
-7.08658e-14
-6.07862e-14
-5.34537e-14
-4.69491e-14
-3.59898e-14
-3.27335e-14
-2.31709e-14
-7.50767e-15
-3.91941e-13
-3.85339e-13
-3.86882e-13
-3.88607e-13
-3.8453e-13
-3.79273e-13
-3.84909e-13
-3.86822e-13
-3.84657e-13
-3.85309e-13
-3.84584e-13
-3.84773e-13
-3.87682e-13
-3.84638e-13
-3.87044e-13
-3.85146e-13
-3.76913e-13
-3.73729e-13
-3.74701e-13
-3.84005e-13
-3.87502e-13
-3.9026e-13
-3.78372e-13
-3.70764e-13
-3.68171e-13
-3.70185e-13
-3.57117e-13
-3.50632e-13
-3.45377e-13
-3.45107e-13
-3.43695e-13
-3.54611e-13
-3.60703e-13
-3.65747e-13
-3.59168e-13
-3.49202e-13
-3.39316e-13
-3.40063e-13
-3.41113e-13
-3.44936e-13
-3.45592e-13
-3.42778e-13
-3.38269e-13
-3.33003e-13
-3.28727e-13
-3.31686e-13
-3.23301e-13
-3.15651e-13
-3.18934e-13
-3.19379e-13
-3.07724e-13
-3.02378e-13
-3.05745e-13
-3.03765e-13
-2.9437e-13
-2.73174e-13
-2.74304e-13
-2.75755e-13
-2.78222e-13
-2.74449e-13
-2.65844e-13
-2.61667e-13
-2.5895e-13
-2.60905e-13
-2.61892e-13
-2.61061e-13
-2.52041e-13
-2.49089e-13
-2.3764e-13
-2.3283e-13
-2.3001e-13
-2.14958e-13
-2.09518e-13
-2.04025e-13
-2.02944e-13
-1.991e-13
-1.8534e-13
-1.76677e-13
-1.67163e-13
-1.60524e-13
-1.40646e-13
-1.32171e-13
-1.35993e-13
-1.39929e-13
-1.413e-13
-1.33027e-13
-1.22042e-13
-1.10288e-13
-1.03513e-13
-8.88998e-14
-7.72144e-14
-6.79513e-14
-7.20863e-14
-6.70406e-14
-4.92805e-14
-4.34983e-14
-4.09814e-14
-3.43385e-14
-2.38799e-14
-5.09169e-15
-3.85988e-13
-3.85878e-13
-3.85614e-13
-3.87165e-13
-3.83427e-13
-3.80878e-13
-3.82192e-13
-3.81593e-13
-3.83324e-13
-3.8748e-13
-3.87928e-13
-3.84399e-13
-3.86741e-13
-3.81563e-13
-3.85871e-13
-3.8262e-13
-3.829e-13
-3.82851e-13
-3.76753e-13
-3.83789e-13
-3.8481e-13
-3.84043e-13
-3.77027e-13
-3.71347e-13
-3.63996e-13
-3.61727e-13
-3.53217e-13
-3.53652e-13
-3.48643e-13
-3.45272e-13
-3.45709e-13
-3.51452e-13
-3.6079e-13
-3.63375e-13
-3.53484e-13
-3.51151e-13
-3.42519e-13
-3.39778e-13
-3.41267e-13
-3.45456e-13
-3.40912e-13
-3.39703e-13
-3.36967e-13
-3.3674e-13
-3.24708e-13
-3.27368e-13
-3.25867e-13
-3.22445e-13
-3.17202e-13
-3.13395e-13
-3.07449e-13
-3.04785e-13
-3.06202e-13
-3.03299e-13
-2.91829e-13
-2.77159e-13
-2.76005e-13
-2.74462e-13
-2.79684e-13
-2.75341e-13
-2.69096e-13
-2.6419e-13
-2.58576e-13
-2.57292e-13
-2.60938e-13
-2.61164e-13
-2.51338e-13
-2.48126e-13
-2.38842e-13
-2.3261e-13
-2.2652e-13
-2.22078e-13
-2.13625e-13
-2.00668e-13
-2.00941e-13
-1.93331e-13
-1.87578e-13
-1.77359e-13
-1.66343e-13
-1.55471e-13
-1.41401e-13
-1.35868e-13
-1.34211e-13
-1.2712e-13
-1.29906e-13
-1.35796e-13
-1.27732e-13
-1.14381e-13
-1.04649e-13
-9.26402e-14
-7.74972e-14
-6.88427e-14
-6.46989e-14
-6.10104e-14
-5.27641e-14
-4.87295e-14
-3.98717e-14
-3.74122e-14
-2.48063e-14
-1.84449e-15
-3.83966e-13
-3.86727e-13
-3.91563e-13
-3.86357e-13
-3.89941e-13
-3.81768e-13
-3.81098e-13
-3.78751e-13
-3.80786e-13
-3.8918e-13
-3.86421e-13
-3.84902e-13
-3.8208e-13
-3.85395e-13
-3.84038e-13
-3.82143e-13
-3.73873e-13
-3.82153e-13
-3.84684e-13
-3.88302e-13
-3.85435e-13
-3.81502e-13
-3.81586e-13
-3.73734e-13
-3.64807e-13
-3.57614e-13
-3.48995e-13
-3.52421e-13
-3.50802e-13
-3.49326e-13
-3.43467e-13
-3.5056e-13
-3.56787e-13
-3.60878e-13
-3.60635e-13
-3.53079e-13
-3.43194e-13
-3.41541e-13
-3.37682e-13
-3.38898e-13
-3.40366e-13
-3.38069e-13
-3.34324e-13
-3.35056e-13
-3.2878e-13
-3.29926e-13
-3.311e-13
-3.19299e-13
-3.12364e-13
-3.16947e-13
-3.08809e-13
-3.07027e-13
-3.0932e-13
-2.96245e-13
-2.86181e-13
-2.7319e-13
-2.76589e-13
-2.75181e-13
-2.73422e-13
-2.72056e-13
-2.65673e-13
-2.65598e-13
-2.71127e-13
-2.64543e-13
-2.56079e-13
-2.56521e-13
-2.56116e-13
-2.48999e-13
-2.40468e-13
-2.31114e-13
-2.29908e-13
-2.22379e-13
-2.08508e-13
-2.02036e-13
-2.01451e-13
-1.92226e-13
-1.82667e-13
-1.64029e-13
-1.61337e-13
-1.59713e-13
-1.47702e-13
-1.41489e-13
-1.31048e-13
-1.28515e-13
-1.3094e-13
-1.33106e-13
-1.25086e-13
-1.0091e-13
-1.01263e-13
-8.85422e-14
-7.19865e-14
-7.69357e-14
-6.60145e-14
-5.80847e-14
-5.8766e-14
-5.39749e-14
-3.8375e-14
-3.04215e-14
-2.35513e-14
-3.59554e-15
-3.88187e-13
-3.89048e-13
-3.88866e-13
-3.89236e-13
-3.89483e-13
-3.81395e-13
-3.84696e-13
-3.81573e-13
-3.78829e-13
-3.83399e-13
-3.88962e-13
-3.92336e-13
-3.87529e-13
-3.87634e-13
-3.92693e-13
-3.79715e-13
-3.81259e-13
-3.88147e-13
-3.86822e-13
-3.81546e-13
-3.84425e-13
-3.78715e-13
-3.78485e-13
-3.66587e-13
-3.58941e-13
-3.5705e-13
-3.57475e-13
-3.54638e-13
-3.49719e-13
-3.51037e-13
-3.48266e-13
-3.47202e-13
-3.52838e-13
-3.54969e-13
-3.61782e-13
-3.54529e-13
-3.49107e-13
-3.38627e-13
-3.38218e-13
-3.39055e-13
-3.4028e-13
-3.39243e-13
-3.37985e-13
-3.30618e-13
-3.29095e-13
-3.26611e-13
-3.26995e-13
-3.20095e-13
-3.21614e-13
-3.20742e-13
-3.05678e-13
-3.04106e-13
-3.02882e-13
-2.97656e-13
-2.87577e-13
-2.7882e-13
-2.79728e-13
-2.77926e-13
-2.81281e-13
-2.68024e-13
-2.55731e-13
-2.68625e-13
-2.66425e-13
-2.55243e-13
-2.56806e-13
-2.55055e-13
-2.59185e-13
-2.48774e-13
-2.38771e-13
-2.34005e-13
-2.35713e-13
-2.20961e-13
-2.073e-13
-2.03484e-13
-1.96245e-13
-1.94599e-13
-1.75628e-13
-1.65049e-13
-1.5759e-13
-1.5144e-13
-1.42637e-13
-1.38687e-13
-1.33916e-13
-1.32446e-13
-1.29466e-13
-1.22252e-13
-1.175e-13
-1.03161e-13
-9.49374e-14
-9.06872e-14
-7.65785e-14
-7.15716e-14
-6.27764e-14
-5.95269e-14
-5.95341e-14
-4.80964e-14
-4.3133e-14
-3.36873e-14
-2.56076e-14
-6.13263e-15
-3.91941e-13
-3.88288e-13
-3.88853e-13
-3.90619e-13
-3.88083e-13
-3.83579e-13
-3.86118e-13
-3.87855e-13
-3.84255e-13
-3.85875e-13
-3.86859e-13
-3.87999e-13
-3.89224e-13
-3.91859e-13
-3.88839e-13
-3.83833e-13
-3.8165e-13
-3.80108e-13
-3.80297e-13
-3.88184e-13
-3.94803e-13
-3.8874e-13
-3.74358e-13
-3.64899e-13
-3.61028e-13
-3.604e-13
-3.56299e-13
-3.54417e-13
-3.46561e-13
-3.44307e-13
-3.43107e-13
-3.5482e-13
-3.63155e-13
-3.57623e-13
-3.53791e-13
-3.48902e-13
-3.44857e-13
-3.39301e-13
-3.35605e-13
-3.3917e-13
-3.38081e-13
-3.42014e-13
-3.37824e-13
-3.31442e-13
-3.25183e-13
-3.24242e-13
-3.24627e-13
-3.2318e-13
-3.18158e-13
-3.19255e-13
-3.1095e-13
-3.05006e-13
-3.04898e-13
-2.93774e-13
-2.92671e-13
-2.87462e-13
-2.8685e-13
-2.736e-13
-2.69001e-13
-2.7008e-13
-2.65105e-13