/*--------------------------------*- C++ -*----------------------------------*\
| =========                 |                                                 |
| \\      /  F ield         | OpenFOAM: The Open Source CFD Toolbox           |
|  \\    /   O peration     | Version:  v2012                                 |
|   \\  /    A nd           | Website:  www.openfoam.com                      |
|    \\/     M anipulation  |                                                 |
\*---------------------------------------------------------------------------*/
FoamFile
{
    version     2.0;
    format      ascii;
    class       volScalarField;
    location    "4.75";
    object      W;
}
// * * * * * * * * * * * * * * * * * * * * * * * * * * * * * * * * * * * * * //

dimensions      [0 0 -1 0 0 0 0];


internalField   nonuniform List<scalar> 
65536
(
1.53826e-19
1.63141e-19
1.84467e-19
2.18861e-19
2.68097e-19
3.3476e-19
4.2237e-19
5.35562e-19
6.80297e-19
8.64137e-19
1.09658e-18
1.38947e-18
1.75749e-18
2.21877e-18
2.79565e-18
3.5155e-18
4.41185e-18
5.5256e-18
6.90655e-18
8.61522e-18
1.07249e-17
1.33242e-17
1.65201e-17
2.04411e-17
2.52415e-17
3.11063e-17
3.8256e-17
4.69539e-17
5.75124e-17
7.03025e-17
8.57625e-17
1.0441e-16
1.26854e-16
1.53808e-16
1.86111e-16
2.24741e-16
2.70835e-16
3.25717e-16
3.90922e-16
4.68222e-16
5.59661e-16
6.67588e-16
7.94698e-16
9.44071e-16
1.11922e-15
1.32414e-15
1.56335e-15
1.84197e-15
2.16578e-15
2.54126e-15
2.97566e-15
3.47711e-15
4.05463e-15
4.71824e-15
5.47905e-15
6.34926e-15
7.34232e-15
8.47293e-15
9.75712e-15
1.12123e-14
1.28574e-14
1.47128e-14
1.68002e-14
1.9143e-14
2.17662e-14
2.46959e-14
2.79601e-14
3.15876e-14
3.56089e-14
4.00554e-14
4.49593e-14
5.03537e-14
5.62722e-14
6.27483e-14
6.98155e-14
7.75069e-14
8.58544e-14
9.48886e-14
1.04638e-13
1.1513e-13
1.26386e-13
1.38427e-13
1.51269e-13
1.64921e-13
1.79389e-13
1.94672e-13
2.10762e-13
2.27644e-13
2.45296e-13
2.63685e-13
2.82772e-13
3.02507e-13
3.2283e-13
3.43674e-13
3.64958e-13
3.86596e-13
4.08488e-13
4.30529e-13
4.52602e-13
4.74583e-13
4.96342e-13
5.17742e-13
5.38641e-13
5.58894e-13
5.78353e-13
5.96871e-13
6.14299e-13
6.30495e-13
6.45318e-13
6.58636e-13
6.70326e-13
6.80273e-13
6.88377e-13
6.94548e-13
6.98715e-13
7.00823e-13
7.00833e-13
6.98727e-13
6.94506e-13
6.8819e-13
6.7982e-13
6.69459e-13
6.57185e-13
6.43099e-13
6.27318e-13
6.09975e-13
5.9122e-13
5.71214e-13
5.50131e-13
5.28153e-13
5.05471e-13
4.82279e-13
4.58775e-13
4.35155e-13
4.11618e-13
3.88355e-13
3.65552e-13
3.43389e-13
3.22037e-13
3.01655e-13
2.82392e-13
2.64383e-13
2.47751e-13
2.32604e-13
2.19037e-13
2.07128e-13
1.96942e-13
1.88528e-13
1.81922e-13
1.77141e-13
1.74191e-13
1.73061e-13
1.73725e-13
1.76143e-13
1.80259e-13
1.86002e-13
1.93288e-13
2.02016e-13
2.12071e-13
2.23323e-13
2.3563e-13
2.48834e-13
2.62767e-13
2.77247e-13
2.92085e-13
3.07081e-13
3.22031e-13
3.36726e-13
3.50956e-13
3.64514e-13
3.77197e-13
3.8881e-13
3.9917e-13
4.08109e-13
4.15477e-13
4.21143e-13
4.25002e-13
4.26975e-13
4.27008e-13
4.25078e-13
4.21191e-13
4.1538e-13
4.07711e-13
3.98271e-13
3.87178e-13
3.74569e-13
3.60601e-13
3.45447e-13
3.29293e-13
3.1233e-13
2.94758e-13
2.76773e-13
2.58568e-13
2.40331e-13
2.22235e-13
2.04445e-13
1.87106e-13
1.70347e-13
1.5428e-13
1.38996e-13
1.24566e-13
1.11044e-13
9.84635e-14
8.68432e-14
7.61842e-14
6.64746e-14
5.76897e-14
4.9795e-14
4.27474e-14
3.64975e-14
3.09912e-14
2.61714e-14
2.19798e-14
1.83579e-14
1.52481e-14
1.2595e-14
1.03458e-14
8.45094e-15
6.86465e-15
5.54495e-15
4.45388e-15
3.55742e-15
2.82543e-15
2.23141e-15
1.75234e-15
1.36834e-15
1.06244e-15
8.20251e-16
6.29674e-16
4.80626e-16
3.6477e-16
2.75263e-16
2.06534e-16
1.54079e-16
1.14289e-16
8.42889e-17
6.18071e-17
4.50616e-17
3.26643e-17
2.35415e-17
1.6869e-17
1.2018e-17
8.51272e-18
5.99502e-18
4.19759e-18
2.92211e-18
2.02251e-18
1.39189e-18
9.52617e-19
6.48688e-19
4.40054e-19
2.98343e-19
2.03718e-19
1.42594e-19
1.06004e-19
8.84916e-20
2.09016e-19
2.21661e-19
2.50618e-19
2.9732e-19
3.64175e-19
4.54685e-19
5.73626e-19
7.27281e-19
9.23733e-19
1.17323e-18
1.48865e-18
1.88602e-18
2.38526e-18
3.01092e-18
3.79321e-18
4.76922e-18
5.98429e-18
7.49377e-18
9.36499e-18
1.16797e-17
1.45371e-17
1.80568e-17
2.23831e-17
2.76896e-17
3.41845e-17
4.2117e-17
5.17847e-17
6.35419e-17
7.78095e-17
9.50864e-17
1.15962e-16
1.41133e-16
1.71415e-16
2.0777e-16
2.51319e-16
3.03373e-16
3.65458e-16
4.39345e-16
5.27084e-16
6.31044e-16
7.53954e-16
8.98945e-16
1.06961e-15
1.27004e-15
1.50491e-15
1.77953e-15
2.09989e-15
2.47278e-15
2.90582e-15
3.40759e-15
3.98767e-15
4.65674e-15
5.42669e-15
6.31068e-15
7.32326e-15
8.48042e-15
9.79971e-15
1.13003e-14
1.30031e-14
1.49307e-14
1.71076e-14
1.956e-14
2.23162e-14
2.54062e-14
2.88619e-14
3.27169e-14
3.70066e-14
4.1768e-14
4.70394e-14
5.28604e-14
5.92717e-14
6.63145e-14
7.40304e-14
8.2461e-14
9.16475e-14
1.0163e-13
1.12447e-13
1.24135e-13
1.36728e-13
1.50256e-13
1.64746e-13
1.80218e-13
1.96689e-13
2.14166e-13
2.32653e-13
2.52143e-13
2.72622e-13
2.94064e-13
3.16435e-13
3.3969e-13
3.63772e-13
3.88614e-13
4.14134e-13
4.40242e-13
4.66833e-13
4.93792e-13
5.2099e-13
5.4829e-13
5.75544e-13
6.02594e-13
6.29275e-13
6.55415e-13
6.80836e-13
7.05358e-13
7.288e-13
7.50979e-13
7.71717e-13
7.9084e-13
8.08181e-13
8.23584e-13
8.36902e-13
8.48003e-13
8.56773e-13
8.63113e-13
8.66946e-13
8.68215e-13
8.66886e-13
8.62947e-13
8.56414e-13
8.47323e-13
8.35738e-13
8.21744e-13
8.05453e-13
7.86997e-13
7.66528e-13
7.44219e-13
7.2026e-13
6.94854e-13
6.6822e-13
6.40582e-13
6.12176e-13
5.8324e-13
5.54013e-13
5.24736e-13
4.95643e-13
4.66964e-13
4.38922e-13
4.11728e-13
3.8558e-13
3.60666e-13
3.37157e-13
3.15208e-13
2.94958e-13
2.76529e-13
2.60024e-13
2.4553e-13
2.33114e-13
2.22827e-13
2.14701e-13
2.08751e-13
2.04974e-13
2.03349e-13
2.03839e-13
2.06389e-13
2.10927e-13
2.17364e-13
2.25594e-13
2.35495e-13
2.46928e-13
2.59738e-13
2.73753e-13
2.8879e-13
3.04649e-13
3.21119e-13
3.37979e-13
3.54997e-13
3.71938e-13
3.88561e-13
4.04627e-13
4.19897e-13
4.34141e-13
4.47137e-13
4.58679e-13
4.68578e-13
4.76665e-13
4.82796e-13
4.86855e-13
4.88754e-13
4.8844e-13
4.85888e-13
4.8111e-13
4.7415e-13
4.65085e-13
4.5402e-13
4.41092e-13
4.2646e-13
4.10305e-13
3.92826e-13
3.74235e-13
3.54754e-13
3.34607e-13
3.14017e-13
2.93206e-13
2.72382e-13
2.51744e-13
2.31476e-13
2.11741e-13
1.92684e-13
1.74429e-13
1.57077e-13
1.40708e-13
1.2538e-13
1.11129e-13
9.7974e-14
8.59149e-14
7.49362e-14
6.50088e-14
5.60921e-14
4.81363e-14
4.10844e-14
3.48744e-14
2.94413e-14
2.47183e-14
2.06389e-14
1.71377e-14
1.41518e-14
1.16213e-14
9.49037e-15
7.70701e-15
6.22383e-15
4.99799e-15
3.9911e-15
3.16917e-15
2.50235e-15
1.96471e-15
1.53387e-15
1.19074e-15
9.19137e-16
7.05462e-16
5.38385e-16
4.08541e-16
3.08247e-16
2.31248e-16
1.72492e-16
1.2793e-16
9.43375e-17
6.91673e-17
5.0422e-17
3.65459e-17
2.63364e-17
1.88699e-17
1.34423e-17
9.52078e-18
6.7044e-18
4.69393e-18
3.26741e-18
2.26136e-18
1.55618e-18
1.065e-18
7.25176e-19
4.91919e-19
3.33491e-19
2.27709e-19
1.5938e-19
1.18479e-19
9.89059e-20
3.34573e-19
3.54789e-19
4.01098e-19
4.75788e-19
5.82701e-19
7.2743e-19
9.17602e-19
1.16324e-18
1.47725e-18
1.87599e-18
2.37998e-18
3.01483e-18
3.81224e-18
4.81136e-18
6.06036e-18
7.61828e-18
9.55733e-18
1.19656e-17
1.49502e-17
1.86412e-17
2.31961e-17
2.8805e-17
3.56973e-17
4.41483e-17
5.44883e-17
6.71125e-17
8.24922e-17
1.01189e-16
1.23868e-16
1.51319e-16
1.84473e-16
2.24429e-16
2.72478e-16
3.30131e-16
3.99158e-16
4.8162e-16
5.79917e-16
6.9683e-16
8.35579e-16
9.99874e-16
1.19399e-15
1.42282e-15
1.69198e-15
2.00786e-15
2.37773e-15
2.80985e-15
3.31353e-15
3.89932e-15
4.57901e-15
5.36586e-15
6.27466e-15
7.32187e-15
8.52579e-15
9.9066e-15
1.14866e-14
1.32902e-14
1.53442e-14
1.76778e-14
2.03226e-14
2.3313e-14
2.66857e-14
3.04805e-14
3.47396e-14
3.95078e-14
4.48328e-14
5.07644e-14
5.73551e-14
6.46591e-14
7.27327e-14
8.16336e-14
9.14206e-14
1.02153e-13
1.13891e-13
1.26693e-13
1.40616e-13
1.55718e-13
1.7205e-13
1.89661e-13
2.08598e-13
2.28897e-13
2.50592e-13
2.73707e-13
2.98257e-13
3.24247e-13
3.51672e-13
3.80513e-13
4.10738e-13
4.42303e-13
4.75146e-13
5.0919e-13
5.44343e-13
5.80495e-13
6.1752e-13
6.55273e-13
6.93593e-13
7.32305e-13
7.71215e-13
8.10117e-13
8.4879e-13
8.87001e-13
9.24511e-13
9.61068e-13
9.96417e-13
1.0303e-12
1.06247e-12
1.09265e-12
1.12061e-12
1.14611e-12
1.16892e-12
1.18882e-12
1.20563e-12
1.21918e-12
1.22932e-12
1.23593e-12
1.23892e-12
1.23823e-12
1.23385e-12
1.22577e-12
1.21404e-12
1.19874e-12
1.17998e-12
1.15789e-12
1.13267e-12
1.1045e-12
1.07363e-12
1.04031e-12
1.00483e-12
9.67469e-13
9.28553e-13
8.88401e-13
8.47345e-13
8.05719e-13
7.63856e-13
7.22087e-13
6.80733e-13
6.40106e-13
6.00506e-13
5.62213e-13
5.25492e-13
4.90585e-13
4.57715e-13
4.27079e-13
3.98852e-13
3.73185e-13
3.50203e-13
3.30006e-13
3.12671e-13
2.98249e-13
2.86769e-13
2.78233e-13
2.72624e-13
2.699e-13
2.69996e-13
2.72826e-13
2.78282e-13
2.86235e-13
2.96535e-13
3.09009e-13
3.23467e-13
3.39697e-13
3.57469e-13
3.76536e-13
3.96634e-13
4.17483e-13
4.38795e-13
4.60269e-13
4.81599e-13
5.02475e-13
5.2259e-13
5.41642e-13
5.59336e-13
5.75394e-13
5.89557e-13
6.01589e-13
6.11281e-13
6.18458e-13
6.22978e-13
6.2474e-13
6.23682e-13
6.19785e-13
6.13069e-13
6.036e-13
5.91483e-13
5.76859e-13
5.59908e-13
5.40836e-13
5.19879e-13
4.97293e-13
4.73348e-13
4.48327e-13
4.22515e-13
3.96194e-13
3.69642e-13
3.43123e-13
3.16884e-13
2.91155e-13
2.66139e-13
2.42015e-13
2.18935e-13
1.97022e-13
1.76374e-13
1.5706e-13
1.39121e-13
1.22578e-13
1.07427e-13
9.36449e-14
8.11934e-14
7.00185e-14
6.00555e-14
5.12311e-14
4.34657e-14
3.66762e-14
3.07781e-14
2.56868e-14
2.13198e-14
1.75977e-14
1.44452e-14
1.17917e-14
9.57213e-15
7.72713e-15
6.20295e-15
4.95158e-15
3.93052e-15
3.1025e-15
2.43515e-15
1.90058e-15
1.47499e-15
1.13823e-15
8.73392e-16
6.66374e-16
5.05538e-16
3.81342e-16
2.8602e-16
2.13303e-16
1.58165e-16
1.1661e-16
8.54817e-17
6.2304e-17
4.51505e-17
3.2532e-17
2.33055e-17
1.65998e-17
1.17555e-17
8.27705e-18
5.79431e-18
4.03293e-18
2.79089e-18
1.92039e-18
1.31414e-18
8.94749e-19
6.06901e-19
4.11413e-19
2.80896e-19
1.96594e-19
1.46134e-19
1.21989e-19
5.69502e-19
6.03874e-19
6.8263e-19
8.09652e-19
9.91465e-19
1.23757e-18
1.5609e-18
1.9785e-18
2.51225e-18
3.18991e-18
4.04632e-18
5.12488e-18
6.47937e-18
8.17617e-18
1.02969e-17
1.29415e-17
1.62324e-17
2.03186e-17
2.53815e-17
3.16411e-17
3.93636e-17
4.88705e-17
6.0549e-17
7.48641e-17
9.23735e-17
1.13743e-16
1.39769e-16
1.71395e-16
2.09743e-16
2.56141e-16
3.12156e-16
3.79634e-16
4.6074e-16
5.58014e-16
6.74421e-16
8.13415e-16
9.7901e-16
1.17586e-15
1.40934e-15
1.68565e-15
2.0119e-15
2.39626e-15
2.84806e-15
3.37791e-15
3.9979e-15
4.72168e-15
5.56471e-15
6.54437e-15
7.68016e-15
8.9939e-15
1.05099e-14
1.22553e-14
1.426e-14
1.6557e-14
1.91828e-14
2.21771e-14
2.55836e-14
2.94495e-14
3.38262e-14
3.87689e-14
4.43371e-14
5.05944e-14
5.76083e-14
6.54507e-14
7.41971e-14
8.39265e-14
9.47217e-14
1.06668e-13
1.19853e-13
1.34368e-13
1.50302e-13
1.67747e-13
1.86795e-13
2.07533e-13
2.3005e-13
2.54427e-13
2.80742e-13
3.09066e-13
3.3946e-13
3.71977e-13
4.06658e-13
4.4353e-13
4.82606e-13
5.23882e-13
5.67335e-13
6.12923e-13
6.60583e-13
7.10227e-13
7.61747e-13
8.15007e-13
8.69846e-13
9.26079e-13
9.83492e-13
1.04185e-12
1.10089e-12
1.16032e-12
1.21983e-12
1.2791e-12
1.33777e-12
1.39548e-12
1.45186e-12
1.50651e-12
1.55905e-12
1.60908e-12
1.65621e-12
1.70008e-12
1.74029e-12
1.77651e-12
1.80841e-12
1.83569e-12
1.85807e-12
1.87533e-12
1.88727e-12
1.89374e-12
1.89464e-12
1.88991e-12
1.87954e-12
1.8636e-12
1.84216e-12
1.81539e-12
1.78348e-12
1.74669e-12
1.7053e-12
1.65965e-12
1.61012e-12
1.55712e-12
1.50108e-12
1.44247e-12
1.38177e-12
1.31946e-12
1.25606e-12
1.19205e-12
1.12794e-12
1.06421e-12
1.00134e-12
9.39769e-13
8.79933e-13
8.22233e-13
7.6704e-13
7.14693e-13
6.65498e-13
6.19725e-13
5.77606e-13
5.39337e-13
5.05079e-13
4.74953e-13
4.49045e-13
4.27409e-13
4.1006e-13
3.96982e-13
3.88125e-13
3.8341e-13
3.82723e-13
3.85923e-13
3.92839e-13
4.03271e-13
4.16989e-13
4.33738e-13
4.53237e-13
4.75176e-13
4.99225e-13
5.25028e-13
5.52212e-13
5.80384e-13
6.09137e-13
6.38053e-13
6.6671e-13
6.9468e-13
7.21543e-13
7.46885e-13
7.70311e-13
7.91444e-13
8.09936e-13
8.25475e-13
8.37787e-13
8.46641e-13
8.51858e-13
8.53311e-13
8.50928e-13
8.44695e-13
8.34654e-13
8.20904e-13
8.03598e-13
7.8294e-13
7.5918e-13
7.32608e-13
7.03549e-13
6.72353e-13
6.39393e-13
6.0505e-13
5.69711e-13
5.3376e-13
4.97567e-13
4.61488e-13
4.25853e-13
3.90966e-13
3.57097e-13
3.24482e-13
2.9332e-13
2.63772e-13
2.35962e-13
2.09977e-13
1.8587e-13
1.6366e-13
1.43339e-13
1.24873e-13
1.08204e-13
9.32562e-14
7.99409e-14
6.81565e-14
5.77943e-14
4.87411e-14
4.08818e-14
3.41023e-14
2.8291e-14
2.3341e-14
1.91509e-14
1.56262e-14
1.26795e-14
1.02314e-14
8.21e-15
6.55124e-15
5.1984e-15
4.10183e-15
3.21842e-15
2.51108e-15
1.94817e-15
1.50292e-15
1.15289e-15
8.79374e-16
6.6695e-16
5.0297e-16
3.77152e-16
2.81199e-16
2.08464e-16
1.53661e-16
1.12619e-16
8.20669e-17
5.94612e-17
4.28357e-17
3.06818e-17
2.18503e-17
1.54715e-17
1.08919e-17
7.62383e-18
5.30565e-18
3.67121e-18
2.52587e-18
1.7283e-18
1.17662e-18
7.98026e-19
5.4093e-19
3.69296e-19
2.58444e-19
1.92096e-19
1.60348e-19
9.85534e-19
1.04495e-18
1.18112e-18
1.40074e-18
1.71509e-18
2.14055e-18
2.69948e-18
3.42126e-18
4.34368e-18
5.51464e-18
6.99422e-18
8.85731e-18
1.11966e-17
1.41266e-17
1.77879e-17
2.23527e-17
2.80319e-17
3.5082e-17
4.38151e-17
5.46098e-17
6.7924e-17
8.43104e-17
1.04434e-16
1.29094e-16
1.59248e-16
1.96038e-16
2.40829e-16
2.9524e-16
3.61194e-16
4.40962e-16
5.37227e-16
6.53145e-16
7.92418e-16
9.5938e-16
1.15909e-15
1.39745e-15
1.68128e-15
2.01851e-15
2.41829e-15
2.89114e-15
3.44916e-15
4.10617e-15
4.87799e-15
5.7826e-15
6.84039e-15
8.07446e-15
9.51084e-15
1.11788e-14
1.31112e-14
1.53446e-14
1.79198e-14
2.08822e-14
2.42819e-14
2.81739e-14
3.26189e-14
3.76831e-14
4.34388e-14
4.99643e-14
5.73444e-14
6.56702e-14
7.50394e-14
8.55564e-14
9.73316e-14
1.10482e-13
1.2513e-13
1.41405e-13
1.59439e-13
1.79369e-13
2.01337e-13
2.25485e-13
2.51958e-13
2.80898e-13
3.12448e-13
3.46746e-13
3.83924e-13
4.24108e-13
4.67414e-13
5.13943e-13
5.63785e-13
6.1701e-13
6.7367e-13
7.33793e-13
7.97381e-13
8.64411e-13
9.34827e-13
1.00854e-12
1.08543e-12
1.16533e-12
1.24805e-12
1.33335e-12
1.42095e-12
1.51053e-12
1.60174e-12
1.69416e-12
1.78737e-12
1.8809e-12
1.97422e-12
2.06682e-12
2.15812e-12
2.24754e-12
2.33449e-12
2.41834e-12
2.49849e-12
2.57433e-12
2.64525e-12
2.71067e-12
2.77003e-12
2.82281e-12
2.86851e-12
2.90671e-12
2.93701e-12
2.95908e-12
2.97268e-12
2.9776e-12
2.97374e-12
2.96105e-12
2.93958e-12
2.90945e-12
2.87087e-12
2.8241e-12
2.76951e-12
2.70753e-12
2.63866e-12
2.56345e-12
2.48252e-12
2.39652e-12
2.30617e-12
2.21218e-12
2.11533e-12
2.01637e-12
1.91607e-12
1.81522e-12
1.71456e-12
1.61482e-12
1.51673e-12
1.42095e-12
1.32811e-12
1.2388e-12
1.15358e-12
1.07291e-12
9.9723e-13
9.26924e-13
8.62307e-13
8.03641e-13
7.51132e-13
7.04932e-13
6.65137e-13
6.3179e-13
6.04885e-13
5.84366e-13
5.70129e-13
5.62027e-13
5.59867e-13
5.63414e-13
5.72392e-13
5.86485e-13
6.05339e-13
6.28561e-13
6.55726e-13
6.8637e-13
7.20002e-13
7.56097e-13
7.94109e-13
8.33465e-13
8.73579e-13
9.13848e-13
9.53668e-13
9.92432e-13
1.02954e-12
1.06442e-12
1.09651e-12
1.12528e-12
1.15025e-12
1.17101e-12
1.18716e-12
1.1984e-12
1.20449e-12
1.20528e-12
1.20067e-12
1.19066e-12
1.17533e-12
1.15482e-12
1.12938e-12
1.0993e-12
1.06495e-12
1.02673e-12
9.85113e-13
9.40599e-13
8.93712e-13
8.44988e-13
7.94971e-13
7.44194e-13
6.93175e-13
6.42406e-13
5.92345e-13
5.43408e-13
4.95967e-13
4.50343e-13
4.06806e-13
3.65574e-13
3.26811e-13
2.9063e-13
2.57098e-13
2.26235e-13
1.98024e-13
1.72409e-13
1.49308e-13
1.28609e-13
1.10186e-13
9.38925e-14
7.95761e-14
6.70769e-14
5.62335e-14
4.68858e-14
3.88781e-14
3.20613e-14
2.62943e-14
2.14458e-14
1.73946e-14
1.40306e-14
1.12543e-14
8.97714e-15
7.12082e-15
5.6168e-15
4.40565e-15
3.43628e-15
2.66515e-15
2.05543e-15
1.57626e-15
1.20198e-15
9.11386e-16
6.87134e-16
5.15124e-16
3.8398e-16
2.84596e-16
2.09735e-16
1.53684e-16
1.11971e-16
8.1113e-17
5.84234e-17
4.18399e-17
2.9792e-17
2.10916e-17
1.48464e-17
1.03904e-17
7.23012e-18
5.00226e-18
3.44128e-18
2.35442e-18
1.60274e-18
1.08693e-18
7.36699e-19
5.02907e-19
3.51921e-19
2.61557e-19
2.18318e-19
1.7071e-18
1.80991e-18
2.04557e-18
2.42567e-18
2.96967e-18
3.70591e-18
4.67302e-18
5.92177e-18
7.51744e-18
9.54277e-18
1.21015e-17
1.5323e-17
1.93672e-17
2.44317e-17
3.07591e-17
3.86466e-17
4.84574e-17
6.06339e-17
7.57141e-17
9.43498e-17
1.1733e-16
1.45605e-16
1.8032e-16
2.22849e-16
2.74838e-16
3.38251e-16
4.15429e-16
5.09155e-16
6.22724e-16
7.60035e-16
9.25683e-16
1.12507e-15
1.36454e-15
1.6515e-15
1.99461e-15
2.40392e-15
2.89111e-15
3.46969e-15
4.15523e-15
4.96567e-15
5.92157e-15
7.04644e-15
8.36712e-15
9.91409e-15
1.17219e-14
1.38297e-14
1.62814e-14
1.91265e-14
2.24203e-14
2.62245e-14
3.06077e-14
3.56459e-14
4.14231e-14
4.80317e-14
5.55727e-14
6.41569e-14
7.39043e-14
8.49452e-14
9.74199e-14
1.11479e-13
1.27285e-13
1.45008e-13
1.6483e-13
1.86942e-13
2.11546e-13
2.38848e-13
2.69065e-13
3.02419e-13
3.39136e-13
3.79444e-13
4.23571e-13
4.71746e-13
5.2419e-13
5.81119e-13
6.42737e-13
7.09234e-13
7.80781e-13
8.5753e-13
9.39605e-13
1.0271e-12
1.12008e-12
1.21855e-12
1.32251e-12
1.43189e-12
1.54655e-12
1.66635e-12
1.79103e-12
1.92032e-12
2.05386e-12
2.19123e-12
2.33196e-12
2.47551e-12
2.62126e-12
2.76855e-12
2.91664e-12
3.06477e-12
3.21209e-12
3.35774e-12
3.5008e-12
3.64033e-12
3.77537e-12
3.90497e-12
4.02813e-12
4.14392e-12
4.25139e-12
4.34965e-12
4.43784e-12
4.51518e-12
4.58093e-12
4.63445e-12
4.67518e-12
4.70268e-12
4.7166e-12
4.7167e-12
4.70288e-12
4.67514e-12
4.63362e-12
4.57859e-12
4.51043e-12
4.42965e-12
4.33687e-12
4.23284e-12
4.11837e-12
3.9944e-12
3.86192e-12
3.72202e-12
3.57581e-12
3.42446e-12
3.26916e-12
3.11112e-12
2.95154e-12
2.79161e-12
2.6325e-12
2.47532e-12
2.32115e-12
2.171e-12
2.02582e-12
1.88647e-12
1.75376e-12
1.62838e-12
1.51095e-12
1.402e-12
1.30198e-12
1.21123e-12
1.13003e-12
1.05854e-12
9.96884e-13
9.45064e-13
9.03032e-13
8.70659e-13
8.47749e-13
8.3404e-13
8.29206e-13
8.32862e-13
8.44563e-13
8.63812e-13
8.90054e-13
9.22686e-13
9.61056e-13
1.00446e-12
1.05217e-12
1.1034e-12
1.15733e-12
1.21313e-12
1.26993e-12
1.32686e-12
1.38304e-12
1.43759e-12
1.48966e-12
1.53841e-12
1.58306e-12
1.62286e-12
1.65714e-12
1.68529e-12
1.70679e-12
1.72123e-12
1.72828e-12
1.72773e-12
1.71948e-12
1.70354e-12
1.68005e-12
1.64925e-12
1.61148e-12
1.56718e-12
1.51689e-12
1.46121e-12
1.40082e-12
1.33642e-12
1.26878e-12
1.19867e-12
1.12684e-12
1.05407e-12
9.81075e-13
9.08558e-13
8.37157e-13
7.67458e-13
6.99977e-13
6.35161e-13
5.73381e-13
5.14936e-13
4.60047e-13
4.08865e-13
3.61475e-13
3.17897e-13
2.78098e-13
2.41991e-13
2.09453e-13
1.80322e-13
1.54411e-13
1.31512e-13
1.11406e-13
9.38626e-14
7.86529e-14
6.55492e-14
5.43305e-14
4.47854e-14
3.67147e-14
2.99329e-14
2.42692e-14
1.95684e-14
1.56907e-14
1.25116e-14
9.92108e-15
7.82307e-15
6.13427e-15
4.78312e-15
3.70866e-15
2.85942e-15
2.19224e-15
1.67126e-15
1.26689e-15
9.5494e-16
7.15726e-16
5.33394e-16
3.95255e-16
2.91227e-16
2.13358e-16
1.55419e-16
1.12568e-16
8.10659e-17
5.80461e-17
4.13254e-17
2.92527e-17
2.05883e-17
1.44071e-17
1.00239e-17
6.93438e-18
4.76998e-18
3.26314e-18
2.22113e-18
1.50618e-18
1.02077e-18
6.96769e-19
4.87542e-19
3.62326e-19
3.02414e-19
2.9452e-18
3.12238e-18
3.52861e-18
4.18382e-18
5.12151e-18
6.39049e-18
8.05722e-18
1.02091e-17
1.29585e-17
1.64476e-17
2.08552e-17
2.64034e-17
3.33675e-17
4.2087e-17
5.29788e-17
6.65537e-17
8.34354e-17
1.04384e-16
1.30322e-16
1.62369e-16
2.01877e-16
2.50477e-16
3.10132e-16
3.83195e-16
4.72485e-16
5.81365e-16
7.13841e-16
8.7467e-16
1.06949e-15
1.30495e-15
1.58892e-15
1.93059e-15
2.3408e-15
2.83217e-15
3.41944e-15
4.11973e-15
4.9529e-15
5.9419e-15
7.1132e-15
8.49722e-15
1.01288e-14
1.20478e-14
1.42996e-14
1.69358e-14
2.00147e-14
2.36022e-14
2.77726e-14
3.2609e-14
3.82043e-14
4.46621e-14
5.20976e-14
6.06379e-14
7.04235e-14
8.16083e-14
9.4361e-14
1.08866e-13
1.25321e-13
1.43944e-13
1.64967e-13
1.88637e-13
2.15221e-13
2.45e-13
2.78272e-13
3.15349e-13
3.56557e-13
4.02234e-13
4.5273e-13
5.08402e-13
5.6961e-13
6.36721e-13
7.10098e-13
7.90098e-13
8.77069e-13
9.71344e-13
1.07324e-12
1.18304e-12
1.301e-12
1.42733e-12
1.56222e-12
1.70577e-12
1.85806e-12
2.01908e-12
2.18875e-12
2.36693e-12
2.55338e-12
2.74776e-12
2.94967e-12
3.15859e-12
3.37391e-12
3.5949e-12
3.82075e-12
4.05054e-12
4.28325e-12
4.51777e-12
4.75289e-12
4.98734e-12
5.21975e-12
5.44872e-12
5.67276e-12
5.89038e-12
6.10004e-12
6.30021e-12
6.48937e-12
6.66603e-12
6.82873e-12
6.9761e-12
7.10684e-12
7.21975e-12
7.31376e-12
7.38793e-12
7.44146e-12
7.47375e-12
7.48432e-12
7.47294e-12
7.43951e-12
7.38417e-12
7.30724e-12
7.20924e-12
7.09089e-12
6.95307e-12
6.79686e-12
6.62349e-12
6.43436e-12
6.23098e-12
6.01499e-12
5.7881e-12
5.55212e-12
5.3089e-12
5.06031e-12
4.80825e-12
4.55459e-12
4.30117e-12
4.04976e-12
3.80209e-12
3.55978e-12
3.32435e-12
3.09721e-12
2.87967e-12
2.67286e-12
2.47781e-12
2.29542e-12
2.12642e-12
1.97141e-12
1.83088e-12
1.70515e-12
1.59442e-12
1.4988e-12
1.41823e-12
1.35256e-12
1.30156e-12
1.26485e-12
1.242e-12
1.23246e-12
1.2356e-12
1.25071e-12
1.27701e-12
1.31364e-12
1.35967e-12
1.41409e-12
1.47586e-12
1.54385e-12
1.61691e-12
1.69382e-12
1.77334e-12
1.8542e-12
1.93512e-12
2.01482e-12
2.09203e-12
2.16551e-12
2.23407e-12
2.29657e-12
2.35197e-12
2.39929e-12
2.4377e-12
2.46646e-12
2.48501e-12
2.4929e-12
2.48985e-12
2.47576e-12
2.45067e-12
2.4148e-12
2.36852e-12
2.31235e-12
2.24695e-12
2.17309e-12
2.09167e-12
2.00367e-12
1.9101e-12
1.81207e-12
1.71067e-12
1.60701e-12
1.50216e-12
1.39717e-12
1.29301e-12
1.19061e-12
1.09077e-12
9.94222e-13
9.01595e-13
8.13402e-13
7.30053e-13
6.51852e-13
5.79e-13
5.11604e-13
4.49682e-13
3.93174e-13
3.41949e-13
2.9582e-13
2.54551e-13
2.17869e-13
1.85473e-13
1.57045e-13
1.32256e-13
1.10777e-13
9.2283e-14
7.64576e-14
6.30003e-14
5.16273e-14
4.20752e-14
3.41018e-14
2.74869e-14
2.20326e-14
1.75628e-14
1.3922e-14
1.09746e-14
8.60291e-15
6.7061e-15
5.19825e-15
4.00684e-15
3.07115e-15
2.34073e-15
1.77397e-15
1.33685e-15
1.00175e-15
7.46397e-16
5.52984e-16
4.07365e-16
2.98387e-16
2.1732e-16
1.57376e-16
1.13316e-16
8.11264e-17
5.77488e-17
4.08726e-17
2.87627e-17
2.01249e-17
1.40005e-17
9.68426e-18
6.66085e-18
4.55624e-18
3.10102e-18
2.10266e-18
1.4249e-18
9.72545e-19
6.80452e-19
5.05653e-19
4.22019e-19
5.05348e-18
5.35717e-18
6.05358e-18
7.17682e-18
8.78429e-18
1.09595e-17
1.38163e-17
1.75041e-17
2.22154e-17
2.81937e-17
3.57443e-17
4.52476e-17
5.71744e-17
7.21048e-17
9.07518e-17
1.13988e-16
1.42879e-16
1.78723e-16
2.23095e-16
2.77905e-16
3.45462e-16
4.28546e-16
5.30503e-16
6.55346e-16
8.07875e-16
9.93818e-16
1.21999e-15
1.49449e-15
1.8269e-15
2.22853e-15
2.71272e-15
3.29512e-15
3.99408e-15
4.83101e-15
5.83089e-15
7.02272e-15
8.44009e-15
1.01218e-14
1.21126e-14
1.44639e-14
1.72343e-14
2.04912e-14
2.43108e-14
2.878e-14
3.39968e-14
4.00719e-14
4.71296e-14
5.53093e-14
6.47664e-14
7.56742e-14
8.82245e-14
1.02629e-13
1.19122e-13
1.37959e-13
1.5942e-13
1.83809e-13
2.11455e-13
2.42716e-13
2.77972e-13
3.17634e-13
3.62135e-13
4.11937e-13
4.67524e-13
5.29404e-13
5.98106e-13
6.74177e-13
7.58178e-13
8.50682e-13
9.52266e-13
1.06351e-12
1.18499e-12
1.31726e-12
1.46087e-12
1.61633e-12
1.78411e-12
1.96465e-12
2.15832e-12
2.36544e-12
2.58622e-12
2.82081e-12
3.06927e-12
3.33152e-12
3.60737e-12
3.89653e-12
4.19854e-12
4.5128e-12
4.83857e-12
5.17495e-12
5.52088e-12
5.87513e-12
6.23631e-12
6.6029e-12
6.97319e-12
7.34535e-12
7.7174e-12
8.08725e-12
8.45269e-12
8.81145e-12
9.16116e-12
9.49943e-12
9.82383e-12
1.01319e-11
1.04214e-11
1.06899e-11
1.09351e-11
1.1155e-11
1.13476e-11
1.15111e-11
1.1644e-11
1.17449e-11
1.18126e-11
1.18463e-11
1.18456e-11
1.181e-11
1.17397e-11
1.16351e-11
1.14967e-11
1.13256e-11
1.11231e-11
1.08906e-11
1.06301e-11
1.03435e-11
1.00332e-11
9.7016e-12
9.35137e-12
8.98526e-12
8.60615e-12
8.21695e-12
7.8206e-12
7.42006e-12
7.01823e-12
6.61794e-12
6.22191e-12
5.83276e-12
5.45294e-12
5.08474e-12
4.73026e-12
4.39139e-12
4.06983e-12
3.76706e-12
3.48433e-12
3.22268e-12
2.98293e-12
2.7657e-12
2.5714e-12
2.40023e-12
2.25223e-12
2.12725e-12
2.02496e-12
1.94491e-12
1.88646e-12
1.84886e-12
1.83122e-12
1.83254e-12
1.85169e-12
1.88743e-12
1.93845e-12
2.0033e-12
2.08047e-12
2.16835e-12
2.26527e-12
2.36949e-12
2.47922e-12
2.59261e-12
2.7078e-12
2.82292e-12
2.9361e-12
3.04549e-12
3.14931e-12
3.24583e-12
3.33343e-12
3.41061e-12
3.47601e-12
3.52844e-12
3.56688e-12
3.59053e-12
3.5988e-12
3.59134e-12
3.56802e-12
3.52894e-12
3.47446e-12
3.40515e-12
3.32178e-12
3.22533e-12
3.11695e-12
2.99792e-12
2.86967e-12
2.7337e-12
2.59156e-12
2.44484e-12
2.29512e-12
2.14394e-12
1.99278e-12
1.84304e-12
1.696e-12
1.55282e-12
1.41452e-12
1.28197e-12
1.1559e-12
1.03687e-12
9.25285e-13
8.21428e-13
7.25428e-13
6.37295e-13
5.56929e-13
4.8413e-13
4.18619e-13
3.6005e-13
3.08024e-13
2.62106e-13
2.21835e-13
1.86741e-13
1.56349e-13
1.30195e-13
1.07826e-13
8.8814e-14
7.27545e-14
5.92724e-14
4.80235e-14
3.86952e-14
3.10068e-14
2.47086e-14
1.95806e-14
1.54307e-14
1.20926e-14
9.4238e-15
7.30296e-15
5.62774e-15
4.31248e-15
3.28604e-15
2.48983e-15
1.87591e-15
1.40539e-15
1.04694e-15
7.75497e-16
5.71178e-16
4.18303e-16
3.04604e-16
2.20549e-16
1.58779e-16
1.13657e-16
8.08941e-17
5.72465e-17
4.02801e-17
2.818e-17
1.9602e-17
1.35575e-17
9.32389e-18
6.37723e-18
4.34001e-18
2.9425e-18
1.99386e-18
1.36077e-18
9.51998e-19
7.07388e-19
5.90355e-19
8.61975e-18
9.1372e-18
1.0324e-17
1.22382e-17
1.49776e-17
1.86842e-17
2.35517e-17
2.98347e-17
3.78602e-17
4.80427e-17
6.09016e-17
7.70835e-17
9.73888e-17
1.22804e-16
1.5454e-16
1.9408e-16
2.43233e-16
3.04203e-16
3.79665e-16
4.72859e-16
5.87701e-16
7.28907e-16
9.02148e-16
1.11422e-15
1.37326e-15
1.68896e-15
2.07286e-15
2.53866e-15
3.10254e-15
3.78365e-15
4.60449e-15
5.59149e-15
6.77559e-15
8.19293e-15
9.88557e-15
1.19023e-14
1.42998e-14
1.71432e-14
2.05077e-14
2.44794e-14
2.91571e-14
3.46533e-14
4.1096e-14
4.86303e-14
5.74201e-14
6.76502e-14
7.9528e-14
9.32855e-14
1.09182e-13
1.27504e-13
1.48572e-13
1.72735e-13
2.00382e-13
2.31934e-13
2.67854e-13
3.08642e-13
3.54841e-13
4.07035e-13
4.6585e-13
5.31955e-13
6.06058e-13
6.88908e-13
7.81293e-13
8.84035e-13
9.97985e-13
1.12402e-12
1.26305e-12
1.41597e-12
1.58372e-12
1.76719e-12
1.9673e-12
2.18492e-12
2.42088e-12
2.67598e-12
2.95092e-12
3.24636e-12
3.56282e-12
3.90074e-12
4.26042e-12
4.642e-12
5.04546e-12
5.47061e-12
5.91706e-12
6.38419e-12
6.87119e-12
7.37698e-12
7.90026e-12
8.43948e-12
8.99282e-12
9.55822e-12
1.01334e-11
1.07157e-11
1.13024e-11
1.18904e-11
1.24767e-11
1.30576e-11
1.36298e-11
1.41896e-11
1.47331e-11
1.52566e-11
1.57562e-11
1.62283e-11
1.6669e-11
1.70748e-11
1.74423e-11
1.77683e-11
1.80498e-11
1.82841e-11
1.8469e-11
1.86025e-11
1.86832e-11
1.87098e-11
1.86818e-11
1.8599e-11
1.84618e-11
1.82709e-11
1.80276e-11
1.77337e-11
1.73914e-11
1.70034e-11
1.65727e-11
1.61027e-11
1.55971e-11
1.50599e-11
1.44953e-11
1.39078e-11
1.33019e-11
1.26822e-11
1.20532e-11
1.14195e-11
1.07856e-11
1.01559e-11
9.53454e-12
8.92541e-12
8.33223e-12
7.75842e-12
7.20709e-12
6.68103e-12
6.18269e-12
5.71419e-12
5.2773e-12
4.87346e-12
4.50377e-12
4.16901e-12
3.86965e-12
3.60586e-12
3.37754e-12
3.18432e-12
3.02559e-12
2.9005e-12
2.808e-12
2.74684e-12
2.71558e-12
2.71262e-12
2.73617e-12
2.78433e-12
2.85504e-12
2.94611e-12
3.05524e-12
3.18e-12
3.3179e-12
3.46632e-12
3.62262e-12
3.78407e-12
3.94795e-12
4.11151e-12
4.27202e-12
4.42682e-12
4.57333e-12
4.70906e-12
4.8317e-12
4.93911e-12
5.02936e-12
5.10076e-12
5.15192e-12
5.18171e-12
5.18934e-12
5.17436e-12
5.13662e-12
5.07636e-12
4.99411e-12
4.89073e-12
4.7674e-12
4.62555e-12
4.46686e-12
4.29322e-12
4.10667e-12
3.90938e-12
3.7036e-12
3.49159e-12
3.27562e-12
3.05789e-12
2.8405e-12
2.62544e-12
2.41451e-12
2.20936e-12
2.01142e-12
1.8219e-12
1.64182e-12
1.47194e-12
1.31284e-12
1.16487e-12
1.02821e-12
9.02844e-13
7.88606e-13
6.85199e-13
5.92205e-13
5.09119e-13
4.35361e-13
3.70301e-13
3.13276e-13
2.63609e-13
2.2062e-13
1.83643e-13
1.52035e-13
1.25182e-13
1.0251e-13
8.34855e-14
6.76188e-14
5.44667e-14
4.3631e-14
3.47581e-14
2.75363e-14
2.16941e-14
1.69964e-14
1.32419e-14
1.02591e-14
7.90385e-15
6.0552e-15
4.61292e-15
3.49443e-15
2.63225e-15
1.97162e-15
1.46846e-15
1.08752e-15
8.0085e-16
5.86402e-16
4.26942e-16
3.09078e-16
2.2248e-16
1.59233e-16
1.13316e-16
8.018e-17
5.64097e-17
3.94596e-17
2.7445e-17
1.89799e-17
1.30517e-17
8.92608e-18
6.07406e-18
4.11781e-18
2.79002e-18
1.90397e-18
1.33191e-18
9.89604e-19
8.25835e-19
1.46142e-17
1.54905e-17
1.75009e-17
2.07435e-17
2.53836e-17
3.16616e-17
3.99052e-17
5.05449e-17
6.41339e-17
8.13729e-17
1.0314e-16
1.30529e-16
1.64891e-16
2.07893e-16
2.61582e-16
3.28461e-16
4.11586e-16
5.14675e-16
6.42243e-16
7.99755e-16
9.93813e-16
1.23237e-15
1.52498e-15
1.8831e-15
2.32041e-15
2.85324e-15
3.501e-15
4.28672e-15
5.23763e-15
6.38586e-15
7.76922e-15
9.43206e-15
1.14263e-14
1.38125e-14
1.66611e-14
2.00539e-14
2.40855e-14
2.88651e-14
3.45181e-14
4.11885e-14
4.90408e-14
5.82628e-14
6.90673e-14
8.1696e-14
9.64214e-14
1.1355e-13
1.33426e-13
1.56434e-13
1.83003e-13
2.13607e-13
2.48773e-13
2.8908e-13
3.35164e-13
3.87722e-13
4.47509e-13
5.15348e-13
5.92125e-13
6.78794e-13
7.76376e-13
8.85955e-13
1.00868e-12
1.14577e-12
1.29849e-12
1.46817e-12
1.65617e-12
1.86389e-12
2.09277e-12
2.34427e-12
2.61981e-12
2.92086e-12
3.2488e-12
3.605e-12
3.99074e-12
4.40721e-12
4.85549e-12
5.33652e-12
5.85106e-12
6.39969e-12
6.98277e-12
7.60039e-12
8.2524e-12
8.93833e-12
9.65739e-12
1.04085e-11
1.119e-11
1.20003e-11
1.28369e-11
1.36973e-11
1.45783e-11
1.54766e-11
1.63882e-11
1.7309e-11
1.82343e-11
1.91593e-11
2.00788e-11
2.09873e-11
2.18791e-11
2.27484e-11
2.35891e-11
2.43954e-11
2.51613e-11
2.58808e-11
2.65483e-11
2.71582e-11
2.77053e-11
2.81848e-11
2.85923e-11
2.89238e-11
2.91762e-11
2.93466e-11
2.94331e-11
2.94341e-11
2.93492e-11
2.91784e-11
2.89227e-11
2.85836e-11
2.81636e-11
2.76656e-11
2.70937e-11
2.64521e-11
2.57459e-11
2.49807e-11
2.41624e-11
2.32976e-11
2.23929e-11
2.14554e-11
2.0492e-11
1.95101e-11
1.85167e-11
1.75188e-11
1.65234e-11
1.55371e-11
1.45662e-11
1.36166e-11
1.26939e-11
1.18032e-11
1.09489e-11
1.01353e-11
9.36581e-12
8.64347e-12
7.97076e-12
7.34964e-12
6.78156e-12
6.26746e-12
5.80783e-12
5.40273e-12
5.05176e-12
4.75417e-12