/*--------------------------------*- C++ -*----------------------------------*\
| =========                 |                                                 |
| \\      /  F ield         | OpenFOAM: The Open Source CFD Toolbox           |
|  \\    /   O peration     | Version:  v2012                                 |
|   \\  /    A nd           | Website:  www.openfoam.com                      |
|    \\/     M anipulation  |                                                 |
\*---------------------------------------------------------------------------*/
FoamFile
{
    version     2.0;
    format      ascii;
    class       volVectorField;
    location    "0";
    object      U;
}
// * * * * * * * * * * * * * * * * * * * * * * * * * * * * * * * * * * * * * //

dimensions      [0 1 -1 0 0 0 0];


internalField   nonuniform List<vector> 
4000
(
(1 1.70813e-15 0)
(1 4.2657e-15 0)
(1 5.21998e-16 0)
(1 9.2372e-16 0)
(1 -7.3285e-16 0)
(1 -6.38569e-15 0)
(1 4.61708e-15 0)
(1 4.18965e-15 0)
(1 3.22715e-15 0)
(1 -2.21748e-15 0)
(1 -3.75043e-15 0)
(1 -3.69439e-15 0)
(1 8.9547e-16 0)
(1 5.43294e-15 0)
(1 -2.42008e-15 0)
(1 -3.61293e-15 0)
(1 1.26299e-15 0)
(1 -2.45619e-15 0)
(1 -7.12481e-16 0)
(1 -3.85197e-16 0)
(1 -3.69554e-15 0)
(1 -1.02162e-15 0)
(1 6.89993e-16 0)
(1 -1.37917e-16 0)
(1 6.76314e-15 0)
(1 3.64901e-15 0)
(1 -3.9241e-15 0)
(1 -8.84085e-15 0)
(1 -1.13488e-14 0)
(1 1.76147e-15 0)
(1 3.62761e-15 0)
(1 4.39621e-15 0)
(1 -6.32043e-15 0)
(1 3.18844e-15 0)
(1 2.75783e-15 0)
(1 5.83682e-15 0)
(1 8.00635e-15 0)
(1 4.33629e-15 0)
(1 3.12851e-15 0)
(1 -6.05055e-15 0)
(1 -3.92218e-15 0)
(1 -6.3272e-15 0)
(1 -1.52116e-15 0)
(1 1.70867e-15 0)
(1 4.6917e-15 0)
(1 -3.69502e-16 0)
(1 4.09148e-16 0)
(1 3.55268e-15 0)
(1 -2.26745e-16 0)
(1 1.70404e-15 0)
(1 2.1521e-15 0)
(1 2.37728e-15 0)
(1 8.17347e-16 0)
(1 3.1647e-15 0)
(1 -7.07087e-16 0)
(1 1.44593e-15 0)
(1 4.21392e-16 0)
(1 1.16294e-15 0)
(1 -2.03402e-15 0)
(1 4.34291e-15 0)
(1 6.19324e-16 0)
(1 1.99621e-16 0)
(1 -5.43622e-16 0)
(1 -2.23779e-15 0)
(1 -2.28343e-15 0)
(1 -2.67284e-15 0)
(1 1.13409e-15 0)
(1 2.36707e-15 0)
(1 1.23224e-15 0)
(1 5.84517e-16 0)
(1 -2.08801e-15 0)
(1 1.49415e-16 0)
(1 -8.27235e-15 0)
(1 -5.38576e-15 0)
(1 -4.86459e-15 0)
(1 -1.91147e-15 0)
(1 -2.22431e-15 0)
(1 -4.14538e-15 0)
(1 7.3298e-16 0)
(1 1.73825e-15 0)
(1 2.13878e-15 0)
(1 3.62537e-15 0)
(1 -1.67652e-15 0)
(1 -4.75684e-15 0)
(1 1.5482e-16 0)
(1 1.28613e-15 0)
(1 5.59163e-16 0)
(1 6.34369e-16 0)
(1 -4.33197e-16 0)
(1 2.972e-15 0)
(1 2.7168e-15 0)
(1 3.57318e-15 0)
(1 -2.27586e-15 0)
(1 -1.34015e-15 0)
(1 2.08999e-15 0)
(1 6.21631e-16 0)
(1 -2.40105e-15 0)
(1 6.62569e-16 0)
(1 2.26447e-16 0)
(1 -1.69631e-15 0)
(1 1.76699e-15 0)
(1 4.38338e-15 0)
(1 1.07044e-15 0)
(1 1.30719e-15 0)
(1 -1.79162e-15 0)
(1 -6.16163e-15 0)
(1 1.17455e-15 0)
(1 5.08834e-15 0)
(1 1.05257e-16 0)
(1 1.42629e-15 0)
(1 -1.5383e-16 0)
(1 -5.1058e-15 0)
(1 -9.90581e-16 0)
(1 7.44427e-15 0)
(1 -2.59954e-15 0)
(1 -6.76808e-15 0)
(1 3.19808e-15 0)
(1 1.71705e-15 0)
(1 3.22652e-15 0)
(1 1.1674e-15 0)
(1 -3.44435e-15 0)
(1 -1.39687e-15 0)
(1 7.27526e-16 0)
(1 1.51773e-15 0)
(1 -3.5683e-16 0)
(1 -4.32546e-15 0)
(1 -1.56324e-15 0)
(1 -6.58945e-15 0)
(1 -1.11657e-14 0)
(1 4.18001e-15 0)
(1 3.89903e-15 0)
(1 3.05323e-15 0)
(1 -7.7611e-15 0)
(1 5.28625e-16 0)
(1 -1.28421e-15 0)
(1 5.3342e-15 0)
(1 7.05964e-15 0)
(1 1.07848e-14 0)
(1 -3.32418e-15 0)
(1 -6.56993e-15 0)
(1 -6.89719e-15 0)
(1 -1.7605e-15 0)
(1 3.37679e-16 0)
(1 3.84446e-15 0)
(1 -8.99833e-16 0)
(1 -4.85736e-15 0)
(1 -4.84502e-15 0)
(1 -1.06519e-15 0)
(1 2.55954e-15 0)
(1 1.09056e-16 0)
(1 6.80355e-15 0)
(1 4.02991e-15 0)
(1 -3.19241e-15 0)
(1 3.09028e-16 0)
(1 1.70228e-15 0)
(1 2.49746e-15 0)
(1 5.70696e-17 0)
(1 -8.36532e-16 0)
(1 -3.31899e-15 0)
(1 -2.45819e-15 0)
(1 -3.27294e-15 0)
(1 2.76618e-15 0)
(1 4.06544e-15 0)
(1 4.83449e-16 0)
(1 -5.57317e-16 0)
(1 -1.5339e-15 0)
(1 1.82278e-15 0)
(1 1.16761e-15 0)
(1 3.55071e-15 0)
(1 -4.30249e-16 0)
(1 -1.12662e-15 0)
(1 5.82506e-16 0)
(1 -6.25262e-16 0)
(1 2.27915e-15 0)
(1 4.88175e-15 0)
(1 1.01609e-15 0)
(1 -7.77314e-16 0)
(1 -3.01326e-15 0)
(1 1.15234e-15 0)
(1 5.54366e-16 0)
(1 2.13835e-15 0)
(1 -8.05748e-16 0)
(1 -4.81875e-15 0)
(1 7.62191e-17 0)
(1 5.13436e-15 0)
(1 5.25308e-15 0)
(1 2.21325e-15 0)
(1 -5.53549e-15 0)
(1 -3.08596e-15 0)
(1 1.59582e-16 0)
(1 5.06616e-16 0)
(1 3.17628e-15 0)
(1 -1.5154e-15 0)
(1 1.61725e-17 0)
(1 9.95441e-17 0)
(1 1.22561e-15 0)
(1 -2.14081e-15 0)
(1 3.3249e-15 0)
(1 -2.44052e-15 0)
(1 -4.6887e-15 0)
(1 -5.12995e-15 0)
(1 4.77803e-15 0)
(1 -5.58009e-15 0)
(1 1.59069e-15 0)
(1 -1.23847e-15 0)
(1 1.23999e-15 0)
(1 -1.51524e-15 0)
(1 8.01294e-15 0)
(1 6.89955e-15 0)
(1 1.14746e-16 0)
(1 -2.41562e-15 0)
(1 -2.72057e-16 0)
(1 6.82682e-16 0)
(1 1.57134e-15 0)
(1 2.78226e-15 0)
(1 -9.86879e-15 0)
(1 -9.17676e-16 0)
(1 4.65557e-15 0)
(1 4.14605e-15 0)
(1 5.52283e-16 0)
(1 8.15198e-16 0)
(1 -1.7196e-15 0)
(1 5.16519e-16 0)
(1 2.95773e-15 0)
(1 -3.12547e-16 0)
(1 1.08457e-16 0)
(1 3.0742e-15 0)
(1 3.77082e-15 0)
(1 1.18852e-15 0)
(1 3.66188e-15 0)
(1 3.05374e-15 0)
(1 -4.34951e-15 0)
(1 -1.18259e-15 0)
(1 -9.22868e-15 0)
(1 -2.49356e-15 0)
(1 2.82778e-17 0)
(1 5.63261e-16 0)
(1 3.85569e-15 0)
(1 -2.6543e-15 0)
(1 1.52507e-15 0)
(1 1.18041e-15 0)
(1 2.3245e-16 0)
(1 3.91776e-16 0)
(1 2.50755e-15 0)
(1 1.96022e-15 0)
(1 4.49746e-15 0)
(1 -6.62023e-16 0)
(1 -2.53192e-15 0)
(1 2.51401e-15 0)
(1 -4.47513e-15 0)
(1 6.71899e-15 0)
(1 5.39987e-15 0)
(1 2.71033e-15 0)
(1 -3.18322e-15 0)
(1 1.13658e-15 0)
(1 2.71917e-16 0)
(1 -2.24564e-16 0)
(1 -3.31914e-15 0)
(1 -4.82786e-16 0)
(1 -4.67745e-15 0)
(1 -1.14459e-15 0)
(1 5.52216e-15 0)
(1 5.42534e-15 0)
(1 -1.35e-15 0)
(1 -3.14179e-15 0)
(1 -1.61546e-15 0)
(1 1.09693e-15 0)
(1 4.61954e-16 0)
(1 1.8612e-15 0)
(1 -2.47553e-15 0)
(1 2.33843e-15 0)
(1 -3.54926e-16 0)
(1 7.24214e-18 0)
(1 -2.1734e-15 0)
(1 -3.85856e-16 0)
(1 -3.9478e-15 0)
(1 -2.59712e-15 0)
(1 1.67236e-15 0)
(1 8.64302e-16 0)
(1 -8.87685e-16 0)
(1 -1.68642e-15 0)
(1 -4.2097e-15 0)
(1 -2.82641e-15 0)
(1 2.2317e-15 0)
(1 1.5455e-15 0)
(1 2.45195e-15 0)
(1 1.41717e-15 0)
(1 -2.66573e-15 0)
(1 -1.28706e-15 0)
(1 2.13096e-15 0)
(1 1.60092e-15 0)
(1 4.2276e-15 0)
(1 2.06045e-16 0)
(1 -2.05529e-15 0)
(1 3.58533e-16 0)
(1 -4.70262e-16 0)
(1 -1.25583e-15 0)
(1 4.81091e-16 0)
(1 -4.30114e-15 0)
(1 -2.36847e-15 0)
(1 -9.20291e-16 0)
(1 -5.08224e-15 0)
(1 -4.70722e-15 0)
(1 -6.80948e-15 0)
(1 4.48961e-15 0)
(1 9.18022e-15 0)
(1 2.84336e-15 0)
(1 5.88478e-15 0)
(1 6.08573e-15 0)
(1 -2.26043e-15 0)
(1 -1.91136e-15 0)
(1 -3.32385e-15 0)
(1 4.23387e-15 0)
(1 7.71913e-15 0)
(1 8.83246e-15 0)
(1 -3.76982e-16 0)
(1 -6.85062e-15 0)
(1 1.31208e-15 0)
(1 -9.79735e-16 0)
(1 6.11223e-15 0)
(1 5.84563e-15 0)
(1 -7.61377e-15 0)
(1 1.06393e-15 0)
(1 6.79711e-15 0)
(1 1.27982e-14 0)
(1 1.44155e-14 0)
(1 5.56261e-15 0)
(1 9.83806e-16 0)
(1 -4.70977e-15 0)
(1 -2.73877e-15 0)
(1 -4.60806e-15 0)
(1 -5.32307e-15 0)
(1 -2.39025e-15 0)
(1 -1.14739e-14 0)
(1 6.01818e-16 0)
(1 -6.77743e-15 0)
(1 3.13715e-15 0)
(1 -3.08074e-15 0)
(1 1.35469e-14 0)
(1 5.23203e-16 0)
(1 2.69643e-15 0)
(1 -6.65413e-15 0)
(1 -1.61196e-15 0)
(1 -1.05249e-15 0)
(1 5.36238e-15 0)
(1 6.70397e-15 0)
(1 7.06209e-15 0)
(1 1.54665e-15 0)
(1 1.80629e-15 0)
(1 2.80704e-15 0)
(1 6.55495e-15 0)
(1 6.01202e-15 0)
(1 4.48839e-15 0)
(1 -4.26599e-15 0)
(1 -7.82208e-15 0)
(1 2.53901e-15 0)
(1 3.40603e-16 0)
(1 -1.20932e-15 0)
(1 -4.1881e-16 0)
(1 -2.66011e-15 0)
(1 2.93234e-15 0)
(1 4.92775e-15 0)
(1 7.96403e-16 0)
(1 -2.80695e-15 0)
(1 2.26795e-15 0)
(1 -1.26941e-15 0)
(1 -1.72421e-15 0)
(1 6.25308e-18 0)
(1 -3.00165e-15 0)
(1 -5.01727e-15 0)
(1 3.31782e-15 0)
(1 1.58891e-15 0)
(1 -6.68211e-15 0)
(1 -1.19327e-14 0)
(1 -7.55896e-15 0)
(1 -5.9142e-15 0)
(1 -2.82501e-15 0)
(1 4.43347e-15 0)
(1 1.78554e-15 0)
(1 1.83928e-15 0)
(1 1.50452e-15 0)
(1 -2.40121e-15 0)
(1 -1.6486e-15 0)
(1 -3.44321e-15 0)
(1 3.1472e-15 0)
(1 5.70904e-15 0)
(1 6.13067e-15 0)
(1 4.65632e-15 0)
(1 2.12675e-15 0)
(1 5.29956e-15 0)
(1 4.61257e-15 0)
(1 1.98093e-15 0)
(1 2.40462e-15 0)
(1 6.75737e-17 0)
(1 -1.544e-17 0)
(1 -5.77022e-15 0)
(1 -6.2571e-15 0)
(1 -5.1572e-15 0)
(1 -3.20442e-15 0)
(1 2.12567e-15 0)
(1 4.66388e-15 0)
(1 -3.03444e-15 0)
(1 -7.92041e-16 0)
(1 -1.90719e-15 0)
(1 4.4383e-15 0)
(1 3.54236e-15 0)
(1 -4.56542e-15 0)
(1 -4.79947e-15 0)
(1 -5.47242e-15 0)
(1 -1.38079e-15 0)
(1 8.45273e-15 0)
(1 -1.96196e-15 0)
(1 8.86057e-15 0)
(1 -2.69415e-15 0)
(1 7.83815e-15 0)
(1 1.96702e-15 0)
(1 2.01343e-15 0)
(1 -3.66773e-15 0)
(1 -6.60685e-17 0)
(1 -3.65019e-15 0)
(1 -2.5175e-15 0)
(1 -9.93938e-15 0)
(1 -1.77727e-15 0)
(1 1.01145e-14 0)
(1 1.49417e-14 0)
(1 8.57908e-15 0)
(1 4.1401e-15 0)
(1 3.66053e-15 0)
(1 5.40765e-15 0)
(1 6.21281e-15 0)
(1 -9.79866e-16 0)
(1 1.07793e-15 0)
(1 -8.66303e-15 0)
(1 -6.23259e-15 0)
(1 -4.52159e-15 0)
(1 -1.33182e-14 0)
(1 -1.94598e-15 0)
(1 -2.78593e-15 0)
(1 5.42651e-15 0)
(1 1.72321e-15 0)
(1 -2.66141e-15 0)
(1 -2.02749e-15 0)
(1 -1.28053e-15 0)
(1 -5.21393e-16 0)
(1 9.8265e-17 0)
(1 -2.14064e-15 0)
(1 1.44754e-15 0)
(1 5.68891e-15 0)
(1 5.79541e-15 0)
(1 9.22452e-15 0)
(1 6.91195e-16 0)
(1 4.21897e-15 0)
(1 -3.2006e-15 0)
(1 -3.9922e-15 0)
(1 -4.41209e-15 0)
(1 2.10092e-16 0)
(1 1.14683e-15 0)
(1 -1.81511e-15 0)
(1 1.18335e-15 0)
(1 2.63918e-15 0)
(1 5.78961e-15 0)
(1 3.45031e-15 0)
(1 7.53144e-16 0)
(1 4.46658e-15 0)
(1 8.0603e-15 0)
(1 6.03911e-15 0)
(1 -3.79166e-16 0)
(1 -1.61587e-16 0)
(1 -2.87347e-16 0)
(1 -6.63813e-15 0)
(1 -4.95167e-16 0)
(1 -2.29887e-15 0)
(1 -5.54505e-16 0)
(1 -3.64609e-15 0)
(1 -2.26822e-15 0)
(1 -4.95745e-15 0)
(1 -2.63896e-15 0)
(1 2.07403e-15 0)
(1 1.35504e-15 0)
(1 2.19557e-15 0)
(1 4.74657e-15 0)
(1 -1.72924e-15 0)
(1 7.30898e-16 0)
(1 -5.47175e-16 0)
(1 3.73116e-15 0)
(1 6.71105e-15 0)
(1 5.4183e-15 0)
(1 2.68566e-15 0)
(1 6.00055e-15 0)
(1 2.05553e-15 0)
(1 3.29199e-15 0)
(1 -1.21797e-15 0)
(1 4.60625e-15 0)
(1 4.78778e-15 0)
(1 -3.54922e-16 0)
(1 -3.7123e-15 0)
(1 -2.03863e-15 0)
(1 -2.45156e-15 0)
(1 1.84582e-15 0)
(1 4.31153e-15 0)
(1 -1.25654e-15 0)
(1 4.53105e-15 0)
(1 -1.40392e-15 0)
(1 2.88807e-15 0)
(1 -6.14579e-15 0)
(1 -1.46902e-15 0)
(1 -4.36301e-16 0)
(1 -2.85105e-15 0)
(1 1.62424e-15 0)
(1 -4.62292e-15 0)
(1 7.47066e-15 0)
(1 9.41416e-15 0)
(1 5.50556e-15 0)
(1 -7.08208e-15 0)
(1 -9.85194e-16 0)
(1 4.20367e-16 0)
(1 1.05523e-14 0)
(1 -6.40636e-15 0)
(1 -7.4788e-15 0)
(1 -1.40515e-14 0)
(1 -2.01467e-15 0)
(1 1.66306e-14 0)
(1 1.40474e-14 0)
(1 8.93722e-15 0)
(1 5.42114e-15 0)
(1 2.3078e-15 0)
(1 -2.60552e-15 0)
(1 8.13152e-15 0)
(1 5.51789e-15 0)
(1 5.24196e-15 0)
(1 2.13637e-16 0)
(1 2.0502e-15 0)
(1 -6.79855e-15 0)
(1 -5.92376e-15 0)
(1 -4.39745e-15 0)
(1 -3.24138e-15 0)
(1 -2.64179e-15 0)
(1 -5.18323e-15 0)
(1 -1.92393e-15 0)
(1 6.47638e-15 0)
(1 -9.35143e-16 0)
(1 5.29153e-15 0)
(1 2.80012e-15 0)
(1 5.59818e-15 0)
(1 3.88162e-15 0)
(1 1.62491e-15 0)
(1 -1.19978e-15 0)
(1 4.59067e-15 0)
(1 5.21084e-15 0)
(1 2.55192e-15 0)
(1 3.10252e-15 0)
(1 1.1263e-14 0)
(1 4.04358e-15 0)
(1 6.79062e-16 0)
(1 -5.6117e-15 0)
(1 -5.76533e-15 0)
(1 -2.76405e-15 0)
(1 -3.30462e-15 0)
(1 2.12454e-15 0)
(1 1.19845e-14 0)
(1 6.86387e-15 0)
(1 -8.16018e-16 0)
(1 3.24642e-15 0)
(1 2.03404e-15 0)
(1 -1.07004e-16 0)
(1 9.85308e-15 0)
(1 7.4004e-15 0)
(1 9.96177e-15 0)
(1 1.15882e-14 0)
(1 1.26881e-14 0)
(1 7.06384e-15 0)
(1 -6.97256e-15 0)
(1 -3.94554e-15 0)
(1 -4.78989e-15 0)
(1 -7.0785e-15 0)
(1 -9.67334e-15 0)
(1 -4.1763e-15 0)
(1 1.38356e-15 0)
(1 1.7289e-15 0)
(1 2.76127e-15 0)
(1 1.52837e-15 0)
(1 5.21168e-15 0)
(1 1.02223e-15 0)
(1 -3.52415e-15 0)
(1 -7.30897e-15 0)
(1 -3.40186e-16 0)
(1 8.40176e-16 0)
(1 2.57442e-15 0)
(1 4.11177e-15 0)
(1 2.69626e-15 0)
(1 2.61918e-17 0)
(1 5.18189e-15 0)
(1 3.92649e-15 0)
(1 5.75497e-15 0)
(1 1.51021e-15 0)
(1 4.22739e-15 0)
(1 5.01882e-15 0)
(1 4.75295e-15 0)
(1 1.09682e-14 0)
(1 6.39057e-15 0)
(1 -6.94982e-16 0)
(1 1.60119e-15 0)
(1 6.35836e-15 0)
(1 5.78692e-15 0)
(1 -2.80336e-15 0)
(1 3.86339e-16 0)
(1 1.3069e-15 0)
(1 -3.48603e-15 0)
(1 1.79328e-15 0)
(1 4.60919e-16 0)
(1 -3.25302e-15 0)
(1 1.4908e-15 0)
(1 -6.53853e-15 0)
(1 2.12424e-15 0)
(1 -3.34465e-16 0)
(1 6.52261e-15 0)
(1 5.07686e-15 0)
(1 -1.63221e-15 0)
(1 -7.16196e-15 0)
(1 4.44287e-15 0)
(1 6.67018e-15 0)
(1 9.10799e-15 0)
(1 -2.70953e-15 0)
(1 -5.87416e-15 0)
(1 -1.18211e-15 0)
(1 -1.44829e-15 0)
(1 4.22395e-15 0)
(1 1.08538e-14 0)
(1 5.69038e-15 0)
(1 2.04424e-15 0)
(1 5.14307e-15 0)
(1 3.03531e-15 0)
(1 1.89883e-15 0)
(1 -8.97226e-15 0)
(1 -5.54711e-15 0)
(1 1.52208e-15 0)
(1 -3.56689e-15 0)
(1 -3.64449e-15 0)
(1 4.30333e-15 0)
(1 6.25437e-15 0)
(1 9.21201e-15 0)
(1 9.2414e-15 0)
(1 7.87473e-15 0)
(1 7.51484e-15 0)
(1 -5.2737e-15 0)
(1 -4.06758e-15 0)
(1 9.69256e-17 0)
(1 1.60231e-15 0)
(1 -5.10688e-16 0)
(1 1.0435e-15 0)
(1 6.64123e-15 0)
(1 3.8074e-15 0)
(1 4.24265e-16 0)
(1 -4.27102e-15 0)
(1 -1.94169e-15 0)
(1 -1.58768e-15 0)
(1 2.85015e-15 0)
(1 -1.24945e-15 0)
(1 -2.69146e-15 0)
(1 5.08231e-15 0)
(1 6.88713e-15 0)
(1 6.348e-15 0)
(1 1.00453e-14 0)
(1 7.34276e-16 0)
(1 -2.95778e-15 0)
(1 3.64231e-15 0)
(1 6.18786e-15 0)
(1 5.15612e-15 0)
(1 3.51654e-15 0)
(1 8.31415e-15 0)
(1 2.09552e-15 0)
(1 -2.12181e-15 0)
(1 -8.1034e-15 0)
(1 -7.70756e-16 0)
(1 5.20847e-16 0)
(1 1.81944e-15 0)
(1 4.14729e-15 0)
(1 4.99222e-15 0)
(1 6.56091e-15 0)
(1 8.19896e-16 0)
(1 2.20314e-16 0)
(1 1.70708e-16 0)
(1 1.43507e-15 0)
(1 -2.20295e-15 0)
(1 1.73432e-15 0)
(1 7.77237e-15 0)
(1 8.63454e-15 0)
(1 8.73644e-15 0)
(1 3.3271e-15 0)
(1 2.30275e-15 0)
(1 2.93803e-15 0)
(1 6.9031e-15 0)
(1 5.1891e-15 0)
(1 8.80591e-15 0)
(1 2.2093e-15 0)
(1 8.07217e-15 0)
(1 7.90761e-15 0)
(1 1.0789e-14 0)
(1 7.08778e-15 0)
(1 7.05715e-15 0)
(1 7.98193e-16 0)
(1 -8.64617e-16 0)
(1 1.64638e-15 0)
(1 -1.53512e-15 0)
(1 4.65867e-15 0)
(1 -5.66228e-16 0)
(1 -2.1275e-15 0)
(1 -3.51785e-15 0)
(1 -1.12689e-15 0)
(1 5.0784e-15 0)
(1 -6.89886e-15 0)
(1 -1.32163e-15 0)
(1 -4.02319e-15 0)
(1 9.70895e-15 0)
(1 3.84476e-15 0)
(1 9.32459e-15 0)
(1 2.67375e-15 0)
(1 8.46178e-15 0)
(1 -3.92911e-15 0)
(1 4.43659e-15 0)
(1 -4.58816e-15 0)
(1 -7.92914e-15 0)
(1 -1.08729e-14 0)
(1 -6.28142e-15 0)
(1 3.28787e-15 0)
(1 -2.7542e-15 0)
(1 2.85573e-15 0)
(1 7.04698e-15 0)
(1 1.18322e-14 0)
(1 6.08656e-15 0)
(1 1.08746e-14 0)
(1 -6.45806e-15 0)
(1 -2.7183e-15 0)
(1 1.57173e-15 0)
(1 -9.24654e-16 0)
(1 5.3001e-16 0)
(1 -1.94435e-15 0)
(1 -8.55834e-16 0)
(1 -3.83454e-16 0)
(1 4.12595e-15 0)
(1 2.29467e-15 0)
(1 -9.05748e-15 0)
(1 -4.25365e-15 0)
(1 2.72018e-15 0)
(1 4.67517e-15 0)
(1 2.43543e-15 0)
(1 5.67763e-15 0)
(1 5.06476e-15 0)
(1 3.4968e-15 0)
(1 4.61677e-15 0)
(1 7.71229e-15 0)
(1 -1.1915e-15 0)
(1 4.54388e-15 0)
(1 7.5671e-16 0)
(1 1.36103e-14 0)
(1 2.47092e-15 0)
(1 5.72802e-15 0)
(1 -8.1579e-15 0)
(1 -8.74496e-15 0)
(1 -5.50714e-15 0)
(1 4.13529e-15 0)
(1 1.22149e-14 0)
(1 1.28026e-14 0)
(1 1.14258e-14 0)
(1 7.68125e-15 0)
(1 5.61345e-15 0)
(1 7.62047e-15 0)
(1 2.97619e-15 0)
(1 2.57268e-15 0)
(1 -2.65103e-15 0)
(1 -7.28336e-17 0)
(1 2.98363e-15 0)
(1 1.03515e-15 0)
(1 3.2256e-15 0)
(1 1.00104e-15 0)
(1 2.99687e-15 0)
(1 5.61231e-15 0)
(1 2.48654e-15 0)
(1 1.63109e-15 0)
(1 -3.16977e-16 0)
(1 6.68438e-16 0)
(1 -3.97766e-15 0)
(1 1.08508e-15 0)
(1 2.86572e-15 0)
(1 4.0465e-15 0)
(1 4.47524e-15 0)
(1 2.56959e-15 0)
(1 3.11931e-15 0)
(1 1.05384e-15 0)
(1 -1.75711e-15 0)
(1 5.087e-15 0)
(1 1.56961e-15 0)
(1 3.91479e-15 0)
(1 8.23512e-15 0)
(1 7.70742e-15 0)
(1 1.25959e-14 0)
(1 1.20818e-14 0)
(1 1.35889e-14 0)
(1 8.21953e-15 0)
(1 1.09072e-14 0)
(1 -2.18113e-15 0)
(1 -2.61111e-15 0)
(1 -4.06748e-15 0)
(1 -9.09082e-15 0)
(1 1.44038e-15 0)
(1 2.85029e-15 0)
(1 3.3214e-15 0)
(1 4.29359e-15 0)
(1 1.62855e-15 0)
(1 -5.22151e-15 0)
(1 -8.92089e-15 0)
(1 4.74488e-15 0)
(1 4.28238e-15 0)
(1 1.12728e-14 0)
(1 2.58257e-15 0)
(1 5.68032e-15 0)
(1 -2.68801e-15 0)
(1 9.87557e-15 0)
(1 -3.63963e-16 0)
(1 -4.85633e-15 0)
(1 -9.70362e-15 0)
(1 2.12294e-15 0)
(1 5.23265e-15 0)
(1 7.25616e-15 0)
(1 1.29021e-15 0)
(1 2.57305e-15 0)
(1 1.58428e-15 0)
(1 5.58758e-16 0)
(1 1.63704e-15 0)
(1 -3.39725e-16 0)
(1 -1.63393e-15 0)
(1 -8.32999e-15 0)
(1 -1.43004e-14 0)
(1 -3.17045e-15 0)
(1 8.66382e-16 0)
(1 6.87228e-15 0)
(1 4.93419e-15 0)
(1 8.19301e-15 0)
(1 -2.71459e-15 0)
(1 -2.99556e-15 0)
(1 -8.49897e-15 0)
(1 -4.77153e-15 0)
(1 8.11548e-16 0)
(1 3.92075e-15 0)
(1 1.94569e-14 0)
(1 1.39968e-14 0)
(1 7.4897e-15 0)
(1 3.70833e-15 0)
(1 4.73172e-16 0)
(1 -1.44411e-15 0)
(1 3.60355e-15 0)
(1 4.79065e-15 0)
(1 1.3056e-14 0)
(1 9.42907e-15 0)
(1 7.15996e-15 0)
(1 6.2857e-16 0)
(1 -2.69596e-15 0)
(1 -2.7787e-15 0)
(1 -3.52725e-16 0)
(1 -8.3379e-16 0)
(1 2.69958e-15 0)
(1 1.37221e-15 0)
(1 -1.17094e-15 0)
(1 1.87194e-15 0)
(1 5.59617e-15 0)
(1 8.52582e-16 0)
(1 1.49449e-14 0)
(1 1.293e-14 0)
(1 1.84465e-14 0)
(1 1.59287e-14 0)
(1 5.30001e-15 0)
(1 1.01037e-14 0)
(1 8.30881e-15 0)
(1 3.42404e-15 0)
(1 -2.86529e-15 0)
(1 -3.13213e-15 0)
(1 3.71097e-15 0)
(1 -5.78797e-16 0)
(1 3.66308e-16 0)
(1 5.71387e-15 0)
(1 5.6211e-15 0)
(1 4.29021e-15 0)
(1 3.58204e-15 0)
(1 -5.30979e-16 0)
(1 2.45341e-15 0)
(1 -1.60416e-15 0)
(1 3.56357e-16 0)
(1 -3.32277e-16 0)
(1 -1.64807e-15 0)
(1 -1.67501e-15 0)
(1 2.1016e-15 0)
(1 3.93907e-15 0)
(1 6.83958e-15 0)
(1 7.89735e-15 0)
(1 1.34505e-14 0)
(1 1.77849e-14 0)
(1 1.8838e-14 0)
(1 2.15749e-14 0)
(1 2.35104e-14 0)
(1 1.99407e-14 0)
(1 7.82951e-17 0)
(1 1.74534e-15 0)
(1 3.87499e-15 0)
(1 3.02933e-15 0)
(1 1.72827e-15 0)
(1 -4.37263e-15 0)
(1 -9.64062e-16 0)
(1 3.01232e-15 0)
(1 5.97246e-15 0)
(1 -6.46185e-15 0)
(1 -4.58377e-15 0)
(1 -5.48278e-15 0)
(1 7.22624e-15 0)
(1 -9.97653e-15 0)
(1 4.39411e-15 0)
(1 -1.12339e-15 0)
(1 2.26392e-15 0)
(1 4.89572e-15 0)
(1 5.05248e-15 0)
(1 -1.49781e-15 0)
(1 -7.2995e-15 0)
(1 -3.28494e-15 0)
(1 -1.85929e-15 0)
(1 6.18994e-15 0)
(1 4.32268e-15 0)
(1 1.14725e-14 0)
(1 6.95485e-15 0)
(1 1.92862e-15 0)
(1 -2.70543e-17 0)
(1 -8.32608e-16 0)
(1 -1.57133e-16 0)
(1 3.27946e-15 0)
(1 -3.44537e-15 0)
(1 1.62313e-15 0)
(1 -3.8163e-15 0)
(1 -5.28608e-16 0)
(1 -6.13654e-15 0)
(1 1.09149e-14 0)
(1 -3.17505e-15 0)
(1 -1.06674e-14 0)
(1 -5.72667e-15 0)
(1 6.13598e-15 0)
(1 5.45341e-15 0)
(1 2.34882e-15 0)
(1 6.8111e-15 0)
(1 8.71924e-15 0)
(1 6.51676e-15 0)
(1 3.9037e-15 0)
(1 -1.38474e-15 0)
(1 2.59691e-15 0)
(1 1.16706e-15 0)
(1 1.89709e-15 0)
(1 5.52423e-15 0)
(1 7.07682e-15 0)
(1 6.04538e-15 0)
(1 7.36274e-15 0)
(1 3.44837e-15 0)
(1 6.03971e-15 0)
(1 -1.4077e-15 0)
(1 3.61529e-15 0)
(1 7.20936e-15 0)
(1 3.46966e-15 0)
(1 2.16206e-15 0)
(1 2.42323e-15 0)
(1 7.34422e-15 0)
(1 3.53711e-15 0)
(1 1.29202e-14 0)
(1 1.85879e-14 0)
(1 1.32175e-14 0)
(1 1.01617e-14 0)
(1 2.9445e-15 0)
(1 7.56819e-15 0)
(1 9.95297e-16 0)
(1 5.78416e-15 0)
(1 -8.71467e-16 0)
(1 6.55936e-15 0)
(1 1.01082e-14 0)
(1 -1.01589e-16 0)
(1 5.59415e-15 0)
(1 2.98274e-15 0)
(1 4.53813e-15 0)
(1 -7.90943e-16 0)
(1 -1.82679e-15 0)
(1 3.30721e-15 0)
(1 2.81973e-15 0)
(1 4.53397e-16 0)
(1 8.76377e-15 0)
(1 5.26128e-15 0)
(1 -1.02628e-15 0)
(1 2.82967e-16 0)
(1 3.77131e-15 0)
(1 9.17541e-15 0)
(1 1.2419e-14 0)
(1 7.29765e-15 0)
(1 1.46862e-14 0)
(1 8.79186e-15 0)
(1 1.45564e-14 0)
(1 1.92759e-14 0)
(1 2.88023e-14 0)
(1 2.33971e-14 0)
(1 9.11887e-16 0)
(1 -2.10008e-16 0)
(1 -4.30081e-16 0)
(1 1.57177e-15 0)
(1 -5.27115e-15 0)
(1 -4.53739e-15 0)
(1 -2.74415e-15 0)
(1 1.05839e-15 0)
(1 -1.7717e-15 0)
(1 6.06421e-15 0)
(1 3.02053e-15 0)
(1 -9.5661e-15 0)
(1 -4.22357e-15 0)
(1 -7.29753e-15 0)
(1 2.23652e-15 0)
(1 -1.10372e-15 0)
(1 1.41309e-14 0)
(1 5.69034e-15 0)
(1 1.12022e-14 0)
(1 9.62826e-16 0)
(1 8.19637e-15 0)
(1 -2.19757e-15 0)
(1 -7.47079e-15 0)
(1 -7.9267e-15 0)
(1 -6.14132e-15 0)
(1 -3.52918e-15 0)
(1 -2.90959e-15 0)
(1 -5.00962e-15 0)
(1 -2.22205e-15 0)
(1 -4.31745e-16 0)
(1 6.00692e-15 0)
(1 4.06512e-15 0)
(1 2.2481e-15 0)
(1 2.99361e-15 0)
(1 -7.75117e-16 0)
(1 -3.20495e-15 0)
(1 -6.17046e-15 0)
(1 7.23735e-15 0)
(1 -4.843e-15 0)
(1 -8.42792e-15 0)
(1 -2.21772e-15 0)
(1 -3.10455e-15 0)
(1 8.09202e-16 0)
(1 7.78265e-16 0)
(1 1.30851e-15 0)
(1 5.2597e-15 0)
(1 1.18787e-14 0)
(1 4.28489e-15 0)
(1 1.09564e-14 0)
(1 8.01339e-15 0)
(1 9.0188e-15 0)
(1 5.13956e-15 0)
(1 2.55126e-15 0)
(1 1.73619e-15 0)
(1 3.0425e-15 0)
(1 5.51237e-15 0)
(1 5.04777e-15 0)
(1 1.593e-15 0)
(1 -6.11774e-16 0)
(1 5.48703e-16 0)
(1 5.65733e-15 0)
(1 5.49661e-15 0)
(1 4.15205e-15 0)
(1 4.71543e-15 0)
(1 1.03295e-14 0)
(1 1.04186e-14 0)
(1 4.93323e-15 0)
(1 1.00412e-14 0)
(1 3.18341e-15 0)
(1 -3.19649e-16 0)
(1 1.65883e-14 0)
(1 1.15662e-14 0)
(1 7.43831e-15 0)
(1 6.02075e-15 0)
(1 6.05506e-15 0)
(1 1.05239e-14 0)
(1 9.37703e-15 0)
(1 8.4476e-15 0)
(1 5.89787e-15 0)
(1 3.52596e-15 0)
(1 -2.41052e-15 0)
(1 -1.10714e-15 0)
(1 2.19067e-16 0)
(1 5.16032e-15 0)
(1 1.17059e-16 0)
(1 -5.80895e-16 0)
(1 2.73857e-15 0)
(1 1.17151e-15 0)
(1 1.55249e-15 0)
(1 -1.27309e-15 0)
(1 3.71712e-15 0)
(1 4.64228e-15 0)
(1 1.09507e-14 0)
(1 6.09248e-15 0)
(1 1.55501e-14 0)
(1 5.30815e-15 0)
(1 1.06381e-14 0)
(1 1.25867e-14 0)
(1 2.39725e-14 0)
(1 2.20428e-14 0)
(1 2.63417e-15 0)
(1 -5.04906e-15 0)
(1 5.94556e-16 0)
(1 1.06717e-15 0)
(1 -4.76028e-15 0)
(1 1.42489e-15 0)
(1 2.91856e-16 0)
(1 4.39988e-15 0)
(1 -4.6498e-15 0)
(1 2.34968e-15 0)
(1 4.57574e-15 0)
(1 3.46155e-15 0)
(1 -2.01221e-15 0)
(1 -2.28163e-15 0)
(1 -1.68247e-15 0)
(1 -5.99976e-15 0)
(1 1.98727e-15 0)
(1 -9.3716e-15 0)
(1 2.77501e-15 0)
(1 -5.17107e-15 0)
(1 6.7715e-15 0)
(1 3.66487e-15 0)
(1 1.16959e-14 0)
(1 6.18643e-15 0)
(1 2.91136e-16 0)
(1 -3.00474e-15 0)
(1 6.05567e-15 0)
(1 1.4592e-15 0)
(1 1.72458e-15 0)
(1 5.10472e-15 0)
(1 -6.89263e-15 0)
(1 -1.04817e-15 0)
(1 -1.52466e-15 0)
(1 -3.71073e-15 0)
(1 -8.18812e-16 0)
(1 -1.62436e-15 0)
(1 4.19508e-15 0)
(1 -3.32799e-16 0)
(1 -3.10888e-15 0)
(1 -9.59851e-15 0)
(1 5.6869e-16 0)
(1 1.27725e-15 0)
(1 -3.77594e-16 0)
(1 4.3028e-15 0)
(1 -2.02071e-15 0)
(1 5.76302e-15 0)
(1 1.36705e-14 0)
(1 1.56031e-14 0)
(1 1.23226e-14 0)
(1 5.55828e-15 0)
(1 -1.28962e-15 0)
(1 2.82763e-15 0)
(1 -1.40017e-16 0)
(1 3.38541e-15 0)
(1 6.42606e-15 0)
(1 4.01701e-16 0)
(1 -7.63912e-15 0)
(1 3.08439e-15 0)
(1 9.00267e-15 0)
(1 7.90054e-15 0)
(1 8.61391e-15 0)
(1 1.63522e-15 0)
(1 6.6048e-15 0)
(1 4.07161e-18 0)
(1 1.05013e-14 0)
(1 7.35559e-15 0)
(1 5.26005e-15 0)
(1 8.66437e-16 0)
(1 1.01996e-15 0)
(1 9.26354e-15 0)
(1 1.31586e-14 0)
(1 1.39244e-14 0)
(1 1.17802e-14 0)
(1 4.35743e-15 0)
(1 2.91068e-15 0)
(1 6.7698e-17 0)
(1 1.03507e-15 0)
(1 4.7713e-15 0)
(1 1.03186e-15 0)
(1 7.12347e-15 0)
(1 2.14043e-15 0)
(1 1.11935e-14 0)
(1 1.19362e-14 0)
(1 2.1678e-15 0)
(1 2.15713e-15 0)
(1 -4.46112e-16 0)
(1 -1.70055e-15 0)
(1 1.68095e-15 0)
(1 6.03581e-15 0)
(1 4.59832e-15 0)
(1 4.76153e-15 0)
(1 3.22201e-15 0)
(1 7.65305e-15 0)
(1 4.63325e-15 0)
(1 7.43245e-15 0)
(1 9.77249e-15 0)
(1 1.27255e-14 0)
(1 1.29519e-14 0)
(1 1.78994e-14 0)
(1 1.95008e-14 0)
(1 3.73862e-15 0)
(1 -3.17099e-15 0)
(1 -3.79826e-15 0)
(1 -1.58826e-15 0)
(1 -8.57142e-16 0)
(1 8.52106e-16 0)
(1 -3.07086e-15 0)
(1 4.43043e-15 0)
(1 -7.74317e-15 0)
(1 2.12347e-15 0)
(1 7.83329e-15 0)
(1 3.93754e-15 0)
(1 5.08434e-15 0)
(1 1.17464e-15 0)
(1 -9.99137e-15 0)
(1 -2.09187e-15 0)
(1 -5.16257e-15 0)
(1 5.54226e-15 0)
(1 6.55497e-15 0)
(1 2.08354e-14 0)
(1 4.62638e-15 0)
(1 -2.57309e-15 0)
(1 -7.68557e-15 0)
(1 -1.59128e-14 0)
(1 -1.05596e-14 0)
(1 -5.27288e-15 0)
(1 7.3281e-16 0)
(1 1.38989e-15 0)
(1 3.95316e-15 0)
(1 4.49442e-15 0)
(1 -5.97355e-15 0)
(1 -3.11704e-15 0)
(1 3.78291e-15 0)
(1 2.23118e-15 0)
(1 1.24794e-15 0)
(1 2.61455e-15 0)
(1 6.73565e-15 0)
(1 -1.18195e-14 0)
(1 -3.74634e-15 0)
(1 -8.76089e-16 0)
(1 2.16916e-16 0)
(1 -4.55538e-16 0)
(1 -4.13268e-15 0)
(1 2.3704e-16 0)
(1 3.9235e-16 0)
(1 1.01527e-14 0)
(1 1.38637e-14 0)
(1 2.44439e-14 0)
(1 9.21454e-15 0)
(1 6.23151e-15 0)
(1 -1.06143e-15 0)
(1 1.8502e-16 0)
(1 -4.95246e-15 0)
(1 1.58715e-15 0)
(1 4.02587e-15 0)
(1 5.33379e-15 0)
(1 7.85417e-16 0)
(1 -1.80731e-15 0)
(1 -6.43382e-15 0)
(1 -4.95406e-15 0)
(1 -4.68169e-15 0)
(1 3.97131e-15 0)
(1 1.22156e-14 0)
(1 1.44498e-14 0)
(1 1.10173e-14 0)
(1 1.05223e-14 0)
(1 3.52411e-15 0)
(1 1.65662e-15 0)
(1 9.79383e-16 0)
(1 7.90804e-15 0)
(1 -1.76258e-15 0)
(1 6.00381e-16 0)
(1 9.46939e-15 0)
(1 3.83352e-15 0)
(1 6.39646e-15 0)
(1 2.92936e-15 0)
(1 -5.71192e-16 0)
(1 2.68392e-15 0)
(1 2.90884e-15 0)
(1 9.069e-15 0)
(1 5.48259e-15 0)
(1 8.4346e-15 0)
(1 5.27344e-15 0)
(1 5.85199e-15 0)
(1 4.42683e-15 0)
(1 6.41333e-15 0)
(1 3.09121e-15 0)
(1 5.11297e-15 0)
(1 4.98101e-15 0)
(1 7.39596e-15 0)
(1 2.5526e-15 0)
(1 3.06527e-15 0)
(1 2.25923e-15 0)
(1 -6.21906e-17 0)
(1 -2.152e-15 0)
(1 1.00503e-14 0)
(1 1.14933e-14 0)
(1 1.13238e-14 0)
(1 1.0612e-14 0)
(1 1.1594e-14 0)
(1 -1.26151e-17 0)
(1 2.21176e-15 0)
(1 -5.4954e-15 0)
(1 -6.47441e-15 0)
(1 9.90013e-17 0)
(1 -9.11804e-16 0)
(1 -3.13134e-15 0)
(1 6.21303e-16 0)
(1 4.18874e-15 0)
(1 1.58009e-14 0)
(1 6.75194e-15 0)
(1 -9.17554e-16 0)
(1 -6.49449e-15 0)
(1 -4.35092e-15 0)
(1 -1.12047e-14 0)
(1 3.00567e-15 0)
(1 -2.51695e-15 0)
(1 6.70594e-15 0)
(1 -4.97341e-15 0)
(1 8.7825e-15 0)
(1 -2.21724e-15 0)
(1 1.8818e-15 0)
(1 -9.82188e-15 0)
(1 -3.91299e-15 0)
(1 2.16284e-15 0)
(1 2.44211e-16 0)
(1 -3.5119e-15 0)
(1 -5.19983e-15 0)
(1 2.26374e-15 0)
(1 7.55763e-17 0)
(1 4.05148e-15 0)
(1 3.36597e-16 0)
(1 -5.27599e-15 0)
(1 -8.60539e-15 0)
(1 -1.06023e-15 0)
(1 9.46086e-15 0)
(1 9.15607e-15 0)
(1 -2.35589e-15 0)
(1 -4.88409e-15 0)
(1 -5.60437e-15 0)
(1 -4.89401e-15 0)
(1 -8.50448e-15 0)
(1 2.86146e-15 0)
(1 6.42352e-15 0)
(1 1.15794e-14 0)
(1 1.67157e-14 0)
(1 1.05999e-14 0)
(1 6.05142e-15 0)
(1 2.81808e-15 0)
(1 1.65707e-15 0)
(1 -2.18183e-15 0)
(1 -2.59362e-15 0)
(1 1.83213e-15 0)
(1 6.93584e-15 0)
(1 -3.92749e-16 0)
(1 1.26296e-14 0)
(1 1.55196e-14 0)
(1 2.0996e-15 0)
(1 -1.74932e-15 0)
(1 -7.54954e-17 0)
(1 -5.8106e-15 0)
(1 4.23041e-15 0)
(1 -4.50137e-15 0)
(1 1.3116e-14 0)
(1 -1.00483e-15 0)
(1 1.0936e-14 0)
(1 1.00882e-14 0)
(1 7.15126e-15 0)
(1 3.90435e-15 0)
(1 3.45462e-15 0)
(1 -1.51724e-15 0)
(1 4.261e-15 0)
(1 6.74169e-15 0)
(1 1.00916e-14 0)
(1 6.15459e-15 0)
(1 7.55301e-15 0)
(1 8.43028e-15 0)
(1 1.67213e-14 0)
(1 1.29026e-14 0)
(1 7.74861e-15 0)
(1 1.81444e-15 0)
(1 1.33039e-15 0)
(1 -1.01437e-15 0)
(1 5.16722e-15 0)
(1 7.58957e-15 0)
(1 9.71814e-15 0)
(1 5.41452e-15 0)
(1 8.33061e-15 0)
(1 4.9391e-15 0)
(1 5.04065e-15 0)
(1 5.57748e-15 0)
(1 8.80997e-15 0)
(1 -3.25865e-15 0)
(1 -3.30258e-15 0)
(1 1.40622e-15 0)
(1 1.03864e-14 0)
(1 1.46403e-14 0)
(1 1.19595e-14 0)
(1 1.16169e-14 0)
(1 9.64811e-15 0)
(1 2.36153e-15 0)
(1 -3.68367e-15 0)
(1 2.7901e-15 0)
(1 -1.16338e-14 0)
(1 -1.94744e-16 0)
(1 1.20836e-15 0)
(1 2.56046e-15 0)
(1 -1.62546e-14 0)
(1 6.23218e-15 0)
(1 4.19549e-16 0)
(1 6.40244e-15 0)
(1 9.89847e-15 0)
(1 -7.90668e-16 0)
(1 -3.45956e-15 0)
(1 -3.54453e-15 0)
(1 -4.6602e-15 0)
(1 -3.59665e-16 0)
(1 -7.01601e-15 0)
(1 -6.25807e-15 0)
(1 -3.15168e-15 0)
(1 -3.24011e-15 0)
(1 1.67188e-15 0)
(1 1.34032e-14 0)
(1 1.41138e-14 0)
(1 1.02468e-14 0)
(1 3.39425e-15 0)
(1 -3.31145e-15 0)
(1 -6.93406e-15 0)
(1 -5.88433e-16 0)
(1 -3.10692e-15 0)
(1 1.57841e-15 0)
(1 -2.14641e-15 0)
(1 -2.69635e-15 0)
(1 -2.93942e-15 0)
(1 -2.49301e-15 0)
(1 2.14405e-15 0)
(1 3.02546e-15 0)
(1 2.0056e-15 0)
(1 -2.45939e-15 0)
(1 -7.46106e-15 0)
(1 -7.16994e-15 0)
(1 8.07197e-17 0)
(1 8.70102e-15 0)
(1 1.01222e-14 0)
(1 1.20044e-14 0)
(1 9.34138e-15 0)
(1 1.73558e-15 0)
(1 -4.76903e-15 0)
(1 -3.96272e-15 0)
(1 6.69132e-17 0)
(1 -2.15629e-15 0)
(1 3.48885e-15 0)
(1 9.70818e-15 0)
(1 1.2911e-14 0)
(1 1.13476e-14 0)
(1 7.95998e-15 0)
(1 7.31649e-15 0)
(1 1.02948e-14 0)
(1 3.82408e-15 0)
(1 -2.68342e-15 0)
(1 1.82969e-15 0)
(1 -2.89956e-15 0)
(1 -1.32744e-15 0)
(1 3.11137e-15 0)
(1 9.1366e-15 0)
(1 6.28771e-15 0)
(1 1.21411e-14 0)
(1 5.46346e-15 0)
(1 1.2536e-14 0)
(1 7.50897e-15 0)
(1 5.33436e-15 0)
(1 1.06387e-14 0)
(1 5.01756e-15 0)
(1 7.4326e-15 0)
(1 4.83673e-15 0)
(1 9.26766e-15 0)
(1 1.03749e-14 0)
(1 7.55499e-15 0)
(1 1.26091e-14 0)
(1 7.07017e-15 0)
(1 1.04199e-14 0)
(1 1.36535e-15 0)
(1 2.55541e-15 0)
(1 4.21154e-15 0)
(1 2.98114e-16 0)
(1 -1.24922e-15 0)
(1 2.52077e-15 0)
(1 3.22572e-15 0)
(1 6.01605e-16 0)
(1 2.99469e-15 0)
(1 4.85828e-15 0)
(1 7.17058e-15 0)
(1 1.05658e-15 0)
(1 4.0805e-15 0)
(1 7.41556e-15 0)
(1 1.25648e-14 0)
(1 1.02131e-14 0)
(1 4.64621e-15 0)
(1 1.07327e-14 0)
(1 1.21944e-14 0)
(1 -1.87067e-15 0)
(1 -6.78152e-15 0)
(1 -6.07468e-16 0)
(1 1.25642e-15 0)
(1 5.57007e-15 0)
(1 4.0727e-15 0)
(1 1.62116e-14 0)
(1 2.18808e-15 0)
(1 -2.03712e-15 0)
(1 -1.18339e-14 0)
(1 -4.11161e-15 0)
(1 -2.13918e-15 0)
(1 -2.40686e-15 0)
(1 1.9523e-15 0)
(1 -6.20262e-15 0)
(1 -1.01018e-14 0)
(1 -3.35144e-15 0)
(1 8.39178e-16 0)
(1 -1.53912e-16 0)
(1 -1.89128e-15 0)
(1 6.69033e-15 0)
(1 -1.59719e-15 0)
(1 9.24446e-15 0)
(1 -2.11186e-15 0)
(1 -8.98063e-15 0)
(1 -5.34072e-15 0)
(1 -1.08624e-14 0)
(1 -4.50453e-15 0)
(1 -3.92994e-16 0)
(1 1.83603e-15 0)
(1 1.79099e-15 0)
(1 4.01074e-16 0)
(1 3.24715e-15 0)
(1 4.86081e-15 0)
(1 4.81367e-15 0)
(1 1.15843e-15 0)
(1 -3.3317e-16 0)
(1 -1.22984e-15 0)
(1 -1.26278e-15 0)
(1 -1.66557e-15 0)
(1 -1.1055e-14 0)
(1 5.85147e-15 0)
(1 9.92253e-15 0)
(1 2.4739e-16 0)
(1 9.86205e-15 0)
(1 -1.78543e-15 0)
(1 3.715e-15 0)
(1 -2.17927e-15 0)
(1 -9.07715e-17 0)
(1 9.15532e-16 0)
(1 7.47193e-15 0)
(1 6.33529e-15 0)
(1 7.03867e-15 0)
(1 2.95048e-15 0)
(1 7.87588e-15 0)
(1 3.42479e-16 0)
(1 1.941e-15 0)
(1 1.04011e-14 0)
(1 7.53511e-16 0)
(1 -8.1891e-15 0)
(1 -9.78413e-16 0)
(1 5.42604e-16 0)
(1 5.09983e-15 0)
(1 3.50028e-16 0)
(1 6.15911e-15 0)
(1 -2.07201e-15 0)
(1 -5.03243e-15 0)
(1 -4.32831e-15 0)
(1 6.82332e-15 0)
(1 6.97473e-15 0)
(1 9.34717e-15 0)
(1 1.12618e-14 0)
(1 1.1297e-14 0)
(1 5.54859e-15 0)
(1 1.3674e-14 0)
(1 6.245e-15 0)
(1 1.92999e-15 0)
(1 1.15359e-15 0)
(1 7.89559e-15 0)
(1 1.24281e-14 0)
(1 1.10122e-14 0)
(1 8.49234e-15 0)
(1 8.00385e-15 0)
(1 5.83614e-15 0)
(1 3.68075e-15 0)
(1 1.82585e-15 0)
(1 -7.15221e-16 0)
(1 -5.70489e-15 0)
(1 -8.6519e-18 0)
(1 -3.73039e-16 0)
(1 3.15443e-15 0)
(1 1.06152e-15 0)
(1 5.2273e-15 0)
(1 9.6455e-15 0)
(1 8.69757e-15 0)
(1 1.15118e-14 0)
(1 8.63233e-15 0)