/*--------------------------------*- C++ -*----------------------------------*\
| =========                 |                                                 |
| \\      /  F ield         | OpenFOAM: The Open Source CFD Toolbox           |
|  \\    /   O peration     | Version:  v2012                                 |
|   \\  /    A nd           | Website:  www.openfoam.com                      |
|    \\/     M anipulation  |                                                 |
\*---------------------------------------------------------------------------*/
FoamFile
{
    version     2.0;
    format      ascii;
    class       surfaceScalarField;
    location    "16.5";
    object      phi;
}
// * * * * * * * * * * * * * * * * * * * * * * * * * * * * * * * * * * * * * //

dimensions      [0 3 -1 0 0 0 0];
oriented        oriented;


internalField   nonuniform List<scalar> 
130560
(
3.31619e-06
-3.31619e-06
6.63259e-06
-3.3164e-06
9.94939e-06
-3.3168e-06
1.32668e-05
-3.3174e-06
1.6585e-05
-3.31819e-06
1.99042e-05
-3.31919e-06
2.32245e-05
-3.32037e-06
2.65463e-05
-3.32175e-06
2.98696e-05
-3.32332e-06
3.31947e-05
-3.32507e-06
3.65217e-05
-3.32701e-06
3.98508e-05
-3.32912e-06
4.31822e-05
-3.33141e-06
4.65161e-05
-3.33386e-06
4.98526e-05
-3.33648e-06
5.31918e-05
-3.33925e-06
5.6534e-05
-3.34218e-06
5.98792e-05
-3.34524e-06
6.32277e-05
-3.34845e-06
6.65795e-05
-3.35178e-06
6.99347e-05
-3.35523e-06
7.32935e-05
-3.35878e-06
7.66559e-05
-3.36245e-06
8.00221e-05
-3.3662e-06
8.33921e-05
-3.37003e-06
8.67661e-05
-3.37393e-06
9.0144e-05
-3.37789e-06
9.35258e-05
-3.38189e-06
9.69118e-05
-3.38592e-06
0.000100302
-3.38997e-06
0.000103696
-3.39403e-06
0.000107094
-3.39808e-06
0.000110496
-3.40209e-06
0.000113902
-3.40607e-06
0.000117312
-3.40999e-06
0.000120726
-3.41382e-06
0.000124143
-3.41757e-06
0.000127565
-3.42119e-06
0.000130989
-3.42469e-06
0.000134417
-3.42802e-06
0.000137848
-3.43119e-06
0.000141283
-3.43415e-06
0.00014472
-3.43689e-06
0.000148159
-3.43938e-06
0.000151601
-3.44161e-06
0.000155044
-3.44354e-06
0.000158489
-3.44514e-06
0.000161936
-3.44641e-06
0.000165383
-3.44729e-06
0.000168831
-3.44777e-06
0.000172278
-3.44782e-06
0.000175726
-3.44741e-06
0.000179172
-3.4465e-06
0.000182617
-3.44507e-06
0.000186061
-3.44309e-06
0.000189501
-3.44051e-06
0.000192938
-3.43731e-06
0.000196372
-3.43346e-06
0.000199801
-3.42892e-06
0.000203224
-3.42365e-06
0.000206642
-3.41762e-06
0.000210053
-3.41079e-06
0.000213456
-3.40313e-06
0.000216851
-3.3946e-06
0.000220236
-3.38516e-06
0.00022361
-3.37478e-06
0.000226974
-3.36342e-06
0.000230325
-3.35104e-06
0.000233663
-3.3376e-06
0.000236986
-3.32306e-06
0.000240293
-3.3074e-06
0.000243584
-3.29057e-06
0.000246856
-3.27253e-06
0.000250109
-3.25325e-06
0.000253342
-3.23269e-06
0.000256553
-3.21082e-06
0.00025974
-3.1876e-06
0.000262903
-3.163e-06
0.00026604
-3.13699e-06
0.00026915
-3.10953e-06
0.000272231
-3.0806e-06
0.000275281
-3.05017e-06
0.000278299
-3.0182e-06
0.000281284
-2.98468e-06
0.000284233
-2.94957e-06
0.000287146
-2.91287e-06
0.000290021
-2.87453e-06
0.000292855
-2.83456e-06
0.000295648
-2.79292e-06
0.000298398
-2.74962e-06
0.000301102
-2.70463e-06
0.00030376
-2.65794e-06
0.00030637
-2.60956e-06
0.000308929
-2.55948e-06
0.000311437
-2.50769e-06
0.000313891
-2.4542e-06
0.00031629
-2.39902e-06
0.000318632
-2.34216e-06
0.000320916
-2.28362e-06
0.000323139
-2.22342e-06
0.000325301
-2.16158e-06
0.000327399
-2.09812e-06
0.000329432
-2.03307e-06
0.000331399
-1.96646e-06
0.000333297
-1.89831e-06
0.000335126
-1.82866e-06
0.000336883
-1.75756e-06
0.000338568
-1.68503e-06
0.000340179
-1.61114e-06
0.000341715
-1.53592e-06
0.000343175
-1.45944e-06
0.000344556
-1.38173e-06
0.000345859
-1.30287e-06
0.000347082
-1.22291e-06
0.000348224
-1.14191e-06
0.000349284
-1.05994e-06
0.000350261
-9.77073e-07
0.000351155
-8.93374e-07
0.000351963
-8.08916e-07
0.000352687
-7.23774e-07
0.000353325
-6.38024e-07
0.000353877
-5.51743e-07
0.000354342
-4.65012e-07
0.00035472
-3.77908e-07
0.00035501
-2.90515e-07
0.000355213
-2.02911e-07
0.000355328
-1.15181e-07
0.000355356
-2.7405e-08
0.000355296
6.03342e-08
0.000355148
1.47955e-07
0.000354912
2.35376e-07
0.00035459
3.22518e-07
0.00035418
4.09299e-07
0.000353685
4.95643e-07
0.000353103
5.81472e-07
0.000352437
6.6671e-07
0.000351685
7.51284e-07
0.00035085
8.35123e-07
0.000349932
9.18155e-07
0.000348932
1.00031e-06
0.00034785
1.08154e-06
0.000346688
1.16176e-06
0.000345447
1.24092e-06
0.000344129
1.31896e-06
0.000342733
1.39583e-06
0.000341261
1.47148e-06
0.000339715
1.54586e-06
0.000338096
1.61892e-06
0.000336406
1.69062e-06
0.000334645
1.76093e-06
0.000332815
1.8298e-06
0.000330918
1.89721e-06
0.000328955
1.96312e-06
0.000326927
2.02752e-06
0.000324837
2.09037e-06
0.000322685
2.15166e-06
0.000320474
2.21137e-06
0.000318204
2.26948e-06
0.000315878
2.32599e-06
0.000313497
2.38089e-06
0.000311063
2.43418e-06
0.000308577
2.48584e-06
0.000306042
2.53589e-06
0.000303457
2.58432e-06
0.000300826
2.63114e-06
0.00029815
2.67636e-06
0.00029543
2.71999e-06
0.000292668
2.76203e-06
0.000289865
2.80252e-06
0.000287024
2.84145e-06
0.000284145
2.87885e-06
0.00028123
2.91473e-06
0.000278281
2.94913e-06
0.000275299
2.98206e-06
0.000272285
3.01354e-06
0.000269242
3.04361e-06
0.00026617
3.07228e-06
0.00026307
3.09959e-06
0.000259944
3.12556e-06
0.000256794
3.15022e-06
0.000253621
3.17361e-06
0.000250425
3.19576e-06
0.000247208
3.21668e-06
0.000243972
3.23643e-06
0.000240717
3.25502e-06
0.000237444
3.2725e-06
0.000234155
3.28889e-06
0.000230851
3.30423e-06
0.000227533
3.31855e-06
0.000224201
3.33189e-06
0.000220856
3.34427e-06
0.000217501
3.35573e-06
0.000214134
3.36631e-06
0.000210758
3.37603e-06
0.000207373
3.38493e-06
0.00020398
3.39305e-06
0.00020058
3.4004e-06
0.000197173
3.40703e-06
0.00019376
3.41297e-06
0.000190342
3.41824e-06
0.000186919
3.42288e-06
0.000183492
3.42692e-06
0.000180061
3.43038e-06
0.000176628
3.4333e-06
0.000173192
3.4357e-06
0.000169755
3.43761e-06
0.000166316
3.43907e-06
0.000162876
3.44008e-06
0.000159435
3.44069e-06
0.000155994
3.44092e-06
0.000152553
3.44078e-06
0.000149113
3.44032e-06
0.000145673
3.43954e-06
0.000142235
3.43847e-06
0.000138798
3.43714e-06
0.000135362
3.43556e-06
0.000131929
3.43377e-06
0.000128497
3.43176e-06
0.000125067
3.42958e-06
0.00012164
3.42724e-06
0.000118215
3.42475e-06
0.000114793
3.42213e-06
0.000111374
3.4194e-06
0.000107957
3.41658e-06
0.000104543
3.41369e-06
0.000101133
3.41074e-06
9.77249e-05
3.40773e-06
9.43202e-05
3.4047e-06
9.09186e-05
3.40165e-06
8.752e-05
3.3986e-06
8.41244e-05
3.39556e-06
8.07319e-05
3.39253e-06
7.73424e-05
3.38954e-06
7.39558e-05
3.38659e-06
7.05721e-05
3.3837e-06
6.71912e-05
3.38087e-06
6.38131e-05
3.37812e-06
6.04376e-05
3.37545e-06
5.70647e-05
3.37287e-06
5.36944e-05
3.37039e-06
5.03263e-05
3.36802e-06
4.69606e-05
3.36576e-06
4.3597e-05
3.36362e-06
4.02353e-05
3.36161e-06
3.68756e-05
3.35974e-06
3.35176e-05
3.358e-06
3.01612e-05
3.3564e-06
2.68063e-05
3.35495e-06
2.34526e-05
3.35366e-06
2.01001e-05
3.35251e-06
1.67486e-05
3.35153e-06
1.33978e-05
3.3507e-06
1.00478e-05
3.35004e-06
6.69826e-06
3.34954e-06
3.34905e-06
3.34921e-06
3.34905e-06
3.316e-06
-6.63219e-06
6.6322e-06
-6.63259e-06
9.9488e-06
-6.6334e-06
1.3266e-05
-6.6346e-06
1.6584e-05
-6.63619e-06
1.9903e-05
-6.63818e-06
2.32232e-05
-6.64056e-06
2.65447e-05
-6.64332e-06
2.98679e-05
-6.64646e-06
3.31928e-05
-6.64997e-06
3.65196e-05
-6.65384e-06
3.98486e-05
-6.65808e-06
4.31798e-05
-6.66265e-06
4.65135e-05
-6.66757e-06
4.98498e-05
-6.67281e-06
5.31889e-05
-6.67836e-06
5.6531e-05
-6.68421e-06
5.98761e-05
-6.69035e-06
6.32244e-05
-6.69677e-06
6.65761e-05
-6.70343e-06
6.99312e-05
-6.71034e-06
7.32899e-05
-6.71747e-06
7.66522e-05
-6.7248e-06
8.00183e-05
-6.73232e-06
8.33883e-05
-6.73999e-06
8.67622e-05
-6.7478e-06
9.014e-05
-6.75573e-06
9.35219e-05
-6.76375e-06
9.69078e-05
-6.77183e-06
0.000100298
-6.77995e-06
0.000103692
-6.78808e-06
0.00010709
-6.79618e-06
0.000110492
-6.80423e-06
0.000113898
-6.8122e-06
0.000117308
-6.82005e-06
0.000120722
-6.82775e-06
0.00012414
-6.83525e-06
0.000127561
-6.84253e-06
0.000130986
-6.84953e-06
0.000134414
-6.85623e-06
0.000137846
-6.86257e-06
0.00014128
-6.86852e-06
0.000144717
-6.87402e-06
0.000148157
-6.87904e-06
0.000151599
-6.88351e-06
0.000155043
-6.8874e-06
0.000158488
-6.89064e-06
0.000161935
-6.89319e-06
0.000165383
-6.89499e-06
0.000168831
-6.89598e-06
0.000172279
-6.89611e-06
0.000175727
-6.89531e-06
0.000179174
-6.89353e-06
0.00018262
-6.8907e-06
0.000186063
-6.88676e-06
0.000189504
-6.88165e-06
0.000192942
-6.87529e-06
0.000196377
-6.86761e-06
0.000199806
-6.85856e-06
0.000203231
-6.84806e-06
0.000206649
-6.83603e-06
0.000210061
-6.82242e-06
0.000213465
-6.80713e-06
0.00021686
-6.79011e-06
0.000220246
-6.77127e-06
0.000223622
-6.75055e-06
0.000226986
-6.72786e-06
0.000230339
-6.70313e-06
0.000233677
-6.67629e-06
0.000237001
-6.64726e-06
0.00024031
-6.61597e-06
0.000243602
-6.58234e-06
0.000246876
-6.54629e-06
0.00025013
-6.50777e-06
0.000253364
-6.46669e-06
0.000256576
-6.42298e-06
0.000259765
-6.37658e-06
0.00026293
-6.32742e-06
0.000266068
-6.27543e-06
0.000269179
-6.22054e-06
0.000272261
-6.16271e-06
0.000275313
-6.10187e-06
0.000278333
-6.03796e-06
0.000281319
-5.97094e-06
0.00028427
-5.90075e-06
0.000287185
-5.82735e-06
0.000290061
-5.75071e-06
0.000292897
-5.67077e-06
0.000295692
-5.58752e-06
0.000298443
-5.50091e-06
0.000301149
-5.41094e-06
0.000303809
-5.31758e-06
0.00030642
-5.22082e-06
0.000308981
-5.12065e-06
0.000311491
-5.01708e-06
0.000313947
-4.9101e-06
0.000316347
-4.79973e-06
0.000318691
-4.68599e-06
0.000320976
-4.56889e-06
0.000323201
-4.44848e-06
0.000325365
-4.32478e-06
0.000327464
-4.19783e-06
0.000329499
-4.0677e-06
0.000331467
-3.93444e-06
0.000333367
-3.79811e-06
0.000335197
-3.65878e-06
0.000336956
-3.51653e-06
0.000338642
-3.37144e-06
0.000340255
-3.2236e-06
0.000341792
-3.07312e-06
0.000343253
-2.92009e-06
0.000344635
-2.76462e-06
0.000345939
-2.60683e-06
0.000347163
-2.44684e-06
0.000348306
-2.28478e-06
0.000349367
-2.12078e-06
0.000350345
-1.95497e-06
0.000351239
-1.7875e-06
0.000352049
-1.61851e-06
0.000352773
-1.44815e-06
0.000353412
-1.27657e-06
0.000353964
-1.10393e-06
0.000354429
-9.30391e-07
0.000354807
-7.56104e-07
0.000355098
-5.81234e-07
0.000355301
-4.05946e-07
0.000355416
-2.30403e-07
0.000355444
-5.47693e-08
0.000355383
1.20791e-07
0.000355235
2.96114e-07
0.000354999
4.71037e-07
0.000354677
6.45399e-07
0.000354267
8.19041e-07
0.000353771
9.91805e-07
0.000353189
1.16354e-06
0.000352521
1.33409e-06
0.000351769
1.50331e-06
0.000350933
1.67105e-06
0.000350014
1.83719e-06
0.000349013
2.00157e-06
0.00034793
2.16408e-06
0.000346768
2.32458e-06
0.000345526
2.48296e-06
0.000344205
2.6391e-06
0.000342808
2.79289e-06
0.000341336
2.94423e-06
0.000339788
3.09303e-06
0.000338168
3.2392e-06
0.000336476
3.38264e-06
0.000334714
3.52329e-06
0.000332882
3.66107e-06
0.000330984
3.79592e-06
0.000329019
3.92777e-06
0.00032699
4.05658e-06
0.000324898
4.1823e-06
0.000322745
4.3049e-06
0.000320532
4.42433e-06
0.000318261
4.54057e-06
0.000315933
4.6536e-06
0.000313551
4.76341e-06
0.000311115
4.86998e-06
0.000308627
4.97331e-06
0.00030609
5.0734e-06
0.000303504
5.17025e-06
0.000300871
5.26389e-06
0.000298193
5.35432e-06
0.000295472
5.44156e-06
0.000292708
5.52564e-06
0.000289904
5.60658e-06
0.000287061
5.68443e-06
0.000284181
5.75921e-06
0.000281264
5.83096e-06
0.000278314
5.89973e-06
0.00027533
5.96556e-06
0.000272315
6.0285e-06
0.00026927
6.08861e-06
0.000266197
6.14592e-06
0.000263096
6.20051e-06
0.000259969
6.25243e-06
0.000256817
6.30173e-06
0.000253643
6.34847e-06
0.000250446
6.39273e-06
0.000247228
6.43455e-06
0.00024399
6.47401e-06
0.000240734
6.51116e-06
0.00023746
6.54608e-06
0.000234171
6.57883e-06
0.000230865
6.60948e-06
0.000227546
6.63809e-06
0.000224213
6.66473e-06
0.000220868
6.68946e-06
0.000217511
6.71235e-06
0.000214144
6.73347e-06
0.000210767
6.75288e-06
0.000207381
6.77065e-06
0.000203988
6.78685e-06
0.000200586
6.80153e-06
0.000197179
6.81476e-06
0.000193765
6.8266e-06
0.000190346
6.83711e-06
0.000186923
6.84636e-06
0.000183495
6.85441e-06
0.000180064
6.86131e-06
0.000176631
6.86711e-06
0.000173194
6.87189e-06
0.000169756
6.87569e-06
0.000166317
6.87857e-06
0.000162876
6.88058e-06
0.000159435
6.88177e-06
0.000155994
6.88219e-06
0.000152553
6.8819e-06
0.000149112
6.88094e-06
0.000145672
6.87936e-06
0.000142234
6.87721e-06
0.000138796
6.87452e-06
0.00013536
6.87135e-06
0.000131926
6.86773e-06
0.000128495
6.86371e-06
0.000125065
6.85933e-06
0.000121637
6.85462e-06
0.000118213
6.84962e-06
0.00011479
6.84437e-06
0.000111371
6.8389e-06
0.000107954
6.83324e-06
0.00010454
6.82744e-06
0.00010113
6.82151e-06
9.77218e-05
6.8155e-06
9.43171e-05
6.80942e-06
9.09155e-05
6.80331e-06
8.75169e-05
6.79719e-06
8.41214e-05
6.79109e-06
8.07289e-05
6.78503e-06
7.73394e-05
6.77904e-06
7.39528e-05
6.77313e-06
7.05692e-05
6.76734e-06
6.71884e-05
6.76167e-06
6.38104e-05
6.75615e-06
6.0435e-05
6.7508e-06
5.70622e-05
6.74564e-06
5.3692e-05
6.74067e-06
5.0324e-05
6.73592e-06
4.69584e-05
6.7314e-06
4.35949e-05
6.72712e-06
4.02334e-05
6.72309e-06
3.68738e-05
6.71933e-06
3.3516e-05
6.71585e-06
3.01597e-05
6.71265e-06
2.68049e-05
6.70975e-06
2.34514e-05
6.70716e-06
2.00991e-05
6.70487e-06
1.67477e-05
6.7029e-06
1.33972e-05
6.70124e-06
1.00473e-05
6.69992e-06
6.69793e-06
6.69892e-06
3.34888e-06
6.69826e-06
6.69793e-06
3.3156e-06
-9.94779e-06
6.63139e-06
-9.94839e-06
9.94759e-06
-9.9496e-06
1.32644e-05
-9.9514e-06
1.6582e-05
-9.9538e-06
1.99006e-05
-9.95679e-06
2.32204e-05
-9.96036e-06
2.65416e-05
-9.96451e-06
2.98644e-05
-9.96922e-06
3.31889e-05
-9.9745e-06
3.65154e-05
-9.98032e-06
3.9844e-05
-9.98668e-06
4.31749e-05
-9.99356e-06
4.65083e-05
-1.00009e-05
4.98443e-05
-1.00088e-05
5.31831e-05
-1.00172e-05
5.65248e-05
-1.0026e-05
5.98697e-05
-1.00352e-05
6.32177e-05
-1.00448e-05
6.65691e-05
-1.00549e-05
6.9924e-05
-1.00652e-05
7.32825e-05
-1.0076e-05
7.66447e-05
-1.0087e-05
8.00106e-05
-1.00983e-05
8.33805e-05
-1.01098e-05
8.67542e-05
-1.01216e-05
9.0132e-05
-1.01335e-05
9.35138e-05
-1.01455e-05
9.68996e-05
-1.01577e-05
0.00010029
-1.01699e-05
0.000103684
-1.01821e-05
0.000107082
-1.01943e-05
0.000110484
-1.02065e-05
0.00011389
-1.02185e-05
0.000117301
-1.02303e-05
0.000120715
-1.02419e-05
0.000124133
-1.02532e-05
0.000127554
-1.02641e-05
0.000130979
-1.02747e-05
0.000134408
-1.02848e-05
0.00013784
-1.02944e-05
0.000141274
-1.03033e-05
0.000144712
-1.03116e-05
0.000148152
-1.03192e-05
0.000151595
-1.0326e-05
0.000155039
-1.03319e-05
0.000158485
-1.03368e-05
0.000161933
-1.03407e-05
0.000165381
-1.03435e-05
0.000168831
-1.03451e-05
0.00017228
-1.03453e-05
0.000175729
-1.03442e-05
0.000179177
-1.03416e-05
0.000182623
-1.03374e-05
0.000186068
-1.03316e-05
0.000189511
-1.0324e-05
0.00019295
-1.03146e-05
0.000196386
-1.03031e-05
0.000199817
-1.02897e-05
0.000203243
-1.0274e-05
0.000206663
-1.0256e-05
0.000210076
-1.02357e-05
0.000213482
-1.02129e-05
0.000216879
-1.01874e-05
0.000220267
-1.01593e-05
0.000223645
-1.01283e-05
0.000227011
-1.00943e-05
0.000230365
-1.00573e-05
0.000233706
-1.00172e-05
0.000237033
-9.97372e-06
0.000240344
-9.92687e-06
0.000243638
-9.87652e-06
0.000246914
-9.82255e-06
0.000250171
-9.76485e-06
0.000253408
-9.70332e-06
0.000256623
-9.63784e-06
0.000259814
-9.56832e-06
0.000262982
-9.49466e-06
0.000266123
-9.41675e-06
0.000269237
-9.33451e-06
0.000272322
-9.24783e-06
0.000275377
-9.15663e-06
0.0002784
-9.06084e-06
0.000281389
-8.96037e-06
0.000284343
-8.85514e-06
0.000287261
-8.7451e-06
0.000290141
-8.63017e-06
0.00029298
-8.51031e-06
0.000295778
-8.38546e-06
0.000298533
-8.25558e-06
0.000301242
-8.12065e-06
0.000303906
-7.98062e-06
0.00030652
-7.83549e-06
0.000309085
-7.68524e-06
0.000311598
-7.52987e-06
0.000314057
-7.36939e-06
0.000316461
-7.20382e-06
0.000318808
-7.03317e-06
0.000321097
-6.85749e-06
0.000323325
-6.67682e-06
0.000325492
-6.49121e-06
0.000327594
-6.30074e-06
0.000329632
-6.10547e-06
0.000331603
-5.9055e-06
0.000333506
-5.70091e-06
0.000335339
-5.49182e-06
0.000337101
-5.27833e-06
0.00033879
-5.06059e-06
0.000340405
-4.83871e-06
0.000341945
-4.61286e-06
0.000343408
-4.38317e-06
0.000344793
-4.14983e-06
0.000346099
-3.913e-06
0.000347325
-3.67286e-06
0.00034847
-3.4296e-06
0.000349533
-3.18343e-06
0.000350512
-2.93454e-06
0.000351408
-2.68315e-06
0.000352219
-2.42948e-06
0.000352945
-2.17375e-06
0.000353584
-1.91619e-06
0.000354137
-1.65703e-06
0.000354603
-1.39651e-06
0.000354982
-1.13488e-06
0.000355273
-8.72374e-07
0.000355477
-6.09237e-07
0.000355592
-3.45717e-07
0.000355619
-8.20609e-08
0.000355559
1.81484e-07
0.00035541
4.44671e-07
0.000355174
7.07257e-07
0.00035485
9.69e-07
0.00035444
1.22966e-06
0.000353942
1.489e-06
0.000353359
1.74679e-06
0.00035269
2.0028e-06
0.000351937
2.25681e-06
0.000351099
2.5086e-06
0.000350179
2.75797e-06
0.000349175
3.00471e-06
0.000348091
3.24862e-06
0.000346926
3.48952e-06
0.000345682
3.72723e-06
0.000344359
3.96158e-06
0.00034296
4.1924e-06
0.000341484
4.41953e-06
0.000339935
4.64285e-06
0.000338312
4.8622e-06
0.000336617
5.07746e-06
0.000334852
5.28852e-06
0.000333017
5.49527e-06
0.000331116
5.69761e-06
0.000329148
5.89546e-06
0.000327116
6.08873e-06
0.000325021
6.27737e-06
0.000322864
6.4613e-06
0.000320648
6.64048e-06
0.000318374
6.81487e-06
0.000316043
6.98444e-06
0.000313657
7.14916e-06
0.000311218
7.30902e-06
0.000308728
7.46401e-06
0.000306187
7.61414e-06
0.000303598
7.75941e-06
0.000300962
7.89984e-06
0.000298281
8.03546e-06
0.000295556
8.16629e-06
0.000292789
8.29237e-06
0.000289982
8.41375e-06
0.000287136
8.53047e-06
0.000284252
8.64259e-06
0.000281333
8.75017e-06
0.00027838
8.85327e-06
0.000275393
8.95195e-06
0.000272376
9.0463e-06
0.000269328
9.13639e-06
0.000266251
9.2223e-06
0.000263148
9.30411e-06
0.000260018
9.38191e-06
0.000256864
9.45578e-06
0.000253687
9.52583e-06
0.000250488
9.59213e-06
0.000247267
9.65478e-06
0.000244027
9.71389e-06
0.000240769
9.76954e-06
0.000237493
9.82184e-06
0.000234201
9.87088e-06
0.000230894
9.91677e-06
0.000227572
9.9596e-06
0.000224238
9.99947e-06
0.000220891
1.00365e-05
0.000217532
1.00707e-05
0.000214163
1.01023e-05
0.000210785
1.01314e-05
0.000207398
1.0158e-05
0.000204002
1.01822e-05
0.0002006
1.02041e-05
0.000197191
1.02239e-05
0.000193776
1.02416e-05
0.000190355
1.02573e-05
0.000186931
1.02711e-05
0.000183502
1.0283e-05
0.00018007
1.02933e-05
0.000176635
1.0302e-05
0.000173198
1.03091e-05
0.000169759
1.03147e-05
0.000166319
1.03189e-05
0.000162877
1.03219e-05
0.000159436
1.03236e-05
0.000155994
1.03242e-05
0.000152552
1.03237e-05
0.000149111
1.03222e-05
0.00014567
1.03198e-05
0.000142231
1.03165e-05
0.000138793
1.03124e-05
0.000135357
1.03076e-05
0.000131922
1.03021e-05
0.00012849
1.0296e-05
0.00012506
1.02894e-05
0.000121632
1.02823e-05
0.000118207
1.02747e-05
0.000114785
1.02668e-05
0.000111365
1.02586e-05
0.000107948
1.02501e-05
0.000104534
1.02413e-05
0.000101124
1.02324e-05
9.77158e-05
1.02233e-05
9.4311e-05
1.02142e-05
9.09094e-05
1.0205e-05
8.75108e-05
1.01958e-05
8.41153e-05
1.01866e-05
8.07229e-05
1.01775e-05
7.73335e-05
1.01684e-05
7.3947e-05
1.01596e-05
7.05635e-05
1.01508e-05
6.71829e-05
1.01423e-05
6.3805e-05
1.0134e-05
6.04298e-05
1.0126e-05
5.70573e-05
1.01182e-05
5.36872e-05
1.01107e-05
5.03195e-05
1.01036e-05
4.69541e-05
1.00968e-05
4.35909e-05
1.00904e-05
4.02297e-05
1.00843e-05
3.68704e-05
1.00787e-05
3.35128e-05
1.00734e-05
3.01568e-05
1.00686e-05
2.68023e-05
1.00643e-05
2.34492e-05
1.00603e-05
2.00971e-05
1.00569e-05
1.67461e-05
1.00539e-05
1.33959e-05
1.00515e-05
1.00463e-05
1.00495e-05
6.69726e-06
1.0048e-05
3.34855e-06
1.0047e-05
1.00465e-05
3.31499e-06
-1.32628e-05
6.63019e-06
-1.32636e-05
9.94579e-06
-1.32652e-05
1.3262e-05
-1.32676e-05
1.6579e-05
-1.32708e-05
1.9897e-05
-1.32748e-05
2.32162e-05
-1.32796e-05
2.65369e-05
-1.32851e-05
2.98591e-05
-1.32914e-05
3.31831e-05
-1.32985e-05
3.6509e-05
-1.33063e-05
3.98371e-05
-1.33148e-05
4.31675e-05
-1.3324e-05
4.65004e-05
-1.33338e-05
4.98359e-05
-1.33444e-05
5.31743e-05
-1.33555e-05
5.65156e-05
-1.33673e-05
5.986e-05
-1.33796e-05
6.32077e-05
-1.33925e-05
6.65587e-05
-1.34059e-05
6.99133e-05
-1.34198e-05
7.32715e-05
-1.34341e-05
7.66334e-05
-1.34489e-05
7.99991e-05
-1.3464e-05
8.33687e-05
-1.34794e-05
8.67423e-05
-1.34951e-05
9.01199e-05
-1.35111e-05
9.35016e-05
-1.35272e-05
9.68874e-05
-1.35435e-05
0.000100277
-1.35599e-05
0.000103671
-1.35762e-05
0.00010707
-1.35926e-05
0.000110472
-1.36088e-05
0.000113878
-1.36249e-05
0.000117289
-1.36407e-05
0.000120703
-1.36563e-05
0.000124122
-1.36714e-05
0.000127544
-1.36861e-05
0.000130969
-1.37003e-05
0.000134398
-1.37139e-05
0.000137831
-1.37267e-05
0.000141266
-1.37388e-05
0.000144704
-1.375e-05
0.000148145
-1.37602e-05
0.000151589
-1.37694e-05
0.000155034
-1.37774e-05
0.000158482
-1.37841e-05
0.00016193
-1.37894e-05
0.00016538
-1.37932e-05
0.00016883
-1.37954e-05
0.000172281
-1.37959e-05
0.000175731
-1.37946e-05
0.000179181
-1.37913e-05
0.000182629
-1.37859e-05
0.000186076
-1.37782e-05
0.00018952
-1.37683e-05
0.000192961
-1.37558e-05
0.000196399
-1.37407e-05
0.000199832
-1.37229e-05
0.00020326
-1.37022e-05
0.000206683
-1.36784e-05
0.000210099
-1.36515e-05
0.000213507
-1.36212e-05
0.000216907
-1.35875e-05
0.000220298
-1.35501e-05
0.000223679
-1.35089e-05
0.000227048
-1.34639e-05
0.000230405
-1.34147e-05
0.00023375
-1.33613e-05
0.000237079
-1.33036e-05
0.000240394
-1.32413e-05
0.000243692
-1.31743e-05
0.000246972
-1.31025e-05
0.000250233
-1.30258e-05
0.000253473
-1.29439e-05
0.000256692
-1.28567e-05
0.000259888
-1.27642e-05
0.000263059
-1.26661e-05
0.000266205
-1.25624e-05
0.000269323
-1.24529e-05
0.000272413
-1.23375e-05
0.000275472
-1.2216e-05
0.0002785
-1.20884e-05
0.000281494
-1.19545e-05
0.000284453
-1.18143e-05
0.000287376
-1.16677e-05
0.00029026
-1.15146e-05
0.000293105
-1.13548e-05
0.000295908
-1.11884e-05
0.000298668
-1.10153e-05
0.000301382
-1.08354e-05
0.000304051
-1.06488e-05
0.00030667
-1.04553e-05
0.00030924
-1.02549e-05
0.000311758
-1.00478e-05
0.000314222
-9.83378e-06
0.000316632
-9.61297e-06
0.000318984
-9.38539e-06
0.000321277
-9.15107e-06
0.000323511
-8.91009e-06
0.000325682
-8.66252e-06
0.00032779
-8.40844e-06
0.000329832
-8.14795e-06
0.000331808
-7.88117e-06
0.000333715
-7.60822e-06
0.000335553
-7.32925e-06
0.000337319
-7.04441e-06
0.000339012
-6.75386e-06
0.000340631
-6.45781e-06
0.000342175
-6.15642e-06
0.000343641
-5.84992e-06
0.00034503
-5.53853e-06
0.000346339
-5.22247e-06
0.000347569
-4.90199e-06
0.000348716
-4.57734e-06
0.000349782
-4.24879e-06
0.000350764
-3.91661e-06
0.000351662
-3.58108e-06
0.000352475
-3.24251e-06
0.000353202
-2.90118e-06
0.000353843
-2.5574e-06
0.000354398
-2.21149e-06
0.000354865
-1.86376e-06
0.000355245
-1.51454e-06
0.000355536
-1.16414e-06
0.00035574
-8.12912e-07
0.000355856
-4.61168e-07
0.000355883
-1.09243e-07
0.000355822
2.42532e-07
0.000355673
5.93829e-07
0.000355436
9.4432e-07
0.000355111
1.29368e-06
0.000354699
1.64159e-06
0.0003542
1.98774e-06
0.000353615
2.33181e-06
0.000352944
2.6735e-06
0.000352189
3.01252e-06
0.000351349
3.34857e-06
0.000350425
3.68137e-06
0.000349419
4.01066e-06
0.000348332
4.33618e-06
0.000347164
4.65766e-06
0.000345916
4.97487e-06
0.00034459
5.28758e-06
0.000343187
5.59558e-06
0.000341708
5.89866e-06
0.000340154
6.19662e-06
0.000338527
6.48928e-06
0.000336828
6.77648e-06
0.000335058
7.05806e-06
0.00033322
7.33388e-06
0.000331314
7.60381e-06
0.000329341
7.86772e-06
0.000327304
8.12553e-06
0.000325205
8.37713e-06
0.000323044
8.62245e-06
0.000320823
8.86142e-06
0.000318543
9.09399e-06
0.000316208
9.32011e-06
0.000313817
9.53976e-06
0.000311373
9.75292e-06
0.000308878
9.95958e-06
0.000306332
1.01597e-05
0.000303738
1.03534e-05
0.000301097
1.05406e-05
0.000298411
1.07214e-05
0.000295682
1.08958e-05
0.000292911
1.10638e-05
0.000290099
1.12256e-05
0.000287248
1.13811e-05
0.00028436
1.15305e-05
0.000281436
1.16739e-05
0.000278478
1.18112e-05
0.000275488
1.19427e-05
0.000272466
1.20684e-05
0.000269414
1.21884e-05
0.000266333
1.23028e-05
0.000263226
1.24117e-05
0.000260092
1.25153e-05
0.000256934
1.26137e-05
0.000253753
1.27069e-05
0.00025055
1.27952e-05
0.000247326
1.28786e-05
0.000244083
1.29572e-05
0.000240821
1.30313e-05
0.000237542
1.31009e-05
0.000234247
1.31661e-05
0.000230937
1.32271e-05
0.000227612
1.32841e-05
0.000224275
1.33371e-05
0.000220925
1.33863e-05
0.000217564
1.34318e-05
0.000214192
1.34738e-05
0.000210812
1.35123e-05
0.000207422
1.35476e-05
0.000204024
1.35797e-05
0.00020062
1.36089e-05
0.000197208
1.36351e-05
0.000193791
1.36585e-05
0.000190369
1.36793e-05
0.000186943
1.36975e-05
0.000183512
1.37134e-05
0.000180079
1.3727e-05
0.000176642
1.37384e-05
0.000173204
1.37477e-05
0.000169763
1.37551e-05
0.000166322
1.37606e-05
0.000162879
1.37644e-05
0.000159436
1.37666e-05
0.000155993
1.37672e-05
0.00015255
1.37665e-05
0.000149108
1.37644e-05
0.000145667
1.3761e-05
0.000142227
1.37565e-05
0.000138788
1.3751e-05
0.000135351
1.37445e-05
0.000131916
1.37371e-05
0.000128484
1.37289e-05
0.000125053
1.372e-05
0.000121625
1.37104e-05
0.000118199
1.37002e-05
0.000114777
1.36896e-05
0.000111357
1.36785e-05
0.00010794
1.36671e-05
0.000104526
1.36554e-05
0.000101115
1.36434e-05
9.77067e-05
1.36312e-05
9.43019e-05
1.3619e-05
9.09002e-05
1.36066e-05
8.75016e-05
1.35943e-05
8.41062e-05
1.3582e-05
8.07139e-05
1.35698e-05
7.73246e-05
1.35577e-05
7.39383e-05
1.35458e-05
7.0555e-05
1.35342e-05
6.71746e-05
1.35227e-05
6.3797e-05
1.35116e-05
6.04221e-05
1.35009e-05
5.70498e-05
1.34905e-05
5.36801e-05
1.34805e-05
5.03127e-05
1.34709e-05
4.69477e-05
1.34618e-05
4.35849e-05
1.34532e-05
4.0224e-05
1.34451e-05
3.68651e-05
1.34376e-05
3.3508e-05
1.34306e-05
3.01525e-05
1.34241e-05
2.67984e-05
1.34183e-05
2.34457e-05
1.34131e-05
2.00942e-05
1.34085e-05
1.67436e-05
1.34045e-05
1.33939e-05
1.34012e-05
1.00448e-05
1.33985e-05
6.69626e-06
1.33965e-05
3.34805e-06
1.33952e-05
1.33945e-05
3.31419e-06
-1.6577e-05
6.62857e-06
-1.6578e-05
9.94337e-06
-1.658e-05
1.32588e-05
-1.6583e-05
1.6575e-05
-1.6587e-05
1.98922e-05
-1.6592e-05
2.32107e-05
-1.6598e-05
2.65305e-05
-1.6605e-05
2.9852e-05
-1.66129e-05
3.31753e-05
-1.66217e-05
3.65005e-05
-1.66315e-05
3.98279e-05
-1.66421e-05
4.31576e-05
-1.66537e-05
4.64898e-05
-1.66661e-05
4.98247e-05
-1.66793e-05
5.31625e-05
-1.66933e-05
5.65032e-05
-1.6708e-05
5.98471e-05
-1.67235e-05
6.31942e-05
-1.67397e-05
6.65448e-05
-1.67565e-05
6.98989e-05
-1.67739e-05
7.32567e-05
-1.67919e-05
7.66182e-05
-1.68104e-05
7.99836e-05
-1.68294e-05
8.33529e-05
-1.68488e-05
8.67263e-05
-1.68685e-05
9.01037e-05
-1.68885e-05
9.34853e-05
-1.69088e-05
9.6871e-05
-1.69292e-05
0.000100261
-1.69498e-05
0.000103655
-1.69704e-05
0.000107053
-1.69909e-05
0.000110456
-1.70113e-05
0.000113863
-1.70315e-05
0.000117273
-1.70515e-05
0.000120688
-1.7071e-05
0.000124107
-1.70901e-05
0.000127529
-1.71087e-05
0.000130956
-1.71265e-05
0.000134385
-1.71436e-05
0.000137818
-1.71599e-05
0.000141255
-1.71752e-05
0.000144694
-1.71893e-05
0.000148136
-1.72023e-05
0.000151581
-1.72139e-05
0.000155028
-1.72241e-05
0.000158476
-1.72327e-05
0.000161926
-1.72395e-05
0.000165378
-1.72445e-05
0.00016883
-1.72475e-05
0.000172282
-1.72484e-05
0.000175734
-1.72469e-05
0.000179186
-1.7243e-05
0.000182637
-1.72365e-05
0.000186086
-1.72272e-05
0.000189532
-1.7215e-05
0.000192976
-1.71997e-05
0.000196417
-1.71811e-05
0.000199853
-1.71591e-05
0.000203284
-1.71335e-05
0.00020671
-1.7104e-05
0.000210129
-1.70706e-05
0.000213541
-1.7033e-05
0.000216944
-1.69911e-05
0.000220339
-1.69447e-05
0.000223724
-1.68935e-05
0.000227097
-1.68375e-05
0.000230459
-1.67763e-05
0.000233807
-1.67099e-05
0.000237142
-1.6638e-05
0.000240461
-1.65604e-05
0.000243763
-1.64769e-05
0.000247048
-1.63875e-05
0.000250314
-1.62918e-05
0.00025356
-1.61897e-05
0.000256784
-1.60811e-05
0.000259986
-1.59656e-05
0.000263163
-1.58433e-05
0.000266315
-1.57139e-05
0.000269439
-1.55772e-05
0.000272534
-1.54331e-05
0.0002756
-1.52815e-05
0.000278634
-1.51222e-05
0.000281634
-1.49551e-05
0.0002846
-1.478e-05
0.000287529
-1.45969e-05
0.00029042
-1.44056e-05
0.000293271
-1.4206e-05
0.000296081
-1.39981e-05
0.000298847
-1.37818e-05
0.000301569
-1.3557e-05
0.000304244
-1.33237e-05
0.000306871
-1.30819e-05
0.000309447
-1.28315e-05
0.000311972
-1.25725e-05
0.000314443
-1.2305e-05
0.000316859
-1.20289e-05
0.000319218
-1.17443e-05
0.000321518
-1.14513e-05
0.000323758
-1.115e-05
0.000325936
-1.08403e-05
0.00032805
-1.05225e-05
0.000330099
-1.01967e-05
0.000332081
-9.863e-06
0.000333994
-9.52155e-06
0.000335837
-9.17255e-06
0.000337609
-8.81618e-06
0.000339308
-8.45266e-06
0.000340932
-8.08223e-06
0.000342481
-7.70511e-06
0.000343953
-7.32157e-06
0.000345346
-6.93189e-06
0.00034666
-6.53636e-06
0.000347893
-6.13529e-06
0.000349045
-5.72898e-06
0.000350114
-5.31778e-06
0.000351099
-4.90202e-06
0.000352
-4.48207e-06
0.000352816
-4.05829e-06
0.000353546
-3.63105e-06
0.000354189
-3.20075e-06
0.000354746
-2.76776e-06
0.000355214
-2.3325e-06
0.000355595
-1.89536e-06
0.000355888
-1.45676e-06
0.000356092
-1.0171e-06
0.000356208
-5.76801e-07
0.000356235
-1.36277e-07
0.000356173
3.04058e-07
0.000356023
7.43791e-07
0.000355785
1.18251e-06
0.000355459
1.61981e-06
0.000355045
2.05529e-06
0.000354544
2.48856e-06
0.000353957
2.91921e-06
0.000353283
3.34688e-06
0.000352525
3.77119e-06
0.000351682
4.19178e-06
0.000350755
4.6083e-06
0.000349745
5.0204e-06
0.000348653
5.42776e-06
0.000347481
5.83006e-06
0.000346229
6.22701e-06
0.000344898
6.61831e-06
0.00034349
7.00369e-06
0.000342006
7.3829e-06
0.000340447
7.75568e-06
0.000338814
8.12183e-06
0.000337109
8.48112e-06
0.000335334
8.83336e-06
0.00033349
9.17838e-06
0.000331577
9.51601e-06
0.000329599
9.8461e-06
0.000327556
1.01685e-05
0.00032545
1.04832e-05
0.000323283
1.07899e-05
0.000321055
1.10888e-05
0.00031877
1.13796e-05
0.000316427
1.16623e-05
0.00031403
1.19369e-05
0.00031158
1.22033e-05
0.000309078
1.24616e-05
0.000306526
1.27118e-05
0.000303925
1.29539e-05
0.000301278
1.31878e-05
0.000298586
1.34137e-05
0.00029585
1.36316e-05
0.000293072
1.38415e-05
0.000290254
1.40436e-05
0.000287397
1.42379e-05
0.000284504
1.44245e-05
0.000281574
1.46035e-05
0.00027861
1.4775e-05
0.000275613
1.49392e-05
0.000272586
1.50961e-05
0.000269528
1.52459e-05