/*--------------------------------*- C++ -*----------------------------------*\
| =========                 |                                                 |
| \\      /  F ield         | OpenFOAM: The Open Source CFD Toolbox           |
|  \\    /   O peration     | Version:  v2012                                 |
|   \\  /    A nd           | Website:  www.openfoam.com                      |
|    \\/     M anipulation  |                                                 |
\*---------------------------------------------------------------------------*/
FoamFile
{
    version     2.0;
    format      ascii;
    class       volScalarField;
    location    "16.5";
    object      Psi_z;
}
// * * * * * * * * * * * * * * * * * * * * * * * * * * * * * * * * * * * * * //

dimensions      [0 2 -1 0 0 0 0];


internalField   nonuniform List<scalar> 
65536
(
8.28906e-06
2.48677e-05
4.14479e-05
5.80306e-05
7.46167e-05
9.12074e-05
0.000107803
0.000124406
0.000141016
0.000157634
0.000174261
0.000190899
0.000207547
0.000224208
0.000240881
0.000257567
0.000274268
0.000290983
0.000307715
0.000324462
0.000341227
0.000358009
0.000374809
0.000391628
0.000408465
0.000425322
0.000442199
0.000459095
0.000476011
0.000492948
0.000509905
0.000526882
0.00054388
0.000560897
0.000577934
0.00059499
0.000612066
0.00062916
0.000646271
0.0006634
0.000680545
0.000697705
0.000714879
0.000732067
0.000749266
0.000766476
0.000783695
0.00080092
0.000818151
0.000835386
0.000852622
0.000869857
0.000887089
0.000904315
0.000921532
0.000938738
0.00095593
0.000973104
0.000990257
0.00100739
0.00102449
0.00104156
0.00105859
0.00107558
0.00109253
0.00110942
0.00112627
0.00114305
0.00115977
0.00117642
0.00119299
0.00120949
0.00122589
0.00124221
0.00125842
0.00127453
0.00129052
0.0013064
0.00132215
0.00133776
0.00135324
0.00136856
0.00138373
0.00139874
0.00141358
0.00142823
0.0014427
0.00145698
0.00147104
0.0014849
0.00149854
0.00151195
0.00152512
0.00153804
0.00155071
0.00156312
0.00157525
0.00158711
0.00159868
0.00160995
0.00162091
0.00163156
0.00164189
0.0016519
0.00166156
0.00167088
0.00167985
0.00168846
0.00169671
0.00170458
0.00171207
0.00171918
0.0017259
0.00173222
0.00173814
0.00174365
0.00174874
0.00175343
0.00175769
0.00176153
0.00176494
0.00176792
0.00177046
0.00177258
0.00177425
0.00177549
0.0017763
0.00177666
0.00177658
0.00177607
0.00177512
0.00177373
0.0017719
0.00176965
0.00176696
0.00176385
0.00176031
0.00175635
0.00175197
0.00174718
0.00174198
0.00173638
0.00173038
0.00172398
0.0017172
0.00171004
0.0017025
0.00169459
0.00168633
0.0016777
0.00166873
0.00165942
0.00164977
0.0016398
0.00162951
0.00161891
0.001608
0.0015968
0.00158532
0.00157355
0.00156152
0.00154922
0.00153667
0.00152387
0.00151084
0.00149757
0.00148408
0.00147038
0.00145647
0.00144236
0.00142806
0.00141358
0.00139892
0.00138409
0.0013691
0.00135396
0.00133867
0.00132324
0.00130768
0.00129199
0.00127618
0.00126026
0.00124423
0.0012281
0.00121187
0.00119555
0.00117914
0.00116266
0.0011461
0.00112948
0.00111278
0.00109603
0.00107923
0.00106237
0.00104547
0.00102852
0.00101154
0.000994516
0.000977464
0.000960384
0.00094328
0.000926154
0.000909009
0.000891848
0.000874674
0.000857489
0.000840295
0.000823095
0.000805891
0.000788685
0.000771479
0.000754274
0.000737072
0.000719875
0.000702684
0.0006855
0.000668324
0.000651158
0.000634003
0.000616858
0.000599726
0.000582607
0.0005655
0.000548408
0.00053133
0.000514267
0.000497218
0.000480184
0.000463166
0.000446163
0.000429175
0.000412202
0.000395245
0.000378302
0.000361374
0.00034446
0.00032756
0.000310673
0.0002938
0.000276939
0.000260091
0.000243254
0.000226428
0.000209612
0.000192807
0.00017601
0.000159221
0.00014244
0.000125666
0.000108898
9.21355e-05
7.53774e-05
5.8623e-05
4.18715e-05
2.51221e-05
8.37389e-06
2.48668e-05
7.46018e-05
0.000124341
0.000174088
0.000223846
0.000273617
0.000323404
0.000373211
0.000423039
0.000472893
0.000522774
0.000572686
0.000622631
0.000672611
0.000722629
0.000772687
0.000822789
0.000872935
0.000923128
0.000973371
0.00102366
0.00107401
0.00112441
0.00117486
0.00122538
0.00127595
0.00132658
0.00137727
0.00142802
0.00147883
0.0015297
0.00158063
0.00163162
0.00168267
0.00173378
0.00178495
0.00183618
0.00188746
0.0019388
0.00199018
0.00204162
0.0020931
0.00214463
0.00219619
0.00224779
0.00229942
0.00235108
0.00240276
0.00245445
0.00250616
0.00255787
0.00260958
0.00266128
0.00271296
0.00276461
0.00281623
0.00286781
0.00291934
0.0029708
0.00302219
0.0030735
0.0031247
0.00317581
0.00322679
0.00327763
0.00332833
0.00337886
0.00342922
0.00347938
0.00352934
0.00357907
0.00362855
0.00367778
0.00372672
0.00377537
0.0038237
0.00387169
0.00391932
0.00396658
0.00401343
0.00405986
0.00410585
0.00415137
0.0041964
0.00424091
0.00428489
0.00432831
0.00437113
0.00441335
0.00445493
0.00449585
0.00453608
0.0045756
0.00461438
0.0046524
0.00468963
0.00472604
0.00476162
0.00479632
0.00483014
0.00486305
0.00489501
0.00492602
0.00495603
0.00498504
0.00501301
0.00503992
0.00506576
0.0050905
0.00511413
0.00513661
0.00515794
0.0051781
0.00519706
0.00521482
0.00523135
0.00524665
0.0052607
0.00527349
0.005285
0.00529524
0.00530418
0.00531183
0.00531817
0.0053232
0.00532692
0.00532933
0.00533042
0.00533019
0.00532864
0.00532579
0.00532162
0.00531615
0.00530938
0.00530131
0.00529197
0.00528135
0.00526946
0.00525633
0.00524195
0.00522635
0.00520954
0.00519153
0.00517234
0.00515199
0.00513049
0.00510787
0.00508414
0.00505933
0.00503345
0.00500653
0.00497858
0.00494963
0.00491971
0.00488883
0.00485702
0.0048243
0.00479069
0.00475623
0.00472093
0.00468482
0.00464792
0.00461025
0.00457185
0.00453274
0.00449293
0.00445245
0.00441134
0.0043696
0.00432727
0.00428436
0.00424091
0.00419692
0.00415244
0.00410747
0.00406203
0.00401616
0.00396986
0.00392317
0.0038761
0.00382866
0.00378088
0.00373279
0.00368438
0.00363569
0.00358673
0.00353751
0.00348805
0.00343837
0.00338849
0.00333841
0.00328815
0.00323773
0.00318716
0.00313644
0.0030856
0.00303464
0.00298358
0.00293242
0.00288118
0.00282986
0.00277848
0.00272704
0.00267556
0.00262403
0.00257247
0.00252089
0.00246929
0.00241767
0.00236605
0.00231443
0.00226282
0.00221121
0.00215962
0.00210804
0.00205649
0.00200496
0.00195346
0.001902
0.00185056
0.00179916
0.0017478
0.00169649
0.00164521
0.00159397
0.00154278
0.00149164
0.00144054
0.00138948
0.00133847
0.00128751
0.00123659
0.00118572
0.00113489
0.00108411
0.00103336
0.000982665
0.000932006
0.000881387
0.000830806
0.000780261
0.00072975
0.000679273
0.000628827
0.00057841
0.00052802
0.000477655
0.000427313
0.000376992
0.000326689
0.000276402
0.000226128
0.000175866
0.000125612
7.53649e-05
2.51212e-05
4.1443e-05
0.000124331
0.000207227
0.000290136
0.000373062
0.00045601
0.000538986
0.000621994
0.000705038
0.000788124
0.000871257
0.00095444
0.00103768
0.00112098
0.00120434
0.00128777
0.00137126
0.00145484
0.00153849
0.00162223
0.00170605
0.00178996
0.00187395
0.00195805
0.00204223
0.00212651
0.0022109
0.00229538
0.00237996
0.00246464
0.00254943
0.00263431
0.0027193
0.00280439
0.00288958
0.00297486
0.00306024
0.00314571
0.00323127
0.00331692
0.00340265
0.00348846
0.00357434
0.00366028
0.00374628
0.00383234
0.00391844
0.00400458
0.00409074
0.00417693
0.00426312
0.00434931
0.00443548
0.00452162
0.00460772
0.00469377
0.00477974
0.00486563
0.00495142
0.00503708
0.0051226
0.00520796
0.00529314
0.00537813
0.00546288
0.0055474
0.00563164
0.00571558
0.00579921
0.00588248
0.00596538
0.00604788
0.00612994
0.00621154
0.00629264
0.00637321
0.00645321
0.00653263
0.00661141
0.00668952
0.00676693
0.0068436
0.0069195
0.00699457
0.00706879
0.00714211
0.00721449
0.0072859
0.00735629
0.00742562
0.00749384
0.00756093
0.00762682
0.00769148
0.00775487
0.00781695
0.00787767
0.00793699
0.00799486
0.00805126
0.00810613
0.00815943
0.00821112
0.00826117
0.00830954
0.00835618
0.00840107
0.00844416
0.00848541
0.00852481
0.00856231
0.00859787
0.00863148
0.00866311
0.00869272
0.00872029
0.00874581
0.00876924
0.00879056
0.00880976
0.00882683
0.00884175
0.0088545
0.00886507
0.00887346
0.00887967
0.00888368
0.00888549
0.00888511
0.00888253
0.00887777
0.00887081
0.00886169
0.0088504
0.00883695
0.00882136
0.00880365
0.00878383
0.00876192
0.00873795
0.00871193
0.00868389
0.00865386
0.00862186
0.00858792
0.00855207
0.00851435
0.00847478
0.0084334
0.00839025
0.00834535
0.00829875
0.00825048
0.00820057
0.00814908
0.00809604
0.00804148
0.00798544
0.00792798
0.00786912
0.0078089
0.00774738
0.00768458
0.00762055
0.00755533
0.00748895
0.00742147
0.00735292
0.00728333
0.00721275
0.00714122
0.00706876
0.00699544
0.00692126
0.00684629
0.00677054
0.00669406
0.00661688
0.00653904
0.00646056
0.00638148
0.00630183
0.00622165
0.00614095
0.00605978
0.00597816
0.00589611
0.00581367
0.00573085
0.0056477
0.00556422
0.00548044
0.00539639
0.00531208
0.00522754
0.00514279
0.00505785
0.00497273
0.00488746
0.00480204
0.00471651
0.00463086
0.00454512
0.0044593
0.00437342
0.00428748
0.0042015
0.00411549
0.00402946
0.00394342
0.00385738
0.00377135
0.00368534
0.00359934
0.00351338
0.00342745
0.00334157
0.00325574
0.00316995
0.00308423
0.00299856
0.00291296
0.00282743
0.00274197
0.00265657
0.00257126
0.00248601
0.00240084
0.00231575
0.00223074
0.0021458
0.00206094
0.00197615
0.00189144
0.0018068
0.00172223
0.00163773
0.0015533
0.00146894
0.00138464
0.0013004
0.00121621
0.00113209
0.00104801
0.000963986
0.000880006
0.000796067
0.000712166
0.0006283
0.000544464
0.000460655
0.000376868
0.0002931
0.000209347
0.000125604
4.18673e-05
5.80166e-05
0.000174053
0.000290101
0.000406166
0.000522255
0.000638376
0.000754535
0.000870739
0.000986995
0.00110331
0.00121969
0.00133614
0.00145267
0.00156928
0.00168598
0.00180277
0.00191967
0.00203667
0.00215378
0.002271
0.00238834
0.00250581
0.00262341
0.00274113
0.00285899
0.00297698
0.00309511
0.00321339
0.0033318
0.00345036
0.00356906
0.0036879
0.00380688
0.00392601
0.00404527
0.00416467
0.00428421
0.00440387
0.00452366
0.00464358
0.0047636
0.00488374
0.00500398
0.00512431
0.00524472
0.00536521
0.00548577
0.00560637
0.00572702
0.00584769
0.00596837
0.00608905
0.00620971
0.00633033
0.00645089
0.00657138
0.00669176
0.00681203
0.00693215
0.0070521
0.00717186
0.0072914
0.00741068
0.00752969
0.00764838
0.00776673
0.00788471
0.00800227
0.00811938
0.008236
0.0083521
0.00846764
0.00858257
0.00869685
0.00881043
0.00892328
0.00903534
0.00914656
0.00925691
0.00936632
0.00947474
0.00958214
0.00968844
0.0097936
0.00989756
0.0100003
0.0101017
0.0102017
0.0103003
0.0103974
0.010493
0.010587
0.0106793
0.0107699
0.0108587
0.0109456
0.0110307
0.0111138
0.0111949
0.0112739
0.0113508
0.0114254
0.0114979
0.011568
0.0116358
0.0117011
0.011764
0.0118244
0.0118822
0.0119374
0.0119899
0.0120398
0.0120869
0.0121312
0.0121727
0.0122113
0.012247
0.0122799
0.0123098
0.0123367
0.0123606
0.0123815
0.0123993
0.0124142
0.0124259
0.0124346
0.0124402
0.0124428
0.0124422
0.0124386
0.0124319
0.0124222
0.0124094
0.0123936
0.0123747
0.0123529
0.0123281
0.0123003
0.0122696
0.012236
0.0121995
0.0121602
0.0121182
0.0120733
0.0120258
0.0119755
0.0119227
0.0118672
0.0118093
0.0117488
0.0116859
0.0116206
0.0115529
0.011483
0.0114109
0.0113366
0.0112601
0.0111816
0.0111011
0.0110187
0.0109343
0.0108481
0.0107601
0.0106704
0.0105791
0.0104861
0.0103916
0.0102955
0.0101981
0.0100992
0.00999898
0.0098975
0.00979479
0.0096909
0.00958588
0.00947979
0.00937267
0.00926457
0.00915554
0.00904562
0.00893487
0.00882332
0.00871102
0.00859801
0.00848432
0.00837001
0.00825511
0.00813965
0.00802368
0.00790722
0.00779032
0.007673
0.0075553
0.00743724
0.00731886
0.00720018
0.00708123
0.00696204
0.00684263
0.00672303
0.00660326
0.00648333
0.00636328
0.00624312
0.00612286
0.00600253
0.00588215
0.00576172
0.00564126
0.00552079
0.00540033
0.00527987
0.00515944
0.00503904
0.00491868
0.00479838
0.00467813
0.00455796
0.00443786
0.00431783
0.0041979
0.00407805
0.0039583
0.00383865
0.0037191
0.00359965
0.00348031
0.00336107
0.00324195
0.00312292
0.00300401
0.0028852
0.0027665
0.00264791
0.00252941
0.00241102
0.00229273
0.00217453
0.00205642
0.0019384
0.00182047
0.00170262
0.00158485
0.00146715
0.00134952
0.00123195
0.00111444
0.000996984
0.000879577
0.000762212
0.000644885
0.000527589
0.00041032
0.000293071
0.000175837
5.86113e-05
7.45868e-05
0.000223765
0.000372957
0.000522171
0.000671417
0.000820703
0.000970039
0.00111943
0.00126889
0.00141843
0.00156805
0.00171776
0.00186757
0.00201749
0.00216752
0.00231768
0.00246796
0.00261838
0.00276894
0.00291965
0.00307052
0.00322154
0.00337273
0.00352408
0.00367561
0.00382731
0.00397919
0.00413125
0.0042835
0.00443593
0.00458854
0.00474134
0.00489432
0.00504748
0.00520083
0.00535435
0.00550804
0.0056619
0.00581593
0.00597011
0.00612445
0.00627892
0.00643352
0.00658825
0.00674309
0.00689802
0.00705304
0.00720813
0.00736326
0.00751844
0.00767363
0.00782882
0.00798398
0.00813909
0.00829414
0.00844908
0.0086039
0.00875857
0.00891306
0.00906733
0.00922135
0.00937508
0.0095285
0.00968156
0.00983422
0.00998645
0.0101382
0.0102894
0.01044
0.01059
0.0107394
0.010888
0.0110358
0.0111828
0.011329
0.0114741
0.0116183
0.0117614
0.0119033
0.0120441
0.0121836
0.0123218
0.0124585
0.0125938
0.0127276
0.0128597
0.0129902
0.0131189
0.0132458
0.0133707
0.0134937
0.0136147
0.0137334
0.01385
0.0139643
0.0140762
0.0141857
0.0142926
0.014397
0.0144987
0.0145976
0.0146937
0.0147869
0.0148772
0.0149644
0.0150485
0.0151295
0.0152072
0.0152816
0.0153526
0.0154202
0.0154844
0.015545
0.0156021
0.0156555
0.0157052
0.0157512
0.0157935
0.0158319
0.0158666
0.0158973
0.0159242
0.0159472
0.0159663
0.0159814
0.0159926
0.0159998
0.0160031
0.0160024
0.0159978
0.0159892
0.0159766
0.0159601
0.0159398
0.0159155
0.0158874
0.0158554
0.0158197
0.0157801
0.0157369
0.01569
0.0156394
0.0155852
0.0155275
0.0154663
0.0154016
0.0153336
0.0152622
0.0151876
0.0151098
0.0150288
0.0149447
0.0148577
0.0147677
0.0146749
0.0145792
0.0144809
0.0143798
0.0142762
0.0141701
0.0140615
0.0139506
0.0138374
0.013722
0.0136044
0.0134848
0.0133631
0.0132396
0.0131142
0.012987
0.012858
0.0127275
0.0125953
0.0124617
0.0123266
0.0121901
0.0120523
0.0119132
0.0117729
0.0116315
0.0114891
0.0113456
0.0112011
0.0110557
0.0109095
0.0107625
0.0106147
0.0104662
0.010317
0.0101672
0.0100168
0.00986594
0.00971456
0.00956272
0.00941047
0.00925784
0.00910486
0.00895157
0.00879801
0.00864419
0.00849016
0.00833594
0.00818155
0.00802702
0.00787238
0.00771764
0.00756283
0.00740797
0.00725308
0.00709817
0.00694326
0.00678837
0.0066335
0.00647869
0.00632393
0.00616924
0.00601463
0.0058601
0.00570568
0.00555136
0.00539715
0.00524305
0.00508908
0.00493524
0.00478153
0.00462795
0.0044745
0.0043212
0.00416803
0.004015
0.00386212
0.00370937
0.00355675
0.00340428
0.00325193
0.00309972
0.00294763
0.00279566
0.00264382
0.00249209
0.00234047
0.00218895
0.00203754
0.00188622
0.00173499
0.00158383
0.00143276
0.00128175
0.00113081
0.000979923
0.000829083
0.000678284
0.00052752
0.000376781
0.000226061
7.53524e-05
9.11524e-05
0.000273463
0.00045579
0.000638145
0.000820538
0.00100298
0.00118549
0.00136806
0.00155072
0.00173347
0.00191632
0.00209928
0.00228237
0.00246559
0.00264894
0.00283245
0.00301612
0.00319995
0.00338396
0.00356815
0.00375253
0.0039371
0.00412188
0.00430686
0.00449205
0.00467746
0.00486309
0.00504894
0.00523501
0.00542131
0.00560784
0.0057946
0.00598158
0.00616878
0.00635621
0.00654385
0.00673171
0.00691977
0.00710804
0.0072965
0.00748515
0.00767397
0.00786295
0.00805208
0.00824135
0.00843075
0.00862024
0.00880982
0.00899947
0.00918917
0.00937889
0.0095686
0.00975829
0.00994793
0.0101375
0.0103269
0.0105162
0.0107053
0.0108942
0.0110828
0.0112711
0.0114591
0.0116467
0.0118338
0.0120205
0.0122066
0.0123922
0.0125771
0.0127613
0.0129448
0.0131274
0.0133091
0.01349
0.0136697
0.0138484
0.014026
0.0142023
0.0143773
0.014551
0.0147231
0.0148938
0.0150628
0.0152301
0.0153956
0.0155592
0.0157209
0.0158805
0.0160379
0.0161932
0.0163461
0.0164965
0.0166445
0.0167898
0.0169325
0.0170723
0.0172092
0.0173432
0.0174741
0.0176018
0.0177262
0.0178473
0.0179649
0.018079
0.0181894
0.0182962
0.0183991
0.0184982
0.0185933
0.0186843
0.0187713
0.018854
0.0189326
0.0190068
0.0190766
0.0191419
0.0192028
0.0192591
0.0193108
0.0193579
0.0194003
0.019438
0.0194709
0.019499
0.0195224
0.0195409
0.0195546
0.0195634
0.0195674
0.0195666
0.0195609
0.0195503
0.019535
0.0195148
0.0194898
0.0194601
0.0194257
0.0193866
0.0193428
0.0192944
0.0192415
0.019184
0.0191221
0.0190558
0.0189852
0.0189102
0.0188311
0.0187478
0.0186605
0.0185691
0.0184739
0.0183748
0.0182719
0.0181654
0.0180553
0.0179417
0.0178246
0.0177042
0.0175806
0.0174538
0.017324
0.0171911
0.0170554
0.0169169
0.0167757
0.0166318
0.0164855
0.0163367
0.0161855
0.0160321
0.0158764
0.0157187
0.015559
0.0153974
0.0152339
0.0150686
0.0149017
0.0147331
0.014563
0.0143914
0.0142185
0.0140443
0.0138688
0.0136921
0.0135143
0.0133355
0.0131557
0.0129749
0.0127933
0.0126109
0.0124278
0.0122439
0.0120594
0.0118743
0.0116886
0.0115025
0.0113158
0.0111288
0.0109414
0.0107536
0.0105656
0.0103773
0.0101887
0.00999996
0.00981105
0.00962199
0.00943282
0.00924357
0.00905426
0.0088649
0.00867554
0.00848617
0.00829683
0.00810753
0.00791828
0.00772911
0.00754002
0.00735103
0.00716216
0.0069734
0.00678477
0.00659627
0.00640793
0.00621973
0.00603169
0.00584382
0.0056561
0.00546856
0.00528118
0.00509398
0.00490695
0.00472008
0.00453339
0.00434687
0.00416051
0.00397432
0.00378828
0.00360241
0.00341668
0.0032311
0.00304566
0.00286036
0.00267519
0.00249013
0.0023052
0.00212037
0.00193564
0.00175101
0.00156646
0.00138199
0.00119759
0.00101324
0.000828946
0.000644693
0.000460472
0.000276274
9.20897e-05
0.000107712
0.000323144
0.000538595
0.000754079
0.00096961
0.0011852
0.00140086
0.00161661
0.00183245
0.0020484
0.00226447
0.00248068
0.00269703
0.00291354
0.00313022
0.00334707
0.00356411
0.00378135
0.0039988
0.00421646
0.00443435
0.00465247
0.00487082
0.00508943
0.00530828
0.00552739
0.00574676
0.0059664
0.0061863
0.00640647
0.00662691
0.00684763
0.00706861
0.00728985
0.00751137
0.00773314
0.00795517
0.00817744
0.00839996
0.0086227
0.00884567
0.00906885
0.00929222
0.00951578
0.0097395
0.00996336
0.0101874
0.0104115
0.0106356
0.0108599
0.0110841
0.0113084
0.0115327
0.0117568
0.0119809
0.0122049
0.0124287
0.0126522
0.0128756
0.0130986
0.0133212
0.0135435
0.0137653
0.0139866
0.0142073
0.0144274
0.0146468
0.0148655
0.0150833
0.0153003
0.0155163
0.0157312
0.0159451
0.0161577
0.0163691
0.0165791
0.0167876
0.0169947
0.0172
0.0174037
0.0176056
0.0178055
0.0180034
0.0181992
0.0183928
0.0185841
0.0187729
0.0189592
0.0191429
0.0193238
0.0195018
0.0196769
0.0198489
0.0200177
0.0201832
0.0203452
0.0205038
0.0206587
0.0208098
0.0209571
0.0211004
0.0212396
0.0213746
0.0215053
0.0216317
0.0217535
0.0218708
0.0219834
0.0220912
0.0221941
0.0222921
0.022385
0.0224729
0.0225555
0.0226329
0.022705
0.0227716
0.0228329
0.0228886
0.0229388
0.0229834
0.0230223
0.0230557
0.0230833
0.0231052
0.0231214
0.0231319
0.0231366
0.0231355
0.0231288
0.0231163
0.0230981
0.0230742
0.0230447
0.0230095
0.0229687
0.0229224
0.0228706
0.0228133
0.0227506
0.0226826
0.0226093
0.0225307
0.0224471
0.0223584
0.0222647
0.0221661
0.0220627
0.0219546
0.0218418
0.0217245
0.0216028
0.0214767
0.0213463
0.0212119
0.0210733
0.0209308
0.0207845
0.0206345
0.0204808
0.0203236
0.020163
0.0199991
0.019832
0.0196618
0.0194886
0.0193125
0.0191337
0.0189521
0.018768
0.0185814
0.0183925
0.0182013
0.0180078
0.0178123
0.0176149
0.0174155
0.0172143
0.0170114
0.0168068
0.0166007
0.0163931
0.0161842
0.0159739
0.0157624
0.0155498
0.0153361
0.0151213
0.0149056
0.014689
0.0144716
0.0142534
0.0140345
0.013815
0.0135949
0.0133743
0.0131531
0.0129315
0.0127096
0.0124872
0.0122646
0.0120417
0.0118185
0.0115952
0.0113717
0.0111481
0.0109244
0.0107006
0.0104768
0.0102529
0.0100291
0.00980526
0.0095815
0.00935781
0.00913421
0.00891071
0.00868733
0.00846409
0.00824098
0.00801804
0.00779526
0.00757265
0.00735023
0.00712799
0.00690594
0.00668409
0.00646244
0.006241
0.00601976
0.00579872
0.00557788
0.00535725
0.00513682
0.00491659
0.00469655
0.0044767
0.00425703
0.00403755
0.00381824
0.0035991
0.00338012
0.00316129
0.00294261
0.00272407
0.00250566
0.00228736
0.00206918
0.00185109
0.0016331
0.00141519
0.00119735
0.000979566
0.000761833
0.000544139
0.000326473
0.000108822
0.000124266
0.000372805
0.000621368
0.000869968
0.00111862
0.00136734
0.00161615
0.00186505
0.00211407
0.00236321
0.0026125
0.00286193
0.00311154
0.00336133
0.00361131
0.0038615
0.00411191
0.00436254
0.00461342
0.00486455
0.00511593
0.00536759
0.00561952
0.00587174
0.00612425
0.00637706
0.00663017
0.00688359
0.00713732
0.00739136
0.00764572
0.00790039
0.00815537
0.00841066
0.00866627
0.00892217
0.00917837
0.00943487
0.00969164
0.00994869
0.010206
0.0104635
0.0107213
0.0109793
0.0112375
0.0114959
0.0117544
0.012013
0.0122717
0.0125306
0.0127894
0.0130483
0.0133071
0.0135659
0.0138245
0.014083
0.0143414
0.0145994
0.0148572
0.0151147
0.0153717
0.0156283
0.0158844
0.0161399
0.0163948
0.0166489
0.0169022
0.0171547
0.0174063
0.0176568
0.0179062
0.0181544
0.0184014
0.018647
0.0188911
0.0191336
0.0193745
0.0196136
0.0198508
0.0200861
0.0203193
0.0205502
0.0207789
0.0210051
0.0212287
0.0214497
0.0216679
0.0218832
0.0220954
0.0223044
0.0225101
0.0227124
0.0229112
0.0231063
0.0232975
0.0234848
0.023668
0.023847
0.0240217
0.0241919
0.0243575
0.0245185
0.0246745
0.0248257
0.0249717
0.0251126
0.0252481
0.0253783
0.0255029
0.0256219
0.0257352
0.0258426
0.0259442
0.0260397
0.0261292
0.0262125
0.0262896
0.0263604
0.0264248
0.0264828
0.0265344
0.0265794
0.026618
0.0266499
0.0266752
0.0266939
0.026706
0.0267115
0.0267103
0.0267024
0.026688
0.0266669
0.0266393
0.0266051
0.0265645
0.0265173
0.0264637
0.0264038
0.0263375
0.026265
0.0261864
0.0261016
0.0260108
0.0259141
0.0258115
0.0257032
0.0255892
0.0254697
0.0253447
0.0252143
0.0250787
0.024938
0.0247922
0.0246416
0.0244861
0.024326
0.0241613
0.0239922
0.0238188
0.0236412
0.0234595
0.0232739
0.0230845
0.0228914
0.0226948
0.0224946
0.0222912
0.0220845
0.0218748
0.0216621
0.0214465
0.0212282
0.0210073
0.0207839
0.0205581
0.02033
0.0200997
0.0198673
0.0196329
0.0193967
0.0191586
0.0189189
0.0186776
0.0184348
0.0181906
0.017945
0.0176982
0.0174502
0.0172012
0.0169511
0.0167001
0.0164482
0.0161955
0.015942
0.0156879
0.0154332
0.0151779
0.0149221
0.0146658
0.0144092
0.0141522
0.0138949
0.0136373
0.0133795
0.0131216
0.0128635
0.0126052
0.0123469
0.0120886
0.0118303
0.0115719
0.0113136
0.0110554
0.0107972
0.0105392
0.0102813
0.0100235
0.00976587
0.00950842
0.00925115
0.00899407
0.00873719
0.00848053
0.00822409
0.00796787
0.00771188
0.00745613
0.00720061
0.00694533
0.00669029
0.00643548
0.00618091
0.00592657
0.00567246
0.00541858
0.00516492
0.00491148
0.00465825
0.00440521
0.00415238
0.00389973
0.00364726
0.00339496
0.00314281
0.00289082
0.00263897
0.00238724
0.00213563
0.00188413
0.00163272
0.00138139
0.00113014
0.000878936
0.00062778
0.000376655
0.00012555
0.000140812
0.000422444
0.000704102
0.000985803
0.00126757
0.00154941
0.00183134
0.00211339
0.00239556
0.00267788
0.00296036
0.00324302
0.00352587
0.00380892
0.0040922
0.00437571
0.00465947
0.00494349
0.00522779
0.00551237
0.00579725
0.00608244
0.00636794
0.00665377
0.00693993
0.00722643
0.00751327
0.00780047
0.00808802
0.00837593
0.0086642
0.00895283
0.00924182
0.00953116
0.00982086
0.0101109
0.0104013
0.010692
0.0109831
0.0112744
0.0115661
0.011858
0.0121502
0.0124426
0.0127353
0.0130282
0.0133212
0.0136145
0.0139078
0.0142012
0.0144947
0.0147881
0.0150816
0.015375
0.0156683
0.0159614
0.0162543
0.0165469
0.0168393
0.0171312
0.0174227
0.0177137
0.0180041
0.0182939
0.0185829
0.0188711
0.0191585
0.0194449
0.0197302
0.0200144
0.0202973
0.0205789
0.0208591
0.0211377
0.0214146
0.0216898
0.0219631
0.0222344
0.0225036
0.0227706
0.0230352
0.0232973
0.0235568
0.0238135
0.0240673
0.0243181
0.0245658
0.0248101
0.025051
0.0252883
0.0255219
0.0257515
0.0259772
0.0261986
0.0264158
0.0266284
0.0268365
0.0270397
0.0272381
0.0274314
0.0276194
0.0278022
0.0279794
0.0281511
0.028317
0.0284769
0.0286309
0.0287787
0.0289203
0.0290554
0.0291841
0.0293061
0.0294215
0.02953
0.0296317
0.0297263
0.0298138
0.0298943
0.0299674
0.0300334
0.0300919
0.0301431
0.0301868
0.0302231
0.0302519
0.0302731
0.0302868
0.030293
0.0302916
0.0302827
0.0302663
0.0302424
0.030211
0.0301721
0.0301259
0.0300723
0.0300114
0.0299433
0.029868
0.0297857
0.0296963
0.0296
0.0294968
0.029387
0.0292704
0.0291474
0.0290179
0.0288821
0.0287401
0.0285921
0.028438
0.0282782
0.0281127
0.0279416
0.027765
0.0275832
0.0273962
0.0272042
0.0270073
0.0268056
0.0265994
0.0263887
0.0261736
0.0259544
0.0257311
0.025504
0.025273
0.0250385
0.0248004
0.024559
0.0243144
0.0240666
0.0238159
0.0235624
0.0233061
0.0230472
0.0227859
0.0225222
0.0222563
0.0219883
0.0217182
0.0214463
0.0211725
0.0208971
0.02062
0.0203415
0.0200615
0.0197802
0.0194977
0.0192141
0.0189294
0.0186437
0.0183571
0.0180697
0.0177815
0.0174926
0.0172031
0.0169131
0.0166225
0.0163315
0.0160401
0.0157483
0.0154563
0.015164
0.0148716
0.0145789
0.0142862
0.0139934
0.0137005
0.0134076
0.0131148
0.0128219
0.0125292
0.0122366
0.0119441
0.0116517
0.0113595
0.0110675
0.0107757
0.0104841
0.0101927
0.00990153
0.00961062
0.00931997
0.00902957
0.00873944
0.00844958
0.00815998
0.00787066
0.00758162
0.00729284
0.00700433
0.00671609
0.00642812
0.0061404
0.00585294
0.00556572
0.00527874
0.00499199
0.00470547
0.00441916
0.00413305
0.00384714
0.00356141
0.00327585
0.00299045
0.00270519
0.00242007
0.00213507
0.00185017
0.00156537
0.00128065
0.000995994
0.000711388
0.000426818
0.00014227
0.000157349
0.000472056
0.000786792
0.00110158
0.00141643
0.00173137
0.00204642
0.00236159
0.00267691
0.00299239
0.00330805
0.00362391
0.00393999
0.0042563
0.00457285
0.00488967
0.00520677
0.00552417
0.00584187
0.0061599
0.00647826
0.00679696
0.00711603
0.00743546
0.00775526
0.00807545
0.00839602
0.008717
0.00903837
0.00936015
0.00968233
0.0100049
0.0103279
0.0106513
0.0109751
0.0112993
0.0116239
0.0119488
0.0122742
0.0125998
0.0129258
0.0132522
0.0135788
0.0139058
0.0142329
0.0145604
0.014888
0.0152158
0.0155437
0.0158718
0.0161999
0.016528
0.0168561
0.0171842
0.0175121
0.0178399
0.0181675
0.0184947
0.0188216
0.0191482
0.0194742
0.0197996
0.0201244
0.0204486
0.0207719
0.0210943
0.0214157
0.0217361
0.0220553
0.0223732
0.0226898
0.0230049
0.0233183
0.0236301
0.02394
0.0242479
0.0245538
0.0248574
0.0251587
0.0254574
0.0257536
0.026047
0.0263374
0.0266248
0.026909
0.0271897
0.027467
0.0277405
0.0280103
0.0282759
0.0285375
0.0287946
0.0290473
0.0292953
0.0295385
0.0297767
0.0300097
0.0302373
0.0304595
0.030676
0.0308867
0.0310914
0.03129
0.0314822
0.0316681
0.0318473
0.0320198
0.0321854
0.032344
0.0324954
0.0326396
0.0327764
0.0329056
0.0330272
0.0331411
0.0332471
0.0333453
0.0334354
0.0335174
0.0335912
0.0336568
0.0337142
0.0337632
0.0338038
0.033836
0.0338598
0.0338752
0.0338821
0.0338805
0.0338705
0.0338521
0.0338253
0.03379
0.0337465
0.0336947
0.0336346
0.0335663
0.03349
0.0334056
0.0333133
0.0332131
0.0331052
0.0329896
0.0328664
0.0327359
0.032598
0.0324529
0.0323007
0.0321416
0.0319757
0.0318032
0.0316241
0.0314387
0.031247
0.0310492
0.0308455
0.0306361
0.030421
0.0302005
0.0299747
0.0297437
0.0295077
0.0292669
0.0290214
0.0287714
0.0285171
0.0282585
0.0279959
0.0277294
0.0274591
0.0271853
0.026908
0.0266273
0.0263435
0.0260567
0.025767
0.0254745
0.0251795
0.0248819
0.0245819
0.0242798
0.0239755
0.0236691
0.023361
0.023051
0.0227394
0.0224262
0.0221115
0.0217955
0.0214782
0.0211597
0.0208402
0.0205196
0.0201981
0.0198758
0.0195527
0.019229
0.0189046
0.0185796
0.0182542
0.0179283
0.0176021
0.0172755
0.0169487
0.0166217
0.0162945
0.0159672
0.0156398
0.0153124
0.0149849
0.0146575
0.0143302
0.0140029
0.0136758
0.0133488
0.013022
0.0126953
0.0123689
0.0120427
0.0117168
0.011391
0.0110656
0.0107405
0.0104156
0.010091
0.00976673
0.00944275
0.00911909
0.00879573
0.00847268
0.00814993
0.00782749
0.00750535
0.00718351
0.00686196
0.0065407
0.00621972
0.005899
0.00557855
0.00525835
0.00493839
0.00461865
0.00429914
0.00397983
0.00366072
0.00334178
0.00302301
0.00270438
0.0023859
0.00206753
0.00174927
0.0014311
0.001113
0.00079496
0.00047696
0.000158984
0.000173876
0.000521639
0.000869434
0.00121728
0.00156521
0.00191323
0.00226137
0.00260966
0.0029581
0.00330672
0.00365555
0.00400459
0.00435388
0.00470342
0.00505324
0.00540336
0.00575378
0.00610454
0.00645564
0.00680709
0.00715892
0.00751114
0.00786375
0.00821677
0.00857021
0.00892407
0.00927838
0.00963312
0.00998831
0.010344
0.0107001
0.0110566
0.0114136
0.0117711
0.012129
0.0124873
0.0128461
0.0132053
0.0135649
0.0139249
0.0142853
0.0146461
0.0150072
0.0153686
0.0157303
0.0160923
0.0164545
0.016817
0.0171796
0.0175423
0.0179051
0.0182679
0.0186308
0.0189935
0.0193562
0.0197187
0.0200809
0.0204429
0.0208045
0.0211656
0.0215262
0.0218862
0.0222455
0.022604
0.0229617
0.0233184
0.023674
0.0240285
0.0243817
0.0247335
0.0250837
0.0254324
0.0257793
0.0261243
0.0264672
0.0268081
0.0271466
0.0274827
0.0278162
0.0281469
0.0284748
0.0287996
0.0291211
0.0294393
0.029754
0.0300649
0.0303719
0.0306748
0.0309735
0.0312678
0.0315574
0.0318423
0.0321221
0.0323969
0.0326662
0.0329301
0.0331882
0.0334404
0.0336866
0.0339265
0.0341599
0.0343867
0.0346068
0.0348198
0.0350258
0.0352244
0.0354156
0.0355991
0.0357749
0.0359427
0.0361025
0.0362541
0.0363974
0.0365322
0.0366584
0.0367759
0.0368847
0.0369845
0.0370754
0.0371573
0.03723
0.0372936
0.0373479
0.0373929
0.0374286
0.037455
0.037472
0.0374796
0.0374779
0.0374668
0.0374463
0.0374165
0.0373775
0.0373292
0.0372717
0.037205
0.0371294
0.0370447
0.0369511
0.0368488
0.0367377
0.036618
0.0364899
0.0363534
0.0362086
0.0360558
0.035895
0.0357263
0.03555
0.0353661
0.0351749
0.0349764
0.0347709
0.0345585
0.0343394
0.0341137
0.0338816
0.0336433
0.033399
0.0331488
0.032893
0.0326316
0.0323649
0.032093
0.0318161
0.0315344
0.0312481
0.0309573
0.0306621
0.0303629
0.0300596
0.0297526
0.0294419
0.0291277
0.0288102
0.0284895
0.0281658
0.0278392
0.0275098
0.0271778
0.0268434
0.0265066
0.0261677
0.0258266
0.0254836
0.0251388
0.0247922
0.0244441
0.0240945
0.0237434
0.0233911
0.0230376
0.022683
0.0223274
0.0219709
0.0216135
0.0212554
0.0208966
0.0205372
0.0201773
0.0198169
0.0194562
0.0190951
0.0187337
0.018372
0.0180102