/*--------------------------------*- C++ -*----------------------------------*\
| =========                 |                                                 |
| \\      /  F ield         | OpenFOAM: The Open Source CFD Toolbox           |
|  \\    /   O peration     | Version:  v2012                                 |
|   \\  /    A nd           | Website:  www.openfoam.com                      |
|    \\/     M anipulation  |                                                 |
\*---------------------------------------------------------------------------*/
FoamFile
{
    version     2.0;
    format      ascii;
    class       volScalarField;
    location    "16.5";
    object      W;
}
// * * * * * * * * * * * * * * * * * * * * * * * * * * * * * * * * * * * * * //

dimensions      [0 0 -1 0 0 0 0];


internalField   nonuniform List<scalar> 
65536
(
2.93427e-14
2.94066e-14
2.99334e-14
3.09242e-14
3.23866e-14
3.43353e-14
3.67912e-14
3.97822e-14
4.33428e-14
4.75148e-14
5.23474e-14
5.78977e-14
6.42313e-14
7.14227e-14
7.95562e-14
8.87264e-14
9.90393e-14
1.10613e-13
1.2358e-13
1.38085e-13
1.5429e-13
1.72373e-13
1.92533e-13
2.14985e-13
2.39969e-13
2.67747e-13
2.98606e-13
3.32863e-13
3.70862e-13
4.12979e-13
4.59628e-13
5.11256e-13
5.68352e-13
6.31447e-13
7.01118e-13
7.77992e-13
8.62745e-13
9.56112e-13
1.05888e-12
1.17192e-12
1.29613e-12
1.43251e-12
1.58213e-12
1.74612e-12
1.9257e-12
2.12217e-12
2.33692e-12
2.57144e-12
2.82729e-12
3.10615e-12
3.40976e-12
3.74e-12
4.09883e-12
4.48831e-12
4.91059e-12
5.36796e-12
5.86275e-12
6.39742e-12
6.97453e-12
7.59669e-12
8.26663e-12
8.98711e-12
9.76099e-12
1.05912e-11
1.14806e-11
1.24321e-11
1.34489e-11
1.45338e-11
1.56898e-11
1.69197e-11
1.82265e-11
1.96128e-11
2.10812e-11
2.26343e-11
2.42743e-11
2.60033e-11
2.78232e-11
2.97355e-11
3.17415e-11
3.38422e-11
3.6038e-11
3.83293e-11
4.07157e-11
4.31965e-11
4.57704e-11
4.84358e-11
5.11902e-11
5.40309e-11
5.69544e-11
5.99566e-11
6.30329e-11
6.6178e-11
6.9386e-11
7.26504e-11
7.59641e-11
7.93195e-11
8.27083e-11
8.61218e-11
8.95507e-11
9.29855e-11
9.64161e-11
9.9832e-11
1.03223e-10
1.06577e-10
1.09885e-10
1.13134e-10
1.16314e-10
1.19414e-10
1.22423e-10
1.2533e-10
1.28126e-10
1.30801e-10
1.33345e-10
1.35749e-10
1.38006e-10
1.40107e-10
1.42047e-10
1.43818e-10
1.45417e-10
1.46839e-10
1.48079e-10
1.49136e-10
1.50008e-10
1.50693e-10
1.51193e-10
1.51507e-10
1.51637e-10
1.51586e-10
1.51356e-10
1.50952e-10
1.50378e-10
1.49638e-10
1.48738e-10
1.47684e-10
1.46481e-10
1.45137e-10
1.43658e-10
1.42051e-10
1.40322e-10
1.38478e-10
1.36527e-10
1.34475e-10
1.32329e-10
1.30095e-10
1.27779e-10
1.25388e-10
1.22927e-10
1.20401e-10
1.17816e-10
1.15176e-10
1.12486e-10
1.0975e-10
1.06972e-10
1.04155e-10
1.01303e-10
9.84189e-11
9.55053e-11
9.25652e-11
8.96013e-11
8.66163e-11
8.36128e-11
8.05936e-11
7.75616e-11
7.45199e-11
7.14718e-11
6.8421e-11
6.53713e-11
6.23273e-11
5.92937e-11
5.62757e-11
5.32791e-11
5.03101e-11
4.73751e-11
4.44813e-11
4.1636e-11
3.88469e-11
3.61218e-11
3.34687e-11
3.08954e-11
2.84099e-11
2.60197e-11
2.37319e-11
2.1553e-11
1.94891e-11
1.75452e-11
1.57256e-11
1.40334e-11
1.24708e-11
1.10389e-11
9.73742e-12
8.56521e-12
7.51979e-12
6.59768e-12
5.79432e-12
5.10421e-12
4.52099e-12
4.03751e-12
3.64597e-12
3.33799e-12
3.10476e-12
2.93717e-12
2.82587e-12
2.76146e-12
2.73462e-12
2.7362e-12
2.75741e-12
2.78996e-12
2.82619e-12
2.8592e-12
2.88303e-12
2.8927e-12
2.88432e-12
2.85517e-12
2.80366e-12
2.72934e-12
2.63283e-12
2.51569e-12
2.3803e-12
2.22968e-12
2.0673e-12
1.89691e-12
1.72231e-12
1.54721e-12
1.37502e-12
1.20881e-12
1.05113e-12
9.04016e-13
7.68922e-13
6.46768e-13
5.37958e-13
4.42442e-13
3.59789e-13
2.89268e-13
2.29928e-13
1.80675e-13
1.40346e-13
1.07764e-13
8.17903e-14
6.13565e-14
4.54915e-14
3.33342e-14
2.4139e-14
1.72742e-14
1.22153e-14
8.53528e-15
5.89278e-15
4.01972e-15
2.70921e-15
1.80422e-15
1.18758e-15
7.73285e-16
4.99343e-16
3.21948e-16
2.10946e-16
1.4643e-16
1.16309e-16
4.39603e-14
4.4058e-14
4.48525e-14
4.63448e-14
4.85471e-14
5.14811e-14
5.51791e-14
5.96831e-14
6.50458e-14
7.13308e-14
7.86127e-14
8.69784e-14
9.65276e-14
1.07374e-13
1.19645e-13
1.33485e-13
1.49056e-13
1.66538e-13
1.86131e-13
2.08057e-13
2.32564e-13
2.59924e-13
2.90437e-13
3.24436e-13
3.62285e-13
4.04384e-13
4.51175e-13
5.03139e-13
5.60805e-13
6.24749e-13
6.95602e-13
7.74051e-13
8.60844e-13
9.56795e-13
1.06279e-12
1.17979e-12
1.30882e-12
1.45103e-12
1.60761e-12
1.77988e-12
1.96925e-12
2.17723e-12
2.40546e-12
2.65567e-12
2.92974e-12
3.22965e-12
3.55753e-12
3.91563e-12
4.30635e-12
4.73224e-12
5.19597e-12
5.70038e-12
6.24844e-12
6.84327e-12
7.48814e-12
8.18647e-12
8.94181e-12
9.75782e-12
1.06383e-11
1.15872e-11
1.26086e-11
1.37065e-11
1.48851e-11
1.61486e-11
1.75014e-11
1.89477e-11
2.04918e-11
2.21378e-11
2.38899e-11
2.57522e-11
2.77283e-11
2.98221e-11
3.20369e-11
3.43759e-11
3.68418e-11
3.9437e-11
4.21637e-11
4.50231e-11
4.80164e-11
5.11439e-11
5.44054e-11
5.77999e-11
6.13257e-11
6.49805e-11
6.87609e-11
7.26629e-11
7.66814e-11
8.08106e-11
8.50437e-11
8.93729e-11
9.37897e-11
9.82843e-11
1.02846e-10
1.07464e-10
1.12126e-10
1.16819e-10
1.21529e-10
1.26242e-10
1.30942e-10
1.35615e-10
1.40244e-10
1.44814e-10
1.49307e-10
1.53708e-10
1.58e-10
1.62167e-10
1.66192e-10
1.70062e-10
1.7376e-10
1.77272e-10
1.80585e-10
1.83687e-10
1.86566e-10
1.89211e-10
1.91613e-10
1.93764e-10
1.95658e-10
1.97289e-10
1.98652e-10
1.99747e-10
2.0057e-10
2.01123e-10
2.01407e-10
2.01425e-10
2.0118e-10
2.00678e-10
1.99925e-10
1.98928e-10
1.97697e-10
1.96239e-10
1.94564e-10
1.92684e-10
1.90608e-10
1.88348e-10
1.85915e-10
1.83321e-10
1.80578e-10
1.77697e-10
1.74689e-10
1.71567e-10
1.68341e-10
1.65021e-10
1.61619e-10
1.58143e-10
1.54602e-10
1.51007e-10
1.47363e-10
1.4368e-10
1.39964e-10
1.36221e-10
1.32458e-10
1.28678e-10
1.24888e-10
1.21091e-10
1.17291e-10
1.13491e-10
1.09695e-10
1.05905e-10
1.02124e-10
9.83549e-11
9.45991e-11
9.08593e-11
8.7138e-11
8.34378e-11
7.97615e-11
7.61121e-11
7.24931e-11
6.89081e-11
6.53615e-11
6.18577e-11
5.84019e-11
5.49996e-11
5.16568e-11
4.83797e-11
4.51751e-11
4.20501e-11
3.90117e-11
3.60672e-11
3.32238e-11
3.04888e-11
2.78687e-11
2.537e-11
2.29985e-11
2.07594e-11
1.86567e-11
1.66941e-11
1.48737e-11
1.31968e-11
1.16635e-11
1.02729e-11
9.02272e-12
7.90964e-12
6.92928e-12
6.07623e-12
5.34417e-12
4.7259e-12
4.21351e-12
3.79844e-12
3.47163e-12
3.22361e-12
3.04464e-12
2.92481e-12
2.85419e-12
2.82298e-12
2.8216e-12
2.84088e-12
2.87218e-12
2.90755e-12
2.93984e-12
2.96287e-12
2.97151e-12
2.96175e-12
2.93079e-12
2.87699e-12
2.7999e-12
2.70015e-12
2.57935e-12
2.43994e-12
2.28502e-12
2.11815e-12
1.94317e-12
1.76397e-12
1.58433e-12
1.40776e-12
1.23738e-12
1.0758e-12
9.25085e-13
7.86725e-13
6.61649e-13
5.5026e-13
4.52501e-13
3.67923e-13
2.95773e-13
2.35071e-13
1.84697e-13
1.43455e-13
1.1014e-13
8.35859e-14
6.26978e-14
4.64819e-14
3.40571e-14
2.46606e-14
1.76461e-14
1.24774e-14
8.71783e-15
6.01842e-15
4.10517e-15
2.76664e-15
1.84236e-15
1.21262e-15
7.89547e-16
5.09818e-16
3.28685e-16
2.15349e-16
1.49479e-16
1.1873e-16
7.89092e-14
7.909e-14
8.05278e-14
8.32246e-14
8.72024e-14
9.25014e-14
9.91801e-14
1.07316e-13
1.17004e-13
1.28362e-13
1.41524e-13
1.56651e-13
1.73924e-13
1.9355e-13
2.15764e-13
2.4083e-13
2.69042e-13
3.00731e-13
3.36263e-13
3.76047e-13
4.20535e-13
4.70226e-13
5.25674e-13
5.87485e-13
6.56332e-13
7.32951e-13
8.18151e-13
9.12819e-13
1.01793e-12
1.13454e-12
1.26382e-12
1.40702e-12
1.56554e-12
1.74087e-12
1.93464e-12
2.14862e-12
2.38473e-12
2.64504e-12
2.93179e-12
3.2474e-12
3.59447e-12
3.9758e-12
4.39439e-12
4.85344e-12
5.35641e-12
5.90695e-12
6.50898e-12
7.16664e-12
7.88435e-12
8.66675e-12
9.51877e-12
1.04456e-11
1.14526e-11
1.25456e-11
1.37305e-11
1.50134e-11
1.64009e-11
1.78995e-11
1.95161e-11
2.12577e-11
2.31315e-11
2.51448e-11
2.7305e-11
2.96195e-11
3.20958e-11
3.47413e-11
3.75632e-11
4.05686e-11
4.37644e-11
4.71573e-11
5.07534e-11
5.45583e-11
5.85774e-11
6.28151e-11
6.72753e-11
7.19608e-11
7.68739e-11
8.20154e-11
8.73854e-11
9.29825e-11
9.88042e-11
1.04846e-10
1.11104e-10
1.17569e-10
1.24235e-10
1.31089e-10
1.38121e-10
1.45317e-10
1.52661e-10
1.60137e-10
1.67726e-10
1.75407e-10
1.83158e-10
1.90957e-10
1.98777e-10
2.06594e-10
2.1438e-10
2.22106e-10
2.29744e-10
2.37265e-10
2.44638e-10
2.51834e-10
2.58823e-10
2.65575e-10
2.72062e-10
2.78255e-10
2.84127e-10
2.89654e-10
2.9481e-10
2.99575e-10
3.03927e-10
3.07848e-10
3.11323e-10
3.14339e-10
3.16884e-10
3.18951e-10
3.20534e-10
3.21631e-10
3.22242e-10
3.22369e-10
3.22019e-10
3.21198e-10
3.19918e-10
3.18191e-10
3.16031e-10
3.13455e-10
3.10481e-10
3.07129e-10
3.03421e-10
2.99377e-10
2.95022e-10
2.90378e-10
2.85469e-10
2.8032e-10
2.74955e-10
2.69396e-10
2.63668e-10
2.57792e-10
2.51792e-10
2.45688e-10
2.395e-10
2.33247e-10
2.26948e-10
2.20619e-10
2.14275e-10
2.0793e-10
2.01598e-10
1.9529e-10
1.89017e-10
1.82787e-10
1.7661e-10
1.70491e-10
1.64437e-10
1.58453e-10
1.52543e-10
1.46711e-10
1.40959e-10
1.3529e-10
1.29706e-10
1.24207e-10
1.18795e-10
1.13472e-10
1.08238e-10
1.03094e-10
9.80411e-11
9.30815e-11
8.82167e-11
8.34489e-11
7.87804e-11
7.42145e-11
6.97545e-11
6.54044e-11
6.11687e-11
5.70522e-11
5.306e-11
4.91977e-11
4.54709e-11
4.18854e-11
3.84469e-11
3.51608e-11
3.20326e-11
2.90668e-11
2.62676e-11
2.36385e-11
2.1182e-11
1.88996e-11
1.67919e-11
1.48583e-11
1.3097e-11
1.15051e-11
1.00784e-11
8.81193e-12
7.69923e-12
6.73308e-12
5.90535e-12
5.20707e-12
4.62864e-12
4.15987e-12
3.79013e-12
3.50848e-12
3.30379e-12
3.16486e-12
3.08055e-12
3.03994e-12
3.03245e-12
3.048e-12
3.07712e-12
3.11116e-12
3.14237e-12
3.16407e-12
3.17072e-12
3.15803e-12
3.12297e-12
3.06381e-12
2.98006e-12
2.87241e-12
2.74258e-12
2.59316e-12
2.42747e-12
2.24927e-12
2.06265e-12
1.87173e-12
1.68051e-12
1.49272e-12
1.31163e-12
1.13999e-12
9.79993e-13
8.33181e-13
7.00526e-13
5.82439e-13
4.78842e-13
3.89246e-13
3.12842e-13
2.48582e-13
1.95271e-13
1.51637e-13
1.164e-13
8.83198e-14
6.6237e-14
4.90975e-14
3.59677e-14
2.604e-14
1.86304e-14
1.31715e-14
9.20156e-15
6.35156e-15
4.33188e-15
2.91909e-15
1.94367e-15
1.27916e-15
8.32788e-16
5.37686e-16
3.46618e-16
2.27077e-16
1.57606e-16
1.25177e-16
1.48301e-13
1.48652e-13
1.51377e-13
1.56479e-13
1.64002e-13
1.74022e-13
1.86651e-13
2.02036e-13
2.20362e-13
2.41849e-13
2.66758e-13
2.95394e-13
3.28103e-13
3.65283e-13
4.07381e-13
4.54902e-13
5.08412e-13
5.68543e-13
6.35998e-13
7.11559e-13
7.96094e-13
8.90562e-13
9.96023e-13
1.11365e-12
1.24472e-12
1.39067e-12
1.55304e-12
1.73355e-12
1.93406e-12
2.15663e-12
2.40348e-12
2.67707e-12
2.98006e-12
3.31533e-12
3.68604e-12
4.0956e-12
4.54772e-12
5.0464e-12
5.59596e-12
6.20107e-12
6.86676e-12
7.59842e-12
8.40186e-12
9.28328e-12
1.02493e-11
1.1307e-11
1.2464e-11
1.37282e-11
1.5108e-11
1.66126e-11
1.82513e-11
2.00341e-11
2.19713e-11
2.4074e-11
2.63535e-11
2.88216e-11
3.14906e-11
3.4373e-11
3.74818e-11
4.08304e-11
4.44321e-11
4.83007e-11
5.245e-11
5.68936e-11
6.16454e-11
6.67187e-11
7.21268e-11
7.78825e-11
8.39977e-11
9.0484e-11
9.73519e-11
1.04611e-10
1.12269e-10
1.20333e-10
1.28809e-10
1.37699e-10
1.47006e-10
1.56728e-10
1.66862e-10
1.77403e-10
1.88342e-10
1.99669e-10
2.11368e-10
2.23423e-10
2.35814e-10
2.48516e-10
2.61502e-10
2.74742e-10
2.88202e-10
3.01846e-10
3.15631e-10
3.29517e-10
3.43456e-10
3.57399e-10
3.71296e-10
3.85094e-10
3.98737e-10
4.1217e-10
4.25336e-10
4.38176e-10
4.50634e-10
4.62652e-10
4.74175e-10
4.85148e-10
4.95518e-10
5.05235e-10
5.14253e-10
5.22527e-10
5.30018e-10
5.3669e-10
5.42513e-10
5.4746e-10
5.51511e-10
5.54649e-10
5.56866e-10
5.58157e-10
5.58522e-10
5.57968e-10
5.56508e-10
5.54158e-10
5.5094e-10
5.46881e-10
5.42013e-10
5.36368e-10
5.29988e-10
5.22911e-10
5.15184e-10
5.06851e-10
4.97961e-10
4.88562e-10
4.78705e-10
4.68439e-10
4.57815e-10
4.4688e-10
4.35683e-10
4.24271e-10
4.12689e-10
4.00981e-10
3.89187e-10
3.77346e-10
3.65494e-10
3.53665e-10
3.41891e-10
3.30198e-10
3.18612e-10
3.07158e-10
2.95853e-10
2.84717e-10
2.73763e-10
2.63005e-10
2.52454e-10
2.42117e-10
2.32002e-10
2.22113e-10
2.12453e-10
2.03024e-10
1.93827e-10
1.84861e-10
1.76126e-10
1.6762e-10
1.5934e-10
1.51284e-10
1.43449e-10
1.35833e-10
1.28432e-10
1.21244e-10
1.14268e-10
1.07502e-10
1.00944e-10
9.45948e-11
8.84533e-11
8.25204e-11
7.67972e-11
7.12855e-11
6.59872e-11
6.09048e-11
5.60411e-11
5.13987e-11
4.69805e-11
4.27891e-11
3.88267e-11
3.50953e-11
3.1596e-11
2.83292e-11
2.52944e-11
2.24901e-11
1.99138e-11
1.75616e-11
1.54288e-11
1.35091e-11
1.17953e-11
1.02791e-11
8.95114e-12
7.80108e-12
6.81781e-12
5.9895e-12
5.30376e-12
4.74776e-12
4.30832e-12
3.9721e-12
3.72572e-12
3.55586e-12
3.44943e-12
3.3937e-12
3.37644e-12
3.38607e-12
3.41182e-12
3.44387e-12
3.47349e-12
3.49317e-12
3.49672e-12
3.47935e-12
3.43771e-12
3.36989e-12
3.27535e-12
3.15485e-12
3.0103e-12
2.84455e-12
2.66124e-12
2.46452e-12
2.25884e-12
2.04873e-12
1.83854e-12
1.63233e-12
1.43367e-12
1.24554e-12
1.07028e-12
9.0959e-13
7.64482e-13
6.35385e-13
5.22191e-13
4.24344e-13
3.40942e-13
2.70828e-13
2.12684e-13
1.65113e-13
1.26711e-13
9.61187e-14
7.20683e-14
5.34074e-14
3.91163e-14
2.83135e-14
2.02529e-14
1.43158e-14
9.99912e-15
6.90087e-15
4.70573e-15
3.1705e-15
2.11075e-15
1.38892e-15
9.04121e-16
5.83664e-16
3.76207e-16
2.46429e-16
1.71016e-16
1.35817e-16
2.78959e-13
2.79642e-13
2.84812e-13
2.94477e-13
3.08718e-13
3.27683e-13
3.51587e-13
3.80711e-13
4.15407e-13
4.56098e-13
5.03284e-13
5.57544e-13
6.19544e-13
6.90044e-13
7.699e-13
8.6008e-13
9.61668e-13
1.07587e-12
1.20405e-12
1.34769e-12
1.50847e-12
1.68822e-12
1.88899e-12
2.11303e-12
2.3628e-12
2.64105e-12
2.95076e-12
3.29524e-12
3.67808e-12
4.10324e-12
4.57503e-12
5.09816e-12
5.67777e-12
6.31946e-12
7.0293e-12
7.8139e-12
8.6804e-12
9.63656e-12
1.06907e-11
1.1852e-11
1.313e-11
1.45352e-11
1.60788e-11
1.77728e-11
1.96302e-11
2.16644e-11
2.38902e-11
2.63229e-11
2.8979e-11
3.18757e-11
3.50313e-11
3.8465e-11
4.21968e-11
4.62477e-11
5.06395e-11
5.5395e-11
6.05374e-11
6.60909e-11
7.20803e-11
7.85306e-11
8.54675e-11
9.29167e-11
1.00904e-10
1.09455e-10
1.18596e-10
1.28351e-10
1.38744e-10
1.49798e-10
1.61536e-10
1.73976e-10
1.87138e-10
2.01036e-10
2.15684e-10
2.31093e-10
2.47267e-10
2.64212e-10
2.81924e-10
3.00398e-10
3.19624e-10
3.39586e-10
3.60262e-10
3.81625e-10
4.03642e-10
4.26273e-10
4.49473e-10
4.73188e-10
4.9736e-10
5.21924e-10
5.46807e-10
5.71931e-10
5.97214e-10
6.22565e-10
6.47889e-10
6.73089e-10
6.9806e-10
7.22696e-10
7.46889e-10
7.70529e-10
7.93504e-10
8.15703e-10
8.37017e-10
8.57338e-10
8.76562e-10
8.94588e-10
9.11323e-10
9.26678e-10
9.40571e-10
9.52929e-10
9.63688e-10
9.72791e-10
9.80196e-10
9.85866e-10
9.89778e-10
9.9192e-10
9.9229e-10
9.90899e-10
9.87766e-10
9.82924e-10
9.76414e-10
9.68288e-10
9.58605e-10
9.47435e-10
9.34853e-10
9.20942e-10
9.05791e-10
8.89492e-10
8.72141e-10
8.53838e-10
8.34684e-10
8.14779e-10
7.94225e-10
7.73122e-10
7.51568e-10
7.29658e-10
7.07484e-10
6.85134e-10
6.62692e-10
6.40236e-10
6.17839e-10
5.9557e-10
5.73491e-10
5.51658e-10
5.30122e-10
5.08928e-10
4.88116e-10
4.6772e-10
4.47769e-10
4.28287e-10
4.09293e-10
3.90802e-10
3.72824e-10
3.55368e-10
3.38436e-10
3.22029e-10
3.06146e-10
2.90782e-10
2.75931e-10
2.61585e-10
2.47736e-10
2.34373e-10
2.21485e-10
2.09061e-10
1.9709e-10
1.85561e-10
1.74462e-10
1.63782e-10
1.53512e-10
1.43641e-10
1.34161e-10
1.25064e-10
1.16343e-10
1.07992e-10
1.00005e-10
9.23772e-11
8.51051e-11
7.81851e-11
7.16144e-11
6.53902e-11
5.951e-11
5.39711e-11
4.87709e-11
4.39059e-11
3.93723e-11
3.51657e-11
3.12804e-11
2.771e-11
2.4447e-11
2.14827e-11
1.88072e-11
1.64095e-11
1.42775e-11
1.23982e-11
1.07574e-11
9.34041e-12
8.13158e-12
7.11484e-12
6.2737e-12
5.5914e-12
5.05109e-12
4.6359e-12
4.32916e-12
4.1145e-12
3.97599e-12
3.89827e-12
3.86675e-12
3.86771e-12
3.88848e-12
3.91756e-12
3.94481e-12
3.96153e-12
3.96062e-12
3.93656e-12
3.88554e-12
3.80537e-12
3.69547e-12
3.55668e-12
3.39117e-12
3.20218e-12
2.99381e-12
2.77073e-12
2.53795e-12
2.30052e-12
2.06335e-12
1.83094e-12
1.60727e-12
1.39567e-12
1.19872e-12
1.01828e-12
8.55458e-13
7.10699e-13
5.83851e-13
4.74267e-13
3.80911e-13
3.0247e-13
2.37451e-13
1.84281e-13
1.41376e-13
1.07211e-13
8.03619e-14
5.95371e-14
4.35944e-14
3.15469e-14
2.25604e-14
1.59432e-14
1.11334e-14
7.6821e-15
5.23742e-15
3.52807e-15
2.34838e-15
1.54502e-15
1.00557e-15
6.49055e-16
4.18291e-16
2.73954e-16
1.9009e-16
1.5095e-16
5.18907e-13
5.20225e-13
5.29928e-13
5.48037e-13
5.74704e-13
6.10213e-13
6.54968e-13
7.09503e-13
7.74484e-13
8.50709e-13
9.39125e-13
1.04083e-12
1.15708e-12
1.28931e-12
1.43916e-12
1.60845e-12
1.79923e-12
2.0138e-12
2.25473e-12
2.52486e-12
2.82736e-12
3.16572e-12
3.54382e-12
3.96595e-12
4.43681e-12
4.96161e-12
5.54606e-12
6.19642e-12
6.91958e-12
7.72308e-12
8.61515e-12
9.60479e-12
1.07018e-11
1.19169e-11
1.32617e-11
1.47489e-11
1.63921e-11
1.82061e-11
2.0207e-11
2.2412e-11
2.48398e-11
2.75104e-11
3.04453e-11
3.36674e-11
3.72013e-11
4.10733e-11
4.53113e-11
4.99448e-11
5.50052e-11
6.05256e-11
6.65409e-11
7.30877e-11
8.02043e-11
8.79308e-11
9.63087e-11
1.05381e-10
1.15193e-10
1.25789e-10
1.37217e-10
1.49524e-10
1.62757e-10
1.76967e-10
1.922e-10
2.08505e-10
2.25928e-10
2.44516e-10
2.64313e-10
2.85358e-10
3.07693e-10
3.31351e-10
3.56363e-10
3.82755e-10
4.10548e-10
4.39755e-10
4.70384e-10
5.02434e-10
5.35895e-10
5.7075e-10
6.06969e-10
6.44515e-10
6.83337e-10
7.23374e-10
7.64552e-10
8.06785e-10
8.49976e-10
8.94013e-10
9.38773e-10
9.8412e-10
1.02991e-09
1.07597e-09
1.12215e-09
1.16825e-09
1.2141e-09
1.25949e-09
1.30421e-09
1.34807e-09
1.39085e-09
1.43234e-09
1.47232e-09
1.51059e-09
1.54693e-09
1.58116e-09
1.61308e-09
1.6425e-09
1.66927e-09
1.69323e-09
1.71423e-09
1.73217e-09
1.74694e-09
1.75846e-09
1.76667e-09
1.77153e-09
1.77303e-09
1.77117e-09
1.76598e-09
1.75751e-09
1.74583e-09
1.73104e-09
1.71324e-09
1.69255e-09
1.66914e-09
1.64314e-09
1.61473e-09
1.5841e-09
1.55143e-09
1.51691e-09
1.48074e-09
1.44313e-09
1.40428e-09
1.36438e-09
1.32364e-09
1.28224e-09
1.24037e-09
1.19821e-09
1.15593e-09
1.11368e-09
1.07162e-09
1.02987e-09
9.88571e-10
9.47833e-10
9.07756e-10
8.68432e-10
8.29939e-10
7.92346e-10
7.55707e-10
7.20071e-10
6.85474e-10
6.51942e-10
6.19496e-10
5.88146e-10
5.57896e-10
5.28745e-10
5.00684e-10
4.73702e-10
4.47781e-10
4.229e-10
3.99037e-10
3.76167e-10
3.5426e-10
3.3329e-10
3.13226e-10
2.9404e-10
2.757e-10
2.58178e-10
2.41446e-10
2.25475e-10
2.10239e-10
1.95714e-10
1.81875e-10
1.68699e-10
1.56167e-10
1.44259e-10
1.32957e-10
1.22245e-10
1.12108e-10
1.02532e-10
9.35035e-11
8.50103e-11
7.70406e-11
6.95828e-11
6.26253e-11
5.61564e-11
5.0164e-11
4.46354e-11
3.95572e-11
3.4915e-11
3.06937e-11
2.6877e-11
2.34475e-11
2.0387e-11
1.76763e-11
1.52953e-11
1.32231e-11
1.14383e-11
9.91915e-12
8.64342e-12
7.58885e-12
6.73322e-12
6.05447e-12
5.53088e-12
5.14124e-12
4.86494e-12
4.68215e-12
4.57396e-12
4.52253e-12
4.51122e-12
4.52477e-12
4.54945e-12
4.57319e-12
4.5857e-12
4.5786e-12
4.54544e-12
4.48176e-12
4.38503e-12
4.25455e-12
4.09132e-12
3.89785e-12
3.67787e-12
3.4361e-12
3.1779e-12
2.90902e-12
2.63524e-12
2.36214e-12
2.09488e-12
1.83796e-12
1.59514e-12
1.36935e-12
1.16265e-12
9.76289e-13
8.10717e-13
6.65729e-13
5.40553e-13
4.33976e-13
3.44475e-13
2.70328e-13
2.09721e-13
1.60839e-13
1.21931e-13
9.13675e-14
6.76707e-14
4.9536e-14
3.58369e-14
2.56217e-14
1.81022e-14
1.26381e-14
8.71838e-15
5.94267e-15
4.00234e-15
2.66356e-15
1.75206e-15
1.14012e-15
7.35778e-16
4.74103e-16
3.10456e-16
2.15385e-16
1.71018e-16
9.51694e-13
9.54202e-13
9.72168e-13
1.00563e-12
1.05489e-12
1.12046e-12
1.20311e-12
1.30383e-12
1.42386e-12
1.5647e-12
1.72811e-12
1.91613e-12
2.13113e-12
2.37578e-12
2.65312e-12
2.96657e-12
3.31999e-12
3.71766e-12
4.16438e-12
4.66548e-12
5.2269e-12
5.8552e-12
6.55764e-12
7.34227e-12
8.21794e-12
9.19442e-12
1.02824e-11
1.14938e-11
1.28415e-11
1.43396e-11
1.60038e-11
1.78509e-11
1.98995e-11
2.21698e-11
2.46837e-11
2.7465e-11
3.05397e-11
3.39357e-11
3.76833e-11
4.18152e-11
4.63666e-11
5.13755e-11
5.68823e-11
6.29307e-11
6.95672e-11
7.68414e-11
8.48061e-11
9.35173e-11
1.03034e-10
1.1342e-10
1.2474e-10
1.37063e-10
1.50463e-10
1.65014e-10
1.80794e-10
1.97886e-10
2.16373e-10
2.36341e-10
2.57876e-10
2.81069e-10
3.06009e-10
3.32785e-10
3.61489e-10
3.92206e-10
4.25026e-10
4.60029e-10
4.97297e-10
5.36903e-10
5.78916e-10
6.23397e-10
6.70397e-10
7.1996e-10
7.72115e-10
8.26882e-10
8.84263e-10
9.44247e-10
1.00681e-09
1.07189e-09
1.13944e-09
1.20936e-09
1.28155e-09
1.35586e-09
1.43216e-09
1.51026e-09
1.58995e-09
1.671e-09
1.75318e-09
1.8362e-09
1.91977e-09
2.00356e-09
2.08724e-09
2.17046e-09
2.25285e-09
2.33401e-09
2.41357e-09
2.49111e-09
2.56624e-09
2.63854e-09
2.70763e-09
2.77311e-09
2.8346e-09
2.89175e-09
2.94419e-09
2.99163e-09
3.03376e-09
3.07033e-09
3.10111e-09
3.12591e-09
3.14459e-09
3.15702e-09
3.16316e-09
3.16297e-09
3.15648e-09
3.14374e-09
3.12488e-09
3.10002e-09
3.06937e-09
3.03313e-09
2.99158e-09
2.94499e-09
2.89369e-09
2.83801e-09
2.77831e-09
2.71495e-09
2.64834e-09
2.57885e-09
2.50688e-09
2.43283e-09
2.35708e-09
2.28002e-09
2.20201e-09
2.1234e-09
2.04455e-09
1.96576e-09
1.88734e-09
1.80956e-09
1.73267e-09
1.65692e-09
1.5825e-09
1.5096e-09
1.43838e-09
1.36897e-09
1.30149e-09
1.23603e-09
1.17267e-09
1.11145e-09
1.05242e-09
9.95596e-10
9.4098e-10
8.88567e-10
8.38338e-10
7.90263e-10
7.44303e-10
7.00413e-10
6.58541e-10
6.18629e-10
5.80618e-10
5.44442e-10
5.10036e-10
4.77334e-10
4.46268e-10
4.16773e-10
3.88781e-10
3.6223e-10
3.37058e-10
3.13204e-10
2.90612e-10
2.69227e-10
2.48998e-10
2.29875e-10
2.11815e-10
1.94773e-10
1.78711e-10
1.6359e-10
1.49377e-10
1.36038e-10
1.23544e-10
1.11864e-10
1.00972e-10
9.08411e-11
8.1445e-11
7.27583e-11
6.47555e-11
5.74113e-11
5.06998e-11
4.45947e-11
3.90691e-11
3.40952e-11
2.96449e-11
2.56892e-11
2.21984e-11
1.91426e-11
1.64912e-11
1.42136e-11
1.22791e-11
1.06572e-11
9.31765e-12
8.23069e-12
7.36722e-12
6.69895e-12
6.19854e-12
5.83971e-12
5.59745e-12
5.44808e-12
5.36948e-12
5.34115e-12
5.34445e-12
5.36268e-12
5.38126e-12
5.38783e-12
5.37235e-12
5.32715e-12
5.24692e-12
5.12867e-12
4.97156e-12
4.77679e-12
4.54729e-12
4.28743e-12
4.00272e-12
3.69941e-12
3.38419e-12
3.06377e-12
2.74461e-12
2.43266e-12
2.13312e-12
1.85032e-12
1.58759e-12
1.34729e-12
1.13079e-12
9.38582e-13
7.70387e-13
6.25267e-13
5.01784e-13
3.98143e-13
3.12327e-13
2.42217e-13
1.85697e-13
1.40729e-13
1.0542e-13
7.80553e-14
5.71211e-14
4.1313e-14
2.95291e-14
2.08576e-14
1.45583e-14
1.00408e-14
6.84257e-15
4.60747e-15
3.06568e-15
2.0162e-15
1.31178e-15
8.46411e-16
5.453e-16
3.57019e-16
2.47651e-16
1.96617e-16
1.71975e-12
1.72446e-12
1.75725e-12
1.81821e-12
1.90789e-12
2.02724e-12
2.17768e-12
2.36104e-12
2.57958e-12
2.83608e-12
3.13376e-12
3.4764e-12
3.86834e-12
4.31451e-12
4.82051e-12
5.39265e-12
6.03801e-12
6.76453e-12
7.58106e-12
8.49745e-12
9.52465e-12
1.06748e-11
1.19614e-11
1.33992e-11
1.50048e-11
1.67961e-11
1.87931e-11
2.10177e-11
2.34939e-11
2.62482e-11
2.93092e-11
3.27087e-11
3.6481e-11
4.06637e-11
4.52976e-11
5.04273e-11
5.61008e-11
6.23705e-11
6.92929e-11
7.69289e-11
8.53443e-11
9.46099e-11
1.04801e-10
1.16e-10
1.28294e-10
1.41774e-10
1.5654e-10
1.72697e-10
1.90354e-10
2.09631e-10
2.30648e-10
2.53537e-10
2.78431e-10
3.05472e-10
3.34807e-10
3.66585e-10
4.00964e-10
4.38102e-10
4.78162e-10
5.21309e-10
5.67708e-10
6.17527e-10
6.70929e-10
7.28075e-10
7.89124e-10
8.54227e-10
9.23526e-10
9.97154e-10
1.07523e-09
1.15786e-09
1.24514e-09
1.33712e-09
1.43386e-09
1.53537e-09
1.64166e-09
1.75266e-09
1.86833e-09
1.98855e-09
2.11316e-09
2.242e-09
2.37482e-09
2.51136e-09
2.6513e-09
2.79428e-09
2.93988e-09
3.08767e-09
3.23713e-09
3.38773e-09
3.53889e-09
3.68998e-09
3.84035e-09
3.98931e-09
4.13616e-09
4.28015e-09
4.42053e-09
4.55656e-09
4.68748e-09
4.81252e-09
4.93096e-09
5.04207e-09
5.14518e-09
5.23962e-09
5.32479e-09
5.40014e-09
5.46516e-09
5.51944e-09
5.56261e-09
5.59437e-09
5.61453e-09
5.62296e-09
5.61962e-09
5.60454e-09
5.57786e-09
5.53978e-09
5.49059e-09
5.43066e-09
5.36041e-09
5.28034e-09
5.19102e-09
5.09306e-09
4.98712e-09
4.87388e-09
4.75407e-09
4.62844e-09
4.49773e-09
4.36272e-09
4.22414e-09
4.08276e-09
3.9393e-09
3.79446e-09
3.64892e-09
3.50332e-09
3.35825e-09
3.21429e-09
3.07195e-09
2.93169e-09
2.79394e-09
2.65908e-09
2.52743e-09
2.39928e-09
2.27486e-09
2.15437e-09
2.03795e-09
1.92573e-09
1.81776e-09
1.71411e-09
1.61478e-09
1.51976e-09
1.42901e-09
1.34246e-09
1.26004e-09
1.18166e-09
1.10721e-09
1.03656e-09
9.6959e-10
9.0617e-10
8.46159e-10
7.89419e-10
7.35807e-10
6.85184e-10
6.37411e-10
5.92352e-10
5.49873e-10
5.09848e-10
4.72151e-10
4.36666e-10
4.0328e-10
3.71886e-10
3.42383e-10
3.14677e-10
2.88678e-10
2.64303e-10
2.41475e-10
2.2012e-10
2.0017e-10
1.81562e-10
1.64235e-10
1.48133e-10
1.33203e-10
1.19392e-10
1.06654e-10
9.49385e-11
8.4201e-11
7.43958e-11
6.5478e-11
5.74031e-11
5.01267e-11
4.36043e-11
3.77917e-11
3.26443e-11
2.81178e-11
2.41679e-11
2.07508e-11
1.78228e-11
1.53412e-11
1.32639e-11
1.15498e-11
1.0159e-11
9.05302e-12
8.19473e-12
7.54866e-12
7.08108e-12
6.76012e-12
6.55593e-12
6.44076e-12
6.38916e-12
6.37807e-12
6.38699e-12
6.39812e-12
6.39643e-12
6.36977e-12
6.30888e-12
6.20739e-12
6.06171e-12
5.87085e-12
5.63621e-12
5.36125e-12
5.05117e-12
4.71244e-12
4.35246e-12
3.97904e-12
3.60008e-12
3.22315e-12
2.85519e-12
2.50226e-12
2.16937e-12
1.8604e-12
1.57803e-12
1.32383e-12
1.09832e-12
9.01107e-13
7.31057e-13
5.86446e-13
4.65139e-13
3.64747e-13
2.8277e-13
2.16713e-13
1.64181e-13
1.2295e-13
9.10073e-14
6.65805e-14
4.81414e-14
3.44008e-14
2.42928e-14
1.6952e-14
1.16891e-14
7.96417e-15
5.36163e-15
3.56679e-15
2.34534e-15
1.52566e-15
9.84257e-16
6.34005e-16
4.15031e-16
2.87848e-16
2.28508e-16
3.06157e-12
3.07028e-12
3.12928e-12
3.23874e-12
3.39965e-12
3.61378e-12
3.88366e-12
4.21263e-12
4.60481e-12
5.06521e-12
5.5997e-12
6.21512e-12
6.91935e-12
7.72134e-12
8.63127e-12
9.66061e-12
1.08222e-11
1.21306e-11
1.36017e-11
1.52536e-11
1.71063e-11
1.91818e-11
2.15047e-11
2.41022e-11
2.70042e-11
3.02438e-11
3.38573e-11
3.7885e-11
4.23708e-11
4.73629e-11
5.29144e-11
5.90829e-11
6.59318e-11
7.353e-11
8.19527e-11
9.12814e-11
1.01605e-10
1.13019e-10
1.25629e-10
1.39545e-10
1.5489e-10
1.71794e-10
1.90396e-10
2.10847e-10
2.33308e-10
2.57948e-10
2.84951e-10
3.1451e-10
3.46829e-10
3.82125e-10
4.20624e-10
4.62566e-10
5.08199e-10
5.57784e-10
6.11591e-10
6.69897e-10
7.32989e-10
8.01161e-10
8.74712e-10
9.53943e-10
1.03916e-09
1.13066e-09
1.22875e-09
1.33373e-09
1.44586e-09
1.56544e-09
1.69271e-09
1.8279e-09
1.97124e-09
2.12289e-09
2.28301e-09
2.45171e-09
2.62904e-09
2.81502e-09
3.00962e-09
3.21273e-09
3.4242e-09
3.64379e-09
3.87119e-09
4.10603e-09
4.34785e-09
4.59609e-09
4.85015e-09
5.10929e-09
5.37272e-09
5.63956e-09
5.90885e-09
6.17952e-09
6.45048e-09
6.72052e-09
6.98839e-09
7.2528e-09
7.51239e-09
7.76578e-09
8.01158e-09
8.24837e-09
8.47475e-09
8.68935e-09
8.8908e-09
9.07782e-09
9.24917e-09
9.4037e-09
9.54035e-09
9.65817e-09
9.75632e-09
9.83411e-09
9.89098e-09
9.92651e-09
9.94044e-09
9.93268e-09
9.90329e-09
9.85248e-09
9.78064e-09
9.6883e-09
9.57613e-09
9.44495e-09
9.2957e-09
9.12943e-09
8.94732e-09
8.75059e-09
8.54057e-09
8.31862e-09
8.08618e-09
7.84466e-09
7.59551e-09
7.34018e-09
7.08007e-09
6.81656e-09
6.55098e-09
6.28462e-09
6.01867e-09
5.75426e-09
5.49245e-09
5.23418e-09
4.98033e-09
4.73167e-09
4.4889e-09
4.25259e-09
4.02325e-09
3.80129e-09
3.58704e-09
3.38075e-09
3.1826e-09
2.99268e-09
2.81105e-09
2.63768e-09
2.47252e-09
2.31545e-09
2.16632e-09
2.02495e-09
1.89113e-09
1.76462e-09
1.64517e-09
1.53251e-09
1.42637e-09
1.32646e-09
1.2325e-09
1.14421e-09
1.0613e-09
9.835e-10
9.10533e-10
8.42137e-10
7.78061e-10
7.1806e-10
6.61903e-10
6.09369e-10
5.60249e-10
5.14345e-10
4.71472e-10
4.31456e-10
3.94134e-10
3.59354e-10
3.26974e-10
2.96862e-10
2.68894e-10
2.42955e-10
2.18937e-10
1.96739e-10
1.76267e-10
1.5743e-10
1.40143e-10
1.24324e-10
1.09895e-10
9.67798e-11
8.49053e-11
7.41996e-11
6.45926e-11
5.60152e-11
4.84e-11
4.16802e-11
3.57906e-11
3.06671e-11
2.62468e-11
2.24686e-11
1.92729e-11
1.66021e-11
1.44005e-11
1.26146e-11
1.11933e-11
1.00879e-11
9.25213e-12
8.64261e-12
8.21856e-12
7.94206e-12
7.77818e-12
7.69506e-12
7.66402e-12
7.65972e-12
7.66024e-12
7.64718e-12
7.60573e-12
7.52463e-12
7.39616e-12
7.21597e-12
6.98285e-12
6.69847e-12
6.36696e-12
5.99448e-12
5.58874e-12
5.15849e-12
4.71302e-12
4.26164e-12
3.81327e-12
3.37609e-12
2.95721e-12
2.5625e-12
2.19646e-12
1.8622e-12
1.56152e-12
1.29495e-12
1.06198e-12
8.61224e-13
6.90595e-13
5.4754e-13
4.29209e-13
3.32629e-13
2.5484e-13
1.93005e-13
1.44491e-13
1.06921e-13
7.82016e-14
5.65292e-14
4.03844e-14
2.85113e-14
1.98913e-14
1.37129e-14
9.34115e-15
6.28742e-15
4.18191e-15
2.74934e-15
1.78817e-15
1.15343e-15
7.42864e-16
4.86219e-16
3.37175e-16
2.6764e-16
5.36967e-12
5.38556e-12
5.4902e-12
5.68392e-12
5.96851e-12
6.34712e-12
6.82432e-12
7.40605e-12
8.09971e-12
8.91423e-12
9.86014e-12
1.09497e-11
1.21969e-11
1.36178e-11
1.52307e-11
1.70562e-11
1.91172e-11
2.14397e-11
2.40525e-11
2.6988e-11
3.0282e-11
3.39742e-11
3.81088e-11
4.27348e-11
4.7906e-11
5.3682e-11
6.01287e-11
6.73182e-11
7.53301e-11
8.42516e-11
9.41784e-11
1.05215e-10
1.17476e-10
1.31087e-10
1.46182e-10
1.62912e-10
1.81436e-10
2.01929e-10
2.24579e-10
2.49592e-10
2.77188e-10
3.07603e-10
3.41092e-10
3.77929e-10
4.18406e-10
4.62834e-10
5.11546e-10
5.64893e-10
6.23249e-10
6.87009e-10
7.56586e-10
8.32415e-10
9.14953e-10
1.00467e-09
1.10206e-09
1.20763e-09
1.32191e-09
1.44542e-09
1.57871e-09
1.72233e-09
1.87682e-09
2.04275e-09
2.22064e-09
2.41103e-09
2.61443e-09
2.83133e-09
3.06217e-09
3.30738e-09
3.56732e-09
3.8423e-09
4.13256e-09
4.43828e-09
4.75954e-09
5.09634e-09
5.44856e-09
5.81599e-09
6.19828e-09
6.59496e-09
7.00541e-09
7.4289e-09
7.8645e-09
8.31117e-09
8.76769e-09
9.23268e-09
9.70461e-09
1.01818e-08
1.06624e-08
1.11444e-08
1.16258e-08
1.21042e-08
1.25773e-08
1.30428e-08
1.3498e-08
1.39404e-08
1.43675e-08
1.47766e-08
1.51653e-08
1.55309e-08
1.5871e-08
1.61834e-08
1.64658e-08
1.67163e-08
1.6933e-08
1.71142e-08
1.72587e-08
1.73653e-08
1.74331e-08
1.74617e-08
1.74506e-08
1.74001e-08
1.73104e-08
1.71822e-08
1.70163e-08
1.68141e-08
1.6577e-08
1.63066e-08
1.60051e-08
1.56744e-08
1.53169e-08
1.4935e-08
1.45314e-08
1.41087e-08
1.36694e-08
1.32165e-08
1.27525e-08
1.22801e-08
1.18019e-08
1.13204e-08
1.08381e-08
1.0357e-08
9.87941e-09
9.40723e-09
8.94223e-09
8.48604e-09
8.04007e-09
7.60559e-09
7.18365e-09
6.77517e-09
6.38086e-09
6.0013e-09
5.63691e-09
5.28795e-09
4.95458e-09
4.63682e-09