/*--------------------------------*- C++ -*----------------------------------*\
| =========                 |                                                 |
| \\      /  F ield         | OpenFOAM: The Open Source CFD Toolbox           |
|  \\    /   O peration     | Version:  v2012                                 |
|   \\  /    A nd           | Website:  www.openfoam.com                      |
|    \\/     M anipulation  |                                                 |
\*---------------------------------------------------------------------------*/
FoamFile
{
    version     2.0;
    format      ascii;
    class       volScalarField;
    location    "0";
    object      pRec;
}
// * * * * * * * * * * * * * * * * * * * * * * * * * * * * * * * * * * * * * //

dimensions      [0 2 -2 0 0 0 0];


internalField   nonuniform List<scalar> 
4000
(
-6.83068e-13
-6.77494e-13
-6.78552e-13
-6.80972e-13
-6.79312e-13
-6.8039e-13
-6.78036e-13
-6.72818e-13
-6.63557e-13
-6.58795e-13
-6.59437e-13
-6.54106e-13
-6.45781e-13
-6.33192e-13
-6.18867e-13
-6.13144e-13
-6.09768e-13
-6.07192e-13
-5.9938e-13
-5.87515e-13
-5.76874e-13
-5.69467e-13
-5.64292e-13
-5.55102e-13
-5.44108e-13
-5.32977e-13
-5.30205e-13
-5.25325e-13
-5.18894e-13
-5.06983e-13
-4.92227e-13
-4.8466e-13
-4.82259e-13
-4.79303e-13
-4.73938e-13
-4.69655e-13
-4.58931e-13
-4.41481e-13
-4.24388e-13
-4.19898e-13
-4.19173e-13
-4.17318e-13
-4.16871e-13
-4.11228e-13
-4.01986e-13
-3.93103e-13
-3.84127e-13
-3.74953e-13
-3.66965e-13
-3.5995e-13
-3.52596e-13
-3.45543e-13
-3.39014e-13
-3.31269e-13
-3.23998e-13
-3.12175e-13
-3.04934e-13
-3.03106e-13
-3.0139e-13
-2.98997e-13
-2.91346e-13
-2.84631e-13
-2.75137e-13
-2.64104e-13
-2.56569e-13
-2.49785e-13
-2.45343e-13
-2.3682e-13
-2.26248e-13
-2.19423e-13
-2.12131e-13
-2.04092e-13
-1.90656e-13
-1.83289e-13
-1.81417e-13
-1.77507e-13
-1.72304e-13
-1.65579e-13
-1.55573e-13
-1.41577e-13
-1.29208e-13
-1.23011e-13
-1.14377e-13
-1.09174e-13
-1.03188e-13
-9.71444e-14
-8.84071e-14
-8.05866e-14
-7.73242e-14
-7.28753e-14
-6.70959e-14
-6.03092e-14
-5.42884e-14
-5.00181e-14
-4.05012e-14
-3.18201e-14
-2.47011e-14
-1.71023e-14
-8.99524e-15
-2.03878e-15
-6.79692e-13
-6.78115e-13
-6.8093e-13
-6.81112e-13
-6.82139e-13
-6.79047e-13
-6.75443e-13
-6.73166e-13
-6.67535e-13
-6.61628e-13
-6.55999e-13
-6.51503e-13
-6.44031e-13
-6.33093e-13
-6.22445e-13
-6.16243e-13
-6.11777e-13
-6.05694e-13
-5.9765e-13
-5.90724e-13
-5.79668e-13
-5.67553e-13
-5.60667e-13
-5.52335e-13
-5.41953e-13
-5.35804e-13
-5.31731e-13
-5.2605e-13
-5.17625e-13
-5.03948e-13
-4.9497e-13
-4.87964e-13
-4.81636e-13
-4.75926e-13
-4.71196e-13
-4.65899e-13
-4.57539e-13
-4.44468e-13
-4.3086e-13
-4.23768e-13
-4.19229e-13
-4.17194e-13
-4.13821e-13
-4.09715e-13
-4.02798e-13
-3.93124e-13
-3.8295e-13
-3.74867e-13
-3.66653e-13
-3.5771e-13
-3.5157e-13
-3.44544e-13
-3.39423e-13
-3.3273e-13
-3.25504e-13
-3.14743e-13
-3.04472e-13
-3.01233e-13
-2.9963e-13
-2.97416e-13
-2.93474e-13
-2.8485e-13
-2.75851e-13
-2.65984e-13
-2.5855e-13
-2.50094e-13
-2.42815e-13
-2.3569e-13
-2.28692e-13
-2.20994e-13
-2.12035e-13
-2.04226e-13
-1.95191e-13
-1.86686e-13
-1.8136e-13
-1.73586e-13
-1.71044e-13
-1.63397e-13
-1.52605e-13
-1.40372e-13
-1.30239e-13
-1.24283e-13
-1.18206e-13
-1.11073e-13
-1.01809e-13
-9.52177e-14
-8.63569e-14
-7.85296e-14
-7.5649e-14
-7.15365e-14
-6.83425e-14
-6.29245e-14
-5.78147e-14
-4.78882e-14
-3.90866e-14
-3.23609e-14
-2.40576e-14
-1.71941e-14
-1.02761e-14
-3.85308e-15
-6.79004e-13
-6.78077e-13
-6.80178e-13
-6.83244e-13
-6.84147e-13
-6.80146e-13
-6.74424e-13
-6.71963e-13
-6.6527e-13
-6.61427e-13
-6.57138e-13
-6.50798e-13
-6.43317e-13
-6.3458e-13
-6.24484e-13
-6.17452e-13
-6.10572e-13
-6.04258e-13
-5.98264e-13
-5.89375e-13
-5.78873e-13
-5.69454e-13
-5.61345e-13
-5.53245e-13
-5.43869e-13
-5.38285e-13
-5.32636e-13
-5.24191e-13
-5.15171e-13
-5.02368e-13
-4.95114e-13
-4.88033e-13
-4.81235e-13
-4.78015e-13
-4.73311e-13
-4.66841e-13
-4.56082e-13
-4.45614e-13
-4.34649e-13
-4.23757e-13
-4.18373e-13
-4.14019e-13
-4.14095e-13
-4.10277e-13
-4.03395e-13
-3.93094e-13
-3.81117e-13
-3.72241e-13
-3.68146e-13
-3.63533e-13
-3.529e-13
-3.45241e-13
-3.37046e-13
-3.29419e-13
-3.23068e-13
-3.15428e-13
-3.05308e-13
-3.03815e-13
-3.03916e-13
-2.99472e-13
-2.91088e-13
-2.80112e-13
-2.72695e-13
-2.67137e-13
-2.6108e-13
-2.53423e-13
-2.45445e-13
-2.35183e-13
-2.27327e-13
-2.17543e-13
-2.09096e-13
-2.01773e-13
-1.92144e-13
-1.86108e-13
-1.81171e-13
-1.75574e-13
-1.70391e-13
-1.63231e-13
-1.52239e-13
-1.41801e-13
-1.35121e-13
-1.26023e-13
-1.14014e-13
-1.07699e-13
-1.01754e-13
-9.74737e-14
-9.0958e-14
-8.23686e-14
-7.57061e-14
-6.96489e-14
-6.56977e-14
-6.27072e-14
-5.6188e-14
-4.82944e-14
-3.86624e-14
-3.01871e-14
-2.48357e-14
-1.80482e-14
-1.3836e-14
-4.50187e-15
-6.80006e-13
-6.80847e-13
-6.81456e-13
-6.77774e-13
-6.82543e-13
-6.77432e-13
-6.74516e-13
-6.72256e-13
-6.69457e-13
-6.63594e-13
-6.55466e-13
-6.46433e-13
-6.39378e-13
-6.34673e-13
-6.32654e-13
-6.22725e-13
-6.08858e-13
-6.01362e-13
-5.96987e-13
-5.88389e-13
-5.79019e-13
-5.70942e-13
-5.61684e-13
-5.47664e-13
-5.39986e-13
-5.36212e-13
-5.3176e-13
-5.26236e-13
-5.15906e-13
-5.06302e-13
-4.99164e-13
-4.90141e-13
-4.81986e-13
-4.76152e-13
-4.68691e-13
-4.66371e-13
-4.56883e-13
-4.44543e-13
-4.35705e-13
-4.26087e-13
-4.21604e-13
-4.18604e-13
-4.13718e-13
-4.07478e-13
-3.98504e-13
-3.89734e-13
-3.81368e-13
-3.75811e-13
-3.68349e-13
-3.57766e-13
-3.49301e-13
-3.44124e-13
-3.38938e-13
-3.33382e-13
-3.22559e-13
-3.16568e-13
-3.07682e-13
-3.02774e-13
-3.02907e-13
-2.97502e-13
-2.89583e-13
-2.82092e-13
-2.76723e-13
-2.6949e-13
-2.60939e-13
-2.52034e-13
-2.44325e-13
-2.35351e-13
-2.27742e-13
-2.20031e-13
-2.12823e-13
-2.04921e-13
-1.95161e-13
-1.87556e-13
-1.80794e-13
-1.74156e-13
-1.7018e-13
-1.62807e-13
-1.52258e-13
-1.4215e-13
-1.34263e-13
-1.26341e-13
-1.16228e-13
-1.06755e-13
-1.0094e-13
-9.59223e-14
-8.9031e-14
-8.13715e-14
-7.38311e-14
-7.00948e-14
-6.78746e-14
-6.34612e-14
-5.77575e-14
-4.70378e-14
-3.81475e-14
-3.25291e-14
-2.64599e-14
-1.75574e-14
-1.11546e-14
-4.27596e-15
-6.80625e-13
-6.84801e-13
-6.81175e-13
-6.77279e-13
-6.74136e-13
-6.77693e-13
-6.77233e-13
-6.74804e-13
-6.68331e-13
-6.60819e-13
-6.52717e-13
-6.48017e-13
-6.38517e-13
-6.33362e-13
-6.3182e-13
-6.25303e-13
-6.15508e-13
-6.0541e-13
-5.94007e-13
-5.83279e-13
-5.7845e-13
-5.70061e-13
-5.56171e-13
-5.47317e-13
-5.43516e-13
-5.38533e-13
-5.33224e-13
-5.2511e-13
-5.18255e-13
-5.08955e-13
-4.9981e-13
-4.90957e-13
-4.81968e-13
-4.76318e-13
-4.70245e-13
-4.65877e-13
-4.55326e-13
-4.44494e-13
-4.34036e-13
-4.26728e-13
-4.21918e-13
-4.20364e-13
-4.139e-13
-4.06079e-13
-3.96775e-13
-3.86526e-13
-3.80081e-13
-3.74681e-13
-3.677e-13
-3.61543e-13
-3.53042e-13
-3.46215e-13
-3.39053e-13
-3.32934e-13
-3.22392e-13
-3.15082e-13
-3.08921e-13
-3.04233e-13
-3.0244e-13
-2.96742e-13
-2.89937e-13
-2.82286e-13
-2.74457e-13
-2.68709e-13
-2.63305e-13
-2.56863e-13
-2.486e-13
-2.36448e-13
-2.27549e-13
-2.17181e-13
-2.09315e-13
-2.02578e-13
-1.95538e-13
-1.87562e-13
-1.77603e-13
-1.71413e-13
-1.69195e-13
-1.62476e-13
-1.5473e-13
-1.44302e-13
-1.35465e-13
-1.28329e-13
-1.15692e-13
-1.05449e-13
-9.78297e-14
-9.28399e-14
-8.94775e-14
-8.40286e-14
-7.6168e-14
-7.14083e-14
-6.68151e-14
-6.31939e-14
-5.56701e-14
-5.01537e-14
-4.2222e-14
-3.28635e-14
-2.61037e-14
-1.94163e-14
-1.06203e-14
-1.46697e-15
-6.77215e-13
-6.86194e-13
-6.82406e-13
-6.74091e-13
-6.78562e-13
-6.8139e-13
-6.78895e-13
-6.74585e-13
-6.66455e-13
-6.5402e-13
-6.50415e-13
-6.4728e-13
-6.43443e-13
-6.34628e-13
-6.28148e-13
-6.26783e-13
-6.16822e-13
-6.07959e-13
-5.99454e-13
-5.86609e-13
-5.75446e-13
-5.64316e-13
-5.47584e-13
-5.43799e-13
-5.44133e-13
-5.41781e-13
-5.33398e-13
-5.25123e-13
-5.17589e-13
-5.11498e-13
-5.00706e-13
-4.91041e-13
-4.83236e-13
-4.79163e-13
-4.75152e-13
-4.64635e-13
-4.53334e-13
-4.44587e-13
-4.33774e-13
-4.29135e-13
-4.24492e-13
-4.20643e-13
-4.1224e-13
-4.06092e-13
-3.97055e-13
-3.85273e-13
-3.77138e-13
-3.71498e-13
-3.67953e-13
-3.61345e-13
-3.54327e-13
-3.45779e-13
-3.38265e-13
-3.30488e-13
-3.21208e-13
-3.16289e-13
-3.11443e-13
-3.05154e-13
-3.01113e-13
-2.9716e-13
-2.92383e-13
-2.8342e-13
-2.74865e-13
-2.68389e-13
-2.60093e-13
-2.54921e-13
-2.49048e-13
-2.37797e-13
-2.2862e-13
-2.20482e-13
-2.10816e-13
-2.02748e-13
-1.96961e-13
-1.89032e-13
-1.79385e-13
-1.73953e-13
-1.68195e-13
-1.59154e-13
-1.53991e-13
-1.46222e-13
-1.38443e-13
-1.27493e-13
-1.1338e-13
-1.03727e-13
-9.88704e-14
-9.49184e-14
-9.06687e-14
-8.22848e-14
-7.51587e-14
-7.05541e-14
-6.66953e-14
-6.3532e-14
-5.39555e-14
-4.87826e-14
-4.16253e-14
-3.52372e-14
-2.64333e-14
-1.83815e-14
-8.66838e-15
-4.33903e-16
-6.81999e-13
-6.82362e-13
-6.81642e-13
-6.78742e-13
-6.75633e-13
-6.79261e-13
-6.78264e-13
-6.72264e-13
-6.64056e-13
-6.5487e-13
-6.47076e-13
-6.46529e-13
-6.45391e-13
-6.35817e-13
-6.29486e-13
-6.24851e-13
-6.21516e-13
-6.12967e-13
-5.96283e-13
-5.79099e-13
-5.63991e-13
-5.58945e-13
-5.57686e-13
-5.54841e-13
-5.48272e-13
-5.41245e-13
-5.31579e-13
-5.23184e-13
-5.18411e-13
-5.1358e-13
-5.03617e-13
-4.89948e-13
-4.83686e-13
-4.75072e-13
-4.69674e-13
-4.6251e-13
-4.55541e-13
-4.49255e-13
-4.38406e-13
-4.27731e-13
-4.20825e-13
-4.15373e-13
-4.10746e-13
-4.06724e-13
-3.99986e-13
-3.89939e-13
-3.78937e-13
-3.70237e-13
-3.64659e-13
-3.61431e-13
-3.5478e-13
-3.4948e-13
-3.41134e-13
-3.30994e-13
-3.22833e-13
-3.17126e-13
-3.10596e-13
-3.00335e-13
-2.97232e-13
-2.96768e-13
-2.97102e-13
-2.88694e-13
-2.77282e-13
-2.66276e-13
-2.57132e-13
-2.51151e-13
-2.43497e-13
-2.3351e-13
-2.2469e-13
-2.20234e-13
-2.18984e-13
-2.0862e-13
-1.98033e-13
-1.91925e-13
-1.82564e-13
-1.72577e-13
-1.63809e-13
-1.55286e-13
-1.50087e-13
-1.4498e-13
-1.37531e-13
-1.27143e-13
-1.18377e-13
-1.09258e-13
-1.01652e-13
-9.21166e-14
-8.78518e-14
-8.3279e-14
-7.62574e-14
-7.2289e-14
-6.62476e-14
-5.89468e-14
-5.38207e-14
-4.75917e-14
-4.10253e-14
-3.30326e-14
-2.60314e-14
-1.67729e-14
-8.94948e-15
-2.6247e-15
-6.80388e-13
-6.79395e-13
-6.77501e-13
-6.79791e-13
-6.82014e-13
-6.81549e-13
-6.77398e-13
-6.70268e-13
-6.61861e-13
-6.55666e-13
-6.51075e-13
-6.45977e-13
-6.4165e-13
-6.33344e-13
-6.2944e-13
-6.25425e-13
-6.21238e-13
-6.1298e-13
-5.91947e-13
-5.81505e-13
-5.76347e-13
-5.68619e-13
-5.57419e-13
-5.47893e-13
-5.45015e-13
-5.37498e-13
-5.2784e-13
-5.22518e-13
-5.16539e-13
-5.10522e-13
-5.039e-13
-4.95361e-13
-4.89465e-13
-4.81969e-13
-4.70621e-13
-4.61962e-13
-4.53779e-13
-4.44696e-13
-4.37092e-13
-4.2808e-13
-4.21427e-13
-4.17625e-13
-4.11379e-13
-4.10206e-13
-4.05174e-13
-3.90612e-13
-3.74887e-13
-3.62959e-13
-3.63367e-13
-3.62683e-13
-3.59003e-13
-3.5293e-13
-3.41154e-13
-3.30822e-13
-3.2023e-13
-3.14408e-13
-3.11306e-13
-3.06107e-13
-2.99203e-13
-2.94583e-13
-2.931e-13
-2.85954e-13
-2.78444e-13
-2.70186e-13
-2.62244e-13
-2.53414e-13
-2.44949e-13
-2.3567e-13
-2.29274e-13
-2.22263e-13
-2.14949e-13
-2.08794e-13
-1.96637e-13
-1.84131e-13
-1.77308e-13
-1.7229e-13
-1.67498e-13
-1.59306e-13
-1.54219e-13
-1.47667e-13
-1.38496e-13
-1.27474e-13
-1.14839e-13
-1.03957e-13
-9.57804e-14
-9.17119e-14
-8.88655e-14
-8.46742e-14
-7.76845e-14
-7.08536e-14
-6.39909e-14
-5.84796e-14
-5.39155e-14
-4.90433e-14
-3.96764e-14
-3.12907e-14
-2.53421e-14
-1.83461e-14
-1.0362e-14
-1.20782e-15
-6.82461e-13
-6.83379e-13
-6.79017e-13
-6.74119e-13
-6.76861e-13
-6.79167e-13
-6.78724e-13
-6.70733e-13
-6.59639e-13
-6.57385e-13
-6.51779e-13
-6.42546e-13
-6.35928e-13
-6.33672e-13
-6.31794e-13
-6.27724e-13
-6.21244e-13
-6.10999e-13
-5.96407e-13
-5.83344e-13
-5.74708e-13
-5.65688e-13
-5.60401e-13
-5.54002e-13
-5.45775e-13
-5.35515e-13
-5.26753e-13
-5.2223e-13
-5.19896e-13
-5.11311e-13
-5.05048e-13
-4.96949e-13
-4.86076e-13
-4.75325e-13
-4.7043e-13
-4.63112e-13
-4.53612e-13
-4.44728e-13
-4.38416e-13
-4.32175e-13
-4.27581e-13
-4.20048e-13
-4.0795e-13
-4.01795e-13
-3.97718e-13
-3.91447e-13
-3.79886e-13
-3.71625e-13
-3.66361e-13
-3.6074e-13
-3.55197e-13
-3.48725e-13
-3.39905e-13
-3.32024e-13
-3.24496e-13
-3.19619e-13
-3.13032e-13
-3.06684e-13
-2.99757e-13
-2.95739e-13
-2.90178e-13
-2.83393e-13
-2.77122e-13
-2.69732e-13
-2.59575e-13
-2.49881e-13
-2.44088e-13
-2.36749e-13
-2.28713e-13
-2.21551e-13
-2.13398e-13
-2.09114e-13
-2.00833e-13
-1.90646e-13
-1.78942e-13
-1.72485e-13
-1.68434e-13
-1.60799e-13
-1.5464e-13
-1.45715e-13
-1.38427e-13
-1.28167e-13
-1.15529e-13
-1.05456e-13
-9.80064e-14
-9.22662e-14
-8.94481e-14
-8.39973e-14
-7.73446e-14
-7.05631e-14
-6.33048e-14
-5.781e-14
-5.0743e-14
-4.56321e-14
-3.90879e-14
-3.14805e-14
-2.42265e-14
-1.51065e-14
-6.94633e-15
1.3348e-15
-6.81771e-13
-6.81103e-13
-6.81711e-13
-6.77964e-13
-6.74905e-13
-6.76638e-13
-6.76079e-13
-6.73091e-13
-6.65813e-13
-6.53477e-13
-6.45996e-13
-6.39765e-13
-6.3671e-13
-6.3596e-13
-6.3292e-13
-6.26716e-13
-6.17596e-13
-6.12154e-13
-6.04232e-13
-5.88262e-13
-5.7439e-13
-5.61568e-13
-5.56321e-13
-5.50246e-13
-5.46473e-13
-5.40104e-13
-5.31061e-13
-5.24647e-13
-5.1846e-13
-5.11986e-13
-5.05456e-13
-4.96635e-13
-4.86824e-13
-4.75051e-13
-4.67632e-13
-4.615e-13
-4.56104e-13
-4.45682e-13
-4.39978e-13
-4.33187e-13
-4.23408e-13
-4.1416e-13
-4.07051e-13
-4.01972e-13
-4.00329e-13
-3.9624e-13
-3.84689e-13
-3.73629e-13
-3.6672e-13
-3.58852e-13
-3.52604e-13
-3.4829e-13
-3.41331e-13
-3.33182e-13
-3.24904e-13
-3.1825e-13
-3.12467e-13
-3.06017e-13
-2.99907e-13
-2.97614e-13
-2.93753e-13
-2.89676e-13
-2.83228e-13
-2.7039e-13
-2.56635e-13
-2.43083e-13
-2.36072e-13
-2.31736e-13
-2.28061e-13
-2.27415e-13
-2.21244e-13
-2.10837e-13
-2.03221e-13
-1.9245e-13
-1.79732e-13
-1.70089e-13
-1.65627e-13
-1.59248e-13
-1.54205e-13
-1.44879e-13
-1.37227e-13
-1.28388e-13
-1.17776e-13
-1.08948e-13
-9.89996e-14
-9.07126e-14
-8.65213e-14
-8.12665e-14
-7.63194e-14
-6.98314e-14
-6.18405e-14
-5.32124e-14
-4.71878e-14
-4.29174e-14
-3.53253e-14
-2.73591e-14
-1.99083e-14
-1.34985e-14
-5.1489e-15
5.85369e-16
-6.79746e-13
-6.79019e-13
-6.77927e-13
-6.79584e-13
-6.79914e-13
-6.74443e-13
-6.72592e-13
-6.69144e-13
-6.63894e-13
-6.58445e-13
-6.47008e-13
-6.38412e-13
-6.37329e-13
-6.38413e-13
-6.33423e-13
-6.289e-13
-6.16856e-13
-6.10051e-13
-6.02947e-13
-5.89476e-13
-5.78341e-13
-5.62575e-13
-5.52909e-13
-5.48815e-13
-5.43545e-13
-5.3796e-13
-5.33371e-13
-5.26734e-13
-5.20258e-13
-5.13405e-13
-5.0477e-13
-4.95421e-13
-4.85482e-13
-4.77002e-13
-4.71655e-13
-4.63632e-13
-4.54613e-13
-4.45647e-13
-4.40559e-13
-4.3124e-13
-4.23848e-13
-4.14414e-13
-4.07893e-13
-4.05461e-13
-4.02553e-13
-3.94579e-13
-3.82253e-13
-3.69918e-13
-3.6389e-13
-3.57514e-13
-3.55294e-13
-3.50524e-13
-3.40748e-13
-3.32732e-13
-3.24308e-13
-3.21831e-13
-3.15582e-13
-3.08567e-13
-2.99799e-13
-2.91829e-13
-2.896e-13
-2.82147e-13
-2.77929e-13
-2.73025e-13
-2.59989e-13
-2.4631e-13
-2.36988e-13
-2.30742e-13
-2.28578e-13
-2.301e-13
-2.21492e-13
-2.13485e-13
-2.03824e-13
-1.92114e-13
-1.77956e-13
-1.66421e-13
-1.65424e-13
-1.62142e-13
-1.57346e-13
-1.48291e-13
-1.40979e-13
-1.3193e-13
-1.17244e-13
-1.05668e-13
-9.48447e-14
-8.51257e-14
-8.69033e-14
-8.45378e-14
-7.63005e-14
-6.85203e-14
-5.95363e-14
-5.26379e-14
-4.654e-14
-4.08199e-14
-3.6927e-14
-3.04285e-14
-1.67266e-14
-4.98672e-15
2.48031e-15
-4.36278e-16
-6.82038e-13
-6.80265e-13
-6.7821e-13
-6.7932e-13
-6.78371e-13
-6.73331e-13
-6.73861e-13
-6.70224e-13
-6.63496e-13
-6.56072e-13
-6.48049e-13
-6.41086e-13
-6.33585e-13
-6.31413e-13
-6.2924e-13
-6.24164e-13
-6.19949e-13
-6.14998e-13
-6.0501e-13
-5.90627e-13
-5.77366e-13
-5.69336e-13
-5.59259e-13
-5.50046e-13
-5.43984e-13
-5.3286e-13
-5.29597e-13
-5.26344e-13
-5.21508e-13
-5.1535e-13
-5.0687e-13
-4.96209e-13
-4.84485e-13
-4.74227e-13
-4.68814e-13
-4.61719e-13
-4.56149e-13
-4.48591e-13
-4.42607e-13
-4.30444e-13
-4.22399e-13
-4.11647e-13
-4.07598e-13
-4.07416e-13
-4.01219e-13
-3.93974e-13
-3.83162e-13
-3.73016e-13
-3.64892e-13
-3.57143e-13
-3.52061e-13
-3.49031e-13
-3.41419e-13
-3.35879e-13
-3.28994e-13
-3.2071e-13
-3.14375e-13
-3.07081e-13
-2.99403e-13
-2.93934e-13
-2.91871e-13
-2.92075e-13
-2.82398e-13
-2.70246e-13
-2.52882e-13
-2.43731e-13
-2.37447e-13
-2.33321e-13
-2.27948e-13
-2.2484e-13
-2.18834e-13
-2.17004e-13
-2.10253e-13
-1.96943e-13
-1.77177e-13
-1.61044e-13
-1.58772e-13
-1.62251e-13
-1.58548e-13
-1.48512e-13
-1.39746e-13
-1.29203e-13
-1.18577e-13
-1.09534e-13
-9.85036e-14
-8.7993e-14
-8.17086e-14
-8.06176e-14
-7.48039e-14
-6.72134e-14
-5.7464e-14
-5.15899e-14
-4.59313e-14
-3.92991e-14
-3.25994e-14
-2.71241e-14
-1.53355e-14
-5.89643e-15
-2.19337e-16
-2.70213e-16
-6.79915e-13
-6.79164e-13
-6.71549e-13
-6.80307e-13
-6.80031e-13
-6.7721e-13
-6.70746e-13
-6.64509e-13
-6.59102e-13
-6.51422e-13
-6.47367e-13
-6.43115e-13
-6.41924e-13
-6.36226e-13
-6.30844e-13
-6.27242e-13
-6.22344e-13
-6.15831e-13
-6.05621e-13
-5.91017e-13
-5.72036e-13
-5.58497e-13
-5.50634e-13
-5.48638e-13
-5.43475e-13
-5.38011e-13
-5.31917e-13
-5.25852e-13
-5.22073e-13
-5.18142e-13
-5.09604e-13
-4.9649e-13
-4.8647e-13
-4.78374e-13
-4.7384e-13
-4.63632e-13
-4.53115e-13
-4.47572e-13
-4.40799e-13
-4.30132e-13
-4.20285e-13
-4.16341e-13
-4.11805e-13
-4.06014e-13
-3.9642e-13
-3.86929e-13
-3.80671e-13
-3.73283e-13
-3.66936e-13
-3.60986e-13
-3.548e-13
-3.49794e-13
-3.39589e-13
-3.30691e-13
-3.31915e-13
-3.31848e-13
-3.17717e-13
-3.03046e-13
-2.94175e-13
-2.88013e-13
-2.86471e-13
-2.83946e-13
-2.83068e-13
-2.73754e-13
-2.57899e-13
-2.49252e-13
-2.36153e-13
-2.34074e-13
-2.28298e-13
-2.22983e-13
-2.18182e-13
-2.17041e-13
-2.10833e-13
-1.95396e-13
-1.79193e-13
-1.65164e-13
-1.60968e-13
-1.63268e-13
-1.54967e-13
-1.44827e-13
-1.38101e-13
-1.30133e-13
-1.21465e-13
-1.10428e-13
-9.97122e-14
-8.78414e-14
-8.10623e-14
-8.00009e-14
-7.27582e-14
-6.49422e-14
-5.73054e-14
-5.0474e-14
-4.32037e-14
-3.78989e-14
-3.29388e-14
-2.55355e-14
-1.54291e-14
-7.07145e-15
6.19189e-16
1.23721e-15
-6.76405e-13
-6.85713e-13
-6.7985e-13
-6.75214e-13
-6.76045e-13
-6.75127e-13
-6.70215e-13
-6.69687e-13
-6.60428e-13
-6.47305e-13
-6.42905e-13
-6.42458e-13
-6.40264e-13
-6.38158e-13
-6.3394e-13
-6.24957e-13
-6.14498e-13
-6.07748e-13
-6.02414e-13
-5.92804e-13
-5.85186e-13
-5.76901e-13
-5.65285e-13
-5.49001e-13
-5.35284e-13
-5.28538e-13
-5.30283e-13
-5.27384e-13
-5.2287e-13
-5.19335e-13
-5.10064e-13
-4.98106e-13
-4.83345e-13
-4.71368e-13
-4.64929e-13
-4.60071e-13
-4.59581e-13
-4.53381e-13
-4.41176e-13
-4.34085e-13
-4.2254e-13
-4.13232e-13
-4.1048e-13
-4.03744e-13
-3.94997e-13
-3.86737e-13
-3.77967e-13
-3.73504e-13
-3.6969e-13
-3.63514e-13
-3.55959e-13
-3.47802e-13
-3.41661e-13
-3.34848e-13
-3.30308e-13
-3.25007e-13
-3.19808e-13
-3.11776e-13
-3.03895e-13
-2.93482e-13
-2.85299e-13
-2.79159e-13
-2.74221e-13
-2.69067e-13
-2.59807e-13
-2.51683e-13
-2.42277e-13
-2.35239e-13
-2.28974e-13
-2.2434e-13
-2.20762e-13
-2.12702e-13
-2.04843e-13
-1.95515e-13
-1.81758e-13
-1.70495e-13
-1.61007e-13
-1.57964e-13
-1.54061e-13
-1.4596e-13
-1.39138e-13
-1.2812e-13
-1.19328e-13
-1.0905e-13
-9.82296e-14
-8.88057e-14
-8.35302e-14
-7.82593e-14
-7.32314e-14
-6.45733e-14
-5.75458e-14
-5.30781e-14
-4.56296e-14
-3.74108e-14
-2.85636e-14
-2.04362e-14
-1.4015e-14
-8.75497e-15
-1.94996e-15
7.79189e-16
-6.75084e-13
-6.79744e-13
-6.80817e-13
-6.76302e-13
-6.7603e-13
-6.77422e-13
-6.67241e-13
-6.57291e-13
-6.53194e-13
-6.51257e-13
-6.49388e-13
-6.46861e-13
-6.43976e-13
-6.39274e-13
-6.34305e-13
-6.25945e-13
-6.19339e-13
-6.15899e-13
-6.07231e-13
-5.92274e-13
-5.7406e-13
-5.59427e-13
-5.51912e-13
-5.43536e-13
-5.42432e-13
-5.40189e-13
-5.34745e-13
-5.26078e-13
-5.20827e-13
-5.18874e-13
-5.12335e-13
-5.01492e-13
-4.88317e-13
-4.715e-13
-4.61007e-13
-4.60071e-13
-4.603e-13
-4.5457e-13
-4.46873e-13
-4.3498e-13
-4.20858e-13
-4.11287e-13
-4.03258e-13
-3.99784e-13
-3.95155e-13
-3.89054e-13
-3.82561e-13
-3.74682e-13
-3.69618e-13
-3.70016e-13
-3.62584e-13
-3.4649e-13
-3.37309e-13
-3.30276e-13
-3.25435e-13
-3.23486e-13
-3.19976e-13
-3.11021e-13
-2.99418e-13
-2.91584e-13
-2.88416e-13
-2.84305e-13
-2.77631e-13
-2.69112e-13
-2.55656e-13
-2.45964e-13
-2.40548e-13
-2.37902e-13
-2.32209e-13
-2.2417e-13
-2.17853e-13
-2.12552e-13
-2.05025e-13
-1.93952e-13
-1.82766e-13
-1.67269e-13
-1.58959e-13
-1.57241e-13
-1.56546e-13
-1.51114e-13
-1.42217e-13
-1.31185e-13
-1.18791e-13
-1.06355e-13
-9.69975e-14
-8.89095e-14
-8.32849e-14
-7.65847e-14
-7.07482e-14
-6.36832e-14
-5.75616e-14
-5.18438e-14
-4.57474e-14
-3.76155e-14
-2.7995e-14
-1.81267e-14
-1.08609e-14
-5.9534e-15
-5.58322e-16
3.23894e-16
-6.7361e-13
-6.81649e-13
-6.81704e-13
-6.7766e-13
-6.74629e-13
-6.79608e-13
-6.76508e-13
-6.63509e-13
-6.46509e-13
-6.43578e-13
-6.43259e-13
-6.45204e-13
-6.44401e-13
-6.4251e-13
-6.37063e-13
-6.26937e-13
-6.17399e-13
-6.10664e-13
-5.98514e-13
-5.89781e-13
-5.82064e-13
-5.68242e-13
-5.56483e-13
-5.43498e-13
-5.42137e-13
-5.3996e-13
-5.36685e-13
-5.30605e-13
-5.22138e-13
-5.17542e-13
-5.09138e-13
-4.97192e-13
-4.87245e-13
-4.72082e-13
-4.59499e-13
-4.5774e-13
-4.58701e-13
-4.55308e-13
-4.46542e-13
-4.3598e-13
-4.18922e-13
-4.09322e-13
-4.06882e-13
-4.02519e-13
-3.95465e-13
-3.88308e-13
-3.85052e-13
-3.79058e-13
-3.70417e-13
-3.60514e-13
-3.54343e-13
-3.48928e-13
-3.41316e-13
-3.29145e-13
-3.29857e-13
-3.26869e-13
-3.18683e-13
-3.13267e-13
-3.06699e-13
-2.9389e-13
-2.86724e-13
-2.81598e-13
-2.73072e-13
-2.65858e-13
-2.56023e-13
-2.48276e-13
-2.38857e-13
-2.35445e-13
-2.28863e-13
-2.27056e-13
-2.20183e-13
-2.15153e-13
-2.08236e-13
-1.94167e-13
-1.79484e-13
-1.67279e-13
-1.62289e-13
-1.57591e-13
-1.53051e-13
-1.47261e-13
-1.41184e-13
-1.31919e-13
-1.19308e-13
-1.07036e-13
-1.00044e-13
-9.1107e-14
-8.33856e-14
-7.7082e-14
-7.10764e-14
-6.20171e-14
-5.51208e-14
-4.94921e-14
-4.19819e-14
-3.39554e-14
-2.72867e-14
-2.23009e-14
-1.00502e-14
-2.61921e-15
2.45769e-15
1.06855e-15
-6.79757e-13
-6.79166e-13
-6.75006e-13
-6.70923e-13
-6.73191e-13
-6.67969e-13
-6.64469e-13
-6.65933e-13
-6.6295e-13
-6.56161e-13
-6.51757e-13
-6.44147e-13
-6.38786e-13
-6.37622e-13
-6.35238e-13
-6.289e-13
-6.20385e-13
-6.16752e-13
-6.05727e-13
-5.89306e-13
-5.70296e-13
-5.58643e-13
-5.52913e-13
-5.50846e-13
-5.4366e-13
-5.40745e-13
-5.3664e-13
-5.29036e-13
-5.22767e-13
-5.16485e-13
-5.09202e-13
-4.96493e-13
-4.84552e-13
-4.71976e-13
-4.62809e-13
-4.60855e-13
-4.62231e-13
-4.55267e-13
-4.44962e-13
-4.34993e-13
-4.20101e-13
-4.07482e-13
-4.05269e-13
-4.0264e-13
-3.99047e-13
-3.89174e-13
-3.80279e-13
-3.77898e-13
-3.7366e-13
-3.63382e-13
-3.53877e-13
-3.49319e-13
-3.43422e-13
-3.32359e-13
-3.25307e-13
-3.22346e-13
-3.16366e-13
-3.12342e-13
-3.07645e-13
-2.99422e-13
-2.88985e-13
-2.81985e-13
-2.72762e-13
-2.65809e-13
-2.59339e-13
-2.49685e-13
-2.39279e-13
-2.30396e-13
-2.26195e-13
-2.27604e-13
-2.18925e-13
-2.13395e-13
-2.06698e-13
-1.94843e-13
-1.83254e-13
-1.70749e-13
-1.59255e-13
-1.53116e-13
-1.52472e-13
-1.52245e-13
-1.45202e-13
-1.30145e-13
-1.17952e-13
-1.04577e-13
-9.94338e-14
-9.3542e-14
-8.61148e-14
-7.55716e-14
-6.65857e-14
-6.07819e-14
-5.5179e-14
-4.8308e-14
-4.32089e-14
-3.55586e-14
-2.63622e-14
-1.81186e-14
-1.06314e-14
-3.81835e-15
2.26845e-15
2.4603e-15
-6.78926e-13
-6.7787e-13
-6.74964e-13
-6.72205e-13
-6.78855e-13
-6.76464e-13
-6.64837e-13
-6.58611e-13
-6.54982e-13
-6.52911e-13
-6.52157e-13
-6.51423e-13
-6.40666e-13
-6.32948e-13
-6.30519e-13
-6.25999e-13
-6.22415e-13
-6.15288e-13
-6.03585e-13
-5.87367e-13
-5.73996e-13
-5.60376e-13
-5.51173e-13
-5.51061e-13
-5.50412e-13
-5.40812e-13
-5.33558e-13
-5.29489e-13
-5.26811e-13
-5.19277e-13
-5.1117e-13
-4.97613e-13
-4.83969e-13
-4.7102e-13
-4.59622e-13
-4.59019e-13
-4.56801e-13
-4.54405e-13
-4.48955e-13
-4.38004e-13
-4.23167e-13
-4.12244e-13
-4.05896e-13
-3.97114e-13
-3.95827e-13
-3.9028e-13
-3.83643e-13
-3.7479e-13
-3.69231e-13
-3.6386e-13
-3.54933e-13
-3.49276e-13
-3.42963e-13
-3.33756e-13
-3.31458e-13
-3.26782e-13
-3.15152e-13
-3.06601e-13
-3.04195e-13
-2.97393e-13
-2.90826e-13
-2.81585e-13
-2.74688e-13
-2.68234e-13
-2.59541e-13
-2.47884e-13
-2.41123e-13
-2.31131e-13
-2.22707e-13
-2.21451e-13
-2.1863e-13
-2.14254e-13
-2.0842e-13
-1.95286e-13
-1.82328e-13
-1.70959e-13
-1.6229e-13
-1.55031e-13
-1.54821e-13
-1.50903e-13
-1.42608e-13
-1.31283e-13
-1.19355e-13
-1.06498e-13
-9.78938e-14
-8.87054e-14
-8.17798e-14
-7.75019e-14
-7.10816e-14
-6.08785e-14
-5.42073e-14
-4.68464e-14
-4.01306e-14
-3.30739e-14
-2.48679e-14
-1.93337e-14
-1.21676e-14
-2.62397e-15
2.83867e-15
6.50679e-16
-6.73832e-13
-6.76367e-13
-6.76468e-13
-6.74952e-13
-6.73596e-13
-6.68159e-13
-6.63989e-13
-6.6119e-13
-6.60704e-13
-6.58101e-13
-6.53573e-13
-6.49711e-13
-6.43589e-13
-6.3526e-13
-6.29454e-13
-6.22937e-13
-6.20242e-13
-6.13403e-13
-6.01339e-13
-5.8954e-13
-5.74618e-13
-5.61641e-13
-5.56419e-13
-5.51777e-13
-5.43266e-13
-5.38777e-13
-5.37386e-13
-5.334e-13
-5.26116e-13
-5.15525e-13
-5.06766e-13
-4.96401e-13
-4.83418e-13
-4.71916e-13
-4.62777e-13
-4.64005e-13
-4.63751e-13
-4.55849e-13
-4.44386e-13
-4.30654e-13
-4.20623e-13
-4.1559e-13
-4.0733e-13
-3.97945e-13
-3.93184e-13
-3.87012e-13
-3.85808e-13
-3.84602e-13
-3.74194e-13
-3.60313e-13
-3.52202e-13
-3.50421e-13
-3.43943e-13
-3.33278e-13
-3.29498e-13
-3.256e-13
-3.18839e-13
-3.09695e-13
-3.02521e-13
-2.95638e-13
-2.93333e-13
-2.84973e-13
-2.75635e-13
-2.67209e-13
-2.56054e-13
-2.47415e-13
-2.38962e-13
-2.32509e-13
-2.24325e-13
-2.19467e-13
-2.14853e-13
-2.14625e-13
-2.09592e-13
-1.95623e-13
-1.82506e-13
-1.71211e-13
-1.64412e-13
-1.58276e-13
-1.50338e-13
-1.41935e-13
-1.44241e-13
-1.37638e-13
-1.20657e-13
-1.07696e-13
-9.75385e-14
-8.67489e-14
-7.9788e-14
-7.67067e-14
-7.05711e-14
-6.10848e-14
-5.30053e-14
-4.77038e-14
-4.06001e-14
-3.18767e-14
-2.71688e-14
-1.79343e-14
-8.88226e-15
-1.3087e-15
3.71396e-15
1.33002e-16
-6.80232e-13
-6.7735e-13
-6.75113e-13
-6.72325e-13
-6.67839e-13
-6.6587e-13
-6.63228e-13
-6.63458e-13
-6.62102e-13
-6.58966e-13
-6.52544e-13
-6.48795e-13
-6.43822e-13
-6.38104e-13
-6.31014e-13
-6.21615e-13
-6.11938e-13
-6.05986e-13
-6.01356e-13
-5.94065e-13
-5.77574e-13
-5.65706e-13
-5.57054e-13
-5.49612e-13
-5.45161e-13
-5.4115e-13
-5.37935e-13
-5.34413e-13
-5.24464e-13
-5.17823e-13
-5.08185e-13
-4.95734e-13
-4.82134e-13
-4.69698e-13
-4.65233e-13
-4.63945e-13
-4.60803e-13
-4.54291e-13
-4.43711e-13
-4.32416e-13
-4.21077e-13
-4.12726e-13
-4.0852e-13
-4.0272e-13
-3.97548e-13
-3.9135e-13
-3.82389e-13
-3.76305e-13
-3.72512e-13
-3.64548e-13
-3.58896e-13
-3.5035e-13
-3.41834e-13
-3.34581e-13
-3.28591e-13
-3.20995e-13
-3.17833e-13
-3.11673e-13
-3.03036e-13
-2.96527e-13
-2.94122e-13
-2.87745e-13
-2.76807e-13
-2.65733e-13
-2.57006e-13
-2.47912e-13
-2.38537e-13
-2.31084e-13
-2.24501e-13
-2.19742e-13
-2.17116e-13
-2.15749e-13
-2.08396e-13
-1.93114e-13
-1.81527e-13
-1.71385e-13
-1.6372e-13
-1.57091e-13
-1.53262e-13
-1.47838e-13
-1.40827e-13
-1.32338e-13
-1.21617e-13
-1.10383e-13
-1.02477e-13
-8.80685e-14
-7.88089e-14
-7.36722e-14
-6.97517e-14
-5.81901e-14
-5.05366e-14
-4.70223e-14
-4.45432e-14
-3.31474e-14
-2.27333e-14
-1.69296e-14
-9.92635e-15
7.9708e-16
2.09151e-15
-9.82433e-16
-6.82544e-13
-6.76444e-13
-6.70967e-13
-6.71143e-13
-6.64086e-13
-6.65321e-13
-6.63567e-13
-6.64866e-13
-6.6509e-13
-6.56886e-13
-6.51763e-13
-6.49957e-13
-6.48363e-13
-6.39937e-13
-6.3117e-13
-6.24253e-13
-6.1668e-13
-6.06024e-13
-5.99383e-13
-5.87333e-13
-5.77719e-13
-5.66076e-13
-5.54356e-13
-5.47847e-13
-5.44097e-13
-5.44884e-13
-5.3878e-13
-5.33174e-13
-5.24367e-13
-5.16992e-13
-5.08697e-13
-4.97887e-13
-4.82489e-13
-4.71868e-13
-4.63664e-13
-4.60226e-13
-4.59497e-13
-4.54665e-13
-4.44565e-13
-4.33034e-13
-4.24563e-13
-4.15439e-13
-4.07424e-13
-4.01393e-13
-3.95754e-13
-3.89796e-13
-3.83086e-13
-3.78782e-13
-3.7466e-13
-3.65906e-13
-3.55982e-13
-3.46518e-13
-3.41493e-13
-3.36811e-13
-3.31746e-13
-3.25973e-13
-3.18918e-13
-3.10452e-13
-3.05386e-13
-3.00897e-13
-2.96027e-13
-2.86918e-13
-2.73394e-13
-2.63923e-13
-2.55332e-13
-2.46768e-13
-2.37278e-13
-2.31794e-13
-2.24589e-13
-2.23148e-13
-2.1844e-13
-2.12037e-13
-2.02432e-13
-1.90947e-13
-1.80328e-13
-1.69713e-13
-1.6736e-13
-1.64208e-13
-1.54476e-13
-1.44866e-13
-1.37832e-13
-1.30372e-13
-1.20637e-13
-1.09219e-13
-9.76595e-14
-8.51781e-14
-8.00637e-14
-7.59666e-14
-6.87125e-14
-6.35496e-14
-5.77872e-14
-4.69182e-14
-3.80539e-14
-3.13897e-14
-2.26667e-14
-1.41599e-14
-7.73727e-15
-4.34672e-15
-1.33556e-15
-1.28175e-15
-6.80119e-13
-6.74802e-13
-6.72658e-13
-6.70631e-13
-6.68054e-13
-6.64781e-13
-6.60679e-13
-6.63695e-13
-6.64193e-13
-6.60625e-13
-6.54796e-13
-6.4903e-13
-6.47379e-13
-6.38585e-13
-6.28224e-13
-6.18688e-13
-6.10749e-13
-6.06487e-13
-6.00268e-13
-5.9024e-13
-5.79036e-13
-5.67695e-13
-5.57265e-13
-5.51548e-13
-5.48979e-13
-5.42728e-13
-5.35917e-13
-5.278e-13
-5.20584e-13
-5.16999e-13
-5.09484e-13
-5.02473e-13
-4.90853e-13
-4.78692e-13
-4.62169e-13
-4.56747e-13
-4.55225e-13
-4.51099e-13
-4.43479e-13
-4.33048e-13
-4.2645e-13
-4.15886e-13
-4.09898e-13
-4.00162e-13
-3.96474e-13
-3.90887e-13
-3.87252e-13
-3.802e-13
-3.70964e-13
-3.59242e-13
-3.5493e-13
-3.52158e-13
-3.45309e-13
-3.33642e-13
-3.27296e-13
-3.21345e-13
-3.14438e-13
-3.1342e-13
-3.06657e-13
-3.05174e-13
-3.04954e-13
-2.844e-13
-2.71738e-13
-2.65899e-13
-2.58416e-13
-2.4909e-13
-2.39644e-13
-2.33162e-13
-2.22131e-13
-2.17599e-13
-2.14184e-13
-2.14884e-13
-2.07152e-13
-1.94124e-13
-1.78209e-13
-1.65677e-13
-1.66856e-13
-1.62656e-13
-1.53936e-13
-1.47926e-13
-1.40285e-13
-1.30971e-13
-1.18938e-13
-1.07855e-13
-9.86618e-14
-8.66645e-14
-7.92992e-14
-7.60257e-14
-6.96685e-14
-5.94494e-14
-5.19817e-14
-4.65847e-14
-3.86099e-14
-3.10627e-14
-2.61465e-14
-2.00317e-14
-7.96212e-15
-1.32051e-15
3.37074e-15
1.09007e-16
-6.7471e-13
-6.76809e-13
-6.76527e-13
-6.7042e-13
-6.65386e-13
-6.65658e-13
-6.64418e-13
-6.60809e-13
-6.62147e-13
-6.59372e-13
-6.56431e-13
-6.52658e-13
-6.45858e-13
-6.37141e-13
-6.29083e-13
-6.22321e-13
-6.18155e-13
-6.13436e-13
-6.0266e-13
-5.87897e-13
-5.70955e-13
-5.57745e-13
-5.54031e-13
-5.541e-13
-5.50416e-13
-5.42203e-13
-5.33023e-13
-5.27964e-13
-5.20658e-13
-5.18417e-13
-5.13426e-13
-4.99214e-13
-4.85967e-13
-4.76815e-13
-4.68497e-13
-4.62712e-13
-4.5745e-13
-4.49882e-13
-4.42992e-13
-4.34737e-13
-4.24572e-13
-4.15325e-13
-4.06437e-13
-4.02152e-13
-4.01525e-13
-3.92668e-13
-3.85133e-13
-3.74225e-13
-3.72271e-13
-3.65729e-13
-3.5481e-13
-3.50773e-13
-3.44778e-13
-3.36913e-13
-3.30666e-13
-3.18304e-13
-3.07923e-13
-3.11534e-13
-3.14843e-13
-3.0689e-13
-2.97183e-13