/*--------------------------------*- C++ -*----------------------------------*\
| =========                 |                                                 |
| \\      /  F ield         | OpenFOAM: The Open Source CFD Toolbox           |
|  \\    /   O peration     | Version:  v2012                                 |
|   \\  /    A nd           | Website:  www.openfoam.com                      |
|    \\/     M anipulation  |                                                 |
\*---------------------------------------------------------------------------*/
FoamFile
{
    version     2.0;
    format      ascii;
    class       volScalarField;
    location    "0";
    object      pRec;
}
// * * * * * * * * * * * * * * * * * * * * * * * * * * * * * * * * * * * * * //

dimensions      [0 2 -2 0 0 0 0];


internalField   nonuniform List<scalar> 
4000
(
-6.87504e-13
-6.82249e-13
-6.83184e-13
-6.85619e-13
-6.83812e-13
-6.84704e-13
-6.82782e-13
-6.77788e-13
-6.68584e-13
-6.63965e-13
-6.64382e-13
-6.5907e-13
-6.50437e-13
-6.38056e-13
-6.24096e-13
-6.18127e-13
-6.14459e-13
-6.1175e-13
-6.04245e-13
-5.9225e-13
-5.81719e-13
-5.74446e-13
-5.69101e-13
-5.60276e-13
-5.49304e-13
-5.38261e-13
-5.35146e-13
-5.30063e-13
-5.23635e-13
-5.12048e-13
-4.97141e-13
-4.89395e-13
-4.8649e-13
-4.834e-13
-4.77775e-13
-4.73358e-13
-4.6321e-13
-4.45975e-13
-4.28928e-13
-4.24296e-13
-4.23583e-13
-4.21185e-13
-4.20347e-13
-4.14281e-13
-4.04359e-13
-3.95313e-13
-3.86072e-13
-3.76811e-13
-3.68169e-13
-3.60675e-13
-3.52605e-13
-3.45158e-13
-3.38165e-13
-3.30052e-13
-3.22425e-13
-3.10368e-13
-3.02961e-13
-3.0067e-13
-2.98325e-13
-2.9532e-13
-2.87329e-13
-2.80361e-13
-2.70731e-13
-2.59538e-13
-2.51809e-13
-2.44668e-13
-2.40102e-13
-2.31671e-13
-2.21335e-13
-2.14277e-13
-2.06977e-13
-1.99313e-13
-1.86203e-13
-1.79114e-13
-1.7755e-13
-1.7335e-13
-1.6822e-13
-1.61671e-13
-1.52081e-13
-1.3879e-13
-1.26618e-13
-1.20706e-13
-1.12254e-13
-1.07424e-13
-1.01842e-13
-9.59647e-14
-8.75385e-14
-8.00291e-14
-7.69018e-14
-7.27123e-14
-6.69653e-14
-6.03637e-14
-5.41844e-14
-4.9836e-14
-4.05848e-14
-3.1787e-14
-2.47496e-14
-1.71778e-14
-9.2949e-15
-2.11895e-15
-6.84309e-13
-6.82835e-13
-6.85603e-13
-6.85604e-13
-6.86537e-13
-6.83466e-13
-6.80218e-13
-6.77993e-13
-6.72466e-13
-6.66863e-13
-6.61138e-13
-6.56509e-13
-6.48799e-13
-6.37903e-13
-6.27387e-13
-6.21253e-13
-6.16655e-13
-6.10303e-13
-6.02317e-13
-5.95406e-13
-5.8448e-13
-5.72609e-13
-5.65567e-13
-5.57544e-13
-5.47222e-13
-5.40945e-13
-5.36688e-13
-5.30837e-13
-5.22555e-13
-5.08957e-13
-4.99692e-13
-4.92595e-13
-4.86032e-13
-4.80223e-13
-4.75187e-13
-4.69842e-13
-4.61741e-13
-4.4882e-13
-4.3518e-13
-4.2806e-13
-4.23545e-13
-4.20987e-13
-4.17494e-13
-4.12718e-13
-4.05274e-13
-3.9531e-13
-3.8493e-13
-3.76723e-13
-3.6805e-13
-3.58427e-13
-3.51575e-13
-3.44242e-13
-3.38475e-13
-3.31433e-13
-3.23795e-13
-3.12873e-13
-3.02629e-13
-2.98862e-13
-2.96631e-13
-2.93826e-13
-2.89436e-13
-2.80471e-13
-2.71371e-13
-2.61233e-13
-2.53691e-13
-2.44916e-13
-2.37708e-13
-2.30696e-13
-2.23538e-13
-2.15684e-13
-2.07004e-13
-1.99432e-13
-1.9069e-13
-1.82332e-13
-1.77374e-13
-1.69594e-13
-1.66939e-13
-1.59585e-13
-1.49242e-13
-1.37456e-13
-1.27615e-13
-1.2199e-13
-1.16002e-13
-1.0933e-13
-1.00396e-13
-9.40442e-14
-8.56127e-14
-7.80602e-14
-7.53492e-14
-7.13271e-14
-6.81418e-14
-6.28877e-14
-5.77245e-14
-4.77542e-14
-3.91422e-14
-3.24112e-14
-2.4183e-14
-1.72422e-14
-1.04905e-14
-3.86261e-15
-6.83712e-13
-6.82759e-13
-6.8488e-13
-6.87689e-13
-6.88579e-13
-6.84565e-13
-6.79233e-13
-6.7686e-13
-6.70532e-13
-6.66589e-13
-6.6207e-13
-6.55869e-13
-6.48135e-13
-6.39346e-13
-6.29345e-13
-6.22234e-13
-6.15628e-13
-6.09151e-13
-6.02908e-13
-5.94014e-13
-5.83715e-13
-5.74478e-13
-5.66239e-13
-5.58405e-13
-5.49004e-13
-5.43403e-13
-5.37627e-13
-5.29217e-13
-5.2024e-13
-5.07354e-13
-4.99991e-13
-4.92736e-13
-4.85691e-13
-4.8209e-13
-4.77253e-13
-4.70963e-13
-4.60315e-13
-4.49957e-13
-4.39078e-13
-4.28237e-13
-4.22702e-13
-4.17964e-13
-4.17534e-13
-4.13207e-13
-4.05892e-13
-3.95327e-13
-3.8326e-13
-3.74207e-13
-3.69361e-13
-3.64074e-13
-3.53023e-13
-3.44804e-13
-3.36261e-13
-3.28356e-13
-3.21621e-13
-3.13635e-13
-3.03293e-13
-3.0115e-13
-3.00826e-13
-2.95641e-13
-2.87251e-13
-2.75861e-13
-2.68198e-13
-2.62425e-13
-2.56208e-13
-2.48229e-13
-2.40235e-13
-2.30001e-13
-2.22153e-13
-2.12479e-13
-2.04288e-13
-1.97099e-13
-1.87748e-13
-1.81738e-13
-1.76893e-13
-1.71567e-13
-1.66286e-13
-1.59479e-13
-1.4892e-13
-1.38644e-13
-1.32378e-13
-1.23782e-13
-1.12027e-13
-1.05926e-13
-1.00285e-13
-9.63071e-14
-9.00211e-14
-8.16169e-14
-7.52968e-14
-6.94954e-14
-6.57226e-14
-6.26017e-14
-5.6044e-14
-4.82573e-14
-3.8714e-14
-3.02323e-14
-2.49089e-14
-1.81342e-14
-1.39188e-14
-4.49846e-15
-6.84689e-13
-6.85535e-13
-6.86096e-13
-6.82501e-13
-6.86938e-13
-6.81926e-13
-6.79346e-13
-6.7719e-13
-6.74465e-13
-6.68632e-13
-6.60526e-13
-6.51548e-13
-6.44382e-13
-6.39497e-13
-6.37371e-13
-6.27639e-13
-6.13934e-13
-6.06343e-13
-6.01815e-13
-5.93088e-13
-5.83909e-13
-5.76013e-13
-5.66665e-13
-5.52925e-13
-5.45105e-13
-5.41312e-13
-5.36956e-13
-5.31334e-13
-5.20678e-13
-5.11174e-13
-5.0376e-13
-4.94953e-13
-4.86487e-13
-4.80329e-13
-4.72986e-13
-4.70564e-13
-4.61053e-13
-4.48793e-13
-4.40227e-13
-4.30533e-13
-4.25717e-13
-4.22371e-13
-4.17198e-13
-4.10565e-13
-4.01253e-13
-3.92089e-13
-3.83398e-13
-3.77545e-13
-3.69727e-13
-3.58331e-13
-3.49415e-13
-3.43865e-13
-3.3816e-13
-3.32216e-13
-3.21053e-13
-3.14698e-13
-3.05613e-13
-3.00313e-13
-2.99751e-13
-2.93919e-13
-2.85789e-13
-2.77636e-13
-2.72159e-13
-2.64839e-13
-2.5594e-13
-2.47009e-13
-2.3921e-13
-2.3009e-13
-2.22576e-13
-2.14858e-13
-2.0779e-13
-2.0013e-13
-1.90705e-13
-1.83103e-13
-1.76458e-13
-1.70147e-13
-1.66134e-13
-1.59015e-13
-1.48822e-13
-1.39071e-13
-1.31601e-13
-1.24174e-13
-1.14117e-13
-1.04879e-13
-9.94988e-14
-9.46594e-14
-8.81362e-14
-8.07279e-14
-7.35656e-14
-6.99578e-14
-6.78394e-14
-6.33268e-14
-5.75348e-14
-4.69018e-14
-3.82798e-14
-3.25849e-14
-2.64952e-14
-1.75149e-14
-1.11919e-14
-4.23756e-15
-6.85309e-13
-6.89429e-13
-6.85989e-13
-6.81932e-13
-6.78808e-13
-6.82258e-13
-6.82007e-13
-6.79786e-13
-6.73396e-13
-6.65918e-13
-6.57887e-13
-6.53109e-13
-6.43726e-13
-6.38024e-13
-6.3647e-13
-6.30347e-13
-6.20566e-13
-6.10399e-13
-5.98985e-13
-5.88341e-13
-5.83347e-13
-5.75203e-13
-5.61524e-13
-5.52432e-13
-5.4839e-13
-5.43463e-13
-5.3831e-13
-5.30278e-13
-5.22949e-13
-5.13642e-13
-5.04452e-13
-4.9577e-13
-4.86464e-13
-4.80666e-13
-4.74476e-13
-4.70134e-13
-4.59791e-13
-4.48821e-13
-4.38344e-13
-4.30891e-13
-4.25993e-13
-4.24123e-13
-4.17339e-13
-4.09213e-13
-3.99524e-13
-3.89151e-13
-3.82129e-13
-3.76353e-13
-3.68851e-13
-3.61939e-13
-3.53015e-13
-3.45942e-13
-3.384e-13
-3.31814e-13
-3.21078e-13
-3.13316e-13
-3.06842e-13
-3.01731e-13
-2.99149e-13
-2.92966e-13
-2.85986e-13
-2.78092e-13
-2.70031e-13
-2.64146e-13
-2.58303e-13
-2.517e-13
-2.4344e-13
-2.31239e-13
-2.22429e-13
-2.12138e-13
-2.04342e-13
-1.97764e-13
-1.90886e-13
-1.83123e-13
-1.73407e-13
-1.67411e-13
-1.65059e-13
-1.58614e-13
-1.51223e-13
-1.41034e-13
-1.32739e-13
-1.26143e-13
-1.13721e-13
-1.03751e-13
-9.64678e-14
-9.17353e-14
-8.83376e-14
-8.32842e-14
-7.57589e-14
-7.12223e-14
-6.67801e-14
-6.29698e-14
-5.5496e-14
-5.00304e-14
-4.22683e-14
-3.29019e-14
-2.61888e-14
-1.95519e-14
-1.07343e-14
-1.65502e-15
-6.821e-13
-6.90796e-13
-6.8726e-13
-6.79048e-13
-6.83125e-13
-6.85896e-13
-6.83731e-13
-6.79553e-13
-6.71586e-13
-6.59298e-13
-6.55653e-13
-6.52309e-13
-6.48441e-13
-6.39447e-13
-6.33111e-13
-6.31741e-13
-6.21769e-13
-6.12874e-13
-6.04206e-13
-5.91574e-13
-5.80519e-13
-5.69553e-13
-5.53097e-13
-5.49051e-13
-5.4909e-13
-5.46734e-13
-5.38497e-13
-5.29999e-13
-5.22211e-13
-5.16167e-13
-5.05395e-13
-4.95696e-13
-4.87577e-13
-4.83492e-13
-4.79296e-13
-4.68872e-13
-4.57747e-13
-4.48993e-13
-4.38198e-13
-4.33122e-13
-4.28465e-13
-4.24456e-13
-4.15677e-13
-4.0929e-13
-3.99699e-13
-3.87968e-13
-3.79263e-13
-3.73192e-13
-3.69106e-13
-3.61817e-13
-3.54469e-13
-3.45472e-13
-3.37445e-13
-3.29423e-13
-3.1985e-13
-3.14638e-13
-3.09363e-13
-3.02738e-13
-2.978e-13
-2.93411e-13
-2.88276e-13
-2.79147e-13
-2.7055e-13
-2.63811e-13
-2.55187e-13
-2.49922e-13
-2.43901e-13
-2.325e-13
-2.23467e-13
-2.15188e-13
-2.05788e-13
-1.97843e-13
-1.92138e-13
-1.84574e-13
-1.75055e-13
-1.69799e-13
-1.63938e-13
-1.55441e-13
-1.50475e-13
-1.43019e-13
-1.35445e-13
-1.25293e-13
-1.11537e-13
-1.01964e-13
-9.74349e-14
-9.37161e-14
-8.97617e-14
-8.15382e-14
-7.47323e-14
-7.05358e-14
-6.65601e-14
-6.31832e-14
-5.389e-14
-4.88111e-14
-4.18156e-14
-3.53113e-14
-2.6539e-14
-1.87405e-14
-8.94797e-15
-6.38805e-16
-6.86787e-13
-6.87228e-13
-6.86579e-13
-6.83508e-13
-6.80656e-13
-6.8413e-13
-6.83085e-13
-6.77313e-13
-6.69431e-13
-6.60086e-13
-6.5228e-13
-6.51628e-13
-6.50353e-13
-6.40578e-13
-6.34355e-13
-6.29699e-13
-6.26271e-13
-6.17882e-13
-6.01214e-13
-5.84467e-13
-5.69421e-13
-5.64437e-13
-5.62723e-13
-5.59707e-13
-5.53288e-13
-5.46114e-13
-5.36425e-13
-5.28075e-13
-5.23279e-13
-5.18153e-13
-5.08246e-13
-4.94625e-13
-4.88243e-13
-4.79746e-13
-4.73915e-13
-4.66843e-13
-4.59796e-13
-4.53534e-13
-4.4266e-13
-4.31784e-13
-4.24759e-13
-4.1916e-13
-4.14339e-13
-4.0983e-13
-4.02785e-13
-3.92435e-13
-3.81202e-13
-3.72105e-13
-3.65909e-13
-3.61832e-13
-3.54807e-13
-3.49062e-13
-3.40283e-13
-3.29886e-13
-3.21488e-13
-3.15581e-13
-3.08644e-13
-2.9786e-13
-2.94058e-13
-2.92988e-13
-2.92831e-13
-2.84445e-13
-2.72889e-13
-2.61638e-13
-2.5235e-13
-2.4629e-13
-2.38624e-13
-2.28477e-13
-2.19618e-13
-2.14891e-13
-2.1352e-13
-2.0343e-13
-1.93164e-13
-1.87312e-13
-1.78049e-13
-1.68302e-13
-1.59788e-13
-1.51598e-13
-1.46467e-13
-1.41693e-13
-1.34639e-13
-1.2473e-13
-1.16289e-13
-1.07428e-13
-1.0032e-13
-9.09303e-14
-8.70266e-14
-8.26244e-14
-7.56865e-14
-7.21384e-14
-6.59877e-14
-5.87107e-14
-5.393e-14
-4.78399e-14
-4.13874e-14
-3.32643e-14
-2.6243e-14
-1.71792e-14
-9.1597e-15
-2.81184e-15
-6.85484e-13
-6.84636e-13
-6.82782e-13
-6.84651e-13
-6.86806e-13
-6.86264e-13
-6.8237e-13
-6.75558e-13
-6.67408e-13
-6.60991e-13
-6.56108e-13
-6.50992e-13
-6.46894e-13
-6.38355e-13
-6.34461e-13
-6.30074e-13
-6.26116e-13
-6.17769e-13
-5.96974e-13
-5.86603e-13
-5.81429e-13
-5.73701e-13
-5.62569e-13
-5.53206e-13
-5.50151e-13
-5.42706e-13
-5.32783e-13
-5.27048e-13
-5.21296e-13
-5.1532e-13
-5.08553e-13
-4.99983e-13
-4.9377e-13
-4.86393e-13
-4.74908e-13
-4.66156e-13
-4.58193e-13
-4.49187e-13
-4.41415e-13
-4.3226e-13
-4.25507e-13
-4.21545e-13
-4.14882e-13
-4.13063e-13
-4.07751e-13
-3.92889e-13
-3.77425e-13
-3.65142e-13
-3.64659e-13
-3.63104e-13
-3.58957e-13
-3.52427e-13
-3.40444e-13
-3.29857e-13
-3.1894e-13
-3.12884e-13
-3.09267e-13
-3.03607e-13
-2.96009e-13
-2.90878e-13
-2.88922e-13
-2.81574e-13
-2.73946e-13
-2.65527e-13
-2.57357e-13
-2.48468e-13
-2.39882e-13
-2.30433e-13
-2.24039e-13
-2.16907e-13
-2.09623e-13
-2.03528e-13
-1.91811e-13
-1.79576e-13
-1.72865e-13
-1.68138e-13
-1.63322e-13
-1.5538e-13
-1.50555e-13
-1.44366e-13
-1.35503e-13
-1.24928e-13
-1.12888e-13
-1.02375e-13
-9.44109e-14
-9.05427e-14
-8.7946e-14
-8.40168e-14
-7.72214e-14
-7.06645e-14
-6.37441e-14
-5.83764e-14
-5.40333e-14
-4.91801e-14
-4.00761e-14
-3.17194e-14
-2.56452e-14
-1.86365e-14
-1.05703e-14
-1.39177e-15
-6.87538e-13
-6.88582e-13
-6.84179e-13
-6.7919e-13
-6.82032e-13
-6.84328e-13
-6.8392e-13
-6.76099e-13
-6.65133e-13
-6.62556e-13
-6.5689e-13
-6.47843e-13
-6.41465e-13
-6.38669e-13
-6.36476e-13
-6.32456e-13
-6.25988e-13
-6.15707e-13
-6.01291e-13
-5.88414e-13
-5.79842e-13
-5.71066e-13
-5.65714e-13
-5.59151e-13
-5.5076e-13
-5.40544e-13
-5.31794e-13
-5.2698e-13
-5.24516e-13
-5.15921e-13
-5.09478e-13
-5.01377e-13
-4.906e-13
-4.7992e-13
-4.7497e-13
-4.67378e-13
-4.57912e-13
-4.4918e-13
-4.42785e-13
-4.36405e-13
-4.31465e-13
-4.23934e-13
-4.11806e-13
-4.04891e-13
-4.0063e-13
-3.93709e-13
-3.82296e-13
-3.73547e-13
-3.67564e-13
-3.61173e-13
-3.55154e-13
-3.4839e-13
-3.39301e-13
-3.3103e-13
-3.23078e-13
-3.17911e-13
-3.10683e-13
-3.03983e-13
-2.96684e-13
-2.92088e-13
-2.86162e-13
-2.79059e-13
-2.72672e-13
-2.65065e-13
-2.5476e-13
-2.44849e-13
-2.3894e-13
-2.31445e-13
-2.23545e-13
-2.16175e-13
-2.08118e-13
-2.03868e-13
-1.95746e-13
-1.85675e-13
-1.74463e-13
-1.68311e-13
-1.64254e-13
-1.56787e-13
-1.50968e-13
-1.42263e-13
-1.35525e-13
-1.25633e-13
-1.13346e-13
-1.03791e-13
-9.65941e-14
-9.10165e-14
-8.84373e-14
-8.32774e-14
-7.68657e-14
-7.0445e-14
-6.31139e-14
-5.76972e-14
-5.10136e-14
-4.60699e-14
-3.95704e-14
-3.19926e-14
-2.45367e-14
-1.53405e-14
-7.13833e-15
1.08121e-15
-6.87026e-13
-6.86374e-13
-6.86816e-13
-6.83305e-13
-6.80277e-13
-6.82019e-13
-6.81258e-13
-6.78473e-13
-6.71312e-13
-6.59019e-13
-6.51426e-13
-6.45099e-13
-6.4225e-13
-6.41048e-13
-6.37621e-13
-6.31534e-13
-6.2254e-13
-6.16736e-13
-6.08478e-13
-5.93121e-13
-5.79808e-13
-5.67197e-13
-5.6171e-13
-5.55169e-13
-5.51538e-13
-5.45085e-13
-5.35724e-13
-5.29472e-13
-5.23169e-13
-5.16516e-13
-5.09861e-13
-5.01123e-13
-4.91194e-13
-4.79614e-13
-4.72256e-13
-4.65846e-13
-4.6039e-13
-4.50001e-13
-4.4429e-13
-4.37506e-13
-4.27676e-13
-4.18281e-13
-4.10819e-13
-4.05147e-13
-4.03135e-13
-3.98338e-13
-3.86772e-13
-3.75503e-13
-3.67982e-13
-3.59329e-13
-3.5269e-13
-3.48035e-13
-3.40612e-13
-3.32112e-13
-3.23628e-13
-3.16515e-13
-3.10256e-13
-3.03276e-13
-2.967e-13
-2.93782e-13
-2.89564e-13
-2.85128e-13
-2.78368e-13
-2.65692e-13
-2.51925e-13
-2.38427e-13
-2.31315e-13
-2.26617e-13
-2.22798e-13
-2.21952e-13
-2.15663e-13
-2.05658e-13
-1.98124e-13
-1.87565e-13
-1.75091e-13
-1.65856e-13
-1.61347e-13
-1.55094e-13
-1.50488e-13
-1.41495e-13
-1.34461e-13
-1.25899e-13
-1.15261e-13
-1.07137e-13
-9.77351e-14
-8.95441e-14
-8.55209e-14
-8.02453e-14
-7.59125e-14
-6.99438e-14
-6.16998e-14
-5.33963e-14
-4.76977e-14
-4.35167e-14
-3.57942e-14
-2.79465e-14
-2.05182e-14
-1.37502e-14
-5.27646e-15
3.72978e-16
-6.85216e-13
-6.84457e-13
-6.83447e-13
-6.84926e-13
-6.852e-13
-6.79934e-13
-6.77998e-13
-6.74798e-13
-6.69439e-13
-6.63744e-13
-6.52456e-13
-6.43881e-13
-6.42673e-13
-6.43328e-13
-6.38306e-13
-6.33761e-13
-6.21879e-13
-6.14721e-13
-6.07397e-13
-5.94061e-13
-5.83569e-13
-5.68377e-13
-5.58585e-13
-5.53857e-13
-5.48428e-13
-5.43032e-13
-5.38057e-13
-5.31274e-13
-5.24896e-13
-5.17975e-13
-5.09244e-13
-5.00002e-13
-4.89994e-13
-4.81352e-13
-4.76115e-13
-4.67964e-13
-4.5896e-13
-4.5014e-13
-4.45004e-13
-4.35676e-13
-4.27961e-13
-4.18397e-13
-4.11697e-13
-4.08774e-13
-4.05342e-13
-3.96784e-13
-3.84299e-13
-3.71864e-13
-3.65206e-13
-3.58137e-13
-3.55315e-13
-3.50132e-13
-3.40061e-13
-3.31692e-13
-3.22931e-13
-3.19891e-13
-3.13069e-13
-3.05626e-13
-2.96403e-13
-2.88144e-13
-2.85676e-13
-2.77978e-13
-2.73242e-13
-2.68214e-13
-2.54989e-13
-2.41401e-13
-2.32077e-13
-2.25748e-13
-2.23266e-13
-2.245e-13
-2.16176e-13
-2.08156e-13
-1.9867e-13
-1.8706e-13
-1.73268e-13
-1.62283e-13
-1.60953e-13
-1.5787e-13
-1.53598e-13
-1.44812e-13
-1.37851e-13
-1.29205e-13
-1.14893e-13
-1.0389e-13
-9.35483e-14
-8.41597e-14
-8.58372e-14
-8.366e-14
-7.58603e-14
-6.86451e-14
-5.95358e-14
-5.29805e-14
-4.70918e-14
-4.1461e-14
-3.73519e-14
-3.08183e-14
-1.73973e-14
-5.69752e-15
2.01109e-15
-6.44031e-16
-6.87618e-13
-6.85816e-13
-6.8379e-13
-6.84916e-13
-6.83862e-13
-6.78896e-13
-6.79243e-13
-6.75784e-13
-6.69118e-13
-6.61529e-13
-6.5358e-13
-6.46629e-13
-6.39168e-13
-6.36642e-13
-6.34238e-13
-6.2897e-13
-6.24834e-13
-6.19584e-13
-6.09512e-13
-5.95238e-13
-5.82695e-13
-5.74779e-13
-5.64632e-13
-5.55076e-13
-5.48832e-13
-5.37929e-13
-5.34317e-13
-5.3101e-13
-5.26251e-13
-5.19968e-13
-5.11163e-13
-5.00692e-13
-4.89095e-13
-4.78877e-13
-4.73334e-13
-4.6609e-13
-4.60616e-13
-4.52982e-13
-4.47053e-13
-4.34836e-13
-4.26672e-13
-4.1574e-13
-4.1138e-13
-4.108e-13
-4.03962e-13
-3.96338e-13
-3.85196e-13
-3.74885e-13
-3.66212e-13
-3.57802e-13
-3.52168e-13
-3.48583e-13
-3.40522e-13
-3.34644e-13
-3.27491e-13
-3.18738e-13
-3.11826e-13
-3.04139e-13
-2.96049e-13
-2.90223e-13
-2.87839e-13
-2.87461e-13
-2.77561e-13
-2.65551e-13
-2.48022e-13
-2.38796e-13
-2.32265e-13
-2.28144e-13
-2.22815e-13
-2.19622e-13
-2.13461e-13
-2.11365e-13
-2.04791e-13
-1.91872e-13
-1.72494e-13
-1.56795e-13
-1.54545e-13
-1.58291e-13
-1.54783e-13
-1.44788e-13
-1.36569e-13
-1.26533e-13
-1.16285e-13
-1.07626e-13
-9.7105e-14
-8.68398e-14
-8.08455e-14
-7.98754e-14
-7.43494e-14
-6.71709e-14
-5.7527e-14
-5.21927e-14
-4.66455e-14
-4.00034e-14
-3.30906e-14
-2.74552e-14
-1.61466e-14
-6.62879e-15
-8.86029e-16
-4.66378e-16
-6.85518e-13
-6.84815e-13
-6.77462e-13
-6.85943e-13
-6.85652e-13
-6.82814e-13
-6.7644e-13
-6.70212e-13
-6.64784e-13
-6.57075e-13
-6.53046e-13
-6.48447e-13
-6.47082e-13
-6.41247e-13
-6.35784e-13
-6.32124e-13
-6.27117e-13
-6.20488e-13
-6.10021e-13
-5.95669e-13
-5.77494e-13
-5.64194e-13
-5.5616e-13
-5.5373e-13
-5.48427e-13
-5.43189e-13
-5.36637e-13
-5.30393e-13
-5.26806e-13
-5.22547e-13
-5.13981e-13
-5.01171e-13
-4.91201e-13
-4.82945e-13
-4.78137e-13
-4.68024e-13
-4.5777e-13
-4.52059e-13
-4.45243e-13
-4.3477e-13
-4.2484e-13
-4.20465e-13
-4.15501e-13
-4.09229e-13
-3.99189e-13
-3.89779e-13
-3.82819e-13
-3.7514e-13
-3.67983e-13
-3.61466e-13
-3.54952e-13
-3.49242e-13
-3.3872e-13
-3.2943e-13
-3.30171e-13
-3.29356e-13
-3.15013e-13
-3.00395e-13
-2.91271e-13
-2.84495e-13
-2.82321e-13
-2.79469e-13
-2.7834e-13
-2.68914e-13
-2.52797e-13
-2.43973e-13
-2.31097e-13
-2.28836e-13
-2.23028e-13
-2.17547e-13
-2.12823e-13
-2.11594e-13
-2.05199e-13
-1.9016e-13
-1.74282e-13
-1.60852e-13
-1.56733e-13
-1.59047e-13
-1.51191e-13
-1.41476e-13
-1.34931e-13
-1.2725e-13
-1.18976e-13
-1.08711e-13
-9.82308e-14
-8.64904e-14
-8.01756e-14
-7.93961e-14
-7.24331e-14
-6.49935e-14
-5.7408e-14
-5.11021e-14
-4.38826e-14
-3.84399e-14
-3.35791e-14
-2.60684e-14
-1.62131e-14
-7.84769e-15
4.25788e-17
1.08024e-15
-6.8214e-13
-6.91161e-13
-6.85643e-13
-6.81167e-13
-6.81815e-13
-6.80756e-13
-6.7601e-13
-6.75242e-13
-6.65938e-13
-6.53259e-13
-6.48913e-13
-6.47972e-13
-6.4558e-13
-6.42915e-13
-6.38718e-13
-6.29804e-13
-6.19556e-13
-6.12575e-13
-6.06997e-13
-5.97591e-13
-5.90114e-13
-5.81893e-13
-5.70569e-13
-5.54022e-13
-5.40409e-13
-5.33787e-13
-5.35301e-13
-5.32083e-13
-5.27576e-13
-5.23893e-13
-5.14556e-13
-5.02664e-13
-4.88076e-13
-4.75996e-13
-4.69674e-13
-4.64693e-13
-4.63877e-13
-4.58001e-13
-4.45902e-13
-4.3869e-13
-4.27074e-13
-4.17302e-13
-4.14162e-13
-4.07167e-13
-3.98141e-13
-3.89424e-13
-3.80186e-13
-3.75375e-13
-3.70783e-13
-3.63658e-13
-3.55984e-13
-3.47243e-13
-3.40589e-13
-3.33394e-13
-3.28484e-13
-3.22864e-13
-3.17067e-13
-3.09007e-13
-3.00703e-13
-2.89813e-13
-2.8119e-13
-2.74764e-13
-2.69566e-13
-2.64204e-13
-2.54613e-13
-2.4628e-13
-2.36957e-13
-2.29849e-13
-2.23547e-13
-2.19042e-13
-2.15261e-13
-2.07187e-13
-1.99331e-13
-1.90425e-13
-1.76721e-13
-1.65807e-13
-1.56864e-13
-1.54097e-13
-1.5039e-13
-1.42369e-13
-1.35868e-13
-1.25305e-13
-1.17024e-13
-1.07245e-13
-9.66555e-14
-8.753e-14
-8.25088e-14
-7.77013e-14
-7.29797e-14
-6.45927e-14
-5.76846e-14
-5.34884e-14
-4.61699e-14
-3.80634e-14
-2.9304e-14
-2.12439e-14
-1.48413e-14
-9.26911e-15
-2.4137e-15
5.80311e-16
-6.81069e-13
-6.8539e-13
-6.86599e-13
-6.82245e-13
-6.81779e-13
-6.83102e-13
-6.73317e-13
-6.63345e-13
-6.58974e-13
-6.5706e-13
-6.54991e-13
-6.5202e-13
-6.4904e-13
-6.44135e-13
-6.39061e-13
-6.30829e-13
-6.24185e-13
-6.20564e-13
-6.11842e-13
-5.97129e-13
-5.79138e-13
-5.65264e-13
-5.57326e-13
-5.48604e-13
-5.47486e-13
-5.45056e-13
-5.39493e-13
-5.31068e-13
-5.25717e-13
-5.23577e-13
-5.1686e-13
-5.05977e-13
-4.92913e-13
-4.76289e-13
-4.65984e-13
-4.64895e-13
-4.64839e-13
-4.59154e-13
-4.51369e-13
-4.39677e-13
-4.2542e-13
-4.15588e-13
-4.07356e-13
-4.03208e-13
-3.98228e-13
-3.9182e-13
-3.8471e-13
-3.76382e-13
-3.70582e-13
-3.70247e-13
-3.62374e-13
-3.45914e-13
-3.36196e-13
-3.28835e-13
-3.23613e-13
-3.2143e-13
-3.17407e-13
-3.08147e-13
-2.96178e-13
-2.87754e-13
-2.84117e-13
-2.79701e-13
-2.72887e-13
-2.64164e-13
-2.50623e-13
-2.40743e-13
-2.35208e-13
-2.32373e-13
-2.26655e-13
-2.18856e-13
-2.12369e-13
-2.06997e-13
-1.9948e-13
-1.88842e-13
-1.77701e-13
-1.62687e-13
-1.54984e-13
-1.53246e-13
-1.52765e-13
-1.47466e-13
-1.38794e-13
-1.2821e-13
-1.16438e-13
-1.04517e-13
-9.54277e-14
-8.76631e-14
-8.2454e-14
-7.61862e-14
-7.03948e-14
-6.36468e-14
-5.76811e-14
-5.22601e-14
-4.63326e-14
-3.81609e-14
-2.85896e-14
-1.90247e-14
-1.15754e-14
-6.48836e-15
-9.03925e-16
9.55209e-17
-6.79609e-13
-6.87402e-13
-6.87657e-13
-6.83612e-13
-6.80482e-13
-6.85308e-13
-6.82181e-13
-6.6928e-13
-6.52606e-13
-6.4951e-13
-6.4892e-13
-6.50432e-13
-6.49488e-13
-6.47284e-13
-6.41787e-13
-6.31809e-13
-6.22379e-13
-6.15424e-13
-6.03391e-13
-5.94568e-13
-5.86839e-13
-5.73442e-13
-5.61838e-13
-5.48841e-13
-5.47244e-13
-5.44726e-13
-5.41467e-13
-5.35392e-13
-5.26904e-13
-5.22377e-13
-5.13742e-13
-5.01912e-13
-4.91907e-13
-4.7694e-13
-4.64646e-13
-4.62702e-13
-4.63432e-13
-4.59937e-13
-4.51019e-13
-4.40484e-13
-4.23749e-13
-4.13932e-13
-4.10809e-13
-4.06002e-13
-3.98557e-13
-3.90851e-13
-3.87128e-13
-3.80581e-13
-3.71266e-13
-3.60974e-13
-3.53985e-13
-3.48202e-13
-3.40126e-13
-3.27655e-13
-3.27931e-13
-3.24781e-13
-3.16315e-13
-3.102e-13
-3.03136e-13
-2.89989e-13
-2.82533e-13
-2.7694e-13
-2.68342e-13
-2.60869e-13
-2.5065e-13
-2.4284e-13
-2.33526e-13
-2.29944e-13
-2.23392e-13
-2.21651e-13
-2.14633e-13
-2.09678e-13
-2.02667e-13
-1.88814e-13
-1.74565e-13
-1.62706e-13
-1.58029e-13
-1.53698e-13
-1.49274e-13
-1.43748e-13
-1.3772e-13
-1.28763e-13
-1.16902e-13
-1.04928e-13
-9.82213e-14
-8.98709e-14
-8.25509e-14
-7.64194e-14
-7.06849e-14
-6.2074e-14
-5.55372e-14
-4.99426e-14
-4.25763e-14
-3.45638e-14
-2.78562e-14
-2.27957e-14
-1.04436e-14
-3.24877e-15
1.93367e-15
8.45397e-16
-6.85646e-13
-6.85004e-13
-6.81069e-13
-6.77211e-13
-6.79241e-13
-6.74105e-13
-6.70565e-13
-6.71663e-13
-6.68425e-13
-6.61593e-13
-6.57156e-13
-6.49348e-13
-6.43826e-13
-6.42619e-13
-6.40079e-13
-6.33787e-13
-6.25259e-13
-6.21486e-13
-6.10506e-13
-5.94328e-13
-5.75687e-13
-5.63932e-13
-5.57867e-13
-5.55746e-13
-5.48722e-13
-5.45789e-13
-5.4138e-13
-5.34035e-13
-5.27564e-13
-5.21397e-13
-5.13854e-13
-5.01325e-13
-4.89473e-13
-4.76982e-13
-4.67968e-13
-4.65655e-13
-4.67075e-13
-4.59946e-13
-4.49524e-13
-4.39361e-13
-4.24826e-13
-4.12156e-13
-4.09262e-13
-4.06089e-13
-4.02084e-13
-3.9171e-13
-3.82494e-13
-3.79302e-13
-3.74537e-13
-3.63804e-13
-3.53484e-13
-3.48399e-13
-3.42025e-13
-3.30839e-13
-3.23453e-13
-3.20289e-13
-3.14066e-13
-3.09311e-13
-3.04039e-13
-2.95266e-13
-2.84659e-13
-2.77305e-13
-2.68011e-13
-2.60645e-13
-2.53743e-13
-2.44017e-13
-2.3391e-13
-2.24912e-13
-2.20822e-13
-2.22057e-13
-2.13435e-13
-2.07938e-13
-2.01195e-13
-1.89445e-13
-1.78116e-13
-1.65998e-13
-1.55011e-13
-1.4927e-13
-1.48668e-13
-1.4834e-13
-1.41575e-13
-1.27122e-13
-1.15616e-13
-1.02723e-13
-9.78554e-14
-9.20984e-14
-8.49563e-14
-7.49713e-14
-6.6291e-14
-6.08827e-14
-5.54091e-14
-4.89169e-14
-4.37988e-14
-3.60011e-14
-2.70544e-14
-1.86572e-14
-1.08982e-14
-4.44514e-15
1.78267e-15
2.30538e-15
-6.84892e-13
-6.83905e-13
-6.81059e-13
-6.7849e-13
-6.84715e-13
-6.8218e-13
-6.70881e-13
-6.6471e-13
-6.60838e-13
-6.58429e-13
-6.57451e-13
-6.56332e-13
-6.4562e-13
-6.38131e-13
-6.35611e-13
-6.31015e-13
-6.27151e-13
-6.19931e-13
-6.08255e-13
-5.92324e-13
-5.78916e-13
-5.65523e-13
-5.56373e-13
-5.5603e-13
-5.55272e-13
-5.45902e-13
-5.38355e-13
-5.34349e-13
-5.31365e-13
-5.24026e-13
-5.15965e-13
-5.02577e-13
-4.88955e-13
-4.76131e-13
-4.65023e-13
-4.64087e-13
-4.6171e-13
-4.58964e-13
-4.53485e-13
-4.42541e-13
-4.27722e-13
-4.16717e-13
-4.09799e-13
-4.00795e-13
-3.98821e-13
-3.92832e-13
-3.85519e-13
-3.76293e-13
-3.70092e-13
-3.64175e-13
-3.54464e-13
-3.48447e-13
-3.41694e-13
-3.32235e-13
-3.2939e-13
-3.2447e-13
-3.1267e-13
-3.03703e-13
-3.00498e-13
-2.93156e-13
-2.86513e-13
-2.76925e-13
-2.6963e-13
-2.62758e-13
-2.53773e-13
-2.42342e-13
-2.35633e-13
-2.25437e-13
-2.17519e-13
-2.15972e-13
-2.13176e-13
-2.08742e-13
-2.02698e-13
-1.89774e-13
-1.77169e-13
-1.66249e-13
-1.58101e-13
-1.5098e-13
-1.50697e-13
-1.46945e-13
-1.39047e-13
-1.28299e-13
-1.16842e-13
-1.04571e-13
-9.63371e-14
-8.73847e-14
-8.06698e-14
-7.6687e-14
-7.06634e-14
-6.10374e-14
-5.43898e-14
-4.74094e-14
-4.07614e-14
-3.35235e-14
-2.55323e-14
-1.98916e-14
-1.24126e-14
-2.94719e-15
2.29612e-15
4.26824e-16
-6.80012e-13
-6.8248e-13
-6.8256e-13
-6.81125e-13
-6.79695e-13
-6.74109e-13
-6.70084e-13
-6.67168e-13
-6.66342e-13
-6.63362e-13
-6.58798e-13
-6.54871e-13
-6.4844e-13
-6.40189e-13
-6.34464e-13
-6.27918e-13
-6.25077e-13
-6.18221e-13
-6.06176e-13
-5.94562e-13
-5.79497e-13
-5.66651e-13
-5.6133e-13
-5.56723e-13
-5.48411e-13
-5.43895e-13
-5.42139e-13
-5.38148e-13
-5.30725e-13
-5.20303e-13
-5.11592e-13
-5.01504e-13
-4.88639e-13
-4.77158e-13
-4.67995e-13
-4.69056e-13
-4.6853e-13
-4.6047e-13
-4.491e-13
-4.35632e-13
-4.25262e-13
-4.19692e-13
-4.11228e-13
-4.01435e-13
-3.96309e-13
-3.89548e-13
-3.8768e-13
-3.85917e-13
-3.74617e-13
-3.60952e-13
-3.51989e-13
-3.49654e-13
-3.42607e-13
-3.31575e-13
-3.27484e-13
-3.2337e-13
-3.16185e-13
-3.06492e-13
-2.98822e-13
-2.91584e-13
-2.88696e-13
-2.80128e-13
-2.70541e-13
-2.61824e-13
-2.50325e-13
-2.41792e-13
-2.33208e-13
-2.2679e-13
-2.18885e-13
-2.14072e-13
-2.0939e-13
-2.08941e-13
-2.03689e-13
-1.89948e-13
-1.77284e-13
-1.66338e-13
-1.60021e-13
-1.54036e-13
-1.46447e-13
-1.38404e-13
-1.40615e-13
-1.34417e-13
-1.18093e-13
-1.05689e-13
-9.59406e-14
-8.53813e-14
-7.85434e-14
-7.57959e-14
-7.01126e-14
-6.10943e-14
-5.32912e-14
-4.80168e-14
-4.12024e-14
-3.23878e-14
-2.76573e-14
-1.8447e-14
-9.41231e-15
-1.65635e-15
3.11799e-15
-6.48737e-17
-6.86338e-13
-6.83554e-13
-6.81248e-13
-6.78558e-13
-6.74143e-13
-6.72005e-13
-6.69268e-13
-6.69454e-13
-6.67724e-13
-6.64113e-13
-6.57874e-13
-6.54019e-13
-6.48862e-13
-6.43131e-13
-6.36074e-13
-6.26607e-13
-6.1705e-13
-6.11042e-13
-6.06149e-13
-5.98708e-13
-5.82224e-13
-5.70525e-13
-5.61938e-13
-5.54516e-13
-5.50153e-13
-5.46073e-13
-5.42787e-13
-5.39108e-13
-5.29109e-13
-5.22755e-13
-5.12988e-13
-5.00833e-13
-4.87264e-13
-4.75086e-13
-4.70367e-13
-4.69003e-13
-4.65684e-13
-4.59045e-13
-4.48619e-13
-4.3738e-13
-4.25868e-13
-4.16881e-13
-4.12084e-13
-4.06007e-13
-4.00619e-13
-3.9384e-13
-3.84346e-13
-3.77576e-13
-3.73169e-13
-3.64938e-13
-3.58624e-13
-3.4963e-13
-3.40705e-13
-3.32748e-13
-3.26569e-13
-3.18846e-13
-3.15025e-13
-3.0833e-13
-2.99103e-13
-2.92385e-13
-2.8953e-13
-2.8256e-13
-2.71503e-13
-2.60131e-13
-2.51268e-13
-2.42302e-13
-2.32843e-13
-2.25238e-13
-2.18849e-13
-2.14246e-13
-2.11369e-13
-2.09846e-13
-2.02635e-13
-1.87478e-13
-1.76221e-13
-1.66283e-13
-1.59336e-13
-1.52993e-13
-1.49115e-13
-1.44089e-13
-1.37206e-13
-1.29058e-13
-1.18797e-13
-1.08224e-13
-1.00456e-13
-8.64762e-14
-7.77722e-14
-7.27711e-14
-6.92534e-14
-5.82654e-14
-5.07879e-14
-4.72024e-14
-4.48831e-14
-3.36314e-14
-2.3329e-14
-1.73859e-14
-1.05434e-14
3.33219e-16
1.75307e-15
-1.03547e-15
-6.8854e-13
-6.82627e-13
-6.77275e-13
-6.77475e-13
-6.70522e-13
-6.71637e-13
-6.69628e-13
-6.70763e-13
-6.70648e-13
-6.62333e-13
-6.5705e-13
-6.54944e-13
-6.53215e-13
-6.44848e-13
-6.3623e-13
-6.29347e-13
-6.21554e-13
-6.111e-13
-6.04574e-13
-5.92353e-13
-5.82401e-13
-5.70789e-13
-5.59241e-13
-5.52861e-13
-5.49027e-13
-5.49564e-13
-5.43646e-13
-5.37949e-13
-5.29256e-13
-5.21757e-13
-5.13382e-13
-5.02947e-13
-4.87737e-13
-4.77348e-13
-4.68932e-13
-4.65376e-13
-4.6453e-13
-4.59469e-13
-4.49297e-13
-4.37851e-13
-4.29172e-13
-4.19728e-13
-4.11233e-13
-4.04794e-13
-3.98876e-13
-3.92366e-13
-3.84915e-13
-3.80035e-13
-3.75386e-13
-3.66088e-13
-3.55797e-13
-3.45907e-13
-3.40315e-13
-3.35053e-13
-3.29628e-13
-3.23423e-13
-3.16147e-13
-3.07038e-13
-3.01273e-13
-2.96467e-13
-2.91109e-13
-2.81586e-13
-2.68186e-13
-2.58623e-13
-2.49546e-13
-2.40775e-13
-2.3135e-13
-2.26032e-13
-2.18815e-13
-2.1755e-13
-2.12507e-13
-2.06185e-13
-1.96697e-13
-1.85237e-13
-1.74913e-13
-1.6461e-13
-1.627e-13
-1.59658e-13
-1.50254e-13
-1.41141e-13
-1.34358e-13
-1.26974e-13
-1.1776e-13
-1.07066e-13
-9.5594e-14
-8.36531e-14
-7.88951e-14
-7.49821e-14
-6.80879e-14
-6.33159e-14
-5.77139e-14
-4.71409e-14
-3.83522e-14
-3.16862e-14
-2.33597e-14
-1.4892e-14
-8.43498e-15
-4.70062e-15
-1.48621e-15
-1.34701e-15
-6.86333e-13
-6.8102e-13
-6.79088e-13
-6.76972e-13
-6.7444e-13
-6.71269e-13
-6.66778e-13
-6.69695e-13
-6.69898e-13
-6.65851e-13
-6.59991e-13
-6.54095e-13
-6.52285e-13
-6.43453e-13
-6.33382e-13
-6.24136e-13
-6.1583e-13
-6.11602e-13
-6.0538e-13
-5.94986e-13
-5.8373e-13
-5.72338e-13
-5.61779e-13
-5.56424e-13
-5.53936e-13
-5.47464e-13
-5.40684e-13
-5.32589e-13
-5.25484e-13
-5.21962e-13
-5.14367e-13
-5.07295e-13
-4.95655e-13
-4.84008e-13
-4.67412e-13
-4.62029e-13
-4.60272e-13
-4.56162e-13
-4.48475e-13
-4.37896e-13
-4.30982e-13
-4.20162e-13
-4.13767e-13
-4.03587e-13
-3.99434e-13
-3.93537e-13
-3.8926e-13
-3.81575e-13
-3.71903e-13
-3.59529e-13
-3.54767e-13
-3.51257e-13
-3.44057e-13
-3.31816e-13
-3.2509e-13
-3.18852e-13
-3.1162e-13
-3.09865e-13
-3.02437e-13
-3.00401e-13
-2.99697e-13
-2.79162e-13
-2.66309e-13
-2.60318e-13
-2.52384e-13
-2.43177e-13
-2.33661e-13
-2.26917e-13
-2.16313e-13
-2.12164e-13
-2.08242e-13
-2.08941e-13
-2.01236e-13
-1.88425e-13
-1.72735e-13
-1.60758e-13
-1.62089e-13
-1.58138e-13
-1.49821e-13
-1.438e-13
-1.36425e-13
-1.27353e-13
-1.16206e-13
-1.05574e-13
-9.64353e-14
-8.50393e-14
-7.80009e-14
-7.50035e-14
-6.91213e-14
-5.9185e-14
-5.20033e-14
-4.67515e-14
-3.88458e-14
-3.12303e-14
-2.6799e-14
-2.07473e-14
-8.68798e-15
-1.74222e-15
3.03337e-15
-2.97893e-17
-6.81025e-13
-6.83036e-13
-6.8275e-13
-6.76791e-13
-6.71924e-13
-6.72315e-13
-6.708e-13
-6.67142e-13
-6.67924e-13
-6.64695e-13
-6.61622e-13
-6.57578e-13
-6.50678e-13
-6.42048e-13
-6.34279e-13
-6.27524e-13
-6.23018e-13
-6.18309e-13
-6.07732e-13
-5.92782e-13
-5.7587e-13
-5.6279e-13
-5.58767e-13
-5.58653e-13
-5.55065e-13
-5.46959e-13
-5.37856e-13
-5.32838e-13
-5.25493e-13
-5.23076e-13
-5.18247e-13
-5.04198e-13
-4.91044e-13
-4.82033e-13
-4.73504e-13
-4.67851e-13
-4.62558e-13
-4.55047e-13
-4.47793e-13
-4.39282e-13
-4.29434e-13
-4.19784e-13
-4.10786e-13
-4.05946e-13
-4.04362e-13
-3.95246e-13
-3.8719e-13
-3.75828e-13
-3.73095e-13
-3.65974e-13
-3.54592e-13
-3.49915e-13
-3.43374e-13
-3.35086e-13
-3.28295e-13
-3.15838e-13
-3.0504e-13
-3.07926e-13
-3.10567e-13
-3.02057e-13
-2.92161e-13
-2.81257e-13
-2.6989e-13