/*--------------------------------*- C++ -*----------------------------------*\
| =========                 |                                                 |
| \\      /  F ield         | OpenFOAM: The Open Source CFD Toolbox           |
|  \\    /   O peration     | Version:  v2012                                 |
|   \\  /    A nd           | Website:  www.openfoam.com                      |
|    \\/     M anipulation  |                                                 |
\*---------------------------------------------------------------------------*/
FoamFile
{
    version     2.0;
    format      ascii;
    class       volScalarField;
    location    "3.5";
    object      p;
}
// * * * * * * * * * * * * * * * * * * * * * * * * * * * * * * * * * * * * * //

dimensions      [0 2 -2 0 0 0 0];


internalField   nonuniform List<scalar> 
65536
(
-1.43153e-09
-2.73895e-06
-8.21074e-06
-1.63972e-05
-2.72975e-05
-4.09142e-05
-5.72467e-05
-7.62938e-05
-9.80538e-05
-0.000122525
-0.000149705
-0.000179591
-0.000212179
-0.000247466
-0.000285448
-0.000326119
-0.000369475
-0.000415509
-0.000464216
-0.000515587
-0.000569616
-0.000626294
-0.000685612
-0.000747559
-0.000812124
-0.000879296
-0.000949062
-0.00102141
-0.00109632
-0.00117378
-0.00125377
-0.00133627
-0.00142127
-0.00150873
-0.00159865
-0.00169099
-0.00178573
-0.00188285
-0.0019823
-0.00208407
-0.00218812
-0.00229441
-0.00240291
-0.00251358
-0.00262639
-0.00274128
-0.00285822
-0.00297716
-0.00309806
-0.00322085
-0.00334549
-0.00347193
-0.0036001
-0.00372996
-0.00386143
-0.00399445
-0.00412897
-0.0042649
-0.00440219
-0.00454075
-0.00468052
-0.00482142
-0.00496337
-0.00510629
-0.00525009
-0.0053947
-0.00554002
-0.00568597
-0.00583246
-0.00597939
-0.00612668
-0.00627423
-0.00642194
-0.00656971
-0.00671745
-0.00686506
-0.00701244
-0.00715948
-0.00730609
-0.00745215
-0.00759758
-0.00774226
-0.00788609
-0.00802897
-0.0081708
-0.00831147
-0.00845088
-0.00858892
-0.0087255
-0.00886052
-0.00899388
-0.00912548
-0.00925522
-0.009383
-0.00950874
-0.00963234
-0.00975372
-0.00987277
-0.00998943
-0.0101036
-0.0102152
-0.0103242
-0.0104304
-0.0105338
-0.0106344
-0.0107321
-0.0108267
-0.0109183
-0.0110068
-0.0110921
-0.0111742
-0.011253
-0.0113285
-0.0114007
-0.0114694
-0.0115347
-0.0115966
-0.0116549
-0.0117098
-0.0117611
-0.0118089
-0.0118531
-0.0118937
-0.0119307
-0.0119642
-0.011994
-0.0120203
-0.012043
-0.0120621
-0.0120777
-0.0120897
-0.0120983
-0.0121033
-0.0121048
-0.0121029
-0.0120976
-0.0120889
-0.0120768
-0.0120614
-0.0120428
-0.0120209
-0.0119959
-0.0119677
-0.0119364
-0.0119021
-0.0118648
-0.0118246
-0.0117815
-0.0117356
-0.011687
-0.0116357
-0.0115817
-0.0115252
-0.0114662
-0.0114048
-0.011341
-0.0112749
-0.0112067
-0.0111362
-0.0110637
-0.0109892
-0.0109128
-0.0108345
-0.0107545
-0.0106727
-0.0105893
-0.0105044
-0.010418
-0.0103302
-0.010241
-0.0101507
-0.0100591
-0.00996644
-0.00987276
-0.00977814
-0.00968265
-0.00958636
-0.00948934
-0.00939168
-0.00929345
-0.00919471
-0.00909555
-0.00899602
-0.00889621
-0.00879618
-0.008696
-0.00859575
-0.00849548
-0.00839527
-0.00829517
-0.00819526
-0.00809561
-0.00799626
-0.00789728
-0.00779875
-0.0077007
-0.00760321
-0.00750632
-0.0074101
-0.00731461
-0.00721988
-0.00712599
-0.00703297
-0.00694088
-0.00684977
-0.00675968
-0.00667067
-0.00658278
-0.00649604
-0.00641052
-0.00632624
-0.00624324
-0.00616158
-0.00608128
-0.00600238
-0.00592492
-0.00584894
-0.00577446
-0.00570152
-0.00563015
-0.00556038
-0.00549224
-0.00542576
-0.00536096
-0.00529788
-0.00523653
-0.00517694
-0.00511913
-0.00506313
-0.00500895
-0.00495662
-0.00490615
-0.00485757
-0.00481089
-0.00476612
-0.00472329
-0.0046824
-0.00464348
-0.00460653
-0.00457156
-0.0045386
-0.00450764
-0.00447871
-0.0044518
-0.00442693
-0.0044041
-0.00438333
-0.00436461
-0.00434796
-0.00433339
-0.00432088
-0.00431045
-0.00430211
-0.00429585
-0.00429167
-0.00428959
-1.49815e-06
-4.23252e-06
-9.69742e-06
-1.78788e-05
-2.87764e-05
-4.23909e-05
-5.87215e-05
-7.77669e-05
-9.95252e-05
-0.000123995
-0.000151173
-0.000181056
-0.000213642
-0.000248927
-0.000286906
-0.000327575
-0.000370928
-0.00041696
-0.000465664
-0.000517033
-0.000571059
-0.000627734
-0.000687049
-0.000748994
-0.000813557
-0.000880727
-0.000950491
-0.00102284
-0.00109774
-0.0011752
-0.00125519
-0.00133769
-0.00142269
-0.00151016
-0.00160008
-0.00169242
-0.00178716
-0.00188428
-0.00198373
-0.0020855
-0.00218956
-0.00229585
-0.00240436
-0.00251504
-0.00262785
-0.00274275
-0.0028597
-0.00297865
-0.00309955
-0.00322236
-0.00334701
-0.00347346
-0.00360165
-0.00373152
-0.003863
-0.00399605
-0.00413058
-0.00426653
-0.00440384
-0.00454242
-0.00468222
-0.00482314
-0.00496511
-0.00510805
-0.00525188
-0.00539651
-0.00554186
-0.00568784
-0.00583436
-0.00598132
-0.00612864
-0.00627622
-0.00642396
-0.00657177
-0.00671955
-0.00686719
-0.0070146
-0.00716168
-0.00730832
-0.00745443
-0.00759989
-0.00774461
-0.00788848
-0.0080314
-0.00817327
-0.00831397
-0.00845342
-0.00859151
-0.00872813
-0.00886319
-0.00899659
-0.00912822
-0.009258
-0.00938582
-0.0095116
-0.00963524
-0.00975665
-0.00987575
-0.00999244
-0.0101066
-0.0102183
-0.0103273
-0.0104335
-0.010537
-0.0106376
-0.0107353
-0.01083
-0.0109216
-0.0110101
-0.0110955
-0.0111776
-0.0112564
-0.0113319
-0.0114041
-0.0114729
-0.0115382
-0.0116001
-0.0116585
-0.0117133
-0.0117646
-0.0118124
-0.0118566
-0.0118973
-0.0119343
-0.0119678
-0.0119976
-0.0120239
-0.0120466
-0.0120657
-0.0120813
-0.0120934
-0.0121019
-0.0121069
-0.0121084
-0.0121065
-0.0121012
-0.0120924
-0.0120804
-0.012065
-0.0120463
-0.0120244
-0.0119994
-0.0119712
-0.0119399
-0.0119055
-0.0118682
-0.011828
-0.0117849
-0.011739
-0.0116903
-0.011639
-0.011585
-0.0115285
-0.0114695
-0.011408
-0.0113442
-0.0112781
-0.0112098
-0.0111393
-0.0110668
-0.0109923
-0.0109158
-0.0108375
-0.0107574
-0.0106756
-0.0105922
-0.0105073
-0.0104208
-0.010333
-0.0102438
-0.0101534
-0.0100618
-0.00996908
-0.00987537
-0.00978071
-0.00968518
-0.00958886
-0.00949181
-0.00939411
-0.00929585
-0.00919707
-0.00909787
-0.00899832
-0.00889847
-0.00879841
-0.0086982
-0.00859791
-0.00849761
-0.00839736
-0.00829724
-0.0081973
-0.00809761
-0.00799823
-0.00789922
-0.00780065
-0.00770258
-0.00760506
-0.00750814
-0.0074119
-0.00731637
-0.00722162
-0.0071277
-0.00703466
-0.00694254
-0.00685141
-0.0067613
-0.00667226
-0.00658435
-0.00649759
-0.00641204
-0.00632774
-0.00624473
-0.00616304
-0.00608272
-0.00600381
-0.00592633
-0.00585033
-0.00577583
-0.00570288
-0.00563149
-0.00556171
-0.00549355
-0.00542706
-0.00536225
-0.00529915
-0.00523779
-0.00517819
-0.00512037
-0.00506435
-0.00501017
-0.00495782
-0.00490735
-0.00485876
-0.00481207
-0.00476729
-0.00472445
-0.00468356
-0.00464462
-0.00460767
-0.0045727
-0.00453973
-0.00450877
-0.00447982
-0.00445291
-0.00442804
-0.00440521
-0.00438443
-0.00436571
-0.00434906
-0.00433448
-0.00432197
-0.00431155
-0.0043032
-0.00429694
-0.00429276
-0.00429067
-4.48552e-06
-7.21297e-06
-1.26692e-05
-2.08445e-05
-3.17379e-05
-4.53486e-05
-6.16757e-05
-8.07174e-05
-0.000102472
-0.000126938
-0.000154112
-0.000183991
-0.000216572
-0.000251852
-0.000289826
-0.00033049
-0.000373838
-0.000419865
-0.000468564
-0.000519927
-0.000573949
-0.000630619
-0.000689929
-0.000751869
-0.000816428
-0.000883594
-0.000953354
-0.0010257
-0.0011006
-0.00117806
-0.00125805
-0.00134055
-0.00142554
-0.00151301
-0.00160293
-0.00169528
-0.00179002
-0.00188714
-0.0019866
-0.00208838
-0.00219244
-0.00229875
-0.00240726
-0.00251796
-0.00263078
-0.0027457
-0.00286266
-0.00298163
-0.00310255
-0.00322538
-0.00335006
-0.00347653
-0.00360475
-0.00373464
-0.00386616
-0.00399924
-0.00413381
-0.0042698
-0.00440714
-0.00454577
-0.0046856
-0.00482657
-0.00496859
-0.00511158
-0.00525546
-0.00540015
-0.00554555
-0.00569159
-0.00583816
-0.00598519
-0.00613257
-0.00628021
-0.00642802
-0.0065759
-0.00672374
-0.00687145
-0.00701894
-0.00716609
-0.0073128
-0.00745898
-0.00760452
-0.00774932
-0.00789327
-0.00803627
-0.00817821
-0.008319
-0.00845852
-0.00859669
-0.00873339
-0.00886853
-0.009002
-0.00913372
-0.00926357
-0.00939148
-0.00951733
-0.00964105
-0.00976253
-0.0098817
-0.00999846
-0.0101127
-0.0102245
-0.0103335
-0.0104399
-0.0105434
-0.0106441
-0.0107418
-0.0108366
-0.0109282
-0.0110168
-0.0111022
-0.0111843
-0.0112632
-0.0113388
-0.011411
-0.0114798
-0.0115452
-0.0116071
-0.0116655
-0.0117204
-0.0117718
-0.0118196
-0.0118638
-0.0119044
-0.0119415
-0.011975
-0.0120048
-0.0120311
-0.0120538
-0.012073
-0.0120886
-0.0121006
-0.0121091
-0.0121141
-0.0121156
-0.0121137
-0.0121083
-0.0120996
-0.0120875
-0.0120721
-0.0120534
-0.0120315
-0.0120064
-0.0119782
-0.0119468
-0.0119125
-0.0118751
-0.0118348
-0.0117917
-0.0117457
-0.011697
-0.0116456
-0.0115916
-0.011535
-0.011476
-0.0114145
-0.0113506
-0.0112844
-0.0112161
-0.0111456
-0.011073
-0.0109984
-0.0109219
-0.0108435
-0.0107633
-0.0106815
-0.010598
-0.010513
-0.0104264
-0.0103385
-0.0102493
-0.0101588
-0.0100671
-0.00997437
-0.00988059
-0.00978586
-0.00969026
-0.00959387
-0.00949675
-0.00939899
-0.00930065
-0.00920181
-0.00910254
-0.00900291
-0.008903
-0.00880287
-0.00870259
-0.00860224
-0.00850187
-0.00840156
-0.00830137
-0.00820137
-0.00810161
-0.00800217
-0.00790311
-0.00780448
-0.00770635
-0.00760876
-0.0075118
-0.00741549
-0.00731991
-0.00722511
-0.00713113
-0.00703804
-0.00694588
-0.00685469
-0.00676453
-0.00667545
-0.00658749
-0.00650069
-0.0064151
-0.00633076
-0.0062477
-0.00616598
-0.00608562
-0.00600667
-0.00592915
-0.00585311
-0.00577859
-0.0057056
-0.00563418
-0.00556436
-0.00549618
-0.00542966
-0.00536482
-0.0053017
-0.00524031
-0.00518068
-0.00512284
-0.00506681
-0.0050126
-0.00496024
-0.00490974
-0.00486113
-0.00481442
-0.00476963
-0.00472678
-0.00468587
-0.00464692
-0.00460995
-0.00457497
-0.00454199
-0.00451102
-0.00448207
-0.00445515
-0.00443026
-0.00440743
-0.00438664
-0.00436792
-0.00435126
-0.00433667
-0.00432416
-0.00431373
-0.00430538
-0.00429912
-0.00429494
-0.00429285
-8.94852e-06
-1.16708e-05
-1.71208e-05
-2.52907e-05
-3.61791e-05
-4.97852e-05
-6.61073e-05
-8.5144e-05
-0.000106893
-0.000131353
-0.000158521
-0.000188394
-0.000220968
-0.000256241
-0.000294208
-0.000334864
-0.000378205
-0.000424224
-0.000472915
-0.000524271
-0.000578284
-0.000634947
-0.00069425
-0.000756183
-0.000820735
-0.000887895
-0.00095765
-0.00102999
-0.00110489
-0.00118234
-0.00126233
-0.00134483
-0.00142982
-0.00151729
-0.00160721
-0.00169956
-0.00179431
-0.00189144
-0.00199091
-0.0020927
-0.00219677
-0.00230309
-0.00241162
-0.00252233
-0.00263518
-0.00275012
-0.00286711
-0.0029861
-0.00310706
-0.00322991
-0.00335463
-0.00348114
-0.0036094
-0.00373934
-0.0038709
-0.00400403
-0.00413865
-0.00427469
-0.0044121
-0.00455079
-0.00469069
-0.00483172
-0.00497381
-0.00511688
-0.00526083
-0.0054056
-0.00555109
-0.00569721
-0.00584387
-0.00599099
-0.00613846
-0.0062862
-0.00643411
-0.00658209
-0.00673003
-0.00687785
-0.00702544
-0.0071727
-0.00731953
-0.00746582
-0.00761148
-0.00775639
-0.00790045
-0.00804357
-0.00818563
-0.00832653
-0.00846618
-0.00860446
-0.00874129
-0.00887654
-0.00901014
-0.00914197
-0.00927194
-0.00939996
-0.00952593
-0.00964976
-0.00977136
-0.00989064
-0.0100075
-0.0101219
-0.0102337
-0.0103429
-0.0104493
-0.010553
-0.0106537
-0.0107516
-0.0108464
-0.0109382
-0.0110268
-0.0111123
-0.0111945
-0.0112735
-0.0113491
-0.0114214
-0.0114902
-0.0115557
-0.0116176
-0.0116761
-0.011731
-0.0117824
-0.0118303
-0.0118745
-0.0119152
-0.0119523
-0.0119858
-0.0120157
-0.012042
-0.0120647
-0.0120838
-0.0120994
-0.0121114
-0.0121199
-0.0121249
-0.0121264
-0.0121245
-0.0121191
-0.0121103
-0.0120982
-0.0120828
-0.012064
-0.0120421
-0.0120169
-0.0119887
-0.0119573
-0.0119229
-0.0118855
-0.0118451
-0.0118019
-0.0117559
-0.0117071
-0.0116556
-0.0116015
-0.0115449
-0.0114857
-0.0114241
-0.0113602
-0.011294
-0.0112255
-0.0111549
-0.0110822
-0.0110075
-0.0109309
-0.0108524
-0.0107722
-0.0106902
-0.0106067
-0.0105215
-0.0104349
-0.0103469
-0.0102575
-0.0101669
-0.0100752
-0.00998231
-0.00988842
-0.00979359
-0.00969788
-0.00960138
-0.00950416
-0.00940629
-0.00930785
-0.00920891
-0.00910953
-0.00900981
-0.00890979
-0.00880956
-0.00870918
-0.00860873
-0.00850826
-0.00840785
-0.00830757
-0.00820747
-0.00810762
-0.00800809
-0.00790893
-0.00781022
-0.00771199
-0.00761433
-0.00751727
-0.00742088
-0.00732522
-0.00723034
-0.00713628
-0.00704311
-0.00695087
-0.00685962
-0.00676939
-0.00668023
-0.0065922
-0.00650534
-0.00641968
-0.00633528
-0.00625216
-0.00617038
-0.00608996
-0.00601095
-0.00593338
-0.00585729
-0.00578271
-0.00570968
-0.00563821
-0.00556835
-0.00550012
-0.00543356
-0.00536868
-0.00530552
-0.00524409
-0.00518443
-0.00512656
-0.00507049
-0.00501625
-0.00496386
-0.00491333
-0.0048647
-0.00481796
-0.00477315
-0.00473027
-0.00468934
-0.00465037
-0.00461338
-0.00457838
-0.00454538
-0.00451439
-0.00448543
-0.00445849
-0.0044336
-0.00441075
-0.00438996
-0.00437122
-0.00435456
-0.00433996
-0.00432745
-0.00431701
-0.00430866
-0.00430239
-0.00429821
-0.00429612
-1.48888e-05
-1.76084e-05
-2.3054e-05
-3.12188e-05
-4.2102e-05
-5.57024e-05
-7.20185e-05
-9.10486e-05
-0.000112791
-0.000137243
-0.000164403
-0.000194267
-0.000226833
-0.000262096
-0.000300054
-0.0003407
-0.00038403
-0.000430039
-0.000478719
-0.000530065
-0.000584068
-0.000640721
-0.000700014
-0.000761938
-0.000826481
-0.000893633
-0.00096338
-0.00103571
-0.00111061
-0.00118805
-0.00126804
-0.00135054
-0.00143553
-0.001523
-0.00161293
-0.00170528
-0.00180004
-0.00189717
-0.00199665
-0.00209845
-0.00220254
-0.00230888
-0.00241744
-0.00252817
-0.00264104
-0.00275601
-0.00287304
-0.00299207
-0.00311306
-0.00323596
-0.00336072
-0.00348729
-0.0036156
-0.0037456
-0.00387723
-0.00401042
-0.00414511
-0.00428123
-0.00441871
-0.00455748
-0.00469747
-0.0048386
-0.00498078
-0.00512394
-0.005268
-0.00541288
-0.00555847
-0.00570471
-0.00585149
-0.00599873
-0.00614633
-0.0062942
-0.00644224
-0.00659035
-0.00673843
-0.00688639
-0.00703413
-0.00718153
-0.00732851
-0.00747495
-0.00762075
-0.00776582
-0.00791004
-0.00805331
-0.00819553
-0.00833659
-0.0084764
-0.00861484
-0.00875182
-0.00888724
-0.00902099
-0.00915298
-0.00928311
-0.00941129
-0.00953741
-0.00966139
-0.00978314
-0.00990257
-0.0100196
-0.0101341
-0.0102461
-0.0103554
-0.0104619
-0.0105657
-0.0106666
-0.0107646
-0.0108595
-0.0109514
-0.0110402
-0.0111257
-0.0112081
-0.0112871
-0.0113629
-0.0114352
-0.0115042
-0.0115697
-0.0116317
-0.0116902
-0.0117452
-0.0117967
-0.0118446
-0.0118889
-0.0119296
-0.0119667
-0.0120002
-0.0120301
-0.0120565
-0.0120792
-0.0120983
-0.0121139
-0.0121259
-0.0121344
-0.0121394
-0.0121409
-0.0121389
-0.0121335
-0.0121247
-0.0121125
-0.012097
-0.0120782
-0.0120562
-0.012031
-0.0120027
-0.0119712
-0.0119367
-0.0118992
-0.0118588
-0.0118155
-0.0117694
-0.0117205
-0.011669
-0.0116148
-0.011558
-0.0114987
-0.0114371
-0.011373
-0.0113066
-0.0112381
-0.0111673
-0.0110945
-0.0110197
-0.010943
-0.0108644
-0.010784
-0.0107019
-0.0106182
-0.0105329
-0.0104462
-0.010358
-0.0102685
-0.0101778
-0.0100859
-0.0099929
-0.00989887
-0.0098039
-0.00970805
-0.00961141
-0.00951405
-0.00941604
-0.00931746
-0.00921838
-0.00911887
-0.009019
-0.00891885
-0.00881848
-0.00871797
-0.00861739
-0.00851679
-0.00841625
-0.00831584
-0.00821561
-0.00811564
-0.00801598
-0.00791671
-0.00781787
-0.00771953
-0.00762174
-0.00752457
-0.00742808
-0.0073323
-0.00723731
-0.00714315
-0.00704988
-0.00695754
-0.00686618
-0.00677586
-0.00668661
-0.00659849
-0.00651153
-0.00642579
-0.0063413
-0.00625811
-0.00617624
-0.00609575
-0.00601667
-0.00593903
-0.00586287
-0.00578822
-0.00571511
-0.00564359
-0.00557367
-0.00550538
-0.00543876
-0.00537383
-0.00531061
-0.00524914
-0.00518943
-0.00513151
-0.00507539
-0.00502111
-0.00496868
-0.00491812
-0.00486945
-0.00482268
-0.00477783
-0.00473492
-0.00469396
-0.00465497
-0.00461795
-0.00458293
-0.00454991
-0.0045189
-0.00448991
-0.00446296
-0.00443805
-0.00441518
-0.00439438
-0.00437563
-0.00435895
-0.00434435
-0.00433183
-0.00432138
-0.00431302
-0.00430675
-0.00430257
-0.00430048
-2.23118e-05
-2.50296e-05
-3.04716e-05
-3.86315e-05
-4.9509e-05
-6.31029e-05
-7.94119e-05
-9.84341e-05
-0.000120168
-0.000144611
-0.00017176
-0.000201614
-0.000234169
-0.000269421
-0.000307366
-0.000347999
-0.000391317
-0.000437312
-0.00048598
-0.000537313
-0.000591303
-0.000647944
-0.000707225
-0.000769137
-0.00083367
-0.000900811
-0.000970549
-0.00104287
-0.00111776
-0.0011952
-0.00127518
-0.00135768
-0.00144267
-0.00153014
-0.00162007
-0.00171243
-0.0018072
-0.00190434
-0.00200384
-0.00210566
-0.00220977
-0.00231613
-0.00242471
-0.00253547
-0.00264838
-0.00276339
-0.00288046
-0.00299953
-0.00312058
-0.00324353
-0.00336835
-0.00349498
-0.00362336
-0.00375344
-0.00388514
-0.00401842
-0.00415319
-0.00428941
-0.00442699
-0.00456586
-0.00470596
-0.0048472
-0.0049895
-0.00513279
-0.00527698
-0.00542198
-0.00556772
-0.0057141
-0.00586103
-0.00600842
-0.00615617
-0.0063042
-0.00645241
-0.00660069
-0.00674894
-0.00689708
-0.00704499
-0.00719258
-0.00733974
-0.00748637
-0.00763237
-0.00777763
-0.00792204
-0.00806551
-0.00820792
-0.00834919
-0.00848919
-0.00862783
-0.00876501
-0.00890063
-0.00903458
-0.00916677
-0.00929709
-0.00942546
-0.00955178
-0.00967595
-0.00979789
-0.0099175
-0.0100347
-0.0101494
-0.0102615
-0.010371
-0.0104778
-0.0105817
-0.0106827
-0.0107809
-0.010876
-0.010968
-0.0110569
-0.0111426
-0.011225
-0.0113042
-0.0113801
-0.0114525
-0.0115216
-0.0115872
-0.0116493
-0.0117079
-0.011763
-0.0118145
-0.0118625
-0.0119068
-0.0119476
-0.0119847
-0.0120183
-0.0120482
-0.0120746
-0.0120973
-0.0121165
-0.012132
-0.012144
-0.0121525
-0.0121575
-0.0121589
-0.0121569
-0.0121515
-0.0121426
-0.0121304
-0.0121148
-0.012096
-0.0120739
-0.0120486
-0.0120202
-0.0119887
-0.0119541
-0.0119165
-0.011876
-0.0118326
-0.0117863
-0.0117374
-0.0116857
-0.0116313
-0.0115744
-0.0115151
-0.0114532
-0.011389
-0.0113225
-0.0112538
-0.0111829
-0.01111
-0.011035
-0.0109581
-0.0108793
-0.0107988
-0.0107165
-0.0106327
-0.0105472
-0.0104603
-0.010372
-0.0102823
-0.0101914
-0.0100993
-0.0100061
-0.00991194
-0.00981679
-0.00972077
-0.00962396
-0.00952642
-0.00942824
-0.00932948
-0.00923022
-0.00913054
-0.0090305
-0.00893018
-0.00882965
-0.00872897
-0.00862821
-0.00852745
-0.00842675
-0.00832618
-0.00822579
-0.00812566
-0.00802585
-0.00792642
-0.00782743
-0.00772894
-0.00763102
-0.0075337
-0.00743707
-0.00734116
-0.00724603
-0.00715174
-0.00705834
-0.00696587
-0.00687439
-0.00678395
-0.00669458
-0.00660635
-0.00651928
-0.00643343
-0.00634884
-0.00626554
-0.00618358
-0.00610299
-0.00602381
-0.00594608
-0.00586983
-0.0057951
-0.00572191
-0.00565031
-0.00558031
-0.00551195
-0.00544526
-0.00538026
-0.00531698
-0.00525544
-0.00519567
-0.00513769
-0.00508153
-0.00502719
-0.00497471
-0.0049241
-0.00487538
-0.00482857
-0.00478368
-0.00474073
-0.00469974
-0.00466071
-0.00462366
-0.00458861
-0.00455556
-0.00452452
-0.00449551
-0.00446854
-0.00444361
-0.00442072
-0.0043999
-0.00438114
-0.00436445
-0.00434983
-0.0043373
-0.00432685
-0.00431848
-0.00431221
-0.00430802
-0.00430593
-3.12224e-05
-3.39385e-05
-3.9377e-05
-4.7532e-05
-5.84033e-05
-7.199e-05
-8.82907e-05
-0.000107304
-0.000129027
-0.000153459
-0.000180597
-0.000210438
-0.000242979
-0.000278217
-0.000316148
-0.000356767
-0.000400069
-0.000446049
-0.000494701
-0.000546018
-0.000599994
-0.000656619
-0.000715886
-0.000777784
-0.000842303
-0.000909433
-0.00097916
-0.00105147
-0.00112635
-0.00120379
-0.00128376
-0.00136626
-0.00145125
-0.00153872
-0.00162866
-0.00172102
-0.0018158
-0.00191296
-0.00201247
-0.00211431
-0.00221844
-0.00232483
-0.00243345
-0.00254425
-0.0026572
-0.00277225
-0.00288937
-0.0030085
-0.0031296
-0.00325263
-0.00337752
-0.00350422
-0.00363269
-0.00376285
-0.00389465
-0.00402802
-0.00416291
-0.00429923
-0.00443693
-0.00457593
-0.00471616
-0.00485753
-0.00499998
-0.00514341
-0.00528776
-0.00543292
-0.00557883
-0.00572538
-0.00587249
-0.00602006
-0.006168
-0.00631623
-0.00646463
-0.00661311
-0.00676158
-0.00690992
-0.00705805
-0.00720586
-0.00735325
-0.0075001
-0.00764633
-0.00779182
-0.00793647
-0.00808017
-0.00822282
-0.00836432
-0.00850457
-0.00864345
-0.00878087
-0.00891672
-0.00905091
-0.00918334
-0.0093139
-0.0094425
-0.00956905
-0.00969346
-0.00981562
-0.00993546
-0.0100529
-0.0101678
-0.0102801
-0.0103898
-0.0104968
-0.0106009
-0.0107021
-0.0108004
-0.0108957
-0.0109879
-0.011077
-0.0111628
-0.0112455
-0.0113248
-0.0114008
-0.0114734
-0.0115425
-0.0116082
-0.0116705
-0.0117292
-0.0117843
-0.0118359
-0.011884
-0.0119284
-0.0119692
-0.0120064
-0.01204
-0.01207
-0.0120963
-0.0121191
-0.0121383
-0.0121538
-0.0121658
-0.0121743
-0.0121792
-0.0121806
-0.0121786
-0.0121731
-0.0121642
-0.0121519
-0.0121363
-0.0121173
-0.0120952
-0.0120698
-0.0120413
-0.0120096
-0.0119749
-0.0119372
-0.0118966
-0.0118531
-0.0118067
-0.0117576
-0.0117057
-0.0116512
-0.0115942
-0.0115346
-0.0114726
-0.0114083
-0.0113416
-0.0112727
-0.0112016
-0.0111285
-0.0110533
-0.0109763
-0.0108973
-0.0108166
-0.0107341
-0.01065
-0.0105644
-0.0104772
-0.0103887
-0.0102989
-0.0102077
-0.0101154
-0.0100221
-0.00992764
-0.00983228
-0.00973605
-0.00963902
-0.00954128
-0.00944288
-0.00934392
-0.00924445
-0.00914456
-0.00904432
-0.00894379
-0.00884305
-0.00874217
-0.00864122
-0.00854026
-0.00843936
-0.00833859
-0.00823802
-0.0081377
-0.0080377
-0.00793809
-0.00783892
-0.00774025
-0.00764215
-0.00754467
-0.00744786
-0.00735179
-0.0072565
-0.00716205
-0.00706849
-0.00697587
-0.00688425
-0.00679366
-0.00670415
-0.00661578
-0.00652858
-0.0064426
-0.00635788
-0.00627446
-0.00619238
-0.00611167
-0.00603238
-0.00595455
-0.00587819
-0.00580336
-0.00573007
-0.00565837
-0.00558828
-0.00551984
-0.00545306
-0.00538798
-0.00532462
-0.00526301
-0.00520317
-0.00514512
-0.00508889
-0.00503449
-0.00498195
-0.00493128
-0.00488251
-0.00483565
-0.00479071
-0.00474771
-0.00470667
-0.00466761
-0.00463052
-0.00459543
-0.00456234
-0.00453128
-0.00450224
-0.00447524
-0.00445028
-0.00442737
-0.00440653
-0.00438775
-0.00437104
-0.00435641
-0.00434387
-0.0043334
-0.00432503
-0.00431875
-0.00431456
-0.00431247
-4.16251e-05
-4.43395e-05
-4.97745e-05
-5.79243e-05
-6.87889e-05
-8.23676e-05
-9.8659e-05
-0.000117661
-0.000139373
-0.000163792
-0.000190917
-0.000220743
-0.000253269
-0.00028849
-0.000326404
-0.000367005
-0.00041029
-0.000456252
-0.000504886
-0.000556185
-0.000610143
-0.000666751
-0.000726001
-0.000787883
-0.000852387
-0.000919503
-0.000989217
-0.00106152
-0.00113639
-0.00121382
-0.00129379
-0.00137628
-0.00146127
-0.00154875
-0.00163868
-0.00173106
-0.00182585
-0.00192302
-0.00202256
-0.00212442
-0.00222858
-0.002335
-0.00244365
-0.0025545
-0.00266749
-0.0027826
-0.00289978
-0.00301898
-0.00314015
-0.00326325
-0.00338823
-0.00351502
-0.00364358
-0.00377385
-0.00390576
-0.00403925
-0.00417426
-0.00431071
-0.00444855
-0.0045877
-0.00472807
-0.00486961
-0.00501222
-0.00515583
-0.00530036
-0.00544571
-0.00559181
-0.00573856
-0.00588588
-0.00603366
-0.00618183
-0.00633028
-0.00647891
-0.00662763
-0.00677634
-0.00692494
-0.00707332
-0.00722139
-0.00736903
-0.00751615
-0.00766265
-0.00780841
-0.00795333
-0.00809731
-0.00824024
-0.00838202
-0.00852254
-0.0086617
-0.0087994
-0.00893554
-0.00907001
-0.00920271
-0.00933355
-0.00946243
-0.00958925
-0.00971392
-0.00983635
-0.00995645
-0.0100741
-0.0101893
-0.0103019
-0.0104118
-0.010519
-0.0106234
-0.0107248
-0.0108233
-0.0109188
-0.0110112
-0.0111005
-0.0111865
-0.0112693
-0.0113488
-0.011425
-0.0114977
-0.011567
-0.0116329
-0.0116952
-0.011754
-0.0118093
-0.011861
-0.0119091
-0.0119536
-0.0119945
-0.0120318
-0.0120654
-0.0120954
-0.0121218
-0.0121446
-0.0121637
-0.0121793
-0.0121913
-0.0121997
-0.0122046
-0.012206
-0.0122039
-0.0121984
-0.0121894
-0.012177
-0.0121613
-0.0121423
-0.01212
-0.0120945
-0.0120659
-0.0120341
-0.0119993
-0.0119615
-0.0119207
-0.011877
-0.0118305
-0.0117812
-0.0117292
-0.0116745
-0.0116173
-0.0115575
-0.0114953
-0.0114308
-0.0113639
-0.0112948
-0.0112235
-0.0111502
-0.0110748
-0.0109975
-0.0109183
-0.0108373
-0.0107546
-0.0106703
-0.0105844
-0.0104971
-0.0104083
-0.0103182
-0.0102268
-0.0101343
-0.0100406
-0.00994598
-0.00985037
-0.00975389
-0.00965662
-0.00955863
-0.00945999
-0.00936078
-0.00926107
-0.00916093
-0.00906045
-0.00895968
-0.0088587
-0.00875759
-0.0086564
-0.00855521
-0.00845408
-0.00835309
-0.00825229
-0.00815175
-0.00805154
-0.00795171
-0.00785233
-0.00775345
-0.00765515
-0.00755746
-0.00746046
-0.00736419
-0.00726872
-0.00717408
-0.00708034
-0.00698755
-0.00689575
-0.00680499
-0.00671532
-0.00662679
-0.00653943
-0.0064533
-0.00636843
-0.00628487
-0.00620265
-0.00612181
-0.00604239
-0.00596442
-0.00588795
-0.00581299
-0.00573959
-0.00566778
-0.00559759
-0.00552904
-0.00546216
-0.00539699
-0.00533354
-0.00527184
-0.00521191
-0.00515378
-0.00509747
-0.005043
-0.00499039
-0.00493966
-0.00489082
-0.0048439
-0.0047989
-0.00475585
-0.00471476
-0.00467565
-0.00463852
-0.00460338
-0.00457026
-0.00453916
-0.00451008
-0.00448305
-0.00445806
-0.00443513
-0.00441426
-0.00439546
-0.00437873
-0.00436409
-0.00435153
-0.00434105
-0.00433267
-0.00432638
-0.00432219
-0.00432009
-5.35252e-05
-5.62377e-05
-6.16689e-05
-6.98132e-05
-8.06705e-05
-9.42403e-05
-0.000110521
-0.000129512
-0.000151211
-0.000175615
-0.000202724
-0.000232534
-0.000265042
-0.000300245
-0.000338139
-0.000378721
-0.000421985
-0.000467927
-0.00051654
-0.000567819
-0.000621756
-0.000678344
-0.000737575
-0.000799439
-0.000863926
-0.000931025
-0.00100073
-0.00107301
-0.00114787
-0.00122529
-0.00130526
-0.00138774
-0.00147274
-0.00156022
-0.00165016
-0.00174254
-0.00183735
-0.00193454
-0.0020341
-0.00213599
-0.00224018
-0.00234664
-0.00245533
-0.00256623
-0.00267928
-0.00279445
-0.00291169
-0.00303097
-0.00315222
-0.00327541
-0.00340048
-0.00352738
-0.00365605
-0.00378643
-0.00391847
-0.0040521
-0.00418725
-0.00432386
-0.00446185
-0.00460116
-0.00474172
-0.00488343
-0.00502624
-0.00517005
-0.00531478
-0.00546035
-0.00560667
-0.00575365
-0.00590121
-0.00604924
-0.00619766
-0.00634637
-0.00649527
-0.00664426
-0.00679325
-0.00694213
-0.0070908
-0.00723916
-0.00738711
-0.00753453
-0.00768133
-0.00782741
-0.00797264
-0.00811694
-0.00826019
-0.00840229
-0.00854313
-0.00868262
-0.00882064
-0.00895709
-0.00909188
-0.00922491
-0.00935606
-0.00948525
-0.00961239
-0.00973737
-0.0098601
-0.0099805
-0.0100985
-0.0102139
-0.0103268
-0.010437
-0.0105445
-0.0106491
-0.0107508
-0.0108496
-0.0109453
-0.0110379
-0.0111274
-0.0112137
-0.0112967
-0.0113764
-0.0114527
-0.0115256
-0.0115951
-0.0116611
-0.0117236
-0.0117825
-0.0118379
-0.0118897
-0.0119379
-0.0119825
-0.0120235
-0.0120608
-0.0120945
-0.0121246
-0.012151
-0.0121738
-0.0121929
-0.0122085
-0.0122205
-0.0122289
-0.0122337
-0.0122351
-0.0122329
-0.0122273
-0.0122182
-0.0122058
-0.01219
-0.0121709
-0.0121485
-0.0121229
-0.0120941
-0.0120622
-0.0120272
-0.0119892
-0.0119483
-0.0119044
-0.0118577
-0.0118082
-0.011756
-0.0117011
-0.0116437
-0.0115837
-0.0115213
-0.0114565
-0.0113894
-0.0113201
-0.0112485
-0.0111749
-0.0110993
-0.0110217
-0.0109423
-0.0108611
-0.0107781
-0.0106935
-0.0106074
-0.0105197
-0.0104307
-0.0103403
-0.0102486
-0.0101558
-0.0100619
-0.00996696
-0.00987107
-0.00977431
-0.00967676
-0.00957848
-0.00947956
-0.00938007
-0.00928008
-0.00917967
-0.0090789
-0.00897786
-0.00887661
-0.00877522
-0.00867377
-0.00857231
-0.00847092
-0.00836967
-0.00826861
-0.00816782
-0.00806736
-0.00796728
-0.00786766
-0.00776855
-0.00767001
-0.0075721
-0.00747487
-0.00737838
-0.00728269
-0.00718784
-0.00709389
-0.0070009
-0.0069089
-0.00681795
-0.00672809
-0.00663937
-0.00655184
-0.00646553
-0.00638049
-0.00629677
-0.00621438
-0.00613339
-0.00605382
-0.00597571
-0.00589909
-0.00582401
-0.00575048
-0.00567854
-0.00560822
-0.00553955
-0.00547257
-0.00540728
-0.00534373
-0.00528193
-0.0052219
-0.00516368
-0.00510729
-0.00505273
-0.00500004
-0.00494923
-0.00490032
-0.00485333
-0.00480827
-0.00476516
-0.00472401
-0.00468484
-0.00464765
-0.00461247
-0.0045793
-0.00454816
-0.00451905
-0.00449197
-0.00446695
-0.00444399
-0.0044231
-0.00440427
-0.00438753
-0.00437286
-0.00436028
-0.0043498
-0.0043414
-0.0043351
-0.0043309
-0.00432881
-6.69285e-05
-6.96388e-05
-7.50659e-05
-8.32041e-05
-9.40535e-05
-0.000107613
-0.000123883
-0.00014286
-0.000164545
-0.000188933
-0.000216024
-0.000245815
-0.000278304
-0.000313486
-0.000351359
-0.000391919
-0.00043516
-0.000481079
-0.000529669
-0.000580925
-0.00063484
-0.000691405
-0.000750614
-0.000812458
-0.000876925
-0.000944007
-0.00101369
-0.00108596
-0.00116081
-0.00123822
-0.00131818
-0.00140066
-0.00148565
-0.00157314
-0.00166309
-0.00175548
-0.0018503
-0.00194752
-0.0020471
-0.00214902
-0.00225325
-0.00235975
-0.0024685
-0.00257945
-0.00269256
-0.0028078
-0.00292512
-0.00304448
-0.00316582
-0.00328911
-0.00341429
-0.00354131
-0.0036701
-0.00380062
-0.0039328
-0.00406658
-0.00420189
-0.00433867
-0.00447684
-0.00461634
-0.00475709
-0.00489902
-0.00504204
-0.00518607
-0.00533104
-0.00547685
-0.00562342
-0.00577067
-0.00591849
-0.0060668
-0.00621551
-0.00636451
-0.00651371
-0.00666301
-0.00681232
-0.00696152
-0.00711052
-0.00725921
-0.00740749
-0.00755526
-0.00770241
-0.00784883
-0.00799443
-0.00813908
-0.00828269
-0.00842515
-0.00856636
-0.0087062
-0.00884459
-0.00898141
-0.00911656
-0.00924994
-0.00938146
-0.009511
-0.00963849
-0.00976382
-0.00988689
-0.0100076
-0.0101259
-0.0102417
-0.0103549
-0.0104654
-0.0105732
-0.0106781
-0.0107801
-0.0108792
-0.0109752
-0.0110681
-0.0111578
-0.0112443
-0.0113275
-0.0114074
-0.011484
-0.0115571
-0.0116267
-0.0116929
-0.0117556
-0.0118147
-0.0118702
-0.0119221
-0.0119704
-0.0120151
-0.0120562
-0.0120936
-0.0121273
-0.0121574
-0.0121839
-0.0122067
-0.0122259
-0.0122414
-0.0122534
-0.0122618
-0.0122666
-0.0122679
-0.0122656
-0.0122599
-0.0122508
-0.0122383
-0.0122223
-0.0122031
-0.0121806
-0.0121548
-0.0121259
-0.0120938
-0.0120587
-0.0120205
-0.0119794
-0.0119353
-0.0118884
-0.0118387
-0.0117863
-0.0117312
-0.0116735
-0.0116133
-0.0115506
-0.0114856
-0.0114182
-0.0113486
-0.0112768
-0.0112029
-0.011127
-0.0110491
-0.0109694
-0.0108878
-0.0108046
-0.0107197
-0.0106332
-0.0105453
-0.0104559
-0.0103652
-0.0102732
-0.0101801
-0.0100859
-0.00999061
-0.0098944
-0.00979732
-0.00969944
-0.00960084
-0.0095016
-0.00940179
-0.00930149
-0.00920076
-0.00909969
-0.00899834
-0.00889678