/*--------------------------------*- C++ -*----------------------------------*\
| =========                 |                                                 |
| \\      /  F ield         | OpenFOAM: The Open Source CFD Toolbox           |
|  \\    /   O peration     | Version:  v2012                                 |
|   \\  /    A nd           | Website:  www.openfoam.com                      |
|    \\/     M anipulation  |                                                 |
\*---------------------------------------------------------------------------*/
FoamFile
{
    version     2.0;
    format      ascii;
    class       surfaceScalarField;
    location    "3.5";
    object      phi;
}
// * * * * * * * * * * * * * * * * * * * * * * * * * * * * * * * * * * * * * //

dimensions      [0 3 -1 0 0 0 0];
oriented        oriented;


internalField   nonuniform List<scalar> 
130560
(
3.55749e-06
-3.55749e-06
7.1148e-06
-3.55731e-06
1.06717e-05
-3.55691e-06
1.4228e-05
-3.55633e-06
1.77836e-05
-3.55554e-06
2.13381e-05
-3.55454e-06
2.48914e-05
-3.55332e-06
2.84433e-05
-3.5519e-06
3.19936e-05
-3.55026e-06
3.5542e-05
-3.5484e-06
3.90883e-05
-3.54631e-06
4.26323e-05
-3.54399e-06
4.61737e-05
-3.54144e-06
4.97124e-05
-3.53864e-06
5.3248e-05
-3.53558e-06
5.67802e-05
-3.53227e-06
6.03089e-05
-3.52869e-06
6.38338e-05
-3.52484e-06
6.73545e-05
-3.52069e-06
7.08707e-05
-3.51625e-06
7.43822e-05
-3.5115e-06
7.78887e-05
-3.50644e-06
8.13897e-05
-3.50104e-06
8.4885e-05
-3.49531e-06
8.83742e-05
-3.48922e-06
9.1857e-05
-3.48276e-06
9.53329e-05
-3.47593e-06
9.88016e-05
-3.4687e-06
0.000102263
-3.46107e-06
0.000105716
-3.45302e-06
0.00010916
-3.44454e-06
0.000112596
-3.4356e-06
0.000116022
-3.42621e-06
0.000119438
-3.41634e-06
0.000122844
-3.40597e-06
0.000126239
-3.3951e-06
0.000129623
-3.38371e-06
0.000132995
-3.37177e-06
0.000136354
-3.35929e-06
0.0001397
-3.34623e-06
0.000143033
-3.33259e-06
0.000146351
-3.31835e-06
0.000149655
-3.3035e-06
0.000152943
-3.28801e-06
0.000156215
-3.27188e-06
0.00015947
-3.25509e-06
0.000162708
-3.23763e-06
0.000165927
-3.21948e-06
0.000169128
-3.20063e-06
0.000172309
-3.18106e-06
0.000175469
-3.16077e-06
0.000178609
-3.13973e-06
0.000181727
-3.11794e-06
0.000184822
-3.09538e-06
0.000187895
-3.07204e-06
0.000190942
-3.04792e-06
0.000193965
-3.02299e-06
0.000196963
-2.99726e-06
0.000199933
-2.97072e-06
0.000202877
-2.94336e-06
0.000205792
-2.91516e-06
0.000208678
-2.88613e-06
0.000211534
-2.85626e-06
0.00021436
-2.82554e-06
0.000217154
-2.79398e-06
0.000219915
-2.76156e-06
0.000222644
-2.72828e-06
0.000225338
-2.69416e-06
0.000227997
-2.65918e-06
0.00023062
-2.62335e-06
0.000233207
-2.58667e-06
0.000235756
-2.54915e-06
0.000238267
-2.51078e-06
0.000240739
-2.47158e-06
0.00024317
-2.43155e-06
0.000245561
-2.3907e-06
0.00024791
-2.34904e-06
0.000250216
-2.30658e-06
0.00025248
-2.26333e-06
0.000254699
-2.2193e-06
0.000256874
-2.17451e-06
0.000259003
-2.12897e-06
0.000261085
-2.0827e-06
0.000263121
-2.03572e-06
0.000265109
-1.98805e-06
0.000267049
-1.93969e-06
0.000268939
-1.89068e-06
0.00027078
-1.84102e-06
0.000272571
-1.79075e-06
0.000274311
-1.73989e-06
0.000275999
-1.68845e-06
0.000277636
-1.63646e-06
0.00027922
-1.58396e-06
0.000280751
-1.53096e-06
0.000282228
-1.47748e-06
0.000283652
-1.42357e-06
0.000285021
-1.36924e-06
0.000286336
-1.31452e-06
0.000287595
-1.25944e-06
0.000288799
-1.20403e-06
0.000289947
-1.14831e-06
0.00029104
-1.09232e-06
0.000292076
-1.03608e-06
0.000293056
-9.7963e-07
0.000293978
-9.22988e-07
0.000294845
-8.66187e-07
0.000295654
-8.09256e-07
0.000296406
-7.52224e-07
0.000297101
-6.95122e-07
0.000297739
-6.37979e-07
0.00029832
-5.80824e-07
0.000298844
-5.23685e-07
0.00029931
-4.66591e-07
0.00029972
-4.09568e-07
0.000300073
-3.52644e-07
0.000300368
-2.95843e-07
0.000300608
-2.39193e-07
0.00030079
-1.82717e-07
0.000300917
-1.2644e-07
0.000300987
-7.03871e-08
0.000301002
-1.45822e-08
0.000300961
4.09522e-08
0.000300865
9.6194e-08
0.000300713
1.51121e-07
0.000300508
2.05714e-07
0.000300248
2.59952e-07
0.000299934
3.13817e-07
0.000299567
3.67291e-07
0.000299146
4.20356e-07
0.000298673
4.72994e-07
0.000298148
5.25188e-07
0.000297571
5.76924e-07
0.000296943
6.28186e-07
0.000296264
6.78961e-07
0.000295535
7.29239e-07
0.000294756
7.79007e-07
0.000293928
8.28256e-07
0.000293051
8.76975e-07
0.000292125
9.25153e-07
0.000291153
9.72783e-07
0.000290133
1.01985e-06
0.000289066
1.06636e-06
0.000287954
1.11229e-06
0.000286797
1.15764e-06
0.000285594
1.2024e-06
0.000284348
1.24657e-06
0.000283057
1.29015e-06
0.000281724
1.33313e-06
0.000280349
1.37551e-06
0.000278932
1.41728e-06
0.000277473
1.45845e-06
0.000275974
1.49901e-06
0.000274435
1.53896e-06
0.000272857
1.5783e-06
0.00027124
1.61703e-06
0.000269585
1.65514e-06
0.000267892
1.69265e-06
0.000266162
1.72955e-06
0.000264397
1.76584e-06
0.000262595
1.80152e-06
0.000260758
1.8366e-06
0.000258887
1.87106e-06
0.000256982
1.90493e-06
0.000255044
1.93818e-06
0.000253073
1.97084e-06
0.000251071
2.0029e-06
0.000249036
2.03437e-06
0.000246971
2.06525e-06
0.000244875
2.09555e-06
0.00024275
2.12526e-06
0.000240596
2.1544e-06
0.000238413
2.18295e-06
0.000236202
2.21094e-06
0.000233963
2.23836e-06
0.000231698
2.26521e-06
0.000229407
2.2915e-06
0.000227089
2.31724e-06
0.000224747
2.34243e-06
0.00022238
2.36708e-06
0.000219989
2.39118e-06
0.000217574
2.41475e-06
0.000215136
2.43779e-06
0.000212676
2.46031e-06
0.000210194
2.4823e-06
0.00020769
2.50378e-06
0.000205165
2.52475e-06
0.00020262
2.54521e-06
0.000200055
2.56518e-06
0.00019747
2.58465e-06
0.000194866
2.60363e-06
0.000192244
2.62214e-06
0.000189604
2.64016e-06
0.000186946
2.65772e-06
0.000184272
2.67482e-06
0.00018158
2.69146e-06
0.000178872
2.70765e-06
0.000176149
2.7234e-06
0.00017341
2.7387e-06
0.000170657
2.75357e-06
0.000167889
2.76802e-06
0.000165107
2.78205e-06
0.000162311
2.79566e-06
0.000159502
2.80887e-06
0.000156681
2.82168e-06
0.000153846
2.8341e-06
0.000151
2.84613e-06
0.000148143
2.85778e-06
0.000145273
2.86906e-06
0.000142393
2.87997e-06
0.000139503
2.89052e-06
0.000136602
2.90072e-06
0.000133692
2.91058e-06
0.000130772
2.92009e-06
0.000127842
2.92928e-06
0.000124904
2.93814e-06
0.000121957
2.94668e-06
0.000119003
2.95491e-06
0.00011604
2.96284e-06
0.000113069
2.97046e-06
0.000110091
2.97779e-06
0.000107107
2.98484e-06
0.000104115
2.99161e-06
0.000101117
2.99811e-06
9.81126e-05
3.00434e-06
9.51023e-05
3.01031e-06
9.20862e-05
3.01602e-06
8.90648e-05
3.02149e-06
8.6038e-05
3.02671e-06
8.30063e-05
3.0317e-06
7.99699e-05
3.03646e-06
7.69289e-05
3.04099e-06
7.38836e-05
3.0453e-06
7.08342e-05
3.04939e-06
6.77809e-05
3.05327e-06
6.4724e-05
3.05695e-06
6.16636e-05
3.06043e-06
5.85998e-05
3.06371e-06
5.5533e-05
3.0668e-06
5.24633e-05
3.0697e-06
4.93909e-05
3.07242e-06
4.6316e-05
3.07496e-06
4.32386e-05
3.07732e-06
4.01591e-05
3.07951e-06
3.70776e-05
3.08153e-06
3.39942e-05
3.08338e-06
3.09091e-05
3.08507e-06
2.78225e-05
3.0866e-06
2.47346e-05
3.08797e-06
2.16454e-05
3.08918e-06
1.85552e-05
3.09024e-06
1.5464e-05
3.09115e-06
1.23721e-05
3.0919e-06
9.27961e-06
3.0925e-06
6.18665e-06
3.09295e-06
3.0934e-06
3.09325e-06
3.0934e-06
3.55768e-06
-7.11517e-06
7.11519e-06
-7.11481e-06
1.06723e-05
-7.11403e-06
1.42288e-05
-7.11286e-06
1.77846e-05
-7.11128e-06
2.13393e-05
-7.10928e-06
2.48929e-05
-7.10687e-06
2.8445e-05
-7.10402e-06
3.19955e-05
-7.10075e-06
3.55441e-05
-7.09703e-06
3.90907e-05
-7.09286e-06
4.26349e-05
-7.08823e-06
4.61766e-05
-7.08312e-06
4.97155e-05
-7.07753e-06
5.32513e-05
-7.07143e-06
5.67839e-05
-7.06482e-06
6.03129e-05
-7.05767e-06
6.3838e-05
-7.04997e-06
6.7359e-05
-7.04169e-06
7.08755e-05
-7.03282e-06
7.43874e-05
-7.02333e-06
7.78941e-05
-7.01321e-06
8.13955e-05
-7.00243e-06
8.48912e-05
-6.99097e-06
8.83808e-05
-6.9788e-06
9.18639e-05
-6.96591e-06
9.53403e-05
-6.95225e-06
9.88094e-05
-6.93781e-06
0.000102271
-6.92256e-06
0.000105724
-6.90648e-06
0.000109169
-6.88952e-06
0.000112605
-6.87167e-06
0.000116032
-6.8529e-06
0.000119449
-6.83317e-06
0.000122855
-6.81246e-06
0.000126251
-6.79073e-06
0.000129635
-6.76796e-06
0.000133008
-6.74411e-06
0.000136367
-6.71915e-06
0.000139714
-6.69305e-06
0.000143047
-6.66579e-06
0.000146366
-6.63732e-06
0.000149671
-6.60762e-06
0.000152959
-6.57667e-06
0.000156232
-6.54442e-06
0.000159488
-6.51086e-06
0.000162726
-6.47595e-06
0.000165946
-6.43967e-06
0.000169147
-6.40198e-06
0.000172329
-6.36286e-06
0.000175491
-6.32228e-06
0.000178631
-6.28022e-06
0.00018175
-6.23664e-06
0.000184846
-6.19154e-06
0.000187919
-6.14487e-06
0.000190968
-6.09663e-06
0.000193991
-6.0468e-06
0.000196989
-5.99535e-06
0.000199961
-5.94227e-06
0.000202905
-5.88755e-06
0.000205821
-5.83116e-06
0.000208708
-5.77311e-06
0.000211565
-5.71337e-06
0.000214392
-5.65194e-06
0.000217187
-5.58881e-06
0.000219949
-5.52397e-06
0.000222678
-5.45743e-06
0.000225373
-5.38917e-06
0.000228033
-5.31921e-06
0.000230657
-5.24755e-06
0.000233245
-5.17419e-06
0.000235795
-5.09914e-06
0.000238306
-5.0224e-06
0.000240779
-4.94399e-06
0.000243211
-4.86393e-06
0.000245603
-4.78222e-06
0.000247953
-4.69888e-06
0.00025026
-4.61394e-06
0.000252524
-4.52743e-06
0.000254744
-4.43936e-06
0.000256919
-4.34976e-06
0.000259049
-4.25868e-06
0.000261133
-4.16613e-06
0.000263169
-4.07215e-06
0.000265158
-3.97677e-06
0.000267098
-3.88004e-06
0.000268989
-3.78199e-06
0.000270831
-3.68267e-06
0.000272622
-3.5821e-06
0.000274363
-3.48034e-06
0.000276052
-3.37744e-06
0.000277689
-3.27345e-06
0.000279273
-3.16841e-06
0.000280805
-3.06238e-06
0.000282283
-2.95542e-06
0.000283707
-2.84756e-06
0.000285076
-2.73887e-06
0.000286391
-2.62941e-06
0.000287651
-2.51922e-06
0.000288855
-2.40837e-06
0.000290004
-2.2969e-06
0.000291096
-2.18489e-06
0.000292133
-2.07239e-06
0.000293113
-1.95945e-06
0.000294036
-1.84614e-06
0.000294902
-1.7325e-06
0.000295711
-1.61861e-06
0.000296464
-1.50452e-06
0.000297159
-1.39029e-06
0.000297797
-1.27597e-06
0.000298378
-1.16164e-06
0.000298901
-1.04733e-06
0.000299368
-9.33113e-07
0.000299777
-8.19041e-07
0.00030013
-7.05165e-07
0.000300425
-5.91538e-07
0.000300664
-4.78211e-07
0.000300847
-3.65234e-07
0.000300973
-2.52657e-07
0.000301043
-1.40527e-07
0.000301058
-2.88941e-08
0.000301016
8.21971e-08
0.00030092
1.92702e-07
0.000300768
3.02577e-07
0.000300562
4.11782e-07
0.000300302
5.20277e-07
0.000299988
6.28026e-07
0.00029962
7.34991e-07
0.000299199
8.41136e-07
0.000298726
9.46428e-07
0.0002982
1.05083e-06
0.000297623
1.15432e-06
0.000296994
1.25685e-06
0.000296315
1.35842e-06
0.000295585
1.45899e-06
0.000294806
1.55854e-06
0.000293977
1.65704e-06
0.000293099
1.75449e-06
0.000292173
1.85086e-06
0.0002912
1.94612e-06
0.00029018
2.04027e-06
0.000289113
2.13329e-06
0.000288
2.22515e-06
0.000286842
2.31586e-06
0.000285639
2.40539e-06
0.000284392
2.49374e-06
0.000283101
2.5809e-06
0.000281767
2.66686e-06
0.000280391
2.75162e-06
0.000278973
2.83518e-06
0.000277514
2.91752e-06
0.000276014
2.99864e-06
0.000274475
3.07854e-06
0.000272896
3.15721e-06
0.000271278
3.23467e-06
0.000269623
3.3109e-06
0.000267929
3.38591e-06
0.000266199
3.45971e-06
0.000264433
3.53229e-06
0.00026263
3.60365e-06
0.000260793
3.6738e-06
0.000258922
3.74273e-06
0.000257016
3.81045e-06
0.000255077
3.87697e-06
0.000253106
3.94228e-06
0.000251102
4.0064e-06
0.000249067
4.06934e-06
0.000247002
4.1311e-06
0.000244905
4.19168e-06
0.00024278
4.2511e-06
0.000240625
4.30937e-06
0.000238441
4.36648e-06
0.00023623
4.42245e-06
0.000233991
4.47728e-06
0.000231725
4.53098e-06
0.000229433
4.58357e-06
0.000227115
4.63504e-06
0.000224772
4.68542e-06
0.000222404
4.7347e-06
0.000220013
4.78291e-06
0.000217597
4.83004e-06
0.000215159
4.87611e-06
0.000212698
4.92114e-06
0.000210215
4.96512e-06
0.000207711
5.00807e-06
0.000205186
5.05e-06
0.00020264
5.09092e-06
0.000200075
5.13085e-06
0.000197489
5.16979e-06
0.000194885
5.20775e-06
0.000192263
5.24475e-06
0.000189622
5.2808e-06
0.000186964
5.31592e-06
0.000184289
5.3501e-06
0.000181597
5.38338e-06
0.000178889
5.41575e-06
0.000176165
5.44723e-06
0.000173426
5.47784e-06
0.000170672
5.50758e-06
0.000167903
5.53647e-06
0.000165121
5.56452e-06
0.000162325
5.59174e-06
0.000159515
5.61815e-06
0.000156693
5.64376e-06
0.000153859
5.66859e-06
0.000151012
5.69264e-06
0.000148154
5.71594e-06
0.000145285
5.73848e-06
0.000142404
5.7603e-06
0.000139513
5.7814e-06
0.000136612
5.80179e-06
0.000133701
5.82149e-06
0.000130781
5.84052e-06
0.000127851
5.85889e-06
0.000124913
5.8766e-06
0.000121966
5.89368e-06
0.000119011
5.91013e-06
0.000116048
5.92598e-06
0.000113077
5.94122e-06
0.000110099
5.95588e-06
0.000107114
5.96997e-06
0.000104122
5.9835e-06
0.000101123
5.99648e-06
9.81187e-05
6.00894e-06
9.51081e-05
6.02087e-06
9.20919e-05
6.0323e-06
8.90701e-05
6.04323e-06
8.60432e-05
6.05367e-06
8.30112e-05
6.06364e-06
7.99745e-05
6.07314e-06
7.69333e-05
6.0822e-06
7.38878e-05
6.09081e-06
7.08382e-05
6.099e-06
6.77847e-05
6.10676e-06
6.47276e-05
6.11411e-06
6.16669e-05
6.12106e-06
5.8603e-05
6.12762e-06
5.5536e-05
6.13379e-06
5.24661e-05
6.13959e-06
4.93935e-05
6.14503e-06
4.63184e-05
6.1501e-06
4.32409e-05
6.15482e-06
4.01612e-05
6.1592e-06
3.70795e-05
6.16323e-06
3.3996e-05
6.16694e-06
3.09107e-05
6.17031e-06
2.7824e-05
6.17337e-06
2.47358e-05
6.1761e-06
2.16465e-05
6.17853e-06
1.85561e-05
6.18064e-06
1.54648e-05
6.18245e-06
1.23727e-05
6.18395e-06
9.28007e-06
6.18515e-06
6.18696e-06
6.18606e-06
3.09356e-06
6.18666e-06
6.18696e-06
3.55811e-06
-1.06733e-05
7.11601e-06
-1.06727e-05
1.06735e-05
-1.06716e-05
1.42305e-05
-1.06698e-05
1.77866e-05
-1.06674e-05
2.13418e-05
-1.06645e-05
2.48958e-05
-1.06608e-05
2.84483e-05
-1.06566e-05
3.19993e-05
-1.06517e-05
3.55484e-05
-1.06461e-05
3.90954e-05
-1.06399e-05
4.26401e-05
-1.06329e-05
4.61823e-05
-1.06253e-05
4.97217e-05
-1.06169e-05
5.32581e-05
-1.06078e-05
5.67912e-05
-1.05979e-05
6.03207e-05
-1.05872e-05
6.38464e-05
-1.05757e-05
6.7368e-05
-1.05633e-05
7.08852e-05
-1.055e-05
7.43977e-05
-1.05358e-05
7.79051e-05
-1.05207e-05
8.14072e-05
-1.05045e-05
8.49036e-05
-1.04874e-05
8.83939e-05
-1.04691e-05
9.18778e-05
-1.04498e-05
9.53549e-05
-1.04294e-05
9.88249e-05
-1.04077e-05
0.000102287
-1.03849e-05
0.000105742
-1.03608e-05
0.000109187
-1.03354e-05
0.000112624
-1.03087e-05
0.000116052
-1.02806e-05
0.00011947
-1.0251e-05
0.000122877
-1.022e-05
0.000126274
-1.01874e-05
0.000129659
-1.01533e-05
0.000133033
-1.01176e-05
0.000136394
-1.00802e-05
0.000139742
-1.00411e-05
0.000143076
-1.00002e-05
0.000146397
-9.95753e-06
0.000149702
-9.91302e-06
0.000152992
-9.86663e-06
0.000156266
-9.8183e-06
0.000159523
-9.76799e-06
0.000162763
-9.71566e-06
0.000165984
-9.66127e-06
0.000169187
-9.60477e-06
0.00017237
-9.54612e-06
0.000175533
-9.48529e-06
0.000178675
-9.42222e-06
0.000181795
-9.35689e-06
0.000184893
-9.28926e-06
0.000187968
-9.21929e-06
0.000191018
-9.14695e-06
0.000194043
-9.07222e-06
0.000197043
-8.99507e-06
0.000200016
-8.91547e-06
0.000202962
-8.8334e-06
0.00020588
-8.74884e-06
0.000208768
-8.66177e-06
0.000211627
-8.57218e-06
0.000214455
-8.48004e-06
0.000217252
-8.38535e-06
0.000220016
-8.2881e-06
0.000222747
-8.18828e-06
0.000225444
-8.0859e-06
0.000228105
-7.98096e-06
0.000230731
-7.87346e-06
0.000233321
-7.76341e-06
0.000235872
-7.65081e-06
0.000238385
-7.5357e-06
0.00024086
-7.41807e-06
0.000243294
-7.29795e-06
0.000245687
-7.17536e-06
0.000248038
-7.05033e-06
0.000250347
-6.9229e-06
0.000252613
-6.79309e-06
0.000254834
-6.66095e-06
0.000257011
-6.52652e-06
0.000259142
-6.38985e-06
0.000261227
-6.25098e-06
0.000263265
-6.10997e-06
0.000265255
-5.96686e-06
0.000267197
-5.82172e-06
0.000269089
-5.67459e-06
0.000270932
-5.52554e-06
0.000272725
-5.37464e-06
0.000274466
-5.22195e-06
0.000276156
-5.06754e-06
0.000277795
-4.91149e-06
0.00027938
-4.75387e-06
0.000280912
-4.59476e-06
0.000282391
-4.43424e-06
0.000283816
-4.27239e-06
0.000285186
-4.10929e-06
0.000286502
-3.94502e-06
0.000287762
-3.77967e-06
0.000288967
-3.61331e-06
0.000290117
-3.44605e-06
0.00029121
-3.27796e-06
0.000292246
-3.10913e-06
0.000293227
-2.93965e-06
0.00029415
-2.7696e-06
0.000295017
-2.59908e-06
0.000295826
-2.42818e-06
0.000296579
-2.25697e-06
0.000297274
-2.08555e-06
0.000297912
-1.914e-06
0.000298493
-1.74242e-06
0.000299016
-1.57089e-06
0.000299483
-1.3995e-06
0.000299892
-1.22832e-06
0.000300244
-1.05744e-06
0.00030054
-8.86934e-07
0.000300778
-7.1688e-07
0.00030096
-5.47351e-07
0.000301086
-3.78424e-07
0.000301156
-2.10171e-07
0.00030117
-4.26636e-08
0.000301128
1.24029e-07
0.000301031
2.89839e-07
0.000300878
4.54704e-07
0.000300672
6.18561e-07
0.000300411
7.81352e-07
0.000300096
9.4302e-07
0.000299727
1.10351e-06
0.000299305
1.26277e-06
0.000298831
1.42074e-06
0.000298305
1.57739e-06
0.000297726
1.73265e-06
0.000297097
1.88649e-06
0.000296416
2.03887e-06
0.000295685
2.18975e-06
0.000294905
2.33911e-06
0.000294075
2.4869e-06
0.000293196
2.63309e-06
0.00029227
2.77767e-06
0.000291295
2.92059e-06
0.000290274
3.06183e-06
0.000289205
3.20137e-06
0.000288091
3.33918e-06
0.000286932
3.47525e-06
0.000285728
3.60956e-06
0.00028448
3.74209e-06
0.000283188
3.87284e-06
0.000281853
4.0018e-06
0.000280475
4.12895e-06
0.000279056
4.25429e-06
0.000277596
4.3778e-06
0.000276095
4.49949e-06
0.000274554
4.61934e-06
0.000272974
4.73736e-06
0.000271355
4.85354e-06
0.000269698
4.96788e-06
0.000268004
5.0804e-06
0.000266272
5.19109e-06
0.000264505
5.29996e-06
0.000262701
5.407e-06
0.000260863
5.51222e-06
0.00025899
5.61561e-06
0.000257083
5.71719e-06
0.000255143
5.81695e-06
0.000253171
5.91492e-06
0.000251166
6.01109e-06
0.00024913
6.10549e-06
0.000247063
6.19812e-06
0.000244966
6.28899e-06
0.000242839
6.37811e-06
0.000240682
6.4655e-06
0.000238498
6.55115e-06
0.000236285
6.6351e-06
0.000234045
6.71733e-06
0.000231778
6.79788e-06
0.000229485
6.87674e-06
0.000227166
6.95394e-06
0.000224822
7.0295e-06
0.000222453
7.10341e-06
0.00022006
7.17571e-06
0.000217644
7.2464e-06
0.000215205
7.31549e-06
0.000212743
7.38301e-06
0.000210259
7.44897e-06
0.000207754
7.51338e-06
0.000205227
7.57627e-06
0.000202681
7.63764e-06
0.000200114
7.69751e-06
0.000197528
7.75591e-06
0.000194923
7.81284e-06
0.000192299
7.86833e-06
0.000189658
7.92239e-06
0.000186999
7.97504e-06
0.000184322
8.02631e-06
0.00018163
8.0762e-06
0.000178921
8.12474e-06
0.000176196
8.17195e-06
0.000173456
8.21785e-06
0.000170701
8.26244e-06
0.000167932
8.30576e-06
0.000165148
8.34782e-06
0.000162351
8.38864e-06
0.000159541
8.42824e-06
0.000156718
8.46664e-06
0.000153883
8.50386e-06
0.000151036
8.53993e-06
0.000148177
8.57485e-06
0.000145307
8.60865e-06
0.000142426
8.64136e-06
0.000139534
8.67299e-06
0.000136632
8.70356e-06
0.000133721
8.7331e-06
0.0001308
8.76163e-06
0.000127869
8.78916e-06
0.00012493
8.81571e-06
0.000121983
8.84131e-06
0.000119027
8.86598e-06
0.000116063
8.88972e-06
0.000113092
8.91257e-06
0.000110113
8.93455e-06
0.000107127
8.95566e-06
0.000104135
8.97594e-06
0.000101136
8.99541e-06
9.81309e-05
9.01407e-06
9.51198e-05
9.03196e-06
9.21031e-05
9.04908e-06
8.90808e-05
9.06546e-06
8.60534e-05
9.08111e-06
8.3021e-05
9.09605e-06
7.99838e-05
9.11029e-06
7.69422e-05
9.12386e-06
7.38962e-05
9.13677e-06
7.08462e-05
9.14903e-06
6.77923e-05
9.16066e-06
6.47347e-05
9.17168e-06
6.16737e-05
9.18209e-06
5.86094e-05
9.19192e-06
5.5542e-05
9.20117e-06
5.24717e-05
9.20986e-06
4.93987e-05
9.218e-06
4.63232e-05
9.2256e-06
4.32454e-05
9.23267e-06
4.01654e-05
9.23923e-06
3.70833e-05
9.24528e-06
3.39994e-05
9.25083e-06
3.09139e-05
9.25588e-06
2.78268e-05
9.26046e-06
2.47383e-05
9.26456e-06
2.16486e-05
9.26819e-06
1.85579e-05
9.27135e-06
1.54663e-05
9.27406e-06
1.23739e-05
9.27632e-06
9.28099e-06
9.27812e-06
6.18757e-06
9.27947e-06
3.09386e-06
9.28037e-06
9.28082e-06
3.55871e-06
-1.4232e-05
7.11724e-06
-1.42312e-05
1.06754e-05
-1.42297e-05
1.42329e-05
-1.42274e-05
1.77897e-05
-1.42242e-05
2.13455e-05
-1.42202e-05
2.49001e-05
-1.42154e-05
2.84533e-05
-1.42098e-05
3.2005e-05
-1.42033e-05
3.55547e-05
-1.41959e-05
3.91025e-05
-1.41876e-05
4.26479e-05
-1.41784e-05
4.61908e-05
-1.41682e-05
4.9731e-05
-1.41571e-05
5.32682e-05
-1.4145e-05
5.68021e-05
-1.41318e-05
6.03325e-05
-1.41176e-05
6.38591e-05
-1.41023e-05
6.73816e-05
-1.40858e-05
7.08997e-05
-1.40681e-05
7.44131e-05
-1.40492e-05
7.79216e-05
-1.40291e-05
8.14247e-05
-1.40076e-05
8.49221e-05
-1.39848e-05
8.84136e-05
-1.39606e-05
9.18986e-05
-1.39349e-05
9.53769e-05
-1.39077e-05
9.88481e-05
-1.38789e-05
0.000102312
-1.38485e-05
0.000105767
-1.38165e-05
0.000109215
-1.37827e-05
0.000112653
-1.37471e-05
0.000116082
-1.37096e-05
0.000119501
-1.36703e-05
0.00012291
-1.3629e-05
0.000126309
-1.35857e-05
0.000129696
-1.35403e-05
0.000133071
-1.34927e-05
0.000136434
-1.34429e-05
0.000139783
-1.33908e-05
0.000143119
-1.33364e-05
0.000146442
-1.32796e-05
0.000149749
-1.32203e-05
0.000153041
-1.31585e-05
0.000156317
-1.30942e-05
0.000159576
-1.30272e-05
0.000162818
-1.29574e-05
0.000166041
-1.2885e-05
0.000169246
-1.28097e-05
0.000172432
-1.27316e-05
0.000175597
-1.26505e-05
0.000178741
-1.25665e-05
0.000181864
-1.24794e-05
0.000184964
-1.23893e-05
0.000188041
-1.22961e-05
0.000191093
-1.21997e-05
0.000194121
-1.21001e-05
0.000197123
-1.19972e-05
0.000200099
-1.18912e-05
0.000203047
-1.17818e-05
0.000205968
-1.1669e-05
0.000208859
-1.1553e-05
0.00021172
-1.14335e-05
0.000214551
-1.13107e-05
0.00021735
-1.11845e-05
0.000220117
-1.10548e-05
0.00022285
-1.09217e-05
0.000225549
-1.07852e-05
0.000228214
-1.06453e-05
0.000230842
-1.05019e-05
0.000233434
-1.03552e-05
0.000235988
-1.0205e-05
0.000238504
-1.00515e-05
0.000240981
-9.89464e-06
0.000243417
-9.73444e-06
0.000245813
-9.57094e-06
0.000248166
-9.40419e-06
0.000250478
-9.23422e-06
0.000252746
-9.06109e-06
0.00025497
-8.88484e-06
0.000257149
-8.70553e-06
0.000259282
-8.52323e-06
0.000261369
-8.33799e-06
0.000263409
-8.14989e-06
0.000265401
-7.959e-06
0.000267345
-7.76538e-06
0.000269239
-7.56911e-06
0.000271084
-7.37028e-06
0.000272878
-7.16897e-06
0.000274622
-6.96528e-06
0.000276313
-6.75928e-06
0.000277953
-6.5511e-06
0.00027954
-6.34082e-06
0.000281074
-6.12856e-06
0.000282554
-5.91441e-06
0.00028398
-5.69848e-06
0.000285352
-5.48088e-06
0.000286668
-5.26172e-06
0.00028793
-5.04111e-06
0.000289136
-4.81918e-06
0.000290286
-4.59602e-06
0.000291379
-4.37176e-06
0.000292417
-4.14652e-06
0.000293398
-3.92041e-06
0.000294322
-3.69355e-06
0.000295189
-3.46605e-06
0.000295998
-3.23804e-06
0.000296751
-3.00963e-06
0.000297446
-2.78093e-06
0.000298085
-2.55207e-06
0.000298665
-2.32317e-06
0.000299189
-2.09433e-06
0.000299655
-1.86568e-06
0.000300064
-1.63731e-06
0.000300416
-1.40935e-06
0.000300711
-1.18188e-06
0.000300949
-9.55021e-07
0.00030113
-7.28867e-07
0.000301255
-5.03517e-07
0.000301324
-2.79069e-07
0.000301337
-5.56185e-08
0.000301295
1.66742e-07
0.000301197
3.87923e-07
0.000301043
6.07839e-07
0.000300836
8.26408e-07
0.000300573
1.04355e-06
0.000300257
1.25919e-06
0.000299887
1.47326e-06
0.000299465
1.68568e-06
0.000298989
1.89639e-06
0.000298461
2.10531e-06
0.000297881
2.3124e-06
0.00029725
2.51758e-06
0.000296568
2.72082e-06
0.000295836
2.92205e-06
0.000295054
3.12124e-06
0.000294222
3.31835e-06
0.000293342
3.51332e-06
0.000292414
3.70613e-06
0.000291437
3.89673e-06
0.000290414
4.08509e-06
0.000289344
4.27117e-06
0.000288229
4.45495e-06
0.000287067
4.6364e-06
0.000285862
4.8155e-06
0.000284611
4.99224e-06
0.000283318
5.16659e-06
0.000281981
5.33855e-06
0.000280602
5.50809e-06
0.000279181
5.67522e-06
0.000277719
5.83992e-06
0.000276216
6.00217e-06
0.000274673
6.16198e-06
0.000273091
6.31934e-06
0.000271471
6.47425e-06
0.000269812
6.62671e-06
0.000268116
6.77673e-06
0.000266382
6.92432e-06
0.000264613
7.06947e-06
0.000262808
7.21218e-06
0.000260967
7.35246e-06
0.000259093
7.49031e-06
0.000257184
7.62573e-06
0.000255242
7.75874e-06
0.000253268
7.88935e-06
0.000251261
8.01757e-06
0.000249224
8.14341e-06
0.000247155
8.2669e-06
0.000245056
8.38804e-06
0.000242927
8.50686e-06
0.000240769
8.62336e-06
0.000238583
8.73755e-06
0.000236368
8.84945e-06
0.000234127
8.95908e-06
0.000231858
9.06646e-06
0.000229563
9.17159e-06
0.000227243
9.2745e-06
0.000224897
9.37522e-06
0.000222527
9.47375e-06
0.000220132
9.57012e-06
0.000217714
9.66435e-06
0.000215273
9.75646e-06
0.00021281
9.84646e-06
0.000210324
9.93438e-06
0.000207817
1.00202e-05
0.00020529
1.01041e-05
0.000202741
1.01859e-05
0.000200173
1.02657e-05
0.000197586
1.03435e-05
0.000194979
1.04194e-05
0.000192354
1.04933e-05
0.000189711
1.05654e-05
0.000187051
1.06356e-05
0.000184373
1.07039e-05
0.000181679
1.07704e-05
0.000178969
1.08351e-05
0.000176242
1.0898e-05
0.000173501
1.09592e-05
0.000170745
1.10186e-05
0.000167974
1.10763e-05
0.00016519
1.11324e-05
0.000162392
1.11868e-05
0.00015958
1.12395e-05
0.000156756
1.12907e-05
0.00015392
1.13403e-05
0.000151072
1.13884e-05
0.000148211
1.14349e-05
0.00014534
1.14799e-05
0.000142458
1.15235e-05
0.000139565
1.15656e-05
0.000136663
1.16064e-05
0.00013375
1.16457e-05
0.000130828
1.16837e-05
0.000127897
1.17204e-05
0.000124956
1.17558e-05
0.000122008
1.17899e-05
0.000119051
1.18227e-05
0.000116086
1.18544e-05
0.000113114
1.18848e-05
0.000110135
1.19141e-05
0.000107148
1.19422e-05
0.000104155
1.19692e-05
0.000101155
1.19951e-05
9.81492e-05
1.202e-05
9.51374e-05
1.20438e-05
9.21198e-05
1.20666e-05
8.90968e-05
1.20884e-05
8.60687e-05
1.21093e-05
8.30356e-05
1.21292e-05
7.99977e-05
1.21481e-05
7.69554e-05
1.21662e-05
7.39088e-05
1.21834e-05
7.08581e-05
1.21997e-05
6.78036e-05
1.22152e-05
6.47454e-05
1.22299e-05
6.16838e-05
1.22437e-05
5.86189e-05
1.22568e-05
5.55509e-05
1.22691e-05
5.24801e-05
1.22807e-05
4.94066e-05
1.22915e-05
4.63305e-05
1.23016e-05
4.32521e-05
1.23111e-05
4.01716e-05
1.23198e-05
3.7089e-05
1.23278e-05
3.40046e-05
1.23352e-05
3.09185e-05
1.2342e-05
2.7831e-05
1.2348e-05
2.4742e-05
1.23535e-05
2.16519e-05
1.23583e-05
1.85607e-05
1.23625e-05
1.54686e-05
1.23661e-05
1.23758e-05
1.23691e-05
9.28236e-06
1.23715e-05
6.18849e-06
1.23733e-05
3.09432e-06
1.23745e-05
1.23751e-05
3.55953e-06
-1.77915e-05
7.11887e-06
-1.77906e-05
1.06778e-05
-1.77887e-05
1.42362e-05
-1.77857e-05
1.77938e-05
-1.77818e-05
2.13505e-05
-1.77769e-05
2.49059e-05
-1.77709e-05
2.846e-05
-1.77639e-05
3.20125e-05
-1.77558e-05
3.55632e-05
-1.77466e-05
3.91119e-05
-1.77363e-05
4.26583e-05
-1.77248e-05
4.62022e-05
-1.77122e-05
4.97434e-05
-1.76983e-05
5.32816e-05
-1.76832e-05
5.68166e-05
-1.76668e-05
6.03481e-05
-1.76491e-05
6.38758e-05
-1.763e-05
6.73995e-05
-1.76095e-05
7.09189e-05
-1.75875e-05
7.44336e-05
-1.7564e-05
7.79434e-05
-1.75389e-05
8.14479e-05
-1.75121e-05
8.49468e-05
-1.74837e-05
8.84397e-05
-1.74535e-05
9.19263e-05
-1.74215e-05
9.54062e-05
-1.73876e-05
9.8879e-05
-1.73517e-05
0.000102344
-1.73138e-05
0.000105802
-1.72738e-05
0.000109251
-1.72317e-05
0.000112691
-1.71873e-05
0.000116122
-1.71407e-05
0.000119543
-1.70916e-05
0.000122954
-1.70401e-05
0.000126355
-1.6986e-05
0.000129744
-1.69294e-05
0.000133121
-1.687e-05
0.000136486
-1.68079e-05
0.000139838
-1.67429e-05
0.000143177
-1.6675e-05
0.000146502
-1.66041e-05
0.000149811
-1.65302e-05
0.000153106
-1.6453e-05
0.000156384
-1.63727e-05
0.000159646
-1.6289e-05
0.000162891
-1.6202e-05
0.000166117
-1.61115e-05
0.000169325
-1.60176e-05
0.000172514
-1.592e-05
0.000175682
-1.58188e-05
0.000178829
-1.57138e-05
0.000181955
-1.56051e-05
0.000185058
-1.54925e-05
0.000188138
-1.5376e-05
0.000191194
-1.52556e-05
0.000194225
-1.51312e-05
0.00019723
-1.50027e-05
0.000200209
-1.48701e-05
0.000203161
-1.47335e-05
0.000206085
-1.45926e-05
0.000208979
-1.44476e-05
0.000211844
-1.42983e-05
0.000214678
-1.41448e-05
0.000217481
-1.3987e-05
0.000220251
-1.38249e-05
0.000222988
-1.36586e-05
0.00022569
-1.34879e-05
0.000228358
-1.3313e-05
0.00023099
-1.31338e-05
0.000233585
-1.29503e-05
0.000236143
-1.27626e-05
0.000238662
-1.25707e-05
0.000241142
-1.23745e-05
0.000243582
-1.21742e-05
0.00024598
-1.19698e-05
0.000248338
-1.17613e-05
0.000250652
-1.15487e-05
0.000252923
-1.13322e-05
0.00025515
-1.11118e-05
0.000257332
-1.08876e-05
0.000259469
-1.06596e-05
0.000261558
-1.04279e-05
0.000263601
-1.01926e-05
0.000265596
-9.95386e-06
0.000267542
-9.71168e-06
0.000269439
-9.4662e-06
0.000271287
-9.2175e-06
0.000273083
-8.96569e-06
0.000274829
-8.7109e-06
0.000276523
-8.45323e-06
0.000278165
-8.19282e-06
0.000279754
-7.92978e-06
0.000281289
-7.66425e-06
0.000282771
-7.39636e-06
0.000284199
-7.12624e-06
0.000285572
-6.85404e-06
0.00028689
-6.57987e-06
0.000288153
-6.3039e-06
0.00028936
-6.02626e-06
0.000290511
-5.7471e-06
0.000291606
-5.46655e-06
0.000292644
-5.18478e-06
0.000293626
-4.90193e-06
0.00029455
-4.61813e-06
0.000295418
-4.33354e-06
0.000296228
-4.04831e-06
0.000296981
-3.76257e-06
0.000297677
-3.47649e-06
0.000298315
-3.1902e-06
0.000298895
-2.90386e-06
0.000299419
-2.6176e-06
0.000299885
-2.33157e-06
0.000300293
-2.04591e-06
0.000300645
-1.76075e-06
0.000300939
-1.47623e-06
0.000301176
-1.19246e-06
0.000301357
-9.09578e-07
0.000301481
-6.27708e-07
0.000301549
-3.46971e-07
0.000301561
-6.74854e-08
0.000301517
2.10632e-07
0.000301418
4.8727e-07
0.000301263
7.62321e-07
0.000301054
1.03568e-06
0.00030079
1.30725e-06
0.000300473
1.57694e-06
0.000300101
1.84465e-06
0.000299677
2.1103e-06
0.000299199
2.3738e-06
0.000298669
2.63507e-06
0.000298088
2.89403e-06
0.000297455
3.15062e-06
0.000296771
3.40476e-06
0.000296037
3.6564e-06
0.000295252
3.90547e-06
0.000294419
4.15193e-06
0.000293536
4.39573e-06
0.000292606
4.6368e-06
0.000291627
4.87511e-06
0.000290602
5.11062e-06
0.00028953
5.34327e-06
0.000288412
5.57304e-06
0.000287248
5.7999e-06
0.00028604
6.02382e-06
0.000284787
6.24477e-06
0.000283491
6.46274e-06
0.000282152
6.67771e-06
0.00028077
6.88967e-06
0.000279347
7.09859e-06
0.000277882
7.30448e-06
0.000276377
7.50731e-06
0.000274832
7.70708e-06
0.000273248
7.90378e-06
0.000271625
8.09742e-06
0.000269963
8.28799e-06
0.000268264
8.47552e-06
0.000266529
8.65999e-06
0.000264757
8.84142e-06
0.000262949
9.0198e-06
0.000261107
9.19513e-06
0.000259229
9.36743e-06
0.000257318
9.53669e-06
0.000255374
9.70293e-06
0.000253397
9.86617e-06
0.000251389
1.00264e-05
0.000249348
1.01837e-05
0.000247277
1.0338e-05
0.000245176
1.04894e-05
0.000243045
1.06379e-05
0.000240885
1.07835e-05
0.000238696
1.09262e-05
0.000236479
1.10661e-05
0.000234235
1.12031e-05
0.000231964
1.13373e-05
0.000229667
1.14687e-05
0.000227345