/*--------------------------------*- C++ -*----------------------------------*\
| =========                 |                                                 |
| \\      /  F ield         | OpenFOAM: The Open Source CFD Toolbox           |
|  \\    /   O peration     | Version:  v2012                                 |
|   \\  /    A nd           | Website:  www.openfoam.com                      |
|    \\/     M anipulation  |                                                 |
\*---------------------------------------------------------------------------*/
FoamFile
{
    version     2.0;
    format      ascii;
    class       volVectorField;
    location    "3.5";
    object      U;
}
// * * * * * * * * * * * * * * * * * * * * * * * * * * * * * * * * * * * * * //

dimensions      [0 1 -1 0 0 0 0];


internalField   nonuniform List<vector> 
65536
(
(0.000724717 -0.000724728 0)
(0.00217413 -0.000724696 0)
(0.00362348 -0.000724609 0)
(0.00507261 -0.000724487 0)
(0.00652144 -0.000724325 0)
(0.00796992 -0.00072412 0)
(0.00941794 -0.000723873 0)
(0.0108654 -0.000723583 0)
(0.0123123 -0.000723248 0)
(0.0137584 -0.000722869 0)
(0.0152038 -0.000722443 0)
(0.0166482 -0.000721971 0)
(0.0180917 -0.000721449 0)
(0.019534 -0.000720879 0)
(0.0209752 -0.000720257 0)
(0.0224151 -0.000719582 0)
(0.0238536 -0.000718852 0)
(0.0252905 -0.000718066 0)
(0.0267259 -0.000717221 0)
(0.0281595 -0.000716316 0)
(0.0295912 -0.000715348 0)
(0.0310209 -0.000714315 0)
(0.0324485 -0.000713216 0)
(0.0338738 -0.000712046 0)
(0.0352967 -0.000710805 0)
(0.0367171 -0.000709489 0)
(0.0381347 -0.000708096 0)
(0.0395495 -0.000706624 0)
(0.0409613 -0.000705068 0)
(0.0423698 -0.000703428 0)
(0.043775 -0.000701698 0)
(0.0451767 -0.000699878 0)
(0.0465746 -0.000697964 0)
(0.0479686 -0.000695952 0)
(0.0493585 -0.00069384 0)
(0.050744 -0.000691624 0)
(0.0521251 -0.000689302 0)
(0.0535013 -0.000686871 0)
(0.0548726 -0.000684326 0)
(0.0562387 -0.000681665 0)
(0.0575994 -0.000678886 0)
(0.0589543 -0.000675984 0)
(0.0603034 -0.000672957 0)
(0.0616463 -0.000669802 0)
(0.0629827 -0.000666515 0)
(0.0643124 -0.000663094 0)
(0.0656352 -0.000659536 0)
(0.0669507 -0.000655838 0)
(0.0682587 -0.000651997 0)
(0.0695588 -0.000648011 0)
(0.0708508 -0.000643875 0)
(0.0721344 -0.000639589 0)
(0.0734093 -0.000635149 0)
(0.0746751 -0.000630553 0)
(0.0759316 -0.000625798 0)
(0.0771784 -0.000620883 0)
(0.0784153 -0.000615805 0)
(0.0796418 -0.000610564 0)
(0.0808577 -0.000605156 0)
(0.0820626 -0.000599581 0)
(0.0832561 -0.000593837 0)
(0.084438 -0.000587923 0)
(0.0856079 -0.000581837 0)
(0.0867655 -0.00057558 0)
(0.0879104 -0.000569149 0)
(0.0890423 -0.000562544 0)
(0.0901607 -0.000555766 0)
(0.0912655 -0.000548814 0)
(0.0923561 -0.000541688 0)
(0.0934323 -0.000534389 0)
(0.0944938 -0.000526918 0)
(0.0955401 -0.000519274 0)
(0.096571 -0.000511459 0)
(0.0975861 -0.000503473 0)
(0.0985851 -0.000495319 0)
(0.0995675 -0.000486998 0)
(0.100533 -0.000478511 0)
(0.101482 -0.000469862 0)
(0.102413 -0.000461051 0)
(0.103326 -0.000452083 0)
(0.104221 -0.000442959 0)
(0.105098 -0.000433683 0)
(0.105956 -0.000424259 0)
(0.106795 -0.000414689 0)
(0.107615 -0.000404978 0)
(0.108415 -0.000395128 0)
(0.109195 -0.000385144 0)
(0.109956 -0.00037503 0)
(0.110696 -0.00036479 0)
(0.111415 -0.000354429 0)
(0.112113 -0.000343952 0)
(0.112791 -0.000333363 0)
(0.113447 -0.000322668 0)
(0.114082 -0.000311872 0)
(0.114695 -0.00030098 0)
(0.115286 -0.000289999 0)
(0.115855 -0.000278932 0)
(0.116401 -0.000267787 0)
(0.116926 -0.000256568 0)
(0.117428 -0.000245281 0)
(0.117907 -0.000233932 0)
(0.118363 -0.000222527 0)
(0.118797 -0.000211072 0)
(0.119208 -0.000199573 0)
(0.119595 -0.000188035 0)
(0.11996 -0.000176466 0)
(0.120301 -0.000164869 0)
(0.120619 -0.000153253 0)
(0.120914 -0.000141621 0)
(0.121186 -0.000129982 0)
(0.121434 -0.00011834 0)
(0.121659 -0.000106701 0)
(0.121861 -9.50714e-05 0)
(0.122039 -8.34564e-05 0)
(0.122194 -7.18613e-05 0)
(0.122327 -6.02915e-05 0)
(0.122436 -4.87521e-05 0)
(0.122521 -3.72482e-05 0)
(0.122584 -2.57849e-05 0)
(0.122625 -1.43672e-05 0)
(0.122642 -2.99989e-06 0)
(0.122636 8.31232e-06 0)
(0.122608 1.95649e-05 0)
(0.122558 3.07534e-05 0)
(0.122485 4.18738e-05 0)
(0.12239 5.29222e-05 0)
(0.122274 6.38946e-05 0)
(0.122135 7.47873e-05 0)
(0.121974 8.55967e-05 0)
(0.121792 9.63192e-05 0)
(0.121589 0.000106951 0)
(0.121364 0.00011749 0)
(0.121119 0.000127932 0)
(0.120852 0.000138276 0)
(0.120565 0.000148518 0)
(0.120258 0.000158656 0)
(0.119931 0.000168688 0)
(0.119583 0.000178612 0)
(0.119216 0.000188427 0)
(0.118829 0.000198129 0)
(0.118423 0.000207718 0)
(0.117998 0.000217192 0)
(0.117554 0.000226548 0)
(0.117092 0.000235786 0)
(0.116611 0.000244905 0)
(0.116112 0.000253904 0)
(0.115595 0.000262781 0)
(0.115061 0.000271537 0)
(0.114509 0.00028017 0)
(0.11394 0.000288681 0)
(0.113354 0.000297068 0)
(0.112752 0.00030533 0)
(0.112133 0.000313469 0)
(0.111497 0.000321483 0)
(0.110846 0.000329372 0)
(0.11018 0.000337137 0)
(0.109498 0.000344778 0)
(0.1088 0.000352295 0)
(0.108088 0.000359689 0)
(0.107362 0.000366958 0)
(0.10662 0.000374104 0)
(0.105865 0.000381126 0)
(0.105096 0.000388024 0)
(0.104313 0.000394799 0)
(0.103516 0.000401453 0)
(0.102707 0.000407985 0)
(0.101884 0.000414396 0)
(0.101049 0.000420687 0)
(0.100201 0.000426859 0)
(0.0993413 0.000432913 0)
(0.0984694 0.000438848 0)
(0.0975858 0.000444666 0)
(0.0966906 0.000450368 0)
(0.0957841 0.000455953 0)
(0.0948666 0.000461424 0)
(0.0939383 0.000466781 0)
(0.0929993 0.000472025 0)
(0.09205 0.000477157 0)
(0.0910905 0.000482178 0)
(0.0901211 0.000487089 0)
(0.089142 0.000491891 0)
(0.0881534 0.000496585 0)
(0.0871555 0.000501172 0)
(0.0861486 0.000505653 0)
(0.0851328 0.000510029 0)
(0.0841083 0.000514301 0)
(0.0830754 0.00051847 0)
(0.0820343 0.000522538 0)
(0.0809851 0.000526505 0)
(0.0799281 0.000530373 0)
(0.0788635 0.000534143 0)
(0.0777914 0.000537816 0)
(0.0767121 0.000541394 0)
(0.0756257 0.000544877 0)
(0.0745325 0.000548268 0)
(0.0734325 0.000551566 0)
(0.0723261 0.000554774 0)
(0.0712133 0.000557893 0)
(0.0700944 0.000560923 0)
(0.0689695 0.000563867 0)
(0.0678388 0.000566725 0)
(0.0667024 0.000569499 0)
(0.0655607 0.00057219 0)
(0.0644136 0.0005748 0)
(0.0632613 0.00057733 0)
(0.0621041 0.000579781 0)
(0.0609421 0.000582155 0)
(0.0597754 0.000584453 0)
(0.0586042 0.000586676 0)
(0.0574286 0.000588826 0)
(0.0562488 0.000590905 0)
(0.0550649 0.000592913 0)
(0.053877 0.000594852 0)
(0.0526854 0.000596724 0)
(0.05149 0.000598529 0)
(0.0502911 0.00060027 0)
(0.0490888 0.000601947 0)
(0.0478833 0.000603562 0)
(0.0466745 0.000605116 0)
(0.0454627 0.00060661 0)
(0.044248 0.000608046 0)
(0.0430304 0.000609425 0)
(0.0418102 0.000610749 0)
(0.0405874 0.000612018 0)
(0.039362 0.000613235 0)
(0.0381343 0.0006144 0)
(0.0369044 0.000615514 0)
(0.0356722 0.000616579 0)
(0.034438 0.000617595 0)
(0.0332017 0.000618564 0)
(0.0319636 0.000619487 0)
(0.0307237 0.000620366 0)
(0.0294821 0.0006212 0)
(0.0282389 0.000621991 0)
(0.0269941 0.000622741 0)
(0.0257478 0.00062345 0)
(0.0245002 0.000624118 0)
(0.0232513 0.000624748 0)
(0.0220011 0.000625339 0)
(0.0207499 0.000625893 0)
(0.0194975 0.000626411 0)
(0.0182442 0.000626892 0)
(0.0169899 0.000627338 0)
(0.0157347 0.00062775 0)
(0.0144788 0.000628128 0)
(0.0132222 0.000628472 0)
(0.0119649 0.000628783 0)
(0.010707 0.000629062 0)
(0.00944857 0.00062931 0)
(0.00818969 0.000629525 0)
(0.00693041 0.00062971 0)
(0.0056708 0.000629863 0)
(0.00441091 0.000629986 0)
(0.0031508 0.000630078 0)
(0.00189055 0.000630139 0)
(0.000630202 0.000630169 0)
(0.000724751 -0.00217422 0)
(0.00217426 -0.0021741 0)
(0.00362369 -0.00217385 0)
(0.00507289 -0.00217349 0)
(0.00652181 -0.002173 0)
(0.00797037 -0.00217239 0)
(0.00941848 -0.00217165 0)
(0.0108661 -0.00217078 0)
(0.012313 -0.00216978 0)
(0.0137592 -0.00216864 0)
(0.0152047 -0.00216736 0)
(0.0166492 -0.00216595 0)
(0.0180928 -0.00216439 0)
(0.0195353 -0.00216267 0)
(0.0209765 -0.00216081 0)
(0.0224165 -0.00215879 0)
(0.0238551 -0.0021566 0)
(0.0252922 -0.00215424 0)
(0.0267277 -0.00215171 0)
(0.0281614 -0.002149 0)
(0.0295932 -0.0021461 0)
(0.0310231 -0.002143 0)
(0.0324508 -0.0021397 0)
(0.0338762 -0.0021362 0)
(0.0352993 -0.00213248 0)
(0.0367198 -0.00212853 0)
(0.0381376 -0.00212436 0)
(0.0395526 -0.00211994 0)
(0.0409645 -0.00211528 0)
(0.0423732 -0.00211036 0)
(0.0437786 -0.00210517 0)
(0.0451805 -0.00209972 0)
(0.0465786 -0.00209397 0)
(0.0479728 -0.00208794 0)
(0.0493629 -0.00208161 0)
(0.0507486 -0.00207497 0)
(0.0521299 -0.002068 0)
(0.0535064 -0.00206071 0)
(0.0548779 -0.00205308 0)
(0.0562442 -0.0020451 0)
(0.0576051 -0.00203677 0)
(0.0589603 -0.00202806 0)
(0.0603097 -0.00201899 0)
(0.0616528 -0.00200952 0)
(0.0629895 -0.00199967 0)
(0.0643195 -0.00198941 0)
(0.0656425 -0.00197873 0)
(0.0669583 -0.00196764 0)
(0.0682666 -0.00195612 0)
(0.069567 -0.00194417 0)
(0.0708593 -0.00193176 0)
(0.0721432 -0.00191891 0)
(0.0734184 -0.00190559 0)
(0.0746846 -0.0018918 0)
(0.0759414 -0.00187754 0)
(0.0771885 -0.0018628 0)
(0.0784257 -0.00184757 0)
(0.0796525 -0.00183184 0)
(0.0808688 -0.00181562 0)
(0.082074 -0.0017989 0)
(0.0832679 -0.00178166 0)
(0.0844501 -0.00176392 0)
(0.0856204 -0.00174567 0)
(0.0867783 -0.00172689 0)
(0.0879236 -0.0017076 0)
(0.0890558 -0.00168779 0)
(0.0901746 -0.00166745 0)
(0.0912797 -0.0016466 0)
(0.0923707 -0.00162522 0)
(0.0934472 -0.00160332 0)
(0.094509 -0.00158091 0)
(0.0955557 -0.00155797 0)
(0.096587 -0.00153453 0)
(0.0976024 -0.00151057 0)
(0.0986017 -0.0014861 0)
(0.0995845 -0.00146114 0)
(0.10055 -0.00143568 0)
(0.101499 -0.00140972 0)
(0.102431 -0.00138329 0)
(0.103344 -0.00135638 0)
(0.10424 -0.00132901 0)
(0.105117 -0.00130118 0)
(0.105975 -0.0012729 0)
(0.106815 -0.00124419 0)
(0.107635 -0.00121505 0)
(0.108435 -0.00118549 0)
(0.109216 -0.00115554 0)
(0.109976 -0.00112519 0)
(0.110716 -0.00109447 0)
(0.111436 -0.00106338 0)
(0.112135 -0.00103194 0)
(0.112812 -0.00100017 0)
(0.113469 -0.000968078 0)
(0.114103 -0.000935684 0)
(0.114717 -0.000903004 0)
(0.115308 -0.000870053 0)
(0.115877 -0.000836848 0)
(0.116424 -0.000803405 0)
(0.116948 -0.000769741 0)
(0.11745 -0.000735874 0)
(0.11793 -0.000701821 0)
(0.118386 -0.0006676 0)
(0.11882 -0.000633229 0)
(0.119231 -0.000598726 0)
(0.119619 -0.000564107 0)
(0.119983 -0.000529391 0)
(0.120324 -0.000494596 0)
(0.120643 -0.00045974 0)
(0.120938 -0.00042484 0)
(0.121209 -0.000389915 0)
(0.121457 -0.000354983 0)
(0.121682 -0.000320061 0)
(0.121884 -0.000285167 0)
(0.122063 -0.000250316 0)
(0.122218 -0.000215525 0)
(0.12235 -0.00018081 0)
(0.122459 -0.000146186 0)
(0.122545 -0.000111669 0)
(0.122608 -7.72744e-05 0)
(0.122647 -4.30163e-05 0)
(0.122665 -8.90955e-06 0)
(0.122659 2.50317e-05 0)
(0.122631 5.87938e-05 0)
(0.122581 9.23639e-05 0)
(0.122508 0.000125729 0)
(0.122413 0.000158878 0)
(0.122296 0.000191799 0)
(0.122157 0.000224481 0)
(0.121996 0.000256912 0)
(0.121814 0.000289083 0)
(0.12161 0.000320983 0)
(0.121385 0.000352602 0)
(0.12114 0.000383931 0)
(0.120873 0.000414964 0)
(0.120586 0.000445692 0)
(0.120278 0.000476109 0)
(0.119951 0.000506208 0)
(0.119603 0.000535983 0)
(0.119236 0.000565428 0)
(0.118849 0.000594537 0)
(0.118443 0.000623305 0)
(0.118017 0.000651727 0)
(0.117573 0.000679797 0)
(0.11711 0.000707512 0)
(0.116629 0.00073487 0)
(0.11613 0.000761866 0)
(0.115613 0.000788499 0)
(0.115078 0.000814767 0)
(0.114526 0.000840668 0)
(0.113957 0.000866199 0)
(0.113371 0.00089136 0)
(0.112768 0.000916149 0)
(0.112149 0.000940564 0)
(0.111514 0.000964606 0)
(0.110862 0.000988274 0)
(0.110195 0.00101157 0)
(0.109513 0.00103449 0)
(0.108816 0.00105704 0)
(0.108103 0.00107922 0)
(0.107376 0.00110103 0)
(0.106635 0.00112247 0)
(0.105879 0.00114353 0)
(0.105109 0.00116422 0)
(0.104326 0.00118455 0)
(0.10353 0.00120451 0)
(0.10272 0.0012241 0)
(0.101897 0.00124334 0)
(0.101062 0.00126221 0)
(0.100214 0.00128072 0)
(0.0993535 0.00129888 0)
(0.0984813 0.00131669 0)
(0.0975974 0.00133414 0)
(0.096702 0.00135125 0)
(0.0957953 0.001368 0)
(0.0948776 0.00138441 0)
(0.093949 0.00140048 0)
(0.0930098 0.00141621 0)
(0.0920603 0.00143161 0)
(0.0911006 0.00144667 0)
(0.090131 0.0014614 0)
(0.0891517 0.00147581 0)
(0.0881628 0.00148989 0)
(0.0871647 0.00150365 0)
(0.0861576 0.00151709 0)
(0.0851416 0.00153021 0)
(0.0841169 0.00154303 0)
(0.0830838 0.00155553 0)
(0.0820425 0.00156774 0)
(0.0809931 0.00157964 0)
(0.0799359 0.00159124 0)
(0.0788711 0.00160255 0)
(0.0777988 0.00161357 0)
(0.0767193 0.0016243 0)
(0.0756327 0.00163475 0)
(0.0745393 0.00164491 0)
(0.0734391 0.00165481 0)
(0.0723325 0.00166443 0)
(0.0712195 0.00167378 0)
(0.0701004 0.00168287 0)
(0.0689754 0.0016917 0)
(0.0678445 0.00170028 0)
(0.066708 0.0017086 0)
(0.0655661 0.00171667 0)
(0.0644188 0.0017245 0)
(0.0632664 0.00173209 0)
(0.062109 0.00173944 0)
(0.0609469 0.00174656 0)
(0.05978 0.00175345 0)
(0.0586086 0.00176012 0)
(0.0574329 0.00176657 0)
(0.0562529 0.0017728 0)
(0.0550689 0.00177882 0)
(0.0538809 0.00178464 0)
(0.0526891 0.00179025 0)
(0.0514936 0.00179567 0)
(0.0502946 0.00180089 0)
(0.0490922 0.00180592 0)
(0.0478865 0.00181076 0)
(0.0466776 0.00181542 0)
(0.0454657 0.0018199 0)
(0.0442509 0.00182421 0)
(0.0430332 0.00182835 0)
(0.0418128 0.00183232 0)
(0.0405899 0.00183612 0)
(0.0393645 0.00183977 0)
(0.0381367 0.00184326 0)
(0.0369066 0.0018466 0)
(0.0356743 0.0018498 0)
(0.03444 0.00185285 0)
(0.0332037 0.00185575 0)
(0.0319655 0.00185852 0)
(0.0307255 0.00186115 0)
(0.0294838 0.00186366 0)
(0.0282404 0.00186603 0)
(0.0269956 0.00186828 0)
(0.0257492 0.0018704 0)
(0.0245015 0.00187241 0)
(0.0232525 0.00187429 0)
(0.0220023 0.00187607 0)
(0.020751 0.00187773 0)
(0.0194985 0.00187928 0)
(0.0182451 0.00188072 0)
(0.0169908 0.00188206 0)
(0.0157356 0.0018833 0)
(0.0144796 0.00188443 0)
(0.0132229 0.00188546 0)
(0.0119655 0.00188639 0)
(0.0107075 0.00188723 0)
(0.00944904 0.00188797 0)
(0.0081901 0.00188862 0)
(0.00693076 0.00188917 0)
(0.00567108 0.00188963 0)
(0.00441113 0.00189 0)
(0.00315096 0.00189028 0)
(0.00189065 0.00189046 0)
(0.000630233 0.00189055 0)
(0.000724844 -0.00362379 0)
(0.00217452 -0.00362359 0)
(0.0036241 -0.0036232 0)
(0.00507347 -0.0036226 0)
(0.00652256 -0.0036218 0)
(0.00797129 -0.00362078 0)
(0.00941957 -0.00361955 0)
(0.0108673 -0.0036181 0)
(0.0123145 -0.00361644 0)
(0.0137609 -0.00361454 0)
(0.0152065 -0.00361242 0)
(0.0166513 -0.00361006 0)
(0.018095 -0.00360747 0)
(0.0195377 -0.00360462 0)
(0.0209792 -0.00360152 0)
(0.0224194 -0.00359815 0)
(0.0238582 -0.00359451 0)
(0.0252955 -0.00359059 0)
(0.0267312 -0.00358638 0)
(0.0281652 -0.00358186 0)
(0.0295973 -0.00357703 0)
(0.0310274 -0.00357188 0)
(0.0324554 -0.0035664 0)
(0.0338811 -0.00356056 0)
(0.0353045 -0.00355437 0)
(0.0367253 -0.0035478 0)
(0.0381434 -0.00354085 0)
(0.0395587 -0.0035335 0)
(0.040971 -0.00352574 0)
(0.0423801 -0.00351755 0)
(0.0437858 -0.00350892 0)
(0.045188 -0.00349983 0)
(0.0465866 -0.00349027 0)
(0.0479811 -0.00348023 0)
(0.0493716 -0.00346968 0)
(0.0507578 -0.00345862 0)
(0.0521395 -0.00344703 0)
(0.0535164 -0.00343488 0)
(0.0548884 -0.00342218 0)
(0.0562552 -0.00340889 0)
(0.0576166 -0.00339501 0)
(0.0589723 -0.00338051 0)
(0.0603222 -0.00336539 0)
(0.0616658 -0.00334963 0)
(0.0630031 -0.00333321 0)
(0.0643336 -0.00331612 0)
(0.0656572 -0.00329835 0)
(0.0669736 -0.00327987 0)
(0.0682824 -0.00326068 0)
(0.0695834 -0.00324076 0)
(0.0708763 -0.0032201 0)
(0.0721609 -0.00319868 0)
(0.0734367 -0.00317649 0)
(0.0747035 -0.00315352 0)
(0.0759609 -0.00312976 0)
(0.0772087 -0.00310519 0)
(0.0784465 -0.00307981 0)
(0.079674 -0.00305361 0)
(0.0808909 -0.00302658 0)
(0.0820968 -0.00299871 0)
(0.0832914 -0.00297 0)
(0.0844744 -0.00294043 0)
(0.0856453 -0.00291001 0)
(0.0868039 -0.00287872 0)
(0.0879498 -0.00284657 0)
(0.0890827 -0.00281355 0)
(0.0902023 -0.00277966 0)
(0.091308 -0.0027449 0)
(0.0923997 -0.00270927 0)
(0.093477 -0.00267277 0)
(0.0945395 -0.0026354 0)
(0.0955869 -0.00259718 0)
(0.0966188 -0.0025581 0)
(0.0976349 -0.00251816 0)
(0.0986349 -0.00247738 0)
(0.0996183 -0.00243576 0)
(0.100585 -0.00239332 0)
(0.101534 -0.00235006 0)
(0.102466 -0.00230599 0)
(0.103381 -0.00226113 0)
(0.104277 -0.0022155 0)
(0.105154 -0.00216911 0)
(0.106013 -0.00212197 0)
(0.106853 -0.0020741 0)
(0.107674 -0.00202552 0)
(0.108475 -0.00197625 0)
(0.109256 -0.00192631 0)
(0.110017 -0.00187572 0)
(0.110758 -0.00182449 0)
(0.111478 -0.00177266 0)
(0.112177 -0.00172025 0)
(0.112855 -0.00166728 0)
(0.113512 -0.00161378 0)
(0.114147 -0.00155977 0)
(0.114761 -0.00150529 0)
(0.115352 -0.00145035 0)
(0.115922 -0.00139499 0)
(0.116469 -0.00133923 0)
(0.116994 -0.0012831 0)
(0.117496 -0.00122664 0)
(0.117976 -0.00116986 0)
(0.118432 -0.00111281 0)
(0.118866 -0.0010555 0)
(0.119277 -0.000997977 0)
(0.119665 -0.000940259 0)
(0.12003 -0.00088238 0)
(0.120371 -0.000824368 0)
(0.120689 -0.000766255 0)
(0.120984 -0.000708069 0)
(0.121256 -0.000649841 0)
(0.121504 -0.000591602 0)
(0.121729 -0.000533379 0)
(0.121931 -0.000475202 0)
(0.122109 -0.000417098 0)
(0.122264 -0.000359095 0)
(0.122396 -0.000301218 0)
(0.122505 -0.000243495 0)
(0.122591 -0.00018595 0)
(0.122654 -0.000128608 0)
(0.122693 -7.14952e-05 0)
(0.12271 -1.4635e-05 0)
(0.122705 4.1949e-05 0)
(0.122676 9.82339e-05 0)
(0.122625 0.000154198 0)
(0.122552 0.000209821 0)
(0.122457 0.000265082 0)
(0.12234 0.000319962 0)
(0.1222 0.000374443 0)
(0.122039 0.000428507 0)
(0.121857 0.000482135 0)
(0.121653 0.000535311 0)
(0.121428 0.000588019 0)
(0.121182 0.000640245 0)
(0.120915 0.000691975 0)
(0.120627 0.000743196 0)
(0.120319 0.000793899 0)
(0.119991 0.000844072 0)
(0.119643 0.000893704 0)
(0.119275 0.000942785 0)
(0.118888 0.000991306 0)
(0.118481 0.00103926 0)
(0.118055 0.00108663 0)
(0.117611 0.00113342 0)
(0.117147 0.00117962 0)
(0.116666 0.00122521 0)
(0.116166 0.00127021 0)
(0.115649 0.0013146 0)
(0.115113 0.00135838 0)
(0.114561 0.00140155 0)
(0.113991 0.00144411 0)
(0.113404 0.00148604 0)
(0.112801 0.00152736 0)
(0.112181 0.00156805 0)
(0.111546 0.00160812 0)
(0.110894 0.00164757 0)
(0.110226 0.00168639 0)
(0.109544 0.0017246 0)
(0.108846 0.00176218 0)
(0.108133 0.00179914 0)
(0.107405 0.00183549 0)
(0.106663 0.00187121 0)
(0.105907 0.00190632 0)
(0.105137 0.00194081 0)
(0.104353 0.00197468 0)
(0.103556 0.00200795 0)
(0.102746 0.0020406 0)
(0.101923 0.00207265 0)
(0.101087 0.00210411 0)
(0.100238 0.00213496 0)
(0.0993777 0.00216522 0)
(0.0985051 0.0021949 0)
(0.0976208 0.00222398 0)
(0.0967249 0.00225248 0)
(0.0958177 0.00228041 0)
(0.0948995 0.00230776 0)
(0.0939705 0.00233454 0)
(0.0930309 0.00236075 0)
(0.0920809 0.00238641 0)
(0.0911207 0.00241151 0)
(0.0901507 0.00243606 0)
(0.0891709 0.00246006 0)
(0.0881817 0.00248352 0)
(0.0871831 0.00250645 0)
(0.0861755 0.00252885 0)
(0.0851591 0.00255072 0)
(0.084134 0.00257208 0)
(0.0831005 0.00259292 0)
(0.0820588 0.00261325 0)
(0.081009 0.00263308 0)
(0.0799514 0.00265241 0)
(0.0788862 0.00267126 0)
(0.0778135 0.00268961 0)
(0.0767336 0.00270749 0)
(0.0756467 0.0027249 0)
(0.0745528 0.00274185 0)
(0.0734524 0.00275834 0)
(0.0723454 0.00277437 0)
(0.071232 0.00278995 0)
(0.0701126 0.0028051 0)
(0.0689872 0.00281981 0)
(0.067856 0.00283409 0)
(0.0667191 0.00284796 0)
(0.0655769 0.00286141 0)
(0.0644293 0.00287445 0)
(0.0632766 0.00288709 0)
(0.0621189 0.00289934 0)
(0.0609564 0.0029112 0)
(0.0597892 0.00292268 0)
(0.0586176 0.00293379 0)
(0.0574415 0.00294453 0)
(0.0562613 0.00295492 0)
(0.0550769 0.00296495 0)
(0.0538887 0.00297464 0)
(0.0526966 0.00298399 0)
(0.0515009 0.00299301 0)
(0.0503016 0.00300171 0)
(0.0490989 0.00301009 0)
(0.047893 0.00301815 0)
(0.0466839 0.00302592 0)
(0.0454717 0.00303338 0)
(0.0442566 0.00304055 0)
(0.0430387 0.00304744 0)
(0.0418181 0.00305405 0)
(0.040595 0.0030604 0)
(0.0393693 0.00306647 0)
(0.0381413 0.00307229 0)
(0.036911 0.00307785 0)
(0.0356786 0.00308317 0)
(0.0344441 0.00308825 0)
(0.0332076 0.00309309 0)
(0.0319692 0.0030977 0)
(0.030729 0.00310208 0)
(0.0294871 0.00310625 0)
(0.0282436 0.0031102 0)
(0.0269986 0.00311394 0)
(0.0257521 0.00311748 0)
(0.0245042 0.00312082 0)
(0.023255 0.00312396 0)
(0.0220047 0.00312692 0)
(0.0207532 0.00312968 0)
(0.0195006 0.00313227 0)
(0.018247 0.00313467 0)
(0.0169925 0.0031369 0)
(0.0157372 0.00313895 0)
(0.014481 0.00314084 0)
(0.0132242 0.00314256 0)
(0.0119667 0.00314411 0)
(0.0107086 0.0031455 0)
(0.00944999 0.00314674 0)
(0.00819092 0.00314781 0)
(0.00693145 0.00314873 0)
(0.00567164 0.0031495 0)
(0.00441156 0.00315011 0)
(0.00315127 0.00315057 0)
(0.00189083 0.00315088 0)
(0.000630295 0.00315103 0)
(0.00072497 -0.00507358 0)
(0.0021749 -0.00507331 0)
(0.00362473 -0.00507277 0)
(0.00507435 -0.00507193 0)
(0.00652369 -0.00507081 0)
(0.00797267 -0.00506939 0)
(0.00942122 -0.00506768 0)
(0.0108692 -0.00506566 0)
(0.0123166 -0.00506333 0)
(0.0137633 -0.00506069 0)
(0.0152093 -0.00505773 0)
(0.0166543 -0.00505444 0)
(0.0180983 -0.00505081 0)
(0.0195413 -0.00504683 0)
(0.0209831 -0.0050425 0)
(0.0224237 -0.0050378 0)
(0.0238628 -0.00503272 0)
(0.0253005 -0.00502724 0)
(0.0267365 -0.00502136 0)
(0.0281709 -0.00501505 0)
(0.0296034 -0.00500831 0)
(0.0310339 -0.00500111 0)
(0.0324623 -0.00499345 0)
(0.0338885 -0.0049853 0)
(0.0353123 -0.00497664 0)
(0.0367336 -0.00496747 0)
(0.0381522 -0.00495776 0)
(0.0395679 -0.00494749 0)
(0.0409807 -0.00493664 0)
(0.0423903 -0.00492519 0)
(0.0437966 -0.00491313 0)
(0.0451994 -0.00490043 0)
(0.0465985 -0.00488707 0)
(0.0479937 -0.00487303 0)
(0.0493848 -0.00485829 0)
(0.0507716 -0.00484282 0)
(0.0521539 -0.00482661 0)
(0.0535315 -0.00480963 0)
(0.0549042 -0.00479187 0)
(0.0562717 -0.00477329 0)
(0.0576338 -0.00475387 0)
(0.0589903 -0.0047336 0)
(0.0603409 -0.00471246 0)
(0.0616853 -0.00469041 0)
(0.0630234 -0.00466745 0)
(0.0643548 -0.00464354 0)
(0.0656792 -0.00461868 0)
(0.0669964 -0.00459283 0)
(0.0683061 -0.00456598 0)
(0.069608 -0.00453811 0)
(0.0709018 -0.0045092 0)
(0.0721873 -0.00447923 0)
(0.073464 -0.00444818 0)
(0.0747318 -0.00441604 0)
(0.0759902 -0.00438279 0)
(0.077239 -0.00434841 0)
(0.0784778 -0.00431289 0)
(0.0797063 -0.00427622 0)
(0.0809242 -0.00423839 0)
(0.0821311 -0.00419938 0)
(0.0833267 -0.00415919 0)
(0.0845107 -0.00411781 0)
(0.0856826 -0.00407522 0)
(0.0868423 -0.00403143 0)
(0.0879893 -0.00398642 0)
(0.0891232 -0.00394019 0)
(0.0902438 -0.00389274 0)
(0.0913506 -0.00384408 0)
(0.0924434 -0.00379419 0)
(0.0935217 -0.00374309 0)
(0.0945852 -0.00369078 0)
(0.0956336 -0.00363725 0)
(0.0966666 -0.00358253 0)
(0.0976837 -0.00352661 0)
(0.0986847 -0.00346951 0)
(0.0996691 -0.00341123 0)
(0.100637 -0.00335179 0)
(0.101587 -0.00329121 0)
(0.10252 -0.0032295 0)
(0.103435 -0.00316668 0)
(0.104332 -0.00310277 0)
(0.105211 -0.0030378 0)
(0.106071 -0.00297178 0)
(0.106912 -0.00290474 0)
(0.107733 -0.0028367 0)
(0.108535 -0.00276769 0)
(0.109317 -0.00269775 0)
(0.110079 -0.00262688 0)
(0.11082 -0.00255514 0)
(0.111541 -0.00248254 0)
(0.112241 -0.00240913 0)
(0.112919 -0.00233494 0)
(0.113577 -0.00226 0)
(0.114213 -0.00218435 0)
(0.114827 -0.00210804 0)
(0.115419 -0.00203109 0)
(0.115989 -0.00195354 0)
(0.116536 -0.00187544 0)
(0.117062 -0.00179682 0)
(0.117564 -0.00171773 0)
(0.118044 -0.0016382 0)
(0.118501 -0.00155828 0)
(0.118936 -0.00147802 0)
(0.119347 -0.00139744 0)
(0.119735 -0.00131659 0)
(0.1201 -0.00123552 0)
(0.120441 -0.00115426 0)
(0.12076 -0.00107286 0)
(0.121055 -0.00099136 0)
(0.121326 -0.0009098 0)
(0.121575 -0.000828224 0)
(0.1218 -0.000746673 0)
(0.122001 -0.000665185 0)
(0.122179 -0.000583801 0)
(0.122334 -0.000502558 0)
(0.122466 -0.000421493 0)
(0.122575 -0.000340644 0)
(0.12266 -0.000260045 0)
(0.122723 -0.000179732 0)
(0.122762 -9.97399e-05 0)
(0.122779 -2.01028e-05 0)
(0.122773 5.91464e-05 0)
(0.122744 0.000137976 0)
(0.122693 0.000216355 0)
(0.122619 0.000294256 0)
(0.122524 0.000371648 0)
(0.122406 0.000448507 0)
(0.122266 0.000524804 0)
(0.122104 0.000600516 0)
(0.121921 0.000675618 0)
(0.121717 0.000750086 0)
(0.121491 0.000823897 0)
(0.121244 0.000897033 0)
(0.120977 0.000969473 0)
(0.120689 0.0010412 0)
(0.12038 0.0011122 0)
(0.120051 0.00118246 0)
(0.119703 0.00125196 0)
(0.119334 0.00132069 0)
(0.118946 0.00138863 0)
(0.118539 0.00145577 0)
(0.118112 0.0015221 0)
(0.117667 0.00158761 0)
(0.117203 0.0016523 0)
(0.116721 0.00171614 0)
(0.11622 0.00177914 0)
(0.115702 0.0018413 0)
(0.115166 0.0019026 0)
(0.114613 0.00196304 0)
(0.114042 0.00202262 0)
(0.113455 0.00208133 0)
(0.112851 0.00213917 0)
(0.11223 0.00219615 0)
(0.111594 0.00225224 0)
(0.110941 0.00230747 0)
(0.110273 0.00236182 0)
(0.10959 0.00241531 0)
(0.108891 0.00246792 0)
(0.108177 0.00251967 0)
(0.107449 0.00257055 0)
(0.106706 0.00262056 0)
(0.105949 0.00266971 0)
(0.105179 0.00271799 0)
(0.104394 0.00276541 0)
(0.103596 0.00281198 0)
(0.102785 0.00285769 0)
(0.101961 0.00290256 0)
(0.101125 0.00294659 0)
(0.100275 0.00298978 0)
(0.0994141 0.00303214 0)
(0.0985408 0.00307368 0)
(0.0976557 0.00311439 0)
(0.0967591 0.00315429 0)
(0.0958513 0.00319338 0)
(0.0949324 0.00323166 0)
(0.0940027 0.00326915 0)
(0.0930624 0.00330584 0)
(0.0921117 0.00334175 0)
(0.0911509 0.00337688 0)
(0.0901802 0.00341125 0)
(0.0891998 0.00344484 0)
(0.0882099 0.00347769 0)
(0.0872107 0.00350978 0)
(0.0862025 0.00354113 0)
(0.0851854 0.00357174 0)
(0.0841597 0.00360163 0)
(0.0831256 0.0036308 0)
(0.0820832 0.00365926 0)
(0.0810328 0.00368701 0)
(0.0799746 0.00371407 0)
(0.0789088 0.00374044 0)
(0.0778356 0.00376613 0)
(0.0767551 0.00379116 0)
(0.0756676 0.00381552 0)
(0.0745732 0.00383924 0)
(0.0734722 0.00386231 0)
(0.0723646 0.00388474 0)
(0.0712508 0.00390655 0)
(0.0701308 0.00392775 0)
(0.0690049 0.00394834 0)
(0.0678732 0.00396832 0)
(0.0667358 0.00398772 0)
(0.065593 0.00400654 0)
(0.064445 0.00402479 0)
(0.0632918 0.00404248 0)
(0.0621336 0.00405962 0)
(0.0609707 0.00407622 0)
(0.059803 0.00409228 0)
(0.0586309 0.00410782 0)
(0.0574544 0.00412285 0)
(0.0562738 0.00413738 0)
(0.055089 0.00415142 0)
(0.0539003 0.00416498 0)
(0.0527079 0.00417806 0)
(0.0515117 0.00419068 0)
(0.0503121 0.00420284 0)
(0.049109 0.00421456 0)
(0.0479027 0.00422585 0)
(0.0466932 0.0042367 0)
(0.0454807 0.00424715 0)
(0.0442652 0.00425718 0)
(0.043047 0.00426682 0)
(0.0418261 0.00427606 0)
(0.0406026 0.00428493 0)
(0.0393766 0.00429343 0)
(0.0381483 0.00430157 0)
(0.0369177 0.00430935 0)
(0.035685 0.00431678 0)
(0.0344502 0.00432388 0)
(0.0332134 0.00433065 0)
(0.0319747 0.0043371 0)
(0.0307342 0.00434323 0)
(0.0294921 0.00434905 0)
(0.0282483 0.00435458 0)
(0.027003 0.00435981 0)
(0.0257563 0.00436476 0)
(0.0245082 0.00436943 0)
(0.0232588 0.00437382 0)
(0.0220082 0.00437795 0)
(0.0207565 0.00438182 0)
(0.0195037 0.00438543 0)
(0.0182499 0.00438879 0)
(0.0169952 0.00439191 0)
(0.0157396 0.00439478 0)
(0.0144833 0.00439741 0)
(0.0132262 0.00439982 0)
(0.0119685 0.00440199 0)
(0.0107102 0.00440394 0)
(0.00945141 0.00440566 0)
(0.00819214 0.00440717 0)
(0.00693248 0.00440845 0)
(0.00567249 0.00440952 0)
(0.00441222 0.00441038 0)
(0.00315173 0.00441102 0)
(0.00189111 0.00441145 0)
(0.000630388 0.00441166 0)
(0.000725137 -0.00652368 0)
(0.0021754 -0.00652333 0)
(0.00362556 -0.00652263 0)
(0.00507552 -0.00652156 0)
(0.00652519 -0.00652012 0)
(0.00797452 -0.0065183 0)
(0.0094234 -0.00651611 0)
(0.0108718 -0.00651352 0)
(0.0123195 -0.00651054 0)
(0.0137666 -0.00650716 0)
(0.0152129 -0.00650337 0)
(0.0166583 -0.00649915 0)
(0.0181028 -0.0064945 0)
(0.0195462 -0.00648941 0)
(0.0209884 -0.00648386 0)
(0.0224294 -0.00647784 0)
(0.023869 -0.00647133 0)
(0.0253071 -0.00646431 0)
(0.0267436 -0.00645677 0)
(0.0281784 -0.00644868 0)
(0.0296115 -0.00644004 0)
(0.0310425 -0.00643082 0)
(0.0324715 -0.00642099 0)
(0.0338982 -0.00641054 0)
(0.0353226 -0.00639945 0)
(0.0367445 -0.00638768 0)
(0.0381637 -0.00637523 0)
(0.0395802 -0.00636205 0)
(0.0409936 -0.00634814 0)
(0.0424039 -0.00633346 0)
(0.043811 -0.00631799 0)
(0.0452145 -0.00630169 0)
(0.0466143 -0.00628455 0)
(0.0480103 -0.00626654 0)
(0.0494022 -0.00624762 0)
(0.0507899 -0.00622777 0)
(0.0521731 -0.00620697 0)
(0.0535516 -0.00618518 0)
(0.0549252 -0.00616237 0)
(0.0562937 -0.00613852 0)
(0.0576568 -0.0061136 0)
(0.0590142 -0.00608757 0)
(0.0603658 -0.00606042 0)
(0.0617113 -0.00603212 0)
(0.0630504 -0.00600263 0)
(0.0643829 -0.00597193 0)
(0.0657084 -0.00593999 0)
(0.0670268 -0.00590679 0)
(0.0683377 -0.00587231 0)
(0.0696408 -0.00583651 0)
(0.0709358 -0.00579937 0)
(0.0722225 -0.00576087 0)
(0.0735005 -0.00572098 0)
(0.0747695 -0.00567968 0)
(0.0760292 -0.00563695 0)
(0.0772792 -0.00559277 0)
(0.0785194 -0.00554713 0)
(0.0797492 -0.0055 0)
(0.0809684 -0.00545138 0)
(0.0821767 -0.00540125 0)
(0.0833737 -0.00534959 0)
(0.084559 -0.00529639 0)
(0.0857324 -0.00524165 0)
(0.0868934 -0.00518535 0)
(0.0880418 -0.00512749 0)
(0.0891771 -0.00506806 0)
(0.0902991 -0.00500706 0)
(0.0914073 -0.00494448 0)
(0.0925015 -0.00488034 0)
(0.0935812 -0.00481463 0)
(0.0946461 -0.00474736 0)
(0.0956959 -0.00467854 0)
(0.0967303 -0.00460816 0)
(0.0977487 -0.00453625 0)
(0.0987511 -0.00446281 0)
(0.0997369 -0.00438786 0)
(0.100706 -0.00431141 0)
(0.101658 -0.00423349 0)
(0.102592 -0.00415412 0)
(0.103508 -0.00407332 0)
(0.104407 -0.00399111 0)
(0.105286 -0.00390754 0)
(0.106147 -0.00382261 0)
(0.106989 -0.00373637 0)
(0.107812 -0.00364885 0)
(0.108615 -0.00356008 0)
(0.109398 -0.0034701 0)
(0.110161 -0.00337894 0)
(0.110903 -0.00328664 0)
(0.111625 -0.00319325 0)
(0.112326 -0.0030988 0)
(0.113005 -0.00300335 0)
(0.113663 -0.00290694 0)
(0.1143 -0.00280961 0)
(0.114915 -0.00271143 0)
(0.115508 -0.00261242 0)
(0.116078 -0.00251265 0)
(0.116627 -0.00241217 0)
(0.117152 -0.00231102 0)
(0.117656 -0.00220926 0)
(0.118136 -0.00210694 0)
(0.118594 -0.00200411 0)
(0.119028 -0.00190084 0)
(0.11944 -0.00179717 0)
(0.119828 -0.00169315 0)
(0.120193 -0.00158884 0)
(0.120535 -0.0014843 0)
(0.120853 -0.00137957 0)
(0.121148 -0.00127471 0)
(0.12142 -0.00116978 0)
(0.121668 -0.00106483 0)
(0.121893 -0.000959908 0)
(0.122095 -0.000855071 0)
(0.122273 -0.000750367 0)
(0.122428 -0.000645846 0)
(0.122559 -0.000541555 0)
(0.122668 -0.000437543 0)
(0.122753 -0.000333855 0)
(0.122815 -0.000230536 0)
(0.122854 -0.000127631 0)
(0.12287 -2.51846e-05 0)
(0.122864 7.67618e-05 0)
(0.122835 0.000178167 0)
(0.122783 0.000278991 0)
(0.122709 0.000379197 0)