/*--------------------------------*- C++ -*----------------------------------*\
| =========                 |                                                 |
| \\      /  F ield         | OpenFOAM: The Open Source CFD Toolbox           |
|  \\    /   O peration     | Version:  v2012                                 |
|   \\  /    A nd           | Website:  www.openfoam.com                      |
|    \\/     M anipulation  |                                                 |
\*---------------------------------------------------------------------------*/
FoamFile
{
    version     2.0;
    format      ascii;
    class       surfaceScalarField;
    location    "4";
    object      phi;
}
// * * * * * * * * * * * * * * * * * * * * * * * * * * * * * * * * * * * * * //

dimensions      [0 3 -1 0 0 0 0];
oriented        oriented;


internalField   nonuniform List<scalar> 
130560
(
3.58766e-06
-3.58765e-06
7.17514e-06
-3.58748e-06
1.07622e-05
-3.58711e-06
1.43488e-05
-3.58656e-06
1.79346e-05
-3.58581e-06
2.15195e-05
-3.58487e-06
2.51032e-05
-3.58373e-06
2.86856e-05
-3.58239e-06
3.22664e-05
-3.58084e-06
3.58455e-05
-3.57908e-06
3.94226e-05
-3.57711e-06
4.29975e-05
-3.57491e-06
4.657e-05
-3.57249e-06
5.01399e-05
-3.56983e-06
5.37068e-05
-3.56693e-06
5.72706e-05
-3.56378e-06
6.08309e-05
-3.56036e-06
6.43876e-05
-3.55668e-06
6.79403e-05
-3.55272e-06
7.14888e-05
-3.54847e-06
7.50327e-05
-3.54392e-06
7.85718e-05
-3.53905e-06
8.21056e-05
-3.53386e-06
8.5634e-05
-3.52834e-06
8.91564e-05
-3.52246e-06
9.26726e-05
-3.51622e-06
9.61823e-05
-3.5096e-06
9.96848e-05
-3.5026e-06
0.00010318
-3.49518e-06
0.000106667
-3.48735e-06
0.000110146
-3.47909e-06
0.000113617
-3.47037e-06
0.000117078
-3.46119e-06
0.00012053
-3.45153e-06
0.000123971
-3.44136e-06
0.000127402
-3.43069e-06
0.000130821
-3.41949e-06
0.000134229
-3.40774e-06
0.000137624
-3.39542e-06
0.000141007
-3.38253e-06
0.000144376
-3.36904e-06
0.000147731
-3.35494e-06
0.000151071
-3.34021e-06
0.000154396
-3.32484e-06
0.000157705
-3.3088e-06
0.000160997
-3.29209e-06
0.000164271
-3.27469e-06
0.000167528
-3.25658e-06
0.000170766
-3.23775e-06
0.000173984
-3.21818e-06
0.000177182
-3.19786e-06
0.000180359
-3.17677e-06
0.000183513
-3.1549e-06
0.000186646
-3.13225e-06
0.000189754
-3.10879e-06
0.000192839
-3.08451e-06
0.000195898
-3.0594e-06
0.000198932
-3.03346e-06
0.000201938
-3.00667e-06
0.000204918
-2.97902e-06
0.000207868
-2.95052e-06
0.000210789
-2.92114e-06
0.00021368
-2.89089e-06
0.00021654
-2.85975e-06
0.000219368
-2.82774e-06
0.000222162
-2.79483e-06
0.000224923
-2.76103e-06
0.00022765
-2.72634e-06
0.00023034
-2.69075e-06
0.000232995
-2.65428e-06
0.000235612
-2.61692e-06
0.00023819
-2.57867e-06
0.00024073
-2.53954e-06
0.000243229
-2.49954e-06
0.000245688
-2.45867e-06
0.000248105
-2.41694e-06
0.000250479
-2.37436e-06
0.00025281
-2.33093e-06
0.000255097
-2.28668e-06
0.000257339
-2.24161e-06
0.000259534
-2.19575e-06
0.000261683
-2.14909e-06
0.000263785
-2.10167e-06
0.000265839
-2.0535e-06
0.000267843
-2.00459e-06
0.000269798
-1.95498e-06
0.000271703
-1.90467e-06
0.000273557
-1.85369e-06
0.000275359
-1.80207e-06
0.000277108
-1.74982e-06
0.000278805
-1.69698e-06
0.000280449
-1.64355e-06
0.000282039
-1.58958e-06
0.000283574
-1.5351e-06
0.000285054
-1.48011e-06
0.000286478
-1.42467e-06
0.000287847
-1.36879e-06
0.00028916
-1.31251e-06
0.000290416
-1.25586e-06
0.000291614
-1.19886e-06
0.000292756
-1.14154e-06
0.00029384
-1.08395e-06
0.000294866
-1.0261e-06
0.000295834
-9.68035e-07
0.000296744
-9.0978e-07
0.000297595
-8.51369e-07
0.000298388
-7.92833e-07
0.000299122
-7.34203e-07
0.000299798
-6.75509e-07
0.000300415
-6.16785e-07
0.000300973
-5.58059e-07
0.000301472
-4.99365e-07
0.000301913
-4.40732e-07
0.000302295
-3.8219e-07
0.000302619
-3.23769e-07
0.000302884
-2.65498e-07
0.000303092
-2.07404e-07
0.000303241
-1.49515e-07
0.000303333
-9.18562e-08
0.000303367
-3.44547e-08
0.000303345
2.26621e-08
0.000303265
7.94761e-08
0.000303129
1.35956e-07
0.000302937
1.92082e-07
0.000302689
2.47831e-07
0.000302386
3.03182e-07
0.000302028
3.58113e-07
0.000301616
4.12607e-07
0.000301149
4.66642e-07
0.000300629
5.20203e-07
0.000300055
5.73271e-07
0.00029943
6.2583e-07
0.000298752
6.77863e-07
0.000298022
7.29358e-07
0.000297242
7.80299e-07
0.000296411
8.30674e-07
0.000295531
8.80473e-07
0.000294601
9.29684e-07
0.000293623
9.78299e-07
0.000292597
1.02631e-06
0.000291523
1.0737e-06
0.000290402
1.12047e-06
0.000289236
1.16662e-06
0.000288024
1.21212e-06
0.000286767
1.25699e-06
0.000285466
1.30121e-06
0.000284121
1.34477e-06
0.000282733
1.38768e-06
0.000281303
1.42994e-06
0.000279832
1.47154e-06
0.000278319
1.51248e-06
0.000276766
1.55276e-06
0.000275174
1.59237e-06
0.000273543
1.63133e-06
0.000271873
1.66963e-06
0.000270166
1.70726e-06
0.000268422
1.74424e-06
0.000266641
1.78056e-06
0.000264825
1.81623e-06
0.000262973
1.85125e-06
0.000261088
1.88563e-06
0.000259168
1.91935e-06
0.000257216
1.95244e-06
0.000255231
1.98489e-06
0.000253214
2.0167e-06
0.000251167
2.04788e-06
0.000249088
2.07843e-06
0.00024698
2.10837e-06
0.000244842
2.13769e-06
0.000242676
2.1664e-06
0.000240481
2.1945e-06
0.000238259
2.22201e-06
0.00023601
2.24893e-06
0.000233735
2.27525e-06
0.000231434
2.301e-06
0.000229108
2.32617e-06
0.000226757
2.35077e-06
0.000224382
2.3748e-06
0.000221984
2.39828e-06
0.000219563
2.42121e-06
0.000217119
2.4436e-06
0.000214654
2.46544e-06
0.000212167
2.48676e-06
0.000209659
2.50756e-06
0.000207132
2.52783e-06
0.000204584
2.5476e-06
0.000202017
2.56686e-06
0.000199431
2.58562e-06
0.000196828
2.6039e-06
0.000194206
2.62169e-06
0.000191567
2.63901e-06
0.000188911
2.65585e-06
0.000186239
2.67224e-06
0.000183551
2.68817e-06
0.000180847
2.70366e-06
0.000178128
2.7187e-06
0.000175395
2.73332e-06
0.000172647
2.7475e-06
0.000169886
2.76127e-06
0.000167112
2.77463e-06
0.000164324
2.78758e-06
0.000161524
2.80014e-06
0.000158712
2.81231e-06
0.000155887
2.82409e-06
0.000153052
2.8355e-06
0.000150205
2.84654e-06
0.000147348
2.85722e-06
0.000144481
2.86754e-06
0.000141603
2.87752e-06
0.000138716
2.88716e-06
0.000135819
2.89647e-06
0.000132914
2.90545e-06
0.00013
2.91411e-06
0.000127077
2.92247e-06
0.000124147
2.93051e-06
0.000121209
2.93827e-06
0.000118263
2.94573e-06
0.00011531
2.9529e-06
0.00011235
2.9598e-06
0.000109384
2.96643e-06
0.000106411
2.9728e-06
0.000103432
2.9789e-06
0.000100447
2.98476e-06
9.7457e-05
2.99036e-06
9.44613e-05
2.99573e-06
9.14604e-05
3.00087e-06
8.84546e-05
3.00578e-06
8.54442e-05
3.01047e-06
8.24292e-05
3.01494e-06
7.941e-05
3.0192e-06
7.63868e-05
3.02325e-06
7.33597e-05
3.0271e-06
7.03289e-05
3.03076e-06
6.72947e-05
3.03423e-06
6.42572e-05
3.03751e-06
6.12166e-05
3.04061e-06
5.8173e-05
3.04353e-06
5.51267e-05
3.04629e-06
5.20779e-05
3.04887e-06
4.90266e-05
3.05128e-06
4.5973e-05
3.05354e-06
4.29174e-05
3.05564e-06
3.98598e-05
3.05758e-06
3.68004e-05
3.05938e-06
3.37394e-05
3.06102e-06
3.06769e-05
3.06252e-06
2.7613e-05
3.06387e-06
2.4548e-05
3.06508e-06
2.14818e-05
3.06616e-06
1.84147e-05
3.0671e-06
1.53468e-05
3.0679e-06
1.22782e-05
3.06856e-06
9.20915e-06
3.06909e-06
6.13965e-06
3.06949e-06
3.06989e-06
3.06976e-06
3.06989e-06
3.58784e-06
-7.17549e-06
7.17551e-06
-7.17515e-06
1.07628e-05
-7.17442e-06
1.43496e-05
-7.17331e-06
1.79356e-05
-7.17182e-06
2.15206e-05
-7.16994e-06
2.51046e-05
-7.16766e-06
2.86872e-05
-7.16498e-06
3.22682e-05
-7.16189e-06
3.58475e-05
-7.15838e-06
3.94249e-05
-7.15444e-06
4.3e-05
-7.15005e-06
4.65727e-05
-7.14521e-06
5.01428e-05
-7.13991e-06
5.371e-05
-7.13411e-06
5.7274e-05
-7.12782e-06
6.08347e-05
-7.121e-06
6.43916e-05
-7.11365e-06
6.79447e-05
-7.10574e-06
7.14934e-05
-7.09725e-06
7.50377e-05
-7.08815e-06
7.8577e-05
-7.07844e-06
8.21113e-05
-7.06807e-06
8.56399e-05
-7.05703e-06
8.91628e-05
-7.04529e-06
9.26794e-05
-7.03282e-06
9.61894e-05
-7.0196e-06
9.96924e-05
-7.0056e-06
0.000103188
-6.99079e-06
0.000106676
-6.97515e-06
0.000110155
-6.95863e-06
0.000113626
-6.94121e-06
0.000117088
-6.92286e-06
0.00012054
-6.90355e-06
0.000123982
-6.88325e-06
0.000127413
-6.86191e-06
0.000130833
-6.83952e-06
0.000134241
-6.81604e-06
0.000137637
-6.79143e-06
0.00014102
-6.76566e-06
0.00014439
-6.7387e-06
0.000147746
-6.71051e-06
0.000151087
-6.68107e-06
0.000154412
-6.65034e-06
0.000157722
-6.61828e-06
0.000161014
-6.58488e-06
0.00016429
-6.55008e-06
0.000167547
-6.51388e-06
0.000170785
-6.47623e-06
0.000174004
-6.43711e-06
0.000177203
-6.39648e-06
0.000180381
-6.35432e-06
0.000183536
-6.3106e-06
0.000186669
-6.2653e-06
0.000189779
-6.21839e-06
0.000192864
-6.16984e-06
0.000195925
-6.11964e-06
0.000198959
-6.06777e-06
0.000201966
-6.01419e-06
0.000204946
-5.95891e-06
0.000207898
-5.90191e-06
0.00021082
-5.84316e-06
0.000213711
-5.78266e-06
0.000216572
-5.7204e-06
0.000219401
-5.65636e-06
0.000222196
-5.59055e-06
0.000224958
-5.52295e-06
0.000227686
-5.45357e-06
0.000230377
-5.3824e-06
0.000233032
-5.30945e-06
0.00023565
-5.23472e-06
0.00023823
-5.15822e-06
0.00024077
-5.07996e-06
0.000243271
-4.99995e-06
0.00024573
-4.9182e-06
0.000248148
-4.83473e-06
0.000250523
-4.74956e-06
0.000252855
-4.6627e-06
0.000255142
-4.57418e-06
0.000257385
-4.48403e-06
0.000259581
-4.39228e-06
0.000261731
-4.29896e-06
0.000263834
-4.20409e-06
0.000265888
-4.10773e-06
0.000267893
-4.0099e-06
0.000269849
-3.91065e-06
0.000271754
-3.81002e-06
0.000273609
-3.70804e-06
0.000275411
-3.60477e-06
0.000277162
-3.50025e-06
0.000278859
-3.39453e-06
0.000280503
-3.28766e-06
0.000282093
-3.17969e-06
0.000283629
-3.07068e-06
0.00028511
-2.96069e-06
0.000286535
-2.84978e-06
0.000287904
-2.73799e-06
0.000289217
-2.6254e-06
0.000290473
-2.51206e-06
0.000291672
-2.39803e-06
0.000292814
-2.28337e-06
0.000293898
-2.16815e-06
0.000294924
-2.05242e-06
0.000295893
-1.93626e-06
0.000296803
-1.81972e-06
0.000297654
-1.70287e-06
0.000298447
-1.58576e-06
0.000299181
-1.46847e-06
0.000299857
-1.35105e-06
0.000300474
-1.23357e-06
0.000301032
-1.11609e-06
0.000301531
-9.98672e-07
0.000301972
-8.81376e-07
0.000302354
-7.64263e-07
0.000302677
-6.47393e-07
0.000302943
-5.30821e-07
0.00030315
-4.14606e-07
0.000303299
-2.988e-07
0.000303391
-1.83457e-07
0.000303425
-6.86289e-08
0.000303402
4.56334e-08
0.000303322
1.59281e-07
0.000303186
2.72266e-07
0.000302993
3.8454e-07
0.000302745
4.9606e-07
0.000302442
6.06782e-07
0.000302083
7.16665e-07
0.00030167
8.2567e-07
0.000301203
9.33759e-07
0.000300682
1.0409e-06
0.000300108
1.14705e-06
0.000299482
1.25218e-06
0.000298804
1.35626e-06
0.000298074
1.45927e-06
0.000297293
1.56116e-06
0.000296462
1.66192e-06
0.000295581
1.76153e-06
0.00029465
1.85996e-06
0.000293671
1.9572e-06
0.000292644
2.05323e-06
0.00029157
2.14803e-06
0.000290449
2.24158e-06
0.000289282
2.33387e-06
0.000288069
2.42489e-06
0.000286811
2.51462e-06
0.000285509
2.60306e-06
0.000284164
2.6902e-06
0.000282776
2.77603e-06
0.000281345
2.86054e-06
0.000279873
2.94374e-06
0.00027836
3.02562e-06
0.000276806
3.10618e-06
0.000275213
3.18541e-06
0.000273581
3.26332e-06
0.000271911
3.33991e-06
0.000270203
3.41518e-06
0.000268458
3.48914e-06
0.000266677
3.56178e-06
0.00026486
3.63312e-06
0.000263008
3.70316e-06
0.000261122
3.7719e-06
0.000259202
3.83935e-06
0.000257249
3.90552e-06
0.000255263
3.97041e-06
0.000253246
4.03403e-06
0.000251198
4.09639e-06
0.000249118
4.15749e-06
0.000247009
4.21735e-06
0.000244871
4.27599e-06
0.000242704
4.3334e-06
0.000240509
4.38961e-06
0.000238286
4.44462e-06
0.000236037
4.49844e-06
0.000233761
4.55109e-06
0.00023146
4.60258e-06
0.000229133
4.65291e-06
0.000226781
4.7021e-06
0.000224406
4.75017e-06
0.000222007
4.79712e-06
0.000219585
4.84297e-06
0.000217141
4.88773e-06
0.000214675
4.93142e-06
0.000212188
4.97405e-06
0.00020968
5.01563e-06
0.000207152
5.05618e-06
0.000204604
5.0957e-06
0.000202036
5.13422e-06
0.00019945
5.17174e-06
0.000196846
5.20828e-06
0.000194224
5.24386e-06
0.000191584
5.27849e-06
0.000188928
5.31217e-06
0.000186255
5.34494e-06
0.000183566
5.37679e-06
0.000180862
5.40776e-06
0.000178143
5.43784e-06
0.000175409
5.46706e-06
0.000172661
5.49543e-06
0.0001699
5.52296e-06
0.000167125
5.54967e-06
0.000164337
5.57557e-06
0.000161536
5.60067e-06
0.000158724
5.625e-06
0.000155899
5.64856e-06
0.000153063
5.67137e-06
0.000150216
5.69344e-06
0.000147359
5.71479e-06
0.000144491
5.73544e-06
0.000141613
5.75538e-06
0.000138725
5.77465e-06
0.000135829
5.79326e-06
0.000132923
5.81122e-06
0.000130008
5.82854e-06
0.000127086
5.84524e-06
0.000124155
5.86133e-06
0.000121216
5.87683e-06
0.00011827
5.89175e-06
0.000115317
5.90609e-06
0.000112357
5.91988e-06
0.00010939
5.93313e-06
0.000106417
5.94585e-06
0.000103438
5.95806e-06
0.000100453
5.96976e-06
9.74625e-05
5.98097e-06
9.44666e-05
5.99171e-06
9.14654e-05
6.00197e-06
8.84594e-05
6.01179e-06
8.54488e-05
6.02115e-06
8.24336e-05
6.03009e-06
7.94142e-05
6.0386e-06
7.63907e-05
6.04671e-06
7.33634e-05
6.05441e-06
7.03325e-05
6.06172e-06
6.72981e-05
6.06865e-06
6.42604e-05
6.07521e-06
6.12196e-05
6.0814e-06
5.81759e-05
6.08725e-06
5.51294e-05
6.09274e-06
5.20804e-05
6.0979e-06
4.90289e-05
6.10273e-06
4.59752e-05
6.10724e-06
4.29194e-05
6.11144e-06
3.98617e-05
6.11532e-06
3.68021e-05
6.1189e-06
3.3741e-05
6.12219e-06
3.06783e-05
6.12518e-06
2.76143e-05
6.12789e-06
2.45491e-05
6.13031e-06
2.14828e-05
6.13246e-06
1.84155e-05
6.13433e-06
1.53475e-05
6.13593e-06
1.22788e-05
6.13726e-06
9.20955e-06
6.13833e-06
6.13992e-06
6.13912e-06
3.07003e-06
6.13966e-06
6.13992e-06
3.58824e-06
-1.07637e-05
7.17628e-06
-1.07632e-05
1.0764e-05
-1.07621e-05
1.43511e-05
-1.07605e-05
1.79375e-05
-1.07582e-05
2.1523e-05
-1.07554e-05
2.51073e-05
-1.0752e-05
2.86903e-05
-1.0748e-05
3.22718e-05
-1.07434e-05
3.58515e-05
-1.07381e-05
3.94293e-05
-1.07322e-05
4.30049e-05
-1.07257e-05
4.65781e-05
-1.07184e-05
5.01487e-05
-1.07105e-05
5.37164e-05
-1.07018e-05
5.7281e-05
-1.06924e-05
6.08422e-05
-1.06822e-05
6.43997e-05
-1.06712e-05
6.79533e-05
-1.06593e-05
7.15027e-05
-1.06466e-05
7.50476e-05
-1.0633e-05
7.85876e-05
-1.06185e-05
8.21225e-05
-1.0603e-05
8.56519e-05
-1.05864e-05
8.91755e-05
-1.05688e-05
9.26928e-05
-1.05502e-05
9.62036e-05
-1.05304e-05
9.97074e-05
-1.05094e-05
0.000103204
-1.04873e-05
0.000106693
-1.04638e-05
0.000110173
-1.04391e-05
0.000113645
-1.0413e-05
0.000117107
-1.03855e-05
0.00012056
-1.03566e-05
0.000124003
-1.03262e-05
0.000127436
-1.02942e-05
0.000130857
-1.02607e-05
0.000134266
-1.02255e-05
0.000137663
-1.01886e-05
0.000141048
-1.015e-05
0.000144419
-1.01096e-05
0.000147775
-1.00673e-05
0.000151118
-1.00232e-05
0.000154444
-9.97717e-06
0.000157755
-9.92912e-06
0.000161049
-9.87905e-06
0.000164326
-9.82691e-06
0.000167585
-9.77264e-06
0.000170825
-9.7162e-06
0.000174045
-9.65755e-06
0.000177246
-9.59664e-06
0.000180425
-9.53344e-06
0.000183582
-9.4679e-06
0.000186717
-9.39997e-06
0.000189828
-9.32963e-06
0.000192915
-9.25684e-06
0.000195977
-9.18157e-06
0.000199013
-9.10377e-06
0.000202022
-9.02344e-06
0.000205004
-8.94054e-06
0.000207957
-8.85504e-06
0.000210881
-8.76694e-06
0.000213774
-8.6762e-06
0.000216637
-8.58282e-06
0.000219467
-8.48678e-06
0.000222265
-8.38806e-06
0.000225028
-8.28667e-06
0.000227757
-8.18259e-06
0.000230451
-8.07584e-06
0.000233108
-7.96641e-06
0.000235727
-7.85431e-06
0.000238309
-7.73955e-06
0.000240851
-7.62214e-06
0.000243353
-7.5021e-06
0.000245814
-7.37946e-06
0.000248234
-7.25423e-06
0.000250611
-7.12644e-06
0.000252944
-6.99612e-06
0.000255233
-6.86332e-06
0.000257477
-6.72806e-06
0.000259675
-6.59039e-06
0.000261827
-6.45036e-06
0.000263931
-6.30803e-06
0.000265986
-6.16343e-06
0.000267993
-6.01664e-06
0.00026995
-5.86771e-06
0.000271857
-5.7167e-06
0.000273712
-5.56368e-06
0.000275516
-5.40871e-06
0.000277268
-5.25187e-06
0.000278967
-5.09323e-06
0.000280612
-4.93286e-06
0.000282203
-4.77084e-06
0.00028374
-4.60726e-06
0.000285221
-4.44221e-06
0.000286647
-4.27576e-06
0.000288017
-4.10801e-06
0.000289331
-3.93904e-06
0.000290588
-3.76896e-06
0.000291787
-3.59783e-06
0.00029293
-3.42577e-06
0.000294015
-3.25285e-06
0.000295041
-3.07919e-06
0.00029601
-2.90486e-06
0.00029692
-2.72997e-06
0.000297772
-2.55461e-06
0.000298565
-2.37888e-06
0.000299299
-2.20286e-06
0.000299975
-2.02666e-06
0.000300592
-1.85036e-06
0.00030115
-1.67407e-06
0.000301649
-1.49786e-06
0.000302089
-1.32184e-06
0.000302471
-1.1461e-06
0.000302795
-9.70722e-07
0.00030306
-7.95794e-07
0.000303266
-6.21401e-07
0.000303415
-4.47624e-07
0.000303506
-2.74544e-07
0.00030354
-1.02237e-07
0.000303516
6.92195e-08
0.000303436
2.3975e-07
0.000303299
4.09285e-07
0.000303106
5.77753e-07
0.000302857
7.45087e-07
0.000302552
9.11221e-07
0.000302193
1.0761e-06
0.000301779
1.23965e-06
0.000301311
1.40183e-06
0.000300789
1.56258e-06
0.000300214
1.72185e-06
0.000299587
1.87958e-06
0.000298907
2.03574e-06
0.000298176
2.19028e-06
0.000297394
2.34315e-06
0.000296562
2.49432e-06
0.00029568
2.64377e-06
0.000294748
2.79144e-06
0.000293768
2.93732e-06
0.00029274
3.08139e-06
0.000291664
3.2236e-06
0.000290542
3.36395e-06
0.000289373
3.5024e-06
0.000288159
3.63894e-06
0.000286901
3.77355e-06
0.000285597
3.90622e-06
0.000284251
4.03693e-06
0.000282861
4.16568e-06
0.000281429
4.29246e-06
0.000279956
4.41726e-06
0.000278441
4.54008e-06
0.000276886
4.66092e-06
0.000275292
4.77977e-06
0.000273659
4.89664e-06
0.000271987
5.01152e-06
0.000270278
5.12443e-06
0.000268532
5.23535e-06
0.000266749
5.34431e-06
0.000264931
5.45131e-06
0.000263078
5.55636e-06
0.00026119
5.65947e-06
0.000259269
5.76064e-06
0.000257314
5.85988e-06
0.000255328
5.9572e-06
0.000253309
6.05262e-06
0.000251259
6.14615e-06
0.000249179
6.23779e-06
0.000247069
6.32757e-06
0.000244929
6.41551e-06
0.000242761
6.50162e-06
0.000240565
6.58592e-06
0.000238341
6.66842e-06
0.00023609
6.74914e-06
0.000233813
6.8281e-06
0.00023151
6.90531e-06
0.000229183
6.98079e-06
0.00022683
7.05457e-06
0.000224454
7.12665e-06
0.000222054
7.19706e-06
0.000219631
7.26582e-06
0.000217186
7.33295e-06
0.000214719
7.39847e-06
0.00021223
7.4624e-06
0.000209721
7.52475e-06
0.000207192
7.58555e-06
0.000204643
7.64482e-06
0.000202074
7.70258e-06
0.000199487
7.75884e-06
0.000196882
7.81364e-06
0.000194259
7.86699e-06
0.000191618
7.91891e-06
0.000188961
7.96942e-06
0.000186287
8.01855e-06
0.000183598
8.06632e-06
0.000180893
8.11274e-06
0.000178173
8.15785e-06
0.000175438
8.20166e-06
0.00017269
8.2442e-06
0.000169927
8.28547e-06
0.000167151
8.32552e-06
0.000164362
8.36435e-06
0.000161561
8.40199e-06
0.000158748
8.43846e-06
0.000155922
8.47379e-06
0.000153086
8.50798e-06
0.000150238
8.54108e-06
0.00014738
8.57308e-06
0.000144511
8.60403e-06
0.000141633
8.63394e-06
0.000138745
8.66282e-06
0.000135847
8.69072e-06
0.000132941
8.71763e-06
0.000130026
8.7436e-06
0.000127102
8.76863e-06
0.000124171
8.79275e-06
0.000121232
8.81598e-06
0.000118285
8.83834e-06
0.000115331
8.85984e-06
0.000112371
8.88052e-06
0.000109403
8.90037e-06
0.00010643
8.91944e-06
0.00010345
8.93773e-06
0.000100465
8.95527e-06
9.74735e-05
8.97207e-06
9.44771e-05
8.98815e-06
9.14755e-05
9.00354e-06
8.84691e-05
9.01824e-06
8.54579e-05
9.03228e-06
8.24423e-05
9.04567e-06
7.94225e-05
9.05843e-06
7.63987e-05
9.07057e-06
7.3371e-05
9.08211e-06
7.03396e-05
9.09307e-06
6.73048e-05
9.10345e-06
6.42667e-05
9.11328e-06
6.12256e-05
9.12256e-06
5.81815e-05
9.13131e-06
5.51347e-05
9.13955e-06
5.20853e-05
9.14728e-06
4.90336e-05
9.15452e-06
4.59795e-05
9.16127e-06
4.29234e-05
9.16755e-06
3.98654e-05
9.17337e-06
3.68055e-05
9.17874e-06
3.37441e-05
9.18366e-06
3.06811e-05
9.18814e-06
2.76168e-05
9.1922e-06
2.45513e-05
9.19583e-06
2.14847e-05
9.19904e-06
1.84172e-05
9.20185e-06
1.53489e-05
9.20424e-06
1.22799e-05
9.20624e-06
9.21037e-06
9.20783e-06
6.14047e-06
9.20903e-06
3.0703e-06
9.20982e-06
9.21022e-06
3.58881e-06
-1.43525e-05
7.17744e-06
-1.43518e-05
1.07657e-05
-1.43504e-05
1.43534e-05
-1.43482e-05
1.79404e-05
-1.43452e-05
2.15265e-05
-1.43415e-05
2.51114e-05
-1.4337e-05
2.86951e-05
-1.43316e-05
3.22772e-05
-1.43255e-05
3.58576e-05
-1.43185e-05
3.9436e-05
-1.43107e-05
4.30123e-05
-1.4302e-05
4.65862e-05
-1.42923e-05
5.01576e-05
-1.42818e-05
5.3726e-05
-1.42703e-05
5.72914e-05
-1.42577e-05
6.08534e-05
-1.42442e-05
6.44118e-05
-1.42296e-05
6.79663e-05
-1.42138e-05
7.15166e-05
-1.41969e-05
7.50624e-05
-1.41788e-05
7.86034e-05
-1.41595e-05
8.21393e-05
-1.41389e-05
8.56698e-05
-1.41169e-05
8.91944e-05
-1.40935e-05
9.27129e-05
-1.40687e-05
9.62249e-05
-1.40424e-05
9.973e-05
-1.40145e-05
0.000103228
-1.3985e-05
0.000106718
-1.39538e-05
0.000110199
-1.39209e-05
0.000113673
-1.38862e-05
0.000117137
-1.38496e-05
0.000120591
-1.38111e-05
0.000124036
-1.37706e-05
0.00012747
-1.37281e-05
0.000130892
-1.36834e-05
0.000134304
-1.36366e-05
0.000137703
-1.35875e-05
0.000141089
-1.35361e-05
0.000144461
-1.34823e-05
0.00014782
-1.34261e-05
0.000151164
-1.33673e-05
0.000154493
-1.3306e-05
0.000157806
-1.3242e-05
0.000161102
-1.31753e-05
0.000164381
-1.31059e-05
0.000167642
-1.30336e-05
0.000170884
-1.29584e-05
0.000174107
-1.28803e-05
0.000177309
-1.27991e-05
0.000180491
-1.27149e-05
0.000183651
-1.26276e-05
0.000186788
-1.25371e-05
0.000189901
-1.24433e-05
0.000192991
-1.23463e-05
0.000196055
-1.2246e-05
0.000199094
-1.21423e-05
0.000202106
-1.20353e-05
0.00020509
-1.19248e-05
0.000208046
-1.18108e-05
0.000210972
-1.16934e-05
0.000213868
-1.15724e-05
0.000216733
-1.14479e-05
0.000219566
-1.13199e-05
0.000222367
-1.11883e-05
0.000225133
-1.10531e-05
0.000227865
-1.09143e-05
0.000230561
-1.0772e-05
0.000233221
-1.0626e-05
0.000235843
-1.04766e-05
0.000238427
-1.03235e-05
0.000240972
-1.0167e-05
0.000243476
-1.00069e-05
0.00024594
-9.84331e-06
0.000248362
-9.67629e-06
0.000250742
-9.50586e-06
0.000253078
-9.33205e-06
0.000255369
-9.15491e-06
0.000257616
-8.9745e-06
0.000259816
-8.79087e-06
0.00026197
-8.60409e-06
0.000264076
-8.41422e-06
0.000266134
-8.22135e-06
0.000268143
-8.02553e-06
0.000270102
-7.82686e-06
0.000272011
-7.62541e-06
0.000273868
-7.42127e-06
0.000275674
-7.21454e-06
0.000277428
-7.0053e-06
0.000279128
-6.79365e-06
0.000280775
-6.5797e-06
0.000282368
-6.36356e-06
0.000283906
-6.14532e-06
0.000285389
-5.92512e-06
0.000286816
-5.70305e-06
0.000288187
-5.47925e-06
0.000289502
-5.25382e-06
0.00029076
-5.02689e-06
0.000291961
-4.79858e-06
0.000293104
-4.56901e-06
0.000294189
-4.33832e-06
0.000295217
-4.10661e-06
0.000296186
-3.87403e-06
0.000297097
-3.6407e-06
0.000297949
-3.40674e-06
0.000298742
-3.17228e-06
0.000299477
-2.93745e-06
0.000300152
-2.70236e-06
0.000300769
-2.46716e-06
0.000301327
-2.23195e-06
0.000301826
-1.99687e-06
0.000302266
-1.76204e-06
0.000302648
-1.52758e-06
0.000302971
-1.29361e-06
0.000303235
-1.06024e-06
0.000303441
-8.27585e-07
0.000303589
-5.95756e-07
0.00030368
-3.64858e-07
0.000303712
-1.34997e-07
0.000303688
9.37298e-08
0.000303606
3.21215e-07
0.000303468
5.47371e-07
0.000303274
7.721e-07
0.000303024
9.95312e-07
0.000302718
1.21692e-06
0.000302357
1.43685e-06
0.000301942
1.65501e-06
0.000301473
1.87133e-06
0.000300949
2.08574e-06
0.000300373
2.29817e-06
0.000299744
2.50855e-06
0.000299063
2.71683e-06
0.00029833
2.92294e-06
0.000297547
3.12683e-06
0.000296712
3.32846e-06
0.000295828
3.52776e-06
0.000294895
3.72471e-06
0.000293913
3.91927e-06
0.000292883
4.11139e-06
0.000291806
4.30105e-06
0.000290682
4.48821e-06
0.000289511
4.67284e-06
0.000288295
4.85492e-06
0.000287034
5.03442e-06
0.000285729
5.21133e-06
0.00028438
5.38563e-06
0.000282989
5.55731e-06
0.000281555
5.72636e-06
0.000280079
5.89277e-06
0.000278563
6.05653e-06
0.000277006
6.21765e-06
0.00027541
6.37613e-06
0.000273775
6.53195e-06
0.000272101
6.68512e-06
0.00027039
6.83565e-06
0.000268642
6.98354e-06
0.000266857
7.12881e-06
0.000265037
7.27146e-06
0.000263182
7.41152e-06
0.000261292
7.54898e-06
0.000259369
7.68385e-06
0.000257413
7.81616e-06
0.000255424
7.94591e-06
0.000253404
8.07311e-06
0.000251352
8.19779e-06
0.00024927
8.31996e-06
0.000247158
8.43964e-06
0.000245016
8.55687e-06
0.000242846
8.67166e-06
0.000240648
8.78403e-06
0.000238423
8.894e-06
0.00023617
9.0016e-06
0.000233891
9.10685e-06
0.000231587
9.20977e-06
0.000229257
9.31039e-06
0.000226903
9.40873e-06
0.000224525
9.50481e-06
0.000222123
9.59866e-06
0.000219699
9.69031e-06
0.000217252
9.77979e-06
0.000214783
9.86712e-06
0.000212293
9.95232e-06
0.000209783
1.00354e-05
0.000207252
1.01165e-05
0.000204701
1.01955e-05
0.000202131
1.02724e-05
0.000199543
1.03474e-05
0.000196936
1.04205e-05
0.000194311
1.04916e-05
0.00019167
1.05607e-05
0.000189011
1.06281e-05
0.000186336
1.06935e-05
0.000183645
1.07572e-05
0.000180939
1.08191e-05
0.000178217
1.08792e-05
0.000175482
1.09376e-05
0.000172732
1.09942e-05
0.000169968
1.10492e-05
0.000167191
1.11026e-05
0.000164401
1.11543e-05
0.000161598
1.12045e-05
0.000158784
1.12531e-05
0.000155957
1.13002e-05
0.000153119
1.13457e-05
0.000150271
1.13898e-05
0.000147411
1.14324e-05
0.000144542
1.14737e-05
0.000141662
1.15135e-05
0.000138773
1.1552e-05
0.000135875
1.15892e-05
0.000132967
1.1625e-05
0.000130051
1.16596e-05
0.000127127
1.1693e-05
0.000124195
1.17251e-05
0.000121254
1.1756e-05
0.000118307
1.17858e-05
0.000115352
1.18144e-05
0.000112391
1.1842e-05
0.000109423
1.18684e-05
0.000106449
1.18938e-05
0.000103468
1.19182e-05
0.000100482
1.19415e-05
9.749e-05
1.19639e-05
9.44929e-05
1.19853e-05
9.14906e-05
1.20058e-05
8.84835e-05
1.20254e-05
8.54717e-05
1.20441e-05
8.24554e-05
1.20619e-05
7.9435e-05
1.20789e-05
7.64105e-05
1.20951e-05
7.33822e-05
1.21104e-05
7.03503e-05
1.2125e-05
6.73149e-05
1.21388e-05
6.42763e-05
1.21519e-05
6.12346e-05
1.21643e-05
5.819e-05
1.21759e-05
5.51427e-05
1.21869e-05
5.20928e-05
1.21972e-05
4.90405e-05
1.22068e-05
4.5986e-05
1.22158e-05
4.29294e-05
1.22241e-05
3.98709e-05
1.22319e-05
3.68106e-05
1.2239e-05
3.37487e-05
1.22456e-05
3.06853e-05
1.22515e-05
2.76205e-05
1.22569e-05
2.45546e-05
1.22618e-05
2.14876e-05
1.22661e-05
1.84196e-05
1.22698e-05
1.53509e-05
1.2273e-05
1.22815e-05
1.22756e-05
9.21159e-06
1.22777e-05
6.14128e-06
1.22793e-05
3.0707e-06
1.22804e-05
1.22809e-05
3.58957e-06
-1.79421e-05
7.17897e-06
-1.79412e-05
1.0768e-05
-1.79394e-05
1.43565e-05
-1.79367e-05
1.79443e-05
-1.7933e-05
2.15311e-05
-1.79283e-05
2.51169e-05
-1.79227e-05
2.87014e-05
-1.79161e-05
3.22843e-05
-1.79084e-05
3.58656e-05
-1.78998e-05
3.94449e-05
-1.789e-05
4.30221e-05
-1.78792e-05
4.6597e-05
-1.78672e-05
5.01693e-05
-1.78541e-05
5.37388e-05
-1.78397e-05
5.73052e-05
-1.78242e-05
6.08683e-05
-1.78073e-05
6.44278e-05
-1.77891e-05
6.79835e-05
-1.77695e-05
7.1535e-05
-1.77485e-05
7.50821e-05
-1.77259e-05
7.86244e-05
-1.77018e-05
8.21617e-05
-1.76761e-05
8.56935e-05
-1.76488e-05
8.92197e-05
-1.76196e-05
9.27397e-05
-1.75887e-05
9.62532e-05
-1.75559e-05
9.97599e-05
-1.75212e-05
0.000103259
-1.74844e-05
0.000106751
-1.74455e-05
0.000110235
-1.74045e-05
0.00011371
-1.73612e-05
0.000117176
-1.73156e-05
0.000120632
-1.72676e-05
0.000124079
-1.72172e-05
0.000127515
-1.71641e-05
0.00013094
-1.71084e-05
0.000134353
-1.705e-05
0.000137755
-1.69888e-05
0.000141143
-1.69246e-05
0.000144518
-1.68575e-05
0.000147879
-1.67873e-05
0.000151226
-1.6714e-05
0.000154558
-1.66375e-05
0.000157873
-1.65576e-05
0.000161172
-1.64744e-05
0.000164454
-1.63877e-05
0.000167718
-1.62974e-05
0.000170963
-1.62036e-05
0.000174189
-1.6106e-05
0.000177394
-1.60047e-05
0.000180579
-1.58995e-05
0.000183742
-1.57904e-05
0.000186882
-1.56774e-05
0.000189999
-1.55603e-05
0.000193092
-1.54391e-05
0.00019616
-1.53138e-05
0.000199202
-1.51843e-05
0.000202217
-1.50505e-05
0.000205205
-1.49125e-05
0.000208164
-1.47701e-05
0.000211094
-1.46233e-05
0.000213994
-1.44721e-05
0.000216862
-1.43166e-05
0.000219699
-1.41565e-05
0.000222503
-1.3992e-05
0.000225273
-1.38231e-05
0.000228008
-1.36496e-05
0.000230708
-1.34717e-05
0.000233371
-1.32893e-05
0.000235997
-1.31024e-05
0.000238584
-1.2911e-05
0.000241133
-1.27153e-05
0.000243641
-1.25151e-05
0.000246108
-1.23106e-05
0.000248534
-1.21018e-05
0.000250917
-1.18887e-05
0.000253256
-1.16713e-05
0.000255551
-1.14498e-05
0.0002578
-1.12242e-05
0.000260004
-1.09945e-05
0.000262161
-1.07609e-05
0.00026427
-1.05234e-05
0.000266331
-1.02822e-05
0.000268343
-1.00373e-05
0.000270305
-9.78879e-06
0.000272216
-9.53682e-06
0.000274076
-9.28147e-06
0.000275885
-9.02287e-06
0.00027764
-8.76114e-06
0.000279343
-8.49639e-06
0.000280992
-8.22875e-06
0.000282587
-7.95837e-06
0.000284127
-7.68537e-06
0.000285612
-7.4099e-06
0.000287041
-7.1321e-06
0.000288414
-6.85212e-06
0.00028973
-6.5701e-06
0.000290989
-6.28621e-06
0.000292191
-6.00059e-06
0.000293336
-5.7134e-06
0.000294422
-5.42479e-06
0.00029545
-5.13492e-06
0.00029642
-4.84396e-06
0.000297332
-4.55205e-06
0.000298184
-4.25937e-06
0.000298978
-3.96606e-06
0.000299713
-3.67228e-06
0.000300389
-3.37819e-06
0.000301006
-3.08396e-06
0.000301563
-2.78972e-06
0.000302062
-2.49565e-06
0.000302502
-2.20188e-06
0.000302883
-1.90859e-06
0.000303205
-1.6159e-06
0.000303469
-1.32398e-06
0.000303674
-1.03295e-06
0.000303822
-7.4296e-07
0.000303911
-4.5414e-07
0.000303943
-1.6662e-07
0.000303917
1.19473e-07
0.000303834
4.04013e-07
0.000303694
6.86881e-07
0.000303499
9.6796e-07
0.000303247
1.24714e-06
0.000302939
1.52431e-06
0.000302577
1.79936e-06
0.00030216
2.0722e-06
0.000301688
2.34274e-06
0.000301163
2.61088e-06
0.000300585
2.87654e-06
0.000299954
3.13963e-06
0.00029927
3.40008e-06
0.000298536
3.65782e-06
0.00029775
3.91278e-06
0.000296913
4.1649e-06
0.000296027
4.41412e-06
0.000295091
4.66038e-06
0.000294107
4.90365e-06
0.000293074
5.14387e-06
0.000291994
5.381e-06
0.000290868
5.615e-06
0.000289695
5.84583e-06
0.000288476
6.07347e-06
0.000287213
6.29788e-06
0.000285905
6.51905e-06
0.000284553
6.73695e-06
0.000283159
6.95157e-06
0.000281723
7.1629e-06
0.000280245
7.37092e-06
0.000278725
7.57564e-06
0.000277166
7.77704e-06
0.000275567
7.97513e-06
0.000273929
8.16991e-06
0.000272253
8.36136e-06
0.000270539
8.54952e-06
0.000268788
8.73437e-06
0.000267001
8.91594e-06
0.000265178
9.09424e-06
0.00026332
9.26928e-06
0.000261428
9.44108e-06
0.000259503
9.60965e-06
0.000257544
9.775e-06
0.000255553
9.93715e-06
0.000253529
1.00961e-05
0.000251475
1.02519e-05
0.000249391
1.04046e-05
0.000247276
1.05542e-05
0.000245132
1.07007e-05
0.00024296
1.08441e-05
0.000240759
1.09845e-05
0.000238531
1.1122e-05
0.000236277
1.12564e-05
0.000233995
1.13879e-05
0.000231689
1.15165e-05
0.000229357
1.16423e-05
0.000227
1.17651e-05