/*--------------------------------*- C++ -*----------------------------------*\
| =========                 |                                                 |
| \\      /  F ield         | OpenFOAM: The Open Source CFD Toolbox           |
|  \\    /   O peration     | Version:  v2012                                 |
|   \\  /    A nd           | Website:  www.openfoam.com                      |
|    \\/     M anipulation  |                                                 |
\*---------------------------------------------------------------------------*/
FoamFile
{
    version     2.0;
    format      ascii;
    class       volVectorField;
    location    "4";
    object      Psi;
}
// * * * * * * * * * * * * * * * * * * * * * * * * * * * * * * * * * * * * * //

dimensions      [0 2 -1 0 0 0 0];


internalField   nonuniform List<vector> 
65536
(
(0 0 8.96948e-06)
(0 0 2.6908e-05)
(0 0 4.48451e-05)
(0 0 6.278e-05)
(0 0 8.07116e-05)
(0 0 9.86389e-05)
(0 0 0.000116561)
(0 0 0.000134477)
(0 0 0.000152386)
(0 0 0.000170286)
(0 0 0.000188177)
(0 0 0.000206058)
(0 0 0.000223927)
(0 0 0.000241783)
(0 0 0.000259626)
(0 0 0.000277453)
(0 0 0.000295264)
(0 0 0.000313057)
(0 0 0.000330831)
(0 0 0.000348584)
(0 0 0.000366315)
(0 0 0.000384023)
(0 0 0.000401706)
(0 0 0.000419362)
(0 0 0.000436989)
(0 0 0.000454586)
(0 0 0.00047215)
(0 0 0.000489681)
(0 0 0.000507176)
(0 0 0.000524632)
(0 0 0.000542048)
(0 0 0.000559422)
(0 0 0.00057675)
(0 0 0.000594032)
(0 0 0.000611264)
(0 0 0.000628444)
(0 0 0.000645569)
(0 0 0.000662637)
(0 0 0.000679644)
(0 0 0.000696589)
(0 0 0.000713467)
(0 0 0.000730277)
(0 0 0.000747014)
(0 0 0.000763676)
(0 0 0.000780259)
(0 0 0.000796761)
(0 0 0.000813177)
(0 0 0.000829504)
(0 0 0.000845739)
(0 0 0.000861878)
(0 0 0.000877917)
(0 0 0.000893852)
(0 0 0.00090968)
(0 0 0.000925397)
(0 0 0.000940998)
(0 0 0.00095648)
(0 0 0.000971838)
(0 0 0.000987069)
(0 0 0.00100217)
(0 0 0.00101713)
(0 0 0.00103195)
(0 0 0.00104663)
(0 0 0.00106116)
(0 0 0.00107553)
(0 0 0.00108975)
(0 0 0.00110381)
(0 0 0.00111769)
(0 0 0.00113141)
(0 0 0.00114495)
(0 0 0.00115831)
(0 0 0.00117149)
(0 0 0.00118448)
(0 0 0.00119727)
(0 0 0.00120987)
(0 0 0.00122226)
(0 0 0.00123445)
(0 0 0.00124642)
(0 0 0.00125818)
(0 0 0.00126973)
(0 0 0.00128105)
(0 0 0.00129214)
(0 0 0.001303)
(0 0 0.00131362)
(0 0 0.00132401)
(0 0 0.00133415)
(0 0 0.00134405)
(0 0 0.0013537)
(0 0 0.00136309)
(0 0 0.00137223)
(0 0 0.00138111)
(0 0 0.00138973)
(0 0 0.00139808)
(0 0 0.00140616)
(0 0 0.00141397)
(0 0 0.00142151)
(0 0 0.00142877)
(0 0 0.00143575)
(0 0 0.00144246)
(0 0 0.00144888)
(0 0 0.00145501)
(0 0 0.00146086)
(0 0 0.00146643)
(0 0 0.0014717)
(0 0 0.00147669)
(0 0 0.00148138)
(0 0 0.00148579)
(0 0 0.0014899)
(0 0 0.00149372)
(0 0 0.00149724)
(0 0 0.00150047)
(0 0 0.00150341)
(0 0 0.00150605)
(0 0 0.00150841)
(0 0 0.00151046)
(0 0 0.00151223)
(0 0 0.00151371)
(0 0 0.00151489)
(0 0 0.00151578)
(0 0 0.00151639)
(0 0 0.0015167)
(0 0 0.00151674)
(0 0 0.00151648)
(0 0 0.00151595)
(0 0 0.00151513)
(0 0 0.00151403)
(0 0 0.00151265)
(0 0 0.001511)
(0 0 0.00150908)
(0 0 0.00150688)
(0 0 0.00150442)
(0 0 0.00150168)
(0 0 0.00149869)
(0 0 0.00149543)
(0 0 0.00149192)
(0 0 0.00148814)
(0 0 0.00148412)
(0 0 0.00147984)
(0 0 0.00147532)
(0 0 0.00147055)
(0 0 0.00146554)
(0 0 0.00146029)
(0 0 0.00145481)
(0 0 0.0014491)
(0 0 0.00144315)
(0 0 0.00143698)
(0 0 0.00143059)
(0 0 0.00142397)
(0 0 0.00141714)
(0 0 0.0014101)
(0 0 0.00140285)
(0 0 0.00139539)
(0 0 0.00138773)
(0 0 0.00137987)
(0 0 0.00137181)
(0 0 0.00136356)
(0 0 0.00135512)
(0 0 0.00134649)
(0 0 0.00133768)
(0 0 0.00132869)
(0 0 0.00131952)
(0 0 0.00131018)
(0 0 0.00130067)
(0 0 0.00129099)
(0 0 0.00128115)
(0 0 0.00127115)
(0 0 0.00126099)
(0 0 0.00125068)
(0 0 0.00124021)
(0 0 0.0012296)
(0 0 0.00121884)
(0 0 0.00120794)
(0 0 0.00119689)
(0 0 0.00118572)
(0 0 0.00117441)
(0 0 0.00116297)
(0 0 0.0011514)
(0 0 0.00113971)
(0 0 0.0011279)
(0 0 0.00111597)
(0 0 0.00110392)
(0 0 0.00109176)
(0 0 0.00107948)
(0 0 0.0010671)
(0 0 0.00105462)
(0 0 0.00104203)
(0 0 0.00102934)
(0 0 0.00101656)
(0 0 0.00100368)
(0 0 0.000990704)
(0 0 0.00097764)
(0 0 0.000964489)
(0 0 0.000951252)
(0 0 0.000937932)
(0 0 0.000924531)
(0 0 0.000911052)
(0 0 0.000897496)
(0 0 0.000883866)
(0 0 0.000870164)
(0 0 0.000856392)
(0 0 0.000842552)
(0 0 0.000828647)
(0 0 0.000814677)
(0 0 0.000800646)
(0 0 0.000786555)
(0 0 0.000772406)
(0 0 0.0007582)
(0 0 0.000743941)
(0 0 0.000729628)
(0 0 0.000715265)
(0 0 0.000700853)
(0 0 0.000686394)
(0 0 0.000671888)
(0 0 0.000657339)
(0 0 0.000642747)
(0 0 0.000628114)
(0 0 0.000613441)
(0 0 0.000598731)
(0 0 0.000583983)
(0 0 0.000569201)
(0 0 0.000554384)
(0 0 0.000539535)
(0 0 0.000524655)
(0 0 0.000509745)
(0 0 0.000494807)
(0 0 0.00047984)
(0 0 0.000464848)
(0 0 0.00044983)
(0 0 0.000434788)
(0 0 0.000419724)
(0 0 0.000404637)
(0 0 0.00038953)
(0 0 0.000374403)
(0 0 0.000359257)
(0 0 0.000344093)
(0 0 0.000328912)
(0 0 0.000313716)
(0 0 0.000298504)
(0 0 0.000283278)
(0 0 0.000268039)
(0 0 0.000252787)
(0 0 0.000237523)
(0 0 0.000222249)
(0 0 0.000206964)
(0 0 0.000191671)
(0 0 0.000176368)
(0 0 0.000161058)
(0 0 0.00014574)
(0 0 0.000130416)
(0 0 0.000115086)
(0 0 9.97517e-05)
(0 0 8.44126e-05)
(0 0 6.90699e-05)
(0 0 5.37241e-05)
(0 0 3.8376e-05)
(0 0 2.30263e-05)
(0 0 7.67554e-06)
(0 0 2.69089e-05)
(0 0 8.07252e-05)
(0 0 0.000134538)
(0 0 0.000188343)
(0 0 0.000242139)
(0 0 0.000295922)
(0 0 0.000349689)
(0 0 0.000403438)
(0 0 0.000457165)
(0 0 0.000510867)
(0 0 0.000564541)
(0 0 0.000618184)
(0 0 0.000671793)
(0 0 0.000725363)
(0 0 0.000778891)
(0 0 0.000832375)
(0 0 0.000885808)
(0 0 0.000939189)
(0 0 0.000992512)
(0 0 0.00104577)
(0 0 0.00109897)
(0 0 0.00115209)
(0 0 0.00120514)
(0 0 0.00125811)
(0 0 0.001311)
(0 0 0.00136379)
(0 0 0.00141648)
(0 0 0.00146908)
(0 0 0.00152156)
(0 0 0.00157394)
(0 0 0.00162619)
(0 0 0.00167831)
(0 0 0.0017303)
(0 0 0.00178215)
(0 0 0.00183384)
(0 0 0.00188539)
(0 0 0.00193676)
(0 0 0.00198797)
(0 0 0.002039)
(0 0 0.00208983)
(0 0 0.00214047)
(0 0 0.0021909)
(0 0 0.00224112)
(0 0 0.00229111)
(0 0 0.00234086)
(0 0 0.00239037)
(0 0 0.00243962)
(0 0 0.0024886)
(0 0 0.00253731)
(0 0 0.00258573)
(0 0 0.00263385)
(0 0 0.00268166)
(0 0 0.00272915)
(0 0 0.00277631)
(0 0 0.00282311)
(0 0 0.00286956)
(0 0 0.00291564)
(0 0 0.00296134)
(0 0 0.00300664)
(0 0 0.00305153)
(0 0 0.003096)
(0 0 0.00314004)
(0 0 0.00318363)
(0 0 0.00322676)
(0 0 0.00326941)
(0 0 0.00331158)
(0 0 0.00335325)
(0 0 0.00339441)
(0 0 0.00343503)
(0 0 0.00347512)
(0 0 0.00351465)
(0 0 0.00355362)
(0 0 0.003592)
(0 0 0.0036298)
(0 0 0.00366698)
(0 0 0.00370355)
(0 0 0.00373948)
(0 0 0.00377477)
(0 0 0.0038094)
(0 0 0.00384336)
(0 0 0.00387664)
(0 0 0.00390923)
(0 0 0.00394111)
(0 0 0.00397227)
(0 0 0.00400271)
(0 0 0.0040324)
(0 0 0.00406135)
(0 0 0.00408954)
(0 0 0.00411696)
(0 0 0.00414359)
(0 0 0.00416945)
(0 0 0.0041945)
(0 0 0.00421875)
(0 0 0.00424218)
(0 0 0.0042648)
(0 0 0.00428658)
(0 0 0.00430754)
(0 0 0.00432765)
(0 0 0.00434691)
(0 0 0.00436532)
(0 0 0.00438288)
(0 0 0.00439957)
(0 0 0.0044154)
(0 0 0.00443035)
(0 0 0.00444444)
(0 0 0.00445765)
(0 0 0.00446998)
(0 0 0.00448144)
(0 0 0.00449201)
(0 0 0.00450171)
(0 0 0.00451052)
(0 0 0.00451846)
(0 0 0.00452551)
(0 0 0.00453169)
(0 0 0.00453698)
(0 0 0.00454141)
(0 0 0.00454496)
(0 0 0.00454764)
(0 0 0.00454945)
(0 0 0.0045504)
(0 0 0.00455049)
(0 0 0.00454973)
(0 0 0.00454812)
(0 0 0.00454566)
(0 0 0.00454237)
(0 0 0.00453824)
(0 0 0.00453328)
(0 0 0.0045275)
(0 0 0.00452091)
(0 0 0.00451352)
(0 0 0.00450532)
(0 0 0.00449633)
(0 0 0.00448656)
(0 0 0.004476)
(0 0 0.00446469)
(0 0 0.00445261)
(0 0 0.00443978)
(0 0 0.0044262)
(0 0 0.0044119)
(0 0 0.00439687)
(0 0 0.00438112)
(0 0 0.00436467)
(0 0 0.00434752)
(0 0 0.00432968)
(0 0 0.00431116)
(0 0 0.00429198)
(0 0 0.00427214)
(0 0 0.00425164)
(0 0 0.00423052)
(0 0 0.00420876)
(0 0 0.00418638)
(0 0 0.00416339)
(0 0 0.0041398)
(0 0 0.00411563)
(0 0 0.00409087)
(0 0 0.00406555)
(0 0 0.00403966)
(0 0 0.00401323)
(0 0 0.00398625)
(0 0 0.00395875)
(0 0 0.00393072)
(0 0 0.00390219)
(0 0 0.00387315)
(0 0 0.00384362)
(0 0 0.00381361)
(0 0 0.00378313)
(0 0 0.00375218)
(0 0 0.00372078)
(0 0 0.00368893)
(0 0 0.00365665)
(0 0 0.00362395)
(0 0 0.00359082)
(0 0 0.00355729)
(0 0 0.00352336)
(0 0 0.00348904)
(0 0 0.00345433)
(0 0 0.00341926)
(0 0 0.00338381)
(0 0 0.00334802)
(0 0 0.00331187)
(0 0 0.00327538)
(0 0 0.00323856)
(0 0 0.00320142)
(0 0 0.00316396)
(0 0 0.0031262)
(0 0 0.00308813)
(0 0 0.00304977)
(0 0 0.00301113)
(0 0 0.0029722)
(0 0 0.00293301)
(0 0 0.00289355)
(0 0 0.00285384)
(0 0 0.00281388)
(0 0 0.00277367)
(0 0 0.00273323)
(0 0 0.00269256)
(0 0 0.00265167)
(0 0 0.00261056)
(0 0 0.00256925)
(0 0 0.00252772)
(0 0 0.00248601)
(0 0 0.0024441)
(0 0 0.002402)
(0 0 0.00235972)
(0 0 0.00231727)
(0 0 0.00227466)
(0 0 0.00223188)
(0 0 0.00218894)
(0 0 0.00214585)
(0 0 0.00210261)
(0 0 0.00205923)
(0 0 0.00201571)
(0 0 0.00197206)
(0 0 0.00192828)
(0 0 0.00188438)
(0 0 0.00184036)
(0 0 0.00179623)
(0 0 0.00175199)
(0 0 0.00170764)
(0 0 0.00166319)
(0 0 0.00161864)
(0 0 0.001574)
(0 0 0.00152927)
(0 0 0.00148445)
(0 0 0.00143955)
(0 0 0.00139457)
(0 0 0.00134952)
(0 0 0.00130439)
(0 0 0.00125919)
(0 0 0.00121393)
(0 0 0.00116861)
(0 0 0.00112323)
(0 0 0.00107779)
(0 0 0.0010323)
(0 0 0.000986754)
(0 0 0.000941163)
(0 0 0.000895527)
(0 0 0.000849848)
(0 0 0.000804129)
(0 0 0.000758373)
(0 0 0.000712582)
(0 0 0.000666758)
(0 0 0.000620903)
(0 0 0.000575021)
(0 0 0.000529112)
(0 0 0.00048318)
(0 0 0.000437227)
(0 0 0.000391254)
(0 0 0.000345265)
(0 0 0.00029926)
(0 0 0.000253242)
(0 0 0.000207213)
(0 0 0.000161175)
(0 0 0.00011513)
(0 0 6.90799e-05)
(0 0 2.3027e-05)
(0 0 4.48497e-05)
(0 0 0.000134547)
(0 0 0.000224237)
(0 0 0.000313916)
(0 0 0.000403579)
(0 0 0.000493221)
(0 0 0.000582836)
(0 0 0.000672421)
(0 0 0.00076197)
(0 0 0.000851477)
(0 0 0.000940938)
(0 0 0.00103035)
(0 0 0.0011197)
(0 0 0.00120899)
(0 0 0.0012982)
(0 0 0.00138735)
(0 0 0.00147641)
(0 0 0.00156538)
(0 0 0.00165426)
(0 0 0.00174303)
(0 0 0.0018317)
(0 0 0.00192024)
(0 0 0.00200866)
(0 0 0.00209695)
(0 0 0.0021851)
(0 0 0.00227309)
(0 0 0.00236092)
(0 0 0.00244859)
(0 0 0.00253607)
(0 0 0.00262336)
(0 0 0.00271045)
(0 0 0.00279733)
(0 0 0.00288399)
(0 0 0.00297041)
(0 0 0.00305658)
(0 0 0.0031425)
(0 0 0.00322813)
(0 0 0.00331349)
(0 0 0.00339854)
(0 0 0.00348328)
(0 0 0.00356768)
(0 0 0.00365175)
(0 0 0.00373545)
(0 0 0.00381877)
(0 0 0.00390171)
(0 0 0.00398423)
(0 0 0.00406633)
(0 0 0.00414798)
(0 0 0.00422918)
(0 0 0.00430989)
(0 0 0.0043901)
(0 0 0.0044698)
(0 0 0.00454896)
(0 0 0.00462756)
(0 0 0.00470559)
(0 0 0.00478302)
(0 0 0.00485983)
(0 0 0.00493601)
(0 0 0.00501152)
(0 0 0.00508636)
(0 0 0.00516049)
(0 0 0.0052339)
(0 0 0.00530656)
(0 0 0.00537846)
(0 0 0.00544957)
(0 0 0.00551987)
(0 0 0.00558933)
(0 0 0.00565793)
(0 0 0.00572566)
(0 0 0.00579249)
(0 0 0.00585839)
(0 0 0.00592335)
(0 0 0.00598734)
(0 0 0.00605034)
(0 0 0.00611233)
(0 0 0.00617329)
(0 0 0.00623319)
(0 0 0.00629202)
(0 0 0.00634975)
(0 0 0.00640637)
(0 0 0.00646185)
(0 0 0.00651617)
(0 0 0.00656932)
(0 0 0.00662127)
(0 0 0.006672)
(0 0 0.00672151)
(0 0 0.00676977)
(0 0 0.00681676)
(0 0 0.00686246)
(0 0 0.00690687)
(0 0 0.00694997)
(0 0 0.00699173)
(0 0 0.00703216)
(0 0 0.00707122)
(0 0 0.00710892)
(0 0 0.00714524)
(0 0 0.00718017)
(0 0 0.00721369)
(0 0 0.0072458)
(0 0 0.0072765)
(0 0 0.00730576)
(0 0 0.00733358)
(0 0 0.00735997)
(0 0 0.0073849)
(0 0 0.00740838)
(0 0 0.0074304)
(0 0 0.00745096)
(0 0 0.00747005)
(0 0 0.00748767)
(0 0 0.00750383)
(0 0 0.00751852)
(0 0 0.00753174)
(0 0 0.0075435)
(0 0 0.00755379)
(0 0 0.00756262)
(0 0 0.00756999)
(0 0 0.0075759)
(0 0 0.00758036)
(0 0 0.00758338)
(0 0 0.00758496)
(0 0 0.00758511)
(0 0 0.00758383)
(0 0 0.00758114)
(0 0 0.00757704)
(0 0 0.00757154)
(0 0 0.00756465)
(0 0 0.00755639)
(0 0 0.00754675)
(0 0 0.00753576)
(0 0 0.00752342)
(0 0 0.00750975)
(0 0 0.00749476)
(0 0 0.00747846)
(0 0 0.00746087)
(0 0 0.00744199)
(0 0 0.00742185)
(0 0 0.00740046)
(0 0 0.00737783)
(0 0 0.00735397)
(0 0 0.00732891)
(0 0 0.00730266)
(0 0 0.00727522)
(0 0 0.00724663)
(0 0 0.00721689)
(0 0 0.00718602)
(0 0 0.00715403)
(0 0 0.00712095)
(0 0 0.00708679)
(0 0 0.00705156)
(0 0 0.00701529)
(0 0 0.00697798)
(0 0 0.00693966)
(0 0 0.00690034)
(0 0 0.00686003)
(0 0 0.00681876)
(0 0 0.00677654)
(0 0 0.00673339)
(0 0 0.00668932)
(0 0 0.00664435)
(0 0 0.0065985)
(0 0 0.00655178)
(0 0 0.00650421)
(0 0 0.0064558)
(0 0 0.00640658)
(0 0 0.00635655)
(0 0 0.00630573)
(0 0 0.00625414)
(0 0 0.0062018)
(0 0 0.00614871)
(0 0 0.0060949)
(0 0 0.00604038)
(0 0 0.00598516)
(0 0 0.00592927)
(0 0 0.0058727)
(0 0 0.00581549)
(0 0 0.00575764)
(0 0 0.00569917)
(0 0 0.00564009)
(0 0 0.00558042)
(0 0 0.00552016)
(0 0 0.00545934)
(0 0 0.00539797)
(0 0 0.00533606)
(0 0 0.00527362)
(0 0 0.00521067)
(0 0 0.00514721)
(0 0 0.00508327)
(0 0 0.00501886)
(0 0 0.00495398)
(0 0 0.00488865)
(0 0 0.00482288)
(0 0 0.00475668)
(0 0 0.00469007)
(0 0 0.00462306)
(0 0 0.00455565)
(0 0 0.00448786)
(0 0 0.0044197)
(0 0 0.00435118)
(0 0 0.00428231)
(0 0 0.0042131)
(0 0 0.00414356)
(0 0 0.0040737)
(0 0 0.00400354)
(0 0 0.00393307)
(0 0 0.00386232)
(0 0 0.00379128)
(0 0 0.00371997)
(0 0 0.0036484)
(0 0 0.00357658)
(0 0 0.00350451)
(0 0 0.0034322)
(0 0 0.00335967)
(0 0 0.00328691)
(0 0 0.00321395)
(0 0 0.00314077)
(0 0 0.0030674)
(0 0 0.00299384)
(0 0 0.0029201)
(0 0 0.00284618)
(0 0 0.00277209)
(0 0 0.00269784)
(0 0 0.00262343)
(0 0 0.00254887)
(0 0 0.00247417)
(0 0 0.00239934)
(0 0 0.00232437)
(0 0 0.00224927)
(0 0 0.00217406)
(0 0 0.00209873)
(0 0 0.00202329)
(0 0 0.00194775)
(0 0 0.00187211)
(0 0 0.00179638)
(0 0 0.00172055)
(0 0 0.00164464)
(0 0 0.00156866)
(0 0 0.00149259)
(0 0 0.00141646)
(0 0 0.00134026)
(0 0 0.001264)
(0 0 0.00118767)
(0 0 0.0011113)
(0 0 0.00103487)
(0 0 0.000958397)
(0 0 0.000881881)
(0 0 0.000805325)
(0 0 0.000728734)
(0 0 0.00065211)
(0 0 0.000575458)
(0 0 0.000498781)
(0 0 0.000422082)
(0 0 0.000345365)
(0 0 0.000268633)
(0 0 0.000191889)
(0 0 0.000115137)
(0 0 3.83794e-05)
(0 0 6.27929e-05)
(0 0 0.000188376)
(0 0 0.000313949)
(0 0 0.000439506)
(0 0 0.000565041)
(0 0 0.000690546)
(0 0 0.000816015)
(0 0 0.000941441)
(0 0 0.00106682)
(0 0 0.00119213)
(0 0 0.00131739)
(0 0 0.00144257)
(0 0 0.00156767)
(0 0 0.00169268)
(0 0 0.00181759)
(0 0 0.0019424)
(0 0 0.0020671)
(0 0 0.00219167)
(0 0 0.00231611)
(0 0 0.0024404)
(0 0 0.00256454)
(0 0 0.00268852)
(0 0 0.00281232)
(0 0 0.00293593)
(0 0 0.00305935)
(0 0 0.00318255)
(0 0 0.00330554)
(0 0 0.00342828)
(0 0 0.00355077)
(0 0 0.00367299)
(0 0 0.00379494)
(0 0 0.00391658)
(0 0 0.00403792)
(0 0 0.00415893)
(0 0 0.00427959)
(0 0 0.00439988)
(0 0 0.0045198)
(0 0 0.00463931)
(0 0 0.0047584)
(0 0 0.00487705)
(0 0 0.00499525)
(0 0 0.00511295)
(0 0 0.00523016)
(0 0 0.00534684)
(0 0 0.00546297)
(0 0 0.00557853)
(0 0 0.00569349)
(0 0 0.00580783)
(0 0 0.00592153)
(0 0 0.00603455)
(0 0 0.00614688)
(0 0 0.00625848)
(0 0 0.00636933)
(0 0 0.0064794)
(0 0 0.00658867)
(0 0 0.0066971)
(0 0 0.00680467)
(0 0 0.00691134)
(0 0 0.00701709)
(0 0 0.00712189)
(0 0 0.00722571)
(0 0 0.00732851)
(0 0 0.00743027)
(0 0 0.00753096)
(0 0 0.00763054)
(0 0 0.00772899)
(0 0 0.00782627)
(0 0 0.00792234)
(0 0 0.00801719)
(0 0 0.00811078)
(0 0 0.00820308)
(0 0 0.00829405)
(0 0 0.00838367)
(0 0 0.0084719)
(0 0 0.00855872)
(0 0 0.00864409)
(0 0 0.00872798)
(0 0 0.00881037)
(0 0 0.00889123)
(0 0 0.00897052)
(0 0 0.00904822)
(0 0 0.00912429)
(0 0 0.00919873)
(0 0 0.00927148)
(0 0 0.00934254)
(0 0 0.00941187)
(0 0 0.00947946)
(0 0 0.00954526)
(0 0 0.00960928)
(0 0 0.00967147)
(0 0 0.00973182)
(0 0 0.00979032)
(0 0 0.00984693)
(0 0 0.00990164)
(0 0 0.00995444)
(0 0 0.0100053)
(0 0 0.0100542)
(0 0 0.0101012)
(0 0 0.0101461)
(0 0 0.0101891)
(0 0 0.0102301)
(0 0 0.010269)
(0 0 0.010306)
(0 0 0.0103409)
(0 0 0.0103738)
(0 0 0.0104046)
(0 0 0.0104334)
(0 0 0.0104601)
(0 0 0.0104848)
(0 0 0.0105074)
(0 0 0.010528)
(0 0 0.0105465)
(0 0 0.010563)
(0 0 0.0105774)
(0 0 0.0105897)
(0 0 0.0106)
(0 0 0.0106083)
(0 0 0.0106145)
(0 0 0.0106188)
(0 0 0.010621)
(0 0 0.0106212)
(0 0 0.0106194)
(0 0 0.0106156)
(0 0 0.0106098)
(0 0 0.0106021)
(0 0 0.0105925)
(0 0 0.0105809)
(0 0 0.0105674)
(0 0 0.010552)
(0 0 0.0105347)
(0 0 0.0105155)
(0 0 0.0104945)
(0 0 0.0104717)
(0 0 0.010447)
(0 0 0.0104206)
(0 0 0.0103924)
(0 0 0.0103624)
(0 0 0.0103307)
(0 0 0.0102973)
(0 0 0.0102622)
(0 0 0.0102254)
(0 0 0.010187)
(0 0 0.0101469)
(0 0 0.0101052)
(0 0 0.010062)
(0 0 0.0100172)
(0 0 0.00997086)
(0 0 0.00992301)
(0 0 0.00987367)
(0 0 0.00982286)
(0 0 0.00977061)
(0 0 0.00971693)
(0 0 0.00966186)
(0 0 0.00960541)
(0 0 0.00954761)
(0 0 0.00948848)
(0 0 0.00942804)
(0 0 0.00936632)
(0 0 0.00930334)
(0 0 0.00923913)
(0 0 0.0091737)
(0 0 0.00910707)
(0 0 0.00903928)
(0 0 0.00897034)
(0 0 0.00890028)
(0 0 0.00882911)
(0 0 0.00875687)
(0 0 0.00868356)
(0 0 0.00860922)
(0 0 0.00853387)
(0 0 0.00845752)
(0 0 0.00838019)
(0 0 0.00830192)
(0 0 0.00822271)
(0 0 0.00814259)
(0 0 0.00806158)
(0 0 0.0079797)
(0 0 0.00789697)
(0 0 0.00781341)
(0 0 0.00772903)
(0 0 0.00764387)
(0 0 0.00755792)
(0 0 0.00747123)
(0 0 0.0073838)
(0 0 0.00729564)
(0 0 0.00720679)
(0 0 0.00711726)
(0 0 0.00702706)
(0 0 0.00693621)
(0 0 0.00684473)
(0 0 0.00675264)
(0 0 0.00665995)
(0 0 0.00656667)
(0 0 0.00647284)
(0 0 0.00637845)
(0 0 0.00628353)
(0 0 0.00618809)
(0 0 0.00609215)
(0 0 0.00599571)
(0 0 0.00589881)
(0 0 0.00580144)
(0 0 0.00570362)
(0 0 0.00560538)
(0 0 0.00550671)
(0 0 0.00540764)
(0 0 0.00530818)
(0 0 0.00520834)
(0 0 0.00510813)
(0 0 0.00500756)
(0 0 0.00490665)
(0 0 0.00480541)
(0 0 0.00470385)
(0 0 0.00460198)
(0 0 0.00449982)
(0 0 0.00439737)
(0 0 0.00429464)
(0 0 0.00419164)
(0 0 0.00408839)
(0 0 0.00398489)
(0 0 0.00388116)
(0 0 0.0037772)
(0 0 0.00367302)
(0 0 0.00356863)
(0 0 0.00346404)
(0 0 0.00335926)
(0 0 0.0032543)
(0 0 0.00314916)
(0 0 0.00304385)
(0 0 0.00293838)
(0 0 0.00283276)
(0 0 0.00272699)
(0 0 0.00262109)
(0 0 0.00251506)
(0 0 0.0024089)
(0 0 0.00230262)
(0 0 0.00219623)
(0 0 0.00208973)
(0 0 0.00198314)
(0 0 0.00187645)
(0 0 0.00176968)
(0 0 0.00166282)
(0 0 0.00155589)
(0 0 0.00144889)
(0 0 0.00134182)
(0 0 0.00123469)
(0 0 0.00112751)
(0 0 0.00102027)
(0 0 0.000912996)
(0 0 0.000805678)
(0 0 0.000698325)
(0 0 0.000590941)
(0 0 0.000483532)
(0 0 0.000376102)
(0 0 0.000268656)
(0 0 0.000161198)
(0 0 5.37335e-05)
(0 0 8.07395e-05)
(0 0 0.000242215)
(0 0 0.000403678)
(0 0 0.00056512)
(0 0 0.000726533)
(0 0 0.000887909)
(0 0 0.00104924)
(0 0 0.00121051)
(0 0 0.00137172)
(0 0 0.00153286)
(0 0 0.00169391)
(0 0 0.00185487)
(0 0 0.00201573)
(0 0 0.00217647)
(0 0 0.00233709)
(0 0 0.00249757)
(0 0 0.00265791)
(0 0 0.00281809)
(0 0 0.0029781)
(0 0 0.00313793)
(0 0 0.00329755)
(0 0 0.00345697)
(0 0 0.00361617)
(0 0 0.00377512)
(0 0 0.00393382)
(0 0 0.00409225)
(0 0 0.00425039)
(0 0 0.00440822)
(0 0 0.00456574)
(0 0 0.00472291)
(0 0 0.00487972)
(0 0 0.00503615)
(0 0 0.00519218)
(0 0 0.00534779)
(0 0 0.00550296)
(0 0 0.00565766)
(0 0 0.00581186)
(0 0 0.00596556)
(0 0 0.00611871)
(0 0 0.0062713)
(0 0 0.00642329)
(0 0 0.00657467)
(0 0 0.0067254)
(0 0 0.00687546)
(0 0 0.00702481)
(0 0 0.00717343)
(0 0 0.00732128)
(0 0 0.00746833)
(0 0 0.00761455)
(0 0 0.00775992)
(0 0 0.00790438)
(0 0 0.00804792)
(0 0 0.00819049)
(0 0 0.00833206)
(0 0 0.00847259)
(0 0 0.00861205)
(0 0 0.0087504)
(0 0 0.00888761)
(0 0 0.00902362)
(0 0 0.00915842)
(0 0 0.00929195)
(0 0 0.00942418)
(0 0 0.00955507)
(0 0 0.00968457)
(0 0 0.00981266)
(0 0 0.00993929)
(0 0 0.0100644)
(0 0 0.010188)
(0 0 0.01031)
(0 0 0.0104304)
(0 0 0.0105491)
(0 0 0.0106661)
(0 0 0.0107814)
(0 0 0.0108949)
(0 0 0.0110066)
(0 0 0.0111164)
(0 0 0.0112243)
(0 0 0.0113303)
(0 0 0.0114343)
(0 0 0.0115363)
(0 0 0.0116362)
(0 0 0.0117341)
(0 0 0.0118298)
(0 0 0.0119234)
(0 0 0.0120148)
(0 0 0.012104)
(0 0 0.0121909)
(0 0 0.0122756)
(0 0 0.0123579)
(0 0 0.0124379)
(0 0 0.0125156)
(0 0 0.0125908)
(0 0 0.0126636)
(0 0 0.012734)
(0 0 0.0128019)
(0 0 0.0128673)
(0 0 0.0129302)
(0 0 0.0129906)
(0 0 0.0130485)
(0 0 0.0131037)
(0 0 0.0131564)
(0 0 0.0132065)
(0 0 0.0132541)
(0 0 0.013299)
(0 0 0.0133412)
(0 0 0.0133809)
(0 0 0.0134179)
(0 0 0.0134523)
(0 0 0.013484)
(0 0 0.0135131)
(0 0 0.0135395)
(0 0 0.0135633)
(0 0 0.0135845)
(0 0 0.013603)
(0 0 0.0136189)
(0 0 0.0136321)
(0 0 0.0136427)
(0 0 0.0136508)
(0 0 0.0136562)
(0 0 0.013659)
(0 0 0.0136592)
(0 0 0.0136569)
(0 0 0.013652)
(0 0 0.0136446)
(0 0 0.0136346)
(0 0 0.0136222)
(0 0 0.0136073)
(0 0 0.0135899)
(0 0 0.0135701)
(0 0 0.0135478)
(0 0 0.0135231)
(0 0 0.0134961)
(0 0 0.0134667)
(0 0 0.013435)
(0 0 0.0134009)
(0 0 0.0133646)
(0 0 0.0133261)
(0 0 0.0132853)
(0 0 0.0132423)
(0 0 0.0131971)
(0 0 0.0131498)
(0 0 0.0131003)
(0 0 0.0130488)
(0 0 0.0129952)
(0 0 0.0129395)
(0 0 0.0128819)
(0 0 0.0128223)
(0 0 0.0127607)
(0 0 0.0126973)
(0 0 0.0126319)
(0 0 0.0125647)
(0 0 0.0124956)
(0 0 0.0124248)
(0 0 0.0123521)
(0 0 0.0122778)
(0 0 0.0122017)
(0 0 0.012124)
(0 0 0.0120446)
(0 0 0.0119636)
(0 0 0.011881)
(0 0 0.0117968)
(0 0 0.0117111)
(0 0 0.0116239)
(0 0 0.0115352)
(0 0 0.0114451)
(0 0 0.0113536)
(0 0 0.0112607)
(0 0 0.0111664)
(0 0 0.0110708)
(0 0 0.0109738)
(0 0 0.0108756)
(0 0 0.0107762)
(0 0 0.0106755)
(0 0 0.0105736)
(0 0 0.0104706)
(0 0 0.0103664)
(0 0 0.0102611)
(0 0 0.0101547)
(0 0 0.0100472)
(0 0 0.00993871)
(0 0 0.00982917)
(0 0 0.00971864)
(0 0 0.00960715)
(0 0 0.0094947)
(0 0 0.00938133)
(0 0 0.00926706)
(0 0 0.00915192)
(0 0 0.00903592)
(0 0 0.00891908)
(0 0 0.00880144)
(0 0 0.008683)
(0 0 0.0085638)
(0 0 0.00844385)
(0 0 0.00832318)
(0 0 0.00820179)
(0 0 0.00807973)
(0 0 0.00795699)
(0 0 0.00783361)
(0 0 0.0077096)
(0 0 0.00758498)
(0 0 0.00745977)
(0 0 0.00733399)
(0 0 0.00720765)
(0 0 0.00708077)
(0 0 0.00695337)
(0 0 0.00682547)
(0 0 0.00669708)
(0 0 0.00656821)
(0 0 0.00643889)
(0 0 0.00630913)
(0 0 0.00617895)
(0 0 0.00604835)
(0 0 0.00591736)
(0 0 0.00578598)
(0 0 0.00565424)
(0 0 0.00552214)
(0 0 0.0053897)
(0 0 0.00525693)
(0 0 0.00512385)
(0 0 0.00499046)
(0 0 0.00485678)
(0 0 0.00472282)
(0 0 0.00458859)
(0 0 0.0044541)
(0 0 0.00431937)
(0 0 0.0041844)
(0 0 0.00404921)
(0 0 0.0039138)
(0 0 0.00377819)
(0 0 0.00364238)
(0 0 0.00350638)
(0 0 0.0033702)
(0 0 0.00323386)
(0 0 0.00309736)
(0 0 0.0029607)
(0 0 0.00282391)
(0 0 0.00268697)
(0 0 0.00254992)
(0 0 0.00241274)
(0 0 0.00227544)
(0 0 0.00213805)
(0 0 0.00200055)
(0 0 0.00186297)
(0 0 0.0017253)
(0 0 0.00158756)
(0 0 0.00144974)
(0 0 0.00131186)
(0 0 0.00117392)
(0 0 0.00103593)
(0 0 0.0008979)
(0 0 0.000759827)
(0 0 0.000621721)
(0 0 0.000483589)
(0 0 0.000345435)
(0 0 0.000207267)
(0 0 6.909e-05)
(0 0 9.86904e-05)
(0 0 0.000296066)
(0 0 0.000493428)
(0 0 0.000690764)
(0 0 0.000888065)
(0 0 0.00108532)
(0 0 0.00128252)
(0 0 0.00147965)
(0 0 0.0016767)
(0 0 0.00187367)
(0 0 0.00207053)
(0 0 0.00226728)
(0 0 0.0024639)
(0 0 0.00266039)
(0 0 0.00285672)
(0 0 0.0030529)
(0 0 0.00324889)
(0 0 0.00344469)
(0 0 0.00364028)
(0 0 0.00383565)
(0 0 0.00403078)
(0 0 0.00422566)
(0 0 0.00442026)
(0 0 0.00461456)
(0 0 0.00480856)
(0 0 0.00500223)
(0 0 0.00519555)
(0 0 0.0053885)
(0 0 0.00558105)
(0 0 0.00577319)
(0 0 0.00596489)
(0 0 0.00615613)
(0 0 0.00634688)
(0 0 0.00653711)
(0 0 0.0067268)
(0 0 0.00691592)
(0 0 0.00710445)
(0 0 0.00729235)
(0 0 0.00747959)
(0 0 0.00766614)
(0 0 0.00785197)
(0 0 0.00803705)
(0 0 0.00822133)
(0 0 0.00840479)
(0 0 0.00858739)
(0 0 0.0087691)
(0 0 0.00894987)
(0 0 0.00912967)
(0 0 0.00930845)
(0 0 0.00948619)
(0 0 0.00966282)
(0 0 0.00983833)
(0 0 0.0100127)
(0 0 0.0101858)
(0 0 0.0103576)
(0 0 0.0105281)
(0 0 0.0106973)
(0 0 0.0108651)
(0 0 0.0110314)
(0 0 0.0111962)
(0 0 0.0113595)
(0 0 0.0115212)
(0 0 0.0116812)
(0 0 0.0118396)
(0 0 0.0119963)
(0 0 0.0121511)
(0 0 0.0123041)
(0 0 0.0124552)
(0 0 0.0126044)
(0 0 0.0127517)
(0 0 0.0128968)
(0 0 0.0130399)
(0 0 0.0131809)
(0 0 0.0133197)
(0 0 0.0134563)
(0 0 0.0135906)
(0 0 0.0137225)
(0 0 0.0138522)
(0 0 0.0139793)
(0 0 0.0141041)
(0 0 0.0142263)
(0 0 0.014346)
(0 0 0.0144631)
(0 0 0.0145775)
(0 0 0.0146893)
(0 0 0.0147984)
(0 0 0.0149047)
(0 0 0.0150082)
(0 0 0.0151089)
(0 0 0.0152068)
(0 0 0.0153017)
(0 0 0.0153937)
(0 0 0.0154828)
(0 0 0.0155688)
(0 0 0.0156519)
(0 0 0.0157319)
(0 0 0.0158088)
(0 0 0.0158826)
(0 0 0.0159534)
(0 0 0.0160209)
(0 0 0.0160854)
(0 0 0.0161467)
(0 0 0.0162048)
(0 0 0.0162597)
(0 0 0.0163113)
(0 0 0.0163598)
(0 0 0.0164051)
(0 0 0.0164471)
(0 0 0.0164859)
(0 0 0.0165214)
(0 0 0.0165538)
(0 0 0.0165828)
(0 0 0.0166087)
(0 0 0.0166313)
(0 0 0.0166507)
(0 0 0.0166669)
(0 0 0.0166798)
(0 0 0.0166896)
(0 0 0.0166962)
(0 0 0.0166996)
(0 0 0.0166999)
(0 0 0.016697)
(0 0 0.016691)
(0 0 0.0166819)
(0 0 0.0166697)
(0 0 0.0166545)
(0 0 0.0166362)
(0 0 0.0166149)
(0 0 0.0165906)
(0 0 0.0165633)
(0 0 0.0165332)
(0 0 0.0165001)
(0 0 0.0164641)
(0 0 0.0164253)
(0 0 0.0163836)
(0 0 0.0163392)
(0 0 0.016292)
(0 0 0.0162421)
(0 0 0.0161895)
(0 0 0.0161342)
(0 0 0.0160763)
(0 0 0.0160158)
(0 0 0.0159527)
(0 0 0.0158872)
(0 0 0.0158191)
(0 0 0.0157486)
(0 0 0.0156757)
(0 0 0.0156004)
(0 0 0.0155227)
(0 0 0.0154428)
(0 0 0.0153606)
(0 0 0.0152761)
(0 0 0.0151895)
(0 0 0.0151006)
(0 0 0.0150097)
(0 0 0.0149167)
(0 0 0.0148216)
(0 0 0.0147245)
(0 0 0.0146254)
(0 0 0.0145244)
(0 0 0.0144215)
(0 0 0.0143167)
(0 0 0.01421)
(0 0 0.0141016)
(0 0 0.0139914)
(0 0 0.0138795)
(0 0 0.0137658)
(0 0 0.0136505)
(0 0 0.0135336)
(0 0 0.0134151)
(0 0 0.013295)
(0 0 0.0131734)
(0 0 0.0130503)
(0 0 0.0129257)
(0 0 0.0127998)
(0 0 0.0126724)
(0 0 0.0125436)
(0 0 0.0124135)
(0 0 0.0122821)
(0 0 0.0121494)
(0 0 0.0120155)
(0 0 0.0118803)
(0 0 0.011744)
(0 0 0.0116065)
(0 0 0.0114679)
(0 0 0.0113282)
(0 0 0.0111874)
(0 0 0.0110456)
(0 0 0.0109028)
(0 0 0.0107589)
(0 0 0.0106141)
(0 0 0.0104684)
(0 0 0.0103218)
(0 0 0.0101742)
(0 0 0.0100258)
(0 0 0.0098766)
(0 0 0.00972655)
(0 0 0.00957572)
(0 0 0.00942411)
(0 0 0.00927176)
(0 0 0.00911869)
(0 0 0.00896491)
(0 0 0.00881046)
(0 0 0.00865536)
(0 0 0.00849961)
(0 0 0.00834325)
(0 0 0.00818629)
(0 0 0.00802876)
(0 0 0.00787067)
(0 0 0.00771205)
(0 0 0.0075529)
(0 0 0.00739325)
(0 0 0.00723312)
(0 0 0.00707252)
(0 0 0.00691148)
(0 0 0.00675)
(0 0 0.0065881)
(0 0 0.0064258)
(0 0 0.00626311)
(0 0 0.00610006)
(0 0 0.00593665)
(0 0 0.00577289)
(0 0 0.00560881)
(0 0 0.00544442)
(0 0 0.00527972)
(0 0 0.00511474)
(0 0 0.00494948)
(0 0 0.00478396)
(0 0 0.00461819)
(0 0 0.00445218)
(0 0 0.00428595)
(0 0 0.00411949)
(0 0 0.00395283)
(0 0 0.00378598)
(0 0 0.00361894)
(0 0 0.00345173)
(0 0 0.00328435)
(0 0 0.00311681)
(0 0 0.00294913)
(0 0 0.00278132)
(0 0 0.00261337)
(0 0 0.00244531)
(0 0 0.00227714)
(0 0 0.00210886)
(0 0 0.00194049)
(0 0 0.00177204)
(0 0 0.0016035)
(0 0 0.0014349)
(0 0 0.00126623)
(0 0 0.00109751)
(0 0 0.000928746)
(0 0 0.000759937)
(0 0 0.000591096)
(0 0 0.00042223)
(0 0 0.000253345)
(0 0 8.44496e-05)
(0 0 0.000116647)
(0 0 0.000349934)
(0 0 0.000583204)
(0 0 0.000816444)
(0 0 0.00104964)
(0 0 0.00128279)
(0 0 0.00151587)
(0 0 0.00174887)
(0 0 0.00198178)
(0 0 0.00221458)
(0 0 0.00244726)
(0 0 0.00267981)
(0 0 0.00291222)
(0 0 0.00314446)
(0 0 0.00337653)
(0 0 0.0036084)
(0 0 0.00384006)
(0 0 0.0040715)
(0 0 0.00430269)
(0 0 0.00453362)
(0 0 0.00476427)
(0 0 0.00499462)
(0 0 0.00522464)
(0 0 0.00545432)
(0 0 0.00568364)
(0 0 0.00591257)
(0 0 0.00614109)
(0 0 0.00636917)
(0 0 0.00659679)
(0 0 0.00682392)
(0 0 0.00705053)
(0 0 0.0072766)
(0 0 0.00750209)
(0 0 0.00772697)
(0 0 0.00795122)
(0 0 0.0081748)
(0 0 0.00839767)
(0 0 0.00861981)
(0 0 0.00884117)
(0 0 0.00906171)
(0 0 0.00928141)
(0 0 0.00950021)
(0 0 0.00971809)
(0 0 0.00993499)
(0 0 0.0101509)
(0 0 0.0103657)
(0 0 0.0105794)
(0 0 0.010792)
(0 0 0.0110034)
(0 0 0.0112136)
(0 0 0.0114224)
(0 0 0.0116299)
(0 0 0.0118361)
(0 0 0.0120407)
(0 0 0.0122439)
(0 0 0.0124456)
(0 0 0.0126456)
(0 0 0.012844)
(0 0 0.0130407)
(0 0 0.0132356)
(0 0 0.0134287)
(0 0 0.0136199)
(0 0 0.0138091)
(0 0 0.0139964)
(0 0 0.0141816)
(0 0 0.0143648)
(0 0 0.0145457)
(0 0 0.0147244)
(0 0 0.0149009)
(0 0 0.015075)
(0 0 0.0152467)
(0 0 0.0154159)
(0 0 0.0155826)
(0 0 0.0157468)
(0 0 0.0159083)
(0 0 0.0160671)
(0 0 0.0162232)
(0 0 0.0163765)
(0 0 0.0165269)
(0 0 0.0166744)
(0 0 0.016819)
(0 0 0.0169605)
(0 0 0.017099)
(0 0 0.0172344)
(0 0 0.0173666)
(0 0 0.0174955)
(0 0 0.0176213)
(0 0 0.0177437)
(0 0 0.0178628)
(0 0 0.0179785)
(0 0 0.0180908)
(0 0 0.0181996)
(0 0 0.0183049)
(0 0 0.0184067)
(0 0 0.0185049)
(0 0 0.0185995)
(0 0 0.0186905)
(0 0 0.0187778)
(0 0 0.0188614)
(0 0 0.0189413)
(0 0 0.0190175)
(0 0 0.01909)
(0 0 0.0191587)
(0 0 0.0192236)
(0 0 0.0192847)
(0 0 0.019342)
(0 0 0.0193955)
(0 0 0.0194452)
(0 0 0.019491)
(0 0 0.019533)
(0 0 0.0195712)
(0 0 0.0196056)
(0 0 0.0196361)
(0 0 0.0196628)
(0 0 0.0196857)
(0 0 0.0197048)
(0 0 0.0197201)
(0 0 0.0197316)
(0 0 0.0197394)
(0 0 0.0197434)
(0 0 0.0197437)
(0 0 0.0197402)
(0 0 0.0197331)
(0 0 0.0197223)
(0 0 0.0197078)
(0 0 0.0196898)
(0 0 0.0196681)
(0 0 0.0196429)
(0 0 0.0196141)
(0 0 0.0195818)
(0 0 0.0195461)
(0 0 0.0195069)
(0 0 0.0194643)
(0 0 0.0194184)
(0 0 0.0193691)
(0 0 0.0193165)
(0 0 0.0192607)
(0 0 0.0192016)
(0 0 0.0191393)
(0 0 0.0190739)
(0 0 0.0190054)
(0 0 0.0189338)
(0 0 0.0188593)
(0 0 0.0187817)
(0 0 0.0187012)
(0 0 0.0186178)
(0 0 0.0185315)
(0 0 0.0184424)
(0 0 0.0183506)
(0 0 0.018256)
(0 0 0.0181587)
(0 0 0.0180588)
(0 0 0.0179563)
(0 0 0.0178513)
(0 0 0.0177437)
(0 0 0.0176337)
(0 0 0.0175212)
(0 0 0.0174064)
(0 0 0.0172892)
(0 0 0.0171698)
(0 0 0.017048)
(0 0 0.0169241)
(0 0 0.016798)
(0 0 0.0166698)
(0 0 0.0165394)
(0 0 0.0164071)
(0 0 0.0162727)
(0 0 0.0161363)
(0 0 0.0159981)
(0 0 0.0158579)
(0 0 0.015716)
(0 0 0.0155722)
(0 0 0.0154266)
(0 0 0.0152793)
(0 0 0.0151303)
(0 0 0.0149797)
(0 0 0.0148274)
(0 0 0.0146736)
(0 0 0.0145182)
(0 0 0.0143614)
(0 0 0.014203)
(0 0 0.0140432)
(0 0 0.0138821)
(0 0 0.0137195)
(0 0 0.0135556)
(0 0 0.0133905)
(0 0 0.013224)
(0 0 0.0130564)
(0 0 0.0128875)
(0 0 0.0127174)
(0 0 0.0125462)
(0 0 0.012374)
(0 0 0.0122006)
(0 0 0.0120262)
(0 0 0.0118507)
(0 0 0.0116743)
(0 0 0.0114969)
(0 0 0.0113186)
(0 0 0.0111394)
(0 0 0.0109593)
(0 0 0.0107783)
(0 0 0.0105965)
(0 0 0.0104139)