/*--------------------------------*- C++ -*----------------------------------*\
| =========                 |                                                 |
| \\      /  F ield         | OpenFOAM: The Open Source CFD Toolbox           |
|  \\    /   O peration     | Version:  v2012                                 |
|   \\  /    A nd           | Website:  www.openfoam.com                      |
|    \\/     M anipulation  |                                                 |
\*---------------------------------------------------------------------------*/
FoamFile
{
    version     2.0;
    format      ascii;
    class       volVectorField;
    location    "4";
    object      U;
}
// * * * * * * * * * * * * * * * * * * * * * * * * * * * * * * * * * * * * * //

dimensions      [0 1 -1 0 0 0 0];


internalField   nonuniform List<vector> 
65536
(
(0.000730862 -0.000730874 0)
(0.00219257 -0.000730844 0)
(0.00365421 -0.000730761 0)
(0.00511565 -0.000730647 0)
(0.00657681 -0.000730493 0)
(0.00803763 -0.000730301 0)
(0.00949803 -0.000730068 0)
(0.0109579 -0.000729794 0)
(0.0124172 -0.000729478 0)
(0.0138758 -0.00072912 0)
(0.0153337 -0.000728717 0)
(0.0167907 -0.00072827 0)
(0.0182468 -0.000727776 0)
(0.0197019 -0.000727234 0)
(0.0211558 -0.000726643 0)
(0.0226084 -0.000726 0)
(0.0240598 -0.000725304 0)
(0.0255097 -0.000724554 0)
(0.026958 -0.000723746 0)
(0.0284047 -0.00072288 0)
(0.0298496 -0.000721952 0)
(0.0312925 -0.00072096 0)
(0.0327335 -0.000719902 0)
(0.0341722 -0.000718776 0)
(0.0356086 -0.000717578 0)
(0.0370426 -0.000716306 0)
(0.0384739 -0.000714957 0)
(0.0399024 -0.000713529 0)
(0.041328 -0.000712018 0)
(0.0427506 -0.000710422 0)
(0.0441698 -0.000708737 0)
(0.0455856 -0.000706961 0)
(0.0469977 -0.00070509 0)
(0.048406 -0.00070312 0)
(0.0498103 -0.000701049 0)
(0.0512103 -0.000698874 0)
(0.0526058 -0.000696591 0)
(0.0539967 -0.000694196 0)
(0.0553827 -0.000691687 0)
(0.0567635 -0.00068906 0)
(0.058139 -0.000686311 0)
(0.0595089 -0.000683437 0)
(0.0608729 -0.000680436 0)
(0.0622307 -0.000677303 0)
(0.0635822 -0.000674036 0)
(0.064927 -0.00067063 0)
(0.0662648 -0.000667084 0)
(0.0675954 -0.000663394 0)
(0.0689185 -0.000659557 0)
(0.0702338 -0.00065557 0)
(0.0715409 -0.00065143 0)
(0.0728396 -0.000647134 0)
(0.0741296 -0.000642679 0)
(0.0754105 -0.000638062 0)
(0.0766819 -0.000633282 0)
(0.0779437 -0.000628336 0)
(0.0791954 -0.000623221 0)
(0.0804367 -0.000617935 0)
(0.0816673 -0.000612477 0)
(0.0828868 -0.000606845 0)
(0.0840948 -0.000601038 0)
(0.0852911 -0.000595053 0)
(0.0864752 -0.00058889 0)
(0.0876468 -0.000582547 0)
(0.0888055 -0.000576024 0)
(0.089951 -0.00056932 0)
(0.0910829 -0.000562435 0)
(0.0922009 -0.000555368 0)
(0.0933046 -0.000548119 0)
(0.0943935 -0.000540689 0)
(0.0954674 -0.000533078 0)
(0.096526 -0.000525286 0)
(0.0975687 -0.000517316 0)
(0.0985954 -0.000509167 0)
(0.0996055 -0.000500841 0)
(0.100599 -0.000492341 0)
(0.101575 -0.000483667 0)
(0.102534 -0.000474821 0)
(0.103474 -0.000465807 0)
(0.104397 -0.000456627 0)
(0.105301 -0.000447284 0)
(0.106186 -0.000437781 0)
(0.107052 -0.000428121 0)
(0.107899 -0.000418308 0)
(0.108726 -0.000408347 0)
(0.109532 -0.000398241 0)
(0.110319 -0.000387993 0)
(0.111084 -0.00037761 0)
(0.111829 -0.000367095 0)
(0.112553 -0.000356452 0)
(0.113255 -0.000345687 0)
(0.113936 -0.000334806 0)
(0.114594 -0.000323813 0)
(0.115231 -0.000312714 0)
(0.115845 -0.000301515 0)
(0.116437 -0.000290222 0)
(0.117006 -0.00027884 0)
(0.117553 -0.000267376 0)
(0.118076 -0.000255836 0)
(0.118576 -0.000244226 0)
(0.119053 -0.000232552 0)
(0.119506 -0.000220821 0)
(0.119936 -0.000209038 0)
(0.120342 -0.000197211 0)
(0.120725 -0.000185345 0)
(0.121084 -0.000173447 0)
(0.121419 -0.000161524 0)
(0.12173 -0.000149582 0)
(0.122017 -0.000137626 0)
(0.12228 -0.000125665 0)
(0.12252 -0.000113703 0)
(0.122735 -0.000101748 0)
(0.122926 -8.98045e-05 0)
(0.123094 -7.788e-05 0)
(0.123238 -6.59802e-05 0)
(0.123358 -5.41108e-05 0)
(0.123454 -4.22775e-05 0)
(0.123527 -3.04859e-05 0)
(0.123576 -1.87412e-05 0)
(0.123602 -7.04879e-06 0)
(0.123604 4.58628e-06 0)
(0.123583 1.61585e-05 0)
(0.123539 2.76631e-05 0)
(0.123473 3.90958e-05 0)
(0.123383 5.04517e-05 0)
(0.123271 6.17266e-05 0)
(0.123136 7.29161e-05 0)
(0.122979 8.40164e-05 0)
(0.1228 9.50235e-05 0)
(0.122599 0.000105934 0)
(0.122376 0.000116744 0)
(0.122131 0.00012745 0)
(0.121866 0.00013805 0)
(0.121579 0.00014854 0)
(0.121271 0.000158917 0)
(0.120943 0.000169178 0)
(0.120595 0.000179323 0)
(0.120226 0.000189347 0)
(0.119837 0.000199251 0)
(0.119429 0.000209031 0)
(0.119001 0.000218685 0)
(0.118554 0.000228213 0)
(0.118088 0.000237613 0)
(0.117603 0.000246884 0)
(0.1171 0.000256023 0)
(0.116579 0.000265031 0)
(0.11604 0.000273906 0)
(0.115483 0.000282648 0)
(0.114909 0.000291256 0)
(0.114318 0.000299731 0)
(0.11371 0.000308071 0)
(0.113085 0.000316276 0)
(0.112444 0.000324347 0)
(0.111788 0.000332284 0)
(0.111115 0.000340085 0)
(0.110427 0.000347752 0)
(0.109724 0.000355286 0)
(0.109006 0.000362685 0)
(0.108273 0.000369952 0)
(0.107526 0.000377087 0)
(0.106764 0.00038409 0)
(0.105989 0.000390961 0)
(0.1052 0.000397702 0)
(0.104398 0.000404312 0)
(0.103583 0.000410793 0)
(0.102755 0.000417145 0)
(0.101914 0.00042337 0)
(0.101061 0.000429469 0)
(0.100196 0.000435442 0)
(0.0993193 0.000441291 0)
(0.0984308 0.000447018 0)
(0.0975311 0.000452622 0)
(0.0966202 0.000458105 0)
(0.0956985 0.000463469 0)
(0.0947661 0.000468714 0)
(0.0938234 0.000473842 0)
(0.0928706 0.000478854 0)
(0.0919079 0.000483751 0)
(0.0909354 0.000488535 0)
(0.0899536 0.000493206 0)
(0.0889625 0.000497767 0)
(0.0879623 0.000502218 0)
(0.0869534 0.000506561 0)
(0.0859359 0.000510798 0)
(0.0849101 0.000514929 0)
(0.0838761 0.000518956 0)
(0.0828341 0.00052288 0)
(0.0817844 0.000526704 0)
(0.0807272 0.000530427 0)
(0.0796626 0.000534052 0)
(0.0785908 0.00053758 0)
(0.0775121 0.000541013 0)
(0.0764266 0.000544351 0)
(0.0753346 0.000547597 0)
(0.0742361 0.000550753 0)
(0.0731314 0.000553818 0)
(0.0720207 0.000556795 0)
(0.0709041 0.000559686 0)
(0.0697818 0.000562492 0)
(0.068654 0.000565213 0)
(0.0675209 0.000567853 0)
(0.0663825 0.000570411 0)
(0.0652391 0.00057289 0)
(0.0640908 0.000575291 0)
(0.0629378 0.000577616 0)
(0.0617802 0.000579865 0)
(0.0606182 0.000582041 0)
(0.059452 0.000584145 0)
(0.0582816 0.000586178 0)
(0.0571072 0.000588142 0)
(0.0559289 0.000590039 0)
(0.0547469 0.000591869 0)
(0.0535613 0.000593634 0)
(0.0523723 0.000595337 0)
(0.0511799 0.000596977 0)
(0.0499843 0.000598557 0)
(0.0487856 0.000600077 0)
(0.0475839 0.000601539 0)
(0.0463793 0.000602945 0)
(0.045172 0.000604296 0)
(0.043962 0.000605593 0)
(0.0427495 0.000606837 0)
(0.0415346 0.00060803 0)
(0.0403173 0.000609173 0)
(0.0390978 0.000610267 0)
(0.0378762 0.000611314 0)
(0.0366525 0.000612314 0)
(0.0354269 0.00061327 0)
(0.0341994 0.000614181 0)
(0.0329701 0.000615049 0)
(0.0317391 0.000615875 0)
(0.0305065 0.00061666 0)
(0.0292724 0.000617406 0)
(0.0280368 0.000618112 0)
(0.0267999 0.000618781 0)
(0.0255616 0.000619413 0)
(0.0243221 0.000620009 0)
(0.0230815 0.000620569 0)
(0.0218398 0.000621096 0)
(0.0205971 0.000621588 0)
(0.0193534 0.000622048 0)
(0.0181088 0.000622476 0)
(0.0168634 0.000622872 0)
(0.0156173 0.000623237 0)
(0.0143704 0.000623572 0)
(0.0131229 0.000623878 0)
(0.0118749 0.000624154 0)
(0.0106263 0.000624401 0)
(0.00937721 0.00062462 0)
(0.00812774 0.000624811 0)
(0.00687792 0.000624974 0)
(0.00562779 0.00062511 0)
(0.00437742 0.000625218 0)
(0.00312687 0.0006253 0)
(0.00187619 0.000625354 0)
(0.000625411 0.00062538 0)
(0.000730894 -0.00219265 0)
(0.00219269 -0.00219254 0)
(0.00365441 -0.00219231 0)
(0.00511592 -0.00219196 0)
(0.00657716 -0.00219151 0)
(0.00803806 -0.00219093 0)
(0.00949854 -0.00219023 0)
(0.0109585 -0.00218941 0)
(0.0124179 -0.00218846 0)
(0.0138766 -0.00218739 0)
(0.0153346 -0.00218618 0)
(0.0167917 -0.00218484 0)
(0.0182479 -0.00218336 0)
(0.019703 -0.00218174 0)
(0.021157 -0.00217996 0)
(0.0226098 -0.00217804 0)
(0.0240613 -0.00217595 0)
(0.0255113 -0.0021737 0)
(0.0269597 -0.00217128 0)
(0.0284065 -0.00216869 0)
(0.0298515 -0.00216591 0)
(0.0312946 -0.00216293 0)
(0.0327357 -0.00215976 0)
(0.0341746 -0.00215638 0)
(0.0356111 -0.00215279 0)
(0.0370452 -0.00214898 0)
(0.0384767 -0.00214494 0)
(0.0399054 -0.00214066 0)
(0.0413312 -0.00213613 0)
(0.0427539 -0.00213134 0)
(0.0441733 -0.00212629 0)
(0.0455893 -0.00212096 0)
(0.0470016 -0.00211535 0)
(0.0484101 -0.00210945 0)
(0.0498146 -0.00210324 0)
(0.0512148 -0.00209672 0)
(0.0526106 -0.00208987 0)
(0.0540017 -0.00208269 0)
(0.0553879 -0.00207516 0)
(0.056769 -0.00206729 0)
(0.0581447 -0.00205904 0)
(0.0595148 -0.00205043 0)
(0.0608791 -0.00204142 0)
(0.0622372 -0.00203203 0)
(0.0635889 -0.00202223 0)
(0.064934 -0.00201202 0)
(0.0662721 -0.00200138 0)
(0.067603 -0.00199032 0)
(0.0689264 -0.00197881 0)
(0.070242 -0.00196685 0)
(0.0715494 -0.00195443 0)
(0.0728485 -0.00194154 0)
(0.0741387 -0.00192818 0)
(0.0754199 -0.00191434 0)
(0.0766918 -0.0019 0)
(0.0779539 -0.00188516 0)
(0.0792059 -0.00186982 0)
(0.0804476 -0.00185396 0)
(0.0816785 -0.00183759 0)
(0.0828983 -0.0018207 0)
(0.0841067 -0.00180327 0)
(0.0853033 -0.00178532 0)
(0.0864878 -0.00176683 0)
(0.0876597 -0.0017478 0)
(0.0888188 -0.00172824 0)
(0.0899647 -0.00170813 0)
(0.091097 -0.00168747 0)
(0.0922153 -0.00166627 0)
(0.0933193 -0.00164452 0)
(0.0944087 -0.00162223 0)
(0.095483 -0.00159939 0)
(0.0965419 -0.00157602 0)
(0.097585 -0.00155211 0)
(0.098612 -0.00152766 0)
(0.0996225 -0.00150268 0)
(0.100616 -0.00147717 0)
(0.101593 -0.00145115 0)
(0.102552 -0.00142461 0)
(0.103493 -0.00139757 0)
(0.104416 -0.00137002 0)
(0.10532 -0.00134199 0)
(0.106206 -0.00131348 0)
(0.107072 -0.00128449 0)
(0.107919 -0.00125505 0)
(0.108746 -0.00122516 0)
(0.109553 -0.00119484 0)
(0.110339 -0.00116409 0)
(0.111105 -0.00113294 0)
(0.111851 -0.00110138 0)
(0.112574 -0.00106945 0)
(0.113277 -0.00103715 0)
(0.113958 -0.0010045 0)
(0.114617 -0.000971518 0)
(0.115253 -0.000938215 0)
(0.115868 -0.000904612 0)
(0.11646 -0.000870726 0)
(0.117029 -0.000836575 0)
(0.117576 -0.000802177 0)
(0.118099 -0.00076755 0)
(0.118599 -0.000732713 0)
(0.119076 -0.000697684 0)
(0.11953 -0.000662483 0)
(0.11996 -0.000627128 0)
(0.120366 -0.000591639 0)
(0.120749 -0.000556035 0)
(0.121108 -0.000520335 0)
(0.121443 -0.000484559 0)
(0.121754 -0.000448725 0)
(0.122041 -0.000412853 0)
(0.122304 -0.000376962 0)
(0.122544 -0.00034107 0)
(0.122759 -0.000305197 0)
(0.12295 -0.000269362 0)
(0.123118 -0.000233582 0)
(0.123262 -0.000197877 0)
(0.123382 -0.000162262 0)
(0.123478 -0.000126757 0)
(0.123551 -9.1376e-05 0)
(0.1236 -5.61365e-05 0)
(0.123625 -2.10541e-05 0)
(0.123628 1.38558e-05 0)
(0.123607 4.85776e-05 0)
(0.123563 8.30968e-05 0)
(0.123496 0.0001174 0)
(0.123406 0.000151472 0)
(0.123293 0.000185301 0)
(0.123158 0.000218873 0)
(0.123001 0.000252178 0)
(0.122822 0.000285203 0)
(0.12262 0.000317938 0)
(0.122397 0.000350371 0)
(0.122153 0.000382494 0)
(0.121887 0.000414295 0)
(0.1216 0.000445767 0)
(0.121292 0.0004769 0)
(0.120964 0.000507688 0)
(0.120615 0.000538123 0)
(0.120246 0.000568199 0)
(0.119857 0.000597911 0)
(0.119448 0.000627252 0)
(0.11902 0.000656218 0)
(0.118573 0.000684804 0)
(0.118107 0.000713004 0)
(0.117622 0.000740816 0)
(0.117118 0.000768235 0)
(0.116597 0.000795259 0)
(0.116057 0.000821885 0)
(0.1155 0.000848112 0)
(0.114926 0.000873937 0)
(0.114335 0.00089936 0)
(0.113726 0.00092438 0)
(0.113102 0.000948997 0)
(0.112461 0.000973209 0)
(0.111804 0.000997018 0)
(0.111131 0.00102042 0)
(0.110442 0.00104342 0)
(0.109739 0.00106602 0)
(0.109021 0.00108822 0)
(0.108288 0.00111002 0)
(0.10754 0.00113142 0)
(0.106778 0.00115243 0)
(0.106003 0.00117304 0)
(0.105214 0.00119326 0)
(0.104411 0.00121309 0)
(0.103596 0.00123254 0)
(0.102768 0.00125159 0)
(0.101927 0.00127027 0)
(0.101073 0.00128856 0)
(0.100208 0.00130648 0)
(0.099331 0.00132403 0)
(0.0984423 0.0013412 0)
(0.0975423 0.00135801 0)
(0.0966312 0.00137446 0)
(0.0957092 0.00139055 0)
(0.0947766 0.00140629 0)
(0.0938337 0.00142167 0)
(0.0928806 0.0014367 0)
(0.0919177 0.00145139 0)
(0.090945 0.00146574 0)
(0.0899629 0.00147975 0)
(0.0889716 0.00149343 0)
(0.0879713 0.00150679 0)
(0.0869621 0.00151981 0)
(0.0859444 0.00153252 0)
(0.0849184 0.00154491 0)
(0.0838841 0.00155699 0)
(0.082842 0.00156876 0)
(0.0817921 0.00158023 0)
(0.0807346 0.0015914 0)
(0.0796698 0.00160227 0)
(0.0785979 0.00161286 0)
(0.077519 0.00162315 0)
(0.0764333 0.00163317 0)
(0.0753411 0.0016429 0)
(0.0742424 0.00165237 0)
(0.0731376 0.00166156 0)
(0.0720267 0.00167049 0)
(0.0709099 0.00167916 0)
(0.0697875 0.00168758 0)
(0.0686595 0.00169574 0)
(0.0675262 0.00170366 0)
(0.0663876 0.00171133 0)
(0.0652441 0.00171877 0)
(0.0640956 0.00172597 0)
(0.0629425 0.00173294 0)
(0.0617848 0.00173969 0)
(0.0606226 0.00174621 0)
(0.0594562 0.00175252 0)
(0.0582856 0.00175862 0)
(0.0571111 0.00176451 0)
(0.0559327 0.0017702 0)
(0.0547506 0.00177569 0)
(0.0535649 0.00178098 0)
(0.0523757 0.00178609 0)
(0.0511832 0.00179101 0)
(0.0499874 0.00179574 0)
(0.0487886 0.0018003 0)
(0.0475868 0.00180469 0)
(0.0463821 0.00180891 0)
(0.0451747 0.00181296 0)
(0.0439646 0.00181685 0)
(0.042752 0.00182058 0)
(0.041537 0.00182415 0)
(0.0403196 0.00182758 0)
(0.0391 0.00183086 0)
(0.0378783 0.001834 0)
(0.0366545 0.001837 0)
(0.0354288 0.00183987 0)
(0.0342012 0.0018426 0)
(0.0329718 0.0018452 0)
(0.0317407 0.00184768 0)
(0.0305081 0.00185003 0)
(0.0292739 0.00185227 0)
(0.0280382 0.00185439 0)
(0.0268012 0.00185639 0)
(0.0255629 0.00185829 0)
(0.0243233 0.00186007 0)
(0.0230826 0.00186176 0)
(0.0218409 0.00186333 0)
(0.0205981 0.00186481 0)
(0.0193543 0.00186619 0)
(0.0181097 0.00186747 0)
(0.0168642 0.00186866 0)
(0.015618 0.00186975 0)
(0.0143711 0.00187076 0)
(0.0131235 0.00187167 0)
(0.0118754 0.0018725 0)
(0.0106268 0.00187324 0)
(0.00937763 0.0018739 0)
(0.0081281 0.00187447 0)
(0.00687822 0.00187496 0)
(0.00562804 0.00187537 0)
(0.00437762 0.00187569 0)
(0.00312701 0.00187594 0)
(0.00187627 0.0018761 0)
(0.000625439 0.00187618 0)
(0.000730981 -0.0036545 0)
(0.00219294 -0.00365432 0)
(0.0036548 -0.00365395 0)
(0.00511647 -0.00365339 0)
(0.00657787 -0.00365263 0)
(0.00803893 -0.00365167 0)
(0.00949957 -0.00365051 0)
(0.0109597 -0.00364915 0)
(0.0124193 -0.00364757 0)
(0.0138782 -0.00364579 0)
(0.0153363 -0.00364378 0)
(0.0167936 -0.00364155 0)
(0.01825 -0.00363909 0)
(0.0197053 -0.00363638 0)
(0.0211595 -0.00363344 0)
(0.0226125 -0.00363023 0)
(0.0240642 -0.00362676 0)
(0.0255144 -0.00362302 0)
(0.0269631 -0.003619 0)
(0.0284102 -0.00361467 0)
(0.0298554 -0.00361004 0)
(0.0312988 -0.0036051 0)
(0.0327401 -0.00359982 0)
(0.0341793 -0.0035942 0)
(0.0356161 -0.00358823 0)
(0.0370505 -0.00358188 0)
(0.0384823 -0.00357515 0)
(0.0399114 -0.00356803 0)
(0.0413375 -0.00356049 0)
(0.0427605 -0.00355252 0)
(0.0441803 -0.00354411 0)
(0.0455967 -0.00353525 0)
(0.0470094 -0.00352591 0)
(0.0484183 -0.00351607 0)
(0.0498232 -0.00350574 0)
(0.0512238 -0.00349488 0)
(0.05262 -0.00348348 0)
(0.0540116 -0.00347152 0)
(0.0553983 -0.00345899 0)
(0.0567799 -0.00344587 0)
(0.0581561 -0.00343214 0)
(0.0595267 -0.00341779 0)
(0.0608915 -0.0034028 0)
(0.0622501 -0.00338715 0)
(0.0636024 -0.00337083 0)
(0.0649481 -0.00335382 0)
(0.0662868 -0.00333611 0)
(0.0676182 -0.00331767 0)
(0.0689422 -0.0032985 0)
(0.0702584 -0.00327858 0)
(0.0715665 -0.00325789 0)
(0.0728661 -0.00323643 0)
(0.074157 -0.00321416 0)
(0.0754389 -0.00319109 0)
(0.0767114 -0.0031672 0)
(0.0779742 -0.00314248 0)
(0.0792269 -0.00311692 0)
(0.0804692 -0.0030905 0)
(0.0817009 -0.00306322 0)
(0.0829214 -0.00303507 0)
(0.0841305 -0.00300603 0)
(0.0853278 -0.00297612 0)
(0.086513 -0.00294531 0)
(0.0876857 -0.0029136 0)
(0.0888455 -0.00288098 0)
(0.0899921 -0.00284747 0)
(0.0911251 -0.00281304 0)
(0.0922442 -0.0027777 0)
(0.0933489 -0.00274146 0)
(0.094439 -0.0027043 0)
(0.095514 -0.00266624 0)
(0.0965736 -0.00262728 0)
(0.0976174 -0.00258742 0)
(0.0986452 -0.00254667 0)
(0.0996564 -0.00250503 0)
(0.100651 -0.00246252 0)
(0.101628 -0.00241914 0)
(0.102588 -0.0023749 0)
(0.103529 -0.00232981 0)
(0.104453 -0.0022839 0)
(0.105358 -0.00223716 0)
(0.106244 -0.00218963 0)
(0.107111 -0.00214131 0)
(0.107959 -0.00209223 0)
(0.108786 -0.0020424 0)
(0.109594 -0.00199185 0)
(0.110381 -0.00194059 0)
(0.111148 -0.00188865 0)
(0.111893 -0.00183604 0)
(0.112618 -0.0017828 0)
(0.11332 -0.00172895 0)
(0.114002 -0.00167452 0)
(0.114661 -0.00161953 0)
(0.115298 -0.001564 0)
(0.115913 -0.00150798 0)
(0.116506 -0.00145148 0)
(0.117075 -0.00139454 0)
(0.117622 -0.00133719 0)
(0.118146 -0.00127946 0)
(0.118646 -0.00122138 0)
(0.119123 -0.00116297 0)
(0.119577 -0.00110428 0)
(0.120007 -0.00104534 0)
(0.120414 -0.000986166 0)
(0.120797 -0.000926804 0)
(0.121156 -0.000867283 0)
(0.121491 -0.000807634 0)
(0.121802 -0.00074789 0)
(0.122089 -0.000688082 0)
(0.122352 -0.000628242 0)
(0.122592 -0.000568402 0)
(0.122807 -0.000508593 0)
(0.122999 -0.000448847 0)
(0.123166 -0.000389194 0)
(0.12331 -0.000329665 0)
(0.12343 -0.000270288 0)
(0.123526 -0.000211093 0)
(0.123598 -0.000152107 0)
(0.123647 -9.33565e-05 0)
(0.123672 -3.48685e-05 0)
(0.123674 2.33313e-05 0)
(0.123653 8.12177e-05 0)
(0.123609 0.000138766 0)
(0.123541 0.000195953 0)
(0.123451 0.000252755 0)
(0.123338 0.00030915 0)
(0.123203 0.000365118 0)
(0.123046 0.000420639 0)
(0.122866 0.000475693 0)
(0.122664 0.000530262 0)
(0.122441 0.000584328 0)
(0.122196 0.000637876 0)
(0.12193 0.000690888 0)
(0.121642 0.000743349 0)
(0.121334 0.000795247 0)
(0.121005 0.000846568 0)
(0.120656 0.000897301 0)
(0.120286 0.000947435 0)
(0.119897 0.000996961 0)
(0.119487 0.00104587 0)
(0.119059 0.00109415 0)
(0.118611 0.0011418 0)
(0.118144 0.0011888 0)
(0.117659 0.00123516 0)
(0.117155 0.00128086 0)
(0.116633 0.0013259 0)
(0.116093 0.00137028 0)
(0.115535 0.00141399 0)
(0.114961 0.00145704 0)
(0.114369 0.00149941 0)
(0.11376 0.00154111 0)
(0.113135 0.00158214 0)
(0.112493 0.00162249 0)
(0.111835 0.00166217 0)
(0.111162 0.00170118 0)
(0.110473 0.00173952 0)
(0.109769 0.00177718 0)
(0.10905 0.00181417 0)
(0.108317 0.00185051 0)
(0.107569 0.00188617 0)
(0.106807 0.00192118 0)
(0.106031 0.00195554 0)
(0.105241 0.00198924 0)
(0.104438 0.00202228 0)
(0.103622 0.00205468 0)
(0.102793 0.00208644 0)
(0.101952 0.00211756 0)
(0.101098 0.00214804 0)
(0.100232 0.0021779 0)
(0.0993544 0.00220714 0)
(0.0984652 0.00223577 0)
(0.0975647 0.00226378 0)
(0.0966531 0.00229119 0)
(0.0957307 0.00231801 0)
(0.0947977 0.00234423 0)
(0.0938542 0.00236986 0)
(0.0929007 0.00239491 0)
(0.0919373 0.00241939 0)
(0.0909642 0.0024433 0)
(0.0899816 0.00246665 0)
(0.0889899 0.00248944 0)
(0.0879891 0.00251169 0)
(0.0869795 0.0025334 0)
(0.0859614 0.00255458 0)
(0.0849349 0.00257522 0)
(0.0839003 0.00259535 0)
(0.0828577 0.00261497 0)
(0.0818074 0.00263407 0)
(0.0807495 0.00265268 0)
(0.0796844 0.0026708 0)
(0.078612 0.00268843 0)
(0.0775327 0.00270559 0)
(0.0764467 0.00272227 0)
(0.0753541 0.0027385 0)
(0.0742551 0.00275426 0)
(0.0731499 0.00276958 0)
(0.0720386 0.00278446 0)
(0.0709215 0.00279891 0)
(0.0697987 0.00281293 0)
(0.0686704 0.00282653 0)
(0.0675367 0.00283972 0)
(0.0663979 0.0028525 0)
(0.065254 0.00286489 0)
(0.0641053 0.00287689 0)
(0.0629518 0.0028885 0)
(0.0617938 0.00289974 0)
(0.0606313 0.00291061 0)
(0.0594646 0.00292112 0)
(0.0582938 0.00293128 0)
(0.057119 0.00294109 0)
(0.0559403 0.00295057 0)
(0.0547579 0.00295971 0)
(0.0535719 0.00296853 0)
(0.0523825 0.00297704 0)
(0.0511897 0.00298523 0)
(0.0499938 0.00299312 0)
(0.0487947 0.00300072 0)
(0.0475927 0.00300802 0)
(0.0463878 0.00301504 0)
(0.0451801 0.00302179 0)
(0.0439698 0.00302827 0)
(0.042757 0.00303448 0)
(0.0415418 0.00304044 0)
(0.0403242 0.00304615 0)
(0.0391044 0.00305161 0)
(0.0378825 0.00305684 0)
(0.0366585 0.00306184 0)
(0.0354326 0.00306661 0)
(0.0342048 0.00307115 0)
(0.0329753 0.00307549 0)
(0.0317441 0.00307961 0)
(0.0305112 0.00308354 0)
(0.0292769 0.00308726 0)
(0.0280411 0.00309079 0)
(0.0268039 0.00309413 0)
(0.0255654 0.00309728 0)
(0.0243257 0.00310025 0)
(0.0230849 0.00310305 0)
(0.021843 0.00310568 0)
(0.0206 0.00310814 0)
(0.0193561 0.00311044 0)
(0.0181114 0.00311257 0)
(0.0168658 0.00311455 0)
(0.0156194 0.00311637 0)
(0.0143724 0.00311804 0)
(0.0131247 0.00311957 0)
(0.0118765 0.00312095 0)
(0.0106277 0.00312218 0)
(0.00937847 0.00312327 0)
(0.00812883 0.00312422 0)
(0.00687883 0.00312504 0)
(0.00562854 0.00312572 0)
(0.00437801 0.00312626 0)
(0.00312728 0.00312667 0)
(0.00187643 0.00312694 0)
(0.000625494 0.00312707 0)
(0.0007311 -0.00511657 0)
(0.00219329 -0.00511632 0)
(0.00365539 -0.0051158 0)
(0.00511729 -0.00511501 0)
(0.00657893 -0.00511396 0)
(0.00804023 -0.00511262 0)
(0.00950112 -0.005111 0)
(0.0109615 -0.0051091 0)
(0.0124213 -0.00510691 0)
(0.0138805 -0.00510441 0)
(0.0153389 -0.00510161 0)
(0.0167965 -0.0050985 0)
(0.0182531 -0.00509506 0)
(0.0197088 -0.00509129 0)
(0.0211633 -0.00508718 0)
(0.0226166 -0.0050827 0)
(0.0240686 -0.00507786 0)
(0.0255192 -0.00507264 0)
(0.0269682 -0.00506701 0)
(0.0284156 -0.00506098 0)
(0.0298613 -0.00505452 0)
(0.031305 -0.00504761 0)
(0.0327468 -0.00504024 0)
(0.0341863 -0.00503239 0)
(0.0356236 -0.00502404 0)
(0.0370585 -0.00501518 0)
(0.0384908 -0.00500578 0)
(0.0399203 -0.00499582 0)
(0.0413469 -0.00498529 0)
(0.0427705 -0.00497416 0)
(0.0441908 -0.00496241 0)
(0.0456077 -0.00495001 0)
(0.047021 -0.00493696 0)
(0.0484305 -0.00492322 0)
(0.049836 -0.00490877 0)
(0.0512373 -0.00489359 0)
(0.0526342 -0.00487765 0)
(0.0540265 -0.00486094 0)
(0.0554139 -0.00484342 0)
(0.0567962 -0.00482508 0)
(0.0581731 -0.00480588 0)
(0.0595445 -0.00478581 0)
(0.0609101 -0.00476485 0)
(0.0622695 -0.00474296 0)
(0.0636226 -0.00472014 0)
(0.0649691 -0.00469635 0)
(0.0663087 -0.00467157 0)
(0.067641 -0.00464578 0)
(0.0689659 -0.00461896 0)
(0.070283 -0.00459109 0)
(0.071592 -0.00456215 0)
(0.0728926 -0.00453211 0)
(0.0741845 -0.00450096 0)
(0.0754673 -0.00446868 0)
(0.0767408 -0.00443526 0)
(0.0780046 -0.00440066 0)
(0.0792584 -0.00436488 0)
(0.0805017 -0.00432791 0)
(0.0817344 -0.00428973 0)
(0.082956 -0.00425033 0)
(0.0841661 -0.00420969 0)
(0.0853645 -0.00416782 0)
(0.0865508 -0.00412469 0)
(0.0877246 -0.0040803 0)
(0.0888855 -0.00403465 0)
(0.0900332 -0.00398773 0)
(0.0911673 -0.00393953 0)
(0.0922874 -0.00389006 0)
(0.0933933 -0.00383932 0)
(0.0944844 -0.0037873 0)
(0.0955605 -0.00373401 0)
(0.0966212 -0.00367945 0)
(0.0976662 -0.00362364 0)
(0.0986949 -0.00356658 0)
(0.0997072 -0.00350828 0)
(0.100703 -0.00344874 0)
(0.101681 -0.00338799 0)
(0.102642 -0.00332604 0)
(0.103584 -0.0032629 0)
(0.104509 -0.0031986 0)
(0.105415 -0.00313315 0)
(0.106302 -0.00306658 0)
(0.10717 -0.00299891 0)
(0.108018 -0.00293017 0)
(0.108847 -0.00286038 0)
(0.109655 -0.00278958 0)
(0.110443 -0.00271778 0)
(0.111211 -0.00264503 0)
(0.111957 -0.00257135 0)
(0.112682 -0.00249678 0)
(0.113386 -0.00242136 0)
(0.114068 -0.00234511 0)
(0.114728 -0.00226808 0)
(0.115366 -0.00219031 0)
(0.115981 -0.00211183 0)
(0.116574 -0.0020327 0)
(0.117144 -0.00195294 0)
(0.117691 -0.00187261 0)
(0.118216 -0.00179174 0)
(0.118717 -0.00171038 0)
(0.119194 -0.00162857 0)
(0.119648 -0.00154636 0)
(0.120079 -0.00146379 0)
(0.120485 -0.0013809 0)
(0.120868 -0.00129775 0)
(0.121228 -0.00121438 0)
(0.121563 -0.00113082 0)
(0.121874 -0.00104714 0)
(0.122161 -0.000963362 0)
(0.122425 -0.000879542 0)
(0.122664 -0.000795722 0)
(0.122879 -0.000711947 0)
(0.123071 -0.00062826 0)
(0.123238 -0.000544704 0)
(0.123381 -0.000461322 0)
(0.123501 -0.000378154 0)
(0.123597 -0.000295241 0)
(0.123669 -0.000212622 0)
(0.123718 -0.000130333 0)
(0.123743 -4.84135e-05 0)
(0.123744 3.31015e-05 0)
(0.123723 0.000114177 0)
(0.123678 0.000194778 0)
(0.12361 0.000274871 0)
(0.12352 0.000354425 0)
(0.123406 0.000433408 0)
(0.123271 0.000511792 0)
(0.123112 0.000589547 0)
(0.122932 0.000666648 0)
(0.12273 0.000743069 0)
(0.122506 0.000818785 0)
(0.12226 0.000893772 0)
(0.121993 0.000968009 0)
(0.121705 0.00104147 0)
(0.121396 0.00111415 0)
(0.121067 0.00118602 0)
(0.120717 0.00125706 0)
(0.120346 0.00132726 0)
(0.119956 0.00139661 0)
(0.119546 0.0014651 0)
(0.119117 0.0015327 0)
(0.118668 0.00159942 0)
(0.118201 0.00166523 0)
(0.117714 0.00173014 0)
(0.11721 0.00179413 0)
(0.116687 0.00185719 0)
(0.116146 0.00191933 0)
(0.115588 0.00198053 0)
(0.115012 0.00204079 0)
(0.114419 0.00210012 0)
(0.11381 0.0021585 0)
(0.113184 0.00221594 0)
(0.112541 0.00227244 0)
(0.111883 0.00232799 0)
(0.111209 0.0023826 0)
(0.110519 0.00243626 0)
(0.109814 0.00248899 0)
(0.109095 0.00254078 0)
(0.10836 0.00259164 0)
(0.107611 0.00264157 0)
(0.106849 0.00269058 0)
(0.106072 0.00273867 0)
(0.105281 0.00278584 0)
(0.104478 0.0028321 0)
(0.103661 0.00287745 0)
(0.102831 0.00292191 0)
(0.101989 0.00296547 0)
(0.101134 0.00300814 0)
(0.100268 0.00304994 0)
(0.0993895 0.00309087 0)
(0.0984996 0.00313093 0)
(0.0975984 0.00317014 0)
(0.096686 0.00320851 0)
(0.0957629 0.00324604 0)
(0.0948291 0.00328274 0)
(0.093885 0.00331862 0)
(0.0929308 0.00335368 0)
(0.0919667 0.00338794 0)
(0.0909929 0.00342141 0)
(0.0900097 0.00345409 0)
(0.0890173 0.00348599 0)
(0.0880158 0.00351713 0)
(0.0870056 0.00354751 0)
(0.0859868 0.00357715 0)
(0.0849597 0.00360605 0)
(0.0839245 0.00363421 0)
(0.0828813 0.00366166 0)
(0.0818304 0.00368841 0)
(0.0807719 0.00371445 0)
(0.0797061 0.0037398 0)
(0.0786332 0.00376448 0)
(0.0775534 0.00378849 0)
(0.0764668 0.00381184 0)
(0.0753736 0.00383454 0)
(0.074274 0.0038566 0)
(0.0731683 0.00387804 0)
(0.0720565 0.00389886 0)
(0.0709389 0.00391907 0)
(0.0698156 0.00393869 0)
(0.0686868 0.00395772 0)
(0.0675526 0.00397617 0)
(0.0664133 0.00399406 0)
(0.0652689 0.00401139 0)
(0.0641197 0.00402818 0)
(0.0629658 0.00404443 0)
(0.0618073 0.00406016 0)
(0.0606444 0.00407537 0)
(0.0594773 0.00409007 0)
(0.058306 0.00410428 0)
(0.0571308 0.00411801 0)
(0.0559517 0.00413127 0)
(0.0547689 0.00414406 0)
(0.0535826 0.0041564 0)
(0.0523927 0.00416829 0)
(0.0511996 0.00417975 0)
(0.0500033 0.00419079 0)
(0.0488038 0.00420141 0)
(0.0476015 0.00421163 0)
(0.0463962 0.00422145 0)
(0.0451882 0.00423089 0)
(0.0439776 0.00423995 0)
(0.0427645 0.00424864 0)
(0.041549 0.00425697 0)
(0.0403311 0.00426495 0)
(0.039111 0.0042726 0)
(0.0378888 0.00427991 0)
(0.0366645 0.00428689 0)
(0.0354383 0.00429356 0)
(0.0342103 0.00429992 0)
(0.0329805 0.00430598 0)
(0.031749 0.00431175 0)
(0.0305159 0.00431724 0)
(0.0292813 0.00432244 0)
(0.0280453 0.00432737 0)
(0.0268079 0.00433204 0)
(0.0255692 0.00433645 0)
(0.0243293 0.00434061 0)
(0.0230882 0.00434452 0)
(0.0218461 0.00434819 0)
(0.020603 0.00435163 0)
(0.0193589 0.00435484 0)
(0.0181139 0.00435782 0)
(0.0168681 0.00436059 0)
(0.0156216 0.00436314 0)
(0.0143744 0.00436548 0)
(0.0131265 0.00436761 0)
(0.0118781 0.00436953 0)
(0.0106291 0.00437126 0)
(0.00937973 0.00437278 0)
(0.00812992 0.00437412 0)
(0.00687975 0.00437525 0)
(0.00562929 0.0043762 0)
(0.00437859 0.00437696 0)
(0.0031277 0.00437753 0)
(0.00187668 0.0043779 0)
(0.000625576 0.00437809 0)
(0.000731257 -0.00657892 0)
(0.00219376 -0.00657859 0)
(0.00365617 -0.00657793 0)
(0.00511839 -0.00657692 0)
(0.00658034 -0.00657557 0)
(0.00804197 -0.00657386 0)
(0.00950318 -0.00657179 0)
(0.0109639 -0.00656935 0)
(0.0124241 -0.00656654 0)
(0.0138836 -0.00656335 0)
(0.0153423 -0.00655977 0)
(0.0168003 -0.00655578 0)
(0.0182573 -0.00655138 0)
(0.0197133 -0.00654655 0)
(0.0211683 -0.00654128 0)
(0.022622 -0.00653555 0)
(0.0240744 -0.00652935 0)
(0.0255255 -0.00652265 0)
(0.026975 -0.00651545 0)
(0.0284229 -0.00650772 0)
(0.029869 -0.00649944 0)
(0.0313133 -0.00649058 0)
(0.0327556 -0.00648114 0)
(0.0341957 -0.00647108 0)
(0.0356336 -0.00646038 0)
(0.0370691 -0.00644902 0)
(0.038502 -0.00643696 0)
(0.0399322 -0.0064242 0)
(0.0413595 -0.00641069 0)
(0.0427838 -0.00639642 0)
(0.0442048 -0.00638135 0)
(0.0456225 -0.00636545 0)
(0.0470365 -0.00634871 0)
(0.0484468 -0.00633108 0)
(0.0498532 -0.00631254 0)
(0.0512553 -0.00629306 0)
(0.0526531 -0.00627261 0)
(0.0540462 -0.00625116 0)
(0.0554346 -0.00622868 0)
(0.0568178 -0.00620513 0)
(0.0581958 -0.0061805 0)
(0.0595682 -0.00615473 0)
(0.0609348 -0.00612782 0)
(0.0622953 -0.00609972 0)
(0.0636495 -0.00607041 0)
(0.0649971 -0.00603986 0)
(0.0663378 -0.00600804 0)
(0.0676714 -0.00597492 0)
(0.0689974 -0.00594048 0)
(0.0703157 -0.00590468 0)
(0.071626 -0.0058675 0)
(0.0729279 -0.00582892 0)
(0.074221 -0.0057889 0)
(0.0755052 -0.00574743 0)
(0.07678 -0.00570448 0)
(0.0780451 -0.00566002 0)
(0.0793002 -0.00561405 0)
(0.080545 -0.00556654 0)
(0.0817791 -0.00551747 0)
(0.0830021 -0.00546683 0)
(0.0842136 -0.0054146 0)
(0.0854135 -0.00536077 0)
(0.0866012 -0.00530534 0)
(0.0877764 -0.00524828 0)
(0.0889388 -0.00518959 0)
(0.0900879 -0.00512927 0)
(0.0912235 -0.00506731 0)
(0.0923451 -0.0050037 0)
(0.0934524 -0.00493845 0)
(0.094545 -0.00487157 0)
(0.0956226 -0.00480304 0)
(0.0966847 -0.00473289 0)
(0.0977311 -0.00466112 0)
(0.0987613 -0.00458774 0)
(0.099775 -0.00451275 0)
(0.100772 -0.00443619 0)
(0.101751 -0.00435806 0)
(0.102714 -0.00427837 0)
(0.103658 -0.00419717 0)
(0.104584 -0.00411445 0)
(0.105491 -0.00403027 0)
(0.106379 -0.00394464 0)
(0.107248 -0.00385759 0)
(0.108098 -0.00376916 0)
(0.108928 -0.00367939 0)
(0.109737 -0.0035883 0)
(0.110526 -0.00349594 0)
(0.111295 -0.00340234 0)
(0.112042 -0.00330756 0)
(0.112768 -0.00321162 0)
(0.113473 -0.00311458 0)
(0.114156 -0.00301649 0)
(0.114817 -0.00291738 0)
(0.115456 -0.00281732 0)
(0.116072 -0.00271636 0)
(0.116665 -0.00261454 0)
(0.117236 -0.00251192 0)
(0.117784 -0.00240856 0)
(0.118309 -0.00230451 0)
(0.11881 -0.00219983 0)
(0.119288 -0.00209457 0)
(0.119743 -0.00198879 0)
(0.120174 -0.00188255 0)
(0.120581 -0.00177591 0)
(0.120964 -0.00166892 0)
(0.121323 -0.00156165 0)
(0.121659 -0.00145415 0)
(0.12197 -0.00134647 0)
(0.122258 -0.00123869 0)
(0.122521 -0.00113084 0)
(0.12276 -0.001023 0)
(0.122976 -0.000915217 0)
(0.123167 -0.000807546 0)
(0.123334 -0.000700046 0)
(0.123477 -0.000592769 0)
(0.123597 -0.00048577 0)
(0.123692 -0.0003791 0)
(0.123764 -0.000272808 0)
(0.123812 -0.000166944 0)
(0.123837 -6.15556e-05 0)
(0.123838 4.33104e-05 0)
(0.123816 0.000147609 0)
(0.12377 0.000251296 0)
(0.123702 0.000354328 0)
(0.123611 0.000456664 0)
(0.123497 0.000558264 0)