/*--------------------------------*- C++ -*----------------------------------*\
| =========                 |                                                 |
| \\      /  F ield         | OpenFOAM: The Open Source CFD Toolbox           |
|  \\    /   O peration     | Version:  v2012                                 |
|   \\  /    A nd           | Website:  www.openfoam.com                      |
|    \\/     M anipulation  |                                                 |
\*---------------------------------------------------------------------------*/
FoamFile
{
    version     2.0;
    format      ascii;
    class       volVectorField;
    location    "4";
    object      W;
}
// * * * * * * * * * * * * * * * * * * * * * * * * * * * * * * * * * * * * * //

dimensions      [0 0 -1 0 0 0 0];


internalField   nonuniform List<vector> 
65536
(
(0 -0 -5.82064e-08)
(0 -0 -1.53015e-07)
(0 -0 2.94877e-08)
(0 -0 3.37528e-08)
(0 -0 -1.51006e-09)
(0 -0 -4.22816e-08)
(0 -0 -7.99291e-08)
(0 -0 -1.15016e-07)
(0 -0 -1.5008e-07)
(0 -0 -1.87462e-07)
(0 -0 -2.28199e-07)
(0 -0 -2.71858e-07)
(0 -0 -3.17254e-07)
(0 -0 -3.63176e-07)
(0 -0 -4.08819e-07)
(0 -0 -4.53697e-07)
(0 -0 -4.97736e-07)
(0 -0 -5.40759e-07)
(0 -0 -5.82599e-07)
(0 -0 -6.23406e-07)
(0 -0 -6.6337e-07)
(0 -0 -7.03e-07)
(0 -0 -7.42809e-07)
(0 -0 -7.82936e-07)
(0 -0 -8.23448e-07)
(0 -0 -8.64166e-07)
(0 -0 -9.04706e-07)
(0 -0 -9.44823e-07)
(0 -0 -9.84133e-07)
(0 -0 -1.02217e-06)
(0 -0 -1.05876e-06)
(0 -0 -1.09387e-06)
(0 -0 -1.12768e-06)
(0 -0 -1.16072e-06)
(0 -0 -1.19328e-06)
(0 -0 -1.22526e-06)
(0 -0 -1.25658e-06)
(0 -0 -1.28722e-06)
(0 -0 -1.31714e-06)
(0 -0 -1.34667e-06)
(0 -0 -1.37642e-06)
(0 -0 -1.40699e-06)
(0 -0 -1.43911e-06)
(0 -0 -1.47346e-06)
(0 -0 -1.51006e-06)
(0 -0 -1.54826e-06)
(0 -0 -1.58724e-06)
(0 -0 -1.62616e-06)
(0 -0 -1.66416e-06)
(0 -0 -1.70063e-06)
(0 -0 -1.73532e-06)
(0 -0 -1.76807e-06)
(0 -0 -1.79894e-06)
(0 -0 -1.82849e-06)
(0 -0 -1.85763e-06)
(0 -0 -1.88724e-06)
(0 -0 -1.918e-06)
(0 -0 -1.9504e-06)
(0 -0 -1.98456e-06)
(0 -0 -2.02e-06)
(0 -0 -2.05587e-06)
(0 -0 -2.09113e-06)
(0 -0 -2.12476e-06)
(0 -0 -2.15616e-06)
(0 -0 -2.18546e-06)
(0 -0 -2.21354e-06)
(0 -0 -2.24169e-06)
(0 -0 -2.27113e-06)
(0 -0 -2.30271e-06)
(0 -0 -2.33647e-06)
(0 -0 -2.37148e-06)
(0 -0 -2.40621e-06)
(0 -0 -2.43909e-06)
(0 -0 -2.46882e-06)
(0 -0 -2.49459e-06)
(0 -0 -2.51631e-06)
(0 -0 -2.5348e-06)
(0 -0 -2.55159e-06)
(0 -0 -2.56844e-06)
(0 -0 -2.58692e-06)
(0 -0 -2.60814e-06)
(0 -0 -2.63262e-06)
(0 -0 -2.66006e-06)
(0 -0 -2.68923e-06)
(0 -0 -2.71824e-06)
(0 -0 -2.74497e-06)
(0 -0 -2.76758e-06)
(0 -0 -2.78502e-06)
(0 -0 -2.79744e-06)
(0 -0 -2.80646e-06)
(0 -0 -2.81465e-06)
(0 -0 -2.82476e-06)
(0 -0 -2.83891e-06)
(0 -0 -2.85804e-06)
(0 -0 -2.88163e-06)
(0 -0 -2.90785e-06)
(0 -0 -2.93418e-06)
(0 -0 -2.95834e-06)
(0 -0 -2.97891e-06)
(0 -0 -2.99565e-06)
(0 -0 -3.00927e-06)
(0 -0 -3.02079e-06)
(0 -0 -3.0309e-06)
(0 -0 -3.03983e-06)
(0 -0 -3.04734e-06)
(0 -0 -3.05321e-06)
(0 -0 -3.05779e-06)
(0 -0 -3.06228e-06)
(0 -0 -3.06859e-06)
(0 -0 -3.07865e-06)
(0 -0 -3.09364e-06)
(0 -0 -3.11348e-06)
(0 -0 -3.13685e-06)
(0 -0 -3.16155e-06)
(0 -0 -3.18487e-06)
(0 -0 -3.20423e-06)
(0 -0 -3.21788e-06)
(0 -0 -3.22534e-06)
(0 -0 -3.22741e-06)
(0 -0 -3.22568e-06)
(0 -0 -3.22194e-06)
(0 -0 -3.21743e-06)
(0 -0 -3.21277e-06)
(0 -0 -3.20795e-06)
(0 -0 -3.20242e-06)
(0 -0 -3.19567e-06)
(0 -0 -3.18749e-06)
(0 -0 -3.17844e-06)
(0 -0 -3.1701e-06)
(0 -0 -3.16482e-06)
(0 -0 -3.16506e-06)
(0 -0 -3.17207e-06)
(0 -0 -3.18511e-06)
(0 -0 -3.20142e-06)
(0 -0 -3.21683e-06)
(0 -0 -3.22709e-06)
(0 -0 -3.22942e-06)
(0 -0 -3.2234e-06)
(0 -0 -3.21073e-06)
(0 -0 -3.19449e-06)
(0 -0 -3.17815e-06)
(0 -0 -3.16464e-06)
(0 -0 -3.15557e-06)
(0 -0 -3.15098e-06)
(0 -0 -3.14945e-06)
(0 -0 -3.14855e-06)
(0 -0 -3.14562e-06)
(0 -0 -3.13862e-06)
(0 -0 -3.12701e-06)
(0 -0 -3.11173e-06)
(0 -0 -3.09487e-06)
(0 -0 -3.07858e-06)
(0 -0 -3.06421e-06)
(0 -0 -3.05126e-06)
(0 -0 -3.0376e-06)
(0 -0 -3.02016e-06)
(0 -0 -2.99655e-06)
(0 -0 -2.96682e-06)
(0 -0 -2.93385e-06)
(0 -0 -2.90259e-06)
(0 -0 -2.87768e-06)
(0 -0 -2.8616e-06)
(0 -0 -2.85372e-06)
(0 -0 -2.85085e-06)
(0 -0 -2.84887e-06)
(0 -0 -2.84427e-06)
(0 -0 -2.83508e-06)
(0 -0 -2.82113e-06)
(0 -0 -2.80358e-06)
(0 -0 -2.78438e-06)
(0 -0 -2.76541e-06)
(0 -0 -2.74819e-06)
(0 -0 -2.73325e-06)
(0 -0 -2.72021e-06)
(0 -0 -2.70773e-06)
(0 -0 -2.69419e-06)
(0 -0 -2.6781e-06)
(0 -0 -2.65877e-06)
(0 -0 -2.63647e-06)
(0 -0 -2.61222e-06)
(0 -0 -2.58728e-06)
(0 -0 -2.56243e-06)
(0 -0 -2.53789e-06)
(0 -0 -2.51329e-06)
(0 -0 -2.48822e-06)
(0 -0 -2.4626e-06)
(0 -0 -2.43684e-06)
(0 -0 -2.41126e-06)
(0 -0 -2.38621e-06)
(0 -0 -2.36136e-06)
(0 -0 -2.33601e-06)
(0 -0 -2.30929e-06)
(0 -0 -2.28083e-06)
(0 -0 -2.2511e-06)
(0 -0 -2.22119e-06)
(0 -0 -2.19234e-06)
(0 -0 -2.16547e-06)
(0 -0 -2.14029e-06)
(0 -0 -2.11545e-06)
(0 -0 -2.08932e-06)
(0 -0 -2.06063e-06)
(0 -0 -2.02893e-06)
(0 -0 -1.99474e-06)
(0 -0 -1.95929e-06)
(0 -0 -1.92387e-06)
(0 -0 -1.88911e-06)
(0 -0 -1.85485e-06)
(0 -0 -1.82034e-06)
(0 -0 -1.78461e-06)
(0 -0 -1.74714e-06)
(0 -0 -1.70806e-06)
(0 -0 -1.66795e-06)
(0 -0 -1.62766e-06)
(0 -0 -1.58781e-06)
(0 -0 -1.5487e-06)
(0 -0 -1.5104e-06)
(0 -0 -1.47263e-06)
(0 -0 -1.43497e-06)
(0 -0 -1.39691e-06)
(0 -0 -1.35792e-06)
(0 -0 -1.31759e-06)
(0 -0 -1.27575e-06)
(0 -0 -1.23263e-06)
(0 -0 -1.18872e-06)
(0 -0 -1.14482e-06)
(0 -0 -1.10173e-06)
(0 -0 -1.05999e-06)
(0 -0 -1.01991e-06)
(0 -0 -9.81292e-07)
(0 -0 -9.4374e-07)
(0 -0 -9.0682e-07)
(0 -0 -8.70219e-07)
(0 -0 -8.33741e-07)
(0 -0 -7.97213e-07)
(0 -0 -7.60471e-07)
(0 -0 -7.23338e-07)
(0 -0 -6.85647e-07)
(0 -0 -6.47356e-07)
(0 -0 -6.08575e-07)
(0 -0 -5.69514e-07)
(0 -0 -5.3048e-07)
(0 -0 -4.91669e-07)
(0 -0 -4.53093e-07)
(0 -0 -4.14596e-07)
(0 -0 -3.75952e-07)
(0 -0 -3.37032e-07)
(0 -0 -2.97869e-07)
(0 -0 -2.58671e-07)
(0 -0 -2.19756e-07)
(0 -0 -1.8162e-07)
(0 -0 -1.45013e-07)
(0 -0 -1.10904e-07)
(0 -0 -8.02881e-08)
(0 -0 -5.38253e-08)
(0 -0 -3.15579e-08)
(0 -0 -1.05755e-08)
(0 -0 -1.69071e-07)
(0 -0 -4.44835e-07)
(0 -0 -2.56477e-07)
(0 -0 -2.9173e-07)
(0 -0 -3.6963e-07)
(0 -0 -4.49653e-07)
(0 -0 -5.23791e-07)
(0 -0 -5.96472e-07)
(0 -0 -6.74634e-07)
(0 -0 -7.63053e-07)
(0 -0 -8.63104e-07)
(0 -0 -9.73531e-07)
(0 -0 -1.09153e-06)
(0 -0 -1.2139e-06)
(0 -0 -1.33764e-06)
(0 -0 -1.46041e-06)
(0 -0 -1.58076e-06)
(0 -0 -1.6981e-06)
(0 -0 -1.81282e-06)
(0 -0 -1.92562e-06)
(0 -0 -2.03731e-06)
(0 -0 -2.14885e-06)
(0 -0 -2.26087e-06)
(0 -0 -2.37377e-06)
(0 -0 -2.48794e-06)
(0 -0 -2.60322e-06)
(0 -0 -2.719e-06)
(0 -0 -2.83414e-06)
(0 -0 -2.94699e-06)
(0 -0 -3.05636e-06)
(0 -0 -3.16185e-06)
(0 -0 -3.26364e-06)
(0 -0 -3.36262e-06)
(0 -0 -3.45978e-06)
(0 -0 -3.55553e-06)
(0 -0 -3.6498e-06)
(0 -0 -3.74236e-06)
(0 -0 -3.83279e-06)
(0 -0 -3.92099e-06)
(0 -0 -4.00794e-06)
(0 -0 -4.0954e-06)
(0 -0 -4.18561e-06)
(0 -0 -4.28097e-06)
(0 -0 -4.38302e-06)
(0 -0 -4.49158e-06)
(0 -0 -4.60512e-06)
(0 -0 -4.72143e-06)
(0 -0 -4.83769e-06)
(0 -0 -4.95102e-06)
(0 -0 -5.05935e-06)
(0 -0 -5.16157e-06)
(0 -0 -5.25744e-06)
(0 -0 -5.34769e-06)
(0 -0 -5.43403e-06)
(0 -0 -5.51865e-06)
(0 -0 -5.60388e-06)
(0 -0 -5.69213e-06)
(0 -0 -5.78539e-06)
(0 -0 -5.8843e-06)
(0 -0 -5.98768e-06)
(0 -0 -6.0928e-06)
(0 -0 -6.1961e-06)
(0 -0 -6.29427e-06)
(0 -0 -6.38559e-06)
(0 -0 -6.47061e-06)
(0 -0 -6.55191e-06)
(0 -0 -6.63322e-06)
(0 -0 -6.71828e-06)
(0 -0 -6.80964e-06)
(0 -0 -6.9076e-06)
(0 -0 -7.00976e-06)
(0 -0 -7.11174e-06)
(0 -0 -7.20853e-06)
(0 -0 -7.29579e-06)
(0 -0 -7.37101e-06)
(0 -0 -7.43437e-06)
(0 -0 -7.48878e-06)
(0 -0 -7.53891e-06)
(0 -0 -7.58979e-06)
(0 -0 -7.64595e-06)
(0 -0 -7.71068e-06)
(0 -0 -7.78541e-06)
(0 -0 -7.86903e-06)
(0 -0 -7.9578e-06)
(0 -0 -8.04604e-06)
(0 -0 -8.12734e-06)
(0 -0 -8.19618e-06)
(0 -0 -8.24957e-06)
(0 -0 -8.28824e-06)
(0 -0 -8.31679e-06)
(0 -0 -8.34261e-06)
(0 -0 -8.37369e-06)
(0 -0 -8.41635e-06)
(0 -0 -8.47348e-06)
(0 -0 -8.54362e-06)
(0 -0 -8.62129e-06)
(0 -0 -8.69917e-06)
(0 -0 -8.77067e-06)
(0 -0 -8.83186e-06)
(0 -0 -8.88208e-06)
(0 -0 -8.92326e-06)
(0 -0 -8.95828e-06)
(0 -0 -8.98923e-06)
(0 -0 -9.01661e-06)
(0 -0 -9.03964e-06)
(0 -0 -9.05758e-06)
(0 -0 -9.07142e-06)
(0 -0 -9.08464e-06)
(0 -0 -9.10265e-06)
(0 -0 -9.13108e-06)
(0 -0 -9.17364e-06)
(0 -0 -9.23061e-06)
(0 -0 -9.29848e-06)
(0 -0 -9.37069e-06)
(0 -0 -9.43921e-06)
(0 -0 -9.49649e-06)
(0 -0 -9.53753e-06)
(0 -0 -9.56096e-06)
(0 -0 -9.56885e-06)
(0 -0 -9.56548e-06)
(0 -0 -9.55579e-06)
(0 -0 -9.54375e-06)
(0 -0 -9.53163e-06)
(0 -0 -9.5197e-06)
(0 -0 -9.50635e-06)
(0 -0 -9.48936e-06)
(0 -0 -9.46761e-06)
(0 -0 -9.4425e-06)
(0 -0 -9.4188e-06)
(0 -0 -9.40363e-06)
(0 -0 -9.40413e-06)
(0 -0 -9.42394e-06)
(0 -0 -9.46076e-06)
(0 -0 -9.50635e-06)
(0 -0 -9.54884e-06)
(0 -0 -9.57655e-06)
(0 -0 -9.58188e-06)
(0 -0 -9.56366e-06)
(0 -0 -9.52678e-06)
(0 -0 -9.48006e-06)
(0 -0 -9.43355e-06)
(0 -0 -9.39571e-06)
(0 -0 -9.37109e-06)
(0 -0 -9.35945e-06)
(0 -0 -9.35619e-06)
(0 -0 -9.35409e-06)
(0 -0 -9.34568e-06)
(0 -0 -9.32535e-06)
(0 -0 -9.29136e-06)
(0 -0 -9.2463e-06)
(0 -0 -9.19618e-06)
(0 -0 -9.1478e-06)
(0 -0 -9.10541e-06)
(0 -0 -9.06777e-06)
(0 -0 -9.02797e-06)
(0 -0 -8.97651e-06)
(0 -0 -8.90624e-06)
(0 -0 -8.81745e-06)
(0 -0 -8.71892e-06)
(0 -0 -8.62508e-06)
(0 -0 -8.54977e-06)
(0 -0 -8.50042e-06)
(0 -0 -8.47558e-06)
(0 -0 -8.46624e-06)
(0 -0 -8.46023e-06)
(0 -0 -8.44681e-06)
(0 -0 -8.41964e-06)
(0 -0 -8.37795e-06)
(0 -0 -8.32504e-06)
(0 -0 -8.26693e-06)
(0 -0 -8.20929e-06)
(0 -0 -8.15665e-06)
(0 -0 -8.11064e-06)
(0 -0 -8.07024e-06)
(0 -0 -8.03181e-06)
(0 -0 -7.99053e-06)
(0 -0 -7.94216e-06)
(0 -0 -7.88439e-06)
(0 -0 -7.81813e-06)
(0 -0 -7.74616e-06)
(0 -0 -7.67221e-06)
(0 -0 -7.59828e-06)
(0 -0 -7.52496e-06)
(0 -0 -7.45092e-06)
(0 -0 -7.37521e-06)
(0 -0 -7.29738e-06)
(0 -0 -7.21892e-06)
(0 -0 -7.14111e-06)
(0 -0 -7.06493e-06)
(0 -0 -6.98945e-06)
(0 -0 -6.91228e-06)
(0 -0 -6.83089e-06)
(0 -0 -6.74415e-06)
(0 -0 -6.65331e-06)
(0 -0 -6.5619e-06)
(0 -0 -6.47367e-06)
(0 -0 -6.39107e-06)
(0 -0 -6.31358e-06)
(0 -0 -6.23766e-06)
(0 -0 -6.15847e-06)
(0 -0 -6.07203e-06)
(0 -0 -5.97704e-06)
(0 -0 -5.87522e-06)
(0 -0 -5.77026e-06)
(0 -0 -5.66585e-06)
(0 -0 -5.56363e-06)
(0 -0 -5.46272e-06)
(0 -0 -5.36065e-06)
(0 -0 -5.25463e-06)
(0 -0 -5.14314e-06)
(0 -0 -5.02664e-06)
(0 -0 -4.90708e-06)
(0 -0 -4.78693e-06)
(0 -0 -4.66834e-06)
(0 -0 -4.55243e-06)
(0 -0 -4.43941e-06)
(0 -0 -4.3285e-06)
(0 -0 -4.21835e-06)
(0 -0 -4.10737e-06)
(0 -0 -3.99389e-06)
(0 -0 -3.87664e-06)
(0 -0 -3.75494e-06)
(0 -0 -3.62931e-06)
(0 -0 -3.50133e-06)
(0 -0 -3.37336e-06)
(0 -0 -3.2479e-06)
(0 -0 -3.12667e-06)
(0 -0 -3.01037e-06)
(0 -0 -2.89855e-06)
(0 -0 -2.79006e-06)
(0 -0 -2.68363e-06)
(0 -0 -2.5782e-06)
(0 -0 -2.47307e-06)
(0 -0 -2.36769e-06)
(0 -0 -2.26159e-06)
(0 -0 -2.15419e-06)
(0 -0 -2.04491e-06)
(0 -0 -1.93352e-06)
(0 -0 -1.82036e-06)
(0 -0 -1.70615e-06)
(0 -0 -1.59179e-06)
(0 -0 -1.47779e-06)
(0 -0 -1.36406e-06)
(0 -0 -1.25015e-06)
(0 -0 -1.13547e-06)
(0 -0 -1.01971e-06)
(0 -0 -9.02874e-07)
(0 -0 -7.85438e-07)
(0 -0 -6.6834e-07)
(0 -0 -5.53175e-07)
(0 -0 -4.4234e-07)
(0 -0 -3.38765e-07)
(0 -0 -2.45371e-07)
(0 -0 -1.64133e-07)
(0 -0 -9.54072e-08)
(0 -0 -3.18792e-08)
(0 -0 -4.89676e-07)
(0 -0 -1.03507e-06)
(0 -0 -9.69121e-07)
(0 -0 -1.0162e-06)
(0 -0 -1.08922e-06)
(0 -0 -1.16355e-06)
(0 -0 -1.2358e-06)
(0 -0 -1.31329e-06)
(0 -0 -1.40527e-06)
(0 -0 -1.51791e-06)
(0 -0 -1.65283e-06)
(0 -0 -1.8076e-06)
(0 -0 -1.97712e-06)
(0 -0 -2.1554e-06)
(0 -0 -2.33717e-06)
(0 -0 -2.5188e-06)
(0 -0 -2.69815e-06)
(0 -0 -2.87467e-06)
(0 -0 -3.04861e-06)
(0 -0 -3.2205e-06)
(0 -0 -3.39133e-06)
(0 -0 -3.56209e-06)
(0 -0 -3.7338e-06)
(0 -0 -3.90758e-06)
(0 -0 -4.08391e-06)
(0 -0 -4.26252e-06)
(0 -0 -4.44231e-06)
(0 -0 -4.62122e-06)
(0 -0 -4.79708e-06)
(0 -0 -4.96841e-06)
(0 -0 -5.13447e-06)
(0 -0 -5.29575e-06)
(0 -0 -5.45361e-06)
(0 -0 -5.60919e-06)
(0 -0 -5.76298e-06)
(0 -0 -5.91477e-06)
(0 -0 -6.06355e-06)
(0 -0 -6.20827e-06)
(0 -0 -6.34908e-06)
(0 -0 -6.48768e-06)
(0 -0 -6.62713e-06)
(0 -0 -6.77161e-06)
(0 -0 -6.92516e-06)
(0 -0 -7.09002e-06)
(0 -0 -7.26616e-06)
(0 -0 -7.45141e-06)
(0 -0 -7.64171e-06)
(0 -0 -7.83187e-06)
(0 -0 -8.01709e-06)
(0 -0 -8.19373e-06)
(0 -0 -8.35943e-06)
(0 -0 -8.51345e-06)
(0 -0 -8.65694e-06)
(0 -0 -8.79254e-06)
(0 -0 -8.92399e-06)
(0 -0 -9.05587e-06)
(0 -0 -9.19294e-06)
(0 -0 -9.33885e-06)
(0 -0 -9.49487e-06)
(0 -0 -9.6593e-06)
(0 -0 -9.82762e-06)
(0 -0 -9.99359e-06)
(0 -0 -1.01513e-05)
(0 -0 -1.02976e-05)
(0 -0 -1.04327e-05)
(0 -0 -1.05607e-05)
(0 -0 -1.06879e-05)
(0 -0 -1.08211e-05)
(0 -0 -1.09649e-05)
(0 -0 -1.11201e-05)
(0 -0 -1.12829e-05)
(0 -0 -1.14462e-05)
(0 -0 -1.16013e-05)
(0 -0 -1.17408e-05)
(0 -0 -1.18609e-05)
(0 -0 -1.19624e-05)
(0 -0 -1.20504e-05)
(0 -0 -1.21326e-05)
(0 -0 -1.22173e-05)
(0 -0 -1.23121e-05)
(0 -0 -1.24224e-05)
(0 -0 -1.255e-05)
(0 -0 -1.26924e-05)
(0 -0 -1.2843e-05)
(0 -0 -1.29923e-05)
(0 -0 -1.31297e-05)
(0 -0 -1.32461e-05)
(0 -0 -1.33369e-05)
(0 -0 -1.34035e-05)
(0 -0 -1.34533e-05)
(0 -0 -1.34982e-05)
(0 -0 -1.35509e-05)
(0 -0 -1.36215e-05)
(0 -0 -1.37145e-05)
(0 -0 -1.38274e-05)
(0 -0 -1.39519e-05)
(0 -0 -1.40764e-05)
(0 -0 -1.4191e-05)
(0 -0 -1.42895e-05)
(0 -0 -1.43712e-05)
(0 -0 -1.44391e-05)
(0 -0 -1.44978e-05)
(0 -0 -1.45506e-05)
(0 -0 -1.45976e-05)
(0 -0 -1.46371e-05)
(0 -0 -1.46673e-05)
(0 -0 -1.46896e-05)
(0 -0 -1.47094e-05)
(0 -0 -1.47353e-05)
(0 -0 -1.47766e-05)
(0 -0 -1.48401e-05)
(0 -0 -1.4927e-05)
(0 -0 -1.50325e-05)
(0 -0 -1.51463e-05)
(0 -0 -1.52558e-05)
(0 -0 -1.53488e-05)
(0 -0 -1.54174e-05)
(0 -0 -1.5459e-05)
(0 -0 -1.54764e-05)
(0 -0 -1.5476e-05)
(0 -0 -1.54657e-05)
(0 -0 -1.54522e-05)
(0 -0 -1.54393e-05)
(0 -0 -1.54273e-05)
(0 -0 -1.54134e-05)
(0 -0 -1.53937e-05)
(0 -0 -1.53658e-05)
(0 -0 -1.53316e-05)
(0 -0 -1.52983e-05)
(0 -0 -1.52768e-05)
(0 -0 -1.52775e-05)
(0 -0 -1.53062e-05)
(0 -0 -1.53594e-05)
(0 -0 -1.5425e-05)
(0 -0 -1.54852e-05)
(0 -0 -1.55231e-05)
(0 -0 -1.55276e-05)
(0 -0 -1.54972e-05)
(0 -0 -1.54398e-05)
(0 -0 -1.53691e-05)
(0 -0 -1.53006e-05)
(0 -0 -1.52469e-05)
(0 -0 -1.52142e-05)
(0 -0 -1.52015e-05)
(0 -0 -1.52009e-05)
(0 -0 -1.52009e-05)
(0 -0 -1.51897e-05)
(0 -0 -1.51588e-05)
(0 -0 -1.51055e-05)
(0 -0 -1.50341e-05)
(0 -0 -1.49544e-05)
(0 -0 -1.48777e-05)
(0 -0 -1.48108e-05)
(0 -0 -1.47521e-05)
(0 -0 -1.46899e-05)
(0 -0 -1.46085e-05)
(0 -0 -1.44959e-05)
(0 -0 -1.4352e-05)
(0 -0 -1.41909e-05)
(0 -0 -1.40357e-05)
(0 -0 -1.39097e-05)
(0 -0 -1.38262e-05)
(0 -0 -1.37838e-05)
(0 -0 -1.37685e-05)
(0 -0 -1.37601e-05)
(0 -0 -1.37404e-05)
(0 -0 -1.36982e-05)
(0 -0 -1.36316e-05)
(0 -0 -1.35455e-05)
(0 -0 -1.34494e-05)
(0 -0 -1.33529e-05)
(0 -0 -1.32638e-05)
(0 -0 -1.31857e-05)
(0 -0 -1.31174e-05)
(0 -0 -1.30533e-05)
(0 -0 -1.29856e-05)
(0 -0 -1.29074e-05)
(0 -0 -1.28148e-05)
(0 -0 -1.27093e-05)
(0 -0 -1.25948e-05)
(0 -0 -1.24772e-05)
(0 -0 -1.23593e-05)
(0 -0 -1.22416e-05)
(0 -0 -1.21216e-05)
(0 -0 -1.19976e-05)
(0 -0 -1.18692e-05)
(0 -0 -1.17389e-05)
(0 -0 -1.16098e-05)
(0 -0 -1.14836e-05)
(0 -0 -1.13588e-05)
(0 -0 -1.12312e-05)
(0 -0 -1.10962e-05)
(0 -0 -1.09514e-05)
(0 -0 -1.07988e-05)
(0 -0 -1.06441e-05)
(0 -0 -1.04941e-05)
(0 -0 -1.03531e-05)
(0 -0 -1.0221e-05)
(0 -0 -1.00923e-05)
(0 -0 -9.95949e-06)
(0 -0 -9.81612e-06)
(0 -0 -9.66034e-06)
(0 -0 -9.49511e-06)
(0 -0 -9.32633e-06)
(0 -0 -9.1594e-06)
(0 -0 -8.99639e-06)
(0 -0 -8.83511e-06)
(0 -0 -8.67082e-06)
(0 -0 -8.49872e-06)
(0 -0 -8.31651e-06)
(0 -0 -8.12515e-06)
(0 -0 -7.92848e-06)
(0 -0 -7.73109e-06)
(0 -0 -7.53682e-06)
(0 -0 -7.34769e-06)
(0 -0 -7.16418e-06)
(0 -0 -6.98524e-06)
(0 -0 -6.80877e-06)
(0 -0 -6.63201e-06)
(0 -0 -6.45176e-06)
(0 -0 -6.26546e-06)
(0 -0 -6.07163e-06)
(0 -0 -5.87086e-06)
(0 -0 -5.66586e-06)
(0 -0 -5.46061e-06)
(0 -0 -5.25929e-06)
(0 -0 -5.06489e-06)
(0 -0 -4.87848e-06)
(0 -0 -4.69948e-06)
(0 -0 -4.52609e-06)
(0 -0 -4.35629e-06)
(0 -0 -4.18831e-06)
(0 -0 -4.02095e-06)
(0 -0 -3.8532e-06)
(0 -0 -3.68409e-06)
(0 -0 -3.51253e-06)
(0 -0 -3.33757e-06)
(0 -0 -3.15881e-06)
(0 -0 -2.97686e-06)
(0 -0 -2.79293e-06)
(0 -0 -2.60838e-06)
(0 -0 -2.42407e-06)
(0 -0 -2.23989e-06)
(0 -0 -2.05513e-06)
(0 -0 -1.86883e-06)
(0 -0 -1.68031e-06)
(0 -0 -1.48954e-06)
(0 -0 -1.29721e-06)
(0 -0 -1.10497e-06)
(0 -0 -9.15507e-07)
(0 -0 -7.32733e-07)
(0 -0 -5.61458e-07)
(0 -0 -4.06571e-07)
(0 -0 -2.71582e-07)
(0 -0 -1.57497e-07)
(0 -0 -5.27717e-08)
(0 -0 -5.75221e-07)
(0 -0 -1.26369e-06)
(0 -0 -1.39527e-06)
(0 -0 -1.54089e-06)
(0 -0 -1.66658e-06)
(0 -0 -1.77095e-06)
(0 -0 -1.86341e-06)
(0 -0 -1.95882e-06)
(0 -0 -2.0711e-06)
(0 -0 -2.20912e-06)
(0 -0 -2.37543e-06)
(0 -0 -2.56713e-06)
(0 -0 -2.77795e-06)
(0 -0 -3.0007e-06)
(0 -0 -3.22912e-06)
(0 -0 -3.45858e-06)
(0 -0 -3.68656e-06)
(0 -0 -3.91221e-06)
(0 -0 -4.13544e-06)
(0 -0 -4.35687e-06)
(0 -0 -4.57733e-06)
(0 -0 -4.79772e-06)
(0 -0 -5.01938e-06)
(0 -0 -5.24347e-06)
(0 -0 -5.47062e-06)
(0 -0 -5.70068e-06)
(0 -0 -5.93216e-06)
(0 -0 -6.16271e-06)
(0 -0 -6.39e-06)
(0 -0 -6.61216e-06)
(0 -0 -6.82861e-06)
(0 -0 -7.04033e-06)
(0 -0 -7.24885e-06)
(0 -0 -7.45532e-06)
(0 -0 -7.66006e-06)
(0 -0 -7.86197e-06)
(0 -0 -8.05895e-06)
(0 -0 -8.24951e-06)
(0 -0 -8.43389e-06)
(0 -0 -8.61459e-06)
(0 -0 -8.79656e-06)
(0 -0 -8.98618e-06)
(0 -0 -9.18906e-06)
(0 -0 -9.40842e-06)
(0 -0 -9.64449e-06)
(0 -0 -9.89412e-06)
(0 -0 -1.01513e-05)
(0 -0 -1.04089e-05)
(0 -0 -1.06599e-05)
(0 -0 -1.08987e-05)
(0 -0 -1.1121e-05)
(0 -0 -1.13253e-05)
(0 -0 -1.15127e-05)
(0 -0 -1.16866e-05)
(0 -0 -1.18529e-05)
(0 -0 -1.20189e-05)
(0 -0 -1.21924e-05)
(0 -0 -1.23794e-05)
(0 -0 -1.25824e-05)
(0 -0 -1.27993e-05)
(0 -0 -1.30236e-05)
(0 -0 -1.3246e-05)
(0 -0 -1.34574e-05)
(0 -0 -1.36525e-05)
(0 -0 -1.38311e-05)
(0 -0 -1.39983e-05)
(0 -0 -1.41633e-05)
(0 -0 -1.43359e-05)
(0 -0 -1.4523e-05)
(0 -0 -1.47261e-05)
(0 -0 -1.49404e-05)
(0 -0 -1.5156e-05)
(0 -0 -1.53611e-05)
(0 -0 -1.55455e-05)
(0 -0 -1.57039e-05)
(0 -0 -1.58381e-05)
(0 -0 -1.59553e-05)
(0 -0 -1.60666e-05)
(0 -0 -1.61842e-05)
(0 -0 -1.63184e-05)
(0 -0 -1.6476e-05)
(0 -0 -1.66585e-05)
(0 -0 -1.68614e-05)
(0 -0 -1.7075e-05)
(0 -0 -1.72857e-05)
(0 -0 -1.74792e-05)
(0 -0 -1.76433e-05)
(0 -0 -1.77722e-05)
(0 -0 -1.78678e-05)
(0 -0 -1.79404e-05)
(0 -0 -1.80053e-05)
(0 -0 -1.80793e-05)
(0 -0 -1.81754e-05)
(0 -0 -1.82994e-05)
(0 -0 -1.8448e-05)
(0 -0 -1.86106e-05)
(0 -0 -1.87732e-05)
(0 -0 -1.8923e-05)
(0 -0 -1.90528e-05)
(0 -0 -1.9162e-05)
(0 -0 -1.92548e-05)
(0 -0 -1.93371e-05)
(0 -0 -1.94125e-05)
(0 -0 -1.94804e-05)
(0 -0 -1.95373e-05)
(0 -0 -1.95801e-05)
(0 -0 -1.96095e-05)
(0 -0 -1.96325e-05)
(0 -0 -1.96605e-05)
(0 -0 -1.97069e-05)
(0 -0 -1.97816e-05)
(0 -0 -1.98878e-05)
(0 -0 -2.00203e-05)
(0 -0 -2.01665e-05)
(0 -0 -2.03101e-05)
(0 -0 -2.04357e-05)
(0 -0 -2.0532e-05)
(0 -0 -2.05949e-05)
(0 -0 -2.06273e-05)
(0 -0 -2.06372e-05)
(0 -0 -2.06346e-05)
(0 -0 -2.06287e-05)
(0 -0 -2.06244e-05)
(0 -0 -2.06219e-05)
(0 -0 -2.06175e-05)
(0 -0 -2.06056e-05)
(0 -0 -2.05827e-05)
(0 -0 -2.05503e-05)
(0 -0 -2.05164e-05)
(0 -0 -2.0494e-05)
(0 -0 -2.04956e-05)
(0 -0 -2.0528e-05)
(0 -0 -2.05877e-05)
(0 -0 -2.06603e-05)
(0 -0 -2.07252e-05)
(0 -0 -2.07627e-05)
(0 -0 -2.07607e-05)
(0 -0 -2.07186e-05)
(0 -0 -2.06466e-05)
(0 -0 -2.05623e-05)
(0 -0 -2.04842e-05)
(0 -0 -2.04268e-05)
(0 -0 -2.03967e-05)
(0 -0 -2.03913e-05)
(0 -0 -2.03999e-05)
(0 -0 -2.04072e-05)
(0 -0 -2.03979e-05)
(0 -0 -2.03614e-05)
(0 -0 -2.02946e-05)
(0 -0 -2.02035e-05)
(0 -0 -2.01013e-05)
(0 -0 -2.00032e-05)
(0 -0 -1.99185e-05)
(0 -0 -1.98449e-05)
(0 -0 -1.97671e-05)
(0 -0 -1.96632e-05)
(0 -0 -1.95162e-05)
(0 -0 -1.9325e-05)
(0 -0 -1.91077e-05)
(0 -0 -1.88961e-05)
(0 -0 -1.87226e-05)
(0 -0 -1.8607e-05)
(0 -0 -1.8549e-05)
(0 -0 -1.85306e-05)
(0 -0 -1.85243e-05)
(0 -0 -1.85043e-05)
(0 -0 -1.84539e-05)
(0 -0 -1.83684e-05)
(0 -0 -1.82541e-05)
(0 -0 -1.81231e-05)
(0 -0 -1.79894e-05)
(0 -0 -1.78646e-05)
(0 -0 -1.7755e-05)
(0 -0 -1.76601e-05)
(0 -0 -1.75729e-05)
(0 -0 -1.74829e-05)
(0 -0 -1.73803e-05)
(0 -0 -1.726e-05)
(0 -0 -1.71234e-05)
(0 -0 -1.69761e-05)
(0 -0 -1.68246e-05)
(0 -0 -1.66726e-05)
(0 -0 -1.65191e-05)
(0 -0 -1.6361e-05)
(0 -0 -1.61952e-05)
(0 -0 -1.60224e-05)
(0 -0 -1.58462e-05)
(0 -0 -1.56719e-05)
(0 -0 -1.55018e-05)
(0 -0 -1.53339e-05)
(0 -0 -1.51618e-05)
(0 -0 -1.49782e-05)
(0 -0 -1.47792e-05)
(0 -0 -1.45671e-05)
(0 -0 -1.435e-05)
(0 -0 -1.41378e-05)
(0 -0 -1.39375e-05)
(0 -0 -1.37493e-05)
(0 -0 -1.35671e-05)
(0 -0 -1.33813e-05)
(0 -0 -1.31838e-05)
(0 -0 -1.29726e-05)
(0 -0 -1.2752e-05)
(0 -0 -1.25296e-05)
(0 -0 -1.23116e-05)
(0 -0 -1.20994e-05)
(0 -0 -1.18882e-05)
(0 -0 -1.16706e-05)
(0 -0 -1.14393e-05)
(0 -0 -1.11917e-05)
(0 -0 -1.09302e-05)
(0 -0 -1.06607e-05)
(0 -0 -1.03905e-05)
(0 -0 -1.01252e-05)
(0 -0 -9.86801e-06)
(0 -0 -9.61988e-06)
(0 -0 -9.37965e-06)
(0 -0 -9.14459e-06)
(0 -0 -8.91076e-06)
(0 -0 -8.67313e-06)
(0 -0 -8.42721e-06)
(0 -0 -8.17044e-06)
(0 -0 -7.90318e-06)
(0 -0 -7.62918e-06)
(0 -0 -7.35412e-06)
(0 -0 -7.08386e-06)
(0 -0 -6.82263e-06)
(0 -0 -6.57197e-06)
(0 -0 -6.33111e-06)
(0 -0 -6.09776e-06)
(0 -0 -5.86938e-06)
(0 -0 -5.64372e-06)
(0 -0 -5.41918e-06)
(0 -0 -5.19433e-06)
(0 -0 -4.96766e-06)
(0 -0 -4.73752e-06)
(0 -0 -4.50257e-06)
(0 -0 -4.26228e-06)
(0 -0 -4.01742e-06)
(0 -0 -3.76977e-06)
(0 -0 -3.52119e-06)
(0 -0 -3.27286e-06)
(0 -0 -3.02478e-06)
(0 -0 -2.77594e-06)
(0 -0 -2.52506e-06)
(0 -0 -2.27112e-06)
(0 -0 -2.01396e-06)
(0 -0 -1.75436e-06)
(0 -0 -1.4945e-06)
(0 -0 -1.23804e-06)
(0 -0 -9.90344e-07)
(0 -0 -7.58147e-07)
(0 -0 -5.48275e-07)
(0 -0 -3.65687e-07)
(0 -0 -2.11845e-07)
(0 -0 -7.10081e-08)
(0 -0 -5.93318e-07)
(0 -0 -1.36408e-06)
(0 -0 -1.65372e-06)
(0 -0 -1.90438e-06)
(0 -0 -2.10031e-06)
(0 -0 -2.25241e-06)
(0 -0 -2.37935e-06)
(0 -0 -2.50236e-06)
(0 -0 -2.63968e-06)
(0 -0 -2.80288e-06)
(0 -0 -2.9959e-06)
(0 -0 -3.21628e-06)
(0 -0 -3.45778e-06)
(0 -0 -3.71308e-06)
(0 -0 -3.97553e-06)
(0 -0 -4.24043e-06)
(0 -0 -4.50518e-06)
(0 -0 -4.76852e-06)
(0 -0 -5.03025e-06)
(0 -0 -5.29057e-06)
(0 -0 -5.54978e-06)
(0 -0 -5.80873e-06)
(0 -0 -6.06857e-06)
(0 -0 -6.33049e-06)
(0 -0 -6.5954e-06)
(0 -0 -6.86312e-06)
(0 -0 -7.13221e-06)
(0 -0 -7.40054e-06)
(0 -0 -7.66572e-06)
(0 -0 -7.92609e-06)
(0 -0 -8.18164e-06)
(0 -0 -8.43364e-06)
(0 -0 -8.68367e-06)
(0 -0 -8.93278e-06)
(0 -0 -9.18042e-06)
(0 -0 -9.42407e-06)
(0 -0 -9.66057e-06)
(0 -0 -9.88774e-06)
(0 -0 -1.01058e-05)
(0 -0 -1.03183e-05)
(0 -0 -1.05325e-05)
(0 -0 -1.07567e-05)
(0 -0 -1.09984e-05)
(0 -0 -1.1262e-05)
(0 -0 -1.15479e-05)
(0 -0 -1.18519e-05)
(0 -0 -1.21664e-05)
(0 -0 -1.24823e-05)
(0 -0 -1.27904e-05)
(0 -0 -1.30825e-05)
(0 -0 -1.33523e-05)
(0 -0 -1.35969e-05)
(0 -0 -1.38167e-05)
(0 -0 -1.40159e-05)
(0 -0 -1.42027e-05)
(0 -0 -1.43879e-05)
(0 -0 -1.45829e-05)
(0 -0 -1.47971e-05)
(0 -0 -1.50349e-05)
(0 -0 -1.52941e-05)
(0 -0 -1.55658e-05)
(0 -0 -1.58373e-05)
(0 -0 -1.60959e-05)
(0 -0 -1.63332e-05)
(0 -0 -1.6548e-05)
(0 -0 -1.67465e-05)
(0 -0 -1.69407e-05)
(0 -0 -1.71435e-05)
(0 -0 -1.73642e-05)
(0 -0 -1.7605e-05)
(0 -0 -1.78603e-05)
(0 -0 -1.81176e-05)
(0 -0 -1.8362e-05)
(0 -0 -1.85809e-05)
(0 -0 -1.87684e-05)
(0 -0 -1.89271e-05)
(0 -0 -1.90671e-05)
(0 -0 -1.9203e-05)
(0 -0 -1.93508e-05)
(0 -0 -1.95234e-05)
(0 -0 -1.97283e-05)
(0 -0 -1.99655e-05)
(0 -0 -2.02283e-05)
(0 -0 -2.05034e-05)
(0 -0 -2.07735e-05)
(0 -0 -2.10211e-05)
(0 -0 -2.12319e-05)
(0 -0 -2.13993e-05)
(0 -0 -2.1526e-05)
(0 -0 -2.16238e-05)
(0 -0 -2.17106e-05)
(0 -0 -2.18056e-05)
(0 -0 -2.19241e-05)
(0 -0 -2.20725e-05)
(0 -0 -2.22476e-05)
(0 -0 -2.24376e-05)
(0 -0 -2.26274e-05)
(0 -0 -2.28032e-05)
(0 -0 -2.29576e-05)
(0 -0 -2.30902e-05)
(0 -0 -2.32064e-05)
(0 -0 -2.33126e-05)
(0 -0 -2.3412e-05)
(0 -0 -2.35027e-05)
(0 -0 -2.35788e-05)
(0 -0 -2.36351e-05)
(0 -0 -2.36713e-05)
(0 -0 -2.36949e-05)
(0 -0 -2.37201e-05)
(0 -0 -2.37636e-05)
(0 -0 -2.38392e-05)
(0 -0 -2.39527e-05)
(0 -0 -2.40996e-05)
(0 -0 -2.4267e-05)
(0 -0 -2.44367e-05)
(0 -0 -2.45904e-05)
(0 -0 -2.47144e-05)
(0 -0 -2.48025e-05)
(0 -0 -2.48565e-05)
(0 -0 -2.48849e-05)
(0 -0 -2.48991e-05)
(0 -0 -2.49098e-05)
(0 -0 -2.49232e-05)
(0 -0 -2.49397e-05)
(0 -0 -2.49547e-05)
(0 -0 -2.49617e-05)
(0 -0 -2.49556e-05)
(0 -0 -2.49369e-05)
(0 -0 -2.49129e-05)
(0 -0 -2.48964e-05)
(0 -0 -2.49003e-05)
(0 -0 -2.49315e-05)
(0 -0 -2.49869e-05)
(0 -0 -2.50521e-05)
(0 -0 -2.51068e-05)
(0 -0 -2.51319e-05)
(0 -0 -2.51168e-05)
(0 -0 -2.50628e-05)
(0 -0 -2.49825e-05)
(0 -0 -2.4895e-05)
(0 -0 -2.48199e-05)
(0 -0 -2.47713e-05)
(0 -0 -2.47543e-05)
(0 -0 -2.47638e-05)
(0 -0 -2.47868e-05)
(0 -0 -2.48054e-05)
(0 -0 -2.48023e-05)
(0 -0 -2.47656e-05)
(0 -0 -2.46922e-05)
(0 -0 -2.45897e-05)
(0 -0 -2.44739e-05)
(0 -0 -2.43628e-05)
(0 -0 -2.42679e-05)
(0 -0 -2.41866e-05)
(0 -0 -2.41003e-05)
(0 -0 -2.3982e-05)
(0 -0 -2.381e-05)
(0 -0 -2.35816e-05)
(0 -0 -2.33182e-05)
(0 -0 -2.3059e-05)
(0 -0 -2.28449e-05)
(0 -0 -2.27024e-05)
(0 -0 -2.26336e-05)
(0 -0 -2.26175e-05)
(0 -0 -2.26202e-05)
(0 -0 -2.26075e-05)
(0 -0 -2.25567e-05)
(0 -0 -2.24594e-05)
(0 -0 -2.23222e-05)
(0 -0 -2.21599e-05)
(0 -0 -2.19911e-05)
(0 -0 -2.18319e-05)
(0 -0 -2.16918e-05)
(0 -0 -2.15717e-05)
(0 -0 -2.14638e-05)
(0 -0 -2.13553e-05)
(0 -0 -2.12338e-05)
(0 -0 -2.10926e-05)
(0 -0 -2.09329e-05)
(0 -0 -2.07618e-05)
(0 -0 -2.0586e-05)
(0 -0 -2.04093e-05)
(0 -0 -2.02293e-05)
(0 -0 -2.00415e-05)
(0 -0 -1.98422e-05)
(0 -0 -1.96332e-05)
(0 -0 -1.94199e-05)
(0 -0 -1.92092e-05)
(0 -0 -1.90046e-05)
(0 -0 -1.88025e-05)
(0 -0 -1.8594e-05)
(0 -0 -1.83688e-05)
(0 -0 -1.81212e-05)
(0 -0 -1.78536e-05)
(0 -0 -1.75761e-05)
(0 -0 -1.73022e-05)
(0 -0 -1.70417e-05)
(0 -0 -1.67964e-05)
(0 -0 -1.656e-05)
(0 -0 -1.6322e-05)
(0 -0 -1.60739e-05)
(0 -0 -1.58141e-05)
(0 -0 -1.55483e-05)
(0 -0 -1.52852e-05)
(0 -0 -1.50307e-05)
(0 -0 -1.47836e-05)
(0 -0 -1.45358e-05)
(0 -0 -1.42756e-05)
(0 -0 -1.39939e-05)
(0 -0 -1.3688e-05)
(0 -0 -1.33625e-05)
(0 -0 -1.30262e-05)
(0 -0 -1.26892e-05)
(0 -0 -1.23592e-05)
(0 -0 -1.20407e-05)
(0 -0 -1.17353e-05)
(0 -0 -1.1442e-05)
(0 -0 -1.11577e-05)
(0 -0 -1.0877e-05)
(0 -0 -1.05928e-05)
(0 -0 -1.02983e-05)
(0 -0 -9.98923e-06)
(0 -0 -9.66591e-06)
(0 -0 -9.33301e-06)
(0 -0 -8.99805e-06)
(0 -0 -8.6685e-06)
(0 -0 -8.34959e-06)
(0 -0 -8.04314e-06)
(0 -0 -7.74807e-06)
(0 -0 -7.4617e-06)
(0 -0 -7.18118e-06)
(0 -0 -6.90412e-06)
(0 -0 -6.62868e-06)
(0 -0 -6.35323e-06)
(0 -0 -6.07583e-06)
(0 -0 -5.7943e-06)
(0 -0 -5.50691e-06)
(0 -0 -5.21303e-06)
(0 -0 -4.91351e-06)
(0 -0 -4.61046e-06)
(0 -0 -4.30621e-06)
(0 -0 -4.00223e-06)
(0 -0 -3.69867e-06)
(0 -0 -3.39436e-06)
(0 -0 -3.08776e-06)
(0 -0 -2.77749e-06)
(0 -0 -2.46314e-06)
(0 -0 -2.14553e-06)
(0 -0 -1.82712e-06)
(0 -0 -1.51247e-06)
(0 -0 -1.20832e-06)
(0 -0 -9.2328e-07)
(0 -0 -6.66113e-07)
(0 -0 -4.43189e-07)
(0 -0 -2.56328e-07)
(0 -0 -8.59053e-08)
(0 -0 -5.87546e-07)
(0 -0 -1.39949e-06)
(0 -0 -1.79571e-06)
(0 -0 -2.13064e-06)
(0 -0 -2.39241e-06)
(0 -0 -2.59567e-06)
(0 -0 -2.76306e-06)
(0 -0 -2.91905e-06)
(0 -0 -3.08434e-06)
(0 -0 -3.27227e-06)
(0 -0 -3.48805e-06)
(0 -0 -3.73027e-06)
(0 -0 -3.99355e-06)
(0 -0 -4.27107e-06)
(0 -0 -4.55678e-06)
(0 -0 -4.84644e-06)
(0 -0 -5.13743e-06)
(0 -0 -5.42848e-06)
(0 -0 -5.71895e-06)
(0 -0 -6.00828e-06)
(0 -0 -6.2963e-06)
(0 -0 -6.58331e-06)
(0 -0 -6.87013e-06)
(0 -0 -7.15807e-06)
(0 -0 -7.44814e-06)
(0 -0 -7.7404e-06)
(0 -0 -8.03398e-06)
(0 -0 -8.32706e-06)
(0 -0 -8.61766e-06)
(0 -0 -8.90486e-06)
(0 -0 -9.18917e-06)
(0 -0 -9.47204e-06)
(0 -0 -9.75515e-06)
(0 -0 -1.0039e-05)
(0 -0 -1.03216e-05)
(0 -0 -1.0599e-05)
(0 -0 -1.08669e-05)
(0 -0 -1.11221e-05)
(0 -0 -1.13648e-05)
(0 -0 -1.16002e-05)
(0 -0 -1.1837e-05)
(0 -0 -1.20857e-05)
(0 -0 -1.23553e-05)
(0 -0 -1.26517e-05)
(0 -0 -1.29753e-05)
(0 -0 -1.33211e-05)
(0 -0 -1.36807e-05)
(0 -0 -1.40433e-05)
(0 -0 -1.43973e-05)
(0 -0 -1.47321e-05)
(0 -0 -1.50391e-05)
(0 -0 -1.53131e-05)
(0 -0 -1.55536e-05)
(0 -0 -1.57655e-05)
(0 -0 -1.59592e-05)
(0 -0 -1.61493e-05)
(0 -0 -1.63516e-05)
(0 -0 -1.65797e-05)
(0 -0 -1.68406e-05)
(0 -0 -1.71322e-05)
(0 -0 -1.74434e-05)
(0 -0 -1.77577e-05)
(0 -0 -1.80578e-05)
(0 -0 -1.8332e-05)
(0 -0 -1.85775e-05)
(0 -0 -1.88015e-05)
(0 -0 -1.90184e-05)
(0 -0 -1.92439e-05)
(0 -0 -1.949e-05)
(0 -0 -1.97596e-05)
(0 -0 -2.0046e-05)
(0 -0 -2.03341e-05)
(0 -0 -2.06064e-05)
(0 -0 -2.08485e-05)
(0 -0 -2.10542e-05)
(0 -0 -2.12276e-05)
(0 -0 -2.13819e-05)
(0 -0 -2.15358e-05)
(0 -0 -2.17088e-05)
(0 -0 -2.19157e-05)
(0 -0 -2.2164e-05)
(0 -0 -2.24519e-05)
(0 -0 -2.27695e-05)
(0 -0 -2.31001e-05)
(0 -0 -2.34235e-05)
(0 -0 -2.37201e-05)
(0 -0 -2.39748e-05)
(0 -0 -2.41806e-05)
(0 -0 -2.43405e-05)
(0 -0 -2.44668e-05)
(0 -0 -2.45781e-05)
(0 -0 -2.46944e-05)
(0 -0 -2.48317e-05)
(0 -0 -2.49973e-05)
(0 -0 -2.51883e-05)
(0 -0 -2.53938e-05)
(0 -0 -2.5599e-05)
(0 -0 -2.57911e-05)
(0 -0 -2.59631e-05)
(0 -0 -2.61156e-05)
(0 -0 -2.62541e-05)
(0 -0 -2.63848e-05)
(0 -0 -2.65099e-05)
(0 -0 -2.66253e-05)
(0 -0 -2.67228e-05)
(0 -0 -2.67945e-05)
(0 -0 -2.68384e-05)
(0 -0 -2.68621e-05)
(0 -0 -2.68816e-05)
(0 -0 -2.69166e-05)
(0 -0 -2.69844e-05)
(0 -0 -2.70939e-05)
(0 -0 -2.7243e-05)
(0 -0 -2.74198e-05)
(0 -0 -2.76063e-05)
(0 -0 -2.77828e-05)
(0 -0 -2.79334e-05)
(0 -0 -2.80494e-05)
(0 -0 -2.81305e-05)
(0 -0 -2.81844e-05)
(0 -0 -2.82224e-05)
(0 -0 -2.8256e-05)
(0 -0 -2.82926e-05)
(0 -0 -2.83335e-05)
(0 -0 -2.83745e-05)
(0 -0 -2.84084e-05)
(0 -0 -2.84291e-05)
(0 -0 -2.84352e-05)
(0 -0 -2.84317e-05)
(0 -0 -2.84288e-05)
(0 -0 -2.84377e-05)
(0 -0 -2.84644e-05)
(0 -0 -2.85062e-05)
(0 -0 -2.8551e-05)
(0 -0 -2.85817e-05)
(0 -0 -2.85831e-05)
(0 -0 -2.85485e-05)
(0 -0 -2.84821e-05)
(0 -0 -2.83983e-05)
(0 -0 -2.83163e-05)
(0 -0 -2.8254e-05)
(0 -0 -2.82232e-05)
(0 -0 -2.82258e-05)
(0 -0 -2.82543e-05)
(0 -0 -2.82934e-05)
(0 -0 -2.83243e-05)
(0 -0 -2.83293e-05)
(0 -0 -2.82965e-05)
(0 -0 -2.82231e-05)
(0 -0 -2.81174e-05)
(0 -0 -2.79968e-05)
(0 -0 -2.7881e-05)
(0 -0 -2.77829e-05)
(0 -0 -2.76997e-05)
(0 -0 -2.76107e-05)
(0 -0 -2.7485e-05)
(0 -0 -2.72974e-05)
(0 -0 -2.70435e-05)
(0 -0 -2.6747e-05)
(0 -0 -2.64528e-05)
(0 -0 -2.62096e-05)
(0 -0 -2.60498e-05)
(0 -0 -2.59785e-05)
(0 -0 -2.59723e-05)
(0 -0 -2.59913e-05)
(0 -0 -2.59935e-05)
(0 -0 -2.59492e-05)
(0 -0 -2.58461e-05)
(0 -0 -2.56904e-05)
(0 -0 -2.54998e-05)
(0 -0 -2.52979e-05)
(0 -0 -2.51056e-05)
(0 -0 -2.49363e-05)
(0 -0 -2.47925e-05)
(0 -0 -2.46657e-05)
(0 -0 -2.45414e-05)
(0 -0 -2.44045e-05)
(0 -0 -2.42474e-05)
(0 -0 -2.40703e-05)
(0 -0 -2.38813e-05)
(0 -0 -2.36876e-05)
(0 -0 -2.34927e-05)
(0 -0 -2.32932e-05)
(0 -0 -2.30833e-05)