/*--------------------------------*- C++ -*----------------------------------*\
| =========                 |                                                 |
| \\      /  F ield         | OpenFOAM: The Open Source CFD Toolbox           |
|  \\    /   O peration     | Version:  v2012                                 |
|   \\  /    A nd           | Website:  www.openfoam.com                      |
|    \\/     M anipulation  |                                                 |
\*---------------------------------------------------------------------------*/
FoamFile
{
    version     2.0;
    format      ascii;
    class       volVectorField;
    location    "70";
    object      Usup;
}
// * * * * * * * * * * * * * * * * * * * * * * * * * * * * * * * * * * * * * //

dimensions      [0 1 -1 0 0 0 0];


internalField   nonuniform List<vector> 
4000
(
(-3.48213e-16 -1.01252e-16 0)
(-6.19263e-16 1.62917e-16 0)
(-1.04466e-15 7.54331e-17 0)
(-1.58012e-15 2.4504e-16 0)
(-1.65455e-15 3.6495e-16 0)
(-2.46587e-15 -7.5021e-17 0)
(-3.2331e-15 5.16887e-16 0)
(-3.21552e-15 1.24207e-15 0)
(-3.44907e-15 1.11817e-15 0)
(-3.19192e-15 7.85637e-16 0)
(-3.00236e-15 2.05502e-16 0)
(-3.98338e-15 2.22632e-16 0)
(-5.05331e-15 8.15942e-16 0)
(-4.94205e-15 1.35716e-15 0)
(-4.7183e-15 1.02211e-15 0)
(-4.96175e-15 1.06792e-15 0)
(-5.05573e-15 1.18256e-15 0)
(-5.0291e-15 1.19019e-15 0)
(-5.38741e-15 7.20951e-16 0)
(-6.06261e-15 9.82115e-16 0)
(-6.34215e-15 9.62962e-16 0)
(-6.30931e-15 1.20786e-15 0)
(-6.06597e-15 1.23486e-15 0)
(-5.67987e-15 1.50107e-15 0)
(-5.30626e-15 1.36113e-15 0)
(-4.90918e-15 1.3875e-15 0)
(-4.42005e-15 1.28764e-15 0)
(-3.81117e-15 1.37161e-15 0)
(-2.88953e-15 1.16829e-15 0)
(-2.61725e-15 9.40441e-16 0)
(-2.97262e-15 1.35544e-15 0)
(-3.05706e-15 1.35836e-15 0)
(-2.69862e-15 1.23504e-15 0)
(-2.33306e-15 1.02033e-15 0)
(-2.19037e-15 9.4932e-16 0)
(-2.6261e-15 7.56351e-16 0)
(-2.90202e-15 1.10244e-15 0)
(-2.76485e-15 1.31336e-15 0)
(-2.47155e-15 1.61171e-15 0)
(-1.77431e-15 1.27392e-15 0)
(-9.08325e-16 1.19547e-15 0)
(-1.54983e-16 8.2457e-16 0)
(1.19078e-16 7.70554e-16 0)
(6.01186e-17 7.25739e-16 0)
(-3.27321e-16 8.24752e-16 0)
(-7.90937e-16 8.93671e-16 0)
(-3.79534e-16 9.67988e-16 0)
(8.13449e-16 8.66624e-16 0)
(1.42767e-15 6.15884e-16 0)
(8.93793e-16 5.29065e-16 0)
(6.5775e-16 7.09341e-16 0)
(1.07448e-15 9.09979e-16 0)
(8.76473e-16 9.43695e-16 0)
(2.55015e-16 8.55484e-16 0)
(-2.14353e-16 9.93157e-16 0)
(1.19518e-16 1.17367e-15 0)
(9.05996e-16 1.0363e-15 0)
(1.4789e-15 7.92953e-16 0)
(1.902e-15 7.45688e-16 0)
(2.17326e-15 4.4971e-16 0)
(2.33024e-15 2.93227e-16 0)
(2.26846e-15 1.47296e-16 0)
(2.00238e-15 3.15978e-16 0)
(1.82617e-15 5.88959e-17 0)
(1.64439e-15 -1.04523e-16 0)
(1.54725e-15 -1.33112e-16 0)
(1.53951e-15 -1.21625e-16 0)
(1.45013e-15 -1.70068e-16 0)
(1.20113e-15 -5.53634e-17 0)
(1.2085e-15 -5.36223e-17 0)
(1.56246e-15 2.39029e-17 0)
(1.69336e-15 1.65954e-16 0)
(2.40692e-15 1.65781e-16 0)
(3.24268e-15 1.35093e-16 0)
(3.54778e-15 -5.75499e-17 0)
(3.92159e-15 -1.02836e-16 0)
(3.9455e-15 -2.40958e-16 0)
(3.70616e-15 -2.80956e-16 0)
(3.58288e-15 -2.01301e-16 0)
(3.26479e-15 -3.42527e-16 0)
(3.09908e-15 -3.17557e-16 0)
(3.45888e-15 -1.35336e-16 0)
(3.5763e-15 -4.49537e-16 0)
(3.61002e-15 -7.73308e-16 0)
(3.69854e-15 -7.9991e-16 0)
(3.64265e-15 -6.6794e-16 0)
(3.44238e-15 -5.63353e-16 0)
(3.79706e-15 -1.67178e-16 0)
(4.33493e-15 -3.2445e-16 0)
(3.93963e-15 -4.1521e-16 0)
(3.51414e-15 -2.76742e-16 0)
(3.21462e-15 -4.50205e-17 0)
(3.10617e-15 7.99165e-17 0)
(2.61859e-15 -9.24259e-17 0)
(1.67776e-15 -8.75361e-17 0)
(1.78825e-15 -1.79225e-16 0)
(2.10526e-15 -3.312e-16 0)
(1.44813e-15 -2.41849e-16 0)
(9.18758e-16 -7.77852e-17 0)
(5.23791e-16 -6.9969e-19 0)
(-6.10717e-16 -7.89592e-17 0)
(-1.66765e-15 3.31934e-16 0)
(-2.98854e-15 1.07637e-16 0)
(-4.22193e-15 5.69428e-16 0)
(-5.36237e-15 9.94777e-16 0)
(-6.91157e-15 4.58266e-16 0)
(-7.8272e-15 1.69648e-15 0)
(-8.71776e-15 2.86604e-15 0)
(-1.00678e-14 2.82648e-15 0)
(-1.01513e-14 2.44693e-15 0)
(-9.89879e-15 1.09008e-15 0)
(-1.11371e-14 9.98316e-16 0)
(-1.30061e-14 2.20053e-15 0)
(-1.38389e-14 3.55909e-15 0)
(-1.39952e-14 3.3179e-15 0)
(-1.4189e-14 3.40243e-15 0)
(-1.45332e-14 3.24053e-15 0)
(-1.5132e-14 3.30435e-15 0)
(-1.58276e-14 2.71257e-15 0)
(-1.6916e-14 2.94974e-15 0)
(-1.75989e-14 3.11807e-15 0)
(-1.75135e-14 3.64379e-15 0)
(-1.69079e-14 3.81938e-15 0)
(-1.6074e-14 4.21292e-15 0)
(-1.52254e-14 4.14606e-15 0)
(-1.40669e-14 4.12559e-15 0)
(-1.26746e-14 4.01438e-15 0)
(-1.11367e-14 4.08354e-15 0)
(-9.3214e-15 3.67768e-15 0)
(-8.07315e-15 3.41653e-15 0)
(-8.32224e-15 3.74281e-15 0)
(-8.72949e-15 4.00443e-15 0)
(-8.10304e-15 3.71237e-15 0)
(-7.25264e-15 3.25729e-15 0)
(-6.9184e-15 3.03294e-15 0)
(-7.33669e-15 2.74209e-15 0)
(-7.48896e-15 3.36751e-15 0)
(-7.13566e-15 3.36306e-15 0)
(-6.6609e-15 3.77741e-15 0)
(-5.21857e-15 3.60702e-15 0)
(-3.1624e-15 3.45246e-15 0)
(-1.3418e-15 2.79664e-15 0)
(-2.95502e-16 2.69043e-15 0)
(-1.72247e-16 2.38581e-15 0)
(-7.52416e-16 2.3469e-15 0)
(-1.45738e-15 2.62204e-15 0)
(-5.79443e-16 2.83301e-15 0)
(1.61743e-15 2.74521e-15 0)
(2.98114e-15 2.3065e-15 0)
(2.54052e-15 1.9721e-15 0)
(2.3603e-15 2.22798e-15 0)
(2.8921e-15 2.70117e-15 0)
(2.24739e-15 2.79725e-15 0)
(1.10721e-15 2.5085e-15 0)
(4.62724e-16 2.82506e-15 0)
(1.00484e-15 3.36014e-15 0)
(2.40739e-15 3.12063e-15 0)
(3.90426e-15 2.62938e-15 0)
(4.96794e-15 2.25836e-15 0)
(5.62154e-15 1.44828e-15 0)
(6.13441e-15 6.27926e-16 0)
(6.27543e-15 1.61922e-16 0)
(5.66303e-15 3.32794e-16 0)
(4.98695e-15 2.00994e-16 0)
(4.73171e-15 -1.59189e-16 0)
(4.60719e-15 -3.60566e-16 0)
(4.50827e-15 -3.6691e-16 0)
(4.37194e-15 -2.44356e-16 0)
(3.98297e-15 -1.42663e-16 0)
(4.05906e-15 -3.56674e-16 0)
(4.96104e-15 -3.53522e-16 0)
(5.52147e-15 1.897e-16 0)
(7.07218e-15 4.07113e-16 0)
(8.83754e-15 2.77018e-16 0)
(9.79108e-15 -6.92738e-17 0)
(1.07154e-14 -2.81841e-16 0)
(1.08683e-14 -6.44614e-16 0)
(1.06076e-14 -5.98956e-16 0)
(1.02074e-14 -6.50007e-16 0)
(9.5361e-15 -7.81719e-16 0)
(9.47934e-15 -5.29287e-16 0)
(9.87334e-15 -4.17636e-16 0)
(9.80026e-15 -1.58563e-15 0)
(1.014e-14 -2.20196e-15 0)
(1.06485e-14 -2.35143e-15 0)
(1.0653e-14 -1.95438e-15 0)
(1.05659e-14 -1.4391e-15 0)
(1.10506e-14 -5.33982e-16 0)
(1.15999e-14 -7.02393e-16 0)
(1.10501e-14 -1.12912e-15 0)
(1.02911e-14 -9.16112e-16 0)
(9.45443e-15 -3.74873e-16 0)
(8.58582e-15 -1.04611e-16 0)
(7.22106e-15 -4.46532e-16 0)
(5.30949e-15 -5.17538e-16 0)
(5.02822e-15 -5.1457e-16 0)
(5.3555e-15 -8.92751e-16 0)
(4.08949e-15 -7.77831e-16 0)
(2.62029e-15 -2.24558e-16 0)
(1.16367e-15 -8.91695e-17 0)
(-9.04142e-16 6.32593e-17 0)
(-2.80249e-15 4.10528e-16 0)
(-4.78025e-15 1.70833e-16 0)
(-6.45741e-15 5.55713e-16 0)
(-8.59203e-15 1.37919e-15 0)
(-1.07336e-14 1.55821e-15 0)
(-1.20211e-14 2.58588e-15 0)
(-1.38099e-14 3.39683e-15 0)
(-1.58889e-14 4.07054e-15 0)
(-1.68477e-14 4.01773e-15 0)
(-1.70095e-14 2.57249e-15 0)
(-1.7973e-14 2.08142e-15 0)
(-1.99239e-14 3.38783e-15 0)
(-2.15146e-14 5.4416e-15 0)
(-2.24463e-14 6.01044e-15 0)
(-2.31626e-14 5.91767e-15 0)
(-2.37324e-14 5.30971e-15 0)
(-2.44726e-14 5.24416e-15 0)
(-2.56156e-14 4.81514e-15 0)
(-2.69239e-14 4.99947e-15 0)
(-2.76375e-14 5.51498e-15 0)
(-2.75645e-14 6.13815e-15 0)
(-2.68093e-14 6.50529e-15 0)
(-2.55843e-14 6.70995e-15 0)
(-2.43084e-14 6.89715e-15 0)
(-2.25683e-14 6.9654e-15 0)
(-2.04173e-14 6.77264e-15 0)
(-1.82136e-14 6.81277e-15 0)
(-1.56201e-14 6.66234e-15 0)
(-1.37992e-14 6.31383e-15 0)
(-1.36396e-14 6.05827e-15 0)
(-1.3909e-14 6.4503e-15 0)
(-1.33283e-14 6.06635e-15 0)
(-1.21486e-14 5.34206e-15 0)
(-1.15389e-14 4.8242e-15 0)
(-1.16601e-14 4.85106e-15 0)
(-1.18604e-14 5.21953e-15 0)
(-1.135e-14 5.00284e-15 0)
(-1.00665e-14 5.17563e-15 0)
(-7.98323e-15 5.56406e-15 0)
(-5.36918e-15 5.86281e-15 0)
(-2.74905e-15 5.22173e-15 0)
(-1.19668e-15 4.67452e-15 0)
(-9.42262e-16 3.87769e-15 0)
(-1.17344e-15 3.43572e-15 0)
(-1.60752e-15 4.25572e-15 0)
(-4.21996e-16 4.79902e-15 0)
(2.2606e-15 5.03463e-15 0)
(3.92923e-15 4.37606e-15 0)
(3.74569e-15 3.58528e-15 0)
(3.94117e-15 3.86983e-15 0)
(4.52717e-15 4.33238e-15 0)
(3.40992e-15 4.40467e-15 0)
(2.09264e-15 4.48534e-15 0)
(1.74648e-15 4.8196e-15 0)
(2.37896e-15 5.28424e-15 0)
(3.93855e-15 5.18315e-15 0)
(5.90073e-15 4.4721e-15 0)
(7.30166e-15 3.23875e-15 0)
(8.08821e-15 2.23561e-15 0)
(8.95591e-15 1.44775e-15 0)
(9.60867e-15 5.79108e-16 0)
(9.19849e-15 1.22116e-16 0)
(8.21433e-15 1.92569e-16 0)
(7.582e-15 -2.41895e-16 0)
(7.47463e-15 -7.07924e-16 0)
(7.55876e-15 -7.10834e-16 0)
(7.36324e-15 -2.8645e-16 0)
(6.65739e-15 -2.26834e-16 0)
(6.82471e-15 -3.39669e-16 0)
(8.5281e-15 -2.70684e-16 0)
(9.77914e-15 1.71999e-16 0)
(1.16633e-14 4.88586e-16 0)
(1.3907e-14 1.03954e-16 0)
(1.53765e-14 -1.41213e-16 0)
(1.66496e-14 -3.51826e-16 0)
(1.71485e-14 -8.16347e-16 0)
(1.69182e-14 -9.75421e-16 0)
(1.63518e-14 -1.02549e-15 0)
(1.57949e-14 -1.05047e-15 0)
(1.56293e-14 -7.72491e-16 0)
(1.53541e-14 -1.03017e-15 0)
(1.52379e-14 -2.48317e-15 0)
(1.61951e-14 -3.44231e-15 0)
(1.71664e-14 -3.69716e-15 0)
(1.75617e-14 -3.26462e-15 0)
(1.76498e-14 -2.24112e-15 0)
(1.79529e-14 -1.19287e-15 0)
(1.79704e-14 -9.8736e-16 0)
(1.72369e-14 -1.50698e-15 0)
(1.65312e-14 -1.41059e-15 0)
(1.528e-14 -8.81085e-16 0)
(1.35608e-14 -6.56393e-16 0)
(1.1385e-14 -1.12097e-15 0)
(8.95138e-15 -1.01257e-15 0)
(8.11019e-15 -7.22937e-16 0)
(7.97838e-15 -1.18393e-15 0)
(6.45664e-15 -1.28346e-15 0)
(4.16627e-15 -6.27955e-16 0)
(1.63592e-15 -2.88287e-16 0)
(-1.11826e-15 -3.58017e-17 0)
(-3.80644e-15 3.18464e-16 0)
(-6.59262e-15 2.78173e-16 0)
(-8.5362e-15 6.01244e-16 0)
(-1.12297e-14 1.37795e-15 0)
(-1.41852e-14 2.59503e-15 0)
(-1.60541e-14 3.21458e-15 0)
(-1.8188e-14 3.8533e-15 0)
(-2.09413e-14 4.5609e-15 0)
(-2.3168e-14 4.74356e-15 0)
(-2.40157e-14 3.96291e-15 0)
(-2.45353e-14 3.63789e-15 0)
(-2.5855e-14 5.12873e-15 0)
(-2.79943e-14 7.21193e-15 0)
(-3.02009e-14 8.16542e-15 0)
(-3.17613e-14 8.05825e-15 0)
(-3.25639e-14 7.83571e-15 0)
(-3.35349e-14 7.86865e-15 0)
(-3.47291e-14 7.07957e-15 0)
(-3.58588e-14 7.00372e-15 0)
(-3.6634e-14 7.57923e-15 0)
(-3.66145e-14 8.43511e-15 0)
(-3.58421e-14 9.15384e-15 0)
(-3.43307e-14 9.63046e-15 0)
(-3.25563e-14 9.99351e-15 0)
(-3.048e-14 1.00562e-14 0)
(-2.77529e-14 9.64649e-15 0)
(-2.4723e-14 9.5099e-15 0)
(-2.17855e-14 9.47273e-15 0)
(-1.96732e-14 9.03341e-15 0)
(-1.88932e-14 8.50013e-15 0)
(-1.89436e-14 8.53352e-15 0)
(-1.85333e-14 7.93292e-15 0)
(-1.7196e-14 7.05906e-15 0)
(-1.59491e-14 6.67579e-15 0)
(-1.56253e-14 6.61103e-15 0)
(-1.57654e-14 6.72035e-15 0)
(-1.49814e-14 6.68372e-15 0)
(-1.30674e-14 6.86161e-15 0)
(-1.01288e-14 7.3184e-15 0)
(-7.25557e-15 7.7669e-15 0)
(-4.65993e-15 7.20323e-15 0)
(-2.79832e-15 6.20134e-15 0)
(-2.14185e-15 5.12651e-15 0)
(-1.37329e-15 4.85968e-15 0)
(-1.09533e-15 5.90658e-15 0)
(1.65689e-16 6.69909e-15 0)
(2.68099e-15 7.04838e-15 0)
(4.1535e-15 6.31679e-15 0)
(4.6232e-15 5.58987e-15 0)
(5.42375e-15 6.08207e-15 0)
(5.90872e-15 6.15732e-15 0)
(4.81613e-15 5.87117e-15 0)
(3.51805e-15 6.42338e-15 0)
(3.06181e-15 6.62976e-15 0)
(3.82048e-15 6.92106e-15 0)
(5.37945e-15 6.81802e-15 0)
(7.13763e-15 5.77415e-15 0)
(8.93576e-15 3.9236e-15 0)
(1.06147e-14 2.97918e-15 0)
(1.16278e-14 2.61081e-15 0)
(1.20912e-14 1.42584e-15 0)
(1.19983e-14 2.47782e-16 0)
(1.10872e-14 1.07213e-16 0)
(1.01838e-14 -3.37518e-16 0)
(1.01887e-14 -5.67415e-16 0)
(1.06323e-14 -7.76692e-16 0)
(1.0464e-14 -6.93118e-16 0)
(9.68443e-15 -6.2645e-16 0)
(1.00574e-14 -1.35902e-16 0)
(1.20113e-14 1.30856e-16 0)
(1.36423e-14 1.88605e-16 0)
(1.58202e-14 4.44003e-16 0)
(1.84824e-14 1.68935e-17 0)
(2.05912e-14 -3.84067e-16 0)
(2.20879e-14 -5.52183e-16 0)
(2.26108e-14 -1.07962e-15 0)
(2.26515e-14 -1.53212e-15 0)
(2.22041e-14 -1.52675e-15 0)
(2.15654e-14 -1.19372e-15 0)
(2.12755e-14 -1.18512e-15 0)
(2.05885e-14 -1.96496e-15 0)
(2.01969e-14 -3.28948e-15 0)
(2.15563e-14 -4.26773e-15 0)
(2.3176e-14 -4.60671e-15 0)
(2.41243e-14 -4.22557e-15 0)
(2.44853e-14 -3.14938e-15 0)
(2.45246e-14 -1.82042e-15 0)
(2.39804e-14 -1.37022e-15 0)
(2.28951e-14 -1.69016e-15 0)
(2.21444e-14 -1.61177e-15 0)
(2.05222e-14 -1.39782e-15 0)
(1.79546e-14 -1.30145e-15 0)
(1.53035e-14 -1.5908e-15 0)
(1.26467e-14 -1.28332e-15 0)
(1.0997e-14 -1.06509e-15 0)
(1.01206e-14 -1.29296e-15 0)
(8.30385e-15 -1.54845e-15 0)
(5.51781e-15 -1.18605e-15 0)
(2.16765e-15 -5.42278e-16 0)
(-1.29936e-15 -3.53608e-16 0)
(-4.61614e-15 -9.15397e-17 0)
(-8.0843e-15 2.22428e-16 0)
(-1.05734e-14 6.99505e-16 0)
(-1.33957e-14 1.80225e-15 0)
(-1.6996e-14 3.68428e-15 0)
(-1.99303e-14 4.3832e-15 0)
(-2.26346e-14 4.49212e-15 0)
(-2.58615e-14 4.34447e-15 0)
(-2.86345e-14 4.49559e-15 0)
(-2.9982e-14 5.01727e-15 0)
(-3.02958e-14 5.60514e-15 0)
(-3.14831e-14 7.23743e-15 0)
(-3.42129e-14 8.76767e-15 0)
(-3.73068e-14 1.00412e-14 0)
(-3.93875e-14 1.06542e-14 0)
(-4.03244e-14 1.06785e-14 0)
(-4.19551e-14 1.03778e-14 0)
(-4.36982e-14 9.65743e-15 0)
(-4.44852e-14 9.44489e-15 0)
(-4.47714e-14 9.9277e-15 0)
(-4.45275e-14 1.09307e-14 0)
(-4.3659e-14 1.17344e-14 0)
(-4.20289e-14 1.24123e-14 0)
(-4.01873e-14 1.28423e-14 0)
(-3.79897e-14 1.28484e-14 0)
(-3.48418e-14 1.23028e-14 0)
(-3.11681e-14 1.2115e-14 0)
(-2.76724e-14 1.21847e-14 0)
(-2.53491e-14 1.19122e-14 0)
(-2.42325e-14 1.11663e-14 0)
(-2.40195e-14 1.02783e-14 0)
(-2.35524e-14 9.30657e-15 0)
(-2.16952e-14 8.75538e-15 0)
(-2.00919e-14 8.6676e-15 0)
(-1.95603e-14 8.43069e-15 0)
(-1.93751e-14 8.35682e-15 0)
(-1.82133e-14 8.28374e-15 0)
(-1.56849e-14 8.39396e-15 0)
(-1.22706e-14 8.83679e-15 0)
(-9.17597e-15 8.88828e-15 0)
(-6.50247e-15 8.674e-15 0)
(-4.48268e-15 7.56864e-15 0)
(-3.13627e-15 6.92938e-15 0)
(-1.43085e-15 7.36876e-15 0)
(-6.61279e-16 7.70257e-15 0)
(6.85023e-16 8.3048e-15 0)
(3.07758e-15 8.50434e-15 0)
(4.61266e-15 8.16754e-15 0)
(5.65867e-15 7.97313e-15 0)
(6.61241e-15 8.51774e-15 0)
(6.73423e-15 8.02873e-15 0)
(5.9423e-15 7.5116e-15 0)
(4.90628e-15 8.02008e-15 0)
(4.46024e-15 7.98259e-15 0)
(5.31026e-15 8.12854e-15 0)
(6.62451e-15 8.02638e-15 0)
(8.12113e-15 6.61487e-15 0)
(1.03391e-14 5.08912e-15 0)
(1.27897e-14 4.00502e-15 0)
(1.38394e-14 3.3534e-15 0)
(1.40304e-14 2.04175e-15 0)
(1.43442e-14 8.39115e-16 0)
(1.37713e-14 3.63607e-16 0)
(1.29285e-14 -8.8331e-17 0)
(1.28835e-14 -3.01507e-16 0)
(1.31423e-14 -6.73729e-16 0)
(1.31534e-14 -8.25674e-16 0)
(1.28552e-14 -1.103e-15 0)
(1.34804e-14 -2.19772e-16 0)
(1.54186e-14 2.30766e-16 0)
(1.74205e-14 6.90253e-18 0)
(1.9901e-14 5.28978e-16 0)
(2.26523e-14 3.21599e-16 0)
(2.51479e-14 -7.7105e-17 0)
(2.69424e-14 -8.89284e-16 0)
(2.75752e-14 -1.692e-15 0)
(2.78457e-14 -2.01823e-15 0)
(2.78352e-14 -2.32185e-15 0)
(2.72122e-14 -1.61751e-15 0)
(2.6225e-14 -1.82618e-15 0)
(2.50779e-14 -3.08911e-15 0)
(2.49436e-14 -4.1655e-15 0)
(2.67237e-14 -4.72827e-15 0)
(2.87507e-14 -4.93625e-15 0)
(3.01911e-14 -4.41221e-15 0)
(3.09604e-14 -3.80112e-15 0)
(3.08036e-14 -2.54544e-15 0)
(2.94944e-14 -1.8249e-15 0)
(2.80837e-14 -2.0173e-15 0)
(2.71329e-14 -1.96329e-15 0)
(2.51136e-14 -2.13834e-15 0)
(2.21278e-14 -1.99638e-15 0)
(1.90705e-14 -1.74664e-15 0)
(1.59141e-14 -1.69733e-15 0)
(1.36775e-14 -1.57888e-15 0)
(1.21561e-14 -1.48678e-15 0)
(9.7741e-15 -1.76394e-15 0)
(6.60232e-15 -1.53347e-15 0)
(2.77903e-15 -5.04961e-16 0)
(-1.4607e-15 -2.71665e-16 0)
(-5.23998e-15 -4.64644e-16 0)
(-9.3537e-15 3.30677e-16 0)
(-1.20577e-14 1.37279e-15 0)
(-1.49708e-14 2.52333e-15 0)
(-1.9418e-14 3.94782e-15 0)
(-2.36805e-14 4.93043e-15 0)
(-2.73743e-14 4.76321e-15 0)
(-3.09134e-14 4.60119e-15 0)
(-3.34021e-14 5.12857e-15 0)
(-3.47132e-14 6.18691e-15 0)
(-3.52722e-14 7.58304e-15 0)
(-3.67268e-14 9.11709e-15 0)
(-3.98151e-14 1.06718e-14 0)
(-4.32515e-14 1.22287e-14 0)
(-4.62165e-14 1.33373e-14 0)
(-4.81348e-14 1.33928e-14 0)
(-5.00744e-14 1.284e-14 0)
(-5.1607e-14 1.22453e-14 0)
(-5.21812e-14 1.18806e-14 0)
(-5.22167e-14 1.23932e-14 0)
(-5.18749e-14 1.38425e-14 0)
(-5.10035e-14 1.49461e-14 0)
(-4.92052e-14 1.56163e-14 0)
(-4.71851e-14 1.54988e-14 0)
(-4.49511e-14 1.53461e-14 0)
(-4.13999e-14 1.4757e-14 0)
(-3.69195e-14 1.47312e-14 0)
(-3.31017e-14 1.49953e-14 0)
(-3.07963e-14 1.47552e-14 0)
(-2.98318e-14 1.37915e-14 0)
(-2.94895e-14 1.22507e-14 0)
(-2.82983e-14 1.10819e-14 0)
(-2.5816e-14 1.017e-14 0)
(-2.39065e-14 9.94397e-15 0)
(-2.31804e-14 1.00264e-14 0)
(-2.27491e-14 9.86591e-15 0)
(-2.1227e-14 9.89517e-15 0)
(-1.81468e-14 1.00697e-14 0)
(-1.43091e-14 1.01821e-14 0)
(-1.09179e-14 1.00571e-14 0)
(-8.24079e-15 9.87444e-15 0)
(-5.92673e-15 8.8665e-15 0)
(-3.55036e-15 8.96066e-15 0)
(-1.5939e-15 9.7902e-15 0)
(-7.13748e-16 9.85786e-15 0)
(1.03302e-15 1.02904e-14 0)
(3.4952e-15 1.01382e-14 0)
(5.21407e-15 1.0042e-14 0)
(6.68421e-15 1.00891e-14 0)
(7.49121e-15 1.03371e-14 0)
(7.34211e-15 9.98277e-15 0)
(7.05712e-15 9.52568e-15 0)
(6.17694e-15 9.42e-15 0)
(5.63473e-15 9.13293e-15 0)
(6.73269e-15 8.90013e-15 0)
(7.71107e-15 8.91762e-15 0)
(9.05295e-15 7.66439e-15 0)
(1.16815e-14 6.54046e-15 0)
(1.44784e-14 5.3504e-15 0)
(1.56462e-14 3.91701e-15 0)
(1.58665e-14 2.60532e-15 0)
(1.64209e-14 1.69134e-15 0)
(1.60211e-14 1.02099e-15 0)
(1.52475e-14 4.60276e-16 0)
(1.52658e-14 -2.18171e-16 0)
(1.57526e-14 -6.77938e-16 0)
(1.57151e-14 -8.30175e-16 0)
(1.58563e-14 -1.16325e-15 0)
(1.70742e-14 -3.07217e-16 0)
(1.86965e-14 4.92035e-16 0)
(2.10165e-14 3.84007e-16 0)
(2.39612e-14 8.42645e-16 0)
(2.67208e-14 6.20793e-16 0)
(2.90649e-14 -4.08243e-17 0)
(3.07869e-14 -1.47307e-15 0)
(3.20008e-14 -2.33363e-15 0)
(3.2574e-14 -2.28586e-15 0)
(3.29414e-14 -2.4097e-15 0)
(3.23838e-14 -2.45585e-15 0)
(3.06774e-14 -3.04695e-15 0)
(2.94272e-14 -3.83923e-15 0)
(2.96352e-14 -4.42438e-15 0)
(3.16976e-14 -5.04841e-15 0)
(3.41462e-14 -4.99887e-15 0)
(3.56849e-14 -4.63303e-15 0)
(3.65375e-14 -4.27033e-15 0)
(3.65727e-14 -3.40588e-15 0)
(3.47704e-14 -2.71867e-15 0)
(3.28125e-14 -2.5252e-15 0)
(3.15134e-14 -2.58023e-15 0)
(2.92577e-14 -2.95386e-15 0)
(2.6191e-14 -2.63828e-15 0)
(2.25556e-14 -2.26606e-15 0)
(1.88268e-14 -2.14764e-15 0)
(1.62271e-14 -2.01205e-15 0)
(1.40105e-14 -1.62804e-15 0)
(1.10759e-14 -1.54852e-15 0)
(7.82224e-15 -1.12004e-15 0)
(3.33076e-15 -2.59273e-16 0)
(-2.00088e-15 -1.21135e-17 0)
(-6.03557e-15 -2.46921e-16 0)
(-9.98525e-15 6.84073e-16 0)
(-1.34502e-14 2.10113e-15 0)
(-1.71354e-14 3.09866e-15 0)
(-2.19312e-14 4.01528e-15 0)
(-2.70193e-14 4.88067e-15 0)
(-3.14431e-14 5.03567e-15 0)
(-3.49487e-14 5.40974e-15 0)
(-3.75626e-14 6.79455e-15 0)
(-3.90056e-14 7.91628e-15 0)
(-3.97152e-14 9.6314e-15 0)
(-4.14962e-14 1.10443e-14 0)
(-4.48288e-14 1.2586e-14 0)
(-4.87769e-14 1.41226e-14 0)
(-5.24195e-14 1.5171e-14 0)
(-5.49852e-14 1.5698e-14 0)
(-5.74592e-14 1.56157e-14 0)
(-5.93811e-14 1.53669e-14 0)
(-5.95847e-14 1.51191e-14 0)
(-5.86229e-14 1.59157e-14 0)
(-5.78432e-14 1.69243e-14 0)
(-5.72484e-14 1.78207e-14 0)
(-5.60349e-14 1.79755e-14 0)
(-5.41658e-14 1.73989e-14 0)
(-5.15672e-14 1.7435e-14 0)
(-4.75035e-14 1.78264e-14 0)
(-4.23553e-14 1.78935e-14 0)
(-3.82058e-14 1.78141e-14 0)
(-3.60639e-14 1.71918e-14 0)
(-3.52806e-14 1.58834e-14 0)
(-3.46613e-14 1.45339e-14 0)
(-3.32119e-14 1.37435e-14 0)
(-3.01755e-14 1.25363e-14 0)
(-2.739e-14 1.14526e-14 0)
(-2.63697e-14 1.11861e-14 0)
(-2.57367e-14 1.11829e-14 0)
(-2.37416e-14 1.10338e-14 0)
(-2.04451e-14 1.14201e-14 0)
(-1.64461e-14 1.14457e-14 0)
(-1.27278e-14 1.15809e-14 0)
(-9.90618e-15 1.1511e-14 0)
(-6.98888e-15 1.07996e-14 0)
(-3.71219e-15 1.09151e-14 0)
(-1.52374e-15 1.13745e-14 0)
(-5.5565e-16 1.18102e-14 0)
(1.15081e-15 1.23226e-14 0)
(3.68208e-15 1.17635e-14 0)
(5.82245e-15 1.17948e-14 0)
(7.46708e-15 1.20962e-14 0)
(8.37487e-15 1.22431e-14 0)
(8.16119e-15 1.21659e-14 0)
(7.69139e-15 1.1238e-14 0)
(6.92456e-15 1.05145e-14 0)
(6.60513e-15 1.04003e-14 0)
(8.02309e-15 1.00974e-14 0)
(9.04033e-15 9.75409e-15 0)
(1.01969e-14 8.67542e-15 0)
(1.29365e-14 7.75511e-15 0)
(1.55568e-14 6.35812e-15 0)
(1.68058e-14 4.53608e-15 0)
(1.75528e-14 3.60029e-15 0)
(1.84168e-14 2.49114e-15 0)
(1.81226e-14 1.89288e-15 0)
(1.72706e-14 1.16376e-15 0)
(1.73065e-14 3.84696e-16 0)
(1.7994e-14 -2.1617e-16 0)
(1.81971e-14 -7.98109e-16 0)
(1.88234e-14 -8.305e-16 0)
(2.05776e-14 -2.10868e-16 0)
(2.22288e-14 4.55163e-16 0)
(2.45133e-14 1.06278e-15 0)
(2.75197e-14 1.02207e-15 0)
(3.00679e-14 5.40736e-16 0)
(3.22317e-14 -5.83126e-16 0)
(3.43271e-14 -1.95924e-15 0)
(3.63615e-14 -2.48834e-15 0)
(3.73636e-14 -2.36293e-15 0)
(3.73858e-14 -2.17427e-15 0)
(3.64752e-14 -3.1113e-15 0)
(3.49889e-14 -3.55685e-15 0)
(3.39062e-14 -3.94267e-15 0)
(3.39536e-14 -4.37546e-15 0)
(3.6239e-14 -5.11228e-15 0)
(3.9001e-14 -5.33138e-15 0)
(4.06397e-14 -4.9922e-15 0)
(4.17005e-14 -4.47541e-15 0)
(4.16506e-14 -3.96801e-15 0)
(3.96192e-14 -3.70479e-15 0)
(3.72959e-14 -3.19489e-15 0)
(3.54211e-14 -3.28693e-15 0)
(3.30465e-14 -3.49161e-15 0)
(2.9878e-14 -3.2331e-15 0)
(2.58556e-14 -2.7822e-15 0)
(2.16415e-14 -2.27072e-15 0)
(1.86722e-14 -1.84193e-15 0)
(1.61079e-14 -1.49738e-15 0)
(1.26339e-14 -9.03235e-16 0)
(8.76649e-15 -3.27904e-16 0)
(3.58017e-15 -2.87031e-16 0)
(-2.33428e-15 2.43531e-16 0)
(-6.76463e-15 7.31252e-16 0)
(-1.0871e-14 1.55663e-15 0)
(-1.46274e-14 2.52006e-15 0)
(-1.89328e-14 3.63296e-15 0)
(-2.44353e-14 4.36134e-15 0)
(-3.01441e-14 5.10491e-15 0)
(-3.50082e-14 5.85783e-15 0)
(-3.83848e-14 6.75375e-15 0)
(-4.10206e-14 8.3778e-15 0)
(-4.27645e-14 9.8971e-15 0)
(-4.377e-14 1.15251e-14 0)
(-4.59743e-14 1.29661e-14 0)
(-4.95275e-14 1.43332e-14 0)
(-5.38101e-14 1.57664e-14 0)
(-5.79376e-14 1.70073e-14 0)
(-6.10527e-14 1.78126e-14 0)
(-6.3876e-14 1.84924e-14 0)
(-6.57818e-14 1.91496e-14 0)
(-6.57512e-14 1.94058e-14 0)
(-6.49034e-14 1.97909e-14 0)
(-6.43782e-14 1.92286e-14 0)
(-6.38656e-14 1.95707e-14 0)
(-6.27325e-14 1.94604e-14 0)
(-6.02549e-14 1.92957e-14 0)
(-5.66669e-14 1.99341e-14 0)
(-5.23874e-14 2.12039e-14 0)
(-4.75244e-14 2.13398e-14 0)
(-4.35043e-14 2.09927e-14 0)
(-4.14475e-14 1.99754e-14 0)
(-4.04266e-14 1.8378e-14 0)
(-3.91633e-14 1.68544e-14 0)
(-3.73625e-14 1.60651e-14 0)
(-3.46185e-14 1.49271e-14 0)
(-3.15599e-14 1.31818e-14 0)
(-2.95811e-14 1.24234e-14 0)
(-2.85698e-14 1.23768e-14 0)
(-2.62006e-14 1.22899e-14 0)
(-2.2353e-14 1.30068e-14 0)
(-1.79989e-14 1.35366e-14 0)
(-1.3955e-14 1.35116e-14 0)
(-1.12054e-14 1.32573e-14 0)
(-8.12578e-15 1.26145e-14 0)
(-4.33474e-15 1.24414e-14 0)
(-1.64513e-15 1.25389e-14 0)
(-2.51035e-16 1.32601e-14 0)
(1.23723e-15 1.40831e-14 0)
(3.80333e-15 1.37414e-14 0)
(6.56068e-15 1.37236e-14 0)
(8.44544e-15 1.36995e-14 0)
(9.23297e-15 1.37171e-14 0)
(8.50072e-15 1.3671e-14 0)
(7.91879e-15 1.27914e-14 0)
(7.82159e-15 1.20502e-14 0)
(7.82223e-15 1.19353e-14 0)
(9.06084e-15 1.16017e-14 0)
(9.84501e-15 1.06829e-14 0)
(1.11685e-14 9.57871e-15 0)
(1.39529e-14 8.64535e-15 0)
(1.64224e-14 6.99605e-15 0)
(1.81879e-14 5.37605e-15 0)
(1.91085e-14 4.74873e-15 0)
(2.00165e-14 3.56859e-15 0)
(1.99546e-14 2.55584e-15 0)
(1.90869e-14 1.55914e-15 0)
(1.92446e-14 7.23077e-16 0)
(1.99499e-14 -4.20549e-17 0)
(2.04523e-14 -4.99919e-16 0)
(2.16677e-14 -5.07408e-16 0)
(2.3676e-14 -1.5263e-16 0)
(2.56583e-14 4.58588e-16 0)
(2.79072e-14 1.52431e-15 0)
(3.05512e-14 1.41163e-15 0)
(3.30205e-14 8.02728e-16 0)
(3.51698e-14 -3.69394e-16 0)
(3.77131e-14 -1.87431e-15 0)
(4.03186e-14 -2.60297e-15 0)
(4.16147e-14 -2.58493e-15 0)
(4.13244e-14 -2.53515e-15 0)
(4.03798e-14 -3.58456e-15 0)
(3.91386e-14 -3.68322e-15 0)
(3.795e-14 -3.74018e-15 0)
(3.79405e-14 -4.01924e-15 0)
(4.01793e-14 -4.47248e-15 0)
(4.34075e-14 -4.95288e-15 0)
(4.54373e-14 -4.84028e-15 0)
(4.63172e-14 -4.71012e-15 0)
(4.6009e-14 -4.529e-15 0)
(4.39665e-14 -4.38182e-15 0)
(4.13969e-14 -3.84978e-15 0)
(3.91093e-14 -3.73978e-15 0)
(3.65445e-14 -3.81085e-15 0)
(3.33012e-14 -3.80769e-15 0)
(2.9114e-14 -3.21099e-15 0)
(2.45667e-14 -2.01811e-15 0)
(2.09857e-14 -1.15906e-15 0)
(1.79628e-14 -9.63269e-16 0)
(1.41805e-14 -4.30409e-16 0)
(9.41508e-15 -8.10818e-17 0)
(3.7861e-15 -3.7755e-16 0)
(-2.52993e-15 5.28397e-16 0)
(-7.35988e-15 1.52786e-15 0)
(-1.19627e-14 2.67644e-15 0)
(-1.61665e-14 3.6817e-15 0)
(-2.0923e-14 4.23053e-15 0)
(-2.68377e-14 4.72939e-15 0)
(-3.26999e-14 5.71326e-15 0)
(-3.77462e-14 6.90427e-15 0)
(-4.12936e-14 8.45044e-15 0)
(-4.40914e-14 9.91904e-15 0)
(-4.61458e-14 1.17717e-14 0)
(-4.75008e-14 1.34392e-14 0)
(-5.0023e-14 1.48131e-14 0)
(-5.38569e-14 1.61989e-14 0)
(-5.83334e-14 1.75493e-14 0)
(-6.28155e-14 1.89462e-14 0)
(-6.61162e-14 2.00835e-14 0)
(-6.8965e-14 2.16528e-14 0)
(-7.13986e-14 2.30458e-14 0)
(-7.19186e-14 2.30527e-14 0)
(-7.15684e-14 2.2499e-14 0)
(-7.07061e-14 2.10074e-14 0)
(-6.9535e-14 2.08836e-14 0)
(-6.83274e-14 2.14485e-14 0)
(-6.54352e-14 2.22029e-14 0)
(-6.12264e-14 2.32792e-14 0)
(-5.6922e-14 2.44657e-14 0)
(-5.23291e-14 2.47288e-14 0)
(-4.84018e-14 2.42446e-14 0)
(-4.65854e-14 2.28331e-14 0)
(-4.56222e-14 2.09895e-14 0)
(-4.38939e-14 1.93088e-14 0)
(-4.16752e-14 1.78987e-14 0)
(-3.88773e-14 1.64265e-14 0)
(-3.53598e-14 1.49902e-14 0)
(-3.26334e-14 1.4458e-14 0)
(-3.10233e-14 1.41502e-14 0)
(-2.79382e-14 1.46379e-14 0)
(-2.36089e-14 1.52444e-14 0)
(-1.95364e-14 1.55262e-14 0)
(-1.57626e-14 1.48631e-14 0)
(-1.27821e-14 1.42637e-14 0)
(-9.23542e-15 1.41937e-14 0)
(-4.89644e-15 1.42342e-14 0)
(-1.57566e-15 1.40871e-14 0)
(3.74128e-16 1.48797e-14 0)
(1.73062e-15 1.58783e-14 0)
(4.05136e-15 1.58724e-14 0)
(6.79094e-15 1.56347e-14 0)
(8.77245e-15 1.50548e-14 0)
(9.92242e-15 1.49278e-14 0)
(9.26799e-15 1.47806e-14 0)
(8.48515e-15 1.45434e-14 0)
(8.48288e-15 1.36456e-14 0)
(8.69598e-15 1.2958e-14 0)
(9.80141e-15 1.25506e-14 0)
(1.05715e-14 1.13879e-14 0)
(1.20547e-14 1.06383e-14 0)
(1.47186e-14 9.52229e-15 0)
(1.71206e-14 8.01394e-15 0)
(1.93524e-14 6.77073e-15 0)
(2.05945e-14 5.6402e-15 0)
(2.12943e-14 4.60511e-15 0)
(2.12181e-14 2.94455e-15 0)
(2.05632e-14 1.58292e-15 0)
(2.08409e-14 4.46604e-16 0)
(2.19009e-14 -5.99438e-16 0)
(2.27951e-14 -4.83315e-16 0)
(2.42076e-14 1.89111e-17 0)
(2.66712e-14 4.21378e-16 0)
(2.91673e-14 1.24146e-15 0)
(3.12991e-14 1.95197e-15 0)
(3.34891e-14 1.98229e-15 0)
(3.56764e-14 1.20063e-15 0)
(3.75689e-14 -1.26423e-16 0)
(4.03206e-14 -1.7635e-15 0)
(4.37343e-14 -2.8522e-15 0)
(4.54978e-14 -2.89608e-15 0)
(4.48657e-14 -3.08203e-15 0)
(4.39353e-14 -3.88574e-15 0)
(4.32426e-14 -3.78761e-15 0)
(4.20737e-14 -3.46425e-15 0)
(4.18583e-14 -3.36646e-15 0)
(4.40004e-14 -3.4617e-15 0)
(4.71526e-14 -3.9865e-15 0)
(4.91764e-14 -4.61775e-15 0)
(5.01774e-14 -5.00976e-15 0)
(4.99715e-14 -4.908e-15 0)
(4.79552e-14 -4.84197e-15 0)
(4.5273e-14 -4.22831e-15 0)
(4.25306e-14 -3.99503e-15 0)
(3.95649e-14 -4.19862e-15 0)
(3.62945e-14 -4.04912e-15 0)
(3.24832e-14 -3.30336e-15 0)
(2.7737e-14 -2.0684e-15 0)
(2.32527e-14 -8.81002e-16 0)
(1.96052e-14 -3.32358e-16 0)
(1.5333e-14 -1.12479e-16 0)
(9.88567e-15 -1.77245e-16 0)
(4.01468e-15 -2.7486e-16 0)
(-2.68193e-15 5.52765e-16 0)
(-7.75047e-15 1.91459e-15 0)
(-1.26575e-14 3.4386e-15 0)
(-1.76536e-14 4.83158e-15 0)
(-2.31036e-14 5.30897e-15 0)
(-2.90249e-14 5.73365e-15 0)
(-3.49242e-14 6.94535e-15 0)
(-4.00318e-14 8.03032e-15 0)
(-4.38207e-14 9.92463e-15 0)
(-4.68125e-14 1.16671e-14 0)
(-4.89619e-14 1.33844e-14 0)
(-5.08411e-14 1.5131e-14 0)
(-5.37373e-14 1.65348e-14 0)
(-5.77462e-14 1.77647e-14 0)
(-6.24075e-14 1.92035e-14 0)
(-6.70256e-14 2.11166e-14 0)
(-7.02943e-14 2.28518e-14 0)
(-7.31531e-14 2.43965e-14 0)
(-7.63664e-14 2.59302e-14 0)
(-7.78481e-14 2.62111e-14 0)
(-7.80905e-14 2.52739e-14 0)
(-7.71338e-14 2.38158e-14 0)
(-7.48865e-14 2.29697e-14 0)
(-7.27832e-14 2.38009e-14 0)
(-6.95164e-14 2.48525e-14 0)
(-6.5127e-14 2.58515e-14 0)
(-6.09138e-14 2.70247e-14 0)
(-5.67239e-14 2.78908e-14 0)
(-5.33795e-14 2.71376e-14 0)
(-5.17846e-14 2.55289e-14 0)
(-5.04504e-14 2.36529e-14 0)
(-4.83838e-14 2.16872e-14 0)
(-4.59674e-14 1.99495e-14 0)
(-4.27959e-14 1.89294e-14 0)
(-3.86068e-14 1.7898e-14 0)
(-3.53542e-14 1.70508e-14 0)
(-3.31301e-14 1.64513e-14 0)
(-2.95955e-14 1.73057e-14 0)
(-2.53729e-14 1.75062e-14 0)
(-2.14012e-14 1.71461e-14 0)
(-1.74468e-14 1.63311e-14 0)
(-1.37162e-14 1.57433e-14 0)
(-9.65164e-15 1.61027e-14 0)
(-5.43999e-15 1.64046e-14 0)
(-1.75444e-15 1.62245e-14 0)
(8.98287e-16 1.65184e-14 0)
(2.19331e-15 1.71654e-14 0)
(4.21812e-15 1.73576e-14 0)
(6.88579e-15 1.72625e-14 0)
(9.14263e-15 1.69199e-14 0)
(1.04994e-14 1.651e-14 0)
(9.90671e-15 1.60081e-14 0)
(8.97716e-15 1.56507e-14 0)
(8.75441e-15 1.44443e-14 0)
(9.33934e-15 1.39236e-14 0)
(1.04796e-14 1.34723e-14 0)
(1.12872e-14 1.25874e-14 0)
(1.29298e-14 1.20942e-14 0)
(1.54309e-14 1.04477e-14 0)
(1.80536e-14 9.04204e-15 0)
(2.03035e-14 7.86345e-15 0)
(2.15402e-14 6.07735e-15 0)
(2.21827e-14 5.01465e-15 0)
(2.19776e-14 3.31075e-15 0)
(2.158e-14 1.65132e-15 0)
(2.20577e-14 6.18276e-16 0)
(2.37901e-14 -8.04273e-17 0)
(2.55689e-14 -1.12146e-16 0)
(2.71757e-14 7.24495e-16 0)
(2.96486e-14 1.37735e-15 0)
(3.21382e-14 2.03106e-15 0)
(3.4129e-14 2.36222e-15 0)
(3.6023e-14 2.22592e-15 0)
(3.78429e-14 1.35912e-15 0)
(3.96893e-14 -4.42545e-16 0)
(4.26919e-14 -1.85806e-15 0)
(4.66998e-14 -2.85227e-15 0)
(4.88361e-14 -3.33811e-15 0)
(4.81157e-14 -3.46842e-15 0)
(4.74708e-14 -3.51812e-15 0)
(4.71216e-14 -3.26595e-15 0)
(4.59739e-14 -3.24142e-15 0)
(4.56761e-14 -3.01647e-15 0)
(4.74512e-14 -2.69308e-15 0)
(5.02491e-14 -3.20233e-15 0)
(5.23034e-14 -4.42959e-15 0)
(5.36047e-14 -4.88704e-15 0)
(5.3462e-14 -4.94427e-15 0)
(5.15595e-14 -4.66097e-15 0)
(4.88027e-14 -4.27131e-15 0)
(4.55265e-14 -4.12504e-15 0)
(4.24375e-14 -4.13316e-15 0)
(3.93602e-14 -3.73031e-15 0)
(3.53764e-14 -2.88369e-15 0)
(3.05034e-14 -1.89281e-15 0)
(2.57152e-14 -4.79829e-16 0)
(2.12256e-14 -9.09068e-17 0)
(1.61825e-14 -3.02106e-16 0)
(1.03235e-14 -3.75304e-16 0)
(4.24826e-15 -2.90464e-17 0)
(-2.75485e-15 8.14417e-16 0)
(-8.02502e-15 2.52036e-15 0)
(-1.32691e-14 4.15518e-15 0)
(-1.89001e-14 5.54654e-15 0)
(-2.50187e-14 6.26144e-15 0)
(-3.10267e-14 6.97827e-15 0)
(-3.70117e-14 8.14919e-15 0)
(-4.21345e-14 9.30459e-15 0)
(-4.57458e-14 1.09946e-14 0)
(-4.91914e-14 1.25793e-14 0)
(-5.1732e-14 1.46295e-14 0)
(-5.37772e-14 1.66088e-14 0)
(-5.71042e-14 1.81103e-14 0)
(-6.12964e-14 1.95964e-14 0)
(-6.56093e-14 2.11824e-14 0)
(-7.0164e-14 2.32302e-14 0)
(-7.39757e-14 2.54769e-14 0)
(-7.71581e-14 2.68405e-14 0)
(-8.0645e-14 2.79013e-14 0)
(-8.30355e-14 2.84026e-14 0)