/*--------------------------------*- C++ -*----------------------------------*\
| =========                 |                                                 |
| \\      /  F ield         | OpenFOAM: The Open Source CFD Toolbox           |
|  \\    /   O peration     | Version:  v2012                                 |
|   \\  /    A nd           | Website:  www.openfoam.com                      |
|    \\/     M anipulation  |                                                 |
\*---------------------------------------------------------------------------*/
FoamFile
{
    version     2.0;
    format      ascii;
    class       volVectorField;
    location    "0";
    object      U;
}
// * * * * * * * * * * * * * * * * * * * * * * * * * * * * * * * * * * * * * //

dimensions      [0 1 -1 0 0 0 0];


internalField   nonuniform List<vector> 
4000
(
(1 -3.85283e-16 0)
(1 1.66314e-15 0)
(1 5.09682e-15 0)
(1 3.56494e-15 0)
(1 4.78997e-17 0)
(1 -1.23082e-17 0)
(1 -1.2006e-15 0)
(1 -2.38861e-15 0)
(1 -6.53078e-15 0)
(1 -2.69467e-15 0)
(1 7.69711e-15 0)
(1 1.29716e-15 0)
(1 -3.79266e-17 0)
(1 -3.78709e-16 0)
(1 5.3232e-15 0)
(1 -1.65516e-15 0)
(1 -2.2054e-15 0)
(1 -4.95401e-15 0)
(1 -7.2472e-16 0)
(1 -5.53832e-15 0)
(1 -6.81606e-15 0)
(1 -6.01844e-15 0)
(1 3.65565e-15 0)
(1 1.2569e-15 0)
(1 9.5439e-15 0)
(1 3.70178e-15 0)
(1 3.28353e-15 0)
(1 5.129e-18 0)
(1 -9.19814e-16 0)
(1 -3.05937e-15 0)
(1 -3.40848e-16 0)
(1 -3.66673e-15 0)
(1 -2.78862e-15 0)
(1 2.80581e-15 0)
(1 1.32738e-15 0)
(1 3.08861e-15 0)
(1 7.18196e-15 0)
(1 2.28276e-15 0)
(1 4.23541e-17 0)
(1 2.19284e-15 0)
(1 3.79285e-15 0)
(1 -2.42307e-16 0)
(1 6.18093e-16 0)
(1 -6.32476e-15 0)
(1 -6.09987e-15 0)
(1 1.9207e-15 0)
(1 -2.35951e-15 0)
(1 2.35941e-15 0)
(1 5.3849e-16 0)
(1 2.00616e-15 0)
(1 1.07565e-15 0)
(1 2.91075e-15 0)
(1 2.78416e-15 0)
(1 1.1941e-16 0)
(1 -4.19594e-15 0)
(1 -1.86877e-15 0)
(1 -3.18803e-15 0)
(1 2.45772e-15 0)
(1 9.73745e-16 0)
(1 1.27743e-15 0)
(1 2.89388e-15 0)
(1 1.95612e-15 0)
(1 4.59639e-15 0)
(1 2.62554e-15 0)
(1 -1.17435e-15 0)
(1 -4.9636e-15 0)
(1 -4.53727e-16 0)
(1 -6.14192e-16 0)
(1 -9.12813e-16 0)
(1 4.28765e-16 0)
(1 -1.37541e-15 0)
(1 1.03868e-15 0)
(1 -5.04799e-16 0)
(1 -7.48683e-15 0)
(1 -5.11542e-15 0)
(1 6.51453e-16 0)
(1 1.11109e-15 0)
(1 9.79158e-16 0)
(1 1.94113e-15 0)
(1 3.8645e-15 0)
(1 1.50019e-15 0)
(1 -2.34064e-16 0)
(1 1.60885e-15 0)
(1 -1.22858e-15 0)
(1 -3.3735e-15 0)
(1 -4.90912e-15 0)
(1 -3.72698e-15 0)
(1 2.04564e-15 0)
(1 3.02184e-15 0)
(1 2.88355e-15 0)
(1 7.58302e-16 0)
(1 9.01068e-17 0)
(1 -4.09087e-15 0)
(1 -3.12912e-16 0)
(1 -4.45931e-16 0)
(1 -4.8336e-15 0)
(1 -4.18141e-15 0)
(1 1.95015e-15 0)
(1 4.09403e-15 0)
(1 9.08878e-16 0)
(1 1.48168e-15 0)
(1 6.70892e-16 0)
(1 8.43337e-15 0)
(1 1.36401e-15 0)
(1 4.03608e-16 0)
(1 -7.17007e-15 0)
(1 -1.05407e-15 0)
(1 -5.30742e-15 0)
(1 -5.31604e-15 0)
(1 -7.42833e-16 0)
(1 8.10326e-15 0)
(1 1.5494e-15 0)
(1 6.32634e-15 0)
(1 6.18234e-15 0)
(1 9.11652e-16 0)
(1 -7.45225e-15 0)
(1 -6.19309e-15 0)
(1 -4.77571e-15 0)
(1 1.21241e-16 0)
(1 -7.67385e-15 0)
(1 -4.89194e-15 0)
(1 -5.665e-15 0)
(1 2.63305e-16 0)
(1 1.44487e-15 0)
(1 8.40247e-15 0)
(1 1.2478e-15 0)
(1 3.71004e-17 0)
(1 -1.80468e-15 0)
(1 -8.90733e-16 0)
(1 3.00055e-16 0)
(1 7.56536e-15 0)
(1 -4.86073e-15 0)
(1 1.94113e-15 0)
(1 -1.19166e-15 0)
(1 1.30798e-15 0)
(1 -6.01395e-16 0)
(1 1.73963e-15 0)
(1 -1.11548e-15 0)
(1 2.09115e-15 0)
(1 3.92353e-15 0)
(1 1.8132e-15 0)
(1 1.41572e-15 0)
(1 -1.70779e-16 0)
(1 -1.03305e-14 0)
(1 -5.40318e-15 0)
(1 -2.98933e-15 0)
(1 1.01026e-15 0)
(1 2.13722e-15 0)
(1 6.85463e-15 0)
(1 -4.53686e-15 0)
(1 -1.14683e-15 0)
(1 -5.30268e-15 0)
(1 1.11127e-15 0)
(1 8.17847e-15 0)
(1 5.48993e-15 0)
(1 4.70879e-15 0)
(1 2.11297e-15 0)
(1 -7.92592e-16 0)
(1 1.38296e-17 0)
(1 2.75227e-15 0)
(1 -1.44949e-15 0)
(1 -2.13321e-15 0)
(1 1.41626e-15 0)
(1 2.4952e-15 0)
(1 -2.22805e-15 0)
(1 -6.50865e-15 0)
(1 -1.72973e-15 0)
(1 -2.83914e-15 0)
(1 -1.81938e-15 0)
(1 1.37819e-16 0)
(1 2.83249e-16 0)
(1 1.5795e-15 0)
(1 2.40786e-15 0)
(1 -1.38812e-15 0)
(1 -4.21115e-15 0)
(1 3.1798e-15 0)
(1 3.78658e-15 0)
(1 2.63408e-15 0)
(1 5.42938e-15 0)
(1 6.38623e-15 0)
(1 3.39841e-15 0)
(1 -6.98994e-15 0)
(1 1.54291e-15 0)
(1 1.6952e-15 0)
(1 -6.8651e-16 0)
(1 -2.6961e-15 0)
(1 -5.83553e-16 0)
(1 -1.5467e-15 0)
(1 -2.39921e-15 0)
(1 -3.17338e-15 0)
(1 8.3315e-16 0)
(1 -5.89551e-16 0)
(1 -8.82333e-15 0)
(1 -8.62441e-16 0)
(1 -3.19487e-15 0)
(1 -3.79722e-15 0)
(1 -5.02266e-15 0)
(1 3.88183e-15 0)
(1 5.59855e-15 0)
(1 2.07309e-15 0)
(1 2.11826e-15 0)
(1 -2.36814e-15 0)
(1 -2.11094e-15 0)
(1 2.20411e-15 0)
(1 6.89343e-15 0)
(1 -1.14151e-15 0)
(1 2.57397e-15 0)
(1 -1.08625e-15 0)
(1 -2.05563e-15 0)
(1 1.65748e-15 0)
(1 2.50015e-15 0)
(1 -1.14984e-15 0)
(1 3.42455e-15 0)
(1 1.1237e-14 0)
(1 3.58485e-15 0)
(1 -5.02422e-15 0)
(1 -7.66372e-15 0)
(1 -2.95324e-16 0)
(1 -7.06093e-15 0)
(1 -2.36288e-15 0)
(1 1.11943e-16 0)
(1 2.6981e-15 0)
(1 -7.45574e-15 0)
(1 2.03658e-15 0)
(1 8.4659e-15 0)
(1 4.7434e-15 0)
(1 1.03636e-14 0)
(1 4.41834e-15 0)
(1 2.90076e-15 0)
(1 1.28771e-15 0)
(1 4.09155e-15 0)
(1 -2.81123e-16 0)
(1 6.90666e-16 0)
(1 -8.80364e-15 0)
(1 7.77042e-16 0)
(1 -3.29684e-15 0)
(1 7.66391e-16 0)
(1 1.04179e-15 0)
(1 2.5e-15 0)
(1 4.19782e-16 0)
(1 -2.04051e-15 0)
(1 -4.24619e-15 0)
(1 -5.9467e-15 0)
(1 -6.72915e-15 0)
(1 -4.43853e-15 0)
(1 -4.21308e-15 0)
(1 1.17113e-15 0)
(1 -3.57013e-15 0)
(1 4.70901e-15 0)
(1 1.15423e-15 0)
(1 3.9112e-15 0)
(1 -1.2048e-15 0)
(1 4.17884e-15 0)
(1 7.57541e-15 0)
(1 1.0292e-14 0)
(1 5.66339e-15 0)
(1 3.70951e-16 0)
(1 -6.73856e-15 0)
(1 -2.4792e-15 0)
(1 -2.63028e-15 0)
(1 3.60539e-15 0)
(1 1.32239e-15 0)
(1 2.54645e-16 0)
(1 2.39996e-16 0)
(1 -4.50943e-15 0)
(1 -1.16808e-15 0)
(1 -3.36895e-15 0)
(1 -1.92919e-15 0)
(1 -2.29363e-15 0)
(1 1.3515e-15 0)
(1 2.42681e-15 0)
(1 6.21753e-16 0)
(1 1.50714e-15 0)
(1 3.96143e-15 0)
(1 -1.6144e-15 0)
(1 6.18644e-16 0)
(1 2.51855e-15 0)
(1 -3.04655e-15 0)
(1 -1.5283e-15 0)
(1 2.95684e-15 0)
(1 2.67504e-17 0)
(1 -6.85213e-15 0)
(1 -5.03954e-15 0)
(1 1.86659e-15 0)
(1 8.71855e-16 0)
(1 -2.42829e-16 0)
(1 4.29773e-15 0)
(1 -3.16895e-15 0)
(1 -4.14929e-15 0)
(1 -2.21681e-15 0)
(1 -2.03882e-15 0)
(1 -1.00102e-15 0)
(1 -4.45831e-15 0)
(1 -4.41441e-15 0)
(1 -2.4918e-15 0)
(1 -1.6825e-15 0)
(1 -3.31035e-15 0)
(1 -1.05855e-15 0)
(1 1.55739e-15 0)
(1 1.40327e-15 0)
(1 4.11737e-15 0)
(1 -5.87655e-15 0)
(1 -2.63372e-15 0)
(1 -7.71504e-16 0)
(1 7.69391e-15 0)
(1 9.23424e-15 0)
(1 2.49726e-15 0)
(1 -7.83634e-15 0)
(1 -5.06389e-15 0)
(1 -2.81436e-15 0)
(1 6.91903e-15 0)
(1 3.79398e-15 0)
(1 8.573e-15 0)
(1 4.18344e-15 0)
(1 4.9592e-15 0)
(1 7.01824e-16 0)
(1 -2.31627e-15 0)
(1 -4.48733e-15 0)
(1 -1.47341e-14 0)
(1 -3.92987e-15 0)
(1 -6.61072e-16 0)
(1 -1.63792e-15 0)
(1 1.32427e-15 0)
(1 7.62667e-15 0)
(1 2.50356e-15 0)
(1 5.72086e-15 0)
(1 1.23602e-14 0)
(1 2.09226e-14 0)
(1 9.25958e-15 0)
(1 -4.18707e-16 0)
(1 -2.77152e-15 0)
(1 3.20508e-15 0)
(1 -5.16237e-15 0)
(1 -5.88664e-15 0)
(1 -1.27888e-15 0)
(1 -2.27541e-15 0)
(1 4.54685e-15 0)
(1 4.64266e-15 0)
(1 1.39943e-15 0)
(1 1.32456e-15 0)
(1 -1.56658e-15 0)
(1 -5.68851e-15 0)
(1 -5.68083e-15 0)
(1 -8.6536e-19 0)
(1 -8.33451e-15 0)
(1 -1.15091e-15 0)
(1 3.61409e-15 0)
(1 3.24851e-15 0)
(1 9.79996e-16 0)
(1 8.48853e-15 0)
(1 -6.6366e-16 0)
(1 3.47647e-15 0)
(1 5.79752e-17 0)
(1 -9.91964e-16 0)
(1 1.95689e-15 0)
(1 4.84275e-15 0)
(1 -2.99877e-15 0)
(1 -7.65307e-15 0)
(1 -1.88626e-15 0)
(1 1.58404e-15 0)
(1 3.62014e-15 0)
(1 2.99249e-15 0)
(1 1.16773e-15 0)
(1 1.30934e-15 0)
(1 -4.89045e-15 0)
(1 -2.94236e-15 0)
(1 -4.471e-15 0)
(1 -5.30189e-15 0)
(1 -2.46878e-15 0)
(1 2.31797e-15 0)
(1 4.14878e-16 0)
(1 2.85827e-15 0)
(1 -1.26695e-15 0)
(1 1.7016e-16 0)
(1 2.29781e-15 0)
(1 6.33052e-16 0)
(1 -3.02613e-15 0)
(1 -1.61379e-15 0)
(1 1.68217e-15 0)
(1 -2.82733e-15 0)
(1 5.55969e-15 0)
(1 -2.17838e-15 0)
(1 -2.05825e-15 0)
(1 -5.09426e-16 0)
(1 1.84813e-16 0)
(1 -7.62642e-17 0)
(1 3.99632e-15 0)
(1 2.08699e-15 0)
(1 7.28848e-16 0)
(1 1.21308e-16 0)
(1 -1.23269e-15 0)
(1 -2.39337e-15 0)
(1 -1.92748e-15 0)
(1 -3.57881e-15 0)
(1 -1.62969e-15 0)
(1 -5.08235e-15 0)
(1 -5.26276e-15 0)
(1 -9.49253e-16 0)
(1 -2.44933e-15 0)
(1 -1.74976e-15 0)
(1 5.47082e-15 0)
(1 -4.32641e-15 0)
(1 -4.66996e-15 0)
(1 -1.74535e-15 0)
(1 7.98383e-16 0)
(1 1.9777e-15 0)
(1 -6.94378e-16 0)
(1 -6.93248e-15 0)
(1 -3.54781e-15 0)
(1 1.65066e-15 0)
(1 6.89843e-15 0)
(1 4.5464e-15 0)
(1 9.11581e-15 0)
(1 -1.23247e-15 0)
(1 2.68759e-15 0)
(1 1.59656e-15 0)
(1 -1.52778e-15 0)
(1 -5.5959e-15 0)
(1 -3.97286e-15 0)
(1 -1.04533e-14 0)
(1 -2.06325e-15 0)
(1 -5.26315e-15 0)
(1 7.01521e-15 0)
(1 1.37456e-14 0)
(1 8.56803e-15 0)
(1 1.0294e-14 0)
(1 8.50322e-15 0)
(1 9.75877e-15 0)
(1 8.67066e-15 0)
(1 6.67926e-16 0)
(1 -5.67395e-15 0)
(1 3.51531e-15 0)
(1 -7.80997e-16 0)
(1 -4.11521e-15 0)
(1 -7.03807e-15 0)
(1 -3.98425e-15 0)
(1 -1.16863e-15 0)
(1 2.47633e-16 0)
(1 -8.91214e-16 0)
(1 -5.26347e-16 0)
(1 -9.72435e-15 0)
(1 -3.3469e-15 0)
(1 -3.72478e-15 0)
(1 1.77376e-15 0)
(1 2.72359e-16 0)
(1 1.76897e-15 0)
(1 5.59779e-15 0)
(1 2.38486e-15 0)
(1 3.88191e-15 0)
(1 1.9379e-15 0)
(1 -4.64853e-15 0)
(1 2.24539e-15 0)
(1 8.46573e-16 0)
(1 4.65813e-15 0)
(1 4.84587e-15 0)
(1 9.12352e-15 0)
(1 3.19533e-15 0)
(1 -1.84054e-15 0)
(1 -1.48276e-15 0)
(1 1.25321e-16 0)
(1 -7.22399e-15 0)
(1 -5.46236e-15 0)
(1 6.09841e-16 0)
(1 -1.85914e-15 0)
(1 -3.94347e-16 0)
(1 1.16984e-15 0)
(1 -1.0373e-15 0)
(1 -4.1376e-15 0)
(1 -7.65876e-16 0)
(1 -2.1031e-15 0)
(1 4.08478e-15 0)
(1 2.40167e-15 0)
(1 4.16736e-16 0)
(1 2.86512e-15 0)
(1 6.03782e-15 0)
(1 3.78901e-15 0)
(1 -2.09473e-15 0)
(1 4.22435e-15 0)
(1 6.54116e-15 0)
(1 -8.2232e-17 0)
(1 4.05071e-15 0)
(1 -4.76063e-15 0)
(1 4.04711e-15 0)
(1 4.88023e-16 0)
(1 1.38475e-15 0)
(1 -2.88185e-15 0)
(1 -2.16052e-15 0)
(1 -2.52424e-15 0)
(1 -1.55827e-15 0)
(1 -3.11501e-15 0)
(1 -5.20693e-16 0)
(1 -5.09565e-15 0)
(1 -2.46753e-15 0)
(1 -1.58062e-16 0)
(1 -2.04542e-15 0)
(1 -2.0823e-15 0)
(1 -2.08611e-15 0)
(1 2.53351e-15 0)
(1 -4.02796e-15 0)
(1 -3.02959e-15 0)
(1 -1.75906e-15 0)
(1 -3.08123e-15 0)
(1 -4.49304e-15 0)
(1 -5.17059e-15 0)
(1 5.49727e-15 0)
(1 -4.15559e-16 0)
(1 -9.58997e-16 0)
(1 3.26414e-15 0)
(1 -1.32769e-15 0)
(1 4.52628e-15 0)
(1 1.48793e-15 0)
(1 5.3736e-15 0)
(1 1.46291e-15 0)
(1 3.29568e-16 0)
(1 6.0531e-15 0)
(1 3.5536e-15 0)
(1 3.31076e-16 0)
(1 -7.2689e-15 0)
(1 -4.28348e-15 0)
(1 -1.22285e-15 0)
(1 2.93015e-15 0)
(1 1.25432e-14 0)
(1 6.03217e-15 0)
(1 2.56049e-15 0)
(1 7.70185e-15 0)
(1 3.65435e-15 0)
(1 7.32885e-15 0)
(1 -2.45024e-15 0)
(1 6.89667e-15 0)
(1 -1.20213e-15 0)
(1 -6.19861e-15 0)
(1 -1.69648e-15 0)
(1 -5.11465e-15 0)
(1 5.18814e-15 0)
(1 -2.4468e-15 0)
(1 5.09438e-15 0)
(1 4.04117e-15 0)
(1 4.09294e-15 0)
(1 2.27095e-15 0)
(1 6.59961e-16 0)
(1 -5.91167e-15 0)
(1 -2.53679e-15 0)
(1 1.07016e-15 0)
(1 -2.73371e-15 0)
(1 8.91283e-16 0)
(1 -3.79044e-15 0)
(1 -3.05314e-15 0)
(1 -3.64566e-15 0)
(1 5.33266e-15 0)
(1 8.77421e-15 0)
(1 8.37305e-15 0)
(1 1.07406e-15 0)
(1 -3.36126e-16 0)
(1 2.82882e-15 0)
(1 4.18055e-15 0)
(1 4.98487e-15 0)
(1 7.56142e-16 0)
(1 5.3559e-15 0)
(1 2.89514e-15 0)
(1 -1.50924e-15 0)
(1 5.1814e-15 0)
(1 -6.35428e-16 0)
(1 -3.4206e-15 0)
(1 -7.21094e-15 0)
(1 1.61749e-15 0)
(1 5.31769e-15 0)
(1 6.94853e-15 0)
(1 1.23829e-14 0)
(1 1.12966e-14 0)
(1 8.88486e-15 0)
(1 1.87418e-15 0)
(1 2.3664e-16 0)
(1 3.657e-15 0)
(1 8.34237e-17 0)
(1 -1.41135e-15 0)
(1 -6.31239e-15 0)
(1 -6.91719e-15 0)
(1 -2.73793e-15 0)
(1 5.06341e-15 0)
(1 1.42166e-14 0)
(1 1.39262e-15 0)
(1 3.20392e-15 0)
(1 -5.77892e-16 0)
(1 -1.08094e-15 0)
(1 -1.037e-15 0)
(1 -7.38126e-15 0)
(1 -4.69765e-15 0)
(1 -1.83128e-15 0)
(1 -3.64531e-15 0)
(1 -3.01779e-15 0)
(1 -3.4445e-15 0)
(1 -2.9696e-15 0)
(1 -2.13142e-16 0)
(1 -8.24767e-16 0)
(1 5.61093e-16 0)
(1 3.56016e-15 0)
(1 6.01803e-15 0)
(1 7.47611e-15 0)
(1 4.7019e-15 0)
(1 9.85236e-16 0)
(1 -9.86751e-16 0)
(1 -5.7013e-15 0)
(1 7.64695e-15 0)
(1 4.69779e-16 0)
(1 -9.07003e-16 0)
(1 -4.00559e-15 0)
(1 -9.34761e-15 0)
(1 -1.74778e-15 0)
(1 -2.77031e-16 0)
(1 2.03344e-15 0)
(1 -3.01791e-15 0)
(1 3.60773e-15 0)
(1 3.52892e-15 0)
(1 4.8529e-15 0)
(1 1.15609e-14 0)
(1 1.60431e-15 0)
(1 1.32676e-14 0)
(1 -1.86102e-15 0)
(1 4.13729e-15 0)
(1 7.9853e-15 0)
(1 3.75688e-15 0)
(1 1.48681e-15 0)
(1 -6.45607e-15 0)
(1 -5.33118e-15 0)
(1 -1.58868e-15 0)
(1 2.03063e-16 0)
(1 3.49403e-15 0)
(1 7.24768e-15 0)
(1 3.81415e-15 0)
(1 5.57941e-15 0)
(1 6.86965e-15 0)
(1 -3.99911e-15 0)
(1 -6.21099e-15 0)
(1 1.29636e-15 0)
(1 3.89682e-15 0)
(1 1.59808e-16 0)
(1 3.05558e-15 0)
(1 6.2968e-15 0)
(1 9.17479e-15 0)
(1 -6.14885e-15 0)
(1 -2.20527e-15 0)
(1 -3.27943e-15 0)
(1 2.58822e-15 0)
(1 5.87088e-15 0)
(1 2.92495e-16 0)
(1 -7.60266e-15 0)
(1 -5.29081e-15 0)
(1 5.37657e-15 0)
(1 5.61879e-15 0)
(1 8.57855e-15 0)
(1 9.56474e-15 0)
(1 1.81705e-15 0)
(1 -8.44639e-16 0)
(1 -2.19876e-15 0)
(1 -1.67326e-15 0)
(1 5.0497e-15 0)
(1 1.54179e-15 0)
(1 -1.0683e-15 0)
(1 -5.55457e-15 0)
(1 4.84222e-16 0)
(1 4.29778e-15 0)
(1 1.46204e-15 0)
(1 -3.38392e-15 0)
(1 -1.2678e-15 0)
(1 1.14489e-15 0)
(1 -1.45289e-16 0)
(1 1.85669e-15 0)
(1 1.23857e-15 0)
(1 4.01106e-15 0)
(1 5.35572e-15 0)
(1 -3.36389e-15 0)
(1 -1.00035e-15 0)
(1 2.02014e-15 0)
(1 2.5543e-15 0)
(1 6.44328e-15 0)
(1 4.1925e-15 0)
(1 5.31624e-15 0)
(1 1.42025e-15 0)
(1 4.97065e-15 0)
(1 9.94021e-15 0)
(1 4.47594e-15 0)
(1 3.22425e-15 0)
(1 -1.44225e-15 0)
(1 -6.33721e-16 0)
(1 1.16465e-15 0)
(1 9.77712e-16 0)
(1 1.94544e-15 0)
(1 1.51237e-15 0)
(1 -2.40162e-15 0)
(1 -1.86792e-15 0)
(1 -1.45203e-15 0)
(1 3.02293e-15 0)
(1 2.28397e-15 0)
(1 7.66108e-16 0)
(1 1.67346e-15 0)
(1 4.27457e-15 0)
(1 7.43918e-15 0)
(1 4.77945e-15 0)
(1 5.34998e-15 0)
(1 5.99445e-15 0)
(1 7.28758e-17 0)
(1 -2.29718e-16 0)
(1 -6.58873e-16 0)
(1 7.12667e-15 0)
(1 -8.9875e-15 0)
(1 -1.81546e-15 0)
(1 -5.79949e-15 0)
(1 -5.82085e-15 0)
(1 1.33511e-15 0)
(1 -2.11728e-15 0)
(1 -4.06111e-15 0)
(1 -2.79231e-15 0)
(1 6.91966e-16 0)
(1 1.13911e-14 0)
(1 7.61427e-15 0)
(1 3.47235e-15 0)
(1 6.96899e-15 0)
(1 5.66631e-15 0)
(1 1.22817e-14 0)
(1 1.05501e-14 0)
(1 -4.3619e-15 0)
(1 -7.27586e-15 0)
(1 -2.42827e-15 0)
(1 -2.78115e-15 0)
(1 -4.68775e-15 0)
(1 1.38471e-16 0)
(1 -2.84217e-15 0)
(1 3.94625e-15 0)
(1 -7.56404e-15 0)
(1 2.17386e-15 0)
(1 4.23405e-15 0)
(1 6.06456e-16 0)
(1 -5.22245e-16 0)
(1 -2.91068e-15 0)
(1 7.279e-15 0)
(1 3.49045e-15 0)
(1 8.16637e-16 0)
(1 6.22127e-16 0)
(1 -1.88335e-15 0)
(1 -4.8899e-15 0)
(1 1.20196e-15 0)
(1 -1.18798e-15 0)
(1 1.00598e-15 0)
(1 9.86861e-15 0)
(1 1.00098e-14 0)
(1 5.11648e-15 0)
(1 1.09593e-16 0)
(1 1.69002e-15 0)
(1 -3.4349e-15 0)
(1 -2.95125e-15 0)
(1 1.60482e-15 0)
(1 1.32768e-14 0)
(1 1.32457e-14 0)
(1 1.41527e-15 0)
(1 7.07651e-16 0)
(1 3.18008e-15 0)
(1 9.73479e-15 0)
(1 -1.05847e-15 0)
(1 -7.40817e-15 0)
(1 1.77302e-15 0)
(1 -3.27755e-17 0)
(1 5.46682e-16 0)
(1 3.25779e-15 0)
(1 3.1759e-15 0)
(1 6.24994e-15 0)
(1 6.97651e-16 0)
(1 4.54424e-15 0)
(1 1.23328e-15 0)
(1 8.08671e-16 0)
(1 -6.06841e-16 0)
(1 6.21033e-15 0)
(1 7.0388e-15 0)
(1 5.83244e-15 0)
(1 7.23994e-15 0)
(1 1.08546e-14 0)
(1 9.58521e-15 0)
(1 6.47102e-15 0)
(1 5.49396e-15 0)
(1 -7.10789e-17 0)
(1 3.83463e-16 0)
(1 -3.46721e-15 0)
(1 -1.56562e-15 0)
(1 -3.56312e-15 0)
(1 -9.61609e-16 0)
(1 -1.53267e-15 0)
(1 7.07111e-16 0)
(1 -1.97305e-15 0)
(1 -1.03314e-16 0)
(1 -1.99182e-15 0)
(1 -1.23431e-16 0)
(1 -3.03325e-15 0)
(1 -2.72818e-15 0)
(1 -1.45033e-15 0)
(1 -2.20973e-16 0)
(1 1.36983e-15 0)
(1 6.28847e-15 0)
(1 7.6475e-15 0)
(1 5.70705e-15 0)
(1 6.57209e-15 0)
(1 1.12477e-14 0)
(1 -2.79986e-15 0)
(1 7.51295e-15 0)
(1 -8.48625e-15 0)
(1 -6.39516e-15 0)
(1 -6.99179e-15 0)
(1 -4.40669e-15 0)
(1 1.64184e-15 0)
(1 -6.7058e-15 0)
(1 -5.7062e-15 0)
(1 -4.54009e-15 0)
(1 1.13567e-15 0)
(1 8.28108e-15 0)
(1 1.14968e-14 0)
(1 1.25034e-14 0)
(1 4.80331e-15 0)
(1 1.25777e-14 0)
(1 8.34912e-15 0)
(1 1.82427e-14 0)
(1 -1.70725e-15 0)
(1 -3.28972e-15 0)
(1 -7.59913e-15 0)
(1 3.97979e-15 0)
(1 8.96164e-16 0)
(1 -9.95044e-15 0)
(1 -7.78931e-15 0)
(1 -3.16709e-15 0)
(1 -4.80002e-15 0)
(1 -3.36418e-15 0)
(1 -1.06691e-14 0)
(1 -6.77434e-15 0)
(1 -2.84942e-15 0)
(1 2.77249e-15 0)
(1 4.62911e-15 0)
(1 6.82364e-15 0)
(1 3.3669e-15 0)
(1 9.83767e-15 0)
(1 1.19236e-15 0)
(1 -1.81886e-16 0)
(1 3.57956e-16 0)
(1 2.3147e-15 0)
(1 4.47186e-15 0)
(1 5.99319e-15 0)
(1 5.89678e-15 0)
(1 7.18255e-15 0)
(1 1.27504e-14 0)
(1 1.41439e-14 0)
(1 6.47582e-16 0)
(1 -3.63124e-15 0)
(1 -3.7006e-15 0)
(1 -8.31957e-15 0)
(1 -2.62239e-15 0)
(1 4.98978e-15 0)
(1 8.0813e-15 0)
(1 6.84338e-16 0)
(1 3.51553e-15 0)
(1 2.08506e-15 0)
(1 1.00327e-14 0)
(1 8.78268e-15 0)
(1 2.44911e-15 0)
(1 4.90323e-15 0)
(1 2.44488e-15 0)
(1 3.81094e-15 0)
(1 -8.44447e-15 0)
(1 -8.5849e-15 0)
(1 -1.42766e-15 0)
(1 2.72664e-15 0)
(1 1.4049e-14 0)
(1 1.51938e-14 0)
(1 1.3165e-14 0)
(1 1.27075e-14 0)
(1 6.85066e-15 0)
(1 9.98608e-15 0)
(1 5.13937e-15 0)
(1 2.11672e-15 0)
(1 -3.46917e-15 0)
(1 2.68935e-16 0)
(1 -1.04498e-15 0)
(1 7.38141e-15 0)
(1 2.4292e-15 0)
(1 8.69892e-16 0)
(1 4.09782e-15 0)
(1 1.41846e-14 0)
(1 -6.46202e-16 0)
(1 -4.98998e-16 0)
(1 -6.20713e-15 0)
(1 -2.25311e-16 0)
(1 -2.16226e-15 0)
(1 -1.70914e-15 0)
(1 -3.56217e-15 0)
(1 -2.50872e-15 0)
(1 -1.12571e-15 0)
(1 -1.22815e-15 0)
(1 2.42116e-15 0)
(1 3.4922e-15 0)
(1 1.04174e-14 0)
(1 1.04752e-14 0)
(1 1.76062e-14 0)
(1 1.40797e-14 0)
(1 1.83351e-14 0)
(1 1.91779e-14 0)
(1 1.3516e-15 0)
(1 1.76188e-15 0)
(1 3.38537e-16 0)
(1 -8.56919e-16 0)
(1 -5.47083e-15 0)
(1 -4.14114e-15 0)
(1 2.48678e-15 0)
(1 5.25784e-15 0)
(1 -1.5837e-15 0)
(1 3.02479e-15 0)
(1 1.48534e-16 0)
(1 3.04188e-15 0)
(1 1.13e-14 0)
(1 6.62485e-16 0)
(1 -9.87034e-15 0)
(1 1.02741e-15 0)
(1 4.34226e-15 0)
(1 9.85097e-15 0)
(1 -1.49121e-15 0)
(1 -6.43313e-15 0)
(1 7.55534e-16 0)
(1 -1.40196e-16 0)
(1 -1.03496e-15 0)
(1 -1.87808e-15 0)
(1 1.53605e-15 0)
(1 -1.43635e-15 0)
(1 2.79443e-15 0)
(1 -5.21839e-15 0)
(1 -2.06384e-15 0)
(1 2.71834e-16 0)
(1 -5.65269e-15 0)
(1 -6.69274e-15 0)
(1 9.88687e-16 0)
(1 5.58961e-15 0)
(1 -2.31696e-15 0)
(1 3.4485e-15 0)
(1 -1.68232e-15 0)
(1 3.21177e-15 0)
(1 -4.34614e-15 0)
(1 -1.11608e-15 0)
(1 6.45034e-16 0)
(1 4.97863e-15 0)
(1 8.19892e-15 0)
(1 7.11402e-15 0)
(1 3.89303e-15 0)
(1 7.31535e-15 0)
(1 5.14348e-16 0)
(1 1.62716e-15 0)
(1 4.71626e-15 0)
(1 1.33078e-16 0)
(1 9.12583e-15 0)
(1 4.3693e-15 0)
(1 3.45185e-15 0)
(1 1.58846e-15 0)
(1 5.59405e-15 0)
(1 1.15754e-15 0)
(1 7.05208e-15 0)
(1 8.73396e-15 0)
(1 8.2503e-16 0)
(1 -2.78917e-15 0)
(1 5.53179e-15 0)
(1 4.87688e-15 0)
(1 1.33128e-14 0)
(1 4.96354e-15 0)
(1 -1.74749e-15 0)
(1 3.77288e-15 0)
(1 8.5922e-15 0)
(1 9.88898e-15 0)
(1 1.47019e-14 0)
(1 9.02189e-15 0)
(1 1.77281e-15 0)
(1 1.92509e-15 0)
(1 1.74766e-15 0)
(1 4.24869e-15 0)
(1 1.3381e-15 0)
(1 5.26282e-15 0)
(1 7.46426e-15 0)
(1 1.2496e-14 0)
(1 6.70817e-15 0)
(1 4.13107e-15 0)
(1 2.8185e-15 0)
(1 4.45562e-15 0)
(1 -9.62236e-16 0)
(1 -5.44368e-15 0)
(1 -4.20384e-15 0)
(1 -1.62683e-15 0)
(1 1.30402e-15 0)
(1 -8.20297e-15 0)
(1 4.4886e-16 0)
(1 -2.50396e-15 0)
(1 5.35873e-15 0)
(1 3.79089e-15 0)
(1 3.38611e-15 0)
(1 6.53329e-15 0)
(1 9.19936e-15 0)
(1 9.05046e-15 0)
(1 1.79387e-14 0)
(1 1.07434e-14 0)
(1 2.21564e-14 0)
(1 2.31599e-14 0)
(1 -5.02324e-16 0)
(1 -3.92194e-15 0)
(1 -7.02248e-16 0)
(1 3.62424e-15 0)
(1 -3.82127e-15 0)
(1 3.28545e-15 0)
(1 -1.30871e-15 0)
(1 4.58224e-15 0)
(1 3.15624e-15 0)
(1 -7.64083e-15 0)
(1 -4.48365e-15 0)
(1 -5.97986e-15 0)
(1 -1.44795e-15 0)
(1 6.57724e-15 0)
(1 6.59948e-15 0)
(1 9.57384e-15 0)
(1 2.59408e-15 0)
(1 -5.82383e-15 0)
(1 -3.32288e-15 0)
(1 -3.33125e-15 0)
(1 6.69221e-15 0)
(1 1.33893e-15 0)
(1 -2.67945e-16 0)
(1 -5.08465e-16 0)
(1 -3.59213e-15 0)
(1 -6.28934e-15 0)
(1 3.38608e-15 0)
(1 6.28069e-15 0)
(1 6.83195e-15 0)
(1 3.53692e-15 0)
(1 -4.46721e-15 0)
(1 -1.61678e-14 0)
(1 -5.11859e-15 0)
(1 -1.04395e-15 0)
(1 4.75199e-15 0)
(1 2.43543e-15 0)
(1 3.81066e-15 0)
(1 3.21483e-15 0)
(1 -1.07466e-15 0)
(1 6.41617e-17 0)
(1 4.15996e-15 0)
(1 -4.35006e-16 0)
(1 9.06128e-15 0)
(1 -1.6251e-15 0)
(1 -1.32618e-16 0)
(1 -1.24042e-15 0)
(1 5.55441e-15 0)
(1 2.15483e-15 0)
(1 6.32636e-15 0)
(1 5.08621e-15 0)
(1 9.00863e-15 0)
(1 8.8022e-15 0)
(1 9.42309e-15 0)
(1 5.42385e-15 0)
(1 9.9563e-15 0)
(1 2.27712e-15 0)
(1 1.2228e-14 0)
(1 4.32518e-15 0)
(1 5.67926e-15 0)
(1 -3.03008e-15 0)
(1 1.01831e-14 0)
(1 -3.88383e-15 0)
(1 8.33046e-15 0)
(1 3.75065e-15 0)
(1 2.078e-15 0)
(1 3.54357e-15 0)
(1 5.25849e-15 0)
(1 5.46458e-15 0)
(1 1.15407e-14 0)
(1 4.07436e-15 0)
(1 6.7958e-15 0)
(1 -1.63364e-15 0)
(1 3.81923e-15 0)
(1 -2.26342e-16 0)
(1 2.23607e-15 0)
(1 6.40079e-15 0)
(1 8.54161e-15 0)
(1 3.27025e-15 0)
(1 5.04936e-15 0)
(1 4.72676e-15 0)
(1 2.90291e-15 0)
(1 -2.75262e-15 0)
(1 4.00356e-15 0)
(1 -1.48591e-16 0)
(1 3.55199e-15 0)
(1 -1.47375e-15 0)
(1 1.13213e-15 0)
(1 -2.8367e-16 0)
(1 1.40319e-15 0)
(1 -3.14734e-15 0)
(1 1.47467e-15 0)
(1 3.51934e-15 0)
(1 8.87138e-16 0)
(1 2.42066e-15 0)
(1 1.80088e-15 0)
(1 6.20262e-15 0)
(1 1.03025e-14 0)
(1 1.3024e-14 0)
(1 1.89143e-14 0)
(1 1.74754e-14 0)
(1 1.49471e-15 0)
(1 -6.01243e-15 0)
(1 2.33085e-15 0)
(1 -4.06122e-16 0)
(1 3.63376e-15 0)
(1 -4.7353e-15 0)
(1 -5.15379e-15 0)
(1 -1.51702e-15 0)
(1 5.88309e-15 0)
(1 2.98044e-15 0)
(1 9.94049e-16 0)
(1 -1.35828e-16 0)
(1 -5.91683e-15 0)
(1 -1.55122e-15 0)
(1 9.74814e-15 0)
(1 4.18224e-15 0)
(1 1.59698e-15 0)
(1 -3.68001e-15 0)
(1 -6.29845e-15 0)
(1 -8.92693e-15 0)
(1 5.92653e-15 0)
(1 -5.79705e-16 0)
(1 -3.37228e-15 0)
(1 -4.31504e-15 0)
(1 3.68258e-15 0)
(1 2.87763e-15 0)
(1 -6.12891e-16 0)
(1 4.4137e-15 0)
(1 7.3295e-15 0)
(1 3.40644e-15 0)
(1 -2.82648e-16 0)
(1 -3.66773e-15 0)
(1 -1.27562e-15 0)
(1 -4.86997e-15 0)
(1 -1.73514e-15 0)
(1 -7.87464e-15 0)
(1 -6.39088e-17 0)
(1 1.07952e-15 0)
(1 5.41937e-15 0)
(1 -2.26071e-15 0)
(1 1.43675e-15 0)
(1 -2.56091e-15 0)
(1 -2.59202e-15 0)
(1 -5.44045e-15 0)
(1 3.45069e-15 0)
(1 7.80136e-15 0)
(1 1.17562e-14 0)
(1 1.00979e-14 0)
(1 7.79633e-15 0)
(1 5.74248e-15 0)
(1 5.32282e-15 0)
(1 9.60201e-15 0)
(1 9.05683e-15 0)
(1 8.47248e-15 0)
(1 5.13134e-15 0)
(1 3.55596e-16 0)
(1 -2.51516e-15 0)
(1 -4.43954e-16 0)
(1 6.12818e-15 0)
(1 6.40978e-15 0)
(1 6.82043e-15 0)
(1 9.56816e-15 0)
(1 -4.28582e-16 0)
(1 -4.0113e-17 0)
(1 3.53548e-15 0)
(1 -1.21094e-15 0)
(1 5.09527e-15 0)
(1 3.93598e-15 0)
(1 4.58026e-15 0)
(1 3.53533e-15 0)
(1 2.13298e-15 0)
(1 4.20057e-15 0)
(1 8.3161e-15 0)
(1 2.26274e-15 0)
(1 8.79883e-15 0)
(1 2.75929e-15 0)
(1 1.00867e-14 0)
(1 3.91001e-15 0)
(1 7.02353e-16 0)
(1 2.06247e-15 0)
(1 6.4488e-15 0)
(1 5.52293e-15 0)
(1 4.98579e-15 0)
(1 1.92788e-15 0)
(1 3.53526e-15 0)
(1 -2.18835e-15 0)
(1 -1.56608e-15 0)
(1 4.35743e-15 0)
(1 -4.98137e-15 0)
(1 5.87819e-16 0)
(1 3.14574e-15 0)
(1 8.10502e-15 0)
(1 4.70548e-15 0)
(1 2.46829e-15 0)
(1 5.99995e-15 0)
(1 9.48346e-15 0)
(1 1.0779e-14 0)
(1 1.10163e-14 0)
(1 1.11187e-14 0)
(1 1.26859e-14 0)
(1 5.89339e-15 0)
(1 -1.35066e-15 0)
(1 -8.05632e-16 0)
(1 -3.25453e-15 0)
(1 6.4167e-15 0)
(1 -4.52885e-16 0)
(1 1.29213e-15 0)
(1 2.42022e-15 0)
(1 1.77354e-16 0)
(1 1.17195e-15 0)
(1 3.95176e-15 0)
(1 1.50819e-14 0)
(1 1.06072e-14 0)
(1 -1.28584e-15 0)
(1 -5.01763e-15 0)
(1 -1.6403e-14 0)
(1 -9.25934e-15 0)
(1 -1.22462e-14 0)
(1 -3.36953e-15 0)
(1 -5.55858e-15 0)
(1 6.26093e-15 0)
(1 -4.99232e-16 0)
(1 6.69027e-15 0)
(1 -4.50109e-15 0)
(1 4.10335e-16 0)
(1 7.5438e-15 0)
(1 2.11383e-15 0)
(1 -8.02194e-15 0)
(1 -4.39244e-15 0)
(1 -3.51843e-15 0)
(1 -6.45897e-16 0)
(1 -3.41665e-16 0)
(1 -5.71638e-15 0)
(1 5.06842e-16 0)
(1 -9.52395e-16 0)
(1 3.43791e-15 0)
(1 2.12675e-15 0)
(1 5.07728e-15 0)
(1 7.03698e-16 0)
(1 -3.2769e-15 0)
(1 -9.10553e-15 0)
(1 3.65825e-16 0)
(1 -6.11192e-15 0)
(1 1.32253e-15 0)
(1 -6.70883e-16 0)
(1 2.51416e-15 0)
(1 1.08803e-14 0)
(1 1.32947e-14 0)
(1 3.20553e-15 0)
(1 1.01154e-14 0)
(1 6.36901e-15 0)
(1 1.06037e-14 0)
(1 2.20473e-15 0)
(1 1.2096e-14 0)
(1 3.92658e-15 0)
(1 9.52314e-15 0)
(1 -2.2709e-15 0)
(1 2.29675e-15 0)
(1 -2.03434e-15 0)
(1 -1.03473e-15 0)
(1 -3.36012e-15 0)
(1 1.13648e-14 0)
(1 1.1627e-14 0)
(1 1.22587e-14 0)
(1 5.99057e-15 0)
(1 -2.01706e-16 0)
(1 -2.50604e-15 0)
(1 1.1557e-15 0)
(1 -1.72937e-15 0)
(1 6.09206e-16 0)
(1 7.26077e-16 0)
(1 3.27337e-15 0)
(1 6.93212e-15 0)
(1 1.16689e-14 0)
(1 1.26827e-14 0)
(1 8.6163e-16 0)
(1 2.26315e-16 0)
(1 2.49213e-15 0)
(1 -9.39002e-16 0)
(1 5.57296e-15 0)
(1 2.28301e-15 0)
(1 2.7955e-15 0)
(1 2.11945e-15 0)
(1 2.6547e-15 0)
(1 1.08259e-15 0)
(1 4.60513e-15 0)
(1 1.92844e-15 0)
(1 -8.70783e-16 0)
(1 7.17069e-16 0)
(1 2.80237e-15 0)
(1 2.46693e-15 0)
(1 1.04236e-15 0)
(1 -2.71235e-15 0)
(1 2.00257e-15 0)
(1 -1.49262e-15 0)
(1 7.70291e-15 0)
(1 1.29434e-14 0)
(1 9.29177e-15 0)
(1 6.57544e-15 0)
(1 7.75839e-15 0)
(1 -3.13615e-15 0)
(1 1.26378e-14 0)
(1 -1.15521e-14 0)
(1 1.65323e-15 0)
(1 -1.30477e-15 0)
(1 6.19126e-15 0)
(1 8.00454e-16 0)
(1 5.99228e-15 0)
(1 -2.15251e-16 0)
(1 -3.58214e-15 0)
(1 1.65581e-16 0)
(1 9.20013e-15 0)
(1 3.26513e-15 0)
(1 6.81989e-15 0)
(1 -4.54456e-15 0)
(1 -1.18211e-14 0)
(1 -5.19768e-15 0)
(1 -7.78745e-15 0)
(1 -6.12971e-15 0)
(1 -3.56549e-15 0)
(1 -4.70302e-15 0)
(1 -3.86136e-15 0)
(1 7.65016e-15 0)
(1 5.48763e-15 0)
(1 2.14128e-15 0)
(1 -4.35474e-15 0)
(1 1.65434e-15 0)
(1 -2.15157e-15 0)
(1 1.50638e-15 0)
(1 -9.61434e-16 0)
(1 3.86803e-15 0)
(1 -4.37587e-16 0)
(1 -6.19332e-15 0)
(1 -5.62004e-15 0)
(1 8.0441e-15 0)
(1 5.16047e-15 0)
(1 4.08693e-15 0)
(1 1.26393e-15 0)
(1 -2.33538e-15 0)
(1 -4.98567e-15 0)
(1 -6.16063e-15 0)
(1 -3.79408e-15 0)
(1 -1.02287e-15 0)
(1 1.04346e-14 0)
(1 1.75403e-15 0)
(1 7.19911e-15 0)
(1 7.05845e-15 0)
(1 8.79737e-15 0)
(1 7.66499e-15 0)
(1 1.1447e-14 0)
(1 2.46988e-15 0)
(1 9.77995e-16 0)
(1 -7.44417e-15 0)
(1 4.08803e-16 0)
(1 7.05513e-15 0)
(1 9.15052e-15 0)
(1 1.58248e-14 0)
(1 9.0998e-15 0)
(1 4.5472e-15 0)
(1 -3.24269e-15 0)
(1 -1.12708e-15 0)
(1 -1.52401e-15 0)
(1 -1.11264e-15 0)
(1 5.98584e-16 0)
(1 4.01697e-15 0)
(1 1.2301e-14 0)
(1 -6.3075e-16 0)
(1 4.3595e-15 0)
(1 -2.04089e-15 0)
(1 7.20842e-15 0)
(1 1.01567e-14 0)
(1 2.88706e-15 0)
(1 9.99693e-15 0)
(1 1.40515e-14 0)
(1 8.2227e-15 0)
(1 9.24229e-15 0)
(1 2.0823e-15 0)
(1 9.40056e-16 0)
(1 9.12948e-15 0)
(1 6.32147e-15 0)
(1 7.05418e-17 0)
(1 1.73886e-15 0)
(1 2.16839e-15 0)
(1 5.48056e-15 0)
(1 4.76769e-15 0)
(1 2.30786e-15 0)
(1 7.57339e-16 0)
(1 7.94657e-16 0)
(1 7.92661e-15 0)
(1 3.58363e-15 0)
(1 -2.76253e-15 0)
(1 2.42957e-15 0)
(1 5.64988e-16 0)
(1 4.67178e-15 0)
(1 -4.78129e-16 0)
(1 7.9652e-15 0)
(1 9.49542e-15 0)
(1 1.19129e-14 0)
(1 1.14136e-14 0)
(1 5.16811e-15 0)
(1 -1.21395e-16 0)
(1 3.81795e-15 0)
(1 9.25128e-15 0)
(1 -1.20608e-16 0)
(1 1.3191e-15 0)
(1 -3.02298e-15 0)
(1 -3.39752e-15 0)
(1 -7.27403e-15 0)
(1 3.98265e-15 0)
(1 9.67643e-15 0)
(1 2.92026e-15 0)
(1 -5.76365e-15 0)
(1 -6.82454e-15 0)
(1 -5.05016e-15 0)
(1 -1.27588e-14 0)
(1 -7.28359e-15 0)
(1 -9.01545e-15 0)
(1 -6.98868e-15 0)
(1 -4.01867e-15 0)
(1 4.46154e-15 0)
(1 -5.22928e-15 0)
(1 4.83542e-15 0)
(1 -7.67588e-15 0)
(1 1.77213e-14 0)
(1 1.42574e-14 0)
(1 2.20113e-15 0)
(1 -2.25539e-15 0)
(1 2.38654e-15 0)
(1 -7.83426e-16 0)
(1 2.18958e-16 0)
(1 -5.80022e-15 0)
(1 -1.58779e-15 0)
(1 -1.54417e-15 0)
(1 -1.05523e-14 0)
(1 -1.93072e-15 0)
(1 -1.11442e-16 0)
(1 1.96703e-15 0)
(1 2.10033e-15 0)
(1 -8.55008e-16 0)
(1 1.30693e-15 0)
(1 5.3618e-15 0)
(1 1.07817e-15 0)
(1 4.79332e-17 0)
(1 6.61377e-15 0)
(1 5.53597e-15 0)
(1 9.79624e-15 0)
(1 4.62233e-15 0)
(1 2.30432e-15 0)
(1 -3.3148e-16 0)
(1 1.49672e-15 0)
(1 3.06625e-15 0)
(1 1.72002e-15 0)
(1 -2.39528e-15 0)
(1 1.14937e-16 0)
(1 8.15625e-15 0)
(1 -1.69235e-15 0)
(1 1.24333e-14 0)
(1 8.6772e-15 0)
(1 9.88621e-15 0)
(1 8.54683e-15 0)
(1 6.69674e-15 0)
(1 2.22644e-15 0)
(1 3.09681e-15 0)
(1 -1.41901e-15 0)
(1 6.51299e-15 0)
(1 6.22e-15 0)
(1 1.15597e-14 0)
(1 4.10838e-15 0)
(1 4.69182e-15 0)
(1 9.54679e-15 0)
(1 6.54905e-15 0)
(1 1.18587e-14 0)
(1 9.10252e-15 0)
(1 1.21722e-14 0)
(1 6.79192e-15 0)
(1 1.01882e-14 0)
(1 6.31053e-15 0)
(1 1.7775e-15 0)
(1 1.30381e-14 0)
(1 6.98522e-15 0)
(1 -9.13767e-17 0)
(1 3.20398e-15 0)
(1 2.0966e-15 0)
(1 -1.15614e-15 0)
(1 -1.56587e-15 0)
(1 -3.43517e-15 0)
(1 -5.50825e-15 0)
(1 -3.27609e-15 0)
(1 9.33713e-17 0)
(1 -4.63364e-15 0)
(1 3.46538e-15 0)
(1 2.6643e-15 0)
(1 6.84391e-15 0)
(1 8.65813e-15 0)
(1 1.34588e-14 0)
(1 1.02204e-14 0)
(1 3.43593e-15 0)
(1 8.96386e-15 0)
(1 1.37702e-14 0)
(1 7.30665e-15 0)
(1 -1.90159e-15 0)
(1 -3.70966e-15 0)
(1 8.88739e-16 0)
(1 3.82686e-15 0)
(1 -4.8214e-15 0)
(1 4.91375e-15 0)
(1 9.87635e-15 0)
(1 6.58014e-15 0)
(1 4.40002e-15 0)
(1 4.42579e-16 0)
(1 -2.6016e-15 0)
(1 -1.30699e-14 0)
(1 -9.35333e-15 0)
(1 -5.63341e-15 0)
(1 -2.86603e-15 0)
(1 5.35386e-15 0)
(1 -1.386e-14 0)
(1 -1.01981e-14 0)
(1 -1.00984e-14 0)
(1 3.50748e-15 0)
(1 4.21929e-15 0)
(1 7.29804e-15 0)
(1 -7.09654e-15 0)
(1 -6.49267e-16 0)
(1 -1.56201e-15 0)
(1 7.29006e-15 0)
(1 5.50886e-15 0)
(1 3.63588e-15 0)
(1 1.57793e-15 0)
(1 -4.28698e-15 0)
(1 -4.28189e-15 0)
(1 -2.59738e-15 0)
(1 1.22726e-15 0)
(1 1.63763e-15 0)
(1 -3.87737e-15 0)
(1 2.62043e-15 0)
(1 -1.0166e-15 0)
(1 2.25829e-15 0)
(1 6.67067e-15 0)
(1 7.70525e-15 0)
(1 5.89061e-15 0)
(1 1.04178e-15 0)
(1 1.94778e-15 0)
(1 -9.94427e-15 0)
(1 3.58546e-16 0)
(1 -7.72585e-15 0)
(1 6.23777e-15 0)
(1 1.90427e-15 0)
(1 6.74274e-16 0)
(1 5.05903e-16 0)
(1 8.11437e-15 0)
(1 3.13644e-15 0)
(1 6.08073e-15 0)
(1 6.12786e-16 0)
(1 2.53331e-15 0)
(1 7.01324e-15 0)
(1 1.20979e-14 0)
(1 7.44182e-15 0)
(1 9.35124e-15 0)
(1 1.08633e-15 0)
(1 -7.68415e-15 0)
(1 -7.23601e-15 0)
(1 1.4829e-15 0)
(1 5.66062e-15 0)
(1 3.0064e-15 0)
(1 -1.99053e-15 0)
(1 6.80263e-15 0)
(1 1.86971e-15 0)
(1 1.41297e-14 0)
(1 5.98139e-15 0)
(1 3.58548e-15 0)
(1 1.13923e-14 0)
(1 5.69928e-15 0)
(1 8.3002e-15 0)
(1 7.47528e-15 0)
(1 2.0275e-15 0)
(1 -2.17631e-15 0)
(1 2.41009e-15 0)
(1 8.02672e-15 0)
(1 -1.18396e-16 0)
(1 4.41124e-15 0)
(1 4.18359e-15 0)
(1 7.10933e-15 0)
(1 3.70273e-15 0)
(1 1.17402e-15 0)
(1 3.22607e-16 0)
(1 -4.20335e-15 0)
(1 -5.33225e-15 0)
(1 -2.879e-15 0)
(1 2.09726e-16 0)
(1 3.28749e-15 0)
(1 3.49919e-15 0)
(1 7.12978e-15 0)
(1 6.72051e-15 0)