/*--------------------------------*- C++ -*----------------------------------*\
| =========                 |                                                 |
| \\      /  F ield         | OpenFOAM: The Open Source CFD Toolbox           |
|  \\    /   O peration     | Version:  v2012                                 |
|   \\  /    A nd           | Website:  www.openfoam.com                      |
|    \\/     M anipulation  |                                                 |
\*---------------------------------------------------------------------------*/
FoamFile
{
    version     2.0;
    format      ascii;
    class       volVectorField;
    location    "0";
    object      uRec;
}
// * * * * * * * * * * * * * * * * * * * * * * * * * * * * * * * * * * * * * //

dimensions      [0 1 -1 0 0 0 0];


internalField   nonuniform List<vector> 
4000
(
(1 3.35922e-17 0)
(1 3.15259e-15 0)
(1 2.43201e-15 0)
(1 -1.95373e-15 0)
(1 1.23503e-15 0)
(1 -5.77686e-16 0)
(1 6.14131e-16 0)
(1 -1.25834e-15 0)
(1 -2.65802e-15 0)
(1 2.76392e-15 0)
(1 -1.64982e-16 0)
(1 -4.78798e-16 0)
(1 6.23548e-16 0)
(1 -1.31817e-16 0)
(1 8.56596e-16 0)
(1 -2.47165e-15 0)
(1 -2.93067e-15 0)
(1 -2.44192e-15 0)
(1 -1.82274e-16 0)
(1 -2.56372e-15 0)
(1 -2.09309e-15 0)
(1 9.00599e-16 0)
(1 2.97584e-15 0)
(1 3.10203e-15 0)
(1 2.38111e-15 0)
(1 8.68816e-16 0)
(1 1.03503e-15 0)
(1 -1.40105e-15 0)
(1 -2.08778e-15 0)
(1 -3.32963e-16 0)
(1 -1.53369e-15 0)
(1 -4.43025e-16 0)
(1 -1.68796e-15 0)
(1 2.1712e-16 0)
(1 2.65079e-15 0)
(1 1.20645e-15 0)
(1 1.93142e-15 0)
(1 1.00054e-15 0)
(1 3.39681e-15 0)
(1 6.10012e-16 0)
(1 9.17294e-16 0)
(1 -2.01084e-15 0)
(1 -4.32601e-16 0)
(1 -2.83355e-15 0)
(1 2.01982e-17 0)
(1 -1.10654e-15 0)
(1 -5.7917e-16 0)
(1 3.52656e-16 0)
(1 -3.13026e-16 0)
(1 1.61584e-15 0)
(1 -1.67678e-16 0)
(1 1.73849e-15 0)
(1 4.15081e-16 0)
(1 6.83068e-16 0)
(1 -4.72665e-16 0)
(1 -8.6971e-16 0)
(1 -2.10736e-15 0)
(1 -5.16059e-17 0)
(1 1.1852e-15 0)
(1 5.07885e-15 0)
(1 1.80706e-15 0)
(1 -5.82118e-16 0)
(1 5.39574e-16 0)
(1 6.82803e-16 0)
(1 -6.61877e-16 0)
(1 -1.44451e-15 0)
(1 8.65252e-16 0)
(1 -6.40864e-16 0)
(1 1.12548e-15 0)
(1 -8.21042e-16 0)
(1 -9.22273e-16 0)
(1 -4.20702e-16 0)
(1 5.28491e-17 0)
(1 -1.8912e-15 0)
(1 -9.03138e-16 0)
(1 -1.85539e-15 0)
(1 -2.80917e-16 0)
(1 -1.16943e-15 0)
(1 9.64015e-16 0)
(1 2.41703e-15 0)
(1 2.36757e-16 0)
(1 8.69535e-16 0)
(1 -5.16706e-16 0)
(1 -8.49355e-16 0)
(1 -2.0113e-15 0)
(1 -9.40754e-16 0)
(1 -2.39543e-15 0)
(1 9.84258e-16 0)
(1 2.40981e-15 0)
(1 1.37283e-15 0)
(1 3.70788e-16 0)
(1 -8.19132e-16 0)
(1 -5.77715e-16 0)
(1 6.20784e-16 0)
(1 -2.16922e-15 0)
(1 -2.75868e-15 0)
(1 -1.14634e-15 0)
(1 2.39776e-15 0)
(1 1.19586e-15 0)
(1 -1.24452e-16 0)
(1 9.9077e-17 0)
(1 5.87987e-15 0)
(1 2.81639e-15 0)
(1 -3.56942e-15 0)
(1 3.44133e-16 0)
(1 -9.83628e-16 0)
(1 1.79064e-16 0)
(1 -2.61984e-15 0)
(1 -1.8304e-15 0)
(1 6.97046e-16 0)
(1 4.06489e-16 0)
(1 1.86584e-15 0)
(1 2.43423e-15 0)
(1 4.04291e-16 0)
(1 1.32081e-16 0)
(1 -3.46833e-15 0)
(1 -3.9122e-15 0)
(1 -3.92124e-17 0)
(1 1.13841e-15 0)
(1 -2.48509e-15 0)
(1 -3.0259e-15 0)
(1 -4.01323e-16 0)
(1 4.9172e-16 0)
(1 2.59802e-15 0)
(1 7.21074e-16 0)
(1 4.5311e-16 0)
(1 3.63424e-16 0)
(1 -2.31863e-15 0)
(1 -2.74143e-15 0)
(1 1.04364e-15 0)
(1 -6.64424e-16 0)
(1 9.0666e-16 0)
(1 4.50716e-16 0)
(1 -1.64141e-15 0)
(1 8.83279e-16 0)
(1 -1.16812e-15 0)
(1 6.83086e-16 0)
(1 1.63269e-15 0)
(1 3.74277e-15 0)
(1 1.53277e-15 0)
(1 -7.49851e-16 0)
(1 -9.2844e-16 0)
(1 -2.92159e-15 0)
(1 -4.56313e-15 0)
(1 -1.85081e-15 0)
(1 -3.35977e-15 0)
(1 1.22983e-15 0)
(1 1.80086e-15 0)
(1 2.53325e-15 0)
(1 -5.89138e-16 0)
(1 -1.13571e-15 0)
(1 -6.34374e-16 0)
(1 4.33108e-15 0)
(1 2.72133e-15 0)
(1 2.78479e-15 0)
(1 1.16539e-15 0)
(1 -1.24354e-15 0)
(1 1.31807e-15 0)
(1 -1.22042e-15 0)
(1 -2.06651e-15 0)
(1 -2.43756e-15 0)
(1 -3.90847e-16 0)
(1 8.00546e-16 0)
(1 1.90805e-15 0)
(1 -1.91444e-16 0)
(1 4.2908e-17 0)
(1 -1.15608e-15 0)
(1 -1.73236e-15 0)
(1 2.27692e-16 0)
(1 -7.41296e-16 0)
(1 -7.22541e-16 0)
(1 1.50173e-15 0)
(1 1.67111e-15 0)
(1 -2.10673e-15 0)
(1 -9.52221e-16 0)
(1 3.72042e-16 0)
(1 3.48962e-16 0)
(1 1.64267e-15 0)
(1 1.66766e-15 0)
(1 3.03395e-15 0)
(1 -7.03931e-16 0)
(1 -1.98386e-15 0)
(1 1.60242e-15 0)
(1 -1.17614e-15 0)
(1 6.07826e-17 0)
(1 2.01782e-16 0)
(1 -2.63536e-15 0)
(1 -3.34811e-15 0)
(1 -7.19188e-16 0)
(1 -1.07398e-16 0)
(1 -9.76805e-16 0)
(1 -2.70151e-15 0)
(1 3.59045e-16 0)
(1 4.19859e-16 0)
(1 -4.04263e-15 0)
(1 -3.06746e-15 0)
(1 -2.79707e-16 0)
(1 3.63208e-15 0)
(1 1.02022e-15 0)
(1 -3.97429e-17 0)
(1 6.45246e-16 0)
(1 1.97616e-15 0)
(1 1.49093e-17 0)
(1 3.83549e-16 0)
(1 3.51995e-16 0)
(1 8.73713e-16 0)
(1 8.75027e-16 0)
(1 2.34361e-15 0)
(1 -1.34524e-15 0)
(1 -1.63197e-15 0)
(1 -5.71365e-16 0)
(1 2.23724e-15 0)
(1 4.11724e-15 0)
(1 6.36091e-16 0)
(1 -1.84396e-17 0)
(1 -3.71693e-15 0)
(1 -3.13985e-15 0)
(1 -1.9801e-15 0)
(1 -3.21059e-16 0)
(1 2.2741e-15 0)
(1 -1.33883e-15 0)
(1 6.93134e-16 0)
(1 -1.95036e-16 0)
(1 3.18914e-15 0)
(1 2.67153e-15 0)
(1 3.21346e-15 0)
(1 1.68139e-15 0)
(1 -1.60894e-15 0)
(1 -1.90932e-15 0)
(1 -6.83072e-16 0)
(1 1.84169e-15 0)
(1 -2.56952e-15 0)
(1 5.79499e-16 0)
(1 -8.46646e-16 0)
(1 1.37141e-16 0)
(1 -1.35454e-15 0)
(1 -8.91183e-16 0)
(1 -1.48092e-16 0)
(1 1.33648e-15 0)
(1 1.14838e-15 0)
(1 -1.79629e-15 0)
(1 -2.95574e-16 0)
(1 -3.34653e-15 0)
(1 -4.59412e-15 0)
(1 -2.9652e-15 0)
(1 -1.72558e-15 0)
(1 -1.56809e-15 0)
(1 -3.23267e-16 0)
(1 3.34508e-15 0)
(1 1.89179e-15 0)
(1 1.09358e-15 0)
(1 1.16174e-15 0)
(1 5.72436e-15 0)
(1 1.8196e-15 0)
(1 3.10381e-15 0)
(1 -8.36026e-16 0)
(1 -1.82693e-16 0)
(1 -1.2327e-15 0)
(1 -8.51772e-16 0)
(1 -3.21873e-15 0)
(1 -6.75829e-16 0)
(1 2.2026e-16 0)
(1 1.6259e-15 0)
(1 -3.13252e-16 0)
(1 -1.2201e-15 0)
(1 6.3249e-16 0)
(1 -1.29578e-15 0)
(1 4.57437e-16 0)
(1 -1.96491e-16 0)
(1 1.00128e-15 0)
(1 8.57547e-16 0)
(1 2.38307e-15 0)
(1 2.03952e-15 0)
(1 -1.28245e-15 0)
(1 -2.54555e-15 0)
(1 -1.04722e-15 0)
(1 -7.07372e-16 0)
(1 3.17403e-16 0)
(1 1.4651e-15 0)
(1 -5.39634e-16 0)
(1 -2.96964e-15 0)
(1 -3.71464e-15 0)
(1 -8.72096e-16 0)
(1 -5.0564e-16 0)
(1 3.46787e-17 0)
(1 3.39435e-16 0)
(1 -1.0962e-15 0)
(1 -4.75345e-15 0)
(1 -2.44962e-15 0)
(1 -3.09829e-16 0)
(1 -7.88011e-16 0)
(1 -1.77145e-15 0)
(1 -1.1743e-15 0)
(1 -1.30467e-16 0)
(1 -1.20456e-15 0)
(1 -2.353e-15 0)
(1 3.47737e-17 0)
(1 -5.51492e-16 0)
(1 -1.30419e-16 0)
(1 5.81109e-16 0)
(1 1.03548e-15 0)
(1 6.7631e-16 0)
(1 1.9112e-15 0)
(1 7.19531e-16 0)
(1 -4.65958e-16 0)
(1 -1.22363e-16 0)
(1 -9.61981e-17 0)
(1 2.49251e-15 0)
(1 9.03792e-16 0)
(1 -9.16028e-16 0)
(1 1.01732e-15 0)
(1 4.7624e-15 0)
(1 3.40241e-15 0)
(1 -2.30626e-15 0)
(1 1.13529e-15 0)
(1 -1.69539e-15 0)
(1 -2.02385e-15 0)
(1 -6.86701e-15 0)
(1 -5.57939e-15 0)
(1 3.50784e-15 0)
(1 -7.24687e-17 0)
(1 1.70856e-15 0)
(1 2.37576e-15 0)
(1 3.60291e-15 0)
(1 3.68925e-15 0)
(1 5.53668e-15 0)
(1 2.16663e-15 0)
(1 3.27505e-15 0)
(1 -1.68788e-15 0)
(1 3.95185e-16 0)
(1 -2.35371e-15 0)
(1 -3.14514e-15 0)
(1 -2.75629e-15 0)
(1 1.19864e-15 0)
(1 2.68048e-15 0)
(1 9.07823e-16 0)
(1 7.80327e-16 0)
(1 -8.99453e-17 0)
(1 1.07941e-15 0)
(1 4.44085e-16 0)
(1 -2.71852e-16 0)
(1 -3.12942e-15 0)
(1 -3.09264e-15 0)
(1 -4.23864e-15 0)
(1 -2.82721e-15 0)
(1 6.96716e-16 0)
(1 -3.68724e-16 0)
(1 -2.69465e-17 0)
(1 2.91049e-15 0)
(1 4.09128e-15 0)
(1 2.27828e-15 0)
(1 1.96113e-15 0)
(1 1.58987e-15 0)
(1 1.4443e-15 0)
(1 5.62091e-16 0)
(1 -1.49867e-15 0)
(1 -1.46376e-15 0)
(1 -1.66722e-15 0)
(1 -2.90593e-16 0)
(1 2.39574e-15 0)
(1 4.13102e-16 0)
(1 5.46524e-16 0)
(1 -9.21525e-17 0)
(1 8.79401e-17 0)
(1 -2.58341e-15 0)
(1 -1.06414e-15 0)
(1 -3.16259e-15 0)
(1 1.10895e-15 0)
(1 -1.59452e-17 0)
(1 6.95815e-16 0)
(1 1.01618e-15 0)
(1 1.84201e-15 0)
(1 6.92179e-16 0)
(1 -6.60779e-16 0)
(1 -3.74508e-15 0)
(1 -2.79763e-15 0)
(1 -4.62627e-17 0)
(1 1.8386e-16 0)
(1 1.77626e-16 0)
(1 1.20262e-15 0)
(1 -9.01736e-16 0)
(1 -1.87882e-15 0)
(1 -8.83729e-16 0)
(1 -1.40387e-15 0)
(1 6.66961e-17 0)
(1 -5.49491e-16 0)
(1 -2.37887e-17 0)
(1 -1.64459e-15 0)
(1 -4.73195e-16 0)
(1 -6.61825e-16 0)
(1 -1.50594e-15 0)
(1 -1.42937e-15 0)
(1 -1.63369e-15 0)
(1 -5.86781e-16 0)
(1 1.07304e-16 0)
(1 -1.82716e-15 0)
(1 -1.91715e-15 0)
(1 -2.75165e-15 0)
(1 -2.42611e-15 0)
(1 -3.27237e-16 0)
(1 1.80014e-15 0)
(1 -5.04004e-16 0)
(1 3.74271e-16 0)
(1 -1.92524e-15 0)
(1 -3.31337e-16 0)
(1 -3.63958e-18 0)
(1 -8.52956e-16 0)
(1 -1.81186e-15 0)
(1 3.72149e-15 0)
(1 2.55016e-15 0)
(1 4.35407e-15 0)
(1 3.34502e-15 0)
(1 -2.06304e-16 0)
(1 -5.98402e-15 0)
(1 -1.71688e-16 0)
(1 -8.1038e-17 0)
(1 1.63658e-15 0)
(1 7.36728e-16 0)
(1 -9.85796e-16 0)
(1 -3.23348e-15 0)
(1 -1.49205e-15 0)
(1 -4.73865e-15 0)
(1 3.29198e-15 0)
(1 7.02219e-15 0)
(1 5.19318e-15 0)
(1 3.08864e-15 0)
(1 1.04075e-15 0)
(1 1.72522e-15 0)
(1 1.28118e-15 0)
(1 -1.94888e-15 0)
(1 -7.08462e-16 0)
(1 9.74719e-16 0)
(1 -1.55481e-15 0)
(1 -2.30691e-17 0)
(1 -3.49719e-15 0)
(1 -1.92079e-15 0)
(1 -2.42534e-15 0)
(1 -3.14821e-16 0)
(1 -6.5601e-16 0)
(1 1.39049e-16 0)
(1 -1.56717e-15 0)
(1 -8.45329e-16 0)
(1 -3.67775e-15 0)
(1 1.68715e-16 0)
(1 -3.64867e-15 0)
(1 -3.32698e-16 0)
(1 2.79265e-15 0)
(1 2.81462e-15 0)
(1 2.17471e-15 0)
(1 -1.20473e-15 0)
(1 2.58738e-15 0)
(1 5.28441e-16 0)
(1 5.56193e-16 0)
(1 2.43401e-15 0)
(1 2.50898e-15 0)
(1 3.67324e-15 0)
(1 3.28437e-16 0)
(1 -4.93312e-17 0)
(1 -3.18171e-15 0)
(1 -4.90475e-15 0)
(1 -1.92779e-15 0)
(1 -8.55445e-18 0)
(1 8.5346e-16 0)
(1 2.81804e-16 0)
(1 1.16005e-15 0)
(1 -1.05102e-15 0)
(1 -3.20581e-15 0)
(1 -4.02806e-16 0)
(1 7.68205e-16 0)
(1 1.10521e-15 0)
(1 1.64385e-15 0)
(1 2.69692e-15 0)
(1 1.62195e-15 0)
(1 9.57909e-16 0)
(1 -1.5574e-15 0)
(1 -8.03053e-16 0)
(1 -6.04574e-16 0)
(1 3.78891e-15 0)
(1 1.93865e-15 0)
(1 -6.43196e-16 0)
(1 -7.48842e-16 0)
(1 -1.68371e-15 0)
(1 6.20119e-16 0)
(1 -1.91853e-15 0)
(1 5.64342e-16 0)
(1 -3.98489e-15 0)
(1 -1.65599e-15 0)
(1 -2.51186e-15 0)
(1 -3.6066e-15 0)
(1 -1.46736e-15 0)
(1 -1.85367e-15 0)
(1 -3.15142e-15 0)
(1 -4.06164e-16 0)
(1 -1.24775e-15 0)
(1 -1.4268e-17 0)
(1 -5.59228e-16 0)
(1 -1.29477e-15 0)
(1 -1.21063e-15 0)
(1 -3.27791e-15 0)
(1 -9.5507e-16 0)
(1 -6.24186e-16 0)
(1 -2.75889e-15 0)
(1 -8.11326e-16 0)
(1 -5.91931e-16 0)
(1 9.32444e-16 0)
(1 1.79649e-16 0)
(1 8.98094e-16 0)
(1 9.11553e-16 0)
(1 1.78307e-15 0)
(1 4.64702e-15 0)
(1 5.2254e-15 0)
(1 2.1326e-15 0)
(1 -2.34343e-15 0)
(1 -4.31123e-16 0)
(1 1.14031e-15 0)
(1 -2.02835e-15 0)
(1 -1.37868e-15 0)
(1 -3.37404e-15 0)
(1 -1.29533e-15 0)
(1 -1.5569e-15 0)
(1 1.72656e-15 0)
(1 7.84797e-16 0)
(1 4.6263e-15 0)
(1 2.76899e-15 0)
(1 -7.93893e-17 0)
(1 2.58616e-15 0)
(1 3.23825e-15 0)
(1 -4.36682e-15 0)
(1 2.33949e-15 0)
(1 -2.45364e-15 0)
(1 -1.55976e-15 0)
(1 -2.73066e-15 0)
(1 -2.82645e-16 0)
(1 1.20146e-15 0)
(1 -3.47517e-15 0)
(1 2.3897e-15 0)
(1 2.28407e-15 0)
(1 2.98112e-15 0)
(1 -3.42628e-16 0)
(1 -2.4491e-15 0)
(1 -4.78514e-16 0)
(1 -1.129e-15 0)
(1 -2.08889e-15 0)
(1 -1.22321e-15 0)
(1 -1.42236e-15 0)
(1 -1.21944e-15 0)
(1 -1.83108e-15 0)
(1 1.23549e-15 0)
(1 2.31144e-15 0)
(1 3.88658e-15 0)
(1 3.43809e-15 0)
(1 9.30228e-16 0)
(1 1.09876e-15 0)
(1 2.57729e-15 0)
(1 2.34975e-15 0)
(1 1.47164e-15 0)
(1 1.5199e-15 0)
(1 1.86297e-15 0)
(1 4.74729e-16 0)
(1 4.95499e-16 0)
(1 3.13063e-15 0)
(1 -1.46897e-15 0)
(1 -9.76605e-16 0)
(1 -2.3602e-15 0)
(1 6.47832e-16 0)
(1 -1.17439e-16 0)
(1 4.35695e-15 0)
(1 4.83317e-15 0)
(1 4.66635e-15 0)
(1 4.71566e-15 0)
(1 2.96635e-15 0)
(1 2.08077e-15 0)
(1 2.42391e-15 0)
(1 -5.20131e-16 0)
(1 -4.00225e-15 0)
(1 -4.68359e-15 0)
(1 -2.48625e-15 0)
(1 2.9939e-15 0)
(1 2.90345e-15 0)
(1 -1.27907e-15 0)
(1 -2.66015e-15 0)
(1 9.50989e-16 0)
(1 -2.89344e-15 0)
(1 -1.44423e-15 0)
(1 -1.88672e-15 0)
(1 -4.59672e-15 0)
(1 -2.16105e-15 0)
(1 -3.55362e-15 0)
(1 -3.74652e-15 0)
(1 -1.63002e-15 0)
(1 -2.58519e-15 0)
(1 -2.29996e-15 0)
(1 7.19403e-17 0)
(1 1.2527e-15 0)
(1 2.66212e-15 0)
(1 2.12081e-15 0)
(1 1.10853e-15 0)
(1 3.67199e-17 0)
(1 9.50167e-16 0)
(1 1.12639e-15 0)
(1 -1.44452e-15 0)
(1 -1.51194e-15 0)
(1 4.41013e-15 0)
(1 -5.21537e-16 0)
(1 1.77733e-15 0)
(1 -2.65629e-15 0)
(1 -3.3106e-15 0)
(1 5.92659e-16 0)
(1 1.14411e-15 0)
(1 9.25433e-16 0)
(1 3.0158e-15 0)
(1 5.9143e-16 0)
(1 6.64189e-16 0)
(1 4.08259e-15 0)
(1 1.70664e-15 0)
(1 3.30441e-15 0)
(1 3.82549e-15 0)
(1 -2.95872e-15 0)
(1 9.19882e-16 0)
(1 2.05276e-15 0)
(1 3.6285e-15 0)
(1 -2.93505e-15 0)
(1 -5.6716e-16 0)
(1 -5.95445e-16 0)
(1 -2.58144e-15 0)
(1 -2.40965e-16 0)
(1 -9.93466e-16 0)
(1 -1.51503e-15 0)
(1 7.70514e-16 0)
(1 3.90035e-15 0)
(1 -1.28733e-15 0)
(1 -5.44044e-16 0)
(1 -5.18603e-16 0)
(1 6.73637e-17 0)
(1 -1.10196e-15 0)
(1 1.46715e-15 0)
(1 5.94631e-15 0)
(1 2.41019e-15 0)
(1 -1.26528e-15 0)
(1 -5.63545e-15 0)
(1 4.49198e-16 0)
(1 -3.43062e-15 0)
(1 2.29564e-15 0)
(1 -2.86955e-16 0)
(1 -3.69049e-16 0)
(1 -2.57503e-15 0)
(1 -3.01634e-15 0)
(1 1.59737e-15 0)
(1 8.45567e-16 0)
(1 6.63195e-15 0)
(1 2.78099e-15 0)
(1 -7.5464e-16 0)
(1 4.84066e-16 0)
(1 3.03831e-15 0)
(1 2.30321e-15 0)
(1 -2.28312e-16 0)
(1 -1.72422e-15 0)
(1 4.43765e-16 0)
(1 8.53576e-16 0)
(1 2.5932e-15 0)
(1 -2.36874e-16 0)
(1 -6.95451e-16 0)
(1 -1.21168e-15 0)
(1 -5.44044e-16 0)
(1 -1.5917e-15 0)
(1 -1.69426e-15 0)
(1 -7.3671e-16 0)
(1 2.99187e-15 0)
(1 2.91832e-15 0)
(1 1.49064e-15 0)
(1 1.81941e-15 0)
(1 1.76613e-15 0)
(1 1.55381e-16 0)
(1 3.87127e-16 0)
(1 2.07866e-15 0)
(1 1.19758e-15 0)
(1 2.70189e-15 0)
(1 9.20757e-16 0)
(1 1.49544e-15 0)
(1 9.6864e-16 0)
(1 -2.82037e-16 0)
(1 -5.91842e-17 0)
(1 -1.85203e-15 0)
(1 -1.96345e-15 0)
(1 -2.04524e-15 0)
(1 -1.23174e-15 0)
(1 -1.44442e-15 0)
(1 -1.74861e-15 0)
(1 -3.16106e-16 0)
(1 -3.09096e-15 0)
(1 -2.91542e-15 0)
(1 1.01624e-15 0)
(1 3.43671e-16 0)
(1 1.7765e-15 0)
(1 1.07292e-15 0)
(1 3.02054e-15 0)
(1 8.40235e-16 0)
(1 3.80782e-16 0)
(1 2.23748e-15 0)
(1 1.90523e-15 0)
(1 8.04877e-17 0)
(1 -1.23969e-15 0)
(1 1.95044e-15 0)
(1 -9.26391e-16 0)
(1 1.63384e-16 0)
(1 -4.67866e-16 0)
(1 -3.18361e-15 0)
(1 -1.26252e-15 0)
(1 1.13152e-15 0)
(1 3.89227e-15 0)
(1 -2.34592e-17 0)
(1 -3.08398e-15 0)
(1 1.70293e-15 0)
(1 3.4983e-15 0)
(1 -2.37136e-16 0)
(1 4.18355e-15 0)
(1 8.84825e-16 0)
(1 6.3484e-15 0)
(1 7.05202e-15 0)
(1 -2.05025e-15 0)
(1 -4.23296e-15 0)
(1 -5.20666e-15 0)
(1 -5.90723e-15 0)
(1 -6.09556e-16 0)
(1 2.13484e-15 0)
(1 -2.96357e-15 0)
(1 -3.53216e-15 0)
(1 1.408e-15 0)
(1 -2.7005e-15 0)
(1 -2.51204e-16 0)
(1 3.93505e-15 0)
(1 1.29234e-15 0)
(1 -2.17781e-15 0)
(1 -2.04128e-15 0)
(1 9.68688e-16 0)
(1 -1.79362e-15 0)
(1 -1.06594e-15 0)
(1 -1.27237e-15 0)
(1 -1.16501e-15 0)
(1 1.94581e-15 0)
(1 7.34978e-17 0)
(1 -1.46715e-15 0)
(1 2.83547e-15 0)
(1 2.07801e-15 0)
(1 1.26674e-15 0)
(1 1.23362e-15 0)
(1 1.54276e-15 0)
(1 3.03174e-15 0)
(1 -1.53514e-15 0)
(1 -1.51087e-16 0)
(1 2.95485e-15 0)
(1 4.09387e-15 0)
(1 1.3925e-15 0)
(1 1.96408e-15 0)
(1 3.59174e-15 0)
(1 3.35903e-15 0)
(1 1.36474e-15 0)
(1 -3.62737e-15 0)
(1 3.03403e-15 0)
(1 7.15441e-16 0)
(1 -2.21049e-15 0)
(1 2.47704e-16 0)
(1 1.62041e-15 0)
(1 1.51408e-15 0)
(1 -5.40321e-16 0)
(1 1.19895e-15 0)
(1 2.9252e-15 0)
(1 -1.61902e-15 0)
(1 1.69329e-15 0)
(1 1.88701e-15 0)
(1 5.25276e-15 0)
(1 5.30587e-15 0)
(1 2.39103e-15 0)
(1 1.56825e-15 0)
(1 2.59597e-15 0)
(1 4.81106e-15 0)
(1 3.67556e-15 0)
(1 -7.87447e-16 0)
(1 -9.06789e-16 0)
(1 -2.78184e-15 0)
(1 -1.98056e-15 0)
(1 -3.63124e-15 0)
(1 -2.84452e-15 0)
(1 -1.11962e-16 0)
(1 -5.06505e-15 0)
(1 -2.89415e-15 0)
(1 -2.48429e-15 0)
(1 -1.89282e-16 0)
(1 -1.02285e-15 0)
(1 -5.30524e-15 0)
(1 -4.61838e-15 0)
(1 -6.75958e-16 0)
(1 -2.29601e-15 0)
(1 1.14477e-15 0)
(1 2.771e-15 0)
(1 3.52156e-15 0)
(1 5.83674e-16 0)
(1 1.57188e-15 0)
(1 2.543e-15 0)
(1 3.57883e-15 0)
(1 -1.0067e-15 0)
(1 2.24287e-15 0)
(1 -3.88174e-15 0)
(1 -2.97417e-15 0)
(1 -3.28104e-15 0)
(1 1.13582e-15 0)
(1 -2.62171e-17 0)
(1 -3.48089e-15 0)
(1 -1.15592e-15 0)
(1 4.12922e-15 0)
(1 1.77328e-15 0)
(1 5.14377e-15 0)
(1 4.69411e-15 0)
(1 4.91118e-15 0)
(1 1.66347e-15 0)
(1 2.49141e-15 0)
(1 2.07664e-15 0)
(1 5.16649e-15 0)
(1 7.8809e-16 0)
(1 -3.1439e-15 0)
(1 -7.67316e-15 0)
(1 1.96115e-15 0)
(1 -3.12942e-15 0)
(1 -3.59921e-15 0)
(1 -6.86472e-16 0)
(1 -2.89343e-15 0)
(1 -2.22708e-15 0)
(1 -5.26607e-15 0)
(1 -5.44022e-15 0)
(1 -1.40584e-15 0)
(1 1.87661e-15 0)
(1 6.71526e-16 0)
(1 8.92036e-16 0)
(1 1.30933e-15 0)
(1 8.79067e-16 0)
(1 1.63562e-15 0)
(1 -2.31917e-15 0)
(1 7.67051e-16 0)
(1 -2.40952e-16 0)
(1 2.33099e-15 0)
(1 -1.08194e-15 0)
(1 4.62021e-16 0)
(1 1.79076e-15 0)
(1 9.32613e-16 0)
(1 5.47464e-15 0)
(1 3.36233e-15 0)
(1 2.00598e-15 0)
(1 -3.12732e-16 0)
(1 -2.01533e-15 0)
(1 -3.38718e-15 0)
(1 2.37992e-15 0)
(1 3.80574e-15 0)
(1 2.41046e-15 0)
(1 2.4302e-15 0)
(1 4.42511e-15 0)
(1 3.6325e-15 0)
(1 5.14917e-15 0)
(1 1.81247e-16 0)
(1 4.44276e-15 0)
(1 -1.72498e-16 0)
(1 5.66206e-16 0)
(1 4.8752e-16 0)
(1 -4.36062e-15 0)
(1 -2.90596e-15 0)
(1 -3.22932e-15 0)
(1 -2.55246e-16 0)
(1 8.17462e-15 0)
(1 3.77602e-15 0)
(1 6.39734e-15 0)
(1 7.38707e-15 0)
(1 6.98084e-15 0)
(1 4.38736e-15 0)
(1 3.70346e-15 0)
(1 1.07513e-15 0)
(1 -2.48295e-15 0)
(1 1.03474e-15 0)
(1 1.72332e-15 0)
(1 4.17065e-16 0)
(1 -3.69011e-15 0)
(1 -3.98557e-16 0)
(1 5.36014e-16 0)
(1 2.49047e-15 0)
(1 -2.87657e-15 0)
(1 4.37366e-16 0)
(1 -4.92714e-15 0)
(1 -3.76467e-15 0)
(1 -4.34522e-15 0)
(1 -2.499e-15 0)
(1 -3.72119e-15 0)
(1 -2.74047e-15 0)
(1 -2.72744e-15 0)
(1 -1.86315e-15 0)
(1 1.55858e-15 0)
(1 3.88012e-15 0)
(1 7.00141e-15 0)
(1 6.2211e-15 0)
(1 5.35613e-15 0)
(1 2.32306e-15 0)
(1 6.91066e-15 0)
(1 7.7206e-15 0)
(1 2.79112e-16 0)
(1 9.73397e-16 0)
(1 -9.78407e-16 0)
(1 5.33308e-17 0)
(1 -1.16836e-15 0)
(1 1.73941e-16 0)
(1 7.78793e-16 0)
(1 2.95218e-16 0)
(1 8.75374e-16 0)
(1 2.46924e-15 0)
(1 9.11475e-16 0)
(1 5.76507e-15 0)
(1 4.12373e-15 0)
(1 -1.38463e-15 0)
(1 -3.39131e-16 0)
(1 -3.76339e-16 0)
(1 6.07757e-16 0)
(1 2.76242e-15 0)
(1 -3.70918e-16 0)
(1 -8.24353e-16 0)
(1 -4.92495e-15 0)
(1 -2.39123e-15 0)
(1 1.89114e-16 0)
(1 -1.42247e-15 0)
(1 5.88677e-16 0)
(1 3.39301e-16 0)
(1 -1.02851e-15 0)
(1 -7.37413e-15 0)
(1 -3.39548e-15 0)
(1 -1.92881e-15 0)
(1 -2.42399e-15 0)
(1 3.18414e-15 0)
(1 2.56513e-15 0)
(1 2.06126e-15 0)
(1 -1.4615e-16 0)
(1 -1.31882e-16 0)
(1 -3.5259e-15 0)
(1 -3.28805e-15 0)
(1 -2.96248e-15 0)
(1 -9.69366e-16 0)
(1 -2.39225e-15 0)
(1 2.45823e-15 0)
(1 1.75138e-15 0)
(1 3.22569e-15 0)
(1 4.25602e-15 0)
(1 2.79308e-15 0)
(1 6.72028e-16 0)
(1 -8.01952e-16 0)
(1 2.71051e-15 0)
(1 2.24333e-15 0)
(1 3.06859e-15 0)
(1 1.61403e-16 0)
(1 1.40614e-15 0)
(1 3.23226e-15 0)
(1 4.34472e-15 0)
(1 2.76474e-15 0)
(1 1.54758e-15 0)
(1 1.55217e-15 0)
(1 1.02706e-15 0)
(1 -1.55061e-17 0)
(1 1.98145e-15 0)
(1 4.92465e-15 0)
(1 5.64833e-15 0)
(1 6.27187e-16 0)
(1 1.84335e-15 0)
(1 3.15792e-16 0)
(1 2.97285e-15 0)
(1 4.92423e-15 0)
(1 5.19767e-15 0)
(1 4.29594e-15 0)
(1 3.45431e-15 0)
(1 3.15699e-15 0)
(1 2.72702e-15 0)
(1 2.15382e-16 0)
(1 -1.46333e-16 0)
(1 2.62461e-15 0)
(1 5.0521e-15 0)
(1 9.18411e-16 0)
(1 -1.63103e-15 0)
(1 -5.97099e-16 0)
(1 6.91025e-16 0)
(1 -8.47734e-16 0)
(1 -2.77237e-15 0)
(1 -3.09137e-15 0)
(1 -3.34474e-15 0)
(1 -4.92237e-15 0)
(1 -3.53757e-15 0)
(1 -4.07717e-15 0)
(1 -2.265e-15 0)
(1 -2.57825e-15 0)
(1 2.29468e-15 0)
(1 -2.98667e-15 0)
(1 5.08695e-15 0)
(1 5.71388e-16 0)
(1 5.64104e-15 0)
(1 4.87208e-15 0)
(1 2.9653e-15 0)
(1 5.67838e-15 0)
(1 1.04946e-14 0)
(1 8.74991e-15 0)
(1 3.6728e-16 0)
(1 -2.8585e-15 0)
(1 1.22898e-16 0)
(1 2.32338e-15 0)
(1 -1.30315e-15 0)
(1 -1.56632e-16 0)
(1 -2.72437e-17 0)
(1 3.21241e-15 0)
(1 2.45051e-15 0)
(1 -9.81107e-16 0)
(1 -2.84629e-15 0)
(1 1.14276e-15 0)
(1 -2.54957e-16 0)
(1 2.65683e-15 0)
(1 1.87485e-15 0)
(1 4.61604e-16 0)
(1 -2.3646e-15 0)
(1 -1.07818e-15 0)
(1 1.99645e-15 0)
(1 6.69245e-16 0)
(1 -1.69397e-15 0)
(1 -4.89442e-16 0)
(1 -1.75587e-15 0)
(1 -1.27337e-15 0)
(1 -4.52819e-15 0)
(1 1.37772e-16 0)
(1 3.74422e-15 0)
(1 -4.75078e-16 0)
(1 6.91739e-16 0)
(1 -5.14525e-15 0)
(1 -5.0219e-15 0)
(1 -3.05263e-15 0)
(1 -5.97127e-16 0)
(1 -6.4056e-16 0)
(1 2.45272e-15 0)
(1 -4.90423e-16 0)
(1 -6.11758e-16 0)
(1 -5.63192e-15 0)
(1 -2.85329e-15 0)
(1 -7.35106e-16 0)
(1 2.01433e-15 0)
(1 1.59918e-15 0)
(1 -1.22571e-16 0)
(1 7.95705e-16 0)
(1 2.56301e-15 0)
(1 2.10273e-15 0)
(1 3.04549e-15 0)
(1 1.14712e-15 0)
(1 5.61474e-15 0)
(1 4.54648e-15 0)
(1 1.45769e-15 0)
(1 9.55196e-16 0)
(1 3.77125e-15 0)
(1 3.97992e-15 0)
(1 4.8536e-15 0)
(1 3.04121e-15 0)
(1 5.43189e-15 0)
(1 8.21282e-16 0)
(1 4.46236e-15 0)
(1 1.48448e-15 0)
(1 2.96785e-15 0)
(1 -9.34256e-17 0)
(1 3.68045e-15 0)
(1 5.23524e-16 0)
(1 2.70517e-15 0)
(1 6.51088e-15 0)
(1 1.37033e-15 0)
(1 2.69056e-15 0)
(1 2.71469e-15 0)
(1 2.09339e-15 0)
(1 4.52868e-15 0)
(1 2.15567e-15 0)
(1 9.54184e-16 0)
(1 2.64854e-16 0)
(1 -5.66029e-16 0)
(1 -1.32223e-15 0)
(1 2.7897e-15 0)
(1 2.91928e-15 0)
(1 8.62596e-16 0)
(1 -3.28916e-15 0)
(1 -6.19303e-16 0)
(1 -2.79358e-15 0)
(1 2.81584e-15 0)
(1 -2.86958e-15 0)
(1 -2.60141e-15 0)
(1 -3.94145e-15 0)
(1 -1.67248e-15 0)
(1 -2.19302e-15 0)
(1 -2.18722e-15 0)
(1 -4.42703e-15 0)
(1 2.57054e-16 0)
(1 -1.45365e-15 0)
(1 2.8677e-16 0)
(1 7.6334e-16 0)
(1 1.21047e-15 0)
(1 2.50393e-15 0)
(1 2.59209e-15 0)
(1 8.07639e-15 0)
(1 6.80793e-15 0)
(1 5.92367e-15 0)
(1 -4.785e-17 0)
(1 -1.81452e-15 0)
(1 1.67308e-15 0)
(1 1.96041e-15 0)
(1 -8.67673e-16 0)
(1 -2.5048e-15 0)
(1 -3.84761e-15 0)
(1 1.2181e-15 0)
(1 2.29388e-15 0)
(1 2.38154e-15 0)
(1 3.04509e-15 0)
(1 -9.17634e-16 0)
(1 -5.09559e-15 0)
(1 -2.18434e-16 0)
(1 1.48218e-15 0)
(1 3.17727e-15 0)
(1 2.44969e-15 0)
(1 -1.23594e-15 0)
(1 -1.38683e-15 0)
(1 -1.12659e-15 0)
(1 1.48844e-15 0)
(1 -2.60974e-16 0)
(1 -1.32695e-15 0)
(1 -2.95273e-15 0)
(1 -1.21272e-15 0)
(1 -3.31316e-15 0)
(1 -5.3264e-17 0)
(1 1.34284e-15 0)
(1 1.7385e-15 0)
(1 -1.39172e-15 0)
(1 -1.41667e-15 0)
(1 -5.64605e-16 0)
(1 -8.03474e-16 0)
(1 -2.56933e-15 0)
(1 -4.08075e-15 0)
(1 -4.47364e-15 0)
(1 2.59145e-15 0)
(1 -2.96604e-15 0)
(1 -2.13066e-15 0)
(1 -2.84095e-15 0)
(1 8.51353e-16 0)
(1 -4.93029e-16 0)
(1 -2.64544e-15 0)
(1 -1.83499e-15 0)
(1 3.91921e-15 0)
(1 5.53533e-15 0)
(1 6.01485e-15 0)
(1 5.35513e-15 0)
(1 1.64673e-15 0)
(1 4.76919e-15 0)
(1 8.90308e-16 0)
(1 2.71673e-15 0)
(1 3.41264e-15 0)
(1 4.6258e-15 0)
(1 5.29823e-15 0)
(1 -8.65979e-16 0)
(1 -8.31687e-16 0)
(1 1.41939e-15 0)
(1 4.47676e-15 0)
(1 4.18081e-15 0)
(1 5.30699e-15 0)
(1 1.61378e-15 0)
(1 1.25103e-15 0)
(1 3.48607e-15 0)
(1 1.09402e-15 0)
(1 -5.65727e-17 0)
(1 1.58416e-15 0)
(1 2.43086e-15 0)
(1 3.3924e-15 0)
(1 1.84646e-15 0)
(1 5.04152e-15 0)
(1 3.76016e-15 0)
(1 1.35152e-16 0)
(1 1.82053e-15 0)
(1 2.86124e-15 0)
(1 4.50072e-16 0)
(1 1.83837e-15 0)
(1 -1.67321e-15 0)
(1 -3.26316e-15 0)
(1 -2.41438e-15 0)
(1 2.20131e-15 0)
(1 1.17882e-15 0)
(1 3.58127e-16 0)
(1 -2.23905e-15 0)
(1 -2.84822e-15 0)
(1 -1.5038e-15 0)
(1 -3.28577e-15 0)
(1 -3.24551e-15 0)
(1 -4.45241e-15 0)
(1 1.66612e-15 0)
(1 1.47647e-16 0)
(1 2.64582e-15 0)
(1 -3.05984e-16 0)
(1 2.16247e-15 0)
(1 1.83578e-16 0)
(1 2.81122e-15 0)
(1 6.28722e-15 0)
(1 5.24551e-15 0)
(1 3.40333e-15 0)
(1 4.25177e-15 0)
(1 2.62428e-15 0)
(1 -9.12599e-16 0)
(1 -1.34788e-16 0)
(1 1.45022e-15 0)
(1 1.77051e-15 0)
(1 5.42231e-16 0)
(1 1.22799e-15 0)
(1 9.42018e-16 0)
(1 -1.96028e-15 0)
(1 2.63193e-15 0)
(1 8.03459e-15 0)
(1 7.33188e-15 0)
(1 -6.32701e-16 0)
(1 -2.87021e-15 0)
(1 -4.35497e-15 0)
(1 -4.61063e-15 0)
(1 -4.05464e-15 0)
(1 -3.25519e-15 0)
(1 -1.3095e-15 0)
(1 -1.26524e-15 0)
(1 3.37378e-15 0)
(1 -1.78692e-16 0)
(1 2.18972e-15 0)
(1 -7.03011e-15 0)
(1 4.96124e-15 0)
(1 -3.40699e-16 0)
(1 -7.77245e-15 0)
(1 -2.96981e-15 0)
(1 -4.66343e-15 0)
(1 6.84117e-16 0)
(1 -6.09492e-16 0)
(1 2.25908e-15 0)
(1 -2.07016e-15 0)
(1 -1.01905e-15 0)
(1 -1.39591e-15 0)
(1 5.33739e-16 0)
(1 -5.59657e-16 0)
(1 -1.70882e-15 0)
(1 -2.41647e-15 0)
(1 -4.59356e-16 0)
(1 -3.56469e-15 0)
(1 8.69756e-16 0)
(1 -5.55169e-15 0)
(1 -7.34157e-16 0)
(1 1.32491e-15 0)
(1 5.11308e-15 0)
(1 8.14258e-15 0)
(1 6.93675e-15 0)
(1 2.0718e-15 0)
(1 3.58456e-15 0)
(1 -2.81903e-16 0)
(1 3.4261e-15 0)
(1 4.68157e-15 0)
(1 6.80183e-15 0)
(1 2.99376e-15 0)
(1 4.03374e-15 0)
(1 -2.24258e-15 0)
(1 4.49237e-15 0)
(1 -1.98436e-15 0)
(1 1.16645e-15 0)
(1 3.46726e-16 0)
(1 5.37755e-15 0)
(1 5.35303e-15 0)
(1 8.06093e-15 0)
(1 2.90121e-15 0)
(1 -5.98611e-16 0)
(1 1.29266e-15 0)
(1 1.32168e-15 0)
(1 -1.18805e-15 0)
(1 8.0258e-17 0)
(1 1.10732e-15 0)
(1 2.19883e-15 0)
(1 3.95775e-15 0)
(1 2.64252e-15 0)
(1 2.81172e-15 0)
(1 4.06987e-16 0)
(1 -1.22503e-15 0)
(1 -3.41337e-15 0)
(1 -6.24135e-16 0)
(1 2.75357e-15 0)
(1 -1.24791e-15 0)
(1 -2.05209e-15 0)
(1 -2.71089e-15 0)
(1 -8.78994e-16 0)
(1 -2.33897e-15 0)
(1 1.84101e-15 0)
(1 -3.72258e-15 0)
(1 -2.06574e-15 0)
(1 -2.59346e-15 0)
(1 2.61366e-16 0)
(1 3.2009e-16 0)
(1 -9.25237e-16 0)
(1 -5.84667e-16 0)
(1 -2.69018e-15 0)
(1 -9.86416e-16 0)
(1 3.92503e-15 0)
(1 3.34561e-15 0)
(1 2.63368e-15 0)
(1 9.42897e-16 0)
(1 2.21016e-15 0)
(1 1.68555e-16 0)
(1 2.57087e-15 0)
(1 -4.34564e-15 0)
(1 2.15482e-15 0)
(1 1.58307e-15 0)
(1 5.69114e-15 0)
(1 2.24262e-15 0)
(1 1.4926e-15 0)
(1 -3.85353e-15 0)
(1 -3.65065e-15 0)
(1 2.4e-15 0)
(1 4.5888e-15 0)
(1 3.18363e-15 0)
(1 3.05449e-15 0)
(1 -4.02976e-15 0)
(1 -6.46533e-15 0)
(1 -5.99222e-15 0)
(1 -5.30935e-15 0)
(1 -2.72898e-15 0)
(1 -2.72367e-15 0)
(1 1.10577e-15 0)
(1 1.61821e-15 0)
(1 6.25861e-15 0)
(1 -5.90735e-16 0)
(1 8.10758e-16 0)
(1 -5.53602e-16 0)
(1 -4.01155e-15 0)
(1 -5.20022e-15 0)
(1 -1.79824e-15 0)
(1 1.30561e-15 0)
(1 1.59497e-15 0)
(1 -2.93727e-15 0)
(1 -2.54659e-15 0)
(1 -1.65989e-15 0)
(1 5.52901e-16 0)
(1 -1.66653e-15 0)
(1 -6.21921e-16 0)
(1 -3.78652e-15 0)
(1 7.11254e-17 0)
(1 -2.5436e-15 0)
(1 -7.9967e-16 0)
(1 -2.15393e-15 0)
(1 1.63239e-15 0)
(1 5.1214e-15 0)
(1 6.26228e-16 0)
(1 4.57087e-15 0)
(1 3.04327e-15 0)
(1 6.77018e-15 0)
(1 3.40751e-15 0)
(1 1.56279e-15 0)
(1 -2.82622e-17 0)
(1 -9.96932e-16 0)
(1 1.80622e-15 0)
(1 4.61141e-15 0)
(1 7.16426e-16 0)
(1 6.10223e-15 0)
(1 6.63196e-15 0)
(1 5.07933e-15 0)
(1 5.3225e-16 0)
(1 -3.7554e-16 0)
(1 -1.00509e-16 0)
(1 1.84617e-15 0)
(1 -1.32091e-17 0)
(1 1.86653e-15 0)
(1 4.44019e-15 0)
(1 5.99106e-15 0)
(1 1.32937e-15 0)
(1 4.50863e-15 0)
(1 1.04862e-17 0)
(1 3.02605e-15 0)
(1 2.14706e-15 0)
(1 2.47714e-15 0)
(1 4.89283e-15 0)
(1 3.49043e-15 0)
(1 2.24068e-15 0)
(1 6.27566e-16 0)
(1 -5.11815e-16 0)
(1 3.10959e-15 0)
(1 3.82534e-15 0)
(1 1.3109e-15 0)
(1 -2.57331e-15 0)
(1 -1.84959e-15 0)
(1 -3.04077e-15 0)
(1 -6.17989e-16 0)
(1 -1.43484e-15 0)
(1 -1.82243e-15 0)
(1 -4.05855e-15 0)
(1 -3.30852e-17 0)
(1 2.03774e-15 0)
(1 -2.48458e-16 0)
(1 2.5211e-16 0)
(1 -1.27449e-15 0)
(1 -8.93027e-16 0)
(1 -8.30625e-17 0)
(1 -5.51879e-16 0)
(1 2.41879e-15 0)
(1 8.37473e-16 0)
(1 5.60281e-15 0)
(1 1.79035e-15 0)
(1 -1.27969e-15 0)
(1 1.41994e-16 0)
(1 2.66679e-15 0)
(1 2.90483e-15 0)
(1 3.59321e-15 0)
(1 1.14098e-15 0)
(1 -1.03537e-16 0)
(1 -1.89107e-15 0)
(1 -3.91541e-15 0)
(1 1.87144e-15 0)
(1 1.53176e-15 0)
(1 1.91949e-15 0)
(1 -1.22901e-15 0)
(1 1.36457e-15 0)
(1 -4.48328e-15 0)
(1 -5.16388e-15 0)
(1 -3.76554e-15 0)
(1 -8.9657e-15 0)
(1 9.98041e-17 0)
(1 -2.55791e-16 0)
(1 7.32105e-16 0)
(1 1.25516e-16 0)
(1 -1.47282e-15 0)
(1 -2.88058e-15 0)
(1 1.02248e-14 0)
(1 4.4333e-15 0)
(1 1.83355e-15 0)
(1 -1.41992e-15 0)
(1 -1.63726e-15 0)
(1 -2.92603e-15 0)
(1 -3.41417e-15 0)
(1 -2.33005e-15 0)
(1 -1.67797e-15 0)
(1 -2.44181e-15 0)
(1 -5.27255e-15 0)
(1 3.41863e-16 0)
(1 -1.97455e-15 0)
(1 -1.75021e-15 0)
(1 2.33374e-16 0)
(1 -1.70366e-16 0)
(1 -1.81687e-15 0)
(1 8.33442e-16 0)
(1 2.66199e-16 0)
(1 6.13579e-15 0)
(1 4.40914e-15 0)
(1 2.72127e-15 0)
(1 3.48541e-15 0)
(1 -1.35853e-15 0)
(1 3.77325e-15 0)
(1 -2.16949e-16 0)
(1 -2.76743e-15 0)
(1 1.03132e-15 0)
(1 2.0998e-15 0)
(1 1.44196e-15 0)
(1 3.06415e-15 0)
(1 2.83273e-15 0)
(1 4.21449e-15 0)
(1 7.12149e-15 0)
(1 5.90453e-15 0)
(1 6.70168e-15 0)
(1 4.18239e-15 0)
(1 3.6009e-15 0)
(1 -7.82943e-16 0)
(1 1.17789e-15 0)
(1 1.23039e-15 0)
(1 5.95773e-15 0)
(1 5.22945e-15 0)
(1 5.36832e-15 0)
(1 3.92618e-15 0)
(1 4.22779e-15 0)
(1 3.80756e-15 0)
(1 2.9169e-15 0)
(1 6.6894e-15 0)
(1 3.88495e-15 0)
(1 3.33821e-15 0)
(1 2.59073e-16 0)
(1 3.32739e-15 0)
(1 1.57294e-15 0)
(1 3.09671e-15 0)
(1 2.48534e-15 0)
(1 -4.11469e-15 0)
(1 -6.11524e-16 0)
(1 -2.49904e-16 0)
(1 -3.1144e-15 0)
(1 -1.87885e-15 0)
(1 -3.28569e-15 0)
(1 -7.57931e-15 0)
(1 -5.18556e-15 0)
(1 -2.91197e-15 0)
(1 -1.36244e-15 0)
(1 -2.24976e-15 0)
(1 2.01342e-16 0)
(1 -5.84595e-16 0)
(1 2.80835e-15 0)
(1 2.75078e-15 0)
(1 5.90798e-15 0)
(1 7.24925e-16 0)
(1 -9.8166e-16 0)
(1 3.58807e-15 0)
(1 2.88546e-15 0)
(1 2.31229e-15 0)
(1 -6.06017e-16 0)
(1 -1.31534e-16 0)
(1 1.3453e-15 0)
(1 1.06097e-15 0)
(1 1.01684e-15 0)
(1 3.30043e-15 0)
(1 4.21015e-15 0)
(1 9.31641e-16 0)
(1 1.17318e-15 0)
(1 1.95591e-15 0)
(1 -4.00621e-15 0)
(1 -4.87167e-15 0)
(1 -1.35094e-15 0)
(1 -4.30172e-15 0)
(1 4.47427e-16 0)
(1 -7.41701e-16 0)
(1 -6.17172e-15 0)
(1 -1.98924e-15 0)
(1 -1.72355e-15 0)
(1 1.94649e-15 0)
(1 -9.56974e-17 0)
(1 2.82573e-15 0)
(1 -5.29659e-15 0)
(1 1.82955e-15 0)
(1 -2.88673e-15 0)
(1 1.48684e-15 0)
(1 3.33318e-16 0)
(1 4.75579e-15 0)
(1 -3.58634e-15 0)
(1 -4.13681e-15 0)
(1 -2.22534e-15 0)
(1 -4.50077e-15 0)
(1 8.76735e-16 0)
(1 -2.76755e-15 0)
(1 1.04196e-15 0)
(1 1.66242e-16 0)
(1 -2.87325e-15 0)
(1 4.58296e-16 0)
(1 -9.78094e-16 0)
(1 1.03286e-15 0)
(1 -8.15596e-16 0)
(1 4.63736e-15 0)
(1 3.8169e-15 0)
(1 -3.21436e-16 0)
(1 8.85352e-16 0)
(1 -5.11088e-15 0)
(1 4.4119e-15 0)
(1 1.00059e-15 0)
(1 2.78316e-15 0)
(1 -3.84704e-15 0)
(1 1.80165e-15 0)
(1 3.1888e-15 0)
(1 5.92938e-15 0)
(1 9.87229e-16 0)
(1 4.59505e-15 0)
(1 6.62017e-15 0)
(1 6.34554e-15 0)
(1 3.85818e-15 0)
(1 4.63469e-15 0)
(1 3.38437e-16 0)
(1 1.26392e-15 0)
(1 3.68233e-16 0)
(1 1.07921e-15 0)
(1 -6.78581e-16 0)
(1 2.61994e-15 0)
(1 3.458e-15 0)
(1 5.37422e-15 0)
(1 3.39652e-15 0)
(1 5.51565e-15 0)
(1 2.70936e-15 0)
(1 2.66869e-15 0)
(1 2.47244e-15 0)
(1 1.79393e-15 0)
(1 4.63768e-15 0)
(1 1.04947e-15 0)
(1 -6.18835e-16 0)
(1 -1.46904e-15 0)
(1 1.07711e-16 0)
(1 9.07744e-16 0)
(1 3.7844e-16 0)
(1 -2.08187e-16 0)
(1 -2.97624e-15 0)
(1 1.6438e-15 0)
(1 -1.05202e-15 0)
(1 -2.60677e-15 0)
(1 -5.88869e-15 0)