/*--------------------------------*- C++ -*----------------------------------*\
| =========                 |                                                 |
| \\      /  F ield         | OpenFOAM: The Open Source CFD Toolbox           |
|  \\    /   O peration     | Version:  v2012                                 |
|   \\  /    A nd           | Website:  www.openfoam.com                      |
|    \\/     M anipulation  |                                                 |
\*---------------------------------------------------------------------------*/
FoamFile
{
    version     2.0;
    format      ascii;
    class       volVectorField;
    location    "0";
    object      U;
}
// * * * * * * * * * * * * * * * * * * * * * * * * * * * * * * * * * * * * * //

dimensions      [0 1 -1 0 0 0 0];


internalField   nonuniform List<vector> 
4000
(
(0.00442981 0.0098028 0)
(0.00889257 0.0537715 0)
(-0.0219454 0.0288037 0)
(0.0520811 -0.0554382 0)
(0.0421565 0.00120272 0)
(-0.186828 -0.0373084 0)
(0.152848 -0.089493 0)
(0.111637 0.00408357 0)
(-0.0217424 0.0992929 0)
(0.0433139 0.00438833 0)
(-0.187585 0.0792008 0)
(-0.138246 -0.026154 0)
(-0.0119293 -0.0158127 0)
(-0.026106 0.00191619 0)
(0.233513 -0.0196646 0)
(-0.124726 -0.0176358 0)
(-0.00275602 -0.124652 0)
(0.0769842 0.0324056 0)
(0.0269316 0.0364365 0)
(-0.0752533 -0.010961 0)
(0.0794489 0.0392975 0)
(-0.086101 -0.0124272 0)
(-0.0962679 -0.074523 0)
(-0.0411712 0.0333061 0)
(0.0303062 -0.0353471 0)
(0.15394 -0.0217385 0)
(0.0157059 -0.0959199 0)
(0.0379662 0.00996841 0)
(0.0552292 0.0754396 0)
(0.179689 0.0868288 0)
(0.0639146 -0.0131945 0)
(0.0519667 -0.00253169 0)
(-0.148081 0.0678498 0)
(-0.119859 0.00787223 0)
(-0.0167245 -0.066224 0)
(-0.0439688 0.102142 0)
(-0.0606656 0.00695616 0)
(0.00865933 -0.0888025 0)
(0.0457689 0.0839078 0)
(-0.255871 0.0327468 0)
(-0.0539342 -0.0471812 0)
(-0.00196804 -0.0385174 0)
(-0.0617775 0.0844951 0)
(-0.0498085 -0.0265422 0)
(0.0208348 -0.0480428 0)
(-0.0110324 0.00986101 0)
(-0.0624675 0.0137142 0)
(-0.0710071 0.0582693 0)
(-0.0904706 -0.0821262 0)
(0.11317 -0.048025 0)
(-0.122607 0.00846979 0)
(-0.0717683 -0.00159081 0)
(0.0681855 0.0275597 0)
(0.041293 -0.0199447 0)
(-0.010209 -0.0231265 0)
(0.00127336 -0.034057 0)
(0.0109668 0.00539489 0)
(-0.0386554 0.00479303 0)
(0.0308482 -0.0140615 0)
(-0.084527 0.0896689 0)
(-0.023158 0.0284954 0)
(-0.0177401 -0.0796458 0)
(0.0229864 -0.0756769 0)
(0.049902 0.020302 0)
(0.0152247 0.0601605 0)
(-0.0865583 -0.0159157 0)
(0.120318 -0.0838126 0)
(-0.0263641 0.0666839 0)
(0.0254163 0.0713144 0)
(0.0488082 -0.0297247 0)
(0.117432 -0.0462558 0)
(0.079484 -0.0124029 0)
(-0.119739 0.0251855 0)
(0.029955 0.0101285 0)
(0.00197574 0.0286773 0)
(-0.0108323 -0.029569 0)
(0.161945 -0.0698093 0)
(-0.201992 0.0432279 0)
(-0.0387076 0.0429792 0)
(0.0660602 -0.0948506 0)
(0.0564564 -0.0850026 0)
(0.173633 0.12558 0)
(0.0890382 0.0422532 0)
(0.00423197 -0.0514717 0)
(0.187699 -0.00743493 0)
(0.050889 0.10911 0)
(-0.197922 0.111015 0)
(-0.0765166 -0.130419 0)
(-0.124063 -0.112728 0)
(-0.030455 0.0941216 0)
(-0.0907173 -0.031247 0)
(0.0171533 -0.0806962 0)
(-0.0629949 0.0506734 0)
(0.0428295 0.0722317 0)
(0.0494563 -0.0242016 0)
(0.158527 -0.0574657 0)
(0.00105766 -0.00266812 0)
(-0.0798141 0.0523296 0)
(0.0160295 -0.0301123 0)
(0.0121516 -0.00701373 0)
(-0.0404091 0.0260801 0)
(-0.00983897 0.0674899 0)
(0.104716 0.00661352 0)
(0.000862051 -0.0941177 0)
(0.0357516 0.0153195 0)
(0.0457128 0.086714 0)
(-0.073696 -0.175628 0)
(-0.019907 -0.00226241 0)
(-0.0515737 0.220084 0)
(0.121239 -0.0156788 0)
(0.0391975 0.049157 0)
(0.01874 -0.090785 0)
(0.0149858 0.00282842 0)
(-0.0251459 -0.0161654 0)
(-0.00197366 -0.00789002 0)
(-0.0145426 0.101167 0)
(0.00839984 -0.0916768 0)
(-0.0150208 -0.0789421 0)
(0.00936815 0.0328101 0)
(0.0839595 0.0477661 0)
(0.00359495 -0.0491438 0)
(0.0570537 0.0540846 0)
(-0.0207027 0.107674 0)
(-0.061156 -0.100175 0)
(0.0567232 -0.16873 0)
(0.0887382 0.103184 0)
(0.0283645 -0.034222 0)
(-0.110268 -0.120891 0)
(0.0711353 0.0570353 0)
(0.0743656 0.0934285 0)
(0.0881373 -0.0105083 0)
(-0.186598 0.0459257 0)
(0.137535 0.0656974 0)
(0.125858 -0.0556338 0)
(0.0033843 -0.100666 0)
(-0.0152423 0.00141412 0)
(0.181852 0.104971 0)
(-0.0242581 -0.0321954 0)
(-0.0497829 0.0534875 0)
(-0.0576787 0.15815 0)
(0.0427609 0.0944866 0)
(0.0213453 -0.0200946 0)
(0.0249655 -0.0346478 0)
(0.0199757 -0.0899712 0)
(-0.075411 -0.056844 0)
(0.0563482 0.0313595 0)
(0.031875 0.030315 0)
(0.0299786 0.0556351 0)
(0.0565905 -0.16644 0)
(0.000808077 0.0679663 0)
(0.029003 0.0303388 0)
(-0.0853575 -0.104753 0)
(0.035955 0.0105422 0)
(0.00527752 0.0269904 0)
(-0.0494723 0.0548851 0)
(-0.106248 -0.0204611 0)
(0.0173816 -0.0372026 0)
(-0.0242263 0.057356 0)
(-0.0725262 -0.00741673 0)
(-0.000325038 -0.0264668 0)
(0.0585587 -0.0162277 0)
(-0.0305293 -0.0725954 0)
(-0.0616314 0.0527926 0)
(-0.126258 -0.0505523 0)
(0.0856605 0.00288254 0)
(0.151643 0.0717923 0)
(-0.0815751 -0.0242724 0)
(-0.0115745 0.0308756 0)
(-0.00578755 -0.0139172 0)
(0.0356692 -0.0874844 0)
(0.014531 0.0645868 0)
(-0.0017303 0.109646 0)
(-0.0534668 0.118071 0)
(-0.0663079 -0.05598 0)
(0.0919605 -0.0897344 0)
(-0.0170124 0.0299187 0)
(-0.00610502 0.00758674 0)
(-0.0280775 0.0329582 0)
(0.0224486 -0.0677951 0)
(-0.0205115 -0.122718 0)
(-0.0253985 -0.118213 0)
(-0.0269963 0.170031 0)
(-0.102155 0.185908 0)
(0.0299282 -0.0539859 0)
(-0.0759442 -0.114295 0)
(-0.0020361 0.052828 0)
(0.0354676 0.0871253 0)
(0.00338983 -0.0425085 0)
(0.012212 0.00893407 0)
(-0.0345584 0.00706726 0)
(0.0366661 -0.12393 0)
(-0.0028209 -0.0103848 0)
(-0.034424 0.0105998 0)
(-0.0588917 -0.0831792 0)
(0.025572 0.0206217 0)
(0.0164565 0.00391612 0)
(0.0331121 0.0416942 0)
(-0.00167755 0.0338539 0)
(-0.0348981 -0.0266118 0)
(0.0331745 -0.0145316 0)
(0.00108101 -0.00109354 0)
(0.00632536 0.0635046 0)
(-0.00116113 0.0230305 0)
(0.00118552 -0.0763175 0)
(-0.00127316 0.0306557 0)
(0.00763204 0.035139 0)
(0.00585428 -0.104474 0)
(-0.0088778 0.0455765 0)
(-0.0704549 0.0576276 0)
(0.0392033 -0.0908101 0)
(-0.00415988 -0.0067745 0)
(0.00867711 0.0203338 0)
(0.00591646 0.0119921 0)
(-0.147281 -0.0499361 0)
(-0.00166262 0.0509606 0)
(0.0254935 -0.00373631 0)
(0.000501681 -0.0309209 0)
(0.0449328 0.0341733 0)
(0.0318671 -0.0887849 0)
(-0.0535185 -0.0319926 0)
(0.00762476 0.0687831 0)
(-0.0831837 0.0780633 0)
(0.0517675 -0.00440377 0)
(-0.0222499 -0.118524 0)
(-0.118247 -0.0171915 0)
(-0.00524482 -0.00329492 0)
(0.000241621 -0.0345888 0)
(0.013489 -0.0548664 0)
(-0.0557486 0.0462512 0)
(0.141255 0.107794 0)
(-0.0933889 0.0207863 0)
(-0.0474137 -0.0128014 0)
(0.109709 -0.044601 0)
(-0.120813 0.0509626 0)
(-0.0494878 0.0230357 0)
(0.0356261 -0.13242 0)
(-0.00478683 -0.0315563 0)
(0.013638 0.179023 0)
(-0.118023 0.067458 0)
(-0.189272 -0.0728445 0)
(0.171779 -0.0279241 0)
(0.202978 0.0554939 0)
(-0.0483842 0.0553412 0)
(-0.0331217 0.0659863 0)
(-0.0329592 -0.120925 0)
(0.0283201 -0.0693097 0)
(0.139917 0.0430114 0)
(0.000627547 0.134316 0)
(-0.11955 -0.093055 0)
(-0.00873087 -0.0839901 0)
(0.0561745 0.037336 0)
(-0.0252368 -0.0165917 0)
(0.0518425 -0.0205338 0)
(0.0114233 0.0536133 0)
(0.020679 0.110186 0)
(-0.058246 -0.0909555 0)
(0.0267275 -0.0430789 0)
(0.0990607 0.0576095 0)
(-0.0480295 0.0224968 0)
(0.0250728 -0.0353997 0)
(-0.0166198 0.0485472 0)
(-0.0817195 0.0225076 0)
(-0.048872 -0.0575913 0)
(0.0611121 -0.123097 0)
(-0.0229405 -0.0634839 0)
(0.165323 -0.0211703 0)
(0.0381216 0.128957 0)
(0.128448 0.104441 0)
(0.0150703 -0.0115472 0)
(-0.0747037 0.0155465 0)
(-0.0540846 -0.0238979 0)
(-0.0784011 0.0153196 0)
(0.0651992 0.0805047 0)
(-0.00772324 -0.0473951 0)
(-0.139701 -0.0631612 0)
(0.140098 -0.0160646 0)
(0.103394 -0.0176057 0)
(-0.0634356 0.163115 0)
(-0.0187028 0.0568497 0)
(0.0242608 -0.261424 0)
(0.00746019 -0.125421 0)
(-0.00511794 0.226144 0)
(0.00415107 0.109487 0)
(0.119782 -0.154327 0)
(0.056819 -0.0264139 0)
(-0.134664 0.150324 0)
(-0.00872896 -0.0298374 0)
(0.00339202 -0.0604542 0)
(-0.022172 -0.0233094 0)
(0.225136 -0.00197304 0)
(-0.0247268 -0.0600906 0)
(0.0847444 -0.0880395 0)
(0.00336458 0.117037 0)
(0.00857372 0.0405203 0)
(-0.0469337 -0.166024 0)
(-0.0309252 0.00111274 0)
(-0.0249482 0.140074 0)
(0.0268799 -0.0444451 0)
(0.0353166 -0.0105297 0)
(-0.0433733 0.0155314 0)
(0.000421723 -0.0364005 0)
(0.000787703 0.118819 0)
(0.000448268 -0.0142446 0)
(0.00100351 -0.00296292 0)
(0.0821066 0.0243667 0)
(0.0557482 -0.113706 0)
(-0.135585 -0.081136 0)
(0.014243 0.156698 0)
(0.0950591 0.0174545 0)
(-0.0711356 -0.0748372 0)
(0.0028403 0.0305894 0)
(0.0162782 0.0498875 0)
(-0.0879426 -0.00718378 0)
(-0.00509998 -0.0169432 0)
(-0.00658163 -0.100176 0)
(0.098245 -0.0551409 0)
(-0.0245242 0.0434034 0)
(-0.0559638 -0.0544369 0)
(0.0840371 0.0367845 0)
(-0.0392819 0.0154845 0)
(0.0635936 -0.0990077 0)
(-0.0528126 0.149554 0)
(0.149339 0.0440967 0)
(-0.0746899 -0.101177 0)
(-0.145273 -0.153159 0)
(0.148521 0.0655126 0)
(0.00939792 0.0226237 0)
(-0.0173943 -0.136109 0)
(0.0480476 -0.0697108 0)
(0.167898 0.12554 0)
(-0.00525056 0.152933 0)
(0.0202051 0.00155201 0)
(-0.106873 -0.0981938 0)
(-0.135922 0.103174 0)
(0.00285345 0.0303137 0)
(0.00480666 -0.0760179 0)
(0.0701636 -0.0445245 0)
(0.150053 0.0112499 0)
(-0.0164516 0.23665 0)
(0.0479028 0.00364263 0)
(0.108317 -0.207903 0)
(-0.00863824 0.0104445 0)
(-0.0601496 0.105084 0)
(0.0613003 -0.074713 0)
(0.0575586 -0.0890259 0)
(0.0404155 0.0802175 0)
(-0.0214367 0.0853246 0)
(-0.0353043 0.0568013 0)
(-0.0259459 -0.0593899 0)
(0.00529381 -0.130832 0)
(0.0540178 0.0277925 0)
(0.0566465 0.0062896 0)
(-0.00608426 -0.0179692 0)
(0.00839537 0.0275023 0)
(0.00147663 0.135887 0)
(0.00251951 -0.0196945 0)
(-0.13315 -0.148116 0)
(0.0193304 -0.0456314 0)
(-0.00510771 0.122294 0)
(0.0641461 0.0130643 0)
(-0.00786256 -0.00758803 0)
(-0.013198 -0.0486907 0)
(0.0213363 -0.131007 0)
(-0.0131544 -0.0256251 0)
(0.0415023 0.0287598 0)
(0.0314317 -0.0727179 0)
(-0.0963179 0.04319 0)
(0.066444 0.116502 0)
(0.0332803 0.0161789 0)
(-0.00971882 0.0730955 0)
(0.048416 -0.0631143 0)
(0.132513 -0.142945 0)
(-0.00885931 0.110874 0)
(-0.0873634 0.147942 0)
(0.0172786 -0.113501 0)
(0.0389501 -0.106327 0)
(-0.0307223 0.0780841 0)
(-0.0810352 0.0973476 0)
(0.152768 -0.0439114 0)
(0.10221 -0.27913 0)
(-0.00407539 0.0252553 0)
(-0.103225 0.235273 0)
(-0.0665096 0.0224609 0)
(0.0285523 -0.0852668 0)
(-0.00331672 -0.049391 0)
(-0.0195561 0.0517114 0)
(0.00266007 0.0282581 0)
(-0.00824317 -0.0460867 0)
(0.0038488 -0.0985359 0)
(0.0639759 0.0761111 0)
(-0.0860401 -0.0145078 0)
(-0.0427023 -0.0926067 0)
(0.0406488 0.0890419 0)
(0.185878 0.0485293 0)
(-0.0299527 -0.106029 0)
(-0.0656224 0.0702619 0)
(-0.0670644 0.0257906 0)
(-0.00156503 -0.13611 0)
(0.029091 -0.0374414 0)
(0.0862261 0.0646563 0)
(0.00017425 -0.0146129 0)
(0.00201168 0.051613 0)
(0.0393494 0.0189289 0)
(0.0518237 -0.0749998 0)
(0.122678 -0.0845947 0)
(-0.0833852 0.114327 0)
(0.0896495 -0.022347 0)
(-0.0059715 0.0246069 0)
(0.019443 -0.019089 0)
(-0.0589731 0.00829015 0)
(-0.0467948 0.0518444 0)
(0.0298334 0.0507041 0)
(0.0282113 0.0604865 0)
(0.00700659 -0.0864928 0)
(0.02491 -0.0181873 0)
(-0.0187272 0.00331329 0)
(0.0146695 0.118525 0)
(-0.0304438 -0.0757471 0)
(-0.0807979 0.00170821 0)
(0.147422 0.0276283 0)
(-0.116918 -0.092266 0)
(-0.082558 -0.0389958 0)
(0.053896 0.0890821 0)
(-0.0427172 0.114536 0)
(-0.112325 -0.10284 0)
(-0.0330823 -0.107186 0)
(0.15746 -0.012733 0)
(-0.0160272 -0.0190937 0)
(-0.186285 -0.0441384 0)
(-0.0399664 0.026383 0)
(0.0645821 0.0456958 0)
(0.138179 0.122599 0)
(-0.13951 0.0100678 0)
(-0.188281 -0.00463532 0)
(0.0771547 -0.0781659 0)
(0.0201517 -0.0359145 0)
(0.142031 0.0296368 0)
(0.031455 -0.00560865 0)
(-0.106197 0.0939095 0)
(0.108934 0.0915169 0)
(0.0604074 0.0594609 0)
(0.0029669 -0.0190016 0)
(0.0376247 -0.109584 0)
(0.105255 -0.0360175 0)
(-0.0493848 -0.04135 0)
(-0.0967861 -0.0452851 0)
(-0.0134216 0.173648 0)
(-0.0138901 0.148261 0)
(-0.0432247 -0.131904 0)
(0.119572 -0.147968 0)
(0.115921 0.0157604 0)
(-0.0132667 0.0293327 0)
(-0.199299 -0.0559251 0)
(0.0108836 -0.0256443 0)
(0.0171837 0.0436685 0)
(0.0576639 0.0388096 0)
(0.103824 -0.0476403 0)
(0.0049872 0.00567255 0)
(0.0618593 0.0347433 0)
(0.0910835 -0.00636094 0)
(-0.0715815 0.0309595 0)
(0.0336286 -0.0318489 0)
(-0.0717129 -0.113556 0)
(0.0939249 -0.0918796 0)
(-0.00393333 0.0135326 0)
(-0.0946416 0.0535885 0)
(-0.0639372 0.0992267 0)
(0.0561054 -0.0434853 0)
(-0.00408669 -0.0867012 0)
(0.0328476 0.0880375 0)
(0.0629863 -0.0272991 0)
(-0.015598 -0.0574641 0)
(-0.0382401 0.129291 0)
(0.00185165 0.023844 0)
(0.129794 -0.118622 0)
(0.0470315 8.60172e-06 0)
(-0.0487183 0.132484 0)
(-0.0370328 0.0717729 0)
(-0.061754 -0.157692 0)
(-0.0260536 -0.200572 0)
(-0.0293068 0.0843788 0)
(0.0459467 0.185748 0)
(0.0131816 -0.0121321 0)
(0.0170428 -0.122069 0)
(0.163715 0.0577584 0)
(-0.0263374 0.0845872 0)
(-0.185588 0.0181419 0)
(0.0387613 -0.0452177 0)
(-0.00900802 -0.045229 0)
(-0.063693 0.0139135 0)
(0.0685451 -0.0188747 0)
(0.0539114 -0.0529554 0)
(0.0225255 -0.0663254 0)
(0.0511177 -0.0629033 0)
(-0.0253039 0.103886 0)
(-0.0383074 0.087872 0)
(0.0109486 -0.109572 0)
(-0.00841993 -0.0844496 0)
(-0.0954356 0.0442983 0)
(-0.0222719 0.0768666 0)
(-0.00212412 -0.0062991 0)
(0.000182331 0.0809912 0)
(-0.0364288 -0.0368157 0)
(0.0705838 -0.143635 0)
(-0.000514641 0.0717739 0)
(-0.00704056 -0.0866986 0)
(0.0292165 0.0853017 0)
(0.0539378 -0.0104794 0)
(0.00179014 -0.089809 0)
(-0.0974753 0.0726125 0)
(-0.0375916 0.0287548 0)
(0.00782747 -0.116898 0)
(0.0450368 0.150844 0)
(0.014678 0.0299193 0)
(0.00584182 0.0347143 0)
(-0.0123688 -0.0858415 0)
(-0.0489235 -0.0439199 0)
(0.0610992 0.0769028 0)
(0.0535335 -0.0399151 0)
(0.0182031 -0.0396787 0)
(0.0211018 0.0243368 0)
(-0.0130154 -0.11468 0)
(-0.0318594 -0.0646302 0)
(-0.0798217 0.127163 0)
(0.025309 0.10142 0)
(-0.017421 -0.223189 0)
(-0.0681554 -0.087734 0)
(-0.0324825 0.00256411 0)
(-0.00993443 0.105232 0)
(0.0493288 -0.00209753 0)
(-0.0429091 -0.0170076 0)
(-0.010768 0.253288 0)
(0.0293552 0.131242 0)
(0.123363 -0.0329736 0)
(-0.0344749 -0.075275 0)
(-0.0744527 -0.173332 0)
(0.152541 -0.165021 0)
(0.125822 0.228605 0)
(0.00746021 0.229227 0)
(-0.104548 -0.142439 0)
(0.047882 -0.0857245 0)
(0.0483519 -0.0247947 0)
(0.00829589 -0.104278 0)
(0.00296673 0.0243525 0)
(0.00593312 0.14207 0)
(-0.0832603 -0.0918706 0)
(-0.007081 0.0522096 0)
(0.050069 0.141829 0)
(0.0267954 -0.126371 0)
(0.0660936 -0.299013 0)
(-0.071328 0.0769954 0)
(0.0341347 0.238613 0)
(-0.00931055 -0.149475 0)
(0.0182445 -0.0832208 0)
(-0.020426 0.164289 0)
(-0.0182456 -0.015827 0)
(0.0308275 -0.055773 0)
(-0.00450372 -0.0599259 0)
(0.110148 0.0137665 0)
(-0.0562719 0.179566 0)
(-0.0193206 0.00695186 0)
(0.0817991 -0.160108 0)
(0.0154481 -0.0958093 0)
(-0.00389086 0.0611821 0)
(0.0315159 0.0149984 0)
(-0.139297 -0.0203219 0)
(0.0377232 0.0658167 0)
(-0.151502 -0.0744992 0)
(0.0569439 -0.0165399 0)
(0.0780582 0.146343 0)
(0.0164676 -0.0189152 0)
(0.0473666 -0.0649221 0)
(-0.0796498 0.0552363 0)
(0.0833026 -0.0746568 0)
(0.146741 -0.108473 0)
(0.0390207 0.0347346 0)
(0.0248076 0.159562 0)
(-0.000817063 0.224384 0)
(-0.00828104 -0.146097 0)
(-0.114629 -0.315882 0)
(0.0129968 -0.00928446 0)
(0.166854 0.188805 0)
(0.0591457 0.118104 0)
(-0.147682 -0.157201 0)
(-0.0936117 -0.0255518 0)
(0.219903 0.116303 0)
(0.0534133 0.0364893 0)
(-0.0043939 -0.0780979 0)
(-0.025589 -0.0767408 0)
(-0.0411244 0.0534242 0)
(0.0354825 -0.0595593 0)
(-0.0372341 -0.17306 0)
(0.00267291 0.0984288 0)
(-0.000515765 0.130948 0)
(-0.0193822 -0.0238174 0)
(0.00476944 0.0377285 0)
(-0.0917021 -0.0385367 0)
(-0.0265043 -0.0390151 0)
(-0.109032 0.00694085 0)
(-0.0135557 0.0170842 0)
(-0.00153056 0.00898408 0)
(0.00723415 -0.0117132 0)
(0.00128712 0.0135548 0)
(-0.0249678 -0.161075 0)
(-0.0283921 0.0257873 0)
(-0.00431959 -0.090703 0)
(0.0261921 0.193259 0)
(-0.0381735 0.0291763 0)
(0.00724537 -0.0320485 0)
(-0.026042 0.0627649 0)
(0.0354609 -0.0242709 0)
(0.00694854 -0.0847249 0)
(-0.0291969 0.116983 0)
(-0.00676628 0.070263 0)
(-0.0346772 -0.0487474 0)
(-0.0237802 -0.0250278 0)
(-0.0144244 -0.0575386 0)
(0.0766683 -0.0829116 0)
(0.0618862 0.0596655 0)
(0.00454404 0.0439068 0)
(-0.00195447 -0.182236 0)
(-0.111514 -0.0422483 0)
(0.0233543 0.194239 0)
(-0.0185127 0.0540016 0)
(-0.040911 -0.165577 0)
(-0.0377367 -0.0152351 0)
(0.0202895 0.0408935 0)
(0.0284911 -0.209928 0)
(0.114065 -0.0562492 0)
(0.0318971 0.0493677 0)
(-0.134621 0.115392 0)
(-0.104987 0.147797 0)
(0.0380274 0.0966492 0)
(0.0418246 0.0396131 0)
(-0.00523935 -0.1279 0)
(0.016133 -0.172018 0)
(0.0767266 0.0514784 0)
(-0.0434709 0.119776 0)
(0.0984572 0.0983378 0)
(0.141376 -0.0534175 0)
(-0.0965862 -0.071058 0)
(0.101338 0.0939438 0)
(-0.088167 0.0592317 0)
(-0.132569 -0.0754938 0)
(-0.0529131 -0.00418475 0)
(0.232463 -0.00481223 0)
(-0.0222427 0.0579038 0)
(-0.0408045 0.0230114 0)
(0.0245877 -0.230827 0)
(-0.0699038 -0.047943 0)
(-0.0972333 0.0812454 0)
(0.16109 0.00191652 0)
(0.0112822 -0.0809334 0)
(-0.203283 0.0552037 0)
(-0.103589 0.161732 0)
(0.160676 0.0765767 0)
(-0.151023 -0.107059 0)
(-0.0394163 -0.102331 0)
(-0.141915 0.0885668 0)
(0.0417468 0.150048 0)
(0.0124084 -0.0782566 0)
(-0.0579542 -0.225438 0)
(0.0143256 -0.104484 0)
(-0.0278987 0.0848422 0)
(0.00557612 -0.0136343 0)
(0.150186 0.0878989 0)
(0.0205563 0.00761913 0)
(0.018176 -0.0222643 0)
(0.0158008 -0.0355677 0)
(0.0609117 0.0228608 0)
(0.00922016 0.148992 0)
(0.0378828 0.0472722 0)
(0.0357621 -0.0525467 0)
(0.0483711 -0.0245872 0)
(-0.0526389 -0.121174 0)
(0.00956989 0.0768267 0)
(-0.0364435 0.171156 0)
(0.0256769 0.0562299 0)
(0.00758474 -0.11188 0)
(-0.194905 -0.197323 0)
(0.121607 -0.0899596 0)
(-0.0595532 0.139907 0)
(0.0318532 0.204077 0)
(0.0598741 -0.040576 0)
(-0.102126 -0.179138 0)
(0.0920113 0.0262636 0)
(-0.0674282 0.11065 0)
(-0.00243089 0.0274502 0)
(-0.0613929 -0.0395268 0)
(0.0278303 -0.0402537 0)
(0.0567788 -0.078323 0)
(-0.10978 -0.0690182 0)
(0.0762039 0.0252035 0)
(0.00580322 0.0618118 0)
(-0.0470505 0.0620864 0)
(0.0429771 0.0500731 0)
(0.0280108 -0.0879153 0)
(0.204528 -0.0781638 0)
(0.00218839 0.0488323 0)
(-0.0519145 0.0169383 0)
(-0.0050223 0.031714 0)
(-0.00133223 -0.103584 0)
(0.01814 -0.0018266 0)
(-0.00926243 -0.00146322 0)
(-0.00367427 -0.0946151 0)
(-0.0278709 0.0184337 0)
(-0.125674 0.126017 0)
(-0.0665981 0.0716048 0)
(0.105293 -0.0161864 0)
(0.0881102 -0.0538604 0)
(0.00997673 0.0346555 0)
(-0.049522 0.00722667 0)
(0.1416 0.0428949 0)
(0.0259175 0.134668 0)
(0.0889224 0.00751998 0)
(0.078117 -0.0642908 0)
(-0.0502456 -0.059011 0)
(0.0364706 -0.0480944 0)
(0.118066 -0.00781859 0)
(-0.0116644 0.0254665 0)
(0.0211332 -0.0790972 0)
(0.00250867 -0.146132 0)
(0.0144982 0.0300291 0)
(0.0514308 0.0583731 0)
(-0.033754 0.146533 0)
(-0.0836191 -0.0549059 0)
(-0.115329 -0.0829761 0)
(-0.0430235 -0.0529158 0)
(-0.00985715 -0.0125265 0)
(0.0116078 0.230398 0)
(-0.137946 0.0338124 0)
(-0.010574 -0.108473 0)
(0.00790292 0.0133936 0)
(0.00965537 0.0591931 0)
(-0.0197969 0.00353679 0)
(-0.0358983 -0.164132 0)
(0.0778576 0.0556497 0)
(-0.0216618 0.104356 0)
(-0.126549 -0.075598 0)
(0.0356177 0.00245234 0)
(-0.0402686 -0.0174524 0)
(0.0141955 0.0761116 0)
(0.01923 0.161474 0)
(0.0173865 0.0289297 0)
(-0.149893 -0.197857 0)
(-0.0128914 -0.00679163 0)
(-0.0100703 0.158016 0)
(0.000857066 0.0350885 0)
(0.0387912 -0.14992 0)
(0.079561 -0.0397991 0)
(0.0299687 0.0133603 0)
(-0.206266 -0.065585 0)
(-0.17261 0.0265376 0)
(-0.0266833 0.143892 0)
(-0.0547554 0.0173272 0)
(-0.0600095 0.0422406 0)
(0.105388 -0.0704576 0)
(-0.0430791 -0.135799 0)
(-0.0197231 0.0210969 0)
(0.055599 0.15274 0)
(0.0189166 0.0186816 0)
(-0.0304983 -0.139422 0)
(0.0163465 -0.126456 0)
(0.0130074 0.0379569 0)
(0.00961047 -0.0904049 0)
(0.0292774 0.0838325 0)
(0.00907234 0.0736887 0)
(0.0288978 -0.0599203 0)
(0.0371368 0.0548648 0)
(-0.183575 0.0665019 0)
(-0.127417 -0.0801283 0)
(0.0281596 -0.0481581 0)
(-0.0160415 0.0763255 0)
(0.0176944 0.00587148 0)
(0.00425458 -0.0733375 0)
(0.0325978 -0.00930272 0)
(-0.00975166 0.0830209 0)
(0.0834352 0.0951695 0)
(0.00932993 0.056844 0)
(-0.028835 -0.1524 0)
(-0.0490043 -0.106579 0)
(-0.144989 0.0403215 0)
(0.0228651 0.0331628 0)
(0.120027 0.00128912 0)
(0.00176777 -0.0587408 0)
(-0.0478562 0.0357339 0)
(-0.149003 0.153356 0)
(0.285848 -0.0649267 0)
(0.0845081 -0.0784414 0)
(0.0542514 -0.00324268 0)
(0.011649 0.0347077 0)
(0.00547969 -0.00784114 0)
(-0.139645 -0.106458 0)
(-0.0223034 0.0590295 0)
(-0.0197189 0.153999 0)
(-0.0247097 -0.0889929 0)
(0.0252506 -0.102325 0)
(0.0161545 -0.00426199 0)
(-0.127907 0.0562296 0)
(-0.111662 0.00560087 0)
(4.07597e-05 -0.0107667 0)
(0.0112033 0.00917171 0)
(0.00133125 -0.115778 0)
(-0.00274342 0.0511256 0)
(-0.0126528 -0.048202 0)
(0.0229478 -0.0612258 0)
(0.056459 0.139679 0)
(-0.00295003 0.0776797 0)
(-0.0338236 -0.0166086 0)
(0.131517 -0.019655 0)
(0.0162726 -0.00322387 0)
(-0.0136106 -0.110619 0)
(0.0803208 0.0537342 0)
(0.0639038 0.217901 0)
(0.0862422 -0.0943333 0)
(0.0521145 -0.16378 0)
(-0.0993514 -0.00238247 0)
(0.0488779 0.0266107 0)
(0.138432 0.0972619 0)
(0.025907 0.0217237 0)
(-0.171927 -0.313959 0)
(0.0876053 -0.0726306 0)
(0.00954071 0.0605416 0)
(0.00271162 0.0585274 0)
(0.067351 0.337471 0)
(-0.0636066 0.128331 0)
(-0.133701 -0.275577 0)
(0.138828 -0.179572 0)
(-0.0978499 -0.042918 0)
(0.0188992 0.257189 0)
(-0.0190599 0.0961319 0)
(0.0327074 -0.176658 0)
(0.00979951 0.00327265 0)
(0.0386749 0.0192231 0)
(0.0913181 0.0411003 0)
(-0.0288905 -0.0331888 0)
(-0.188475 0.0433069 0)
(-0.129191 0.0346869 0)
(0.101048 -0.0769046 0)
(-0.0328201 0.0547657 0)
(-0.0100767 0.0363244 0)
(-0.0924847 0.0150813 0)
(-0.0134599 0.019402 0)
(-0.0448367 -0.105995 0)
(-0.0370394 -0.0306556 0)
(-0.20359 0.0140714 0)
(-0.0222065 0.081363 0)
(0.0764557 -0.0718133 0)
(0.0168132 -0.00429056 0)
(0.0490335 -0.0922341 0)
(-0.0314762 0.0967514 0)
(-0.0913848 0.141353 0)
(0.0251275 0.00400856 0)
(0.0260892 -0.0378367 0)
(0.0576378 0.00453666 0)
(0.0757016 -0.0100786 0)
(-0.0479264 -0.0377552 0)
(0.0202519 -0.0838289 0)
(-0.0535471 0.00896274 0)
(0.0453275 0.165424 0)
(0.0446541 -0.0424419 0)
(0.0460231 -0.230881 0)
(-0.00516029 0.015545 0)
(0.109778 0.067404 0)
(-0.0979591 -0.0258797 0)
(0.170044 0.0522738 0)
(0.164621 -0.045897 0)
(-0.223308 -0.0557272 0)
(0.00934745 0.142912 0)
(0.0676781 0.0648623 0)
(0.176576 0.0431787 0)
(-0.0821578 0.0179361 0)
(-0.121424 0.0391341 0)
(0.119279 -0.0696029 0)
(-0.137325 -0.000893951 0)
(-0.103596 -0.0528892 0)
(-0.0445952 0.0259053 0)
(0.0631479 0.00378941 0)
(0.0308027 -0.0200544 0)
(0.0215846 -0.0273305 0)
(0.0569674 0.0186884 0)
(0.0158122 0.0694154 0)
(-0.0122104 -0.0879927 0)
(0.00403883 0.0208043 0)
(-0.0190322 0.0338642 0)
(-0.0211555 -0.0520334 0)
(-0.0344637 -0.053446 0)
(0.021233 -0.0356744 0)
(0.0399179 0.00259892 0)
(-0.0477676 0.00997981 0)
(0.0206896 0.071876 0)
(0.0173404 0.0565391 0)
(-0.0212626 -0.0825803 0)
(-0.0426959 0.0678557 0)
(0.00311286 0.0846411 0)
(0.0152713 -0.11852 0)
(0.13411 -0.143248 0)
(-0.0169697 0.102154 0)
(0.0400365 0.0946409 0)
(0.000983305 -0.000549966 0)
(-0.00901306 -0.0422004 0)
(0.0183043 -0.0318523 0)
(0.0047731 -0.0349008 0)
(-0.0291561 0.0399961 0)
(0.00206799 -0.0578487 0)
(-0.0120212 -0.0483548 0)
(0.0467979 0.140705 0)
(-0.0803496 0.106618 0)
(0.0503314 -0.169414 0)
(-0.0535043 -0.108597 0)
(-0.0254585 -0.000179224 0)
(0.0484959 0.088342 0)
(0.0625717 0.0233139 0)
(0.0179438 0.0963657 0)
(0.033359 0.0673147 0)
(0.0751515 -0.0309455 0)
(-0.163467 -0.0479125 0)
(0.0521167 -0.186469 0)
(0.137335 0.094473 0)
(0.153354 0.22118 0)
(-0.0359114 -0.0723771 0)
(-0.25628 -0.257109 0)
(-0.0758028 -0.121272 0)
(0.170945 0.143968 0)
(-0.167073 0.188642 0)
(0.0698642 0.00459641 0)
(0.174794 -0.131044 0)
(-0.169649 -0.00700409 0)
(0.0174339 -0.000129039 0)
(0.0635284 0.0413935 0)
(0.0612616 0.0272521 0)
(-0.0312802 -0.0874463 0)
(0.0108476 -0.0016768 0)
(0.0231778 0.0533405 0)
(-0.0375431 -0.0270396 0)
(-0.0824112 0.0825776 0)
(0.033569 -0.00755822 0)
(0.000721139 -0.0840313 0)
(-0.0675805 -0.0798773 0)
(-0.0145827 0.110987 0)
(0.0106718 0.11716 0)
(0.0679108 0.0316116 0)
(0.0175469 -0.00205635 0)
(0.00580446 -0.00510533 0)
(0.0568239 -0.02249 0)
(-0.160463 -0.0679653 0)
(-0.0962853 -0.0157698 0)
(0.0168689 -0.113641 0)
(0.0565465 0.0049723 0)
(-0.0875825 0.023517 0)
(0.0136996 0.0160824 0)
(0.0529163 0.0926928 0)
(-0.046162 0.084946 0)
(0.0117035 -0.0785994 0)
(0.0669429 0.0627015 0)
(-0.0162417 0.126943 0)
(-0.005639 -0.213549 0)
(0.0358439 -0.122341 0)
(0.00408435 0.187585 0)
(-0.0247471 0.107543 0)
(-0.00775024 -0.140192 0)
(0.00211187 -0.163109 0)
(-0.139613 -0.0688982 0)
(0.113668 0.0938719 0)
(-0.181006 0.0714322 0)
(0.0378049 -0.065895 0)
(0.105982 0.0243485 0)
(-0.208142 0.10212 0)
(-0.131858 -0.0785037 0)
(0.103534 -0.134547 0)
(-0.0165296 0.208839 0)
(0.054689 0.0533548 0)
(0.204949 -0.0267779 0)
(0.101983 0.00106696 0)
(-0.0675066 0.0847828 0)
(-0.0886288 0.0225307 0)
(-0.19827 0.0173957 0)
(-0.049555 -0.0630571 0)
(-0.0967886 -0.0396487 0)
(0.101054 -0.0442821 0)
(0.00486025 -0.0295303 0)
(0.105211 -0.014757 0)
(0.00442184 0.0372559 0)
(0.0511737 0.0494252 0)
(-0.074439 -0.156907 0)
(0.254638 0.00110358 0)
(0.0287494 0.0486727 0)
(-0.00699896 0.0221977 0)
(0.0747399 -0.0140892 0)
(0.0459381 -0.0514312 0)
(-0.00804458 0.0457237 0)
(-0.00866698 0.10601 0)
(-0.00699806 -0.0614466 0)
(0.00537212 -0.0406508 0)
(0.0790571 0.15488 0)
(0.031818 -0.0912111 0)
(-0.0387015 -0.184057 0)
(-0.0254167 0.154535 0)
(0.021658 0.0916377 0)
(0.0356816 0.00438969 0)
(0.000417583 -0.0211094 0)
(0.000850217 -0.0327321 0)
(0.000144841 -0.0487551 0)
(0.00108304 0.0642695 0)
(4.02403e-05 -0.0257704 0)
(0.0185818 -0.0444234 0)
(0.00243192 0.132197 0)
(0.000672905 0.0730226 0)
(0.000540177 -0.204524 0)
(-0.00203717 -0.127681 0)
(-0.0132025 -0.0800096 0)
(0.0305562 0.109338 0)
(0.00636178 0.218165 0)
(-0.0701849 -0.0538273 0)
(-0.0367479 -0.0452728 0)
(0.00211946 0.154388 0)
(0.00340607 -0.068462 0)
(0.00428755 -0.200899 0)
(0.000870515 0.0904251 0)
(0.15883 0.152432 0)
(0.0899631 0.0833722 0)
(-0.0505742 -0.244016 0)
(-0.113277 -0.130126 0)
(-0.301581 0.0602485 0)
(0.014289 0.161883 0)
(-0.0263348 -0.00352548 0)
(-0.0316242 -0.112224 0)
(-0.0277297 -0.0418311 0)
(0.000116869 0.0670825 0)
(-0.03439 -0.00862488 0)
(-0.00205653 -0.0112863 0)
(-0.0102338 -0.135301 0)
(-0.00920845 0.0672299 0)
(-0.0277563 0.140969 0)
(0.0131601 -0.0843916 0)
(-0.219403 0.0350823 0)
(-0.0388757 0.141381 0)
(-0.0327492 -0.105295 0)
(0.0339854 -0.135355 0)
(0.0104219 0.0145504 0)
(0.010949 0.129121 0)
(-0.160686 0.0207028 0)
(0.161767 -0.0802168 0)
(0.021974 0.05626 0)
(0.0294558 -0.00905189 0)
(0.0670668 0.0630119 0)
(-0.0579497 -0.0125768 0)
(-0.0834347 0.006666 0)
(-0.169888 -0.00646899 0)
(0.00998819 -0.0883542 0)
(-0.06619 0.00620683 0)
(0.0778638 0.122108 0)
(0.0783367 0.0204637 0)
(-0.0330303 -0.199583 0)
(-0.0277841 -0.062135 0)
(0.0966328 0.196096 0)
(-0.00437312 -0.110187 0)
(-0.046759 -0.15837 0)
(-0.0946885 0.126225 0)
(0.0305229 0.164686 0)
(0.00451377 -0.0372676 0)
(-0.0199777 -0.119992 0)
(-0.00876587 -0.122136 0)
(-0.0130927 0.121722 0)
(-0.079677 0.145186 0)
(-0.0427141 -0.167008 0)
(-0.0860508 -0.0281608 0)
(0.0268331 0.128411 0)
(0.138805 -0.156564 0)
(0.0201203 -0.0662401 0)
(0.0387215 0.152923 0)
(-0.0672478 0.0860454 0)
(-0.13187 -0.0830734 0)
(0.0759129 -0.0102136 0)
(-0.0785441 0.132293 0)
(-0.0773937 0.0282236 0)
(0.0422518 -0.0396543 0)
(0.00505505 -0.061915 0)
(0.0439024 0.000388823 0)
(0.126448 0.0151704 0)
(0.0580551 -0.123803 0)
(-0.0145444 -0.112177 0)
(-0.0151485 0.112543 0)
(0.0048431 0.0193425 0)
(-0.0821536 -0.105462 0)
(-0.00121769 -0.047355 0)
(0.00266596 -0.0131315 0)
(0.0269781 0.0497516 0)
(0.0307652 0.00748961 0)
(0.0661146 0.0245688 0)
(0.0178857 0.0444166 0)
(-0.00359544 0.0520724 0)
(-0.0504952 -0.0649812 0)
(0.0641524 -0.0514026 0)
(0.025947 0.10824 0)
(-0.0450289 -0.0148311 0)
(-0.142835 -0.0482221 0)
(-0.0120491 0.094613 0)
(-0.0138475 0.0472135 0)
(-0.00214578 -0.0532623 0)
(0.000479226 -0.034383 0)
(0.00129167 -0.0607483 0)
(0.0108633 0.030348 0)
(0.00394484 0.00594296 0)
(-0.00120124 -0.1008 0)
(-0.000560852 -0.0115825 0)
(0.0341631 0.0976999 0)
(0.199425 0.0976524 0)
(0.027454 -0.0723454 0)
(-0.00408147 -0.170276 0)
(0.00370124 0.0183654 0)
(-0.000439725 0.148231 0)
(-0.0565509 0.0917922 0)
(-0.0639793 -0.189634 0)
(-0.0415176 -0.0731974 0)
(-0.0149345 0.314434 0)
(0.00171734 -0.00796097 0)
(0.0121625 -0.263322 0)
(-0.046975 -0.0459626 0)
(0.128587 0.159533 0)
(-0.0533389 0.0319974 0)
(-0.0379059 -0.0587949 0)
(-0.149888 -0.0931575 0)
(0.0826691 0.118126 0)
(0.0310255 -0.0566068 0)
(0.00420358 0.0852077 0)
(0.0528803 -0.00795723 0)
(-0.00456811 -0.0387828 0)
(-0.0352532 -0.0159337 0)
(-0.204841 -0.0511038 0)
(0.10196 0.0370147 0)
(-0.11818 0.0297994 0)
(-0.165723 0.048717 0)
(0.251627 0.00230191 0)
(0.0207131 -0.000548221 0)
(-0.21964 0.149525 0)
(-0.0589092 0.0781527 0)
(0.167773 -0.158377 0)
(-0.0334316 -0.150968 0)
(0.0047181 0.0679583 0)
(0.00155942 0.198987 0)
(0.0173821 0.00470256 0)
(0.00362097 -0.146878 0)
(0.0231738 -0.0333476 0)
(-0.0181822 0.0728814 0)
(-0.0117969 0.0953435 0)
(-0.017636 -0.016566 0)
(0.00412708 0.0139265 0)
(0.0123339 -0.0737395 0)
(-0.00490974 0.034041 0)
(-0.0299006 -0.00408812 0)
(0.130668 -0.0542375 0)
(0.0188986 0.0583301 0)
(-0.0140269 -0.0238948 0)
(-0.0381401 -0.207651 0)
(0.0696231 -0.124248 0)
(0.0460592 0.231895 0)
(-0.0669466 0.0515066 0)
(-0.0319845 -0.0414632 0)
(-0.0115619 0.145619 0)
(-0.0104866 0.0749017 0)
(0.00524937 -0.205752 0)
(-0.0666484 -0.0901181 0)
(-0.0583778 0.0714327 0)
(0.0338239 0.144067 0)
(-0.00726058 -0.0987789 0)
(-0.0241377 -0.131878 0)
(-0.0967157 -0.0433841 0)
(0.0859079 0.00176442 0)
(-0.0811107 0.180193 0)
(0.0410285 0.133965 0)
(0.111811 0.126714 0)
(-0.00927491 -0.267953 0)
(-0.073906 -0.0254823 0)
(-0.0396291 0.0539269 0)
(0.129686 0.0359296 0)
(0.0946309 0.00647941 0)
(-0.0680985 -0.0514409 0)
(-0.044408 -0.10468 0)
(0.0374232 -0.0105304 0)
(0.0163002 0.0200262 0)
(-0.00423714 -0.0400398 0)
(-0.0188412 0.0113581 0)