/*--------------------------------*- C++ -*----------------------------------*\
| =========                 |                                                 |
| \\      /  F ield         | OpenFOAM: The Open Source CFD Toolbox           |
|  \\    /   O peration     | Version:  v2012                                 |
|   \\  /    A nd           | Website:  www.openfoam.com                      |
|    \\/     M anipulation  |                                                 |
\*---------------------------------------------------------------------------*/
FoamFile
{
    version     2.0;
    format      ascii;
    class       volScalarField;
    location    "6";
    object      p;
}
// * * * * * * * * * * * * * * * * * * * * * * * * * * * * * * * * * * * * * //

dimensions      [0 2 -2 0 0 0 0];


internalField   nonuniform List<scalar> 
65536
(
1.43714e-09
-2.61708e-06
-7.85848e-06
-1.57128e-05
-2.61804e-05
-3.92629e-05
-5.49616e-05
-7.3278e-05
-9.4213e-05
-0.000117767
-0.000143942
-0.000172738
-0.000204156
-0.000238196
-0.000274861
-0.00031415
-0.000356064
-0.000400603
-0.000447767
-0.000497555
-0.000549967
-0.000605001
-0.000662655
-0.000722928
-0.000785816
-0.000851315
-0.000919421
-0.00099013
-0.00106343
-0.00113933
-0.0012178
-0.00129884
-0.00138245
-0.0014686
-0.00155729
-0.0016485
-0.00174221
-0.00183841
-0.00193708
-0.00203819
-0.00214173
-0.00224767
-0.00235597
-0.00246662
-0.00257958
-0.00269481
-0.00281229
-0.00293197
-0.00305381
-0.00317777
-0.0033038
-0.00343186
-0.00356189
-0.00369385
-0.00382767
-0.00396329
-0.00410066
-0.00423971
-0.00438038
-0.00452258
-0.00466626
-0.00481133
-0.00495772
-0.00510534
-0.00525412
-0.00540396
-0.00555478
-0.00570648
-0.00585898
-0.00601218
-0.00616597
-0.00632026
-0.00647495
-0.00662993
-0.0067851
-0.00694035
-0.00709557
-0.00725064
-0.00740547
-0.00755993
-0.00771391
-0.0078673
-0.00801999
-0.00817186
-0.00832279
-0.00847267
-0.00862138
-0.00876882
-0.00891486
-0.00905941
-0.00920233
-0.00934353
-0.0094829
-0.00962033
-0.00975571
-0.00988894
-0.0100199
-0.0101486
-0.0102748
-0.0103984
-0.0105195
-0.0106378
-0.0107533
-0.010866
-0.0109757
-0.0110824
-0.0111859
-0.0112864
-0.0113836
-0.0114775
-0.0115681
-0.0116553
-0.0117391
-0.0118195
-0.0118963
-0.0119696
-0.0120393
-0.0121055
-0.012168
-0.012227
-0.0122823
-0.0123339
-0.0123819
-0.0124263
-0.012467
-0.0125041
-0.0125376
-0.0125675
-0.0125939
-0.0126166
-0.0126359
-0.0126516
-0.0126639
-0.0126727
-0.0126782
-0.0126803
-0.0126791
-0.0126747
-0.0126671
-0.0126563
-0.0126424
-0.0126255
-0.0126056
-0.0125827
-0.012557
-0.0125285
-0.0124973
-0.0124634
-0.012427
-0.0123879
-0.0123465
-0.0123026
-0.0122564
-0.012208
-0.0121574
-0.0121047
-0.0120499
-0.0119932
-0.0119346
-0.0118743
-0.0118121
-0.0117484
-0.011683
-0.0116161
-0.0115478
-0.0114781
-0.0114071
-0.0113349
-0.0112615
-0.011187
-0.0111116
-0.0110352
-0.0109579
-0.0108798
-0.010801
-0.0107215
-0.0106414
-0.0105607
-0.0104796
-0.0103981
-0.0103162
-0.010234
-0.0101516
-0.0100691
-0.00998641
-0.00990369
-0.00982097
-0.00973831
-0.00965576
-0.00957338
-0.00949122
-0.00940933
-0.00932776
-0.00924656
-0.00916578
-0.00908547
-0.00900566
-0.00892641
-0.00884776
-0.00876976
-0.00869244
-0.00861584
-0.00854001
-0.00846498
-0.00839079
-0.00831748
-0.00824508
-0.00817363
-0.00810316
-0.00803371
-0.0079653
-0.00789797
-0.00783174
-0.00776665
-0.00770272
-0.00763998
-0.00757845
-0.00751817
-0.00745915
-0.00740143
-0.00734501
-0.00728993
-0.0072362
-0.00718385
-0.00713289
-0.00708335
-0.00703524
-0.00698857
-0.00694338
-0.00689966
-0.00685744
-0.00681673
-0.00677755
-0.00673991
-0.00670381
-0.00666928
-0.00663632
-0.00660495
-0.00657517
-0.00654699
-0.00652043
-0.00649548
-0.00647217
-0.00645049
-0.00643045
-0.00641207
-0.00639533
-0.00638026
-0.00636685
-0.00635511
-0.00634503
-0.00633664
-0.00632991
-0.00632487
-0.00632151
-0.00631983
-1.8942e-06
-4.51163e-06
-9.7497e-06
-1.76008e-05
-2.8066e-05
-4.11464e-05
-5.68427e-05
-7.5156e-05
-9.60874e-05
-0.000119638
-0.000145808
-0.0001746
-0.000206013
-0.000240049
-0.000276708
-0.000315991
-0.000357899
-0.000402432
-0.000449589
-0.000499371
-0.000551776
-0.000606803
-0.00066445
-0.000724716
-0.000787596
-0.000853088
-0.000921188
-0.000991889
-0.00106519
-0.00114107
-0.00121954
-0.00130058
-0.00138417
-0.00147032
-0.001559
-0.00165021
-0.00174392
-0.00184011
-0.00193878
-0.00203989
-0.00214342
-0.00224935
-0.00235766
-0.0024683
-0.00258126
-0.0026965
-0.00281397
-0.00293365
-0.0030555
-0.00317946
-0.0033055
-0.00343356
-0.00356361
-0.00369557
-0.0038294
-0.00396503
-0.00410242
-0.00424148
-0.00438216
-0.00452438
-0.00466807
-0.00481316
-0.00495956
-0.00510721
-0.005256
-0.00540587
-0.00555671
-0.00570844
-0.00586096
-0.00601419
-0.00616801
-0.00632233
-0.00647705
-0.00663206
-0.00678726
-0.00694254
-0.00709779
-0.0072529
-0.00740776
-0.00756226
-0.00771628
-0.00786971
-0.00802244
-0.00817434
-0.00832531
-0.00847523
-0.00862399
-0.00877146
-0.00891755
-0.00906213
-0.0092051
-0.00934634
-0.00948575
-0.00962321
-0.00975863
-0.00989191
-0.0100229
-0.0101516
-0.0102778
-0.0104015
-0.0105226
-0.010641
-0.0107565
-0.0108692
-0.010979
-0.0110857
-0.0111893
-0.0112898
-0.011387
-0.0114809
-0.0115716
-0.0116588
-0.0117426
-0.011823
-0.0118999
-0.0119732
-0.0120429
-0.0121091
-0.0121716
-0.0122306
-0.0122859
-0.0123376
-0.0123856
-0.01243
-0.0124707
-0.0125078
-0.0125413
-0.0125712
-0.0125975
-0.0126203
-0.0126395
-0.0126553
-0.0126675
-0.0126764
-0.0126819
-0.012684
-0.0126828
-0.0126783
-0.0126707
-0.0126599
-0.012646
-0.012629
-0.0126091
-0.0125862
-0.0125605
-0.012532
-0.0125008
-0.0124669
-0.0124304
-0.0123913
-0.0123498
-0.0123059
-0.0122597
-0.0122113
-0.0121606
-0.0121079
-0.0120531
-0.0119964
-0.0119378
-0.0118774
-0.0118152
-0.0117514
-0.011686
-0.0116191
-0.0115507
-0.011481
-0.01141
-0.0113377
-0.0112643
-0.0111899
-0.0111144
-0.0110379
-0.0109606
-0.0108825
-0.0108036
-0.0107241
-0.010644
-0.0105633
-0.0104822
-0.0104006
-0.0103187
-0.0102365
-0.0101541
-0.0100715
-0.00998879
-0.00990604
-0.00982329
-0.0097406
-0.00965802
-0.00957562
-0.00949343
-0.00941151
-0.00932991
-0.00924869
-0.00916788
-0.00908754
-0.00900771
-0.00892844
-0.00884976
-0.00877173
-0.00869439
-0.00861777
-0.00854191
-0.00846686
-0.00839265
-0.00831932
-0.0082469
-0.00817543
-0.00810494
-0.00803547
-0.00796704
-0.00789969
-0.00783344
-0.00776833
-0.00770438
-0.00764162
-0.00758008
-0.00751979
-0.00746075
-0.00740301
-0.00734658
-0.00729148
-0.00723774
-0.00718538
-0.00713441
-0.00708485
-0.00703673
-0.00699005
-0.00694485
-0.00690112
-0.00685889
-0.00681817
-0.00677898
-0.00674132
-0.00670522
-0.00667068
-0.00663771
-0.00660633
-0.00657654
-0.00654836
-0.00652179
-0.00649684
-0.00647352
-0.00645184
-0.0064318
-0.00641341
-0.00639667
-0.00638159
-0.00636818
-0.00635643
-0.00634636
-0.00633796
-0.00633124
-0.00632619
-0.00632283
-0.00632115
-5.68791e-06
-8.30235e-06
-1.35358e-05
-2.13822e-05
-3.18428e-05
-4.49185e-05
-6.06096e-05
-7.89169e-05
-9.98415e-05
-0.000123384
-0.000149546
-0.000178329
-0.000209732
-0.000243758
-0.000280406
-0.000319678
-0.000361574
-0.000406094
-0.000453239
-0.000503007
-0.000555399
-0.000610412
-0.000668045
-0.000728296
-0.000791163
-0.00085664
-0.000924725
-0.000995413
-0.0010687
-0.00114457
-0.00122302
-0.00130404
-0.00138763
-0.00147376
-0.00156244
-0.00165363
-0.00174733
-0.00184352
-0.00194217
-0.00204327
-0.0021468
-0.00225273
-0.00236103
-0.00247167
-0.00258463
-0.00269987
-0.00281735
-0.00293703
-0.00305888
-0.00318285
-0.0033089
-0.00343698
-0.00356704
-0.00369901
-0.00383286
-0.00396852
-0.00410592
-0.00424501
-0.00438572
-0.00452797
-0.00467169
-0.00481681
-0.00496326
-0.00511094
-0.00525978
-0.00540969
-0.00556058
-0.00571236
-0.00586493
-0.00601821
-0.00617208
-0.00632646
-0.00648124
-0.00663632
-0.00679158
-0.00694693
-0.00710225
-0.00725743
-0.00741236
-0.00756693
-0.00772103
-0.00787454
-0.00802734
-0.00817932
-0.00833037
-0.00848037
-0.0086292
-0.00877676
-0.00892293
-0.00906759
-0.00921064
-0.00935196
-0.00949145
-0.009629
-0.0097645
-0.00989785
-0.010029
-0.0101577
-0.010284
-0.0104078
-0.0105289
-0.0106474
-0.010763
-0.0108758
-0.0109856
-0.0110923
-0.011196
-0.0112965
-0.0113938
-0.0114878
-0.0115785
-0.0116658
-0.0117497
-0.0118301
-0.011907
-0.0119803
-0.0120501
-0.0121163
-0.0121789
-0.0122379
-0.0122932
-0.0123449
-0.0123929
-0.0124373
-0.0124781
-0.0125152
-0.0125487
-0.0125786
-0.0126049
-0.0126277
-0.0126469
-0.0126626
-0.0126749
-0.0126837
-0.0126892
-0.0126912
-0.01269
-0.0126856
-0.0126779
-0.012667
-0.0126531
-0.0126361
-0.0126162
-0.0125933
-0.0125675
-0.012539
-0.0125077
-0.0124738
-0.0124372
-0.0123981
-0.0123566
-0.0123126
-0.0122664
-0.0122179
-0.0121672
-0.0121144
-0.0120596
-0.0120028
-0.0119441
-0.0118836
-0.0118214
-0.0117576
-0.0116921
-0.0116251
-0.0115567
-0.0114869
-0.0114158
-0.0113435
-0.0112701
-0.0111955
-0.01112
-0.0110435
-0.0109661
-0.0108879
-0.010809
-0.0107294
-0.0106492
-0.0105685
-0.0104873
-0.0104057
-0.0103237
-0.0102414
-0.010159
-0.0100763
-0.00999355
-0.00991074
-0.00982793
-0.00974518
-0.00966255
-0.00958009
-0.00949785
-0.00941588
-0.00933423
-0.00925295
-0.00917209
-0.0090917
-0.00901182
-0.00893249
-0.00885377
-0.00877569
-0.0086983
-0.00862163
-0.00854573
-0.00847063
-0.00839638
-0.008323
-0.00825054
-0.00817903
-0.0081085
-0.00803899
-0.00797052
-0.00790313
-0.00783685
-0.0077717
-0.00770772
-0.00764493
-0.00758335
-0.00752302
-0.00746396
-0.00740618
-0.00734972
-0.0072946
-0.00724083
-0.00718844
-0.00713744
-0.00708786
-0.00703971
-0.00699302
-0.00694778
-0.00690404
-0.00686179
-0.00682105
-0.00678184
-0.00674416
-0.00670804
-0.00667349
-0.0066405
-0.00660911
-0.00657931
-0.00655111
-0.00652453
-0.00649957
-0.00647624
-0.00645454
-0.00643449
-0.00641609
-0.00639935
-0.00638426
-0.00637084
-0.00635909
-0.00634901
-0.00634061
-0.00633389
-0.00632884
-0.00632547
-0.00632379
-1.13719e-05
-1.39837e-05
-1.92131e-05
-2.70543e-05
-3.75087e-05
-5.05773e-05
-6.62603e-05
-8.45586e-05
-0.000105473
-0.000129005
-0.000155154
-0.000183923
-0.000215312
-0.000249322
-0.000285955
-0.00032521
-0.000367088
-0.000411589
-0.000458714
-0.000508463
-0.000560834
-0.000615826
-0.000673439
-0.000733668
-0.000796513
-0.00086197
-0.000930033
-0.0010007
-0.00107396
-0.00114981
-0.00122824
-0.00130925
-0.00139282
-0.00147893
-0.00156759
-0.00165876
-0.00175245
-0.00184862
-0.00194727
-0.00204836
-0.00215188
-0.0022578
-0.00236609
-0.00247673
-0.00258969
-0.00270493
-0.00282241
-0.0029421
-0.00306396
-0.00318795
-0.00331401
-0.00344211
-0.00357218
-0.00370419
-0.00383806
-0.00397375
-0.00411119
-0.00425031
-0.00439106
-0.00453335
-0.00467713
-0.0048223
-0.0049688
-0.00511654
-0.00526545
-0.00541542
-0.00556638
-0.00571823
-0.00587089
-0.00602424
-0.00617821
-0.00633267
-0.00648754
-0.00664271
-0.00679807
-0.00695352
-0.00710894
-0.00726423
-0.00741927
-0.00757395
-0.00772816
-0.00788178
-0.00803469
-0.00818679
-0.00833796
-0.00848808
-0.00863704
-0.00878472
-0.00893101
-0.00907579
-0.00921896
-0.00936041
-0.00950001
-0.00963768
-0.0097733
-0.00990677
-0.010038
-0.0101669
-0.0102933
-0.0104172
-0.0105384
-0.010657
-0.0107727
-0.0108856
-0.0109955
-0.0111023
-0.0112061
-0.0113067
-0.0114041
-0.0114982
-0.0115889
-0.0116763
-0.0117602
-0.0118407
-0.0119176
-0.0119911
-0.0120609
-0.0121271
-0.0121898
-0.0122488
-0.0123041
-0.0123558
-0.0124039
-0.0124483
-0.0124891
-0.0125262
-0.0125597
-0.0125896
-0.012616
-0.0126387
-0.0126579
-0.0126736
-0.0126859
-0.0126947
-0.0127001
-0.0127022
-0.0127009
-0.0126964
-0.0126887
-0.0126778
-0.0126638
-0.0126468
-0.0126268
-0.0126039
-0.012578
-0.0125494
-0.0125181
-0.0124841
-0.0124475
-0.0124083
-0.0123667
-0.0123227
-0.0122763
-0.0122277
-0.012177
-0.0121241
-0.0120692
-0.0120123
-0.0119536
-0.011893
-0.0118307
-0.0117668
-0.0117012
-0.0116342
-0.0115657
-0.0114958
-0.0114246
-0.0113522
-0.0112786
-0.011204
-0.0111284
-0.0110518
-0.0109743
-0.010896
-0.010817
-0.0107373
-0.0106571
-0.0105762
-0.0104949
-0.0104132
-0.0103312
-0.0102488
-0.0101663
-0.0100835
-0.0100007
-0.00991779
-0.00983489
-0.00975206
-0.00966935
-0.0095868
-0.00950448
-0.00942242
-0.00934069
-0.00925934
-0.0091784
-0.00909793
-0.00901797
-0.00893857
-0.00885978
-0.00878163
-0.00870416
-0.00862743
-0.00855146
-0.00847629
-0.00840197
-0.00832853
-0.00825601
-0.00818443
-0.00811384
-0.00804427
-0.00797574
-0.00790829
-0.00784196
-0.00777675
-0.00771272
-0.00764988
-0.00758825
-0.00752787
-0.00746876
-0.00741094
-0.00735444
-0.00729927
-0.00724546
-0.00719303
-0.00714199
-0.00709237
-0.00704419
-0.00699746
-0.00695219
-0.00690841
-0.00686613
-0.00682536
-0.00678612
-0.00674842
-0.00671227
-0.00667769
-0.00664469
-0.00661327
-0.00658345
-0.00655523
-0.00652863
-0.00650365
-0.00648031
-0.0064586
-0.00643853
-0.00642012
-0.00640336
-0.00638827
-0.00637484
-0.00636308
-0.006353
-0.00634459
-0.00633786
-0.00633281
-0.00632944
-0.00632776
-1.89489e-05
-2.15584e-05
-2.67835e-05
-3.4619e-05
-4.50659e-05
-5.81253e-05
-7.37977e-05
-9.2084e-05
-0.000112985
-0.000136501
-0.000162635
-0.000191386
-0.000222756
-0.000256745
-0.000293356
-0.000332588
-0.000374442
-0.000418919
-0.000466019
-0.000515741
-0.000568084
-0.000623049
-0.000680633
-0.000740835
-0.000803651
-0.000869079
-0.000937114
-0.00100775
-0.00108098
-0.00115681
-0.00123521
-0.00131619
-0.00139973
-0.00148583
-0.00157446
-0.00166561
-0.00175928
-0.00185543
-0.00195406
-0.00205514
-0.00215865
-0.00226456
-0.00237285
-0.00248349
-0.00259644
-0.00271168
-0.00282917
-0.00294887
-0.00307074
-0.00319474
-0.00332083
-0.00344895
-0.00357905
-0.00371109
-0.003845
-0.00398073
-0.00411821
-0.00425739
-0.00439819
-0.00454054
-0.00468438
-0.00482963
-0.0049762
-0.00512402
-0.00527301
-0.00542307
-0.00557413
-0.00572608
-0.00587883
-0.0060323
-0.00618637
-0.00634096
-0.00649595
-0.00665125
-0.00680674
-0.00696232
-0.00711788
-0.0072733
-0.00742849
-0.00758331
-0.00773767
-0.00789144
-0.00804452
-0.00819677
-0.0083481
-0.00849838
-0.0086475
-0.00879534
-0.00894179
-0.00908674
-0.00923007
-0.00937168
-0.00951145
-0.00964928
-0.00978506
-0.00991868
-0.0100501
-0.0101791
-0.0103057
-0.0104297
-0.0105511
-0.0106698
-0.0107856
-0.0108986
-0.0110087
-0.0111157
-0.0112196
-0.0113203
-0.0114178
-0.011512
-0.0116028
-0.0116903
-0.0117743
-0.0118549
-0.0119319
-0.0120054
-0.0120753
-0.0121416
-0.0122043
-0.0122633
-0.0123187
-0.0123705
-0.0124186
-0.012463
-0.0125038
-0.012541
-0.0125745
-0.0126044
-0.0126307
-0.0126535
-0.0126727
-0.0126884
-0.0127006
-0.0127094
-0.0127147
-0.0127168
-0.0127155
-0.0127109
-0.0127031
-0.0126922
-0.0126782
-0.0126611
-0.012641
-0.012618
-0.0125921
-0.0125634
-0.012532
-0.0124979
-0.0124611
-0.0124219
-0.0123802
-0.0123361
-0.0122896
-0.0122409
-0.0121901
-0.0121371
-0.0120821
-0.0120251
-0.0119662
-0.0119056
-0.0118432
-0.0117791
-0.0117134
-0.0116462
-0.0115776
-0.0115076
-0.0114363
-0.0113638
-0.0112901
-0.0112153
-0.0111396
-0.0110629
-0.0109853
-0.0109069
-0.0108277
-0.0107479
-0.0106675
-0.0105866
-0.0105052
-0.0104233
-0.0103412
-0.0102587
-0.010176
-0.0100932
-0.0100102
-0.00992719
-0.00984418
-0.00976124
-0.00967841
-0.00959575
-0.00951332
-0.00943116
-0.00934932
-0.00926786
-0.00918681
-0.00910624
-0.00902618
-0.00894668
-0.00886779
-0.00878954
-0.00871198
-0.00863515
-0.00855909
-0.00848384
-0.00840943
-0.0083359
-0.00826329
-0.00819163
-0.00812096
-0.00805131
-0.0079827
-0.00791518
-0.00784877
-0.00778349
-0.00771939
-0.00765648
-0.00759479
-0.00753434
-0.00747517
-0.00741729
-0.00736072
-0.0073055
-0.00725163
-0.00719914
-0.00714806
-0.00709839
-0.00705016
-0.00700338
-0.00695807
-0.00691424
-0.00687192
-0.00683111
-0.00679183
-0.0067541
-0.00671792
-0.0066833
-0.00665026
-0.00661882
-0.00658897
-0.00656072
-0.0065341
-0.0065091
-0.00648573
-0.006464
-0.00644392
-0.00642549
-0.00640872
-0.00639361
-0.00638017
-0.0063684
-0.0063583
-0.00634989
-0.00634315
-0.0063381
-0.00633472
-0.00633304
-2.84236e-05
-3.10304e-05
-3.62505e-05
-4.40792e-05
-5.45172e-05
-6.75655e-05
-8.32249e-05
-0.000101496
-0.00012238
-0.000145878
-0.000171991
-0.000200719
-0.000232065
-0.00026603
-0.000302613
-0.000341817
-0.000383641
-0.000428087
-0.000475155
-0.000524844
-0.000577154
-0.000632084
-0.000689633
-0.000749799
-0.00081258
-0.000877972
-0.000945971
-0.00101657
-0.00108977
-0.00116556
-0.00124393
-0.00132488
-0.00140839
-0.00149445
-0.00158305
-0.00167418
-0.00176782
-0.00186396
-0.00196256
-0.00206363
-0.00216712
-0.00227302
-0.0023813
-0.00249193
-0.00260489
-0.00272013
-0.00283763
-0.00295734
-0.00307923
-0.00320325
-0.00332936
-0.0034575
-0.00358764
-0.00371972
-0.00385368
-0.00398946
-0.004127
-0.00426624
-0.00440711
-0.00454954
-0.00469346
-0.00483879
-0.00498546
-0.00513338
-0.00528247
-0.00543265
-0.00558382
-0.0057359
-0.00588878
-0.00604238
-0.0061966
-0.00635133
-0.00650647
-0.00666193
-0.00681758
-0.00697333
-0.00712906
-0.00728466
-0.00744003
-0.00759504
-0.00774958
-0.00790355
-0.00805681
-0.00820927
-0.00836079
-0.00851127
-0.00866059
-0.00880864
-0.00895529
-0.00910044
-0.00924398
-0.00938579
-0.00952576
-0.00966379
-0.00979978
-0.0099336
-0.0100652
-0.0101944
-0.0103212
-0.0104454
-0.010567
-0.0106858
-0.0108019
-0.010915
-0.0110252
-0.0111324
-0.0112364
-0.0113373
-0.0114349
-0.0115293
-0.0116202
-0.0117078
-0.011792
-0.0118726
-0.0119498
-0.0120233
-0.0120933
-0.0121597
-0.0122225
-0.0122816
-0.012337
-0.0123888
-0.012437
-0.0124815
-0.0125223
-0.0125594
-0.012593
-0.0126229
-0.0126492
-0.0126719
-0.0126911
-0.0127068
-0.012719
-0.0127277
-0.012733
-0.012735
-0.0127337
-0.012729
-0.0127212
-0.0127102
-0.0126961
-0.0126789
-0.0126587
-0.0126356
-0.0126096
-0.0125808
-0.0125493
-0.0125151
-0.0124783
-0.0124389
-0.0123971
-0.0123528
-0.0123063
-0.0122574
-0.0122064
-0.0121533
-0.0120982
-0.0120411
-0.0119821
-0.0119212
-0.0118587
-0.0117945
-0.0117286
-0.0116613
-0.0115925
-0.0115224
-0.0114509
-0.0113783
-0.0113044
-0.0112295
-0.0111536
-0.0110767
-0.010999
-0.0109204
-0.0108412
-0.0107612
-0.0106806
-0.0105995
-0.010518
-0.010436
-0.0103537
-0.0102711
-0.0101882
-0.0101052
-0.0100221
-0.00993895
-0.0098558
-0.00977271
-0.00968974
-0.00960695
-0.00952437
-0.00944208
-0.00936011
-0.00927851
-0.00919734
-0.00911663
-0.00903645
-0.00895683
-0.00887781
-0.00879944
-0.00872176
-0.00864481
-0.00856864
-0.00849327
-0.00841875
-0.00834511
-0.0082724
-0.00820063
-0.00812986
-0.00806011
-0.00799141
-0.00792379
-0.00785728
-0.00779192
-0.00772773
-0.00766473
-0.00760295
-0.00754243
-0.00748317
-0.00742522
-0.00736858
-0.00731328
-0.00725934
-0.00720679
-0.00715564
-0.00710591
-0.00705761
-0.00701077
-0.00696541
-0.00692153
-0.00687916
-0.0068383
-0.00679897
-0.00676119
-0.00672497
-0.00669031
-0.00665723
-0.00662575
-0.00659586
-0.00656759
-0.00654093
-0.0065159
-0.00649251
-0.00647075
-0.00645065
-0.0064322
-0.00641541
-0.00640028
-0.00638682
-0.00637504
-0.00636493
-0.00635651
-0.00634976
-0.0063447
-0.00634133
-0.00633964
-3.97998e-05
-4.24036e-05
-4.7618e-05
-5.54385e-05
-6.58659e-05
-7.89012e-05
-9.45451e-05
-0.000112799
-0.000133662
-0.000157138
-0.000183226
-0.000211928
-0.000243246
-0.000277179
-0.00031373
-0.0003529
-0.000394689
-0.000439098
-0.000486127
-0.000535776
-0.000588046
-0.000642935
-0.000700442
-0.000760566
-0.000823304
-0.000888653
-0.000956609
-0.00102717
-0.00110033
-0.00117607
-0.00125441
-0.00133531
-0.00141878
-0.00150481
-0.00159338
-0.00168448
-0.00177809
-0.00187419
-0.00197278
-0.00207382
-0.00217729
-0.00228318
-0.00239145
-0.00250208
-0.00261503
-0.00273028
-0.00284778
-0.00296751
-0.00308942
-0.00321346
-0.0033396
-0.00346779
-0.00359797
-0.0037301
-0.00386411
-0.00399995
-0.00413757
-0.00427688
-0.00441784
-0.00456036
-0.00470437
-0.00484981
-0.00499659
-0.00514463
-0.00529385
-0.00544416
-0.00559547
-0.0057477
-0.00590074
-0.0060545
-0.00620889
-0.0063638
-0.00651913
-0.00667477
-0.00683062
-0.00698657
-0.0071425
-0.00729832
-0.0074539
-0.00760914
-0.00776391
-0.0079181
-0.0080716
-0.00822429
-0.00837605
-0.00852677
-0.00867634
-0.00882463
-0.00897153
-0.00911692
-0.00926071
-0.00940276
-0.00954298
-0.00968125
-0.00981748
-0.00995154
-0.0100833
-0.0102128
-0.0103398
-0.0104642
-0.010586
-0.0107051
-0.0108214
-0.0109347
-0.0110451
-0.0111525
-0.0112567
-0.0113577
-0.0114556
-0.01155
-0.0116412
-0.0117289
-0.0118132
-0.011894
-0.0119712
-0.0120449
-0.012115
-0.0121815
-0.0122443
-0.0123035
-0.0123591
-0.0124109
-0.0124591
-0.0125036
-0.0125444
-0.0125816
-0.0126152
-0.0126451
-0.0126714
-0.0126941
-0.0127133
-0.0127289
-0.0127411
-0.0127498
-0.0127551
-0.012757
-0.0127556
-0.0127509
-0.0127429
-0.0127318
-0.0127176
-0.0127003
-0.0126801
-0.0126568
-0.0126307
-0.0126018
-0.0125702
-0.0125358
-0.0124989
-0.0124593
-0.0124174
-0.012373
-0.0123263
-0.0122773
-0.0122261
-0.0121728
-0.0121175
-0.0120602
-0.0120011
-0.0119401
-0.0118773
-0.0118129
-0.011747
-0.0116794
-0.0116105
-0.0115402
-0.0114685
-0.0113957
-0.0113216
-0.0112465
-0.0111704
-0.0110934
-0.0110155
-0.0109367
-0.0108573
-0.0107771
-0.0106964
-0.0106151
-0.0105333
-0.0104512
-0.0103687
-0.0102859
-0.0102029
-0.0101197
-0.0100364
-0.00995307
-0.00986975
-0.00978649
-0.00970335
-0.00962039
-0.00953765
-0.00945519
-0.00937305
-0.0092913
-0.00920997
-0.00912911
-0.00904877
-0.008969
-0.00888983
-0.00881132
-0.0087335
-0.00865641
-0.00858009
-0.00850459
-0.00842994
-0.00835617
-0.00828333
-0.00821144
-0.00814054
-0.00807067
-0.00800185
-0.00793412
-0.0078675
-0.00780203
-0.00773773
-0.00767463
-0.00761275
-0.00755213
-0.00749278
-0.00743473
-0.007378
-0.00732262
-0.0072686
-0.00721597
-0.00716473
-0.00711493
-0.00706656
-0.00701965
-0.00697422
-0.00693027
-0.00688784
-0.00684692
-0.00680754
-0.0067697
-0.00673342
-0.00669872
-0.00666559
-0.00663406
-0.00660414
-0.00657582
-0.00654913
-0.00652406
-0.00650064
-0.00647885
-0.00645872
-0.00644024
-0.00642343
-0.00640828
-0.00639481
-0.00638301
-0.00637289
-0.00636445
-0.0063577
-0.00635263
-0.00634925
-0.00634757
-5.30814e-05
-5.56821e-05
-6.08903e-05
-6.87014e-05
-7.91166e-05
-9.21369e-05
-0.000107763
-0.000125996
-0.000146836
-0.000170285
-0.000196345
-0.000225016
-0.0002563
-0.000290199
-0.000326712
-0.000365842
-0.000407589
-0.000451955
-0.00049894
-0.000548543
-0.000600765
-0.000655606
-0.000713065
-0.000773139
-0.000835827
-0.000901126
-0.000969033
-0.00103954
-0.00111265
-0.00118835
-0.00126664
-0.0013475
-0.00143093
-0.00151691
-0.00160544
-0.0016965
-0.00179008
-0.00188615
-0.00198471
-0.00208573
-0.00218918
-0.00229505
-0.00240331
-0.00251393
-0.00262689
-0.00274214
-0.00285965
-0.0029794
-0.00310132
-0.0032254
-0.00335157
-0.0034798
-0.00361004
-0.00374222
-0.0038763
-0.00401222
-0.00414991
-0.00428931
-0.00443037
-0.00457299
-0.00471713
-0.00486269
-0.0050096
-0.00515778
-0.00530715
-0.00545761
-0.00560909
-0.00576149
-0.00591472
-0.00606867
-0.00622326
-0.00637837
-0.00653392
-0.00668978
-0.00684586
-0.00700204
-0.00715822
-0.00731429
-0.00747012
-0.00762562
-0.00778065
-0.00793512
-0.00808889
-0.00824186
-0.0083939
-0.0085449
-0.00869475
-0.00884333
-0.00899051
-0.0091362
-0.00928027
-0.00942261
-0.00956312
-0.00970168
-0.00983818
-0.00997252
-0.0101046
-0.0102343
-0.0103616
-0.0104863
-0.0106084
-0.0107277
-0.0108442
-0.0109578
-0.0110684
-0.011176
-0.0112804
-0.0113817
-0.0114797
-0.0115744
-0.0116657
-0.0117536
-0.011838
-0.011919
-0.0119964
-0.0120702
-0.0121404
-0.012207
-0.0122699
-0.0123292
-0.0123848
-0.0124367
-0.012485
-0.0125295
-0.0125704
-0.0126076
-0.0126412
-0.0126711
-0.0126974
-0.0127201
-0.0127392
-0.0127548
-0.0127669
-0.0127756
-0.0127808
-0.0127826
-0.0127811
-0.0127764
-0.0127683
-0.0127571
-0.0127428
-0.0127254
-0.012705
-0.0126817
-0.0126554
-0.0126264
-0.0125945
-0.01256
-0.0125229
-0.0124832
-0.0124411
-0.0123965
-0.0123496
-0.0123005
-0.0122491
-0.0121956
-0.0121401
-0.0120827
-0.0120233
-0.0119621
-0.0118992
-0.0118345
-0.0117683
-0.0117006
-0.0116315
-0.0115609
-0.0114891
-0.011416
-0.0113418
-0.0112664
-0.0111901
-0.0111128
-0.0110347
-0.0109558
-0.0108761
-0.0107957
-0.0107148
-0.0106333
-0.0105513
-0.0104689
-0.0103862
-0.0103032
-0.01022
-0.0101366
-0.0100531
-0.00996956
-0.00988603
-0.00980258
-0.00971924
-0.00963608
-0.00955315
-0.00947049
-0.00938817
-0.00930623
-0.00922471
-0.00914368
-0.00906316
-0.00898321
-0.00890387
-0.00882518
-0.00874719
-0.00866994
-0.00859346
-0.0085178
-0.00844299
-0.00836907
-0.00829608
-0.00822405
-0.00815301
-0.00808299
-0.00801404
-0.00794617
-0.00787943
-0.00781383
-0.0077494
-0.00768618
-0.00762419
-0.00756345
-0.00750399
-0.00744583
-0.007389
-0.00733352
-0.0072794
-0.00722667
-0.00717534
-0.00712545
-0.007077
-0.00703001
-0.00698449
-0.00694047
-0.00689796
-0.00685698
-0.00681753
-0.00677963
-0.00674329
-0.00670852
-0.00667535
-0.00664376
-0.00661379
-0.00658542
-0.00655869
-0.00653358
-0.00651012
-0.0064883
-0.00646813
-0.00644963
-0.00643279
-0.00641762
-0.00640412
-0.0063923
-0.00638217
-0.00637372
-0.00636695
-0.00636188
-0.00635849
-0.0063568
-6.82737e-05
-7.0871e-05
-7.60722e-05
-8.38729e-05
-9.42743e-05
-0.000107277
-0.000122883
-0.000141092
-0.000161906
-0.000185326
-0.000211353
-0.000239989
-0.000271235
-0.000305093
-0.000341563
-0.000380648
-0.000422348
-0.000466665
-0.000513598
-0.000563149
-0.000615318
-0.000670104
-0.000727507
-0.000787524
-0.000850156
-0.000915398
-0.000983248
-0.0010537
-0.00112675
-0.0012024
-0.00128063
-0.00136144
-0.00144482
-0.00153076
-0.00161924
-0.00171026
-0.0018038
-0.00189984
-0.00199836
-0.00209935
-0.00220279
-0.00230864
-0.00241689
-0.0025275
-0.00264045
-0.00275571
-0.00287324
-0.002993
-0.00311496
-0.00323906
-0.00336528
-0.00349356
-0.00362385
-0.0037561
-0.00389026
-0.00402626
-0.00416404
-0.00430355
-0.00444471
-0.00458746
-0.00473173
-0.00487743
-0.00502449
-0.00517284
-0.00532238
-0.00547302
-0.00562469
-0.00577729
-0.00593073
-0.0060849
-0.00623972
-0.00639507
-0.00655086
-0.00670698
-0.00686332
-0.00701978
-0.00717623
-0.00733258
-0.00748871
-0.0076445
-0.00779984
-0.00795462
-0.0081087
-0.00826199
-0.00841435
-0.00856568
-0.00871586
-0.00886476
-0.00901228
-0.00915829
-0.0093027
-0.00944537
-0.0095862
-0.00972508
-0.00986191
-0.00999657
-0.010129
-0.010259
-0.0103866
-0.0105116
-0.0106339
-0.0107535
-0.0108703
-0.0109842
-0.0110951
-0.0112029
-0.0113076
-0.0114091
-0.0115073
-0.0116022
-0.0116938
-0.0117819
-0.0118665
-0.0119476
-0.0120251
-0.0120991
-0.0121695
-0.0122362
-0.0122992
-0.0123586
-0.0124143
-0.0124663
-0.0125146
-0.0125592
-0.0126001
-0.0126374
-0.0126709
-0.0127009
-0.0127271
-0.0127498
-0.0127689
-0.0127845
-0.0127966
-0.0128051
-0.0128103
-0.012812
-0.0128104
-0.0128056
-0.0127974
-0.0127861
-0.0127717
-0.0127541
-0.0127336
-0.0127101
-0.0126837
-0.0126544
-0.0126225
-0.0125878
-0.0125505
-0.0125106
-0.0124683
-0.0124235
-0.0123764
-0.012327
-0.0122754
-0.0122218
-0.012166
-0.0121083
-0.0120487
-0.0119873
-0.0119241
-0.0118593
-0.0117928
-0.0117249
-0.0116555
-0.0115847
-0.0115126
-0.0114393
-0.0113648
-0.0112892
-0.0112126
-0.0111351
-0.0110567
-0.0109775
-0.0108976
-0.010817
-0.0107358
-0.010654
-0.0105718
-0.0104892
-0.0104063
-0.010323
-0.0102395
-0.0101559
-0.0100722
-0.00998842
-0.00990466
-0.00982097
-0.00973741
-0.00965402
-0.00957087
-0.009488
-0.00940546
-0.0093233
-0.00924158
-0.00916033
-0.00907961
-0.00899946
-0.00891992
-0.00884104
-0.00876285
-0.00868541
-0.00860875
-0.00853291
-0.00845792
-0.00838382
-0.00831066
-0.00823846
-0.00816725
-0.00809708
-0.00802797
-0.00795995
-0.00789305
-0.00782731
-0.00776274
-0.00769938
-0.00763725
-0.00757639
-0.0075168
-0.00745852
-0.00740157
-0.00734596
-0.00729173
-0.0072389
-0.00718747
-0.00713747
-0.00708892
-0.00704184
-0.00699623
-0.00695213
-0.00690953
-0.00686846
-0.00682894
-0.00679096
-0.00675456
-0.00671973
-0.00668649
-0.00665484
-0.00662481
-0.0065964
-0.00656961
-0.00654446
-0.00652095
-0.00649909
-0.00647889
-0.00646035
-0.00644348
-0.00642828
-0.00641476
-0.00640292
-0.00639276
-0.0063843
-0.00637752
-0.00637244
-0.00636905
-0.00636735
-8.53825e-05
-8.7976e-05
-9.31695e-05
-0.000100959
-0.000111345
-0.000124329
-0.000139911
-0.000158094
-0.000178878
-0.000202265
-0.000228256
-0.000256852
-0.000288055
-0.000321868
-0.00035829
-0.000397324
-0.000438971
-0.000483233
-0.000530109
-0.000579601
-0.00063171
-0.000686434
-0.000743774
-0.000803729
-0.000866297
-0.000931476
-0.000999262
-0.00106965
-0.00114264
-0.00121823
-0.0012964
-0.00137715
-0.00146048
-0.00154636
-0.00163479
-0.00172577
-0.00181926
-0.00191526
-0.00201375
-0.00211471
-0.00221812
-0.00232395
-0.00243219
-0.00254279
-0.00265575
-0.00277101
-0.00288855
-0.00300833
-0.00313032
-0.00325447
-0.00338073
-0.00350907
-0.00363942
-0.00377175
-0.00390599
-0.00404208
-0.00417998
-0.0043196
-0.00446089
-0.00460378
-0.00474819
-0.00489406
-0.00504129
-0.00518981
-0.00533955
-0.0054904
-0.00564229
-0.00579511
-0.00594879
-0.00610321
-0.00625828
-0.0064139
-0.00656997
-0.00672638
-0.00688302
-0.00703978
-0.00719655
-0.00735323
-0.00750969
-0.00766581
-0.0078215
-0.00797662
-0.00813106
-0.00828471
-0.00843743
-0.00858913
-0.00873967
-0.00888895
-0.00903684
-0.00918323
-0.009328
-0.00947105
-0.00961225
-0.00975151
-0.0098887
-0.0100237
-0.0101565
-0.0102869
-0.0104148
-0.0105401
-0.0106628
-0.0107828
-0.0108999
-0.011014
-0.0111252
-0.0112333
-0.0113383
-0.0114401
-0.0115386
-0.0116337
-0.0117255
-0.0118138
-0.0118986
-0.0119799
-0.0120576
-0.0121318
-0.0122023
-0.0122691
-0.0123323
-0.0123918
-0.0124476
-0.0124997
-0.012548
-0.0125927
-0.0126337
-0.0126709
-0.0127045
-0.0127345
-0.0127607
-0.0127834
-0.0128025
-0.012818
-0.01283
-0.0128385
-0.0128436
-0.0128452
-0.0128435
-0.0128385
-0.0128303
-0.0128188
-0.0128042
-0.0127865
-0.0127658
-0.0127421
-0.0127155
-0.0126861
-0.0126539
-0.0126191
-0.0125815
-0.0125415
-0.0124989
-0.0124539
-0.0124066
-0.0123569
-0.0123051
-0.0122512
-0.0121952
-0.0121372
-0.0120774
-0.0120157
-0.0119523
-0.0118871
-0.0118204
-0.0117522
-0.0116825
-0.0116114
-0.0115391
-0.0114655
-0.0113907
-0.0113149
-0.011238
-0.0111602
-0.0110815
-0.0110021
-0.0109218
-0.010841
-0.0107595
-0.0106775
-0.010595
-0.0105121
-0.0104288
-0.0103453
-0.0102616
-0.0101777
-0.0100937
-0.0100097
-0.00992564
-0.00984169
-0.00975787
-0.00967423
-0.00959082
-0.0095077
-0.00942492
-0.00934252
-0.00926056
-0.00917908
-0.00909812
-0.00901774
-0.00893798