/*--------------------------------*- C++ -*----------------------------------*\
| =========                 |                                                 |
| \\      /  F ield         | OpenFOAM: The Open Source CFD Toolbox           |
|  \\    /   O peration     | Version:  v2012                                 |
|   \\  /    A nd           | Website:  www.openfoam.com                      |
|    \\/     M anipulation  |                                                 |
\*---------------------------------------------------------------------------*/
FoamFile
{
    version     2.0;
    format      ascii;
    class       volScalarField;
    location    "6";
    object      Psi_z;
}
// * * * * * * * * * * * * * * * * * * * * * * * * * * * * * * * * * * * * * //

dimensions      [0 2 -1 0 0 0 0];


internalField   nonuniform List<scalar> 
65536
(
9.21139e-06
2.76339e-05
4.60555e-05
6.44757e-05
8.28938e-05
0.000101309
0.000119721
0.000138129
0.000156533
0.000174931
0.000193323
0.000211707
0.000230085
0.000248453
0.000266813
0.000285161
0.000303499
0.000321823
0.000340135
0.000358431
0.000376712
0.000394975
0.000413219
0.000431444
0.000449646
0.000467826
0.00048598
0.000504108
0.000522207
0.000540275
0.000558311
0.000576312
0.000594276
0.000612201
0.000630084
0.000647923
0.000665715
0.000683457
0.000701147
0.000718782
0.000736357
0.000753872
0.000771321
0.000788702
0.000806011
0.000823245
0.0008404
0.000857472
0.000874457
0.000891351
0.000908151
0.000924851
0.000941448
0.000957937
0.000974314
0.000990575
0.00100671
0.00102273
0.00103861
0.00105435
0.00106996
0.00108542
0.00110073
0.00111588
0.00113087
0.0011457
0.00116035
0.00117483
0.00118912
0.00120323
0.00121714
0.00123086
0.00124437
0.00125768
0.00127077
0.00128364
0.00129629
0.00130871
0.0013209
0.00133285
0.00134455
0.001356
0.0013672
0.00137814
0.00138882
0.00139923
0.00140937
0.00141923
0.00142881
0.00143811
0.00144712
0.00145584
0.00146426
0.00147239
0.00148021
0.00148773
0.00149495
0.00150185
0.00150844
0.00151471
0.00152067
0.00152631
0.00153163
0.00153663
0.00154131
0.00154566
0.00154969
0.00155339
0.00155676
0.00155982
0.00156254
0.00156494
0.00156701
0.00156876
0.00157018
0.00157128
0.00157206
0.00157252
0.00157266
0.00157248
0.00157198
0.00157118
0.00157006
0.00156863
0.00156689
0.00156485
0.00156251
0.00155987
0.00155694
0.00155371
0.0015502
0.0015464
0.00154232
0.00153796
0.00153332
0.00152842
0.00152325
0.00151781
0.00151212
0.00150617
0.00149997
0.00149353
0.00148684
0.00147991
0.00147275
0.00146536
0.00145774
0.00144991
0.00144185
0.00143359
0.00142511
0.00141643
0.00140756
0.00139848
0.00138922
0.00137977
0.00137014
0.00136033
0.00135034
0.00134019
0.00132987
0.00131938
0.00130874
0.00129795
0.00128701
0.00127592
0.00126469
0.00125332
0.00124182
0.00123018
0.00121842
0.00120654
0.00119453
0.00118241
0.00117018
0.00115783
0.00114538
0.00113283
0.00112017
0.00110742
0.00109458
0.00108164
0.00106862
0.00105551
0.00104232
0.00102904
0.0010157
0.00100227
0.000988777
0.000975212
0.00096158
0.000947884
0.000934126
0.000920307
0.00090643
0.000892498
0.000878512
0.000864475
0.000850387
0.000836252
0.000822071
0.000807846
0.000793579
0.000779271
0.000764924
0.00075054
0.00073612
0.000721666
0.000707179
0.00069266
0.000678112
0.000663535
0.00064893
0.0006343
0.000619644
0.000604964
0.000590262
0.000575539
0.000560794
0.000546031
0.000531248
0.000516448
0.000501631
0.000486799
0.000471951
0.000457089
0.000442214
0.000427326
0.000412425
0.000397514
0.000382591
0.000367659
0.000352717
0.000337767
0.000322807
0.000307841
0.000292866
0.000277885
0.000262898
0.000247905
0.000232906
0.000217902
0.000202894
0.000187881
0.000172864
0.000157844
0.000142821
0.000127795
0.000112766
9.77348e-05
8.27019e-05
6.76673e-05
5.26315e-05
3.75947e-05
2.25571e-05
7.51908e-06
2.76344e-05
8.29025e-05
0.000138168
0.000193429
0.000248684
0.000303931
0.000359168
0.000414392
0.000469603
0.000524798
0.000579974
0.00063513
0.000690263
0.000745369
0.000800448
0.000855495
0.000910508
0.000965484
0.00102042
0.00107531
0.00113015
0.00118494
0.00123968
0.00129435
0.00134896
0.0014035
0.00145797
0.00151235
0.00156665
0.00162086
0.00167497
0.00172897
0.00178287
0.00183665
0.0018903
0.00194382
0.00199719
0.00205042
0.0021035
0.0021564
0.00220913
0.00226168
0.00231403
0.00236618
0.00241811
0.00246981
0.00252128
0.0025725
0.00262346
0.00267415
0.00272455
0.00277466
0.00282445
0.00287392
0.00292306
0.00297185
0.00302027
0.00306831
0.00311596
0.0031632
0.00321002
0.0032564
0.00330234
0.0033478
0.00339278
0.00343726
0.00348122
0.00352466
0.00356755
0.00360988
0.00365163
0.00369278
0.00373333
0.00377325
0.00381253
0.00385116
0.00388911
0.00392637
0.00396294
0.00399878
0.00403389
0.00406825
0.00410186
0.00413468
0.00416672
0.00419796
0.00422838
0.00425797
0.00428672
0.00431462
0.00434165
0.00436781
0.00439309
0.00441747
0.00444094
0.0044635
0.00448514
0.00450585
0.00452563
0.00454446
0.00456233
0.00457926
0.00459522
0.00461022
0.00462425
0.0046373
0.00464938
0.00466049
0.00467062
0.00467977
0.00468794
0.00469514
0.00470135
0.0047066
0.00471087
0.00471417
0.0047165
0.00471787
0.00471829
0.00471775
0.00471626
0.00471384
0.00471048
0.00470619
0.00470098
0.00469486
0.00468783
0.00467992
0.00467111
0.00466143
0.00465088
0.00463948
0.00462723
0.00461415
0.00460025
0.00458553
0.00457001
0.0045537
0.00453661
0.00451877
0.00450016
0.00448082
0.00446075
0.00443997
0.00441848
0.0043963
0.00437345
0.00434994
0.00432577
0.00430097
0.00427554
0.0042495
0.00422286
0.00419564
0.00416785
0.00413949
0.00411059
0.00408115
0.00405119
0.00402073
0.00398976
0.00395831
0.00392639
0.003894
0.00386117
0.0038279
0.0037942
0.00376009
0.00372558
0.00369067
0.00365539
0.00361973
0.00358371
0.00354735
0.00351064
0.0034736
0.00343625
0.00339858
0.00336062
0.00332236
0.00328382
0.00324501
0.00320594
0.00316661
0.00312703
0.00308721
0.00304716
0.00300689
0.0029664
0.0029257
0.00288481
0.00284372
0.00280244
0.00276098
0.00271935
0.00267755
0.00263559
0.00259347
0.00255121
0.0025088
0.00246626
0.00242358
0.00238078
0.00233785
0.00229481
0.00225166
0.0022084
0.00216503
0.00212157
0.00207801
0.00203437
0.00199063
0.00194682
0.00190292
0.00185896
0.00181492
0.00177081
0.00172664
0.0016824
0.00163811
0.00159376
0.00154936
0.00150491
0.00146041
0.00141587
0.00137128
0.00132665
0.00128199
0.00123729
0.00119255
0.00114779
0.00110299
0.00105816
0.00101331
0.000968431
0.00092353
0.000878606
0.000833663
0.0007887
0.00074372
0.000698723
0.000653712
0.000608686
0.000563647
0.000518597
0.000473536
0.000428465
0.000383386
0.0003383
0.000293206
0.000248107
0.000203003
0.000157896
0.000112785
6.76717e-05
2.25574e-05
4.60584e-05
0.000138174
0.000230285
0.000322389
0.000414482
0.000506563
0.000598626
0.00069067
0.000782691
0.000874684
0.000966647
0.00105858
0.00115047
0.00124231
0.00133412
0.00142586
0.00151756
0.00160919
0.00170075
0.00179224
0.00188365
0.00197497
0.0020662
0.00215733
0.00224835
0.00233925
0.00243003
0.00252068
0.00261119
0.00270154
0.00279173
0.00288175
0.00297158
0.00306122
0.00315064
0.00323985
0.00332882
0.00341755
0.00350601
0.0035942
0.0036821
0.00376968
0.00385695
0.00394387
0.00403043
0.00411662
0.00420241
0.00428779
0.00437274
0.00445723
0.00454125
0.00462477
0.00470778
0.00479025
0.00487216
0.00495348
0.0050342
0.00511429
0.00519372
0.00527247
0.00535053
0.00542785
0.00550442
0.0055802
0.00565519
0.00572934
0.00580263
0.00587504
0.00594655
0.00601711
0.00608671
0.00615532
0.00622292
0.00628947
0.00635496
0.00641935
0.00648262
0.00654474
0.00660569
0.00666545
0.00672398
0.00678127
0.00683729
0.00689202
0.00694543
0.00699751
0.00704822
0.00709755
0.00714548
0.00719199
0.00723706
0.00728068
0.00732281
0.00736346
0.00740259
0.0074402
0.00747628
0.0075108
0.00754376
0.00757515
0.00760496
0.00763317
0.00765978
0.00768478
0.00770816
0.00772992
0.00775006
0.00776858
0.00778546
0.00780071
0.00781433
0.00782632
0.00783668
0.00784541
0.00785253
0.00785802
0.00786191
0.00786419
0.00786488
0.00786397
0.00786149
0.00785744
0.00785183
0.00784467
0.00783598
0.00782577
0.00781406
0.00780085
0.00778616
0.00777002
0.00775243
0.00773341
0.00771299
0.00769117
0.00766798
0.00764344
0.00761756
0.00759037
0.00756188
0.00753212
0.0075011
0.00746885
0.00743538
0.00740073
0.0073649
0.00732793
0.00728983
0.00725062
0.00721033
0.00716898
0.00712658
0.00708317
0.00703876
0.00699338
0.00694704
0.00689976
0.00685158
0.0068025
0.00675256
0.00670177
0.00665014
0.00659771
0.00654449
0.00649051
0.00643577
0.00638031
0.00632414
0.00626727
0.00620974
0.00615155
0.00609273
0.00603329
0.00597325
0.00591262
0.00585144
0.0057897
0.00572743
0.00566464
0.00560136
0.00553759
0.00547335
0.00540865
0.00534352
0.00527796
0.00521198
0.00514561
0.00507885
0.00501172
0.00494424
0.0048764
0.00480823
0.00473974
0.00467093
0.00460183
0.00453244
0.00446276
0.00439282
0.00432263
0.00425218
0.0041815
0.00411058
0.00403945
0.0039681
0.00389656
0.00382481
0.00375288
0.00368078
0.0036085
0.00353606
0.00346346
0.00339071
0.00331782
0.00324479
0.00317163
0.00309834
0.00302494
0.00295142
0.0028778
0.00280407
0.00273025
0.00265633
0.00258233
0.00250824
0.00243407
0.00235983
0.00228552
0.00221114
0.00213669
0.00206219
0.00198763
0.00191301
0.00183835
0.00176363
0.00168888
0.00161408
0.00153924
0.00146437
0.00138946
0.00131452
0.00123955
0.00116456
0.00108954
0.00101449
0.000939426
0.000864341
0.000789238
0.000714119
0.000638986
0.000563841
0.000488684
0.000413518
0.000338344
0.000263163
0.000187977
0.000112788
3.75961e-05
6.44839e-05
0.00019345
0.00032241
0.000451359
0.000580295
0.000709212
0.000838106
0.000966972
0.00109581
0.0012246
0.00135336
0.00148206
0.00161071
0.00173931
0.00186784
0.00199629
0.00212467
0.00225296
0.00238115
0.00250924
0.00263723
0.00276509
0.00289282
0.00302041
0.00314785
0.00327513
0.00340224
0.00352916
0.00365588
0.00378239
0.00390867
0.00403471
0.00416049
0.004286
0.00441121
0.00453612
0.00466071
0.00478494
0.00490881
0.0050323
0.00515537
0.00527802
0.00540021
0.00552192
0.00564314
0.00576383
0.00588396
0.00600352
0.00612248
0.00624079
0.00635845
0.00647541
0.00659165
0.00670714
0.00682184
0.00693573
0.00704877
0.00716093
0.00727217
0.00738246
0.00749176
0.00760005
0.00770728
0.00781342
0.00791843
0.00802228
0.00812493
0.00822634
0.00832648
0.00842531
0.00852279
0.00861888
0.00871355
0.00880676
0.00889848
0.00898866
0.00907728
0.00916429
0.00924965
0.00933335
0.00941533
0.00949557
0.00957403
0.00965068
0.00972549
0.00979842
0.00986945
0.00993854
0.0100057
0.0100708
0.0101339
0.010195
0.010254
0.010311
0.0103658
0.0104184
0.010469
0.0105173
0.0105635
0.0106074
0.0106492
0.0106887
0.0107259
0.010761
0.0107937
0.0108242
0.0108524
0.0108783
0.0109019
0.0109233
0.0109424
0.0109591
0.0109736
0.0109859
0.0109958
0.0110035
0.0110089
0.0110121
0.0110131
0.0110118
0.0110083
0.0110026
0.0109947
0.0109847
0.0109725
0.0109582
0.0109418
0.0109233
0.0109027
0.0108801
0.0108554
0.0108288
0.0108001
0.0107696
0.0107371
0.0107027
0.0106664
0.0106283
0.0105884
0.0105467
0.0105033
0.0104581
0.0104112
0.0103627
0.0103125
0.0102607
0.0102073
0.0101524
0.010096
0.010038
0.00997866
0.00991785
0.00985564
0.00979208
0.00972717
0.00966096
0.00959347
0.00952474
0.00945478
0.00938364
0.00931134
0.00923791
0.00916338
0.00908777
0.00901111
0.00893344
0.00885477
0.00877514
0.00869456
0.00861307
0.00853069
0.00844745
0.00836337
0.00827847
0.00819279
0.00810633
0.00801913
0.00793121
0.00784259
0.00775329
0.00766333
0.00757274
0.00748153
0.00738972
0.00729734
0.0072044
0.00711092
0.00701693
0.00692243
0.00682744
0.00673198
0.00663608
0.00653974
0.00644298
0.00634581
0.00624825
0.00615032
0.00605203
0.0059534
0.00585442
0.00575513
0.00565553
0.00555564
0.00545546
0.00535501
0.0052543
0.00515333
0.00505213
0.0049507
0.00484906
0.0047472
0.00464514
0.00454289
0.00444046
0.00433785
0.00423508
0.00413215
0.00402907
0.00392584
0.00382248
0.00371899
0.00361538
0.00351165
0.00340781
0.00330387
0.00319982
0.00309568
0.00299146
0.00288714
0.00278275
0.00267829
0.00257375
0.00246915
0.00236449
0.00225977
0.00215499
0.00205017
0.00194529
0.00184037
0.00173541
0.00163042
0.00152538
0.00142032
0.00131522
0.0012101
0.00110496
0.000999788
0.0008946
0.000789393
0.000684172
0.000578937
0.000473691
0.000368436
0.000263173
0.000157906
5.26357e-05
8.29115e-05
0.000248732
0.000414545
0.000580345
0.000746127
0.000911885
0.00107761
0.00124331
0.00140896
0.00157456
0.00174011
0.0019056
0.00207102
0.00223637
0.00240163
0.0025668
0.00273187
0.00289682
0.00306166
0.00322637
0.00339093
0.00355534
0.00371958
0.00388365
0.00404752
0.00421119
0.00437463
0.00453784
0.00470079
0.00486346
0.00502585
0.00518793
0.00534968
0.00551107
0.0056721
0.00583273
0.00599294
0.0061527
0.006312
0.0064708
0.00662908
0.00678681
0.00694395
0.00710049
0.00725638
0.00741159
0.0075661
0.00771986
0.00787285
0.00802502
0.00817635
0.00832678
0.00847628
0.00862482
0.00877235
0.00891884
0.00906423
0.00920849
0.00935157
0.00949343
0.00963403
0.00977331
0.00991124
0.0100478
0.0101828
0.0103164
0.0104485
0.0105789
0.0107077
0.0108349
0.0109603
0.0110839
0.0112057
0.0113256
0.0114435
0.0115596
0.0116735
0.0117855
0.0118953
0.012003
0.0121084
0.0122117
0.0123126
0.0124112
0.0125074
0.0126012
0.0126926
0.0127815
0.0128679
0.0129517
0.0130329
0.0131114
0.0131874
0.0132606
0.0133311
0.0133989
0.0134638
0.013526
0.0135854
0.013642
0.0136956
0.0137465
0.0137944
0.0138394
0.0138815
0.0139207
0.013957
0.0139903
0.0140207
0.0140482
0.0140727
0.0140942
0.0141129
0.0141286
0.0141414
0.0141512
0.0141582
0.0141623
0.0141635
0.0141618
0.0141573
0.01415
0.0141398
0.0141269
0.0141112
0.0140927
0.0140716
0.0140478
0.0140213
0.0139921
0.0139604
0.0139261
0.0138893
0.0138499
0.0138081
0.0137638
0.0137172
0.0136681
0.0136168
0.0135631
0.0135072
0.0134491
0.0133887
0.0133263
0.0132617
0.013195
0.0131264
0.0130557
0.0129831
0.0129086
0.0128322
0.0127539
0.0126739
0.0125921
0.0125086
0.0124234
0.0123366
0.0122482
0.0121582
0.0120667
0.0119737
0.0118792
0.0117833
0.0116861
0.0115875
0.0114876
0.0113864
0.0112839
0.0111803
0.0110755
0.0109695
0.0108625
0.0107543
0.0106451
0.0105349
0.0104237
0.0103116
0.0101985
0.0100845
0.00996966
0.00985396
0.00973745
0.00962015
0.00950208
0.00938327
0.00926374
0.00914353
0.00902264
0.00890111
0.00877895
0.0086562
0.00853286
0.00840897
0.00828453
0.00815958
0.00803413
0.00790819
0.00778179
0.00765495
0.00752768
0.0074
0.00727192
0.00714346
0.00701464
0.00688547
0.00675596
0.00662614
0.00649601
0.00636558
0.00623487
0.00610389
0.00597266
0.00584118
0.00570947
0.00557753
0.00544538
0.00531303
0.00518049
0.00504776
0.00491485
0.00478178
0.00464856
0.00451518
0.00438166
0.00424801
0.00411422
0.00398032
0.00384631
0.00371218
0.00357796
0.00344364
0.00330923
0.00317474
0.00304016
0.00290551
0.0027708
0.00263601
0.00250117
0.00236627
0.00223132
0.00209631
0.00196127
0.00182618
0.00169105
0.00155589
0.0014207
0.00128548
0.00115023
0.00101496
0.000879674
0.000744368
0.000609048
0.000473716
0.000338375
0.000203027
6.76762e-05
0.000101342
0.000304023
0.000506694
0.00070935
0.000911983
0.00111459
0.00131716
0.00151968
0.00172216
0.00192458
0.00212693
0.00232921
0.00253141
0.00273352
0.00293552
0.00313741
0.00333918
0.00354081
0.0037423
0.00394363
0.00414479
0.00434576
0.00454653
0.00474708
0.0049474
0.00514747
0.00534726
0.00554677
0.00574597
0.00594484
0.00614335
0.00634149
0.00653922
0.00673653
0.00693338
0.00712975
0.00732562
0.00752094
0.00771569
0.00790984
0.00810335
0.00829618
0.00848831
0.0086797
0.00887029
0.00906007
0.00924898
0.00943699
0.00962405
0.00981011
0.00999514
0.0101791
0.0103619
0.0105435
0.0107239
0.010903
0.0110808
0.0112572
0.0114322
0.0116057
0.0117776
0.0119479
0.0121166
0.0122836
0.0124488
0.0126121
0.0127736
0.0129332
0.0130907
0.0132462
0.0133995
0.0135507
0.0136996
0.0138463
0.0139906
0.0141325
0.0142719
0.0144088
0.0145431
0.0146748
0.0148038
0.01493
0.0150535
0.0151741
0.0152918
0.0154065
0.0155183
0.015627
0.0157326
0.0158351
0.0159344
0.0160305
0.0161234
0.0162129
0.0162992
0.016382
0.0164615
0.0165376
0.0166102
0.0166793
0.016745
0.0168071
0.0168657
0.0169208
0.0169723
0.0170202
0.0170645
0.0171053
0.0171424
0.017176
0.0172059
0.0172323
0.0172551
0.0172743
0.0172899
0.0173019
0.0173104
0.0173153
0.0173168
0.0173147
0.0173092
0.0173001
0.0172877
0.0172718
0.0172526
0.01723
0.0172041
0.0171749
0.0171425
0.0171068
0.017068
0.017026
0.0169809
0.0169327
0.0168816
0.0168274
0.0167703
0.0167103
0.0166474
0.0165818
0.0165133
0.0164422
0.0163684
0.016292
0.016213
0.0161314
0.0160474
0.015961
0.0158721
0.015781
0.0156875
0.0155918
0.0154939
0.0153939
0.0152918
0.0151876
0.0150814
0.0149732
0.0148632
0.0147512
0.0146375
0.014522
0.0144047
0.0142858
0.0141652
0.014043
0.0139192
0.013794
0.0136672
0.0135391
0.0134095
0.0132786
0.0131463
0.0130128
0.012878
0.0127421
0.0126049
0.0124667
0.0123273
0.0121869
0.0120454
0.011903
0.0117595
0.0116152
0.0114699
0.0113238
0.0111768
0.011029
0.0108804
0.0107311
0.010581
0.0104302
0.0102787
0.0101266
0.00997386
0.00982049
0.00966653
0.00951201
0.00935694
0.00920135
0.00904526
0.00888869
0.00873166
0.00857418
0.00841627
0.00825796
0.00809926
0.00794018
0.00778074
0.00762096
0.00746085
0.00730043
0.00713971
0.00697871
0.00681743
0.0066559
0.00649411
0.00633209
0.00616985
0.00600739
0.00584474
0.00568189
0.00551885
0.00535565
0.00519228
0.00502875
0.00486508
0.00470127
0.00453733
0.00437327
0.00420909
0.0040448
0.0038804
0.00371591
0.00355133
0.00338667
0.00322192
0.00305711
0.00289222
0.00272727
0.00256226
0.00239719
0.00223208
0.00206692
0.00190171
0.00173647
0.00157119
0.00140589
0.00124055
0.00107519
0.000909814
0.000744416
0.000579005
0.000413583
0.000248153
8.27181e-05
0.000119775
0.000359323
0.000598859
0.000838378
0.00107787
0.00131733
0.00155675
0.00179611
0.00203542
0.00227466
0.00251383
0.00275291
0.00299189
0.00323077
0.00346952
0.00370815
0.00394663
0.00418495
0.00442311
0.00466108
0.00489884
0.00513639
0.0053737
0.00561076
0.00584754
0.00608402
0.00632019
0.00655602
0.00679149
0.00702657
0.00726123
0.00749545
0.00772919
0.00796244
0.00819515
0.0084273
0.00865884
0.00888975
0.00911999
0.00934952
0.00957829
0.00980628
0.0100334
0.0102597
0.010485
0.0107094
0.0109328
0.0111551
0.0113762
0.0115962
0.011815
0.0120325
0.0122487
0.0124635
0.0126768
0.0128886
0.0130988
0.0133074
0.0135143
0.0137195
0.0139228
0.0141242
0.0143237
0.0145212
0.0147165
0.0149097
0.0151007
0.0152894
0.0154757
0.0156596
0.015841
0.0160198
0.0161959
0.0163694
0.0165401
0.0167079
0.0168728
0.0170347
0.0171936
0.0173493
0.0175019
0.0176512
0.0177972
0.0179399
0.0180791
0.0182148
0.018347
0.0184756
0.0186005
0.0187218
0.0188392
0.0189529
0.0190627
0.0191686
0.0192706
0.0193686
0.0194626
0.0195526
0.0196385
0.0197202
0.0197979
0.0198714
0.0199406
0.0200057
0.0200666
0.0201233
0.0201757
0.0202239
0.0202678
0.0203074
0.0203428
0.020374
0.0204009
0.0204235
0.0204419
0.0204561
0.0204661
0.0204719
0.0204736
0.0204711
0.0204645
0.0204538
0.020439
0.0204202
0.0203974
0.0203706
0.0203399
0.0203054
0.0202669
0.0202247
0.0201787
0.020129
0.0200756
0.0200186
0.019958
0.0198939
0.0198263
0.0197553
0.0196809
0.0196032
0.0195222
0.019438
0.0193507
0.0192603
0.0191668
0.0190703
0.0189709
0.0188686
0.0187636
0.0186557
0.0185451
0.0184319
0.0183161
0.0181978
0.018077
0.0179537
0.0178281
0.0177002
0.01757
0.0174376
0.0173031
0.0171665
0.0170278
0.0168871
0.0167445
0.0166
0.0164536
0.0163055
0.0161556
0.016004
0.0158508
0.015696
0.0155396
0.0153817
0.0152224
0.0150616
0.0148995
0.014736
0.0145712
0.0144052
0.0142379
0.0140695
0.0138999
0.0137292
0.0135575
0.0133847
0.0132109
0.0130362
0.0128605
0.012684
0.0125065
0.0123283
0.0121492
0.0119694
0.0117888
0.0116075
0.0114254
0.0112428
0.0110595
0.0108755
0.010691
0.0105059
0.0103203
0.0101342
0.0099475
0.00976036
0.00957276
0.00938472
0.00919626
0.00900739
0.00881814
0.00862852
0.00843854
0.00824823
0.0080576
0.00786666
0.00767544
0.00748393
0.00729216
0.00710015
0.00690789
0.0067154
0.00652271
0.0063298
0.00613671
0.00594343
0.00574998
0.00555637
0.00536261
0.00516869
0.00497465
0.00478047
0.00458617
0.00439176
0.00419724
0.00400262
0.00380791
0.00361312
0.00341824
0.00322328
0.00302826
0.00283317
0.00263803
0.00244283
0.00224758
0.00205228
0.00185694
0.00166157
0.00146617
0.00127073
0.00107528
0.0008798
0.000684306
0.000488799
0.000293283
9.77617e-05
0.000138213
0.000414635
0.000691044
0.000967432
0.00124379
0.00152011
0.00179639
0.0020726
0.00234875
0.00262483
0.00290081
0.0031767
0.00345248
0.00372814
0.00400366
0.00427903
0.00455424
0.00482927
0.0051041
0.00537872
0.00565311
0.00592725
0.00620113
0.00647471
0.00674797
0.0070209
0.00729347
0.00756564
0.0078374
0.00810872
0.00837956
0.00864989
0.00891968
0.00918889
0.0094575
0.00972545
0.00999271
0.0102592
0.010525
0.01079
0.011054
0.0113172
0.0115794
0.0118406
0.0121008
0.0123598
0.0126177
0.0128743
0.0131296
0.0133836
0.0136362
0.0138873
0.0141369
0.0143848
0.0146311
0.0148757
0.0151185
0.0153593
0.0155982
0.0158351
0.0160699
0.0163025
0.0165328
0.0167609
0.0169865
0.0172096
0.0174301
0.017648
0.0178632
0.0180755
0.018285
0.0184915
0.018695
0.0188953
0.0190924
0.0192862
0.0194767
0.0196637
0.0198472
0.020027
0.0202033
0.0203757
0.0205444
0.0207091
0.0208699
0.0210267
0.0211794
0.0213279
0.0214722
0.0216122
0.0217479
0.0218791
0.022006
0.0221283
0.0222461
0.0223593
0.0224678
0.0225717
0.0226709
0.0227653
0.0228549
0.0229398
0.0230198
0.0230949
0.0231652
0.0232306
0.0232911
0.0233467
0.0233974
0.0234431
0.023484
0.0235199
0.0235509
0.023577
0.0235982
0.0236146
0.0236261
0.0236327
0.0236346
0.0236316
0.0236239
0.0236115
0.0235944
0.0235726
0.0235462
0.0235152
0.0234797
0.0234397
0.0233952
0.0233464
0.0232932
0.0232357
0.023174
0.0231081
0.023038
0.0229639
0.0228858
0.0228037
0.0227177
0.0226279
0.0225343
0.0224371
0.0223361
0.0222316
0.0221236
0.0220122
0.0218973
0.0217792
0.0216577
0.0215331
0.0214054
0.0212746
0.0211409
0.0210042
0.0208646
0.0207223
0.0205772
0.0204294
0.0202791
0.0201262
0.0199708
0.019813
0.0196528
0.0194904
0.0193257
0.0191588
0.0189898
0.0188188
0.0186457
0.0184707
0.0182938
0.018115
0.0179345
0.0177522
0.0175682
0.0173826
0.0171953
0.0170066
0.0168163
0.0166247
0.0164316
0.0162371
0.0160413
0.0158443
0.015646
0.0154466
0.015246
0.0150443
0.0148415
0.0146377
0.0144329
0.0142271
0.0140204
0.0138128
0.0136044
0.0133951
0.013185
0.0129742
0.0127626
0.0125503
0.0123374
0.0121237
0.0119095
0.0116946
0.0114792
0.0112632
0.0110467
0.0108297
0.0106122
0.0103942
0.0101758
0.00995696
0.00973771
0.00951808
0.00929808
0.00907773
0.00885705
0.00863604
0.00841474
0.00819314
0.00797127
0.00774915
0.00752677
0.00730416
0.00708133
0.00685829
0.00663506
0.00641163
0.00618803
0.00596426
0.00574034
0.00551627
0.00529206
0.00506772
0.00484325
0.00461868
0.00439399
0.00416921
0.00394433
0.00371937
0.00349433
0.00326922
0.00304403
0.00281879
0.00259349
0.00236813
0.00214273
0.00191729
0.00169181
0.0014663
0.00124076
0.0010152
0.000789621
0.000564025
0.000338419
0.000112807
0.000156655
0.000469959
0.00078325
0.00109652
0.00140975
0.00172294
0.00203608
0.00234916
0.00266216
0.00297508
0.0032879
0.00360061
0.0039132
0.00422565
0.00453795
0.00485008
0.00516203
0.00547378
0.00578531
0.0060966
0.00640764
0.0067184
0.00702885
0.00733897
0.00764875
0.00795814
0.00826713
0.00857568
0.00888377
0.00919135
0.0094984
0.00980487
0.0101107
0.010416
0.0107205
0.0110243
0.0113273
0.0116295
0.0119308
0.0122313
0.0125307
0.0128291
0.0131264
0.0134226
0.0137176
0.0140114
0.0143038
0.0145948
0.0148844
0.0151724
0.0154588
0.0157436
0.0160267
0.0163079
0.0165873
0.0168646
0.01714
0.0174132
0.0176842
0.0179529
0.0182192
0.018483
0.0187443
0.019003
0.0192589
0.019512
0.0197622
0.0200094
0.0202535
0.0204944
0.020732
0.0209663
0.0211971
0.0214244
0.021648
0.0218679
0.022084
0.0222962
0.0225044
0.0227085
0.0229084
0.0231041
0.0232954
0.0234824
0.0236648
0.0238427
0.0240159
0.0241844
0.0243481
0.024507
0.0246609
0.0248098
0.0249537
0.0250925
0.0252261
0.0253545
0.0254777
0.0255955
0.025708
0.0258151
0.0259168
0.026013
0.0261038
0.026189
0.0262687
0.0263429
0.0264115
0.0264745
0.0265319
0.0265838
0.0266301
0.0266708
0.0267059
0.0267354
0.0267594
0.0267779
0.0267909
0.0267983
0.0268003
0.0267969
0.0267881
0.0267739
0.0267544
0.0267296
0.0266995
0.0266643
0.0266239
0.0265784
0.0265279
0.0264724
0.026412
0.0263467
0.0262765
0.0262017
0.0261221
0.0260379
0.0259492
0.025856
0.0257584
0.0256564
0.0255502
0.0254397
0.0253252
0.0252065
0.0250839
0.0249574
0.024827
0.0246929
0.0245551
0.0244137
0.0242688
0.0241204
0.0239686
0.0238134
0.0236551
0.0234936
0.0233289
0.0231613
0.0229907
0.0228172
0.022641
0.0224619
0.0222802
0.0220959
0.0219091
0.0217198
0.0215281
0.0213341
0.0211378
0.0209393
0.0207386
0.0205358
0.020331
0.0201243
0.0199156
0.0197051
0.0194928
0.0192787
0.019063
0.0188456
0.0186266
0.0184061
0.0181841
0.0179607
0.0177358
0.0175097
0.0172822
0.0170535
0.0168236
0.0165925
0.0163602
0.0161269
0.0158926
0.0156572
0.0154209
0.0151836
0.0149454
0.0147064
0.0144665
0.0142258
0.0139844
0.0137422
0.0134993
0.0132557
0.0130115
0.0127666
0.0125212
0.0122752
0.0120286
0.0117815
0.0115339
0.0112858
0.0110373
0.0107883
0.0105389
0.0102891
0.010039
0.00978847
0.00953761
0.00928642
0.00903493
0.00878314
0.00853108
0.00827875
0.00802617
0.00777336
0.00752032
0.00726708
0.00701363
0.00676
0.00650619
0.00625221
0.00599808
0.0057438
0.00548939
0.00523484
0.00498018
0.0047254
0.00447052
0.00421554
0.00396048
0.00370533
0.0034501
0.00319481
0.00293945
0.00268403
0.00242856
0.00217305
0.00191749
0.0016619
0.00140627
0.00115062
0.000894951
0.000639262
0.000383562
0.000127855
0.000175101
0.000525298
0.00087548
0.00122564
0.00157576
0.00192583
0.00227585
0.00262579
0.00297566
0.00332543
0.0036751
0.00402464
0.00437405
0.00472331
0.00507241
0.00542132
0.00577003
0.00611851
0.00646676
0.00681475
0.00716245
0.00750984
0.0078569
0.0082036
0.00854991
0.0088958
0.00924124
0.0095862
0.00993064
0.0102745
0.0106178
0.0109605
0.0113025
0.0116437
0.0119842
0.0123239
0.0126628
0.0130007
0.0133376
0.0136735
0.0140084
0.0143421
0.0146746
0.0150058
0.0153357
0.0156642
0.0159913
0.0163168
0.0166406
0.0169628
0.0172832
0.0176017
0.0179183
0.0182329
0.0185454
0.0188557
0.0191636
0.0194693
0.0197724
0.020073
0.0203709
0.0206661
0.0209584
0.0212478
0.0215341
0.0218173
0.0220973
0.0223738
0.022647
0.0229165
0.0231824
0.0234446
0.0237028
0.0239571
0.0242074
0.0244535
0.0246953
0.0249327
0.0251657
0.0253941
0.0256178
0.0258368
0.0260509
0.0262601
0.0264643
0.0266633
0.0268571
0.0270457
0.0272289
0.0274067
0.0275789
0.0277456
0.0279066
0.0280619
0.0282114
0.0283551
0.0284929
0.0286247
0.0287506
0.0288704
0.0289842
0.0290918
0.0291933
0.0292886
0.0293778
0.0294607
0.0295374
0.0296079
0.0296721
0.02973
0.0297818
0.0298272
0.0298664
0.0298994
0.0299262
0.0299468
0.0299612
0.0299694
0.0299716
0.0299676
0.0299577
0.0299417
0.0299197
0.0298919
0.0298581
0.0298186
0.0297733
0.0297223
0.0296656
0.0296034
0.0295356
0.0294624
0.0293839
0.0293
0.0292108
0.0291165
0.0290171
0.0289127
0.0288034
0.0286892
0.0285702
0.0284466
0.0283183
0.0281854
0.0280481
0.0279065
0.0277606
0.0276104
0.0274562
0.0272979
0.0271356
0.0269695
0.0267996
0.026626
0.0264487
0.026268
0.0260837
0.0258961
0.0257052
0.0255111
0.0253139
0.0251135
0.0249103
0.0247041
0.024495
0.0242832
0.0240688
0.0238517
0.0236321
0.02341
0.0231855
0.0229587
0.0227296
0.0224983
0.0222649
0.0220294
0.021792
0.0215525
0.0213112
0.0210681
0.0208232
0.0205766
0.0203283
0.0200784
0.019827
0.0195741
0.0193197
0.0190639
0.0188068
0.0185484
0.0182887
0.0180278
0.0177658
0.0175026
0.0172383
0.016973
0.0167067
0.0164394
0.0161712
0.0159021
0.0156321
0.0153614
0.0150898
0.0148175
0.0145444
0.0142707
0.0139962
0.0137212
0.0134455
0.0131693
0.0128925
0.0126151
0.0123373
0.012059
0.0117802
0.0115009
0.0112213
0.0109412
0.0106608
0.01038
0.0100989
0.00981742
0.00953565
0.00925359
0.00897125
0.00868865
0.00840581
0.00812273
0.00783942
0.00755591
0.00727221
0.00698832
0.00670425
0.00642003
0.00613565
0.00585113
0.00556648
0.0052817
0.00499681
0.00471181
0.00442671
0.00414152
0.00385625
0.0035709
0.00328547
0.00299999
0.00271444
0.00242885
0.00214321
0.00185753
0.00157181
0.00128607
0.0010003
0.000714511
0.000428712
0.000142905
0.000193553
0.000580653
0.000967737
0.00135479
0.00174181
0.00212878
0.00251568
0.00290251
0.00328925
0.00367589
0.00406242
0.00444881
0.00483506
0.00522115
0.00560705
0.00599276
0.00637825
0.00676349
0.00714848
0.00753318
0.00791757
0.00830163
0.00868532
0.00906862
0.00945149
0.00983391
0.0102158
0.0105972
0.0109781
0.0113583
0.0117379
0.0121168
0.0124949
0.0128723
0.0132488
0.0136244
0.0139991
0.0143728
0.0147454
0.0151169
0.0154872
0.0158563
0.016224
0.0165904
0.0169553
0.0173186
0.0176803
0.0180403
0.0183986
0.018755
0.0191094
0.0194617
0.019812
0.02016
0.0205057
0.020849
0.0211897
0.0215278
0.0218632
0.0221958
0.0225255
0.0228521
0.0231755
0.0234957
0.0238126
0.0241259
0.0244357
0.0247418
0.025044
0.0253423
0.0256366
0.0259267
0.0262125
0.026494
0.0267709
0.0270433
0.0273109
0.0275737
0.0278315
0.0280843
0.028332
0.0285743
0.0288113
0.0290429
0.0292688
0.0294891
0.0297037
0.0299124
0.0301152
0.0303119
0.0305025
0.030687
0.0308652
0.0310371
0.0312025
0.0313615
0.031514
0.0316599
0.0317992
0.0319318
0.0320576
0.0321767
0.032289
0.0323945
0.0324931
0.0325848
0.0326696
0.0327475
0.0328185
0.0328826
0.0329397
0.0329899
0.0330332
0.0330696
0.0330992
0.0331218
0.0331376
0.0331467
0.0331489
0.0331444
0.0331333
0.0331154
0.033091
0.03306
0.0330226
0.0329786
0.0329284
0.0328718
0.0328089
0.0327399
0.0326648
0.0325836
0.0324965
0.0324035
0.0323048
0.0322003
0.0320901
0.0319745
0.0318533
0.0317268
0.031595
0.031458
0.0313159
0.0311688
0.0310168
0.0308599
0.0306983
0.030532
0.0303612
0.030186
0.0300063
0.0298224
0.0296343
0.0294421
0.0292459
0.0290458
0.0288419
0.0286343
0.028423
0.0282082
0.0279899
0.0277682
0.0275432
0.027315
0.0270837
0.0268493
0.026612
0.0263718
0.0261288
0.0258831
0.0256348
0.0253838
0.0251304
0.0248745
0.0246163
0.0243558
0.0240931
0.0238283
0.0235613
0.0232924
0.0230215
0.0227487
0.0224741
0.0221977
0.0219197
0.0216399
0.0213586
0.0210757
0.0207914
0.0205056
0.0202184
0.0199299
0.0196401
0.019349
0.0190568
0.0187634
0.0184689
0.0181734
0.0178768
0.0175792