/*--------------------------------*- C++ -*----------------------------------*\
| =========                 |                                                 |
| \\      /  F ield         | OpenFOAM: The Open Source CFD Toolbox           |
|  \\    /   O peration     | Version:  v2012                                 |
|   \\  /    A nd           | Website:  www.openfoam.com                      |
|    \\/     M anipulation  |                                                 |
\*---------------------------------------------------------------------------*/
FoamFile
{
    version     2.0;
    format      ascii;
    class       volVectorField;
    location    "6";
    object      U;
}
// * * * * * * * * * * * * * * * * * * * * * * * * * * * * * * * * * * * * * //

dimensions      [0 1 -1 0 0 0 0];


internalField   nonuniform List<vector> 
65536
(
(0.000750553 -0.000750569 0)
(0.00225166 -0.000750548 0)
(0.00375273 -0.000750497 0)
(0.00525366 -0.000750425 0)
(0.00675442 -0.000750327 0)
(0.00825496 -0.000750205 0)
(0.00975523 -0.000750056 0)
(0.0112552 -0.000749879 0)
(0.0127547 -0.000749675 0)
(0.0142539 -0.00074944 0)
(0.0157525 -0.000749175 0)
(0.0172506 -0.000748878 0)
(0.018748 -0.000748547 0)
(0.0202448 -0.00074818 0)
(0.0217407 -0.000747775 0)
(0.0232359 -0.000747331 0)
(0.0247301 -0.000746845 0)
(0.0262232 -0.000746315 0)
(0.0277153 -0.000745738 0)
(0.0292062 -0.000745113 0)
(0.0306958 -0.000744435 0)
(0.032184 -0.000743704 0)
(0.0336706 -0.000742914 0)
(0.0351557 -0.000742064 0)
(0.0366389 -0.00074115 0)
(0.0381203 -0.000740169 0)
(0.0395996 -0.000739117 0)
(0.0410768 -0.000737992 0)
(0.0425516 -0.000736789 0)
(0.044024 -0.000735504 0)
(0.0454937 -0.000734134 0)
(0.0469606 -0.000732676 0)
(0.0484245 -0.000731124 0)
(0.0498852 -0.000729475 0)
(0.0513424 -0.000727726 0)
(0.0527961 -0.000725871 0)
(0.054246 -0.000723907 0)
(0.0556918 -0.000721829 0)
(0.0571334 -0.000719633 0)
(0.0585705 -0.000717315 0)
(0.0600027 -0.000714871 0)
(0.06143 -0.000712295 0)
(0.062852 -0.000709584 0)
(0.0642685 -0.000706733 0)
(0.0656791 -0.000703739 0)
(0.0670835 -0.000700596 0)
(0.0684816 -0.0006973 0)
(0.0698729 -0.000693848 0)
(0.0712571 -0.000690234 0)
(0.0726339 -0.000686456 0)
(0.074003 -0.000682508 0)
(0.0753641 -0.000678387 0)
(0.0767167 -0.00067409 0)
(0.0780606 -0.000669612 0)
(0.0793953 -0.00066495 0)
(0.0807205 -0.0006601 0)
(0.0820359 -0.000655059 0)
(0.0833409 -0.000649824 0)
(0.0846353 -0.000644392 0)
(0.0859187 -0.00063876 0)
(0.0871905 -0.000632925 0)
(0.0884505 -0.000626886 0)
(0.0896982 -0.000620639 0)
(0.0909333 -0.000614183 0)
(0.0921551 -0.000607516 0)
(0.0933635 -0.000600636 0)
(0.0945579 -0.000593544 0)
(0.0957378 -0.000586236 0)
(0.096903 -0.000578714 0)
(0.0980529 -0.000570976 0)
(0.0991871 -0.000563023 0)
(0.100305 -0.000554854 0)
(0.101407 -0.00054647 0)
(0.102491 -0.000537872 0)
(0.103558 -0.000529061 0)
(0.104608 -0.000520038 0)
(0.105639 -0.000510806 0)
(0.106651 -0.000501365 0)
(0.107644 -0.00049172 0)
(0.108618 -0.000481872 0)
(0.109572 -0.000471824 0)
(0.110505 -0.00046158 0)
(0.111418 -0.000451144 0)
(0.11231 -0.000440519 0)
(0.113181 -0.00042971 0)
(0.114029 -0.000418721 0)
(0.114856 -0.000407558 0)
(0.11566 -0.000396225 0)
(0.116441 -0.000384729 0)
(0.117199 -0.000373074 0)
(0.117933 -0.000361268 0)
(0.118644 -0.000349316 0)
(0.11933 -0.000337225 0)
(0.119993 -0.000325002 0)
(0.12063 -0.000312654 0)
(0.121243 -0.000300188 0)
(0.121831 -0.000287611 0)
(0.122394 -0.000274931 0)
(0.122931 -0.000262155 0)
(0.123443 -0.000249292 0)
(0.123928 -0.000236349 0)
(0.124388 -0.000223335 0)
(0.124822 -0.000210257 0)
(0.125229 -0.000197125 0)
(0.12561 -0.000183945 0)
(0.125965 -0.000170727 0)
(0.126293 -0.000157479 0)
(0.126595 -0.000144209 0)
(0.12687 -0.000130926 0)
(0.127118 -0.000117637 0)
(0.12734 -0.000104352 0)
(0.127536 -9.1078e-05 0)
(0.127705 -7.78234e-05 0)
(0.127847 -6.45963e-05 0)
(0.127963 -5.14044e-05 0)
(0.128052 -3.82555e-05 0)
(0.128116 -2.51571e-05 0)
(0.128153 -1.21168e-05 0)
(0.128164 8.58754e-07 0)
(0.128149 1.37606e-05 0)
(0.128109 2.6583e-05 0)
(0.128043 3.93195e-05 0)
(0.127952 5.19633e-05 0)
(0.127835 6.45081e-05 0)
(0.127693 7.69477e-05 0)
(0.127527 8.92762e-05 0)
(0.127336 0.000101488 0)
(0.127121 0.000113578 0)
(0.126882 0.000125541 0)
(0.126619 0.000137373 0)
(0.126332 0.000149067 0)
(0.126022 0.000160621 0)
(0.125689 0.00017203 0)
(0.125334 0.000183291 0)
(0.124956 0.000194399 0)
(0.124556 0.000205352 0)
(0.124134 0.000216147 0)
(0.123691 0.00022678 0)
(0.123227 0.000237249 0)
(0.122742 0.000247552 0)
(0.122236 0.000257686 0)
(0.121711 0.000267651 0)
(0.121166 0.000277444 0)
(0.120601 0.000287064 0)
(0.120017 0.00029651 0)
(0.119415 0.000305781 0)
(0.118794 0.000314876 0)
(0.118155 0.000323796 0)
(0.117498 0.000332539 0)
(0.116825 0.000341106 0)
(0.116134 0.000349496 0)
(0.115426 0.000357711 0)
(0.114703 0.000365749 0)
(0.113963 0.000373613 0)
(0.113208 0.000381302 0)
(0.112438 0.000388818 0)
(0.111652 0.000396161 0)
(0.110853 0.000403334 0)
(0.110039 0.000410336 0)
(0.109211 0.00041717 0)
(0.10837 0.000423838 0)
(0.107516 0.00043034 0)
(0.106648 0.000436679 0)
(0.105769 0.000442856 0)
(0.104877 0.000448874 0)
(0.103973 0.000454734 0)
(0.103058 0.000460438 0)
(0.102131 0.000465989 0)
(0.101193 0.000471389 0)
(0.100245 0.000476639 0)
(0.0992867 0.000481743 0)
(0.0983181 0.000486702 0)
(0.0973397 0.000491519 0)
(0.0963518 0.000496197 0)
(0.0953547 0.000500736 0)
(0.0943487 0.000505141 0)
(0.093334 0.000509414 0)
(0.0923109 0.000513556 0)
(0.0912796 0.000517571 0)
(0.0902404 0.000521461 0)
(0.0891936 0.000525229 0)
(0.0881393 0.000528877 0)
(0.0870779 0.000532407 0)
(0.0860095 0.000535823 0)
(0.0849344 0.000539126 0)
(0.0838529 0.000542319 0)
(0.082765 0.000545405 0)
(0.0816711 0.000548385 0)
(0.0805713 0.000551264 0)
(0.0794659 0.000554042 0)
(0.078355 0.000556723 0)
(0.0772389 0.000559308 0)
(0.0761176 0.0005618 0)
(0.0749915 0.000564202 0)
(0.0738607 0.000566515 0)
(0.0727253 0.000568743 0)
(0.0715856 0.000570887 0)
(0.0704417 0.000572949 0)
(0.0692937 0.000574933 0)
(0.0681418 0.000576839 0)
(0.0669862 0.00057867 0)
(0.065827 0.000580429 0)
(0.0646644 0.000582117 0)
(0.0634984 0.000583737 0)
(0.0623293 0.00058529 0)
(0.0611572 0.000586779 0)
(0.0599821 0.000588205 0)
(0.0588043 0.00058957 0)
(0.0576237 0.000590877 0)
(0.0564407 0.000592127 0)
(0.0552551 0.000593321 0)
(0.0540673 0.000594462 0)
(0.0528772 0.000595552 0)
(0.051685 0.000596592 0)
(0.0504907 0.000597584 0)
(0.0492946 0.000598529 0)
(0.0480965 0.00059943 0)
(0.0468968 0.000600287 0)
(0.0456953 0.000601103 0)
(0.0444923 0.000601879 0)
(0.0432877 0.000602615 0)
(0.0420817 0.000603315 0)
(0.0408744 0.000603979 0)
(0.0396658 0.000604608 0)
(0.0384559 0.000605204 0)
(0.0372449 0.000605768 0)
(0.0360328 0.000606301 0)
(0.0348196 0.000606805 0)
(0.0336055 0.000607281 0)
(0.0323904 0.00060773 0)
(0.0311745 0.000608152 0)
(0.0299578 0.00060855 0)
(0.0287402 0.000608924 0)
(0.027522 0.000609274 0)
(0.0263031 0.000609603 0)
(0.0250835 0.00060991 0)
(0.0238634 0.000610198 0)
(0.0226427 0.000610465 0)
(0.0214215 0.000610714 0)
(0.0201998 0.000610945 0)
(0.0189777 0.000611159 0)
(0.0177551 0.000611357 0)
(0.0165322 0.000611538 0)
(0.0153089 0.000611704 0)
(0.0140853 0.000611856 0)
(0.0128615 0.000611993 0)
(0.0116373 0.000612116 0)
(0.0104129 0.000612226 0)
(0.00918837 0.000612322 0)
(0.00796361 0.000612406 0)
(0.0067387 0.000612478 0)
(0.00551366 0.000612537 0)
(0.00428851 0.000612585 0)
(0.00306328 0.00061262 0)
(0.001838 0.000612643 0)
(0.000612677 0.000612655 0)
(0.000750576 -0.00225171 0)
(0.00225174 -0.00225164 0)
(0.00375285 -0.0022515 0)
(0.00525383 -0.00225128 0)
(0.00675464 -0.00225099 0)
(0.00825523 -0.00225062 0)
(0.00975556 -0.00225018 0)
(0.0112556 -0.00224965 0)
(0.0127552 -0.00224904 0)
(0.0142544 -0.00224833 0)
(0.0157531 -0.00224754 0)
(0.0172512 -0.00224665 0)
(0.0187487 -0.00224566 0)
(0.0202455 -0.00224456 0)
(0.0217416 -0.00224335 0)
(0.0232368 -0.00224202 0)
(0.0247311 -0.00224056 0)
(0.0262244 -0.00223897 0)
(0.0277166 -0.00223725 0)
(0.0292075 -0.00223537 0)
(0.0306972 -0.00223334 0)
(0.0321855 -0.00223115 0)
(0.0336723 -0.00222879 0)
(0.0351575 -0.00222624 0)
(0.0366408 -0.0022235 0)
(0.0381224 -0.00222056 0)
(0.0396018 -0.00221741 0)
(0.0410792 -0.00221404 0)
(0.0425542 -0.00221043 0)
(0.0440267 -0.00220658 0)
(0.0454966 -0.00220248 0)
(0.0469636 -0.0021981 0)
(0.0484277 -0.00219345 0)
(0.0498886 -0.00218851 0)
(0.0513461 -0.00218327 0)
(0.0528 -0.00217771 0)
(0.0542501 -0.00217182 0)
(0.0556962 -0.00216559 0)
(0.057138 -0.00215901 0)
(0.0585753 -0.00215206 0)
(0.0600078 -0.00214473 0)
(0.0614354 -0.002137 0)
(0.0628576 -0.00212888 0)
(0.0642744 -0.00212033 0)
(0.0656853 -0.00211135 0)
(0.06709 -0.00210192 0)
(0.0684884 -0.00209204 0)
(0.06988 -0.00208169 0)
(0.0712645 -0.00207085 0)
(0.0726417 -0.00205952 0)
(0.0740112 -0.00204768 0)
(0.0753726 -0.00203532 0)
(0.0767256 -0.00202243 0)
(0.0780698 -0.002009 0)
(0.0794049 -0.00199502 0)
(0.0807305 -0.00198047 0)
(0.0820462 -0.00196535 0)
(0.0833517 -0.00194965 0)
(0.0846465 -0.00193336 0)
(0.0859302 -0.00191647 0)
(0.0872025 -0.00189896 0)
(0.0884629 -0.00188085 0)
(0.089711 -0.00186211 0)
(0.0909465 -0.00184274 0)
(0.0921688 -0.00182274 0)
(0.0933775 -0.0018021 0)
(0.0945724 -0.00178083 0)
(0.0957528 -0.00175891 0)
(0.0969183 -0.00173634 0)
(0.0980687 -0.00171312 0)
(0.0992033 -0.00168926 0)
(0.100322 -0.00166476 0)
(0.101424 -0.0016396 0)
(0.102509 -0.00161381 0)
(0.103576 -0.00158737 0)
(0.104626 -0.0015603 0)
(0.105657 -0.0015326 0)
(0.10667 -0.00150428 0)
(0.107664 -0.00147534 0)
(0.108638 -0.00144579 0)
(0.109592 -0.00141565 0)
(0.110526 -0.00138491 0)
(0.11144 -0.0013536 0)
(0.112332 -0.00132172 0)
(0.113202 -0.00128928 0)
(0.114051 -0.00125631 0)
(0.114878 -0.00122282 0)
(0.115682 -0.00118881 0)
(0.116464 -0.00115432 0)
(0.117222 -0.00111935 0)
(0.117957 -0.00108392 0)
(0.118668 -0.00104806 0)
(0.119355 -0.00101178 0)
(0.120017 -0.000975103 0)
(0.120655 -0.000938051 0)
(0.121269 -0.000900645 0)
(0.121857 -0.000862906 0)
(0.12242 -0.000824858 0)
(0.122957 -0.000786523 0)
(0.123469 -0.000747926 0)
(0.123954 -0.000709089 0)
(0.124414 -0.000670038 0)
(0.124848 -0.000630796 0)
(0.125255 -0.000591389 0)
(0.125637 -0.000551842 0)
(0.125991 -0.000512179 0)
(0.12632 -0.000472426 0)
(0.126621 -0.000432608 0)
(0.126897 -0.000392749 0)
(0.127145 -0.000352875 0)
(0.127367 -0.000313011 0)
(0.127562 -0.000273181 0)
(0.127731 -0.000233409 0)
(0.127873 -0.000193719 0)
(0.127989 -0.000154135 0)
(0.128079 -0.000114681 0)
(0.128142 -7.53785e-05 0)
(0.128179 -3.62503e-05 0)
(0.12819 2.68204e-06 0)
(0.128175 4.13954e-05 0)
(0.128135 7.98703e-05 0)
(0.128068 0.000118087 0)
(0.127977 0.000156025 0)
(0.12786 0.000193665 0)
(0.127718 0.00023099 0)
(0.127552 0.000267981 0)
(0.127361 0.000304623 0)
(0.127145 0.000340898 0)
(0.126906 0.000376792 0)
(0.126642 0.00041229 0)
(0.126355 0.000447379 0)
(0.126045 0.000482045 0)
(0.125712 0.000516276 0)
(0.125356 0.000550061 0)
(0.124978 0.00058339 0)
(0.124578 0.000616251 0)
(0.124156 0.000648637 0)
(0.123712 0.000680538 0)
(0.123248 0.000711948 0)
(0.122762 0.000742858 0)
(0.122257 0.000773264 0)
(0.121731 0.000803159 0)
(0.121185 0.000832539 0)
(0.12062 0.0008614 0)
(0.120036 0.000889739 0)
(0.119433 0.000917553 0)
(0.118812 0.00094484 0)
(0.118173 0.000971598 0)
(0.117516 0.000997827 0)
(0.116842 0.00102353 0)
(0.11615 0.0010487 0)
(0.115443 0.00107334 0)
(0.114719 0.00109746 0)
(0.113979 0.00112105 0)
(0.113223 0.00114411 0)
(0.112453 0.00116666 0)
(0.111667 0.00118869 0)
(0.110867 0.0012102 0)
(0.110053 0.00123121 0)
(0.109225 0.00125171 0)
(0.108383 0.00127171 0)
(0.107529 0.00129121 0)
(0.106661 0.00131023 0)
(0.105781 0.00132876 0)
(0.104889 0.00134681 0)
(0.103985 0.00136439 0)
(0.103069 0.0013815 0)
(0.102142 0.00139815 0)
(0.101204 0.00141434 0)
(0.100256 0.00143009 0)
(0.0992969 0.0014454 0)
(0.098328 0.00146028 0)
(0.0973493 0.00147473 0)
(0.0963612 0.00148875 0)
(0.0953638 0.00150237 0)
(0.0943575 0.00151558 0)
(0.0933425 0.0015284 0)
(0.0923191 0.00154082 0)
(0.0912876 0.00155286 0)
(0.0902482 0.00156453 0)
(0.0892011 0.00157583 0)
(0.0881466 0.00158677 0)
(0.0870849 0.00159736 0)
(0.0860163 0.0016076 0)
(0.084941 0.00161751 0)
(0.0838592 0.00162709 0)
(0.0827712 0.00163634 0)
(0.0816771 0.00164528 0)
(0.0805771 0.00165391 0)
(0.0794715 0.00166225 0)
(0.0783604 0.00167029 0)
(0.077244 0.00167804 0)
(0.0761226 0.00168551 0)
(0.0749963 0.00169272 0)
(0.0738653 0.00169965 0)
(0.0727298 0.00170633 0)
(0.0715899 0.00171276 0)
(0.0704458 0.00171895 0)
(0.0692977 0.0017249 0)
(0.0681456 0.00173061 0)
(0.0669899 0.0017361 0)
(0.0658306 0.00174138 0)
(0.0646678 0.00174644 0)
(0.0635017 0.0017513 0)
(0.0623324 0.00175595 0)
(0.0611602 0.00176042 0)
(0.059985 0.00176469 0)
(0.058807 0.00176879 0)
(0.0576264 0.00177271 0)
(0.0564432 0.00177645 0)
(0.0552575 0.00178003 0)
(0.0540696 0.00178346 0)
(0.0528794 0.00178672 0)
(0.0516871 0.00178984 0)
(0.0504927 0.00179282 0)
(0.0492965 0.00179565 0)
(0.0480984 0.00179835 0)
(0.0468985 0.00180092 0)
(0.045697 0.00180337 0)
(0.0444938 0.00180569 0)
(0.0432892 0.0018079 0)
(0.0420832 0.00181 0)
(0.0408757 0.00181199 0)
(0.039667 0.00181387 0)
(0.0384571 0.00181566 0)
(0.037246 0.00181735 0)
(0.0360338 0.00181895 0)
(0.0348206 0.00182046 0)
(0.0336064 0.00182189 0)
(0.0323913 0.00182323 0)
(0.0311754 0.0018245 0)
(0.0299586 0.00182569 0)
(0.028741 0.00182681 0)
(0.0275227 0.00182786 0)
(0.0263038 0.00182884 0)
(0.0250842 0.00182977 0)
(0.023864 0.00183063 0)
(0.0226433 0.00183143 0)
(0.021422 0.00183218 0)
(0.0202003 0.00183287 0)
(0.0189781 0.00183351 0)
(0.0177555 0.0018341 0)
(0.0165326 0.00183464 0)
(0.0153093 0.00183514 0)
(0.0140856 0.0018356 0)
(0.0128617 0.00183601 0)
(0.0116376 0.00183637 0)
(0.0104132 0.0018367 0)
(0.00918856 0.00183699 0)
(0.00796378 0.00183725 0)
(0.00673884 0.00183746 0)
(0.00551377 0.00183764 0)
(0.0042886 0.00183778 0)
(0.00306334 0.00183789 0)
(0.00183804 0.00183796 0)
(0.000612689 0.00183799 0)
(0.000750629 -0.00375291 0)
(0.00225189 -0.00375279 0)
(0.0037531 -0.00375256 0)
(0.00525418 -0.0037522 0)
(0.00675509 -0.00375172 0)
(0.00825579 -0.00375111 0)
(0.00975623 -0.00375037 0)
(0.0112563 -0.00374949 0)
(0.0127561 -0.00374848 0)
(0.0142554 -0.00374731 0)
(0.0157542 -0.00374599 0)
(0.0172525 -0.00374452 0)
(0.0187501 -0.00374287 0)
(0.0202471 -0.00374104 0)
(0.0217433 -0.00373903 0)
(0.0232387 -0.00373682 0)
(0.0247332 -0.0037344 0)
(0.0262266 -0.00373176 0)
(0.027719 -0.0037289 0)
(0.0292102 -0.00372578 0)
(0.0307001 -0.00372241 0)
(0.0321886 -0.00371876 0)
(0.0336756 -0.00371483 0)
(0.035161 -0.0037106 0)
(0.0366447 -0.00370604 0)
(0.0381265 -0.00370116 0)
(0.0396063 -0.00369592 0)
(0.0410839 -0.00369031 0)
(0.0425592 -0.00368431 0)
(0.0440321 -0.00367791 0)
(0.0455023 -0.00367108 0)
(0.0469697 -0.0036638 0)
(0.0484342 -0.00365606 0)
(0.0498955 -0.00364784 0)
(0.0513534 -0.00363912 0)
(0.0528077 -0.00362986 0)
(0.0542583 -0.00362006 0)
(0.0557048 -0.00360969 0)
(0.0571471 -0.00359874 0)
(0.0585849 -0.00358717 0)
(0.060018 -0.00357497 0)
(0.061446 -0.00356211 0)
(0.0628689 -0.00354858 0)
(0.0642862 -0.00353435 0)
(0.0656976 -0.0035194 0)
(0.067103 -0.0035037 0)
(0.068502 -0.00348725 0)
(0.0698942 -0.00347 0)
(0.0712794 -0.00345196 0)
(0.0726573 -0.00343308 0)
(0.0740274 -0.00341337 0)
(0.0753895 -0.00339278 0)
(0.0767433 -0.00337131 0)
(0.0780882 -0.00334894 0)
(0.0794241 -0.00332565 0)
(0.0807504 -0.00330141 0)
(0.0820669 -0.00327623 0)
(0.0833732 -0.00325007 0)
(0.0846687 -0.00322292 0)
(0.0859533 -0.00319477 0)
(0.0872264 -0.00316561 0)
(0.0884876 -0.00313542 0)
(0.0897366 -0.0031042 0)
(0.0909729 -0.00307192 0)
(0.092196 -0.00303859 0)
(0.0934057 -0.0030042 0)
(0.0946013 -0.00296874 0)
(0.0957826 -0.00293221 0)
(0.096949 -0.0028946 0)
(0.0981002 -0.00285591 0)
(0.0992357 -0.00281614 0)
(0.100355 -0.00277529 0)
(0.101458 -0.00273337 0)
(0.102544 -0.00269037 0)
(0.103612 -0.00264631 0)
(0.104663 -0.00260119 0)
(0.105695 -0.00255501 0)
(0.106709 -0.0025078 0)
(0.107703 -0.00245956 0)
(0.108678 -0.0024103 0)
(0.109633 -0.00236004 0)
(0.110568 -0.0023088 0)
(0.111482 -0.0022566 0)
(0.112375 -0.00220345 0)
(0.113246 -0.00214938 0)
(0.114096 -0.00209442 0)
(0.114923 -0.00203857 0)
(0.115728 -0.00198188 0)
(0.11651 -0.00192437 0)
(0.117269 -0.00186606 0)
(0.118005 -0.001807 0)
(0.118716 -0.00174721 0)
(0.119404 -0.00168672 0)
(0.120067 -0.00162557 0)
(0.120705 -0.00156379 0)
(0.121319 -0.00150142 0)
(0.121907 -0.0014385 0)
(0.122471 -0.00137506 0)
(0.123008 -0.00131114 0)
(0.12352 -0.00124678 0)
(0.124007 -0.00118203 0)
(0.124467 -0.00111691 0)
(0.124901 -0.00105148 0)
(0.125308 -0.000985778 0)
(0.12569 -0.000919838 0)
(0.126045 -0.000853705 0)
(0.126373 -0.000787422 0)
(0.126675 -0.00072103 0)
(0.12695 -0.000654571 0)
(0.127198 -0.000588087 0)
(0.12742 -0.000521619 0)
(0.127616 -0.000455207 0)
(0.127784 -0.000388894 0)
(0.127927 -0.000322718 0)
(0.128042 -0.000256719 0)
(0.128132 -0.000190936 0)
(0.128195 -0.000125407 0)
(0.128231 -6.01697e-05 0)
(0.128242 4.74008e-06 0)
(0.128227 6.92865e-05 0)
(0.128186 0.000133435 0)
(0.12812 0.00019715 0)
(0.128028 0.000260401 0)
(0.12791 0.000323156 0)
(0.127768 0.000385383 0)
(0.127601 0.000447055 0)
(0.127409 0.000508141 0)
(0.127193 0.000568617 0)
(0.126953 0.000628457 0)
(0.12669 0.000687636 0)
(0.126402 0.000746132 0)
(0.126091 0.000803922 0)
(0.125758 0.000860987 0)
(0.125401 0.000917307 0)
(0.125022 0.000972866 0)
(0.124622 0.00102765 0)
(0.124199 0.00108163 0)
(0.123755 0.00113481 0)
(0.12329 0.00118716 0)
(0.122804 0.00123869 0)
(0.122297 0.00128937 0)
(0.121771 0.0013392 0)
(0.121224 0.00138817 0)
(0.120659 0.00143628 0)
(0.120074 0.00148351 0)
(0.11947 0.00152987 0)
(0.118848 0.00157535 0)
(0.118208 0.00161995 0)
(0.117551 0.00166366 0)
(0.116876 0.0017065 0)
(0.116184 0.00174845 0)
(0.115475 0.00178952 0)
(0.114751 0.0018297 0)
(0.11401 0.00186902 0)
(0.113254 0.00190746 0)
(0.112483 0.00194503 0)
(0.111696 0.00198174 0)
(0.110896 0.0020176 0)
(0.110081 0.0020526 0)
(0.109252 0.00208677 0)
(0.10841 0.00212009 0)
(0.107555 0.0021526 0)
(0.106686 0.00218428 0)
(0.105806 0.00221516 0)
(0.104913 0.00224523 0)
(0.104008 0.00227452 0)
(0.103092 0.00230303 0)
(0.102164 0.00233078 0)
(0.101226 0.00235776 0)
(0.100277 0.002384 0)
(0.0993172 0.00240951 0)
(0.0983478 0.00243429 0)
(0.0973685 0.00245837 0)
(0.0963798 0.00248174 0)
(0.0953819 0.00250443 0)
(0.0943751 0.00252644 0)
(0.0933596 0.00254779 0)
(0.0923357 0.00256848 0)
(0.0913036 0.00258855 0)
(0.0902637 0.00260798 0)
(0.0892161 0.00262681 0)
(0.0881612 0.00264503 0)
(0.087099 0.00266267 0)
(0.08603 0.00267974 0)
(0.0849542 0.00269624 0)
(0.083872 0.00271219 0)
(0.0827835 0.00272761 0)
(0.081689 0.0027425 0)
(0.0805886 0.00275688 0)
(0.0794826 0.00277076 0)
(0.0783711 0.00278415 0)
(0.0772544 0.00279706 0)
(0.0761326 0.00280951 0)
(0.075006 0.00282151 0)
(0.0738746 0.00283306 0)
(0.0727387 0.00284419 0)
(0.0715985 0.0028549 0)
(0.0704541 0.0028652 0)
(0.0693056 0.0028751 0)
(0.0681533 0.00288462 0)
(0.0669972 0.00289377 0)
(0.0658376 0.00290255 0)
(0.0646746 0.00291098 0)
(0.0635082 0.00291907 0)
(0.0623387 0.00292682 0)
(0.0611662 0.00293426 0)
(0.0599907 0.00294138 0)
(0.0588125 0.0029482 0)
(0.0576316 0.00295472 0)
(0.0564482 0.00296096 0)
(0.0552624 0.00296692 0)
(0.0540742 0.00297262 0)
(0.0528838 0.00297806 0)
(0.0516913 0.00298325 0)
(0.0504967 0.0029882 0)
(0.0493003 0.00299292 0)
(0.048102 0.00299741 0)
(0.046902 0.00300169 0)
(0.0457003 0.00300576 0)
(0.044497 0.00300963 0)
(0.0432922 0.00301331 0)
(0.042086 0.0030168 0)
(0.0408784 0.00302011 0)
(0.0396696 0.00302325 0)
(0.0384595 0.00302622 0)
(0.0372483 0.00302904 0)
(0.036036 0.0030317 0)
(0.0348227 0.00303421 0)
(0.0336084 0.00303658 0)
(0.0323932 0.00303882 0)
(0.0311771 0.00304093 0)
(0.0299602 0.00304291 0)
(0.0287425 0.00304477 0)
(0.0275242 0.00304652 0)
(0.0263051 0.00304816 0)
(0.0250854 0.00304969 0)
(0.0238652 0.00305112 0)
(0.0226443 0.00305246 0)
(0.021423 0.0030537 0)
(0.0202012 0.00305485 0)
(0.018979 0.00305592 0)
(0.0177563 0.0030569 0)
(0.0165333 0.00305781 0)
(0.0153099 0.00305863 0)
(0.0140862 0.00305939 0)
(0.0128623 0.00306007 0)
(0.0116381 0.00306068 0)
(0.0104136 0.00306123 0)
(0.00918894 0.00306171 0)
(0.00796411 0.00306213 0)
(0.00673912 0.00306249 0)
(0.005514 0.00306278 0)
(0.00428877 0.00306302 0)
(0.00306347 0.0030632 0)
(0.00183811 0.00306331 0)
(0.000612714 0.00306337 0)
(0.000750704 -0.00525424 0)
(0.00225212 -0.00525408 0)
(0.00375348 -0.00525376 0)
(0.00525471 -0.00525326 0)
(0.00675577 -0.00525259 0)
(0.00825663 -0.00525174 0)
(0.00975723 -0.00525071 0)
(0.0112575 -0.00524949 0)
(0.0127574 -0.00524808 0)
(0.0142569 -0.00524646 0)
(0.0157559 -0.00524462 0)
(0.0172544 -0.00524256 0)
(0.0187523 -0.00524027 0)
(0.0202495 -0.00523773 0)
(0.0217459 -0.00523492 0)
(0.0232415 -0.00523185 0)
(0.0247363 -0.00522848 0)
(0.02623 -0.0052248 0)
(0.0277227 -0.0052208 0)
(0.0292142 -0.00521646 0)
(0.0307044 -0.00521176 0)
(0.0321932 -0.00520668 0)
(0.0336806 -0.00520119 0)
(0.0351664 -0.00519529 0)
(0.0366504 -0.00518894 0)
(0.0381327 -0.00518212 0)
(0.0396129 -0.00517481 0)
(0.041091 -0.00516698 0)
(0.0425668 -0.00515861 0)
(0.0440401 -0.00514967 0)
(0.0455109 -0.00514013 0)
(0.0469789 -0.00512998 0)
(0.0484439 -0.00511917 0)
(0.0499058 -0.00510769 0)
(0.0513643 -0.0050955 0)
(0.0528193 -0.00508258 0)
(0.0542705 -0.00506889 0)
(0.0557177 -0.0050544 0)
(0.0571607 -0.00503909 0)
(0.0585993 -0.00502293 0)
(0.0600331 -0.00500588 0)
(0.061462 -0.00498791 0)
(0.0628857 -0.00496899 0)
(0.0643038 -0.0049491 0)
(0.0657162 -0.0049282 0)
(0.0671225 -0.00490626 0)
(0.0685224 -0.00488325 0)
(0.0699156 -0.00485914 0)
(0.0713018 -0.0048339 0)
(0.0726806 -0.00480751 0)
(0.0740518 -0.00477993 0)
(0.075415 -0.00475114 0)
(0.0767697 -0.00472111 0)
(0.0781158 -0.00468981 0)
(0.0794528 -0.00465722 0)
(0.0807803 -0.00462332 0)
(0.0820979 -0.00458808 0)
(0.0834054 -0.00455148 0)
(0.0847021 -0.00451349 0)
(0.0859879 -0.0044741 0)
(0.0872622 -0.00443329 0)
(0.0885247 -0.00439104 0)
(0.0897749 -0.00434734 0)
(0.0910125 -0.00430217 0)
(0.0922369 -0.00425552 0)
(0.0934478 -0.00420738 0)
(0.0946448 -0.00415775 0)
(0.0958273 -0.00410661 0)
(0.0969951 -0.00405395 0)
(0.0981475 -0.00399979 0)
(0.0992843 -0.00394411 0)
(0.100405 -0.00388692 0)
(0.101509 -0.00382822 0)
(0.102596 -0.00376802 0)
(0.103666 -0.00370632 0)
(0.104718 -0.00364314 0)
(0.105751 -0.00357848 0)
(0.106766 -0.00351236 0)
(0.107762 -0.0034448 0)
(0.108738 -0.00337582 0)
(0.109694 -0.00330544 0)
(0.11063 -0.00323368 0)
(0.111545 -0.00316057 0)
(0.112439 -0.00308613 0)
(0.113312 -0.0030104 0)
(0.114163 -0.00293341 0)
(0.114991 -0.00285519 0)
(0.115797 -0.00277578 0)
(0.11658 -0.00269523 0)
(0.11734 -0.00261356 0)
(0.118076 -0.00253082 0)
(0.118789 -0.00244707 0)
(0.119477 -0.00236234 0)
(0.120141 -0.00227667 0)
(0.12078 -0.00219013 0)
(0.121394 -0.00210277 0)
(0.121984 -0.00201462 0)
(0.122547 -0.00192575 0)
(0.123086 -0.00183621 0)
(0.123598 -0.00174606 0)
(0.124085 -0.00165534 0)
(0.124545 -0.00156413 0)
(0.12498 -0.00147247 0)
(0.125388 -0.00138042 0)
(0.125769 -0.00128805 0)
(0.126124 -0.0011954 0)
(0.126453 -0.00110255 0)
(0.126755 -0.00100954 0)
(0.12703 -0.000916437 0)
(0.127279 -0.000823302 0)
(0.127501 -0.000730189 0)
(0.127696 -0.000637156 0)
(0.127864 -0.000544261 0)
(0.128006 -0.00045156 0)
(0.128122 -0.000359107 0)
(0.128211 -0.000266957 0)
(0.128273 -0.000175165 0)
(0.12831 -8.37807e-05 0)
(0.12832 7.1429e-06 0)
(0.128305 9.75564e-05 0)
(0.128263 0.000187411 0)
(0.128196 0.000276659 0)
(0.128104 0.000365254 0)
(0.127986 0.000453153 0)
(0.127843 0.000540312 0)
(0.127675 0.000626691 0)
(0.127483 0.000712251 0)
(0.127266 0.000796953 0)
(0.127025 0.000880762 0)
(0.126761 0.000963645 0)
(0.126472 0.00104557 0)
(0.126161 0.0011265 0)
(0.125826 0.00120642 0)
(0.125469 0.0012853 0)
(0.125089 0.0013631 0)
(0.124687 0.00143981 0)
(0.124264 0.00151541 0)
(0.123819 0.00158988 0)
(0.123352 0.00166319 0)
(0.122865 0.00173534 0)
(0.122358 0.00180631 0)
(0.12183 0.00187608 0)
(0.121283 0.00194465 0)
(0.120716 0.00201201 0)
(0.12013 0.00207814 0)
(0.119526 0.00214305 0)
(0.118903 0.00220672 0)
(0.118262 0.00226916 0)
(0.117603 0.00233037 0)
(0.116927 0.00239033 0)
(0.116234 0.00244906 0)
(0.115525 0.00250655 0)
(0.114799 0.00256281 0)
(0.114057 0.00261785 0)
(0.1133 0.00267166 0)
(0.112528 0.00272425 0)
(0.11174 0.00277564 0)
(0.110939 0.00282583 0)
(0.110123 0.00287483 0)
(0.109293 0.00292264 0)
(0.10845 0.00296929 0)
(0.107593 0.00301478 0)
(0.106724 0.00305913 0)
(0.105843 0.00310234 0)
(0.104949 0.00314443 0)
(0.104043 0.00318542 0)
(0.103126 0.00322532 0)
(0.102197 0.00326415 0)
(0.101258 0.00330191 0)
(0.100308 0.00333864 0)
(0.0993477 0.00337433 0)
(0.0983774 0.00340901 0)
(0.0973973 0.00344269 0)
(0.0964078 0.0034754 0)
(0.095409 0.00350714 0)
(0.0944014 0.00353794 0)
(0.0933851 0.00356781 0)
(0.0923604 0.00359677 0)
(0.0913276 0.00362484 0)
(0.090287 0.00365204 0)
(0.0892387 0.00367837 0)
(0.088183 0.00370387 0)
(0.0871202 0.00372855 0)
(0.0860504 0.00375242 0)
(0.084974 0.00377551 0)
(0.0838911 0.00379783 0)
(0.082802 0.00381939 0)
(0.0817068 0.00384022 0)
(0.0806058 0.00386033 0)
(0.0794992 0.00387975 0)
(0.0783872 0.00389848 0)
(0.0772699 0.00391654 0)
(0.0761476 0.00393395 0)
(0.0750204 0.00395073 0)
(0.0738885 0.00396689 0)
(0.0727521 0.00398245 0)
(0.0716114 0.00399743 0)
(0.0704665 0.00401183 0)
(0.0693175 0.00402568 0)
(0.0681647 0.004039 0)
(0.0670082 0.00405179 0)
(0.0658482 0.00406407 0)
(0.0646847 0.00407586 0)
(0.0635179 0.00408717 0)
(0.062348 0.00409801 0)
(0.0611751 0.0041084 0)
(0.0599993 0.00411836 0)
(0.0588207 0.00412789 0)
(0.0576395 0.00413701 0)
(0.0564557 0.00414573 0)
(0.0552696 0.00415407 0)
(0.0540811 0.00416203 0)
(0.0528904 0.00416963 0)
(0.0516976 0.00417689 0)
(0.0505027 0.00418381 0)
(0.049306 0.0041904 0)
(0.0481074 0.00419668 0)
(0.0469072 0.00420266 0)
(0.0457052 0.00420835 0)
(0.0445017 0.00421376 0)
(0.0432967 0.0042189 0)
(0.0420902 0.00422377 0)
(0.0408825 0.0042284 0)
(0.0396734 0.00423279 0)
(0.0384631 0.00423694 0)
(0.0372517 0.00424087 0)
(0.0360393 0.00424459 0)
(0.0348257 0.0042481 0)
(0.0336113 0.00425141 0)
(0.0323959 0.00425454 0)
(0.0311796 0.00425748 0)
(0.0299626 0.00426025 0)
(0.0287448 0.00426285 0)
(0.0275263 0.00426529 0)
(0.0263071 0.00426758 0)
(0.0250873 0.00426972 0)
(0.0238669 0.00427172 0)
(0.022646 0.00427358 0)
(0.0214245 0.00427531 0)
(0.0202026 0.00427692 0)
(0.0189803 0.00427841 0)
(0.0177575 0.00427978 0)
(0.0165344 0.00428104 0)
(0.0153109 0.0042822 0)
(0.0140872 0.00428325 0)
(0.0128631 0.0042842 0)
(0.0116388 0.00428506 0)
(0.0104143 0.00428582 0)
(0.00918951 0.00428649 0)
(0.0079646 0.00428708 0)
(0.00673953 0.00428757 0)
(0.00551433 0.00428799 0)
(0.00428903 0.00428832 0)
(0.00306365 0.00428856 0)
(0.00183822 0.00428872 0)
(0.000612751 0.00428881 0)
(0.000750803 -0.00675575 0)
(0.00225241 -0.00675555 0)
(0.00375397 -0.00675513 0)
(0.0052554 -0.0067545 0)
(0.00675667 -0.00675364 0)
(0.00825774 -0.00675256 0)
(0.00975855 -0.00675125 0)
(0.0112591 -0.00674969 0)
(0.0127592 -0.00674789 0)
(0.0142589 -0.00674582 0)
(0.0157582 -0.00674348 0)
(0.017257 -0.00674085 0)
(0.0187551 -0.00673792 0)
(0.0202526 -0.00673468 0)
(0.0217493 -0.0067311 0)
(0.0232453 -0.00672717 0)
(0.0247404 -0.00672286 0)
(0.0262345 -0.00671817 0)
(0.0277275 -0.00671305 0)
(0.0292194 -0.00670751 0)
(0.0307101 -0.0067015 0)
(0.0321994 -0.006695 0)
(0.0336872 -0.00668798 0)
(0.0351735 -0.00668043 0)
(0.0366581 -0.0066723 0)
(0.0381408 -0.00666358 0)
(0.0396216 -0.00665422 0)
(0.0411003 -0.0066442 0)
(0.0425768 -0.00663348 0)
(0.0440508 -0.00662203 0)
(0.0455223 -0.00660982 0)
(0.046991 -0.00659681 0)
(0.0484568 -0.00658297 0)
(0.0499194 -0.00656825 0)
(0.0513788 -0.00655263 0)
(0.0528346 -0.00653606 0)
(0.0542867 -0.00651851 0)
(0.0557349 -0.00649994 0)
(0.0571789 -0.00648031 0)
(0.0586184 -0.00645958 0)
(0.0600533 -0.00643771 0)
(0.0614833 -0.00641466 0)
(0.062908 -0.00639039 0)
(0.0643273 -0.00636486 0)
(0.0657409 -0.00633804 0)
(0.0671484 -0.00630988 0)
(0.0685495 -0.00628035 0)
(0.069944 -0.0062494 0)
(0.0713315 -0.00621701 0)
(0.0727117 -0.00618312 0)
(0.0740842 -0.00614771 0)
(0.0754488 -0.00611074 0)
(0.076805 -0.00607217 0)
(0.0781526 -0.00603198 0)
(0.079491 -0.00599012 0)
(0.08082 -0.00594657 0)
(0.0821392 -0.0059013 0)
(0.0834482 -0.00585427 0)
(0.0847466 -0.00580547 0)
(0.086034 -0.00575486 0)
(0.08731 -0.00570242 0)
(0.0885741 -0.00564812 0)
(0.089826 -0.00559196 0)
(0.0910652 -0.00553391 0)
(0.0922914 -0.00547395 0)
(0.093504 -0.00541207 0)
(0.0947027 -0.00534826 0)
(0.095887 -0.00528251 0)
(0.0970564 -0.00521482 0)
(0.0982106 -0.00514518 0)
(0.0993492 -0.0050736 0)
(0.100472 -0.00500006 0)
(0.101577 -0.00492458 0)
(0.102666 -0.00484716 0)
(0.103738 -0.00476782 0)
(0.104791 -0.00468656 0)
(0.105826 -0.0046034 0)
(0.106843 -0.00451837 0)
(0.10784 -0.00443147 0)
(0.108818 -0.00434275 0)
(0.109776 -0.00425222 0)
(0.110713 -0.00415991 0)
(0.11163 -0.00406586 0)
(0.112526 -0.0039701 0)
(0.1134 -0.00387268 0)
(0.114252 -0.00377363 0)
(0.115082 -0.003673 0)
(0.115889 -0.00357084 0)
(0.116673 -0.0034672 0)
(0.117434 -0.00336212 0)
(0.118172 -0.00325567 0)
(0.118885 -0.00314791 0)
(0.119575 -0.00303888 0)
(0.12024 -0.00292866 0)
(0.12088 -0.00281731 0)
(0.121495 -0.00270489 0)
(0.122085 -0.00259147 0)
(0.12265 -0.00247712 0)
(0.123189 -0.0023619 0)
(0.123702 -0.00224589 0)
(0.124189 -0.00212916 0)
(0.12465 -0.00201179 0)
(0.125085 -0.00189384 0)
(0.125494 -0.00177539 0)
(0.125876 -0.00165653 0)
(0.126231 -0.00153731 0)
(0.12656 -0.00141782 0)
(0.126862 -0.00129814 0)
(0.127137 -0.00117834 0)
(0.127386 -0.0010585 0)
(0.127607 -0.000938681 0)
(0.127802 -0.000818971 0)
(0.127971 -0.000699438 0)
(0.128113 -0.000580155 0)
(0.128228 -0.000461194 0)
(0.128316 -0.000342624 0)
(0.128379 -0.000224515 0)
(0.128415 -0.000106934 0)
(0.128424 1.00529e-05 0)
(0.128408 0.000126382 0)
(0.128366 0.00024199 0)
(0.128298 0.000356816 0)
(0.128205 0.0004708 0)
(0.128086 0.000583886 0)
(0.127942 0.000696018 0)
(0.127774 0.000807144 0)
(0.127581 0.000917213 0)
(0.127363 0.00102618 0)
(0.127121 0.00113399 0)