/*--------------------------------*- C++ -*----------------------------------*\
| =========                 |                                                 |
| \\      /  F ield         | OpenFOAM: The Open Source CFD Toolbox           |
|  \\    /   O peration     | Version:  v2012                                 |
|   \\  /    A nd           | Website:  www.openfoam.com                      |
|    \\/     M anipulation  |                                                 |
\*---------------------------------------------------------------------------*/
FoamFile
{
    version     2.0;
    format      ascii;
    class       volVectorField;
    location    "6";
    object      W;
}
// * * * * * * * * * * * * * * * * * * * * * * * * * * * * * * * * * * * * * //

dimensions      [0 0 -1 0 0 0 0];


internalField   nonuniform List<vector> 
65536
(
(0 -0 -3.73178e-08)
(0 -0 -9.8353e-08)
(0 -0 -3.27027e-08)
(0 -0 -3.67272e-08)
(0 -0 -6.44177e-08)
(0 -0 -9.93487e-08)
(0 -0 -1.32284e-07)
(0 -0 -1.61177e-07)
(0 -0 -1.87811e-07)
(0 -0 -2.14026e-07)
(0 -0 -2.40441e-07)
(0 -0 -2.67015e-07)
(0 -0 -2.93793e-07)
(0 -0 -3.20943e-07)
(0 -0 -3.48698e-07)
(0 -0 -3.77122e-07)
(0 -0 -4.06067e-07)
(0 -0 -4.3527e-07)
(0 -0 -4.64468e-07)
(0 -0 -4.93623e-07)
(0 -0 -5.22721e-07)
(0 -0 -5.51714e-07)
(0 -0 -5.80585e-07)
(0 -0 -6.09277e-07)
(0 -0 -6.37835e-07)
(0 -0 -6.66404e-07)
(0 -0 -6.95031e-07)
(0 -0 -7.23724e-07)
(0 -0 -7.52456e-07)
(0 -0 -7.81106e-07)
(0 -0 -8.09619e-07)
(0 -0 -8.38018e-07)
(0 -0 -8.66266e-07)
(0 -0 -8.94333e-07)
(0 -0 -9.22203e-07)
(0 -0 -9.49787e-07)
(0 -0 -9.77023e-07)
(0 -0 -1.00394e-06)
(0 -0 -1.03054e-06)
(0 -0 -1.05674e-06)
(0 -0 -1.08252e-06)
(0 -0 -1.10789e-06)
(0 -0 -1.13288e-06)
(0 -0 -1.15769e-06)
(0 -0 -1.1826e-06)
(0 -0 -1.20786e-06)
(0 -0 -1.23374e-06)
(0 -0 -1.26056e-06)
(0 -0 -1.2885e-06)
(0 -0 -1.31755e-06)
(0 -0 -1.34758e-06)
(0 -0 -1.37829e-06)
(0 -0 -1.40924e-06)
(0 -0 -1.43995e-06)
(0 -0 -1.47001e-06)
(0 -0 -1.49912e-06)
(0 -0 -1.52702e-06)
(0 -0 -1.55356e-06)
(0 -0 -1.57871e-06)
(0 -0 -1.60261e-06)
(0 -0 -1.62556e-06)
(0 -0 -1.64806e-06)
(0 -0 -1.67066e-06)
(0 -0 -1.69375e-06)
(0 -0 -1.71755e-06)
(0 -0 -1.74215e-06)
(0 -0 -1.76752e-06)
(0 -0 -1.7934e-06)
(0 -0 -1.81931e-06)
(0 -0 -1.84479e-06)
(0 -0 -1.86955e-06)
(0 -0 -1.89359e-06)
(0 -0 -1.91708e-06)
(0 -0 -1.94034e-06)
(0 -0 -1.9636e-06)
(0 -0 -1.98694e-06)
(0 -0 -2.01026e-06)
(0 -0 -2.03344e-06)
(0 -0 -2.05635e-06)
(0 -0 -2.07878e-06)
(0 -0 -2.10036e-06)
(0 -0 -2.12068e-06)
(0 -0 -2.13956e-06)
(0 -0 -2.15711e-06)
(0 -0 -2.17375e-06)
(0 -0 -2.19003e-06)
(0 -0 -2.20649e-06)
(0 -0 -2.22364e-06)
(0 -0 -2.24182e-06)
(0 -0 -2.26116e-06)
(0 -0 -2.28161e-06)
(0 -0 -2.30281e-06)
(0 -0 -2.32418e-06)
(0 -0 -2.345e-06)
(0 -0 -2.36457e-06)
(0 -0 -2.38233e-06)
(0 -0 -2.39805e-06)
(0 -0 -2.41184e-06)
(0 -0 -2.42403e-06)
(0 -0 -2.43514e-06)
(0 -0 -2.44583e-06)
(0 -0 -2.4567e-06)
(0 -0 -2.46814e-06)
(0 -0 -2.48018e-06)
(0 -0 -2.49259e-06)
(0 -0 -2.50503e-06)
(0 -0 -2.5172e-06)
(0 -0 -2.52883e-06)
(0 -0 -2.53966e-06)
(0 -0 -2.54946e-06)
(0 -0 -2.55813e-06)
(0 -0 -2.56556e-06)
(0 -0 -2.57169e-06)
(0 -0 -2.57647e-06)
(0 -0 -2.58e-06)
(0 -0 -2.58252e-06)
(0 -0 -2.58447e-06)
(0 -0 -2.58639e-06)
(0 -0 -2.58884e-06)
(0 -0 -2.59239e-06)
(0 -0 -2.59751e-06)
(0 -0 -2.60417e-06)
(0 -0 -2.61189e-06)
(0 -0 -2.62003e-06)
(0 -0 -2.62805e-06)
(0 -0 -2.63548e-06)
(0 -0 -2.64182e-06)
(0 -0 -2.64658e-06)
(0 -0 -2.6495e-06)
(0 -0 -2.65069e-06)
(0 -0 -2.65048e-06)
(0 -0 -2.64917e-06)
(0 -0 -2.64693e-06)
(0 -0 -2.64394e-06)
(0 -0 -2.64039e-06)
(0 -0 -2.6365e-06)
(0 -0 -2.63245e-06)
(0 -0 -2.62852e-06)
(0 -0 -2.62512e-06)
(0 -0 -2.62265e-06)
(0 -0 -2.62111e-06)
(0 -0 -2.62005e-06)
(0 -0 -2.61892e-06)
(0 -0 -2.61727e-06)
(0 -0 -2.61467e-06)
(0 -0 -2.61069e-06)
(0 -0 -2.60517e-06)
(0 -0 -2.59838e-06)
(0 -0 -2.59094e-06)
(0 -0 -2.58355e-06)
(0 -0 -2.57668e-06)
(0 -0 -2.57044e-06)
(0 -0 -2.56472e-06)
(0 -0 -2.5592e-06)
(0 -0 -2.55338e-06)
(0 -0 -2.54673e-06)
(0 -0 -2.5389e-06)
(0 -0 -2.5298e-06)
(0 -0 -2.51955e-06)
(0 -0 -2.50813e-06)
(0 -0 -2.49553e-06)
(0 -0 -2.48169e-06)
(0 -0 -2.46638e-06)
(0 -0 -2.44933e-06)
(0 -0 -2.43045e-06)
(0 -0 -2.4102e-06)
(0 -0 -2.38963e-06)
(0 -0 -2.36991e-06)
(0 -0 -2.352e-06)
(0 -0 -2.33648e-06)
(0 -0 -2.32344e-06)
(0 -0 -2.31246e-06)
(0 -0 -2.30272e-06)
(0 -0 -2.29323e-06)
(0 -0 -2.28311e-06)
(0 -0 -2.27165e-06)
(0 -0 -2.2589e-06)
(0 -0 -2.24519e-06)
(0 -0 -2.23091e-06)
(0 -0 -2.21651e-06)
(0 -0 -2.20223e-06)
(0 -0 -2.18789e-06)
(0 -0 -2.17321e-06)
(0 -0 -2.15783e-06)
(0 -0 -2.14171e-06)
(0 -0 -2.12485e-06)
(0 -0 -2.10717e-06)
(0 -0 -2.08856e-06)
(0 -0 -2.06896e-06)
(0 -0 -2.04859e-06)
(0 -0 -2.02761e-06)
(0 -0 -2.00602e-06)
(0 -0 -1.98386e-06)
(0 -0 -1.96113e-06)
(0 -0 -1.93785e-06)
(0 -0 -1.91393e-06)
(0 -0 -1.88911e-06)
(0 -0 -1.86321e-06)
(0 -0 -1.83627e-06)
(0 -0 -1.80845e-06)
(0 -0 -1.78017e-06)
(0 -0 -1.75171e-06)
(0 -0 -1.72323e-06)
(0 -0 -1.69484e-06)
(0 -0 -1.66647e-06)
(0 -0 -1.63809e-06)
(0 -0 -1.60967e-06)
(0 -0 -1.58113e-06)
(0 -0 -1.55237e-06)
(0 -0 -1.52329e-06)
(0 -0 -1.49368e-06)
(0 -0 -1.46331e-06)
(0 -0 -1.43202e-06)
(0 -0 -1.39967e-06)
(0 -0 -1.36644e-06)
(0 -0 -1.33257e-06)
(0 -0 -1.29848e-06)
(0 -0 -1.26446e-06)
(0 -0 -1.23069e-06)
(0 -0 -1.19736e-06)
(0 -0 -1.1644e-06)
(0 -0 -1.13164e-06)
(0 -0 -1.09878e-06)
(0 -0 -1.06551e-06)
(0 -0 -1.03169e-06)
(0 -0 -9.97403e-07)
(0 -0 -9.62824e-07)
(0 -0 -9.28166e-07)
(0 -0 -8.93679e-07)
(0 -0 -8.59553e-07)
(0 -0 -8.25962e-07)
(0 -0 -7.92966e-07)
(0 -0 -7.60456e-07)
(0 -0 -7.28291e-07)
(0 -0 -6.96288e-07)
(0 -0 -6.64255e-07)
(0 -0 -6.32046e-07)
(0 -0 -5.99559e-07)
(0 -0 -5.66691e-07)
(0 -0 -5.33378e-07)
(0 -0 -4.99619e-07)
(0 -0 -4.65463e-07)
(0 -0 -4.30996e-07)
(0 -0 -3.96257e-07)
(0 -0 -3.61266e-07)
(0 -0 -3.26061e-07)
(0 -0 -2.907e-07)
(0 -0 -2.55356e-07)
(0 -0 -2.2033e-07)
(0 -0 -1.86005e-07)
(0 -0 -1.52816e-07)
(0 -0 -1.21178e-07)
(0 -0 -9.1417e-08)
(0 -0 -6.36968e-08)
(0 -0 -3.80726e-08)
(0 -0 -1.28802e-08)
(0 -0 -1.13264e-07)
(0 -0 -2.92398e-07)
(0 -0 -2.5244e-07)
(0 -0 -3.00833e-07)
(0 -0 -3.76371e-07)
(0 -0 -4.56465e-07)
(0 -0 -5.32325e-07)
(0 -0 -6.04436e-07)
(0 -0 -6.75083e-07)
(0 -0 -7.45332e-07)
(0 -0 -8.15588e-07)
(0 -0 -8.86626e-07)
(0 -0 -9.59572e-07)
(0 -0 -1.03526e-06)
(0 -0 -1.11382e-06)
(0 -0 -1.19474e-06)
(0 -0 -1.27727e-06)
(0 -0 -1.36067e-06)
(0 -0 -1.44444e-06)
(0 -0 -1.52833e-06)
(0 -0 -1.61216e-06)
(0 -0 -1.69583e-06)
(0 -0 -1.77923e-06)
(0 -0 -1.86227e-06)
(0 -0 -1.94508e-06)
(0 -0 -2.02788e-06)
(0 -0 -2.11074e-06)
(0 -0 -2.19373e-06)
(0 -0 -2.27677e-06)
(0 -0 -2.35969e-06)
(0 -0 -2.44243e-06)
(0 -0 -2.52487e-06)
(0 -0 -2.60684e-06)
(0 -0 -2.68826e-06)
(0 -0 -2.76907e-06)
(0 -0 -2.84917e-06)
(0 -0 -2.92845e-06)
(0 -0 -3.00683e-06)
(0 -0 -3.08413e-06)
(0 -0 -3.16022e-06)
(0 -0 -3.23507e-06)
(0 -0 -3.30867e-06)
(0 -0 -3.38121e-06)
(0 -0 -3.45322e-06)
(0 -0 -3.52547e-06)
(0 -0 -3.59884e-06)
(0 -0 -3.67423e-06)
(0 -0 -3.75241e-06)
(0 -0 -3.83377e-06)
(0 -0 -3.91833e-06)
(0 -0 -4.00578e-06)
(0 -0 -4.09537e-06)
(0 -0 -4.18594e-06)
(0 -0 -4.2761e-06)
(0 -0 -4.36447e-06)
(0 -0 -4.44984e-06)
(0 -0 -4.53138e-06)
(0 -0 -4.60874e-06)
(0 -0 -4.68202e-06)
(0 -0 -4.7517e-06)
(0 -0 -4.81877e-06)
(0 -0 -4.88464e-06)
(0 -0 -4.95082e-06)
(0 -0 -5.0185e-06)
(0 -0 -5.08842e-06)
(0 -0 -5.16087e-06)
(0 -0 -5.23563e-06)
(0 -0 -5.31189e-06)
(0 -0 -5.38843e-06)
(0 -0 -5.46403e-06)
(0 -0 -5.53783e-06)
(0 -0 -5.60956e-06)
(0 -0 -5.67954e-06)
(0 -0 -5.74847e-06)
(0 -0 -5.81711e-06)
(0 -0 -5.88597e-06)
(0 -0 -5.95517e-06)
(0 -0 -6.02441e-06)
(0 -0 -6.09303e-06)
(0 -0 -6.16005e-06)
(0 -0 -6.22432e-06)
(0 -0 -6.28484e-06)
(0 -0 -6.3412e-06)
(0 -0 -6.39375e-06)
(0 -0 -6.44365e-06)
(0 -0 -6.49252e-06)
(0 -0 -6.54209e-06)
(0 -0 -6.59386e-06)
(0 -0 -6.64885e-06)
(0 -0 -6.70754e-06)
(0 -0 -6.76967e-06)
(0 -0 -6.83411e-06)
(0 -0 -6.89902e-06)
(0 -0 -6.9622e-06)
(0 -0 -7.02167e-06)
(0 -0 -7.07601e-06)
(0 -0 -7.1245e-06)
(0 -0 -7.16736e-06)
(0 -0 -7.20556e-06)
(0 -0 -7.24057e-06)
(0 -0 -7.27415e-06)
(0 -0 -7.30785e-06)
(0 -0 -7.34276e-06)
(0 -0 -7.37928e-06)
(0 -0 -7.41707e-06)
(0 -0 -7.45523e-06)
(0 -0 -7.4927e-06)
(0 -0 -7.5285e-06)
(0 -0 -7.56185e-06)
(0 -0 -7.59224e-06)
(0 -0 -7.61935e-06)
(0 -0 -7.64285e-06)
(0 -0 -7.66244e-06)
(0 -0 -7.67802e-06)
(0 -0 -7.68987e-06)
(0 -0 -7.69884e-06)
(0 -0 -7.70614e-06)
(0 -0 -7.71325e-06)
(0 -0 -7.72167e-06)
(0 -0 -7.73294e-06)
(0 -0 -7.74832e-06)
(0 -0 -7.76828e-06)
(0 -0 -7.79191e-06)
(0 -0 -7.81737e-06)
(0 -0 -7.84254e-06)
(0 -0 -7.86553e-06)
(0 -0 -7.88499e-06)
(0 -0 -7.89995e-06)
(0 -0 -7.90994e-06)
(0 -0 -7.91509e-06)
(0 -0 -7.91601e-06)
(0 -0 -7.91352e-06)
(0 -0 -7.90826e-06)
(0 -0 -7.9008e-06)
(0 -0 -7.89166e-06)
(0 -0 -7.88141e-06)
(0 -0 -7.87078e-06)
(0 -0 -7.8606e-06)
(0 -0 -7.85177e-06)
(0 -0 -7.84507e-06)
(0 -0 -7.84066e-06)
(0 -0 -7.83773e-06)
(0 -0 -7.83476e-06)
(0 -0 -7.83013e-06)
(0 -0 -7.82237e-06)
(0 -0 -7.81049e-06)
(0 -0 -7.7943e-06)
(0 -0 -7.77468e-06)
(0 -0 -7.75334e-06)
(0 -0 -7.73217e-06)
(0 -0 -7.71258e-06)
(0 -0 -7.69502e-06)
(0 -0 -7.6791e-06)
(0 -0 -7.66377e-06)
(0 -0 -7.64749e-06)
(0 -0 -7.62878e-06)
(0 -0 -7.60649e-06)
(0 -0 -7.58025e-06)
(0 -0 -7.55036e-06)
(0 -0 -7.5172e-06)
(0 -0 -7.48081e-06)
(0 -0 -7.44072e-06)
(0 -0 -7.396e-06)
(0 -0 -7.34589e-06)
(0 -0 -7.29034e-06)
(0 -0 -7.23065e-06)
(0 -0 -7.16967e-06)
(0 -0 -7.11096e-06)
(0 -0 -7.05772e-06)
(0 -0 -7.01174e-06)
(0 -0 -6.97314e-06)
(0 -0 -6.9404e-06)
(0 -0 -6.9111e-06)
(0 -0 -6.88203e-06)
(0 -0 -6.85077e-06)
(0 -0 -6.8157e-06)
(0 -0 -6.77667e-06)
(0 -0 -6.73462e-06)
(0 -0 -6.69081e-06)
(0 -0 -6.64632e-06)
(0 -0 -6.60183e-06)
(0 -0 -6.55715e-06)
(0 -0 -6.5117e-06)
(0 -0 -6.46454e-06)
(0 -0 -6.4151e-06)
(0 -0 -6.36319e-06)
(0 -0 -6.3087e-06)
(0 -0 -6.25166e-06)
(0 -0 -6.19206e-06)
(0 -0 -6.13028e-06)
(0 -0 -6.06672e-06)
(0 -0 -6.00156e-06)
(0 -0 -5.93489e-06)
(0 -0 -5.86667e-06)
(0 -0 -5.79678e-06)
(0 -0 -5.72479e-06)
(0 -0 -5.65021e-06)
(0 -0 -5.57254e-06)
(0 -0 -5.49196e-06)
(0 -0 -5.40899e-06)
(0 -0 -5.32455e-06)
(0 -0 -5.23951e-06)
(0 -0 -5.15434e-06)
(0 -0 -5.06934e-06)
(0 -0 -4.98447e-06)
(0 -0 -4.89958e-06)
(0 -0 -4.81456e-06)
(0 -0 -4.72926e-06)
(0 -0 -4.64344e-06)
(0 -0 -4.55662e-06)
(0 -0 -4.46818e-06)
(0 -0 -4.37725e-06)
(0 -0 -4.28328e-06)
(0 -0 -4.186e-06)
(0 -0 -4.08582e-06)
(0 -0 -3.98356e-06)
(0 -0 -3.88026e-06)
(0 -0 -3.77707e-06)
(0 -0 -3.67469e-06)
(0 -0 -3.5736e-06)
(0 -0 -3.47359e-06)
(0 -0 -3.37406e-06)
(0 -0 -3.27419e-06)
(0 -0 -3.17321e-06)
(0 -0 -3.07076e-06)
(0 -0 -2.96692e-06)
(0 -0 -2.86221e-06)
(0 -0 -2.75729e-06)
(0 -0 -2.65295e-06)
(0 -0 -2.54984e-06)
(0 -0 -2.44842e-06)
(0 -0 -2.34885e-06)
(0 -0 -2.25084e-06)
(0 -0 -2.15395e-06)
(0 -0 -2.0577e-06)
(0 -0 -1.96157e-06)
(0 -0 -1.86508e-06)
(0 -0 -1.76788e-06)
(0 -0 -1.66971e-06)
(0 -0 -1.57044e-06)
(0 -0 -1.4701e-06)
(0 -0 -1.36879e-06)
(0 -0 -1.26669e-06)
(0 -0 -1.16388e-06)
(0 -0 -1.06041e-06)
(0 -0 -9.56407e-07)
(0 -0 -8.52097e-07)
(0 -0 -7.47984e-07)
(0 -0 -6.44913e-07)
(0 -0 -5.44001e-07)
(0 -0 -4.46524e-07)
(0 -0 -3.53703e-07)
(0 -0 -2.66488e-07)
(0 -0 -1.85374e-07)
(0 -0 -1.10584e-07)
(0 -0 -3.73834e-08)
(0 -0 -2.74654e-07)
(0 -0 -6.17791e-07)
(0 -0 -6.71496e-07)
(0 -0 -7.57029e-07)
(0 -0 -8.56262e-07)
(0 -0 -9.60275e-07)
(0 -0 -1.06362e-06)
(0 -0 -1.16474e-06)
(0 -0 -1.26436e-06)
(0 -0 -1.36417e-06)
(0 -0 -1.46611e-06)
(0 -0 -1.57188e-06)
(0 -0 -1.68261e-06)
(0 -0 -1.79866e-06)
(0 -0 -1.91964e-06)
(0 -0 -2.04475e-06)
(0 -0 -2.17293e-06)
(0 -0 -2.3032e-06)
(0 -0 -2.43473e-06)
(0 -0 -2.56682e-06)
(0 -0 -2.69901e-06)
(0 -0 -2.83106e-06)
(0 -0 -2.96278e-06)
(0 -0 -3.09418e-06)
(0 -0 -3.22541e-06)
(0 -0 -3.35655e-06)
(0 -0 -3.48781e-06)
(0 -0 -3.61924e-06)
(0 -0 -3.75076e-06)
(0 -0 -3.88231e-06)
(0 -0 -4.01372e-06)
(0 -0 -4.14476e-06)
(0 -0 -4.27525e-06)
(0 -0 -4.40507e-06)
(0 -0 -4.53404e-06)
(0 -0 -4.66208e-06)
(0 -0 -4.78907e-06)
(0 -0 -4.91472e-06)
(0 -0 -5.03865e-06)
(0 -0 -5.1606e-06)
(0 -0 -5.28037e-06)
(0 -0 -5.39799e-06)
(0 -0 -5.5139e-06)
(0 -0 -5.62895e-06)
(0 -0 -5.74432e-06)
(0 -0 -5.86145e-06)
(0 -0 -5.98187e-06)
(0 -0 -6.10681e-06)
(0 -0 -6.23697e-06)
(0 -0 -6.37246e-06)
(0 -0 -6.51272e-06)
(0 -0 -6.65648e-06)
(0 -0 -6.80197e-06)
(0 -0 -6.9471e-06)
(0 -0 -7.08955e-06)
(0 -0 -7.22716e-06)
(0 -0 -7.35835e-06)
(0 -0 -7.48247e-06)
(0 -0 -7.59969e-06)
(0 -0 -7.71099e-06)
(0 -0 -7.81811e-06)
(0 -0 -7.92333e-06)
(0 -0 -8.02914e-06)
(0 -0 -8.13768e-06)
(0 -0 -8.2504e-06)
(0 -0 -8.36771e-06)
(0 -0 -8.48899e-06)
(0 -0 -8.61284e-06)
(0 -0 -8.7375e-06)
(0 -0 -8.86116e-06)
(0 -0 -8.98233e-06)
(0 -0 -9.10025e-06)
(0 -0 -9.21511e-06)
(0 -0 -9.32789e-06)
(0 -0 -9.43989e-06)
(0 -0 -9.55222e-06)
(0 -0 -9.66531e-06)
(0 -0 -9.77868e-06)
(0 -0 -9.89102e-06)
(0 -0 -1.00005e-05)
(0 -0 -1.01054e-05)
(0 -0 -1.02043e-05)
(0 -0 -1.02968e-05)
(0 -0 -1.03833e-05)
(0 -0 -1.04656e-05)
(0 -0 -1.05463e-05)
(0 -0 -1.06283e-05)
(0 -0 -1.07144e-05)
(0 -0 -1.08062e-05)
(0 -0 -1.09045e-05)
(0 -0 -1.10086e-05)
(0 -0 -1.11166e-05)
(0 -0 -1.12254e-05)
(0 -0 -1.13317e-05)
(0 -0 -1.14322e-05)
(0 -0 -1.15246e-05)
(0 -0 -1.16075e-05)
(0 -0 -1.16812e-05)
(0 -0 -1.17472e-05)
(0 -0 -1.1808e-05)
(0 -0 -1.18661e-05)
(0 -0 -1.19239e-05)
(0 -0 -1.1983e-05)
(0 -0 -1.20441e-05)
(0 -0 -1.2107e-05)
(0 -0 -1.21705e-05)
(0 -0 -1.2233e-05)
(0 -0 -1.2293e-05)
(0 -0 -1.23494e-05)
(0 -0 -1.24012e-05)
(0 -0 -1.24479e-05)
(0 -0 -1.24888e-05)
(0 -0 -1.25236e-05)
(0 -0 -1.25521e-05)
(0 -0 -1.25744e-05)
(0 -0 -1.25915e-05)
(0 -0 -1.26054e-05)
(0 -0 -1.26186e-05)
(0 -0 -1.26339e-05)
(0 -0 -1.26536e-05)
(0 -0 -1.26792e-05)
(0 -0 -1.27117e-05)
(0 -0 -1.27502e-05)
(0 -0 -1.27925e-05)
(0 -0 -1.28351e-05)
(0 -0 -1.28746e-05)
(0 -0 -1.29084e-05)
(0 -0 -1.2935e-05)
(0 -0 -1.29539e-05)
(0 -0 -1.29653e-05)
(0 -0 -1.29701e-05)
(0 -0 -1.29693e-05)
(0 -0 -1.29643e-05)
(0 -0 -1.29558e-05)
(0 -0 -1.29446e-05)
(0 -0 -1.29313e-05)
(0 -0 -1.29174e-05)
(0 -0 -1.29041e-05)
(0 -0 -1.28925e-05)
(0 -0 -1.28834e-05)
(0 -0 -1.28771e-05)
(0 -0 -1.28726e-05)
(0 -0 -1.28677e-05)
(0 -0 -1.28597e-05)
(0 -0 -1.28464e-05)
(0 -0 -1.28266e-05)
(0 -0 -1.28004e-05)
(0 -0 -1.27693e-05)
(0 -0 -1.27359e-05)
(0 -0 -1.27031e-05)
(0 -0 -1.26731e-05)
(0 -0 -1.26467e-05)
(0 -0 -1.26232e-05)
(0 -0 -1.26005e-05)
(0 -0 -1.25761e-05)
(0 -0 -1.25476e-05)
(0 -0 -1.25132e-05)
(0 -0 -1.24723e-05)
(0 -0 -1.24255e-05)
(0 -0 -1.23733e-05)
(0 -0 -1.23157e-05)
(0 -0 -1.2252e-05)
(0 -0 -1.21805e-05)
(0 -0 -1.21002e-05)
(0 -0 -1.2011e-05)
(0 -0 -1.1915e-05)
(0 -0 -1.18165e-05)
(0 -0 -1.17212e-05)
(0 -0 -1.16348e-05)
(0 -0 -1.15603e-05)
(0 -0 -1.14981e-05)
(0 -0 -1.14454e-05)
(0 -0 -1.13977e-05)
(0 -0 -1.13499e-05)
(0 -0 -1.1298e-05)
(0 -0 -1.12396e-05)
(0 -0 -1.11743e-05)
(0 -0 -1.11038e-05)
(0 -0 -1.10299e-05)
(0 -0 -1.09549e-05)
(0 -0 -1.08796e-05)
(0 -0 -1.08039e-05)
(0 -0 -1.07272e-05)
(0 -0 -1.0648e-05)
(0 -0 -1.05652e-05)
(0 -0 -1.04782e-05)
(0 -0 -1.0387e-05)
(0 -0 -1.02918e-05)
(0 -0 -1.01928e-05)
(0 -0 -1.00904e-05)
(0 -0 -9.98496e-06)
(0 -0 -9.87719e-06)
(0 -0 -9.76735e-06)
(0 -0 -9.65521e-06)
(0 -0 -9.54021e-06)
(0 -0 -9.4214e-06)
(0 -0 -9.29801e-06)
(0 -0 -9.1695e-06)
(0 -0 -9.03609e-06)
(0 -0 -8.89869e-06)
(0 -0 -8.75865e-06)
(0 -0 -8.61745e-06)
(0 -0 -8.47607e-06)
(0 -0 -8.33498e-06)
(0 -0 -8.1943e-06)
(0 -0 -8.05386e-06)
(0 -0 -7.91363e-06)
(0 -0 -7.7733e-06)
(0 -0 -7.63249e-06)
(0 -0 -7.49017e-06)
(0 -0 -7.34509e-06)
(0 -0 -7.19571e-06)
(0 -0 -7.0409e-06)
(0 -0 -6.8803e-06)
(0 -0 -6.7144e-06)
(0 -0 -6.54478e-06)
(0 -0 -6.3732e-06)
(0 -0 -6.20174e-06)
(0 -0 -6.0317e-06)
(0 -0 -5.86374e-06)
(0 -0 -5.69761e-06)
(0 -0 -5.53234e-06)
(0 -0 -5.3667e-06)
(0 -0 -5.19944e-06)
(0 -0 -5.02988e-06)
(0 -0 -4.85802e-06)
(0 -0 -4.68465e-06)
(0 -0 -4.51106e-06)
(0 -0 -4.33855e-06)
(0 -0 -4.16823e-06)
(0 -0 -4.00067e-06)
(0 -0 -3.83605e-06)
(0 -0 -3.67405e-06)
(0 -0 -3.51398e-06)
(0 -0 -3.35504e-06)
(0 -0 -3.19644e-06)
(0 -0 -3.03747e-06)
(0 -0 -2.87753e-06)
(0 -0 -2.71628e-06)
(0 -0 -2.55353e-06)
(0 -0 -2.38929e-06)
(0 -0 -2.22368e-06)
(0 -0 -2.05688e-06)
(0 -0 -1.88908e-06)
(0 -0 -1.72037e-06)
(0 -0 -1.55091e-06)
(0 -0 -1.38113e-06)
(0 -0 -1.21177e-06)
(0 -0 -1.04417e-06)
(0 -0 -8.80157e-07)
(0 -0 -7.21842e-07)
(0 -0 -5.71256e-07)
(0 -0 -4.29943e-07)
(0 -0 -2.98737e-07)
(0 -0 -1.78101e-07)
(0 -0 -6.02484e-08)
(0 -0 -3.30441e-07)
(0 -0 -7.80718e-07)
(0 -0 -9.56209e-07)
(0 -0 -1.11663e-06)
(0 -0 -1.26708e-06)
(0 -0 -1.4101e-06)
(0 -0 -1.54637e-06)
(0 -0 -1.67739e-06)
(0 -0 -1.80564e-06)
(0 -0 -1.93404e-06)
(0 -0 -2.06548e-06)
(0 -0 -2.20225e-06)
(0 -0 -2.34577e-06)
(0 -0 -2.4964e-06)
(0 -0 -2.65369e-06)
(0 -0 -2.8166e-06)
(0 -0 -2.98386e-06)
(0 -0 -3.15426e-06)
(0 -0 -3.32666e-06)
(0 -0 -3.50015e-06)
(0 -0 -3.67409e-06)
(0 -0 -3.84795e-06)
(0 -0 -4.02149e-06)
(0 -0 -4.1947e-06)
(0 -0 -4.36764e-06)
(0 -0 -4.54051e-06)
(0 -0 -4.71352e-06)
(0 -0 -4.88674e-06)
(0 -0 -5.06019e-06)
(0 -0 -5.23387e-06)
(0 -0 -5.40758e-06)
(0 -0 -5.58115e-06)
(0 -0 -5.75443e-06)
(0 -0 -5.92718e-06)
(0 -0 -6.09922e-06)
(0 -0 -6.27039e-06)
(0 -0 -6.44042e-06)
(0 -0 -6.60887e-06)
(0 -0 -6.77523e-06)
(0 -0 -6.93892e-06)
(0 -0 -7.09952e-06)
(0 -0 -7.25705e-06)
(0 -0 -7.41207e-06)
(0 -0 -7.56566e-06)
(0 -0 -7.71942e-06)
(0 -0 -7.87541e-06)
(0 -0 -8.03571e-06)
(0 -0 -8.20204e-06)
(0 -0 -8.37553e-06)
(0 -0 -8.55643e-06)
(0 -0 -8.74392e-06)
(0 -0 -8.93626e-06)
(0 -0 -9.13106e-06)
(0 -0 -9.32544e-06)
(0 -0 -9.51629e-06)
(0 -0 -9.70073e-06)
(0 -0 -9.87658e-06)
(0 -0 -1.00426e-05)
(0 -0 -1.01989e-05)
(0 -0 -1.03467e-05)
(0 -0 -1.04886e-05)
(0 -0 -1.0628e-05)
(0 -0 -1.07682e-05)
(0 -0 -1.09126e-05)
(0 -0 -1.10633e-05)
(0 -0 -1.12211e-05)
(0 -0 -1.13851e-05)
(0 -0 -1.15533e-05)
(0 -0 -1.17231e-05)
(0 -0 -1.18918e-05)
(0 -0 -1.20573e-05)
(0 -0 -1.22185e-05)
(0 -0 -1.23758e-05)
(0 -0 -1.25301e-05)
(0 -0 -1.2683e-05)
(0 -0 -1.28358e-05)
(0 -0 -1.29893e-05)
(0 -0 -1.3143e-05)
(0 -0 -1.32952e-05)
(0 -0 -1.34434e-05)
(0 -0 -1.35852e-05)
(0 -0 -1.37188e-05)
(0 -0 -1.3844e-05)
(0 -0 -1.39615e-05)
(0 -0 -1.40738e-05)
(0 -0 -1.41844e-05)
(0 -0 -1.42972e-05)
(0 -0 -1.44159e-05)
(0 -0 -1.4543e-05)
(0 -0 -1.46794e-05)
(0 -0 -1.4824e-05)
(0 -0 -1.49742e-05)
(0 -0 -1.5126e-05)
(0 -0 -1.52748e-05)
(0 -0 -1.54162e-05)
(0 -0 -1.5547e-05)
(0 -0 -1.56652e-05)
(0 -0 -1.57708e-05)
(0 -0 -1.58657e-05)
(0 -0 -1.59529e-05)
(0 -0 -1.60358e-05)
(0 -0 -1.61175e-05)
(0 -0 -1.62003e-05)
(0 -0 -1.6285e-05)
(0 -0 -1.63713e-05)
(0 -0 -1.6458e-05)
(0 -0 -1.65434e-05)
(0 -0 -1.6626e-05)
(0 -0 -1.67042e-05)
(0 -0 -1.6777e-05)
(0 -0 -1.68434e-05)
(0 -0 -1.69027e-05)
(0 -0 -1.6954e-05)
(0 -0 -1.69968e-05)
(0 -0 -1.70312e-05)
(0 -0 -1.70581e-05)
(0 -0 -1.70796e-05)
(0 -0 -1.70991e-05)
(0 -0 -1.71206e-05)
(0 -0 -1.71478e-05)
(0 -0 -1.71827e-05)
(0 -0 -1.72264e-05)
(0 -0 -1.72779e-05)
(0 -0 -1.73348e-05)
(0 -0 -1.73932e-05)
(0 -0 -1.74487e-05)
(0 -0 -1.74975e-05)
(0 -0 -1.75373e-05)
(0 -0 -1.75671e-05)
(0 -0 -1.75871e-05)
(0 -0 -1.75986e-05)
(0 -0 -1.7603e-05)
(0 -0 -1.76018e-05)
(0 -0 -1.75963e-05)
(0 -0 -1.75874e-05)
(0 -0 -1.75758e-05)
(0 -0 -1.7563e-05)
(0 -0 -1.75504e-05)
(0 -0 -1.75393e-05)
(0 -0 -1.75305e-05)
(0 -0 -1.75239e-05)
(0 -0 -1.7518e-05)
(0 -0 -1.75106e-05)
(0 -0 -1.74984e-05)
(0 -0 -1.74789e-05)
(0 -0 -1.7451e-05)
(0 -0 -1.74154e-05)
(0 -0 -1.73743e-05)
(0 -0 -1.73312e-05)
(0 -0 -1.72897e-05)
(0 -0 -1.72523e-05)
(0 -0 -1.72201e-05)
(0 -0 -1.71919e-05)
(0 -0 -1.71648e-05)
(0 -0 -1.71351e-05)
(0 -0 -1.70996e-05)
(0 -0 -1.70561e-05)
(0 -0 -1.70039e-05)
(0 -0 -1.69435e-05)
(0 -0 -1.68756e-05)
(0 -0 -1.68005e-05)
(0 -0 -1.67169e-05)
(0 -0 -1.66227e-05)
(0 -0 -1.65162e-05)
(0 -0 -1.63977e-05)
(0 -0 -1.62699e-05)
(0 -0 -1.61389e-05)
(0 -0 -1.60121e-05)
(0 -0 -1.58969e-05)
(0 -0 -1.5798e-05)
(0 -0 -1.57158e-05)
(0 -0 -1.56467e-05)
(0 -0 -1.55841e-05)
(0 -0 -1.5521e-05)
(0 -0 -1.54514e-05)
(0 -0 -1.53722e-05)
(0 -0 -1.5283e-05)
(0 -0 -1.51859e-05)
(0 -0 -1.5084e-05)
(0 -0 -1.49802e-05)
(0 -0 -1.4876e-05)
(0 -0 -1.47715e-05)
(0 -0 -1.46656e-05)
(0 -0 -1.45567e-05)
(0 -0 -1.44433e-05)
(0 -0 -1.43243e-05)
(0 -0 -1.41997e-05)
(0 -0 -1.40695e-05)
(0 -0 -1.39345e-05)
(0 -0 -1.37949e-05)
(0 -0 -1.36515e-05)
(0 -0 -1.35049e-05)
(0 -0 -1.33555e-05)
(0 -0 -1.32031e-05)
(0 -0 -1.30466e-05)
(0 -0 -1.28846e-05)
(0 -0 -1.27156e-05)
(0 -0 -1.25388e-05)
(0 -0 -1.23546e-05)
(0 -0 -1.21642e-05)
(0 -0 -1.19697e-05)
(0 -0 -1.17731e-05)
(0 -0 -1.15763e-05)
(0 -0 -1.13802e-05)
(0 -0 -1.11851e-05)
(0 -0 -1.09914e-05)
(0 -0 -1.07989e-05)
(0 -0 -1.06072e-05)
(0 -0 -1.04156e-05)
(0 -0 -1.02224e-05)
(0 -0 -1.00253e-05)
(0 -0 -9.82217e-06)
(0 -0 -9.61102e-06)
(0 -0 -9.39141e-06)
(0 -0 -9.16408e-06)
(0 -0 -8.93127e-06)
(0 -0 -8.69573e-06)
(0 -0 -8.46033e-06)
(0 -0 -8.22711e-06)
(0 -0 -7.99702e-06)
(0 -0 -7.76975e-06)
(0 -0 -7.5439e-06)
(0 -0 -7.31773e-06)
(0 -0 -7.08948e-06)
(0 -0 -6.85822e-06)
(0 -0 -6.62396e-06)
(0 -0 -6.38766e-06)
(0 -0 -6.15106e-06)
(0 -0 -5.91592e-06)
(0 -0 -5.68369e-06)
(0 -0 -5.45512e-06)
(0 -0 -5.23026e-06)
(0 -0 -5.00866e-06)
(0 -0 -4.78953e-06)
(0 -0 -4.57185e-06)
(0 -0 -4.35459e-06)
(0 -0 -4.13693e-06)
(0 -0 -3.91813e-06)
(0 -0 -3.69772e-06)
(0 -0 -3.47549e-06)
(0 -0 -3.25144e-06)
(0 -0 -3.0257e-06)
(0 -0 -2.79845e-06)
(0 -0 -2.56986e-06)
(0 -0 -2.34008e-06)
(0 -0 -2.1093e-06)
(0 -0 -1.87805e-06)
(0 -0 -1.64741e-06)
(0 -0 -1.41914e-06)
(0 -0 -1.19576e-06)
(0 -0 -9.80199e-07)
(0 -0 -7.75278e-07)
(0 -0 -5.83142e-07)
(0 -0 -4.04958e-07)
(0 -0 -2.41401e-07)
(0 -0 -8.16936e-08)
(0 -0 -3.5433e-07)
(0 -0 -8.733e-07)
(0 -0 -1.14493e-06)
(0 -0 -1.38034e-06)
(0 -0 -1.5883e-06)
(0 -0 -1.77664e-06)
(0 -0 -1.9502e-06)
(0 -0 -2.11343e-06)
(0 -0 -2.27097e-06)
(0 -0 -2.42732e-06)
(0 -0 -2.58635e-06)
(0 -0 -2.75101e-06)
(0 -0 -2.92304e-06)
(0 -0 -3.10304e-06)
(0 -0 -3.29064e-06)
(0 -0 -3.48482e-06)
(0 -0 -3.6843e-06)
(0 -0 -3.88766e-06)
(0 -0 -4.09362e-06)
(0 -0 -4.30117e-06)
(0 -0 -4.50943e-06)
(0 -0 -4.71774e-06)
(0 -0 -4.92574e-06)
(0 -0 -5.13322e-06)
(0 -0 -5.34025e-06)
(0 -0 -5.54707e-06)
(0 -0 -5.75389e-06)
(0 -0 -5.96096e-06)
(0 -0 -6.16847e-06)
(0 -0 -6.37645e-06)
(0 -0 -6.58485e-06)
(0 -0 -6.7936e-06)
(0 -0 -7.00256e-06)
(0 -0 -7.21152e-06)
(0 -0 -7.4203e-06)
(0 -0 -7.62858e-06)
(0 -0 -7.83583e-06)
(0 -0 -8.04145e-06)
(0 -0 -8.24466e-06)
(0 -0 -8.4446e-06)
(0 -0 -8.64063e-06)
(0 -0 -8.83266e-06)
(0 -0 -9.02123e-06)
(0 -0 -9.20762e-06)
(0 -0 -9.39388e-06)
(0 -0 -9.58252e-06)
(0 -0 -9.77609e-06)
(0 -0 -9.97684e-06)
(0 -0 -1.01863e-05)
(0 -0 -1.0405e-05)
(0 -0 -1.06319e-05)
(0 -0 -1.08653e-05)
(0 -0 -1.1102e-05)
(0 -0 -1.13384e-05)
(0 -0 -1.15705e-05)
(0 -0 -1.17948e-05)
(0 -0 -1.20086e-05)
(0 -0 -1.221e-05)
(0 -0 -1.23991e-05)
(0 -0 -1.25773e-05)
(0 -0 -1.27481e-05)
(0 -0 -1.29156e-05)
(0 -0 -1.30844e-05)
(0 -0 -1.32589e-05)
(0 -0 -1.34419e-05)
(0 -0 -1.36346e-05)
(0 -0 -1.38364e-05)
(0 -0 -1.40447e-05)
(0 -0 -1.42558e-05)
(0 -0 -1.44661e-05)
(0 -0 -1.46727e-05)
(0 -0 -1.48741e-05)
(0 -0 -1.50703e-05)
(0 -0 -1.52626e-05)
(0 -0 -1.54527e-05)
(0 -0 -1.56423e-05)
(0 -0 -1.58321e-05)
(0 -0 -1.60215e-05)
(0 -0 -1.62086e-05)
(0 -0 -1.63906e-05)
(0 -0 -1.65646e-05)
(0 -0 -1.67286e-05)
(0 -0 -1.68821e-05)
(0 -0 -1.70266e-05)
(0 -0 -1.71654e-05)
(0 -0 -1.73028e-05)
(0 -0 -1.74437e-05)
(0 -0 -1.75926e-05)
(0 -0 -1.77525e-05)
(0 -0 -1.79243e-05)
(0 -0 -1.81069e-05)
(0 -0 -1.82968e-05)
(0 -0 -1.84893e-05)
(0 -0 -1.86789e-05)
(0 -0 -1.88602e-05)
(0 -0 -1.90289e-05)
(0 -0 -1.91828e-05)
(0 -0 -1.93216e-05)
(0 -0 -1.94467e-05)
(0 -0 -1.95614e-05)
(0 -0 -1.96696e-05)
(0 -0 -1.9775e-05)
(0 -0 -1.98803e-05)
(0 -0 -1.99868e-05)
(0 -0 -2.00943e-05)
(0 -0 -2.02019e-05)
(0 -0 -2.0308e-05)
(0 -0 -2.0411e-05)
(0 -0 -2.05096e-05)
(0 -0 -2.06026e-05)
(0 -0 -2.06889e-05)
(0 -0 -2.07674e-05)
(0 -0 -2.08367e-05)
(0 -0 -2.08958e-05)
(0 -0 -2.09443e-05)
(0 -0 -2.0983e-05)
(0 -0 -2.10141e-05)
(0 -0 -2.10413e-05)
(0 -0 -2.10691e-05)
(0 -0 -2.11026e-05)
(0 -0 -2.11452e-05)
(0 -0 -2.11982e-05)
(0 -0 -2.1261e-05)
(0 -0 -2.13307e-05)
(0 -0 -2.14033e-05)
(0 -0 -2.14739e-05)
(0 -0 -2.15379e-05)
(0 -0 -2.15919e-05)
(0 -0 -2.16344e-05)
(0 -0 -2.16656e-05)
(0 -0 -2.16867e-05)
(0 -0 -2.16995e-05)
(0 -0 -2.17059e-05)
(0 -0 -2.17073e-05)
(0 -0 -2.17052e-05)
(0 -0 -2.17003e-05)
(0 -0 -2.16937e-05)
(0 -0 -2.16865e-05)
(0 -0 -2.16801e-05)
(0 -0 -2.16748e-05)
(0 -0 -2.16699e-05)
(0 -0 -2.16636e-05)
(0 -0 -2.16535e-05)
(0 -0 -2.16365e-05)
(0 -0 -2.16105e-05)
(0 -0 -2.15748e-05)
(0 -0 -2.15307e-05)
(0 -0 -2.14815e-05)
(0 -0 -2.14314e-05)
(0 -0 -2.13845e-05)
(0 -0 -2.13435e-05)
(0 -0 -2.1309e-05)
(0 -0 -2.12795e-05)
(0 -0 -2.12512e-05)
(0 -0 -2.12195e-05)
(0 -0 -2.11805e-05)
(0 -0 -2.11315e-05)
(0 -0 -2.10717e-05)
(0 -0 -2.10018e-05)
(0 -0 -2.09227e-05)
(0 -0 -2.08345e-05)
(0 -0 -2.07359e-05)
(0 -0 -2.06241e-05)
(0 -0 -2.04971e-05)
(0 -0 -2.03548e-05)
(0 -0 -2.02013e-05)
(0 -0 -2.00439e-05)
(0 -0 -1.9892e-05)
(0 -0 -1.97543e-05)
(0 -0 -1.96368e-05)
(0 -0 -1.95398e-05)
(0 -0 -1.94589e-05)
(0 -0 -1.93857e-05)
(0 -0 -1.9311e-05)
(0 -0 -1.92273e-05)
(0 -0 -1.91304e-05)
(0 -0 -1.90202e-05)
(0 -0 -1.88992e-05)
(0 -0 -1.87717e-05)
(0 -0 -1.86415e-05)
(0 -0 -1.8511e-05)
(0 -0 -1.83803e-05)
(0 -0 -1.8248e-05)
(0 -0 -1.81122e-05)
(0 -0 -1.79712e-05)
(0 -0 -1.78238e-05)
(0 -0 -1.76694e-05)
(0 -0 -1.75084e-05)
(0 -0 -1.73414e-05)
(0 -0 -1.71691e-05)
(0 -0 -1.69925e-05)
(0 -0 -1.68122e-05)
(0 -0 -1.66284e-05)
(0 -0 -1.64408e-05)
(0 -0 -1.62478e-05)
(0 -0 -1.60474e-05)
(0 -0 -1.58372e-05)
(0 -0 -1.56162e-05)
(0 -0 -1.53846e-05)
(0 -0 -1.5144e-05)
(0 -0 -1.48972e-05)
(0 -0 -1.46473e-05)
(0 -0 -1.43969e-05)
(0 -0 -1.41477e-05)
(0 -0 -1.3901e-05)
(0 -0 -1.36573e-05)
(0 -0 -1.34167e-05)
(0 -0 -1.31789e-05)
(0 -0 -1.29422e-05)
(0 -0 -1.27042e-05)
(0 -0 -1.24614e-05)
(0 -0 -1.22105e-05)
(0 -0 -1.19489e-05)
(0 -0 -1.16759e-05)
(0 -0 -1.13927e-05)
(0 -0 -1.11021e-05)
(0 -0 -1.08079e-05)
(0 -0 -1.05141e-05)
(0 -0 -1.02232e-05)
(0 -0 -9.93669e-06)
(0 -0 -9.65411e-06)
(0 -0 -9.37366e-06)
(0 -0 -9.09301e-06)
(0 -0 -8.80996e-06)
(0 -0 -8.52323e-06)
(0 -0 -8.23294e-06)
(0 -0 -7.94028e-06)
(0 -0 -7.64727e-06)
(0 -0 -7.35604e-06)
(0 -0 -7.06818e-06)
(0 -0 -6.78454e-06)
(0 -0 -6.50503e-06)
(0 -0 -6.229e-06)
(0 -0 -5.95548e-06)
(0 -0 -5.68347e-06)
(0 -0 -5.4119e-06)
(0 -0 -5.13988e-06)
(0 -0 -4.86672e-06)
(0 -0 -4.5919e-06)
(0 -0 -4.31514e-06)
(0 -0 -4.03643e-06)
(0 -0 -3.75587e-06)
(0 -0 -3.47358e-06)
(0 -0 -3.18968e-06)
(0 -0 -2.90429e-06)
(0 -0 -2.61763e-06)
(0 -0 -2.33033e-06)
(0 -0 -2.04371e-06)
(0 -0 -1.75999e-06)
(0 -0 -1.48231e-06)
(0 -0 -1.2144e-06)
(0 -0 -9.59877e-07)
(0 -0 -7.21484e-07)
(0 -0 -5.00728e-07)
(0 -0 -2.98504e-07)
(0 -0 -1.01077e-07)
(0 -0 -3.6417e-07)
(0 -0 -9.20273e-07)
(0 -0 -1.26118e-06)
(0 -0 -1.55821e-06)
(0 -0 -1.8183e-06)
(0 -0 -2.05052e-06)
(0 -0 -2.26157e-06)
(0 -0 -2.45758e-06)
(0 -0 -2.64459e-06)
(0 -0 -2.82826e-06)
(0 -0 -3.01333e-06)
(0 -0 -3.20329e-06)
(0 -0 -3.40028e-06)
(0 -0 -3.60516e-06)
(0 -0 -3.81779e-06)
(0 -0 -4.03737e-06)
(0 -0 -4.26268e-06)
(0 -0 -4.49234e-06)
(0 -0 -4.72509e-06)
(0 -0 -4.95973e-06)
(0 -0 -5.19524e-06)
(0 -0 -5.43085e-06)
(0 -0 -5.66598e-06)
(0 -0 -5.90032e-06)
(0 -0 -6.13389e-06)
(0 -0 -6.36687e-06)
(0 -0 -6.59962e-06)
(0 -0 -6.8326e-06)
(0 -0 -7.06618e-06)
(0 -0 -7.30062e-06)
(0 -0 -7.53609e-06)
(0 -0 -7.77263e-06)
(0 -0 -8.01013e-06)
(0 -0 -8.24851e-06)
(0 -0 -8.4875e-06)
(0 -0 -8.72661e-06)
(0 -0 -8.96512e-06)
(0 -0 -9.20211e-06)
(0 -0 -9.43643e-06)
(0 -0 -9.66692e-06)
(0 -0 -9.89274e-06)
(0 -0 -1.01135e-05)
(0 -0 -1.03298e-05)
(0 -0 -1.05429e-05)
(0 -0 -1.07553e-05)
(0 -0 -1.09699e-05)
(0 -0 -1.11896e-05)
(0 -0 -1.14172e-05)
(0 -0 -1.16547e-05)
(0 -0 -1.19026e-05)
(0 -0 -1.21604e-05)
(0 -0 -1.24259e-05)
(0 -0 -1.26958e-05)
(0 -0 -1.29658e-05)
(0 -0 -1.32313e-05)
(0 -0 -1.34881e-05)
(0 -0 -1.37326e-05)
(0 -0 -1.39628e-05)
(0 -0 -1.41783e-05)
(0 -0 -1.43811e-05)
(0 -0 -1.45748e-05)
(0 -0 -1.47648e-05)
(0 -0 -1.49566e-05)
(0 -0 -1.51558e-05)
(0 -0 -1.53658e-05)
(0 -0 -1.55885e-05)
(0 -0 -1.58231e-05)
(0 -0 -1.60667e-05)
(0 -0 -1.63149e-05)
(0 -0 -1.6563e-05)
(0 -0 -1.68073e-05)
(0 -0 -1.70456e-05)
(0 -0 -1.72775e-05)
(0 -0 -1.75041e-05)
(0 -0 -1.77275e-05)
(0 -0 -1.79496e-05)
(0 -0 -1.81711e-05)
(0 -0 -1.83913e-05)
(0 -0 -1.86082e-05)
(0 -0 -1.88187e-05)
(0 -0 -1.90197e-05)
(0 -0 -1.92091e-05)
(0 -0 -1.93866e-05)
(0 -0 -1.9554e-05)
(0 -0 -1.97153e-05)
(0 -0 -1.9876e-05)
(0 -0 -2.00416e-05)
(0 -0 -2.02173e-05)
(0 -0 -2.04063e-05)
(0 -0 -2.06099e-05)
(0 -0 -2.08265e-05)
(0 -0 -2.10523e-05)
(0 -0 -2.12819e-05)
(0 -0 -2.15092e-05)
(0 -0 -2.1728e-05)
(0 -0 -2.19335e-05)
(0 -0 -2.21227e-05)
(0 -0 -2.22947e-05)
(0 -0 -2.24508e-05)
(0 -0 -2.2594e-05)
(0 -0 -2.27279e-05)
(0 -0 -2.28566e-05)
(0 -0 -2.2983e-05)
(0 -0 -2.31089e-05)
(0 -0 -2.32349e-05)
(0 -0 -2.33602e-05)
(0 -0 -2.3484e-05)
(0 -0 -2.36049e-05)
(0 -0 -2.37219e-05)
(0 -0 -2.3834e-05)
(0 -0 -2.39399e-05)
(0 -0 -2.40381e-05)
(0 -0 -2.41267e-05)
(0 -0 -2.42038e-05)
(0 -0 -2.42686e-05)
(0 -0 -2.43212e-05)
(0 -0 -2.43639e-05)
(0 -0 -2.44002e-05)
(0 -0 -2.44353e-05)
(0 -0 -2.44748e-05)
(0 -0 -2.45233e-05)
(0 -0 -2.45833e-05)
(0 -0 -2.46549e-05)
(0 -0 -2.47354e-05)
(0 -0 -2.48205e-05)
(0 -0 -2.49047e-05)
(0 -0 -2.4983e-05)
(0 -0 -2.50513e-05)
(0 -0 -2.51073e-05)
(0 -0 -2.51508e-05)
(0 -0 -2.51831e-05)
(0 -0 -2.52063e-05)
(0 -0 -2.52225e-05)
(0 -0 -2.52337e-05)
(0 -0 -2.52416e-05)
(0 -0 -2.52472e-05)
(0 -0 -2.52512e-05)
(0 -0 -2.52541e-05)
(0 -0 -2.52563e-05)
(0 -0 -2.52576e-05)
(0 -0 -2.52566e-05)
(0 -0 -2.52512e-05)
(0 -0 -2.52388e-05)
(0 -0 -2.52171e-05)
(0 -0 -2.51844e-05)
(0 -0 -2.51413e-05)
(0 -0 -2.509e-05)
(0 -0 -2.50346e-05)
(0 -0 -2.498e-05)
(0 -0 -2.49307e-05)
(0 -0 -2.48892e-05)
(0 -0 -2.48556e-05)
(0 -0 -2.48276e-05)
(0 -0 -2.48008e-05)
(0 -0 -2.477e-05)
(0 -0 -2.47304e-05)
(0 -0 -2.46792e-05)
(0 -0 -2.46156e-05)
(0 -0 -2.45403e-05)
(0 -0 -2.44543e-05)
(0 -0 -2.43578e-05)
(0 -0 -2.4249e-05)
(0 -0 -2.4125e-05)
(0 -0 -2.39834e-05)
(0 -0 -2.38242e-05)
(0 -0 -2.3652e-05)
(0 -0 -2.34753e-05)
(0 -0 -2.33054e-05)
(0 -0 -2.31526e-05)
(0 -0 -2.3023e-05)
(0 -0 -2.29173e-05)
(0 -0 -2.28297e-05)
(0 -0 -2.27503e-05)
(0 -0 -2.26681e-05)
(0 -0 -2.25739e-05)
(0 -0 -2.24627e-05)
(0 -0 -2.23344e-05)
(0 -0 -2.21924e-05)
(0 -0 -2.20421e-05)
(0 -0 -2.18883e-05)
(0 -0 -2.1734e-05)
(0 -0 -2.15798e-05)
(0 -0 -2.14242e-05)
(0 -0 -2.12648e-05)
(0 -0 -2.10995e-05)