/*--------------------------------*- C++ -*----------------------------------*\
| =========                 |                                                 |
| \\      /  F ield         | OpenFOAM: The Open Source CFD Toolbox           |
|  \\    /   O peration     | Version:  v2012                                 |
|   \\  /    A nd           | Website:  www.openfoam.com                      |
|    \\/     M anipulation  |                                                 |
\*---------------------------------------------------------------------------*/
FoamFile
{
    version     2.0;
    format      ascii;
    class       volVectorField;
    location    "4.25";
    object      U;
}
// * * * * * * * * * * * * * * * * * * * * * * * * * * * * * * * * * * * * * //

dimensions      [0 1 -1 0 0 0 0];


internalField   nonuniform List<vector> 
65536
(
(0.000733952 -0.000733934 0)
(0.00220182 -0.000733897 0)
(0.00366957 -0.000733823 0)
(0.00513715 -0.000733711 0)
(0.00660446 -0.000733562 0)
(0.00807143 -0.000733375 0)
(0.00953799 -0.000733148 0)
(0.0110041 -0.000732883 0)
(0.0124696 -0.000732576 0)
(0.0139344 -0.000732228 0)
(0.0153985 -0.000731837 0)
(0.0168618 -0.000731402 0)
(0.0183242 -0.000730922 0)
(0.0197855 -0.000730395 0)
(0.0212458 -0.00072982 0)
(0.0227049 -0.000729194 0)
(0.0241626 -0.000728516 0)
(0.025619 -0.000727784 0)
(0.0270738 -0.000726995 0)
(0.028527 -0.000726149 0)
(0.0299785 -0.000725242 0)
(0.031428 -0.000724271 0)
(0.0328756 -0.000723236 0)
(0.0343211 -0.000722132 0)
(0.0357642 -0.000720957 0)
(0.037205 -0.000719709 0)
(0.0386431 -0.000718384 0)
(0.0400786 -0.00071698 0)
(0.0415111 -0.000715493 0)
(0.0429406 -0.000713922 0)
(0.0443669 -0.000712261 0)
(0.0457898 -0.000710509 0)
(0.047209 -0.000708662 0)
(0.0486245 -0.000706717 0)
(0.050036 -0.00070467 0)
(0.0514433 -0.000702517 0)
(0.0528462 -0.000700257 0)
(0.0542444 -0.000697885 0)
(0.0556378 -0.000695397 0)
(0.0570261 -0.000692791 0)
(0.0584091 -0.000690062 0)
(0.0597865 -0.000687208 0)
(0.0611581 -0.000684225 0)
(0.0625235 -0.000681109 0)
(0.0638826 -0.000677857 0)
(0.0652351 -0.000674466 0)
(0.0665806 -0.000670933 0)
(0.067919 -0.000667254 0)
(0.0692498 -0.000663425 0)
(0.0705728 -0.000659445 0)
(0.0718877 -0.00065531 0)
(0.0731942 -0.000651016 0)
(0.074492 -0.000646562 0)
(0.0757806 -0.000641944 0)
(0.0770599 -0.00063716 0)
(0.0783294 -0.000632208 0)
(0.0795889 -0.000627084 0)
(0.080838 -0.000621787 0)
(0.0820762 -0.000616315 0)
(0.0833034 -0.000610666 0)
(0.0845191 -0.000604838 0)
(0.0857229 -0.00059883 0)
(0.0869146 -0.00059264 0)
(0.0880937 -0.000586267 0)
(0.0892598 -0.000579711 0)
(0.0904127 -0.00057297 0)
(0.0915519 -0.000566044 0)
(0.0926771 -0.000558933 0)
(0.0937878 -0.000551637 0)
(0.0948838 -0.000544155 0)
(0.0959646 -0.000536489 0)
(0.0970299 -0.000528639 0)
(0.0980794 -0.000520605 0)
(0.0991125 -0.00051239 0)
(0.100129 -0.000503994 0)
(0.101129 -0.000495419 0)
(0.102111 -0.000486667 0)
(0.103076 -0.00047774 0)
(0.104022 -0.000468641 0)
(0.10495 -0.000459371 0)
(0.10586 -0.000449935 0)
(0.10675 -0.000440335 0)
(0.107621 -0.000430575 0)
(0.108473 -0.000420658 0)
(0.109304 -0.000410589 0)
(0.110115 -0.00040037 0)
(0.110906 -0.000390007 0)
(0.111675 -0.000379505 0)
(0.112424 -0.000368867 0)
(0.113151 -0.000358099 0)
(0.113856 -0.000347206 0)
(0.11454 -0.000336194 0)
(0.115201 -0.000325067 0)
(0.11584 -0.000313832 0)
(0.116457 -0.000302494 0)
(0.11705 -0.00029106 0)
(0.117621 -0.000279535 0)
(0.118169 -0.000267925 0)
(0.118693 -0.000256237 0)
(0.119194 -0.000244478 0)
(0.119671 -0.000232653 0)
(0.120124 -0.000220769 0)
(0.120554 -0.000208833 0)
(0.12096 -0.000196851 0)
(0.121341 -0.00018483 0)
(0.121699 -0.000172777 0)
(0.122032 -0.000160699 0)
(0.122342 -0.000148601 0)
(0.122627 -0.000136491 0)
(0.122888 -0.000124374 0)
(0.123124 -0.000112259 0)
(0.123337 -0.00010015 0)
(0.123525 -8.80544e-05 0)
(0.123689 -7.59786e-05 0)
(0.123829 -6.39286e-05 0)
(0.123945 -5.19105e-05 0)
(0.124036 -3.99302e-05 0)
(0.124104 -2.79936e-05 0)
(0.124148 -1.61062e-05 0)
(0.124169 -4.27375e-06 0)
(0.124165 7.49849e-06 0)
(0.124139 1.92052e-05 0)
(0.124089 3.08414e-05 0)
(0.124015 4.24022e-05 0)
(0.123919 5.38828e-05 0)
(0.1238 6.52786e-05 0)
(0.123658 7.65854e-05 0)
(0.123493 8.77989e-05 0)
(0.123306 9.89152e-05 0)
(0.123097 0.00010993 0)
(0.122866 0.000120841 0)
(0.122614 0.000131643 0)
(0.12234 0.000142334 0)
(0.122044 0.000152911 0)
(0.121728 0.000163371 0)
(0.121391 0.000173711 0)
(0.121033 0.000183928 0)
(0.120655 0.000194021 0)
(0.120257 0.000203987 0)
(0.119839 0.000213824 0)
(0.119401 0.000223531 0)
(0.118945 0.000233106 0)
(0.118469 0.000242547 0)
(0.117974 0.000251854 0)
(0.117461 0.000261025 0)
(0.11693 0.000270059 0)
(0.116381 0.000278955 0)
(0.115814 0.000287714 0)
(0.11523 0.000296334 0)
(0.114629 0.000304814 0)
(0.114011 0.000313155 0)
(0.113376 0.000321357 0)
(0.112725 0.000329419 0)
(0.112058 0.000337342 0)
(0.111376 0.000345125 0)
(0.110677 0.00035277 0)
(0.109964 0.000360276 0)
(0.109236 0.000367644 0)
(0.108494 0.000374874 0)
(0.107737 0.000381967 0)
(0.106966 0.000388925 0)
(0.106181 0.000395747 0)
(0.105382 0.000402434 0)
(0.104571 0.000408988 0)
(0.103746 0.000415409 0)
(0.102909 0.000421698 0)
(0.102059 0.000427857 0)
(0.101198 0.000433886 0)
(0.100324 0.000439788 0)
(0.0994383 0.000445562 0)
(0.0985414 0.00045121 0)
(0.0976334 0.000456734 0)
(0.0967144 0.000462134 0)
(0.0957847 0.000467413 0)
(0.0948446 0.000472571 0)
(0.0938943 0.00047761 0)
(0.092934 0.000482531 0)
(0.0919641 0.000487335 0)
(0.0909846 0.000492025 0)
(0.0899958 0.000496601 0)
(0.0889981 0.000501066 0)
(0.0879915 0.000505419 0)
(0.0869763 0.000509664 0)
(0.0859527 0.000513801 0)
(0.084921 0.000517832 0)
(0.0838813 0.000521759 0)
(0.0828338 0.000525582 0)
(0.0817789 0.000529305 0)
(0.0807165 0.000532927 0)
(0.079647 0.000536451 0)
(0.0785706 0.000539878 0)
(0.0774874 0.00054321 0)
(0.0763977 0.000546448 0)
(0.0753016 0.000549594 0)
(0.0741992 0.000552649 0)
(0.0730909 0.000555615 0)
(0.0719767 0.000558494 0)
(0.0708568 0.000561286 0)
(0.0697314 0.000563995 0)
(0.0686008 0.00056662 0)
(0.0674649 0.000569164 0)
(0.066324 0.000571629 0)
(0.0651783 0.000574015 0)
(0.0640279 0.000576324 0)
(0.0628729 0.000578559 0)
(0.0617136 0.000580719 0)
(0.06055 0.000582808 0)
(0.0593823 0.000584826 0)
(0.0582106 0.000586775 0)
(0.0570351 0.000588656 0)
(0.0558559 0.000590471 0)
(0.0546731 0.000592222 0)
(0.053487 0.000593909 0)
(0.0522975 0.000595535 0)
(0.0511048 0.0005971 0)
(0.049909 0.000598606 0)
(0.0487103 0.000600055 0)
(0.0475087 0.000601448 0)
(0.0463044 0.000602786 0)
(0.0450975 0.00060407 0)
(0.0438881 0.000605303 0)
(0.0426763 0.000606485 0)
(0.0414621 0.000607617 0)
(0.0402457 0.000608701 0)
(0.0390273 0.000609738 0)
(0.0378067 0.00061073 0)
(0.0365843 0.000611677 0)
(0.03536 0.000612581 0)
(0.0341339 0.000613442 0)
(0.0329062 0.000614262 0)
(0.0316768 0.000615042 0)
(0.030446 0.000615784 0)
(0.0292137 0.000616487 0)
(0.02798 0.000617153 0)
(0.026745 0.000617783 0)
(0.0255088 0.000618378 0)
(0.0242715 0.000618939 0)
(0.023033 0.000619466 0)
(0.0217936 0.000619961 0)
(0.0205532 0.000620424 0)
(0.0193118 0.000620856 0)
(0.0180697 0.000621257 0)
(0.0168268 0.000621629 0)
(0.0155831 0.000621972 0)
(0.0143389 0.000622286 0)
(0.013094 0.000622572 0)
(0.0118485 0.00062283 0)
(0.0106026 0.000623061 0)
(0.00935628 0.000623266 0)
(0.00810954 0.000623444 0)
(0.00686247 0.000623596 0)
(0.00561513 0.000623723 0)
(0.00436756 0.000623823 0)
(0.00311981 0.000623899 0)
(0.00187193 0.000623949 0)
(0.000623987 0.000623974 0)
(0.000733988 -0.00220184 0)
(0.00220193 -0.00220173 0)
(0.00366976 -0.0022015 0)
(0.0051374 -0.00220117 0)
(0.00660479 -0.00220072 0)
(0.00807184 -0.00220016 0)
(0.00953848 -0.00219948 0)
(0.0110046 -0.00219869 0)
(0.0124702 -0.00219777 0)
(0.0139351 -0.00219673 0)
(0.0153993 -0.00219555 0)
(0.0168627 -0.00219425 0)
(0.0183252 -0.00219281 0)
(0.0197866 -0.00219123 0)
(0.021247 -0.00218951 0)
(0.0227062 -0.00218763 0)
(0.024164 -0.0021856 0)
(0.0256205 -0.00218341 0)
(0.0270754 -0.00218104 0)
(0.0285288 -0.00217851 0)
(0.0299803 -0.00217579 0)
(0.03143 -0.00217288 0)
(0.0328777 -0.00216977 0)
(0.0343233 -0.00216646 0)
(0.0357666 -0.00216294 0)
(0.0372075 -0.0021592 0)
(0.0386458 -0.00215523 0)
(0.0400814 -0.00215102 0)
(0.0415142 -0.00214656 0)
(0.0429438 -0.00214185 0)
(0.0443703 -0.00213687 0)
(0.0457933 -0.00213162 0)
(0.0472128 -0.00212608 0)
(0.0486285 -0.00212025 0)
(0.0500402 -0.00211411 0)
(0.0514477 -0.00210766 0)
(0.0528508 -0.00210088 0)
(0.0542493 -0.00209377 0)
(0.0556429 -0.00208631 0)
(0.0570314 -0.00207849 0)
(0.0584147 -0.00207031 0)
(0.0597923 -0.00206175 0)
(0.0611641 -0.00205281 0)
(0.0625299 -0.00204346 0)
(0.0638893 -0.00203371 0)
(0.065242 -0.00202354 0)
(0.0665878 -0.00201294 0)
(0.0679265 -0.00200191 0)
(0.0692576 -0.00199043 0)
(0.0705809 -0.00197849 0)
(0.0718961 -0.00196609 0)
(0.0732029 -0.00195321 0)
(0.074501 -0.00193985 0)
(0.07579 -0.001926 0)
(0.0770696 -0.00191165 0)
(0.0783395 -0.00189679 0)
(0.0795993 -0.00188142 0)
(0.0808487 -0.00186554 0)
(0.0820873 -0.00184912 0)
(0.0833148 -0.00183218 0)
(0.0845309 -0.00181469 0)
(0.0857351 -0.00179667 0)
(0.0869271 -0.0017781 0)
(0.0881066 -0.00175898 0)
(0.0892731 -0.00173932 0)
(0.0904263 -0.00171909 0)
(0.0915659 -0.00169832 0)
(0.0926914 -0.00167698 0)
(0.0938026 -0.00165509 0)
(0.0948989 -0.00163265 0)
(0.0959801 -0.00160965 0)
(0.0970458 -0.0015861 0)
(0.0980956 -0.001562 0)
(0.0991291 -0.00153735 0)
(0.100146 -0.00151216 0)
(0.101146 -0.00148643 0)
(0.102129 -0.00146018 0)
(0.103094 -0.00143339 0)
(0.10404 -0.00140609 0)
(0.104969 -0.00137828 0)
(0.105879 -0.00134997 0)
(0.106769 -0.00132117 0)
(0.107641 -0.00129188 0)
(0.108493 -0.00126213 0)
(0.109324 -0.00123191 0)
(0.110136 -0.00120125 0)
(0.110926 -0.00117016 0)
(0.111696 -0.00113865 0)
(0.112445 -0.00110673 0)
(0.113173 -0.00107442 0)
(0.113878 -0.00104174 0)
(0.114562 -0.0010087 0)
(0.115224 -0.000975311 0)
(0.115863 -0.0009416 0)
(0.116479 -0.00090758 0)
(0.117073 -0.000873271 0)
(0.117644 -0.000838689 0)
(0.118192 -0.000803854 0)
(0.118716 -0.000768784 0)
(0.119217 -0.000733498 0)
(0.119694 -0.000698017 0)
(0.120148 -0.000662359 0)
(0.120578 -0.000626545 0)
(0.120984 -0.000590593 0)
(0.121365 -0.000554524 0)
(0.121723 -0.000518359 0)
(0.122057 -0.000482116 0)
(0.122366 -0.000445816 0)
(0.122651 -0.000409478 0)
(0.122912 -0.000373123 0)
(0.123149 -0.000336769 0)
(0.123361 -0.000300437 0)
(0.123549 -0.000264144 0)
(0.123713 -0.000227911 0)
(0.123853 -0.000191755 0)
(0.123969 -0.000155695 0)
(0.12406 -0.000119748 0)
(0.124128 -8.39325e-05 0)
(0.124172 -4.82649e-05 0)
(0.124192 -1.27621e-05 0)
(0.124189 2.25598e-05 0)
(0.124162 5.76851e-05 0)
(0.124112 9.25986e-05 0)
(0.124038 0.000127286 0)
(0.123942 0.000161732 0)
(0.123822 0.000195924 0)
(0.12368 0.000229848 0)
(0.123515 0.000263493 0)
(0.123328 0.000296845 0)
(0.123119 0.000329895 0)
(0.122888 0.00036263 0)
(0.122635 0.00039504 0)
(0.122361 0.000427116 0)
(0.122065 0.00045885 0)
(0.121749 0.000490231 0)
(0.121411 0.000521252 0)
(0.121053 0.000551907 0)
(0.120675 0.000582187 0)
(0.120277 0.000612087 0)
(0.119858 0.000641601 0)
(0.119421 0.000670723 0)
(0.118964 0.000699449 0)
(0.118488 0.000727774 0)
(0.117993 0.000755695 0)
(0.11748 0.000783209 0)
(0.116948 0.000810312 0)
(0.116399 0.000837003 0)
(0.115832 0.000863279 0)
(0.115247 0.000889138 0)
(0.114646 0.00091458 0)
(0.114027 0.000939604 0)
(0.113392 0.000964209 0)
(0.112741 0.000988396 0)
(0.112074 0.00101216 0)
(0.111391 0.00103551 0)
(0.110693 0.00105845 0)
(0.109979 0.00108096 0)
(0.109251 0.00110307 0)
(0.108508 0.00112476 0)
(0.107751 0.00114604 0)
(0.106979 0.00116691 0)
(0.106194 0.00118737 0)
(0.105396 0.00120743 0)
(0.104584 0.00122709 0)
(0.103759 0.00124636 0)
(0.102922 0.00126522 0)
(0.102072 0.0012837 0)
(0.10121 0.00130179 0)
(0.100335 0.00131949 0)
(0.0994497 0.00133681 0)
(0.0985526 0.00135375 0)
(0.0976443 0.00137032 0)
(0.096725 0.00138652 0)
(0.0957951 0.00140236 0)
(0.0948548 0.00141783 0)
(0.0939043 0.00143295 0)
(0.0929438 0.00144771 0)
(0.0919736 0.00146212 0)
(0.0909939 0.00147619 0)
(0.0900049 0.00148991 0)
(0.0890069 0.00150331 0)
(0.0880001 0.00151637 0)
(0.0869847 0.0015291 0)
(0.0859609 0.00154151 0)
(0.0849289 0.0015536 0)
(0.083889 0.00156538 0)
(0.0828414 0.00157685 0)
(0.0817862 0.00158801 0)
(0.0807237 0.00159888 0)
(0.079654 0.00160945 0)
(0.0785774 0.00161973 0)
(0.077494 0.00162972 0)
(0.0764041 0.00163943 0)
(0.0753078 0.00164887 0)
(0.0742053 0.00165804 0)
(0.0730967 0.00166693 0)
(0.0719824 0.00167557 0)
(0.0708623 0.00168394 0)
(0.0697368 0.00169207 0)
(0.0686059 0.00169994 0)
(0.0674699 0.00170757 0)
(0.0663289 0.00171496 0)
(0.065183 0.00172212 0)
(0.0640324 0.00172905 0)
(0.0628773 0.00173575 0)
(0.0617178 0.00174223 0)
(0.0605541 0.00174849 0)
(0.0593862 0.00175455 0)
(0.0582144 0.00176039 0)
(0.0570388 0.00176603 0)
(0.0558595 0.00177148 0)
(0.0546766 0.00177673 0)
(0.0534903 0.00178179 0)
(0.0523007 0.00178666 0)
(0.0511078 0.00179136 0)
(0.049912 0.00179588 0)
(0.0487131 0.00180022 0)
(0.0475115 0.0018044 0)
(0.0463071 0.00180841 0)
(0.0451 0.00181226 0)
(0.0438905 0.00181596 0)
(0.0426786 0.0018195 0)
(0.0414643 0.0018229 0)
(0.0402479 0.00182615 0)
(0.0390293 0.00182926 0)
(0.0378087 0.00183223 0)
(0.0365861 0.00183507 0)
(0.0353618 0.00183778 0)
(0.0341356 0.00184037 0)
(0.0329078 0.00184283 0)
(0.0316784 0.00184517 0)
(0.0304474 0.00184739 0)
(0.029215 0.0018495 0)
(0.0279813 0.0018515 0)
(0.0267462 0.00185339 0)
(0.02551 0.00185517 0)
(0.0242726 0.00185685 0)
(0.0230341 0.00185843 0)
(0.0217945 0.00185992 0)
(0.0205541 0.0018613 0)
(0.0193127 0.0018626 0)
(0.0180705 0.0018638 0)
(0.0168275 0.00186492 0)
(0.0155838 0.00186594 0)
(0.0143395 0.00186689 0)
(0.0130945 0.00186774 0)
(0.011849 0.00186852 0)
(0.0106031 0.00186921 0)
(0.00935666 0.00186982 0)
(0.00810987 0.00187036 0)
(0.00686275 0.00187081 0)
(0.00561536 0.00187119 0)
(0.00436773 0.0018715 0)
(0.00311993 0.00187172 0)
(0.00187201 0.00187187 0)
(0.000624012 0.00187195 0)
(0.000734062 -0.00366985 0)
(0.00220215 -0.00366967 0)
(0.00367013 -0.0036693 0)
(0.00513792 -0.00366874 0)
(0.00660546 -0.003668 0)
(0.00807267 -0.00366707 0)
(0.00953946 -0.00366594 0)
(0.0110058 -0.00366461 0)
(0.0124715 -0.00366309 0)
(0.0139366 -0.00366135 0)
(0.015401 -0.0036594 0)
(0.0168645 -0.00365724 0)
(0.0183272 -0.00365484 0)
(0.0197888 -0.00365222 0)
(0.0212494 -0.00364935 0)
(0.0227088 -0.00364623 0)
(0.0241668 -0.00364285 0)
(0.0256235 -0.0036392 0)
(0.0270787 -0.00363527 0)
(0.0285323 -0.00363105 0)
(0.0299841 -0.00362652 0)
(0.031434 -0.00362168 0)
(0.032882 -0.00361652 0)
(0.0343279 -0.00361101 0)
(0.0357715 -0.00360515 0)
(0.0372126 -0.00359892 0)
(0.0386513 -0.00359231 0)
(0.0400872 -0.00358531 0)
(0.0415203 -0.00357789 0)
(0.0429503 -0.00357005 0)
(0.0443771 -0.00356176 0)
(0.0458005 -0.00355302 0)
(0.0472204 -0.0035438 0)
(0.0486365 -0.00353409 0)
(0.0500486 -0.00352387 0)
(0.0514565 -0.00351313 0)
(0.05286 -0.00350184 0)
(0.054259 -0.00349 0)
(0.0556531 -0.00347758 0)
(0.0570421 -0.00346456 0)
(0.0584258 -0.00345094 0)
(0.059804 -0.00343668 0)
(0.0611763 -0.00342178 0)
(0.0625426 -0.00340622 0)
(0.0639025 -0.00338998 0)
(0.0652558 -0.00337304 0)
(0.0666023 -0.00335539 0)
(0.0679415 -0.00333701 0)
(0.0692732 -0.00331789 0)
(0.0705971 -0.003298 0)
(0.071913 -0.00327734 0)
(0.0732204 -0.00325588 0)
(0.0745192 -0.00323363 0)
(0.0758088 -0.00321055 0)
(0.0770891 -0.00318664 0)
(0.0783596 -0.00316189 0)
(0.0796201 -0.00313628 0)
(0.0808702 -0.00310981 0)
(0.0821096 -0.00308246 0)
(0.0833378 -0.00305422 0)
(0.0845546 -0.00302509 0)
(0.0857595 -0.00299506 0)
(0.0869522 -0.00296411 0)
(0.0881324 -0.00293225 0)
(0.0892997 -0.00289948 0)
(0.0904537 -0.00286577 0)
(0.091594 -0.00283115 0)
(0.0927203 -0.00279559 0)
(0.0938321 -0.00275911 0)
(0.0949292 -0.0027217 0)
(0.0960111 -0.00268336 0)
(0.0970776 -0.00264411 0)
(0.0981281 -0.00260394 0)
(0.0991623 -0.00256285 0)
(0.10018 -0.00252086 0)
(0.101181 -0.00247798 0)
(0.102164 -0.00243421 0)
(0.10313 -0.00238956 0)
(0.104077 -0.00234405 0)
(0.105006 -0.00229769 0)
(0.105917 -0.00225049 0)
(0.106808 -0.00220248 0)
(0.10768 -0.00215366 0)
(0.108533 -0.00210406 0)
(0.109365 -0.00205369 0)
(0.110177 -0.00200257 0)
(0.110968 -0.00195074 0)
(0.111739 -0.0018982 0)
(0.112488 -0.00184499 0)
(0.113216 -0.00179112 0)
(0.113922 -0.00173663 0)
(0.114606 -0.00168154 0)
(0.115268 -0.00162588 0)
(0.115908 -0.00156967 0)
(0.116525 -0.00151296 0)
(0.117119 -0.00145575 0)
(0.11769 -0.0013981 0)
(0.118238 -0.00134002 0)
(0.118763 -0.00128155 0)
(0.119264 -0.00122272 0)
(0.119742 -0.00116356 0)
(0.120196 -0.00110411 0)
(0.120626 -0.00104439 0)
(0.121032 -0.000984452 0)
(0.121414 -0.000924315 0)
(0.121771 -0.000864017 0)
(0.122105 -0.00080359 0)
(0.122414 -0.000743068 0)
(0.1227 -0.000682484 0)
(0.12296 -0.00062187 0)
(0.123197 -0.000561259 0)
(0.123409 -0.000500684 0)
(0.123597 -0.000440175 0)
(0.123761 -0.000379766 0)
(0.123901 -0.000319486 0)
(0.124017 -0.000259365 0)
(0.124108 -0.000199435 0)
(0.124176 -0.000139723 0)
(0.12422 -8.02588e-05 0)
(0.12424 -2.10695e-05 0)
(0.124236 3.78178e-05 0)
(0.124209 9.63769e-05 0)
(0.124158 0.000154582 0)
(0.124084 0.00021241 0)
(0.123987 0.000269835 0)
(0.123868 0.000326836 0)
(0.123725 0.000383391 0)
(0.12356 0.000439479 0)
(0.123373 0.000495079 0)
(0.123163 0.000550173 0)
(0.122932 0.000604743 0)
(0.122678 0.000658771 0)
(0.122404 0.000712242 0)
(0.122108 0.00076514 0)
(0.12179 0.000817451 0)
(0.121453 0.000869162 0)
(0.121094 0.00092026 0)
(0.120715 0.000970734 0)
(0.120316 0.00102057 0)
(0.119898 0.00106977 0)
(0.119459 0.00111831 0)
(0.119002 0.00116619 0)
(0.118525 0.00121341 0)
(0.11803 0.00125994 0)
(0.117516 0.0013058 0)
(0.116984 0.00135098 0)
(0.116434 0.00139547 0)
(0.115866 0.00143926 0)
(0.115281 0.00148236 0)
(0.114679 0.00152476 0)
(0.11406 0.00156647 0)
(0.113425 0.00160748 0)
(0.112773 0.00164779 0)
(0.112105 0.0016874 0)
(0.111422 0.00172632 0)
(0.110723 0.00176454 0)
(0.110009 0.00180207 0)
(0.10928 0.0018389 0)
(0.108537 0.00187505 0)
(0.107779 0.00191052 0)
(0.107007 0.0019453 0)
(0.106221 0.0019794 0)
(0.105422 0.00201284 0)
(0.10461 0.0020456 0)
(0.103785 0.0020777 0)
(0.102946 0.00210914 0)
(0.102096 0.00213993 0)
(0.101233 0.00217007 0)
(0.100359 0.00219957 0)
(0.0994726 0.00222844 0)
(0.0985749 0.00225667 0)
(0.0976661 0.00228428 0)
(0.0967464 0.00231128 0)
(0.095816 0.00233766 0)
(0.0948752 0.00236345 0)
(0.0939242 0.00238863 0)
(0.0929632 0.00241323 0)
(0.0919925 0.00243725 0)
(0.0910124 0.00246069 0)
(0.090023 0.00248356 0)
(0.0890245 0.00250588 0)
(0.0880173 0.00252764 0)
(0.0870014 0.00254886 0)
(0.0859772 0.00256953 0)
(0.0849448 0.00258968 0)
(0.0839045 0.00260931 0)
(0.0828565 0.00262842 0)
(0.0818009 0.00264702 0)
(0.080738 0.00266512 0)
(0.0796679 0.00268274 0)
(0.0785909 0.00269986 0)
(0.0775071 0.00271652 0)
(0.0764168 0.0027327 0)
(0.0753202 0.00274842 0)
(0.0742173 0.00276369 0)
(0.0731084 0.00277851 0)
(0.0719937 0.0027929 0)
(0.0708733 0.00280685 0)
(0.0697475 0.00282039 0)
(0.0686163 0.00283351 0)
(0.0674799 0.00284622 0)
(0.0663386 0.00285853 0)
(0.0651924 0.00287046 0)
(0.0640415 0.002882 0)
(0.0628861 0.00289316 0)
(0.0617263 0.00290396 0)
(0.0605623 0.00291439 0)
(0.0593942 0.00292448 0)
(0.0582221 0.00293421 0)
(0.0570462 0.00294361 0)
(0.0558666 0.00295268 0)
(0.0546835 0.00296142 0)
(0.0534969 0.00296985 0)
(0.052307 0.00297797 0)
(0.051114 0.00298579 0)
(0.0499179 0.00299332 0)
(0.0487188 0.00300056 0)
(0.0475169 0.00300751 0)
(0.0463123 0.0030142 0)
(0.0451051 0.00302061 0)
(0.0438953 0.00302677 0)
(0.0426832 0.00303267 0)
(0.0414688 0.00303833 0)
(0.0402521 0.00304374 0)
(0.0390333 0.00304892 0)
(0.0378126 0.00305387 0)
(0.0365898 0.0030586 0)
(0.0353653 0.00306311 0)
(0.034139 0.00306742 0)
(0.032911 0.00307151 0)
(0.0316814 0.00307541 0)
(0.0304503 0.00307911 0)
(0.0292178 0.00308262 0)
(0.0279839 0.00308595 0)
(0.0267487 0.00308909 0)
(0.0255123 0.00309206 0)
(0.0242747 0.00309486 0)
(0.0230361 0.0030975 0)
(0.0217964 0.00309997 0)
(0.0205558 0.00310228 0)
(0.0193143 0.00310443 0)
(0.018072 0.00310644 0)
(0.0168289 0.00310829 0)
(0.0155851 0.00311 0)
(0.0143407 0.00311157 0)
(0.0130956 0.003113 0)
(0.01185 0.00311429 0)
(0.0106039 0.00311544 0)
(0.00935742 0.00311646 0)
(0.00811053 0.00311735 0)
(0.00686331 0.00311811 0)
(0.00561581 0.00311874 0)
(0.00436809 0.00311925 0)
(0.00312019 0.00311962 0)
(0.00187216 0.00311987 0)
(0.000624062 0.00312 0)
(0.000734173 -0.00513805 0)
(0.00220248 -0.00513779 0)
(0.00367068 -0.00513728 0)
(0.0051387 -0.0051365 0)
(0.00660647 -0.00513547 0)
(0.0080739 -0.00513416 0)
(0.00954093 -0.00513259 0)
(0.0110075 -0.00513074 0)
(0.0124735 -0.00512861 0)
(0.0139388 -0.00512619 0)
(0.0154034 -0.00512347 0)
(0.0168673 -0.00512045 0)
(0.0183302 -0.00511711 0)
(0.0197921 -0.00511344 0)
(0.021253 -0.00510944 0)
(0.0227127 -0.00510508 0)
(0.0241711 -0.00510036 0)
(0.0256281 -0.00509527 0)
(0.0270836 -0.00508978 0)
(0.0285375 -0.00508389 0)
(0.0299897 -0.00507757 0)
(0.03144 -0.00507081 0)
(0.0328884 -0.0050636 0)
(0.0343347 -0.00505591 0)
(0.0357787 -0.00504772 0)
(0.0372203 -0.00503903 0)
(0.0386595 -0.00502979 0)
(0.0400959 -0.00502001 0)
(0.0415294 -0.00500965 0)
(0.04296 -0.00499869 0)
(0.0443873 -0.00498711 0)
(0.0458113 -0.00497489 0)
(0.0472317 -0.00496201 0)
(0.0486484 -0.00494844 0)
(0.0500611 -0.00493415 0)
(0.0514697 -0.00491914 0)
(0.0528739 -0.00490336 0)
(0.0542735 -0.0048868 0)
(0.0556683 -0.00486944 0)
(0.0570581 -0.00485124 0)
(0.0584426 -0.00483219 0)
(0.0598215 -0.00481226 0)
(0.0611946 -0.00479143 0)
(0.0625617 -0.00476966 0)
(0.0639224 -0.00474695 0)
(0.0652766 -0.00472326 0)
(0.0666239 -0.00469857 0)
(0.067964 -0.00467286 0)
(0.0692966 -0.0046461 0)
(0.0706215 -0.00461829 0)
(0.0719383 -0.00458938 0)
(0.0732467 -0.00455936 0)
(0.0745464 -0.00452822 0)
(0.075837 -0.00449594 0)
(0.0771183 -0.00446248 0)
(0.0783899 -0.00442785 0)
(0.0796514 -0.00439201 0)
(0.0809025 -0.00435496 0)
(0.0821429 -0.00431668 0)
(0.0833722 -0.00427716 0)
(0.0845901 -0.00423639 0)
(0.0857961 -0.00419435 0)
(0.0869899 -0.00415104 0)
(0.0881712 -0.00410644 0)
(0.0893396 -0.00406056 0)
(0.0904947 -0.00401338 0)
(0.0916361 -0.0039649 0)
(0.0927635 -0.00391513 0)
(0.0938765 -0.00386405 0)
(0.0949747 -0.00381167 0)
(0.0960577 -0.003758 0)
(0.0971252 -0.00370304 0)
(0.0981769 -0.00364679 0)
(0.0992122 -0.00358926 0)
(0.100231 -0.00353046 0)
(0.101233 -0.00347041 0)
(0.102217 -0.00340912 0)
(0.103184 -0.0033466 0)
(0.104132 -0.00328286 0)
(0.105063 -0.00321794 0)
(0.105974 -0.00315184 0)
(0.106866 -0.00308459 0)
(0.107739 -0.00301622 0)
(0.108593 -0.00294675 0)
(0.109426 -0.0028762 0)
(0.110239 -0.00280461 0)
(0.111031 -0.00273201 0)
(0.111802 -0.00265843 0)
(0.112552 -0.00258389 0)
(0.113281 -0.00250845 0)
(0.113988 -0.00243212 0)
(0.114673 -0.00235496 0)
(0.115335 -0.00227699 0)
(0.115976 -0.00219826 0)
(0.116593 -0.00211882 0)
(0.117188 -0.00203869 0)
(0.11776 -0.00195793 0)
(0.118308 -0.00187657 0)
(0.118834 -0.00179467 0)
(0.119335 -0.00171226 0)
(0.119813 -0.00162939 0)
(0.120267 -0.00154611 0)
(0.120697 -0.00146247 0)
(0.121104 -0.00137851 0)
(0.121486 -0.00129427 0)
(0.121844 -0.0012098 0)
(0.122178 -0.00112516 0)
(0.122487 -0.00104038 0)
(0.122772 -0.000955519 0)
(0.123033 -0.000870613 0)
(0.12327 -0.000785713 0)
(0.123482 -0.000700863 0)
(0.12367 -0.000616107 0)
(0.123834 -0.000531491 0)
(0.123973 -0.000447056 0)
(0.124089 -0.000362846 0)
(0.12418 -0.000278903 0)
(0.124247 -0.000195266 0)
(0.124291 -0.000111977 0)
(0.12431 -2.90746e-05 0)
(0.124306 5.34043e-05 0)
(0.124279 0.000135423 0)
(0.124228 0.000216944 0)
(0.124154 0.000297936 0)
(0.124056 0.000378364 0)
(0.123936 0.000458196 0)
(0.123793 0.000537402 0)
(0.123627 0.000615952 0)
(0.123439 0.000693819 0)
(0.123229 0.000770976 0)
(0.122997 0.000847397 0)
(0.122743 0.00092306 0)
(0.122467 0.00099794 0)
(0.122171 0.00107202 0)
(0.121853 0.00114527 0)
(0.121514 0.00121768 0)
(0.121155 0.00128924 0)
(0.120775 0.00135992 0)
(0.120376 0.0014297 0)
(0.119956 0.00149859 0)
(0.119517 0.00156656 0)
(0.119059 0.0016336 0)
(0.118581 0.00169971 0)
(0.118085 0.00176487 0)
(0.117571 0.00182908 0)
(0.117038 0.00189233 0)
(0.116487 0.00195462 0)
(0.115918 0.00201594 0)
(0.115333 0.00207628 0)
(0.11473 0.00213565 0)
(0.11411 0.00219404 0)
(0.113474 0.00225145 0)
(0.112821 0.00230788 0)
(0.112152 0.00236334 0)
(0.111468 0.00241782 0)
(0.110768 0.00247133 0)
(0.110054 0.00252386 0)
(0.109324 0.00257543 0)
(0.10858 0.00262603 0)
(0.107821 0.00267568 0)
(0.107048 0.00272437 0)
(0.106262 0.00277211 0)
(0.105462 0.0028189 0)
(0.104649 0.00286477 0)
(0.103823 0.0029097 0)
(0.102984 0.00295371 0)
(0.102133 0.00299681 0)
(0.101269 0.003039 0)
(0.100394 0.00308029 0)
(0.0995068 0.00312069 0)
(0.0986084 0.00316021 0)
(0.0976989 0.00319886 0)
(0.0967784 0.00323664 0)
(0.0958473 0.00327357 0)
(0.0949058 0.00330966 0)
(0.093954 0.00334491 0)
(0.0929924 0.00337934 0)
(0.092021 0.00341295 0)
(0.0910402 0.00344576 0)
(0.0900501 0.00347777 0)
(0.089051 0.003509 0)
(0.088043 0.00353946 0)
(0.0870266 0.00356915 0)
(0.0860017 0.00359809 0)
(0.0849687 0.00362629 0)
(0.0839278 0.00365375 0)
(0.0828791 0.0036805 0)
(0.0818229 0.00370653 0)
(0.0807594 0.00373186 0)
(0.0796887 0.00375651 0)
(0.0786112 0.00378048 0)
(0.0775268 0.00380378 0)
(0.076436 0.00382642 0)
(0.0753387 0.00384842 0)
(0.0742353 0.00386979 0)
(0.0731259 0.00389053 0)
(0.0720107 0.00391066 0)
(0.0708898 0.00393019 0)
(0.0697634 0.00394912 0)
(0.0686318 0.00396748 0)
(0.0674949 0.00398527 0)
(0.0663531 0.0040025 0)
(0.0652064 0.00401918 0)
(0.0640551 0.00403532 0)
(0.0628993 0.00405094 0)
(0.061739 0.00406605 0)
(0.0605746 0.00408064 0)
(0.0594061 0.00409475 0)
(0.0582336 0.00410837 0)
(0.0570573 0.00412152 0)
(0.0558773 0.0041342 0)
(0.0546938 0.00414644 0)
(0.0535068 0.00415823 0)
(0.0523166 0.00416959 0)
(0.0511232 0.00418052 0)
(0.0499267 0.00419105 0)
(0.0487273 0.00420117 0)
(0.0475251 0.0042109 0)
(0.0463201 0.00422025 0)
(0.0451126 0.00422922 0)
(0.0439026 0.00423783 0)
(0.0426901 0.00424609 0)
(0.0414754 0.00425399 0)
(0.0402585 0.00426157 0)
(0.0390394 0.00426881 0)
(0.0378184 0.00427573 0)
(0.0365954 0.00428235 0)
(0.0353706 0.00428866 0)
(0.034144 0.00429467 0)
(0.0329158 0.0043004 0)
(0.031686 0.00430584 0)
(0.0304546 0.00431102 0)
(0.0292219 0.00431593 0)
(0.0279878 0.00432058 0)
(0.0267524 0.00432498 0)
(0.0255157 0.00432913 0)
(0.024278 0.00433304 0)
(0.0230392 0.00433672 0)
(0.0217993 0.00434018 0)
(0.0205585 0.00434341 0)
(0.0193168 0.00434642 0)
(0.0180743 0.00434922 0)
(0.0168311 0.00435181 0)
(0.0155871 0.0043542 0)
(0.0143425 0.00435639 0)
(0.0130972 0.00435839 0)
(0.0118515 0.00436019 0)
(0.0106052 0.0043618 0)
(0.00935857 0.00436323 0)
(0.00811152 0.00436447 0)
(0.00686414 0.00436554 0)
(0.00561649 0.00436642 0)
(0.00436861 0.00436712 0)
(0.00312056 0.00436765 0)
(0.00187239 0.004368 0)
(0.000624137 0.00436817 0)
(0.000734319 -0.00660651 0)
(0.00220292 -0.00660618 0)
(0.00367142 -0.00660552 0)
(0.00513973 -0.00660453 0)
(0.0066078 -0.0066032 0)
(0.00807554 -0.00660153 0)
(0.00954289 -0.00659952 0)
(0.0110098 -0.00659715 0)
(0.0124761 -0.00659443 0)
(0.0139418 -0.00659133 0)
(0.0154067 -0.00658785 0)
(0.0168709 -0.00658398 0)
(0.0183342 -0.0065797 0)
(0.0197965 -0.00657501 0)
(0.0212577 -0.00656988 0)
(0.0227178 -0.0065643 0)
(0.0241767 -0.00655826 0)
(0.0256341 -0.00655173 0)
(0.0270901 -0.0065447 0)
(0.0285445 -0.00653715 0)
(0.0299972 -0.00652906 0)
(0.031448 -0.0065204 0)
(0.0328969 -0.00651116 0)
(0.0343437 -0.0065013 0)
(0.0357883 -0.00649081 0)
(0.0372306 -0.00647966 0)
(0.0386703 -0.00646783 0)
(0.0401074 -0.00645528 0)
(0.0415416 -0.006442 0)
(0.0429728 -0.00642794 0)
(0.0444009 -0.0064131 0)
(0.0458256 -0.00639743 0)
(0.0472468 -0.0063809 0)
(0.0486643 -0.00636349 0)
(0.0500779 -0.00634517 0)
(0.0514873 -0.00632591 0)
(0.0528924 -0.00630566 0)
(0.0542929 -0.00628442 0)
(0.0556886 -0.00626213 0)
(0.0570794 -0.00623878 0)
(0.0584648 -0.00621433 0)
(0.0598448 -0.00618874 0)
(0.0612189 -0.006162 0)
(0.0625871 -0.00613406 0)
(0.063949 -0.00610489 0)
(0.0653042 -0.00607447 0)
(0.0666527 -0.00604277 0)
(0.067994 -0.00600975 0)
(0.0693278 -0.00597539 0)
(0.0706539 -0.00593966 0)
(0.0719719 -0.00590253 0)
(0.0732816 -0.00586397 0)
(0.0745826 -0.00582397 0)
(0.0758746 -0.00578248 0)
(0.0771572 -0.0057395 0)
(0.0784301 -0.005695 0)
(0.0796931 -0.00564895 0)
(0.0809456 -0.00560134 0)
(0.0821874 -0.00555215 0)
(0.0834181 -0.00550136 0)
(0.0846374 -0.00544896 0)
(0.0858449 -0.00539492 0)
(0.0870402 -0.00533925 0)
(0.088223 -0.00528192 0)
(0.0893928 -0.00522294 0)
(0.0905494 -0.00516228 0)
(0.0916923 -0.00509996 0)
(0.0928212 -0.00503596 0)
(0.0939356 -0.00497029 0)
(0.0950353 -0.00490294 0)
(0.0961198 -0.00483393 0)
(0.0971888 -0.00476325 0)
(0.0982419 -0.00469091 0)
(0.0992787 -0.00461693 0)
(0.100299 -0.00454132 0)
(0.101302 -0.00446409 0)
(0.102288 -0.00438526 0)
(0.103256 -0.00430484 0)
(0.104206 -0.00422287 0)
(0.105137 -0.00413936 0)
(0.10605 -0.00405434 0)
(0.106944 -0.00396783 0)
(0.107818 -0.00387988 0)
(0.108673 -0.00379052 0)
(0.109507 -0.00369976 0)
(0.110321 -0.00360767 0)
(0.111115 -0.00351427 0)
(0.111887 -0.0034196 0)
(0.112638 -0.00332371 0)
(0.113368 -0.00322665 0)
(0.114076 -0.00312845 0)
(0.114761 -0.00302917 0)
(0.115425 -0.00292887 0)
(0.116066 -0.00282757 0)
(0.116685 -0.00272536 0)
(0.11728 -0.00262226 0)
(0.117853 -0.00251835 0)
(0.118402 -0.00241367 0)
(0.118928 -0.00230829 0)
(0.11943 -0.00220226 0)
(0.119908 -0.00209564 0)
(0.120363 -0.00198849 0)
(0.120793 -0.00188087 0)
(0.1212 -0.00177283 0)
(0.121582 -0.00166445 0)
(0.121941 -0.00155577 0)
(0.122274 -0.00144686 0)
(0.122584 -0.00133778 0)
(0.122869 -0.00122859 0)
(0.12313 -0.00111935 0)
(0.123367 -0.00101012 0)
(0.123579 -0.000900948 0)
(0.123767 -0.000791901 0)
(0.12393 -0.000683033 0)
(0.12407 -0.000574402 0)
(0.124185 -0.00046606 0)
(0.124276 -0.000358063 0)
(0.124343 -0.000250462 0)
(0.124386 -0.00014331 0)
(0.124405 -3.66554e-05 0)
(0.1244 6.94518e-05 0)
(0.124372 0.000174965 0)
(0.124321 0.000279838 0)
(0.124246 0.000384026 0)
(0.124148 0.000487488 0)
(0.124027 0.000590181 0)
(0.123883 0.000692068 0)