/*--------------------------------*- C++ -*----------------------------------*\
| =========                 |                                                 |
| \\      /  F ield         | OpenFOAM: The Open Source CFD Toolbox           |
|  \\    /   O peration     | Version:  v2012                                 |
|   \\  /    A nd           | Website:  www.openfoam.com                      |
|    \\/     M anipulation  |                                                 |
\*---------------------------------------------------------------------------*/
FoamFile
{
    version     2.0;
    format      ascii;
    class       volVectorField;
    location    "0";
    object      U;
}
// * * * * * * * * * * * * * * * * * * * * * * * * * * * * * * * * * * * * * //

dimensions      [0 1 -1 0 0 0 0];


internalField   nonuniform List<vector> 
4000
(
(1 2.53523e-15 0)
(1 4.17904e-15 0)
(1 4.45231e-17 0)
(1 1.24594e-15 0)
(1 -1.30374e-15 0)
(1 -5.83069e-15 0)
(1 5.15983e-15 0)
(1 3.6048e-15 0)
(1 2.22611e-15 0)
(1 -3.05908e-15 0)
(1 -3.99561e-15 0)
(1 -3.46073e-15 0)
(1 1.36427e-15 0)
(1 6.1993e-15 0)
(1 -2.22625e-15 0)
(1 -4.01842e-15 0)
(1 6.30601e-16 0)
(1 -2.52544e-15 0)
(1 -1.11194e-16 0)
(1 -7.92158e-16 0)
(1 -3.50491e-15 0)
(1 -6.56226e-16 0)
(1 8.56619e-16 0)
(1 -6.3104e-16 0)
(1 6.86096e-15 0)
(1 2.59632e-15 0)
(1 -6.46679e-15 0)
(1 -8.80876e-15 0)
(1 -8.23459e-15 0)
(1 3.96082e-15 0)
(1 3.00856e-15 0)
(1 3.5658e-15 0)
(1 -6.50258e-15 0)
(1 4.56776e-15 0)
(1 2.18601e-15 0)
(1 6.27673e-15 0)
(1 7.43873e-15 0)
(1 4.66035e-15 0)
(1 2.48655e-15 0)
(1 -6.63478e-15 0)
(1 -3.46813e-15 0)
(1 -6.6007e-15 0)
(1 -1.34078e-15 0)
(1 2.67849e-15 0)
(1 4.2168e-15 0)
(1 -9.01541e-16 0)
(1 9.21952e-16 0)
(1 3.07003e-15 0)
(1 -1.17562e-15 0)
(1 2.5989e-15 0)
(1 2.53954e-15 0)
(1 2.15932e-15 0)
(1 7.93332e-16 0)
(1 2.70559e-15 0)
(1 -1.17858e-15 0)
(1 2.37786e-15 0)
(1 1.64153e-16 0)
(1 3.93611e-16 0)
(1 -1.61884e-15 0)
(1 4.90386e-15 0)
(1 7.97307e-16 0)
(1 3.9456e-16 0)
(1 -1.04956e-15 0)
(1 -3.60098e-15 0)
(1 -2.02736e-15 0)
(1 -2.0261e-15 0)
(1 1.15401e-15 0)
(1 2.27999e-15 0)
(1 1.64791e-15 0)
(1 4.10873e-16 0)
(1 -2.15862e-15 0)
(1 -1.19941e-15 0)
(1 -7.57576e-15 0)
(1 -4.6097e-15 0)
(1 -4.6636e-15 0)
(1 -1.89484e-15 0)
(1 -2.78236e-15 0)
(1 -3.91606e-15 0)
(1 7.91451e-16 0)
(1 1.34043e-15 0)
(1 2.94291e-15 0)
(1 3.77847e-15 0)
(1 -2.20576e-15 0)
(1 -4.66352e-15 0)
(1 5.15603e-16 0)
(1 1.25182e-15 0)
(1 6.91431e-16 0)
(1 6.2715e-16 0)
(1 -1.1673e-15 0)
(1 3.49481e-15 0)
(1 2.70713e-15 0)
(1 2.99779e-15 0)
(1 -2.49308e-15 0)
(1 -1.87888e-16 0)
(1 2.01668e-15 0)
(1 -5.85038e-17 0)
(1 -2.25524e-15 0)
(1 6.95111e-16 0)
(1 3.02416e-16 0)
(1 -1.6367e-15 0)
(1 3.06949e-15 0)
(1 3.94842e-15 0)
(1 7.75941e-16 0)
(1 1.44069e-15 0)
(1 -2.95012e-15 0)
(1 -5.90781e-15 0)
(1 2.28821e-15 0)
(1 3.61956e-15 0)
(1 3.93015e-16 0)
(1 2.02687e-15 0)
(1 -1.04022e-15 0)
(1 -5.41517e-15 0)
(1 -6.73648e-17 0)
(1 7.37243e-15 0)
(1 -2.80692e-15 0)
(1 -6.07248e-15 0)
(1 3.26691e-15 0)
(1 1.47911e-15 0)
(1 3.10884e-15 0)
(1 1.29345e-15 0)
(1 -3.53398e-15 0)
(1 -1.41268e-15 0)
(1 3.68759e-16 0)
(1 -7.94499e-17 0)
(1 -7.33921e-16 0)
(1 -2.74646e-15 0)
(1 -2.663e-15 0)
(1 -6.99665e-15 0)
(1 -8.48564e-15 0)
(1 4.99439e-15 0)
(1 2.44789e-15 0)
(1 2.95257e-15 0)
(1 -8.17835e-15 0)
(1 2.78969e-15 0)
(1 -1.53596e-15 0)
(1 4.53299e-15 0)
(1 7.5425e-15 0)
(1 1.09666e-14 0)
(1 -3.82958e-15 0)
(1 -6.52452e-15 0)
(1 -5.87355e-15 0)
(1 -1.78463e-15 0)
(1 -4.53464e-16 0)
(1 3.97322e-15 0)
(1 -2.0469e-16 0)
(1 -5.69902e-15 0)
(1 -6.41086e-15 0)
(1 -8.84973e-16 0)
(1 2.94682e-15 0)
(1 2.05828e-15 0)
(1 7.92401e-15 0)
(1 2.1705e-15 0)
(1 -3.8291e-15 0)
(1 8.39811e-16 0)
(1 1.37458e-15 0)
(1 2.87749e-15 0)
(1 -6.64257e-16 0)
(1 -1.91527e-15 0)
(1 -3.01483e-15 0)
(1 -1.46597e-15 0)
(1 -2.53237e-15 0)
(1 2.32077e-15 0)
(1 3.07114e-15 0)
(1 -6.09368e-17 0)
(1 -1.74356e-16 0)
(1 4.39272e-17 0)
(1 2.60011e-15 0)
(1 9.59701e-16 0)
(1 2.74141e-15 0)
(1 -1.13695e-15 0)
(1 -5.64824e-16 0)
(1 6.76713e-16 0)
(1 -1.24033e-16 0)
(1 2.81853e-15 0)
(1 4.75322e-15 0)
(1 6.43846e-16 0)
(1 -1.60423e-15 0)
(1 -2.98375e-15 0)
(1 4.03821e-16 0)
(1 9.73944e-16 0)
(1 3.21308e-15 0)
(1 -1.26616e-15 0)
(1 -4.48364e-15 0)
(1 8.27903e-16 0)
(1 5.34559e-15 0)
(1 5.04139e-15 0)
(1 1.12494e-15 0)
(1 -5.32739e-15 0)
(1 -3.2099e-15 0)
(1 9.03618e-17 0)
(1 5.00321e-16 0)
(1 3.43381e-15 0)
(1 -1.88086e-15 0)
(1 7.92046e-16 0)
(1 -7.66093e-16 0)
(1 7.98989e-16 0)
(1 -2.03006e-15 0)
(1 2.84109e-15 0)
(1 -1.88627e-15 0)
(1 -4.38429e-15 0)
(1 -4.45911e-15 0)
(1 4.80105e-15 0)
(1 -5.84457e-15 0)
(1 1.93591e-15 0)
(1 -1.02911e-15 0)
(1 7.9081e-16 0)
(1 -8.91807e-16 0)
(1 8.89117e-15 0)
(1 6.34434e-15 0)
(1 -3.27054e-16 0)
(1 -2.76971e-15 0)
(1 -1.37147e-15 0)
(1 1.28563e-16 0)
(1 2.54482e-15 0)
(1 1.94702e-15 0)
(1 -8.67323e-15 0)
(1 3.69985e-16 0)
(1 4.04902e-15 0)
(1 2.99126e-15 0)
(1 9.81046e-16 0)
(1 8.52624e-16 0)
(1 -1.84436e-15 0)
(1 -1.02565e-15 0)
(1 2.06102e-15 0)
(1 1.86232e-16 0)
(1 1.46613e-15 0)
(1 3.67056e-15 0)
(1 4.4701e-15 0)
(1 2.6283e-15 0)
(1 4.06934e-15 0)
(1 1.70499e-15 0)
(1 -4.51676e-15 0)
(1 -1.4061e-15 0)
(1 -8.57704e-15 0)
(1 -2.92977e-15 0)
(1 -5.15252e-16 0)
(1 1.8543e-15 0)
(1 3.76884e-15 0)
(1 -2.58792e-15 0)
(1 2.25842e-15 0)
(1 1.58306e-15 0)
(1 5.27632e-16 0)
(1 1.08309e-15 0)
(1 1.96244e-15 0)
(1 1.75963e-15 0)
(1 3.38155e-15 0)
(1 -2.34627e-15 0)
(1 -1.67893e-15 0)
(1 2.83783e-15 0)
(1 -3.89883e-15 0)
(1 7.49494e-15 0)
(1 4.49628e-15 0)
(1 1.79384e-15 0)
(1 -3.02082e-15 0)
(1 1.13955e-15 0)
(1 -6.51921e-17 0)
(1 -4.86281e-16 0)
(1 -3.43156e-15 0)
(1 -1.25523e-16 0)
(1 -4.35233e-15 0)
(1 -1.14978e-15 0)
(1 4.94125e-15 0)
(1 3.95553e-15 0)
(1 -1.55819e-15 0)
(1 -2.76708e-15 0)
(1 -8.07233e-16 0)
(1 2.56303e-15 0)
(1 9.4969e-16 0)
(1 1.16733e-15 0)
(1 -1.818e-15 0)
(1 2.69807e-15 0)
(1 -9.39062e-16 0)
(1 -8.06904e-16 0)
(1 -2.17102e-15 0)
(1 -8.98594e-16 0)
(1 -4.95694e-15 0)
(1 -1.50549e-15 0)
(1 2.46562e-15 0)
(1 4.42743e-16 0)
(1 -9.16159e-16 0)
(1 -2.41874e-15 0)
(1 -3.76669e-15 0)
(1 -2.35124e-15 0)
(1 2.52163e-15 0)
(1 1.12613e-15 0)
(1 2.18952e-15 0)
(1 4.92692e-16 0)
(1 -1.9819e-15 0)
(1 -6.71822e-16 0)
(1 2.3118e-15 0)
(1 1.8433e-15 0)
(1 4.09436e-15 0)
(1 -5.62368e-16 0)
(1 -2.0996e-15 0)
(1 -7.5316e-16 0)
(1 -7.20715e-16 0)
(1 3.49816e-17 0)
(1 -3.86385e-16 0)
(1 -4.34705e-15 0)
(1 -2.03955e-15 0)
(1 -7.55207e-16 0)
(1 -4.24912e-15 0)
(1 -4.81223e-15 0)
(1 -6.52749e-15 0)
(1 5.37104e-15 0)
(1 8.16129e-15 0)
(1 2.70693e-15 0)
(1 7.03353e-15 0)
(1 4.61056e-15 0)
(1 -2.57555e-15 0)
(1 -2.83657e-15 0)
(1 -3.22304e-15 0)
(1 4.17751e-15 0)
(1 8.54142e-15 0)
(1 8.25278e-15 0)
(1 -1.70211e-15 0)
(1 -5.6085e-15 0)
(1 1.59489e-15 0)
(1 -2.25422e-15 0)
(1 6.0962e-15 0)
(1 4.87158e-15 0)
(1 -5.85104e-15 0)
(1 9.41207e-16 0)
(1 6.74736e-15 0)
(1 1.39477e-14 0)
(1 1.42482e-14 0)
(1 4.51931e-15 0)
(1 -4.31098e-16 0)
(1 -3.64321e-15 0)
(1 -9.52989e-16 0)
(1 -4.22317e-15 0)
(1 -6.33492e-15 0)
(1 -3.41719e-15 0)
(1 -1.03756e-14 0)
(1 -1.53711e-16 0)
(1 -6.29573e-15 0)
(1 3.17654e-15 0)
(1 -2.44987e-15 0)
(1 1.41337e-14 0)
(1 -2.87833e-16 0)
(1 2.41687e-15 0)
(1 -5.98126e-15 0)
(1 6.13228e-16 0)
(1 -1.24645e-15 0)
(1 3.61316e-15 0)
(1 6.41614e-15 0)
(1 7.62364e-15 0)
(1 2.01122e-15 0)
(1 1.30691e-15 0)
(1 3.09884e-15 0)
(1 6.87197e-15 0)
(1 5.51774e-15 0)
(1 2.43118e-15 0)
(1 -5.81055e-15 0)
(1 -5.13574e-15 0)
(1 3.3582e-15 0)
(1 -1.542e-15 0)
(1 -1.2229e-15 0)
(1 -3.71759e-16 0)
(1 -2.76935e-15 0)
(1 3.27714e-15 0)
(1 4.36727e-15 0)
(1 -1.19968e-16 0)
(1 -2.19095e-15 0)
(1 2.07299e-15 0)
(1 -2.30388e-15 0)
(1 -1.10557e-15 0)
(1 8.28946e-16 0)
(1 -3.04978e-15 0)
(1 -3.53144e-15 0)
(1 4.14502e-15 0)
(1 -1.18842e-15 0)
(1 -7.94748e-15 0)
(1 -1.04672e-14 0)
(1 -7.3359e-15 0)
(1 -7.21508e-15 0)
(1 -8.81283e-16 0)
(1 4.94532e-15 0)
(1 1.50887e-15 0)
(1 1.7609e-15 0)
(1 1.76843e-16 0)
(1 -1.5823e-15 0)
(1 -1.48336e-15 0)
(1 -2.92217e-15 0)
(1 3.3466e-15 0)
(1 4.45817e-15 0)
(1 5.34944e-15 0)
(1 4.87679e-15 0)
(1 3.02808e-15 0)
(1 5.75844e-15 0)
(1 4.37488e-15 0)
(1 1.28871e-15 0)
(1 2.35333e-15 0)
(1 9.38677e-17 0)
(1 -7.76602e-17 0)
(1 -5.72053e-15 0)
(1 -6.01313e-15 0)
(1 -4.82648e-15 0)
(1 -4.01224e-15 0)
(1 1.44812e-15 0)
(1 4.87341e-15 0)
(1 -2.88391e-15 0)
(1 -6.856e-16 0)
(1 -8.21576e-16 0)
(1 4.13614e-15 0)
(1 2.9948e-15 0)
(1 -4.39427e-15 0)
(1 -5.08355e-15 0)
(1 -4.91948e-15 0)
(1 -9.86125e-16 0)
(1 6.72564e-15 0)
(1 -1.68992e-15 0)
(1 8.82371e-15 0)
(1 -3.63594e-15 0)
(1 8.77391e-15 0)
(1 1.48657e-15 0)
(1 2.5444e-15 0)
(1 -3.84322e-15 0)
(1 6.10958e-16 0)
(1 -3.63988e-15 0)
(1 -3.4984e-15 0)
(1 -9.48557e-15 0)
(1 -9.05833e-16 0)
(1 1.13933e-14 0)
(1 1.56563e-14 0)
(1 7.19542e-15 0)
(1 3.99698e-15 0)
(1 3.87377e-15 0)
(1 5.98613e-15 0)
(1 6.024e-15 0)
(1 -8.64504e-16 0)
(1 3.4439e-16 0)
(1 -1.02623e-14 0)
(1 -3.69117e-15 0)
(1 -3.79194e-15 0)
(1 -1.39028e-14 0)
(1 -2.25421e-15 0)
(1 -2.64327e-15 0)
(1 5.88491e-15 0)
(1 1.17931e-15 0)
(1 -2.14032e-15 0)
(1 -9.52345e-16 0)
(1 -1.33423e-15 0)
(1 9.68355e-16 0)
(1 -7.58594e-16 0)
(1 -3.10987e-15 0)
(1 3.22403e-15 0)
(1 6.27745e-15 0)
(1 5.20051e-15 0)
(1 8.64257e-15 0)
(1 1.30764e-15 0)
(1 2.81786e-15 0)
(1 -5.19061e-15 0)
(1 -4.51649e-15 0)
(1 -3.7984e-15 0)
(1 2.13585e-16 0)
(1 1.16942e-16 0)
(1 -1.05282e-15 0)
(1 2.35019e-15 0)
(1 3.27612e-15 0)
(1 5.74224e-15 0)
(1 2.32846e-15 0)
(1 3.54156e-16 0)
(1 4.40133e-15 0)
(1 8.14277e-15 0)
(1 5.22832e-15 0)
(1 1.2497e-16 0)
(1 6.22148e-16 0)
(1 -1.60353e-15 0)
(1 -5.81985e-15 0)
(1 5.03154e-17 0)
(1 -3.49455e-15 0)
(1 -7.78993e-16 0)
(1 -3.0053e-15 0)
(1 -2.62396e-15 0)
(1 -4.43258e-15 0)
(1 -3.28792e-16 0)
(1 1.41102e-15 0)
(1 -1.60657e-16 0)
(1 2.95225e-15 0)
(1 5.24173e-15 0)
(1 -2.1132e-15 0)
(1 9.17411e-16 0)
(1 -1.66899e-15 0)
(1 4.81474e-15 0)
(1 7.19907e-15 0)
(1 4.93486e-15 0)
(1 3.21867e-15 0)
(1 6.21837e-15 0)
(1 1.37137e-15 0)
(1 2.83631e-15 0)
(1 -1.87853e-15 0)
(1 4.79924e-15 0)
(1 4.67666e-15 0)
(1 -3.33655e-16 0)
(1 -2.7423e-15 0)
(1 -2.73947e-15 0)
(1 -2.39033e-15 0)
(1 1.07002e-15 0)
(1 3.86087e-15 0)
(1 -9.54279e-16 0)
(1 4.06324e-15 0)
(1 -1.21131e-15 0)
(1 3.61932e-15 0)
(1 -6.28728e-15 0)
(1 -1.04262e-15 0)
(1 -3.24787e-16 0)
(1 -2.5728e-15 0)
(1 1.41437e-15 0)
(1 -5.64383e-15 0)
(1 7.34969e-15 0)
(1 6.96083e-15 0)
(1 4.87905e-15 0)
(1 -6.51116e-15 0)
(1 4.32703e-16 0)
(1 1.50519e-15 0)
(1 1.00159e-14 0)
(1 -7.71987e-15 0)
(1 -6.41487e-15 0)
(1 -1.41767e-14 0)
(1 -2.93181e-16 0)
(1 1.58553e-14 0)
(1 1.42198e-14 0)
(1 8.53369e-15 0)
(1 5.96339e-15 0)
(1 6.66101e-16 0)
(1 -2.27483e-15 0)
(1 8.56205e-15 0)
(1 5.69482e-15 0)
(1 5.08015e-15 0)
(1 1.23861e-15 0)
(1 2.01459e-15 0)
(1 -7.35738e-15 0)
(1 -5.20684e-15 0)
(1 -3.34013e-15 0)
(1 -3.7986e-15 0)
(1 -2.7183e-15 0)
(1 -5.53835e-15 0)
(1 -8.74948e-16 0)
(1 5.33813e-15 0)
(1 4.02858e-16 0)
(1 5.7974e-15 0)
(1 2.926e-15 0)
(1 6.70313e-15 0)
(1 4.13607e-15 0)
(1 8.78978e-16 0)
(1 -1.11847e-15 0)
(1 4.77962e-15 0)
(1 4.58121e-15 0)
(1 1.79612e-15 0)
(1 3.48031e-15 0)
(1 9.8029e-15 0)
(1 1.96123e-15 0)
(1 -2.35112e-17 0)
(1 -5.7866e-15 0)
(1 -5.60958e-15 0)
(1 -2.34121e-15 0)
(1 -3.54929e-15 0)
(1 4.49052e-15 0)
(1 1.29947e-14 0)
(1 5.37572e-15 0)
(1 -1.16249e-15 0)
(1 3.0047e-15 0)
(1 8.68502e-16 0)
(1 1.62293e-15 0)
(1 9.62601e-15 0)
(1 6.94539e-15 0)
(1 9.58669e-15 0)
(1 1.11222e-14 0)
(1 1.34992e-14 0)
(1 6.25769e-15 0)
(1 -8.05212e-15 0)
(1 -3.50397e-15 0)
(1 -5.13723e-15 0)
(1 -8.24302e-15 0)
(1 -8.52236e-15 0)
(1 -2.55746e-15 0)
(1 1.54908e-15 0)
(1 1.33606e-15 0)
(1 2.60059e-15 0)
(1 1.89731e-15 0)
(1 4.43635e-15 0)
(1 6.5223e-16 0)
(1 -4.74566e-15 0)
(1 -5.03442e-15 0)
(1 8.58638e-16 0)
(1 6.2464e-16 0)
(1 2.78166e-15 0)
(1 3.82999e-15 0)
(1 2.33202e-15 0)
(1 -5.07198e-17 0)
(1 4.8559e-15 0)
(1 3.87523e-15 0)
(1 5.29788e-15 0)
(1 1.48604e-15 0)
(1 4.56744e-15 0)
(1 5.40342e-15 0)
(1 5.15035e-15 0)
(1 9.82671e-15 0)
(1 6.12957e-15 0)
(1 -3.37e-16 0)
(1 1.59244e-15 0)
(1 6.81223e-15 0)
(1 4.78663e-15 0)
(1 -2.1886e-15 0)
(1 8.769e-16 0)
(1 1.21105e-15 0)
(1 -3.00273e-15 0)
(1 8.57599e-16 0)
(1 1.26951e-16 0)
(1 -3.43467e-15 0)
(1 5.24912e-16 0)
(1 -6.00847e-15 0)
(1 2.3737e-15 0)
(1 -7.32118e-16 0)
(1 7.15083e-15 0)
(1 4.81578e-15 0)
(1 -1.83597e-15 0)
(1 -7.04153e-15 0)
(1 4.21135e-15 0)
(1 6.45371e-15 0)
(1 8.5581e-15 0)
(1 -8.10381e-16 0)
(1 -3.75413e-15 0)
(1 -3.65188e-15 0)
(1 -8.73104e-16 0)
(1 5.57888e-15 0)
(1 1.0571e-14 0)
(1 4.00477e-15 0)
(1 1.92682e-15 0)
(1 5.80474e-15 0)
(1 2.9496e-15 0)
(1 2.29357e-15 0)
(1 -9.38512e-15 0)
(1 -4.41524e-15 0)
(1 1.54824e-15 0)
(1 -4.04142e-15 0)
(1 -3.57436e-15 0)
(1 4.55513e-15 0)
(1 5.1218e-15 0)
(1 9.07196e-15 0)
(1 9.96014e-15 0)
(1 1.05834e-14 0)
(1 7.81698e-15 0)
(1 -4.43754e-15 0)
(1 -3.39745e-15 0)
(1 -1.15136e-15 0)
(1 -6.06703e-16 0)
(1 -1.67943e-16 0)
(1 1.96786e-15 0)
(1 5.53971e-15 0)
(1 2.85052e-15 0)
(1 -1.30153e-15 0)
(1 -5.19588e-15 0)
(1 -1.68417e-15 0)
(1 -8.49336e-16 0)
(1 2.48773e-15 0)
(1 -2.65736e-15 0)
(1 -1.98378e-15 0)
(1 5.79807e-15 0)
(1 6.78898e-15 0)
(1 6.35795e-15 0)
(1 9.06499e-15 0)
(1 2.37961e-16 0)
(1 -1.45044e-15 0)
(1 4.99869e-15 0)
(1 5.32317e-15 0)
(1 3.90666e-15 0)
(1 3.60956e-15 0)
(1 8.24375e-15 0)
(1 2.43577e-15 0)
(1 -1.94818e-15 0)
(1 -8.38469e-15 0)
(1 -1.28875e-15 0)
(1 -1.33194e-16 0)
(1 2.5333e-15 0)
(1 4.6583e-15 0)
(1 5.84658e-15 0)
(1 6.25726e-15 0)
(1 -3.46251e-16 0)
(1 -3.93823e-16 0)
(1 3.96706e-16 0)
(1 1.58478e-15 0)
(1 -1.89986e-15 0)
(1 2.88616e-15 0)
(1 7.47456e-15 0)
(1 8.63998e-15 0)
(1 8.38976e-15 0)
(1 3.23134e-15 0)
(1 2.74131e-15 0)
(1 2.77209e-15 0)
(1 6.38851e-15 0)
(1 5.54448e-15 0)
(1 7.98825e-15 0)
(1 2.15803e-15 0)
(1 8.0835e-15 0)
(1 7.94156e-15 0)
(1 1.16096e-14 0)
(1 6.85018e-15 0)
(1 6.64943e-15 0)
(1 1.0796e-15 0)
(1 -5.73475e-16 0)
(1 1.78228e-15 0)
(1 -1.49782e-15 0)
(1 5.29503e-15 0)
(1 -8.69241e-16 0)
(1 -2.74458e-15 0)
(1 -2.39448e-15 0)
(1 1.96874e-16 0)
(1 4.44341e-15 0)
(1 -7.8438e-15 0)
(1 -2.32761e-15 0)
(1 -4.04894e-15 0)
(1 1.06005e-14 0)
(1 2.65027e-15 0)
(1 9.96553e-15 0)
(1 2.42331e-15 0)
(1 7.82999e-15 0)
(1 -3.87373e-15 0)
(1 4.81925e-15 0)
(1 -5.33085e-15 0)
(1 -7.29836e-15 0)
(1 -1.05189e-14 0)
(1 -3.4954e-15 0)
(1 2.16044e-15 0)
(1 -4.15882e-15 0)
(1 3.64878e-15 0)
(1 8.91172e-15 0)
(1 1.07775e-14 0)
(1 7.26658e-15 0)
(1 8.97864e-15 0)
(1 -6.63302e-15 0)
(1 -4.8906e-16 0)
(1 5.78556e-16 0)
(1 -2.4164e-15 0)
(1 2.16376e-16 0)
(1 -2.24355e-15 0)
(1 -5.46521e-16 0)
(1 -1.48664e-15 0)
(1 4.97491e-15 0)
(1 1.63628e-15 0)
(1 -7.65811e-15 0)
(1 -1.88735e-15 0)
(1 4.41367e-15 0)
(1 3.97931e-15 0)
(1 2.58364e-15 0)
(1 4.94044e-15 0)
(1 3.93159e-15 0)
(1 2.83991e-15 0)
(1 5.09549e-15 0)
(1 6.70172e-15 0)
(1 -1.7109e-15 0)
(1 4.42664e-15 0)
(1 1.27991e-15 0)
(1 1.27116e-14 0)
(1 2.34127e-15 0)
(1 4.91109e-15 0)
(1 -1.00701e-14 0)
(1 -8.69552e-15 0)
(1 -5.15077e-15 0)
(1 5.4565e-15 0)
(1 1.29688e-14 0)
(1 1.28129e-14 0)
(1 1.11972e-14 0)
(1 6.65177e-15 0)
(1 6.36122e-15 0)
(1 7.45405e-15 0)
(1 2.45159e-15 0)
(1 2.45338e-15 0)
(1 -3.37893e-15 0)
(1 -9.4808e-16 0)
(1 3.83374e-15 0)
(1 2.43616e-15 0)
(1 1.75137e-15 0)
(1 1.92898e-17 0)
(1 4.32708e-15 0)
(1 6.43268e-15 0)
(1 2.09084e-15 0)
(1 9.86917e-16 0)
(1 -4.96752e-16 0)
(1 1.01192e-16 0)
(1 -3.40411e-15 0)
(1 1.14008e-15 0)
(1 3.03467e-15 0)
(1 4.35417e-15 0)
(1 4.52586e-15 0)
(1 2.64833e-15 0)
(1 2.49961e-15 0)
(1 7.23264e-16 0)
(1 -7.85439e-16 0)
(1 5.24877e-15 0)
(1 9.73322e-16 0)
(1 4.14428e-15 0)
(1 7.45366e-15 0)
(1 7.88799e-15 0)
(1 1.25023e-14 0)
(1 1.18517e-14 0)
(1 1.3909e-14 0)
(1 8.08439e-15 0)
(1 1.06007e-14 0)
(1 -1.93004e-15 0)
(1 -2.49687e-15 0)
(1 -3.74361e-15 0)
(1 -8.61759e-15 0)
(1 1.47343e-15 0)
(1 2.2315e-15 0)
(1 2.51479e-15 0)
(1 5.45419e-15 0)
(1 2.06885e-15 0)
(1 -6.92003e-15 0)
(1 -8.07855e-15 0)
(1 4.77834e-15 0)
(1 3.33278e-15 0)
(1 1.24206e-14 0)
(1 1.91481e-15 0)
(1 3.95255e-15 0)
(1 -2.70668e-15 0)
(1 1.11181e-14 0)
(1 -3.689e-16 0)
(1 -4.91042e-15 0)
(1 -9.79322e-15 0)
(1 2.2777e-15 0)
(1 6.21259e-15 0)
(1 7.0795e-15 0)
(1 3.13171e-15 0)
(1 2.56686e-15 0)
(1 1.45429e-15 0)
(1 -5.84972e-16 0)
(1 8.92839e-16 0)
(1 9.05191e-16 0)
(1 -1.74129e-15 0)
(1 -9.13051e-15 0)
(1 -1.33367e-14 0)
(1 -3.42028e-15 0)
(1 1.05784e-15 0)
(1 6.86546e-15 0)
(1 6.07049e-15 0)
(1 7.97622e-15 0)
(1 -4.09388e-15 0)
(1 -2.57224e-15 0)
(1 -8.57696e-15 0)
(1 -4.72843e-15 0)
(1 9.46008e-16 0)
(1 4.30283e-15 0)
(1 1.98755e-14 0)
(1 1.40121e-14 0)
(1 7.6207e-15 0)
(1 2.31018e-15 0)
(1 -2.41467e-16 0)
(1 -6.0926e-16 0)
(1 4.12342e-15 0)
(1 5.43525e-15 0)
(1 1.38742e-14 0)
(1 7.82031e-15 0)
(1 6.49396e-15 0)
(1 -9.88926e-16 0)
(1 -2.13638e-15 0)
(1 -3.34647e-15 0)
(1 -5.3273e-16 0)
(1 1.70943e-16 0)
(1 3.45161e-15 0)
(1 2.14174e-15 0)
(1 -1.01975e-15 0)
(1 2.36655e-15 0)
(1 3.90936e-15 0)
(1 1.00673e-15 0)
(1 1.4839e-14 0)
(1 1.20208e-14 0)
(1 1.90621e-14 0)
(1 1.49213e-14 0)
(1 6.4082e-15 0)
(1 1.07343e-14 0)
(1 9.14747e-15 0)
(1 2.51451e-15 0)
(1 -3.93822e-15 0)
(1 -2.01106e-15 0)
(1 3.13917e-15 0)
(1 -1.67179e-15 0)
(1 9.31287e-16 0)
(1 5.78952e-15 0)
(1 5.4288e-15 0)
(1 5.38837e-15 0)
(1 2.12584e-15 0)
(1 4.12127e-16 0)
(1 3.83748e-15 0)
(1 -1.89036e-15 0)
(1 -2.36857e-16 0)
(1 -2.13221e-15 0)
(1 -1.42374e-15 0)
(1 -1.20434e-15 0)
(1 3.18341e-15 0)
(1 4.53317e-15 0)
(1 5.67827e-15 0)
(1 7.3918e-15 0)
(1 1.35408e-14 0)
(1 1.61154e-14 0)
(1 1.94442e-14 0)
(1 2.29892e-14 0)
(1 2.33612e-14 0)
(1 1.9656e-14 0)
(1 2.9933e-16 0)
(1 2.11892e-15 0)
(1 3.74598e-15 0)
(1 3.53457e-15 0)
(1 1.9043e-15 0)
(1 -5.41254e-15 0)
(1 -4.42847e-16 0)
(1 3.59605e-15 0)
(1 4.45409e-15 0)
(1 -7.29694e-15 0)
(1 -4.78779e-15 0)
(1 -4.28333e-15 0)
(1 6.3785e-15 0)
(1 -9.5172e-15 0)
(1 5.55647e-15 0)
(1 -1.04705e-15 0)
(1 2.25862e-15 0)
(1 4.13524e-15 0)
(1 5.29655e-15 0)
(1 -8.77239e-16 0)
(1 -5.82652e-15 0)
(1 -5.04575e-15 0)
(1 -2.25224e-15 0)
(1 6.37333e-15 0)
(1 5.37386e-15 0)
(1 1.18299e-14 0)
(1 6.06369e-15 0)
(1 1.6809e-15 0)
(1 1.88748e-16 0)
(1 -1.38388e-15 0)
(1 -6.66947e-17 0)
(1 2.22346e-15 0)
(1 -2.1429e-15 0)
(1 1.93506e-15 0)
(1 -3.61452e-15 0)
(1 -6.04951e-16 0)
(1 -4.83459e-15 0)
(1 1.08127e-14 0)
(1 -6.24166e-15 0)
(1 -1.0484e-14 0)
(1 -4.36909e-15 0)
(1 6.67192e-15 0)
(1 5.26904e-15 0)
(1 3.08651e-15 0)
(1 9.12956e-15 0)
(1 7.70089e-15 0)
(1 6.11728e-15 0)
(1 1.63622e-15 0)
(1 -1.18118e-15 0)
(1 3.49647e-15 0)
(1 1.56078e-15 0)
(1 2.65043e-15 0)
(1 6.37294e-15 0)
(1 7.23292e-15 0)
(1 4.94454e-15 0)
(1 6.70306e-15 0)
(1 3.31219e-15 0)
(1 4.23542e-15 0)
(1 -2.15107e-15 0)
(1 4.93631e-15 0)
(1 7.01522e-15 0)
(1 2.99818e-15 0)
(1 2.07379e-15 0)
(1 2.79793e-15 0)
(1 7.82444e-15 0)
(1 2.70667e-15 0)
(1 1.24349e-14 0)
(1 1.79677e-14 0)
(1 1.42315e-14 0)
(1 9.29708e-15 0)
(1 3.75298e-15 0)
(1 7.61759e-15 0)
(1 2.63482e-15 0)
(1 6.81405e-15 0)
(1 -9.76494e-16 0)
(1 5.36975e-15 0)
(1 9.01996e-15 0)
(1 -1.09399e-16 0)
(1 5.63022e-15 0)
(1 1.60326e-15 0)
(1 4.89006e-15 0)
(1 -4.91412e-16 0)
(1 -1.61645e-15 0)
(1 3.92695e-15 0)
(1 2.04701e-15 0)
(1 7.93293e-16 0)
(1 9.26909e-15 0)
(1 3.47429e-15 0)
(1 -1.55356e-15 0)
(1 1.06951e-15 0)
(1 5.24622e-15 0)
(1 9.87368e-15 0)
(1 1.05238e-14 0)
(1 6.2788e-15 0)
(1 1.36252e-14 0)
(1 7.32485e-15 0)
(1 1.62586e-14 0)
(1 2.12882e-14 0)
(1 2.91504e-14 0)
(1 2.33309e-14 0)
(1 1.1229e-15 0)
(1 2.45865e-16 0)
(1 2.09777e-16 0)
(1 1.29238e-15 0)
(1 -4.98913e-15 0)
(1 -4.99011e-15 0)
(1 -2.10074e-15 0)
(1 1.77518e-16 0)
(1 -1.93491e-15 0)
(1 6.16285e-15 0)
(1 9.94751e-16 0)
(1 -9.20813e-15 0)
(1 -3.00314e-15 0)
(1 -6.88413e-15 0)
(1 3.3063e-15 0)
(1 1.39418e-15 0)
(1 1.44203e-14 0)
(1 3.60267e-15 0)
(1 1.07381e-14 0)
(1 1.65573e-15 0)
(1 1.01159e-14 0)
(1 -3.23042e-15 0)
(1 -1.13068e-14 0)
(1 -9.16398e-15 0)
(1 -5.11864e-15 0)
(1 -3.20226e-15 0)
(1 -3.30814e-15 0)
(1 -4.29283e-15 0)
(1 -1.08805e-15 0)
(1 -5.26468e-16 0)
(1 5.63548e-15 0)
(1 2.27908e-15 0)
(1 3.16808e-15 0)
(1 3.77302e-15 0)
(1 -1.78631e-15 0)
(1 -3.91577e-15 0)
(1 -4.4198e-15 0)
(1 7.3117e-15 0)
(1 -7.69016e-15 0)
(1 -7.8355e-15 0)
(1 -1.29944e-15 0)
(1 -2.22087e-15 0)
(1 1.24264e-15 0)
(1 7.35646e-16 0)
(1 2.73051e-15 0)
(1 6.29547e-15 0)
(1 1.14641e-14 0)
(1 4.72332e-15 0)
(1 1.03027e-14 0)
(1 6.14316e-15 0)
(1 9.16059e-15 0)
(1 4.84274e-15 0)
(1 9.24756e-16 0)
(1 3.37843e-15 0)
(1 3.79501e-15 0)
(1 6.67208e-15 0)
(1 3.42977e-15 0)
(1 -4.37778e-16 0)
(1 -7.28456e-16 0)
(1 7.59368e-16 0)
(1 5.76205e-15 0)
(1 5.24088e-15 0)
(1 4.99491e-15 0)
(1 5.09674e-15 0)
(1 9.84895e-15 0)
(1 8.488e-15 0)
(1 4.34942e-15 0)
(1 1.02756e-14 0)
(1 1.93593e-15 0)
(1 1.2758e-15 0)
(1 1.72819e-14 0)
(1 1.15743e-14 0)
(1 8.83561e-15 0)
(1 6.45211e-15 0)
(1 6.66029e-15 0)
(1 9.13142e-15 0)
(1 8.13046e-15 0)
(1 9.31611e-15 0)
(1 6.28884e-15 0)
(1 2.63601e-15 0)
(1 -2.846e-15 0)
(1 -1.66004e-15 0)
(1 1.87128e-15 0)
(1 5.56223e-15 0)
(1 -6.96911e-16 0)
(1 1.27656e-16 0)
(1 2.14921e-15 0)
(1 -3.48913e-17 0)
(1 2.80502e-16 0)
(1 -7.76989e-16 0)
(1 4.70791e-15 0)
(1 5.42403e-15 0)
(1 1.02469e-14 0)
(1 5.82274e-15 0)
(1 1.46469e-14 0)
(1 5.82376e-15 0)
(1 1.11759e-14 0)
(1 1.28582e-14 0)
(1 2.45054e-14 0)
(1 2.15834e-14 0)
(1 2.71123e-15 0)
(1 -5.0686e-15 0)
(1 8.89722e-16 0)
(1 6.18981e-16 0)
(1 -4.51864e-15 0)
(1 2.1034e-15 0)
(1 8.83205e-16 0)
(1 3.67131e-15 0)
(1 -5.62111e-15 0)
(1 1.50887e-15 0)
(1 4.59788e-15 0)
(1 4.24161e-15 0)
(1 -1.42732e-15 0)
(1 -2.34953e-15 0)
(1 -2.00957e-15 0)
(1 -5.1566e-15 0)
(1 2.21471e-15 0)
(1 -9.22437e-15 0)
(1 4.2793e-15 0)
(1 -5.25734e-15 0)
(1 4.80937e-15 0)
(1 4.18292e-15 0)
(1 1.12126e-14 0)
(1 5.98352e-15 0)
(1 2.27217e-16 0)
(1 -1.81779e-15 0)
(1 6.29579e-15 0)
(1 1.90305e-16 0)
(1 3.05623e-15 0)
(1 4.89317e-15 0)
(1 -6.77027e-15 0)
(1 -1.28305e-15 0)
(1 -3.35533e-15 0)
(1 -2.89658e-15 0)
(1 3.15296e-16 0)
(1 -6.45176e-16 0)
(1 4.6542e-15 0)
(1 -1.06122e-15 0)
(1 -4.7771e-15 0)
(1 -9.18007e-15 0)
(1 7.80639e-16 0)
(1 9.03792e-16 0)
(1 1.2938e-15 0)
(1 4.20807e-15 0)
(1 -1.58204e-15 0)
(1 8.11074e-15 0)
(1 1.56776e-14 0)
(1 1.54484e-14 0)
(1 1.00077e-14 0)
(1 2.39604e-15 0)
(1 -1.66949e-15 0)
(1 4.91316e-15 0)
(1 -5.61113e-16 0)
(1 3.47457e-15 0)
(1 6.62725e-15 0)
(1 -1.5187e-15 0)
(1 -7.94096e-15 0)
(1 3.62021e-15 0)
(1 8.23846e-15 0)
(1 7.8053e-15 0)
(1 8.64389e-15 0)
(1 1.62107e-15 0)
(1 7.16361e-15 0)
(1 -2.01312e-16 0)
(1 9.21579e-15 0)
(1 7.88551e-15 0)
(1 4.29791e-15 0)
(1 4.36777e-16 0)
(1 8.35456e-16 0)
(1 1.05203e-14 0)
(1 1.30098e-14 0)
(1 1.50503e-14 0)
(1 1.16933e-14 0)
(1 3.24289e-15 0)
(1 1.88051e-15 0)
(1 1.36773e-15 0)
(1 1.49242e-15 0)
(1 4.07324e-15 0)
(1 1.33811e-15 0)
(1 7.92753e-15 0)
(1 1.76025e-15 0)
(1 1.13036e-14 0)
(1 1.21487e-14 0)
(1 2.88058e-15 0)
(1 1.9343e-15 0)
(1 -8.34827e-16 0)
(1 -2.37074e-15 0)
(1 1.48237e-15 0)
(1 4.95375e-15 0)
(1 4.57009e-15 0)
(1 5.66573e-15 0)
(1 3.23683e-15 0)
(1 5.96281e-15 0)
(1 4.83466e-15 0)
(1 8.30107e-15 0)
(1 1.09564e-14 0)
(1 1.22652e-14 0)
(1 1.209e-14 0)
(1 1.8721e-14 0)
(1 1.8948e-14 0)
(1 3.35211e-15 0)
(1 -3.21899e-15 0)
(1 -4.11251e-15 0)
(1 -1.20387e-15 0)
(1 -4.56589e-16 0)
(1 1.21989e-15 0)
(1 -2.72947e-15 0)
(1 4.09834e-15 0)
(1 -8.36187e-15 0)
(1 3.57714e-15 0)
(1 6.19455e-15 0)
(1 3.73059e-15 0)
(1 6.83279e-15 0)
(1 1.23477e-16 0)
(1 -9.96852e-15 0)
(1 -1.45941e-15 0)
(1 -6.11359e-15 0)
(1 5.40429e-15 0)
(1 8.48506e-15 0)
(1 2.06949e-14 0)
(1 4.47001e-15 0)
(1 -3.1595e-15 0)
(1 -9.66009e-15 0)
(1 -1.58538e-14 0)
(1 -1.08366e-14 0)
(1 -4.9969e-15 0)
(1 7.95499e-16 0)
(1 2.43181e-15 0)
(1 5.52564e-15 0)
(1 4.45801e-15 0)
(1 -6.44555e-15 0)
(1 -1.57006e-15 0)
(1 2.48788e-15 0)
(1 1.089e-15 0)
(1 3.47139e-16 0)
(1 3.79603e-15 0)
(1 5.59947e-15 0)
(1 -1.28611e-14 0)
(1 -2.88375e-15 0)
(1 -4.19655e-16 0)
(1 3.47958e-16 0)
(1 -2.46724e-16 0)
(1 -2.86003e-15 0)
(1 1.20253e-15 0)
(1 -7.02632e-17 0)
(1 1.14269e-14 0)
(1 1.48594e-14 0)
(1 2.32465e-14 0)
(1 7.18606e-15 0)
(1 6.11837e-15 0)
(1 -8.44486e-16 0)
(1 5.9204e-16 0)
(1 -3.77465e-15 0)
(1 2.59906e-15 0)
(1 3.68427e-15 0)
(1 4.13505e-15 0)
(1 -9.49039e-16 0)
(1 -2.03351e-15 0)
(1 -7.00866e-15 0)
(1 -4.63804e-15 0)
(1 -3.60355e-15 0)
(1 4.27787e-15 0)
(1 1.22958e-14 0)
(1 1.39455e-14 0)
(1 1.0391e-14 0)
(1 1.05297e-14 0)
(1 2.89898e-15 0)
(1 1.97009e-15 0)
(1 2.84107e-15 0)
(1 7.54177e-15 0)
(1 -3.95769e-15 0)
(1 1.60762e-15 0)
(1 8.73031e-15 0)
(1 4.21954e-15 0)
(1 6.6157e-15 0)
(1 2.89004e-15 0)
(1 3.87928e-16 0)
(1 2.53365e-15 0)
(1 3.01369e-15 0)
(1 9.46961e-15 0)
(1 4.95372e-15 0)
(1 7.75349e-15 0)
(1 5.02149e-15 0)
(1 5.81097e-15 0)
(1 5.15635e-15 0)
(1 6.15462e-15 0)
(1 2.98765e-15 0)
(1 4.96829e-15 0)
(1 4.49283e-15 0)
(1 6.75124e-15 0)
(1 2.26339e-15 0)
(1 3.29739e-15 0)
(1 1.50792e-15 0)
(1 -8.43089e-16 0)
(1 -7.00722e-16 0)
(1 1.06038e-14 0)
(1 1.07758e-14 0)
(1 1.12236e-14 0)
(1 1.15195e-14 0)
(1 1.12568e-14 0)
(1 -3.89182e-16 0)
(1 1.95455e-15 0)
(1 -4.89362e-15 0)
(1 -6.56901e-15 0)
(1 6.55718e-16 0)
(1 -5.8545e-16 0)
(1 -3.33987e-15 0)
(1 5.95288e-16 0)
(1 5.15859e-15 0)
(1 1.72221e-14 0)
(1 5.74907e-15 0)
(1 -1.20797e-15 0)
(1 -5.97372e-15 0)
(1 -5.22506e-15 0)
(1 -9.23916e-15 0)
(1 3.19253e-15 0)
(1 -3.61634e-15 0)
(1 6.52903e-15 0)
(1 -5.94651e-15 0)
(1 9.23276e-15 0)
(1 -3.58536e-15 0)
(1 1.32685e-15 0)
(1 -8.88642e-15 0)
(1 -4.42538e-15 0)
(1 1.49136e-15 0)
(1 1.21194e-16 0)
(1 -4.82682e-15 0)
(1 -2.84905e-15 0)
(1 4.07518e-15 0)
(1 -1.08748e-15 0)
(1 3.88922e-15 0)
(1 -9.44057e-17 0)
(1 -7.19062e-15 0)
(1 -8.32318e-15 0)
(1 -7.95152e-16 0)
(1 1.0447e-14 0)
(1 7.90044e-15 0)
(1 -4.56611e-15 0)
(1 -2.945e-15 0)
(1 -3.88683e-15 0)
(1 -5.65195e-15 0)
(1 -7.29736e-15 0)
(1 3.10713e-15 0)
(1 5.97507e-15 0)
(1 1.25431e-14 0)
(1 1.76615e-14 0)
(1 9.45055e-15 0)
(1 5.73902e-15 0)
(1 2.76698e-15 0)
(1 1.61411e-15 0)
(1 -2.23139e-15 0)
(1 -2.49986e-15 0)
(1 3.38805e-15 0)
(1 5.7066e-15 0)
(1 -1.20482e-15 0)
(1 1.36082e-14 0)
(1 1.47498e-14 0)
(1 2.1694e-15 0)
(1 -1.90034e-15 0)
(1 -8.69787e-16 0)
(1 -4.82323e-15 0)
(1 3.55188e-15 0)
(1 -4.06375e-15 0)
(1 1.31169e-14 0)
(1 -1.11866e-15 0)
(1 1.01507e-14 0)
(1 9.81593e-15 0)
(1 7.11776e-15 0)
(1 5.12181e-15 0)
(1 3.19757e-15 0)
(1 -1.55408e-15 0)
(1 5.04963e-15 0)
(1 5.40267e-15 0)
(1 9.69629e-15 0)
(1 7.33286e-15 0)
(1 7.81102e-15 0)
(1 8.91938e-15 0)
(1 1.82331e-14 0)
(1 1.25528e-14 0)
(1 7.14229e-15 0)
(1 1.57263e-15 0)
(1 8.24142e-16 0)
(1 -1.07599e-15 0)
(1 5.10494e-15 0)
(1 8.07271e-15 0)
(1 9.55657e-15 0)
(1 5.62198e-15 0)
(1 7.12824e-15 0)
(1 4.1678e-15 0)
(1 4.80151e-15 0)
(1 6.00019e-15 0)
(1 7.75952e-15 0)
(1 -3.80548e-15 0)
(1 -2.57493e-15 0)
(1 2.13732e-15 0)
(1 1.0843e-14 0)
(1 1.4102e-14 0)
(1 1.23163e-14 0)
(1 1.19168e-14 0)
(1 9.33847e-15 0)
(1 1.9578e-15 0)
(1 -3.74094e-15 0)
(1 3.06865e-15 0)
(1 -1.20192e-14 0)
(1 4.65045e-16 0)
(1 2.67024e-15 0)
(1 1.39203e-15 0)
(1 -1.68629e-14 0)
(1 6.88423e-15 0)
(1 2.54243e-16 0)
(1 8.54647e-15 0)
(1 8.64145e-15 0)
(1 -2.06362e-15 0)
(1 -3.20462e-15 0)
(1 -2.24563e-15 0)
(1 -3.89859e-15 0)
(1 -7.5247e-16 0)
(1 -8.17316e-15 0)
(1 -7.99558e-15 0)
(1 -2.88319e-15 0)
(1 -5.58006e-15 0)
(1 2.1226e-15 0)
(1 1.60717e-14 0)
(1 1.35245e-14 0)
(1 1.00277e-14 0)
(1 2.74079e-15 0)
(1 -2.87905e-15 0)
(1 -5.35794e-15 0)
(1 -6.52787e-16 0)
(1 -3.87482e-15 0)
(1 1.43101e-15 0)
(1 -3.85141e-15 0)
(1 -3.12453e-15 0)
(1 -3.19282e-15 0)
(1 -1.28279e-15 0)
(1 2.66326e-15 0)
(1 1.98717e-15 0)
(1 1.81136e-15 0)
(1 -1.22315e-15 0)
(1 -6.4003e-15 0)
(1 -7.32112e-15 0)
(1 6.98956e-16 0)
(1 8.47408e-15 0)
(1 1.03588e-14 0)
(1 1.24099e-14 0)
(1 8.59164e-15 0)
(1 1.2643e-15 0)
(1 -4.13914e-15 0)
(1 -3.94545e-15 0)
(1 -6.08562e-16 0)
(1 -2.57055e-15 0)
(1 5.35808e-15 0)
(1 1.07989e-14 0)
(1 1.1848e-14 0)
(1 1.0456e-14 0)
(1 7.08403e-15 0)
(1 7.90949e-15 0)
(1 9.57227e-15 0)
(1 2.6891e-15 0)
(1 -2.77762e-15 0)
(1 2.03872e-15 0)
(1 -3.36233e-15 0)
(1 -1.06186e-15 0)
(1 3.39251e-15 0)
(1 9.25872e-15 0)
(1 5.59119e-15 0)
(1 1.08104e-14 0)
(1 5.70323e-15 0)
(1 1.39084e-14 0)
(1 7.3337e-15 0)
(1 5.78146e-15 0)
(1 1.06646e-14 0)
(1 4.29162e-15 0)
(1 7.00192e-15 0)
(1 4.80886e-15 0)
(1 1.01656e-14 0)
(1 1.08089e-14 0)
(1 8.65429e-15 0)
(1 1.21225e-14 0)
(1 6.4973e-15 0)
(1 1.02282e-14 0)
(1 1.16284e-15 0)
(1 2.75671e-15 0)
(1 2.85296e-15 0)
(1 1.63524e-16 0)
(1 -5.39827e-16 0)
(1 2.71598e-15 0)
(1 2.29198e-15 0)
(1 -4.42949e-17 0)
(1 3.37872e-15 0)
(1 5.24469e-15 0)
(1 6.10531e-15 0)
(1 5.39577e-16 0)
(1 4.75495e-15 0)
(1 8.76455e-15 0)
(1 1.32784e-14 0)
(1 7.89311e-15 0)
(1 5.06939e-15 0)
(1 1.08453e-14 0)
(1 1.23598e-14 0)
(1 -2.50799e-15 0)
(1 -6.53724e-15 0)
(1 1.99187e-17 0)
(1 1.15711e-15 0)
(1 5.29476e-15 0)
(1 4.83726e-15 0)
(1 1.5763e-14 0)
(1 1.53006e-15 0)
(1 -1.03138e-15 0)
(1 -1.11798e-14 0)
(1 -3.00225e-15 0)
(1 -2.79748e-15 0)
(1 -2.83309e-15 0)
(1 9.00189e-16 0)
(1 -6.29262e-15 0)
(1 -9.43606e-15 0)
(1 -3.19246e-15 0)
(1 9.24457e-16 0)
(1 -5.24514e-16 0)
(1 -2.12693e-15 0)
(1 6.12802e-15 0)
(1 -2.31308e-15 0)
(1 9.41351e-15 0)
(1 -2.41806e-15 0)
(1 -8.72468e-15 0)
(1 -6.57548e-15 0)
(1 -1.01022e-14 0)
(1 -2.65932e-15 0)
(1 -2.38191e-16 0)
(1 1.16079e-15 0)
(1 3.15317e-16 0)
(1 -1.14896e-16 0)
(1 3.36405e-15 0)
(1 5.07531e-15 0)
(1 5.90692e-15 0)
(1 7.2391e-16 0)
(1 1.11109e-16 0)
(1 -1.88043e-16 0)
(1 -8.17862e-16 0)
(1 -3.23933e-15 0)
(1 -1.0006e-14 0)
(1 6.31055e-15 0)
(1 8.62194e-15 0)
(1 1.50632e-15 0)
(1 9.77258e-15 0)
(1 -3.23743e-15 0)
(1 2.77934e-15 0)
(1 -5.00618e-16 0)
(1 4.15602e-16 0)
(1 2.00169e-15 0)
(1 7.63258e-15 0)
(1 6.70888e-15 0)
(1 7.89572e-15 0)
(1 2.54985e-15 0)
(1 6.35666e-15 0)
(1 -9.05589e-16 0)
(1 3.56026e-15 0)
(1 9.78806e-15 0)
(1 -1.00339e-15 0)
(1 -7.14221e-15 0)
(1 -1.07997e-15 0)
(1 9.97089e-16 0)
(1 4.00338e-15 0)
(1 2.07132e-16 0)
(1 6.23741e-15 0)
(1 -2.79153e-15 0)
(1 -5.09835e-15 0)
(1 -4.00717e-15 0)
(1 7.9014e-15 0)
(1 6.63961e-15 0)
(1 1.09446e-14 0)
(1 1.04025e-14 0)
(1 9.23089e-15 0)
(1 6.17405e-15 0)
(1 1.4393e-14 0)
(1 5.33854e-15 0)
(1 1.62169e-15 0)
(1 1.94396e-15 0)
(1 8.42887e-15 0)
(1 1.32873e-14 0)
(1 1.16902e-14 0)
(1 7.28521e-15 0)
(1 6.46454e-15 0)
(1 4.50263e-15 0)
(1 4.13666e-15 0)
(1 2.46758e-15 0)
(1 -1.69236e-15 0)
(1 -5.77293e-15 0)
(1 -4.87672e-16 0)
(1 -7.71568e-17 0)
(1 2.50517e-15 0)
(1 7.85131e-17 0)
(1 6.85854e-15 0)
(1 1.05476e-14 0)
(1 9.21378e-15 0)