/*--------------------------------*- C++ -*----------------------------------*\
| =========                 |                                                 |
| \\      /  F ield         | OpenFOAM: The Open Source CFD Toolbox           |
|  \\    /   O peration     | Version:  v2012                                 |
|   \\  /    A nd           | Website:  www.openfoam.com                      |
|    \\/     M anipulation  |                                                 |
\*---------------------------------------------------------------------------*/
FoamFile
{
    version     2.0;
    format      ascii;
    class       volVectorField;
    location    "0";
    object      uRec;
}
// * * * * * * * * * * * * * * * * * * * * * * * * * * * * * * * * * * * * * //

dimensions      [0 1 -1 0 0 0 0];


internalField   nonuniform List<vector> 
4000
(
(1 3.92569e-16 0)
(1 5.74706e-16 0)
(1 -3.58705e-16 0)
(1 2.10373e-16 0)
(1 3.827e-18 0)
(1 -1.99876e-16 0)
(1 3.07081e-16 0)
(1 5.99132e-16 0)
(1 1.35288e-15 0)
(1 -7.20772e-16 0)
(1 -6.0956e-16 0)
(1 3.03857e-16 0)
(1 7.80162e-16 0)
(1 6.56865e-16 0)
(1 7.1672e-16 0)
(1 1.96999e-16 0)
(1 -5.57679e-16 0)
(1 -4.04865e-16 0)
(1 5.39144e-16 0)
(1 1.60989e-16 0)
(1 5.85842e-17 0)
(1 -1.29276e-15 0)
(1 -3.99918e-16 0)
(1 -3.90904e-16 0)
(1 2.02188e-16 0)
(1 -1.31424e-16 0)
(1 4.39694e-16 0)
(1 3.41142e-16 0)
(1 9.64347e-16 0)
(1 8.37552e-16 0)
(1 9.9006e-16 0)
(1 -3.60061e-16 0)
(1 -4.53436e-16 0)
(1 -3.51541e-16 0)
(1 -2.49772e-16 0)
(1 -8.59968e-17 0)
(1 6.69328e-16 0)
(1 9.42974e-16 0)
(1 1.62299e-16 0)
(1 -4.57042e-16 0)
(1 -2.80697e-16 0)
(1 -6.56811e-16 0)
(1 -2.72595e-16 0)
(1 8.55118e-16 0)
(1 4.56682e-16 0)
(1 -7.00649e-17 0)
(1 2.79573e-16 0)
(1 4.12552e-16 0)
(1 -4.89872e-18 0)
(1 3.0564e-16 0)
(1 6.13108e-16 0)
(1 7.2119e-16 0)
(1 9.9707e-16 0)
(1 9.51013e-16 0)
(1 1.00681e-15 0)
(1 3.45665e-16 0)
(1 7.37021e-17 0)
(1 8.34866e-17 0)
(1 2.56332e-17 0)
(1 3.02857e-16 0)
(1 -6.51552e-17 0)
(1 2.0968e-16 0)
(1 4.75469e-16 0)
(1 3.61859e-16 0)
(1 -3.49487e-16 0)
(1 1.86802e-16 0)
(1 -3.69911e-16 0)
(1 8.01674e-16 0)
(1 -1.18321e-16 0)
(1 -2.54303e-16 0)
(1 -5.80502e-16 0)
(1 1.71842e-16 0)
(1 -5.56015e-16 0)
(1 -5.39185e-16 0)
(1 -9.86923e-16 0)
(1 -3.68648e-16 0)
(1 -2.23847e-16 0)
(1 1.27695e-16 0)
(1 1.54837e-16 0)
(1 2.12023e-16 0)
(1 4.35975e-16 0)
(1 5.24693e-16 0)
(1 -1.03023e-16 0)
(1 -2.3938e-16 0)
(1 -8.44104e-16 0)
(1 -3.11729e-16 0)
(1 8.09277e-16 0)
(1 6.13735e-16 0)
(1 4.79947e-16 0)
(1 1.17592e-15 0)
(1 8.69945e-17 0)
(1 5.04555e-16 0)
(1 -1.98674e-16 0)
(1 -1.86872e-17 0)
(1 -2.48822e-16 0)
(1 2.26304e-16 0)
(1 1.3453e-16 0)
(1 -2.16642e-16 0)
(1 -3.89838e-16 0)
(1 -3.633e-16 0)
(1 5.36414e-16 0)
(1 5.40249e-16 0)
(1 5.44594e-17 0)
(1 4.14937e-16 0)
(1 3.13294e-16 0)
(1 -2.47041e-16 0)
(1 5.33602e-16 0)
(1 9.65245e-16 0)
(1 2.03904e-15 0)
(1 2.031e-16 0)
(1 2.68746e-16 0)
(1 1.01107e-16 0)
(1 1.0172e-15 0)
(1 7.42889e-16 0)
(1 1.10888e-15 0)
(1 8.74396e-16 0)
(1 -3.30477e-16 0)
(1 -2.48363e-16 0)
(1 5.45672e-16 0)
(1 3.43507e-16 0)
(1 8.66175e-16 0)
(1 -1.25363e-15 0)
(1 3.56633e-17 0)
(1 -4.18475e-16 0)
(1 5.26853e-16 0)
(1 -3.8275e-16 0)
(1 1.35487e-16 0)
(1 -2.27937e-16 0)
(1 1.17807e-15 0)
(1 7.70384e-16 0)
(1 9.63852e-16 0)
(1 1.61854e-16 0)
(1 -4.05921e-16 0)
(1 1.68727e-17 0)
(1 4.12919e-16 0)
(1 2.80259e-16 0)
(1 1.04375e-15 0)
(1 1.27113e-15 0)
(1 -6.68879e-16 0)
(1 -9.54824e-16 0)
(1 -8.93282e-16 0)
(1 -6.29943e-16 0)
(1 1.9232e-16 0)
(1 1.35143e-15 0)
(1 1.44902e-15 0)
(1 5.45904e-16 0)
(1 8.92542e-16 0)
(1 1.03954e-15 0)
(1 1.13546e-15 0)
(1 8.53454e-16 0)
(1 5.2457e-16 0)
(1 5.80757e-16 0)
(1 1.09069e-15 0)
(1 1.20942e-15 0)
(1 1.29543e-15 0)
(1 9.57197e-16 0)
(1 8.54797e-16 0)
(1 1.25359e-15 0)
(1 5.64218e-16 0)
(1 5.6462e-16 0)
(1 5.66492e-16 0)
(1 2.80966e-16 0)
(1 1.06986e-15 0)
(1 8.80711e-16 0)
(1 7.49948e-17 0)
(1 7.09404e-18 0)
(1 -7.02836e-16 0)
(1 3.44654e-16 0)
(1 1.65785e-16 0)
(1 -3.52149e-16 0)
(1 1.86304e-16 0)
(1 1.60741e-16 0)
(1 7.5678e-16 0)
(1 2.24409e-16 0)
(1 6.15174e-16 0)
(1 1.20942e-16 0)
(1 3.40078e-16 0)
(1 7.16022e-16 0)
(1 9.97259e-16 0)
(1 1.22899e-15 0)
(1 8.32566e-16 0)
(1 2.92806e-16 0)
(1 9.74397e-19 0)
(1 -1.16863e-16 0)
(1 -6.34977e-16 0)
(1 4.4874e-17 0)
(1 3.7554e-16 0)
(1 8.14375e-16 0)
(1 7.37801e-17 0)
(1 1.01469e-15 0)
(1 2.25951e-16 0)
(1 4.28824e-16 0)
(1 -2.76151e-16 0)
(1 4.58628e-16 0)
(1 -4.71943e-16 0)
(1 9.51424e-16 0)
(1 1.24274e-16 0)
(1 -1.19179e-16 0)
(1 -6.66111e-16 0)
(1 -9.62172e-16 0)
(1 -8.14481e-17 0)
(1 2.83597e-16 0)
(1 -4.175e-16 0)
(1 4.24094e-16 0)
(1 4.0395e-16 0)
(1 7.91006e-16 0)
(1 1.26615e-15 0)
(1 1.93649e-15 0)
(1 1.26038e-15 0)
(1 1.11242e-15 0)
(1 1.3614e-15 0)
(1 1.15016e-15 0)
(1 1.37752e-15 0)
(1 2.3804e-15 0)
(1 1.09686e-15 0)
(1 5.08051e-16 0)
(1 2.2665e-16 0)
(1 9.1188e-16 0)
(1 1.31924e-17 0)
(1 1.02465e-15 0)
(1 6.89106e-16 0)
(1 3.67238e-16 0)
(1 -1.60711e-16 0)
(1 -7.44882e-18 0)
(1 8.94299e-16 0)
(1 3.04681e-16 0)
(1 1.21549e-15 0)
(1 7.12163e-17 0)
(1 1.75575e-15 0)
(1 1.10124e-15 0)
(1 8.77966e-16 0)
(1 5.12004e-16 0)
(1 3.2536e-16 0)
(1 4.79498e-16 0)
(1 4.81319e-16 0)
(1 6.01626e-16 0)
(1 1.43012e-16 0)
(1 9.66605e-16 0)
(1 1.2784e-16 0)
(1 -1.10258e-15 0)
(1 -4.64843e-16 0)
(1 -5.65315e-16 0)
(1 8.73892e-17 0)
(1 4.57291e-16 0)
(1 1.12489e-15 0)
(1 1.44609e-15 0)
(1 2.36229e-15 0)
(1 2.17587e-15 0)
(1 1.79014e-15 0)
(1 1.26025e-15 0)
(1 2.08443e-15 0)
(1 1.40499e-15 0)
(1 1.70716e-15 0)
(1 1.13589e-15 0)
(1 1.55276e-15 0)
(1 2.11558e-15 0)
(1 1.85638e-15 0)
(1 1.98276e-15 0)
(1 1.61969e-15 0)
(1 6.2254e-16 0)
(1 7.52634e-16 0)
(1 3.96191e-16 0)
(1 9.49408e-16 0)
(1 6.9386e-16 0)
(1 7.61613e-16 0)
(1 3.11795e-16 0)
(1 1.66923e-16 0)
(1 2.47348e-16 0)
(1 7.57416e-16 0)
(1 2.58569e-16 0)
(1 2.93293e-16 0)
(1 -5.43351e-16 0)
(1 -8.55158e-17 0)
(1 1.24229e-16 0)
(1 5.63487e-16 0)
(1 1.15979e-16 0)
(1 1.61921e-16 0)
(1 2.73113e-17 0)
(1 8.42501e-16 0)
(1 5.2229e-16 0)
(1 7.35964e-16 0)
(1 -1.13927e-16 0)
(1 3.90632e-16 0)
(1 1.54123e-16 0)
(1 6.67115e-16 0)
(1 6.38749e-16 0)
(1 2.17723e-16 0)
(1 9.85063e-16 0)
(1 -1.33126e-17 0)
(1 6.3528e-16 0)
(1 -1.69401e-16 0)
(1 6.21357e-16 0)
(1 6.38066e-17 0)
(1 9.77014e-16 0)
(1 1.00756e-16 0)
(1 8.19749e-16 0)
(1 -1.28188e-16 0)
(1 -2.65074e-16 0)
(1 -3.28357e-16 0)
(1 -7.70806e-16 0)
(1 5.22984e-16 0)
(1 -7.12637e-16 0)
(1 -4.11596e-16 0)
(1 -8.13782e-16 0)
(1 1.93052e-15 0)
(1 1.62e-15 0)
(1 2.63012e-15 0)
(1 1.74174e-15 0)
(1 1.01957e-15 0)
(1 8.01839e-16 0)
(1 1.50451e-15 0)
(1 1.813e-15 0)
(1 1.57024e-15 0)
(1 3.33112e-15 0)
(1 2.68618e-15 0)
(1 8.9073e-16 0)
(1 1.16861e-15 0)
(1 2.66049e-16 0)
(1 1.07784e-16 0)
(1 1.10277e-15 0)
(1 7.07833e-16 0)
(1 1.24242e-15 0)
(1 4.60786e-16 0)
(1 1.28193e-15 0)
(1 1.53463e-15 0)
(1 1.64904e-15 0)
(1 2.08662e-15 0)
(1 1.02344e-15 0)
(1 2.41078e-15 0)
(1 9.17783e-16 0)
(1 1.2685e-15 0)
(1 -2.20255e-16 0)
(1 3.16391e-17 0)
(1 -6.11198e-16 0)
(1 -1.33205e-16 0)
(1 5.22997e-17 0)
(1 1.73725e-16 0)
(1 -4.35537e-18 0)
(1 1.37852e-15 0)
(1 8.0335e-17 0)
(1 1.25047e-15 0)
(1 4.21609e-16 0)
(1 4.69776e-16 0)
(1 7.58609e-16 0)
(1 9.48869e-16 0)
(1 2.44187e-15 0)
(1 2.78325e-15 0)
(1 3.19184e-15 0)
(1 2.35491e-15 0)
(1 2.23873e-15 0)
(1 2.72196e-15 0)
(1 2.32182e-15 0)
(1 2.02e-15 0)
(1 1.78395e-15 0)
(1 2.2013e-15 0)
(1 2.49438e-15 0)
(1 2.24751e-15 0)
(1 1.78715e-15 0)
(1 2.04087e-15 0)
(1 1.46816e-15 0)
(1 1.67814e-15 0)
(1 7.68964e-16 0)
(1 1.03169e-15 0)
(1 1.32595e-15 0)
(1 1.10183e-15 0)
(1 9.97507e-16 0)
(1 6.95005e-16 0)
(1 2.85589e-16 0)
(1 -2.37744e-16 0)
(1 -4.84424e-16 0)
(1 -4.71549e-16 0)
(1 -3.62175e-16 0)
(1 -4.21737e-16 0)
(1 -2.5256e-16 0)
(1 8.252e-17 0)
(1 7.46022e-16 0)
(1 1.16325e-15 0)
(1 7.56486e-16 0)
(1 1.19163e-15 0)
(1 1.3241e-16 0)
(1 7.86842e-16 0)
(1 9.91139e-16 0)
(1 1.25962e-16 0)
(1 3.74877e-16 0)
(1 6.15565e-16 0)
(1 8.30438e-16 0)
(1 1.89968e-15 0)
(1 1.34677e-15 0)
(1 1.50078e-15 0)
(1 1.28343e-15 0)
(1 4.40241e-16 0)
(1 9.86761e-16 0)
(1 7.33609e-16 0)
(1 9.41828e-16 0)
(1 2.19402e-16 0)
(1 3.55028e-17 0)
(1 -5.78045e-16 0)
(1 -5.78599e-16 0)
(1 -1.13709e-15 0)
(1 -7.55127e-16 0)
(1 9.46929e-16 0)
(1 -7.90937e-17 0)
(1 9.52816e-16 0)
(1 -1.07783e-17 0)
(1 2.2006e-15 0)
(1 1.52238e-15 0)
(1 1.23675e-15 0)
(1 7.08561e-16 0)
(1 1.11375e-15 0)
(1 1.42136e-15 0)
(1 2.46995e-15 0)
(1 2.59842e-15 0)
(1 2.58495e-15 0)
(1 1.3989e-15 0)
(1 2.85577e-15 0)
(1 2.18357e-15 0)
(1 2.01448e-15 0)
(1 -3.53365e-17 0)
(1 -4.48375e-17 0)
(1 -4.82156e-16 0)
(1 1.13576e-15 0)
(1 1.76854e-15 0)
(1 2.19693e-15 0)
(1 1.55373e-15 0)
(1 1.27231e-15 0)
(1 1.37125e-15 0)
(1 8.83306e-16 0)
(1 1.49239e-15 0)
(1 1.59886e-15 0)
(1 8.9109e-16 0)
(1 4.99586e-16 0)
(1 1.14411e-15 0)
(1 3.66061e-16 0)
(1 9.83655e-16 0)
(1 -5.0719e-16 0)
(1 -4.89087e-16 0)
(1 6.95857e-17 0)
(1 -7.26224e-16 0)
(1 2.15532e-16 0)
(1 5.81453e-16 0)
(1 8.90089e-16 0)
(1 1.42575e-16 0)
(1 4.90809e-16 0)
(1 8.32697e-16 0)
(1 1.43323e-15 0)
(1 2.89473e-15 0)
(1 2.39777e-15 0)
(1 4.02609e-15 0)
(1 3.65996e-15 0)
(1 3.47722e-15 0)
(1 2.01612e-15 0)
(1 2.23508e-15 0)
(1 1.76553e-15 0)
(1 2.64417e-15 0)
(1 2.69466e-15 0)
(1 2.46508e-15 0)
(1 2.94686e-15 0)
(1 2.34162e-15 0)
(1 2.28709e-15 0)
(1 2.67811e-15 0)
(1 2.40991e-15 0)
(1 1.30463e-15 0)
(1 1.70062e-15 0)
(1 1.67251e-15 0)
(1 2.21514e-15 0)
(1 1.89437e-15 0)
(1 1.8275e-15 0)
(1 3.88477e-16 0)
(1 -6.2529e-17 0)
(1 1.47675e-16 0)
(1 -1.06856e-16 0)
(1 1.69864e-16 0)
(1 8.81659e-16 0)
(1 2.01949e-16 0)
(1 9.26285e-16 0)
(1 5.451e-16 0)
(1 1.28875e-15 0)
(1 1.52604e-15 0)
(1 1.34166e-15 0)
(1 1.44097e-15 0)
(1 5.48247e-16 0)
(1 7.40848e-16 0)
(1 1.00544e-16 0)
(1 8.73427e-16 0)
(1 1.19366e-15 0)
(1 1.5164e-15 0)
(1 1.64736e-15 0)
(1 8.40582e-16 0)
(1 1.68089e-15 0)
(1 5.28953e-16 0)
(1 1.60182e-15 0)
(1 5.21421e-16 0)
(1 1.20421e-15 0)
(1 9.28271e-16 0)
(1 1.02005e-15 0)
(1 1.05806e-16 0)
(1 -3.19348e-16 0)
(1 2.23261e-17 0)
(1 -3.88793e-16 0)
(1 2.17396e-16 0)
(1 -7.86892e-17 0)
(1 1.01147e-15 0)
(1 1.53578e-15 0)
(1 1.88995e-15 0)
(1 1.26768e-15 0)
(1 8.13027e-16 0)
(1 1.25294e-16 0)
(1 8.4985e-16 0)
(1 1.50046e-15 0)
(1 2.11666e-15 0)
(1 2.33096e-15 0)
(1 3.6926e-15 0)
(1 3.25946e-15 0)
(1 1.43143e-15 0)
(1 2.05779e-15 0)
(1 2.45481e-15 0)
(1 2.08044e-15 0)
(1 1.65283e-15 0)
(1 8.8479e-16 0)
(1 -2.32251e-16 0)
(1 1.51083e-15 0)
(1 2.93612e-15 0)
(1 3.15884e-15 0)
(1 1.43781e-15 0)
(1 1.12431e-15 0)
(1 1.84508e-16 0)
(1 7.38904e-17 0)
(1 1.89916e-15 0)
(1 3.88347e-16 0)
(1 2.23024e-15 0)
(1 2.39351e-16 0)
(1 2.08345e-15 0)
(1 5.0004e-16 0)
(1 1.54601e-15 0)
(1 -2.98597e-16 0)
(1 8.25203e-16 0)
(1 7.84565e-16 0)
(1 1.10139e-15 0)
(1 -5.32264e-16 0)
(1 1.78095e-16 0)
(1 -6.72677e-17 0)
(1 1.08651e-15 0)
(1 1.47829e-15 0)
(1 2.08916e-15 0)
(1 3.18057e-15 0)
(1 2.40226e-15 0)
(1 2.72658e-15 0)
(1 2.85057e-15 0)
(1 3.56919e-15 0)
(1 3.58307e-15 0)
(1 3.30182e-15 0)
(1 3.13625e-15 0)
(1 2.67608e-15 0)
(1 2.91483e-15 0)
(1 3.15757e-15 0)
(1 3.1193e-15 0)
(1 3.19789e-15 0)
(1 3.00773e-15 0)
(1 3.4309e-15 0)
(1 3.94739e-15 0)
(1 2.67777e-15 0)
(1 2.14608e-15 0)
(1 1.06028e-15 0)
(1 1.32907e-15 0)
(1 2.41219e-15 0)
(1 2.74076e-15 0)
(1 2.75699e-15 0)
(1 2.09132e-15 0)
(1 2.38282e-15 0)
(1 2.48116e-15 0)
(1 1.92035e-15 0)
(1 9.92872e-16 0)
(1 6.05378e-16 0)
(1 2.95907e-16 0)
(1 2.65827e-18 0)
(1 -3.10664e-16 0)
(1 3.41344e-17 0)
(1 7.75842e-16 0)
(1 8.29564e-16 0)
(1 2.45278e-15 0)
(1 1.51986e-15 0)
(1 1.75576e-15 0)
(1 1.57963e-15 0)
(1 1.2523e-15 0)
(1 1.20213e-16 0)
(1 5.4711e-16 0)
(1 4.35926e-16 0)
(1 5.61188e-16 0)
(1 6.12628e-16 0)
(1 8.12278e-16 0)
(1 1.12697e-15 0)
(1 1.25984e-15 0)
(1 1.42139e-15 0)
(1 1.25994e-15 0)
(1 1.96953e-15 0)
(1 6.36713e-16 0)
(1 1.07922e-15 0)
(1 5.83302e-16 0)
(1 1.53198e-15 0)
(1 1.41003e-15 0)
(1 -2.48887e-16 0)
(1 5.40379e-16 0)
(1 1.65865e-15 0)
(1 1.93888e-15 0)
(1 1.67875e-15 0)
(1 1.06847e-15 0)
(1 1.96076e-15 0)
(1 2.17678e-15 0)
(1 2.29963e-15 0)
(1 2.46077e-15 0)
(1 1.73841e-15 0)
(1 2.4518e-15 0)
(1 1.91109e-15 0)
(1 2.8944e-15 0)
(1 1.94367e-15 0)
(1 2.3606e-15 0)
(1 2.32433e-15 0)
(1 2.10994e-15 0)
(1 2.07789e-15 0)
(1 2.64311e-15 0)
(1 1.6676e-15 0)
(1 1.95761e-15 0)
(1 1.14658e-15 0)
(1 3.16636e-16 0)
(1 7.3225e-16 0)
(1 -5.13451e-16 0)
(1 7.80916e-16 0)
(1 1.04637e-15 0)
(1 1.35346e-15 0)
(1 1.59658e-15 0)
(1 2.13825e-15 0)
(1 1.3041e-15 0)
(1 1.03738e-15 0)
(1 -6.20951e-16 0)
(1 1.25605e-16 0)
(1 9.93293e-16 0)
(1 6.12035e-16 0)
(1 1.47661e-15 0)
(1 5.98695e-16 0)
(1 1.60902e-15 0)
(1 6.94035e-16 0)
(1 2.30436e-15 0)
(1 2.53449e-15 0)
(1 3.27397e-15 0)
(1 2.78194e-15 0)
(1 2.35714e-15 0)
(1 2.64179e-15 0)
(1 2.18366e-15 0)
(1 4.16005e-15 0)
(1 3.42965e-15 0)
(1 4.00022e-15 0)
(1 3.20897e-15 0)
(1 3.28292e-15 0)
(1 2.84651e-15 0)
(1 2.87113e-15 0)
(1 3.57788e-15 0)
(1 3.98595e-15 0)
(1 3.49917e-15 0)
(1 3.30648e-15 0)
(1 3.3894e-15 0)
(1 3.28382e-15 0)
(1 3.63037e-15 0)
(1 2.53675e-15 0)
(1 2.42085e-15 0)
(1 1.71668e-15 0)
(1 1.57496e-15 0)
(1 1.54896e-15 0)
(1 1.92636e-15 0)
(1 1.7015e-15 0)
(1 1.19495e-15 0)
(1 1.97663e-15 0)
(1 1.01966e-15 0)
(1 5.22482e-16 0)
(1 7.92187e-16 0)
(1 1.0192e-15 0)
(1 1.87759e-15 0)
(1 1.48674e-15 0)
(1 2.09521e-15 0)
(1 1.40628e-15 0)
(1 1.37577e-15 0)
(1 1.82204e-15 0)
(1 1.9747e-15 0)
(1 1.7583e-15 0)
(1 1.60842e-15 0)
(1 1.0905e-15 0)
(1 1.778e-15 0)
(1 1.67069e-15 0)
(1 2.0676e-15 0)
(1 9.91732e-16 0)
(1 1.79129e-15 0)
(1 1.48345e-15 0)
(1 2.09318e-15 0)
(1 1.88996e-15 0)
(1 1.72196e-15 0)
(1 1.45831e-15 0)
(1 1.76567e-15 0)
(1 1.85398e-15 0)
(1 1.62499e-15 0)
(1 1.59328e-15 0)
(1 1.28955e-15 0)
(1 3.36069e-17 0)
(1 6.00313e-16 0)
(1 -1.50157e-16 0)
(1 1.86802e-15 0)
(1 1.80074e-15 0)
(1 2.63898e-15 0)
(1 2.5813e-15 0)
(1 2.55497e-15 0)
(1 2.82125e-15 0)
(1 2.1298e-15 0)
(1 1.91828e-15 0)
(1 1.19307e-15 0)
(1 2.23874e-15 0)
(1 3.74123e-15 0)
(1 3.28551e-15 0)
(1 3.3519e-15 0)
(1 2.86505e-15 0)
(1 3.06215e-15 0)
(1 2.44797e-15 0)
(1 3.14958e-15 0)
(1 1.19435e-15 0)
(1 3.21701e-16 0)
(1 -3.806e-16 0)
(1 -1.28629e-15 0)
(1 -1.48653e-15 0)
(1 -7.54315e-17 0)
(1 1.2523e-15 0)
(1 1.14086e-15 0)
(1 2.59653e-15 0)
(1 1.38427e-15 0)
(1 2.31077e-15 0)
(1 5.84408e-16 0)
(1 6.86615e-16 0)
(1 2.92156e-17 0)
(1 7.30699e-16 0)
(1 1.83255e-16 0)
(1 3.75481e-16 0)
(1 1.36223e-15 0)
(1 2.51132e-15 0)
(1 1.51524e-15 0)
(1 9.80387e-16 0)
(1 1.00641e-15 0)
(1 1.136e-15 0)
(1 2.03549e-15 0)
(1 2.68409e-15 0)
(1 3.81607e-15 0)
(1 3.79311e-15 0)
(1 3.5265e-15 0)
(1 3.76916e-15 0)
(1 3.59457e-15 0)
(1 4.14042e-15 0)
(1 3.72514e-15 0)
(1 4.64199e-15 0)
(1 4.6576e-15 0)
(1 4.25382e-15 0)
(1 4.21739e-15 0)
(1 4.30246e-15 0)
(1 3.83314e-15 0)
(1 2.71523e-15 0)
(1 2.29528e-15 0)
(1 2.68884e-15 0)
(1 4.23725e-15 0)
(1 4.67944e-15 0)
(1 3.95934e-15 0)
(1 2.52818e-15 0)
(1 2.1869e-15 0)
(1 2.79663e-15 0)
(1 2.38872e-15 0)
(1 1.7175e-15 0)
(1 1.41677e-15 0)
(1 1.78438e-15 0)
(1 1.62542e-15 0)
(1 1.66225e-15 0)
(1 1.1221e-15 0)
(1 1.6073e-15 0)
(1 2.17593e-15 0)
(1 1.87084e-15 0)
(1 1.68973e-15 0)
(1 9.16654e-16 0)
(1 7.50703e-16 0)
(1 1.38848e-15 0)
(1 8.90337e-16 0)
(1 1.23492e-15 0)
(1 1.32332e-15 0)
(1 2.00967e-15 0)
(1 2.13711e-15 0)
(1 1.76427e-15 0)
(1 1.31329e-15 0)
(1 1.31383e-15 0)
(1 1.30055e-15 0)
(1 1.93589e-15 0)
(1 1.89197e-15 0)
(1 2.31066e-15 0)
(1 1.90707e-15 0)
(1 1.57159e-15 0)
(1 1.68321e-15 0)
(1 1.07927e-15 0)
(1 1.98902e-15 0)
(1 1.8562e-15 0)
(1 2.51275e-15 0)
(1 3.19257e-16 0)
(1 -1.54473e-16 0)
(1 8.6508e-16 0)
(1 8.03785e-16 0)
(1 1.55984e-15 0)
(1 2.85197e-15 0)
(1 2.30207e-15 0)
(1 3.05745e-15 0)
(1 1.67128e-15 0)
(1 1.44579e-15 0)
(1 2.30649e-15 0)
(1 1.99719e-15 0)
(1 3.08719e-15 0)
(1 3.86803e-15 0)
(1 3.37426e-15 0)
(1 3.67774e-15 0)
(1 1.8294e-15 0)
(1 3.41667e-15 0)
(1 2.49166e-15 0)
(1 1.68154e-15 0)
(1 3.35112e-16 0)
(1 5.59268e-16 0)
(1 1.1272e-15 0)
(1 1.74592e-15 0)
(1 4.80787e-16 0)
(1 5.61272e-16 0)
(1 3.62253e-16 0)
(1 1.29694e-15 0)
(1 4.15973e-16 0)
(1 8.35401e-16 0)
(1 -5.12354e-16 0)
(1 -7.10208e-16 0)
(1 -8.20725e-16 0)
(1 2.36874e-16 0)
(1 9.80292e-16 0)
(1 1.17305e-15 0)
(1 1.34003e-15 0)
(1 1.82737e-15 0)
(1 2.04292e-15 0)
(1 1.30537e-15 0)
(1 1.01217e-15 0)
(1 2.05679e-15 0)
(1 2.27164e-15 0)
(1 3.29423e-15 0)
(1 4.6592e-15 0)
(1 4.16153e-15 0)
(1 4.46443e-15 0)
(1 3.02336e-15 0)
(1 2.58263e-15 0)
(1 3.40971e-15 0)
(1 3.69759e-15 0)
(1 4.9525e-15 0)
(1 4.56875e-15 0)
(1 5.55316e-15 0)
(1 4.84891e-15 0)
(1 4.34209e-15 0)
(1 4.12861e-15 0)
(1 3.76615e-15 0)
(1 4.2847e-15 0)
(1 3.85656e-15 0)
(1 3.58613e-15 0)
(1 3.39912e-15 0)
(1 2.70496e-15 0)
(1 2.96454e-15 0)
(1 1.68392e-15 0)
(1 3.49753e-15 0)
(1 3.11407e-15 0)
(1 4.54238e-15 0)
(1 4.58487e-15 0)
(1 3.75676e-15 0)
(1 3.1076e-15 0)
(1 2.57596e-15 0)
(1 2.29567e-15 0)
(1 1.14829e-15 0)
(1 7.22031e-16 0)
(1 1.00639e-15 0)
(1 1.56957e-15 0)
(1 2.13129e-15 0)
(1 2.34291e-15 0)
(1 2.42226e-15 0)
(1 1.90614e-15 0)
(1 1.87627e-15 0)
(1 1.68562e-15 0)
(1 1.21314e-15 0)
(1 4.54951e-16 0)
(1 1.42947e-16 0)
(1 4.68475e-16 0)
(1 9.04126e-16 0)
(1 1.79748e-15 0)
(1 1.52815e-15 0)
(1 1.66633e-15 0)
(1 2.16725e-15 0)
(1 2.45805e-15 0)
(1 2.76119e-15 0)
(1 2.95451e-15 0)
(1 2.55662e-15 0)
(1 3.14239e-15 0)
(1 3.46209e-15 0)
(1 3.89343e-15 0)
(1 4.14468e-15 0)
(1 4.05243e-16 0)
(1 9.43069e-16 0)
(1 2.69157e-15 0)
(1 1.31077e-15 0)
(1 1.25658e-15 0)
(1 1.16019e-15 0)
(1 2.76789e-15 0)
(1 2.62799e-15 0)
(1 2.4153e-15 0)
(1 2.15967e-15 0)
(1 3.21018e-15 0)
(1 3.57852e-15 0)
(1 3.38877e-15 0)
(1 3.26782e-15 0)
(1 2.52747e-15 0)
(1 1.97206e-15 0)
(1 1.36185e-15 0)
(1 2.50337e-15 0)
(1 1.77786e-15 0)
(1 1.69675e-15 0)
(1 6.80658e-16 0)
(1 -3.86739e-16 0)
(1 4.82917e-18 0)
(1 1.87653e-15 0)
(1 1.74376e-15 0)
(1 1.87477e-15 0)
(1 1.13282e-15 0)
(1 1.71351e-15 0)
(1 5.90207e-16 0)
(1 4.53691e-16 0)
(1 -9.42861e-16 0)
(1 -2.41468e-16 0)
(1 -5.03105e-16 0)
(1 4.031e-16 0)
(1 -2.44753e-16 0)
(1 5.0484e-16 0)
(1 3.78478e-16 0)
(1 1.46186e-15 0)
(1 4.89821e-16 0)
(1 1.46118e-15 0)
(1 2.12044e-15 0)
(1 2.89651e-15 0)
(1 3.31838e-15 0)
(1 3.141e-15 0)
(1 2.97261e-15 0)
(1 2.22228e-15 0)
(1 2.79705e-15 0)
(1 3.1537e-15 0)
(1 3.23294e-15 0)
(1 4.60743e-15 0)
(1 4.38871e-15 0)
(1 5.11263e-15 0)
(1 5.42943e-15 0)
(1 4.89072e-15 0)
(1 5.45501e-15 0)
(1 5.23112e-15 0)
(1 4.34072e-15 0)
(1 3.72273e-15 0)
(1 4.34787e-15 0)
(1 5.22866e-15 0)
(1 5.02241e-15 0)
(1 3.89931e-15 0)
(1 3.72184e-15 0)
(1 3.51944e-15 0)
(1 3.10002e-15 0)
(1 2.95423e-15 0)
(1 3.55838e-15 0)
(1 3.77871e-15 0)
(1 4.98712e-15 0)
(1 4.1536e-15 0)
(1 2.36022e-15 0)
(1 1.70799e-15 0)
(1 1.2366e-15 0)
(1 1.50419e-15 0)
(1 1.32876e-15 0)
(1 1.57856e-15 0)
(1 2.27349e-15 0)
(1 2.63333e-15 0)
(1 2.9584e-15 0)
(1 2.07203e-15 0)
(1 1.74898e-15 0)
(1 1.44257e-15 0)
(1 1.00652e-15 0)
(1 6.91024e-16 0)
(1 7.58781e-16 0)
(1 1.4415e-15 0)
(1 2.03048e-15 0)
(1 2.04414e-15 0)
(1 1.88971e-15 0)
(1 1.3371e-15 0)
(1 2.20282e-15 0)
(1 2.07656e-15 0)
(1 2.03402e-15 0)
(1 2.42907e-15 0)
(1 3.69209e-15 0)
(1 1.85862e-15 0)
(1 3.51163e-15 0)
(1 2.99086e-15 0)
(1 5.00331e-15 0)
(1 4.47572e-15 0)
(1 9.46838e-17 0)
(1 1.16147e-15 0)
(1 1.30561e-15 0)
(1 1.76191e-15 0)
(1 7.5641e-16 0)
(1 1.05084e-15 0)
(1 2.56289e-15 0)
(1 8.47899e-16 0)
(1 3.25993e-15 0)
(1 3.10829e-15 0)
(1 2.75896e-15 0)
(1 2.3366e-15 0)
(1 3.02616e-15 0)
(1 2.10712e-15 0)
(1 2.72089e-15 0)
(1 2.28518e-15 0)
(1 4.09526e-15 0)
(1 2.45592e-15 0)
(1 1.87882e-15 0)
(1 1.30048e-15 0)
(1 6.60924e-16 0)
(1 1.05169e-16 0)
(1 -6.51605e-16 0)
(1 -1.24766e-16 0)
(1 4.24435e-17 0)
(1 2.00185e-15 0)
(1 1.97051e-15 0)
(1 1.79536e-15 0)
(1 9.35016e-16 0)
(1 1.20245e-16 0)
(1 -1.17788e-15 0)
(1 -3.91729e-16 0)
(1 -5.36711e-16 0)
(1 5.18154e-16 0)
(1 3.34797e-16 0)
(1 4.36711e-16 0)
(1 1.32672e-15 0)
(1 9.60948e-16 0)
(1 9.20029e-16 0)
(1 8.08498e-16 0)
(1 2.75115e-15 0)
(1 2.1637e-15 0)
(1 3.66605e-15 0)
(1 1.80923e-15 0)
(1 2.5413e-15 0)
(1 2.29311e-15 0)
(1 3.20993e-15 0)
(1 3.49168e-15 0)
(1 4.1978e-15 0)
(1 4.64773e-15 0)
(1 5.77574e-15 0)
(1 5.56606e-15 0)
(1 6.34269e-15 0)
(1 5.12857e-15 0)
(1 5.48269e-15 0)
(1 4.49497e-15 0)
(1 4.27316e-15 0)
(1 3.74554e-15 0)
(1 4.3505e-15 0)
(1 3.75913e-15 0)
(1 5.39129e-15 0)
(1 3.88982e-15 0)
(1 4.55161e-15 0)
(1 3.75241e-15 0)
(1 4.0502e-15 0)
(1 2.46257e-15 0)
(1 3.90645e-15 0)
(1 2.63604e-15 0)
(1 2.3757e-15 0)
(1 2.89553e-15 0)
(1 2.75932e-15 0)
(1 3.03288e-15 0)
(1 1.98516e-15 0)
(1 6.76262e-16 0)
(1 9.1568e-16 0)
(1 1.66705e-15 0)
(1 3.68678e-15 0)
(1 2.18236e-15 0)
(1 2.52466e-15 0)
(1 2.9412e-15 0)
(1 2.7431e-15 0)
(1 1.92317e-15 0)
(1 2.08775e-15 0)
(1 7.75456e-16 0)
(1 1.13147e-15 0)
(1 1.09761e-15 0)
(1 1.79552e-15 0)
(1 9.52103e-16 0)
(1 1.59397e-15 0)
(1 1.28747e-15 0)
(1 2.763e-15 0)
(1 1.33233e-15 0)
(1 2.21288e-15 0)
(1 1.57083e-15 0)
(1 2.63792e-15 0)
(1 2.2239e-15 0)
(1 2.78948e-15 0)
(1 2.69331e-15 0)
(1 3.30657e-15 0)
(1 3.11736e-15 0)
(1 6.84064e-16 0)
(1 2.95653e-16 0)
(1 1.19655e-15 0)
(1 1.77179e-15 0)
(1 1.20999e-15 0)
(1 2.32063e-15 0)
(1 8.29128e-16 0)
(1 2.21116e-15 0)
(1 2.26337e-15 0)
(1 4.12874e-15 0)
(1 3.80702e-15 0)
(1 3.03382e-15 0)
(1 3.25317e-15 0)
(1 2.41345e-15 0)
(1 2.80743e-15 0)
(1 1.87903e-15 0)
(1 2.86529e-15 0)
(1 1.37878e-16 0)
(1 1.70698e-15 0)
(1 -6.01215e-16 0)
(1 9.38141e-17 0)
(1 9.33022e-16 0)
(1 1.74342e-15 0)
(1 1.87946e-15 0)
(1 2.41275e-15 0)
(1 1.69584e-15 0)
(1 9.32437e-16 0)
(1 6.6256e-16 0)
(1 1.00082e-15 0)
(1 1.36889e-16 0)
(1 -7.98832e-19 0)
(1 -1.09806e-15 0)
(1 -1.11502e-15 0)
(1 -1.4056e-15 0)
(1 -7.32254e-17 0)
(1 -5.66712e-16 0)
(1 2.40824e-16 0)
(1 3.32557e-16 0)
(1 1.49351e-15 0)
(1 1.42553e-15 0)
(1 2.49186e-15 0)
(1 2.07753e-15 0)
(1 2.11705e-15 0)
(1 1.86806e-15 0)
(1 2.23336e-15 0)
(1 3.19692e-15 0)
(1 4.32128e-15 0)
(1 3.52414e-15 0)
(1 5.42996e-15 0)
(1 4.47868e-15 0)
(1 5.23929e-15 0)
(1 5.16868e-15 0)
(1 5.123e-15 0)
(1 5.42171e-15 0)
(1 5.19349e-15 0)
(1 3.68645e-15 0)
(1 4.12106e-15 0)
(1 3.94504e-15 0)
(1 4.42538e-15 0)
(1 3.68323e-15 0)
(1 5.46054e-15 0)
(1 5.78006e-15 0)
(1 5.34472e-15 0)
(1 3.57856e-15 0)
(1 4.10588e-15 0)
(1 3.12018e-15 0)
(1 2.51336e-15 0)
(1 2.85579e-15 0)
(1 1.42929e-15 0)
(1 1.98534e-15 0)
(1 3.1331e-15 0)
(1 2.90528e-15 0)
(1 1.90298e-15 0)
(1 8.55183e-16 0)
(1 1.24138e-15 0)
(1 1.08665e-15 0)
(1 2.05903e-15 0)
(1 2.10228e-15 0)
(1 2.66949e-15 0)
(1 3.21907e-15 0)
(1 2.60369e-15 0)
(1 2.83158e-15 0)
(1 2.63093e-15 0)
(1 1.85613e-15 0)
(1 1.57863e-15 0)
(1 1.04872e-16 0)
(1 8.41779e-16 0)
(1 8.65515e-16 0)
(1 2.0558e-15 0)
(1 1.82854e-15 0)
(1 1.82112e-15 0)
(1 1.5107e-15 0)
(1 2.02944e-15 0)
(1 2.04184e-15 0)
(1 2.10714e-15 0)
(1 4.05737e-15 0)
(1 3.34745e-15 0)
(1 3.31161e-15 0)
(1 1.12038e-15 0)
(1 1.35254e-15 0)
(1 7.45112e-16 0)
(1 1.29459e-15 0)
(1 1.61951e-16 0)
(1 6.90276e-16 0)
(1 1.92279e-15 0)
(1 1.60603e-15 0)
(1 1.67935e-15 0)
(1 2.66649e-15 0)
(1 1.98534e-15 0)
(1 3.54963e-15 0)
(1 3.68958e-15 0)
(1 3.58538e-15 0)
(1 2.36204e-15 0)
(1 2.50432e-15 0)
(1 2.14224e-15 0)
(1 1.62176e-15 0)
(1 1.57186e-15 0)
(1 2.12135e-15 0)
(1 3.27415e-15 0)
(1 1.93473e-15 0)
(1 1.81494e-15 0)
(1 -4.36729e-17 0)
(1 -7.55727e-16 0)
(1 -1.30293e-15 0)
(1 5.32865e-16 0)
(1 9.91646e-16 0)
(1 6.77029e-16 0)
(1 -2.43708e-16 0)
(1 4.24156e-16 0)
(1 -1.02529e-15 0)
(1 -8.50782e-16 0)
(1 -2.09649e-15 0)
(1 -1.57728e-15 0)
(1 -1.24636e-15 0)
(1 5.50019e-16 0)
(1 4.82645e-16 0)
(1 1.67204e-15 0)
(1 8.66098e-16 0)
(1 1.25848e-15 0)
(1 1.62928e-15 0)
(1 1.1141e-15 0)
(1 1.64953e-15 0)
(1 9.48121e-16 0)
(1 2.23733e-15 0)
(1 1.84418e-15 0)
(1 3.66922e-15 0)
(1 3.44915e-15 0)
(1 5.03077e-15 0)
(1 5.10876e-15 0)
(1 5.08955e-15 0)
(1 4.73544e-15 0)
(1 4.47224e-15 0)
(1 4.75846e-15 0)
(1 5.00212e-15 0)
(1 4.93763e-15 0)
(1 5.12446e-15 0)
(1 4.37186e-15 0)
(1 4.31661e-15 0)
(1 2.75485e-15 0)
(1 3.25941e-15 0)
(1 2.33403e-15 0)
(1 4.52477e-15 0)
(1 5.01359e-15 0)
(1 5.35208e-15 0)
(1 5.56634e-15 0)
(1 4.42945e-15 0)
(1 2.58796e-15 0)
(1 1.87697e-15 0)
(1 1.98213e-15 0)
(1 1.6063e-15 0)
(1 9.11996e-16 0)
(1 1.11899e-15 0)
(1 1.8179e-15 0)
(1 3.08345e-15 0)
(1 2.65002e-15 0)
(1 1.72707e-15 0)
(1 -9.16422e-17 0)
(1 1.8706e-15 0)
(1 1.74537e-15 0)
(1 1.52907e-15 0)
(1 1.67139e-15 0)
(1 2.259e-15 0)
(1 1.69424e-15 0)
(1 2.10824e-15 0)
(1 1.9824e-15 0)
(1 1.67723e-15 0)
(1 1.42593e-15 0)
(1 1.98852e-15 0)
(1 1.77407e-15 0)
(1 1.73966e-15 0)
(1 1.1352e-15 0)
(1 1.67132e-15 0)
(1 1.04226e-15 0)
(1 1.67145e-15 0)
(1 1.55577e-15 0)
(1 2.65362e-15 0)
(1 2.1654e-15 0)
(1 2.08416e-15 0)
(1 1.10841e-15 0)
(1 1.05733e-15 0)
(1 -1.13908e-16 0)
(1 1.81903e-15 0)
(1 7.83752e-16 0)
(1 4.1385e-16 0)
(1 1.67201e-15 0)
(1 1.43554e-15 0)
(1 2.16364e-15 0)
(1 2.53478e-15 0)
(1 3.8432e-15 0)
(1 3.38593e-15 0)
(1 2.79854e-15 0)
(1 2.95003e-15 0)
(1 1.62927e-15 0)
(1 2.14228e-15 0)
(1 1.70998e-15 0)
(1 2.59517e-15 0)
(1 1.50143e-15 0)
(1 2.72191e-15 0)
(1 8.13286e-16 0)
(1 1.37539e-15 0)
(1 1.7214e-16 0)
(1 5.04982e-16 0)
(1 -1.31642e-15 0)
(1 5.77899e-17 0)
(1 4.88585e-17 0)
(1 9.74082e-16 0)
(1 5.88887e-16 0)
(1 1.5229e-16 0)
(1 -2.64636e-16 0)
(1 -1.02371e-15 0)
(1 -1.87721e-15 0)
(1 -2.74616e-15 0)
(1 -1.27598e-15 0)
(1 -1.29136e-15 0)
(1 8.14732e-16 0)
(1 2.31133e-15 0)
(1 2.15323e-15 0)
(1 6.43792e-16 0)
(1 3.66825e-16 0)
(1 2.88445e-17 0)
(1 -5.87946e-16 0)
(1 8.66965e-16 0)
(1 1.82791e-15 0)
(1 2.97843e-15 0)
(1 3.74051e-15 0)
(1 3.5312e-15 0)
(1 3.10453e-15 0)
(1 4.474e-15 0)
(1 3.54564e-15 0)
(1 3.79891e-15 0)
(1 2.23729e-15 0)
(1 3.30788e-15 0)
(1 4.70919e-15 0)
(1 5.07064e-15 0)
(1 5.01612e-15 0)
(1 6.11993e-15 0)
(1 5.20752e-15 0)
(1 5.74795e-15 0)
(1 4.73114e-15 0)
(1 4.81695e-15 0)
(1 3.11951e-15 0)
(1 2.87818e-15 0)
(1 3.02674e-15 0)
(1 4.70781e-15 0)
(1 3.57965e-15 0)
(1 4.493e-15 0)
(1 3.39636e-15 0)
(1 2.96552e-15 0)
(1 2.4582e-15 0)
(1 1.74054e-15 0)
(1 7.61585e-16 0)
(1 2.28507e-15 0)
(1 1.93749e-15 0)
(1 3.68364e-15 0)
(1 2.14877e-15 0)
(1 2.68101e-15 0)
(1 1.45693e-15 0)
(1 2.43928e-15 0)
(1 1.93226e-15 0)
(1 1.41971e-15 0)
(1 1.73386e-15 0)
(1 9.71333e-16 0)
(1 1.0308e-15 0)
(1 1.7128e-15 0)
(1 1.67354e-15 0)
(1 2.41016e-15 0)
(1 1.14263e-15 0)
(1 2.01326e-15 0)
(1 1.49213e-15 0)
(1 1.97736e-15 0)
(1 1.44469e-15 0)
(1 1.77337e-15 0)
(1 1.18787e-15 0)
(1 1.764e-15 0)
(1 1.07814e-15 0)
(1 1.99208e-15 0)
(1 1.98671e-15 0)
(1 2.24384e-15 0)
(1 2.1529e-15 0)
(1 1.78635e-15 0)
(1 3.53337e-16 0)
(1 1.25003e-15 0)
(1 1.18021e-15 0)
(1 1.21436e-15 0)
(1 1.84111e-15 0)
(1 1.85417e-15 0)
(1 6.29057e-16 0)
(1 1.1097e-15 0)
(1 2.48978e-15 0)
(1 2.86027e-15 0)
(1 3.34216e-15 0)
(1 2.94043e-15 0)
(1 2.76607e-15 0)
(1 1.90707e-15 0)
(1 1.73485e-15 0)
(1 1.80459e-15 0)
(1 5.18745e-16 0)
(1 4.7151e-16 0)
(1 -5.44814e-16 0)
(1 1.07696e-15 0)
(1 6.60818e-16 0)
(1 1.42819e-15 0)
(1 1.29908e-15 0)
(1 1.04943e-15 0)
(1 1.84436e-16 0)
(1 -5.38547e-16 0)
(1 -8.29327e-16 0)
(1 -9.709e-16 0)
(1 -1.15584e-15 0)
(1 -1.05826e-15 0)
(1 -1.50159e-15 0)
(1 -8.31319e-16 0)
(1 -3.74101e-16 0)
(1 -1.2318e-15 0)
(1 -8.24792e-16 0)
(1 4.42785e-16 0)
(1 -1.7943e-16 0)
(1 5.22295e-17 0)
(1 3.7822e-16 0)
(1 -1.18129e-16 0)
(1 7.66103e-17 0)
(1 1.1734e-15 0)
(1 1.12632e-15 0)
(1 2.05156e-15 0)
(1 2.70506e-15 0)
(1 3.19145e-15 0)
(1 3.13129e-15 0)
(1 2.38584e-15 0)
(1 2.65433e-15 0)
(1 3.34428e-15 0)
(1 3.80596e-15 0)
(1 4.95992e-15 0)
(1 4.98119e-15 0)
(1 5.61689e-15 0)
(1 5.76404e-15 0)
(1 5.08271e-15 0)
(1 4.71994e-15 0)
(1 4.85204e-15 0)
(1 4.10136e-15 0)
(1 4.31269e-15 0)
(1 4.8254e-15 0)
(1 3.98534e-15 0)
(1 4.3625e-15 0)
(1 3.57745e-15 0)
(1 3.95115e-15 0)
(1 3.19734e-15 0)
(1 3.72254e-15 0)
(1 3.5287e-15 0)
(1 3.82512e-15 0)
(1 3.00345e-15 0)
(1 2.66926e-15 0)
(1 1.74485e-15 0)
(1 1.07892e-15 0)
(1 1.96891e-15 0)
(1 2.0544e-15 0)
(1 2.36159e-15 0)
(1 2.03816e-15 0)
(1 1.44218e-15 0)
(1 1.2023e-15 0)
(1 1.60763e-15 0)
(1 1.48445e-15 0)
(1 8.71467e-16 0)
(1 7.56233e-16 0)
(1 1.5117e-15 0)
(1 1.55222e-15 0)
(1 1.45259e-15 0)
(1 6.9944e-16 0)
(1 9.95112e-16 0)
(1 7.36109e-16 0)
(1 8.45156e-16 0)
(1 1.06282e-15 0)
(1 9.25128e-16 0)
(1 1.92555e-15 0)
(1 1.51227e-15 0)
(1 1.94272e-15 0)
(1 1.25463e-15 0)
(1 1.54418e-15 0)
(1 2.51099e-15 0)
(1 2.78934e-15 0)
(1 2.37103e-15 0)
(1 -3.22643e-17 0)
(1 5.26518e-16 0)
(1 4.28101e-16 0)
(1 1.81353e-15 0)
(1 2.52463e-15 0)
(1 2.82665e-15 0)
(1 3.9206e-15 0)
(1 3.49898e-15 0)
(1 2.00795e-15 0)
(1 9.23026e-16 0)
(1 8.52787e-16 0)
(1 4.40344e-16 0)
(1 2.55999e-15 0)
(1 1.45945e-15 0)
(1 1.78036e-15 0)
(1 9.25461e-16 0)
(1 1.30142e-15 0)
(1 6.4366e-16 0)
(1 8.97804e-16 0)
(1 -7.36569e-16 0)
(1 2.30273e-17 0)
(1 -1.85472e-16 0)
(1 1.8123e-15 0)
(1 -5.82364e-16 0)
(1 -8.19712e-16 0)
(1 -1.7759e-15 0)
(1 -1.58012e-15 0)
(1 -2.27986e-15 0)
(1 -2.62513e-15 0)
(1 -2.27748e-15 0)
(1 -1.77088e-15 0)
(1 2.74163e-16 0)
(1 -6.47701e-16 0)
(1 3.54471e-16 0)
(1 -1.32435e-15 0)
(1 7.25444e-17 0)
(1 -4.84281e-16 0)
(1 -5.2085e-16 0)
(1 -8.71524e-17 0)
(1 3.3215e-16 0)
(1 9.43362e-16 0)
(1 4.76305e-16 0)
(1 1.57434e-15 0)
(1 1.85988e-15 0)
(1 1.43452e-15 0)
(1 1.88736e-15 0)
(1 1.98413e-15 0)
(1 2.11177e-15 0)
(1 1.82061e-15 0)
(1 2.21478e-15 0)
(1 5.31629e-15 0)
(1 5.72117e-15 0)
(1 5.08852e-15 0)
(1 4.65854e-15 0)
(1 5.00096e-15 0)
(1 4.04217e-15 0)
(1 4.76527e-15 0)
(1 3.94473e-15 0)
(1 3.44733e-15 0)
(1 2.53981e-15 0)
(1 3.07428e-15 0)
(1 2.86322e-15 0)
(1 3.61146e-15 0)
(1 3.28446e-15 0)
(1 3.67096e-15 0)
(1 1.5321e-15 0)
(1 2.29665e-15 0)
(1 1.69855e-15 0)
(1 3.32315e-15 0)
(1 2.164e-15 0)
(1 2.28147e-15 0)
(1 1.29027e-15 0)
(1 1.87881e-15 0)
(1 1.69173e-15 0)
(1 2.15969e-15 0)
(1 1.92115e-15 0)
(1 1.5302e-15 0)
(1 1.30798e-15 0)
(1 8.17547e-16 0)
(1 1.71112e-15 0)
(1 -2.74453e-16 0)
(1 1.21753e-15 0)
(1 5.88675e-16 0)
(1 1.57081e-15 0)
(1 1.35766e-15 0)
(1 9.14377e-16 0)
(1 8.0148e-16 0)
(1 7.42997e-16 0)
(1 3.63262e-16 0)
(1 9.45262e-16 0)
(1 7.46818e-16 0)
(1 6.43234e-16 0)
(1 1.30616e-15 0)
(1 9.78419e-16 0)
(1 1.25534e-15 0)
(1 1.53115e-15 0)
(1 1.51855e-15 0)
(1 1.79923e-15 0)
(1 2.20242e-15 0)
(1 1.84579e-15 0)
(1 -4.52775e-16 0)
(1 3.05879e-16 0)
(1 1.40758e-15 0)
(1 2.54709e-15 0)
(1 2.14789e-15 0)
(1 2.0298e-15 0)
(1 2.98864e-15 0)
(1 3.79223e-15 0)
(1 3.03303e-15 0)
(1 1.58371e-15 0)
(1 7.7643e-16 0)
(1 4.29234e-17 0)
(1 7.51358e-16 0)
(1 9.03924e-16 0)
(1 1.36456e-15 0)
(1 1.18011e-15 0)
(1 9.28047e-16 0)
(1 2.2748e-17 0)