/*--------------------------------*- C++ -*----------------------------------*\
| =========                 |                                                 |
| \\      /  F ield         | OpenFOAM: The Open Source CFD Toolbox           |
|  \\    /   O peration     | Version:  v2012                                 |
|   \\  /    A nd           | Website:  www.openfoam.com                      |
|    \\/     M anipulation  |                                                 |
\*---------------------------------------------------------------------------*/
FoamFile
{
    version     2.0;
    format      ascii;
    class       volScalarField;
    location    "0";
    object      p;
}
// * * * * * * * * * * * * * * * * * * * * * * * * * * * * * * * * * * * * * //

dimensions      [0 2 -2 0 0 0 0];


internalField   nonuniform List<scalar> 
4000
(
-0.109479
-0.178109
-0.154004
-0.0729741
-0.0207771
-0.0958599
-0.0971855
-0.135763
-0.160616
-0.0733512
0.042281
0.106025
0.0412321
-0.0566359
-0.0383654
0.152295
0.0494762
-0.130411
-0.000514746
-0.0110634
-0.176067
-0.355883
-0.319378
-0.188272
-0.0748053
-0.112162
-0.0585547
0.0309595
0.13006
0.2138
0.0688253
0.145705
0.173656
0.253062
0.229058
0.281103
0.126366
0.167916
0.121397
0.0741622
0.0193145
0.0350465
0.0859311
0.0197608
-0.11446
-0.135837
-0.156543
-0.206368
-0.145568
-0.0703416
-0.143249
-0.152639
-0.133939
0.00693549
0.107268
0.127873
0.175139
0.113235
-0.038812
-0.024054
-0.0460428
-0.0810107
-0.113278
-0.0446809
0.0597306
0.0235353
0.0321523
-0.0683642
-0.0531559
-0.0653639
-0.132992
-0.148983
-0.0786383
-0.135305
-0.248363
-0.288049
-0.288766
-0.302324
-0.26102
-0.233851
-0.227601
-0.28136
-0.340606
-0.200332
-0.12115
-0.261944
-0.144402
0.00729901
0.13334
0.304905
0.247888
0.20942
0.229438
0.136693
0.120114
0.199233
0.113616
0.0816626
0.0531161
0.0241325
-0.135895
-0.101899
-0.110238
-0.111854
-0.11055
-0.133863
-0.100324
-0.0832951
-0.14122
-0.096843
0.104126
0.0690606
0.00627862
0.0258155
0.0323146
0.0402691
0.0834931
-0.000664264
-0.0342339
-0.113286
-0.188157
-0.244921
-0.322224
-0.167851
-0.0932061
-0.0543736
-0.0159482
-0.0438125
-0.00618717
0.117329
0.125128
0.108303
0.154226
0.233303
0.299043
0.275491
0.196159
0.247562
0.175313
0.0737327
-0.0129616
0.0286567
0.00957089
-0.0422896
-0.076658
-0.137248
-0.216279
-0.154135
-0.116376
-0.0966461
-0.124423
-0.122397
-0.14025
-0.0314651
0.0295782
0.157499
0.200587
0.150093
-0.066028
-0.0628037
-0.0433379
0.0178564
0.0197951
-0.0625966
-0.0637024
-0.00153085
-0.0233399
-0.0691196
-0.0778059
-0.0328853
-0.049848
-0.141948
-0.16193
-0.178052
-0.15434
-0.220531
-0.24082
-0.340292
-0.28719
-0.252222
-0.291501
-0.273562
-0.35735
-0.285894
-0.149061
-0.1824
-0.121766
0.0915424
0.150898
0.211809
0.230845
0.261452
0.237434
0.112081
0.120522
0.198651
0.117781
0.0816287
0.0885971
0.0154556
-0.109142
-0.084115
-0.158621
-0.160851
-0.10864
-0.0953264
-0.0482121
-0.0510077
-0.118815
-0.0766927
0.0765367
0.068861
-0.00688606
-0.0260423
0.0428988
0.013713
0.0901884
0.0422527
-0.0792319
-0.113801
-0.180813
-0.252677
-0.25944
-0.159908
-0.0899725
-0.144559
-0.0848104
0.0238277
0.0789333
0.137331
0.11141
0.147399
0.159601
0.203432
0.300515
0.208195
0.204108
0.254273
0.266032
0.0497726
0.0232072
0.0463416
-0.0180263
0.0039602
-0.0107337
-0.0905995
-0.168319
-0.249628
-0.22407
-0.141648
-0.0854376
-0.0792772
-0.0435715
-0.0193546
0.024081
0.149227
0.175586
0.0878596
-0.0134996
-0.0820164
-0.0573922
-0.0753793
-0.0107547
0.0112017
-0.0587827
-0.00287811
0.00554974
-0.0193715
-0.0297543
-0.0361195
-0.0579399
-0.214577
-0.182554
-0.109024
-0.0911974
-0.195318
-0.238328
-0.320724
-0.272145
-0.275628
-0.299227
-0.358815
-0.321636
-0.287615
-0.115404
-0.126159
-0.0705842
0.038824
0.153639
0.197761
0.229027
0.238986
0.236245
0.166744
0.127377
0.160696
0.0572094
0.092114
0.104453
0.0341059
-0.100422
-0.088074
-0.0882596
-0.0693569
-0.103449
-0.122074
-0.131341
-0.117139
-0.0362815
0.00708167
0.0365575
0.0820701
0.0395921
0.0298158
0.0725583
-0.00783043
0.03833
0.0270144
-0.0954483
-0.151295
-0.21886
-0.170713
-0.180563
-0.072747
-0.0683055
-0.169748
-0.181244
-0.0875668
0.0587126
0.13209
0.141094
0.117548
0.0780685
0.197543
0.235127
0.246452
0.286937
0.358901
0.225411
-0.00606918
0.0560309
0.0634521
0.0330515
-0.0374642
-0.147279
-0.164412
-0.100143
-0.133567
-0.102846
-0.111087
-0.176433
-0.173196
-0.0620235
0.012238
0.0224442
0.0860805
0.136898
0.138181
0.0438551
-0.0560114
-0.0595275
-0.00141709
0.0178694
-0.0252323
-0.0618252
-0.0417962
-0.0495046
0.0271681
-0.0139381
-0.0287017
-0.0755014
-0.122332
-0.129353
-0.123183
-0.138636
-0.134775
-0.213016
-0.344304
-0.26914
-0.281027
-0.339381
-0.275439
-0.349131
-0.268978
-0.16178
-0.102991
-0.044061
0.0627338
0.168708
0.152744
0.191955
0.218089
0.224456
0.203996
0.147889
0.149569
0.0500219
0.0824071
0.105167
0.0351735
-0.0867419
-0.0727086
-0.0903846
-0.158163
-0.054336
-0.0886444
-0.219623
-0.102013
-0.00375356
0.0598967
0.0854058
0.00201316
0.0648382
0.0908665
0.073177
0.00540943
-0.0722176
-0.0449503
-0.0728871
-0.188165
-0.231738
-0.186708
-0.233758
-0.163522
-0.0325086
0.0278016
-0.0904726
-0.0534218
-0.0635824
0.108237
0.134558
0.0924379
0.104626
0.162758
0.196703
0.230731
0.259604
0.24119
0.167446
0.097404
0.082237
0.113146
0.0884873
-0.0476047
-0.12477
-0.125659
-0.10624
-0.170066
-0.133148
-0.135085
-0.229678
-0.0497968
0.00379444
0.0352519
0.018855
0.0599177
0.083998
0.121956
0.0624645
-0.116238
-0.121145
-0.0540023
0.0156591
5.85655e-05
0.0268596
-0.000868317
-0.0324322
0.00533252
0.0282465
0.0341225
-0.0317036
-0.147606
-0.134569
-0.0700092
-0.111204
-0.0951024
-0.197022
-0.266991
-0.312085
-0.327559
-0.252996
-0.318485
-0.306503
-0.259884
-0.151824
-0.0955168
0.0127409
0.026955
0.0995336
0.140334
0.20162
0.18748
0.170637
0.219755
0.211578
0.153735
0.0724023
0.10468
0.0717881
0.0448498
-0.0887008
-0.0826926
-0.0662487
-0.110541
-0.0162157
-0.0151088
-0.0741515
-0.0671623
0.012875
0.0404895
0.0709335
0.00852712
0.00978589
-0.0081176
0.0505577
0.129126
0.0889458
-0.0250716
-0.146385
-0.121911
-0.129384
-0.245442
-0.296592
-0.16028
-0.0727916
-0.0136947
-0.1399
-0.161558
-0.12484
0.0425233
0.167532
0.229757
0.0089314
0.0799282
0.224709
0.24574
0.263326
0.235151
0.192223
0.0768444
0.0397116
0.0775088
0.112865
-0.0171322
-0.0198415
-0.138972
-0.235446
-0.17088
-0.0888003
-0.139061
-0.135992
-0.0238298
0.0245715
0.0319677
-0.00412741
-0.0210559
-0.00854503
0.0514138
0.0208441
-0.0543864
0.0177393
0.0589619
0.0551766
0.00270457
0.0212052
-0.0108876
-0.0261418
0.0101491
0.0636289
0.0121446
-0.0300103
-0.0873165
-0.0515442
-0.00467837
-0.101978
-0.138241
-0.131965
-0.203776
-0.35603
-0.382624
-0.275986
-0.257615
-0.275462
-0.249447
-0.153351
-0.159751
-0.0230754
0.0311157
0.141699
0.183788
0.123172
0.126913
0.16159
0.217941
0.270409
0.184369
0.110385
0.0726732
0.0444283
0.0147894
-0.125122
-0.11384
-0.0279114
-0.0349643
-0.0143174
-0.127004
0.00756862
-0.0415742
0.0339788
0.0162265
-0.0275277
0.0679753
-0.00353893
0.0775573
0.141291
-0.0175112
0.0261279
-0.0216962
-0.0990831
-0.112647
-0.242421
-0.160801
-0.184024
-0.151907
-0.0413246
0.112076
-0.231359
-0.23421
-0.12256
-0.0405995
0.119099
0.206417
0.162489
0.144805
0.18152
0.179001
0.238876
0.213464
0.186558
0.120923
-0.0240307
0.093072
-0.00887131
0.00399461
-0.0644595
-0.17946
-0.0920814
0.0145895
0.0331794
-0.181444
-0.301447
-0.112773
0.0762754
0.0572761
0.00999444
-0.0516685
0.0476908
0.00427162
0.0876665
0.0199481
-0.00875257
-0.0341173
0.00668548
0.115856
0.0999649
0.0549671
-0.000865664
-0.0100819
-0.0872439
-0.00173054
0.0843353
-0.00904951
-0.0510658
-0.0300376
-0.0821774
-0.123007
-0.147597
-0.191213
-0.331737
-0.319516
-0.25308
-0.229086
-0.249111
-0.15631
-0.169584
-0.137221
-0.0354649
0.0666496
0.108864
0.178505
0.16646
0.139977
0.174698
0.209535
0.240795
0.145159
0.0876286
0.122135
0.0800502
0.0185097
-0.118145
-0.0622329
-0.0277093
-0.129485
-0.0960849
-0.0870867
0.132066
0.01413
-0.00893441
0.106075
0.00758209
0.0459462
-0.00871038
0.106818
0.090625
0.0786336
0.042827
0.00762375
-0.033853
-0.164222
-0.264306
-0.174219
-0.151681
-0.113786
-0.0459372
-0.101358
-0.155252
-0.159617
-0.127157
0.00352619
0.121383
0.0988835
0.0879253
0.168956
0.203745
0.180084
0.237412
0.177651
0.0586834
-0.0643822
0.00698097
0.166492
0.171808
-0.00500953
-0.0682367
-0.0846357
-0.0714798
-0.102025
-0.202183
-0.0780456
-0.0449545
0.0276405
-0.01796
-0.0748816
-0.0509858
-0.0616754
-0.0152581
0.0284202
0.0351648
0.0295741
-0.00932889
0.0374823
0.0172243
0.101797
0.118227
0.0717935
-0.0304144
0.00634984
0.0187223
0.0702308
0.0187644
-0.0278237
-0.0402428
-0.0167254
-0.0376111
-0.0451635
-0.144019
-0.165213
-0.283928
-0.31799
-0.244466
-0.218487
-0.235313
-0.199491
-0.173354
-0.13694
-0.0242078
0.0938757
0.1381
0.223016
0.183896
0.146364
0.13357
0.185368
0.178307
0.148148
0.148201
0.0992314
0.0772214
0.0177285
-0.130256
-0.0803163
-0.0756395
-0.0829297
0.0122371
-0.0197964
-0.00686586
0.0460129
0.0455154
0.0819414
0.00871192
-0.0195974
0.0403896
0.0975362
0.108285
0.0424838
0.052069
0.0372452
-0.10974
-0.18364
-0.191371
-0.0741111
-0.0801774
-0.224587
-0.142082
-0.11058
-0.148718
-0.0895804
-0.073117
0.117594
0.149268
0.0714553
0.0366267
0.203655
0.197365
0.133447
0.103123
0.024462
0.12816
0.172193
0.11662
0.00265672
-0.0311074
-0.017088
0.0486604
-0.0856954
-0.113179
-0.112657
-0.175798
-0.0671245
-0.0739049
0.0166811
-0.0583636
-0.0723218
0.0303378
0.0341618
0.00164922
-0.00380896
-0.0441492
-0.00088127
-0.0455896
0.0695566
0.0678268
0.125749
0.0973398
0.0911279
0.0297035
-0.0326131
0.012041
0.076616
0.04201
0.0155877
0.0146529
0.0414049
-0.0232327
-0.0675787
-0.151403
-0.149627
-0.231551
-0.339952
-0.210888
-0.168003
-0.157026
-0.177628
-0.204928
-0.0938163
0.0574734
0.111276
0.111496
0.152725
0.203351
0.136416
0.0998
0.199543
0.183968
0.132331
0.119162
0.142408
0.121012
-0.000297415
-0.0531735
-0.0942439
-0.146288
-0.0367094
0.0368697
-0.00810768
-0.0793063
-0.0124624
0.140327
0.0817968
-0.0014696
0.125404
0.120277
0.103691
0.135205
0.0727721
-0.0346438
0.0895688
-0.0770903
-0.249494
-0.201379
-0.103784
-0.158654
-0.141812
-0.11915
-0.0766744
-0.133932
-0.0903168
-0.0250635
0.0655109
0.219712
0.118552
-0.00903752
0.0144493
0.0892433
0.130575
0.118812
0.109299
-0.0236265
0.0691026
0.15114
0.0561426
0.0513986
0.0397707
-0.00226792
-0.0923068
-0.122532
-0.152627
-0.176002
-0.126955
-0.0927447
-0.0380269
-0.0119382
-0.00219741
-0.0376407
-0.0144093
-0.0589291
-0.0323285
0.0134953
0.0101444
-0.0239415
-0.0321188
0.0262726
0.13456
0.113638
0.105182
0.11909
0.0974531
-0.0705868
0.102549
0.119461
-0.00205374
-0.0111998
0.0360985
0.0467951
0.0497347
-0.049234
-0.0751997
-0.232984
-0.311736
-0.200276
-0.145859
-0.206084
-0.186025
-0.158126
0.0313682
0.0252925
0.0330049
0.100674
0.175395
0.165403
0.170238
0.139246
0.210622
0.17661
0.117548
0.127042
0.130595
0.109707
-0.0304591
-0.0956536
-0.0888909
-0.0806554
-0.0555536
-0.0191302
0.0328092
0.0886891
0.0851563
0.189156
0.132464
-0.0172142
0.0208204
0.0239914
-0.0263908
-0.0758248
0.16977
0.181813
0.109419
-0.0381917
-0.0876143
-0.139613
-0.183916
-0.1795
-0.104563
-0.0789855
-0.150289
-0.137322
-0.0421866
0.0457613
0.0350867
0.113135
0.0358262
0.0512195
0.0884906
0.0795977
-0.0154833
-0.0269322
0.0252848
0.013042
0.114361
0.0882989
0.107931
-0.0048974
0.018212
0.0389792
-0.0742963
-0.0782968
-0.117223
-0.216366
-0.170111
-0.0668712
-0.00560193
-0.0753972
-0.0665236
0.0147719
-0.0678306
-0.0564907
-0.0202168
-0.0265084
-0.0566815
0.00382633
0.0928037
0.0652328
0.0699491
0.0893075
0.14936
0.0973084
0.134964
0.145829
0.104561
0.0767319
0.0428681
0.0419862
0.0676413
0.0941518
-0.00353186
-0.0198472
-0.0536475
-0.141957
-0.144969
-0.137476
-0.179294
-0.288489
-0.187429
-0.155761
-0.00527022
0.0651218
0.0963099
0.0873362
0.159038
0.18516
0.13764
0.160806
0.208644
0.118466
0.0931036
0.119307
0.125287
0.112994
0.0395932
-0.0827766
-0.0880886
-0.0839954
-0.00260303
0.0425494
0.0647563
0.0383389
0.070069
0.108115
0.0507275
0.0524514
0.0608096
0.0881475
0.0456142
0.0704357
0.173436
0.105762
0.0485536
-0.0691637
-0.129283
-0.0623002
0.0486347
-0.0609337
-0.127964
-0.0894026
-0.0457362
-0.155438
-0.152584
-0.0369584
0.0440219
0.130414
0.0484434
0.0291979
-0.00645666
-0.0509691
0.01029
0.0424716
0.050339
0.0321012
0.0368189
0.0189316
0.15657
0.0885674
0.0207745
0.0245134
-0.068176
-0.125339
-0.163101
-0.154471
-0.125162
-0.045996
-0.0095752
-0.0649092
-0.0832695
-0.0495154
-0.0446434
-0.0591844
-0.0951123
-0.0593556
0.0321338
0.0180089
0.0278375
0.045932
0.0278499
0.0642563
0.132669
0.172047
0.186426
0.142387
0.11764
0.176934
0.149306
0.0337623
0.0679582
0.0924274
0.0511102
-0.065774
-0.0667812
0.0104397
-0.0265282
-0.127118
-0.187601
-0.233441
-0.13683
-0.0660802
-0.00370525
0.0220238
0.0129031
0.0263153
0.170296
0.194821
0.0791105
0.16064
0.176937
0.1697
0.156712
0.109246
0.0713643
0.0998588
0.0621224
-0.117468
-0.0605783
-0.0157304
-0.0125268
-0.0161016
0.00307909
0.162519
0.293208
0.214172
-0.00611161
-0.132507
0.0105327
0.127934
0.100395
0.0753171
0.0734992
0.079112
0.161095
0.0329784
0.0178586
-0.0119302
-0.112295
-0.189099
-0.14158
-0.0705875
-0.169994
-0.0972665
0.0608239
-0.023871
0.0366984
0.0725392
-0.0469522
-0.0429194
-0.0472681
-0.151551
-0.0569889
0.0659511
0.0770583
-0.022088
0.0085185
-0.00525091
0.0857024
0.0693371
0.0620248
-0.00606112
-0.0730743
-0.0747064
-0.0388836
-0.0521388
-0.156163
-0.120079
-0.103428
-0.181087
-0.159495
-0.0651888
-0.0621507
-0.0577412
-0.0640675
0.0487707
0.107629
0.139713
-0.00489448
-0.0647715
0.0222535
0.0623816
0.158225
0.189852
0.2433
0.247746
0.14631
0.122321
0.15947
0.169745
0.132957
0.102298
0.0360336
0.122814
-0.0122245
-0.11912
-0.0181503
-0.0974654
-0.250658
-0.206521
-0.113542
-0.0629309
-0.0506116
-0.00150054
0.0382193
0.0694742
0.177075
0.192626
0.0592911
0.0853372
0.190018
0.217484
0.157708
0.0875409
0.0297755
0.120438
0.0499367
-0.0862399
-0.0492045
-0.0457001
0.0192821
0.0459692
0.0272319
0.0795021
0.116458
0.0953063
0.00159799
0.135434
0.144604
0.127123
0.0601421
0.0286967
0.0494563
0.00421192
-0.0268106
0.0523982
0.0813076
0.255255
0.199312
0.0319956
-0.139001
-0.151193
-0.280152
-0.303776
-0.0987241
0.0274269
0.0267044
0.031065
-0.0639491
-0.0679253
-0.00934164
-0.0619163
-0.0204723
0.0281257
0.0039117
-0.0735334
-0.0392815
0.100652
0.115793
0.0287691
0.0125378
-0.0270026
-0.0323171
-0.0822728
-0.162173
-0.0487368
-0.0455471
-0.0267201
-0.0620127
-0.120166
-0.160467
-0.0283243
-0.0428642
-0.145275
-0.138717
-0.0795781
0.0357998
0.057429
0.0444715
0.0462656
0.0728761
0.111539
0.161566
0.20691
0.256677
0.242173
0.204244
0.146489
0.231236
0.22638
0.151272
0.132107
0.106744
0.0680117
0.0259687
-0.052519
-0.0118924
-0.1033
-0.158149
-0.149504
-0.174379
-0.069382
-0.0329763
-0.0373881
0.0333108
0.0791401
0.125538
0.123652
0.108086
0.136255
0.16688
0.167711
0.168915
0.116072
0.0329544
0.112034
0.0621588
-0.0299294
-0.110934
-0.0422574
0.047755
-0.0035474
0.051858
0.0327398
0.0785892
0.0838949
0.14768
0.175231
0.105455
0.145381
0.0451103
-0.0309605
0.10509
0.154969
0.110569
0.103327
0.122159
0.0466009
0.0313404
-0.0334055
-0.141749
-0.139712
-0.156845
-0.0514071
0.00984127
0.00944223
-0.121889
-0.0775808
-0.0509845
-0.0691543
-0.0966793
-0.204731
-0.0308587
-0.00124088
-0.0313469
-0.0492849
-0.0614877
0.0898175
0.133803
0.0967977
-0.0274844
-0.0488541
0.0217768
0.00873186
-0.0758334
-0.0795349
-0.15856
-0.18503
-0.108457
-0.0979573
-0.0989537
-0.128794
-0.1219
-0.0407909
-0.0466154
-0.0220787
0.021084
0.0813153
0.0909395
0.0290463
0.0572969
0.114381
0.161356
0.223457
0.305741
0.294583
0.290166
0.256675
0.231863
0.236827
0.18969
0.131847
0.0219744
0.0654895
0.0430814
-0.0354418
0.0673048
-0.0427031
-0.141305
-0.137371
-0.210351
-0.190157
-0.1095
0.0396174
0.101177
0.0412202
0.0918562
0.145243
0.137016
0.151704
0.169721
0.180311
0.101156
0.0771087
0.031274
0.0532673
0.0278644
-0.0200289
0.0118213
0.0404832
-0.0432895
-0.129998
-0.0146331
0.115456
0.102654
0.0695189
0.0546062
0.0377397
0.135678
0.139739
0.0598646
0.167437
0.146864
0.116598
0.0472445
0.0720902
0.207991
0.122487
0.0147129
-0.0216552
-0.0755173
-0.0941275
-0.167802
-0.0645506
-0.111278
-0.0475952
-0.0304495
-0.0510962
-0.096302
-0.115381
-0.0982589
-0.0979916
-0.10897
-0.0898847
0.0309556
-0.0238795
-0.0214614
0.0877362
0.0708819
0.0848833
0.000467113
-0.0385625
-0.00740024
-0.0235232
-0.0920101
-0.171224
-0.108546
-0.0878563
-0.0669289
-0.0602782
-0.113461
-0.134191
-0.12504
-0.0905299
-0.0918806
-0.0788609
0.0715938
0.0854157
0.0265956
0.0393407
0.0593164
0.107043
0.23429
0.217696
0.232608
0.301084
0.381462
0.257221
0.222037
0.322318
0.219045
0.0918532
0.0943722
0.142609
0.0976844
-0.019787
-0.0659649
-0.0377114
-0.0366143
-0.176369
-0.240653
-0.193804
-0.0533901
0.0236709
-0.00329861
-0.00466132
0.119651
0.188185
0.121234
0.132199
0.133835
0.16461
0.0973493
0.135401
0.0708658
0.0839566
-0.035032
-0.0326617
-0.0337687
-0.0217509
-0.0478665
-0.0810241
0.0483957
-0.0146039
0.106068
0.130211
0.1157
0.144569
0.144661
0.0722069
0.113329
0.187943
0.0578992
0.0631884
0.33266
0.18111
0.128982
0.0599531
0.0158573
0.0945255
0.00440354
-0.0911687
-0.0845158
-0.0777978
-0.120089
-0.0514679
-0.0966463
-0.0828929
-0.114878
-0.160888
-0.305385
-0.180628
-0.0685438
-0.0155326
0.214885
0.139254
-0.011893
-0.152391
-0.0666833
-0.005288
0.00293916
0.0124092
0.0374792
-0.0315776
-0.104474
-0.162635
-0.126338
-0.11434
-0.0453206
-0.151589
-0.132036
-0.181549
-0.134646
-0.0957897
-0.0202285
-0.0261294
-0.0322522
-0.00888673
0.0702873
0.11316
0.11379
0.221741
0.260445
0.266272
0.291323
0.289495
0.287327
0.342041
0.268267
0.290348
0.230577
0.0978742
0.0523556
0.02446
0.0390002
-0.0729107
0.0581534
0.0643889
-0.139251
-0.0904074
-0.172194
-0.207115
-0.123567
-0.00302705
-0.0191771
0.0432221
0.0989387
0.116126
0.136133
0.130276
0.181231
0.154097
0.114679
0.113928
0.0431456
0.13887
0.0364867
-0.0552778
-0.0857024
-0.0440561
0.0824949
0.00975536
-0.0128906
-0.00414577
0.0476652
0.075137
0.149429
0.204407
0.123051
0.139757
0.162569
0.0715817
0.015594
0.146493
0.186132
0.205858
0.130116
0.0871558
0.0943634
0.0990876
0.0366236
-0.052814
-0.100576
-0.0979439
-0.109953
-0.164904
-0.119539
-0.124269
-0.0640074
0.0227111
-0.186573
-0.325936
-0.0519224
0.0195071
0.0932334
0.0400503
0.0278254
-0.0364263
-0.146349
-0.140389
0.0313975
0.00768781
0.132565
0.0121197
-0.115122
-0.155176
-0.0861751
-0.0551397
-0.057553
-0.145316
-0.216104
-0.235091
-0.142247
-0.0965514
0.0103023
-0.0505308
-0.0384776
0.0659408
0.15372
0.0867454
0.086017
0.156543
0.265823
0.268084
0.295931
0.302967
0.231391
0.235377
0.302339
0.306341
0.228432
0.132223
0.167241
0.140454
0.124035
-0.0562682
-0.068956
-0.136887
-0.109128
-0.0283698
0.0230171
-0.168886
-0.237745
-0.0517704
-0.0777577
-0.0190666
0.0653666
0.0277216
0.117467
0.167387
0.214354
0.131019
0.123824
0.159609
0.108892
0.144924
0.055722
-0.0901593
-0.0177627
-0.0459083
-0.0849755
-0.0535251
0.0191852
0.0482437
0.128861
0.202555
0.164798
0.123306
0.0984774
0.0758227
0.163333
0.0964769
0.0242428
0.17394
0.26961
0.269446
0.125918
-0.0130514
0.068194
0.11976
0.154584
-0.00495656
-0.116149
-0.0730597
-0.117035
-0.136577
-0.11668
-0.166996
-0.154383
-0.0726582
-0.188429
-0.271188
0.0531136
0.212098
0.153943
-0.00920354
-0.113064
0.00621458
-0.110387
-0.117737
0.02621
-0.0413147
0.0801635
-0.0102971
-0.167161
-0.160804
-0.0759998
-0.0368636
-0.128238
-0.216541
-0.111855
-0.137706
-0.0984356
-0.139303
-0.124076
-0.094588
0.035318
0.119238
0.160458
0.0925249
0.0847418
0.171869
0.249137
0.27117
0.318078
0.393009
0.265561
0.238892
0.324245
0.255349
0.224065
0.132244
0.123598
0.113878
0.0582077
-0.0416052
-0.117278
-0.0541041
0.0028237
-0.0555768
-0.149362
-0.0997771
-0.1068
-0.0229706
-0.0586969
-0.0553877
0.0407881
0.0859969
0.113428
0.0994944
0.119176
0.103696
0.182512
0.19809
0.133323
0.163306
0.0766944
-0.131944
-0.077715
0.0219177
-0.000792378
-0.0246549
0.0463615
0.0389858
0.107212
0.144889
0.116475
0.112049
0.112094
0.0706763
0.119661
0.0889004
0.0904066
0.177432
0.23458
0.207159
0.112654
0.0818974
0.104826
-0.0030496
0.0223467
0.0279795
-0.0257688
0.0598662
-0.0948375
-0.183621
-0.204274
-0.221633
-0.120392
0.0354555
-0.0653144
-0.0905672
-0.0690744
0.0790943
0.16831
-0.0405786
-0.229101
-0.102357
-0.0511746
-0.00644051
0.0374324
-0.000875961
-0.0146839
-0.0696351
-0.0522379
0.00342417
-0.0521655
-0.068958
-0.0729927
-0.154371
-0.0976152
-0.201833
-0.231349
-0.135089
-0.0272009
0.00223297
-0.0240314
0.0111576
0.0920384
0.169086
0.20229
0.173139
0.195487
0.291062
0.392055
0.319831
0.307108
0.225617
0.208056
0.152799
0.18576
0.219121
0.172479
0.142821
0.0954546
0.0816461
-0.0515592
-0.0813619
-0.073623
-0.0362821
-0.0382525
-0.0614682
-0.221066
-0.164804
-0.0840284
-0.0346976
0.0421387
0.111388
0.0984535
0.0486647
0.0710854
0.0970751
0.259157
0.258481
0.117455
0.216948
0.117757
-0.154281
-0.0730899
-0.0149721
-0.0389199
-0.028306
0.0621862
0.0855113
0.080314
0.097823
0.146743
0.162887
0.139846
0.121082
0.127301
-0.0313211
0.00757567
0.246962
0.293659
0.205654
0.201141
0.0841365
0.0268264
0.0347181
0.00560453
-0.022547
0.0114059
0.0318272
-0.0731183
-0.122014
-0.155151
-0.181874
-0.112111
0.00717562
-0.0511725
-0.0955289
-0.0365237
0.0108808
0.0471163
-0.0101794
-0.0563591
-0.101077
-0.0838678
-0.00137428
0.00885293
-0.00352709
-0.0195625
-0.0545921
-0.0631276
-0.0581696
-0.088975
-0.0318428
-0.050196
-0.158198
-0.131216
-0.156427
-0.152547
-0.153011
0.0590939
0.0231699
-0.0207288
0.0462592
0.0713265
0.0504067
0.015101
0.14007
0.343024
0.417067
0.306799
0.303729
0.308549
0.26332
0.127685
0.226805
0.215492
0.181696
0.205438
0.0601784
0.0712767
0.0844107
0.0436516
-0.111031
-0.165234
-0.0173968
-0.0235
-0.0668955
-0.0559996
-0.178625
-0.0839866
-0.0611598
0.0526004
0.0264603
0.0318139
0.031883
0.116832
0.153783
0.199552
0.211745
0.226068
0.204127
0.0789507
-0.131528
-0.113527
-0.0402321
-0.012644
0.0271008
0.0442645
0.0794736
0.0670684
0.101404
0.219281
0.153925
0.0440892
0.0303528
-0.0145369
0.104789
0.18705
0.202207
0.139496
0.12428
0.227711
0.232522
0.119899
-0.0197463
-0.0587949
-0.00516053
0.05388
-0.0401082
-0.0712521
-0.158986
-0.0793731
-0.0609532
-0.05789
-0.10304
-0.0610484
-0.134349
0.0216125
-0.00161064
-0.0283193
0.0580073
-0.042726
-0.0805968
-0.135855
-0.00455911
-0.0232062
0.0414191
-0.0134577
-0.0749988
0.00363136
0.00137823
-0.0700723
0.0815122
-0.0136022
-0.146869
-0.0846143
-0.147432
-0.199584
-0.145816
-0.10169
-0.0432129
0.0429255
0.17401
0.0904335
0.107119
0.0874597
0.132371
0.241323
0.383027
0.394121
0.305502
0.170467
0.123733
0.249973
0.230127
0.208915
0.19143
0.160611
0.177993
0.0726454
0.0342233
0.0308723
-0.0710737
-0.139511
-0.0476607
0.028453
-0.108606
-0.150876
-0.180941
-0.0750747
-0.0291854
0.0288161
0.0332049
0.0707218
0.0632716
0.0582277
0.17609
0.216258
0.21083
0.235782
0.175363
0.0243904
-0.0944582
-0.104267
-0.107745
0.00699218
0.0554165
0.0212869
-0.0125901
0.112319
0.16236
0.162322
0.151164
0.14429
0.0460059
0.00198439
0.0505182
0.0709507
0.111629
0.192078
0.200454
0.153797
0.165096
0.091311
0.00490842
0.0171516
0.0591451
-0.0497553
-0.0416486
-0.0811163
-0.128307
-0.0119866
0.0108936
-0.143195
-0.156031
-0.029904
-0.0013432
0.0118306
-0.0510325
-0.0291073
-0.020723
-0.10675
-0.0336459
-0.0402995
-0.0202778
-0.00642898
0.075501
-0.00249186
-0.00191869
0.000882416
-0.0113522
-0.0386962
-0.073277
-0.0342259
-0.0355805
0.0183029
-0.141783
-0.254065
-0.26099
-0.123336
0.061387
0.0596184
0.0408387
0.0733099
0.137832
0.175492
0.096773
0.234833
0.288153
0.287609
0.394658
0.274323
0.184056
0.208985
0.207952
0.189918
0.159275
0.241202
0.120536
0.0305442
0.0352511
0.0461092
0.0353324
-0.116262
-0.178253
-0.0372748
-0.0895491
-0.178499
-0.139571
-0.0472258
-0.0473691
-0.006111
0.088913
0.104752
0.0675003
0.0660381
0.185717
0.227547
0.212139
0.276067
0.144556
0.0402123
-0.150393
-0.125129
-0.032558
-0.00856243
0.066883
0.0590431
0.154173
0.221598
0.10339
0.0578452
0.120605
0.100787
-0.00571639
0.00124628
0.00927794
0.104796
0.223149
0.203617
0.126806
0.0865115
0.183727
0.0769151
0.0797209
0.0605798
0.0483584
-0.135223
-0.247335
0.0236208
0.0112246
0.0161428
-0.0481421
0.0228196
-0.00146335
-0.054075
-0.106974
-0.0798489
-0.0197619
-0.0647528
-0.0606967
-0.057189
-0.0442959
-0.0108754
0.0137722
0.031883
0.0380479
0.0125546
-0.0679713
0.0345128
0.0292733
-0.0458564
-0.0174869
-0.046159
-0.024171
-0.0892732
-0.180326
-0.161718
-0.184741
-0.101422
0.0684706
-0.0777502
0.106136
0.136912
0.126643
0.114087
0.170909
0.264174
0.248402
0.255359
0.32604
0.319261
0.164097
0.280658
0.151045
0.083669
0.132699
0.212206
0.174289
0.114874
0.0275924
-0.0120972
-0.0589048
-0.072598
-0.120743
-0.0641245
-0.0517414
-0.134052
-0.0643903
-0.0610148
-0.0425571
-0.0376465
0.0358616
0.114067
0.0455631
0.155877
0.214153
0.183954
0.131984
0.242218
0.169051
0.0506356
-0.165286
-0.161503
-0.00695041
0.124673
0.0614288
0.0619475
0.126186
0.133147
0.165729
0.162442
0.0623517
0.0218704
-0.0590864
-0.0174519
0.0122991
0.0481846
0.172717
0.258947
0.134944
0.0968211
0.0621009
0.0320428
0.0551057
0.0687196
-0.00305153
0.0272838
-0.0154841
-0.0443101
-0.109591
0.0281952
0.00195176
-0.0145299
-0.0382836
-0.0173915
-0.037776
-0.0885477
-0.0574455
-0.0577329
-0.0130119
-0.0311534
-0.0715954
-0.065348
-0.0275454
0.0384307
0.0418253
-0.0233663
-0.0333033
0.0386949
0.108697
-0.0644288
-0.13441
-0.0359786
-0.0145162
0.0185831
-0.129771
-0.187693
-0.022915
-0.0339354
-0.0291071
-0.0859191
0.0233866
0.0823944
0.111332
0.211111
0.210158
0.164696
0.169755
0.179646
0.277528
0.245596
0.18516
0.267982
0.131522
0.115509
0.107019
0.189884
0.167718
0.0762374
0.0372128
-0.0358976
-0.056939
-0.0187621
-0.00783241
-0.0596156
-0.118845
-0.189049
-0.100366
-0.0769393
-0.0520059
0.07247
0.0630475
0.10681
0.014761
0.0645725
0.155689
0.209548
0.227775
0.234947
0.170641
0.048037
-0.186525
-0.0606107
-0.0195315
0.0254849
0.116541
0.0899844
0.0926274
0.0680792
0.14847
0.0904766
0.0743745
0.0880899
0.0426058
0.0114715
-0.0238356
0.062536
0.122979
0.17878
0.0829695
0.12574
0.130905
-0.002885
-0.0745604
0.0755477
0.0264332
-0.0168572
-0.0438031
-0.0475741
-0.0420478
0.000299281
0.0311895
0.108172
-0.0343934
-0.102437
-0.172045
-0.0477072
0.0242671
-0.0142559
-0.0993397
-0.088003
-0.0301627
0.0114717
0.0230904
0.0100068
0.0395723
0.0432413
0.0283391
-0.0213538
-0.0167816
-0.0670198
-0.0346708
-0.0463075
0.00415253
-0.0740335
-0.126691
-0.0752717
-0.0702758
-0.036493
-0.0523386
-0.0625854
-0.035855
0.0904546
0.108362
0.21086
0.255189
0.165896
0.132992
0.197706
0.208465
0.170316
0.208053
0.203148
0.143653
0.130993
0.183345
0.153765
0.0539275
-0.00293629
0.0804346
0.0127849
-0.0582426
-0.0610701
-0.022403
-0.0845214
-0.119978
-0.07495
-0.0596818
-0.112657
-0.0766945
-0.0448741
-0.0282249
0.0693516
0.19354
0.16234
0.148332
0.16942
0.215522
0.190118
0.10564
0.0195795
-0.180611
-0.108539
-0.0255392
-0.0553952
0.0442688
0.199667
0.27718
0.136583
0.105552
0.0083642
-0.0060232
0.0852236
0.0164765
0.0166836
-0.00396301
0.0314546
0.0849136
0.0561486
0.0310882
0.0975535
0.0335251
-0.0142155
0.146311
0.144227
-0.0181497
-0.120464
0.0481027
0.0133725
-0.0739323
0.0011671
0.0348623
0.00680973
0.0361812
0.0445646
-0.0447177
-0.0925094
-0.0684871
-0.122857
-0.10581
0.000851847
0.0103039
-0.06027
0.0115901
-0.00264088
0.046886
0.0199458
0.0346377
0.00641004
-0.00951437
-0.0130723
-0.0165924
-0.02586
0.00825986
-0.00123388
-0.128474
-0.108696
-0.0505447
-0.00768577
0.00818254
-0.0516906
-0.0750593
-0.0314638
0.0560704
0.152199
0.15982
0.143089
0.225965
0.197464
0.163341
0.171404
0.125019
0.166998
0.11228
0.176783
0.168592
0.0497034
-0.0028527
0.0632461
0.138073
0.0556896
-0.0263645
-0.00318954
-0.0950177
-0.131629
-0.112461
-0.118989
-0.145688
-0.117248
-0.0244653
-0.0242009
-0.010524
0.0926123
0.204719
0.163493
0.0782312
0.139041
0.197515
0.191835
0.116739
-0.00028894
-0.127947
-0.106309
-0.0348028
0.000959017
0.0696384
0.0900028
0.150316
0.134755
0.103234
-0.00516892
-0.026821
0.181161
0.204991
0.00246647
-0.0751905
-0.0451434
0.00803948
0.163671
0.122574
0.0178899
0.0369832
0.0166821
0.0655374
0.0078027
0.00975193
-0.0236821
-0.0429839
-0.0380899
-0.0315541
0.0293124
0.0495776
0.0157316
-0.06132
-0.0607648
0.00411791
-0.0797552
-0.0972403
-0.0587847
0.00671323
0.0118846
0.0254261
-0.0300064
-0.0544529
0.0331795
0.0878548
0.0342863
0.00178409
0.0667343
0.00449904
-0.127591
-0.0637686
-0.0446316
0.138605
0.124899
-0.145372
-0.163948
-0.122947
-0.0943607
-0.0138208
-0.013804
-0.0533119
-0.0443611
0.00593581
0.079287
0.167728
0.144534
0.15265
0.1789
0.133152
0.179116
0.193087
0.158365
0.0991285
0.140848
0.154108
0.05411
-0.0174999
0.0687732
0.140342
0.044071
-0.0817059
-0.0163584
-0.105612
-0.206768
-0.0545569
-0.0695952
-0.0554062
-0.015039
-0.066279
-0.122642
0.0705319
0.131851
0.0397433
0.0862823
0.0892168
0.147344
0.151997
0.189259
0.153949
0.0465017
-0.102852
-0.064843
-0.0409495
0.0196073
0.0687785
0.0315426
-0.0275087
0.12631
0.183837
0.166479
0.0490132
0.0781777
0.0480178
0.025927
0.0305703
0.0852444
0.068946
0.0527515
-0.00368194
-0.0383095
0.0815668
0.0540039
-0.013256
0.00915636
-0.00677017
-0.0622205
-0.0722098
-0.050236
0.00301608
0.116009
0.0613512
0.0858029
0.0291017
-0.12787
-0.119136
-0.0432495
-0.121004
-0.00861334
0.043504
-0.018301
-0.010871
0.0513683
0.00891031
-0.068963
-0.0039594
-0.00119181
0.0145631
0.107088
0.0400803
0.0319049
-0.0221413
-0.017845
0.0275229
0.049248
-0.00600212
-0.104714
-0.140939
-0.123504
-0.09913
-0.0421318
0.0258183
-0.00560721
0.0143195
0.0286531
0.119601
0.0615814
0.0676609
0.169809
0.135798
0.166506
0.0416617
0.11486
0.185935
0.133278
0.0930454
0.0470725
0.050111
0.0988708
0.0699555
-0.0340245
-0.0558006
-0.0498923
-0.132883
-0.12432
-0.0917786
-0.125746
-0.0764909
-0.0398698
-0.0557095
-0.0690509
0.0429661
0.039572
0.0603932
0.174472
0.219397
0.109136
0.0951314
0.11732
0.0955419
0.0313593
-0.0790757
-0.0506848
-0.038013
-0.0260414
-0.0254382
-0.0423808
0.0981416
0.081372
0.0338146
0.0952542
0.129023
0.0785674
0.0953116
0.0531672
0.0156164
0.0693781
0.0671268
0.0937322
0.0602259
0.0821448
-0.0304765
-0.0183571
0.00218674