/*--------------------------------*- C++ -*----------------------------------*\
| =========                 |                                                 |
| \\      /  F ield         | OpenFOAM: The Open Source CFD Toolbox           |
|  \\    /   O peration     | Version:  v2012                                 |
|   \\  /    A nd           | Website:  www.openfoam.com                      |
|    \\/     M anipulation  |                                                 |
\*---------------------------------------------------------------------------*/
FoamFile
{
    version     2.0;
    format      ascii;
    class       volVectorField;
    location    "0";
    object      U;
}
// * * * * * * * * * * * * * * * * * * * * * * * * * * * * * * * * * * * * * //

dimensions      [0 1 -1 0 0 0 0];


internalField   nonuniform List<vector> 
4000
(
(-0.000553122 -0.0292803 0)
(-0.0113268 -0.00773796 0)
(0.0418501 -0.0382445 0)
(0.0377711 0.0448574 0)
(-0.0832333 -0.0151394 0)
(0.195457 0.101759 0)
(-0.13989 0.0332556 0)
(0.0360304 -0.0297013 0)
(-0.0643148 -0.159369 0)
(0.00720497 -0.0133541 0)
(0.109328 0.106064 0)
(0.0401331 0.158862 0)
(-0.0974951 0.000575337 0)
(0.041457 -0.147723 0)
(0.110907 -0.107511 0)
(0.0795027 0.0474727 0)
(0.0260926 0.000436054 0)
(0.141172 -0.0562112 0)
(0.0484871 0.0747837 0)
(-0.104476 -0.00313441 0)
(0.0759271 -0.00844188 0)
(-0.102021 -0.00646903 0)
(-0.118074 0.00767632 0)
(-0.0217846 0.0832437 0)
(0.000736874 -0.0370761 0)
(0.065131 -0.0400515 0)
(0.0913264 0.0812707 0)
(-0.0399053 -0.0111208 0)
(-0.0545208 0.0372641 0)
(-0.144077 -0.0386367 0)
(-0.104046 -0.0473894 0)
(-0.0990976 -0.0489639 0)
(0.250045 0.0437488 0)
(-0.0636423 -0.00663769 0)
(-7.61466e-06 0.00652453 0)
(0.0518584 -0.015105 0)
(-0.0233159 -0.0422832 0)
(0.0758406 0.055414 0)
(-0.0386101 0.114798 0)
(-0.215011 -0.0229696 0)
(-0.00920387 -0.00784215 0)
(0.0887343 -0.00670118 0)
(0.0975075 -0.0718729 0)
(0.107875 -0.0453781 0)
(0.0535711 0.100665 0)
(0.00578234 0.0176023 0)
(-0.0772828 -0.071046 0)
(-0.018659 -0.0334528 0)
(0.0318212 0.0606135 0)
(-0.224931 0.0425011 0)
(-0.0630502 -0.0533543 0)
(0.0613176 -0.0230949 0)
(0.077374 -0.00799226 0)
(-0.0704819 0.0718247 0)
(-0.0583688 0.00568833 0)
(0.0214526 -0.0199809 0)
(0.00445063 0.00227378 0)
(0.0322925 0.00487821 0)
(-0.133052 0.0332988 0)
(-0.0925063 0.0486623 0)
(0.0101593 0.0139565 0)
(0.0341545 -0.0639676 0)
(-0.0383224 -0.0992919 0)
(0.127315 0.0890256 0)
(0.0151904 0.00907018 0)
(-0.00274876 -0.0500999 0)
(0.0372934 0.0724022 0)
(-0.0146073 0.0440558 0)
(0.0366255 -0.0685573 0)
(-0.117341 -0.0494955 0)
(0.0196613 0.0459085 0)
(-0.103612 0.0149959 0)
(0.0761848 -0.000866712 0)
(-0.102937 0.0842543 0)
(0.0279172 -0.0351891 0)
(-0.0363659 -0.00487487 0)
(-0.0938045 0.0359976 0)
(-0.122779 -0.00990141 0)
(-0.104319 -0.02894 0)
(0.0634861 0.00186649 0)
(-0.0169491 0.053584 0)
(-0.058187 -0.0224741 0)
(-0.00942628 -0.167413 0)
(0.136637 0.104322 0)
(-0.136105 0.123012 0)
(-0.0410545 -0.0223047 0)
(-0.0377579 -0.0342788 0)
(-0.0425798 -0.110365 0)
(0.0844085 0.03166 0)
(-0.0184368 0.0608361 0)
(-0.00184519 0.0321611 0)
(-0.0128028 -0.0292191 0)
(-0.00364301 0.0207223 0)
(-0.022594 -0.0255994 0)
(0.053868 0.031971 0)
(-0.0631687 -0.0443136 0)
(0.0410069 -0.0394995 0)
(-0.0224264 0.0421564 0)
(0.0146638 -0.00467977 0)
(0.058888 -0.0139447 0)
(0.0567376 -0.0475253 0)
(-0.0600945 0.0231863 0)
(-0.116128 0.0337031 0)
(-0.000804604 -0.00261928 0)
(-0.0396077 0.00162618 0)
(-0.0369852 0.0487295 0)
(-0.128994 0.0268466 0)
(0.0162799 -0.0395027 0)
(-0.0871158 -0.0699409 0)
(-0.0481775 -0.0672855 0)
(-0.106427 -0.024327 0)
(0.0107796 0.0915899 0)
(0.0442664 0.0676007 0)
(0.0256924 -0.169203 0)
(-0.00396878 0.0254751 0)
(0.0121022 0.109009 0)
(-0.009575 -0.219586 0)
(0.020499 0.0203354 0)
(-0.0259685 0.128696 0)
(-0.0699535 -0.0625673 0)
(-0.0309086 0.0872659 0)
(-0.0510571 0.17208 0)
(0.000508553 -0.0503926 0)
(-0.0436115 -0.0268849 0)
(-0.100727 -0.0176965 0)
(0.0124661 -0.0640779 0)
(-0.121452 0.0739529 0)
(-0.0117207 -0.0424855 0)
(0.00209853 0.0774675 0)
(0.0884072 0.0990469 0)
(-0.200107 -0.0920195 0)
(0.0367343 -0.193911 0)
(0.179909 -0.031444 0)
(-0.144568 0.0760393 0)
(-0.159779 0.0207877 0)
(-0.00835183 -0.038809 0)
(-0.0255555 0.033811 0)
(-0.000968901 0.102966 0)
(0.040406 0.043291 0)
(-0.0585648 -0.0773538 0)
(0.063108 -0.0613118 0)
(0.071051 -0.0319478 0)
(0.0406057 -0.1135 0)
(0.00636545 -0.0757082 0)
(0.158898 0.124923 0)
(-0.0232204 0.0439075 0)
(-0.0403052 0.075375 0)
(-0.0388307 -0.0350353 0)
(0.0559287 0.0418324 0)
(-0.029462 0.107118 0)
(0.00782146 -0.16709 0)
(0.166048 -0.105347 0)
(-0.0515324 0.089264 0)
(-0.0729552 0.14074 0)
(-0.0412478 0.0185978 0)
(0.0373698 -0.118896 0)
(-0.0456016 -0.0124036 0)
(0.132533 0.0695502 0)
(0.0287187 -0.0198651 0)
(0.0149249 -0.0742995 0)
(0.0789355 0.0031914 0)
(0.0256833 0.0931671 0)
(-0.0974929 -0.0444948 0)
(0.0120173 -0.0160504 0)
(0.105832 -0.0469406 0)
(0.00729781 -0.0246624 0)
(0.0734122 0.0300613 0)
(-0.0324616 0.0476584 0)
(-0.0100382 -0.0301339 0)
(0.0179984 0.000642256 0)
(-0.0520713 -0.0491352 0)
(0.0447073 0.034925 0)
(0.0340393 0.0275207 0)
(0.00975743 -0.0678221 0)
(0.0491006 -0.0309123 0)
(0.0183052 0.168617 0)
(-0.0190412 0.0549675 0)
(-0.0134773 -0.0267764 0)
(-0.00923057 -0.0131462 0)
(0.0471029 -0.0734681 0)
(0.0247063 -0.0213238 0)
(-0.0704248 0.0899236 0)
(-0.141012 -0.0952724 0)
(-0.0110707 -0.0374423 0)
(-0.0193471 0.116809 0)
(-0.0211975 -0.00886496 0)
(0.0681063 0.0130275 0)
(0.0976492 -0.15713 0)
(0.0270444 -0.0382193 0)
(0.0542399 0.162518 0)
(0.0138214 -0.0137342 0)
(0.0284338 -0.111245 0)
(0.141906 0.0551778 0)
(0.0965693 0.0955616 0)
(0.0680734 0.0320464 0)
(0.025471 -0.142604 0)
(-0.0239814 0.0302509 0)
(-0.00299283 0.0754568 0)
(0.0474364 -0.07791 0)
(0.067158 -0.028651 0)
(-0.00668856 0.0143214 0)
(-0.00468141 0.0220163 0)
(-0.00355765 0.054507 0)
(-0.00928742 -0.0602113 0)
(-0.00396875 -0.0106003 0)
(0.0375178 0.0276608 0)
(0.0149783 0.0646143 0)
(0.0542289 -0.0327302 0)
(-0.0368686 -0.015895 0)
(0.0237006 -0.057735 0)
(-0.0376224 -0.106834 0)
(-0.0491338 0.0923167 0)
(-0.0626656 0.116864 0)
(0.0215707 -0.0706578 0)
(-0.00564069 -0.0977411 0)
(0.0366358 0.00695459 0)
(0.000341455 0.0408474 0)
(-0.0169725 0.00310469 0)
(-0.012229 -0.108459 0)
(0.0225632 0.120259 0)
(4.12604e-05 0.164529 0)
(0.0899049 -0.0847173 0)
(0.0417297 -0.0786009 0)
(-0.0217371 0.162778 0)
(-0.00426622 0.0319362 0)
(-0.0329053 -0.104081 0)
(-0.011692 0.0157131 0)
(-0.0930636 -0.00960009 0)
(0.0382969 0.0175364 0)
(0.0717248 0.0809797 0)
(0.0116636 -0.116453 0)
(0.00110839 -0.21216 0)
(0.0261432 0.0904111 0)
(0.025983 0.165019 0)
(-0.0743741 -0.0526677 0)
(-0.030296 -0.054354 0)
(0.000164949 0.0119029 0)
(0.020566 0.0853289 0)
(0.106164 -0.0175614 0)
(0.174539 -0.090841 0)
(0.0559237 -0.0137675 0)
(-0.132254 -0.0333603 0)
(-0.0648698 -0.0750572 0)
(0.10201 -0.0843208 0)
(-0.10612 0.178734 0)
(0.0489456 0.101109 0)
(-0.101192 -0.0378092 0)
(-0.0639995 0.0403642 0)
(-0.183919 0.0265474 0)
(0.0131877 0.0525983 0)
(0.0956234 -0.131771 0)
(-0.0445247 -0.0797842 0)
(-0.126695 0.122103 0)
(-0.0019827 0.0569334 0)
(0.0647774 0.0318137 0)
(0.0400331 -0.101143 0)
(0.0260732 -0.0213456 0)
(0.00704944 0.0337536 0)
(-0.0904025 -0.0125475 0)
(-0.00475951 -0.000561829 0)
(-0.173657 -0.0321219 0)
(-0.0709044 -0.0199135 0)
(0.0112814 0.0340517 0)
(0.107625 -0.132211 0)
(0.0988277 -0.0799177 0)
(0.0893833 0.0939852 0)
(-0.027001 0.0469712 0)
(0.0286987 0.0277531 0)
(0.0702312 -0.000442516 0)
(-0.0518545 0.0285802 0)
(0.044682 -0.1455 0)
(0.0281606 0.0233759 0)
(0.0498804 0.0547445 0)
(0.00938305 -0.078367 0)
(-0.0691936 0.0597002 0)
(0.054636 0.123787 0)
(0.0179677 0.0067661 0)
(-0.0379017 -0.0440236 0)
(0.102127 -0.0522815 0)
(0.0071463 -0.0612643 0)
(-0.0294172 0.0645421 0)
(-0.0819643 0.0285141 0)
(-0.0231614 -0.00406434 0)
(0.00245662 0.0243661 0)
(-0.0807312 0.0856805 0)
(-0.0693729 -0.118313 0)
(0.00514353 -0.107731 0)
(0.0738171 -0.0828433 0)
(0.0876149 -0.00215495 0)
(-0.099589 0.148688 0)
(-0.0149391 0.0187757 0)
(-0.0875247 -0.101944 0)
(-0.013151 -0.0174099 0)
(-0.0413563 0.0805234 0)
(0.0583526 0.0415171 0)
(0.0626408 0.0416823 0)
(-0.174134 -0.0153539 0)
(0.0855534 -0.0605193 0)
(0.0158285 0.00697926 0)
(0.0379933 -0.0170426 0)
(-0.00019582 0.0165251 0)
(0.00086245 0.00132504 0)
(-0.00603035 0.0930463 0)
(0.0236845 0.0281764 0)
(0.00416344 -0.126319 0)
(-0.151386 -0.045144 0)
(0.0541289 0.0704251 0)
(0.0783339 0.0301564 0)
(0.0805215 -0.108504 0)
(0.0129012 0.0281267 0)
(-0.00806948 0.0401406 0)
(0.00253839 0.0416228 0)
(-0.0103521 0.022691 0)
(0.00301177 -0.115897 0)
(-0.00626284 -0.176107 0)
(0.0489758 -0.0874415 0)
(0.0350669 0.203167 0)
(0.0689203 0.0802527 0)
(-0.104452 -0.158444 0)
(0.0938958 0.0192632 0)
(0.0511136 0.304241 0)
(0.0418572 -0.0757552 0)
(0.0102313 -0.113993 0)
(-0.153305 0.1522 0)
(0.0325721 0.0824098 0)
(0.299115 -0.0280659 0)
(-0.0231194 -0.100678 0)
(-0.0464457 -0.105046 0)
(0.0965211 -0.0244286 0)
(0.0123707 0.182979 0)
(-0.0680656 -0.026732 0)
(-0.0767557 -0.304961 0)
(0.00573594 -0.0373825 0)
(0.181838 0.184944 0)
(0.0372885 0.072672 0)
(0.0206584 -0.0798587 0)
(-0.0629195 -0.0624252 0)
(-0.0271717 0.0746718 0)
(0.0536251 0.00220206 0)
(-0.0557414 -0.0564351 0)
(-0.0695011 0.145556 0)
(-0.146427 -0.0347173 0)
(0.0724532 -0.144007 0)
(-0.0270599 -0.0718658 0)
(-0.0107969 0.0813382 0)
(0.10377 0.208174 0)
(0.00238992 0.0143892 0)
(-0.0409362 -0.0179112 0)
(-0.0109868 -0.0405387 0)
(0.085932 0.0143025 0)
(-0.0437759 -0.0154305 0)
(-0.0944189 -0.0287987 0)
(-0.00705272 0.0969401 0)
(-0.000362444 0.124748 0)
(0.00289954 -0.0628837 0)
(0.0444602 -0.137954 0)
(0.0169654 0.0114615 0)
(0.0397986 0.0507944 0)
(-0.0196216 0.000274052 0)
(-0.0743888 0.107889 0)
(0.097883 -0.0160815 0)
(-0.00652354 -0.107077 0)
(0.0399482 -0.0179091 0)
(0.0370767 -0.0472551 0)
(-0.0782039 -0.0967315 0)
(-0.202147 0.0513692 0)
(0.0106578 0.00973671 0)
(-0.0145317 0.0325039 0)
(-0.0443187 0.029586 0)
(0.00599619 -0.0233031 0)
(0.0738884 -0.0539011 0)
(0.00613241 0.0392918 0)
(0.0311604 0.104884 0)
(0.0254753 -0.0315909 0)
(0.0551182 -0.0650331 0)
(0.0471235 0.0910819 0)
(-0.0511553 0.0158663 0)
(0.0395102 -0.0828921 0)
(0.0403973 -0.0633569 0)
(0.00662432 0.0474295 0)
(0.0670698 0.14162 0)
(-0.051099 -0.00991416 0)
(0.0507202 -0.118497 0)
(-0.00760112 0.0306367 0)
(0.0935717 0.022205 0)
(0.0167729 0.0137153 0)
(-0.048486 -0.126339 0)
(-0.189168 -0.107746 0)
(-0.0188357 0.0819455 0)
(0.115229 0.0829493 0)
(-0.0697107 -0.0212895 0)
(0.0762919 -0.0717104 0)
(0.0670007 0.077389 0)
(-0.122014 0.068037 0)
(-0.0685301 -0.0260048 0)
(0.00418768 0.0291006 0)
(0.0404818 -0.0227975 0)
(0.00922932 -0.0533927 0)
(-0.0456989 0.0480496 0)
(-0.0254239 -0.00347726 0)
(-0.000287098 -0.0321982 0)
(-0.0101743 0.0565039 0)
(0.0383297 0.0566196 0)
(-0.0283595 -0.00024168 0)
(-0.0880546 0.0226645 0)
(0.0794202 -0.0690269 0)
(-0.090053 -0.0244575 0)
(0.1724 0.00766611 0)
(-0.0641662 0.0417717 0)
(0.0248942 -0.0813987 0)
(0.0742319 -0.0550733 0)
(-0.0377695 0.0618402 0)
(-0.0843959 0.00969522 0)
(-0.0136745 -0.09714 0)
(-0.0239344 -0.0733081 0)
(-0.00341864 -0.0318696 0)
(0.0229679 0.138899 0)
(-0.0230527 0.0744315 0)
(0.0573378 -0.0959743 0)
(0.0514469 -0.0393119 0)
(-0.0820637 0.0931562 0)
(0.196512 -0.0158969 0)
(0.023439 0.0695942 0)
(-0.0177137 0.117208 0)
(0.134297 -0.18849 0)
(0.191016 -0.110484 0)
(0.162344 0.186077 0)
(-0.227914 0.0684089 0)
(-0.0425546 -0.0924867 0)
(-0.0531126 0.0895284 0)
(0.0943965 0.0463479 0)
(-0.0783398 -0.136145 0)
(-0.334435 -0.0417132 0)
(-0.0110592 0.165752 0)
(0.246721 -0.0467124 0)
(0.141367 -0.100528 0)
(-0.09014 -0.0167486 0)
(0.0017425 -0.00786507 0)
(0.0542218 0.0959188 0)
(0.0471722 0.0134503 0)
(-0.00351221 -0.00909832 0)
(-0.0104956 -0.0463725 0)
(0.0127853 -0.153148 0)
(0.0633776 0.0146398 0)
(-0.0405755 -0.0508552 0)
(0.089411 0.113242 0)
(0.0541176 0.171261 0)
(-0.0176178 -0.101333 0)
(0.050876 -0.0454309 0)
(0.0751933 0.0910786 0)
(0.0301965 0.0636785 0)
(-0.0566258 -0.0856211 0)
(0.0519565 -0.0340959 0)
(0.0745515 0.0626523 0)
(0.0989807 -0.0042087 0)
(-0.0998067 -0.05705 0)
(-0.0636845 -0.0554448 0)
(-0.0272911 0.119367 0)
(-0.0577729 0.176543 0)
(0.0157625 -0.116364 0)
(0.0418607 -0.0992339 0)
(-0.0177775 0.0563101 0)
(0.00459963 0.0059079 0)
(0.0277306 -0.0116417 0)
(-0.0676133 -0.0158242 0)
(-0.1693 -0.0544881 0)
(-0.0194069 0.0383839 0)
(0.0899141 -0.0857044 0)
(-0.0181303 0.0281281 0)
(0.00723947 0.0413955 0)
(-0.0875202 -0.105444 0)
(-0.0017017 0.0626021 0)
(0.0139 0.0999408 0)
(-0.00131635 -0.112906 0)
(-0.10899 0.00651458 0)
(-0.150428 0.0946644 0)
(0.0141041 -0.0231109 0)
(-0.0741276 -0.0677188 0)
(0.0731313 0.00585941 0)
(0.0472817 0.0260767 0)
(-0.0107881 0.013761 0)
(-0.00747268 -0.00868939 0)
(0.117909 -0.00707842 0)
(0.0282896 0.06863 0)
(-0.017153 -0.0328074 0)
(-0.00637547 -0.0741783 0)
(-0.0241173 0.0155638 0)
(-0.0897517 -0.0217 0)
(-0.130905 -0.102129 0)
(0.00992251 0.0748665 0)
(-0.00917173 0.00275216 0)
(-0.0158223 -0.104461 0)
(-0.0706351 0.116312 0)
(-0.0705818 0.144994 0)
(-0.038557 -0.0843524 0)
(-0.0452787 -0.142767 0)
(0.0109537 0.0364875 0)
(0.0848197 0.0444459 0)
(0.205513 0.00309493 0)
(0.0818272 -0.0115545 0)
(0.001822 -0.0310839 0)
(-0.00144797 0.0423801 0)
(0.00503641 0.0840254 0)
(0.011074 0.043016 0)
(-0.00377083 -0.174394 0)
(0.00996436 0.0781291 0)
(-0.0120403 0.0180576 0)
(-0.0619489 -0.0568746 0)
(0.0153839 0.0217438 0)
(0.0787707 -0.0447484 0)
(-0.0460032 -0.0832836 0)
(-0.0678984 0.172124 0)
(0.0178845 -0.0306076 0)
(0.0419728 -0.0363801 0)
(-0.0698499 -0.0526944 0)
(-0.0172164 -0.150362 0)
(0.0517306 0.115643 0)
(0.0195951 0.0206305 0)
(-0.00262656 -0.0702373 0)
(-0.0409918 0.0524845 0)
(0.0355184 0.00138197 0)
(0.00325583 -0.0885168 0)
(-0.0290635 -0.0259485 0)
(0.116316 0.0980325 0)
(-0.0912696 -0.135212 0)
(-0.0643514 -0.00955303 0)
(-0.135778 0.298512 0)
(-0.0334659 0.000511131 0)
(0.0137794 -0.0488712 0)
(-0.0331183 0.108724 0)
(0.0493539 0.0497607 0)
(-0.0495491 -0.0187445 0)
(-0.107173 -0.00250272 0)
(-0.148591 -0.015576 0)
(0.0681076 -0.220512 0)
(0.10123 0.00139282 0)
(0.0964054 0.118925 0)
(-0.198313 0.00375606 0)
(-0.0801227 -0.101741 0)
(-0.0168096 0.0775123 0)
(-0.0730686 0.182789 0)
(-0.0147313 -0.0551861 0)
(0.000563555 -0.217169 0)
(-0.00693449 -0.0327891 0)
(-0.00677824 0.0415994 0)
(-0.0426022 0.0996826 0)
(0.0272905 0.0637304 0)
(-0.0747495 -0.0697813 0)
(0.0126981 -0.0379247 0)
(0.0228876 0.0222529 0)
(-0.0115454 0.0774312 0)
(-0.0164691 0.023495 0)
(0.0246615 0.0538435 0)
(0.0205313 0.0166371 0)
(-0.0693494 -0.0668087 0)
(0.0115294 0.015753 0)
(-0.0290739 -0.0836795 0)
(0.0132266 0.0740998 0)
(0.00453551 0.149828 0)
(0.0694625 -0.00421093 0)
(-0.00167698 -0.00202316 0)
(0.000724822 -0.0314839 0)
(-0.0159346 -0.0492444 0)
(-0.0488315 -0.0288887 0)
(-0.0548551 -0.0480607 0)
(-0.099059 0.0351014 0)
(0.0861761 0.000983012 0)
(0.0898631 -0.0878801 0)
(0.100285 0.00117974 0)
(0.023373 0.0492214 0)
(0.0804683 -0.0481731 0)
(-0.0155026 -0.0231942 0)
(0.025352 0.135351 0)
(-0.0279477 -0.0437562 0)
(-0.109609 0.0816952 0)
(-0.0303613 0.0280466 0)
(-0.0775125 -0.0572177 0)
(-0.02372 -0.059503 0)
(-0.116138 -0.106078 0)
(0.175368 0.0608916 0)
(-0.154427 0.0769808 0)
(-0.0907186 -0.07759 0)
(-0.0684027 -0.106313 0)
(0.141701 0.10623 0)
(0.131202 0.179194 0)
(-0.245273 -0.173366 0)
(0.119809 -0.126142 0)
(0.00874456 0.0950829 0)
(-0.0469093 0.00795244 0)
(-0.0342253 -0.0239399 0)
(0.0419396 0.000835638 0)
(0.0060945 0.0355412 0)
(-0.0290344 0.0151619 0)
(0.00411492 0.0022859 0)
(-0.024665 0.0387017 0)
(-0.0215209 0.0550251 0)
(-0.0450606 -0.0700261 0)
(0.0277183 -0.118952 0)
(0.15907 -0.02215 0)
(0.00657672 0.0265495 0)
(-0.0023303 -0.0394832 0)
(-0.00579047 0.0433705 0)
(0.00551557 -0.0389938 0)
(0.00647066 0.0462589 0)
(-0.0496306 0.0642442 0)
(-0.0193277 0.0367972 0)
(0.0128789 -0.0806849 0)
(-0.022971 -0.0848868 0)
(0.00943491 -0.034767 0)
(0.0133888 -0.0948433 0)
(-0.067327 -0.01391 0)
(-0.0333086 0.00013925 0)
(0.0160961 0.0886026 0)
(0.01902 0.021404 0)
(0.0196152 -0.0315668 0)
(0.0244045 -0.0400947 0)
(-0.00656004 0.0245683 0)
(0.079602 -0.00941182 0)
(0.0597669 -0.0312864 0)
(-0.00161551 -0.0499881 0)
(0.0051808 -0.0465236 0)
(-0.0572748 0.126834 0)
(-0.0168893 -0.0281322 0)
(0.0164288 -0.0513002 0)
(0.101314 0.124519 0)
(-0.0186562 0.0295123 0)
(-0.0453987 -0.00264119 0)
(0.0258859 -0.0406966 0)
(-0.141269 0.0510624 0)
(-0.0542299 0.0619529 0)
(0.174987 -0.0514291 0)
(0.193799 -0.0322445 0)
(-0.0625946 0.0483744 0)
(-0.0448959 -0.0356524 0)
(-0.109544 -0.0924888 0)
(-0.0131521 -0.0631925 0)
(-0.0850054 0.113698 0)
(-0.00373719 0.073685 0)
(0.190221 -0.083497 0)
(-0.0929306 0.0446252 0)
(0.0432708 0.0768306 0)
(0.0876526 -0.0602772 0)
(-0.272219 -0.107423 0)
(0.00188632 -0.142319 0)
(-0.0103883 -0.0693697 0)
(-0.123887 0.196447 0)
(0.0251689 0.100905 0)
(0.0131032 -0.116141 0)
(0.0456007 -0.0915147 0)
(0.0104749 0.19354 0)
(-0.0351234 0.0352751 0)
(-0.030372 -0.116416 0)
(-0.0619485 0.0380263 0)
(0.0286769 0.233401 0)
(-0.00513859 0.0231361 0)
(-0.206728 -0.176322 0)
(0.0625794 -0.117052 0)
(0.0579986 0.0624427 0)
(-0.141438 0.172734 0)
(-0.0562242 0.0531841 0)
(0.0202496 -0.117771 0)
(0.104207 -0.0858733 0)
(0.00270274 0.0182722 0)
(-0.0145203 0.0328563 0)
(-0.0365099 -0.0219993 0)
(0.0647262 0.0185475 0)
(0.0113931 -0.233174 0)
(0.00342552 -0.0302253 0)
(0.00410665 0.143565 0)
(0.0409304 0.104049 0)
(-0.0272657 0.0345653 0)
(0.00331094 -0.145656 0)
(0.0782053 0.000274928 0)
(0.0594499 0.046257 0)
(0.0724981 0.0799007 0)
(0.0844026 0.0949127 0)
(0.0532955 -0.0655899 0)
(-0.0330136 -0.160935 0)
(0.0930668 -0.050914 0)
(0.0211527 0.0665006 0)
(-0.0244004 0.156519 0)
(0.00783763 -0.00190112 0)
(-0.0921524 -0.122952 0)
(-0.0283279 -0.00292956 0)
(0.14716 0.117705 0)
(0.02224 -0.0693527 0)
(-0.0488083 -0.0785321 0)
(0.0259226 0.0218361 0)
(-0.0276423 -0.0608695 0)
(0.0182882 0.00673428 0)
(-0.0593874 -0.025434 0)
(0.0161044 -0.0962596 0)
(-0.0368996 0.175315 0)
(0.0194982 0.153576 0)
(-0.0233252 -0.0997981 0)
(0.0860541 -0.0173806 0)
(0.0161688 -0.0979533 0)
(0.0846694 -0.06653 0)
(-0.0154817 0.0149702 0)
(-0.0254442 0.0242142 0)
(0.0150933 -0.0303022 0)
(0.00266325 -0.0470302 0)
(-0.0163451 -0.0217303 0)
(-0.0210539 0.114396 0)
(0.00270419 0.184027 0)
(-0.0416665 -0.0622334 0)
(0.0615438 -0.0475416 0)
(0.00546648 -0.0291281 0)
(0.0106573 -0.0452069 0)
(-0.0823221 -0.0948422 0)
(-0.165291 0.0279731 0)
(-0.0810234 -0.0154768 0)
(-0.0638511 0.0615543 0)
(-0.0146489 -0.0689954 0)
(-0.117749 -0.041447 0)
(-0.028835 0.09833 0)
(-0.00880321 -0.101952 0)
(0.0857279 -0.0370429 0)
(0.045587 0.0191221 0)
(-0.0209843 -0.0731733 0)
(-0.0257876 -0.132079 0)
(-0.0210226 0.0254333 0)
(-0.0212771 0.0816026 0)
(0.00845591 -0.047749 0)
(-0.0137057 0.0944016 0)
(-0.0353155 0.152169 0)
(-0.0826632 0.0272662 0)
(-0.103768 0.123371 0)
(0.0485747 0.128725 0)
(-0.0917538 -0.169696 0)
(0.0648859 -0.217864 0)
(-0.0299937 0.0914996 0)
(0.00210401 0.175659 0)
(0.00815861 -0.0104402 0)
(0.0493862 -0.137671 0)
(-0.00764167 0.00345771 0)
(-0.0610948 0.0656417 0)
(0.00467144 -0.134374 0)
(0.110699 0.096757 0)
(-0.0959463 0.178759 0)
(-0.0412556 -0.0758692 0)
(0.0298822 -0.0280042 0)
(0.00901411 -0.0928861 0)
(-0.00564617 -0.152906 0)
(0.00037396 0.0833592 0)
(-0.0995669 0.168964 0)
(0.08826 -0.0460615 0)
(-0.0252431 -0.136015 0)
(-0.0396714 0.0707331 0)
(-0.145765 0.26378 0)
(-0.0779265 -0.0348432 0)
(-0.164475 -0.21328 0)
(0.0270476 -0.0118845 0)
(-0.00953842 0.0655898 0)
(0.0119987 0.128211 0)
(-0.134496 0.0130035 0)
(-0.0489038 -0.172753 0)
(0.0140053 -0.0292305 0)
(-0.0179935 0.238859 0)
(0.0310492 -0.0996072 0)
(0.00610753 -0.184662 0)
(0.0401611 0.0365449 0)
(-0.0751738 0.178661 0)
(0.0105984 -0.0334122 0)
(0.00450584 -0.0838198 0)
(-0.00235111 0.0779352 0)
(-0.154699 -0.0780905 0)
(-0.0748963 -0.147949 0)
(-0.0155206 0.0784123 0)
(0.0697861 0.0205104 0)
(0.123197 -0.048929 0)
(-0.0480462 0.0893608 0)
(0.0392041 -0.0246461 0)
(-0.0169715 -0.103782 0)
(-0.0114842 0.0279517 0)
(-0.0395799 0.106926 0)
(0.0874942 0.0863023 0)
(0.0181144 -0.0961195 0)
(-0.12173 -0.149105 0)
(-0.0312744 -0.0303421 0)
(0.144119 0.173252 0)
(0.00942943 0.0824396 0)
(0.0258193 0.00595819 0)
(-0.0111438 -0.0652296 0)
(0.263193 -0.0833445 0)
(0.0543516 0.0581081 0)
(0.203646 0.000813311 0)
(0.0675943 -0.051321 0)
(-0.0180273 0.0233102 0)
(-0.0425637 -0.0498739 0)
(-0.0123315 -0.0359747 0)
(-0.085025 -0.019083 0)
(-0.0713536 0.0680817 0)
(0.289208 0.0875997 0)
(0.0253506 0.0218844 0)
(-0.0230005 0.0434037 0)
(-0.0321207 -0.165229 0)
(-0.00533346 -0.123412 0)
(0.0262502 0.0687111 0)
(-0.0191152 0.054454 0)
(0.00218536 0.0136176 0)
(0.0039972 -0.0332357 0)
(-0.00904584 0.0307508 0)
(0.00248397 0.00375975 0)
(0.077708 0.0375737 0)
(0.0268474 0.00774291 0)
(-0.0627083 -0.0188759 0)
(-0.0410524 0.0144618 0)
(0.0643458 -0.106123 0)
(-0.0215968 0.0765324 0)
(0.0403558 -0.0406729 0)
(-0.00511839 -0.0641273 0)
(0.0348755 0.0456689 0)
(-0.102188 0.0684888 0)
(-0.0551343 -0.0133495 0)
(-0.056016 0.0197633 0)
(0.0508753 -0.110061 0)
(0.0479258 0.0118284 0)
(0.0900053 0.0418524 0)
(-0.0583453 -0.11405 0)
(-0.0496497 -0.100919 0)
(0.152287 0.126449 0)
(0.00952893 0.168949 0)
(0.058577 -0.0948976 0)
(-0.045311 -0.040908 0)
(-0.118651 0.1244 0)
(0.114132 -0.0244619 0)
(-0.0973407 -0.0177348 0)
(-0.0386266 0.13035 0)
(0.081341 0.0367224 0)
(0.0202471 -0.172769 0)
(-0.0395584 -0.00815583 0)
(-0.0281184 0.122757 0)
(0.0179423 -0.0163641 0)
(0.00143878 -0.132643 0)
(-0.126688 0.0382244 0)
(0.0138619 0.0938244 0)
(-0.0463275 -0.0803986 0)
(-0.125251 0.0248687 0)
(-0.032084 0.0698888 0)
(0.0863987 -0.00796049 0)
(0.0724695 -0.0513012 0)
(-0.0385855 -0.0609853 0)
(-0.190927 -0.0274917 0)
(0.00176528 -0.0443964 0)
(0.0119985 0.0433369 0)
(0.173776 0.0953835 0)
(-0.146968 -0.0962135 0)
(-0.0188782 0.0385071 0)
(0.127181 0.0982825 0)
(0.0577076 0.0724571 0)
(-0.132456 -0.0655798 0)
(0.0124468 -0.125619 0)
(0.0521324 0.123712 0)
(-0.0584555 0.102584 0)
(-0.0132239 0.0115422 0)
(0.000289138 -0.124297 0)
(-0.00992182 -0.0323417 0)
(0.123506 0.183428 0)
(-0.0783166 -0.121576 0)
(-0.193875 -0.0553666 0)
(0.0165 0.0161445 0)
(-0.0797301 -0.00637688 0)
(0.158076 -0.108777 0)
(0.0358437 -0.0410786 0)
(0.0660379 0.0743402 0)
(0.0882124 -0.0735803 0)
(-0.107308 -0.0432898 0)
(-0.0280641 0.0165209 0)
(0.0186149 0.0424431 0)
(-0.0981692 -0.0471384 0)
(-0.129826 -0.00779287 0)
(0.163918 0.000367608 0)
(-0.0647192 0.0424552 0)
(-0.0652609 0.104682 0)
(-0.206166 0.0110152 0)
(-0.0241219 -0.061446 0)
(0.0757055 -0.0172828 0)
(-0.0302226 -0.0729971 0)
(-0.055156 -0.0197641 0)
(-0.0726017 0.0295659 0)
(-0.0559421 0.0294069 0)
(0.005705 0.0204373 0)
(-0.00505601 -0.128224 0)
(0.0481906 -0.0661848 0)
(0.0886759 0.0639352 0)
(-0.0859687 -0.0213682 0)
(0.0497125 0.0158721 0)
(0.013358 0.132071 0)
(0.0233934 -0.0297319 0)
(-0.0607042 -0.0573593 0)
(-0.0293888 0.0139909 0)
(-0.00305222 -0.0784953 0)
(0.0583506 0.0478827 0)
(0.00330377 0.118073 0)
(0.095383 0.0787969 0)
(-0.093395 -0.05548 0)
(-0.0191149 -0.141678 0)
(-0.0252401 0.00804881 0)
(-0.0273323 0.0332687 0)
(0.0186666 0.0213004 0)
(0.00881299 -0.0121379 0)
(-0.0188748 -0.0505712 0)
(0.0696058 0.0176349 0)
(0.0161273 0.0770619 0)
(-0.00725045 0.0426863 0)
(-0.0379582 0.0273779 0)
(0.116076 -0.156159 0)
(-0.0255244 -0.0708152 0)
(-0.0109203 0.020733 0)
(0.104457 0.0455043 0)
(0.0420276 0.0551976 0)
(-0.27822 0.0164925 0)
(-0.0602499 -0.00423046 0)
(0.0363394 -0.00399685 0)
(-0.0429233 -0.0694645 0)
(-0.0249457 -0.0346669 0)
(0.229938 0.116746 0)
(0.0111944 0.100696 0)
(-0.0885502 -0.0519093 0)
(-0.0420454 -0.14516 0)
(-0.186266 0.0563974 0)
(0.0405503 0.0809736 0)
(0.0848951 -0.0328859 0)
(-0.10574 -0.0558033 0)
(0.0897273 0.0562754 0)
(0.105457 0.106359 0)
(-0.426864 0.0435777 0)
(-0.00223108 -0.0365999 0)
(0.030242 -0.215171 0)
(-0.0764311 -0.0825389 0)
(0.0925866 0.156063 0)
(0.0399956 0.0990084 0)
(0.00513465 -0.0528343 0)
(0.0401058 0.10355 0)
(-0.0485721 0.0834389 0)
(-0.0102149 -0.00441603 0)
(0.00148069 -0.0941922 0)
(-0.00880275 -0.034669 0)
(-0.0068081 0.0263396 0)
(0.103465 -0.156368 0)
(-0.0784585 0.0258988 0)
(-0.0105515 0.0919905 0)
(-0.00744297 -0.0226641 0)
(0.00093231 -0.0949479 0)
(-0.253525 0.0481571 0)
(0.013854 1.22243e-05 0)
(0.144558 -0.107595 0)
(-0.0513174 0.0472773 0)
(0.0351369 0.129797 0)
(0.00703943 -0.0416406 0)
(0.0724408 -0.0271469 0)
(-0.0900074 -0.100178 0)
(-0.0153468 0.0331505 0)
(0.0527378 0.203243 0)
(-0.03208 -0.0238155 0)
(0.0392377 -0.185402 0)
(0.0147618 0.0105974 0)
(0.00958451 0.227376 0)
(0.043862 -0.0237598 0)
(0.0523837 -0.158423 0)
(0.0312377 0.0576186 0)
(0.121561 0.0569753 0)
(-0.0987278 -0.0435364 0)
(-0.061134 -0.00767681 0)
(0.0668228 -0.0248417 0)
(-0.165236 -0.0293498 0)
(-0.2224 0.0222662 0)
(-0.0646801 -0.0738827 0)
(-0.0315593 -0.0384646 0)
(0.0953028 0.120879 0)
(0.140042 0.0111409 0)
(-0.299543 -0.0904244 0)
(-0.17316 0.0758992 0)
(-0.00283809 0.0863728 0)
(-0.0308823 -0.0736139 0)
(0.124621 -0.101655 0)
(0.0228212 -0.0339956 0)
(0.106301 0.0187303 0)
(0.0647145 0.0374776 0)
(0.128716 -0.00935754 0)
(0.117462 0.062404 0)
(-0.0377657 -0.0326948 0)
(0.0299933 -0.193785 0)
(-0.0738694 0.0342563 0)
(0.133266 0.121926 0)
(-0.100783 -0.0222139 0)
(-0.0154143 -0.0120238 0)
(-0.0420087 -0.0143968 0)
(-0.0165108 0.0784856 0)
(-0.0753484 0.140706 0)
(-0.0414437 -0.215233 0)
(-0.00767702 -0.0449221 0)
(0.000351005 0.143836 0)
(-0.0374257 0.018636 0)
(-0.0214031 -0.047311 0)
(-0.0811075 -0.0145157 0)
(0.0293519 -0.134274 0)
(-0.0200315 0.0773065 0)
(-0.0353787 0.0344581 0)
(-0.00018983 0.00262209 0)
(-0.00237457 -0.0443172 0)
(-0.00049802 0.0437751 0)
(-0.00347927 0.0984098 0)
(0.000342471 -0.036738 0)
(-0.00622231 -0.0146594 0)
(-0.00247546 -0.0149131 0)
(0.00593321 -0.138559 0)
(0.00505272 0.102753 0)
(-0.000964102 0.0306605 0)
(0.00399254 0.0105755 0)
(-0.0358354 0.165785 0)
(-0.0204736 -0.153819 0)
(0.0157582 -0.2073 0)
(-0.00510042 0.142631 0)
(0.00171312 -0.0905242 0)
(-0.00898293 -0.147894 0)
(0.00726404 0.180047 0)
(0.00666713 0.189502 0)
(0.112731 0.10947 0)
(-0.0121138 -0.0501441 0)
(-0.0928877 -0.17607 0)
(-0.106779 -0.0177062 0)
(-0.260974 0.00215316 0)
(-0.0737203 -0.10393 0)
(0.0980396 0.0918912 0)
(0.0241514 0.337296 0)
(0.0164719 0.157322 0)
(-0.00186368 -0.10814 0)
(-0.00972742 -0.279702 0)
(-0.00109766 -0.226677 0)
(-0.00997586 0.186128 0)
(0.019764 0.133371 0)
(-0.0314074 -0.174958 0)
(-0.0594314 0.0306925 0)
(0.140464 0.195224 0)
(0.0332855 -0.0081387 0)
(0.0682508 -0.139339 0)
(-0.080379 -0.0505612 0)
(-0.0662937 0.0980396 0)
(-0.0274627 0.0442211 0)
(-0.0950517 -0.0245568 0)
(0.16599 -0.0189395 0)
(0.121159 -0.0660329 0)
(-0.0213434 0.148345 0)
(-0.0729138 0.0244716 0)
(0.0025401 -0.128948 0)
(0.0035886 -0.0613081 0)
(0.0970546 0.0923033 0)
(0.162437 0.17537 0)
(0.14796 0.0172085 0)
(0.0301228 -0.168069 0)
(0.0331548 -0.0679361 0)
(0.0106362 0.0195055 0)
(0.0903663 0.14294 0)
(0.100913 -0.0712518 0)
(-0.064361 -0.0825398 0)
(-0.0256785 0.0452004 0)
(0.036823 0.0434144 0)
(-0.000117559 0.0490056 0)
(-0.0323649 -0.0831105 0)
(0.0184994 0.0246745 0)
(0.0035624 0.0495367 0)
(-0.0181708 -0.0461902 0)
(-0.0402505 -0.0392347 0)
(-0.00753341 0.120003 0)
(0.0541517 0.103778 0)
(-0.0147745 -0.116429 0)
(-0.0950919 -0.0476799 0)
(0.0346852 -0.0950762 0)
(0.0589299 -0.00426966 0)
(0.165476 0.208396 0)
(0.144437 0.0945204 0)
(-0.101438 -0.0161344 0)
(0.0398946 -0.215112 0)
(0.170763 -0.150124 0)
(0.127698 0.0464289 0)
(-0.139327 0.199538 0)
(-0.0655668 0.0238985 0)
(-0.025238 -0.130637 0)
(-0.0596549 -0.0431245 0)
(-0.037204 0.155711 0)
(0.0107209 0.0130715 0)
(-0.0575321 -0.075421 0)
(-0.0549479 -0.0978113 0)
(0.007518 0.0911978 0)
(0.0065422 -0.0326457 0)
(-0.0204278 0.0267237 0)
(0.030649 -0.0188112 0)
(0.00692085 0.0322929 0)
(-0.092102 0.148661 0)
(0.0114873 -0.110329 0)
(0.0529794 -0.169251 0)
(0.0147326 0.0313522 0)
(0.0136497 0.133837 0)
(0.0578649 0.0439545 0)
(0.0116214 0.0119358 0)
(-0.0135045 -0.0707983 0)
(0.00461902 -0.0438209 0)
(-0.00565523 0.00474603 0)
(0.00148147 0.0203316 0)
(-0.00448897 0.0320655 0)
(-0.00202198 -0.0422699 0)
(-0.0052542 0.00407786 0)
(-0.000693175 0.102492 0)
(-0.00394161 0.074276 0)
(-0.0109625 -0.275553 0)
(0.210471 -0.073857 0)
(0.00488202 0.0464153 0)
(-0.00871456 0.0890049 0)
(0.0110727 0.0674441 0)
(-0.0115968 -0.0102881 0)
(0.00794102 -0.269729 0)
(-0.00570781 0.0406622 0)
(0.00764133 0.150988 0)
(-0.00677592 0.0266528 0)
(0.0160493 -0.0854909 0)
(0.017228 0.0245553 0)
(0.00833627 0.0819996 0)
(0.104953 -0.092083 0)
(0.108837 0.0508785 0)
(0.256502 0.149954 0)
(0.025302 0.00195711 0)
(0.0347944 -0.0824907 0)
(-0.028531 -0.0940045 0)
(0.00847144 -0.0431243 0)
(0.0589508 0.0606852 0)
(0.0428261 0.146996 0)
(0.119186 -0.0238232 0)
(0.147468 -0.0716955 0)
(-0.198633 -0.0355608 0)
(-0.0666724 -0.0119094 0)
(0.171732 0.00636855 0)
(0.380688 -0.0800588 0)
(-0.129808 0.122083 0)
(-0.117618 -0.0239108 0)
(0.0748103 -0.0201069 0)
(-0.000134774 0.0580529 0)
(-0.0648841 0.00286293 0)
(-0.0721507 0.047337 0)
(-0.000620615 0.00363666 0)
(-0.0333838 -0.216412 0)
(0.00456221 -0.0695853 0)
(-0.0548374 0.172343 0)
(-0.0826386 0.100943 0)
(0.0223311 -0.0418637 0)
(-0.0503071 -0.0232558 0)
(0.0481684 -0.106047 0)
(-0.0229092 0.0505903 0)
(0.00475464 0.0864479 0)
(0.0704658 0.132777 0)
(0.0570982 -0.156142 0)
(-0.0188321 -0.105422 0)
(-0.0242105 0.12397 0)
(0.0455457 0.0410493 0)
(0.0376979 0.0118243 0)
(-0.0649797 0.028635 0)
(-0.0212341 0.0261149 0)
(-0.0395941 0.119987 0)
(-0.0177156 0.00332588 0)
(0.00267258 -0.161588 0)
(0.000816595 -0.11378 0)
(-0.0142977 0.0389461 0)
(0.0225771 0.0544506 0)
(-0.032156 0.0386114 0)
(0.0354676 -0.0951174 0)
(0.0130323 0.0103099 0)
(-0.0836105 0.0642234 0)
(0.00658768 -0.0209162 0)
(0.049052 -0.0284201 0)
(-0.0218175 0.0136826 0)
(-0.0327997 0.0381691 0)
(0.0604057 -0.0174631 0)
(0.0758986 0.13249 0)
(0.0592207 -0.0962194 0)
(-0.0704501 -0.104748 0)
(-0.18549 0.0609698 0)
(-0.0553539 -3.15188e-05 0)
(0.0911708 0.0284481 0)
(0.0203073 -0.00318901 0)
(-0.094665 0.0285581 0)