/*--------------------------------*- C++ -*----------------------------------*\
| =========                 |                                                 |
| \\      /  F ield         | OpenFOAM: The Open Source CFD Toolbox           |
|  \\    /   O peration     | Version:  v2012                                 |
|   \\  /    A nd           | Website:  www.openfoam.com                      |
|    \\/     M anipulation  |                                                 |
\*---------------------------------------------------------------------------*/
FoamFile
{
    version     2.0;
    format      ascii;
    class       volScalarField;
    location    "0";
    object      p;
}
// * * * * * * * * * * * * * * * * * * * * * * * * * * * * * * * * * * * * * //

dimensions      [0 2 -2 0 0 0 0];


internalField   nonuniform List<scalar> 
4000
(
-0.00751678
-0.0568012
-0.0189488
-0.0460526
-0.0915033
-0.0979223
-0.169437
-0.23887
-0.29723
-0.359944
-0.310639
-0.238365
-0.19992
-0.12321
-0.117326
-0.185527
-0.174911
-0.0330406
0.154637
0.203969
0.197664
0.22542
0.356452
0.318637
0.284396
0.334444
0.294879
0.255854
0.253094
0.244378
0.221624
0.214154
0.114676
0.0923955
0.0958676
0.164097
0.118737
-0.0545891
-0.159997
-0.204966
-0.196711
-0.141978
0.0874079
0.0689882
0.116558
0.0696637
-0.0124473
-0.017921
-0.0381793
0.0130789
-0.0322846
0.0198467
0.0910308
0.0774446
0.00945059
-0.0785145
-0.130644
-0.0966771
-0.132032
-0.0802737
-0.114783
-0.0491647
-0.0199152
-0.0998956
-0.105931
-0.106545
-0.0031192
0.110699
0.135727
0.23717
0.157577
0.0990027
0.144096
0.0741117
0.0987953
0.127775
0.120193
0.0336451
-0.00602947
-0.107449
-0.292142
-0.274741
-0.127001
-0.145575
-0.197512
-0.129817
-0.112022
-0.187168
-0.103619
-0.0667209
0.0113224
0.0500242
0.0842223
-0.00548191
0.0353518
0.0235189
0.00571261
-0.0468226
-0.0276396
-0.0242823
-0.0367571
-0.0540099
-0.0416221
0.00588193
-0.0908379
-0.163811
-0.161068
-0.227897
-0.309467
-0.320702
-0.314276
-0.266786
-0.217633
-0.131211
-0.13984
-0.14835
-0.108324
-0.0611091
0.108388
0.200077
0.232527
0.206405
0.316426
0.31688
0.285178
0.314375
0.273609
0.290656
0.281533
0.274364
0.237436
0.243689
0.145057
0.0504933
0.059437
0.126001
0.0351306
0.00521171
-0.085616
-0.193247
-0.208336
-0.123296
0.0560406
0.0720885
0.106555
0.0371606
-0.0193829
-0.0648832
-0.0667694
0.0229258
0.00833055
0.0208965
0.0791363
0.0971016
-0.0223095
-0.0995822
-0.090932
-0.0823385
-0.0643902
-0.0521743
-0.10384
-0.102376
-0.0796847
-0.100676
-0.0976111
-0.0545537
0.00783898
0.0885101
0.139096
0.227073
0.159693
0.134447
0.15984
0.151215
0.0900711
0.0763838
0.0957061
0.0322087
-0.0731359
-0.13064
-0.237029
-0.235657
-0.154692
-0.154544
-0.15085
-0.165443
-0.213786
-0.172127
-0.120277
-0.0239452
0.0323439
0.0374312
0.073401
0.0254561
0.0656154
0.0502178
-0.0148682
-0.0484529
-0.0301378
-0.0305114
-0.0337646
-0.0483325
-0.0234669
0.0420827
-0.0585901
-0.204599
-0.185584
-0.254962
-0.274639
-0.334072
-0.277585
-0.237349
-0.172495
-0.169831
-0.18751
-0.143529
-0.0925738
-0.0177332
0.138335
0.23996
0.231381
0.234722
0.267519
0.324704
0.267005
0.276508
0.309206
0.258896
0.204368
0.234451
0.246408
0.228098
0.164246
0.0985769
0.094744
0.0914921
0.0175977
0.00199456
-0.10974
-0.176928
-0.22284
-0.155749
0.0506995
0.0846615
0.0665152
-0.00491735
-0.0593348
-0.0684958
0.00984429
0.106906
0.028062
0.0527665
0.032458
0.0745139
0.016999
-0.0782192
-0.0943202
-0.0527995
-0.0658419
-0.0196582
-0.130559
-0.130573
-0.0882262
-0.0873994
-0.088079
-0.0365225
0.0621142
0.0778414
0.159985
0.147717
0.145409
0.12914
0.17588
0.117338
0.135017
0.0425785
0.0927681
0.0250134
-0.0864677
-0.132251
-0.183641
-0.187913
-0.183921
-0.202847
-0.151675
-0.162398
-0.191333
-0.186638
-0.127426
-0.0650453
-0.0186299
0.062337
0.0151268
0.0377514
0.0820373
0.0135531
0.0141816
-0.0439273
-0.0640842
-0.0491636
-0.0299152
-0.0139055
-0.028194
-0.0903874
-0.0248551
-0.195114
-0.21251
-0.209105
-0.204145
-0.340138
-0.309398
-0.299914
-0.219853
-0.20567
-0.112521
-0.11773
-0.0818568
0.00180216
0.10338
0.225719
0.265874
0.260668
0.208328
0.21002
0.222449
0.279061
0.258438
0.304488
0.247747
0.275435
0.223189
0.197228
0.159681
0.101943
0.0726159
0.0188289
-0.0594185
-0.0552568
-0.106454
-0.1373
-0.217286
-0.1246
-0.0195038
0.0389591
0.0854699
0.0388082
-0.120048
-0.0779594
-0.0149522
0.0460152
0.0658566
0.0876904
0.054487
0.103714
0.00695792
-0.00868528
-0.0657946
-0.0906176
-0.0809721
0.00332934
-0.0824157
-0.102158
-0.0959138
-0.0626739
-0.030823
-0.00879686
0.0404012
0.0700832
0.120379
0.115828
0.170905
0.16111
0.210308
0.0995063
0.147763
0.0232831
0.0509162
0.0611897
-0.0494667
-0.112696
-0.21395
-0.223308
-0.184633
-0.171028
-0.1714
-0.219743
-0.194165
-0.207028
-0.164019
-0.082805
0.0358068
0.0754729
0.0397228
0.0290472
0.0227136
-0.00492033
0.0110569
-0.0850702
-0.0303185
-0.0476088
0.0454275
0.0420519
0.00080186
-0.0160514
-0.137599
-0.182346
-0.132848
-0.195845
-0.298294
-0.299863
-0.343885
-0.260882
-0.269002
-0.218311
-0.138666
-0.144539
-0.0406538
0.0605678
0.151629
0.169517
0.266831
0.246923
0.204183
0.234301
0.202831
0.259282
0.169698
0.206948
0.248351
0.286786
0.236108
0.16396
0.188686
0.106694
0.0611718
-0.0122328
-0.046202
-0.0313786
-0.114206
-0.181894
-0.241332
-0.165819
-0.0913112
-0.0192376
0.0630509
0.0530331
-0.0887056
-0.0336999
0.0210114
0.0736604
0.127413
0.100022
0.066669
0.0461057
-0.0488409
0.00659702
-0.0225526
-0.079279
-0.0283534
-0.02099
-0.0269898
-0.0555294
-0.090941
-0.074627
-0.0462487
-0.0147017
0.0610166
0.103694
0.0763983
0.062405
0.113803
0.217571
0.197678
0.0893769
0.0584818
-0.0316719
0.0744322
0.0565228
0.0210502
-0.0749184
-0.123696
-0.177511
-0.240274
-0.241353
-0.211913
-0.252215
-0.172945
-0.154465
-0.173583
-0.0724297
-0.0216725
0.0391769
0.00705769
0.0092183
0.0262034
0.0201278
-0.0543437
-0.0340151
0.0301076
-0.0310547
0.0187368
0.0539838
0.0052659
-0.0778365
-0.0657507
-0.122002
-0.168096
-0.159891
-0.273575
-0.313901
-0.311308
-0.308637
-0.21317
-0.203169
-0.200038
-0.144972
-0.0898755
0.0450956
0.170586
0.236732
0.199327
0.166746
0.193811
0.208922
0.211087
0.239046
0.186947
0.246178
0.260221
0.303776
0.201327
0.0592603
0.0938181
0.101902
0.0641468
0.0200848
-0.0316338
-0.089222
-0.174963
-0.185456
-0.230598
-0.123517
-0.0685642
-0.00146113
-0.00140659
-0.0363934
-0.0669494
-0.0168059
0.0341883
0.164344
0.164325
0.0952555
0.0782889
0.0302014
0.0237109
0.0189437
0.0404446
-0.00583241
-0.0385906
-0.0285182
-0.0792379
-0.0600089
-0.0559886
-0.0724666
-0.106974
-0.0579809
0.0639372
0.135021
0.036762
0.0521577
0.129472
0.163851
0.116358
0.133328
0.130147
0.0374482
0.0554053
0.0324758
-0.0105005
-0.0684405
-0.104281
-0.193151
-0.231827
-0.227966
-0.256572
-0.212715
-0.134609
-0.160602
-0.203023
-0.133219
-0.00364836
0.0240838
-0.0152027
0.0137249
0.0239415
0.0402985
-0.0331752
-0.0412503
-0.0209006
-0.0133309
0.0786084
0.0444657
0.0534614
0.00469601
-0.0686276
-0.0905055
-0.137068
-0.191404
-0.197335
-0.293165
-0.282992
-0.309564
-0.235097
-0.241303
-0.206713
-0.0467343
0.033761
0.145541
0.114958
0.0475993
0.0837014
0.0666494
0.233407
0.264449
0.237039
0.149592
0.192127
0.225363
0.301561
0.246528
0.114025
0.113929
0.0250973
-0.0471869
0.0622018
0.0433543
-0.0493724
-0.0684594
-0.141142
-0.188448
-0.258551
-0.211396
-0.078055
0.0218876
0.00481965
0.00942974
-0.01114
-0.0944463
0.0221102
0.197994
0.247272
0.112935
0.078968
0.0623292
0.0229171
0.032931
-0.00908042
-0.00695608
-0.0347339
-0.00173653
-0.027292
-0.0102539
-0.0297351
-0.189045
-0.138897
-0.0759317
0.0154858
0.114017
0.0790998
0.0868762
0.153746
0.152105
0.118368
0.157848
0.101278
-0.0127161
0.0348944
0.010816
-0.00635687
-0.103648
-0.157244
-0.134345
-0.20608
-0.233656
-0.186162
-0.20178
-0.166237
-0.144626
-0.162865
-0.0935994
-0.0503722
0.000924869
0.0198505
-0.00680542
0.00419572
0.0514121
0.031053
-0.0375835
-0.0149579
-0.00346554
0.054527
-0.00694303
0.0541196
0.0854136
0.0390972
-0.0585686
-0.126396
-0.154252
-0.182511
-0.271175
-0.231502
-0.292684
-0.221158
-0.272251
-0.186502
-0.0768987
-0.0115512
0.0887409
0.0380638
0.111835
0.199076
0.161492
0.238973
0.11438
0.017555
0.13541
0.174826
0.258536
0.22888
0.159911
0.130347
0.079103
0.00171851
-0.00272383
-0.000257015
0.0116873
-0.0910959
-0.159508
-0.133608
-0.156056
-0.201988
-0.187886
-0.151373
-0.00514937
0.0239952
0.00934673
-0.0258581
-0.0261507
0.0940152
0.225638
0.191071
0.0869609
0.0939539
0.0788785
0.054353
0.0703792
0.0594874
-0.0456271
-0.0231117
-0.00336998
-0.0502799
-0.0532665
-0.0526781
-0.137744
-0.107371
-0.0821095
-0.00958702
0.0847716
0.0992065
0.0995449
0.139655
0.174965
0.0960741
0.0731282
0.0817863
-0.0114407
0.00413298
-0.0443019
-0.0145845
-0.0422344
-0.0751911
-0.156834
-0.22209
-0.190436
-0.202793
-0.181445
-0.16423
-0.112397
-0.10261
-0.0906656
-0.0596214
0.00629993
0.0877243
0.050558
0.0147402
0.0154214
0.0225913
0.0132178
0.0144439
-0.0059588
0.139881
0.134132
0.0750882
0.0384869
0.0215837
0.0426866
-0.0312718
-0.147425
-0.210496
-0.221668
-0.187039
-0.184692
-0.292797
-0.283015
-0.144081
-0.113239
-0.0398209
0.0915981
0.074704
0.0888985
0.119493
0.0823157
0.15741
0.228081
0.172136
0.095053
0.140099
0.158781
0.0895177
0.068515
0.0987687
0.0351718
0.0213138
0.014058
-0.0365862
-0.137122
-0.0806641
-0.139279
-0.212287
-0.195398
-0.191125
-0.136179
-0.0158807
-0.002062
-0.0400913
-0.00357143
0.0301283
0.00358367
0.102215
0.149171
0.138114
0.0987994
0.10137
0.0792743
0.060282
0.0647931
0.0586576
-0.0199141
0.0107771
-0.00581906
-0.0619259
-0.0894164
-0.0869783
-0.153743
-0.085045
-0.106209
-0.0205177
0.0808472
0.103748
0.110371
0.107972
0.18291
0.123113
0.0674377
0.0916339
0.0280623
-0.00339123
-0.0155565
0.00249272
-0.0267758
-0.0795009
-0.149807
-0.212918
-0.201125
-0.100267
-0.150345
-0.196823
-0.148502
-0.0297265
-0.00281015
0.0033549
0.0432574
0.0133946
0.0493281
0.0237709
0.059515
0.0663347
-0.0456277
-0.0478178
-0.00421122
0.138316
0.134559
0.109882
0.128254
0.0666833
0.0271967
0.0615457
-0.0170563
-0.165849
-0.171092
-0.238848
-0.245998
-0.281362
-0.257243
-0.119994
-0.115091
-0.0800162
0.0295916
0.0933084
0.138764
0.15861
0.0535433
0.0498367
0.0778285
0.103376
0.142799
0.210092
0.138409
0.0595171
0.0607471
-0.00597391
-0.00371723
-0.00629545
-0.00216267
-0.118305
-0.127284
-0.103515
-0.215028
-0.159979
-0.147563
-0.180705
-0.207937
-0.083839
-0.0706767
-0.0536741
-0.00582871
0.0241335
0.0936572
0.0805625
0.153542
0.108128
0.106946
0.151152
0.0977254
0.0729509
0.0153703
0.0113357
0.0116154
-0.0292037
-0.0238678
-0.0253646
-0.0524995
-0.0394522
-0.138302
-0.110553
-0.149848
-0.116418
-0.00689265
0.0907016
0.106439
0.116232
0.218837
0.171742
0.150563
0.067924
-0.0536872
-0.0360108
-0.0495357
0.0148867
0.00303328
-0.0174699
-0.158248
-0.158297
-0.156599
-0.149478
-0.211052
-0.129178
-0.0934267
-0.0322191
0.023564
0.0738222
0.0359572
0.00259522
0.0356073
0.0125533
0.0234072
0.0516548
-0.0159786
-0.0313099
0.00206779
0.129041
0.157251
0.126686
0.193886
0.137587
0.0983281
-0.0341817
-0.055899
-0.140163
-0.087391
-0.168163
-0.227964
-0.249691
-0.193971
-0.05089
-0.116701
-0.153766
-0.00572459
0.0273206
0.0617481
0.2038
0.0768298
-0.0102682
0.0559491
0.154163
0.112301
0.119741
0.0632416
0.0310923
0.0570303
0.0136633
-0.0618665
-0.0705521
0.0159471
-0.0838703
-0.157629
-0.134441
-0.171353
-0.093004
-0.180653
-0.221762
-0.226874
-0.0518018
-0.0686864
-0.0204196
0.0134035
0.0128931
0.0740128
0.114563
0.145926
0.186046
0.113656
0.163466
0.0481585
0.0239083
0.0638386
0.0579935
0.0266615
-0.0180663
-0.0631446
-0.0902424
-0.109389
-0.090358
-0.164129
-0.154165
-0.117315
-0.111725
-0.0212905
0.057342
0.148877
0.205873
0.173036
0.110254
0.129942
0.0608731
-0.00389248
-0.012201
0.0634963
-0.00235332
0.014594
-0.0645325
-0.115609
-0.0978642
-0.083869
-0.152073
-0.189045
-0.108772
-0.0862558
-0.00833487
0.0337394
0.102564
0.0605984
0.0134769
0.0331513
0.0453288
0.0399795
0.000934072
-0.126043
-0.078193
-0.0542919
0.181647
0.185488
0.162621
0.234444
0.166557
0.0341983
0.08982
0.0718217
-0.0797587
-0.107949
-0.127923
-0.191413
-0.242617
-0.231528
-0.212336
-0.157025
-0.0930133
0.02511
0.105343
0.083356
0.111696
0.0446504
-0.0565872
0.0474682
0.106186
0.0333408
0.104246
0.101548
0.0532467
0.0174313
0.071549
-0.00859539
-0.17334
-0.0691926
-0.10645
-0.197786
-0.168478
-0.120714
-0.103283
-0.187484
-0.200027
-0.236554
-0.136113
-0.0638377
-0.0744968
0.0292675
0.1059
0.148571
0.14413
0.121603
0.148363
0.135307
0.188248
0.0729627
0.0835683
0.0403258
-0.0285041
-0.0312971
-0.0328545
-0.0535262
-0.107978
-0.0218427
-0.0578059
-0.169157
-0.148807
-0.124899
-0.118596
-0.014991
0.00859603
0.0579241
0.0740909
0.191201
0.209203
0.196035
0.0435791
-0.0140272
-0.0485405
0.0601368
-0.0258753
-0.0568186
0.00844391
-0.0744569
-0.05499
-0.100411
-0.0905554
-0.151058
-0.110203
-0.036497
0.041268
0.0413757
0.0731786
0.0745098
0.00269361
0.0203082
0.00634549
0.00978011
-0.0305727
-0.0398313
-0.0405689
-0.0481061
0.253389
0.216502
0.168195
0.238304
0.201273
0.116254
0.0219444
0.0364594
-0.0527572
-0.0580268
-0.139674
-0.143423
-0.186666
-0.186799
-0.141185
-0.061275
-0.0723044
-0.062795
0.0651532
-0.00353338
-0.0349041
-0.0377605
-0.00449257
0.0442527
0.109965
0.122591
0.0890808
0.0356128
0.0173483
0.0313062
0.0590382
-0.0410925
-0.0903016
-0.0754074
-0.0596353
-0.176452
-0.182619
-0.177414
-0.144312
-0.20928
-0.25874
-0.167417
-0.0982066
-0.0381413
-0.0700113
0.0461056
0.113964
0.0987018
0.120557
0.21089
0.22358
0.20231
0.183885
0.0526964
0.129421
0.162045
-0.0332348
-0.0838184
-0.105162
-0.12064
-0.158691
-0.0880683
-0.0339147
-0.130233
-0.138752
-0.154504
-0.0613745
-0.0435653
-0.0564388
0.0457335
0.145299
0.236122
0.209527
0.133656
0.0376057
0.0251868
-0.0705918
0.0636047
-0.0294438
-0.078926
0.00380325
0.00696925
-0.0499806
-0.118486
-0.0899584
-0.106144
-0.0905266
-0.0848718
0.0218944
0.0946185
0.0494452
0.0836005
0.0330216
-0.0212355
0.00809562
0.00516488
-0.0373112
-0.0358331
-0.0243354
-0.0459908
0.262572
0.291905
0.267197
0.223887
0.176802
0.16979
0.0650367
0.0652513
0.00546127
-0.0472135
-0.150105
-0.206322
-0.150329
-0.0860766
-0.169761
-0.12066
-0.118719
-0.0833879
0.0415446
0.00928687
-0.0456159
0.0995122
-0.0347582
-0.021669
0.0136798
0.0564493
0.107263
0.0605399
0.0305179
0.0858478
0.0872023
-0.00514219
-0.192936
-0.16479
-0.152984
-0.110075
-0.17344
-0.125432
-0.14476
-0.19668
-0.27501
-0.157225
-0.138272
-0.0730925
-0.0701448
0.0599473
0.114924
0.192275
0.207111
0.234405
0.179368
0.209271
0.22561
0.139132
0.0723375
0.0110801
0.013558
7.50702e-05
-0.0381923
-0.112913
-0.139563
-0.133493
-0.11699
-0.131176
-0.218278
-0.194154
-0.0983069
-0.0415288
0.00307836
0.104047
0.139782
0.0866722
0.0765953
0.104719
0.136721
0.073881
-0.0341735
-0.00227273
-0.0412558
-0.00994533
-0.000516506
-0.0051018
-0.101569
-0.106562
-0.112302
-0.0756916
-0.0636681
-0.0750009
0.0491318
0.124086
0.0568094
0.114244
0.0648281
0.0211487
-0.0108319
-0.000571515
-0.0367493
0.0197906
0.0127145
-0.0239188
0.229738
0.310389
0.300349
0.240762
0.234805
0.170048
0.0856234
-0.019612
-0.0144945
-0.0367276
-0.0920094
-0.0972192
-0.0983216
-0.11505
-0.118921
-0.11437
-0.108256
-0.00551227
0.0168378
-0.066818
-0.145663
-0.0984286
-0.0326815
-0.000939178
0.0317708
0.0807176
0.0490285
0.0349156
0.0543258
0.110134
0.0129057
0.019174
-0.118431
-0.160286
-0.132877
-0.155375
-0.105658
-0.090964
-0.0825169
-0.159289
-0.271151
-0.236536
-0.155252
-0.0283922
-0.0755542
0.055195
0.134903
0.131063
0.242796
0.335018
0.279898
0.234937
0.158273
0.0606622
0.0686598
0.0364407
-0.0345281
-0.0456349
-0.114696
-0.145179
-0.149797
-0.0813295
-0.108476
-0.0853357
-0.217801
-0.224693
-0.131837
-0.0731326
-0.0104727
0.0411023
0.0925611
0.102259
0.13622
0.0794295
0.0979988
0.0519977
-0.0227928
0.0244073
-0.0160237
-0.035186
-4.90673e-05
-0.0115875
-0.0677452
-0.202273
-0.0986365
0.00927245
-0.105297
-0.0817897
0.0641392
0.0965859
0.0777777
0.134904
0.0763816
-0.00821941
-0.0270027
0.0150275
0.0133245
0.0585026
0.033793
-0.00143923
0.261363
0.284136
0.332371
0.295187
0.248184
0.219589
0.131018
0.0506595
-0.06327
-0.0437855
-0.0994367
-0.0984215
-0.103561
-0.0849707
-0.113364
-0.134885
-0.081365
0.0506562
-0.0563323
-0.164664
-0.0788827
-0.0131511
0.00597697
-0.0747269
-0.0445434
0.0566509
-0.0172155
0.0419983
0.113484
0.0609441
-0.00189709
-0.00548559
-0.135577
-0.156547
-0.153903
-0.0933853
-0.079205
-0.0907608
-0.0558764
-0.11051
-0.254253
-0.237284
-0.148746
-0.0973628
-0.108537
0.0764561
0.20126
0.217188
0.234873
0.274513
0.211963
0.165518
0.104832
0.0430651
0.143938
0.0432643
-0.0263804
-0.0408509
-0.061338
-0.140382
-0.116942
-0.100382
-0.128947
-0.154754
-0.194351
-0.16843
-0.154036
-0.0810459
-0.0567482
0.020298
0.150014
0.119005
0.0963815
0.0936494
0.0934124
0.0365127
-0.0442036
-0.0337435
-0.0103098
0.0515301
-0.0128804
-0.0610391
-0.0811608
-0.10269
-0.133359
-0.0645089
-0.0636338
-0.0172193
0.121064
0.104592
0.0538434
0.119434
0.0956406
0.0244052
0.023155
0.06004
0.0742075
0.0099114
0.0276895
-0.00735447
0.311954
0.286178
0.274355
0.236713
0.244895
0.125173
0.10971
0.104408
0.0509683
0.00790529
-0.0262389
-0.0751468
-0.105822
-0.0929337
-0.0486915
-0.0452442
-0.100027
-0.115522
-0.0492114
-0.050735
-0.124892
-0.17151
-0.150594
-0.0352499
0.0274283
0.00229981
0.0259805
0.0691242
0.0470312
0.0499403
-0.0332231
-0.091671
-0.159124
-0.0885726
-0.124011
-0.114792
-0.111817
-0.154029
-0.0951855
-0.0493147
-0.127181
-0.139583
-0.135563
-0.138803
-0.0707851
0.0970766
0.131177
0.181296
0.222825
0.22995
0.149114
0.152538
0.127549
0.0831552
0.088314
0.0412812
-0.0295903
-0.139778
-0.0655002
-0.0533634
-0.13314
-0.0696042
-0.152153
-0.205744
-0.167454
-0.171627
-0.184558
-0.165541
-0.0530695
0.0682521
0.0284602
0.121737
0.147757
0.086854
0.116215
0.0949747
-0.0057992
-0.011899
-0.0215004
0.0656203
-0.0214568
-0.028495
-0.111516
-0.186956
-0.0450844
0.0249376
-0.032266
-0.0907979
0.00353613
0.117586
0.165718
0.136814
0.0954012
0.0641881
-0.00316688
0.0897742
0.124952
0.105116
0.0339076
-0.0205234
0.290136
0.310295
0.297261
0.204265
0.254533
0.196271
0.123635
0.0941424
0.00799307
0.0201253
0.052115
0.0286235
-0.115788
-0.133753
-0.0319117
-0.034983
-0.0562876
-0.0120815
-0.0366627
-0.106313
-0.161086
-0.185058
-0.161567
-0.143146
-0.028448
-0.0199875
-0.0325061
0.100277
0.157589
0.0194301
-0.0775026
-0.121016
-0.205802
-0.145858
-0.107064
-0.137909
-0.115384
-0.0903414
-0.0797369
-0.0110399
-0.104984
-0.080779
-0.130294
-0.193707
-0.0202009
0.0787296
0.077938
0.146433
0.159098
0.193113
0.109399
0.0938883
0.0776779
0.075217
0.125089
0.0672434
-0.0236619
-0.141261
-0.0603037
-0.0457935
-0.12738
-0.143603
-0.121989
-0.121373
-0.174091
-0.183933
-0.217917
-0.196393
-0.097861
0.0259691
0.0629987
0.109228
0.162051
0.134002
0.095621
0.0356811
0.0135761
0.00480021
0.0690011
0.082262
0.0799585
-0.074657
-0.109493
-0.132778
-0.0240531
-0.0659655
-0.0381563
0.0164822
0.0683881
0.0594053
0.171687
0.140566
0.105808
0.0922491
0.0898105
0.137375
0.14101
0.100022
0.0594684
-0.0126156
0.262194
0.277801
0.306859
0.28179
0.195852
0.121394
0.0865416
0.0945133
0.0336541
0.0859907
0.0622901
0.0148705
-0.00684676
-0.0586332
-0.045164
0.0186341
-0.0471067
-0.0560854
-0.132796
-0.0877455
-0.146469
-0.145761
-0.180526
-0.1978
-0.0845802
0.0136787
0.0346468
0.0900702
0.0651873
-0.0162793
-0.14434
-0.0663339
-0.195617
-0.17544
-0.126098
-0.201913
-0.202002
-0.138247
-0.0431206
-0.0412213
-0.108235
-0.0653561
-0.0592146
-0.103005
-0.0432854
-0.0331149
0.081262
0.227993
0.230409
0.118614
0.108559
0.109826
0.0310582
0.0842456
0.0474256
0.0320479
-0.00727881
-0.0624961
-0.100351
-0.0619127
-0.0805161
-0.0812063
-0.139867
-0.159349
-0.219191
-0.232518
-0.222355
-0.187405
-0.17606
-0.0113573
0.0964172
0.161228
0.137966
0.119859
0.0664367
0.0860262
0.0806823
0.0105457
0.0428612
0.0771889
0.0402115
-0.00194298
-0.0142537
-0.0877784
-0.121188
-0.1134
-0.000539741
0.0625119
0.04812
0.0948102
0.144689
0.194175
0.169263
0.133216
0.104282
0.105749
0.129415
0.12114
0.0753912
0.0458609
0.278275
0.276295
0.266739
0.199547
0.163534
0.125675
0.0914305
0.0991671
0.0611948
0.106145
0.0703344
0.0592483
0.006348
-0.0498697
0.0190599
0.0644007
-0.0726742
-0.163433
-0.12873
-0.0191437
-0.0562301
-0.162414
-0.170607
-0.226157
-0.122777
-0.00292177
0.0208616
0.0846771
0.0431507
0.0427434
-0.13247
-0.118804
-0.200881
-0.194709
-0.231074
-0.21596
-0.176844
-0.116646
-0.072411
-0.061787
-0.0609543
-0.0763911
-0.0521035
-0.102441
-0.0208819
0.104117
0.0979171
0.0908568
0.109263
0.127639
0.133046
0.0308837
0.0549349
0.0938964
0.0571335
0.0649277
0.0557963
-0.0688796
-0.0470102
-0.0676741
-0.041466
-0.072981
-0.170255
-0.248404
-0.248776
-0.233256
-0.152145
-0.187628
-0.110893
-0.00778861
0.0950319
0.160442
0.193661
0.0507431
0.0270141
0.054356
0.0982657
0.0346963
0.0728527
0.0206744
0.0562234
0.0438536
-0.0154816
-0.0427046
-0.0801687
-0.100444
-0.0322892
0.0780869
0.102745
0.0766629
0.150574
0.199286
0.203915
0.176078
0.145716
0.135014
0.176067
0.179189
0.0222039
-0.00990847
0.308862
0.253092
0.190954
0.15872
0.140052
0.130704
0.0906694
0.0846538
0.104207
0.0805498
0.0723989
0.0865745
0.0581343
-0.0224454
0.093425
0.133053
-0.0341078
-0.112804
-0.16157
-0.170745
-0.117419
-0.127311
-0.169645
-0.205668
-0.0960684
0.0346188
0.0515946
0.0728652
0.00265346
0.015141
-0.0830299
-0.122567
-0.204981
-0.258436
-0.240616
-0.243689
-0.221299
-0.10326
-0.0344923
-0.0633929
-0.0619447
-0.0615777
-0.0690589
-0.0431348
0.0261642
0.0370783
0.047033
0.0670907
0.0909402
0.143747
0.0807517
0.0144103
0.08238
0.149156
0.141473
0.120581
0.0404556
-0.110956
0.0177633
-0.0102232
-0.0487349
-0.106714
-0.166441
-0.225568
-0.252333
-0.366742
-0.20875
-0.130188
-0.124196
0.0234681
0.0742535
0.100827
0.0748608
0.0942619
0.0731048
0.0473348
0.141884
0.170391
0.0261273
0.0069612
0.0739774
0.0491251
-0.0702392
-0.0118292
-0.105984
-0.141973
-0.0160418
0.0663247
0.117221
0.139693
0.157777
0.226397
0.234028
0.223648
0.149263
0.12968
0.136834
0.180212
0.0722318
0.0204502
0.284689
0.250538
0.190839
0.129226
0.145583
0.0832561
0.0817475
0.0804829
0.098883
0.102462
0.0690205
0.074007
0.148663
0.134407
0.0588076
-0.067826
-0.0680548
-0.114719
-0.122454
-0.168161
-0.202629
-0.135583
-0.133185
-0.151427
-0.0931459
-0.0118717
0.0484433
0.0937592
0.0565188
-0.0120067
-0.102837
-0.0848674
-0.0697765
-0.226203
-0.279063
-0.294237
-0.253001
-0.0694004
-0.0619318
-0.067325
-0.0294495
-0.0574741
-0.0724294
-0.0537528
0.0294249
0.0976177
0.0558498
0.0421573
0.0538021
0.0453935
0.0350565
0.0734731
0.156491
0.0699567
0.0728019
0.085501
0.0258513
-0.0197954
0.0584025
-0.0618639
-0.00417059
-0.10653
-0.210399
-0.231527
-0.188882
-0.202613
-0.182305
-0.162013
-0.0817861
0.00940105
0.0380778
0.0369247
0.0421704
0.122187
0.0651466
0.0230998
0.116587
0.202228
0.121264
0.0373902
0.0612619
0.025628
-0.059501
-0.0697421
-0.0885525
-0.0891194
0.0636966
0.0726646
0.0775183
0.105648
0.123553
0.211432
0.276384
0.333159
0.164896
0.153206
0.155153
0.161128
0.0394035
-0.0222911
0.20561
0.231718
0.194182
0.139535
0.0944497
0.102156
0.0891298
0.0468474
0.0655957
0.101727
0.118807
0.163469
0.162001
0.123591
0.061088
-0.0120291
0.0543581
-0.0323249
-0.0963144
-0.131246
-0.217217
-0.276644
-0.233374
-0.100352
-0.0662217
0.03742
0.00688704
0.0375707
0.063206
0.0148265
-0.10145
-0.0946478
-0.114563
-0.253456
-0.217407
-0.237268
-0.15024
-0.0890362
-0.0212208
-0.0248097
-0.108427
-0.116819
-0.0843655
0.0215984
0.025423
0.0765324
0.00541818
0.0386781
0.086538
0.0498569
0.0444977
0.0705676
0.143003
0.0947595
0.0472671
0.0906938
0.0451953
-0.0025082
0.0102901
-0.057755
-0.0155082
-0.0850324
-0.176441
-0.240294
-0.18979
-0.172521
-0.193294
-0.120744
-0.0609493
-0.0237641
-0.0502419
-0.00574257
0.0830511
0.159311
0.0773179
0.117254
0.0709617
0.150863
0.187168
0.114025
-0.0600602
-0.0496439
-0.0419502
-0.113221
-0.138178
-0.0344459
0.0517838
0.0424247
0.0712565
0.131986
0.186254
0.183622
0.300929
0.360642
0.176478
0.156933
0.119126
0.127449
0.125331
-0.000138175
0.25211
0.163503
0.040316
0.0668137
0.0641945
0.156597
0.175554
0.0742883
0.0343876
0.0699251
0.09506
0.156039
0.182464
0.133883
0.146793
-0.00938149
-0.113005
-0.132724
-0.0580296
-0.0627888
-0.178351
-0.218624
-0.2248
-0.132234
-0.105337
0.00165256
0.124745
0.0582942
0.069896
-0.0235343
-0.144712
-0.117839
-0.108172
-0.147131
-0.16199
-0.177848
-0.20815
-0.10845
-0.0339275
-0.0307509
-0.0705756
-0.0834583
-0.0696444
-0.0049815
-0.00276063
0.0358196
0.0201169
0.0897096
0.0742139
0.0596533
0.0217518
0.0525217
0.079737
0.127616
0.0567705
0.0625361
0.0207959
0.0115012
-0.00462839
-0.0533241
-0.0235845
-0.0943654
-0.088271
-0.143108
-0.195399
-0.192119
-0.145848
-0.0636367
-0.00917681
0.0468837
-0.0504954
-0.00707165
0.0348839
0.166654
0.109001
0.106118
0.102554
0.116865
0.12699
0.102362
0.00416187
-0.0284374
-0.105867
-0.130137
-0.0989071
-0.0889508
0.0140753
0.0193578
0.103895
0.210994
0.168383
0.180702
0.267258
0.33268
0.253315
0.224743
0.177256
0.110752
0.0316391
-0.0105176
0.200762
0.16755
0.122428
0.0467843
0.0313734
0.105523
0.137418
0.0106281
0.00398241
0.10208
0.210335
0.195369
0.216569
0.148977
0.106359
0.00390346
-0.0258343
-0.0954828
-0.0406197
-0.011992
-0.173875
-0.221285
-0.200392
-0.0867932
-0.0788412
-0.0244683
-0.014962
0.054767
0.0321114
-0.0891977
-0.130051
-0.129542
-0.0747892
-0.113766
-0.124934
-0.129432
-0.160309
-0.0660371
-0.0917541
-0.0338479
-0.0585678
-0.0761124
-0.0485753
0.0114548
0.0251906
0.0548942
0.0773264
0.0286607
-0.0333379
0.0482185
0.148146
0.0656113
0.0403559
0.0640164
0.125749
0.103944
0.0292444
-0.0515852
0.00618456
-0.0076047
-0.0623188
-0.065315
-0.0391482
-0.140416
-0.202302
-0.176802
-0.0862486
-0.0244667
-0.00592122
0.00962224
-0.00780054
0.0235995
0.0240606
0.140952
0.14493
0.151567
0.204734
0.165293
0.163508
0.0972231
-0.0385941
-0.00920541
-0.102628
-0.158611
-0.122634
-0.112721
0.0570628
0.109348
0.145292
0.0919205
0.150595
0.220221
0.272741
0.246394
0.250217
0.225103
0.107001
0.0728059
0.028744
0.0508756
0.120648
0.079502
0.0645738
0.106702
0.130316
0.109196
0.106511
0.072529
0.0618154
0.141684
0.105367
0.0887679
0.0859105
0.120056
0.13525
0.102599
-0.00315614
-0.0697923
-0.146045
-0.12956
-0.158876
-0.121979
-0.117093
-0.0713952
-0.0495597
-0.0744603
-0.0834293
0.00849363
0.0399878
0.0557423
-0.104846
-0.274406
-0.107559
-0.106543
-0.0100542
-0.06267
-0.0824759
0.0277773
-0.0804678
-0.053716
-0.0518621
-0.112438
-0.0815354
0.032271
0.0769411
-0.020404
0.072336
0.0244206
0.0338596
0.0831514
0.0767321
0.0416614
0.0378912
0.0948713
0.126075
0.0776739
0.0119471
-0.0136327
0.0375656
-0.049129
-0.049182
-0.0346801
-0.017456
-0.0492297
-0.160529
-0.135143
-0.109367
-0.059416
0.0101799
0.0343232
0.0824245
0.0740162
-0.00022693
0.110789
0.112721
0.13699
0.184552
0.185061
0.187964
0.16519
0.0634704
-0.0120351
-0.145648
-0.146099
-0.135153
-0.124615
-0.0108601
0.121724
0.121418
0.0801829
0.18879
0.269379
0.27213
0.193383
0.222912
0.217224
0.146106
0.134343
0.0281358
0.0286768
0.0873009
0.0686384
0.0676313
0.114933
0.11338
0.0262064
0.00979584
0.0652172
0.115607
0.190806
0.146982
0.0817288
0.106957
0.101692
0.0859608
0.0736461
0.0328354
0.0657924
-0.0925438
-0.0702233
-0.0722176
-0.0918202
-0.131835
-0.16699
-0.104918
-0.0194153
-0.0906499
-0.0275479
-0.00862781
-0.00427076
-0.128996
-0.167683
-0.143091
-0.165451
-0.00412473
-0.0549265
-0.0126875
0.0260146
-0.0283977
-0.143604
-0.115071
-0.0426422
-0.0440977
0.0378313
0.13366
0.0785042
-0.0318542
0.0317437
0.0536351
0.0309833
0.0278207
0.0565521
0.0106247
0.0732276
0.100964
0.0895054
0.0399201
-0.00692688
-0.0514287
-0.0672817
-0.0435698
-0.0267358
-0.00978716
-0.0368651
-0.111057
-0.0789337
-0.0536656
-0.0062406
0.0503679
-0.00937486
0.0137252
0.0700395
0.131916
0.137325
0.100507
0.203605
0.228038
0.159504
0.176111
0.0532102
-0.00702658
-0.0739168
-0.105808
-0.0950668
-0.0676831
-0.0929295
-0.0123006
0.0599537
0.0989562
0.0776115
0.201492
0.228731
0.205486
0.186226
0.281673
0.212955
0.124457
0.0723747
0.0334049
-0.00108767
0.0272431
0.00254366
0.0666939
0.080427
0.0973564
0.088138
0.0960709
0.0545502
0.08267
0.181615
0.149607
0.0937636
0.0155268
0.0463148
0.128981
0.16678
0.146438
0.00890405
-0.071663
-0.0808372
-0.0437186
-0.125057
-0.202057
-0.13796
-0.0845959
0.0041414
-0.0108807
-0.0493218
-0.0706447
-0.0720461
-0.0929166
-0.132597
-0.13736
-0.060904
-0.00773842
-0.0084505
0.00247372
-0.0140505
-0.0129336
-0.115099
-0.0943352
-0.00651114
0.00910484
-0.00166306
0.090945
0.0882523
-0.0120334
-0.0434191
0.0155806
0.0973691
-0.000173678
0.0493214
0.0452531
0.000593051
0.0897777
0.0609975
0.0858443
-0.0401832
-0.0164837
-0.0646971
-0.0827316
-0.0713016
-0.0252814
-0.054925
-0.136968
-0.064007
0.0277238
-0.0160667
0.0494507
0.0396176
0.0319747
0.0930477
0.155313
0.158368
0.0891151
0.13172
0.192444
0.16659
0.148917
0.0911977
0.0572258
-0.0397733
-0.0742584
-0.0585101
-0.139298
-0.105174
-0.0149208
0.0145444
0.0415159
0.105062
0.138055
0.110236
0.21783
0.251381
0.288479
0.204132
0.11238
0.0459536
0.0369142
0.0275059
-0.0211539
0.00370978
0.0749926
0.0696033
0.0564673
0.033843
0.0855663
0.00644704
0.03397
0.183171
0.155787
0.0954785
0.02891
0.00596017
0.0824808
0.0728584
0.165976
0.127332
-0.0221282
0.024548
-0.0805742
-0.172405
-0.143619
-0.12307
-0.0871987
-0.0299591
0.00167631
-0.00398441
0.00986007
-0.0424697
-0.153035
-0.154301
-0.148551
-0.0573684
0.00435981
-0.0802133
0.00341454
-0.021549
0.00335964
-0.092909
-0.0447274
-0.0441621
-0.00616468
0.079899
0.159993
0.0741051
-0.0242291
-0.0527033
0.0534921
0.0338539
0.00301055
0.00783457
0.0490791
-0.0794801
0.0370358
0.0763086
0.0811763
-0.0172711
-0.000619203
-0.019938
-0.0852893
-0.0897436
-0.0544669
-0.00840295
-0.0500624
-0.0588903
0.0102453
0.0379125
0.0384445
-0.0300269
-0.0169677
0.155546
0.203984
0.152593
0.0988888
0.0821543
0.111348
0.14206
0.22528
0.106026
-0.00921472
-0.0515007
-0.0374349
-0.100735
-0.0998485
-0.112704
-0.0438979
-0.0372569
0.0235729
0.0536323
0.101927
0.066629
0.165908
0.186738
0.228118
0.228602
0.181568
0.128367
0.0312825
-0.0130073
-0.0607125
-0.0156108
0.00187772
0.0505955
0.0755874
0.104878
0.0255025
-0.0125295
0.0885587
0.081969
0.00962673
0.0585675
0.0175236
0.0815382