/*--------------------------------*- C++ -*----------------------------------*\
| =========                 |                                                 |
| \\      /  F ield         | OpenFOAM: The Open Source CFD Toolbox           |
|  \\    /   O peration     | Version:  v2012                                 |
|   \\  /    A nd           | Website:  www.openfoam.com                      |
|    \\/     M anipulation  |                                                 |
\*---------------------------------------------------------------------------*/
FoamFile
{
    version     2.0;
    format      ascii;
    class       volVectorField;
    location    "0";
    object      U;
}
// * * * * * * * * * * * * * * * * * * * * * * * * * * * * * * * * * * * * * //

dimensions      [0 1 -1 0 0 0 0];


internalField   nonuniform List<vector> 
4000
(
(-0.00478062 0.00130721 0)
(0.0115443 -0.0331292 0)
(0.0509983 0.0332574 0)
(-0.0783268 0.154381 0)
(-0.318534 0.0238119 0)
(-0.0986082 -0.130353 0)
(0.218902 -0.155138 0)
(0.158528 0.0349175 0)
(0.0358419 -0.00489568 0)
(0.15392 -0.0287315 0)
(-0.0649151 -0.0336311 0)
(-0.0599708 -0.0229113 0)
(0.0100226 0.0585414 0)
(0.0181264 0.0894 0)
(-0.0211225 -0.0321938 0)
(-0.189945 0.0269396 0)
(0.0234181 -0.0376472 0)
(0.0861934 0.00163859 0)
(-0.0413491 0.0922544 0)
(0.14285 -0.0635279 0)
(-0.0590962 -0.125176 0)
(0.127009 -0.00498337 0)
(0.198707 0.170728 0)
(0.00259446 -0.0360303 0)
(0.0144809 0.0368217 0)
(-0.0226711 0.0321255 0)
(-0.0383579 -0.111231 0)
(0.119389 0.0504221 0)
(-0.0739453 0.0523554 0)
(-0.138121 -0.0592138 0)
(0.0734982 -0.0330182 0)
(0.0747065 -0.072047 0)
(0.0578538 0.0532309 0)
(-0.113299 0.0610684 0)
(0.00241924 -0.123507 0)
(-0.0152475 -0.0485131 0)
(-0.0266644 0.155705 0)
(-0.0263855 0.00967611 0)
(0.122032 -0.128343 0)
(0.215216 0.0466674 0)
(0.0853519 -0.00187403 0)
(0.0161438 0.0599157 0)
(0.0265642 -0.00325706 0)
(-0.116631 -0.0270369 0)
(-0.0232899 -0.0516252 0)
(-0.0148382 -0.0577717 0)
(0.139817 0.115839 0)
(0.0273266 -0.0517302 0)
(-0.0241421 -0.0451443 0)
(0.129935 0.0986921 0)
(0.0235864 0.0688447 0)
(-0.0826432 -0.0109573 0)
(0.0134506 0.0872808 0)
(-0.0836967 -0.033298 0)
(-0.131334 -0.137091 0)
(0.00109928 -0.029843 0)
(0.027403 0.0870576 0)
(-0.00851546 0.0397169 0)
(-0.110542 0.0151164 0)
(-0.105627 -0.0229106 0)
(0.0759625 -0.0984349 0)
(0.172171 0.0406372 0)
(-0.133016 -0.0477201 0)
(0.0461145 0.0106358 0)
(-0.0374226 0.0416214 0)
(-0.110164 0.0103711 0)
(-0.024729 -0.0774763 0)
(0.0158559 -0.0512469 0)
(-0.00788857 0.040299 0)
(-0.0228479 0.0667431 0)
(-0.156314 0.037207 0)
(0.0486933 -0.0248253 0)
(-0.0436114 -0.0206105 0)
(-0.0093891 0.000791346 0)
(-0.000607917 0.0144403 0)
(-0.0207102 -0.0377325 0)
(0.156151 0.0153174 0)
(0.0636765 0.0576427 0)
(-0.0513128 -0.0222497 0)
(0.112313 -0.052902 0)
(0.00375968 0.0518244 0)
(0.0211526 0.0145659 0)
(0.121338 0.0135083 0)
(0.0150386 0.0111284 0)
(0.0130092 -0.0279065 0)
(0.0830163 -0.0900831 0)
(0.0826808 0.105779 0)
(-0.0615379 0.0973854 0)
(-0.0123638 -0.0137181 0)
(-0.0239532 -0.128992 0)
(0.0886084 0.0283201 0)
(0.0252927 0.112622 0)
(0.00704527 -0.0438814 0)
(-0.0343463 -0.13116 0)
(0.0180796 0.0555774 0)
(0.0638852 0.0138906 0)
(-0.0423941 0.000721892 0)
(0.007689 0.0693595 0)
(0.00101277 0.0120355 0)
(-0.00215973 -0.00445554 0)
(0.0166098 0.0343789 0)
(-0.0964423 -0.170198 0)
(0.159055 0.074543 0)
(0.000672024 0.313986 0)
(0.0456605 -0.0100787 0)
(0.0318402 -0.261308 0)
(0.0480003 -0.144478 0)
(-0.0292373 0.0462501 0)
(-0.0233222 0.0262418 0)
(-0.0522584 0.0901032 0)
(0.0297463 -0.0416517 0)
(0.0680454 -0.0688038 0)
(-0.0639685 0.00315142 0)
(-0.0826906 0.0504456 0)
(-6.51466e-05 0.0564171 0)
(-0.0154583 0.00156655 0)
(0.0372219 0.12079 0)
(-0.140432 -0.0363066 0)
(0.0760262 0.0462871 0)
(0.079092 -0.05539 0)
(0.000490084 -0.183266 0)
(0.041899 -0.113052 0)
(-0.0099919 0.196511 0)
(-0.0730277 0.00410194 0)
(-0.0845123 0.0525408 0)
(0.18174 0.036321 0)
(-0.0140389 -0.096446 0)
(-0.0949004 0.047692 0)
(0.180104 0.0518008 0)
(0.0892813 -0.0533579 0)
(-0.0867448 0.0436432 0)
(0.0604746 -0.113283 0)
(-0.114713 0.0279498 0)
(-0.162597 0.114799 0)
(0.0672468 -0.00856238 0)
(-0.283051 0.00515781 0)
(-0.0710849 0.114673 0)
(0.00687869 -0.129986 0)
(-0.129474 -0.0979332 0)
(0.0335818 0.0493628 0)
(-0.052923 0.0383766 0)
(-0.0491858 0.0401579 0)
(0.00338315 -0.0133841 0)
(-0.0498399 -0.0350982 0)
(-0.07908 0.0167102 0)
(0.0338627 -0.0665795 0)
(-0.00679044 -0.0285187 0)
(-0.0376053 -0.0835851 0)
(-0.0712967 -0.00209281 0)
(0.0262502 0.0773412 0)
(0.0297587 0.091316 0)
(0.0379889 -0.00294605 0)
(-0.0549074 -0.0527526 0)
(0.168176 0.0393562 0)
(-0.0467989 0.0295104 0)
(0.00498449 -0.0650343 0)
(0.0611385 0.00239005 0)
(0.0297191 0.105205 0)
(0.0890233 0.00942842 0)
(0.0363016 -0.0262254 0)
(-0.136671 -0.155301 0)
(0.114674 0.0313289 0)
(0.0694648 -2.43609e-05 0)
(-0.191303 -0.0154982 0)
(-0.047636 0.0539743 0)
(-0.0727028 0.0206285 0)
(-0.0282013 -0.0266479 0)
(-0.0436251 -0.0225257 0)
(-0.013564 -0.0225975 0)
(-0.0496731 0.0488579 0)
(-0.0987867 -0.0203942 0)
(0.189789 0.0241554 0)
(-0.153451 -0.029548 0)
(-0.00247896 -0.0186758 0)
(-0.0431415 -0.0320681 0)
(-0.0396459 -0.111338 0)
(-0.0127963 0.0173377 0)
(0.0152253 0.1537 0)
(-0.00477658 0.0152139 0)
(-0.05195 -0.0440396 0)
(-0.038705 0.0396448 0)
(0.137479 -0.0397482 0)
(0.0217094 -0.00829204 0)
(-0.0653704 0.147504 0)
(-0.0413708 -0.0510913 0)
(0.0194265 -0.149283 0)
(-0.076658 0.026306 0)
(0.0150788 0.104332 0)
(-0.0224309 0.0478227 0)
(-0.0254545 -0.0634387 0)
(0.00458597 -0.0354265 0)
(-0.0309697 0.054296 0)
(0.0586923 -0.0494108 0)
(-0.124775 -0.0157611 0)
(0.097293 0.0486985 0)
(-0.0472207 -0.0620151 0)
(0.0478818 -0.0434932 0)
(-0.0270936 0.0967735 0)
(-0.0138828 0.0532615 0)
(0.0763239 0.0129051 0)
(0.00323828 0.0653714 0)
(0.00391002 -0.188376 0)
(-0.00533959 0.0189103 0)
(-0.00597727 0.228801 0)
(0.00268246 -0.0145608 0)
(-0.0512881 -0.159861 0)
(0.00891233 -0.0481399 0)
(0.0305416 0.00320334 0)
(0.0125492 0.0556667 0)
(-0.154771 0.0858152 0)
(0.129155 -0.0524246 0)
(0.0140465 -0.0443347 0)
(0.0418384 -0.0128024 0)
(-0.110816 0.0901764 0)
(-0.0211918 -0.0029152 0)
(-0.0165825 -0.0684431 0)
(-0.0169277 0.0295558 0)
(-0.0261204 0.0267017 0)
(-0.218367 0.100639 0)
(0.0599976 -0.107538 0)
(0.00746379 -0.0857334 0)
(-0.110926 -0.0177692 0)
(-0.0918734 0.0132632 0)
(-0.028311 0.00353069 0)
(0.0410615 -0.0395882 0)
(0.0113931 0.0883638 0)
(-0.105919 -0.0355437 0)
(0.0271517 0.06827 0)
(-0.00975514 -0.000101632 0)
(-0.0428389 -0.0224927 0)
(0.026207 -0.0105696 0)
(-0.0436408 0.0252027 0)
(0.0633562 0.0698959 0)
(-0.0106453 0.0116631 0)
(-0.11291 0.045299 0)
(-0.0852544 0.0583236 0)
(0.00180567 0.0985788 0)
(-0.00780917 -0.19703 0)
(-0.0686387 -0.192636 0)
(0.0229385 0.171073 0)
(-0.156109 0.0896466 0)
(0.116066 -0.0772914 0)
(-0.0197126 -0.0283774 0)
(-0.190919 -0.00758158 0)
(-0.00403303 0.0282042 0)
(-0.0133275 -0.0369083 0)
(0.0523793 -0.00024793 0)
(-0.0191695 0.0477057 0)
(-0.107783 -0.042528 0)
(-0.107604 -0.108751 0)
(0.114279 0.0646209 0)
(0.0125778 0.0996123 0)
(0.0145071 -0.0673162 0)
(-0.0417412 0.0446746 0)
(0.171893 0.056747 0)
(0.0831364 0.00181899 0)
(-0.215249 -0.0776197 0)
(-0.213173 -0.0194771 0)
(0.146037 -0.0415672 0)
(0.120645 0.00930144 0)
(0.14706 -0.064671 0)
(0.0135148 -0.00924757 0)
(0.0240636 0.111026 0)
(-0.101946 0.110048 0)
(-0.100227 0.0865213 0)
(-0.105699 -0.0947753 0)
(-0.093759 -0.120663 0)
(0.0287233 0.0133126 0)
(0.0233069 -0.0462069 0)
(0.0955069 0.118624 0)
(-0.0307486 -0.0144616 0)
(-0.0417956 -0.0786609 0)
(-0.0673522 0.016214 0)
(-0.00501216 0.0199915 0)
(0.0802973 -0.0619465 0)
(-0.0478434 -0.087198 0)
(-0.000548598 0.0671161 0)
(-0.0537442 0.170592 0)
(-0.00704657 -0.119214 0)
(0.0188321 0.0233397 0)
(-0.0513878 0.0494746 0)
(-0.0541921 -0.0753402 0)
(-0.104514 0.0106712 0)
(0.0399882 0.113916 0)
(0.0499738 -0.032866 0)
(-0.0519645 -0.0950216 0)
(0.0377152 0.00697418 0)
(-0.0673392 0.0505376 0)
(-0.0154202 0.0657957 0)
(-0.0644422 -0.0198752 0)
(-0.00227732 -0.0122424 0)
(-0.255941 0.133302 0)
(0.0136965 -0.0909358 0)
(-0.116409 -0.121497 0)
(0.0893836 0.0411619 0)
(-0.0506063 -0.0801779 0)
(-0.0187346 0.0360425 0)
(-0.00597815 0.0989559 0)
(0.0202037 0.074611 0)
(0.0293648 0.0111267 0)
(-0.00145433 0.0584521 0)
(-0.0061538 -0.146658 0)
(-0.00284506 -0.0406129 0)
(-0.0504943 0.307391 0)
(-0.0954952 0.108916 0)
(-0.183507 -0.118233 0)
(-0.0352662 -0.260283 0)
(0.0287787 -0.0330426 0)
(0.000834021 0.154572 0)
(-0.0623886 -0.0482818 0)
(-0.0184092 0.0766414 0)
(0.0276393 -0.0531325 0)
(-0.0676681 0.109031 0)
(0.0146165 0.142633 0)
(-0.0462304 -0.0674645 0)
(-0.0732902 -0.0471803 0)
(0.0148318 -0.167678 0)
(-0.07149 0.0787178 0)
(-0.0360449 0.100306 0)
(0.0401138 -0.276004 0)
(0.0554611 0.0428152 0)
(-0.11479 0.16464 0)
(-0.0246884 -0.0425653 0)
(0.132347 -0.128525 0)
(-0.137051 0.0101479 0)
(-0.0471616 0.125668 0)
(0.0161646 -0.135231 0)
(0.00649751 0.0729255 0)
(-0.019081 0.0830024 0)
(-0.188531 0.0517139 0)
(-0.0682537 -0.0643763 0)
(-0.0883606 -0.125215 0)
(-0.00329049 -0.0905876 0)
(0.330081 0.05366 0)
(0.0525916 0.1928 0)
(0.121915 0.0643269 0)
(0.0162947 0.0727766 0)
(-0.0991545 -0.0686534 0)
(0.0171946 -0.241493 0)
(-0.00122083 0.00976683 0)
(0.119873 0.0834589 0)
(0.00307802 0.0292317 0)
(-0.0439256 0.0454795 0)
(0.0448022 0.0387895 0)
(0.0582336 -0.168727 0)
(0.0024932 -0.0732159 0)
(-0.0471241 0.176229 0)
(-0.0225108 0.0888267 0)
(-0.0624627 0.0115891 0)
(-0.060468 -0.101633 0)
(-0.0785012 -0.0444735 0)
(0.0215068 0.0380486 0)
(-0.0343421 0.105555 0)
(-0.0224456 -0.0812389 0)
(0.0231599 -0.0715574 0)
(0.0826037 0.201154 0)
(-0.171711 0.0878838 0)
(0.0242004 -0.192072 0)
(-0.0992904 -0.163762 0)
(-0.0490472 -0.051727 0)
(-0.0255363 0.0156761 0)
(-0.0399905 0.117332 0)
(-0.0130786 0.104035 0)
(-0.0120092 0.0722181 0)
(-0.0158149 0.0420931 0)
(0.138704 -0.121053 0)
(-0.0352421 -0.110335 0)
(-0.133169 -0.0197713 0)
(0.0091289 -0.00525733 0)
(-0.01239 0.106955 0)
(-0.0477822 0.100835 0)
(-0.0255702 -0.115518 0)
(-0.0210156 -0.0774413 0)
(-0.0369393 0.0572563 0)
(-0.0760565 -0.00242657 0)
(-0.00115285 -0.0909354 0)
(0.00242388 0.0702951 0)
(0.0228501 0.0886489 0)
(-0.0577825 -0.16308 0)
(-0.0350871 0.017036 0)
(-0.0462377 0.0849246 0)
(0.104868 -0.11562 0)
(-0.122611 0.0309138 0)
(0.0140716 0.0354376 0)
(0.10193 -0.0313064 0)
(0.0286126 -0.0419025 0)
(0.0472834 0.0261254 0)
(0.0988371 0.0805593 0)
(0.0313682 0.0294766 0)
(-0.0150183 -0.0216838 0)
(-0.0447326 0.0939358 0)
(-0.00930724 0.0467596 0)
(0.0722065 -0.102819 0)
(-0.333569 -0.126018 0)
(-0.0216551 0.050484 0)
(-0.0192802 -0.00104836 0)
(-0.0258805 0.0452997 0)
(-0.0502695 0.0564512 0)
(-0.0104945 0.0350023 0)
(-0.00854204 0.031842 0)
(-0.000437729 0.0198371 0)
(-0.010677 -0.0443782 0)
(-0.0202963 -0.00410771 0)
(0.0582657 0.239294 0)
(0.00467679 0.0669601 0)
(-0.0134133 -0.134563 0)
(0.17968 -0.175531 0)
(-0.117282 0.0436069 0)
(-0.127185 0.157297 0)
(-0.13711 -0.131964 0)
(0.00449402 -0.0987482 0)
(0.124672 0.0190104 0)
(0.0426463 0.141236 0)
(0.019239 0.0396707 0)
(0.0691737 0.0623092 0)
(0.028976 -0.0751123 0)
(0.0137175 -0.168581 0)
(0.0072175 0.130831 0)
(0.00103975 0.0242932 0)
(-0.142967 -0.0518271 0)
(-0.0670343 -0.0258872 0)
(-0.00587306 0.0339397 0)
(0.136833 -0.0468133 0)
(0.0631261 -0.0926347 0)
(-0.294381 0.242853 0)
(0.0061505 -0.115169 0)
(0.204744 -0.133704 0)
(0.0508173 0.160618 0)
(0.06999 0.071246 0)
(0.166082 -0.00192759 0)
(-0.0200569 -0.0484554 0)
(0.215182 -0.0837674 0)
(-0.086926 -0.162028 0)
(0.00572093 -0.0287522 0)
(0.0556338 0.217938 0)
(0.0650614 0.194748 0)
(-0.233477 0.0441091 0)
(-0.00723893 -0.0840909 0)
(0.190554 -0.26495 0)
(0.0285667 -0.081047 0)
(-0.00959238 0.122608 0)
(0.00700673 0.0718758 0)
(-0.0344225 -0.059425 0)
(0.037192 0.0996852 0)
(-0.030847 0.039288 0)
(-0.0870454 -0.0387766 0)
(-0.111612 0.00746816 0)
(0.0045134 0.0434266 0)
(-0.140482 -0.0214243 0)
(-0.0481838 0.0162583 0)
(-0.0967176 -0.0105066 0)
(0.0221842 -0.0391063 0)
(-0.03799 -0.0311309 0)
(-0.10091 -0.018999 0)
(-0.333772 -0.00469858 0)
(0.114822 0.131518 0)
(0.100943 0.0316955 0)
(-0.0274556 -0.243701 0)
(0.034273 0.112485 0)
(-0.289214 0.146284 0)
(-0.156009 -0.219373 0)
(0.0352787 -0.037158 0)
(-0.072295 0.0559508 0)
(-0.0347964 0.120662 0)
(-0.00207084 0.039904 0)
(0.0154716 -0.190076 0)
(0.000652486 -0.0634616 0)
(-0.0940865 0.130106 0)
(-0.00534697 -0.0093974 0)
(-0.18797 -0.0750384 0)
(0.0385069 0.0856189 0)
(-0.0162006 -0.0589548 0)
(-0.00265846 -0.0530875 0)
(-0.110501 0.0843709 0)
(0.0729307 -0.0989272 0)
(0.124817 -0.110494 0)
(-0.0498477 0.0221803 0)
(0.0739938 0.0896171 0)
(0.0850259 0.0123413 0)
(-0.0446325 0.0361597 0)
(-0.1228 0.0648816 0)
(-0.0489601 -0.0766935 0)
(-0.188579 0.00600115 0)
(0.181511 -0.0052939 0)
(0.219202 -0.0111482 0)
(-0.0695648 0.096473 0)
(-0.0630151 -0.0391391 0)
(0.0224093 -0.0327702 0)
(-0.0945544 0.0989961 0)
(-0.0668232 0.0383013 0)
(0.0474324 0.0425039 0)
(0.10937 -0.114315 0)
(-0.0594211 -0.0140515 0)
(-0.0715403 0.127002 0)
(-0.0445324 -0.130693 0)
(0.0958257 -0.106845 0)
(0.0241319 0.0698597 0)
(0.0288231 0.0824871 0)
(-0.0469764 0.0522567 0)
(-0.056074 0.0141556 0)
(0.00194375 0.0371999 0)
(-0.00380538 -0.00978387 0)
(-0.0377773 -0.0321175 0)
(0.0341538 0.150114 0)
(-0.00315658 0.132951 0)
(-0.000658208 -0.157763 0)
(0.0186864 -0.0811741 0)
(-0.196265 0.0682685 0)
(0.0829844 0.0114505 0)
(0.371903 -0.117853 0)
(-0.05591 -0.131803 0)
(0.0773239 -0.0480603 0)
(0.0190825 0.0482244 0)
(0.0682131 0.122854 0)
(0.00179959 0.0501437 0)
(0.027014 -0.00264324 0)
(-0.0518223 -0.145331 0)
(-0.00601502 0.0796741 0)
(-0.0161943 0.00430546 0)
(0.000125473 0.00371731 0)
(-0.0305641 0.026008 0)
(-0.029833 0.128421 0)
(0.0326858 -0.0208333 0)
(-0.176781 -0.0735372 0)
(-0.0489082 0.0130582 0)
(-0.132073 -0.173984 0)
(0.092013 -0.060565 0)
(0.0413292 0.0498588 0)
(-0.0341268 -0.0242689 0)
(-0.00670944 -0.0649759 0)
(0.0257787 0.0698216 0)
(0.0195531 0.105977 0)
(0.0227279 -0.0655482 0)
(-0.120346 -0.0804595 0)
(0.00460963 0.0625602 0)
(0.00487106 0.202724 0)
(0.167766 0.0945162 0)
(0.00646213 -0.114547 0)
(-0.0505836 -0.443021 0)
(-0.113308 0.0337361 0)
(0.0182108 0.199344 0)
(-0.116855 0.0540637 0)
(0.0196173 0.0480478 0)
(-0.0130343 0.00119878 0)
(-0.0301484 -0.0349256 0)
(-0.0291855 -0.0393746 0)
(-0.00784123 0.0929604 0)
(-0.049007 0.0460766 0)
(0.0668105 -0.00129425 0)
(0.0307429 -0.149987 0)
(0.0093386 0.0551643 0)
(-0.00691664 0.064489 0)
(-0.0108413 -0.029788 0)
(0.0490438 -0.0177676 0)
(-0.0678304 -0.066305 0)
(-0.0112955 0.0375816 0)
(0.00404282 0.0551987 0)
(-0.000237396 -0.0873739 0)
(-0.0162166 0.0187322 0)
(0.320385 0.0252449 0)
(-0.00421987 -0.0656932 0)
(-0.0614508 -0.0333416 0)
(-0.0406283 0.0776936 0)
(-0.0351218 0.0757968 0)
(0.0219334 0.0452825 0)
(0.0418325 -0.126477 0)
(-0.0678432 -0.0211479 0)
(-0.110437 0.0249767 0)
(-0.0111748 -0.0462755 0)
(-0.0320642 -0.00649224 0)
(0.142699 0.0804141 0)
(0.088779 -0.0621253 0)
(0.0694577 -0.0585399 0)
(-0.029297 0.0678674 0)
(-0.0565439 -0.112755 0)
(-0.12645 -0.0270225 0)
(0.0549307 0.0558007 0)
(-0.038548 -0.00165772 0)
(-0.0495589 0.0272389 0)
(-0.0231574 0.0953394 0)
(0.0137452 0.109789 0)
(-0.0526866 -0.0223342 0)
(-0.110356 -0.181356 0)
(0.0647522 -0.174854 0)
(0.0707212 0.146785 0)
(-0.0660855 0.209511 0)
(0.00139453 -0.0104892 0)
(-0.00201467 0.0278552 0)
(-0.0133721 0.116338 0)
(0.0283158 -0.114966 0)
(-0.0526048 -0.0305931 0)
(0.0175928 0.0467391 0)
(0.00779136 -0.0505019 0)
(0.165481 -0.00418956 0)
(-0.0933788 -0.104931 0)
(-0.0119774 -0.114366 0)
(-0.0655353 0.19171 0)
(-0.0501516 0.175839 0)
(-0.0697826 -0.0225546 0)
(0.00246555 -0.0619157 0)
(-0.00494664 -0.0104059 0)
(-0.00268264 0.0624041 0)
(-0.0262451 -0.0780979 0)
(-0.0558732 0.0083975 0)
(0.0232765 0.215785 0)
(-0.0159414 0.112902 0)
(-0.0447621 -0.123159 0)
(0.00169515 -0.144229 0)
(-0.040164 0.0865564 0)
(0.037583 -0.062189 0)
(0.0164009 -0.136944 0)
(-0.0141959 0.04466 0)
(-0.0507581 0.132565 0)
(-0.0423881 0.0103567 0)
(-0.0815081 -0.0499823 0)
(0.0251561 -0.0687254 0)
(0.00591049 0.0316178 0)
(-0.117865 -0.0612739 0)
(-0.0417868 0.0289328 0)
(-0.00501233 -0.0300157 0)
(0.0231376 0.00495151 0)
(-0.0786677 0.0383543 0)
(0.0203505 -0.0175943 0)
(-0.0522844 0.202454 0)
(-0.0246407 -0.230951 0)
(-0.00125089 -0.116034 0)
(0.0331132 -0.0173375 0)
(0.0281334 0.14044 0)
(-0.214197 0.102835 0)
(-0.215469 -0.13255 0)
(0.106115 0.0356528 0)
(0.269384 -0.0858368 0)
(0.112283 0.00204736 0)
(-0.0148014 0.0612766 0)
(-0.18997 0.0555822 0)
(0.237045 -0.0530079 0)
(0.00249725 0.0921116 0)
(-0.00258957 0.0146669 0)
(-0.236539 -0.0496294 0)
(0.0328673 -0.157758 0)
(-0.130643 0.0768745 0)
(0.0373833 0.0154181 0)
(0.227212 0.134346 0)
(-0.0927454 0.0308765 0)
(0.0321092 -0.110041 0)
(-0.165971 0.042709 0)
(-0.0249137 0.0394679 0)
(-0.14969 0.0337683 0)
(-0.0387883 0.0687121 0)
(-0.000100241 0.0318282 0)
(-0.14885 0.0374847 0)
(0.0127457 -0.107545 0)
(0.130975 -0.0912407 0)
(-0.115211 0.0617537 0)
(-0.0346727 -0.0014982 0)
(-0.0209101 -0.0254015 0)
(0.167723 0.0609586 0)
(-0.0280083 0.0844602 0)
(0.121608 -0.225644 0)
(-0.0441653 -0.119176 0)
(-0.025127 0.15443 0)
(-0.118991 0.0205615 0)
(0.0416631 0.079501 0)
(-0.0119326 -0.00583028 0)
(-0.136976 -0.0177201 0)
(0.158033 -0.000453754 0)
(-0.0133994 0.0979146 0)
(-0.0093209 -0.111769 0)
(-0.0219713 -0.0169389 0)
(-0.0283777 -0.00972138 0)
(-0.0133434 -0.0837988 0)
(0.0071131 -0.0355773 0)
(-0.124288 0.00480282 0)
(-0.0733754 0.100651 0)
(-0.170139 -0.0510255 0)
(-0.0156541 -0.0595002 0)
(0.0314109 0.143457 0)
(0.00612886 -0.0646758 0)
(-0.0462496 -0.023291 0)
(0.0255904 0.0780778 0)
(-0.108896 0.00774109 0)
(0.117039 0.0559902 0)
(-0.0770537 -0.149446 0)
(-0.224846 -0.113809 0)
(-0.292529 0.0961839 0)
(0.0610519 0.0634972 0)
(0.0720651 -0.0414835 0)
(0.0178172 -0.029991 0)
(0.0618255 0.00584791 0)
(0.224468 0.0346025 0)
(-0.105507 0.0397212 0)
(0.0875732 -0.0601763 0)
(-0.0275758 -0.0847479 0)
(-0.020503 0.0705374 0)
(-0.0220568 0.0527842 0)
(-0.0731114 -0.069227 0)
(-0.052947 0.0543292 0)
(0.0527559 0.128953 0)
(0.0180481 -0.0178777 0)
(-0.0149776 -0.0358854 0)
(0.0114364 -0.00852408 0)
(0.0019723 0.0788092 0)
(0.0459677 0.00895506 0)
(0.012902 -0.121664 0)
(-0.0539987 0.0918953 0)
(0.022022 0.145124 0)
(0.320281 -0.0295085 0)
(-0.00854158 -0.113265 0)
(0.204588 -0.0287161 0)
(0.28761 0.010971 0)
(-0.0714681 -0.125684 0)
(0.0567915 0.109477 0)
(0.0216747 0.00776162 0)
(0.0195544 0.109286 0)
(0.00078394 -0.0505694 0)
(0.0135273 -0.0828516 0)
(-0.0489542 0.0512137 0)
(-0.0298799 -0.0417564 0)
(-0.0593076 -0.0117841 0)
(0.0401701 0.117926 0)
(-0.0502213 0.151722 0)
(9.79536e-05 -0.0777541 0)
(-0.0107345 -0.19388 0)
(-0.0163178 0.110284 0)
(-0.0880056 0.00304797 0)
(0.0143607 -0.105678 0)
(0.0698664 -0.0555864 0)
(0.0171852 0.0348286 0)
(0.119577 0.115954 0)
(-0.0109502 -0.0994813 0)
(0.161511 -0.233842 0)
(-0.0135872 -0.0361043 0)
(0.00653375 0.172682 0)
(0.0143628 0.1073 0)
(0.0242197 -0.0637279 0)
(-0.0301196 -0.0925022 0)
(-0.0436038 0.203089 0)
(-0.0936333 0.124963 0)
(0.0895769 -0.0792551 0)
(-0.019651 -0.28091 0)
(-0.162406 0.000212139 0)
(0.0105473 0.089224 0)
(0.00546505 -0.0940391 0)
(0.0417668 0.196548 0)
(0.147061 0.13229 0)
(-0.258661 -0.0527662 0)
(-0.0955036 -0.161836 0)
(0.0662071 0.00830385 0)
(0.0427917 0.0337694 0)
(0.00949655 0.180204 0)
(-0.23989 0.0494826 0)
(0.0558655 0.0253352 0)
(-0.389317 -0.0294897 0)
(-0.0443243 -0.0544247 0)
(0.0859344 -0.0475083 0)
(0.151548 -0.00488845 0)
(-0.150255 0.0238564 0)
(0.0603307 -0.0383983 0)
(0.0348376 -0.0564503 0)
(0.0104841 -0.00329518 0)
(-0.155512 0.0568463 0)
(-0.00930151 0.00124888 0)
(-0.121779 -0.0851647 0)
(0.0236197 0.0906413 0)
(0.000311765 0.0520212 0)
(0.0169598 -0.112591 0)
(-0.126364 0.0272608 0)
(-0.141414 0.00660194 0)
(-0.0291859 -0.0838794 0)
(0.257363 -0.0741121 0)
(0.0654267 0.0284067 0)
(-0.09171 0.0119579 0)
(0.0465568 0.0617304 0)
(-0.0481565 0.0403228 0)
(0.0116588 -0.0424188 0)
(-0.0490203 -0.112052 0)
(0.00350045 -0.00674181 0)
(0.0167815 0.0457206 0)
(0.0790112 0.0801776 0)
(0.0376595 0.0827466 0)
(-0.0530173 -0.0988454 0)
(0.206439 0.0700719 0)
(0.0749224 0.0669996 0)
(-0.091742 -0.0831238 0)
(-0.235518 -0.0677435 0)
(-0.00642612 -0.0167948 0)
(-0.0446623 -0.00327735 0)
(0.0493738 -0.0421535 0)
(0.0369806 -0.0761905 0)
(-0.0617737 0.0474352 0)
(0.112218 0.024388 0)
(-0.0617457 0.03475 0)
(-0.201348 0.0207635 0)
(-0.156134 -0.0221742 0)
(-0.00992676 -0.047475 0)
(0.0966656 -0.0802967 0)
(0.107147 0.0950754 0)
(-0.0196682 0.145519 0)
(0.0480294 -0.0292014 0)
(0.134348 -0.0427007 0)
(0.000321823 0.00169334 0)
(0.0183976 0.048984 0)
(-0.00347756 0.110606 0)
(0.00124035 -0.0884246 0)
(0.0388436 0.0425429 0)
(0.0333206 -0.0306452 0)
(0.0349544 -0.0420368 0)
(0.0864461 0.0273744 0)
(-0.0407645 -0.0306247 0)
(0.0399507 0.0160021 0)
(0.0261405 -0.14282 0)
(0.0511276 0.186471 0)
(-0.0736215 0.0889744 0)
(0.155481 -0.0718999 0)
(0.00864457 -0.0516533 0)
(0.059049 0.13157 0)
(-0.0130044 -0.141003 0)
(-0.0990061 -0.0775179 0)
(0.0282435 0.036304 0)
(-0.102716 0.0635081 0)
(0.0223898 0.0723871 0)
(0.0906089 -0.0242535 0)
(0.0202502 0.00143771 0)
(0.0484561 -0.00474177 0)
(0.00164867 -0.0827739 0)
(0.157557 -0.189499 0)
(-0.157223 -0.0237303 0)
(0.0991584 0.134686 0)
(0.106666 0.0695105 0)
(0.0755175 -0.119839 0)
(-0.0357441 -0.110154 0)
(0.0321338 0.0689069 0)
(-0.0148563 -0.0182837 0)
(0.212331 0.0313798 0)
(-0.105982 0.0924267 0)
(-0.0612837 0.0169936 0)
(-0.17373 -0.0365185 0)
(0.163576 -0.00983546 0)
(0.0271399 -0.038676 0)
(-0.022545 -0.0971083 0)
(-0.0251346 0.135384 0)
(-0.107704 0.0726654 0)
(0.000286152 0.0307603 0)
(0.14632 -0.0184449 0)
(0.143523 -0.0222798 0)
(0.177981 0.0573586 0)
(-0.142619 0.0360929 0)
(-0.109881 -0.0464792 0)
(0.00223949 -0.0506343 0)
(-0.11253 0.110766 0)
(-0.0272251 0.0502981 0)
(0.0544966 0.0344587 0)
(0.132649 0.0901489 0)
(-0.0955112 -0.0572494 0)
(0.0190703 -0.0551801 0)
(0.0126394 -0.0832088 0)
(-0.0122571 0.077033 0)
(-0.208675 0.0660573 0)
(-0.0363819 -0.187633 0)
(0.0544178 -0.00804434 0)
(0.102465 0.0307504 0)
(-0.0124341 0.127392 0)
(-0.0188161 -0.0610961 0)
(-0.113141 -0.0587358 0)
(0.00306058 0.111551 0)
(-0.0662411 0.0108408 0)
(-0.06463 0.108043 0)
(0.051562 -0.0145158 0)
(-0.10645 -0.27425 0)
(-0.25174 -0.165142 0)
(0.021283 0.173588 0)
(0.124321 0.125527 0)
(0.0723394 -0.0356165 0)
(-0.0781983 -0.0753376 0)
(-0.110202 -0.102314 0)
(-0.0325192 0.0449579 0)
(-0.0290971 0.0554715 0)
(-0.13909 -0.0241739 0)
(0.00446578 -0.0139685 0)
(0.00999116 0.0947601 0)
(0.0586862 -0.0794106 0)
(-0.00997663 -0.0572526 0)
(0.0436873 0.135429 0)
(-0.0211021 0.116718 0)
(0.0196247 -0.0720408 0)
(-0.0962943 -0.0597437 0)
(0.115289 -0.0330903 0)
(-0.0426975 -0.0219114 0)
(0.0209144 0.00806709 0)
(-0.0526346 0.0134073 0)
(-0.0777466 0.0415416 0)
(-0.0112116 0.0875656 0)
(0.0156995 -0.0195616 0)
(0.0239313 -0.0827438 0)
(-0.0717398 -0.0188621 0)
(-0.0952726 -0.114125 0)
(0.0595537 0.117809 0)
(-0.00626539 0.0617561 0)
(0.0315801 -0.124772 0)
(0.0323464 -0.00845149 0)
(-0.00835135 -0.0238732 0)
(0.0233225 0.0794789 0)
(-0.0013799 0.0480115 0)
(0.00728159 -0.0522817 0)
(0.00258932 0.0180734 0)
(-0.00523814 0.0993926 0)
(0.0338089 -0.061568 0)
(-0.0612704 -0.0272234 0)
(0.0777863 -0.0680529 0)
(0.136901 0.0139964 0)
(-0.147753 0.0653798 0)
(-0.192062 -0.0806498 0)
(0.296046 -0.048772 0)
(0.0241197 0.00354887 0)
(0.0482601 -0.00600086 0)
(-0.00128258 0.0439 0)
(0.0733272 -0.0265228 0)
(-0.176819 0.0293208 0)
(-0.00367601 0.00315284 0)
(0.141361 -0.0643473 0)
(0.0583189 -0.0155182 0)
(-0.188047 0.0539439 0)
(-0.0698267 0.0502603 0)
(-0.0302092 -0.0559076 0)
(0.148575 -0.107603 0)
(-0.0403303 -0.0299416 0)
(-0.153701 -0.0689808 0)
(0.0103355 0.0184521 0)
(0.0382635 0.0145814 0)
(-0.0257255 0.0124614 0)
(-0.0380817 -0.000678202 0)
(0.00620217 -0.0653193 0)
(0.0672169 -0.0743181 0)
(-0.0114232 -0.074747 0)
(0.0262776 0.0336099 0)
(0.128505 0.0901956 0)
(0.066234 -0.0201767 0)
(-0.012477 0.0719782 0)
(0.0215517 0.236426 0)
(-0.07545 -0.00140155 0)
(0.00471222 0.00049515 0)
(0.0826122 -0.0912342 0)
(0.0278427 -0.0160252 0)
(0.0138397 -0.112697 0)
(0.00340657 0.0292814 0)
(-0.113753 0.171597 0)
(0.0537597 0.0177797 0)
(0.043957 -0.0437366 0)
(0.208516 -0.0270287 0)
(-0.0477227 0.0943419 0)
(0.0441909 0.0490595 0)
(0.0814976 -0.0459232 0)
(-0.00552049 0.0495987 0)
(-0.0140292 0.0488417 0)
(-0.085368 0.00226408 0)
(-0.00208312 -0.0921052 0)
(0.0553147 -0.00633482 0)
(-0.046775 0.126974 0)
(-0.0375739 -0.213979 0)
(0.0295574 -0.0221273 0)
(0.000130907 0.0513465 0)
(-0.0518057 -0.0196095 0)
(-0.0334656 0.0561934 0)
(0.0397673 -0.0145459 0)
(0.0515746 0.0230435 0)
(0.054016 0.123325 0)
(-0.0303507 -0.0772268 0)
(0.297185 -0.13905 0)
(0.146822 0.0516835 0)
(-0.0590764 -0.0380179 0)
(-0.165341 -0.175477 0)
(0.014828 -0.0692935 0)
(0.0456335 0.138016 0)
(-0.0944357 0.0388035 0)
(-0.00717605 0.0095679 0)
(-0.0644474 0.0416136 0)
(-0.122779 -0.0615066 0)
(-0.0198342 -0.0150923 0)
(-0.0428325 -0.0101619 0)
(0.00398794 0.0167989 0)
(-0.0192081 0.0315942 0)
(-0.0370385 0.112214 0)
(-0.0112364 0.119588 0)
(0.0771382 0.0237222 0)
(0.0181213 -0.101091 0)
(-0.139242 -0.0810135 0)
(0.068465 -0.0566315 0)
(-0.0288128 -0.0559712 0)
(-0.031766 0.0404807 0)
(0.00457917 0.112558 0)
(-0.046846 0.0562434 0)
(0.00534678 -0.0637284 0)
(0.0866276 -0.056697 0)
(-0.00713155 0.12901 0)
(0.0182468 -0.0427611 0)
(0.0454303 -0.116625 0)
(0.0696569 -0.00675332 0)
(-0.0487087 0.0486879 0)
(0.0440582 -0.0561803 0)
(0.0596219 -0.000661243 0)
(-0.00143686 0.0127323 0)
(-0.00318903 0.0319694 0)
(-0.00156883 0.0243119 0)
(-0.000145961 -0.021027 0)
(-0.00269262 -0.0514719 0)
(0.0334236 0.124371 0)
(0.0168926 -0.062445 0)
(0.0098679 -0.104034 0)
(0.00474158 -0.0624345 0)
(-0.00500074 0.148522 0)
(0.0204485 0.171204 0)
(-0.0200031 -0.322253 0)
(-0.0332948 0.0245778 0)
(-0.0435007 0.155646 0)
(0.0967409 -0.0900682 0)
(-0.00234479 0.0107852 0)
(-0.0151498 0.0700532 0)
(-0.00372259 -0.104166 0)
(0.00145456 -0.221038 0)
(-0.168921 0.00216571 0)
(0.0979751 0.224382 0)
(0.0414102 0.102788 0)
(0.23059 -0.0363258 0)
(0.0542235 -0.120663 0)
(-0.0976147 -0.0665015 0)
(-0.104477 0.0721929 0)
(0.0107906 0.0354268 0)
(0.0140082 -0.243301 0)
(0.00475145 0.0576124 0)
(0.00459047 0.198845 0)
(-0.0739477 -0.0360372 0)
(-0.0216362 -0.14548 0)
(-0.00309385 -0.0131185 0)
(-0.0645863 0.0834234 0)
(-0.121454 -0.0841542 0)
(-0.0975811 0.00654434 0)
(-0.0405074 0.100105 0)
(-0.0232022 0.131736 0)
(0.0150782 0.0505586 0)
(0.0480932 0.0381016 0)
(0.0284508 -0.103346 0)
(0.0830688 -0.0255547 0)
(-0.0509796 -0.045619 0)
(-0.0745138 -0.0919536 0)
(-0.0345592 0.0633669 0)
(0.054362 0.0260689 0)
(-0.0866607 0.0211494 0)
(-0.103999 0.0254041 0)
(-0.0492774 0.0266387 0)
(-0.190027 0.0297105 0)
(0.0161443 0.123005 0)
(-0.0805036 0.0130809 0)
(0.0493513 -0.103463 0)
(-0.00616283 -0.0827574 0)
(-0.023885 0.00933166 0)
(0.0985193 0.128913 0)
(0.0715391 0.0112581 0)
(0.0527636 0.0104253 0)
(-0.00957564 -0.0435981 0)
(-0.0163546 -0.0771146 0)
(-0.00407195 -0.00424239 0)
(-0.00262135 -0.0425537 0)
(-0.00869969 0.140588 0)
(0.00011936 -0.0363623 0)
(0.0439075 -0.0647995 0)
(-0.0390633 0.0884586 0)
(0.158417 -0.0981127 0)
(0.0363823 -0.160482 0)
(0.0448992 0.119535 0)
(0.0546576 0.133111 0)
(-0.0899558 -0.124738 0)
(0.0170785 -0.0495525 0)
(-0.0542494 0.123454 0)
(-0.0295558 -0.112522 0)
(-0.0407646 0.083162 0)
(0.0652301 0.0361587 0)
(0.198895 -0.143447 0)
(-0.0623576 0.0555897 0)
(0.0430374 0.149191 0)
(-0.11921 -0.0825601 0)
(-0.0454582 0.0430933 0)
(0.0251278 0.133969 0)
(-0.0125153 -0.0144364 0)
(0.0418273 -0.109136 0)
(0.046729 -0.101983 0)
(0.00509272 -0.0248871 0)
(0.0114757 0.0246782 0)
(0.0417304 -0.00457851 0)
(-0.0874912 0.0201523 0)
(-0.0369274 0.0746279 0)
(0.10132 -0.0410242 0)
(0.00186871 0.0252842 0)
(-0.0348891 -0.0108008 0)
(-0.0705659 -0.09486 0)
(0.0276226 0.00872325 0)
(0.0851277 0.0579533 0)
(-0.0758197 0.0153389 0)
(-0.0266384 -0.0689764 0)
(0.00225438 -0.0136705 0)
(-0.0432482 0.0027337 0)
(-0.000314019 -0.00448011 0)
(-0.0164162 0.0733784 0)
(0.00663372 0.0190759 0)
(-0.00307628 -0.0673492 0)
(-0.00344772 0.0380316 0)
(0.00215378 0.0606711 0)
(-0.043217 0.10766 0)
(-0.0995904 -0.160403 0)
(-0.0131358 -0.0521524 0)
(-0.0113428 0.0104514 0)
(-0.00461587 -0.0286878 0)
(-0.00613054 0.0997004 0)
(-0.0533707 0.00188366 0)
(0.119845 -0.120178 0)
(0.0622752 0.0272873 0)
(-0.00108739 0.0887214 0)
(0.0566388 0.0197162 0)
(-0.0121905 -0.0372173 0)
(-0.0495522 -0.103221 0)
(-0.0958272 0.0683786 0)
(-0.024623 -0.0817987 0)
(0.273738 -0.0727788 0)
(0.0971652 0.180475 0)
(0.156031 0.146311 0)
(-0.0121384 0.107273 0)
(0.00555292 -0.0550179 0)
(-0.0374746 -0.234125 0)
(0.126726 -0.107625 0)
(-0.0614651 0.189103 0)
(0.429536 0.143242 0)
(-0.0455418 -0.187523 0)
(-0.0401231 -0.194201 0)
(-0.203751 0.0576265 0)
(-0.00287999 0.0852013 0)
(0.108129 0.0685248 0)
(-0.0711239 0.0878086 0)
(-0.0468345 -0.0895893 0)
(-0.120116 0.0786442 0)
(0.0783572 0.00495431 0)
(0.172064 -0.00701339 0)
(-0.000668821 -0.021058 0)
(0.00693608 -0.0176945 0)
(-0.0287527 0.0102767 0)
(-0.0176671 -0.102497 0)
(-0.0528073 -0.025859 0)
(-0.0452235 0.031009 0)
(0.0139695 0.170322 0)
(-0.0280231 0.140432 0)
(-0.0149281 -0.0245981 0)
(-0.0104462 0.00570119 0)
(0.00291843 0.0448729 0)
(-0.00682486 0.0581365 0)
(-0.00441618 -0.119528 0)
(0.00278774 -0.107016 0)
(0.0238399 0.0302626 0)
(-0.0107808 0.0816431 0)
(0.039152 -0.0703524 0)
(0.0696146 0.0402085 0)
(0.00346782 0.00460791 0)
(0.0301628 -0.023696 0)
(0.00287049 0.0336414 0)
(-0.0166644 -0.0323576 0)
(-0.0279926 -0.0175793 0)
(-0.0276523 0.0344292 0)
(0.00696165 -0.0464298 0)
(-0.0433396 -0.0663388 0)
(0.0430404 -0.0482476 0)
(0.0603929 -0.0388817 0)
(-0.14021 0.0909648 0)
(-0.147821 0.110123 0)
(-0.0696999 -0.220821 0)
(0.100023 -0.0734338 0)
(-0.0216689 0.191291 0)
(0.0190113 -0.0469813 0)
(-0.0948414 -0.0431354 0)
(0.0768336 0.0360385 0)
(0.0478901 0.076215 0)
(0.0985108 -0.026134 0)
(-0.0303098 0.0340591 0)
(0.0672199 0.0364583 0)
(0.110076 0.0244396 0)
(-0.00720102 0.0503245 0)
(-0.0147727 0.0165811 0)