/*--------------------------------*- C++ -*----------------------------------*\
| =========                 |                                                 |
| \\      /  F ield         | OpenFOAM: The Open Source CFD Toolbox           |
|  \\    /   O peration     | Version:  v2012                                 |
|   \\  /    A nd           | Website:  www.openfoam.com                      |
|    \\/     M anipulation  |                                                 |
\*---------------------------------------------------------------------------*/
FoamFile
{
    version     2.0;
    format      ascii;
    class       volVectorField;
    location    "70";
    object      Usup;
}
// * * * * * * * * * * * * * * * * * * * * * * * * * * * * * * * * * * * * * //

dimensions      [0 1 -1 0 0 0 0];


internalField   nonuniform List<vector> 
4000
(
(-1.90905e-16 -1.79078e-16 0)
(-4.6815e-16 9.69648e-17 0)
(-5.22685e-16 2.31101e-16 0)
(-5.80455e-16 3.20387e-16 0)
(-8.5894e-16 4.14683e-16 0)
(-1.2786e-15 1.47503e-16 0)
(-2.32168e-15 -5.04979e-16 0)
(-3.36198e-15 4.60403e-17 0)
(-3.1602e-15 7.18942e-16 0)
(-2.55524e-15 8.16919e-16 0)
(-2.62425e-15 5.45694e-16 0)
(-3.19193e-15 3.25625e-16 0)
(-3.84797e-15 5.03521e-16 0)
(-3.89853e-15 1.10169e-15 0)
(-3.48356e-15 1.50402e-15 0)
(-3.46709e-15 1.12427e-15 0)
(-3.80696e-15 7.60453e-16 0)
(-4.32752e-15 9.08392e-16 0)
(-4.54894e-15 1.14879e-15 0)
(-4.5262e-15 1.32865e-15 0)
(-4.97294e-15 1.34105e-15 0)
(-5.24251e-15 1.27711e-15 0)
(-4.74005e-15 1.56795e-15 0)
(-4.01949e-15 1.60927e-15 0)
(-3.51863e-15 1.83022e-15 0)
(-3.06045e-15 2.07732e-15 0)
(-2.72628e-15 2.27925e-15 0)
(-2.60243e-15 2.32148e-15 0)
(-2.36108e-15 2.16149e-15 0)
(-1.71182e-15 2.26127e-15 0)
(-1.10788e-15 2.33418e-15 0)
(-9.20826e-16 2.22406e-15 0)
(-7.41479e-16 2.05294e-15 0)
(-3.35471e-16 2.04045e-15 0)
(-1.67178e-16 1.47152e-15 0)
(-6.72049e-16 1.3521e-15 0)
(-1.17421e-15 1.4903e-15 0)
(-1.24099e-15 1.37735e-15 0)
(-1.10788e-15 1.25091e-15 0)
(-6.00864e-16 1.2509e-15 0)
(4.87255e-17 8.94719e-16 0)
(4.5063e-16 5.56617e-16 0)
(4.80644e-16 2.39122e-16 0)
(5.46827e-17 9.39853e-18 0)
(-2.04672e-16 2.56876e-16 0)
(-1.36523e-16 4.34165e-16 0)
(-3.12506e-16 1.5008e-16 0)
(-6.81983e-16 -1.83632e-16 0)
(-4.96875e-16 -9.97694e-18 0)
(-1.38483e-16 -2.56711e-16 0)
(-1.46505e-16 -2.89898e-16 0)
(-4.03236e-16 -3.01838e-16 0)
(-6.15773e-17 1.27395e-16 0)
(5.0823e-16 1.72175e-17 0)
(5.73278e-16 -4.78748e-17 0)
(8.42551e-16 1.42337e-16 0)
(9.72513e-16 -4.33277e-17 0)
(6.99244e-16 -5.42656e-17 0)
(7.61686e-16 -9.52862e-17 0)
(7.11594e-16 -3.32205e-16 0)
(4.26319e-16 -2.11557e-16 0)
(4.99271e-16 1.84624e-17 0)
(6.87027e-16 1.36305e-16 0)
(5.09618e-16 7.3853e-17 0)
(1.98909e-17 -8.78423e-17 0)
(-1.35673e-16 -1.29289e-16 0)
(-1.68709e-17 -1.78059e-17 0)
(2.89774e-16 1.45196e-16 0)
(5.27611e-16 1.19981e-16 0)
(4.17011e-16 -1.39565e-16 0)
(4.57689e-16 -2.15835e-16 0)
(4.92801e-16 -9.42624e-18 0)
(9.52381e-17 -3.14729e-17 0)
(-1.28018e-16 -1.47602e-16 0)
(-1.05265e-16 -2.04308e-16 0)
(-4.46706e-16 -4.95525e-16 0)
(-1.16687e-15 -4.8903e-16 0)
(-1.82967e-15 -5.38578e-16 0)
(-2.21555e-15 -6.31907e-16 0)
(-2.61949e-15 -6.38829e-16 0)
(-3.01071e-15 -4.31388e-16 0)
(-3.12633e-15 -2.84325e-16 0)
(-2.80529e-15 1.09458e-16 0)
(-2.41844e-15 -1.18972e-16 0)
(-2.49719e-15 -5.5563e-16 0)
(-2.62624e-15 -2.87422e-17 0)
(-2.21646e-15 1.60522e-16 0)
(-1.36276e-15 -1.35416e-17 0)
(-4.12633e-16 1.14318e-16 0)
(-9.25245e-18 -1.86324e-16 0)
(5.47346e-17 -5.20799e-17 0)
(-3.87397e-17 -1.65283e-17 0)
(-4.58776e-16 7.78906e-17 0)
(-5.81594e-16 -8.56177e-18 0)
(-9.22322e-16 -1.62843e-16 0)
(-1.37505e-15 1.19406e-16 0)
(-9.92476e-16 2.82064e-16 0)
(-3.28239e-16 2.09163e-16 0)
(-3.57567e-16 -3.38763e-17 0)
(-2.88229e-16 1.04912e-16 0)
(-2.35487e-16 -2.03367e-16 0)
(-9.08127e-16 1.3359e-16 0)
(-1.47153e-15 5.207e-16 0)
(-1.90458e-15 6.47087e-16 0)
(-3.02037e-15 7.48966e-16 0)
(-4.83963e-15 3.44261e-16 0)
(-6.62036e-15 -4.28841e-16 0)
(-7.8793e-15 3.64452e-16 0)
(-8.13499e-15 1.53214e-15 0)
(-7.90796e-15 2.05883e-15 0)
(-8.39748e-15 1.97058e-15 0)
(-9.31458e-15 1.46086e-15 0)
(-1.01029e-14 1.70541e-15 0)
(-1.01894e-14 2.94771e-15 0)
(-1.02882e-14 4.00192e-15 0)
(-1.0914e-14 3.5071e-15 0)
(-1.13119e-14 2.66805e-15 0)
(-1.20006e-14 2.7017e-15 0)
(-1.258e-14 3.38041e-15 0)
(-1.2911e-14 3.79073e-15 0)
(-1.39423e-14 3.84313e-15 0)
(-1.41374e-14 3.8384e-15 0)
(-1.29518e-14 4.36295e-15 0)
(-1.13453e-14 5.08391e-15 0)
(-9.84608e-15 5.72316e-15 0)
(-8.63538e-15 6.39907e-15 0)
(-7.83222e-15 6.54943e-15 0)
(-7.51566e-15 6.63495e-15 0)
(-6.6501e-15 6.62222e-15 0)
(-4.92953e-15 6.98742e-15 0)
(-3.62447e-15 6.86074e-15 0)
(-3.10896e-15 6.69039e-15 0)
(-2.43758e-15 6.1973e-15 0)
(-1.84846e-15 5.88079e-15 0)
(-1.60015e-15 4.97168e-15 0)
(-2.01983e-15 4.34495e-15 0)
(-2.99772e-15 4.47033e-15 0)
(-3.34152e-15 4.11695e-15 0)
(-2.86331e-15 3.47768e-15 0)
(-1.86342e-15 3.13293e-15 0)
(-6.62064e-16 2.54165e-15 0)
(3.04312e-16 1.82938e-15 0)
(4.97629e-16 1.08694e-15 0)
(1.27007e-16 4.01525e-16 0)
(-1.33524e-16 8.17624e-16 0)
(-5.38265e-16 7.74933e-16 0)
(-1.3148e-15 2.95058e-16 0)
(-1.63988e-15 -2.18605e-16 0)
(-1.23939e-15 5.35462e-17 0)
(-7.01903e-16 -3.43711e-16 0)
(-4.55908e-16 -7.58718e-16 0)
(-4.18789e-16 -6.09923e-16 0)
(2.69729e-16 2.06545e-16 0)
(1.09975e-15 -1.19957e-16 0)
(1.68717e-15 -3.79294e-16 0)
(2.1985e-15 1.73706e-17 0)
(2.33149e-15 -1.43809e-16 0)
(1.99868e-15 -2.186e-16 0)
(1.87661e-15 -2.57923e-16 0)
(1.83953e-15 -8.53639e-16 0)
(1.65086e-15 -6.56081e-16 0)
(1.71974e-15 -2.22845e-16 0)
(1.75598e-15 1.18866e-16 0)
(1.1251e-15 2.71315e-16 0)
(1.63407e-16 -5.33512e-17 0)
(-8.58533e-18 -5.07284e-17 0)
(3.60688e-16 1.18963e-16 0)
(8.68734e-16 2.76467e-16 0)
(1.03091e-15 6.07471e-17 0)
(8.42312e-16 -5.08915e-16 0)
(1.20247e-15 -6.57852e-16 0)
(1.16436e-15 -4.21046e-16 0)
(7.77936e-17 -5.22309e-16 0)
(-5.60429e-16 -4.92499e-16 0)
(-9.51721e-16 -5.127e-16 0)
(-1.87291e-15 -1.06116e-15 0)
(-3.40534e-15 -1.39576e-15 0)
(-5.12141e-15 -1.45949e-15 0)
(-6.22239e-15 -1.59797e-15 0)
(-7.06482e-15 -1.61389e-15 0)
(-7.8673e-15 -1.27137e-15 0)
(-8.00794e-15 -1.17702e-15 0)
(-7.67302e-15 -6.74165e-16 0)
(-7.50191e-15 -6.1962e-16 0)
(-6.92394e-15 -8.91416e-16 0)
(-6.45562e-15 -2.25162e-16 0)
(-5.89231e-15 5.06497e-16 0)
(-3.94076e-15 6.88496e-16 0)
(-1.87844e-15 4.39521e-16 0)
(-7.76466e-16 -3.58322e-16 0)
(-2.36255e-16 -1.96103e-16 0)
(-4.48168e-16 -1.73192e-16 0)
(-1.35548e-15 3.74974e-18 0)
(-1.94408e-15 8.18658e-17 0)
(-2.41306e-15 -2.41935e-16 0)
(-2.96626e-15 2.31586e-16 0)
(-2.46466e-15 4.5809e-16 0)
(-1.429e-15 2.90837e-16 0)
(-1.05219e-15 6.54626e-17 0)
(-6.34039e-16 2.0002e-16 0)
(-4.46992e-16 -4.00343e-17 0)
(-1.43281e-15 2.66825e-16 0)
(-2.45299e-15 7.71981e-16 0)
(-3.50513e-15 6.00214e-16 0)
(-5.31784e-15 6.81234e-16 0)
(-7.97763e-15 4.19666e-16 0)
(-1.04147e-14 6.49173e-16 0)
(-1.20258e-14 1.26581e-15 0)
(-1.2457e-14 2.40262e-15 0)
(-1.25265e-14 3.09605e-15 0)
(-1.37849e-14 3.1026e-15 0)
(-1.52486e-14 2.68512e-15 0)
(-1.58237e-14 3.19039e-15 0)
(-1.57122e-14 4.75876e-15 0)
(-1.64152e-14 5.91392e-15 0)
(-1.80158e-14 6.06377e-15 0)
(-1.8734e-14 5.1323e-15 0)
(-1.91493e-14 4.76249e-15 0)
(-1.97761e-14 5.61527e-15 0)
(-2.05934e-14 6.15498e-15 0)
(-2.19353e-14 6.17733e-15 0)
(-2.19583e-14 6.56933e-15 0)
(-1.98913e-14 6.7855e-15 0)
(-1.74873e-14 7.90596e-15 0)
(-1.54856e-14 9.11043e-15 0)
(-1.3968e-14 1.04613e-14 0)
(-1.28698e-14 1.09436e-14 0)
(-1.18905e-14 1.1086e-14 0)
(-1.02861e-14 1.15108e-14 0)
(-8.12278e-15 1.20038e-14 0)
(-6.39035e-15 1.14523e-14 0)
(-5.46366e-15 1.10637e-14 0)
(-4.56707e-15 1.01903e-14 0)
(-3.6508e-15 9.45715e-15 0)
(-3.4218e-15 8.543e-15 0)
(-3.75664e-15 7.75497e-15 0)
(-4.73495e-15 7.15851e-15 0)
(-5.4487e-15 6.37455e-15 0)
(-4.81915e-15 5.23073e-15 0)
(-3.1643e-15 4.65268e-15 0)
(-1.4652e-15 4.22633e-15 0)
(-2.68474e-16 3.41148e-15 0)
(-3.26232e-17 2.19019e-15 0)
(-1.07169e-16 1.27961e-15 0)
(-3.62416e-16 9.70084e-16 0)
(-1.14019e-15 5.139e-16 0)
(-2.02575e-15 2.52083e-16 0)
(-2.25609e-15 1.02617e-16 0)
(-1.75868e-15 -8.84267e-17 0)
(-1.39652e-15 -5.75536e-16 0)
(-8.08977e-16 -7.92931e-16 0)
(-1.05738e-16 -5.15944e-16 0)
(6.01326e-16 4.36846e-17 0)
(1.39638e-15 -1.99214e-16 0)
(2.57754e-15 -3.47519e-16 0)
(3.48561e-15 -3.48217e-16 0)
(3.53588e-15 -5.46409e-16 0)
(3.14997e-15 -7.08654e-16 0)
(2.77655e-15 -6.63704e-16 0)
(2.71207e-15 -1.2451e-15 0)
(2.80527e-15 -1.01353e-15 0)
(2.92916e-15 -4.0282e-16 0)
(2.92936e-15 2.96002e-16 0)
(1.83412e-15 5.14695e-16 0)
(4.75914e-16 5.90049e-17 0)
(3.17509e-16 2.07852e-16 0)
(6.75545e-16 5.08676e-16 0)
(1.13651e-15 4.10516e-16 0)
(1.18187e-15 -1.98028e-16 0)
(1.06191e-15 -6.04975e-16 0)
(1.60283e-15 -7.67431e-16 0)
(1.398e-15 -9.48719e-16 0)
(7.09714e-17 -1.02331e-15 0)
(-8.3722e-16 -6.10178e-16 0)
(-1.90044e-15 -9.24792e-16 0)
(-3.65651e-15 -1.75496e-15 0)
(-5.75191e-15 -2.37177e-15 0)
(-8.00528e-15 -2.46146e-15 0)
(-9.7443e-15 -2.35901e-15 0)
(-1.09917e-14 -2.54923e-15 0)
(-1.22158e-14 -2.40675e-15 0)
(-1.25168e-14 -2.03929e-15 0)
(-1.18095e-14 -1.53934e-15 0)
(-1.13659e-14 -1.09703e-15 0)
(-1.07114e-14 -8.19204e-16 0)
(-9.70128e-15 -7.4723e-16 0)
(-8.42913e-15 1.90558e-16 0)
(-6.3522e-15 9.57454e-16 0)
(-4.09685e-15 6.99644e-16 0)
(-2.14134e-15 -7.65841e-17 0)
(-9.94066e-16 -1.54457e-16 0)
(-1.16252e-15 -1.60427e-16 0)
(-2.1233e-15 -8.81505e-17 0)
(-3.0925e-15 1.25787e-16 0)
(-3.75764e-15 -9.73974e-17 0)
(-4.2511e-15 3.29199e-16 0)
(-3.73502e-15 3.69144e-16 0)
(-2.33911e-15 1.50753e-16 0)
(-1.60298e-15 -1.50726e-16 0)
(-9.86237e-16 -5.37486e-17 0)
(-5.57727e-16 1.86049e-16 0)
(-1.88765e-15 7.21552e-16 0)
(-3.69784e-15 1.01022e-15 0)
(-5.34222e-15 8.34581e-16 0)
(-7.6285e-15 7.31434e-16 0)
(-1.07206e-14 1.08987e-15 0)
(-1.34964e-14 1.8343e-15 0)
(-1.55042e-14 2.61972e-15 0)
(-1.63837e-14 3.54079e-15 0)
(-1.7279e-14 3.81391e-15 0)
(-1.90953e-14 3.94453e-15 0)
(-2.04622e-14 4.1718e-15 0)
(-2.06131e-14 4.86669e-15 0)
(-2.06883e-14 6.39332e-15 0)
(-2.20184e-14 7.59299e-15 0)
(-2.44973e-14 8.41347e-15 0)
(-2.58467e-14 8.14747e-15 0)
(-2.59005e-14 7.40033e-15 0)
(-2.63379e-14 7.68005e-15 0)
(-2.76204e-14 8.0316e-15 0)
(-2.90199e-14 8.48092e-15 0)
(-2.89514e-14 9.40824e-15 0)
(-2.64744e-14 9.35793e-15 0)
(-2.29791e-14 1.03708e-14 0)
(-2.00644e-14 1.19795e-14 0)
(-1.81724e-14 1.40375e-14 0)
(-1.71485e-14 1.5103e-14 0)
(-1.5849e-14 1.56016e-14 0)
(-1.3615e-14 1.63761e-14 0)
(-1.13363e-14 1.66817e-14 0)
(-9.46161e-15 1.60926e-14 0)
(-8.22452e-15 1.5255e-14 0)
(-7.03102e-15 1.40727e-14 0)
(-5.84667e-15 1.30319e-14 0)
(-5.36601e-15 1.19923e-14 0)
(-5.71757e-15 1.08772e-14 0)
(-6.92899e-15 9.22491e-15 0)
(-7.61924e-15 8.07212e-15 0)
(-6.56346e-15 7.29558e-15 0)
(-4.26222e-15 6.64944e-15 0)
(-2.35932e-15 5.76179e-15 0)
(-1.3399e-15 4.89467e-15 0)
(-1.00645e-15 3.29448e-15 0)
(-8.84016e-16 2.36022e-15 0)
(-1.0631e-15 1.16018e-15 0)
(-1.61392e-15 6.19359e-16 0)
(-2.3826e-15 5.96369e-17 0)
(-2.82579e-15 -7.81718e-17 0)
(-2.54813e-15 -2.60432e-16 0)
(-1.73699e-15 -4.86364e-16 0)
(-7.01224e-16 -2.82806e-16 0)
(1.43286e-16 -2.29344e-16 0)
(9.71e-16 1.21998e-17 0)
(1.9462e-15 -6.21315e-18 0)
(3.22494e-15 8.54678e-17 0)
(4.11597e-15 -5.54658e-16 0)
(4.34492e-15 -1.14253e-15 0)
(4.16438e-15 -1.44531e-15 0)
(3.6761e-15 -1.27591e-15 0)
(3.63423e-15 -1.13356e-15 0)
(4.10605e-15 -1.09215e-15 0)
(4.39916e-15 -4.14069e-16 0)
(4.02743e-15 3.93357e-16 0)
(2.23182e-15 5.0885e-16 0)
(7.78424e-16 3.14506e-16 0)
(9.04525e-16 9.61234e-16 0)
(1.10209e-15 1.27795e-15 0)
(1.1222e-15 7.68305e-16 0)
(1.19605e-15 -3.46052e-16 0)
(1.28207e-15 -5.35244e-16 0)
(1.64445e-15 -8.03393e-16 0)
(1.33685e-15 -1.15909e-15 0)
(9.05576e-17 -9.92652e-16 0)
(-1.40483e-15 -1.03011e-15 0)
(-3.46417e-15 -1.81826e-15 0)
(-5.65155e-15 -2.66756e-15 0)
(-7.96724e-15 -3.34012e-15 0)
(-1.05075e-14 -3.64165e-15 0)
(-1.28568e-14 -3.33219e-15 0)
(-1.46464e-14 -3.5177e-15 0)
(-1.57367e-14 -3.37589e-15 0)
(-1.58863e-14 -2.54849e-15 0)
(-1.53227e-14 -2.01965e-15 0)
(-1.49313e-14 -1.71132e-15 0)
(-1.42518e-14 -1.4604e-15 0)
(-1.27525e-14 -1.44334e-15 0)
(-1.06805e-14 -5.61424e-16 0)
(-8.22149e-15 4.36258e-16 0)
(-5.88443e-15 8.54054e-16 0)
(-3.65441e-15 6.05783e-16 0)
(-2.05575e-15 1.25753e-16 0)
(-2.09062e-15 -8.2174e-17 0)
(-3.08494e-15 -1.75773e-16 0)
(-4.18879e-15 1.86739e-16 0)
(-4.81671e-15 6.51986e-17 0)
(-5.30409e-15 4.67332e-16 0)
(-4.89332e-15 4.81173e-16 0)
(-3.44934e-15 8.875e-17 0)
(-2.29828e-15 -6.13037e-16 0)
(-1.00863e-15 -3.21937e-16 0)
(-7.13228e-16 1.92827e-16 0)
(-2.58719e-15 8.26566e-16 0)
(-5.00244e-15 1.3108e-15 0)
(-7.24869e-15 1.71144e-15 0)
(-9.69461e-15 1.82793e-15 0)
(-1.29088e-14 2.50158e-15 0)
(-1.62999e-14 2.83752e-15 0)
(-1.88915e-14 3.64823e-15 0)
(-2.04356e-14 4.22321e-15 0)
(-2.15895e-14 4.2048e-15 0)
(-2.34265e-14 4.81122e-15 0)
(-2.513e-14 5.96434e-15 0)
(-2.53837e-14 7.36508e-15 0)
(-2.53589e-14 8.55794e-15 0)
(-2.6896e-14 9.54138e-15 0)
(-2.99218e-14 1.02618e-14 0)
(-3.2242e-14 1.07567e-14 0)
(-3.27391e-14 1.05588e-14 0)
(-3.29481e-14 1.00419e-14 0)
(-3.38868e-14 9.78218e-15 0)
(-3.4896e-14 1.04101e-14 0)
(-3.50811e-14 1.17137e-14 0)
(-3.23472e-14 1.23817e-14 0)
(-2.78242e-14 1.35817e-14 0)
(-2.40318e-14 1.52516e-14 0)
(-2.18705e-14 1.73122e-14 0)
(-2.09087e-14 1.82597e-14 0)
(-1.91601e-14 1.91922e-14 0)
(-1.66766e-14 2.03262e-14 0)
(-1.44411e-14 2.0543e-14 0)
(-1.25269e-14 2.0287e-14 0)
(-1.11704e-14 1.9333e-14 0)
(-9.71471e-15 1.80681e-14 0)
(-8.14998e-15 1.65903e-14 0)
(-7.67259e-15 1.53671e-14 0)
(-8.39675e-15 1.34987e-14 0)
(-9.39518e-15 1.12761e-14 0)
(-9.31028e-15 9.75357e-15 0)
(-7.93379e-15 9.16279e-15 0)
(-5.79273e-15 8.59176e-15 0)
(-3.64072e-15 7.35485e-15 0)
(-2.49661e-15 5.96709e-15 0)
(-2.09636e-15 4.42462e-15 0)
(-1.89995e-15 3.33843e-15 0)
(-1.9821e-15 2.1731e-15 0)
(-2.40588e-15 1.13342e-15 0)
(-3.11259e-15 1.95393e-17 0)
(-3.12601e-15 -2.10992e-16 0)
(-2.60001e-15 -5.56479e-17 0)
(-1.75135e-15 2.98519e-16 0)
(-7.36146e-16 2.91886e-16 0)
(2.62725e-16 3.81442e-16 0)
(1.3213e-15 6.3234e-16 0)
(2.48174e-15 1.99246e-16 0)
(3.61777e-15 -1.04829e-16 0)
(4.34897e-15 -7.71338e-16 0)
(4.83121e-15 -1.3779e-15 0)
(5.03794e-15 -1.92251e-15 0)
(4.957e-15 -1.85212e-15 0)
(4.69759e-15 -1.21913e-15 0)
(5.03837e-15 -1.00486e-15 0)
(5.59437e-15 -2.00438e-16 0)
(5.02841e-15 1.74205e-16 0)
(2.95403e-15 3.63582e-16 0)
(1.69826e-15 1.13053e-15 0)
(1.71919e-15 1.79392e-15 0)
(1.17403e-15 1.74785e-15 0)
(6.21509e-16 1.10871e-15 0)
(9.18903e-16 -4.8403e-17 0)
(1.32862e-15 -2.73402e-16 0)
(1.54491e-15 -5.11266e-16 0)
(1.31635e-15 -9.42767e-16 0)
(-2.89677e-16 -9.67773e-16 0)
(-2.52237e-15 -1.76761e-15 0)
(-4.91217e-15 -2.61473e-15 0)
(-7.4912e-15 -3.17531e-15 0)
(-1.02474e-14 -4.14423e-15 0)
(-1.28604e-14 -4.87305e-15 0)
(-1.54849e-14 -4.63883e-15 0)
(-1.76552e-14 -4.35415e-15 0)
(-1.86961e-14 -3.71334e-15 0)
(-1.89634e-14 -3.1614e-15 0)
(-1.85785e-14 -3.02733e-15 0)
(-1.80798e-14 -2.81215e-15 0)
(-1.72733e-14 -2.26152e-15 0)
(-1.52607e-14 -1.85366e-15 0)
(-1.24563e-14 -1.10685e-15 0)
(-9.69378e-15 8.34537e-17 0)
(-7.32552e-15 7.46801e-16 0)
(-5.23982e-15 9.49832e-16 0)
(-3.60077e-15 2.44057e-16 0)
(-3.32552e-15 -9.35268e-17 0)
(-3.92676e-15 -3.73193e-16 0)
(-5.05159e-15 1.10535e-16 0)
(-5.81388e-15 8.16585e-17 0)
(-6.19256e-15 4.38724e-16 0)
(-5.97139e-15 4.4834e-16 0)
(-4.63442e-15 3.3781e-17 0)
(-2.93313e-15 -4.08428e-16 0)
(-9.42287e-16 -1.57902e-16 0)
(-8.34657e-16 2.06865e-16 0)
(-2.98529e-15 6.77324e-16 0)
(-5.82263e-15 1.61141e-15 0)
(-8.6034e-15 2.83107e-15 0)
(-1.16192e-14 3.16445e-15 0)
(-1.55562e-14 3.25791e-15 0)
(-1.92605e-14 3.59477e-15 0)
(-2.20145e-14 4.3467e-15 0)
(-2.42192e-14 5.02153e-15 0)
(-2.56581e-14 5.57544e-15 0)
(-2.71563e-14 5.96502e-15 0)
(-2.85021e-14 7.31177e-15 0)
(-2.91536e-14 9.62341e-15 0)
(-2.99665e-14 1.07905e-14 0)
(-3.19907e-14 1.15088e-14 0)
(-3.51677e-14 1.21046e-14 0)
(-3.7558e-14 1.27496e-14 0)
(-3.87136e-14 1.3386e-14 0)
(-3.94775e-14 1.26338e-14 0)
(-4.00756e-14 1.22972e-14 0)
(-4.03233e-14 1.23938e-14 0)
(-3.99915e-14 1.38028e-14 0)
(-3.70825e-14 1.61158e-14 0)
(-3.2121e-14 1.74872e-14 0)
(-2.77199e-14 1.88685e-14 0)
(-2.54565e-14 2.02288e-14 0)
(-2.43538e-14 2.11438e-14 0)
(-2.20108e-14 2.22279e-14 0)
(-1.93808e-14 2.35226e-14 0)
(-1.71927e-14 2.41053e-14 0)
(-1.52962e-14 2.39434e-14 0)
(-1.40265e-14 2.2722e-14 0)
(-1.25723e-14 2.13884e-14 0)
(-1.08546e-14 1.9365e-14 0)
(-1.03273e-14 1.74817e-14 0)
(-1.12276e-14 1.55752e-14 0)
(-1.20416e-14 1.3653e-14 0)
(-1.13177e-14 1.17899e-14 0)
(-9.2255e-15 1.07385e-14 0)
(-6.95842e-15 1.00843e-14 0)
(-5.19733e-15 8.58217e-15 0)
(-4.03617e-15 6.82964e-15 0)
(-3.27508e-15 5.70171e-15 0)
(-2.82243e-15 4.39374e-15 0)
(-2.99697e-15 3.48582e-15 0)
(-3.5624e-15 1.76307e-15 0)
(-3.78453e-15 3.12415e-16 0)
(-3.29812e-15 4.21326e-17 0)
(-2.50509e-15 5.17264e-16 0)
(-1.65178e-15 9.98796e-16 0)
(-6.08165e-16 8.88409e-16 0)
(6.75762e-16 1.11646e-15 0)
(1.4418e-15 1.34946e-15 0)
(2.36724e-15 6.43287e-16 0)
(3.79902e-15 -2.0012e-16 0)
(4.7237e-15 -7.98755e-16 0)
(5.20037e-15 -1.37658e-15 0)
(5.57389e-15 -1.98506e-15 0)
(5.93731e-15 -2.17739e-15 0)
(5.93055e-15 -1.83279e-15 0)
(6.41896e-15 -8.10517e-16 0)
(6.70682e-15 3.54482e-16 0)
(5.73471e-15 5.92616e-16 0)
(4.0343e-15 9.53692e-16 0)
(2.71915e-15 1.82671e-15 0)
(2.08473e-15 1.74704e-15 0)
(1.23683e-15 1.36282e-15 0)
(3.98492e-16 8.58593e-16 0)
(7.17729e-16 3.161e-16 0)
(1.34843e-15 1.75483e-16 0)
(1.33524e-15 3.96523e-16 0)
(8.47177e-16 -1.10846e-16 0)
(-1.13166e-15 -1.17538e-15 0)
(-3.79746e-15 -2.30501e-15 0)
(-6.34775e-15 -3.07186e-15 0)
(-9.4089e-15 -4.01047e-15 0)
(-1.27219e-14 -5.23488e-15 0)
(-1.52577e-14 -5.86156e-15 0)
(-1.76615e-14 -5.63094e-15 0)
(-1.98109e-14 -5.13496e-15 0)
(-2.11696e-14 -4.45235e-15 0)
(-2.19211e-14 -3.97973e-15 0)
(-2.16009e-14 -3.6012e-15 0)
(-2.07174e-14 -3.37392e-15 0)
(-1.95731e-14 -2.80187e-15 0)
(-1.74526e-14 -2.47086e-15 0)
(-1.41497e-14 -1.70313e-15 0)
(-1.09695e-14 -4.54738e-16 0)
(-8.57938e-15 3.50801e-16 0)
(-6.72268e-15 7.46867e-16 0)
(-5.10328e-15 2.04063e-16 0)
(-4.61727e-15 -1.2621e-16 0)
(-4.95677e-15 -4.74356e-16 0)
(-5.89376e-15 -1.81338e-16 0)
(-6.62384e-15 1.34685e-16 0)
(-6.99646e-15 2.59924e-16 0)
(-6.90586e-15 3.52063e-16 0)
(-5.42019e-15 8.54189e-17 0)
(-3.35771e-15 1.54809e-16 0)
(-1.09885e-15 1.32619e-16 0)
(-1.20697e-15 3.79036e-16 0)
(-3.65369e-15 9.06052e-16 0)
(-6.33166e-15 1.75803e-15 0)
(-9.81637e-15 3.17438e-15 0)
(-1.39185e-14 3.55903e-15 0)
(-1.79937e-14 3.82574e-15 0)
(-2.17617e-14 4.4353e-15 0)
(-2.48921e-14 5.07614e-15 0)
(-2.72454e-14 6.02822e-15 0)
(-2.91714e-14 7.04578e-15 0)
(-3.0944e-14 7.5743e-15 0)
(-3.17338e-14 8.78711e-15 0)
(-3.25811e-14 1.06363e-14 0)
(-3.41237e-14 1.2198e-14 0)
(-3.64181e-14 1.34875e-14 0)
(-3.98094e-14 1.43053e-14 0)
(-4.24005e-14 1.48562e-14 0)
(-4.41947e-14 1.53822e-14 0)
(-4.53168e-14 1.52918e-14 0)
(-4.5719e-14 1.55302e-14 0)
(-4.53888e-14 1.59569e-14 0)
(-4.37046e-14 1.73227e-14 0)
(-4.05572e-14 1.99587e-14 0)
(-3.61069e-14 2.13644e-14 0)
(-3.15973e-14 2.24484e-14 0)
(-2.89935e-14 2.28035e-14 0)
(-2.74245e-14 2.376e-14 0)
(-2.45764e-14 2.52166e-14 0)
(-2.16346e-14 2.62781e-14 0)
(-1.96508e-14 2.69625e-14 0)
(-1.82878e-14 2.66943e-14 0)
(-1.7099e-14 2.56738e-14 0)
(-1.56421e-14 2.43148e-14 0)
(-1.40059e-14 2.18958e-14 0)
(-1.30889e-14 1.93233e-14 0)
(-1.35874e-14 1.73737e-14 0)
(-1.43371e-14 1.58318e-14 0)
(-1.33657e-14 1.40366e-14 0)
(-1.07914e-14 1.26552e-14 0)
(-8.62102e-15 1.14427e-14 0)
(-6.91503e-15 9.62507e-15 0)
(-5.19739e-15 7.98118e-15 0)
(-4.27629e-15 6.87993e-15 0)
(-3.8271e-15 5.72893e-15 0)
(-4.18967e-15 4.49233e-15 0)
(-5.01509e-15 2.34821e-15 0)
(-4.65517e-15 7.38621e-16 0)
(-3.22319e-15 5.50591e-16 0)
(-2.05975e-15 1.3644e-15 0)
(-1.50313e-15 1.71506e-15 0)
(-4.95201e-16 1.79925e-15 0)
(9.75078e-16 1.98152e-15 0)
(1.60756e-15 1.80765e-15 0)
(2.25505e-15 1.18326e-15 0)
(3.72638e-15 -6.08435e-18 0)
(4.85804e-15 -6.37029e-16 0)
(5.46738e-15 -1.24422e-15 0)
(6.01742e-15 -1.45173e-15 0)
(6.63618e-15 -1.69567e-15 0)
(7.21969e-15 -1.77353e-15 0)
(8.07757e-15 -8.20755e-16 0)
(7.94789e-15 4.59998e-16 0)
(6.65791e-15 1.58888e-15 0)
(4.89121e-15 2.09023e-15 0)
(3.14402e-15 2.09163e-15 0)
(2.09669e-15 1.64144e-15 0)
(1.13241e-15 1.18175e-15 0)
(3.76226e-16 7.21413e-16 0)
(8.35789e-16 6.95116e-16 0)
(1.64798e-15 5.99297e-16 0)
(1.36061e-15 7.3196e-16 0)
(-1.37696e-16 1.26392e-16 0)
(-2.62281e-15 -1.49849e-15 0)
(-5.14759e-15 -2.93089e-15 0)
(-7.99218e-15 -3.79176e-15 0)
(-1.15833e-14 -5.04427e-15 0)
(-1.48384e-14 -5.93757e-15 0)
(-1.71073e-14 -6.24562e-15 0)
(-1.95678e-14 -6.34142e-15 0)
(-2.19523e-14 -5.92208e-15 0)
(-2.34008e-14 -5.43193e-15 0)
(-2.40986e-14 -4.73132e-15 0)
(-2.39168e-14 -4.11312e-15 0)
(-2.31395e-14 -4.06146e-15 0)
(-2.19858e-14 -3.80125e-15 0)
(-1.94271e-14 -3.03628e-15 0)
(-1.54204e-14 -1.83616e-15 0)
(-1.20213e-14 -7.7756e-16 0)
(-9.67403e-15 2.68133e-17 0)
(-8.06571e-15 3.89684e-16 0)
(-6.58875e-15 6.34888e-17 0)
(-5.944e-15 -3.31786e-16 0)
(-5.9729e-15 -6.31066e-16 0)
(-6.551e-15 -4.70955e-16 0)
(-7.37541e-15 1.67954e-16 0)
(-7.79633e-15 2.29905e-17 0)
(-7.63981e-15 2.38908e-16 0)
(-5.99669e-15 3.88869e-16 0)
(-3.70155e-15 4.47829e-16 0)
(-1.39828e-15 1.19691e-16 0)
(-1.44604e-15 6.73303e-16 0)
(-4.32689e-15 1.70309e-15 0)
(-7.21418e-15 2.2961e-15 0)
(-1.104e-14 2.85996e-15 0)
(-1.5625e-14 3.29951e-15 0)
(-2.01382e-14 4.19028e-15 0)
(-2.42986e-14 5.3407e-15 0)
(-2.74803e-14 6.30779e-15 0)
(-3.00077e-14 7.21393e-15 0)
(-3.22851e-14 8.22913e-15 0)
(-3.41198e-14 8.96507e-15 0)
(-3.49415e-14 1.0211e-14 0)
(-3.5744e-14 1.15691e-14 0)
(-3.73256e-14 1.39748e-14 0)
(-4.02067e-14 1.55683e-14 0)
(-4.42029e-14 1.63862e-14 0)
(-4.70549e-14 1.69708e-14 0)
(-4.8886e-14 1.79318e-14 0)
(-4.99955e-14 1.87682e-14 0)
(-5.02498e-14 1.92426e-14 0)
(-4.95809e-14 2.00377e-14 0)
(-4.7389e-14 2.10732e-14 0)
(-4.40599e-14 2.30836e-14 0)
(-3.9713e-14 2.49858e-14 0)
(-3.54587e-14 2.58395e-14 0)
(-3.26017e-14 2.56306e-14 0)
(-2.99686e-14 2.64457e-14 0)
(-2.68126e-14 2.79672e-14 0)
(-2.40109e-14 2.8874e-14 0)
(-2.20738e-14 2.91936e-14 0)
(-2.07422e-14 2.90196e-14 0)
(-1.96501e-14 2.84612e-14 0)
(-1.86812e-14 2.64669e-14 0)
(-1.74037e-14 2.38294e-14 0)
(-1.61701e-14 2.1308e-14 0)
(-1.60239e-14 1.94101e-14 0)
(-1.64699e-14 1.80496e-14 0)
(-1.53677e-14 1.65271e-14 0)
(-1.256e-14 1.48226e-14 0)
(-1.03057e-14 1.31718e-14 0)
(-8.56272e-15 1.16733e-14 0)
(-6.62222e-15 9.58689e-15 0)
(-5.31741e-15 7.45613e-15 0)
(-4.85498e-15 5.86886e-15 0)
(-5.70217e-15 4.2502e-15 0)
(-6.50989e-15 3.00161e-15 0)
(-5.26401e-15 2.07518e-15 0)
(-2.94653e-15 1.84468e-15 0)
(-1.6728e-15 2.10734e-15 0)
(-1.23315e-15 2.53712e-15 0)
(-1.57112e-16 2.64851e-15 0)
(1.12371e-15 2.469e-15 0)
(1.50877e-15 2.12016e-15 0)
(1.9079e-15 1.64689e-15 0)
(3.53816e-15 8.03481e-16 0)
(5.05594e-15 2.84887e-16 0)
(5.95647e-15 -1.84881e-16 0)
(6.65318e-15 -4.62943e-16 0)
(7.1175e-15 -6.88663e-16 0)
(7.95395e-15 -8.05293e-16 0)
(9.37153e-15 -4.43926e-16 0)
(9.69426e-15 6.61985e-16 0)
(8.03274e-15 2.14166e-15 0)
(5.3685e-15 2.51791e-15 0)
(3.21217e-15 2.08752e-15 0)
(2.10654e-15 1.41486e-15 0)
(1.13431e-15 9.47443e-16 0)
(5.01907e-16 8.58431e-16 0)
(9.57295e-16 9.61779e-16 0)
(1.52972e-15 1.0036e-15 0)
(9.058e-16 5.71993e-16 0)
(-1.18297e-15 -4.1282e-16 0)
(-4.15524e-15 -1.39344e-15 0)
(-6.71811e-15 -2.69967e-15 0)
(-9.66185e-15 -4.3151e-15 0)
(-1.33287e-14 -5.79854e-15 0)
(-1.65605e-14 -6.68084e-15 0)
(-1.91143e-14 -7.11086e-15 0)
(-2.15339e-14 -7.14668e-15 0)
(-2.37091e-14 -6.69215e-15 0)
(-2.51917e-14 -6.13818e-15 0)
(-2.6034e-14 -5.4612e-15 0)
(-2.6227e-14 -4.82398e-15 0)
(-2.55066e-14 -4.85447e-15 0)
(-2.36172e-14 -4.46741e-15 0)
(-2.04752e-14 -2.96933e-15 0)
(-1.65324e-14 -1.54743e-15 0)
(-1.31625e-14 -1.03044e-15 0)
(-1.08037e-14 -4.20625e-16 0)
(-9.35636e-15 -2.3563e-16 0)
(-7.96676e-15 -1.86342e-16 0)
(-7.23378e-15 -4.53355e-16 0)
(-7.01836e-15 -9.21692e-16 0)
(-7.16288e-15 -8.9757e-16 0)
(-8.01725e-15 -1.72525e-16 0)
(-8.56422e-15 -2.30866e-16 0)
(-8.05599e-15 2.0765e-17 0)
(-6.40947e-15 2.1731e-16 0)
(-4.32144e-15 5.97134e-17 0)
(-1.68992e-15 -5.44799e-17 0)
(-1.65317e-15 1.02261e-15 0)
(-5.12399e-15 2.23281e-15 0)
(-8.68843e-15 2.87234e-15 0)
(-1.28787e-14 3.05396e-15 0)
(-1.73626e-14 3.44452e-15 0)
(-2.15497e-14 4.46558e-15 0)
(-2.58854e-14 6.20411e-15 0)
(-2.97823e-14 7.61069e-15 0)
(-3.26323e-14 8.52599e-15 0)
(-3.51612e-14 9.75642e-15 0)
(-3.71983e-14 1.07683e-14 0)
(-3.79284e-14 1.20226e-14 0)
(-3.82823e-14 1.36216e-14 0)
(-3.99688e-14 1.61918e-14 0)
(-4.3706e-14 1.7628e-14 0)
(-4.80774e-14 1.85689e-14 0)
(-5.0764e-14 1.94893e-14 0)
(-5.25256e-14 2.05801e-14 0)
(-5.40917e-14 2.18901e-14 0)
(-5.45235e-14 2.26817e-14 0)
(-5.36738e-14 2.34326e-14 0)
(-5.08687e-14 2.4053e-14 0)
(-4.67333e-14 2.591e-14 0)
(-4.26727e-14 2.82542e-14 0)
(-3.9169e-14 2.90188e-14 0)
(-3.59888e-14 2.89197e-14 0)
(-3.25073e-14 2.96281e-14 0)
(-2.89342e-14 3.068e-14 0)
(-2.62153e-14 3.13579e-14 0)
(-2.43782e-14 3.12737e-14 0)
(-2.30449e-14 3.12262e-14 0)
(-2.26299e-14 3.04313e-14 0)
(-2.22018e-14 2.84154e-14 0)
(-2.05247e-14 2.57022e-14 0)
(-1.8705e-14 2.33353e-14 0)
(-1.80473e-14 2.12635e-14 0)
(-1.82506e-14 2.00127e-14 0)
(-1.72693e-14 1.88597e-14 0)
(-1.45207e-14 1.70281e-14 0)
(-1.19277e-14 1.4981e-14 0)
(-1.02852e-14 1.3379e-14 0)
(-8.8121e-15 1.08375e-14 0)
(-7.35504e-15 8.23539e-15 0)
(-6.41262e-15 6.19264e-15 0)
(-6.44971e-15 4.5498e-15 0)
(-6.71227e-15 4.11174e-15 0)
(-5.55472e-15 3.7701e-15 0)
(-3.18811e-15 3.30338e-15 0)
(-1.4561e-15 2.83931e-15 0)
(-9.00945e-16 3.19798e-15 0)
(-2.06021e-16 3.16526e-15 0)
(1.08288e-15 2.9309e-15 0)
(1.67217e-15 2.36188e-15 0)
(2.13184e-15 2.52306e-15 0)
(3.73171e-15 2.17543e-15 0)
(5.27073e-15 1.54085e-15 0)
(6.14971e-15 1.27972e-15 0)
(6.92832e-15 5.42417e-16 0)
(7.6736e-15 4.75883e-16 0)
(8.66052e-15 9.44855e-16 0)
(1.03593e-14 1.31683e-15 0)
(1.09702e-14 1.947e-15 0)
(9.04217e-15 2.23773e-15 0)
(5.75421e-15 2.39646e-15 0)
(3.11133e-15 1.77698e-15 0)
(1.91308e-15 8.74857e-16 0)
(1.25717e-15 2.12964e-16 0)
(7.95069e-16 4.2285e-16 0)
(1.20533e-15 9.59849e-16 0)
(1.44227e-15 1.30616e-15 0)
(1.68505e-16 8.12484e-16 0)
(-2.02333e-15 -6.76054e-16 0)
(-5.09616e-15 -1.32926e-15 0)
(-8.49792e-15 -2.63158e-15 0)
(-1.19348e-14 -4.75303e-15 0)
(-1.54884e-14 -6.80774e-15 0)
(-1.84888e-14 -7.95568e-15 0)
(-2.06426e-14 -8.36108e-15 0)
(-2.29141e-14 -7.80903e-15 0)
(-2.52492e-14 -7.28362e-15 0)
(-2.68161e-14 -6.87167e-15 0)
(-2.76168e-14 -6.03622e-15 0)
(-2.7998e-14 -5.35035e-15 0)
(-2.73322e-14 -5.10367e-15 0)
(-2.48785e-14 -4.29335e-15 0)
(-2.12916e-14 -3.02725e-15 0)
(-1.76659e-14 -1.96228e-15 0)
(-1.44805e-14 -1.39623e-15 0)
(-1.19913e-14 -9.25482e-16 0)
(-1.04458e-14 -8.09023e-16 0)
(-9.01456e-15 -5.98382e-16 0)
(-8.53312e-15 -7.10905e-16 0)
(-8.18874e-15 -1.04418e-15 0)
(-7.7648e-15 -1.30492e-15 0)
(-8.53225e-15 -7.24498e-16 0)
(-9.16512e-15 -5.65014e-16 0)
(-8.64932e-15 -5.11552e-16 0)
(-7.09115e-15 -1.01102e-15 0)
(-4.74609e-15 -8.43564e-16 0)
(-1.82405e-15 -3.24905e-16 0)
(-1.94063e-15 8.36216e-16 0)
(-5.8984e-15 2.20502e-15 0)
(-9.93942e-15 3.16828e-15 0)
(-1.44429e-14 3.87989e-15 0)
(-1.89402e-14 4.75704e-15 0)
(-2.30022e-14 5.60914e-15 0)
(-2.741e-14 6.94457e-15 0)
(-3.17007e-14 8.34694e-15 0)
(-3.4822e-14 9.6531e-15 0)
(-3.74508e-14 1.11002e-14 0)
(-3.96524e-14 1.29907e-14 0)
(-4.03919e-14 1.47132e-14 0)
(-4.05407e-14 1.69913e-14 0)
(-4.25183e-14 1.86096e-14 0)
(-4.68355e-14 1.96498e-14 0)
(-5.14115e-14 2.07984e-14 0)
(-5.43133e-14 2.19932e-14 0)
(-5.59693e-14 2.29716e-14 0)
(-5.7348e-14 2.43607e-14 0)
(-5.79855e-14 2.56355e-14 0)
(-5.73243e-14 2.66462e-14 0)
(-5.41016e-14 2.75762e-14 0)
(-4.91873e-14 2.87904e-14 0)
(-4.52352e-14 3.0495e-14 0)
(-4.22957e-14 3.12703e-14 0)
(-3.89452e-14 3.17657e-14 0)
(-3.48966e-14 3.28428e-14 0)
(-3.11757e-14 3.35196e-14 0)
(-2.86186e-14 3.37068e-14 0)
(-2.66351e-14 3.31799e-14 0)
(-2.52729e-14 3.26495e-14 0)
(-2.51159e-14 3.16869e-14 0)
(-2.50968e-14 3.04571e-14 0)
(-2.36733e-14 2.82606e-14 0)
(-2.1619e-14 2.57601e-14 0)
(-2.03487e-14 2.32638e-14 0)
(-1.9846e-14 2.16053e-14 0)
(-1.89127e-14 2.03966e-14 0)
(-1.65108e-14 1.86526e-14 0)
(-1.38437e-14 1.67277e-14 0)
(-1.22379e-14 1.47036e-14 0)
(-1.08368e-14 1.21326e-14 0)
(-9.00818e-15 9.66014e-15 0)
(-7.72278e-15 7.93743e-15 0)
(-7.30427e-15 6.14591e-15 0)
(-7.08906e-15 4.9827e-15 0)
(-5.80456e-15 4.7198e-15 0)
(-3.51191e-15 4.57482e-15 0)
(-1.55189e-15 3.93377e-15 0)
(-6.97565e-16 3.77861e-15 0)
(5.79395e-17 4.02815e-15 0)
(1.07518e-15 3.94664e-15 0)
(1.89146e-15 3.33728e-15 0)
(2.59385e-15 3.59434e-15 0)
(3.7677e-15 3.32958e-15 0)
(5.45498e-15 2.81077e-15 0)
(6.35512e-15 2.63896e-15 0)
(7.23579e-15 2.02259e-15 0)
(8.59431e-15 1.94349e-15 0)
(9.72995e-15 2.55854e-15 0)
(1.12167e-14 3.23958e-15 0)
(1.14085e-14 3.05945e-15 0)
(9.3113e-15 2.47901e-15 0)
(5.87482e-15 2.27913e-15 0)
(2.8266e-15 1.57334e-15 0)
(1.57342e-15 9.41386e-16 0)
(1.29829e-15 3.38472e-16 0)
(1.41713e-15 3.58981e-16 0)
(1.82263e-15 1.14127e-15 0)
(1.4557e-15 1.27767e-15 0)
(-7.39779e-16 4.37846e-16 0)
(-3.21543e-15 -5.68723e-16 0)
(-6.36952e-15 -1.66778e-15 0)
(-1.03773e-14 -3.41412e-15 0)
(-1.42793e-14 -5.65972e-15 0)
(-1.76632e-14 -8.06453e-15 0)
(-2.01249e-14 -8.95861e-15 0)
(-2.18575e-14 -8.8546e-15 0)
(-2.39817e-14 -8.51739e-15 0)
(-2.6585e-14 -7.74155e-15 0)
(-2.80812e-14 -7.26271e-15 0)
(-2.88677e-14 -6.32515e-15 0)
(-2.95394e-14 -5.96888e-15 0)
(-2.86769e-14 -5.42119e-15 0)
(-2.58996e-14 -4.11884e-15 0)
(-2.23562e-14 -3.30065e-15 0)
(-1.86551e-14 -2.69505e-15 0)
(-1.54144e-14 -1.90157e-15 0)
(-1.3073e-14 -1.38416e-15 0)
(-1.15261e-14 -1.0624e-15 0)
(-1.00556e-14 -9.58673e-16 0)
(-9.52122e-15 -9.92592e-16 0)
(-9.2556e-15 -9.36762e-16 0)
(-8.59677e-15 -1.54333e-15 0)
(-9.02078e-15 -1.0491e-15 0)
(-9.82886e-15 -6.41956e-16 0)
(-9.66671e-15 -1.28258e-15 0)
(-7.79068e-15 -2.31014e-15 0)
(-4.81856e-15 -1.86427e-15 0)
(-1.73265e-15 -6.81121e-16 0)
(-2.0597e-15 8.25884e-16 0)
(-6.41756e-15 2.39954e-15 0)
(-1.08551e-14 3.56662e-15 0)
(-1.55385e-14 4.53921e-15 0)
(-2.03697e-14 5.78335e-15 0)
(-2.46757e-14 6.71811e-15 0)
(-2.90545e-14 7.88411e-15 0)
(-3.33999e-14 9.45445e-15 0)