/*--------------------------------*- C++ -*----------------------------------*\
| =========                 |                                                 |
| \\      /  F ield         | OpenFOAM: The Open Source CFD Toolbox           |
|  \\    /   O peration     | Version:  v2012                                 |
|   \\  /    A nd           | Website:  www.openfoam.com                      |
|    \\/     M anipulation  |                                                 |
\*---------------------------------------------------------------------------*/
FoamFile
{
    version     2.0;
    format      ascii;
    class       volScalarField;
    location    "5.5";
    object      Psi_z;
}
// * * * * * * * * * * * * * * * * * * * * * * * * * * * * * * * * * * * * * //

dimensions      [0 2 -1 0 0 0 0];


internalField   nonuniform List<scalar> 
65536
(
9.16301e-06
2.74887e-05
4.58133e-05
6.41361e-05
8.24566e-05
0.000100774
0.000119087
0.000137396
0.000155699
0.000173996
0.000192286
0.000210567
0.00022884
0.000247104
0.000265356
0.000283596
0.000301824
0.000320037
0.000338235
0.000356417
0.000374581
0.000392725
0.000410849
0.000428951
0.000447029
0.000465082
0.000483107
0.000501103
0.000519069
0.000537001
0.000554898
0.000572759
0.000590579
0.000608359
0.000626093
0.000643781
0.00066142
0.000679006
0.000696538
0.000714011
0.000731423
0.000748772
0.000766052
0.000783263
0.000800399
0.000817457
0.000834434
0.000851326
0.000868129
0.00088484
0.000901453
0.000917966
0.000934373
0.000950671
0.000966856
0.000982922
0.000998865
0.00101468
0.00103037
0.00104591
0.00106132
0.00107658
0.00109169
0.00110664
0.00112143
0.00113606
0.00115051
0.00116479
0.00117889
0.0011928
0.00120652
0.00122004
0.00123337
0.00124648
0.00125939
0.00127207
0.00128454
0.00129678
0.00130879
0.00132056
0.0013321
0.00134339
0.00135442
0.00136521
0.00137573
0.001386
0.001396
0.00140572
0.00141517
0.00142435
0.00143324
0.00144184
0.00145016
0.00145819
0.00146592
0.00147335
0.00148049
0.00148732
0.00149384
0.00150006
0.00150597
0.00151157
0.00151686
0.00152183
0.00152649
0.00153083
0.00153486
0.00153857
0.00154196
0.00154503
0.00154779
0.00155022
0.00155235
0.00155415
0.00155564
0.00155681
0.00155767
0.00155822
0.00155845
0.00155837
0.00155799
0.0015573
0.00155631
0.00155501
0.00155342
0.00155153
0.00154934
0.00154686
0.0015441
0.00154104
0.00153771
0.00153409
0.0015302
0.00152604
0.0015216
0.0015169
0.00151194
0.00150672
0.00150124
0.00149552
0.00148954
0.00148332
0.00147687
0.00147017
0.00146325
0.0014561
0.00144872
0.00144113
0.00143332
0.0014253
0.00141707
0.00140864
0.0014
0.00139118
0.00138216
0.00137296
0.00136357
0.001354
0.00134426
0.00133435
0.00132427
0.00131403
0.00130363
0.00129307
0.00128236
0.0012715
0.0012605
0.00124935
0.00123807
0.00122666
0.00121511
0.00120344
0.00119164
0.00117972
0.00116769
0.00115554
0.00114328
0.00113092
0.00111845
0.00110588
0.00109321
0.00108044
0.00106758
0.00105464
0.0010416
0.00102848
0.00101528
0.001002
0.000988637
0.000975205
0.0009617
0.000948125
0.000934484
0.000920777
0.000907007
0.000893177
0.000879288
0.000865343
0.000851343
0.00083729
0.000823186
0.000809034
0.000794834
0.00078059
0.000766301
0.000751971
0.0007376
0.000723191
0.000708744
0.000694262
0.000679745
0.000665195
0.000650614
0.000636003
0.000621362
0.000606694
0.000592
0.00057728
0.000562536
0.000547768
0.000532979
0.000518169
0.000503339
0.000488489
0.000473622
0.000458737
0.000443836
0.000428919
0.000413987
0.000399042
0.000384083
0.000369111
0.000354128
0.000339134
0.000324129
0.000309114
0.00029409
0.000279058
0.000264017
0.000248969
0.000233913
0.000218851
0.000203783
0.00018871
0.000173631
0.000158548
0.00014346
0.000128369
0.000113275
9.81773e-05
8.30773e-05
6.79752e-05
5.28714e-05
3.77662e-05
2.26601e-05
7.55344e-06
2.74893e-05
8.2467e-05
0.000137442
0.000192411
0.000247373
0.000302325
0.000357266
0.000412192
0.000467103
0.000521994
0.000576865
0.000631711
0.000686531
0.000741321
0.000796079
0.000850801
0.000905485
0.000960127
0.00101472
0.00106927
0.00112376
0.0011782
0.00123257
0.00128688
0.00134111
0.00139527
0.00144935
0.00150334
0.00155724
0.00161104
0.00166473
0.00171831
0.00177178
0.00182512
0.00187833
0.00193139
0.00198431
0.00203707
0.00208967
0.00214209
0.00219433
0.00224638
0.00229823
0.00234986
0.00240127
0.00245245
0.00250339
0.00255407
0.00260448
0.00265461
0.00270446
0.002754
0.00280323
0.00285213
0.00290068
0.00294889
0.00299672
0.00304417
0.00309123
0.00313788
0.0031841
0.00322989
0.00327522
0.00332008
0.00336446
0.00340834
0.00345171
0.00349455
0.00353685
0.00357859
0.00361975
0.00366033
0.0037003
0.00373965
0.00377837
0.00381644
0.00385385
0.00389057
0.00392661
0.00396193
0.00399654
0.0040304
0.00406352
0.00409588
0.00412747
0.00415826
0.00418825
0.00421744
0.0042458
0.00427332
0.0043
0.00432582
0.00435077
0.00437486
0.00439805
0.00442035
0.00444176
0.00446225
0.00448183
0.00450049
0.00451822
0.00453502
0.00455088
0.0045658
0.00457978
0.00459281
0.00460489
0.00461601
0.00462619
0.00463541
0.00464367
0.00465099
0.00465735
0.00466276
0.00466722
0.00467074
0.00467332
0.00467495
0.00467566
0.00467543
0.00467428
0.00467221
0.00466923
0.00466534
0.00466055
0.00465487
0.00464831
0.00464088
0.00463257
0.00462341
0.0046134
0.00460255
0.00459088
0.00457838
0.00456507
0.00455097
0.00453608
0.00452041
0.00450398
0.0044868
0.00446887
0.00445021
0.00443084
0.00441075
0.00438998
0.00436852
0.00434639
0.0043236
0.00430016
0.00427609
0.0042514
0.0042261
0.00420021
0.00417372
0.00414667
0.00411905
0.00409089
0.00406218
0.00403296
0.00400322
0.00397297
0.00394224
0.00391103
0.00387935
0.00384722
0.00381464
0.00378163
0.00374819
0.00371435
0.0036801
0.00364546
0.00361043
0.00357504
0.00353929
0.00350318
0.00346674
0.00342996
0.00339286
0.00335545
0.00331773
0.00327972
0.00324142
0.00320284
0.00316399
0.00312488
0.00308552
0.00304591
0.00300606
0.00296599
0.00292569
0.00288517
0.00284444
0.00280352
0.00276239
0.00272108
0.00267959
0.00263792
0.00259608
0.00255408
0.00251192
0.00246961
0.00242715
0.00238455
0.00234181
0.00229895
0.00225595
0.00221284
0.00216961
0.00212627
0.00208282
0.00203927
0.00199562
0.00195187
0.00190804
0.00186411
0.00182011
0.00177602
0.00173186
0.00168763
0.00164333
0.00159896
0.00155453
0.00151004
0.00146549
0.00142088
0.00137623
0.00133152
0.00128677
0.00124198
0.00119714
0.00115226
0.00110735
0.0010624
0.00101741
0.000972397
0.000927353
0.00088228
0.000837182
0.000792059
0.000746913
0.000701746
0.00065656
0.000611356
0.000566135
0.000520898
0.000475648
0.000430385
0.000385111
0.000339827
0.000294534
0.000249234
0.000203927
0.000158616
0.0001133
6.79809e-05
2.26605e-05
4.58167e-05
0.000137448
0.000229075
0.000320693
0.000412298
0.000503888
0.000595459
0.000687006
0.000778525
0.000870014
0.000961467
0.00105288
0.00114425
0.00123557
0.00132684
0.00141805
0.00150919
0.00160026
0.00169126
0.00178217
0.001873
0.00196373
0.00205436
0.00214487
0.00223527
0.00232554
0.00241568
0.00250567
0.00259551
0.00268518
0.00277468
0.00286399
0.0029531
0.00304201
0.0031307
0.00321915
0.00330736
0.0033953
0.00348298
0.00357036
0.00365744
0.00374419
0.00383061
0.00391668
0.00400238
0.00408769
0.00417259
0.00425707
0.00434111
0.00442468
0.00450777
0.00459035
0.00467241
0.00475392
0.00483487
0.00491522
0.00499496
0.00507406
0.00515251
0.00523027
0.00530732
0.00538365
0.00545922
0.00553401
0.00560799
0.00568114
0.00575344
0.00582486
0.00589537
0.00596495
0.00603358
0.00610122
0.00616786
0.00623346
0.00629801
0.00636147
0.00642383
0.00648506
0.00654513
0.00660402
0.00666171
0.00671817
0.00677339
0.00682733
0.00687998
0.00693132
0.00698133
0.00702998
0.00707725
0.00712314
0.00716761
0.00721066
0.00725226
0.00729241
0.00733108
0.00736826
0.00740394
0.0074381
0.00747074
0.00750185
0.0075314
0.00755941
0.00758585
0.00761072
0.00763402
0.00765573
0.00767587
0.00769441
0.00771137
0.00772674
0.00774052
0.0077527
0.00776331
0.00777232
0.00777976
0.00778562
0.00778991
0.00779263
0.00779379
0.00779341
0.00779149
0.00778803
0.00778305
0.00777656
0.00776858
0.00775911
0.00774816
0.00773576
0.00772191
0.00770663
0.00768994
0.00767184
0.00765237
0.00763153
0.00760934
0.00758583
0.007561
0.00753487
0.00750747
0.00747882
0.00744893
0.00741782
0.00738551
0.00735203
0.00731739
0.00728161
0.00724471
0.00720671
0.00716764
0.00712751
0.00708635
0.00704417
0.00700099
0.00695684
0.00691174
0.0068657
0.00681874
0.00677089
0.00672217
0.00667258
0.00662217
0.00657093
0.0065189
0.0064661
0.00641253
0.00635822
0.00630318
0.00624745
0.00619102
0.00613393
0.00607618
0.0060178
0.0059588
0.0058992
0.00583902
0.00577827
0.00571696
0.00565512
0.00559275
0.00552988
0.00546651
0.00540267
0.00533837
0.00527361
0.00520842
0.00514281
0.00507678
0.00501036
0.00494356
0.00487638
0.00480885
0.00474096
0.00467274
0.0046042
0.00453534
0.00446618
0.00439672
0.00432699
0.00425698
0.0041867
0.00411618
0.00404541
0.0039744
0.00390317
0.00383172
0.00376006
0.00368819
0.00361614
0.0035439
0.00347148
0.00339889
0.00332613
0.00325322
0.00318016
0.00310695
0.0030336
0.00296013
0.00288652
0.00281279
0.00273895
0.002665
0.00259095
0.00251679
0.00244254
0.0023682
0.00229377
0.00221926
0.00214467
0.00207001
0.00199527
0.00192048
0.00184562
0.0017707
0.00169572
0.0016207
0.00154562
0.0014705
0.00139533
0.00132012
0.00124488
0.0011696
0.00109429
0.00101894
0.000943575
0.000868179
0.000792761
0.000717321
0.000641863
0.000566388
0.000490899
0.000415397
0.000339885
0.000264364
0.000188836
0.000113303
3.77681e-05
6.41458e-05
0.000192435
0.000320717
0.000448987
0.00057724
0.000705471
0.000833675
0.000961846
0.00108998
0.00121807
0.00134611
0.0014741
0.00160202
0.00172987
0.00185766
0.00198535
0.00211296
0.00224047
0.00236788
0.00249517
0.00262233
0.00274937
0.00287625
0.00300299
0.00312956
0.00325595
0.00338215
0.00350815
0.00363394
0.00375949
0.00388481
0.00400986
0.00413464
0.00425913
0.00438331
0.00450716
0.00463067
0.00475381
0.00487657
0.00499893
0.00512086
0.00524234
0.00536335
0.00548387
0.00560388
0.00572333
0.00584223
0.00596052
0.0060782
0.00619523
0.00631158
0.00642723
0.00654214
0.00665629
0.00676964
0.00688217
0.00699383
0.00710461
0.00721447
0.00732337
0.00743128
0.00753817
0.007644
0.00774873
0.00785235
0.0079548
0.00805605
0.00815607
0.00825482
0.00835227
0.00844838
0.00854312
0.00863644
0.00872833
0.00881873
0.00890761
0.00899495
0.0090807
0.00916483
0.00924731
0.00932811
0.00940719
0.00948452
0.00956007
0.00963382
0.00970572
0.00977575
0.00984389
0.0099101
0.00997437
0.0100367
0.0100969
0.0101552
0.0102114
0.0102656
0.0103177
0.0103676
0.0104155
0.0104612
0.0105047
0.0105461
0.0105854
0.0106224
0.0106572
0.0106898
0.0107202
0.0107484
0.0107744
0.0107981
0.0108197
0.0108389
0.010856
0.0108708
0.0108835
0.0108939
0.0109021
0.0109081
0.0109119
0.0109135
0.0109129
0.0109102
0.0109054
0.0108984
0.0108893
0.0108781
0.0108648
0.0108495
0.0108321
0.0108127
0.0107913
0.0107679
0.0107425
0.0107152
0.010686
0.0106549
0.010622
0.0105872
0.0105506
0.0105122
0.0104721
0.0104302
0.0103866
0.0103414
0.0102945
0.0102459
0.0101958
0.0101441
0.0100909
0.0100362
0.00997997
0.00992231
0.00986323
0.00980276
0.00974092
0.00967774
0.00961325
0.00954749
0.00948047
0.00941223
0.00934279
0.00927218
0.00920043
0.00912756
0.0090536
0.00897857
0.00890252
0.00882544
0.00874739
0.00866837
0.00858841
0.00850754
0.00842579
0.00834317
0.0082597
0.00817542
0.00809035
0.0080045
0.00791789
0.00783056
0.00774252
0.00765379
0.00756439
0.00747434
0.00738367
0.00729238
0.0072005
0.00710805
0.00701504
0.0069215
0.00682744
0.00673287
0.00663782
0.0065423
0.00644632
0.0063499
0.00625306
0.00615581
0.00605816
0.00596013
0.00586174
0.00576299
0.0056639
0.00556448
0.00546474
0.0053647
0.00526436
0.00516374
0.00506286
0.00496171
0.00486031
0.00475867
0.00465681
0.00455472
0.00445242
0.00434992
0.00424723
0.00414435
0.0040413
0.00393807
0.00383469
0.00373115
0.00362746
0.00352364
0.00341968
0.00331559
0.00321139
0.00310707
0.00300264
0.00289811
0.00279348
0.00268876
0.00258395
0.00247905
0.00237408
0.00226904
0.00216393
0.00205875
0.00195352
0.00184823
0.00174288
0.00163748
0.00153204
0.00142656
0.00132104
0.00121548
0.00110989
0.00100428
0.000898632
0.000792964
0.000687276
0.000581571
0.000475851
0.000370119
0.000264377
0.000158629
5.28767e-05
8.24774e-05
0.000247429
0.000412371
0.000577298
0.000742204
0.000907081
0.00107192
0.00123672
0.00140148
0.00156617
0.00173081
0.00189537
0.00205986
0.00222425
0.00238856
0.00255275
0.00271683
0.00288079
0.00304461
0.00320829
0.0033718
0.00353515
0.00369831
0.00386127
0.00402402
0.00418655
0.00434883
0.00451085
0.0046726
0.00483405
0.0049952
0.00515601
0.00531646
0.00547655
0.00563624
0.00579551
0.00595434
0.0061127
0.00627057
0.00642792
0.00658473
0.00674096
0.00689659
0.00705158
0.00720591
0.00735955
0.00751245
0.0076646
0.00781594
0.00796645
0.0081161
0.00826484
0.00841263
0.00855945
0.00870524
0.00884997
0.0089936
0.00913608
0.00927738
0.00941746
0.00955626
0.00969374
0.00982987
0.00996459
0.0100979
0.0102296
0.0103599
0.0104886
0.0106156
0.0107409
0.0108646
0.0109864
0.0111065
0.0112247
0.011341
0.0114553
0.0115676
0.011678
0.0117862
0.0118923
0.0119962
0.012098
0.0121974
0.0122946
0.0123895
0.012482
0.0125721
0.0126597
0.0127449
0.0128276
0.0129077
0.0129853
0.0130602
0.0131325
0.0132022
0.0132692
0.0133334
0.013395
0.0134538
0.0135098
0.0135631
0.0136135
0.0136611
0.0137059
0.0137479
0.013787
0.0138232
0.0138566
0.0138871
0.0139148
0.0139396
0.0139615
0.0139806
0.0139968
0.0140102
0.0140207
0.0140284
0.0140333
0.0140353
0.0140346
0.0140311
0.0140248
0.0140158
0.0140041
0.0139897
0.0139726
0.0139528
0.0139304
0.0139054
0.0138779
0.0138478
0.0138151
0.01378
0.0137424
0.0137024
0.01366
0.0136152
0.0135681
0.0135187
0.0134671
0.0134132
0.0133571
0.0132989
0.0132385
0.0131761
0.0131116
0.0130451
0.0129766
0.0129062
0.0128339
0.0127597
0.0126837
0.0126059
0.0125263
0.0124451
0.0123621
0.0122775
0.0121913
0.0121035
0.0120142
0.0119233
0.011831
0.0117373
0.0116422
0.0115457
0.0114478
0.0113487
0.0112483
0.0111466
0.0110438
0.0109398
0.0108346
0.0107284
0.010621
0.0105126
0.0104032
0.0102928
0.0101814
0.0100691
0.00995585
0.00984173
0.00972676
0.00961095
0.00949433
0.00937693
0.00925877
0.00913987
0.00902026
0.00889997
0.008779
0.00865739
0.00853515
0.00841231
0.00828888
0.00816489
0.00804035
0.00791529
0.00778972
0.00766366
0.00753713
0.00741014
0.00728272
0.00715487
0.00702661
0.00689797
0.00676895
0.00663956
0.00650983
0.00637977
0.00624938
0.00611869
0.0059877
0.00585643
0.00572489
0.00559309
0.00546104
0.00532876
0.00519624
0.00506351
0.00493058
0.00479744
0.00466412
0.00453062
0.00439695
0.00426311
0.00412912
0.00399499
0.00386071
0.0037263
0.00359177
0.00345712
0.00332236
0.00318749
0.00305252
0.00291746
0.00278231
0.00264707
0.00251176
0.00237638
0.00224093
0.00210542
0.00196984
0.00183422
0.00169854
0.00156282
0.00142706
0.00129126
0.00115542
0.00101956
0.000883671
0.000747759
0.000611829
0.000475883
0.000339925
0.000203958
6.79866e-05
0.000100812
0.000302432
0.000504041
0.000705632
0.000907196
0.00110873
0.00131021
0.00151165
0.00171303
0.00191434
0.00211558
0.00231673
0.00251778
0.00271873
0.00291956
0.00312027
0.00332083
0.00352124
0.00372149
0.00392156
0.00412144
0.00432111
0.00452056
0.00471976
0.00491871
0.00511738
0.00531576
0.00551383
0.00571156
0.00590893
0.00610592
0.00630251
0.00649866
0.00669437
0.00688959
0.0070843
0.00727848
0.00747208
0.00766509
0.00785746
0.00804917
0.00824018
0.00843046
0.00861996
0.00880865
0.00899649
0.00918344
0.00936947
0.00955452
0.00973855
0.00992152
0.0101034
0.0102841
0.0104636
0.0106419
0.0108189
0.0109945
0.0111687
0.0113415
0.0115128
0.0116825
0.0118507
0.0120171
0.0121819
0.0123449
0.012506
0.0126653
0.0128227
0.012978
0.0131313
0.0132825
0.0134316
0.0135784
0.0137229
0.0138651
0.014005
0.0141424
0.0142773
0.0144097
0.0145394
0.0146666
0.014791
0.0149126
0.0150315
0.0151475
0.0152607
0.0153708
0.015478
0.0155822
0.0156833
0.0157813
0.0158762
0.0159678
0.0160563
0.0161415
0.0162234
0.016302
0.0163773
0.0164492
0.0165177
0.0165828
0.0166445
0.0167027
0.0167575
0.0168087
0.0168566
0.0169009
0.0169417
0.016979
0.0170128
0.0170431
0.0170699
0.0170932
0.017113
0.0171293
0.0171422
0.0171516
0.0171575
0.01716
0.0171591
0.0171548
0.0171471
0.017136
0.0171216
0.017104
0.017083
0.0170588
0.0170314
0.0170008
0.016967
0.0169302
0.0168902
0.0168472
0.0168012
0.0167523
0.0167004
0.0166456
0.0165879
0.0165275
0.0164643
0.0163984
0.0163297
0.0162585
0.0161847
0.0161083
0.0160294
0.015948
0.0158642
0.0157781
0.0156896
0.0155989
0.0155059
0.0154108
0.0153135
0.015214
0.0151126
0.0150091
0.0149037
0.0147963
0.014687
0.014576
0.0144631
0.0143484
0.0142321
0.0141141
0.0139944
0.0138732
0.0137504
0.0136261
0.0135004
0.0133732
0.0132446
0.0131147
0.0129834
0.0128508
0.0127171
0.012582
0.0124459
0.0123085
0.0121701
0.0120305
0.01189
0.0117484
0.0116058
0.0114622
0.0113178
0.0111724
0.0110262
0.0108791
0.0107312
0.0105825
0.0104331
0.0102829
0.010132
0.00998042
0.00982817
0.00967528
0.00952177
0.00936766
0.00921297
0.00905773
0.00890196
0.00874567
0.00858888
0.00843162
0.0082739
0.00811573
0.00795714
0.00779815
0.00763876
0.007479
0.00731888
0.00715841
0.00699762
0.00683651
0.00667509
0.00651339
0.00635141
0.00618916
0.00602666
0.00586393
0.00570096
0.00553777
0.00537438
0.00521079
0.00504701
0.00488305
0.00471892
0.00455463
0.00439019
0.0042256
0.00406088
0.00389602
0.00373105
0.00356596
0.00340077
0.00323547
0.00307008
0.0029046
0.00273904
0.0025734
0.0024077
0.00224192
0.00207609
0.0019102
0.00174426
0.00157827
0.00141225
0.00124618
0.00108009
0.000913967
0.000747822
0.000581659
0.000415481
0.000249293
8.30982e-05
0.00011915
0.000357447
0.00059573
0.000833991
0.00107222
0.00131041
0.00154855
0.00178664
0.00202465
0.00226259
0.00250043
0.00273818
0.00297581
0.00321332
0.00345069
0.00368792
0.00392498
0.00416186
0.00439855
0.00463503
0.00487129
0.0051073
0.00534305
0.00557851
0.00581368
0.00604852
0.00628301
0.00651714
0.00675087
0.00698418
0.00721704
0.00744943
0.00768132
0.00791267
0.00814345
0.00837364
0.00860319
0.00883207
0.00906024
0.00928767
0.00951432
0.00974014
0.0099651
0.0101891
0.0104122
0.0106343
0.0108554
0.0110753
0.0112941
0.0115117
0.0117281
0.0119431
0.0121568
0.0123691
0.0125799
0.0127891
0.0129968
0.0132028
0.0134072
0.0136097
0.0138104
0.0140093
0.0142061
0.014401
0.0145937
0.0147843
0.0149727
0.0151588
0.0153425
0.0155238
0.0157026
0.0158789
0.0160525
0.0162235
0.0163917
0.0165571
0.0167196
0.0168792
0.0170357
0.0171892
0.0173396
0.0174867
0.0176306
0.0177712
0.0179085
0.0180423
0.0181726
0.0182994
0.0184226
0.0185422
0.0186581
0.0187703
0.0188787
0.0189833
0.019084
0.0191809
0.0192739
0.0193629
0.0194479
0.0195289
0.0196059
0.0196789
0.0197477
0.0198125
0.0198731
0.0199296
0.019982
0.0200303
0.0200744
0.0201143
0.0201502
0.0201818
0.0202093
0.0202327
0.020252
0.0202671
0.0202782
0.0202852
0.0202881
0.0202869
0.0202818
0.0202726
0.0202595
0.0202425
0.0202215
0.0201967
0.020168
0.0201355
0.0200993
0.0200593
0.0200157
0.0199684
0.0199175
0.019863
0.0198051
0.0197436
0.0196788
0.0196106
0.019539
0.0194642
0.0193862
0.019305
0.0192207
0.0191333
0.019043
0.0189496
0.0188534
0.0187543
0.0186524
0.0185477
0.0184404
0.0183304
0.0182178
0.0181027
0.0179851
0.0178651
0.0177427
0.017618
0.017491
0.0173618
0.0172304
0.0170969
0.0169613
0.0168237
0.0166841
0.0165426
0.0163993
0.0162541
0.0161071
0.0159584
0.015808
0.0156559
0.0155023
0.015347
0.0151903
0.0150321
0.0148725
0.0147114
0.0145491
0.0143854
0.0142204
0.0140542
0.0138868
0.0137182
0.0135485
0.0133777
0.0132058
0.0130329
0.012859
0.0126842
0.0125084
0.0123317
0.0121542
0.0119758
0.0117966
0.0116166
0.0114359
0.0112544
0.0110722
0.0108894
0.0107059
0.0105217
0.010337
0.0101516
0.00996573
0.00977929
0.00959232
0.00940486
0.00921692
0.00902852
0.00883967
0.0086504
0.00846073
0.00827066
0.00808022
0.00788943
0.00769829
0.00750683
0.00731506
0.00712299
0.00693064
0.00673802
0.00654513
0.00635201
0.00615865
0.00596507
0.00577128
0.00557728
0.0053831
0.00518874
0.00499421
0.00479952
0.00460468
0.00440969
0.00421457
0.00401933
0.00382396
0.00362849
0.00343291
0.00323723
0.00304146
0.00284561
0.00264969
0.00245369
0.00225763
0.0020615
0.00186533
0.0016691
0.00147284
0.00127653
0.0010802
0.000883834
0.000687449
0.000491047
0.000294633
9.82119e-05
0.000137493
0.000412474
0.00068744
0.000962381
0.00123729
0.00151215
0.00178695
0.00206169
0.00233635
0.00261092
0.00288539
0.00315974
0.00343397
0.00370805
0.00398198
0.00425574
0.00452931
0.00480267
0.00507582
0.00534873
0.00562138
0.00589375
0.00616582
0.00643757
0.00670897
0.00698
0.00725063
0.00752085
0.0077906
0.00805988
0.00832865
0.00859687
0.00886451
0.00913154
0.00939791
0.0096636
0.00992856
0.0101928
0.0104561
0.0107187
0.0109803
0.011241
0.0115006
0.0117593
0.0120168
0.0122732
0.0125284
0.0127823
0.0130349
0.0132861
0.0135359
0.0137842
0.0140309
0.014276
0.0145193
0.014761
0.0150008
0.0152387
0.0154746
0.0157085
0.0159402
0.0161698
0.0163972
0.0166221
0.0168447
0.0170648
0.0172823
0.0174972
0.0177094
0.0179188
0.0181253
0.0183289
0.0185294
0.0187268
0.0189211
0.0191121
0.0192998
0.0194841
0.0196649
0.0198422
0.0200158
0.0201858
0.020352
0.0205143
0.0206728
0.0208274
0.0209779
0.0211243
0.0212666
0.0214047
0.0215386
0.0216681
0.0217933
0.0219141
0.0220305
0.0221424
0.0222497
0.0223525
0.0224507
0.0225442
0.0226331
0.0227173
0.0227968
0.0228716
0.0229416
0.0230069
0.0230673
0.023123
0.0231739
0.02322
0.0232613
0.0232979
0.0233296
0.0233565
0.0233787
0.0233962
0.0234089
0.0234169
0.0234202
0.0234188
0.0234128
0.0234022
0.023387
0.0233672
0.0233429
0.0233142
0.023281
0.0232434
0.0232015
0.0231553
0.0231048
0.0230501
0.0229913
0.0229283
0.0228613
0.0227903
0.0227154
0.0226365
0.0225538
0.0224674
0.0223772
0.0222834
0.022186
0.022085
0.0219806
0.0218728
0.0217616
0.0216471
0.0215293
0.0214084
0.0212844
0.0211574
0.0210274
0.0208944
0.0207586
0.02062
0.0204786
0.0203345
0.0201879
0.0200386
0.0198869
0.0197327
0.0195762
0.0194173
0.0192561
0.0190927
0.0189272
0.0187595
0.0185898
0.0184181
0.0182444
0.0180688
0.0178914
0.0177122
0.0175313
0.0173486
0.0171643
0.0169784
0.0167909
0.0166019
0.0164115
0.0162196
0.0160263
0.0158317
0.0156358
0.0154386
0.0152402
0.0150407
0.01484
0.0146381
0.0144352
0.0142313
0.0140263
0.0138204
0.0136136
0.0134058
0.0131972
0.0129878
0.0127775
0.0125664
0.0123546
0.0121421
0.0119288
0.0117149
0.0115004
0.0112852
0.0110694
0.0108531
0.0106362
0.0104187
0.0102008
0.00998233
0.00976343
0.00954408
0.0093243
0.00910411
0.00888353
0.00866257
0.00844126
0.0082196
0.00799762
0.00777533
0.00755274
0.00732987
0.00710673
0.00688334
0.0066597
0.00643584
0.00621176
0.00598747
0.00576299
0.00553832
0.00531348
0.00508847
0.00486331
0.00463801
0.00441257
0.004187
0.00396131
0.00373551
0.00350961
0.00328361
0.00305752
0.00283136
0.00260511
0.0023788
0.00215243
0.001926
0.00169953
0.00147301
0.00124645
0.00101987
0.000793257
0.000566626
0.000339981
0.000113328
0.000155841
0.000467517
0.000779176
0.00109081
0.0014024
0.00171394
0.00202542
0.00233682
0.00264814
0.00295935
0.00327046
0.00358143
0.00389226
0.00420293
0.00451343
0.00482374
0.00513384
0.00544371
0.00575333
0.00606268
0.00637175
0.0066805
0.00698891
0.00729697
0.00760463
0.00791188
0.00821868
0.008525
0.00883082
0.0091361
0.00944079
0.00974488
0.0100483
0.0103511
0.0106531
0.0109543
0.0112547
0.0115543
0.0118529
0.0121506
0.0124472
0.0127428
0.0130372
0.0133305
0.0136226
0.0139133
0.0142027
0.0144906
0.0147771
0.015062
0.0153452
0.0156268
0.0159066
0.0161846
0.0164606
0.0167346
0.0170066
0.0172765
0.017544
0.0178093
0.0180722
0.0183326
0.0185905
0.0188457
0.0190982
0.0193479
0.0195946
0.0198384
0.0200791
0.0203166
0.0205509
0.0207818
0.0210093
0.0212333
0.0214537
0.0216704
0.0218834
0.0220925
0.0222976
0.0224987
0.0226957
0.0228885
0.0230771
0.0232613
0.0234411
0.0236165
0.0237872
0.0239534
0.0241148
0.0242715
0.0244234
0.0245703
0.0247124
0.0248494
0.0249814
0.0251083
0.0252301
0.0253467
0.0254581
0.0255642
0.025665
0.0257605
0.0258507
0.0259355
0.0260149
0.0260888
0.0261574
0.0262205
0.0262782
0.0263305
0.0263773
0.0264187
0.0264546
0.0264851
0.0265102
0.02653
0.0265443
0.0265533
0.026557
0.0265553
0.0265484
0.0265363
0.0265189
0.0264964
0.0264688
0.0264361
0.0263984
0.0263557
0.026308
0.0262555
0.0261982
0.026136
0.0260692
0.0259977
0.0259216
0.0258409
0.0257558
0.0256663
0.0255724
0.0254743
0.0253719
0.0252654
0.0251548
0.0250402
0.0249217
0.0247993
0.0246731
0.0245431
0.0244095
0.0242723
0.0241316
0.0239874
0.0238398
0.023689
0.0235349
0.0233776
0.0232172
0.0230537
0.0228873
0.022718
0.0225459
0.022371
0.0221934
0.0220131
0.0218303
0.021645
0.0214572
0.021267
0.0210745
0.0208797
0.0206827
0.0204836
0.0202824
0.0200791
0.0198739
0.0196668
0.0194577
0.0192469
0.0190343
0.01882
0.018604
0.0183864
0.0181672
0.0179466
0.0177244
0.0175008
0.0172759
0.0170496
0.016822
0.0165931
0.0163631
0.0161318
0.0158995
0.015666
0.0154315
0.0151959
0.0149594
0.0147219
0.0144835
0.0142442
0.0140041
0.0137631
0.0135214
0.0132789
0.0130356
0.0127917
0.0125471
0.0123018
0.0120559
0.0118094
0.0115623
0.0113147
0.0110666
0.0108179
0.0105688
0.0103192
0.0100691
0.00981867
0.0095678
0.00931654
0.00906491
0.00881294
0.00856063
0.008308
0.00805507
0.00780185
0.00754836
0.00729461
0.00704062
0.00678639
0.00653195
0.00627729
0.00602244
0.0057674
0.0055122
0.00525682
0.0050013
0.00474563
0.00448982
0.00423389
0.00397785
0.00372169
0.00346544
0.0032091
0.00295267
0.00269616
0.00243959
0.00218295
0.00192626
0.00166952
0.00141274
0.00115593
0.000899084
0.000642219
0.000385337
0.000128447
0.000174194
0.000522576
0.000870939
0.00121927
0.00156756
0.0019158
0.00226396
0.00261204
0.00296003
0.0033079
0.00365565
0.00400326
0.00435072
0.00469799
0.00504508
0.00539195
0.0057386
0.00608499
0.00643111
0.00677693
0.00712243
0.00746759
0.00781237
0.00815675
0.00850071
0.0088442
0.0091872
0.00952967
0.00987158
0.0102129
0.0105536
0.0108935
0.0112328
0.0115713
0.011909
0.0122458
0.0125817
0.0129167
0.0132506
0.0135835
0.0139152
0.0142457
0.014575
0.014903
0.0152296
0.0155547
0.0158784
0.0162004
0.0165208
0.0168394
0.0171563
0.0174712
0.0177842
0.0180951
0.0184038
0.0187104
0.0190146
0.0193165
0.0196158
0.0199126
0.0202067
0.020498
0.0207865
0.021072
0.0213545
0.0216338
0.0219099
0.0221827
0.022452
0.0227177
0.0229799
0.0232382
0.0234928
0.0237434
0.0239901
0.0242325
0.0244708
0.0247048
0.0249343
0.0251594
0.0253798
0.0255956
0.0258066
0.0260127
0.0262139
0.0264101
0.0266012
0.0267871
0.0269678
0.0271431
0.027313
0.0274775
0.0276364
0.0277898
0.0279375
0.0280795
0.0282157
0.0283461
0.0284707
0.0285895
0.0287022
0.0288091
0.0289099
0.0290047
0.0290935
0.0291763
0.0292529
0.0293235
0.029388
0.0294464
0.0294987
0.0295449
0.0295851
0.0296191
0.0296471
0.0296691
0.0296851
0.029695
0.029699
0.0296971
0.0296893
0.0296756
0.0296561
0.0296308
0.0295998
0.0295631
0.0295208
0.0294729
0.0294194
0.0293606
0.0292963
0.0292266
0.0291517
0.0290716
0.0289864
0.028896
0.0288007
0.0287004
0.0285953
0.0284854
0.0283707
0.0282515
0.0281277
0.0279993
0.0278666
0.0277296
0.0275883
0.0274428
0.0272933
0.0271397
0.0269822
0.0268208
0.0266556
0.0264868
0.0263143
0.0261383
0.0259588
0.0257759
0.0255897
0.0254003
0.0252077
0.0250119
0.0248132
0.0246115
0.024407
0.0241996
0.0239896
0.0237768
0.0235614
0.0233436
0.0231232
0.0229005
0.0226754
0.022448
0.0222185
0.0219868
0.021753
0.0215172
0.0212794
0.0210397
0.0207981
0.0205548
0.0203097
0.0200629
0.0198144
0.0195644
0.0193128
0.0190598
0.0188052
0.0185493
0.0182921
0.0180335
0.0177737
0.0175126
0.0172504
0.016987
0.0167225
0.016457
0.0161905
0.0159229
0.0156544
0.015385
0.0151147
0.0148436
0.0145716
0.0142989
0.0140254
0.0137512
0.0134763
0.0132007
0.0129245
0.0126476
0.0123702
0.0120922
0.0118137
0.0115347
0.0112552
0.0109752
0.0106947
0.0104138
0.0101326
0.00985088
0.00956883
0.00928643
0.0090037
0.00872064
0.00843728
0.00815363
0.00786971
0.00758553
0.00730111
0.00701646
0.00673159
0.00644651
0.00616124
0.00587579
0.00559017
0.00530439
0.00501846
0.00473239
0.00444619
0.00415988
0.00387345
0.00358692
0.0033003
0.00301359
0.00272681
0.00243996
0.00215304
0.00186608
0.00157907
0.00129202
0.00100493
0.000717827
0.000430703
0.000143569
0.000192553
0.000577653
0.000962733
0.00134778
0.00173278
0.00211772
0.00250258
0.00288736
0.00327203
0.00365658
0.00404099
0.00442525
0.00480934
0.00519324
0.00557694
0.0059604
0.00634361
0.00672654
0.00710918
0.0074915
0.00787346
0.00825505
0.00863623
0.00901697
0.00939725
0.00977702
0.0101562
0.0105349
0.0109129
0.0112903
0.011667
0.0120429
0.0124181
0.0127924
0.0131658
0.0135382
0.0139097
0.0142801
0.0146494
0.0150175
0.0153844
0.0157499
0.0161141
0.0164769
0.0168381
0.0171977
0.0175557
0.0179119
0.0182663
0.0186187
0.0189692
0.0193176
0.0196638
0.0200077
0.0203493
0.0206885
0.021025
0.021359
0.0216902
0.0220185
0.0223439
0.0226663
0.0229855
0.0233014
0.0236139
0.023923
0.0242285
0.0245303
0.0248284
0.0251225
0.0254125
0.0256985
0.0259802
0.0262576
0.0265305
0.0267989
0.0270626
0.0273215
0.0275755
0.0278246
0.0280686
0.0283074
0.0285409
0.0287691
0.0289918
0.0292089
0.0294204
0.0296261
0.0298261
0.0300201
0.0302082
0.0303902
0.0305661
0.0307358
0.0308992
0.0310563
0.0312071
0.0313514
0.0314893
0.0316206
0.0317454
0.0318636
0.0319751
0.03208
0.0321782
0.0322697
0.0323545
0.0324326
0.0325038
0.0325684
0.0326262
0.0326773
0.0327216
0.0327592
0.0327901
0.0328143
0.0328318
0.0328427
0.0328471
0.0328448
0.032836
0.0328207
0.032799
0.0327709
0.0327365
0.0326957
0.0326487
0.0325956
0.0325363
0.032471
0.0323997
0.0323225
0.0322395
0.0321507
0.0320562
0.0319561
0.0318505
0.0317394
0.0316229
0.0315012
0.0313742
0.0312421
0.031105
0.0309629
0.0308159
0.0306641
0.0305077
0.0303466
0.030181
0.030011
0.0298366
0.029658
0.0294752
0.0292882
0.0290973
0.0289025
0.0287038
0.0285014
0.0282953
0.0280857
0.0278725
0.0276559
0.027436
0.0272128
0.0269865
0.0267571
0.0265246
0.0262892
0.0260509
0.0258099
0.0255661
0.0253197
0.0250707
0.0248192
0.0245652
0.0243089
0.0240503
0.0237894
0.0235264
0.0232612
0.0229941
0.0227249
0.0224538
0.0221808
0.021906
0.0216295
0.0213513
0.0210714
0.0207899
0.0205069
0.0202224
0.0199364
0.0196491
0.0193604
0.0190704
0.0187792
0.0184867
0.0181931
0.0178984
0.0176025
0.0173056