/*--------------------------------*- C++ -*----------------------------------*\
| =========                 |                                                 |
| \\      /  F ield         | OpenFOAM: The Open Source CFD Toolbox           |
|  \\    /   O peration     | Version:  v2012                                 |
|   \\  /    A nd           | Website:  www.openfoam.com                      |
|    \\/     M anipulation  |                                                 |
\*---------------------------------------------------------------------------*/
FoamFile
{
    version     2.0;
    format      ascii;
    class       volVectorField;
    location    "5.5";
    object      U;
}
// * * * * * * * * * * * * * * * * * * * * * * * * * * * * * * * * * * * * * //

dimensions      [0 1 -1 0 0 0 0];


internalField   nonuniform List<vector> 
65536
(
(0.000746589 -0.000746575 0)
(0.00223974 -0.000746547 0)
(0.0037328 -0.000746489 0)
(0.00522572 -0.000746404 0)
(0.00671845 -0.000746288 0)
(0.00821091 -0.000746143 0)
(0.00970305 -0.000745968 0)
(0.0111948 -0.000745761 0)
(0.0126861 -0.000745521 0)
(0.0141769 -0.000745248 0)
(0.0156671 -0.00074494 0)
(0.0171567 -0.000744596 0)
(0.0186456 -0.000744214 0)
(0.0201336 -0.000743793 0)
(0.0216208 -0.00074333 0)
(0.023107 -0.000742823 0)
(0.0245921 -0.000742272 0)
(0.0260761 -0.000741673 0)
(0.0275589 -0.000741024 0)
(0.0290403 -0.000740322 0)
(0.0305202 -0.000739566 0)
(0.0319986 -0.000738752 0)
(0.0334753 -0.000737877 0)
(0.0349502 -0.000736939 0)
(0.0364231 -0.000735935 0)
(0.037894 -0.000734861 0)
(0.0393626 -0.000733714 0)
(0.0408289 -0.000732491 0)
(0.0422927 -0.000731188 0)
(0.0437537 -0.000729803 0)
(0.0452119 -0.00072833 0)
(0.0466671 -0.000726768 0)
(0.0481191 -0.000725111 0)
(0.0495677 -0.000723356 0)
(0.0510126 -0.000721499 0)
(0.0524538 -0.000719537 0)
(0.0538909 -0.000717465 0)
(0.0553237 -0.000715279 0)
(0.0567521 -0.000712976 0)
(0.0581758 -0.000710551 0)
(0.0595945 -0.000708 0)
(0.0610079 -0.000705319 0)
(0.0624159 -0.000702504 0)
(0.0638181 -0.000699551 0)
(0.0652142 -0.000696457 0)
(0.066604 -0.000693216 0)
(0.0679872 -0.000689825 0)
(0.0693635 -0.00068628 0)
(0.0707325 -0.000682577 0)
(0.0720939 -0.000678713 0)
(0.0734475 -0.000674683 0)
(0.0747928 -0.000670485 0)
(0.0761296 -0.000666114 0)
(0.0774575 -0.000661567 0)
(0.0787761 -0.000656841 0)
(0.080085 -0.000651933 0)
(0.081384 -0.00064684 0)
(0.0826726 -0.000641559 0)
(0.0839504 -0.000636086 0)
(0.0852171 -0.000630421 0)
(0.0864723 -0.00062456 0)
(0.0877155 -0.000618501 0)
(0.0889465 -0.000612243 0)
(0.0901647 -0.000605784 0)
(0.0913698 -0.000599122 0)
(0.0925614 -0.000592255 0)
(0.0937391 -0.000585185 0)
(0.0949024 -0.000577908 0)
(0.0960509 -0.000570425 0)
(0.0971843 -0.000562736 0)
(0.098302 -0.000554841 0)
(0.0994038 -0.00054674 0)
(0.100489 -0.000538434 0)
(0.101558 -0.000529924 0)
(0.102609 -0.000521211 0)
(0.103643 -0.000512296 0)
(0.104658 -0.000503182 0)
(0.105656 -0.000493871 0)
(0.106634 -0.000484364 0)
(0.107593 -0.000474665 0)
(0.108533 -0.000464777 0)
(0.109453 -0.000454703 0)
(0.110352 -0.000444446 0)
(0.111231 -0.000434012 0)
(0.112088 -0.000423403 0)
(0.112924 -0.000412624 0)
(0.113739 -0.000401681 0)
(0.114531 -0.000390578 0)
(0.115301 -0.000379321 0)
(0.116049 -0.000367914 0)
(0.116773 -0.000356364 0)
(0.117474 -0.000344678 0)
(0.118152 -0.00033286 0)
(0.118806 -0.000320918 0)
(0.119436 -0.000308858 0)
(0.120041 -0.000296687 0)
(0.120623 -0.000284412 0)
(0.121179 -0.000272041 0)
(0.121711 -0.00025958 0)
(0.122218 -0.000247036 0)
(0.122699 -0.000234418 0)
(0.123155 -0.000221734 0)
(0.123586 -0.000208989 0)
(0.123991 -0.000196194 0)
(0.124371 -0.000183354 0)
(0.124725 -0.000170478 0)
(0.125053 -0.000157575 0)
(0.125355 -0.000144651 0)
(0.125631 -0.000131714 0)
(0.125882 -0.000118773 0)
(0.126107 -0.000105835 0)
(0.126305 -9.2907e-05 0)
(0.126478 -7.99975e-05 0)
(0.126625 -6.71136e-05 0)
(0.126747 -5.42628e-05 0)
(0.126842 -4.14522e-05 0)
(0.126912 -2.86891e-05 0)
(0.126957 -1.59802e-05 0)
(0.126976 -3.33251e-06 0)
(0.12697 9.24741e-06 0)
(0.126939 2.17531e-05 0)
(0.126883 3.41783e-05 0)
(0.126802 4.65169e-05 0)
(0.126697 5.8763e-05 0)
(0.126567 7.0911e-05 0)
(0.126413 8.29554e-05 0)
(0.126235 9.48911e-05 0)
(0.126034 0.000106713 0)
(0.125808 0.000118416 0)
(0.12556 0.000129996 0)
(0.125288 0.000141449 0)
(0.124994 0.000152771 0)
(0.124677 0.000163957 0)
(0.124338 0.000175004 0)
(0.123977 0.000185909 0)
(0.123594 0.000196669 0)
(0.12319 0.000207281 0)
(0.122765 0.000217741 0)
(0.122319 0.000228049 0)
(0.121852 0.000238201 0)
(0.121366 0.000248196 0)
(0.12086 0.000258032 0)
(0.120334 0.000267707 0)
(0.119789 0.00027722 0)
(0.119225 0.00028657 0)
(0.118642 0.000295757 0)
(0.118041 0.000304778 0)
(0.117423 0.000313635 0)
(0.116787 0.000322326 0)
(0.116133 0.000330851 0)
(0.115463 0.000339211 0)
(0.114776 0.000347405 0)
(0.114073 0.000355434 0)
(0.113354 0.000363299 0)
(0.11262 0.000370999 0)
(0.11187 0.000378536 0)
(0.111106 0.000385911 0)
(0.110326 0.000393123 0)
(0.109533 0.000400176 0)
(0.108726 0.000407069 0)
(0.107905 0.000413805 0)
(0.10707 0.000420384 0)
(0.106223 0.000426808 0)
(0.105363 0.000433079 0)
(0.10449 0.000439198 0)
(0.103606 0.000445167 0)
(0.10271 0.000450988 0)
(0.101802 0.000456662 0)
(0.100883 0.000462192 0)
(0.0999529 0.000467579 0)
(0.0990124 0.000472826 0)
(0.0980615 0.000477935 0)
(0.0971005 0.000482906 0)
(0.0961297 0.000487744 0)
(0.0951494 0.00049245 0)
(0.0941598 0.000497025 0)
(0.0931612 0.000501472 0)
(0.0921538 0.000505794 0)
(0.0911379 0.000509992 0)
(0.0901137 0.000514069 0)
(0.0890815 0.000518027 0)
(0.0880415 0.000521868 0)
(0.0869939 0.000525595 0)
(0.085939 0.000529209 0)
(0.0848769 0.000532713 0)
(0.083808 0.000536109 0)
(0.0827324 0.000539399 0)
(0.0816503 0.000542585 0)
(0.080562 0.00054567 0)
(0.0794675 0.000548656 0)
(0.0783672 0.000551545 0)
(0.0772613 0.000554339 0)
(0.0761498 0.00055704 0)
(0.075033 0.00055965 0)
(0.0739111 0.000562172 0)
(0.0727842 0.000564607 0)
(0.0716526 0.000566958 0)
(0.0705163 0.000569227 0)
(0.0693756 0.000571415 0)
(0.0682306 0.000573525 0)
(0.0670814 0.000575558 0)
(0.0659283 0.000577517 0)
(0.0647713 0.000579403 0)
(0.0636106 0.000581219 0)
(0.0624464 0.000582966 0)
(0.0612787 0.000584646 0)
(0.0601077 0.000586261 0)
(0.0589336 0.000587813 0)
(0.0577564 0.000589303 0)
(0.0565763 0.000590734 0)
(0.0553934 0.000592106 0)
(0.0542078 0.000593423 0)
(0.0530197 0.000594684 0)
(0.051829 0.000595892 0)
(0.050636 0.00059705 0)
(0.0494408 0.000598157 0)
(0.0482434 0.000599216 0)
(0.0470439 0.000600228 0)
(0.0458424 0.000601194 0)
(0.044639 0.000602117 0)
(0.0434339 0.000602998 0)
(0.042227 0.000603837 0)
(0.0410185 0.000604637 0)
(0.0398084 0.000605398 0)
(0.0385969 0.000606122 0)
(0.0373839 0.000606811 0)
(0.0361696 0.000607465 0)
(0.034954 0.000608085 0)
(0.0337372 0.000608673 0)
(0.0325193 0.00060923 0)
(0.0313003 0.000609757 0)
(0.0300802 0.000610255 0)
(0.0288592 0.000610725 0)
(0.0276373 0.000611168 0)
(0.0264145 0.000611585 0)
(0.0251909 0.000611977 0)
(0.0239666 0.000612344 0)
(0.0227415 0.000612688 0)
(0.0215158 0.000613009 0)
(0.0202895 0.000613308 0)
(0.0190626 0.000613586 0)
(0.0178351 0.000613843 0)
(0.0166072 0.000614081 0)
(0.0153788 0.000614298 0)
(0.01415 0.000614497 0)
(0.0129208 0.000614678 0)
(0.0116912 0.000614841 0)
(0.0104614 0.000614986 0)
(0.00923126 0.000615114 0)
(0.0080009 0.000615226 0)
(0.00677034 0.000615321 0)
(0.0055396 0.000615399 0)
(0.00430873 0.000615462 0)
(0.00307774 0.000615509 0)
(0.00184667 0.00061554 0)
(0.000615563 0.000615556 0)
(0.000746617 -0.00223975 0)
(0.00223982 -0.00223967 0)
(0.00373294 -0.0022395 0)
(0.00522592 -0.00223924 0)
(0.0067187 -0.00223889 0)
(0.00821122 -0.00223846 0)
(0.00970343 -0.00223793 0)
(0.0111953 -0.00223731 0)
(0.0126866 -0.0022366 0)
(0.0141775 -0.00223578 0)
(0.0156678 -0.00223486 0)
(0.0171574 -0.00223383 0)
(0.0186464 -0.00223268 0)
(0.0201345 -0.00223142 0)
(0.0216217 -0.00223003 0)
(0.023108 -0.00222851 0)
(0.0245933 -0.00222686 0)
(0.0260773 -0.00222507 0)
(0.0275602 -0.00222312 0)
(0.0290417 -0.00222102 0)
(0.0305218 -0.00221875 0)
(0.0320003 -0.00221632 0)
(0.0334771 -0.00221369 0)
(0.0349521 -0.00221088 0)
(0.0364252 -0.00220787 0)
(0.0378962 -0.00220465 0)
(0.039365 -0.00220122 0)
(0.0408314 -0.00219755 0)
(0.0422953 -0.00219365 0)
(0.0437566 -0.00218949 0)
(0.045215 -0.00218508 0)
(0.0466703 -0.0021804 0)
(0.0481225 -0.00217543 0)
(0.0495713 -0.00217017 0)
(0.0510164 -0.0021646 0)
(0.0524578 -0.00215872 0)
(0.0538951 -0.00215251 0)
(0.0553282 -0.00214595 0)
(0.0567568 -0.00213905 0)
(0.0581807 -0.00213178 0)
(0.0595997 -0.00212413 0)
(0.0610134 -0.00211609 0)
(0.0624216 -0.00210765 0)
(0.0638241 -0.0020988 0)
(0.0652205 -0.00208951 0)
(0.0666106 -0.0020798 0)
(0.0679941 -0.00206963 0)
(0.0693707 -0.002059 0)
(0.07074 -0.00204789 0)
(0.0721018 -0.0020363 0)
(0.0734557 -0.00202422 0)
(0.0748014 -0.00201163 0)
(0.0761385 -0.00199852 0)
(0.0774667 -0.00198488 0)
(0.0787857 -0.00197071 0)
(0.080095 -0.00195598 0)
(0.0813943 -0.00194071 0)
(0.0826833 -0.00192487 0)
(0.0839615 -0.00190845 0)
(0.0852286 -0.00189146 0)
(0.0864842 -0.00187388 0)
(0.0877278 -0.0018557 0)
(0.0889592 -0.00183693 0)
(0.0901778 -0.00181755 0)
(0.0913833 -0.00179757 0)
(0.0925753 -0.00177697 0)
(0.0937534 -0.00175576 0)
(0.0949171 -0.00173393 0)
(0.096066 -0.00171148 0)
(0.0971998 -0.00168841 0)
(0.098318 -0.00166473 0)
(0.0994202 -0.00164043 0)
(0.100506 -0.00161551 0)
(0.101575 -0.00158997 0)
(0.102627 -0.00156383 0)
(0.103661 -0.00153709 0)
(0.104677 -0.00150974 0)
(0.105675 -0.00148181 0)
(0.106653 -0.00145328 0)
(0.107613 -0.00142418 0)
(0.108553 -0.00139452 0)
(0.109473 -0.00136429 0)
(0.110373 -0.00133352 0)
(0.111252 -0.00130221 0)
(0.11211 -0.00127038 0)
(0.112946 -0.00123804 0)
(0.113761 -0.0012052 0)
(0.114554 -0.00117189 0)
(0.115324 -0.00113811 0)
(0.116072 -0.00110388 0)
(0.116796 -0.00106923 0)
(0.117498 -0.00103416 0)
(0.118176 -0.000998704 0)
(0.11883 -0.000962871 0)
(0.11946 -0.000926685 0)
(0.120066 -0.000890165 0)
(0.120647 -0.000853334 0)
(0.121204 -0.000816212 0)
(0.121736 -0.000778821 0)
(0.122243 -0.000741184 0)
(0.122724 -0.000703323 0)
(0.123181 -0.00066526 0)
(0.123612 -0.00062702 0)
(0.124017 -0.000588625 0)
(0.124397 -0.000550098 0)
(0.124751 -0.000511464 0)
(0.125079 -0.000472745 0)
(0.125381 -0.000433965 0)
(0.125657 -0.000395148 0)
(0.125908 -0.000356316 0)
(0.126132 -0.000317494 0)
(0.126331 -0.000278703 0)
(0.126504 -0.000239967 0)
(0.126651 -0.000201308 0)
(0.126772 -0.000162749 0)
(0.126868 -0.00012431 0)
(0.126938 -8.60135e-05 0)
(0.126982 -4.78802e-05 0)
(0.127001 -9.93052e-06 0)
(0.126995 2.78157e-05 0)
(0.126964 6.5339e-05 0)
(0.126908 0.000102621 0)
(0.126827 0.000139642 0)
(0.126721 0.000176386 0)
(0.126591 0.000212836 0)
(0.126437 0.000248974 0)
(0.126259 0.000284786 0)
(0.126057 0.000320256 0)
(0.125832 0.000355371 0)
(0.125583 0.000390116 0)
(0.125311 0.000424478 0)
(0.125016 0.000458446 0)
(0.124699 0.000492008 0)
(0.12436 0.000525153 0)
(0.123998 0.000557872 0)
(0.123615 0.000590154 0)
(0.123211 0.000621991 0)
(0.122786 0.000653376 0)
(0.122339 0.000684301 0)
(0.121873 0.000714759 0)
(0.121386 0.000744746 0)
(0.120879 0.000774255 0)
(0.120353 0.000803281 0)
(0.119807 0.000831822 0)
(0.119243 0.000859874 0)
(0.11866 0.000887433 0)
(0.118059 0.000914499 0)
(0.11744 0.000941069 0)
(0.116804 0.000967142 0)
(0.11615 0.000992718 0)
(0.11548 0.0010178 0)
(0.114793 0.00104238 0)
(0.114089 0.00106647 0)
(0.11337 0.00109006 0)
(0.112635 0.00111316 0)
(0.111885 0.00113577 0)
(0.11112 0.00115789 0)
(0.110341 0.00117953 0)
(0.109547 0.00120069 0)
(0.108739 0.00122136 0)
(0.107918 0.00124157 0)
(0.107083 0.00126131 0)
(0.106236 0.00128058 0)
(0.105375 0.00129939 0)
(0.104503 0.00131774 0)
(0.103618 0.00133565 0)
(0.102721 0.00135311 0)
(0.101813 0.00137013 0)
(0.100894 0.00138672 0)
(0.0999635 0.00140288 0)
(0.0990227 0.00141862 0)
(0.0980716 0.00143394 0)
(0.0971103 0.00144885 0)
(0.0961393 0.00146336 0)
(0.0951587 0.00147748 0)
(0.0941688 0.0014912 0)
(0.0931699 0.00150454 0)
(0.0921623 0.0015175 0)
(0.0911461 0.0015301 0)
(0.0901217 0.00154233 0)
(0.0890893 0.0015542 0)
(0.088049 0.00156572 0)
(0.0870012 0.0015769 0)
(0.0859461 0.00158774 0)
(0.0848838 0.00159825 0)
(0.0838147 0.00160843 0)
(0.0827389 0.0016183 0)
(0.0816566 0.00162786 0)
(0.080568 0.00163711 0)
(0.0794734 0.00164606 0)
(0.0783729 0.00165473 0)
(0.0772668 0.00166311 0)
(0.0761551 0.00167121 0)
(0.0750382 0.00167904 0)
(0.0739161 0.0016866 0)
(0.072789 0.00169391 0)
(0.0716572 0.00170096 0)
(0.0705208 0.00170776 0)
(0.0693799 0.00171432 0)
(0.0682347 0.00172065 0)
(0.0670854 0.00172675 0)
(0.0659321 0.00173262 0)
(0.064775 0.00173828 0)
(0.0636142 0.00174373 0)
(0.0624498 0.00174896 0)
(0.061282 0.001754 0)
(0.0601109 0.00175885 0)
(0.0589366 0.0017635 0)
(0.0577593 0.00176797 0)
(0.0565791 0.00177226 0)
(0.0553961 0.00177638 0)
(0.0542104 0.00178032 0)
(0.0530221 0.0017841 0)
(0.0518314 0.00178773 0)
(0.0506383 0.0017912 0)
(0.0494429 0.00179452 0)
(0.0482454 0.00179769 0)
(0.0470458 0.00180073 0)
(0.0458443 0.00180363 0)
(0.0446409 0.00180639 0)
(0.0434356 0.00180903 0)
(0.0422287 0.00181155 0)
(0.0410201 0.00181395 0)
(0.0398099 0.00181623 0)
(0.0385983 0.0018184 0)
(0.0373852 0.00182047 0)
(0.0361709 0.00182243 0)
(0.0349552 0.00182429 0)
(0.0337384 0.00182605 0)
(0.0325204 0.00182772 0)
(0.0313013 0.0018293 0)
(0.0300812 0.00183079 0)
(0.0288601 0.0018322 0)
(0.0276382 0.00183353 0)
(0.0264153 0.00183478 0)
(0.0251917 0.00183596 0)
(0.0239673 0.00183706 0)
(0.0227422 0.00183809 0)
(0.0215164 0.00183905 0)
(0.0202901 0.00183995 0)
(0.0190631 0.00184078 0)
(0.0178356 0.00184155 0)
(0.0166076 0.00184226 0)
(0.0153792 0.00184291 0)
(0.0141503 0.00184351 0)
(0.0129211 0.00184405 0)
(0.0116915 0.00184454 0)
(0.0104617 0.00184498 0)
(0.0092315 0.00184536 0)
(0.00800111 0.00184569 0)
(0.00677051 0.00184598 0)
(0.00553975 0.00184621 0)
(0.00430884 0.0018464 0)
(0.00307782 0.00184654 0)
(0.00184672 0.00184664 0)
(0.000615579 0.00184668 0)
(0.000746674 -0.00373301 0)
(0.00223999 -0.00373287 0)
(0.00373323 -0.00373259 0)
(0.00522632 -0.00373216 0)
(0.00671922 -0.00373159 0)
(0.00821186 -0.00373087 0)
(0.00970419 -0.00372999 0)
(0.0111961 -0.00372896 0)
(0.0126877 -0.00372777 0)
(0.0141787 -0.00372641 0)
(0.0156691 -0.00372488 0)
(0.0171589 -0.00372317 0)
(0.018648 -0.00372127 0)
(0.0201363 -0.00371917 0)
(0.0216237 -0.00371686 0)
(0.0231101 -0.00371434 0)
(0.0245956 -0.0037116 0)
(0.0260798 -0.00370861 0)
(0.0275629 -0.00370538 0)
(0.0290446 -0.00370188 0)
(0.0305249 -0.00369812 0)
(0.0320036 -0.00369406 0)
(0.0334807 -0.0036897 0)
(0.034956 -0.00368503 0)
(0.0364293 -0.00368002 0)
(0.0379006 -0.00367467 0)
(0.0393697 -0.00366895 0)
(0.0408364 -0.00366285 0)
(0.0423007 -0.00365636 0)
(0.0437623 -0.00364945 0)
(0.045221 -0.0036421 0)
(0.0466768 -0.00363431 0)
(0.0481293 -0.00362604 0)
(0.0495785 -0.00361729 0)
(0.0510241 -0.00360802 0)
(0.0524659 -0.00359823 0)
(0.0539036 -0.00358789 0)
(0.0553372 -0.00357698 0)
(0.0567663 -0.00356549 0)
(0.0581907 -0.00355338 0)
(0.0596101 -0.00354065 0)
(0.0610244 -0.00352726 0)
(0.0624331 -0.00351321 0)
(0.0638362 -0.00349847 0)
(0.0652332 -0.00348301 0)
(0.0666239 -0.00346683 0)
(0.068008 -0.00344989 0)
(0.0693852 -0.00343219 0)
(0.0707552 -0.00341369 0)
(0.0721176 -0.00339439 0)
(0.0734722 -0.00337426 0)
(0.0748185 -0.00335328 0)
(0.0761563 -0.00333145 0)
(0.0774853 -0.00330873 0)
(0.0788049 -0.00328512 0)
(0.080115 -0.00326059 0)
(0.0814151 -0.00323514 0)
(0.0827048 -0.00320874 0)
(0.0839838 -0.0031814 0)
(0.0852517 -0.00315308 0)
(0.086508 -0.00312379 0)
(0.0877525 -0.0030935 0)
(0.0889846 -0.00306222 0)
(0.0902041 -0.00302993 0)
(0.0914104 -0.00299663 0)
(0.0926032 -0.0029623 0)
(0.0937821 -0.00292695 0)
(0.0949466 -0.00289057 0)
(0.0960964 -0.00285316 0)
(0.097231 -0.00281471 0)
(0.09835 -0.00277523 0)
(0.099453 -0.00273473 0)
(0.10054 -0.00269319 0)
(0.101609 -0.00265063 0)
(0.102662 -0.00260706 0)
(0.103697 -0.00256248 0)
(0.104714 -0.0025169 0)
(0.105712 -0.00247033 0)
(0.106692 -0.00242278 0)
(0.107652 -0.00237427 0)
(0.108593 -0.00232481 0)
(0.109514 -0.00227442 0)
(0.110414 -0.00222312 0)
(0.111294 -0.00217093 0)
(0.112152 -0.00211786 0)
(0.11299 -0.00206395 0)
(0.113805 -0.0020092 0)
(0.114598 -0.00195366 0)
(0.115369 -0.00189735 0)
(0.116118 -0.00184029 0)
(0.116843 -0.00178251 0)
(0.117545 -0.00172404 0)
(0.118223 -0.00166492 0)
(0.118878 -0.00160518 0)
(0.119508 -0.00154484 0)
(0.120115 -0.00148396 0)
(0.120697 -0.00142255 0)
(0.121254 -0.00136065 0)
(0.121786 -0.00129831 0)
(0.122293 -0.00123556 0)
(0.122775 -0.00117243 0)
(0.123232 -0.00110896 0)
(0.123663 -0.00104521 0)
(0.124068 -0.000981187 0)
(0.124448 -0.00091695 0)
(0.124802 -0.000852533 0)
(0.12513 -0.000787976 0)
(0.125433 -0.000723317 0)
(0.125709 -0.000658596 0)
(0.12596 -0.000593851 0)
(0.126184 -0.000529121 0)
(0.126383 -0.000464445 0)
(0.126556 -0.00039986 0)
(0.126702 -0.000335404 0)
(0.126824 -0.000271114 0)
(0.126919 -0.000207025 0)
(0.126989 -0.000143175 0)
(0.127033 -7.95966e-05 0)
(0.127052 -1.6325e-05 0)
(0.127046 4.66069e-05 0)
(0.127014 0.000109167 0)
(0.126957 0.000171323 0)
(0.126876 0.000233045 0)
(0.12677 0.000294304 0)
(0.12664 0.000355071 0)
(0.126485 0.00041532 0)
(0.126307 0.000475023 0)
(0.126104 0.000534156 0)
(0.125878 0.000592695 0)
(0.125629 0.000650618 0)
(0.125357 0.000707902 0)
(0.125061 0.000764528 0)
(0.124744 0.000820476 0)
(0.124404 0.00087573 0)
(0.124042 0.00093027 0)
(0.123658 0.000984084 0)
(0.123253 0.00103715 0)
(0.122827 0.00108947 0)
(0.12238 0.00114102 0)
(0.121913 0.00119179 0)
(0.121425 0.00124177 0)
(0.120918 0.00129096 0)
(0.120391 0.00133934 0)
(0.119845 0.00138691 0)
(0.11928 0.00143367 0)
(0.118697 0.0014796 0)
(0.118095 0.00152472 0)
(0.117475 0.001569 0)
(0.116838 0.00161246 0)
(0.116184 0.00165508 0)
(0.115513 0.00169688 0)
(0.114825 0.00173785 0)
(0.114121 0.00177799 0)
(0.113401 0.00181731 0)
(0.112666 0.00185581 0)
(0.111915 0.00189349 0)
(0.111149 0.00193036 0)
(0.110369 0.00196642 0)
(0.109575 0.00200167 0)
(0.108767 0.00203613 0)
(0.107945 0.0020698 0)
(0.107109 0.00210269 0)
(0.106261 0.00213481 0)
(0.1054 0.00216615 0)
(0.104527 0.00219674 0)
(0.103641 0.00222657 0)
(0.102744 0.00225567 0)
(0.101835 0.00228403 0)
(0.100916 0.00231167 0)
(0.0999848 0.0023386 0)
(0.0990434 0.00236482 0)
(0.0980917 0.00239035 0)
(0.0971299 0.0024152 0)
(0.0961583 0.00243938 0)
(0.0951772 0.0024629 0)
(0.0941869 0.00248576 0)
(0.0931875 0.00250799 0)
(0.0921793 0.00252959 0)
(0.0911627 0.00255057 0)
(0.0901378 0.00257094 0)
(0.0891049 0.00259072 0)
(0.0880642 0.00260991 0)
(0.0870159 0.00262853 0)
(0.0859603 0.00264659 0)
(0.0848976 0.0026641 0)
(0.0838281 0.00268107 0)
(0.0827518 0.00269751 0)
(0.0816691 0.00271343 0)
(0.0805802 0.00272885 0)
(0.0794852 0.00274376 0)
(0.0783843 0.0027582 0)
(0.0772777 0.00277216 0)
(0.0761657 0.00278565 0)
(0.0750484 0.00279869 0)
(0.073926 0.00281129 0)
(0.0727986 0.00282346 0)
(0.0716664 0.0028352 0)
(0.0705297 0.00284653 0)
(0.0693885 0.00285747 0)
(0.068243 0.002868 0)
(0.0670934 0.00287816 0)
(0.0659398 0.00288795 0)
(0.0647824 0.00289737 0)
(0.0636213 0.00290644 0)
(0.0624566 0.00291516 0)
(0.0612886 0.00292356 0)
(0.0601172 0.00293162 0)
(0.0589427 0.00293937 0)
(0.0577651 0.00294681 0)
(0.0565847 0.00295396 0)
(0.0554015 0.00296081 0)
(0.0542155 0.00296739 0)
(0.0530271 0.00297368 0)
(0.0518361 0.00297972 0)
(0.0506428 0.0029855 0)
(0.0494473 0.00299102 0)
(0.0482496 0.00299631 0)
(0.0470498 0.00300136 0)
(0.0458481 0.00300619 0)
(0.0446445 0.0030108 0)
(0.043439 0.00301519 0)
(0.0422319 0.00301938 0)
(0.0410232 0.00302338 0)
(0.0398129 0.00302718 0)
(0.0386011 0.00303079 0)
(0.0373879 0.00303423 0)
(0.0361734 0.00303749 0)
(0.0349576 0.00304059 0)
(0.0337407 0.00304352 0)
(0.0325225 0.0030463 0)
(0.0313033 0.00304893 0)
(0.0300831 0.00305142 0)
(0.028862 0.00305376 0)
(0.0276399 0.00305597 0)
(0.0264169 0.00305805 0)
(0.0251932 0.00306001 0)
(0.0239687 0.00306184 0)
(0.0227435 0.00306355 0)
(0.0215177 0.00306516 0)
(0.0202912 0.00306665 0)
(0.0190642 0.00306803 0)
(0.0178366 0.00306932 0)
(0.0166085 0.0030705 0)
(0.01538 0.00307159 0)
(0.0141511 0.00307258 0)
(0.0129218 0.00307348 0)
(0.0116921 0.00307429 0)
(0.0104622 0.00307502 0)
(0.00923198 0.00307566 0)
(0.00800152 0.00307621 0)
(0.00677086 0.00307668 0)
(0.00554003 0.00307708 0)
(0.00430905 0.00307739 0)
(0.00307797 0.00307762 0)
(0.00184681 0.00307778 0)
(0.00061561 0.00307786 0)
(0.000746758 -0.00522642 0)
(0.00224025 -0.00522622 0)
(0.00373365 -0.00522583 0)
(0.00522692 -0.00522523 0)
(0.00672 -0.00522443 0)
(0.00821282 -0.00522343 0)
(0.00970533 -0.00522221 0)
(0.0111975 -0.00522078 0)
(0.0126892 -0.00521912 0)
(0.0141804 -0.00521722 0)
(0.015671 -0.00521509 0)
(0.0171611 -0.0052127 0)
(0.0186504 -0.00521005 0)
(0.0201389 -0.00520712 0)
(0.0216266 -0.00520391 0)
(0.0231133 -0.0052004 0)
(0.024599 -0.00519657 0)
(0.0260836 -0.00519241 0)
(0.0275669 -0.0051879 0)
(0.029049 -0.00518302 0)
(0.0305296 -0.00517777 0)
(0.0320087 -0.00517211 0)
(0.0334861 -0.00516603 0)
(0.0349618 -0.0051595 0)
(0.0364355 -0.00515252 0)
(0.0379072 -0.00514504 0)
(0.0393768 -0.00513706 0)
(0.040844 -0.00512855 0)
(0.0423087 -0.00511948 0)
(0.0437708 -0.00510983 0)
(0.0452301 -0.00509957 0)
(0.0466864 -0.00508869 0)
(0.0481395 -0.00507714 0)
(0.0495893 -0.00506491 0)
(0.0510355 -0.00505197 0)
(0.0524779 -0.00503829 0)
(0.0539164 -0.00502384 0)
(0.0553506 -0.0050086 0)
(0.0567804 -0.00499253 0)
(0.0582056 -0.00497561 0)
(0.0596258 -0.00495781 0)
(0.0610408 -0.00493911 0)
(0.0624504 -0.00491946 0)
(0.0638543 -0.00489885 0)
(0.0652522 -0.00487724 0)
(0.0666438 -0.00485461 0)
(0.0680288 -0.00483093 0)
(0.0694069 -0.00480617 0)
(0.0707778 -0.0047803 0)
(0.0721413 -0.0047533 0)
(0.0734968 -0.00472515 0)
(0.0748442 -0.00469581 0)
(0.0761831 -0.00466526 0)
(0.0775131 -0.00463348 0)
(0.0788338 -0.00460044 0)
(0.080145 -0.00456612 0)
(0.0814462 -0.00453051 0)
(0.0827371 -0.00449358 0)
(0.0840172 -0.00445531 0)
(0.0852862 -0.00441568 0)
(0.0865438 -0.00437469 0)
(0.0877894 -0.0043323 0)
(0.0890228 -0.00428852 0)
(0.0902434 -0.00424332 0)
(0.091451 -0.0041967 0)
(0.092645 -0.00414866 0)
(0.0938251 -0.00409917 0)
(0.0949909 -0.00404824 0)
(0.0961419 -0.00399586 0)
(0.0972778 -0.00394204 0)
(0.098398 -0.00388677 0)
(0.0995023 -0.00383005 0)
(0.10059 -0.0037719 0)
(0.101661 -0.00371231 0)
(0.102715 -0.0036513 0)
(0.103751 -0.00358887 0)
(0.104769 -0.00352504 0)
(0.105769 -0.00345982 0)
(0.106749 -0.00339324 0)
(0.107711 -0.0033253 0)
(0.108653 -0.00325604 0)
(0.109575 -0.00318547 0)
(0.110476 -0.00311362 0)
(0.111357 -0.00304052 0)
(0.112217 -0.00296619 0)
(0.113055 -0.00289068 0)
(0.113871 -0.00281401 0)
(0.114666 -0.00273621 0)
(0.115437 -0.00265733 0)
(0.116187 -0.0025774 0)
(0.116913 -0.00249647 0)
(0.117615 -0.00241458 0)
(0.118295 -0.00233176 0)
(0.11895 -0.00224808 0)
(0.119581 -0.00216356 0)
(0.120188 -0.00207827 0)
(0.120771 -0.00199224 0)
(0.121328 -0.00190554 0)
(0.121861 -0.00181821 0)
(0.122369 -0.0017303 0)
(0.122851 -0.00164187 0)
(0.123308 -0.00155297 0)
(0.123739 -0.00146365 0)
(0.124145 -0.00137397 0)
(0.124525 -0.00128398 0)
(0.12488 -0.00119374 0)
(0.125208 -0.00110331 0)
(0.12551 -0.00101273 0)
(0.125787 -0.000922067 0)
(0.126037 -0.00083137 0)
(0.126262 -0.000740695 0)
(0.12646 -0.000650095 0)
(0.126633 -0.000559624 0)
(0.12678 -0.000469334 0)
(0.126901 -0.000379277 0)
(0.126996 -0.000289503 0)
(0.127065 -0.000200063 0)
(0.127109 -0.000111006 0)
(0.127128 -2.23794e-05 0)
(0.127121 6.57704e-05 0)
(0.127089 0.000153398 0)
(0.127032 0.000240459 0)
(0.12695 0.000326912 0)
(0.126843 0.000412714 0)
(0.126712 0.000497826 0)
(0.126557 0.00058221 0)
(0.126378 0.00066583 0)
(0.126175 0.000748649 0)
(0.125948 0.000830636 0)
(0.125698 0.000911758 0)
(0.125425 0.000991984 0)
(0.125129 0.00107129 0)
(0.12481 0.00114964 0)
(0.12447 0.00122702 0)
(0.124107 0.0013034 0)
(0.123722 0.00137876 0)
(0.123316 0.00145307 0)
(0.122889 0.00152633 0)
(0.122442 0.00159852 0)
(0.121973 0.00166961 0)
(0.121485 0.0017396 0)
(0.120977 0.00180847 0)
(0.120449 0.00187621 0)
(0.119902 0.00194282 0)
(0.119336 0.00200829 0)
(0.118751 0.0020726 0)
(0.118149 0.00213576 0)
(0.117528 0.00219776 0)
(0.11689 0.0022586 0)
(0.116235 0.00231828 0)
(0.115562 0.00237679 0)
(0.114874 0.00243415 0)
(0.114169 0.00249034 0)
(0.113448 0.00254539 0)
(0.112711 0.00259928 0)
(0.11196 0.00265202 0)
(0.111193 0.00270363 0)
(0.110412 0.00275411 0)
(0.109617 0.00280346 0)
(0.108807 0.00285169 0)
(0.107984 0.00289882 0)
(0.107148 0.00294485 0)
(0.106299 0.0029898 0)
(0.105437 0.00303367 0)
(0.104563 0.00307648 0)
(0.103677 0.00311824 0)
(0.102779 0.00315896 0)
(0.101869 0.00319865 0)
(0.100948 0.00323734 0)
(0.100017 0.00327502 0)
(0.0990745 0.00331172 0)
(0.0981219 0.00334745 0)
(0.0971593 0.00338222 0)
(0.096187 0.00341606 0)
(0.0952051 0.00344896 0)
(0.0942139 0.00348096 0)
(0.0932138 0.00351206 0)
(0.0922049 0.00354229 0)
(0.0911875 0.00357164 0)
(0.0901619 0.00360015 0)
(0.0891282 0.00362783 0)
(0.0880868 0.00365468 0)
(0.0870379 0.00368074 0)
(0.0859817 0.003706 0)
(0.0849183 0.0037305 0)
(0.0838481 0.00375424 0)
(0.0827712 0.00377724 0)
(0.0816879 0.00379951 0)
(0.0805984 0.00382108 0)
(0.0795028 0.00384195 0)
(0.0784013 0.00386214 0)
(0.0772942 0.00388167 0)
(0.0761816 0.00390055 0)
(0.0750638 0.00391879 0)
(0.0739408 0.00393641 0)
(0.0728129 0.00395343 0)
(0.0716803 0.00396986 0)
(0.070543 0.00398571 0)
(0.0694014 0.004001 0)
(0.0682554 0.00401574 0)
(0.0671054 0.00402995 0)
(0.0659513 0.00404363 0)
(0.0647935 0.00405681 0)
(0.063632 0.00406949 0)
(0.0624669 0.0040817 0)
(0.0612984 0.00409343 0)
(0.0601267 0.00410471 0)
(0.0589518 0.00411555 0)
(0.0577739 0.00412596 0)
(0.0565931 0.00413595 0)
(0.0554095 0.00414553 0)
(0.0542233 0.00415472 0)
(0.0530345 0.00416353 0)
(0.0518432 0.00417197 0)
(0.0506496 0.00418004 0)
(0.0494538 0.00418777 0)
(0.0482558 0.00419516 0)
(0.0470557 0.00420223 0)
(0.0458537 0.00420897 0)
(0.0446498 0.00421541 0)
(0.0434442 0.00422156 0)
(0.0422368 0.00422741 0)
(0.0410279 0.00423299 0)
(0.0398173 0.00423831 0)
(0.0386053 0.00424336 0)
(0.0373919 0.00424816 0)
(0.0361772 0.00425272 0)
(0.0349612 0.00425705 0)
(0.0337441 0.00426115 0)
(0.0325258 0.00426503 0)
(0.0313064 0.00426871 0)
(0.030086 0.00427218 0)
(0.0288647 0.00427546 0)
(0.0276424 0.00427854 0)
(0.0264194 0.00428145 0)
(0.0251955 0.00428418 0)
(0.0239708 0.00428674 0)
(0.0227455 0.00428913 0)
(0.0215195 0.00429137 0)
(0.0202929 0.00429346 0)
(0.0190658 0.00429539 0)
(0.0178381 0.00429718 0)
(0.0166099 0.00429884 0)
(0.0153813 0.00430035 0)
(0.0141522 0.00430174 0)
(0.0129228 0.004303 0)
(0.0116931 0.00430413 0)
(0.010463 0.00430514 0)
(0.00923269 0.00430604 0)
(0.00800214 0.00430681 0)
(0.00677138 0.00430747 0)
(0.00554045 0.00430802 0)
(0.00430938 0.00430846 0)
(0.00307821 0.00430878 0)
(0.00184695 0.004309 0)
(0.000615657 0.00430911 0)
(0.000746871 -0.00672002 0)
(0.00224059 -0.00671977 0)
(0.00373422 -0.00671926 0)
(0.00522772 -0.0067185 0)
(0.00672102 -0.00671749 0)
(0.00821409 -0.0067162 0)
(0.00970684 -0.00671465 0)
(0.0111992 -0.00671281 0)
(0.0126912 -0.00671069 0)
(0.0141827 -0.00670827 0)
(0.0156736 -0.00670554 0)
(0.0171639 -0.00670249 0)
(0.0186535 -0.00669911 0)
(0.0201424 -0.00669537 0)
(0.0216304 -0.00669126 0)
(0.0231175 -0.00668677 0)
(0.0246035 -0.00668187 0)
(0.0260885 -0.00667655 0)
(0.0275723 -0.00667078 0)
(0.0290547 -0.00666454 0)
(0.0305358 -0.00665782 0)
(0.0320154 -0.00665058 0)
(0.0334933 -0.00664279 0)
(0.0349695 -0.00663444 0)
(0.0364438 -0.0066255 0)
(0.0379161 -0.00661593 0)
(0.0393862 -0.00660571 0)
(0.040854 -0.0065948 0)
(0.0423194 -0.00658318 0)
(0.0437822 -0.00657082 0)
(0.0452422 -0.00655768 0)
(0.0466992 -0.00654373 0)
(0.0481531 -0.00652893 0)
(0.0496037 -0.00651325 0)
(0.0510507 -0.00649666 0)
(0.052494 -0.00647912 0)
(0.0539333 -0.00646059 0)
(0.0553685 -0.00644104 0)
(0.0567993 -0.00642043 0)
(0.0582254 -0.00639873 0)
(0.0596466 -0.00637589 0)
(0.0610627 -0.00635189 0)
(0.0624734 -0.00632668 0)
(0.0638784 -0.00630022 0)
(0.0652774 -0.00627249 0)
(0.0666702 -0.00624344 0)
(0.0680564 -0.00621304 0)
(0.0694358 -0.00618125 0)
(0.070808 -0.00614804 0)
(0.0721728 -0.00611337 0)
(0.0735297 -0.00607722 0)
(0.0748784 -0.00603954 0)
(0.0762187 -0.0060003 0)
(0.0775501 -0.00595948 0)
(0.0788723 -0.00591704 0)
(0.080185 -0.00587296 0)
(0.0814877 -0.0058272 0)
(0.08278 -0.00577975 0)
(0.0840617 -0.00573058 0)
(0.0853323 -0.00567966 0)
(0.0865914 -0.00562697 0)
(0.0878387 -0.0055725 0)
(0.0890736 -0.00551623 0)
(0.0902959 -0.00545814 0)
(0.0915051 -0.00539821 0)
(0.0927008 -0.00533645 0)
(0.0938825 -0.00527283 0)
(0.09505 -0.00520736 0)
(0.0962026 -0.00514002 0)
(0.0973401 -0.00507082 0)
(0.0984621 -0.00499975 0)
(0.099568 -0.00492682 0)
(0.100657 -0.00485204 0)
(0.10173 -0.00477541 0)
(0.102785 -0.00469695 0)
(0.103823 -0.00461666 0)
(0.104843 -0.00453457 0)
(0.105844 -0.00445069 0)
(0.106826 -0.00436505 0)
(0.107789 -0.00427767 0)
(0.108733 -0.00418857 0)
(0.109656 -0.0040978 0)
(0.110559 -0.00400537 0)
(0.111441 -0.00391133 0)
(0.112302 -0.00381572 0)
(0.113142 -0.00371857 0)
(0.11396 -0.00361993 0)
(0.114755 -0.00351984 0)
(0.115528 -0.00341836 0)
(0.116279 -0.00331553 0)
(0.117006 -0.0032114 0)
(0.11771 -0.00310603 0)
(0.11839 -0.00299948 0)
(0.119046 -0.0028918 0)
(0.119678 -0.00278306 0)
(0.120286 -0.00267331 0)
(0.120869 -0.00256262 0)
(0.121428 -0.00245106 0)
(0.121961 -0.00233868 0)
(0.12247 -0.00222557 0)
(0.122952 -0.00211178 0)
(0.12341 -0.00199738 0)
(0.123842 -0.00188245 0)
(0.124248 -0.00176706 0)
(0.124628 -0.00165127 0)
(0.124983 -0.00153515 0)
(0.125311 -0.00141878 0)
(0.125614 -0.00130223 0)
(0.125891 -0.00118557 0)
(0.126141 -0.00106887 0)
(0.126366 -0.000952193 0)
(0.126564 -0.000835616 0)
(0.126736 -0.000719206 0)
(0.126883 -0.00060303 0)
(0.127004 -0.000487155 0)
(0.127098 -0.000371647 0)
(0.127167 -0.000256569 0)
(0.127211 -0.000141985 0)
(0.127229 -2.79567e-05 0)
(0.127221 8.54565e-05 0)
(0.127189 0.000198196 0)
(0.127131 0.000310205 0)
(0.127048 0.000421428 0)
(0.126941 0.000531814 0)
(0.126809 0.000641309 0)
(0.126653 0.000749866 0)
(0.126473 0.000857437 0)