/*--------------------------------*- C++ -*----------------------------------*\
| =========                 |                                                 |
| \\      /  F ield         | OpenFOAM: The Open Source CFD Toolbox           |
|  \\    /   O peration     | Version:  v2012                                 |
|   \\  /    A nd           | Website:  www.openfoam.com                      |
|    \\/     M anipulation  |                                                 |
\*---------------------------------------------------------------------------*/
FoamFile
{
    version     2.0;
    format      ascii;
    class       volScalarField;
    location    "0";
    object      pRec;
}
// * * * * * * * * * * * * * * * * * * * * * * * * * * * * * * * * * * * * * //

dimensions      [0 2 -2 0 0 0 0];


internalField   nonuniform List<scalar> 
4000
(
-7.0784e-13
-7.01914e-13
-7.03275e-13
-7.06709e-13
-7.04322e-13
-7.0478e-13
-7.03516e-13
-6.98264e-13
-6.8735e-13
-6.83653e-13
-6.85273e-13
-6.79495e-13
-6.67171e-13
-6.52036e-13
-6.38127e-13
-6.3121e-13
-6.26142e-13
-6.23482e-13
-6.15934e-13
-6.01104e-13
-5.89679e-13
-5.82503e-13
-5.76938e-13
-5.70048e-13
-5.59325e-13
-5.48325e-13
-5.46864e-13
-5.40856e-13
-5.34288e-13
-5.23291e-13
-5.06132e-13
-4.9929e-13
-4.97759e-13
-4.96425e-13
-4.91634e-13
-4.89359e-13
-4.80331e-13
-4.60665e-13
-4.42374e-13
-4.39124e-13
-4.4051e-13
-4.39201e-13
-4.40013e-13
-4.33435e-13
-4.21242e-13
-4.12202e-13
-4.03405e-13
-3.93887e-13
-3.84088e-13
-3.76014e-13
-3.66422e-13
-3.5795e-13
-3.50196e-13
-3.40789e-13
-3.32092e-13
-3.18903e-13
-3.1219e-13
-3.09188e-13
-3.06683e-13
-3.03783e-13
-2.95499e-13
-2.88045e-13
-2.7759e-13
-2.65096e-13
-2.56817e-13
-2.4942e-13
-2.45317e-13
-2.3739e-13
-2.26545e-13
-2.1879e-13
-2.11418e-13
-2.0515e-13
-1.92072e-13
-1.85146e-13
-1.84595e-13
-1.80408e-13
-1.77419e-13
-1.71315e-13
-1.62581e-13
-1.49531e-13
-1.3642e-13
-1.30933e-13
-1.22398e-13
-1.18399e-13
-1.14681e-13
-1.08958e-13
-9.91736e-14
-9.10497e-14
-8.74073e-14
-8.36272e-14
-7.72975e-14
-7.08539e-14
-6.32966e-14
-5.69649e-14
-4.7928e-14
-3.85352e-14
-2.99381e-14
-2.14148e-14
-1.22807e-14
-3.0798e-15
-7.04162e-13
-7.02999e-13
-7.06447e-13
-7.06354e-13
-7.06856e-13
-7.03296e-13
-7.00433e-13
-6.97871e-13
-6.924e-13
-6.87471e-13
-6.81432e-13
-6.75536e-13
-6.65235e-13
-6.53053e-13
-6.41434e-13
-6.34583e-13
-6.29455e-13
-6.21986e-13
-6.123e-13
-6.04545e-13
-5.93775e-13
-5.81318e-13
-5.72821e-13
-5.6651e-13
-5.57073e-13
-5.50862e-13
-5.47971e-13
-5.41716e-13
-5.32978e-13
-5.19198e-13
-5.09616e-13
-5.02936e-13
-4.9712e-13
-4.93075e-13
-4.88919e-13
-4.85426e-13
-4.78084e-13
-4.64818e-13
-4.49872e-13
-4.43591e-13
-4.40318e-13
-4.38236e-13
-4.36449e-13
-4.31262e-13
-4.23238e-13
-4.12491e-13
-4.01817e-13
-3.93721e-13
-3.84502e-13
-3.73353e-13
-3.65263e-13
-3.57038e-13
-3.50081e-13
-3.41883e-13
-3.33232e-13
-3.21841e-13
-3.12106e-13
-3.07315e-13
-3.04885e-13
-3.02251e-13
-2.97841e-13
-2.88061e-13
-2.7891e-13
-2.66956e-13
-2.5845e-13
-2.4904e-13
-2.42747e-13
-2.36534e-13
-2.2868e-13
-2.20322e-13
-2.11905e-13
-2.05068e-13
-1.97407e-13
-1.88307e-13
-1.84266e-13
-1.77037e-13
-1.75967e-13
-1.68977e-13
-1.59423e-13
-1.47455e-13
-1.37593e-13
-1.32505e-13
-1.26433e-13
-1.21088e-13
-1.12377e-13
-1.06431e-13
-9.72975e-14
-8.89355e-14
-8.56385e-14
-8.20977e-14
-7.90695e-14
-7.35104e-14
-6.7304e-14
-5.51113e-14
-4.63268e-14
-3.92672e-14
-2.95596e-14
-2.1611e-14
-1.41327e-14
-4.97276e-15
-7.03819e-13
-7.02807e-13
-7.05101e-13
-7.08622e-13
-7.0967e-13
-7.04792e-13
-6.99548e-13
-6.9675e-13
-6.90762e-13
-6.87134e-13
-6.8161e-13
-6.74768e-13
-6.64943e-13
-6.54339e-13
-6.43384e-13
-6.35057e-13
-6.29113e-13
-6.21552e-13
-6.12744e-13
-6.03459e-13
-5.92361e-13
-5.83052e-13
-5.73919e-13
-5.67357e-13
-5.59e-13
-5.53367e-13
-5.48926e-13
-5.40858e-13
-5.30635e-13
-5.17053e-13
-5.1031e-13
-5.03322e-13
-4.97284e-13
-4.94535e-13
-4.90798e-13
-4.86826e-13
-4.76876e-13
-4.66631e-13
-4.55182e-13
-4.43842e-13
-4.39421e-13
-4.34709e-13
-4.35596e-13
-4.31936e-13
-4.24581e-13
-4.12959e-13
-4.0069e-13
-3.90838e-13
-3.84919e-13
-3.79573e-13
-3.67697e-13
-3.57228e-13
-3.47649e-13
-3.38683e-13
-3.31518e-13
-3.23019e-13
-3.12183e-13
-3.09583e-13
-3.10048e-13
-3.03483e-13
-2.95408e-13
-2.82819e-13
-2.74122e-13
-2.68398e-13
-2.61467e-13
-2.52979e-13
-2.45755e-13
-2.35205e-13
-2.27338e-13
-2.17247e-13
-2.08724e-13
-2.02149e-13
-1.93557e-13
-1.87864e-13
-1.83767e-13
-1.79705e-13
-1.7455e-13
-1.69058e-13
-1.58771e-13
-1.48096e-13
-1.43214e-13
-1.34825e-13
-1.22404e-13
-1.17103e-13
-1.1186e-13
-1.08787e-13
-1.02454e-13
-9.23904e-14
-8.55327e-14
-7.98886e-14
-7.65381e-14
-7.27508e-14
-6.53797e-14
-5.6514e-14
-4.5498e-14
-3.63788e-14
-3.00875e-14
-2.27198e-14
-1.80345e-14
-5.69858e-15
-7.04943e-13
-7.06282e-13
-7.07217e-13
-7.03219e-13
-7.07826e-13
-7.01579e-13
-6.99534e-13
-6.97019e-13
-6.95054e-13
-6.89668e-13
-6.7965e-13
-6.69736e-13
-6.61399e-13
-6.55383e-13
-6.52742e-13
-6.41962e-13
-6.27049e-13
-6.17832e-13
-6.11905e-13
-6.02285e-13
-5.93066e-13
-5.85241e-13
-5.74827e-13
-5.60994e-13
-5.53914e-13
-5.50877e-13
-5.48124e-13
-5.42749e-13
-5.30357e-13
-5.21418e-13
-5.14636e-13
-5.06885e-13
-4.98098e-13
-4.923e-13
-4.86227e-13
-4.86193e-13
-4.76943e-13
-4.6506e-13
-4.56379e-13
-4.46809e-13
-4.4303e-13
-4.40346e-13
-4.35476e-13
-4.28905e-13
-4.19213e-13
-4.08832e-13
-4.0036e-13
-3.95123e-13
-3.86726e-13
-3.72659e-13
-3.62574e-13
-3.56228e-13
-3.49955e-13
-3.43018e-13
-3.30885e-13
-3.23931e-13
-3.14413e-13
-3.09507e-13
-3.08907e-13
-3.02366e-13
-2.93557e-13
-2.84011e-13
-2.78587e-13
-2.70971e-13
-2.60756e-13
-2.52138e-13
-2.4444e-13
-2.35213e-13
-2.28133e-13
-2.1977e-13
-2.12835e-13
-2.05712e-13
-1.96798e-13
-1.89362e-13
-1.83206e-13
-1.7816e-13
-1.75117e-13
-1.68125e-13
-1.58623e-13
-1.48887e-13
-1.41722e-13
-1.35765e-13
-1.24688e-13
-1.15077e-13
-1.10952e-13
-1.06219e-13
-9.97608e-14
-9.20135e-14
-8.45893e-14
-8.04258e-14
-7.86681e-14
-7.294e-14
-6.73409e-14
-5.50123e-14
-4.57503e-14
-3.90546e-14
-3.17151e-14
-2.1746e-14
-1.44681e-14
-5.20184e-15
-7.06283e-13
-7.10941e-13
-7.07306e-13
-7.02304e-13
-6.98399e-13
-7.02167e-13
-7.02504e-13
-7.00965e-13
-6.94275e-13
-6.86382e-13
-6.77372e-13
-6.71518e-13
-6.61282e-13
-6.52753e-13
-6.51428e-13
-6.4551e-13
-6.34196e-13
-6.22948e-13
-6.09548e-13
-5.96692e-13
-5.91571e-13
-5.84185e-13
-5.69324e-13
-5.59725e-13
-5.57259e-13
-5.54407e-13
-5.49971e-13
-5.41479e-13
-5.32726e-13
-5.23839e-13
-5.15308e-13
-5.08334e-13
-4.99257e-13
-4.92931e-13
-4.87161e-13
-4.85251e-13
-4.75979e-13
-4.64959e-13
-4.53531e-13
-4.46009e-13
-4.43002e-13
-4.42698e-13
-4.35789e-13
-4.27327e-13
-4.16619e-13
-4.06754e-13
-3.98882e-13
-3.93292e-13
-3.85391e-13
-3.76522e-13
-3.66406e-13
-3.59444e-13
-3.51119e-13
-3.4222e-13
-3.31764e-13
-3.22404e-13
-3.15748e-13
-3.11152e-13
-3.07759e-13
-3.00675e-13
-2.93121e-13
-2.84543e-13
-2.76072e-13
-2.69897e-13
-2.64508e-13
-2.57901e-13
-2.49857e-13
-2.36767e-13
-2.27732e-13
-2.17298e-13
-2.08897e-13
-2.02639e-13
-1.96385e-13
-1.89614e-13
-1.79708e-13
-1.74927e-13
-1.7313e-13
-1.67863e-13
-1.60994e-13
-1.50889e-13
-1.43197e-13
-1.38061e-13
-1.25093e-13
-1.14367e-13
-1.07435e-13
-1.0268e-13
-9.91372e-14
-9.50363e-14
-8.7079e-14
-8.20566e-14
-7.74973e-14
-7.25905e-14
-6.49696e-14
-5.91378e-14
-5.08339e-14
-3.9634e-14
-3.19558e-14
-2.42023e-14
-1.40112e-14
-2.75273e-15
-7.02665e-13
-7.12754e-13
-7.09155e-13
-6.99367e-13
-7.03272e-13
-7.07465e-13
-7.05677e-13
-7.01289e-13
-6.92461e-13
-6.78315e-13
-6.74443e-13
-6.7017e-13
-6.65995e-13
-6.55164e-13
-6.48152e-13
-6.47548e-13
-6.36252e-13
-6.2564e-13
-6.1439e-13
-6.00038e-13
-5.89254e-13
-5.7747e-13
-5.59593e-13
-5.56206e-13
-5.5777e-13
-5.57869e-13
-5.49886e-13
-5.40043e-13
-5.31634e-13
-5.27278e-13
-5.17211e-13
-5.07561e-13
-4.98821e-13
-4.96287e-13
-4.93294e-13
-4.84053e-13
-4.73544e-13
-4.64561e-13
-4.53752e-13
-4.4866e-13
-4.45999e-13
-4.4326e-13
-4.34078e-13
-4.27878e-13
-4.16951e-13
-4.04539e-13
-3.94533e-13
-3.89288e-13
-3.85499e-13
-3.76375e-13
-3.68989e-13
-3.58774e-13
-3.49377e-13
-3.39899e-13
-3.30154e-13
-3.24218e-13
-3.18633e-13
-3.12644e-13
-3.05959e-13
-3.01634e-13
-2.9519e-13
-2.85435e-13
-2.77221e-13
-2.69914e-13
-2.60558e-13
-2.56043e-13
-2.50822e-13
-2.37999e-13
-2.28804e-13
-2.20607e-13
-2.10566e-13
-2.02981e-13
-1.97867e-13
-1.91732e-13
-1.81812e-13
-1.77574e-13
-1.71731e-13
-1.64456e-13
-1.59691e-13
-1.53495e-13
-1.46058e-13
-1.37133e-13
-1.22711e-13
-1.11896e-13
-1.07981e-13
-1.05296e-13
-1.01614e-13
-9.27937e-14
-8.61525e-14
-8.17042e-14
-7.70318e-14
-7.27517e-14
-6.3142e-14
-5.85191e-14
-5.12163e-14
-4.33746e-14
-3.20436e-14
-2.28648e-14
-1.18534e-14
-1.52334e-15
-7.08338e-13
-7.09398e-13
-7.08728e-13
-7.05025e-13
-7.02353e-13
-7.06e-13
-7.05348e-13
-6.98829e-13
-6.90476e-13
-6.78802e-13
-6.70216e-13
-6.69184e-13
-6.68255e-13
-6.56643e-13
-6.49505e-13
-6.44273e-13
-6.40108e-13
-6.31296e-13
-6.11446e-13
-5.92543e-13
-5.75859e-13
-5.72341e-13
-5.70476e-13
-5.68244e-13
-5.63739e-13
-5.57403e-13
-5.46238e-13
-5.37224e-13
-5.33694e-13
-5.29263e-13
-5.20432e-13
-5.06656e-13
-5.00137e-13
-4.91898e-13
-4.87053e-13
-4.81425e-13
-4.75469e-13
-4.70352e-13
-4.59425e-13
-4.4731e-13
-4.40553e-13
-4.36376e-13
-4.31764e-13
-4.27722e-13
-4.21022e-13
-4.10195e-13
-3.98212e-13
-3.88484e-13
-3.82102e-13
-3.75875e-13
-3.6826e-13
-3.62091e-13
-3.52828e-13
-3.40386e-13
-3.31715e-13
-3.25403e-13
-3.18516e-13
-3.06669e-13
-3.01789e-13
-3.00797e-13
-2.9964e-13
-2.91426e-13
-2.7979e-13
-2.67235e-13
-2.57459e-13
-2.5259e-13
-2.45079e-13
-2.33335e-13
-2.23974e-13
-2.19731e-13
-2.19498e-13
-2.09851e-13
-1.99312e-13
-1.94705e-13
-1.84803e-13
-1.75438e-13
-1.67625e-13
-1.60706e-13
-1.5525e-13
-1.5135e-13
-1.45053e-13
-1.36213e-13
-1.28128e-13
-1.18779e-13
-1.12221e-13
-1.01472e-13
-9.83257e-14
-9.49425e-14
-8.65183e-14
-8.35217e-14
-7.65137e-14
-6.79336e-14
-6.35732e-14
-5.81676e-14
-5.17512e-14
-4.07149e-14
-3.18137e-14
-2.14359e-14
-1.17727e-14
-3.8807e-15
-7.07934e-13
-7.07737e-13
-7.05406e-13
-7.05879e-13
-7.08872e-13
-7.08565e-13
-7.05373e-13
-6.98316e-13
-6.88932e-13
-6.80437e-13
-6.73939e-13
-6.67944e-13
-6.6438e-13
-6.54477e-13
-6.50314e-13
-6.44032e-13
-6.40267e-13
-6.30378e-13
-6.06093e-13
-5.93781e-13
-5.89504e-13
-5.82614e-13
-5.71954e-13
-5.61962e-13
-5.59007e-13
-5.529e-13
-5.41345e-13
-5.34973e-13
-5.30638e-13
-5.26578e-13
-5.20082e-13
-5.12632e-13
-5.06476e-13
-5.00095e-13
-4.88132e-13
-4.80262e-13
-4.74123e-13
-4.65092e-13
-4.5675e-13
-4.47449e-13
-4.42043e-13
-4.40676e-13
-4.33395e-13
-4.31898e-13
-4.2583e-13
-4.10333e-13
-3.94416e-13
-3.79883e-13
-3.7868e-13
-3.78017e-13
-3.73931e-13
-3.65782e-13
-3.52509e-13
-3.40449e-13
-3.29055e-13
-3.22409e-13
-3.18945e-13
-3.13192e-13
-3.04094e-13
-2.97533e-13
-2.94782e-13
-2.88004e-13
-2.80726e-13
-2.72157e-13
-2.63588e-13
-2.54836e-13
-2.45703e-13
-2.35207e-13
-2.29347e-13
-2.2235e-13
-2.14991e-13
-2.09779e-13
-1.98362e-13
-1.85729e-13
-1.78412e-13
-1.76158e-13
-1.71883e-13
-1.64691e-13
-1.60538e-13
-1.54661e-13
-1.45671e-13
-1.36391e-13
-1.24188e-13
-1.13158e-13
-1.04453e-13
-1.00894e-13
-9.93784e-14
-9.65407e-14
-8.89177e-14
-8.19141e-14
-7.39507e-14
-6.85081e-14
-6.40804e-14
-5.94002e-14
-5.00448e-14
-3.90475e-14
-3.19704e-14
-2.29222e-14
-1.31477e-14
-2.15422e-15
-7.1055e-13
-7.12733e-13
-7.07171e-13
-7.00024e-13
-7.0468e-13
-7.07895e-13
-7.07775e-13
-6.99845e-13
-6.86116e-13
-6.82295e-13
-6.74951e-13
-6.64337e-13
-6.58205e-13
-6.54187e-13
-6.51079e-13
-6.46756e-13
-6.39835e-13
-6.2802e-13
-6.09826e-13
-5.96257e-13
-5.88517e-13
-5.80215e-13
-5.76323e-13
-5.68607e-13
-5.58686e-13
-5.48682e-13
-5.40485e-13
-5.35247e-13
-5.34031e-13
-5.27839e-13
-5.21036e-13
-5.13791e-13
-5.03089e-13
-4.92598e-13
-4.88702e-13
-4.81398e-13
-4.72898e-13
-4.63818e-13
-4.59408e-13
-4.54323e-13
-4.48742e-13
-4.41877e-13
-4.30128e-13
-4.21457e-13
-4.18263e-13
-4.10992e-13
-4.00231e-13
-3.89124e-13
-3.82388e-13
-3.75146e-13
-3.68135e-13
-3.60908e-13
-3.50903e-13
-3.41854e-13
-3.33673e-13
-3.28567e-13
-3.19909e-13
-3.12826e-13
-3.04816e-13
-2.98362e-13
-2.91753e-13
-2.85229e-13
-2.79179e-13
-2.71423e-13
-2.60632e-13
-2.50263e-13
-2.43973e-13
-2.3592e-13
-2.2818e-13
-2.21019e-13
-2.13583e-13
-2.10283e-13
-2.02727e-13
-1.92447e-13
-1.81117e-13
-1.76624e-13
-1.72761e-13
-1.66254e-13
-1.61035e-13
-1.51815e-13
-1.46293e-13
-1.37266e-13
-1.24379e-13
-1.14752e-13
-1.06834e-13
-1.01757e-13
-1.00322e-13
-9.57065e-14
-8.81733e-14
-8.19039e-14
-7.37027e-14
-6.75481e-14
-6.09391e-14
-5.64517e-14
-4.96686e-14
-4.04033e-14
-3.03905e-14
-1.87423e-14
-8.7482e-15
8.4427e-16
-7.10773e-13
-7.10055e-13
-7.09792e-13
-7.06726e-13
-7.03109e-13
-7.05816e-13
-7.04003e-13
-7.02752e-13
-6.941e-13
-6.78248e-13
-6.69355e-13
-6.61385e-13
-6.59513e-13
-6.57666e-13
-6.53116e-13
-6.46038e-13
-6.35399e-13
-6.27992e-13
-6.17243e-13
-6.0118e-13
-5.88709e-13
-5.75651e-13
-5.70434e-13
-5.63036e-13
-5.60503e-13
-5.54302e-13
-5.43712e-13
-5.37965e-13
-5.32438e-13
-5.27469e-13
-5.2236e-13
-5.138e-13
-5.03114e-13
-4.91387e-13
-4.8506e-13
-4.79786e-13
-4.75672e-13
-4.65521e-13
-4.59866e-13
-4.54881e-13
-4.45332e-13
-4.35958e-13
-4.29466e-13
-4.22095e-13
-4.2113e-13
-4.15501e-13
-4.04542e-13
-3.91528e-13
-3.825e-13
-3.72287e-13
-3.64807e-13
-3.60807e-13
-3.52666e-13
-3.4316e-13
-3.34304e-13
-3.26443e-13
-3.19186e-13
-3.11625e-13
-3.04568e-13
-3.00777e-13
-2.95764e-13
-2.92101e-13
-2.84595e-13
-2.71973e-13
-2.57172e-13
-2.42642e-13
-2.35642e-13
-2.30858e-13
-2.27429e-13
-2.27617e-13
-2.21625e-13
-2.13054e-13
-2.05787e-13
-1.95216e-13
-1.82478e-13
-1.73621e-13
-1.69242e-13
-1.63871e-13
-1.60062e-13
-1.51765e-13
-1.45736e-13
-1.37589e-13
-1.2618e-13
-1.18416e-13
-1.09463e-13
-1.00841e-13
-9.65875e-14
-9.07663e-14
-8.73466e-14
-8.28963e-14
-7.21882e-14
-6.32091e-14
-5.80894e-14
-5.34906e-14
-4.46879e-14
-3.55904e-14
-2.67484e-14
-1.66948e-14
-6.45454e-15
-2.11631e-16
-7.09088e-13
-7.08436e-13
-7.07626e-13
-7.09009e-13
-7.09228e-13
-7.03612e-13
-7.01503e-13
-6.98858e-13
-6.92258e-13
-6.84024e-13
-6.70092e-13
-6.59806e-13
-6.58988e-13
-6.58643e-13
-6.53289e-13
-6.48859e-13
-6.35618e-13
-6.26404e-13
-6.1726e-13
-6.02721e-13
-5.93218e-13
-5.76989e-13
-5.66358e-13
-5.61838e-13
-5.55465e-13
-5.50546e-13
-5.46249e-13
-5.3961e-13
-5.34394e-13
-5.29758e-13
-5.21385e-13
-5.12363e-13
-5.02043e-13
-4.93839e-13
-4.894e-13
-4.81151e-13
-4.72708e-13
-4.65886e-13
-4.61927e-13
-4.53315e-13
-4.44959e-13
-4.35562e-13
-4.29318e-13
-4.27339e-13
-4.24853e-13
-4.14014e-13
-4.0099e-13
-3.87637e-13
-3.78996e-13
-3.70747e-13
-3.68029e-13
-3.62797e-13
-3.52222e-13
-3.42635e-13
-3.32637e-13
-3.29323e-13
-3.22165e-13
-3.14118e-13
-3.03575e-13
-2.94223e-13
-2.92563e-13
-2.84613e-13
-2.78983e-13
-2.74846e-13
-2.60258e-13
-2.45548e-13
-2.35448e-13
-2.30168e-13
-2.27903e-13
-2.31036e-13
-2.23224e-13
-2.15788e-13
-2.06568e-13
-1.94193e-13
-1.80203e-13
-1.69563e-13
-1.68904e-13
-1.68002e-13
-1.64218e-13
-1.55782e-13
-1.49997e-13
-1.41436e-13
-1.25924e-13
-1.14654e-13
-1.03914e-13
-9.50276e-14
-9.76136e-14
-9.60386e-14
-8.80843e-14
-8.12373e-14
-7.06056e-14
-6.44649e-14
-5.76722e-14
-5.14648e-14
-4.65304e-14
-3.907e-14
-2.27196e-14
-7.39319e-15
1.41912e-15
-1.73711e-15
-7.12708e-13
-7.10693e-13
-7.08398e-13
-7.10231e-13
-7.08562e-13
-7.03228e-13
-7.03232e-13
-6.99775e-13
-6.91713e-13
-6.80872e-13
-6.71993e-13
-6.63583e-13
-6.55279e-13
-6.51827e-13
-6.4816e-13
-6.41983e-13
-6.39072e-13
-6.32378e-13
-6.19795e-13
-6.04364e-13
-5.92504e-13
-5.84466e-13
-5.72885e-13
-5.62584e-13
-5.55395e-13
-5.4476e-13
-5.41335e-13
-5.38732e-13
-5.35806e-13
-5.32552e-13
-5.23905e-13
-5.13209e-13
-5.00718e-13
-4.91377e-13
-4.8565e-13
-4.7871e-13
-4.75042e-13
-4.68902e-13
-4.64489e-13
-4.51648e-13
-4.43544e-13
-4.32566e-13
-4.29003e-13
-4.29881e-13
-4.23013e-13
-4.14084e-13
-4.0197e-13
-3.91536e-13
-3.80427e-13
-3.70658e-13
-3.6353e-13
-3.607e-13
-3.52027e-13
-3.4572e-13
-3.38195e-13
-3.28317e-13
-3.20118e-13
-3.11496e-13
-3.033e-13
-2.97419e-13
-2.95273e-13
-2.953e-13
-2.83977e-13
-2.71383e-13
-2.51957e-13
-2.41709e-13
-2.35267e-13
-2.32484e-13
-2.28066e-13
-2.26341e-13
-2.20143e-13
-2.19447e-13
-2.13481e-13
-2.0052e-13
-1.78817e-13
-1.61932e-13
-1.61561e-13
-1.69251e-13
-1.66856e-13
-1.5594e-13
-1.49021e-13
-1.38426e-13
-1.28338e-13
-1.19683e-13
-1.09294e-13
-9.82347e-14
-9.21238e-14
-9.15543e-14
-8.64219e-14
-7.97656e-14
-6.84765e-14
-6.37664e-14
-5.77452e-14
-5.02433e-14
-4.18728e-14
-3.47822e-14
-2.16063e-14
-9.40681e-15
-2.76232e-15
-1.96707e-15
-7.10204e-13
-7.10059e-13
-7.02013e-13
-7.11629e-13
-7.11183e-13
-7.07944e-13
-7.01556e-13
-6.94269e-13
-6.86495e-13
-6.75552e-13
-6.70279e-13
-6.64832e-13
-6.63997e-13
-6.5746e-13
-6.50456e-13
-6.46055e-13
-6.41143e-13
-6.33978e-13
-6.20887e-13
-6.05725e-13
-5.85519e-13
-5.71011e-13
-5.61289e-13
-5.60054e-13
-5.55712e-13
-5.51462e-13
-5.447e-13
-5.38349e-13
-5.36713e-13
-5.34708e-13
-5.27347e-13
-5.14089e-13
-5.03819e-13
-4.9567e-13
-4.91342e-13
-4.80845e-13
-4.7148e-13
-4.67164e-13
-4.6166e-13
-4.51531e-13
-4.42242e-13
-4.38382e-13
-4.34113e-13
-4.28454e-13
-4.16816e-13
-4.07596e-13
-4.00033e-13
-3.92047e-13
-3.8273e-13
-3.74689e-13
-3.67766e-13
-3.61066e-13
-3.49213e-13
-3.38654e-13
-3.4062e-13
-3.39936e-13
-3.23676e-13
-3.08277e-13
-2.99504e-13
-2.90967e-13
-2.88606e-13
-2.85875e-13
-2.84953e-13
-2.74639e-13
-2.57077e-13
-2.47566e-13
-2.34263e-13
-2.33257e-13
-2.28297e-13
-2.2328e-13
-2.19856e-13
-2.20348e-13
-2.14491e-13
-1.98174e-13
-1.80357e-13
-1.6726e-13
-1.65227e-13
-1.69733e-13
-1.63146e-13
-1.53645e-13
-1.47004e-13
-1.39358e-13
-1.3132e-13
-1.216e-13
-1.10679e-13
-9.76643e-14
-9.22083e-14
-9.21874e-14
-8.53978e-14
-7.81775e-14
-6.919e-14
-6.21462e-14
-5.40828e-14
-4.80661e-14
-4.2446e-14
-3.36184e-14
-2.19736e-14
-1.14157e-14
-1.75468e-15
2.68425e-16
-7.06832e-13
-7.17455e-13
-7.12116e-13
-7.06874e-13
-7.07311e-13
-7.05625e-13
-7.00729e-13
-6.99056e-13
-6.87206e-13
-6.71712e-13
-6.67607e-13
-6.65353e-13
-6.62426e-13
-6.5808e-13
-6.53245e-13
-6.42912e-13
-6.31867e-13
-6.23443e-13
-6.17509e-13
-6.08513e-13
-6.01582e-13
-5.92574e-13
-5.78896e-13
-5.59859e-13
-5.45357e-13
-5.39245e-13
-5.42037e-13
-5.40447e-13
-5.38557e-13
-5.37154e-13
-5.28329e-13
-5.15295e-13
-4.99327e-13
-4.86742e-13
-4.81734e-13
-4.77602e-13
-4.78124e-13
-4.74376e-13
-4.62696e-13
-4.56557e-13
-4.45327e-13
-4.34693e-13
-4.32643e-13
-4.25377e-13
-4.16273e-13
-4.07088e-13
-3.97118e-13
-3.92049e-13
-3.87048e-13
-3.77449e-13
-3.69112e-13
-3.5885e-13
-3.50892e-13
-3.43288e-13
-3.38316e-13
-3.32606e-13
-3.257e-13
-3.18572e-13
-3.09593e-13
-2.97207e-13
-2.87302e-13
-2.80451e-13
-2.74744e-13
-2.68943e-13
-2.58454e-13
-2.49947e-13
-2.41168e-13
-2.34526e-13
-2.28905e-13
-2.26372e-13
-2.22501e-13
-2.14717e-13
-2.07242e-13
-1.99326e-13
-1.83852e-13
-1.72743e-13
-1.65936e-13
-1.64402e-13
-1.62894e-13
-1.54554e-13
-1.47849e-13
-1.37187e-13
-1.3012e-13
-1.20548e-13
-1.09372e-13
-9.9704e-14
-9.49275e-14
-9.07186e-14
-8.6682e-14
-7.77383e-14
-6.95062e-14
-6.55341e-14
-5.6979e-14
-4.7722e-14
-3.71999e-14
-2.83234e-14
-2.05233e-14
-1.29535e-14
-4.7631e-15
-1.88287e-16
-7.06431e-13
-7.10755e-13
-7.13279e-13
-7.08977e-13
-7.07876e-13
-7.09011e-13
-6.97512e-13
-6.85055e-13
-6.79268e-13
-6.7687e-13
-6.74024e-13
-6.6953e-13
-6.66107e-13
-6.5988e-13
-6.53666e-13
-6.44437e-13
-6.37489e-13
-6.33106e-13
-6.23046e-13
-6.08111e-13
-5.87027e-13
-5.73028e-13
-5.6296e-13
-5.52426e-13
-5.53643e-13
-5.52552e-13
-5.4791e-13
-5.40858e-13
-5.36753e-13
-5.36045e-13
-5.30371e-13
-5.18968e-13
-5.05474e-13
-4.87219e-13
-4.76432e-13
-4.78223e-13
-4.79939e-13
-4.7602e-13
-4.6918e-13
-4.57872e-13
-4.4269e-13
-4.33581e-13
-4.26034e-13
-4.20857e-13
-4.15559e-13
-4.10209e-13
-4.02936e-13
-3.93579e-13
-3.86734e-13
-3.84866e-13
-3.75546e-13
-3.56509e-13
-3.45197e-13
-3.37789e-13
-3.31887e-13
-3.30614e-13
-3.26784e-13
-3.17747e-13
-3.04599e-13
-2.93872e-13
-2.90616e-13
-2.86003e-13
-2.78492e-13
-2.68878e-13
-2.54029e-13
-2.43245e-13
-2.39339e-13
-2.37409e-13
-2.32927e-13
-2.26204e-13
-2.19182e-13
-2.14844e-13
-2.07914e-13
-1.97919e-13
-1.85448e-13
-1.69339e-13
-1.64778e-13
-1.63403e-13
-1.64983e-13
-1.60443e-13
-1.51668e-13
-1.41216e-13
-1.30008e-13
-1.17651e-13
-1.07432e-13
-1.00332e-13
-9.59645e-14
-9.0342e-14
-8.40319e-14
-7.69062e-14
-6.99753e-14
-6.42441e-14
-5.78448e-14
-4.78205e-14
-3.63692e-14
-2.54001e-14
-1.62345e-14
-1.00363e-14
-2.79293e-15
-1.06701e-15
-7.04975e-13
-7.14805e-13
-7.15742e-13
-7.09942e-13
-7.06457e-13
-7.12457e-13
-7.08072e-13
-6.92294e-13
-6.72234e-13
-6.67369e-13
-6.66302e-13
-6.67603e-13
-6.66488e-13
-6.63057e-13
-6.57463e-13
-6.45793e-13
-6.35645e-13
-6.26868e-13
-6.13235e-13
-6.04125e-13
-5.95295e-13
-5.81645e-13
-5.68838e-13
-5.53702e-13
-5.5283e-13
-5.51214e-13
-5.49961e-13
-5.45496e-13
-5.37527e-13
-5.35291e-13
-5.26709e-13
-5.14232e-13
-5.04264e-13
-4.88392e-13
-4.75892e-13
-4.75545e-13
-4.77923e-13
-4.76963e-13
-4.68631e-13
-4.58618e-13
-4.42108e-13
-4.32567e-13
-4.29911e-13
-4.23797e-13
-4.15824e-13
-4.08015e-13
-4.05498e-13
-3.98239e-13
-3.86589e-13
-3.74338e-13
-3.65713e-13
-3.59602e-13
-3.49528e-13
-3.3594e-13
-3.37092e-13
-3.34649e-13
-3.26458e-13
-3.19779e-13
-3.11712e-13
-2.96424e-13
-2.88797e-13
-2.81635e-13
-2.733e-13
-2.65464e-13
-2.53572e-13
-2.4598e-13
-2.36737e-13
-2.34241e-13
-2.29431e-13
-2.2967e-13
-2.21986e-13
-2.18445e-13
-2.11697e-13
-1.97392e-13
-1.82449e-13
-1.70309e-13
-1.68157e-13
-1.65939e-13
-1.60776e-13
-1.56045e-13
-1.50374e-13
-1.41595e-13
-1.30991e-13
-1.18234e-13
-1.11077e-13
-1.04368e-13
-9.6698e-14
-8.9617e-14
-8.3886e-14
-7.59146e-14
-6.86035e-14
-6.20985e-14
-5.35704e-14
-4.40203e-14
-3.60414e-14
-2.90961e-14
-1.43114e-14
-6.88088e-15
1.14252e-16
2.11549e-16
-7.12761e-13
-7.11707e-13
-7.08042e-13
-7.03811e-13
-7.05279e-13
-6.99642e-13
-6.94428e-13
-6.95858e-13
-6.90429e-13
-6.81764e-13
-6.75898e-13
-6.66069e-13
-6.59431e-13
-6.5818e-13
-6.55978e-13
-6.47667e-13
-6.37974e-13
-6.34875e-13
-6.22252e-13
-6.04061e-13
-5.82953e-13
-5.68931e-13
-5.6317e-13
-5.6157e-13
-5.5463e-13
-5.54222e-13
-5.50235e-13
-5.43459e-13
-5.38123e-13
-5.33473e-13
-5.26434e-13
-5.13891e-13
-5.01104e-13
-4.87763e-13
-4.79409e-13
-4.78855e-13
-4.83298e-13
-4.77123e-13
-4.67954e-13
-4.56671e-13
-4.42752e-13
-4.29582e-13
-4.2743e-13
-4.24818e-13
-4.2101e-13
-4.09492e-13
-3.99986e-13
-3.9596e-13
-3.90436e-13
-3.7793e-13
-3.64823e-13
-3.59132e-13
-3.51183e-13
-3.4018e-13
-3.31539e-13
-3.2935e-13
-3.23899e-13
-3.18859e-13
-3.12597e-13
-3.02146e-13
-2.90885e-13
-2.8221e-13
-2.72621e-13
-2.6465e-13
-2.58027e-13
-2.47303e-13
-2.37167e-13
-2.28763e-13
-2.26345e-13
-2.2955e-13
-2.21463e-13
-2.16638e-13
-2.09596e-13
-1.9814e-13
-1.86995e-13
-1.74206e-13
-1.64142e-13
-1.6045e-13
-1.60072e-13
-1.6198e-13
-1.55979e-13
-1.4044e-13
-1.29786e-13
-1.16642e-13
-1.11809e-13
-1.0681e-13
-9.92445e-14
-8.87164e-14
-7.93234e-14
-7.4806e-14
-6.88149e-14
-6.16609e-14
-5.55126e-14
-4.64836e-14
-3.49656e-14
-2.41534e-14
-1.46151e-14
-8.29746e-15
-4.38844e-16
1.62861e-15
-7.12385e-13
-7.10987e-13
-7.085e-13
-7.0615e-13
-7.12303e-13
-7.0921e-13
-6.94762e-13
-6.87523e-13
-6.81868e-13
-6.78178e-13
-6.76957e-13
-6.74141e-13
-6.61488e-13
-6.53847e-13
-6.5032e-13
-6.44829e-13
-6.39784e-13
-6.32126e-13
-6.18591e-13
-6.01297e-13
-5.86198e-13
-5.70744e-13
-5.61059e-13
-5.61995e-13
-5.62476e-13
-5.53862e-13
-5.46108e-13
-5.43803e-13
-5.41586e-13
-5.36318e-13
-5.28981e-13
-5.15984e-13
-5.01409e-13
-4.86952e-13
-4.75949e-13
-4.77429e-13
-4.76922e-13
-4.74778e-13
-4.71918e-13
-4.61925e-13
-4.46883e-13
-4.33864e-13
-4.26908e-13
-4.18912e-13
-4.16751e-13
-4.11262e-13
-4.0252e-13
-3.92675e-13
-3.8557e-13
-3.781e-13
-3.65634e-13
-3.5992e-13
-3.51635e-13
-3.41492e-13
-3.382e-13
-3.33801e-13
-3.21961e-13
-3.12481e-13
-3.07444e-13
-2.98938e-13
-2.93123e-13
-2.82502e-13
-2.73657e-13
-2.66047e-13
-2.56914e-13
-2.45958e-13
-2.39409e-13
-2.29126e-13
-2.23301e-13
-2.21283e-13
-2.20166e-13
-2.17701e-13
-2.1157e-13
-1.98198e-13
-1.85553e-13
-1.75523e-13
-1.69519e-13
-1.63068e-13
-1.62533e-13
-1.59727e-13
-1.52799e-13
-1.4261e-13
-1.31392e-13
-1.20011e-13
-1.10736e-13
-1.01388e-13
-9.46914e-14
-9.03692e-14
-8.4468e-14
-7.51773e-14
-6.79301e-14
-6.05458e-14
-5.23515e-14
-4.35035e-14
-3.33545e-14
-2.62412e-14
-1.65175e-14
-6.0672e-15
-1.23614e-16
-6.2065e-17
-7.07009e-13
-7.1027e-13
-7.10353e-13
-7.08684e-13
-7.06804e-13
-6.99924e-13
-6.94637e-13
-6.90813e-13
-6.89367e-13
-6.8416e-13
-6.78021e-13
-6.72893e-13
-6.64405e-13
-6.55219e-13
-6.48781e-13
-6.40704e-13
-6.37776e-13
-6.30676e-13
-6.17021e-13
-6.03756e-13
-5.8571e-13
-5.71643e-13
-5.66931e-13
-5.63368e-13
-5.54684e-13
-5.5069e-13
-5.50853e-13
-5.48566e-13
-5.41103e-13
-5.31341e-13
-5.23377e-13
-5.14487e-13
-5.0109e-13
-4.88283e-13
-4.78373e-13
-4.83501e-13
-4.85421e-13
-4.77341e-13
-4.66698e-13
-4.54173e-13
-4.43125e-13
-4.36636e-13
-4.29045e-13
-4.18969e-13
-4.13659e-13
-4.06837e-13
-4.05258e-13
-4.03515e-13
-3.88634e-13
-3.74603e-13
-3.63765e-13
-3.61194e-13
-3.51918e-13
-3.4085e-13
-3.37013e-13
-3.33897e-13
-3.25447e-13
-3.13799e-13
-3.04916e-13
-2.98322e-13
-2.95597e-13
-2.86132e-13
-2.74852e-13
-2.6465e-13
-2.52748e-13
-2.45368e-13
-2.36021e-13
-2.30715e-13
-2.24107e-13
-2.19764e-13
-2.15928e-13
-2.17275e-13
-2.1218e-13
-1.98173e-13
-1.85689e-13
-1.75489e-13
-1.71602e-13
-1.66161e-13
-1.58102e-13
-1.50812e-13
-1.55788e-13
-1.50618e-13
-1.33269e-13
-1.20464e-13
-1.11076e-13
-1.00611e-13
-9.2894e-14
-8.99047e-14
-8.40927e-14
-7.54415e-14
-6.73958e-14
-6.05017e-14
-5.34002e-14
-4.20737e-14
-3.59727e-14
-2.49654e-14
-1.36984e-14
-4.24259e-15
8.9106e-16
-4.5762e-16
-7.15032e-13
-7.11676e-13
-7.09631e-13
-7.06234e-13
-7.00786e-13
-6.97783e-13
-6.94359e-13
-6.94229e-13
-6.9083e-13
-6.84521e-13
-6.77295e-13
-6.72589e-13
-6.65853e-13
-6.59642e-13
-6.51083e-13
-6.38926e-13
-6.27988e-13
-6.2153e-13
-6.16731e-13
-6.07863e-13
-5.88321e-13
-5.7612e-13
-5.67067e-13
-5.60112e-13
-5.57088e-13
-5.53463e-13
-5.52224e-13
-5.48883e-13
-5.39284e-13
-5.34566e-13
-5.24783e-13
-5.13659e-13
-4.99173e-13
-4.86257e-13
-4.81031e-13
-4.82843e-13
-4.81525e-13
-4.75762e-13
-4.66748e-13
-4.5537e-13
-4.43442e-13
-4.34074e-13
-4.29756e-13
-4.2368e-13
-4.18767e-13
-4.1154e-13
-4.00737e-13
-3.93234e-13
-3.87822e-13
-3.79303e-13
-3.71786e-13
-3.60997e-13
-3.50553e-13
-3.41734e-13
-3.35296e-13
-3.28065e-13
-3.23439e-13
-3.15829e-13
-3.04324e-13
-2.98366e-13
-2.96541e-13
-2.88223e-13
-2.76207e-13
-2.62731e-13
-2.54052e-13
-2.45447e-13
-2.35934e-13
-2.28852e-13
-2.23815e-13
-2.19882e-13
-2.17655e-13
-2.17276e-13
-2.10904e-13
-1.94735e-13
-1.84577e-13
-1.75869e-13
-1.71046e-13
-1.65925e-13
-1.62046e-13
-1.57979e-13
-1.52166e-13
-1.44018e-13
-1.34619e-13
-1.24876e-13
-1.1657e-13
-1.00318e-13
-9.15854e-14
-8.67725e-14
-8.4018e-14
-7.19591e-14
-6.43775e-14
-5.94189e-14
-5.77175e-14
-4.41408e-14
-3.19565e-14
-2.40904e-14
-1.54449e-14
-1.46731e-15
5.8356e-17
-1.82379e-15
-7.17944e-13
-7.11165e-13
-7.0493e-13
-7.05655e-13
-6.97154e-13
-6.98209e-13
-6.94769e-13
-6.95464e-13
-6.94522e-13
-6.83372e-13
-6.76528e-13
-6.73122e-13
-6.71168e-13
-6.61033e-13
-6.51299e-13
-6.42399e-13
-6.3312e-13
-6.22261e-13
-6.15963e-13
-6.00903e-13
-5.88213e-13
-5.75449e-13
-5.63879e-13
-5.58425e-13
-5.55028e-13
-5.57373e-13
-5.53537e-13
-5.47706e-13
-5.40252e-13
-5.32451e-13
-5.25147e-13
-5.15651e-13
-4.99636e-13
-4.89418e-13
-4.79696e-13
-4.77888e-13
-4.7957e-13
-4.76114e-13
-4.6737e-13
-4.56463e-13
-4.46889e-13
-4.37803e-13
-4.29407e-13
-4.22916e-13
-4.16875e-13
-4.09617e-13
-4.00344e-13
-3.95617e-13
-3.90962e-13
-3.79591e-13
-3.68253e-13
-3.56695e-13
-3.50047e-13
-3.44874e-13
-3.38911e-13
-3.32294e-13
-3.24917e-13
-3.14259e-13
-3.07181e-13
-3.02396e-13
-2.97371e-13
-2.86783e-13
-2.71759e-13
-2.61146e-13
-2.52057e-13
-2.43032e-13
-2.33744e-13
-2.2994e-13
-2.23274e-13
-2.23936e-13
-2.18742e-13
-2.13217e-13
-2.03791e-13
-1.91941e-13
-1.82816e-13
-1.74087e-13
-1.7472e-13
-1.73535e-13
-1.6411e-13
-1.55439e-13
-1.49211e-13
-1.41371e-13
-1.33189e-13
-1.23679e-13
-1.11008e-13
-9.81499e-14
-9.30414e-14
-8.97304e-14
-8.30735e-14
-7.82898e-14
-7.2155e-14
-6.02078e-14
-4.97687e-14
-4.13177e-14
-3.21792e-14
-2.15789e-14
-1.37123e-14
-8.47724e-15
-2.68289e-15
-1.53982e-15
-7.15902e-13
-7.09395e-13
-7.07867e-13
-7.05956e-13
-7.01993e-13
-6.9818e-13
-6.91929e-13
-6.94458e-13
-6.93801e-13
-6.87414e-13
-6.80608e-13
-6.72617e-13
-6.69589e-13
-6.5891e-13
-6.48216e-13
-6.37472e-13
-6.26586e-13
-6.22183e-13
-6.16611e-13
-6.0357e-13
-5.90026e-13
-5.7713e-13
-5.65841e-13
-5.62277e-13
-5.61769e-13
-5.54909e-13
-5.48771e-13
-5.41566e-13
-5.34975e-13
-5.33202e-13
-5.27604e-13
-5.20412e-13
-5.07893e-13
-4.96587e-13
-4.77441e-13
-4.7403e-13
-4.74327e-13
-4.72473e-13
-4.67507e-13
-4.56437e-13
-4.48951e-13
-4.38003e-13
-4.32347e-13
-4.21163e-13
-4.17197e-13
-4.1134e-13
-4.06448e-13
-3.97694e-13
-3.86972e-13
-3.71838e-13
-3.67822e-13
-3.62214e-13
-3.54674e-13
-3.40702e-13
-3.33154e-13
-3.26406e-13
-3.18831e-13
-3.16647e-13
-3.08163e-13
-3.06856e-13
-3.07621e-13
-2.83946e-13
-2.69693e-13
-2.63264e-13
-2.54728e-13
-2.46995e-13
-2.36886e-13
-2.29926e-13
-2.20107e-13
-2.17659e-13
-2.13146e-13
-2.1633e-13
-2.09749e-13
-1.9697e-13
-1.80762e-13
-1.69312e-13
-1.74896e-13
-1.72158e-13
-1.64422e-13
-1.58093e-13
-1.51221e-13
-1.41887e-13
-1.32294e-13
-1.21447e-13
-1.11592e-13
-9.97047e-14
-9.22324e-14
-9.04821e-14
-8.47519e-14
-7.39235e-14
-6.5319e-14
-5.96589e-14
-5.10009e-14
-4.06259e-14
-3.68795e-14
-2.89819e-14
-1.41665e-14
-4.17089e-15
2.54015e-15
-5.55388e-16
-7.10049e-13
-7.12276e-13
-7.11896e-13
-7.05586e-13
-6.99382e-13
-6.99731e-13
-6.97185e-13
-6.93133e-13
-6.91489e-13
-6.86213e-13
-6.82338e-13
-6.76858e-13
-6.67682e-13
-6.57556e-13
-6.49173e-13
-6.41071e-13
-6.34926e-13
-6.30033e-13
-6.19196e-13
-6.00827e-13
-5.80379e-13
-5.66174e-13
-5.63058e-13
-5.63931e-13
-5.61957e-13
-5.54498e-13
-5.45267e-13
-5.41561e-13
-5.35185e-13
-5.3452e-13
-5.32179e-13
-5.15308e-13
-5.02022e-13
-4.93609e-13
-4.84665e-13
-4.80639e-13
-4.77131e-13
-4.71293e-13
-4.65287e-13
-4.56772e-13
-4.48639e-13
-4.37715e-13
-4.30192e-13
-4.25101e-13
-4.22767e-13
-4.12446e-13
-4.04581e-13
-3.91264e-13
-3.87741e-13
-3.79234e-13
-3.66673e-13
-3.60854e-13
-3.54268e-13
-3.45359e-13
-3.36179e-13
-3.22112e-13
-3.09791e-13
-3.1397e-13
-3.1858e-13
-3.09114e-13
-2.98694e-13