/*--------------------------------*- C++ -*----------------------------------*\
| =========                 |                                                 |
| \\      /  F ield         | OpenFOAM: The Open Source CFD Toolbox           |
|  \\    /   O peration     | Version:  v2012                                 |
|   \\  /    A nd           | Website:  www.openfoam.com                      |
|    \\/     M anipulation  |                                                 |
\*---------------------------------------------------------------------------*/
FoamFile
{
    version     2.0;
    format      ascii;
    class       volVectorField;
    location    "0";
    object      U;
}
// * * * * * * * * * * * * * * * * * * * * * * * * * * * * * * * * * * * * * //

dimensions      [0 1 -1 0 0 0 0];


internalField   nonuniform List<vector> 
4000
(
(1 3.86931e-15 0)
(1 1.43472e-15 0)
(1 1.43237e-15 0)
(1 9.7383e-16 0)
(1 -4.02798e-15 0)
(1 -3.00431e-15 0)
(1 5.74966e-18 0)
(1 3.76693e-15 0)
(1 9.5028e-15 0)
(1 -6.94802e-15 0)
(1 -3.62112e-15 0)
(1 1.58075e-15 0)
(1 3.99886e-15 0)
(1 2.09966e-15 0)
(1 -3.64547e-15 0)
(1 1.64337e-15 0)
(1 -2.36149e-15 0)
(1 -1.9301e-15 0)
(1 3.03245e-15 0)
(1 3.30525e-15 0)
(1 -1.21003e-15 0)
(1 -1.56973e-15 0)
(1 -3.98298e-15 0)
(1 -9.59859e-16 0)
(1 8.26472e-16 0)
(1 5.23844e-16 0)
(1 3.01017e-15 0)
(1 -4.67296e-16 0)
(1 -9.45146e-16 0)
(1 -2.67243e-15 0)
(1 3.02597e-15 0)
(1 -8.28147e-16 0)
(1 -1.25703e-16 0)
(1 -4.45395e-15 0)
(1 -2.90068e-15 0)
(1 -1.24794e-15 0)
(1 3.17521e-15 0)
(1 4.02104e-15 0)
(1 2.5872e-15 0)
(1 -9.53529e-16 0)
(1 -7.60918e-16 0)
(1 -3.97512e-15 0)
(1 -3.91698e-15 0)
(1 1.55341e-15 0)
(1 6.40074e-16 0)
(1 -1.21867e-15 0)
(1 7.40199e-17 0)
(1 2.70261e-16 0)
(1 3.01961e-15 0)
(1 1.01319e-16 0)
(1 1.17287e-15 0)
(1 1.36883e-15 0)
(1 4.99912e-15 0)
(1 4.25047e-15 0)
(1 4.49123e-15 0)
(1 4.43028e-15 0)
(1 6.43879e-16 0)
(1 3.59045e-16 0)
(1 -2.9457e-15 0)
(1 -2.30033e-15 0)
(1 -2.48321e-15 0)
(1 -1.16126e-15 0)
(1 -1.37551e-16 0)
(1 2.96983e-15 0)
(1 -5.49778e-16 0)
(1 -1.79537e-16 0)
(1 -3.34989e-15 0)
(1 1.94804e-15 0)
(1 -1.03699e-15 0)
(1 -1.64386e-15 0)
(1 -2.57452e-15 0)
(1 9.80244e-16 0)
(1 -5.37305e-15 0)
(1 -5.71773e-15 0)
(1 -5.37279e-15 0)
(1 -2.21499e-15 0)
(1 -5.11461e-16 0)
(1 -2.74978e-16 0)
(1 -3.70428e-16 0)
(1 2.12774e-15 0)
(1 2.96444e-16 0)
(1 3.01052e-15 0)
(1 -1.2512e-15 0)
(1 -2.93404e-15 0)
(1 -5.15008e-15 0)
(1 -3.19161e-15 0)
(1 5.43256e-15 0)
(1 5.18493e-15 0)
(1 -5.73391e-16 0)
(1 4.23168e-15 0)
(1 2.65853e-15 0)
(1 3.46876e-15 0)
(1 -1.2426e-15 0)
(1 3.60278e-16 0)
(1 4.37295e-16 0)
(1 9.43554e-16 0)
(1 3.91486e-16 0)
(1 -1.27524e-15 0)
(1 -1.65439e-15 0)
(1 -2.05721e-15 0)
(1 2.45807e-15 0)
(1 1.80857e-15 0)
(1 3.2748e-15 0)
(1 3.91854e-16 0)
(1 -7.44152e-15 0)
(1 -2.46096e-15 0)
(1 4.03418e-16 0)
(1 4.39116e-15 0)
(1 1.048e-14 0)
(1 -6.98587e-16 0)
(1 3.46042e-16 0)
(1 -2.85699e-15 0)
(1 -3.74067e-16 0)
(1 -2.65707e-15 0)
(1 -4.75031e-15 0)
(1 6.40616e-15 0)
(1 1.92873e-15 0)
(1 -5.45177e-15 0)
(1 9.58672e-16 0)
(1 2.31202e-15 0)
(1 -1.39564e-16 0)
(1 -2.18438e-15 0)
(1 -4.86133e-16 0)
(1 3.31945e-16 0)
(1 9.50911e-16 0)
(1 -6.16638e-15 0)
(1 7.72751e-16 0)
(1 -3.96279e-15 0)
(1 -1.16008e-15 0)
(1 4.92719e-16 0)
(1 5.50626e-15 0)
(1 -1.35762e-15 0)
(1 2.9993e-16 0)
(1 -5.02884e-15 0)
(1 1.60739e-15 0)
(1 -1.08512e-15 0)
(1 1.56575e-15 0)
(1 4.75368e-15 0)
(1 -2.86043e-15 0)
(1 -4.64993e-15 0)
(1 -6.97173e-15 0)
(1 -5.44274e-15 0)
(1 -1.37598e-15 0)
(1 1.3611e-15 0)
(1 3.61545e-15 0)
(1 -1.19907e-15 0)
(1 1.95972e-15 0)
(1 2.7939e-15 0)
(1 4.61447e-15 0)
(1 -5.44764e-16 0)
(1 7.72453e-16 0)
(1 -3.92537e-15 0)
(1 2.04322e-15 0)
(1 4.01714e-15 0)
(1 6.00691e-15 0)
(1 2.01836e-15 0)
(1 2.83554e-15 0)
(1 2.41017e-15 0)
(1 1.36709e-15 0)
(1 -3.418e-15 0)
(1 -2.80817e-15 0)
(1 -1.13054e-15 0)
(1 3.78614e-15 0)
(1 3.04058e-15 0)
(1 -3.55749e-15 0)
(1 -2.98942e-15 0)
(1 -6.52901e-15 0)
(1 -2.57888e-15 0)
(1 -1.41712e-16 0)
(1 -5.50447e-16 0)
(1 6.54437e-16 0)
(1 4.9919e-16 0)
(1 1.95501e-15 0)
(1 -1.19003e-15 0)
(1 -1.35114e-15 0)
(1 1.63994e-16 0)
(1 4.90727e-15 0)
(1 2.97752e-15 0)
(1 3.58663e-15 0)
(1 6.09877e-15 0)
(1 2.92899e-15 0)
(1 5.13867e-17 0)
(1 -1.65956e-15 0)
(1 -3.77515e-15 0)
(1 -6.56154e-15 0)
(1 -3.70541e-15 0)
(1 3.93234e-15 0)
(1 4.99875e-15 0)
(1 -1.99027e-15 0)
(1 2.86594e-15 0)
(1 2.3145e-15 0)
(1 1.16013e-15 0)
(1 -2.39448e-15 0)
(1 2.66928e-15 0)
(1 -2.04812e-15 0)
(1 2.46645e-15 0)
(1 -3.67494e-16 0)
(1 -1.23747e-15 0)
(1 -4.16877e-15 0)
(1 -5.27805e-15 0)
(1 -4.39753e-15 0)
(1 3.51921e-15 0)
(1 -4.6952e-15 0)
(1 2.90416e-15 0)
(1 -3.96699e-15 0)
(1 2.56102e-15 0)
(1 4.08682e-15 0)
(1 5.30285e-15 0)
(1 1.83871e-15 0)
(1 2.02477e-15 0)
(1 7.56258e-16 0)
(1 2.51959e-15 0)
(1 4.64224e-15 0)
(1 2.91244e-15 0)
(1 -5.48764e-16 0)
(1 -6.76847e-16 0)
(1 -5.43972e-16 0)
(1 5.39998e-15 0)
(1 -6.92243e-15 0)
(1 -3.74253e-15 0)
(1 2.23155e-15 0)
(1 -3.00952e-15 0)
(1 -3.91605e-15 0)
(1 -8.31948e-16 0)
(1 1.0861e-14 0)
(1 -2.58961e-16 0)
(1 5.32321e-15 0)
(1 -2.59766e-15 0)
(1 1.7076e-15 0)
(1 3.45954e-15 0)
(1 2.86419e-15 0)
(1 -3.21099e-15 0)
(1 -2.65704e-15 0)
(1 -4.06629e-16 0)
(1 1.74448e-15 0)
(1 -8.4757e-16 0)
(1 -6.0901e-15 0)
(1 4.03367e-15 0)
(1 6.65433e-15 0)
(1 -7.70987e-15 0)
(1 -8.0956e-15 0)
(1 -8.4501e-15 0)
(1 -9.69458e-16 0)
(1 -2.09488e-15 0)
(1 1.07582e-15 0)
(1 -2.44351e-15 0)
(1 7.92387e-15 0)
(1 6.56698e-15 0)
(1 5.20816e-15 0)
(1 -1.37356e-15 0)
(1 6.19888e-15 0)
(1 -2.77713e-16 0)
(1 2.50758e-15 0)
(1 1.58035e-15 0)
(1 4.76457e-15 0)
(1 3.26412e-15 0)
(1 3.28143e-15 0)
(1 3.42127e-15 0)
(1 6.2672e-15 0)
(1 -3.16878e-16 0)
(1 -1.17054e-15 0)
(1 5.72498e-18 0)
(1 3.86686e-15 0)
(1 -1.8855e-15 0)
(1 -7.84628e-15 0)
(1 -6.24025e-15 0)
(1 -2.83395e-15 0)
(1 -2.00884e-15 0)
(1 2.76301e-15 0)
(1 2.29613e-15 0)
(1 7.4462e-16 0)
(1 -4.82574e-15 0)
(1 -9.61754e-16 0)
(1 -3.272e-15 0)
(1 -5.69065e-16 0)
(1 -2.75688e-15 0)
(1 1.7777e-15 0)
(1 -2.56573e-15 0)
(1 2.28011e-15 0)
(1 1.07926e-15 0)
(1 -4.63259e-16 0)
(1 -4.73719e-16 0)
(1 -5.40863e-16 0)
(1 -3.13382e-15 0)
(1 -1.89076e-15 0)
(1 8.96146e-16 0)
(1 -4.64725e-17 0)
(1 3.4455e-15 0)
(1 -2.40313e-15 0)
(1 2.84203e-15 0)
(1 2.59548e-16 0)
(1 1.09344e-15 0)
(1 -3.04388e-15 0)
(1 3.51509e-15 0)
(1 -5.26015e-17 0)
(1 3.928e-15 0)
(1 -1.64543e-16 0)
(1 -3.3518e-15 0)
(1 -3.8722e-15 0)
(1 -5.31147e-15 0)
(1 4.18041e-16 0)
(1 -5.78927e-15 0)
(1 -4.52281e-15 0)
(1 -6.07631e-15 0)
(1 5.9551e-15 0)
(1 5.42338e-15 0)
(1 7.58943e-15 0)
(1 1.22208e-15 0)
(1 3.32629e-15 0)
(1 -4.73907e-15 0)
(1 1.2244e-16 0)
(1 5.23161e-16 0)
(1 2.86587e-15 0)
(1 1.4238e-14 0)
(1 8.42159e-15 0)
(1 -2.47489e-15 0)
(1 -3.03582e-15 0)
(1 3.68797e-15 0)
(1 -6.70086e-15 0)
(1 -2.57725e-15 0)
(1 4.36647e-15 0)
(1 3.29276e-15 0)
(1 -5.57565e-15 0)
(1 1.76631e-15 0)
(1 9.58165e-15 0)
(1 6.07314e-15 0)
(1 1.27323e-14 0)
(1 6.52684e-15 0)
(1 7.80097e-15 0)
(1 4.8752e-16 0)
(1 2.48645e-15 0)
(1 -5.19735e-15 0)
(1 -4.7602e-15 0)
(1 -5.5895e-15 0)
(1 -4.73345e-15 0)
(1 -7.15321e-15 0)
(1 -2.56923e-15 0)
(1 -5.31937e-15 0)
(1 5.058e-15 0)
(1 -2.11616e-15 0)
(1 2.48409e-15 0)
(1 -3.81064e-15 0)
(1 -4.11146e-15 0)
(1 3.76049e-16 0)
(1 -2.82559e-15 0)
(1 3.20221e-15 0)
(1 8.58884e-15 0)
(1 8.31483e-15 0)
(1 2.74806e-15 0)
(1 6.62396e-16 0)
(1 5.67218e-15 0)
(1 5.33152e-15 0)
(1 3.60613e-15 0)
(1 3.95948e-15 0)
(1 5.05876e-15 0)
(1 6.69867e-15 0)
(1 2.77317e-15 0)
(1 3.70093e-16 0)
(1 5.4469e-15 0)
(1 4.81312e-15 0)
(1 4.60166e-15 0)
(1 -4.65691e-15 0)
(1 -2.76475e-15 0)
(1 -2.73459e-15 0)
(1 -3.73339e-15 0)
(1 -2.23808e-15 0)
(1 -1.23744e-15 0)
(1 -2.09646e-15 0)
(1 -2.63118e-15 0)
(1 -5.07115e-15 0)
(1 -4.36948e-15 0)
(1 -7.80231e-15 0)
(1 -6.20392e-15 0)
(1 -5.32449e-15 0)
(1 -3.64896e-15 0)
(1 4.15469e-15 0)
(1 5.09187e-15 0)
(1 2.39608e-16 0)
(1 5.18991e-15 0)
(1 -4.83127e-15 0)
(1 -3.41581e-15 0)
(1 2.0925e-15 0)
(1 -1.02313e-15 0)
(1 -3.59288e-15 0)
(1 -2.0927e-15 0)
(1 -7.7011e-16 0)
(1 9.0001e-15 0)
(1 7.07365e-15 0)
(1 3.06648e-15 0)
(1 5.11404e-15 0)
(1 3.76359e-16 0)
(1 2.70122e-15 0)
(1 -4.57521e-17 0)
(1 4.05863e-15 0)
(1 1.56747e-15 0)
(1 3.83477e-16 0)
(1 -1.88226e-15 0)
(1 -3.53337e-15 0)
(1 -8.78438e-15 0)
(1 -5.49375e-15 0)
(1 5.45197e-15 0)
(1 -5.76838e-15 0)
(1 4.23953e-15 0)
(1 -5.55513e-15 0)
(1 5.65062e-15 0)
(1 2.06811e-15 0)
(1 -9.75228e-16 0)
(1 -5.38604e-15 0)
(1 -8.19146e-16 0)
(1 1.68569e-15 0)
(1 6.33271e-15 0)
(1 6.27706e-15 0)
(1 6.40002e-15 0)
(1 3.59161e-15 0)
(1 6.09854e-15 0)
(1 -7.51054e-16 0)
(1 2.71749e-15 0)
(1 -2.25682e-15 0)
(1 -6.92667e-15 0)
(1 -5.66659e-15 0)
(1 2.93813e-16 0)
(1 5.69515e-15 0)
(1 2.78184e-15 0)
(1 6.29093e-15 0)
(1 4.73588e-16 0)
(1 -4.12768e-15 0)
(1 -1.94793e-16 0)
(1 8.9737e-15 0)
(1 3.79294e-15 0)
(1 2.36398e-15 0)
(1 -4.00515e-15 0)
(1 1.77636e-15 0)
(1 -3.3987e-15 0)
(1 2.78233e-15 0)
(1 -4.56465e-15 0)
(1 -7.44795e-15 0)
(1 -2.32064e-15 0)
(1 -1.08311e-14 0)
(1 -5.68451e-15 0)
(1 1.34246e-15 0)
(1 8.99391e-16 0)
(1 -4.16573e-15 0)
(1 -5.236e-15 0)
(1 -5.19673e-15 0)
(1 -2.96404e-15 0)
(1 8.07221e-15 0)
(1 3.99083e-15 0)
(1 1.08926e-14 0)
(1 4.77645e-15 0)
(1 6.22328e-15 0)
(1 -1.74696e-15 0)
(1 3.21468e-16 0)
(1 -7.52795e-16 0)
(1 4.23865e-15 0)
(1 4.79484e-15 0)
(1 3.73791e-15 0)
(1 2.3169e-15 0)
(1 -1.93922e-15 0)
(1 3.03635e-15 0)
(1 5.22369e-15 0)
(1 4.02865e-15 0)
(1 7.71652e-17 0)
(1 1.38842e-15 0)
(1 -2.27137e-15 0)
(1 3.3557e-15 0)
(1 4.75706e-15 0)
(1 7.37205e-15 0)
(1 3.59437e-16 0)
(1 -7.2499e-15 0)
(1 -2.72613e-15 0)
(1 -5.25099e-15 0)
(1 -6.32911e-15 0)
(1 3.00571e-15 0)
(1 -7.66981e-16 0)
(1 -9.73574e-16 0)
(1 1.68184e-15 0)
(1 2.03875e-15 0)
(1 1.95863e-15 0)
(1 4.50192e-15 0)
(1 1.51977e-16 0)
(1 -2.87304e-15 0)
(1 -4.5436e-15 0)
(1 -3.21272e-15 0)
(1 -5.67485e-16 0)
(1 1.88903e-15 0)
(1 2.1323e-15 0)
(1 6.14476e-15 0)
(1 2.1293e-15 0)
(1 5.48395e-15 0)
(1 -1.26193e-16 0)
(1 4.74367e-15 0)
(1 -1.55362e-15 0)
(1 4.32968e-15 0)
(1 5.97254e-15 0)
(1 4.90532e-15 0)
(1 -1.21515e-16 0)
(1 -1.19516e-15 0)
(1 -8.08247e-16 0)
(1 -3.05047e-15 0)
(1 2.18724e-15 0)
(1 -7.96661e-16 0)
(1 5.03789e-18 0)
(1 6.72535e-15 0)
(1 3.82698e-15 0)
(1 9.4095e-16 0)
(1 -7.65095e-15 0)
(1 -6.39454e-15 0)
(1 1.50282e-15 0)
(1 -4.17105e-15 0)
(1 4.88273e-15 0)
(1 1.59535e-15 0)
(1 1.34024e-14 0)
(1 1.36377e-14 0)
(1 -1.58874e-15 0)
(1 2.73709e-15 0)
(1 1.4513e-16 0)
(1 -2.43746e-15 0)
(1 2.74837e-16 0)
(1 -7.66378e-15 0)
(1 -8.82702e-15 0)
(1 -1.73657e-15 0)
(1 8.75332e-15 0)
(1 1.4e-14 0)
(1 8.20071e-15 0)
(1 3.96449e-15 0)
(1 -7.00144e-16 0)
(1 -1.91889e-15 0)
(1 7.73424e-15 0)
(1 -6.77291e-15 0)
(1 2.29512e-15 0)
(1 -9.02997e-15 0)
(1 5.35099e-15 0)
(1 -3.57319e-15 0)
(1 8.71805e-15 0)
(1 -4.73511e-16 0)
(1 -4.45898e-17 0)
(1 -4.23994e-15 0)
(1 7.21507e-16 0)
(1 -5.38184e-15 0)
(1 4.90613e-16 0)
(1 -5.67968e-15 0)
(1 2.524e-15 0)
(1 -1.91736e-15 0)
(1 -7.74416e-15 0)
(1 1.29535e-15 0)
(1 2.72578e-15 0)
(1 4.33835e-15 0)
(1 6.94138e-15 0)
(1 9.66804e-15 0)
(1 4.34949e-15 0)
(1 -3.40605e-16 0)
(1 3.10972e-15 0)
(1 4.87783e-15 0)
(1 3.79275e-15 0)
(1 3.2737e-15 0)
(1 3.14078e-15 0)
(1 1.89288e-15 0)
(1 3.48135e-15 0)
(1 2.96359e-15 0)
(1 1.00564e-14 0)
(1 4.00485e-15 0)
(1 3.64458e-15 0)
(1 -5.2717e-15 0)
(1 -2.11305e-15 0)
(1 3.10495e-15 0)
(1 6.31743e-15 0)
(1 1.29697e-14 0)
(1 7.3848e-15 0)
(1 5.07215e-15 0)
(1 6.07866e-15 0)
(1 4.29904e-15 0)
(1 -1.59326e-15 0)
(1 2.42122e-15 0)
(1 -1.01804e-15 0)
(1 -3.30579e-15 0)
(1 -5.03567e-15 0)
(1 -4.01583e-15 0)
(1 3.94238e-16 0)
(1 -2.69618e-15 0)
(1 3.43678e-15 0)
(1 -2.66652e-16 0)
(1 8.99734e-16 0)
(1 1.19497e-15 0)
(1 4.81081e-15 0)
(1 -3.53177e-15 0)
(1 -3.51375e-15 0)
(1 -5.28657e-15 0)
(1 -4.43114e-15 0)
(1 -7.71387e-16 0)
(1 -1.96274e-16 0)
(1 3.105e-15 0)
(1 1.96721e-15 0)
(1 5.54493e-15 0)
(1 7.25209e-15 0)
(1 9.22167e-15 0)
(1 8.0632e-15 0)
(1 7.52746e-15 0)
(1 1.09922e-16 0)
(1 8.61163e-15 0)
(1 8.28679e-15 0)
(1 -1.67696e-15 0)
(1 -8.51432e-16 0)
(1 6.1833e-15 0)
(1 3.51871e-15 0)
(1 2.43304e-15 0)
(1 -6.84423e-15 0)
(1 -1.13722e-15 0)
(1 6.66495e-15 0)
(1 3.12222e-16 0)
(1 6.95694e-15 0)
(1 -2.16765e-15 0)
(1 4.82099e-15 0)
(1 -1.54052e-15 0)
(1 6.57851e-15 0)
(1 1.57257e-15 0)
(1 1.83791e-15 0)
(1 1.12083e-15 0)
(1 -3.14892e-15 0)
(1 1.30484e-15 0)
(1 5.40207e-15 0)
(1 3.04845e-15 0)
(1 -1.32254e-15 0)
(1 3.0117e-15 0)
(1 -1.15254e-14 0)
(1 -4.92359e-17 0)
(1 7.78305e-17 0)
(1 5.06226e-15 0)
(1 3.52253e-15 0)
(1 3.14587e-15 0)
(1 1.51633e-15 0)
(1 5.48916e-15 0)
(1 9.30446e-16 0)
(1 1.46179e-15 0)
(1 -3.29568e-15 0)
(1 -1.08874e-15 0)
(1 -6.54241e-16 0)
(1 -3.96166e-15 0)
(1 4.68336e-15 0)
(1 -4.3494e-15 0)
(1 4.15014e-15 0)
(1 -2.39557e-15 0)
(1 6.2978e-15 0)
(1 1.29651e-15 0)
(1 4.29967e-15 0)
(1 -1.03625e-15 0)
(1 3.45466e-16 0)
(1 4.29784e-15 0)
(1 3.7456e-15 0)
(1 7.01905e-15 0)
(1 -1.7737e-15 0)
(1 6.58843e-16 0)
(1 1.1806e-15 0)
(1 5.20317e-15 0)
(1 -5.68673e-16 0)
(1 -4.45597e-16 0)
(1 4.15619e-15 0)
(1 5.2486e-15 0)
(1 4.89901e-15 0)
(1 2.05931e-15 0)
(1 6.81634e-15 0)
(1 5.3905e-15 0)
(1 5.6347e-15 0)
(1 -4.12118e-16 0)
(1 4.06429e-15 0)
(1 -1.46769e-15 0)
(1 -1.80387e-15 0)
(1 1.09822e-15 0)
(1 2.14535e-15 0)
(1 3.6575e-15 0)
(1 1.13516e-15 0)
(1 5.79773e-15 0)
(1 1.9526e-16 0)
(1 -3.4843e-15 0)
(1 -8.21625e-16 0)
(1 -1.32248e-15 0)
(1 8.97542e-15 0)
(1 2.88256e-15 0)
(1 6.18133e-15 0)
(1 4.61878e-16 0)
(1 6.57597e-16 0)
(1 2.02103e-15 0)
(1 2.72021e-15 0)
(1 3.24947e-15 0)
(1 3.30042e-15 0)
(1 -3.91859e-16 0)
(1 3.47721e-15 0)
(1 3.28796e-15 0)
(1 6.61546e-15 0)
(1 2.10781e-15 0)
(1 3.37351e-15 0)
(1 1.2643e-15 0)
(1 6.50066e-15 0)
(1 7.77666e-15 0)
(1 9.0045e-15 0)
(1 6.2293e-15 0)
(1 1.03251e-14 0)
(1 1.07366e-14 0)
(1 5.97373e-15 0)
(1 8.77491e-15 0)
(1 7.14726e-15 0)
(1 -3.58109e-16 0)
(1 5.3454e-16 0)
(1 -9.88737e-15 0)
(1 4.321e-15 0)
(1 1.3157e-15 0)
(1 3.07303e-15 0)
(1 1.45596e-15 0)
(1 6.0342e-16 0)
(1 7.08288e-15 0)
(1 5.52177e-15 0)
(1 2.70262e-15 0)
(1 -1.15414e-15 0)
(1 -4.02648e-16 0)
(1 9.42655e-15 0)
(1 3.75169e-15 0)
(1 5.42013e-15 0)
(1 6.93811e-15 0)
(1 7.78898e-15 0)
(1 4.57271e-15 0)
(1 9.75698e-15 0)
(1 2.51485e-15 0)
(1 -1.54253e-14 0)
(1 -5.70324e-15 0)
(1 -1.78988e-14 0)
(1 -1.7405e-14 0)
(1 -8.87774e-15 0)
(1 -2.90121e-15 0)
(1 -2.69992e-15 0)
(1 1.07197e-14 0)
(1 9.11877e-15 0)
(1 1.50873e-14 0)
(1 1.008e-15 0)
(1 2.87327e-15 0)
(1 -3.87944e-15 0)
(1 -1.45375e-15 0)
(1 -1.6055e-15 0)
(1 1.74671e-15 0)
(1 -1.87865e-16 0)
(1 2.30066e-15 0)
(1 3.80408e-15 0)
(1 3.87251e-15 0)
(1 -6.28821e-15 0)
(1 -7.71767e-15 0)
(1 -6.17537e-15 0)
(1 -4.85599e-16 0)
(1 7.54476e-15 0)
(1 9.58787e-15 0)
(1 6.05698e-15 0)
(1 1.31007e-15 0)
(1 2.10038e-15 0)
(1 4.23894e-15 0)
(1 1.84306e-15 0)
(1 3.31697e-15 0)
(1 5.17059e-15 0)
(1 7.47987e-15 0)
(1 1.12019e-14 0)
(1 6.4281e-15 0)
(1 5.44676e-15 0)
(1 -2.24091e-15 0)
(1 -2.33437e-15 0)
(1 -2.55864e-15 0)
(1 7.02611e-15 0)
(1 1.228e-14 0)
(1 1.48625e-14 0)
(1 3.23828e-15 0)
(1 2.74252e-16 0)
(1 6.61696e-15 0)
(1 1.74461e-15 0)
(1 2.03817e-15 0)
(1 3.82144e-15 0)
(1 3.52728e-15 0)
(1 1.66174e-15 0)
(1 2.54581e-15 0)
(1 -8.09923e-16 0)
(1 4.16684e-15 0)
(1 6.3835e-15 0)
(1 1.47966e-15 0)
(1 2.38229e-15 0)
(1 -2.82572e-15 0)
(1 -3.29491e-15 0)
(1 -3.01697e-16 0)
(1 -2.09179e-16 0)
(1 2.57451e-18 0)
(1 -7.68297e-16 0)
(1 2.2335e-15 0)
(1 4.54455e-15 0)
(1 4.26465e-15 0)
(1 3.93282e-15 0)
(1 5.53913e-15 0)
(1 1.65248e-15 0)
(1 3.02926e-15 0)
(1 4.12567e-15 0)
(1 6.57817e-15 0)
(1 8.21528e-15 0)
(1 6.9629e-15 0)
(1 8.85931e-15 0)
(1 7.37741e-15 0)
(1 7.31681e-15 0)
(1 1.09983e-14 0)
(1 1.61159e-14 0)
(1 -2.02167e-15 0)
(1 -2.77682e-15 0)
(1 -7.80722e-15 0)
(1 -3.09526e-15 0)
(1 -1.39643e-15 0)
(1 6.8002e-15 0)
(1 5.91584e-15 0)
(1 7.31397e-16 0)
(1 3.18284e-15 0)
(1 -5.85693e-15 0)
(1 4.26615e-16 0)
(1 -2.57297e-15 0)
(1 4.83415e-15 0)
(1 1.21267e-14 0)
(1 7.39598e-15 0)
(1 1.00696e-14 0)
(1 -4.37923e-15 0)
(1 8.88806e-15 0)
(1 5.39682e-15 0)
(1 1.66974e-15 0)
(1 -8.09727e-15 0)
(1 -7.61908e-15 0)
(1 -3.55992e-16 0)
(1 1.2485e-15 0)
(1 -7.98639e-15 0)
(1 -2.28958e-15 0)
(1 -2.58188e-15 0)
(1 -1.3446e-15 0)
(1 -7.38801e-16 0)
(1 3.94536e-15 0)
(1 2.52782e-15 0)
(1 -3.49891e-15 0)
(1 -5.13962e-15 0)
(1 -1.57338e-15 0)
(1 -3.05239e-15 0)
(1 2.36733e-15 0)
(1 4.46332e-15 0)
(1 4.53812e-15 0)
(1 3.28552e-15 0)
(1 1.83316e-16 0)
(1 -1.59787e-16 0)
(1 -1.16754e-15 0)
(1 1.75524e-16 0)
(1 -5.67888e-16 0)
(1 1.29688e-14 0)
(1 7.82039e-15 0)
(1 9.64043e-15 0)
(1 4.85818e-16 0)
(1 -4.69729e-15 0)
(1 8.21261e-16 0)
(1 1.20629e-15 0)
(1 5.91641e-15 0)
(1 1.88107e-15 0)
(1 1.09509e-14 0)
(1 1.27961e-14 0)
(1 8.00958e-15 0)
(1 7.54077e-15 0)
(1 -5.36718e-16 0)
(1 6.96973e-15 0)
(1 4.15336e-15 0)
(1 4.35681e-15 0)
(1 9.18168e-16 0)
(1 1.31561e-15 0)
(1 5.87801e-15 0)
(1 -2.96733e-15 0)
(1 3.71995e-15 0)
(1 3.25739e-15 0)
(1 9.18734e-15 0)
(1 1.70335e-14 0)
(1 1.56909e-14 0)
(1 1.20849e-14 0)
(1 5.81182e-15 0)
(1 5.87188e-15 0)
(1 -1.50874e-15 0)
(1 7.91254e-16 0)
(1 1.8484e-15 0)
(1 1.00782e-15 0)
(1 7.46007e-15 0)
(1 5.81811e-15 0)
(1 4.61396e-15 0)
(1 3.42465e-15 0)
(1 6.38738e-15 0)
(1 3.18872e-15 0)
(1 -3.34474e-15 0)
(1 -8.16009e-15 0)
(1 -3.36003e-15 0)
(1 -2.03629e-15 0)
(1 1.30178e-15 0)
(1 3.98702e-15 0)
(1 3.26793e-15 0)
(1 -6.20013e-16 0)
(1 4.77553e-15 0)
(1 6.72978e-15 0)
(1 1.01966e-14 0)
(1 1.36662e-14 0)
(1 1.56175e-14 0)
(1 1.75896e-14 0)
(1 1.79124e-14 0)
(1 2.30339e-14 0)
(1 2.55538e-14 0)
(1 6.78092e-16 0)
(1 8.65511e-16 0)
(1 7.70775e-15 0)
(1 -4.14969e-15 0)
(1 -4.44937e-16 0)
(1 -7.58259e-15 0)
(1 3.36187e-15 0)
(1 4.08797e-15 0)
(1 5.45518e-15 0)
(1 -7.24092e-16 0)
(1 2.21982e-16 0)
(1 5.71014e-15 0)
(1 8.50038e-15 0)
(1 1.15713e-14 0)
(1 -1.14865e-15 0)
(1 -3.42808e-15 0)
(1 -7.33802e-15 0)
(1 3.91122e-15 0)
(1 3.88576e-15 0)
(1 6.72807e-15 0)
(1 -3.38205e-15 0)
(1 -6.71675e-15 0)
(1 -1.90389e-14 0)
(1 -1.50488e-15 0)
(1 3.92447e-15 0)
(1 6.94742e-15 0)
(1 1.40851e-15 0)
(1 7.78511e-15 0)
(1 2.31351e-15 0)
(1 1.80435e-15 0)
(1 -6.40425e-15 0)
(1 -2.43714e-17 0)
(1 -4.012e-15 0)
(1 5.53044e-17 0)
(1 -4.31243e-15 0)
(1 2.75214e-15 0)
(1 -3.3891e-15 0)
(1 4.4374e-15 0)
(1 -3.94274e-15 0)
(1 -6.51221e-15 0)
(1 -4.29867e-15 0)
(1 1.74339e-15 0)
(1 9.1739e-15 0)
(1 7.43745e-15 0)
(1 5.62685e-15 0)
(1 -1.56541e-15 0)
(1 2.02491e-15 0)
(1 2.28261e-15 0)
(1 -4.52369e-16 0)
(1 3.77776e-15 0)
(1 1.20826e-15 0)
(1 1.22225e-16 0)
(1 7.81236e-15 0)
(1 3.88588e-15 0)
(1 1.21896e-14 0)
(1 1.18659e-14 0)
(1 6.26629e-15 0)
(1 -1.89044e-15 0)
(1 5.22013e-15 0)
(1 9.98719e-15 0)
(1 9.58303e-15 0)
(1 4.66638e-15 0)
(1 3.84571e-15 0)
(1 3.73872e-15 0)
(1 5.40535e-15 0)
(1 2.18373e-15 0)
(1 4.61239e-15 0)
(1 1.30437e-14 0)
(1 2.19718e-14 0)
(1 1.35055e-14 0)
(1 7.72953e-15 0)
(1 4.50272e-15 0)
(1 -1.22426e-17 0)
(1 7.73629e-16 0)
(1 4.90859e-15 0)
(1 2.18149e-15 0)
(1 4.92209e-15 0)
(1 6.55968e-15 0)
(1 8.64142e-15 0)
(1 5.38712e-15 0)
(1 4.65567e-15 0)
(1 3.4167e-15 0)
(1 1.31482e-16 0)
(1 -2.88847e-15 0)
(1 -6.3828e-15 0)
(1 1.39827e-15 0)
(1 6.68558e-15 0)
(1 7.17652e-15 0)
(1 3.51729e-15 0)
(1 3.84954e-16 0)
(1 5.05711e-15 0)
(1 7.12902e-15 0)
(1 7.23038e-15 0)
(1 7.66158e-15 0)
(1 1.93162e-14 0)
(1 1.06379e-14 0)
(1 1.49519e-14 0)
(1 1.51821e-14 0)
(1 2.90275e-14 0)
(1 2.83756e-14 0)
(1 -3.2231e-16 0)
(1 1.99239e-15 0)
(1 -1.35042e-16 0)
(1 -4.62144e-17 0)
(1 -5.72181e-15 0)
(1 -8.02623e-15 0)
(1 -4.9577e-16 0)
(1 -6.10759e-16 0)
(1 6.26306e-15 0)
(1 8.32347e-15 0)
(1 4.1986e-15 0)
(1 -2.96769e-15 0)
(1 2.56491e-15 0)
(1 -2.91259e-15 0)
(1 -5.29965e-16 0)
(1 -1.53757e-16 0)
(1 9.05381e-15 0)
(1 4.86276e-15 0)
(1 2.67261e-15 0)
(1 1.34822e-15 0)
(1 -2.85216e-15 0)
(1 -7.73826e-15 0)
(1 -1.67934e-14 0)
(1 -3.87783e-15 0)
(1 -5.28639e-15 0)
(1 4.33351e-15 0)
(1 5.77605e-15 0)
(1 1.14436e-14 0)
(1 4.16446e-15 0)
(1 -2.11103e-16 0)
(1 -5.05127e-15 0)
(1 -3.31947e-15 0)
(1 -2.66717e-15 0)
(1 9.97935e-16 0)
(1 -2.86227e-15 0)
(1 -1.34887e-15 0)
(1 3.40329e-15 0)
(1 -1.21464e-15 0)
(1 -4.87374e-15 0)
(1 -5.46129e-15 0)
(1 1.05846e-15 0)
(1 -1.00146e-16 0)
(1 7.82072e-15 0)
(1 -5.32378e-16 0)
(1 6.65922e-16 0)
(1 -6.49427e-16 0)
(1 5.96276e-15 0)
(1 2.20946e-15 0)
(1 7.41433e-15 0)
(1 5.57123e-15 0)
(1 1.1446e-14 0)
(1 9.76566e-15 0)
(1 1.20639e-14 0)
(1 5.70962e-15 0)
(1 7.58328e-15 0)
(1 4.56168e-15 0)
(1 3.52477e-15 0)
(1 3.34739e-15 0)
(1 1.89295e-15 0)
(1 3.02541e-15 0)
(1 9.21653e-15 0)
(1 5.05055e-15 0)
(1 4.57305e-15 0)
(1 3.65078e-15 0)
(1 1.18064e-14 0)
(1 3.51617e-15 0)
(1 4.91991e-15 0)
(1 5.19252e-15 0)
(1 2.44853e-15 0)
(1 4.72332e-15 0)
(1 4.97205e-15 0)
(1 1.49943e-14 0)
(1 8.33767e-15 0)
(1 -1.07697e-15 0)
(1 3.93523e-15 0)
(1 -1.70597e-15 0)
(1 1.31617e-14 0)
(1 1.89235e-15 0)
(1 3.89468e-15 0)
(1 1.04798e-14 0)
(1 1.04065e-14 0)
(1 5.46254e-15 0)
(1 6.73063e-15 0)
(1 2.8989e-15 0)
(1 -1.45047e-16 0)
(1 -2.70252e-15 0)
(1 3.57523e-15 0)
(1 -1.01261e-15 0)
(1 3.00718e-15 0)
(1 -2.02967e-15 0)
(1 1.40488e-14 0)
(1 4.07911e-15 0)
(1 5.63674e-15 0)
(1 3.57447e-15 0)
(1 1.39089e-14 0)
(1 1.12377e-14 0)
(1 1.41865e-14 0)
(1 1.19804e-14 0)
(1 1.90192e-14 0)
(1 2.02103e-14 0)
(1 1.23528e-15 0)
(1 -4.31058e-16 0)
(1 -1.73296e-15 0)
(1 2.74301e-15 0)
(1 -5.88405e-15 0)
(1 4.74477e-15 0)
(1 -4.43615e-15 0)
(1 1.30733e-15 0)
(1 2.17144e-15 0)
(1 6.44455e-15 0)
(1 6.11761e-15 0)
(1 5.55386e-17 0)
(1 3.25669e-15 0)
(1 -5.39142e-15 0)
(1 9.37585e-15 0)
(1 2.41564e-15 0)
(1 2.97672e-15 0)
(1 -1.35892e-14 0)
(1 -3.16179e-18 0)
(1 -1.6309e-14 0)
(1 -5.69824e-15 0)
(1 4.47754e-15 0)
(1 8.50612e-15 0)
(1 5.4821e-15 0)
(1 8.03994e-15 0)
(1 -6.61645e-16 0)
(1 2.36362e-15 0)
(1 7.54179e-15 0)
(1 7.29492e-15 0)
(1 -2.11726e-15 0)
(1 -3.25966e-15 0)
(1 -6.42266e-15 0)
(1 -5.6799e-15 0)
(1 -6.02571e-15 0)
(1 -5.58539e-15 0)
(1 -6.03441e-15 0)
(1 -5.0909e-15 0)
(1 -1.86933e-15 0)
(1 3.06475e-15 0)
(1 2.73105e-15 0)
(1 8.62243e-15 0)
(1 4.64057e-15 0)
(1 -4.60845e-15 0)
(1 1.19196e-15 0)
(1 1.67756e-15 0)
(1 2.07747e-15 0)
(1 5.95167e-15 0)
(1 -4.47489e-16 0)
(1 1.37093e-14 0)
(1 7.47188e-15 0)
(1 1.00184e-14 0)
(1 5.62539e-15 0)
(1 2.76046e-15 0)
(1 6.68897e-15 0)
(1 4.56282e-15 0)
(1 -9.66747e-15 0)
(1 -1.65244e-15 0)
(1 -8.54314e-16 0)
(1 7.09242e-15 0)
(1 4.81146e-15 0)
(1 1.29497e-14 0)
(1 1.16444e-14 0)
(1 1.19088e-14 0)
(1 3.7696e-15 0)
(1 1.06421e-14 0)
(1 7.36733e-15 0)
(1 9.43755e-16 0)
(1 3.87968e-15 0)
(1 -1.87708e-15 0)
(1 2.84486e-15 0)
(1 9.12341e-15 0)
(1 1.18258e-14 0)
(1 1.75874e-15 0)
(1 -1.7598e-15 0)
(1 2.31287e-15 0)
(1 -4.29068e-15 0)
(1 5.18996e-15 0)
(1 4.73706e-15 0)
(1 4.51587e-15 0)
(1 1.40239e-14 0)
(1 1.15563e-14 0)
(1 9.60633e-15 0)
(1 1.10685e-14 0)
(1 2.97473e-15 0)
(1 5.316e-15 0)
(1 -1.60117e-15 0)
(1 8.53068e-16 0)
(1 -4.54479e-16 0)
(1 5.53255e-15 0)
(1 6.03352e-15 0)
(1 1.03209e-14 0)
(1 2.78276e-15 0)
(1 4.07998e-15 0)
(1 4.0684e-15 0)
(1 9.64126e-15 0)
(1 1.80693e-14 0)
(1 1.80801e-14 0)
(1 1.7944e-14 0)
(1 8.76571e-15 0)
(1 9.79036e-15 0)
(1 2.94518e-15 0)
(1 2.02816e-15 0)
(1 -4.77076e-15 0)
(1 -6.5393e-15 0)
(1 1.54945e-15 0)
(1 -2.22207e-15 0)
(1 -3.70406e-15 0)
(1 2.53203e-15 0)
(1 6.12724e-16 0)
(1 2.99614e-15 0)
(1 4.14403e-15 0)
(1 3.84163e-15 0)
(1 3.61143e-15 0)
(1 1.34345e-15 0)
(1 3.00488e-15 0)
(1 -1.87259e-15 0)
(1 -2.2151e-15 0)
(1 -2.14601e-15 0)
(1 8.14985e-15 0)
(1 2.36668e-15 0)
(1 1.04485e-14 0)
(1 1.3911e-16 0)
(1 -7.38378e-15 0)
(1 -1.16877e-14 0)
(1 -2.50961e-15 0)
(1 -8.67781e-16 0)
(1 6.86724e-16 0)
(1 -3.28874e-15 0)
(1 5.40022e-15 0)
(1 -1.79215e-15 0)
(1 -7.15739e-15 0)
(1 -9.43986e-15 0)
(1 -8.43202e-15 0)
(1 -1.31672e-14 0)
(1 6.30261e-15 0)
(1 2.51654e-15 0)
(1 2.75741e-15 0)
(1 -2.06538e-15 0)
(1 1.80101e-15 0)
(1 4.16631e-15 0)
(1 6.49309e-15 0)
(1 3.74876e-15 0)
(1 -8.84834e-15 0)
(1 2.18956e-15 0)
(1 1.27683e-15 0)
(1 9.05991e-15 0)
(1 1.564e-15 0)
(1 1.19372e-14 0)
(1 9.83337e-15 0)
(1 7.74913e-15 0)
(1 6.44628e-15 0)
(1 3.59829e-15 0)
(1 1.38588e-16 0)
(1 4.03461e-15 0)
(1 2.50973e-15 0)
(1 5.61174e-15 0)
(1 2.05284e-15 0)
(1 2.76095e-15 0)
(1 -7.28937e-15 0)
(1 -1.41755e-15 0)
(1 -7.75617e-15 0)
(1 9.34107e-16 0)
(1 6.41984e-15 0)
(1 1.17725e-14 0)
(1 1.72319e-14 0)
(1 1.3569e-14 0)
(1 8.32901e-15 0)
(1 6.01698e-15 0)
(1 1.74608e-15 0)
(1 -1.68773e-15 0)
(1 -7.29544e-15 0)
(1 -5.13445e-15 0)
(1 5.61011e-15 0)
(1 1.39543e-14 0)
(1 8.69001e-15 0)
(1 5.66502e-15 0)
(1 -6.68242e-15 0)
(1 5.37126e-15 0)
(1 6.04364e-15 0)
(1 3.04326e-15 0)
(1 3.78151e-15 0)
(1 6.99666e-15 0)
(1 5.98749e-15 0)
(1 5.19053e-15 0)
(1 8.55072e-15 0)
(1 6.50331e-15 0)
(1 5.52661e-15 0)
(1 7.35068e-15 0)
(1 7.66811e-15 0)
(1 9.62657e-15 0)
(1 4.41e-15 0)
(1 5.48238e-15 0)
(1 3.07334e-16 0)
(1 4.90282e-15 0)
(1 4.33737e-15 0)
(1 1.03759e-14 0)
(1 8.74821e-15 0)
(1 9.49471e-15 0)
(1 5.86165e-15 0)
(1 6.05031e-15 0)
(1 -5.40555e-16 0)
(1 6.31361e-15 0)
(1 -4.32927e-15 0)
(1 -6.83051e-15 0)
(1 -1.1201e-15 0)
(1 -2.08576e-15 0)
(1 -6.75422e-17 0)
(1 2.24034e-16 0)
(1 5.61612e-15 0)
(1 8.74521e-15 0)
(1 1.61521e-15 0)
(1 4.24744e-15 0)
(1 -3.89157e-15 0)
(1 -1.56993e-15 0)
(1 -7.19037e-15 0)
(1 7.21571e-15 0)
(1 3.22096e-15 0)
(1 5.88173e-15 0)
(1 -8.67013e-15 0)
(1 -9.25246e-17 0)
(1 -2.41595e-15 0)
(1 4.55514e-15 0)
(1 -9.8415e-15 0)
(1 6.57915e-16 0)
(1 -2.6788e-15 0)
(1 7.28211e-15 0)
(1 8.22903e-15 0)
(1 -1.32513e-15 0)
(1 3.75715e-15 0)
(1 -3.44787e-15 0)
(1 -3.38958e-15 0)
(1 -1.19086e-14 0)
(1 -1.06596e-14 0)
(1 -1.16597e-14 0)
(1 1.69253e-15 0)
(1 7.95651e-15 0)
(1 1.42452e-14 0)
(1 -5.71054e-16 0)
(1 3.88797e-16 0)
(1 -5.28884e-15 0)
(1 -5.65508e-15 0)
(1 -1.08839e-15 0)
(1 4.69118e-15 0)
(1 6.82415e-15 0)
(1 9.54805e-15 0)
(1 1.29943e-14 0)
(1 2.49526e-15 0)
(1 1.18535e-14 0)
(1 1.48289e-15 0)
(1 4.06522e-16 0)
(1 -1.06415e-14 0)
(1 -3.98277e-15 0)
(1 -8.84699e-16 0)
(1 8.51343e-15 0)
(1 2.05274e-15 0)
(1 1.31264e-14 0)
(1 1.05958e-14 0)
(1 1.06922e-14 0)
(1 -7.82534e-16 0)
(1 6.73587e-15 0)
(1 -2.65266e-15 0)
(1 -3.76974e-15 0)
(1 -4.27828e-15 0)
(1 9.10883e-15 0)
(1 4.28172e-15 0)
(1 1.43838e-14 0)
(1 1.19463e-14 0)
(1 7.87038e-15 0)
(1 -4.16404e-17 0)
(1 1.337e-15 0)
(1 -5.2357e-15 0)
(1 7.46127e-15 0)
(1 1.1171e-14 0)
(1 1.55017e-14 0)
(1 4.64619e-15 0)
(1 1.34349e-14 0)
(1 6.91891e-16 0)
(1 8.42067e-15 0)
(1 1.01607e-14 0)
(1 8.71489e-16 0)
(1 4.39881e-15 0)
(1 6.22987e-15 0)
(1 3.40143e-16 0)
(1 5.30275e-15 0)
(1 7.57264e-15 0)
(1 1.042e-14 0)
(1 3.58186e-15 0)
(1 9.02174e-15 0)
(1 7.48537e-15 0)
(1 8.76997e-15 0)
(1 6.68544e-15 0)
(1 9.16507e-15 0)
(1 2.82583e-15 0)
(1 8.06579e-15 0)
(1 9.77352e-16 0)
(1 1.01152e-14 0)
(1 9.0246e-15 0)
(1 9.84571e-15 0)
(1 9.12364e-15 0)
(1 7.08584e-15 0)
(1 5.59463e-16 0)
(1 1.81621e-15 0)
(1 -8.74986e-17 0)
(1 -2.71785e-15 0)
(1 -1.91232e-15 0)
(1 1.09256e-15 0)
(1 -4.17733e-15 0)
(1 -6.95793e-15 0)
(1 6.56605e-15 0)
(1 1.75362e-15 0)
(1 3.64858e-15 0)
(1 6.8657e-15 0)
(1 4.11203e-15 0)
(1 -2.25149e-15 0)
(1 -4.03578e-15 0)
(1 2.09234e-15 0)
(1 -2.40429e-15 0)
(1 -6.93654e-15 0)
(1 -1.57624e-14 0)
(1 2.34996e-15 0)
(1 1.68001e-15 0)
(1 1.04269e-14 0)
(1 7.46036e-15 0)
(1 8.03102e-16 0)
(1 -4.10968e-15 0)
(1 -5.03857e-15 0)
(1 -2.33564e-15 0)
(1 -2.16289e-15 0)
(1 2.17502e-16 0)
(1 -9.60441e-16 0)
(1 -2.44507e-15 0)
(1 8.40966e-16 0)
(1 9.10383e-16 0)
(1 -2.03505e-15 0)
(1 -3.48812e-15 0)
(1 3.9166e-15 0)
(1 -6.05891e-16 0)
(1 -3.53445e-15 0)
(1 9.64025e-16 0)
(1 -2.4685e-15 0)
(1 -5.87762e-15 0)
(1 -1.93661e-15 0)
(1 6.03686e-15 0)
(1 5.1631e-15 0)
(1 6.06487e-15 0)
(1 1.02061e-14 0)
(1 2.40944e-15 0)
(1 -2.63906e-15 0)
(1 -2.22488e-15 0)
(1 1.39041e-15 0)
(1 -2.07003e-15 0)
(1 1.48685e-15 0)
(1 5.61912e-15 0)
(1 1.32158e-14 0)
(1 1.3077e-14 0)
(1 6.08983e-15 0)
(1 5.90321e-15 0)
(1 7.01797e-15 0)
(1 6.06198e-15 0)
(1 1.64687e-15 0)
(1 7.2349e-15 0)
(1 2.22684e-15 0)
(1 6.04737e-15 0)
(1 1.4456e-15 0)
(1 5.71384e-15 0)
(1 9.19049e-15 0)
(1 1.62383e-14 0)
(1 9.05908e-15 0)
(1 9.97138e-15 0)
(1 8.80866e-15 0)
(1 9.82818e-15 0)
(1 3.45817e-15 0)
(1 -6.57212e-16 0)
(1 9.1253e-15 0)
(1 7.57283e-15 0)
(1 8.22199e-15 0)
(1 7.4099e-15 0)
(1 7.03002e-15 0)
(1 7.13695e-15 0)
(1 3.82826e-15 0)
(1 5.5127e-15 0)
(1 5.52026e-15 0)
(1 4.76378e-16 0)
(1 5.57097e-15 0)
(1 4.11334e-15 0)
(1 6.91384e-15 0)
(1 2.21333e-15 0)
(1 6.4028e-15 0)
(1 5.54928e-15 0)
(1 2.31634e-15 0)
(1 4.4997e-15 0)
(1 5.78878e-15 0)
(1 7.37307e-15 0)
(1 7.22395e-15 0)
(1 5.30114e-15 0)
(1 5.21766e-15 0)
(1 4.77776e-15 0)
(1 8.8281e-15 0)
(1 1.46812e-14 0)
(1 1.20805e-14 0)
(1 -1.99348e-15 0)
(1 -2.60001e-15 0)
(1 -1.2303e-15 0)
(1 -4.91611e-16 0)
(1 7.01829e-15 0)
(1 8.37509e-15 0)
(1 1.16952e-14 0)
(1 7.87126e-15 0)
(1 5.79924e-16 0)
(1 -9.6571e-15 0)
(1 -5.64672e-15 0)
(1 -8.49386e-15 0)
(1 -2.38282e-16 0)
(1 -2.41617e-15 0)
(1 -6.58636e-16 0)
(1 -5.5825e-15 0)
(1 -4.73834e-15 0)
(1 -2.8906e-15 0)
(1 2.14964e-15 0)
(1 -4.41296e-15 0)
(1 -1.44853e-15 0)
(1 -8.39205e-15 0)
(1 1.2207e-14 0)
(1 2.61747e-15 0)
(1 -2.19161e-15 0)
(1 -6.53835e-15 0)
(1 -2.92719e-15 0)
(1 -5.41758e-15 0)
(1 -8.86735e-15 0)
(1 -4.3978e-15 0)
(1 -6.3252e-15 0)
(1 5.98855e-15 0)
(1 3.35074e-15 0)
(1 2.24733e-15 0)
(1 -3.89009e-15 0)
(1 9.24747e-16 0)
(1 -4.3697e-15 0)
(1 -1.40639e-15 0)
(1 2.27726e-15 0)
(1 8.72281e-15 0)
(1 6.12721e-16 0)
(1 -3.59741e-15 0)
(1 4.31932e-15 0)
(1 5.37121e-15 0)
(1 5.25298e-15 0)
(1 5.82682e-15 0)
(1 2.8789e-15 0)
(1 -3.8028e-15 0)
(1 -9.17231e-15 0)
(1 -8.39101e-15 0)
(1 1.19084e-14 0)
(1 1.57343e-14 0)
(1 9.83457e-15 0)
(1 5.49218e-15 0)
(1 6.96458e-15 0)
(1 4.26365e-15 0)
(1 2.59641e-15 0)
(1 4.38644e-15 0)
(1 5.64476e-15 0)
(1 -9.78465e-15 0)
(1 -4.63307e-15 0)
(1 -3.42869e-16 0)
(1 2.80914e-15 0)
(1 -7.1842e-16 0)
(1 7.79176e-15 0)
(1 -4.40803e-17 0)
(1 4.19015e-15 0)
(1 1.67289e-15 0)
(1 8.73056e-15 0)
(1 6.5683e-15 0)
(1 6.39146e-15 0)
(1 1.46601e-15 0)
(1 5.04217e-15 0)
(1 1.03485e-14 0)
(1 9.98243e-15 0)
(1 5.63649e-15 0)
(1 3.83617e-15 0)
(1 7.00056e-15 0)
(1 4.99479e-15 0)
(1 8.58277e-15 0)
(1 2.40787e-16 0)
(1 2.90418e-15 0)
(1 5.07329e-15 0)
(1 1.06784e-14 0)
(1 8.80693e-15 0)
(1 6.23746e-15 0)
(1 3.55308e-15 0)
(1 6.23641e-15 0)
(1 4.15037e-15 0)
(1 7.32391e-15 0)
(1 1.40707e-15 0)
(1 5.25753e-16 0)
(1 6.06052e-15 0)
(1 5.01047e-15 0)
(1 8.15195e-15 0)
(1 2.24741e-15 0)
(1 4.02631e-15 0)