/*--------------------------------*- C++ -*----------------------------------*\
| =========                 |                                                 |
| \\      /  F ield         | OpenFOAM: The Open Source CFD Toolbox           |
|  \\    /   O peration     | Version:  v2012                                 |
|   \\  /    A nd           | Website:  www.openfoam.com                      |
|    \\/     M anipulation  |                                                 |
\*---------------------------------------------------------------------------*/
FoamFile
{
    version     2.0;
    format      ascii;
    class       volScalarField;
    location    "0";
    object      p;
}
// * * * * * * * * * * * * * * * * * * * * * * * * * * * * * * * * * * * * * //

dimensions      [0 2 -2 0 0 0 0];


internalField   nonuniform List<scalar> 
4000
(
-1.98116e-14
-2.04532e-14
-1.77318e-14
-1.17181e-14
-2.6736e-14
-2.18911e-14
-2.46294e-14
-3.59626e-14
-3.81379e-14
-3.05184e-14
-3.87957e-14
-4.91378e-14
-6.27373e-14
-7.2744e-14
-8.82914e-14
-1.05656e-13
-1.02117e-13
-1.05047e-13
-1.15632e-13
-1.2798e-13
-1.32884e-13
-1.39622e-13
-1.451e-13
-1.50261e-13
-1.58304e-13
-1.6246e-13
-1.6422e-13
-1.66938e-13
-1.67761e-13
-1.87395e-13
-2.01211e-13
-2.01996e-13
-1.92557e-13
-1.92816e-13
-1.99385e-13
-2.01934e-13
-2.03578e-13
-2.13742e-13
-2.31397e-13
-2.24931e-13
-2.22718e-13
-2.21835e-13
-2.16274e-13
-2.26745e-13
-2.2834e-13
-2.30494e-13
-2.32174e-13
-2.35986e-13
-2.42123e-13
-2.40862e-13
-2.4202e-13
-2.4145e-13
-2.46586e-13
-2.39938e-13
-2.41135e-13
-2.45551e-13
-2.35574e-13
-2.33314e-13
-2.37065e-13
-2.32747e-13
-2.35731e-13
-2.26431e-13
-2.29002e-13
-2.21265e-13
-2.18997e-13
-2.16049e-13
-2.08937e-13
-2.10992e-13
-2.06754e-13
-2.04052e-13
-1.9205e-13
-1.84643e-13
-1.86599e-13
-1.7906e-13
-1.66039e-13
-1.54287e-13
-1.60268e-13
-1.448e-13
-1.46934e-13
-1.41334e-13
-1.3511e-13
-1.33618e-13
-1.30455e-13
-1.25807e-13
-1.19281e-13
-1.19358e-13
-1.06015e-13
-9.73541e-14
-8.22517e-14
-6.99303e-14
-6.75733e-14
-5.38394e-14
-5.37322e-14
-4.43973e-14
-4.06206e-14
-2.97835e-14
-1.95919e-14
-1.0854e-14
-7.23766e-15
-8.84313e-16
-1.9463e-14
-2.25473e-14
-1.36977e-14
-1.56409e-14
-1.89106e-14
-2.42802e-14
-2.56087e-14
-3.07722e-14
-3.56568e-14
-3.57564e-14
-4.56868e-14
-5.23796e-14
-5.95399e-14
-7.44982e-14
-8.52479e-14
-9.7151e-14
-9.94842e-14
-1.06891e-13
-1.18334e-13
-1.25796e-13
-1.32761e-13
-1.42493e-13
-1.47323e-13
-1.4952e-13
-1.59698e-13
-1.62526e-13
-1.68042e-13
-1.65185e-13
-1.72656e-13
-1.8712e-13
-1.93982e-13
-1.9485e-13
-1.93243e-13
-1.9724e-13
-2.05045e-13
-2.06178e-13
-2.05447e-13
-2.14517e-13
-2.22432e-13
-2.20021e-13
-2.21572e-13
-2.24312e-13
-2.22149e-13
-2.28532e-13
-2.26327e-13
-2.3096e-13
-2.322e-13
-2.32476e-13
-2.38442e-13
-2.44256e-13
-2.48726e-13
-2.42186e-13
-2.40353e-13
-2.39682e-13
-2.37126e-13
-2.43735e-13
-2.45852e-13
-2.38563e-13
-2.3731e-13
-2.35751e-13
-2.31635e-13
-2.23918e-13
-2.27361e-13
-2.22391e-13
-2.18758e-13
-2.1541e-13
-2.11375e-13
-2.107e-13
-2.05852e-13
-2.00422e-13
-1.90196e-13
-1.87897e-13
-1.86233e-13
-1.74964e-13
-1.65186e-13
-1.60194e-13
-1.61145e-13
-1.47094e-13
-1.42913e-13
-1.42955e-13
-1.36397e-13
-1.29823e-13
-1.30203e-13
-1.22234e-13
-1.19804e-13
-1.17161e-13
-1.0416e-13
-1.06757e-13
-8.70037e-14
-6.73657e-14
-6.38631e-14
-5.35323e-14
-5.35667e-14
-4.59997e-14
-3.72255e-14
-2.90325e-14
-2.0062e-14
-1.36323e-14
-1.09236e-14
-2.25797e-15
-2.13098e-14
-2.14145e-14
-1.59548e-14
-1.51404e-14
-1.98192e-14
-2.62877e-14
-2.82767e-14
-3.1455e-14
-3.28398e-14
-3.51589e-14
-4.80121e-14
-5.86565e-14
-6.49468e-14
-7.10312e-14
-7.77158e-14
-9.19721e-14
-9.98639e-14
-1.0739e-13
-1.2112e-13
-1.27611e-13
-1.34424e-13
-1.40811e-13
-1.47659e-13
-1.50968e-13
-1.63566e-13
-1.58595e-13
-1.64703e-13
-1.65639e-13
-1.77244e-13
-1.85017e-13
-1.9115e-13
-1.91812e-13
-1.91372e-13
-1.98824e-13
-2.02278e-13
-2.05687e-13
-2.06858e-13
-2.15593e-13
-2.17454e-13
-2.21362e-13
-2.23904e-13
-2.22911e-13
-2.21582e-13
-2.31845e-13
-2.26154e-13
-2.31968e-13
-2.36818e-13
-2.35818e-13
-2.35735e-13
-2.34795e-13
-2.47125e-13
-2.45016e-13
-2.43531e-13
-2.41437e-13
-2.39286e-13
-2.46299e-13
-2.44063e-13
-2.40035e-13
-2.31761e-13
-2.31717e-13
-2.2791e-13
-2.27764e-13
-2.29694e-13
-2.25387e-13
-2.20884e-13
-2.14467e-13
-2.11292e-13
-2.11477e-13
-2.05982e-13
-2.01463e-13
-1.93978e-13
-1.88321e-13
-1.84279e-13
-1.7453e-13
-1.67626e-13
-1.61899e-13
-1.58609e-13
-1.44552e-13
-1.40688e-13
-1.41178e-13
-1.33518e-13
-1.3127e-13
-1.36449e-13
-1.26843e-13
-1.18815e-13
-1.12211e-13
-1.0344e-13
-9.9612e-14
-8.77335e-14
-7.3229e-14
-6.38074e-14
-5.32921e-14
-5.13865e-14
-4.18842e-14
-3.69553e-14
-3.43281e-14
-2.38857e-14
-1.33691e-14
-1.04246e-15
-1.3659e-15
-1.92283e-14
-1.93649e-14
-1.52386e-14
-1.79672e-14
-2.71516e-14
-3.23551e-14
-2.94433e-14
-2.80833e-14
-3.0738e-14
-3.86667e-14
-5.22475e-14
-5.81193e-14
-6.5822e-14
-6.85353e-14
-7.30741e-14
-9.045e-14
-1.01703e-13
-1.09888e-13
-1.18115e-13
-1.29421e-13
-1.35575e-13
-1.36878e-13
-1.45809e-13
-1.56259e-13
-1.65049e-13
-1.67196e-13
-1.66516e-13
-1.71029e-13
-1.79615e-13
-1.81979e-13
-1.82752e-13
-1.85911e-13
-1.93903e-13
-1.95831e-13
-2.03831e-13
-2.04752e-13
-2.09201e-13
-2.16211e-13
-2.14385e-13
-2.187e-13
-2.24145e-13
-2.18412e-13
-2.24156e-13
-2.31807e-13
-2.30392e-13
-2.33484e-13
-2.36307e-13
-2.33907e-13
-2.36492e-13
-2.41702e-13
-2.47581e-13
-2.47256e-13
-2.38636e-13
-2.39454e-13
-2.39114e-13
-2.42412e-13
-2.42866e-13
-2.45926e-13
-2.39778e-13
-2.31025e-13
-2.31999e-13
-2.26767e-13
-2.21849e-13
-2.19954e-13
-2.25507e-13
-2.15153e-13
-2.13623e-13
-2.11748e-13
-2.06565e-13
-1.98178e-13
-1.88656e-13
-1.88275e-13
-1.79979e-13
-1.74333e-13
-1.6966e-13
-1.62748e-13
-1.55827e-13
-1.45217e-13
-1.39687e-13
-1.40884e-13
-1.34093e-13
-1.30676e-13
-1.30601e-13
-1.26511e-13
-1.21566e-13
-1.11874e-13
-1.0528e-13
-9.78044e-14
-8.8381e-14
-7.31081e-14
-6.11217e-14
-5.45151e-14
-5.21011e-14
-4.32823e-14
-3.6919e-14
-3.22986e-14
-2.55134e-14
-1.41578e-14
-1.2065e-15
-2.12651e-15
-2.0944e-14
-1.23993e-14
-1.71247e-14
-1.98478e-14
-3.00678e-14
-2.77852e-14
-3.41321e-14
-2.82228e-14
-3.37992e-14
-4.47872e-14
-5.6888e-14
-5.97373e-14
-6.1699e-14
-6.85071e-14
-7.44805e-14
-8.55018e-14
-9.38154e-14
-1.01811e-13
-1.22759e-13
-1.38707e-13
-1.34509e-13
-1.4457e-13
-1.51535e-13
-1.57377e-13
-1.56628e-13
-1.62548e-13
-1.65578e-13
-1.7159e-13
-1.77451e-13
-1.82623e-13
-1.82997e-13
-1.82418e-13
-1.95842e-13
-2.01546e-13
-1.9645e-13
-2.04842e-13
-2.06769e-13
-2.16044e-13
-2.19821e-13
-2.19801e-13
-2.23456e-13
-2.18647e-13
-2.23946e-13
-2.32743e-13
-2.33372e-13
-2.38229e-13
-2.36236e-13
-2.34186e-13
-2.39902e-13
-2.37232e-13
-2.41438e-13
-2.39971e-13
-2.41664e-13
-2.40371e-13
-2.41244e-13
-2.4533e-13
-2.45016e-13
-2.39858e-13
-2.36011e-13
-2.37559e-13
-2.31222e-13
-2.28141e-13
-2.24168e-13
-2.24346e-13
-2.16033e-13
-2.13381e-13
-2.09219e-13
-2.11729e-13
-2.08071e-13
-2.01084e-13
-1.96178e-13
-1.8947e-13
-1.78554e-13
-1.77365e-13
-1.71834e-13
-1.63773e-13
-1.51192e-13
-1.43957e-13
-1.42253e-13
-1.37833e-13
-1.38184e-13
-1.30633e-13
-1.26678e-13
-1.2367e-13
-1.23575e-13
-1.17544e-13
-1.09572e-13
-9.65963e-14
-8.51203e-14
-7.22582e-14
-6.31657e-14
-5.58244e-14
-5.2633e-14
-4.12011e-14
-3.68872e-14
-3.24146e-14
-2.46655e-14
-1.29447e-14
-2.84582e-15
-5.68631e-15
-1.95598e-14
-1.05261e-14
-1.6431e-14
-2.70753e-14
-3.28049e-14
-3.05585e-14
-3.05845e-14
-2.59159e-14
-3.29224e-14
-4.7288e-14
-5.46462e-14
-5.86573e-14
-6.53282e-14
-7.49256e-14
-8.30335e-14
-8.82625e-14
-9.17012e-14
-1.04261e-13
-1.15793e-13
-1.31938e-13
-1.4096e-13
-1.43801e-13
-1.60192e-13
-1.62748e-13
-1.59419e-13
-1.64616e-13
-1.66721e-13
-1.71373e-13
-1.73881e-13
-1.78762e-13
-1.83362e-13
-1.86134e-13
-1.88731e-13
-1.88676e-13
-1.89783e-13
-2.05144e-13
-2.13017e-13
-2.13047e-13
-2.15203e-13
-2.19053e-13
-2.23027e-13
-2.21524e-13
-2.25802e-13
-2.33421e-13
-2.32051e-13
-2.34754e-13
-2.39809e-13
-2.37441e-13
-2.39635e-13
-2.40179e-13
-2.42008e-13
-2.44935e-13
-2.42074e-13
-2.43006e-13
-2.46032e-13
-2.41011e-13
-2.4409e-13
-2.42468e-13
-2.3671e-13
-2.31422e-13
-2.3004e-13
-2.27969e-13
-2.22912e-13
-2.22714e-13
-2.21577e-13
-2.14939e-13
-2.06543e-13
-2.144e-13
-2.09342e-13
-1.9985e-13
-1.96558e-13
-1.86395e-13
-1.8066e-13
-1.7552e-13
-1.7566e-13
-1.65515e-13
-1.52136e-13
-1.44136e-13
-1.40909e-13
-1.33121e-13
-1.33862e-13
-1.28196e-13
-1.30526e-13
-1.27017e-13
-1.23336e-13
-1.15759e-13
-1.05073e-13
-9.69938e-14
-8.02754e-14
-7.41209e-14
-6.70283e-14
-5.62209e-14
-5.13929e-14
-4.33807e-14
-3.78607e-14
-3.5052e-14
-2.46115e-14
-1.49265e-14
-8.58593e-15
-9.19925e-15
-1.53414e-14
-9.3494e-15
-2.2255e-14
-2.85289e-14
-3.44655e-14
-3.04933e-14
-2.24475e-14
-2.96154e-14
-4.54599e-14
-5.03374e-14
-5.40458e-14
-5.77957e-14
-6.47913e-14
-7.40849e-14
-8.08077e-14
-8.77869e-14
-9.31427e-14
-1.04373e-13
-1.2313e-13
-1.35862e-13
-1.41044e-13
-1.45054e-13
-1.50625e-13
-1.58039e-13
-1.60214e-13
-1.68582e-13
-1.69901e-13
-1.74175e-13
-1.76148e-13
-1.75602e-13
-1.73678e-13
-1.85225e-13
-1.89801e-13
-1.99145e-13
-1.96031e-13
-2.02663e-13
-2.07548e-13
-2.07621e-13
-2.14822e-13
-2.24608e-13
-2.23395e-13
-2.24479e-13
-2.27904e-13
-2.32031e-13
-2.24597e-13
-2.3036e-13
-2.36872e-13
-2.41312e-13
-2.42681e-13
-2.42627e-13
-2.44421e-13
-2.39605e-13
-2.34214e-13
-2.44537e-13
-2.49457e-13
-2.42312e-13
-2.43929e-13
-2.47003e-13
-2.4329e-13
-2.32385e-13
-2.24858e-13
-2.21006e-13
-2.21473e-13
-2.27418e-13
-2.25049e-13
-2.1442e-13
-2.09599e-13
-2.19807e-13
-2.12635e-13
-2.01865e-13
-1.88212e-13
-1.81927e-13
-1.83833e-13
-1.76345e-13
-1.69957e-13
-1.62295e-13
-1.56878e-13
-1.5234e-13
-1.43159e-13
-1.32629e-13
-1.31936e-13
-1.28664e-13
-1.25492e-13
-1.22921e-13
-1.21398e-13
-1.16438e-13
-1.04346e-13
-9.17433e-14
-8.21596e-14
-7.70968e-14
-7.00508e-14
-6.14336e-14
-5.14355e-14
-4.626e-14
-4.01409e-14
-3.44369e-14
-2.86515e-14
-2.08988e-14
-1.18143e-14
-3.64615e-15
-1.43788e-14
-1.49553e-14
-2.37554e-14
-3.3362e-14
-2.58295e-14
-2.51882e-14
-2.23685e-14
-3.4221e-14
-4.48745e-14
-4.98836e-14
-5.56235e-14
-5.97248e-14
-6.88561e-14
-7.75967e-14
-8.53418e-14
-9.14756e-14
-9.25718e-14
-1.01614e-13
-1.27234e-13
-1.32445e-13
-1.35755e-13
-1.46354e-13
-1.56535e-13
-1.57224e-13
-1.61587e-13
-1.69326e-13
-1.73272e-13
-1.79003e-13
-1.74328e-13
-1.8201e-13
-1.73918e-13
-1.73865e-13
-1.79558e-13
-1.92184e-13
-1.98846e-13
-2.0365e-13
-2.11285e-13
-2.05287e-13
-2.13392e-13
-2.20419e-13
-2.24805e-13
-2.2541e-13
-2.30648e-13
-2.28082e-13
-2.23994e-13
-2.28722e-13
-2.4152e-13
-2.44231e-13
-2.46978e-13
-2.41462e-13
-2.41218e-13
-2.37476e-13
-2.41388e-13
-2.42531e-13
-2.47957e-13
-2.44126e-13
-2.40138e-13
-2.40106e-13
-2.3689e-13
-2.33512e-13
-2.28203e-13
-2.28401e-13
-2.23456e-13
-2.22525e-13
-2.2032e-13
-2.15525e-13
-2.11581e-13
-2.16313e-13
-2.08819e-13
-2.0268e-13
-1.94448e-13
-1.83929e-13
-1.86249e-13
-1.82906e-13
-1.76249e-13
-1.64201e-13
-1.57441e-13
-1.49744e-13
-1.38098e-13
-1.30026e-13
-1.27517e-13
-1.27491e-13
-1.26473e-13
-1.27542e-13
-1.19027e-13
-1.13717e-13
-1.03783e-13
-9.32391e-14
-8.3458e-14
-7.73048e-14
-7.41879e-14
-6.25923e-14
-5.49812e-14
-4.38972e-14
-4.20018e-14
-3.63596e-14
-3.03102e-14
-2.24376e-14
-1.13221e-14
-5.3371e-15
-1.69745e-14
-2.18236e-14
-2.28933e-14
-3.33639e-14
-2.80046e-14
-2.90668e-14
-2.26119e-14
-3.65498e-14
-4.61423e-14
-4.58067e-14
-5.3914e-14
-6.45654e-14
-7.44215e-14
-7.52013e-14
-8.5766e-14
-8.68801e-14
-9.28565e-14
-1.10012e-13
-1.26794e-13
-1.27302e-13
-1.37041e-13
-1.46342e-13
-1.54876e-13
-1.64432e-13
-1.67055e-13
-1.69941e-13
-1.74498e-13
-1.72017e-13
-1.69355e-13
-1.78005e-13
-1.78499e-13
-1.83792e-13
-1.86441e-13
-1.97094e-13
-1.96244e-13
-2.00081e-13
-2.08114e-13
-2.03389e-13
-2.08427e-13
-2.18937e-13
-2.2611e-13
-2.25603e-13
-2.32252e-13
-2.30433e-13
-2.27662e-13
-2.22656e-13
-2.34962e-13
-2.36445e-13
-2.40497e-13
-2.43469e-13
-2.47242e-13
-2.4217e-13
-2.44472e-13
-2.4106e-13
-2.40517e-13
-2.4217e-13
-2.43924e-13
-2.39126e-13
-2.39139e-13
-2.32824e-13
-2.28362e-13
-2.25471e-13
-2.22156e-13
-2.24205e-13
-2.26266e-13
-2.1908e-13
-2.15649e-13
-2.15595e-13
-2.09659e-13
-2.01467e-13
-1.98279e-13
-1.88011e-13
-1.81473e-13
-1.74018e-13
-1.75995e-13
-1.64572e-13
-1.54645e-13
-1.49241e-13
-1.39962e-13
-1.28428e-13
-1.24401e-13
-1.24667e-13
-1.28098e-13
-1.24941e-13
-1.20628e-13
-1.11883e-13
-1.01523e-13
-9.41884e-14
-8.40951e-14
-7.80524e-14
-7.73271e-14
-6.48583e-14
-5.38004e-14
-4.75244e-14
-4.15743e-14
-3.50228e-14
-3.09411e-14
-2.79286e-14
-1.72465e-14
-9.54794e-15
-2.08068e-14
-2.59943e-14
-1.88231e-14
-2.94521e-14
-3.2217e-14
-3.20589e-14
-3.19244e-14
-3.74573e-14
-4.68105e-14
-5.65224e-14
-5.64664e-14
-6.34316e-14
-7.06198e-14
-7.63311e-14
-8.53388e-14
-9.50187e-14
-9.92986e-14
-1.08233e-13
-1.14381e-13
-1.25785e-13
-1.42314e-13
-1.53266e-13
-1.54242e-13
-1.64274e-13
-1.612e-13
-1.72161e-13
-1.73503e-13
-1.68484e-13
-1.78823e-13
-1.77389e-13
-1.82555e-13
-1.89839e-13
-1.90791e-13
-1.93084e-13
-1.94313e-13
-2.02668e-13
-2.07553e-13
-2.07848e-13
-2.10064e-13
-2.16201e-13
-2.27922e-13
-2.29689e-13
-2.29295e-13
-2.29765e-13
-2.27701e-13
-2.19771e-13
-2.30349e-13
-2.32279e-13
-2.35839e-13
-2.4432e-13
-2.50275e-13
-2.4339e-13
-2.44129e-13
-2.42165e-13
-2.43032e-13
-2.44822e-13
-2.4471e-13
-2.37447e-13
-2.31794e-13
-2.32369e-13
-2.27183e-13
-2.21032e-13
-2.15628e-13
-2.24718e-13
-2.27065e-13
-2.28318e-13
-2.2041e-13
-2.18291e-13
-2.11706e-13
-1.95436e-13
-1.96934e-13
-1.86843e-13
-1.83111e-13
-1.73314e-13
-1.72701e-13
-1.68877e-13
-1.58426e-13
-1.46964e-13
-1.43844e-13
-1.36416e-13
-1.2459e-13
-1.21523e-13
-1.22462e-13
-1.21255e-13
-1.13658e-13
-1.11714e-13
-1.07445e-13
-9.92647e-14
-8.64491e-14
-8.19914e-14
-7.79856e-14
-6.4064e-14
-5.82349e-14
-5.23582e-14
-4.41304e-14
-3.7581e-14
-3.37418e-14
-2.82981e-14
-1.99355e-14
-8.29316e-15
-2.56919e-14
-2.83555e-14
-2.78294e-14
-3.1483e-14
-3.30541e-14
-3.77536e-14
-3.93847e-14
-4.44943e-14
-4.6994e-14
-5.05192e-14
-5.67848e-14
-6.66801e-14
-7.49496e-14
-7.53959e-14
-8.75824e-14
-9.30894e-14
-1.00581e-13
-1.08321e-13
-1.15672e-13
-1.30756e-13
-1.49218e-13
-1.54117e-13
-1.58363e-13
-1.66815e-13
-1.7313e-13
-1.72739e-13
-1.69229e-13
-1.69549e-13
-1.75558e-13
-1.80348e-13
-1.87423e-13
-1.88811e-13
-1.92408e-13
-1.96168e-13
-1.97894e-13
-2.02012e-13
-2.07683e-13
-2.10786e-13
-2.09925e-13
-2.19165e-13
-2.27433e-13
-2.2921e-13
-2.28237e-13
-2.29709e-13
-2.26722e-13
-2.20055e-13
-2.291e-13
-2.39706e-13
-2.40416e-13
-2.45639e-13
-2.4897e-13
-2.43783e-13
-2.42016e-13
-2.42152e-13
-2.43551e-13
-2.43305e-13
-2.44757e-13
-2.37247e-13
-2.37768e-13
-2.35761e-13
-2.30829e-13
-2.21691e-13
-2.24068e-13
-2.23818e-13
-2.14832e-13
-2.17256e-13
-2.21381e-13
-2.2379e-13
-2.12496e-13
-1.99826e-13
-2.01218e-13
-1.90259e-13
-1.80317e-13
-1.75303e-13
-1.70592e-13
-1.71402e-13
-1.6348e-13
-1.5089e-13
-1.38548e-13
-1.29448e-13
-1.24253e-13
-1.17552e-13
-1.23296e-13
-1.26513e-13
-1.17426e-13
-1.11292e-13
-1.06077e-13
-9.74097e-14
-9.11796e-14
-8.39186e-14
-7.49607e-14
-6.74549e-14
-5.74493e-14
-4.81283e-14
-4.43448e-14
-3.88938e-14
-4.04014e-14
-3.47971e-14
-2.39695e-14
-5.81217e-15
-2.5258e-14
-2.87319e-14
-3.07583e-14
-3.40553e-14
-3.26332e-14
-3.84715e-14
-4.69909e-14
-4.81029e-14
-4.47689e-14
-5.21374e-14
-6.89594e-14
-7.24486e-14
-8.19844e-14
-8.59491e-14
-9.28997e-14
-9.87332e-14
-9.97223e-14
-1.04462e-13
-1.14373e-13
-1.29144e-13
-1.50089e-13
-1.57334e-13
-1.52002e-13
-1.60479e-13
-1.70671e-13
-1.83642e-13
-1.76375e-13
-1.71002e-13
-1.75555e-13
-1.80406e-13
-1.86239e-13
-1.88942e-13
-1.96222e-13
-1.99151e-13
-2.03444e-13
-2.03095e-13
-2.0765e-13
-2.14395e-13
-2.13856e-13
-2.22819e-13
-2.20183e-13
-2.2738e-13
-2.27229e-13
-2.25021e-13
-2.26371e-13
-2.26425e-13
-2.31831e-13
-2.36404e-13
-2.37641e-13
-2.41991e-13
-2.47788e-13
-2.51102e-13
-2.48485e-13
-2.4253e-13
-2.40116e-13
-2.45222e-13
-2.40981e-13
-2.39645e-13
-2.34985e-13
-2.31407e-13
-2.26769e-13
-2.13652e-13
-2.18237e-13
-2.21085e-13
-2.29943e-13
-2.29495e-13
-2.25909e-13
-2.2343e-13
-2.14533e-13
-2.0742e-13
-1.97113e-13
-1.8488e-13
-1.8031e-13
-1.73457e-13
-1.75471e-13
-1.77484e-13
-1.63289e-13
-1.45208e-13
-1.36334e-13
-1.35795e-13
-1.32168e-13
-1.23559e-13
-1.21118e-13
-1.16531e-13
-1.15905e-13
-1.13525e-13
-1.09695e-13
-9.59984e-14
-9.39648e-14
-8.10096e-14
-7.69711e-14
-6.39124e-14
-5.69205e-14
-5.17763e-14
-4.96922e-14
-4.66574e-14
-4.23293e-14
-3.1596e-14
-1.94624e-14
-7.49107e-15
-3.06796e-14
-3.05847e-14
-3.87603e-14
-3.46715e-14
-3.42117e-14
-3.75046e-14
-4.94641e-14
-6.0713e-14
-5.9322e-14
-6.19851e-14
-6.44217e-14
-6.72747e-14
-6.86144e-14
-7.81942e-14
-9.44228e-14
-1.00014e-13
-1.0346e-13
-1.08071e-13
-1.15208e-13
-1.30989e-13
-1.51293e-13
-1.61084e-13
-1.63918e-13
-1.70903e-13
-1.72966e-13
-1.71818e-13
-1.70435e-13
-1.74451e-13
-1.81766e-13
-1.80972e-13
-1.89632e-13
-1.84829e-13
-1.91373e-13
-1.94488e-13
-1.99805e-13
-2.02604e-13
-2.10104e-13
-2.15511e-13
-2.17214e-13
-2.21817e-13
-2.19853e-13
-2.23041e-13
-2.25353e-13
-2.31371e-13
-2.37234e-13
-2.32953e-13
-2.31866e-13
-2.32674e-13
-2.34663e-13
-2.41393e-13
-2.49932e-13
-2.52978e-13
-2.51244e-13
-2.5019e-13
-2.38667e-13
-2.34352e-13
-2.32917e-13
-2.36582e-13
-2.39812e-13
-2.39998e-13
-2.32299e-13
-2.22589e-13
-2.15676e-13
-2.18102e-13
-2.22702e-13
-2.27019e-13
-2.29567e-13
-2.22512e-13
-2.14968e-13
-2.12444e-13
-2.01067e-13
-1.92932e-13
-1.73522e-13
-1.77786e-13
-1.75696e-13
-1.70467e-13
-1.61644e-13
-1.49939e-13
-1.37369e-13
-1.37372e-13
-1.31301e-13
-1.18927e-13
-1.20685e-13
-1.21697e-13
-1.14305e-13
-1.14082e-13
-1.10176e-13
-9.84318e-14
-9.51373e-14
-8.29978e-14
-7.33782e-14
-6.63269e-14
-5.51758e-14
-5.64637e-14
-5.22815e-14
-4.4389e-14
-3.89063e-14
-2.96112e-14
-1.88378e-14
-6.89771e-15
-3.61527e-14
-2.83736e-14
-3.452e-14
-4.31579e-14
-4.44257e-14
-4.43693e-14
-4.40822e-14
-4.90287e-14
-5.27832e-14
-6.49064e-14
-7.30561e-14
-7.14894e-14
-8.18319e-14
-8.63771e-14
-8.72022e-14
-9.38249e-14
-1.03205e-13
-1.16091e-13
-1.27056e-13
-1.37971e-13
-1.46012e-13
-1.54276e-13
-1.55516e-13
-1.62487e-13
-1.75922e-13
-1.75228e-13
-1.74226e-13
-1.70172e-13
-1.76106e-13
-1.82228e-13
-1.89785e-13
-1.90678e-13
-1.97709e-13
-2.02523e-13
-2.08351e-13
-2.10786e-13
-2.08461e-13
-2.1251e-13
-2.16027e-13
-2.14613e-13
-2.19403e-13
-2.32601e-13
-2.28548e-13
-2.25769e-13
-2.29691e-13
-2.33835e-13
-2.3746e-13
-2.32389e-13
-2.34981e-13
-2.43359e-13
-2.45613e-13
-2.56287e-13
-2.53635e-13
-2.43824e-13
-2.42917e-13
-2.40389e-13
-2.37193e-13
-2.30494e-13
-2.28681e-13
-2.33984e-13
-2.31849e-13
-2.29087e-13
-2.24985e-13
-2.20865e-13
-2.21912e-13
-2.21925e-13
-2.25833e-13
-2.24855e-13
-2.20373e-13
-2.12794e-13
-2.02315e-13
-1.90444e-13
-1.77027e-13
-1.78381e-13
-1.75528e-13
-1.66779e-13
-1.59589e-13
-1.54394e-13
-1.3622e-13
-1.32195e-13
-1.31995e-13
-1.27959e-13
-1.22525e-13
-1.21661e-13
-1.17792e-13
-1.08909e-13
-1.07425e-13
-1.00317e-13
-9.74279e-14
-8.41952e-14
-6.90659e-14
-6.51914e-14
-5.46101e-14
-5.65967e-14
-5.70413e-14
-4.75679e-14
-4.22745e-14
-2.82176e-14
-1.67359e-14
-7.27678e-15
-4.19813e-14
-3.64969e-14
-3.41705e-14
-4.54592e-14
-4.52549e-14
-3.83858e-14
-4.86714e-14
-6.22762e-14
-5.51832e-14
-6.49e-14
-7.18633e-14
-7.70959e-14
-8.01974e-14
-7.77683e-14
-7.95337e-14
-9.59024e-14
-1.13679e-13
-1.18387e-13
-1.23368e-13
-1.32497e-13
-1.45164e-13
-1.53091e-13
-1.67923e-13
-1.75423e-13
-1.71102e-13
-1.66126e-13
-1.70969e-13
-1.72822e-13
-1.82688e-13
-1.81912e-13
-1.90765e-13
-1.91628e-13
-1.96952e-13
-2.0117e-13
-2.06569e-13
-2.05038e-13
-2.06891e-13
-2.1416e-13
-2.16099e-13
-2.20983e-13
-2.20293e-13
-2.31741e-13
-2.41765e-13
-2.36285e-13
-2.27612e-13
-2.27262e-13
-2.31004e-13
-2.3426e-13
-2.34617e-13
-2.43024e-13
-2.45212e-13
-2.54705e-13
-2.52296e-13
-2.4179e-13
-2.49738e-13
-2.43516e-13
-2.38067e-13
-2.38141e-13
-2.30509e-13
-2.32389e-13
-2.28143e-13
-2.25384e-13
-2.24762e-13
-2.2326e-13
-2.28928e-13
-2.28751e-13
-2.26299e-13
-2.2542e-13
-2.18256e-13
-2.12989e-13
-2.02891e-13
-1.9084e-13
-1.8479e-13
-1.78178e-13
-1.76979e-13
-1.67308e-13
-1.60808e-13
-1.54419e-13
-1.39035e-13
-1.27298e-13
-1.32246e-13
-1.2687e-13
-1.25123e-13
-1.18639e-13
-1.16829e-13
-1.10318e-13
-1.0961e-13
-1.05609e-13
-9.50893e-14
-8.22053e-14
-7.36498e-14
-6.97144e-14
-5.83743e-14
-5.08494e-14
-5.16517e-14
-4.83051e-14
-4.40411e-14
-3.01304e-14
-2.0721e-14
-6.51658e-15
-4.69185e-14
-3.97464e-14
-3.95615e-14
-4.69836e-14
-4.1853e-14
-3.59563e-14
-3.9954e-14
-5.86409e-14
-6.59725e-14
-7.48455e-14
-7.46604e-14
-7.56014e-14
-8.01299e-14
-8.61046e-14
-8.65289e-14
-9.81268e-14
-1.09401e-13
-1.15422e-13
-1.22756e-13
-1.39609e-13
-1.52862e-13
-1.62163e-13
-1.62761e-13
-1.66356e-13
-1.66903e-13
-1.69203e-13
-1.66576e-13
-1.6942e-13
-1.76683e-13
-1.84227e-13
-1.90627e-13
-1.93713e-13
-1.90593e-13
-1.97936e-13
-2.10959e-13
-2.17321e-13
-2.0976e-13
-2.17877e-13
-2.17525e-13
-2.1948e-13
-2.29545e-13
-2.32897e-13
-2.37587e-13
-2.29225e-13
-2.28055e-13
-2.26304e-13
-2.30905e-13
-2.35636e-13
-2.37324e-13
-2.45199e-13
-2.49532e-13
-2.49361e-13
-2.46828e-13
-2.43504e-13
-2.42914e-13
-2.37207e-13
-2.37562e-13
-2.34616e-13
-2.33252e-13
-2.39807e-13
-2.31382e-13
-2.24352e-13
-2.25446e-13
-2.22717e-13
-2.24879e-13
-2.31766e-13
-2.32349e-13
-2.26301e-13
-2.18843e-13
-2.05767e-13
-2.00735e-13
-1.92425e-13
-1.82338e-13
-1.81222e-13
-1.77512e-13
-1.7351e-13
-1.56105e-13
-1.52312e-13
-1.44008e-13
-1.33269e-13
-1.33164e-13
-1.29854e-13
-1.2859e-13
-1.16908e-13
-1.15582e-13
-1.13121e-13
-1.06415e-13
-1.02892e-13
-9.96257e-14
-8.79337e-14
-7.62294e-14
-6.82572e-14
-6.12607e-14
-5.30374e-14
-5.56214e-14
-4.53704e-14
-4.34593e-14
-3.60324e-14
-2.42303e-14
-5.08665e-15
-4.41384e-14
-4.01912e-14
-4.8793e-14
-5.10543e-14
-4.42221e-14
-5.27442e-14
-5.48982e-14
-5.7617e-14
-5.70807e-14
-6.37174e-14
-7.1994e-14
-8.02594e-14
-8.50977e-14
-9.0061e-14
-9.16344e-14
-9.72273e-14
-1.03565e-13
-1.08384e-13
-1.2921e-13
-1.40788e-13
-1.56293e-13
-1.58737e-13
-1.60496e-13
-1.63262e-13
-1.65009e-13
-1.66452e-13
-1.694e-13
-1.72379e-13
-1.76217e-13
-1.83083e-13
-1.90894e-13
-1.94735e-13
-1.96962e-13
-1.99516e-13
-2.02363e-13
-2.11152e-13
-2.06988e-13
-2.14338e-13
-2.19809e-13
-2.25746e-13
-2.30558e-13
-2.33056e-13
-2.32503e-13
-2.27888e-13
-2.24728e-13
-2.29971e-13
-2.34984e-13
-2.39541e-13
-2.37368e-13
-2.44649e-13
-2.45682e-13
-2.48002e-13
-2.45263e-13
-2.45663e-13
-2.44283e-13
-2.40681e-13
-2.40955e-13
-2.31731e-13
-2.28617e-13
-2.31574e-13
-2.23271e-13
-2.30171e-13
-2.29346e-13
-2.28216e-13
-2.32538e-13
-2.31687e-13
-2.27762e-13
-2.2741e-13
-2.17559e-13
-2.05389e-13
-2.00386e-13
-1.92439e-13
-1.874e-13
-1.78666e-13
-1.7415e-13
-1.74155e-13
-1.62441e-13
-1.54869e-13
-1.43904e-13
-1.34091e-13
-1.28354e-13
-1.29105e-13
-1.28269e-13
-1.20772e-13
-1.14782e-13
-1.14957e-13
-1.0913e-13
-1.06757e-13
-1.03706e-13
-9.32181e-14
-7.83228e-14
-6.56751e-14
-6.16701e-14
-5.19084e-14
-5.47894e-14
-5.25719e-14
-4.26189e-14
-3.42676e-14
-2.65181e-14
-6.49623e-15
-4.73747e-14
-4.58908e-14
-4.64868e-14
-5.56316e-14
-4.46214e-14
-4.58334e-14
-5.46498e-14
-6.22649e-14
-6.43236e-14
-6.99853e-14
-7.53781e-14
-7.14263e-14
-8.50091e-14
-9.5008e-14
-9.94062e-14
-1.00118e-13
-1.0448e-13
-1.11445e-13
-1.29685e-13
-1.41826e-13
-1.54137e-13
-1.62353e-13
-1.62479e-13
-1.6112e-13
-1.58302e-13
-1.63128e-13
-1.65169e-13
-1.70171e-13
-1.73254e-13
-1.75302e-13
-1.8386e-13
-1.89906e-13
-1.98752e-13
-2.00542e-13
-2.04677e-13
-2.11978e-13
-2.1336e-13
-2.11276e-13
-2.12946e-13
-2.21219e-13
-2.34949e-13
-2.38233e-13
-2.37207e-13
-2.2948e-13
-2.28817e-13
-2.27696e-13
-2.33441e-13
-2.3289e-13
-2.34695e-13
-2.44014e-13
-2.38429e-13
-2.47804e-13
-2.48378e-13
-2.46451e-13
-2.34932e-13
-2.3839e-13
-2.40611e-13
-2.38661e-13
-2.37748e-13
-2.31635e-13
-2.19388e-13
-2.2803e-13
-2.33248e-13
-2.34634e-13
-2.31772e-13
-2.26e-13
-2.27515e-13
-2.24866e-13
-2.17892e-13
-2.08787e-13
-1.9958e-13
-1.91829e-13
-1.86319e-13
-1.78881e-13
-1.73633e-13
-1.71807e-13
-1.60096e-13
-1.54033e-13
-1.48478e-13
-1.39036e-13
-1.37651e-13
-1.27378e-13
-1.2422e-13
-1.21112e-13
-1.19e-13
-1.16572e-13
-1.13635e-13
-1.06554e-13
-1.04931e-13
-8.99307e-14
-7.83369e-14
-6.79727e-14
-6.48424e-14
-6.17831e-14
-5.92729e-14
-4.65904e-14
-4.28598e-14
-3.42634e-14
-2.46764e-14
-7.92322e-15
-5.52888e-14
-5.15018e-14
-5.00481e-14
-4.94262e-14
-5.03551e-14
-5.27351e-14
-5.84666e-14
-6.30784e-14
-6.12918e-14
-6.92449e-14
-7.27048e-14
-7.32849e-14
-8.52301e-14
-9.49271e-14
-1.00259e-13
-1.07154e-13
-1.09862e-13
-1.13871e-13
-1.2717e-13
-1.39487e-13
-1.52894e-13
-1.58155e-13
-1.60558e-13
-1.62812e-13
-1.63311e-13
-1.62621e-13
-1.60467e-13
-1.6621e-13
-1.71065e-13
-1.82695e-13
-1.89306e-13
-1.9432e-13
-1.95446e-13
-1.9779e-13
-2.00582e-13
-2.0305e-13
-2.07265e-13
-2.09202e-13
-2.13944e-13
-2.22335e-13
-2.33557e-13
-2.34329e-13
-2.36059e-13
-2.35173e-13
-2.34067e-13
-2.32117e-13
-2.25357e-13
-2.32242e-13
-2.36171e-13
-2.40797e-13
-2.41406e-13
-2.47268e-13
-2.44364e-13
-2.48775e-13
-2.36318e-13
-2.35742e-13
-2.29294e-13
-2.30494e-13
-2.36863e-13
-2.3382e-13
-2.30454e-13
-2.34042e-13
-2.37558e-13
-2.30633e-13
-2.29372e-13
-2.24987e-13
-2.25066e-13
-2.24673e-13
-2.15453e-13
-2.07381e-13
-2.04013e-13
-1.97458e-13
-1.83482e-13
-1.81121e-13
-1.70814e-13
-1.68833e-13
-1.64069e-13
-1.54676e-13
-1.51353e-13
-1.46877e-13
-1.36799e-13
-1.26304e-13
-1.25911e-13
-1.16324e-13
-1.13731e-13
-1.25197e-13
-1.18965e-13
-1.06684e-13
-1.06051e-13
-9.31153e-14
-8.16683e-14
-7.17831e-14
-6.42425e-14
-6.28555e-14
-5.70949e-14
-4.95733e-14
-4.63432e-14
-3.56328e-14
-2.21774e-14
-8.81695e-15
-4.97746e-14
-5.24964e-14
-5.61685e-14
-5.65169e-14
-5.78633e-14
-5.81436e-14
-5.9649e-14
-6.02388e-14
-6.24503e-14
-6.77812e-14
-7.4114e-14
-7.96878e-14
-8.50583e-14
-9.46675e-14
-9.30614e-14
-1.08346e-13
-1.16897e-13
-1.19785e-13
-1.28707e-13
-1.32797e-13
-1.48519e-13
-1.60362e-13
-1.59217e-13
-1.59362e-13
-1.60559e-13
-1.61694e-13
-1.6465e-13
-1.63376e-13
-1.71721e-13
-1.77524e-13
-1.80305e-13
-1.86616e-13
-1.99476e-13
-2.0447e-13
-2.00544e-13
-2.01801e-13
-2.05455e-13
-2.10754e-13
-2.13612e-13
-2.187e-13
-2.34476e-13
-2.32989e-13
-2.31642e-13
-2.3343e-13
-2.34352e-13
-2.32181e-13
-2.27348e-13
-2.32652e-13
-2.33905e-13
-2.37651e-13
-2.39856e-13
-2.41885e-13
-2.41889e-13
-2.46625e-13
-2.35737e-13
-2.37245e-13
-2.31063e-13
-2.31824e-13
-2.39305e-13
-2.3033e-13
-2.33732e-13
-2.27707e-13
-2.34233e-13
-2.34339e-13
-2.33462e-13
-2.27447e-13
-2.23815e-13
-2.21661e-13
-2.14392e-13
-2.05777e-13
-1.98614e-13
-1.94674e-13
-1.82568e-13
-1.85869e-13
-1.73057e-13
-1.73482e-13
-1.64309e-13
-1.54124e-13
-1.51814e-13
-1.42132e-13
-1.33697e-13
-1.28371e-13
-1.26042e-13
-1.18781e-13
-1.17842e-13
-1.18073e-13
-1.20491e-13
-1.14886e-13
-1.03799e-13
-9.29191e-14
-8.55439e-14
-7.66886e-14
-6.21755e-14
-6.15597e-14
-5.88475e-14
-5.48197e-14
-4.80942e-14
-3.82451e-14
-2.01312e-14
-4.24825e-15
-5.05244e-14
-5.69667e-14
-5.98911e-14
-5.86862e-14
-6.34033e-14
-5.99779e-14
-6.06829e-14
-6.0311e-14
-6.11501e-14
-7.39726e-14
-8.20829e-14
-8.10813e-14
-8.46495e-14
-9.15531e-14
-9.56595e-14
-1.00378e-13
-1.13936e-13
-1.27083e-13
-1.3148e-13
-1.38912e-13
-1.4684e-13
-1.60168e-13
-1.59404e-13
-1.60074e-13
-1.60989e-13
-1.62204e-13
-1.6319e-13
-1.67157e-13
-1.72119e-13
-1.75287e-13
-1.73981e-13
-1.84552e-13
-1.96749e-13
-2.07658e-13
-2.0166e-13
-2.04347e-13
-1.96149e-13
-1.99993e-13
-2.16122e-13
-2.24315e-13
-2.2981e-13
-2.28271e-13
-2.3048e-13
-2.32634e-13
-2.3394e-13
-2.34189e-13
-2.2762e-13
-2.33958e-13
-2.37718e-13
-2.37479e-13
-2.36728e-13
-2.41462e-13
-2.40547e-13
-2.45187e-13
-2.32763e-13
-2.31755e-13
-2.26603e-13
-2.30354e-13
-2.44477e-13
-2.28953e-13
-2.26972e-13
-2.28521e-13
-2.37229e-13
-2.35495e-13
-2.32417e-13
-2.24766e-13
-2.2588e-13
-2.19705e-13
-2.14777e-13
-2.00214e-13
-1.99078e-13
-1.92389e-13
-1.86507e-13
-1.86481e-13
-1.73501e-13
-1.70958e-13
-1.62863e-13
-1.5247e-13
-1.51978e-13
-1.51076e-13
-1.42316e-13
-1.30465e-13
-1.20599e-13
-1.21517e-13
-1.28341e-13
-1.2517e-13
-1.15238e-13
-1.12926e-13
-1.03156e-13
-8.89243e-14
-8.52736e-14
-8.17421e-14
-7.84378e-14
-6.22359e-14
-5.8809e-14
-5.62189e-14
-5.12717e-14
-3.65323e-14
-1.63662e-14
-3.38381e-15
-5.55166e-14
-6.22898e-14
-6.02702e-14
-6.17685e-14
-6.342e-14
-6.2611e-14
-6.3548e-14
-6.39566e-14
-6.74803e-14
-7.03916e-14
-7.61477e-14
-7.65105e-14
-8.84314e-14
-9.18665e-14
-9.99377e-14
-1.0887e-13
-1.20804e-13
-1.26389e-13
-1.27756e-13
-1.31356e-13
-1.48052e-13
-1.5932e-13
-1.57194e-13
-1.58382e-13
-1.51935e-13
-1.55068e-13
-1.61577e-13
-1.78453e-13
-1.80294e-13
-1.76975e-13
-1.78854e-13
-1.84559e-13
-1.8678e-13
-1.90289e-13
-2.01592e-13
-2.07973e-13
-2.07989e-13
-2.08324e-13
-2.21216e-13
-2.24173e-13
-2.27807e-13
-2.25402e-13
-2.26791e-13
-2.3213e-13
-2.32343e-13
-2.32479e-13
-2.29984e-13
-2.32005e-13
-2.36018e-13
-2.39489e-13
-2.3772e-13
-2.40194e-13
-2.37117e-13
-2.40962e-13
-2.34046e-13
-2.32376e-13
-2.37403e-13
-2.30337e-13
-2.332e-13
-2.23209e-13
-2.26374e-13
-2.31486e-13
-2.36493e-13
-2.32034e-13
-2.29804e-13
-2.24419e-13
-2.23887e-13
-2.16873e-13
-2.15033e-13
-2.0532e-13
-1.99909e-13
-1.86262e-13
-1.83678e-13
-1.84875e-13
-1.82469e-13
-1.76988e-13
-1.63747e-13
-1.55386e-13
-1.5534e-13
-1.44088e-13
-1.37738e-13
-1.31485e-13
-1.27544e-13
-1.30616e-13
-1.24539e-13
-1.28161e-13
-1.1725e-13
-1.10972e-13
-1.03067e-13
-9.25964e-14
-8.87297e-14
-8.22937e-14
-8.44663e-14
-6.77203e-14
-5.70096e-14
-4.74364e-14
-5.24941e-14
-4.28255e-14
-2.35363e-14
-6.86454e-15
-6.07e-14
-6.00249e-14
-5.71686e-14
-6.14101e-14
-6.57593e-14
-6.54983e-14
-6.39606e-14
-6.87721e-14
-7.07458e-14
-7.25576e-14
-7.97328e-14
-8.11181e-14
-8.26925e-14
-8.86912e-14
-9.97424e-14
-1.08187e-13
-1.10761e-13
-1.20582e-13
-1.30185e-13
-1.35163e-13
-1.49998e-13
-1.58051e-13
-1.58149e-13
-1.59946e-13
-1.58598e-13
-1.60862e-13
-1.58661e-13
-1.71939e-13
-1.76629e-13
-1.77269e-13
-1.72794e-13
-1.84908e-13
-1.94773e-13
-1.96805e-13
-2.03048e-13
-2.00821e-13
-2.02715e-13
-2.1033e-13
-2.2047e-13
-2.20263e-13
-2.27853e-13
-2.26694e-13
-2.34344e-13
-2.30412e-13
-2.24576e-13
-2.25786e-13
-2.31735e-13
-2.37357e-13
-2.32228e-13
-2.34795e-13
-2.40823e-13
-2.36693e-13
-2.33536e-13
-2.34887e-13
-2.29199e-13
-2.35446e-13
-2.41766e-13
-2.30782e-13
-2.23528e-13
-2.2357e-13