/*--------------------------------*- C++ -*----------------------------------*\
| =========                 |                                                 |
| \\      /  F ield         | OpenFOAM: The Open Source CFD Toolbox           |
|  \\    /   O peration     | Version:  v2012                                 |
|   \\  /    A nd           | Website:  www.openfoam.com                      |
|    \\/     M anipulation  |                                                 |
\*---------------------------------------------------------------------------*/
FoamFile
{
    version     2.0;
    format      ascii;
    class       volScalarField;
    location    "0";
    object      p;
}
// * * * * * * * * * * * * * * * * * * * * * * * * * * * * * * * * * * * * * //

dimensions      [0 2 -2 0 0 0 0];


internalField   nonuniform List<scalar> 
4000
(
-0.159294
0.0210932
0.0535412
0.122371
0.010235
-0.0326773
-0.0445534
0.0862751
0.029226
0.0518141
0.0483627
-0.0694683
-0.122958
0.00729045
0.015113
0.0124104
0.24557
0.229509
0.0436207
-0.0634694
-0.179688
-0.0551857
-0.0131624
0.0567123
0.0349029
-0.0575155
0.0235732
0.132105
0.188282
0.0715741
-0.0610521
-0.0620456
-0.0374916
-0.234809
-0.287812
-0.319345
-0.375305
-0.355299
-0.127665
-0.027823
0.050099
0.173609
0.0269964
-0.0485873
0.216581
0.272206
0.404297
0.217702
0.0561119
0.0791499
0.0715614
0.0507776
0.00564257
-0.0545782
0.0070988
0.0911931
0.0509891
0.0897293
0.00519566
0.0115077
-0.046486
-0.0156573
0.0264726
-0.00870316
0.00299293
0.012477
-0.0438972
-0.244931
-0.0664382
0.0138923
0.0532132
0.00556008
0.0159812
0.10412
0.131655
0.174382
0.0200404
-0.14349
-0.0894743
-0.272127
-0.364007
-0.207995
-0.108458
-0.0294264
0.0203792
0.165784
0.00316275
0.114072
0.0389383
0.0205697
-0.0014033
0.041022
-0.087628
-0.0641307
-0.078744
-0.168934
-0.276203
-0.380005
-0.255353
-0.0609659
-0.13859
-0.0822502
0.0820664
0.166728
0.0418031
-0.0363619
-0.0597515
0.0285808
0.119837
0.0721882
-0.0707591
-0.0342052
-0.0354318
0.0748762
-0.0335703
0.0310976
0.231462
0.101313
0.0132416
-0.0378402
-0.139373
-0.0364031
-0.00630297
0.0408797
-0.00650232
-0.0652723
0.137092
0.154516
0.137702
0.0593003
-0.0324474
-0.0749264
-0.00296132
-0.159781
-0.291598
-0.337014
-0.362807
-0.347517
-0.179416
-0.126043
0.050898
0.134656
0.07909
-0.00217737
0.200028
0.321893
0.383813
0.220398
0.0827899
0.0296992
0.0194816
-0.0140676
0.0467935
0.0253873
-0.0526902
0.0457253
0.069083
0.0976816
0.0201166
-0.0499108
-0.00793215
0.0623116
-0.0113616
-0.0175468
-0.00817155
0.00180914
-0.0550317
-0.11636
-0.112179
-0.0161802
0.0148079
0.0240955
0.0461852
0.115914
0.0941104
0.102868
0.0520809
-0.110904
-0.140223
-0.258048
-0.311021
-0.263236
-0.109061
0.00117911
0.000251713
0.148817
0.083039
0.044449
0.0227625
0.0569755
0.0340628
0.0553446
-0.02557
-0.101535
-0.158338
-0.226512
-0.285786
-0.324923
-0.314876
-0.0505903
-0.0949276
-0.0581896
0.0545539
0.10807
-0.00738188
0.00721787
-0.0539595
0.0609076
0.139404
0.0537275
-0.097018
-0.0267361
0.0850296
0.0228342
-0.126059
0.0112582
0.151105
0.128113
-0.0280751
-0.0931587
-0.0694888
0.0281257
-0.0283108
0.0585128
-0.00160614
0.0737759
0.0849706
0.132708
0.105984
0.0102803
0.0171654
-0.0418436
-0.0118032
-0.15921
-0.223235
-0.236073
-0.357882
-0.398392
-0.168314
-0.0175736
0.0165464
0.0771977
0.103299
-0.0319041
0.096886
0.263396
0.347495
0.242765
0.0560583
0.0544638
-0.00452538
-0.0739641
-0.0185775
-0.0340479
0.0323606
0.023608
0.0505905
0.0010292
0.0383958
0.0264368
0.0477485
0.0349748
0.0220332
0.007622
-0.0217511
0.0317122
-0.0632441
-0.0711559
-0.111915
-0.0314505
0.00823278
0.0463243
0.0791739
0.169329
0.103937
0.0173953
0.0280403
-0.0614339
-0.22588
-0.251462
-0.313538
-0.200677
-0.0640845
-0.00382387
0.0168197
0.0569761
0.0997
0.0920525
0.0675334
0.0565338
0.0494238
0.0310807
0.0165617
-0.0765159
-0.131585
-0.261083
-0.297328
-0.281635
-0.23131
-0.0808501
-0.117357
-0.0792359
0.0729517
0.134426
-0.0308867
-0.0366988
0.0777945
0.149022
0.0481882
-0.00724505
-0.0391893
0.0303431
0.130393
-0.0329176
-0.13162
0.0693177
0.0643968
0.0731379
-0.0376179
-0.0719162
-0.0893912
0.067403
0.0136981
-0.0157845
-0.00131171
0.007517
0.202397
0.134113
0.0931725
0.0589476
-0.0372481
-0.00870362
-0.047817
-0.0399705
-0.119863
-0.19767
-0.372535
-0.375753
-0.251815
-0.0506242
-0.0437968
0.0527448
0.0973552
0.0676285
0.181063
0.204318
0.181254
0.19728
-0.0348581
0.0553984
-0.00570036
-0.0587644
-0.0117889
-0.0540189
-0.00740542
0.00842628
0.0644526
-0.0172891
0.107537
0.0172535
0.0379206
0.0562814
0.0575715
-0.00684514
-0.0238429
0.00180053
-0.00782436
-0.11574
-0.131457
0.0233625
0.0170139
0.0705607
0.0691808
0.195185
0.13452
-0.0423027
0.005029
-0.092367
-0.180429
-0.17572
-0.232194
-0.175865
-0.0242879
-0.0178668
0.042458
0.0671862
0.114396
0.110858
0.137753
0.0859919
0.0445009
0.0803006
0.0467676
-0.0628851
-0.223197
-0.214892
-0.332313
-0.275759
-0.160111
-0.0379253
-0.0780127
-0.113377
0.0193886
0.134133
0.0447341
-0.00390438
0.0301706
0.0630566
0.109595
-0.00924545
-0.0554368
0.0726162
0.125202
-0.0312596
-0.16848
0.0313761
0.138305
0.149724
-0.0140291
-0.0476432
-0.0780894
0.0138769
0.0555072
-0.0262895
-0.046901
-0.0134235
0.185792
0.263353
0.148619
0.0500018
0.0341081
0.00495853
-0.0867639
-0.0568361
-0.102008
-0.19089
-0.258869
-0.313589
-0.229527
-0.117955
-0.0133138
0.0221035
-0.00216936
0.0721552
0.219705
0.159033
0.0709461
0.112958
0.00572949
0.0331226
-0.0566453
-0.113126
-0.046029
-0.0922625
-0.0857282
0.0417105
0.0358688
-0.0263344
0.0421034
0.142262
0.132049
0.00970894
0.0532802
0.0417669
-0.0571915
-0.0652628
-0.05484
-0.151271
-0.107289
-0.00311151
0.0167455
0.087989
0.0956724
0.222459
0.0596415
0.043719
0.0378317
-0.0778865
-0.147139
-0.111598
-0.226145
-0.155754
-0.00665259
0.0492181
0.0245616
0.0608085
0.0283353
0.0338921
0.205132
0.115696
0.0905428
0.0474419
0.0410744
-0.0849697
-0.228339
-0.239272
-0.233025
-0.23265
-0.142044
-0.0311288
-0.090612
-0.113197
0.00877803
0.0431033
0.019201
-0.020834
0.00812093
0.186656
0.0846672
-0.0393832
0.0485933
0.101042
0.0950422
-0.0250982
-0.11878
-0.0162092
0.0947172
0.0880786
0.0586244
-0.0700764
-0.0671538
-0.146315
-0.0872557
-0.00156443
0.0491796
0.0720269
0.225494
0.260629
0.153504
0.0608713
0.100178
0.0329995
-0.021406
-0.0650748
-0.217757
-0.110287
-0.235884
-0.344035
-0.187711
-0.0449446
0.0148265
-0.0386693
0.0196675
0.0803244
0.140421
0.113235
0.0731862
0.0763329
-0.0254493
-0.0182002
-0.0100648
-0.100048
-0.147322
-0.179848
-0.116419
0.0900576
0.0242483
-0.0164722
-0.00971028
0.101354
0.0711804
0.0169253
0.0434545
0.0727032
0.022734
-0.116724
-0.132322
-0.124897
-0.0721303
-0.00252089
0.0115666
0.0596799
0.0979021
0.205984
0.155014
0.0137714
0.0584685
0.0314362
-0.0719778
-0.138552
-0.14903
-0.162398
-0.0171949
0.0271747
0.0768886
0.0647863
0.00552658
0.0732596
0.236058
0.10765
0.0766626
0.0975598
0.0696796
-0.0798437
-0.24274
-0.300759
-0.265892
-0.187543
-0.124124
-0.0271085
-0.0521836
-0.0461083
-0.0742485
-0.00168445
0.0736175
0.0407335
0.0108287
0.0811155
0.0489203
0.0516873
0.0853347
0.0806199
0.0218651
0.0428587
-0.0805253
-0.103402
0.0974979
0.085922
-0.0340872
-0.0458273
-0.138788
-0.161002
-0.116471
-0.00147317
-2.51313e-05
-0.07977
0.187161
0.378237
0.188844
0.158472
0.166635
-0.00991251
-0.0665786
-0.136486
-0.166679
-0.0591103
-0.285661
-0.276783
-0.113917
-0.0301998
0.076654
0.0317782
0.0138635
0.0719022
0.0854012
-0.00494561
-0.0043359
0.0914297
0.0117387
0.0076908
-0.0214409
-0.137636
-0.131766
-0.198541
-0.170693
-0.00880393
0.0181954
-0.0176264
0.0428093
0.0530627
0.0388032
0.0379161
0.0856933
0.112072
-0.0392438
-0.156838
-0.168711
-0.0659858
-0.0747713
-0.00642641
0.00849504
0.0577269
0.0988441
0.154982
0.17041
0.0641688
0.0135831
0.0594026
-0.0836473
-0.126687
-0.145705
-0.154538
0.028892
0.0752023
0.101659
0.0253322
0.0302774
0.0894264
0.20049
0.113948
0.091777
0.137876
0.0744174
-0.0846832
-0.200859
-0.186822
-0.212001
-0.161781
-0.0967086
-0.00553411
-0.0418985
-0.0612236
-0.126491
0.00515456
0.0387117
0.0705072
0.0999651
0.107245
-0.0200784
-0.0219493
0.0106231
0.146538
0.115938
-0.0432642
-0.0152531
-0.0584429
0.04202
0.0366471
-0.0565373
-0.0215766
-0.0751086
-0.227467
-0.181071
-0.110092
0.0147392
0.0130589
0.180392
0.249636
0.176554
0.150253
0.125707
0.0678015
-0.0619334
-0.0234512
-0.0726356
-0.0929552
-0.238074
-0.137821
-0.0752714
0.0189675
0.14431
0.136399
-0.00871786
0.0488832
0.0815275
0.0207296
-0.0916869
-0.00463057
-0.0412201
0.00224275
-0.0584148
-0.292613
-0.197499
-0.155858
-0.119161
0.038906
0.0212805
-0.0108441
0.0568364
0.0289247
0.0550184
0.0972369
0.10796
0.102265
0.0572774
-0.122501
-0.205
-0.100406
-0.055544
-0.0388799
0.0431098
0.0524396
0.041927
0.108728
0.171203
0.121592
0.00682425
0.0376144
-0.0832044
-0.121287
-0.10295
-0.117642
0.0299722
0.0991454
0.142697
0.141216
-0.0336357
0.0870868
0.137678
0.079612
0.10506
0.168725
0.034901
-0.0555134
-0.117389
-0.101946
-0.156326
-0.103374
-0.0877755
-0.0245483
-0.0406729
-0.131794
-0.10976
-0.0360817
0.0787164
0.0271753
0.113944
0.133771
0.0338589
0.0354993
0.0890411
0.0476521
0.14743
-0.00216494
-0.070881
-0.0642215
-0.04124
-0.0275996
-0.0516837
0.0239517
-0.0880492
-0.134784
-0.217509
-0.197776
-0.0968544
0.0493171
0.154196
0.203881
0.196454
0.154312
0.050996
0.0181922
0.0430314
0.122437
0.0496191
-0.123734
-0.175325
-0.0650692
-0.0414178
-0.127469
0.142872
0.272496
0.084027
-0.00627145
0.0764209
-0.0211857
-0.113462
-0.0313484
0.058964
-0.0454375
-0.175578
-0.25659
-0.207107
-0.281829
-0.0630761
0.0223635
-0.000703731
0.0218233
0.0331592
0.132997
0.110312
0.189582
0.131033
0.113932
0.0428387
-0.120236
-0.203876
-0.185462
-0.047206
-0.00594703
0.0571281
0.0469082
0.0421641
0.173835
0.169397
0.0913336
-0.0520332
-0.0432085
-0.0214294
-0.0661008
-0.145046
-0.0728032
0.0249745
0.147135
0.0590148
0.125858
0.0730016
0.0386142
0.114919
0.153382
0.106817
0.179321
0.0387328
-0.0454994
-0.0790377
-0.0836018
-0.0412115
-0.0919581
-0.0363754
-0.044128
-0.0945937
-0.148205
-0.141445
0.00189044
0.0476451
0.0296219
0.0896636
0.185941
0.0605906
-0.00530008
0.0671825
0.107575
0.145796
-0.0762753
-0.119378
-0.138963
-0.00864469
-0.088731
-0.0654252
-0.0739097
-0.131612
-0.0585217
-0.122589
-0.237908
-0.159077
-0.0784678
0.0912115
0.122396
0.168677
0.146698
0.094374
0.0929177
0.0855201
0.273839
0.0735247
0.00299057
-0.134401
-0.157559
-0.00326527
-0.0329023
0.184064
0.166535
0.145129
0.0577853
0.0129512
0.0165329
-0.126591
-0.0309623
0.00155718
-0.173206
-0.253162
-0.201327
-0.285262
-0.198257
-0.0936093
0.0557256
0.0277139
0.111522
0.0157294
0.0826462
0.068448
0.180792
0.218426
0.13766
0.0187318
-0.189079
-0.21306
-0.166175
-0.0221068
0.00901718
-0.00492087
-0.00734618
0.0302096
0.184002
0.149343
0.0894577
-0.0195877
-0.00609622
-0.0561828
-0.107667
-0.089144
-0.0639903
-0.0374752
0.122189
0.159125
0.150588
0.060917
0.00618796
0.122443
0.128318
0.113803
0.0936534
0.0870442
0.0093067
-0.0299949
0.05577
0.0189179
-0.0894964
-0.0154841
0.0110759
-0.109396
-0.131424
-0.120133
-0.0451729
0.0126623
0.0232998
0.000434332
0.167672
0.171713
0.155005
0.0577357
0.0940969
0.0232251
-0.0361127
0.0135779
-0.185803
-0.122924
-0.133187
-0.0734268
-0.128761
-0.193711
-0.189364
-0.148852
-0.181555
-0.166025
-0.0848017
0.0949834
0.0355526
0.0623924
0.171112
0.12827
0.196438
0.269292
0.261511
0.0802965
-0.0774654
-0.105982
-0.0482416
-0.0436792
0.0985816
0.164507
0.116108
0.123648
0.143611
0.0643736
-0.0434526
-0.146341
-0.0863037
-0.0870483
-0.187492
-0.25481
-0.258952
-0.22069
-0.133431
-0.0785211
0.0491924
0.00429137
0.0667328
0.01092
0.0882145
0.141455
0.174755
0.180883
0.0217369
0.0401426
-0.0556666
-0.157778
-0.14902
-0.0642984
-0.0102764
-0.0836875
-0.00348723
0.0732858
0.198943
0.266112
0.118279
-0.0355913
-0.0927781
-0.109301
-0.157401
-0.0913282
-0.0711462
-0.0760821
0.0399651
0.157158
0.173998
0.10222
-0.0614839
0.102546
0.182153
0.132786
0.00146071
0.0854423
0.0006068
-0.00343594
0.124847
0.0350506
-0.170715
-0.00582637
-0.0155685
-0.149114
-0.143462
-0.115552
-0.127463
-0.0735182
0.0130426
0.0289745
0.161227
0.212997
0.107049
0.0556647
0.120623
-0.0240673
0.0141054
-0.083521
-0.0941709
-0.149324
-0.168593
-0.155807
-0.0943879
-0.192914
-0.248127
-0.245998
-0.128876
-0.11231
-0.104029
0.0490478
-0.0129494
0.12431
0.109093
0.238111
0.255669
0.288597
0.158665
0.0764732
-0.0111052
-0.0908035
-0.111551
-0.0489972
0.0878942
0.206481
0.117102
0.0934158
0.125801
0.0608497
-0.0397678
-0.140184
-0.085848
-0.10988
-0.20806
-0.228016
-0.325381
-0.268981
-0.0683059
-0.0733576
0.0713593
0.0543726
0.0572477
0.0185689
0.0470723
0.115836
0.164137
0.174976
0.0454787
-0.117279
0.0320573
-0.062784
-0.0415425
-0.0628457
-0.0676492
-0.00224571
-0.0352831
0.0164702
0.176849
0.25056
0.137956
-0.0446567
-0.12705
-0.111701
-0.202188
-0.206373
-0.0448691
-0.0921777
-0.0131471
0.184703
0.105686
0.0127135
0.0392053
0.151495
0.0857928
0.115491
0.0507166
0.069343
0.00186852
0.0662988
0.0671263
0.0331344
-0.0621675
0.00318234
-0.0510108
-0.208439
-0.236633
-0.139376
-0.14133
-0.106161
0.0289928
0.00993176
0.124464
0.212945
0.192805
0.166743
0.0627473
0.104808
-0.00535248
-0.114398
-0.106316
-0.15511
-0.164987
-0.0886467
-0.151107
-0.214044
-0.226715
-0.258446
-0.154626
-0.0870952
-0.026732
-0.0288394
0.000287323
0.0570793
0.198597
0.305497
0.193167
0.259852
0.170191
0.160349
0.00891095
-0.149477
-0.0700548
-0.00567198
0.136959
0.141385
0.189313
0.10357
0.0651858
0.0139773
0.00610199
-0.151271
-0.0496037
-0.178059
-0.269781
-0.286851
-0.284223
-0.213769
-0.0777125
-0.0153346
0.0988656
0.093979
0.0870159
-0.0555525
0.0090964
0.0580946
0.108187
0.130541
0.0613551
0.0166183
-0.0617917
-0.0751008
0.0892971
-0.00566609
-0.104333
0.0391415
-0.135704
-0.115203
0.164083
0.255425
0.0538834
-0.0351444
-0.0947738
-0.0505146
-0.276947
-0.22869
-0.0839204
-0.118463
-0.0880376
0.0731923
0.131289
0.0756919
0.0742021
0.125687
-0.0349041
0.0771702
0.00667647
0.157913
0.1008
0.106995
0.0529356
-0.0221036
-0.0145941
0.00814221
-0.0337054
-0.271081
-0.240059
-0.182126
-0.188572
-0.133123
0.0690792
0.0937117
0.0911239
0.193775
0.210828
0.197102
0.124298
-0.0332348
-0.00577938
-0.0623559
-0.0438851
-0.0297471
-0.089592
-0.0907165
-0.226044
-0.358965
-0.232194
-0.205206
-0.122538
-0.043018
0.00954625
0.0885004
0.0430869
0.0934888
0.0802696
0.212604
0.282416
0.269872
0.222271
0.0868466
0.00453863
-0.172005
-0.103119
0.0901719
0.120437
0.120022
0.166582
0.117763
0.037133
0.0340867
0.0188505
-0.114673
-0.143708
-0.224679
-0.292506
-0.369468
-0.322126
-0.148738
-0.0269362
-0.0159205
0.078704
0.0734992
0.0784185
-0.0241688
-0.0494583
-0.00338282
0.145216
0.0972233
0.0942562
0.0541129
-0.00681336
0.0373121
0.159901
-0.0264669
-0.102739
0.0149252
-0.0659985
-0.0432391
0.184748
0.205596
0.0538726
0.00532469
-0.102729
-0.202419
-0.17415
-0.215894
-0.104926
-0.0222661
-0.0161082
-0.00930856
0.0582077
0.0658442
0.10635
0.0666554
-0.084102
-0.000596681
0.213534
0.16535
0.0563315
0.0811898
0.07394
-0.0325566
0.0150399
-0.0114559
-0.00285852
-0.29265
-0.291097
-0.212137
-0.193373
-0.195854
0.0123005
0.106356
0.18104
0.256454
0.27059
0.10553
0.00392053
0.0645467
0.0870693
0.00606296
-0.13586
-0.0958507
-0.0880958
-0.131963
-0.165423
-0.256698
-0.187438
-0.135887
0.000796985
-0.106667
0.00102267
0.099603
0.11127
0.0582788
0.136698
0.212177
0.24568
0.241119
0.222646
0.116776
-0.0870504
-0.210833
0.0402035
0.0710599
0.0293671
0.0254664
0.248638
0.131708
0.0750228
-0.0181654
-0.120088
-0.175707
-0.0938208
-0.225805
-0.31352
-0.270114
-0.140898
-0.191377
-0.0788967
0.0452302
0.00236473
0.0978796
-0.00575545
-0.105364
-0.110832
-0.0683362
0.0812119
0.137
0.114821
0.0612548
0.0318388
0.129249
0.276955
-0.000447597
-0.192913
-0.0496136
-0.0651868
0.094555
0.211737
0.167555
0.0930846
-0.0257063
-0.175478
-0.132107
-0.169864
-0.265174
-0.177536
0.00373052
0.013983
-0.064515
-0.0200833
0.0991363
0.0415439
0.0922767
0.00144368
0.023975
0.205527
0.209226
0.0872173
0.0933445
-0.0131059
0.0314199
0.0762713
-0.0186384
-0.0470382
-0.239703
-0.227371
-0.29513
-0.21371
-0.109009
0.0157112
0.118101
0.179944
0.143992
0.25658
0.195316
0.160207
0.0958869
-0.00398356
-0.0417319
-0.105471
-0.0532527
-0.00477892
-0.0456188
-0.0663691
-0.295831
-0.224529
-0.203507
-0.102824
-0.052057
0.0417339
0.0696629
0.160344
0.126186
0.0855922
0.13133
0.239712
0.257597
0.185077
0.0948207
-0.102175
-0.13899
-0.0837248
0.024051
0.0376772
0.154794
0.189346
0.0962001
0.0980635
0.0551121
-0.130503
-0.171208
-0.110181
-0.243326
-0.28473
-0.212336
-0.195868
-0.176206
-0.133715
0.0685305
0.0738194
0.138882
0.0711531
-0.176706
-0.17908
-0.113347
0.0607917
0.101773
0.18744
0.137189
0.018045
0.165536
0.307814
0.059057
-0.20719
-0.10964
0.0535873
0.140663
0.197186
0.173004
0.0563508
-0.0245896
-0.194248
-0.102729
-0.161844
-0.225815
-0.209151
-0.0981304
0.0147251
-0.052997
-0.0419997
0.0710116
-0.0181741
0.0655163
0.0294262
0.0237898
0.160929
0.146425
0.12149
0.129162
-0.00380521
0.0281807
0.0763567
-0.0159637
0.0464678
-0.230361
-0.294817
-0.219206
-0.204111
-0.0778076
0.0708347
0.167464
0.145767
0.120903
0.190712
0.159571
0.201697
0.218365
0.0428152
-0.0258852
-0.145252
-0.0785527
-0.0241345
-0.0198952
-0.0840476
-0.146992
-0.146694
-0.183817
-0.14587
0.0061886
-0.036986
0.127564
0.249299
0.0764194
0.152644
0.164173
0.17559
0.20361
0.23557
0.100234
-0.0338813
-0.179026
-0.142448
-0.0455293
0.142366
0.181388
0.11572
0.131387
0.0198716
-0.0923519
-0.131704
-0.116518
-0.0707115
-0.260992
-0.214898
-0.302086
-0.0805659
-0.20358
-0.0894583
0.0491904
0.0475618
0.168213
0.0311982
-0.103013
-0.130367
-0.150713
-0.000818506
0.135666
0.149139
0.159681
0.060888
0.139954
0.267024
0.097922
-0.137584
-0.110403
0.0572973
0.150255
0.195928
0.166686
-0.0181555
-0.0850627
-0.175675
-0.11086
-0.236247
-0.242307
-0.0802256
-0.21753
-0.0639541
-0.148091
-0.0263994
-0.000155461
0.0154987
0.010772
-0.0330285
0.0673476
0.167095
0.144469
0.0568801
0.156586
0.0231667
0.0189547
0.111036
0.00678417
-0.034909
-0.319287
-0.234153
-0.205131
-0.251459
-0.0984179
0.0244073
0.0910947
0.13478
0.154639
0.164229
0.0753403
0.125779
0.213551
0.123065
0.0104656
-0.0911905
-0.0700545
-0.000670486
-0.0347158
0.0182775
-0.133671
-0.133021
-0.166344
-0.11173
-0.0454711
0.031768
0.0899727
0.19878
0.130355
0.202003
0.117268
0.0889005
0.100382
0.204122
0.0634098
-0.0603295
-0.13689
-0.0724673
-0.00788715
0.130392
0.121596
-0.00646661
0.127588
0.0395069
-0.0901569
-0.195332
-0.0743515
-0.0654044
-0.148425
-0.143805
-0.267426
-0.13015
-0.155584
-0.139296
0.0540549
0.0551244
0.138609
0.0365021
-0.109159
-0.0139762
-0.139645
-0.0502412
0.181293
0.0940043
0.119263
0.134057
0.126208
0.15295
0.0304831
-0.0298008
0.0091846
0.114528
0.140666
0.175982
0.0956404
-0.0566447
-0.170882
-0.166725
-0.109793
-0.145099
-0.189024
-0.125044
-0.165709
-0.17381
-0.158588
-0.0235134
0.00684753
-0.0265273
-0.006714
-0.0187612
0.0140767
0.114205
0.138882
0.0999596
0.0633688
0.12613
0.0432036
0.0529197
0.0999286
0.02156
-0.253244
-0.193478
-0.199417
-0.210932
-0.087874
0.020399
0.124834
0.106946
0.137333
0.109496
0.0890264
0.127811
0.165622
0.106654
0.0532432
-0.0401637
-0.115792
-0.0496485
-0.014512
0.0701541
0.0020267
-0.109653
-0.128219
-0.184559
-0.101545
-0.00803016
0.109557
0.194825
0.115335
0.170744
0.12599
0.0709298
0.17977
0.140628
-0.0498496
-0.0329328
-0.108399
-0.05652
0.0573007
0.0119068
0.0640923
-0.0477223
0.0726355
0.0304631
-0.0334997
-0.147823
-0.150541
-0.0278105
-0.140978
-0.186241
-0.259025
-0.127978
-0.00350307
-0.0439416
-0.00236162
0.0857683
0.0478549
0.0259158
-0.0253069
0.0550854
-0.10008
-0.0550192
0.0586304
0.170822
0.081501
0.0181409
0.0941816
0.105038
0.0820141
0.00148186
0.0261261
0.0268482
0.216739
0.200784
0.0966164
-0.123766
-0.18507
-0.0959919
-0.00956546
-0.0848593
-0.27222
-0.246894
-0.0932247
-0.0300699
-0.147239
-0.122242
-0.0636628
0.0600491
0.0258102
0.024015
-0.0916533
-0.01631
0.100286
0.0926666
0.115672
0.183901
0.00360989
0.085238
0.199937
0.119673
-0.187389
-0.190765
-0.135381
-0.162104
-0.111611
0.0148652
0.0478386
0.0866281
0.149337
0.113103
0.0915982
0.0821456
0.179837
0.129038
-0.00211082
-0.122756
-0.00462594
0.0548756
0.0104636
0.00841446
-0.0603805
-0.130061
-0.0785455
-0.0829246
-0.127241
-0.0225319
0.0728272
0.141129
0.178224
0.0735605
0.0932107
0.0909931
0.103616
0.0816838
0.0663381
0.00979039
-0.16407
-0.0736906
0.0985782
0.0855707
0.0649413
0.00914169
-0.0371379
0.0729671
-0.0867372
-0.0621295
-0.068052
-0.0811031
-0.0782242
-0.150307
-0.221854
-0.0744988
0.0400275
-0.0033384
0.0293149
0.078925
0.0495177
0.0155884
0.00227899
0.0159409
-0.0672712
0.0161732
-0.048463
0.115367
0.0365216
0.0531196
0.0157322
0.0284134
0.0855638
0.0759016
0.0502963
0.0626455
0.13547
0.197471
0.0376174
-0.0591665
-0.101533
-0.0303553
-0.0534274
-0.173147
-0.153556
-0.136092
-0.121926
-0.00303993
-0.0768267
-0.120562
-0.0655443
0.105463
0.0486838
-0.064458
-0.0921838
-0.11861
0.0500962
0.137804
0.0863657
0.0659506
0.010109
0.200929
0.228926
0.0698945
-0.0991114
-0.073569
-0.110146
-0.113146
-0.1493
-0.0246141
0.0633483
0.104778
0.154226
0.10039
0.0833674
0.167452
0.0481244
0.0657453
-0.00342068
-0.0776577
-0.0326134
0.0100381
0.0774337
0.0993879
-0.0238363
-0.117247
-0.0970486
-0.13001
-0.0617954
-0.0452417
0.000764895
0.0540628
0.222807
0.146931
0.0701418
0.000528678
0.0715193
0.0678055
0.00967078
0.0040825
-0.0247108
-0.0139045
0.0786294
-0.0705713
0.0340041
-0.0194596
0.0442579
0.143833
-0.00179271
0.0173923
-0.0455487
-0.0176949
-0.120861
-0.149607
-0.109999
-0.016016
0.160929
-0.0463333
0.00981856
0.0411759
0.0734389
-0.0646745
-0.103751
0.0542536
0.0201654
-0.0066236
-0.0651755
0.0109788
0.0932435
-0.0743494
-0.0527688
0.0429493
0.0416258
0.169352
-0.0743235
0.0804984
0.215211
0.153399
0.140626
0.0256155
-0.062959
-0.0690306
-0.0236783
-0.121951
-0.123533
-0.145314
-0.0446049
0.00328203
-0.000195858
-0.0595084
-0.0200667
-0.0155784
0.0272152
-0.0954329
-0.105726
-0.112529
-0.116202
0.0870011
0.135791
0.114648
0.025376
0.212431
0.209189
0.0502069
-0.0460358
-0.0809319
-0.0627233
-0.0813833
-0.155605
-0.0295435
0.112758
0.146546
0.160592
0.100727
0.0902998
0.188975
-0.00999252
0.115835
0.00464113
-0.107949
0.0250668
0.0636816
0.103285
0.0916148
-0.04923
-0.14479
-0.0897763
-0.0665192
-0.0376879
0.030813
0.0225375
-0.024088
0.175673
0.0616022
0.0274986
-0.0372289
-0.0060968
-0.0263554
0.119991
0.0676636
-0.146527
-0.0951399
-0.0493167
-0.0236816
0.0737967
0.0132805
-0.00694737
0.182925
0.123808
0.034763
0.0656684
-0.0144008
-0.0821007
-0.034717
-0.0161187
0.0220506
0.235421
0.0506644
0.0214619
0.0867401
0.0870719
-0.0891075
-0.0455211
0.000620519
-0.0936097
-0.0149435
-0.136128
-0.123503
-0.0506884
-0.0144644
0.00293948
-0.0493148
-0.038718
0.10471
0.00543173
0.0992606
0.211664
0.0843696
0.0866239
0.119299
0.107466
0.00769835
-0.0729488
-0.067491
-0.0949309
-0.13569
-0.0455023
0.00569064
0.0152164
-0.0224393
-0.0358593
0.0290829
0.0119693
-0.00801781
-0.144181
-0.10983
-0.137512
0.0339243
0.144328
0.115369
0.0346193
0.205544
0.276155
0.0196387
-0.0180025
-0.0383111
-0.00386765
-0.123382
-0.0613033
0.0397639
0.0283036
0.0990992
0.128684
0.0835657
0.0832513
0.115184
0.117043
-0.0248467
-0.0141317
0.0566035
0.0609779
0.0563036
0.0810476
0.182021
-0.0771533
-0.0820123
-0.0871341
-0.0239126
-0.0221341
0.000483745
0.0803645
0.0750109
0.172074
-0.03757
0.0936097
0.0297204
-0.0118646
-0.0727194
-0.0311002
-0.0170661
-0.154823
-0.153515
0.013258
0.000243637
0.0140703
0.0858807
-0.0444372
0.162092
0.225298
0.0778864
0.00674995
0.0150694
-0.101605
0.0202269
0.220386
0.127962
0.189687
0.100841
0.0775265
0.0922088
0.185828
-0.0642594
-0.13836
-0.0371388
-0.119171
-0.0159267
-0.107365
-0.212163
-0.106764
-0.106156
0.004751
-0.0828474
-0.117463
-0.0818917
0.0834266
0.20585
0.149173
0.0784995
0.168928
0.142806
0.0966688
0.105463
0.0657597
-0.0803204
-0.179633
-0.189551
0.0574853
0.10698
0.0249949
-0.0188032
-0.00149465
0.0576979
-0.00590223
-0.0399394
-0.169488
-0.0579545
-0.0924375
0.0845789
0.120383
0.155996
0.118086
0.147944
0.260341
0.076698
0.00470739
0.0361731
-0.00702614
-0.0446666
0.017985
0.0627909
0.0754665
0.0499243
0.105277
0.0405908
0.0520821
0.22703
0.0886799
-0.0115731
-0.0258776
0.131931
0.116098
0.119853
0.0527345
0.147061
-0.0763022
-0.128611
-0.0795101
0.00204384
0.0736732
0.081054
0.0651829
0.0288544
0.143786
0.000256624
0.0217904
-0.0638905
-0.0277333
-0.00556357
-0.0571615
-0.0544771
-0.162469
-0.13275
-0.0623808
-0.089728
0.0134475
0.0821046
0.0518465
0.170472
0.187688
0.193785
0.102315
-0.0242142
-0.0292745
0.0731275
0.201151
0.115912
0.194321
0.168045
0.20582
0.124121
0.0746775
-0.0320073
-0.035336
-0.123171
-0.129907
-0.0951406
-0.163987
-0.151779
-0.0940429
-0.0816285
-0.12077
-0.14603
-0.0771928
-0.117022
0.0317498
0.0961717
0.146579
0.166187
0.167696
0.194886
0.186151
0.106878
-0.0268803
-0.033069
-0.220583
-0.111789
0.119608
0.13712
0.0447964
-0.00629163
-0.040589
0.0667237
0.0819109
-0.0529811
-0.0386819
-0.0685463
-0.133502
0.00838007
0.12948
0.147391
0.122049
0.155745
0.172197
0.0663843
0.0242984
0.0948708
0.0411023
-0.0376196
0.0932077
0.044037
0.0574194
0.0804305
0.0432491
0.08129
-0.0286403
0.193242
0.194985
-0.0525525
-0.0702111
0.102004
0.121313
0.107397
0.0363631
-0.0063134
0.0170821
0.0250241
-0.0627627
-0.0264315
0.0619568
-0.0129656
0.0492364
0.0753684
0.163833
-0.00712701
-0.0362532
-0.0325726
-0.0557234
-0.0373494
-0.192302
-0.176663
-0.12156
-0.117057
-0.133804
-0.126923
-0.00361216
0.0862599
0.0764857
0.175812
0.224174
0.23238
0.0933767
0.0123808
-0.060091
0.159347
0.307476
0.0258187
0.19021
0.166658
0.243985
0.196576
0.0545618
0.0482888
-0.0145827
-0.109229
-0.121456
-0.097368
-0.121126
-0.256715
-0.168261
-0.0865623
-0.0355311
-0.0991467
-0.0823987
-0.116531
-0.0313116
0.0470044
0.274321
0.276853
0.158361
0.211235
0.201122
0.145253
0.0146795
0.00412967
-0.207108
-0.118397
0.123785
0.221172
0.0920081
0.061839
-0.0456228
0.0839858
0.0762075
-0.00903889
-0.123501
-0.132869
-0.121543
0.0480033
0.103883
0.119776
0.116163
0.184576
0.210408
0.0817638
0.142839
0.0981047
0.0831718
0.0490586
0.0323937
0.0259075
0.0839466
0.137001
-0.00424524
-0.0066581
0.021565
0.165292
0.103033
-0.0643834
-0.0391087
0.036402
0.132846
0.180515
0.0849295
-0.0584958
0.0874655
0.0688169
0.00951687
-0.0453728
-0.0411954
-0.0327859
0.0167633
0.0769735
0.136428
0.00417794
-0.0997541
-0.0834935
-0.117262
-0.108244
-0.246215
-0.191411
-0.0950756
-0.137839
-0.133116
-0.0811148
-0.0642466
0.135281
0.0957119
0.100354
0.271807
0.229415
0.108455
0.0760294
0.0455091
0.0935814
0.243259
0.119611
0.150684
0.221618
0.262075
0.138229
0.0979213
0.0549513
0.0245578
-0.0247091
-0.0958641
-0.0782443
-0.0803243
-0.21662
-0.247726
-0.194183
-0.129793
-0.0888241
-0.142901
-0.11284
0.036338
0.119055
0.189715
0.204543
0.200005
0.224124
0.304816
0.166485
-0.0412641
-0.080805
-0.163356
0.0170119
0.186169
0.231861
0.0721496
0.00849862
-0.0725549
0.0232106
0.106178
-0.0246151
-0.175675
-0.175551
-0.0851581
-0.0235007
0.106089
0.0952112
0.108591
0.127247
0.200238
0.0720448
0.138074
0.0877027
0.0891116
0.109416
0.110813
-0.00540187
-0.0190889
0.105133
0.0410976
-0.0259282
0.071915
0.174945
0.0482022
0.0429982
-0.110747
-0.0560561
0.169315
0.234934
-0.0201127
-0.00359441
0.0864242
0.0418507
-0.066956
-0.0862144
0.0198861
-0.0621034
0.0339434
-0.020762
0.0817571
-0.0921617
-0.0731952
-0.0885574
-0.193312
-0.202401
-0.222786
-0.115559
-0.0911472
-0.146504
-0.0972993
-0.129943
-0.0429785
0.0239933
0.153813
0.122512
0.173612
0.212512
0.184824
0.0688158
0.0373322
0.103183
0.170646
0.163762
0.140907
0.213156
0.208143
0.192378
0.11936
0.0760531
-0.0226752
-0.0294489
-0.0644212
-0.0317501
-0.129799
-0.173217
-0.156567
-0.200647
-0.197239
-0.175088
-0.187564
-0.0709702
0.0547371
0.0723577
0.11608
0.187878
0.203281
0.309365
0.352451
0.120051
-0.043852
-0.117137
-0.0966095
0.0498114
0.17966
0.27846
0.0876477
0.063721
0.0191762
0.0125648
0.0102094
-0.00229051
-0.170465
-0.228093
-0.0761858
0.0071941
0.0152005
0.0830722
0.0529868
0.151974
0.197078
0.0595819
0.0758498
0.110099
0.144788
0.113746
0.058944
0.0765464
0.0964776
0.134795
0.045252
-0.0538395
0.0482289
0.0686234
-0.0548983
0.0387449
0.0537002
0.0397916
-0.0282655
0.116544
0.0587334
0.0703482
0.0453574
0.00927593
-0.0831603
-0.0336868
0.0071348
-0.0875133
0.0069811
-0.0467434
0.00517442
-0.0507323
-0.0762678
-0.228032
-0.156514
-0.238638
-0.327752
-0.159936
-0.128577
-0.043875
-0.11953
-0.154079
-0.00616269
-0.0344271
0.119635
0.273385
0.232277
0.112794
0.102305
0.0571752
-0.0505329
0.0527665
0.17864
0.190681
0.211129
0.231229
0.0983304
0.102415
0.132131
0.108308
0.0273552
0.00870021
-0.156976
-0.00910635
-0.097578
-0.0816428
-0.0861145
-0.258926
-0.254289
-0.272035
-0.135823
-0.0806962
0.0193421
-0.0123549
0.099624
0.199552
0.241114
0.379285
0.190202
0.131616
0.00933838
-0.0471103
-0.00959227
-0.0601805
0.110468
0.284088
0.119336
0.0452626
-0.00197838
-0.052893
0.0136955
0.00850368
-0.137916
-0.182116
-0.0429305
-0.057964
0.0120799
0.0157628
0.0179134
0.146843
0.114734
0.0298241
0.135529
0.0605649
0.0615229
0.0486189
0.0834751
0.0510562
0.0183054
0.162187
0.0341382
-0.0570822
0.14918
0.0444819
0.0550962
0.0809452
-0.00426996
-0.00557861
-0.0936833
0.047942
0.118171
0.129621
-0.0216425
-0.0011679
0.028644
-0.0142908
-0.0237992
0.0044496
0.0352799
-0.118497
-0.166996
-0.144665
-0.0738408
-0.217472
-0.19897
-0.148618
-0.312806
-0.238563
-0.054973
-0.0794882
-0.227387
-0.0911548
-0.0631754
0.0342693
0.208653
0.122733
0.135015
0.171781
0.0532844
-0.0493026
0.0144537
0.0629651
0.0523514
0.177149
0.218337
0.231693
0.123274
-0.0381227
0.130247
0.179543
0.0687409
0.0218788
-0.0361334
0.0249862
-0.13662
-0.0886391
-0.149625
-0.166404
-0.144501
-0.217852
-0.126688
-0.0767853
-0.116811
-0.0389968
0.0474712
0.0624057
0.221075
0.387652
0.124448
0.0953045
-0.0259166
0.0581446
0.0914246
-0.0518932
0.0399474
0.265317
0.11586
0.00467847
0.0161169
-0.00463029
-0.0140834
-0.0809485
-0.154348
-0.120339
0.0699118
-0.0789451
-0.0376238
-0.0704622
-0.00650074
0.0452334
0.135562
0.0384443
0.13698
0.11435
0.0121164
0.0717745
0.0451138
0.0384084
0.0380326
0.0890761
0.060517
0.00683712
0.0884727