/*--------------------------------*- C++ -*----------------------------------*\
| =========                 |                                                 |
| \\      /  F ield         | OpenFOAM: The Open Source CFD Toolbox           |
|  \\    /   O peration     | Version:  v2012                                 |
|   \\  /    A nd           | Website:  www.openfoam.com                      |
|    \\/     M anipulation  |                                                 |
\*---------------------------------------------------------------------------*/
FoamFile
{
    version     2.0;
    format      ascii;
    class       volVectorField;
    location    "0";
    object      uRec;
}
// * * * * * * * * * * * * * * * * * * * * * * * * * * * * * * * * * * * * * //

dimensions      [0 1 -1 0 0 0 0];


internalField   nonuniform List<vector> 
4000
(
(1 4.24884e-15 0)
(1 5.1208e-16 0)
(1 -1.83908e-15 0)
(1 1.10702e-15 0)
(1 5.78906e-20 0)
(1 -1.15484e-16 0)
(1 4.3192e-15 0)
(1 -4.63892e-15 0)
(1 9.3406e-15 0)
(1 -1.67095e-15 0)
(1 -8.38513e-15 0)
(1 2.82353e-16 0)
(1 1.98475e-15 0)
(1 1.83897e-15 0)
(1 -3.18352e-15 0)
(1 2.40432e-15 0)
(1 -2.4602e-15 0)
(1 -2.78148e-15 0)
(1 4.94698e-15 0)
(1 3.73679e-15 0)
(1 -1.77663e-15 0)
(1 4.22888e-15 0)
(1 -3.32041e-15 0)
(1 5.50559e-15 0)
(1 -1.29652e-15 0)
(1 -3.42525e-16 0)
(1 2.09388e-15 0)
(1 -5.75366e-15 0)
(1 -1.05522e-15 0)
(1 -3.77598e-15 0)
(1 3.87274e-15 0)
(1 4.87522e-15 0)
(1 -3.35696e-15 0)
(1 -3.17723e-15 0)
(1 -5.30384e-16 0)
(1 -3.17422e-15 0)
(1 -2.66743e-15 0)
(1 3.53167e-15 0)
(1 3.80867e-15 0)
(1 -2.52294e-15 0)
(1 3.10379e-15 0)
(1 -4.77405e-15 0)
(1 -1.554e-15 0)
(1 3.0598e-15 0)
(1 1.84433e-15 0)
(1 -4.41919e-15 0)
(1 4.71982e-16 0)
(1 -7.1123e-16 0)
(1 1.91525e-15 0)
(1 -1.15506e-15 0)
(1 -8.10574e-16 0)
(1 1.28079e-15 0)
(1 2.04022e-15 0)
(1 7.21316e-15 0)
(1 2.90347e-15 0)
(1 5.55649e-15 0)
(1 6.36996e-16 0)
(1 -4.65599e-16 0)
(1 -1.56881e-15 0)
(1 -7.89993e-17 0)
(1 -3.97903e-15 0)
(1 -4.50468e-15 0)
(1 -1.95602e-15 0)
(1 3.44283e-15 0)
(1 1.65371e-15 0)
(1 -1.15621e-16 0)
(1 -1.48319e-15 0)
(1 -2.74505e-15 0)
(1 1.5088e-15 0)
(1 -2.58924e-15 0)
(1 -8.46155e-16 0)
(1 1.62834e-15 0)
(1 -1.83812e-15 0)
(1 -3.95353e-15 0)
(1 -4.70362e-15 0)
(1 -4.0607e-15 0)
(1 -4.77696e-16 0)
(1 1.51688e-17 0)
(1 9.87418e-16 0)
(1 3.17543e-15 0)
(1 9.91164e-16 0)
(1 3.05945e-15 0)
(1 -2.73021e-15 0)
(1 -1.37895e-15 0)
(1 -4.34797e-15 0)
(1 -4.61136e-15 0)
(1 1.71802e-15 0)
(1 3.65174e-15 0)
(1 9.98821e-16 0)
(1 2.0775e-15 0)
(1 5.35152e-16 0)
(1 -1.156e-15 0)
(1 2.83684e-15 0)
(1 3.55367e-15 0)
(1 -1.06971e-15 0)
(1 -2.30391e-15 0)
(1 1.08226e-15 0)
(1 1.79792e-15 0)
(1 -8.26136e-16 0)
(1 -1.00142e-15 0)
(1 2.92199e-15 0)
(1 5.10511e-15 0)
(1 -1.8037e-15 0)
(1 -1.0234e-15 0)
(1 -5.74347e-15 0)
(1 9.63727e-16 0)
(1 3.61505e-15 0)
(1 -4.08884e-15 0)
(1 9.1719e-15 0)
(1 2.51584e-15 0)
(1 -2.987e-15 0)
(1 -3.55883e-15 0)
(1 -1.1622e-15 0)
(1 -4.41254e-15 0)
(1 -6.89631e-15 0)
(1 7.01368e-15 0)
(1 -2.8464e-16 0)
(1 -1.3111e-15 0)
(1 4.30955e-15 0)
(1 1.94153e-15 0)
(1 -1.59172e-15 0)
(1 8.9535e-16 0)
(1 -4.89199e-15 0)
(1 4.08193e-15 0)
(1 -1.2838e-15 0)
(1 1.0256e-15 0)
(1 5.62018e-15 0)
(1 -1.03127e-14 0)
(1 -1.35656e-15 0)
(1 -9.72601e-16 0)
(1 7.09542e-16 0)
(1 2.61137e-15 0)
(1 -5.7483e-15 0)
(1 -3.10422e-15 0)
(1 2.84309e-15 0)
(1 -3.67193e-15 0)
(1 2.64851e-16 0)
(1 6.84681e-15 0)
(1 -1.58314e-15 0)
(1 -5.98476e-15 0)
(1 -5.14001e-15 0)
(1 -5.96933e-15 0)
(1 -2.3011e-15 0)
(1 8.39911e-16 0)
(1 4.20441e-16 0)
(1 -4.33435e-15 0)
(1 5.10031e-15 0)
(1 5.25907e-15 0)
(1 7.65112e-15 0)
(1 7.37695e-16 0)
(1 1.06007e-15 0)
(1 -3.97044e-15 0)
(1 1.60967e-15 0)
(1 2.8184e-15 0)
(1 3.19854e-15 0)
(1 3.96794e-17 0)
(1 3.21241e-15 0)
(1 2.2235e-15 0)
(1 2.05552e-15 0)
(1 -5.33821e-15 0)
(1 4.93596e-16 0)
(1 1.02348e-16 0)
(1 -2.58835e-15 0)
(1 1.82794e-15 0)
(1 -1.73702e-15 0)
(1 9.06137e-16 0)
(1 -6.59572e-15 0)
(1 -6.13401e-15 0)
(1 2.73958e-15 0)
(1 -1.91112e-15 0)
(1 -2.12631e-15 0)
(1 1.31682e-15 0)
(1 2.98624e-15 0)
(1 -1.6921e-15 0)
(1 -1.38156e-15 0)
(1 -1.23692e-15 0)
(1 2.50044e-15 0)
(1 2.92964e-15 0)
(1 3.76431e-16 0)
(1 6.42887e-15 0)
(1 3.44164e-15 0)
(1 3.39728e-16 0)
(1 4.50335e-16 0)
(1 -4.27998e-15 0)
(1 -3.7969e-15 0)
(1 -6.50228e-15 0)
(1 -9.12294e-16 0)
(1 1.7435e-15 0)
(1 7.60377e-16 0)
(1 3.04774e-15 0)
(1 4.11431e-16 0)
(1 -3.00026e-15 0)
(1 4.11747e-15 0)
(1 4.3476e-15 0)
(1 -6.32923e-15 0)
(1 -2.47036e-15 0)
(1 2.3729e-15 0)
(1 -2.26215e-15 0)
(1 -2.51526e-15 0)
(1 -2.16963e-15 0)
(1 -3.45582e-15 0)
(1 9.40746e-15 0)
(1 -5.6154e-15 0)
(1 1.17798e-15 0)
(1 -2.78274e-15 0)
(1 1.37783e-15 0)
(1 4.51833e-15 0)
(1 1.01013e-14 0)
(1 -4.91301e-15 0)
(1 -2.92333e-15 0)
(1 4.87988e-16 0)
(1 2.37217e-15 0)
(1 1.63754e-15 0)
(1 -3.17564e-15 0)
(1 -1.01941e-15 0)
(1 2.19012e-15 0)
(1 2.87988e-15 0)
(1 7.02476e-15 0)
(1 -5.40952e-15 0)
(1 -1.84497e-15 0)
(1 -2.04018e-15 0)
(1 -9.635e-15 0)
(1 -3.8506e-15 0)
(1 -8.50555e-16 0)
(1 1.27172e-14 0)
(1 7.10447e-15 0)
(1 8.87672e-15 0)
(1 -7.07095e-15 0)
(1 -1.90402e-15 0)
(1 7.18119e-16 0)
(1 -2.7562e-15 0)
(1 -6.78583e-15 0)
(1 -2.7279e-15 0)
(1 -2.67591e-15 0)
(1 -2.43274e-15 0)
(1 -4.37091e-16 0)
(1 -2.06761e-15 0)
(1 6.4275e-15 0)
(1 5.46155e-15 0)
(1 -8.53588e-15 0)
(1 -5.14257e-15 0)
(1 -5.68608e-15 0)
(1 -2.27326e-15 0)
(1 -4.61988e-15 0)
(1 -1.16078e-15 0)
(1 -4.77839e-15 0)
(1 1.81476e-15 0)
(1 7.55033e-15 0)
(1 8.95356e-15 0)
(1 3.38364e-15 0)
(1 7.65889e-15 0)
(1 -1.36621e-15 0)
(1 3.00837e-15 0)
(1 -4.41538e-15 0)
(1 3.15615e-15 0)
(1 -1.3994e-15 0)
(1 4.27445e-15 0)
(1 4.01121e-15 0)
(1 9.56472e-15 0)
(1 -8.44566e-16 0)
(1 -1.61496e-15 0)
(1 1.76489e-15 0)
(1 -1.29915e-15 0)
(1 -5.86709e-15 0)
(1 -5.68692e-15 0)
(1 -2.736e-15 0)
(1 -5.11977e-15 0)
(1 -1.43446e-15 0)
(1 4.44391e-15 0)
(1 1.1273e-15 0)
(1 1.81977e-15 0)
(1 -2.4409e-15 0)
(1 -2.43588e-15 0)
(1 -5.3888e-15 0)
(1 -2.33949e-16 0)
(1 -2.73423e-15 0)
(1 1.63648e-15 0)
(1 -1.15219e-15 0)
(1 7.62609e-16 0)
(1 -1.28375e-15 0)
(1 -3.13197e-15 0)
(1 2.61287e-16 0)
(1 1.35902e-15 0)
(1 -2.57868e-15 0)
(1 -3.77373e-15 0)
(1 -1.75864e-15 0)
(1 -3.82475e-15 0)
(1 2.82251e-16 0)
(1 -4.75261e-16 0)
(1 4.66036e-15 0)
(1 9.38196e-16 0)
(1 3.98749e-16 0)
(1 -2.78969e-15 0)
(1 1.60792e-15 0)
(1 -3.93481e-15 0)
(1 2.11531e-15 0)
(1 2.9636e-15 0)
(1 -6.96786e-15 0)
(1 -7.25185e-16 0)
(1 -1.81862e-15 0)
(1 -7.12032e-16 0)
(1 3.25034e-15 0)
(1 -2.48969e-15 0)
(1 -5.27053e-15 0)
(1 5.53515e-15 0)
(1 5.29921e-16 0)
(1 6.82825e-15 0)
(1 6.01916e-15 0)
(1 -1.41669e-15 0)
(1 -5.96172e-15 0)
(1 -6.36034e-15 0)
(1 4.12674e-15 0)
(1 -4.91182e-15 0)
(1 4.60944e-15 0)
(1 1.0127e-14 0)
(1 -3.99061e-15 0)
(1 3.55365e-15 0)
(1 8.91398e-16 0)
(1 -7.47571e-15 0)
(1 6.12803e-15 0)
(1 -4.88711e-15 0)
(1 -2.45609e-15 0)
(1 -4.72123e-15 0)
(1 4.39256e-16 0)
(1 1.41364e-14 0)
(1 6.47672e-15 0)
(1 9.08495e-15 0)
(1 -3.40434e-16 0)
(1 2.66658e-15 0)
(1 1.06442e-15 0)
(1 -1.34094e-15 0)
(1 -2.71492e-15 0)
(1 -3.0811e-15 0)
(1 -4.41546e-15 0)
(1 -7.63811e-15 0)
(1 -7.22178e-15 0)
(1 -5.2757e-15 0)
(1 -3.55051e-15 0)
(1 6.80691e-15 0)
(1 -2.50291e-15 0)
(1 2.56696e-15 0)
(1 -5.42428e-15 0)
(1 -6.80455e-15 0)
(1 -6.75848e-16 0)
(1 1.27196e-16 0)
(1 -1.35875e-17 0)
(1 -1.20147e-15 0)
(1 4.71384e-15 0)
(1 4.52777e-15 0)
(1 5.36391e-15 0)
(1 6.57348e-15 0)
(1 2.92359e-15 0)
(1 1.91552e-15 0)
(1 1.11674e-15 0)
(1 4.66796e-15 0)
(1 4.02316e-15 0)
(1 6.06069e-15 0)
(1 6.52621e-15 0)
(1 6.8688e-15 0)
(1 7.57195e-15 0)
(1 1.45246e-15 0)
(1 -9.15856e-15 0)
(1 -6.19068e-15 0)
(1 -4.46154e-15 0)
(1 -5.51452e-15 0)
(1 -2.88245e-15 0)
(1 -2.7232e-15 0)
(1 3.90397e-15 0)
(1 -1.22605e-15 0)
(1 -1.87839e-15 0)
(1 1.16576e-16 0)
(1 -5.65767e-15 0)
(1 -6.60537e-15 0)
(1 -6.75464e-15 0)
(1 -5.07963e-15 0)
(1 2.10876e-15 0)
(1 5.4209e-15 0)
(1 -1.08884e-15 0)
(1 6.58423e-15 0)
(1 -2.14686e-15 0)
(1 -7.96241e-15 0)
(1 2.49636e-15 0)
(1 -3.37571e-15 0)
(1 -1.12384e-15 0)
(1 -2.4403e-15 0)
(1 -5.17562e-15 0)
(1 2.15274e-15 0)
(1 -9.56526e-16 0)
(1 1.31136e-15 0)
(1 2.6701e-15 0)
(1 -1.86217e-15 0)
(1 3.19613e-15 0)
(1 -5.22373e-16 0)
(1 2.23189e-15 0)
(1 1.44299e-15 0)
(1 -8.55451e-17 0)
(1 1.10023e-15 0)
(1 1.88567e-15 0)
(1 -6.55075e-15 0)
(1 -5.95983e-15 0)
(1 3.80905e-15 0)
(1 -4.36856e-15 0)
(1 5.65099e-15 0)
(1 -4.55595e-15 0)
(1 1.75214e-15 0)
(1 2.26294e-15 0)
(1 -1.08016e-15 0)
(1 -3.76405e-15 0)
(1 6.03969e-15 0)
(1 3.3087e-15 0)
(1 2.30607e-15 0)
(1 6.52015e-15 0)
(1 -2.68766e-15 0)
(1 -2.54326e-15 0)
(1 1.73729e-15 0)
(1 5.53555e-16 0)
(1 7.22063e-15 0)
(1 9.16526e-16 0)
(1 -3.12861e-15 0)
(1 -6.10072e-15 0)
(1 -4.09991e-15 0)
(1 4.56019e-15 0)
(1 1.58358e-15 0)
(1 5.72339e-15 0)
(1 -5.77762e-15 0)
(1 -3.15352e-15 0)
(1 -2.98425e-15 0)
(1 3.91418e-15 0)
(1 1.18918e-15 0)
(1 -1.91459e-15 0)
(1 -4.4559e-15 0)
(1 2.13389e-15 0)
(1 -8.41793e-15 0)
(1 5.45109e-15 0)
(1 -6.63534e-15 0)
(1 -9.88033e-15 0)
(1 -1.14825e-15 0)
(1 -6.50241e-15 0)
(1 8.21735e-16 0)
(1 4.12213e-15 0)
(1 2.43077e-16 0)
(1 -5.06558e-15 0)
(1 -1.05478e-14 0)
(1 -4.34435e-15 0)
(1 -5.54182e-15 0)
(1 7.13634e-15 0)
(1 4.90342e-15 0)
(1 8.65752e-15 0)
(1 4.09909e-15 0)
(1 4.19906e-15 0)
(1 -1.57187e-15 0)
(1 -3.66926e-16 0)
(1 -1.88393e-15 0)
(1 3.93589e-15 0)
(1 3.67171e-15 0)
(1 1.56329e-15 0)
(1 1.94138e-15 0)
(1 1.14499e-15 0)
(1 -1.54345e-15 0)
(1 2.0269e-15 0)
(1 7.60561e-15 0)
(1 -4.31036e-15 0)
(1 -1.08276e-15 0)
(1 -2.90877e-15 0)
(1 2.04356e-16 0)
(1 3.45831e-15 0)
(1 4.09087e-15 0)
(1 4.84131e-15 0)
(1 -6.70641e-15 0)
(1 1.46818e-15 0)
(1 -6.6189e-15 0)
(1 -4.63251e-15 0)
(1 3.07407e-15 0)
(1 -9.73987e-16 0)
(1 -2.26658e-15 0)
(1 6.98328e-16 0)
(1 2.68631e-15 0)
(1 1.15465e-15 0)
(1 2.13003e-15 0)
(1 -3.43244e-15 0)
(1 -4.12811e-15 0)
(1 -6.46162e-15 0)
(1 -4.0541e-15 0)
(1 -4.97288e-15 0)
(1 2.45668e-15 0)
(1 -3.29899e-15 0)
(1 1.66833e-15 0)
(1 -2.3952e-15 0)
(1 -6.99024e-16 0)
(1 -1.06672e-15 0)
(1 -2.45801e-16 0)
(1 -1.36192e-16 0)
(1 4.98275e-15 0)
(1 2.42345e-15 0)
(1 6.35758e-15 0)
(1 8.07831e-16 0)
(1 -1.3849e-15 0)
(1 3.04332e-15 0)
(1 -6.11517e-15 0)
(1 -1.82925e-15 0)
(1 4.75713e-16 0)
(1 -6.47004e-15 0)
(1 7.38715e-15 0)
(1 2.78383e-15 0)
(1 3.6225e-16 0)
(1 -1.28483e-15 0)
(1 -4.1757e-15 0)
(1 5.34794e-15 0)
(1 6.47845e-16 0)
(1 4.38353e-15 0)
(1 5.42486e-15 0)
(1 4.79817e-15 0)
(1 1.46681e-15 0)
(1 -2.43622e-15 0)
(1 -5.3689e-16 0)
(1 3.32257e-15 0)
(1 -2.53642e-15 0)
(1 -1.08644e-15 0)
(1 -7.11601e-15 0)
(1 -1.21769e-14 0)
(1 -3.39988e-15 0)
(1 3.56886e-16 0)
(1 1.62514e-14 0)
(1 9.60937e-15 0)
(1 1.79593e-15 0)
(1 3.11508e-15 0)
(1 2.87794e-16 0)
(1 1.85659e-15 0)
(1 -1.02144e-14 0)
(1 -6.22909e-15 0)
(1 -1.10746e-14 0)
(1 -8.19447e-16 0)
(1 -7.16601e-15 0)
(1 5.95496e-15 0)
(1 -5.21359e-15 0)
(1 -7.24261e-16 0)
(1 2.9188e-15 0)
(1 2.14197e-15 0)
(1 -2.14758e-15 0)
(1 1.59237e-15 0)
(1 -9.36681e-16 0)
(1 4.1738e-16 0)
(1 -7.16163e-15 0)
(1 -1.15949e-14 0)
(1 -1.73731e-15 0)
(1 1.96819e-15 0)
(1 2.06604e-15 0)
(1 6.9989e-15 0)
(1 1.01539e-14 0)
(1 4.34744e-15 0)
(1 -2.16678e-15 0)
(1 1.18376e-15 0)
(1 4.74485e-15 0)
(1 4.93456e-15 0)
(1 -9.18548e-16 0)
(1 1.91266e-15 0)
(1 2.83238e-15 0)
(1 4.66222e-15 0)
(1 4.18621e-15 0)
(1 9.67508e-15 0)
(1 8.70202e-16 0)
(1 -2.47087e-15 0)
(1 -5.02675e-15 0)
(1 -4.89338e-15 0)
(1 2.34515e-15 0)
(1 4.9058e-15 0)
(1 9.84831e-15 0)
(1 3.84568e-15 0)
(1 2.05903e-15 0)
(1 -1.65288e-15 0)
(1 3.44424e-16 0)
(1 2.22289e-16 0)
(1 5.04221e-15 0)
(1 -2.60933e-15 0)
(1 -1.88187e-15 0)
(1 -3.53644e-15 0)
(1 -5.55193e-16 0)
(1 2.61598e-15 0)
(1 -6.53817e-15 0)
(1 -3.92977e-15 0)
(1 -2.86429e-15 0)
(1 -1.25916e-15 0)
(1 -3.7004e-15 0)
(1 -6.73501e-16 0)
(1 -3.00992e-15 0)
(1 -5.37244e-15 0)
(1 -7.37253e-15 0)
(1 -8.99984e-15 0)
(1 -5.59849e-15 0)
(1 -2.05268e-15 0)
(1 9.81433e-16 0)
(1 1.07952e-15 0)
(1 4.62208e-15 0)
(1 6.26097e-15 0)
(1 1.00577e-14 0)
(1 8.32055e-15 0)
(1 2.1445e-15 0)
(1 -3.72955e-15 0)
(1 4.86968e-15 0)
(1 6.03284e-15 0)
(1 -3.62046e-16 0)
(1 -1.82539e-15 0)
(1 8.7589e-15 0)
(1 -1.93837e-15 0)
(1 1.34384e-15 0)
(1 -6.08925e-15 0)
(1 -5.61027e-16 0)
(1 1.46939e-14 0)
(1 -1.50047e-15 0)
(1 6.99948e-15 0)
(1 -2.72633e-16 0)
(1 -2.25621e-15 0)
(1 -3.71408e-15 0)
(1 4.12969e-15 0)
(1 2.93566e-15 0)
(1 6.88421e-15 0)
(1 9.19581e-16 0)
(1 -6.76471e-15 0)
(1 -4.80922e-15 0)
(1 1.47244e-15 0)
(1 -1.16441e-15 0)
(1 -1.23224e-14 0)
(1 5.25868e-15 0)
(1 -1.20157e-14 0)
(1 8.65073e-15 0)
(1 9.35789e-16 0)
(1 2.98279e-15 0)
(1 7.39166e-16 0)
(1 -1.02491e-15 0)
(1 8.16282e-16 0)
(1 -4.19314e-16 0)
(1 -2.96418e-15 0)
(1 1.43664e-15 0)
(1 -6.19993e-15 0)
(1 -2.93004e-15 0)
(1 3.0098e-15 0)
(1 -3.05259e-15 0)
(1 2.42275e-15 0)
(1 -8.54522e-15 0)
(1 3.72889e-15 0)
(1 -3.71402e-15 0)
(1 1.41095e-16 0)
(1 -1.86571e-15 0)
(1 -4.09534e-15 0)
(1 -8.88846e-16 0)
(1 2.20452e-15 0)
(1 5.83037e-15 0)
(1 1.11321e-15 0)
(1 3.17087e-15 0)
(1 1.5338e-16 0)
(1 -4.38342e-16 0)
(1 1.358e-15 0)
(1 4.07151e-15 0)
(1 3.42059e-15 0)
(1 -1.84635e-15 0)
(1 4.62719e-16 0)
(1 3.77528e-15 0)
(1 6.07628e-15 0)
(1 5.19025e-15 0)
(1 6.32581e-15 0)
(1 -2.32088e-15 0)
(1 1.93256e-15 0)
(1 -3.11288e-15 0)
(1 -1.13472e-15 0)
(1 -2.23712e-15 0)
(1 -3.37678e-15 0)
(1 -1.40957e-15 0)
(1 4.05328e-15 0)
(1 4.07173e-15 0)
(1 -1.93399e-15 0)
(1 7.28659e-15 0)
(1 3.64274e-15 0)
(1 -3.19381e-15 0)
(1 -3.9658e-15 0)
(1 -4.50743e-15 0)
(1 5.2774e-15 0)
(1 -1.68705e-15 0)
(1 5.52701e-15 0)
(1 -1.32122e-15 0)
(1 -1.78746e-15 0)
(1 -1.77313e-15 0)
(1 -1.32642e-15 0)
(1 -4.62056e-16 0)
(1 -1.27254e-15 0)
(1 -2.53673e-15 0)
(1 1.3388e-15 0)
(1 -3.0782e-15 0)
(1 -4.2147e-16 0)
(1 -1.66458e-15 0)
(1 -2.21002e-15 0)
(1 -9.89631e-16 0)
(1 3.04553e-15 0)
(1 7.12215e-15 0)
(1 6.68033e-15 0)
(1 2.71071e-15 0)
(1 7.34186e-15 0)
(1 3.80741e-15 0)
(1 1.86196e-15 0)
(1 5.55037e-15 0)
(1 3.6715e-15 0)
(1 -1.50096e-15 0)
(1 1.20913e-15 0)
(1 -5.36513e-15 0)
(1 1.95309e-15 0)
(1 1.50772e-15 0)
(1 1.82102e-15 0)
(1 -2.08974e-15 0)
(1 4.18431e-15 0)
(1 1.03093e-14 0)
(1 1.19923e-14 0)
(1 4.23935e-15 0)
(1 -7.73675e-15 0)
(1 2.22309e-16 0)
(1 -2.83488e-16 0)
(1 2.56039e-15 0)
(1 6.22907e-15 0)
(1 5.37396e-15 0)
(1 7.56187e-15 0)
(1 4.01506e-16 0)
(1 -3.56897e-15 0)
(1 -2.24533e-15 0)
(1 -1.4053e-14 0)
(1 -1.94479e-16 0)
(1 -8.12375e-15 0)
(1 -9.82854e-15 0)
(1 -1.6457e-14 0)
(1 -1.1831e-14 0)
(1 -4.18097e-15 0)
(1 5.36602e-15 0)
(1 1.16914e-14 0)
(1 1.61954e-14 0)
(1 -2.04206e-16 0)
(1 2.77161e-15 0)
(1 -1.12513e-14 0)
(1 -6.3042e-15 0)
(1 -1.3154e-15 0)
(1 -3.52058e-15 0)
(1 -1.01288e-15 0)
(1 2.41961e-15 0)
(1 7.95236e-15 0)
(1 -9.73407e-16 0)
(1 -4.60003e-15 0)
(1 -2.49966e-15 0)
(1 -8.56528e-15 0)
(1 -6.12115e-15 0)
(1 5.97844e-15 0)
(1 1.00329e-14 0)
(1 4.67753e-15 0)
(1 -5.67089e-15 0)
(1 1.88479e-16 0)
(1 4.1545e-15 0)
(1 2.28127e-15 0)
(1 -3.62087e-15 0)
(1 6.17312e-15 0)
(1 9.96906e-15 0)
(1 1.26562e-14 0)
(1 2.15365e-15 0)
(1 1.86321e-15 0)
(1 -6.07962e-16 0)
(1 -5.87111e-15 0)
(1 -8.29585e-15 0)
(1 5.64163e-15 0)
(1 9.84024e-15 0)
(1 1.0064e-14 0)
(1 2.79583e-15 0)
(1 -1.8591e-16 0)
(1 1.87452e-15 0)
(1 -5.15005e-16 0)
(1 3.11135e-15 0)
(1 2.83079e-15 0)
(1 3.53425e-15 0)
(1 1.15144e-15 0)
(1 5.78358e-16 0)
(1 -4.00439e-15 0)
(1 -2.30101e-16 0)
(1 5.24752e-15 0)
(1 -2.18078e-15 0)
(1 -2.57473e-15 0)
(1 -5.08898e-15 0)
(1 -6.5237e-15 0)
(1 -1.01739e-15 0)
(1 -4.97366e-15 0)
(1 6.56951e-16 0)
(1 -1.49702e-15 0)
(1 -6.16282e-15 0)
(1 -7.44486e-16 0)
(1 -8.18336e-16 0)
(1 2.48678e-15 0)
(1 1.68826e-15 0)
(1 -6.83209e-15 0)
(1 -2.34274e-15 0)
(1 1.54592e-15 0)
(1 6.49005e-15 0)
(1 6.56966e-15 0)
(1 4.63114e-15 0)
(1 7.02321e-15 0)
(1 9.18876e-16 0)
(1 2.82025e-15 0)
(1 7.4934e-15 0)
(1 8.15866e-15 0)
(1 -2.81178e-15 0)
(1 -1.10522e-15 0)
(1 -8.85301e-15 0)
(1 6.24365e-16 0)
(1 -9.99818e-16 0)
(1 1.01873e-14 0)
(1 1.34246e-15 0)
(1 -6.1528e-15 0)
(1 1.00058e-14 0)
(1 -2.62759e-15 0)
(1 1.48393e-15 0)
(1 -4.52025e-15 0)
(1 1.09872e-15 0)
(1 6.66629e-15 0)
(1 4.26241e-15 0)
(1 7.13225e-15 0)
(1 -2.76748e-16 0)
(1 8.96437e-15 0)
(1 4.66632e-15 0)
(1 -7.49775e-15 0)
(1 -1.27524e-14 0)
(1 -6.357e-15 0)
(1 -1.75644e-15 0)
(1 4.17924e-15 0)
(1 -6.73596e-15 0)
(1 -9.99692e-15 0)
(1 -4.72113e-15 0)
(1 -8.39599e-15 0)
(1 8.34664e-16 0)
(1 5.01628e-15 0)
(1 6.44304e-15 0)
(1 -2.77407e-15 0)
(1 -3.71601e-16 0)
(1 -4.69044e-15 0)
(1 -8.4436e-15 0)
(1 -4.61812e-16 0)
(1 1.00804e-15 0)
(1 4.23331e-15 0)
(1 2.4586e-15 0)
(1 -5.64481e-16 0)
(1 -4.40564e-15 0)
(1 -1.65194e-15 0)
(1 2.35879e-16 0)
(1 -2.68571e-15 0)
(1 7.06965e-15 0)
(1 -3.10276e-15 0)
(1 4.86138e-15 0)
(1 -1.42935e-17 0)
(1 -7.15691e-15 0)
(1 2.42573e-16 0)
(1 1.26976e-15 0)
(1 6.01065e-15 0)
(1 -3.47387e-16 0)
(1 7.85709e-15 0)
(1 1.3547e-14 0)
(1 1.00004e-14 0)
(1 9.22685e-15 0)
(1 -2.3959e-15 0)
(1 6.8207e-15 0)
(1 -1.81388e-16 0)
(1 4.88852e-15 0)
(1 -1.1327e-15 0)
(1 1.61972e-15 0)
(1 8.48592e-15 0)
(1 -9.82314e-15 0)
(1 1.66614e-15 0)
(1 -7.7048e-16 0)
(1 -2.28331e-15 0)
(1 1.42935e-14 0)
(1 8.49552e-15 0)
(1 8.44138e-15 0)
(1 3.33438e-16 0)
(1 4.31908e-15 0)
(1 -2.13548e-15 0)
(1 1.87206e-17 0)
(1 3.34548e-15 0)
(1 -2.42879e-15 0)
(1 -6.74871e-16 0)
(1 1.11797e-15 0)
(1 3.57634e-15 0)
(1 1.54104e-15 0)
(1 3.25987e-15 0)
(1 -4.3317e-15 0)
(1 -2.82108e-15 0)
(1 -1.04569e-14 0)
(1 -7.87032e-15 0)
(1 -4.56565e-15 0)
(1 -2.90818e-15 0)
(1 -1.76862e-15 0)
(1 -2.42056e-15 0)
(1 -4.07363e-15 0)
(1 1.61462e-15 0)
(1 3.70984e-15 0)
(1 8.55589e-15 0)
(1 1.05091e-14 0)
(1 9.08539e-15 0)
(1 7.81379e-15 0)
(1 8.49548e-15 0)
(1 1.35425e-14 0)
(1 1.38559e-14 0)
(1 2.84319e-16 0)
(1 -2.21205e-16 0)
(1 4.26112e-15 0)
(1 -4.48739e-15 0)
(1 1.77223e-15 0)
(1 -8.44169e-15 0)
(1 5.06694e-15 0)
(1 3.6257e-15 0)
(1 5.2532e-15 0)
(1 2.50082e-17 0)
(1 -1.51387e-15 0)
(1 1.23865e-14 0)
(1 3.25667e-15 0)
(1 6.56432e-15 0)
(1 -3.9521e-16 0)
(1 -4.26007e-15 0)
(1 -6.3064e-15 0)
(1 2.05706e-16 0)
(1 2.37746e-15 0)
(1 6.48361e-15 0)
(1 -3.85525e-15 0)
(1 -4.3075e-15 0)
(1 -2.15512e-14 0)
(1 -3.64928e-15 0)
(1 1.98671e-15 0)
(1 4.23844e-15 0)
(1 -4.26444e-15 0)
(1 1.01842e-15 0)
(1 1.98868e-15 0)
(1 -3.73969e-15 0)
(1 -4.97566e-15 0)
(1 2.37788e-15 0)
(1 3.27254e-17 0)
(1 3.19456e-15 0)
(1 9.66083e-16 0)
(1 -1.72217e-15 0)
(1 -9.19237e-15 0)
(1 4.72794e-16 0)
(1 -8.17764e-15 0)
(1 -1.20234e-14 0)
(1 -5.43418e-15 0)
(1 2.20903e-15 0)
(1 5.46208e-15 0)
(1 5.02182e-15 0)
(1 9.3776e-15 0)
(1 -2.77664e-15 0)
(1 -4.51876e-16 0)
(1 7.16845e-19 0)
(1 -6.33736e-16 0)
(1 1.82244e-15 0)
(1 -5.19848e-15 0)
(1 -5.34487e-15 0)
(1 5.79371e-15 0)
(1 6.03404e-15 0)
(1 1.33865e-14 0)
(1 7.92594e-15 0)
(1 3.59502e-15 0)
(1 -6.42395e-15 0)
(1 4.70821e-15 0)
(1 5.43607e-15 0)
(1 9.57856e-15 0)
(1 6.0746e-15 0)
(1 -2.40818e-16 0)
(1 3.12533e-15 0)
(1 6.72214e-16 0)
(1 -2.56711e-15 0)
(1 4.14314e-15 0)
(1 4.2617e-15 0)
(1 1.27453e-14 0)
(1 1.11329e-14 0)
(1 1.07238e-14 0)
(1 1.14355e-15 0)
(1 -1.07558e-15 0)
(1 7.69814e-16 0)
(1 9.64948e-16 0)
(1 -1.79003e-15 0)
(1 -9.58627e-16 0)
(1 -1.78216e-15 0)
(1 3.62729e-15 0)
(1 3.15258e-16 0)
(1 2.30155e-15 0)
(1 3.50517e-16 0)
(1 -4.25063e-15 0)
(1 -2.98385e-15 0)
(1 -9.29602e-15 0)
(1 -3.66208e-15 0)
(1 1.6865e-15 0)
(1 2.71919e-16 0)
(1 -4.6464e-15 0)
(1 -1.22744e-15 0)
(1 3.04973e-15 0)
(1 2.11421e-15 0)
(1 2.23228e-15 0)
(1 -3.74811e-17 0)
(1 1.40563e-14 0)
(1 3.84693e-15 0)
(1 1.0077e-14 0)
(1 1.10711e-14 0)
(1 1.29662e-14 0)
(1 1.52988e-14 0)
(1 -8.18791e-16 0)
(1 -4.94881e-16 0)
(1 2.0093e-15 0)
(1 2.34355e-15 0)
(1 -4.42239e-15 0)
(1 -9.63657e-15 0)
(1 4.76894e-15 0)
(1 8.0199e-16 0)
(1 5.32581e-15 0)
(1 1.03658e-14 0)
(1 2.74482e-15 0)
(1 4.82079e-15 0)
(1 -4.38541e-15 0)
(1 -8.80084e-16 0)
(1 -2.63882e-15 0)
(1 -5.86963e-15 0)
(1 2.97026e-15 0)
(1 2.24149e-15 0)
(1 4.44805e-15 0)
(1 1.74261e-15 0)
(1 -6.7832e-15 0)
(1 -8.82283e-15 0)
(1 -1.75489e-14 0)
(1 -3.75106e-15 0)
(1 -9.55164e-15 0)
(1 1.31368e-14 0)
(1 5.71987e-15 0)
(1 1.042e-14 0)
(1 2.74634e-16 0)
(1 -6.30984e-15 0)
(1 -6.5324e-15 0)
(1 -1.20885e-15 0)
(1 -3.05372e-15 0)
(1 3.55935e-16 0)
(1 4.22788e-16 0)
(1 -8.72608e-15 0)
(1 -2.90839e-15 0)
(1 -7.05969e-15 0)
(1 -9.12538e-15 0)
(1 -6.7996e-15 0)
(1 1.9309e-15 0)
(1 1.95885e-16 0)
(1 3.49608e-15 0)
(1 -4.0588e-16 0)
(1 2.30033e-15 0)
(1 2.97858e-15 0)
(1 2.31946e-16 0)
(1 6.10331e-16 0)
(1 9.06963e-15 0)
(1 -4.24986e-16 0)
(1 2.53596e-15 0)
(1 2.44018e-15 0)
(1 8.8749e-15 0)
(1 1.06911e-14 0)
(1 9.71474e-15 0)
(1 4.97077e-15 0)
(1 3.45762e-15 0)
(1 3.90343e-16 0)
(1 3.17128e-15 0)
(1 9.21574e-17 0)
(1 5.17466e-15 0)
(1 6.47898e-15 0)
(1 1.88074e-15 0)
(1 2.18123e-15 0)
(1 9.70996e-15 0)
(1 1.52925e-15 0)
(1 1.59355e-15 0)
(1 2.60894e-15 0)
(1 -1.0543e-14 0)
(1 1.06191e-16 0)
(1 5.42468e-15 0)
(1 1.12875e-14 0)
(1 6.52515e-15 0)
(1 2.16046e-15 0)
(1 -1.13334e-15 0)
(1 -8.43419e-15 0)
(1 7.48501e-15 0)
(1 -4.57981e-15 0)
(1 -6.9021e-15 0)
(1 4.54568e-15 0)
(1 7.21737e-15 0)
(1 3.80691e-15 0)
(1 8.60503e-15 0)
(1 -1.47939e-15 0)
(1 -4.6841e-15 0)
(1 -3.6592e-15 0)
(1 -3.26701e-15 0)
(1 -8.63914e-15 0)
(1 -6.8481e-15 0)
(1 -8.51575e-15 0)
(1 1.16853e-14 0)
(1 -1.8703e-16 0)
(1 2.67141e-15 0)
(1 1.2695e-15 0)
(1 9.54167e-15 0)
(1 7.63082e-15 0)
(1 7.83271e-15 0)
(1 8.43699e-15 0)
(1 8.36562e-15 0)
(1 1.15532e-14 0)
(1 -1.15579e-15 0)
(1 1.00837e-15 0)
(1 -1.36835e-15 0)
(1 4.59884e-15 0)
(1 -6.77722e-15 0)
(1 7.38422e-15 0)
(1 -2.68125e-15 0)
(1 1.40277e-15 0)
(1 2.0345e-15 0)
(1 3.61949e-15 0)
(1 4.30156e-15 0)
(1 -5.61494e-15 0)
(1 -1.29717e-15 0)
(1 -6.89651e-16 0)
(1 6.81343e-15 0)
(1 -2.73365e-15 0)
(1 -2.20413e-15 0)
(1 -1.02251e-14 0)
(1 8.07207e-15 0)
(1 -8.38841e-15 0)
(1 -6.54859e-15 0)
(1 4.85034e-16 0)
(1 2.26867e-15 0)
(1 -6.14887e-15 0)
(1 -1.00692e-15 0)
(1 1.07039e-15 0)
(1 6.73056e-15 0)
(1 4.37321e-15 0)
(1 3.93164e-15 0)
(1 -5.03181e-15 0)
(1 -1.98692e-15 0)
(1 -2.07275e-15 0)
(1 -8.88275e-15 0)
(1 -7.36312e-15 0)
(1 -8.25864e-15 0)
(1 -5.50894e-15 0)
(1 -3.66951e-15 0)
(1 -7.47425e-15 0)
(1 -3.67294e-16 0)
(1 9.55302e-16 0)
(1 6.48455e-15 0)
(1 1.28759e-15 0)
(1 -5.08367e-15 0)
(1 6.79792e-15 0)
(1 3.44774e-15 0)
(1 -6.39291e-16 0)
(1 2.85188e-15 0)
(1 -8.54252e-15 0)
(1 7.71926e-15 0)
(1 1.82302e-15 0)
(1 5.33469e-15 0)
(1 6.31417e-15 0)
(1 5.62926e-15 0)
(1 7.12961e-15 0)
(1 2.91874e-15 0)
(1 -1.15026e-14 0)
(1 -1.61823e-15 0)
(1 5.13034e-16 0)
(1 4.28181e-15 0)
(1 1.65591e-15 0)
(1 1.09238e-14 0)
(1 1.0046e-14 0)
(1 1.25145e-14 0)
(1 1.72621e-15 0)
(1 4.27914e-15 0)
(1 6.04128e-15 0)
(1 -2.38851e-15 0)
(1 6.50754e-16 0)
(1 -2.88053e-15 0)
(1 -1.57929e-15 0)
(1 6.84965e-15 0)
(1 6.37558e-15 0)
(1 -2.43453e-15 0)
(1 -1.72336e-15 0)
(1 -9.76593e-17 0)
(1 -8.4201e-15 0)
(1 2.61176e-16 0)
(1 -4.54999e-16 0)
(1 -3.85243e-15 0)
(1 9.21375e-15 0)
(1 7.4689e-15 0)
(1 2.69251e-15 0)
(1 6.18483e-15 0)
(1 -6.00534e-15 0)
(1 2.75299e-15 0)
(1 7.88605e-16 0)
(1 -8.09254e-15 0)
(1 -5.82124e-15 0)
(1 -2.5414e-15 0)
(1 4.06631e-15 0)
(1 6.99453e-15 0)
(1 -2.92767e-15 0)
(1 -1.58851e-15 0)
(1 2.30099e-15 0)
(1 5.04805e-15 0)
(1 1.19817e-14 0)
(1 9.26827e-15 0)
(1 1.14156e-14 0)
(1 6.79929e-15 0)
(1 4.4945e-15 0)
(1 5.97885e-16 0)
(1 1.09806e-15 0)
(1 -2.75912e-15 0)
(1 -5.82191e-15 0)
(1 3.93394e-15 0)
(1 -1.56617e-15 0)
(1 -2.53502e-15 0)
(1 2.28816e-15 0)
(1 -7.13559e-16 0)
(1 3.87969e-15 0)
(1 4.35455e-15 0)
(1 -2.51293e-15 0)
(1 3.35378e-15 0)
(1 -2.37705e-15 0)
(1 3.71415e-15 0)
(1 -7.34032e-15 0)
(1 -8.25638e-15 0)
(1 -5.307e-15 0)
(1 8.07896e-15 0)
(1 3.45453e-15 0)
(1 8.68821e-15 0)
(1 7.5739e-15 0)
(1 -8.13466e-15 0)
(1 -1.52824e-14 0)
(1 2.95637e-15 0)
(1 -4.73638e-15 0)
(1 -4.96823e-16 0)
(1 -3.369e-15 0)
(1 5.00489e-15 0)
(1 5.125e-16 0)
(1 -6.89858e-15 0)
(1 -5.06708e-15 0)
(1 -1.10436e-14 0)
(1 -1.19454e-14 0)
(1 3.12604e-15 0)
(1 -3.53467e-15 0)
(1 2.45206e-16 0)
(1 -9.3116e-15 0)
(1 2.52183e-16 0)
(1 2.91338e-15 0)
(1 6.75834e-15 0)
(1 4.69819e-15 0)
(1 -6.11269e-15 0)
(1 4.47536e-15 0)
(1 -2.17707e-15 0)
(1 6.69846e-15 0)
(1 4.1904e-15 0)
(1 3.14676e-15 0)
(1 -4.21728e-15 0)
(1 4.86242e-15 0)
(1 5.55687e-15 0)
(1 3.25833e-15 0)
(1 7.70835e-15 0)
(1 7.53866e-15 0)
(1 1.18918e-15 0)
(1 6.37984e-15 0)
(1 3.92919e-16 0)
(1 3.5458e-15 0)
(1 -9.35074e-15 0)
(1 -1.01514e-15 0)
(1 -5.59873e-15 0)
(1 1.37119e-15 0)
(1 4.89353e-15 0)
(1 5.49548e-15 0)
(1 9.85006e-15 0)
(1 8.37717e-15 0)
(1 8.61099e-15 0)
(1 4.67484e-15 0)
(1 3.85543e-15 0)
(1 -7.04322e-16 0)
(1 -1.34244e-14 0)
(1 -4.61673e-15 0)
(1 1.10286e-16 0)
(1 5.55735e-15 0)
(1 4.33496e-15 0)
(1 2.00797e-15 0)
(1 -6.81459e-15 0)
(1 1.55299e-15 0)
(1 5.43783e-15 0)
(1 -2.96994e-15 0)
(1 -2.46383e-15 0)
(1 -2.94476e-15 0)
(1 -1.27827e-15 0)
(1 2.97897e-16 0)
(1 4.04267e-15 0)
(1 -4.65616e-17 0)
(1 -1.63518e-15 0)
(1 2.65566e-15 0)
(1 3.16438e-15 0)
(1 8.50937e-15 0)
(1 -4.01002e-15 0)
(1 4.21477e-16 0)
(1 -8.78864e-17 0)
(1 -1.03249e-15 0)
(1 3.23814e-15 0)
(1 5.61982e-15 0)
(1 2.34885e-15 0)
(1 5.62577e-15 0)
(1 3.39185e-15 0)
(1 1.06273e-15 0)
(1 1.92089e-16 0)
(1 1.97905e-15 0)
(1 -4.48772e-15 0)
(1 -1.90139e-15 0)
(1 2.18419e-15 0)
(1 2.66024e-17 0)
(1 5.07492e-17 0)
(1 -2.83417e-15 0)
(1 -7.724e-16 0)
(1 6.92815e-15 0)
(1 5.4239e-15 0)
(1 4.58314e-15 0)
(1 -2.68554e-15 0)
(1 -5.91014e-15 0)
(1 -8.72774e-15 0)
(1 2.79814e-15 0)
(1 -8.66402e-16 0)
(1 5.25719e-15 0)
(1 -1.21689e-14 0)
(1 7.91911e-16 0)
(1 1.70068e-15 0)
(1 7.73025e-15 0)
(1 -4.68558e-15 0)
(1 -2.96947e-15 0)
(1 -5.02628e-15 0)
(1 2.27782e-15 0)
(1 6.14983e-15 0)
(1 -1.37245e-15 0)
(1 8.40612e-15 0)
(1 -5.89741e-16 0)
(1 -1.77242e-15 0)
(1 -1.52569e-14 0)
(1 -7.60264e-15 0)
(1 -7.15343e-15 0)
(1 -9.77188e-15 0)
(1 -5.57294e-15 0)
(1 4.33164e-15 0)
(1 -5.47099e-15 0)
(1 4.52501e-15 0)
(1 -3.47192e-15 0)
(1 -3.14413e-15 0)
(1 -1.19186e-15 0)
(1 1.37286e-14 0)
(1 7.51213e-15 0)
(1 2.60916e-15 0)
(1 1.05648e-14 0)
(1 -3.0662e-15 0)
(1 1.18478e-14 0)
(1 -7.20479e-15 0)
(1 -1.87066e-15 0)
(1 -9.877e-15 0)
(1 -2.29819e-15 0)
(1 6.22675e-15 0)
(1 9.80247e-15 0)
(1 -3.97848e-16 0)
(1 1.60348e-14 0)
(1 5.79715e-15 0)
(1 4.41657e-15 0)
(1 -2.63843e-15 0)
(1 1.07275e-15 0)
(1 -1.35672e-15 0)
(1 -3.66817e-15 0)
(1 -2.68567e-15 0)
(1 1.10722e-14 0)
(1 9.75518e-16 0)
(1 6.04537e-15 0)
(1 8.71424e-15 0)
(1 6.13702e-15 0)
(1 -3.86871e-16 0)
(1 1.9922e-16 0)
(1 -8.66746e-15 0)
(1 8.82e-15 0)
(1 6.74725e-15 0)
(1 6.49253e-15 0)
(1 1.54343e-15 0)
(1 8.89705e-15 0)
(1 -1.41395e-15 0)
(1 3.88435e-15 0)
(1 1.43479e-15 0)
(1 -9.20789e-15 0)
(1 -4.73425e-17 0)
(1 1.2104e-15 0)
(1 -5.83965e-15 0)
(1 3.75287e-15 0)
(1 1.98758e-15 0)
(1 -1.44415e-15 0)
(1 -1.12291e-15 0)
(1 3.52685e-15 0)
(1 2.97192e-15 0)
(1 3.26003e-15 0)
(1 6.51192e-17 0)
(1 2.0612e-15 0)
(1 1.75184e-15 0)
(1 6.13578e-15 0)
(1 -3.90129e-17 0)
(1 5.68849e-15 0)
(1 1.75784e-15 0)
(1 7.24765e-15 0)
(1 1.52831e-15 0)
(1 -9.23746e-16 0)
(1 -6.26158e-16 0)
(1 2.29911e-15 0)
(1 -5.05045e-16 0)
(1 3.70783e-16 0)
(1 -2.8076e-15 0)
(1 4.10886e-15 0)
(1 -4.70795e-15 0)
(1 -2.38445e-15 0)
(1 4.86777e-15 0)
(1 -3.81046e-15 0)
(1 1.04509e-14 0)
(1 6.28984e-15 0)
(1 2.34646e-15 0)
(1 -1.28512e-14 0)
(1 -1.2191e-14 0)
(1 1.74519e-15 0)
(1 -7.2321e-15 0)
(1 4.76307e-15 0)
(1 -1.45164e-14 0)
(1 6.78209e-15 0)
(1 8.23391e-15 0)
(1 1.02608e-15 0)
(1 5.4958e-15 0)
(1 -2.85647e-15 0)
(1 -8.83964e-15 0)
(1 -9.15378e-15 0)
(1 -4.64715e-15 0)
(1 8.71846e-16 0)
(1 2.95878e-15 0)
(1 -1.81551e-15 0)
(1 -2.9857e-15 0)
(1 -3.68805e-15 0)
(1 -8.03719e-16 0)
(1 -2.06106e-15 0)
(1 -6.99424e-15 0)
(1 1.29516e-15 0)
(1 -7.98761e-15 0)
(1 -1.05238e-15 0)
(1 4.15399e-15 0)
(1 -4.94509e-15 0)
(1 -6.67785e-15 0)
(1 -1.30977e-15 0)
(1 1.5047e-14 0)
(1 4.25935e-15 0)
(1 9.01009e-15 0)
(1 2.53929e-15 0)
(1 -8.88401e-15 0)
(1 3.3912e-15 0)
(1 -4.78335e-15 0)
(1 -6.14935e-15 0)
(1 -5.01101e-15 0)
(1 2.29802e-15 0)
(1 9.14755e-15 0)
(1 9.41657e-15 0)
(1 1.32561e-14 0)
(1 8.58115e-15 0)
(1 2.19861e-15 0)
(1 7.38967e-15 0)
(1 3.83304e-15 0)
(1 -9.86424e-16 0)
(1 5.25056e-15 0)
(1 -2.18512e-15 0)
(1 7.93999e-15 0)
(1 1.38682e-15 0)
(1 6.78463e-15 0)
(1 7.87048e-15 0)
(1 1.01843e-14 0)
(1 4.36719e-15 0)
(1 5.81458e-15 0)
(1 4.27091e-15 0)
(1 1.0097e-14 0)
(1 2.22798e-15 0)
(1 -1.82303e-15 0)
(1 1.92254e-15 0)
(1 -5.65724e-16 0)
(1 2.67954e-15 0)
(1 1.33556e-15 0)
(1 5.64552e-15 0)
(1 -1.43572e-15 0)
(1 -6.74984e-15 0)
(1 1.41121e-15 0)
(1 1.09051e-15 0)
(1 -4.28809e-15 0)
(1 4.77118e-16 0)
(1 -2.3735e-15 0)
(1 4.37008e-16 0)
(1 -2.16639e-15 0)
(1 5.173e-15 0)
(1 1.15484e-15 0)
(1 -3.88405e-15 0)
(1 -2.00281e-17 0)
(1 -1.43401e-15 0)
(1 1.2966e-15 0)
(1 6.32026e-15 0)
(1 3.89003e-15 0)
(1 2.23276e-15 0)
(1 -3.71551e-15 0)
(1 3.35215e-15 0)
(1 7.73967e-15 0)
(1 6.28513e-15 0)
(1 -1.66992e-15 0)
(1 1.28651e-15 0)
(1 1.18554e-15 0)
(1 -1.05355e-15 0)
(1 4.30734e-15 0)
(1 4.16777e-15 0)
(1 5.5799e-15 0)
(1 2.28306e-15 0)
(1 4.142e-15 0)
(1 -6.47339e-15 0)
(1 -2.97219e-15 0)
(1 -3.53392e-15 0)
(1 -6.31109e-17 0)
(1 -2.47006e-15 0)
(1 -8.25488e-15 0)
(1 -5.07826e-15 0)
(1 -9.00446e-15 0)
(1 2.01028e-16 0)
(1 9.00997e-15 0)
(1 -1.97221e-15 0)
(1 -2.15177e-15 0)
(1 -8.30022e-15 0)
(1 7.57763e-15 0)
(1 1.34169e-15 0)
(1 -4.64645e-15 0)
(1 -3.47372e-15 0)
(1 1.09765e-15 0)
(1 5.15013e-15 0)
(1 -8.50573e-15 0)
(1 -6.64136e-16 0)
(1 -1.00147e-14 0)
(1 2.60845e-15 0)
(1 -3.28119e-15 0)
(1 -4.74831e-15 0)
(1 -2.64486e-15 0)
(1 -4.28409e-15 0)
(1 -6.83551e-15 0)
(1 -1.98225e-15 0)
(1 -1.35864e-15 0)
(1 4.17272e-15 0)
(1 3.86862e-15 0)
(1 2.30997e-15 0)
(1 -1.96268e-15 0)
(1 5.70221e-15 0)
(1 7.00345e-15 0)
(1 3.21693e-15 0)
(1 1.70439e-15 0)
(1 -3.77166e-15 0)
(1 -8.65925e-15 0)
(1 -1.46719e-14 0)
(1 6.35026e-15 0)
(1 1.51111e-14 0)
(1 1.14678e-14 0)
(1 6.23199e-15 0)
(1 1.3454e-14 0)
(1 5.98606e-15 0)
(1 1.33201e-15 0)
(1 5.42537e-15 0)
(1 1.40507e-15 0)
(1 -3.65509e-15 0)
(1 -6.42502e-15 0)
(1 1.02013e-15 0)
(1 1.7045e-15 0)
(1 -5.43415e-15 0)
(1 1.2984e-14 0)
(1 1.95725e-15 0)
(1 3.19488e-15 0)
(1 1.85631e-15 0)
(1 5.43538e-15 0)
(1 5.30442e-15 0)
(1 2.40649e-15 0)
(1 -4.58366e-15 0)
(1 -4.12492e-16 0)
(1 6.20339e-15 0)
(1 1.82318e-16 0)
(1 1.80569e-15 0)
(1 4.67078e-16 0)
(1 1.78307e-15 0)
(1 4.43e-16 0)
(1 2.40907e-15 0)
(1 -5.27186e-15 0)
(1 -4.58961e-15 0)
(1 2.56031e-15 0)
(1 1.05356e-15 0)
(1 1.07288e-15 0)
(1 8.39676e-16 0)
(1 6.75617e-16 0)
(1 6.34695e-15 0)