/*--------------------------------*- C++ -*----------------------------------*\
| =========                 |                                                 |
| \\      /  F ield         | OpenFOAM: The Open Source CFD Toolbox           |
|  \\    /   O peration     | Version:  v2012                                 |
|   \\  /    A nd           | Website:  www.openfoam.com                      |
|    \\/     M anipulation  |                                                 |
\*---------------------------------------------------------------------------*/
FoamFile
{
    version     2.0;
    format      ascii;
    class       volScalarField;
    location    "0";
    object      p;
}
// * * * * * * * * * * * * * * * * * * * * * * * * * * * * * * * * * * * * * //

dimensions      [0 2 -2 0 0 0 0];


internalField   nonuniform List<scalar> 
4000
(
-0.0497203
-0.0360287
-0.0493069
-0.0715202
-0.0376545
0.0313447
-0.0465775
-0.137309
0.01356
0.141593
0.121176
0.127595
0.0779198
-0.104313
-0.00382089
0.131697
0.18003
-0.0188116
-0.104548
-0.0821342
0.0346411
0.0568264
-0.0302967
-0.0438278
-0.236435
-0.274049
-0.218673
-0.122653
0.202155
0.389532
0.221974
0.0349404
0.010122
0.0969054
0.26334
0.211441
0.301193
0.154816
0.0710914
-0.0484843
-0.0888293
-0.0385144
-0.0965748
-0.0467562
0.0326152
-0.0172864
-0.0405845
-0.0623864
0.00194621
-0.0100255
0.0253846
0.0363156
0.0653281
0.158242
0.128992
0.12921
0.0330387
-0.0109199
-0.0101794
0.000128849
-0.0933915
-0.070502
-0.170612
-0.182225
-0.160056
-0.186716
-0.15093
-0.220594
-0.0447759
-0.0153276
-0.0716742
-0.0661773
-0.012674
-0.119388
-0.0441201
-0.0036879
0.0337896
-0.0698996
-0.0993899
-0.127569
-0.121711
-0.169725
-0.0825511
-0.027744
-0.0731502
-0.117248
-0.0562743
0.0328705
0.0756362
0.109721
0.0626633
-0.0107115
-0.128572
-0.147412
-0.221359
-0.250961
-0.0314949
0.04993
-0.0112404
-0.0272658
-0.0505713
-0.0249691
-0.124299
-0.075965
-0.0142373
0.0187288
-0.0129404
-0.0642143
-0.00300829
0.02026
0.129685
0.125858
0.0675309
0.0128672
0.0909632
0.0878436
0.0596273
0.0164267
-0.0733147
-0.0105362
-0.0532823
-0.044156
0.0235823
-0.095503
-0.220733
-0.226231
-0.170281
-0.0206198
0.181914
0.324325
0.158978
0.087091
0.0447647
0.0220391
0.189175
0.280788
0.270277
0.13499
0.114403
0.0110241
-0.0766883
-0.0769975
-0.0910433
-0.0115853
-0.0513015
-0.0305168
-0.0354115
-0.0141167
-0.0610937
-0.000975746
0.0424305
0.0572779
0.108083
0.173258
0.158585
0.078223
-0.0398342
-0.0687438
-0.0316449
-0.0145709
0.00282185
-0.00257069
-0.188347
-0.269313
-0.115504
-0.174821
-0.219156
-0.164263
-0.0889028
-0.0690277
0.0139648
-0.0646683
-0.0682827
-0.0611666
-0.0275311
-0.0124677
0.0235831
-0.0677729
-0.125053
-0.0908214
-0.11957
-0.168781
-0.158376
-0.0671747
-0.0890536
-0.0445249
0.055433
-0.0256868
0.0447014
0.15706
0.0257513
-0.053574
-0.136797
-0.154514
-0.172842
-0.141137
-0.0868292
-0.0423302
0.00755502
-0.0283573
-0.0223393
0.0145076
-0.113201
-0.0832134
-0.0536763
0.0406721
-0.00702899
-0.0144731
-0.0578157
-0.0203608
0.115414
0.087474
0.0263412
0.0434124
0.226892
0.115761
-0.0410917
-0.0728733
-0.0104353
0.056757
-0.0764705
-0.138591
-0.00555086
-0.0414173
-0.21827
-0.281465
-0.175017
0.0328162
0.09456
0.25946
0.189951
0.164159
0.0755609
0.113715
0.163061
0.164083
0.190396
0.160613
0.0654482
0.0535534
-0.0710069
-0.0980611
-0.0197357
0.0346425
0.002421
-0.116169
-0.158681
-0.0660476
-0.0460544
0.0337775
0.0130658
0.0487066
0.0238774
0.137667
0.09012
0.0741139
0.0225074
0.0212075
0.00788986
0.0158547
-0.00440406
-0.118779
-0.189561
-0.224349
-0.205742
-0.192969
-0.218213
-0.144048
-0.0810092
-0.0643641
-0.0258023
-0.0436509
-0.00534231
0.00254171
-0.0375926
-0.0403307
0.000277486
0.00982884
-0.109954
-0.0475447
-0.0992698
-0.159233
-0.243535
-0.0936298
-0.0566485
-0.0412105
0.0516528
0.0125548
0.0602871
0.0856406
0.0217279
-0.0518973
-0.0931783
-0.126966
-0.186046
-0.159089
-0.0957096
-0.0774182
0.0411305
-0.0100537
-0.00520846
0.0251412
-0.0947963
-0.10289
-0.0332312
0.0299546
-0.00274306
0.0472872
-0.010234
0.0444649
0.0796315
0.0125744
0.0889245
0.108383
0.184032
0.0925273
-0.0707159
-0.0728387
-0.039407
0.0924147
-0.101071
-0.168286
-0.041568
-0.116615
-0.238253
-0.225483
-0.156514
0.0734449
0.209074
0.201231
0.175709
0.141784
0.114674
0.116824
0.0928067
0.165177
0.139159
0.111633
0.0565457
-0.00600633
-0.0647837
-0.00539089
-0.0312954
-0.0631581
-0.0471319
-0.0327551
-0.0856833
-0.0955142
-0.111902
0.0381366
0.0433077
-0.0307422
0.0098029
0.0878456
0.144249
0.0357758
0.0136062
0.00726509
-0.0575809
-0.100848
-0.0209325
-0.0825844
-0.132022
-0.152007
-0.214322
-0.211032
-0.181877
-0.10198
-0.0609016
-0.0752754
-0.0806626
-0.0307524
0.00778099
0.0084652
0.000900079
-0.0641868
-0.0686002
0.0278844
0.0150268
-0.0282017
-0.111098
-0.141014
-0.131
-0.0775231
-0.0710245
-0.0321346
0.0508473
0.00467558
0.0142163
0.0665139
0.0383591
-0.0453253
-0.0764409
-0.137156
-0.124261
-0.119277
-0.0827731
-0.0677333
-0.0379829
-0.0329302
-0.0100013
0.00237985
-0.0782699
-0.0218787
0.00846042
0.00126613
-0.0230297
-0.0185346
0.0249776
0.0129107
0.0371689
0.0209376
0.119336
0.187928
0.17884
0.036166
-0.0192809
-0.064731
-0.0720625
0.00794459
-0.0388852
-0.160159
-0.133699
-0.104934
-0.179522
-0.157559
-0.120373
0.0412517
0.154911
0.154964
0.202859
0.0499196
0.0944654
0.0680834
0.13268
0.16558
0.0620064
0.0356618
0.0436909
0.0760892
0.0161105
0.0610026
-0.0785432
-0.0899126
-0.115953
-0.0505148
-0.063454
-0.0956292
-0.150495
0.0391864
0.0644555
0.0422024
-0.0287769
-0.0285469
0.125996
0.0280192
-0.0290296
0.0212934
0.0162336
-0.0902762
-0.073745
-0.129036
-0.114929
-0.152539
-0.179223
-0.171543
-0.15966
-0.14486
-0.0662919
-0.0382474
-0.0448722
0.0164108
0.0860659
0.0497077
0.0125152
-0.0329947
-0.0114765
0.0355563
0.0223053
-0.0589007
-0.0655226
-0.101534
-0.109359
-0.0975285
-0.0435051
-0.0533564
0.028493
0.0313328
0.041357
0.0237914
-0.0376679
-0.0294018
-0.0570905
-0.0879838
-0.0634033
-0.0961312
-0.131758
-0.124942
-0.068492
-0.043519
0.00167817
0.0305939
-0.0406989
-0.127453
-0.0378359
-0.00731659
0.0576253
-0.0119415
0.061782
0.0228195
0.0771453
0.114086
0.051459
0.0942495
0.120734
0.0462468
-0.0737423
-0.131312
-0.00470583
0.0885549
-0.012295
-0.166995
-0.240064
-0.25764
-0.189951
-0.113495
-0.0512118
0.0301042
0.174963
0.156952
0.126345
0.0850328
0.118218
0.122887
0.123784
0.158814
0.0630294
-0.0179106
0.0192836
0.0143395
0.00442317
0.0167289
-0.125899
-0.0929102
-0.0949358
-0.0574292
-0.0801419
-0.0288125
-0.110823
0.00788054
-0.00873591
0.00115932
0.0122691
-0.00672153
0.0332145
0.0261619
0.0344507
-0.00188966
0.000557834
-0.0855832
-0.0368894
-0.117029
-0.127
-0.153656
-0.113072
-0.127959
-0.134465
-0.100299
-0.0158054
0.0225069
-0.0498228
-0.014676
0.0543224
0.078106
-0.0141625
-0.011514
0.0451447
-0.000805645
0.0970547
-0.0551485
-0.0682005
-0.0881176
-0.0925616
-0.0127372
0.0036567
-0.0106558
-0.00633727
0.033465
0.0364211
0.0101166
-0.0274432
-0.0183689
-0.0311756
-0.00373603
-0.0294801
-0.0879701
-0.138321
-0.129246
-0.0732817
0.00835657
-0.0221417
0.0334732
0.036033
-0.0352179
-0.125096
-0.158621
0.0153953
-0.0280668
0.0315711
-0.0195032
0.0693946
0.183386
0.0639745
0.118745
0.169554
0.0372326
0.0101305
-0.127499
-0.171728
-0.0436727
-0.0363689
-0.131687
-0.114274
-0.144935
-0.213305
-0.13202
-0.000238035
0.0234695
0.106414
0.163521
0.152714
0.119452
0.0769232
0.0192143
0.063525
0.201781
0.0727892
-0.0697851
0.00369833
0.0162124
0.0878571
0.0802026
-0.0880163
-0.116947
-0.0983611
-0.119649
-0.116828
-0.0811247
-0.0969906
0.0152134
-0.0289721
-0.0113641
0.0521588
0.0576161
0.153754
0.0280806
-0.0205004
-0.0221627
0.0596322
0.00654397
-0.0299854
-0.181188
-0.203513
-0.0973979
-0.077896
-0.095891
-0.1492
-0.160255
-0.00651444
0.0568652
0.0672234
0.00213468
0.0383035
0.0615453
0.0405116
0.0215879
-0.0139345
0.0632944
0.177181
0.0714711
-0.0519432
-0.0766344
-0.0312167
-0.0768625
-0.0607547
-0.0315883
-0.0370472
-0.00456402
0.0271868
0.00687327
0.0210951
0.0369554
-0.0147024
-0.0407794
-0.0030489
-0.076979
-0.116417
-0.12154
-0.0689043
-9.74089e-05
-0.016782
-0.00823276
0.050169
-0.0815566
-0.0767823
0.0101769
0.0847659
-0.0645761
-0.0406128
-0.0333137
0.142306
0.193734
0.049113
0.106058
0.116791
0.0287591
-0.0218875
-0.0679746
-0.186711
-0.050948
-0.0231442
-0.0954619
-0.237787
-0.221671
-0.223852
-0.0600138
0.0610167
0.0349566
0.10729
0.0985989
0.19205
0.161933
0.1545
0.0336603
0.0888559
0.151252
0.0830745
-0.0216372
0.0427292
-0.00983521
-0.0492082
-0.000226942
-0.0709634
-0.0101351
-0.0575041
-0.126243
-0.113973
0.002851
-0.0952505
-0.0425531
-0.0128272
0.0330684
-0.00563326
-0.0267591
0.140605
0.105737
0.0220486
0.0351946
-0.00754053
0.00102426
-0.0300199
-0.128276
-0.151151
-0.107643
-0.0807376
-0.0627906
-0.0606689
-0.0958575
-0.0117004
0.0305569
0.0614436
0.0747375
0.0490733
0.00883292
-0.00512329
0.0118682
0.0537605
0.139152
0.11578
0.111683
0.0127444
-0.0748973
0.00167538
-0.00166778
-0.00756072
-0.0369753
-0.0256123
-0.058913
-0.0205594
0.0572812
0.0626293
-0.00277126
0.0083476
-0.00306243
-0.0111177
-0.06049
-0.079226
-0.0709587
-0.0535249
-0.0956936
0.0410119
-0.0507492
0.0545517
0.0815067
-0.0111734
-0.0582993
-0.0441835
-0.0152689
-0.0131086
0.0153313
0.105638
0.0830464
0.146141
0.138921
0.136691
0.0761068
-0.0153519
-0.159175
-0.192184
-0.0110023
-0.0506041
-0.191343
-0.316035
-0.277159
-0.0872346
0.0189544
-0.0167626
0.0311067
0.0695021
0.104051
0.198016
0.147622
0.0747129
-0.0139767
-0.000375562
0.0595323
0.0838189
0.0397635
-0.0357677
0.0076193
0.0705373
-0.00627964
-0.122587
-0.0223936
-0.0809496
-0.0948503
-0.104151
-0.0457849
-0.0690853
-0.072062
-0.0208236
0.0410696
0.00835891
0.0858717
0.168558
0.139453
0.0771014
0.104627
-0.0112658
-0.044145
-0.0762307
-0.0604438
-0.0708286
-0.102211
-0.105041
-0.0749323
-0.0149029
-0.0609973
-0.0415325
0.0300481
0.021067
0.0368215
0.108654
0.121884
0.00382185
0.0325132
0.0861134
0.113026
0.136418
0.165484
0.0545548
-0.0183469
-0.0194775
-0.047828
-0.031198
-9.74373e-05
-0.0488594
-0.102396
0.0199231
0.0881155
0.0693477
-0.0170653
0.0328171
-0.0152351
-0.0663933
-0.0393528
0.0033632
-0.0356382
-0.00308482
-0.0105173
-0.0279909
0.00513591
0.0990498
0.0046216
0.0319514
-0.0538321
0.0183077
-0.00592779
-0.120258
0.0176946
0.0956351
0.113816
0.117456
0.155917
0.126768
0.00500335
-0.0749132
-0.0243637
-0.0843901
-0.0472574
-0.177154
-0.303603
-0.137411
-0.192365
-0.112302
-0.0474776
0.0719251
0.0473343
-0.0204681
4.37041e-05
0.154812
0.0817772
0.0977823
0.0342434
-0.000747593
0.0090287
0.0652084
0.0715606
0.0640297
0.00104313
-0.112777
-0.130446
-0.0730284
-0.0362791
-0.0839251
-0.0393133
-0.0315182
-0.0674622
0.0315517
-0.051898
-0.0373124
0.00940076
0.0178893
0.0998981
0.16162
0.17612
0.0967337
0.0602254
0.0490142
0.0641846
-7.07847e-05
-0.0162338
0.0131766
-0.140863
-0.0930521
-0.0958903
-0.0591404
-0.00332508
-0.0279738
0.00126436
0.162493
0.00367468
0.0648089
0.133973
0.0914015
0.0843632
0.159072
0.160544
0.0483216
0.0692613
-0.0258855
0.0730853
0.0788256
-0.0179731
-0.0666515
-0.0140977
-0.0465493
0.02175
-0.00360171
0.0817274
0.0582519
-0.0254753
0.0539225
0.00295327
-0.0445856
-0.042568
0.0404342
0.0133072
0.0339302
-0.000546187
0.00736038
0.0365055
0.0572893
0.018052
0.0149751
-0.0113345
0.000954973
-0.0649297
-0.027783
0.0322573
0.114639
0.115211
0.0996441
0.218178
-0.010481
-0.0105315
-0.0254907
-0.0702558
-0.0738511
0.000111984
-0.151247
-0.382722
-0.241556
-0.210577
-0.0856228
-0.0301786
0.0554717
0.0465745
-0.0237105
-0.0550974
0.0573595
0.0671034
0.0890484
0.0777578
0.00762428
0.0645162
0.0999729
0.0321585
0.0280066
0.0027233
-0.0085467
-0.0884747
-0.121057
-0.103097
-0.0898712
-0.0432696
-0.0176124
-0.0379382
-0.0217709
0.0240514
-0.0503151
0.10902
0.0301897
0.124596
0.205246
0.213956
0.087484
0.104912
0.0804735
0.0949828
-0.0788826
-0.074143
-0.0621375
-0.0796595
-0.00459773
0.00624856
-0.0505642
0.00245982
0.133859
0.0555387
-0.0391255
0.00553089
0.128462
0.206026
0.109381
0.0624095
0.131418
0.0862096
0.103803
0.0869806
0.0747858
0.081694
-0.0333565
-0.0106629
0.0764865
0.0358308
-0.0372049
-0.0213136
-0.0776184
0.063181
0.0840448
-0.0249024
0.0514191
0.0277242
-0.0207023
-0.0707248
0.0684688
0.0383317
0.116383
-0.00138055
0.0443881
0.0636278
0.14658
-0.00664931
0.0302536
0.0230133
-0.0239599
-0.0383433
0.0133885
-0.00759495
0.0111137
0.0846092
0.0997243
0.0809833
0.0381614
0.00494932
-0.0464238
-0.0792662
-0.0629609
-0.0772467
-0.22478
-0.265896
-0.107906
-0.0903014
-0.0166459
-0.0991214
-0.0270819
0.00370374
-0.0587813
-0.108758
0.0398159
0.087529
0.103013
0.0937905
-0.0253485
0.0353862
0.0774214
0.00625758
0.0785835
0.00336071
-0.0255862
-0.0633105
-0.103788
-0.229494
-0.0529963
-0.00441577
-0.0216532
-0.0207804
-0.0658165
0.0524352
0.0234368
0.148555
0.0636893
0.109272
0.135144
0.164766
0.134654
0.130355
0.109679
0.0895467
0.0313976
0.0387464
-0.0168972
-0.14587
-0.116153
-0.00307908
0.141221
0.0099382
-0.017252
0.0327539
0.134441
0.161665
0.00044149
0.0837643
0.141998
0.219432
0.117964
0.037228
0.141285
0.137407
0.0340028
0.0347679
0.0291422
0.0340939
-0.00286366
0.0163306
-0.00201679
-0.0229237
0.0268023
0.065933
0.0372593
-0.0236476
0.0487601
0.0250482
0.0538633
0.0525841
0.0459446
0.00464892
0.0369749
-0.0119376
0.050897
0.0619658
0.107542
0.0732621
0.0512465
0.0067659
-0.064968
-0.0574934
-0.0413639
0.0126362
0.0670631
0.0684687
0.14799
0.118421
0.0126231
-0.0510803
-0.12992
-0.107851
0.00573987
-0.0565749
-0.247602
-0.199603
-0.14774
-0.102353
-0.0423649
-0.18087
-0.0449553
0.0151123
-0.0370078
0.0252251
0.0142299
-0.0637011
0.0532017
0.0883331
0.022832
0.0285652
0.093227
0.0710801
0.0782394
0.0380267
-0.0307858
-0.0565215
-0.159894
-0.198905
-0.104774
-0.0241135
-0.0143544
-0.00751975
0.0255139
0.0106243
0.0527586
0.0826736
0.111854
0.115125
0.201985
0.196851
0.141933
0.102955
0.0405534
0.11897
0.125448
0.0605772
-0.0716046
-0.0709177
-0.0370388
0.0339822
0.0393754
0.0353038
-0.0264548
0.00659562
0.0617909
0.0608064
0.115739
0.124357
0.18685
0.119673
0.0982929
0.157052
0.0440318
0.0419924
0.0544522
0.147793
0.0912066
0.0721546
-0.00196849
0.0176546
0.0187823
0.0577654
-0.00627802
0.0200612
0.0643685
0.0878706
0.0404162
0.0297452
0.0546615
0.0601179
0.015313
-0.0147989
0.00436604
-0.0146476
0.0865713
0.0808932
0.0731234
0.0240421
0.014602
0.00262187
0.014983
0.0101254
0.0276297
-0.0644021
-0.0570059
-0.0207102
0.0844108
0.0870756
0.0884589
0.0533704
-0.114042
-0.136746
-0.0878892
-0.0486243
-0.160263
-0.185527
-0.146835
-0.101613
-0.0023158
-0.0352445
-0.0901318
-0.0713394
-0.122736
-0.0645869
-0.0535783
-0.0105394
0.0682436
0.102949
0.00447845
0.0826551
0.130163
0.064401
-0.0421978
0.0242282
-0.0280228
-0.056153
-0.121228
-0.141894
-0.145689
-0.0806889
-0.0658044
-0.00644151
9.19484e-06
0.0225024
0.0940056
0.123407
0.130429
0.105105
0.206933
0.192001
0.0939173
0.0602544
0.0911388
0.115981
0.051641
0.0954611
0.0749649
0.0189005
0.0668655
0.00687042
-0.0119078
-0.0116682
0.0193134
-0.0234379
0.0501047
0.12353
0.117095
0.0610036
0.112899
0.126887
0.122315
0.0979096
0.0131846
0.0775011
0.106198
0.0544418
0.0431658
0.108069
0.0488328
0.0408813
0.0365817
0.0921396
0.0438674
0.0464086
0.0858119
0.0232268
0.0507045
0.0449442
-0.043076
0.0441441
-0.00890952
0.0612735
-0.00725312
-0.0674518
0.0755706
0.112643
0.0979799
-0.0128298
0.020767
0.0282192
-0.0377517
-0.0168623
0.031399
-0.0720956
-0.00205534
0.00586572
0.0760363
0.095974
0.0783844
-0.0134243
-0.109445
-0.223949
-0.0885435
-0.0560761
-0.103687
-0.211761
-0.108815
-0.120797
0.0338801
-0.0220615
-0.0925747
-0.0518307
-0.174936
-0.210757
-0.082403
-0.0192374
0.0887295
0.117928
0.0564007
0.0876976
0.117496
0.0717756
0.0906984
-0.00783088
-0.0237066
-0.0885767
-0.204978
-0.108064
-0.0512866
-0.176112
-0.0482175
-0.0027644
-0.0333651
-0.0918596
0.000347231
0.170595
0.229364
0.176715
0.176477
0.117373
0.140239
0.0954292
0.171549
0.146376
0.0751688
0.137174
0.0880823
0.0494566
0.0312538
-0.0525582
-0.00606685
0.0108375
0.0083002
-0.0530789
0.0231002
0.113402
0.103268
0.060087
0.0161387
0.0535695
0.0792754
0.098144
0.0729615
0.10861
0.0839597
0.0922349
0.0924417
0.0536352
0.0716063
0.0949483
-0.0349501
0.0732518
0.073695
0.088943
0.0475654
0.0357865
0.0128463
0.0405953
-0.0540021
0.0058857
-0.00842315
-0.00567171
0.0154177
-0.0070779
0.0939667
0.0841662
-0.0325097
0.0171693
0.0530121
0.0378025
0.0194418
-0.0196083
-0.0106443
-0.0743621
-0.072286
0.0152154
0.0930533
0.035811
-0.0386133
-0.0590064
-0.0814472
-0.200922
-0.00386884
0.0602347
-0.0543478
-0.181965
-0.25691
-0.156493
-0.0155869
0.0481302
-0.0410209
-0.058044
-0.150994
-0.145403
-0.0368902
0.0477012
0.090019
0.0452089
0.0805067
0.151602
0.0524748
0.0414818
0.115798
-0.0658999
-0.1012
-0.133788
-0.150814
-0.163261
-0.101962
-0.0571959
-0.0777522
-0.116061
-0.0118864
-0.00502083
0.0701511
0.107796
0.134966
0.174712
0.144491
0.168924
0.0860738
0.0483434
0.133277
0.217108
0.161881
0.194699
0.187752
0.0683643
0.0571633
-0.0393313
-0.0684912
0.0326145
-0.0125205
-0.0311994
-0.0720884
-0.029323
0.0861094
0.081794
0.0675439
0.000452988
0.106045
0.134411
0.0277195
0.119472
0.119155
0.124352
0.0337163
0.112249
0.177642
0.0628057
-0.0117565
0.0935037
0.109254
0.0907531
0.00498598
0.0327706
0.0141597
0.0306552
-0.162176
-0.00775582
0.109406
0.04143
-0.0147976
-0.041188
0.0738809
0.113253
0.081178
0.023396
0.030531
-0.00169264
-0.0238013
0.00313943
-0.0260378
-0.103746
-0.0763794
0.0629639
0.075132
-0.0371673
-0.0623741
-0.064321
-0.00589686
-0.0800762
-0.122554
-0.0807492
-0.107652
-0.0254644
0.0483909
-0.036919
-0.119106
-0.0864757
-0.0857625
-0.136694
-0.147949
-0.101345
-0.0533204
0.0935839
0.0271716
0.00592349
0.151984
0.185409
0.095911
0.0714214
0.0511691
-0.0415735
-0.130682
-0.169369
-0.0728007
-0.0647639
-0.138743
-0.161837
-0.101876
-0.0601946
-0.104312
-0.0259613
0.0511839
0.0965826
0.0987982
0.107819
0.132058
0.185822
0.0592827
0.115152
0.170065
0.199626
0.185737
0.125701
0.204176
0.10801
-0.0373842
-0.0579043
-0.0615474
-0.0184774
-0.0207349
-0.0623544
-0.0453241
-0.0268345
-0.00531581
-0.00342047
0.0678148
0.0432931
0.062641
0.137834
0.0923081
0.0742097
0.100687
0.0523224
0.0486402
0.155726
0.165917
0.0771794
0.0474737
0.113802
0.130228
0.0917121
-0.0207784
0.0145161
0.0219569
-0.0199647
-0.109001
-0.0116645
0.0754347
0.0775679
0.0668812
-0.0130445
0.0850781
0.0811286
0.0878874
0.0786719
0.0461528
0.054993
-0.0289851
-0.0663248
-0.0901418
-0.109081
-0.11066
0.0825664
0.0126779
-0.0518071
-0.1547
-0.0883158
0.0188236
-0.030728
0.0232288
0.0559914
0.019406
-0.0208876
0.00378796
0.00115039
-0.0805013
-0.0707747
-0.0558732
-0.0532238
-0.0411208
-0.0568444
-0.0451917
0.0334416
0.117859
0.0541418
0.15129
0.128539
0.0539191
0.149645
-0.0218134
-0.142842
-0.213564
-0.200357
-0.109308
-0.0672525
-0.0616352
-0.153619
-0.0680199
-0.104327
-0.0508273
-0.0150693
0.0655344
0.00887278
0.0722181
0.0444413
0.0828005
0.161203
0.118206
0.177161
0.140542
0.204419
0.2644
0.110917
0.141191
0.0500741
0.0443732
-0.0507524
-0.0838521
-0.0492882
-0.0296003
-0.0204502
-0.10584
-0.0297977
-0.0364481
-0.105798
0.115591
0.0781283
0.109292
0.0484122
0.0962528
0.0873476
0.0696052
0.00669541
0.0768122
0.198561
0.14028
0.103194
0.0522609
0.126551
0.146316
0.0194787
0.0311069
-0.028923
0.0228157
0.00641766
-0.035231
0.0169755
0.0838244
0.0712216
0.076942
-0.000661834
0.0711208
0.119271
0.110034
0.0462539
0.0670876
0.0508598
-0.0207196
-0.0881285
-0.0763678
-0.0699712
-0.144137
-0.1004
-0.0494559
-0.00258453
0.0192642
-0.00446137
-0.00780553
-0.0743076
0.0171764
0.0427658
0.0185579
0.0921072
0.0892908
0.0210279
-0.119035
-0.0749534
0.0260427
-0.0464331
0.00821699
0.0211325
-0.0490056
0.0314588
0.00449142
0.1341
0.23129
0.107253
0.0506629
0.0784589
-0.167567
-0.268441
-0.13445
-0.115516
-0.10022
0.00448971
-4.50234e-05
-0.193739
-0.153332
-0.105694
-0.0600416
-0.0707641
-0.0201846
0.0308316
0.0601325
0.00881892
0.11922
0.209521
0.23242
0.222898
0.154164
0.184099
0.138233
0.137424
0.143004
0.0125852
0.0190707
-0.0360923
-0.0848052
-0.0997961
-0.068936
-0.0746333
-0.105009
-0.0824937
-0.0752361
-0.0249308
0.0577731
0.0955137
0.0276764
0.0600966
-0.00914166
0.0615456
0.0232823
-0.0682566
0.0385198
0.159785
0.181375
0.13554
0.1273
0.124679
0.0750283
0.0520415
-0.0556363
0.0535269
-0.0121011
0.0613016
0.00220471
0.00781769
0.0601249
0.0585033
0.0668173
0.0419445
0.0734314
0.13701
0.126993
0.0682733
0.0493497
0.0526152
-0.116016
-0.0617105
-0.0804722
-0.0890012
-0.183801
-0.142403
-0.122736
-0.0660335
0.0219896
0.0388827
0.00603939
-0.0194138
0.00439551
0.136751
0.138788
0.0906514
0.104893
0.0802309
-0.0913938
-0.0317724
-0.0197536
0.0526015
-0.0141064
-0.105756
0.035724
0.0580215
0.119629
0.196875
0.176069
0.125178
0.0266388
-0.0211322
-0.144236
-0.266632
-0.276076
-0.0964184
0.0548226
0.0207465
-0.123262
-0.171096
-0.0795364
-0.0107608
-0.032081
-0.120116
-0.0442209
0.0445858
0.059392
0.0611201
0.0791032
0.0972503
0.25115
0.315809
0.214625
0.174264
0.115272
0.144577
0.12375
0.0774998
-0.00163639
-0.0755465
-0.12028
-0.144253
-0.0320831
-0.109253
-0.177567
-0.138359
-0.12023
-0.0252443
-0.0414157
0.0578543
0.0463895
0.0577579
0.0471551
0.01951
0.0283022
0.0194435
0.0375184
0.134338
0.224398
0.221197
0.138767
0.0888413
0.0918111
0.0258137
0.0154012
0.0348927
-0.0106937
-0.0214296
-0.0289897
0.103381
0.11395
0.0528729
0.037212
0.0908996
0.117796
0.143349
0.109034
0.103546
0.00795451
0.0482391
-0.0650386
-0.110887
-0.124797
-0.197059
-0.210052
-0.0817239
-0.0790428
-0.0540357
-0.02854
0.0231776
0.0233552
-0.0263399
0.0023957
0.0820679
0.124086
0.0724594
0.101984
0.0695326
0.00925117
-0.0575249
-0.060141
0.0157399
0.0617938
0.0391945
0.0423693
0.0421318
0.0739072
0.0926044
0.101181
0.113355
0.0474586
-0.0108211
-0.0337123
-0.129815
-0.23758
-0.16565
-0.0844224
-0.0609057
-0.128136
-0.101195
-0.0457762
-0.0296794
-0.061984
-0.104623
-0.0371147
0.0980316
0.0612184
-0.0147236
0.131659
0.177181
0.245211
0.224726
0.201721
0.17951
0.202945
0.108032
0.0238819
-0.0423512
-0.0109574
0.0895289
-0.0334161
-0.220976
-0.174583
-0.125706
-0.142197
-0.214574
-0.0551187
0.00719251
0.0208503
-0.0104661
-0.0371806
0.0608406
0.0158617
-0.0830312
-0.0988001
0.0490003
0.108607
0.0910497
0.150656
0.116174
0.168194
0.168002
0.189034
0.0251885
0.0266613
-0.0303302
0.0411431
0.109627
-0.0320285
0.042959
0.040142
0.0859977
0.131121
0.0756886
0.119652
0.146682
0.0943659
0.0575769
0.00931506
0.0327739
-0.0175219
-0.0932655
-0.188472
-0.166827
-0.164467
-0.13142
-0.121414
-0.178283
-0.00125038
0.0264998
0.0154745
-0.0462446
0.015113
0.135736
0.194486
0.225306
0.202096
0.0090516
-0.100157
0.072003
0.0792049
-0.000498433
0.0365652
0.0331475
-0.0712068
0.0255831
0.093685
0.139323
0.0306938
0.0356001
0.178484
-0.0124412
-0.174423
-0.150362
-0.186818
-0.0768462
-0.105257
-0.0427349
-0.0551923
-0.110931
-0.126045
-0.126806
-0.110773
-0.138645
-0.0143897
0.083924
0.0907105
0.0782701
0.193605
0.145573
0.1718
0.209014
0.188774
0.180425
0.195827
0.109784
-0.00270112
0.0593524
0.0381095
-0.0521279
-0.11799
-0.170128
-0.19055
-0.184998
-0.156306
-0.18073
-0.0347308
-0.136726
-0.10055
-0.00279735
-0.00170446
-0.0697593
-0.0573264
-0.010433
0.0355952
0.0122521
-0.0213834
0.144609
0.198706
0.130236
0.179297
0.112485
0.187036
0.0468296
0.0497545
0.0569678
0.0442444
0.0179598
-0.00824595
0.0130629
0.0341512
0.18391
0.0905625
0.0182054
0.139572
0.138549
0.0971673
0.071661
0.0397414
0.0409389
-0.0945055
-0.22915
-0.21397
-0.153164
-0.157798
-0.183464
-0.135616
-0.122966
-0.0851674
-0.0401888
0.0286972
0.0171891
0.00637478
0.082165
0.164312
0.22123
0.218589
0.0822378
0.00159467
-0.0114682
0.0689754
0.0501204
0.00398485
0.097103
0.0599686
-0.0636044
0.0492189
0.102494
0.0583676
-0.0271355
0.0813697
0.0937761
-0.0164936
-0.0316749
-0.198088
-0.140095
-0.269447
-0.159668
0.0520677
-0.0100967
-0.126764
-0.145628
-0.0576015
-0.0697297
-0.0776699
0.00236551
0.0517782
0.0927622
0.13603
0.139717
0.208547
0.234923
0.186734
0.142672
0.082754
0.0827064
0.0902058
0.0899713
-0.0550765
-0.0776415
-0.152751
-0.212076
-0.309342
-0.181496
-0.12538
-0.14674
-0.153873
-0.0760176
-0.0901209
-0.0585339
-0.105857
-0.0653585
-0.0269702
-0.0806686
-0.0671186
0.0379559
-0.00280825
0.0642168
0.211162
0.184985
0.159679
0.128189
0.177365
0.0447547
0.0553736
0.0501971
0.0599194
0.0817718
-0.0260423
-0.0910028
0.0318548
0.1965
0.13064
-0.000888545
0.0909179
0.138067
0.0503109
0.0387221
0.0358097
0.0588864
-0.0839802
-0.145598
-0.200144
-0.169284
-0.136039
-0.35014
-0.240826
-0.23609
-0.0969404
0.125468
0.0745206
-0.0356124
-0.104509
0.187826
0.376988
0.24784
0.0863028
0.106925
0.0495419
0.0951993
0.0780223
0.0442659
0.131512
0.0127941
-0.0245411
0.154555
0.0813014
0.0106339
-0.0207332
0.0445883
0.0952893
0.0458273
-0.0634465
-0.0987148
-0.138337
-0.136821
-0.152598
-0.0543578
0.0316761
-0.0482583
-0.106226
-0.142485
-0.0558264
-0.119064
-0.0341225
0.0573169
0.030352
0.0802407
0.169115
0.123529
0.132599
0.179733
0.163187
0.110439
0.234462
0.0861578
0.0254813
0.0323114
0.017088
-0.0365324
-0.162106
-0.196439
-0.347647
-0.295763
-0.103578
-0.111242
-0.20265
-0.213609
-0.128557
-0.115545
-0.0418768
-0.0501122
0.0186542
-0.105778
-0.141586
-0.0281151
0.0743182
0.150156
0.193613
0.190248
0.142225
0.0743158
0.171559
0.0688081
0.0253858
0.0606452
-0.0151503
-0.0090913
0.0261805
-0.0510586
0.0317693
0.168201
0.120504
-0.0236363
0.11994
0.152512
0.0530717
0.0287139
0.0310936
-0.0231882
-0.0450717
-0.160055
-0.159899
-0.225137
-0.289628
-0.301412
-0.28214
-0.177856
-0.0709853
-0.0254081
0.0109106
0.0749012
0.0859357
0.103034
0.179859
0.12623
0.168504
0.246742
0.11024
0.129123
0.0376144
-0.022375
0.114775
0.0952493
0.0521012
0.0560937
0.0510332
0.0739389
0.0167214
0.0271344
-0.0185878
0.0431727
-0.110497
-0.0681063
0.00241872
-0.0114886
-0.10306
-0.082314
-0.0102963
-0.0384556
-0.0192618
-0.046845
0.0355478
-0.142661
-0.213602
-0.00168637
0.0335293
0.120528
0.250918
0.106331
0.122498
0.2129
0.149014
0.073249
0.065794
0.024566
-0.0651993
-0.00494067
0.0807569
-0.0292284
-0.233879
-0.287813
-0.313362
-0.21049
-0.116588
-0.15808
-0.0866205
-0.195307
-0.118815
-0.163497
-0.116108
7.92822e-05
-0.058808
-0.179696
-0.0480087
-0.0362643
0.15391
0.0497025
0.0560697
0.118974
0.176291
0.174408
0.13787
0.0341303
0.0104787
-0.00126342
-0.00932616
-0.058452
-0.0336587
0.00990405
0.0322004
0.0675162
0.0593673
0.00909658
0.0872341
0.112376
0.0924854
0.0277855
0.00165415
-0.0379784
-0.0304038
-0.180754
-0.196083
-0.220111
-0.185583
-0.233262
-0.21625
-0.265731
-0.228737
-0.0654969
0.0361634
0.138149
0.0417555
0.155209
0.276678
0.243153
0.145542
0.145911
0.18186
0.179723
0.106982
0.0224276
0.113017
0.0675718
-0.0980975
-0.0153494
0.0304085
0.125928
0.0719807
-0.0152171
-0.00548557
0.119568
-0.0542081
-0.0534875
-0.0697964
-0.00521581
-0.0516915
-0.0410983
-0.00969201
-0.0153953
-0.0439173
-0.127315
-0.0691799
-0.0553492
0.00595853
-0.0820374
-0.00339886
0.083744
0.141214
0.130603
0.0457119
0.110436
0.115534
0.121781
0.063113
0.0837327
-0.0203378
-0.0216309
0.0154197
0.0323773
-0.180605
-0.248365
-0.319998
-0.209832
-0.136877
-0.155261
-0.133849
-0.219379
-0.119649
-0.11969
-0.0861221
-0.048372
-0.0901428
-0.260745
-0.101334
-0.0148087
0.0490998
0.134185
0.0840096
0.0681176
0.219004
0.0891718
0.057649
0.00656771
-0.00793747
0.0217757
0.0147676
-0.101874
-0.0426719
-0.0173202
-0.013553
0.00125501
0.0780108
0.0384403
0.18308
0.0798847
0.030042
0.00743124
0.0133206
-0.0751622
-0.0111223
-0.124913
-0.169497
-0.367842
-0.346667
-0.158616
-0.219409
-0.171877
-0.0956658
-0.0150296
-0.0542335
0.0108687
0.112477
0.21769
0.151865
0.186215
0.208172
0.270648
0.197288
0.10772
-0.0260355
-0.00405822
0.0799916
0.0731006
0.0217654
-0.000578189
0.0126148
0.102502
0.0346374
0.00259497
-0.108231
-0.0050996
-0.0120262
-0.0340497
-0.00237596
0.0905155
0.0535315
-0.0320741
-0.0172488
-0.00532522
-0.0521556
-0.117059
-0.0862673
-0.040124
-0.0358302
-0.0753974
-0.081706
0.0390547
0.0969049
0.0807022
0.0543089
0.120757
0.145963
0.117062
0.00420903
0.0120872
-0.0419972
-0.0603435
-0.0184951
0.0254623
-0.0579408
-0.325251
-0.325218
-0.186656
-0.165236
-0.119261
-0.0636864
-0.162072
-0.177553
-0.118877
-0.0641345
-0.0800005
-0.123819
-0.136537
-0.102958
-0.069879
0.0171154
0.0294493
0.0364601
0.111961
0.123744
0.107773
-0.0122114
0.032392
0.0199236
-0.039341
-0.0272459
-0.0955053
-0.0822625
0.011746
-0.0378968
0.048843
0.0122739
0.000726612
0.144362
0.076276
0.0401848
-0.0401714
0.0501621
-0.0101686
-0.0706244
-0.0992601
-0.322548
-0.301304
-0.17457
-0.200467
-0.146996
-0.144668
-0.154652
-0.0954911
-0.0133493
0.0531209
0.128027
0.242557
0.278971
0.15049
0.263097
0.241729
0.0842972
0.0489113
0.0328295
-0.044392
0.0188573
0.0432721
0.00073683
-0.0305471
-0.0557202
-0.0406515
0.060676
0.026635
-0.0445613
0.0128054
0.000954695
0.0275206
0.0622158
0.108385
0.11648
-0.0132499
0.0584383
-0.0146217
-0.00917427
-0.111266
-0.138823
-0.0797871
-0.0432128
-0.0466894
-0.0021108
-0.00566858
0.0136988
0.00428712
0.0657476
0.103649
0.0632433
0.0618486
0.0388549
0.0898188
-0.0124486
-0.0225437
-0.0150452
-0.071044
-0.094147
-0.245274
-0.244636
-0.147338
-0.159362
-0.169836
-0.0663008
-0.0621154
-0.167693
-0.226116
-0.0277156
-0.133279
-0.195072
-0.215142
-0.16274
-0.0512373
0.0123359
0.00587125
0.00227075
0.105852
0.106329
0.0411049
0.0107098
0.121984
0.00660318
-0.127783
-0.10426
-0.0720421
-0.0589337
0.0258523
-0.0622176
-0.0184774
0.0657147
0.0463246
0.127486
0.0489884
-0.0176982
-0.00969161
0.0651839
-0.00814881
-0.0941772
-0.130613
-0.182161
-0.165394
-0.20079
-0.224627
-0.189261
-0.140896
-0.142313
-0.0983916
-0.011695
0.105197
0.0983002
0.0694695
0.288963
0.314514
0.19716
0.162918
0.105119
0.0797918
0.0495571
0.0057042
-0.103312
-0.0599265
0.0208472
0.00272033
-0.0505554
0.0157354
0.00479461
-0.0264514
-0.00806575
0.0416969
0.0115371
0.0437435
0.0904498
0.0865111
0.188146
-0.00155131
0.0493165
-0.0184252
-0.0290248
-0.0398353
-0.0820048
-0.073551
-0.0471169
-0.0116596
0.0374437
0.00149317
-0.0449583
-0.0464398
0.0372063
0.103761
0.0182356
0.00112313
0.00629449
0.0233913
-0.0441097
-0.0911216
0.0919445
-0.0456417
-0.206123
-0.221971
-0.228017
-0.0696027
-0.140648
-0.0291294
-0.0332669
-0.0454384