/*--------------------------------*- C++ -*----------------------------------*\
| =========                 |                                                 |
| \\      /  F ield         | OpenFOAM: The Open Source CFD Toolbox           |
|  \\    /   O peration     | Version:  v2012                                 |
|   \\  /    A nd           | Website:  www.openfoam.com                      |
|    \\/     M anipulation  |                                                 |
\*---------------------------------------------------------------------------*/
FoamFile
{
    version     2.0;
    format      ascii;
    class       volVectorField;
    location    "6";
    object      U;
}
// * * * * * * * * * * * * * * * * * * * * * * * * * * * * * * * * * * * * * //

dimensions      [0 1 -1 0 0 0 0];


internalField   nonuniform List<vector> 
65536
(
(0.000750591 -0.000750579 0)
(0.00225175 -0.000750554 0)
(0.00375283 -0.000750506 0)
(0.00525379 -0.000750432 0)
(0.00675459 -0.000750334 0)
(0.00825516 -0.00075021 0)
(0.00975545 -0.000750059 0)
(0.0112554 -0.000749881 0)
(0.012755 -0.000749675 0)
(0.0142541 -0.000749439 0)
(0.0157528 -0.000749172 0)
(0.0172509 -0.000748873 0)
(0.0187483 -0.00074854 0)
(0.0202451 -0.000748171 0)
(0.021741 -0.000747764 0)
(0.0232362 -0.000747318 0)
(0.0247303 -0.00074683 0)
(0.0262235 -0.000746297 0)
(0.0277156 -0.000745719 0)
(0.0292064 -0.000745091 0)
(0.030696 -0.000744411 0)
(0.0321841 -0.000743676 0)
(0.0336708 -0.000742884 0)
(0.0351557 -0.000742031 0)
(0.0366389 -0.000741115 0)
(0.0381203 -0.000740131 0)
(0.0395995 -0.000739077 0)
(0.0410766 -0.000737949 0)
(0.0425514 -0.000736743 0)
(0.0440237 -0.000735456 0)
(0.0454933 -0.000734083 0)
(0.0469601 -0.000732622 0)
(0.0484239 -0.000731068 0)
(0.0498845 -0.000729417 0)
(0.0513417 -0.000727665 0)
(0.0527952 -0.000725808 0)
(0.054245 -0.000723842 0)
(0.0556907 -0.000721762 0)
(0.0571322 -0.000719564 0)
(0.0585691 -0.000717244 0)
(0.0600013 -0.000714798 0)
(0.0614284 -0.00071222 0)
(0.0628503 -0.000709508 0)
(0.0642666 -0.000706656 0)
(0.0656771 -0.000703661 0)
(0.0670814 -0.000700517 0)
(0.0684793 -0.000697221 0)
(0.0698704 -0.000693769 0)
(0.0712545 -0.000690156 0)
(0.0726312 -0.000686378 0)
(0.0740002 -0.000682431 0)
(0.0753611 -0.000678312 0)
(0.0767136 -0.000674016 0)
(0.0780573 -0.000669539 0)
(0.0793919 -0.000664879 0)
(0.080717 -0.000660032 0)
(0.0820323 -0.000654994 0)
(0.0833372 -0.000649762 0)
(0.0846315 -0.000644334 0)
(0.0859147 -0.000638706 0)
(0.0871865 -0.000632876 0)
(0.0884465 -0.000626841 0)
(0.0896941 -0.0006206 0)
(0.0909291 -0.00061415 0)
(0.0921509 -0.000607489 0)
(0.0933592 -0.000600617 0)
(0.0945536 -0.000593532 0)
(0.0957336 -0.000586233 0)
(0.0968987 -0.000578719 0)
(0.0980487 -0.00057099 0)
(0.0991829 -0.000563046 0)
(0.100301 -0.000554887 0)
(0.101403 -0.000546513 0)
(0.102487 -0.000537926 0)
(0.103555 -0.000529126 0)
(0.104604 -0.000520115 0)
(0.105635 -0.000510894 0)
(0.106648 -0.000501467 0)
(0.107641 -0.000491834 0)
(0.108615 -0.000481999 0)
(0.10957 -0.000471965 0)
(0.110503 -0.000461736 0)
(0.111417 -0.000451314 0)
(0.112309 -0.000440704 0)
(0.11318 -0.00042991 0)
(0.114029 -0.000418937 0)
(0.114856 -0.00040779 0)
(0.11566 -0.000396473 0)
(0.116442 -0.000384993 0)
(0.1172 -0.000373356 0)
(0.117935 -0.000361566 0)
(0.118647 -0.000349631 0)
(0.119334 -0.000337557 0)
(0.119997 -0.00032535 0)
(0.120635 -0.000313018 0)
(0.121249 -0.000300568 0)
(0.121838 -0.000288008 0)
(0.122401 -0.000275344 0)
(0.122939 -0.000262584 0)
(0.123452 -0.000249737 0)
(0.123938 -0.00023681 0)
(0.124399 -0.000223811 0)
(0.124834 -0.000210748 0)
(0.125242 -0.00019763 0)
(0.125624 -0.000184464 0)
(0.12598 -0.00017126 0)
(0.126309 -0.000158025 0)
(0.126612 -0.000144768 0)
(0.126888 -0.000131497 0)
(0.127138 -0.00011822 0)
(0.127361 -0.000104946 0)
(0.127558 -9.16822e-05 0)
(0.127728 -7.84373e-05 0)
(0.127872 -6.52192e-05 0)
(0.127989 -5.20357e-05 0)
(0.12808 -3.88946e-05 0)
(0.128144 -2.58034e-05 0)
(0.128183 -1.27696e-05 0)
(0.128195 1.99536e-07 0)
(0.128182 1.30969e-05 0)
(0.128143 2.59155e-05 0)
(0.128078 3.86487e-05 0)
(0.127988 5.129e-05 0)
(0.127873 6.3833e-05 0)
(0.127733 7.62717e-05 0)
(0.127568 8.86003e-05 0)
(0.127378 0.000100813 0)
(0.127164 0.000112905 0)
(0.126926 0.000124871 0)
(0.126665 0.000136705 0)
(0.126379 0.000148404 0)
(0.126071 0.000159963 0)
(0.125739 0.000171377 0)
(0.125385 0.000182644 0)
(0.125009 0.00019376 0)
(0.12461 0.00020472 0)
(0.12419 0.000215523 0)
(0.123748 0.000226165 0)
(0.123285 0.000236643 0)
(0.122801 0.000246956 0)
(0.122297 0.000257102 0)
(0.121773 0.000267078 0)
(0.121228 0.000276883 0)
(0.120665 0.000286516 0)
(0.120082 0.000295975 0)
(0.119481 0.000305259 0)
(0.118861 0.000314369 0)
(0.118223 0.000323303 0)
(0.117568 0.000332061 0)
(0.116895 0.000340643 0)
(0.116205 0.000349049 0)
(0.115498 0.000357279 0)
(0.114776 0.000365334 0)
(0.114037 0.000373215 0)
(0.113283 0.000380921 0)
(0.112513 0.000388454 0)
(0.111729 0.000395815 0)
(0.11093 0.000403006 0)
(0.110116 0.000410027 0)
(0.109289 0.000416879 0)
(0.108449 0.000423565 0)
(0.107595 0.000430086 0)
(0.106728 0.000436444 0)
(0.105849 0.00044264 0)
(0.104957 0.000448677 0)
(0.104054 0.000454556 0)
(0.103139 0.00046028 0)
(0.102213 0.000465849 0)
(0.101275 0.000471268 0)
(0.100328 0.000476538 0)
(0.0993692 0.000481661 0)
(0.0984008 0.000486639 0)
(0.0974225 0.000491475 0)
(0.0964347 0.000496171 0)
(0.0954377 0.00050073 0)
(0.0944317 0.000505155 0)
(0.0934169 0.000509446 0)
(0.0923938 0.000513608 0)
(0.0913624 0.000517642 0)
(0.0903231 0.000521551 0)
(0.089276 0.000525338 0)
(0.0882216 0.000529004 0)
(0.0871599 0.000532553 0)
(0.0860913 0.000535987 0)
(0.0850159 0.000539308 0)
(0.0839339 0.000542519 0)
(0.0828457 0.000545623 0)
(0.0817513 0.000548621 0)
(0.0806511 0.000551517 0)
(0.0795452 0.000554312 0)
(0.0784337 0.00055701 0)
(0.077317 0.000559612 0)
(0.0761952 0.00056212 0)
(0.0750685 0.000564538 0)
(0.073937 0.000566868 0)
(0.0728009 0.000569111 0)
(0.0716604 0.00057127 0)
(0.0705157 0.000573347 0)
(0.069367 0.000575345 0)
(0.0682143 0.000577266 0)
(0.0670578 0.000579111 0)
(0.0658978 0.000580883 0)
(0.0647342 0.000582584 0)
(0.0635674 0.000584217 0)
(0.0623973 0.000585782 0)
(0.0612242 0.000587283 0)
(0.0600481 0.00058872 0)
(0.0588692 0.000590097 0)
(0.0576877 0.000591415 0)
(0.0565035 0.000592675 0)
(0.0553169 0.00059388 0)
(0.0541279 0.000595031 0)
(0.0529367 0.00059613 0)
(0.0517434 0.000597179 0)
(0.050548 0.00059818 0)
(0.0493506 0.000599134 0)
(0.0481514 0.000600043 0)
(0.0469504 0.000600908 0)
(0.0457477 0.000601732 0)
(0.0445434 0.000602515 0)
(0.0433376 0.000603258 0)
(0.0421303 0.000603965 0)
(0.0409217 0.000604635 0)
(0.0397118 0.00060527 0)
(0.0385006 0.000605871 0)
(0.0372883 0.000606441 0)
(0.0360748 0.00060698 0)
(0.0348603 0.000607489 0)
(0.0336448 0.000607969 0)
(0.0324284 0.000608422 0)
(0.0312111 0.000608849 0)
(0.029993 0.00060925 0)
(0.0287741 0.000609627 0)
(0.0275544 0.000609981 0)
(0.0263341 0.000610313 0)
(0.0251132 0.000610624 0)
(0.0238916 0.000610914 0)
(0.0226695 0.000611184 0)
(0.0214469 0.000611436 0)
(0.0202237 0.000611669 0)
(0.0190002 0.000611885 0)
(0.0177762 0.000612084 0)
(0.0165518 0.000612267 0)
(0.0153271 0.000612435 0)
(0.0141021 0.000612587 0)
(0.0128767 0.000612725 0)
(0.0116511 0.000612849 0)
(0.0104253 0.00061296 0)
(0.00919929 0.000613057 0)
(0.00797308 0.000613141 0)
(0.00674671 0.000613213 0)
(0.00552021 0.000613273 0)
(0.00429361 0.00061332 0)
(0.00306692 0.000613355 0)
(0.00184018 0.000613379 0)
(0.000613396 0.00061339 0)
(0.000750614 -0.00225176 0)
(0.00225182 -0.00225169 0)
(0.00375295 -0.00225154 0)
(0.00525396 -0.00225132 0)
(0.00675481 -0.00225103 0)
(0.00825543 -0.00225066 0)
(0.00975578 -0.0022502 0)
(0.0112558 -0.00224967 0)
(0.0127554 -0.00224905 0)
(0.0142546 -0.00224835 0)
(0.0157534 -0.00224755 0)
(0.0172515 -0.00224665 0)
(0.018749 -0.00224565 0)
(0.0202458 -0.00224455 0)
(0.0217419 -0.00224333 0)
(0.0232371 -0.00224199 0)
(0.0247314 -0.00224053 0)
(0.0262246 -0.00223894 0)
(0.0277168 -0.0022372 0)
(0.0292077 -0.00223532 0)
(0.0306974 -0.00223329 0)
(0.0321857 -0.00223109 0)
(0.0336724 -0.00222871 0)
(0.0351575 -0.00222616 0)
(0.0366408 -0.00222341 0)
(0.0381223 -0.00222046 0)
(0.0396017 -0.0022173 0)
(0.041079 -0.00221392 0)
(0.0425539 -0.00221031 0)
(0.0440263 -0.00220645 0)
(0.0454961 -0.00220234 0)
(0.0469631 -0.00219796 0)
(0.0484271 -0.0021933 0)
(0.0498879 -0.00218835 0)
(0.0513453 -0.0021831 0)
(0.052799 -0.00217753 0)
(0.054249 -0.00217164 0)
(0.055695 -0.0021654 0)
(0.0571367 -0.00215881 0)
(0.0585738 -0.00215186 0)
(0.0600063 -0.00214452 0)
(0.0614337 -0.0021368 0)
(0.0628558 -0.00212866 0)
(0.0642724 -0.00212011 0)
(0.0656832 -0.00211113 0)
(0.0670878 -0.0021017 0)
(0.068486 -0.00209182 0)
(0.0698775 -0.00208147 0)
(0.0712619 -0.00207063 0)
(0.0726389 -0.0020593 0)
(0.0740082 -0.00204747 0)
(0.0753695 -0.00203511 0)
(0.0767224 -0.00202223 0)
(0.0780665 -0.0020088 0)
(0.0794014 -0.00199482 0)
(0.0807269 -0.00198029 0)
(0.0820425 -0.00196517 0)
(0.0833478 -0.00194948 0)
(0.0846425 -0.0019332 0)
(0.0859262 -0.00191632 0)
(0.0871984 -0.00189883 0)
(0.0884587 -0.00188073 0)
(0.0897068 -0.00186201 0)
(0.0909421 -0.00184266 0)
(0.0921644 -0.00182268 0)
(0.0933732 -0.00180206 0)
(0.0945679 -0.00178081 0)
(0.0957483 -0.00175891 0)
(0.0969139 -0.00173637 0)
(0.0980643 -0.00171318 0)
(0.099199 -0.00168935 0)
(0.100318 -0.00166487 0)
(0.10142 -0.00163975 0)
(0.102505 -0.00161399 0)
(0.103572 -0.00158759 0)
(0.104622 -0.00156055 0)
(0.105654 -0.00153289 0)
(0.106667 -0.0015046 0)
(0.107661 -0.0014757 0)
(0.108635 -0.0014462 0)
(0.10959 -0.00141609 0)
(0.110524 -0.0013854 0)
(0.111438 -0.00135413 0)
(0.11233 -0.00132229 0)
(0.113201 -0.00128991 0)
(0.114051 -0.00125698 0)
(0.114878 -0.00122354 0)
(0.115683 -0.00118958 0)
(0.116465 -0.00115514 0)
(0.117224 -0.00112022 0)
(0.117959 -0.00108484 0)
(0.118671 -0.00104903 0)
(0.119358 -0.0010128 0)
(0.120021 -0.000976175 0)
(0.12066 -0.000939173 0)
(0.121274 -0.000901816 0)
(0.121863 -0.000864126 0)
(0.122427 -0.000826127 0)
(0.122965 -0.00078784 0)
(0.123477 -0.00074929 0)
(0.123964 -0.0007105 0)
(0.124425 -0.000671495 0)
(0.12486 -0.000632299 0)
(0.125268 -0.000592936 0)
(0.12565 -0.000553432 0)
(0.126006 -0.000513811 0)
(0.126336 -0.000474098 0)
(0.126639 -0.000434318 0)
(0.126915 -0.000394497 0)
(0.127165 -0.000354658 0)
(0.127388 -0.000314827 0)
(0.127584 -0.000275028 0)
(0.127754 -0.000235286 0)
(0.127898 -0.000195624 0)
(0.128015 -0.000156065 0)
(0.128106 -0.000116634 0)
(0.12817 -7.73533e-05 0)
(0.128209 -3.82446e-05 0)
(0.128221 6.69798e-07 0)
(0.128208 3.93687e-05 0)
(0.128168 7.78312e-05 0)
(0.128103 0.000116037 0)
(0.128013 0.000153967 0)
(0.127898 0.000191603 0)
(0.127757 0.000228925 0)
(0.127592 0.000265916 0)
(0.127402 0.00030256 0)
(0.127188 0.00033884 0)
(0.12695 0.000374742 0)
(0.126688 0.00041025 0)
(0.126403 0.000445351 0)
(0.126094 0.000480031 0)
(0.125762 0.000514279 0)
(0.125408 0.000548083 0)
(0.125031 0.000581433 0)
(0.124632 0.000614317 0)
(0.124211 0.000646728 0)
(0.123769 0.000678656 0)
(0.123306 0.000710094 0)
(0.122822 0.000741035 0)
(0.122317 0.000771474 0)
(0.121792 0.000801404 0)
(0.121248 0.00083082 0)
(0.120684 0.000859719 0)
(0.120101 0.000888097 0)
(0.119499 0.000915952 0)
(0.118879 0.000943281 0)
(0.118241 0.000970084 0)
(0.117585 0.000996358 0)
(0.116912 0.0010221 0)
(0.116221 0.00104732 0)
(0.115515 0.00107201 0)
(0.114791 0.00109618 0)
(0.114052 0.00111982 0)
(0.113298 0.00114293 0)
(0.112528 0.00116553 0)
(0.111743 0.00118762 0)
(0.110944 0.00120919 0)
(0.11013 0.00123025 0)
(0.109303 0.0012508 0)
(0.108462 0.00127086 0)
(0.107608 0.00129042 0)
(0.106741 0.00130949 0)
(0.105861 0.00132808 0)
(0.104969 0.00134619 0)
(0.104066 0.00136382 0)
(0.10315 0.00138099 0)
(0.102224 0.0013977 0)
(0.101286 0.00141395 0)
(0.100338 0.00142976 0)
(0.0993793 0.00144513 0)
(0.0984106 0.00146006 0)
(0.097432 0.00147456 0)
(0.096444 0.00148865 0)
(0.0954467 0.00150233 0)
(0.0944404 0.0015156 0)
(0.0934254 0.00152847 0)
(0.0924019 0.00154095 0)
(0.0913703 0.00155305 0)
(0.0903307 0.00156477 0)
(0.0892835 0.00157613 0)
(0.0882288 0.00158713 0)
(0.0871669 0.00159777 0)
(0.086098 0.00160807 0)
(0.0850224 0.00161803 0)
(0.0839402 0.00162766 0)
(0.0828518 0.00163697 0)
(0.0817572 0.00164597 0)
(0.0806568 0.00165465 0)
(0.0795506 0.00166303 0)
(0.078439 0.00167112 0)
(0.0773221 0.00167893 0)
(0.0762001 0.00168645 0)
(0.0750732 0.0016937 0)
(0.0739415 0.00170069 0)
(0.0728053 0.00170742 0)
(0.0716647 0.00171389 0)
(0.0705198 0.00172012 0)
(0.0693709 0.00172611 0)
(0.068218 0.00173187 0)
(0.0670614 0.00173741 0)
(0.0659012 0.00174272 0)
(0.0647376 0.00174782 0)
(0.0635706 0.00175272 0)
(0.0624004 0.00175741 0)
(0.0612271 0.00176191 0)
(0.0600509 0.00176622 0)
(0.0588719 0.00177035 0)
(0.0576902 0.0017743 0)
(0.056506 0.00177808 0)
(0.0553193 0.00178169 0)
(0.0541302 0.00178514 0)
(0.0529389 0.00178844 0)
(0.0517454 0.00179159 0)
(0.0505499 0.00179459 0)
(0.0493525 0.00179745 0)
(0.0481532 0.00180017 0)
(0.0469521 0.00180277 0)
(0.0457493 0.00180524 0)
(0.0445449 0.00180758 0)
(0.0433391 0.00180981 0)
(0.0421317 0.00181193 0)
(0.040923 0.00181394 0)
(0.039713 0.00181584 0)
(0.0385018 0.00181765 0)
(0.0372894 0.00181935 0)
(0.0360758 0.00182097 0)
(0.0348613 0.00182249 0)
(0.0336458 0.00182393 0)
(0.0324293 0.00182529 0)
(0.0312119 0.00182657 0)
(0.0299938 0.00182777 0)
(0.0287748 0.00182891 0)
(0.0275551 0.00182997 0)
(0.0263348 0.00183096 0)
(0.0251138 0.00183189 0)
(0.0238922 0.00183276 0)
(0.02267 0.00183357 0)
(0.0214473 0.00183433 0)
(0.0202242 0.00183502 0)
(0.0190006 0.00183567 0)
(0.0177766 0.00183627 0)
(0.0165522 0.00183682 0)
(0.0153274 0.00183732 0)
(0.0141024 0.00183778 0)
(0.012877 0.00183819 0)
(0.0116514 0.00183856 0)
(0.0104255 0.00183889 0)
(0.00919947 0.00183918 0)
(0.00797324 0.00183944 0)
(0.00674684 0.00183965 0)
(0.00552032 0.00183983 0)
(0.00429369 0.00183997 0)
(0.00306698 0.00184008 0)
(0.00184021 0.00184015 0)
(0.000613408 0.00184018 0)
(0.000750663 -0.00375301 0)
(0.00225196 -0.00375289 0)
(0.0037532 -0.00375265 0)
(0.00525431 -0.00375229 0)
(0.00675525 -0.0037518 0)
(0.00825598 -0.00375118 0)
(0.00975643 -0.00375043 0)
(0.0112566 -0.00374955 0)
(0.0127563 -0.00374852 0)
(0.0142556 -0.00374735 0)
(0.0157545 -0.00374602 0)
(0.0172528 -0.00374453 0)
(0.0187504 -0.00374288 0)
(0.0202474 -0.00374104 0)
(0.0217436 -0.00373902 0)
(0.0232389 -0.0037368 0)
(0.0247334 -0.00373437 0)
(0.0262268 -0.00373172 0)
(0.0277192 -0.00372884 0)
(0.0292103 -0.00372571 0)
(0.0307002 -0.00372233 0)
(0.0321887 -0.00371867 0)
(0.0336757 -0.00371472 0)
(0.035161 -0.00371047 0)
(0.0366446 -0.00370591 0)
(0.0381264 -0.00370101 0)
(0.0396061 -0.00369575 0)
(0.0410836 -0.00369013 0)
(0.0425589 -0.00368412 0)
(0.0440316 -0.0036777 0)
(0.0455018 -0.00367086 0)
(0.0469691 -0.00366357 0)
(0.0484335 -0.00365582 0)
(0.0498947 -0.00364759 0)
(0.0513525 -0.00363885 0)
(0.0528067 -0.00362958 0)
(0.0542571 -0.00361977 0)
(0.0557035 -0.00360939 0)
(0.0571457 -0.00359843 0)
(0.0585834 -0.00358685 0)
(0.0600163 -0.00357464 0)
(0.0614443 -0.00356178 0)
(0.0628669 -0.00354824 0)
(0.0642841 -0.003534 0)
(0.0656954 -0.00351904 0)
(0.0671007 -0.00350335 0)
(0.0684995 -0.00348689 0)
(0.0698916 -0.00346965 0)
(0.0712766 -0.0034516 0)
(0.0726543 -0.00343273 0)
(0.0740244 -0.00341302 0)
(0.0753863 -0.00339244 0)
(0.0767399 -0.00337098 0)
(0.0780847 -0.00334861 0)
(0.0794204 -0.00332533 0)
(0.0807467 -0.00330111 0)
(0.082063 -0.00327594 0)
(0.0833692 -0.00324979 0)
(0.0846647 -0.00322266 0)
(0.0859491 -0.00319454 0)
(0.0872221 -0.0031654 0)
(0.0884833 -0.00313524 0)
(0.0897322 -0.00310404 0)
(0.0909684 -0.0030718 0)
(0.0921915 -0.0030385 0)
(0.0934011 -0.00300415 0)
(0.0945967 -0.00296873 0)
(0.095778 -0.00293223 0)
(0.0969444 -0.00289467 0)
(0.0980957 -0.00285602 0)
(0.0992312 -0.0028163 0)
(0.100351 -0.0027755 0)
(0.101454 -0.00273363 0)
(0.102539 -0.00269069 0)
(0.103608 -0.00264668 0)
(0.104659 -0.00260162 0)
(0.105691 -0.00255551 0)
(0.106705 -0.00250836 0)
(0.1077 -0.00246018 0)
(0.108675 -0.00241099 0)
(0.10963 -0.0023608 0)
(0.110565 -0.00230964 0)
(0.11148 -0.00225751 0)
(0.112373 -0.00220444 0)
(0.113245 -0.00215044 0)
(0.114095 -0.00209556 0)
(0.114923 -0.00203979 0)
(0.115728 -0.00198318 0)
(0.116511 -0.00192575 0)
(0.11727 -0.00186754 0)
(0.118006 -0.00180856 0)
(0.118719 -0.00174885 0)
(0.119407 -0.00168844 0)
(0.120071 -0.00162738 0)
(0.12071 -0.00156568 0)
(0.121324 -0.0015034 0)
(0.121913 -0.00144055 0)
(0.122478 -0.0013772 0)
(0.123016 -0.00131336 0)
(0.123529 -0.00124908 0)
(0.124016 -0.00118441 0)
(0.124477 -0.00111937 0)
(0.124912 -0.00105402 0)
(0.125321 -0.000988384 0)
(0.125703 -0.000922516 0)
(0.126059 -0.000856453 0)
(0.126389 -0.000790237 0)
(0.126692 -0.00072391 0)
(0.126968 -0.000657513 0)
(0.127218 -0.000591088 0)
(0.127441 -0.000524676 0)
(0.127637 -0.000458318 0)
(0.127807 -0.000392054 0)
(0.127951 -0.000325924 0)
(0.128068 -0.000259968 0)
(0.128158 -0.000194224 0)
(0.128223 -0.000128731 0)
(0.128261 -6.35254e-05 0)
(0.128273 1.35566e-06 0)
(0.128259 6.58768e-05 0)
(0.128219 0.000130004 0)
(0.128154 0.000193702 0)
(0.128064 0.00025694 0)
(0.127948 0.000319685 0)
(0.127807 0.000381908 0)
(0.127641 0.000443579 0)
(0.127451 0.00050467 0)
(0.127237 0.000565154 0)
(0.126998 0.000625007 0)
(0.126735 0.000684202 0)
(0.126449 0.000742718 0)
(0.12614 0.000800533 0)
(0.125808 0.000857625 0)
(0.125452 0.000913977 0)
(0.125075 0.00096957 0)
(0.124675 0.00102439 0)
(0.124254 0.00107841 0)
(0.123811 0.00113164 0)
(0.123347 0.00118404 0)
(0.122862 0.00123562 0)
(0.122357 0.00128635 0)
(0.121832 0.00133624 0)
(0.121287 0.00138527 0)
(0.120722 0.00143344 0)
(0.120138 0.00148074 0)
(0.119536 0.00152717 0)
(0.118915 0.00157272 0)
(0.118276 0.00161739 0)
(0.11762 0.00166118 0)
(0.116946 0.00170409 0)
(0.116255 0.00174612 0)
(0.115547 0.00178727 0)
(0.114823 0.00182754 0)
(0.114084 0.00186694 0)
(0.113328 0.00190547 0)
(0.112558 0.00194313 0)
(0.111772 0.00197993 0)
(0.110972 0.00201587 0)
(0.110158 0.00205097 0)
(0.10933 0.00208523 0)
(0.108488 0.00211865 0)
(0.107633 0.00215125 0)
(0.106766 0.00218303 0)
(0.105886 0.002214 0)
(0.104993 0.00224417 0)
(0.104089 0.00227356 0)
(0.103173 0.00230216 0)
(0.102246 0.00233 0)
(0.101308 0.00235708 0)
(0.100359 0.00238342 0)
(0.0993995 0.00240902 0)
(0.0984302 0.0024339 0)
(0.0974511 0.00245807 0)
(0.0964625 0.00248154 0)
(0.0954646 0.00250432 0)
(0.0944578 0.00252643 0)
(0.0934423 0.00254788 0)
(0.0924183 0.00256867 0)
(0.0913862 0.00258883 0)
(0.0903461 0.00260837 0)
(0.0892984 0.00262729 0)
(0.0882432 0.00264561 0)
(0.0871809 0.00266334 0)
(0.0861115 0.0026805 0)
(0.0850354 0.00269709 0)
(0.0839529 0.00271313 0)
(0.082864 0.00272864 0)
(0.081769 0.00274362 0)
(0.0806681 0.00275808 0)
(0.0795616 0.00277205 0)
(0.0784496 0.00278552 0)
(0.0773323 0.00279852 0)
(0.07621 0.00281105 0)
(0.0750827 0.00282313 0)
(0.0739507 0.00283477 0)
(0.0728141 0.00284597 0)
(0.0716731 0.00285676 0)
(0.070528 0.00286713 0)
(0.0693787 0.00287711 0)
(0.0682256 0.0028867 0)
(0.0670687 0.00289592 0)
(0.0659082 0.00290477 0)
(0.0647442 0.00291327 0)
(0.0635769 0.00292142 0)
(0.0624065 0.00292923 0)
(0.061233 0.00293673 0)
(0.0600565 0.00294391 0)
(0.0588773 0.00295078 0)
(0.0576954 0.00295736 0)
(0.0565109 0.00296365 0)
(0.055324 0.00296967 0)
(0.0541347 0.00297541 0)
(0.0529432 0.0029809 0)
(0.0517495 0.00298614 0)
(0.0505538 0.00299113 0)
(0.0493562 0.0029959 0)
(0.0481567 0.00300043 0)
(0.0469554 0.00300475 0)
(0.0457525 0.00300886 0)
(0.044548 0.00301277 0)
(0.0433419 0.00301648 0)
(0.0421345 0.00302 0)
(0.0409256 0.00302335 0)
(0.0397155 0.00302652 0)
(0.0385041 0.00302952 0)
(0.0372916 0.00303236 0)
(0.0360779 0.00303505 0)
(0.0348633 0.00303759 0)
(0.0336476 0.00303998 0)
(0.032431 0.00304224 0)
(0.0312136 0.00304437 0)
(0.0299953 0.00304637 0)
(0.0287763 0.00304825 0)
(0.0275565 0.00305002 0)
(0.0263361 0.00305167 0)
(0.025115 0.00305322 0)
(0.0238933 0.00305467 0)
(0.0226711 0.00305602 0)
(0.0214483 0.00305727 0)
(0.0202251 0.00305843 0)
(0.0190014 0.00305951 0)
(0.0177773 0.0030605 0)
(0.0165529 0.00306141 0)
(0.0153281 0.00306225 0)
(0.0141029 0.00306301 0)
(0.0128775 0.0030637 0)
(0.0116518 0.00306432 0)
(0.0104259 0.00306487 0)
(0.00919984 0.00306535 0)
(0.00797355 0.00306577 0)
(0.00674711 0.00306613 0)
(0.00552053 0.00306642 0)
(0.00429386 0.00306666 0)
(0.0030671 0.00306684 0)
(0.00184028 0.00306695 0)
(0.000613431 0.00306701 0)
(0.000750735 -0.00525439 0)
(0.00225218 -0.00525422 0)
(0.00375356 -0.00525388 0)
(0.00525482 -0.00525338 0)
(0.00675591 -0.0052527 0)
(0.00825679 -0.00525184 0)
(0.00975741 -0.00525079 0)
(0.0112577 -0.00524956 0)
(0.0127576 -0.00524814 0)
(0.0142571 -0.0052465 0)
(0.0157562 -0.00524465 0)
(0.0172546 -0.00524258 0)
(0.0187525 -0.00524027 0)
(0.0202497 -0.00523772 0)
(0.0217461 -0.0052349 0)
(0.0232417 -0.00523181 0)
(0.0247364 -0.00522842 0)
(0.0262301 -0.00522473 0)
(0.0277228 -0.00522071 0)
(0.0292142 -0.00521636 0)
(0.0307044 -0.00521164 0)
(0.0321933 -0.00520654 0)
(0.0336806 -0.00520103 0)
(0.0351663 -0.00519511 0)
(0.0366503 -0.00518874 0)
(0.0381324 -0.0051819 0)
(0.0396126 -0.00517457 0)
(0.0410906 -0.00516672 0)
(0.0425663 -0.00515833 0)
(0.0440396 -0.00514938 0)
(0.0455103 -0.00513982 0)
(0.0469781 -0.00512965 0)
(0.0484431 -0.00511883 0)
(0.0499048 -0.00510733 0)
(0.0513633 -0.00509512 0)
(0.0528181 -0.00508218 0)
(0.0542692 -0.00506848 0)
(0.0557163 -0.00505398 0)
(0.0571592 -0.00503865 0)
(0.0585976 -0.00502247 0)
(0.0600313 -0.00500541 0)
(0.0614601 -0.00498743 0)
(0.0628836 -0.00496851 0)
(0.0643016 -0.00494861 0)
(0.0657138 -0.0049277 0)
(0.06712 -0.00490575 0)
(0.0685197 -0.00488274 0)
(0.0699128 -0.00485863 0)
(0.0712988 -0.0048334 0)
(0.0726775 -0.00480701 0)
(0.0740485 -0.00477943 0)
(0.0754115 -0.00475065 0)
(0.0767662 -0.00472063 0)
(0.0781121 -0.00468935 0)
(0.0794489 -0.00465678 0)
(0.0807763 -0.00462289 0)
(0.0820938 -0.00458767 0)
(0.0834011 -0.00455109 0)
(0.0846978 -0.00451313 0)
(0.0859835 -0.00447377 0)
(0.0872577 -0.00443299 0)
(0.0885201 -0.00439078 0)
(0.0897702 -0.00434712 0)
(0.0910077 -0.00430199 0)
(0.0922321 -0.00425539 0)
(0.093443 -0.0042073 0)
(0.0946399 -0.00415772 0)
(0.0958224 -0.00410663 0)
(0.0969902 -0.00405404 0)
(0.0981427 -0.00399994 0)
(0.0992795 -0.00394433 0)
(0.1004 -0.00388721 0)
(0.101504 -0.00382858 0)
(0.102592 -0.00376846 0)
(0.103661 -0.00370684 0)
(0.104713 -0.00364374 0)
(0.105747 -0.00357916 0)
(0.106762 -0.00351314 0)
(0.107758 -0.00344567 0)
(0.108735 -0.00337678 0)
(0.109691 -0.0033065 0)
(0.110627 -0.00323484 0)
(0.111543 -0.00316183 0)
(0.112437 -0.0030875 0)
(0.11331 -0.00301188 0)
(0.114161 -0.002935 0)
(0.11499 -0.0028569 0)
(0.115797 -0.0027776 0)
(0.11658 -0.00269716 0)
(0.117341 -0.00261561 0)
(0.118078 -0.002533 0)
(0.118791 -0.00244936 0)
(0.11948 -0.00236475 0)
(0.120144 -0.00227921 0)
(0.120784 -0.00219278 0)
(0.121399 -0.00210553 0)
(0.121989 -0.0020175 0)
(0.122554 -0.00192875 0)
(0.123093 -0.00183932 0)
(0.123606 -0.00174928 0)
(0.124094 -0.00165867 0)
(0.124555 -0.00156757 0)
(0.124991 -0.00147601 0)
(0.1254 -0.00138407 0)
(0.125782 -0.0012918 0)
(0.126139 -0.00119925 0)
(0.126468 -0.00110649 0)
(0.126771 -0.00101357 0)
(0.127048 -0.000920558 0)
(0.127297 -0.000827505 0)
(0.127521 -0.000734471 0)
(0.127717 -0.000641513 0)
(0.127887 -0.000548687 0)
(0.12803 -0.00045605 0)
(0.128147 -0.000363657 0)
(0.128237 -0.000271563 0)
(0.128301 -0.00017982 0)
(0.128339 -8.84817e-05 0)
(0.128351 2.40155e-06 0)
(0.128336 9.27797e-05 0)
(0.128296 0.000182604 0)
(0.128231 0.000271828 0)
(0.128139 0.000360405 0)
(0.128023 0.000448291 0)
(0.127881 0.000535444 0)
(0.127715 0.000621822 0)
(0.127524 0.000707387 0)
(0.127309 0.000792101 0)
(0.127069 0.000875928 0)
(0.126806 0.000958834 0)
(0.126519 0.00104079 0)
(0.126209 0.00112176 0)
(0.125876 0.00120171 0)
(0.12552 0.00128063 0)
(0.125141 0.00135848 0)
(0.124741 0.00143525 0)
(0.124318 0.00151091 0)
(0.123875 0.00158544 0)
(0.12341 0.00165882 0)
(0.122924 0.00173104 0)
(0.122418 0.00180208 0)
(0.121891 0.00187194 0)
(0.121345 0.00194059 0)
(0.120779 0.00200804 0)
(0.120195 0.00207426 0)
(0.119591 0.00213927 0)
(0.118969 0.00220304 0)
(0.118329 0.00226558 0)
(0.117672 0.00232689 0)
(0.116997 0.00238696 0)
(0.116305 0.0024458 0)
(0.115596 0.00250341 0)
(0.114871 0.00255978 0)
(0.11413 0.00261493 0)
(0.113374 0.00266887 0)
(0.112602 0.00272159 0)
(0.111816 0.0027731 0)
(0.111015 0.00282341 0)
(0.1102 0.00287254 0)
(0.10937 0.00292049 0)
(0.108528 0.00296727 0)
(0.107672 0.00301289 0)
(0.106803 0.00305737 0)
(0.105922 0.00310071 0)
(0.105029 0.00314294 0)
(0.104124 0.00318407 0)
(0.103207 0.0032241 0)
(0.102279 0.00326306 0)
(0.10134 0.00330096 0)
(0.10039 0.00333782 0)
(0.0994298 0.00337364 0)
(0.0984596 0.00340846 0)
(0.0974797 0.00344228 0)
(0.0964902 0.00347512 0)
(0.0954915 0.003507 0)
(0.0944839 0.00353793 0)
(0.0934676 0.00356794 0)
(0.0924429 0.00359704 0)
(0.09141 0.00362524 0)
(0.0903692 0.00365257 0)
(0.0893207 0.00367904 0)
(0.0882648 0.00370467 0)
(0.0872018 0.00372948 0)
(0.0861318 0.00375348 0)
(0.085055 0.0037767 0)
(0.0839718 0.00379914 0)
(0.0828823 0.00382083 0)
(0.0817867 0.00384179 0)
(0.0806852 0.00386202 0)
(0.0795781 0.00388155 0)
(0.0784655 0.0039004 0)
(0.0773477 0.00391858 0)
(0.0762247 0.00393611 0)
(0.0750969 0.003953 0)
(0.0739644 0.00396928 0)
(0.0728273 0.00398495 0)
(0.0716858 0.00400003 0)
(0.0705402 0.00401454 0)
(0.0693904 0.0040285 0)
(0.0682368 0.00404191 0)
(0.0670795 0.0040548 0)
(0.0659186 0.00406717 0)
(0.0647542 0.00407905 0)
(0.0635865 0.00409045 0)
(0.0624157 0.00410138 0)
(0.0612418 0.00411186 0)
(0.060065 0.0041219 0)
(0.0588854 0.00413151 0)
(0.0577031 0.0041407 0)
(0.0565183 0.0041495 0)
(0.055331 0.00415791 0)
(0.0541414 0.00416594 0)
(0.0529496 0.00417361 0)
(0.0517556 0.00418093 0)
(0.0505597 0.00418792 0)
(0.0493618 0.00419457 0)
(0.048162 0.00420091 0)
(0.0469605 0.00420695 0)
(0.0457573 0.00421269 0)
(0.0445526 0.00421815 0)
(0.0433463 0.00422333 0)
(0.0421386 0.00422826 0)
(0.0409295 0.00423293 0)
(0.0397192 0.00423736 0)
(0.0385076 0.00424155 0)
(0.0372949 0.00424552 0)
(0.0360811 0.00424927 0)
(0.0348662 0.00425282 0)
(0.0336504 0.00425617 0)
(0.0324337 0.00425932 0)
(0.0312161 0.00426229 0)
(0.0299976 0.00426509 0)
(0.0287785 0.00426772 0)
(0.0275586 0.00427018 0)
(0.026338 0.00427249 0)
(0.0251168 0.00427465 0)
(0.023895 0.00427667 0)
(0.0226726 0.00427855 0)
(0.0214498 0.0042803 0)
(0.0202264 0.00428193 0)
(0.0190026 0.00428343 0)
(0.0177785 0.00428481 0)
(0.0165539 0.00428609 0)
(0.015329 0.00428725 0)
(0.0141038 0.00428831 0)
(0.0128783 0.00428927 0)
(0.0116525 0.00429014 0)
(0.0104266 0.00429091 0)
(0.00920038 0.00429158 0)
(0.00797401 0.00429217 0)
(0.0067475 0.00429267 0)
(0.00552085 0.00429308 0)
(0.0042941 0.00429341 0)
(0.00306727 0.00429365 0)
(0.00184039 0.00429381 0)
(0.000613466 0.0042939 0)
(0.00075083 -0.00675593 0)
(0.00225247 -0.00675572 0)
(0.00375404 -0.00675529 0)
(0.00525549 -0.00675464 0)
(0.00675679 -0.00675377 0)
(0.00825787 -0.00675268 0)
(0.0097587 -0.00675135 0)
(0.0112592 -0.00674978 0)
(0.0127594 -0.00674796 0)
(0.0142591 -0.00674587 0)
(0.0157584 -0.00674351 0)
(0.0172571 -0.00674087 0)
(0.0187553 -0.00673792 0)
(0.0202527 -0.00673466 0)
(0.0217495 -0.00673106 0)
(0.0232454 -0.00672711 0)
(0.0247405 -0.00672279 0)
(0.0262345 -0.00671807 0)
(0.0277276 -0.00671294 0)
(0.0292194 -0.00670736 0)
(0.03071 -0.00670133 0)
(0.0321993 -0.00669481 0)
(0.0336871 -0.00668777 0)
(0.0351733 -0.00668019 0)
(0.0366578 -0.00667204 0)
(0.0381405 -0.00666329 0)
(0.0396212 -0.00665391 0)
(0.0410998 -0.00664386 0)
(0.0425762 -0.00663312 0)
(0.0440501 -0.00662165 0)
(0.0455215 -0.00660941 0)
(0.0469901 -0.00659638 0)
(0.0484558 -0.00658251 0)
(0.0499184 -0.00656778 0)
(0.0513776 -0.00655213 0)
(0.0528333 -0.00653555 0)
(0.0542853 -0.00651798 0)
(0.0557333 -0.00649938 0)
(0.0571772 -0.00647973 0)
(0.0586166 -0.00645898 0)
(0.0600513 -0.0064371 0)
(0.0614812 -0.00641403 0)
(0.0629058 -0.00638975 0)
(0.0643249 -0.00636422 0)
(0.0657383 -0.00633739 0)
(0.0671456 -0.00630922 0)
(0.0685466 -0.00627969 0)
(0.0699409 -0.00624874 0)
(0.0713283 -0.00621635 0)
(0.0727083 -0.00618246 0)
(0.0740807 -0.00614706 0)
(0.0754451 -0.0061101 0)
(0.0768012 -0.00607155 0)
(0.0781486 -0.00603137 0)
(0.0794869 -0.00598953 0)
(0.0808158 -0.00594601 0)
(0.0821349 -0.00590076 0)
(0.0834437 -0.00585376 0)
(0.084742 -0.00580499 0)
(0.0860293 -0.00575442 0)
(0.0873051 -0.00570202 0)
(0.0885692 -0.00564777 0)
(0.089821 -0.00559166 0)
(0.0910601 -0.00553366 0)
(0.0922862 -0.00547376 0)
(0.0934988 -0.00541195 0)
(0.0946974 -0.00534821 0)
(0.0958817 -0.00528254 0)
(0.0970512 -0.00521493 0)
(0.0982054 -0.00514537 0)
(0.099344 -0.00507387 0)
(0.100466 -0.00500042 0)
(0.101572 -0.00492503 0)
(0.102661 -0.00484771 0)
(0.103733 -0.00476847 0)
(0.104786 -0.00468732 0)
(0.105822 -0.00460428 0)
(0.106839 -0.00451935 0)
(0.107836 -0.00443258 0)
(0.108814 -0.00434397 0)
(0.109772 -0.00425357 0)
(0.11071 -0.00416139 0)
(0.111627 -0.00406747 0)
(0.112523 -0.00397185 0)
(0.113398 -0.00387457 0)
(0.11425 -0.00377567 0)
(0.11508 -0.00367518 0)
(0.115888 -0.00357317 0)
(0.116673 -0.00346968 0)
(0.117435 -0.00336476 0)
(0.118173 -0.00325846 0)
(0.118887 -0.00315085 0)
(0.119577 -0.00304198 0)
(0.120243 -0.00293191 0)
(0.120884 -0.00282071 0)
(0.1215 -0.00270844 0)
(0.12209 -0.00259517 0)
(0.122656 -0.00248097 0)
(0.123196 -0.00236589 0)
(0.12371 -0.00225003 0)
(0.124198 -0.00213344 0)
(0.12466 -0.00201621 0)
(0.125096 -0.0018984 0)
(0.125505 -0.00178008 0)
(0.125888 -0.00166135 0)
(0.126245 -0.00154226 0)
(0.126574 -0.00142289 0)
(0.126878 -0.00130333 0)
(0.127154 -0.00118364 0)
(0.127404 -0.0010639 0)
(0.127627 -0.00094419 0)
(0.127823 -0.000824575 0)
(0.127993 -0.000705132 0)
(0.128136 -0.000585933 0)
(0.128252 -0.000467049 0)
(0.128342 -0.00034855 0)
(0.128406 -0.000230506 0)
(0.128443 -0.000112983 0)
(0.128454 3.95277e-06 0)
(0.128439 0.000120236 0)
(0.128399 0.000235806 0)
(0.128332 0.0003506 0)
(0.12824 0.00046456 0)
(0.128123 0.00057763 0)
(0.127981 0.000689754 0)
(0.127813 0.000800879 0)
(0.127621 0.000910956 0)
(0.127405 0.00101994 0)