/*--------------------------------*- C++ -*----------------------------------*\
| =========                 |                                                 |
| \\      /  F ield         | OpenFOAM: The Open Source CFD Toolbox           |
|  \\    /   O peration     | Version:  v2012                                 |
|   \\  /    A nd           | Website:  www.openfoam.com                      |
|    \\/     M anipulation  |                                                 |
\*---------------------------------------------------------------------------*/
FoamFile
{
    version     2.0;
    format      ascii;
    class       volScalarField;
    location    "6";
    object      W;
}
// * * * * * * * * * * * * * * * * * * * * * * * * * * * * * * * * * * * * * //

dimensions      [0 0 -1 0 0 0 0];


internalField   nonuniform List<scalar> 
65536
(
4.73763e-19
4.95909e-19
5.48135e-19
6.32607e-19
7.52997e-19
9.14636e-19
1.12472e-18
1.3926e-18
1.73016e-18
2.15224e-18
2.67723e-18
3.32773e-18
4.13134e-18
5.12165e-18
6.33939e-18
7.83376e-18
9.66411e-18
1.19018e-17
1.46325e-17
1.79588e-17
2.20032e-17
2.69119e-17
3.28587e-17
4.00501e-17
4.8731e-17
5.91907e-17
7.17708e-17
8.68736e-17
1.04972e-16
1.2662e-16
1.52467e-16
1.8327e-16
2.19913e-16
2.63422e-16
3.14988e-16
3.75991e-16
4.48022e-16
5.32919e-16
6.32793e-16
7.50065e-16
8.8751e-16
1.0483e-15
1.23603e-15
1.45482e-15
1.70931e-15
2.00477e-15
2.34715e-15
2.74314e-15
3.20024e-15
3.72688e-15
4.33246e-15
5.02748e-15
5.82357e-15
6.73367e-15
7.77205e-15
8.95445e-15
1.02982e-14
1.18223e-14
1.35474e-14
1.54961e-14
1.7693e-14
2.01646e-14
2.29397e-14
2.60489e-14
2.95254e-14
3.34043e-14
3.77231e-14
4.25216e-14
4.78415e-14
5.37269e-14
6.02235e-14
6.73791e-14
7.5243e-14
8.38659e-14
9.32997e-14
1.03597e-13
1.1481e-13
1.26993e-13
1.40196e-13
1.54472e-13
1.69869e-13
1.86434e-13
2.0421e-13
2.23237e-13
2.4355e-13
2.65176e-13
2.88138e-13
3.12451e-13
3.38121e-13
3.65144e-13
3.93506e-13
4.23182e-13
4.54135e-13
4.86313e-13
5.19654e-13
5.54078e-13
5.89493e-13
6.25789e-13
6.62843e-13
7.00515e-13
7.38651e-13
7.77082e-13
8.15624e-13
8.5408e-13
8.9224e-13
9.29885e-13
9.66784e-13
1.0027e-12
1.03739e-12
1.07061e-12
1.10212e-12
1.13166e-12
1.159e-12
1.1839e-12
1.20616e-12
1.22555e-12
1.24189e-12
1.255e-12
1.26475e-12
1.271e-12
1.27367e-12
1.27267e-12
1.26799e-12
1.25962e-12
1.24758e-12
1.23194e-12
1.21281e-12
1.19031e-12
1.16461e-12
1.1359e-12
1.10442e-12
1.0704e-12
1.03412e-12
9.95887e-13
9.56004e-13
9.148e-13
8.72611e-13
8.29779e-13
7.86647e-13
7.43558e-13
7.00848e-13
6.58845e-13
6.17864e-13
5.78204e-13
5.40147e-13
5.03956e-13
4.69868e-13
4.381e-13
4.08841e-13
3.82258e-13
3.58487e-13
3.37639e-13
3.198e-13
3.05026e-13
2.93348e-13
2.84769e-13
2.79267e-13
2.76793e-13
2.77272e-13
2.80604e-13
2.86664e-13
2.953e-13
3.06338e-13
3.19579e-13
3.34799e-13
3.51754e-13
3.70177e-13
3.89782e-13
4.10268e-13
4.31315e-13
4.52596e-13
4.73772e-13
4.94503e-13
5.14449e-13
5.33277e-13
5.50664e-13
5.66304e-13
5.79916e-13
5.91243e-13
6.00063e-13
6.06194e-13
6.09491e-13
6.09858e-13
6.07245e-13
6.01648e-13
5.93116e-13
5.81742e-13
5.67664e-13
5.51065e-13
5.32161e-13
5.11204e-13
4.88469e-13
4.64253e-13
4.38865e-13
4.12617e-13
3.85825e-13
3.58792e-13
3.31811e-13
3.05154e-13
2.79071e-13
2.53783e-13
2.29484e-13
2.06332e-13
1.84458e-13
1.63957e-13
1.44895e-13
1.27308e-13
1.11205e-13
9.65719e-14
8.33728e-14
7.1554e-14
6.10478e-14
5.17754e-14
4.36501e-14
3.65801e-14
3.04716e-14
2.52306e-14
2.07651e-14
1.69866e-14
1.38114e-14
1.11614e-14
8.96488e-15
7.15662e-15
5.6781e-15
4.47736e-15
3.50881e-15
2.73281e-15
2.11528e-15
1.62714e-15
1.24389e-15
9.44989e-16
7.13443e-16
5.35271e-16
3.99084e-16
2.95684e-16
2.17701e-16
1.59278e-16
1.15801e-16
8.36614e-17
6.00607e-17
4.28455e-17
3.03715e-17
2.13929e-17
1.49731e-17
1.04134e-17
7.19636e-18
4.94174e-18
3.37228e-18
2.28729e-18
1.54274e-18
1.03609e-18
6.95075e-19
4.6946e-19
3.24994e-19
2.39176e-19
1.98365e-19
6.57969e-19
6.88679e-19
7.6114e-19
8.78344e-19
1.04538e-18
1.26963e-18
1.56106e-18
1.93263e-18
2.40077e-18
2.98606e-18
3.71393e-18
4.61566e-18
5.72942e-18
7.10168e-18
8.78873e-18
1.08586e-17
1.33932e-17
1.64913e-17
2.02709e-17
2.48737e-17
3.04686e-17
3.72572e-17
4.5479e-17
5.54186e-17
6.74128e-17
8.18598e-17
9.92292e-17
1.20074e-16
1.45043e-16
1.74898e-16
2.10528e-16
2.52971e-16
3.03437e-16
3.6333e-16
4.34279e-16
5.18167e-16
6.17168e-16
7.33784e-16
8.70891e-16
1.03178e-15
1.22023e-15
1.44054e-15
1.69759e-15
1.99694e-15
2.34489e-15
2.74855e-15
3.21592e-15
3.75602e-15
4.37896e-15
5.09602e-15
5.91982e-15
6.86437e-15
7.94524e-15
9.17964e-15
1.05866e-14
1.21869e-14
1.40036e-14
1.60617e-14
1.83885e-14
2.10138e-14
2.39697e-14
2.7291e-14
3.1015e-14
3.51819e-14
3.98343e-14
4.50178e-14
5.07808e-14
5.71739e-14
6.42509e-14
7.20674e-14
8.06816e-14
9.01538e-14
1.00546e-13
1.1192e-13
1.24342e-13
1.37876e-13
1.52586e-13
1.68537e-13
1.8579e-13
2.04406e-13
2.24444e-13
2.45955e-13
2.6899e-13
2.9359e-13
3.19793e-13
3.47627e-13
3.7711e-13
4.08252e-13
4.41049e-13
4.75488e-13
5.1154e-13
5.49162e-13
5.88294e-13
6.28862e-13
6.70773e-13
7.13917e-13
7.58166e-13
8.03373e-13
8.49371e-13
8.95978e-13
9.4299e-13
9.90189e-13
1.03734e-12
1.08419e-12
1.13047e-12
1.17592e-12
1.22024e-12
1.26314e-12
1.30433e-12
1.34351e-12
1.38038e-12
1.41465e-12
1.44603e-12
1.47426e-12
1.49908e-12
1.52025e-12
1.53757e-12
1.55084e-12
1.5599e-12
1.56463e-12
1.56494e-12
1.56078e-12
1.55211e-12
1.53898e-12
1.52144e-12
1.4996e-12
1.47361e-12
1.44363e-12
1.4099e-12
1.37268e-12
1.33225e-12
1.28893e-12
1.24306e-12
1.19501e-12
1.14518e-12
1.09394e-12
1.04172e-12
9.88919e-13
9.35949e-13
8.83216e-13
8.31114e-13
7.80027e-13
7.30319e-13
6.82334e-13
6.36396e-13
5.92798e-13
5.5181e-13
5.1367e-13
4.78586e-13
4.46736e-13
4.18265e-13
3.93286e-13
3.71882e-13
3.54103e-13
3.39969e-13
3.29469e-13
3.22561e-13
3.19175e-13
3.19212e-13
3.22543e-13
3.29012e-13
3.38435e-13
3.50602e-13
3.65276e-13
3.82193e-13
4.01068e-13
4.21591e-13
4.43433e-13
4.66246e-13
4.89666e-13
5.1332e-13
5.36824e-13
5.59795e-13
5.8185e-13
6.02615e-13
6.21729e-13
6.38853e-13
6.53674e-13
6.6591e-13
6.75318e-13
6.81697e-13
6.84894e-13
6.84807e-13
6.81386e-13
6.74636e-13
6.64616e-13
6.51436e-13
6.35259e-13
6.16291e-13
5.9478e-13
5.71011e-13
5.45293e-13
5.17961e-13
4.89359e-13
4.59839e-13
4.29749e-13
3.99429e-13
3.69204e-13
3.39374e-13
3.10216e-13
2.81974e-13
2.54858e-13
2.29044e-13
2.04673e-13
1.81849e-13
1.6064e-13
1.41086e-13
1.23193e-13
1.06942e-13
9.22918e-14
7.91807e-14
6.75315e-14
5.72553e-14
4.82544e-14
4.04261e-14
3.36652e-14
2.78668e-14
2.29282e-14
1.8751e-14
1.52419e-14
1.23144e-14
9.88853e-15
7.8921e-15
6.2602e-15
4.93529e-15
3.86686e-15
3.01107e-15
2.3302e-15
1.79214e-15
1.36977e-15
1.04045e-15
7.85382e-16
5.89151e-16
4.3919e-16
3.25352e-16
2.39511e-16
1.75213e-16
1.2737e-16
9.20088e-17
6.6046e-17
4.71102e-17
3.33912e-17
2.35176e-17
1.64588e-17
1.14457e-17
7.90913e-18
5.4308e-18
3.70576e-18
2.51332e-18
1.69509e-18
1.13834e-18
7.63633e-19
5.15739e-19
3.57014e-19
2.6273e-19
2.17899e-19
1.08268e-18
1.13312e-18
1.2522e-18
1.44483e-18
1.71934e-18
2.08783e-18
2.56667e-18
3.17707e-18
3.94601e-18
4.90718e-18
6.10227e-18
7.58249e-18
9.41037e-18
1.16619e-17
1.44293e-17
1.78237e-17
2.19792e-17
2.70568e-17
3.32497e-17
4.07888e-17
4.99501e-17
6.10619e-17
7.45148e-17
9.07721e-17
1.10382e-16
1.33992e-16
1.62367e-16
1.96402e-16
2.37153e-16
2.85853e-16
3.43943e-16
4.13105e-16
4.95293e-16
5.92777e-16
7.08185e-16
8.44554e-16
1.00538e-15
1.1947e-15
1.41712e-15
1.67794e-15
1.98318e-15
2.33974e-15
2.75543e-15
3.23911e-15
3.8008e-15
4.45181e-15
5.20486e-15
6.07423e-15
7.07588e-15
8.22766e-15
9.54941e-15
1.10632e-14
1.27933e-14
1.47669e-14
1.70133e-14
1.95654e-14
2.24584e-14
2.57314e-14
2.94265e-14
3.35893e-14
3.82693e-14
4.35195e-14
4.93968e-14
5.5962e-14
6.32798e-14
7.14187e-14
8.04508e-14
9.04522e-14
1.01502e-13
1.13683e-13
1.27079e-13
1.4178e-13
1.57873e-13
1.75451e-13
1.94604e-13
2.15423e-13
2.37998e-13
2.62418e-13
2.88768e-13
3.17127e-13
3.47572e-13
3.80169e-13
4.1498e-13
4.52053e-13
4.91428e-13
5.3313e-13
5.77171e-13
6.23546e-13
6.72232e-13
7.23187e-13
7.76349e-13
8.31635e-13
8.88937e-13
9.48123e-13
1.00904e-12
1.0715e-12
1.1353e-12
1.20021e-12
1.26597e-12
1.33228e-12
1.39886e-12
1.46536e-12
1.53144e-12
1.59673e-12
1.66083e-12
1.72336e-12
1.78391e-12
1.84206e-12
1.8974e-12
1.94952e-12
1.99801e-12
2.04247e-12
2.08254e-12
2.11785e-12
2.14808e-12
2.17292e-12
2.19213e-12
2.20547e-12
2.21277e-12
2.21389e-12
2.20876e-12
2.19735e-12
2.17969e-12
2.15585e-12
2.12598e-12
2.09026e-12
2.04894e-12
2.00233e-12
1.95076e-12
1.89462e-12
1.83435e-12
1.77042e-12
1.70332e-12
1.63358e-12
1.56174e-12
1.48835e-12
1.41398e-12
1.33918e-12
1.26451e-12
1.19051e-12
1.11771e-12
1.0466e-12
9.7767e-13
9.11351e-13
8.48054e-13
7.8815e-13
7.31969e-13
6.798e-13
6.31892e-13
5.88447e-13
5.49626e-13
5.1555e-13
4.86294e-13
4.61894e-13
4.42346e-13
4.27607e-13
4.17595e-13
4.12192e-13
4.11244e-13
4.14562e-13
4.21921e-13
4.33066e-13
4.47709e-13
4.65528e-13
4.86175e-13
5.09272e-13
5.34417e-13
5.61183e-13
5.89123e-13
6.17775e-13
6.46664e-13
6.75309e-13
7.03228e-13
7.29947e-13
7.55001e-13
7.77947e-13
7.9837e-13
8.15887e-13
8.3016e-13
8.40897e-13
8.47862e-13
8.50877e-13
8.49829e-13
8.44669e-13
8.35416e-13
8.22154e-13
8.05033e-13
7.84261e-13
7.60105e-13
7.32877e-13
7.02934e-13
6.70665e-13
6.36483e-13
6.00814e-13
5.64091e-13
5.26743e-13
4.89184e-13
4.5181e-13
4.14987e-13
3.79047e-13
3.44286e-13
3.10956e-13
2.79266e-13
2.49382e-13
2.21426e-13
1.95476e-13
1.71574e-13
1.49723e-13
1.29896e-13
1.12038e-13
9.60678e-14
8.189e-14
6.93925e-14
5.84539e-14
4.89468e-14
4.07415e-14
3.37087e-14
2.77224e-14
2.2662e-14
1.84133e-14
1.48706e-14
1.19366e-14
9.52307e-15
7.55119e-15
5.95097e-15
4.66109e-15
3.62835e-15
2.80703e-15
2.15821e-15
1.6491e-15
1.25227e-15
9.45029e-16
7.0873e-16
5.28203e-16
3.91203e-16
2.87924e-16
2.10584e-16
1.53053e-16
1.1054e-16
7.93336e-17
5.65785e-17
4.00956e-17
2.82353e-17
1.97575e-17
1.37378e-17
9.49176e-18
6.51672e-18
4.44624e-18
3.01521e-18
2.03339e-18
1.36539e-18
9.15866e-19
6.18501e-19
4.28115e-19
3.15031e-19
2.61264e-19
1.89138e-18
1.97937e-18
2.18714e-18
2.52325e-18
3.00221e-18
3.64511e-18
4.48042e-18
5.54509e-18
6.88607e-18
8.56199e-18
1.06454e-17
1.32254e-17
1.64106e-17
2.03333e-17
2.51534e-17
3.10643e-17
3.82986e-17
4.71358e-17
5.7911e-17
7.10248e-17
8.6955e-17
1.06271e-16
1.29648e-16
1.57889e-16
1.91941e-16
2.32924e-16
2.82155e-16
3.41185e-16
4.1183e-16
4.96217e-16
5.96827e-16
7.16554e-16
8.58756e-16
1.02733e-15
1.22679e-15
1.46234e-15
1.73996e-15
2.06656e-15
2.45001e-15
2.89934e-15
3.42484e-15
4.03822e-15
4.75277e-15
5.58353e-15
6.54749e-15
7.66377e-15
8.95387e-15
1.04419e-14
1.21546e-14
1.41221e-14
1.63777e-14
1.89582e-14
2.19043e-14
2.52611e-14
2.90776e-14
3.34079e-14
3.83109e-14
4.38505e-14
5.00962e-14
5.71229e-14
6.50112e-14
7.38478e-14
8.37251e-14
9.47413e-14
1.07001e-13
1.20613e-13
1.35695e-13
1.52365e-13
1.7075e-13
1.9098e-13
2.13187e-13
2.37508e-13
2.64081e-13
2.93045e-13
3.24538e-13
3.58697e-13
3.95656e-13
4.35544e-13
4.78482e-13
5.24586e-13
5.73957e-13
6.26687e-13
6.8285e-13
7.42505e-13
8.0569e-13
8.72422e-13
9.42692e-13
1.01647e-12
1.09368e-12
1.17424e-12
1.25802e-12
1.34485e-12
1.43453e-12
1.52684e-12
1.62148e-12
1.71816e-12
1.81652e-12
1.91616e-12
2.01667e-12
2.11757e-12
2.21837e-12
2.31854e-12
2.41754e-12
2.51477e-12
2.60964e-12
2.70155e-12
2.78987e-12
2.87398e-12
2.95326e-12
3.02711e-12
3.09493e-12
3.15616e-12
3.21027e-12
3.25676e-12
3.29519e-12
3.32516e-12
3.34633e-12
3.35844e-12
3.36128e-12
3.35473e-12
3.33874e-12
3.31334e-12
3.27863e-12
3.23483e-12
3.18219e-12
3.12109e-12
3.05194e-12
2.97525e-12
2.89159e-12
2.80159e-12
2.70593e-12
2.60535e-12
2.50061e-12
2.39251e-12
2.28186e-12
2.16949e-12
2.05622e-12
1.94288e-12
1.83026e-12
1.71913e-12
1.61025e-12
1.5043e-12
1.40195e-12
1.30381e-12
1.21042e-12
1.12228e-12
1.03981e-12
9.63397e-13
8.93333e-13
8.29867e-13
7.73181e-13
7.23398e-13
6.80579e-13
6.4473e-13
6.158e-13
5.93687e-13
5.78237e-13
5.69246e-13
5.66463e-13
5.69593e-13
5.78295e-13
5.92188e-13
6.10849e-13
6.33817e-13
6.60594e-13
6.90649e-13
7.2342e-13
7.58317e-13
7.94727e-13
8.3202e-13
8.69554e-13
9.06684e-13
9.42765e-13
9.77167e-13
1.00928e-12
1.03851e-12
1.06434e-12
1.08625e-12
1.10382e-12
1.11667e-12
1.12452e-12
1.12714e-12
1.12441e-12
1.11627e-12
1.10277e-12
1.08404e-12
1.06029e-12
1.03181e-12
9.98972e-13
9.62187e-13
9.21936e-13
8.78738e-13
8.33137e-13
7.85697e-13
7.36986e-13
6.87563e-13
6.37969e-13
5.88714e-13
5.40273e-13
4.93073e-13
4.47492e-13
4.03851e-13
3.62415e-13
3.2339e-13
2.86927e-13
2.5312e-13
2.22015e-13
1.9361e-13
1.67861e-13
1.4469e-13
1.23989e-13
1.05626e-13
8.94539e-14
7.531e-14
6.30266e-14
5.24329e-14
4.33594e-14
3.56414e-14
2.91212e-14
2.36505e-14
1.90915e-14
1.53179e-14
1.22155e-14
9.68216e-15
7.62734e-15
5.97183e-15
4.64697e-15
3.5938e-15
2.76219e-15
2.10991e-15
1.6017e-15
1.20836e-15
9.05954e-16
6.75005e-16
4.99796e-16
3.67755e-16
2.68907e-16
1.95397e-16
1.41091e-16
1.01239e-16
7.21863e-17
5.11468e-17
3.60111e-17
2.51944e-17
1.75153e-17
1.20999e-17
8.30623e-18
5.66644e-18
3.84221e-18
2.59079e-18
1.73949e-18
1.16668e-18
7.87799e-19
5.45246e-19
4.01188e-19
3.32697e-19
3.35197e-18
3.50768e-18
3.87549e-18
4.47048e-18
5.31833e-18
6.45628e-18
7.93463e-18
9.8187e-18
1.21914e-17
1.51562e-17
1.88412e-17
2.34037e-17
2.90355e-17
3.59698e-17
4.44886e-17
5.49328e-17
6.77124e-17
8.33198e-17
1.02345e-16
1.25492e-16
1.53604e-16
1.87679e-16
2.28907e-16
2.78695e-16
3.38709e-16
4.10911e-16
4.97615e-16
6.01534e-16
7.25852e-16
8.74289e-16
1.05119e-15
1.2616e-15
1.51139e-15
1.80737e-15
2.15739e-15
2.57051e-15
3.05717e-15
3.62933e-15
4.30069e-15
5.08691e-15
6.00581e-15
7.07766e-15
8.32541e-15
9.77504e-15
1.14558e-14
1.34007e-14
1.56465e-14
1.82347e-14
2.12112e-14
2.46274e-14
2.854e-14
3.3012e-14
3.81125e-14
4.39179e-14
5.05114e-14
5.79843e-14
6.64358e-14
7.59734e-14
8.67137e-14
9.87818e-14
1.12312e-13
1.27449e-13
1.44346e-13
1.63164e-13
1.84075e-13
2.0726e-13
2.32906e-13
2.6121e-13
2.92374e-13
3.26608e-13
3.64123e-13
4.05136e-13
4.49865e-13
4.98527e-13
5.51337e-13
6.08504e-13
6.70232e-13
7.36713e-13
8.08125e-13
8.84633e-13
9.66378e-13
1.05348e-12
1.14603e-12
1.2441e-12
1.34771e-12
1.45685e-12
1.57148e-12
1.69149e-12
1.81673e-12
1.94703e-12
2.08212e-12
2.2217e-12
2.3654e-12
2.51281e-12
2.66343e-12
2.81674e-12
2.97211e-12
3.1289e-12
3.28639e-12
3.44381e-12
3.60034e-12
3.75514e-12
3.9073e-12
4.05591e-12
4.20002e-12
4.33867e-12
4.4709e-12
4.59575e-12
4.71228e-12
4.81957e-12
4.91675e-12
5.00299e-12
5.07751e-12
5.13962e-12
5.1887e-12
5.22421e-12
5.24572e-12
5.25292e-12
5.24558e-12
5.22361e-12
5.18703e-12
5.136e-12
5.0708e-12
4.99182e-12
4.89959e-12
4.79474e-12
4.67802e-12
4.55029e-12
4.41249e-12
4.26565e-12
4.11088e-12
3.94933e-12
3.78221e-12
3.61076e-12
3.43623e-12
3.25988e-12
3.08296e-12
2.9067e-12
2.73227e-12
2.56083e-12
2.39345e-12
2.23115e-12
2.07485e-12
1.92541e-12
1.7836e-12
1.65008e-12
1.52544e-12
1.41015e-12
1.30461e-12
1.2091e-12
1.12384e-12
1.04893e-12
9.84393e-13
9.30187e-13
8.86173e-13
8.52145e-13
8.27824e-13
8.12864e-13
8.06857e-13
8.09332e-13
8.19761e-13
8.37562e-13
8.62099e-13
8.92687e-13
9.28595e-13
9.69052e-13
1.01325e-12
1.06034e-12
1.10945e-12
1.15971e-12
1.2102e-12
1.26004e-12
1.30832e-12
1.35419e-12
1.3968e-12
1.43537e-12
1.46916e-12
1.49751e-12
1.51985e-12
1.53568e-12
1.54463e-12
1.54642e-12
1.5409e-12
1.52803e-12
1.50788e-12
1.48066e-12
1.44669e-12
1.40637e-12
1.36021e-12
1.30881e-12
1.25283e-12
1.19298e-12
1.13001e-12
1.06468e-12
9.9777e-13
9.30035e-13
8.62205e-13
7.94966e-13
7.28951e-13
6.64731e-13
6.02805e-13
5.43599e-13
4.87457e-13
4.34649e-13
3.85365e-13
3.39723e-13
2.97774e-13
2.59503e-13
2.24846e-13
1.93687e-13
1.65875e-13
1.41226e-13
1.19534e-13
1.00578e-13
8.41272e-14
6.99499e-14
5.78156e-14
4.75008e-14
3.87925e-14
3.14903e-14
2.54086e-14
2.03775e-14
1.62436e-14
1.28696e-14
1.01344e-14
7.9317e-15
6.16979e-15
4.76982e-15
3.66485e-15
2.7985e-15
2.12376e-15
1.60173e-15
1.20054e-15
8.94245e-16
6.61953e-16
4.8695e-16
3.55977e-16
2.58605e-16
1.86691e-16
1.33931e-16
9.54774e-17
6.76366e-17
4.76125e-17
3.33053e-17
2.31504e-17
1.59903e-17
1.09753e-17
7.48622e-18
5.07549e-18
3.42198e-18
2.2973e-18
1.54063e-18
1.0402e-18
7.19865e-19
5.29622e-19
4.39176e-19
5.93722e-18
6.21262e-18
6.86337e-18
7.9161e-18
9.41616e-18
1.14293e-17
1.40444e-17
1.73768e-17
2.15728e-17
2.68152e-17
3.33301e-17
4.13948e-17
5.13478e-17
6.36002e-17
7.86494e-17
9.7096e-17
1.19662e-16
1.47215e-16
1.80794e-16
2.21638e-16
2.71228e-16
3.31321e-16
4.04008e-16
4.9176e-16
5.975e-16
7.24674e-16
8.77337e-16
1.06025e-15
1.27898e-15
1.54004e-15
1.85104e-15
2.22079e-15
2.65956e-15
3.1792e-15
3.79343e-15
4.51803e-15
5.37117e-15
6.37365e-15
7.54928e-15
8.92523e-15
1.05324e-14
1.24059e-14
1.45854e-14
1.71158e-14
2.00476e-14
2.34376e-14
2.73492e-14
3.18535e-14
3.70295e-14
4.29649e-14
4.97569e-14
5.75129e-14
6.63507e-14
7.64e-14
8.78023e-14
1.00712e-13
1.15296e-13
1.31737e-13
1.5023e-13
1.70985e-13
1.94226e-13
2.20194e-13
2.49144e-13
2.81343e-13
3.17076e-13
3.56637e-13
4.00335e-13
4.4849e-13
5.01431e-13
5.59493e-13
6.23018e-13
6.92352e-13
7.67837e-13
8.49816e-13
9.38622e-13
1.03458e-12
1.13799e-12
1.24915e-12
1.36831e-12
1.49571e-12
1.63154e-12
1.77597e-12
1.92908e-12
2.09094e-12
2.26155e-12
2.44082e-12
2.62862e-12
2.82474e-12
3.02888e-12
3.24065e-12
3.4596e-12
3.68515e-12
3.91665e-12
4.15337e-12
4.39446e-12
4.63898e-12
4.88592e-12
5.13416e-12
5.38251e-12
5.62971e-12
5.87442e-12
6.11524e-12
6.35074e-12
6.57945e-12
6.79986e-12
7.01047e-12
7.20978e-12
7.3963e-12
7.5686e-12
7.72531e-12
7.8651e-12
7.98675e-12
8.08916e-12
8.17133e-12
8.2324e-12
8.27166e-12
8.28859e-12
8.28279e-12
8.25409e-12
8.20249e-12
8.12818e-12
8.03154e-12
7.91314e-12
7.77376e-12
7.61434e-12
7.436e-12
7.24003e-12
7.02784e-12
6.80102e-12
6.56123e-12
6.31024e-12
6.0499e-12
5.78212e-12
5.50883e-12
5.23197e-12
4.95346e-12
4.67522e-12
4.39909e-12
4.12685e-12
3.86017e-12
3.60066e-12
3.34978e-12
3.10888e-12
2.87916e-12
2.6617e-12
2.45742e-12
2.26709e-12
2.09136e-12
1.9307e-12
1.78546e-12
1.65585e-12
1.54194e-12
1.44369e-12
1.36093e-12
1.29338e-12
1.24066e-12
1.20229e-12
1.17768e-12
1.16617e-12
1.16703e-12
1.17941e-12
1.20244e-12
1.23515e-12
1.2765e-12
1.32542e-12
1.38077e-12
1.44136e-12
1.50597e-12
1.57336e-12
1.64224e-12
1.71135e-12
1.77942e-12
1.84518e-12
1.90742e-12
1.96499e-12
2.01678e-12
2.0618e-12
2.09913e-12
2.128e-12
2.14776e-12
2.15789e-12
2.15805e-12
2.14806e-12
2.12789e-12
2.09769e-12
2.05776e-12
2.00856e-12
1.95069e-12
1.88487e-12
1.81196e-12
1.73288e-12
1.64861e-12
1.56022e-12
1.46876e-12
1.3753e-12
1.28088e-12
1.1865e-12
1.09311e-12
1.00156e-12
9.12638e-13
8.27008e-13
7.45243e-13
6.67806e-13
5.95051e-13
5.27226e-13
4.64479e-13
4.06865e-13
3.54354e-13
3.06843e-13
2.64166e-13
2.26103e-13
1.92397e-13
1.62757e-13
1.36874e-13
1.14428e-13
9.50974e-14
7.85628e-14
6.45164e-14
5.26647e-14
4.27324e-14
3.44649e-14
2.76292e-14
2.20154e-14
1.74359e-14
1.3725e-14
1.07381e-14
8.3499e-15
6.45309e-15
4.95658e-15
3.7837e-15
2.87057e-15
2.16436e-15
1.62179e-15
1.20771e-15
8.93762e-16
6.57315e-16
4.80409e-16
3.48923e-16
2.5184e-16
1.80631e-16
1.28745e-16
9.11868e-17
6.41794e-17
4.48866e-17
3.11956e-17
2.15441e-17
1.47851e-17
1.00836e-17
6.83559e-18
4.60812e-18
3.09325e-18
2.0742e-18
1.40031e-18
9.68973e-19
7.12829e-19
5.91057e-19
1.04632e-17
1.09479e-17
1.20934e-17
1.39466e-17
1.65872e-17
2.01308e-17
2.47334e-17
3.05978e-17
3.7981e-17
4.72042e-17
5.86642e-17
7.28482e-17
9.035e-17
1.11891e-16
1.38344e-16
1.70763e-16
2.10413e-16
2.58814e-16
3.17786e-16
3.89501e-16
4.76548e-16
5.82007e-16
7.09528e-16
8.63436e-16
1.04884e-15
1.27175e-15
1.53925e-15
1.85964e-15
2.24264e-15
2.69959e-15
3.24372e-15
3.89041e-15
4.65746e-15
5.5655e-15
6.63832e-15
7.90333e-15
9.39199e-15
1.11403e-14
1.31895e-14
1.55866e-14
1.83848e-14
2.16447e-14
2.54347e-14
2.9832e-14
3.49235e-14
4.08064e-14
4.75897e-14
5.53948e-14
6.43568e-14
7.46255e-14
8.63663e-14
9.97617e-14
1.15012e-13
1.32337e-13
1.51975e-13
1.74187e-13
1.99256e-13
2.27485e-13
2.59203e-13
2.9476e-13
3.34532e-13
3.78917e-13
4.28336e-13
4.83233e-13
5.44074e-13
6.11344e-13
6.85546e-13
7.67198e-13
8.56833e-13
9.54991e-13
1.06222e-12
1.17906e-12
1.30607e-12
1.44376e-12
1.59267e-12
1.75327e-12
1.92604e-12
2.1114e-12
2.30973e-12
2.52134e-12
2.7465e-12
2.98539e-12
3.23812e-12
3.50469e-12
3.78502e-12
4.07889e-12
4.38601e-12
4.70592e-12
5.03804e-12
5.38167e-12
5.73596e-12
6.09989e-12
6.47232e-12
6.85195e-12
7.23735e-12
7.62692e-12
8.01894e-12
8.41157e-12
8.80283e-12
9.19064e-12
9.57282e-12
9.94714e-12
1.03113e-11
1.06629e-11
1.09996e-11
1.13191e-11
1.1619e-11
1.1897e-11
1.2151e-11
1.23789e-11
1.25787e-11
1.27487e-11
1.28872e-11
1.29928e-11
1.30645e-11
1.31013e-11
1.31025e-11
1.30678e-11
1.2997e-11
1.28905e-11
1.27488e-11
1.25726e-11
1.2363e-11
1.21216e-11
1.18498e-11
1.15498e-11
1.12235e-11
1.08735e-11
1.05022e-11
1.01124e-11
9.70683e-12
9.28853e-12
8.86043e-12
8.42556e-12
7.98691e-12
7.54744e-12
7.11005e-12
6.6775e-12
6.25247e-12
5.83746e-12
5.43479e-12
5.0466e-12
4.67483e-12
4.32119e-12
3.98718e-12
3.67407e-12
3.38289e-12
3.11446e-12
2.86937e-12
2.64802e-12
2.45057e-12
2.27701e-12
2.12715e-12
2.00061e-12
1.89687e-12
1.81524e-12
1.75492e-12
1.71495e-12
1.69426e-12
1.69169e-12
1.70596e-12
1.73569e-12
1.77942e-12
1.8356e-12
1.90263e-12
1.97882e-12
2.06244e-12
2.15171e-12
2.2448e-12
2.33991e-12
2.43519e-12
2.52885e-12
2.61909e-12
2.70422e-12
2.7826e-12
2.85271e-12
2.91316e-12
2.96269e-12
3.00024e-12
3.02493e-12
3.03609e-12
3.03327e-12
3.01625e-12
2.98504e-12
2.93987e-12
2.88122e-12
2.80975e-12
2.72634e-12
2.63204e-12
2.52803e-12
2.41564e-12
2.29627e-12
2.17137e-12
2.04245e-12
1.91099e-12
1.77843e-12
1.64615e-12
1.51547e-12
1.38755e-12
1.26346e-12
1.14413e-12
1.03032e-12
9.22651e-13
8.21604e-13
7.275e-13
6.40526e-13
5.60741e-13
4.88086e-13
4.22406e-13
3.63455e-13
3.10919e-13
2.6443e-13
2.23579e-13
1.87931e-13
1.57037e-13
1.30447e-13
1.07717e-13
8.84195e-14
7.2146e-14
5.85155e-14
4.71754e-14
3.78042e-14
3.01117e-14
2.38393e-14
1.8759e-14
1.46716e-14
1.14049e-14
8.8113e-15
6.76584e-15
5.16333e-15
3.91614e-15
2.9519e-15
2.21133e-15
1.64631e-15
1.21806e-15
8.95612e-16
6.54427e-16
4.75212e-16
3.42922e-16
2.45912e-16
1.75242e-16
1.24097e-16
8.7328e-17
6.10669e-17
4.24343e-17
2.93014e-17
2.01061e-17
1.37107e-17
9.29329e-18
6.26422e-18
4.20447e-18
2.81903e-18
1.90295e-18
1.31665e-18
9.68509e-19
8.03008e-19
1.8322e-17
1.91695e-17
2.11732e-17
2.44148e-17
2.90336e-17
3.52313e-17
4.32806e-17
5.35353e-17
6.64443e-17
8.2568e-17
1.02599e-16
1.27387e-16
1.57969e-16
1.95602e-16
2.41807e-16
2.98421e-16
3.67649e-16
4.52139e-16
5.55058e-16
6.80187e-16
8.32031e-16
1.01594e-15
1.23827e-15
1.50653e-15
1.82959e-15
2.21789e-15
2.68371e-15
3.24145e-15
3.90795e-15
4.70286e-15
5.64907e-15
6.77316e-15
8.10594e-15
9.68303e-15
1.15455e-14
1.37406e-14
1.63225e-14
1.93533e-14
2.29038e-14
2.70547e-14
3.18976e-14
3.75363e-14
4.4088e-14
5.16846e-14
6.04747e-14
7.06243e-14
8.23191e-14
9.57658e-14
1.11194e-13
1.28858e-13
1.49037e-13
1.72041e-13
1.98208e-13
2.27908e-13
2.61542e-13
2.99549e-13
3.424e-13
3.90605e-13
4.4471e-13
5.05299e-13
5.72993e-13
6.48451e-13
7.32367e-13
8.25471e-13
9.28525e-13
1.04232e-12
1.16767e-12
1.30542e-12
1.45642e-12
1.62153e-12
1.80163e-12
1.99758e-12
2.21022e-12
2.44039e-12
2.68887e-12
2.95642e-12
3.24372e-12
3.55139e-12
3.87997e-12
4.22988e-12
4.60145e-12
4.99488e-12
5.41021e-12
5.84734e-12
6.306e-12
6.78573e-12
7.28587e-12
7.80557e-12
8.34376e-12
8.89912e-12
9.47015e-12
1.00551e-11
1.06519e-11
1.12584e-11
1.18722e-11
1.24905e-11
1.31105e-11
1.37292e-11
1.43433e-11
1.49494e-11
1.5544e-11
1.61235e-11
1.66843e-11
1.72225e-11
1.77346e-11
1.82169e-11
1.86657e-11
1.90775e-11
1.94492e-11
1.97776e-11
2.00598e-11
2.02932e-11
2.04756e-11
2.06051e-11
2.06802e-11
2.06996e-11
2.06628e-11
2.05694e-11
2.04197e-11
2.02144e-11
1.99546e-11
1.9642e-11
1.92784e-11
1.88666e-11
1.84092e-11
1.79096e-11
1.73714e-11
1.67984e-11
1.61947e-11
1.55648e-11
1.49132e-11
1.42443e-11
1.3563e-11
1.28738e-11
1.21814e-11
1.14903e-11
1.08049e-11
1.01293e-11
9.46751e-12
8.82321e-12
8.19982e-12
7.60043e-12
7.02781e-12
6.48437e-12
5.9722e-12
5.49301e-12
5.04816e-12
4.6387e-12
4.26532e-12
3.92838e-12
3.62798e-12
3.36389e-12
3.13565e-12
2.94252e-12
2.78357e-12
2.65762e-12
2.56333e-12
2.49916e-12
2.46342e-12
2.45428e-12
2.46975e-12
2.50775e-12
2.56604e-12
2.64234e-12
2.73422e-12
2.83921e-12
2.95476e-12
3.07827e-12
3.20713e-12
3.3387e-12
3.47035e-12
3.5995e-12
3.72365e-12
3.84036e-12
3.94735e-12
4.04249e-12
4.12383e-12
4.18967e-12
4.23852e-12
4.26921e-12
4.28084e-12
4.27283e-12
4.24492e-12
4.19716e-12
4.12996e-12
4.04402e-12
3.94031e-12
3.82011e-12
3.68491e-12
3.53642e-12
3.3765e-12
3.20713e-12
3.03037e-12
2.8483e-12
2.663e-12
2.47648e-12
2.29066e-12
2.10735e-12
1.92816e-12
1.75456e-12
1.58781e-12
1.42896e-12
1.27884e-12
1.1381e-12
1.00715e-12
8.86228e-13
7.754e-13
6.74562e-13
5.83475e-13
5.01783e-13
4.29034e-13
3.64704e-13
3.08214e-13
2.5895e-13
2.16282e-13
1.79581e-13
1.48227e-13
1.2162e-13
9.91962e-14
8.04235e-14
6.48131e-14
5.1919e-14
4.13396e-14
3.27172e-14
2.57364e-14
2.01222e-14
1.56369e-14
1.20773e-14
9.27098e-15
7.07314e-15
5.36319e-15
4.04161e-15
3.0269e-15
2.25295e-15
1.66651e-15
1.22508e-15
8.94979e-16
6.49758e-16
4.68786e-16
3.36108e-16
2.39474e-16
1.69555e-16
1.19297e-16
8.34096e-17
5.79514e-17
4.00105e-17
2.74508e-17
1.87169e-17
1.2685e-17
8.54948e-18
5.73769e-18
3.84663e-18
2.59635e-18
1.79623e-18
1.32115e-18
1.09532e-18
3.18673e-17
3.33393e-17
3.68205e-17
4.24525e-17
5.0477e-17
6.12439e-17
7.52262e-17
9.30377e-17
1.15456e-16
1.43454e-16
1.78232e-16
2.21263e-16
2.74341e-16
3.39647e-16
4.19815e-16
5.18022e-16
6.38088e-16
7.84592e-16
9.63014e-16
1.17989e-15
1.44301e-15
1.76162e-15
2.14668e-15
2.61116e-15
3.17037e-15
3.84232e-15
4.64818e-15
5.61273e-15
6.765e-15
8.13879e-15
9.77346e-15
1.17147e-14
1.40155e-14
1.67368e-14
1.99493e-14
2.37337e-14
2.8183e-14
3.34034e-14
3.95158e-14
4.66582e-14
5.49867e-14
6.46783e-14
7.59324e-14
8.89738e-14
1.04054e-13
1.21456e-13
1.41493e-13
1.64515e-13
1.90911e-13
2.21108e-13
2.5558e-13
2.94845e-13
3.39471e-13
3.90077e-13
4.47336e-13
5.11979e-13
5.84791e-13
6.66619e-13
7.58369e-13
8.61004e-13
9.75551e-13
1.10309e-12
1.24476e-12
1.40176e-12
1.57532e-12
1.76672e-12
1.97729e-12
2.20837e-12
2.46133e-12
2.73754e-12
3.03837e-12
3.36518e-12
3.71929e-12
4.10197e-12
4.51443e-12
4.95777e-12
5.43302e-12
5.94105e-12
6.4826e-12
7.05823e-12
7.66829e-12
8.31294e-12
8.99207e-12
9.70534e-12
1.04521e-11
1.12314e-11
1.20419e-11
1.28821e-11
1.375e-11
1.46433e-11
1.55593e-11
1.6495e-11
1.74469e-11
1.84114e-11
1.93842e-11
2.0361e-11
2.13371e-11
2.23073e-11
2.32665e-11
2.42092e-11
2.51298e-11
2.60224e-11
2.68814e-11
2.77009e-11
2.84751e-11
2.91984e-11
2.98653e-11
3.04705e-11
3.10091e-11
3.14766e-11
3.18687e-11
3.21818e-11
3.24128e-11
3.2559e-11
3.26185e-11
3.25901e-11
3.24732e-11
3.22679e-11
3.1975e-11
3.15961e-11
3.11335e-11
3.05901e-11
2.99697e-11
2.92763e-11
2.8515e-11
2.76912e-11
2.68107e-11
2.58799e-11
2.49053e-11
2.38939e-11
2.28529e-11
2.17893e-11
2.07104e-11
1.96235e-11
1.85355e-11
1.74534e-11
1.63836e-11
1.53325e-11
1.43058e-11
1.33091e-11
1.23473e-11
1.14248e-11
1.05456e-11
9.713e-12
8.92992e-12
8.19864e-12
7.52093e-12
6.89803e-12
6.33069e-12
5.81919e-12
5.36337e-12
4.96262e-12
4.61599e-12
4.32215e-12
4.07945e-12
3.88596e-12
3.73946e-12
3.63751e-12
3.57744e-12
3.5564e-12
3.57135e-12
3.6191e-12
3.69632e-12
3.79953e-12
3.92518e-12
4.06961e-12
4.22908e-12
4.39983e-12
4.57804e-12
4.75993e-12
4.94174e-12
5.11979e-12
5.2905e-12
5.45047e-12
5.59647e-12
5.72553e-12
5.83493e-12
5.92232e-12
5.98568e-12
6.0234e-12
6.03428e-12
6.01757e-12
5.97299e-12
5.90068e-12
5.80128e-12
5.6758e-12
5.52572e-12
5.35285e-12
5.15933e-12
4.94759e-12
4.72026e-12
4.48013e-12
4.23011e-12
3.97311e-12
3.71202e-12
3.44965e-12
3.18866e-12
2.93154e-12
2.68054e-12
2.43766e-12
2.20462e-12
1.98285e-12
1.7735e-12
1.5774e-12
1.39511e-12
1.22694e-12
1.07292e-12
9.32903e-13
8.06518e-13
6.93252e-13
5.92455e-13
5.03383e-13
4.25215e-13
3.57089e-13
2.98122e-13
2.47428e-13
2.04143e-13
1.67433e-13
1.36509e-13
1.10633e-13
8.91261e-14
7.13698e-14
5.68075e-14
4.49438e-14
3.53429e-14
2.76245e-14
2.14605e-14
1.65704e-14
1.27165e-14
9.69921e-15
7.35249e-15
5.53931e-15
4.14759e-15
3.08637e-15
2.28248e-15
1.67753e-15
1.22526e-15
8.89369e-16
6.41539e-16
4.59884e-16
3.27607e-16
2.31917e-16
1.63149e-16
1.14052e-16
7.92299e-17
5.46941e-17
3.75202e-17
2.55794e-17
1.73339e-17
1.16814e-17
7.83872e-18
5.25463e-18
3.54634e-18
2.4532e-18
1.80419e-18
1.49569e-18
5.5048e-17
5.75872e-17
6.3594e-17
7.33124e-17
8.71586e-17
1.05736e-16
1.29859e-16
1.60585e-16
1.99254e-16
2.4754e-16
3.07511e-16
3.81701e-16
4.73201e-16
5.8576e-16
7.23911e-16
8.93119e-16
1.09995e-15
1.35227e-15
1.6595e-15
2.03287e-15
2.48574e-15
3.03399e-15
3.69643e-15
4.49529e-15
5.45682e-15
6.61187e-15
7.99668e-15
9.65372e-15
1.16326e-14
1.39911e-14
1.67965e-14
2.01269e-14
2.40725e-14
2.87377e-14
3.42423e-14
4.07244e-14
4.83418e-14
5.72751e-14
6.773e-14
7.99403e-14
9.4171e-14
1.10722e-13
1.2993e-13
1.52175e-13
1.77883e-13
2.07529e-13
2.41643e-13
2.80812e-13
3.25689e-13
3.76992e-13
4.35511e-13
5.02115e-13
5.77751e-13
6.63451e-13
7.60333e-13
8.69609e-13
9.92581e-13
1.13065e-12
1.2853e-12
1.45812e-12
1.6508e-12
1.86509e-12
2.10286e-12
2.36605e-12
2.65664e-12
2.97673e-12
3.32841e-12
3.71384e-12
4.13519e-12
4.59463e-12
5.09432e-12
5.63635e-12
6.22277e-12
6.85551e-12
7.53638e-12
8.26703e-12
9.04892e-12
9.88329e-12
1.07711e-11
1.1713e-11
1.27094e-11
1.37601e-11
1.48649e-11
1.60227e-11
1.72322e-11
1.84916e-11
1.97985e-11
2.115e-11
2.25426e-11
2.39723e-11
2.54344e-11
2.69237e-11
2.84345e-11
2.99605e-11
3.14949e-11
3.30303e-11
3.4559e-11
3.60729e-11
3.75635e-11
3.90221e-11
4.04396e-11
4.1807e-11
4.31153e-11
4.43553e-11
4.55182e-11
4.65952e-11
4.75782e-11
4.84592e-11
4.92309e-11
4.98867e-11
5.04205e-11
5.08272e-11
5.11025e-11
5.12432e-11
5.12468e-11
5.11122e-11
5.08392e-11
5.04288e-11
4.9883e-11
4.92051e-11
4.83992e-11
4.74708e-11
4.64261e-11
4.52724e-11
4.40178e-11
4.26713e-11
4.12424e-11
3.97411e-11
3.81782e-11
3.65644e-11
3.49109e-11
3.32289e-11
3.15295e-11
2.98237e-11
2.81222e-11
2.64354e-11
2.47731e-11
2.31445e-11
2.15583e-11
2.00224e-11
1.85441e-11
1.71295e-11
1.57844e-11
1.45133e-11
1.33201e-11
1.22078e-11