/*--------------------------------*- C++ -*----------------------------------*\
| =========                 |                                                 |
| \\      /  F ield         | OpenFOAM: The Open Source CFD Toolbox           |
|  \\    /   O peration     | Version:  v2012                                 |
|   \\  /    A nd           | Website:  www.openfoam.com                      |
|    \\/     M anipulation  |                                                 |
\*---------------------------------------------------------------------------*/
FoamFile
{
    version     2.0;
    format      ascii;
    class       volScalarField;
    location    "0";
    object      p;
}
// * * * * * * * * * * * * * * * * * * * * * * * * * * * * * * * * * * * * * //

dimensions      [0 2 -2 0 0 0 0];


internalField   nonuniform List<scalar> 
4000
(
-0.125087
-0.117997
-0.117981
-0.114271
-0.110763
-0.14625
-0.166597
-0.154237
-0.121566
-0.0972392
-0.0534516
-0.0513992
-0.0524568
-0.0349179
-0.0398667
-0.070931
-0.0820541
-0.0181977
0.0353249
0.0115649
-0.0128831
-0.00680629
0.015785
0.017768
0.0647223
0.0867189
0.121921
0.110966
0.106086
0.123465
0.117456
0.158447
0.175841
0.199455
0.204583
0.198688
0.18865
0.193296
0.202372
0.226
0.214236
0.190518
0.209415
0.233325
0.226228
0.234051
0.237544
0.231399
0.234286
0.199895
0.180196
0.169753
0.161669
0.116673
0.0961923
0.0819946
0.0780535
0.0577806
0.0700335
0.0613289
0.0383549
0.0123375
-0.00967806
-0.00835656
-0.0375544
-0.067517
-0.0528801
-0.0597827
-0.0879343
-0.0879692
-0.101512
-0.123653
-0.146344
-0.187464
-0.212902
-0.204676
-0.205468
-0.216995
-0.241516
-0.278411
-0.29435
-0.263617
-0.275942
-0.311821
-0.327698
-0.315624
-0.274249
-0.249415
-0.254009
-0.236929
-0.202371
-0.197056
-0.175669
-0.153915
-0.13235
-0.0739664
-0.0711152
-0.0705467
-0.0491469
-0.0120609
-0.126444
-0.128457
-0.109687
-0.105304
-0.128304
-0.141833
-0.144874
-0.143791
-0.114605
-0.113998
-0.0724563
-0.0572209
-0.0475224
-0.0319581
-0.0699643
-0.05873
-0.0434685
-0.018883
0.0147241
0.00966732
0.00207509
0.0133723
0.00157058
0.0225348
0.0675433
0.0759334
0.10303
0.0923316
0.102122
0.122354
0.144134
0.156787
0.170699
0.200506
0.195018
0.195829
0.189175
0.203531
0.216361
0.207564
0.212784
0.200599
0.205828
0.237494
0.236526
0.235365
0.230394
0.234361
0.231977
0.200838
0.175464
0.174782
0.169859
0.121813
0.0899751
0.0809136
0.0722482
0.0676886
0.0626433
0.0472053
0.0303561
0.0226189
0.00666592
0.00143501
-0.0405844
-0.0660499
-0.0502016
-0.0726957
-0.0795321
-0.0840626
-0.104305
-0.144097
-0.159106
-0.182694
-0.19582
-0.196127
-0.208965
-0.219757
-0.255783
-0.26809
-0.273799
-0.272728
-0.306884
-0.316362
-0.315091
-0.302087
-0.28144
-0.252243
-0.259084
-0.237539
-0.200559
-0.193222
-0.180432
-0.153215
-0.129711
-0.0894521
-0.0816369
-0.0632465
-0.0361757
-0.0110847
-0.130679
-0.127163
-0.120597
-0.102276
-0.128872
-0.136457
-0.147357
-0.129175
-0.122448
-0.0997063
-0.0925533
-0.0714861
-0.0588169
-0.0425743
-0.0603297
-0.0454275
-0.0352903
-0.0197922
-0.000979271
0.00183888
-0.0101652
0.0304246
0.0163086
0.0148478
0.0383679
0.0751432
0.112882
0.0974251
0.109346
0.124464
0.140531
0.151977
0.166684
0.195255
0.19109
0.199718
0.18799
0.193414
0.206183
0.203644
0.221133
0.211385
0.217262
0.227519
0.22428
0.230899
0.233895
0.232311
0.222202
0.202257
0.185638
0.172295
0.149603
0.120826
0.108834
0.0806385
0.0739615
0.0698381
0.0638612
0.0317712
0.0281609
0.0356214
0.00751047
-0.0125662
-0.0499601
-0.0610751
-0.0508983
-0.0658774
-0.0748278
-0.0795036
-0.103511
-0.156495
-0.158794
-0.163981
-0.19322
-0.217607
-0.208349
-0.220039
-0.249764
-0.26585
-0.273208
-0.277925
-0.299852
-0.302887
-0.30517
-0.29571
-0.277195
-0.261102
-0.256559
-0.244063
-0.216479
-0.191154
-0.171263
-0.151607
-0.139373
-0.100061
-0.0793367
-0.0573406
-0.0483962
-0.0244578
-0.132439
-0.12868
-0.113203
-0.102727
-0.13685
-0.141292
-0.129177
-0.131334
-0.12031
-0.11691
-0.0939453
-0.0545865
-0.0547393
-0.0666205
-0.0584367
-0.0594479
-0.0342466
-0.0205657
-0.0175706
-0.0132696
-0.00422151
0.0317421
0.0390676
0.0264449
0.0431481
0.058761
0.0788631
0.0820181
0.0999182
0.118048
0.144378
0.15863
0.157872
0.185753
0.19236
0.180312
0.175681
0.200441
0.215181
0.215137
0.203428
0.213921
0.220355
0.232711
0.232173
0.219752
0.214617
0.23628
0.22498
0.191815
0.180007
0.146321
0.145368
0.127906
0.108385
0.0822762
0.0787142
0.0623178
0.0641794
0.0310995
0.0250075
0.0412875
0.0011037
-0.0144262
-0.0512511
-0.0548112
-0.0591285
-0.0655642
-0.0703429
-0.0809788
-0.0959486
-0.145227
-0.171734
-0.183634
-0.189489
-0.201429
-0.203308
-0.210682
-0.245481
-0.254128
-0.278506
-0.266484
-0.298578
-0.316502
-0.308828
-0.284741
-0.274118
-0.254974
-0.250991
-0.230498
-0.212461
-0.19329
-0.164031
-0.146905
-0.139748
-0.0980298
-0.084843
-0.0583817
-0.0471919
-0.0141988
-0.14246
-0.135615
-0.128527
-0.111744
-0.107681
-0.142393
-0.161076
-0.135512
-0.105491
-0.113602
-0.110234
-0.0633086
-0.0323672
-0.0327496
-0.0563259
-0.0707284
-0.053282
-0.0160203
-0.00757683
-0.0423631
-0.0339351
0.00839818
0.0331219
0.0339223
0.0644602
0.0768528
0.070112
0.0734316
0.0894304
0.1009
0.119379
0.159825
0.184492
0.168351
0.17107
0.171853
0.199057
0.210621
0.186019
0.190888
0.218906
0.207335
0.214938
0.231896
0.218525
0.21596
0.217998
0.22511
0.21575
0.192886
0.175625
0.158121
0.141326
0.11119
0.0967032
0.0843062
0.0919292
0.0785547
0.0460579
0.0252887
0.0350924
0.0268519
-0.01061
-0.0256447
-0.0148965
-0.0466925
-0.0648811
-0.0664311
-0.0800468
-0.073257
-0.0881803
-0.139032
-0.16997
-0.191366
-0.196583
-0.194016
-0.187523
-0.200942
-0.246872
-0.241536
-0.277865
-0.27745
-0.2816
-0.289078
-0.294722
-0.292853
-0.267015
-0.262009
-0.253219
-0.227692
-0.208751
-0.191977
-0.156938
-0.149982
-0.138357
-0.10481
-0.0879786
-0.0578495
-0.0405423
-0.00196548
-0.143632
-0.137374
-0.134045
-0.136778
-0.136654
-0.147052
-0.137389
-0.114545
-0.105296
-0.102265
-0.0802313
-0.0754367
-0.0621432
-0.0707089
-0.0679293
-0.0523702
-0.0248979
-0.0291472
-0.0462489
-0.0254836
-0.00638362
-0.0190507
0.00339385
0.053073
0.058377
0.0605763
0.0622557
0.0771223
0.0880677
0.0965253
0.112257
0.126131
0.15524
0.166041
0.164802
0.175144
0.197635
0.209478
0.210602
0.196198
0.187646
0.203196
0.239091
0.235659
0.220407
0.199516
0.208763
0.210991
0.186464
0.179518
0.16383
0.152278
0.124264
0.100152
0.100766
0.100127
0.0809954
0.0546476
0.0547826
0.0463585
0.0295346
0.0157324
0.00631325
0.00907483
-0.0323318
-0.0729817
-0.0748279
-0.0693592
-0.0841433
-0.0816084
-0.0906385
-0.120937
-0.156367
-0.177984
-0.187674
-0.195268
-0.182278
-0.190484
-0.229509
-0.23517
-0.267001
-0.27776
-0.278672
-0.290009
-0.280432
-0.281155
-0.271372
-0.260859
-0.241481
-0.231251
-0.213227
-0.181641
-0.161996
-0.139643
-0.12504
-0.0983697
-0.0965483
-0.0672051
-0.0348258
-0.0103974
-0.144417
-0.144661
-0.132735
-0.142842
-0.140228
-0.128407
-0.120658
-0.123066
-0.120539
-0.109103
-0.0745511
-0.0704545
-0.073883
-0.0506553
-0.0487961
-0.046544
-0.0514313
-0.0522631
-0.0424435
-0.0334998
-0.0133071
0.00787097
0.0198431
0.0421952
0.0630764
0.0695562
0.0418294
0.071525
0.0635717
0.0664613
0.10084
0.136078
0.142071
0.135248
0.165902
0.171348
0.187906
0.221826
0.227645
0.185355
0.171026
0.194277
0.20169
0.233982
0.207133
0.202187
0.213237
0.20752
0.189677
0.171185
0.156985
0.157851
0.12151
0.0777854
0.0733426
0.0792548
0.0784654
0.0703232
0.050825
0.0522592
0.0121138
0.00463836
0.020381
-0.00072728
-0.0275522
-0.0598646
-0.0774897
-0.0721711
-0.0848292
-0.0814258
-0.0967541
-0.128521
-0.149959
-0.15945
-0.177548
-0.185662
-0.165242
-0.181922
-0.22711
-0.237248
-0.24942
-0.262129
-0.272442
-0.277107
-0.270377
-0.279985
-0.265871
-0.250316
-0.238206
-0.230049
-0.210241
-0.170633
-0.156719
-0.145503
-0.124877
-0.108403
-0.0933412
-0.0619898
-0.0158769
-0.0189934
-0.135375
-0.144312
-0.140584
-0.163766
-0.163625
-0.143559
-0.101046
-0.100886
-0.101141
-0.112419
-0.0806597
-0.0865743
-0.0806176
-0.050618
-0.0566844
-0.0473802
-0.0527718
-0.0362447
-0.0406794
-0.0426301
-0.0282705
-0.022528
0.0223069
0.0531537
0.0414763
0.0582412
0.0487691
0.0625769
0.0606552
0.068839
0.0880041
0.11132
0.12745
0.129764
0.14435
0.162405
0.191973
0.206768
0.214051
0.181649
0.189988
0.198476
0.208146
0.20938
0.172456
0.216171
0.207361
0.163787
0.130698
0.185952
0.172232
0.142054
0.084305
0.0765138
0.0872188
0.0922208
0.087497
0.0584065
0.0530612
0.0339231
0.0229432
0.025562
0.0135337
-0.0114824
-0.0305264
-0.0627559
-0.0883302
-0.0715711
-0.0776245
-0.0817875
-0.106647
-0.125971
-0.141773
-0.140611
-0.178349
-0.152858
-0.175134
-0.177937
-0.20032
-0.22305
-0.241486
-0.254258
-0.268897
-0.272774
-0.245976
-0.252061
-0.254656
-0.24776
-0.239775
-0.224525
-0.204289
-0.158949
-0.160037
-0.143431
-0.126348
-0.103392
-0.0715392
-0.0608867
-0.0210207
-0.0143792
-0.141415
-0.151765
-0.153909
-0.166031
-0.131017
-0.13748
-0.122319
-0.0991376
-0.117692
-0.100758
-0.0758073
-0.0778568
-0.0713286
-0.0565591
-0.056796
-0.0513679
-0.0466389
-0.0598992
-0.0813907
-0.0447817
-0.0119531
-0.00320194
0.0500527
0.0433935
0.0235907
0.0492874
0.0550334
0.0576102
0.05752
0.0772211
0.0674846
0.0723811
0.133014
0.142771
0.153999
0.155772
0.162166
0.167732
0.214419
0.203382
0.166475
0.149728
0.192067
0.203479
0.201558
0.192657
0.19727
0.178113
0.159611
0.16127
0.135857
0.120763
0.0829705
0.0751359
0.0738838
0.0754197
0.0668915
0.0569607
0.0492235
0.0389572
0.030878
0.0411113
0.0102883
-0.0020288
-0.0393036
-0.0539537
-0.0851852
-0.0688745
-0.0880977
-0.085156
-0.0969307
-0.109526
-0.126978
-0.130388
-0.161479
-0.154086
-0.160169
-0.169586
-0.192251
-0.224034
-0.230589
-0.237383
-0.256446
-0.250528
-0.254042
-0.235755
-0.235135
-0.233344
-0.226589
-0.218318
-0.186307
-0.163098
-0.163102
-0.132535
-0.122808
-0.0932315
-0.0747507
-0.0573862
-0.0283037
-0.026783
-0.139141
-0.151043
-0.148359
-0.138657
-0.124041
-0.136294
-0.131786
-0.0935744
-0.109861
-0.136456
-0.0875704
-0.0721527
-0.0463405
-0.0553315
-0.0678583
-0.0749703
-0.0665562
-0.0527039
-0.0621166
-0.052084
-0.022907
0.000504519
0.0155833
0.0275726
0.0195594
0.0688055
0.0528684
0.0344887
0.0407641
0.058304
0.0723159
0.065417
0.0913561
0.145047
0.152442
0.157916
0.168628
0.168551
0.168294
0.183477
0.178479
0.173344
0.197729
0.190609
0.189188
0.16332
0.172927
0.17791
0.134411
0.119308
0.117783
0.1206
0.0969555
0.0671738
0.0617386
0.0711299
0.0476109
0.0608216
0.0569153
0.045958
0.0283482
0.0167816
0.0242418
0.00896287
-0.0383463
-0.079262
-0.0634411
-0.0588652
-0.0878887
-0.0923583
-0.0915078
-0.0902228
-0.118377
-0.12087
-0.138234
-0.145314
-0.131847
-0.160279
-0.18899
-0.202849
-0.225592
-0.232312
-0.235731
-0.23217
-0.230681
-0.210824
-0.23002
-0.218546
-0.225996
-0.2051
-0.175873
-0.167396
-0.160226
-0.139718
-0.118112
-0.066292
-0.0679763
-0.0470504
-0.0419763
-0.0200687
-0.142473
-0.148883
-0.143352
-0.140776
-0.117648
-0.150965
-0.12537
-0.0873617
-0.0764629
-0.0951139
-0.112452
-0.0895961
-0.0608878
-0.0729296
-0.0587906
-0.0616721
-0.0483804
-0.0494116
-0.0579885
-0.0371178
-0.0210874
-0.00923013
0.00972711
0.0316041
0.0299783
0.0397689
0.0485218
0.025157
0.0184974
0.063298
0.0772516
0.0756684
0.0920187
0.131535
0.13159
0.120679
0.145579
0.172566
0.164537
0.158944
0.152973
0.147808
0.164203
0.180576
0.192432
0.180615
0.177429
0.163367
0.12332
0.0995938
0.106992
0.124281
0.0908986
0.0552504
0.0514347
0.0429591
0.0602176
0.0648491
0.0497415
0.039982
0.0314891
0.0280806
0.0184607
0.0139385
-0.0230319
-0.0517048
-0.0538311
-0.0660074
-0.0761634
-0.0810725
-0.0921853
-0.0772994
-0.100672
-0.120049
-0.125297
-0.105937
-0.130717
-0.170017
-0.167138
-0.183346
-0.184284
-0.218922
-0.220331
-0.21622
-0.244905
-0.207772
-0.193487
-0.208801
-0.211202
-0.180795
-0.165251
-0.14359
-0.16232
-0.127625
-0.113899
-0.0778001
-0.0784635
-0.0686692
-0.0292823
-0.0210991
-0.134245
-0.146612
-0.14901
-0.130985
-0.115678
-0.11606
-0.108672
-0.0871909
-0.0747088
-0.0892222
-0.101001
-0.0923059
-0.09085
-0.0728662
-0.0813681
-0.0556756
-0.0254927
-0.0319397
-0.0547714
-0.042107
-0.0148198
-0.016711
0.00760533
0.0298403
0.00629895
0.0130753
0.00947484
0.014745
0.0361717
0.0851421
0.106242
0.0709602
0.0521247
0.0999199
0.123101
0.130001
0.149098
0.143748
0.130923
0.144028
0.148812
0.144452
0.153916
0.173309
0.18015
0.164668
0.163343
0.154571
0.126832
0.108777
0.0921562
0.08287
0.0650693
0.0499402
0.0647122
0.0485815
0.0526597
0.0497377
0.0519548
0.0550432
0.0299723
0.0334997
0.024243
0.00179681
-0.0289616
-0.0606293
-0.0672579
-0.0563339
-0.0564521
-0.0585599
-0.072231
-0.0617259
-0.0758319
-0.0909169
-0.119085
-0.125893
-0.125651
-0.148113
-0.137526
-0.178857
-0.167865
-0.186952
-0.175755
-0.208044
-0.194071
-0.202246
-0.206104
-0.200684
-0.195749
-0.172894
-0.165876
-0.15568
-0.140355
-0.126245
-0.101514
-0.0823414
-0.0737271
-0.0436665
-0.0293024
-0.00782847
-0.134719
-0.13904
-0.124116
-0.139066
-0.122006
-0.11517
-0.084165
-0.076148
-0.0915797
-0.0931257
-0.104381
-0.0712568
-0.0676489
-0.0563413
-0.0641442
-0.0693139
-0.0353682
-0.0186911
-0.0341934
-0.0421171
-0.0106096
-0.0164732
0.00509082
-0.00846597
-0.00263865
0.0110732
0.039164
0.0377418
0.0190923
0.0484923
0.0763499
0.0726833
0.0796448
0.105682
0.111333
0.104536
0.12183
0.116379
0.100929
0.114045
0.150046
0.137933
0.135886
0.15602
0.14043
0.158061
0.172949
0.156861
0.121833
0.086465
0.0783171
0.0762408
0.0417056
0.0415404
0.0591237
0.0422082
0.0498782
0.0684774
0.07364
0.0509663
0.0269484
0.0281632
0.0253262
0.00491715
0.00556094
-0.0464879
-0.0570218
-0.0547334
-0.0450359
-0.044872
-0.0563794
-0.0688145
-0.0761838
-0.0869179
-0.103404
-0.101599
-0.106607
-0.125561
-0.123039
-0.152018
-0.148945
-0.155382
-0.167507
-0.198676
-0.194471
-0.183873
-0.167345
-0.179907
-0.180754
-0.168333
-0.160303
-0.16941
-0.136107
-0.110077
-0.107375
-0.0893385
-0.0704493
-0.0347228
-0.0137388
-0.00321596
-0.137375
-0.129271
-0.117631
-0.12759
-0.114695
-0.113278
-0.075431
-0.0878949
-0.0895277
-0.0820467
-0.0761832
-0.0699015
-0.0799709
-0.0613671
-0.0676621
-0.036109
-0.00924777
-0.023252
-0.015814
-0.0285816
-0.0487664
-0.0363404
-0.0147837
0.0115835
0.0139246
-0.0147967
0.00155216
0.0251849
0.0555495
0.0579778
0.062903
0.0589169
0.0571083
0.0883285
0.101674
0.0963096
0.0945158
0.0810704
0.104249
0.129986
0.130005
0.111431
0.112389
0.131924
0.154852
0.156195
0.151056
0.131346
0.112082
0.0936599
0.0777059
0.0453568
0.0276051
0.0437375
0.0653834
0.0422809
0.038864
0.0437605
0.0420346
0.0415997
0.0385709
0.0544209
0.0280054
0.00239868
-0.0148373
-0.0283636
-0.0496876
-0.0324124
-0.0443673
-0.0438002
-0.0453335
-0.0541968
-0.0463419
-0.0595194
-0.0791859
-0.0873471
-0.0912583
-0.118712
-0.109704
-0.136702
-0.131606
-0.13467
-0.142046
-0.169269
-0.177618
-0.16529
-0.145209
-0.168136
-0.165953
-0.170585
-0.161375
-0.153844
-0.120736
-0.118149
-0.10148
-0.0757671
-0.065018
-0.0334938
-0.0266886
-0.00957059
-0.140921
-0.130569
-0.117118
-0.111023
-0.0943736
-0.113291
-0.0856288
-0.0977075
-0.0718155
-0.0592073
-0.0933085
-0.0793582
-0.0665682
-0.0308283
-0.0326108
-0.0423262
-0.0324587
-0.0427644
-0.0290975
-0.0151546
-0.0232038
-0.00438116
-0.0237244
0.00404339
0.00672161
0.00315302
0.0224573
0.0289747
0.0373922
0.0280818
0.0241934
0.0480441
0.0571391
0.078518
0.0800175
0.0822152
0.0831831
0.0884741
0.063253
0.0789997
0.117167
0.119995
0.117752
0.117866
0.12327
0.136918
0.12419
0.115497
0.106487
0.0660397
0.0636894
0.0423587
0.0380454
0.0511311
0.0440242
0.0305366
0.0265612
0.0275546
0.0550238
0.0569324
0.0392033
0.0317147
0.033012
0.000160899
-0.0284996
-0.00206344
-0.0236104
-0.0382589
-0.0312677
-0.0403935
-0.040047
-0.0312336
-0.0390205
-0.0477746
-0.0725333
-0.0799288
-0.0603576
-0.101689
-0.113394
-0.117128
-0.114493
-0.1151
-0.121164
-0.143545
-0.164189
-0.141765
-0.138069
-0.139501
-0.14372
-0.161138
-0.148059
-0.147412
-0.126946
-0.124908
-0.0791562
-0.0682775
-0.0503514
-0.0253836
-0.0291396
-0.0110788
-0.127416
-0.122242
-0.122178
-0.113155
-0.0833282
-0.0878261
-0.0800621
-0.0830379
-0.0739131
-0.0687246
-0.065306
-0.0503494
-0.0612955
-0.0518873
-0.027669
-0.0276239
-0.0102112
-0.0224134
0.0104683
-0.0271098
-0.071777
-0.0245503
-0.027726
-0.0242453
-0.0172037
0.00529386
0.0186397
0.0275489
0.0432943
0.0299958
0.0320987
0.0376562
0.0600601
0.0499387
0.0590291
0.0562247
0.0363515
0.0629156
0.0617551
0.0844616
0.0978268
0.111559
0.127922
0.0983044
0.0921582
0.11498
0.105779
0.0934961
0.0862028
0.0639331
0.0692823
0.0583776
0.0273673
0.0210421
0.0400989
0.025534
0.0280448
0.0164756
0.0269629
0.0261647
0.0342109
0.0317719
0.0323022
0.0365564
0.0106058
-0.0255773
-0.0377983
-0.0284127
-0.0261642
-0.0306452
-0.0382315
-0.0331977
-0.0127493
-0.0145977
-0.0384239
-0.0617097
-0.0716761
-0.0664185
-0.087286
-0.0997119
-0.094139
-0.109101
-0.0942803
-0.119172
-0.153121
-0.112016
-0.0995685
-0.143363
-0.136961
-0.13644
-0.148858
-0.135122
-0.110002
-0.112502
-0.0643844
-0.0478389
-0.048406
-0.032908
-0.0162782
-0.00302751
-0.11193
-0.111668
-0.108836
-0.0896718
-0.0784717
-0.0814322
-0.076091
-0.0723272
-0.0661562
-0.0551511
-0.0435059
-0.0514368
-0.0469053
-0.043769
-0.0235092
-0.0421529
-0.00652846
-0.0105248
-0.0167941
-0.0218516
-0.0302769
-0.00748103
-0.00319567
-0.00233178
-0.0484851
0.00588909
0.0190336
0.0201939
0.0217173
0.019847
0.021021
0.0197392
0.0234715
0.0112747
0.0403008
0.0470169
0.0434815
0.0620136
0.0443697
0.0461799
0.0741943
0.120183
0.10249
0.0957848
0.0900902
0.0812324
0.0893329
0.0606729
0.0789494
0.0614165
0.0553919
0.041003
0.0203889
0.0226147
0.0299943
0.00669761
0.0146354
0.00801845
0.0276823
0.0307445
0.0420151
0.0327901
0.0150778
0.0145356
0.0254792
-0.0119811
-0.0419529
-0.0243193
-0.0330522
-0.00754961
0.00760677
-0.00861808
-0.00874755
-0.0049403
-0.0316186
-0.0463469
-0.0599495
-0.0635304
-0.0626048
-0.0612196
-0.0642277
-0.0696097
-0.0944417
-0.118009
-0.119399
-0.103202
-0.113797
-0.131663
-0.122531
-0.125669
-0.129962
-0.115495
-0.0980096
-0.0775589
-0.0684849
-0.0566013
-0.0494385
-0.0163877
-0.00948263
-0.00245447
-0.100539
-0.102269
-0.0849222
-0.0748814
-0.074912
-0.0644979
-0.0586272
-0.0596505
-0.0655489
-0.0466162
-0.0281367
-0.0443609
-0.030245
-0.0255378
-0.0124931
-0.0140745
-0.0127486
-0.032798
-0.0284014
-0.0290963
-0.0372937
-0.00732032
-0.00763797
-0.00878515
-0.0310679
-0.00456702
0.0127569
0.0066812
0.0154508
0.00910724
0.0149034
0.0225575
0.0233195
-0.00366641
-0.00632814
0.0333314
0.0379761
0.0293341
0.0298271
0.0602477
0.0716536
0.063042
0.0477495
0.0628674
0.0812108
0.0750747
0.0756175
0.0810219
0.0757396
0.0573473
0.0322719
0.031301
0.00999694
0.00936537
0.0181955
0.0101182
0.0180385
-0.00896587
0.0145453
0.0301713
0.0308498
0.0317437
0.0177866
0.00692598
0.0109406
-0.00408402
-0.0332654
-0.00898774
-0.0193626
-0.0170827
-0.00920618
0.0285651
0.0239038
0.0151646
-0.00693958
-0.029916
-0.0558439
-0.0185483
-0.0327152
-0.0641854
-0.0687961
-0.069289
-0.0631819
-0.0685767
-0.0774678
-0.104875
-0.101345
-0.11649
-0.11747
-0.113809
-0.108827
-0.0868636
-0.0899821
-0.0825048
-0.0798283
-0.0429507
-0.0307008
-0.0121829
-0.00277551
-0.0079813
-0.0828241
-0.0752498
-0.0783806
-0.0788699
-0.0663365
-0.0424058
-0.0268471
-0.0313899
-0.0460581
-0.0486162
-0.031903
-0.0333609
-0.0296827
-0.023831
-0.00800645
-0.022059
-0.0120528
-0.0203564
-0.00397159
-0.0162359
-0.0369176
-0.010607
-0.0208088
-0.0203173
-0.0282602
0.00111134
0.0135251
0.00491723
-0.00123107
-0.00977355
0.00168908
0.00108094
0.0155661
-0.017948
-0.0144543
0.0287309
0.0251639
0.0138262
0.032019
0.0426779
0.0378316
0.0387202
0.0561178
0.0568569
0.0570434
0.0609423
0.0544965
0.0185929
0.0326523
0.0317387
0.0336403
-0.000868934
-0.00581822
0.0312275
0.0170281
0.0218564
-0.00243446
0.00560436
0.00308454
0.008349
0.0312035
0.0206529
0.0119025
-0.00120066
0.0116237
0.00824609
-0.00579787
-0.00187432
-0.00272302
0.00237554
0.00149873
0.0426102
0.0423256
0.0394981
0.00355233
-0.012585
-0.0252558
-0.0144553
-0.0377433
-0.0297194
-0.0344262
-0.0409682
-0.0445427
-0.0674936
-0.0642521
-0.0583454
-0.081588
-0.0893483
-0.0898725
-0.090002
-0.0913875
-0.0891708
-0.0768255
-0.083513
-0.0738944
-0.0410141
-0.0290214
-0.00494483
0.0062666
-0.013889
-0.0704986
-0.059941
-0.0703773
-0.0585172
-0.045295
-0.0336483
-0.00624325
-0.0248168
-0.0462529
-0.0234295
-0.0122588
-0.0175593
-0.0428953
-0.0177334
0.0124028
0.000505951
-0.0107823
-0.0122567
-0.0153544
-0.0156363
-0.0224218
-0.0240874
-0.0308312
-0.00555892
-0.00799732
-0.00733771
0.0101882
-0.0115629
-0.0314633
-0.0192647
-0.0255892
0.0086912
-0.0182697
-0.0218094
-0.0208717
0.00491173
0.000298966
-0.0175444
0.0135507
0.0315767
0.0234575
0.0605578
0.0345237
0.0131254
0.0214742
0.0521378
0.0336517
0.0234969
0.040337
0.0147128
0.00047609
-0.00202759
0.00795264
0.00663028
-0.0133676
0.0052981
-0.00298921
0.0125995
-0.00230521
0.000456416
0.00771898
0.0173156
0.0133255
0.0110678
0.01872
0.0146844
0.0102234
0.0265681
0.0281639
0.0191889
0.0260061
0.039703
0.0374651
0.0397303
0.0167781
0.0197877
0.00846806
-0.0146141
-0.0205551
0.0012782
0.00645174
-0.0140337
-0.0113106
-0.0221515
-0.032572
-0.0723618
-0.0934484
-0.0805877
-0.0655044
-0.0782883
-0.0776802
-0.0684252
-0.0726077
-0.0743017
-0.0693745
-0.0299862
-0.0170665
0.00382093
0.0144615
-0.0101145
-0.0425466
-0.0407649
-0.0639029
-0.036498
-0.023442
-0.0115443
-0.0107682
-0.0220156
-0.0124103
-0.00815524
-0.00335509
-0.0142695
-0.0201137
-0.0122923
0.0105308
0.0210652
0.00574201
0.00109126
-0.0120635
-0.00718352
-0.0238232
-0.0248703
-0.0215074
-0.0197222
-0.0200705
-0.0186618
-0.00649643
-0.0340817
-0.0335191
-0.0349537
-0.0145681
-0.0162731
-0.0297771
-0.0386889
-0.037716
-0.021282
-0.00985779
-0.00348778
-0.00922633
-0.00144155
0.0093229
0.029882
0.0301025
0.0171144
0.00796773
0.0102203
0.0042389
0.00241476
-0.000999052
-0.00688788
-0.00853967
0.00729819
-0.00252627
0.00209493
-0.0225761
-0.00239392
0.000987464
0.00858957
-0.0081091
0.00989601
0.0246339
0.0117849
-0.0229116
-0.00500343
0.0511555
0.0333929
0.0162193
0.0422997
0.0443959
0.0392857
0.024327
0.0455308
0.0492152
0.0607689
0.0394727
0.0408837
0.0431554
0.028111
0.0087899
0.0219745
0.0140247
-0.001519
-0.000213778
-0.0111714
-0.0127399
-0.037496
-0.0648959
-0.0670524
-0.0534019
-0.056973
-0.0705085
-0.0685372
-0.0549945
-0.0586062
-0.0756758
-0.0327072
-0.0117087
0.0225695
0.00556131
-0.00573031
-0.0344631
-0.036616
-0.0376146
-0.0196692
-0.028228
-0.0035595
0.0226579
-0.00565648
-0.000744678
0.00375016
0.00921029
0.0103819
-0.0146463
-0.000966666
0.0149004
0.0150477
-0.000894046
-0.00540393
0.0102192
0.0136313
-0.00970689
-0.0300903
-0.0415731
-0.0173902
0.00319511
-0.00171287
-0.0330359
-0.0500644
-0.059446
-0.0538276
-0.0427562
-0.0268282
-0.0330205
-0.0330619
-0.0180612
-0.020435
-0.0332091
-0.038289
-0.0235474
-0.0168981
0.000415717
0.0226323
0.0180911
0.000766833
-0.012686
-0.0119293
-0.0264698
-0.0141073
-0.00682268
-0.00544117
-0.0108091
-0.0330602
-0.0183308
-0.0209699
-0.0250659
-0.0172928
-0.0112245
0.00110239
0.0122939
-0.00160756
-0.0017529
0.000745457
0.0140824
0.0277809
0.043558
0.0395415
0.0305384
0.0507271
0.0764847
0.0485375
0.0361462
0.0455735
0.0562968
0.073809
0.0568496
0.0479057
0.0566747
0.0605525
0.0519768
0.0580733
0.0343929
0.0198757
0.0099651
-0.0165439
-0.00203987
-0.0189832
-0.0337577
-0.0365164
-0.0499573
-0.0471333
-0.0524003
-0.0510238
-0.0463798
-0.0496953
-0.0533348
-0.0360151
-0.0121573
-0.000467537
-0.0177235
-0.0010613
-0.0212119
-0.0179201
-0.0211408
-0.00707737
-0.00659828
0.00741057
0.00808032
0.0147305
0.0169964
0.0205366
0.0135685
0.0259615
0.00627898
0.012647
0.0128811
0.0247217
0.00946684
0.0108165
0.000151994
0.0255142
0.00269067
0.00220637
-0.020126
-0.0392948
-0.0348036
-0.0320887
-0.0295876
-0.0292909
-0.036541
-0.0537267
-0.0396629
-0.0379654
-0.0563126
-0.0543561
-0.0438909
-0.0359983
-0.0451067
-0.0526795
-0.036727
-0.021059
-0.0158753
-0.0322151
-0.0135554
-0.0118346
-0.0273931
-0.0307926
-0.0507462
-0.0463711
-0.0230065
-0.031806
-0.0236758
-0.0433973
-0.0226377
-0.022802
-0.0328584
-0.0292622
-0.0194045
0.00603445
0.0218748
0.00236017
0.0115893
0.00863361
0.000829033
0.00817166
0.0494313
0.0563811
0.0502805
0.0801148
0.0781686
0.0567936
0.0638219
0.0640732
0.0595158
0.0728581
0.0807787
0.0756097
0.0689338
0.0735601
0.0856598
0.0798214
0.0449887
0.0446957
0.0573214
0.0306156
-0.0129771
-0.0220907
-0.0323378
-0.034274
-0.01519
-0.0178102
-0.0388062
-0.0541049
-0.035367
-0.0522863
-0.0379224
-0.0073619
-0.00706823
-0.0103893
-0.0247049
-0.00405511
-0.00791535
-0.00762116
-0.00853347
-0.011174
-0.0101788
0.0452977
0.0600772
0.036551
0.019692
0.0161949
0.0314868
0.0493174
0.0235917
0.0127445
0.0286422
0.0440374
0.0152684
0.0440283
0.0397725
0.020965
-0.027227
-0.0248758
-0.010659
-0.0362368
-0.0421466
-0.0352652
-0.03592
-0.0372526
-0.0781624
-0.0449514
-0.0445038
-0.0405901
-0.0553621
-0.0392144
-0.0529874
-0.0522669
-0.0708169
-0.070227
-0.0713231
-0.0387927
-0.0216561
-0.0365798
-0.0220228
-0.0417043
-0.0596918
-0.0575227
-0.0631358
-0.0657689
-0.0391385
-0.0399358
-0.0360902
-0.0491438
-0.0482929
-0.0292391
-0.0344793
-0.0414896
-0.0269634
-0.0101628
0.0120465
-0.000825164
-0.00522808
0.00573329
0.0152036
0.033049
0.0589793
0.0954538
0.0554637
0.0585946
0.0549906
0.0649885
0.0845526
0.089107
0.0729405
0.0643545
0.0962033
0.0997454
0.104701
0.105938
0.096449
0.0920531
0.0805952
0.0621364
0.0439127
0.0295375
0.0146
-0.00267746
0.00442187
-0.010315
-0.0113408
-0.00038457
-0.0110503
-0.0374943
-0.026478
-0.0312645
-0.0253559
-0.0217545
-0.0114856
-0.0222289
-0.0304437
-0.0161548
-0.00394016
0.0166829
-0.00341479
0.00710581
0.0504768
0.0502944
0.0457497
0.048734
0.0575679
0.0486344
0.0356434
0.0259466
0.0406923
0.0271684
0.0283044
0.037274
0.0311858
0.0120843
0.0280598
0.0319817
0.0132956
-0.00372605
-0.0313234
-0.0529561
-0.0463059
-0.0308174
-0.0368032
-0.0302598
-0.0402552
-0.0325114
-0.0676137
-0.0649745
-0.0760655
-0.054772
-0.0559013
-0.0839036
-0.078944
-0.0811675
-0.0756373
-0.051727
-0.0776516
-0.0848403
-0.0728852
-0.0606334
-0.0783703
-0.0691841
-0.0702455
-0.0759929
-0.0770618
-0.0611642
-0.0332079
-0.0835079
-0.0637668
-0.0621356
-0.0577011
-0.0268368
0.0094018
-0.0117408
-0.0221541
-0.00125799
0.0136969
0.0152662
0.0154042
0.0404144
0.0561549
0.056412
0.0650128
0.0861308
0.0843044
0.0657006
0.0833307
0.101331
0.0862432
0.0941456
0.123267
0.126354
0.103816
0.116397
0.105804
0.111093
0.108461
0.0970595
0.0684242
0.0484814
0.0418496
0.0275873
-0.00774588
0.00617587
0.0110539
0.0192126
0.00224182
-0.0339787
-0.015513
-0.00613781
-0.0298406
-0.0220205
-0.00696381
-0.021952
-0.0172587
-0.00889554
0.0115633
0.0239438
0.0304216
0.0320645
0.0397082
0.049692
0.0696175
0.0641361
0.0688625
0.0671948
0.0514346
0.0428913
0.063748
0.0502406
0.0302212
0.051578
0.0492335
0.0264064
0.0480715
0.0523524
-0.00965439
-0.0363326
-0.0281831
-0.0334236
-0.049422
-0.0340362
-0.0638135
-0.0420633
-0.0278396
-0.0260661
-0.053811
-0.0760344
-0.0995951
-0.0799337
-0.0876657
-0.0878959
-0.0877473
-0.106216
-0.0956493
-0.0861983
-0.0984769
-0.0958498
-0.0938413
-0.0866511
-0.0885654
-0.0739206
-0.0886778
-0.0974436
-0.0887223
-0.0834435
-0.0716738
-0.0760814
-0.0821527
-0.0697518
-0.0669893
-0.0443821
-0.0314161
-0.0255076
-0.014303
0.00628815
0.0144795
0.0131863
0.0102157
0.0243191
0.0575038
0.0751491
0.0702472
0.0934156
0.10068
0.0729299
0.0880523
0.108875
0.0928622
0.108639
0.147555
0.151535
0.135762
0.131481
0.112421
0.123918
0.115599
0.0990934
0.101735
0.0821481
0.0519408
0.0344776
0.0197364
0.0366263
0.0279672
0.0294763
0.0150888
0.000410166
-0.00797986
-0.0144372
-0.0251026
-0.0123244
-0.0163561
-0.00393638
-0.00366014
-0.00598958
0.0288874
0.0356851
0.0572187
0.0551098
0.0707055
0.0595153
0.0536517
0.0716874
0.0669115
0.0842665
0.0919232
0.0864739
0.0709968
0.0587888
0.0187441
0.0213339
0.0552067
0.070344
0.0423186
0.0102295
-0.0142427
-0.0134746
0.00400723
-0.0340255
-0.0423234
-0.0378943
-0.0519626
-0.0364442
-0.0298697
-0.0404877
-0.0709797
-0.0914149
-0.0997814
-0.10101
-0.106242
-0.0928593
-0.111007
-0.132863
-0.111874
-0.0998187
-0.112627
-0.128451
-0.123173
-0.117352
-0.109246
-0.0942958
-0.101948
-0.111633
-0.0862501
-0.10296
-0.119285
-0.10426
-0.0837134
-0.0636001
-0.0626436
-0.0437385
-0.0368353
-0.0399662
-0.0432949
-0.00404869
0.0175849
0.00702229
0.0230576
0.0566607
0.068154
0.0654055
0.0631682
0.0793762
0.0974282
0.112526
0.114659
0.120594
0.114279
0.125513
0.159731
0.153186
0.150072
0.141531
0.15475
0.139461
0.122711
0.114043
0.110559
0.100235
0.0792994
0.0556334
0.045627
0.0530639
0.0477254
0.0510337
0.0284298
-0.00674714
0.0108772
0.0017047
-0.0074634
-0.00932359
-0.015783
-0.0115958
-0.0119026
-0.00898332
0.0507013
0.0548344
0.0803161
0.0809195
0.0952394
0.0817255
0.0711864
0.0637773
0.0666518
0.0941534
0.109449
0.115312
0.0753548
0.056522
0.0389075
0.0394703
0.0340892
0.0607634
0.037724
0.0260341
0.0248811
0.00724246
-0.0208874
-0.0412087
-0.0341568
-0.0260279
-0.0448324
-0.0582505
-0.0478635
-0.0533953
-0.0725159
-0.116216
-0.0938607
-0.0918074
-0.1208
-0.139273
-0.119282
-0.129907
-0.130995
-0.140712
-0.146475
-0.146504
-0.141688
-0.127847
-0.133941
-0.124702
-0.113244
-0.105542
-0.118846
-0.1398
-0.114947
-0.0993045
-0.0858422
-0.0911621
-0.0742401
-0.0652415
-0.0390233
-0.0264444
-0.0319354
-0.0178336
0.0129563
0.00609222
0.0259608
0.0624871
0.0699471
0.072108
0.0696077
0.0832802
0.096764
0.119196
0.148792
0.136202
0.121336
0.135027
0.176079
0.177363
0.168616
0.163021
0.151436
0.143892
0.143373
0.140425
0.130418
0.126138
0.0925564
0.0748965
0.0618134
0.0676467
0.0513306
0.06957
0.0386288
0.00509163
0.0120532
0.00956861
0.0101163
0.00707059
-0.0120302
-0.00436698
-0.0150007
-0.00999206
0.0674194
0.0788995
0.101645
0.103269
0.0882668
0.0934013
0.0921203
0.0982925
0.0898053
0.0938246
0.100774
0.123019
0.0986887
0.0744421
0.055672
0.0658016
0.0343313
0.0508106
0.0407442
0.0258739
0.0147992
0.00701415
-0.0108041
-0.0375302
-0.0404179
-0.0411773
-0.0302598
-0.056428
-0.0670933
-0.0828351
-0.0986666
-0.103047
-0.0853957
-0.11691
-0.160244
-0.143103
-0.127386
-0.141194
-0.159229
-0.157648
-0.145407
-0.161236
-0.160384
-0.156689
-0.164392
-0.144134
-0.143517
-0.114087
-0.112088
-0.149677
-0.128776
-0.11146