/*--------------------------------*- C++ -*----------------------------------*\
| =========                 |                                                 |
| \\      /  F ield         | OpenFOAM: The Open Source CFD Toolbox           |
|  \\    /   O peration     | Version:  v2012                                 |
|   \\  /    A nd           | Website:  www.openfoam.com                      |
|    \\/     M anipulation  |                                                 |
\*---------------------------------------------------------------------------*/
FoamFile
{
    version     2.0;
    format      ascii;
    class       volVectorField;
    location    "0";
    object      U;
}
// * * * * * * * * * * * * * * * * * * * * * * * * * * * * * * * * * * * * * //

dimensions      [0 1 -1 0 0 0 0];


internalField   nonuniform List<vector> 
4000
(
(-0.00431157 0.0194854 0)
(0.038262 0.00319338 0)
(-0.0467844 -0.034817 0)
(0.0599015 0.0972594 0)
(0.142716 -0.162158 0)
(-0.464281 0.0785036 0)
(0.256546 0.00932294 0)
(0.0457804 -0.0511686 0)
(0.0165832 0.0401049 0)
(0.146269 -0.137187 0)
(0.129908 0.0546066 0)
(-0.056571 0.053535 0)
(0.114812 0.0700678 0)
(-0.122687 -0.0854662 0)
(-0.120977 0.0201998 0)
(0.0303166 0.0831258 0)
(-0.0172193 -0.0587045 0)
(0.0175201 0.00162575 0)
(-0.0143776 0.089215 0)
(-0.0759428 0.110086 0)
(0.0331563 0.0197897 0)
(0.0542722 -0.0212293 0)
(-0.200893 -0.0742465 0)
(0.0357896 -0.0598052 0)
(-0.083106 -0.104414 0)
(-0.0458127 -0.0642205 0)
(-0.0279135 0.0911005 0)
(0.09169 0.0790317 0)
(-0.0050223 0.103677 0)
(0.0689256 -0.0147809 0)
(0.0307186 0.0324012 0)
(-0.0108311 -0.0883603 0)
(0.00942449 0.00534498 0)
(0.148615 -0.107169 0)
(0.0888432 -0.030221 0)
(-0.0434453 0.0160884 0)
(0.0151787 0.0084094 0)
(-0.0408648 0.115567 0)
(0.025541 -0.0498552 0)
(-0.045214 -0.0121204 0)
(0.120108 -0.0680934 0)
(-0.00629509 -0.0121166 0)
(0.175465 -0.0379378 0)
(-0.00415125 0.0925691 0)
(0.0603483 -0.0346816 0)
(0.0857695 0.00338867 0)
(-0.0797554 -0.000149998 0)
(0.00139636 -0.137512 0)
(-0.0585032 0.0390407 0)
(-0.104432 -0.0255556 0)
(0.289248 0.00418903 0)
(0.0594676 0.0121768 0)
(0.110784 0.0125548 0)
(0.00619786 0.059817 0)
(-0.00271314 0.0243519 0)
(0.00359905 0.0393465 0)
(-0.0299077 0.035997 0)
(-0.00486299 0.0375698 0)
(-0.118583 0.0301942 0)
(-0.187274 -0.090867 0)
(-0.016433 -0.0307012 0)
(-0.117588 -0.0182674 0)
(-0.00863377 0.0287443 0)
(-0.237861 0.0188002 0)
(0.0308548 0.053843 0)
(-0.0847445 0.0496587 0)
(-0.172597 -0.0692261 0)
(-0.0493206 -0.049141 0)
(-0.0153976 -0.0600263 0)
(0.114982 -0.0614607 0)
(0.0382658 -0.01035 0)
(0.207235 -0.046186 0)
(0.0182395 0.0727816 0)
(0.0487258 0.039721 0)
(0.124994 -0.0104495 0)
(0.0031532 -0.00641766 0)
(0.0488037 0.00540195 0)
(0.118651 0.091679 0)
(0.0213827 -0.0274372 0)
(-0.0908264 0.0395215 0)
(-0.0467066 0.0499978 0)
(-0.0292761 -0.0808443 0)
(-0.200567 -0.0113947 0)
(-0.0535949 0.096737 0)
(0.216777 -0.0648937 0)
(-0.0561371 -0.0925432 0)
(-0.0568844 0.013222 0)
(0.166378 0.00641932 0)
(0.0918332 0.016139 0)
(-0.000353765 0.0359228 0)
(-0.0428401 0.00725205 0)
(-0.102428 0.0338472 0)
(-0.124221 0.00774403 0)
(-0.107483 0.0180352 0)
(-0.0376312 -0.0149071 0)
(-0.0178682 -0.0505577 0)
(0.0756074 0.0140444 0)
(-0.146078 -0.0545972 0)
(0.0155007 0.0258056 0)
(0.0470795 0.0276842 0)
(-0.0637626 0.0231499 0)
(0.127392 -0.0702408 0)
(0.192077 -0.00705174 0)
(-0.00138634 0.0779702 0)
(-0.0712348 -0.144309 0)
(-0.056944 0.0753937 0)
(-0.0111257 0.0570609 0)
(-0.0022983 -0.0178237 0)
(0.0992136 0.0021556 0)
(-0.100937 -0.129127 0)
(0.149587 0.0355298 0)
(-0.0319364 -0.0186361 0)
(-0.0204665 0.073906 0)
(-0.0190261 -0.0241241 0)
(0.003318 0.0752038 0)
(-0.0159282 0.136157 0)
(-0.0172564 -0.104279 0)
(-0.215632 -0.0663102 0)
(-0.0657025 0.0201018 0)
(0.0177469 0.0470435 0)
(0.0223682 -0.0438722 0)
(0.0059107 0.00541641 0)
(0.0636947 -0.0510061 0)
(0.0817419 -0.0573505 0)
(0.130744 -0.0612922 0)
(-0.0856511 -0.00394794 0)
(-0.00977132 0.133311 0)
(0.0519641 -0.0166422 0)
(0.0367096 0.140272 0)
(0.0496105 -0.0426996 0)
(0.0195065 0.0417141 0)
(-0.0114436 -0.0375096 0)
(0.0400689 -0.0136703 0)
(-0.0367837 -0.0887281 0)
(-0.0300841 0.0636322 0)
(0.07496 0.0188733 0)
(0.154291 0.0378893 0)
(-0.038704 0.0449702 0)
(-0.026768 -0.0674774 0)
(-0.0813373 -0.0672226 0)
(-0.0193751 -0.0888024 0)
(0.0010108 -0.0412579 0)
(-0.00558291 0.0409412 0)
(0.0713148 0.0258266 0)
(-0.0236364 0.0590817 0)
(-0.12474 0.041833 0)
(0.0335162 0.055634 0)
(-0.0742445 -0.0210515 0)
(0.0795863 0.0287331 0)
(-0.195339 -0.0655348 0)
(0.0259414 -0.0763685 0)
(0.0557463 -0.101882 0)
(0.155642 -0.0492207 0)
(0.177823 0.0154623 0)
(0.0865413 0.059454 0)
(0.128107 0.0645384 0)
(-0.0482728 0.125777 0)
(-0.0806886 0.0481094 0)
(-0.0792793 0.0656224 0)
(-0.23647 -0.0418545 0)
(-0.126147 -0.0146548 0)
(-0.232446 -0.00948026 0)
(-0.103444 -0.045537 0)
(-0.196544 -0.029043 0)
(-0.0519547 0.0509798 0)
(0.0255408 0.0761274 0)
(-0.0370452 -0.10464 0)
(-0.0533585 -0.0291469 0)
(0.00920068 -0.109038 0)
(-0.0502004 -0.0296779 0)
(0.0531936 -0.00976391 0)
(-0.0475938 0.0217953 0)
(0.0125263 0.0752682 0)
(0.150271 0.0269542 0)
(0.00276731 -0.0406102 0)
(-0.00370057 -0.0527539 0)
(-0.000564606 0.0225625 0)
(-0.00245014 0.0380207 0)
(0.0113472 -0.0250741 0)
(0.0181404 0.0355846 0)
(0.0221345 0.154645 0)
(-0.0201497 -0.107916 0)
(0.0520003 -0.0475718 0)
(-0.094255 0.123372 0)
(0.127115 -0.0860509 0)
(-0.0961899 -0.122379 0)
(-0.0930483 0.0232602 0)
(0.053561 0.0996724 0)
(-0.138926 0.0370028 0)
(-0.0280752 0.00650777 0)
(-0.0374407 0.0904752 0)
(-0.115709 0.0308465 0)
(0.121318 -0.0386864 0)
(-0.0539388 -0.0278537 0)
(-0.00523418 -0.0187911 0)
(-0.0315444 -0.0399173 0)
(-0.0323786 0.0151454 0)
(-0.00832694 -0.120765 0)
(0.0543096 -0.00311093 0)
(0.0360387 0.0421568 0)
(0.000540896 -0.0421951 0)
(0.00151355 -0.012292 0)
(0.000217782 -0.0289117 0)
(0.00265222 0.00666143 0)
(0.00533986 0.0760325 0)
(-0.00387729 0.034155 0)
(-0.0130417 0.105701 0)
(-0.0322957 -0.0316565 0)
(0.0182995 -0.0994132 0)
(0.00645384 -0.0745803 0)
(0.0802078 -0.0349702 0)
(0.0273185 -0.015409 0)
(0.053255 0.0112866 0)
(0.0323973 0.13955 0)
(0.00296342 -0.0011311 0)
(0.0293782 0.202583 0)
(-0.0291055 -0.00275497 0)
(-0.012806 0.0338865 0)
(-0.134153 -0.07108 0)
(-0.138272 -0.0825934 0)
(-0.0126749 -0.0776159 0)
(0.00969863 -0.131836 0)
(0.0884336 -0.0667259 0)
(0.000201464 -0.0695401 0)
(0.0777078 0.151897 0)
(0.0875859 0.0745448 0)
(-0.0848873 0.14219 0)
(-0.0190896 0.0290677 0)
(0.0669136 0.0698308 0)
(-0.108071 0.00651517 0)
(0.01496 -0.0293002 0)
(-0.0370729 0.0257621 0)
(-0.103297 -0.113664 0)
(-0.257917 -0.0725496 0)
(0.0384745 -0.0490451 0)
(-0.0283282 -0.0463774 0)
(0.112114 -0.0114281 0)
(0.0141827 0.15168 0)
(-0.0274571 0.147896 0)
(-0.0484971 -0.0172386 0)
(-0.00767424 -0.0118609 0)
(-0.0769868 -0.0709982 0)
(-0.0243247 0.0357736 0)
(-0.150957 -0.088705 0)
(0.0557289 0.0702749 0)
(-0.141648 -0.149593 0)
(0.148282 0.0378239 0)
(0.142684 0.115729 0)
(0.119699 -0.0998915 0)
(0.207195 -0.0951346 0)
(0.116092 -0.0794484 0)
(0.0440004 -0.103358 0)
(0.112354 -0.0527681 0)
(-0.0368652 0.0381003 0)
(0.0401051 0.0898289 0)
(0.114717 0.164088 0)
(-0.0108147 0.142525 0)
(0.128325 0.0708147 0)
(-0.0445949 0.0369022 0)
(0.0992709 0.0437582 0)
(0.0524746 -0.0251854 0)
(-0.0710383 -0.0119335 0)
(0.0498334 -0.0898158 0)
(-0.145535 -0.0321975 0)
(0.138186 0.0316219 0)
(-0.143313 0.00179217 0)
(0.0119207 -0.0456075 0)
(-0.0640112 -0.0333047 0)
(-0.0839003 -0.0291052 0)
(0.0387358 0.00104545 0)
(-0.0995441 -0.0591581 0)
(0.148704 -0.0555388 0)
(-0.0918712 -0.0718754 0)
(0.0427283 0.01856 0)
(0.100641 0.119911 0)
(0.0656444 -0.00611778 0)
(-0.0938722 0.0837822 0)
(-0.128486 -0.0258111 0)
(-0.0920306 -0.0419479 0)
(-0.0615257 0.0328449 0)
(-0.00639897 0.0323356 0)
(-0.105005 0.0963078 0)
(0.0229264 -0.0712026 0)
(-0.107553 0.0149569 0)
(-0.0328611 -0.0175848 0)
(-0.016479 -0.0307043 0)
(-0.194713 0.0193046 0)
(0.124705 0.0718224 0)
(-0.126959 0.00405596 0)
(-0.134625 -0.0328294 0)
(0.176163 0.0356416 0)
(0.031576 -0.0232733 0)
(0.134194 -0.064153 0)
(0.124631 -0.0631746 0)
(0.0192007 0.0131622 0)
(-0.0111865 0.0552145 0)
(0.0478561 0.0081356 0)
(-0.0538784 -0.0404448 0)
(-0.0418815 -0.0153376 0)
(-0.0344407 -0.0218803 0)
(-0.000263309 -0.0215089 0)
(0.000553859 0.00960264 0)
(0.00203109 -0.0669022 0)
(-0.0268558 -0.0595121 0)
(0.0913579 0.0529622 0)
(0.0350305 -0.0484175 0)
(0.0606593 0.115761 0)
(0.121388 -0.109388 0)
(-0.189395 -0.022499 0)
(0.0162277 -0.0185936 0)
(0.0314452 -0.0125455 0)
(0.00586906 0.0914826 0)
(0.000128036 -0.00317416 0)
(0.00487311 0.102461 0)
(-0.0298255 -0.119143 0)
(-0.00270114 0.0538994 0)
(-0.0347874 0.101539 0)
(0.138262 0.0976362 0)
(0.229981 -0.108856 0)
(-0.0910953 -0.0608304 0)
(0.0904021 -0.0757563 0)
(-0.0787164 0.0252625 0)
(-0.202192 -0.0412835 0)
(-0.224287 -0.0453319 0)
(-0.184699 0.0075201 0)
(-0.089174 -0.136591 0)
(-0.0232562 0.0662993 0)
(0.119739 0.0518526 0)
(0.161121 0.158393 0)
(0.168411 0.0530539 0)
(0.0415911 0.107145 0)
(0.0329033 0.0941653 0)
(0.0392251 -0.103362 0)
(-0.0653716 0.00469385 0)
(0.0116455 -0.156728 0)
(-0.0844134 -0.00969927 0)
(-0.0271946 0.00212902 0)
(-0.0123601 0.068756 0)
(0.0342688 -0.012828 0)
(0.0449053 -0.0095345 0)
(0.0911774 -0.0049696 0)
(0.0831831 -0.035361 0)
(0.0590529 -0.0218475 0)
(-0.122154 0.120253 0)
(0.0277789 0.0466304 0)
(-0.0834253 -0.0063949 0)
(0.0404163 -0.00212313 0)
(-0.0259699 -0.0539282 0)
(-0.115235 -0.147268 0)
(0.0319833 -0.104387 0)
(-0.0196088 -0.0763383 0)
(-0.0308764 -0.0966979 0)
(0.0281626 -0.046133 0)
(0.0228583 0.0167759 0)
(-0.0276204 0.12556 0)
(0.0239957 0.156533 0)
(-0.049741 0.172515 0)
(0.0272105 0.0416037 0)
(-0.00834513 -0.0536881 0)
(-0.0363148 0.108348 0)
(-0.0897065 0.0051041 0)
(-0.0113367 -0.0816323 0)
(0.0909181 -0.055851 0)
(-0.0302347 0.0429716 0)
(-0.111459 -0.00142627 0)
(0.0160056 -0.0600742 0)
(-0.0491359 0.0172565 0)
(0.00229488 -0.0933176 0)
(0.0129461 -0.0327054 0)
(-0.0339491 -0.0439863 0)
(-0.0333541 -0.0783113 0)
(0.00691523 -0.140809 0)
(0.00326239 -0.146642 0)
(0.0040819 0.0625459 0)
(0.0422601 0.182683 0)
(-0.0322335 0.175054 0)
(0.0786301 0.143478 0)
(-0.0998177 -0.0393183 0)
(-0.0839631 0.0933834 0)
(-0.00602153 -0.0849076 0)
(-0.0373987 -0.0759391 0)
(-0.102735 0.0736474 0)
(-0.0270959 -0.0324379 0)
(0.125646 0.0177413 0)
(-0.0394257 0.0134195 0)
(0.0711003 -0.041127 0)
(-0.0362333 0.092749 0)
(0.0487418 -0.0427929 0)
(0.0131487 -0.0233068 0)
(0.00401937 -0.0350617 0)
(0.18596 -0.103007 0)
(0.17116 0.0185149 0)
(0.0244498 -0.044805 0)
(0.104852 0.0204731 0)
(0.0184864 0.0168596 0)
(0.08787 0.0596776 0)
(0.0459342 -0.0100422 0)
(-0.0652522 0.0848169 0)
(0.0361765 -0.00885253 0)
(-0.0768342 -0.0600381 0)
(0.000821811 0.0153767 0)
(-0.00157661 -0.0389563 0)
(-0.115375 -0.0260265 0)
(0.0124096 -0.0354562 0)
(-0.0196532 0.124929 0)
(-0.0759124 -0.0377148 0)
(0.0908612 0.0910071 0)
(-0.116421 -0.0568933 0)
(0.0420441 -0.0679425 0)
(0.105055 0.00629373 0)
(-0.0333355 -0.106022 0)
(0.115488 0.0803576 0)
(0.049684 -0.0119467 0)
(0.0825779 0.122975 0)
(0.00158707 0.01724 0)
(-0.0518951 -0.0897967 0)
(-0.136182 0.0241611 0)
(0.0992462 -0.0118407 0)
(-0.131989 -0.0518552 0)
(0.0713796 -0.0433054 0)
(0.171323 0.0183881 0)
(-0.0307863 0.24583 0)
(-0.00348802 0.0435849 0)
(-0.127876 -0.00146455 0)
(-0.222417 -0.0977384 0)
(-0.085488 -0.111886 0)
(-0.394588 0.032396 0)
(-0.232867 0.0058287 0)
(-0.0794871 0.0105128 0)
(-0.00146891 -0.0394394 0)
(0.134263 -0.110518 0)
(0.0731031 0.00762499 0)
(0.136822 0.0234671 0)
(0.145736 0.0763455 0)
(0.139762 0.00782692 0)
(0.090785 0.0576953 0)
(0.187175 0.0800332 0)
(0.0416793 -0.14102 0)
(-0.0630003 -0.0849312 0)
(-0.0340862 0.0370288 0)
(-0.040026 0.0613749 0)
(-0.0239031 0.0638807 0)
(-0.0415089 -0.0393634 0)
(-0.066241 0.028023 0)
(-0.167328 0.0194302 0)
(-0.157317 0.185483 0)
(0.122453 0.0314286 0)
(0.104495 -0.137934 0)
(0.109196 -0.115018 0)
(0.057366 -0.109618 0)
(0.0571303 -0.151521 0)
(-0.236251 -0.126827 0)
(-0.100403 0.000910597 0)
(-0.0826125 0.0455522 0)
(-0.0172334 0.138773 0)
(0.16409 0.120832 0)
(0.0863918 0.0876234 0)
(-0.0450328 0.0126507 0)
(0.0384957 0.0430297 0)
(0.0356759 0.0896707 0)
(-0.0164702 0.00661777 0)
(-0.0471597 -0.0302888 0)
(0.0717776 0.0208451 0)
(0.0246236 -0.0865054 0)
(-0.0640488 -0.0976688 0)
(0.108874 -0.00731226 0)
(-0.0521103 0.0627974 0)
(-0.0524056 -0.0176442 0)
(-0.0146293 -0.0953641 0)
(0.049019 0.00854935 0)
(0.0713073 -0.133464 0)
(-0.00474551 -0.0227372 0)
(-0.00228847 -0.0284526 0)
(0.0129464 0.080047 0)
(-0.0265736 0.0569389 0)
(0.139691 0.130231 0)
(0.0156403 0.0839452 0)
(-0.180452 -0.0635747 0)
(0.151368 0.11392 0)
(0.0945401 -0.0550882 0)
(-0.0315496 -0.0269435 0)
(-0.00723653 -0.105607 0)
(0.164246 0.0215767 0)
(0.0513562 -0.0118914 0)
(-0.228303 0.0179228 0)
(-0.0204174 0.0503822 0)
(-0.0532522 0.0128024 0)
(0.0168458 -0.0334541 0)
(0.0855726 -0.0550284 0)
(-0.0472593 -0.0889252 0)
(0.0953887 -0.0637695 0)
(0.0620177 0.00687401 0)
(-0.0206626 0.028611 0)
(0.0355961 0.0378816 0)
(0.034813 0.0088364 0)
(0.0420975 0.0573712 0)
(-0.0781657 0.0137899 0)
(-0.135328 0.0797845 0)
(-0.0980352 0.0651125 0)
(-0.0675436 -0.000385172 0)
(-4.51351e-05 0.0236601 0)
(-0.000668405 -0.0927699 0)
(-0.00450187 -0.00687152 0)
(0.0237745 -0.00990655 0)
(0.00390801 0.0820665 0)
(0.00645782 0.0647677 0)
(0.0608782 -0.135859 0)
(0.062276 0.0312016 0)
(0.0286725 -0.0965988 0)
(-0.0370187 0.0917276 0)
(-0.0461544 -0.0954951 0)
(-0.125891 -0.065338 0)
(-0.0128514 0.102226 0)
(0.0726714 0.0365423 0)
(0.0338552 0.171969 0)
(0.0289485 0.0207576 0)
(-0.0417529 -0.170787 0)
(0.0356001 -0.00763884 0)
(0.0531051 -0.00308089 0)
(0.0851889 0.0175849 0)
(-0.0434381 0.111669 0)
(-0.0230852 -0.0552643 0)
(0.0172434 0.029249 0)
(-0.0864785 0.00635094 0)
(-0.0619504 0.0707384 0)
(0.137988 0.00778206 0)
(-0.0812864 0.0874552 0)
(-0.0939453 0.126642 0)
(0.00325975 -0.1322 0)
(-0.0399572 -0.0529332 0)
(-0.0545431 -0.197675 0)
(0.0505543 -0.133497 0)
(0.0701028 -0.134664 0)
(-0.0448137 0.0559057 0)
(0.0879388 0.156112 0)
(0.0211516 0.00631364 0)
(-0.104888 0.00758998 0)
(-0.0119556 0.0854797 0)
(-0.0866933 0.0878079 0)
(-0.0588768 0.0433693 0)
(-0.0877767 0.0194036 0)
(0.0150069 0.0379462 0)
(-0.0247486 0.0247797 0)
(0.00307266 -0.0737677 0)
(-0.000501132 -0.00649432 0)
(-0.0822276 -0.0142153 0)
(0.0835341 -0.0326889 0)
(0.0355942 -0.0415341 0)
(-0.0247236 -0.0165134 0)
(0.0995319 -0.078749 0)
(-0.121015 -0.0793891 0)
(-0.0417244 -0.0637924 0)
(-0.00513795 -0.0410826 0)
(-0.0205296 -0.0806206 0)
(0.161569 0.0667829 0)
(0.0395407 0.142053 0)
(0.0237324 0.131437 0)
(0.0277689 0.0899574 0)
(0.117446 0.159563 0)
(0.0575228 -0.0143957 0)
(0.0280615 -0.0626276 0)
(-0.0517027 0.10213 0)
(0.0125599 0.0158255 0)
(-0.0561682 -0.112993 0)
(-0.0630088 -0.00285796 0)
(0.0214583 -0.0168812 0)
(-0.128183 -0.0447988 0)
(0.0430263 -0.0370879 0)
(0.075794 -0.0882212 0)
(0.163353 -0.144785 0)
(-0.0681824 -0.174665 0)
(0.107653 -0.0590192 0)
(0.103622 0.0781719 0)
(0.0035277 0.0980651 0)
(0.135787 0.0766209 0)
(0.128391 0.110721 0)
(0.107278 0.0901737 0)
(0.066369 0.0118943 0)
(0.120295 -0.137509 0)
(0.171851 -0.0444487 0)
(0.112475 0.0260558 0)
(0.00558457 -0.0245123 0)
(0.0694966 0.0818816 0)
(-0.0988259 0.0329178 0)
(-0.0112255 0.0558057 0)
(-0.0599035 0.0610896 0)
(-0.0216971 -0.0425682 0)
(0.0856005 -0.0518884 0)
(0.0620069 -0.0616796 0)
(-0.0289475 -0.0902526 0)
(0.0241859 -0.00990854 0)
(-0.122094 -0.00450039 0)
(-0.0945222 0.00736381 0)
(-0.0547078 0.00328698 0)
(-0.0530326 -0.0322946 0)
(0.00934526 0.094516 0)
(-0.00444718 0.0319608 0)
(0.0336929 0.0371822 0)
(0.0368167 0.0910615 0)
(-0.0268541 0.0406415 0)
(0.000276564 0.0375991 0)
(0.00254527 -0.0414371 0)
(-0.000451256 -0.0054796 0)
(-0.0145601 0.0294229 0)
(-0.0352706 -0.095575 0)
(0.0326336 -0.0426957 0)
(0.000741305 -0.192398 0)
(-0.0291794 0.0679729 0)
(0.00712894 0.00082547 0)
(-0.0364276 0.144849 0)
(-0.104367 0.0610107 0)
(-0.0343986 0.0329424 0)
(0.0608125 0.0706856 0)
(-0.183147 -0.0264502 0)
(-0.0544601 0.099903 0)
(0.0443846 -0.0599268 0)
(-0.00243845 -0.0977115 0)
(0.00609897 -0.0992423 0)
(-0.0286371 -0.0274814 0)
(-0.000440966 0.120359 0)
(0.0420756 0.0854096 0)
(-0.0023 0.0100583 0)
(0.0114422 0.12136 0)
(-0.0515594 -0.0760135 0)
(-0.17808 0.0724073 0)
(-0.0839531 0.0777961 0)
(-0.038425 -0.063161 0)
(-0.0146301 0.023252 0)
(0.0912044 -0.0955009 0)
(0.0512132 -0.0637366 0)
(0.0564187 0.0181331 0)
(-0.0843292 -0.0375728 0)
(-0.0910885 -0.191397 0)
(0.0218972 -0.0185514 0)
(-0.0738559 0.128538 0)
(-0.129515 0.0631186 0)
(0.104062 -0.0689097 0)
(-0.0214702 0.0826186 0)
(-0.0945708 0.0591138 0)
(0.206971 0.0380717 0)
(0.102156 -0.0288202 0)
(0.288498 -0.133205 0)
(0.155235 0.056553 0)
(0.0152337 -0.0306801 0)
(0.138221 0.0757744 0)
(-0.253843 0.023668 0)
(0.0592197 -0.031946 0)
(-0.0789482 -0.0411441 0)
(0.0718216 0.00224308 0)
(0.0658248 -0.090738 0)
(-0.0467447 -0.134816 0)
(-0.0823032 -0.0646768 0)
(-0.125158 0.0047945 0)
(0.0302548 -0.0434195 0)
(0.0561441 0.00551954 0)
(0.242093 0.083078 0)
(-0.00967019 0.0238724 0)
(0.0320082 0.129065 0)
(0.112132 0.0539147 0)
(0.0193386 0.075763 0)
(0.038299 0.0762923 0)
(-0.117833 0.104052 0)
(-0.13747 -0.0863083 0)
(-0.0820329 0.0298812 0)
(0.128124 -0.030501 0)
(-0.0379865 -0.0554937 0)
(-0.0300387 -0.109359 0)
(-0.00989271 -0.0624671 0)
(0.0237557 -0.0461484 0)
(-0.0959975 -0.156147 0)
(0.0418346 -0.00607512 0)
(-0.0336054 -0.0796683 0)
(-0.160591 0.0421366 0)
(-0.028146 -0.0225026 0)
(0.00337303 -0.0387835 0)
(0.0376848 0.0945194 0)
(0.148868 0.022311 0)
(0.0298147 0.171723 0)
(0.0300673 -0.0681242 0)
(-0.0429662 0.0301734 0)
(0.0140694 -0.00670034 0)
(-0.128328 0.0229806 0)
(-0.126595 0.0634298 0)
(0.183046 0.0358167 0)
(0.0166899 0.0140298 0)
(0.0890175 -0.0365845 0)
(0.120233 0.00652942 0)
(0.0173 -0.066385 0)
(0.0134659 -0.0327737 0)
(0.0374692 -0.00837838 0)
(-0.16376 0.0416067 0)
(-0.0883943 0.0654046 0)
(-0.288678 0.0307918 0)
(-0.163544 -0.0414835 0)
(-0.0819338 -0.0180525 0)
(-0.139876 -0.00758214 0)
(0.0107106 0.0732667 0)
(-0.0383343 0.0247446 0)
(0.0176718 0.048043 0)
(0.0297574 0.0435008 0)
(0.0112687 -0.0417297 0)
(0.00177813 0.118402 0)
(0.0162899 -0.0885879 0)
(0.10145 0.124139 0)
(0.0347666 -0.0952804 0)
(0.0197531 -0.0897249 0)
(-0.139408 -0.00699723 0)
(0.0245119 -0.0444972 0)
(-0.15443 0.0959151 0)
(-0.0120841 0.0159722 0)
(-0.0246206 0.155474 0)
(-0.0640321 0.0646306 0)
(0.0792039 -0.0576041 0)
(0.0168184 -0.0019975 0)
(0.0321515 -0.0241025 0)
(0.101992 -0.0972608 0)
(0.0534285 0.0291419 0)
(-0.080193 -0.120582 0)
(-0.0158927 0.0619209 0)
(0.0462462 0.121576 0)
(0.00242098 0.114514 0)
(-0.014015 0.0360727 0)
(0.0439738 0.191131 0)
(-0.0306115 0.00983343 0)
(-0.119437 -0.132698 0)
(-0.00810697 0.0259946 0)
(-0.057972 -0.22853 0)
(0.0973948 -0.0676115 0)
(0.0381405 -0.0854795 0)
(0.0758966 0.0524465 0)
(0.043204 -0.0695679 0)
(-0.00146733 0.104333 0)
(0.0367554 0.0812339 0)
(-0.00753751 -0.100636 0)
(-0.00273427 -0.159322 0)
(-0.00289917 0.0174004 0)
(-0.0607546 0.0551902 0)
(0.111761 -0.0700472 0)
(0.0640533 0.155728 0)
(0.036002 0.081468 0)
(0.0120433 0.126938 0)
(-0.076488 0.0396133 0)
(-0.0183292 0.0173246 0)
(-0.0282451 -0.0620639 0)
(-0.130678 0.00800233 0)
(0.0866392 0.0815172 0)
(-0.0449947 0.0073272 0)
(-0.131645 -0.0462435 0)
(-0.0572904 -0.163106 0)
(-0.099104 -0.059598 0)
(-0.0366224 -0.226897 0)
(0.0490693 -0.0266894 0)
(0.340113 -0.0555427 0)
(0.0572549 0.10688 0)
(0.108345 -0.0905129 0)
(-0.102605 0.0638081 0)
(0.0174011 -0.0448311 0)
(0.0806553 0.228601 0)
(0.0266869 0.060398 0)
(0.0449035 0.0952866 0)
(0.0454757 0.208941 0)
(-0.0490724 0.00411779 0)
(0.0031819 0.00410686 0)
(-0.0205798 -0.0296708 0)
(-0.0182822 -0.0494623 0)
(0.0230612 -0.127067 0)
(-0.0385906 -0.101625 0)
(-0.112991 -0.0432728 0)
(0.00938312 -0.0619191 0)
(-0.0813253 -0.0525036 0)
(0.0320097 -0.0390848 0)
(0.0109999 -0.0538335 0)
(0.025998 -0.00773708 0)
(0.0243829 -0.015394 0)
(0.0742562 0.0572153 0)
(-0.0137794 0.0532196 0)
(-0.0043874 -0.0206282 0)
(0.0185115 0.145116 0)
(-0.0732067 0.0712579 0)
(-0.0197253 0.116192 0)
(-0.202967 -0.0701705 0)
(-0.163375 -0.0141696 0)
(-0.123632 0.000265087 0)
(-0.0295827 -0.0370655 0)
(-0.0373971 -0.00417626 0)
(0.158311 -0.0554853 0)
(-0.0520586 -0.0581033 0)
(0.0248795 0.049749 0)
(0.0361803 0.0518986 0)
(-0.131364 0.0909248 0)
(-0.0973016 0.0778558 0)
(0.0917661 -0.00418459 0)
(-0.0144859 0.0614043 0)
(0.0624055 -0.0515623 0)
(0.0372619 -0.0604214 0)
(0.114508 -0.150184 0)
(-0.0171362 -0.0145561 0)
(0.0137156 -0.00632043 0)
(0.0215378 0.0782065 0)
(-0.0245825 0.0934339 0)
(0.00130086 -0.0485979 0)
(-0.00830293 0.0825688 0)
(0.00363012 -0.0543655 0)
(-0.00799142 -0.00302662 0)
(0.0948222 -0.125637 0)
(0.0437534 -0.0692914 0)
(-0.0373974 0.0253698 0)
(0.0939349 -0.114701 0)
(-0.0120925 0.090425 0)
(0.205281 0.0590296 0)
(-0.0809138 0.158134 0)
(-0.0408462 -0.00707714 0)
(0.0262193 -0.0245369 0)
(0.0279424 0.0308591 0)
(0.0450093 -0.0797859 0)
(0.148568 -0.0257503 0)
(0.0241979 -0.0372279 0)
(-0.0149948 0.0598217 0)
(-0.247207 0.154174 0)
(-0.0889549 0.0836109 0)
(-0.159641 0.104334 0)
(-0.14203 -0.0355142 0)
(0.0881071 0.0406134 0)
(-0.0213017 0.144294 0)
(0.00769603 -0.0796257 0)
(-0.0199147 -0.117296 0)
(-0.148663 -0.200557 0)
(-0.0144214 -0.143069 0)
(-0.0685673 -0.0208467 0)
(-0.115098 -0.00209127 0)
(0.0153052 -0.0271963 0)
(-0.0685426 0.0835369 0)
(0.0307865 0.165249 0)
(-0.0907848 0.0672048 0)
(0.178543 -0.115735 0)
(0.200521 -0.0324075 0)
(-0.186126 0.0676763 0)
(0.324628 -0.0373382 0)
(-0.0969079 0.0824644 0)
(0.0924272 -0.0502797 0)
(-0.0923894 0.045155 0)
(0.0519777 0.146159 0)
(-0.143431 0.0102431 0)
(-0.220003 0.0415833 0)
(-0.0139672 0.0382833 0)
(-0.197414 0.0356504 0)
(-0.0298351 0.0313248 0)
(0.236857 -0.0934726 0)
(-0.0201823 -0.187154 0)
(0.00561955 -0.0692933 0)
(0.108159 -0.097664 0)
(0.0342942 0.0037624 0)
(-0.133331 -0.18488 0)
(-0.117163 -0.0887167 0)
(0.145315 -0.0117937 0)
(-0.105516 -0.0219165 0)
(0.00724064 0.237273 0)
(-0.0473083 0.118044 0)
(0.00901394 0.151383 0)
(0.144004 0.109606 0)
(0.293296 0.127932 0)
(0.0598933 0.040282 0)
(0.169147 0.0502135 0)
(0.0828189 0.0617465 0)
(0.0712973 -0.0757795 0)
(-0.124938 -0.0246186 0)
(0.10422 -0.173835 0)
(0.0894738 -0.00369911 0)
(-0.108786 -0.071059 0)
(0.0116372 -0.109468 0)
(-0.0855567 -0.041947 0)
(-0.0591315 -0.050293 0)
(-0.0549906 -0.0373665 0)
(-0.1259 -0.0793033 0)
(-0.0238001 0.0456662 0)
(0.1474 0.0597907 0)
(-0.0314226 0.03981 0)
(0.152402 0.0666727 0)
(0.0228875 0.151506 0)
(0.0120778 0.135598 0)
(-0.0129427 -0.0503717 0)
(0.0217503 0.0617508 0)
(0.00209446 -0.0732608 0)
(0.00447961 -0.0738507 0)
(-0.00113012 -0.0624745 0)
(0.0408675 -0.0645067 0)
(0.0750485 0.0502115 0)
(0.0265205 0.043565 0)
(0.127905 0.0207077 0)
(-0.0549199 0.0669804 0)
(0.0378435 -0.036602 0)
(-0.00151819 -0.0822376 0)
(0.171641 -0.00397876 0)
(0.0713541 -0.049699 0)
(0.0445639 0.0613314 0)
(0.0499767 -0.0324775 0)
(-0.0916463 -0.0119378 0)
(0.0084246 0.0731224 0)
(-0.0107899 0.0322132 0)
(0.00914248 0.0240688 0)
(-0.00780856 0.0221919 0)
(-0.0117931 0.00788323 0)
(-0.00978658 0.0124479 0)
(-0.0174841 -0.0888181 0)
(1.45453e-05 -0.0947337 0)
(0.0305674 -0.0666218 0)
(-0.0464847 -0.0170078 0)
(-0.150772 0.0919482 0)
(-0.103818 0.0579065 0)
(0.0647696 0.0408301 0)
(-0.001001 -0.0341038 0)
(-0.0355212 0.151209 0)
(0.0712943 -0.037868 0)
(0.158666 0.145298 0)
(-0.0572877 -0.0494254 0)
(0.0643776 -0.0789396 0)
(-0.129954 0.0128902 0)
(-0.135385 0.050274 0)
(0.168783 0.0202054 0)
(-0.0954952 0.0428299 0)
(-0.0338675 0.0280879 0)
(0.161315 -0.0129946 0)
(0.234294 -0.114099 0)
(0.165248 -0.0176311 0)
(0.14018 0.076614 0)
(0.107011 -0.0767817 0)
(-0.0590454 -0.0346978 0)
(0.0363212 -0.0480442 0)
(0.0284005 0.001246 0)
(-0.0253096 -0.0592522 0)
(-0.0136314 0.0454734 0)
(0.113825 -0.0848906 0)
(-0.0391699 0.0131881 0)
(0.100487 -0.0314379 0)
(-0.00749821 0.0246686 0)
(0.0362976 0.0121621 0)
(0.0454782 0.0454827 0)
(0.00192763 0.0560235 0)
(0.0859097 -0.108443 0)
(0.0273183 -0.108755 0)
(0.00111077 -0.0305502 0)
(0.0774386 0.0776116 0)
(-0.0393126 0.0625924 0)
(0.0420965 0.133886 0)
(-0.0593249 0.151508 0)
(0.183762 -0.0601976 0)
(0.266641 -0.0491209 0)
(-0.110496 -0.138474 0)
(0.214351 0.00292413 0)
(0.0941158 -0.0697464 0)
(-0.0092128 -0.0242365 0)
(0.183243 -0.0847322 0)
(-0.086306 -0.0516352 0)
(0.0123267 -0.128004 0)
(-0.0305172 0.0707557 0)
(-0.0382879 0.0147391 0)
(-0.143657 0.152628 0)
(-0.0503233 -0.0635674 0)
(0.0669195 0.0234918 0)
(0.0902676 0.110999 0)
(-0.0472201 0.0121589 0)
(0.103573 0.0525596 0)
(0.21988 0.00129872 0)
(0.0117455 0.156144 0)
(-0.100412 -0.0158012 0)
(0.0922345 -0.0686677 0)
(0.0709165 -0.100253 0)
(0.209343 -0.119519 0)
(-0.0906252 0.0214707 0)
(-0.119217 0.0183972 0)
(0.210527 0.070737 0)
(-0.395517 -0.0647716 0)
(-0.0922287 -0.00312958 0)
(-0.306509 -0.0575081 0)
(0.0133375 0.0316986 0)
(-0.0098107 -0.0858788 0)
(0.0915525 -0.08593 0)
(0.0443074 0.0487901 0)
(0.0708752 0.116165 0)
(0.0695891 0.122032 0)
(0.0316494 0.0535513 0)
(0.213733 0.0741867 0)
(0.0224251 -0.00506408 0)
(-0.0979371 -0.0854692 0)
(-0.0994001 -0.15267 0)
(-0.0224251 0.0278028 0)
(0.0197938 -0.00529614 0)
(-0.0321061 -0.0311474 0)
(-0.0155598 0.0100191 0)
(0.0545583 0.0341329 0)
(0.0625833 0.0421651 0)
(-0.0776016 -0.0207483 0)
(-0.0415451 -0.0409663 0)
(-0.0863214 -0.0505954 0)
(0.0977563 0.00658434 0)
(-0.0829194 -0.0035965 0)
(-0.0261606 -0.00170797 0)
(0.111704 0.143229 0)
(-0.000951581 0.0849019 0)
(0.00893288 0.0258002 0)
(-0.000263934 0.0175175 0)
(0.00111391 0.00836192 0)
(0.00197761 0.0291648 0)
(0.000757895 -0.0904458 0)
(-0.00199231 -8.26494e-05 0)
(0.000734755 -0.0308531 0)
(0.0172383 0.0182222 0)
(-0.00208403 0.0642892 0)
(-0.00346136 -0.00669328 0)
(0.000168541 -0.0992012 0)
(-0.0143644 -0.0960858 0)
(0.0733292 -0.0239402 0)
(-0.00116346 -0.0254694 0)
(0.209411 0.056282 0)
(0.041863 0.0756573 0)
(0.000305267 0.220097 0)
(-0.00396627 0.193969 0)
(-0.00454199 0.075424 0)
(-0.000161846 -0.0853157 0)
(-0.0702681 -0.11305 0)
(-0.0422658 -0.139591 0)
(0.0774018 -0.0999098 0)
(0.177157 0.0115119 0)
(0.0409564 -0.12501 0)
(0.200418 -0.0344067 0)
(-0.055909 0.0422477 0)
(-0.0830529 0.180735 0)
(0.0135117 0.137829 0)
(0.0155709 0.0271853 0)
(0.0355859 0.0681476 0)
(0.0855661 0.022601 0)
(-0.0267559 -0.264614 0)
(0.042055 -0.0862906 0)
(0.020064 0.0414766 0)
(0.0354388 0.0487608 0)
(-0.00284042 -0.0595252 0)
(0.215872 0.0555573 0)
(0.0423091 0.0165908 0)
(0.0708828 -0.0845303 0)
(0.0269488 0.103618 0)
(-0.0112266 -0.053099 0)
(0.051602 -0.0216392 0)
(-0.108923 0.0995097 0)
(0.0573999 0.115851 0)
(0.02871 0.0563691 0)
(-0.0933914 0.0739861 0)
(-0.0269778 -0.011978 0)
(-0.0705357 -0.0405287 0)
(0.0690934 -0.0690738 0)
(0.305238 -0.205919 0)
(0.0256085 -0.0692429 0)
(0.0401059 -0.0624215 0)
(0.0298878 0.042122 0)
(0.0106733 0.0707997 0)
(-0.0118022 0.0652423 0)
(-0.0287945 0.0616404 0)
(-0.103134 0.0372428 0)
(-0.128844 0.0615771 0)
(0.0526994 0.0286312 0)
(0.0754491 -0.00166461 0)
(0.0358644 -0.00658619 0)
(0.0125042 0.0513639 0)
(-0.00787083 0.0369203 0)
(0.0178936 0.0239722 0)
(0.0936885 0.000894154 0)
(-0.0296574 -0.121023 0)
(0.0717686 0.00344781 0)
(-0.0513935 -0.0816772 0)
(0.0131524 -0.0430795 0)
(-0.0806716 0.118707 0)
(-0.0363339 0.0292376 0)
(-0.16079 0.0344999 0)
(-0.0409061 -0.0507097 0)
(-0.114099 -0.113653 0)
(0.0806917 -0.0419691 0)
(0.201078 -0.154863 0)
(-0.178102 -0.0182266 0)
(0.103062 -0.123991 0)
(-0.00698867 0.0481725 0)
(-0.0470076 0.07223 0)
(0.0913406 0.235785 0)
(0.055417 0.078302 0)
(0.0128545 0.0486876 0)
(0.0589016 0.0143333 0)
(0.0212725 -0.0764023 0)
(-0.00461093 0.0256931 0)
(-0.00329897 -0.0883616 0)
(-0.0196216 0.0449383 0)
(-0.0458853 -0.0357174 0)
(0.0103312 0.0155059 0)
(-0.00585948 0.0821613 0)
(0.0221604 0.0696514 0)
(0.0799987 -0.0278179 0)
(-0.105337 0.0404444 0)
(-0.0271334 -0.066367 0)
(-0.0572133 -0.021166 0)
(-0.00465717 0.0457689 0)
(0.00190638 -0.0519525 0)
(0.00721477 0.000108505 0)
(-0.0203013 -0.00300136 0)
(-0.00164405 0.0107753 0)
(0.00316325 0.00547302 0)
(0.00653436 0.00135819 0)
(0.00225938 -0.061635 0)
(-0.000886581 0.0180457 0)
(0.0036259 0.0604978 0)
(-0.105617 0.0274866 0)
(-0.0617364 -0.0905071 0)
(-0.00507447 0.0372003 0)
(0.00616221 -0.0344377 0)
(-0.00388548 0.0042267 0)
(0.00697455 -0.0957157 0)
(-0.0125876 0.0892151 0)
(0.0772585 -0.00243003 0)
(0.020048 0.0140045 0)
(0.00703247 0.189759 0)
(-0.0455008 -0.00640786 0)
(0.0082309 0.0319155 0)
(0.153345 0.00729998 0)
(-0.20228 -0.11438 0)
(-0.06379 -0.0179443 0)
(0.169483 0.046668 0)
(-0.00642092 0.00305671 0)
(0.0308957 -0.0183091 0)
(0.023239 -0.0534274 0)
(-0.00369709 0.0663237 0)
(-0.0174646 -0.0420662 0)
(-0.0537487 -0.0440348 0)
(0.117251 0.0430707 0)
(-0.0108906 -0.0266949 0)
(-0.326532 -0.000496724 0)
(0.0315183 -0.0786338 0)
(-0.0357398 -0.103822 0)
(0.10941 0.0686891 0)
(-0.101016 -0.034644 0)
(0.209343 -0.0887043 0)
(0.420542 -0.255711 0)
(0.0289036 0.0835774 0)
(0.313148 0.0415678 0)
(-0.00984664 0.246874 0)
(0.00355949 0.0906337 0)
(-0.0227502 0.00591607 0)
(-0.00247536 0.07301 0)
(0.00404891 0.0930965 0)
(0.065152 -0.0192328 0)
(-0.0335548 0.0348611 0)
(0.0593036 -0.00605157 0)
(0.030337 -0.166603 0)
(0.00139143 -0.107944 0)
(0.00595599 -0.250338 0)
(0.00712669 0.00321067 0)
(-0.111525 -0.0255718 0)
(-0.00932802 0.112203 0)
(-0.035095 0.186183 0)
(-0.0840452 0.0732218 0)
(-0.0124518 -0.0356473 0)
(0.0355919 -0.0138485 0)
(0.0999099 0.0246194 0)
(-0.00642107 -0.0597721 0)
(0.0139284 -0.0912325 0)
(0.00111572 -0.0392202 0)
(-0.0054308 0.165621 0)
(0.112474 0.014993 0)
(-0.0448978 -0.0186109 0)
(-0.0658056 -0.0782865 0)
(0.100691 0.0530957 0)
(0.0883978 -0.000706812 0)
(0.0454127 0.0211356 0)
(-0.0501458 0.0123305 0)
(-0.0602769 0.0693936 0)
(0.0426054 0.0192481 0)
(-0.136904 -0.0231584 0)
(0.015825 -0.119795 0)
(0.0986913 -0.10363 0)
(-0.0859696 -0.171219 0)
(-0.00907786 -0.0975068 0)
(-0.196208 0.0426418 0)
(-0.297233 0.114766 0)
(-0.082367 0.103902 0)
(-0.0946351 0.0863409 0)
(-0.0900614 0.146239 0)
(0.115729 0.0196193 0)
(0.199386 -0.107497 0)
(-0.0811928 -0.018145 0)