/*--------------------------------*- C++ -*----------------------------------*\
| =========                 |                                                 |
| \\      /  F ield         | OpenFOAM: The Open Source CFD Toolbox           |
|  \\    /   O peration     | Version:  v2012                                 |
|   \\  /    A nd           | Website:  www.openfoam.com                      |
|    \\/     M anipulation  |                                                 |
\*---------------------------------------------------------------------------*/
FoamFile
{
    version     2.0;
    format      ascii;
    class       volVectorField;
    location    "1.25";
    object      U;
}
// * * * * * * * * * * * * * * * * * * * * * * * * * * * * * * * * * * * * * //

dimensions      [0 1 -1 0 0 0 0];


internalField   nonuniform List<vector> 
65536
(
(0.000694171 -0.000694149 0)
(0.00208247 -0.000694102 0)
(0.00347062 -0.000694009 0)
(0.00485855 -0.00069387 0)
(0.00624615 -0.000693685 0)
(0.00763333 -0.000693452 0)
(0.00902 -0.000693171 0)
(0.0104061 -0.000692843 0)
(0.0117914 -0.000692466 0)
(0.013176 -0.000692039 0)
(0.0145596 -0.000691562 0)
(0.0159423 -0.000691034 0)
(0.0173238 -0.000690453 0)
(0.0187041 -0.000689819 0)
(0.0200831 -0.000689131 0)
(0.0214607 -0.000688387 0)
(0.0228367 -0.000687586 0)
(0.0242111 -0.000686727 0)
(0.0255837 -0.000685807 0)
(0.0269544 -0.000684826 0)
(0.0283231 -0.000683783 0)
(0.0296896 -0.000682674 0)
(0.0310538 -0.000681499 0)
(0.0324157 -0.000680255 0)
(0.0337749 -0.000678942 0)
(0.0351315 -0.000677556 0)
(0.0364852 -0.000676097 0)
(0.037836 -0.000674561 0)
(0.0391835 -0.000672947 0)
(0.0405278 -0.000671253 0)
(0.0418686 -0.000669476 0)
(0.0432058 -0.000667615 0)
(0.0445392 -0.000665667 0)
(0.0458686 -0.000663631 0)
(0.0471938 -0.000661503 0)
(0.0485147 -0.000659281 0)
(0.049831 -0.000656964 0)
(0.0511426 -0.000654549 0)
(0.0524493 -0.000652034 0)
(0.0537509 -0.000649416 0)
(0.0550471 -0.000646693 0)
(0.0563377 -0.000643864 0)
(0.0576226 -0.000640925 0)
(0.0589016 -0.000637874 0)
(0.0601743 -0.000634711 0)
(0.0614405 -0.000631431 0)
(0.0627001 -0.000628034 0)
(0.0639528 -0.000624517 0)
(0.0651983 -0.000620879 0)
(0.0664364 -0.000617117 0)
(0.0676669 -0.000613229 0)
(0.0688894 -0.000609215 0)
(0.0701039 -0.000605071 0)
(0.0713099 -0.000600797 0)
(0.0725072 -0.000596392 0)
(0.0736956 -0.000591853 0)
(0.0748747 -0.000587179 0)
(0.0760444 -0.00058237 0)
(0.0772043 -0.000577424 0)
(0.0783542 -0.00057234 0)
(0.0794938 -0.000567117 0)
(0.0806229 -0.000561755 0)
(0.081741 -0.000556253 0)
(0.082848 -0.00055061 0)
(0.0839436 -0.000544827 0)
(0.0850275 -0.000538903 0)
(0.0860993 -0.000532838 0)
(0.0871589 -0.000526631 0)
(0.088206 -0.000520285 0)
(0.0892402 -0.000513797 0)
(0.0902613 -0.000507171 0)
(0.091269 -0.000500405 0)
(0.0922631 -0.000493501 0)
(0.0932432 -0.000486459 0)
(0.0942091 -0.000479282 0)
(0.0951604 -0.00047197 0)
(0.0960971 -0.000464524 0)
(0.0970187 -0.000456947 0)
(0.097925 -0.00044924 0)
(0.0988158 -0.000441405 0)
(0.0996907 -0.000433443 0)
(0.10055 -0.000425358 0)
(0.101392 -0.000417151 0)
(0.102218 -0.000408825 0)
(0.103028 -0.000400382 0)
(0.10382 -0.000391825 0)
(0.104595 -0.000383157 0)
(0.105353 -0.000374381 0)
(0.106093 -0.000365499 0)
(0.106815 -0.000356516 0)
(0.107519 -0.000347433 0)
(0.108205 -0.000338255 0)
(0.108872 -0.000328984 0)
(0.109521 -0.000319625 0)
(0.110151 -0.00031018 0)
(0.110762 -0.000300654 0)
(0.111353 -0.00029105 0)
(0.111926 -0.000281371 0)
(0.112479 -0.000271621 0)
(0.113012 -0.000261805 0)
(0.113526 -0.000251925 0)
(0.11402 -0.000241986 0)
(0.114494 -0.000231992 0)
(0.114948 -0.000221946 0)
(0.115382 -0.000211852 0)
(0.115796 -0.000201713 0)
(0.116189 -0.000191535 0)
(0.116562 -0.00018132 0)
(0.116914 -0.000171072 0)
(0.117246 -0.000160795 0)
(0.117557 -0.000150493 0)
(0.117848 -0.000140169 0)
(0.118118 -0.000129827 0)
(0.118367 -0.00011947 0)
(0.118596 -0.000109102 0)
(0.118804 -9.87267e-05 0)
(0.118991 -8.8347e-05 0)
(0.119157 -7.79663e-05 0)
(0.119303 -6.7588e-05 0)
(0.119428 -5.72152e-05 0)
(0.119532 -4.6851e-05 0)
(0.119615 -3.64986e-05 0)
(0.119678 -2.61608e-05 0)
(0.11972 -1.58407e-05 0)
(0.119741 -5.54101e-06 0)
(0.119742 4.73537e-06 0)
(0.119722 1.49858e-05 0)
(0.119682 2.52075e-05 0)
(0.119621 3.53981e-05 0)
(0.11954 4.55549e-05 0)
(0.119439 5.56755e-05 0)
(0.119317 6.57574e-05 0)
(0.119176 7.57985e-05 0)
(0.119014 8.57963e-05 0)
(0.118833 9.57486e-05 0)
(0.118631 0.000105653 0)
(0.11841 0.000115508 0)
(0.118169 0.000125311 0)
(0.117909 0.000135061 0)
(0.117629 0.000144754 0)
(0.11733 0.00015439 0)
(0.117011 0.000163965 0)
(0.116674 0.00017348 0)
(0.116317 0.000182931 0)
(0.115942 0.000192316 0)
(0.115548 0.000201635 0)
(0.115135 0.000210884 0)
(0.114704 0.000220064 0)
(0.114255 0.000229171 0)
(0.113787 0.000238204 0)
(0.113302 0.000247162 0)
(0.112799 0.000256042 0)
(0.112278 0.000264844 0)
(0.111739 0.000273566 0)
(0.111183 0.000282206 0)
(0.11061 0.000290762 0)
(0.11002 0.000299233 0)
(0.109413 0.000307618 0)
(0.10879 0.000315915 0)
(0.10815 0.000324123 0)
(0.107493 0.000332239 0)
(0.106821 0.000340264 0)
(0.106132 0.000348195 0)
(0.105428 0.000356032 0)
(0.104708 0.000363772 0)
(0.103972 0.000371415 0)
(0.103222 0.000378959 0)
(0.102457 0.000386403 0)
(0.101676 0.000393747 0)
(0.100881 0.000400988 0)
(0.100072 0.000408126 0)
(0.0992489 0.00041516 0)
(0.0984115 0.000422089 0)
(0.0975604 0.000428911 0)
(0.0966957 0.000435627 0)
(0.0958178 0.000442235 0)
(0.0949267 0.000448734 0)
(0.0940227 0.000455124 0)
(0.0931061 0.000461405 0)
(0.092177 0.000467575 0)
(0.0912357 0.000473634 0)
(0.0902824 0.000479582 0)
(0.0893172 0.000485418 0)
(0.0883406 0.000491142 0)
(0.0873526 0.000496754 0)
(0.0863534 0.000502253 0)
(0.0853434 0.00050764 0)
(0.0843228 0.000512915 0)
(0.0832917 0.000518077 0)
(0.0822504 0.000523127 0)
(0.0811991 0.000528065 0)
(0.080138 0.000532891 0)
(0.0790674 0.000537606 0)
(0.0779874 0.00054221 0)
(0.0768984 0.000546703 0)
(0.0758005 0.000551086 0)
(0.074694 0.000555361 0)
(0.073579 0.000559526 0)
(0.0724558 0.000563584 0)
(0.0713245 0.000567535 0)
(0.0701855 0.00057138 0)
(0.0690389 0.00057512 0)
(0.0678849 0.000578756 0)
(0.0667238 0.000582289 0)
(0.0655557 0.000585721 0)
(0.0643808 0.000589051 0)
(0.0631994 0.000592282 0)
(0.0620116 0.000595416 0)
(0.0608176 0.000598452 0)
(0.0596177 0.000601393 0)
(0.0584119 0.00060424 0)
(0.0572006 0.000606994 0)
(0.0559839 0.000609657 0)
(0.0547619 0.00061223 0)
(0.0535349 0.000614716 0)
(0.0523029 0.000617114 0)
(0.0510663 0.000619428 0)
(0.0498251 0.000621658 0)
(0.0485796 0.000623806 0)
(0.0473298 0.000625874 0)
(0.046076 0.000627862 0)
(0.0448183 0.000629774 0)
(0.0435569 0.00063161 0)
(0.0422918 0.000633372 0)
(0.0410233 0.000635062 0)
(0.0397515 0.00063668 0)
(0.0384765 0.000638229 0)
(0.0371985 0.000639711 0)
(0.0359176 0.000641125 0)
(0.0346339 0.000642475 0)
(0.0333476 0.000643762 0)
(0.0320588 0.000644986 0)
(0.0307676 0.00064615 0)
(0.0294742 0.000647254 0)
(0.0281785 0.0006483 0)
(0.0268809 0.000649289 0)
(0.0255813 0.000650223 0)
(0.0242799 0.000651103 0)
(0.0229769 0.000651929 0)
(0.0216722 0.000652703 0)
(0.020366 0.000653426 0)
(0.0190584 0.000654099 0)
(0.0177496 0.000654723 0)
(0.0164395 0.000655298 0)
(0.0151283 0.000655826 0)
(0.0138161 0.000656307 0)
(0.012503 0.000656742 0)
(0.0111891 0.000657132 0)
(0.00987446 0.000657477 0)
(0.00855916 0.000657778 0)
(0.00724331 0.000658035 0)
(0.00592698 0.000658248 0)
(0.00461027 0.000658419 0)
(0.00329326 0.000658546 0)
(0.00197604 0.000658631 0)
(0.000658694 0.000658673 0)
(0.000694216 -0.00208249 0)
(0.0020826 -0.00208235 0)
(0.00347085 -0.00208207 0)
(0.00485887 -0.00208166 0)
(0.00624656 -0.0020811 0)
(0.00763384 -0.0020804 0)
(0.0090206 -0.00207956 0)
(0.0104068 -0.00207858 0)
(0.0117922 -0.00207745 0)
(0.0131769 -0.00207617 0)
(0.0145606 -0.00207474 0)
(0.0159434 -0.00207315 0)
(0.017325 -0.00207141 0)
(0.0187054 -0.00206951 0)
(0.0200846 -0.00206745 0)
(0.0214622 -0.00206522 0)
(0.0228384 -0.00206282 0)
(0.0242129 -0.00206024 0)
(0.0255856 -0.00205748 0)
(0.0269564 -0.00205454 0)
(0.0283252 -0.00205141 0)
(0.0296919 -0.00204809 0)
(0.0310562 -0.00204456 0)
(0.0324182 -0.00204084 0)
(0.0337776 -0.0020369 0)
(0.0351343 -0.00203274 0)
(0.0364882 -0.00202836 0)
(0.0378391 -0.00202376 0)
(0.0391868 -0.00201892 0)
(0.0405313 -0.00201384 0)
(0.0418723 -0.00200851 0)
(0.0432096 -0.00200293 0)
(0.0445431 -0.00199709 0)
(0.0458727 -0.00199098 0)
(0.0471981 -0.0019846 0)
(0.0485192 -0.00197794 0)
(0.0498357 -0.00197099 0)
(0.0511475 -0.00196375 0)
(0.0524544 -0.0019562 0)
(0.0537562 -0.00194835 0)
(0.0550526 -0.00194019 0)
(0.0563435 -0.0019317 0)
(0.0576286 -0.00192288 0)
(0.0589077 -0.00191374 0)
(0.0601807 -0.00190425 0)
(0.0614472 -0.00189441 0)
(0.062707 -0.00188422 0)
(0.0639599 -0.00187367 0)
(0.0652057 -0.00186276 0)
(0.066444 -0.00185147 0)
(0.0676747 -0.00183981 0)
(0.0688976 -0.00182777 0)
(0.0701122 -0.00181534 0)
(0.0713185 -0.00180252 0)
(0.0725161 -0.00178931 0)
(0.0737047 -0.00177569 0)
(0.0748842 -0.00176167 0)
(0.0760541 -0.00174725 0)
(0.0772143 -0.00173241 0)
(0.0783645 -0.00171716 0)
(0.0795044 -0.00170149 0)
(0.0806337 -0.0016854 0)
(0.0817521 -0.0016689 0)
(0.0828594 -0.00165197 0)
(0.0839553 -0.00163462 0)
(0.0850394 -0.00161685 0)
(0.0861116 -0.00159865 0)
(0.0871715 -0.00158003 0)
(0.0882188 -0.00156099 0)
(0.0892533 -0.00154153 0)
(0.0902747 -0.00152165 0)
(0.0912827 -0.00150135 0)
(0.092277 -0.00148064 0)
(0.0932574 -0.00145951 0)
(0.0942235 -0.00143798 0)
(0.0951752 -0.00141604 0)
(0.0961121 -0.0013937 0)
(0.0970339 -0.00137097 0)
(0.0979405 -0.00134785 0)
(0.0988315 -0.00132434 0)
(0.0997067 -0.00130045 0)
(0.100566 -0.0012762 0)
(0.101409 -0.00125157 0)
(0.102235 -0.00122659 0)
(0.103045 -0.00120126 0)
(0.103837 -0.00117559 0)
(0.104613 -0.00114958 0)
(0.10537 -0.00112325 0)
(0.106111 -0.0010966 0)
(0.106833 -0.00106965 0)
(0.107537 -0.0010424 0)
(0.108223 -0.00101486 0)
(0.108891 -0.000987043 0)
(0.109539 -0.000958962 0)
(0.11017 -0.000930624 0)
(0.110781 -0.000902041 0)
(0.111373 -0.000873225 0)
(0.111945 -0.000844184 0)
(0.112498 -0.000814932 0)
(0.113032 -0.000785479 0)
(0.113546 -0.000755836 0)
(0.11404 -0.000726016 0)
(0.114514 -0.000696029 0)
(0.114968 -0.000665886 0)
(0.115402 -0.0006356 0)
(0.115816 -0.000605182 0)
(0.116209 -0.000574642 0)
(0.116582 -0.000543993 0)
(0.116935 -0.000513246 0)
(0.117267 -0.000482412 0)
(0.117578 -0.000451502 0)
(0.117869 -0.000420526 0)
(0.118139 -0.000389496 0)
(0.118388 -0.000358422 0)
(0.118617 -0.000327316 0)
(0.118825 -0.000296186 0)
(0.119012 -0.000265043 0)
(0.119178 -0.000233898 0)
(0.119323 -0.00020276 0)
(0.119448 -0.000171639 0)
(0.119552 -0.000140543 0)
(0.119636 -0.000109483 0)
(0.119698 -7.84665e-05 0)
(0.11974 -4.75032e-05 0)
(0.119762 -1.66015e-05 0)
(0.119762 1.42304e-05 0)
(0.119742 4.49842e-05 0)
(0.119702 7.56521e-05 0)
(0.119641 0.000106226 0)
(0.11956 0.000136699 0)
(0.119459 0.000167063 0)
(0.119338 0.000197312 0)
(0.119196 0.000227437 0)
(0.119034 0.000257433 0)
(0.118852 0.000287292 0)
(0.118651 0.000317008 0)
(0.11843 0.000346575 0)
(0.118189 0.000375986 0)
(0.117928 0.000405236 0)
(0.117648 0.000434318 0)
(0.117349 0.000463227 0)
(0.11703 0.000491956 0)
(0.116693 0.000520501 0)
(0.116336 0.000548855 0)
(0.115961 0.000577014 0)
(0.115566 0.000604971 0)
(0.115154 0.000632722 0)
(0.114722 0.000660262 0)
(0.114273 0.000687585 0)
(0.113805 0.000714686 0)
(0.11332 0.000741561 0)
(0.112816 0.000768205 0)
(0.112295 0.000794612 0)
(0.111757 0.000820778 0)
(0.111201 0.000846699 0)
(0.110627 0.000872369 0)
(0.110037 0.000897784 0)
(0.10943 0.00092294 0)
(0.108806 0.000947833 0)
(0.108166 0.000972457 0)
(0.107509 0.000996809 0)
(0.106837 0.00102088 0)
(0.106148 0.00104468 0)
(0.105443 0.00106819 0)
(0.104723 0.00109141 0)
(0.103988 0.00111434 0)
(0.103237 0.00113698 0)
(0.102471 0.00115931 0)
(0.101691 0.00118134 0)
(0.100896 0.00120307 0)
(0.100086 0.00122448 0)
(0.0992628 0.00124558 0)
(0.0984253 0.00126637 0)
(0.097574 0.00128684 0)
(0.0967091 0.00130699 0)
(0.0958309 0.00132681 0)
(0.0949396 0.00134631 0)
(0.0940354 0.00136548 0)
(0.0931186 0.00138432 0)
(0.0921893 0.00140283 0)
(0.0912477 0.00142101 0)
(0.0902942 0.00143886 0)
(0.0893288 0.00145636 0)
(0.0883519 0.00147354 0)
(0.0873637 0.00149037 0)
(0.0863644 0.00150687 0)
(0.0853541 0.00152303 0)
(0.0843332 0.00153886 0)
(0.0833019 0.00155434 0)
(0.0822604 0.00156949 0)
(0.0812088 0.00158431 0)
(0.0801475 0.00159878 0)
(0.0790767 0.00161293 0)
(0.0779966 0.00162674 0)
(0.0769073 0.00164022 0)
(0.0758092 0.00165337 0)
(0.0747024 0.00166619 0)
(0.0735872 0.00167869 0)
(0.0724638 0.00169086 0)
(0.0713324 0.00170271 0)
(0.0701931 0.00171425 0)
(0.0690463 0.00172547 0)
(0.0678921 0.00173637 0)
(0.0667308 0.00174697 0)
(0.0655625 0.00175726 0)
(0.0643874 0.00176725 0)
(0.0632057 0.00177695 0)
(0.0620178 0.00178634 0)
(0.0608236 0.00179545 0)
(0.0596235 0.00180427 0)
(0.0584176 0.00181281 0)
(0.057206 0.00182107 0)
(0.0559891 0.00182906 0)
(0.054767 0.00183678 0)
(0.0535398 0.00184423 0)
(0.0523077 0.00185143 0)
(0.0510709 0.00185837 0)
(0.0498295 0.00186506 0)
(0.0485838 0.0018715 0)
(0.0473339 0.0018777 0)
(0.0460799 0.00188367 0)
(0.0448221 0.0018894 0)
(0.0435605 0.00189491 0)
(0.0422953 0.00190019 0)
(0.0410266 0.00190526 0)
(0.0397547 0.00191011 0)
(0.0384795 0.00191476 0)
(0.0372014 0.0019192 0)
(0.0359204 0.00192344 0)
(0.0346366 0.00192749 0)
(0.0333501 0.00193135 0)
(0.0320612 0.00193502 0)
(0.0307699 0.00193851 0)
(0.0294763 0.00194182 0)
(0.0281806 0.00194496 0)
(0.0268828 0.00194793 0)
(0.0255832 0.00195073 0)
(0.0242817 0.00195336 0)
(0.0229785 0.00195584 0)
(0.0216737 0.00195816 0)
(0.0203674 0.00196033 0)
(0.0190597 0.00196235 0)
(0.0177508 0.00196422 0)
(0.0164406 0.00196594 0)
(0.0151293 0.00196753 0)
(0.0138171 0.00196897 0)
(0.0125039 0.00197027 0)
(0.0111899 0.00197144 0)
(0.00987511 0.00197248 0)
(0.00855972 0.00197338 0)
(0.00724378 0.00197415 0)
(0.00592736 0.00197479 0)
(0.00461057 0.0019753 0)
(0.00329347 0.00197568 0)
(0.00197617 0.00197594 0)
(0.000658737 0.00197606 0)
(0.000694309 -0.00347097 0)
(0.00208288 -0.00347074 0)
(0.00347131 -0.00347027 0)
(0.00485952 -0.00346958 0)
(0.0062474 -0.00346866 0)
(0.00763486 -0.00346749 0)
(0.00902182 -0.0034661 0)
(0.0104082 -0.00346446 0)
(0.0117938 -0.00346257 0)
(0.0131787 -0.00346044 0)
(0.0145626 -0.00345806 0)
(0.0159456 -0.00345543 0)
(0.0173274 -0.00345253 0)
(0.0187081 -0.00344937 0)
(0.0200874 -0.00344593 0)
(0.0214653 -0.00344222 0)
(0.0228417 -0.00343822 0)
(0.0242164 -0.00343393 0)
(0.0255894 -0.00342934 0)
(0.0269605 -0.00342444 0)
(0.0283295 -0.00341923 0)
(0.0296964 -0.0034137 0)
(0.0310611 -0.00340783 0)
(0.0324233 -0.00340163 0)
(0.033783 -0.00339507 0)
(0.03514 -0.00338815 0)
(0.0364942 -0.00338086 0)
(0.0378454 -0.00337319 0)
(0.0391934 -0.00336513 0)
(0.0405382 -0.00335667 0)
(0.0418795 -0.0033478 0)
(0.0432172 -0.00333851 0)
(0.0445511 -0.00332878 0)
(0.045881 -0.00331861 0)
(0.0472068 -0.00330798 0)
(0.0485283 -0.00329688 0)
(0.0498452 -0.00328531 0)
(0.0511574 -0.00327324 0)
(0.0524647 -0.00326068 0)
(0.0537669 -0.0032476 0)
(0.0550637 -0.003234 0)
(0.056355 -0.00321986 0)
(0.0576406 -0.00320518 0)
(0.0589202 -0.00318994 0)
(0.0601936 -0.00317413 0)
(0.0614605 -0.00315774 0)
(0.0627208 -0.00314077 0)
(0.0639742 -0.00312319 0)
(0.0652205 -0.00310501 0)
(0.0664593 -0.00308621 0)
(0.0676906 -0.00306678 0)
(0.0689139 -0.00304672 0)
(0.0701291 -0.00302601 0)
(0.0713359 -0.00300464 0)
(0.072534 -0.00298262 0)
(0.0737232 -0.00295994 0)
(0.0749031 -0.00293657 0)
(0.0760737 -0.00291253 0)
(0.0772344 -0.00288781 0)
(0.0783851 -0.00286239 0)
(0.0795256 -0.00283628 0)
(0.0806554 -0.00280947 0)
(0.0817744 -0.00278197 0)
(0.0828823 -0.00275376 0)
(0.0839787 -0.00272484 0)
(0.0850634 -0.00269522 0)
(0.0861361 -0.00266489 0)
(0.0871966 -0.00263386 0)
(0.0882445 -0.00260212 0)
(0.0892795 -0.00256969 0)
(0.0903015 -0.00253655 0)
(0.09131 -0.00250271 0)
(0.0923049 -0.00246819 0)
(0.0932858 -0.00243298 0)
(0.0942525 -0.00239708 0)
(0.0952047 -0.00236052 0)
(0.0961421 -0.00232328 0)
(0.0970645 -0.00228539 0)
(0.0979716 -0.00224684 0)
(0.0988631 -0.00220765 0)
(0.0997389 -0.00216784 0)
(0.100599 -0.0021274 0)
(0.101442 -0.00208635 0)
(0.102269 -0.00204471 0)
(0.103079 -0.00200248 0)
(0.103872 -0.00195968 0)
(0.104647 -0.00191633 0)
(0.105406 -0.00187243 0)
(0.106146 -0.00182801 0)
(0.106869 -0.00178307 0)
(0.107574 -0.00173765 0)
(0.10826 -0.00169174 0)
(0.108928 -0.00164537 0)
(0.109577 -0.00159855 0)
(0.110208 -0.00155131 0)
(0.110819 -0.00150366 0)
(0.111411 -0.00145562 0)
(0.111984 -0.00140721 0)
(0.112538 -0.00135844 0)
(0.113071 -0.00130934 0)
(0.113586 -0.00125993 0)
(0.11408 -0.00121021 0)
(0.114554 -0.00116022 0)
(0.115009 -0.00110997 0)
(0.115443 -0.00105948 0)
(0.115857 -0.00100877 0)
(0.11625 -0.000957859 0)
(0.116623 -0.000906765 0)
(0.116976 -0.000855508 0)
(0.117308 -0.000804105 0)
(0.117619 -0.000752575 0)
(0.11791 -0.000700937 0)
(0.11818 -0.000649209 0)
(0.11843 -0.000597408 0)
(0.118658 -0.000545552 0)
(0.118866 -0.000493658 0)
(0.119053 -0.000441743 0)
(0.119219 -0.000389823 0)
(0.119365 -0.000337915 0)
(0.11949 -0.000286036 0)
(0.119594 -0.0002342 0)
(0.119677 -0.000182423 0)
(0.11974 -0.000130719 0)
(0.119781 -7.91042e-05 0)
(0.119803 -2.7592e-05 0)
(0.119803 2.38035e-05 0)
(0.119783 7.50688e-05 0)
(0.119743 0.000126191 0)
(0.119682 0.000177156 0)
(0.119601 0.000227952 0)
(0.119499 0.000278567 0)
(0.119378 0.000328989 0)
(0.119236 0.000379205 0)
(0.119074 0.000429205 0)
(0.118892 0.000478978 0)
(0.11869 0.000528512 0)
(0.118469 0.000577797 0)
(0.118228 0.000626823 0)
(0.117967 0.000675579 0)
(0.117687 0.000724056 0)
(0.117387 0.000772243 0)
(0.117068 0.000820132 0)
(0.116731 0.000867712 0)
(0.116374 0.000914976 0)
(0.115998 0.000961912 0)
(0.115604 0.00100851 0)
(0.115191 0.00105477 0)
(0.114759 0.00110068 0)
(0.114309 0.00114622 0)
(0.113841 0.0011914 0)
(0.113356 0.00123619 0)
(0.112852 0.0012806 0)
(0.11233 0.00132462 0)
(0.111791 0.00136824 0)
(0.111235 0.00141144 0)
(0.110661 0.00145423 0)
(0.110071 0.00149659 0)
(0.109463 0.00153853 0)
(0.108839 0.00158002 0)
(0.108199 0.00162106 0)
(0.107542 0.00166166 0)
(0.106868 0.00170179 0)
(0.106179 0.00174145 0)
(0.105474 0.00178064 0)
(0.104754 0.00181935 0)
(0.104018 0.00185757 0)
(0.103267 0.00189529 0)
(0.102501 0.00193252 0)
(0.10172 0.00196924 0)
(0.100925 0.00200545 0)
(0.100115 0.00204115 0)
(0.0992908 0.00207632 0)
(0.0984528 0.00211097 0)
(0.097601 0.00214509 0)
(0.0967357 0.00217867 0)
(0.0958571 0.00221172 0)
(0.0949654 0.00224422 0)
(0.0940608 0.00227617 0)
(0.0931435 0.00230758 0)
(0.0922137 0.00233843 0)
(0.0912717 0.00236873 0)
(0.0903177 0.00239847 0)
(0.0893519 0.00242765 0)
(0.0883746 0.00245627 0)
(0.0873859 0.00248433 0)
(0.0863861 0.00251183 0)
(0.0853754 0.00253876 0)
(0.0843541 0.00256514 0)
(0.0833223 0.00259095 0)
(0.0822803 0.00261619 0)
(0.0812284 0.00264088 0)
(0.0801666 0.00266501 0)
(0.0790953 0.00268858 0)
(0.0780148 0.0027116 0)
(0.0769251 0.00273406 0)
(0.0758265 0.00275598 0)
(0.0747193 0.00277735 0)
(0.0736037 0.00279817 0)
(0.0724798 0.00281846 0)
(0.0713479 0.00283821 0)
(0.0702083 0.00285743 0)
(0.069061 0.00287612 0)
(0.0679064 0.0028943 0)
(0.0667447 0.00291196 0)
(0.065576 0.00292911 0)
(0.0644005 0.00294575 0)
(0.0632185 0.0029619 0)
(0.0620301 0.00297756 0)
(0.0608355 0.00299274 0)
(0.059635 0.00300743 0)
(0.0584287 0.00302166 0)
(0.0572169 0.00303543 0)
(0.0559996 0.00304873 0)
(0.0547771 0.00306159 0)
(0.0535495 0.00307401 0)
(0.0523171 0.003086 0)
(0.05108 0.00309756 0)
(0.0498383 0.0031087 0)
(0.0485923 0.00311943 0)
(0.047342 0.00312976 0)
(0.0460877 0.0031397 0)
(0.0448296 0.00314925 0)
(0.0435677 0.00315842 0)
(0.0423022 0.00316723 0)
(0.0410332 0.00317567 0)
(0.039761 0.00318375 0)
(0.0384856 0.00319149 0)
(0.0372072 0.00319889 0)
(0.0359259 0.00320595 0)
(0.0346418 0.0032127 0)
(0.0333552 0.00321912 0)
(0.032066 0.00322524 0)
(0.0307744 0.00323105 0)
(0.0294806 0.00323656 0)
(0.0281847 0.00324179 0)
(0.0268867 0.00324673 0)
(0.0255868 0.00325139 0)
(0.0242851 0.00325578 0)
(0.0229817 0.00325991 0)
(0.0216767 0.00326377 0)
(0.0203702 0.00326738 0)
(0.0190623 0.00327074 0)
(0.0177532 0.00327386 0)
(0.0164428 0.00327673 0)
(0.0151313 0.00327937 0)
(0.0138189 0.00328177 0)
(0.0125055 0.00328394 0)
(0.0111913 0.00328589 0)
(0.0098764 0.00328761 0)
(0.00856084 0.00328911 0)
(0.00724472 0.00329039 0)
(0.00592813 0.00329146 0)
(0.00461116 0.00329231 0)
(0.0032939 0.00329295 0)
(0.00197642 0.00329337 0)
(0.000658822 0.00329358 0)
(0.000694447 -0.00485968 0)
(0.00208329 -0.00485935 0)
(0.00347201 -0.00485871 0)
(0.00486049 -0.00485774 0)
(0.00624865 -0.00485645 0)
(0.0076364 -0.00485482 0)
(0.00902364 -0.00485287 0)
(0.0104103 -0.00485058 0)
(0.0117962 -0.00484795 0)
(0.0131814 -0.00484497 0)
(0.0145656 -0.00484165 0)
(0.0159489 -0.00483796 0)
(0.0173311 -0.00483391 0)
(0.0187121 -0.00482949 0)
(0.0200917 -0.00482469 0)
(0.02147 -0.0048195 0)
(0.0228467 -0.00481392 0)
(0.0242218 -0.00480792 0)
(0.0255951 -0.00480151 0)
(0.0269665 -0.00479466 0)
(0.028336 -0.00478738 0)
(0.0297033 -0.00477964 0)
(0.0310683 -0.00477144 0)
(0.032431 -0.00476277 0)
(0.0337911 -0.0047536 0)
(0.0351485 -0.00474393 0)
(0.0365032 -0.00473374 0)
(0.0378548 -0.00472302 0)
(0.0392034 -0.00471175 0)
(0.0405486 -0.00469992 0)
(0.0418904 -0.00468751 0)
(0.0432286 -0.00467452 0)
(0.0445631 -0.00466091 0)
(0.0458935 -0.00464669 0)
(0.0472199 -0.00463182 0)
(0.0485419 -0.00461631 0)
(0.0498594 -0.00460012 0)
(0.0511722 -0.00458324 0)
(0.0524801 -0.00456567 0)
(0.0537829 -0.00454737 0)
(0.0550804 -0.00452835 0)
(0.0563723 -0.00450857 0)
(0.0576585 -0.00448803 0)
(0.0589388 -0.00446671 0)
(0.0602129 -0.00444459 0)
(0.0614805 -0.00442166 0)
(0.0627415 -0.00439791 0)
(0.0639957 -0.00437332 0)
(0.0652427 -0.00434788 0)
(0.0664823 -0.00432157 0)
(0.0677143 -0.00429438 0)
(0.0689384 -0.0042663 0)
(0.0701543 -0.00423732 0)
(0.0713619 -0.00420743 0)
(0.0725608 -0.00417661 0)
(0.0737508 -0.00414485 0)
(0.0749316 -0.00411215 0)
(0.0761029 -0.0040785 0)
(0.0772645 -0.00404389 0)
(0.0784161 -0.00400832 0)
(0.0795573 -0.00397177 0)
(0.080688 -0.00393424 0)
(0.0818079 -0.00389574 0)
(0.0829166 -0.00385624 0)
(0.0840138 -0.00381576 0)
(0.0850994 -0.00377429 0)
(0.086173 -0.00373184 0)
(0.0872343 -0.00368839 0)
(0.088283 -0.00364396 0)
(0.0893189 -0.00359854 0)
(0.0903417 -0.00355214 0)
(0.0913511 -0.00350477 0)
(0.0923468 -0.00345643 0)
(0.0933285 -0.00340712 0)
(0.094296 -0.00335686 0)
(0.095249 -0.00330566 0)
(0.0961872 -0.00325352 0)
(0.0971104 -0.00320045 0)
(0.0980183 -0.00314647 0)
(0.0989106 -0.0030916 0)
(0.099787 -0.00303584 0)
(0.100647 -0.00297921 0)
(0.101492 -0.00292173 0)
(0.102319 -0.00286341 0)
(0.10313 -0.00280427 0)
(0.103923 -0.00274433 0)
(0.1047 -0.00268362 0)
(0.105459 -0.00262214 0)
(0.1062 -0.00255993 0)
(0.106923 -0.002497 0)
(0.107629 -0.00243337 0)
(0.108315 -0.00236908 0)
(0.108984 -0.00230414 0)
(0.109634 -0.00223857 0)
(0.110264 -0.00217241 0)
(0.110876 -0.00210568 0)
(0.111469 -0.00203839 0)
(0.112042 -0.00197059 0)
(0.112596 -0.00190229 0)
(0.113131 -0.00183352 0)
(0.113645 -0.00176431 0)
(0.11414 -0.00169469 0)
(0.114614 -0.00162467 0)
(0.115069 -0.00155429 0)
(0.115503 -0.00148358 0)
(0.115918 -0.00141256 0)
(0.116311 -0.00134126 0)
(0.116685 -0.0012697 0)
(0.117037 -0.00119791 0)
(0.11737 -0.00112592 0)
(0.117681 -0.00105376 0)
(0.117972 -0.000981439 0)
(0.118242 -0.000908994 0)
(0.118492 -0.000836448 0)
(0.11872 -0.000763826 0)
(0.118928 -0.00069115 0)
(0.119116 -0.000618446 0)
(0.119282 -0.000545736 0)
(0.119427 -0.000473043 0)
(0.119552 -0.000400389 0)
(0.119656 -0.000327797 0)
(0.119739 -0.000255288 0)
(0.119802 -0.000182883 0)
(0.119843 -0.000110602 0)
(0.119864 -3.84655e-05 0)
(0.119865 3.35073e-05 0)
(0.119845 0.000105297 0)
(0.119804 0.000176886 0)
(0.119743 0.000248255 0)
(0.119662 0.000319387 0)
(0.11956 0.000390265 0)
(0.119438 0.000460871 0)
(0.119296 0.00053119 0)
(0.119134 0.000601206 0)
(0.118952 0.000670903 0)
(0.11875 0.000740266 0)
(0.118528 0.000809279 0)
(0.118286 0.00087793 0)
(0.118025 0.000946202 0)
(0.117745 0.00101408 0)
(0.117445 0.00108156 0)
(0.117126 0.00114862 0)
(0.116787 0.00121524 0)
(0.11643 0.00128142 0)
(0.116054 0.00134715 0)
(0.115659 0.0014124 0)
(0.115246 0.00147717 0)
(0.114814 0.00154145 0)
(0.114364 0.00160523 0)
(0.113895 0.00166848 0)
(0.113409 0.00173121 0)
(0.112905 0.0017934 0)
(0.112383 0.00185503 0)
(0.111843 0.0019161 0)
(0.111287 0.0019766 0)
(0.110713 0.00203652 0)
(0.110121 0.00209584 0)
(0.109513 0.00215455 0)
(0.108889 0.00221265 0)
(0.108248 0.00227013 0)
(0.10759 0.00232696 0)
(0.106916 0.00238316 0)
(0.106227 0.00243869 0)
(0.105521 0.00249357 0)
(0.1048 0.00254777 0)
(0.104064 0.00260128 0)
(0.103312 0.00265411 0)
(0.102545 0.00270624 0)
(0.101764 0.00275765 0)
(0.100968 0.00280836 0)
(0.100157 0.00285834 0)
(0.0993326 0.00290759 0)
(0.098494 0.0029561 0)
(0.0976416 0.00300387 0)
(0.0967757 0.0030509 0)
(0.0958964 0.00309716 0)
(0.0950041 0.00314267 0)
(0.0940988 0.00318741 0)
(0.0931808 0.00323138 0)
(0.0922504 0.00327458 0)
(0.0913077 0.003317 0)
(0.0903531 0.00335863 0)
(0.0893866 0.00339949 0)
(0.0884086 0.00343956 0)
(0.0874192 0.00347885 0)
(0.0864188 0.00351735 0)
(0.0854074 0.00355506 0)
(0.0843854 0.00359198 0)
(0.0833529 0.00362811 0)
(0.0823103 0.00366346 0)
(0.0812576 0.00369802 0)
(0.0801952 0.0037318 0)
(0.0791233 0.00376479 0)
(0.078042 0.00379701 0)
(0.0769517 0.00382846 0)
(0.0758525 0.00385913 0)
(0.0747446 0.00388904 0)
(0.0736283 0.00391819 0)
(0.0725038 0.00394659 0)
(0.0713713 0.00397423 0)
(0.070231 0.00400113 0)
(0.0690832 0.0040273 0)
(0.0679279 0.00405274 0)
(0.0667655 0.00407745 0)
(0.0655962 0.00410145 0)
(0.0644202 0.00412475 0)
(0.0632375 0.00414735 0)
(0.0620486 0.00416927 0)
(0.0608534 0.0041905 0)
(0.0596524 0.00421107 0)
(0.0584455 0.00423098 0)
(0.0572331 0.00425023 0)
(0.0560153 0.00426886 0)
(0.0547922 0.00428685 0)
(0.0535641 0.00430422 0)
(0.0523312 0.00432099 0)
(0.0510936 0.00433717 0)
(0.0498514 0.00435275 0)
(0.0486049 0.00436777 0)
(0.0473542 0.00438222 0)
(0.0460994 0.00439612 0)
(0.0448408 0.00440948 0)
(0.0435784 0.00442231 0)
(0.0423125 0.00443462 0)
(0.0410431 0.00444643 0)
(0.0397705 0.00445774 0)
(0.0384947 0.00446856 0)
(0.0372158 0.00447891 0)
(0.0359342 0.00448879 0)
(0.0346497 0.00449822 0)
(0.0333627 0.0045072 0)
(0.0320731 0.00451575 0)
(0.0307812 0.00452388 0)
(0.029487 0.00453159 0)
(0.0281907 0.0045389 0)
(0.0268924 0.00454581 0)
(0.0255922 0.00455233 0)
(0.0242902 0.00455847 0)
(0.0229865 0.00456424 0)
(0.0216811 0.00456964 0)
(0.0203744 0.00457469 0)
(0.0190662 0.00457938 0)
(0.0177567 0.00458374 0)
(0.0164461 0.00458775 0)
(0.0151344 0.00459144 0)
(0.0138216 0.0045948 0)
(0.012508 0.00459783 0)
(0.0111935 0.00460055 0)
(0.00987833 0.00460296 0)
(0.0085625 0.00460506 0)
(0.00724612 0.00460685 0)
(0.00592928 0.00460834 0)
(0.00461205 0.00460953 0)
(0.00329453 0.00461042 0)
(0.0019768 0.00461101 0)
(0.000658949 0.00461131 0)
(0.000694631 -0.00624871 0)
(0.00208385 -0.0062483 0)
(0.00347293 -0.00624747 0)
(0.00486178 -0.00624623 0)
(0.00625032 -0.00624457 0)
(0.00763844 -0.00624249 0)
(0.00902607 -0.00623998 0)
(0.0104131 -0.00623704 0)
(0.0117994 -0.00623367 0)
(0.013185 -0.00622986 0)
(0.0145696 -0.00622559 0)
(0.0159533 -0.00622086 0)
(0.0173359 -0.00621567 0)
(0.0187173 -0.00621 0)
(0.0200974 -0.00620385 0)
(0.0214761 -0.00619719 0)
(0.0228533 -0.00619002 0)
(0.0242289 -0.00618233 0)
(0.0256027 -0.0061741 0)
(0.0269746 -0.00616532 0)
(0.0283445 -0.00615598 0)
(0.0297124 -0.00614605 0)
(0.031078 -0.00613553 0)
(0.0324412 -0.0061244 0)
(0.0338019 -0.00611263 0)
(0.0351599 -0.00610022 0)
(0.0365151 -0.00608715 0)
(0.0378674 -0.00607339 0)
(0.0392166 -0.00605892 0)
(0.0405625 -0.00604374 0)
(0.0419049 -0.00602782 0)
(0.0432438 -0.00601114 0)
(0.044579 -0.00599367 0)
(0.0459101 -0.00597541 0)
(0.0472372 -0.00595633 0)
(0.04856 -0.0059364 0)
(0.0498783 -0.00591561 0)
(0.0511919 -0.00589395 0)
(0.0525006 -0.00587138 0)
(0.0538042 -0.00584788 0)
(0.0551025 -0.00582345 0)
(0.0563954 -0.00579805 0)
(0.0576825 -0.00577166 0)
(0.0589636 -0.00574427 0)
(0.0602386 -0.00571586 0)
(0.0615072 -0.00568641 0)
(0.0627692 -0.0056559 0)
(0.0640243 -0.0056243 0)
(0.0652722 -0.00559161 0)
(0.0665128 -0.00555781 0)
(0.0677458 -0.00552288 0)
(0.068971 -0.00548679 0)
(0.070188 -0.00544955 0)
(0.0713966 -0.00541113 0)
(0.0725966 -0.00537152 0)
(0.0737877 -0.00533071 0)
(0.0749695 -0.00528869 0)
(0.0761419 -0.00524544 0)
(0.0773046 -0.00520095 0)
(0.0784573 -0.00515522 0)
(0.0795997 -0.00510824 0)
(0.0807315 -0.00506 0)
(0.0818524 -0.00501049 0)
(0.0829623 -0.00495972 0)
(0.0840607 -0.00490768 0)
(0.0851474 -0.00485436 0)
(0.0862221 -0.00479977 0)
(0.0872845 -0.00474391 0)
(0.0883344 -0.00468677 0)
(0.0893714 -0.00462837 0)
(0.0903953 -0.00456871 0)
(0.0914058 -0.00450779 0)
(0.0924026 -0.00444563 0)
(0.0933854 -0.00438222 0)
(0.094354 -0.00431758 0)
(0.0953081 -0.00425173 0)
(0.0962474 -0.00418467 0)
(0.0971716 -0.00411643 0)
(0.0980805 -0.00404701 0)
(0.0989738 -0.00397643 0)
(0.0998513 -0.00390471 0)
(0.100713 -0.00383187 0)
(0.101558 -0.00375794 0)
(0.102386 -0.00368293 0)
(0.103198 -0.00360686 0)
(0.103992 -0.00352977 0)
(0.10477 -0.00345167 0)
(0.105529 -0.00337259 0)
(0.106272 -0.00329256 0)
(0.106996 -0.00321161 0)
(0.107702 -0.00312977 0)
(0.108389 -0.00304707 0)
(0.109058 -0.00296353 0)
(0.109709 -0.00287919 0)
(0.11034 -0.00279408 0)
(0.110953 -0.00270823 0)
(0.111546 -0.00262168 0)
(0.11212 -0.00253446 0)
(0.112675 -0.0024466 0)
(0.113209 -0.00235814 0)
(0.113724 -0.00226911 0)
(0.11422 -0.00217955 0)
(0.114695 -0.00208948 0)
(0.11515 -0.00199895 0)
(0.115584 -0.00190799 0)
(0.115999 -0.00181663 0)
(0.116393 -0.00172491 0)
(0.116767 -0.00163286 0)
(0.11712 -0.00154052 0)
(0.117452 -0.00144792 0)
(0.117764 -0.00135509 0)
(0.118055 -0.00126207 0)
(0.118325 -0.00116888 0)
(0.118575 -0.00107557 0)
(0.118804 -0.000982152 0)
(0.119012 -0.000888671 0)
(0.119199 -0.000795154 0)
(0.119365 -0.00070163 0)
(0.11951 -0.00060813 0)
(0.119635 -0.000514681 0)
(0.119739 -0.000421311 0)
(0.119822 -0.00032805 0)
(0.119884 -0.000234922 0)