/*--------------------------------*- C++ -*----------------------------------*\
| =========                 |                                                 |
| \\      /  F ield         | OpenFOAM: The Open Source CFD Toolbox           |
|  \\    /   O peration     | Version:  v2012                                 |
|   \\  /    A nd           | Website:  www.openfoam.com                      |
|    \\/     M anipulation  |                                                 |
\*---------------------------------------------------------------------------*/
FoamFile
{
    version     2.0;
    format      ascii;
    class       volScalarField;
    location    "2";
    object      Psi_z;
}
// * * * * * * * * * * * * * * * * * * * * * * * * * * * * * * * * * * * * * //

dimensions      [0 2 -1 0 0 0 0];


internalField   nonuniform List<scalar> 
65536
(
8.64004e-06
2.59195e-05
4.31973e-05
6.04724e-05
7.77435e-05
9.50096e-05
0.00011227
0.000129522
0.000146766
0.000164001
0.000181224
0.000198436
0.000215634
0.000232817
0.000249985
0.000267135
0.000284266
0.000301377
0.000318467
0.000335534
0.000352576
0.000369591
0.000386579
0.000403537
0.000420465
0.000437359
0.000454218
0.00047104
0.000487824
0.000504567
0.000521267
0.000537923
0.000554531
0.00057109
0.000587597
0.000604051
0.000620448
0.000636786
0.000653063
0.000669276
0.000685423
0.0007015
0.000717504
0.000733434
0.000749286
0.000765057
0.000780744
0.000796344
0.000811853
0.00082727
0.00084259
0.00085781
0.000872927
0.000887937
0.000902837
0.000917624
0.000932294
0.000946843
0.000961268
0.000975565
0.000989731
0.00100376
0.00101765
0.0010314
0.00104501
0.00105846
0.00107176
0.00108491
0.00109789
0.00111071
0.00112336
0.00113583
0.00114814
0.00116026
0.0011722
0.00118395
0.00119551
0.00120688
0.00121806
0.00122903
0.0012398
0.00125036
0.00126071
0.00127085
0.00128078
0.00129048
0.00129996
0.00130922
0.00131825
0.00132705
0.00133561
0.00134394
0.00135203
0.00135988
0.00136749
0.00137486
0.00138197
0.00138884
0.00139546
0.00140183
0.00140795
0.00141381
0.00141941
0.00142476
0.00142985
0.00143467
0.00143924
0.00144355
0.00144759
0.00145138
0.0014549
0.00145816
0.00146115
0.00146388
0.00146635
0.00146855
0.00147049
0.00147217
0.00147358
0.00147474
0.00147563
0.00147626
0.00147663
0.00147674
0.00147659
0.00147619
0.00147552
0.00147461
0.00147344
0.00147201
0.00147033
0.00146841
0.00146623
0.00146381
0.00146114
0.00145823
0.00145507
0.00145168
0.00144804
0.00144417
0.00144006
0.00143572
0.00143115
0.00142635
0.00142132
0.00141606
0.00141059
0.00140489
0.00139897
0.00139283
0.00138649
0.00137992
0.00137315
0.00136617
0.00135899
0.0013516
0.00134401
0.00133622
0.00132824
0.00132006
0.00131169
0.00130313
0.00129439
0.00128546
0.00127635
0.00126707
0.0012576
0.00124797
0.00123816
0.00122818
0.00121804
0.00120774
0.00119727
0.00118665
0.00117587
0.00116494
0.00115386
0.00114263
0.00113126
0.00111974
0.00110809
0.0010963
0.00108437
0.00107232
0.00106013
0.00104782
0.00103539
0.00102283
0.00101016
0.000997368
0.000984466
0.000971453
0.000958332
0.000945106
0.000931777
0.000918348
0.000904821
0.000891199
0.000877484
0.000863679
0.000849786
0.000835807
0.000821746
0.000807603
0.000793382
0.000779084
0.000764713
0.00075027
0.000735757
0.000721177
0.000706531
0.000691823
0.000677053
0.000662225
0.000647339
0.000632398
0.000617404
0.000602358
0.000587263
0.000572121
0.000556933
0.0005417
0.000526426
0.00051111
0.000495756
0.000480364
0.000464936
0.000449474
0.000433979
0.000418453
0.000402897
0.000387312
0.000371701
0.000356063
0.000340401
0.000324717
0.00030901
0.000293283
0.000277536
0.000261771
0.000245989
0.000230191
0.000214379
0.000198553
0.000182714
0.000166864
0.000151003
0.000135133
0.000119254
0.000103369
8.74764e-05
7.15789e-05
5.5677e-05
3.97717e-05
2.3864e-05
7.95482e-06
2.59206e-05
7.77601e-05
0.000129595
0.000181421
0.000233235
0.000285035
0.000336816
0.000388575
0.000440308
0.000492013
0.000543685
0.00059532
0.000646916
0.000698467
0.000749971
0.000801422
0.000852818
0.000904153
0.000955424
0.00100662
0.00105775
0.0011088
0.00115977
0.00121064
0.00126143
0.00131211
0.00136269
0.00141316
0.00146351
0.00151374
0.00156385
0.00161381
0.00166364
0.00171332
0.00176284
0.00181221
0.0018614
0.00191042
0.00195925
0.00200789
0.00205634
0.00210457
0.00215259
0.00220038
0.00224794
0.00229525
0.00234232
0.00238912
0.00243565
0.0024819
0.00252787
0.00257353
0.00261889
0.00266392
0.00270862
0.00275299
0.002797
0.00284065
0.00288393
0.00292683
0.00296933
0.00301142
0.0030531
0.00309436
0.00313517
0.00317554
0.00321544
0.00325488
0.00329383
0.00333229
0.00337024
0.00340767
0.00344458
0.00348095
0.00351678
0.00355204
0.00358673
0.00362085
0.00365437
0.00368729
0.0037196
0.0037513
0.00378236
0.00381278
0.00384255
0.00387166
0.00390011
0.00392788
0.00395497
0.00398137
0.00400706
0.00403206
0.00405633
0.00407989
0.00410272
0.00412481
0.00414617
0.00416678
0.00418664
0.00420575
0.00422409
0.00424167
0.00425849
0.00427453
0.00428979
0.00430428
0.00431799
0.00433091
0.00434305
0.0043544
0.00436496
0.00437473
0.00438371
0.0043919
0.00439931
0.00440592
0.00441174
0.00441677
0.00442102
0.00442447
0.00442715
0.00442904
0.00443015
0.00443048
0.00443003
0.00442882
0.00442683
0.00442408
0.00442056
0.00441628
0.00441125
0.00440547
0.00439894
0.00439167
0.00438367
0.00437493
0.00436546
0.00435527
0.00434437
0.00433275
0.00432042
0.0043074
0.00429368
0.00427927
0.00426418
0.00424842
0.00423198
0.00421488
0.00419713
0.00417872
0.00415967
0.00413998
0.00411966
0.00409872
0.00407716
0.00405499
0.00403222
0.00400886
0.0039849
0.00396037
0.00393526
0.00390959
0.00388335
0.00385657
0.00382924
0.00380138
0.00377299
0.00374408
0.00371465
0.00368472
0.00365429
0.00362338
0.00359198
0.00356011
0.00352777
0.00349498
0.00346173
0.00342804
0.00339392
0.00335938
0.00332441
0.00328903
0.00325326
0.00321708
0.00318053
0.00314359
0.00310628
0.00306861
0.00303059
0.00299222
0.00295351
0.00291447
0.0028751
0.00283542
0.00279543
0.00275514
0.00271456
0.00267369
0.00263254
0.00259113
0.00254944
0.00250751
0.00246532
0.00242289
0.00238022
0.00233733
0.00229421
0.00225088
0.00220734
0.0021636
0.00211966
0.00207553
0.00203122
0.00198673
0.00194207
0.00189725
0.00185226
0.00180713
0.00176184
0.00171641
0.00167084
0.00162514
0.00157932
0.00153337
0.00148731
0.00144113
0.00139484
0.00134846
0.00130197
0.00125539
0.00120872
0.00116196
0.00111513
0.00106821
0.00102123
0.000974172
0.000927051
0.000879868
0.000832626
0.00078533
0.000737983
0.000690589
0.00064315
0.00059567
0.000548153
0.000500601
0.000453018
0.000405407
0.000357771
0.000310112
0.000262435
0.000214741
0.000167034
0.000119318
7.15934e-05
2.38649e-05
4.32028e-05
0.000129606
0.000216
0.000302381
0.000388742
0.000475079
0.000561384
0.000647653
0.000733879
0.000820058
0.000906182
0.000992245
0.00107824
0.00116417
0.00125001
0.00133577
0.00142143
0.00150699
0.00159245
0.00167779
0.00176301
0.00184809
0.00193304
0.00201784
0.00210249
0.00218697
0.00227127
0.00235539
0.00243932
0.00252305
0.00260656
0.00268985
0.0027729
0.00285571
0.00293825
0.00302053
0.00310253
0.00318424
0.00326563
0.00334671
0.00342746
0.00350786
0.00358789
0.00366756
0.00374683
0.0038257
0.00390415
0.00398217
0.00405973
0.00413683
0.00421345
0.00428956
0.00436516
0.00444023
0.00451475
0.0045887
0.00466207
0.00473483
0.00480697
0.00487848
0.00494933
0.0050195
0.00508898
0.00515775
0.00522579
0.00529307
0.0053596
0.00542533
0.00549026
0.00555437
0.00561764
0.00568004
0.00574157
0.0058022
0.00586192
0.0059207
0.00597854
0.0060354
0.00609129
0.00614617
0.00620003
0.00625286
0.00630464
0.00635535
0.00640498
0.00645351
0.00650093
0.00654723
0.00659238
0.00663639
0.00667923
0.00672089
0.00676136
0.00680062
0.00683868
0.00687551
0.00691111
0.00694547
0.00697858
0.00701042
0.00704101
0.00707031
0.00709834
0.00712507
0.00715052
0.00717467
0.00719751
0.00721905
0.00723928
0.0072582
0.00727581
0.00729209
0.00730707
0.00732072
0.00733305
0.00734407
0.00735377
0.00736216
0.00736923
0.007375
0.00737945
0.0073826
0.00738444
0.00738499
0.00738425
0.00738221
0.0073789
0.00737431
0.00736844
0.00736131
0.00735292
0.00734328
0.0073324
0.00732028
0.00730693
0.00729235
0.00727657
0.00725958
0.0072414
0.00722203
0.00720148
0.00717977
0.0071569
0.00713288
0.00710772
0.00708144
0.00705404
0.00702554
0.00699593
0.00696525
0.00693349
0.00690067
0.0068668
0.00683188
0.00679595
0.00675899
0.00672103
0.00668208
0.00664215
0.00660125
0.00655939
0.0065166
0.00647287
0.00642822
0.00638267
0.00633622
0.00628889
0.0062407
0.00619165
0.00614176
0.00609103
0.0060395
0.00598716
0.00593403
0.00588013
0.00582546
0.00577004
0.00571389
0.00565701
0.00559942
0.00554114
0.00548217
0.00542253
0.00536224
0.0053013
0.00523973
0.00517754
0.00511475
0.00505137
0.00498741
0.00492288
0.00485781
0.00479219
0.00472605
0.00465939
0.00459223
0.00452458
0.00445646
0.00438788
0.00431884
0.00424936
0.00417945
0.00410913
0.00403841
0.00396729
0.00389579
0.00382392
0.0037517
0.00367912
0.00360621
0.00353297
0.00345942
0.00338556
0.00331141
0.00323697
0.00316226
0.00308728
0.00301204
0.00293656
0.00286084
0.00278489
0.00270872
0.00263233
0.00255575
0.00247897
0.002402
0.00232485
0.00224754
0.00217005
0.00209242
0.00201463
0.0019367
0.00185863
0.00178044
0.00170212
0.00162369
0.00154515
0.00146651
0.00138777
0.00130894
0.00123003
0.00115103
0.00107196
0.000992826
0.000913627
0.00083437
0.000755062
0.000675706
0.000596309
0.000516875
0.000437409
0.000357916
0.000278402
0.000198871
0.000119327
3.97765e-05
6.04879e-05
0.00018146
0.00030242
0.000423361
0.000544274
0.000665153
0.000785989
0.000906773
0.0010275
0.00114816
0.00126874
0.00138924
0.00150964
0.00162994
0.00175013
0.0018702
0.00199014
0.00210994
0.00222959
0.00234908
0.00246839
0.00258753
0.00270646
0.0028252
0.00294371
0.003062
0.00318004
0.00329782
0.00341533
0.00353256
0.0036495
0.00376611
0.0038824
0.00399835
0.00411393
0.00422914
0.00434396
0.00445836
0.00457234
0.00468586
0.00479893
0.0049115
0.00502358
0.00513512
0.00524613
0.00535657
0.00546642
0.00557566
0.00568428
0.00579224
0.00589952
0.00600611
0.00611198
0.00621709
0.00632144
0.006425
0.00652774
0.00662963
0.00673066
0.00683079
0.00693
0.00702827
0.00712557
0.00722187
0.00731715
0.00741138
0.00750453
0.00759659
0.00768752
0.0077773
0.00786589
0.00795329
0.00803945
0.00812436
0.00820799
0.00829031
0.0083713
0.00845094
0.0085292
0.00860606
0.00868149
0.00875547
0.00882798
0.008899
0.0089685
0.00903647
0.00910288
0.00916771
0.00923095
0.00929257
0.00935256
0.00941091
0.00946758
0.00952257
0.00957586
0.00962744
0.0096773
0.00972541
0.00977177
0.00981637
0.00985919
0.00990023
0.00993947
0.00997691
0.0100125
0.0100464
0.0100783
0.0101085
0.0101368
0.0101633
0.010188
0.0102108
0.0102317
0.0102509
0.0102681
0.0102835
0.0102971
0.0103089
0.0103188
0.0103268
0.0103331
0.0103375
0.01034
0.0103408
0.0103397
0.0103369
0.0103322
0.0103258
0.0103176
0.0103076
0.0102958
0.0102823
0.0102671
0.0102501
0.0102314
0.010211
0.0101889
0.0101651
0.0101396
0.0101125
0.0100837
0.0100533
0.0100213
0.00998763
0.00995239
0.00991558
0.00987721
0.00983728
0.00979583
0.00975285
0.00970837
0.00966241
0.00961497
0.00956608
0.00951575
0.00946399
0.00941083
0.00935628
0.00930036
0.00924309
0.00918447
0.00912454
0.0090633
0.00900077
0.00893698
0.00887194
0.00880566
0.00873817
0.00866948
0.00859962
0.00852859
0.00845642
0.00838313
0.00830873
0.00823325
0.00815669
0.00807909
0.00800046
0.00792081
0.00784017
0.00775855
0.00767598
0.00759247
0.00750803
0.0074227
0.00733649
0.00724941
0.00716148
0.00707273
0.00698316
0.00689281
0.00680168
0.0067098
0.00661718
0.00652385
0.00642981
0.00633509
0.0062397
0.00614366
0.00604699
0.0059497
0.00585182
0.00575335
0.00565432
0.00555474
0.00545463
0.005354
0.00525286
0.00515124
0.00504915
0.00494661
0.00484362
0.0047402
0.00463637
0.00453215
0.00442753
0.00432255
0.0042172
0.00411151
0.00400549
0.00389915
0.0037925
0.00368555
0.00357832
0.00347082
0.00336305
0.00325503
0.00314678
0.00303829
0.00292959
0.00282068
0.00271157
0.00260227
0.00249279
0.00238314
0.00227332
0.00216336
0.00205325
0.00194301
0.00183264
0.00172215
0.00161155
0.00150084
0.00139004
0.00127916
0.00116819
0.00105715
0.000946047
0.000834884
0.000723669
0.00061241
0.000501114
0.000389787
0.000278436
0.000167068
5.56905e-05
7.77767e-05
0.000233325
0.000388859
0.000544368
0.000699842
0.000855271
0.00101064
0.00116595
0.00132119
0.00147633
0.00163138
0.00178632
0.00194114
0.00209583
0.00225038
0.00240477
0.002559
0.00271304
0.00286689
0.00302054
0.00317396
0.00332715
0.00348009
0.00363277
0.00378517
0.00393727
0.00408906
0.00424052
0.00439163
0.00454238
0.00469275
0.00484271
0.00499225
0.00514135
0.00528999
0.00543814
0.00558579
0.00573291
0.00587948
0.00602548
0.00617088
0.00631566
0.00645978
0.00660324
0.00674599
0.00688802
0.0070293
0.00716979
0.00730948
0.00744832
0.0075863
0.00772338
0.00785953
0.00799473
0.00812893
0.00826212
0.00839425
0.0085253
0.00865524
0.00878402
0.00891162
0.00903801
0.00916315
0.00928701
0.00940956
0.00953076
0.00965057
0.00976898
0.00988593
0.0100014
0.0101154
0.0102278
0.0103386
0.0104478
0.0105554
0.0106613
0.0107654
0.0108679
0.0109685
0.0110674
0.0111644
0.0112596
0.0113528
0.0114442
0.0115336
0.011621
0.0117064
0.0117898
0.0118711
0.0119504
0.0120276
0.0121026
0.0121755
0.0122462
0.0123148
0.0123811
0.0124452
0.0125071
0.0125667
0.0126241
0.0126792
0.0127319
0.0127824
0.0128306
0.0128764
0.0129199
0.012961
0.0129998
0.0130362
0.0130703
0.013102
0.0131313
0.0131583
0.0131828
0.013205
0.0132249
0.0132423
0.0132574
0.0132701
0.0132805
0.0132885
0.0132941
0.0132974
0.0132984
0.0132971
0.0132934
0.0132874
0.0132791
0.0132685
0.0132556
0.0132405
0.0132231
0.0132035
0.0131817
0.0131576
0.0131313
0.0131029
0.0130723
0.0130395
0.0130046
0.0129676
0.0129284
0.0128872
0.012844
0.0127986
0.0127513
0.0127019
0.0126506
0.0125972
0.012542
0.0124847
0.0124256
0.0123646
0.0123017
0.012237
0.0121704
0.012102
0.0120319
0.0119599
0.0118863
0.0118109
0.0117338
0.011655
0.0115746
0.0114925
0.0114089
0.0113236
0.0112368
0.0111485
0.0110586
0.0109673
0.0108745
0.0107802
0.0106845
0.0105874
0.010489
0.0103892
0.010288
0.0101856
0.0100819
0.00997692
0.00987072
0.00976332
0.00965473
0.00954499
0.00943411
0.00932211
0.00920903
0.00909489
0.00897971
0.00886351
0.00874632
0.00862815
0.00850904
0.00838901
0.00826807
0.00814625
0.00802358
0.00790007
0.00777575
0.00765064
0.00752476
0.00739814
0.00727078
0.00714272
0.00701398
0.00688457
0.00675452
0.00662384
0.00649255
0.00636068
0.00622824
0.00609525
0.00596174
0.0058277
0.00569318
0.00555817
0.00542271
0.0052868
0.00515047
0.00501372
0.00487658
0.00473905
0.00460116
0.00446293
0.00432435
0.00418545
0.00404625
0.00390675
0.00376697
0.00362693
0.00348662
0.00334608
0.0032053
0.00306431
0.00292311
0.00278171
0.00264013
0.00249837
0.00235645
0.00221438
0.00207216
0.00192982
0.00178735
0.00164477
0.00150209
0.00135931
0.00121645
0.00107351
0.000930508
0.000787448
0.000644341
0.000501195
0.000358018
0.000214819
7.16079e-05
9.50706e-05
0.000285206
0.000475323
0.000665409
0.000855454
0.00104544
0.00123537
0.00142521
0.00161496
0.0018046
0.00199413
0.00218353
0.00237278
0.00256187
0.00275078
0.00293951
0.00312803
0.00331633
0.0035044
0.00369222
0.00387977
0.00406703
0.00425399
0.00444063
0.00462692
0.00481286
0.00499841
0.00518356
0.00536829
0.00555258
0.0057364
0.00591973
0.00610254
0.00628482
0.00646653
0.00664765
0.00682816
0.00700802
0.00718721
0.0073657
0.00754346
0.00772046
0.00789666
0.00807205
0.00824658
0.00842023
0.00859296
0.00876473
0.00893551
0.00910527
0.00927397
0.00944158
0.00960805
0.00977335
0.00993744
0.0101003
0.0102619
0.0104221
0.010581
0.0107384
0.0108945
0.011049
0.011202
0.0113535
0.0115033
0.0116515
0.011798
0.0119428
0.0120858
0.012227
0.0123664
0.0125038
0.0126393
0.0127729
0.0129044
0.0130339
0.0131613
0.0132866
0.0134096
0.0135305
0.0136492
0.0137655
0.0138796
0.0139913
0.0141006
0.0142075
0.014312
0.0144139
0.0145134
0.0146103
0.0147047
0.0147964
0.0148856
0.014972
0.0150559
0.015137
0.0152154
0.015291
0.015364
0.0154341
0.0155014
0.015566
0.0156277
0.0156865
0.0157426
0.0157957
0.015846
0.0158934
0.015938
0.0159796
0.0160184
0.0160542
0.0160871
0.0161172
0.0161443
0.0161686
0.0161899
0.0162083
0.0162239
0.0162365
0.0162463
0.0162532
0.0162572
0.0162584
0.0162567
0.0162522
0.0162448
0.0162347
0.0162217
0.016206
0.0161874
0.0161662
0.0161422
0.0161154
0.016086
0.0160539
0.0160191
0.0159816
0.0159415
0.0158988
0.0158535
0.0158057
0.0157553
0.0157023
0.0156469
0.015589
0.0155286
0.0154658
0.0154006
0.015333
0.015263
0.0151907
0.0151161
0.0150392
0.01496
0.0148786
0.014795
0.0147092
0.0146212
0.0145312
0.014439
0.0143447
0.0142484
0.0141501
0.0140497
0.0139474
0.0138432
0.0137371
0.013629
0.0135192
0.0134075
0.013294
0.0131787
0.0130617
0.012943
0.0128226
0.0127006
0.0125769
0.0124517
0.0123249
0.0121965
0.0120667
0.0119354
0.0118026
0.0116684
0.0115328
0.0113959
0.0112577
0.0111181
0.0109773
0.0108352
0.0106919
0.0105474
0.0104018
0.0102551
0.0101072
0.00995828
0.0098083
0.0096573
0.00950531
0.00935235
0.00919846
0.00904365
0.00888795
0.00873139
0.008574
0.00841579
0.00825679
0.00809703
0.00793654
0.00777532
0.00761341
0.00745084
0.00728761
0.00712376
0.0069593
0.00679426
0.00662866
0.00646252
0.00629585
0.00612868
0.00596103
0.00579292
0.00562436
0.00545537
0.00528597
0.00511618
0.00494602
0.00477549
0.00460462
0.00443343
0.00426192
0.00409012
0.00391804
0.00374569
0.00357308
0.00340024
0.00322717
0.00305389
0.00288042
0.00270675
0.00253292
0.00235892
0.00218477
0.00201048
0.00183607
0.00166155
0.00148692
0.0013122
0.0011374
0.000962535
0.000787608
0.000612633
0.000437622
0.000262584
8.75296e-05
0.00011237
0.000337104
0.000561817
0.000786494
0.00101112
0.00123568
0.00146017
0.00168456
0.00190884
0.002133
0.00235701
0.00258088
0.00280457
0.00302807
0.00325137
0.00347445
0.00369728
0.00391986
0.00414216
0.00436417
0.00458586
0.00480721
0.0050282
0.00524882
0.00546903
0.00568882
0.00590816
0.00612703
0.0063454
0.00656325
0.00678054
0.00699726
0.00721337
0.00742885
0.00764366
0.00785778
0.00807116
0.00828379
0.00849563
0.00870664
0.00891679
0.00912605
0.00933437
0.00954172
0.00974806
0.00995336
0.0101576
0.0103607
0.0105626
0.0107633
0.0109627
0.0111609
0.0113577
0.0115532
0.0117472
0.0119397
0.0121308
0.0123202
0.0125081
0.0126943
0.0128788
0.0130615
0.0132425
0.0134215
0.0135987
0.013774
0.0139472
0.0141184
0.0142875
0.0144545
0.0146193
0.0147818
0.0149421
0.0151
0.0152555
0.0154087
0.0155593
0.0157074
0.015853
0.0159959
0.0161362
0.0162738
0.0164087
0.0165408
0.0166701
0.0167965
0.01692
0.0170406
0.0171582
0.0172728
0.0173844
0.0174929
0.0175983
0.0177005
0.0177997
0.0178956
0.0179883
0.0180778
0.018164
0.0182469
0.0183265
0.0184028
0.0184758
0.0185454
0.0186116
0.0186745
0.0187339
0.01879
0.0188426
0.0188918
0.0189376
0.01898
0.0190189
0.0190544
0.0190865
0.0191151
0.0191403
0.0191621
0.0191805
0.0191954
0.0192069
0.0192151
0.0192198
0.0192212
0.0192192
0.0192138
0.0192051
0.019193
0.0191777
0.0191591
0.0191371
0.019112
0.0190835
0.0190519
0.0190171
0.018979
0.0189379
0.0188936
0.0188461
0.0187956
0.0187421
0.0186855
0.0186258
0.0185632
0.0184977
0.0184292
0.0183578
0.0182835
0.0182063
0.0181264
0.0180436
0.0179581
0.0178699
0.0177789
0.0176853
0.017589
0.0174902
0.0173887
0.0172847
0.0171782
0.0170691
0.0169577
0.0168438
0.0167275
0.0166089
0.0164879
0.0163647
0.0162391
0.0161114
0.0159815
0.0158494
0.0157152
0.0155789
0.0154406
0.0153002
0.0151579
0.0150136
0.0148674
0.0147193
0.0145694
0.0144176
0.0142641
0.0141088
0.0139519
0.0137932
0.0136329
0.013471
0.0133076
0.0131426
0.0129761
0.0128081
0.0126387
0.0124679
0.0122957
0.0121222
0.0119474
0.0117713
0.011594
0.0114155
0.0112358
0.011055
0.0108731
0.01069
0.010506
0.0103209
0.0101348
0.00994779
0.00975983
0.00957097
0.00938124
0.00919065
0.00899926
0.00880707
0.00861411
0.00842042
0.00822601
0.00803091
0.00783515
0.00763876
0.00744174
0.00724413
0.00704596
0.00684723
0.00664798
0.00644823
0.00624799
0.00604729
0.00584614
0.00564458
0.0054426
0.00524025
0.00503752
0.00483445
0.00463104
0.00442732
0.0042233
0.004019
0.00381443
0.00360962
0.00340457
0.0031993
0.00299383
0.00278816
0.00258232
0.00237632
0.00217017
0.00196389
0.00175749
0.00155097
0.00134437
0.00113768
0.000930923
0.000724109
0.000517252
0.000310364
0.000103457
0.000129677
0.000389024
0.000648346
0.000907628
0.00116685
0.001426
0.00168506
0.00194401
0.00220284
0.00246153
0.00272005
0.0029784
0.00323655
0.00349448
0.00375218
0.00400963
0.0042668
0.00452367
0.00478022
0.00503643
0.00529228
0.00554775
0.0058028
0.00605742
0.00631157
0.00656524
0.00681839
0.007071
0.00732303
0.00757447
0.00782527
0.0080754
0.00832484
0.00857354
0.00882149
0.00906863
0.00931493
0.00956036
0.00980488
0.0100484
0.010291
0.0105326
0.010773
0.0110124
0.0112506
0.0114876
0.0117233
0.0119578
0.0121908
0.0124225
0.0126528
0.0128816
0.0131088
0.0133344
0.0135584
0.0137807
0.0140013
0.01422
0.0144369
0.0146519
0.0148649
0.0150758
0.0152847
0.0154915
0.0156961
0.0158984
0.0160984
0.0162961
0.0164914
0.0166842
0.0168744
0.0170621
0.0172471
0.0174295
0.0176091
0.0177859
0.0179598
0.0181308
0.0182989
0.018464
0.018626
0.0187849
0.0189406
0.0190931
0.0192424
0.0193883
0.019531
0.0196702
0.019806
0.0199383
0.0200672
0.0201924
0.0203141
0.0204322
0.0205466
0.0206574
0.0207644
0.0208677
0.0209673
0.021063
0.0211549
0.021243
0.0213272
0.0214076
0.021484
0.0215566
0.0216252
0.0216899
0.0217507
0.0218075
0.0218603
0.0219092
0.0219542
0.0219951
0.0220321
0.0220652
0.0220942
0.0221193
0.0221405
0.0221577
0.022171
0.0221804
0.0221858
0.0221873
0.022185
0.0221787
0.0221687
0.0221547
0.022137
0.0221154
0.0220901
0.022061
0.0220281
0.0219916
0.0219513
0.0219074
0.0218598
0.0218086
0.0217539
0.0216955
0.0216336
0.0215683
0.0214994
0.0214271
0.0213514
0.0212723
0.0211898
0.021104
0.0210149
0.0209226
0.020827
0.0207283
0.0206264
0.0205214
0.0204132
0.0203021
0.0201879
0.0200707
0.0199507
0.0198276
0.0197018
0.0195731
0.0194416
0.0193073
0.0191703
0.0190307
0.0188884
0.0187435
0.018596
0.018446
0.0182935
0.0181386
0.0179812
0.0178215
0.0176595
0.0174951
0.0173285
0.0171598
0.0169888
0.0168157
0.0166405
0.0164633
0.016284
0.0161028
0.0159197
0.0157346
0.0155477
0.015359
0.0151686
0.0149763
0.0147824
0.0145869
0.0143897
0.014191
0.0139907
0.0137889
0.0135857
0.013381
0.0131749
0.0129675
0.0127588
0.0125487
0.0123375
0.012125
0.0119114
0.0116966
0.0114807
0.0112638
0.0110458
0.0108268
0.0106068
0.0103859
0.0101641
0.00994135
0.00971779
0.0094934
0.00926823
0.00904229
0.00881561
0.00858822
0.00836015
0.00813143
0.00790207
0.00767211
0.00744157
0.00721047
0.00697883
0.00674669
0.00651406
0.00628097
0.00604743
0.00581347
0.0055791
0.00534436
0.00510925
0.0048738
0.00463802
0.00440194
0.00416558
0.00392894
0.00369205
0.00345493
0.00321759
0.00298004
0.00274231
0.00250441
0.00226635
0.00202816
0.00178984
0.00155141
0.00131289
0.00107429
0.000835628
0.000596913
0.000358162
0.00011939
0.000146993
0.000440969
0.000734917
0.00102882
0.00132266
0.00161641
0.00191006
0.0022036
0.00249699
0.00279022
0.00308327
0.00337612
0.00366875
0.00396113
0.00425325
0.00454508
0.0048366
0.00512779
0.00541862
0.00570906
0.0059991
0.0062887
0.00657783
0.00686648
0.0071546
0.00744217
0.00772916
0.00801554
0.00830127
0.00858632
0.00887065
0.00915424
0.00943703
0.00971901
0.0100001
0.0102803
0.0105596
0.0108378
0.0111151
0.0113912
0.0116663
0.0119402
0.0122128
0.0124842
0.0127543
0.013023
0.0132904
0.0135562
0.0138205
0.0140833
0.0143444
0.0146038
0.0148615
0.0151173
0.0153714
0.0156234
0.0158736
0.0161216
0.0163676
0.0166114
0.016853
0.0170922
0.0173292
0.0175637
0.0177957
0.0180252
0.018252
0.0184762
0.0186977
0.0189164
0.0191321
0.019345
0.0195549
0.0197617
0.0199654
0.0201659
0.0203632
0.0205572
0.0207479
0.0209351
0.0211188
0.0212991
0.0214757
0.0216487
0.021818
0.0219836
0.0221453
0.0223032
0.0224573
0.0226074
0.0227535
0.0228956
0.0230336
0.0231675
0.0232973
0.0234229
0.0235443
0.0236615
0.0237743
0.0238829
0.0239871
0.024087
0.0241825
0.0242737
0.0243604
0.0244426
0.0245205
0.0245938
0.0246627
0.0247271
0.024787
0.0248424
0.0248934
0.0249398
0.0249817
0.0250191
0.0250521
0.0250805
0.0251045
0.025124
0.025139
0.0251496
0.0251557
0.0251574
0.0251547
0.0251476
0.0251361
0.0251202
0.0251001
0.0250756
0.0250468
0.0250137
0.0249764
0.0249349
0.0248892
0.0248394
0.0247854
0.0247273
0.0246651
0.0245989
0.0245287
0.0244545
0.0243764
0.0242944
0.0242084
0.0241187
0.0240251
0.0239278
0.0238267
0.023722
0.0236136
0.0235016
0.023386
0.0232669
0.0231442
0.0230181
0.0228886
0.0227557
0.0226195
0.02248
0.0223372
0.0221913
0.0220421
0.0218898
0.0217345
0.0215761
0.0214147
0.0212503
0.0210831
0.020913
0.02074
0.0205643
0.0203859
0.0202047
0.020021
0.0198346
0.0196457
0.0194543
0.0192604
0.0190641
0.0188654
0.0186644
0.0184612
0.0182557
0.018048
0.0178382
0.0176262
0.0174123
0.0171963
0.0169783
0.0167584
0.0165367
0.0163131
0.0160878
0.0158607
0.0156318
0.0154014
0.0151693
0.0149357
0.0147005
0.0144638
0.0142257
0.0139861
0.0137452
0.013503
0.0132595
0.0130147
0.0127688
0.0125216
0.0122733
0.0120239
0.0117734
0.0115219
0.0112694
0.011016
0.0107616
0.0105063
0.0102502
0.00999317
0.00973538
0.00947683
0.00921753
0.00895751
0.00869682
0.00843546
0.00817348
0.00791089
0.00764773
0.00738401
0.00711977
0.00685503
0.00658981
0.00632414
0.00605804
0.00579152
0.00552462
0.00525735
0.00498974
0.00472181
0.00445356
0.00418504
0.00391625
0.00364721
0.00337794
0.00310847
0.0028388
0.00256896
0.00229896
0.00202882
0.00175856
0.00148819
0.00121773
0.000947198
0.00067661
0.000405982
0.00013533
0.000164317
0.00049294
0.000821533
0.00115008
0.00147855
0.00180692
0.00213519
0.00246332
0.00279129
0.00311909
0.00344669
0.00377406
0.00410119
0.00442804
0.00475461
0.00508085
0.00540675
0.00573227
0.0060574
0.0063821
0.00670635
0.00703011
0.00735336
0.00767606
0.00799818
0.00831969
0.00864055
0.00896072
0.00928018
0.00959889
0.00991679
0.0102339
0.0105501
0.0108653
0.0111796
0.011493
0.0118052
0.0121164
0.0124264
0.0127352
0.0130427
0.013349
0.0136539
0.0139574
0.0142594
0.0145599
0.0148589
0.0151562
0.0154518
0.0157456
0.0160376
0.0163277
0.0166159
0.0169021
0.0171862
0.0174682
0.0177479
0.0180254
0.0183005
0.0185731
0.0188433
0.019111
0.019376
0.0196383
0.0198978
0.0201545
0.0204083
0.0206591
0.0209068
0.0211514
0.0213928
0.0216309
0.0218657
0.0220971
0.0223249
0.0225493
0.02277
0.022987
0.0232002
0.0234097
0.0236152
0.0238168
0.0240144
0.024208
0.0243974
0.0245826
0.0247635
0.0249402
0.0251125
0.0252804
0.0254438
0.0256028
0.0257572
0.025907
0.0260522
0.0261927
0.0263284
0.0264595
0.0265857
0.0267071
0.0268237
0.0269355
0.0270423
0.0271442
0.0272411
0.0273331
0.0274201
0.0275022
0.0275792
0.0276512
0.0277182
0.0277801
0.0278371
0.027889
0.0279358
0.0279776
0.0280144
0.0280462
0.0280729
0.0280947
0.0281114
0.0281232
0.02813
0.0281318
0.0281288
0.0281208
0.0281079
0.0280901
0.0280675
0.02804
0.0280078
0.0279707
0.027929
0.0278825
0.0278313
0.0277755
0.0277151
0.02765
0.0275805
0.0275064
0.0274278
0.0273447
0.0272573
0.0271655
0.0270694
0.0269689
0.0268642
0.0267553
0.0266423
0.0265251
0.0264038
0.0262785
0.0261491
0.0260159
0.0258787
0.0257376
0.0255927
0.0254441
0.0252917
0.0251356
0.0249759
0.0248126
0.0246458
0.0244754
0.0243017
0.0241245
0.023944
0.0237601
0.023573
0.0233828
0.0231893
0.0229928
0.0227932
0.0225906
0.0223851
0.0221766
0.0219654
0.0217513
0.0215344
0.0213149
0.0210927
0.0208679
0.0206406
0.0204107
0.0201785
0.0199438
0.0197068
0.0194675
0.0192259
0.0189822
0.0187363
0.0184883
0.0182383
0.0179863
0.0177323
0.0174764
0.0172187
0.0169592
0.0166979
0.0164349
0.0161703
0.015904
0.0156362
0.0153668
0.0150959
0.0148236
0.01455
0.0142749
0.0139986
0.0137209
0.0134421
0.013162
0.0128808
0.0125985
0.0123151
0.0120307
0.0117452
0.0114589
0.0111715
0.0108833
0.0105942
0.0103043
0.0100136
0.00972218
0.00942998
0.00913709
0.00884352
0.00854931
0.00825449
0.00795908
0.00766311
0.00736661
0.00706961
0.00677212
0.00647418
0.00617581
0.00587703
0.00557786
0.00527834
0.00497847
0.00467829
0.00437781
0.00407706
0.00377606
0.00347482
0.00317336
0.00287172
0.00256989
0.00226792
0.0019658
0.00166357
0.00136124
0.00105882
0.000756348
0.000453827
0.000151279
0.000181651
0.000544943
0.000908201
0.0012714
0.00163453
0.00199755
0.00236045
0.0027232
0.00308578
0.00344816
0.00381033
0.00417225
0.0045339
0.00489525
0.00525628
0.00561696
0.00597726
0.00633716
0.00669661
0.0070556
0.00741409
0.00777204
0.00812943
0.00848622
0.00884237
0.00919785
0.00955261
0.00990663
0.0102599
0.0106122
0.0109638
0.0113144
0.011664
0.0120126
0.0123602
0.0127066
0.0130519
0.013396
0.0137388
0.0140803
0.0144205
0.0147592
0.0150964
0.015432
0.015766
0.0160984
0.016429
0.0167578
0.0170848
0.0174098
0.0177327
0.0180537
0.0183724
0.018689
0.0190032
0.0193151
0.0196245
0.0199314
0.0202358
0.0205374
0.0208363
0.0211324
0.0214255
0.0217157
0.0220028
0.0222868
0.0225676
0.022845
0.0231191
0.0233897
0.0236567
0.0239202
0.0241799
0.0244359
0.024688
0.0249362
0.0251804
0.0254205
0.0256564
0.0258881
0.0261156
0.0263386
0.0265572
0.0267714
0.0269809
0.0271858
0.027386
0.0275815
0.0277721
0.0279579
0.0281387
0.0283145
0.0284854
0.0286511
0.0288117
0.0289671
0.0291173
0.0292623
0.0294019
0.0295362
0.0296652
0.0297888
0.0299069
0.0300196
0.0301269
0.0302286
0.0303248
0.0304155
0.0305007
0.0305803
0.0306544
0.0307229
0.0307858
0.0308431
0.0308949
0.0309411
0.0309818
0.0310169
0.0310464
0.0310704
0.0310889
0.0311018
0.0311093
0.0311112
0.0311078
0.0310988
0.0310845
0.0310648
0.0310397
0.0310093
0.0309735
0.0309325
0.0308862
0.0308347
0.0307781
0.0307163
0.0306493
0.0305773
0.0305003
0.0304183
0.0303313
0.0302394
0.0301426
0.030041
0.0299346
0.0298234
0.0297076
0.029587
0.0294619
0.0293322
0.029198
0.0290593
0.0289162
0.0287688
0.028617
0.0284609
0.0283006
0.0281361
0.0279675
0.0277949
0.0276182
0.0274375
0.0272529
0.0270645
0.0268722
0.0266762
0.0264765
0.0262732
0.0260662
0.0258557
0.0256417
0.0254243
0.0252036
0.0249795
0.0247521
0.0245215
0.0242878
0.024051
0.0238111
0.0235683
0.0233225
0.0230739
0.0228225
0.0225682
0.0223113
0.0220518
0.0217896
0.021525
0.0212578
0.0209882
0.0207163
0.020442
0.0201655
0.0198868
0.0196059
0.0193229
0.0190379
0.0187509
0.0184619