/*--------------------------------*- C++ -*----------------------------------*\
| =========                 |                                                 |
| \\      /  F ield         | OpenFOAM: The Open Source CFD Toolbox           |
|  \\    /   O peration     | Version:  v2012                                 |
|   \\  /    A nd           | Website:  www.openfoam.com                      |
|    \\/     M anipulation  |                                                 |
\*---------------------------------------------------------------------------*/
FoamFile
{
    version     2.0;
    format      ascii;
    class       volVectorField;
    location    "2";
    object      U;
}
// * * * * * * * * * * * * * * * * * * * * * * * * * * * * * * * * * * * * * //

dimensions      [0 1 -1 0 0 0 0];


internalField   nonuniform List<vector> 
65536
(
(0.00070428 -0.000704258 0)
(0.00211279 -0.000704212 0)
(0.00352117 -0.000704122 0)
(0.00492933 -0.000703985 0)
(0.00633716 -0.000703803 0)
(0.00774458 -0.000703575 0)
(0.00915151 -0.0007033 0)
(0.0105578 -0.000702978 0)
(0.0119635 -0.000702607 0)
(0.0133683 -0.000702188 0)
(0.0147723 -0.000701719 0)
(0.0161752 -0.000701199 0)
(0.0175771 -0.000700627 0)
(0.0189778 -0.000700002 0)
(0.0203772 -0.000699323 0)
(0.0217751 -0.000698588 0)
(0.0231716 -0.000697796 0)
(0.0245664 -0.000696946 0)
(0.0259594 -0.000696035 0)
(0.0273506 -0.000695062 0)
(0.0287397 -0.000694025 0)
(0.0301267 -0.000692923 0)
(0.0315115 -0.000691754 0)
(0.0328938 -0.000690515 0)
(0.0342736 -0.000689204 0)
(0.0356507 -0.00068782 0)
(0.037025 -0.000686359 0)
(0.0383962 -0.000684821 0)
(0.0397643 -0.000683203 0)
(0.0411291 -0.000681502 0)
(0.0424904 -0.000679715 0)
(0.0438481 -0.000677842 0)
(0.0452019 -0.000675878 0)
(0.0465517 -0.000673823 0)
(0.0478973 -0.000671672 0)
(0.0492385 -0.000669424 0)
(0.0505751 -0.000667077 0)
(0.0519069 -0.000664627 0)
(0.0532337 -0.000662072 0)
(0.0545553 -0.000659409 0)
(0.0558714 -0.000656637 0)
(0.0571819 -0.000653753 0)
(0.0584865 -0.000650753 0)
(0.059785 -0.000647636 0)
(0.0610772 -0.0006444 0)
(0.0623628 -0.000641041 0)
(0.0636415 -0.000637558 0)
(0.0649131 -0.000633949 0)
(0.0661774 -0.00063021 0)
(0.0674341 -0.000626341 0)
(0.0686829 -0.000622338 0)
(0.0699236 -0.0006182 0)
(0.0711558 -0.000613925 0)
(0.0723794 -0.000609512 0)
(0.073594 -0.000604958 0)
(0.0747994 -0.000600262 0)
(0.0759952 -0.000595422 0)
(0.0771812 -0.000590437 0)
(0.0783571 -0.000585306 0)
(0.0795226 -0.000580028 0)
(0.0806774 -0.000574602 0)
(0.0818212 -0.000569026 0)
(0.0829536 -0.0005633 0)
(0.0840745 -0.000557424 0)
(0.0851835 -0.000551397 0)
(0.0862802 -0.000545219 0)
(0.0873645 -0.000538889 0)
(0.088436 -0.000532409 0)
(0.0894943 -0.000525778 0)
(0.0905392 -0.000518996 0)
(0.0915704 -0.000512064 0)
(0.0925876 -0.000504983 0)
(0.0935905 -0.000497754 0)
(0.0945788 -0.000490378 0)
(0.0955522 -0.000482856 0)
(0.0965104 -0.00047519 0)
(0.0974531 -0.000467381 0)
(0.09838 -0.000459431 0)
(0.0992909 -0.000451342 0)
(0.100186 -0.000443116 0)
(0.101064 -0.000434756 0)
(0.101925 -0.000426264 0)
(0.102769 -0.000417642 0)
(0.103595 -0.000408894 0)
(0.104404 -0.000400022 0)
(0.105196 -0.00039103 0)
(0.105969 -0.00038192 0)
(0.106723 -0.000372696 0)
(0.10746 -0.000363362 0)
(0.108177 -0.000353921 0)
(0.108875 -0.000344377 0)
(0.109555 -0.000334734 0)
(0.110214 -0.000324995 0)
(0.110855 -0.000315166 0)
(0.111475 -0.000305249 0)
(0.112076 -0.000295249 0)
(0.112656 -0.00028517 0)
(0.113216 -0.000275017 0)
(0.113756 -0.000264795 0)
(0.114276 -0.000254507 0)
(0.114774 -0.000244157 0)
(0.115252 -0.000233752 0)
(0.115709 -0.000223294 0)
(0.116146 -0.000212789 0)
(0.116561 -0.000202241 0)
(0.116955 -0.000191654 0)
(0.117327 -0.000181034 0)
(0.117679 -0.000170384 0)
(0.118009 -0.000159709 0)
(0.118318 -0.000149014 0)
(0.118605 -0.000138302 0)
(0.118871 -0.000127579 0)
(0.119115 -0.000116848 0)
(0.119338 -0.000106113 0)
(0.11954 -9.53798e-05 0)
(0.11972 -8.4651e-05 0)
(0.119878 -7.3931e-05 0)
(0.120015 -6.32238e-05 0)
(0.120131 -5.25331e-05 0)
(0.120226 -4.18627e-05 0)
(0.120299 -3.12162e-05 0)
(0.12035 -2.05972e-05 0)
(0.120381 -1.0009e-05 0)
(0.12039 5.44842e-07 0)
(0.120379 1.10612e-05 0)
(0.120346 2.15369e-05 0)
(0.120293 3.19689e-05 0)
(0.120218 4.23542e-05 0)
(0.120123 5.269e-05 0)
(0.120007 6.29735e-05 0)
(0.119871 7.32021e-05 0)
(0.119715 8.33733e-05 0)
(0.119538 9.34845e-05 0)
(0.119341 0.000103533 0)
(0.119123 0.000113518 0)
(0.118886 0.000123435 0)
(0.11863 0.000133284 0)
(0.118353 0.000143062 0)
(0.118057 0.000152767 0)
(0.117742 0.000162397 0)
(0.117408 0.000171951 0)
(0.117054 0.000181427 0)
(0.116682 0.000190823 0)
(0.116291 0.000200138 0)
(0.115881 0.00020937 0)
(0.115453 0.000218518 0)
(0.115007 0.00022758 0)
(0.114543 0.000236555 0)
(0.114061 0.000245442 0)
(0.113561 0.000254239 0)
(0.113044 0.000262946 0)
(0.112509 0.000271561 0)
(0.111957 0.000280083 0)
(0.111389 0.000288511 0)
(0.110803 0.000296845 0)
(0.110201 0.000305083 0)
(0.109583 0.000313224 0)
(0.108948 0.000321267 0)
(0.108298 0.000329212 0)
(0.107631 0.000337057 0)
(0.106949 0.000344803 0)
(0.106252 0.000352447 0)
(0.105539 0.00035999 0)
(0.104812 0.000367431 0)
(0.10407 0.000374769 0)
(0.103313 0.000382004 0)
(0.102542 0.000389134 0)
(0.101756 0.00039616 0)
(0.100957 0.00040308 0)
(0.100144 0.000409896 0)
(0.0993171 0.000416604 0)
(0.0984772 0.000423207 0)
(0.0976241 0.000429703 0)
(0.0967582 0.000436091 0)
(0.0958797 0.000442372 0)
(0.0949886 0.000448545 0)
(0.0940854 0.000454611 0)
(0.0931701 0.000460568 0)
(0.092243 0.000466417 0)
(0.0913043 0.000472158 0)
(0.0903543 0.000477791 0)
(0.089393 0.000483316 0)
(0.0884209 0.000488732 0)
(0.087438 0.00049404 0)
(0.0864446 0.000499241 0)
(0.0854409 0.000504333 0)
(0.0844272 0.000509319 0)
(0.0834036 0.000514197 0)
(0.0823703 0.000518969 0)
(0.0813276 0.000523634 0)
(0.0802756 0.000528194 0)
(0.0792147 0.000532648 0)
(0.0781449 0.000536998 0)
(0.0770666 0.000541244 0)
(0.0759799 0.000545386 0)
(0.074885 0.000549426 0)
(0.0737821 0.000553365 0)
(0.0726714 0.000557202 0)
(0.0715532 0.000560939 0)
(0.0704275 0.000564577 0)
(0.0692947 0.000568117 0)
(0.068155 0.00057156 0)
(0.0670084 0.000574907 0)
(0.0658553 0.000578159 0)
(0.0646957 0.000581317 0)
(0.0635299 0.000584382 0)
(0.0623581 0.000587356 0)
(0.0611804 0.00059024 0)
(0.059997 0.000593035 0)
(0.0588081 0.000595742 0)
(0.057614 0.000598363 0)
(0.0564146 0.000600899 0)
(0.0552103 0.000603352 0)
(0.0540011 0.000605722 0)
(0.0527873 0.000608012 0)
(0.051569 0.000610222 0)
(0.0503463 0.000612355 0)
(0.0491195 0.00061441 0)
(0.0478886 0.000616391 0)
(0.0466539 0.000618299 0)
(0.0454153 0.000620134 0)
(0.0441732 0.000621898 0)
(0.0429277 0.000623593 0)
(0.0416788 0.00062522 0)
(0.0404267 0.000626781 0)
(0.0391716 0.000628276 0)
(0.0379136 0.000629708 0)
(0.0366527 0.000631078 0)
(0.0353892 0.000632387 0)
(0.0341231 0.000633636 0)
(0.0328546 0.000634826 0)
(0.0315838 0.00063596 0)
(0.0303107 0.000637038 0)
(0.0290355 0.000638061 0)
(0.0277584 0.000639031 0)
(0.0264794 0.000639948 0)
(0.0251986 0.000640814 0)
(0.0239161 0.00064163 0)
(0.022632 0.000642397 0)
(0.0213464 0.000643116 0)
(0.0200595 0.000643787 0)
(0.0187712 0.000644412 0)
(0.0174818 0.000644992 0)
(0.0161912 0.000645527 0)
(0.0148996 0.000646017 0)
(0.0136071 0.000646465 0)
(0.0123137 0.00064687 0)
(0.0110196 0.000647232 0)
(0.00972475 0.000647553 0)
(0.00842932 0.000647833 0)
(0.00713338 0.000648072 0)
(0.00583699 0.000648271 0)
(0.00454025 0.000648429 0)
(0.00324323 0.000648548 0)
(0.00194602 0.000648627 0)
(0.000648686 0.000648666 0)
(0.000704325 -0.00211282 0)
(0.00211293 -0.00211268 0)
(0.0035214 -0.00211241 0)
(0.00492964 -0.002112 0)
(0.00633757 -0.00211146 0)
(0.00774508 -0.00211077 0)
(0.0091521 -0.00210995 0)
(0.0105585 -0.00210898 0)
(0.0119642 -0.00210787 0)
(0.0133692 -0.00210661 0)
(0.0147732 -0.00210521 0)
(0.0161763 -0.00210365 0)
(0.0175783 -0.00210193 0)
(0.0189791 -0.00210006 0)
(0.0203786 -0.00209802 0)
(0.0217767 -0.00209582 0)
(0.0231732 -0.00209345 0)
(0.0245681 -0.0020909 0)
(0.0259613 -0.00208817 0)
(0.0273526 -0.00208525 0)
(0.0287419 -0.00208214 0)
(0.030129 -0.00207884 0)
(0.0315139 -0.00207533 0)
(0.0328964 -0.00207161 0)
(0.0342763 -0.00206768 0)
(0.0356535 -0.00206353 0)
(0.037028 -0.00205915 0)
(0.0383994 -0.00205454 0)
(0.0397676 -0.00204969 0)
(0.0411326 -0.00204459 0)
(0.0424941 -0.00203923 0)
(0.0438519 -0.00203361 0)
(0.0452059 -0.00202773 0)
(0.0465559 -0.00202156 0)
(0.0479016 -0.00201511 0)
(0.049243 -0.00200837 0)
(0.0505798 -0.00200133 0)
(0.0519118 -0.00199398 0)
(0.0532389 -0.00198632 0)
(0.0545607 -0.00197834 0)
(0.055877 -0.00197002 0)
(0.0571878 -0.00196137 0)
(0.0584926 -0.00195238 0)
(0.0597914 -0.00194303 0)
(0.0610838 -0.00193332 0)
(0.0623696 -0.00192325 0)
(0.0636486 -0.0019128 0)
(0.0649204 -0.00190197 0)
(0.066185 -0.00189076 0)
(0.0674419 -0.00187915 0)
(0.068691 -0.00186715 0)
(0.069932 -0.00185474 0)
(0.0711645 -0.00184191 0)
(0.0723884 -0.00182868 0)
(0.0736033 -0.00181501 0)
(0.0748089 -0.00180093 0)
(0.076005 -0.00178641 0)
(0.0771913 -0.00177146 0)
(0.0783675 -0.00175607 0)
(0.0795333 -0.00174023 0)
(0.0806883 -0.00172395 0)
(0.0818324 -0.00170723 0)
(0.0829652 -0.00169005 0)
(0.0840864 -0.00167242 0)
(0.0851956 -0.00165434 0)
(0.0862927 -0.00163581 0)
(0.0873773 -0.00161682 0)
(0.088449 -0.00159738 0)
(0.0895077 -0.00157748 0)
(0.0905529 -0.00155714 0)
(0.0915844 -0.00153634 0)
(0.0926019 -0.0015151 0)
(0.0936051 -0.00149341 0)
(0.0945936 -0.00147128 0)
(0.0955673 -0.00144871 0)
(0.0965258 -0.00142571 0)
(0.0974688 -0.00140228 0)
(0.098396 -0.00137843 0)
(0.0993072 -0.00135416 0)
(0.100202 -0.00132948 0)
(0.10108 -0.0013044 0)
(0.101942 -0.00127892 0)
(0.102786 -0.00125305 0)
(0.103613 -0.00122681 0)
(0.104422 -0.00120019 0)
(0.105214 -0.00117321 0)
(0.105987 -0.00114587 0)
(0.106742 -0.0011182 0)
(0.107478 -0.00109019 0)
(0.108196 -0.00106187 0)
(0.108894 -0.00103323 0)
(0.109574 -0.0010043 0)
(0.110234 -0.000975078 0)
(0.110874 -0.000945585 0)
(0.111495 -0.00091583 0)
(0.112096 -0.000885826 0)
(0.112676 -0.000855586 0)
(0.113237 -0.000825123 0)
(0.113777 -0.000794451 0)
(0.114296 -0.000763581 0)
(0.114795 -0.000732529 0)
(0.115273 -0.000701308 0)
(0.11573 -0.00066993 0)
(0.116167 -0.00063841 0)
(0.116582 -0.000606761 0)
(0.116976 -0.000574997 0)
(0.117349 -0.000543132 0)
(0.1177 -0.000511178 0)
(0.11803 -0.000479149 0)
(0.118339 -0.000447058 0)
(0.118626 -0.000414919 0)
(0.118892 -0.000382745 0)
(0.119137 -0.000350548 0)
(0.11936 -0.000318341 0)
(0.119561 -0.000286136 0)
(0.119741 -0.000253946 0)
(0.1199 -0.000221782 0)
(0.120037 -0.000189656 0)
(0.120153 -0.000157581 0)
(0.120247 -0.000125566 0)
(0.12032 -9.36227e-05 0)
(0.120372 -6.17622e-05 0)
(0.120402 -2.99944e-05 0)
(0.120411 1.67042e-06 0)
(0.1204 3.32226e-05 0)
(0.120367 6.46528e-05 0)
(0.120313 9.59517e-05 0)
(0.120239 0.00012711 0)
(0.120144 0.000158121 0)
(0.120028 0.000188974 0)
(0.119892 0.000219662 0)
(0.119735 0.000250178 0)
(0.119558 0.000280514 0)
(0.119361 0.000310663 0)
(0.119143 0.000340618 0)
(0.118906 0.000370373 0)
(0.118649 0.000399921 0)
(0.118373 0.000429256 0)
(0.118077 0.000458373 0)
(0.117761 0.000487266 0)
(0.117427 0.00051593 0)
(0.117073 0.000544359 0)
(0.116701 0.000572549 0)
(0.116309 0.000600495 0)
(0.1159 0.000628192 0)
(0.115471 0.000655637 0)
(0.115025 0.000682824 0)
(0.114561 0.000709751 0)
(0.114078 0.000736413 0)
(0.113579 0.000762806 0)
(0.113061 0.000788928 0)
(0.112526 0.000814774 0)
(0.111974 0.000840342 0)
(0.111405 0.000865628 0)
(0.11082 0.000890629 0)
(0.110218 0.000915343 0)
(0.109599 0.000939767 0)
(0.108964 0.000963898 0)
(0.108313 0.000987733 0)
(0.107647 0.00101127 0)
(0.106965 0.00103451 0)
(0.106267 0.00105744 0)
(0.105554 0.00108007 0)
(0.104827 0.0011024 0)
(0.104084 0.00112441 0)
(0.103327 0.00114611 0)
(0.102556 0.00116751 0)
(0.10177 0.00118858 0)
(0.100971 0.00120935 0)
(0.100157 0.00122979 0)
(0.0993304 0.00124992 0)
(0.0984903 0.00126973 0)
(0.097637 0.00128921 0)
(0.0967709 0.00130838 0)
(0.0958921 0.00132722 0)
(0.0950009 0.00134574 0)
(0.0940974 0.00136394 0)
(0.0931819 0.00138181 0)
(0.0922546 0.00139936 0)
(0.0913157 0.00141658 0)
(0.0903654 0.00143348 0)
(0.089404 0.00145005 0)
(0.0884316 0.0014663 0)
(0.0874485 0.00148223 0)
(0.0864549 0.00149783 0)
(0.085451 0.00151311 0)
(0.0844371 0.00152806 0)
(0.0834132 0.0015427 0)
(0.0823797 0.00155701 0)
(0.0813368 0.00157101 0)
(0.0802847 0.00158469 0)
(0.0792235 0.00159805 0)
(0.0781536 0.0016111 0)
(0.077075 0.00162383 0)
(0.0759881 0.00163626 0)
(0.074893 0.00164838 0)
(0.0737899 0.00166019 0)
(0.072679 0.00167171 0)
(0.0715606 0.00168292 0)
(0.0704347 0.00169383 0)
(0.0693018 0.00170445 0)
(0.0681618 0.00171478 0)
(0.067015 0.00172482 0)
(0.0658617 0.00173457 0)
(0.0647019 0.00174404 0)
(0.0635359 0.00175324 0)
(0.0623639 0.00176216 0)
(0.0611861 0.00177081 0)
(0.0600025 0.00177919 0)
(0.0588135 0.00178731 0)
(0.0576191 0.00179518 0)
(0.0564196 0.00180278 0)
(0.0552151 0.00181014 0)
(0.0540058 0.00181725 0)
(0.0527918 0.00182412 0)
(0.0515733 0.00183075 0)
(0.0503505 0.00183714 0)
(0.0491235 0.00184331 0)
(0.0478925 0.00184925 0)
(0.0466576 0.00185497 0)
(0.045419 0.00186047 0)
(0.0441767 0.00186576 0)
(0.042931 0.00187085 0)
(0.041682 0.00187573 0)
(0.0404298 0.00188041 0)
(0.0391746 0.00188489 0)
(0.0379164 0.00188919 0)
(0.0366554 0.0018933 0)
(0.0353918 0.00189722 0)
(0.0341256 0.00190097 0)
(0.0328569 0.00190454 0)
(0.031586 0.00190794 0)
(0.0303128 0.00191117 0)
(0.0290375 0.00191424 0)
(0.0277603 0.00191715 0)
(0.0264812 0.0019199 0)
(0.0252002 0.00192249 0)
(0.0239177 0.00192494 0)
(0.0226335 0.00192724 0)
(0.0213478 0.0019294 0)
(0.0200608 0.00193141 0)
(0.0187724 0.00193328 0)
(0.0174829 0.00193502 0)
(0.0161922 0.00193663 0)
(0.0149006 0.0019381 0)
(0.013608 0.00193944 0)
(0.0123145 0.00194065 0)
(0.0110203 0.00194174 0)
(0.00972535 0.0019427 0)
(0.00842984 0.00194354 0)
(0.00713382 0.00194426 0)
(0.00583735 0.00194485 0)
(0.00454053 0.00194533 0)
(0.00324343 0.00194568 0)
(0.00194614 0.00194592 0)
(0.000648726 0.00194604 0)
(0.000704415 -0.00352151 0)
(0.0021132 -0.00352129 0)
(0.00352185 -0.00352083 0)
(0.00493028 -0.00352015 0)
(0.00633839 -0.00351925 0)
(0.00774609 -0.00351811 0)
(0.00915329 -0.00351674 0)
(0.0105599 -0.00351513 0)
(0.0119658 -0.00351328 0)
(0.013371 -0.00351119 0)
(0.0147752 -0.00350885 0)
(0.0161785 -0.00350625 0)
(0.0175807 -0.0035034 0)
(0.0189817 -0.00350028 0)
(0.0203814 -0.00349689 0)
(0.0217797 -0.00349322 0)
(0.0231765 -0.00348927 0)
(0.0245717 -0.00348503 0)
(0.0259651 -0.00348048 0)
(0.0273566 -0.00347563 0)
(0.0287461 -0.00347045 0)
(0.0301335 -0.00346495 0)
(0.0315187 -0.00345911 0)
(0.0329015 -0.00345293 0)
(0.0342817 -0.00344638 0)
(0.0356592 -0.00343947 0)
(0.0370339 -0.00343218 0)
(0.0384057 -0.00342451 0)
(0.0397743 -0.00341642 0)
(0.0411396 -0.00340793 0)
(0.0425014 -0.00339901 0)
(0.0438596 -0.00338966 0)
(0.0452139 -0.00337985 0)
(0.0465643 -0.00336958 0)
(0.0479104 -0.00335884 0)
(0.0492522 -0.00334762 0)
(0.0505894 -0.00333589 0)
(0.0519219 -0.00332365 0)
(0.0532493 -0.00331089 0)
(0.0545715 -0.00329759 0)
(0.0558884 -0.00328375 0)
(0.0571995 -0.00326933 0)
(0.0585049 -0.00325435 0)
(0.0598041 -0.00323878 0)
(0.061097 -0.00322261 0)
(0.0623833 -0.00320583 0)
(0.0636627 -0.00318842 0)
(0.0649351 -0.00317039 0)
(0.0662002 -0.0031517 0)
(0.0674577 -0.00313237 0)
(0.0687073 -0.00311236 0)
(0.0699488 -0.00309168 0)
(0.0711819 -0.00307032 0)
(0.0724063 -0.00304826 0)
(0.0736218 -0.0030255 0)
(0.074828 -0.00300203 0)
(0.0760247 -0.00297783 0)
(0.0772115 -0.00295292 0)
(0.0783883 -0.00292727 0)
(0.0795547 -0.00290088 0)
(0.0807104 -0.00287375 0)
(0.081855 -0.00284588 0)
(0.0829884 -0.00281725 0)
(0.0841102 -0.00278787 0)
(0.0852201 -0.00275774 0)
(0.0863177 -0.00272685 0)
(0.0874029 -0.0026952 0)
(0.0884753 -0.0026628 0)
(0.0895345 -0.00262964 0)
(0.0905803 -0.00259573 0)
(0.0916124 -0.00256107 0)
(0.0926305 -0.00252566 0)
(0.0936343 -0.00248951 0)
(0.0946235 -0.00245262 0)
(0.0955977 -0.002415 0)
(0.0965568 -0.00237666 0)
(0.0975003 -0.00233761 0)
(0.0984281 -0.00229785 0)
(0.0993399 -0.0022574 0)
(0.100235 -0.00221625 0)
(0.101114 -0.00217444 0)
(0.101976 -0.00213197 0)
(0.102821 -0.00208885 0)
(0.103648 -0.00204509 0)
(0.104458 -0.00200072 0)
(0.10525 -0.00195574 0)
(0.106024 -0.00191017 0)
(0.106779 -0.00186404 0)
(0.107516 -0.00181735 0)
(0.108234 -0.00177012 0)
(0.108933 -0.00172238 0)
(0.109613 -0.00167415 0)
(0.110273 -0.00162543 0)
(0.110914 -0.00157627 0)
(0.111535 -0.00152666 0)
(0.112136 -0.00147664 0)
(0.112717 -0.00142622 0)
(0.113278 -0.00137544 0)
(0.113818 -0.0013243 0)
(0.114338 -0.00127284 0)
(0.114837 -0.00122107 0)
(0.115315 -0.00116902 0)
(0.115772 -0.00111671 0)
(0.116209 -0.00106416 0)
(0.116624 -0.0010114 0)
(0.117018 -0.000958442 0)
(0.117391 -0.000905318 0)
(0.117743 -0.000852046 0)
(0.118073 -0.00079865 0)
(0.118382 -0.000745152 0)
(0.118669 -0.000691572 0)
(0.118935 -0.000637934 0)
(0.11918 -0.000584258 0)
(0.119403 -0.000530566 0)
(0.119604 -0.000476877 0)
(0.119784 -0.000423214 0)
(0.119943 -0.000369594 0)
(0.12008 -0.000316039 0)
(0.120195 -0.000262567 0)
(0.12029 -0.000209197 0)
(0.120362 -0.000155947 0)
(0.120414 -0.000102834 0)
(0.120444 -4.98769e-05 0)
(0.120454 2.90874e-06 0)
(0.120442 5.55063e-05 0)
(0.120409 0.0001079 0)
(0.120355 0.000160075 0)
(0.12028 0.000212015 0)
(0.120185 0.000263708 0)
(0.120069 0.000315139 0)
(0.119932 0.000366295 0)
(0.119775 0.000417163 0)
(0.119598 0.000467731 0)
(0.119401 0.000517986 0)
(0.119183 0.000567919 0)
(0.118946 0.000617517 0)
(0.118689 0.000666771 0)
(0.118412 0.00071567 0)
(0.118115 0.000764204 0)
(0.1178 0.000812365 0)
(0.117465 0.000860143 0)
(0.117111 0.000907531 0)
(0.116738 0.000954519 0)
(0.116346 0.0010011 0)
(0.115936 0.00104727 0)
(0.115508 0.00109301 0)
(0.115061 0.00113833 0)
(0.114596 0.00118321 0)
(0.114114 0.00122765 0)
(0.113614 0.00127165 0)
(0.113096 0.00131518 0)
(0.112561 0.00135827 0)
(0.112008 0.00140088 0)
(0.111439 0.00144303 0)
(0.110853 0.0014847 0)
(0.11025 0.00152589 0)
(0.109631 0.0015666 0)
(0.108996 0.00160682 0)
(0.108345 0.00164655 0)
(0.107678 0.00168578 0)
(0.106996 0.00172452 0)
(0.106298 0.00176274 0)
(0.105584 0.00180046 0)
(0.104856 0.00183767 0)
(0.104113 0.00187436 0)
(0.103356 0.00191054 0)
(0.102584 0.00194619 0)
(0.101798 0.00198132 0)
(0.100998 0.00201593 0)
(0.100184 0.00205001 0)
(0.099357 0.00208355 0)
(0.0985165 0.00211657 0)
(0.0976628 0.00214905 0)
(0.0967963 0.00218099 0)
(0.095917 0.0022124 0)
(0.0950254 0.00224327 0)
(0.0941215 0.00227359 0)
(0.0932055 0.00230338 0)
(0.0922778 0.00233263 0)
(0.0913385 0.00236133 0)
(0.0903877 0.0023895 0)
(0.0894259 0.00241712 0)
(0.0884531 0.0024442 0)
(0.0874695 0.00247074 0)
(0.0864755 0.00249674 0)
(0.0854712 0.0025222 0)
(0.0844568 0.00254713 0)
(0.0834325 0.00257152 0)
(0.0823986 0.00259537 0)
(0.0813553 0.0026187 0)
(0.0803027 0.00264149 0)
(0.0792411 0.00266376 0)
(0.0781707 0.00268551 0)
(0.0770918 0.00270674 0)
(0.0760044 0.00272744 0)
(0.0749089 0.00274764 0)
(0.0738054 0.00276733 0)
(0.0726941 0.00278651 0)
(0.0715753 0.00280519 0)
(0.0704491 0.00282338 0)
(0.0693157 0.00284107 0)
(0.0681754 0.00285828 0)
(0.0670282 0.00287501 0)
(0.0658745 0.00289126 0)
(0.0647144 0.00290705 0)
(0.063548 0.00292237 0)
(0.0623756 0.00293723 0)
(0.0611974 0.00295165 0)
(0.0600135 0.00296561 0)
(0.0588241 0.00297914 0)
(0.0576294 0.00299224 0)
(0.0564296 0.00300492 0)
(0.0552247 0.00301717 0)
(0.0540151 0.00302902 0)
(0.0528008 0.00304046 0)
(0.051582 0.0030515 0)
(0.0503589 0.00306216 0)
(0.0491316 0.00307243 0)
(0.0479003 0.00308233 0)
(0.0466651 0.00309185 0)
(0.0454262 0.00310102 0)
(0.0441836 0.00310984 0)
(0.0429377 0.00311831 0)
(0.0416884 0.00312643 0)
(0.0404359 0.00313423 0)
(0.0391804 0.0031417 0)
(0.037922 0.00314885 0)
(0.0366608 0.0031557 0)
(0.0353969 0.00316223 0)
(0.0341304 0.00316847 0)
(0.0328616 0.00317442 0)
(0.0315904 0.00318008 0)
(0.030317 0.00318546 0)
(0.0290415 0.00319057 0)
(0.0277641 0.00319542 0)
(0.0264847 0.0032 0)
(0.0252036 0.00320432 0)
(0.0239208 0.0032084 0)
(0.0226364 0.00321223 0)
(0.0213506 0.00321582 0)
(0.0200634 0.00321917 0)
(0.0187748 0.00322229 0)
(0.0174851 0.00322519 0)
(0.0161943 0.00322786 0)
(0.0149024 0.00323031 0)
(0.0136097 0.00323254 0)
(0.012316 0.00323456 0)
(0.0110216 0.00323637 0)
(0.00972655 0.00323797 0)
(0.00843088 0.00323937 0)
(0.00713469 0.00324056 0)
(0.00583806 0.00324156 0)
(0.00454108 0.00324235 0)
(0.00324383 0.00324294 0)
(0.00194637 0.00324333 0)
(0.000648805 0.00324353 0)
(0.000704551 -0.00493043 0)
(0.00211361 -0.00493012 0)
(0.00352253 -0.00492949 0)
(0.00493123 -0.00492854 0)
(0.00633961 -0.00492727 0)
(0.0077476 -0.00492568 0)
(0.00915508 -0.00492376 0)
(0.010562 -0.00492151 0)
(0.0119682 -0.00491893 0)
(0.0133736 -0.00491601 0)
(0.0147782 -0.00491274 0)
(0.0161818 -0.00490911 0)
(0.0175843 -0.00490513 0)
(0.0189856 -0.00490077 0)
(0.0203856 -0.00489604 0)
(0.0217843 -0.00489091 0)
(0.0231814 -0.00488539 0)
(0.0245769 -0.00487946 0)
(0.0259707 -0.00487311 0)
(0.0273626 -0.00486632 0)
(0.0287525 -0.00485909 0)
(0.0301403 -0.0048514 0)
(0.0315259 -0.00484324 0)
(0.0329091 -0.0048346 0)
(0.0342898 -0.00482545 0)
(0.0356677 -0.00481579 0)
(0.0370429 -0.0048056 0)
(0.0384151 -0.00479487 0)
(0.0397842 -0.00478357 0)
(0.04115 -0.0047717 0)
(0.0425123 -0.00475923 0)
(0.0438711 -0.00474615 0)
(0.045226 -0.00473244 0)
(0.0465769 -0.00471808 0)
(0.0479236 -0.00470306 0)
(0.049266 -0.00468736 0)
(0.0506038 -0.00467097 0)
(0.0519369 -0.00465385 0)
(0.0532649 -0.004636 0)
(0.0545878 -0.0046174 0)
(0.0559053 -0.00459803 0)
(0.0572172 -0.00457787 0)
(0.0585232 -0.00455691 0)
(0.0598231 -0.00453513 0)
(0.0611167 -0.00451251 0)
(0.0624038 -0.00448903 0)
(0.063684 -0.00446468 0)
(0.0649572 -0.00443944 0)
(0.066223 -0.0044133 0)
(0.0674813 -0.00438624 0)
(0.0687317 -0.00435825 0)
(0.069974 -0.00432932 0)
(0.0712079 -0.00429942 0)
(0.0724332 -0.00426855 0)
(0.0736495 -0.00423669 0)
(0.0748566 -0.00420384 0)
(0.0760541 -0.00416998 0)
(0.0772419 -0.00413511 0)
(0.0784196 -0.00409921 0)
(0.0795868 -0.00406227 0)
(0.0807434 -0.0040243 0)
(0.081889 -0.00398528 0)
(0.0830232 -0.00394521 0)
(0.0841459 -0.00390408 0)
(0.0852567 -0.00386189 0)
(0.0863553 -0.00381865 0)
(0.0874414 -0.00377434 0)
(0.0885146 -0.00372898 0)
(0.0895748 -0.00368255 0)
(0.0906215 -0.00363507 0)
(0.0916545 -0.00358654 0)
(0.0926735 -0.00353696 0)
(0.0936782 -0.00348634 0)
(0.0946682 -0.00343469 0)
(0.0956433 -0.00338202 0)
(0.0966032 -0.00332833 0)
(0.0975476 -0.00327364 0)
(0.0984763 -0.00321796 0)
(0.0993889 -0.00316131 0)
(0.100285 -0.0031037 0)
(0.101165 -0.00304514 0)
(0.102027 -0.00298566 0)
(0.102873 -0.00292527 0)
(0.103701 -0.00286399 0)
(0.104512 -0.00280185 0)
(0.105304 -0.00273885 0)
(0.106079 -0.00267504 0)
(0.106835 -0.00261042 0)
(0.107572 -0.00254503 0)
(0.108291 -0.0024789 0)
(0.108991 -0.00241203 0)
(0.109671 -0.00234447 0)
(0.110332 -0.00227625 0)
(0.110973 -0.00220738 0)
(0.111595 -0.0021379 0)
(0.112196 -0.00206784 0)
(0.112778 -0.00199723 0)
(0.113339 -0.0019261 0)
(0.113879 -0.00185448 0)
(0.1144 -0.0017824 0)
(0.114899 -0.0017099 0)
(0.115378 -0.00163699 0)
(0.115835 -0.00156372 0)
(0.116272 -0.00149013 0)
(0.116688 -0.00141623 0)
(0.117082 -0.00134206 0)
(0.117455 -0.00126765 0)
(0.117807 -0.00119304 0)
(0.118137 -0.00111825 0)
(0.118446 -0.00104333 0)
(0.118734 -0.000968284 0)
(0.119 -0.00089316 0)
(0.119244 -0.000817984 0)
(0.119467 -0.000742786 0)
(0.119669 -0.000667594 0)
(0.119849 -0.000592437 0)
(0.120007 -0.000517343 0)
(0.120144 -0.000442338 0)
(0.120259 -0.000367451 0)
(0.120354 -0.000292708 0)
(0.120426 -0.000218132 0)
(0.120478 -0.000143751 0)
(0.120508 -6.95871e-05 0)
(0.120517 4.33549e-06 0)
(0.120505 7.79941e-05 0)
(0.120472 0.000151367 0)
(0.120418 0.000224432 0)
(0.120343 0.000297169 0)
(0.120247 0.000369558 0)
(0.120131 0.00044158 0)
(0.119994 0.000513216 0)
(0.119836 0.000584448 0)
(0.119659 0.00065526 0)
(0.119461 0.000725634 0)
(0.119243 0.000795554 0)
(0.119005 0.000865007 0)
(0.118747 0.000933976 0)
(0.11847 0.00100245 0)
(0.118173 0.00107041 0)
(0.117857 0.00113785 0)
(0.117522 0.00120475 0)
(0.117167 0.0012711 0)
(0.116794 0.0013369 0)
(0.116402 0.00140212 0)
(0.115992 0.00146676 0)
(0.115563 0.00153082 0)
(0.115115 0.00159427 0)
(0.11465 0.00165711 0)
(0.114167 0.00171934 0)
(0.113666 0.00178094 0)
(0.113148 0.0018419 0)
(0.112612 0.00190222 0)
(0.112059 0.00196189 0)
(0.111489 0.0020209 0)
(0.110903 0.00207925 0)
(0.1103 0.00213693 0)
(0.10968 0.00219393 0)
(0.109044 0.00225024 0)
(0.108392 0.00230587 0)
(0.107725 0.0023608 0)
(0.107042 0.00241503 0)
(0.106343 0.00246855 0)
(0.105629 0.00252136 0)
(0.104901 0.00257346 0)
(0.104157 0.00262483 0)
(0.103399 0.00267548 0)
(0.102626 0.0027254 0)
(0.10184 0.00277459 0)
(0.101039 0.00282304 0)
(0.100225 0.00287075 0)
(0.099397 0.00291772 0)
(0.0985558 0.00296394 0)
(0.0977015 0.00300942 0)
(0.0968343 0.00305414 0)
(0.0959544 0.00309811 0)
(0.0950621 0.00314133 0)
(0.0941575 0.00318379 0)
(0.0932409 0.00322549 0)
(0.0923125 0.00326644 0)
(0.0913726 0.00330662 0)
(0.0904212 0.00334605 0)
(0.0894587 0.00338472 0)
(0.0884852 0.00342263 0)
(0.0875011 0.00345979 0)
(0.0865064 0.00349619 0)
(0.0855014 0.00353184 0)
(0.0844864 0.00356673 0)
(0.0834615 0.00360087 0)
(0.0824269 0.00363427 0)
(0.0813829 0.00366692 0)
(0.0803297 0.00369883 0)
(0.0792675 0.00373 0)
(0.0781965 0.00376044 0)
(0.0771169 0.00379015 0)
(0.076029 0.00381914 0)
(0.0749328 0.00384741 0)
(0.0738287 0.00387497 0)
(0.0727168 0.00390181 0)
(0.0715974 0.00392796 0)
(0.0704706 0.00395342 0)
(0.0693366 0.00397818 0)
(0.0681957 0.00400227 0)
(0.067048 0.00402568 0)
(0.0658937 0.00404843 0)
(0.064733 0.00407052 0)
(0.0635661 0.00409196 0)
(0.0623932 0.00411276 0)
(0.0612144 0.00413293 0)
(0.06003 0.00415247 0)
(0.0588401 0.00417141 0)
(0.0576449 0.00418973 0)
(0.0564445 0.00420747 0)
(0.0552392 0.00422462 0)
(0.0540291 0.00424119 0)
(0.0528143 0.0042572 0)
(0.051595 0.00427265 0)
(0.0503714 0.00428756 0)
(0.0491437 0.00430193 0)
(0.0479119 0.00431577 0)
(0.0466763 0.0043291 0)
(0.0454369 0.00434193 0)
(0.044194 0.00435426 0)
(0.0429476 0.0043661 0)
(0.0416979 0.00437747 0)
(0.0404451 0.00438838 0)
(0.0391892 0.00439883 0)
(0.0379304 0.00440883 0)
(0.0366688 0.0044184 0)
(0.0354045 0.00442754 0)
(0.0341377 0.00443627 0)
(0.0328685 0.00444459 0)
(0.031597 0.0044525 0)
(0.0303233 0.00446003 0)
(0.0290475 0.00446718 0)
(0.0277697 0.00447395 0)
(0.0264901 0.00448036 0)
(0.0252086 0.0044864 0)
(0.0239255 0.0044921 0)
(0.0226409 0.00449746 0)
(0.0213548 0.00450247 0)
(0.0200672 0.00450716 0)
(0.0187784 0.00451153 0)
(0.0174885 0.00451557 0)
(0.0161974 0.00451931 0)
(0.0149052 0.00452273 0)
(0.0136122 0.00452585 0)
(0.0123183 0.00452868 0)
(0.0110237 0.00453121 0)
(0.00972835 0.00453345 0)
(0.00843243 0.0045354 0)
(0.007136 0.00453707 0)
(0.00583913 0.00453846 0)
(0.00454191 0.00453957 0)
(0.00324442 0.00454039 0)
(0.00194673 0.00454094 0)
(0.000648923 0.00454122 0)
(0.000704731 -0.00633967 0)
(0.00211415 -0.00633926 0)
(0.00352343 -0.00633845 0)
(0.00493249 -0.00633724 0)
(0.00634125 -0.00633561 0)
(0.0077496 -0.00633357 0)
(0.00915746 -0.00633112 0)
(0.0105647 -0.00632824 0)
(0.0119713 -0.00632493 0)
(0.0133772 -0.00632118 0)
(0.0147821 -0.00631699 0)
(0.0161861 -0.00631234 0)
(0.017589 -0.00630723 0)
(0.0189908 -0.00630164 0)
(0.0203913 -0.00629557 0)
(0.0217904 -0.006289 0)
(0.023188 -0.00628192 0)
(0.0245839 -0.00627431 0)
(0.0259782 -0.00626617 0)
(0.0273706 -0.00625746 0)
(0.0287611 -0.00624819 0)
(0.0301494 -0.00623833 0)
(0.0315355 -0.00622786 0)
(0.0329193 -0.00621677 0)
(0.0343005 -0.00620504 0)
(0.0356791 -0.00619265 0)
(0.0370549 -0.00617957 0)
(0.0384277 -0.0061658 0)
(0.0397975 -0.0061513 0)
(0.0411639 -0.00613606 0)
(0.0425269 -0.00612006 0)
(0.0438864 -0.00610327 0)
(0.045242 -0.00608567 0)
(0.0465937 -0.00606724 0)
(0.0479412 -0.00604796 0)
(0.0492843 -0.00602781 0)
(0.050623 -0.00600676 0)
(0.0519568 -0.00598478 0)
(0.0532858 -0.00596186 0)
(0.0546095 -0.00593798 0)
(0.0559279 -0.0059131 0)
(0.0572407 -0.00588722 0)
(0.0585476 -0.00586029 0)
(0.0598485 -0.00583232 0)
(0.0611431 -0.00580326 0)
(0.0624311 -0.0057731 0)
(0.0637124 -0.00574182 0)
(0.0649865 -0.0057094 0)
(0.0662534 -0.00567582 0)
(0.0675128 -0.00564106 0)
(0.0687643 -0.00560509 0)
(0.0700077 -0.00556791 0)
(0.0712427 -0.00552949 0)
(0.0724691 -0.00548982 0)
(0.0736865 -0.00544888 0)
(0.0748947 -0.00540666 0)
(0.0760934 -0.00536315 0)
(0.0772824 -0.00531832 0)
(0.0784612 -0.00527218 0)
(0.0796296 -0.0052247 0)
(0.0807874 -0.00517589 0)
(0.0819342 -0.00512573 0)
(0.0830697 -0.00507422 0)
(0.0841935 -0.00502134 0)
(0.0853055 -0.00496711 0)
(0.0864053 -0.00491151 0)
(0.0874926 -0.00485454 0)
(0.0885671 -0.00479621 0)
(0.0896285 -0.00473652 0)
(0.0906764 -0.00467546 0)
(0.0917106 -0.00461306 0)
(0.0927308 -0.0045493 0)
(0.0937366 -0.00448421 0)
(0.0947278 -0.00441778 0)
(0.0957041 -0.00435004 0)
(0.0966652 -0.004281 0)
(0.0976108 -0.00421066 0)
(0.0985405 -0.00413905 0)
(0.0994542 -0.00406619 0)
(0.100352 -0.00399209 0)
(0.101232 -0.00391677 0)
(0.102096 -0.00384026 0)
(0.102943 -0.00376258 0)
(0.103772 -0.00368376 0)
(0.104583 -0.00360382 0)
(0.105377 -0.00352279 0)
(0.106152 -0.0034407 0)
(0.106909 -0.00335759 0)
(0.107647 -0.00327347 0)
(0.108367 -0.00318839 0)
(0.109067 -0.00310238 0)
(0.109749 -0.00301547 0)
(0.11041 -0.0029277 0)
(0.111052 -0.00283911 0)
(0.111674 -0.00274973 0)
(0.112277 -0.0026596 0)
(0.112859 -0.00256877 0)
(0.11342 -0.00247726 0)
(0.113962 -0.00238512 0)
(0.114482 -0.00229239 0)
(0.114982 -0.00219911 0)
(0.115461 -0.00210533 0)
(0.115919 -0.00201107 0)
(0.116356 -0.00191639 0)
(0.116772 -0.00182132 0)
(0.117167 -0.00172591 0)
(0.11754 -0.00163019 0)
(0.117892 -0.00153421 0)
(0.118223 -0.001438 0)
(0.118532 -0.00134161 0)
(0.11882 -0.00124508 0)
(0.119086 -0.00114844 0)
(0.11933 -0.00105173 0)
(0.119553 -0.000955 0)
(0.119755 -0.000858275 0)
(0.119934 -0.000761597 0)
(0.120093 -0.000665 0)
(0.12023 -0.00056852 0)
(0.120345 -0.000472192 0)
(0.120439 -0.000376049 0)
(0.120511 -0.000280124 0)
(0.120563 -0.000184449 0)
(0.120593 -8.90558e-05 0)
(0.120601 6.02662e-06 0)
(0.120589 0.000100768 0)