/*--------------------------------*- C++ -*----------------------------------*\
| =========                 |                                                 |
| \\      /  F ield         | OpenFOAM: The Open Source CFD Toolbox           |
|  \\    /   O peration     | Version:  v2012                                 |
|   \\  /    A nd           | Website:  www.openfoam.com                      |
|    \\/     M anipulation  |                                                 |
\*---------------------------------------------------------------------------*/
FoamFile
{
    version     2.0;
    format      ascii;
    class       volScalarField;
    location    "2";
    object      W;
}
// * * * * * * * * * * * * * * * * * * * * * * * * * * * * * * * * * * * * * //

dimensions      [0 0 -1 0 0 0 0];


internalField   nonuniform List<scalar> 
65536
(
1.38614e-20
1.5603e-20
1.91964e-20
2.4872e-20
3.3024e-20
4.42538e-20
5.94209e-20
7.97018e-20
1.06665e-19
1.42367e-19
1.89483e-19
2.51469e-19
3.3277e-19
4.39086e-19
5.77696e-19
7.57865e-19
9.91354e-19
1.29303e-18
1.68164e-18
2.18071e-18
2.81973e-18
3.63546e-18
4.67362e-18
5.99086e-18
7.65715e-18
9.75859e-18
1.24007e-17
1.57126e-17
1.98514e-17
2.50077e-17
3.14121e-17
3.93422e-17
4.91314e-17
6.11784e-17
7.59583e-17
9.40351e-17
1.16076e-16
1.42866e-16
1.75329e-16
2.14542e-16
2.61762e-16
3.18444e-16
3.86273e-16
4.67183e-16
5.63393e-16
6.77433e-16
8.12178e-16
9.70877e-16
1.15719e-15
1.37522e-15
1.62955e-15
1.92524e-15
2.26791e-15
2.66372e-15
3.1194e-15
3.64228e-15
4.24027e-15
4.92186e-15
5.69613e-15
6.57269e-15
7.56166e-15
8.67362e-15
9.91952e-15
1.13106e-14
1.28583e-14
1.45742e-14
1.64696e-14
1.85557e-14
2.08432e-14
2.33424e-14
2.60623e-14
2.90113e-14
3.21962e-14
3.56223e-14
3.92932e-14
4.32102e-14
4.73725e-14
5.17766e-14
5.64164e-14
6.12827e-14
6.63632e-14
7.16424e-14
7.71015e-14
8.27182e-14
8.84668e-14
9.43187e-14
1.00242e-13
1.06201e-13
1.12158e-13
1.18074e-13
1.23907e-13
1.29612e-13
1.35145e-13
1.40462e-13
1.45516e-13
1.50264e-13
1.54663e-13
1.58672e-13
1.62252e-13
1.65367e-13
1.67987e-13
1.70084e-13
1.71636e-13
1.72626e-13
1.73041e-13
1.72877e-13
1.72134e-13
1.70818e-13
1.68941e-13
1.66521e-13
1.63583e-13
1.60156e-13
1.56275e-13
1.51978e-13
1.47309e-13
1.42313e-13
1.37041e-13
1.31545e-13
1.25877e-13
1.20091e-13
1.14243e-13
1.08386e-13
1.02573e-13
9.68574e-14
9.12882e-14
8.59136e-14
8.07787e-14
7.59256e-14
7.13935e-14
6.72179e-14
6.34309e-14
6.00612e-14
5.71335e-14
5.46689e-14
5.26847e-14
5.11946e-14
5.02084e-14
4.97323e-14
4.97686e-14
5.0316e-14
5.13691e-14
5.29189e-14
5.49525e-14
5.7453e-14
6.03993e-14
6.37666e-14
6.75258e-14
7.16439e-14
7.60836e-14
8.0804e-14
8.57604e-14
9.09043e-14
9.61844e-14
1.01546e-13
1.06933e-13
1.12286e-13
1.17546e-13
1.22653e-13
1.27546e-13
1.32168e-13
1.3646e-13
1.4037e-13
1.43846e-13
1.46843e-13
1.49321e-13
1.51245e-13
1.52587e-13
1.53327e-13
1.53452e-13
1.52955e-13
1.51841e-13
1.50119e-13
1.47807e-13
1.44931e-13
1.41522e-13
1.37619e-13
1.33266e-13
1.2851e-13
1.23404e-13
1.18001e-13
1.12357e-13
1.0653e-13
1.00576e-13
9.45491e-14
8.85034e-14
8.2489e-14
7.65527e-14
7.07373e-14
6.50811e-14
5.96178e-14
5.4376e-14
4.93791e-14
4.46458e-14
4.01898e-14
3.60199e-14
3.2141e-14
2.85537e-14
2.52549e-14
2.22386e-14
1.9496e-14
1.70159e-14
1.47853e-14
1.279e-14
1.10148e-14
9.44364e-15
8.06045e-15
6.84909e-15
5.79373e-15
4.87901e-15
4.09027e-15
3.41363e-15
2.83611e-15
2.34568e-15
1.93132e-15
1.58298e-15
1.2916e-15
1.0491e-15
8.48271e-16
6.82782e-16
5.47088e-16
4.36374e-16
3.46486e-16
2.73865e-16
2.15482e-16
1.68774e-16
1.31589e-16
1.0213e-16
7.89057e-17
6.06847e-17
4.64587e-17
3.54055e-17
2.68589e-17
2.02825e-17
1.52465e-17
1.14085e-17
8.49775e-18
6.30071e-18
4.65037e-18
3.41662e-18
2.49872e-18
1.81906e-18
1.31823e-18
9.50915e-19
6.82816e-19
4.88063e-19
3.47262e-19
2.45952e-19
1.73404e-19
1.21704e-19
8.50488e-20
5.92146e-20
4.11621e-20
2.87436e-20
2.04888e-20
1.5444e-20
1.30495e-20
1.80427e-20
2.03094e-20
2.49862e-20
3.23734e-20
4.29833e-20
5.75988e-20
7.7338e-20
1.03732e-19
1.3882e-19
1.85279e-19
2.46589e-19
3.27244e-19
4.33026e-19
5.71348e-19
7.51674e-19
9.86053e-19
1.28977e-18
1.68216e-18
2.18758e-18
2.83663e-18
3.6676e-18
4.72826e-18
6.07802e-18
7.79045e-18
9.95643e-18
1.26877e-17
1.61214e-17
2.0425e-17
2.58023e-17
3.25008e-17
4.08194e-17
5.11184e-17
6.38298e-17
7.94706e-17
9.86564e-17
1.22118e-16
1.50719e-16
1.85477e-16
2.27585e-16
2.78441e-16
3.39666e-16
4.13146e-16
5.01054e-16
6.05893e-16
7.30525e-16
8.78218e-16
1.05268e-15
1.2581e-15
1.4992e-15
1.78127e-15
2.11018e-15
2.49248e-15
2.93537e-15
3.44678e-15
4.03535e-15
4.71047e-15
5.48229e-15
6.36169e-15
7.36028e-15
8.49034e-15
9.76481e-15
1.11972e-14
1.28014e-14
1.45917e-14
1.65827e-14
1.87889e-14
2.12248e-14
2.39045e-14
2.68414e-14
3.00482e-14
3.35364e-14
3.73162e-14
4.13961e-14
4.57822e-14
5.04788e-14
5.54871e-14
6.08054e-14
6.64289e-14
7.23491e-14
7.85537e-14
8.50265e-14
9.1747e-14
9.86908e-14
1.05829e-13
1.13128e-13
1.20551e-13
1.28056e-13
1.356e-13
1.43133e-13
1.50604e-13
1.57959e-13
1.65144e-13
1.72102e-13
1.78775e-13
1.85107e-13
1.91041e-13
1.96524e-13
2.01504e-13
2.05934e-13
2.09768e-13
2.12969e-13
2.15503e-13
2.17344e-13
2.18469e-13
2.18867e-13
2.18531e-13
2.17462e-13
2.15671e-13
2.13174e-13
2.09995e-13
2.06167e-13
2.01727e-13
1.96719e-13
1.91195e-13
1.85208e-13
1.7882e-13
1.72091e-13
1.65089e-13
1.57879e-13
1.50531e-13
1.43114e-13
1.35694e-13
1.28339e-13
1.21113e-13
1.1408e-13
1.07298e-13
1.00823e-13
9.47082e-14
8.90003e-14
8.37435e-14
7.8977e-14
7.47352e-14
7.10483e-14
6.79412e-14
6.54347e-14
6.35445e-14
6.22819e-14
6.16532e-14
6.16604e-14
6.23006e-14
6.35664e-14
6.54453e-14
6.79205e-14
7.09701e-14
7.45672e-14
7.86803e-14
8.32726e-14
8.83028e-14
9.37245e-14
9.94865e-14
1.05533e-13
1.11805e-13
1.18239e-13
1.24766e-13
1.31319e-13
1.37824e-13
1.4421e-13
1.50402e-13
1.56327e-13
1.61913e-13
1.67093e-13
1.718e-13
1.75973e-13
1.79558e-13
1.82506e-13
1.84775e-13
1.86333e-13
1.87155e-13
1.87227e-13
1.86542e-13
1.85106e-13
1.82931e-13
1.80041e-13
1.76466e-13
1.72248e-13
1.67433e-13
1.62075e-13
1.56232e-13
1.49968e-13
1.4335e-13
1.36445e-13
1.29323e-13
1.22052e-13
1.147e-13
1.0733e-13
1.00003e-13
9.27768e-14
8.57019e-14
7.88249e-14
7.2186e-14
6.58196e-14
5.97539e-14
5.40108e-14
4.86066e-14
4.35517e-14
3.88514e-14
3.45062e-14
3.05121e-14
2.68613e-14
2.35429e-14
2.05432e-14
1.78462e-14
1.54344e-14
1.32893e-14
1.13913e-14
9.72088e-15
8.25835e-15
6.98449e-15
5.88069e-15
4.92913e-15
4.113e-15
3.41658e-15
2.82532e-15
2.32586e-15
1.90606e-15
1.55499e-15
1.26285e-15
1.02097e-15
8.21678e-16
6.58296e-16
5.25013e-16
4.16817e-16
3.29418e-16
2.59163e-16
2.02966e-16
1.58232e-16
1.22797e-16
9.48642e-17
7.29517e-17
5.58454e-17
4.25556e-17
3.22807e-17
2.43751e-17
1.83216e-17
1.37087e-17
1.02104e-17
7.57018e-18
5.58703e-18
4.10458e-18
3.00171e-18
2.18515e-18
1.58346e-18
1.1422e-18
8.20144e-19
5.86205e-19
4.1708e-19
2.95394e-19
2.08258e-19
1.46164e-19
1.0214e-19
7.11131e-20
4.94325e-20
3.45183e-20
2.46046e-20
1.8546e-20
1.56708e-20
2.74336e-20
3.08791e-20
3.7989e-20
4.92189e-20
6.53476e-20
8.75644e-20
1.17568e-19
1.57685e-19
2.11014e-19
2.81621e-19
3.74791e-19
4.9735e-19
6.58079e-19
8.68232e-19
1.14218e-18
1.49821e-18
1.95953e-18
2.55547e-18
3.32298e-18
4.3085e-18
5.57009e-18
7.18021e-18
9.22892e-18
1.18277e-17
1.51144e-17
1.92583e-17
2.4467e-17
3.09941e-17
3.91484e-17
4.93043e-17
6.19141e-17
7.75228e-17
9.67839e-17
1.20479e-16
1.49537e-16
1.85063e-16
2.28362e-16
2.80968e-16
3.44683e-16
4.21611e-16
5.14201e-16
6.2529e-16
7.58153e-16
9.16554e-16
1.1048e-15
1.3278e-15
1.59114e-15
1.90109e-15
2.26474e-15
2.69e-15
3.18571e-15
3.76164e-15
4.42857e-15
5.19833e-15
6.08384e-15
7.0991e-15
8.25921e-15
9.58037e-15
1.10798e-14
1.27758e-14
1.46874e-14
1.68347e-14
1.92382e-14
2.1919e-14
2.48984e-14
2.81978e-14
3.18383e-14
3.58404e-14
4.02237e-14
4.50064e-14
5.0205e-14
5.58339e-14
6.19048e-14
6.84263e-14
7.54035e-14
8.28373e-14
9.07244e-14
9.90563e-14
1.07819e-13
1.16994e-13
1.26556e-13
1.36473e-13
1.46708e-13
1.57217e-13
1.6795e-13
1.78851e-13
1.89858e-13
2.00905e-13
2.11919e-13
2.22824e-13
2.33542e-13
2.4399e-13
2.54086e-13
2.63745e-13
2.72885e-13
2.81424e-13
2.89284e-13
2.9639e-13
3.02675e-13
3.08074e-13
3.12534e-13
3.16006e-13
3.18455e-13
3.19852e-13
3.2018e-13
3.19434e-13
3.17618e-13
3.14749e-13
3.10854e-13
3.0597e-13
3.00148e-13
2.93444e-13
2.85926e-13
2.77668e-13
2.68753e-13
2.59269e-13
2.49307e-13
2.38965e-13
2.2834e-13
2.17532e-13
2.06641e-13
1.95764e-13
1.84999e-13
1.74437e-13
1.6417e-13
1.5428e-13
1.44848e-13
1.35947e-13
1.27645e-13
1.20003e-13
1.13076e-13
1.0691e-13
1.01547e-13
9.70209e-14
9.33593e-14
9.05823e-14
8.87038e-14
8.77309e-14
8.76641e-14
8.84971e-14
9.02173e-14
9.28052e-14
9.62346e-14
1.00473e-13
1.0548e-13
1.1121e-13
1.17609e-13
1.24617e-13
1.32168e-13
1.40189e-13
1.486e-13
1.57316e-13
1.66249e-13
1.75302e-13
1.84379e-13
1.93378e-13
2.02197e-13
2.10735e-13
2.18889e-13
2.2656e-13
2.33653e-13
2.40077e-13
2.4575e-13
2.50596e-13
2.54548e-13
2.57552e-13
2.59562e-13
2.60548e-13
2.6049e-13
2.59383e-13
2.57234e-13
2.54064e-13
2.49906e-13
2.44807e-13
2.38822e-13
2.32018e-13
2.24471e-13
2.16264e-13
2.07484e-13
1.98225e-13
1.88582e-13
1.78649e-13
1.68522e-13
1.58294e-13
1.48053e-13
1.37882e-13
1.2786e-13
1.18057e-13
1.08536e-13
9.93521e-14
9.05517e-14
8.21728e-14
7.4245e-14
6.67898e-14
5.98209e-14
5.33447e-14
4.7361e-14
4.18639e-14
3.68419e-14
3.22795e-14
2.81572e-14
2.44526e-14
2.11414e-14
1.81975e-14
1.55938e-14
1.33033e-14
1.12986e-14
9.55312e-15
8.04123e-15
6.73832e-15
5.62123e-15
4.6683e-15
3.85951e-15
3.1765e-15
2.6026e-15
2.12278e-15
1.72362e-15
1.3932e-15
1.12104e-15
8.97969e-16
7.16033e-16
5.68375e-16
4.49123e-16
3.53283e-16
2.76635e-16
2.15634e-16
1.67321e-16
1.29243e-16
9.93766e-17
7.60647e-17
5.79566e-17
4.39584e-17
3.31894e-17
2.49445e-17
1.86624e-17
1.38988e-17
1.03039e-17
7.604e-18
5.58596e-18
4.08478e-18
2.9734e-18
2.15453e-18
1.55405e-18
1.11581e-18
7.97496e-19
5.67388e-19
4.01834e-19
2.8329e-19
1.98818e-19
1.38931e-19
9.67261e-20
6.72352e-20
4.69487e-20
3.34639e-20
2.52231e-20
2.13122e-20
4.43402e-20
4.99077e-20
6.13966e-20
7.9543e-20
1.05604e-19
1.41502e-19
1.89979e-19
2.54792e-19
3.40945e-19
4.55004e-19
6.055e-19
8.03454e-19
1.06304e-18
1.40242e-18
1.84478e-18
2.41963e-18
3.16441e-18
4.12643e-18
5.36529e-18
6.95585e-18
8.99173e-18
1.15897e-17
1.4895e-17
1.90872e-17
2.43881e-17
3.10707e-17
3.94691e-17
4.99917e-17
6.31352e-17
7.9502e-17
9.98198e-17
1.24965e-16
1.55987e-16
1.94142e-16
2.40925e-16
2.98107e-16
3.67783e-16
4.52416e-16
5.54896e-16
6.78596e-16
8.27438e-16
1.00597e-15
1.21943e-15
1.47384e-15
1.7761e-15
2.13404e-15
2.55657e-15
3.05374e-15
3.63682e-15
4.31845e-15
5.11268e-15
6.03508e-15
7.10278e-15
8.3346e-15
9.75101e-15
1.13742e-14
1.32282e-14
1.53385e-14
1.77324e-14
2.04387e-14
2.34875e-14
2.69103e-14
3.07393e-14
3.50076e-14
3.97486e-14
4.49956e-14
5.07814e-14
5.71377e-14
6.40948e-14
7.16806e-14
7.99202e-14
8.88353e-14
9.84431e-14
1.08756e-13
1.19781e-13
1.31517e-13
1.43958e-13
1.57089e-13
1.70887e-13
1.8532e-13
2.00345e-13
2.15913e-13
2.31963e-13
2.48423e-13
2.65214e-13
2.82246e-13
2.99421e-13
3.16633e-13
3.33768e-13
3.50706e-13
3.67323e-13
3.83491e-13
3.9908e-13
4.13959e-13
4.27999e-13
4.41074e-13
4.53064e-13
4.63854e-13
4.73339e-13
4.81424e-13
4.88027e-13
4.93077e-13
4.9652e-13
4.98317e-13
4.98445e-13
4.96898e-13
4.93689e-13
4.88847e-13
4.82418e-13
4.74466e-13
4.65068e-13
4.5432e-13
4.42327e-13
4.29209e-13
4.15096e-13
4.00125e-13
3.84441e-13
3.68195e-13
3.51539e-13
3.34627e-13
3.17614e-13
3.0065e-13
2.83884e-13
2.67457e-13
2.51506e-13
2.36159e-13
2.21537e-13
2.07749e-13
1.94897e-13
1.83072e-13
1.72354e-13
1.62814e-13
1.54511e-13
1.47493e-13
1.41799e-13
1.37457e-13
1.34484e-13
1.32889e-13
1.32668e-13
1.33808e-13
1.36289e-13
1.40076e-13
1.45129e-13
1.51393e-13
1.58807e-13
1.67299e-13
1.76786e-13
1.87176e-13
1.98367e-13
2.10247e-13
2.22697e-13
2.35588e-13
2.48786e-13
2.62147e-13
2.75527e-13
2.88774e-13
3.01737e-13
3.14263e-13
3.26203e-13
3.3741e-13
3.47744e-13
3.57072e-13
3.65273e-13
3.72238e-13
3.7787e-13
3.82089e-13
3.84834e-13
3.8606e-13
3.85741e-13
3.83872e-13
3.80468e-13
3.7556e-13
3.69202e-13
3.61463e-13
3.52429e-13
3.422e-13
3.3089e-13
3.18621e-13
3.05525e-13
2.9174e-13
2.77405e-13
2.62662e-13
2.47651e-13
2.32507e-13
2.17361e-13
2.02334e-13
1.87541e-13
1.73084e-13
1.59055e-13
1.45533e-13
1.32586e-13
1.20267e-13
1.0862e-13
9.7674e-14
8.74484e-14
7.79514e-14
6.91819e-14
6.11297e-14
5.37775e-14
4.71015e-14
4.10724e-14
3.56569e-14
3.08185e-14
2.65187e-14
2.27176e-14
1.93749e-14
1.64505e-14
1.39053e-14
1.17014e-14
9.80286e-15
8.17563e-15
6.78799e-15
5.61061e-15
4.61664e-15
3.78169e-15
3.08383e-15
2.50343e-15
2.02311e-15
1.62757e-15
1.30346e-15
1.03918e-15
8.24739e-16
6.51589e-16
5.12461e-16
4.01215e-16
3.12696e-16
2.42601e-16
1.87365e-16
1.44049e-16
1.10244e-16
8.39891e-17
6.3696e-17
4.80864e-17
3.61371e-17
2.70336e-17
2.01313e-17
1.49231e-17
1.10119e-17
8.08884e-18
5.91459e-18
4.30506e-18
3.11925e-18
2.24976e-18
1.61524e-18
1.1544e-18
8.2127e-19
5.81612e-19
4.10017e-19
2.87747e-19
2.01067e-19
1.39982e-19
9.73002e-20
6.79405e-20
4.84249e-20
3.64986e-20
3.08385e-20
7.29135e-20
8.20661e-20
1.00954e-19
1.30786e-19
1.73629e-19
2.32639e-19
3.12325e-19
4.18857e-19
5.60457e-19
7.4791e-19
9.9523e-19
1.32052e-18
1.74705e-18
2.30464e-18
3.03137e-18
3.97568e-18
5.19901e-18
6.77901e-18
8.81349e-18
1.14252e-17
1.47678e-17
1.90328e-17
2.44582e-17
3.13386e-17
4.00375e-17
5.1002e-17
6.47799e-17
8.20398e-17
1.03595e-16
1.30433e-16
1.63743e-16
2.04959e-16
2.558e-16
3.18318e-16
3.94957e-16
4.88613e-16
6.02705e-16
7.41259e-16
9.0899e-16
1.1114e-15
1.35489e-15
1.64687e-15
1.99588e-15
2.41174e-15
2.90565e-15
3.49038e-15
4.1804e-15
4.99204e-15
5.94364e-15
7.05567e-15
8.35094e-15
9.85467e-15
1.15946e-14
1.36012e-14
1.59076e-14
1.85496e-14
2.15659e-14
2.49977e-14
2.88889e-14
3.32857e-14
3.82367e-14
4.37922e-14
5.00038e-14
5.69244e-14
6.46071e-14
7.3105e-14
8.247e-14
9.27523e-14
1.03999e-13
1.16255e-13
1.29558e-13
1.43943e-13
1.59434e-13
1.76049e-13
1.93798e-13
2.12679e-13
2.32677e-13
2.53767e-13
2.75908e-13
2.99047e-13
3.23116e-13
3.48028e-13
3.73685e-13
3.9997e-13
4.26754e-13
4.53891e-13
4.81221e-13
5.08573e-13
5.35765e-13
5.62603e-13
5.88889e-13
6.14417e-13
6.38981e-13
6.62372e-13
6.84387e-13
7.04827e-13
7.23502e-13
7.40232e-13
7.54855e-13
7.67222e-13
7.77207e-13
7.84704e-13
7.8963e-13
7.91928e-13
7.9157e-13
7.88551e-13
7.82897e-13
7.7466e-13
7.63919e-13
7.5078e-13
7.35373e-13
7.17851e-13
6.98388e-13
6.77176e-13
6.54424e-13
6.30353e-13
6.05194e-13
5.79186e-13
5.52571e-13
5.25593e-13
4.98495e-13
4.71513e-13
4.4488e-13
4.18817e-13
3.93537e-13
3.69238e-13
3.46105e-13
3.24309e-13
3.04005e-13
2.8533e-13
2.68407e-13
2.53341e-13
2.40219e-13
2.29114e-13
2.2008e-13
2.13155e-13
2.08364e-13
2.05711e-13
2.0519e-13
2.06776e-13
2.1043e-13
2.16097e-13
2.23707e-13
2.33177e-13
2.44406e-13
2.57279e-13
2.71665e-13
2.87422e-13
3.04388e-13
3.22391e-13
3.41246e-13
3.60755e-13
3.80709e-13
4.00891e-13
4.21077e-13
4.41037e-13
4.60541e-13
4.79357e-13
4.97258e-13
5.14024e-13
5.29443e-13
5.43316e-13
5.55462e-13
5.65717e-13
5.73939e-13
5.80011e-13
5.83843e-13
5.8537e-13
5.84559e-13
5.81405e-13
5.75933e-13
5.68197e-13
5.5828e-13
5.4629e-13
5.3236e-13
5.16644e-13
4.99316e-13
4.80562e-13
4.60585e-13
4.39591e-13
4.17792e-13
3.95404e-13
3.72635e-13
3.4969e-13
3.26764e-13
3.04042e-13
2.81692e-13
2.59868e-13
2.38706e-13
2.18324e-13
1.98822e-13
1.80279e-13
1.62758e-13
1.46302e-13
1.30937e-13
1.16676e-13
1.03513e-13
9.14342e-14
8.04105e-14
7.04052e-14
6.13736e-14
5.32649e-14
4.60234e-14
3.95905e-14
3.3906e-14
2.89089e-14
2.45388e-14
2.07367e-14
1.74457e-14
1.46115e-14
1.21831e-14
1.01129e-14
8.35694e-15
6.87491e-15
5.63035e-15
4.59039e-15
3.7257e-15
3.01029e-15
2.42131e-15
1.93879e-15
1.54542e-15
1.22631e-15
9.68696e-16
7.61742e-16
5.96294e-16
4.64668e-16
3.60457e-16
2.78352e-16
2.13974e-16
1.63739e-16
1.2473e-16
9.45828e-17
7.13965e-17
5.36493e-17
4.01303e-17
2.98815e-17
2.21489e-17
1.63427e-17
1.20036e-17
8.77645e-18
6.3877e-18
4.62794e-18
3.33771e-18
2.39621e-18
1.71246e-18
1.21823e-18
8.62698e-19
6.08148e-19
4.26779e-19
2.98207e-19
2.07604e-19
1.443e-19
1.00755e-19
7.18114e-20
5.41235e-20
4.57289e-20
1.2012e-19
1.35194e-19
1.66301e-19
2.15433e-19
2.85992e-19
3.83173e-19
5.14397e-19
6.8982e-19
9.22975e-19
1.23161e-18
1.63879e-18
2.17429e-18
2.8764e-18
3.79419e-18
4.99027e-18
6.54432e-18
8.55737e-18
1.11571e-17
1.45042e-17
1.88007e-17
2.42988e-17
3.13134e-17
4.02352e-17
5.15484e-17
6.58499e-17
8.38738e-17
1.06519e-16
1.34883e-16
1.70301e-16
2.1439e-16
2.69104e-16
3.36792e-16
4.20272e-16
5.22906e-16
6.48697e-16
8.02387e-16
9.89575e-16
1.21685e-15
1.49191e-15
1.82378e-15
2.2229e-15
2.70138e-15
3.27317e-15
3.95428e-15
4.76302e-15
5.72019e-15
6.84938e-15
8.17719e-15
9.73345e-15
1.15515e-14
1.36684e-14
1.61251e-14
1.89668e-14
2.22427e-14
2.60065e-14
3.03164e-14
3.52348e-14
4.08283e-14
4.7168e-14
5.43282e-14
6.23871e-14
7.14256e-14
8.15267e-14
9.27751e-14
1.05256e-13
1.19053e-13
1.3425e-13
1.50926e-13
1.69156e-13
1.89009e-13
2.10545e-13
2.33816e-13
2.58861e-13
2.85707e-13
3.14363e-13
3.44823e-13
3.77063e-13
4.11035e-13
4.46673e-13
4.83886e-13
5.22557e-13
5.62549e-13
6.03697e-13
6.4581e-13
6.88677e-13
7.32059e-13
7.757e-13
8.19321e-13
8.62626e-13
9.05307e-13
9.47043e-13
9.87505e-13
1.02636e-12
1.06328e-12
1.09795e-12
1.13003e-12
1.15924e-12
1.1853e-12
1.20794e-12
1.22694e-12
1.2421e-12
1.25327e-12
1.2603e-12
1.26314e-12
1.26173e-12
1.25607e-12
1.24623e-12
1.23229e-12
1.21437e-12
1.19268e-12
1.1674e-12
1.1388e-12
1.10716e-12
1.07279e-12
1.03603e-12
9.97227e-13
9.56757e-13
9.14999e-13
8.7234e-13
8.29165e-13
7.85858e-13
7.42794e-13
7.00336e-13
6.58834e-13
6.18618e-13
5.79997e-13
5.4326e-13
5.08669e-13
4.76462e-13
4.46851e-13
4.20021e-13
3.96131e-13
3.75311e-13
3.57667e-13
3.43277e-13
3.32197e-13
3.24453e-13
3.20051e-13
3.18969e-13
3.21164e-13
3.26568e-13
3.35091e-13
3.46617e-13
3.61011e-13
3.78112e-13
3.97737e-13
4.1968e-13
4.43712e-13
4.69586e-13
4.97031e-13
5.25757e-13
5.55459e-13
5.85813e-13
6.16485e-13
6.4713e-13
6.77396e-13
7.0693e-13
7.35378e-13
7.62395e-13
7.87645e-13
8.10807e-13
8.31582e-13
8.49696e-13
8.64903e-13
8.76993e-13
8.85792e-13
8.91165e-13
8.93023e-13
8.91318e-13
8.8605e-13
8.77262e-13
8.65042e-13
8.4952e-13
8.30866e-13
8.09286e-13
7.85019e-13
7.5833e-13
7.29509e-13
6.98862e-13
6.66705e-13
6.33363e-13
5.9916e-13
5.64414e-13
5.29436e-13
4.94521e-13
4.59945e-13
4.25963e-13
3.92806e-13
3.60679e-13
3.29757e-13
3.00189e-13
2.72093e-13
2.4556e-13
2.20655e-13
1.97414e-13
1.75853e-13
1.55964e-13
1.3772e-13
1.21078e-13
1.0598e-13
9.23572e-14
8.01315e-14
6.92177e-14
5.95264e-14
5.09657e-14
4.3443e-14
3.68664e-14
3.11464e-14
2.6197e-14
2.19359e-14
1.82861e-14
1.51755e-14
1.25378e-14
1.03122e-14
8.44365e-15
6.88272e-15
5.58517e-15
4.51188e-15
3.62846e-15
2.90488e-15
2.31512e-15
1.83678e-15
1.45071e-15
1.14061e-15
8.92743e-16
6.95584e-16
5.39516e-16
4.16572e-16
3.20187e-16
2.44989e-16
1.86602e-16
1.41485e-16
1.06791e-16
8.02377e-17
6.00133e-17
4.46827e-17
3.31172e-17
2.44337e-17
1.79451e-17
1.31197e-17
9.54815e-18
6.91728e-18
4.9885e-18
3.58116e-18
2.55915e-18
1.82048e-18
1.28912e-18
9.08714e-19
6.37682e-19
4.45558e-19
3.10177e-19
2.15588e-19
1.50526e-19
1.07281e-19
8.0854e-20
6.83117e-20
1.9732e-19
2.22074e-19
2.7316e-19
3.53845e-19
4.69713e-19
6.29292e-19
8.44763e-19
1.13279e-18
1.51559e-18
2.02228e-18
2.6907e-18
3.56971e-18
4.72213e-18
6.22843e-18
8.19131e-18
1.07414e-17
1.40444e-17
1.83096e-17
2.38006e-17
3.08481e-17
3.98657e-17
5.13692e-17
6.59989e-17
8.45474e-17
1.07992e-16
1.37536e-16
1.74649e-16
2.21128e-16
2.79156e-16
3.51381e-16
4.40995e-16
5.51842e-16
6.88524e-16
8.56538e-16
1.06242e-15
1.31392e-15
1.62016e-15
1.99191e-15
2.44174e-15
2.98433e-15
3.63672e-15
4.41865e-15
5.35282e-15
6.46532e-15
7.7859e-15
9.34843e-15
1.11912e-14
1.33575e-14
1.58958e-14
1.88601e-14
2.23105e-14
2.63134e-14
3.09419e-14
3.62758e-14
4.24019e-14
4.9414e-14
5.74129e-14
6.65063e-14
7.68081e-14
8.84385e-14
1.01523e-13
1.16191e-13
1.32575e-13
1.50812e-13
1.71036e-13
1.93382e-13
2.17983e-13
2.44962e-13
2.74439e-13
3.06522e-13
3.41304e-13
3.78865e-13
4.19263e-13
4.62536e-13
5.08697e-13
5.5773e-13
6.09589e-13
6.64195e-13
7.21432e-13
7.81149e-13
8.43156e-13
9.07223e-13
9.7308e-13
1.04042e-12
1.10889e-12
1.17811e-12
1.24767e-12
1.3171e-12
1.38595e-12
1.4537e-12
1.51986e-12
1.58388e-12
1.64525e-12
1.70344e-12
1.75792e-12
1.80822e-12
1.85384e-12
1.89436e-12
1.92937e-12
1.95851e-12
1.98148e-12
1.99804e-12
2.00799e-12
2.01124e-12
2.00771e-12
1.99744e-12
1.98051e-12
1.95708e-12
1.92739e-12
1.89171e-12
1.85041e-12
1.8039e-12
1.75262e-12
1.69709e-12
1.63785e-12
1.57546e-12
1.51051e-12
1.44362e-12
1.37539e-12
1.30643e-12
1.23736e-12
1.16876e-12
1.10119e-12
1.03522e-12
9.71355e-13
9.10073e-13
8.51822e-13
7.9701e-13
7.46001e-13
6.99119e-13
6.56645e-13
6.18817e-13
5.85831e-13
5.5784e-13
5.34959e-13
5.17261e-13
5.0478e-13
4.97511e-13
4.95413e-13
4.98407e-13
5.06379e-13
5.19179e-13
5.3662e-13
5.58482e-13
5.84508e-13
6.14408e-13
6.47857e-13
6.84497e-13
7.23938e-13
7.65759e-13
8.0951e-13
8.54717e-13
9.00882e-13
9.47489e-13
9.94006e-13
1.0399e-12
1.08461e-12
1.12763e-12
1.1684e-12
1.20643e-12
1.24124e-12
1.27235e-12
1.29938e-12
1.32193e-12
1.33971e-12
1.35246e-12
1.35997e-12
1.36211e-12
1.35883e-12
1.35014e-12
1.33609e-12
1.31685e-12
1.29261e-12
1.26363e-12
1.23024e-12
1.19281e-12
1.15174e-12
1.10747e-12
1.06048e-12
1.01125e-12
9.6027e-13
9.08033e-13
8.55025e-13
8.01713e-13
7.48543e-13
6.95934e-13
6.4427e-13
5.93896e-13
5.4512e-13
4.98205e-13
4.53371e-13
4.10795e-13
3.70611e-13
3.32911e-13
2.97749e-13
2.65144e-13
2.35082e-13
2.0752e-13
1.82388e-13
1.59598e-13
1.39044e-13
1.20604e-13
1.0415e-13
8.95438e-14
7.66463e-14
6.53165e-14
5.5415e-14
4.6806e-14
3.9359e-14
3.29497e-14
2.74612e-14
2.2785e-14
1.88208e-14
1.54768e-14
1.267e-14
1.03258e-14
8.37764e-15
6.76653e-15
5.44073e-15
4.35503e-15
3.47031e-15
2.75287e-15
2.17392e-15
1.70898e-15
1.33742e-15
1.04192e-15
8.08042e-16
6.2383e-16
4.79435e-16
3.66795e-16
2.79349e-16
2.11786e-16
1.59836e-16
1.20083e-16
8.98071e-17
6.68598e-17
4.955e-17
3.65549e-17
2.68455e-17
1.96253e-17
1.42819e-17
1.0346e-17
7.46077e-18
5.35567e-18
3.82704e-18
2.72227e-18
1.92762e-18
1.35874e-18
9.53446e-19
6.66164e-19
4.63736e-19
3.22309e-19
2.25033e-19
1.60377e-19
1.20866e-19
1.02114e-19
3.22782e-19
3.63262e-19
4.46804e-19
5.78751e-19
7.68227e-19
1.02917e-18
1.38149e-18
1.85243e-18
2.47828e-18
3.30664e-18
4.39931e-18
5.83614e-18
7.71975e-18
1.01816e-17
1.33893e-17
1.75564e-17
2.29533e-17
2.99216e-17
3.88917e-17
5.04033e-17
6.51316e-17
8.39177e-17
1.07806e-16
1.38091e-16
1.76364e-16
2.24587e-16
2.85157e-16
3.61002e-16
4.55681e-16
5.73502e-16
7.19669e-16
9.00437e-16
1.1233e-15
1.3972e-15
1.73277e-15
2.1426e-15
2.64157e-15
3.24712e-15
3.9797e-15
4.86316e-15
5.92515e-15
7.1977e-15
8.71766e-15
1.05273e-14
1.26748e-14
1.52151e-14
1.82103e-14
2.17302e-14
2.58532e-14
3.06667e-14
3.62678e-14
4.27637e-14
5.02722e-14
5.89219e-14
6.88527e-14
8.02156e-14
9.31725e-14
1.07896e-13
1.2457e-13
1.43387e-13
1.64546e-13
1.88255e-13
2.14728e-13
2.44178e-13
2.76823e-13
3.12875e-13
3.52542e-13
3.96022e-13
4.43502e-13
4.9515e-13
5.5111e-13
6.11505e-13
6.76422e-13
7.45914e-13
8.19994e-13
8.9863e-13
9.81738e-13
1.06918e-12
1.16077e-12
1.25626e-12
1.35532e-12
1.45759e-12
1.56261e-12
1.6699e-12
1.77889e-12
1.88895e-12
1.99942e-12
2.10957e-12
2.21864e-12
2.32584e-12
2.43034e-12
2.53131e-12
2.62791e-12
2.7193e-12
2.80468e-12
2.88326e-12
2.95429e-12
3.01708e-12
3.07101e-12
3.11554e-12
3.15019e-12
3.17459e-12
3.18847e-12
3.19166e-12
3.18411e-12
3.16586e-12
3.13708e-12
3.09803e-12
3.04911e-12
2.99079e-12
2.92364e-12
2.84834e-12
2.76561e-12
2.67628e-12
2.58119e-12
2.48127e-12
2.37744e-12
2.27068e-12
2.16196e-12
2.05222e-12
1.94244e-12
1.83353e-12
1.7264e-12
1.62188e-12
1.52079e-12
1.42387e-12
1.33181e-12
1.24524e-12
1.16471e-12
1.09072e-12
1.02369e-12
9.63982e-13
9.11885e-13
8.67624e-13
8.31359e-13
8.03189e-13
7.83152e-13
7.71225e-13
7.67329e-13
7.71326e-13
7.83025e-13
8.02178e-13
8.28485e-13
8.61592e-13
9.01091e-13
9.46523e-13
9.97377e-13
1.05309e-12
1.11306e-12
1.17663e-12
1.2431e-12
1.31174e-12
1.38178e-12
1.45243e-12
1.52288e-12
1.5923e-12
1.65986e-12
1.72475e-12
1.78615e-12
1.84331e-12
1.89549e-12
1.942e-12
1.98223e-12
2.01561e-12
2.0417e-12
2.06009e-12
2.07051e-12
2.07277e-12
2.06679e-12
2.05258e-12
2.03028e-12
2.00011e-12
1.96239e-12
1.91753e-12
1.86603e-12
1.80845e-12
1.74543e-12
1.67763e-12
1.60577e-12
1.53058e-12
1.45283e-12
1.37324e-12
1.29257e-12
1.2115e-12
1.13072e-12
1.05085e-12
9.72479e-13
8.96118e-13
8.22227e-13
7.51199e-13
6.83363e-13
6.18979e-13
5.58245e-13
5.01295e-13
4.48207e-13
3.99002e-13
3.53656e-13
3.12098e-13
2.74222e-13
2.39889e-13
2.08936e-13
1.81178e-13
1.56418e-13
1.34447e-13
1.15053e-13
9.80222e-14
8.31429e-14
7.021e-14
5.9026e-14
4.94032e-14
4.11653e-14
3.41485e-14
2.82014e-14
2.31862e-14
1.89777e-14
1.54636e-14
1.25439e-14
1.01298e-14
8.14367e-15
6.51756e-15
5.19272e-15
4.11858e-15
3.25193e-15
2.55609e-15
2.00008e-15
1.55796e-15
1.2081e-15
9.32574e-16
7.16633e-16
5.48205e-16
4.17465e-16
3.16466e-16
2.38816e-16
1.79402e-16
1.34159e-16
9.98704e-17
7.40083e-17
5.45945e-17
4.00905e-17
2.93061e-17
2.13254e-17
1.54476e-17
1.11389e-17
7.99557e-18
5.71315e-18
4.06372e-18
2.87735e-18
2.0281e-18
1.42309e-18
9.94261e-19
6.9211e-19
4.81018e-19
3.35831e-19
2.39333e-19
1.80363e-19
1.52376e-19
5.25634e-19
5.91532e-19
7.27536e-19
9.42337e-19
1.25078e-18
1.67555e-18
2.24904e-18
3.01556e-18
4.03416e-18
5.38225e-18
7.16039e-18
9.49842e-18
1.25632e-17
1.65685e-17
2.17869e-17
2.85655e-17
3.73437e-17
4.8677e-17
6.32644e-17
8.1983e-17
1.0593e-16
1.3647e-16
1.75302e-16
2.24524e-16
2.86724e-16
3.65081e-16
4.6349e-16
5.86698e-16
7.40478e-16
9.31819e-16
1.16915e-15
1.46262e-15
1.82437e-15
2.26888e-15
2.81338e-15
3.47826e-15
4.28757e-15
5.26956e-15
6.45731e-15
7.88934e-15
9.61041e-15
1.16722e-14
1.41343e-14
1.70648e-14
2.05417e-14
2.46533e-14
2.94998e-14
3.51937e-14
4.18613e-14
4.96432e-14
5.86956e-14
6.91908e-14
8.13178e-14
9.52833e-14
1.11311e-13
1.29644e-13
1.50541e-13
1.74279e-13
2.01149e-13
2.31459e-13
2.65529e-13
3.03688e-13
3.46276e-13
3.93632e-13
4.46099e-13
5.04015e-13
5.67706e-13
6.37483e-13
7.13638e-13
7.96431e-13
8.86088e-13
9.82791e-13
1.08667e-12
1.19781e-12
1.3162e-12
1.44179e-12
1.57443e-12
1.7139e-12
1.85986e-12
2.01192e-12
2.16954e-12
2.33212e-12
2.49895e-12
2.66921e-12
2.842e-12
3.01631e-12
3.19107e-12
3.36513e-12
3.53726e-12
3.70621e-12
3.87065e-12
4.02928e-12
4.18076e-12
4.32377e-12
4.45704e-12
4.57934e-12
4.68949e-12
4.78643e-12
4.86919e-12
4.93693e-12
4.98892e-12
5.02461e-12
5.0436e-12
5.04565e-12
5.0307e-12
4.99886e-12
4.95042e-12
4.88584e-12
4.80576e-12
4.71095e-12
4.60236e-12
4.48105e-12
4.34821e-12
4.20514e-12
4.05321e-12
3.89386e-12
3.72859e-12
3.55891e-12
3.38635e-12
3.21243e-12
3.03864e-12
2.86643e-12
2.69719e-12
2.53225e-12
2.37285e-12
2.22014e-12
2.07519e-12
1.93896e-12
1.81229e-12
1.69594e-12
1.59055e-12
1.49665e-12
1.41467e-12
1.34493e-12
1.28767e-12
1.24301e-12
1.21098e-12
1.19153e-12
1.18452e-12
1.1897e-12
1.20675e-12
1.23529e-12
1.27482e-12
1.32477e-12
1.38451e-12
1.45331e-12
1.53037e-12
1.61481e-12
1.7057e-12
1.80202e-12
1.90269e-12
2.00658e-12
2.11253e-12
2.2193e-12
2.32566e-12
2.43036e-12
2.53213e-12
2.62972e-12
2.72194e-12
2.8076e-12
2.8856e-12
2.95492e-12
3.01462e-12
3.06389e-12
3.10202e-12
3.12846e-12
3.14278e-12
3.14473e-12
3.13419e-12
3.11122e-12
3.07601e-12
3.02894e-12
2.97049e-12
2.90132e-12
2.82217e-12
2.73392e-12
2.63753e-12
2.53403e-12
2.42449e-12
2.31004e-12
2.19182e-12
2.07094e-12
1.94852e-12
1.82562e-12
1.70326e-12
1.58237e-12
1.46383e-12
1.34841e-12
1.23679e-12
1.12957e-12
1.02722e-12
9.30131e-13
8.38596e-13
7.52808e-13
6.72876e-13
5.98826e-13
5.30612e-13
4.68124e-13
4.11196e-13
3.59614e-13
3.13128e-13
2.71457e-13
2.34298e-13
2.01338e-13
1.72253e-13
1.46719e-13
1.24419e-13
1.05042e-13
8.82897e-14
7.38802e-14
6.15481e-14
5.10465e-14
4.21483e-14
3.46462e-14
2.83524e-14
2.30983e-14
1.87337e-14
1.51259e-14
1.21582e-14
9.72891e-15
7.7501e-15
6.14605e-15
4.85208e-15
3.81332e-15
2.98344e-15
2.32366e-15
1.80163e-15
1.39057e-15
1.06846e-15
8.17252e-16
6.22282e-16
4.71684e-16
3.55914e-16
2.67343e-16
1.99905e-16
1.488e-16
1.10259e-16
8.13295e-17
5.97186e-17
4.36512e-17
3.17619e-17
2.3006e-17
1.65882e-17
1.19064e-17
8.50716e-18
6.05077e-18
4.2841e-18
3.01951e-18
2.11866e-18
1.48018e-18
1.03032e-18
7.1605e-19
4.99905e-19
3.56247e-19
2.6846e-19
2.26797e-19
8.52045e-19
9.58828e-19
1.17922e-18
1.5273e-18
2.0271e-18
2.71538e-18
3.64457e-18
4.88646e-18
6.53666e-18
8.72051e-18
1.16008e-17
1.53878e-17
2.03516e-17
2.6838e-17
3.52886e-17
4.62645e-17
6.0477e-17
7.88247e-17
1.02438e-16
1.32736e-16
1.71492e-16
2.20915e-16
2.83748e-16
3.63383e-16
4.64002e-16
5.90744e-16
7.49896e-16
9.49129e-16
1.19776e-15
1.50708e-15
1.89068e-15
2.36495e-15
2.94945e-15
3.66757e-15
4.54705e-15
5.62077e-15
6.92748e-15
8.51269e-15
1.04297e-14
1.27404e-14
1.55169e-14
1.88423e-14
2.28124e-14
2.75367e-14
3.31403e-14
3.97652e-14
4.75721e-14
5.67415e-14
6.74758e-14
8.00003e-14
9.45651e-14
1.11446e-13
1.30945e-13
1.53393e-13
1.79147e-13
2.08594e-13
2.42147e-13
2.80246e-13
3.23357e-13
3.71967e-13
4.26584e-13
4.87731e-13
5.55944e-13
6.3176e-13
7.1572e-13
8.08354e-13
9.10175e-13
1.02167e-12
1.14329e-12
1.27544e-12
1.41847e-12
1.57265e-12
1.73818e-12
1.91515e-12
2.10357e-12
2.3033e-12
2.51411e-12
2.73561e-12
2.96727e-12
3.2084e-12
3.45817e-12
3.71558e-12
3.97949e-12
4.24858e-12
4.5214e-12
4.79636e-12
5.07172e-12
5.34566e-12
5.61623e-12
5.88143e-12
6.13919e-12
6.38742e-12
6.62403e-12
6.84694e-12
7.05416e-12
7.24375e-12
7.4139e-12
7.56296e-12
7.68943e-12
7.79199e-12
7.86959e-12
7.92136e-12
7.94673e-12
7.94536e-12
7.91721e-12
7.86251e-12
7.78175e-12
7.67571e-12
7.54542e-12
7.39216e-12
7.21745e-12
7.023e-12
6.81071e-12
6.58263e-12
6.34095e-12
6.08796e-12
5.826e-12
5.55747e-12
5.28475e-12
5.01022e-12
4.73622e-12
4.465e-12
4.19872e-12
3.93944e-12
3.68907e-12
3.4494e-12
3.22205e-12
3.00849e-12
2.81001e-12
2.62774e-12
2.46264e-12
2.31552e-12
2.187e-12
2.07754e-12
1.98747e-12
1.91695e-12
1.86599e-12
1.83446e-12
1.82212e-12
1.82855e-12
1.85325e-12
1.89556e-12
1.95471e-12
2.02979e-12
2.11981e-12
2.22362e-12
2.33998e-12