/*--------------------------------*- C++ -*----------------------------------*\
| =========                 |                                                 |
| \\      /  F ield         | OpenFOAM: The Open Source CFD Toolbox           |
|  \\    /   O peration     | Version:  v2012                                 |
|   \\  /    A nd           | Website:  www.openfoam.com                      |
|    \\/     M anipulation  |                                                 |
\*---------------------------------------------------------------------------*/
FoamFile
{
    version     2.0;
    format      ascii;
    class       volVectorField;
    location    "0";
    object      uRec;
}
// * * * * * * * * * * * * * * * * * * * * * * * * * * * * * * * * * * * * * //

dimensions      [0 1 -1 0 0 0 0];


internalField   nonuniform List<vector> 
4000
(
(1 -3.76757e-16 0)
(1 1.98894e-15 0)
(1 -1.09405e-15 0)
(1 1.7442e-15 0)
(1 -1.04078e-15 0)
(1 -8.33374e-16 0)
(1 5.78226e-16 0)
(1 7.71715e-16 0)
(1 5.03845e-16 0)
(1 -2.17648e-15 0)
(1 6.27061e-16 0)
(1 8.25882e-16 0)
(1 1.33211e-15 0)
(1 5.48535e-16 0)
(1 1.98915e-15 0)
(1 -7.54321e-16 0)
(1 -1.25317e-15 0)
(1 -1.2818e-15 0)
(1 -2.53193e-17 0)
(1 -5.86698e-16 0)
(1 -8.15156e-16 0)
(1 -4.25512e-15 0)
(1 -3.61845e-16 0)
(1 -2.1403e-15 0)
(1 1.5043e-15 0)
(1 -8.28542e-16 0)
(1 1.41137e-15 0)
(1 1.44361e-15 0)
(1 1.81776e-15 0)
(1 2.03861e-15 0)
(1 1.13319e-15 0)
(1 -2.1856e-15 0)
(1 -1.41917e-15 0)
(1 -5.52156e-16 0)
(1 -2.63856e-16 0)
(1 1.24589e-15 0)
(1 2.96725e-15 0)
(1 1.83448e-15 0)
(1 -8.47569e-17 0)
(1 -1.44935e-15 0)
(1 -2.05999e-15 0)
(1 -1.46933e-15 0)
(1 -5.87077e-16 0)
(1 1.05666e-15 0)
(1 1.10749e-16 0)
(1 2.34332e-16 0)
(1 2.78781e-16 0)
(1 -1.7648e-16 0)
(1 -7.20924e-16 0)
(1 5.04106e-16 0)
(1 5.06314e-16 0)
(1 1.49993e-15 0)
(1 5.99476e-16 0)
(1 8.0028e-16 0)
(1 3.70459e-16 0)
(1 -1.4436e-15 0)
(1 -5.19214e-16 0)
(1 6.0908e-16 0)
(1 9.4399e-16 0)
(1 7.54124e-16 0)
(1 7.64985e-16 0)
(1 6.95666e-16 0)
(1 9.74131e-16 0)
(1 -5.06901e-16 0)
(1 -5.70129e-16 0)
(1 -4.53767e-17 0)
(1 -8.55019e-16 0)
(1 1.61027e-15 0)
(1 -1.01096e-15 0)
(1 -2.05777e-16 0)
(1 -1.69574e-15 0)
(1 -3.50793e-16 0)
(1 -6.10414e-16 0)
(1 -8.11879e-16 0)
(1 -2.33583e-15 0)
(1 -5.96353e-16 0)
(1 -8.77169e-16 0)
(1 5.16491e-16 0)
(1 1.67552e-16 0)
(1 1.0134e-16 0)
(1 1.10826e-15 0)
(1 5.77835e-18 0)
(1 -1.06883e-16 0)
(1 -1.99906e-16 0)
(1 -9.76575e-16 0)
(1 -3.49378e-16 0)
(1 7.1199e-17 0)
(1 -7.49826e-17 0)
(1 9.69371e-16 0)
(1 1.74481e-15 0)
(1 -2.04666e-16 0)
(1 1.11057e-15 0)
(1 -1.61312e-15 0)
(1 -1.01212e-15 0)
(1 -3.70192e-16 0)
(1 -1.72135e-16 0)
(1 -5.82621e-16 0)
(1 -1.01365e-15 0)
(1 -1.227e-16 0)
(1 -1.91243e-16 0)
(1 6.95291e-16 0)
(1 4.81313e-17 0)
(1 -5.7467e-17 0)
(1 1.82075e-15 0)
(1 5.6502e-17 0)
(1 -1.86284e-15 0)
(1 6.06067e-16 0)
(1 8.14372e-16 0)
(1 1.09594e-15 0)
(1 -1.91583e-15 0)
(1 4.99631e-16 0)
(1 4.0498e-16 0)
(1 2.40699e-15 0)
(1 2.67887e-15 0)
(1 3.28615e-15 0)
(1 -1.25165e-15 0)
(1 -2.56324e-15 0)
(1 -2.5697e-15 0)
(1 -4.7422e-16 0)
(1 -9.94889e-16 0)
(1 -6.93464e-16 0)
(1 -4.17173e-15 0)
(1 1.84305e-16 0)
(1 -3.06716e-15 0)
(1 1.85735e-15 0)
(1 -2.00186e-15 0)
(1 2.90595e-16 0)
(1 4.48634e-16 0)
(1 2.15016e-15 0)
(1 1.46418e-15 0)
(1 2.339e-15 0)
(1 -8.23981e-16 0)
(1 -1.41692e-15 0)
(1 -4.69958e-16 0)
(1 -7.81311e-16 0)
(1 1.26033e-15 0)
(1 2.49921e-15 0)
(1 1.93882e-15 0)
(1 -1.61186e-15 0)
(1 -2.76481e-15 0)
(1 -2.90545e-15 0)
(1 -1.91398e-15 0)
(1 -1.05438e-16 0)
(1 9.49648e-16 0)
(1 1.23622e-15 0)
(1 -3.85693e-16 0)
(1 -3.10579e-16 0)
(1 -4.3334e-16 0)
(1 3.90438e-16 0)
(1 -8.87352e-16 0)
(1 -1.33279e-15 0)
(1 3.91393e-16 0)
(1 -2.13464e-16 0)
(1 7.68154e-16 0)
(1 9.7304e-16 0)
(1 8.35688e-16 0)
(1 9.31284e-16 0)
(1 1.52408e-15 0)
(1 -2.47263e-16 0)
(1 7.97736e-16 0)
(1 -7.885e-16 0)
(1 -2.95387e-16 0)
(1 1.79975e-15 0)
(1 5.48117e-16 0)
(1 4.37148e-16 0)
(1 -6.59489e-16 0)
(1 -1.3468e-15 0)
(1 7.70435e-16 0)
(1 -1.42624e-15 0)
(1 -8.72328e-16 0)
(1 9.58841e-17 0)
(1 2.22118e-16 0)
(1 1.33476e-15 0)
(1 6.69487e-16 0)
(1 5.67583e-16 0)
(1 -7.6175e-16 0)
(1 4.05771e-17 0)
(1 5.88988e-16 0)
(1 1.47962e-15 0)
(1 1.91413e-16 0)
(1 1.14494e-15 0)
(1 -1.14856e-15 0)
(1 -9.58018e-16 0)
(1 6.95267e-16 0)
(1 -3.43024e-16 0)
(1 2.89763e-16 0)
(1 -6.32198e-17 0)
(1 -5.18499e-16 0)
(1 -8.95785e-16 0)
(1 1.57302e-16 0)
(1 2.7051e-16 0)
(1 1.43531e-15 0)
(1 -2.60356e-15 0)
(1 -1.13165e-15 0)
(1 -8.42225e-16 0)
(1 1.06516e-15 0)
(1 -1.03425e-15 0)
(1 -1.46653e-16 0)
(1 -1.23254e-15 0)
(1 -1.45073e-15 0)
(1 2.491e-16 0)
(1 -1.98278e-15 0)
(1 -4.31852e-16 0)
(1 -1.18241e-15 0)
(1 1.44373e-15 0)
(1 5.86692e-16 0)
(1 1.63457e-15 0)
(1 8.28205e-16 0)
(1 1.60767e-15 0)
(1 4.57021e-16 0)
(1 4.4034e-16 0)
(1 8.02828e-16 0)
(1 1.60039e-15 0)
(1 5.12686e-15 0)
(1 8.47275e-16 0)
(1 -3.41789e-16 0)
(1 -2.10984e-15 0)
(1 -7.33392e-16 0)
(1 -6.0689e-16 0)
(1 -4.6294e-16 0)
(1 -3.29e-16 0)
(1 1.47075e-16 0)
(1 -2.32988e-15 0)
(1 -2.18077e-15 0)
(1 -5.16635e-16 0)
(1 -4.41861e-16 0)
(1 1.55704e-15 0)
(1 2.62692e-15 0)
(1 4.472e-15 0)
(1 2.51237e-15 0)
(1 2.12752e-15 0)
(1 8.29948e-16 0)
(1 -3.08778e-16 0)
(1 -1.57646e-15 0)
(1 -1.05628e-15 0)
(1 -1.079e-15 0)
(1 -1.21008e-15 0)
(1 6.6004e-16 0)
(1 -1.18797e-15 0)
(1 -1.88989e-15 0)
(1 -1.56278e-15 0)
(1 -2.07598e-15 0)
(1 -1.95056e-15 0)
(1 -1.05667e-15 0)
(1 3.42543e-16 0)
(1 5.06101e-16 0)
(1 1.57359e-15 0)
(1 8.35523e-16 0)
(1 -7.0167e-16 0)
(1 -1.39646e-15 0)
(1 2.81102e-17 0)
(1 3.15272e-16 0)
(1 7.8501e-16 0)
(1 4.88296e-16 0)
(1 1.41271e-15 0)
(1 3.36837e-15 0)
(1 1.6281e-15 0)
(1 7.10839e-16 0)
(1 -1.19482e-15 0)
(1 -9.89661e-16 0)
(1 -2.49108e-16 0)
(1 2.53787e-16 0)
(1 1.08329e-15 0)
(1 8.7167e-16 0)
(1 1.20064e-15 0)
(1 -1.36328e-16 0)
(1 -2.75785e-17 0)
(1 -6.00654e-16 0)
(1 -2.94072e-16 0)
(1 -5.73446e-16 0)
(1 -3.81953e-16 0)
(1 -1.0705e-15 0)
(1 -6.05554e-16 0)
(1 3.84588e-16 0)
(1 4.44713e-16 0)
(1 -2.1716e-16 0)
(1 -6.56998e-16 0)
(1 -3.01329e-16 0)
(1 -2.3963e-16 0)
(1 -1.82041e-16 0)
(1 -1.38255e-16 0)
(1 -1.41736e-15 0)
(1 -1.39187e-15 0)
(1 -8.92656e-16 0)
(1 1.15039e-15 0)
(1 -1.20742e-16 0)
(1 1.71751e-16 0)
(1 -8.78016e-17 0)
(1 -1.92543e-15 0)
(1 -1.11546e-15 0)
(1 -8.95321e-16 0)
(1 7.12136e-17 0)
(1 -8.22207e-16 0)
(1 -3.75857e-16 0)
(1 -6.4416e-16 0)
(1 1.70568e-16 0)
(1 -1.47451e-15 0)
(1 -2.6482e-16 0)
(1 -1.21434e-15 0)
(1 -1.13314e-15 0)
(1 1.09152e-15 0)
(1 -3.05029e-15 0)
(1 -1.63892e-15 0)
(1 -3.34406e-15 0)
(1 2.21378e-15 0)
(1 1.93402e-15 0)
(1 3.34454e-15 0)
(1 3.25212e-16 0)
(1 -2.34437e-16 0)
(1 2.38869e-16 0)
(1 2.44139e-15 0)
(1 2.17707e-15 0)
(1 2.9756e-15 0)
(1 4.54284e-15 0)
(1 1.32732e-15 0)
(1 8.03634e-16 0)
(1 -8.93593e-16 0)
(1 -1.8216e-15 0)
(1 -2.64468e-15 0)
(1 -1.66633e-15 0)
(1 2.13472e-16 0)
(1 4.23376e-16 0)
(1 -3.94591e-16 0)
(1 1.51806e-15 0)
(1 1.4769e-16 0)
(1 1.1159e-15 0)
(1 1.72689e-15 0)
(1 2.47668e-15 0)
(1 4.41107e-15 0)
(1 1.83289e-15 0)
(1 1.60351e-15 0)
(1 -9.6571e-16 0)
(1 -7.72623e-16 0)
(1 -2.13681e-15 0)
(1 -7.31168e-16 0)
(1 -1.73547e-15 0)
(1 -9.66216e-16 0)
(1 -1.46027e-15 0)
(1 4.46838e-16 0)
(1 -5.18593e-16 0)
(1 1.04181e-16 0)
(1 -1.44267e-15 0)
(1 -1.82462e-15 0)
(1 -1.4671e-15 0)
(1 -9.63818e-16 0)
(1 2.0926e-15 0)
(1 2.90334e-15 0)
(1 1.86002e-15 0)
(1 -5.02797e-16 0)
(1 6.91905e-16 0)
(1 9.29937e-16 0)
(1 1.71704e-16 0)
(1 -2.08153e-16 0)
(1 -4.87029e-16 0)
(1 1.74499e-16 0)
(1 1.25696e-15 0)
(1 7.30188e-16 0)
(1 -3.54627e-16 0)
(1 -1.08488e-15 0)
(1 -8.10494e-16 0)
(1 1.50084e-15 0)
(1 1.97801e-15 0)
(1 1.48353e-15 0)
(1 1.98253e-15 0)
(1 1.5409e-15 0)
(1 9.09056e-17 0)
(1 -2.93558e-16 0)
(1 -2.02695e-15 0)
(1 -1.78044e-15 0)
(1 -1.53972e-15 0)
(1 -1.84689e-15 0)
(1 -5.93107e-16 0)
(1 -1.27979e-15 0)
(1 -1.10051e-15 0)
(1 -3.93582e-16 0)
(1 -2.10387e-17 0)
(1 4.79515e-16 0)
(1 -6.10525e-16 0)
(1 1.35008e-16 0)
(1 -1.40128e-15 0)
(1 3.29867e-16 0)
(1 3.86254e-16 0)
(1 -1.44798e-15 0)
(1 -1.29171e-15 0)
(1 -2.07998e-16 0)
(1 4.70321e-16 0)
(1 2.02461e-15 0)
(1 1.08704e-15 0)
(1 5.92845e-16 0)
(1 7.18584e-17 0)
(1 -8.72474e-16 0)
(1 -7.18234e-16 0)
(1 -7.54129e-17 0)
(1 -9.63725e-17 0)
(1 -1.2633e-15 0)
(1 -1.82867e-15 0)
(1 -3.0387e-15 0)
(1 -2.61618e-15 0)
(1 -1.49042e-15 0)
(1 -2.31209e-16 0)
(1 1.40489e-15 0)
(1 -3.85689e-16 0)
(1 -1.57487e-15 0)
(1 -6.2639e-16 0)
(1 2.26553e-15 0)
(1 9.71807e-16 0)
(1 8.80942e-16 0)
(1 -4.15138e-16 0)
(1 -2.52209e-15 0)
(1 -1.21035e-15 0)
(1 2.14118e-15 0)
(1 9.64643e-16 0)
(1 4.04288e-15 0)
(1 9.25558e-16 0)
(1 4.53302e-15 0)
(1 1.63731e-15 0)
(1 3.45441e-16 0)
(1 -3.98485e-15 0)
(1 -3.38003e-15 0)
(1 -4.29718e-15 0)
(1 -4.31768e-16 0)
(1 -2.16817e-16 0)
(1 2.18404e-15 0)
(1 2.63388e-15 0)
(1 3.50802e-15 0)
(1 1.93382e-15 0)
(1 2.18282e-15 0)
(1 1.36624e-15 0)
(1 2.38423e-15 0)
(1 1.31722e-15 0)
(1 3.05741e-16 0)
(1 6.70609e-16 0)
(1 7.53397e-16 0)
(1 -9.04417e-16 0)
(1 -2.72133e-15 0)
(1 -3.59595e-15 0)
(1 -2.18021e-15 0)
(1 -3.62901e-15 0)
(1 -2.28655e-15 0)
(1 -1.40319e-15 0)
(1 -1.46497e-15 0)
(1 -1.93504e-15 0)
(1 -7.57287e-16 0)
(1 -1.20697e-15 0)
(1 -3.24938e-16 0)
(1 5.44671e-16 0)
(1 7.64593e-16 0)
(1 1.88798e-15 0)
(1 1.76156e-15 0)
(1 2.31539e-15 0)
(1 -6.21579e-16 0)
(1 -3.53231e-16 0)
(1 -1.10059e-15 0)
(1 4.86356e-16 0)
(1 1.35434e-15 0)
(1 2.01498e-15 0)
(1 2.22797e-15 0)
(1 6.26032e-16 0)
(1 1.0917e-15 0)
(1 1.29856e-15 0)
(1 3.80356e-16 0)
(1 3.87894e-16 0)
(1 1.47676e-15 0)
(1 1.97926e-15 0)
(1 1.71141e-15 0)
(1 8.79607e-16 0)
(1 8.8829e-16 0)
(1 -1.82657e-15 0)
(1 -5.51236e-16 0)
(1 -1.3676e-15 0)
(1 -5.0781e-16 0)
(1 -1.77356e-17 0)
(1 2.90625e-16 0)
(1 -1.14655e-15 0)
(1 1.03259e-15 0)
(1 -3.41673e-16 0)
(1 1.07975e-15 0)
(1 -7.49634e-18 0)
(1 1.59513e-15 0)
(1 2.36366e-16 0)
(1 -5.57144e-16 0)
(1 -1.03029e-15 0)
(1 -1.08479e-15 0)
(1 6.41924e-16 0)
(1 -3.08119e-16 0)
(1 1.72834e-15 0)
(1 6.59576e-16 0)
(1 -8.04225e-16 0)
(1 1.03894e-16 0)
(1 -2.2098e-15 0)
(1 1.32255e-16 0)
(1 -1.60019e-15 0)
(1 -5.31444e-16 0)
(1 -6.09753e-18 0)
(1 -1.25366e-15 0)
(1 -1.23631e-15 0)
(1 -1.77198e-15 0)
(1 -1.15715e-15 0)
(1 -1.91616e-16 0)
(1 7.34283e-16 0)
(1 -7.87883e-16 0)
(1 1.4916e-15 0)
(1 -8.95529e-16 0)
(1 1.31182e-15 0)
(1 -2.91287e-16 0)
(1 9.40016e-16 0)
(1 -1.96327e-15 0)
(1 -1.94832e-15 0)
(1 -1.78436e-17 0)
(1 6.03581e-16 0)
(1 1.02824e-15 0)
(1 2.07336e-15 0)
(1 3.345e-15 0)
(1 6.11091e-17 0)
(1 2.36038e-15 0)
(1 1.73661e-15 0)
(1 1.44287e-15 0)
(1 -2.34905e-16 0)
(1 -3.43545e-16 0)
(1 -2.12227e-15 0)
(1 8.87728e-16 0)
(1 2.91587e-15 0)
(1 1.68278e-15 0)
(1 -2.24305e-16 0)
(1 6.18304e-16 0)
(1 -1.36079e-15 0)
(1 -3.09356e-16 0)
(1 3.46635e-15 0)
(1 2.04257e-15 0)
(1 4.65627e-15 0)
(1 -4.9063e-16 0)
(1 1.43319e-15 0)
(1 -1.53322e-15 0)
(1 -1.12481e-15 0)
(1 -1.60796e-15 0)
(1 -1.01499e-15 0)
(1 -1.90613e-15 0)
(1 -8.52228e-16 0)
(1 -3.11649e-15 0)
(1 -1.81282e-15 0)
(1 -2.6374e-15 0)
(1 -8.43946e-16 0)
(1 1.29333e-15 0)
(1 2.2875e-15 0)
(1 1.4445e-15 0)
(1 -1.42974e-15 0)
(1 -1.01941e-15 0)
(1 -8.34153e-16 0)
(1 7.84223e-16 0)
(1 1.48281e-15 0)
(1 1.86581e-15 0)
(1 1.71786e-15 0)
(1 -4.42434e-16 0)
(1 -2.25933e-16 0)
(1 1.78402e-15 0)
(1 1.59785e-15 0)
(1 9.63192e-16 0)
(1 2.43174e-16 0)
(1 3.71413e-15 0)
(1 2.74351e-15 0)
(1 2.20587e-15 0)
(1 1.21133e-15 0)
(1 3.3601e-16 0)
(1 1.69288e-17 0)
(1 1.36134e-15 0)
(1 2.56474e-15 0)
(1 2.36951e-15 0)
(1 2.87691e-15 0)
(1 4.23018e-15 0)
(1 4.755e-15 0)
(1 1.66127e-15 0)
(1 -1.53806e-15 0)
(1 -1.18263e-15 0)
(1 -1.06787e-15 0)
(1 -2.02881e-15 0)
(1 -2.42955e-15 0)
(1 -2.65038e-15 0)
(1 -9.30523e-16 0)
(1 -2.05773e-16 0)
(1 2.94618e-15 0)
(1 6.95159e-16 0)
(1 6.33203e-16 0)
(1 1.25081e-15 0)
(1 -7.96041e-16 0)
(1 -1.76644e-15 0)
(1 -5.14164e-16 0)
(1 -1.10066e-15 0)
(1 -6.94914e-16 0)
(1 -1.46026e-15 0)
(1 -1.51092e-15 0)
(1 -1.83674e-15 0)
(1 -5.79161e-16 0)
(1 -9.21042e-16 0)
(1 -5.69979e-16 0)
(1 -5.2954e-16 0)
(1 -1.04707e-15 0)
(1 1.27615e-15 0)
(1 1.55817e-15 0)
(1 2.97618e-15 0)
(1 2.45632e-15 0)
(1 -9.88841e-16 0)
(1 1.18481e-16 0)
(1 3.03016e-16 0)
(1 3.06088e-15 0)
(1 -2.96014e-16 0)
(1 1.04742e-16 0)
(1 -1.83163e-15 0)
(1 -2.58252e-15 0)
(1 1.42785e-15 0)
(1 1.47762e-15 0)
(1 1.25759e-15 0)
(1 9.02903e-16 0)
(1 1.1969e-15 0)
(1 1.05786e-15 0)
(1 1.27082e-15 0)
(1 2.54125e-16 0)
(1 1.89782e-15 0)
(1 1.39226e-15 0)
(1 1.37832e-15 0)
(1 3.51592e-15 0)
(1 1.01718e-15 0)
(1 2.82498e-15 0)
(1 -3.45164e-16 0)
(1 -1.24003e-15 0)
(1 -3.60914e-15 0)
(1 -2.65872e-15 0)
(1 -1.55057e-15 0)
(1 1.62389e-15 0)
(1 1.84738e-15 0)
(1 2.18691e-15 0)
(1 3.53936e-15 0)
(1 9.52169e-16 0)
(1 -2.22774e-15 0)
(1 -3.75055e-15 0)
(1 -1.21153e-15 0)
(1 -3.66473e-16 0)
(1 -1.24678e-15 0)
(1 -5.93292e-16 0)
(1 1.16951e-16 0)
(1 -8.67461e-16 0)
(1 -8.86867e-16 0)
(1 4.17922e-16 0)
(1 2.1767e-15 0)
(1 2.938e-15 0)
(1 3.74763e-17 0)
(1 -2.26256e-15 0)
(1 -2.74965e-15 0)
(1 -1.12958e-15 0)
(1 2.85377e-15 0)
(1 1.59955e-15 0)
(1 2.68592e-15 0)
(1 5.33777e-16 0)
(1 2.59357e-17 0)
(1 -8.36727e-16 0)
(1 1.16178e-16 0)
(1 1.86821e-15 0)
(1 1.75929e-15 0)
(1 9.36512e-16 0)
(1 7.37706e-16 0)
(1 2.02453e-15 0)
(1 3.37263e-15 0)
(1 3.46726e-15 0)
(1 1.81556e-15 0)
(1 1.62253e-15 0)
(1 5.69074e-16 0)
(1 9.69128e-16 0)
(1 5.59581e-16 0)
(1 1.26456e-15 0)
(1 7.89656e-16 0)
(1 9.07821e-16 0)
(1 6.41665e-16 0)
(1 -1.51017e-15 0)
(1 -1.11485e-15 0)
(1 2.97951e-16 0)
(1 5.31028e-16 0)
(1 6.05659e-16 0)
(1 7.69938e-16 0)
(1 1.03062e-15 0)
(1 1.04586e-16 0)
(1 5.84597e-16 0)
(1 8.70783e-16 0)
(1 7.38893e-16 0)
(1 6.01998e-16 0)
(1 -7.29256e-17 0)
(1 -3.27737e-16 0)
(1 1.71946e-16 0)
(1 1.20136e-15 0)
(1 1.01256e-15 0)
(1 -7.54492e-16 0)
(1 7.128e-16 0)
(1 -3.8193e-16 0)
(1 9.86884e-16 0)
(1 2.865e-17 0)
(1 -2.6404e-17 0)
(1 1.64668e-16 0)
(1 5.49196e-16 0)
(1 2.32691e-15 0)
(1 2.64709e-15 0)
(1 2.34767e-15 0)
(1 2.81392e-15 0)
(1 -1.05735e-15 0)
(1 1.19428e-15 0)
(1 -1.23526e-15 0)
(1 2.61356e-15 0)
(1 5.69923e-16 0)
(1 1.78388e-16 0)
(1 9.66838e-16 0)
(1 -9.32472e-16 0)
(1 -2.64003e-16 0)
(1 -1.55579e-15 0)
(1 -7.23932e-16 0)
(1 -4.16215e-16 0)
(1 7.45533e-16 0)
(1 3.96618e-15 0)
(1 3.25214e-15 0)
(1 2.09785e-15 0)
(1 1.45535e-15 0)
(1 1.09281e-15 0)
(1 1.64144e-15 0)
(1 3.58868e-15 0)
(1 -9.88668e-16 0)
(1 -1.47318e-15 0)
(1 -3.34299e-15 0)
(1 -2.31376e-15 0)
(1 -3.14486e-15 0)
(1 1.77202e-15 0)
(1 1.49085e-15 0)
(1 1.52193e-15 0)
(1 4.84611e-16 0)
(1 -1.67975e-15 0)
(1 9.16068e-17 0)
(1 -7.4557e-16 0)
(1 -1.14246e-15 0)
(1 -6.68447e-16 0)
(1 -6.7568e-16 0)
(1 -1.71796e-15 0)
(1 -3.80402e-16 0)
(1 -8.96832e-16 0)
(1 1.00982e-15 0)
(1 -2.90461e-15 0)
(1 -1.48836e-15 0)
(1 -1.84069e-15 0)
(1 -1.10765e-15 0)
(1 9.68713e-16 0)
(1 2.13239e-15 0)
(1 1.85596e-15 0)
(1 -2.53126e-16 0)
(1 7.3375e-16 0)
(1 8.94384e-16 0)
(1 1.04979e-15 0)
(1 2.01686e-16 0)
(1 6.58561e-16 0)
(1 4.20852e-15 0)
(1 2.90205e-15 0)
(1 1.23713e-15 0)
(1 4.50736e-16 0)
(1 2.56952e-15 0)
(1 1.68009e-15 0)
(1 -6.33204e-17 0)
(1 6.60804e-16 0)
(1 3.73514e-15 0)
(1 3.67886e-15 0)
(1 3.94962e-15 0)
(1 1.96771e-15 0)
(1 1.84352e-15 0)
(1 1.8776e-15 0)
(1 2.51883e-15 0)
(1 1.89773e-15 0)
(1 4.32299e-16 0)
(1 -8.56569e-16 0)
(1 6.07868e-16 0)
(1 1.65388e-15 0)
(1 1.06547e-15 0)
(1 8.01797e-16 0)
(1 1.20122e-15 0)
(1 1.9628e-15 0)
(1 1.62241e-15 0)
(1 1.55973e-15 0)
(1 -2.08644e-16 0)
(1 -5.59897e-16 0)
(1 -1.47092e-15 0)
(1 -2.02454e-15 0)
(1 -1.47462e-15 0)
(1 -2.00447e-16 0)
(1 1.42835e-15 0)
(1 6.3677e-16 0)
(1 -7.20228e-16 0)
(1 -1.0852e-15 0)
(1 -8.14175e-16 0)
(1 5.81254e-17 0)
(1 1.02584e-15 0)
(1 -6.53467e-16 0)
(1 1.38018e-16 0)
(1 -3.26424e-16 0)
(1 1.39876e-16 0)
(1 1.8138e-16 0)
(1 8.7653e-16 0)
(1 2.94919e-15 0)
(1 2.51137e-15 0)
(1 4.83419e-15 0)
(1 -6.90995e-17 0)
(1 -3.47499e-16 0)
(1 1.45301e-15 0)
(1 -2.54878e-15 0)
(1 -2.19935e-16 0)
(1 -9.56859e-16 0)
(1 1.34358e-15 0)
(1 1.83318e-15 0)
(1 -2.46931e-15 0)
(1 -2.83551e-16 0)
(1 3.23517e-16 0)
(1 2.03502e-15 0)
(1 1.87935e-15 0)
(1 4.30261e-15 0)
(1 1.25697e-15 0)
(1 3.02681e-15 0)
(1 1.47878e-17 0)
(1 4.15728e-15 0)
(1 1.48244e-15 0)
(1 3.68566e-16 0)
(1 -1.76413e-15 0)
(1 -7.15919e-16 0)
(1 -3.10277e-16 0)
(1 9.4984e-16 0)
(1 -1.18746e-15 0)
(1 2.24809e-16 0)
(1 -1.68653e-15 0)
(1 -3.72496e-16 0)
(1 -3.17848e-15 0)
(1 -1.93182e-15 0)
(1 -5.96535e-15 0)
(1 -2.90883e-15 0)
(1 -2.96332e-15 0)
(1 6.84762e-16 0)
(1 5.30091e-16 0)
(1 4.91119e-16 0)
(1 5.03623e-16 0)
(1 -5.42237e-16 0)
(1 -1.77517e-16 0)
(1 -1.93794e-15 0)
(1 -1.38654e-15 0)
(1 1.69979e-15 0)
(1 1.0711e-15 0)
(1 3.3311e-15 0)
(1 5.04487e-15 0)
(1 5.24033e-15 0)
(1 2.42662e-15 0)
(1 -8.87066e-16 0)
(1 -1.57864e-15 0)
(1 -1.65481e-15 0)
(1 -6.18519e-16 0)
(1 1.76781e-15 0)
(1 2.84023e-15 0)
(1 2.73659e-15 0)
(1 8.30345e-16 0)
(1 -1.52621e-16 0)
(1 1.25681e-15 0)
(1 3.38039e-15 0)
(1 2.77357e-15 0)
(1 3.22565e-15 0)
(1 2.0662e-15 0)
(1 2.75268e-15 0)
(1 -3.63535e-16 0)
(1 -5.83005e-17 0)
(1 1.46761e-15 0)
(1 4.50516e-15 0)
(1 4.78841e-15 0)
(1 7.73019e-15 0)
(1 5.29197e-15 0)
(1 5.22621e-15 0)
(1 1.78149e-15 0)
(1 3.02707e-15 0)
(1 1.447e-15 0)
(1 -3.67098e-16 0)
(1 -2.19693e-15 0)
(1 -1.75795e-15 0)
(1 -1.03049e-16 0)
(1 4.44806e-16 0)
(1 5.49184e-16 0)
(1 1.62598e-15 0)
(1 -3.63503e-16 0)
(1 1.23535e-15 0)
(1 4.22466e-16 0)
(1 -1.01433e-15 0)
(1 -1.56925e-15 0)
(1 -2.95298e-15 0)
(1 -1.64107e-15 0)
(1 -1.15422e-15 0)
(1 7.28176e-17 0)
(1 -4.08264e-16 0)
(1 -5.2806e-17 0)
(1 -6.45673e-16 0)
(1 9.94251e-16 0)
(1 7.71022e-16 0)
(1 3.01325e-15 0)
(1 2.28481e-15 0)
(1 4.51505e-15 0)
(1 6.2728e-15 0)
(1 7.21416e-15 0)
(1 7.47875e-15 0)
(1 7.60932e-16 0)
(1 9.182e-16 0)
(1 2.92148e-15 0)
(1 5.71764e-16 0)
(1 -1.36619e-15 0)
(1 -1.61285e-16 0)
(1 7.5705e-16 0)
(1 2.1653e-15 0)
(1 4.83251e-16 0)
(1 5.24753e-16 0)
(1 2.05675e-15 0)
(1 1.51505e-15 0)
(1 1.88397e-15 0)
(1 1.47883e-16 0)
(1 5.28758e-16 0)
(1 -7.96141e-16 0)
(1 6.64801e-16 0)
(1 1.58656e-15 0)
(1 -7.48128e-16 0)
(1 -2.49291e-15 0)
(1 -2.3268e-15 0)
(1 -2.30304e-15 0)
(1 1.16771e-15 0)
(1 1.05081e-15 0)
(1 1.67246e-15 0)
(1 1.12023e-15 0)
(1 1.29121e-15 0)
(1 -1.06328e-15 0)
(1 -1.51775e-15 0)
(1 -1.7421e-15 0)
(1 -3.06885e-15 0)
(1 -3.52248e-15 0)
(1 -3.20854e-15 0)
(1 -2.29907e-15 0)
(1 -3.88516e-15 0)
(1 -1.3768e-15 0)
(1 -1.54853e-15 0)
(1 -5.8652e-17 0)
(1 -2.04202e-15 0)
(1 3.98093e-16 0)
(1 -1.50758e-16 0)
(1 2.1716e-15 0)
(1 1.6221e-15 0)
(1 2.18621e-15 0)
(1 3.90304e-16 0)
(1 6.31787e-16 0)
(1 2.20887e-16 0)
(1 -1.10143e-15 0)
(1 9.4546e-16 0)
(1 1.2511e-15 0)
(1 3.37681e-15 0)
(1 3.51441e-15 0)
(1 2.33472e-15 0)
(1 1.32146e-15 0)
(1 2.13072e-15 0)
(1 2.54208e-15 0)
(1 2.19845e-15 0)
(1 3.3219e-15 0)
(1 2.65108e-15 0)
(1 4.30263e-15 0)
(1 2.90289e-15 0)
(1 2.45303e-15 0)
(1 3.39425e-15 0)
(1 4.12549e-15 0)
(1 2.74919e-15 0)
(1 2.112e-15 0)
(1 3.58008e-15 0)
(1 4.83405e-15 0)
(1 5.85329e-15 0)
(1 3.97279e-15 0)
(1 8.94752e-16 0)
(1 1.59095e-15 0)
(1 -3.32281e-16 0)
(1 1.80989e-16 0)
(1 -9.27403e-16 0)
(1 3.21774e-16 0)
(1 1.38321e-15 0)
(1 2.01769e-15 0)
(1 2.10132e-15 0)
(1 1.28214e-15 0)
(1 -4.02908e-17 0)
(1 -3.24065e-16 0)
(1 -1.57491e-15 0)
(1 -2.22195e-15 0)
(1 -1.69312e-15 0)
(1 -1.24229e-15 0)
(1 5.55936e-16 0)
(1 -5.85837e-16 0)
(1 1.05387e-16 0)
(1 -7.42579e-16 0)
(1 1.22174e-16 0)
(1 4.16603e-16 0)
(1 1.16836e-15 0)
(1 1.58735e-15 0)
(1 2.95165e-15 0)
(1 1.1721e-15 0)
(1 4.68721e-15 0)
(1 5.13708e-15 0)
(1 9.96843e-15 0)
(1 8.24882e-15 0)
(1 1.47167e-16 0)
(1 9.08775e-16 0)
(1 -6.31978e-17 0)
(1 1.35815e-15 0)
(1 -8.2572e-16 0)
(1 5.00502e-16 0)
(1 6.78052e-16 0)
(1 -7.97493e-16 0)
(1 1.45316e-15 0)
(1 -1.84766e-15 0)
(1 -9.83471e-16 0)
(1 -7.31342e-16 0)
(1 1.23253e-15 0)
(1 -8.95692e-16 0)
(1 2.3713e-15 0)
(1 2.09783e-15 0)
(1 5.12944e-15 0)
(1 -1.84065e-16 0)
(1 -1.71183e-16 0)
(1 -2.10398e-15 0)
(1 -1.27511e-17 0)
(1 -1.5993e-15 0)
(1 -9.9858e-16 0)
(1 -3.46385e-15 0)
(1 -1.20817e-15 0)
(1 -9.86087e-16 0)
(1 1.66781e-15 0)
(1 -1.90606e-16 0)
(1 1.21424e-16 0)
(1 -1.63073e-15 0)
(1 -1.64035e-15 0)
(1 -4.17539e-15 0)
(1 -3.44346e-15 0)
(1 -1.78332e-15 0)
(1 -1.47674e-15 0)
(1 -3.79141e-16 0)
(1 -5.94768e-16 0)
(1 5.40712e-16 0)
(1 -7.78046e-16 0)
(1 -9.76524e-17 0)
(1 1.39602e-15 0)
(1 -1.63338e-15 0)
(1 2.10902e-15 0)
(1 -9.3663e-16 0)
(1 -4.15223e-16 0)
(1 -5.99151e-16 0)
(1 1.71117e-15 0)
(1 2.96227e-16 0)
(1 1.25393e-15 0)
(1 2.22621e-15 0)
(1 3.91811e-15 0)
(1 3.08207e-15 0)
(1 3.91478e-15 0)
(1 1.89717e-15 0)
(1 3.23504e-15 0)
(1 1.89262e-15 0)
(1 2.44201e-15 0)
(1 1.42149e-15 0)
(1 3.16819e-15 0)
(1 1.7532e-15 0)
(1 4.93504e-15 0)
(1 1.47916e-15 0)
(1 4.68288e-15 0)
(1 2.48868e-15 0)
(1 2.92825e-15 0)
(1 1.00665e-15 0)
(1 4.66608e-15 0)
(1 2.03968e-15 0)
(1 4.55467e-15 0)
(1 2.84442e-15 0)
(1 4.35422e-15 0)
(1 1.82701e-15 0)
(1 2.46897e-16 0)
(1 -1.70384e-15 0)
(1 -7.84371e-16 0)
(1 1.58996e-15 0)
(1 3.07531e-15 0)
(1 1.87331e-15 0)
(1 2.70539e-15 0)
(1 3.65813e-16 0)
(1 8.83463e-16 0)
(1 -1.17766e-15 0)
(1 -8.59284e-16 0)
(1 -1.49037e-15 0)
(1 -1.12243e-15 0)
(1 -4.79043e-16 0)
(1 -7.82679e-16 0)
(1 -1.62656e-16 0)
(1 2.62783e-16 0)
(1 -5.12925e-16 0)
(1 -3.69781e-16 0)
(1 -3.94146e-16 0)
(1 7.10585e-16 0)
(1 -1.81712e-16 0)
(1 1.1765e-15 0)
(1 7.77407e-16 0)
(1 3.32253e-15 0)
(1 3.21808e-15 0)
(1 6.02439e-15 0)
(1 5.92095e-15 0)
(1 1.68617e-15 0)
(1 -1.71554e-15 0)
(1 1.30546e-15 0)
(1 1.09013e-16 0)
(1 9.71186e-16 0)
(1 -2.04096e-16 0)
(1 -1.12939e-15 0)
(1 2.08913e-17 0)
(1 1.10051e-15 0)
(1 4.02076e-15 0)
(1 2.66263e-15 0)
(1 2.45243e-15 0)
(1 1.57999e-15 0)
(1 -8.51103e-16 0)
(1 -1.33322e-15 0)
(1 1.2084e-15 0)
(1 1.83892e-15 0)
(1 -2.41292e-15 0)
(1 -1.62926e-15 0)
(1 -4.0318e-15 0)
(1 -1.69899e-15 0)
(1 -7.16025e-16 0)
(1 5.9216e-16 0)
(1 2.45533e-15 0)
(1 1.24127e-15 0)
(1 6.38133e-16 0)
(1 -1.38448e-15 0)
(1 -1.11492e-15 0)
(1 4.40174e-16 0)
(1 2.00129e-16 0)
(1 -1.56608e-15 0)
(1 -3.64086e-15 0)
(1 -3.55807e-15 0)
(1 -3.59664e-15 0)
(1 -1.90527e-15 0)
(1 -3.87855e-15 0)
(1 -3.06295e-15 0)
(1 -1.7134e-15 0)
(1 -1.85067e-16 0)
(1 -8.04538e-16 0)
(1 8.61084e-16 0)
(1 -1.05732e-15 0)
(1 1.50796e-16 0)
(1 -2.95957e-15 0)
(1 -4.58234e-16 0)
(1 2.57383e-15 0)
(1 4.73501e-15 0)
(1 3.53941e-15 0)
(1 2.75675e-15 0)
(1 1.04168e-15 0)
(1 1.77982e-15 0)
(1 1.99135e-15 0)
(1 2.34597e-15 0)
(1 4.53789e-15 0)
(1 4.33564e-15 0)
(1 3.15257e-15 0)
(1 1.60285e-15 0)
(1 1.34958e-15 0)
(1 1.87306e-15 0)
(1 2.10002e-15 0)
(1 3.89883e-15 0)
(1 5.3617e-15 0)
(1 3.64449e-15 0)
(1 9.43066e-16 0)
(1 2.3768e-15 0)
(1 2.04938e-15 0)
(1 2.76409e-15 0)
(1 2.76437e-15 0)
(1 1.07757e-15 0)
(1 3.18882e-15 0)
(1 3.53139e-15 0)
(1 2.4546e-15 0)
(1 1.85258e-15 0)
(1 -6.11513e-16 0)
(1 -1.86829e-16 0)
(1 -1.02624e-17 0)
(1 1.05316e-15 0)
(1 2.01904e-15 0)
(1 2.57273e-15 0)
(1 7.468e-16 0)
(1 1.49418e-15 0)
(1 1.80325e-15 0)
(1 5.24564e-16 0)
(1 1.50284e-16 0)
(1 -1.55989e-15 0)
(1 -3.1627e-15 0)
(1 -1.84019e-15 0)
(1 -5.83549e-16 0)
(1 3.23992e-16 0)
(1 -1.63829e-15 0)
(1 -9.81536e-16 0)
(1 -3.05204e-16 0)
(1 1.08875e-15 0)
(1 5.67813e-16 0)
(1 1.60318e-15 0)
(1 4.63176e-15 0)
(1 3.94269e-15 0)
(1 3.94502e-15 0)
(1 1.11865e-15 0)
(1 3.21375e-15 0)
(1 1.90275e-15 0)
(1 5.55579e-16 0)
(1 -7.29065e-16 0)
(1 -1.35471e-16 0)
(1 9.46363e-16 0)
(1 1.33018e-15 0)
(1 5.65011e-16 0)
(1 7.2845e-16 0)
(1 1.3707e-16 0)
(1 2.47743e-15 0)
(1 2.49145e-15 0)
(1 2.921e-15 0)
(1 1.59691e-15 0)
(1 2.01659e-15 0)
(1 -6.82125e-16 0)
(1 -6.07511e-16 0)
(1 -1.43347e-15 0)
(1 -9.52775e-16 0)
(1 1.00241e-16 0)
(1 -2.65463e-16 0)
(1 -6.33074e-16 0)
(1 -4.565e-15 0)
(1 -2.74751e-15 0)
(1 -1.71666e-15 0)
(1 -4.80471e-16 0)
(1 3.76686e-16 0)
(1 -2.68746e-16 0)
(1 -1.46186e-15 0)
(1 -1.68198e-15 0)
(1 -3.68487e-15 0)
(1 -3.0353e-15 0)
(1 -4.15252e-15 0)
(1 -3.24184e-15 0)
(1 -2.77469e-15 0)
(1 -2.50936e-15 0)
(1 -1.00154e-15 0)
(1 3.75549e-16 0)
(1 -2.35e-16 0)
(1 -4.14252e-17 0)
(1 -1.22894e-15 0)
(1 -3.54161e-15 0)
(1 -6.90267e-16 0)
(1 -1.38764e-15 0)
(1 -8.83129e-16 0)
(1 4.94315e-17 0)
(1 2.20736e-15 0)
(1 1.38016e-15 0)
(1 5.57517e-15 0)
(1 4.19963e-15 0)
(1 3.27184e-15 0)
(1 1.17386e-15 0)
(1 1.43693e-15 0)
(1 1.32585e-15 0)
(1 2.54006e-15 0)
(1 3.35187e-15 0)
(1 2.36535e-15 0)
(1 2.47339e-15 0)
(1 1.42147e-15 0)
(1 2.3897e-16 0)
(1 9.49773e-16 0)
(1 7.38553e-16 0)
(1 4.525e-15 0)
(1 6.19648e-15 0)
(1 6.98378e-15 0)
(1 5.63457e-15 0)
(1 3.15176e-15 0)
(1 -4.94746e-16 0)
(1 -1.90366e-17 0)
(1 1.31564e-16 0)
(1 1.36593e-15 0)
(1 1.19205e-15 0)
(1 9.82333e-16 0)
(1 1.56706e-15 0)
(1 3.47477e-15 0)
(1 2.61447e-15 0)
(1 1.6387e-16 0)
(1 -2.31455e-15 0)
(1 1.09998e-15 0)
(1 -4.81504e-16 0)
(1 6.70463e-16 0)
(1 4.85185e-16 0)
(1 1.47679e-15 0)
(1 -5.22832e-16 0)
(1 2.0155e-16 0)
(1 -5.56525e-17 0)
(1 -5.58812e-16 0)
(1 -1.32721e-15 0)
(1 -9.54603e-16 0)
(1 -1.56487e-15 0)
(1 -1.19095e-15 0)
(1 -6.4611e-16 0)
(1 -2.97817e-16 0)
(1 -1.47568e-15 0)
(1 5.01701e-17 0)
(1 -2.13015e-16 0)
(1 2.51636e-15 0)
(1 1.98833e-15 0)
(1 2.66874e-15 0)
(1 1.53128e-15 0)
(1 2.99829e-15 0)
(1 -1.05482e-15 0)
(1 3.6449e-15 0)
(1 -7.02128e-16 0)
(1 -1.02827e-15 0)
(1 1.12317e-15 0)
(1 5.20867e-16 0)
(1 7.80684e-16 0)
(1 2.52259e-15 0)
(1 3.29024e-15 0)
(1 1.26919e-15 0)
(1 6.27384e-16 0)
(1 2.23345e-15 0)
(1 2.54498e-16 0)
(1 2.53203e-15 0)
(1 -2.54974e-16 0)
(1 -1.93713e-15 0)
(1 -2.0462e-15 0)
(1 9.30763e-16 0)
(1 2.81087e-16 0)
(1 8.15856e-18 0)
(1 -2.41285e-15 0)
(1 -4.18255e-15 0)
(1 -4.94667e-15 0)
(1 -2.08911e-15 0)
(1 1.25393e-15 0)
(1 -1.45137e-15 0)
(1 -5.36065e-16 0)
(1 -1.10258e-15 0)
(1 -2.98287e-15 0)
(1 -3.54677e-15 0)
(1 -3.55451e-15 0)
(1 -2.47457e-15 0)
(1 -2.1268e-15 0)
(1 -3.16085e-15 0)
(1 1.14257e-15 0)
(1 3.14992e-15 0)
(1 1.35541e-15 0)
(1 -7.75244e-16 0)
(1 -2.15818e-15 0)
(1 -2.98264e-15 0)
(1 -4.81281e-15 0)
(1 -1.70567e-15 0)
(1 -2.10785e-15 0)
(1 2.91957e-15 0)
(1 2.70688e-15 0)
(1 1.44857e-15 0)
(1 1.36367e-15 0)
(1 2.38312e-15 0)
(1 2.55241e-15 0)
(1 2.39116e-15 0)
(1 -1.04582e-16 0)
(1 6.86095e-16 0)
(1 2.87337e-15 0)
(1 5.23036e-16 0)
(1 3.1375e-15 0)
(1 3.79723e-15 0)
(1 4.94822e-15 0)
(1 5.84884e-15 0)
(1 5.01181e-15 0)
(1 3.52685e-15 0)
(1 1.43404e-15 0)
(1 1.19519e-15 0)
(1 1.6439e-15 0)
(1 4.34953e-15 0)
(1 2.95311e-15 0)
(1 5.57785e-15 0)
(1 2.49984e-15 0)
(1 2.29106e-15 0)
(1 1.91618e-15 0)
(1 7.50321e-16 0)
(1 1.33132e-15 0)
(1 9.50003e-16 0)
(1 1.79055e-15 0)
(1 4.88216e-15 0)
(1 2.72646e-15 0)
(1 2.52154e-15 0)
(1 8.03538e-16 0)
(1 1.5966e-15 0)
(1 1.11797e-15 0)
(1 2.32584e-15 0)
(1 5.82091e-17 0)
(1 -8.73833e-16 0)
(1 -3.62136e-16 0)
(1 -2.78399e-16 0)
(1 -2.39432e-16 0)
(1 6.60212e-16 0)
(1 -1.55542e-15 0)
(1 -4.20075e-16 0)
(1 -1.24629e-15 0)
(1 -1.54125e-16 0)
(1 -1.27456e-15 0)
(1 -2.67387e-17 0)
(1 -1.03682e-15 0)
(1 -1.92784e-16 0)
(1 -8.29097e-16 0)
(1 8.22139e-16 0)
(1 2.54386e-15 0)
(1 2.1276e-15 0)
(1 4.05112e-15 0)
(1 4.54313e-15 0)
(1 7.60906e-16 0)
(1 6.7084e-16 0)
(1 2.38041e-15 0)
(1 6.64046e-16 0)
(1 2.7982e-15 0)
(1 -6.97603e-16 0)
(1 -2.08241e-15 0)
(1 -2.01222e-15 0)
(1 1.31363e-15 0)
(1 4.04437e-15 0)
(1 1.77749e-15 0)
(1 1.7936e-15 0)
(1 -1.93354e-16 0)
(1 5.93152e-16 0)
(1 -9.48096e-16 0)
(1 -2.53344e-15 0)
(1 -2.51082e-15 0)
(1 -2.26799e-15 0)
(1 -3.88214e-15 0)
(1 -2.01876e-15 0)
(1 -3.45823e-15 0)
(1 1.71899e-15 0)
(1 7.75806e-16 0)
(1 1.45498e-15 0)
(1 2.05534e-15 0)
(1 4.66054e-16 0)
(1 -1.55487e-15 0)
(1 -2.71928e-15 0)
(1 -3.50906e-15 0)
(1 -2.14006e-15 0)
(1 -2.71506e-15 0)
(1 -1.22716e-15 0)
(1 -1.66079e-15 0)
(1 -4.58098e-15 0)
(1 -3.03861e-15 0)
(1 -1.8614e-15 0)
(1 -4.74468e-16 0)
(1 -7.87279e-16 0)
(1 -1.54405e-15 0)
(1 -1.11975e-15 0)
(1 -5.02671e-17 0)
(1 1.78666e-16 0)
(1 -2.64553e-15 0)
(1 1.27625e-15 0)
(1 9.70273e-16 0)
(1 2.93075e-15 0)
(1 2.68884e-15 0)
(1 -2.03752e-16 0)
(1 1.52686e-15 0)
(1 1.84994e-15 0)
(1 2.96491e-15 0)
(1 2.95648e-15 0)
(1 2.3555e-15 0)
(1 2.40699e-15 0)
(1 3.23776e-15 0)
(1 2.90733e-15 0)
(1 3.21761e-15 0)
(1 3.50593e-15 0)
(1 3.07863e-15 0)
(1 4.19525e-15 0)
(1 4.9161e-15 0)
(1 3.85604e-15 0)
(1 3.17368e-15 0)
(1 3.22678e-15 0)
(1 3.11876e-15 0)
(1 2.63923e-15 0)
(1 3.98812e-15 0)
(1 4.4946e-15 0)
(1 4.11192e-15 0)
(1 3.1295e-15 0)
(1 1.46682e-15 0)
(1 2.65579e-15 0)
(1 1.96599e-15 0)
(1 2.58995e-15 0)
(1 3.17061e-15 0)
(1 3.03993e-15 0)
(1 2.89312e-15 0)
(1 -1.01176e-16 0)
(1 9.41238e-16 0)
(1 2.52043e-15 0)
(1 6.61346e-16 0)
(1 -1.106e-15 0)
(1 -3.00218e-16 0)
(1 -3.24539e-16 0)
(1 -1.01801e-15 0)
(1 -2.05143e-15 0)
(1 -2.55814e-15 0)
(1 -3.65954e-15 0)
(1 -2.56944e-15 0)
(1 -1.72393e-15 0)
(1 -1.34124e-15 0)
(1 -3.49632e-16 0)
(1 5.05722e-16 0)
(1 9.35117e-17 0)
(1 1.31535e-15 0)
(1 7.11368e-16 0)
(1 2.76272e-15 0)
(1 2.7518e-15 0)
(1 4.33365e-15 0)
(1 4.45238e-15 0)
(1 -5.18348e-16 0)
(1 -9.81975e-16 0)
(1 -3.66039e-16 0)
(1 2.72566e-15 0)
(1 1.74894e-15 0)
(1 2.39419e-15 0)
(1 5.23202e-15 0)
(1 3.56786e-15 0)
(1 2.38512e-16 0)
(1 -1.63313e-16 0)
(1 -1.93169e-15 0)
(1 -2.37484e-15 0)
(1 -4.81946e-16 0)
(1 -8.41006e-16 0)
(1 1.1971e-15 0)
(1 -3.39657e-16 0)
(1 3.65829e-16 0)
(1 -4.03065e-15 0)
(1 -4.03246e-15 0)
(1 -3.08385e-15 0)
(1 -8.81366e-16 0)
(1 1.35595e-15 0)
(1 9.14312e-16 0)
(1 -2.65316e-15 0)
(1 -4.23331e-15 0)
(1 -2.70977e-15 0)
(1 -3.94387e-15 0)
(1 -3.90763e-15 0)
(1 -2.59807e-15 0)
(1 -2.84612e-15 0)
(1 -1.44568e-15 0)
(1 -4.98949e-16 0)
(1 4.92599e-17 0)
(1 9.2361e-16 0)
(1 -2.4755e-15 0)
(1 -8.97449e-17 0)
(1 -3.54023e-16 0)
(1 -7.80955e-16 0)
(1 -4.68687e-16 0)
(1 -1.59871e-16 0)
(1 1.28878e-15 0)
(1 -1.64501e-16 0)
(1 9.3408e-16 0)
(1 -2.5534e-15 0)
(1 -2.22453e-15 0)
(1 -1.66547e-15 0)
(1 -7.41761e-16 0)
(1 6.09775e-16 0)
(1 1.34055e-15 0)
(1 3.08997e-15 0)
(1 5.06525e-15 0)
(1 4.15559e-15 0)
(1 2.16157e-15 0)
(1 2.07635e-15 0)
(1 1.98164e-15 0)
(1 1.54155e-15 0)
(1 4.70922e-15 0)
(1 3.07385e-15 0)
(1 3.00641e-15 0)
(1 1.87942e-15 0)
(1 1.91792e-15 0)
(1 4.11657e-16 0)
(1 3.44276e-15 0)
(1 3.34829e-15 0)
(1 3.61398e-15 0)
(1 8.37568e-17 0)
(1 2.3112e-15 0)
(1 8.1379e-16 0)
(1 3.87939e-15 0)
(1 2.11194e-15 0)
(1 2.5004e-15 0)
(1 2.66361e-15 0)
(1 3.00219e-15 0)
(1 1.47635e-15 0)
(1 3.31051e-15 0)
(1 1.22753e-15 0)
(1 1.56549e-15 0)
(1 -2.78848e-16 0)
(1 1.12526e-15 0)
(1 1.00753e-15 0)
(1 -1.34342e-15 0)
(1 1.87359e-16 0)
(1 -1.47233e-15 0)
(1 2.58353e-16 0)
(1 -6.65586e-16 0)
(1 -1.8197e-15 0)
(1 -2.8406e-15 0)
(1 -4.03235e-15 0)
(1 -3.4331e-15 0)
(1 -8.44158e-16 0)