/*--------------------------------*- C++ -*----------------------------------*\
| =========                 |                                                 |
| \\      /  F ield         | OpenFOAM: The Open Source CFD Toolbox           |
|  \\    /   O peration     | Version:  v2012                                 |
|   \\  /    A nd           | Website:  www.openfoam.com                      |
|    \\/     M anipulation  |                                                 |
\*---------------------------------------------------------------------------*/
FoamFile
{
    version     2.0;
    format      ascii;
    class       volScalarField;
    location    "0";
    object      p;
}
// * * * * * * * * * * * * * * * * * * * * * * * * * * * * * * * * * * * * * //

dimensions      [0 2 -2 0 0 0 0];


internalField   nonuniform List<scalar> 
4000
(
-0.0204193
0.0978823
-0.052772
-0.0525817
0.0384941
0.125764
0.00517614
0.0346828
-0.0885231
-0.110075
-0.107393
-0.116018
-0.124476
-0.0288893
-0.011397
-0.0818466
-0.129834
0.0435465
0.278041
0.111009
-0.0712744
-0.275124
-0.298572
-0.320069
-0.340176
-0.413249
-0.405477
-0.330767
-0.208647
0.00887429
0.0757531
-0.0126193
0.0735448
0.177268
0.249914
0.284837
0.262418
0.241389
0.126171
-0.0590619
-0.2794
-0.365368
-0.439763
-0.196685
-0.0619543
-0.132151
-0.172629
-0.151314
-0.130819
-0.0942529
-0.127469
-0.139575
-0.0679483
-0.0216574
0.100778
0.146045
0.19428
0.100261
-0.0326824
-0.0598437
-0.0514434
0.0178368
0.109326
0.13921
0.0468667
0.0584098
0.0416847
0.103673
-0.00644032
-0.049734
0.0647026
-0.0545866
-0.151061
0.000919482
-0.00465662
-0.0368343
-0.194623
-0.193875
-0.0650763
-0.0423039
-0.0341241
0.082914
-0.0117802
0.0468086
-0.00566246
0.0746453
0.141824
0.156087
0.114087
0.155323
0.139099
0.0353337
-0.00974582
-0.0181399
-0.214583
-0.145976
-0.110052
-0.202663
-0.220104
-0.0693862
0.0230237
0.0553443
0.0556168
-0.0216414
0.0452769
0.061234
-0.0119245
0.01744
-0.121974
-0.137097
-0.0869774
-0.0394382
-0.126893
-0.0465968
-0.0593556
-0.0545381
-0.00481061
-0.0115624
0.166579
0.0881091
-0.0908943
-0.252147
-0.289886
-0.322417
-0.352956
-0.394336
-0.426624
-0.334792
-0.172689
0.029811
0.0894066
-0.0168972
0.126469
0.183225
0.27735
0.254831
0.261772
0.197119
0.0565525
-0.0786701
-0.229389
-0.318138
-0.340516
-0.229303
-0.174543
-0.163195
-0.20275
-0.0975979
-0.145146
-0.129931
-0.109924
-0.100604
-0.0971155
0.0313013
0.0502997
0.155691
0.223206
0.0893999
-0.0569991
-0.045495
-0.0580299
0.0273969
0.109682
0.148206
0.0366067
0.0652085
0.0606553
0.0490037
0.0572786
-0.0221958
0.0468384
-0.0557811
-0.11908
-0.038205
-0.0643955
-0.0596926
-0.145174
-0.146293
-0.0720847
-0.0375579
-0.0396666
0.0410633
-0.00573639
0.0205257
0.0541656
0.0661149
0.113776
0.19681
0.0995007
0.183904
0.112335
0.076881
-0.00031568
-0.0288655
-0.205027
-0.170328
-0.178676
-0.229697
-0.197703
-0.0530347
0.0238397
0.0705945
0.104762
-0.0200134
-0.0541597
0.0084292
0.0451374
0.0657309
-0.0475442
-0.169213
-0.114006
0.0113535
-0.0980862
-0.0770757
-0.110211
-0.0603752
0.0259941
0.0553756
0.159922
0.152224
-0.0506403
-0.205122
-0.344661
-0.327745
-0.332118
-0.413688
-0.366803
-0.253147
-0.194414
0.043754
0.0872166
0.0188307
0.129864
0.178344
0.241142
0.326543
0.176499
0.161089
0.000964029
-0.0585106
-0.14482
-0.309064
-0.319288
-0.233551
-0.213799
-0.120491
-0.166791
-0.147431
-0.169024
-0.14228
-0.074532
-0.123709
-0.0694604
0.138024
0.0972415
0.120567
0.137399
0.0295084
-0.0205998
-0.0120826
-0.0581757
-0.0445267
0.0881504
0.13747
0.0384573
0.0787691
0.0636935
0.014035
0.0891493
0.0510254
0.0675086
-0.0824712
-0.134888
-0.0354485
-0.102957
-0.0676885
-0.0594393
-0.159541
-0.0887616
0.000977519
-0.0799387
0.0105537
0.0608452
0.0375253
0.0268878
0.0504362
0.0561
0.161376
0.143725
0.131108
0.157777
0.129186
-0.0492314
-0.0710549
-0.153339
-0.241546
-0.225828
-0.284914
-0.218311
-0.0995609
0.0384332
0.0421428
0.109611
0.053976
-0.0434788
-0.0297813
0.0592221
0.0920329
-0.0515222
-0.146289
-0.111307
-0.00954069
-0.119191
0.0132595
-0.111668
0.0141211
0.0405552
0.108827
0.156671
0.109889
-0.0411065
-0.153252
-0.280791
-0.300007
-0.33303
-0.365262
-0.286413
-0.207628
-0.208989
0.0093057
0.017609
0.0794757
0.163051
0.157322
0.275261
0.291633
0.157789
0.101018
-0.0376049
-0.0076862
-0.202217
-0.286063
-0.257844
-0.240564
-0.225266
-0.101718
-0.216466
-0.168469
-0.135729
-0.105127
-0.0409419
-0.0607533
0.0191009
0.121501
0.108049
0.118378
0.12616
0.0515499
-0.0301521
0.00513105
0.00534582
-0.0213111
0.0230059
0.1215
0.0121567
0.0459185
0.0531309
-0.00966726
0.139894
0.0615848
0.0438968
-0.0351885
-0.0692088
-0.0804048
-0.0836814
-0.0399569
-0.0569529
-0.0993235
-0.0693184
-0.05921
-0.043194
0.00859097
-0.0208647
-0.00514238
-0.0286616
0.0697127
0.0713365
0.174363
0.153708
0.169604
0.0106217
0.0841621
-0.00315617
-0.110581
-0.211375
-0.190453
-0.281084
-0.330023
-0.138143
-0.0492759
0.0261217
0.0396881
0.161659
0.0498696
0.00525827
-0.033989
0.00362496
-0.0164118
-0.00608904
-0.0800225
-0.123077
-0.0352891
-0.0292061
0.0104022
-0.0516211
0.0708605
0.0759724
0.149218
0.147315
0.022532
-0.0695166
-0.0209337
-0.139019
-0.263537
-0.390831
-0.432479
-0.234511
-0.0828899
-0.150308
-0.0239009
0.0210346
0.0885501
0.119404
0.205332
0.222108
0.239268
0.253434
0.102615
-0.0734124
-0.104555
-0.213064
-0.275124
-0.260728
-0.261284
-0.211373
-0.111979
-0.184222
-0.0985743
-0.0900918
-0.163695
-0.035552
-0.00993454
0.029934
0.0507695
0.124632
0.149952
0.148987
0.0346024
-0.0652726
-0.0521729
-0.0132154
0.00903826
0.0184797
0.0881097
0.0233694
0.0155502
-0.0431795
0.0151972
0.121159
0.129997
0.0596156
0.000541085
0.00849513
-0.0612406
-0.0687618
-0.0748463
-0.0656033
-0.0852152
-0.0889416
-0.0362824
-0.0787854
0.0495354
0.00835444
-0.0302582
-0.0179807
0.047375
0.0797777
0.178996
0.143647
0.0962168
0.0704654
0.0466849
0.00960028
-0.209096
-0.195009
-0.226339
-0.268711
-0.311533
-0.195194
-0.0823609
0.0772607
0.0589937
0.11246
0.110885
-0.0442567
-0.115873
-0.0238121
-0.0498908
0.00941704
-0.0105106
-0.0758876
-0.0801767
-0.0398631
0.0158143
0.0424931
0.0757615
0.0899075
0.148067
0.148697
0.110976
0.0613658
-0.0791983
-0.147567
-0.168198
-0.314302
-0.33283
-0.228053
-0.0803474
-0.00156212
-0.0184438
0.0252908
0.107363
0.100861
0.213007
0.227412
0.175582
0.190677
0.0766556
-0.0338011
-0.144822
-0.242764
-0.284391
-0.282667
-0.21162
-0.215329
-0.0873251
-0.107921
-0.047748
0.00382177
-0.0379037
-0.0382322
-0.0297674
0.0503296
0.0716224
0.0186228
0.113161
0.147987
0.0685533
-0.0518663
-0.0770806
-0.0855785
-0.0189739
-0.0126894
0.0920433
0.000540325
-0.00116707
0.0245432
0.0497991
0.0715635
0.0673072
0.0864012
0.070285
0.0183348
-0.0711496
-0.00542273
-0.135412
-0.123281
-0.00121382
-0.0450757
-0.000142873
-0.0426694
0.057202
-0.0147849
0.0242746
-0.018175
0.0154956
0.133498
0.202139
0.191454
0.0965361
0.0767699
0.0212697
-0.0280303
-0.191713
-0.257352
-0.300919
-0.30324
-0.275329
-0.221955
-0.0905612
0.105857
0.105991
0.0585379
0.00885909
-0.0107222
-0.0498688
-0.0720047
-0.0373124
0.0671104
-0.0245908
-0.0944712
-0.0537804
-0.0784232
0.0716295
0.0931613
0.0941857
0.159272
0.15711
0.147137
0.0799072
0.0830028
-0.00537633
-0.110482
-0.0709787
-0.277518
-0.295453
-0.160638
-0.0477882
0.0551537
0.0056582
0.085162
0.10448
0.194321
0.313156
0.186966
0.193925
0.089938
0.0370418
-0.010345
-0.0923277
-0.243281
-0.264809
-0.265325
-0.225027
-0.185687
-0.0134718
0.00687723
-0.00396411
-0.0405755
0.0404706
-0.00819038
0.0939032
0.0309081
0.0889678
0.00678744
0.0605796
0.0870346
0.0181018
-0.0374919
-0.0698289
-0.0920647
-0.0475754
-0.00699006
0.0342207
-0.0338118
0.0360954
0.0361548
0.10798
0.10701
0.178114
0.0426486
-0.0353079
0.0630928
0.00952947
-0.0693078
-0.0916189
-0.071459
-0.0545672
0.0101426
0.0866765
-0.011814
0.0185842
0.00967141
-0.0091427
-0.0249771
0.0220273
0.120758
0.310056
0.178919
0.107277
0.128996
0.0592051
-0.0798055
-0.149397
-0.279075
-0.359697
-0.318163
-0.199481
-0.247811
-0.0217845
0.128042
0.12698
0.0601079
0.0380288
-0.0239982
-0.0567981
0.00562065
-0.0698068
0.0373421
-0.0169989
-0.108301
-0.034127
0.00651794
0.094351
0.179357
0.0134401
0.163662
0.197744
0.155151
0.0745978
0.0680244
0.00257698
-0.137447
-0.129524
-0.257791
-0.203885
-0.103784
-0.0401607
0.0330811
0.0941247
0.0658519
0.0859416
0.190537
0.28364
0.169681
0.154885
0.109949
0.0833086
-0.0101343
-0.0777887
-0.174443
-0.234292
-0.294867
-0.275365
-0.179857
0.0464483
0.0498583
0.0720253
0.103711
0.118517
0.00922799
0.0177321
0.000494618
0.147307
0.0378348
0.0325227
0.0379155
-0.00680943
-0.0610711
-0.0724664
-0.0869838
-0.140207
-0.0871575
0.0230749
-0.00567889
0.0606055
0.0583163
0.132469
0.157786
0.182153
0.0442863
-0.000150007
0.0262258
0.013792
-0.134287
-0.0743778
-0.0631187
0.00701149
0.0280358
0.0295841
0.0170518
0.0393462
-0.0267903
-0.0697021
0.00992997
0.0742051
0.147412
0.247574
0.225461
0.172407
0.0880426
0.0380287
-0.00955229
-0.149703
-0.277838
-0.348088
-0.300544
-0.240227
-0.210959
-0.027596
0.112672
0.119622
0.0750042
0.0209984
0.0274392
-0.0416999
-0.0346107
-0.0818036
-0.00536633
-0.116074
-0.0866123
0.029327
0.0476415
0.116435
0.18764
0.151161
0.123782
0.119647
0.240323
0.16866
0.0492548
-0.00451996
-0.118718
-0.140952
-0.143975
-0.0702453
-0.0373058
-0.017116
0.0551953
0.00314343
0.0646364
0.149359
0.233419
0.286081
0.284464
0.156512
0.114469
0.0509095
-0.0753754
-0.040002
-0.110128
-0.176331
-0.186241
-0.136803
-0.0557371
0.0389818
0.0387388
0.105905
0.135668
0.102003
0.0805475
0.123068
0.0576898
0.146185
0.00763224
0.0164778
-0.0182393
-0.103712
-0.075268
-0.0232031
-0.088839
-0.149726
-0.129355
-0.00294032
-0.0127064
0.0504942
0.118827
0.205422
0.160958
0.141912
0.0346605
0.0188636
-0.0433816
-0.0807243
-0.106902
-0.117554
-0.0888401
0.0193079
0.0539417
0.0215911
0.0274043
0.0374128
-0.00835234
-0.0822401
0.0396563
0.0408639
0.134037
0.199607
0.238015
0.225428
0.166855
0.0392876
-0.0183866
-0.12044
-0.224727
-0.351242
-0.287511
-0.215344
-0.195212
-0.0884529
0.129493
0.111611
0.0916162
0.0340581
0.0300887
-0.0145449
-0.0503366
-0.0567584
-0.0369771
-0.0989183
-0.102776
0.0403118
0.0932422
0.126526
0.14485
0.168587
0.25525
0.141539
0.166872
0.1112
0.105292
0.0258647
-0.0843027
-0.164218
-0.0843744
-0.0283721
-0.0164534
-0.0389589
0.129281
0.0397074
0.0878599
0.176833
0.256514
0.319862
0.266719
0.166858
0.116739
0.00297888
-0.0844487
0.0719551
-0.0530836
-0.18334
-0.162929
-0.118257
-0.0530377
0.0453845
0.0716953
0.145981
0.261726
0.113119
0.119368
0.0954898
0.0434611
0.0871355
0.0647686
0.0438627
-0.049253
-0.126153
-0.0464167
-0.120547
-0.159808
-0.170777
-0.107939
-0.0612656
-0.0272514
0.100048
0.186392
0.17639
0.109287
0.256528
0.0609653
0.026701
-0.108965
-0.0456638
-0.0898307
-0.17605
-0.084864
0.111699
0.0743038
-0.0147183
0.0136866
0.00605865
-0.0195656
-0.0634644
0.0563679
0.026549
0.07541
0.156988
0.233202
0.26179
0.251295
0.099238
0.0277671
-0.0822915
-0.212553
-0.355175
-0.240659
-0.223376
-0.238105
-0.0850723
0.129009
0.135578
0.112907
0.0333194
0.00840202
-0.00873636
-0.0172271
-0.0253196
-0.0480179
-0.103263
-0.120838
-0.00599154
0.057549
0.146604
0.224739
0.230538
0.251437
0.115705
0.200107
0.0847087
0.102248
0.0349084
-0.00470619
-0.0896961
-0.0701284
-0.0327994
0.0317879
-0.0194863
0.0669671
0.0933966
0.140976
0.180769
0.214056
0.254913
0.207406
0.197239
0.1101
0.0269609
0.0456197
0.00220168
-0.13414
-0.114551
-0.111754
-0.11249
-0.0248206
0.0771401
0.15973
0.16481
0.187012
0.16008
0.172509
0.106371
0.0686217
0.0178298
0.074223
0.000980267
-0.0242314
-0.0738059
-0.122663
-0.1555
-0.13885
-0.154768
-0.0542046
-0.130935
-0.0600091
0.077339
0.153675
0.234138
0.201125
0.15611
0.0837921
0.00165171
-0.101416
-0.0865291
-0.12714
-0.14203
-0.0398709
0.0547698
0.0688649
0.00610732
0.0230146
-0.0772977
-0.0896094
0.00933062
0.0188814
0.0500829
0.105588
0.195292
0.264622
0.261927
0.214149
0.142818
0.0790364
-0.049542
-0.182601
-0.253763
-0.177132
-0.186337
-0.188747
-0.114646
0.123999
0.120932
0.10187
0.0939555
0.0255484
-0.0311917
-0.0342296
-0.0266141
-0.0201187
-0.06189
-0.0375798
0.00265042
0.0178663
0.11167
0.144962
0.196471
0.218125
0.128536
0.158437
0.0773714
0.134833
-0.038027
-0.0374659
-0.0667947
-0.0519613
-0.0723385
0.0470387
0.0455741
0.131983
0.112016
0.148411
0.182732
0.25191
0.23377
0.163526
0.226756
0.156102
0.111919
-0.0484289
-0.063957
-0.110684
-0.107145
-0.0917004
-0.115816
-0.029328
0.102377
0.165139
0.226347
0.303017
0.222178
0.240881
0.0934299
0.0201253
0.0458637
0.0579258
0.0423638
-0.0271689
-0.0660225
-0.112871
-0.172073
-0.192611
-0.179209
-0.0957008
-0.103247
-0.0117267
0.0555341
0.0915406
0.228518
0.179738
0.208376
0.0951993
0.0122911
-0.111692
-0.00544584
-0.132649
-0.115007
-0.00815007
0.0397381
0.0340881
-0.0514812
-0.0500939
-0.0823244
-0.123624
-0.0421292
0.0753313
-0.0218244
0.129632
0.227734
0.253657
0.2256
0.280918
0.18408
0.083907
-0.0185279
-0.219645
-0.240835
-0.127508
-0.145326
-0.113045
-0.0547028
0.136027
0.0869822
0.108244
0.125541
0.0749526
0.0253365
-0.0688297
-0.0235194
0.022742
-0.0164958
0.0243006
-0.020598
0.0388565
0.0644364
0.0704758
0.169859
0.167221
0.180563
0.0637247
-0.00337354
0.157471
0.0338031
-0.0460477
-0.0761898
-0.0236654
0.0463794
0.00114504
0.0124611
0.0593613
0.117031
0.235296
0.170324
0.205569
0.154085
0.150861
0.277949
0.187301
0.151877
-0.025383
-0.03177
-0.0994958
-0.0492909
-0.0655551
-0.150278
0.00810636
0.140616
0.203434
0.324936
0.275186
0.20759
0.215483
0.0938067
0.0835069
0.0949264
0.0532703
0.0121701
-0.0417902
-0.0838005
-0.129541
-0.16536
-0.15425
-0.206548
-0.114894
-0.0968577
-0.0485182
0.0784662
0.0581314
0.210404
0.202061
0.157276
0.0599245
-0.0184139
-0.0590298
-0.0890367
-0.102824
-0.0849246
-0.0553984
0.017056
-0.0234802
-0.084297
-0.0503746
-0.149667
-0.0835228
-0.028668
0.00292601
-0.0479604
0.128239
0.200128
0.25288
0.210538
0.289566
0.190751
0.0624445
0.0122941
-0.15897
-0.215756
-0.128556
-0.113308
-0.0760927
-0.0433523
0.0663764
0.0727153
0.0706645
0.0929561
0.0936359
-0.00780245
-0.0816748
0.0180496
0.0416855
-0.0831776
-0.0303638
0.0286527
0.069592
0.0154445
0.0745788
0.13152
0.12256
0.152
0.123553
0.0679983
0.0473989
-0.109648
-0.0407229
-0.00138466
-0.0351703
0.13365
0.0850799
0.0658529
0.111318
0.0665989
0.115117
0.104233
0.184689
0.171834
0.207414
0.221827
0.138397
0.120673
0.0513052
-0.110138
-0.0828107
-0.0721853
-0.0751369
-0.0424668
0.108725
0.0990284
0.169788
0.369996
0.378544
0.227182
0.123999
0.0988737
0.0480151
0.0790904
0.00969393
0.0208196
-0.016918
-0.049088
-0.138028
-0.17919
-0.187433
-0.248036
-0.0800811
-0.0331412
-0.0372862
0.0570839
0.0622007
0.163594
0.163287
0.125577
0.0452147
-0.057981
-0.109358
0.043649
-0.0444898
-0.141845
-0.0375753
0.00617782
-0.070029
-0.0862705
-0.111384
-0.132621
-0.173746
-0.115872
-0.0192814
-0.0361936
0.0551979
0.247478
0.235697
0.183058
0.306258
0.125259
0.00435425
0.0559456
-0.120836
-0.142711
-0.20342
-0.102285
-0.0908242
-0.0302024
0.100844
0.085053
0.0769696
0.0479803
0.0728357
0.00444749
-0.013581
0.0664805
0.0430902
-0.0202853
-0.0815377
-0.102525
-0.00198228
0.0365963
0.013232
0.0977049
0.0715157
0.101557
0.095876
0.117457
0.0334378
0.0132192
0.0257797
-0.00332343
0.0217199
0.0565883
0.0685018
0.075634
0.154893
0.109636
0.00650869
0.107976
0.151788
0.165679
0.224924
0.174621
0.171774
0.0992202
-4.8362e-05
-0.0603534
-0.116563
-0.0604563
-0.0847059
-0.0906548
0.112421
0.201718
0.178251
0.266957
0.29782
0.228341
0.20523
0.192096
-0.00744019
0.0450737
0.0823273
0.0220024
-0.0137534
-0.10154
-0.168444
-0.148427
-0.147122
-0.234353
-0.0646712
-0.115669
-0.0289981
0.0586214
0.0600807
0.131397
0.200944
0.14654
-0.00265675
-0.0857806
-0.0314354
0.0667658
-0.0611365
-0.113333
-0.0387534
-0.0201602
-0.127452
-0.0773581
-0.136636
-0.154116
-0.158846
-0.149665
-0.0260001
-0.0427296
0.079108
0.179491
0.261948
0.197922
0.195753
0.219582
0.0214779
-0.00486209
-0.119375
-0.0945321
-0.128177
-0.169564
-0.148218
-0.0545765
0.121225
0.0883703
0.061273
-0.0154821
0.0604603
0.0759571
0.00758544
0.00212453
-0.00358728
-0.0406614
-0.109352
-0.049271
0.032292
0.0173719
-0.0578394
0.0577994
0.0473174
0.0578815
0.122089
0.1055
-0.0270752
0.0136703
0.0761643
-0.0198444
0.119218
0.120733
0.0855473
-0.0369585
0.105038
0.0256474
0.0633511
0.0657718
0.112706
0.145123
0.244917
0.200535
0.167542
0.0772158
-0.065949
-0.131448
-0.127472
0.00648064
-0.0557898
-0.0198949
0.057587
0.175142
0.220055
0.229111
0.234106
0.229963
0.184053
0.134531
0.0572988
0.0798108
0.0824138
0.0722994
-0.00694309
-0.113996
-0.152305
-0.183561
-0.149116
-0.173497
-0.0632307
-0.0989866
-0.00996628
0.026956
0.0821777
0.205829
0.141909
0.178343
0.0334993
-0.0956391
-0.0610246
0.0874722
-0.0823431
-0.0964558
-0.0490024
-0.021416
-0.11091
-0.0210479
-0.165689
-0.214494
-0.220388
-0.0926761
-0.0952372
-0.0282792
0.059307
0.0997378
0.239445
0.164865
0.174276
0.219239
0.0513375
0.0233458
-0.13063
-0.17127
-0.143407
-0.128495
-0.151497
-0.0362574
0.104878
0.0525915
0.0259012
0.0486802
0.0340083
0.0368523
0.0772245
0.0120823
-0.0601425
-0.093735
-0.0347636
-0.087501
-0.0721926
-0.010911
-0.0456076
-0.00881023
0.0047462
0.0526046
0.116338
0.0561023
0.136809
0.0197301
0.0161255
-0.0431361
0.119141
0.121472
0.0250867
0.0581492
0.0602687
0.0369633
0.0172788
0.0466633
0.10292
0.11595
0.202196
0.147213
0.240139
0.0182121
-0.067051
-0.149095
-0.163087
-0.0449929
-0.000653431
-0.0409361
0.0619958
0.132101
0.189757
0.280987
0.275125
0.254674
0.177705
0.191566
0.0198414
0.0398935
0.118352
0.0977923
0.0497199
-0.0921165
-0.153128
-0.165542
-0.174327
-0.15906
-0.0718074
-0.0463683
-0.0488685
-0.0490484
0.110599
0.170806
0.238794
0.153578
-0.0152393
-0.0248336
-0.00772239
0.0669217
-0.0603704
-0.139213
-0.0251845
0.00498001
-0.0391749
-0.10232
-0.162246
-0.196026
-0.246339
-0.100323
-0.0658148
0.00509184
0.0623681
0.120113
0.193577
0.161248
0.0973478
0.190308
0.021873
-0.0340296
-0.109185
-0.136162
-0.0954567
-0.114312
-0.125009
0.00546362
0.0561388
0.0598952
0.0150381
0.0164375
-0.0959265
0.0131849
0.0483182
0.0325315
-0.0193758
-0.105746
-0.119407
-0.152183
-0.0610075
-0.01476
0.0416264
-0.0470386
-0.0214086
0.0168833
0.0542561
0.0195586
0.077199
0.0232878
0.106126
0.0177512
0.0865338
0.0554955
0.0417184
0.0334021
0.0161022
0.0218664
0.0277123
-0.0305404
0.02391
0.145483
0.194061
0.128099
0.0913641
-0.0337541
0.00389473
-0.117369
-0.142896
-0.0991362
0.000118274
-0.0117313
0.0721673
0.187544
0.251502
0.258022
0.194615
0.242893
0.224799
0.118516
0.0137147
0.0469571
0.112132
0.12746
0.046955
-0.0659518
-0.171252
-0.110779
-0.14239
-0.127091
-0.0825428
-0.0716012
-0.0575413
-0.0662263
0.101246
0.221219
0.221919
0.216079
0.0288757
-0.0423209
-0.0305084
0.0260567
-0.00245293
-0.060227
-0.0222584
-0.00607711
-0.0220425
-0.136719
-0.154257
-0.23963
-0.238977
-0.116629
-0.0641513
0.0510465
0.046851
0.14781
0.188497
0.213148
0.0121499
0.103842
0.0583407
-0.10501
-0.0756885
-0.0607267
0.00543201
-0.148593
-0.113596
-0.0156509
0.0753481
0.0473857
-0.00570841
-0.00159832
-0.00726331
-0.03184
-0.0348771
-0.0132069
-0.0582767
-0.129038
-0.180731
-0.109293
-0.0732967
-0.0189771
-0.0248641
-0.112294
-0.0898809
-0.00205551
0.132942
0.0626472
0.0397825
0.0148638
0.0739137
0.0423091
0.0574261
0.0400443
0.0112627
-0.000589182
0.0179799
-0.0588666
-0.091783
0.0148015
0.0534382
0.188766
0.114878
0.105656
0.0323383
0.0103364
-0.0181577
-0.0844619
-0.154266
-0.159264
-0.0711363
-0.032541
0.106532
0.192564
0.351436
0.229218
0.237315
0.147186
0.176256
0.124149
0.0775344
0.0043258
0.115076
0.0924414
0.0235479
-0.0133854
-0.081314
-0.109749
-0.157378
-0.13619
-0.0622572
-0.0300564
-0.063193
-0.0885014
0.0765873
0.132623
0.214553
0.194885
0.0408547
-0.0404949
-0.029809
-0.00187884
0.0599697
-0.0648339
-0.0322599
-0.0321326
0.0882878
-0.0715564
-0.0875182
-0.230367
-0.218123
-0.18355
-0.0435402
-0.039066
0.0349594
0.0760646
0.143461
0.051305
0.0188931
0.00954541
0.0103175
-0.103478
-0.0716623
-0.0029897
0.0369961
-0.105423
-0.156211
-0.048039
0.0945366
0.0284346
-0.0269197
-0.0242625
0.00724457
0.0270723
-0.0834445
-0.0388935
-0.104256
-0.181306
-0.181111
-0.162382
-0.0879756
-0.0968947
-0.0256612
-0.112475
-0.00914025
0.0105691
-0.00244137
-0.0115356
0.106655
0.0214969
0.0483166
0.00829959
-0.0063792
-0.0694772
0.0191765
-0.00606908
0.0087378
-0.0487985
-0.0847256
-0.0572203
0.0227846
0.130506
0.0706895
0.101359
-0.00840981
0.000273047
-0.0482051
-0.0430115
-0.136952
-0.166201
-0.101286
-0.109439
0.0859189
0.266031
0.317331
0.311719
0.220111
0.174111
0.164983
0.0936447
0.0150015
0.072085
0.0209612
0.0151301
0.0471933
-0.050633
-0.0505682
-0.0526485
-0.149152
-0.102005
-0.135567
-0.12198
-0.0452273
-0.0693342
0.0375586
0.129995
0.255269
0.184483
0.0880463
-0.0113235
-0.0294502
0.0287488
0.00118107
-0.0528871
0.045922
-0.020739
0.0901364
-0.0646575
-0.109466
-0.179835
-0.211552
-0.171232
-0.127656
-0.0873104
-0.00668604
0.0425282
0.0711328
0.0734388
0.0127083
0.00247839
-0.0529964
-0.11188
-0.0465626
-0.053066
-0.0207591
-0.0662965
-0.104369
-0.0534698
0.0445816
0.0322247
-0.0322499
0.0114768
0.00887972
-0.0461704
-0.0307949
-0.0725072
-0.119197
-0.154856
-0.191691
-0.186909
-0.19847
-0.180881
-0.0958341
-0.0515768
-0.0980771
0.0394059
0.0802396
0.046752
0.110061
0.0135418
-0.00903874
-0.00987843
0.0154468
-0.050077
-0.0631087
0.00381122
0.0560962
-0.0278077
-0.0652083
-0.0644339
-0.00976942
0.131069
0.0731032
0.106131
0.00978791
0.00727842
-0.142629
-0.185003
-0.186033
-0.128157
-0.0600565
0.00260455
0.129303
0.238091
0.241964
0.284272
0.245887
0.189401
0.149498
0.105211
0.000240915
0.034425
0.00270341
-0.0388491
-0.049738
-0.05351
-0.0571409
-0.059018
-0.156345
-0.0641892
-0.0328451
-0.112394
-0.0556105
-0.161293
-0.0367546
0.149483
0.188603
0.174431
0.0166819
-0.0468366
0.00529877
0.0556142
0.0390012
-0.0158585
-0.0445862
-0.0425776
0.130192
-0.111029
-0.122277
-0.173731
-0.17355
-0.117766
-0.0867843
-0.157005
0.0113663
0.0179324
-0.0222326
0.053606
-0.0107503
-0.00186833
-0.063328
-0.0775936
-0.0718367
-0.00695008
0.0147206
-0.0894685
-0.102928
-0.0178242
0.0408687
0.0156258
-0.0137321
-0.0263002
-0.0225694
-0.000381227
-0.108627
-0.0781112
-0.115957
-0.152455
-0.164813
-0.174885
-0.278257
-0.128255
-0.136788
-0.069022
-0.0254905
0.0138893
0.0198241
0.0774739
0.128588
-0.0533968
0.024777
-0.0471534
0.00281863
0.0189474
-0.0617011
-0.103478
0.00526798
-0.0176684
-0.0671261
-0.0632175
-0.0270987
0.146096
0.0616149
0.0507006
-0.0984763
-0.0655323
-0.0960302
-0.188785
-0.175088
-0.128758
-0.0810192
0.0708575
0.154325
0.156018
0.231335
0.382789
0.294627
0.062292
0.0426669
0.0680525
-0.00272566
-0.00641765
-0.0552153
-0.0652846
-0.12268
-0.0900662
-0.0271768
-0.0920723
-0.163673
-0.0233979
-0.0724178
-0.121359
-0.0579844
-0.147322
-0.0356893
0.0460292
0.121273
0.102245
0.0815303
0.0308925
-0.0859467
0.0970524
0.0977718
-0.00833606
-0.0277481
-0.000377487
0.0770716
-0.10739
-0.098833
-0.195917
-0.142302
-0.149611
-0.201818
-0.125856
0.115645
-0.012561
-0.0192846
-0.0472371
-0.0406171
0.014607
-0.0106982
-0.0527785
-0.0124955
-0.0174771
-0.0391649
-0.0737234
-0.156187
-0.104929
0.0333435
0.019093
-0.0472941
-0.0370845
-0.0587859
-0.0130205
-0.0843832
-0.0595738
-0.111124
-0.155748
-0.187152
-0.203884
-0.216852
-0.181895
-0.149504
-0.0997304
-0.102285
0.122553
0.0540551
0.148356
0.0505611
-0.0154662
0.0247594
-0.0670376
-0.110537
-0.0313119
-0.0465043
-0.00327575
0.0381239
-0.110155
-0.0864235
-0.0345811
-0.0305709
0.0891896
0.0208911
0.0300419
-0.00662648
-0.114573
-0.253547
-0.265745
-0.103613
-0.0700077
0.00776847
0.109605
0.154627
0.152597
0.190539
0.285376
0.159185
0.0641242
0.0363712
-0.0105772
-0.0872233
-0.12705
-0.0841834
-0.0527898
-0.146216
-0.080703
-0.0451142
-0.00732528
-0.0866579
-0.0487486
-0.0586642
-0.117478
-0.117406
-0.105708
-0.00972502
0.10386
0.0114946
0.027353
0.040214
0.032635
-0.0389138
0.0449229
0.0843084
0.0036681
0.0454738
0.0200018
-0.0563194
-0.0329833
-0.0685869
-0.157998
-0.0619541
-0.113168
-0.221109
-0.18373
0.0488496
0.00408399
-0.061826
-0.052037
0.025895
0.0468425
-0.0391637
0.0292946
0.0395587
-0.0308782
-0.0249914
-0.149911
-0.158281
-0.00936942
0.0218362
0.0466623
-0.0161011
-0.0413653
-0.107774
-0.0708734
-0.0532781
-0.0325079
-0.111216
-0.20819
-0.169038
-0.172753
-0.156286
-0.20912
-0.101092
-0.0221008
-0.144516
-0.0160718
0.105686
0.222105
0.0836813
-0.0446018
0.0189226
-0.0281282
-0.139234
-0.0395848
0.0137071
-0.0355542
-0.0430006
-0.0999953
-0.0537377
-0.103006
-0.0577735
0.0716203
0.023624
-0.0105791
-0.0355051
-0.170823
-0.178247
-0.234548
-0.147145
-0.0324419
0.0106319
0.0564972
0.108907
0.121726
0.167721
0.235043
0.207089
0.00898641
-0.0673526
-0.0832401
-0.127478
-0.143268
-0.100103
-0.0826408
-0.130477
-0.175057
-0.0748011
0.068897
-0.0323747
-0.0838853
-0.0963636
-0.150281
-0.0289885
-0.0904891
-0.0203736
0.0648201
0.0143726
-0.0420605
0.012321
0.0727208
0.00612679
-0.00708304
0.0382059
0.0716061
0.0462116
-0.00273033
-0.0476337
0.0320047
-0.0650915
-0.112062
-0.114765
-0.176777
-0.231462
-0.103309
0.00781419
0.0659021
-0.0134207
0.000818019
0.0762618
0.0371467
-0.0513785
-0.0184442
0.0321887
-0.0228535
-0.0321552
-0.149602
-0.0761884
-0.0083825
0.017725
-0.027672
-0.0452998
-0.00458226
-0.0919822
-0.072931
-0.0632261
-0.0231814
-0.0845808
-0.22085
-0.271242
-0.156942
-0.0697188
-0.157287
-0.129298
-0.0428994
0.00190358
-0.0131087
0.014712
0.194985
0.0741698
0.0171047
-0.0556287
-0.0396082
-0.100393
-0.100019
0.00420833
0.0395916
-0.00333388
-0.0374464
-0.134135
-0.0886695
-0.0288573
-0.0353435
0.0382918
-0.00236095
-0.107364
-0.239609
-0.132836
-0.244027
-0.201109
-0.014084
0.0194215
0.0342477
0.0196625
0.125734
0.18973
0.143998
0.0623381
0.0262393
-0.0452679
-0.153445
-0.166655
-0.177029
-0.220689
-0.151944
-0.0691548
-0.136955
-0.0780852
0.0641546
-0.00325976
-0.0240737
0.0411574
-0.124553
-0.145278
-0.120249
-0.0198071
0.0614526
0.062705
-0.061111
-0.0289414
0.00559232
0.0360746
-0.0316465
0.0621223
0.136739
0.133247
-0.0291431
-0.0883896
-0.0547633
-0.122191
-0.0452408
-0.100385
-0.203914
-0.0929177
-0.126137
0.0227052
0.0723653
-0.0261106
-0.0616884
0.0134267
0.136773
0.0142757
-0.0101897
0.00236601
-0.0143924
-0.0209949
-0.110374
-0.11611
-0.0126397
0.070303
0.0308949
-0.0603742
-0.090507
-0.0680152
-0.0435653
-0.0211287
-0.0203774
-0.0217293
-0.205576
-0.226738
-0.180886
-0.188585
-0.198473
0.00139003
-0.0387005
-7.83974e-07
0.00181845
0.00399418
0.0371298
0.0714913
0.076959
-0.072389
-0.0749557
-0.0616037
0.000829625
-0.0772713
-0.0216519
-0.0158411
-0.123159
-0.00807451
-0.0920776
-0.0431057
-0.0365314
-0.0465333
-0.0793964
-0.0406393
-0.19731
-0.281375
-0.225569
-0.115704
-0.0103592
-0.0577314
-0.0255423
0.0992169
0.11319
0.137408
0.0959484
0.0174563
-0.0186174
-0.0966706
-0.159718
-0.153288
-0.180187
-0.186259
-0.137934
-0.0976141
-0.054032
-0.0884551
0.0522228
0.00847425
-0.0321868
0.0115567
-0.122876
-0.127243
-0.164297
-0.0575419
0.0231658
0.033463
-0.0727125
-0.0216922
-0.00716731
-0.0133732
-0.0620653
0.120233
0.206303
0.120669
0.00316798
-0.115559
-0.0958049
-0.00745285
-0.0883249
-0.0940374
-0.210954
-0.167034
-0.0644009
0.075958
0.02734
-0.0217987
-0.026768
0.0404455
0.13351
0.0501421
0.052549
-0.000956189
-0.00655736
-0.00944626
-0.0952775
-0.120389
-0.0574735
-0.00925767
0.0487682
0.0264781
-0.0945033
-0.0628618
-0.0179019
-0.0468049
-0.0661191
-0.0879417
-0.133377
-0.18342
-0.187712
-0.111921
-0.0987345
-0.135173
-0.0215205
0.09891
-0.00325043
-0.0335964
-0.0463909
0.000139994
0.0408061
0.0378141
-0.0299067
-0.0757608
0.050333
-0.078099
-0.107492
-0.0873911
-0.102015
-0.0647662
0.0387234
-0.04614
-0.0471239
-0.109981
-0.0657145
-0.0443303
-0.165198
-0.284218
-0.197595
-0.128222
0.0270377
-0.0542963
-0.0828456
0.0776788
0.0583256
0.0822284
0.0336297
-0.0263579
-0.061755
-0.136368
-0.179062
-0.129147
-0.142417
-0.208498
-0.155068
-0.133713
-0.0377743
-0.0443886
-0.00235636
0.0402952
0.0598535
0.0509476
-0.0723212
-0.150126
-0.188762
-0.114148
-0.00512204
-0.0265972
-0.0677046
0.00853791
-0.0707802
-0.0454364
-0.0316328
0.118261
0.245554
0.155077
0.033302
-0.12585
-0.0981212
-0.0558562
-0.120745
-0.0899215
-0.112791
-0.108694
-0.0202322
0.00726936
0.0424518
0.0595817
-0.00667206
0.047101
0.11783
-0.0310117
-0.0263157
0.0256307
0.0356571
-0.0350973
-0.073125
-0.0141606
-0.0804983
-0.0133295
0.031028
0.0164613
-0.0769143
-0.0230082
0.0360132
-0.0176883
-0.0565795
-0.0429392
-0.124604
-0.157461
-0.176788
-0.161375
-0.103442
-0.0700742
0.0130553
0.0693414
0.0497349
-0.0201268
0.0162223
0.00411219
0.00539597
0.00979066
-0.00214489
-0.039225
-0.0673119
-0.0915045
-0.0920991
-0.12
-0.150566
-0.0768128
0.0382885
0.0195055
0.0387154
-0.0702367
-0.104101
-0.0787925
-0.203605
-0.199676
-0.227547
-0.192144
-0.0284762
-0.0353793
-0.0472899
0.0399436
0.0822453
0.0672694
-0.049982
-0.0103355
-0.108296
-0.175435
-0.161705
-0.184766
-0.225998
-0.219414
-0.132122
-0.063965
-0.0194715
-0.0412689
0.0839195
0.0655765
0.0329572
0.105155
-0.0503189
-0.112367
-0.15795
-0.183653
-0.0283046
-0.00182404
-0.122459
-0.000128578
-0.102997
-0.0372136
0.0223632
0.172145
0.177057
0.144415
-0.0123517
-0.141686
-0.129982
-0.0430298
-0.0912726
-0.0575461
-0.150014
-0.0904376
0.0333069
0.0124858
0.0338804
0.00586038
0.0577
0.0525
0.097128
-0.00951766
-0.0348983
0.0686296
0.0135187
0.00262989
-0.0425705
-0.0385908
-0.0490424
0.00103128
-0.0440108
0.0162905
-0.0257349
-0.015036
0.060689
0.0166946
-0.030181
-0.064499
-0.167036
-0.120533
-0.198637
-0.127207
-0.0851432
-0.0432081
-0.0254133
0.0549692
0.0896857
0.0795855
0.119602
-0.0622807
-0.0870159
0.00816148
0.119327
-0.0441938
-0.189036
-0.0749162
-0.106231
-0.173668
-0.185109
-0.0580036
0.00503638
0.0332513
0.0947313
-0.0359662
-0.110483
-0.124339
-0.237322
-0.181324
-0.133158
-0.196765
-0.0802405
-0.0666832
-0.0367262
0.00973525
0.0854312
0.0217312
-0.0503275
-0.0251245
-0.0960636
-0.227559
-0.224505
-0.201306
-0.185646
-0.199607
-0.186086
-0.172064
0.0274343
0.0462517
0.0330279
0.146462
0.09017
0.124191
-0.00454938
-0.127325
-0.116938
-0.111454
-0.118439
-0.134819
-0.0699413
-0.0291084
-0.102144
0.000295587
-0.0081317
0.135817
0.159509
0.143487
-0.0316315
-0.145828
-0.0933956
-0.0717453
-0.0659395