/*--------------------------------*- C++ -*----------------------------------*\
| =========                 |                                                 |
| \\      /  F ield         | OpenFOAM: The Open Source CFD Toolbox           |
|  \\    /   O peration     | Version:  v2012                                 |
|   \\  /    A nd           | Website:  www.openfoam.com                      |
|    \\/     M anipulation  |                                                 |
\*---------------------------------------------------------------------------*/
FoamFile
{
    version     2.0;
    format      ascii;
    class       volScalarField;
    location    "4";
    object      W;
}
// * * * * * * * * * * * * * * * * * * * * * * * * * * * * * * * * * * * * * //

dimensions      [0 0 -1 0 0 0 0];


internalField   nonuniform List<scalar> 
65536
(
7.97657e-20
8.5424e-20
9.81884e-20
1.18754e-19
1.48287e-19
1.88495e-19
2.41726e-19
3.11099e-19
4.00665e-19
5.1561e-19
6.62508e-19
8.49635e-19
1.08735e-18
1.38857e-18
1.76935e-18
2.24955e-18
2.85375e-18
3.61219e-18
4.56203e-18
5.74884e-18
7.22829e-18
9.06825e-18
1.13513e-17
1.41774e-17
1.76678e-17
2.19685e-17
2.72551e-17
3.37386e-17
4.16712e-17
5.13542e-17
6.31459e-17
7.74717e-17
9.48353e-17
1.15831e-16
1.41159e-16
1.71639e-16
2.08234e-16
2.52065e-16
3.04437e-16
3.66866e-16
4.41103e-16
5.2917e-16
6.33392e-16
7.56432e-16
9.01337e-16
1.07158e-15
1.27109e-15
1.50434e-15
1.77636e-15
2.09281e-15
2.46004e-15
2.88513e-15
3.37596e-15
3.94129e-15
4.59078e-15
5.33505e-15
6.18578e-15
7.15569e-15
8.25862e-15
9.50956e-15
1.09247e-14
1.25213e-14
1.4318e-14
1.63343e-14
1.85911e-14
2.11102e-14
2.39144e-14
2.70273e-14
3.04733e-14
3.42773e-14
3.84646e-14
4.30605e-14
4.80902e-14
5.35785e-14
5.95493e-14
6.60252e-14
7.30277e-14
8.05757e-14
8.8686e-14
9.73725e-14
1.06645e-13
1.16511e-13
1.26972e-13
1.38025e-13
1.49662e-13
1.61868e-13
1.74624e-13
1.87902e-13
2.01668e-13
2.15881e-13
2.30494e-13
2.4545e-13
2.60685e-13
2.76131e-13
2.91709e-13
3.07335e-13
3.22921e-13
3.38371e-13
3.53585e-13
3.68461e-13
3.82891e-13
3.96768e-13
4.09985e-13
4.22434e-13
4.3401e-13
4.44613e-13
4.54146e-13
4.6252e-13
4.69653e-13
4.75472e-13
4.79916e-13
4.82934e-13
4.84486e-13
4.84549e-13
4.8311e-13
4.80173e-13
4.75757e-13
4.69892e-13
4.62626e-13
4.5402e-13
4.44148e-13
4.33096e-13
4.20963e-13
4.07858e-13
3.93898e-13
3.79208e-13
3.63921e-13
3.48173e-13
3.32103e-13
3.15851e-13
2.99558e-13
2.83363e-13
2.67401e-13
2.51804e-13
2.36697e-13
2.222e-13
2.08425e-13
1.95474e-13
1.83443e-13
1.72416e-13
1.62469e-13
1.53667e-13
1.46064e-13
1.39706e-13
1.34627e-13
1.3085e-13
1.28389e-13
1.27246e-13
1.27414e-13
1.28875e-13
1.31599e-13
1.35547e-13
1.40669e-13
1.46903e-13
1.54178e-13
1.62412e-13
1.71511e-13
1.81372e-13
1.91883e-13
2.0292e-13
2.14353e-13
2.26044e-13
2.37848e-13
2.49616e-13
2.61195e-13
2.72432e-13
2.83174e-13
2.93271e-13
3.02579e-13
3.10961e-13
3.18291e-13
3.24454e-13
3.29351e-13
3.32899e-13
3.35033e-13
3.35709e-13
3.349e-13
3.32604e-13
3.28838e-13
3.23641e-13
3.17071e-13
3.09204e-13
3.00136e-13
2.89976e-13
2.78846e-13
2.66878e-13
2.54211e-13
2.40991e-13
2.27363e-13
2.13471e-13
1.99457e-13
1.85457e-13
1.71596e-13
1.57991e-13
1.44747e-13
1.31957e-13
1.19699e-13
1.08037e-13
9.70222e-14
8.66922e-14
7.70709e-14
6.81703e-14
5.99909e-14
5.25237e-14
4.57506e-14
3.96464e-14
3.41797e-14
2.93147e-14
2.50121e-14
2.12301e-14
1.79263e-14
1.50576e-14
1.25819e-14
1.04581e-14
8.64721e-15
7.11222e-15
5.81887e-15
4.73556e-15
3.83353e-15
3.08687e-15
2.47243e-15
1.96976e-15
1.56093e-15
1.23035e-15
9.64599e-16
7.52203e-16
5.83432e-16
4.50101e-16
3.45374e-16
2.6359e-16
2.00089e-16
1.51068e-16
1.13442e-16
8.4727e-17
6.29388e-17
4.65007e-17
3.417e-17
2.4973e-17
1.81526e-17
1.31233e-17
9.43591e-18
6.74778e-18
4.79924e-18
3.39482e-18
2.38832e-18
1.67111e-18
1.16293e-18
8.04948e-19
5.54256e-19
3.79814e-19
2.5934e-19
1.76987e-19
1.21641e-19
8.56664e-20
6.40133e-20
5.36045e-20
1.07068e-19
1.14658e-19
1.31782e-19
1.59373e-19
1.98994e-19
2.52932e-19
3.24336e-19
4.17383e-19
5.37502e-19
6.91641e-19
8.88606e-19
1.13948e-18
1.45813e-18
1.86186e-18
2.37213e-18
3.01555e-18
3.82497e-18
4.84084e-18
6.11286e-18
7.7019e-18
9.68237e-18
1.21449e-17
1.51998e-17
1.89805e-17
2.36487e-17
2.93991e-17
3.64659e-17
4.51303e-17
5.57282e-17
6.86606e-17
8.44044e-17
1.03525e-16
1.26693e-16
1.54697e-16
1.88466e-16
2.2909e-16
2.77843e-16
3.36212e-16
4.05925e-16
4.88988e-16
5.87715e-16
7.04778e-16
8.43245e-16
1.00663e-15
1.19894e-15
1.42475e-15
1.68924e-15
1.99827e-15
2.35844e-15
2.77717e-15
3.26277e-15
3.82449e-15
4.47264e-15
5.21862e-15
6.075e-15
7.05561e-15
8.17559e-15
9.45141e-15
1.0901e-14
1.25437e-14
1.44003e-14
1.64931e-14
1.88459e-14
2.14838e-14
2.44333e-14
2.77223e-14
3.13795e-14
3.54351e-14
3.99196e-14
4.48644e-14
5.0301e-14
5.62609e-14
6.27753e-14
6.98747e-14
7.75881e-14
8.59431e-14
9.49649e-14
1.04676e-13
1.15096e-13
1.26239e-13
1.38116e-13
1.50733e-13
1.6409e-13
1.78179e-13
1.92988e-13
2.08494e-13
2.24668e-13
2.41474e-13
2.58864e-13
2.76783e-13
2.95167e-13
3.13942e-13
3.33025e-13
3.52325e-13
3.71743e-13
3.91171e-13
4.10494e-13
4.29591e-13
4.48337e-13
4.66602e-13
4.84252e-13
5.01155e-13
5.17177e-13
5.32186e-13
5.46055e-13
5.58661e-13
5.69887e-13
5.79629e-13
5.87789e-13
5.94284e-13
5.99042e-13
6.02007e-13
6.0314e-13
6.02415e-13
5.99829e-13
5.95391e-13
5.89132e-13
5.81098e-13
5.71356e-13
5.59987e-13
5.4709e-13
5.32776e-13
5.17172e-13
5.00418e-13
4.82661e-13
4.64059e-13
4.44776e-13
4.24982e-13
4.04846e-13
3.84543e-13
3.64242e-13
3.44113e-13
3.24318e-13
3.05015e-13
2.86354e-13
2.68477e-13
2.51515e-13
2.35589e-13
2.20808e-13
2.0727e-13
1.95062e-13
1.84256e-13
1.74912e-13
1.6708e-13
1.60795e-13
1.56079e-13
1.52943e-13
1.51386e-13
1.51391e-13
1.52934e-13
1.55975e-13
1.60462e-13
1.66332e-13
1.73508e-13
1.81903e-13
1.91414e-13
2.01931e-13
2.13328e-13
2.25471e-13
2.38215e-13
2.51404e-13
2.64875e-13
2.7846e-13
2.91983e-13
3.05267e-13
3.18134e-13
3.30405e-13
3.4191e-13
3.52481e-13
3.61962e-13
3.70209e-13
3.77093e-13
3.825e-13
3.86339e-13
3.88537e-13
3.89046e-13
3.8784e-13
3.8492e-13
3.80307e-13
3.74051e-13
3.66221e-13
3.5691e-13
3.46229e-13
3.34305e-13
3.21282e-13
3.07313e-13
2.9256e-13
2.7719e-13
2.61371e-13
2.4527e-13
2.29049e-13
2.12862e-13
1.96854e-13
1.81158e-13
1.65893e-13
1.51163e-13
1.37058e-13
1.23649e-13
1.10995e-13
9.91352e-14
8.80965e-14
7.78912e-14
6.85186e-14
5.99671e-14
5.22147e-14
4.52317e-14
3.89813e-14
3.34215e-14
2.85066e-14
2.41885e-14
2.04179e-14
1.71454e-14
1.43222e-14
1.19013e-14
9.83778e-15
8.08931e-15
6.61658e-15
5.38343e-15
4.35695e-15
3.50753e-15
2.80874e-15
2.23721e-15
1.7725e-15
1.39684e-15
1.09492e-15
8.53671e-16
6.62018e-16
5.10641e-16
3.91765e-16
2.98949e-16
2.26897e-16
1.71284e-16
1.28605e-16
9.60397e-17
7.13336e-17
5.26969e-17
3.87189e-17
2.82946e-17
2.05649e-17
1.48659e-17
1.0688e-17
7.64253e-18
5.43519e-18
3.8444e-18
2.70443e-18
1.89217e-18
1.3167e-18
9.11332e-19
6.27477e-19
4.29972e-19
2.93576e-19
2.00344e-19
1.3769e-19
9.69652e-20
7.24543e-20
6.06732e-20
1.68677e-19
1.80622e-19
2.07582e-19
2.51019e-19
3.13391e-19
3.98296e-19
5.10682e-19
6.57118e-19
8.46133e-19
1.08865e-18
1.3985e-18
1.79309e-18
2.2942e-18
2.92898e-18
3.73113e-18
4.74239e-18
6.01428e-18
7.61024e-18
9.60815e-18
1.21034e-17
1.52125e-17
1.90774e-17
2.38706e-17
2.9801e-17
3.71212e-17
4.61356e-17
5.72101e-17
7.07834e-17
8.73798e-17
1.07624e-16
1.3226e-16
1.62169e-16
1.98392e-16
2.42158e-16
2.94909e-16
3.58338e-16
4.34423e-16
5.25469e-16
6.34151e-16
7.63573e-16
9.17316e-16
1.0995e-15
1.31487e-15
1.56883e-15
1.86756e-15
2.21809e-15
2.62836e-15
3.10738e-15
3.66525e-15
4.31331e-15
5.06426e-15
5.93222e-15
6.93286e-15
8.0835e-15
9.40324e-15
1.0913e-14
1.26356e-14
1.4596e-14
1.68211e-14
1.93399e-14
2.21836e-14
2.53855e-14
2.8981e-14
3.30073e-14
3.75038e-14
4.25114e-14
4.80727e-14
5.42313e-14
6.10319e-14
6.852e-14
7.6741e-14
8.574e-14
9.55613e-14
1.06248e-13
1.1784e-13
1.30375e-13
1.43888e-13
1.58408e-13
1.73959e-13
1.9056e-13
2.08221e-13
2.26946e-13
2.46728e-13
2.67552e-13
2.89392e-13
3.1221e-13
3.35958e-13
3.60575e-13
3.85985e-13
4.12102e-13
4.38825e-13
4.66042e-13
4.93625e-13
5.21438e-13
5.49329e-13
5.7714e-13
6.04701e-13
6.31833e-13
6.58354e-13
6.84076e-13
7.08806e-13
7.32354e-13
7.5453e-13
7.7515e-13
7.94034e-13
8.11013e-13
8.25929e-13
8.38639e-13
8.49014e-13
8.56946e-13
8.62344e-13
8.65141e-13
8.65295e-13
8.62783e-13
8.57613e-13
8.49815e-13
8.39444e-13
8.26583e-13
8.11337e-13
7.93834e-13
7.74227e-13
7.52685e-13
7.29396e-13
7.04566e-13
6.78412e-13
6.5116e-13
6.23047e-13
5.94313e-13
5.65201e-13
5.35952e-13
5.06804e-13
4.77992e-13
4.49739e-13
4.2226e-13
3.95759e-13
3.70426e-13
3.46434e-13
3.23944e-13
3.03099e-13
2.84024e-13
2.66827e-13
2.516e-13
2.38415e-13
2.27329e-13
2.18379e-13
2.11587e-13
2.06957e-13
2.04477e-13
2.04118e-13
2.05834e-13
2.09565e-13
2.15231e-13
2.22741e-13
2.31985e-13
2.42837e-13
2.55157e-13
2.6879e-13
2.83566e-13
2.99302e-13
3.15801e-13
3.32857e-13
3.50251e-13
3.6776e-13
3.85153e-13
4.02197e-13
4.18659e-13
4.3431e-13
4.48924e-13
4.6229e-13
4.74206e-13
4.84488e-13
4.92973e-13
4.99521e-13
5.04016e-13
5.06372e-13
5.06532e-13
5.04469e-13
5.00188e-13
4.93728e-13
4.85155e-13
4.74567e-13
4.62086e-13
4.47862e-13
4.32065e-13
4.14881e-13
3.96513e-13
3.7717e-13
3.57069e-13
3.36427e-13
3.1546e-13
2.94375e-13
2.73369e-13
2.52629e-13
2.32321e-13
2.12598e-13
1.93591e-13
1.75411e-13
1.58149e-13
1.41874e-13
1.26637e-13
1.12469e-13
9.93823e-14
8.73741e-14
7.64269e-14
6.65108e-14
5.75857e-14
4.96027e-14
4.25069e-14
3.62385e-14
3.07348e-14
2.5932e-14
2.1766e-14
1.81742e-14
1.5096e-14
1.24735e-14
1.02526e-14
8.38288e-15
6.81805e-15
5.5161e-15
4.43919e-15
3.55362e-15
2.82963e-15
2.24118e-15
1.76567e-15
1.38364e-15
1.07848e-15
8.36141e-16
6.44788e-16
4.94565e-16
3.77307e-16
2.86306e-16
2.16086e-16
1.62211e-16
1.21113e-16
8.99406e-17
6.64311e-17
4.8802e-17
3.56575e-17
2.59125e-17
1.8729e-17
1.34636e-17
9.62604e-18
6.84502e-18
4.84106e-18
3.40521e-18
2.38225e-18
1.65758e-18
1.14718e-18
7.89803e-19
5.41167e-19
3.69474e-19
2.52125e-19
1.73267e-19
1.22013e-19
9.11662e-20
7.63403e-20
2.82715e-19
3.02718e-19
3.47872e-19
4.20624e-19
5.25084e-19
6.67272e-19
8.55464e-19
1.10064e-18
1.41708e-18
1.82302e-18
2.34159e-18
3.00189e-18
3.8403e-18
4.90217e-18
6.24378e-18
7.93481e-18
1.00612e-17
1.27289e-17
1.60677e-17
2.02367e-17
2.543e-17
3.18842e-17
3.98864e-17
4.97846e-17
6.19989e-17
7.70356e-17
9.5503e-17
1.1813e-16
1.45787e-16
1.79512e-16
2.20538e-16
2.70325e-16
3.30599e-16
4.03393e-16
4.91096e-16
5.96505e-16
7.22888e-16
8.74047e-16
1.0544e-15
1.26906e-15
1.52392e-15
1.82576e-15
2.18237e-15
2.60264e-15
3.09668e-15
3.67602e-15
4.35366e-15
5.14429e-15
6.06443e-15
7.13256e-15
8.36932e-15
9.79767e-15
1.1443e-14
1.33335e-14
1.54999e-14
1.7976e-14
2.07988e-14
2.4008e-14
2.76471e-14
3.17625e-14
3.64039e-14
4.16245e-14
4.74803e-14
5.40305e-14
6.13372e-14
6.94648e-14
7.848e-14
8.8451e-14
9.94474e-14
1.11539e-13
1.24797e-13
1.39288e-13
1.55081e-13
1.7224e-13
1.90825e-13
2.1089e-13
2.32486e-13
2.55653e-13
2.80423e-13
3.06818e-13
3.34849e-13
3.64513e-13
3.95791e-13
4.28653e-13
4.63047e-13
4.98906e-13
5.36145e-13
5.74658e-13
6.14319e-13
6.54983e-13
6.96485e-13
7.38639e-13
7.81242e-13
8.2407e-13
8.66886e-13
9.09434e-13
9.51448e-13
9.9265e-13
1.03275e-12
1.07147e-12
1.1085e-12
1.14355e-12
1.17635e-12
1.2066e-12
1.23404e-12
1.25843e-12
1.27953e-12
1.29714e-12
1.31107e-12
1.32118e-12
1.32735e-12
1.32949e-12
1.32755e-12
1.32153e-12
1.31145e-12
1.29739e-12
1.27945e-12
1.25777e-12
1.23253e-12
1.20396e-12
1.17228e-12
1.13778e-12
1.10075e-12
1.06153e-12
1.02043e-12
9.77827e-13
9.34068e-13
8.89521e-13
8.44554e-13
7.99529e-13
7.54801e-13
7.10715e-13
6.67601e-13
6.25772e-13
5.85524e-13
5.47126e-13
5.10829e-13
4.76856e-13
4.45406e-13
4.1665e-13
3.90735e-13
3.67779e-13
3.47874e-13
3.31089e-13
3.17464e-13
3.07015e-13
2.99733e-13
2.95588e-13
2.94523e-13
2.96459e-13
3.01295e-13
3.08907e-13
3.1915e-13
3.31856e-13
3.46836e-13
3.63882e-13
3.82763e-13
4.03231e-13
4.25021e-13
4.47848e-13
4.71416e-13
4.95416e-13
5.19528e-13
5.43429e-13
5.66791e-13
5.89289e-13
6.10602e-13
6.30423e-13
6.48456e-13
6.64428e-13
6.78088e-13
6.89217e-13
6.97627e-13
7.03165e-13
7.0572e-13
7.05223e-13
7.01646e-13
6.95006e-13
6.85362e-13
6.72818e-13
6.57515e-13
6.39631e-13
6.19378e-13
5.96997e-13
5.72751e-13
5.46921e-13
5.19801e-13
4.9169e-13
4.62889e-13
4.33693e-13
4.04389e-13
3.75245e-13
3.46514e-13
3.18426e-13
2.91183e-13
2.64963e-13
2.39915e-13
2.16159e-13
1.93787e-13
1.72864e-13
1.53428e-13
1.35492e-13
1.1905e-13
1.04073e-13
9.05187e-14
7.83286e-14
6.74339e-14
5.7757e-14
4.92146e-14
4.17196e-14
3.51833e-14
2.95174e-14
2.46353e-14
2.04537e-14
1.68933e-14
1.38797e-14
1.1344e-14
9.22288e-15
7.45892e-15
6.00054e-15
4.80183e-15
3.82226e-15
3.0264e-15
2.38354e-15
1.86726e-15
1.45503e-15
1.12776e-15
8.69434e-16
6.66701e-16
5.08506e-16
3.85771e-16
2.9109e-16
2.18468e-16
1.63083e-16
1.21084e-16
8.94175e-17
6.56766e-17
4.79789e-17
3.4861e-17
2.51929e-17
1.81076e-17
1.29446e-17
9.20369e-18
6.50842e-18
4.57752e-18
3.20205e-18
2.22779e-18
1.54166e-18
1.06131e-18
7.27145e-19
4.96412e-19
3.38723e-19
2.32764e-19
1.63901e-19
1.22457e-19
1.02538e-19
4.82206e-19
5.16294e-19
5.93255e-19
7.17256e-19
8.95294e-19
1.13761e-18
1.45831e-18
1.87607e-18
2.41517e-18
3.10668e-18
3.98994e-18
5.11442e-18
6.54201e-18
8.34979e-18
1.06334e-17
1.35113e-17
1.71296e-17
2.16678e-17
2.73467e-17
3.4436e-17
4.32654e-17
5.42358e-17
6.78342e-17
8.46501e-17
1.05395e-16
1.30928e-16
1.62276e-16
2.00673e-16
2.47593e-16
3.04787e-16
3.7434e-16
4.58716e-16
5.60828e-16
6.84104e-16
8.3257e-16
1.01094e-15
1.2247e-15
1.48026e-15
1.78504e-15
2.14762e-15
2.57789e-15
3.08722e-15
3.68865e-15
4.39705e-15
5.22934e-15
6.20474e-15
7.34497e-15
8.67449e-15
1.02208e-14
1.20146e-14
1.40901e-14
1.64855e-14
1.92428e-14
2.24084e-14
2.60332e-14
3.01729e-14
3.48882e-14
4.02445e-14
4.63128e-14
5.31692e-14
6.08947e-14
6.95757e-14
7.93033e-14
9.01735e-14
1.02286e-13
1.15745e-13
1.30657e-13
1.47132e-13
1.65279e-13
1.8521e-13
2.07034e-13
2.3086e-13
2.56792e-13
2.84927e-13
3.15359e-13
3.48169e-13
3.83429e-13
4.21196e-13
4.61515e-13
5.0441e-13
5.49887e-13
5.97932e-13
6.48503e-13
7.01537e-13
7.56941e-13
8.14593e-13
8.74342e-13
9.36005e-13
9.99369e-13
1.06419e-12
1.13019e-12
1.19705e-12
1.26446e-12
1.33203e-12
1.39938e-12
1.4661e-12
1.53177e-12
1.59592e-12
1.65812e-12
1.71789e-12
1.77478e-12
1.82833e-12
1.8781e-12
1.92365e-12
1.96458e-12
2.00052e-12
2.03111e-12
2.05606e-12
2.0751e-12
2.08802e-12
2.09467e-12
2.09494e-12
2.08878e-12
2.0762e-12
2.0573e-12
2.03219e-12
2.00108e-12
1.96422e-12
1.92191e-12
1.87452e-12
1.82245e-12
1.76615e-12
1.7061e-12
1.64282e-12
1.57684e-12
1.50873e-12
1.43904e-12
1.36834e-12
1.29721e-12
1.2262e-12
1.15585e-12
1.08669e-12
1.01922e-12
9.53902e-13
8.9118e-13
8.31452e-13
7.75083e-13
7.22397e-13
6.73676e-13
6.29162e-13
5.89057e-13
5.5352e-13
5.22671e-13
4.96588e-13
4.75315e-13
4.58853e-13
4.47171e-13
4.40201e-13
4.37841e-13
4.39955e-13
4.46375e-13
4.569e-13
4.713e-13
4.89312e-13
5.10645e-13
5.34979e-13
5.61965e-13
5.9123e-13
6.22376e-13
6.54981e-13
6.88608e-13
7.22802e-13
7.57098e-13
7.91022e-13
8.24102e-13
8.55868e-13
8.85861e-13
9.13639e-13
9.38785e-13
9.60911e-13
9.79666e-13
9.94743e-13
1.00588e-12
1.01288e-12
1.01558e-12
1.0139e-12
1.00781e-12
9.97358e-13
9.82629e-13
9.63783e-13
9.41035e-13
9.1465e-13
8.84937e-13
8.52248e-13
8.16964e-13
7.79491e-13
7.40252e-13
6.99674e-13
6.58188e-13
6.16212e-13
5.74153e-13
5.32391e-13
4.91281e-13
4.51145e-13
4.12268e-13
3.74896e-13
3.39236e-13
3.05452e-13
2.73669e-13
2.43973e-13
2.16413e-13
1.91004e-13
1.6773e-13
1.46549e-13
1.27394e-13
1.1018e-13
9.4807e-14
8.11618e-14
6.91244e-14
5.85698e-14
4.9371e-14
4.14019e-14
3.45393e-14
2.86647e-14
2.36654e-14
1.94361e-14
1.58793e-14
1.29054e-14
1.04334e-14
8.39053e-15
6.71214e-15
5.34115e-15
4.22772e-15
3.32868e-15
2.60693e-15
2.03083e-15
1.57363e-15
1.21287e-15
9.29823e-16
7.09027e-16
5.3777e-16
4.05696e-16
3.04418e-16
2.27198e-16
1.68656e-16
1.24525e-16
9.14471e-17
6.67941e-17
4.85244e-17
3.50617e-17
2.51974e-17
1.80105e-17
1.2804e-17
9.05329e-18
6.36669e-18
4.45313e-18
3.09791e-18
2.14361e-18
1.47558e-18
1.0109e-18
6.90076e-19
4.70835e-19
3.23527e-19
2.27797e-19
1.70186e-19
1.42498e-19
8.23835e-19
8.82025e-19
1.01342e-18
1.22512e-18
1.52907e-18
1.94273e-18
2.49013e-18
3.20315e-18
4.12317e-18
5.30313e-18
6.81008e-18
8.72831e-18
1.11633e-17
1.42462e-17
1.814e-17
2.30463e-17
2.92136e-17
3.69476e-17
4.66236e-17
5.87005e-17
7.37382e-17
9.24184e-17
1.15568e-16
1.44189e-16
1.79488e-16
2.22921e-16
2.76234e-16
3.41516e-16
4.21263e-16
5.18446e-16
6.36588e-16
7.79863e-16
9.53195e-16
1.16238e-15
1.41421e-15
1.71664e-15
2.07895e-15
2.51192e-15
3.02806e-15
3.6418e-15
4.36978e-15
5.23113e-15
6.24771e-15
7.44448e-15
8.84982e-15
1.04959e-14
1.2419e-14
1.46601e-14
1.7265e-14
2.02849e-14
2.37769e-14
2.78043e-14
3.2437e-14
3.7752e-14
4.38335e-14
5.07736e-14
5.86723e-14
6.76377e-14
7.77865e-14
8.92432e-14
1.02141e-13
1.16621e-13
1.32832e-13
1.50929e-13
1.71074e-13
1.93437e-13
2.18187e-13
2.45502e-13
2.75557e-13
3.08528e-13
3.4459e-13
3.83912e-13
4.26656e-13
4.72975e-13
5.23008e-13
5.76879e-13
6.34692e-13
6.9653e-13
7.62448e-13
8.32473e-13
9.06599e-13
9.84784e-13
1.06695e-12
1.15296e-12
1.24266e-12
1.33583e-12
1.43221e-12
1.53147e-12
1.63327e-12
1.73718e-12
1.84274e-12
1.94945e-12
2.05674e-12
2.16401e-12
2.27064e-12
2.37595e-12
2.47925e-12
2.57983e-12
2.67695e-12
2.76989e-12
2.85791e-12
2.9403e-12
3.01637e-12
3.08545e-12
3.14692e-12
3.2002e-12
3.24478e-12
3.2802e-12
3.30609e-12
3.32215e-12
3.32817e-12
3.32403e-12
3.3097e-12
3.28524e-12
3.25083e-12
3.20671e-12
3.15324e-12
3.09086e-12
3.02008e-12
2.94151e-12
2.85582e-12
2.76374e-12
2.66606e-12
2.56359e-12
2.45721e-12
2.34779e-12
2.23622e-12
2.1234e-12
2.0102e-12
1.89751e-12
1.78614e-12
1.67692e-12
1.57058e-12
1.46785e-12
1.36938e-12
1.27577e-12
1.18755e-12
1.1052e-12
1.02913e-12
9.59667e-13
8.97104e-13
8.41651e-13
7.93461e-13
7.52627e-13
7.1918e-13
6.93098e-13
6.74302e-13
6.62664e-13
6.58001e-13
6.60085e-13
6.68636e-13
6.83333e-13
7.03807e-13
7.29647e-13
7.60399e-13
7.9557e-13
8.34627e-13
8.77002e-13
9.22095e-13
9.69275e-13
1.01789e-12
1.06725e-12
1.11669e-12
1.16549e-12
1.21298e-12
1.25845e-12
1.30125e-12
1.34074e-12
1.37631e-12
1.4074e-12
1.43352e-12
1.45424e-12
1.46918e-12
1.47807e-12
1.4807e-12
1.47696e-12
1.46684e-12
1.45039e-12
1.42778e-12
1.39924e-12
1.36511e-12
1.32578e-12
1.28171e-12
1.23342e-12
1.18146e-12
1.12643e-12
1.06894e-12
1.00962e-12
9.49087e-13
8.87946e-13
8.26777e-13
7.66131e-13
7.06511e-13
6.48377e-13
5.92132e-13
5.38126e-13
4.86646e-13
4.37924e-13
3.92132e-13
3.49385e-13
3.09747e-13
2.73233e-13
2.39814e-13
2.09423e-13
1.8196e-13
1.57297e-13
1.35285e-13
1.15761e-13
9.85476e-14
8.34639e-14
7.03254e-14
5.89497e-14
4.91588e-14
4.07817e-14
3.36564e-14
2.76315e-14
2.25668e-14
1.83342e-14
1.48174e-14
1.19123e-14
9.52647e-15
7.57835e-15
5.99681e-15
4.72025e-15
3.69577e-15
2.8783e-15
2.22975e-15
1.71815e-15
1.31688e-15
1.00395e-15
7.61295e-16
5.74206e-16
4.30777e-16
3.21443e-16
2.38574e-16
1.76118e-16
1.29314e-16
9.44377e-17
6.85966e-17
4.9558e-17
3.56105e-17
2.54504e-17
1.80908e-17
1.279e-17
8.99357e-18
6.28985e-18
4.37525e-18
3.0272e-18
2.08363e-18
1.42736e-18
9.74296e-19
6.64711e-19
4.56715e-19
3.21553e-19
2.40216e-19
2.01125e-19
1.40267e-18
1.50166e-18
1.72522e-18
2.08541e-18
2.60253e-18
3.30626e-18
4.23742e-18
5.45019e-18
7.01488e-18
9.0214e-18
1.15836e-17
1.48447e-17
1.89837e-17
2.42233e-17
3.084e-17
3.91758e-17
4.96522e-17
6.27877e-17
7.92183e-17
9.97219e-17
1.25247e-16
1.56948e-16
1.96226e-16
2.44774e-16
3.04637e-16
3.78275e-16
4.68639e-16
5.79263e-16
7.14359e-16
8.78943e-16
1.07896e-15
1.32146e-15
1.61472e-15
1.96852e-15
2.39431e-15
2.90546e-15
3.51757e-15
4.24878e-15
5.12006e-15
6.15567e-15
7.38351e-15
8.83561e-15
1.05486e-14
1.25642e-14
1.49299e-14
1.76994e-14
2.09332e-14
2.46995e-14
2.90747e-14
3.4144e-14
4.0002e-14
4.67539e-14
5.45153e-14
6.34137e-14
7.35883e-14
8.51909e-14
9.83862e-14
1.13352e-13
1.3028e-13
1.49373e-13
1.7085e-13
1.94941e-13
2.21887e-13
2.51941e-13
2.85366e-13
3.22432e-13
3.63416e-13
4.08598e-13
4.58261e-13
5.12684e-13
5.72142e-13
6.369e-13
7.07212e-13
7.83311e-13
8.65409e-13
9.53692e-13
1.04831e-12
1.14938e-12
1.25696e-12
1.37108e-12
1.49171e-12
1.61875e-12
1.75203e-12
1.89134e-12
2.03637e-12
2.18675e-12
2.34202e-12
2.50164e-12
2.665e-12
2.83142e-12
3.00011e-12
3.17024e-12
3.34088e-12
3.51107e-12
3.67977e-12
3.84589e-12
4.00833e-12
4.16593e-12
4.31753e-12
4.46197e-12
4.59811e-12
4.72482e-12
4.84102e-12
4.94569e-12
5.03785e-12
5.11666e-12
5.18132e-12
5.23118e-12
5.2657e-12
5.28446e-12
5.28718e-12
5.27375e-12
5.24418e-12
5.19864e-12
5.13746e-12
5.0611e-12
4.97018e-12
4.86545e-12
4.74779e-12
4.6182e-12
4.47777e-12
4.32769e-12
4.16923e-12
4.00372e-12
3.83252e-12
3.65703e-12
3.47866e-12
3.2988e-12
3.11884e-12
2.9401e-12
2.76389e-12
2.59142e-12
2.42387e-12
2.26229e-12
2.10767e-12
1.96091e-12
1.8228e-12
1.69402e-12
1.57517e-12
1.46672e-12
1.36906e-12
1.28249e-12
1.20718e-12
1.14323e-12
1.09065e-12
1.04937e-12
1.01923e-12
9.99981e-13
9.91319e-13
9.92858e-13
1.00415e-12
1.02467e-12
1.05383e-12
1.091e-12
1.13546e-12
1.18646e-12
1.24319e-12
1.30477e-12
1.3703e-12
1.43883e-12
1.50938e-12
1.58094e-12
1.6525e-12
1.72302e-12
1.79148e-12
1.85687e-12
1.91823e-12
1.97462e-12
2.02518e-12
2.06909e-12
2.10564e-12
2.13422e-12
2.15432e-12
2.16553e-12
2.16759e-12
2.16036e-12
2.14383e-12
2.11811e-12
2.08347e-12
2.04026e-12
1.989e-12
1.93025e-12
1.86473e-12
1.79317e-12
1.71642e-12
1.63533e-12
1.55082e-12
1.46377e-12
1.3751e-12
1.28568e-12
1.19636e-12
1.10791e-12
1.02107e-12
9.36492e-13
8.54753e-13
7.76347e-13
7.01683e-13
6.31085e-13
5.6479e-13
5.02956e-13
4.45666e-13
3.92932e-13
3.44704e-13
3.00876e-13
2.61297e-13
2.25777e-13
1.94097e-13
1.66013e-13
1.41268e-13
1.19596e-13
1.0073e-13
8.4403e-14
7.0358e-14
5.83469e-14
4.81356e-14
3.95051e-14
3.22532e-14
2.61953e-14
2.11639e-14
1.70094e-14
1.35987e-14
1.08147e-14
8.55543e-15
6.73241e-15
5.26986e-15
4.1032e-15
3.17789e-15
2.44818e-15
1.87601e-15
1.42991e-15
1.08408e-15
8.17503e-16
6.13186e-16
4.57474e-16
3.39476e-16
2.50564e-16
1.83947e-16
1.34316e-16
9.75488e-17
7.04651e-17
5.0627e-17
3.6178e-17
2.57133e-17
1.8177e-17
1.27802e-17
8.93725e-18
6.21621e-18
4.30057e-18
2.95986e-18
2.02744e-18
1.38381e-18
9.44032e-19
6.48589e-19
4.56612e-19
3.4109e-19
2.85571e-19
2.37628e-18
2.54383e-18
2.92228e-18
3.53205e-18
4.40743e-18
5.59864e-18
7.17469e-18
9.22717e-18
1.18749e-17
1.527e-17
1.96047e-17
2.5121e-17
3.21213e-17
4.09818e-17
5.21695e-17
6.62613e-17
8.3969e-17
1.06167e-16
1.33929e-16
1.68566e-16
2.11678e-16
2.65209e-16
3.3152e-16
4.13463e-16
5.14482e-16
6.38715e-16
7.91128e-16
9.77661e-16
1.2054e-15
1.48276e-15
1.81975e-15
2.22816e-15
2.72193e-15
3.31742e-15
4.03383e-15
4.89355e-15
5.9227e-15
7.1516e-15
8.61534e-15
1.03544e-14
1.24154e-14
1.48518e-14
1.77245e-14
2.11031e-14
2.50666e-14
2.97041e-14
3.51164e-14
4.14165e-14
4.87309e-14
5.72006e-14
6.69824e-14
7.82496e-14
9.11933e-14
1.06023e-13
1.22968e-13
1.42278e-13
1.64222e-13
1.89093e-13
2.17201e-13
2.48881e-13
2.84487e-13
3.24391e-13
3.68987e-13
4.18683e-13
4.73901e-13
5.35077e-13
6.02653e-13
6.77078e-13
7.588e-13
8.48259e-13
9.4589e-13
1.0521e-12
1.1673e-12
1.29182e-12
1.426e-12
1.57011e-12
1.72436e-12
1.8889e-12
2.06382e-12
2.24911e-12
2.44468e-12
2.65033e-12
2.86576e-12
3.09057e-12
3.32423e-12
3.56609e-12
3.81536e-12
4.07116e-12
4.33244e-12
4.59806e-12
4.86674e-12
5.1371e-12
5.40765e-12
5.67678e-12
5.94284e-12
6.20407e-12
6.45869e-12
6.70487e-12
6.94077e-12
7.16455e-12
7.37442e-12
7.56861e-12
7.74545e-12
7.90336e-12
8.04089e-12
8.15671e-12
8.24968e-12
8.31882e-12
8.36337e-12
8.38276e-12
8.37665e-12
8.34495e-12
8.28778e-12
8.20551e-12
8.09875e-12
7.96835e-12
7.81534e-12
7.64102e-12
7.44683e-12
7.23442e-12
7.00557e-12
6.76222e-12
6.50639e-12
6.2402e-12
5.96583e-12
5.68546e-12
5.40132e-12
5.11558e-12
4.83037e-12
4.54778e-12
4.26977e-12
3.99824e-12
3.73492e-12
3.48145e-12
3.23929e-12
3.00977e-12
2.79405e-12
2.59313e-12
2.40786e-12
2.23891e-12
2.08682e-12
1.95195e-12
1.83453e-12
1.73464e-12
1.65223e-12
1.58712e-12
1.53901e-12
1.50749e-12
1.49201e-12
1.49196e-12
1.50659e-12
1.53509e-12
1.57653e-12
1.62991e-12
1.69413e-12
1.76802e-12
1.85035e-12
1.9398e-12
2.035e-12
2.13452e-12
2.23689e-12
2.34063e-12
2.4442e-12
2.5461e-12
2.64482e-12
2.73889e-12
2.82688e-12
2.90744e-12
2.97932e-12
3.04134e-12
3.0925e-12
3.13191e-12
3.15884e-12
3.17275e-12
3.17328e-12
3.16025e-12
3.13367e-12
3.09376e-12
3.04091e-12
2.97569e-12
2.89884e-12
2.81124e-12
2.71392e-12
2.608e-12
2.49469e-12
2.37527e-12
2.25105e-12
2.12335e-12
1.99348e-12
1.8627e-12
1.73224e-12
1.60322e-12
1.4767e-12
1.35361e-12
1.23478e-12
1.1209e-12
1.01256e-12
9.10202e-13
8.14168e-13
7.24669e-13
6.41809e-13
5.65595e-13
4.95942e-13
4.32687e-13
3.75601e-13
3.24402e-13
2.78764e-13
2.38331e-13
2.02725e-13
1.71558e-13
1.44439e-13
1.20983e-13
1.00814e-13
8.35747e-14
6.89247e-14
5.65481e-14
4.61529e-14
3.74726e-14
3.0266e-14
2.43176e-14
1.9436e-14
1.54528e-14
1.22213e-14
9.6147e-15
7.52414e-15
5.85703e-15
4.53517e-15
3.49303e-15
2.67609e-15
2.03932e-15
1.54579e-15
1.16546e-15
8.74022e-16
6.5196e-16
4.83717e-16
3.56969e-16
2.62022e-16
1.91297e-16
1.38913e-16
1.00332e-16
7.2076e-17
5.14991e-17
3.65986e-17
2.58691e-17
1.81866e-17
1.27167e-17
8.84418e-18
6.11815e-18
4.21045e-18
2.88385e-18
1.96819e-18
1.3426e-18
9.22361e-19
6.49304e-19
4.84999e-19
4.06037e-19
4.00371e-18
4.28575e-18
4.92293e-18
5.94956e-18
7.42331e-18
9.42864e-18
1.20816e-17
1.55362e-17
1.99923e-17
2.57053e-17
3.29987e-17
4.2279e-17
5.4054e-17
6.89561e-17
8.7769e-17
1.11462e-16
1.41229e-16
1.7854e-16
2.25192e-16
2.83387e-16
3.55806e-16
4.45711e-16
5.57054e-16
6.94617e-16
8.64162e-16
1.07262e-15
1.3283e-15
1.64114e-15
2.02298e-15
2.48789e-15
3.05258e-15
3.73676e-15
4.56366e-15
5.5606e-15
6.75955e-15
8.19785e-15
9.91897e-15
1.19734e-14
1.44194e-14
1.73244e-14
2.07656e-14
2.48319e-14
2.96242e-14
3.52579e-14
4.18636e-14
4.95889e-14
5.86001e-14
6.90838e-14
8.12487e-14
9.5327e-14
1.11577e-13
1.30283e-13
1.51758e-13
1.76348e-13
2.04425e-13
2.364e-13
2.72711e-13
3.13833e-13
3.60275e-13
4.12577e-13
4.71313e-13
5.37087e-13
6.10531e-13
6.92303e-13
7.83081e-13
8.8356e-13
9.94448e-13
1.11645e-12
1.25029e-12
1.39664e-12
1.5562e-12
1.72959e-12
1.91743e-12
2.12026e-12
2.33855e-12
2.57271e-12
2.82303e-12
3.08972e-12
3.37284e-12
3.67234e-12
3.988e-12
4.31945e-12
4.66615e-12
5.02738e-12
5.4022e-12
5.78953e-12
6.18804e-12
6.59623e-12
7.01238e-12
7.4346e-12
7.86079e-12
8.28868e-12
8.71586e-12
9.13974e-12
9.55765e-12
9.96679e-12
1.03643e-11
1.07473e-11
1.11128e-11
1.14581e-11
1.17802e-11
1.20764e-11
1.23442e-11
1.25812e-11
1.27851e-11
1.29539e-11
1.3086e-11
1.31799e-11
1.32347e-11
1.32494e-11
1.32238e-11
1.31579e-11
1.30519e-11
1.29067e-11
1.27232e-11
1.25031e-11
1.22481e-11
1.19603e-11
1.16421e-11
1.12962e-11
1.09255e-11
1.05331e-11
1.01222e-11
9.69621e-12
9.25854e-12
8.81265e-12
8.36197e-12
7.9099e-12
7.45975e-12
7.0147e-12
6.57777e-12
6.15184e-12
5.73954e-12
5.34331e-12
4.96535e-12
4.60761e-12
4.2718e-12
3.95937e-12
3.67151e-12
3.40918e-12
3.17306e-12
2.96365e-12
2.78118e-12
2.62568e-12
2.49699e-12
2.39473e-12
2.31837e-12
2.26718e-12
2.24029e-12
2.23667e-12
2.25515e-12
2.29441e-12
2.35301e-12
2.42939e-12
2.52188e-12
2.62867e-12
2.74787e-12
2.87751e-12
3.01552e-12
3.15975e-12
3.30802e-12
3.45811e-12
3.60778e-12
3.75477e-12
3.89689e-12
4.03197e-12
4.15795e-12
4.27286e-12
4.37488e-12
4.46233e-12
4.53376e-12
4.58792e-12
4.62379e-12
4.64061e-12
4.63788e-12
4.61541e-12
4.57325e-12
4.51176e-12
4.43153e-12
4.33345e-12
4.21863e-12
4.08838e-12
3.94422e-12
3.78779e-12
3.62089e-12
3.44537e-12
3.26316e-12
3.07615e-12
2.88626e-12
2.69533e-12
2.50509e-12
2.3172e-12
2.13314e-12
1.95426e-12
1.78173e-12
1.61656e-12
1.45956e-12
1.31135e-12
1.17242e-12
1.04303e-12
9.23333e-13
8.13312e-13
7.1283e-13
6.21638e-13
5.39391e-13
4.6567e-13
3.99994e-13
3.4184e-13
2.90657e-13
2.45878e-13
2.06935e-13
1.73267e-13
1.44332e-13
1.1961e-13
9.86108e-14
8.08776e-14
6.59894e-14
5.3562e-14
4.32486e-14
3.47388e-14
2.77575e-14
2.20631e-14
1.74448e-14
1.37207e-14
1.07347e-14
8.35433e-15
6.46741e-15
4.98019e-15
3.81464e-15
2.90637e-15
2.20259e-15
1.66035e-15
1.24493e-15
9.28476e-16
6.88763e-16
5.08208e-16
3.72978e-16
2.72265e-16
1.97681e-16
1.42759e-16
1.02542e-16
7.32587e-17
5.20564e-17
3.67913e-17
2.58625e-17
1.80822e-17
1.25746e-17
8.69797e-18
5.98537e-18
4.09922e-18
2.79746e-18
1.90815e-18
1.31079e-18
9.22675e-19
6.89147e-19
5.76919e-19
6.70804e-18
7.18017e-18
8.24692e-18
9.96572e-18
1.2433e-17
1.579e-17
2.02308e-17
2.60128e-17
3.34703e-17
4.30302e-17
5.52331e-17
7.07583e-17
9.04545e-17
1.15378e-16
1.46837e-16
1.8645e-16
2.36212e-16
2.98572e-16
3.76534e-16
4.73766e-16
5.94741e-16
7.44896e-16
9.30818e-16
1.16047e-15
1.44346e-15
1.79131e-15
2.21786e-15
2.73963e-15
3.37631e-15
4.15132e-15
5.09237e-15
6.23222e-15
7.60943e-15
9.26931e-15
1.12649e-14
1.3658e-14
1.65207e-14
1.99365e-14
2.40018e-14
2.8828e-14
3.45429e-14
4.12928e-14
4.92445e-14
5.8588e-14
6.95383e-14
8.23384e-14
9.72617e-14
1.14615e-13
1.34739e-13
1.58016e-13
1.84868e-13
2.15761e-13
2.51206e-13
2.91764e-13
3.38047e-13
3.90716e-13
4.50488e-13
5.18132e-13
5.9447e-13
6.80376e-13
7.76775e-13
8.84638e-13
1.00498e-12
1.13885e-12
1.28734e-12
1.45155e-12
1.6326e-12
1.83162e-12
2.04972e-12
2.28798e-12
2.54746e-12
2.82916e-12
3.13398e-12
3.46275e-12
3.81618e-12
4.19485e-12
4.59917e-12
5.02937e-12
5.48549e-12
5.96735e-12
6.4745e-12
7.00626e-12
7.56166e-12
8.13943e-12
8.73801e-12
9.35553e-12
9.98979e-12
1.06383e-11
1.12982e-11
1.19664e-11
1.26394e-11
1.33137e-11
1.39853e-11
1.465e-11
1.53036e-11
1.59416e-11
1.65595e-11
1.71527e-11
1.77166e-11
1.82468e-11
1.87388e-11
1.91885e-11
1.95919e-11
1.99453e-11
2.02453e-11
2.04891e-11
2.06742e-11
2.07985e-11
2.08606e-11
2.08595e-11
2.07948e-11
2.06668e-11
2.04762e-11
2.02245e-11
1.99136e-11
1.95459e-11
1.91245e-11
1.8653e-11
1.81352e-11
1.75755e-11
1.69785e-11
1.63493e-11
1.56929e-11
1.50146e-11
1.43198e-11
1.3614e-11
1.29024e-11
1.21903e-11
1.14829e-11
1.07849e-11
1.0101e-11
9.43552e-12
8.79246e-12
8.17546e-12
7.58777e-12
7.03227e-12
6.51145e-12
6.02736e-12
5.58172e-12
5.17582e-12
4.81059e-12
4.48659e-12
4.20407e-12
3.96292e-12
3.76274e-12
3.60285e-12
3.48229e-12