/*--------------------------------*- C++ -*----------------------------------*\
| =========                 |                                                 |
| \\      /  F ield         | OpenFOAM: The Open Source CFD Toolbox           |
|  \\    /   O peration     | Version:  v2012                                 |
|   \\  /    A nd           | Website:  www.openfoam.com                      |
|    \\/     M anipulation  |                                                 |
\*---------------------------------------------------------------------------*/
FoamFile
{
    version     2.0;
    format      ascii;
    class       volVectorField;
    location    "5.75";
    object      Psi;
}
// * * * * * * * * * * * * * * * * * * * * * * * * * * * * * * * * * * * * * //

dimensions      [0 2 -1 0 0 0 0];


internalField   nonuniform List<vector> 
65536
(
(0 0 9.18854e-06)
(0 0 2.75653e-05)
(0 0 4.5941e-05)
(0 0 6.43152e-05)
(0 0 8.2687e-05)
(0 0 0.000101056)
(0 0 0.000119421)
(0 0 0.000137782)
(0 0 0.000156138)
(0 0 0.000174488)
(0 0 0.000192831)
(0 0 0.000211167)
(0 0 0.000229495)
(0 0 0.000247813)
(0 0 0.000266121)
(0 0 0.000284418)
(0 0 0.000302703)
(0 0 0.000320975)
(0 0 0.000339232)
(0 0 0.000357473)
(0 0 0.000375697)
(0 0 0.000393904)
(0 0 0.00041209)
(0 0 0.000430255)
(0 0 0.000448398)
(0 0 0.000466516)
(0 0 0.000484608)
(0 0 0.000502672)
(0 0 0.000520707)
(0 0 0.000538709)
(0 0 0.000556678)
(0 0 0.000574611)
(0 0 0.000592505)
(0 0 0.000610359)
(0 0 0.00062817)
(0 0 0.000645936)
(0 0 0.000663653)
(0 0 0.000681319)
(0 0 0.000698932)
(0 0 0.000716488)
(0 0 0.000733984)
(0 0 0.000751417)
(0 0 0.000768784)
(0 0 0.000786081)
(0 0 0.000803306)
(0 0 0.000820454)
(0 0 0.000837521)
(0 0 0.000854505)
(0 0 0.000871401)
(0 0 0.000888205)
(0 0 0.000904914)
(0 0 0.000921522)
(0 0 0.000938026)
(0 0 0.000954422)
(0 0 0.000970704)
(0 0 0.000986869)
(0 0 0.00100291)
(0 0 0.00101883)
(0 0 0.00103461)
(0 0 0.00105026)
(0 0 0.00106577)
(0 0 0.00108113)
(0 0 0.00109634)
(0 0 0.0011114)
(0 0 0.00112629)
(0 0 0.00114102)
(0 0 0.00115557)
(0 0 0.00116995)
(0 0 0.00118415)
(0 0 0.00119816)
(0 0 0.00121198)
(0 0 0.00122561)
(0 0 0.00123903)
(0 0 0.00125224)
(0 0 0.00126524)
(0 0 0.00127802)
(0 0 0.00129058)
(0 0 0.00130292)
(0 0 0.00131502)
(0 0 0.00132688)
(0 0 0.0013385)
(0 0 0.00134987)
(0 0 0.00136099)
(0 0 0.00137186)
(0 0 0.00138246)
(0 0 0.0013928)
(0 0 0.00140288)
(0 0 0.00141267)
(0 0 0.00142219)
(0 0 0.00143143)
(0 0 0.00144039)
(0 0 0.00144905)
(0 0 0.00145743)
(0 0 0.00146551)
(0 0 0.00147329)
(0 0 0.00148077)
(0 0 0.00148794)
(0 0 0.00149481)
(0 0 0.00150138)
(0 0 0.00150763)
(0 0 0.00151357)
(0 0 0.00151919)
(0 0 0.0015245)
(0 0 0.00152949)
(0 0 0.00153416)
(0 0 0.00153851)
(0 0 0.00154254)
(0 0 0.00154625)
(0 0 0.00154964)
(0 0 0.0015527)
(0 0 0.00155545)
(0 0 0.00155787)
(0 0 0.00155997)
(0 0 0.00156175)
(0 0 0.00156321)
(0 0 0.00156435)
(0 0 0.00156517)
(0 0 0.00156568)
(0 0 0.00156587)
(0 0 0.00156575)
(0 0 0.00156531)
(0 0 0.00156457)
(0 0 0.00156352)
(0 0 0.00156216)
(0 0 0.0015605)
(0 0 0.00155853)
(0 0 0.00155627)
(0 0 0.00155372)
(0 0 0.00155087)
(0 0 0.00154774)
(0 0 0.00154432)
(0 0 0.00154061)
(0 0 0.00153663)
(0 0 0.00153237)
(0 0 0.00152784)
(0 0 0.00152304)
(0 0 0.00151798)
(0 0 0.00151265)
(0 0 0.00150707)
(0 0 0.00150123)
(0 0 0.00149515)
(0 0 0.00148882)
(0 0 0.00148225)
(0 0 0.00147544)
(0 0 0.0014684)
(0 0 0.00146113)
(0 0 0.00145364)
(0 0 0.00144592)
(0 0 0.00143799)
(0 0 0.00142985)
(0 0 0.0014215)
(0 0 0.00141294)
(0 0 0.00140419)
(0 0 0.00139524)
(0 0 0.0013861)
(0 0 0.00137678)
(0 0 0.00136727)
(0 0 0.00135758)
(0 0 0.00134771)
(0 0 0.00133768)
(0 0 0.00132748)
(0 0 0.00131712)
(0 0 0.0013066)
(0 0 0.00129592)
(0 0 0.00128509)
(0 0 0.00127412)
(0 0 0.001263)
(0 0 0.00125174)
(0 0 0.00124035)
(0 0 0.00122883)
(0 0 0.00121717)
(0 0 0.00120539)
(0 0 0.00119349)
(0 0 0.00118147)
(0 0 0.00116933)
(0 0 0.00115708)
(0 0 0.00114473)
(0 0 0.00113227)
(0 0 0.0011197)
(0 0 0.00110704)
(0 0 0.00109428)
(0 0 0.00108142)
(0 0 0.00106848)
(0 0 0.00105545)
(0 0 0.00104233)
(0 0 0.00102913)
(0 0 0.00101585)
(0 0 0.0010025)
(0 0 0.000989067)
(0 0 0.000975565)
(0 0 0.000961993)
(0 0 0.000948354)
(0 0 0.00093465)
(0 0 0.000920883)
(0 0 0.000907056)
(0 0 0.00089317)
(0 0 0.000879229)
(0 0 0.000865233)
(0 0 0.000851185)
(0 0 0.000837086)
(0 0 0.000822939)
(0 0 0.000808746)
(0 0 0.000794508)
(0 0 0.000780227)
(0 0 0.000765904)
(0 0 0.000751542)
(0 0 0.000737142)
(0 0 0.000722705)
(0 0 0.000708233)
(0 0 0.000693727)
(0 0 0.000679189)
(0 0 0.000664621)
(0 0 0.000650023)
(0 0 0.000635396)
(0 0 0.000620743)
(0 0 0.000606064)
(0 0 0.00059136)
(0 0 0.000576632)
(0 0 0.000561883)
(0 0 0.000547112)
(0 0 0.00053232)
(0 0 0.000517509)
(0 0 0.00050268)
(0 0 0.000487833)
(0 0 0.00047297)
(0 0 0.000458091)
(0 0 0.000443197)
(0 0 0.000428289)
(0 0 0.000413367)
(0 0 0.000398433)
(0 0 0.000383486)
(0 0 0.000368529)
(0 0 0.00035356)
(0 0 0.000338582)
(0 0 0.000323594)
(0 0 0.000308597)
(0 0 0.000293592)
(0 0 0.00027858)
(0 0 0.00026356)
(0 0 0.000248533)
(0 0 0.0002335)
(0 0 0.000218461)
(0 0 0.000203417)
(0 0 0.000188368)
(0 0 0.000173315)
(0 0 0.000158257)
(0 0 0.000143196)
(0 0 0.000128131)
(0 0 0.000113064)
(0 0 9.79939e-05)
(0 0 8.29216e-05)
(0 0 6.78475e-05)
(0 0 5.27718e-05)
(0 0 3.7695e-05)
(0 0 2.26173e-05)
(0 0 7.53916e-06)
(0 0 2.75659e-05)
(0 0 8.26967e-05)
(0 0 0.000137825)
(0 0 0.000192948)
(0 0 0.000248064)
(0 0 0.000303171)
(0 0 0.000358268)
(0 0 0.000413351)
(0 0 0.000468419)
(0 0 0.00052347)
(0 0 0.000578501)
(0 0 0.000633509)
(0 0 0.000688493)
(0 0 0.000743449)
(0 0 0.000798374)
(0 0 0.000853266)
(0 0 0.000908122)
(0 0 0.000962938)
(0 0 0.00101771)
(0 0 0.00107244)
(0 0 0.00112711)
(0 0 0.00118173)
(0 0 0.00123629)
(0 0 0.00129079)
(0 0 0.00134522)
(0 0 0.00139957)
(0 0 0.00145385)
(0 0 0.00150805)
(0 0 0.00156215)
(0 0 0.00161616)
(0 0 0.00167007)
(0 0 0.00172387)
(0 0 0.00177756)
(0 0 0.00183112)
(0 0 0.00188456)
(0 0 0.00193785)
(0 0 0.00199101)
(0 0 0.00204401)
(0 0 0.00209685)
(0 0 0.00214952)
(0 0 0.00220201)
(0 0 0.00225432)
(0 0 0.00230642)
(0 0 0.00235832)
(0 0 0.00240999)
(0 0 0.00246144)
(0 0 0.00251265)
(0 0 0.0025636)
(0 0 0.00261429)
(0 0 0.00266471)
(0 0 0.00271484)
(0 0 0.00276467)
(0 0 0.00281419)
(0 0 0.00286338)
(0 0 0.00291223)
(0 0 0.00296073)
(0 0 0.00300886)
(0 0 0.00305662)
(0 0 0.00310397)
(0 0 0.00315093)
(0 0 0.00319745)
(0 0 0.00324354)
(0 0 0.00328918)
(0 0 0.00333435)
(0 0 0.00337903)
(0 0 0.00342322)
(0 0 0.0034669)
(0 0 0.00351004)
(0 0 0.00355264)
(0 0 0.00359468)
(0 0 0.00363614)
(0 0 0.00367702)
(0 0 0.00371728)
(0 0 0.00375693)
(0 0 0.00379593)
(0 0 0.00383429)
(0 0 0.00387197)
(0 0 0.00390898)
(0 0 0.00394528)
(0 0 0.00398088)
(0 0 0.00401574)
(0 0 0.00404987)
(0 0 0.00408324)
(0 0 0.00411584)
(0 0 0.00414766)
(0 0 0.00417868)
(0 0 0.0042089)
(0 0 0.00423829)
(0 0 0.00426686)
(0 0 0.00429458)
(0 0 0.00432145)
(0 0 0.00434745)
(0 0 0.00437257)
(0 0 0.00439681)
(0 0 0.00442016)
(0 0 0.0044426)
(0 0 0.00446414)
(0 0 0.00448475)
(0 0 0.00450444)
(0 0 0.00452319)
(0 0 0.00454101)
(0 0 0.00455788)
(0 0 0.00457381)
(0 0 0.00458878)
(0 0 0.00460279)
(0 0 0.00461585)
(0 0 0.00462794)
(0 0 0.00463907)
(0 0 0.00464923)
(0 0 0.00465843)
(0 0 0.00466666)
(0 0 0.00467393)
(0 0 0.00468023)
(0 0 0.00468557)
(0 0 0.00468995)
(0 0 0.00469337)
(0 0 0.00469584)
(0 0 0.00469735)
(0 0 0.00469792)
(0 0 0.00469755)
(0 0 0.00469625)
(0 0 0.00469401)
(0 0 0.00469085)
(0 0 0.00468677)
(0 0 0.00468179)
(0 0 0.0046759)
(0 0 0.00466912)
(0 0 0.00466145)
(0 0 0.00465291)
(0 0 0.0046435)
(0 0 0.00463323)
(0 0 0.00462211)
(0 0 0.00461016)
(0 0 0.00459738)
(0 0 0.00458378)
(0 0 0.00456938)
(0 0 0.00455419)
(0 0 0.00453821)
(0 0 0.00452146)
(0 0 0.00450395)
(0 0 0.00448569)
(0 0 0.0044667)
(0 0 0.00444698)
(0 0 0.00442655)
(0 0 0.00440543)
(0 0 0.00438361)
(0 0 0.00436113)
(0 0 0.00433798)
(0 0 0.00431418)
(0 0 0.00428975)
(0 0 0.0042647)
(0 0 0.00423903)
(0 0 0.00421277)
(0 0 0.00418592)
(0 0 0.00415849)
(0 0 0.00413051)
(0 0 0.00410198)
(0 0 0.00407291)
(0 0 0.00404331)
(0 0 0.00401321)
(0 0 0.00398261)
(0 0 0.00395151)
(0 0 0.00391995)
(0 0 0.00388791)
(0 0 0.00385543)
(0 0 0.0038225)
(0 0 0.00378915)
(0 0 0.00375537)
(0 0 0.00372119)
(0 0 0.0036866)
(0 0 0.00365164)
(0 0 0.00361629)
(0 0 0.00358058)
(0 0 0.00354452)
(0 0 0.00350811)
(0 0 0.00347136)
(0 0 0.00343429)
(0 0 0.0033969)
(0 0 0.0033592)
(0 0 0.00332121)
(0 0 0.00328292)
(0 0 0.00324436)
(0 0 0.00320553)
(0 0 0.00316643)
(0 0 0.00312707)
(0 0 0.00308747)
(0 0 0.00304764)
(0 0 0.00300757)
(0 0 0.00296727)
(0 0 0.00292676)
(0 0 0.00288605)
(0 0 0.00284513)
(0 0 0.00280401)
(0 0 0.00276271)
(0 0 0.00272123)
(0 0 0.00267957)
(0 0 0.00263774)
(0 0 0.00259575)
(0 0 0.0025536)
(0 0 0.00251131)
(0 0 0.00246887)
(0 0 0.00242628)
(0 0 0.00238357)
(0 0 0.00234072)
(0 0 0.00229775)
(0 0 0.00225466)
(0 0 0.00221146)
(0 0 0.00216815)
(0 0 0.00212473)
(0 0 0.00208121)
(0 0 0.0020376)
(0 0 0.00199389)
(0 0 0.0019501)
(0 0 0.00190622)
(0 0 0.00186225)
(0 0 0.00181822)
(0 0 0.0017741)
(0 0 0.00172992)
(0 0 0.00168567)
(0 0 0.00164136)
(0 0 0.00159698)
(0 0 0.00155255)
(0 0 0.00150806)
(0 0 0.00146352)
(0 0 0.00141893)
(0 0 0.00137429)
(0 0 0.00132961)
(0 0 0.00128488)
(0 0 0.00124011)
(0 0 0.00119531)
(0 0 0.00115047)
(0 0 0.0011056)
(0 0 0.00106069)
(0 0 0.00101576)
(0 0 0.000970791)
(0 0 0.000925801)
(0 0 0.000880785)
(0 0 0.000835747)
(0 0 0.000790686)
(0 0 0.000745606)
(0 0 0.000700507)
(0 0 0.00065539)
(0 0 0.000610257)
(0 0 0.00056511)
(0 0 0.000519949)
(0 0 0.000474776)
(0 0 0.000429592)
(0 0 0.000384397)
(0 0 0.000339195)
(0 0 0.000293984)
(0 0 0.000248767)
(0 0 0.000203544)
(0 0 0.000158317)
(0 0 0.000113086)
(0 0 6.78525e-05)
(0 0 2.26177e-05)
(0 0 4.59442e-05)
(0 0 0.000137831)
(0 0 0.000229713)
(0 0 0.000321587)
(0 0 0.00041345)
(0 0 0.000505298)
(0 0 0.000597127)
(0 0 0.000688936)
(0 0 0.000780718)
(0 0 0.000872472)
(0 0 0.000964193)
(0 0 0.00105588)
(0 0 0.00114752)
(0 0 0.00123912)
(0 0 0.00133066)
(0 0 0.00142215)
(0 0 0.00151358)
(0 0 0.00160494)
(0 0 0.00169624)
(0 0 0.00178745)
(0 0 0.00187858)
(0 0 0.00196962)
(0 0 0.00206056)
(0 0 0.00215139)
(0 0 0.00224211)
(0 0 0.00233271)
(0 0 0.00242318)
(0 0 0.00251351)
(0 0 0.00260369)
(0 0 0.00269371)
(0 0 0.00278357)
(0 0 0.00287324)
(0 0 0.00296273)
(0 0 0.00305201)
(0 0 0.00314108)
(0 0 0.00322992)
(0 0 0.00331852)
(0 0 0.00340686)
(0 0 0.00349494)
(0 0 0.00358273)
(0 0 0.00367023)
(0 0 0.00375741)
(0 0 0.00384426)
(0 0 0.00393077)
(0 0 0.00401691)
(0 0 0.00410267)
(0 0 0.00418802)
(0 0 0.00427296)
(0 0 0.00435746)
(0 0 0.0044415)
(0 0 0.00452507)
(0 0 0.00460813)
(0 0 0.00469067)
(0 0 0.00477267)
(0 0 0.0048541)
(0 0 0.00493495)
(0 0 0.00501519)
(0 0 0.0050948)
(0 0 0.00517374)
(0 0 0.00525201)
(0 0 0.00532957)
(0 0 0.00540641)
(0 0 0.00548248)
(0 0 0.00555778)
(0 0 0.00563228)
(0 0 0.00570594)
(0 0 0.00577875)
(0 0 0.00585067)
(0 0 0.00592169)
(0 0 0.00599177)
(0 0 0.0060609)
(0 0 0.00612904)
(0 0 0.00619616)
(0 0 0.00626225)
(0 0 0.00632728)
(0 0 0.00639122)
(0 0 0.00645405)
(0 0 0.00651574)
(0 0 0.00657626)
(0 0 0.0066356)
(0 0 0.00669372)
(0 0 0.00675061)
(0 0 0.00680625)
(0 0 0.0068606)
(0 0 0.00691364)
(0 0 0.00696536)
(0 0 0.00701574)
(0 0 0.00706475)
(0 0 0.00711237)
(0 0 0.00715858)
(0 0 0.00720337)
(0 0 0.00724672)
(0 0 0.0072886)
(0 0 0.00732902)
(0 0 0.00736794)
(0 0 0.00740535)
(0 0 0.00744125)
(0 0 0.00747561)
(0 0 0.00750843)
(0 0 0.0075397)
(0 0 0.0075694)
(0 0 0.00759752)
(0 0 0.00762407)
(0 0 0.00764902)
(0 0 0.00767238)
(0 0 0.00769415)
(0 0 0.0077143)
(0 0 0.00773285)
(0 0 0.00774979)
(0 0 0.00776512)
(0 0 0.00777884)
(0 0 0.00779095)
(0 0 0.00780145)
(0 0 0.00781035)
(0 0 0.00781765)
(0 0 0.00782334)
(0 0 0.00782745)
(0 0 0.00782997)
(0 0 0.00783092)
(0 0 0.0078303)
(0 0 0.00782811)
(0 0 0.00782438)
(0 0 0.0078191)
(0 0 0.0078123)
(0 0 0.00780398)
(0 0 0.00779416)
(0 0 0.00778285)
(0 0 0.00777006)
(0 0 0.00775581)
(0 0 0.00774012)
(0 0 0.00772299)
(0 0 0.00770445)
(0 0 0.00768452)
(0 0 0.00766321)
(0 0 0.00764053)
(0 0 0.00761652)
(0 0 0.00759118)
(0 0 0.00756453)
(0 0 0.0075366)
(0 0 0.00750741)
(0 0 0.00747696)
(0 0 0.0074453)
(0 0 0.00741242)
(0 0 0.00737836)
(0 0 0.00734314)
(0 0 0.00730677)
(0 0 0.00726928)
(0 0 0.00723069)
(0 0 0.00719101)
(0 0 0.00715028)
(0 0 0.00710851)
(0 0 0.00706571)
(0 0 0.00702193)
(0 0 0.00697716)
(0 0 0.00693144)
(0 0 0.00688479)
(0 0 0.00683722)
(0 0 0.00678876)
(0 0 0.00673943)
(0 0 0.00668924)
(0 0 0.00663822)
(0 0 0.00658639)
(0 0 0.00653376)
(0 0 0.00648036)
(0 0 0.0064262)
(0 0 0.00637131)
(0 0 0.00631571)
(0 0 0.0062594)
(0 0 0.00620242)
(0 0 0.00614477)
(0 0 0.00608648)
(0 0 0.00602756)
(0 0 0.00596803)
(0 0 0.00590791)
(0 0 0.00584722)
(0 0 0.00578596)
(0 0 0.00572416)
(0 0 0.00566184)
(0 0 0.005599)
(0 0 0.00553567)
(0 0 0.00547185)
(0 0 0.00540757)
(0 0 0.00534283)
(0 0 0.00527766)
(0 0 0.00521206)
(0 0 0.00514606)
(0 0 0.00507965)
(0 0 0.00501286)
(0 0 0.00494569)
(0 0 0.00487817)
(0 0 0.0048103)
(0 0 0.00474209)
(0 0 0.00467356)
(0 0 0.00460472)
(0 0 0.00453557)
(0 0 0.00446613)
(0 0 0.00439641)
(0 0 0.00432642)
(0 0 0.00425617)
(0 0 0.00418567)
(0 0 0.00411493)
(0 0 0.00404395)
(0 0 0.00397276)
(0 0 0.00390134)
(0 0 0.00382972)
(0 0 0.0037579)
(0 0 0.00368589)
(0 0 0.0036137)
(0 0 0.00354133)
(0 0 0.0034688)
(0 0 0.0033961)
(0 0 0.00332325)
(0 0 0.00325025)
(0 0 0.00317712)
(0 0 0.00310384)
(0 0 0.00303044)
(0 0 0.00295692)
(0 0 0.00288327)
(0 0 0.00280952)
(0 0 0.00273566)
(0 0 0.0026617)
(0 0 0.00258764)
(0 0 0.00251349)
(0 0 0.00243925)
(0 0 0.00236493)
(0 0 0.00229053)
(0 0 0.00221606)
(0 0 0.00214151)
(0 0 0.0020669)
(0 0 0.00199222)
(0 0 0.00191749)
(0 0 0.0018427)
(0 0 0.00176785)
(0 0 0.00169296)
(0 0 0.00161801)
(0 0 0.00154303)
(0 0 0.001468)
(0 0 0.00139294)
(0 0 0.00131783)
(0 0 0.0012427)
(0 0 0.00116753)
(0 0 0.00109233)
(0 0 0.00101711)
(0 0 0.000941865)
(0 0 0.000866595)
(0 0 0.000791305)
(0 0 0.000715997)
(0 0 0.000640672)
(0 0 0.000565333)
(0 0 0.000489981)
(0 0 0.000414617)
(0 0 0.000339245)
(0 0 0.000263865)
(0 0 0.000188479)
(0 0 0.000113089)
(0 0 3.76966e-05)
(0 0 6.43242e-05)
(0 0 0.00019297)
(0 0 0.00032161)
(0 0 0.000450238)
(0 0 0.00057885)
(0 0 0.000707442)
(0 0 0.000836009)
(0 0 0.000964545)
(0 0 0.00109305)
(0 0 0.00122151)
(0 0 0.00134992)
(0 0 0.00147829)
(0 0 0.00160659)
(0 0 0.00173483)
(0 0 0.001863)
(0 0 0.0019911)
(0 0 0.00211911)
(0 0 0.00224702)
(0 0 0.00237484)
(0 0 0.00250255)
(0 0 0.00263014)
(0 0 0.0027576)
(0 0 0.00288493)
(0 0 0.0030121)
(0 0 0.00313912)
(0 0 0.00326598)
(0 0 0.00339265)
(0 0 0.00351912)
(0 0 0.00364539)
(0 0 0.00377144)
(0 0 0.00389725)
(0 0 0.00402281)
(0 0 0.0041481)
(0 0 0.00427311)
(0 0 0.00439783)
(0 0 0.00452222)
(0 0 0.00464628)
(0 0 0.00476998)
(0 0 0.00489331)
(0 0 0.00501625)
(0 0 0.00513876)
(0 0 0.00526084)
(0 0 0.00538246)
(0 0 0.00550359)
(0 0 0.00562421)
(0 0 0.00574429)
(0 0 0.00586382)
(0 0 0.00598276)
(0 0 0.00610109)
(0 0 0.00621877)
(0 0 0.00633579)
(0 0 0.00645211)
(0 0 0.0065677)
(0 0 0.00668253)
(0 0 0.00679657)
(0 0 0.00690979)
(0 0 0.00702215)
(0 0 0.00713363)
(0 0 0.0072442)
(0 0 0.0073538)
(0 0 0.00746243)
(0 0 0.00757003)
(0 0 0.00767657)
(0 0 0.00778202)
(0 0 0.00788635)
(0 0 0.00798951)
(0 0 0.00809148)
(0 0 0.00819221)
(0 0 0.00829167)
(0 0 0.00838983)
(0 0 0.00848664)
(0 0 0.00858207)
(0 0 0.00867608)
(0 0 0.00876864)
(0 0 0.00885972)
(0 0 0.00894927)
(0 0 0.00903726)
(0 0 0.00912366)
(0 0 0.00920843)
(0 0 0.00929154)
(0 0 0.00937294)
(0 0 0.00945262)
(0 0 0.00953054)
(0 0 0.00960666)
(0 0 0.00968096)
(0 0 0.0097534)
(0 0 0.00982395)
(0 0 0.00989259)
(0 0 0.00995928)
(0 0 0.010024)
(0 0 0.0100867)
(0 0 0.0101474)
(0 0 0.0102061)
(0 0 0.0102627)
(0 0 0.0103172)
(0 0 0.0103696)
(0 0 0.0104199)
(0 0 0.010468)
(0 0 0.010514)
(0 0 0.0105578)
(0 0 0.0105994)
(0 0 0.0106387)
(0 0 0.0106759)
(0 0 0.0107109)
(0 0 0.0107436)
(0 0 0.010774)
(0 0 0.0108023)
(0 0 0.0108282)
(0 0 0.010852)
(0 0 0.0108734)
(0 0 0.0108926)
(0 0 0.0109096)
(0 0 0.0109243)
(0 0 0.0109367)
(0 0 0.0109469)
(0 0 0.0109549)
(0 0 0.0109607)
(0 0 0.0109642)
(0 0 0.0109655)
(0 0 0.0109646)
(0 0 0.0109615)
(0 0 0.0109563)
(0 0 0.0109489)
(0 0 0.0109393)
(0 0 0.0109277)
(0 0 0.0109139)
(0 0 0.0108981)
(0 0 0.0108801)
(0 0 0.0108602)
(0 0 0.0108382)
(0 0 0.0108142)
(0 0 0.0107882)
(0 0 0.0107603)
(0 0 0.0107304)
(0 0 0.0106986)
(0 0 0.010665)
(0 0 0.0106295)
(0 0 0.0105921)
(0 0 0.010553)
(0 0 0.0105121)
(0 0 0.0104695)
(0 0 0.0104251)
(0 0 0.010379)
(0 0 0.0103313)
(0 0 0.010282)
(0 0 0.010231)
(0 0 0.0101785)
(0 0 0.0101245)
(0 0 0.0100689)
(0 0 0.0100118)
(0 0 0.00995333)
(0 0 0.0098934)
(0 0 0.00983206)
(0 0 0.00976936)
(0 0 0.00970533)
(0 0 0.00963998)
(0 0 0.00957336)
(0 0 0.00950549)
(0 0 0.00943639)
(0 0 0.0093661)
(0 0 0.00929464)
(0 0 0.00922205)
(0 0 0.00914835)
(0 0 0.00907356)
(0 0 0.00899772)
(0 0 0.00892084)
(0 0 0.00884297)
(0 0 0.00876411)
(0 0 0.00868431)
(0 0 0.00860358)
(0 0 0.00852195)
(0 0 0.00843944)
(0 0 0.00835607)
(0 0 0.00827188)
(0 0 0.00818689)
(0 0 0.00810111)
(0 0 0.00801457)
(0 0 0.00792729)
(0 0 0.0078393)
(0 0 0.00775061)
(0 0 0.00766125)
(0 0 0.00757123)
(0 0 0.00748058)
(0 0 0.00738932)
(0 0 0.00729747)
(0 0 0.00720503)
(0 0 0.00711205)
(0 0 0.00701852)
(0 0 0.00692448)
(0 0 0.00682993)
(0 0 0.00673489)
(0 0 0.00663938)
(0 0 0.00654342)
(0 0 0.00644703)
(0 0 0.00635021)
(0 0 0.00625298)
(0 0 0.00615536)
(0 0 0.00605736)
(0 0 0.005959)
(0 0 0.00586028)
(0 0 0.00576123)
(0 0 0.00566185)
(0 0 0.00556216)
(0 0 0.00546217)
(0 0 0.00536189)
(0 0 0.00526133)
(0 0 0.0051605)
(0 0 0.00505943)
(0 0 0.0049581)
(0 0 0.00485654)
(0 0 0.00475476)
(0 0 0.00465276)
(0 0 0.00455055)
(0 0 0.00444815)
(0 0 0.00434556)
(0 0 0.00424279)
(0 0 0.00413985)
(0 0 0.00403674)
(0 0 0.00393348)
(0 0 0.00383007)
(0 0 0.00372651)
(0 0 0.00362282)
(0 0 0.00351901)
(0 0 0.00341507)
(0 0 0.00331101)
(0 0 0.00320685)
(0 0 0.00310258)
(0 0 0.00299821)
(0 0 0.00289375)
(0 0 0.0027892)
(0 0 0.00268456)
(0 0 0.00257985)
(0 0 0.00247506)
(0 0 0.00237021)
(0 0 0.00226528)
(0 0 0.0021603)
(0 0 0.00205526)
(0 0 0.00195016)
(0 0 0.00184501)
(0 0 0.00173982)
(0 0 0.00163458)
(0 0 0.00152931)
(0 0 0.00142399)
(0 0 0.00131864)
(0 0 0.00121326)
(0 0 0.00110785)
(0 0 0.00100242)
(0 0 0.000896962)
(0 0 0.000791484)
(0 0 0.000685988)
(0 0 0.000580477)
(0 0 0.000474953)
(0 0 0.000369419)
(0 0 0.000263877)
(0 0 0.000158328)
(0 0 5.27765e-05)
(0 0 8.27063e-05)
(0 0 0.000248116)
(0 0 0.000413517)
(0 0 0.000578904)
(0 0 0.000744271)
(0 0 0.000909612)
(0 0 0.00107492)
(0 0 0.00124019)
(0 0 0.00140542)
(0 0 0.00157059)
(0 0 0.0017357)
(0 0 0.00190075)
(0 0 0.00206573)
(0 0 0.00223062)
(0 0 0.00239542)
(0 0 0.00256013)
(0 0 0.00272472)
(0 0 0.0028892)
(0 0 0.00305355)
(0 0 0.00321776)
(0 0 0.00338182)
(0 0 0.00354572)
(0 0 0.00370944)
(0 0 0.00387298)
(0 0 0.00403631)
(0 0 0.00419942)
(0 0 0.00436231)
(0 0 0.00452494)
(0 0 0.00468731)
(0 0 0.00484939)
(0 0 0.00501118)
(0 0 0.00517264)
(0 0 0.00533376)
(0 0 0.00549452)
(0 0 0.00565489)
(0 0 0.00581486)
(0 0 0.0059744)
(0 0 0.00613348)
(0 0 0.00629208)
(0 0 0.00645018)
(0 0 0.00660773)
(0 0 0.00676473)
(0 0 0.00692113)
(0 0 0.00707691)
(0 0 0.00723204)
(0 0 0.00738648)
(0 0 0.00754021)
(0 0 0.00769317)
(0 0 0.00784536)
(0 0 0.00799672)
(0 0 0.00814722)
(0 0 0.00829682)
(0 0 0.00844548)
(0 0 0.00859318)
(0 0 0.00873985)
(0 0 0.00888548)
(0 0 0.00903)
(0 0 0.00917339)
(0 0 0.0093156)
(0 0 0.00945658)
(0 0 0.0095963)
(0 0 0.0097347)
(0 0 0.00987175)
(0 0 0.0100074)
(0 0 0.0101416)
(0 0 0.0102743)
(0 0 0.0104054)
(0 0 0.010535)
(0 0 0.010663)
(0 0 0.0107892)
(0 0 0.0109138)
(0 0 0.0110365)
(0 0 0.0111575)
(0 0 0.0112765)
(0 0 0.0113937)
(0 0 0.0115089)
(0 0 0.0116221)
(0 0 0.0117332)
(0 0 0.0118423)
(0 0 0.0119492)
(0 0 0.0120539)
(0 0 0.0121564)
(0 0 0.0122566)
(0 0 0.0123546)
(0 0 0.0124501)
(0 0 0.0125433)
(0 0 0.0126341)
(0 0 0.0127224)
(0 0 0.0128082)
(0 0 0.0128914)
(0 0 0.0129721)
(0 0 0.0130502)
(0 0 0.0131257)
(0 0 0.0131985)
(0 0 0.0132686)
(0 0 0.013336)
(0 0 0.0134007)
(0 0 0.0134626)
(0 0 0.0135217)
(0 0 0.013578)
(0 0 0.0136315)
(0 0 0.0136822)
(0 0 0.01373)
(0 0 0.0137749)
(0 0 0.013817)
(0 0 0.0138562)
(0 0 0.0138925)
(0 0 0.0139259)
(0 0 0.0139564)
(0 0 0.013984)
(0 0 0.0140087)
(0 0 0.0140305)
(0 0 0.0140494)
(0 0 0.0140654)
(0 0 0.0140785)
(0 0 0.0140887)
(0 0 0.0140961)
(0 0 0.0141006)
(0 0 0.0141022)
(0 0 0.0141011)
(0 0 0.0140971)
(0 0 0.0140903)
(0 0 0.0140808)
(0 0 0.0140685)
(0 0 0.0140535)
(0 0 0.0140357)
(0 0 0.0140153)
(0 0 0.0139922)
(0 0 0.0139665)
(0 0 0.0139382)
(0 0 0.0139073)
(0 0 0.0138739)
(0 0 0.0138379)
(0 0 0.0137995)
(0 0 0.0137586)
(0 0 0.0137153)
(0 0 0.0136696)
(0 0 0.0136216)
(0 0 0.0135712)
(0 0 0.0135186)
(0 0 0.0134637)
(0 0 0.0134066)
(0 0 0.0133473)
(0 0 0.0132859)
(0 0 0.0132225)
(0 0 0.0131569)
(0 0 0.0130893)
(0 0 0.0130198)
(0 0 0.0129483)
(0 0 0.0128749)
(0 0 0.0127996)
(0 0 0.0127225)
(0 0 0.0126436)
(0 0 0.0125629)
(0 0 0.0124805)
(0 0 0.0123965)
(0 0 0.0123108)
(0 0 0.0122234)
(0 0 0.0121345)
(0 0 0.0120441)
(0 0 0.0119522)
(0 0 0.0118588)
(0 0 0.011764)
(0 0 0.0116678)
(0 0 0.0115703)
(0 0 0.0114714)
(0 0 0.0113712)
(0 0 0.0112698)
(0 0 0.0111671)
(0 0 0.0110633)
(0 0 0.0109583)
(0 0 0.0108522)
(0 0 0.0107449)
(0 0 0.0106367)
(0 0 0.0105273)
(0 0 0.010417)
(0 0 0.0103057)
(0 0 0.0101935)
(0 0 0.0100803)
(0 0 0.00996622)
(0 0 0.00985129)
(0 0 0.00973553)
(0 0 0.00961894)
(0 0 0.00950157)
(0 0 0.00938344)
(0 0 0.00926457)
(0 0 0.00914498)
(0 0 0.00902471)
(0 0 0.00890376)
(0 0 0.00878217)
(0 0 0.00865995)
(0 0 0.00853713)
(0 0 0.00841373)
(0 0 0.00828976)
(0 0 0.00816525)
(0 0 0.00804022)
(0 0 0.00791468)
(0 0 0.00778866)
(0 0 0.00766217)
(0 0 0.00753523)
(0 0 0.00740785)
(0 0 0.00728006)
(0 0 0.00715186)
(0 0 0.00702328)
(0 0 0.00689433)
(0 0 0.00676502)
(0 0 0.00663537)
(0 0 0.0065054)
(0 0 0.0063751)
(0 0 0.00624451)
(0 0 0.00611363)
(0 0 0.00598247)
(0 0 0.00585105)
(0 0 0.00571937)
(0 0 0.00558746)
(0 0 0.00545531)
(0 0 0.00532294)
(0 0 0.00519036)
(0 0 0.00505758)
(0 0 0.00492461)
(0 0 0.00479146)
(0 0 0.00465814)
(0 0 0.00452465)
(0 0 0.004391)
(0 0 0.0042572)
(0 0 0.00412327)
(0 0 0.0039892)
(0 0 0.003855)
(0 0 0.00372068)
(0 0 0.00358625)
(0 0 0.00345172)
(0 0 0.00331708)
(0 0 0.00318234)
(0 0 0.00304752)
(0 0 0.00291261)
(0 0 0.00277763)
(0 0 0.00264256)
(0 0 0.00250744)
(0 0 0.00237224)
(0 0 0.00223699)
(0 0 0.00210168)
(0 0 0.00196631)
(0 0 0.0018309)
(0 0 0.00169545)
(0 0 0.00155996)
(0 0 0.00142443)
(0 0 0.00128886)
(0 0 0.00115327)
(0 0 0.00101765)
(0 0 0.000882011)
(0 0 0.00074635)
(0 0 0.000610673)
(0 0 0.000474981)
(0 0 0.00033928)
(0 0 0.000203571)
(0 0 6.78574e-05)
(0 0 0.000101091)
(0 0 0.000303271)
(0 0 0.00050544)
(0 0 0.000707591)
(0 0 0.000909718)
(0 0 0.00111181)
(0 0 0.00131387)
(0 0 0.00151588)
(0 0 0.00171784)
(0 0 0.00191973)
(0 0 0.00212155)
(0 0 0.00232329)
(0 0 0.00252494)
(0 0 0.0027265)
(0 0 0.00292794)
(0 0 0.00312927)
(0 0 0.00333046)
(0 0 0.00353151)
(0 0 0.0037324)
(0 0 0.00393313)
(0 0 0.00413367)
(0 0 0.00433402)
(0 0 0.00453415)
(0 0 0.00473405)
(0 0 0.00493371)
(0 0 0.0051331)
(0 0 0.00533222)
(0 0 0.00553103)
(0 0 0.00572951)
(0 0 0.00592765)
(0 0 0.00612543)
(0 0 0.00632281)
(0 0 0.00651978)
(0 0 0.00671631)
(0 0 0.00691237)
(0 0 0.00710793)
(0 0 0.00730297)
(0 0 0.00749746)
(0 0 0.00769136)
(0 0 0.00788464)
(0 0 0.00807727)
(0 0 0.00826921)
(0 0 0.00846043)
(0 0 0.0086509)
(0 0 0.00884056)
(0 0 0.00902939)
(0 0 0.00921734)
(0 0 0.00940438)
(0 0 0.00959045)
(0 0 0.00977552)
(0 0 0.00995954)
(0 0 0.0101425)
(0 0 0.0103242)
(0 0 0.0105048)
(0 0 0.0106842)
(0 0 0.0108623)
(0 0 0.011039)
(0 0 0.0112143)
(0 0 0.0113882)
(0 0 0.0115606)
(0 0 0.0117315)
(0 0 0.0119007)
(0 0 0.0120683)
(0 0 0.0122342)
(0 0 0.0123983)
(0 0 0.0125606)
(0 0 0.012721)
(0 0 0.0128795)
(0 0 0.0130359)
(0 0 0.0131903)
(0 0 0.0133426)
(0 0 0.0134928)
(0 0 0.0136407)
(0 0 0.0137863)
(0 0 0.0139296)
(0 0 0.0140705)
(0 0 0.0142089)
(0 0 0.0143449)
(0 0 0.0144782)
(0 0 0.014609)
(0 0 0.0147371)
(0 0 0.0148624)
(0 0 0.014985)
(0 0 0.0151048)
(0 0 0.0152217)
(0 0 0.0153357)
(0 0 0.0154467)
(0 0 0.0155547)
(0 0 0.0156596)
(0 0 0.0157614)
(0 0 0.0158601)
(0 0 0.0159556)
(0 0 0.0160479)
(0 0 0.016137)
(0 0 0.0162227)
(0 0 0.0163052)
(0 0 0.0163842)
(0 0 0.0164599)
(0 0 0.0165322)
(0 0 0.0166011)
(0 0 0.0166665)
(0 0 0.0167285)
(0 0 0.0167869)
(0 0 0.0168419)
(0 0 0.0168933)
(0 0 0.0169412)
(0 0 0.0169856)
(0 0 0.0170264)
(0 0 0.0170637)
(0 0 0.0170975)
(0 0 0.0171276)
(0 0 0.0171543)
(0 0 0.0171773)
(0 0 0.0171969)
(0 0 0.0172129)
(0 0 0.0172254)
(0 0 0.0172343)
(0 0 0.0172398)
(0 0 0.0172418)
(0 0 0.0172404)
(0 0 0.0172355)
(0 0 0.0172272)
(0 0 0.0172155)
(0 0 0.0172004)
(0 0 0.017182)
(0 0 0.0171603)
(0 0 0.0171353)
(0 0 0.017107)
(0 0 0.0170755)
(0 0 0.0170408)
(0 0 0.017003)
(0 0 0.0169621)
(0 0 0.0169181)
(0 0 0.016871)
(0 0 0.016821)
(0 0 0.016768)
(0 0 0.0167121)
(0 0 0.0166533)
(0 0 0.0165917)
(0 0 0.0165273)
(0 0 0.0164601)
(0 0 0.0163903)
(0 0 0.0163178)
(0 0 0.0162426)
(0 0 0.016165)
(0 0 0.0160848)
(0 0 0.0160021)
(0 0 0.015917)
(0 0 0.0158296)
(0 0 0.0157398)
(0 0 0.0156477)
(0 0 0.0155533)
(0 0 0.0154568)
(0 0 0.0153582)
(0 0 0.0152574)
(0 0 0.0151546)
(0 0 0.0150498)
(0 0 0.014943)
(0 0 0.0148342)
(0 0 0.0147237)
(0 0 0.0146112)
(0 0 0.014497)
(0 0 0.0143811)
(0 0 0.0142634)
(0 0 0.0141441)
(0 0 0.0140232)
(0 0 0.0139007)
(0 0 0.0137767)
(0 0 0.0136511)
(0 0 0.0135242)
(0 0 0.0133958)
(0 0 0.013266)
(0 0 0.0131349)
(0 0 0.0130025)
(0 0 0.0128688)
(0 0 0.0127339)
(0 0 0.0125978)
(0 0 0.0124605)
(0 0 0.0123222)
(0 0 0.0121827)
(0 0 0.0120422)
(0 0 0.0119006)
(0 0 0.0117581)
(0 0 0.0116146)
(0 0 0.0114702)
(0 0 0.0113248)
(0 0 0.0111786)
(0 0 0.0110316)
(0 0 0.0108837)
(0 0 0.010735)
(0 0 0.0105856)
(0 0 0.0104355)
(0 0 0.0102846)
(0 0 0.010133)
(0 0 0.00998082)
(0 0 0.00982796)
(0 0 0.00967449)
(0 0 0.00952043)
(0 0 0.00936579)
(0 0 0.00921061)
(0 0 0.00905489)
(0 0 0.00889867)
(0 0 0.00874195)
(0 0 0.00858477)
(0 0 0.00842713)
(0 0 0.00826906)
(0 0 0.00811057)
(0 0 0.00795168)
(0 0 0.00779241)
(0 0 0.00763277)
(0 0 0.00747278)
(0 0 0.00731245)
(0 0 0.0071518)
(0 0 0.00699084)
(0 0 0.00682959)
(0 0 0.00666805)
(0 0 0.00650625)
(0 0 0.00634419)
(0 0 0.00618188)
(0 0 0.00601934)
(0 0 0.00585658)
(0 0 0.00569361)
(0 0 0.00553044)
(0 0 0.00536708)
(0 0 0.00520354)
(0 0 0.00503982)
(0 0 0.00487594)
(0 0 0.00471191)
(0 0 0.00454773)
(0 0 0.00438342)
(0 0 0.00421897)
(0 0 0.0040544)
(0 0 0.00388971)
(0 0 0.00372492)
(0 0 0.00356002)
(0 0 0.00339503)
(0 0 0.00322994)
(0 0 0.00306477)
(0 0 0.00289953)
(0 0 0.00273421)
(0 0 0.00256882)
(0 0 0.00240337)
(0 0 0.00223786)
(0 0 0.0020723)
(0 0 0.00190669)
(0 0 0.00174103)
(0 0 0.00157534)
(0 0 0.00140961)
(0 0 0.00124384)
(0 0 0.00107805)
(0 0 0.00091224)
(0 0 0.000746405)
(0 0 0.000580554)
(0 0 0.000414691)
(0 0 0.000248818)
(0 0 8.29399e-05)
(0 0 0.00011948)
(0 0 0.000358436)
(0 0 0.000597379)
(0 0 0.000836302)
(0 0 0.0010752)
(0 0 0.00131406)
(0 0 0.00155287)
(0 0 0.00179163)
(0 0 0.00203032)
(0 0 0.00226894)
(0 0 0.00250748)
(0 0 0.00274592)
(0 0 0.00298426)
(0 0 0.00322249)
(0 0 0.00346058)
(0 0 0.00369854)
(0 0 0.00393634)
(0 0 0.00417397)
(0 0 0.00441142)
(0 0 0.00464868)
(0 0 0.00488572)
(0 0 0.00512253)
(0 0 0.00535909)
(0 0 0.00559538)
(0 0 0.00583138)
(0 0 0.00606707)
(0 0 0.00630243)
(0 0 0.00653743)
(0 0 0.00677206)
(0 0 0.00700628)
(0 0 0.00724007)
(0 0 0.0074734)
(0 0 0.00770624)
(0 0 0.00793857)
(0 0 0.00817034)
(0 0 0.00840153)
(0 0 0.0086321)
(0 0 0.00886202)
(0 0 0.00909125)
(0 0 0.00931976)
(0 0 0.00954749)
(0 0 0.00977442)
(0 0 0.0100005)
(0 0 0.0102257)
(0 0 0.0104499)
(0 0 0.0106732)
(0 0 0.0108954)
(0 0 0.0111165)
(0 0 0.0113365)
(0 0 0.0115554)
(0 0 0.011773)
(0 0 0.0119893)
(0 0 0.0122042)
(0 0 0.0124177)
(0 0 0.0126298)
(0 0 0.0128404)
(0 0 0.0130494)
(0 0 0.0132567)
(0 0 0.0134624)
(0 0 0.0136662)
(0 0 0.0138683)
(0 0 0.0140684)
(0 0 0.0142666)
(0 0 0.0144628)
(0 0 0.0146569)
(0 0 0.0148488)
(0 0 0.0150385)
(0 0 0.0152259)
(0 0 0.015411)
(0 0 0.0155936)
(0 0 0.0157737)
(0 0 0.0159513)
(0 0 0.0161262)
(0 0 0.0162984)
(0 0 0.0164679)
(0 0 0.0166346)
(0 0 0.0167983)
(0 0 0.0169591)
(0 0 0.0171168)
(0 0 0.0172715)
(0 0 0.017423)
(0 0 0.0175712)
(0 0 0.0177162)
(0 0 0.0178579)
(0 0 0.0179962)
(0 0 0.018131)
(0 0 0.0182623)
(0 0 0.01839)
(0 0 0.0185141)
(0 0 0.0186346)
(0 0 0.0187513)
(0 0 0.0188643)
(0 0 0.0189734)
(0 0 0.0190787)
(0 0 0.0191801)
(0 0 0.0192776)
(0 0 0.0193712)
(0 0 0.0194607)
(0 0 0.0195462)
(0 0 0.0196276)
(0 0 0.019705)
(0 0 0.0197783)
(0 0 0.0198474)
(0 0 0.0199124)
(0 0 0.0199732)
(0 0 0.0200298)
(0 0 0.0200823)
(0 0 0.0201305)
(0 0 0.0201746)
(0 0 0.0202145)
(0 0 0.0202501)
(0 0 0.0202816)
(0 0 0.0203088)
(0 0 0.0203319)
(0 0 0.0203508)
(0 0 0.0203655)
(0 0 0.0203761)
(0 0 0.0203826)
(0 0 0.0203849)
(0 0 0.0203831)
(0 0 0.0203773)
(0 0 0.0203674)
(0 0 0.0203535)
(0 0 0.0203357)
(0 0 0.0203138)
(0 0 0.0202881)
(0 0 0.0202584)
(0 0 0.020225)
(0 0 0.0201877)
(0 0 0.0201466)
(0 0 0.0201018)
(0 0 0.0200534)
(0 0 0.0200013)
(0 0 0.0199456)
(0 0 0.0198863)
(0 0 0.0198236)
(0 0 0.0197574)
(0 0 0.0196879)
(0 0 0.0196149)
(0 0 0.0195387)
(0 0 0.0194592)
(0 0 0.0193766)
(0 0 0.0192908)
(0 0 0.0192019)
(0 0 0.01911)
(0 0 0.0190151)
(0 0 0.0189173)
(0 0 0.0188167)
(0 0 0.0187132)
(0 0 0.0186069)
(0 0 0.018498)
(0 0 0.0183864)
(0 0 0.0182722)
(0 0 0.0181555)
(0 0 0.0180363)
(0 0 0.0179147)
(0 0 0.0177907)
(0 0 0.0176644)
(0 0 0.0175358)
(0 0 0.017405)
(0 0 0.0172721)
(0 0 0.017137)
(0 0 0.0169998)
(0 0 0.0168607)
(0 0 0.0167196)
(0 0 0.0165766)
(0 0 0.0164317)
(0 0 0.016285)
(0 0 0.0161366)
(0 0 0.0159864)
(0 0 0.0158346)
(0 0 0.0156812)
(0 0 0.0155261)
(0 0 0.0153695)
(0 0 0.0152115)
(0 0 0.015052)
(0 0 0.014891)
(0 0 0.0147288)
(0 0 0.0145651)
(0 0 0.0144002)
(0 0 0.0142341)
(0 0 0.0140667)
(0 0 0.0138982)
(0 0 0.0137285)
(0 0 0.0135578)
(0 0 0.0133859)
(0 0 0.0132131)
(0 0 0.0130392)
(0 0 0.0128644)
(0 0 0.0126887)
(0 0 0.012512)
(0 0 0.0123345)
(0 0 0.0121561)
(0 0 0.011977)
(0 0 0.011797)
(0 0 0.0116163)
(0 0 0.0114349)
(0 0 0.0112528)
(0 0 0.01107)
(0 0 0.0108865)
(0 0 0.0107024)
(0 0 0.0105178)
(0 0 0.0103325)
(0 0 0.0101467)