/*--------------------------------*- C++ -*----------------------------------*\
| =========                 |                                                 |
| \\      /  F ield         | OpenFOAM: The Open Source CFD Toolbox           |
|  \\    /   O peration     | Version:  v2012                                 |
|   \\  /    A nd           | Website:  www.openfoam.com                      |
|    \\/     M anipulation  |                                                 |
\*---------------------------------------------------------------------------*/
FoamFile
{
    version     2.0;
    format      ascii;
    class       volVectorField;
    location    "5.75";
    object      U;
}
// * * * * * * * * * * * * * * * * * * * * * * * * * * * * * * * * * * * * * //

dimensions      [0 1 -1 0 0 0 0];


internalField   nonuniform List<vector> 
65536
(
(0.000748675 -0.000748662 0)
(0.002246 -0.000748636 0)
(0.00374324 -0.000748583 0)
(0.00524036 -0.000748503 0)
(0.00673728 -0.000748396 0)
(0.00823397 -0.000748261 0)
(0.00973035 -0.000748098 0)
(0.0112264 -0.000747905 0)
(0.012722 -0.000747681 0)
(0.0142171 -0.000747426 0)
(0.0157117 -0.000747138 0)
(0.0172057 -0.000746816 0)
(0.018699 -0.000746458 0)
(0.0201916 -0.000746062 0)
(0.0216833 -0.000745626 0)
(0.0231741 -0.000745149 0)
(0.024664 -0.000744628 0)
(0.0261527 -0.000744062 0)
(0.0276403 -0.000743447 0)
(0.0291265 -0.000742781 0)
(0.0306114 -0.000742062 0)
(0.0320948 -0.000741286 0)
(0.0335766 -0.000740452 0)
(0.0350567 -0.000739555 0)
(0.0365349 -0.000738593 0)
(0.0380111 -0.000737563 0)
(0.0394852 -0.000736461 0)
(0.0409571 -0.000735283 0)
(0.0424265 -0.000734028 0)
(0.0438933 -0.000732689 0)
(0.0453573 -0.000731265 0)
(0.0468184 -0.000729751 0)
(0.0482764 -0.000728144 0)
(0.0497311 -0.000726439 0)
(0.0511823 -0.000724633 0)
(0.0526297 -0.000722721 0)
(0.0540732 -0.0007207 0)
(0.0555126 -0.000718564 0)
(0.0569476 -0.000716312 0)
(0.058378 -0.000713937 0)
(0.0598035 -0.000711436 0)
(0.0612239 -0.000708804 0)
(0.0626388 -0.000706038 0)
(0.0640482 -0.000703133 0)
(0.0654515 -0.000700085 0)
(0.0668486 -0.00069689 0)
(0.0682392 -0.000693544 0)
(0.069623 -0.000690042 0)
(0.0709996 -0.000686382 0)
(0.0723687 -0.000682557 0)
(0.0737299 -0.000678566 0)
(0.0750831 -0.000674404 0)
(0.0764277 -0.000670068 0)
(0.0777635 -0.000665553 0)
(0.0790901 -0.000660857 0)
(0.0804071 -0.000655976 0)
(0.0817142 -0.000650907 0)
(0.083011 -0.000645647 0)
(0.084297 -0.000640193 0)
(0.0855719 -0.000634543 0)
(0.0868354 -0.000628694 0)
(0.0880869 -0.000622644 0)
(0.0893261 -0.000616391 0)
(0.0905527 -0.000609933 0)
(0.0917661 -0.000603268 0)
(0.092966 -0.000596396 0)
(0.0941519 -0.000589314 0)
(0.0953234 -0.000582023 0)
(0.0964802 -0.000574521 0)
(0.0976217 -0.000566809 0)
(0.0987476 -0.000558886 0)
(0.0998575 -0.000550753 0)
(0.100951 -0.00054241 0)
(0.102027 -0.000533858 0)
(0.103086 -0.000525098 0)
(0.104128 -0.000516132 0)
(0.105151 -0.000506962 0)
(0.106156 -0.000497589 0)
(0.107142 -0.000488016 0)
(0.108108 -0.000478247 0)
(0.109055 -0.000468283 0)
(0.109982 -0.000458128 0)
(0.110888 -0.000447786 0)
(0.111773 -0.000437261 0)
(0.112637 -0.000426558 0)
(0.113479 -0.00041568 0)
(0.1143 -0.000404632 0)
(0.115098 -0.00039342 0)
(0.115874 -0.000382049 0)
(0.116626 -0.000370525 0)
(0.117356 -0.000358854 0)
(0.118062 -0.000347041 0)
(0.118744 -0.000335093 0)
(0.119402 -0.000323018 0)
(0.120036 -0.00031082 0)
(0.120646 -0.000298509 0)
(0.12123 -0.00028609 0)
(0.12179 -0.000273571 0)
(0.122325 -0.00026096 0)
(0.122834 -0.000248263 0)
(0.123318 -0.00023549 0)
(0.123776 -0.000222648 0)
(0.124209 -0.000209744 0)
(0.124615 -0.000196786 0)
(0.124996 -0.000183784 0)
(0.12535 -0.000170744 0)
(0.125679 -0.000157674 0)
(0.125981 -0.000144584 0)
(0.126257 -0.00013148 0)
(0.126507 -0.000118372 0)
(0.126731 -0.000105266 0)
(0.126928 -9.21707e-05 0)
(0.127099 -7.90942e-05 0)
(0.127244 -6.6044e-05 0)
(0.127363 -5.30277e-05 0)
(0.127457 -4.00528e-05 0)
(0.127524 -2.71266e-05 0)
(0.127565 -1.42564e-05 0)
(0.127581 -1.44927e-06 0)
(0.127571 1.1288e-05 0)
(0.127535 2.39488e-05 0)
(0.127475 3.65265e-05 0)
(0.127389 4.90149e-05 0)
(0.127279 6.14078e-05 0)
(0.127143 7.36995e-05 0)
(0.126984 8.58842e-05 0)
(0.1268 9.79566e-05 0)
(0.126592 0.000109912 0)
(0.12636 0.000121744 0)
(0.126105 0.000133449 0)
(0.125826 0.000145023 0)
(0.125524 0.000156461 0)
(0.1252 0.000167759 0)
(0.124853 0.000178914 0)
(0.124484 0.000189922 0)
(0.124093 0.00020078 0)
(0.123681 0.000211485 0)
(0.123247 0.000222034 0)
(0.122793 0.000232424 0)
(0.122318 0.000242654 0)
(0.121822 0.000252722 0)
(0.121306 0.000262625 0)
(0.120771 0.000272363 0)
(0.120217 0.000281933 0)
(0.119643 0.000291335 0)
(0.119051 0.000300568 0)
(0.118441 0.000309631 0)
(0.117813 0.000318524 0)
(0.117167 0.000327246 0)
(0.116503 0.000335797 0)
(0.115823 0.000344177 0)
(0.115127 0.000352386 0)
(0.114414 0.000360426 0)
(0.113685 0.000368295 0)
(0.11294 0.000375996 0)
(0.112181 0.000383528 0)
(0.111406 0.000390894 0)
(0.110617 0.000398092 0)
(0.109813 0.000405126 0)
(0.108996 0.000411997 0)
(0.108165 0.000418705 0)
(0.107321 0.000425252 0)
(0.106464 0.00043164 0)
(0.105594 0.000437871 0)
(0.104713 0.000443946 0)
(0.103819 0.000449868 0)
(0.102913 0.000455637 0)
(0.101996 0.000461257 0)
(0.101068 0.000466729 0)
(0.100129 0.000472054 0)
(0.0991794 0.000477237 0)
(0.0982197 0.000482278 0)
(0.0972501 0.000487179 0)
(0.0962708 0.000491944 0)
(0.0952822 0.000496573 0)
(0.0942844 0.000501071 0)
(0.0932778 0.000505438 0)
(0.0922625 0.000509677 0)
(0.0912389 0.000513791 0)
(0.0902073 0.000517782 0)
(0.0891677 0.000521652 0)
(0.0881205 0.000525404 0)
(0.087066 0.000529039 0)
(0.0860043 0.000532561 0)
(0.0849356 0.000535972 0)
(0.0838603 0.000539273 0)
(0.0827784 0.000542468 0)
(0.0816903 0.000545558 0)
(0.0805961 0.000548547 0)
(0.079496 0.000551436 0)
(0.0783902 0.000554227 0)
(0.077279 0.000556923 0)
(0.0761625 0.000559526 0)
(0.0750408 0.000562039 0)
(0.0739142 0.000564463 0)
(0.0727829 0.000566801 0)
(0.0716469 0.000569054 0)
(0.0705066 0.000571226 0)
(0.0693619 0.000573317 0)
(0.0682132 0.000575331 0)
(0.0670605 0.000577269 0)
(0.0659041 0.000579133 0)
(0.0647439 0.000580926 0)
(0.0635803 0.000582649 0)
(0.0624133 0.000584304 0)
(0.061243 0.000585893 0)
(0.0600696 0.000587419 0)
(0.0588933 0.000588882 0)
(0.0577141 0.000590285 0)
(0.0565321 0.000591629 0)
(0.0553475 0.000592917 0)
(0.0541604 0.00059415 0)
(0.0529708 0.00059533 0)
(0.051779 0.000596458 0)
(0.0505849 0.000597536 0)
(0.0493888 0.000598566 0)
(0.0481906 0.000599549 0)
(0.0469906 0.000600488 0)
(0.0457886 0.000601382 0)
(0.044585 0.000602234 0)
(0.0433797 0.000603046 0)
(0.0421728 0.000603818 0)
(0.0409644 0.000604553 0)
(0.0397545 0.000605251 0)
(0.0385433 0.000605913 0)
(0.0373308 0.000606542 0)
(0.0361171 0.000607138 0)
(0.0349022 0.000607702 0)
(0.0336863 0.000608236 0)
(0.0324693 0.000608741 0)
(0.0312513 0.000609218 0)
(0.0300324 0.000609667 0)
(0.0288126 0.000610091 0)
(0.027592 0.000610489 0)
(0.0263706 0.000610863 0)
(0.0251485 0.000611214 0)
(0.0239257 0.000611543 0)
(0.0227023 0.00061185 0)
(0.0214783 0.000612136 0)
(0.0202537 0.000612402 0)
(0.0190287 0.000612649 0)
(0.0178031 0.000612877 0)
(0.0165771 0.000613087 0)
(0.0153508 0.00061328 0)
(0.014124 0.000613456 0)
(0.0128969 0.000613615 0)
(0.0116695 0.000613758 0)
(0.0104419 0.000613886 0)
(0.00921397 0.000613999 0)
(0.00798586 0.000614097 0)
(0.00675757 0.00061418 0)
(0.00552913 0.000614249 0)
(0.00430056 0.000614304 0)
(0.0030719 0.000614345 0)
(0.00184317 0.000614372 0)
(0.000614393 0.000614386 0)
(0.000748701 -0.00224601 0)
(0.00224608 -0.00224593 0)
(0.00374337 -0.00224577 0)
(0.00524054 -0.00224553 0)
(0.00673752 -0.00224521 0)
(0.00823426 -0.00224481 0)
(0.00973071 -0.00224432 0)
(0.0112268 -0.00224374 0)
(0.0127225 -0.00224307 0)
(0.0142177 -0.00224231 0)
(0.0157123 -0.00224145 0)
(0.0172064 -0.00224048 0)
(0.0186998 -0.00223941 0)
(0.0201924 -0.00223822 0)
(0.0216842 -0.00223692 0)
(0.0231751 -0.00223549 0)
(0.024665 -0.00223393 0)
(0.0261539 -0.00223223 0)
(0.0276415 -0.00223039 0)
(0.0291279 -0.0022284 0)
(0.0306129 -0.00222624 0)
(0.0320964 -0.00222392 0)
(0.0335784 -0.00222142 0)
(0.0350586 -0.00221873 0)
(0.0365369 -0.00221585 0)
(0.0380133 -0.00221276 0)
(0.0394875 -0.00220946 0)
(0.0409595 -0.00220593 0)
(0.042429 -0.00220216 0)
(0.043896 -0.00219815 0)
(0.0453602 -0.00219388 0)
(0.0468215 -0.00218935 0)
(0.0482797 -0.00218453 0)
(0.0497346 -0.00217942 0)
(0.051186 -0.002174 0)
(0.0526336 -0.00216827 0)
(0.0540774 -0.00216221 0)
(0.055517 -0.00215581 0)
(0.0569522 -0.00214906 0)
(0.0583828 -0.00214194 0)
(0.0598086 -0.00213444 0)
(0.0612292 -0.00212655 0)
(0.0626445 -0.00211825 0)
(0.0640541 -0.00210954 0)
(0.0654577 -0.0021004 0)
(0.0668552 -0.00209082 0)
(0.068246 -0.00208079 0)
(0.0696301 -0.00207029 0)
(0.071007 -0.00205931 0)
(0.0723764 -0.00204784 0)
(0.0737381 -0.00203587 0)
(0.0750916 -0.00202339 0)
(0.0764366 -0.00201038 0)
(0.0777727 -0.00199684 0)
(0.0790997 -0.00198275 0)
(0.0804171 -0.00196811 0)
(0.0817245 -0.00195291 0)
(0.0830216 -0.00193713 0)
(0.0843081 -0.00192077 0)
(0.0855834 -0.00190383 0)
(0.0868472 -0.00188628 0)
(0.0880992 -0.00186813 0)
(0.0893388 -0.00184938 0)
(0.0905658 -0.00183 0)
(0.0917796 -0.00181001 0)
(0.0929799 -0.00178939 0)
(0.0941662 -0.00176815 0)
(0.0953382 -0.00174628 0)
(0.0964954 -0.00172377 0)
(0.0976373 -0.00170064 0)
(0.0987636 -0.00167687 0)
(0.0998739 -0.00165247 0)
(0.100968 -0.00162744 0)
(0.102045 -0.00160178 0)
(0.103104 -0.0015755 0)
(0.104146 -0.0015486 0)
(0.10517 -0.00152109 0)
(0.106175 -0.00149297 0)
(0.107161 -0.00146425 0)
(0.108128 -0.00143493 0)
(0.109075 -0.00140504 0)
(0.110002 -0.00137457 0)
(0.110908 -0.00134354 0)
(0.111794 -0.00131196 0)
(0.112658 -0.00127985 0)
(0.113501 -0.00124721 0)
(0.114322 -0.00121406 0)
(0.115121 -0.00118042 0)
(0.115896 -0.0011463 0)
(0.116649 -0.00111172 0)
(0.117379 -0.0010767 0)
(0.118086 -0.00104126 0)
(0.118768 -0.00100541 0)
(0.119427 -0.000969174 0)
(0.120061 -0.000932575 0)
(0.12067 -0.000895633 0)
(0.121255 -0.000858369 0)
(0.121815 -0.000820805 0)
(0.12235 -0.000782964 0)
(0.12286 -0.000744867 0)
(0.123344 -0.00070654 0)
(0.123802 -0.000668004 0)
(0.124234 -0.000629285 0)
(0.124641 -0.000590405 0)
(0.125022 -0.000551389 0)
(0.125376 -0.00051226 0)
(0.125705 -0.000473045 0)
(0.126007 -0.000433765 0)
(0.126283 -0.000394446 0)
(0.126533 -0.000355112 0)
(0.126757 -0.000315787 0)
(0.126954 -0.000276494 0)
(0.127125 -0.000237257 0)
(0.12727 -0.000198098 0)
(0.127389 -0.000159042 0)
(0.127482 -0.00012011 0)
(0.127549 -8.13245e-05 0)
(0.127591 -4.2707e-05 0)
(0.127606 -4.27863e-06 0)
(0.127596 3.39399e-05 0)
(0.127561 7.19287e-05 0)
(0.1275 0.000109668 0)
(0.127414 0.000147139 0)
(0.127303 0.000184324 0)
(0.127168 0.000221204 0)
(0.127008 0.000257764 0)
(0.126824 0.000293986 0)
(0.126616 0.000329856 0)
(0.126384 0.000365358 0)
(0.126128 0.000400479 0)
(0.125849 0.000435204 0)
(0.125547 0.000469522 0)
(0.125223 0.00050342 0)
(0.124875 0.000536888 0)
(0.124506 0.000569915 0)
(0.124115 0.000602491 0)
(0.123702 0.000634608 0)
(0.123268 0.000666258 0)
(0.122813 0.000697432 0)
(0.122338 0.000728124 0)
(0.121842 0.000758329 0)
(0.121326 0.000788041 0)
(0.120791 0.000817255 0)
(0.120236 0.000845967 0)
(0.119662 0.000874174 0)
(0.11907 0.000901874 0)
(0.118459 0.000929063 0)
(0.11783 0.000955741 0)
(0.117184 0.000981907 0)
(0.11652 0.00100756 0)
(0.11584 0.0010327 0)
(0.115143 0.00105733 0)
(0.11443 0.00108145 0)
(0.1137 0.00110505 0)
(0.112955 0.00112815 0)
(0.112195 0.00115075 0)
(0.111421 0.00117285 0)
(0.110631 0.00119444 0)
(0.109827 0.00121554 0)
(0.10901 0.00123615 0)
(0.108179 0.00125627 0)
(0.107334 0.00127591 0)
(0.106477 0.00129508 0)
(0.105607 0.00131377 0)
(0.104724 0.00133199 0)
(0.10383 0.00134975 0)
(0.102924 0.00136706 0)
(0.102007 0.00138392 0)
(0.101078 0.00140033 0)
(0.100139 0.00141631 0)
(0.0991896 0.00143185 0)
(0.0982296 0.00144697 0)
(0.0972598 0.00146167 0)
(0.0962802 0.00147596 0)
(0.0952913 0.00148985 0)
(0.0942933 0.00150334 0)
(0.0932864 0.00151644 0)
(0.0922709 0.00152916 0)
(0.091247 0.0015415 0)
(0.0902151 0.00155347 0)
(0.0891753 0.00156507 0)
(0.0881279 0.00157633 0)
(0.0870731 0.00158723 0)
(0.0860112 0.00159779 0)
(0.0849423 0.00160802 0)
(0.0838668 0.00161793 0)
(0.0827847 0.00162751 0)
(0.0816964 0.00163678 0)
(0.080602 0.00164574 0)
(0.0795017 0.0016544 0)
(0.0783957 0.00166278 0)
(0.0772843 0.00167086 0)
(0.0761676 0.00167867 0)
(0.0750457 0.0016862 0)
(0.073919 0.00169347 0)
(0.0727875 0.00170049 0)
(0.0716514 0.00170724 0)
(0.0705108 0.00171376 0)
(0.0693661 0.00172003 0)
(0.0682172 0.00172607 0)
(0.0670643 0.00173188 0)
(0.0659077 0.00173747 0)
(0.0647475 0.00174285 0)
(0.0635837 0.00174801 0)
(0.0624165 0.00175298 0)
(0.0612461 0.00175774 0)
(0.0600726 0.00176232 0)
(0.0588961 0.00176671 0)
(0.0577168 0.00177091 0)
(0.0565347 0.00177494 0)
(0.05535 0.00177881 0)
(0.0541628 0.0017825 0)
(0.0529731 0.00178604 0)
(0.0517812 0.00178942 0)
(0.0505871 0.00179266 0)
(0.0493908 0.00179575 0)
(0.0481926 0.00179869 0)
(0.0469924 0.00180151 0)
(0.0457904 0.00180419 0)
(0.0445866 0.00180674 0)
(0.0433812 0.00180918 0)
(0.0421743 0.00181149 0)
(0.0409658 0.0018137 0)
(0.0397559 0.00181579 0)
(0.0385446 0.00181777 0)
(0.0373321 0.00181966 0)
(0.0361183 0.00182145 0)
(0.0349033 0.00182314 0)
(0.0336873 0.00182474 0)
(0.0324702 0.00182625 0)
(0.0312522 0.00182768 0)
(0.0300332 0.00182903 0)
(0.0288134 0.0018303 0)
(0.0275928 0.00183149 0)
(0.0263713 0.00183261 0)
(0.0251492 0.00183367 0)
(0.0239264 0.00183465 0)
(0.0227029 0.00183557 0)
(0.0214789 0.00183643 0)
(0.0202543 0.00183723 0)
(0.0190291 0.00183797 0)
(0.0178036 0.00183865 0)
(0.0165775 0.00183928 0)
(0.0153511 0.00183986 0)
(0.0141243 0.00184038 0)
(0.0128972 0.00184086 0)
(0.0116698 0.00184129 0)
(0.0104421 0.00184167 0)
(0.00921418 0.00184201 0)
(0.00798604 0.0018423 0)
(0.00675772 0.00184255 0)
(0.00552925 0.00184276 0)
(0.00430066 0.00184293 0)
(0.00307196 0.00184305 0)
(0.00184321 0.00184313 0)
(0.000614407 0.00184317 0)
(0.000748754 -0.00374344 0)
(0.00224623 -0.00374331 0)
(0.00374364 -0.00374305 0)
(0.00524091 -0.00374265 0)
(0.006738 -0.00374212 0)
(0.00823486 -0.00374145 0)
(0.00973142 -0.00374063 0)
(0.0112276 -0.00373967 0)
(0.0127234 -0.00373856 0)
(0.0142188 -0.00373729 0)
(0.0157136 -0.00373586 0)
(0.0172078 -0.00373426 0)
(0.0187013 -0.00373248 0)
(0.0201941 -0.0037305 0)
(0.021686 -0.00372834 0)
(0.0231771 -0.00372596 0)
(0.0246672 -0.00372337 0)
(0.0261562 -0.00372055 0)
(0.0276441 -0.00371749 0)
(0.0291307 -0.00371417 0)
(0.0306159 -0.00371059 0)
(0.0320997 -0.00370673 0)
(0.0335818 -0.00370257 0)
(0.0350623 -0.0036981 0)
(0.0365409 -0.00369331 0)
(0.0380175 -0.00368817 0)
(0.0394921 -0.00368268 0)
(0.0409643 -0.00367681 0)
(0.0424342 -0.00367055 0)
(0.0439015 -0.00366387 0)
(0.0453661 -0.00365677 0)
(0.0468277 -0.00364922 0)
(0.0482863 -0.00364121 0)
(0.0497416 -0.0036327 0)
(0.0511934 -0.00362369 0)
(0.0526415 -0.00361415 0)
(0.0540857 -0.00360406 0)
(0.0555258 -0.00359341 0)
(0.0569615 -0.00358217 0)
(0.0583926 -0.00357031 0)
(0.0598189 -0.00355783 0)
(0.06124 -0.00354469 0)
(0.0626558 -0.00353088 0)
(0.064066 -0.00351638 0)
(0.0654702 -0.00350116 0)
(0.0668682 -0.0034852 0)
(0.0682597 -0.00346849 0)
(0.0696444 -0.00345101 0)
(0.071022 -0.00343272 0)
(0.0723921 -0.00341362 0)
(0.0737544 -0.00339368 0)
(0.0751086 -0.00337289 0)
(0.0764543 -0.00335123 0)
(0.0777911 -0.00332867 0)
(0.0791188 -0.00330521 0)
(0.080437 -0.00328082 0)
(0.0817452 -0.00325549 0)
(0.0830431 -0.0032292 0)
(0.0843303 -0.00320195 0)
(0.0856064 -0.00317371 0)
(0.086871 -0.00314447 0)
(0.0881238 -0.00311423 0)
(0.0893643 -0.00308298 0)
(0.090592 -0.00305069 0)
(0.0918067 -0.00301738 0)
(0.0930078 -0.00298302 0)
(0.094195 -0.00294762 0)
(0.0953678 -0.00291116 0)
(0.0965258 -0.00287366 0)
(0.0976686 -0.0028351 0)
(0.0987958 -0.00279548 0)
(0.0999069 -0.00275481 0)
(0.101002 -0.00271309 0)
(0.102079 -0.00267033 0)
(0.10314 -0.00262652 0)
(0.104182 -0.00258168 0)
(0.105207 -0.00253582 0)
(0.106213 -0.00248894 0)
(0.1072 -0.00244107 0)
(0.108167 -0.0023922 0)
(0.109115 -0.00234237 0)
(0.110043 -0.00229157 0)
(0.11095 -0.00223985 0)
(0.111837 -0.0021872 0)
(0.112702 -0.00213366 0)
(0.113545 -0.00207924 0)
(0.114367 -0.00202398 0)
(0.115166 -0.00196789 0)
(0.115942 -0.00191101 0)
(0.116696 -0.00185336 0)
(0.117426 -0.00179497 0)
(0.118133 -0.00173588 0)
(0.118816 -0.00167611 0)
(0.119475 -0.00161569 0)
(0.12011 -0.00155467 0)
(0.12072 -0.00149308 0)
(0.121305 -0.00143095 0)
(0.121866 -0.00136832 0)
(0.122401 -0.00130522 0)
(0.122911 -0.0012417 0)
(0.123395 -0.0011778 0)
(0.123853 -0.00111355 0)
(0.124286 -0.00104899 0)
(0.124693 -0.000984159 0)
(0.125074 -0.000919105 0)
(0.125429 -0.000853865 0)
(0.125757 -0.000788478 0)
(0.12606 -0.000722986 0)
(0.126336 -0.000657428 0)
(0.126586 -0.000591845 0)
(0.126809 -0.000526276 0)
(0.127007 -0.000460761 0)
(0.127178 -0.00039534 0)
(0.127323 -0.000330051 0)
(0.127441 -0.000264932 0)
(0.127534 -0.000200021 0)
(0.127601 -0.000135354 0)
(0.127642 -7.09683e-05 0)
(0.127657 -6.89814e-06 0)
(0.127647 5.68218e-05 0)
(0.127611 0.000120158 0)
(0.12755 0.000183078 0)
(0.127464 0.00024555 0)
(0.127353 0.000307544 0)
(0.127217 0.000369031 0)
(0.127057 0.000429981 0)
(0.126872 0.000490369 0)
(0.126663 0.000550168 0)
(0.126431 0.000609354 0)
(0.126175 0.000667903 0)
(0.125895 0.000725793 0)
(0.125593 0.000783002 0)
(0.125267 0.000839512 0)
(0.12492 0.000895303 0)
(0.12455 0.000950359 0)
(0.124158 0.00100466 0)
(0.123745 0.0010582 0)
(0.12331 0.00111096 0)
(0.122855 0.00116292 0)
(0.122378 0.00121408 0)
(0.121882 0.00126443 0)
(0.121365 0.00131395 0)
(0.120829 0.00136265 0)
(0.120274 0.00141051 0)
(0.119699 0.00145752 0)
(0.119106 0.00150369 0)
(0.118495 0.00154901 0)
(0.117865 0.00159347 0)
(0.117218 0.00163708 0)
(0.116554 0.00167984 0)
(0.115873 0.00172173 0)
(0.115175 0.00176278 0)
(0.114461 0.00180297 0)
(0.113731 0.00184232 0)
(0.112986 0.00188082 0)
(0.112225 0.00191848 0)
(0.11145 0.0019553 0)
(0.11066 0.00199128 0)
(0.109855 0.00202645 0)
(0.109037 0.00206079 0)
(0.108205 0.00209433 0)
(0.10736 0.00212705 0)
(0.106502 0.00215899 0)
(0.105631 0.00219013 0)
(0.104748 0.0022205 0)
(0.103854 0.0022501 0)
(0.102947 0.00227893 0)
(0.102029 0.00230702 0)
(0.1011 0.00233437 0)
(0.10016 0.00236099 0)
(0.09921 0.00238689 0)
(0.0982495 0.00241208 0)
(0.0972791 0.00243658 0)
(0.096299 0.00246039 0)
(0.0953096 0.00248353 0)
(0.094311 0.002506 0)
(0.0933036 0.00252783 0)
(0.0922876 0.00254901 0)
(0.0912632 0.00256957 0)
(0.0902308 0.00258951 0)
(0.0891906 0.00260885 0)
(0.0881427 0.0026276 0)
(0.0870874 0.00264576 0)
(0.086025 0.00266336 0)
(0.0849557 0.0026804 0)
(0.0838797 0.0026969 0)
(0.0827973 0.00271286 0)
(0.0817085 0.0027283 0)
(0.0806137 0.00274323 0)
(0.079513 0.00275766 0)
(0.0784067 0.00277161 0)
(0.0772949 0.00278508 0)
(0.0761778 0.00279808 0)
(0.0750556 0.00281064 0)
(0.0739285 0.00282274 0)
(0.0727966 0.00283442 0)
(0.0716602 0.00284568 0)
(0.0705194 0.00285653 0)
(0.0693743 0.00286697 0)
(0.0682251 0.00287703 0)
(0.0670719 0.00288671 0)
(0.065915 0.00289602 0)
(0.0647545 0.00290498 0)
(0.0635904 0.00291358 0)
(0.062423 0.00292185 0)
(0.0612524 0.00292979 0)
(0.0600786 0.0029374 0)
(0.0589019 0.00294471 0)
(0.0577223 0.00295172 0)
(0.05654 0.00295843 0)
(0.055355 0.00296486 0)
(0.0541676 0.00297102 0)
(0.0529777 0.00297691 0)
(0.0517856 0.00298254 0)
(0.0505913 0.00298792 0)
(0.0493948 0.00299306 0)
(0.0481964 0.00299797 0)
(0.046996 0.00300266 0)
(0.0457939 0.00300712 0)
(0.04459 0.00301138 0)
(0.0433844 0.00301543 0)
(0.0421773 0.00301928 0)
(0.0409686 0.00302295 0)
(0.0397586 0.00302643 0)
(0.0385472 0.00302974 0)
(0.0373345 0.00303287 0)
(0.0361206 0.00303585 0)
(0.0349055 0.00303866 0)
(0.0336894 0.00304133 0)
(0.0324722 0.00304385 0)
(0.0312541 0.00304622 0)
(0.030035 0.00304847 0)
(0.028815 0.00305058 0)
(0.0275943 0.00305257 0)
(0.0263728 0.00305443 0)
(0.0251505 0.00305618 0)
(0.0239276 0.00305782 0)
(0.0227041 0.00305935 0)
(0.02148 0.00306078 0)
(0.0202553 0.00306211 0)
(0.0190301 0.00306334 0)
(0.0178044 0.00306448 0)
(0.0165784 0.00306552 0)
(0.0153519 0.00306649 0)
(0.014125 0.00306736 0)
(0.0128978 0.00306816 0)
(0.0116703 0.00306887 0)
(0.0104426 0.00306951 0)
(0.0092146 0.00307007 0)
(0.0079864 0.00307056 0)
(0.00675803 0.00307097 0)
(0.0055295 0.00307132 0)
(0.00430085 0.00307159 0)
(0.0030721 0.00307179 0)
(0.00184329 0.00307193 0)
(0.000614434 0.003072 0)
(0.000748832 -0.005241 0)
(0.00224647 -0.00524082 0)
(0.00374403 -0.00524045 0)
(0.00524147 -0.0052399 0)
(0.00673872 -0.00523916 0)
(0.00823574 -0.00523822 0)
(0.00973248 -0.00523709 0)
(0.0112289 -0.00523576 0)
(0.0127249 -0.00523421 0)
(0.0142204 -0.00523244 0)
(0.0157154 -0.00523045 0)
(0.0172098 -0.00522821 0)
(0.0187035 -0.00522573 0)
(0.0201966 -0.00522298 0)
(0.0216888 -0.00521996 0)
(0.0231801 -0.00521665 0)
(0.0246705 -0.00521304 0)
(0.0261598 -0.00520911 0)
(0.0276479 -0.00520484 0)
(0.0291348 -0.00520021 0)
(0.0306204 -0.00519522 0)
(0.0321045 -0.00518983 0)
(0.033587 -0.00518403 0)
(0.0350678 -0.00517779 0)
(0.0365468 -0.00517111 0)
(0.0380239 -0.00516394 0)
(0.0394989 -0.00515627 0)
(0.0409716 -0.00514808 0)
(0.042442 -0.00513934 0)
(0.0439098 -0.00513003 0)
(0.0453749 -0.00512011 0)
(0.0468371 -0.00510957 0)
(0.0482962 -0.00509837 0)
(0.0497521 -0.00508649 0)
(0.0512045 -0.0050739 0)
(0.0526533 -0.00506058 0)
(0.0540981 -0.00504649 0)
(0.0555389 -0.0050316 0)
(0.0569753 -0.00501589 0)
(0.0584072 -0.00499932 0)
(0.0598342 -0.00498187 0)
(0.0612562 -0.00496351 0)
(0.0626728 -0.00494421 0)
(0.0640838 -0.00492393 0)
(0.0654889 -0.00490265 0)
(0.0668878 -0.00488035 0)
(0.0682803 -0.00485698 0)
(0.0696659 -0.00483252 0)
(0.0710444 -0.00480695 0)
(0.0724155 -0.00478024 0)
(0.0737788 -0.00475235 0)
(0.075134 -0.00472327 0)
(0.0764808 -0.00469296 0)
(0.0778188 -0.00466141 0)
(0.0791475 -0.00462858 0)
(0.0804668 -0.00459446 0)
(0.0817762 -0.00455902 0)
(0.0830752 -0.00452224 0)
(0.0843636 -0.0044841 0)
(0.0856409 -0.00444458 0)
(0.0869067 -0.00440367 0)
(0.0881607 -0.00436135 0)
(0.0894024 -0.0043176 0)
(0.0906314 -0.00427242 0)
(0.0918473 -0.00422579 0)
(0.0930497 -0.00417769 0)
(0.0942381 -0.00412813 0)
(0.0954122 -0.0040771 0)
(0.0965715 -0.0040246 0)
(0.0977155 -0.00397061 0)
(0.098844 -0.00391515 0)
(0.0999563 -0.00385821 0)
(0.101052 -0.00379979 0)
(0.102131 -0.00373991 0)
(0.103193 -0.00367857 0)
(0.104237 -0.00361579 0)
(0.105263 -0.00355156 0)
(0.10627 -0.00348592 0)
(0.107258 -0.00341887 0)
(0.108227 -0.00335044 0)
(0.109176 -0.00328065 0)
(0.110105 -0.00320952 0)
(0.111013 -0.00313707 0)
(0.1119 -0.00306333 0)
(0.112766 -0.00298834 0)
(0.113611 -0.00291213 0)
(0.114433 -0.00283473 0)
(0.115234 -0.00275617 0)
(0.116011 -0.00267649 0)
(0.116766 -0.00259574 0)
(0.117497 -0.00251395 0)
(0.118205 -0.00243118 0)
(0.118888 -0.00234745 0)
(0.119548 -0.00226282 0)
(0.120183 -0.00217735 0)
(0.120794 -0.00209106 0)
(0.12138 -0.00200403 0)
(0.121941 -0.00191629 0)
(0.122477 -0.00182791 0)
(0.122987 -0.00173892 0)
(0.123472 -0.0016494 0)
(0.123931 -0.00155939 0)
(0.124364 -0.00146895 0)
(0.124771 -0.00137814 0)
(0.125152 -0.00128701 0)
(0.125507 -0.00119562 0)
(0.125836 -0.00110402 0)
(0.126138 -0.00101227 0)
(0.126415 -0.000920434 0)
(0.126664 -0.000828562 0)
(0.126888 -0.00073671 0)
(0.127085 -0.000644935 0)
(0.127256 -0.000553291 0)
(0.127401 -0.000461833 0)
(0.12752 -0.000370614 0)
(0.127612 -0.000279687 0)
(0.127679 -0.000189103 0)
(0.127719 -9.89136e-05 0)
(0.127734 -9.16721e-06 0)
(0.127723 8.00875e-05 0)
(0.127687 0.000168804 0)
(0.127625 0.000256936 0)
(0.127539 0.000344439 0)
(0.127427 0.000431272 0)
(0.12729 0.000517393 0)
(0.127129 0.000602761 0)
(0.126944 0.000687341 0)
(0.126735 0.000771094 0)
(0.126501 0.000853987 0)
(0.126244 0.000935987 0)
(0.125964 0.00101706 0)
(0.125661 0.00109718 0)
(0.125335 0.00117632 0)
(0.124986 0.00125445 0)
(0.124616 0.00133155 0)
(0.124223 0.0014076 0)
(0.123809 0.00148257 0)
(0.123373 0.00155645 0)
(0.122917 0.00162921 0)
(0.122439 0.00170085 0)
(0.121942 0.00177135 0)
(0.121424 0.0018407 0)
(0.120887 0.00190888 0)
(0.120331 0.00197589 0)
(0.119755 0.00204171 0)
(0.119161 0.00210635 0)
(0.118549 0.0021698 0)
(0.117918 0.00223206 0)
(0.11727 0.00229311 0)
(0.116605 0.00235297 0)
(0.115923 0.00241162 0)
(0.115224 0.00246909 0)
(0.114509 0.00252535 0)
(0.113778 0.00258043 0)
(0.113032 0.00263432 0)
(0.11227 0.00268704 0)
(0.111493 0.00273858 0)
(0.110702 0.00278895 0)
(0.109897 0.00283817 0)
(0.109078 0.00288625 0)
(0.108245 0.00293318 0)
(0.107399 0.00297899 0)
(0.10654 0.00302368 0)
(0.105668 0.00306727 0)
(0.104784 0.00310977 0)
(0.103889 0.0031512 0)
(0.102981 0.00319156 0)
(0.102062 0.00323086 0)
(0.101132 0.00326914 0)
(0.100192 0.00330639 0)
(0.0992407 0.00334263 0)
(0.0982793 0.00337789 0)
(0.0973081 0.00341217 0)
(0.0963272 0.00344549 0)
(0.0953369 0.00347787 0)
(0.0943376 0.00350931 0)
(0.0933294 0.00353985 0)
(0.0923126 0.0035695 0)
(0.0912875 0.00359826 0)
(0.0902544 0.00362616 0)
(0.0892134 0.00365322 0)
(0.0881648 0.00367945 0)
(0.0871089 0.00370486 0)
(0.0860458 0.00372948 0)
(0.0849759 0.00375332 0)
(0.0838992 0.0037764 0)
(0.0828161 0.00379873 0)
(0.0817267 0.00382034 0)
(0.0806313 0.00384122 0)
(0.0795301 0.00386141 0)
(0.0784231 0.00388092 0)
(0.0773108 0.00389976 0)
(0.0761931 0.00391795 0)
(0.0750704 0.00393551 0)
(0.0739428 0.00395245 0)
(0.0728104 0.00396878 0)
(0.0716735 0.00398453 0)
(0.0705321 0.0039997 0)
(0.0693866 0.00401431 0)
(0.0682369 0.00402838 0)
(0.0670833 0.00404191 0)
(0.065926 0.00405494 0)
(0.064765 0.00406746 0)
(0.0636005 0.00407949 0)
(0.0624327 0.00409105 0)
(0.0612617 0.00410215 0)
(0.0600875 0.0041128 0)
(0.0589105 0.00412302 0)
(0.0577305 0.00413281 0)
(0.0565479 0.0041422 0)
(0.0553626 0.00415119 0)
(0.0541748 0.0041598 0)
(0.0529847 0.00416803 0)
(0.0517922 0.0041759 0)
(0.0505976 0.00418343 0)
(0.0494009 0.00419062 0)
(0.0482021 0.00419748 0)
(0.0470015 0.00420402 0)
(0.0457991 0.00421026 0)
(0.0445949 0.00421621 0)
(0.0433891 0.00422187 0)
(0.0421818 0.00422726 0)
(0.0409729 0.00423238 0)
(0.0397627 0.00423725 0)
(0.038551 0.00424187 0)
(0.0373382 0.00424625 0)
(0.0361241 0.00425041 0)
(0.0349088 0.00425434 0)
(0.0336925 0.00425806 0)
(0.0324751 0.00426158 0)
(0.0312568 0.0042649 0)
(0.0300376 0.00426804 0)
(0.0288175 0.00427099 0)
(0.0275966 0.00427376 0)
(0.0263749 0.00427637 0)
(0.0251526 0.00427881 0)
(0.0239295 0.0042811 0)
(0.0227059 0.00428324 0)
(0.0214816 0.00428523 0)
(0.0202568 0.00428709 0)
(0.0190315 0.00428881 0)
(0.0178057 0.00429039 0)
(0.0165796 0.00429186 0)
(0.015353 0.0042932 0)
(0.014126 0.00429442 0)
(0.0128987 0.00429553 0)
(0.0116712 0.00429653 0)
(0.0104433 0.00429742 0)
(0.00921523 0.0042982 0)
(0.00798695 0.00429888 0)
(0.00675848 0.00429946 0)
(0.00552987 0.00429994 0)
(0.00430113 0.00430032 0)
(0.00307231 0.00430061 0)
(0.00184341 0.0043008 0)
(0.000614474 0.00430089 0)
(0.000748936 -0.00673874 0)
(0.00224678 -0.00673851 0)
(0.00374456 -0.00673804 0)
(0.0052422 -0.00673734 0)
(0.00673968 -0.00673639 0)
(0.00823692 -0.0067352 0)
(0.00973388 -0.00673376 0)
(0.0112305 -0.00673205 0)
(0.0127267 -0.00673007 0)
(0.0142225 -0.00672782 0)
(0.0157178 -0.00672527 0)
(0.0172125 -0.00672242 0)
(0.0187065 -0.00671924 0)
(0.0201998 -0.00671574 0)
(0.0216924 -0.00671188 0)
(0.023184 -0.00670765 0)
(0.0246748 -0.00670303 0)
(0.0261644 -0.006698 0)
(0.027653 -0.00669254 0)
(0.0291403 -0.00668663 0)
(0.0306263 -0.00668024 0)
(0.0321108 -0.00667334 0)
(0.0335938 -0.00666592 0)
(0.0350752 -0.00665795 0)
(0.0365547 -0.00664939 0)
(0.0380324 -0.00664021 0)
(0.0395079 -0.0066304 0)
(0.0409813 -0.00661991 0)
(0.0424523 -0.00660871 0)
(0.0439207 -0.00659678 0)
(0.0453865 -0.00658407 0)
(0.0468495 -0.00657057 0)
(0.0483094 -0.00655622 0)
(0.049766 -0.00654099 0)
(0.0512193 -0.00652486 0)
(0.0526689 -0.00650777 0)
(0.0541147 -0.0064897 0)
(0.0555564 -0.00647061 0)
(0.0569938 -0.00645046 0)
(0.0584266 -0.00642921 0)
(0.0598547 -0.00640683 0)
(0.0612777 -0.00638327 0)
(0.0626954 -0.0063585 0)
(0.0641075 -0.00633248 0)
(0.0655138 -0.00630518 0)
(0.0669139 -0.00627655 0)
(0.0683076 -0.00624655 0)
(0.0696945 -0.00621516 0)
(0.0710743 -0.00618233 0)
(0.0724467 -0.00614803 0)
(0.0738114 -0.00611222 0)
(0.075168 -0.00607487 0)
(0.0765161 -0.00603595 0)
(0.0778555 -0.00599542 0)
(0.0791858 -0.00595325 0)
(0.0805066 -0.00590942 0)
(0.0818174 -0.00586389 0)
(0.083118 -0.00581664 0)
(0.084408 -0.00576763 0)
(0.0856869 -0.00571685 0)
(0.0869543 -0.00566428 0)
(0.0882099 -0.00560989 0)
(0.0894532 -0.00555367 0)
(0.0906839 -0.00549559 0)
(0.0919014 -0.00543565 0)
(0.0931055 -0.00537383 0)
(0.0942956 -0.00531012 0)
(0.0954714 -0.00524452 0)
(0.0966323 -0.00517701 0)
(0.0977781 -0.0051076 0)
(0.0989082 -0.00503629 0)
(0.100022 -0.00496307 0)
(0.10112 -0.00488796 0)
(0.102201 -0.00481096 0)
(0.103264 -0.00473207 0)
(0.104309 -0.00465133 0)
(0.105337 -0.00456873 0)
(0.106346 -0.0044843 0)
(0.107335 -0.00439807 0)
(0.108306 -0.00431005 0)
(0.109256 -0.00422027 0)
(0.110187 -0.00412877 0)
(0.111097 -0.00403558 0)
(0.111985 -0.00394072 0)
(0.112853 -0.00384425 0)
(0.113699 -0.00374621 0)
(0.114523 -0.00364662 0)
(0.115324 -0.00354555 0)
(0.116103 -0.00344305 0)
(0.116859 -0.00333915 0)
(0.117591 -0.00323392 0)
(0.1183 -0.00312742 0)
(0.118985 -0.00301969 0)
(0.119645 -0.00291081 0)
(0.120282 -0.00280082 0)
(0.120893 -0.0026898 0)
(0.12148 -0.00257781 0)
(0.122042 -0.00246492 0)
(0.122578 -0.00235118 0)
(0.123089 -0.00223669 0)
(0.123574 -0.00212149 0)
(0.124034 -0.00200567 0)
(0.124468 -0.0018893 0)
(0.124875 -0.00177244 0)
(0.125257 -0.00165517 0)
(0.125612 -0.00153757 0)
(0.125941 -0.00141971 0)
(0.126243 -0.00130165 0)
(0.12652 -0.00118348 0)
(0.12677 -0.00106526 0)
(0.126993 -0.000947068 0)
(0.12719 -0.000828978 0)
(0.127361 -0.000711057 0)
(0.127505 -0.000593376 0)
(0.127624 -0.000476005 0)
(0.127716 -0.00035901 0)
(0.127782 -0.000242458 0)
(0.127822 -0.000126415 0)
(0.127836 -1.09444e-05 0)
(0.127825 0.000103892 0)
(0.127788 0.000218034 0)
(0.127726 0.000331422 0)
(0.127638 0.000444 0)
(0.127526 0.000555712 0)
(0.127388 0.000666506 0)
(0.127227 0.000776331 0)
(0.12704 0.000885138 0)