/*--------------------------------*- C++ -*----------------------------------*\
| =========                 |                                                 |
| \\      /  F ield         | OpenFOAM: The Open Source CFD Toolbox           |
|  \\    /   O peration     | Version:  v2012                                 |
|   \\  /    A nd           | Website:  www.openfoam.com                      |
|    \\/     M anipulation  |                                                 |
\*---------------------------------------------------------------------------*/
FoamFile
{
    version     2.0;
    format      ascii;
    class       volScalarField;
    location    "0";
    object      p;
}
// * * * * * * * * * * * * * * * * * * * * * * * * * * * * * * * * * * * * * //

dimensions      [0 2 -2 0 0 0 0];


internalField   nonuniform List<scalar> 
4000
(
-3.13129e-13
-3.17015e-13
-3.1568e-13
-3.08649e-13
-3.03204e-13
-3.13386e-13
-3.10229e-13
-3.17305e-13
-3.17209e-13
-3.05276e-13
-3.09677e-13
-3.1606e-13
-3.124e-13
-3.16701e-13
-3.22862e-13
-3.29275e-13
-3.3378e-13
-3.30696e-13
-3.31083e-13
-3.34952e-13
-3.40562e-13
-3.4247e-13
-3.3799e-13
-3.29138e-13
-3.2529e-13
-3.24671e-13
-3.10227e-13
-3.15895e-13
-3.15733e-13
-3.16462e-13
-3.24492e-13
-3.23258e-13
-3.16016e-13
-3.02361e-13
-2.9805e-13
-2.92895e-13
-2.90549e-13
-2.95266e-13
-3.03563e-13
-3.02355e-13
-2.96527e-13
-2.9215e-13
-2.85105e-13
-2.80639e-13
-2.79257e-13
-2.82492e-13
-2.88645e-13
-2.83612e-13
-2.66216e-13
-2.56335e-13
-2.54653e-13
-2.45839e-13
-2.35845e-13
-2.22853e-13
-2.25758e-13
-2.25295e-13
-2.10745e-13
-2.05855e-13
-1.99308e-13
-1.85085e-13
-1.81244e-13
-1.66305e-13
-1.66218e-13
-1.67606e-13
-1.64359e-13
-1.54969e-13
-1.46517e-13
-1.39633e-13
-1.3243e-13
-1.26539e-13
-1.19166e-13
-1.20597e-13
-1.17928e-13
-1.14033e-13
-1.10876e-13
-1.06295e-13
-9.4232e-14
-8.80657e-14
-7.92019e-14
-7.52927e-14
-7.60776e-14
-7.30106e-14
-7.25869e-14
-6.95553e-14
-6.55735e-14
-5.70815e-14
-5.18841e-14
-4.30837e-14
-3.48006e-14
-3.71675e-14
-3.61326e-14
-4.02756e-14
-2.9246e-14
-2.31442e-14
-2.04557e-14
-1.68958e-14
-1.42259e-14
-4.44149e-15
-1.83446e-15
-3.41716e-15
-3.14888e-13
-3.16258e-13
-3.09902e-13
-3.09829e-13
-3.03552e-13
-3.14698e-13
-3.13046e-13
-3.15614e-13
-3.15433e-13
-3.09907e-13
-3.12123e-13
-3.15858e-13
-3.12836e-13
-3.18345e-13
-3.20397e-13
-3.23099e-13
-3.29919e-13
-3.3269e-13
-3.32769e-13
-3.33484e-13
-3.36921e-13
-3.39308e-13
-3.4128e-13
-3.34861e-13
-3.27868e-13
-3.22163e-13
-3.16975e-13
-3.15653e-13
-3.17268e-13
-3.20143e-13
-3.14013e-13
-3.17572e-13
-3.19996e-13
-3.07384e-13
-2.96507e-13
-2.99161e-13
-2.8983e-13
-2.91742e-13
-2.99852e-13
-2.9836e-13
-2.95321e-13
-2.88387e-13
-2.88662e-13
-2.86221e-13
-2.8215e-13
-2.81064e-13
-2.87737e-13
-2.76745e-13
-2.71832e-13
-2.61775e-13
-2.57067e-13
-2.44381e-13
-2.3485e-13
-2.23401e-13
-2.18978e-13
-2.22628e-13
-2.17124e-13
-2.10263e-13
-2.03347e-13
-1.82612e-13
-1.76367e-13
-1.70492e-13
-1.6289e-13
-1.60489e-13
-1.62988e-13
-1.5464e-13
-1.53301e-13
-1.42277e-13
-1.28002e-13
-1.24945e-13
-1.17644e-13
-1.21495e-13
-1.17627e-13
-1.09472e-13
-1.0947e-13
-1.065e-13
-9.70922e-14
-9.17539e-14
-8.04041e-14
-7.56868e-14
-7.61642e-14
-6.92512e-14
-7.05892e-14
-7.00857e-14
-6.09978e-14
-5.84098e-14
-5.63723e-14
-4.78036e-14
-4.0688e-14
-3.43363e-14
-3.5304e-14
-3.65134e-14
-2.49018e-14
-2.29496e-14
-1.9187e-14
-1.56464e-14
-1.57686e-14
-6.91369e-15
-5.63018e-16
-2.34444e-16
-3.15904e-13
-3.14285e-13
-3.10295e-13
-3.08701e-13
-3.07864e-13
-3.14489e-13
-3.13156e-13
-3.14246e-13
-3.1165e-13
-3.10872e-13
-3.1655e-13
-3.13031e-13
-3.12687e-13
-3.20215e-13
-3.15381e-13
-3.19005e-13
-3.28404e-13
-3.34517e-13
-3.32264e-13
-3.35285e-13
-3.3754e-13
-3.39671e-13
-3.41983e-13
-3.37711e-13
-3.28267e-13
-3.24139e-13
-3.1789e-13
-3.15829e-13
-3.13331e-13
-3.22202e-13
-3.176e-13
-3.16169e-13
-3.11863e-13
-3.03381e-13
-2.99228e-13
-2.97367e-13
-2.87914e-13
-2.92311e-13
-2.9735e-13
-3.01533e-13
-2.95201e-13
-2.89032e-13
-2.89962e-13
-2.87613e-13
-2.84775e-13
-2.79635e-13
-2.811e-13
-2.81491e-13
-2.72769e-13
-2.59959e-13
-2.5356e-13
-2.49422e-13
-2.37649e-13
-2.23407e-13
-2.26721e-13
-2.23698e-13
-2.1501e-13
-2.05319e-13
-1.9698e-13
-1.85512e-13
-1.76893e-13
-1.76357e-13
-1.68202e-13
-1.63775e-13
-1.59215e-13
-1.50058e-13
-1.45344e-13
-1.41156e-13
-1.28368e-13
-1.32049e-13
-1.26606e-13
-1.19124e-13
-1.1537e-13
-1.10233e-13
-1.09669e-13
-1.00533e-13
-9.80047e-14
-9.15286e-14
-7.77575e-14
-7.35421e-14
-7.67762e-14
-7.34286e-14
-7.31522e-14
-7.07165e-14
-6.20968e-14
-5.66628e-14
-5.06205e-14
-4.75996e-14
-3.93344e-14
-4.00709e-14
-3.7252e-14
-3.1628e-14
-2.58454e-14
-2.17993e-14
-2.38361e-14
-1.84932e-14
-1.56643e-14
-8.38446e-15
3.35747e-15
-9.9576e-16
-3.13928e-13
-3.12296e-13
-3.06554e-13
-3.10216e-13
-3.1167e-13
-3.13927e-13
-3.15594e-13
-3.12199e-13
-3.09371e-13
-3.09728e-13
-3.1504e-13
-3.14884e-13
-3.1739e-13
-3.15236e-13
-3.09614e-13
-3.22187e-13
-3.28143e-13
-3.35321e-13
-3.36605e-13
-3.38423e-13
-3.35185e-13
-3.35782e-13
-3.35446e-13
-3.38317e-13
-3.32264e-13
-3.28515e-13
-3.24975e-13
-3.18807e-13
-3.14549e-13
-3.17641e-13
-3.11442e-13
-3.11535e-13
-3.13566e-13
-3.04903e-13
-2.95594e-13
-2.91743e-13
-2.91821e-13
-2.96155e-13
-2.96831e-13
-2.9488e-13
-2.94644e-13
-2.87792e-13
-2.86984e-13
-2.90017e-13
-2.9179e-13
-2.87464e-13
-2.79488e-13
-2.74403e-13
-2.66966e-13
-2.62789e-13
-2.57795e-13
-2.48649e-13
-2.37432e-13
-2.25484e-13
-2.25971e-13
-2.22404e-13
-2.14219e-13
-2.04539e-13
-1.97542e-13
-1.89655e-13
-1.78739e-13
-1.71817e-13
-1.66228e-13
-1.60509e-13
-1.59276e-13
-1.515e-13
-1.44428e-13
-1.39675e-13
-1.30967e-13
-1.29911e-13
-1.21988e-13
-1.19042e-13
-1.10405e-13
-1.05963e-13
-1.10015e-13
-1.04981e-13
-9.46992e-14
-9.1122e-14
-8.19955e-14
-8.11438e-14
-7.79096e-14
-7.35853e-14
-7.04354e-14
-7.04985e-14
-6.9227e-14
-5.81654e-14
-5.41191e-14
-5.25349e-14
-4.36298e-14
-3.91514e-14
-3.29187e-14
-3.4125e-14
-2.4303e-14
-2.3416e-14
-1.81111e-14
-1.75074e-14
-1.65764e-14
-1.16352e-14
-5.42166e-16
-1.3293e-15
-3.12838e-13
-3.07311e-13
-3.05866e-13
-3.09416e-13
-3.16113e-13
-3.13274e-13
-3.11878e-13
-3.06714e-13
-3.09315e-13
-3.15688e-13
-3.19013e-13
-3.20037e-13
-3.14965e-13
-3.12094e-13
-3.1132e-13
-3.15983e-13
-3.25784e-13
-3.26503e-13
-3.38669e-13
-3.48365e-13
-3.43495e-13
-3.40662e-13
-3.41143e-13
-3.33718e-13
-3.28283e-13
-3.25209e-13
-3.23429e-13
-3.14213e-13
-3.13574e-13
-3.1635e-13
-3.1414e-13
-3.11973e-13
-3.11289e-13
-3.04029e-13
-2.97652e-13
-2.92075e-13
-2.90309e-13
-2.95356e-13
-3.03673e-13
-3.01778e-13
-2.96663e-13
-2.87465e-13
-2.85092e-13
-2.87916e-13
-2.94257e-13
-2.91776e-13
-2.7907e-13
-2.72555e-13
-2.67418e-13
-2.61755e-13
-2.55022e-13
-2.44915e-13
-2.37838e-13
-2.26846e-13
-2.2482e-13
-2.2199e-13
-2.13206e-13
-2.02607e-13
-1.98486e-13
-1.93296e-13
-1.85475e-13
-1.73666e-13
-1.68536e-13
-1.60883e-13
-1.54998e-13
-1.45325e-13
-1.41009e-13
-1.392e-13
-1.33977e-13
-1.31739e-13
-1.27475e-13
-1.2153e-13
-1.07553e-13
-1.08316e-13
-1.06632e-13
-1.06626e-13
-9.79043e-14
-9.19013e-14
-8.38576e-14
-8.53473e-14
-8.02917e-14
-7.26993e-14
-6.88167e-14
-7.19219e-14
-7.25645e-14
-6.6159e-14
-5.64542e-14
-5.14337e-14
-4.58811e-14
-4.22499e-14
-3.25453e-14
-3.06379e-14
-2.39031e-14
-2.33536e-14
-1.9166e-14
-1.54689e-14
-1.07092e-14
-1.27566e-14
1.17757e-16
3.41481e-16
-3.1088e-13
-3.04233e-13
-3.02526e-13
-3.10967e-13
-3.15536e-13
-3.10957e-13
-3.08229e-13
-3.07653e-13
-3.06338e-13
-3.14099e-13
-3.15966e-13
-3.20612e-13
-3.17539e-13
-3.12293e-13
-3.1853e-13
-3.10932e-13
-3.2125e-13
-3.24869e-13
-3.36318e-13
-3.46703e-13
-3.44635e-13
-3.42556e-13
-3.43461e-13
-3.39235e-13
-3.3146e-13
-3.25415e-13
-3.24388e-13
-3.18592e-13
-3.16256e-13
-3.16106e-13
-3.16892e-13
-3.12486e-13
-3.10288e-13
-2.96671e-13
-2.90741e-13
-2.92949e-13
-2.93816e-13
-2.96297e-13
-3.01275e-13
-3.04142e-13
-2.95294e-13
-2.90573e-13
-2.89138e-13
-2.85911e-13
-2.91152e-13
-2.88129e-13
-2.82832e-13
-2.75911e-13
-2.65844e-13
-2.62519e-13
-2.55668e-13
-2.46308e-13
-2.37186e-13
-2.27065e-13
-2.25645e-13
-2.20052e-13
-2.09809e-13
-2.04852e-13
-1.97842e-13
-1.92968e-13
-1.80766e-13
-1.73246e-13
-1.68868e-13
-1.58576e-13
-1.57737e-13
-1.48677e-13
-1.42599e-13
-1.38772e-13
-1.38261e-13
-1.33967e-13
-1.231e-13
-1.17575e-13
-1.08592e-13
-1.07498e-13
-1.08058e-13
-1.05581e-13
-1.03419e-13
-9.66233e-14
-8.37382e-14
-8.09548e-14
-7.65962e-14
-7.17145e-14
-7.4829e-14
-7.59179e-14
-7.3087e-14
-6.8113e-14
-5.36825e-14
-5.37699e-14
-4.58917e-14
-4.142e-14
-3.67627e-14
-2.97944e-14
-2.50968e-14
-1.87874e-14
-1.58234e-14
-1.5465e-14
-1.16327e-14
-8.96767e-15
-2.59495e-15
-1.36626e-15
-3.04791e-13
-3.06158e-13
-3.06529e-13
-3.0847e-13
-3.08834e-13
-3.05058e-13
-3.06412e-13
-3.09078e-13
-3.07933e-13
-3.15976e-13
-3.18077e-13
-3.16941e-13
-3.12412e-13
-3.1339e-13
-3.1553e-13
-3.15301e-13
-3.24257e-13
-3.32451e-13
-3.37602e-13
-3.47892e-13
-3.52969e-13
-3.4107e-13
-3.34364e-13
-3.2914e-13
-3.28367e-13
-3.23725e-13
-3.26822e-13
-3.26253e-13
-3.21874e-13
-3.19382e-13
-3.13392e-13
-3.1257e-13
-3.05085e-13
-2.98477e-13
-2.97659e-13
-2.96406e-13
-2.98856e-13
-2.97635e-13
-2.97413e-13
-3.01391e-13
-2.96789e-13
-2.94873e-13
-2.89289e-13
-2.87973e-13
-2.85835e-13
-2.82048e-13
-2.7777e-13
-2.7493e-13
-2.7187e-13
-2.66137e-13
-2.5586e-13
-2.38026e-13
-2.27284e-13
-2.30777e-13
-2.26733e-13
-2.19018e-13
-2.10746e-13
-2.05842e-13
-2.0145e-13
-1.91843e-13
-1.80505e-13
-1.69045e-13
-1.69384e-13
-1.63853e-13
-1.58988e-13
-1.51285e-13
-1.444e-13
-1.41827e-13
-1.42662e-13
-1.3482e-13
-1.15501e-13
-1.16022e-13
-1.09138e-13
-1.05907e-13
-1.02502e-13
-1.05094e-13
-1.01397e-13
-1.01301e-13
-9.04071e-14
-8.48317e-14
-7.88712e-14
-7.49533e-14
-7.23298e-14
-7.16243e-14
-7.33501e-14
-7.0559e-14
-5.80383e-14
-4.89616e-14
-4.50827e-14
-4.04572e-14
-3.72074e-14
-3.17525e-14
-2.43698e-14
-1.77536e-14
-1.37833e-14
-1.7288e-14
-9.86144e-15
-7.40532e-15
-2.38594e-15
-3.88388e-15
-3.0183e-13
-3.02525e-13
-3.07792e-13
-3.1104e-13
-3.05108e-13
-2.97904e-13
-2.99677e-13
-3.1313e-13
-3.12047e-13
-3.11454e-13
-3.11849e-13
-3.14945e-13
-3.16338e-13
-3.15001e-13
-3.16988e-13
-3.19013e-13
-3.25043e-13
-3.29178e-13
-3.36169e-13
-3.42568e-13
-3.46896e-13
-3.40979e-13
-3.45371e-13
-3.33169e-13
-3.23555e-13
-3.26693e-13
-3.3192e-13
-3.26177e-13
-3.22036e-13
-3.2284e-13
-3.16734e-13
-3.07616e-13
-2.95676e-13
-2.94749e-13
-2.99651e-13
-3.03345e-13
-3.05087e-13
-2.98523e-13
-2.98899e-13
-2.97948e-13
-2.96895e-13
-2.97285e-13
-2.93552e-13
-2.89015e-13
-2.81184e-13
-2.7962e-13
-2.85503e-13
-2.79972e-13
-2.73803e-13
-2.65093e-13
-2.52966e-13
-2.37027e-13
-2.31939e-13
-2.24848e-13
-2.29835e-13
-2.21622e-13
-2.08056e-13
-2.04171e-13
-1.98087e-13
-1.94771e-13
-1.86057e-13
-1.7609e-13
-1.71134e-13
-1.60698e-13
-1.55872e-13
-1.53116e-13
-1.44798e-13
-1.42111e-13
-1.37686e-13
-1.32559e-13
-1.27313e-13
-1.17082e-13
-1.13371e-13
-1.13164e-13
-1.11514e-13
-1.03664e-13
-9.91545e-14
-9.52995e-14
-8.87928e-14
-8.76459e-14
-8.01523e-14
-7.49226e-14
-7.73433e-14
-7.86102e-14
-7.62634e-14
-6.88047e-14
-5.5944e-14
-4.77324e-14
-4.21227e-14
-4.03096e-14
-3.90149e-14
-3.02573e-14
-2.01866e-14
-1.33598e-14
-1.29139e-14
-1.76387e-14
-1.1909e-14
-9.68036e-15
-5.42994e-15
-3.67634e-15
-3.02364e-13
-2.98875e-13
-3.06117e-13
-3.09667e-13
-3.02993e-13
-2.98508e-13
-2.98229e-13
-3.0706e-13
-3.12531e-13
-3.07556e-13
-3.12438e-13
-3.15648e-13
-3.20768e-13
-3.23087e-13
-3.14028e-13
-3.14793e-13
-3.23127e-13
-3.34279e-13
-3.36177e-13
-3.37408e-13
-3.41191e-13
-3.40813e-13
-3.36599e-13
-3.37404e-13
-3.34397e-13
-3.35207e-13
-3.26802e-13
-3.22355e-13
-3.1734e-13
-3.20911e-13
-3.20845e-13
-3.0851e-13
-3.01078e-13
-3.04973e-13
-3.01891e-13
-3.02563e-13
-3.03784e-13
-3.01386e-13
-2.94136e-13
-2.93906e-13
-3.02275e-13
-3.02401e-13
-2.92488e-13
-2.91315e-13
-2.84332e-13
-2.75611e-13
-2.78367e-13
-2.71442e-13
-2.73785e-13
-2.67828e-13
-2.56057e-13
-2.41179e-13
-2.32359e-13
-2.23997e-13
-2.25633e-13
-2.22309e-13
-2.1269e-13
-2.09543e-13
-2.021e-13
-1.94452e-13
-1.86655e-13
-1.76387e-13
-1.69696e-13
-1.64349e-13
-1.63034e-13
-1.60224e-13
-1.46795e-13
-1.43263e-13
-1.38352e-13
-1.34838e-13
-1.25489e-13
-1.18961e-13
-1.16206e-13
-1.14016e-13
-1.06573e-13
-1.01816e-13
-1.02395e-13
-9.53206e-14
-8.97619e-14
-8.81874e-14
-7.93763e-14
-7.57091e-14
-7.94116e-14
-7.96991e-14
-7.86719e-14
-6.9336e-14
-4.99826e-14
-4.5661e-14
-4.46332e-14
-4.07281e-14
-3.82574e-14
-2.90055e-14
-2.75466e-14
-1.54607e-14
-1.0323e-14
-1.28417e-14
-1.5856e-14
-1.33978e-14
-9.67562e-15
-6.49148e-15
-2.97051e-13
-2.994e-13
-3.01161e-13
-3.00654e-13
-3.02843e-13
-2.98682e-13
-3.02776e-13
-3.0876e-13
-3.11531e-13
-3.16847e-13
-3.16777e-13
-3.13938e-13
-3.14716e-13
-3.17185e-13
-3.16536e-13
-3.17423e-13
-3.22244e-13
-3.3085e-13
-3.31315e-13
-3.3015e-13
-3.39473e-13
-3.4545e-13
-3.47247e-13
-3.43994e-13
-3.28563e-13
-3.2864e-13
-3.2671e-13
-3.237e-13
-3.21867e-13
-3.21224e-13
-3.13679e-13
-3.08464e-13
-3.04232e-13
-3.08694e-13
-3.06714e-13
-3.05895e-13
-3.07289e-13
-3.02398e-13
-2.99483e-13
-2.93649e-13
-3.02138e-13
-3.02944e-13
-2.93866e-13
-2.90047e-13
-2.83494e-13
-2.74474e-13
-2.74869e-13
-2.6847e-13
-2.7259e-13
-2.65802e-13
-2.5651e-13
-2.3903e-13
-2.32673e-13
-2.28343e-13
-2.26243e-13
-2.2067e-13
-2.17573e-13
-2.12667e-13
-2.00817e-13
-1.94826e-13
-1.82836e-13
-1.72419e-13
-1.66657e-13
-1.75819e-13
-1.69997e-13
-1.6702e-13
-1.51083e-13
-1.46572e-13
-1.4005e-13
-1.27997e-13
-1.19945e-13
-1.22905e-13
-1.16598e-13
-1.14853e-13
-1.11946e-13
-1.10406e-13
-1.05644e-13
-9.48381e-14
-9.06349e-14
-9.13198e-14
-8.37734e-14
-7.91948e-14
-7.47804e-14
-8.02132e-14
-7.12835e-14
-6.85342e-14
-5.69369e-14
-5.14983e-14
-5.06217e-14
-3.76155e-14
-3.80552e-14
-3.25092e-14
-2.89871e-14
-2.35358e-14
-1.38987e-14
-1.65136e-14
-1.62813e-14
-1.35543e-14
-1.19522e-14
-6.85766e-15
-2.98205e-13
-2.96608e-13
-2.99908e-13
-2.96224e-13
-2.99488e-13
-3.07181e-13
-2.96616e-13
-3.06566e-13
-3.11352e-13
-3.16207e-13
-3.15828e-13
-3.1744e-13
-3.13352e-13
-3.13663e-13
-3.16793e-13
-3.16112e-13
-3.23484e-13
-3.26862e-13
-3.24732e-13
-3.35041e-13
-3.39703e-13
-3.46104e-13
-3.4751e-13
-3.40279e-13
-3.3945e-13
-3.32067e-13
-3.25569e-13
-3.2029e-13
-3.19966e-13
-3.18688e-13
-3.14432e-13
-3.0945e-13
-3.13974e-13
-3.09636e-13
-3.06445e-13
-3.06232e-13
-3.10044e-13
-3.03606e-13
-2.9682e-13
-2.99242e-13
-3.02846e-13
-3.04493e-13
-2.9671e-13
-2.88067e-13
-2.79111e-13
-2.7221e-13
-2.66514e-13
-2.74653e-13
-2.7485e-13
-2.67947e-13
-2.55849e-13
-2.39381e-13
-2.30079e-13
-2.28296e-13
-2.2735e-13
-2.18589e-13
-2.13154e-13
-2.13104e-13
-2.05011e-13
-1.98334e-13
-1.88536e-13
-1.83806e-13
-1.75331e-13
-1.69125e-13
-1.65819e-13
-1.63991e-13
-1.59471e-13
-1.50757e-13
-1.44842e-13
-1.31801e-13
-1.20666e-13
-1.27138e-13
-1.17488e-13
-1.21028e-13
-1.19753e-13
-1.15185e-13
-1.06987e-13
-9.54333e-14
-9.09198e-14
-8.2991e-14
-8.08858e-14
-8.04743e-14
-7.52243e-14
-7.85512e-14
-7.85815e-14
-7.11246e-14
-5.58871e-14
-4.67468e-14
-4.90416e-14
-4.26894e-14
-4.15657e-14
-3.33259e-14
-2.64973e-14
-2.1346e-14
-1.5102e-14
-1.6126e-14
-1.86351e-14
-2.1549e-14
-1.38434e-14
-4.13306e-15
-2.92483e-13
-2.92159e-13
-2.94828e-13
-2.93168e-13
-2.96213e-13
-3.02363e-13
-3.02514e-13
-3.05474e-13
-3.0518e-13
-3.09268e-13
-3.19633e-13
-3.24077e-13
-3.14322e-13
-3.14546e-13
-3.16314e-13
-3.22835e-13
-3.22379e-13
-3.1697e-13
-3.22199e-13
-3.34285e-13
-3.41234e-13
-3.42341e-13
-3.41756e-13
-3.40475e-13
-3.34762e-13
-3.32303e-13
-3.32415e-13
-3.23945e-13
-3.22944e-13
-3.19381e-13
-3.09928e-13
-3.0859e-13
-3.19206e-13
-3.21485e-13
-3.18384e-13
-3.08803e-13
-3.00806e-13
-2.99671e-13
-3.03637e-13
-3.03344e-13
-3.06562e-13
-3.01819e-13
-2.94733e-13
-2.85686e-13
-2.81033e-13
-2.70743e-13
-2.67813e-13
-2.71251e-13
-2.71487e-13
-2.59937e-13
-2.50093e-13
-2.43843e-13
-2.33003e-13
-2.2928e-13
-2.27168e-13
-2.17089e-13
-2.15978e-13
-2.15566e-13
-2.05207e-13
-1.98917e-13
-1.8901e-13
-1.75099e-13
-1.72093e-13
-1.75305e-13
-1.74621e-13
-1.76668e-13
-1.65643e-13
-1.56887e-13
-1.46044e-13
-1.32003e-13
-1.21982e-13
-1.21816e-13
-1.18134e-13
-1.16831e-13
-1.25205e-13
-1.26973e-13
-1.16476e-13
-9.72518e-14
-8.72865e-14
-8.70816e-14
-8.50999e-14
-8.32023e-14
-7.63745e-14
-6.83591e-14
-7.7461e-14
-6.83318e-14
-5.93729e-14
-5.48454e-14
-5.03784e-14
-4.04653e-14
-4.02734e-14
-3.1339e-14
-2.41466e-14
-2.17516e-14
-2.02041e-14
-2.28546e-14
-2.07416e-14
-1.62717e-14
-1.09175e-14
-4.47201e-15
-2.90809e-13
-2.87946e-13
-2.98252e-13
-2.87708e-13
-2.88528e-13
-2.96416e-13
-3.05165e-13
-3.0899e-13
-3.15332e-13
-3.1866e-13
-3.14641e-13
-3.11752e-13
-3.0955e-13
-3.07002e-13
-3.18552e-13
-3.24253e-13
-3.15233e-13
-3.09175e-13
-3.20198e-13
-3.3463e-13
-3.4725e-13
-3.49189e-13
-3.47886e-13
-3.44258e-13
-3.37951e-13
-3.24299e-13
-3.25204e-13
-3.31093e-13
-3.26827e-13
-3.22245e-13
-3.15927e-13
-3.0793e-13
-3.13518e-13
-3.16499e-13
-3.14991e-13
-3.10896e-13
-3.0413e-13
-3.03017e-13
-3.05719e-13
-3.06159e-13
-3.06351e-13
-3.02692e-13
-2.91953e-13
-2.89731e-13
-2.89279e-13
-2.7653e-13
-2.69149e-13
-2.65525e-13
-2.64676e-13
-2.56595e-13
-2.50922e-13
-2.45506e-13
-2.36021e-13
-2.3718e-13
-2.22626e-13
-2.14323e-13
-2.1399e-13
-2.19438e-13
-2.09086e-13
-2.05725e-13
-1.95002e-13
-1.86518e-13
-1.72807e-13
-1.71153e-13
-1.73047e-13
-1.72671e-13
-1.68275e-13
-1.60776e-13
-1.46415e-13
-1.3846e-13
-1.32441e-13
-1.25002e-13
-1.19382e-13
-1.23099e-13
-1.22519e-13
-1.26386e-13
-1.18329e-13
-1.04761e-13
-9.08121e-14
-8.0139e-14
-8.73867e-14
-8.42115e-14
-7.23306e-14
-6.93297e-14
-7.40017e-14
-7.09523e-14
-6.07415e-14
-5.32828e-14
-5.15501e-14
-4.14666e-14
-3.90962e-14
-2.93473e-14
-2.78425e-14
-2.50126e-14
-1.94263e-14
-1.9899e-14
-1.24963e-14
-1.72848e-14
-1.25234e-14
-6.14523e-15
-2.90691e-13
-2.80971e-13
-2.8772e-13
-2.89847e-13
-2.91616e-13
-2.97549e-13
-3.02456e-13
-2.99687e-13
-3.06628e-13
-3.22468e-13
-3.20038e-13
-3.13818e-13
-3.086e-13
-3.11979e-13
-3.1097e-13
-3.18921e-13
-3.16456e-13
-3.12798e-13
-3.21221e-13
-3.33935e-13
-3.38572e-13
-3.40671e-13
-3.37944e-13
-3.36893e-13
-3.47984e-13
-3.33565e-13
-3.30041e-13
-3.25385e-13
-3.25739e-13
-3.2483e-13
-3.18165e-13
-3.11964e-13
-3.20268e-13
-3.25339e-13
-3.18711e-13
-3.15797e-13
-3.03182e-13
-3.00059e-13
-2.97771e-13
-2.96301e-13
-3.06448e-13
-3.07503e-13
-2.97125e-13
-2.91708e-13
-2.8265e-13
-2.70972e-13
-2.72839e-13
-2.71425e-13
-2.60921e-13
-2.5505e-13
-2.50895e-13
-2.47359e-13
-2.3876e-13
-2.31737e-13
-2.26188e-13
-2.16653e-13
-2.19747e-13
-2.15823e-13
-2.04329e-13
-2.04709e-13
-1.97125e-13
-1.91582e-13
-1.79295e-13
-1.76763e-13
-1.74878e-13
-1.72708e-13
-1.68538e-13
-1.64686e-13
-1.52829e-13
-1.38897e-13
-1.34734e-13
-1.25411e-13
-1.27858e-13
-1.23901e-13
-1.21364e-13
-1.22816e-13
-1.19905e-13
-1.0756e-13
-8.84694e-14
-8.47928e-14
-9.03807e-14
-8.45349e-14
-7.58246e-14
-7.51367e-14
-7.77708e-14
-6.72075e-14
-6.10806e-14
-5.89475e-14
-5.06275e-14
-4.37449e-14
-3.18819e-14
-2.62251e-14
-2.89746e-14
-2.16488e-14
-2.46235e-14
-2.20638e-14
-1.39785e-14
-1.57098e-14
-1.49285e-14
-7.12932e-15
-2.84239e-13
-2.84582e-13
-2.84194e-13
-2.85149e-13
-2.87196e-13
-2.92221e-13
-3.03007e-13
-3.10277e-13
-3.08813e-13
-3.13243e-13
-3.19383e-13
-3.12898e-13
-3.07448e-13
-3.07478e-13
-3.05691e-13
-3.14468e-13
-3.16726e-13
-3.15647e-13
-3.13225e-13
-3.29186e-13
-3.41293e-13
-3.43945e-13
-3.47341e-13
-3.49441e-13
-3.3722e-13
-3.32164e-13
-3.30327e-13
-3.28242e-13
-3.30192e-13
-3.21978e-13
-3.20575e-13
-3.13143e-13
-3.15203e-13
-3.24352e-13
-3.21224e-13
-3.08879e-13
-2.9775e-13
-3.00327e-13
-2.99661e-13
-2.97144e-13
-3.05869e-13
-3.09092e-13
-3.02133e-13
-3.00623e-13
-2.84915e-13
-2.67333e-13
-2.67139e-13
-2.70829e-13
-2.5898e-13
-2.52399e-13
-2.49112e-13
-2.48807e-13
-2.42034e-13
-2.33975e-13
-2.32541e-13
-2.22204e-13
-2.23626e-13
-2.17184e-13
-2.02396e-13
-2.00205e-13
-1.99267e-13
-1.88435e-13
-1.78058e-13
-1.78983e-13
-1.85587e-13
-1.80715e-13
-1.7161e-13
-1.67848e-13
-1.50752e-13
-1.40797e-13
-1.38224e-13
-1.33326e-13
-1.29186e-13
-1.2443e-13
-1.22194e-13
-1.24868e-13
-1.20661e-13
-1.08337e-13
-9.06345e-14
-8.17854e-14
-8.6028e-14
-8.22501e-14
-7.46561e-14
-8.13642e-14
-7.81706e-14
-6.63179e-14
-6.50394e-14
-6.28671e-14
-5.52096e-14
-4.18584e-14
-3.26302e-14
-2.92941e-14
-2.76434e-14
-2.16346e-14
-2.37198e-14
-2.09115e-14
-1.71798e-14
-2.02398e-14
-1.53231e-14
-3.84716e-15
-2.89215e-13
-2.81612e-13
-2.83658e-13
-2.85295e-13
-2.84216e-13
-2.82381e-13
-2.90168e-13
-3.0519e-13
-3.19064e-13
-3.1894e-13
-3.14767e-13
-3.1202e-13
-3.0514e-13
-3.07613e-13
-3.066e-13
-3.08953e-13
-3.14246e-13
-3.215e-13
-3.19768e-13
-3.2788e-13
-3.42077e-13
-3.46069e-13
-3.41168e-13
-3.43146e-13
-3.40266e-13
-3.30755e-13
-3.29529e-13
-3.27582e-13
-3.27455e-13
-3.23136e-13
-3.19022e-13
-3.16699e-13
-3.10264e-13
-3.18798e-13
-3.22836e-13
-3.17218e-13
-3.04244e-13
-3.007e-13
-3.01208e-13
-2.98799e-13
-3.06209e-13
-3.02418e-13
-2.95657e-13
-2.97475e-13
-2.87473e-13
-2.73616e-13
-2.59647e-13
-2.70615e-13
-2.59464e-13
-2.55006e-13
-2.51078e-13
-2.46174e-13
-2.41694e-13
-2.36568e-13
-2.29625e-13
-2.2731e-13
-2.21484e-13
-2.15496e-13
-2.08116e-13
-2.07322e-13
-2.00504e-13
-1.92922e-13
-1.83503e-13
-1.84215e-13
-1.81818e-13
-1.85982e-13
-1.81906e-13
-1.67831e-13
-1.54213e-13
-1.36562e-13
-1.41378e-13
-1.33934e-13
-1.29195e-13
-1.28823e-13
-1.27091e-13
-1.24607e-13
-1.14614e-13
-1.04355e-13
-9.5233e-14
-9.17792e-14
-9.19049e-14
-8.71356e-14
-8.25564e-14
-7.91814e-14
-7.43962e-14
-6.64193e-14
-6.39556e-14
-6.33724e-14
-5.80907e-14
-4.45083e-14
-3.53393e-14
-2.66289e-14
-2.47075e-14
-2.4633e-14
-2.8733e-14
-2.04644e-14
-2.0952e-14
-2.08365e-14
-1.11116e-14
-2.36028e-15
-2.78965e-13
-2.80399e-13
-2.85381e-13
-2.87744e-13
-2.82472e-13
-2.94957e-13
-2.98804e-13
-2.98512e-13
-3.01935e-13
-3.04034e-13
-3.09674e-13
-3.14165e-13
-3.11116e-13
-3.09235e-13
-3.09144e-13
-3.06599e-13
-3.06231e-13
-3.10117e-13
-3.23675e-13
-3.30642e-13
-3.44337e-13
-3.42763e-13
-3.38152e-13
-3.38265e-13
-3.41759e-13
-3.31799e-13
-3.32069e-13
-3.32892e-13
-3.27887e-13
-3.2295e-13
-3.2198e-13
-3.1776e-13
-3.12919e-13
-3.17369e-13
-3.19668e-13
-3.16406e-13
-2.99434e-13
-2.92996e-13
-3.02816e-13
-3.00085e-13
-3.074e-13
-3.08732e-13
-2.92461e-13
-2.8286e-13
-2.79781e-13
-2.73894e-13
-2.76796e-13
-2.7256e-13
-2.59526e-13
-2.59501e-13
-2.51569e-13
-2.47137e-13
-2.42915e-13
-2.37158e-13
-2.37294e-13
-2.32105e-13
-2.26329e-13
-2.1384e-13
-2.06299e-13
-2.03306e-13
-2.00179e-13
-1.93337e-13
-1.9091e-13
-1.87371e-13
-1.88957e-13
-1.88442e-13
-1.79917e-13
-1.67304e-13
-1.56192e-13
-1.42388e-13
-1.43587e-13
-1.36065e-13
-1.35247e-13
-1.30635e-13
-1.27306e-13
-1.25513e-13
-1.16698e-13
-1.12474e-13
-1.01148e-13
-8.3401e-14
-8.87095e-14
-9.22785e-14
-8.10708e-14
-7.91369e-14
-7.59163e-14
-6.91651e-14
-7.0186e-14
-5.99552e-14
-5.7127e-14
-4.9065e-14
-3.54827e-14
-2.54642e-14
-2.65322e-14
-2.34597e-14
-2.88462e-14
-2.47858e-14
-2.40308e-14
-2.03368e-14
-1.07491e-14
1.32838e-15
-2.75679e-13
-2.79589e-13
-2.8294e-13
-2.83859e-13
-2.80666e-13
-2.82194e-13
-2.9187e-13
-2.99186e-13
-3.01334e-13
-3.0831e-13
-3.11526e-13
-3.04777e-13
-3.04779e-13
-3.09274e-13
-3.09002e-13
-3.07441e-13
-3.08794e-13
-3.13673e-13
-3.25144e-13
-3.33046e-13
-3.39487e-13
-3.4188e-13
-3.38812e-13
-3.36753e-13
-3.31166e-13
-3.33584e-13
-3.35471e-13
-3.32989e-13
-3.2654e-13
-3.20604e-13
-3.13594e-13
-3.15466e-13
-3.16093e-13
-3.20601e-13
-3.20161e-13
-3.12128e-13
-3.05953e-13
-3.03085e-13
-3.05658e-13
-3.00219e-13
-3.00342e-13
-3.03898e-13
-2.9444e-13
-2.88757e-13
-2.82736e-13
-2.72717e-13
-2.74062e-13
-2.65503e-13
-2.59881e-13
-2.58832e-13
-2.53819e-13
-2.50062e-13
-2.44275e-13
-2.40118e-13
-2.33478e-13
-2.32811e-13
-2.34282e-13
-2.26024e-13
-2.10582e-13
-2.06682e-13
-2.01023e-13
-1.99689e-13
-1.98846e-13
-1.88535e-13
-1.87546e-13
-1.87242e-13
-1.76529e-13
-1.71719e-13
-1.56873e-13
-1.48079e-13
-1.46286e-13
-1.36044e-13
-1.3405e-13
-1.29803e-13
-1.29425e-13
-1.26687e-13
-1.13334e-13
-1.12128e-13
-1.00285e-13
-9.24326e-14
-9.84926e-14
-8.97117e-14
-8.38726e-14
-8.27963e-14
-7.65492e-14
-7.27978e-14
-7.30739e-14
-6.0364e-14
-5.76109e-14
-4.49668e-14
-3.84046e-14
-2.95039e-14
-3.08396e-14
-2.72094e-14
-3.08157e-14
-2.21977e-14
-1.87866e-14
-1.83948e-14
-1.36238e-14
1.40632e-15
-2.78011e-13
-2.8048e-13
-2.79272e-13
-2.77513e-13
-2.80293e-13
-2.84054e-13
-2.92497e-13
-2.92162e-13
-2.90828e-13
-3.01383e-13
-3.04881e-13
-3.03164e-13
-3.08168e-13
-3.05543e-13
-3.12203e-13
-3.1365e-13
-3.07302e-13
-3.13143e-13
-3.19491e-13
-3.26054e-13
-3.37339e-13
-3.39405e-13
-3.35485e-13
-3.34718e-13
-3.3476e-13
-3.35544e-13
-3.28785e-13
-3.28595e-13
-3.26008e-13
-3.25827e-13
-3.21396e-13
-3.15918e-13
-3.20025e-13
-3.22184e-13
-3.19421e-13
-3.04741e-13
-3.02125e-13
-2.96889e-13
-3.04294e-13
-3.07206e-13
-3.02378e-13
-3.01498e-13
-2.94115e-13
-2.91645e-13
-2.87882e-13
-2.71218e-13
-2.66248e-13
-2.69861e-13
-2.66632e-13
-2.58203e-13
-2.57633e-13
-2.51024e-13
-2.48057e-13
-2.4703e-13
-2.35056e-13
-2.29858e-13
-2.25518e-13
-2.22296e-13
-2.15021e-13
-2.12112e-13
-2.05634e-13
-2.06051e-13
-1.97721e-13
-1.9291e-13
-1.91319e-13
-1.81577e-13
-1.80483e-13
-1.72563e-13
-1.61023e-13
-1.53131e-13
-1.53608e-13
-1.38161e-13
-1.35179e-13
-1.28729e-13
-1.30976e-13
-1.25404e-13
-1.16597e-13
-1.14561e-13
-1.08246e-13
-1.04297e-13
-9.2234e-14
-8.79716e-14
-8.9635e-14
-8.29872e-14
-7.64415e-14
-7.49987e-14
-7.2398e-14
-6.33165e-14
-5.90526e-14
-4.85581e-14
-3.87831e-14
-3.46603e-14
-3.31202e-14
-2.79602e-14
-2.67999e-14
-2.18485e-14
-1.93003e-14
-1.65275e-14
-1.63807e-14
-4.30751e-15
-2.71258e-13
-2.78889e-13
-2.8078e-13
-2.79715e-13
-2.81351e-13
-2.85249e-13
-2.87943e-13
-2.85693e-13
-2.89013e-13
-2.97851e-13
-3.01146e-13
-3.01424e-13
-3.05938e-13
-3.00442e-13
-3.09157e-13
-3.11262e-13
-3.17893e-13
-3.15584e-13
-3.1956e-13
-3.23473e-13
-3.32722e-13
-3.38698e-13
-3.36437e-13
-3.32931e-13
-3.30632e-13
-3.35871e-13
-3.29601e-13
-3.31658e-13
-3.21332e-13
-3.15144e-13
-3.17266e-13
-3.1668e-13
-3.23683e-13
-3.21563e-13
-3.20817e-13
-3.08894e-13
-2.982e-13
-3.00051e-13
-3.08328e-13
-3.09268e-13
-2.99447e-13
-3.00302e-13
-2.8921e-13
-2.91454e-13
-2.8707e-13
-2.76935e-13
-2.7141e-13
-2.66819e-13
-2.62096e-13
-2.5803e-13
-2.5967e-13
-2.55187e-13
-2.50426e-13
-2.45316e-13
-2.42873e-13
-2.40618e-13
-2.31376e-13
-2.28289e-13
-2.15948e-13
-2.11744e-13
-2.10028e-13
-2.04625e-13
-1.94218e-13
-1.95982e-13
-1.92694e-13
-1.85882e-13
-1.85285e-13
-1.74274e-13
-1.64676e-13
-1.59214e-13
-1.49388e-13
-1.38362e-13
-1.38616e-13
-1.31781e-13
-1.33418e-13
-1.29379e-13
-1.2119e-13
-1.10709e-13
-1.06039e-13
-1.01736e-13
-9.7146e-14
-8.96833e-14
-8.68284e-14
-9.23008e-14
-8.11358e-14
-7.83765e-14
-7.72624e-14
-6.54679e-14
-5.96163e-14
-4.93827e-14
-4.25692e-14
-3.6041e-14
-2.65523e-14
-2.81309e-14
-2.87268e-14
-2.19358e-14
-1.95972e-14
-2.03316e-14
-8.27142e-15
-3.82049e-16
-2.68101e-13
-2.78001e-13
-2.76763e-13
-2.7765e-13
-2.83373e-13
-2.8529e-13
-2.84053e-13
-2.81549e-13
-2.82121e-13
-2.97532e-13
-3.01275e-13
-2.94971e-13
-3.00413e-13
-2.99656e-13
-3.0412e-13
-3.06465e-13
-3.12144e-13
-3.17921e-13
-3.19879e-13
-3.25306e-13
-3.29466e-13
-3.38001e-13
-3.35369e-13
-3.3197e-13
-3.28525e-13
-3.31618e-13
-3.27242e-13
-3.24696e-13
-3.19161e-13
-3.1731e-13
-3.15086e-13
-3.12103e-13
-3.18034e-13
-3.20103e-13
-3.23132e-13
-3.15116e-13
-2.9836e-13
-2.96052e-13
-3.07718e-13
-3.0725e-13
-2.9997e-13
-2.9717e-13
-2.9206e-13
-2.91243e-13
-2.88333e-13
-2.82368e-13
-2.74972e-13
-2.69755e-13
-2.67864e-13
-2.63689e-13
-2.6066e-13
-2.56394e-13
-2.54031e-13
-2.49737e-13
-2.43636e-13
-2.41921e-13
-2.31479e-13
-2.29703e-13
-2.17129e-13
-2.10341e-13
-2.0816e-13
-2.02499e-13
-2.01608e-13
-1.98565e-13
-1.9158e-13
-1.8727e-13
-1.84932e-13
-1.75993e-13
-1.73195e-13
-1.59906e-13
-1.50957e-13
-1.46366e-13
-1.44885e-13
-1.39298e-13
-1.36464e-13
-1.29915e-13
-1.20638e-13
-1.09528e-13
-1.05307e-13
-1.07664e-13
-1.02191e-13
-9.33115e-14
-8.95552e-14
-9.10337e-14
-8.60741e-14
-8.16662e-14
-7.52083e-14
-6.55956e-14
-5.94144e-14
-4.80051e-14
-3.99602e-14
-4.10108e-14
-3.71311e-14
-3.11003e-14
-3.17396e-14
-2.43998e-14
-1.90982e-14
-9.42574e-15
-3.35869e-15
-3.2259e-16
-2.67308e-13
-2.74473e-13
-2.73399e-13
-2.74493e-13
-2.77807e-13
-2.81648e-13
-2.84035e-13
-2.87241e-13
-2.85415e-13
-2.88391e-13
-2.91489e-13
-2.90785e-13
-3.01033e-13
-3.02596e-13
-3.05192e-13
-3.08542e-13
-3.18361e-13
-3.1498e-13
-3.16867e-13
-3.17308e-13
-3.28533e-13
-3.3628e-13
-3.36883e-13
-3.26956e-13
-3.17064e-13
-3.20613e-13
-3.2804e-13
-3.37006e-13
-3.27455e-13
-3.14592e-13
-3.15179e-13
-3.11266e-13
-3.07905e-13
-3.07375e-13
-3.16638e-13
-3.19155e-13
-3.13567e-13
-3.01804e-13
-3.03159e-13
-3.01509e-13
-2.98796e-13
-2.97227e-13
-2.90016e-13
-2.88736e-13
-2.8833e-13
-2.86111e-13
-2.7648e-13
-2.62861e-13
-2.67625e-13
-2.66822e-13
-2.63736e-13
-2.62718e-13
-2.5798e-13
-2.53816e-13
-2.48566e-13
-2.45128e-13
-2.37468e-13
-2.25176e-13
-2.15359e-13
-2.07095e-13
-1.99673e-13
-2.07222e-13
-2.02927e-13
-1.94594e-13
-1.88433e-13
-1.8903e-13
-1.839e-13
-1.756e-13
-1.80293e-13
-1.66933e-13
-1.58038e-13
-1.42235e-13
-1.42781e-13
-1.36824e-13
-1.38952e-13
-1.39853e-13
-1.21952e-13
-1.12045e-13
-1.06654e-13
-1.0439e-13
-9.88709e-14
-9.44025e-14
-9.64511e-14
-9.54378e-14
-9.19763e-14
-8.59682e-14
-8.19271e-14
-6.73271e-14
-6.00677e-14
-5.50571e-14
-4.80355e-14
-3.91791e-14
-3.51908e-14
-3.47062e-14
-3.16077e-14
-2.1132e-14
-2.06161e-14
-1.68838e-14
-1.24287e-14
-2.83196e-15
-2.70364e-13
-2.69225e-13
-2.69268e-13
-2.71025e-13
-2.74782e-13
-2.79727e-13
-2.82866e-13
-2.8691e-13
-2.86963e-13
-2.86989e-13
-2.88071e-13
-2.90763e-13
-2.99089e-13
-3.03934e-13
-3.02373e-13
-3.08182e-13
-3.11334e-13
-3.01775e-13
-3.14677e-13
-3.24037e-13
-3.35589e-13
-3.3702e-13
-3.31003e-13
-3.25046e-13
-3.24827e-13
-3.24633e-13
-3.28214e-13
-3.25146e-13
-3.1972e-13
-3.15169e-13
-3.10326e-13
-3.12399e-13
-3.18171e-13
-3.13479e-13
-3.16629e-13
-3.13833e-13
-3.09551e-13
-3.03176e-13
-3.06138e-13
-3.04988e-13
-2.98847e-13
-2.94518e-13
-2.93196e-13
-2.90773e-13
-2.82081e-13
-2.82673e-13
-2.81393e-13
-2.75391e-13
-2.66334e-13
-2.61373e-13
-2.72231e-13
-2.63295e-13
-2.5979e-13
-2.50532e-13
-2.51551e-13
-2.53813e-13
-2.4994e-13
-2.26386e-13
-2.08e-13
-2.0409e-13
-2.07604e-13
-2.06367e-13
-1.99542e-13