/*--------------------------------*- C++ -*----------------------------------*\
| =========                 |                                                 |
| \\      /  F ield         | OpenFOAM: The Open Source CFD Toolbox           |
|  \\    /   O peration     | Version:  v2012                                 |
|   \\  /    A nd           | Website:  www.openfoam.com                      |
|    \\/     M anipulation  |                                                 |
\*---------------------------------------------------------------------------*/
FoamFile
{
    version     2.0;
    format      ascii;
    class       volVectorField;
    location    "0";
    object      uRec;
}
// * * * * * * * * * * * * * * * * * * * * * * * * * * * * * * * * * * * * * //

dimensions      [0 1 -1 0 0 0 0];


internalField   nonuniform List<vector> 
4000
(
(1 3.96483e-15 0)
(1 9.5146e-16 0)
(1 -2.44422e-15 0)
(1 1.36407e-15 0)
(1 1.92701e-16 0)
(1 -1.42867e-16 0)
(1 4.88077e-15 0)
(1 -5.23316e-15 0)
(1 9.39073e-15 0)
(1 -1.3702e-15 0)
(1 -8.57195e-15 0)
(1 4.46513e-16 0)
(1 2.03839e-15 0)
(1 1.76711e-15 0)
(1 -3.01376e-15 0)
(1 2.36575e-15 0)
(1 -2.7144e-15 0)
(1 -3.06791e-15 0)
(1 4.99902e-15 0)
(1 3.80365e-15 0)
(1 -1.80962e-15 0)
(1 4.28715e-15 0)
(1 -3.29427e-15 0)
(1 5.59881e-15 0)
(1 -1.13726e-15 0)
(1 -6.96933e-16 0)
(1 2.61046e-15 0)
(1 -5.85553e-15 0)
(1 -8.74193e-16 0)
(1 -3.72875e-15 0)
(1 4.03616e-15 0)
(1 5.1142e-15 0)
(1 -3.58852e-15 0)
(1 -3.29475e-15 0)
(1 -4.26364e-16 0)
(1 -3.34101e-15 0)
(1 -2.75016e-15 0)
(1 3.54003e-15 0)
(1 4.11247e-15 0)
(1 -2.63291e-15 0)
(1 3.19829e-15 0)
(1 -4.9644e-15 0)
(1 -1.62513e-15 0)
(1 3.16277e-15 0)
(1 2.05328e-15 0)
(1 -4.55427e-15 0)
(1 8.01699e-16 0)
(1 -8.71541e-16 0)
(1 1.66661e-15 0)
(1 -1.28346e-15 0)
(1 -1.22664e-15 0)
(1 1.45094e-15 0)
(1 1.63958e-15 0)
(1 7.52195e-15 0)
(1 2.81903e-15 0)
(1 5.15073e-15 0)
(1 6.74005e-16 0)
(1 -4.43479e-16 0)
(1 -1.04547e-15 0)
(1 2.85057e-16 0)
(1 -3.86459e-15 0)
(1 -4.80252e-15 0)
(1 -2.07679e-15 0)
(1 3.32955e-15 0)
(1 1.92379e-15 0)
(1 -4.63911e-17 0)
(1 -1.42615e-15 0)
(1 -2.88813e-15 0)
(1 1.50146e-15 0)
(1 -2.60284e-15 0)
(1 -1.00835e-15 0)
(1 1.61502e-15 0)
(1 -1.55252e-15 0)
(1 -3.71743e-15 0)
(1 -4.85957e-15 0)
(1 -4.2995e-15 0)
(1 -5.61711e-16 0)
(1 1.49449e-16 0)
(1 1.11606e-15 0)
(1 3.17659e-15 0)
(1 1.16134e-15 0)
(1 3.13638e-15 0)
(1 -2.79467e-15 0)
(1 -1.09915e-15 0)
(1 -4.24309e-15 0)
(1 -4.72855e-15 0)
(1 1.4407e-15 0)
(1 3.39437e-15 0)
(1 1.211e-15 0)
(1 1.92321e-15 0)
(1 3.80236e-16 0)
(1 -1.36301e-15 0)
(1 2.80082e-15 0)
(1 3.68563e-15 0)
(1 -1.0942e-15 0)
(1 -2.74393e-15 0)
(1 9.95724e-16 0)
(1 1.86421e-15 0)
(1 -7.61018e-16 0)
(1 -8.49119e-16 0)
(1 2.82601e-15 0)
(1 5.48259e-15 0)
(1 -2.42594e-15 0)
(1 -9.25987e-16 0)
(1 -5.66856e-15 0)
(1 1.06976e-15 0)
(1 4.21708e-15 0)
(1 -4.7424e-15 0)
(1 9.09508e-15 0)
(1 2.46186e-15 0)
(1 -3.03528e-15 0)
(1 -3.37098e-15 0)
(1 -9.31917e-16 0)
(1 -4.16241e-15 0)
(1 -6.73743e-15 0)
(1 6.97403e-15 0)
(1 -7.07685e-16 0)
(1 -1.83153e-15 0)
(1 4.37252e-15 0)
(1 1.83818e-15 0)
(1 -1.87845e-15 0)
(1 7.33528e-16 0)
(1 -4.97463e-15 0)
(1 3.72262e-15 0)
(1 -9.67525e-16 0)
(1 9.99515e-16 0)
(1 6.67798e-15 0)
(1 -1.03388e-14 0)
(1 -1.23944e-15 0)
(1 -7.63402e-16 0)
(1 8.52327e-16 0)
(1 3.10658e-15 0)
(1 -6.29178e-15 0)
(1 -3.30485e-15 0)
(1 2.83793e-15 0)
(1 -3.80989e-15 0)
(1 3.86997e-16 0)
(1 7.30426e-15 0)
(1 -1.2562e-15 0)
(1 -6.23212e-15 0)
(1 -5.27158e-15 0)
(1 -6.39102e-15 0)
(1 -2.71276e-15 0)
(1 6.16404e-16 0)
(1 4.34476e-16 0)
(1 -4.5828e-15 0)
(1 5.58344e-15 0)
(1 5.49534e-15 0)
(1 7.82506e-15 0)
(1 6.32391e-16 0)
(1 7.13722e-16 0)
(1 -3.92033e-15 0)
(1 1.45413e-15 0)
(1 2.75518e-15 0)
(1 3.00747e-15 0)
(1 -2.53259e-16 0)
(1 3.43836e-15 0)
(1 2.65738e-15 0)
(1 2.23373e-15 0)
(1 -5.27839e-15 0)
(1 4.32709e-16 0)
(1 1.31438e-16 0)
(1 -2.80333e-15 0)
(1 1.7065e-15 0)
(1 -1.53922e-15 0)
(1 1.22163e-15 0)
(1 -6.80312e-15 0)
(1 -6.37957e-15 0)
(1 2.61681e-15 0)
(1 -2.017e-15 0)
(1 -2.46518e-15 0)
(1 1.28247e-15 0)
(1 3.20858e-15 0)
(1 -1.69112e-15 0)
(1 -1.4028e-15 0)
(1 -1.49769e-15 0)
(1 2.53017e-15 0)
(1 3.23466e-15 0)
(1 2.9578e-16 0)
(1 6.13886e-15 0)
(1 3.49425e-15 0)
(1 5.31412e-16 0)
(1 8.19735e-16 0)
(1 -4.05943e-15 0)
(1 -3.40595e-15 0)
(1 -6.74835e-15 0)
(1 -1.26462e-15 0)
(1 1.38807e-15 0)
(1 9.57222e-16 0)
(1 3.14441e-15 0)
(1 4.98382e-16 0)
(1 -2.99876e-15 0)
(1 4.35537e-15 0)
(1 4.32958e-15 0)
(1 -6.58684e-15 0)
(1 -2.99251e-15 0)
(1 2.40314e-15 0)
(1 -2.31563e-15 0)
(1 -2.663e-15 0)
(1 -2.09841e-15 0)
(1 -3.23874e-15 0)
(1 9.18542e-15 0)
(1 -5.29506e-15 0)
(1 4.22145e-16 0)
(1 -2.51294e-15 0)
(1 1.45466e-15 0)
(1 4.9636e-15 0)
(1 1.05464e-14 0)
(1 -5.3489e-15 0)
(1 -3.41598e-15 0)
(1 4.98201e-16 0)
(1 2.74472e-15 0)
(1 1.74406e-15 0)
(1 -3.17768e-15 0)
(1 -1.2615e-15 0)
(1 2.47182e-15 0)
(1 3.0149e-15 0)
(1 7.15933e-15 0)
(1 -5.26746e-15 0)
(1 -1.98819e-15 0)
(1 -2.15486e-15 0)
(1 -9.93061e-15 0)
(1 -4.37774e-15 0)
(1 -1.6226e-15 0)
(1 1.26843e-14 0)
(1 7.56305e-15 0)
(1 9.35725e-15 0)
(1 -6.73266e-15 0)
(1 -1.58866e-15 0)
(1 1.35813e-15 0)
(1 -2.37272e-15 0)
(1 -6.71708e-15 0)
(1 -2.63699e-15 0)
(1 -2.68098e-15 0)
(1 -2.91485e-15 0)
(1 -8.82806e-16 0)
(1 -2.51638e-15 0)
(1 6.75303e-15 0)
(1 5.77599e-15 0)
(1 -8.82863e-15 0)
(1 -5.34124e-15 0)
(1 -5.69863e-15 0)
(1 -2.79771e-15 0)
(1 -4.95075e-15 0)
(1 -1.37594e-15 0)
(1 -4.9369e-15 0)
(1 1.39981e-15 0)
(1 7.97477e-15 0)
(1 9.22352e-15 0)
(1 3.48608e-15 0)
(1 7.65931e-15 0)
(1 -1.47583e-15 0)
(1 3.04543e-15 0)
(1 -5.09055e-15 0)
(1 3.02228e-15 0)
(1 -1.42468e-15 0)
(1 4.49349e-15 0)
(1 4.28343e-15 0)
(1 9.70332e-15 0)
(1 -7.97037e-16 0)
(1 -1.8617e-15 0)
(1 2.09457e-15 0)
(1 -1.19279e-15 0)
(1 -6.23272e-15 0)
(1 -5.61646e-15 0)
(1 -2.67311e-15 0)
(1 -5.24477e-15 0)
(1 -1.51711e-15 0)
(1 4.59392e-15 0)
(1 1.04519e-15 0)
(1 1.8326e-15 0)
(1 -2.25877e-15 0)
(1 -2.62524e-15 0)
(1 -5.70652e-15 0)
(1 -2.3546e-16 0)
(1 -2.54694e-15 0)
(1 1.63628e-15 0)
(1 -6.84585e-16 0)
(1 6.78504e-16 0)
(1 -1.41313e-15 0)
(1 -3.46042e-15 0)
(1 4.20839e-16 0)
(1 1.7366e-15 0)
(1 -2.7542e-15 0)
(1 -3.53281e-15 0)
(1 -1.97736e-15 0)
(1 -4.11934e-15 0)
(1 1.01224e-18 0)
(1 -6.03802e-16 0)
(1 4.77744e-15 0)
(1 1.18122e-15 0)
(1 3.8431e-16 0)
(1 -2.74249e-15 0)
(1 1.55684e-15 0)
(1 -4.28773e-15 0)
(1 1.7817e-15 0)
(1 3.1292e-15 0)
(1 -7.2987e-15 0)
(1 -7.48551e-16 0)
(1 -1.65372e-15 0)
(1 -6.86173e-16 0)
(1 3.49143e-15 0)
(1 -2.16303e-15 0)
(1 -5.80064e-15 0)
(1 5.59059e-15 0)
(1 1.07892e-17 0)
(1 6.99178e-15 0)
(1 6.66829e-15 0)
(1 -1.79685e-15 0)
(1 -5.93661e-15 0)
(1 -6.42512e-15 0)
(1 4.97428e-15 0)
(1 -5.03574e-15 0)
(1 4.07206e-15 0)
(1 1.02833e-14 0)
(1 -4.20427e-15 0)
(1 3.65676e-15 0)
(1 8.13371e-16 0)
(1 -8.03346e-15 0)
(1 6.38033e-15 0)
(1 -5.18149e-15 0)
(1 -2.44345e-15 0)
(1 -4.91827e-15 0)
(1 1.15791e-16 0)
(1 1.42978e-14 0)
(1 6.38088e-15 0)
(1 9.02991e-15 0)
(1 -4.32161e-16 0)
(1 2.83171e-15 0)
(1 1.86714e-15 0)
(1 -9.97466e-16 0)
(1 -2.3264e-15 0)
(1 -2.58683e-15 0)
(1 -3.74509e-15 0)
(1 -7.53553e-15 0)
(1 -7.60633e-15 0)
(1 -6.09495e-15 0)
(1 -4.11454e-15 0)
(1 6.8867e-15 0)
(1 -2.15278e-15 0)
(1 2.66679e-15 0)
(1 -5.43308e-15 0)
(1 -7.41273e-15 0)
(1 -1.00241e-15 0)
(1 -2.1375e-17 0)
(1 -4.9329e-17 0)
(1 -1.55664e-15 0)
(1 4.74218e-15 0)
(1 4.54534e-15 0)
(1 5.60243e-15 0)
(1 6.77507e-15 0)
(1 2.58103e-15 0)
(1 1.49548e-15 0)
(1 5.75728e-16 0)
(1 4.51378e-15 0)
(1 3.76129e-15 0)
(1 6.21975e-15 0)
(1 6.93262e-15 0)
(1 6.81941e-15 0)
(1 7.82656e-15 0)
(1 1.67879e-15 0)
(1 -9.00905e-15 0)
(1 -6.20744e-15 0)
(1 -4.33006e-15 0)
(1 -5.68837e-15 0)
(1 -3.10643e-15 0)
(1 -2.9673e-15 0)
(1 4.18662e-15 0)
(1 -1.21731e-15 0)
(1 -1.80175e-15 0)
(1 3.06633e-16 0)
(1 -5.40661e-15 0)
(1 -6.58759e-15 0)
(1 -6.87166e-15 0)
(1 -5.24687e-15 0)
(1 2.02149e-15 0)
(1 5.7332e-15 0)
(1 -1.34159e-15 0)
(1 6.75713e-15 0)
(1 -1.79891e-15 0)
(1 -8.39351e-15 0)
(1 3.00203e-15 0)
(1 -3.37696e-15 0)
(1 -9.64343e-16 0)
(1 -2.36235e-15 0)
(1 -5.5368e-15 0)
(1 1.80724e-15 0)
(1 -1.36924e-15 0)
(1 1.09056e-15 0)
(1 2.59056e-15 0)
(1 -2.09571e-15 0)
(1 3.10917e-15 0)
(1 -5.76693e-16 0)
(1 2.2981e-15 0)
(1 1.44084e-15 0)
(1 -2.51302e-16 0)
(1 9.59175e-16 0)
(1 1.90403e-15 0)
(1 -6.40043e-15 0)
(1 -5.91355e-15 0)
(1 3.64955e-15 0)
(1 -4.21798e-15 0)
(1 5.33099e-15 0)
(1 -4.53144e-15 0)
(1 1.34935e-15 0)
(1 2.45392e-15 0)
(1 -8.27754e-16 0)
(1 -3.2962e-15 0)
(1 6.5359e-15 0)
(1 3.24694e-15 0)
(1 2.05438e-15 0)
(1 6.34804e-15 0)
(1 -2.96398e-15 0)
(1 -2.87024e-15 0)
(1 2.16103e-15 0)
(1 6.45322e-16 0)
(1 7.59579e-15 0)
(1 9.08706e-16 0)
(1 -3.41451e-15 0)
(1 -6.45423e-15 0)
(1 -4.49696e-15 0)
(1 4.47223e-15 0)
(1 1.66744e-15 0)
(1 6.14243e-15 0)
(1 -5.73157e-15 0)
(1 -3.45201e-15 0)
(1 -2.89358e-15 0)
(1 3.84622e-15 0)
(1 1.30761e-15 0)
(1 -1.84456e-15 0)
(1 -3.88996e-15 0)
(1 2.62887e-15 0)
(1 -8.16579e-15 0)
(1 5.71143e-15 0)
(1 -6.74852e-15 0)
(1 -1.05238e-14 0)
(1 -1.47639e-15 0)
(1 -6.91049e-15 0)
(1 6.95793e-16 0)
(1 4.52176e-15 0)
(1 3.78474e-16 0)
(1 -5.20164e-15 0)
(1 -1.09324e-14 0)
(1 -4.67173e-15 0)
(1 -5.885e-15 0)
(1 6.99252e-15 0)
(1 5.21308e-15 0)
(1 8.84359e-15 0)
(1 4.05168e-15 0)
(1 4.32048e-15 0)
(1 -1.54496e-15 0)
(1 -7.47118e-16 0)
(1 -2.31507e-15 0)
(1 3.79467e-15 0)
(1 3.80541e-15 0)
(1 1.81943e-15 0)
(1 1.97957e-15 0)
(1 1.28231e-15 0)
(1 -1.91924e-15 0)
(1 1.54046e-15 0)
(1 7.92477e-15 0)
(1 -4.38311e-15 0)
(1 -1.06313e-15 0)
(1 -2.71842e-15 0)
(1 -3.36524e-16 0)
(1 3.09097e-15 0)
(1 3.83816e-15 0)
(1 5.15583e-15 0)
(1 -6.82296e-15 0)
(1 1.73769e-15 0)
(1 -6.53305e-15 0)
(1 -4.68286e-15 0)
(1 3.375e-15 0)
(1 -1.15534e-15 0)
(1 -2.23601e-15 0)
(1 6.49472e-16 0)
(1 3.38291e-15 0)
(1 1.21937e-15 0)
(1 2.48276e-15 0)
(1 -3.6967e-15 0)
(1 -4.24283e-15 0)
(1 -6.34432e-15 0)
(1 -4.04482e-15 0)
(1 -4.80037e-15 0)
(1 2.34051e-15 0)
(1 -3.39315e-15 0)
(1 1.46642e-15 0)
(1 -2.67266e-15 0)
(1 -1.25152e-15 0)
(1 -1.33434e-15 0)
(1 -6.86387e-16 0)
(1 -2.07491e-16 0)
(1 4.93381e-15 0)
(1 2.2947e-15 0)
(1 6.2743e-15 0)
(1 9.26535e-16 0)
(1 -1.55214e-15 0)
(1 3.15011e-15 0)
(1 -6.38962e-15 0)
(1 -2.06563e-15 0)
(1 4.40236e-16 0)
(1 -6.98032e-15 0)
(1 7.04671e-15 0)
(1 2.91312e-15 0)
(1 8.81442e-17 0)
(1 -5.19518e-16 0)
(1 -4.06482e-15 0)
(1 5.51955e-15 0)
(1 1.29686e-15 0)
(1 4.51082e-15 0)
(1 5.84252e-15 0)
(1 3.99962e-15 0)
(1 7.11394e-16 0)
(1 -2.38755e-15 0)
(1 -6.25098e-16 0)
(1 3.59818e-15 0)
(1 -2.50533e-15 0)
(1 -7.09825e-16 0)
(1 -6.6463e-15 0)
(1 -1.23038e-14 0)
(1 -3.457e-15 0)
(1 -7.38557e-16 0)
(1 1.59506e-14 0)
(1 9.64333e-15 0)
(1 1.66514e-15 0)
(1 3.43368e-15 0)
(1 4.00875e-16 0)
(1 2.29882e-15 0)
(1 -9.87482e-15 0)
(1 -5.74967e-15 0)
(1 -1.07702e-14 0)
(1 -6.57404e-16 0)
(1 -7.18691e-15 0)
(1 5.42416e-15 0)
(1 -5.68249e-15 0)
(1 -1.06799e-15 0)
(1 2.90342e-15 0)
(1 2.20678e-15 0)
(1 -2.22329e-15 0)
(1 1.61129e-15 0)
(1 -5.94639e-16 0)
(1 3.30373e-16 0)
(1 -7.25856e-15 0)
(1 -1.18904e-14 0)
(1 -2.09526e-15 0)
(1 1.66183e-15 0)
(1 1.67924e-15 0)
(1 7.00439e-15 0)
(1 1.029e-14 0)
(1 4.42313e-15 0)
(1 -2.44389e-15 0)
(1 1.11949e-15 0)
(1 4.60566e-15 0)
(1 4.81716e-15 0)
(1 -9.6711e-16 0)
(1 1.97404e-15 0)
(1 2.83125e-15 0)
(1 4.43271e-15 0)
(1 4.645e-15 0)
(1 9.74749e-15 0)
(1 1.04781e-15 0)
(1 -2.83579e-15 0)
(1 -4.96501e-15 0)
(1 -5.16322e-15 0)
(1 2.1845e-15 0)
(1 4.68263e-15 0)
(1 9.98519e-15 0)
(1 3.7196e-15 0)
(1 2.07701e-15 0)
(1 -1.6931e-15 0)
(1 1.89056e-16 0)
(1 -2.2088e-16 0)
(1 5.12512e-15 0)
(1 -2.72253e-15 0)
(1 -2.01967e-15 0)
(1 -3.3439e-15 0)
(1 -4.08215e-16 0)
(1 3.2194e-15 0)
(1 -6.57079e-15 0)
(1 -4.17764e-15 0)
(1 -2.71666e-15 0)
(1 -1.27321e-15 0)
(1 -3.57201e-15 0)
(1 -7.4156e-16 0)
(1 -2.86716e-15 0)
(1 -5.08824e-15 0)
(1 -7.4214e-15 0)
(1 -9.43959e-15 0)
(1 -6.16448e-15 0)
(1 -2.34391e-15 0)
(1 6.58271e-16 0)
(1 8.63657e-16 0)
(1 4.44089e-15 0)
(1 6.20987e-15 0)
(1 9.89169e-15 0)
(1 8.26273e-15 0)
(1 2.02543e-15 0)
(1 -4.11741e-15 0)
(1 4.70979e-15 0)
(1 6.1149e-15 0)
(1 -5.59395e-16 0)
(1 -1.85887e-15 0)
(1 8.40414e-15 0)
(1 -1.83709e-15 0)
(1 1.42325e-15 0)
(1 -6.17083e-15 0)
(1 -1.25427e-15 0)
(1 1.45703e-14 0)
(1 -1.42059e-15 0)
(1 7.25455e-15 0)
(1 7.79519e-16 0)
(1 -2.84706e-15 0)
(1 -3.75801e-15 0)
(1 3.86355e-15 0)
(1 3.01899e-15 0)
(1 7.16735e-15 0)
(1 1.32096e-15 0)
(1 -6.64729e-15 0)
(1 -4.72794e-15 0)
(1 1.66173e-15 0)
(1 -1.3025e-15 0)
(1 -1.34536e-14 0)
(1 5.88933e-15 0)
(1 -1.21828e-14 0)
(1 8.52099e-15 0)
(1 1.10555e-15 0)
(1 2.52676e-15 0)
(1 1.00929e-15 0)
(1 -6.83641e-16 0)
(1 1.41614e-15 0)
(1 -6.96584e-17 0)
(1 -2.76144e-15 0)
(1 1.25231e-15 0)
(1 -6.72004e-15 0)
(1 -3.07348e-15 0)
(1 3.49502e-15 0)
(1 -2.85943e-15 0)
(1 2.22521e-15 0)
(1 -9.06094e-15 0)
(1 3.55841e-15 0)
(1 -4.01082e-15 0)
(1 -5.32262e-16 0)
(1 -1.87224e-15 0)
(1 -4.34187e-15 0)
(1 -1.02725e-15 0)
(1 2.05117e-15 0)
(1 5.76482e-15 0)
(1 9.27111e-16 0)
(1 3.25673e-15 0)
(1 3.87145e-16 0)
(1 -4.83904e-16 0)
(1 1.38524e-15 0)
(1 4.07869e-15 0)
(1 3.6417e-15 0)
(1 -2.065e-15 0)
(1 3.01006e-16 0)
(1 3.58401e-15 0)
(1 6.02224e-15 0)
(1 5.24621e-15 0)
(1 6.53434e-15 0)
(1 -2.65416e-15 0)
(1 1.81843e-15 0)
(1 -3.33504e-15 0)
(1 -1.2142e-15 0)
(1 -2.30924e-15 0)
(1 -3.48838e-15 0)
(1 -1.66761e-15 0)
(1 4.04619e-15 0)
(1 4.00267e-15 0)
(1 -2.29655e-15 0)
(1 7.42283e-15 0)
(1 3.79969e-15 0)
(1 -3.24045e-15 0)
(1 -3.98706e-15 0)
(1 -4.72639e-15 0)
(1 5.28794e-15 0)
(1 -1.87928e-15 0)
(1 5.58455e-15 0)
(1 -1.26416e-15 0)
(1 -1.60827e-15 0)
(1 -1.56056e-15 0)
(1 -1.25329e-15 0)
(1 -2.5592e-16 0)
(1 -1.21991e-15 0)
(1 -2.53542e-15 0)
(1 1.22402e-15 0)
(1 -3.30088e-15 0)
(1 -7.3026e-16 0)
(1 -1.76107e-15 0)
(1 -2.37272e-15 0)
(1 -1.11886e-15 0)
(1 2.80719e-15 0)
(1 7.09291e-15 0)
(1 6.57819e-15 0)
(1 2.58407e-15 0)
(1 7.14916e-15 0)
(1 3.37146e-15 0)
(1 1.42793e-15 0)
(1 5.51487e-15 0)
(1 3.67697e-15 0)
(1 -2.00871e-15 0)
(1 1.5685e-15 0)
(1 -5.33675e-15 0)
(1 2.21368e-15 0)
(1 1.76681e-15 0)
(1 1.39274e-15 0)
(1 -2.44258e-15 0)
(1 3.85499e-15 0)
(1 1.05234e-14 0)
(1 1.22961e-14 0)
(1 4.62212e-15 0)
(1 -8.40888e-15 0)
(1 5.03618e-16 0)
(1 -1.03745e-15 0)
(1 2.81961e-15 0)
(1 6.46945e-15 0)
(1 5.54509e-15 0)
(1 7.65671e-15 0)
(1 4.93266e-16 0)
(1 -4.28534e-15 0)
(1 -2.51807e-15 0)
(1 -1.46361e-14 0)
(1 -2.70129e-17 0)
(1 -7.16454e-15 0)
(1 -9.21634e-15 0)
(1 -1.61304e-14 0)
(1 -1.2153e-14 0)
(1 -4.04165e-15 0)
(1 4.87372e-15 0)
(1 1.15109e-14 0)
(1 1.66539e-14 0)
(1 -6.48505e-17 0)
(1 3.03278e-15 0)
(1 -1.11992e-14 0)
(1 -6.43511e-15 0)
(1 -1.32136e-15 0)
(1 -3.36755e-15 0)
(1 -1.18981e-15 0)
(1 2.14779e-15 0)
(1 7.59824e-15 0)
(1 -1.48031e-15 0)
(1 -4.68638e-15 0)
(1 -1.8481e-15 0)
(1 -8.52495e-15 0)
(1 -6.30033e-15 0)
(1 6.05601e-15 0)
(1 9.95782e-15 0)
(1 4.8474e-15 0)
(1 -6.37908e-15 0)
(1 1.65499e-16 0)
(1 3.93858e-15 0)
(1 2.10027e-15 0)
(1 -3.99914e-15 0)
(1 6.31678e-15 0)
(1 9.92862e-15 0)
(1 1.27232e-14 0)
(1 1.9588e-15 0)
(1 1.62526e-15 0)
(1 -3.13517e-16 0)
(1 -6.09299e-15 0)
(1 -8.58877e-15 0)
(1 5.51063e-15 0)
(1 9.78033e-15 0)
(1 9.69884e-15 0)
(1 2.72966e-15 0)
(1 1.18737e-16 0)
(1 1.78725e-15 0)
(1 -7.97299e-16 0)
(1 3.14845e-15 0)
(1 2.70757e-15 0)
(1 3.58526e-15 0)
(1 1.26695e-15 0)
(1 4.66554e-16 0)
(1 -4.21865e-15 0)
(1 -4.61616e-16 0)
(1 5.67435e-15 0)
(1 -2.02255e-15 0)
(1 -2.47911e-15 0)
(1 -4.95403e-15 0)
(1 -6.4597e-15 0)
(1 -8.69872e-16 0)
(1 -5.15767e-15 0)
(1 8.5321e-16 0)
(1 -1.11562e-15 0)
(1 -6.56859e-15 0)
(1 -8.98698e-16 0)
(1 -1.05436e-15 0)
(1 2.56466e-15 0)
(1 1.79298e-15 0)
(1 -7.32208e-15 0)
(1 -2.49843e-15 0)
(1 1.36732e-15 0)
(1 6.32003e-15 0)
(1 6.39646e-15 0)
(1 4.46e-15 0)
(1 6.76004e-15 0)
(1 2.83769e-16 0)
(1 2.26181e-15 0)
(1 7.29978e-15 0)
(1 8.01214e-15 0)
(1 -2.85588e-15 0)
(1 -1.00576e-15 0)
(1 -8.37211e-15 0)
(1 4.89255e-16 0)
(1 -1.06575e-15 0)
(1 9.73618e-15 0)
(1 1.19061e-15 0)
(1 -6.75224e-15 0)
(1 1.02195e-14 0)
(1 -2.09307e-15 0)
(1 1.58375e-15 0)
(1 -4.42425e-15 0)
(1 5.90492e-16 0)
(1 6.58184e-15 0)
(1 4.13785e-15 0)
(1 7.30696e-15 0)
(1 -1.48349e-16 0)
(1 9.41218e-15 0)
(1 5.51953e-15 0)
(1 -7.80045e-15 0)
(1 -1.33115e-14 0)
(1 -6.4212e-15 0)
(1 -2.34635e-15 0)
(1 4.39133e-15 0)
(1 -6.66392e-15 0)
(1 -1.02164e-14 0)
(1 -4.52309e-15 0)
(1 -8.90956e-15 0)
(1 3.51021e-16 0)
(1 5.34676e-15 0)
(1 6.38089e-15 0)
(1 -2.69513e-15 0)
(1 3.97508e-16 0)
(1 -3.88892e-15 0)
(1 -8.54204e-15 0)
(1 -7.46603e-16 0)
(1 9.64248e-16 0)
(1 4.17548e-15 0)
(1 2.50291e-15 0)
(1 -7.37473e-16 0)
(1 -4.62159e-15 0)
(1 -1.01242e-15 0)
(1 7.25124e-16 0)
(1 -2.43995e-15 0)
(1 7.17799e-15 0)
(1 -3.31389e-15 0)
(1 4.58861e-15 0)
(1 -9.4353e-17 0)
(1 -7.79144e-15 0)
(1 -3.253e-16 0)
(1 8.36072e-16 0)
(1 5.78756e-15 0)
(1 -7.20655e-16 0)
(1 7.65467e-15 0)
(1 1.34388e-14 0)
(1 9.76201e-15 0)
(1 9.22291e-15 0)
(1 -2.22113e-15 0)
(1 7.05233e-15 0)
(1 -2.02713e-16 0)
(1 4.9677e-15 0)
(1 -8.80738e-16 0)
(1 1.17304e-15 0)
(1 8.79367e-15 0)
(1 -1.01522e-14 0)
(1 2.33427e-15 0)
(1 -6.18894e-16 0)
(1 -2.97885e-15 0)
(1 1.43313e-14 0)
(1 8.62847e-15 0)
(1 8.11586e-15 0)
(1 -2.12335e-16 0)
(1 4.00094e-15 0)
(1 -2.34412e-15 0)
(1 -3.43097e-16 0)
(1 3.51522e-15 0)
(1 -2.55291e-15 0)
(1 -1.04871e-15 0)
(1 7.03587e-16 0)
(1 4.11001e-15 0)
(1 1.63824e-15 0)
(1 3.8172e-15 0)
(1 -4.15703e-15 0)
(1 -2.619e-15 0)
(1 -1.06424e-14 0)
(1 -8.25593e-15 0)
(1 -4.55415e-15 0)
(1 -2.78079e-15 0)
(1 -1.69673e-15 0)
(1 -2.51788e-15 0)
(1 -4.18419e-15 0)
(1 1.36851e-15 0)
(1 3.57468e-15 0)
(1 8.35386e-15 0)
(1 1.04249e-14 0)
(1 8.64965e-15 0)
(1 7.05157e-15 0)
(1 7.87407e-15 0)
(1 1.33404e-14 0)
(1 1.35584e-14 0)
(1 4.29876e-16 0)
(1 -2.76233e-16 0)
(1 4.21343e-15 0)
(1 -4.82624e-15 0)
(1 1.75396e-15 0)
(1 -8.53569e-15 0)
(1 5.01353e-15 0)
(1 3.97454e-15 0)
(1 5.2875e-15 0)
(1 4.09151e-16 0)
(1 -1.56718e-15 0)
(1 1.31772e-14 0)
(1 3.04279e-15 0)
(1 6.37867e-15 0)
(1 -2.55947e-16 0)
(1 -4.62312e-15 0)
(1 -6.10872e-15 0)
(1 1.38761e-18 0)
(1 2.09881e-15 0)
(1 6.21912e-15 0)
(1 -4.05153e-15 0)
(1 -3.5921e-15 0)
(1 -2.1487e-14 0)
(1 -4.22016e-15 0)
(1 2.19535e-15 0)
(1 4.31524e-15 0)
(1 -4.22797e-15 0)
(1 3.20226e-16 0)
(1 2.30405e-15 0)
(1 -4.03793e-15 0)
(1 -4.97359e-15 0)
(1 2.37012e-15 0)
(1 2.36251e-16 0)
(1 3.37613e-15 0)
(1 1.22651e-15 0)
(1 -1.75372e-15 0)
(1 -9.59567e-15 0)
(1 2.42246e-16 0)
(1 -8.32168e-15 0)
(1 -1.21864e-14 0)
(1 -5.74917e-15 0)
(1 2.52622e-15 0)
(1 5.34706e-15 0)
(1 5.38019e-15 0)
(1 9.84993e-15 0)
(1 -2.54995e-15 0)
(1 -4.95488e-16 0)
(1 -5.41631e-16 0)
(1 -4.85073e-16 0)
(1 1.52424e-15 0)
(1 -5.42435e-15 0)
(1 -5.76569e-15 0)
(1 5.45241e-15 0)
(1 6.00149e-15 0)
(1 1.34962e-14 0)
(1 7.6615e-15 0)
(1 3.2676e-15 0)
(1 -6.67793e-15 0)
(1 4.75788e-15 0)
(1 5.46461e-15 0)
(1 9.51217e-15 0)
(1 6.44836e-15 0)
(1 -5.01341e-16 0)
(1 3.54599e-15 0)
(1 9.04156e-16 0)
(1 -3.10124e-15 0)
(1 3.89462e-15 0)
(1 3.91676e-15 0)
(1 1.23158e-14 0)
(1 1.08373e-14 0)
(1 1.08695e-14 0)
(1 1.42776e-15 0)
(1 -1.36674e-15 0)
(1 7.10394e-16 0)
(1 8.27337e-16 0)
(1 -1.86355e-15 0)
(1 -1.20825e-15 0)
(1 -2.10582e-15 0)
(1 3.61033e-15 0)
(1 5.94328e-16 0)
(1 2.52099e-15 0)
(1 7.64977e-16 0)
(1 -4.21077e-15 0)
(1 -2.80451e-15 0)
(1 -9.36685e-15 0)
(1 -4.2226e-15 0)
(1 1.7471e-15 0)
(1 1.61488e-16 0)
(1 -5.06154e-15 0)
(1 -1.23464e-15 0)
(1 3.04477e-15 0)
(1 1.92316e-15 0)
(1 2.20339e-15 0)
(1 -7.36283e-16 0)
(1 1.39382e-14 0)
(1 3.44595e-15 0)
(1 9.57139e-15 0)
(1 1.1057e-14 0)
(1 1.25321e-14 0)
(1 1.48427e-14 0)
(1 -7.94825e-16 0)
(1 -5.73736e-16 0)
(1 1.92266e-15 0)
(1 2.62594e-15 0)
(1 -4.31574e-15 0)
(1 -9.79919e-15 0)
(1 5.17059e-15 0)
(1 1.21376e-15 0)
(1 5.43121e-15 0)
(1 1.00012e-14 0)
(1 1.91389e-15 0)
(1 5.52009e-15 0)
(1 -4.54888e-15 0)
(1 -1.09666e-15 0)
(1 -2.76981e-15 0)
(1 -6.50181e-15 0)
(1 2.93792e-15 0)
(1 1.95615e-15 0)
(1 4.41779e-15 0)
(1 1.71821e-15 0)
(1 -6.82158e-15 0)
(1 -8.57451e-15 0)
(1 -1.75371e-14 0)
(1 -3.83837e-15 0)
(1 -9.80708e-15 0)
(1 1.4011e-14 0)
(1 6.38912e-15 0)
(1 1.07932e-14 0)
(1 7.49447e-16 0)
(1 -7.01097e-15 0)
(1 -6.36489e-15 0)
(1 -1.21012e-15 0)
(1 -3.36081e-15 0)
(1 2.14043e-16 0)
(1 9.69303e-16 0)
(1 -8.64605e-15 0)
(1 -3.25032e-15 0)
(1 -7.31753e-15 0)
(1 -9.25055e-15 0)
(1 -6.56255e-15 0)
(1 2.73149e-15 0)
(1 -5.28239e-17 0)
(1 3.14881e-15 0)
(1 -5.70828e-16 0)
(1 2.33822e-15 0)
(1 3.18911e-15 0)
(1 1.89142e-17 0)
(1 2.50975e-16 0)
(1 9.37213e-15 0)
(1 -6.11335e-16 0)
(1 1.7637e-15 0)
(1 1.82144e-15 0)
(1 8.61374e-15 0)
(1 1.07695e-14 0)
(1 1.0001e-14 0)
(1 5.101e-15 0)
(1 3.63568e-15 0)
(1 1.3534e-16 0)
(1 3.48437e-15 0)
(1 -1.21885e-18 0)
(1 5.13314e-15 0)
(1 6.32117e-15 0)
(1 1.92403e-15 0)
(1 1.75969e-15 0)
(1 9.81688e-15 0)
(1 1.14163e-15 0)
(1 1.62518e-15 0)
(1 2.75479e-15 0)
(1 -1.08946e-14 0)
(1 -4.33502e-16 0)
(1 5.67234e-15 0)
(1 1.11285e-14 0)
(1 6.35602e-15 0)
(1 2.30518e-15 0)
(1 -1.31425e-15 0)
(1 -8.76223e-15 0)
(1 7.59787e-15 0)
(1 -4.76906e-15 0)
(1 -7.39076e-15 0)
(1 4.02057e-15 0)
(1 7.5758e-15 0)
(1 3.88462e-15 0)
(1 9.22989e-15 0)
(1 -1.31451e-15 0)
(1 -4.80655e-15 0)
(1 -3.09008e-15 0)
(1 -3.38045e-15 0)
(1 -8.81045e-15 0)
(1 -7.11794e-15 0)
(1 -8.99215e-15 0)
(1 1.17529e-14 0)
(1 -2.565e-16 0)
(1 2.38754e-15 0)
(1 8.95239e-16 0)
(1 9.22272e-15 0)
(1 7.56753e-15 0)
(1 7.75928e-15 0)
(1 8.51267e-15 0)
(1 7.65847e-15 0)
(1 1.10634e-14 0)
(1 -1.12354e-15 0)
(1 9.60411e-16 0)
(1 -1.29883e-15 0)
(1 4.64014e-15 0)
(1 -6.9448e-15 0)
(1 7.30421e-15 0)
(1 -2.60957e-15 0)
(1 1.35055e-15 0)
(1 2.58686e-15 0)
(1 4.085e-15 0)
(1 4.32398e-15 0)
(1 -5.96485e-15 0)
(1 -1.67327e-15 0)
(1 -9.79306e-16 0)
(1 6.27303e-15 0)
(1 -2.48046e-15 0)
(1 -2.23116e-15 0)
(1 -1.02433e-14 0)
(1 8.29003e-15 0)
(1 -7.80069e-15 0)
(1 -6.93786e-15 0)
(1 4.67606e-16 0)
(1 1.83625e-15 0)
(1 -6.24808e-15 0)
(1 -1.57401e-15 0)
(1 9.21311e-16 0)
(1 6.9421e-15 0)
(1 4.4804e-15 0)
(1 4.26375e-15 0)
(1 -4.83716e-15 0)
(1 -1.56951e-15 0)
(1 -1.50273e-15 0)
(1 -9.20869e-15 0)
(1 -7.61138e-15 0)
(1 -8.51953e-15 0)
(1 -5.44154e-15 0)
(1 -3.80285e-15 0)
(1 -8.18295e-15 0)
(1 -3.88881e-16 0)
(1 1.03243e-15 0)
(1 7.0121e-15 0)
(1 8.07208e-16 0)
(1 -5.70999e-15 0)
(1 6.36928e-15 0)
(1 4.10858e-15 0)
(1 -4.25472e-16 0)
(1 3.36887e-15 0)
(1 -8.81301e-15 0)
(1 7.26398e-15 0)
(1 1.46609e-15 0)
(1 4.62958e-15 0)
(1 6.03031e-15 0)
(1 5.62207e-15 0)
(1 7.58846e-15 0)
(1 3.21954e-15 0)
(1 -1.13955e-14 0)
(1 -1.32563e-15 0)
(1 6.28096e-16 0)
(1 3.89123e-15 0)
(1 1.34539e-15 0)
(1 1.07255e-14 0)
(1 1.00869e-14 0)
(1 1.27293e-14 0)
(1 1.32394e-15 0)
(1 3.21441e-15 0)
(1 5.9354e-15 0)
(1 -2.42211e-15 0)
(1 6.3181e-16 0)
(1 -2.78005e-15 0)
(1 -1.62053e-15 0)
(1 6.9202e-15 0)
(1 5.99806e-15 0)
(1 -2.8056e-15 0)
(1 -1.62183e-15 0)
(1 1.65745e-16 0)
(1 -8.63276e-15 0)
(1 2.53569e-16 0)
(1 -3.3358e-16 0)
(1 -3.88172e-15 0)
(1 8.93378e-15 0)
(1 8.01593e-15 0)
(1 2.54666e-15 0)
(1 6.30316e-15 0)
(1 -6.43493e-15 0)
(1 2.42537e-15 0)
(1 1.51098e-15 0)
(1 -8.45392e-15 0)
(1 -5.94789e-15 0)
(1 -2.62124e-15 0)
(1 3.95292e-15 0)
(1 7.22739e-15 0)
(1 -3.05585e-15 0)
(1 -2.11309e-15 0)
(1 2.10621e-15 0)
(1 4.72819e-15 0)
(1 1.22262e-14 0)
(1 9.04999e-15 0)
(1 1.12481e-14 0)
(1 6.32307e-15 0)
(1 4.06357e-15 0)
(1 6.86827e-16 0)
(1 1.00873e-15 0)
(1 -2.59053e-15 0)
(1 -5.81317e-15 0)
(1 4.10195e-15 0)
(1 -1.06248e-15 0)
(1 -2.2356e-15 0)
(1 2.10985e-15 0)
(1 -6.87557e-16 0)
(1 4.24302e-15 0)
(1 4.76743e-15 0)
(1 -3.42405e-15 0)
(1 3.22567e-15 0)
(1 -2.38144e-15 0)
(1 4.14376e-15 0)
(1 -7.35979e-15 0)
(1 -8.74364e-15 0)
(1 -6.43095e-15 0)
(1 7.42979e-15 0)
(1 3.14296e-15 0)
(1 8.79041e-15 0)
(1 8.19983e-15 0)
(1 -7.6828e-15 0)
(1 -1.52902e-14 0)
(1 4.22818e-15 0)
(1 -5.07674e-15 0)
(1 -6.93896e-16 0)
(1 -3.48532e-15 0)
(1 4.86878e-15 0)
(1 8.1375e-16 0)
(1 -6.94172e-15 0)
(1 -4.39074e-15 0)
(1 -1.11305e-14 0)
(1 -1.20614e-14 0)
(1 3.11843e-15 0)
(1 -3.57966e-15 0)
(1 4.68331e-16 0)
(1 -9.6951e-15 0)
(1 2.71928e-16 0)
(1 2.75939e-15 0)
(1 6.25361e-15 0)
(1 4.66643e-15 0)
(1 -6.31493e-15 0)
(1 4.54586e-15 0)
(1 -2.18153e-15 0)
(1 6.85209e-15 0)
(1 4.27642e-15 0)
(1 2.7845e-15 0)
(1 -5.11477e-15 0)
(1 4.36784e-15 0)
(1 5.48962e-15 0)
(1 2.90444e-15 0)
(1 8.16735e-15 0)
(1 7.8128e-15 0)
(1 1.40509e-15 0)
(1 6.13941e-15 0)
(1 6.01367e-16 0)
(1 3.694e-15 0)
(1 -9.62724e-15 0)
(1 -1.02773e-15 0)
(1 -5.38163e-15 0)
(1 1.46266e-15 0)
(1 5.16486e-15 0)
(1 5.47011e-15 0)
(1 9.44035e-15 0)
(1 7.73608e-15 0)
(1 8.18988e-15 0)
(1 4.50231e-15 0)
(1 3.67228e-15 0)
(1 -4.46521e-16 0)
(1 -1.3658e-14 0)
(1 -4.30749e-15 0)
(1 -7.83738e-17 0)
(1 5.35065e-15 0)
(1 4.4426e-15 0)
(1 2.02822e-15 0)
(1 -6.90773e-15 0)
(1 1.84088e-15 0)
(1 6.11519e-15 0)
(1 -2.94431e-15 0)
(1 -2.60577e-15 0)
(1 -3.36189e-15 0)
(1 -1.64693e-15 0)
(1 -8.82867e-18 0)
(1 4.15613e-15 0)
(1 -2.27137e-16 0)
(1 -1.93744e-15 0)
(1 2.54956e-15 0)
(1 2.69784e-15 0)
(1 8.81939e-15 0)
(1 -4.20561e-15 0)
(1 2.65209e-16 0)
(1 6.54628e-17 0)
(1 -1.38378e-15 0)
(1 3.44731e-15 0)
(1 5.73575e-15 0)
(1 1.78877e-15 0)
(1 5.41935e-15 0)
(1 3.2799e-15 0)
(1 9.40117e-16 0)
(1 9.09486e-17 0)
(1 2.05572e-15 0)
(1 -4.60467e-15 0)
(1 -1.64205e-15 0)
(1 2.78171e-15 0)
(1 6.20508e-16 0)
(1 3.17467e-16 0)
(1 -2.84869e-15 0)
(1 -1.589e-15 0)
(1 6.24549e-15 0)
(1 5.40437e-15 0)
(1 4.97717e-15 0)
(1 -2.11771e-15 0)
(1 -5.455e-15 0)
(1 -8.91506e-15 0)
(1 1.87759e-15 0)
(1 -1.61377e-15 0)
(1 5.14297e-15 0)
(1 -1.19599e-14 0)
(1 4.98437e-16 0)
(1 2.63961e-15 0)
(1 7.42602e-15 0)
(1 -4.37445e-15 0)
(1 -3.6039e-15 0)
(1 -4.66208e-15 0)
(1 1.81039e-15 0)
(1 6.35668e-15 0)
(1 -1.50072e-15 0)
(1 8.65755e-15 0)
(1 -3.92114e-16 0)
(1 -1.60821e-15 0)
(1 -1.48305e-14 0)
(1 -6.93919e-15 0)
(1 -6.34618e-15 0)
(1 -1.00089e-14 0)
(1 -6.46291e-15 0)
(1 3.98425e-15 0)
(1 -5.86882e-15 0)
(1 4.7062e-15 0)
(1 -3.381e-15 0)
(1 -3.54786e-15 0)
(1 -1.4142e-15 0)
(1 1.40609e-14 0)
(1 8.28478e-15 0)
(1 2.08014e-15 0)
(1 1.03854e-14 0)
(1 -3.89493e-15 0)
(1 1.19373e-14 0)
(1 -7.63994e-15 0)
(1 -2.33916e-15 0)
(1 -9.93983e-15 0)
(1 -2.52605e-15 0)
(1 7.08709e-15 0)
(1 9.60037e-15 0)
(1 -6.93646e-16 0)
(1 1.59512e-14 0)
(1 5.74626e-15 0)
(1 4.46793e-15 0)
(1 -2.30074e-15 0)
(1 7.93347e-16 0)
(1 -1.16509e-15 0)
(1 -3.89629e-15 0)
(1 -2.89394e-15 0)
(1 1.12217e-14 0)
(1 1.18988e-15 0)
(1 5.65144e-15 0)
(1 8.47468e-15 0)
(1 5.94975e-15 0)
(1 -5.63162e-16 0)
(1 7.47146e-17 0)
(1 -8.70075e-15 0)
(1 9.02289e-15 0)
(1 7.15303e-15 0)
(1 6.29089e-15 0)
(1 1.4417e-15 0)
(1 9.19981e-15 0)
(1 -1.35975e-15 0)
(1 3.90795e-15 0)
(1 1.375e-15 0)
(1 -9.47029e-15 0)
(1 -2.286e-16 0)
(1 1.43866e-15 0)
(1 -6.03399e-15 0)
(1 3.83725e-15 0)
(1 2.05323e-15 0)
(1 -1.94908e-15 0)
(1 -1.47969e-15 0)
(1 3.47149e-15 0)
(1 2.82309e-15 0)
(1 3.28579e-15 0)
(1 -2.53288e-16 0)
(1 1.66288e-15 0)
(1 2.01265e-15 0)
(1 6.42246e-15 0)
(1 2.64654e-17 0)
(1 5.32754e-15 0)
(1 1.44626e-15 0)
(1 7.15584e-15 0)
(1 1.42031e-15 0)
(1 -1.15825e-15 0)
(1 -5.86443e-16 0)
(1 2.42291e-15 0)
(1 -2.9813e-16 0)
(1 1.13558e-15 0)
(1 -2.54132e-15 0)
(1 4.40173e-15 0)
(1 -5.19639e-15 0)
(1 -2.25142e-15 0)
(1 4.85548e-15 0)
(1 -3.93498e-15 0)
(1 1.05175e-14 0)
(1 6.88402e-15 0)
(1 2.22554e-15 0)
(1 -1.34963e-14 0)
(1 -1.34794e-14 0)
(1 1.27129e-15 0)
(1 -8.37665e-15 0)
(1 6.13706e-15 0)
(1 -1.46375e-14 0)
(1 6.77234e-15 0)
(1 8.78461e-15 0)
(1 7.69109e-16 0)
(1 5.78076e-15 0)
(1 -3.00998e-15 0)
(1 -9.32079e-15 0)
(1 -9.23278e-15 0)
(1 -4.84868e-15 0)
(1 1.04849e-15 0)
(1 3.40173e-15 0)
(1 -1.46965e-15 0)
(1 -2.8021e-15 0)
(1 -3.38395e-15 0)
(1 -6.39951e-16 0)
(1 -2.19804e-15 0)
(1 -7.49114e-15 0)
(1 8.34131e-16 0)
(1 -8.56101e-15 0)
(1 -1.07281e-15 0)
(1 4.39997e-15 0)
(1 -4.72697e-15 0)
(1 -6.34562e-15 0)
(1 -1.38e-15 0)
(1 1.54546e-14 0)
(1 4.34837e-15 0)
(1 9.32727e-15 0)
(1 2.61249e-15 0)
(1 -9.91569e-15 0)
(1 3.6317e-15 0)
(1 -4.66591e-15 0)
(1 -6.79306e-15 0)
(1 -5.29881e-15 0)
(1 2.1353e-15 0)
(1 9.23524e-15 0)
(1 8.87455e-15 0)
(1 1.27367e-14 0)
(1 8.82459e-15 0)
(1 1.66075e-15 0)
(1 7.33853e-15 0)
(1 3.91712e-15 0)
(1 -9.83468e-16 0)
(1 5.53081e-15 0)
(1 -2.38967e-15 0)
(1 7.95039e-15 0)
(1 1.47641e-15 0)
(1 6.72722e-15 0)
(1 7.92992e-15 0)
(1 1.00155e-14 0)
(1 4.36048e-15 0)
(1 5.45033e-15 0)
(1 3.88012e-15 0)
(1 9.83892e-15 0)
(1 2.36395e-15 0)
(1 -1.49736e-15 0)
(1 2.0203e-15 0)
(1 -4.98472e-16 0)
(1 2.74939e-15 0)
(1 1.38522e-15 0)
(1 5.91287e-15 0)
(1 -1.65788e-15 0)
(1 -7.07997e-15 0)
(1 1.49262e-15 0)
(1 1.25088e-15 0)
(1 -4.27162e-15 0)
(1 7.0322e-16 0)
(1 -2.56418e-15 0)
(1 5.40926e-17 0)
(1 -2.52353e-15 0)
(1 5.05252e-15 0)
(1 1.1958e-15 0)
(1 -4.15714e-15 0)
(1 -2.03721e-16 0)
(1 -1.48907e-15 0)
(1 1.11422e-15 0)
(1 6.46494e-15 0)
(1 3.93669e-15 0)
(1 2.08347e-15 0)
(1 -3.7301e-15 0)
(1 3.09171e-15 0)
(1 7.56548e-15 0)
(1 6.18279e-15 0)
(1 -1.67114e-15 0)
(1 1.62821e-15 0)
(1 1.39147e-15 0)
(1 -6.70666e-16 0)
(1 4.10866e-15 0)
(1 3.994e-15 0)
(1 5.18183e-15 0)
(1 2.07536e-15 0)
(1 4.4497e-15 0)
(1 -5.96095e-15 0)
(1 -3.20093e-15 0)
(1 -3.18805e-15 0)
(1 -3.79734e-16 0)
(1 -2.52414e-15 0)
(1 -8.39825e-15 0)
(1 -4.88511e-15 0)
(1 -9.20236e-15 0)
(1 -4.49722e-16 0)
(1 8.8592e-15 0)
(1 -1.84057e-15 0)
(1 -2.18835e-15 0)
(1 -7.65834e-15 0)
(1 7.54816e-15 0)
(1 1.44717e-15 0)
(1 -5.60966e-15 0)
(1 -3.43238e-15 0)
(1 1.07868e-15 0)
(1 6.32037e-15 0)
(1 -8.16976e-15 0)
(1 2.45115e-17 0)
(1 -9.84097e-15 0)
(1 2.71926e-15 0)
(1 -3.07976e-15 0)
(1 -5.21968e-15 0)
(1 -2.493e-15 0)
(1 -4.41572e-15 0)
(1 -6.77805e-15 0)
(1 -1.85084e-15 0)
(1 -1.51886e-15 0)
(1 4.0029e-15 0)
(1 4.53406e-15 0)
(1 3.17606e-15 0)
(1 -2.19329e-15 0)
(1 5.0975e-15 0)
(1 6.28661e-15 0)
(1 2.73585e-15 0)
(1 1.24285e-15 0)
(1 -4.04553e-15 0)
(1 -8.87152e-15 0)
(1 -1.52347e-14 0)
(1 6.01777e-15 0)
(1 1.5271e-14 0)
(1 1.12537e-14 0)
(1 6.00448e-15 0)
(1 1.35679e-14 0)
(1 6.30212e-15 0)
(1 1.21643e-15 0)
(1 5.4577e-15 0)
(1 1.17777e-15 0)
(1 -3.21903e-15 0)
(1 -6.5421e-15 0)
(1 6.35434e-16 0)
(1 1.77513e-15 0)
(1 -6.23391e-15 0)
(1 1.34201e-14 0)
(1 2.442e-15 0)
(1 3.62234e-15 0)
(1 2.05795e-15 0)
(1 5.15729e-15 0)
(1 5.24612e-15 0)
(1 2.17053e-15 0)
(1 -5.06014e-15 0)
(1 -4.92286e-16 0)
(1 6.35857e-15 0)
(1 1.52546e-16 0)
(1 1.62312e-15 0)
(1 6.63249e-16 0)
(1 1.6422e-15 0)
(1 5.06953e-16 0)
(1 2.41815e-15 0)
(1 -5.59419e-15 0)
(1 -5.1035e-15 0)
(1 2.59082e-15 0)
(1 7.48308e-16 0)
(1 6.48174e-16 0)
(1 4.69063e-16 0)
(1 6.50647e-16 0)