/*--------------------------------*- C++ -*----------------------------------*\
| =========                 |                                                 |
| \\      /  F ield         | OpenFOAM: The Open Source CFD Toolbox           |
|  \\    /   O peration     | Version:  v2012                                 |
|   \\  /    A nd           | Website:  www.openfoam.com                      |
|    \\/     M anipulation  |                                                 |
\*---------------------------------------------------------------------------*/
FoamFile
{
    version     2.0;
    format      ascii;
    class       volScalarField;
    location    "0";
    object      p;
}
// * * * * * * * * * * * * * * * * * * * * * * * * * * * * * * * * * * * * * //

dimensions      [0 2 -2 0 0 0 0];


internalField   nonuniform List<scalar> 
4000
(
1.74884e-13
1.65602e-13
1.68051e-13
1.69512e-13
1.64178e-13
1.69577e-13
1.65104e-13
1.59551e-13
1.56816e-13
1.48828e-13
1.3966e-13
1.46339e-13
1.35661e-13
1.22672e-13
1.18193e-13
1.2188e-13
1.16532e-13
1.17081e-13
1.07464e-13
1.07279e-13
1.01133e-13
9.76225e-14
9.14223e-14
8.73373e-14
8.54441e-14
7.52791e-14
6.58084e-14
6.449e-14
6.15241e-14
5.29103e-14
4.872e-14
4.65532e-14
5.08256e-14
5.75287e-14
5.49513e-14
5.50256e-14
4.59618e-14
3.09326e-14
1.98526e-14
2.98565e-14
3.67218e-14
3.33209e-14
4.53338e-14
4.52278e-14
4.36091e-14
4.0731e-14
4.55314e-14
3.55798e-14
3.47931e-14
3.34873e-14
3.25305e-14
3.69484e-14
3.22684e-14
3.07796e-14
2.97399e-14
2.94157e-14
2.78253e-14
3.76778e-14
4.23532e-14
4.30976e-14
4.15898e-14
4.87195e-14
4.25083e-14
4.19226e-14
3.69524e-14
3.9579e-14
3.79568e-14
4.32514e-14
3.86432e-14
3.57769e-14
4.25778e-14
4.23508e-14
4.47916e-14
4.14693e-14
3.29546e-14
3.54936e-14
4.5185e-14
3.9012e-14
3.14815e-14
3.40595e-14
1.90756e-14
6.46884e-15
1.3588e-14
1.44569e-14
1.15733e-14
1.14719e-14
7.40527e-15
1.02136e-14
1.98363e-14
1.51141e-14
1.8722e-14
1.91963e-14
1.91091e-14
1.67308e-14
1.1403e-14
1.91277e-14
1.28696e-14
1.37093e-14
1.10664e-14
4.03499e-15
1.68315e-13
1.67588e-13
1.68193e-13
1.72812e-13
1.68618e-13
1.65623e-13
1.63227e-13
1.62526e-13
1.55586e-13
1.47267e-13
1.41622e-13
1.42118e-13
1.32692e-13
1.26979e-13
1.24377e-13
1.19919e-13
1.19903e-13
1.16512e-13
1.11343e-13
1.06178e-13
1.00296e-13
9.42617e-14
9.13688e-14
8.70301e-14
8.24274e-14
7.91563e-14
6.28508e-14
6.25936e-14
5.86568e-14
5.40906e-14
5.22827e-14
4.75312e-14
4.94553e-14
5.12859e-14
5.44569e-14
5.01879e-14
4.34018e-14
3.90657e-14
3.0069e-14
3.2145e-14
3.70161e-14
3.45663e-14
3.70944e-14
4.1819e-14
4.66103e-14
3.80456e-14
4.22816e-14
3.69267e-14
3.34597e-14
3.35987e-14
3.26245e-14
3.36699e-14
3.46109e-14
3.10519e-14
2.71277e-14
3.01444e-14
3.2896e-14
3.27858e-14
4.37391e-14
4.23236e-14
4.51442e-14
4.93758e-14
4.48093e-14
4.30659e-14
3.68329e-14
3.78384e-14
3.71899e-14
4.09097e-14
3.70815e-14
4.04193e-14
4.39342e-14
4.46029e-14
4.51051e-14
4.33591e-14
4.12562e-14
3.26047e-14
4.09829e-14
3.9896e-14
2.75728e-14
2.79672e-14
1.9515e-14
9.80947e-15
1.59582e-14
1.04369e-14
9.77233e-15
1.48928e-14
7.47243e-15
7.97576e-15
1.53299e-14
1.66397e-14
1.94496e-14
1.85279e-14
2.03763e-14
1.94022e-14
1.58233e-14
1.56809e-14
1.05561e-14
1.72731e-14
1.18194e-14
4.57851e-15
1.69883e-13
1.67986e-13
1.68265e-13
1.7553e-13
1.69423e-13
1.67676e-13
1.63467e-13
1.55491e-13
1.47389e-13
1.50548e-13
1.5201e-13
1.42382e-13
1.34786e-13
1.23978e-13
1.25176e-13
1.21513e-13
1.19513e-13
1.14841e-13
1.14302e-13
1.10288e-13
1.03217e-13
8.97877e-14
9.10575e-14
9.00299e-14
8.06733e-14
7.34829e-14
6.68498e-14
6.29222e-14
6.10422e-14
5.59282e-14
5.03045e-14
5.19116e-14
4.94231e-14
5.54955e-14
5.28124e-14
4.55212e-14
4.23664e-14
4.21772e-14
3.45799e-14
3.13779e-14
3.61349e-14
3.28287e-14
3.78376e-14
4.44753e-14
4.78796e-14
3.95e-14
3.90763e-14
3.22554e-14
3.49257e-14
3.90914e-14
3.25897e-14
3.19085e-14
3.04875e-14
3.00788e-14
3.15144e-14
3.50342e-14
3.56293e-14
3.74478e-14
4.39328e-14
4.48503e-14
4.08603e-14
4.22638e-14
4.57136e-14
4.04364e-14
3.98509e-14
4.10245e-14
4.26044e-14
3.60984e-14
3.90588e-14
3.70702e-14
3.59759e-14
4.30047e-14
4.37116e-14
4.53565e-14
4.80821e-14
3.42099e-14
3.74525e-14
3.99518e-14
2.9534e-14
2.76596e-14
2.1971e-14
1.35873e-14
1.02782e-14
9.61732e-15
1.3559e-14
1.67943e-14
1.37034e-14
9.83117e-15
1.63742e-14
1.01374e-14
1.22449e-14
1.88531e-14
1.91876e-14
2.12085e-14
1.82126e-14
1.38814e-14
1.15033e-14
1.47981e-14
1.42697e-14
6.13948e-15
1.6861e-13
1.68908e-13
1.68766e-13
1.65821e-13
1.71159e-13
1.62655e-13
1.59345e-13
1.55491e-13
1.54429e-13
1.52823e-13
1.45656e-13
1.36959e-13
1.35665e-13
1.29033e-13
1.32743e-13
1.22152e-13
1.1847e-13
1.1756e-13
1.08453e-13
1.11594e-13
1.02748e-13
9.07234e-14
8.74111e-14
8.7853e-14
8.05848e-14
7.02789e-14
6.45557e-14
6.50142e-14
6.79473e-14
6.18777e-14
5.81698e-14
5.24153e-14
5.38748e-14
5.14946e-14
4.11584e-14
4.40756e-14
4.47399e-14
3.981e-14
3.70349e-14
2.96055e-14
4.05965e-14
3.72263e-14
3.57229e-14
3.72358e-14
3.83877e-14
3.7767e-14
3.8525e-14
3.80482e-14
3.67807e-14
3.71988e-14
2.79454e-14
2.54553e-14
2.68926e-14
3.56565e-14
3.44843e-14
3.87382e-14
3.52718e-14
3.50706e-14
4.16824e-14
4.60135e-14
4.70931e-14
4.64724e-14
4.85486e-14
4.03937e-14
4.10839e-14
4.30177e-14
3.96819e-14
3.87002e-14
3.86534e-14
3.86352e-14
4.46695e-14
4.78194e-14
4.91964e-14
4.38719e-14
4.19318e-14
3.18107e-14
3.64257e-14
3.79704e-14
3.40306e-14
2.73888e-14
1.66318e-14
1.51832e-14
1.4249e-14
1.43296e-14
1.48427e-14
1.33487e-14
1.10444e-14
1.26607e-14
1.23755e-14
8.12422e-15
1.54043e-14
1.89719e-14
1.86957e-14
2.2465e-14
1.65371e-14
1.56734e-14
1.44981e-14
9.91859e-15
1.28338e-14
6.05332e-15
1.71046e-13
1.72342e-13
1.67841e-13
1.6308e-13
1.635e-13
1.64036e-13
1.56369e-13
1.56123e-13
1.52019e-13
1.51623e-13
1.45558e-13
1.35971e-13
1.3388e-13
1.29292e-13
1.33332e-13
1.23067e-13
1.21153e-13
1.2043e-13
1.08849e-13
1.01745e-13
1.02596e-13
9.11729e-14
7.77368e-14
8.23314e-14
8.19392e-14
8.55799e-14
7.33721e-14
6.46884e-14
6.73873e-14
6.4229e-14
6.22402e-14
5.34094e-14
5.7299e-14
4.89135e-14
4.51816e-14
4.13658e-14
3.54825e-14
3.57041e-14
4.25668e-14
3.74162e-14
3.65347e-14
3.99101e-14
3.5687e-14
3.33875e-14
3.51837e-14
3.60943e-14
3.57701e-14
3.61119e-14
3.44057e-14
3.88325e-14
2.86345e-14
2.80704e-14
2.92587e-14
3.42878e-14
3.63559e-14
3.46717e-14
3.76631e-14
3.71165e-14
4.64221e-14
4.51369e-14
4.87023e-14
4.43032e-14
4.34281e-14
4.02008e-14
4.46019e-14
4.50086e-14
4.42465e-14
4.06575e-14
4.04551e-14
3.69525e-14
4.04307e-14
4.82924e-14
4.94618e-14
4.14113e-14
3.65691e-14
3.20628e-14
3.60055e-14
3.60601e-14
3.33359e-14
2.89381e-14
2.4646e-14
1.7415e-14
1.42331e-14
1.42676e-14
1.33546e-14
7.34564e-15
1.0581e-14
1.24414e-14
1.49191e-14
1.77184e-14
1.61098e-14
1.44413e-14
1.5723e-14
2.19098e-14
2.24286e-14
1.67151e-14
1.39523e-14
9.82492e-15
1.16607e-14
1.09078e-15
1.65035e-13
1.73727e-13
1.67342e-13
1.54628e-13
1.70237e-13
1.70133e-13
1.60053e-13
1.5495e-13
1.49933e-13
1.46701e-13
1.42071e-13
1.40726e-13
1.37404e-13
1.32636e-13
1.28264e-13
1.32301e-13
1.23424e-13
1.17697e-13
1.16308e-13
1.12757e-13
9.63183e-14
8.8432e-14
7.1625e-14
7.61174e-14
8.02604e-14
8.15831e-14
7.34075e-14
6.93048e-14
6.88778e-14
6.71481e-14
6.20156e-14
5.71407e-14
5.49841e-14
5.0287e-14
5.61758e-14
4.48049e-14
3.86442e-14
3.25066e-14
3.9025e-14
3.5307e-14
3.55212e-14
3.98719e-14
3.70743e-14
3.68526e-14
3.82331e-14
3.32158e-14
3.24756e-14
3.4833e-14
3.31084e-14
3.41693e-14
3.08326e-14
3.3772e-14
3.38493e-14
3.32814e-14
3.44802e-14
3.04967e-14
3.75621e-14
3.86782e-14
4.55132e-14
4.93333e-14
5.35156e-14
4.85363e-14
4.17558e-14
4.08594e-14
4.09406e-14
4.14829e-14
4.44084e-14
4.34405e-14
4.06263e-14
4.13858e-14
4.33983e-14
4.45109e-14
4.57857e-14
4.458e-14
3.78683e-14
3.89504e-14
4.39583e-14
3.08869e-14
2.38649e-14
2.82796e-14
2.9347e-14
2.02799e-14
1.32668e-14
8.62943e-15
1.12581e-14
1.11651e-14
1.0851e-14
9.83722e-15
1.51845e-14
1.5827e-14
1.44047e-14
1.51258e-14
1.18803e-14
1.81254e-14
2.08054e-14
1.9432e-14
1.61989e-14
6.33477e-15
6.9979e-15
3.17375e-15
1.69787e-13
1.71596e-13
1.67464e-13
1.64083e-13
1.63932e-13
1.62493e-13
1.63523e-13
1.5521e-13
1.47369e-13
1.42952e-13
1.41416e-13
1.40696e-13
1.348e-13
1.34589e-13
1.30844e-13
1.36261e-13
1.30011e-13
1.26955e-13
1.11856e-13
9.98741e-14
8.38339e-14
8.3182e-14
8.46964e-14
8.1918e-14
8.91519e-14
8.70806e-14
7.5424e-14
6.74528e-14
6.98225e-14
6.83432e-14
6.15914e-14
5.78557e-14
5.67584e-14
4.21743e-14
5.1276e-14
4.57161e-14
3.87125e-14
3.6315e-14
4.33256e-14
3.77966e-14
2.87473e-14
3.28992e-14
3.5582e-14
4.02938e-14
4.03217e-14
3.37305e-14
3.28365e-14
3.4891e-14
3.21819e-14
3.19228e-14
2.73613e-14
3.12667e-14
3.55561e-14
4.19934e-14
3.74083e-14
2.92532e-14
3.28291e-14
3.68682e-14
4.78591e-14
5.0746e-14
5.57579e-14
4.91004e-14
4.15191e-14
4.27032e-14
4.11193e-14
4.01498e-14
3.93462e-14
3.21653e-14
3.87293e-14
3.74165e-14
4.74733e-14
4.83363e-14
5.01204e-14
4.49094e-14
4.1388e-14
4.04887e-14
3.54608e-14
2.93586e-14
2.57527e-14
2.86747e-14
2.84395e-14
2.26244e-14
1.7618e-14
1.01501e-14
1.43957e-14
8.98121e-15
1.34796e-14
1.30548e-14
1.60024e-14
1.69705e-14
1.44687e-14
1.18412e-14
1.20705e-14
1.40467e-14
1.89768e-14
1.77679e-14
1.69438e-14
8.44104e-15
8.08098e-15
2.74187e-15
1.61941e-13
1.65338e-13
1.63051e-13
1.64397e-13
1.6686e-13
1.67278e-13
1.65568e-13
1.56053e-13
1.46681e-13
1.48646e-13
1.44696e-13
1.39925e-13
1.32866e-13
1.348e-13
1.29519e-13
1.37202e-13
1.31318e-13
1.2703e-13
1.09401e-13
9.81081e-14
9.32427e-14
9.44397e-14
8.66572e-14
7.63487e-14
7.59138e-14
8.16364e-14
7.74154e-14
7.38391e-14
6.84221e-14
6.16714e-14
6.41211e-14
6.10121e-14
5.75912e-14
4.85642e-14
5.01636e-14
4.71317e-14
3.97465e-14
3.66124e-14
3.36395e-14
2.54643e-14
2.83852e-14
3.84006e-14
4.35467e-14
4.01622e-14
4.07994e-14
3.85126e-14
3.27046e-14
2.93427e-14
2.41577e-14
3.27825e-14
3.88221e-14
3.95784e-14
3.23224e-14
3.6093e-14
3.24029e-14
2.96519e-14
3.44771e-14
3.93728e-14
5.01203e-14
5.19511e-14
5.0441e-14
4.88884e-14
4.29529e-14
4.78229e-14
4.71323e-14
4.4232e-14
3.55654e-14
3.62168e-14
4.16323e-14
4.19596e-14
4.45964e-14
4.96254e-14
4.76895e-14
3.99962e-14
3.59168e-14
4.00796e-14
3.91557e-14
2.80302e-14
2.83354e-14
2.74058e-14
3.29609e-14
2.51456e-14
1.61123e-14
6.32424e-15
6.88104e-15
1.0629e-14
1.62889e-14
1.50673e-14
1.98813e-14
1.83193e-14
1.65173e-14
9.12205e-15
1.53323e-14
1.86011e-14
1.89376e-14
1.51747e-14
1.39444e-14
1.11418e-14
7.50813e-15
-1.49483e-15
1.63864e-13
1.696e-13
1.65773e-13
1.59767e-13
1.64332e-13
1.68225e-13
1.62182e-13
1.53666e-13
1.46956e-13
1.50403e-13
1.45685e-13
1.37173e-13
1.32018e-13
1.32959e-13
1.36861e-13
1.33147e-13
1.32387e-13
1.29148e-13
1.11226e-13
9.79591e-14
9.21188e-14
8.66463e-14
8.83408e-14
8.68631e-14
8.54798e-14
7.8462e-14
7.72741e-14
7.22796e-14
6.83276e-14
6.743e-14
6.31965e-14
6.24733e-14
5.33199e-14
4.55943e-14
4.46199e-14
4.05951e-14
4.29569e-14
3.64056e-14
3.16385e-14
3.16597e-14
4.03796e-14
3.75672e-14
3.54208e-14
3.59972e-14
3.5266e-14
3.58756e-14
3.43425e-14
2.95562e-14
2.84702e-14
3.48348e-14
3.57157e-14
3.8036e-14
3.30435e-14
3.23693e-14
3.36595e-14
3.99706e-14
4.32124e-14
4.13409e-14
4.85901e-14
4.81476e-14
4.67841e-14
4.68262e-14
4.40401e-14
4.64004e-14
4.48425e-14
4.26855e-14
3.69774e-14
3.79367e-14
4.23703e-14
4.36417e-14
4.30812e-14
5.34553e-14
5.13771e-14
4.68625e-14
3.87621e-14
3.971e-14
3.78508e-14
2.92091e-14
2.83834e-14
2.93703e-14
3.44495e-14
2.43284e-14
1.85146e-14
1.2076e-14
1.1906e-14
1.24812e-14
1.8413e-14
1.73706e-14
1.88852e-14
1.76038e-14
1.68187e-14
1.23461e-14
1.03371e-14
1.58557e-14
1.38843e-14
1.75627e-14
1.30971e-14
6.64363e-15
4.2935e-15
-4.49994e-15
1.66542e-13
1.6789e-13
1.66165e-13
1.63698e-13
1.6314e-13
1.6425e-13
1.61939e-13
1.574e-13
1.53242e-13
1.51595e-13
1.4132e-13
1.34411e-13
1.35435e-13
1.4037e-13
1.42363e-13
1.33972e-13
1.26413e-13
1.28137e-13
1.21035e-13
1.00638e-13
9.02221e-14
7.97844e-14
8.17063e-14
8.67926e-14
8.73526e-14
8.31782e-14
8.30981e-14
7.39054e-14
7.13827e-14
6.74465e-14
6.5557e-14
5.92021e-14
5.23437e-14
4.1594e-14
3.73772e-14
3.95488e-14
4.60541e-14
4.12249e-14
3.06299e-14
2.73283e-14
3.54885e-14
3.06946e-14
3.31782e-14
3.42369e-14
3.22092e-14
4.32168e-14
3.50103e-14
2.96882e-14
2.78468e-14
3.57762e-14
3.44135e-14
3.60721e-14
4.2414e-14
3.55382e-14
2.64509e-14
3.39654e-14
3.93647e-14
4.20991e-14
4.94141e-14
5.21988e-14
5.52822e-14
5.54466e-14
5.11125e-14
4.66205e-14
4.17946e-14
3.48282e-14
3.13282e-14
3.50465e-14
4.01642e-14
4.3953e-14
5.33088e-14
5.78826e-14
5.24093e-14
4.86997e-14
4.31209e-14
3.88177e-14
3.62229e-14
2.73327e-14
3.07831e-14
2.61814e-14
3.36069e-14
2.64892e-14
2.30575e-14
1.43192e-14
1.18122e-14
1.19475e-14
1.61365e-14
1.84731e-14
2.14019e-14
1.47911e-14
1.49246e-14
1.07893e-14
1.11684e-14
8.89733e-15
8.62757e-15
9.01981e-15
6.00957e-15
4.40055e-15
9.50574e-16
-5.53985e-15
1.64615e-13
1.65016e-13
1.66539e-13
1.67508e-13
1.68563e-13
1.65777e-13
1.64444e-13
1.53497e-13
1.51637e-13
1.55761e-13
1.46386e-13
1.35931e-13
1.38969e-13
1.41209e-13
1.33813e-13
1.40178e-13
1.30683e-13
1.24413e-13
1.14337e-13
1.10085e-13
1.01139e-13
8.19926e-14
7.70456e-14
8.37096e-14
9.09614e-14
8.04497e-14
8.05051e-14
7.52259e-14
7.57418e-14
6.67004e-14
6.21347e-14
5.45988e-14
5.13517e-14
4.84413e-14
4.75902e-14
3.9539e-14
4.03134e-14
3.53489e-14
3.10136e-14
2.62435e-14
3.67814e-14
2.90268e-14
3.34144e-14
3.36488e-14
3.11568e-14
4.59839e-14
3.59666e-14
2.2442e-14
2.65502e-14
3.40144e-14
3.77463e-14
3.82695e-14
3.31797e-14
3.49912e-14
3.02826e-14
3.83341e-14
4.50235e-14
4.54466e-14
4.62897e-14
4.84427e-14
5.28119e-14
4.79468e-14
5.01104e-14
4.81262e-14
4.55023e-14
3.48954e-14
3.10414e-14
3.42737e-14
4.05604e-14
4.95578e-14
5.02695e-14
5.95004e-14
5.47869e-14
5.52173e-14
4.0553e-14
3.46204e-14
3.54474e-14
3.18586e-14
3.43338e-14
3.46701e-14
3.71049e-14
2.86955e-14
2.26495e-14
1.60571e-14
1.47695e-14
9.57085e-15
1.25984e-14
1.86545e-14
1.90798e-14
1.43136e-14
1.31472e-14
1.09924e-14
7.62677e-15
5.08832e-15
5.46104e-15
9.02167e-15
2.19061e-15
-5.79628e-15
-8.57999e-15
-6.18667e-16
1.66341e-13
1.63276e-13
1.69572e-13
1.70323e-13
1.71185e-13
1.61968e-13
1.62032e-13
1.58939e-13
1.53111e-13
1.51248e-13
1.51014e-13
1.37677e-13
1.37874e-13
1.35168e-13
1.33891e-13
1.31791e-13
1.32872e-13
1.29088e-13
1.17392e-13
1.12674e-13
1.00183e-13
9.39039e-14
8.89199e-14
8.8592e-14
8.49029e-14
7.9512e-14
7.80833e-14
7.46195e-14
7.61622e-14
6.95254e-14
6.62319e-14
5.81375e-14
4.57291e-14
4.20307e-14
4.38744e-14
3.85132e-14
4.06204e-14
4.31414e-14
3.38557e-14
2.93058e-14
3.26208e-14
2.60407e-14
3.10288e-14
3.34645e-14
3.36988e-14
3.72618e-14
4.13932e-14
2.97964e-14
2.86745e-14
3.00143e-14
2.9327e-14
4.33195e-14
3.48597e-14
3.57998e-14
3.61482e-14
3.90976e-14
4.33231e-14
4.44695e-14
4.71484e-14
5.05886e-14
5.74541e-14
5.57311e-14
5.49023e-14
4.53906e-14
3.84254e-14
3.79447e-14
3.77467e-14
3.71563e-14
3.80546e-14
3.85296e-14
4.39069e-14
6.17933e-14
6.08985e-14
5.83986e-14
4.32405e-14
3.3455e-14
2.91254e-14
3.06139e-14
3.63917e-14
4.02742e-14
3.71166e-14
2.71611e-14
2.53296e-14
2.08577e-14
1.93761e-14
1.28752e-14
1.08923e-14
1.48525e-14
1.54426e-14
1.10936e-14
9.06364e-15
6.76048e-15
4.94991e-15
3.7518e-15
4.6753e-15
4.88499e-15
-1.42393e-15
-6.60671e-15
-6.82202e-15
2.19745e-16
1.65862e-13
1.65097e-13
1.63934e-13
1.69721e-13
1.72922e-13
1.62296e-13
1.60476e-13
1.60733e-13
1.53768e-13
1.45232e-13
1.43629e-13
1.43002e-13
1.44053e-13
1.40838e-13
1.39138e-13
1.3162e-13
1.32745e-13
1.30891e-13
1.23327e-13
1.18088e-13
9.29519e-14
8.54106e-14
8.46613e-14
8.48432e-14
9.01099e-14
8.09442e-14
7.78157e-14
7.5839e-14
7.70243e-14
7.77259e-14
6.61473e-14
5.16133e-14
4.67883e-14
4.71433e-14
4.43108e-14
3.96994e-14
3.80512e-14
3.958e-14
3.8256e-14
2.95548e-14
2.99269e-14
2.80907e-14
3.1358e-14
4.05724e-14
3.3562e-14
3.19559e-14
3.55609e-14
3.60629e-14
3.45132e-14
3.26663e-14
3.38563e-14
4.3749e-14
3.03977e-14
2.82924e-14
4.09744e-14
5.27624e-14
4.42912e-14
4.20768e-14
4.59547e-14
5.28098e-14
5.46791e-14
4.83974e-14
4.99719e-14
4.39314e-14
4.05926e-14
4.21394e-14
3.63165e-14
3.91926e-14
3.83096e-14
4.14663e-14
4.09457e-14
5.62693e-14
6.9502e-14
6.07224e-14
4.29395e-14
3.52898e-14
3.77486e-14
3.20845e-14
3.26616e-14
3.5757e-14
3.1141e-14
2.82163e-14
2.8222e-14
2.2125e-14
1.61199e-14
1.48434e-14
7.88299e-15
1.30264e-14
9.40086e-15
5.93617e-15
1.23945e-14
5.72035e-15
8.12371e-15
3.59156e-15
4.5368e-15
-1.47689e-15
-1.00548e-15
-6.74633e-15
-9.70457e-15
1.25174e-15
1.65798e-13
1.70894e-13
1.67615e-13
1.66856e-13
1.66925e-13
1.61381e-13
1.60494e-13
1.62369e-13
1.53253e-13
1.40408e-13
1.40856e-13
1.42239e-13
1.47903e-13
1.44722e-13
1.38262e-13
1.30193e-13
1.20594e-13
1.17033e-13
1.21686e-13
1.25011e-13
1.17818e-13
1.17397e-13
9.84272e-14
8.37449e-14
8.2983e-14
7.17168e-14
7.0807e-14
7.27462e-14
7.30376e-14
7.67467e-14
6.91268e-14
5.16838e-14
4.51258e-14
4.46653e-14
4.15308e-14
3.92438e-14
4.36914e-14
4.15687e-14
3.29256e-14
3.01589e-14
3.07846e-14
3.74055e-14
3.25621e-14
3.64102e-14
2.67401e-14
2.97155e-14
3.55448e-14
3.47721e-14
3.83146e-14
4.13775e-14
3.82058e-14
3.93667e-14
3.16111e-14
3.67049e-14
4.31576e-14
4.70115e-14
4.50467e-14
4.71532e-14
5.06354e-14
5.18576e-14
5.24399e-14
4.62168e-14
4.38499e-14
4.80672e-14
4.30548e-14
3.72221e-14
3.94201e-14
4.01106e-14
4.16581e-14
4.2831e-14
4.49027e-14
5.18051e-14
5.77364e-14
5.32741e-14
4.96269e-14
4.17357e-14
3.44749e-14
3.40221e-14
3.51882e-14
3.60382e-14
3.08669e-14
2.62854e-14
2.59279e-14
1.93034e-14
1.61281e-14
1.45976e-14
1.11777e-14
8.02403e-15
1.01582e-14
4.75281e-15
8.30917e-15
6.83928e-15
8.64723e-15
2.99718e-15
-6.82665e-17
-6.10755e-15
-4.13841e-15
-2.36565e-15
-5.28707e-15
1.85042e-15
1.62965e-13
1.66032e-13
1.70478e-13
1.69806e-13
1.67137e-13
1.66857e-13
1.55414e-13
1.44988e-13
1.46613e-13
1.46802e-13
1.49124e-13
1.51766e-13
1.50474e-13
1.43726e-13
1.39353e-13
1.36131e-13
1.28582e-13
1.29013e-13
1.24892e-13
1.21386e-13
1.00987e-13
9.35033e-14
9.33181e-14
8.35704e-14
8.74075e-14
8.14981e-14
7.65906e-14
7.48184e-14
7.18928e-14
7.1219e-14
6.26761e-14
5.97006e-14
5.35303e-14
4.08232e-14
3.4136e-14
3.62989e-14
4.71319e-14
4.53462e-14
3.87384e-14
3.5638e-14
2.96609e-14
2.68143e-14
2.64436e-14
3.70183e-14
3.15978e-14
3.26664e-14
3.6785e-14
3.54004e-14
4.19422e-14
4.1354e-14
3.77762e-14
3.50382e-14
3.62176e-14
3.37358e-14
3.36197e-14
4.57552e-14
4.94498e-14
5.16815e-14
4.89748e-14
5.05504e-14
5.38443e-14
5.19717e-14
3.9258e-14
4.71529e-14
3.92981e-14
3.37955e-14
3.47806e-14
4.08519e-14
4.03618e-14
4.23435e-14
4.72333e-14
5.63085e-14
5.56938e-14
5.23421e-14
4.67157e-14
3.72267e-14
3.30799e-14
3.88102e-14
3.77613e-14
3.45385e-14
3.18842e-14
2.81018e-14
2.62821e-14
1.57944e-14
9.92665e-15
9.2741e-15
9.4523e-15
8.18918e-15
8.37922e-15
3.79262e-15
6.84784e-15
4.33351e-15
4.23694e-15
3.85428e-15
-2.76303e-15
-6.72542e-15
-4.8006e-15
-4.55503e-15
-4.45172e-15
5.88645e-16
1.66209e-13
1.72207e-13
1.7431e-13
1.70157e-13
1.63834e-13
1.72796e-13
1.67162e-13
1.51594e-13
1.41995e-13
1.39299e-13
1.41825e-13
1.4579e-13
1.50829e-13
1.52753e-13
1.43353e-13
1.34078e-13
1.27978e-13
1.28599e-13
1.16139e-13
1.17436e-13
1.17459e-13
1.05451e-13
9.65899e-14
8.57017e-14
8.19393e-14
7.82302e-14
7.40678e-14
7.49578e-14
7.23834e-14
7.30062e-14
6.23467e-14
5.65007e-14
4.88363e-14
3.86239e-14
3.62725e-14
3.88167e-14
4.06242e-14
4.62073e-14
4.12543e-14
3.65995e-14
2.60808e-14
2.36348e-14
3.31231e-14
3.71398e-14
3.05088e-14
3.54783e-14
4.06545e-14
3.92179e-14
4.01691e-14
3.74505e-14
3.64192e-14
3.72265e-14
3.883e-14
3.20676e-14
4.10057e-14
4.87643e-14
4.50952e-14
5.36357e-14
5.52704e-14
4.95417e-14
5.40927e-14
4.89933e-14
4.18078e-14
4.13155e-14
3.87886e-14
3.61056e-14
3.0292e-14
3.10295e-14
3.78064e-14
4.69608e-14
4.84255e-14
5.42091e-14
5.5809e-14
5.28771e-14
4.08882e-14
3.4746e-14
3.83476e-14
3.75582e-14
3.7366e-14
3.18279e-14
2.86864e-14
2.86543e-14
2.43182e-14
1.81041e-14
1.02341e-14
4.2589e-15
5.91051e-15
9.43902e-15
7.71641e-15
3.53813e-15
3.16409e-16
1.21912e-15
2.07638e-15
-2.03961e-15
-3.23741e-15
1.59393e-16
-2.61844e-15
-5.61318e-15
-5.49919e-15
-1.16786e-15
1.70065e-13
1.6868e-13
1.72972e-13
1.6521e-13
1.61391e-13
1.61866e-13
1.54686e-13
1.59561e-13
1.59427e-13
1.52173e-13
1.49431e-13
1.4924e-13
1.48714e-13
1.49373e-13
1.46283e-13
1.36636e-13
1.28008e-13
1.3243e-13
1.25059e-13
1.16105e-13
1.01976e-13
9.33181e-14
9.71142e-14
9.57687e-14
7.81172e-14
7.5663e-14
7.6234e-14
7.21097e-14
6.92781e-14
6.64068e-14
6.38765e-14
5.7349e-14
4.1875e-14
3.67212e-14
3.72962e-14
4.51032e-14
4.54569e-14
4.51938e-14
3.99569e-14
3.18955e-14
2.36229e-14
2.20072e-14
2.55673e-14
3.82721e-14
4.16265e-14
3.51645e-14
3.51002e-14
3.92458e-14
3.69421e-14
3.6557e-14
3.74233e-14
4.13613e-14
3.96038e-14
3.28623e-14
3.81778e-14
4.7796e-14
4.30647e-14
5.06532e-14
5.13952e-14
5.32561e-14
4.94309e-14
4.96154e-14
4.658e-14
4.21514e-14
4.00524e-14
3.86417e-14
2.8925e-14
2.9313e-14
3.43968e-14
4.43735e-14
4.57812e-14
5.13669e-14
5.27184e-14
5.22126e-14
4.32888e-14
3.43854e-14
3.22199e-14
3.04362e-14
3.37922e-14
3.70374e-14
3.44209e-14
2.36411e-14
2.17596e-14
1.29144e-14
9.61415e-15
7.32452e-15
6.4527e-15
5.40241e-15
5.05298e-15
2.57217e-15
2.60871e-15
3.01589e-16
-3.45443e-15
9.16607e-16
-8.43253e-15
-6.52444e-15
-2.29101e-16
-6.71243e-15
8.25988e-16
-1.83429e-15
1.70802e-13
1.67384e-13
1.72408e-13
1.70265e-13
1.70047e-13
1.70268e-13
1.5776e-13
1.50789e-13
1.4965e-13
1.50054e-13
1.53605e-13
1.55836e-13
1.49982e-13
1.47548e-13
1.40309e-13
1.34405e-13
1.33813e-13
1.3222e-13
1.2626e-13
1.17845e-13
1.07285e-13
9.7049e-14
9.00417e-14
8.75305e-14
8.13288e-14
7.32662e-14
7.5088e-14
7.30454e-14
7.17672e-14
6.38261e-14
6.53176e-14
5.34062e-14
4.91399e-14
4.14264e-14
3.36452e-14
4.2501e-14
4.39278e-14
4.33113e-14
3.78116e-14
3.27797e-14
2.66724e-14
2.3823e-14
2.47863e-14
3.35313e-14
3.98987e-14
3.79328e-14
3.45076e-14
3.61486e-14
3.87374e-14
3.92146e-14
3.90021e-14
3.9316e-14
3.94252e-14
3.22506e-14
4.07107e-14
4.88074e-14
4.47524e-14
4.7956e-14
4.96692e-14
4.85842e-14
4.88584e-14
5.07349e-14
4.74448e-14
4.50607e-14
4.01023e-14
3.31256e-14
2.74536e-14
2.78073e-14
3.44833e-14
3.98786e-14
4.22989e-14
4.72482e-14
5.39887e-14
5.03931e-14
4.12186e-14
3.58642e-14
3.57421e-14
3.14421e-14
3.42677e-14
3.28984e-14
2.98783e-14
2.3971e-14
1.9014e-14
1.38367e-14
3.57013e-15
9.03967e-16
7.47371e-15
6.32739e-15
9.29578e-15
-6.70472e-16
-1.02842e-15
-2.74999e-15
-5.53602e-15
4.60663e-15
-6.65324e-15
-8.89235e-15
-3.57177e-15
-3.96275e-15
7.51998e-17
-2.06001e-15
1.65654e-13
1.69655e-13
1.75261e-13
1.69452e-13
1.67237e-13
1.64765e-13
1.55662e-13
1.57322e-13
1.56579e-13
1.59019e-13
1.54018e-13
1.49961e-13
1.53964e-13
1.55068e-13
1.44156e-13
1.34251e-13
1.34037e-13
1.3218e-13
1.23407e-13
1.12939e-13
9.78449e-14
9.72706e-14
9.38779e-14
8.48267e-14
7.61485e-14
7.39833e-14
7.89147e-14
7.40209e-14
7.1251e-14
6.03465e-14
6.36816e-14
5.31574e-14
4.22631e-14
3.60523e-14
4.01412e-14
4.62974e-14
5.1383e-14
4.46111e-14
3.29919e-14
2.51517e-14
2.53007e-14
3.14167e-14
2.9097e-14
3.28507e-14
3.25533e-14
2.70616e-14
3.48152e-14
4.49408e-14
4.13991e-14
3.00135e-14
3.74562e-14
3.95349e-14
3.63645e-14
3.70194e-14
4.12163e-14
4.97066e-14
4.49854e-14
4.58192e-14
4.48554e-14
4.88235e-14
5.01785e-14
5.44777e-14
4.40898e-14
3.8542e-14
3.45438e-14
3.26663e-14
2.9531e-14
3.00626e-14
3.08227e-14
3.85975e-14
4.23761e-14
5.08377e-14
5.2505e-14
4.5664e-14
3.95637e-14
3.70222e-14
3.48699e-14
2.9421e-14
2.59749e-14
2.24779e-14
3.06426e-14
2.95041e-14
1.65986e-14
9.5685e-15
3.22121e-15
6.26795e-15
8.00245e-15
5.95125e-15
5.30523e-15
2.09094e-15
-1.262e-15
-1.00767e-15
-4.78597e-15
3.4698e-15
-3.38173e-15
-1.05619e-14
-5.9135e-15
-3.55637e-15
-3.20361e-15
-1.80384e-15
1.66074e-13
1.71899e-13
1.76319e-13
1.68557e-13
1.6214e-13
1.64001e-13
1.60527e-13
1.62614e-13
1.59279e-13
1.59278e-13
1.52995e-13
1.53134e-13
1.53642e-13
1.54583e-13
1.48328e-13
1.38489e-13
1.27382e-13
1.21418e-13
1.19045e-13
1.20993e-13
1.04986e-13
9.62802e-14
8.63776e-14
7.85473e-14
7.90815e-14
7.57846e-14
7.92549e-14
7.68544e-14
6.97781e-14
6.00907e-14
6.19679e-14
5.54202e-14
4.94283e-14
3.9351e-14
4.1261e-14
3.76303e-14
4.77661e-14
4.46416e-14
3.04582e-14
2.54934e-14
1.71425e-14
2.53874e-14
4.03558e-14
3.65783e-14
3.78322e-14
3.0328e-14
3.19317e-14
3.55589e-14
3.84526e-14
3.87498e-14
3.96819e-14
3.91489e-14
3.65141e-14
4.18249e-14
3.9186e-14
3.9243e-14
4.91145e-14
4.93679e-14
4.8486e-14
4.15898e-14
4.92477e-14
4.85073e-14
4.56596e-14
3.88969e-14
3.32027e-14
2.67793e-14
3.29951e-14
3.2405e-14
3.21759e-14
3.60056e-14
4.3881e-14
5.34024e-14
4.72978e-14
4.16955e-14
3.53718e-14
3.68907e-14
3.02641e-14
2.98727e-14
3.0898e-14
2.46617e-14
2.44372e-14
2.36806e-14
1.67842e-14
1.24562e-14
7.16367e-15
2.52206e-15
-1.25696e-15
7.33278e-15
6.64881e-15
3.45777e-15
-9.9142e-16
-3.48576e-15
-2.48762e-15
3.0192e-16
-5.78727e-15
-2.84913e-15
-5.19434e-15
-6.88756e-15
-2.59288e-15
1.13149e-15
1.74943e-13
1.72483e-13
1.65399e-13
1.69208e-13
1.64595e-13
1.66433e-13
1.65617e-13
1.62409e-13
1.62607e-13
1.57697e-13
1.54509e-13
1.59706e-13
1.59068e-13
1.54062e-13
1.46642e-13
1.41069e-13
1.31478e-13
1.24162e-13
1.17848e-13
1.09338e-13
1.0178e-13
9.33717e-14
8.32278e-14
7.63645e-14
7.7016e-14
7.96286e-14
8.01476e-14
7.42219e-14
6.77917e-14
6.47757e-14
6.37283e-14
5.58179e-14
4.78455e-14
4.02269e-14
3.81699e-14
3.86835e-14
3.58673e-14
3.9349e-14
3.71445e-14
3.49978e-14
2.66058e-14
2.51766e-14
2.85342e-14
3.14598e-14
3.47604e-14
2.97222e-14
3.37181e-14
3.46395e-14
3.51636e-14
3.77534e-14
3.87362e-14
3.48437e-14
3.5891e-14
4.46378e-14
4.37479e-14
4.68664e-14
4.7773e-14
4.78812e-14
5.01671e-14
4.38975e-14
5.22408e-14
4.51028e-14
3.93313e-14
2.83495e-14
2.90846e-14
3.13019e-14
3.70942e-14
3.09622e-14
3.07528e-14
4.06961e-14
4.70378e-14
4.63538e-14
4.02494e-14
3.959e-14
3.14303e-14
3.37215e-14
3.23971e-14
3.59491e-14
2.92366e-14
2.44655e-14
2.02307e-14
1.89615e-14
1.26127e-14
1.10586e-14
6.17221e-15
6.35908e-16
-4.08848e-15
3.71617e-15
7.52679e-15
1.26405e-14
5.62655e-15
-4.00434e-15
-4.21518e-15
5.00573e-16
-6.90272e-15
-3.9697e-15
-3.55512e-15
-3.16362e-15
-3.02659e-15
-4.25095e-16
1.73535e-13
1.72945e-13
1.68526e-13
1.71612e-13
1.6944e-13
1.6393e-13
1.6315e-13
1.62613e-13
1.6387e-13
1.64591e-13
1.55446e-13
1.55137e-13
1.58793e-13
1.4807e-13
1.50572e-13
1.34783e-13
1.22907e-13
1.20606e-13
1.15444e-13
1.12232e-13
1.06939e-13
1.00561e-13
8.84447e-14
7.5735e-14
7.69117e-14
7.96885e-14
8.03678e-14
7.54055e-14
6.41756e-14
6.64097e-14
6.33721e-14
6.1317e-14
5.62573e-14
4.30809e-14
3.14715e-14
3.66566e-14
3.56956e-14
3.79706e-14
3.52977e-14
2.93481e-14
2.7601e-14
2.84575e-14
3.05747e-14
2.44643e-14
3.32704e-14
3.33606e-14
3.68216e-14
3.06413e-14
3.04676e-14
3.1965e-14
4.17928e-14
4.42913e-14
3.94142e-14
3.98202e-14
4.11988e-14
3.97753e-14
4.25499e-14
4.4807e-14
4.95748e-14
4.70317e-14
6.20422e-14
4.62046e-14
4.22651e-14
3.09731e-14
3.44957e-14
3.11755e-14
3.50646e-14
3.9856e-14
3.21239e-14
3.09523e-14
4.04067e-14
4.6474e-14
4.53893e-14
3.81944e-14
2.8177e-14
2.49137e-14
3.41244e-14
3.68315e-14
2.82384e-14
2.68705e-14
1.97094e-14
1.68021e-14
1.0282e-14
8.3164e-15
8.22651e-15
-1.54707e-15
-1.43463e-15
5.34434e-15
5.47628e-15
7.14226e-15
2.82987e-16
-1.45462e-15
4.0048e-16
1.948e-15
-3.13793e-15
2.41464e-15
-1.73871e-15
-5.91026e-15
-7.29784e-15
-4.89744e-15
1.72446e-13
1.76284e-13
1.74075e-13
1.75804e-13
1.66322e-13
1.62939e-13
1.63448e-13
1.58191e-13
1.65138e-13
1.6496e-13
1.56285e-13
1.60398e-13
1.56028e-13
1.50915e-13
1.46437e-13
1.32834e-13
1.33645e-13
1.26359e-13
1.15944e-13
1.0961e-13
1.03208e-13
8.67119e-14
8.14103e-14
8.34505e-14
8.69103e-14
7.93123e-14
7.82726e-14
6.77264e-14
6.34995e-14
6.99586e-14
6.81449e-14
5.59612e-14
4.96088e-14
3.95254e-14
4.16132e-14
4.17916e-14
3.92642e-14
3.70567e-14
3.49998e-14
2.83604e-14
2.81953e-14
2.65131e-14
2.37992e-14
2.38851e-14
3.54091e-14
3.56529e-14
3.63762e-14
2.80161e-14
3.34964e-14
3.58878e-14
3.54848e-14
4.00421e-14
4.37677e-14
4.19799e-14
4.06146e-14
3.26649e-14
3.73958e-14
4.36426e-14
5.4891e-14
4.81852e-14
5.3472e-14
4.84231e-14
4.59949e-14
3.48736e-14
3.19665e-14
3.08421e-14
3.08963e-14
3.47518e-14
3.81723e-14
3.74132e-14
3.68282e-14
4.13355e-14
4.31125e-14
3.69797e-14
2.96159e-14
2.65467e-14
2.98656e-14
3.81807e-14
3.22765e-14
3.20883e-14
1.95356e-14
1.02528e-14
4.41149e-15
-1.55262e-15
3.83101e-15
1.63637e-15
3.04912e-16
1.46484e-16
2.1069e-15
5.91001e-15
7.55344e-15
9.00771e-16
6.10704e-15
4.92095e-15
-3.9293e-15
-2.89143e-15
4.55388e-17
1.56101e-15
-6.50362e-15
-5.62291e-15
1.80888e-13
1.76314e-13
1.66831e-13
1.62998e-13
1.65508e-13
1.71034e-13
1.77921e-13
1.69352e-13
1.6498e-13
1.621e-13
1.55268e-13
1.5289e-13
1.53567e-13
1.48467e-13
1.44607e-13
1.32633e-13
1.35709e-13
1.23499e-13
1.076e-13
1.04764e-13
1.12178e-13
9.63401e-14
8.51903e-14
8.20097e-14
8.13227e-14
7.72185e-14
8.09002e-14
7.36333e-14
7.3612e-14
6.74692e-14
5.73394e-14
6.72672e-14
5.58687e-14
3.82898e-14
3.57139e-14
3.55729e-14
3.94462e-14
3.34811e-14
3.56442e-14
2.71486e-14
2.78744e-14
2.30833e-14
2.7422e-14
2.81707e-14
3.20671e-14
2.89032e-14
3.06084e-14
3.31941e-14
3.68944e-14
3.71741e-14
3.48048e-14
3.78666e-14
3.60844e-14
3.64597e-14
3.27965e-14
3.45636e-14
4.07142e-14
4.63056e-14
5.14482e-14
4.13418e-14
6.03708e-14
5.4689e-14
4.91595e-14
3.75796e-14
3.36831e-14
3.13433e-14
3.26176e-14
3.6652e-14
3.83142e-14
4.2168e-14
3.91587e-14
3.81148e-14
3.16053e-14
3.33597e-14
3.14152e-14
2.49726e-14
3.10588e-14
3.5094e-14
3.33492e-14
2.84391e-14
1.98253e-14
7.4336e-15
1.69932e-15
1.01297e-15
4.8504e-15
4.19348e-15
1.09711e-15
-2.48252e-15
3.24265e-16
-8.04736e-16
6.57589e-15
6.45252e-15
5.7255e-15
9.17312e-15
4.46563e-15
-8.85029e-16
-1.43508e-15
-1.69346e-15
-5.61745e-15
-4.21151e-15
1.80199e-13
1.78426e-13
1.78368e-13
1.72567e-13
1.64788e-13
1.67601e-13
1.70231e-13
1.60663e-13
1.64434e-13
1.70042e-13
1.63278e-13
1.55098e-13
1.50397e-13
1.49396e-13
1.46597e-13
1.32895e-13
1.32219e-13
1.29061e-13
1.20637e-13
1.09024e-13
9.67115e-14
8.95279e-14
7.96158e-14
8.69589e-14
8.48154e-14
8.5125e-14
8.33154e-14
7.1816e-14
6.61733e-14
6.71379e-14
6.58227e-14
6.24822e-14
5.72714e-14
4.49792e-14
3.6113e-14
3.4743e-14
3.46816e-14
3.70935e-14
3.00965e-14
3.14761e-14
2.58448e-14
2.10544e-14