/*--------------------------------*- C++ -*----------------------------------*\
| =========                 |                                                 |
| \\      /  F ield         | OpenFOAM: The Open Source CFD Toolbox           |
|  \\    /   O peration     | Version:  v2012                                 |
|   \\  /    A nd           | Website:  www.openfoam.com                      |
|    \\/     M anipulation  |                                                 |
\*---------------------------------------------------------------------------*/
FoamFile
{
    version     2.0;
    format      ascii;
    class       volScalarField;
    location    "19.25";
    object      W;
}
// * * * * * * * * * * * * * * * * * * * * * * * * * * * * * * * * * * * * * //

dimensions      [0 0 -1 0 0 0 0];


internalField   nonuniform List<scalar> 
65536
(
4.72937e-13
4.72592e-13
4.7806e-13
4.89306e-13
5.06375e-13
5.29382e-13
5.58512e-13
5.94015e-13
6.36212e-13
6.85491e-13
7.42314e-13
8.07216e-13
8.8081e-13
9.63792e-13
1.05695e-12
1.16115e-12
1.27738e-12
1.40672e-12
1.55037e-12
1.70966e-12
1.88604e-12
2.08111e-12
2.29662e-12
2.5345e-12
2.79685e-12
3.08596e-12
3.40434e-12
3.7547e-12
4.14002e-12
4.56351e-12
5.02867e-12
5.53931e-12
6.09952e-12
6.71376e-12
7.38684e-12
8.12395e-12
8.93069e-12
9.8131e-12
1.07777e-11
1.18314e-11
1.29817e-11
1.42367e-11
1.5605e-11
1.70957e-11
1.87187e-11
2.04845e-11
2.24042e-11
2.44896e-11
2.67533e-11
2.92086e-11
3.18697e-11
3.47513e-11
3.78692e-11
4.12397e-11
4.48802e-11
4.88087e-11
5.30441e-11
5.76061e-11
6.2515e-11
6.7792e-11
7.34589e-11
7.95383e-11
8.60532e-11
9.30271e-11
1.00484e-10
1.08448e-10
1.16945e-10
1.25998e-10
1.35632e-10
1.45871e-10
1.5674e-10
1.68261e-10
1.80458e-10
1.93351e-10
2.06962e-10
2.21308e-10
2.36407e-10
2.52273e-10
2.68919e-10
2.86354e-10
3.04585e-10
3.23616e-10
3.43445e-10
3.64068e-10
3.85477e-10
4.07658e-10
4.30592e-10
4.54256e-10
4.78621e-10
5.03651e-10
5.29305e-10
5.55536e-10
5.82291e-10
6.09511e-10
6.37128e-10
6.6507e-10
6.9326e-10
7.21612e-10
7.50036e-10
7.78437e-10
8.06713e-10
8.34759e-10
8.62466e-10
8.89721e-10
9.16409e-10
9.42412e-10
9.67613e-10
9.91893e-10
1.01513e-09
1.03722e-09
1.05804e-09
1.07749e-09
1.09545e-09
1.11184e-09
1.12655e-09
1.13952e-09
1.15065e-09
1.15989e-09
1.16719e-09
1.17249e-09
1.17577e-09
1.177e-09
1.17618e-09
1.17332e-09
1.16842e-09
1.16152e-09
1.15266e-09
1.14189e-09
1.12928e-09
1.1149e-09
1.09884e-09
1.08118e-09
1.06204e-09
1.04151e-09
1.01971e-09
9.96769e-10
9.72796e-10
9.4792e-10
9.22265e-10
8.95957e-10
8.69119e-10
8.41873e-10
8.14337e-10
7.86626e-10
7.58848e-10
7.31109e-10
7.03504e-10
6.76125e-10
6.49055e-10
6.2237e-10
5.96139e-10
5.70422e-10
5.45273e-10
5.20738e-10
4.96854e-10
4.73653e-10
4.51158e-10
4.29389e-10
4.08356e-10
3.88065e-10
3.68518e-10
3.49712e-10
3.31637e-10
3.14283e-10
2.97635e-10
2.81676e-10
2.66386e-10
2.51742e-10
2.37724e-10
2.24306e-10
2.11465e-10
1.99176e-10
1.87415e-10
1.76158e-10
1.65382e-10
1.55064e-10
1.45185e-10
1.35724e-10
1.26664e-10
1.1799e-10
1.09686e-10
1.01741e-10
9.41445e-11
8.68879e-11
7.99644e-11
7.33689e-11
6.70976e-11
6.11481e-11
5.55188e-11
5.02088e-11
4.52175e-11
4.05444e-11
3.61886e-11
3.21487e-11
2.84223e-11
2.50057e-11
2.18942e-11
1.9081e-11
1.6558e-11
1.43153e-11
1.23412e-11
1.06224e-11
9.14391e-12
7.88954e-12
6.84172e-12
5.98194e-12
5.29092e-12
4.74889e-12
4.33587e-12
4.03196e-12
3.81764e-12
3.67408e-12
3.58342e-12
3.5291e-12
3.49613e-12
3.4713e-12
3.44345e-12
3.40357e-12
3.3449e-12
3.26292e-12
3.15531e-12
3.02175e-12
2.86368e-12
2.68406e-12
2.48696e-12
2.27721e-12
2.06006e-12
1.84081e-12
1.62447e-12
1.41556e-12
1.21789e-12
1.03443e-12
8.67303e-13
7.17766e-13
5.86278e-13
4.72609e-13
3.75969e-13
2.95138e-13
2.28609e-13
1.74717e-13
1.31741e-13
9.80008e-14
7.19173e-14
5.20605e-14
3.71732e-14
2.61803e-14
1.81854e-14
1.24585e-14
8.41845e-15
5.61226e-15
3.69449e-15
2.40744e-15
1.56339e-15
1.02979e-15
7.172e-16
5.70426e-16
6.88012e-13
6.8756e-13
6.95624e-13
7.12154e-13
7.37216e-13
7.70984e-13
8.13731e-13
8.65832e-13
9.27764e-13
1.0001e-12
1.08354e-12
1.17887e-12
1.28699e-12
1.40896e-12
1.54594e-12
1.69923e-12
1.87028e-12
2.06073e-12
2.27234e-12
2.50711e-12
2.7672e-12
3.05501e-12
3.37315e-12
3.72451e-12
4.11222e-12
4.53972e-12
5.01076e-12
5.52943e-12
6.10017e-12
6.72781e-12
7.41762e-12
8.17529e-12
9.00701e-12
9.91946e-12
1.09199e-11
1.20161e-11
1.32166e-11
1.45303e-11
1.59672e-11
1.75378e-11
1.92532e-11
2.11258e-11
2.31684e-11
2.53949e-11
2.78202e-11
3.04601e-11
3.33314e-11
3.64519e-11
3.98408e-11
4.3518e-11
4.75048e-11
5.18236e-11
5.64981e-11
6.15531e-11
6.70145e-11
7.29095e-11
7.92665e-11
8.61149e-11
9.34855e-11
1.0141e-10
1.0992e-10
1.19051e-10
1.28836e-10
1.3931e-10
1.50508e-10
1.62467e-10
1.75222e-10
1.8881e-10
2.03266e-10
2.18625e-10
2.34921e-10
2.52187e-10
2.70456e-10
2.89756e-10
3.10115e-10
3.31558e-10
3.54106e-10
3.77777e-10
4.02586e-10
4.28541e-10
4.55648e-10
4.83904e-10
5.13302e-10
5.43829e-10
5.75463e-10
6.08177e-10
6.41933e-10
6.76687e-10
7.12386e-10
7.48968e-10
7.8636e-10
8.24481e-10
8.63242e-10
9.02541e-10
9.4227e-10
9.82309e-10
1.02253e-09
1.0628e-09
1.10297e-09
1.14289e-09
1.18241e-09
1.22135e-09
1.25956e-09
1.29685e-09
1.33306e-09
1.36801e-09
1.40152e-09
1.43343e-09
1.46356e-09
1.49175e-09
1.51784e-09
1.54168e-09
1.56314e-09
1.58208e-09
1.59839e-09
1.61197e-09
1.62273e-09
1.63061e-09
1.63554e-09
1.63749e-09
1.63645e-09
1.63242e-09
1.62543e-09
1.6155e-09
1.6027e-09
1.58711e-09
1.56882e-09
1.54793e-09
1.52459e-09
1.49891e-09
1.47106e-09
1.44119e-09
1.40947e-09
1.37609e-09
1.34123e-09
1.30506e-09
1.26779e-09
1.22959e-09
1.19066e-09
1.15117e-09
1.11131e-09
1.07125e-09
1.03115e-09
9.91159e-10
9.51434e-10
9.12104e-10
8.73296e-10
8.35121e-10
7.97681e-10
7.61064e-10
7.2535e-10
6.90603e-10
6.56878e-10
6.2422e-10
5.92661e-10
5.62226e-10
5.32929e-10
5.04777e-10
4.77768e-10
4.51893e-10
4.27138e-10
4.03483e-10
3.80902e-10
3.59367e-10
3.38846e-10
3.19304e-10
3.00703e-10
2.83006e-10
2.66173e-10
2.50165e-10
2.34941e-10
2.20464e-10
2.06694e-10
1.93595e-10
1.81131e-10
1.69269e-10
1.57976e-10
1.47225e-10
1.36986e-10
1.27236e-10
1.17953e-10
1.09116e-10
1.00709e-10
9.27166e-11
8.5126e-11
7.79267e-11
7.11102e-11
6.46692e-11
5.85981e-11
5.28918e-11
4.75463e-11
4.25576e-11
3.79215e-11
3.36338e-11
2.96891e-11
2.60814e-11
2.28031e-11
1.98454e-11
1.71979e-11
1.48487e-11
1.27841e-11
1.09889e-11
9.4467e-12
8.13954e-12
7.04846e-12
6.15363e-12
5.43454e-12
4.87035e-12
4.44006e-12
4.1229e-12
3.89856e-12
3.7475e-12
3.65127e-12
3.59281e-12
3.55667e-12
3.52931e-12
3.49927e-12
3.45731e-12
3.39653e-12
3.3123e-12
3.20222e-12
3.06595e-12
2.90497e-12
2.72224e-12
2.52188e-12
2.30881e-12
2.08833e-12
1.8658e-12
1.6463e-12
1.4344e-12
1.23394e-12
1.04794e-12
8.78537e-13
7.26986e-13
5.93749e-13
4.78586e-13
3.80689e-13
2.98817e-13
2.3144e-13
1.76867e-13
1.33352e-13
9.91921e-14
7.27866e-14
5.26863e-14
3.76177e-14
2.64918e-14
1.84008e-14
1.26054e-14
8.51727e-15
5.67785e-15
3.7375e-15
2.43535e-15
1.58145e-15
1.04163e-15
7.25421e-16
5.7696e-16
1.19155e-12
1.19088e-12
1.20509e-12
1.23408e-12
1.27799e-12
1.33711e-12
1.41193e-12
1.50314e-12
1.61157e-12
1.73824e-12
1.8844e-12
2.05144e-12
2.24099e-12
2.4549e-12
2.69524e-12
2.96434e-12
3.2648e-12
3.59949e-12
3.97162e-12
4.3847e-12
4.84263e-12
5.34967e-12
5.91052e-12
6.53033e-12
7.21472e-12
7.96986e-12
8.80246e-12
9.71987e-12
1.07301e-11
1.18418e-11
1.30644e-11
1.44083e-11
1.58844e-11
1.7505e-11
1.92831e-11
2.12327e-11
2.33692e-11
2.57089e-11
2.82695e-11
3.10701e-11
3.41312e-11
3.74746e-11
4.11239e-11
4.51043e-11
4.94426e-11
5.41675e-11
5.93094e-11
6.49008e-11
7.09762e-11
7.75718e-11
8.47263e-11
9.24803e-11
1.00876e-10
1.0996e-10
1.19777e-10
1.30378e-10
1.41813e-10
1.54135e-10
1.67401e-10
1.81666e-10
1.9699e-10
2.13432e-10
2.31054e-10
2.49917e-10
2.70086e-10
2.91623e-10
3.14591e-10
3.39055e-10
3.65075e-10
3.92713e-10
4.22026e-10
4.53072e-10
4.85903e-10
5.20568e-10
5.5711e-10
5.95568e-10
6.35974e-10
6.78354e-10
7.22722e-10
7.69087e-10
8.17447e-10
8.67787e-10
9.20082e-10
9.74293e-10
1.03037e-09
1.08825e-09
1.14784e-09
1.20905e-09
1.27177e-09
1.33586e-09
1.40118e-09
1.46756e-09
1.53482e-09
1.60277e-09
1.67117e-09
1.73981e-09
1.80842e-09
1.87676e-09
1.94455e-09
2.01149e-09
2.0773e-09
2.14166e-09
2.20427e-09
2.26481e-09
2.32297e-09
2.37844e-09
2.43091e-09
2.48008e-09
2.52565e-09
2.56736e-09
2.60495e-09
2.63816e-09
2.6668e-09
2.69065e-09
2.70956e-09
2.72339e-09
2.73203e-09
2.73541e-09
2.73349e-09
2.72627e-09
2.71378e-09
2.69608e-09
2.67327e-09
2.64549e-09
2.6129e-09
2.5757e-09
2.53412e-09
2.48841e-09
2.43883e-09
2.3857e-09
2.32931e-09
2.27e-09
2.2081e-09
2.14396e-09
2.07793e-09
2.01034e-09
1.94155e-09
1.8719e-09
1.8017e-09
1.73127e-09
1.66093e-09
1.59094e-09
1.52158e-09
1.45309e-09
1.3857e-09
1.3196e-09
1.25499e-09
1.19201e-09
1.13081e-09
1.07149e-09
1.01415e-09
9.58858e-10
9.05672e-10
8.54623e-10
8.05729e-10
7.58991e-10
7.14397e-10
6.71923e-10
6.31531e-10
5.93177e-10
5.56806e-10
5.22357e-10
4.89764e-10
4.58955e-10
4.29857e-10
4.02392e-10
3.76483e-10
3.52052e-10
3.29021e-10
3.07314e-10
2.86855e-10
2.67572e-10
2.49395e-10
2.32257e-10
2.16094e-10
2.00846e-10
1.86457e-10
1.72875e-10
1.60051e-10
1.47941e-10
1.36505e-10
1.25707e-10
1.15514e-10
1.05898e-10
9.68323e-11
8.82955e-11
8.02679e-11
7.27326e-11
6.56745e-11
5.90805e-11
5.29385e-11
4.72374e-11
4.19665e-11
3.7115e-11
3.26719e-11
2.86254e-11
2.4963e-11
2.16708e-11
1.87338e-11
1.61357e-11
1.38588e-11
1.18839e-11
1.01909e-11
8.75854e-12
7.56456e-12
6.58618e-12
5.80018e-12
5.18317e-12
4.71186e-12
4.36338e-12
4.11555e-12
3.94715e-12
3.83828e-12
3.77058e-12
3.72751e-12
3.69462e-12
3.65972e-12
3.613e-12
3.54712e-12
3.45718e-12
3.34061e-12
3.19704e-12
3.02796e-12
2.83645e-12
2.6268e-12
2.4041e-12
2.17388e-12
1.94169e-12
1.71281e-12
1.49198e-12
1.28317e-12
1.0895e-12
9.13181e-13
7.55498e-13
6.16915e-13
4.97166e-13
3.95398e-13
3.10309e-13
2.40302e-13
1.8361e-13
1.38416e-13
1.02944e-13
7.55299e-14
5.46651e-14
3.90258e-14
2.74802e-14
1.90852e-14
1.30729e-14
8.83227e-15
5.88728e-15
3.87501e-15
2.52473e-15
1.63935e-15
1.07968e-15
7.51854e-16
5.97954e-16
2.1626e-12
2.16162e-12
2.18784e-12
2.24113e-12
2.3217e-12
2.43015e-12
2.56738e-12
2.73465e-12
2.93354e-12
3.16595e-12
3.43416e-12
3.74081e-12
4.08893e-12
4.48193e-12
4.92371e-12
5.41859e-12
5.97142e-12
6.58757e-12
7.27301e-12
8.03433e-12
8.87878e-12
9.81438e-12
1.08499e-11
1.1995e-11
1.32601e-11
1.4657e-11
1.61981e-11
1.78974e-11
1.97697e-11
2.18314e-11
2.41004e-11
2.6596e-11
2.93391e-11
3.23525e-11
3.56609e-11
3.92909e-11
4.32712e-11
4.7633e-11
5.24097e-11
5.76374e-11
6.33548e-11
6.96034e-11
7.64278e-11
8.38757e-11
9.1998e-11
1.00849e-10
1.10487e-10
1.20973e-10
1.32372e-10
1.44754e-10
1.58192e-10
1.72762e-10
1.88547e-10
2.0563e-10
2.24102e-10
2.44055e-10
2.65586e-10
2.88796e-10
3.1379e-10
3.40674e-10
3.6956e-10
4.00559e-10
4.33789e-10
4.69364e-10
5.07404e-10
5.48026e-10
5.91348e-10
6.37487e-10
6.86557e-10
7.38668e-10
7.93927e-10
8.52435e-10
9.14286e-10
9.79564e-10
1.04834e-09
1.12069e-09
1.19665e-09
1.27627e-09
1.35955e-09
1.4465e-09
1.5371e-09
1.63131e-09
1.72905e-09
1.83024e-09
1.93476e-09
2.04245e-09
2.15314e-09
2.26663e-09
2.38265e-09
2.50095e-09
2.62122e-09
2.74311e-09
2.86624e-09
2.99022e-09
3.11461e-09
3.23893e-09
3.3627e-09
3.48539e-09
3.60646e-09
3.72536e-09
3.84149e-09
3.95429e-09
4.06314e-09
4.16746e-09
4.26666e-09
4.36016e-09
4.44738e-09
4.52778e-09
4.60085e-09
4.66609e-09
4.72306e-09
4.77135e-09
4.81061e-09
4.84053e-09
4.86087e-09
4.87145e-09
4.87214e-09
4.8629e-09
4.84374e-09
4.81473e-09
4.77605e-09
4.72789e-09
4.67054e-09
4.60436e-09
4.52974e-09
4.44714e-09
4.35707e-09
4.26008e-09
4.15676e-09
4.04773e-09
3.93364e-09
3.81513e-09
3.69289e-09
3.56758e-09
3.43989e-09
3.31046e-09
3.17993e-09
3.04895e-09
2.91808e-09
2.78791e-09
2.65894e-09
2.53168e-09
2.40657e-09
2.28401e-09
2.16436e-09
2.04793e-09
1.935e-09
1.82578e-09
1.72046e-09
1.61918e-09
1.52204e-09
1.4291e-09
1.3404e-09
1.25593e-09
1.17566e-09
1.09954e-09
1.02749e-09
9.59416e-10
8.95203e-10
8.34723e-10
7.7784e-10
7.24408e-10
6.74273e-10
6.27281e-10
5.83271e-10
5.42086e-10
5.03567e-10
4.6756e-10
4.33913e-10
4.02478e-10
3.73114e-10
3.45684e-10
3.2006e-10
2.96118e-10
2.73743e-10
2.52826e-10
2.33267e-10
2.14972e-10
1.97854e-10
1.81835e-10
1.66842e-10
1.5281e-10
1.39678e-10
1.27394e-10
1.15911e-10
1.05184e-10
9.51769e-11
8.58547e-11
7.71872e-11
6.91467e-11
6.17082e-11
5.48483e-11
4.85451e-11
4.27774e-11
3.75243e-11
3.27652e-11
2.84788e-11
2.46433e-11
2.12361e-11
1.82337e-11
1.56117e-11
1.33447e-11
1.14067e-11
9.77065e-12
8.40935e-12
7.29515e-12
6.40037e-12
5.69753e-12
5.15962e-12
4.76037e-12
4.47453e-12
4.27818e-12
4.14899e-12
4.0665e-12
4.01241e-12
3.97075e-12
3.92811e-12
3.87374e-12
3.79961e-12
3.70033e-12
3.57309e-12
3.41742e-12
3.23489e-12
3.02875e-12
2.80357e-12
2.56476e-12
2.3182e-12
2.06979e-12
1.82514e-12
1.58927e-12
1.36639e-12
1.1598e-12
9.71805e-13
8.03768e-13
6.56149e-13
5.28646e-13
4.20328e-13
3.29796e-13
2.55334e-13
1.95053e-13
1.47012e-13
1.09316e-13
8.01891e-14
5.80268e-14
4.14186e-14
2.91604e-14
2.02489e-14
1.3868e-14
9.36811e-15
6.24363e-15
4.10903e-15
2.67687e-15
1.73792e-15
1.14446e-15
7.96881e-16
6.33715e-16
3.92982e-12
3.92845e-12
3.97691e-12
4.07493e-12
4.22298e-12
4.42213e-12
4.67411e-12
4.98123e-12
5.34644e-12
5.77331e-12
6.26607e-12
6.82963e-12
7.46963e-12
8.19246e-12
9.00534e-12
9.91637e-12
1.09346e-11
1.207e-11
1.33338e-11
1.47382e-11
1.62969e-11
1.80249e-11
1.99385e-11
2.20558e-11
2.43967e-11
2.69827e-11
2.98377e-11
3.29875e-11
3.64603e-11
4.02869e-11
4.45008e-11
4.91384e-11
5.42393e-11
5.98465e-11
6.60063e-11
7.27691e-11
8.01894e-11
8.83259e-11
9.72418e-11
1.07006e-10
1.1769e-10
1.29375e-10
1.42144e-10
1.56088e-10
1.71303e-10
1.87892e-10
2.05966e-10
2.25642e-10
2.47043e-10
2.703e-10
2.95554e-10
3.22949e-10
3.52641e-10
3.8479e-10
4.19567e-10
4.57149e-10
4.97719e-10
5.41468e-10
5.88595e-10
6.39303e-10
6.938e-10
7.52302e-10
8.15024e-10
8.82189e-10
9.54016e-10
1.03073e-09
1.11255e-09
1.19969e-09
1.29236e-09
1.39077e-09
1.49512e-09
1.60558e-09
1.72233e-09
1.84552e-09
1.97527e-09
2.1117e-09
2.25488e-09
2.40485e-09
2.56165e-09
2.72523e-09
2.89555e-09
3.07248e-09
3.25589e-09
3.44555e-09
3.6412e-09
3.84254e-09
4.04918e-09
4.26069e-09
4.47657e-09
4.69625e-09
4.9191e-09
5.14444e-09
5.3715e-09
5.59949e-09
5.82752e-09
6.05467e-09
6.27996e-09
6.50238e-09
6.72085e-09
6.9343e-09
7.14161e-09
7.34166e-09
7.5333e-09
7.71541e-09
7.88689e-09
8.04665e-09
8.19365e-09
8.32689e-09
8.44544e-09
8.54844e-09
8.63511e-09
8.70479e-09
8.75688e-09
8.79091e-09
8.80655e-09
8.80357e-09
8.78187e-09
8.74149e-09
8.6826e-09
8.60551e-09
8.51064e-09
8.39856e-09
8.26995e-09
8.12561e-09
7.96643e-09
7.79341e-09
7.60763e-09
7.41024e-09
7.20245e-09
6.98551e-09
6.7607e-09
6.52934e-09
6.29271e-09
6.05212e-09
5.80884e-09
5.5641e-09
5.31908e-09
5.07492e-09
4.83269e-09
4.59338e-09
4.35789e-09
4.12707e-09
3.90165e-09
3.68228e-09
3.46954e-09
3.26389e-09
3.06573e-09
2.87535e-09
2.69299e-09
2.51879e-09
2.35283e-09
2.19513e-09
2.04563e-09
1.90423e-09
1.7708e-09
1.64513e-09
1.52702e-09
1.41621e-09
1.31243e-09
1.21539e-09
1.12477e-09
1.04028e-09
9.61579e-10
8.88364e-10
8.20313e-10
7.57113e-10
6.9846e-10
6.44057e-10
5.93618e-10
5.4687e-10
5.03551e-10
4.63414e-10
4.26225e-10
3.91764e-10
3.59827e-10
3.30222e-10
3.02771e-10
2.77312e-10
2.53693e-10
2.31777e-10
2.11438e-10
1.92562e-10
1.75045e-10
1.58795e-10
1.43726e-10
1.29763e-10
1.16838e-10
1.04889e-10
9.38622e-11
8.37064e-11
7.4376e-11
6.58289e-11
5.80256e-11
5.09289e-11
4.45032e-11
3.87137e-11
3.35264e-11
2.89075e-11
2.48231e-11
2.12391e-11
1.81213e-11
1.54349e-11
1.31451e-11
1.12172e-11
9.61612e-12
8.3074e-12
7.25691e-12
6.43129e-12
5.79815e-12
5.32634e-12
4.98623e-12
4.74997e-12
4.59181e-12
4.48828e-12
4.4185e-12
4.36439e-12
4.31079e-12
4.24559e-12
4.15975e-12
4.04722e-12
3.90482e-12
3.73195e-12
3.53026e-12
3.30328e-12
3.05597e-12
2.79419e-12
2.52433e-12
2.25278e-12
1.98562e-12
1.72828e-12
1.48531e-12
1.26026e-12
1.0556e-12
8.72767e-13
7.12239e-13
5.73653e-13
4.55975e-13
3.57661e-13
2.76831e-13
2.11419e-13
1.59306e-13
1.18429e-13
8.68543e-14
6.28361e-14
4.48421e-14
3.15644e-14
2.19141e-14
1.50057e-14
1.0135e-14
6.75363e-15
4.44399e-15
2.89465e-15
1.87904e-15
1.23721e-15
8.61346e-16
6.84917e-16
7.05756e-12
7.05589e-12
7.14441e-12
7.32268e-12
7.59156e-12
7.95308e-12
8.41041e-12
8.96783e-12
9.63075e-12
1.04058e-11
1.13006e-11
1.23244e-11
1.34875e-11
1.48016e-11
1.62802e-11
1.7938e-11
1.97917e-11
2.18599e-11
2.41632e-11
2.67243e-11
2.95682e-11
3.27228e-11
3.62183e-11
4.00884e-11
4.43695e-11
4.91021e-11
5.433e-11
6.01013e-11
6.64685e-11
7.34888e-11
8.12245e-11
8.97435e-11
9.91195e-11
1.09433e-10
1.20769e-10
1.33224e-10
1.46898e-10
1.619e-10
1.78351e-10
1.96377e-10
2.16115e-10
2.37714e-10
2.61331e-10
2.87137e-10
3.15312e-10
3.4605e-10
3.79558e-10
4.16055e-10
4.55774e-10
4.98963e-10
5.45882e-10
5.96807e-10
6.52028e-10
7.11848e-10
7.76588e-10
8.46579e-10
9.22168e-10
1.00371e-09
1.09159e-09
1.18617e-09
1.28786e-09
1.39706e-09
1.51416e-09
1.63959e-09
1.77376e-09
1.91707e-09
2.06995e-09
2.23279e-09
2.40599e-09
2.58992e-09
2.78494e-09
2.99138e-09
3.20954e-09
3.43969e-09
3.68206e-09
3.93682e-09
4.20411e-09
4.48398e-09
4.77643e-09
5.08138e-09
5.39868e-09
5.72808e-09
6.06925e-09
6.42174e-09
6.78502e-09
7.15843e-09
7.54121e-09
7.93247e-09
8.3312e-09
8.73628e-09
9.14647e-09
9.56039e-09
9.97656e-09
1.03934e-08
1.08092e-08
1.12221e-08
1.16303e-08
1.20317e-08
1.24244e-08
1.28063e-08
1.31752e-08
1.3529e-08
1.38656e-08
1.41829e-08
1.44787e-08
1.47512e-08
1.49984e-08
1.52186e-08
1.541e-08
1.55711e-08
1.57007e-08
1.57976e-08
1.58609e-08
1.58899e-08
1.58842e-08
1.58434e-08
1.57677e-08
1.56574e-08
1.5513e-08
1.53353e-08
1.51253e-08
1.48845e-08
1.46142e-08
1.43162e-08
1.39923e-08
1.36447e-08
1.32755e-08
1.28871e-08
1.24818e-08
1.20622e-08
1.16306e-08
1.11896e-08
1.07417e-08
1.02893e-08
9.83473e-09
9.38028e-09
8.9281e-09
8.48021e-09
8.03847e-09
7.60462e-09
7.1802e-09
6.76661e-09
6.36503e-09
5.97652e-09
5.60192e-09
5.24194e-09
4.89709e-09
4.56776e-09
4.25416e-09
3.95638e-09
3.6744e-09
3.40806e-09
3.15713e-09
2.92126e-09
2.70006e-09
2.49305e-09
2.29971e-09
2.11948e-09
1.95177e-09
1.79596e-09
1.65144e-09
1.51756e-09
1.39371e-09
1.27926e-09
1.17361e-09
1.07616e-09
9.86357e-10
9.03645e-10
8.27505e-10
7.57442e-10
6.92989e-10
6.33707e-10
5.79185e-10
5.2904e-10
4.82916e-10
4.40485e-10
4.01442e-10
3.65509e-10
3.32431e-10
3.01975e-10
2.7393e-10
2.48102e-10
2.24318e-10
2.02422e-10
1.8227e-10
1.63737e-10
1.46708e-10
1.31078e-10
1.16755e-10
1.03654e-10
9.16976e-11
8.08154e-11
7.09418e-11
6.20159e-11
5.39799e-11
4.6779e-11
4.03604e-11
3.46728e-11
2.96663e-11
2.52918e-11
2.1501e-11
1.82462e-11
1.54806e-11
1.3158e-11
1.12331e-11
9.66198e-12
8.40157e-12
7.41051e-12
6.6491e-12
6.07957e-12
5.66637e-12
5.37638e-12
5.17918e-12
5.0473e-12
4.95642e-12
4.88557e-12
4.81728e-12
4.73761e-12
4.63619e-12
4.50608e-12
4.34358e-12
4.14792e-12
3.92088e-12
3.66633e-12
3.38973e-12
3.09757e-12
2.79688e-12
2.49473e-12
2.19781e-12
1.91208e-12
1.64254e-12
1.39307e-12
1.16637e-12
9.63983e-13
7.86387e-13
6.3315e-13
5.03097e-13
3.94495e-13
3.05246e-13
2.33051e-13
1.75557e-13
1.30475e-13
9.56642e-14
6.91929e-14
4.9367e-14
3.47418e-14
2.41151e-14
1.65096e-14
1.11486e-14
7.42773e-15
4.88672e-15
3.18251e-15
2.06557e-15
1.35981e-15
9.4656e-16
7.52599e-16
1.24837e-11
1.24822e-11
1.26416e-11
1.2961e-11
1.34422e-11
1.40888e-11
1.49066e-11
1.59034e-11
1.70891e-11
1.84754e-11
2.00767e-11
2.19092e-11
2.39918e-11
2.63458e-11
2.89955e-11
3.1968e-11
3.52934e-11
3.90055e-11
4.31418e-11
4.77435e-11
5.28565e-11
5.85311e-11
6.4823e-11
7.17932e-11
7.95086e-11
8.80427e-11
9.7476e-11
1.07896e-10
1.194e-10
1.32092e-10
1.46086e-10
1.61507e-10
1.7849e-10
1.97183e-10
2.17744e-10
2.40348e-10
2.6518e-10
2.92443e-10
3.22356e-10
3.55154e-10
3.91091e-10
4.30439e-10
4.73492e-10
5.20562e-10
5.71985e-10
6.28121e-10
6.8935e-10
7.56081e-10
8.28744e-10
9.07799e-10
9.93729e-10
1.08705e-09
1.18829e-09
1.29802e-09
1.41684e-09
1.54535e-09
1.68421e-09
1.83407e-09
1.99564e-09
2.16962e-09
2.35673e-09
2.55772e-09
2.77335e-09
3.00438e-09
3.25157e-09
3.51568e-09
3.79748e-09
4.0977e-09
4.41706e-09
4.75625e-09
5.11591e-09
5.49665e-09
5.89901e-09
6.32346e-09
6.77039e-09
7.2401e-09
7.7328e-09
8.24854e-09
8.78729e-09
9.34885e-09
9.93287e-09
1.05388e-08
1.1166e-08
1.18136e-08
1.24804e-08
1.31652e-08
1.38664e-08
1.45824e-08
1.53111e-08
1.60503e-08
1.67977e-08
1.75505e-08
1.83059e-08
1.90609e-08
1.98122e-08
2.05562e-08
2.12895e-08
2.20083e-08
2.27086e-08
2.33867e-08
2.40386e-08
2.46601e-08
2.52475e-08
2.57968e-08
2.63042e-08
2.67661e-08
2.71791e-08
2.754e-08
2.78459e-08
2.80942e-08
2.82826e-08
2.84093e-08
2.84729e-08
2.84724e-08
2.84072e-08
2.82774e-08
2.80833e-08
2.78259e-08
2.75066e-08
2.71273e-08
2.66903e-08
2.61984e-08
2.56547e-08
2.50628e-08
2.44264e-08
2.37498e-08
2.30373e-08
2.22932e-08
2.15224e-08
2.07295e-08
1.99192e-08
1.90962e-08
1.82651e-08
1.74304e-08
1.65962e-08
1.57668e-08
1.4946e-08
1.41371e-08
1.33436e-08
1.25684e-08
1.18139e-08
1.10826e-08
1.03762e-08
9.69641e-09
9.04446e-09
8.42128e-09
7.82751e-09
7.26353e-09
6.72944e-09
6.2251e-09
5.75017e-09
5.30412e-09
4.88625e-09
4.49573e-09
4.13161e-09
3.79284e-09
3.47831e-09
3.18685e-09
2.91727e-09
2.66835e-09
2.43886e-09
2.2276e-09
2.03337e-09
1.85502e-09
1.69143e-09
1.54151e-09
1.40424e-09
1.27864e-09
1.16377e-09
1.05878e-09
9.6284e-10
8.75194e-10
7.95134e-10
7.22007e-10
6.5521e-10
5.94187e-10
5.38432e-10
4.87479e-10
4.40905e-10
3.98328e-10
3.59397e-10
3.238e-10
2.9125e-10
2.61494e-10
2.343e-10
2.09462e-10
1.86794e-10
1.66127e-10
1.47313e-10
1.30213e-10
1.14705e-10
1.00676e-10
8.8021e-11
7.66454e-11
6.64595e-11
5.73794e-11
4.93257e-11
4.22227e-11
3.59977e-11
3.05807e-11
2.59043e-11
2.19028e-11
1.85131e-11
1.56737e-11
1.33255e-11
1.14115e-11
9.87709e-12
8.67024e-12
7.74158e-12
7.04467e-12
6.53616e-12
6.17605e-12
5.92788e-12
5.75896e-12
5.64049e-12
5.54781e-12
5.46043e-12
5.36208e-12
5.24065e-12
5.08804e-12
4.8999e-12
4.67523e-12
4.41596e-12
4.12639e-12
3.81262e-12
3.48191e-12
3.14212e-12
2.80117e-12
2.46651e-12
2.14481e-12
1.84161e-12
1.56122e-12
1.3066e-12
1.07944e-12
8.80232e-13
7.08445e-13
5.62725e-13
4.41102e-13
3.41198e-13
2.60419e-13
1.96116e-13
1.45713e-13
1.06808e-13
7.72331e-14
5.50901e-14
3.87604e-14
2.68985e-14
1.84113e-14
1.24304e-14
8.28016e-15
5.44657e-15
3.54651e-15
2.30144e-15
1.51484e-15
1.05431e-15
8.38183e-16
2.17313e-11
2.17314e-11
2.20138e-11
2.25774e-11
2.34252e-11
2.45639e-11
2.60038e-11
2.77587e-11
2.98464e-11
3.22881e-11
3.51089e-11
3.83383e-11
4.20099e-11
4.61618e-11
5.08372e-11
5.60847e-11
6.19583e-11
6.85184e-11
7.58321e-11
8.39734e-11
9.30246e-11
1.03076e-10
1.14228e-10
1.26589e-10
1.4028e-10
1.55435e-10
1.72196e-10
1.90723e-10
2.1119e-10
2.33785e-10
2.58715e-10
2.86205e-10
3.165e-10
3.49865e-10
3.86591e-10
4.2699e-10
4.71402e-10
5.20195e-10
5.73764e-10
6.32538e-10
6.96979e-10
7.67582e-10
8.44881e-10
9.29447e-10
1.02189e-09
1.12287e-09
1.23308e-09
1.35326e-09
1.48421e-09
1.62676e-09
1.7818e-09
1.95026e-09
2.13313e-09
2.33144e-09
2.54628e-09
2.77878e-09
3.03012e-09
3.30151e-09
3.59423e-09
3.90958e-09
4.24888e-09
4.61351e-09
5.00483e-09
5.42426e-09
5.87318e-09
6.35299e-09
6.86507e-09
7.41077e-09
7.99139e-09
8.60818e-09
9.2623e-09
9.95484e-09
1.06868e-08
1.14589e-08
1.22719e-08
1.31264e-08
1.40225e-08
1.49604e-08
1.594e-08
1.69607e-08
1.80219e-08
1.91225e-08
2.02612e-08
2.14361e-08
2.26453e-08
2.3886e-08
2.51555e-08
2.64504e-08
2.77669e-08
2.91008e-08
3.04476e-08
3.18021e-08
3.31591e-08
3.45125e-08
3.58565e-08
3.71843e-08
3.84894e-08
3.97646e-08
4.1003e-08
4.21971e-08
4.33396e-08
4.44232e-08
4.54407e-08
4.6385e-08
4.72493e-08
4.8027e-08
4.87121e-08
4.92988e-08
4.97823e-08
5.01579e-08
5.04221e-08
5.05718e-08
5.06049e-08
5.052e-08
5.03168e-08
4.99957e-08
4.95582e-08
4.90064e-08
4.83438e-08
4.75743e-08
4.67028e-08
4.57349e-08
4.46771e-08
4.35363e-08
4.232e-08
4.10363e-08
3.96934e-08
3.83e-08
3.68649e-08
3.53967e-08
3.39042e-08
3.23962e-08
3.08809e-08
2.93663e-08
2.78602e-08
2.63698e-08
2.49017e-08
2.3462e-08
2.20562e-08
2.06892e-08
1.93653e-08
1.80881e-08
1.68604e-08
1.56847e-08
1.45626e-08
1.34955e-08
1.24837e-08
1.15276e-08
1.06268e-08
9.78063e-09
8.98795e-09
8.24742e-09
7.55739e-09
6.91602e-09
6.32129e-09
5.77103e-09
5.26301e-09
4.79492e-09
4.36444e-09
3.96924e-09
3.60703e-09
3.27554e-09
2.97259e-09
2.69608e-09
2.44397e-09
2.21435e-09
2.00539e-09
1.81537e-09
1.64269e-09
1.48583e-09
1.34341e-09
1.21413e-09
1.0968e-09
9.90317e-10
8.93685e-10
8.05984e-10
7.26377e-10
6.54106e-10
5.88484e-10
5.28887e-10
4.74755e-10
4.25583e-10
3.80918e-10
3.40351e-10
3.03518e-10
2.7009e-10
2.39776e-10
2.12311e-10
1.87459e-10
1.65008e-10
1.44765e-10
1.26556e-10
1.10222e-10
9.5616e-11
8.26049e-11
7.10632e-11
6.0874e-11
5.19274e-11
4.41196e-11
3.7352e-11
3.15306e-11
2.6566e-11
2.23727e-11
1.8869e-11
1.59774e-11
1.36239e-11
1.17387e-11
1.02557e-11
9.11311e-12
8.25325e-12
7.62279e-12
7.1729e-12
6.8594e-12
6.64293e-12
6.48906e-12
6.36841e-12
6.2567e-12
6.13468e-12
5.98809e-12
5.80735e-12
5.58725e-12
5.32654e-12
5.0273e-12
4.69435e-12
4.33457e-12
3.95618e-12
3.56807e-12
3.17918e-12
2.79792e-12
2.4318e-12
2.08705e-12
1.76849e-12
1.47944e-12
1.22173e-12
9.9587e-13
8.01214e-13
6.36183e-13
4.98512e-13
3.85478e-13
2.94124e-13
2.21431e-13
1.64475e-13
1.20527e-13
8.71312e-14
6.2135e-14
4.37069e-14
3.03245e-14
2.0752e-14
1.40078e-14
9.3292e-15
6.13551e-15
3.99443e-15
2.59168e-15
1.70561e-15
1.1869e-15
9.43494e-16
3.72238e-11
3.72287e-11
3.77216e-11
3.87006e-11
4.01712e-11
4.21451e-11
4.46407e-11
4.76824e-11
5.13012e-11
5.55346e-11
6.04268e-11
6.60294e-11
7.24017e-11
7.96107e-11
8.77326e-11
9.68527e-11
1.07066e-10
1.1848e-10
1.31212e-10
1.45393e-10
1.61168e-10
1.78698e-10
1.98157e-10
2.19742e-10
2.43665e-10
2.7016e-10
2.99484e-10
3.31919e-10
3.67773e-10
4.07382e-10
4.51114e-10
4.99369e-10
5.52582e-10
6.11229e-10
6.75826e-10
7.46932e-10
8.25153e-10
9.11146e-10
1.00562e-09
1.10935e-09
1.22315e-09
1.34791e-09
1.4846e-09
1.63424e-09
1.79792e-09
1.97683e-09
2.17221e-09
2.38542e-09
2.61786e-09
2.87106e-09
3.1466e-09
3.44618e-09
3.77157e-09
4.12465e-09
4.50736e-09
4.92177e-09
5.36999e-09
5.85424e-09
6.3768e-09
6.94003e-09
7.54635e-09
8.19821e-09
8.89811e-09
9.64859e-09
1.04522e-08
1.13114e-08
1.22287e-08
1.32065e-08
1.42472e-08
1.53531e-08
1.65261e-08
1.77683e-08
1.90814e-08
2.04668e-08
2.19257e-08
2.3459e-08
2.50671e-08
2.67501e-08
2.85077e-08
3.03389e-08
3.22422e-08
3.42158e-08
3.62569e-08
3.83621e-08
4.05276e-08
4.27484e-08
4.50191e-08
4.73335e-08
4.96844e-08
5.20641e-08
5.4464e-08
5.68746e-08
5.92859e-08
6.16872e-08
6.40671e-08
6.64135e-08
6.87141e-08
7.09561e-08
7.31263e-08
7.52114e-08
7.71979e-08
7.90728e-08
8.08227e-08
8.2435e-08
8.38976e-08
8.51987e-08
8.63276e-08
8.72746e-08
8.80309e-08
8.8589e-08
8.89428e-08
8.90875e-08
8.902e-08
8.87387e-08
8.82437e-08
8.75369e-08
8.66217e-08
8.55032e-08
8.41883e-08
8.26853e-08
8.1004e-08
7.91555e-08
7.71524e-08
7.50081e-08
7.27368e-08
7.03539e-08
6.78749e-08
6.53158e-08
6.26929e-08
6.00223e-08
5.73199e-08
5.46013e-08
5.18815e-08
4.91748e-08
4.64947e-08
4.38538e-08
4.12635e-08
3.87341e-08
3.6275e-08
3.38942e-08
3.15983e-08
2.93932e-08
2.72831e-08
2.52714e-08
2.33604e-08
2.15512e-08
1.98441e-08
1.82385e-08
1.67331e-08
1.53258e-08
1.40141e-08
1.27949e-08
1.16646e-08
1.06195e-08
9.65536e-09
8.7681e-09
7.95334e-09
7.20669e-09
6.5238e-09
5.90035e-09
5.33213e-09
4.81506e-09
4.34522e-09
3.91884e-09
3.53236e-09
3.18241e-09
2.86582e-09
2.57966e-09
2.32115e-09
2.08776e-09
1.87713e-09
1.6871e-09
1.5157e-09
1.36111e-09
1.22169e-09
1.09594e-09
9.82507e-10
8.80173e-10
7.87835e-10
7.045e-10
6.2928e-10
5.61378e-10
5.00081e-10
4.44752e-10
3.94822e-10
3.49782e-10
3.0918e-10
2.7261e-10
2.3971e-10
2.10155e-10
1.83654e-10
1.59943e-10
1.38783e-10
1.19958e-10
1.0327e-10
8.85348e-11
7.55843e-11
6.42613e-11
5.44189e-11
4.59197e-11
3.86342e-11
3.24407e-11
2.72242e-11
2.28764e-11
1.92953e-11
1.6385e-11
1.40558e-11
1.22237e-11
1.08107e-11
9.74495e-12
8.9603e-12
8.39679e-12
8.00051e-12
7.72372e-12
7.52492e-12
7.36885e-12
7.22647e-12
7.07488e-12
6.89707e-12
6.68164e-12
6.42235e-12
6.11755e-12
5.76951e-12
5.38369e-12
4.9679e-12
4.53151e-12
4.08466e-12
3.63752e-12
3.19967e-12
2.77963e-12
2.38447e-12
2.01963e-12
1.68881e-12
1.39406e-12
1.1359e-12
9.13533e-13
7.25109e-13
5.68e-13
4.39067e-13
3.34908e-13
2.5206e-13
1.87172e-13
1.37123e-13
9.91032e-14
7.06553e-14
4.96887e-14
3.44672e-14
2.35821e-14
1.59151e-14
1.05975e-14
6.9684e-15
4.53591e-15
2.94253e-15
1.9362e-15
1.34717e-15
1.07079e-15
6.27433e-11
6.27601e-11
6.3607e-11
6.52813e-11
6.77926e-11
7.11615e-11
7.54198e-11
8.061e-11
8.67856e-11
9.40116e-11
1.02365e-10
1.11934e-10
1.22823e-10
1.35147e-10
1.49037e-10
1.64643e-10
1.8213e-10
2.01682e-10
2.23505e-10
2.47826e-10
2.74898e-10
3.04999e-10
3.38436e-10
3.75547e-10
4.16706e-10
4.6232e-10
5.12839e-10
5.68755e-10
6.30606e-10
6.98982e-10
7.74525e-10
8.57939e-10
9.49988e-10
1.05151e-09
1.1634e-09
1.28665e-09
1.42233e-09
1.5716e-09
1.7357e-09
1.91598e-09
2.11392e-09
2.33107e-09
2.56914e-09
2.82993e-09
3.1154e-09
3.42763e-09
3.76884e-09
4.14141e-09
4.54786e-09
4.99089e-09
5.47331e-09
5.99816e-09
6.56857e-09
7.1879e-09
7.85961e-09
8.58737e-09
9.37498e-09
1.02264e-08
1.11456e-08
1.2137e-08
1.32047e-08
1.43532e-08
1.5587e-08
1.69105e-08
1.83284e-08
1.9845e-08
2.14648e-08
2.31922e-08
2.50314e-08
2.69864e-08
2.90608e-08
3.12581e-08
3.35813e-08
3.60331e-08
3.86154e-08
4.13298e-08
4.4177e-08
4.7157e-08
5.0269e-08
5.35113e-08
5.68812e-08
6.03749e-08
6.39873e-08
6.77124e-08
7.15427e-08
7.54694e-08
7.94823e-08
8.35701e-08
8.77196e-08
9.19165e-08
9.61451e-08
1.00388e-07
1.04628e-07
1.08844e-07
1.13015e-07
1.17121e-07
1.21138e-07
1.25044e-07
1.28814e-07
1.32424e-07
1.35851e-07
1.39071e-07
1.4206e-07
1.44795e-07
1.47256e-07
1.49421e-07
1.51271e-07
1.52791e-07
1.53964e-07
1.54779e-07
1.55225e-07
1.55294e-07
1.54983e-07
1.5429e-07
1.53216e-07
1.51766e-07
1.49948e-07
1.47772e-07
1.45252e-07
1.42405e-07
1.39249e-07
1.35806e-07
1.321e-07
1.28155e-07
1.24e-07
1.19661e-07
1.15168e-07
1.10549e-07
1.05835e-07
1.01055e-07
9.62366e-08
9.14082e-08
8.65961e-08
8.18254e-08
7.71196e-08
7.25001e-08
6.79866e-08
6.35965e-08
5.93449e-08
5.52449e-08
5.13072e-08
4.75403e-08
4.39508e-08
4.05431e-08
3.73196e-08
3.42812e-08
3.14268e-08