/*--------------------------------*- C++ -*----------------------------------*\
| =========                 |                                                 |
| \\      /  F ield         | OpenFOAM: The Open Source CFD Toolbox           |
|  \\    /   O peration     | Version:  v2012                                 |
|   \\  /    A nd           | Website:  www.openfoam.com                      |
|    \\/     M anipulation  |                                                 |
\*---------------------------------------------------------------------------*/
FoamFile
{
    version     2.0;
    format      ascii;
    class       surfaceScalarField;
    location    "17";
    object      phi;
}
// * * * * * * * * * * * * * * * * * * * * * * * * * * * * * * * * * * * * * //

dimensions      [0 3 -1 0 0 0 0];
oriented        oriented;


internalField   nonuniform List<scalar> 
130560
(
3.2891e-06
-3.2891e-06
6.5784e-06
-3.2893e-06
9.86808e-06
-3.28968e-06
1.31583e-05
-3.29026e-06
1.64494e-05
-3.29102e-06
1.97413e-05
-3.29197e-06
2.30344e-05
-3.29311e-06
2.63289e-05
-3.29443e-06
2.96248e-05
-3.29593e-06
3.29224e-05
-3.29761e-06
3.62219e-05
-3.29947e-06
3.95234e-05
-3.30149e-06
4.28271e-05
-3.30369e-06
4.61331e-05
-3.30604e-06
4.94416e-05
-3.30855e-06
5.27528e-05
-3.31121e-06
5.60669e-05
-3.31401e-06
5.93838e-05
-3.31696e-06
6.27039e-05
-3.32003e-06
6.60271e-05
-3.32323e-06
6.93536e-05
-3.32655e-06
7.26836e-05
-3.32997e-06
7.60171e-05
-3.33349e-06
7.93542e-05
-3.3371e-06
8.2695e-05
-3.34078e-06
8.60395e-05
-3.34454e-06
8.93879e-05
-3.34835e-06
9.27401e-05
-3.35221e-06
9.60962e-05
-3.3561e-06
9.94562e-05
-3.36002e-06
0.00010282
-3.36394e-06
0.000106188
-3.36785e-06
0.00010956
-3.37174e-06
0.000112935
-3.3756e-06
0.000116315
-3.3794e-06
0.000119698
-3.38314e-06
0.000123085
-3.38678e-06
0.000126475
-3.39032e-06
0.000129869
-3.39374e-06
0.000133266
-3.39701e-06
0.000136666
-3.40012e-06
0.000140069
-3.40305e-06
0.000143475
-3.40577e-06
0.000146883
-3.40827e-06
0.000150293
-3.41051e-06
0.000153706
-3.41247e-06
0.00015712
-3.41414e-06
0.000160536
-3.41548e-06
0.000163952
-3.41647e-06
0.000167369
-3.41708e-06
0.000170786
-3.41728e-06
0.000174203
-3.41705e-06
0.00017762
-3.41636e-06
0.000181035
-3.41517e-06
0.000184448
-3.41345e-06
0.00018786
-3.41119e-06
0.000191268
-3.40833e-06
0.000194673
-3.40485e-06
0.000198073
-3.40073e-06
0.000201469
-3.39591e-06
0.00020486
-3.39037e-06
0.000208244
-3.38408e-06
0.000211621
-3.37699e-06
0.00021499
-3.36908e-06
0.00021835
-3.36031e-06
0.000221701
-3.35064e-06
0.000225041
-3.34003e-06
0.000228369
-3.32844e-06
0.000231685
-3.31585e-06
0.000234987
-3.30222e-06
0.000238275
-3.2875e-06
0.000241547
-3.27166e-06
0.000244801
-3.25466e-06
0.000248038
-3.23648e-06
0.000251255
-3.21706e-06
0.000254451
-3.19638e-06
0.000257626
-3.17441e-06
0.000260777
-3.1511e-06
0.000263903
-3.12643e-06
0.000267003
-3.10036e-06
0.000270076
-3.07286e-06
0.00027312
-3.0439e-06
0.000276134
-3.01346e-06
0.000279115
-2.9815e-06
0.000282063
-2.948e-06
0.000284976
-2.91294e-06
0.000287852
-2.87629e-06
0.00029069
-2.83804e-06
0.000293489
-2.79816e-06
0.000296245
-2.75663e-06
0.000298959
-2.71345e-06
0.000301627
-2.66861e-06
0.000304249
-2.62208e-06
0.000306823
-2.57388e-06
0.000309347
-2.52399e-06
0.00031182
-2.4724e-06
0.000314239
-2.41914e-06
0.000316603
-2.36419e-06
0.000318911
-2.30757e-06
0.00032116
-2.24928e-06
0.000323349
-2.18935e-06
0.000325477
-2.12779e-06
0.000327542
-2.06462e-06
0.000329541
-1.99987e-06
0.000331475
-1.93355e-06
0.000333341
-1.86571e-06
0.000335137
-1.79638e-06
0.000336863
-1.7256e-06
0.000338516
-1.6534e-06
0.000340096
-1.57983e-06
0.000341601
-1.50494e-06
0.00034303
-1.42878e-06
0.000344381
-1.35141e-06
0.000345654
-1.27287e-06
0.000346847
-1.19324e-06
0.00034796
-1.11256e-06
0.000348991
-1.03091e-06
0.000349939
-9.48359e-07
0.000350804
-8.64969e-07
0.000351585
-7.80814e-07
0.000352281
-6.95969e-07
0.000352891
-6.1051e-07
0.000353416
-5.24512e-07
0.000353854
-4.38055e-07
0.000354205
-3.51219e-07
0.000354469
-2.64083e-07
0.000354646
-1.76729e-07
0.000354735
-8.92383e-08
0.000354737
-1.69315e-09
0.000354651
8.58246e-08
0.000354478
1.73233e-07
0.000354217
2.60452e-07
0.00035387
3.474e-07
0.000353436
4.33997e-07
0.000352916
5.20166e-07
0.00035231
6.05828e-07
0.000351619
6.90908e-07
0.000350844
7.75332e-07
0.000349985
8.59028e-07
0.000349043
9.41927e-07
0.000348019
1.02396e-06
0.000346914
1.10506e-06
0.000345729
1.18517e-06
0.000344464
1.26422e-06
0.000343122
1.34216e-06
0.000341703
1.41893e-06
0.000340209
1.49449e-06
0.00033864
1.56878e-06
0.000336998
1.64175e-06
0.000335285
1.71338e-06
0.000333501
1.7836e-06
0.000331649
1.8524e-06
0.000329729
1.91974e-06
0.000327744
1.98558e-06
0.000325694
2.0499e-06
0.000323581
2.11269e-06
0.000321407
2.17391e-06
0.000319173
2.23355e-06
0.000316882
2.2916e-06
0.000314534
2.34805e-06
0.000312131
2.40288e-06
0.000309675
2.4561e-06
0.000307167
2.5077e-06
0.000304609
2.55768e-06
0.000302003
2.60604e-06
0.000299351
2.65279e-06
0.000296653
2.69794e-06
0.000293911
2.7415e-06
0.000291128
2.78348e-06
0.000288304
2.82389e-06
0.000285441
2.86275e-06
0.000282541
2.90008e-06
0.000279605
2.93589e-06
0.000276635
2.97021e-06
0.000273632
3.00307e-06
0.000270597
3.03448e-06
0.000267533
3.06447e-06
0.00026444
3.09307e-06
0.000261319
3.12031e-06
0.000258173
3.1462e-06
0.000255002
3.1708e-06
0.000251808
3.19411e-06
0.000248592
3.21618e-06
0.000245355
3.23704e-06
0.000242098
3.25672e-06
0.000238823
3.27524e-06
0.000235531
3.29265e-06
0.000232222
3.30898e-06
0.000228897
3.32425e-06
0.000225559
3.33851e-06
0.000222207
3.35179e-06
0.000218843
3.36411e-06
0.000215467
3.37552e-06
0.000212081
3.38605e-06
0.000208686
3.39572e-06
0.000205281
3.40458e-06
0.000201868
3.41265e-06
0.000198448
3.41996e-06
0.000195022
3.42655e-06
0.000191589
3.43246e-06
0.000188152
3.4377e-06
0.000184709
3.44232e-06
0.000181263
3.44633e-06
0.000177813
3.44978e-06
0.000174361
3.45268e-06
0.000170906
3.45508e-06
0.000167449
3.45699e-06
0.00016399
3.45844e-06
0.000160531
3.45946e-06
0.000157071
3.46008e-06
0.00015361
3.46032e-06
0.00015015
3.46021e-06
0.00014669
3.45976e-06
0.000143231
3.45901e-06
0.000139773
3.45798e-06
0.000136317
3.45669e-06
0.000132861
3.45516e-06
0.000129408
3.45341e-06
0.000125957
3.45146e-06
0.000122507
3.44934e-06
0.00011906
3.44706e-06
0.000115615
3.44464e-06
0.000112173
3.4421e-06
0.000108734
3.43945e-06
0.000105297
3.43672e-06
0.000101863
3.43392e-06
9.84322e-05
3.43106e-06
9.50041e-05
3.42816e-06
9.15789e-05
3.42523e-06
8.81566e-05
3.42229e-06
8.47372e-05
3.41935e-06
8.13208e-05
3.41643e-06
7.79073e-05
3.41353e-06
7.44966e-05
3.41066e-06
7.10888e-05
3.40785e-06
6.76837e-05
3.40509e-06
6.42813e-05
3.4024e-06
6.08815e-05
3.39979e-06
5.74842e-05
3.39727e-06
5.40894e-05
3.39484e-06
5.06969e-05
3.39251e-06
4.73066e-05
3.39029e-06
4.39184e-05
3.38819e-06
4.05322e-05
3.38622e-06
3.71478e-05
3.38437e-06
3.37651e-05
3.38266e-06
3.0384e-05
3.38109e-06
2.70044e-05
3.37966e-06
2.3626e-05
3.37838e-06
2.02487e-05
3.37726e-06
1.68725e-05
3.37629e-06
1.3497e-05
3.37547e-06
1.01222e-05
3.37482e-06
6.74784e-06
3.37433e-06
3.37384e-06
3.374e-06
3.37384e-06
3.28892e-06
-6.57802e-06
6.57802e-06
-6.57841e-06
9.86752e-06
-6.57917e-06
1.31576e-05
-6.58032e-06
1.64484e-05
-6.58185e-06
1.97402e-05
-6.58376e-06
2.30331e-05
-6.58603e-06
2.63274e-05
-6.58868e-06
2.96231e-05
-6.59169e-06
3.29206e-05
-6.59505e-06
3.62199e-05
-6.59877e-06
3.95212e-05
-6.60282e-06
4.28247e-05
-6.60721e-06
4.61306e-05
-6.61192e-06
4.9439e-05
-6.61695e-06
5.27501e-05
-6.62228e-06
5.6064e-05
-6.62789e-06
5.93808e-05
-6.63379e-06
6.27007e-05
-6.63994e-06
6.60238e-05
-6.64635e-06
6.93503e-05
-6.65299e-06
7.26801e-05
-6.65984e-06
7.60135e-05
-6.66689e-06
7.93505e-05
-6.67411e-06
8.26913e-05
-6.6815e-06
8.60357e-05
-6.68902e-06
8.93841e-05
-6.69666e-06
9.27362e-05
-6.70439e-06
9.60923e-05
-6.71219e-06
9.94523e-05
-6.72003e-06
0.000102816
-6.72789e-06
0.000106184
-6.73573e-06
0.000109556
-6.74353e-06
0.000112932
-6.75125e-06
0.000116311
-6.75888e-06
0.000119694
-6.76636e-06
0.000123081
-6.77367e-06
0.000126472
-6.78077e-06
0.000129866
-6.78762e-06
0.000133263
-6.79419e-06
0.000136663
-6.80044e-06
0.000140066
-6.80631e-06
0.000143472
-6.81178e-06
0.000146881
-6.81678e-06
0.000150292
-6.82129e-06
0.000153704
-6.82525e-06
0.000157119
-6.8286e-06
0.000160535
-6.83131e-06
0.000163951
-6.83332e-06
0.000167369
-6.83456e-06
0.000170787
-6.835e-06
0.000174204
-6.83457e-06
0.000177621
-6.83321e-06
0.000181037
-6.83086e-06
0.000184451
-6.82747e-06
0.000187863
-6.82296e-06
0.000191272
-6.81728e-06
0.000194677
-6.81036e-06
0.000198078
-6.80214e-06
0.000201475
-6.79254e-06
0.000204866
-6.7815e-06
0.000208251
-6.76895e-06
0.000211629
-6.75482e-06
0.000214999
-6.73903e-06
0.00021836
-6.72152e-06
0.000221712
-6.70221e-06
0.000225053
-6.68103e-06
0.000228382
-6.6579e-06
0.000231699
-6.63276e-06
0.000235002
-6.60552e-06
0.000238291
-6.57612e-06
0.000241564
-6.54448e-06
0.00024482
-6.51052e-06
0.000248057
-6.47418e-06
0.000251276
-6.43539e-06
0.000254473
-6.39407e-06
0.000257649
-6.35015e-06
0.000260801
-6.30356e-06
0.000263929
-6.25425e-06
0.000267031
-6.20214e-06
0.000270105
-6.14718e-06
0.000273151
-6.08929e-06
0.000276166
-6.02843e-06
0.000279149
-5.96454e-06
0.000282098
-5.89757e-06
0.000285013
-5.82747e-06
0.000287891
-5.75419e-06
0.00029073
-5.6777e-06
0.00029353
-5.59795e-06
0.000296289
-5.51492e-06
0.000299004
-5.42857e-06
0.000301674
-5.33889e-06
0.000304298
-5.24585e-06
0.000306873
-5.14944e-06
0.000309399
-5.04966e-06
0.000311873
-4.94649e-06
0.000314294
-4.83996e-06
0.00031666
-4.73005e-06
0.000318969
-4.6168e-06
0.00032122
-4.50022e-06
0.000323411
-4.38033e-06
0.00032554
-4.25719e-06
0.000327606
-4.13083e-06
0.000329608
-4.00129e-06
0.000331543
-3.86863e-06
0.00033341
-3.73292e-06
0.000335208
-3.59422e-06
0.000336935
-3.45261e-06
0.00033859
-3.30817e-06
0.000340171
-3.16098e-06
0.000341677
-3.01116e-06
0.000343107
-2.85878e-06
0.00034446
-2.70397e-06
0.000345734
-2.54684e-06
0.000346928
-2.38751e-06
0.000348041
-2.22609e-06
0.000349073
-2.06273e-06
0.000350023
-1.89755e-06
0.000350888
-1.7307e-06
0.00035167
-1.56232e-06
0.000352366
-1.39255e-06
0.000352977
-1.22155e-06
0.000353502
-1.04948e-06
0.000353941
-8.76487e-07
0.000354292
-7.02733e-07
0.000354557
-5.2838e-07
0.000354733
-3.5359e-07
0.000354823
-1.78527e-07
0.000354824
-3.35504e-09
0.000354738
1.71762e-07
0.000354565
3.46661e-07
0.000354304
5.21179e-07
0.000353957
6.95154e-07
0.000353522
8.68427e-07
0.000353001
1.04084e-06
0.000352395
1.21224e-06
0.000351703
1.38248e-06
0.000350927
1.5514e-06
0.000350068
1.71886e-06
0.000349125
1.88472e-06
0.0003481
2.04885e-06
0.000346994
2.21112e-06
0.000345808
2.37139e-06
0.000344542
2.52955e-06
0.000343199
2.68549e-06
0.000341779
2.83909e-06
0.000340283
2.99025e-06
0.000338713
3.13887e-06
0.00033707
3.28487e-06
0.000335355
3.42815e-06
0.00033357
3.56864e-06
0.000331716
3.70627e-06
0.000329795
3.84097e-06
0.000327808
3.97268e-06
0.000325756
4.10135e-06
0.000323642
4.22694e-06
0.000321467
4.3494e-06
0.000319231
4.46869e-06
0.000316938
4.5848e-06
0.000314589
4.6977e-06
0.000312184
4.80738e-06
0.000309726
4.91382e-06
0.000307217
5.01701e-06
0.000304658
5.11697e-06
0.00030205
5.21369e-06
0.000299396
5.30719e-06
0.000296696
5.39748e-06
0.000293953
5.48458e-06
0.000291168
5.56852e-06
0.000288343
5.64933e-06
0.000285478
5.72703e-06
0.000282577
5.80167e-06
0.000279639
5.87327e-06
0.000276668
5.9419e-06
0.000273663
6.00758e-06
0.000270627
6.07038e-06
0.000267561
6.13034e-06
0.000264467
6.18751e-06
0.000261345
6.24195e-06
0.000258198
6.29372e-06
0.000255026
6.34287e-06
0.00025183
6.38947e-06
0.000248613
6.43358e-06
0.000245375
6.47526e-06
0.000242117
6.51458e-06
0.000238841
6.5516e-06
0.000235547
6.58639e-06
0.000232237
6.61901e-06
0.000228911
6.64953e-06
0.000225572
6.67801e-06
0.000222219
6.70453e-06
0.000218854
6.72915e-06
0.000215478
6.75193e-06
0.000212091
6.77294e-06
0.000208694
6.79226e-06
0.000205289
6.80994e-06
0.000201876
6.82604e-06
0.000198455
6.84064e-06
0.000195028
6.8538e-06
0.000191595
6.86557e-06
0.000188156
6.87603e-06
0.000184713
6.88523e-06
0.000181266
6.89323e-06
0.000177816
6.9001e-06
0.000174363
6.90588e-06
0.000170907
6.91064e-06
0.00016745
6.91443e-06
0.000163991
6.91731e-06
0.000160531
6.91933e-06
0.000157071
6.92054e-06
0.00015361
6.92099e-06
0.000150149
6.92074e-06
0.000146689
6.91983e-06
0.00014323
6.91831e-06
0.000139772
6.91622e-06
0.000136315
6.91362e-06
0.00013286
6.91053e-06
0.000129406
6.90702e-06
0.000125954
6.90311e-06
0.000122505
6.89884e-06
0.000119058
6.89426e-06
0.000115613
6.8894e-06
0.000112171
6.8843e-06
0.000108731
6.87899e-06
0.000105294
6.87351e-06
0.00010186
6.86789e-06
9.84293e-05
6.86215e-06
9.50011e-05
6.85634e-06
9.15759e-05
6.85047e-06
8.81536e-05
6.84458e-06
8.47342e-05
6.83869e-06
8.13178e-05
6.83282e-06
7.79044e-05
6.82701e-06
7.44937e-05
6.82127e-06
7.1086e-05
6.81563e-06
6.76809e-05
6.81011e-06
6.42786e-05
6.80472e-06
6.08789e-05
6.79949e-06
5.74817e-05
6.79443e-06
5.4087e-05
6.78957e-06
5.06946e-05
6.78491e-06
4.73044e-05
6.78047e-06
4.39164e-05
6.77626e-06
4.05303e-05
6.7723e-06
3.71461e-05
6.76861e-06
3.37635e-05
6.76518e-06
3.03826e-05
6.76203e-06
2.70031e-05
6.75917e-06
2.36249e-05
6.75661e-06
2.02478e-05
6.75436e-06
1.68716e-05
6.75241e-06
1.34963e-05
6.75078e-06
1.01217e-05
6.74947e-06
6.7475e-06
6.74849e-06
3.37367e-06
6.74783e-06
6.74751e-06
3.28853e-06
-9.86655e-06
6.57726e-06
-9.86713e-06
9.86636e-06
-9.86828e-06
1.31561e-05
-9.87001e-06
1.64465e-05
-9.87231e-06
1.97379e-05
-9.87517e-06
2.30305e-05
-9.87859e-06
2.63244e-05
-9.88257e-06
2.96198e-05
-9.88709e-06
3.29169e-05
-9.89214e-06
3.62158e-05
-9.89772e-06
3.95168e-05
-9.90382e-06
4.282e-05
-9.91041e-06
4.61256e-05
-9.91749e-06
4.94337e-05
-9.92505e-06
5.27444e-05
-9.93305e-06
5.6058e-05
-9.94149e-06
5.93746e-05
-9.95035e-06
6.26943e-05
-9.95961e-06
6.60172e-05
-9.96923e-06
6.93434e-05
-9.97921e-06
7.26731e-05
-9.98951e-06
7.60063e-05
-1.00001e-05
7.93431e-05
-1.0011e-05
8.26837e-05
-1.00221e-05
8.60281e-05
-1.00334e-05
8.93763e-05
-1.00449e-05
9.27284e-05
-1.00565e-05
9.60845e-05
-1.00682e-05
9.94445e-05
-1.008e-05
0.000102808
-1.00918e-05
0.000106176
-1.01036e-05
0.000109548
-1.01154e-05
0.000112924
-1.0127e-05
0.000116304
-1.01385e-05
0.000119687
-1.01498e-05
0.000123074
-1.01608e-05
0.000126465
-1.01715e-05
0.000129859
-1.01818e-05
0.000133256
-1.01917e-05
0.000136657
-1.02011e-05
0.000140061
-1.021e-05
0.000143467
-1.02182e-05
0.000146876
-1.02258e-05
0.000150288
-1.02326e-05
0.000153701
-1.02386e-05
0.000157116
-1.02437e-05
0.000160533
-1.02478e-05
0.00016395
-1.02509e-05
0.000167369
-1.02529e-05
0.000170787
-1.02536e-05
0.000174206
-1.0253e-05
0.000177623
-1.0251e-05
0.00018104
-1.02476e-05
0.000184455
-1.02426e-05
0.000187868
-1.02359e-05
0.000191278
-1.02275e-05
0.000194685
-1.02172e-05
0.000198088
-1.02049e-05
0.000201486
-1.01906e-05
0.000204879
-1.01741e-05
0.000208265
-1.01554e-05
0.000211645
-1.01343e-05
0.000215016
-1.01107e-05
0.000218379
-1.00845e-05
0.000221733
-1.00557e-05
0.000225076
-1.0024e-05
0.000228407
-9.98937e-06
0.000231726
-9.95175e-06
0.000235032
-9.91099e-06
0.000238322
-9.86697e-06
0.000241598
-9.8196e-06
0.000244856
-9.76876e-06
0.000248096
-9.71434e-06
0.000251317
-9.65624e-06
0.000254517
-9.59434e-06
0.000257696
-9.52855e-06
0.000260851
-9.45876e-06
0.000263981
-9.38487e-06
0.000267086
-9.30679e-06
0.000270163
-9.22441e-06
0.000273212
-9.13766e-06
0.00027623
-9.04644e-06
0.000279216
-8.95067e-06
0.000282168
-8.85027e-06
0.000285086
-8.74517e-06
0.000287967
-8.63531e-06
0.00029081
-8.52062e-06
0.000293613
-8.40104e-06
0.000296375
-8.27652e-06
0.000299093
-8.14703e-06
0.000301767
-8.01253e-06
0.000304394
-7.87299e-06
0.000306973
-7.72839e-06
0.000309502
-7.57871e-06
0.00031198
-7.42396e-06
0.000314404
-7.26414e-06
0.000316773
-7.09926e-06
0.000319086
-6.92935e-06
0.00032134
-6.75445e-06
0.000323534
-6.57458e-06
0.000325667
-6.38981e-06
0.000327736
-6.2002e-06
0.000329741
-6.00583e-06
0.000331679
-5.80677e-06
0.000333549
-5.60311e-06
0.00033535
-5.39497e-06
0.000337079
-5.18245e-06
0.000338737
-4.96567e-06
0.000340321
-4.74478e-06
0.00034183
-4.51991e-06
0.000343262
-4.29122e-06
0.000344617
-4.05886e-06
0.000345893
-3.82302e-06
0.000347089
-3.58386e-06
0.000348205
-3.34157e-06
0.000349238
-3.09636e-06
0.000350189
-2.84842e-06
0.000351057
-2.59796e-06
0.000351839
-2.3452e-06
0.000352537
-2.09036e-06
0.000353149
-1.83368e-06
0.000353675
-1.57537e-06
0.000354115
-1.31568e-06
0.000354467
-1.05485e-06
0.000354731
-7.93115e-07
0.000354908
-5.30726e-07
0.000354998
-2.67926e-07
0.000354999
-4.963e-09
0.000354913
2.57917e-07
0.00035474
5.20469e-07
0.000354478
7.82447e-07
0.00035413
1.04361e-06
0.000353695
1.30372e-06
0.000353173
1.56253e-06
0.000352565
1.81982e-06
0.000351872
2.07536e-06
0.000351095
2.32892e-06
0.000350233
2.58029e-06
0.000349289
2.82925e-06
0.000348262
3.07561e-06
0.000347154
3.31917e-06
0.000345966
3.55973e-06
0.000344698
3.79711e-06
0.000343353
4.03115e-06
0.00034193
4.26168e-06
0.000340432
4.48854e-06
0.000338859
4.71159e-06
0.000337213
4.93069e-06
0.000335496
5.14571e-06
0.000333708
5.35654e-06
0.000331851
5.56306e-06
0.000329927
5.76519e-06
0.000327936
5.96282e-06
0.000325882
6.15589e-06
0.000323765
6.34432e-06
0.000321586
6.52805e-06
0.000319348
6.70703e-06
0.000317051
6.88122e-06
0.000314698
7.05059e-06
0.000312291
7.21511e-06
0.00030983
7.37477e-06
0.000307317
7.52957e-06
0.000304755
7.6795e-06
0.000302144
7.82457e-06
0.000299486
7.9648e-06
0.000296783
8.10021e-06
0.000294037
8.23083e-06
0.000291249
8.3567e-06
0.00028842
8.47787e-06
0.000285553
8.59438e-06
0.000282648
8.70628e-06
0.000279708
8.81364e-06
0.000276733
8.91652e-06
0.000273726
9.01499e-06
0.000270687
9.10912e-06
0.000267619
9.19899e-06
0.000264521
9.28468e-06
0.000261397
9.36626e-06
0.000258247
9.44384e-06
0.000255072
9.5175e-06
0.000251874
9.58732e-06
0.000248655
9.65341e-06
0.000245414
9.71585e-06
0.000242154
9.77475e-06
0.000238875
9.83019e-06
0.000235579
9.88229e-06
0.000232267
9.93114e-06
0.00022894
9.97683e-06
0.000225599
1.00195e-05
0.000222244
1.00592e-05
0.000218877
1.0096e-05
0.000215499
1.01301e-05
0.00021211
1.01615e-05
0.000208712
1.01904e-05
0.000205305
1.02169e-05
0.00020189
1.02409e-05
0.000198468
1.02628e-05
0.000195039
1.02824e-05
0.000191605
1.03e-05
0.000188165
1.03156e-05
0.000184721
1.03293e-05
0.000181273
1.03413e-05
0.000177822
1.03515e-05
0.000174368
1.03601e-05
0.000170911
1.03672e-05
0.000167453
1.03728e-05
0.000163993
1.0377e-05
0.000160532
1.038e-05
0.000157071
1.03818e-05
0.00015361
1.03824e-05
0.000150149
1.03819e-05
0.000146688
1.03805e-05
0.000143228
1.03782e-05
0.000139769
1.0375e-05
0.000136312
1.0371e-05
0.000132856
1.03663e-05
0.000129402
1.0361e-05
0.00012595
1.03551e-05
0.0001225
1.03487e-05
0.000119053
1.03417e-05
0.000115608
1.03344e-05
0.000112165
1.03267e-05
0.000108726
1.03187e-05
0.000105289
1.03104e-05
0.000101855
1.0302e-05
9.84235e-05
1.02933e-05
9.49953e-05
1.02846e-05
9.157e-05
1.02757e-05
8.81477e-05
1.02669e-05
8.47284e-05
1.0258e-05
8.1312e-05
1.02492e-05
7.78986e-05
1.02404e-05
7.44881e-05
1.02318e-05
7.10804e-05
1.02233e-05
6.76756e-05
1.0215e-05
6.42734e-05
1.02069e-05
6.08739e-05
1.0199e-05
5.74769e-05
1.01914e-05
5.40824e-05
1.01841e-05
5.06902e-05
1.01771e-05
4.73002e-05
1.01704e-05
4.39124e-05
1.01641e-05
4.05266e-05
1.01581e-05
3.71426e-05
1.01526e-05
3.37604e-05
1.01474e-05
3.03797e-05
1.01427e-05
2.70005e-05
1.01384e-05
2.36226e-05
1.01345e-05
2.02458e-05
1.01311e-05
1.687e-05
1.01282e-05
1.3495e-05
1.01258e-05
1.01207e-05
1.01238e-05
6.74685e-06
1.01223e-05
3.37334e-06
1.01213e-05
1.01208e-05
3.28795e-06
-1.31545e-05
6.5761e-06
-1.31553e-05
9.86463e-06
-1.31568e-05
1.31537e-05
-1.31591e-05
1.64436e-05
-1.31622e-05
1.97345e-05
-1.3166e-05
2.30265e-05
-1.31706e-05
2.63198e-05
-1.31759e-05
2.96147e-05
-1.31819e-05
3.29113e-05
-1.31887e-05
3.62097e-05
-1.31962e-05
3.95102e-05
-1.32043e-05
4.28129e-05
-1.32131e-05
4.6118e-05
-1.32226e-05
4.94256e-05
-1.32327e-05
5.2736e-05
-1.32434e-05
5.60492e-05
-1.32547e-05
5.93653e-05
-1.32665e-05
6.26846e-05
-1.32789e-05
6.60072e-05
-1.32918e-05
6.93331e-05
-1.33051e-05
7.26624e-05
-1.33189e-05
7.59954e-05
-1.33331e-05
7.9332e-05
-1.33476e-05
8.26724e-05
-1.33624e-05
8.60166e-05
-1.33776e-05
8.93646e-05
-1.3393e-05
9.27166e-05
-1.34085e-05
9.60726e-05
-1.34242e-05
9.94326e-05
-1.344e-05
0.000102797
-1.34558e-05
0.000106165
-1.34716e-05
0.000109537
-1.34873e-05
0.000112912
-1.35029e-05
0.000116292
-1.35183e-05
0.000119676
-1.35334e-05
0.000123063
-1.35482e-05
0.000126454
-1.35625e-05
0.000129849
-1.35764e-05
0.000133247
-1.35897e-05
0.000136648
-1.36023e-05
0.000140052
-1.36143e-05
0.00014346
-1.36254e-05
0.000146869
-1.36356e-05
0.000150282
-1.36448e-05
0.000153696
-1.36529e-05
0.000157112
-1.36598e-05
0.000160529
-1.36654e-05
0.000163948
-1.36697e-05
0.000167368
-1.36724e-05
0.000170788
-1.36735e-05
0.000174207
-1.36728e-05
0.000177627
-1.36704e-05
0.000181045
-1.36659e-05
0.000184462
-1.36594e-05
0.000187877
-1.36506e-05
0.000191289
-1.36395e-05
0.000194697
-1.3626e-05
0.000198102
-1.36098e-05
0.000201502
-1.35909e-05
0.000204897
-1.35691e-05
0.000208286
-1.35442e-05
0.000211668
-1.35162e-05
0.000215042
-1.3485e-05
0.000218408
-1.34502e-05
0.000221764
-1.34119e-05
0.00022511
-1.33698e-05
0.000228445
-1.33239e-05
0.000231767
-1.32739e-05
0.000235076
-1.32197e-05
0.00023837
-1.31612e-05
0.000241648
-1.30982e-05
0.00024491
-1.30306e-05
0.000248154
-1.29582e-05
0.000251379
-1.28809e-05
0.000254583
-1.27985e-05
0.000257765
-1.2711e-05
0.000260925
-1.26181e-05
0.000264059
-1.25197e-05
0.000267168
-1.24157e-05
0.00027025
-1.2306e-05
0.000273303
-1.21905e-05
0.000276325
-1.2069e-05
0.000279316
-1.19414e-05
0.000282273
-1.18077e-05
0.000285196
-1.16676e-05
0.000288082
-1.15213e-05
0.00029093
-1.13684e-05
0.000293738
-1.12091e-05
0.000296504
-1.10431e-05
0.000299228
-1.08705e-05
0.000301906
-1.06912e-05
0.000304539
-1.05052e-05
0.000307123
-1.03124e-05
0.000309657
-1.01128e-05
0.000312139
-9.9065e-06
0.000314569
-9.69338e-06
0.000316943
-9.47351e-06
0.00031926
-9.24691e-06
0.00032152
-9.01363e-06
0.000323719
-8.77373e-06
0.000325856
-8.52728e-06
0.00032793
-8.27435e-06
0.00032994
-8.01506e-06
0.000331882
-7.74949e-06
0.000333757
-7.47779e-06
0.000335562
-7.20009e-06
0.000337296
-6.91654e-06
0.000338958
-6.6273e-06
0.000340546
-6.33256e-06
0.000342058
-6.0325e-06
0.000343494
-5.72732e-06
0.000344853
-5.41725e-06
0.000346132
-5.10251e-06
0.000347332
-4.78333e-06
0.00034845
-4.45998e-06
0.000349486
-4.13272e-06
0.00035044
-3.8018e-06
0.000351309
-3.46752e-06
0.000352094
-3.13016e-06
0.000352794
-2.79003e-06
0.000353408
-2.44742e-06
0.000353935
-2.10264e-06
0.000354375
-1.75602e-06
0.000354728
-1.40786e-06
0.000354994
-1.05851e-06
0.000355171
-7.08273e-07
0.000355261
-3.5749e-07
0.000355262
-6.48966e-09
0.000355176
3.444e-07
0.000355002
6.94848e-07
0.000354739
1.04453e-06
0.00035439
1.39312e-06
0.000353953
1.74029e-06
0.00035343
2.08574e-06
0.000352821
2.42915e-06
0.000352126
2.77021e-06
0.000351346
3.10863e-06
0.000350482
3.44412e-06
0.000349535
3.77639e-06
0.000348506
4.10517e-06
0.000347395
4.43021e-06
0.000346203
4.75124e-06
0.000344932
5.06802e-06
0.000343583
5.38033e-06
0.000342157
5.68794e-06
0.000340655
5.99065e-06
0.000339078
6.28826e-06
0.000337428
6.58059e-06
0.000335706
6.86747e-06
0.000333914
7.14874e-06
0.000332053
7.42426e-06
0.000330124
7.6939e-06
0.00032813
7.95753e-06
0.00032607
8.21506e-06
0.000323948
8.46639e-06
0.000321765
8.71144e-06
0.000319522
8.95015e-06
0.000317221
9.18246e-06
0.000314863
9.40832e-06
0.00031245
9.62771e-06
0.000309984
9.8406e-06
0.000307467
1.0047e-05
0.0003049
1.02469e-05
0.000302284
1.04403e-05
0.000299621
1.06272e-05
0.000296914
1.08077e-05
0.000294163
1.09818e-05
0.00029137
1.11496e-05
0.000288537
1.13111e-05
0.000285665
1.14663e-05
0.000282756
1.16154e-05
0.000279811
1.17585e-05
0.000276832
1.18956e-05
0.00027382
1.20267e-05
0.000270777
1.21521e-05
0.000267704
1.22718e-05
0.000264603
1.23859e-05
0.000261475
1.24946e-05
0.000258321
1.25979e-05
0.000255142
1.2696e-05
0.000251941
1.27889e-05
0.000248717
1.28769e-05
0.000245473
1.296e-05
0.000242209
1.30384e-05
0.000238927
1.31121e-05
0.000235628
1.31814e-05
0.000232313
1.32464e-05
0.000228983
1.33072e-05
0.000225638
1.33639e-05
0.000222281
1.34167e-05
0.000218911
1.34656e-05
0.00021553
1.35109e-05
0.000212139
1.35527e-05
0.000208739
1.35911e-05
0.000205329
1.36262e-05
0.000201912
1.36581e-05
0.000198488
1.36871e-05
0.000195057
1.37131e-05
0.000191621
1.37364e-05
0.000188179
1.37571e-05
0.000184733
1.37753e-05
0.000181284
1.3791e-05
0.000177831
1.38045e-05
0.000174375
1.38159e-05
0.000170917
1.38251e-05
0.000167457
1.38325e-05
0.000163996
1.38381e-05
0.000160534
1.38419e-05
0.000157072
1.38441e-05
0.000153609
1.38448e-05
0.000150147
1.38441e-05
0.000146686
1.38421e-05
0.000143225
1.38389e-05
0.000139765
1.38345e-05
0.000136307
1.38291e-05
0.000132851
1.38228e-05
0.000129396
1.38156e-05
0.000125944
1.38076e-05
0.000122493
1.37989e-05
0.000119046
1.37896e-05
0.0001156
1.37798e-05
0.000112157
1.37694e-05
0.000108717
1.37587e-05
0.00010528
1.37476e-05
0.000101846
1.37362e-05
9.84148e-05
1.37246e-05
9.49864e-05
1.37129e-05
9.15611e-05
1.3701e-05
8.81389e-05
1.36891e-05
8.47196e-05
1.36773e-05
8.13033e-05
1.36654e-05
7.789e-05
1.36537e-05
7.44796e-05
1.36422e-05
7.10722e-05
1.36308e-05
6.76675e-05
1.36197e-05
6.42655e-05
1.36088e-05
6.08663e-05
1.35983e-05
5.74696e-05
1.35881e-05
5.40754e-05
1.35783e-05
5.06835e-05
1.35689e-05
4.72939e-05
1.356e-05
4.39065e-05
1.35515e-05
4.0521e-05
1.35436e-05
3.71375e-05
1.35361e-05
3.37557e-05
1.35292e-05
3.03755e-05
1.35229e-05
2.69967e-05
1.35172e-05
2.36192e-05
1.3512e-05
2.02429e-05
1.35075e-05
1.68676e-05
1.35036e-05
1.3493e-05
1.35003e-05
1.01192e-05
1.34976e-05
6.74586e-06
1.34957e-05
3.37285e-06
1.34944e-05
1.34937e-05
3.28718e-06
-1.64417e-05
6.57455e-06
-1.64427e-05
9.86232e-06
-1.64446e-05
1.31507e-05
-1.64475e-05
1.64398e-05
-1.64513e-05
1.97299e-05
-1.64561e-05
2.30212e-05
-1.64619e-05
2.63138e-05
-1.64685e-05
2.96079e-05
-1.64761e-05
3.29038e-05
-1.64846e-05
3.62015e-05
-1.64939e-05
3.95014e-05
-1.65041e-05
4.28034e-05
-1.65152e-05
4.61079e-05
-1.65271e-05
4.94149e-05
-1.65397e-05
5.27247e-05
-1.65531e-05
5.60373e-05
-1.65673e-05
5.93529e-05
-1.65822e-05
6.26717e-05
-1.65977e-05
6.59938e-05
-1.66138e-05
6.93192e-05
-1.66306e-05
7.26482e-05
-1.66479e-05
7.59808e-05
-1.66656e-05
7.93171e-05
-1.66839e-05
8.26572e-05
-1.67025e-05
8.60012e-05
-1.67215e-05
8.9349e-05
-1.67408e-05
9.27009e-05
-1.67604e-05
9.60568e-05
-1.67801e-05
9.94167e-05
-1.67999e-05
0.000102781
-1.68198e-05
0.000106149
-1.68397e-05
0.000109521
-1.68594e-05
0.000112897
-1.6879e-05
0.000116277
-1.68984e-05
0.000119661
-1.69174e-05
0.000123049
-1.6936e-05
0.00012644
-1.69541e-05
0.000129836
-1.69715e-05
0.000133234
-1.69883e-05
0.000136636
-1.70043e-05
0.000140041
-1.70194e-05
0.000143449
-1.70334e-05
0.00014686
-1.70463e-05
0.000150273
-1.7058e-05
0.000153689
-1.70684e-05
0.000157106
-1.70772e-05
0.000160525
-1.70844e-05
0.000163945
-1.70899e-05
0.000167367
-1.70935e-05
0.000170788
-1.70951e-05
0.00017421
-1.70945e-05
0.000177631
-1.70916e-05
0.000181052
-1.70863e-05
0.000184471
-1.70784e-05
0.000187888
-1.70677e-05
0.000191302
-1.7054e-05
0.000194713
-1.70373e-05
0.000198121
-1.70174e-05
0.000201524
-1.6994e-05
0.000204922
-1.6967e-05
0.000208314
-1.69362e-05
0.000211699
-1.69015e-05
0.000215077
-1.68627e-05
0.000218446
-1.68195e-05
0.000221806
-1.67719e-05
0.000225156
-1.67196e-05
0.000228495
-1.66624e-05
0.000231821
-1.66002e-05
0.000235134
-1.65328e-05
0.000238433
-1.64599e-05
0.000241716
-1.63814e-05
0.000244983
-1.62972e-05
0.000248231
-1.6207e-05
0.000251461
-1.61106e-05
0.00025467
-1.60079e-05
0.000257858
-1.58987e-05
0.000261023
-1.57828e-05
0.000264163
-1.56601e-05
0.000267278
-1.55304e-05
0.000270365
-1.53935e-05
0.000273424
-1.52493e-05
0.000276453
-1.50976e-05
0.00027945
-1.49383e-05
0.000282413
-1.47713e-05
0.000285342
-1.45965e-05
0.000288235
-1.44137e-05
0.000291089
-1.42227e-05
0.000293904
-1.40237e-05
0.000296677
-1.38163e-05
0.000299407
-1.36007e-05
0.000302092
-1.33766e-05
0.000304731
-1.31441e-05
0.000307322
-1.29032e-05
0.000309863
-1.26538e-05
0.000312352
-1.23958e-05
0.000314788
-1.21294e-05
0.000317169
-1.18545e-05
0.000319494
-1.15711e-05
0.000321759
-1.12794e-05
0.000323965
-1.09794e-05
0.000326109
-1.06712e-05
0.00032819
-1.03549e-05
0.000330205
-1.00305e-05
0.000332154
-9.69836e-06
0.000334035
-9.35848e-06
0.000335846
-9.01107e-06
0.000337585
-8.65632e-06
0.000339253
-8.29444e-06
0.000340846
-7.92565e-06
0.000342363
-7.55019e-06
0.000343804
-7.16832e-06
0.000345167
-6.7803e-06
0.000346451
-6.38643e-06
0.000347655
-5.98699e-06
0.000348777
-5.58231e-06
0.000349817
-5.17272e-06
0.000350774
-4.75855e-06
0.000351647
-4.34016e-06
0.000352434
-3.91791e-06
0.000353137
-3.49217e-06
0.000353752
-3.06333e-06
0.000354282
-2.63177e-06
0.000354723
-2.19788e-06
0.000355078
-1.76209e-06
0.000355344
-1.32478e-06
0.000355522
-8.8637e-07
0.000355612
-4.47275e-07
0.000355613
-7.9063e-09
0.000355526
4.31321e-07
0.000355351
8.69994e-07
0.000355088
1.3077e-06
0.000354737
1.74404e-06
0.000354299
2.1786e-06
0.000353774
2.61099e-06
0.000353162
3.04082e-06
0.000352464
3.46771e-06
0.000351682
3.89127e-06
0.000350815
4.31116e-06
0.000349864
4.72701e-06
0.000348831
5.13848e-06
0.000347716
5.54525e-06
0.00034652
5.94699e-06
0.000345245
6.3434e-06
0.000343891
6.7342e-06
0.00034246
7.1191e-06
0.000340952
7.49785e-06
0.00033937
7.87021e-06
0.000337715
8.23594e-06
0.000335988
8.59483e-06
0.00033419
8.94669e-06
0.000332323
9.29134e-06
0.000330388
9.6286e-06
0.000328387
9.95835e-06
0.000326322
1.02804e-05
0.000324193
1.05947e-05
0.000322004
1.09012e-05
0.000319754
1.11997e-05
0.000317446
1.14901e-05
0.000315082
1.17725e-05
0.000312663
1.20468e-05
0.000310191
1.23129e-05
0.000307667
1.25709e-05
0.000305093
1.28208e-05
0.000302471
1.30625e-05
0.000299802
1.32961e-05
0.000297088
1.35216e-05
0.000294331
1.37392e-05
0.000291532
1.39488e-05
0.000288692
1.41505e-05
0.000285814
1.43444e-05
0.000282899
1.45307e-05
0.000279948
1.47093e-05
0.000276963
1.48805e-05
0.000273946