/*--------------------------------*- C++ -*----------------------------------*\
| =========                 |                                                 |
| \\      /  F ield         | OpenFOAM: The Open Source CFD Toolbox           |
|  \\    /   O peration     | Version:  v2012                                 |
|   \\  /    A nd           | Website:  www.openfoam.com                      |
|    \\/     M anipulation  |                                                 |
\*---------------------------------------------------------------------------*/
FoamFile
{
    version     2.0;
    format      ascii;
    class       volScalarField;
    location    "17";
    object      Psi_z;
}
// * * * * * * * * * * * * * * * * * * * * * * * * * * * * * * * * * * * * * //

dimensions      [0 2 -1 0 0 0 0];


internalField   nonuniform List<scalar> 
65536
(
8.22143e-06
2.46648e-05
4.11096e-05
5.75568e-05
7.40074e-05
9.04622e-05
0.000106922
0.000123388
0.000139862
0.000156343
0.000172833
0.000189333
0.000205843
0.000222365
0.000238898
0.000255445
0.000272005
0.00028858
0.00030517
0.000321775
0.000338397
0.000355035
0.000371691
0.000388365
0.000405056
0.000421767
0.000438496
0.000455245
0.000472013
0.0004888
0.000505607
0.000522433
0.000539279
0.000556145
0.000573029
0.000589933
0.000606854
0.000623794
0.000640751
0.000657725
0.000674715
0.000691719
0.000708738
0.00072577
0.000742814
0.000759869
0.000776932
0.000794003
0.00081108
0.00082816
0.000845243
0.000862326
0.000879406
0.000896482
0.000913551
0.000930609
0.000947655
0.000964685
0.000981696
0.000998685
0.00101565
0.00103258
0.00104948
0.00106634
0.00108316
0.00109994
0.00111666
0.00113333
0.00114994
0.00116648
0.00118296
0.00119935
0.00121566
0.00123189
0.00124802
0.00126405
0.00127998
0.00129579
0.00131148
0.00132705
0.00134248
0.00135777
0.00137292
0.0013879
0.00140273
0.00141738
0.00143185
0.00144614
0.00146023
0.00147411
0.00148779
0.00150125
0.00151447
0.00152746
0.00154021
0.0015527
0.00156493
0.00157689
0.00158857
0.00159997
0.00161107
0.00162186
0.00163235
0.00164251
0.00165235
0.00166185
0.00167101
0.00167982
0.00168827
0.00169636
0.00170407
0.00171141
0.00171837
0.00172493
0.0017311
0.00173687
0.00174223
0.00174719
0.00175173
0.00175585
0.00175954
0.00176282
0.00176566
0.00176807
0.00177005
0.00177159
0.0017727
0.00177337
0.00177361
0.0017734
0.00177276
0.00177168
0.00177017
0.00176822
0.00176584
0.00176303
0.0017598
0.00175614
0.00175206
0.00174756
0.00174265
0.00173734
0.00173162
0.0017255
0.00171899
0.00171209
0.00170481
0.00169716
0.00168914
0.00168076
0.00167202
0.00166293
0.00165351
0.00164375
0.00163366
0.00162326
0.00161255
0.00160153
0.00159023
0.00157863
0.00156676
0.00155461
0.00154221
0.00152954
0.00151664
0.00150349
0.00149012
0.00147652
0.00146271
0.0014487
0.00143448
0.00142008
0.00140549
0.00139072
0.00137579
0.0013607
0.00134545
0.00133006
0.00131453
0.00129886
0.00128307
0.00126716
0.00125113
0.001235
0.00121877
0.00120244
0.00118602
0.00116951
0.00115293
0.00113627
0.00111954
0.00110275
0.0010859
0.001069
0.00105204
0.00103504
0.001018
0.00100092
0.000983798
0.000966649
0.000949473
0.000932271
0.000915048
0.000897806
0.000880549
0.000863278
0.000845996
0.000828706
0.000811409
0.000794108
0.000776806
0.000759502
0.000742201
0.000724902
0.000707607
0.000690319
0.000673037
0.000655763
0.000638499
0.000621245
0.000604002
0.00058677
0.000569551
0.000552345
0.000535153
0.000517974
0.000500809
0.000483659
0.000466523
0.000449402
0.000432296
0.000415204
0.000398127
0.000381064
0.000364015
0.00034698
0.000329959
0.000312952
0.000295957
0.000278974
0.000262003
0.000245044
0.000228095
0.000211157
0.000194228
0.000177308
0.000160396
0.000143492
0.000126594
0.000109703
9.28163e-05
7.59345e-05
5.90564e-05
4.21811e-05
2.53078e-05
8.43581e-06
2.46639e-05
7.39931e-05
0.000123327
0.000172667
0.000222018
0.000271382
0.000320761
0.000370159
0.000419578
0.00046902
0.00051849
0.000567988
0.000617518
0.000667082
0.000716683
0.000766322
0.000816002
0.000865726
0.000915494
0.00096531
0.00101517
0.00106509
0.00111506
0.00116508
0.00121515
0.00126528
0.00131547
0.00136572
0.00141602
0.00146638
0.0015168
0.00156728
0.00161782
0.00166842
0.00171907
0.00176978
0.00182055
0.00187137
0.00192224
0.00197316
0.00202413
0.00207515
0.0021262
0.0021773
0.00222843
0.0022796
0.00233079
0.002382
0.00243324
0.00248448
0.00253573
0.00258698
0.00263823
0.00268946
0.00274066
0.00279184
0.00284298
0.00289408
0.00294511
0.00299608
0.00304697
0.00309778
0.00314848
0.00319907
0.00324954
0.00329987
0.00335005
0.00340006
0.00344989
0.00349952
0.00354894
0.00359814
0.00364708
0.00369577
0.00374417
0.00379227
0.00384006
0.0038875
0.00393458
0.00398129
0.00402759
0.00407347
0.00411891
0.00416387
0.00420835
0.00425232
0.00429574
0.00433861
0.00438089
0.00442256
0.00446359
0.00450397
0.00454366
0.00458264
0.00462089
0.00465837
0.00469507
0.00473096
0.00476601
0.00480021
0.00483351
0.00486591
0.00489736
0.00492787
0.00495738
0.00498589
0.00501338
0.00503981
0.00506517
0.00508944
0.0051126
0.00513462
0.00515549
0.00517519
0.00519371
0.00521102
0.00522712
0.00524198
0.0052556
0.00526796
0.00527906
0.00528888
0.00529741
0.00530465
0.00531059
0.00531522
0.00531855
0.00532056
0.00532126
0.00532065
0.00531872
0.00531549
0.00531094
0.0053051
0.00529796
0.00528953
0.00527982
0.00526884
0.00525659
0.0052431
0.00522837
0.00521241
0.00519525
0.00517689
0.00515735
0.00513666
0.00511481
0.00509185
0.00506778
0.00504262
0.0050164
0.00498914
0.00496085
0.00493157
0.00490131
0.00487009
0.00483795
0.0048049
0.00477096
0.00473617
0.00470054
0.0046641
0.00462687
0.00458888
0.00455015
0.00451071
0.00447058
0.00442978
0.00438834
0.00434629
0.00430363
0.00426041
0.00421664
0.00417234
0.00412754
0.00408225
0.0040365
0.00399032
0.00394371
0.00389671
0.00384933
0.00380159
0.0037535
0.0037051
0.00365639
0.00360739
0.00355813
0.00350861
0.00345886
0.00340888
0.00335869
0.00330832
0.00325776
0.00320705
0.00315618
0.00310517
0.00305403
0.00300278
0.00295142
0.00289997
0.00284844
0.00279683
0.00274516
0.00269343
0.00264166
0.00258984
0.00253799
0.00248612
0.00243423
0.00238233
0.00233042
0.0022785
0.0022266
0.0021747
0.00212281
0.00207095
0.0020191
0.00196728
0.00191549
0.00186372
0.00181199
0.0017603
0.00170864
0.00165702
0.00160544
0.00155391
0.00150241
0.00145096
0.00139955
0.00134819
0.00129687
0.0012456
0.00119436
0.00114318
0.00109203
0.00104093
0.000989864
0.000938841
0.000887857
0.000836909
0.000785997
0.00073512
0.000684275
0.00063346
0.000582674
0.000531915
0.00048118
0.000430468
0.000379776
0.000329102
0.000278444
0.0002278
0.000177166
0.000126541
7.59222e-05
2.5307e-05
4.11049e-05
0.000123317
0.000205537
0.000287768
0.000370016
0.000452286
0.000534581
0.000616908
0.00069927
0.000781671
0.000864117
0.000946612
0.00102916
0.00111176
0.00119443
0.00127716
0.00135996
0.00144283
0.00152577
0.0016088
0.0016919
0.00177509
0.00185837
0.00194173
0.00202519
0.00210874
0.00219239
0.00227613
0.00235997
0.0024439
0.00252794
0.00261207
0.0026963
0.00278063
0.00286506
0.00294957
0.00303418
0.00311889
0.00320368
0.00328855
0.0033735
0.00345853
0.00354363
0.0036288
0.00371402
0.0037993
0.00388463
0.00396999
0.00405538
0.0041408
0.00422622
0.00431165
0.00439706
0.00448245
0.00456781
0.00465311
0.00473836
0.00482352
0.0049086
0.00499356
0.00507839
0.00516308
0.0052476
0.00533193
0.00541606
0.00549995
0.0055836
0.00566697
0.00575003
0.00583277
0.00591516
0.00599717
0.00607877
0.00615993
0.00624062
0.00632081
0.00640047
0.00647957
0.00655806
0.00663593
0.00671312
0.00678961
0.00686536
0.00694034
0.00701449
0.00708779
0.0071602
0.00723167
0.00730216
0.00737164
0.00744006
0.00750738
0.00757356
0.00763855
0.00770233
0.00776483
0.00782602
0.00788587
0.00794432
0.00800133
0.00805686
0.00811088
0.00816334
0.0082142
0.00826342
0.00831097
0.0083568
0.00840088
0.00844317
0.00848364
0.00852225
0.00855898
0.00859378
0.00862664
0.00865751
0.00868639
0.00871323
0.00873802
0.00876073
0.00878135
0.00879985
0.00881623
0.00883045
0.00884253
0.00885243
0.00886016
0.0088657
0.00886906
0.00887023
0.0088692
0.00886599
0.0088606
0.00885302
0.00884327
0.00883137
0.00881731
0.00880111
0.0087828
0.00876238
0.00873988
0.00871531
0.0086887
0.00866008
0.00862946
0.00859688
0.00856236
0.00852594
0.00848764
0.0084475
0.00840555
0.00836183
0.00831637
0.0082692
0.00822037
0.00816991
0.00811786
0.00806426
0.00800914
0.00795256
0.00789454
0.00783513
0.00777437
0.00771229
0.00764895
0.00758438
0.00751861
0.0074517
0.00738368
0.00731459
0.00724447
0.00717336
0.00710129
0.00702831
0.00695446
0.00687976
0.00680426
0.006728
0.006651
0.0065733
0.00649494
0.00641595
0.00633635
0.0062562
0.0061755
0.0060943
0.00601262
0.0059305
0.00584795
0.005765
0.00568169
0.00559804
0.00551406
0.00542979
0.00534525
0.00526045
0.00517542
0.00509018
0.00500475
0.00491914
0.00483338
0.00474748
0.00466146
0.00457533
0.00448911
0.00440281
0.00431644
0.00423002
0.00414356
0.00405706
0.00397055
0.00388403
0.0037975
0.00371098
0.00362448
0.003538
0.00345155
0.00336514
0.00327877
0.00319244
0.00310617
0.00301995
0.00293379
0.00284769
0.00276166
0.00267569
0.0025898
0.00250397
0.00241822
0.00233254
0.00224693
0.0021614
0.00207594
0.00199056
0.00190525
0.00182
0.00173483
0.00164973
0.00156469
0.00147972
0.00139481
0.00130996
0.00122516
0.00114042
0.00105573
0.000971094
0.000886497
0.000801942
0.000717424
0.00063294
0.000548486
0.000464059
0.000379654
0.000295267
0.000210895
0.000126533
4.21769e-05
5.75435e-05
0.000172634
0.000287734
0.000402852
0.000517992
0.000633163
0.000748371
0.000863622
0.000978922
0.00109428
0.0012097
0.00132518
0.00144074
0.00155638
0.00167211
0.00178793
0.00190384
0.00201985
0.00213597
0.0022522
0.00236854
0.00248501
0.00260159
0.0027183
0.00283514
0.00295211
0.00306921
0.00318644
0.00330382
0.00342133
0.00353898
0.00365676
0.00377469
0.00389275
0.00401094
0.00412927
0.00424773
0.00436632
0.00448503
0.00460385
0.0047228
0.00484184
0.00496099
0.00508023
0.00519956
0.00531896
0.00543842
0.00555794
0.00567751
0.0057971
0.00591671
0.00603632
0.00615592
0.00627548
0.006395
0.00651445
0.00663381
0.00675307
0.00687219
0.00699116
0.00710995
0.00722854
0.0073469
0.00746499
0.0075828
0.00770029
0.00781742
0.00793417
0.0080505
0.00816638
0.00828176
0.00839661
0.00851089
0.00862456
0.00873757
0.00884988
0.00896145
0.00907223
0.00918217
0.00929123
0.00939936
0.0095065
0.0096126
0.00971761
0.00982149
0.00992416
0.0100256
0.0101257
0.0102244
0.0103218
0.0104176
0.0105119
0.0106046
0.0106957
0.010785
0.0108726
0.0109583
0.0110422
0.0111241
0.0112039
0.0112817
0.0113574
0.0114309
0.0115022
0.0115711
0.0116378
0.011702
0.0117637
0.011823
0.0118797
0.0119338
0.0119853
0.012034
0.0120801
0.0121233
0.0121638
0.0122014
0.0122361
0.012268
0.0122968
0.0123228
0.0123457
0.0123657
0.0123826
0.0123964
0.0124073
0.012415
0.0124197
0.0124214
0.0124199
0.0124154
0.0124079
0.0123973
0.0123836
0.0123669
0.0123472
0.0123245
0.0122989
0.0122702
0.0122387
0.0122043
0.012167
0.0121269
0.012084
0.0120383
0.01199
0.0119389
0.0118853
0.011829
0.0117703
0.011709
0.0116453
0.0115792
0.0115108
0.0114401
0.0113672
0.0112921
0.0112149
0.0111356
0.0110543
0.0109711
0.0108859
0.010799
0.0107103
0.0106198
0.0105277
0.0104339
0.0103387
0.0102419
0.0101436
0.010044
0.00994309
0.00984087
0.00973742
0.00963279
0.00952704
0.00942022
0.00931237
0.00920355
0.0090938
0.00898316
0.00887169
0.00875943
0.00864641
0.00853269
0.0084183
0.00830328
0.00818768
0.00807152
0.00795485
0.0078377
0.0077201
0.00760209
0.0074837
0.00736495
0.00724588
0.00712652
0.00700689
0.00688702
0.00676693
0.00664665
0.00652619
0.00640559
0.00628486
0.00616402
0.00604309
0.00592208
0.00580102
0.00567992
0.00555878
0.00543764
0.00531649
0.00519536
0.00507424
0.00495316
0.00483213
0.00471114
0.00459021
0.00446935
0.00434856
0.00422784
0.00410722
0.00398667
0.00386623
0.00374587
0.00362562
0.00350546
0.0033854
0.00326545
0.00314561
0.00302586
0.00290622
0.00278668
0.00266725
0.00254791
0.00242867
0.00230953
0.00219048
0.00207152
0.00195265
0.00183386
0.00171515
0.00159652
0.00147796
0.00135947
0.00124104
0.00112267
0.00100435
0.000886074
0.000767844
0.000649651
0.00053149
0.000413354
0.000295239
0.000177137
5.90448e-05
7.39787e-05
0.000221941
0.000369915
0.000517912
0.000665939
0.000814004
0.000962117
0.00111029
0.00125852
0.00140682
0.00155521
0.00170368
0.00185225
0.00200092
0.0021497
0.0022986
0.00244762
0.00259677
0.00274606
0.00289549
0.00304507
0.0031948
0.00334469
0.00349474
0.00364495
0.00379534
0.00394589
0.00409662
0.00424753
0.00439861
0.00454988
0.00470132
0.00485294
0.00500473
0.0051567
0.00530884
0.00546115
0.00561363
0.00576626
0.00591905
0.00607198
0.00622505
0.00637826
0.00653158
0.00668502
0.00683855
0.00699216
0.00714585
0.0072996
0.00745339
0.00760719
0.00776101
0.0079148
0.00806856
0.00822226
0.00837587
0.00852937
0.00868274
0.00883594
0.00898894
0.00914172
0.00929423
0.00944645
0.00959834
0.00974986
0.00990097
0.0100516
0.0102018
0.0103514
0.0105005
0.0106489
0.0107966
0.0109436
0.0110898
0.0112352
0.0113797
0.0115232
0.0116657
0.0118072
0.0119475
0.0120866
0.0122244
0.0123609
0.012496
0.0126297
0.0127618
0.0128923
0.0130211
0.0131482
0.0132734
0.0133967
0.0135181
0.0136374
0.0137545
0.0138695
0.0139822
0.0140925
0.0142004
0.0143058
0.0144086
0.0145087
0.0146061
0.0147007
0.0147924
0.0148812
0.0149669
0.0150496
0.0151291
0.0152054
0.0152783
0.015348
0.0154142
0.015477
0.0155363
0.0155919
0.015644
0.0156924
0.0157371
0.0157781
0.0158153
0.0158487
0.0158782
0.0159039
0.0159257
0.0159435
0.0159575
0.0159675
0.0159735
0.0159756
0.0159738
0.015968
0.0159582
0.0159446
0.015927
0.0159055
0.0158801
0.0158509
0.0158179
0.015781
0.0157404
0.0156961
0.0156481
0.0155965
0.0155413
0.0154825
0.0154203
0.0153546
0.0152855
0.0152131
0.0151375
0.0150586
0.0149766
0.0148916
0.0148035
0.0147125
0.0146187
0.014522
0.0144226
0.0143206
0.014216
0.0141089
0.0139994
0.0138875
0.0137733
0.0136569
0.0135383
0.0134177
0.0132951
0.0131706
0.0130442
0.012916
0.0127862
0.0126546
0.0125216
0.0123869
0.0122509
0.0121135
0.0119747
0.0118347
0.0116935
0.0115512
0.0114078
0.0112634
0.011118
0.0109717
0.0108246
0.0106767
0.010528
0.0103786
0.0102285
0.0100778
0.00992656
0.00977477
0.0096225
0.00946978
0.00931664
0.00916313
0.00900927
0.00885511
0.00870067
0.00854598
0.00839108
0.00823598
0.00808072
0.00792533
0.00776981
0.00761421
0.00745853
0.0073028
0.00714703
0.00699125
0.00683547
0.00667971
0.00652397
0.00636828
0.00621265
0.00605708
0.00590159
0.00574618
0.00559087
0.00543566
0.00528056
0.00512557
0.0049707
0.00481595
0.00466133
0.00450685
0.00435249
0.00419826
0.00404417
0.00389022
0.00373639
0.0035827
0.00342914
0.00327571
0.00312241
0.00296923
0.00281618
0.00266323
0.00251041
0.00235768
0.00220507
0.00205255
0.00190012
0.00174778
0.00159552
0.00144334
0.00129122
0.00113917
0.000987165
0.000835212
0.0006833
0.000531421
0.000379568
0.000227733
7.59098e-05
9.04096e-05
0.000271234
0.000452075
0.000632942
0.000813846
0.000994798
0.00117581
0.00135689
0.00153804
0.00171929
0.00190063
0.00208208
0.00226365
0.00244534
0.00262717
0.00280914
0.00299127
0.00317355
0.003356
0.00353863
0.00372144
0.00390443
0.00408762
0.00427101
0.0044546
0.0046384
0.0048224
0.00500663
0.00519107
0.00537572
0.0055606
0.00574569
0.00593101
0.00611654
0.00630228
0.00648824
0.00667441
0.00686078
0.00704734
0.00723409
0.00742103
0.00760814
0.0077954
0.00798282
0.00817038
0.00835805
0.00854583
0.00873371
0.00892165
0.00910965
0.00929767
0.00948571
0.00967372
0.0098617
0.0100496
0.0102374
0.0104251
0.0106126
0.0107999
0.0109869
0.0111737
0.0113602
0.0115463
0.0117321
0.0119173
0.0121021
0.0122863
0.01247
0.0126529
0.0128352
0.0130167
0.0131974
0.0133771
0.013556
0.0137338
0.0139105
0.014086
0.0142603
0.0144333
0.0146049
0.0147751
0.0149437
0.0151106
0.0152759
0.0154394
0.015601
0.0157607
0.0159182
0.0160737
0.0162269
0.0163778
0.0165263
0.0166722
0.0168156
0.0169563
0.0170942
0.0172292
0.0173612
0.0174901
0.0176159
0.0177385
0.0178577
0.0179734
0.0180857
0.0181943
0.0182992
0.0184004
0.0184977
0.018591
0.0186803
0.0187656
0.0188466
0.0189235
0.018996
0.0190642
0.0191279
0.0191872
0.0192419
0.0192921
0.0193376
0.0193784
0.0194146
0.019446
0.0194726
0.0194945
0.0195116
0.0195238
0.0195312
0.0195338
0.0195315
0.0195244
0.0195125
0.0194958
0.0194742
0.0194479
0.0194169
0.0193811
0.0193407
0.0192956
0.0192459
0.0191917
0.0191329
0.0190697
0.0190021
0.0189302
0.018854
0.0187736
0.018689
0.0186004
0.0185078
0.0184113
0.018311
0.0182069
0.0180991
0.0179878
0.0178729
0.0177547
0.0176331
0.0175082
0.0173802
0.0172492
0.0171151
0.0169782
0.0168385
0.0166961
0.0165511
0.0164035
0.0162535
0.0161012
0.0159466
0.0157898
0.0156309
0.01547
0.0153072
0.0151425
0.0149761
0.014808
0.0146383
0.0144671
0.0142944
0.0141203
0.013945
0.0137683
0.0135906
0.0134117
0.0132317
0.0130508
0.012869
0.0126863
0.0125027
0.0123185
0.0121335
0.0119479
0.0117618
0.011575
0.0113878
0.0112001
0.011012
0.0108235
0.0106347
0.0104455
0.0102562
0.0100665
0.00987673
0.00968675
0.00949663
0.0093064
0.00911609
0.00892571
0.0087353
0.00854487
0.00835444
0.00816403
0.00797366
0.00778335
0.0075931
0.00740294
0.00721288
0.00702292
0.00683308
0.00664336
0.00645378
0.00626434
0.00607505
0.00588591
0.00569692
0.0055081
0.00531944
0.00513094
0.00494261
0.00475444
0.00456643
0.00437859
0.00419091
0.00400339
0.00381603
0.00362882
0.00344176
0.00325484
0.00306805
0.00288141
0.00269488
0.00250848
0.00232219
0.00213601
0.00194993
0.00176394
0.00157803
0.0013922
0.00120644
0.00102073
0.000835077
0.000649462
0.000463878
0.000278318
9.27711e-05
0.000106835
0.000320512
0.000534207
0.000747934
0.000961705
0.00117553
0.00138943
0.00160341
0.00181748
0.00203165
0.00224594
0.00246036
0.00267492
0.00288963
0.0031045
0.00331954
0.00353476
0.00375017
0.00396578
0.00418159
0.00439762
0.00461387
0.00483036
0.00504708
0.00526404
0.00548124
0.0056987
0.00591641
0.00613438
0.00635261
0.0065711
0.00678985
0.00700886
0.00722813
0.00744766
0.00766743
0.00788746
0.00810773
0.00832823
0.00854896
0.0087699
0.00899105
0.0092124
0.00943392
0.00965561
0.00987745
0.0100994
0.0103215
0.0105437
0.0107659
0.0109881
0.0112104
0.0114327
0.0116549
0.011877
0.0120991
0.0123209
0.0125426
0.0127641
0.0129852
0.0132061
0.0134266
0.0136466
0.0138662
0.0140853
0.0143038
0.0145216
0.0147388
0.0149552
0.0151707
0.0153853
0.015599
0.0158116
0.0160231
0.0162334
0.0164424
0.01665
0.0168562
0.0170608
0.0172638
0.0174651
0.0176645
0.0178621
0.0180576
0.018251
0.0184422
0.0186311
0.0188175
0.0190015
0.0191827
0.0193613
0.019537
0.0197097
0.0198794
0.0200458
0.020209
0.0203688
0.020525
0.0206776
0.0208265
0.0209715
0.0211126
0.0212496
0.0213825
0.0215111
0.0216353
0.021755
0.0218702
0.0219807
0.0220864
0.0221873
0.0222833
0.0223743
0.0224601
0.0225408
0.0226163
0.0226865
0.0227513
0.0228106
0.0228645
0.0229129
0.0229557
0.0229929
0.0230244
0.0230503
0.0230705
0.023085
0.0230938
0.0230968
0.0230941
0.0230857
0.0230716
0.0230518
0.0230263
0.0229951
0.0229584
0.022916
0.0228681
0.0228147
0.0227559
0.0226917
0.0226221
0.0225473
0.0224673
0.0223821
0.0222919
0.0221967
0.0220966
0.0219918
0.0218821
0.0217679
0.0216491
0.0215259
0.0213984
0.0212666
0.0211306
0.0209907
0.0208467
0.020699
0.0205475
0.0203924
0.0202338
0.0200718
0.0199065
0.0197379
0.0195663
0.0193917
0.0192143
0.019034
0.0188511
0.0186656
0.0184776
0.0182873
0.0180947
0.0178999
0.017703
0.0175042
0.0173035
0.0171009
0.0168967
0.0166908
0.0164834
0.0162745
0.0160642
0.0158526
0.0156398
0.0154258
0.0152108
0.0149948
0.0147778
0.0145599
0.0143412
0.0141217
0.0139016
0.0136808
0.0134594
0.0132374
0.013015
0.0127922
0.0125689
0.0123454
0.0121215
0.0118973
0.0116729
0.0114483
0.0112236
0.0109987
0.0107737
0.0105487
0.0103236
0.0100985
0.00987338
0.00964831
0.00942329
0.00919834
0.00897348
0.00874871
0.00852406
0.00829954
0.00807516
0.00785094
0.00762687
0.00740297
0.00717925
0.00695571
0.00673235
0.00650919
0.00628622
0.00606345
0.00584087
0.00561849
0.00539631
0.00517432
0.00495253
0.00473092
0.0045095
0.00428826
0.00406719
0.0038463
0.00362557
0.003405
0.00318458
0.0029643
0.00274416
0.00252415
0.00230425
0.00208446
0.00186477
0.00164517
0.00142565
0.0012062
0.000986813
0.00076747
0.000548166
0.000328889
0.000109628
0.000123254
0.00036977
0.000616308
0.000862883
0.00110951
0.0013562
0.00160297
0.00184983
0.00209681
0.0023439
0.00259113
0.00283851
0.00308605
0.00333376
0.00358166
0.00382975
0.00407806
0.00432658
0.00457534
0.00482434
0.00507358
0.00532309
0.00557286
0.0058229
0.00607323
0.00632384
0.00657474
0.00682594
0.00707744
0.00732924
0.00758134
0.00783375
0.00808646
0.00833947
0.00859277
0.00884638
0.00910027
0.00935444
0.00960889
0.0098636
0.0101186
0.0103738
0.0106292
0.0108849
0.0111407
0.0113967
0.0116529
0.0119092
0.0121656
0.0124221
0.0126786
0.0129352
0.0131917
0.0134482
0.0137046
0.0139609
0.014217
0.0144729
0.0147285
0.0149838
0.0152388
0.0154933
0.0157474
0.0160009
0.0162538
0.0165061
0.0167576
0.0170084
0.0172582
0.0175071
0.0177549
0.0180017
0.0182472
0.0184914
0.0187343
0.0189757
0.0192155
0.0194536
0.01969
0.0199244
0.0201569
0.0203873
0.0206155
0.0208414
0.0210648
0.0212857
0.0215039
0.0217194
0.0219319
0.0221413
0.0223476
0.0225506
0.0227502
0.0229463
0.0231387
0.0233272
0.0235119
0.0236925
0.0238689
0.0240409
0.0242086
0.0243716
0.02453
0.0246836
0.0248322
0.0249758
0.0251142
0.0252474
0.0253751
0.0254974
0.025614
0.025725
0.0258302
0.0259294
0.0260227
0.02611
0.0261911
0.026266
0.0263347
0.026397
0.0264529
0.0265024
0.0265454
0.0265819
0.0266118
0.0266351
0.0266519
0.026662
0.0266655
0.0266624
0.0266527
0.0266364
0.0266134
0.026584
0.0265479
0.0265054
0.0264565
0.0264011
0.0263393
0.0262713
0.026197
0.0261166
0.0260301
0.0259376
0.0258391
0.0257348
0.0256248
0.025509
0.0253878
0.0252611
0.025129
0.0249917
0.0248493
0.0247019
0.0245495
0.0243924
0.0242306
0.0240642
0.0238935
0.0237184
0.0235392
0.0233559
0.0231686
0.0229776
0.0227829
0.0225846
0.0223828
0.0221778
0.0219695
0.0217582
0.0215439
0.0213267
0.0211068
0.0208843
0.0206593
0.0204319
0.0202023
0.0199704
0.0197365
0.0195006
0.0192628
0.0190232
0.018782
0.0185391
0.0182948
0.0180491
0.017802
0.0175537
0.0173042
0.0170536
0.0168021
0.0165496
0.0162962
0.016042
0.0157871
0.0155315
0.0152753
0.0150185
0.0147613
0.0145036
0.0142455
0.013987
0.0137283
0.0134693
0.01321
0.0129506
0.0126911
0.0124314
0.0121717
0.0119119
0.0116521
0.0113923
0.0111325
0.0108729
0.0106133
0.0103537
0.0100944
0.00983512
0.00957603
0.0093171
0.00905835
0.00879979
0.00854142
0.00828326
0.00802532
0.00776759
0.00751009
0.00725281
0.00699577
0.00673895
0.00648236
0.00622599
0.00596986
0.00571395
0.00545826
0.00520278
0.00494752
0.00469246
0.0044376
0.00418293
0.00392844
0.00367413
0.00341999
0.003166
0.00291216
0.00265846
0.00240488
0.00215142
0.00189806
0.0016448
0.00139162
0.0011385
0.000885441
0.000632427
0.000379443
0.000126479
0.000139666
0.000419007
0.000698373
0.00097778
0.00125725
0.00153679
0.00181642
0.00209616
0.00237602
0.00265602
0.00293617
0.00321649
0.003497
0.0037777
0.00405862
0.00433976
0.00462114
0.00490277
0.00518466
0.00546683
0.00574928
0.00603203
0.00631508
0.00659844
0.00688213
0.00716614
0.00745048
0.00773517
0.00802019
0.00830556
0.00859128
0.00887734
0.00916375
0.0094505
0.0097376
0.010025
0.0103128
0.0106009
0.0108893
0.011178
0.011467
0.0117563
0.0120458
0.0123356
0.0126256
0.0129158
0.0132062
0.0134968
0.0137874
0.0140782
0.014369
0.0146599
0.0149508
0.0152416
0.0155323
0.0158229
0.0161132
0.0164034
0.0166933
0.0169828
0.0172719
0.0175606
0.0178487
0.0181362
0.0184231
0.0187092
0.0189944
0.0192788
0.0195622
0.0198445
0.0201257
0.0204056
0.0206841
0.0209612
0.0212367
0.0215105
0.0217826
0.0220528
0.022321
0.022587
0.0228509
0.0231123
0.0233713
0.0236276
0.0238812
0.0241319
0.0243796
0.0246241
0.0248653
0.0251031
0.0253373
0.0255677
0.0257943
0.0260169
0.0262353
0.0264494
0.0266591
0.0268641
0.0270644
0.0272598
0.0274502
0.0276353
0.0278152
0.0279896
0.0281584
0.0283215
0.0284787
0.0286299
0.028775
0.0289139
0.0290464
0.0291725
0.0292919
0.0294047
0.0295107
0.0296098
0.029702
0.0297871
0.029865
0.0299358
0.0299994
0.0300556
0.0301044
0.0301459
0.0301799
0.0302064
0.0302254
0.0302369
0.0302409
0.0302374
0.0302263
0.0302077
0.0301817
0.0301482
0.0301073
0.0300589
0.0300033
0.0299404
0.0298702
0.0297929
0.0297086
0.0296172
0.0295189
0.0294138
0.0293019
0.0291834
0.0290584
0.028927
0.0287893
0.0286454
0.0284954
0.0283394
0.0281777
0.0280102
0.0278372
0.0276588
0.0274751
0.0272862
0.0270923
0.0268935
0.02669
0.0264819
0.0262693
0.0260524
0.0258314
0.0256063
0.0253773
0.0251445
0.0249081
0.0246682
0.024425
0.0241786
0.023929
0.0236765
0.0234212
0.0231631
0.0229025
0.0226394
0.022374
0.0221063
0.0218365
0.0215647
0.0212911
0.0210156
0.0207384
0.0204596
0.0201794
0.0198977
0.0196147
0.0193305
0.0190452
0.0187588
0.0184714
0.0181832
0.0178941
0.0176042
0.0173137
0.0170226
0.0167308
0.0164386
0.016146
0.0158529
0.0155595
0.0152658
0.0149719
0.0146778
0.0143836
0.0140892
0.0137947
0.0135002
0.0132057
0.0129112
0.0126167
0.0123223
0.0120281
0.0117339
0.0114399
0.011146
0.0108523
0.0105589
0.0102656
0.0099725
0.00967967
0.00938707
0.00909472
0.00880261
0.00851077
0.00821918
0.00792785
0.00763679
0.00734599
0.00705545
0.00676517
0.00647515
0.00618538
0.00589586
0.00560657
0.00531753
0.0050287
0.0047401
0.00445171
0.00416352
0.00387552
0.00358769
0.00330004
0.00301254
0.00272519
0.00243796
0.00215086
0.00186386
0.00157696
0.00129013
0.00100337
0.000716656
0.000429979
0.000143324
0.00015607
0.000468219
0.000780396
0.00109262
0.00140491
0.00171728
0.00202976
0.00234235
0.00265509
0.00296798
0.00328104
0.00359429
0.00390775
0.00422143
0.00453535
0.00484952
0.00516397
0.00547869
0.00579371
0.00610904
0.00642469
0.00674067
0.00705699
0.00737367
0.0076907
0.00800811
0.00832589
0.00864405
0.0089626
0.00928154
0.00960086
0.00992058
0.0102407
0.0105612
0.0108821
0.0112034
0.011525
0.011847
0.0121694
0.0124921
0.0128151
0.0131385
0.0134622
0.0137861
0.0141103
0.0144348
0.0147594
0.0150842
0.0154092
0.0157343
0.0160595
0.0163847
0.0167099
0.017035
0.0173601
0.017685
0.0180097
0.0183342
0.0186584
0.0189822
0.0193055
0.0196283
0.0199506
0.0202722
0.020593
0.020913
0.0212322
0.0215503
0.0218673
0.0221831
0.0224977
0.0228108
0.0231224
0.0234325
0.0237407
0.0240472
0.0243516
0.024654
0.0249541
0.0252519
0.0255472
0.0258398
0.0261297
0.0264166
0.0267005
0.0269811
0.0272584
0.0275321
0.0278022
0.0280684
0.0283306
0.0285887
0.0288424
0.0290917
0.0293363
0.029576
0.0298108
0.0300405
0.0302648
0.0304837
0.0306969
0.0309044
0.0311059
0.0313012
0.0314904
0.0316731
0.0318492
0.0320186
0.0321812
0.0323368
0.0324853
0.0326265
0.0327604
0.0328867
0.0330055
0.0331166
0.0332199
0.0333152
0.0334026
0.0334819
0.0335531
0.0336161
0.0336709
0.0337173
0.0337554
0.0337851
0.0338064
0.0338193
0.0338238
0.0338198
0.0338074
0.0337866
0.0337574
0.0337198
0.033674
0.0336198
0.0335574
0.0334869
0.0334083
0.0333216
0.0332271
0.0331247
0.0330145
0.0328967
0.0327714
0.0326386
0.0324985
0.0323513
0.032197
0.0320357
0.0318677
0.031693
0.0315117
0.0313242
0.0311304
0.0309305
0.0307247
0.0305131
0.030296
0.0300733
0.0298454
0.0296123
0.0293743
0.0291314
0.0288839
0.0286318
0.0283754
0.0281148
0.0278502
0.0275816
0.0273094
0.0270335
0.0267541
0.0264715
0.0261857
0.0258969
0.0256052
0.0253108
0.0250137
0.0247142
0.0244123
0.0241082
0.0238019
0.0234937
0.0231836
0.0228717
0.0225582
0.022243
0.0219265
0.0216086
0.0212894
0.020969
0.0206476
0.0203252
0.0200019
0.0196777
0.0193527
0.0190271
0.0187009
0.0183741
0.0180468
0.0177191
0.0173911
0.0170627
0.016734
0.0164052
0.0160762
0.015747
0.0154178
0.0150885
0.0147592
0.01443
0.0141008
0.0137717
0.0134427
0.0131139
0.0127852
0.0124568
0.0121285
0.0118004
0.0114726
0.011145
0.0108177
0.0104906
0.0101639
0.00983737
0.00951118
0.00918528
0.00885968
0.00853437
0.00820936
0.00788465
0.00756023
0.0072361
0.00691226
0.00658869
0.0062654
0.00594237
0.00561959
0.00529707
0.00497478
0.00465271
0.00433087
0.00400922
0.00368776
0.00336648
0.00304536
0.00272439
0.00240355
0.00208284
0.00176222
0.0014417
0.00112125
0.000800849
0.000480493
0.000160162
0.000172464
0.000517402
0.000862372
0.00120739
0.00155249
0.00189768
0.00224298
0.00258841
0.002934
0.00327976
0.00362572
0.00397188
0.00431828
0.00466492
0.00501183
0.00535902
0.00570651
0.00605431
0.00640245
0.00675093
0.00709976
0.00744897
0.00779855
0.00814853
0.00849891
0.0088497
0.00920091
0.00955255
0.00990462
0.0102571
0.0106101
0.0109634
0.0113172
0.0116715
0.0120262
0.0123813
0.0127368
0.0130928
0.0134491
0.0138059
0.014163
0.0145204
0.0148782
0.0152364
0.0155948
0.0159535
0.0163124
0.0166715
0.0170308
0.0173903
0.0177498
0.0181094
0.018469
0.0188286
0.0191881
0.0195474
0.0199065
0.0202653
0.0206239
0.020982
0.0213396
0.0216967
0.0220531
0.0224089
0.0227638
0.0231178
0.0234709
0.0238228
0.0241736
0.024523
0.0248711
0.0252176
0.0255624
0.0259055
0.0262467
0.0265858
0.0269228
0.0272574
0.0275896
0.0279192
0.0282461
0.0285701
0.028891
0.0292086
0.0295229
0.0298337
0.0301407
0.0304438
0.0307429
0.0310377
0.0313281
0.031614
0.031895
0.0321711
0.032442
0.0327076
0.0329678
0.0332222
0.0334707
0.0337132
0.0339495
0.0341794
0.0344026
0.0346191
0.0348287
0.0350312
0.0352264
0.0354142
0.0355944
0.0357668
0.0359314
0.0360879
0.0362363
0.0363764
0.036508
0.0366312
0.0367456
0.0368514
0.0369482
0.0370362
0.0371151
0.037185
0.0372456
0.0372971
0.0373393
0.0373723
0.0373959
0.0374102
0.0374151
0.0374107
0.0373969
0.0373738
0.0373414
0.0372998
0.0372489
0.0371889
0.0371197
0.0370415
0.0369543
0.0368583
0.0367535
0.0366399
0.0365178
0.0363872
0.0362483
0.0361011
0.0359458
0.0357826
0.0356116
0.0354329
0.0352466
0.035053
0.0348522
0.0346443
0.0344296
0.0342081
0.0339801
0.0337457
0.0335051
0.0332585
0.033006
0.0327478
0.0324841
0.0322151
0.0319409
0.0316618
0.0313778
0.0310892
0.0307962
0.0304988
0.0301973
0.0298918
0.0295826
0.0292697
0.0289533
0.0286336
0.0283107
0.0279848
0.027656
0.0273244
0.0269903
0.0266537
0.0263148
0.0259737
0.0256305
0.0252854
0.0249385
0.0245898
0.0242396
0.0238879
0.0235348
0.0231804
0.0228248
0.0224681
0.0221104
0.0217519
0.0213925
0.0210323
0.0206715
0.0203101
0.0199481
0.0195857
0.0192229
0.0188598
0.0184963
0.0181327
0.0177689
0.0174049