/*--------------------------------*- C++ -*----------------------------------*\
| =========                 |                                                 |
| \\      /  F ield         | OpenFOAM: The Open Source CFD Toolbox           |
|  \\    /   O peration     | Version:  v2012                                 |
|   \\  /    A nd           | Website:  www.openfoam.com                      |
|    \\/     M anipulation  |                                                 |
\*---------------------------------------------------------------------------*/
FoamFile
{
    version     2.0;
    format      ascii;
    class       volScalarField;
    location    "0";
    object      p;
}
// * * * * * * * * * * * * * * * * * * * * * * * * * * * * * * * * * * * * * //

dimensions      [0 2 -2 0 0 0 0];


internalField   nonuniform List<scalar> 
4000
(
1.13862e-13
1.14745e-13
1.19684e-13
1.19021e-13
1.19972e-13
1.19477e-13
1.21983e-13
1.21712e-13
1.16399e-13
1.18524e-13
1.24067e-13
1.21268e-13
1.26579e-13
1.21663e-13
1.12734e-13
1.08835e-13
1.1243e-13
1.24241e-13
1.25274e-13
1.23545e-13
1.03616e-13
9.77128e-14
1.06478e-13
1.01313e-13
9.42017e-14
9.46966e-14
1.01249e-13
9.16254e-14
8.78422e-14
7.28974e-14
5.95496e-14
6.60402e-14
8.68826e-14
8.29231e-14
8.02962e-14
8.67999e-14
8.30863e-14
7.20536e-14
6.56983e-14
6.72719e-14
6.95294e-14
7.39526e-14
7.44996e-14
7.66002e-14
8.68641e-14
8.12604e-14
7.20583e-14
6.61717e-14
6.27421e-14
5.54791e-14
5.50741e-14
5.50115e-14
6.17892e-14
5.96259e-14
5.91821e-14
6.03694e-14
6.11135e-14
5.77867e-14
6.85193e-14
7.60496e-14
8.59225e-14
8.53984e-14
8.0664e-14
7.98719e-14
8.22477e-14
7.97704e-14
7.99323e-14
7.41171e-14
6.00323e-14
5.15797e-14
5.928e-14
5.8372e-14
4.8107e-14
5.73374e-14
5.66425e-14
6.00976e-14
6.03274e-14
6.7899e-14
5.90432e-14
5.38649e-14
5.0743e-14
4.53815e-14
3.71534e-14
3.93312e-14
4.08599e-14
4.27153e-14
3.98558e-14
2.73838e-14
2.46557e-14
2.5117e-14
2.25077e-14
1.62125e-14
1.06456e-14
1.89918e-14
1.54227e-14
1.49869e-14
1.20752e-14
1.35748e-14
1.60973e-14
7.75425e-15
1.13382e-13
1.11991e-13
1.24027e-13
1.20758e-13
1.21151e-13
1.1757e-13
1.18043e-13
1.21047e-13
1.21056e-13
1.16773e-13
1.21503e-13
1.23225e-13
1.25612e-13
1.16057e-13
1.15471e-13
1.18576e-13
1.20829e-13
1.22467e-13
1.20712e-13
1.19997e-13
1.09637e-13
1.00958e-13
9.41028e-14
1.00381e-13
9.62613e-14
9.74426e-14
9.70811e-14
9.14476e-14
8.37302e-14
7.0693e-14
6.90644e-14
7.21213e-14
8.0209e-14
7.76221e-14
7.92618e-14
8.21835e-14
8.46306e-14
7.82518e-14
6.8526e-14
6.75892e-14
7.01308e-14
7.74659e-14
7.59885e-14
7.30151e-14
8.28242e-14
7.97907e-14
6.9984e-14
6.54647e-14
6.27916e-14
5.61078e-14
5.30681e-14
5.83062e-14
6.25736e-14
6.03e-14
6.00403e-14
6.1299e-14
5.64524e-14
5.86172e-14
6.51898e-14
7.63103e-14
8.54684e-14
8.40499e-14
8.52326e-14
8.8151e-14
7.95171e-14
7.81858e-14
7.76045e-14
7.02748e-14
6.76729e-14
6.0197e-14
5.94994e-14
5.44565e-14
5.26418e-14
5.21203e-14
5.56632e-14
6.05009e-14
6.18039e-14
6.5156e-14
5.90901e-14
5.18353e-14
4.65986e-14
4.77132e-14
4.03019e-14
4.13001e-14
4.26475e-14
3.88339e-14
3.74915e-14
2.94687e-14
2.10857e-14
2.37977e-14
2.56918e-14
2.1087e-14
1.80258e-14
1.49952e-14
1.39414e-14
1.01343e-14
1.10617e-14
1.67113e-14
1.38594e-14
7.73823e-15
1.13659e-13
1.14778e-13
1.20898e-13
1.20035e-13
1.20956e-13
1.2038e-13
1.18068e-13
1.18368e-13
1.1949e-13
1.20359e-13
1.18301e-13
1.27257e-13
1.20481e-13
1.16843e-13
1.18805e-13
1.23903e-13
1.24441e-13
1.21915e-13
1.18107e-13
1.15224e-13
1.09467e-13
1.02972e-13
9.57548e-14
9.52397e-14
9.60261e-14
9.8673e-14
9.77971e-14
9.24361e-14
8.51572e-14
7.39661e-14
6.41881e-14
7.15428e-14
7.7246e-14
7.934e-14
7.8451e-14
8.41417e-14
8.0016e-14
7.68479e-14
7.24737e-14
6.53106e-14
7.2285e-14
8.2075e-14
7.23587e-14
7.33103e-14
7.8619e-14
8.06328e-14
7.00993e-14
6.26387e-14
6.36149e-14
6.14384e-14
5.68517e-14
5.59842e-14
5.98688e-14
6.16668e-14
6.0112e-14
5.96556e-14
5.56356e-14
6.11243e-14
7.12388e-14
7.93525e-14
8.57747e-14
7.98837e-14
7.76857e-14
8.52752e-14
8.25996e-14
8.02965e-14
7.77526e-14
7.2438e-14
6.45836e-14
5.82844e-14
5.30066e-14
5.18695e-14
4.92156e-14
5.43933e-14
5.44505e-14
6.39513e-14
6.33506e-14
6.14244e-14
5.91069e-14
5.38099e-14
4.67591e-14
4.62888e-14
4.15557e-14
4.30242e-14
4.29518e-14
3.91518e-14
4.32263e-14
3.06793e-14
2.27663e-14
2.30924e-14
2.42911e-14
2.228e-14
1.79274e-14
1.55033e-14
1.02607e-14
1.194e-14
1.0944e-14
1.11563e-14
1.54295e-14
8.89523e-15
1.17198e-13
1.17354e-13
1.2209e-13
1.1886e-13
1.14837e-13
1.17768e-13
1.18364e-13
1.16852e-13
1.14196e-13
1.18847e-13
1.23704e-13
1.24451e-13
1.19587e-13
1.18125e-13
1.28611e-13
1.2577e-13
1.24043e-13
1.18713e-13
1.15444e-13
1.10952e-13
1.05906e-13
1.07664e-13
9.93109e-14
9.36561e-14
9.53152e-14
9.4513e-14
9.08021e-14
8.47003e-14
8.1019e-14
7.63665e-14
7.76568e-14
7.22485e-14
7.53654e-14
7.11603e-14
7.8958e-14
8.64899e-14
8.10731e-14
7.50771e-14
7.02741e-14
7.01325e-14
7.56519e-14
8.39891e-14
7.62073e-14
7.21276e-14
7.20008e-14
6.95455e-14
7.0232e-14
6.8426e-14
6.34148e-14
6.2817e-14
5.27391e-14
5.54958e-14
6.23457e-14
6.64702e-14
6.25454e-14
6.00577e-14
6.01544e-14
6.21875e-14
7.37184e-14
7.86184e-14
8.31902e-14
8.15612e-14
8.38669e-14
8.41749e-14
7.76082e-14
7.7416e-14
7.54222e-14
6.67715e-14
6.50638e-14
6.01841e-14
5.82172e-14
5.45745e-14
5.24957e-14
5.43881e-14
5.47662e-14
6.12725e-14
6.64021e-14
5.85881e-14
6.07149e-14
5.09031e-14
4.98743e-14
4.66662e-14
4.24116e-14
4.203e-14
3.97659e-14
4.26792e-14
3.9183e-14
3.27347e-14
3.00732e-14
2.33991e-14
2.83833e-14
2.15522e-14
1.84886e-14
1.55623e-14
1.20681e-14
1.48557e-14
1.08033e-14
8.46127e-15
1.02086e-14
4.5133e-15
1.16781e-13
1.20749e-13
1.21924e-13
1.15881e-13
1.15201e-13
1.16827e-13
1.11489e-13
1.18671e-13
1.16477e-13
1.15537e-13
1.17443e-13
1.19877e-13
1.2096e-13
1.23375e-13
1.28367e-13
1.28486e-13
1.25768e-13
1.22462e-13
1.13325e-13
1.01515e-13
1.01219e-13
1.02698e-13
9.40461e-14
9.3605e-14
9.82876e-14
9.49137e-14
9.54301e-14
8.95417e-14
8.23643e-14
7.65714e-14
7.56536e-14
7.60602e-14
7.47673e-14
7.35926e-14
7.38489e-14
8.3796e-14
8.46361e-14
7.94616e-14
6.22605e-14
6.73694e-14
7.78608e-14
8.38339e-14
8.1379e-14
7.48319e-14
6.77955e-14
6.36947e-14
6.59164e-14
6.78952e-14
6.76113e-14
6.28981e-14
6.09472e-14
5.98432e-14
6.48769e-14
6.58114e-14
6.12028e-14
6.15438e-14
6.64189e-14
6.92456e-14
7.33362e-14
7.39786e-14
7.67746e-14
7.99495e-14
8.01842e-14
8.23845e-14
8.3036e-14
8.22551e-14
7.47861e-14
6.72193e-14
6.38065e-14
6.35395e-14
5.05706e-14
5.12013e-14
5.21102e-14
5.61463e-14
5.4655e-14
6.21173e-14
6.23643e-14
6.18167e-14
6.18538e-14
5.24626e-14
4.38084e-14
4.94402e-14
4.68779e-14
4.15629e-14
4.0393e-14
3.80258e-14
3.78689e-14
3.45353e-14
3.4427e-14
2.83896e-14
2.86383e-14
2.29457e-14
1.99831e-14
1.77001e-14
1.53424e-14
1.44562e-14
1.72975e-14
1.04097e-14
5.66215e-15
1.91784e-15
1.14208e-13
1.2286e-13
1.25189e-13
1.15631e-13
1.1376e-13
1.1574e-13
1.10703e-13
1.18308e-13
1.18998e-13
1.14645e-13
1.15915e-13
1.16306e-13
1.19215e-13
1.19863e-13
1.22905e-13
1.28503e-13
1.30348e-13
1.2364e-13
1.16575e-13
1.04121e-13
1.01295e-13
9.72934e-14
8.72013e-14
8.78807e-14
9.58914e-14
9.71451e-14
9.20845e-14
9.09207e-14
7.93337e-14
8.11371e-14
8.086e-14
7.60124e-14
7.36808e-14
8.05222e-14
8.40871e-14
8.41644e-14
7.70191e-14
7.78149e-14
6.77065e-14
7.17801e-14
7.77962e-14
8.09507e-14
8.09664e-14
7.34267e-14
6.20067e-14
6.50872e-14
6.23751e-14
6.6276e-14
6.72181e-14
6.42234e-14
6.39772e-14
6.35701e-14
6.52846e-14
6.39588e-14
6.09153e-14
6.32007e-14
6.49566e-14
6.98783e-14
7.53016e-14
7.69863e-14
7.87823e-14
8.0353e-14
7.91371e-14
8.57458e-14
7.91348e-14
7.21309e-14
7.06374e-14
6.66355e-14
6.40697e-14
6.06361e-14
5.82876e-14
5.4244e-14
5.38677e-14
5.68634e-14
5.75604e-14
5.89555e-14
5.90219e-14
5.86992e-14
6.41833e-14
5.82567e-14
5.10775e-14
4.90564e-14
3.83477e-14
4.50266e-14
3.94379e-14
4.20457e-14
4.03896e-14
3.71428e-14
3.31322e-14
3.0051e-14
3.05832e-14
2.74285e-14
2.05206e-14
1.66765e-14
1.7761e-14
1.31639e-14
1.78564e-14
8.82514e-15
7.03259e-15
3.23145e-15
1.18548e-13
1.19039e-13
1.19456e-13
1.17515e-13
1.17792e-13
1.17702e-13
1.15363e-13
1.14967e-13
1.13086e-13
1.12241e-13
1.10087e-13
1.13182e-13
1.19126e-13
1.25202e-13
1.24236e-13
1.20154e-13
1.25013e-13
1.23475e-13
1.13246e-13
9.84873e-14
9.03405e-14
9.85012e-14
9.75514e-14
1.03854e-13
1.04165e-13
1.00154e-13
8.9347e-14
7.91308e-14
7.56856e-14
7.88826e-14
8.33281e-14
7.61317e-14
8.03656e-14
8.29406e-14
8.21229e-14
8.17351e-14
8.03186e-14
7.8226e-14
6.93295e-14
6.91978e-14
7.81507e-14
7.79292e-14
7.31439e-14
7.44467e-14
6.8132e-14
6.67636e-14
6.68385e-14
6.98106e-14
6.42576e-14
6.2063e-14
6.27765e-14
6.97944e-14
7.00057e-14
5.9237e-14
6.03913e-14
6.49623e-14
6.58374e-14
6.49501e-14
6.89592e-14
6.94563e-14
7.81841e-14
8.44225e-14
8.20061e-14
8.30186e-14
7.5811e-14
7.03583e-14
6.74427e-14
6.17756e-14
5.72448e-14
6.02829e-14
6.7546e-14
5.30979e-14
5.33529e-14
5.71981e-14
6.32572e-14
6.34099e-14
5.67538e-14
5.6068e-14
5.78132e-14
6.14985e-14
5.57539e-14
4.72554e-14
4.71117e-14
4.93849e-14
4.43717e-14
3.72141e-14
3.68162e-14
4.10202e-14
3.2284e-14
3.46726e-14
3.16087e-14
2.3626e-14
1.90201e-14
1.92357e-14
1.92449e-14
1.28031e-14
1.37341e-14
8.98049e-15
8.97563e-15
2.10511e-15
1.22622e-13
1.19694e-13
1.18233e-13
1.15111e-13
1.20249e-13
1.17107e-13
1.19905e-13
1.1168e-13
1.11317e-13
1.1134e-13
1.09696e-13
1.15018e-13
1.15712e-13
1.21142e-13
1.20867e-13
1.18194e-13
1.22767e-13
1.22762e-13
1.12882e-13
1.02523e-13
1.00575e-13
9.62636e-14
9.24329e-14
1.00475e-13
1.06377e-13
9.60036e-14
8.53699e-14
8.04905e-14
7.97152e-14
7.64335e-14
7.80148e-14
8.49673e-14
8.49764e-14
8.78018e-14
8.34961e-14
8.24147e-14
7.71755e-14
7.61472e-14
6.7776e-14
7.18897e-14
7.60773e-14
8.37762e-14
6.97083e-14
7.40923e-14
7.66514e-14
7.19005e-14
6.11382e-14
5.21621e-14
5.96942e-14
6.15144e-14
6.85599e-14
7.207e-14
6.63854e-14
6.11031e-14
6.14677e-14
5.92358e-14
6.86989e-14
7.01468e-14
6.90519e-14
6.61865e-14
7.71311e-14
8.08282e-14
7.97342e-14
8.24207e-14
7.81927e-14
7.38944e-14
6.46726e-14
6.23298e-14
6.51203e-14
6.25045e-14
6.11899e-14
5.23921e-14
5.21796e-14
4.95029e-14
5.66341e-14
6.23715e-14
6.22761e-14
6.24466e-14
6.37571e-14
6.48738e-14
6.22081e-14
4.99637e-14
4.34085e-14
4.14452e-14
3.96561e-14
3.98132e-14
3.64945e-14
4.03652e-14
3.78784e-14
3.66185e-14
2.94261e-14
2.62657e-14
2.12422e-14
1.75115e-14
1.69331e-14
8.94714e-15
1.22361e-14
1.03512e-14
6.17024e-15
-4.77179e-16
1.20543e-13
1.21214e-13
1.17563e-13
1.11258e-13
1.19009e-13
1.15213e-13
1.19768e-13
1.17351e-13
1.10363e-13
1.10261e-13
1.06439e-13
1.07701e-13
1.13553e-13
1.19324e-13
1.21013e-13
1.20114e-13
1.18722e-13
1.15438e-13
1.12456e-13
1.0288e-13
9.91992e-14
9.85091e-14
1.07621e-13
1.00206e-13
9.79421e-14
9.24764e-14
9.30901e-14
8.55106e-14
8.51002e-14
8.16406e-14
7.59288e-14
8.2257e-14
8.39536e-14
8.3183e-14
8.75847e-14
8.80311e-14
8.08756e-14
7.49452e-14
7.42617e-14
7.42679e-14
7.63785e-14
8.0338e-14
6.87754e-14
6.98413e-14
7.65758e-14
7.27991e-14
6.58271e-14
6.42576e-14
6.15541e-14
6.25536e-14
6.32696e-14
6.42206e-14
6.00738e-14
6.64545e-14
6.71647e-14
6.39785e-14
6.83608e-14
6.30872e-14
6.39477e-14
6.84152e-14
7.46398e-14
8.12939e-14
8.24684e-14
8.23164e-14
7.07004e-14
6.86691e-14
6.53027e-14
6.32486e-14
6.10025e-14
5.99183e-14
6.05785e-14
5.61505e-14
5.61934e-14
5.20376e-14
5.64824e-14
6.1395e-14
6.13298e-14
6.68284e-14
6.49386e-14
6.4325e-14
6.22457e-14
5.4238e-14
4.76833e-14
4.24484e-14
3.78315e-14
3.81951e-14
4.059e-14
4.23425e-14
3.97884e-14
3.52956e-14
3.2063e-14
2.92665e-14
2.10696e-14
1.48981e-14
1.96502e-14
8.74231e-15
8.29591e-15
3.93007e-15
1.14349e-15
-3.3172e-15
1.21972e-13
1.18245e-13
1.19999e-13
1.16345e-13
1.15424e-13
1.18308e-13
1.14533e-13
1.19821e-13
1.18151e-13
9.76625e-14
1.02301e-13
1.11982e-13
1.13045e-13
1.14291e-13
1.2168e-13
1.16246e-13
1.1284e-13
1.1651e-13
1.13988e-13
1.04006e-13
1.01825e-13
9.5553e-14
8.98317e-14
9.74342e-14
1.03544e-13
1.00247e-13
9.33281e-14
7.80407e-14
8.77132e-14
8.63081e-14
8.45884e-14
7.80633e-14
8.70655e-14
8.3908e-14
8.63283e-14
8.60078e-14
8.25774e-14
7.37296e-14
6.90698e-14
7.66499e-14
7.55591e-14
7.66651e-14
7.17735e-14
7.17005e-14
7.69452e-14
7.3845e-14
7.45849e-14
6.39474e-14
5.99254e-14
6.29358e-14
5.97584e-14
6.26625e-14
6.36688e-14
6.50565e-14
6.59521e-14
6.68176e-14
6.35669e-14
6.36349e-14
6.63818e-14
7.26981e-14
7.62872e-14
8.38342e-14
8.89302e-14
7.42255e-14
6.48876e-14
6.26836e-14
6.36932e-14
6.49764e-14
6.15976e-14
7.00064e-14
6.294e-14
5.49802e-14
6.07835e-14
5.42802e-14
5.53514e-14
5.70173e-14
5.92399e-14
7.08161e-14
6.37629e-14
6.40004e-14
6.03997e-14
5.49917e-14
4.60708e-14
5.04667e-14
4.73838e-14
3.89143e-14
3.79024e-14
3.64502e-14
3.8273e-14
3.73815e-14
3.29767e-14
2.65667e-14
2.14921e-14
1.23746e-14
1.4633e-14
4.60006e-15
4.16098e-15
1.9944e-15
-4.45588e-15
-4.42874e-15
1.17682e-13
1.16407e-13
1.16506e-13
1.18721e-13
1.17674e-13
1.14893e-13
1.20236e-13
1.21915e-13
1.19093e-13
1.03563e-13
1.01745e-13
1.08419e-13
1.08475e-13
1.14177e-13
1.2092e-13
1.17904e-13
1.13849e-13
1.1473e-13
1.09943e-13
1.05259e-13
9.80448e-14
1.00126e-13
9.29824e-14
9.64824e-14
9.37805e-14
9.68527e-14
9.53354e-14
8.51694e-14
8.79039e-14
9.1138e-14
8.72905e-14
8.30611e-14
8.25092e-14
8.50721e-14
9.0034e-14
8.22991e-14
7.83765e-14
7.50162e-14
7.61086e-14
7.40609e-14
7.49313e-14
7.56809e-14
6.80405e-14
7.5682e-14
7.90632e-14
8.08496e-14
7.76985e-14
6.49149e-14
5.5298e-14
5.50273e-14
5.59047e-14
6.33224e-14
6.74311e-14
6.54826e-14
6.49379e-14
7.03678e-14
6.76596e-14
6.40377e-14
6.79412e-14
6.75698e-14
7.81652e-14
8.07527e-14
8.16443e-14
7.90915e-14
7.29033e-14
6.34984e-14
6.33168e-14
6.39827e-14
6.53194e-14
6.75238e-14
5.89697e-14
5.81857e-14
6.28244e-14
5.49459e-14
5.22234e-14
5.25453e-14
6.24492e-14
6.49216e-14
6.73111e-14
7.10016e-14
6.68395e-14
5.99884e-14
4.6689e-14
4.65047e-14
4.39908e-14
3.47457e-14
4.00276e-14
3.93413e-14
4.15555e-14
3.76297e-14
3.32087e-14
2.61701e-14
2.13996e-14
1.30184e-14
1.33012e-14
5.3302e-15
3.93446e-16
-4.35298e-15
-1.12616e-14
-2.5758e-15
1.21828e-13
1.1845e-13
1.18251e-13
1.18486e-13
1.17948e-13
1.18646e-13
1.188e-13
1.1901e-13
1.21231e-13
1.06083e-13
1.04109e-13
1.01392e-13
1.05971e-13
1.08968e-13
1.16801e-13
1.15261e-13
1.19135e-13
1.15515e-13
1.08107e-13
1.0574e-13
9.90621e-14
1.02323e-13
9.39703e-14
9.37126e-14
9.89316e-14
9.2517e-14
8.39335e-14
8.40957e-14
9.01841e-14
9.59905e-14
9.53246e-14
8.79265e-14
8.26083e-14
7.76837e-14
8.30659e-14
8.50096e-14
8.23545e-14
8.00684e-14
7.30718e-14
7.50272e-14
7.70728e-14
7.80121e-14
7.17683e-14
8.155e-14
7.66474e-14
7.68976e-14
7.48416e-14
6.9576e-14
5.66926e-14
5.91516e-14
5.82452e-14
5.93483e-14
6.89923e-14
6.63319e-14
6.70275e-14
7.18291e-14
6.73337e-14
6.50318e-14
6.97741e-14
7.43841e-14
8.21238e-14
8.73559e-14
8.75448e-14
8.08372e-14
6.40726e-14
5.73346e-14
5.95296e-14
6.24587e-14
6.42317e-14
7.06551e-14
6.27355e-14
5.88704e-14
6.60846e-14
6.33215e-14
5.18096e-14
4.27244e-14
5.44051e-14
6.45766e-14
7.16129e-14
7.17415e-14
6.52007e-14
5.71008e-14
4.7964e-14
4.84646e-14
5.22005e-14
3.75534e-14
3.69499e-14
3.62678e-14
3.89987e-14
3.84467e-14
3.63687e-14
2.88166e-14
2.00902e-14
1.42267e-14
4.61193e-15
1.4102e-15
-2.98138e-16
-3.6154e-15
-6.06381e-15
1.2102e-15
1.20068e-13
1.19339e-13
1.13701e-13
1.19151e-13
1.21521e-13
1.22515e-13
1.16902e-13
1.15668e-13
1.10121e-13
1.02346e-13
1.05378e-13
1.06842e-13
1.1415e-13
1.13857e-13
1.13526e-13
1.10544e-13
1.17986e-13
1.23657e-13
1.07659e-13
1.00148e-13
9.7062e-14
9.66823e-14
8.57322e-14
8.50032e-14
9.19323e-14
9.36375e-14
9.51433e-14
9.09144e-14
8.68169e-14
9.63699e-14
9.47383e-14
9.33674e-14
8.72042e-14
8.78468e-14
8.7848e-14
8.0702e-14
8.13049e-14
7.88834e-14
7.57576e-14
7.67152e-14
7.85216e-14
7.89901e-14
8.14819e-14
7.69084e-14
6.67501e-14
6.88674e-14
7.73099e-14
7.69546e-14
6.5343e-14
6.09654e-14
5.58321e-14
6.05228e-14
6.24202e-14
5.93734e-14
7.0257e-14
7.46388e-14
7.14643e-14
6.67244e-14
7.20328e-14
7.441e-14
7.61254e-14
7.84124e-14
8.84487e-14
8.63143e-14
7.37669e-14
6.32961e-14
5.85331e-14
6.45208e-14
6.52593e-14
6.79112e-14
6.20823e-14
5.75896e-14
5.94661e-14
5.4714e-14
4.95556e-14
5.07185e-14
5.92849e-14
6.39591e-14
7.11109e-14
7.42249e-14
6.38944e-14
5.80544e-14
5.43122e-14
5.22491e-14
4.77671e-14
3.44214e-14
3.81589e-14
4.14489e-14
4.13669e-14
3.54614e-14
2.94964e-14
2.54753e-14
2.34862e-14
2.41181e-14
3.54456e-15
-2.42794e-15
1.43086e-15
-5.20953e-15
-6.6158e-15
-1.35164e-15
1.14831e-13
1.2408e-13
1.20038e-13
1.12944e-13
1.18408e-13
1.16279e-13
1.17103e-13
1.20832e-13
1.11946e-13
1.00047e-13
9.97059e-14
1.04955e-13
1.16575e-13
1.17532e-13
1.13671e-13
1.1023e-13
1.12957e-13
1.16083e-13
1.0754e-13
9.75368e-14
1.03854e-13
1.03975e-13
1.00958e-13
8.93796e-14
8.1744e-14
8.5409e-14
9.24479e-14
9.63892e-14
9.53529e-14
9.7099e-14
9.54463e-14
9.09954e-14
8.57692e-14
8.27787e-14
8.35986e-14
7.58237e-14
8.03744e-14
8.2978e-14
8.50811e-14
8.40498e-14
7.78257e-14
7.53481e-14
7.93131e-14
7.47346e-14
7.47384e-14
7.25971e-14
7.4423e-14
7.17011e-14
6.72206e-14
6.89566e-14
6.04397e-14
5.80589e-14
5.89588e-14
6.2131e-14
7.03458e-14
7.32e-14
7.01495e-14
7.29713e-14
7.79419e-14
7.71782e-14
7.47231e-14
7.41897e-14
8.29843e-14
8.49905e-14
7.46213e-14
6.95323e-14
6.61953e-14
6.58958e-14
6.21472e-14
6.66977e-14
6.46832e-14
5.83905e-14
5.38756e-14
5.60045e-14
5.24627e-14
4.88263e-14
5.88048e-14
6.58921e-14
7.10466e-14
6.63528e-14
6.3187e-14
6.07905e-14
5.57724e-14
4.75414e-14
4.524e-14
3.79243e-14
3.84704e-14
4.09798e-14
4.07139e-14
3.2877e-14
3.17732e-14
2.88431e-14
2.78838e-14
2.00472e-14
3.42879e-15
-4.90129e-15
1.64872e-17
-4.29453e-15
-1.24425e-14
-2.51541e-15
1.20054e-13
1.16695e-13
1.18829e-13
1.15813e-13
1.17125e-13
1.19638e-13
1.15529e-13
1.07025e-13
1.08741e-13
1.0804e-13
1.03855e-13
1.05052e-13
1.10472e-13
1.1658e-13
1.1681e-13
1.12865e-13
1.1201e-13
1.12835e-13
1.12538e-13
1.0444e-13
9.63671e-14
9.80857e-14
8.50301e-14
8.17399e-14
8.57823e-14
9.01655e-14
9.32024e-14
9.58332e-14
9.70328e-14
9.99123e-14
9.67673e-14
9.27136e-14
9.2507e-14
8.32513e-14
7.93583e-14
8.15248e-14
8.66466e-14
8.72845e-14
8.58668e-14
7.97193e-14
7.52153e-14
7.62473e-14
7.45201e-14
6.90547e-14
7.3225e-14
7.84634e-14
7.71714e-14
7.18389e-14
7.08119e-14
7.32904e-14
6.6359e-14
5.94204e-14
5.50314e-14
6.39033e-14
6.61314e-14
6.8984e-14
6.66467e-14
6.9109e-14
7.77218e-14
8.08773e-14
7.69185e-14
7.96491e-14
8.54274e-14
8.2133e-14
7.28516e-14
7.05139e-14
6.75334e-14
6.59936e-14
6.71557e-14
6.75997e-14
6.80882e-14
5.47642e-14
5.26131e-14
5.66092e-14
5.3925e-14
4.59656e-14
5.63168e-14
6.67904e-14
6.72031e-14
7.39145e-14
7.09814e-14
6.40906e-14
5.29188e-14
4.50011e-14
4.42103e-14
3.85669e-14
3.85727e-14
4.07129e-14
3.54024e-14
3.65395e-14
3.40715e-14
2.73329e-14
2.66632e-14
2.66198e-14
1.05021e-14
-6.46941e-15
-6.39026e-15
-4.9782e-15
-1.26139e-14
-1.00648e-15
1.15488e-13
1.21934e-13
1.20969e-13
1.09968e-13
1.15655e-13
1.3029e-13
1.29984e-13
1.09808e-13
1.01484e-13
1.01806e-13
1.05183e-13
1.08561e-13
1.10821e-13
1.13339e-13
1.17115e-13
1.13071e-13
1.08375e-13
1.10264e-13
1.0494e-13
1.04373e-13
8.87739e-14
9.172e-14
9.20996e-14
8.401e-14
8.71252e-14
9.14504e-14
9.10367e-14
9.35882e-14
9.81928e-14
1.01351e-13
9.91587e-14
9.17934e-14
9.55349e-14
8.73565e-14
7.55563e-14
7.61964e-14
7.97151e-14
9.12476e-14
8.40954e-14
8.28916e-14
7.65372e-14
8.14562e-14
7.92728e-14
7.40931e-14
7.37278e-14
7.46308e-14
8.1181e-14
7.41004e-14
6.95876e-14
6.87913e-14
6.58461e-14
6.35201e-14
6.5458e-14
6.49058e-14
6.59268e-14
6.98936e-14
6.94142e-14
7.64675e-14
8.19621e-14
7.27522e-14
7.52271e-14
7.6805e-14
8.05597e-14
8.11475e-14
7.71465e-14
6.93564e-14
6.42638e-14
6.65427e-14
6.3989e-14
6.95675e-14
6.82627e-14
5.8967e-14
6.06634e-14
5.89115e-14
4.9677e-14
4.92749e-14
5.93008e-14
6.81569e-14
6.48365e-14
6.49647e-14
6.92207e-14
6.49492e-14
5.3989e-14
4.85748e-14
4.67511e-14
3.80769e-14
3.9327e-14
4.14507e-14
3.01857e-14
2.95186e-14
3.41451e-14
2.85654e-14
2.58063e-14
2.23094e-14
1.01939e-14
1.80626e-15
-9.82329e-15
-8.43306e-15
-1.17235e-14
-2.01905e-15
1.22906e-13
1.16946e-13
1.13633e-13
1.10659e-13
1.1808e-13
1.14108e-13
1.15186e-13
1.13037e-13
1.15587e-13
1.15673e-13
1.14579e-13
1.06986e-13
1.04823e-13
1.11721e-13
1.11219e-13
1.10902e-13
1.11512e-13
1.19186e-13
1.10326e-13
9.13168e-14
9.14438e-14
8.78807e-14
8.79753e-14
8.80644e-14
8.6585e-14
9.22945e-14
9.05243e-14
8.70612e-14
9.63055e-14
1.06238e-13
1.02712e-13
9.50181e-14
9.43875e-14
7.97129e-14
7.79707e-14
7.98084e-14
9.29265e-14
9.3866e-14
8.81456e-14
8.09064e-14
7.43782e-14
7.27056e-14
8.11564e-14
8.25001e-14
7.92794e-14
7.58513e-14
7.38975e-14
7.25641e-14
7.30052e-14
6.97284e-14
6.6837e-14
7.24825e-14
6.56859e-14
6.54482e-14
6.18057e-14
6.33307e-14
6.87306e-14
7.60421e-14
8.41276e-14
7.76113e-14
8.03658e-14
7.74008e-14
7.83576e-14
8.3063e-14
7.6792e-14
6.62549e-14
6.91635e-14
6.66679e-14
6.4219e-14
6.85031e-14
6.36863e-14
6.07019e-14
6.03292e-14
6.01729e-14
5.6587e-14
4.85272e-14
5.34892e-14
6.12551e-14
6.46156e-14
7.55434e-14
7.39078e-14
6.44595e-14
5.64309e-14
4.90973e-14
4.41473e-14
3.68347e-14
3.89725e-14
3.21264e-14
2.48234e-14
2.81552e-14
3.64421e-14
2.60016e-14
2.59541e-14
2.33759e-14
1.11398e-14
1.84862e-15
-1.13773e-14
-1.23703e-14
-7.79565e-15
5.68878e-17
1.21947e-13
1.15691e-13
1.14414e-13
1.12156e-13
1.20167e-13
1.23374e-13
1.1751e-13
1.09958e-13
1.10605e-13
1.13128e-13
1.10616e-13
1.12712e-13
1.10828e-13
1.09797e-13
1.09793e-13
1.07325e-13
1.07555e-13
1.09187e-13
1.02634e-13
9.4986e-14
9.33097e-14
8.67393e-14
8.67146e-14
9.17326e-14
9.3982e-14
9.2087e-14
8.88738e-14
8.81453e-14
9.74454e-14
1.05279e-13
1.07153e-13
1.00743e-13
9.66607e-14
7.8351e-14
7.16338e-14
8.06294e-14
8.92175e-14
8.97448e-14
9.10867e-14
8.31918e-14
8.31755e-14
7.46757e-14
7.77806e-14
8.03134e-14
7.6508e-14
7.73108e-14
7.29992e-14
7.93432e-14
7.76542e-14
7.32875e-14
7.01875e-14
7.38443e-14
6.98571e-14
6.76681e-14
6.39756e-14
6.78567e-14
6.48795e-14
6.85327e-14
7.86294e-14
7.779e-14
7.79129e-14
7.79245e-14
8.02477e-14
7.82875e-14
7.73907e-14
6.688e-14
7.32852e-14
6.75851e-14
6.29359e-14
6.11956e-14
6.17824e-14
6.18446e-14
6.45034e-14
5.93065e-14
5.63904e-14
5.3217e-14
5.79988e-14
6.24276e-14
6.85149e-14
6.66231e-14
6.38324e-14
6.57514e-14
5.81172e-14
4.87959e-14
4.00257e-14
3.2299e-14
3.57522e-14
2.87011e-14
2.87483e-14
2.92624e-14
3.10216e-14
2.82312e-14
2.4532e-14
1.83624e-14
1.15084e-14
8.077e-15
-5.31e-15
-1.20137e-14
-1.06385e-14
-1.27856e-15
1.16645e-13
1.15452e-13
1.14904e-13
1.14159e-13
1.16172e-13
1.14521e-13
1.1829e-13
1.18094e-13
1.14257e-13
1.13318e-13
1.10126e-13
1.11818e-13
1.10956e-13
1.09798e-13
1.03774e-13
1.0174e-13
1.07306e-13
1.09729e-13
1.05639e-13
1.00973e-13
9.46096e-14
8.59999e-14
8.98506e-14
9.22773e-14
9.26687e-14
9.07412e-14
9.06379e-14
9.28802e-14
9.6143e-14
9.87015e-14
1.03776e-13
9.50803e-14
9.37004e-14
8.22021e-14
7.56893e-14
8.74823e-14
9.81206e-14
9.29075e-14
9.20185e-14
8.68064e-14
7.68695e-14
7.40906e-14
7.49135e-14
7.72742e-14
7.28054e-14
8.18197e-14
8.44031e-14
7.54457e-14
7.61409e-14
7.92067e-14
7.08092e-14
7.65958e-14
7.14633e-14
6.49684e-14
6.56746e-14
7.20486e-14
6.84906e-14
7.34561e-14
7.79812e-14
7.77036e-14
7.71523e-14
7.50084e-14
7.87731e-14
7.64113e-14
7.3472e-14
7.31987e-14
7.04116e-14
6.68707e-14
6.37762e-14
5.87857e-14
5.5135e-14
6.42406e-14
6.94599e-14
6.05846e-14
5.89288e-14
5.79101e-14
5.54557e-14
5.60904e-14
6.67819e-14
6.55809e-14
7.29617e-14
6.3981e-14
5.99571e-14
4.75659e-14
3.89378e-14
3.29918e-14
2.84923e-14
2.7011e-14
3.25056e-14
2.75292e-14
2.98452e-14
2.516e-14
2.24176e-14
1.95143e-14
1.62299e-14
3.49189e-15
-7.35265e-15
-6.15205e-15
-9.34047e-15
-2.7813e-15
1.19734e-13
1.1514e-13
1.12414e-13
1.13887e-13
1.09816e-13
1.12314e-13
1.17951e-13
1.18126e-13
1.13586e-13
1.11113e-13
1.08414e-13
1.09749e-13
1.10431e-13
1.08491e-13
1.09121e-13
1.00023e-13
9.77725e-14
1.02905e-13
1.04347e-13
1.0261e-13
9.55682e-14
9.04369e-14
8.93618e-14
9.04247e-14
9.41324e-14
9.15507e-14
9.6847e-14
9.01532e-14
9.55885e-14
1.05718e-13
1.03633e-13
9.25064e-14
8.22477e-14
8.08302e-14
8.14256e-14
8.70161e-14
9.21624e-14
9.21082e-14
9.2581e-14
8.79665e-14
7.99238e-14
7.62753e-14
7.46673e-14
7.68758e-14
7.64933e-14
8.12665e-14
7.81013e-14
8.07277e-14
8.0956e-14
8.06976e-14
7.73602e-14
7.69529e-14
7.22077e-14
6.68156e-14
6.21016e-14
6.47057e-14
6.43401e-14
7.22613e-14
7.90396e-14
8.19456e-14
7.80007e-14
7.69759e-14
8.21098e-14
7.45816e-14
7.28108e-14
6.92522e-14
6.85436e-14
6.64268e-14
6.17765e-14
5.53475e-14
5.94877e-14
6.81664e-14
6.78388e-14
5.9234e-14
5.86079e-14
5.21083e-14
5.48832e-14
6.17729e-14
6.72438e-14
7.15565e-14
6.87156e-14
6.54196e-14
5.89958e-14
5.04907e-14
3.69319e-14
2.97142e-14
2.87625e-14
2.98663e-14
2.50919e-14
2.64089e-14
2.82408e-14
2.55616e-14
2.72023e-14
1.97608e-14
1.3616e-14
2.06388e-15
-9.26766e-15
-1.23301e-14
-2.16386e-15
1.40908e-16
1.17576e-13
1.12443e-13
1.11304e-13
1.11684e-13
1.05125e-13
1.12064e-13
1.17074e-13
1.17656e-13
1.13981e-13
1.10739e-13
1.07671e-13
1.0793e-13
1.08941e-13
1.06587e-13
1.0521e-13
1.02265e-13
1.04098e-13
1.00053e-13
1.04009e-13
1.01821e-13
9.77949e-14
9.16098e-14
8.61152e-14
9.10941e-14
8.87127e-14
9.80701e-14
9.28606e-14
9.35302e-14
9.726e-14
1.03616e-13
1.02784e-13
9.38672e-14
8.60897e-14
7.88933e-14
7.88524e-14
8.61492e-14
9.22129e-14
9.67027e-14
9.08953e-14
8.57152e-14
8.03842e-14
7.79523e-14
7.58096e-14
7.78529e-14
7.94155e-14
7.90608e-14
7.67033e-14
8.01902e-14
8.09596e-14
7.78447e-14
7.73425e-14
7.55482e-14
7.06582e-14
6.952e-14
6.60349e-14
6.79075e-14
7.08988e-14
7.12467e-14
7.93709e-14
7.98238e-14
8.10011e-14
8.29018e-14
7.66831e-14
7.01582e-14
7.51664e-14
7.5714e-14
6.98016e-14
6.36623e-14
6.05196e-14
5.5547e-14
6.18605e-14
5.78557e-14
6.32962e-14
5.48382e-14
5.66178e-14
5.40708e-14
5.67091e-14
6.55991e-14
6.50064e-14
6.89375e-14
6.71047e-14
6.33482e-14
5.78709e-14
5.20707e-14
3.70123e-14
3.07441e-14
3.13088e-14
2.54283e-14
2.36208e-14
3.17743e-14
2.9047e-14
2.65698e-14
2.02485e-14
1.9157e-14
7.00886e-15
-1.59507e-15
-6.08406e-15
-1.00057e-14
1.50792e-16
-3.27111e-15
1.14336e-13
1.09055e-13
1.10753e-13
1.10296e-13
1.09126e-13
1.1079e-13
1.12633e-13
1.14919e-13
1.11465e-13
1.13045e-13
1.11787e-13
1.06393e-13
1.02563e-13
1.03471e-13
1.00666e-13
9.90115e-14
9.73275e-14
1.03233e-13
1.09501e-13
1.0867e-13
9.77916e-14
8.85218e-14
8.3167e-14
9.26904e-14
9.80826e-14
9.94122e-14
9.24162e-14
8.64578e-14
8.87219e-14
1.03858e-13
1.00894e-13
9.47843e-14
8.97094e-14
8.61507e-14
8.31929e-14
8.40466e-14
8.10304e-14
8.89864e-14
9.15998e-14
8.84561e-14
8.06352e-14
7.50592e-14
7.91103e-14
7.91592e-14
7.77391e-14
7.63012e-14
7.88003e-14
8.83563e-14
8.16499e-14
7.68236e-14
7.63701e-14
7.56198e-14
7.36977e-14
6.90055e-14
6.44716e-14
6.44684e-14
6.64822e-14
7.12491e-14
8.24362e-14
8.5112e-14
8.94793e-14
8.10469e-14
7.90652e-14
7.45894e-14
7.35628e-14
7.61381e-14
7.04671e-14
6.11685e-14
5.71148e-14
5.17657e-14
5.72104e-14
6.77987e-14
6.35131e-14
6.11283e-14
5.52093e-14
4.50258e-14
5.59568e-14
6.6035e-14
6.39031e-14
6.88003e-14
7.02246e-14
6.39363e-14
5.62399e-14
4.73722e-14
3.7097e-14
3.054e-14
3.02534e-14
2.99885e-14
2.42637e-14
2.16329e-14
2.17881e-14
3.14299e-14
2.34073e-14
1.76217e-14
9.0765e-15
1.59208e-15
-3.7457e-15
-1.05868e-14
-1.26468e-14
-4.34049e-15
1.10095e-13
1.11128e-13
1.12414e-13
1.1043e-13
1.09168e-13
1.09261e-13
1.10479e-13
1.12429e-13
1.14014e-13
1.06855e-13
1.08358e-13
1.09348e-13
1.01042e-13
9.73342e-14
1.00919e-13
1.01146e-13
1.04361e-13
1.13795e-13
1.11862e-13
1.01332e-13
8.63772e-14
8.38614e-14
8.04207e-14
9.40751e-14
9.46447e-14
9.16608e-14
9.19281e-14
9.1387e-14
9.70257e-14
9.8618e-14
1.00388e-13
9.41238e-14
8.29722e-14
7.8645e-14
8.68926e-14
8.68313e-14
8.34483e-14
8.78036e-14
8.78096e-14
8.20902e-14
8.10347e-14
8.08365e-14
7.94998e-14
7.80028e-14
7.75715e-14
8.04833e-14
7.71638e-14
7.59839e-14
8.09332e-14
8.14277e-14
7.77708e-14
8.00803e-14
7.59636e-14
7.11805e-14
6.88683e-14
6.40697e-14
5.58377e-14
6.4621e-14
9.06496e-14
9.57233e-14
8.27636e-14
8.03765e-14
8.28008e-14
7.9747e-14
7.15285e-14
7.18195e-14
6.94653e-14
6.104e-14
6.03877e-14
5.84499e-14
5.7966e-14
5.81597e-14
5.75697e-14
5.40986e-14
5.5793e-14
4.89367e-14
5.29285e-14
6.43431e-14
7.43981e-14
6.61112e-14
6.78127e-14
5.89093e-14
5.63303e-14
4.83938e-14
3.93833e-14
3.16381e-14
3.02743e-14
2.82198e-14
2.37098e-14
2.29023e-14
2.81426e-14
2.61734e-14
2.06267e-14
1.38596e-14
1.07462e-14
6.60296e-15
1.5232e-15
-7.09789e-15
-1.44419e-14
-1.72179e-15
1.13035e-13
1.06196e-13
1.06565e-13
1.04722e-13
1.11516e-13
1.11355e-13
1.1805e-13
1.19304e-13
1.12625e-13
1.0482e-13
1.02064e-13
1.11212e-13
9.8369e-14
9.48185e-14
1.02917e-13
1.04355e-13
1.02394e-13
1.06326e-13
1.14317e-13
9.69349e-14
8.80403e-14
8.21119e-14
8.83687e-14
9.1896e-14
9.19353e-14
9.15145e-14
9.58649e-14
9.5712e-14
9.30042e-14
9.21746e-14
9.73728e-14
9.7108e-14
8.66865e-14
8.13898e-14
8.28213e-14
7.78718e-14
8.28217e-14
8.07721e-14
8.27062e-14
8.13606e-14
8.16086e-14
8.41e-14
7.98357e-14
7.68529e-14
7.88306e-14
7.34225e-14
7.83285e-14
8.08237e-14
8.74076e-14
8.0062e-14
7.87276e-14
8.08204e-14
7.55145e-14
6.57504e-14
6.92539e-14
6.45281e-14
6.84459e-14
7.80564e-14
8.49422e-14
8.41937e-14
8.56342e-14
8.35517e-14
7.82746e-14
7.86045e-14
7.52269e-14
7.19603e-14
7.21614e-14
5.88632e-14
5.65678e-14
5.46728e-14
5.84516e-14
5.81545e-14
6.06381e-14
5.81241e-14
5.55924e-14
5.07266e-14
5.38875e-14
5.97736e-14
6.76325e-14
6.72562e-14
6.49637e-14
5.6061e-14
5.32742e-14
4.84638e-14
4.17646e-14
3.94754e-14
3.54234e-14
2.96473e-14
3.28507e-14
2.62473e-14
2.55757e-14
2.39401e-14
1.98471e-14
1.45021e-14
8.99588e-15
7.31831e-15
9.45542e-16
-8.60979e-15
-1.04616e-14
-1.79361e-15
1.11949e-13
1.09659e-13
1.06572e-13
1.09804e-13
1.14648e-13
1.16796e-13
1.07408e-13
1.09932e-13
1.09159e-13
1.07492e-13
1.01228e-13
1.036e-13
1.02872e-13
1.00315e-13
9.7721e-14
1.05309e-13
1.04299e-13
1.08251e-13
1.04034e-13
9.80375e-14
9.03536e-14
8.60777e-14
8.27197e-14
8.04988e-14
9.09228e-14
9.06307e-14
9.42568e-14
9.62853e-14
9.90496e-14
1.01731e-13
9.60173e-14
9.53827e-14
8.63253e-14
8.19932e-14
7.83866e-14
7.56636e-14
8.25412e-14
7.63196e-14
8.69632e-14
8.27963e-14
7.77031e-14
7.52443e-14
7.98368e-14
7.79713e-14
7.54803e-14
7.87415e-14
8.5857e-14