/*--------------------------------*- C++ -*----------------------------------*\
| =========                 |                                                 |
| \\      /  F ield         | OpenFOAM: The Open Source CFD Toolbox           |
|  \\    /   O peration     | Version:  v2012                                 |
|   \\  /    A nd           | Website:  www.openfoam.com                      |
|    \\/     M anipulation  |                                                 |
\*---------------------------------------------------------------------------*/
FoamFile
{
    version     2.0;
    format      ascii;
    class       volVectorField;
    location    "0";
    object      U;
}
// * * * * * * * * * * * * * * * * * * * * * * * * * * * * * * * * * * * * * //

dimensions      [0 1 -1 0 0 0 0];


internalField   nonuniform List<vector> 
4000
(
(1 -3.34605e-15 0)
(1 8.44924e-15 0)
(1 3.84316e-16 0)
(1 -2.05948e-15 0)
(1 -1.71389e-15 0)
(1 -1.86967e-15 0)
(1 1.44148e-15 0)
(1 2.04054e-15 0)
(1 -7.04278e-17 0)
(1 -2.58458e-15 0)
(1 2.61595e-15 0)
(1 -1.07617e-15 0)
(1 3.17666e-15 0)
(1 2.21159e-15 0)
(1 6.97399e-15 0)
(1 1.08931e-15 0)
(1 -6.82805e-15 0)
(1 -8.71811e-15 0)
(1 -3.22954e-15 0)
(1 -3.87551e-15 0)
(1 1.22053e-15 0)
(1 -1.20652e-14 0)
(1 2.69253e-15 0)
(1 -5.54881e-15 0)
(1 5.3231e-15 0)
(1 -4.46545e-15 0)
(1 2.37923e-15 0)
(1 4.43515e-15 0)
(1 4.65917e-15 0)
(1 8.73308e-15 0)
(1 4.67302e-15 0)
(1 -4.2618e-15 0)
(1 -4.14844e-15 0)
(1 2.68987e-15 0)
(1 1.6124e-15 0)
(1 5.70638e-15 0)
(1 5.67568e-15 0)
(1 5.74563e-16 0)
(1 -1.06813e-15 0)
(1 -2.22412e-15 0)
(1 -5.86718e-16 0)
(1 -1.65306e-15 0)
(1 -3.44198e-15 0)
(1 -3.5864e-15 0)
(1 -1.97987e-15 0)
(1 9.72951e-16 0)
(1 2.16194e-15 0)
(1 3.83407e-15 0)
(1 -1.54146e-15 0)
(1 -4.88316e-16 0)
(1 4.4173e-16 0)
(1 1.78346e-15 0)
(1 -4.70786e-16 0)
(1 -2.48905e-15 0)
(1 2.807e-15 0)
(1 -3.18316e-15 0)
(1 -2.86328e-15 0)
(1 -1.57613e-15 0)
(1 1.2619e-15 0)
(1 4.99877e-15 0)
(1 5.31893e-15 0)
(1 4.22785e-15 0)
(1 1.50218e-15 0)
(1 -2.98536e-15 0)
(1 -4.03951e-15 0)
(1 9.88176e-16 0)
(1 -3.55346e-15 0)
(1 6.85492e-15 0)
(1 6.02742e-16 0)
(1 3.22919e-16 0)
(1 -5.47182e-15 0)
(1 -2.37629e-15 0)
(1 -2.69871e-15 0)
(1 -2.08299e-15 0)
(1 -3.88938e-15 0)
(1 -1.36042e-15 0)
(1 -1.80192e-15 0)
(1 -6.49076e-16 0)
(1 1.43496e-15 0)
(1 -3.3345e-16 0)
(1 -1.54928e-16 0)
(1 1.06661e-15 0)
(1 4.10789e-16 0)
(1 7.27843e-16 0)
(1 1.34604e-15 0)
(1 -1.56895e-15 0)
(1 1.26577e-15 0)
(1 -5.44684e-16 0)
(1 -1.88167e-15 0)
(1 6.52943e-15 0)
(1 1.29352e-15 0)
(1 2.04922e-15 0)
(1 -5.68352e-15 0)
(1 -3.3722e-15 0)
(1 -9.10266e-16 0)
(1 -3.58966e-16 0)
(1 -1.03717e-15 0)
(1 -2.68502e-15 0)
(1 -1.58937e-15 0)
(1 -3.45701e-16 0)
(1 -4.60505e-16 0)
(1 4.39748e-15 0)
(1 5.0767e-15 0)
(1 -5.47347e-15 0)
(1 7.69364e-16 0)
(1 -2.69983e-15 0)
(1 1.01544e-15 0)
(1 5.67484e-16 0)
(1 3.40739e-15 0)
(1 -7.15287e-15 0)
(1 4.74502e-15 0)
(1 1.61587e-15 0)
(1 4.34173e-15 0)
(1 7.2396e-15 0)
(1 1.07602e-14 0)
(1 2.27143e-15 0)
(1 -9.60937e-15 0)
(1 -1.41767e-14 0)
(1 -4.18177e-15 0)
(1 -4.20688e-15 0)
(1 2.4294e-15 0)
(1 -1.54619e-14 0)
(1 1.14438e-15 0)
(1 -6.01669e-15 0)
(1 6.10483e-15 0)
(1 -7.27627e-15 0)
(1 -3.70267e-17 0)
(1 4.52266e-15 0)
(1 1.9671e-15 0)
(1 7.5985e-15 0)
(1 5.99088e-15 0)
(1 2.57996e-15 0)
(1 3.57252e-15 0)
(1 3.71859e-16 0)
(1 -2.3276e-15 0)
(1 2.36664e-15 0)
(1 2.77686e-15 0)
(1 5.49609e-15 0)
(1 -1.56142e-15 0)
(1 -2.09446e-15 0)
(1 -3.82107e-16 0)
(1 -4.77442e-15 0)
(1 -5.54878e-15 0)
(1 -6.92677e-15 0)
(1 -2.12221e-15 0)
(1 3.56774e-16 0)
(1 -9.56233e-16 0)
(1 3.70341e-15 0)
(1 7.19093e-16 0)
(1 -1.03673e-15 0)
(1 -1.90713e-15 0)
(1 1.37522e-15 0)
(1 1.55656e-16 0)
(1 3.31681e-16 0)
(1 -1.45002e-15 0)
(1 1.26073e-15 0)
(1 -1.03922e-15 0)
(1 2.30779e-15 0)
(1 -2.37004e-15 0)
(1 2.77994e-15 0)
(1 2.46368e-15 0)
(1 1.86189e-15 0)
(1 5.09401e-15 0)
(1 2.56691e-15 0)
(1 -2.3975e-15 0)
(1 -1.12102e-15 0)
(1 -4.12041e-15 0)
(1 2.44517e-15 0)
(1 -6.91237e-17 0)
(1 -4.54852e-15 0)
(1 1.07728e-15 0)
(1 -2.22519e-15 0)
(1 1.65843e-15 0)
(1 9.65082e-16 0)
(1 3.08032e-15 0)
(1 1.63806e-15 0)
(1 -1.10969e-16 0)
(1 5.02236e-16 0)
(1 5.53029e-15 0)
(1 -3.44835e-16 0)
(1 -1.13088e-15 0)
(1 -7.54829e-16 0)
(1 -1.08194e-15 0)
(1 3.50187e-15 0)
(1 2.58643e-15 0)
(1 3.04234e-15 0)
(1 -2.21182e-15 0)
(1 -3.38938e-15 0)
(1 -5.56557e-15 0)
(1 9.58725e-16 0)
(1 3.27071e-15 0)
(1 4.99592e-15 0)
(1 -5.90082e-15 0)
(1 -3.63376e-15 0)
(1 -4.97471e-15 0)
(1 3.21643e-15 0)
(1 3.48143e-17 0)
(1 3.23166e-17 0)
(1 -1.37621e-15 0)
(1 -1.51696e-15 0)
(1 3.26398e-15 0)
(1 -8.39235e-15 0)
(1 4.05256e-15 0)
(1 -8.17202e-15 0)
(1 1.04562e-15 0)
(1 2.36529e-15 0)
(1 1.18216e-15 0)
(1 1.02491e-15 0)
(1 5.91356e-15 0)
(1 1.33675e-15 0)
(1 2.31678e-15 0)
(1 4.06036e-15 0)
(1 1.99126e-15 0)
(1 1.28113e-14 0)
(1 2.65016e-15 0)
(1 -1.78069e-15 0)
(1 -5.91433e-15 0)
(1 -6.45065e-15 0)
(1 -4.09974e-15 0)
(1 3.94127e-15 0)
(1 3.2063e-15 0)
(1 3.81523e-15 0)
(1 -7.50078e-15 0)
(1 -6.16983e-15 0)
(1 -3.62445e-15 0)
(1 -5.53156e-15 0)
(1 1.49871e-15 0)
(1 7.59513e-15 0)
(1 1.01811e-14 0)
(1 9.76162e-15 0)
(1 5.90803e-15 0)
(1 9.66669e-15 0)
(1 6.70441e-15 0)
(1 4.77288e-15 0)
(1 2.4373e-15 0)
(1 -2.86194e-15 0)
(1 -6.28913e-15 0)
(1 -8.13747e-16 0)
(1 2.57659e-15 0)
(1 -1.4773e-15 0)
(1 -6.45411e-15 0)
(1 -7.97694e-15 0)
(1 -8.78167e-15 0)
(1 -6.37607e-15 0)
(1 -8.26133e-15 0)
(1 4.29362e-15 0)
(1 1.67743e-15 0)
(1 4.36259e-16 0)
(1 2.80382e-15 0)
(1 4.37339e-16 0)
(1 5.16526e-16 0)
(1 1.21364e-15 0)
(1 2.6169e-15 0)
(1 1.16179e-15 0)
(1 -3.27293e-15 0)
(1 1.11488e-15 0)
(1 5.79448e-16 0)
(1 1.01837e-15 0)
(1 -2.86884e-15 0)
(1 -2.90813e-15 0)
(1 4.6873e-15 0)
(1 7.12151e-17 0)
(1 4.22283e-15 0)
(1 1.45973e-15 0)
(1 4.84458e-17 0)
(1 -1.08011e-15 0)
(1 3.13811e-15 0)
(1 7.26817e-16 0)
(1 9.79736e-16 0)
(1 -4.61654e-16 0)
(1 1.47158e-15 0)
(1 -2.46756e-15 0)
(1 -2.20458e-15 0)
(1 -1.02353e-15 0)
(1 -1.41047e-15 0)
(1 4.16583e-15 0)
(1 -3.34027e-15 0)
(1 -2.43789e-15 0)
(1 2.83679e-15 0)
(1 -2.12169e-16 0)
(1 -1.76261e-15 0)
(1 -5.71406e-15 0)
(1 -9.92471e-16 0)
(1 -1.6344e-15 0)
(1 6.28478e-15 0)
(1 4.67674e-15 0)
(1 6.45186e-17 0)
(1 4.01253e-16 0)
(1 -5.60083e-15 0)
(1 -1.91083e-15 0)
(1 -3.60816e-15 0)
(1 -1.69795e-15 0)
(1 -1.80161e-15 0)
(1 1.01964e-15 0)
(1 -1.50747e-15 0)
(1 -2.36169e-15 0)
(1 -3.46051e-15 0)
(1 1.33541e-16 0)
(1 -9.8648e-16 0)
(1 3.44317e-16 0)
(1 3.81637e-15 0)
(1 -9.40922e-15 0)
(1 1.56766e-15 0)
(1 -9.44552e-15 0)
(1 -7.18348e-16 0)
(1 7.53416e-16 0)
(1 5.75179e-15 0)
(1 4.84301e-15 0)
(1 -2.41909e-15 0)
(1 2.95745e-15 0)
(1 4.21791e-15 0)
(1 6.47467e-15 0)
(1 1.20704e-14 0)
(1 8.74203e-15 0)
(1 3.87102e-15 0)
(1 -2.36709e-15 0)
(1 -3.90653e-15 0)
(1 -8.16139e-15 0)
(1 -1.02273e-14 0)
(1 -8.75107e-16 0)
(1 5.30458e-15 0)
(1 3.56399e-15 0)
(1 1.88192e-15 0)
(1 5.36081e-15 0)
(1 -2.5073e-15 0)
(1 7.04991e-16 0)
(1 4.91089e-15 0)
(1 4.43648e-15 0)
(1 1.14537e-14 0)
(1 8.60922e-15 0)
(1 3.99955e-15 0)
(1 2.91425e-15 0)
(1 2.89098e-15 0)
(1 1.64312e-15 0)
(1 3.73863e-15 0)
(1 1.32257e-15 0)
(1 -1.318e-15 0)
(1 -7.73143e-15 0)
(1 7.34053e-15 0)
(1 4.49689e-15 0)
(1 -3.29791e-15 0)
(1 -3.73913e-15 0)
(1 -5.89197e-15 0)
(1 -7.44866e-15 0)
(1 -9.43982e-15 0)
(1 3.5717e-15 0)
(1 7.4218e-15 0)
(1 4.9088e-15 0)
(1 3.62105e-15 0)
(1 2.93438e-15 0)
(1 3.98134e-15 0)
(1 -1.07853e-15 0)
(1 -5.0302e-15 0)
(1 -4.99989e-15 0)
(1 -1.47122e-15 0)
(1 -1.54332e-15 0)
(1 -5.98209e-15 0)
(1 -4.74154e-15 0)
(1 -2.85643e-15 0)
(1 -1.75673e-15 0)
(1 5.64339e-15 0)
(1 7.7709e-15 0)
(1 4.16011e-15 0)
(1 4.96672e-15 0)
(1 2.13328e-15 0)
(1 -2.66037e-15 0)
(1 2.66454e-16 0)
(1 -1.70117e-15 0)
(1 -1.73737e-15 0)
(1 -2.24795e-15 0)
(1 -5.55126e-15 0)
(1 -5.75194e-16 0)
(1 -2.64505e-15 0)
(1 -3.78094e-15 0)
(1 -2.48661e-15 0)
(1 1.13921e-15 0)
(1 2.22206e-16 0)
(1 3.6893e-16 0)
(1 6.52289e-16 0)
(1 -2.74624e-16 0)
(1 -1.82319e-15 0)
(1 1.12945e-15 0)
(1 2.62731e-16 0)
(1 -4.25327e-15 0)
(1 4.56262e-15 0)
(1 6.03727e-15 0)
(1 6.89098e-15 0)
(1 6.17556e-15 0)
(1 5.78962e-16 0)
(1 2.25766e-15 0)
(1 -2.92265e-15 0)
(1 -4.58235e-15 0)
(1 2.38603e-16 0)
(1 5.77431e-16 0)
(1 -3.34337e-15 0)
(1 -3.55366e-15 0)
(1 -8.34347e-15 0)
(1 -9.81497e-15 0)
(1 -2.87134e-15 0)
(1 9.50943e-16 0)
(1 2.55246e-15 0)
(1 -8.87636e-16 0)
(1 -2.47755e-15 0)
(1 -4.83849e-15 0)
(1 -1.49018e-15 0)
(1 5.25887e-16 0)
(1 3.90172e-15 0)
(1 1.49615e-15 0)
(1 -8.28981e-15 0)
(1 -9.87877e-17 0)
(1 3.75959e-15 0)
(1 4.24512e-16 0)
(1 1.39724e-14 0)
(1 -2.36412e-15 0)
(1 1.19322e-14 0)
(1 5.38555e-15 0)
(1 -4.33316e-17 0)
(1 -1.08455e-14 0)
(1 -6.85259e-15 0)
(1 -1.17808e-14 0)
(1 -4.11038e-15 0)
(1 -5.2085e-15 0)
(1 1.16741e-14 0)
(1 1.31194e-14 0)
(1 1.41867e-14 0)
(1 6.88808e-15 0)
(1 8.36072e-15 0)
(1 -1.23215e-15 0)
(1 5.11066e-15 0)
(1 6.27001e-15 0)
(1 1.49519e-15 0)
(1 3.76276e-15 0)
(1 1.04666e-14 0)
(1 3.82632e-15 0)
(1 -3.97595e-15 0)
(1 -5.02899e-15 0)
(1 -5.78786e-15 0)
(1 -6.47562e-15 0)
(1 -2.74746e-15 0)
(1 -2.2728e-15 0)
(1 -5.03199e-15 0)
(1 -4.72429e-15 0)
(1 -1.38633e-15 0)
(1 -6.89049e-15 0)
(1 -5.47164e-15 0)
(1 -3.61721e-15 0)
(1 2.45127e-15 0)
(1 9.06289e-15 0)
(1 1.01499e-14 0)
(1 6.52825e-15 0)
(1 1.1759e-15 0)
(1 -2.39001e-15 0)
(1 -6.15858e-15 0)
(1 -3.27148e-15 0)
(1 1.94193e-16 0)
(1 2.51826e-15 0)
(1 1.13276e-15 0)
(1 4.2954e-15 0)
(1 -9.65723e-16 0)
(1 -1.78275e-15 0)
(1 1.91194e-15 0)
(1 3.11456e-15 0)
(1 3.96526e-15 0)
(1 3.46088e-15 0)
(1 -2.26482e-16 0)
(1 -3.70154e-16 0)
(1 1.86018e-15 0)
(1 -5.07746e-15 0)
(1 -7.61556e-17 0)
(1 -1.72358e-15 0)
(1 3.5475e-15 0)
(1 6.4558e-16 0)
(1 9.21305e-16 0)
(1 -5.3873e-15 0)
(1 3.23887e-15 0)
(1 -1.84144e-15 0)
(1 3.17508e-15 0)
(1 5.073e-15 0)
(1 6.58299e-15 0)
(1 4.7974e-15 0)
(1 -4.15743e-15 0)
(1 2.56077e-15 0)
(1 5.03251e-16 0)
(1 4.07822e-15 0)
(1 3.07764e-18 0)
(1 6.02362e-15 0)
(1 4.04714e-15 0)
(1 5.67964e-16 0)
(1 2.88381e-15 0)
(1 -4.69885e-15 0)
(1 1.58176e-15 0)
(1 -5.7539e-15 0)
(1 -9.53343e-16 0)
(1 -2.6854e-15 0)
(1 -6.18491e-15 0)
(1 2.19946e-15 0)
(1 -4.88894e-15 0)
(1 -7.95119e-15 0)
(1 -6.25762e-16 0)
(1 1.79217e-15 0)
(1 -3.66189e-15 0)
(1 4.56746e-15 0)
(1 -2.68801e-15 0)
(1 4.86862e-16 0)
(1 -2.1885e-15 0)
(1 -8.9265e-17 0)
(1 -4.20717e-15 0)
(1 -9.18884e-15 0)
(1 -1.06003e-15 0)
(1 2.2061e-15 0)
(1 1.28397e-15 0)
(1 3.99182e-15 0)
(1 8.11568e-15 0)
(1 -1.63272e-16 0)
(1 3.20618e-15 0)
(1 6.3655e-15 0)
(1 4.52469e-15 0)
(1 -2.24741e-15 0)
(1 4.49328e-15 0)
(1 -3.12202e-15 0)
(1 1.61978e-15 0)
(1 9.511e-15 0)
(1 4.81199e-15 0)
(1 -3.37679e-15 0)
(1 -2.43565e-15 0)
(1 -2.93459e-15 0)
(1 -5.3051e-15 0)
(1 5.98129e-15 0)
(1 8.59556e-15 0)
(1 1.71029e-14 0)
(1 7.5487e-15 0)
(1 1.12972e-14 0)
(1 9.42916e-15 0)
(1 7.09574e-15 0)
(1 -6.98121e-17 0)
(1 -2.0792e-15 0)
(1 -7.95513e-15 0)
(1 -2.67346e-15 0)
(1 -4.59422e-15 0)
(1 -5.73878e-15 0)
(1 -8.19683e-15 0)
(1 -5.92107e-15 0)
(1 2.95643e-15 0)
(1 3.34328e-15 0)
(1 3.95463e-15 0)
(1 -2.51499e-15 0)
(1 -4.15432e-15 0)
(1 -1.64078e-15 0)
(1 2.34752e-15 0)
(1 2.85567e-15 0)
(1 6.01809e-15 0)
(1 3.14611e-15 0)
(1 -4.4701e-15 0)
(1 -5.78203e-15 0)
(1 6.261e-16 0)
(1 -1.19588e-15 0)
(1 1.46678e-15 0)
(1 1.49127e-15 0)
(1 8.19936e-15 0)
(1 5.07641e-15 0)
(1 7.00398e-15 0)
(1 2.3982e-15 0)
(1 -6.65772e-16 0)
(1 -4.42135e-15 0)
(1 1.47479e-15 0)
(1 6.32635e-15 0)
(1 6.91964e-15 0)
(1 7.87267e-15 0)
(1 1.00576e-14 0)
(1 1.74286e-14 0)
(1 6.90592e-15 0)
(1 -8.76504e-17 0)
(1 -2.96191e-15 0)
(1 -3.47395e-15 0)
(1 -9.47183e-15 0)
(1 -9.4766e-15 0)
(1 -8.17602e-15 0)
(1 1.39103e-15 0)
(1 8.25806e-15 0)
(1 9.3811e-15 0)
(1 -6.24525e-16 0)
(1 2.27847e-15 0)
(1 7.80454e-15 0)
(1 5.95786e-15 0)
(1 -3.49701e-15 0)
(1 6.12507e-16 0)
(1 4.84341e-15 0)
(1 3.53421e-15 0)
(1 -2.3628e-15 0)
(1 -3.23669e-15 0)
(1 -4.8423e-15 0)
(1 -4.31479e-15 0)
(1 -2.47409e-15 0)
(1 -9.73436e-16 0)
(1 1.64197e-16 0)
(1 -2.88937e-15 0)
(1 3.41764e-15 0)
(1 2.10563e-15 0)
(1 4.69128e-15 0)
(1 4.71199e-15 0)
(1 -4.66193e-15 0)
(1 -6.97898e-16 0)
(1 -1.2823e-15 0)
(1 6.00116e-15 0)
(1 6.24757e-16 0)
(1 -2.86071e-15 0)
(1 -5.73941e-15 0)
(1 -1.28928e-14 0)
(1 3.91163e-15 0)
(1 -2.5241e-15 0)
(1 5.0236e-15 0)
(1 4.53347e-15 0)
(1 1.866e-15 0)
(1 5.64362e-15 0)
(1 5.08463e-16 0)
(1 2.96187e-15 0)
(1 7.16728e-15 0)
(1 6.06201e-15 0)
(1 5.07349e-15 0)
(1 7.55753e-15 0)
(1 3.40284e-15 0)
(1 7.33027e-15 0)
(1 -1.60545e-15 0)
(1 1.85302e-16 0)
(1 -9.27562e-15 0)
(1 -2.99029e-15 0)
(1 -6.125e-16 0)
(1 3.05783e-15 0)
(1 3.21358e-15 0)
(1 7.65194e-15 0)
(1 1.25241e-14 0)
(1 9.93187e-15 0)
(1 5.84385e-15 0)
(1 -4.69223e-15 0)
(1 -1.35632e-15 0)
(1 1.29928e-15 0)
(1 3.58356e-15 0)
(1 -1.32498e-15 0)
(1 2.33197e-15 0)
(1 -8.95771e-16 0)
(1 -4.73266e-16 0)
(1 -3.92548e-15 0)
(1 1.04083e-15 0)
(1 1.01895e-14 0)
(1 7.30865e-15 0)
(1 -7.42116e-15 0)
(1 -8.56366e-15 0)
(1 -3.67505e-16 0)
(1 7.69103e-15 0)
(1 3.35631e-15 0)
(1 6.12379e-15 0)
(1 1.45818e-15 0)
(1 -3.25261e-15 0)
(1 -5.50218e-15 0)
(1 -5.22908e-15 0)
(1 3.81163e-15 0)
(1 1.18213e-15 0)
(1 -4.28694e-15 0)
(1 1.81287e-17 0)
(1 4.18537e-15 0)
(1 4.53042e-15 0)
(1 7.71056e-15 0)
(1 8.42726e-16 0)
(1 4.66462e-15 0)
(1 6.00521e-15 0)
(1 1.17315e-15 0)
(1 1.81486e-15 0)
(1 1.65111e-15 0)
(1 2.12785e-15 0)
(1 3.17132e-17 0)
(1 -8.6711e-16 0)
(1 7.4157e-16 0)
(1 1.0756e-15 0)
(1 3.36331e-15 0)
(1 -6.5279e-17 0)
(1 3.88486e-16 0)
(1 2.10918e-15 0)
(1 5.33709e-15 0)
(1 5.46086e-15 0)
(1 3.76685e-15 0)
(1 3.33859e-15 0)
(1 1.50989e-15 0)
(1 4.34869e-15 0)
(1 7.94583e-15 0)
(1 3.89691e-15 0)
(1 4.08646e-15 0)
(1 8.79808e-15 0)
(1 9.12997e-15 0)
(1 4.69963e-16 0)
(1 1.56637e-16 0)
(1 -2.86426e-15 0)
(1 2.67867e-15 0)
(1 1.14853e-15 0)
(1 -1.58961e-16 0)
(1 2.68351e-16 0)
(1 1.75523e-15 0)
(1 8.59882e-15 0)
(1 5.37001e-15 0)
(1 6.25e-15 0)
(1 7.24517e-15 0)
(1 -1.49563e-15 0)
(1 -1.31781e-15 0)
(1 -4.88038e-15 0)
(1 6.0388e-15 0)
(1 1.21847e-15 0)
(1 -2.3515e-15 0)
(1 7.33378e-16 0)
(1 -7.40322e-15 0)
(1 -6.81278e-16 0)
(1 -7.97296e-15 0)
(1 -1.93301e-15 0)
(1 8.0027e-16 0)
(1 1.84603e-16 0)
(1 8.56416e-15 0)
(1 8.31223e-15 0)
(1 5.58996e-15 0)
(1 2.78019e-15 0)
(1 6.14745e-15 0)
(1 6.17266e-15 0)
(1 1.14218e-14 0)
(1 -7.74458e-15 0)
(1 -1.23102e-15 0)
(1 -1.19753e-14 0)
(1 -3.72355e-15 0)
(1 -3.01271e-15 0)
(1 9.90604e-15 0)
(1 1.23293e-14 0)
(1 2.94234e-15 0)
(1 -2.93393e-15 0)
(1 -6.02184e-15 0)
(1 7.14298e-15 0)
(1 4.41639e-15 0)
(1 1.68077e-15 0)
(1 5.63542e-15 0)
(1 5.51904e-15 0)
(1 -1.01208e-15 0)
(1 9.49899e-16 0)
(1 -1.39314e-15 0)
(1 -2.56219e-15 0)
(1 -6.23733e-15 0)
(1 -3.8243e-15 0)
(1 -1.65875e-15 0)
(1 -1.12142e-15 0)
(1 8.92075e-15 0)
(1 4.83411e-15 0)
(1 1.02262e-15 0)
(1 -5.94092e-16 0)
(1 2.99859e-15 0)
(1 4.76826e-15 0)
(1 1.19393e-15 0)
(1 4.18144e-16 0)
(1 -2.95386e-16 0)
(1 1.04801e-14 0)
(1 4.11308e-15 0)
(1 -7.89962e-16 0)
(1 -3.95278e-15 0)
(1 3.32946e-15 0)
(1 -2.68474e-15 0)
(1 -3.87128e-17 0)
(1 1.2051e-15 0)
(1 6.16958e-15 0)
(1 5.28383e-15 0)
(1 5.135e-15 0)
(1 4.01415e-15 0)
(1 2.093e-15 0)
(1 5.12747e-15 0)
(1 7.54245e-15 0)
(1 5.63576e-15 0)
(1 3.37418e-15 0)
(1 -1.61218e-15 0)
(1 7.62239e-15 0)
(1 6.4442e-15 0)
(1 1.10269e-15 0)
(1 3.18407e-15 0)
(1 1.39027e-15 0)
(1 5.25265e-15 0)
(1 9.54513e-15 0)
(1 6.81376e-15 0)
(1 -5.31221e-16 0)
(1 -1.35872e-15 0)
(1 1.21325e-15 0)
(1 -2.0687e-15 0)
(1 -5.01165e-15 0)
(1 5.80225e-15 0)
(1 1.11205e-14 0)
(1 6.08603e-15 0)
(1 2.9984e-15 0)
(1 1.01508e-15 0)
(1 -6.54419e-16 0)
(1 -8.14185e-16 0)
(1 2.11313e-15 0)
(1 5.0387e-16 0)
(1 1.77589e-15 0)
(1 1.95367e-15 0)
(1 9.91161e-16 0)
(1 2.66125e-15 0)
(1 3.31043e-16 0)
(1 4.61614e-15 0)
(1 6.31245e-15 0)
(1 1.34524e-14 0)
(1 1.19452e-15 0)
(1 -2.619e-15 0)
(1 4.63269e-15 0)
(1 -5.55626e-15 0)
(1 -1.68795e-15 0)
(1 -8.16767e-15 0)
(1 -3.37269e-15 0)
(1 5.20011e-15 0)
(1 -1.18977e-14 0)
(1 -4.96961e-15 0)
(1 3.32116e-15 0)
(1 7.2356e-15 0)
(1 2.65311e-15 0)
(1 7.30454e-15 0)
(1 8.34913e-15 0)
(1 3.92051e-15 0)
(1 -9.19434e-16 0)
(1 7.37535e-15 0)
(1 9.08968e-16 0)
(1 8.53196e-15 0)
(1 -5.77937e-15 0)
(1 -3.76135e-15 0)
(1 -2.74131e-15 0)
(1 1.77471e-15 0)
(1 5.68717e-15 0)
(1 1.23844e-14 0)
(1 -1.52249e-15 0)
(1 9.29635e-16 0)
(1 -1.09214e-14 0)
(1 -6.8614e-15 0)
(1 -5.28463e-15 0)
(1 -2.11198e-15 0)
(1 -4.20458e-15 0)
(1 5.18094e-15 0)
(1 8.83214e-15 0)
(1 2.95802e-15 0)
(1 7.67144e-16 0)
(1 1.96363e-15 0)
(1 1.65853e-15 0)
(1 1.84643e-15 0)
(1 -4.32039e-15 0)
(1 7.27866e-15 0)
(1 4.04015e-15 0)
(1 8.46786e-15 0)
(1 9.14253e-15 0)
(1 1.4401e-14 0)
(1 4.93642e-15 0)
(1 -1.19324e-15 0)
(1 -4.17171e-15 0)
(1 -3.76569e-15 0)
(1 -2.8065e-15 0)
(1 2.87105e-15 0)
(1 6.16941e-15 0)
(1 1.62143e-15 0)
(1 7.21553e-16 0)
(1 -5.26106e-15 0)
(1 -3.85921e-15 0)
(1 4.07316e-15 0)
(1 4.37661e-15 0)
(1 9.75931e-15 0)
(1 -1.01239e-15 0)
(1 8.55362e-15 0)
(1 -7.60922e-15 0)
(1 -2.79461e-15 0)
(1 2.50526e-15 0)
(1 1.17452e-14 0)
(1 1.4613e-14 0)
(1 1.60052e-14 0)
(1 1.81264e-14 0)
(1 1.75385e-14 0)
(1 9.0708e-15 0)
(1 8.62307e-15 0)
(1 1.81925e-15 0)
(1 -6.32942e-17 0)
(1 -8.82104e-15 0)
(1 -3.8464e-15 0)
(1 2.92316e-15 0)
(1 3.84587e-15 0)
(1 -1.82783e-15 0)
(1 3.70297e-15 0)
(1 2.06274e-15 0)
(1 8.19646e-15 0)
(1 5.55383e-15 0)
(1 4.06778e-15 0)
(1 2.67927e-15 0)
(1 -2.05481e-15 0)
(1 -4.29309e-15 0)
(1 8.65875e-16 0)
(1 3.13385e-15 0)
(1 9.27191e-16 0)
(1 4.23503e-15 0)
(1 3.20233e-15 0)
(1 6.53152e-15 0)
(1 6.38681e-15 0)
(1 8.6652e-15 0)
(1 6.18542e-15 0)
(1 9.9509e-15 0)
(1 1.1816e-14 0)
(1 1.94701e-14 0)
(1 2.2266e-14 0)
(1 9.5665e-16 0)
(1 2.09584e-15 0)
(1 5.80316e-15 0)
(1 2.40401e-15 0)
(1 -6.56913e-15 0)
(1 -1.2686e-15 0)
(1 -2.90504e-15 0)
(1 3.0638e-15 0)
(1 -5.22519e-15 0)
(1 -2.49332e-15 0)
(1 6.2755e-15 0)
(1 3.34475e-15 0)
(1 6.03779e-15 0)
(1 2.73449e-15 0)
(1 4.32907e-15 0)
(1 -8.67061e-16 0)
(1 5.29881e-16 0)
(1 3.4323e-15 0)
(1 -3.86029e-15 0)
(1 -6.66815e-15 0)
(1 -3.49232e-15 0)
(1 -1.21752e-14 0)
(1 8.6006e-15 0)
(1 5.59327e-15 0)
(1 1.11085e-14 0)
(1 7.39368e-15 0)
(1 1.9273e-15 0)
(1 -1.03761e-15 0)
(1 9.50913e-16 0)
(1 -1.77948e-15 0)
(1 -3.53897e-15 0)
(1 -7.49327e-15 0)
(1 -6.74133e-15 0)
(1 -2.02213e-15 0)
(1 -5.82692e-15 0)
(1 -1.11896e-15 0)
(1 2.90744e-15 0)
(1 5.17437e-15 0)
(1 -1.16614e-16 0)
(1 3.6514e-15 0)
(1 2.11492e-15 0)
(1 6.29638e-15 0)
(1 6.93021e-15 0)
(1 5.09923e-15 0)
(1 4.42785e-15 0)
(1 3.6694e-15 0)
(1 -9.77893e-16 0)
(1 -2.03949e-15 0)
(1 -2.31315e-15 0)
(1 2.81317e-15 0)
(1 5.72434e-15 0)
(1 9.81318e-15 0)
(1 4.87103e-15 0)
(1 3.43068e-15 0)
(1 2.02139e-15 0)
(1 6.48008e-15 0)
(1 -7.26816e-16 0)
(1 3.77529e-15 0)
(1 -2.29103e-15 0)
(1 8.17067e-15 0)
(1 4.21476e-15 0)
(1 4.73186e-15 0)
(1 8.08046e-15 0)
(1 5.08256e-15 0)
(1 7.98191e-15 0)
(1 6.33904e-15 0)
(1 9.38692e-15 0)
(1 1.38351e-14 0)
(1 1.18378e-14 0)
(1 9.63817e-15 0)
(1 2.51921e-15 0)
(1 4.91315e-15 0)
(1 1.32929e-15 0)
(1 -8.05129e-16 0)
(1 -1.91684e-15 0)
(1 5.67195e-15 0)
(1 8.69755e-15 0)
(1 8.67823e-15 0)
(1 6.32395e-15 0)
(1 4.60368e-15 0)
(1 3.68394e-16 0)
(1 -7.77786e-17 0)
(1 2.23701e-15 0)
(1 1.17079e-15 0)
(1 3.8134e-15 0)
(1 -6.31007e-16 0)
(1 3.6381e-15 0)
(1 5.54594e-16 0)
(1 6.43656e-15 0)
(1 -2.61908e-15 0)
(1 2.46608e-15 0)
(1 5.5538e-15 0)
(1 9.1129e-15 0)
(1 3.62247e-15 0)
(1 8.58643e-15 0)
(1 6.88058e-15 0)
(1 1.15542e-14 0)
(1 1.26627e-14 0)
(1 2.74918e-14 0)
(1 2.26965e-14 0)
(1 5.04853e-17 0)
(1 4.51888e-16 0)
(1 -3.46577e-16 0)
(1 3.5925e-15 0)
(1 -3.6371e-15 0)
(1 -2.09623e-15 0)
(1 -1.87718e-15 0)
(1 -5.11547e-15 0)
(1 1.17788e-15 0)
(1 -6.39771e-15 0)
(1 -8.606e-15 0)
(1 -5.44922e-15 0)
(1 7.97436e-15 0)
(1 -1.48993e-15 0)
(1 7.7287e-15 0)
(1 3.33555e-15 0)
(1 7.41624e-15 0)
(1 2.50836e-15 0)
(1 -1.19363e-15 0)
(1 -6.3108e-15 0)
(1 5.07036e-16 0)
(1 -2.51466e-15 0)
(1 -3.20316e-17 0)
(1 -3.34413e-15 0)
(1 -7.5095e-17 0)
(1 -2.09516e-15 0)
(1 4.61177e-15 0)
(1 3.97146e-15 0)
(1 9.12547e-15 0)
(1 1.45308e-15 0)
(1 2.97651e-15 0)
(1 -7.4494e-15 0)
(1 -1.127e-14 0)
(1 -6.85396e-15 0)
(1 2.37496e-15 0)
(1 7.13422e-15 0)
(1 6.23132e-15 0)
(1 3.78172e-15 0)
(1 1.49576e-15 0)
(1 -3.18719e-15 0)
(1 1.07158e-14 0)
(1 2.63275e-15 0)
(1 1.11902e-14 0)
(1 -3.84379e-15 0)
(1 1.69278e-15 0)
(1 -3.32832e-16 0)
(1 5.46815e-15 0)
(1 -1.50682e-15 0)
(1 -1.32845e-15 0)
(1 5.62257e-15 0)
(1 5.55362e-15 0)
(1 3.44249e-15 0)
(1 7.97014e-15 0)
(1 4.02455e-15 0)
(1 4.27182e-15 0)
(1 1.23312e-15 0)
(1 4.00006e-15 0)
(1 -2.65843e-15 0)
(1 6.87648e-15 0)
(1 1.05074e-15 0)
(1 1.18865e-14 0)
(1 -3.67081e-15 0)
(1 9.72005e-15 0)
(1 2.31293e-15 0)
(1 6.40434e-15 0)
(1 1.34455e-15 0)
(1 1.04433e-14 0)
(1 1.35731e-14 0)
(1 1.46517e-14 0)
(1 4.46517e-15 0)
(1 9.3104e-15 0)
(1 3.76627e-15 0)
(1 2.3636e-16 0)
(1 -5.47439e-15 0)
(1 -6.9549e-16 0)
(1 4.14691e-15 0)
(1 1.33138e-14 0)
(1 9.928e-15 0)
(1 8.88953e-15 0)
(1 9.71332e-16 0)
(1 4.52099e-15 0)
(1 -2.11739e-15 0)
(1 1.44362e-15 0)
(1 3.41636e-15 0)
(1 5.13783e-15 0)
(1 1.42738e-15 0)
(1 7.76939e-15 0)
(1 3.31545e-15 0)
(1 6.63266e-15 0)
(1 9.53631e-16 0)
(1 -1.5931e-15 0)
(1 1.55426e-15 0)
(1 4.60507e-15 0)
(1 5.91651e-15 0)
(1 4.50067e-15 0)
(1 4.41123e-15 0)
(1 8.05741e-15 0)
(1 1.43062e-14 0)
(1 1.67568e-14 0)
(1 1.24137e-14 0)
(1 3.9723e-15 0)
(1 -6.62991e-15 0)
(1 3.15692e-15 0)
(1 -5.13167e-16 0)
(1 4.83754e-16 0)
(1 -8.82322e-15 0)
(1 -8.94803e-15 0)
(1 -2.8416e-15 0)
(1 1.46756e-15 0)
(1 7.36396e-15 0)
(1 7.70745e-15 0)
(1 4.51564e-15 0)
(1 1.84168e-15 0)
(1 -2.85435e-15 0)
(1 -1.40645e-15 0)
(1 4.84201e-15 0)
(1 1.06262e-14 0)
(1 -4.46893e-15 0)
(1 -1.15045e-14 0)
(1 -9.95979e-15 0)
(1 -4.81189e-15 0)
(1 3.95363e-15 0)
(1 7.59551e-16 0)
(1 6.65551e-15 0)
(1 7.77536e-15 0)
(1 5.20103e-15 0)
(1 4.81625e-15 0)
(1 4.52297e-16 0)
(1 3.03045e-15 0)
(1 2.77734e-15 0)
(1 2.74177e-15 0)
(1 -1.25564e-15 0)
(1 -3.96273e-15 0)
(1 -9.88128e-15 0)
(1 -3.19371e-15 0)
(1 -1.98602e-15 0)
(1 7.25491e-16 0)
(1 -4.55805e-15 0)
(1 2.72601e-15 0)
(1 -3.32298e-15 0)
(1 4.53795e-15 0)
(1 5.37843e-16 0)
(1 1.77291e-15 0)
(1 -1.15192e-14 0)
(1 1.52136e-15 0)
(1 1.02983e-14 0)
(1 1.93685e-14 0)
(1 1.19838e-14 0)
(1 7.27696e-15 0)
(1 2.95063e-15 0)
(1 -3.02061e-15 0)
(1 -3.23678e-15 0)
(1 3.70271e-16 0)
(1 9.7757e-15 0)
(1 8.32734e-15 0)
(1 3.31393e-15 0)
(1 3.38158e-15 0)
(1 1.53356e-15 0)
(1 5.19129e-15 0)
(1 1.65396e-15 0)
(1 1.49449e-15 0)
(1 7.84706e-15 0)
(1 5.96103e-15 0)
(1 2.44318e-15 0)
(1 2.6153e-15 0)
(1 5.04399e-16 0)
(1 5.91906e-15 0)
(1 7.26202e-15 0)
(1 4.97952e-15 0)
(1 4.31095e-15 0)
(1 6.45651e-15 0)
(1 1.16992e-14 0)
(1 4.25985e-15 0)
(1 -1.88631e-15 0)
(1 5.15543e-15 0)
(1 3.08476e-15 0)
(1 4.69883e-15 0)
(1 4.41886e-15 0)
(1 1.08537e-14 0)
(1 4.83353e-15 0)
(1 4.81293e-15 0)
(1 1.06421e-14 0)
(1 6.66787e-15 0)
(1 7.70621e-15 0)
(1 -3.8814e-16 0)
(1 -3.83816e-15 0)
(1 2.06763e-15 0)
(1 3.19383e-15 0)
(1 4.81283e-15 0)
(1 3.90095e-15 0)
(1 -7.84818e-16 0)
(1 4.93469e-15 0)
(1 4.54721e-15 0)
(1 7.60285e-15 0)
(1 1.66664e-15 0)
(1 1.38152e-14 0)
(1 1.40681e-14 0)
(1 1.53002e-14 0)
(1 3.05291e-15 0)
(1 4.18209e-15 0)
(1 4.75677e-15 0)
(1 9.77352e-16 0)
(1 -4.17074e-15 0)
(1 5.9863e-16 0)
(1 9.45074e-16 0)
(1 1.10427e-15 0)
(1 1.6402e-16 0)
(1 1.20109e-15 0)
(1 -2.31155e-15 0)
(1 7.8795e-15 0)
(1 7.27939e-15 0)
(1 1.42983e-14 0)
(1 -3.31737e-15 0)
(1 -2.08341e-15 0)
(1 -8.96339e-15 0)
(1 -3.0092e-15 0)
(1 5.19118e-15 0)
(1 -3.37471e-15 0)
(1 -2.85685e-15 0)
(1 -4.65881e-15 0)
(1 6.08918e-15 0)
(1 -4.13956e-15 0)
(1 -5.36772e-15 0)
(1 -1.01465e-14 0)
(1 -3.42345e-15 0)
(1 6.04782e-15 0)
(1 6.5949e-15 0)
(1 -1.60085e-15 0)
(1 -4.99455e-15 0)
(1 -4.1252e-15 0)
(1 -1.23121e-15 0)
(1 -1.00757e-15 0)
(1 1.97936e-15 0)
(1 1.12329e-15 0)
(1 -6.01754e-15 0)
(1 2.13844e-15 0)
(1 7.16991e-15 0)
(1 7.3809e-15 0)
(1 -2.3621e-16 0)
(1 -1.57883e-15 0)
(1 -9.71494e-15 0)
(1 -3.85821e-15 0)
(1 -6.01082e-15 0)
(1 2.65313e-15 0)
(1 3.72411e-15 0)
(1 8.2498e-15 0)
(1 9.3825e-15 0)
(1 1.38053e-14 0)
(1 9.6285e-15 0)
(1 -9.77546e-16 0)
(1 5.30917e-17 0)
(1 -2.39699e-15 0)
(1 1.5845e-15 0)
(1 6.70649e-15 0)
(1 5.99543e-15 0)
(1 3.92157e-15 0)
(1 1.45566e-15 0)
(1 1.65043e-15 0)
(1 -2.31864e-15 0)
(1 -9.64143e-16 0)
(1 -2.72018e-15 0)
(1 7.19083e-15 0)
(1 1.6653e-14 0)
(1 1.66767e-14 0)
(1 1.17489e-14 0)
(1 7.08067e-15 0)
(1 -9.66862e-16 0)
(1 -3.39015e-15 0)
(1 -5.27537e-15 0)
(1 2.82831e-15 0)
(1 4.97263e-15 0)
(1 6.93471e-15 0)
(1 3.73733e-15 0)
(1 9.83376e-15 0)
(1 1.15772e-14 0)
(1 3.91317e-15 0)
(1 -4.69433e-15 0)
(1 3.17432e-15 0)
(1 4.3406e-15 0)
(1 5.87498e-15 0)
(1 5.23699e-15 0)
(1 7.67099e-15 0)
(1 1.65597e-15 0)
(1 2.98135e-15 0)
(1 5.38394e-15 0)
(1 8.23334e-15 0)
(1 1.5194e-15 0)
(1 1.08975e-15 0)
(1 -1.21182e-15 0)
(1 1.23316e-17 0)
(1 3.61307e-15 0)
(1 2.70515e-15 0)
(1 -3.97171e-16 0)
(1 2.8342e-15 0)
(1 2.66957e-15 0)
(1 1.26983e-14 0)
(1 8.89073e-15 0)
(1 8.48253e-15 0)
(1 5.81115e-15 0)
(1 6.49117e-15 0)
(1 -3.50686e-15 0)
(1 6.7374e-15 0)
(1 -1.27737e-15 0)
(1 -3.17054e-15 0)
(1 9.3061e-16 0)
(1 3.72467e-15 0)
(1 6.43461e-16 0)
(1 6.87213e-15 0)
(1 8.63018e-15 0)
(1 1.98827e-15 0)
(1 -5.97109e-15 0)
(1 3.88146e-15 0)
(1 -3.28036e-16 0)
(1 4.90585e-15 0)
(1 -6.08966e-16 0)
(1 -4.05845e-15 0)
(1 -4.61154e-15 0)
(1 -3.2247e-15 0)
(1 2.72007e-15 0)
(1 -8.13748e-15 0)
(1 -1.14199e-15 0)
(1 -8.93918e-15 0)
(1 -4.95246e-15 0)
(1 -1.91503e-15 0)
(1 1.44722e-15 0)
(1 -2.78836e-16 0)
(1 7.82362e-16 0)
(1 5.11112e-16 0)
(1 -8.81419e-15 0)
(1 -5.35284e-15 0)
(1 -8.20321e-16 0)
(1 -6.03845e-16 0)
(1 1.76906e-15 0)
(1 -1.86088e-15 0)
(1 9.08361e-15 0)
(1 1.45008e-14 0)
(1 9.63154e-15 0)
(1 4.07337e-15 0)
(1 -4.50329e-15 0)
(1 -2.75889e-15 0)
(1 -1.19343e-14 0)
(1 -3.02096e-15 0)
(1 -6.47252e-15 0)
(1 1.11787e-14 0)
(1 9.31636e-15 0)
(1 2.99424e-15 0)
(1 2.5322e-15 0)
(1 7.05053e-15 0)
(1 1.06787e-14 0)
(1 2.51984e-16 0)
(1 -3.94619e-15 0)
(1 -8.30123e-15 0)
(1 2.93915e-15 0)
(1 -1.93895e-15 0)
(1 4.72984e-15 0)
(1 3.12274e-15 0)
(1 8.10595e-15 0)
(1 1.02913e-14 0)
(1 9.72667e-15 0)
(1 3.51673e-15 0)
(1 3.6997e-15 0)
(1 2.82337e-15 0)
(1 5.1764e-16 0)
(1 2.57917e-15 0)
(1 1.21329e-14 0)
(1 1.52932e-14 0)
(1 5.23756e-15 0)
(1 1.04187e-15 0)
(1 4.67408e-15 0)
(1 6.95127e-15 0)
(1 7.22255e-15 0)
(1 4.08044e-16 0)
(1 3.2952e-15 0)
(1 1.26245e-14 0)
(1 6.96557e-15 0)
(1 5.96249e-15 0)
(1 6.90602e-15 0)
(1 1.17008e-14 0)
(1 7.74971e-15 0)
(1 8.35894e-15 0)
(1 4.44384e-15 0)
(1 -1.62147e-17 0)
(1 1.29892e-17 0)
(1 1.66151e-15 0)
(1 8.77397e-15 0)
(1 1.14214e-14 0)
(1 6.87758e-16 0)
(1 2.91763e-15 0)
(1 1.67887e-16 0)
(1 2.82272e-15 0)
(1 1.96873e-15 0)
(1 1.29203e-15 0)
(1 -1.64488e-15 0)
(1 2.86444e-15 0)
(1 7.48911e-15 0)
(1 8.2966e-15 0)
(1 9.18351e-15 0)
(1 8.12383e-15 0)
(1 1.49536e-14 0)
(1 1.0725e-14 0)
(1 1.09316e-15 0)
(1 2.8795e-15 0)
(1 1.97993e-15 0)
(1 2.23269e-15 0)
(1 7.4197e-15 0)
(1 7.24006e-16 0)
(1 -1.1908e-14 0)
(1 -8.64028e-15 0)
(1 4.34641e-15 0)
(1 6.57012e-15 0)
(1 1.41029e-15 0)
(1 -1.84522e-15 0)
(1 -1.10638e-15 0)
(1 1.03327e-14 0)
(1 -5.23887e-15 0)
(1 -3.90697e-15 0)
(1 -1.02258e-14 0)
(1 -1.20016e-14 0)
(1 -2.22868e-15 0)
(1 -8.31714e-15 0)
(1 -8.77883e-15 0)
(1 8.84692e-15 0)
(1 4.05398e-15 0)
(1 1.42389e-14 0)
(1 1.09423e-14 0)
(1 9.59859e-16 0)
(1 -4.9958e-15 0)
(1 -2.53388e-15 0)
(1 -5.11706e-15 0)
(1 -9.46549e-16 0)
(1 -3.65836e-15 0)
(1 3.48348e-15 0)
(1 1.36449e-15 0)
(1 -8.36958e-15 0)
(1 -1.9485e-15 0)
(1 -1.26613e-15 0)
(1 5.66826e-15 0)
(1 -1.76055e-15 0)
(1 -1.4928e-15 0)
(1 3.74631e-15 0)
(1 3.0717e-15 0)
(1 7.32187e-15 0)
(1 -6.27294e-15 0)
(1 3.19175e-15 0)
(1 7.42267e-16 0)
(1 9.65779e-15 0)
(1 9.52597e-15 0)
(1 -1.03108e-15 0)
(1 1.08281e-15 0)
(1 3.17214e-15 0)
(1 -1.33725e-15 0)
(1 3.72846e-15 0)
(1 -4.41017e-16 0)
(1 3.91421e-15 0)
(1 1.94573e-15 0)
(1 1.23111e-15 0)
(1 4.22415e-15 0)
(1 4.50976e-15 0)
(1 4.12748e-15 0)
(1 6.10206e-15 0)
(1 9.80199e-15 0)
(1 6.95972e-15 0)
(1 2.81617e-15 0)
(1 5.61901e-15 0)
(1 1.00797e-14 0)
(1 8.67436e-15 0)
(1 8.32177e-15 0)
(1 7.21849e-15 0)
(1 1.05343e-14 0)
(1 1.06684e-14 0)
(1 3.95586e-15 0)
(1 6.93537e-15 0)
(1 3.45965e-15 0)
(1 5.29351e-15 0)
(1 7.79814e-15 0)
(1 1.08979e-14 0)
(1 1.24344e-14 0)
(1 6.66734e-15 0)
(1 6.74176e-15 0)
(1 9.16537e-15 0)
(1 5.27779e-15 0)
(1 2.51318e-15 0)
(1 2.35349e-15 0)
(1 3.87643e-15 0)
(1 4.7695e-15 0)
(1 1.72951e-15 0)
(1 8.08563e-16 0)
(1 -6.76264e-15 0)
(1 -2.09831e-15 0)
(1 -1.00582e-15 0)
(1 1.97469e-15 0)
(1 3.9351e-15 0)
(1 5.90496e-15 0)
(1 2.60807e-15 0)
(1 9.38244e-15 0)
(1 4.87591e-15 0)
(1 1.11886e-14 0)
(1 1.23086e-14 0)
(1 1.30596e-14 0)
(1 1.07978e-14 0)
(1 -1.23441e-15 0)
(1 -2.20725e-15 0)
(1 -3.98814e-15 0)
(1 7.92378e-15 0)
(1 1.80143e-15 0)
(1 6.86132e-15 0)
(1 7.57719e-15 0)
(1 8.92499e-15 0)
(1 4.64951e-16 0)
(1 1.51623e-15 0)
(1 -4.02014e-15 0)
(1 -1.39104e-14 0)
(1 -1.39831e-15 0)
(1 -7.67729e-16 0)
(1 1.78557e-15 0)
(1 -2.54293e-15 0)
(1 5.08331e-17 0)
(1 -7.83757e-15 0)
(1 -1.53576e-14 0)
(1 -2.49611e-15 0)
(1 -3.15107e-15 0)
(1 5.97881e-15 0)
(1 3.63188e-15 0)
(1 -3.85457e-15 0)
(1 -4.37034e-15 0)
(1 -7.29793e-15 0)
(1 -1.00692e-14 0)
(1 -7.32874e-15 0)
(1 1.96826e-15 0)
(1 -5.28965e-15 0)
(1 -1.45124e-15 0)
(1 4.25794e-15 0)
(1 3.33699e-15 0)
(1 1.06912e-14 0)
(1 9.65475e-16 0)
(1 4.11158e-15 0)
(1 7.34472e-15 0)
(1 7.84185e-16 0)
(1 1.06622e-15 0)
(1 2.65232e-15 0)
(1 4.44166e-15 0)
(1 6.51296e-15 0)
(1 7.45758e-15 0)
(1 -2.00474e-15 0)
(1 -7.92183e-15 0)
(1 -8.01488e-15 0)
(1 -5.97592e-17 0)
(1 3.04903e-15 0)
(1 -2.12926e-15 0)
(1 -8.76994e-16 0)
(1 7.24738e-15 0)
(1 6.51201e-15 0)
(1 3.09965e-15 0)
(1 -1.17311e-15 0)
(1 -8.67359e-16 0)
(1 3.33523e-15 0)
(1 7.93969e-15 0)
(1 1.8301e-15 0)
(1 2.48462e-16 0)
(1 -1.44003e-15 0)
(1 6.35131e-15 0)
(1 -4.27839e-15 0)
(1 3.25136e-15 0)
(1 7.69713e-15 0)
(1 2.11288e-15 0)
(1 2.54408e-15 0)
(1 9.52702e-15 0)
(1 3.03073e-15 0)
(1 1.20253e-14 0)
(1 5.32684e-15 0)
(1 6.75015e-15 0)
(1 4.47069e-15 0)
(1 7.17008e-15 0)
(1 5.07195e-15 0)
(1 8.40649e-15 0)
(1 7.52633e-15 0)
(1 1.0533e-14 0)
(1 2.20515e-15 0)
(1 5.78442e-15 0)
(1 1.18874e-14 0)
(1 1.88178e-15 0)
(1 6.16273e-15 0)
(1 3.53562e-17 0)
(1 2.0945e-15 0)
(1 2.01819e-15 0)
(1 -4.33974e-15 0)
(1 -1.72303e-15 0)
(1 -5.79507e-15 0)
(1 -1.20058e-15 0)
(1 8.43118e-16 0)
(1 9.01548e-15 0)
(1 4.8355e-15 0)
(1 7.32918e-15 0)
(1 3.83922e-15 0)
(1 9.78325e-15 0)
(1 7.24249e-15 0)