/*--------------------------------*- C++ -*----------------------------------*\
| =========                 |                                                 |
| \\      /  F ield         | OpenFOAM: The Open Source CFD Toolbox           |
|  \\    /   O peration     | Version:  v2012                                 |
|   \\  /    A nd           | Website:  www.openfoam.com                      |
|    \\/     M anipulation  |                                                 |
\*---------------------------------------------------------------------------*/
FoamFile
{
    version     2.0;
    format      ascii;
    class       volScalarField;
    location    "15.25";
    object      Psi_z;
}
// * * * * * * * * * * * * * * * * * * * * * * * * * * * * * * * * * * * * * //

dimensions      [0 2 -1 0 0 0 0];


internalField   nonuniform List<scalar> 
65536
(
8.47578e-06
2.54279e-05
4.23816e-05
5.93381e-05
7.62982e-05
9.32631e-05
0.000110234
0.000127211
0.000144197
0.000161191
0.000178195
0.000195209
0.000212236
0.000229275
0.000246327
0.000263394
0.000280475
0.000297573
0.000314686
0.000331817
0.000348966
0.000366133
0.000383319
0.000400525
0.00041775
0.000434995
0.00045226
0.000469546
0.000486852
0.000504179
0.000521527
0.000538895
0.000556284
0.000573693
0.000591121
0.000608568
0.000626034
0.000643517
0.000661018
0.000678534
0.000696066
0.000713611
0.000731169
0.000748738
0.000766317
0.000783903
0.000801495
0.000819091
0.000836689
0.000854287
0.000871881
0.00088947
0.000907051
0.00092462
0.000942175
0.000959711
0.000977227
0.000994718
0.00101218
0.00102961
0.001047
0.00106435
0.00108165
0.00109891
0.0011161
0.00113324
0.00115031
0.00116731
0.00118423
0.00120106
0.00121781
0.00123446
0.001251
0.00126744
0.00128376
0.00129996
0.00131603
0.00133196
0.00134774
0.00136337
0.00137884
0.00139414
0.00140926
0.0014242
0.00143895
0.00145349
0.00146783
0.00148194
0.00149583
0.00150948
0.00152289
0.00153605
0.00154895
0.00156157
0.00157392
0.00158598
0.00159774
0.00160921
0.00162036
0.00163119
0.00164169
0.00165186
0.00166168
0.00167115
0.00168027
0.00168902
0.00169739
0.00170539
0.00171301
0.00172024
0.00172706
0.00173349
0.00173951
0.00174512
0.00175031
0.00175509
0.00175943
0.00176336
0.00176685
0.00176991
0.00177254
0.00177473
0.00177648
0.00177779
0.00177867
0.00177911
0.0017791
0.00177866
0.00177779
0.00177648
0.00177473
0.00177255
0.00176995
0.00176692
0.00176347
0.00175959
0.00175531
0.00175061
0.00174551
0.00174001
0.00173412
0.00172784
0.00172117
0.00171412
0.00170671
0.00169893
0.00169079
0.00168231
0.00167348
0.00166431
0.00165481
0.001645
0.00163487
0.00162443
0.0016137
0.00160267
0.00159137
0.00157979
0.00156794
0.00155584
0.00154349
0.00153089
0.00151806
0.001505
0.00149173
0.00147824
0.00146456
0.00145067
0.0014366
0.00142235
0.00140793
0.00139334
0.0013786
0.0013637
0.00134866
0.00133348
0.00131817
0.00130273
0.00128718
0.00127152
0.00125575
0.00123988
0.00122391
0.00120786
0.00119172
0.00117551
0.00115922
0.00114287
0.00112645
0.00110997
0.00109344
0.00107686
0.00106023
0.00104356
0.00102686
0.00101012
0.000993345
0.000976545
0.000959721
0.000942876
0.000926012
0.000909133
0.00089224
0.000875337
0.000858426
0.000841509
0.000824588
0.000807666
0.000790743
0.000773822
0.000756904
0.000739991
0.000723084
0.000706185
0.000689295
0.000672414
0.000655544
0.000638686
0.00062184
0.000605008
0.000588189
0.000571384
0.000554594
0.00053782
0.000521061
0.000504317
0.000487589
0.000470878
0.000454182
0.000437502
0.000420838
0.00040419
0.000387558
0.00037094
0.000354338
0.00033775
0.000321176
0.000304617
0.00028807
0.000271537
0.000255015
0.000238505
0.000222007
0.000205519
0.00018904
0.000172571
0.00015611
0.000139656
0.00012321
0.000106769
9.03342e-05
7.39036e-05
5.74767e-05
4.10527e-05
2.46308e-05
8.21013e-06
2.54269e-05
7.62823e-05
0.000127143
0.000178011
0.00022889
0.000279784
0.000330695
0.000381626
0.000432581
0.000483563
0.000534574
0.000585617
0.000636695
0.000687811
0.000738968
0.000790167
0.000841411
0.000892702
0.000944043
0.000995436
0.00104688
0.00109838
0.00114994
0.00120156
0.00125323
0.00130497
0.00135676
0.00140862
0.00146054
0.00151252
0.00156456
0.00161667
0.00166883
0.00172106
0.00177334
0.00182569
0.00187809
0.00193054
0.00198304
0.00203559
0.00208819
0.00214082
0.0021935
0.00224621
0.00229894
0.00235171
0.00240448
0.00245727
0.00251007
0.00256287
0.00261565
0.00266842
0.00272117
0.00277388
0.00282654
0.00287916
0.00293171
0.00298418
0.00303657
0.00308886
0.00314104
0.0031931
0.00324502
0.00329678
0.00334838
0.00339979
0.00345101
0.003502
0.00355277
0.00360328
0.00365353
0.00370348
0.00375313
0.00380245
0.00385141
0.00390001
0.00394822
0.00399602
0.00404337
0.00409027
0.00413669
0.0041826
0.00422798
0.0042728
0.00431705
0.00436069
0.0044037
0.00444606
0.00448773
0.0045287
0.00456894
0.00460841
0.00464711
0.00468499
0.00472204
0.00475823
0.00479354
0.00482793
0.00486139
0.00489389
0.0049254
0.00495591
0.00498539
0.00501381
0.00504117
0.00506742
0.00509256
0.00511657
0.00513942
0.0051611
0.00518159
0.00520088
0.00521894
0.00523577
0.00525136
0.00526568
0.00527873
0.0052905
0.00530098
0.00531017
0.00531805
0.00532462
0.00532988
0.00533382
0.00533645
0.00533776
0.00533775
0.00533643
0.0053338
0.00532986
0.00532462
0.00531809
0.00531027
0.00530118
0.00529081
0.0052792
0.00526634
0.00525225
0.00523694
0.00522044
0.00520275
0.00518389
0.00516388
0.00514274
0.00512049
0.00509715
0.00507273
0.00504726
0.00502076
0.00499325
0.00496476
0.0049353
0.00490491
0.00487359
0.00484138
0.0048083
0.00477438
0.00473963
0.00470408
0.00466776
0.00463069
0.0045929
0.0045544
0.00451522
0.00447539
0.00443493
0.00439386
0.0043522
0.00430998
0.00426723
0.00422395
0.00418018
0.00413593
0.00409123
0.0040461
0.00400056
0.00395462
0.00390831
0.00386165
0.00381465
0.00376733
0.00371972
0.00367182
0.00362366
0.00357524
0.0035266
0.00347773
0.00342866
0.0033794
0.00332997
0.00328037
0.00323062
0.00318074
0.00313073
0.00308061
0.00303038
0.00298006
0.00292966
0.00287918
0.00282864
0.00277805
0.00272741
0.00267673
0.00262602
0.00257528
0.00252453
0.00247376
0.00242299
0.00237222
0.00232146
0.00227071
0.00221997
0.00216924
0.00211855
0.00206787
0.00201723
0.00196662
0.00191604
0.00186551
0.00181501
0.00176455
0.00171414
0.00166377
0.00161344
0.00156316
0.00151293
0.00146275
0.00141262
0.00136253
0.00131249
0.0012625
0.00121255
0.00116266
0.0011128
0.001063
0.00101324
0.000963515
0.000913836
0.000864197
0.000814597
0.000765033
0.000715505
0.000666009
0.000616545
0.000567111
0.000517703
0.000468321
0.000418962
0.000369623
0.000320302
0.000270998
0.000221707
0.000172427
0.000123156
7.38912e-05
2.463e-05
4.23764e-05
0.000127132
0.000211895
0.000296672
0.000381468
0.000466287
0.000551135
0.000636018
0.00072094
0.000805906
0.000890921
0.00097599
0.00106112
0.00114631
0.00123157
0.00131689
0.0014023
0.00148778
0.00157335
0.001659
0.00174474
0.00183057
0.0019165
0.00200253
0.00208865
0.00217487
0.0022612
0.00234763
0.00243416
0.0025208
0.00260754
0.00269438
0.00278132
0.00286837
0.00295551
0.00304275
0.00313008
0.00321751
0.00330501
0.0033926
0.00348026
0.003568
0.00365579
0.00374365
0.00383155
0.00391949
0.00400746
0.00409545
0.00418345
0.00427145
0.00435944
0.0044474
0.00453532
0.00462318
0.00471097
0.00479867
0.00488627
0.00497374
0.00506107
0.00514823
0.00523521
0.00532199
0.00540853
0.00549482
0.00558083
0.00566654
0.00575192
0.00583693
0.00592156
0.00600577
0.00608953
0.00617281
0.00625558
0.0063378
0.00641944
0.00650046
0.00658083
0.00666051
0.00673947
0.00681766
0.00689505
0.00697159
0.00704725
0.00712198
0.00719575
0.00726852
0.00734023
0.00741085
0.00748034
0.00754865
0.00761574
0.00768156
0.00774608
0.00780925
0.00787103
0.00793137
0.00799024
0.00804759
0.00810338
0.00815757
0.00821012
0.008261
0.00831015
0.00835755
0.00840316
0.00844695
0.00848887
0.0085289
0.00856701
0.00860316
0.00863733
0.00866949
0.00869961
0.00872768
0.00875366
0.00877755
0.00879931
0.00881894
0.00883641
0.00885173
0.00886487
0.00887582
0.00888459
0.00889117
0.00889555
0.00889773
0.00889771
0.00889551
0.00889112
0.00888455
0.00887581
0.00886491
0.00885187
0.0088367
0.00881942
0.00880004
0.0087786
0.0087551
0.00872957
0.00870205
0.00867254
0.0086411
0.00860773
0.00857248
0.00853537
0.00849644
0.00845572
0.00841325
0.00836906
0.00832319
0.00827567
0.00822655
0.00817586
0.00812364
0.00806994
0.00801478
0.00795821
0.00790027
0.007841
0.00778044
0.00771863
0.00765561
0.00759142
0.0075261
0.00745969
0.00739222
0.00732375
0.0072543
0.00718391
0.00711262
0.00704047
0.00696749
0.00689373
0.0068192
0.00674396
0.00666803
0.00659145
0.00651425
0.00643645
0.0063581
0.00627922
0.00619985
0.00612
0.00603971
0.005959
0.0058779
0.00579644
0.00571465
0.00563253
0.00555013
0.00546745
0.00538452
0.00530137
0.00521801
0.00513446
0.00505073
0.00496686
0.00488284
0.00479871
0.00471447
0.00463013
0.00454572
0.00446125
0.00437672
0.00429216
0.00420756
0.00412295
0.00403832
0.0039537
0.00386909
0.00378449
0.00369992
0.00361538
0.00353088
0.00344642
0.00336201
0.00327766
0.00319336
0.00310913
0.00302497
0.00294087
0.00285684
0.00277289
0.00268902
0.00260522
0.0025215
0.00243786
0.00235431
0.00227083
0.00218743
0.00210411
0.00202087
0.00193771
0.00185462
0.00177161
0.00168868
0.00160581
0.00152302
0.00144029
0.00135762
0.00127502
0.00119247
0.00110998
0.00102754
0.000945154
0.000862811
0.00078051
0.000698247
0.000616018
0.00053382
0.000451648
0.000369499
0.000287369
0.000205253
0.000123148
4.10486e-05
5.93232e-05
0.000177973
0.000296635
0.000415315
0.000534021
0.000652761
0.000771542
0.00089037
0.00100925
0.0011282
0.00124721
0.0013663
0.00148548
0.00160474
0.00172409
0.00184355
0.00196311
0.00208278
0.00220257
0.00232248
0.00244251
0.00256267
0.00268297
0.0028034
0.00292397
0.00304468
0.00316554
0.00328654
0.00340768
0.00352897
0.00365041
0.00377199
0.00389371
0.00401558
0.00413758
0.00425972
0.00438199
0.00450439
0.0046269
0.00474953
0.00487227
0.00499511
0.00511803
0.00524104
0.00536411
0.00548724
0.00561042
0.00573362
0.00585684
0.00598006
0.00610325
0.00622642
0.00634952
0.00647255
0.00659548
0.00671828
0.00684095
0.00696343
0.00708572
0.00720778
0.00732959
0.0074511
0.0075723
0.00769314
0.00781359
0.00793362
0.00805319
0.00817225
0.00829077
0.00840871
0.00852602
0.00864265
0.00875857
0.00887373
0.00898807
0.00910156
0.00921413
0.00932573
0.00943633
0.00954585
0.00965424
0.00976146
0.00986744
0.00997213
0.0100755
0.0101774
0.0102778
0.0103768
0.0104741
0.0105698
0.0106638
0.010756
0.0108464
0.0109349
0.0110214
0.011106
0.0111885
0.0112688
0.011347
0.0114229
0.0114965
0.0115678
0.0116367
0.0117031
0.011767
0.0118283
0.0118871
0.0119432
0.0119965
0.0120472
0.0120951
0.0121401
0.0121823
0.0122217
0.0122581
0.0122915
0.012322
0.0123495
0.012374
0.0123955
0.0124139
0.0124292
0.0124415
0.0124507
0.0124568
0.0124599
0.0124599
0.0124568
0.0124506
0.0124414
0.0124292
0.0124139
0.0123956
0.0123743
0.0123501
0.012323
0.0122929
0.01226
0.0122242
0.0121856
0.0121443
0.0121002
0.0120535
0.0120041
0.0119521
0.0118975
0.0118405
0.011781
0.011719
0.0116548
0.0115882
0.0115194
0.0114483
0.0113752
0.0112999
0.0112227
0.0111434
0.0110622
0.0109792
0.0108944
0.0108078
0.0107195
0.0106296
0.0105381
0.010445
0.0103505
0.0102546
0.0101573
0.0100587
0.00995887
0.00985781
0.0097556
0.00965227
0.00954789
0.00944251
0.00933616
0.0092289
0.00912077
0.00901182
0.00890208
0.00879161
0.00868044
0.00856861
0.00845617
0.00834314
0.00822957
0.0081155
0.00800095
0.00788595
0.00777055
0.00765478
0.00753865
0.00742221
0.00730548
0.00718848
0.00707124
0.00695379
0.00683615
0.00671834
0.00660038
0.0064823
0.0063641
0.00624582
0.00612747
0.00600906
0.00589061
0.00577214
0.00565365
0.00553517
0.0054167
0.00529825
0.00517984
0.00506148
0.00494317
0.00482492
0.00470674
0.00458864
0.00447062
0.00435269
0.00423485
0.00411712
0.00399948
0.00388194
0.00376452
0.0036472
0.00352999
0.0034129
0.00329592
0.00317905
0.00306229
0.00294565
0.00282911
0.00271269
0.00259637
0.00248016
0.00236405
0.00224804
0.00213213
0.00201631
0.00190058
0.00178494
0.00166938
0.0015539
0.00143849
0.00132315
0.00120788
0.00109266
0.000977497
0.000862382
0.00074731
0.000632276
0.000517273
0.000402296
0.00028734
0.000172398
5.74651e-05
7.62663e-05
0.000228804
0.000381356
0.000533932
0.000686541
0.000839194
0.0009919
0.00114467
0.00129751
0.00145042
0.00160343
0.00175654
0.00190975
0.00206307
0.00221652
0.00237009
0.0025238
0.00267766
0.00283166
0.00298583
0.00314015
0.00329464
0.0034493
0.00360413
0.00375915
0.00391435
0.00406973
0.0042253
0.00438105
0.004537
0.00469313
0.00484945
0.00500596
0.00516265
0.00531952
0.00547656
0.00563377
0.00579115
0.00594868
0.00610636
0.00626418
0.00642213
0.00658019
0.00673836
0.00689662
0.00705495
0.00721334
0.00737177
0.00753022
0.00768867
0.0078471
0.00800549
0.0081638
0.00832202
0.00848011
0.00863805
0.0087958
0.00895333
0.0091106
0.00926759
0.00942425
0.00958054
0.00973642
0.00989185
0.0100468
0.0102012
0.010355
0.0105081
0.0106606
0.0108123
0.0109632
0.0111132
0.0112623
0.0114105
0.0115576
0.0117036
0.0118484
0.011992
0.0121343
0.0122752
0.0124146
0.0125526
0.0126889
0.0128236
0.0129566
0.0130877
0.013217
0.0133443
0.0134696
0.0135927
0.0137136
0.0138323
0.0139486
0.0140625
0.0141739
0.0142827
0.0143888
0.0144922
0.0145928
0.0146905
0.0147853
0.014877
0.0149656
0.0150511
0.0151334
0.0152123
0.0152879
0.0153601
0.0154288
0.015494
0.0155556
0.0156136
0.015668
0.0157186
0.0157654
0.0158085
0.0158477
0.0158831
0.0159146
0.0159422
0.0159659
0.0159857
0.0160015
0.0160133
0.0160212
0.0160251
0.0160251
0.0160211
0.0160132
0.0160013
0.0159855
0.0159658
0.0159423
0.0159149
0.0158837
0.0158488
0.0158101
0.0157677
0.0157216
0.015672
0.0156188
0.015562
0.0155018
0.0154383
0.0153713
0.0153011
0.0152277
0.0151511
0.0150714
0.0149886
0.014903
0.0148144
0.014723
0.0146288
0.014532
0.0144325
0.0143305
0.0142261
0.0141192
0.01401
0.0138986
0.013785
0.0136693
0.0135516
0.0134319
0.0133103
0.0131868
0.0130617
0.0129348
0.0128063
0.0126763
0.0125448
0.0124119
0.0122776
0.012142
0.0120052
0.0118672
0.0117281
0.011588
0.0114468
0.0113047
0.0111617
0.0110179
0.0108732
0.0107278
0.0105818
0.010435
0.0102877
0.0101398
0.00999136
0.00984245
0.0096931
0.00954334
0.00939321
0.00924274
0.00909197
0.00894092
0.00878962
0.00863812
0.00848642
0.00833457
0.00818257
0.00803047
0.00787827
0.007726
0.00757369
0.00742134
0.00726898
0.00711662
0.00696429
0.00681198
0.00665972
0.00650753
0.0063554
0.00620335
0.0060514
0.00589954
0.00574779
0.00559616
0.00544465
0.00529326
0.00514201
0.00499089
0.00483991
0.00468907
0.00453837
0.00438782
0.00423741
0.00408715
0.00393704
0.00378707
0.00363724
0.00348756
0.00333801
0.0031886
0.00303932
0.00289017
0.00274115
0.00259224
0.00244346
0.00229478
0.00214621
0.00199775
0.00184937
0.00170109
0.00155288
0.00140476
0.0012567
0.0011087
0.000960763
0.000812871
0.00066502
0.000517203
0.000369412
0.00022164
7.38787e-05
9.32045e-05
0.000279619
0.000466052
0.000652514
0.000839018
0.00102557
0.0012122
0.00139889
0.00158568
0.00177256
0.00195955
0.00214666
0.0023339
0.00252128
0.00270881
0.0028965
0.00308436
0.00327239
0.00346061
0.00364901
0.00383762
0.00402643
0.00421545
0.00440469
0.00459414
0.00478382
0.00497373
0.00516387
0.00535424
0.00554484
0.00573567
0.00592673
0.00611802
0.00630954
0.00650128
0.00669323
0.00688539
0.00707775
0.00727031
0.00746305
0.00765596
0.00784903
0.00804225
0.00823559
0.00842905
0.0086226
0.00881623
0.0090099
0.00920361
0.00939731
0.009591
0.00978463
0.00997818
0.0101716
0.0103649
0.010558
0.0107509
0.0109435
0.0111358
0.0113277
0.0115193
0.0117104
0.011901
0.0120911
0.0122805
0.0124693
0.0126574
0.0128447
0.0130311
0.0132166
0.0134012
0.0135847
0.0137671
0.0139483
0.0141282
0.0143067
0.0144839
0.0146595
0.0148336
0.0150059
0.0151765
0.0153453
0.0155121
0.0156769
0.0158395
0.016
0.0161581
0.0163139
0.0164671
0.0166178
0.0167657
0.0169109
0.0170533
0.0171926
0.0173289
0.017462
0.0175919
0.0177184
0.0178415
0.0179611
0.0180771
0.0181893
0.0182978
0.0184024
0.018503
0.0185997
0.0186922
0.0187805
0.0188646
0.0189444
0.0190198
0.0190908
0.0191573
0.0192192
0.0192766
0.0193293
0.0193773
0.0194206
0.0194592
0.0194929
0.0195219
0.0195461
0.0195654
0.0195799
0.0195895
0.0195943
0.0195943
0.0195894
0.0195796
0.0195651
0.0195458
0.0195217
0.0194929
0.0194593
0.0194212
0.0193783
0.019331
0.0192791
0.0192227
0.0191619
0.0190967
0.0190273
0.0189536
0.0188758
0.0187939
0.0187079
0.018618
0.0185243
0.0184267
0.0183255
0.0182206
0.0181122
0.0180004
0.0178851
0.0177666
0.0176449
0.0175201
0.0173923
0.0172616
0.017128
0.0169916
0.0168526
0.0167111
0.016567
0.0164206
0.0162718
0.0161208
0.0159677
0.0158125
0.0156553
0.0154963
0.0153354
0.0151728
0.0150086
0.0148428
0.0146754
0.0145067
0.0143365
0.0141651
0.0139925
0.0138187
0.0136438
0.0134679
0.013291
0.0131132
0.0129346
0.0127552
0.012575
0.0123941
0.0122127
0.0120306
0.011848
0.0116648
0.0114813
0.0112973
0.011113
0.0109283
0.0107433
0.0105581
0.0103726
0.010187
0.0100012
0.0098152
0.00962914
0.009443
0.0092568
0.00907056
0.00888431
0.00869806
0.00851184
0.00832566
0.00813954
0.0079535
0.00776755
0.00758169
0.00739595
0.00721033
0.00702485
0.00683951
0.00665431
0.00646928
0.0062844
0.00609969
0.00591516
0.00573079
0.00554661
0.0053626
0.00517877
0.00499512
0.00481164
0.00462835
0.00444523
0.00426229
0.00407951
0.00389691
0.00371446
0.00353218
0.00335005
0.00316806
0.00298622
0.00280452
0.00262295
0.0024415
0.00226016
0.00207894
0.00189782
0.00171678
0.00153584
0.00135497
0.00117417
0.000993426
0.000812734
0.000632084
0.000451465
0.00027087
9.02885e-05
0.000110137
0.000330417
0.000550719
0.000771056
0.000991442
0.00121189
0.00143242
0.00165303
0.00187375
0.00209459
0.00231555
0.00253666
0.00275792
0.00297935
0.00320095
0.00342274
0.00364474
0.00386694
0.00408936
0.004312
0.00453489
0.00475801
0.00498139
0.00520502
0.00542891
0.00565308
0.00587751
0.00610221
0.00632719
0.00655245
0.00677798
0.00700378
0.00722986
0.00745621
0.00768282
0.00790969
0.0081368
0.00836416
0.00859176
0.00881957
0.00904758
0.00927579
0.00950417
0.00973271
0.00996139
0.0101902
0.0104191
0.010648
0.010877
0.011106
0.0113349
0.0115639
0.0117927
0.0120214
0.0122499
0.0124782
0.0127062
0.0129339
0.0131613
0.0133883
0.0136148
0.0138407
0.0140661
0.0142909
0.0145149
0.0147382
0.0149606
0.0151821
0.0154026
0.015622
0.0158403
0.0160573
0.016273
0.0164873
0.0167001
0.0169113
0.0171209
0.0173286
0.0175345
0.0177384
0.0179403
0.0181399
0.0183373
0.0185322
0.0187247
0.0189145
0.0191016
0.0192859
0.0194672
0.0196455
0.0198206
0.0199924
0.0201609
0.0203258
0.0204871
0.0206446
0.0207983
0.0209481
0.0210938
0.0212353
0.0213725
0.0215054
0.0216338
0.0217576
0.0218767
0.0219911
0.0221006
0.0222052
0.0223047
0.0223992
0.0224884
0.0225725
0.0226512
0.0227245
0.0227923
0.0228547
0.0229116
0.0229628
0.0230085
0.0230484
0.0230827
0.0231113
0.0231342
0.0231513
0.0231627
0.0231684
0.0231683
0.0231625
0.0231509
0.0231337
0.0231108
0.0230823
0.0230481
0.0230084
0.0229632
0.0229125
0.0228564
0.0227949
0.0227281
0.0226562
0.022579
0.0224968
0.0224096
0.0223174
0.0222204
0.0221187
0.0220122
0.0219013
0.0217858
0.0216659
0.0215418
0.0214135
0.0212811
0.0211447
0.0210045
0.0208604
0.0207127
0.0205615
0.0204067
0.0202487
0.0200873
0.0199228
0.0197553
0.0195849
0.0194116
0.0192356
0.0190569
0.0188758
0.0186922
0.0185063
0.0183181
0.0181278
0.0179355
0.0177412
0.017545
0.0173471
0.0171474
0.0169462
0.0167435
0.0165393
0.0163338
0.0161269
0.0159189
0.0157097
0.0154995
0.0152882
0.015076
0.014863
0.0146491
0.0144345
0.0142192
0.0140033
0.0137868
0.0135698
0.0133522
0.0131343
0.012916
0.0126973
0.0124783
0.012259
0.0120395
0.0118199
0.0116001
0.0113801
0.0111601
0.0109399
0.0107198
0.0104996
0.0102795
0.0100594
0.00983929
0.00961929
0.00939939
0.00917959
0.00895992
0.00874038
0.00852099
0.00830176
0.0080827
0.00786382
0.00764513
0.00742663
0.00720833
0.00699023
0.00677234
0.00655466
0.00633719
0.00611994
0.0059029
0.00568607
0.00546946
0.00525305
0.00503685
0.00482085
0.00460505
0.00438945
0.00417403
0.0039588
0.00374374
0.00352885
0.00331413
0.00309956
0.00288513
0.00267085
0.00245669
0.00224265
0.00202873
0.0018149
0.00160117
0.00138751
0.00117393
0.000960407
0.000746932
0.000533496
0.000320087
0.000106694
0.000127062
0.000381194
0.000635351
0.000889548
0.0011438
0.00139813
0.00165255
0.00190707
0.00216171
0.00241648
0.00267141
0.0029265
0.00318177
0.00343723
0.0036929
0.00394879
0.0042049
0.00446126
0.00471788
0.00497476
0.00523191
0.00548934
0.00574707
0.00600509
0.00626342
0.00652206
0.00678101
0.00704028
0.00729987
0.00755978
0.00782001
0.00808056
0.00834143
0.00860261
0.0088641
0.00912589
0.00938798
0.00965034
0.00991298
0.0101759
0.010439
0.0107024
0.0109659
0.0112297
0.0114936
0.0117577
0.0120218
0.0122861
0.0125504
0.0128147
0.0130789
0.0133432
0.0136073
0.0138713
0.0141351
0.0143986
0.0146618
0.0149247
0.0151872
0.0154493
0.0157108
0.0159717
0.0162319
0.0164914
0.0167501
0.0170079
0.0172647
0.0175205
0.0177751
0.0180285
0.0182806
0.0185312
0.0187803
0.0190279
0.0192737
0.0195176
0.0197597
0.0199997
0.0202375
0.020473
0.0207062
0.0209368
0.0211648
0.0213901
0.0216124
0.0218318
0.022048
0.0222609
0.0224704
0.0226764
0.0228788
0.0230773
0.023272
0.0234626
0.023649
0.0238311
0.0240087
0.0241818
0.0243502
0.0245137
0.0246724
0.024826
0.0249744
0.0251175
0.0252552
0.0253874
0.025514
0.0256349
0.02575
0.0258591
0.0259623
0.0260594
0.0261504
0.0262352
0.0263136
0.0263857
0.0264514
0.0265107
0.0265634
0.0266096
0.0266493
0.0266823
0.0267087
0.0267285
0.0267417
0.0267482
0.026748
0.0267413
0.0267279
0.026708
0.0266815
0.0266484
0.0266089
0.026563
0.0265107
0.026452
0.0263871
0.026316
0.0262388
0.0261556
0.0260664
0.0259713
0.0258704
0.0257639
0.0256517
0.0255341
0.025411
0.0252827
0.0251492
0.0250107
0.0248672
0.0247189
0.0245658
0.0244082
0.0242461
0.0240796
0.0239089
0.0237341
0.0235553
0.0233726
0.0231861
0.0229961
0.0228025
0.0226056
0.0224054
0.022202
0.0219956
0.0217863
0.0215742
0.0213594
0.021142
0.0209222
0.0207
0.0204756
0.020249
0.0200204
0.0197898
0.0195574
0.0193233
0.0190875
0.0188501
0.0186113
0.018371
0.0181295
0.0178867
0.0176428
0.0173978
0.0171518
0.0169049
0.0166571
0.0164085
0.0161592
0.0159093
0.0156587
0.0154076
0.015156
0.014904
0.0146515
0.0143987
0.0141457
0.0138923
0.0136388
0.013385
0.0131311
0.0128772
0.0126231
0.012369
0.0121149
0.0118609
0.0116068
0.0113528
0.0110989
0.0108452
0.0105915
0.010338
0.0100847
0.00983149
0.00957851
0.00932572
0.00907315
0.00882079
0.00856866
0.00831676
0.0080651
0.00781368
0.00756251
0.00731158
0.0070609
0.00681047
0.00656029
0.00631035
0.00606066
0.00581121
0.00556199
0.005313
0.00506424
0.0048157
0.00456737
0.00431924
0.00407132
0.00382358
0.00357602
0.00332863
0.0030814
0.00283432
0.00258738
0.00234057
0.00209388
0.00184729
0.00160079
0.00135438
0.00110803
0.000861743
0.000615499
0.000369287
0.000123093
0.000143979
0.000431946
0.000719942
0.00100798
0.00129609
0.00158428
0.00187257
0.00216098
0.00244953
0.00273823
0.0030271
0.00331616
0.00360543
0.00389491
0.00418463
0.0044746
0.00476483
0.00505534
0.00534614
0.00563724
0.00592865
0.00622038
0.00651245
0.00680486
0.00709761
0.00739072
0.00768419
0.00797802
0.00827222
0.00856679
0.00886172
0.00915702
0.00945268
0.00974871
0.0100451
0.0103418
0.0106389
0.0109363
0.0112339
0.0115319
0.0118302
0.0121287
0.0124275
0.0127265
0.0130257
0.013325
0.0136245
0.0139241
0.0142237
0.0145234
0.014823
0.0151226
0.0154221
0.0157214
0.0160205
0.0163193
0.0166178
0.016916
0.0172136
0.0175108
0.0178073
0.0181032
0.0183984
0.0186927
0.0189861
0.0192785
0.0195699
0.01986
0.0201488
0.0204363
0.0207223
0.0210066
0.0212893
0.0215701
0.021849
0.0221259
0.0224005
0.0226728
0.0229427
0.02321
0.0234746
0.0237364
0.0239952
0.0242508
0.0245032
0.0247522
0.0249976
0.0252393
0.0254772
0.025711
0.0259407
0.0261662
0.0263871
0.0266035
0.0268152
0.0270219
0.0272236
0.0274202
0.0276114
0.0277972
0.0279773
0.0281517
0.0283202
0.0284828
0.0286392
0.0287893
0.0289331
0.0290704
0.0292011
0.0293251
0.0294423
0.0295526
0.0296559
0.0297521
0.0298412
0.0299231
0.0299977
0.030065
0.0301249
0.0301774
0.0302224
0.0302599
0.0302899
0.0303123
0.0303272
0.0303346
0.0303344
0.0303267
0.0303115
0.0302888
0.0302586
0.0302211
0.0301762
0.030124
0.0300645
0.0299979
0.0299241
0.0298433
0.0297556
0.029661
0.0295596
0.0294516
0.029337
0.0292159
0.0290885
0.0289549
0.0288151
0.0286694
0.0285178
0.0283604
0.0281974
0.028029
0.0278552
0.0276762
0.0274921
0.027303
0.0271092
0.0269107
0.0267077
0.0265003
0.0262886
0.0260728
0.0258531
0.0256295
0.0254023
0.0251714
0.0249372
0.0246996
0.0244589
0.0242151
0.0239684
0.023719
0.0234668
0.0232122
0.0229551
0.0226957
0.0224341
0.0221704
0.0219048
0.0216372
0.0213679
0.021097
0.0208245
0.0205505
0.0202751
0.0199984
0.0197205
0.0194415
0.0191615
0.0188805
0.0185986
0.0183158
0.0180324
0.0177482
0.0174635
0.0171782
0.0168924
0.0166061
0.0163195
0.0160325
0.0157453
0.0154578
0.0151701
0.0148823
0.0145944
0.0143063
0.0140183
0.0137302
0.0134422
0.0131542
0.0128663
0.0125785
0.0122908
0.0120033
0.0117159
0.0114288
0.0111418
0.0108551
0.0105685
0.0102823
0.00999622
0.00971046
0.00942495
0.00913973
0.00885478
0.0085701
0.00828572
0.00800161
0.0077178
0.00743426
0.00715101
0.00686803
0.00658533
0.0063029
0.00602073
0.00573882
0.00545716
0.00517574
0.00489455
0.0046136
0.00433285
0.00405231
0.00377197
0.00349181
0.00321181
0.00293198
0.0026523
0.00237274
0.00209331
0.00181398
0.00153475
0.0012556
0.000976508
0.00069747
0.000418468
0.000139487
0.000160887
0.000482671
0.000804486
0.00112635
0.00144829
0.00177033
0.00209248
0.00241476
0.00273719
0.0030598
0.00338261
0.00370562
0.00402886
0.00435235
0.00467611
0.00500014
0.00532448
0.00564912
0.00597409
0.0062994
0.00662506
0.00695109
0.00727749
0.00760427
0.00793145
0.00825903
0.00858701
0.0089154
0.00924421
0.00957343
0.00990306
0.0102331
0.0105636
0.0108944
0.0112257
0.0115574
0.0118894
0.0122218
0.0125546
0.0128877
0.0132212
0.0135549
0.0138889
0.0142231
0.0145576
0.0148923
0.0152271
0.015562
0.015897
0.0162321
0.0165671
0.0169021
0.017237
0.0175717
0.0179062
0.0182404
0.0185742
0.0189076
0.0192405
0.0195729
0.0199046
0.0202356
0.0205657
0.0208949
0.0212232
0.0215503
0.0218762
0.0222008
0.022524
0.0228456
0.0231656
0.0234838
0.0238001
0.0241144
0.0244265
0.0247363
0.0250436
0.0253484
0.0256505
0.0259497
0.0262459
0.0265389
0.0268286
0.0271148
0.0273974
0.0276761
0.0279509
0.0282215
0.0284879
0.0287498
0.029007
0.0292594
0.0295069
0.0297492
0.0299863
0.0302178
0.0304438
0.0306639
0.0308781
0.0310862
0.0312879
0.0314833
0.0316721
0.0318542
0.0320294
0.0321976
0.0323587
0.0325125
0.0326589
0.0327978
0.0329291
0.0330527
0.0331684
0.0332762
0.0333761
0.0334678
0.0335514
0.0336268
0.0336939
0.0337526
0.033803
0.033845
0.0338786
0.0339037
0.0339203
0.0339286
0.0339283
0.0339196
0.0339025
0.0338771
0.0338432
0.0338011
0.0337507
0.0336922
0.0336255
0.0335508
0.0334681
0.0333775
0.0332792
0.0331731
0.0330595
0.0329384
0.03281
0.0326743
0.0325316
0.0323818
0.0322252
0.0320619
0.031892
0.0317157
0.0315331
0.0313444
0.0311497
0.0309492
0.030743
0.0305312
0.0303141
0.0300918
0.0298645
0.0296322
0.0293952
0.0291536
0.0289075
0.0286572
0.0284027
0.0281443
0.027882
0.0276161
0.0273466
0.0270737
0.0267976
0.0265184
0.0262362
0.0259512
0.0256635
0.0253732
0.0250804
0.0247854
0.0244881
0.0241888
0.0238874
0.0235843
0.0232794
0.0229728
0.0226648
0.0223552
0.0220444
0.0217323
0.021419
0.0211047
0.0207894
0.0204732
0.0201562
0.0198384
0.0195199
0.0192008
0.0188812
0.0185611
0.0182406
0.0179197
0.0175985
0.0172771
0.0169554
0.0166336
0.0163116
0.0159896
0.0156676
0.0153455
0.0150235
0.0147015
0.0143797
0.0140579
0.0137363
0.0134149
0.0130937
0.0127727
0.0124519
0.0121314
0.0118111
0.0114911
0.0111714
0.010852
0.0105329
0.0102141
0.00989559
0.00957742
0.00925957
0.00894204
0.00862484
0.00830795
0.00799138
0.00767513
0.00735918
0.00704354
0.0067282
0.00641314
0.00609837
0.00578387
0.00546964
0.00515566
0.00484192
0.00452841
0.00421512
0.00390204
0.00358915
0.00327644
0.00296389
0.00265149
0.00233923
0.00202709
0.00171505
0.0014031
0.00109122
0.000779405
0.000467627
0.000155873
0.000177784
0.000533363
0.000888978
0.00124465
0.0016004
0.00195626
0.00231225
0.00266838
0.00302469
0.00338119
0.0037379
0.00409485
0.00445205
0.00480953
0.00516731
0.00552539
0.00588381
0.00624258
0.00660171
0.00696121
0.00732111
0.00768142
0.00804214
0.0084033
0.00876489
0.00912692
0.00948942
0.00985236
0.0102158
0.0105797
0.010944
0.0113088
0.0116741
0.0120398
0.012406
0.0127726
0.0131396
0.0135071
0.0138749
0.0142432
0.0146118
0.0149807
0.01535
0.0157195
0.0160893
0.0164594
0.0168296
0.0171999
0.0175703
0.0179408
0.0183113
0.0186818
0.0190521
0.0194222
0.0197922
0.0201618
0.020531
0.0208998
0.021268
0.0216357
0.0220026
0.0223687
0.022734
0.0230982
0.0234613
0.0238233
0.0241839
0.024543
0.0249007
0.0252566
0.0256107
0.0259628
0.0263129
0.0266607
0.0270062
0.0273491
0.0276894
0.0280268
0.0283612
0.0286924
0.0290204
0.0293448
0.0296656
0.0299825
0.0302954
0.030604
0.0309083
0.0312081
0.0315031
0.0317931
0.0320781
0.0323577
0.0326318
0.0329003
0.0331629
0.0334194
0.0336697
0.0339136
0.0341509
0.0343814
0.034605
0.0348215
0.0350307
0.0352325
0.0354266
0.035613
0.0357915
0.035962
0.0361242
0.0362782
0.0364237
0.0365606
0.0366889
0.0368084
0.036919
0.0370207
0.0371133
0.0371968
0.0372711
0.0373362
0.037392
0.0374385
0.0374757
0.0375035
0.0375219
0.037531
0.0375306
0.037521
0.037502
0.0374737
0.0374361
0.0373894
0.0373335
0.0372685
0.0371945
0.0371117
0.03702
0.0369195
0.0368104
0.0366929
0.0365669
0.0364326
0.0362902
0.0361398
0.0359816
0.0358156
0.035642
0.035461
0.0352727
0.0350773
0.034875
0.0346658
0.0344501
0.0342279
0.0339994
0.0337648
0.0335243
0.033278
0.0330261
0.0327689
0.0325063
0.0322387
0.0319662
0.031689
0.0314072
0.031121
0.0308306
0.0305361
0.0302377
0.0299356
0.0296299
0.0293208
0.0290084
0.0286929
0.0283744
0.0280531
0.0277291
0.0274025
0.0270735
0.0267422
0.0264088
0.0260733
0.0257359
0.0253968
0.0250559
0.0247134
0.0243695
0.0240242
0.0236777
0.02333
0.0229812
0.0226314
0.0222807
0.0219292
0.0215769
0.021224
0.0208705
0.0205165
0.0201621
0.0198072
0.019452
0.0190965
0.0187408
0.018385
0.018029
0.0176729
0.0173168
0.0169607
0.0166047
0.0162487