/*--------------------------------*- C++ -*----------------------------------*\
| =========                 |                                                 |
| \\      /  F ield         | OpenFOAM: The Open Source CFD Toolbox           |
|  \\    /   O peration     | Version:  v2012                                 |
|   \\  /    A nd           | Website:  www.openfoam.com                      |
|    \\/     M anipulation  |                                                 |
\*---------------------------------------------------------------------------*/
FoamFile
{
    version     2.0;
    format      ascii;
    class       volVectorField;
    location    "15.25";
    object      U;
}
// * * * * * * * * * * * * * * * * * * * * * * * * * * * * * * * * * * * * * //

dimensions      [0 1 -1 0 0 0 0];


internalField   nonuniform List<vector> 
65536
(
(0.000690788 -0.000690809 0)
(0.00207241 -0.000690853 0)
(0.00345416 -0.00069094 0)
(0.00483613 -0.00069107 0)
(0.0062184 -0.000691243 0)
(0.00760106 -0.000691458 0)
(0.00898419 -0.000691715 0)
(0.0103679 -0.000692014 0)
(0.0117522 -0.000692354 0)
(0.0131373 -0.000692733 0)
(0.0145231 -0.000693151 0)
(0.0159098 -0.000693608 0)
(0.0172975 -0.000694101 0)
(0.0186862 -0.00069463 0)
(0.020076 -0.000695193 0)
(0.0214669 -0.00069579 0)
(0.0228591 -0.000696418 0)
(0.0242526 -0.000697075 0)
(0.0256474 -0.000697761 0)
(0.0270436 -0.000698473 0)
(0.0284413 -0.000699208 0)
(0.0298404 -0.000699966 0)
(0.0312411 -0.000700744 0)
(0.0326434 -0.000701538 0)
(0.0340472 -0.000702348 0)
(0.0354528 -0.00070317 0)
(0.0368599 -0.000704001 0)
(0.0382688 -0.000704838 0)
(0.0396793 -0.000705679 0)
(0.0410915 -0.00070652 0)
(0.0425054 -0.000707357 0)
(0.0439209 -0.000708188 0)
(0.0453381 -0.000709008 0)
(0.046757 -0.000709814 0)
(0.0481774 -0.000710602 0)
(0.0495994 -0.000711368 0)
(0.0510229 -0.000712107 0)
(0.0524479 -0.000712814 0)
(0.0538742 -0.000713486 0)
(0.0553018 -0.000714118 0)
(0.0567307 -0.000714704 0)
(0.0581607 -0.00071524 0)
(0.0595917 -0.000715719 0)
(0.0610236 -0.000716138 0)
(0.0624563 -0.000716489 0)
(0.0638897 -0.000716768 0)
(0.0653235 -0.000716968 0)
(0.0667576 -0.000717083 0)
(0.0681919 -0.000717108 0)
(0.0696262 -0.000717035 0)
(0.0710602 -0.000716858 0)
(0.0724937 -0.000716571 0)
(0.0739266 -0.000716166 0)
(0.0753585 -0.000715637 0)
(0.0767893 -0.000714976 0)
(0.0782186 -0.000714176 0)
(0.0796461 -0.00071323 0)
(0.0810716 -0.000712131 0)
(0.0824948 -0.000710871 0)
(0.0839153 -0.000709441 0)
(0.0853327 -0.000707835 0)
(0.0867468 -0.000706045 0)
(0.0881571 -0.000704063 0)
(0.0895633 -0.000701881 0)
(0.0909648 -0.000699492 0)
(0.0923614 -0.000696886 0)
(0.0937526 -0.000694057 0)
(0.0951379 -0.000690997 0)
(0.0965168 -0.000687698 0)
(0.0978889 -0.000684153 0)
(0.0992537 -0.000680353 0)
(0.100611 -0.000676291 0)
(0.101959 -0.00067196 0)
(0.103299 -0.000667353 0)
(0.104629 -0.000662463 0)
(0.105949 -0.000657282 0)
(0.107258 -0.000651805 0)
(0.108556 -0.000646025 0)
(0.109843 -0.000639937 0)
(0.111116 -0.000633533 0)
(0.112377 -0.00062681 0)
(0.113624 -0.000619761 0)
(0.114856 -0.000612383 0)
(0.116074 -0.000604672 0)
(0.117276 -0.000596622 0)
(0.118461 -0.000588232 0)
(0.119629 -0.000579498 0)
(0.120779 -0.000570418 0)
(0.121911 -0.00056099 0)
(0.123023 -0.000551213 0)
(0.124116 -0.000541086 0)
(0.125188 -0.00053061 0)
(0.126239 -0.000519784 0)
(0.127268 -0.00050861 0)
(0.128274 -0.000497091 0)
(0.129256 -0.000485227 0)
(0.130215 -0.000473023 0)
(0.131149 -0.000460482 0)
(0.132057 -0.000447609 0)
(0.132939 -0.000434409 0)
(0.133795 -0.000420887 0)
(0.134623 -0.000407052 0)
(0.135424 -0.000392909 0)
(0.136195 -0.000378467 0)
(0.136938 -0.000363734 0)
(0.13765 -0.000348719 0)
(0.138333 -0.000333434 0)
(0.138984 -0.000317887 0)
(0.139605 -0.000302091 0)
(0.140193 -0.000286056 0)
(0.140749 -0.000269797 0)
(0.141272 -0.000253324 0)
(0.141763 -0.000236652 0)
(0.142219 -0.000219795 0)
(0.142642 -0.000202767 0)
(0.14303 -0.000185582 0)
(0.143384 -0.000168256 0)
(0.143704 -0.000150804 0)
(0.143988 -0.000133242 0)
(0.144237 -0.000115586 0)
(0.14445 -9.78521e-05 0)
(0.144628 -8.00564e-05 0)
(0.14477 -6.22155e-05 0)
(0.144877 -4.43461e-05 0)
(0.144948 -2.64646e-05 0)
(0.144983 -8.58766e-06 0)
(0.144982 9.26825e-06 0)
(0.144946 2.70868e-05 0)
(0.144874 4.48516e-05 0)
(0.144766 6.25467e-05 0)
(0.144623 8.01563e-05 0)
(0.144446 9.76649e-05 0)
(0.144233 0.000115057 0)
(0.143985 0.000132318 0)
(0.143703 0.000149434 0)
(0.143387 0.000166389 0)
(0.143038 0.000183172 0)
(0.142654 0.000199768 0)
(0.142238 0.000216164 0)
(0.14179 0.00023235 0)
(0.141309 0.000248312 0)
(0.140796 0.000264041 0)
(0.140252 0.000279526 0)
(0.139678 0.000294757 0)
(0.139073 0.000309724 0)
(0.138438 0.00032442 0)
(0.137775 0.000338836 0)
(0.137083 0.000352966 0)
(0.136363 0.000366801 0)
(0.135615 0.000380337 0)
(0.134841 0.000393568 0)
(0.134041 0.00040649 0)
(0.133215 0.000419097 0)
(0.132364 0.000431387 0)
(0.131489 0.000443357 0)
(0.13059 0.000455003 0)
(0.129669 0.000466326 0)
(0.128725 0.000477323 0)
(0.127759 0.000487993 0)
(0.126772 0.000498338 0)
(0.125765 0.000508356 0)
(0.124739 0.000518049 0)
(0.123693 0.000527418 0)
(0.122629 0.000536465 0)
(0.121547 0.000545193 0)
(0.120448 0.000553604 0)
(0.119332 0.0005617 0)
(0.1182 0.000569486 0)
(0.117054 0.000576966 0)
(0.115892 0.000584142 0)
(0.114717 0.00059102 0)
(0.113528 0.000597605 0)
(0.112326 0.0006039 0)
(0.111112 0.000609912 0)
(0.109886 0.000615646 0)
(0.108649 0.000621107 0)
(0.107401 0.000626301 0)
(0.106144 0.000631234 0)
(0.104876 0.000635913 0)
(0.1036 0.000640342 0)
(0.102315 0.000644529 0)
(0.101021 0.000648479 0)
(0.0997205 0.0006522 0)
(0.0984124 0.000655698 0)
(0.0970975 0.000658979 0)
(0.0957763 0.00066205 0)
(0.0944491 0.000664917 0)
(0.0931164 0.000667587 0)
(0.0917786 0.000670067 0)
(0.090436 0.000672363 0)
(0.0890889 0.000674482 0)
(0.0877379 0.00067643 0)
(0.0863831 0.000678213 0)
(0.0850248 0.000679839 0)
(0.0836635 0.000681313 0)
(0.0822994 0.000682641 0)
(0.0809328 0.000683831 0)
(0.079564 0.000684887 0)
(0.0781932 0.000685816 0)
(0.0768206 0.000686623 0)
(0.0754466 0.000687316 0)
(0.0740712 0.000687898 0)
(0.0726949 0.000688376 0)
(0.0713176 0.000688756 0)
(0.0699398 0.000689042 0)
(0.0685614 0.000689241 0)
(0.0671827 0.000689356 0)
(0.0658039 0.000689394 0)
(0.0644251 0.000689358 0)
(0.0630464 0.000689255 0)
(0.061668 0.000689088 0)
(0.06029 0.000688861 0)
(0.0589125 0.000688581 0)
(0.0575356 0.00068825 0)
(0.0561594 0.000687873 0)
(0.0547841 0.000687454 0)
(0.0534096 0.000686997 0)
(0.0520361 0.000686505 0)
(0.0506635 0.000685983 0)
(0.0492921 0.000685434 0)
(0.0479218 0.000684861 0)
(0.0465526 0.000684268 0)
(0.0451847 0.000683658 0)
(0.043818 0.000683035 0)
(0.0424525 0.0006824 0)
(0.0410884 0.000681757 0)
(0.0397255 0.000681109 0)
(0.0383639 0.000680459 0)
(0.0370037 0.000679808 0)
(0.0356447 0.00067916 0)
(0.034287 0.000678517 0)
(0.0329307 0.00067788 0)
(0.0315755 0.000677253 0)
(0.0302217 0.000676637 0)
(0.028869 0.000676035 0)
(0.0275175 0.000675447 0)
(0.0261672 0.000674877 0)
(0.024818 0.000674324 0)
(0.02347 0.000673792 0)
(0.0221229 0.000673282 0)
(0.0207769 0.000672794 0)
(0.0194318 0.000672331 0)
(0.0180876 0.000671893 0)
(0.0167442 0.000671482 0)
(0.0154017 0.000671098 0)
(0.0140598 0.000670743 0)
(0.0127187 0.000670418 0)
(0.0113782 0.000670122 0)
(0.0100383 0.000669858 0)
(0.00869881 0.000669626 0)
(0.00735979 0.000669425 0)
(0.00602114 0.000669258 0)
(0.0046828 0.000669123 0)
(0.00334469 0.000669022 0)
(0.00200674 0.000668955 0)
(0.000668904 0.000668921 0)
(0.000690746 -0.00207239 0)
(0.00207228 -0.00207252 0)
(0.00345395 -0.00207278 0)
(0.00483583 -0.00207317 0)
(0.00621802 -0.00207369 0)
(0.00760059 -0.00207433 0)
(0.00898364 -0.00207511 0)
(0.0103673 -0.002076 0)
(0.0117515 -0.00207702 0)
(0.0131365 -0.00207816 0)
(0.0145222 -0.00207942 0)
(0.0159089 -0.00208079 0)
(0.0172965 -0.00208227 0)
(0.0186851 -0.00208386 0)
(0.0200748 -0.00208555 0)
(0.0214657 -0.00208734 0)
(0.0228578 -0.00208923 0)
(0.0242513 -0.0020912 0)
(0.025646 -0.00209326 0)
(0.0270422 -0.0020954 0)
(0.0284398 -0.00209761 0)
(0.0298389 -0.00209988 0)
(0.0312396 -0.00210222 0)
(0.0326418 -0.0021046 0)
(0.0340456 -0.00210703 0)
(0.0354511 -0.0021095 0)
(0.0368583 -0.002112 0)
(0.0382671 -0.00211451 0)
(0.0396776 -0.00211704 0)
(0.0410898 -0.00211956 0)
(0.0425037 -0.00212208 0)
(0.0439193 -0.00212458 0)
(0.0453365 -0.00212704 0)
(0.0467554 -0.00212946 0)
(0.0481759 -0.00213183 0)
(0.0495979 -0.00213413 0)
(0.0510215 -0.00213635 0)
(0.0524465 -0.00213848 0)
(0.0538729 -0.0021405 0)
(0.0553007 -0.0021424 0)
(0.0567296 -0.00214416 0)
(0.0581597 -0.00214578 0)
(0.0595909 -0.00214722 0)
(0.0610229 -0.00214848 0)
(0.0624558 -0.00214954 0)
(0.0638892 -0.00215038 0)
(0.0653232 -0.00215099 0)
(0.0667575 -0.00215134 0)
(0.068192 -0.00215142 0)
(0.0696265 -0.00215121 0)
(0.0710607 -0.00215069 0)
(0.0724945 -0.00214983 0)
(0.0739276 -0.00214862 0)
(0.0753597 -0.00214704 0)
(0.0767908 -0.00214507 0)
(0.0782203 -0.00214268 0)
(0.0796482 -0.00213985 0)
(0.081074 -0.00213656 0)
(0.0824975 -0.00213278 0)
(0.0839184 -0.0021285 0)
(0.0853362 -0.00212369 0)
(0.0867506 -0.00211833 0)
(0.0881613 -0.00211239 0)
(0.0895679 -0.00210585 0)
(0.0909699 -0.00209869 0)
(0.0923669 -0.00209088 0)
(0.0937586 -0.0020824 0)
(0.0951443 -0.00207323 0)
(0.0965237 -0.00206334 0)
(0.0978963 -0.00205271 0)
(0.0992616 -0.00204132 0)
(0.100619 -0.00202914 0)
(0.101968 -0.00201616 0)
(0.103308 -0.00200234 0)
(0.104639 -0.00198768 0)
(0.10596 -0.00197214 0)
(0.10727 -0.00195572 0)
(0.108568 -0.00193838 0)
(0.109855 -0.00192012 0)
(0.11113 -0.00190092 0)
(0.112391 -0.00188075 0)
(0.113639 -0.00185961 0)
(0.114872 -0.00183748 0)
(0.11609 -0.00181435 0)
(0.117292 -0.00179021 0)
(0.118478 -0.00176504 0)
(0.119647 -0.00173884 0)
(0.120798 -0.0017116 0)
(0.12193 -0.00168332 0)
(0.123043 -0.00165399 0)
(0.124137 -0.00162361 0)
(0.125209 -0.00159218 0)
(0.126261 -0.0015597 0)
(0.12729 -0.00152618 0)
(0.128297 -0.00149161 0)
(0.12928 -0.00145602 0)
(0.13024 -0.0014194 0)
(0.131174 -0.00138177 0)
(0.132083 -0.00134315 0)
(0.132966 -0.00130354 0)
(0.133822 -0.00126297 0)
(0.134651 -0.00122146 0)
(0.135452 -0.00117902 0)
(0.136224 -0.00113569 0)
(0.136967 -0.00109148 0)
(0.137681 -0.00104643 0)
(0.138364 -0.00100056 0)
(0.139016 -0.000953907 0)
(0.139637 -0.000906506 0)
(0.140225 -0.000858391 0)
(0.140782 -0.000809599 0)
(0.141306 -0.000760168 0)
(0.141796 -0.000710139 0)
(0.142253 -0.000659553 0)
(0.142676 -0.000608453 0)
(0.143065 -0.000556884 0)
(0.143419 -0.000504891 0)
(0.143739 -0.000452519 0)
(0.144023 -0.000399817 0)
(0.144272 -0.000346833 0)
(0.144486 -0.000293614 0)
(0.144664 -0.000240211 0)
(0.144806 -0.000186671 0)
(0.144913 -0.000133047 0)
(0.144984 -7.93856e-05 0)
(0.145019 -2.57383e-05 0)
(0.145018 2.78459e-05 0)
(0.144981 8.13176e-05 0)
(0.144909 0.000134628 0)
(0.144802 0.000187729 0)
(0.144659 0.000240574 0)
(0.14448 0.000293114 0)
(0.144267 0.000345306 0)
(0.14402 0.000397104 0)
(0.143737 0.000448464 0)
(0.143421 0.000499345 0)
(0.143071 0.000549705 0)
(0.142687 0.000599505 0)
(0.142271 0.000648707 0)
(0.141822 0.000697275 0)
(0.14134 0.000745174 0)
(0.140827 0.000792371 0)
(0.140283 0.000838834 0)
(0.139708 0.000884536 0)
(0.139103 0.000929447 0)
(0.138468 0.000973542 0)
(0.137803 0.0010168 0)
(0.137111 0.00105919 0)
(0.13639 0.00110071 0)
(0.135642 0.00114132 0)
(0.134867 0.00118102 0)
(0.134066 0.00121978 0)
(0.13324 0.00125761 0)
(0.132388 0.00129448 0)
(0.131513 0.00133039 0)
(0.130613 0.00136534 0)
(0.129691 0.00139931 0)
(0.128746 0.0014323 0)
(0.12778 0.00146431 0)
(0.126793 0.00149534 0)
(0.125785 0.00152539 0)
(0.124758 0.00155447 0)
(0.123711 0.00158258 0)
(0.122646 0.00160972 0)
(0.121564 0.0016359 0)
(0.120464 0.00166113 0)
(0.119348 0.00168541 0)
(0.118216 0.00170877 0)
(0.117068 0.0017312 0)
(0.115906 0.00175273 0)
(0.11473 0.00177336 0)
(0.113541 0.0017931 0)
(0.112338 0.00181199 0)
(0.111124 0.00183002 0)
(0.109897 0.00184721 0)
(0.10866 0.00186359 0)
(0.107412 0.00187917 0)
(0.106153 0.00189396 0)
(0.104885 0.00190799 0)
(0.103608 0.00192127 0)
(0.102323 0.00193382 0)
(0.101029 0.00194567 0)
(0.0997277 0.00195682 0)
(0.0984191 0.00196731 0)
(0.0971038 0.00197715 0)
(0.0957821 0.00198635 0)
(0.0944546 0.00199495 0)
(0.0931215 0.00200295 0)
(0.0917833 0.00201038 0)
(0.0904403 0.00201727 0)
(0.0890929 0.00202362 0)
(0.0877415 0.00202945 0)
(0.0863864 0.0020348 0)
(0.0850279 0.00203967 0)
(0.0836663 0.00204408 0)
(0.0823019 0.00204806 0)
(0.080935 0.00205162 0)
(0.0795659 0.00205479 0)
(0.0781949 0.00205757 0)
(0.0768221 0.00205998 0)
(0.0754478 0.00206206 0)
(0.0740723 0.0020638 0)
(0.0726957 0.00206523 0)
(0.0713183 0.00206636 0)
(0.0699402 0.00206721 0)
(0.0685616 0.0020678 0)
(0.0671828 0.00206814 0)
(0.0658038 0.00206825 0)
(0.0644249 0.00206814 0)
(0.0630461 0.00206783 0)
(0.0616675 0.00206732 0)
(0.0602894 0.00206664 0)
(0.0589118 0.00206579 0)
(0.0575349 0.00206479 0)
(0.0561586 0.00206366 0)
(0.0547832 0.0020624 0)
(0.0534086 0.00206102 0)
(0.052035 0.00205954 0)
(0.0506624 0.00205797 0)
(0.0492909 0.00205632 0)
(0.0479206 0.0020546 0)
(0.0465514 0.00205282 0)
(0.0451834 0.00205099 0)
(0.0438167 0.00204911 0)
(0.0424512 0.00204721 0)
(0.0410871 0.00204527 0)
(0.0397242 0.00204333 0)
(0.0383626 0.00204137 0)
(0.0370024 0.00203942 0)
(0.0356434 0.00203747 0)
(0.0342857 0.00203554 0)
(0.0329294 0.00203363 0)
(0.0315743 0.00203175 0)
(0.0302204 0.0020299 0)
(0.0288678 0.00202809 0)
(0.0275164 0.00202632 0)
(0.0261661 0.00202461 0)
(0.0248169 0.00202295 0)
(0.0234689 0.00202135 0)
(0.0221219 0.00201982 0)
(0.0207759 0.00201836 0)
(0.0194308 0.00201697 0)
(0.0180867 0.00201565 0)
(0.0167434 0.00201442 0)
(0.0154009 0.00201326 0)
(0.0140592 0.0020122 0)
(0.0127181 0.00201122 0)
(0.0113776 0.00201033 0)
(0.0100378 0.00200954 0)
(0.00869837 0.00200884 0)
(0.00735942 0.00200824 0)
(0.00602084 0.00200774 0)
(0.00468256 0.00200733 0)
(0.00334452 0.00200703 0)
(0.00200664 0.00200683 0)
(0.00066887 0.00200673 0)
(0.000690658 -0.00345384 0)
(0.00207202 -0.00345405 0)
(0.00345351 -0.00345449 0)
(0.00483522 -0.00345514 0)
(0.00621724 -0.00345601 0)
(0.00759964 -0.00345709 0)
(0.00898253 -0.00345837 0)
(0.010366 -0.00345987 0)
(0.0117501 -0.00346157 0)
(0.0131349 -0.00346347 0)
(0.0145205 -0.00346557 0)
(0.015907 -0.00346786 0)
(0.0172944 -0.00347033 0)
(0.0186829 -0.00347298 0)
(0.0200725 -0.00347581 0)
(0.0214633 -0.0034788 0)
(0.0228553 -0.00348194 0)
(0.0242486 -0.00348524 0)
(0.0256432 -0.00348868 0)
(0.0270393 -0.00349225 0)
(0.0284368 -0.00349594 0)
(0.0298358 -0.00349974 0)
(0.0312364 -0.00350364 0)
(0.0326386 -0.00350762 0)
(0.0340424 -0.00351168 0)
(0.0354478 -0.00351581 0)
(0.0368549 -0.00351997 0)
(0.0382637 -0.00352418 0)
(0.0396742 -0.0035284 0)
(0.0410864 -0.00353262 0)
(0.0425004 -0.00353682 0)
(0.043916 -0.003541 0)
(0.0453332 -0.00354512 0)
(0.0467522 -0.00354917 0)
(0.0481727 -0.00355313 0)
(0.0495949 -0.00355698 0)
(0.0510186 -0.00356069 0)
(0.0524437 -0.00356425 0)
(0.0538703 -0.00356764 0)
(0.0552982 -0.00357082 0)
(0.0567274 -0.00357378 0)
(0.0581577 -0.00357648 0)
(0.059589 -0.00357891 0)
(0.0610213 -0.00358103 0)
(0.0624545 -0.00358281 0)
(0.0638882 -0.00358424 0)
(0.0653226 -0.00358527 0)
(0.0667572 -0.00358588 0)
(0.0681921 -0.00358603 0)
(0.0696269 -0.0035857 0)
(0.0710616 -0.00358485 0)
(0.0724958 -0.00358345 0)
(0.0739294 -0.00358146 0)
(0.0753621 -0.00357884 0)
(0.0767936 -0.00357558 0)
(0.0782238 -0.00357161 0)
(0.0796522 -0.00356692 0)
(0.0810787 -0.00356146 0)
(0.0825029 -0.0035552 0)
(0.0839244 -0.00354809 0)
(0.0853429 -0.0035401 0)
(0.0867581 -0.00353119 0)
(0.0881696 -0.00352132 0)
(0.089577 -0.00351045 0)
(0.0909798 -0.00349854 0)
(0.0923778 -0.00348555 0)
(0.0937703 -0.00347144 0)
(0.095157 -0.00345618 0)
(0.0965374 -0.00343973 0)
(0.097911 -0.00342204 0)
(0.0992773 -0.00340307 0)
(0.100636 -0.0033828 0)
(0.101986 -0.00336118 0)
(0.103327 -0.00333818 0)
(0.104659 -0.00331376 0)
(0.105981 -0.00328789 0)
(0.107292 -0.00326054 0)
(0.108592 -0.00323167 0)
(0.10988 -0.00320126 0)
(0.111156 -0.00316926 0)
(0.112418 -0.00313567 0)
(0.113667 -0.00310045 0)
(0.114902 -0.00306358 0)
(0.116121 -0.00302504 0)
(0.117325 -0.00298481 0)
(0.118512 -0.00294288 0)
(0.119682 -0.00289922 0)
(0.120835 -0.00285383 0)
(0.121968 -0.00280669 0)
(0.123083 -0.00275781 0)
(0.124178 -0.00270718 0)
(0.125252 -0.00265479 0)
(0.126305 -0.00260066 0)
(0.127336 -0.00254478 0)
(0.128344 -0.00248717 0)
(0.129329 -0.00242783 0)
(0.130289 -0.00236679 0)
(0.131225 -0.00230407 0)
(0.132135 -0.00223967 0)
(0.13302 -0.00217364 0)
(0.133877 -0.002106 0)
(0.134707 -0.00203679 0)
(0.135509 -0.00196603 0)
(0.136283 -0.00189378 0)
(0.137027 -0.00182007 0)
(0.137741 -0.00174495 0)
(0.138425 -0.00166847 0)
(0.139079 -0.00159068 0)
(0.1397 -0.00151164 0)
(0.14029 -0.0014314 0)
(0.140847 -0.00135004 0)
(0.141372 -0.00126761 0)
(0.141863 -0.00118418 0)
(0.142321 -0.00109982 0)
(0.142745 -0.00101461 0)
(0.143134 -0.00092861 0)
(0.143489 -0.000841903 0)
(0.143809 -0.000754565 0)
(0.144093 -0.000666675 0)
(0.144343 -0.000578313 0)
(0.144557 -0.000489561 0)
(0.144735 -0.0004005 0)
(0.144878 -0.000311213 0)
(0.144984 -0.000221783 0)
(0.145055 -0.000132293 0)
(0.14509 -4.28258e-05 0)
(0.145089 4.65358e-05 0)
(0.145053 0.000135709 0)
(0.14498 0.000224614 0)
(0.144872 0.000313169 0)
(0.144729 0.000401294 0)
(0.14455 0.000488913 0)
(0.144337 0.000575949 0)
(0.144088 0.000662326 0)
(0.143806 0.000747974 0)
(0.143489 0.00083282 0)
(0.143138 0.000916798 0)
(0.142753 0.00099984 0)
(0.142336 0.00108188 0)
(0.141886 0.00116287 0)
(0.141404 0.00124274 0)
(0.14089 0.00132143 0)
(0.140344 0.00139891 0)
(0.139768 0.0014751 0)
(0.139162 0.00154999 0)
(0.138526 0.0016235 0)
(0.137861 0.00169562 0)
(0.137167 0.0017663 0)
(0.136445 0.00183551 0)
(0.135696 0.00190322 0)
(0.13492 0.0019694 0)
(0.134117 0.00203402 0)
(0.13329 0.00209708 0)
(0.132437 0.00215854 0)
(0.13156 0.0022184 0)
(0.130659 0.00227664 0)
(0.129736 0.00233326 0)
(0.12879 0.00238825 0)
(0.127822 0.0024416 0)
(0.126833 0.00249332 0)
(0.125824 0.00254341 0)
(0.124796 0.00259187 0)
(0.123748 0.0026387 0)
(0.122682 0.00268393 0)
(0.121598 0.00272755 0)
(0.120497 0.00276959 0)
(0.11938 0.00281006 0)
(0.118246 0.00284897 0)
(0.117098 0.00288634 0)
(0.115934 0.0029222 0)
(0.114757 0.00295657 0)
(0.113566 0.00298947 0)
(0.112363 0.00302092 0)
(0.111147 0.00305095 0)
(0.10992 0.0030796 0)
(0.108681 0.00310687 0)
(0.107432 0.00313281 0)
(0.106172 0.00315745 0)
(0.104904 0.00318081 0)
(0.103626 0.00320292 0)
(0.102339 0.00322382 0)
(0.101044 0.00324354 0)
(0.0997421 0.00326212 0)
(0.0984327 0.00327957 0)
(0.0971165 0.00329594 0)
(0.095794 0.00331126 0)
(0.0944656 0.00332557 0)
(0.0931318 0.00333889 0)
(0.0917928 0.00335125 0)
(0.0904491 0.0033627 0)
(0.0891011 0.00337326 0)
(0.087749 0.00338297 0)
(0.0863932 0.00339185 0)
(0.0850341 0.00339995 0)
(0.0836719 0.00340729 0)
(0.0823069 0.0034139 0)
(0.0809395 0.00341982 0)
(0.0795699 0.00342507 0)
(0.0781983 0.00342968 0)
(0.076825 0.00343369 0)
(0.0754503 0.00343712 0)
(0.0740744 0.00344001 0)
(0.0726974 0.00344237 0)
(0.0713196 0.00344424 0)
(0.0699411 0.00344565 0)
(0.0685623 0.00344662 0)
(0.0671831 0.00344717 0)
(0.0658038 0.00344733 0)
(0.0644246 0.00344713 0)
(0.0630455 0.00344659 0)
(0.0616667 0.00344573 0)
(0.0602884 0.00344458 0)
(0.0589106 0.00344315 0)
(0.0575334 0.00344148 0)
(0.056157 0.00343957 0)
(0.0547814 0.00343746 0)
(0.0534067 0.00343515 0)
(0.052033 0.00343267 0)
(0.0506603 0.00343005 0)
(0.0492887 0.00342728 0)
(0.0479182 0.0034244 0)
(0.046549 0.00342142 0)
(0.045181 0.00341836 0)
(0.0438142 0.00341522 0)
(0.0424487 0.00341204 0)
(0.0410845 0.00340881 0)
(0.0397216 0.00340555 0)
(0.03836 0.00340229 0)
(0.0369998 0.00339902 0)
(0.0356408 0.00339577 0)
(0.0342832 0.00339254 0)
(0.0329268 0.00338935 0)
(0.0315718 0.00338621 0)
(0.030218 0.00338312 0)
(0.0288654 0.0033801 0)
(0.027514 0.00337715 0)
(0.0261638 0.00337429 0)
(0.0248148 0.00337152 0)
(0.0234668 0.00336885 0)
(0.0221199 0.00336629 0)
(0.020774 0.00336385 0)
(0.019429 0.00336152 0)
(0.018085 0.00335933 0)
(0.0167418 0.00335727 0)
(0.0153994 0.00335534 0)
(0.0140578 0.00335356 0)
(0.0127168 0.00335193 0)
(0.0113765 0.00335045 0)
(0.0100368 0.00334913 0)
(0.00869751 0.00334796 0)
(0.00735868 0.00334696 0)
(0.00602023 0.00334612 0)
(0.00468209 0.00334544 0)
(0.00334418 0.00334494 0)
(0.00200644 0.0033446 0)
(0.000668802 0.00334443 0)
(0.000690527 -0.00483506 0)
(0.00207163 -0.00483537 0)
(0.00345286 -0.00483598 0)
(0.00483431 -0.0048369 0)
(0.00621606 -0.00483811 0)
(0.00759822 -0.00483962 0)
(0.00898085 -0.00484143 0)
(0.010364 -0.00484353 0)
(0.0117479 -0.00484592 0)
(0.0131325 -0.00484859 0)
(0.0145178 -0.00485153 0)
(0.0159041 -0.00485474 0)
(0.0172913 -0.00485821 0)
(0.0186796 -0.00486193 0)
(0.020069 -0.0048659 0)
(0.0214596 -0.00487009 0)
(0.0228514 -0.00487451 0)
(0.0242445 -0.00487914 0)
(0.025639 -0.00488397 0)
(0.0270349 -0.00488898 0)
(0.0284323 -0.00489416 0)
(0.0298312 -0.00489949 0)
(0.0312316 -0.00490497 0)
(0.0326337 -0.00491057 0)
(0.0340374 -0.00491627 0)
(0.0354428 -0.00492206 0)
(0.0368499 -0.00492792 0)
(0.0382586 -0.00493382 0)
(0.0396691 -0.00493975 0)
(0.0410814 -0.00494569 0)
(0.0424953 -0.0049516 0)
(0.0439109 -0.00495747 0)
(0.0453283 -0.00496326 0)
(0.0467473 -0.00496896 0)
(0.048168 -0.00497453 0)
(0.0495903 -0.00497995 0)
(0.0510142 -0.00498519 0)
(0.0524395 -0.00499021 0)
(0.0538663 -0.00499498 0)
(0.0552945 -0.00499947 0)
(0.0567239 -0.00500364 0)
(0.0581545 -0.00500746 0)
(0.0595863 -0.0050109 0)
(0.0610189 -0.0050139 0)
(0.0624525 -0.00501644 0)
(0.0638867 -0.00501848 0)
(0.0653215 -0.00501997 0)
(0.0667567 -0.00502086 0)
(0.0681921 -0.00502112 0)
(0.0696276 -0.0050207 0)
(0.0710629 -0.00501956 0)
(0.0724978 -0.00501765 0)
(0.0739321 -0.00501491 0)
(0.0753655 -0.0050113 0)
(0.0767979 -0.00500678 0)
(0.0782289 -0.00500128 0)
(0.0796583 -0.00499477 0)
(0.0810857 -0.00498718 0)
(0.0825108 -0.00497846 0)
(0.0839334 -0.00496856 0)
(0.085353 -0.00495743 0)
(0.0867693 -0.00494501 0)
(0.088182 -0.00493124 0)
(0.0895906 -0.00491608 0)
(0.0909947 -0.00489946 0)
(0.0923939 -0.00488133 0)
(0.0937878 -0.00486164 0)
(0.095176 -0.00484033 0)
(0.0965578 -0.00481734 0)
(0.0979329 -0.00479263 0)
(0.0993008 -0.00476614 0)
(0.100661 -0.00473781 0)
(0.102013 -0.00470759 0)
(0.103356 -0.00467544 0)
(0.104689 -0.0046413 0)
(0.106013 -0.00460513 0)
(0.107326 -0.00456688 0)
(0.108628 -0.0045265 0)
(0.109918 -0.00448396 0)
(0.111195 -0.00443921 0)
(0.11246 -0.00439222 0)
(0.113711 -0.00434295 0)
(0.114947 -0.00429136 0)
(0.116168 -0.00423743 0)
(0.117374 -0.00418113 0)
(0.118563 -0.00412244 0)
(0.119736 -0.00406133 0)
(0.12089 -0.00399779 0)
(0.122026 -0.00393182 0)
(0.123143 -0.00386339 0)
(0.12424 -0.0037925 0)
(0.125316 -0.00371916 0)
(0.126371 -0.00364336 0)
(0.127404 -0.00356512 0)
(0.128414 -0.00348444 0)
(0.129401 -0.00340135 0)
(0.130363 -0.00331587 0)
(0.131301 -0.00322802 0)
(0.132214 -0.00313784 0)
(0.1331 -0.00304535 0)
(0.133959 -0.00295061 0)
(0.134791 -0.00285366 0)
(0.135595 -0.00275455 0)
(0.13637 -0.00265333 0)
(0.137116 -0.00255007 0)
(0.137832 -0.00244483 0)
(0.138518 -0.00233768 0)
(0.139173 -0.0022287 0)
(0.139796 -0.00211796 0)
(0.140387 -0.00200555 0)
(0.140946 -0.00189155 0)
(0.141472 -0.00177605 0)
(0.141964 -0.00165916 0)
(0.142423 -0.00154095 0)
(0.142847 -0.00142155 0)
(0.143238 -0.00130105 0)
(0.143593 -0.00117955 0)
(0.143914 -0.00105716 0)
(0.144199 -0.000934005 0)
(0.144449 -0.000810185 0)
(0.144664 -0.000685818 0)
(0.144842 -0.000561017 0)
(0.144985 -0.000435899 0)
(0.145092 -0.00031058 0)
(0.145163 -0.000185178 0)
(0.145198 -5.98083e-05 0)
(0.145196 6.54128e-05 0)
(0.145159 0.00019037 0)
(0.145087 0.000314949 0)
(0.144978 0.000439036 0)
(0.144834 0.000562521 0)
(0.144655 0.000685294 0)
(0.144441 0.000807249 0)
(0.144192 0.000928279 0)
(0.143908 0.00104828 0)
(0.14359 0.00116716 0)
(0.143238 0.00128483 0)
(0.142853 0.00140117 0)
(0.142434 0.00151612 0)
(0.141983 0.00162958 0)
(0.141499 0.00174147 0)
(0.140983 0.00185172 0)
(0.140437 0.00196025 0)
(0.139859 0.00206699 0)
(0.139251 0.00217189 0)
(0.138613 0.00227487 0)
(0.137946 0.00237588 0)
(0.137251 0.00247488 0)
(0.136527 0.00257181 0)
(0.135776 0.00266664 0)
(0.134998 0.00275933 0)
(0.134194 0.00284983 0)
(0.133364 0.00293813 0)
(0.13251 0.0030242 0)
(0.131631 0.00310802 0)
(0.130728 0.00318958 0)
(0.129803 0.00326885 0)
(0.128855 0.00334584 0)
(0.127885 0.00342053 0)
(0.126895 0.00349293 0)
(0.125884 0.00356305 0)
(0.124853 0.00363088 0)
(0.123803 0.00369644 0)
(0.122735 0.00375974 0)
(0.121649 0.0038208 0)
(0.120547 0.00387963 0)
(0.119427 0.00393626 0)
(0.118292 0.00399071 0)
(0.117142 0.004043 0)
(0.115976 0.00409318 0)
(0.114797 0.00414126 0)
(0.113605 0.00418728 0)
(0.1124 0.00423128 0)
(0.111182 0.00427329 0)
(0.109953 0.00431334 0)
(0.108713 0.00435149 0)
(0.107462 0.00438777 0)
(0.106201 0.00442221 0)
(0.104931 0.00445487 0)
(0.103651 0.00448579 0)
(0.102363 0.00451501 0)
(0.101067 0.00454257 0)
(0.0997637 0.00456853 0)
(0.0984529 0.00459292 0)
(0.0971355 0.00461579 0)
(0.0958118 0.0046372 0)
(0.0944822 0.00465717 0)
(0.0931472 0.00467577 0)
(0.0918071 0.00469304 0)
(0.0904623 0.00470902 0)
(0.0891132 0.00472376 0)
(0.0877601 0.00473731 0)
(0.0864034 0.0047497 0)
(0.0850433 0.00476099 0)
(0.0836802 0.00477122 0)
(0.0823144 0.00478044 0)
(0.0809462 0.00478867 0)
(0.0795758 0.00479598 0)
(0.0782035 0.0048024 0)
(0.0768295 0.00480798 0)
(0.0754541 0.00481274 0)
(0.0740775 0.00481674 0)
(0.0726999 0.00482001 0)
(0.0713215 0.00482259 0)
(0.0699426 0.00482452 0)
(0.0685632 0.00482584 0)
(0.0671835 0.00482658 0)
(0.0658038 0.00482677 0)
(0.0644241 0.00482646 0)
(0.0630447 0.00482567 0)
(0.0616655 0.00482443 0)
(0.0602869 0.00482279 0)
(0.0589087 0.00482076 0)
(0.0575313 0.00481839 0)
(0.0561546 0.00481569 0)
(0.0547787 0.0048127 0)
(0.0534038 0.00480945 0)
(0.0520299 0.00480596 0)
(0.050657 0.00480225 0)
(0.0492853 0.00479836 0)
(0.0479147 0.00479431 0)
(0.0465454 0.00479011 0)
(0.0451772 0.0047858 0)
(0.0438104 0.00478139 0)
(0.0424448 0.00477691 0)
(0.0410806 0.00477237 0)
(0.0397177 0.00476779 0)
(0.0383561 0.0047632 0)
(0.0369958 0.00475862 0)
(0.0356369 0.00475405 0)
(0.0342793 0.00474951 0)
(0.032923 0.00474503 0)
(0.031568 0.00474061 0)
(0.0302143 0.00473627 0)
(0.0288618 0.00473203 0)
(0.0275106 0.00472789 0)
(0.0261605 0.00472387 0)
(0.0248115 0.00471998 0)
(0.0234637 0.00471624 0)
(0.0221169 0.00471265 0)
(0.0207711 0.00470921 0)
(0.0194263 0.00470595 0)
(0.0180824 0.00470287 0)
(0.0167394 0.00469998 0)
(0.0153972 0.00469728 0)
(0.0140557 0.00469478 0)
(0.012715 0.00469249 0)
(0.0113748 0.00469042 0)
(0.0100353 0.00468856 0)
(0.0086962 0.00468692 0)
(0.00735758 0.00468551 0)
(0.00601932 0.00468434 0)
(0.00468138 0.00468339 0)
(0.00334367 0.00468268 0)
(0.00200613 0.00468221 0)
(0.0006687 0.00468197 0)
(0.000690352 -0.00621599 0)
(0.0020711 -0.00621638 0)
(0.00345198 -0.00621717 0)
(0.00483308 -0.00621835 0)
(0.0062145 -0.00621992 0)
(0.00759631 -0.00622187 0)
(0.0089786 -0.0062242 0)
(0.0103615 -0.00622691 0)
(0.011745 -0.00622999 0)
(0.0131292 -0.00623343 0)
(0.0145143 -0.00623722 0)
(0.0159003 -0.00624136 0)
(0.0172872 -0.00624584 0)
(0.0186752 -0.00625064 0)
(0.0200643 -0.00625575 0)
(0.0214546 -0.00626117 0)
(0.0228462 -0.00626687 0)
(0.0242391 -0.00627284 0)
(0.0256333 -0.00627907 0)
(0.027029 -0.00628553 0)
(0.0284262 -0.00629222 0)
(0.029825 -0.00629911 0)
(0.0312253 -0.00630618 0)
(0.0326272 -0.0063134 0)
(0.0340308 -0.00632077 0)
(0.0354361 -0.00632825 0)
(0.0368431 -0.00633582 0)
(0.0382518 -0.00634344 0)
(0.0396623 -0.00635111 0)
(0.0410745 -0.00635878 0)
(0.0424885 -0.00636642 0)
(0.0439042 -0.00637401 0)
(0.0453217 -0.0063815 0)
(0.0467408 -0.00638888 0)
(0.0481617 -0.00639609 0)
(0.0495842 -0.00640311 0)
(0.0510082 -0.0064099 0)
(0.0524339 -0.0064164 0)
(0.0538609 -0.0064226 0)
(0.0552894 -0.00642843 0)
(0.0567193 -0.00643386 0)
(0.0581503 -0.00643883 0)
(0.0595825 -0.00644331 0)
(0.0610157 -0.00644725 0)
(0.0624498 -0.00645058 0)
(0.0638846 -0.00645327 0)
(0.0653201 -0.00645526 0)
(0.066756 -0.00645648 0)
(0.0681921 -0.00645689 0)
(0.0696284 -0.00645644 0)
(0.0710645 -0.00645505 0)
(0.0725003 -0.00645267 0)
(0.0739356 -0.00644923 0)
(0.0753701 -0.00644468 0)
(0.0768036 -0.00643895 0)
(0.0782357 -0.00643197 0)
(0.0796662 -0.00642368 0)
(0.0810949 -0.00641402 0)
(0.0825214 -0.0064029 0)
(0.0839453 -0.00639027 0)
(0.0853664 -0.00637605 0)
(0.0867842 -0.00636017 0)
(0.0881984 -0.00634257 0)
(0.0896087 -0.00632317 0)
(0.0910145 -0.0063019 0)
(0.0924155 -0.00627868 0)
(0.0938112 -0.00625346 0)
(0.0952012 -0.00622615 0)
(0.096585 -0.00619669 0)
(0.0979621 -0.00616501 0)
(0.099332 -0.00613103 0)
(0.100694 -0.0060947 0)
(0.102048 -0.00605594 0)
(0.103393 -0.00601468 0)
(0.104729 -0.00597087 0)
(0.106055 -0.00592445 0)
(0.107371 -0.00587534 0)
(0.108675 -0.0058235 0)
(0.109967 -0.00576888 0)
(0.111248 -0.00571141 0)
(0.112515 -0.00565105 0)
(0.113768 -0.00558775 0)
(0.115007 -0.00552148 0)
(0.116231 -0.00545218 0)
(0.11744 -0.00537984 0)
(0.118632 -0.00530441 0)
(0.119807 -0.00522587 0)
(0.120964 -0.00514421 0)
(0.122103 -0.00505939 0)
(0.123222 -0.00497142 0)
(0.124322 -0.00488028 0)
(0.125401 -0.00478598 0)
(0.126459 -0.00468851 0)
(0.127495 -0.00458789 0)
(0.128508 -0.00448414 0)
(0.129497 -0.00437727 0)
(0.130462 -0.00426732 0)
(0.131403 -0.00415431 0)
(0.132318 -0.0040383 0)
(0.133207 -0.00391932 0)
(0.134069 -0.00379743 0)
(0.134903 -0.00367269 0)
(0.13571 -0.00354517 0)
(0.136487 -0.00341493 0)
(0.137236 -0.00328205 0)
(0.137954 -0.00314662 0)
(0.138642 -0.00300873 0)
(0.139298 -0.00286848 0)
(0.139923 -0.00272596 0)
(0.140516 -0.00258128 0)
(0.141077 -0.00243455 0)
(0.141604 -0.0022859 0)
(0.142098 -0.00213543 0)
(0.142559 -0.00198329 0)
(0.142985 -0.00182959 0)
(0.143376 -0.00167447 0)
(0.143733 -0.00151808 0)
(0.144054 -0.00136054 0)
(0.144341 -0.001202 0)
(0.144591 -0.00104261 0)
(0.144806 -0.000882508 0)
(0.144985 -0.000721851 0)
(0.145128 -0.000560786 0)
(0.145235 -0.000399462 0)
(0.145306 -0.000238031 0)
(0.145341 -7.66427e-05 0)
(0.14534 8.45533e-05 0)
(0.145302 0.000245408 0)
(0.145229 0.000405774 0)