/*--------------------------------*- C++ -*----------------------------------*\
| =========                 |                                                 |
| \\      /  F ield         | OpenFOAM: The Open Source CFD Toolbox           |
|  \\    /   O peration     | Version:  v2012                                 |
|   \\  /    A nd           | Website:  www.openfoam.com                      |
|    \\/     M anipulation  |                                                 |
\*---------------------------------------------------------------------------*/
FoamFile
{
    version     2.0;
    format      ascii;
    class       volScalarField;
    location    "15.25";
    object      W;
}
// * * * * * * * * * * * * * * * * * * * * * * * * * * * * * * * * * * * * * //

dimensions      [0 0 -1 0 0 0 0];


internalField   nonuniform List<scalar> 
65536
(
7.67135e-15
7.70232e-15
7.87118e-15
8.17873e-15
8.628e-15
9.22426e-15
9.97493e-15
1.08897e-14
1.19807e-14
1.32623e-14
1.47517e-14
1.64685e-14
1.84358e-14
2.06794e-14
2.32288e-14
2.61173e-14
2.93822e-14
3.30652e-14
3.72131e-14
4.18778e-14
4.71173e-14
5.29956e-14
5.95838e-14
6.69605e-14
7.52127e-14
8.44361e-14
9.47363e-14
1.06229e-13
1.19043e-13
1.33317e-13
1.49204e-13
1.66874e-13
1.86508e-13
2.08308e-13
2.32492e-13
2.59297e-13
2.88981e-13
3.21826e-13
3.58135e-13
3.98237e-13
4.42488e-13
4.91271e-13
5.45e-13
6.04119e-13
6.69105e-13
7.4047e-13
8.18761e-13
9.04562e-13
9.98496e-13
1.10123e-12
1.21345e-12
1.33592e-12
1.46943e-12
1.61479e-12
1.77288e-12
1.94463e-12
2.13098e-12
2.33294e-12
2.55155e-12
2.7879e-12
3.04309e-12
3.31829e-12
3.61468e-12
3.93347e-12
4.2759e-12
4.64323e-12
5.03671e-12
5.45764e-12
5.90728e-12
6.38691e-12
6.89777e-12
7.4411e-12
8.0181e-12
8.6299e-12
9.27762e-12
9.96228e-12
1.06848e-11
1.14461e-11
1.22469e-11
1.30879e-11
1.39696e-11
1.48923e-11
1.58563e-11
1.68616e-11
1.79082e-11
1.89958e-11
2.01238e-11
2.12916e-11
2.24982e-11
2.37426e-11
2.50234e-11
2.63391e-11
2.76877e-11
2.90674e-11
3.04759e-11
3.19107e-11
3.33691e-11
3.48482e-11
3.6345e-11
3.78562e-11
3.93783e-11
4.09078e-11
4.2441e-11
4.3974e-11
4.55028e-11
4.70236e-11
4.85321e-11
5.00244e-11
5.14964e-11
5.29439e-11
5.4363e-11
5.57498e-11
5.71002e-11
5.84107e-11
5.96775e-11
6.08973e-11
6.20667e-11
6.31825e-11
6.42419e-11
6.52422e-11
6.61808e-11
6.70556e-11
6.78643e-11
6.86053e-11
6.9277e-11
6.98779e-11
7.04069e-11
7.08631e-11
7.12458e-11
7.15544e-11
7.17886e-11
7.19482e-11
7.20331e-11
7.20435e-11
7.19796e-11
7.18418e-11
7.16304e-11
7.1346e-11
7.09892e-11
7.05606e-11
7.0061e-11
6.9491e-11
6.88515e-11
6.81432e-11
6.7367e-11
6.65236e-11
6.56141e-11
6.46393e-11
6.36003e-11
6.2498e-11
6.13336e-11
6.01083e-11
5.88234e-11
5.74806e-11
5.60813e-11
5.46277e-11
5.31216e-11
5.15656e-11
4.99622e-11
4.83145e-11
4.66259e-11
4.48999e-11
4.31408e-11
4.1353e-11
3.95414e-11
3.77112e-11
3.58683e-11
3.40186e-11
3.21686e-11
3.03248e-11
2.84942e-11
2.66839e-11
2.4901e-11
2.31527e-11
2.14461e-11
1.97882e-11
1.81854e-11
1.66441e-11
1.51701e-11
1.37686e-11
1.24442e-11
1.12007e-11
1.00412e-11
8.96797e-12
7.9825e-12
7.08535e-12
6.27623e-12
5.55406e-12
4.91693e-12
4.36218e-12
3.88646e-12
3.48575e-12
3.15546e-12
2.89051e-12
2.68534e-12
2.53405e-12
2.43043e-12
2.36807e-12
2.34043e-12
2.3409e-12
2.36295e-12
2.40016e-12
2.44639e-12
2.49583e-12
2.5431e-12
2.58342e-12
2.61261e-12
2.62724e-12
2.62467e-12
2.60308e-12
2.5615e-12
2.49978e-12
2.41855e-12
2.31918e-12
2.20362e-12
2.07435e-12
1.9342e-12
1.78622e-12
1.63355e-12
1.47927e-12
1.3263e-12
1.17728e-12
1.03449e-12
8.99814e-13
7.74692e-13
6.60129e-13
5.56706e-13
4.64619e-13
3.83723e-13
3.13594e-13
2.53585e-13
2.02891e-13
1.60609e-13
1.25782e-13
9.74526e-14
7.46921e-14
5.66294e-14
4.24695e-14
3.15037e-14
2.31141e-14
1.67727e-14
1.20371e-14
8.54308e-15
5.99602e-15
4.1615e-15
2.85599e-15
1.93808e-15
1.30045e-15
8.62903e-16
5.66372e-16
3.68049e-16
2.37396e-16
1.53031e-16
1.00352e-16
6.97777e-17
5.55178e-17
1.15853e-14
1.16324e-14
1.18884e-14
1.23545e-14
1.30352e-14
1.39386e-14
1.50761e-14
1.64624e-14
1.81159e-14
2.00587e-14
2.23169e-14
2.49208e-14
2.7905e-14
3.13094e-14
3.51789e-14
3.95643e-14
4.45226e-14
5.01178e-14
5.64211e-14
6.35121e-14
7.14792e-14
8.04207e-14
9.04454e-14
1.01674e-13
1.14238e-13
1.28286e-13
1.43979e-13
1.61495e-13
1.81029e-13
2.02797e-13
2.27032e-13
2.53992e-13
2.83959e-13
3.17239e-13
3.54168e-13
3.95108e-13
4.40457e-13
4.90643e-13
5.46131e-13
6.07426e-13
6.75072e-13
7.49653e-13
8.31803e-13
9.22198e-13
1.02157e-12
1.13069e-12
1.2504e-12
1.38158e-12
1.52518e-12
1.6822e-12
1.85371e-12
2.04083e-12
2.24474e-12
2.46669e-12
2.708e-12
2.97002e-12
3.25419e-12
3.562e-12
3.89498e-12
4.25473e-12
4.64289e-12
5.06113e-12
5.51117e-12
5.99476e-12
6.51368e-12
7.06969e-12
7.66458e-12
8.30013e-12
8.97808e-12
9.70017e-12
1.04681e-11
1.12834e-11
1.21476e-11
1.30622e-11
1.40286e-11
1.50478e-11
1.61209e-11
1.72489e-11
1.84324e-11
1.96718e-11
2.09674e-11
2.23193e-11
2.37272e-11
2.51905e-11
2.67085e-11
2.828e-11
2.99036e-11
3.15775e-11
3.32996e-11
3.50676e-11
3.68786e-11
3.87295e-11
4.06169e-11
4.2537e-11
4.44858e-11
4.64589e-11
4.84516e-11
5.0459e-11
5.2476e-11
5.44971e-11
5.65169e-11
5.85297e-11
6.05296e-11
6.25108e-11
6.44673e-11
6.63933e-11
6.82828e-11
7.013e-11
7.19293e-11
7.36751e-11
7.53621e-11
7.69851e-11
7.85393e-11
8.002e-11
8.1423e-11
8.27444e-11
8.39806e-11
8.51283e-11
8.61848e-11
8.71475e-11
8.80144e-11
8.87839e-11
8.94547e-11
9.00258e-11
9.04967e-11
9.08673e-11
9.11377e-11
9.13083e-11
9.138e-11
9.13536e-11
9.12306e-11
9.10122e-11
9.07003e-11
9.02965e-11
8.98029e-11
8.92215e-11
8.85543e-11
8.78036e-11
8.69716e-11
8.60605e-11
8.50724e-11
8.40097e-11
8.28745e-11
8.16688e-11
8.03949e-11
7.90548e-11
7.76504e-11
7.61839e-11
7.46571e-11
7.30721e-11
7.14308e-11
6.97353e-11
6.79877e-11
6.61902e-11
6.43451e-11
6.24549e-11
6.05221e-11
5.85498e-11
5.65411e-11
5.44993e-11
5.24282e-11
5.03318e-11
4.82146e-11
4.60813e-11
4.39372e-11
4.17876e-11
3.96386e-11
3.74963e-11
3.53671e-11
3.3258e-11
3.11758e-11
2.91276e-11
2.71206e-11
2.51617e-11
2.32581e-11
2.14163e-11
1.96429e-11
1.79437e-11
1.63244e-11
1.47896e-11
1.33436e-11
1.19898e-11
1.07308e-11
9.56835e-12
8.50331e-12
7.53569e-12
6.66463e-12
5.88844e-12
5.20461e-12
4.60988e-12
4.10027e-12
3.6712e-12
3.3175e-12
3.03351e-12
2.81316e-12
2.65002e-12
2.53742e-12
2.46848e-12
2.43622e-12
2.43366e-12
2.45389e-12
2.49017e-12
2.53604e-12
2.58544e-12
2.63277e-12
2.67303e-12
2.7019e-12
2.71582e-12
2.71206e-12
2.68874e-12
2.64487e-12
2.58029e-12
2.49567e-12
2.39243e-12
2.27259e-12
2.13871e-12
1.99371e-12
1.84073e-12
1.68301e-12
1.52373e-12
1.36587e-12
1.21216e-12
1.06494e-12
9.26124e-13
7.97202e-13
6.79194e-13
5.72692e-13
4.77886e-13
3.94621e-13
3.22454e-13
2.60714e-13
2.08568e-13
1.65082e-13
1.2927e-13
1.00143e-13
7.67458e-14
5.81804e-14
4.36283e-14
3.23602e-14
2.37403e-14
1.72256e-14
1.23611e-14
8.77234e-15
6.15647e-15
4.27254e-15
2.93199e-15
1.98953e-15
1.33489e-15
8.85699e-16
5.81301e-16
3.7773e-16
2.43627e-16
1.57039e-16
1.02975e-16
7.15977e-17
5.69651e-17
2.10028e-14
2.10892e-14
2.15556e-14
2.24041e-14
2.36432e-14
2.52876e-14
2.73581e-14
2.9882e-14
3.28929e-14
3.64313e-14
4.05451e-14
4.52898e-14
5.07293e-14
5.69366e-14
6.39942e-14
7.19954e-14
8.10452e-14
9.1261e-14
1.02774e-13
1.15731e-13
1.30294e-13
1.46644e-13
1.64982e-13
1.85529e-13
2.08531e-13
2.34259e-13
2.63009e-13
2.95112e-13
3.30926e-13
3.70849e-13
4.15313e-13
4.64794e-13
5.19811e-13
5.8093e-13
6.48769e-13
7.24e-13
8.07352e-13
8.99619e-13
1.00166e-12
1.1144e-12
1.23884e-12
1.37606e-12
1.52722e-12
1.69358e-12
1.87646e-12
2.07729e-12
2.29761e-12
2.53904e-12
2.80329e-12
3.09222e-12
3.40774e-12
3.7519e-12
4.12686e-12
4.53486e-12
4.97827e-12
5.45955e-12
5.98125e-12
6.54603e-12
7.15663e-12
7.81585e-12
8.52657e-12
9.29175e-12
1.01143e-11
1.09974e-11
1.19439e-11
1.29568e-11
1.40392e-11
1.5194e-11
1.6424e-11
1.7732e-11
1.91205e-11
2.05921e-11
2.2149e-11
2.37931e-11
2.55263e-11
2.73501e-11
2.92655e-11
3.12733e-11
3.33738e-11
3.55671e-11
3.78525e-11
4.0229e-11
4.2695e-11
4.52484e-11
4.78864e-11
5.06058e-11
5.34027e-11
5.62725e-11
5.92101e-11
6.22097e-11
6.52649e-11
6.83688e-11
7.15139e-11
7.4692e-11
7.78947e-11
8.11128e-11
8.43368e-11
8.7557e-11
9.07633e-11
9.39451e-11
9.70921e-11
1.00194e-10
1.03239e-10
1.06217e-10
1.09118e-10
1.11932e-10
1.14648e-10
1.17257e-10
1.1975e-10
1.22118e-10
1.24353e-10
1.26447e-10
1.28394e-10
1.30187e-10
1.31822e-10
1.33294e-10
1.34598e-10
1.35733e-10
1.36696e-10
1.37485e-10
1.381e-10
1.38542e-10
1.38811e-10
1.38909e-10
1.38839e-10
1.38603e-10
1.38205e-10
1.37649e-10
1.3694e-10
1.36081e-10
1.3508e-10
1.33941e-10
1.32669e-10
1.31271e-10
1.29753e-10
1.28121e-10
1.2638e-10
1.24536e-10
1.22596e-10
1.20565e-10
1.18449e-10
1.16253e-10
1.13982e-10
1.11642e-10
1.09237e-10
1.06771e-10
1.0425e-10
1.01676e-10
9.90552e-11
9.63902e-11
9.36849e-11
9.0943e-11
8.81678e-11
8.5363e-11
8.25319e-11
7.96782e-11
7.68055e-11
7.39175e-11
7.10181e-11
6.81114e-11
6.5202e-11
6.22943e-11
5.93933e-11
5.65044e-11
5.3633e-11
5.07851e-11
4.79668e-11
4.51845e-11
4.24451e-11
3.97553e-11
3.71221e-11
3.45527e-11
3.20539e-11
2.96328e-11
2.7296e-11
2.50499e-11
2.29004e-11
2.08529e-11
1.89123e-11
1.70825e-11
1.53671e-11
1.37683e-11
1.22879e-11
1.09265e-11
9.68371e-12
8.55848e-12
7.54865e-12
6.65124e-12
5.86246e-12
5.17774e-12
4.59183e-12
4.09884e-12
3.69236e-12
3.36552e-12
3.11105e-12
2.92141e-12
2.78882e-12
2.70539e-12
2.66318e-12
2.6543e-12
2.67099e-12
2.70577e-12
2.75147e-12
2.80139e-12
2.84942e-12
2.89007e-12
2.91865e-12
2.93129e-12
2.92504e-12
2.89789e-12
2.84876e-12
2.77752e-12
2.6849e-12
2.57244e-12
2.44233e-12
2.29732e-12
2.14055e-12
1.97542e-12
1.80539e-12
1.63384e-12
1.464e-12
1.29875e-12
1.14059e-12
9.91572e-13
8.53253e-13
7.26713e-13
6.1257e-13
5.1101e-13
4.21854e-13
3.44612e-13
2.78556e-13
2.22785e-13
1.76292e-13
1.38016e-13
1.06896e-13
8.19032e-14
6.20775e-14
4.65416e-14
3.45147e-14
2.53164e-14
1.8366e-14
1.31773e-14
9.35017e-15
6.56101e-15
4.55265e-15
3.1238e-15
2.1194e-15
1.42186e-15
9.43292e-16
6.19031e-16
4.02204e-16
2.59385e-16
1.6718e-16
1.09613e-16
7.62059e-17
6.06278e-17
3.98727e-14
4.00391e-14
4.09292e-14
4.25472e-14
4.49094e-14
4.8044e-14
5.19913e-14
5.68033e-14
6.25449e-14
6.92939e-14
7.71421e-14
8.61964e-14
9.65796e-14
1.08432e-13
1.21912e-13
1.372e-13
1.54497e-13
1.74029e-13
1.9605e-13
2.20841e-13
2.48716e-13
2.80023e-13
3.1515e-13
3.54524e-13
3.98618e-13
4.47955e-13
5.0311e-13
5.64717e-13
6.33473e-13
7.10143e-13
7.95565e-13
8.90658e-13
9.96423e-13
1.11396e-12
1.24445e-12
1.38921e-12
1.54964e-12
1.72728e-12
1.92377e-12
2.14092e-12
2.38066e-12
2.64507e-12
2.93639e-12
3.25703e-12
3.60956e-12
3.99674e-12
4.42149e-12
4.88694e-12
5.3964e-12
5.95339e-12
6.56159e-12
7.22492e-12
7.94748e-12
8.73354e-12
9.58758e-12
1.05143e-11
1.15184e-11
1.2605e-11
1.37792e-11
1.50462e-11
1.64113e-11
1.78801e-11
1.94578e-11
2.11501e-11
2.29624e-11
2.49e-11
2.69683e-11
2.91723e-11
3.15169e-11
3.40068e-11
3.66462e-11
3.9439e-11
4.23888e-11
4.54983e-11
4.877e-11
5.22055e-11
5.58056e-11
5.95707e-11
6.34999e-11
6.75915e-11
7.1843e-11
7.62506e-11
8.08095e-11
8.5514e-11
9.03568e-11
9.53297e-11
1.00423e-10
1.05627e-10
1.10929e-10
1.16317e-10
1.21775e-10
1.27289e-10
1.32844e-10
1.38421e-10
1.44003e-10
1.49571e-10
1.55105e-10
1.60587e-10
1.65996e-10
1.71312e-10
1.76513e-10
1.81581e-10
1.86495e-10
1.91236e-10
1.95784e-10
2.00121e-10
2.04231e-10
2.08097e-10
2.11703e-10
2.15037e-10
2.18085e-10
2.20838e-10
2.23285e-10
2.25419e-10
2.27234e-10
2.28726e-10
2.29892e-10
2.30731e-10
2.31245e-10
2.31435e-10
2.31306e-10
2.30863e-10
2.30112e-10
2.29062e-10
2.27722e-10
2.26102e-10
2.24214e-10
2.22069e-10
2.19679e-10
2.17059e-10
2.14221e-10
2.11179e-10
2.07947e-10
2.04539e-10
2.00969e-10
1.97251e-10
1.93397e-10
1.89421e-10
1.85335e-10
1.81152e-10
1.76883e-10
1.72539e-10
1.68131e-10
1.63668e-10
1.5916e-10
1.54615e-10
1.50042e-10
1.45449e-10
1.40841e-10
1.36225e-10
1.31609e-10
1.26997e-10
1.22395e-10
1.17807e-10
1.1324e-10
1.08697e-10
1.04184e-10
9.97043e-11
9.52633e-11
9.08658e-11
8.65166e-11
8.22207e-11
7.79835e-11
7.38104e-11
6.97072e-11
6.56799e-11
6.17347e-11
5.7878e-11
5.41163e-11
5.04564e-11
4.6905e-11
4.34686e-11
4.01538e-11
3.6967e-11
3.3914e-11
3.10003e-11
2.82309e-11
2.561e-11
2.31412e-11
2.08273e-11
1.86698e-11
1.66698e-11
1.48269e-11
1.314e-11
1.16068e-11
1.02242e-11
8.98783e-12
7.89266e-12
6.93273e-12
6.10134e-12
5.39108e-12
4.79397e-12
4.30155e-12
3.90494e-12
3.59496e-12
3.36219e-12
3.19711e-12
3.09014e-12
3.03178e-12
3.01266e-12
3.02368e-12
3.05607e-12
3.10156e-12
3.15244e-12
3.20167e-12
3.24306e-12
3.27125e-12
3.2819e-12
3.27169e-12
3.23838e-12
3.18078e-12
3.09877e-12
2.99319e-12
2.86577e-12
2.71897e-12
2.55587e-12
2.37998e-12
2.19507e-12
2.00498e-12
1.81348e-12
1.62411e-12
1.44006e-12
1.26407e-12
1.0984e-12
9.44756e-13
8.04299e-13
6.77687e-13
5.65106e-13
4.66333e-13
3.80806e-13
3.07704e-13
2.46014e-13
1.9461e-13
1.52309e-13
1.1793e-13
9.03319e-14
6.84472e-14
5.13037e-14
3.80365e-14
2.78929e-14
2.02306e-14
1.45119e-14
1.0295e-14
7.22253e-15
5.01071e-15
3.43747e-15
2.33181e-15
1.5641e-15
1.03749e-15
6.80749e-16
4.4224e-16
2.85165e-16
1.8377e-16
1.20474e-16
8.37458e-17
6.66204e-17
7.57926e-14
7.61138e-14
7.78153e-14
8.09051e-14
8.54149e-14
9.13992e-14
9.89351e-14
1.08123e-13
1.19088e-13
1.31979e-13
1.46973e-13
1.64277e-13
1.84125e-13
2.06789e-13
2.32573e-13
2.61825e-13
2.94933e-13
3.32332e-13
3.74512e-13
4.22015e-13
4.75447e-13
5.35482e-13
6.02866e-13
6.78426e-13
7.63077e-13
8.57828e-13
9.63793e-13
1.0822e-12
1.21439e-12
1.36186e-12
1.52621e-12
1.70924e-12
1.91288e-12
2.13925e-12
2.39067e-12
2.66965e-12
2.97894e-12
3.32148e-12
3.7005e-12
4.11946e-12
4.58212e-12
5.0925e-12
5.65493e-12
6.27408e-12
6.95491e-12
7.70274e-12
8.52323e-12
9.42241e-12
1.04066e-11
1.14827e-11
1.26577e-11
1.39391e-11
1.53347e-11
1.68529e-11
1.8502e-11
2.0291e-11
2.2229e-11
2.43254e-11
2.659e-11
2.90325e-11
3.1663e-11
3.44915e-11
3.75282e-11
4.07831e-11
4.42661e-11
4.7987e-11
5.19552e-11
5.61796e-11
6.06688e-11
6.54306e-11
7.04721e-11
7.57995e-11
8.1418e-11
8.73315e-11
9.3543e-11
1.00054e-10
1.06863e-10
1.1397e-10
1.2137e-10
1.29058e-10
1.37026e-10
1.45265e-10
1.53762e-10
1.62503e-10
1.71471e-10
1.80649e-10
1.90014e-10
1.99544e-10
2.09212e-10
2.1899e-10
2.2885e-10
2.38759e-10
2.48683e-10
2.58587e-10
2.68436e-10
2.78191e-10
2.87815e-10
2.97268e-10
3.06512e-10
3.15507e-10
3.24215e-10
3.32598e-10
3.40619e-10
3.48243e-10
3.55437e-10
3.62169e-10
3.68408e-10
3.7413e-10
3.79309e-10
3.83925e-10
3.8796e-10
3.91399e-10
3.94231e-10
3.96449e-10
3.98049e-10
3.99029e-10
3.99392e-10
3.99145e-10
3.98297e-10
3.9686e-10
3.94849e-10
3.92282e-10
3.89179e-10
3.85562e-10
3.81455e-10
3.76885e-10
3.71878e-10
3.66462e-10
3.60666e-10
3.54521e-10
3.48054e-10
3.41296e-10
3.34277e-10
3.27024e-10
3.19567e-10
3.11933e-10
3.04148e-10
2.96238e-10
2.88226e-10
2.80136e-10
2.7199e-10
2.63807e-10
2.55606e-10
2.47405e-10
2.39219e-10
2.31063e-10
2.22951e-10
2.14894e-10
2.06903e-10
1.98989e-10
1.9116e-10
1.83423e-10
1.75787e-10
1.68258e-10
1.60841e-10
1.53542e-10
1.46366e-10
1.39319e-10
1.32403e-10
1.25625e-10
1.18988e-10
1.12497e-10
1.06157e-10
9.99727e-11
9.39486e-11
8.80902e-11
8.24025e-11
7.68911e-11
7.15613e-11
6.64187e-11
6.14687e-11
5.67165e-11
5.21672e-11
4.78254e-11
4.36953e-11
3.97806e-11
3.60841e-11
3.26079e-11
2.93532e-11
2.63201e-11
2.35078e-11
2.09143e-11
1.85365e-11
1.63701e-11
1.44098e-11
1.2649e-11
1.10804e-11
9.69559e-12
8.48525e-12
7.43945e-12
6.54758e-12
5.79852e-12
5.18072e-12
4.68235e-12
4.29137e-12
3.99566e-12
3.78309e-12
3.64167e-12
3.55957e-12
3.5253e-12
3.52778e-12
3.55644e-12
3.60136e-12
3.65337e-12
3.70418e-12
3.74646e-12
3.774e-12
3.78172e-12
3.7658e-12
3.72364e-12
3.65392e-12
3.55652e-12
3.43243e-12
3.28365e-12
3.11304e-12
2.92415e-12
2.721e-12
2.5079e-12
2.28923e-12
2.06928e-12
1.85208e-12
1.64124e-12
1.43987e-12
1.25049e-12
1.07502e-12
9.1474e-13
7.70375e-13
6.42102e-13
5.29637e-13
4.32317e-13
3.49183e-13
2.79068e-13
2.20674e-13
1.72646e-13
1.33631e-13
1.02324e-13
7.75093e-14
5.80784e-14
4.30468e-14
3.15582e-14
2.28829e-14
1.64103e-14
1.16389e-14
8.16346e-15
5.66224e-15
3.88361e-15
2.63392e-15
1.76641e-15
1.17147e-15
7.68525e-16
4.99179e-16
3.21828e-16
2.07364e-16
1.3592e-16
9.44688e-17
7.51429e-17
1.42562e-13
1.43177e-13
1.46396e-13
1.52237e-13
1.60759e-13
1.72067e-13
1.86308e-13
2.03673e-13
2.24399e-13
2.48772e-13
2.77128e-13
3.09859e-13
3.47416e-13
3.90312e-13
4.39133e-13
4.94537e-13
5.57266e-13
6.28154e-13
7.08131e-13
7.98236e-13
8.99628e-13
1.01359e-12
1.14156e-12
1.28511e-12
1.44599e-12
1.62614e-12
1.82769e-12
2.05299e-12
2.30463e-12
2.58544e-12
2.89853e-12
3.24733e-12
3.63554e-12
4.06725e-12
4.5469e-12
5.0793e-12
5.66972e-12
6.32385e-12
7.04784e-12
7.84837e-12
8.73261e-12
9.70832e-12
1.07838e-11
1.1968e-11
1.32704e-11
1.47012e-11
1.62712e-11
1.79921e-11
1.98759e-11
2.19356e-11
2.41847e-11
2.66375e-11
2.93089e-11
3.22146e-11
3.53706e-11
3.87938e-11
4.25014e-11
4.65112e-11
5.08412e-11
5.551e-11
6.05362e-11
6.59383e-11
7.1735e-11
7.79448e-11
8.45856e-11
9.16749e-11
9.92296e-11
1.07265e-10
1.15797e-10
1.24837e-10
1.34398e-10
1.44489e-10
1.55117e-10
1.66288e-10
1.78004e-10
1.90265e-10
2.03066e-10
2.16401e-10
2.30258e-10
2.44623e-10
2.59477e-10
2.74797e-10
2.90555e-10
3.0672e-10
3.23256e-10
3.40121e-10
3.5727e-10
3.74654e-10
3.9222e-10
4.0991e-10
4.27662e-10
4.45413e-10
4.63094e-10
4.80637e-10
4.97968e-10
5.15016e-10
5.31705e-10
5.47961e-10
5.63711e-10
5.78881e-10
5.93399e-10
6.07197e-10
6.20209e-10
6.32371e-10
6.43627e-10
6.53922e-10
6.63209e-10
6.71445e-10
6.78593e-10
6.84625e-10
6.89516e-10
6.93251e-10
6.9582e-10
6.97222e-10
6.9746e-10
6.96547e-10
6.94499e-10
6.91342e-10
6.87106e-10
6.81825e-10
6.75541e-10
6.68298e-10
6.60144e-10
6.51133e-10
6.4132e-10
6.30761e-10
6.19515e-10
6.07642e-10
5.95203e-10
5.82259e-10
5.68867e-10
5.55089e-10
5.40981e-10
5.26599e-10
5.11997e-10
4.97226e-10
4.82334e-10
4.67369e-10
4.52372e-10
4.37384e-10
4.22443e-10
4.07581e-10
3.9283e-10
3.78218e-10
3.63771e-10
3.49509e-10
3.35454e-10
3.21622e-10
3.08028e-10
2.94685e-10
2.81604e-10
2.68793e-10
2.56261e-10
2.44014e-10
2.32056e-10
2.20392e-10
2.09025e-10
1.97958e-10
1.87193e-10
1.76731e-10
1.66575e-10
1.56727e-10
1.47187e-10
1.37958e-10
1.29041e-10
1.20438e-10
1.12152e-10
1.04184e-10
9.65369e-11
8.92129e-11
8.22139e-11
7.55418e-11
6.91982e-11
6.31842e-11
5.75003e-11
5.21464e-11
4.71214e-11
4.24235e-11
3.80495e-11
3.39954e-11
3.02558e-11
2.68241e-11
2.36926e-11
2.08521e-11
1.82925e-11
1.60025e-11
1.39696e-11
1.21807e-11
1.06215e-11
9.27751e-12
8.13331e-12
7.17329e-12
6.38154e-12
5.74201e-12
5.23866e-12
4.85553e-12
4.57689e-12
4.38734e-12
4.2719e-12
4.21611e-12
4.20617e-12
4.22905e-12
4.27258e-12
4.32559e-12
4.37806e-12
4.4212e-12
4.44754e-12
4.45108e-12
4.42727e-12
4.37308e-12
4.28696e-12
4.1688e-12
4.0198e-12
3.84234e-12
3.6398e-12
3.41633e-12
3.17665e-12
2.92579e-12
2.66887e-12
2.41088e-12
2.15647e-12
1.90982e-12
1.67452e-12
1.45346e-12
1.24883e-12
1.06208e-12
8.94014e-13
7.44793e-13
6.14056e-13
5.01e-13
4.04485e-13
3.23132e-13
2.55416e-13
1.9975e-13
1.54553e-13
1.18303e-13
8.95832e-14
6.71038e-14
4.97209e-14
3.64403e-14
2.64154e-14
1.89385e-14
1.34285e-14
9.41639e-15
6.52974e-15
4.47761e-15
3.03614e-15
2.03574e-15
1.34983e-15
8.8537e-16
5.74972e-16
3.7063e-16
2.38769e-16
1.56479e-16
1.08741e-16
8.64859e-17
2.6458e-13
2.6574e-13
2.71755e-13
2.82652e-13
2.98548e-13
3.19639e-13
3.462e-13
3.78592e-13
4.17261e-13
4.62743e-13
5.15673e-13
5.76786e-13
6.46931e-13
7.27075e-13
8.18317e-13
9.21901e-13
1.03922e-12
1.17186e-12
1.32155e-12
1.49028e-12
1.68021e-12
1.89378e-12
2.13369e-12
2.40292e-12
2.7048e-12
3.04296e-12
3.42145e-12
3.84472e-12
4.31766e-12
4.84564e-12
5.43456e-12
6.09089e-12
6.82169e-12
7.63468e-12
8.53827e-12
9.54163e-12
1.06547e-11
1.18883e-11
1.32542e-11
1.47649e-11
1.64341e-11
1.82765e-11
2.03078e-11
2.2545e-11
2.50062e-11
2.77106e-11
3.06788e-11
3.39325e-11
3.7495e-11
4.13904e-11
4.56445e-11
5.02842e-11
5.53376e-11
6.0834e-11
6.68038e-11
7.32783e-11
8.029e-11
8.7872e-11
9.60578e-11
1.04882e-10
1.14378e-10
1.24581e-10
1.35525e-10
1.47244e-10
1.59769e-10
1.73132e-10
1.87362e-10
2.02488e-10
2.18534e-10
2.35522e-10
2.5347e-10
2.72393e-10
2.92302e-10
3.132e-10
3.35088e-10
3.5796e-10
3.81802e-10
4.06594e-10
4.32311e-10
4.58917e-10
4.86368e-10
5.14616e-10
5.43599e-10
5.73251e-10
6.03495e-10
6.34246e-10
6.6541e-10
6.96888e-10
7.2857e-10
7.60342e-10
7.9208e-10
8.23659e-10
8.54945e-10
8.85803e-10
9.16094e-10
9.45678e-10
9.74414e-10
1.00216e-09
1.02879e-09
1.05415e-09
1.07812e-09
1.10059e-09
1.12142e-09
1.14052e-09
1.15778e-09
1.17313e-09
1.18647e-09
1.19776e-09
1.20693e-09
1.21395e-09
1.2188e-09
1.22147e-09
1.22195e-09
1.22027e-09
1.21646e-09
1.21056e-09
1.20262e-09
1.19271e-09
1.18091e-09
1.16731e-09
1.15199e-09
1.13506e-09
1.11662e-09
1.0968e-09
1.0757e-09
1.05345e-09
1.03015e-09
1.00594e-09
9.80935e-10
9.55247e-10
9.28994e-10
9.02285e-10
8.7523e-10
8.47929e-10
8.2048e-10
7.92974e-10
7.65497e-10
7.38127e-10
7.10937e-10
6.83994e-10
6.57358e-10
6.31081e-10
6.05213e-10
5.79794e-10
5.54861e-10
5.30444e-10
5.06569e-10
4.83258e-10
4.60527e-10
4.38389e-10
4.16855e-10
3.9593e-10
3.75618e-10
3.5592e-10
3.36837e-10
3.18365e-10
3.00502e-10
2.83242e-10
2.6658e-10
2.50511e-10
2.35029e-10
2.20126e-10
2.05797e-10
1.92036e-10
1.78836e-10
1.66192e-10
1.54098e-10
1.42549e-10
1.3154e-10
1.21066e-10
1.11122e-10
1.01703e-10
9.28025e-11
8.44157e-11
7.65358e-11
6.91558e-11
6.22674e-11
5.58618e-11
4.99288e-11
4.4457e-11
3.94339e-11
3.48455e-11
3.06767e-11
2.69111e-11
2.35311e-11
2.05181e-11
1.78524e-11
1.55137e-11
1.3481e-11
1.17326e-11
1.02468e-11
9.00141e-12
7.97453e-12
7.14425e-12
6.48898e-12
5.98754e-12
5.61929e-12
5.3642e-12
5.20301e-12
5.11732e-12
5.08968e-12
5.10376e-12
5.14442e-12
5.19785e-12
5.25175e-12
5.29535e-12
5.31962e-12
5.31728e-12
5.28286e-12
5.21275e-12
5.10511e-12
4.95984e-12
4.77841e-12
4.56368e-12
4.3197e-12
4.05141e-12
3.76444e-12
3.46473e-12
3.15836e-12
2.85119e-12
2.54872e-12
2.25585e-12
1.97676e-12
1.71484e-12
1.47261e-12
1.25175e-12
1.05314e-12
8.76933e-13
7.22663e-13
5.89346e-13
4.75606e-13
3.79791e-13
3.00082e-13
2.34592e-13
1.81444e-13
1.38838e-13
1.05097e-13
7.86991e-14
5.82943e-14
4.2711e-14
3.09522e-14
2.21851e-14
1.57265e-14
1.1025e-14
7.64345e-15
5.24013e-15
3.55242e-15
2.38142e-15
1.57874e-15
1.03532e-15
6.72236e-16
4.33253e-16
2.79066e-16
1.82857e-16
1.27052e-16
1.01039e-16
4.84166e-13
4.86331e-13
4.97413e-13
5.1747e-13
5.46717e-13
5.85516e-13
6.34383e-13
6.93984e-13
7.65148e-13
8.48871e-13
9.46327e-13
1.05888e-12
1.18812e-12
1.33582e-12
1.50404e-12
1.69509e-12
1.91156e-12
2.15637e-12
2.4328e-12
2.74448e-12
3.0955e-12
3.49037e-12
3.93413e-12
4.43235e-12
4.99122e-12
5.61754e-12
6.31887e-12
7.1035e-12
7.98059e-12
8.96018e-12
1.00533e-11
1.12721e-11
1.26297e-11
1.41406e-11
1.58206e-11
1.76868e-11
1.97579e-11
2.20542e-11
2.45975e-11
2.74115e-11
3.05219e-11
3.39561e-11
3.77437e-11
4.19164e-11
4.6508e-11
5.15548e-11
5.70952e-11
6.31699e-11
6.98223e-11
7.70977e-11
8.50442e-11
9.37119e-11
1.03153e-10
1.13423e-10
1.24577e-10
1.36674e-10
1.49775e-10
1.63939e-10
1.7923e-10
1.95709e-10
2.13441e-10
2.32487e-10
2.52909e-10
2.74768e-10
2.98122e-10
3.23026e-10
3.49532e-10
3.77688e-10
4.07535e-10
4.3911e-10
4.72441e-10
5.0755e-10
5.44449e-10
5.83139e-10
6.23611e-10
6.65845e-10
7.09808e-10
7.55451e-10
8.02715e-10
8.51522e-10
9.01782e-10
9.53386e-10
1.00621e-09
1.06012e-09
1.11495e-09
1.17054e-09
1.2267e-09
1.28322e-09
1.3399e-09
1.3965e-09
1.4528e-09
1.50854e-09
1.56346e-09
1.61732e-09
1.66985e-09
1.72078e-09
1.76985e-09
1.81681e-09
1.8614e-09
1.90338e-09
1.94253e-09
1.97862e-09
2.01145e-09
2.04085e-09
2.06665e-09
2.08872e-09
2.10693e-09
2.12121e-09
2.13148e-09
2.13771e-09
2.1399e-09
2.13804e-09
2.1322e-09
2.12243e-09
2.10883e-09
2.09151e-09
2.07062e-09
2.0463e-09
2.01873e-09
1.9881e-09
1.95462e-09
1.9185e-09
1.87995e-09
1.83922e-09
1.79653e-09
1.75212e-09
1.70621e-09
1.65904e-09
1.61084e-09
1.56182e-09
1.5122e-09
1.46217e-09
1.41193e-09
1.36167e-09
1.31154e-09
1.26171e-09
1.21231e-09
1.16348e-09
1.11533e-09
1.06798e-09
1.0215e-09
9.75989e-10
9.31503e-10
8.88101e-10
8.45831e-10
8.0473e-10
7.64825e-10
7.26136e-10
6.88675e-10
6.52448e-10
6.17455e-10
5.8369e-10
5.51143e-10
5.19802e-10
4.8965e-10
4.60667e-10
4.32833e-10
4.06126e-10
3.80523e-10
3.55999e-10
3.32531e-10
3.10095e-10
2.88668e-10
2.68226e-10
2.48747e-10
2.3021e-10
2.12593e-10
1.95876e-10
1.80039e-10
1.65064e-10
1.50931e-10
1.37622e-10
1.25118e-10
1.13402e-10
1.02453e-10
9.22528e-11
8.27812e-11
7.40171e-11
6.59385e-11
5.85226e-11
5.1745e-11
4.55806e-11
4.00027e-11
3.49839e-11
3.04956e-11
2.65084e-11
2.29921e-11
1.9916e-11
1.72492e-11
1.49604e-11
1.30186e-11
1.13929e-11
1.00529e-11
8.96858e-12
8.11096e-12
7.45175e-12
6.96369e-12
6.62061e-12
6.39755e-12
6.27086e-12
6.21834e-12
6.21929e-12
6.2547e-12
6.30735e-12
6.36195e-12
6.40523e-12
6.42607e-12
6.41557e-12
6.3671e-12
6.27627e-12
6.1409e-12
5.96089e-12
5.73803e-12
5.47581e-12
5.17911e-12
4.8539e-12
4.50691e-12
4.14529e-12
3.77628e-12
3.40687e-12
3.0436e-12
2.69229e-12
2.35788e-12
2.04434e-12
1.75464e-12
1.49073e-12
1.25358e-12
1.04335e-12
8.59412e-13
7.00561e-13
5.65118e-13
4.51086e-13
3.56275e-13
2.78417e-13
2.15262e-13
1.64659e-13
1.24601e-13
9.32747e-14
6.90698e-14
5.05912e-14
3.66527e-14
2.6264e-14
1.86132e-14
1.30456e-14
9.04218e-15
6.1977e-15
4.20071e-15
2.81545e-15
1.86613e-15
1.22357e-15
7.94331e-16
5.1186e-16
3.29645e-16
2.15965e-16
1.50034e-16
1.19303e-16
8.73511e-13
8.77496e-13
8.9764e-13
9.3405e-13
9.87122e-13
1.05752e-12
1.14619e-12
1.25436e-12
1.38353e-12
1.53553e-12
1.71252e-12
1.91699e-12
2.15183e-12
2.42034e-12
2.72626e-12
3.07382e-12
3.4678e-12
3.91355e-12
4.41707e-12
4.98506e-12
5.62502e-12
6.34526e-12
7.15503e-12
8.0646e-12
9.08535e-12
1.02298e-11
1.1512e-11
1.29471e-11
1.4552e-11
1.63453e-11
1.83474e-11
2.05806e-11
2.30693e-11
2.58402e-11
2.89226e-11
3.23481e-11
3.61514e-11
4.03697e-11
4.50438e-11
5.02175e-11
5.59381e-11
6.22566e-11
6.92278e-11
7.69104e-11
8.53671e-11
9.46648e-11
1.04875e-10
1.16073e-10
1.28338e-10
1.41755e-10
1.56413e-10
1.72403e-10
1.89824e-10
2.08775e-10
2.2936e-10
2.51687e-10
2.75865e-10
3.02007e-10
3.30226e-10
3.60636e-10
3.93352e-10
4.28486e-10
4.6615e-10
5.06453e-10
5.49496e-10
5.95379e-10
6.44191e-10
6.96013e-10
7.50917e-10
8.08959e-10
8.70186e-10
9.34625e-10
1.00229e-09
1.07316e-09
1.14722e-09
1.22442e-09
1.30466e-09
1.38786e-09
1.47387e-09
1.56254e-09
1.65369e-09
1.74708e-09
1.84248e-09
1.9396e-09
2.03814e-09
2.13775e-09
2.23808e-09
2.33873e-09
2.43929e-09
2.53933e-09
2.63838e-09
2.73599e-09
2.83167e-09
2.92494e-09
3.0153e-09
3.10228e-09
3.18539e-09
3.26417e-09
3.33816e-09
3.40693e-09
3.47008e-09
3.52725e-09
3.57808e-09
3.62228e-09
3.6596e-09
3.68983e-09
3.71279e-09
3.72839e-09
3.73655e-09
3.73726e-09
3.73057e-09
3.71656e-09
3.69537e-09
3.66719e-09
3.63224e-09
3.59081e-09
3.54319e-09
3.48973e-09
3.4308e-09
3.36679e-09
3.29813e-09
3.22523e-09
3.14854e-09
3.06851e-09
2.98559e-09
2.90022e-09
2.81284e-09
2.72388e-09
2.63375e-09
2.54285e-09
2.45155e-09
2.36022e-09
2.26918e-09
2.17875e-09
2.0892e-09
2.0008e-09
1.91378e-09
1.82834e-09
1.74466e-09
1.66289e-09
1.58318e-09
1.50563e-09
1.43032e-09
1.35733e-09
1.28671e-09
1.21848e-09
1.15267e-09
1.08927e-09
1.02829e-09
9.69695e-10
9.13463e-10
8.59557e-10
8.07932e-10
7.58541e-10
7.1133e-10
6.66244e-10
6.23223e-10
5.8221e-10
5.43142e-10
5.05961e-10
4.70606e-10
4.37018e-10
4.0514e-10
3.74917e-10
3.46294e-10
3.19219e-10
2.93642e-10
2.69515e-10
2.4679e-10
2.25424e-10
2.05372e-10
1.86593e-10
1.69045e-10
1.52687e-10
1.37479e-10
1.23381e-10
1.10353e-10
9.83545e-11
8.73447e-11
7.7282e-11
6.81242e-11
5.98286e-11
5.23513e-11
4.56483e-11
3.96747e-11
3.43853e-11
2.97348e-11
2.56778e-11
2.21692e-11
1.91643e-11
1.66193e-11
1.4491e-11
1.27374e-11
1.13179e-11
1.01931e-11
9.32541e-12
8.67862e-12
8.21846e-12
7.91246e-12
7.73012e-12
7.64297e-12
7.62472e-12
7.65133e-12
7.70116e-12
7.7551e-12
7.79665e-12
7.81208e-12
7.7904e-12
7.7235e-12
7.60602e-12
7.43532e-12
7.21129e-12
6.93615e-12
6.61416e-12
6.25124e-12
5.85463e-12
5.43246e-12
4.99335e-12
4.54601e-12
4.09884e-12
3.65967e-12
3.23543e-12
2.83202e-12
2.45415e-12
2.10532e-12
1.78778e-12
1.50268e-12
1.2501e-12
1.02926e-12
8.38664e-13
6.76247e-13
5.3958e-13
4.26008e-13
3.3279e-13
2.57213e-13
1.96682e-13
1.48786e-13
1.11345e-13
8.24267e-14
6.03578e-14
4.37167e-14
3.13178e-14
2.21893e-14
1.55485e-14
1.07746e-14
7.38358e-15
5.00348e-15
3.35286e-15
2.22193e-15
1.45662e-15
9.45471e-16
6.09159e-16
3.92248e-16
2.56941e-16
1.78476e-16
1.41906e-16
1.55377e-12
1.56101e-12
1.59713e-12
1.66232e-12
1.75731e-12
1.8833e-12
2.042e-12
2.23561e-12
2.46686e-12
2.73906e-12
3.0561e-12
3.42248e-12
3.84343e-12
4.3249e-12
4.87367e-12
5.4974e-12
6.20472e-12
7.00534e-12
7.91013e-12
8.93125e-12
1.00823e-11
1.13783e-11
1.28361e-11
1.44744e-11
1.63138e-11
1.83772e-11
2.06899e-11
2.32797e-11
2.61774e-11
2.94169e-11
3.30351e-11
3.7073e-11
4.1575e-11
4.659e-11
5.21712e-11
5.83765e-11
6.52691e-11
7.29175e-11
8.13958e-11
9.07844e-11
1.0117e-10
1.12645e-10
1.25311e-10
1.39275e-10
1.54651e-10
1.71562e-10
1.90138e-10
2.10519e-10
2.32848e-10
2.57282e-10
2.83981e-10
3.13114e-10
3.4486e-10
3.794e-10
4.16924e-10
4.57628e-10
5.01711e-10
5.49376e-10
6.0083e-10
6.56277e-10
7.15925e-10
7.79976e-10
8.48629e-10
9.22076e-10
1.0005e-09
1.08407e-09
1.17294e-09
1.26726e-09
1.36713e-09
1.47266e-09
1.58391e-09
1.70091e-09
1.82367e-09
1.95215e-09
2.08627e-09
2.22592e-09
2.37092e-09
2.52105e-09
2.67606e-09
2.83561e-09
2.99933e-09
3.16679e-09
3.3375e-09
3.51092e-09
3.68644e-09
3.86341e-09
4.04115e-09
4.21889e-09
4.39587e-09
4.57125e-09
4.74418e-09
4.9138e-09
5.0792e-09
5.23949e-09
5.39379e-09
5.54119e-09
5.68083e-09
5.81189e-09
5.93355e-09
6.04506e-09
6.14573e-09
6.23493e-09
6.3121e-09
6.37675e-09
6.42849e-09
6.46702e-09
6.49211e-09
6.50365e-09
6.50163e-09
6.4861e-09
6.45726e-09
6.41535e-09
6.36075e-09
6.29387e-09
6.21524e-09
6.12545e-09
6.02514e-09
5.91503e-09
5.79586e-09
5.66842e-09
5.53353e-09
5.39203e-09
5.24476e-09
5.09257e-09
4.9363e-09
4.77677e-09
4.61479e-09
4.45114e-09
4.28654e-09
4.1217e-09
3.95728e-09
3.79389e-09
3.63209e-09
3.4724e-09
3.31527e-09
3.16113e-09
3.01033e-09
2.86317e-09
2.71994e-09
2.58084e-09
2.44605e-09
2.3157e-09
2.1899e-09
2.0687e-09
1.95214e-09
1.84021e-09
1.7329e-09
1.63016e-09
1.53193e-09