/*--------------------------------*- C++ -*----------------------------------*\
| =========                 |                                                 |
| \\      /  F ield         | OpenFOAM: The Open Source CFD Toolbox           |
|  \\    /   O peration     | Version:  v2012                                 |
|   \\  /    A nd           | Website:  www.openfoam.com                      |
|    \\/     M anipulation  |                                                 |
\*---------------------------------------------------------------------------*/
FoamFile
{
    version     2.0;
    format      ascii;
    class       volVectorField;
    location    "19";
    object      Psi;
}
// * * * * * * * * * * * * * * * * * * * * * * * * * * * * * * * * * * * * * //

dimensions      [0 2 -1 0 0 0 0];


internalField   nonuniform List<vector> 
65536
(
(0 0 7.9852e-06)
(0 0 2.3956e-05)
(0 0 3.99278e-05)
(0 0 5.59016e-05)
(0 0 7.18779e-05)
(0 0 8.78575e-05)
(0 0 0.000103841)
(0 0 0.00011983)
(0 0 0.000135824)
(0 0 0.000151824)
(0 0 0.000167831)
(0 0 0.000183845)
(0 0 0.000199868)
(0 0 0.000215899)
(0 0 0.00023194)
(0 0 0.000247991)
(0 0 0.000264052)
(0 0 0.000280125)
(0 0 0.000296209)
(0 0 0.000312305)
(0 0 0.000328414)
(0 0 0.000344536)
(0 0 0.000360671)
(0 0 0.00037682)
(0 0 0.000392983)
(0 0 0.00040916)
(0 0 0.000425352)
(0 0 0.000441558)
(0 0 0.000457779)
(0 0 0.000474016)
(0 0 0.000490267)
(0 0 0.000506533)
(0 0 0.000522814)
(0 0 0.00053911)
(0 0 0.00055542)
(0 0 0.000571744)
(0 0 0.000588083)
(0 0 0.000604434)
(0 0 0.000620799)
(0 0 0.000637177)
(0 0 0.000653566)
(0 0 0.000669966)
(0 0 0.000686377)
(0 0 0.000702797)
(0 0 0.000719225)
(0 0 0.000735661)
(0 0 0.000752104)
(0 0 0.000768551)
(0 0 0.000785001)
(0 0 0.000801454)
(0 0 0.000817907)
(0 0 0.000834359)
(0 0 0.000850808)
(0 0 0.000867252)
(0 0 0.000883689)
(0 0 0.000900117)
(0 0 0.000916534)
(0 0 0.000932936)
(0 0 0.000949322)
(0 0 0.000965688)
(0 0 0.000982032)
(0 0 0.000998351)
(0 0 0.00101464)
(0 0 0.0010309)
(0 0 0.00104712)
(0 0 0.00106331)
(0 0 0.00107945)
(0 0 0.00109555)
(0 0 0.00111159)
(0 0 0.00112759)
(0 0 0.00114352)
(0 0 0.00115939)
(0 0 0.00117518)
(0 0 0.00119091)
(0 0 0.00120656)
(0 0 0.00122212)
(0 0 0.0012376)
(0 0 0.00125298)
(0 0 0.00126826)
(0 0 0.00128343)
(0 0 0.00129849)
(0 0 0.00131343)
(0 0 0.00132825)
(0 0 0.00134294)
(0 0 0.00135748)
(0 0 0.00137189)
(0 0 0.00138614)
(0 0 0.00140023)
(0 0 0.00141416)
(0 0 0.00142791)
(0 0 0.00144149)
(0 0 0.00145487)
(0 0 0.00146806)
(0 0 0.00148104)
(0 0 0.00149382)
(0 0 0.00150637)
(0 0 0.0015187)
(0 0 0.0015308)
(0 0 0.00154265)
(0 0 0.00155425)
(0 0 0.00156559)
(0 0 0.00157667)
(0 0 0.00158747)
(0 0 0.00159798)
(0 0 0.00160821)
(0 0 0.00161814)
(0 0 0.00162777)
(0 0 0.00163708)
(0 0 0.00164607)
(0 0 0.00165473)
(0 0 0.00166306)
(0 0 0.00167104)
(0 0 0.00167868)
(0 0 0.00168596)
(0 0 0.00169288)
(0 0 0.00169943)
(0 0 0.0017056)
(0 0 0.00171139)
(0 0 0.0017168)
(0 0 0.00172182)
(0 0 0.00172644)
(0 0 0.00173066)
(0 0 0.00173447)
(0 0 0.00173788)
(0 0 0.00174087)
(0 0 0.00174345)
(0 0 0.00174561)
(0 0 0.00174734)
(0 0 0.00174866)
(0 0 0.00174955)
(0 0 0.00175001)
(0 0 0.00175005)
(0 0 0.00174965)
(0 0 0.00174883)
(0 0 0.00174759)
(0 0 0.00174591)
(0 0 0.00174381)
(0 0 0.00174128)
(0 0 0.00173833)
(0 0 0.00173496)
(0 0 0.00173117)
(0 0 0.00172697)
(0 0 0.00172236)
(0 0 0.00171733)
(0 0 0.0017119)
(0 0 0.00170608)
(0 0 0.00169985)
(0 0 0.00169324)
(0 0 0.00168624)
(0 0 0.00167886)
(0 0 0.00167111)
(0 0 0.00166299)
(0 0 0.00165451)
(0 0 0.00164568)
(0 0 0.0016365)
(0 0 0.00162697)
(0 0 0.00161711)
(0 0 0.00160693)
(0 0 0.00159642)
(0 0 0.00158561)
(0 0 0.00157449)
(0 0 0.00156307)
(0 0 0.00155137)
(0 0 0.00153938)
(0 0 0.00152712)
(0 0 0.0015146)
(0 0 0.00150182)
(0 0 0.00148879)
(0 0 0.00147552)
(0 0 0.00146201)
(0 0 0.00144829)
(0 0 0.00143434)
(0 0 0.00142019)
(0 0 0.00140583)
(0 0 0.00139128)
(0 0 0.00137654)
(0 0 0.00136163)
(0 0 0.00134654)
(0 0 0.00133129)
(0 0 0.00131588)
(0 0 0.00130032)
(0 0 0.00128462)
(0 0 0.00126878)
(0 0 0.00125282)
(0 0 0.00123673)
(0 0 0.00122052)
(0 0 0.0012042)
(0 0 0.00118778)
(0 0 0.00117126)
(0 0 0.00115464)
(0 0 0.00113794)
(0 0 0.00112116)
(0 0 0.00110429)
(0 0 0.00108736)
(0 0 0.00107036)
(0 0 0.0010533)
(0 0 0.00103618)
(0 0 0.001019)
(0 0 0.00100178)
(0 0 0.000984514)
(0 0 0.000967204)
(0 0 0.000949857)
(0 0 0.000932475)
(0 0 0.000915063)
(0 0 0.000897624)
(0 0 0.00088016)
(0 0 0.000862675)
(0 0 0.000845171)
(0 0 0.000827651)
(0 0 0.000810118)
(0 0 0.000792573)
(0 0 0.00077502)
(0 0 0.00075746)
(0 0 0.000739895)
(0 0 0.000722327)
(0 0 0.000704758)
(0 0 0.000687189)
(0 0 0.000669621)
(0 0 0.000652057)
(0 0 0.000634498)
(0 0 0.000616943)
(0 0 0.000599396)
(0 0 0.000581855)
(0 0 0.000564323)
(0 0 0.0005468)
(0 0 0.000529287)
(0 0 0.000511783)
(0 0 0.000494291)
(0 0 0.000476809)
(0 0 0.000459339)
(0 0 0.00044188)
(0 0 0.000424433)
(0 0 0.000406998)
(0 0 0.000389575)
(0 0 0.000372163)
(0 0 0.000354763)
(0 0 0.000337375)
(0 0 0.000319997)
(0 0 0.000302631)
(0 0 0.000285276)
(0 0 0.00026793)
(0 0 0.000250595)
(0 0 0.000233269)
(0 0 0.000215952)
(0 0 0.000198644)
(0 0 0.000181343)
(0 0 0.00016405)
(0 0 0.000146763)
(0 0 0.000129482)
(0 0 0.000112207)
(0 0 9.49362e-05)
(0 0 7.76696e-05)
(0 0 6.04063e-05)
(0 0 4.31455e-05)
(0 0 2.58865e-05)
(0 0 8.62873e-06)
(0 0 2.39553e-05)
(0 0 7.1867e-05)
(0 0 0.000119782)
(0 0 0.000167702)
(0 0 0.000215631)
(0 0 0.000263569)
(0 0 0.000311519)
(0 0 0.000359484)
(0 0 0.000407465)
(0 0 0.000455465)
(0 0 0.000503485)
(0 0 0.000551528)
(0 0 0.000599595)
(0 0 0.000647689)
(0 0 0.000695811)
(0 0 0.000743963)
(0 0 0.000792146)
(0 0 0.000840363)
(0 0 0.000888615)
(0 0 0.000936904)
(0 0 0.00098523)
(0 0 0.00103359)
(0 0 0.001082)
(0 0 0.00113045)
(0 0 0.00117893)
(0 0 0.00122747)
(0 0 0.00127604)
(0 0 0.00132466)
(0 0 0.00137332)
(0 0 0.00142203)
(0 0 0.00147079)
(0 0 0.00151959)
(0 0 0.00156843)
(0 0 0.00161732)
(0 0 0.00166625)
(0 0 0.00171522)
(0 0 0.00176424)
(0 0 0.00181329)
(0 0 0.00186239)
(0 0 0.00191152)
(0 0 0.00196069)
(0 0 0.00200989)
(0 0 0.00205912)
(0 0 0.00210838)
(0 0 0.00215767)
(0 0 0.00220698)
(0 0 0.00225631)
(0 0 0.00230565)
(0 0 0.002355)
(0 0 0.00240436)
(0 0 0.00245373)
(0 0 0.00250308)
(0 0 0.00255243)
(0 0 0.00260177)
(0 0 0.00265108)
(0 0 0.00270037)
(0 0 0.00274962)
(0 0 0.00279883)
(0 0 0.00284799)
(0 0 0.00289709)
(0 0 0.00294612)
(0 0 0.00299508)
(0 0 0.00304396)
(0 0 0.00309274)
(0 0 0.00314142)
(0 0 0.00318998)
(0 0 0.00323841)
(0 0 0.0032867)
(0 0 0.00333484)
(0 0 0.00338282)
(0 0 0.00343062)
(0 0 0.00347823)
(0 0 0.00352563)
(0 0 0.00357281)
(0 0 0.00361976)
(0 0 0.00366646)
(0 0 0.00371289)
(0 0 0.00375903)
(0 0 0.00380488)
(0 0 0.0038504)
(0 0 0.00389559)
(0 0 0.00394043)
(0 0 0.00398489)
(0 0 0.00402895)
(0 0 0.0040726)
(0 0 0.00411582)
(0 0 0.00415858)
(0 0 0.00420087)
(0 0 0.00424265)
(0 0 0.00428392)
(0 0 0.00432465)
(0 0 0.00436481)
(0 0 0.00440438)
(0 0 0.00444335)
(0 0 0.00448168)
(0 0 0.00451935)
(0 0 0.00455635)
(0 0 0.00459264)
(0 0 0.0046282)
(0 0 0.00466301)
(0 0 0.00469704)
(0 0 0.00473027)
(0 0 0.00476268)
(0 0 0.00479425)
(0 0 0.00482494)
(0 0 0.00485474)
(0 0 0.00488362)
(0 0 0.00491156)
(0 0 0.00493854)
(0 0 0.00496454)
(0 0 0.00498952)
(0 0 0.00501349)
(0 0 0.0050364)
(0 0 0.00505824)
(0 0 0.005079)
(0 0 0.00509865)
(0 0 0.00511718)
(0 0 0.00513457)
(0 0 0.00515079)
(0 0 0.00516585)
(0 0 0.00517971)
(0 0 0.00519238)
(0 0 0.00520382)
(0 0 0.00521404)
(0 0 0.00522303)
(0 0 0.00523076)
(0 0 0.00523724)
(0 0 0.00524246)
(0 0 0.0052464)
(0 0 0.00524907)
(0 0 0.00525046)
(0 0 0.00525057)
(0 0 0.00524939)
(0 0 0.00524693)
(0 0 0.00524318)
(0 0 0.00523816)
(0 0 0.00523185)
(0 0 0.00522427)
(0 0 0.00521542)
(0 0 0.00520531)
(0 0 0.00519394)
(0 0 0.00518133)
(0 0 0.00516748)
(0 0 0.0051524)
(0 0 0.00513611)
(0 0 0.00511863)
(0 0 0.00509995)
(0 0 0.00508011)
(0 0 0.00505911)
(0 0 0.00503697)
(0 0 0.00501371)
(0 0 0.00498934)
(0 0 0.0049639)
(0 0 0.00493738)
(0 0 0.00490983)
(0 0 0.00488125)
(0 0 0.00485167)
(0 0 0.0048211)
(0 0 0.00478958)
(0 0 0.00475713)
(0 0 0.00472376)
(0 0 0.0046895)
(0 0 0.00465438)
(0 0 0.00461841)
(0 0 0.00458163)
(0 0 0.00454405)
(0 0 0.0045057)
(0 0 0.00446661)
(0 0 0.00442679)
(0 0 0.00438627)
(0 0 0.00434508)
(0 0 0.00430323)
(0 0 0.00426076)
(0 0 0.00421768)
(0 0 0.00417402)
(0 0 0.00412981)
(0 0 0.00408505)
(0 0 0.00403978)
(0 0 0.00399402)
(0 0 0.00394779)
(0 0 0.00390111)
(0 0 0.003854)
(0 0 0.00380648)
(0 0 0.00375857)
(0 0 0.00371029)
(0 0 0.00366166)
(0 0 0.00361271)
(0 0 0.00356343)
(0 0 0.00351386)
(0 0 0.00346401)
(0 0 0.0034139)
(0 0 0.00336354)
(0 0 0.00331296)
(0 0 0.00326215)
(0 0 0.00321115)
(0 0 0.00315995)
(0 0 0.00310859)
(0 0 0.00305706)
(0 0 0.00300539)
(0 0 0.00295358)
(0 0 0.00290165)
(0 0 0.0028496)
(0 0 0.00279746)
(0 0 0.00274522)
(0 0 0.00269289)
(0 0 0.0026405)
(0 0 0.00258804)
(0 0 0.00253553)
(0 0 0.00248297)
(0 0 0.00243036)
(0 0 0.00237773)
(0 0 0.00232507)
(0 0 0.00227238)
(0 0 0.00221969)
(0 0 0.00216698)
(0 0 0.00211427)
(0 0 0.00206156)
(0 0 0.00200886)
(0 0 0.00195617)
(0 0 0.00190349)
(0 0 0.00185082)
(0 0 0.00179818)
(0 0 0.00174556)
(0 0 0.00169296)
(0 0 0.00164039)
(0 0 0.00158785)
(0 0 0.00153534)
(0 0 0.00148286)
(0 0 0.00143042)
(0 0 0.00137801)
(0 0 0.00132563)
(0 0 0.00127329)
(0 0 0.00122098)
(0 0 0.00116871)
(0 0 0.00111648)
(0 0 0.00106428)
(0 0 0.00101211)
(0 0 0.000959981)
(0 0 0.000907883)
(0 0 0.000855817)
(0 0 0.000803781)
(0 0 0.000751776)
(0 0 0.000699798)
(0 0 0.000647848)
(0 0 0.000595923)
(0 0 0.000544022)
(0 0 0.000492142)
(0 0 0.000440283)
(0 0 0.000388441)
(0 0 0.000336616)
(0 0 0.000284805)
(0 0 0.000233005)
(0 0 0.000181216)
(0 0 0.000129435)
(0 0 7.76586e-05)
(0 0 2.58858e-05)
(0 0 3.99243e-05)
(0 0 0.000119775)
(0 0 0.00019963)
(0 0 0.000279495)
(0 0 0.000359373)
(0 0 0.000439268)
(0 0 0.000519183)
(0 0 0.000599122)
(0 0 0.000679088)
(0 0 0.000759085)
(0 0 0.000839117)
(0 0 0.000919186)
(0 0 0.000999296)
(0 0 0.00107945)
(0 0 0.00115965)
(0 0 0.0012399)
(0 0 0.00132021)
(0 0 0.00140057)
(0 0 0.00148099)
(0 0 0.00156147)
(0 0 0.00164201)
(0 0 0.00172261)
(0 0 0.00180329)
(0 0 0.00188403)
(0 0 0.00196484)
(0 0 0.00204573)
(0 0 0.00212669)
(0 0 0.00220772)
(0 0 0.00228883)
(0 0 0.00237001)
(0 0 0.00245126)
(0 0 0.00253259)
(0 0 0.002614)
(0 0 0.00269548)
(0 0 0.00277703)
(0 0 0.00285866)
(0 0 0.00294035)
(0 0 0.00302211)
(0 0 0.00310394)
(0 0 0.00318583)
(0 0 0.00326778)
(0 0 0.00334978)
(0 0 0.00343184)
(0 0 0.00351395)
(0 0 0.00359609)
(0 0 0.00367828)
(0 0 0.0037605)
(0 0 0.00384274)
(0 0 0.003925)
(0 0 0.00400727)
(0 0 0.00408955)
(0 0 0.00417182)
(0 0 0.00425407)
(0 0 0.0043363)
(0 0 0.0044185)
(0 0 0.00450065)
(0 0 0.00458274)
(0 0 0.00466477)
(0 0 0.00474671)
(0 0 0.00482856)
(0 0 0.00491029)
(0 0 0.0049919)
(0 0 0.00507337)
(0 0 0.00515469)
(0 0 0.00523582)
(0 0 0.00531677)
(0 0 0.0053975)
(0 0 0.005478)
(0 0 0.00555825)
(0 0 0.00563823)
(0 0 0.00571791)
(0 0 0.00579728)
(0 0 0.0058763)
(0 0 0.00595495)
(0 0 0.00603322)
(0 0 0.00611106)
(0 0 0.00618846)
(0 0 0.00626539)
(0 0 0.00634182)
(0 0 0.00641772)
(0 0 0.00649305)
(0 0 0.0065678)
(0 0 0.00664192)
(0 0 0.00671538)
(0 0 0.00678816)
(0 0 0.00686021)
(0 0 0.0069315)
(0 0 0.007002)
(0 0 0.00707167)
(0 0 0.00714047)
(0 0 0.00720837)
(0 0 0.00727534)
(0 0 0.00734132)
(0 0 0.00740629)
(0 0 0.0074702)
(0 0 0.00753301)
(0 0 0.0075947)
(0 0 0.0076552)
(0 0 0.0077145)
(0 0 0.00777254)
(0 0 0.00782929)
(0 0 0.00788471)
(0 0 0.00793875)
(0 0 0.00799138)
(0 0 0.00804256)
(0 0 0.00809225)
(0 0 0.00814041)
(0 0 0.00818701)
(0 0 0.008232)
(0 0 0.00827535)
(0 0 0.00831702)
(0 0 0.00835698)
(0 0 0.00839519)
(0 0 0.00843162)
(0 0 0.00846624)
(0 0 0.00849901)
(0 0 0.00852991)
(0 0 0.0085589)
(0 0 0.00858596)
(0 0 0.00861107)
(0 0 0.00863419)
(0 0 0.00865531)
(0 0 0.0086744)
(0 0 0.00869145)
(0 0 0.00870643)
(0 0 0.00871933)
(0 0 0.00873014)
(0 0 0.00873884)
(0 0 0.00874542)
(0 0 0.00874987)
(0 0 0.00875219)
(0 0 0.00875237)
(0 0 0.00875041)
(0 0 0.00874631)
(0 0 0.00874007)
(0 0 0.00873169)
(0 0 0.00872117)
(0 0 0.00870853)
(0 0 0.00869377)
(0 0 0.00867691)
(0 0 0.00865795)
(0 0 0.00863692)
(0 0 0.00861382)
(0 0 0.00858869)
(0 0 0.00856153)
(0 0 0.00853236)
(0 0 0.00850122)
(0 0 0.00846813)
(0 0 0.00843311)
(0 0 0.00839619)
(0 0 0.0083574)
(0 0 0.00831678)
(0 0 0.00827434)
(0 0 0.00823013)
(0 0 0.00818418)
(0 0 0.00813653)
(0 0 0.0080872)
(0 0 0.00803624)
(0 0 0.00798368)
(0 0 0.00792956)
(0 0 0.00787392)
(0 0 0.0078168)
(0 0 0.00775824)
(0 0 0.00769827)
(0 0 0.00763693)
(0 0 0.00757428)
(0 0 0.00751033)
(0 0 0.00744515)
(0 0 0.00737876)
(0 0 0.0073112)
(0 0 0.00724252)
(0 0 0.00717275)
(0 0 0.00710194)
(0 0 0.00703012)
(0 0 0.00695733)
(0 0 0.00688361)
(0 0 0.00680899)
(0 0 0.00673352)
(0 0 0.00665723)
(0 0 0.00658015)
(0 0 0.00650233)
(0 0 0.00642379)
(0 0 0.00634456)
(0 0 0.0062647)
(0 0 0.00618421)
(0 0 0.00610315)
(0 0 0.00602153)
(0 0 0.00593938)
(0 0 0.00585675)
(0 0 0.00577365)
(0 0 0.00569011)
(0 0 0.00560617)
(0 0 0.00552183)
(0 0 0.00543714)
(0 0 0.00535212)
(0 0 0.00526679)
(0 0 0.00518116)
(0 0 0.00509527)
(0 0 0.00500914)
(0 0 0.00492278)
(0 0 0.00483621)
(0 0 0.00474945)
(0 0 0.00466253)
(0 0 0.00457545)
(0 0 0.00448824)
(0 0 0.00440091)
(0 0 0.00431347)
(0 0 0.00422593)
(0 0 0.00413832)
(0 0 0.00405064)
(0 0 0.00396291)
(0 0 0.00387513)
(0 0 0.00378732)
(0 0 0.00369949)
(0 0 0.00361164)
(0 0 0.00352379)
(0 0 0.00343593)
(0 0 0.00334809)
(0 0 0.00326027)
(0 0 0.00317246)
(0 0 0.00308468)
(0 0 0.00299694)
(0 0 0.00290924)
(0 0 0.00282157)
(0 0 0.00273395)
(0 0 0.00264638)
(0 0 0.00255886)
(0 0 0.0024714)
(0 0 0.00238399)
(0 0 0.00229664)
(0 0 0.00220934)
(0 0 0.00212211)
(0 0 0.00203493)
(0 0 0.00194782)
(0 0 0.00186076)
(0 0 0.00177376)
(0 0 0.00168682)
(0 0 0.00159993)
(0 0 0.0015131)
(0 0 0.00142633)
(0 0 0.0013396)
(0 0 0.00125293)
(0 0 0.0011663)
(0 0 0.00107972)
(0 0 0.000993179)
(0 0 0.000906679)
(0 0 0.000820215)
(0 0 0.000733784)
(0 0 0.000647384)
(0 0 0.000561011)
(0 0 0.000474661)
(0 0 0.000388332)
(0 0 0.000302019)
(0 0 0.000215718)
(0 0 0.000129427)
(0 0 4.31418e-05)
(0 0 5.58914e-05)
(0 0 0.000167677)
(0 0 0.00027947)
(0 0 0.000391276)
(0 0 0.0005031)
(0 0 0.000614947)
(0 0 0.000726823)
(0 0 0.000838733)
(0 0 0.000950681)
(0 0 0.00106267)
(0 0 0.00117471)
(0 0 0.0012868)
(0 0 0.00139895)
(0 0 0.00151116)
(0 0 0.00162344)
(0 0 0.00173579)
(0 0 0.00184821)
(0 0 0.00196071)
(0 0 0.0020733)
(0 0 0.00218596)
(0 0 0.00229872)
(0 0 0.00241157)
(0 0 0.00252451)
(0 0 0.00263755)
(0 0 0.00275068)
(0 0 0.00286392)
(0 0 0.00297726)
(0 0 0.0030907)
(0 0 0.00320425)
(0 0 0.00331791)
(0 0 0.00343166)
(0 0 0.00354553)
(0 0 0.0036595)
(0 0 0.00377357)
(0 0 0.00388774)
(0 0 0.00400202)
(0 0 0.0041164)
(0 0 0.00423086)
(0 0 0.00434543)
(0 0 0.00446008)
(0 0 0.00457481)
(0 0 0.00468963)
(0 0 0.00480451)
(0 0 0.00491947)
(0 0 0.00503448)
(0 0 0.00514955)
(0 0 0.00526466)
(0 0 0.00537981)
(0 0 0.00549499)
(0 0 0.00561018)
(0 0 0.00572538)
(0 0 0.00584057)
(0 0 0.00595574)
(0 0 0.00607087)
(0 0 0.00618596)
(0 0 0.00630099)
(0 0 0.00641594)
(0 0 0.00653079)
(0 0 0.00664553)
(0 0 0.00676014)
(0 0 0.00687459)
(0 0 0.00698886)
(0 0 0.00710295)
(0 0 0.00721681)
(0 0 0.00733043)
(0 0 0.00744377)
(0 0 0.00755683)
(0 0 0.00766956)
(0 0 0.00778194)
(0 0 0.00789394)
(0 0 0.00800552)
(0 0 0.00811667)
(0 0 0.00822733)
(0 0 0.00833748)
(0 0 0.00844709)
(0 0 0.00855611)
(0 0 0.00866451)
(0 0 0.00877225)
(0 0 0.00887929)
(0 0 0.00898559)
(0 0 0.00909111)
(0 0 0.00919579)
(0 0 0.0092996)
(0 0 0.0094025)
(0 0 0.00950443)
(0 0 0.00960535)
(0 0 0.00970521)
(0 0 0.00980396)
(0 0 0.00990155)
(0 0 0.00999793)
(0 0 0.010093)
(0 0 0.0101868)
(0 0 0.0102793)
(0 0 0.0103703)
(0 0 0.0104598)
(0 0 0.0105478)
(0 0 0.0106342)
(0 0 0.010719)
(0 0 0.0108021)
(0 0 0.0108834)
(0 0 0.0109629)
(0 0 0.0110405)
(0 0 0.0111162)
(0 0 0.01119)
(0 0 0.0112617)
(0 0 0.0113313)
(0 0 0.0113988)
(0 0 0.0114641)
(0 0 0.0115271)
(0 0 0.0115878)
(0 0 0.0116462)
(0 0 0.0117022)
(0 0 0.0117558)
(0 0 0.0118068)
(0 0 0.0118553)
(0 0 0.0119012)
(0 0 0.0119445)
(0 0 0.0119852)
(0 0 0.0120231)
(0 0 0.0120583)
(0 0 0.0120907)
(0 0 0.0121203)
(0 0 0.012147)
(0 0 0.0121709)
(0 0 0.0121919)
(0 0 0.01221)
(0 0 0.0122251)
(0 0 0.0122373)
(0 0 0.0122466)
(0 0 0.0122528)
(0 0 0.0122561)
(0 0 0.0122563)
(0 0 0.0122536)
(0 0 0.0122478)
(0 0 0.0122391)
(0 0 0.0122273)
(0 0 0.0122126)
(0 0 0.0121949)
(0 0 0.0121742)
(0 0 0.0121506)
(0 0 0.012124)
(0 0 0.0120946)
(0 0 0.0120622)
(0 0 0.012027)
(0 0 0.0119889)
(0 0 0.0119481)
(0 0 0.0119044)
(0 0 0.0118581)
(0 0 0.011809)
(0 0 0.0117573)
(0 0 0.0117029)
(0 0 0.011646)
(0 0 0.0115866)
(0 0 0.0115246)
(0 0 0.0114603)
(0 0 0.0113935)
(0 0 0.0113244)
(0 0 0.011253)
(0 0 0.0111793)
(0 0 0.0111035)
(0 0 0.0110256)
(0 0 0.0109455)
(0 0 0.0108635)
(0 0 0.0107795)
(0 0 0.0106936)
(0 0 0.0106058)
(0 0 0.0105162)
(0 0 0.0104249)
(0 0 0.0103319)
(0 0 0.0102373)
(0 0 0.0101411)
(0 0 0.0100433)
(0 0 0.00994413)
(0 0 0.00984353)
(0 0 0.00974157)
(0 0 0.0096383)
(0 0 0.00953379)
(0 0 0.00942808)
(0 0 0.00932122)
(0 0 0.00921326)
(0 0 0.00910426)
(0 0 0.00899426)
(0 0 0.0088833)
(0 0 0.00877144)
(0 0 0.00865872)
(0 0 0.00854518)
(0 0 0.00843087)
(0 0 0.00831583)
(0 0 0.0082001)
(0 0 0.00808372)
(0 0 0.00796674)
(0 0 0.00784917)
(0 0 0.00773108)
(0 0 0.00761248)
(0 0 0.00749341)
(0 0 0.00737391)
(0 0 0.007254)
(0 0 0.00713373)
(0 0 0.00701311)
(0 0 0.00689218)
(0 0 0.00677096)
(0 0 0.00664948)
(0 0 0.00652776)
(0 0 0.00640583)
(0 0 0.00628371)
(0 0 0.00616142)
(0 0 0.00603899)
(0 0 0.00591642)
(0 0 0.00579375)
(0 0 0.00567098)
(0 0 0.00554814)
(0 0 0.00542524)
(0 0 0.00530229)
(0 0 0.00517931)
(0 0 0.00505631)
(0 0 0.0049333)
(0 0 0.0048103)
(0 0 0.00468731)
(0 0 0.00456434)
(0 0 0.00444141)
(0 0 0.00431852)
(0 0 0.00419567)
(0 0 0.00407287)
(0 0 0.00395014)
(0 0 0.00382747)
(0 0 0.00370487)
(0 0 0.00358234)
(0 0 0.00345988)
(0 0 0.00333751)
(0 0 0.00321521)
(0 0 0.003093)
(0 0 0.00297087)
(0 0 0.00284882)
(0 0 0.00272686)
(0 0 0.00260498)
(0 0 0.00248318)
(0 0 0.00236147)
(0 0 0.00223983)
(0 0 0.00211827)
(0 0 0.00199679)
(0 0 0.00187538)
(0 0 0.00175404)
(0 0 0.00163276)
(0 0 0.00151155)
(0 0 0.0013904)
(0 0 0.0012693)
(0 0 0.00114826)
(0 0 0.00102726)
(0 0 0.000906301)
(0 0 0.000785383)
(0 0 0.000664498)
(0 0 0.000543642)
(0 0 0.000422808)
(0 0 0.000301993)
(0 0 0.000181191)
(0 0 6.0396e-05)
(0 0 7.18559e-05)
(0 0 0.000215571)
(0 0 0.000359296)
(0 0 0.000503038)
(0 0 0.000646803)
(0 0 0.000790598)
(0 0 0.00093443)
(0 0 0.00107831)
(0 0 0.00122223)
(0 0 0.00136621)
(0 0 0.00151025)
(0 0 0.00165436)
(0 0 0.00179855)
(0 0 0.00194281)
(0 0 0.00208716)
(0 0 0.0022316)
(0 0 0.00237614)
(0 0 0.00252078)
(0 0 0.00266552)
(0 0 0.00281037)
(0 0 0.00295534)
(0 0 0.00310043)
(0 0 0.00324563)
(0 0 0.00339096)
(0 0 0.00353642)
(0 0 0.00368201)
(0 0 0.00382773)
(0 0 0.00397359)
(0 0 0.00411957)
(0 0 0.0042657)
(0 0 0.00441196)
(0 0 0.00455836)
(0 0 0.00470489)
(0 0 0.00485156)
(0 0 0.00499836)
(0 0 0.00514529)
(0 0 0.00529235)
(0 0 0.00543953)
(0 0 0.00558683)
(0 0 0.00573424)
(0 0 0.00588177)
(0 0 0.0060294)
(0 0 0.00617712)
(0 0 0.00632493)
(0 0 0.00647282)
(0 0 0.00662078)
(0 0 0.00676879)
(0 0 0.00691686)
(0 0 0.00706496)
(0 0 0.00721308)
(0 0 0.00736121)
(0 0 0.00750934)
(0 0 0.00765744)
(0 0 0.00780549)
(0 0 0.00795349)
(0 0 0.00810141)
(0 0 0.00824923)
(0 0 0.00839693)
(0 0 0.00854448)
(0 0 0.00869187)
(0 0 0.00883906)
(0 0 0.00898602)
(0 0 0.00913274)
(0 0 0.00927917)
(0 0 0.0094253)
(0 0 0.00957108)
(0 0 0.00971648)
(0 0 0.00986147)
(0 0 0.010006)
(0 0 0.0101501)
(0 0 0.0102936)
(0 0 0.0104365)
(0 0 0.0105789)
(0 0 0.0107206)
(0 0 0.0108615)
(0 0 0.0110018)
(0 0 0.0111412)
(0 0 0.0112798)
(0 0 0.0114175)
(0 0 0.0115543)
(0 0 0.01169)
(0 0 0.0118247)
(0 0 0.0119582)
(0 0 0.0120906)
(0 0 0.0122217)
(0 0 0.0123516)
(0 0 0.01248)
(0 0 0.0126071)
(0 0 0.0127326)
(0 0 0.0128566)
(0 0 0.012979)
(0 0 0.0130997)
(0 0 0.0132187)
(0 0 0.0133358)
(0 0 0.013451)
(0 0 0.0135642)
(0 0 0.0136754)
(0 0 0.0137845)
(0 0 0.0138914)
(0 0 0.013996)
(0 0 0.0140983)
(0 0 0.0141982)
(0 0 0.0142957)
(0 0 0.0143906)
(0 0 0.0144829)
(0 0 0.0145725)
(0 0 0.0146593)
(0 0 0.0147434)
(0 0 0.0148245)
(0 0 0.0149027)
(0 0 0.0149778)
(0 0 0.0150499)
(0 0 0.0151188)
(0 0 0.0151845)
(0 0 0.015247)
(0 0 0.0153061)
(0 0 0.0153618)
(0 0 0.0154141)
(0 0 0.015463)
(0 0 0.0155083)
(0 0 0.01555)
(0 0 0.0155881)
(0 0 0.0156225)
(0 0 0.0156533)
(0 0 0.0156803)
(0 0 0.0157036)
(0 0 0.0157231)
(0 0 0.0157388)
(0 0 0.0157507)
(0 0 0.0157587)
(0 0 0.0157629)
(0 0 0.0157633)
(0 0 0.0157598)
(0 0 0.0157524)
(0 0 0.0157411)
(0 0 0.015726)
(0 0 0.015707)
(0 0 0.0156843)
(0 0 0.0156576)
(0 0 0.0156272)
(0 0 0.0155931)
(0 0 0.0155551)
(0 0 0.0155135)
(0 0 0.0154681)
(0 0 0.0154192)
(0 0 0.0153666)
(0 0 0.0153104)
(0 0 0.0152507)
(0 0 0.0151876)
(0 0 0.015121)
(0 0 0.0150511)
(0 0 0.0149778)
(0 0 0.0149013)
(0 0 0.0148216)
(0 0 0.0147387)
(0 0 0.0146528)
(0 0 0.0145638)
(0 0 0.014472)
(0 0 0.0143772)
(0 0 0.0142796)
(0 0 0.0141793)
(0 0 0.0140763)
(0 0 0.0139707)
(0 0 0.0138626)
(0 0 0.0137521)
(0 0 0.0136391)
(0 0 0.0135238)
(0 0 0.0134063)
(0 0 0.0132867)
(0 0 0.0131649)
(0 0 0.0130411)
(0 0 0.0129154)
(0 0 0.0127877)
(0 0 0.0126583)
(0 0 0.0125271)
(0 0 0.0123943)
(0 0 0.0122598)
(0 0 0.0121238)
(0 0 0.0119863)
(0 0 0.0118474)
(0 0 0.0117072)
(0 0 0.0115657)
(0 0 0.0114229)
(0 0 0.011279)
(0 0 0.011134)
(0 0 0.010988)
(0 0 0.010841)
(0 0 0.010693)
(0 0 0.0105441)
(0 0 0.0103944)
(0 0 0.0102439)
(0 0 0.0100927)
(0 0 0.00994082)
(0 0 0.00978828)
(0 0 0.00963514)
(0 0 0.00948144)
(0 0 0.00932722)
(0 0 0.00917253)
(0 0 0.0090174)
(0 0 0.00886187)
(0 0 0.00870597)
(0 0 0.00854974)
(0 0 0.00839321)
(0 0 0.0082364)
(0 0 0.00807935)
(0 0 0.00792209)
(0 0 0.00776464)
(0 0 0.00760703)
(0 0 0.00744927)
(0 0 0.0072914)
(0 0 0.00713343)
(0 0 0.00697539)
(0 0 0.00681729)
(0 0 0.00665915)
(0 0 0.00650099)
(0 0 0.00634282)
(0 0 0.00618465)
(0 0 0.00602651)
(0 0 0.00586839)
(0 0 0.00571032)
(0 0 0.0055523)
(0 0 0.00539435)
(0 0 0.00523646)
(0 0 0.00507865)
(0 0 0.00492092)
(0 0 0.00476328)
(0 0 0.00460574)
(0 0 0.00444829)
(0 0 0.00429095)
(0 0 0.00413371)
(0 0 0.00397658)
(0 0 0.00381955)
(0 0 0.00366264)
(0 0 0.00350583)
(0 0 0.00334913)
(0 0 0.00319253)
(0 0 0.00303604)
(0 0 0.00287965)
(0 0 0.00272337)
(0 0 0.00256718)
(0 0 0.00241108)
(0 0 0.00225508)
(0 0 0.00209916)
(0 0 0.00194332)
(0 0 0.00178756)
(0 0 0.00163187)
(0 0 0.00147625)
(0 0 0.00132069)
(0 0 0.00116518)
(0 0 0.00100972)
(0 0 0.000854308)
(0 0 0.000698929)
(0 0 0.00054358)
(0 0 0.000388255)
(0 0 0.000232946)
(0 0 7.76476e-05)
(0 0 8.7817e-05)
(0 0 0.000263455)
(0 0 0.000439106)
(0 0 0.000614776)
(0 0 0.000790476)
(0 0 0.000966213)
(0 0 0.00114199)
(0 0 0.00131783)
(0 0 0.00149372)
(0 0 0.00166969)
(0 0 0.00184573)
(0 0 0.00202185)
(0 0 0.00219807)
(0 0 0.00237438)
(0 0 0.0025508)
(0 0 0.00272732)
(0 0 0.00290397)
(0 0 0.00308074)
(0 0 0.00325764)
(0 0 0.00343467)
(0 0 0.00361185)
(0 0 0.00378917)
(0 0 0.00396663)
(0 0 0.00414425)
(0 0 0.00432203)
(0 0 0.00449997)
(0 0 0.00467807)
(0 0 0.00485633)
(0 0 0.00503476)
(0 0 0.00521336)
(0 0 0.00539212)
(0 0 0.00557105)
(0 0 0.00575015)
(0 0 0.00592942)
(0 0 0.00610884)
(0 0 0.00628843)
(0 0 0.00646818)
(0 0 0.00664807)
(0 0 0.00682812)
(0 0 0.0070083)
(0 0 0.00718862)
(0 0 0.00736907)
(0 0 0.00754964)
(0 0 0.00773031)
(0 0 0.00791108)
(0 0 0.00809194)
(0 0 0.00827288)
(0 0 0.00845387)
(0 0 0.00863491)
(0 0 0.00881598)
(0 0 0.00899706)
(0 0 0.00917813)
(0 0 0.00935918)
(0 0 0.00954018)
(0 0 0.0097211)
(0 0 0.00990194)
(0 0 0.0100827)
(0 0 0.0102632)
(0 0 0.0104436)
(0 0 0.0106238)
(0 0 0.0108038)
(0 0 0.0109834)
(0 0 0.0111628)
(0 0 0.0113419)
(0 0 0.0115205)
(0 0 0.0116988)
(0 0 0.0118765)
(0 0 0.0120538)
(0 0 0.0122306)
(0 0 0.0124067)
(0 0 0.0125822)
(0 0 0.012757)
(0 0 0.0129311)
(0 0 0.0131043)
(0 0 0.0132768)
(0 0 0.0134483)
(0 0 0.0136188)
(0 0 0.0137883)
(0 0 0.0139567)
(0 0 0.0141239)
(0 0 0.0142899)
(0 0 0.0144546)
(0 0 0.014618)
(0 0 0.0147799)
(0 0 0.0149403)
(0 0 0.0150991)
(0 0 0.0152563)
(0 0 0.0154117)
(0 0 0.0155653)
(0 0 0.015717)
(0 0 0.0158667)
(0 0 0.0160144)
(0 0 0.0161599)
(0 0 0.0163031)
(0 0 0.0164441)
(0 0 0.0165826)
(0 0 0.0167187)
(0 0 0.0168521)
(0 0 0.0169829)
(0 0 0.017111)
(0 0 0.0172362)
(0 0 0.0173584)
(0 0 0.0174777)
(0 0 0.0175938)
(0 0 0.0177068)
(0 0 0.0178164)
(0 0 0.0179227)
(0 0 0.0180256)
(0 0 0.0181249)
(0 0 0.0182205)
(0 0 0.0183125)
(0 0 0.0184007)
(0 0 0.0184851)
(0 0 0.0185655)
(0 0 0.018642)
(0 0 0.0187143)
(0 0 0.0187826)
(0 0 0.0188466)
(0 0 0.0189064)
(0 0 0.0189618)
(0 0 0.0190129)
(0 0 0.0190595)
(0 0 0.0191017)
(0 0 0.0191394)
(0 0 0.0191725)
(0 0 0.019201)
(0 0 0.0192249)
(0 0 0.0192441)
(0 0 0.0192587)
(0 0 0.0192685)
(0 0 0.0192737)
(0 0 0.0192741)
(0 0 0.0192698)
(0 0 0.0192608)
(0 0 0.019247)
(0 0 0.0192285)
(0 0 0.0192053)
(0 0 0.0191774)
(0 0 0.0191449)
(0 0 0.0191077)
(0 0 0.0190658)
(0 0 0.0190194)
(0 0 0.0189684)
(0 0 0.0189129)
(0 0 0.018853)
(0 0 0.0187886)
(0 0 0.0187199)
(0 0 0.0186469)
(0 0 0.0185696)
(0 0 0.0184881)
(0 0 0.0184025)
(0 0 0.0183128)
(0 0 0.0182192)
(0 0 0.0181216)
(0 0 0.0180203)
(0 0 0.0179151)
(0 0 0.0178063)
(0 0 0.0176938)
(0 0 0.0175779)
(0 0 0.0174585)
(0 0 0.0173357)
(0 0 0.0172097)
(0 0 0.0170805)
(0 0 0.0169482)
(0 0 0.0168129)
(0 0 0.0166747)
(0 0 0.0165337)
(0 0 0.01639)
(0 0 0.0162435)
(0 0 0.0160946)
(0 0 0.0159431)
(0 0 0.0157893)
(0 0 0.0156332)
(0 0 0.0154748)
(0 0 0.0153143)
(0 0 0.0151518)
(0 0 0.0149873)
(0 0 0.014821)
(0 0 0.0146528)
(0 0 0.0144829)
(0 0 0.0143114)
(0 0 0.0141383)
(0 0 0.0139638)
(0 0 0.0137878)
(0 0 0.0136104)
(0 0 0.0134318)
(0 0 0.013252)
(0 0 0.013071)
(0 0 0.012889)
(0 0 0.0127059)
(0 0 0.0125219)
(0 0 0.012337)
(0 0 0.0121512)
(0 0 0.0119647)
(0 0 0.0117774)
(0 0 0.0115895)
(0 0 0.0114009)
(0 0 0.0112118)
(0 0 0.0110221)
(0 0 0.0108319)
(0 0 0.0106413)
(0 0 0.0104503)
(0 0 0.0102589)
(0 0 0.0100672)
(0 0 0.00987522)
(0 0 0.00968295)
(0 0 0.00949046)
(0 0 0.00929777)
(0 0 0.00910492)
(0 0 0.00891192)
(0 0 0.00871881)
(0 0 0.00852561)
(0 0 0.00833234)
(0 0 0.00813902)
(0 0 0.00794568)
(0 0 0.00775233)
(0 0 0.00755899)
(0 0 0.00736568)
(0 0 0.00717241)
(0 0 0.00697919)
(0 0 0.00678603)
(0 0 0.00659296)
(0 0 0.00639997)
(0 0 0.00620708)
(0 0 0.00601429)
(0 0 0.00582161)
(0 0 0.00562905)
(0 0 0.00543661)
(0 0 0.00524429)
(0 0 0.00505211)
(0 0 0.00486005)
(0 0 0.00466813)
(0 0 0.00447634)
(0 0 0.00428469)
(0 0 0.00409317)
(0 0 0.00390177)
(0 0 0.00371051)
(0 0 0.00351938)
(0 0 0.00332837)
(0 0 0.00313748)
(0 0 0.0029467)
(0 0 0.00275603)
(0 0 0.00256548)
(0 0 0.00237502)
(0 0 0.00218465)
(0 0 0.00199438)
(0 0 0.00180418)
(0 0 0.00161406)
(0 0 0.00142401)
(0 0 0.00123402)
(0 0 0.00104408)
(0 0 0.000854187)
(0 0 0.000664329)
(0 0 0.0004745)
(0 0 0.000284692)
(0 0 9.4896e-05)
(0 0 0.000103774)
(0 0 0.000311327)
(0 0 0.000518895)
(0 0 0.000726486)
(0 0 0.000934112)
(0 0 0.00114178)
(0 0 0.00134951)
(0 0 0.00155729)
(0 0 0.00176515)
(0 0 0.00197309)
(0 0 0.00218112)
(0 0 0.00238925)
(0 0 0.00259749)
(0 0 0.00280584)
(0 0 0.00301432)
(0 0 0.00322293)
(0 0 0.00343168)
(0 0 0.00364057)
(0 0 0.00384962)
(0 0 0.00405883)
(0 0 0.00426821)
(0 0 0.00447776)
(0 0 0.00468748)
(0 0 0.00489739)
(0 0 0.00510748)
(0 0 0.00531777)
(0 0 0.00552824)
(0 0 0.00573891)
(0 0 0.00594978)
(0 0 0.00616085)
(0 0 0.00637212)
(0 0 0.00658359)
(0 0 0.00679525)
(0 0 0.00700711)
(0 0 0.00721917)
(0 0 0.00743142)
(0 0 0.00764385)
(0 0 0.00785647)
(0 0 0.00806927)
(0 0 0.00828223)
(0 0 0.00849535)
(0 0 0.00870863)
(0 0 0.00892205)
(0 0 0.0091356)
(0 0 0.00934927)
(0 0 0.00956304)
(0 0 0.0097769)
(0 0 0.00999084)
(0 0 0.0102048)
(0 0 0.0104189)
(0 0 0.0106329)
(0 0 0.010847)
(0 0 0.011061)
(0 0 0.0112749)
(0 0 0.0114888)
(0 0 0.0117026)
(0 0 0.0119162)
(0 0 0.0121297)
(0 0 0.0123429)
(0 0 0.012556)
(0 0 0.0127687)
(0 0 0.0129811)
(0 0 0.0131932)
(0 0 0.0134049)
(0 0 0.0136162)
(0 0 0.0138269)
(0 0 0.0140371)
(0 0 0.0142467)
(0 0 0.0144557)
(0 0 0.014664)
(0 0 0.0148715)
(0 0 0.0150782)
(0 0 0.0152841)
(0 0 0.015489)
(0 0 0.0156929)
(0 0 0.0158957)
(0 0 0.0160974)
(0 0 0.0162978)
(0 0 0.016497)
(0 0 0.0166948)
(0 0 0.0168912)
(0 0 0.017086)
(0 0 0.0172792)
(0 0 0.0174708)
(0 0 0.0176605)
(0 0 0.0178484)
(0 0 0.0180343)
(0 0 0.0182181)
(0 0 0.0183999)
(0 0 0.0185793)
(0 0 0.0187565)
(0 0 0.0189311)
(0 0 0.0191033)
(0 0 0.0192728)
(0 0 0.0194396)
(0 0 0.0196035)
(0 0 0.0197645)
(0 0 0.0199225)
(0 0 0.0200773)
(0 0 0.0202288)
(0 0 0.020377)
(0 0 0.0205217)
(0 0 0.0206628)
(0 0 0.0208003)
(0 0 0.0209339)
(0 0 0.0210637)
(0 0 0.0211896)
(0 0 0.0213113)
(0 0 0.0214288)
(0 0 0.0215421)
(0 0 0.021651)
(0 0 0.0217554)
(0 0 0.0218553)
(0 0 0.0219505)
(0 0 0.022041)
(0 0 0.0221267)
(0 0 0.0222075)
(0 0 0.0222833)
(0 0 0.0223541)
(0 0 0.0224198)
(0 0 0.0224802)
(0 0 0.0225355)
(0 0 0.0225854)
(0 0 0.02263)
(0 0 0.0226692)
(0 0 0.022703)
(0 0 0.0227313)
(0 0 0.0227541)
(0 0 0.0227713)
(0 0 0.022783)
(0 0 0.0227891)
(0 0 0.0227897)
(0 0 0.0227846)
(0 0 0.0227739)
(0 0 0.0227576)
(0 0 0.0227357)
(0 0 0.0227083)
(0 0 0.0226753)
(0 0 0.0226367)
(0 0 0.0225927)
(0 0 0.0225432)
(0 0 0.0224882)
(0 0 0.0224279)
(0 0 0.0223622)
(0 0 0.0222913)
(0 0 0.0222151)
(0 0 0.0221337)
(0 0 0.0220473)
(0 0 0.0219558)
(0 0 0.0218593)
(0 0 0.021758)
(0 0 0.0216519)
(0 0 0.021541)
(0 0 0.0214256)
(0 0 0.0213056)
(0 0 0.0211811)
(0 0 0.0210523)
(0 0 0.0209192)
(0 0 0.020782)
(0 0 0.0206407)
(0 0 0.0204954)
(0 0 0.0203463)
(0 0 0.0201934)
(0 0 0.0200368)
(0 0 0.0198767)
(0 0 0.0197132)
(0 0 0.0195463)
(0 0 0.0193762)
(0 0 0.019203)
(0 0 0.0190267)
(0 0 0.0188475)
(0 0 0.0186655)
(0 0 0.0184808)
(0 0 0.0182935)
(0 0 0.0181036)
(0 0 0.0179114)
(0 0 0.0177168)
(0 0 0.01752)
(0 0 0.0173211)
(0 0 0.0171201)
(0 0 0.0169172)
(0 0 0.0167125)
(0 0 0.016506)
(0 0 0.0162978)
(0 0 0.0160881)
(0 0 0.0158768)
(0 0 0.0156641)
(0 0 0.0154501)
(0 0 0.0152348)
(0 0 0.0150183)
(0 0 0.0148007)
(0 0 0.0145821)
(0 0 0.0143624)
(0 0 0.0141418)
(0 0 0.0139204)
(0 0 0.0136982)
(0 0 0.0134752)
(0 0 0.0132516)
(0 0 0.0130273)
(0 0 0.0128025)
(0 0 0.0125771)
(0 0 0.0123513)
(0 0 0.012125)
(0 0 0.0118983)
(0 0 0.0116713)
(0 0 0.011444)