/*--------------------------------*- C++ -*----------------------------------*\
| =========                 |                                                 |
| \\      /  F ield         | OpenFOAM: The Open Source CFD Toolbox           |
|  \\    /   O peration     | Version:  v2012                                 |
|   \\  /    A nd           | Website:  www.openfoam.com                      |
|    \\/     M anipulation  |                                                 |
\*---------------------------------------------------------------------------*/
FoamFile
{
    version     2.0;
    format      ascii;
    class       volVectorField;
    location    "19";
    object      U;
}
// * * * * * * * * * * * * * * * * * * * * * * * * * * * * * * * * * * * * * //

dimensions      [0 1 -1 0 0 0 0];


internalField   nonuniform List<vector> 
65536
(
(0.000650576 -0.000650604 0)
(0.00195178 -0.00065063 0)
(0.00325305 -0.000650694 0)
(0.00455448 -0.000650785 0)
(0.00585612 -0.000650905 0)
(0.00715803 -0.000651056 0)
(0.00846027 -0.000651236 0)
(0.0097629 -0.000651444 0)
(0.011066 -0.000651682 0)
(0.0123696 -0.000651947 0)
(0.0136737 -0.00065224 0)
(0.0149784 -0.000652559 0)
(0.0162839 -0.000652905 0)
(0.01759 -0.000653276 0)
(0.0188969 -0.000653671 0)
(0.0202046 -0.00065409 0)
(0.0215132 -0.000654532 0)
(0.0228227 -0.000654995 0)
(0.0241331 -0.000655478 0)
(0.0254445 -0.000655981 0)
(0.026757 -0.000656501 0)
(0.0280705 -0.000657038 0)
(0.0293851 -0.00065759 0)
(0.0307008 -0.000658155 0)
(0.0320176 -0.000658733 0)
(0.0333356 -0.00065932 0)
(0.0346549 -0.000659916 0)
(0.0359753 -0.000660518 0)
(0.0372969 -0.000661124 0)
(0.0386197 -0.000661733 0)
(0.0399438 -0.000662342 0)
(0.041269 -0.000662949 0)
(0.0425955 -0.000663552 0)
(0.0439232 -0.000664148 0)
(0.0452521 -0.000664734 0)
(0.0465821 -0.000665308 0)
(0.0479133 -0.000665867 0)
(0.0492455 -0.000666408 0)
(0.0505789 -0.000666928 0)
(0.0519132 -0.000667424 0)
(0.0532486 -0.000667892 0)
(0.0545848 -0.00066833 0)
(0.0559219 -0.000668733 0)
(0.0572597 -0.000669099 0)
(0.0585982 -0.000669422 0)
(0.0599374 -0.000669701 0)
(0.0612771 -0.000669929 0)
(0.0626171 -0.000670104 0)
(0.0639575 -0.00067022 0)
(0.065298 -0.000670274 0)
(0.0666386 -0.000670261 0)
(0.0679791 -0.000670177 0)
(0.0693193 -0.000670016 0)
(0.0706592 -0.000669773 0)
(0.0719985 -0.000669444 0)
(0.073337 -0.000669022 0)
(0.0746746 -0.000668504 0)
(0.0760111 -0.000667883 0)
(0.0773462 -0.000667155 0)
(0.0786797 -0.000666312 0)
(0.0800115 -0.000665349 0)
(0.0813412 -0.000664261 0)
(0.0826686 -0.000663042 0)
(0.0839935 -0.000661684 0)
(0.0853154 -0.000660183 0)
(0.0866343 -0.000658531 0)
(0.0879497 -0.000656722 0)
(0.0892613 -0.00065475 0)
(0.0905688 -0.000652608 0)
(0.0918718 -0.00065029 0)
(0.0931701 -0.000647789 0)
(0.0944631 -0.000645098 0)
(0.0957506 -0.000642211 0)
(0.0970321 -0.000639121 0)
(0.0983072 -0.00063582 0)
(0.0995755 -0.000632303 0)
(0.100837 -0.000628563 0)
(0.10209 -0.000624593 0)
(0.103335 -0.000620386 0)
(0.104572 -0.000615937 0)
(0.105799 -0.000611238 0)
(0.107017 -0.000606284 0)
(0.108224 -0.000601067 0)
(0.109421 -0.000595584 0)
(0.110607 -0.000589826 0)
(0.111781 -0.00058379 0)
(0.112942 -0.000577469 0)
(0.114091 -0.000570858 0)
(0.115226 -0.000563953 0)
(0.116347 -0.000556749 0)
(0.117453 -0.000549241 0)
(0.118544 -0.000541426 0)
(0.119619 -0.0005333 0)
(0.120678 -0.00052486 0)
(0.121719 -0.000516103 0)
(0.122742 -0.000507026 0)
(0.123747 -0.000497628 0)
(0.124733 -0.000487908 0)
(0.125699 -0.000477863 0)
(0.126645 -0.000467494 0)
(0.127569 -0.000456801 0)
(0.128472 -0.000445784 0)
(0.129353 -0.000434445 0)
(0.13021 -0.000422785 0)
(0.131044 -0.000410806 0)
(0.131854 -0.000398513 0)
(0.132639 -0.000385907 0)
(0.133398 -0.000372994 0)
(0.134131 -0.000359778 0)
(0.134837 -0.000346266 0)
(0.135516 -0.000332462 0)
(0.136167 -0.000318374 0)
(0.13679 -0.000304009 0)
(0.137383 -0.000289376 0)
(0.137947 -0.000274483 0)
(0.138482 -0.00025934 0)
(0.138985 -0.000243957 0)
(0.139458 -0.000228344 0)
(0.139899 -0.000212513 0)
(0.140308 -0.000196475 0)
(0.140685 -0.000180243 0)
(0.141029 -0.000163829 0)
(0.14134 -0.000147248 0)
(0.141618 -0.000130512 0)
(0.141862 -0.000113636 0)
(0.142073 -9.6635e-05 0)
(0.142249 -7.95236e-05 0)
(0.142391 -6.23172e-05 0)
(0.142498 -4.50314e-05 0)
(0.142571 -2.76819e-05 0)
(0.142609 -1.02848e-05 0)
(0.142612 7.14366e-06 0)
(0.14258 2.45873e-05 0)
(0.142514 4.203e-05 0)
(0.142412 5.94553e-05 0)
(0.142276 7.6847e-05 0)
(0.142105 9.4189e-05 0)
(0.141899 0.000111465 0)
(0.141659 0.00012866 0)
(0.141384 0.000145758 0)
(0.141075 0.000162743 0)
(0.140733 0.0001796 0)
(0.140357 0.000196316 0)
(0.139947 0.000212875 0)
(0.139505 0.000229264 0)
(0.13903 0.000245469 0)
(0.138523 0.000261478 0)
(0.137984 0.000277278 0)
(0.137414 0.000292858 0)
(0.136812 0.000308206 0)
(0.13618 0.000323311 0)
(0.135519 0.000338164 0)
(0.134828 0.000352755 0)
(0.134107 0.000367076 0)
(0.133359 0.000381118 0)
(0.132583 0.000394874 0)
(0.131779 0.000408337 0)
(0.130949 0.000421501 0)
(0.130093 0.000434361 0)
(0.129211 0.000446911 0)
(0.128305 0.000459148 0)
(0.127374 0.000471068 0)
(0.12642 0.000482668 0)
(0.125443 0.000493946 0)
(0.124444 0.0005049 0)
(0.123423 0.00051553 0)
(0.122381 0.000525834 0)
(0.121319 0.000535812 0)
(0.120238 0.000545466 0)
(0.119137 0.000554797 0)
(0.118018 0.000563805 0)
(0.116882 0.000572493 0)
(0.115728 0.000580864 0)
(0.114558 0.00058892 0)
(0.113372 0.000596665 0)
(0.112171 0.000604102 0)
(0.110955 0.000611236 0)
(0.109725 0.00061807 0)
(0.108482 0.000624611 0)
(0.107227 0.000630862 0)
(0.105959 0.000636828 0)
(0.104679 0.000642516 0)
(0.103388 0.000647931 0)
(0.102087 0.000653079 0)
(0.100776 0.000657966 0)
(0.0994547 0.000662598 0)
(0.0981249 0.000666981 0)
(0.0967865 0.000671123 0)
(0.0954401 0.000675028 0)
(0.0940861 0.000678706 0)
(0.092725 0.000682161 0)
(0.0913572 0.000685401 0)
(0.0899832 0.000688432 0)
(0.0886032 0.000691261 0)
(0.0872179 0.000693896 0)
(0.0858274 0.000696342 0)
(0.0844323 0.000698608 0)
(0.0830328 0.000700698 0)
(0.0816293 0.000702621 0)
(0.0802221 0.000704383 0)
(0.0788115 0.00070599 0)
(0.0773979 0.000707449 0)
(0.0759815 0.000708767 0)
(0.0745627 0.000709949 0)
(0.0731416 0.000711003 0)
(0.0717185 0.000711934 0)
(0.0702937 0.000712748 0)
(0.0688673 0.000713452 0)
(0.0674397 0.000714051 0)
(0.066011 0.00071455 0)
(0.0645814 0.000714957 0)
(0.063151 0.000715276 0)
(0.0617201 0.000715512 0)
(0.0602888 0.000715671 0)
(0.0588573 0.000715758 0)
(0.0574257 0.000715778 0)
(0.0559941 0.000715736 0)
(0.0545626 0.000715637 0)
(0.0531315 0.000715485 0)
(0.0517006 0.000715284 0)
(0.0502702 0.00071504 0)
(0.0488404 0.000714755 0)
(0.0474111 0.000714436 0)
(0.0459825 0.000714084 0)
(0.0445547 0.000713705 0)
(0.0431277 0.000713301 0)
(0.0417014 0.000712877 0)
(0.0402761 0.000712436 0)
(0.0388516 0.00071198 0)
(0.0374281 0.000711514 0)
(0.0360055 0.000711041 0)
(0.0345839 0.000710562 0)
(0.0331632 0.000710082 0)
(0.0317435 0.000709602 0)
(0.0303248 0.000709125 0)
(0.028907 0.000708654 0)
(0.0274901 0.000708191 0)
(0.0260742 0.000707738 0)
(0.0246591 0.000707297 0)
(0.023245 0.00070687 0)
(0.0218316 0.000706459 0)
(0.0204191 0.000706065 0)
(0.0190073 0.000705691 0)
(0.0175963 0.000705337 0)
(0.016186 0.000705005 0)
(0.0147763 0.000704697 0)
(0.0133672 0.000704413 0)
(0.0119586 0.000704154 0)
(0.0105505 0.000703922 0)
(0.00914288 0.000703717 0)
(0.00773563 0.00070354 0)
(0.0063287 0.000703392 0)
(0.00492205 0.000703273 0)
(0.0035156 0.000703183 0)
(0.00210931 0.000703123 0)
(0.000703098 0.000703092 0)
(0.00065055 -0.00195176 0)
(0.00195169 -0.00195185 0)
(0.00325291 -0.00195203 0)
(0.00455427 -0.0019523 0)
(0.00585585 -0.00195267 0)
(0.00715771 -0.00195312 0)
(0.00845989 -0.00195366 0)
(0.00976246 -0.00195428 0)
(0.0110655 -0.001955 0)
(0.012369 -0.00195579 0)
(0.0136731 -0.00195667 0)
(0.0149778 -0.00195763 0)
(0.0162832 -0.00195867 0)
(0.0175892 -0.00195978 0)
(0.0188961 -0.00196097 0)
(0.0202038 -0.00196223 0)
(0.0215123 -0.00196355 0)
(0.0228217 -0.00196494 0)
(0.0241321 -0.00196639 0)
(0.0254435 -0.0019679 0)
(0.0267559 -0.00196947 0)
(0.0280694 -0.00197108 0)
(0.029384 -0.00197274 0)
(0.0306996 -0.00197443 0)
(0.0320165 -0.00197617 0)
(0.0333345 -0.00197793 0)
(0.0346537 -0.00197972 0)
(0.0359741 -0.00198153 0)
(0.0372957 -0.00198335 0)
(0.0386185 -0.00198518 0)
(0.0399426 -0.00198701 0)
(0.0412678 -0.00198883 0)
(0.0425943 -0.00199064 0)
(0.043922 -0.00199243 0)
(0.0452509 -0.00199419 0)
(0.046581 -0.00199592 0)
(0.0479122 -0.0019976 0)
(0.0492445 -0.00199922 0)
(0.0505779 -0.00200078 0)
(0.0519123 -0.00200228 0)
(0.0532477 -0.00200368 0)
(0.054584 -0.002005 0)
(0.0559211 -0.00200621 0)
(0.057259 -0.00200731 0)
(0.0585977 -0.00200829 0)
(0.0599369 -0.00200913 0)
(0.0612767 -0.00200982 0)
(0.0626168 -0.00201035 0)
(0.0639573 -0.0020107 0)
(0.065298 -0.00201087 0)
(0.0666387 -0.00201083 0)
(0.0679793 -0.00201058 0)
(0.0693198 -0.0020101 0)
(0.0706598 -0.00200938 0)
(0.0719992 -0.0020084 0)
(0.0733379 -0.00200714 0)
(0.0746758 -0.00200559 0)
(0.0760124 -0.00200373 0)
(0.0773478 -0.00200155 0)
(0.0786816 -0.00199903 0)
(0.0800136 -0.00199615 0)
(0.0813435 -0.00199289 0)
(0.0826712 -0.00198924 0)
(0.0839963 -0.00198517 0)
(0.0853186 -0.00198067 0)
(0.0866378 -0.00197572 0)
(0.0879535 -0.0019703 0)
(0.0892654 -0.00196439 0)
(0.0905733 -0.00195797 0)
(0.0918767 -0.00195103 0)
(0.0931753 -0.00194353 0)
(0.0944687 -0.00193546 0)
(0.0957566 -0.00192681 0)
(0.0970385 -0.00191754 0)
(0.0983141 -0.00190765 0)
(0.0995828 -0.0018971 0)
(0.100844 -0.00188589 0)
(0.102098 -0.00187399 0)
(0.103344 -0.00186137 0)
(0.104581 -0.00184803 0)
(0.105809 -0.00183394 0)
(0.107027 -0.00181908 0)
(0.108235 -0.00180344 0)
(0.109433 -0.00178699 0)
(0.110619 -0.00176973 0)
(0.111793 -0.00175162 0)
(0.112955 -0.00173266 0)
(0.114104 -0.00171284 0)
(0.11524 -0.00169213 0)
(0.116362 -0.00167052 0)
(0.117469 -0.001648 0)
(0.11856 -0.00162456 0)
(0.119636 -0.00160018 0)
(0.120695 -0.00157486 0)
(0.121737 -0.00154859 0)
(0.122761 -0.00152137 0)
(0.123766 -0.00149317 0)
(0.124753 -0.00146401 0)
(0.12572 -0.00143388 0)
(0.126666 -0.00140277 0)
(0.127591 -0.00137069 0)
(0.128495 -0.00133764 0)
(0.129376 -0.00130362 0)
(0.130234 -0.00126864 0)
(0.131069 -0.0012327 0)
(0.131879 -0.00119581 0)
(0.132664 -0.00115799 0)
(0.133424 -0.00111925 0)
(0.134158 -0.00107959 0)
(0.134864 -0.00103905 0)
(0.135544 -0.000997631 0)
(0.136196 -0.00095536 0)
(0.136819 -0.000912258 0)
(0.137413 -0.00086835 0)
(0.137978 -0.000823662 0)
(0.138512 -0.000778223 0)
(0.139016 -0.000732062 0)
(0.139489 -0.000685212 0)
(0.13993 -0.000637706 0)
(0.14034 -0.00058958 0)
(0.140717 -0.000540871 0)
(0.141062 -0.000491616 0)
(0.141373 -0.000441858 0)
(0.141652 -0.000391636 0)
(0.141896 -0.000340994 0)
(0.142107 -0.000289976 0)
(0.142283 -0.000238627 0)
(0.142425 -0.000186992 0)
(0.142533 -0.000135119 0)
(0.142606 -8.30547e-05 0)
(0.142644 -3.08475e-05 0)
(0.142647 2.14541e-05 0)
(0.142615 7.38014e-05 0)
(0.142548 0.000126145 0)
(0.142447 0.000178437 0)
(0.14231 0.000230629 0)
(0.142139 0.000282671 0)
(0.141933 0.000334515 0)
(0.141693 0.000386114 0)
(0.141418 0.000437422 0)
(0.141109 0.000488392 0)
(0.140767 0.000538979 0)
(0.14039 0.00058914 0)
(0.13998 0.000638831 0)
(0.139538 0.000688011 0)
(0.139062 0.000736639 0)
(0.138555 0.000784678 0)
(0.138015 0.00083209 0)
(0.137445 0.00087884 0)
(0.136843 0.000924894 0)
(0.13621 0.00097022 0)
(0.135548 0.00101479 0)
(0.134856 0.00105857 0)
(0.134136 0.00110154 0)
(0.133387 0.00114367 0)
(0.13261 0.00118495 0)
(0.131806 0.00122534 0)
(0.130975 0.00126484 0)
(0.130118 0.00130342 0)
(0.129236 0.00134108 0)
(0.128329 0.00137779 0)
(0.127398 0.00141355 0)
(0.126443 0.00144836 0)
(0.125465 0.00148219 0)
(0.124465 0.00151506 0)
(0.123444 0.00154694 0)
(0.122402 0.00157786 0)
(0.121339 0.00160779 0)
(0.120257 0.00163675 0)
(0.119156 0.00166474 0)
(0.118036 0.00169176 0)
(0.116899 0.00171782 0)
(0.115744 0.00174293 0)
(0.114574 0.0017671 0)
(0.113387 0.00179033 0)
(0.112185 0.00181264 0)
(0.110969 0.00183403 0)
(0.109739 0.00185453 0)
(0.108495 0.00187415 0)
(0.107239 0.00189289 0)
(0.10597 0.00191079 0)
(0.10469 0.00192785 0)
(0.103399 0.00194409 0)
(0.102097 0.00195952 0)
(0.100785 0.00197418 0)
(0.0994638 0.00198807 0)
(0.0981335 0.00200121 0)
(0.0967946 0.00201363 0)
(0.0954477 0.00202534 0)
(0.0940933 0.00203636 0)
(0.0927318 0.00204672 0)
(0.0913635 0.00205643 0)
(0.0899891 0.00206552 0)
(0.0886088 0.002074 0)
(0.087223 0.0020819 0)
(0.0858322 0.00208923 0)
(0.0844367 0.00209602 0)
(0.0830368 0.00210229 0)
(0.081633 0.00210805 0)
(0.0802255 0.00211333 0)
(0.0788146 0.00211814 0)
(0.0774007 0.00212251 0)
(0.0759841 0.00212646 0)
(0.0745649 0.00213 0)
(0.0731436 0.00213315 0)
(0.0717203 0.00213594 0)
(0.0702952 0.00213838 0)
(0.0688687 0.00214048 0)
(0.0674408 0.00214227 0)
(0.0660119 0.00214377 0)
(0.0645821 0.00214498 0)
(0.0631516 0.00214593 0)
(0.0617206 0.00214664 0)
(0.0602891 0.00214711 0)
(0.0588575 0.00214737 0)
(0.0574257 0.00214742 0)
(0.055994 0.00214729 0)
(0.0545624 0.00214699 0)
(0.0531311 0.00214653 0)
(0.0517002 0.00214592 0)
(0.0502697 0.00214518 0)
(0.0488398 0.00214433 0)
(0.0474105 0.00214336 0)
(0.0459819 0.0021423 0)
(0.044554 0.00214116 0)
(0.0431269 0.00213995 0)
(0.0417006 0.00213867 0)
(0.0402752 0.00213734 0)
(0.0388507 0.00213598 0)
(0.0374272 0.00213457 0)
(0.0360046 0.00213315 0)
(0.034583 0.00213171 0)
(0.0331623 0.00213027 0)
(0.0317426 0.00212883 0)
(0.0303239 0.00212739 0)
(0.0289061 0.00212598 0)
(0.0274892 0.00212459 0)
(0.0260733 0.00212322 0)
(0.0246583 0.0021219 0)
(0.0232441 0.00212062 0)
(0.0218308 0.00211938 0)
(0.0204183 0.0021182 0)
(0.0190066 0.00211708 0)
(0.0175956 0.00211601 0)
(0.0161853 0.00211502 0)
(0.0147757 0.00211409 0)
(0.0133666 0.00211324 0)
(0.0119581 0.00211246 0)
(0.0105501 0.00211176 0)
(0.00914251 0.00211115 0)
(0.00773531 0.00211062 0)
(0.00632844 0.00211017 0)
(0.00492184 0.00210981 0)
(0.00351545 0.00210954 0)
(0.00210922 0.00210936 0)
(0.000703068 0.00210927 0)
(0.000650485 -0.00325283 0)
(0.0019515 -0.00325297 0)
(0.0032526 -0.00325328 0)
(0.00455386 -0.00325373 0)
(0.00585532 -0.00325433 0)
(0.00715706 -0.00325508 0)
(0.00845912 -0.00325598 0)
(0.00976158 -0.00325703 0)
(0.0110645 -0.00325822 0)
(0.0123679 -0.00325954 0)
(0.0136719 -0.00326101 0)
(0.0149765 -0.00326261 0)
(0.0162817 -0.00326435 0)
(0.0175877 -0.0032662 0)
(0.0188945 -0.00326819 0)
(0.0202021 -0.00327029 0)
(0.0215105 -0.0032725 0)
(0.0228199 -0.00327482 0)
(0.0241302 -0.00327724 0)
(0.0254415 -0.00327976 0)
(0.0267538 -0.00328237 0)
(0.0280672 -0.00328506 0)
(0.0293817 -0.00328783 0)
(0.0306974 -0.00329066 0)
(0.0320142 -0.00329356 0)
(0.0333321 -0.0032965 0)
(0.0346513 -0.00329949 0)
(0.0359717 -0.00330251 0)
(0.0372933 -0.00330555 0)
(0.0386161 -0.00330861 0)
(0.0399402 -0.00331167 0)
(0.0412655 -0.00331471 0)
(0.042592 -0.00331774 0)
(0.0439197 -0.00332073 0)
(0.0452486 -0.00332367 0)
(0.0465788 -0.00332656 0)
(0.04791 -0.00332937 0)
(0.0492424 -0.00333209 0)
(0.0505759 -0.0033347 0)
(0.0519104 -0.0033372 0)
(0.0532459 -0.00333956 0)
(0.0545823 -0.00334176 0)
(0.0559196 -0.0033438 0)
(0.0572577 -0.00334564 0)
(0.0585965 -0.00334728 0)
(0.0599359 -0.00334869 0)
(0.0612759 -0.00334985 0)
(0.0626163 -0.00335075 0)
(0.063957 -0.00335135 0)
(0.0652979 -0.00335165 0)
(0.0666389 -0.00335161 0)
(0.0679799 -0.00335121 0)
(0.0693206 -0.00335042 0)
(0.0706609 -0.00334924 0)
(0.0720008 -0.00334761 0)
(0.0733399 -0.00334554 0)
(0.0746781 -0.00334297 0)
(0.0760152 -0.00333989 0)
(0.077351 -0.00333628 0)
(0.0786852 -0.00333209 0)
(0.0800177 -0.00332731 0)
(0.0813482 -0.0033219 0)
(0.0826764 -0.00331583 0)
(0.0840021 -0.00330907 0)
(0.085325 -0.0033016 0)
(0.0866447 -0.00329337 0)
(0.0879611 -0.00328436 0)
(0.0892737 -0.00327453 0)
(0.0905822 -0.00326386 0)
(0.0918864 -0.0032523 0)
(0.0931857 -0.00323982 0)
(0.0944799 -0.0032264 0)
(0.0957686 -0.003212 0)
(0.0970513 -0.00319658 0)
(0.0983278 -0.00318011 0)
(0.0995974 -0.00316256 0)
(0.10086 -0.00314389 0)
(0.102115 -0.00312407 0)
(0.103361 -0.00310307 0)
(0.104599 -0.00308086 0)
(0.105828 -0.00305739 0)
(0.107047 -0.00303265 0)
(0.108257 -0.0030066 0)
(0.109455 -0.00297921 0)
(0.110642 -0.00295045 0)
(0.111818 -0.00292029 0)
(0.112981 -0.00288871 0)
(0.114132 -0.00285568 0)
(0.115268 -0.00282118 0)
(0.116391 -0.00278518 0)
(0.117499 -0.00274766 0)
(0.118592 -0.0027086 0)
(0.119669 -0.00266799 0)
(0.120729 -0.0026258 0)
(0.121773 -0.00258203 0)
(0.122798 -0.00253665 0)
(0.123805 -0.00248967 0)
(0.124792 -0.00244107 0)
(0.125761 -0.00239085 0)
(0.126708 -0.002339 0)
(0.127635 -0.00228553 0)
(0.128539 -0.00223044 0)
(0.129422 -0.00217374 0)
(0.130281 -0.00211542 0)
(0.131117 -0.00205552 0)
(0.131929 -0.00199403 0)
(0.132715 -0.00193098 0)
(0.133476 -0.00186639 0)
(0.134211 -0.00180028 0)
(0.134919 -0.00173269 0)
(0.1356 -0.00166363 0)
(0.136253 -0.00159316 0)
(0.136877 -0.00152129 0)
(0.137472 -0.00144808 0)
(0.138038 -0.00137357 0)
(0.138573 -0.00129781 0)
(0.139078 -0.00122084 0)
(0.139552 -0.00114271 0)
(0.139994 -0.0010635 0)
(0.140405 -0.000983248 0)
(0.140783 -0.000902022 0)
(0.141128 -0.000819887 0)
(0.14144 -0.00073691 0)
(0.141719 -0.00065316 0)
(0.141964 -0.000568708 0)
(0.142175 -0.000483628 0)
(0.142352 -0.000397995 0)
(0.142494 -0.000311885 0)
(0.142602 -0.000225377 0)
(0.142675 -0.00013855 0)
(0.142713 -5.14846e-05 0)
(0.142717 3.57387e-05 0)
(0.142685 0.000123038 0)
(0.142618 0.000210333 0)
(0.142517 0.00029754 0)
(0.14238 0.000384579 0)
(0.142209 0.000471369 0)
(0.142002 0.000557829 0)
(0.141762 0.00064388 0)
(0.141486 0.000729443 0)
(0.141177 0.000814443 0)
(0.140834 0.000898804 0)
(0.140457 0.000982452 0)
(0.140046 0.00106532 0)
(0.139603 0.00114733 0)
(0.139127 0.00122842 0)
(0.138619 0.00130852 0)
(0.138078 0.00138758 0)
(0.137507 0.00146554 0)
(0.136904 0.00154233 0)
(0.136271 0.0016179 0)
(0.135607 0.00169221 0)
(0.134914 0.00176521 0)
(0.134193 0.00183686 0)
(0.133442 0.0019071 0)
(0.132664 0.00197592 0)
(0.131859 0.00204326 0)
(0.131027 0.00210911 0)
(0.130169 0.00217343 0)
(0.129286 0.0022362 0)
(0.128377 0.0022974 0)
(0.127445 0.00235702 0)
(0.126489 0.00241503 0)
(0.12551 0.00247142 0)
(0.124509 0.0025262 0)
(0.123486 0.00257935 0)
(0.122442 0.00263087 0)
(0.121378 0.00268076 0)
(0.120295 0.00272902 0)
(0.119192 0.00277566 0)
(0.118071 0.00282069 0)
(0.116933 0.00286412 0)
(0.115777 0.00290596 0)
(0.114605 0.00294622 0)
(0.113417 0.00298493 0)
(0.112215 0.00302209 0)
(0.110997 0.00305774 0)
(0.109766 0.00309189 0)
(0.108521 0.00312457 0)
(0.107263 0.00315579 0)
(0.105994 0.0031856 0)
(0.104712 0.00321401 0)
(0.10342 0.00324105 0)
(0.102117 0.00326676 0)
(0.100804 0.00329117 0)
(0.0994819 0.00331429 0)
(0.0981506 0.00333618 0)
(0.0968108 0.00335685 0)
(0.095463 0.00337635 0)
(0.0941077 0.0033947 0)
(0.0927452 0.00341194 0)
(0.0913762 0.00342811 0)
(0.0900009 0.00344323 0)
(0.0886198 0.00345734 0)
(0.0872332 0.00347048 0)
(0.0858417 0.00348268 0)
(0.0844455 0.00349397 0)
(0.0830449 0.00350439 0)
(0.0816404 0.00351397 0)
(0.0802323 0.00352275 0)
(0.0788208 0.00353075 0)
(0.0774064 0.00353801 0)
(0.0759892 0.00354457 0)
(0.0745695 0.00355045 0)
(0.0731476 0.00355569 0)
(0.0717238 0.00356031 0)
(0.0702983 0.00356435 0)
(0.0688714 0.00356784 0)
(0.0674431 0.00357081 0)
(0.0660138 0.00357328 0)
(0.0645837 0.00357528 0)
(0.0631528 0.00357685 0)
(0.0617214 0.00357801 0)
(0.0602897 0.00357878 0)
(0.0588578 0.00357919 0)
(0.0574258 0.00357926 0)
(0.0559938 0.00357903 0)
(0.054562 0.00357851 0)
(0.0531305 0.00357772 0)
(0.0516994 0.0035767 0)
(0.0502688 0.00357546 0)
(0.0488387 0.00357402 0)
(0.0474092 0.0035724 0)
(0.0459805 0.00357062 0)
(0.0445525 0.00356871 0)
(0.0431253 0.00356667 0)
(0.0416989 0.00356453 0)
(0.0402735 0.00356231 0)
(0.038849 0.00356002 0)
(0.0374254 0.00355767 0)
(0.0360028 0.00355529 0)
(0.0345811 0.00355288 0)
(0.0331604 0.00355047 0)
(0.0317407 0.00354805 0)
(0.030322 0.00354566 0)
(0.0289043 0.00354329 0)
(0.0274874 0.00354097 0)
(0.0260716 0.00353869 0)
(0.0246566 0.00353648 0)
(0.0232425 0.00353433 0)
(0.0218293 0.00353227 0)
(0.0204168 0.00353029 0)
(0.0190052 0.00352841 0)
(0.0175943 0.00352664 0)
(0.0161841 0.00352497 0)
(0.0147745 0.00352342 0)
(0.0133656 0.003522 0)
(0.0119571 0.0035207 0)
(0.0105492 0.00351954 0)
(0.00914176 0.00351851 0)
(0.00773467 0.00351762 0)
(0.00632792 0.00351688 0)
(0.00492143 0.00351628 0)
(0.00351515 0.00351583 0)
(0.00210904 0.00351553 0)
(0.000703009 0.00351537 0)
(0.000650394 -0.00455375 0)
(0.00195123 -0.00455396 0)
(0.00325215 -0.00455438 0)
(0.00455323 -0.00455501 0)
(0.00585451 -0.00455586 0)
(0.00715607 -0.00455691 0)
(0.00845797 -0.00455817 0)
(0.00976026 -0.00455964 0)
(0.011063 -0.00456131 0)
(0.0123662 -0.00456317 0)
(0.0136701 -0.00456523 0)
(0.0149745 -0.00456748 0)
(0.0162796 -0.00456991 0)
(0.0175854 -0.00457252 0)
(0.0188921 -0.0045753 0)
(0.0201995 -0.00457824 0)
(0.0215078 -0.00458135 0)
(0.0228171 -0.00458461 0)
(0.0241272 -0.00458801 0)
(0.0254384 -0.00459154 0)
(0.0267507 -0.00459521 0)
(0.028064 -0.00459898 0)
(0.0293784 -0.00460287 0)
(0.030694 -0.00460685 0)
(0.0320107 -0.00461091 0)
(0.0333286 -0.00461505 0)
(0.0346477 -0.00461924 0)
(0.0359681 -0.00462349 0)
(0.0372897 -0.00462776 0)
(0.0386125 -0.00463205 0)
(0.0399365 -0.00463635 0)
(0.0412619 -0.00464063 0)
(0.0425884 -0.00464488 0)
(0.0439162 -0.00464909 0)
(0.0452452 -0.00465323 0)
(0.0465754 -0.00465729 0)
(0.0479068 -0.00466124 0)
(0.0492393 -0.00466507 0)
(0.0505729 -0.00466875 0)
(0.0519075 -0.00467227 0)
(0.0532432 -0.0046756 0)
(0.0545798 -0.00467871 0)
(0.0559173 -0.00468158 0)
(0.0572557 -0.00468419 0)
(0.0585947 -0.00468651 0)
(0.0599344 -0.00468852 0)
(0.0612747 -0.00469017 0)
(0.0626155 -0.00469146 0)
(0.0639565 -0.00469233 0)
(0.0652978 -0.00469278 0)
(0.0666393 -0.00469275 0)
(0.0679806 -0.00469222 0)
(0.0693218 -0.00469116 0)
(0.0706627 -0.00468954 0)
(0.072003 -0.0046873 0)
(0.0733427 -0.00468443 0)
(0.0746815 -0.00468088 0)
(0.0760192 -0.00467661 0)
(0.0773557 -0.00467159 0)
(0.0786906 -0.00466577 0)
(0.0800239 -0.00465911 0)
(0.0813551 -0.00465158 0)
(0.0826842 -0.00464313 0)
(0.0840107 -0.00463371 0)
(0.0853344 -0.00462329 0)
(0.0866551 -0.00461182 0)
(0.0879724 -0.00459925 0)
(0.089286 -0.00458553 0)
(0.0905956 -0.00457063 0)
(0.0919008 -0.0045545 0)
(0.0932013 -0.00453708 0)
(0.0944967 -0.00451834 0)
(0.0957866 -0.00449822 0)
(0.0970705 -0.00447668 0)
(0.0983482 -0.00445367 0)
(0.0996192 -0.00442915 0)
(0.100883 -0.00440306 0)
(0.102139 -0.00437536 0)
(0.103387 -0.004346 0)
(0.104627 -0.00431494 0)
(0.105857 -0.00428214 0)
(0.107078 -0.00424754 0)
(0.108289 -0.00421111 0)
(0.109489 -0.00417281 0)
(0.110678 -0.00413258 0)
(0.111855 -0.0040904 0)
(0.11302 -0.00404623 0)
(0.114172 -0.00400002 0)
(0.115311 -0.00395175 0)
(0.116435 -0.00390138 0)
(0.117545 -0.00384888 0)
(0.11864 -0.00379422 0)
(0.119719 -0.00373739 0)
(0.120781 -0.00367834 0)
(0.121826 -0.00361707 0)
(0.122853 -0.00355356 0)
(0.123862 -0.0034878 0)
(0.124852 -0.00341977 0)
(0.125822 -0.00334946 0)
(0.126771 -0.00327688 0)
(0.1277 -0.00320201 0)
(0.128607 -0.00312488 0)
(0.129491 -0.00304548 0)
(0.130352 -0.00296382 0)
(0.13119 -0.00287993 0)
(0.132003 -0.00279383 0)
(0.132792 -0.00270553 0)
(0.133555 -0.00261507 0)
(0.134291 -0.00252248 0)
(0.135001 -0.0024278 0)
(0.135684 -0.00233108 0)
(0.136338 -0.00223236 0)
(0.136964 -0.00213169 0)
(0.137561 -0.00202914 0)
(0.138128 -0.00192476 0)
(0.138665 -0.00181861 0)
(0.139171 -0.00171078 0)
(0.139647 -0.00160133 0)
(0.14009 -0.00149035 0)
(0.140502 -0.00137791 0)
(0.140881 -0.0012641 0)
(0.141227 -0.00114902 0)
(0.14154 -0.00103276 0)
(0.14182 -0.000915407 0)
(0.142066 -0.000797072 0)
(0.142278 -0.000677855 0)
(0.142455 -0.000557861 0)
(0.142598 -0.000437198 0)
(0.142706 -0.000315976 0)
(0.14278 -0.000194306 0)
(0.142818 -7.23012e-05 0)
(0.142822 4.99252e-05 0)
(0.14279 0.000172259 0)
(0.142723 0.000294585 0)
(0.142621 0.000416789 0)
(0.142485 0.000538757 0)
(0.142313 0.000660375 0)
(0.142106 0.000781529 0)
(0.141865 0.00090211 0)
(0.141589 0.00102201 0)
(0.141279 0.00114111 0)
(0.140935 0.00125932 0)
(0.140557 0.00137653 0)
(0.140146 0.00149263 0)
(0.139701 0.00160754 0)
(0.139224 0.00172116 0)
(0.138714 0.00183339 0)
(0.138173 0.00194416 0)
(0.1376 0.00205337 0)
(0.136995 0.00216095 0)
(0.136361 0.00226683 0)
(0.135696 0.00237093 0)
(0.135001 0.00247319 0)
(0.134278 0.00257355 0)
(0.133526 0.00267195 0)
(0.132746 0.00276833 0)
(0.131939 0.00286266 0)
(0.131105 0.00295488 0)
(0.130245 0.00304497 0)
(0.12936 0.00313288 0)
(0.12845 0.00321858 0)
(0.127516 0.00330206 0)
(0.126558 0.00338329 0)
(0.125577 0.00346226 0)
(0.124574 0.00353896 0)
(0.123549 0.00361337 0)
(0.122503 0.00368549 0)
(0.121437 0.00375534 0)
(0.120352 0.0038229 0)
(0.119247 0.00388819 0)
(0.118125 0.00395121 0)
(0.116984 0.00401199 0)
(0.115827 0.00407055 0)
(0.114653 0.00412689 0)
(0.113463 0.00418105 0)
(0.112258 0.00423306 0)
(0.111039 0.00428293 0)
(0.109806 0.00433071 0)
(0.108559 0.00437642 0)
(0.1073 0.0044201 0)
(0.106029 0.00446179 0)
(0.104746 0.00450153 0)
(0.103452 0.00453935 0)
(0.102147 0.0045753 0)
(0.100833 0.00460942 0)
(0.0995091 0.00464175 0)
(0.0981763 0.00467234 0)
(0.096835 0.00470124 0)
(0.0954858 0.00472849 0)
(0.0941291 0.00475413 0)
(0.0927654 0.00477822 0)
(0.0913951 0.00480081 0)
(0.0900185 0.00482193 0)
(0.0886362 0.00484164 0)
(0.0872486 0.00485999 0)
(0.0858559 0.00487702 0)
(0.0844586 0.00489278 0)
(0.0830571 0.00490732 0)
(0.0816516 0.00492069 0)
(0.0802425 0.00493293 0)
(0.0788301 0.00494409 0)
(0.0774148 0.00495421 0)
(0.0759967 0.00496334 0)
(0.0745763 0.00497153 0)
(0.0731537 0.00497882 0)
(0.0717292 0.00498525 0)
(0.070303 0.00499087 0)
(0.0688754 0.00499571 0)
(0.0674465 0.00499982 0)
(0.0660166 0.00500324 0)
(0.0645859 0.00500601 0)
(0.0631546 0.00500817 0)
(0.0617227 0.00500975 0)
(0.0602905 0.00501079 0)
(0.0588582 0.00501133 0)
(0.0574258 0.0050114 0)
(0.0559935 0.00501104 0)
(0.0545613 0.00501028 0)
(0.0531295 0.00500915 0)
(0.0516981 0.00500769 0)
(0.0502673 0.00500592 0)
(0.0488369 0.00500387 0)
(0.0474073 0.00500158 0)
(0.0459784 0.00499907 0)
(0.0445502 0.00499636 0)
(0.0431229 0.00499348 0)
(0.0416964 0.00499047 0)
(0.0402709 0.00498733 0)
(0.0388463 0.0049841 0)
(0.0374226 0.0049808 0)
(0.036 0.00497744 0)
(0.0345783 0.00497405 0)
(0.0331576 0.00497065 0)
(0.0317379 0.00496726 0)
(0.0303192 0.00496389 0)
(0.0289015 0.00496056 0)
(0.0274847 0.00495729 0)
(0.0260689 0.00495408 0)
(0.024654 0.00495097 0)
(0.02324 0.00494796 0)
(0.0218269 0.00494506 0)
(0.0204146 0.00494228 0)
(0.0190031 0.00493964 0)
(0.0175923 0.00493714 0)
(0.0161822 0.0049348 0)
(0.0147728 0.00493263 0)
(0.013364 0.00493063 0)
(0.0119557 0.0049288 0)
(0.0105479 0.00492717 0)
(0.00914063 0.00492572 0)
(0.00773371 0.00492447 0)
(0.00632713 0.00492343 0)
(0.00492081 0.00492259 0)
(0.00351471 0.00492195 0)
(0.00210877 0.00492153 0)
(0.00070292 0.00492132 0)
(0.000650272 -0.00585446 0)
(0.00195086 -0.00585473 0)
(0.00325155 -0.00585527 0)
(0.00455238 -0.00585609 0)
(0.00585343 -0.00585718 0)
(0.00715476 -0.00585854 0)
(0.00845642 -0.00586017 0)
(0.00975848 -0.00586206 0)
(0.011061 -0.00586421 0)
(0.012364 -0.00586661 0)
(0.0136676 -0.00586926 0)
(0.0149718 -0.00587216 0)
(0.0162767 -0.0058753 0)
(0.0175824 -0.00587866 0)
(0.0188888 -0.00588225 0)
(0.0201961 -0.00588605 0)
(0.0215042 -0.00589005 0)
(0.0228133 -0.00589425 0)
(0.0241233 -0.00589864 0)
(0.0254344 -0.0059032 0)
(0.0267465 -0.00590793 0)
(0.0280597 -0.0059128 0)
(0.029374 -0.00591781 0)
(0.0306894 -0.00592295 0)
(0.0320061 -0.0059282 0)
(0.0333239 -0.00593354 0)
(0.034643 -0.00593895 0)
(0.0359633 -0.00594443 0)
(0.0372848 -0.00594995 0)
(0.0386076 -0.0059555 0)
(0.0399317 -0.00596105 0)
(0.041257 -0.00596658 0)
(0.0425836 -0.00597208 0)
(0.0439115 -0.00597752 0)
(0.0452406 -0.00598287 0)
(0.0465709 -0.00598812 0)
(0.0479024 -0.00599324 0)
(0.049235 -0.0059982 0)
(0.0505688 -0.00600297 0)
(0.0519037 -0.00600754 0)
(0.0532396 -0.00601185 0)
(0.0545765 -0.0060159 0)
(0.0559143 -0.00601964 0)
(0.0572529 -0.00602304 0)
(0.0585923 -0.00602607 0)
(0.0599324 -0.00602869 0)
(0.0612731 -0.00603087 0)
(0.0626143 -0.00603257 0)
(0.0639558 -0.00603375 0)
(0.0652977 -0.00603437 0)
(0.0666396 -0.0060344 0)
(0.0679816 -0.00603378 0)
(0.0693234 -0.00603248 0)
(0.070665 -0.00603044 0)
(0.072006 -0.00602763 0)
(0.0733464 -0.006024 0)
(0.074686 -0.0060195 0)
(0.0760246 -0.00601408 0)
(0.077362 -0.00600769 0)
(0.0786978 -0.00600028 0)
(0.0800321 -0.0059918 0)
(0.0813643 -0.00598219 0)
(0.0826944 -0.00597139 0)
(0.0840221 -0.00595936 0)
(0.085347 -0.00594604 0)
(0.0866689 -0.00593136 0)
(0.0879875 -0.00591528 0)
(0.0893025 -0.00589772 0)
(0.0906134 -0.00587865 0)
(0.0919201 -0.00585798 0)
(0.093222 -0.00583567 0)
(0.0945189 -0.00581165 0)
(0.0958104 -0.00578587 0)
(0.0970961 -0.00575826 0)
(0.0983755 -0.00572875 0)
(0.0996482 -0.0056973 0)
(0.100914 -0.00566384 0)
(0.102172 -0.0056283 0)
(0.103422 -0.00559063 0)
(0.104663 -0.00555078 0)
(0.105896 -0.00550868 0)
(0.107119 -0.00546427 0)
(0.108332 -0.0054175 0)
(0.109534 -0.00536832 0)
(0.110725 -0.00531667 0)
(0.111905 -0.00526251 0)
(0.113072 -0.00520577 0)
(0.114226 -0.00514642 0)
(0.115367 -0.00508441 0)
(0.116494 -0.0050197 0)
(0.117607 -0.00495225 0)
(0.118704 -0.00488203 0)
(0.119785 -0.00480899 0)
(0.12085 -0.00473311 0)
(0.121897 -0.00465437 0)
(0.122927 -0.00457273 0)
(0.123939 -0.0044882 0)
(0.124931 -0.00440074 0)
(0.125904 -0.00431035 0)
(0.126856 -0.00421703 0)
(0.127787 -0.00412077 0)
(0.128696 -0.00402158 0)
(0.129583 -0.00391947 0)
(0.130447 -0.00381446 0)
(0.131287 -0.00370657 0)
(0.132103 -0.00359581 0)
(0.132894 -0.00348224 0)
(0.133659 -0.00336587 0)
(0.134399 -0.00324676 0)
(0.135111 -0.00312496 0)
(0.135795 -0.00300052 0)
(0.136452 -0.00287351 0)
(0.13708 -0.00274398 0)
(0.137679 -0.00261202 0)
(0.138248 -0.0024777 0)
(0.138787 -0.00234111 0)
(0.139296 -0.00220234 0)
(0.139773 -0.00206149 0)
(0.140218 -0.00191865 0)
(0.140631 -0.00177394 0)
(0.141012 -0.00162746 0)
(0.14136 -0.00147934 0)
(0.141674 -0.00132969 0)
(0.141955 -0.00117864 0)
(0.142202 -0.00102632 0)
(0.142415 -0.000872859 0)
(0.142593 -0.000718397 0)
(0.142736 -0.000563072 0)