/*--------------------------------*- C++ -*----------------------------------*\
| =========                 |                                                 |
| \\      /  F ield         | OpenFOAM: The Open Source CFD Toolbox           |
|  \\    /   O peration     | Version:  v2012                                 |
|   \\  /    A nd           | Website:  www.openfoam.com                      |
|    \\/     M anipulation  |                                                 |
\*---------------------------------------------------------------------------*/
FoamFile
{
    version     2.0;
    format      ascii;
    class       volVectorField;
    location    "0";
    object      uRec;
}
// * * * * * * * * * * * * * * * * * * * * * * * * * * * * * * * * * * * * * //

dimensions      [0 1 -1 0 0 0 0];


internalField   nonuniform List<vector> 
4000
(
(1 1.18764e-15 0)
(1 -6.38234e-17 0)
(1 -9.98733e-16 0)
(1 1.34936e-16 0)
(1 1.98473e-17 0)
(1 6.30727e-16 0)
(1 1.03047e-15 0)
(1 -1.18152e-16 0)
(1 2.43058e-15 0)
(1 -1.1363e-15 0)
(1 -1.98595e-15 0)
(1 2.50624e-16 0)
(1 1.13682e-15 0)
(1 7.91873e-16 0)
(1 -1.93682e-16 0)
(1 8.73248e-16 0)
(1 1.43248e-16 0)
(1 -4.78816e-16 0)
(1 1.36547e-15 0)
(1 9.32436e-16 0)
(1 3.27754e-16 0)
(1 -2.98317e-16 0)
(1 -1.37601e-15 0)
(1 1.4538e-16 0)
(1 -8.64693e-16 0)
(1 -2.60206e-16 0)
(1 1.3941e-16 0)
(1 -3.83809e-16 0)
(1 4.05084e-16 0)
(1 4.39612e-16 0)
(1 1.66697e-15 0)
(1 1.29017e-15 0)
(1 -3.66008e-16 0)
(1 -2.96196e-16 0)
(1 -6.13494e-17 0)
(1 -2.92584e-16 0)
(1 -2.09305e-16 0)
(1 1.43765e-15 0)
(1 9.16939e-18 0)
(1 -1.04028e-15 0)
(1 -3.6796e-17 0)
(1 -8.19841e-16 0)
(1 -3.36266e-16 0)
(1 1.80791e-15 0)
(1 6.34646e-16 0)
(1 -5.9152e-16 0)
(1 1.6705e-16 0)
(1 1.86562e-16 0)
(1 5.37583e-16 0)
(1 -1.50881e-16 0)
(1 6.33148e-16 0)
(1 6.45487e-16 0)
(1 1.19365e-15 0)
(1 1.76795e-15 0)
(1 1.54312e-15 0)
(1 1.42743e-15 0)
(1 3.55026e-16 0)
(1 1.1164e-17 0)
(1 -4.67564e-16 0)
(1 -1.854e-16 0)
(1 -7.92806e-16 0)
(1 -3.23585e-16 0)
(1 -5.57459e-17 0)
(1 5.48721e-16 0)
(1 2.23011e-17 0)
(1 3.25052e-16 0)
(1 -4.34156e-16 0)
(1 1.45565e-16 0)
(1 1.13067e-16 0)
(1 -4.27554e-16 0)
(1 -4.2491e-16 0)
(1 3.68442e-16 0)
(1 -3.30752e-16 0)
(1 -4.73938e-16 0)
(1 -1.13728e-15 0)
(1 -9.20919e-16 0)
(1 -2.73123e-16 0)
(1 1.00451e-16 0)
(1 2.19146e-16 0)
(1 6.2234e-16 0)
(1 2.83506e-16 0)
(1 5.46665e-16 0)
(1 -3.44186e-16 0)
(1 -1.52031e-16 0)
(1 -1.03557e-15 0)
(1 -6.01599e-16 0)
(1 1.23344e-15 0)
(1 1.15373e-15 0)
(1 1.20712e-16 0)
(1 1.25106e-15 0)
(1 2.62963e-16 0)
(1 3.77932e-16 0)
(1 4.59612e-16 0)
(1 6.13282e-16 0)
(1 -2.0563e-16 0)
(1 1.30436e-16 0)
(1 4.95656e-16 0)
(1 2.58692e-17 0)
(1 -5.74552e-16 0)
(1 -5.80943e-16 0)
(1 1.0949e-15 0)
(1 5.32836e-16 0)
(1 -6.28385e-16 0)
(1 3.9357e-16 0)
(1 -2.76449e-16 0)
(1 8.42616e-16 0)
(1 1.45261e-15 0)
(1 1.45218e-16 0)
(1 2.72317e-15 0)
(1 5.38732e-16 0)
(1 -5.1472e-16 0)
(1 -3.51545e-16 0)
(1 9.17513e-16 0)
(1 1.2694e-16 0)
(1 -3.215e-16 0)
(1 2.31548e-15 0)
(1 9.82602e-16 0)
(1 -1.53822e-16 0)
(1 1.28868e-15 0)
(1 6.56785e-16 0)
(1 1.33511e-15 0)
(1 -1.13406e-16 0)
(1 -1.10213e-15 0)
(1 4.80032e-17 0)
(1 -8.2734e-16 0)
(1 1.94119e-16 0)
(1 7.08391e-16 0)
(1 -1.16745e-15 0)
(1 6.20862e-16 0)
(1 4.30511e-16 0)
(1 8.2611e-16 0)
(1 1.13341e-15 0)
(1 -1.13411e-15 0)
(1 4.75429e-16 0)
(1 1.18301e-15 0)
(1 3.76475e-16 0)
(1 7.17779e-16 0)
(1 2.11107e-15 0)
(1 -1.37014e-15 0)
(1 -1.77293e-15 0)
(1 -1.36978e-15 0)
(1 -8.0837e-16 0)
(1 2.67082e-16 0)
(1 2.2591e-15 0)
(1 1.18442e-15 0)
(1 2.49727e-16 0)
(1 1.20153e-15 0)
(1 1.6782e-15 0)
(1 1.88583e-15 0)
(1 1.47401e-15 0)
(1 1.24624e-15 0)
(1 3.4504e-16 0)
(1 7.21749e-16 0)
(1 1.15665e-15 0)
(1 1.54487e-15 0)
(1 8.10134e-16 0)
(1 1.04376e-15 0)
(1 1.17162e-15 0)
(1 7.1806e-16 0)
(1 -2.50097e-16 0)
(1 1.23488e-15 0)
(1 7.9853e-16 0)
(1 4.79885e-16 0)
(1 8.66918e-16 0)
(1 1.70464e-16 0)
(1 7.08569e-16 0)
(1 -1.02818e-15 0)
(1 -3.19963e-16 0)
(1 5.39485e-16 0)
(1 -3.62445e-16 0)
(1 -3.15773e-16 0)
(1 3.70088e-16 0)
(1 1.25729e-15 0)
(1 4.5025e-16 0)
(1 2.92532e-16 0)
(1 -3.25519e-16 0)
(1 4.0601e-16 0)
(1 9.49529e-16 0)
(1 5.02832e-16 0)
(1 2.09707e-15 0)
(1 1.26902e-15 0)
(1 4.37744e-16 0)
(1 2.30771e-16 0)
(1 -3.22357e-16 0)
(1 -1.05082e-15 0)
(1 -6.68684e-16 0)
(1 3.00646e-16 0)
(1 1.59677e-15 0)
(1 1.70683e-16 0)
(1 1.53912e-15 0)
(1 3.86552e-16 0)
(1 1.36275e-16 0)
(1 7.00635e-16 0)
(1 1.14669e-15 0)
(1 -8.45845e-16 0)
(1 7.02725e-16 0)
(1 7.78878e-16 0)
(1 -6.97663e-16 0)
(1 -8.54762e-16 0)
(1 -9.59326e-16 0)
(1 -6.52368e-16 0)
(1 1.94517e-15 0)
(1 -1.30575e-15 0)
(1 9.42962e-16 0)
(1 -3.12423e-16 0)
(1 8.35995e-16 0)
(1 1.53167e-15 0)
(1 2.92903e-15 0)
(1 3.67011e-16 0)
(1 7.35207e-16 0)
(1 1.08658e-15 0)
(1 1.66933e-15 0)
(1 1.24078e-15 0)
(1 1.48797e-15 0)
(1 9.1569e-16 0)
(1 1.54175e-15 0)
(1 1.08242e-15 0)
(1 2.32733e-15 0)
(1 -1.78417e-16 0)
(1 6.70447e-16 0)
(1 9.68436e-16 0)
(1 -4.99135e-16 0)
(1 -3.87868e-18 0)
(1 -3.06753e-16 0)
(1 2.1876e-15 0)
(1 1.13367e-15 0)
(1 2.07945e-15 0)
(1 -7.25154e-16 0)
(1 7.77e-16 0)
(1 7.08943e-16 0)
(1 -1.33614e-16 0)
(1 -3.5965e-16 0)
(1 -1.08898e-16 0)
(1 7.86516e-16 0)
(1 6.01908e-16 0)
(1 1.7021e-15 0)
(1 8.05401e-16 0)
(1 2.65397e-15 0)
(1 1.19034e-15 0)
(1 -1.57823e-15 0)
(1 -6.21039e-16 0)
(1 -5.68679e-16 0)
(1 4.12331e-16 0)
(1 4.08711e-16 0)
(1 1.16921e-15 0)
(1 7.07882e-16 0)
(1 2.56638e-15 0)
(1 3.12288e-15 0)
(1 2.10773e-15 0)
(1 1.78576e-15 0)
(1 2.87365e-15 0)
(1 1.41093e-15 0)
(1 1.73233e-15 0)
(1 7.14603e-16 0)
(1 1.7425e-15 0)
(1 1.92514e-15 0)
(1 2.36892e-15 0)
(1 2.6295e-15 0)
(1 2.93558e-15 0)
(1 7.65363e-16 0)
(1 3.69888e-16 0)
(1 7.96965e-16 0)
(1 4.37131e-16 0)
(1 7.62763e-17 0)
(1 3.24327e-16 0)
(1 4.3008e-16 0)
(1 -1.55281e-16 0)
(1 2.49712e-16 0)
(1 1.33374e-15 0)
(1 2.59914e-16 0)
(1 4.74295e-16 0)
(1 -7.1356e-16 0)
(1 -5.23952e-16 0)
(1 -4.35402e-16 0)
(1 7.72196e-16 0)
(1 -2.65719e-16 0)
(1 7.69939e-16 0)
(1 -1.73485e-16 0)
(1 9.22577e-16 0)
(1 2.82798e-16 0)
(1 9.09931e-16 0)
(1 7.11321e-16 0)
(1 6.56402e-16 0)
(1 2.83065e-16 0)
(1 -7.705e-17 0)
(1 6.70222e-16 0)
(1 -1.28118e-16 0)
(1 1.67018e-15 0)
(1 5.35331e-16 0)
(1 1.51051e-15 0)
(1 3.03775e-16 0)
(1 7.42867e-16 0)
(1 1.66357e-16 0)
(1 1.14289e-15 0)
(1 -1.28784e-16 0)
(1 1.24792e-15 0)
(1 6.6905e-16 0)
(1 -1.11461e-15 0)
(1 -2.57189e-16 0)
(1 -7.81905e-16 0)
(1 1.23292e-16 0)
(1 3.72504e-16 0)
(1 -8.67549e-16 0)
(1 -1.1473e-15 0)
(1 2.32126e-15 0)
(1 1.42037e-15 0)
(1 3.2074e-15 0)
(1 2.95501e-15 0)
(1 1.23165e-15 0)
(1 2.1357e-16 0)
(1 -1.03318e-17 0)
(1 2.1306e-15 0)
(1 1.94882e-16 0)
(1 3.17703e-15 0)
(1 3.35178e-15 0)
(1 5.11277e-16 0)
(1 1.98852e-15 0)
(1 2.05893e-15 0)
(1 4.06774e-16 0)
(1 2.38189e-15 0)
(1 2.37775e-16 0)
(1 1.10685e-15 0)
(1 3.41547e-16 0)
(1 9.62095e-16 0)
(1 3.51306e-15 0)
(1 1.24402e-15 0)
(1 2.28432e-15 0)
(1 -1.35611e-16 0)
(1 1.96322e-15 0)
(1 7.35514e-16 0)
(1 1.09657e-15 0)
(1 1.26928e-16 0)
(1 7.51597e-17 0)
(1 -7.89504e-16 0)
(1 -9.74234e-16 0)
(1 8.89617e-17 0)
(1 1.89544e-16 0)
(1 5.45123e-16 0)
(1 2.53418e-15 0)
(1 2.68216e-16 0)
(1 2.02013e-15 0)
(1 5.30656e-16 0)
(1 1.62801e-16 0)
(1 1.25181e-15 0)
(1 2.03821e-15 0)
(1 2.22689e-15 0)
(1 2.3869e-15 0)
(1 3.24869e-15 0)
(1 2.65165e-15 0)
(1 2.06843e-15 0)
(1 3.39702e-15 0)
(1 2.70176e-15 0)
(1 2.63632e-15 0)
(1 2.14663e-15 0)
(1 2.80974e-15 0)
(1 3.21011e-15 0)
(1 3.45267e-15 0)
(1 2.91096e-15 0)
(1 2.89394e-15 0)
(1 2.56358e-15 0)
(1 1.40728e-15 0)
(1 -6.92234e-16 0)
(1 5.6624e-18 0)
(1 7.80583e-16 0)
(1 5.25536e-16 0)
(1 6.73741e-16 0)
(1 7.18688e-16 0)
(1 9.78702e-16 0)
(1 1.56663e-16 0)
(1 -3.6491e-16 0)
(1 -4.63994e-17 0)
(1 -1.5653e-15 0)
(1 -1.40278e-15 0)
(1 -1.07563e-15 0)
(1 6.85287e-17 0)
(1 1.67383e-15 0)
(1 2.05881e-15 0)
(1 6.89976e-16 0)
(1 2.31353e-15 0)
(1 3.22221e-16 0)
(1 -2.34055e-16 0)
(1 1.7975e-15 0)
(1 -4.20985e-17 0)
(1 7.72942e-16 0)
(1 5.95009e-16 0)
(1 3.6484e-16 0)
(1 2.22285e-15 0)
(1 1.11149e-15 0)
(1 1.77414e-15 0)
(1 1.58407e-15 0)
(1 6.27596e-16 0)
(1 1.8563e-15 0)
(1 9.79399e-16 0)
(1 1.44638e-15 0)
(1 5.83567e-16 0)
(1 2.99657e-16 0)
(1 1.9163e-16 0)
(1 3.61698e-16 0)
(1 -1.42312e-15 0)
(1 -1.59039e-15 0)
(1 1.11527e-15 0)
(1 -4.90492e-16 0)
(1 1.83127e-15 0)
(1 1.23e-17 0)
(1 2.75255e-15 0)
(1 1.79417e-15 0)
(1 1.2283e-15 0)
(1 1.90465e-16 0)
(1 1.87465e-15 0)
(1 1.76385e-15 0)
(1 2.11192e-15 0)
(1 3.03931e-15 0)
(1 1.57014e-15 0)
(1 1.74246e-15 0)
(1 2.59523e-15 0)
(1 2.07517e-15 0)
(1 3.2197e-15 0)
(1 8.65471e-16 0)
(1 5.21039e-16 0)
(1 6.71878e-17 0)
(1 1.13699e-15 0)
(1 2.89056e-15 0)
(1 2.40841e-15 0)
(1 1.87406e-15 0)
(1 7.71414e-18 0)
(1 4.15047e-16 0)
(1 6.09526e-17 0)
(1 1.27018e-15 0)
(1 1.47885e-15 0)
(1 5.62317e-16 0)
(1 7.75432e-17 0)
(1 1.1533e-15 0)
(1 -5.93966e-16 0)
(1 2.22134e-15 0)
(1 -3.75842e-17 0)
(1 -6.4141e-16 0)
(1 9.58435e-16 0)
(1 -7.24832e-16 0)
(1 1.6275e-15 0)
(1 2.04606e-15 0)
(1 2.0841e-15 0)
(1 3.88771e-16 0)
(1 -6.14494e-16 0)
(1 3.96564e-16 0)
(1 9.35847e-16 0)
(1 3.74928e-15 0)
(1 2.58636e-15 0)
(1 4.39752e-15 0)
(1 4.03189e-15 0)
(1 3.97339e-15 0)
(1 2.33521e-15 0)
(1 2.35157e-15 0)
(1 2.17061e-15 0)
(1 3.01337e-15 0)
(1 3.16751e-15 0)
(1 2.26102e-15 0)
(1 3.21618e-15 0)
(1 2.67536e-15 0)
(1 2.67706e-15 0)
(1 3.46495e-15 0)
(1 4.07035e-15 0)
(1 7.85126e-16 0)
(1 1.52821e-15 0)
(1 8.87985e-16 0)
(1 1.78422e-15 0)
(1 2.24623e-15 0)
(1 2.53507e-15 0)
(1 1.42631e-15 0)
(1 -5.848e-16 0)
(1 6.89296e-16 0)
(1 -9.00898e-16 0)
(1 -5.16245e-16 0)
(1 1.08403e-15 0)
(1 9.85781e-17 0)
(1 4.31427e-16 0)
(1 1.23127e-15 0)
(1 1.45604e-15 0)
(1 1.37357e-15 0)
(1 1.21315e-15 0)
(1 1.63788e-15 0)
(1 2.8493e-16 0)
(1 5.40033e-16 0)
(1 -3.78713e-18 0)
(1 4.18329e-16 0)
(1 1.8981e-15 0)
(1 1.40092e-15 0)
(1 2.1019e-15 0)
(1 1.08263e-15 0)
(1 2.03271e-15 0)
(1 8.14789e-16 0)
(1 1.81195e-15 0)
(1 1.53056e-15 0)
(1 2.23836e-15 0)
(1 1.62778e-15 0)
(1 2.10319e-15 0)
(1 4.07263e-16 0)
(1 -4.89674e-16 0)
(1 6.42095e-16 0)
(1 -6.7786e-16 0)
(1 -1.76941e-16 0)
(1 1.30779e-16 0)
(1 2.84212e-16 0)
(1 2.92786e-15 0)
(1 2.40417e-15 0)
(1 1.20098e-15 0)
(1 1.19458e-15 0)
(1 -4.40165e-16 0)
(1 1.49877e-15 0)
(1 1.2331e-15 0)
(1 2.15968e-15 0)
(1 2.90574e-15 0)
(1 3.74575e-15 0)
(1 3.12682e-15 0)
(1 1.62758e-15 0)
(1 2.081e-15 0)
(1 2.88156e-15 0)
(1 1.92751e-15 0)
(1 1.71861e-15 0)
(1 8.79164e-16 0)
(1 -7.99242e-16 0)
(1 1.67706e-15 0)
(1 2.53677e-15 0)
(1 5.08251e-15 0)
(1 2.79009e-15 0)
(1 1.72635e-15 0)
(1 8.46664e-16 0)
(1 -1.9392e-16 0)
(1 2.05598e-15 0)
(1 -1.64237e-15 0)
(1 6.81055e-16 0)
(1 -1.05535e-15 0)
(1 1.42618e-15 0)
(1 -1.30426e-17 0)
(1 2.87229e-15 0)
(1 7.41872e-16 0)
(1 1.04691e-15 0)
(1 2.54557e-15 0)
(1 1.78898e-15 0)
(1 5.38544e-16 0)
(1 7.11837e-16 0)
(1 8.77676e-16 0)
(1 1.5276e-15 0)
(1 1.02999e-15 0)
(1 7.01304e-16 0)
(1 3.0208e-15 0)
(1 3.32128e-15 0)
(1 3.65842e-15 0)
(1 3.91787e-15 0)
(1 4.08391e-15 0)
(1 3.58105e-15 0)
(1 2.50353e-15 0)
(1 3.26975e-15 0)
(1 3.59185e-15 0)
(1 3.55978e-15 0)
(1 2.99801e-15 0)
(1 3.72548e-15 0)
(1 3.99204e-15 0)
(1 3.97187e-15 0)
(1 4.32059e-15 0)
(1 4.84336e-15 0)
(1 2.1782e-15 0)
(1 1.98277e-15 0)
(1 9.21022e-16 0)
(1 6.48898e-16 0)
(1 2.2468e-15 0)
(1 2.81065e-15 0)
(1 3.06545e-15 0)
(1 1.83094e-15 0)
(1 1.71729e-15 0)
(1 1.48544e-15 0)
(1 1.64626e-15 0)
(1 1.42242e-15 0)
(1 1.36855e-15 0)
(1 4.14949e-16 0)
(1 4.23529e-16 0)
(1 4.10862e-16 0)
(1 1.01436e-15 0)
(1 1.1165e-15 0)
(1 -5.90331e-16 0)
(1 1.4672e-15 0)
(1 1.87347e-15 0)
(1 1.82067e-15 0)
(1 1.58091e-15 0)
(1 1.6288e-15 0)
(1 4.25807e-16 0)
(1 4.98794e-16 0)
(1 -3.30614e-17 0)
(1 9.92836e-17 0)
(1 7.40379e-16 0)
(1 1.14695e-15 0)
(1 2.11715e-15 0)
(1 1.95997e-15 0)
(1 2.43466e-15 0)
(1 2.21016e-15 0)
(1 3.22516e-15 0)
(1 1.90108e-15 0)
(1 8.5567e-16 0)
(1 -1.71278e-16 0)
(1 1.55748e-15 0)
(1 1.64679e-15 0)
(1 7.71757e-17 0)
(1 3.59535e-16 0)
(1 2.84319e-15 0)
(1 1.28362e-15 0)
(1 1.55407e-15 0)
(1 1.04574e-15 0)
(1 2.84831e-15 0)
(1 4.86231e-15 0)
(1 1.93076e-15 0)
(1 3.24838e-15 0)
(1 1.51741e-15 0)
(1 2.05168e-15 0)
(1 1.43038e-15 0)
(1 3.08235e-15 0)
(1 2.06514e-15 0)
(1 3.18198e-15 0)
(1 1.65478e-15 0)
(1 1.8075e-15 0)
(1 1.32638e-15 0)
(1 3.16309e-15 0)
(1 1.87772e-15 0)
(1 1.32554e-15 0)
(1 2.16281e-15 0)
(1 -1.23734e-15 0)
(1 2.4572e-15 0)
(1 2.16716e-16 0)
(1 1.26714e-15 0)
(1 1.10874e-15 0)
(1 5.18074e-16 0)
(1 1.03725e-15 0)
(1 1.59683e-15 0)
(1 1.32862e-15 0)
(1 1.67962e-15 0)
(1 -4.48456e-16 0)
(1 3.31545e-16 0)
(1 1.82474e-15 0)
(1 2.82051e-16 0)
(1 2.11895e-15 0)
(1 -6.95327e-17 0)
(1 3.29947e-15 0)
(1 1.64806e-15 0)
(1 2.79022e-15 0)
(1 2.54305e-15 0)
(1 1.96178e-15 0)
(1 3.39806e-15 0)
(1 3.40751e-15 0)
(1 4.19951e-15 0)
(1 2.11566e-15 0)
(1 4.45487e-15 0)
(1 3.1787e-15 0)
(1 3.16055e-15 0)
(1 3.59253e-15 0)
(1 3.72931e-15 0)
(1 3.72629e-15 0)
(1 3.02982e-15 0)
(1 3.73116e-15 0)
(1 4.99382e-15 0)
(1 4.92542e-15 0)
(1 4.52043e-15 0)
(1 4.27396e-15 0)
(1 2.82837e-15 0)
(1 3.65924e-15 0)
(1 2.08765e-15 0)
(1 2.27032e-15 0)
(1 1.47944e-15 0)
(1 1.10092e-15 0)
(1 1.08844e-15 0)
(1 2.28079e-15 0)
(1 1.94796e-15 0)
(1 8.18434e-16 0)
(1 2.73229e-15 0)
(1 1.63973e-15 0)
(1 5.29388e-16 0)
(1 2.70005e-16 0)
(1 3.81227e-16 0)
(1 2.75919e-15 0)
(1 1.32532e-15 0)
(1 3.09989e-15 0)
(1 1.03205e-15 0)
(1 1.00568e-15 0)
(1 1.73433e-15 0)
(1 2.00528e-15 0)
(1 2.13275e-15 0)
(1 1.69864e-15 0)
(1 1.24759e-15 0)
(1 2.25049e-15 0)
(1 1.5654e-15 0)
(1 2.13481e-15 0)
(1 1.40455e-15 0)
(1 1.92123e-15 0)
(1 2.21029e-15 0)
(1 2.49119e-15 0)
(1 3.16654e-15 0)
(1 2.57586e-15 0)
(1 1.787e-15 0)
(1 2.70406e-15 0)
(1 2.24297e-15 0)
(1 1.42421e-15 0)
(1 1.64255e-15 0)
(1 1.14217e-15 0)
(1 6.26677e-17 0)
(1 7.37054e-16 0)
(1 -6.82619e-16 0)
(1 1.81037e-15 0)
(1 2.42658e-15 0)
(1 2.76105e-15 0)
(1 3.10602e-15 0)
(1 3.6295e-15 0)
(1 4.47987e-15 0)
(1 4.13808e-15 0)
(1 2.57531e-15 0)
(1 8.07905e-16 0)
(1 2.21506e-15 0)
(1 2.88922e-15 0)
(1 2.9457e-15 0)
(1 4.04519e-15 0)
(1 2.9153e-15 0)
(1 3.88542e-15 0)
(1 1.32988e-15 0)
(1 3.58347e-15 0)
(1 2.02584e-15 0)
(1 3.43912e-16 0)
(1 9.32564e-16 0)
(1 -1.63063e-15 0)
(1 -2.67226e-15 0)
(1 -1.88642e-15 0)
(1 1.991e-16 0)
(1 7.04941e-16 0)
(1 3.62326e-15 0)
(1 3.45776e-15 0)
(1 3.66989e-15 0)
(1 1.09284e-15 0)
(1 1.44396e-15 0)
(1 -1.34874e-15 0)
(1 -1.13049e-15 0)
(1 6.63619e-16 0)
(1 -2.72688e-16 0)
(1 2.62093e-15 0)
(1 4.40935e-15 0)
(1 4.62345e-15 0)
(1 1.3196e-15 0)
(1 1.06797e-15 0)
(1 1.25451e-15 0)
(1 7.20068e-16 0)
(1 1.7556e-15 0)
(1 4.36023e-15 0)
(1 5.19788e-15 0)
(1 3.80385e-15 0)
(1 3.58003e-15 0)
(1 3.87637e-15 0)
(1 4.55076e-15 0)
(1 3.66807e-15 0)
(1 3.69628e-15 0)
(1 5.66205e-15 0)
(1 5.75107e-15 0)
(1 5.83734e-15 0)
(1 4.35843e-15 0)
(1 4.93733e-15 0)
(1 3.14666e-15 0)
(1 2.13361e-15 0)
(1 2.21587e-15 0)
(1 4.30943e-15 0)
(1 4.99224e-15 0)
(1 4.49063e-15 0)
(1 2.70127e-15 0)
(1 1.77035e-15 0)
(1 2.25901e-15 0)
(1 2.27062e-15 0)
(1 1.98069e-15 0)
(1 1.61174e-15 0)
(1 1.83821e-15 0)
(1 1.51168e-15 0)
(1 1.72044e-15 0)
(1 6.59888e-16 0)
(1 1.59638e-15 0)
(1 2.35391e-15 0)
(1 1.0826e-15 0)
(1 1.54102e-15 0)
(1 8.04614e-16 0)
(1 4.43675e-16 0)
(1 1.8315e-15 0)
(1 1.11129e-15 0)
(1 2.09499e-15 0)
(1 1.17956e-15 0)
(1 1.54802e-15 0)
(1 2.52364e-15 0)
(1 2.47923e-15 0)
(1 2.1348e-15 0)
(1 2.16107e-15 0)
(1 1.25627e-15 0)
(1 2.35446e-15 0)
(1 2.43797e-15 0)
(1 3.81438e-15 0)
(1 3.09736e-15 0)
(1 2.10789e-15 0)
(1 2.44359e-15 0)
(1 1.28675e-15 0)
(1 1.94725e-15 0)
(1 2.17914e-15 0)
(1 2.61501e-15 0)
(1 6.20103e-17 0)
(1 -2.85876e-16 0)
(1 -1.83595e-16 0)
(1 1.78022e-15 0)
(1 1.6026e-15 0)
(1 4.37105e-15 0)
(1 2.3132e-15 0)
(1 2.90831e-15 0)
(1 4.171e-15 0)
(1 1.59869e-15 0)
(1 2.85633e-15 0)
(1 1.10878e-15 0)
(1 2.59374e-15 0)
(1 3.44161e-15 0)
(1 3.0947e-15 0)
(1 3.69095e-15 0)
(1 1.98988e-15 0)
(1 4.1602e-15 0)
(1 3.45661e-15 0)
(1 1.48288e-15 0)
(1 5.68781e-16 0)
(1 2.24614e-16 0)
(1 1.93788e-15 0)
(1 3.27505e-15 0)
(1 2.88213e-16 0)
(1 -4.75831e-16 0)
(1 1.84225e-16 0)
(1 8.13505e-16 0)
(1 2.01299e-15 0)
(1 2.03441e-15 0)
(1 1.09492e-15 0)
(1 -1.04792e-15 0)
(1 -5.55525e-16 0)
(1 -4.78839e-16 0)
(1 -5.05116e-16 0)
(1 1.02453e-15 0)
(1 1.7138e-15 0)
(1 2.83972e-15 0)
(1 2.97167e-15 0)
(1 2.20432e-15 0)
(1 4.57792e-16 0)
(1 1.85341e-15 0)
(1 2.2829e-15 0)
(1 3.1778e-15 0)
(1 4.69026e-15 0)
(1 3.26382e-15 0)
(1 4.84634e-15 0)
(1 3.57041e-15 0)
(1 1.99729e-15 0)
(1 4.22555e-15 0)
(1 4.5039e-15 0)
(1 5.98888e-15 0)
(1 4.53097e-15 0)
(1 6.24381e-15 0)
(1 6.45101e-15 0)
(1 6.14032e-15 0)
(1 5.23255e-15 0)
(1 3.37802e-15 0)
(1 4.96336e-15 0)
(1 3.629e-15 0)
(1 4.40477e-15 0)
(1 2.86751e-15 0)
(1 3.77863e-15 0)
(1 4.41027e-15 0)
(1 4.46038e-16 0)
(1 2.98534e-15 0)
(1 2.02476e-15 0)
(1 2.82044e-15 0)
(1 5.11289e-15 0)
(1 3.76259e-15 0)
(1 3.82874e-15 0)
(1 2.29297e-15 0)
(1 2.74707e-15 0)
(1 1.41417e-15 0)
(1 1.97104e-15 0)
(1 1.79296e-15 0)
(1 1.24571e-15 0)
(1 1.67351e-15 0)
(1 3.10327e-15 0)
(1 2.90135e-15 0)
(1 2.43644e-15 0)
(1 2.12557e-15 0)
(1 1.55284e-15 0)
(1 1.0798e-15 0)
(1 -3.50207e-17 0)
(1 -2.8919e-17 0)
(1 6.69954e-16 0)
(1 8.95684e-16 0)
(1 2.12963e-15 0)
(1 1.86703e-15 0)
(1 1.72877e-15 0)
(1 2.9518e-15 0)
(1 3.154e-15 0)
(1 3.92583e-15 0)
(1 3.99492e-15 0)
(1 3.13402e-15 0)
(1 3.16092e-15 0)
(1 3.60421e-15 0)
(1 3.84405e-15 0)
(1 4.2395e-15 0)
(1 3.86559e-16 0)
(1 7.63051e-16 0)
(1 2.94175e-15 0)
(1 9.96351e-16 0)
(1 1.72019e-15 0)
(1 5.48963e-16 0)
(1 3.29936e-15 0)
(1 3.35581e-15 0)
(1 3.43772e-15 0)
(1 1.54248e-15 0)
(1 2.64576e-15 0)
(1 4.40073e-15 0)
(1 3.28704e-15 0)
(1 4.51201e-15 0)
(1 3.46895e-15 0)
(1 2.14822e-15 0)
(1 1.55894e-15 0)
(1 2.43534e-15 0)
(1 3.03425e-15 0)
(1 2.66504e-15 0)
(1 1.06396e-15 0)
(1 -3.82229e-16 0)
(1 -2.36205e-15 0)
(1 1.74116e-15 0)
(1 1.93564e-15 0)
(1 2.09706e-15 0)
(1 5.07975e-16 0)
(1 2.52054e-15 0)
(1 1.58454e-15 0)
(1 6.58451e-16 0)
(1 -2.58601e-16 0)
(1 2.21715e-16 0)
(1 1.07116e-16 0)
(1 8.6316e-16 0)
(1 1.24035e-15 0)
(1 4.78614e-16 0)
(1 3.61662e-16 0)
(1 1.75413e-15 0)
(1 1.92148e-16 0)
(1 2.97427e-16 0)
(1 2.57567e-15 0)
(1 3.46509e-15 0)
(1 4.06349e-15 0)
(1 4.06429e-15 0)
(1 4.19224e-15 0)
(1 1.7748e-15 0)
(1 2.51645e-15 0)
(1 3.48061e-15 0)
(1 3.29871e-15 0)
(1 5.07158e-15 0)
(1 3.54544e-15 0)
(1 4.19469e-15 0)
(1 6.09611e-15 0)
(1 5.53932e-15 0)
(1 7.0049e-15 0)
(1 6.61781e-15 0)
(1 5.35519e-15 0)
(1 2.72002e-15 0)
(1 4.84935e-15 0)
(1 5.84834e-15 0)
(1 6.12962e-15 0)
(1 4.49598e-15 0)
(1 2.87515e-15 0)
(1 3.70127e-15 0)
(1 2.42925e-15 0)
(1 2.12737e-15 0)
(1 3.69839e-15 0)
(1 3.31021e-15 0)
(1 5.41611e-15 0)
(1 4.93323e-15 0)
(1 3.7336e-15 0)
(1 1.72756e-15 0)
(1 1.21485e-15 0)
(1 1.89711e-15 0)
(1 1.95155e-15 0)
(1 1.04766e-15 0)
(1 1.58745e-15 0)
(1 1.80518e-15 0)
(1 3.69848e-15 0)
(1 2.12036e-15 0)
(1 2.08864e-15 0)
(1 1.41584e-15 0)
(1 1.00706e-15 0)
(1 1.12176e-15 0)
(1 3.45889e-16 0)
(1 2.18849e-15 0)
(1 2.8216e-15 0)
(1 2.9203e-15 0)
(1 1.78521e-15 0)
(1 2.09166e-15 0)
(1 2.73632e-15 0)
(1 2.89753e-15 0)
(1 2.09773e-15 0)
(1 1.92738e-15 0)
(1 5.05169e-15 0)
(1 2.10613e-15 0)
(1 4.29574e-15 0)
(1 3.77274e-15 0)
(1 4.49947e-15 0)
(1 4.35191e-15 0)
(1 1.36246e-16 0)
(1 1.03608e-15 0)
(1 1.97233e-15 0)
(1 1.48326e-15 0)
(1 1.12479e-15 0)
(1 -4.28822e-16 0)
(1 3.6215e-15 0)
(1 7.69895e-16 0)
(1 3.62545e-15 0)
(1 4.71682e-15 0)
(1 3.43864e-15 0)
(1 2.86816e-15 0)
(1 2.47565e-15 0)
(1 2.771e-15 0)
(1 3.11087e-15 0)
(1 2.8006e-15 0)
(1 5.091e-15 0)
(1 3.46743e-15 0)
(1 2.80702e-15 0)
(1 1.84164e-15 0)
(1 -1.22898e-16 0)
(1 -9.53907e-16 0)
(1 -2.95106e-15 0)
(1 -6.55235e-16 0)
(1 -9.92815e-16 0)
(1 3.72071e-15 0)
(1 2.24831e-15 0)
(1 3.29101e-15 0)
(1 1.31171e-15 0)
(1 4.70419e-16 0)
(1 -9.32779e-16 0)
(1 2.49058e-16 0)
(1 1.12205e-16 0)
(1 8.69228e-16 0)
(1 5.9066e-16 0)
(1 -7.96041e-16 0)
(1 1.48911e-15 0)
(1 8.85045e-16 0)
(1 8.46187e-16 0)
(1 3.25242e-16 0)
(1 2.96302e-15 0)
(1 3.32724e-15 0)
(1 4.487e-15 0)
(1 3.28651e-15 0)
(1 3.28931e-15 0)
(1 3.31148e-15 0)
(1 2.91774e-15 0)
(1 3.81235e-15 0)
(1 4.90526e-15 0)
(1 3.6406e-15 0)
(1 5.17815e-15 0)
(1 5.23004e-15 0)
(1 7.01988e-15 0)
(1 6.57855e-15 0)
(1 6.6701e-15 0)
(1 5.26507e-15 0)
(1 4.75469e-15 0)
(1 4.06697e-15 0)
(1 4.53775e-15 0)
(1 3.89199e-15 0)
(1 5.4153e-15 0)
(1 5.10299e-15 0)
(1 3.66042e-15 0)
(1 3.88586e-15 0)
(1 4.96153e-15 0)
(1 2.47166e-15 0)
(1 3.66692e-15 0)
(1 2.88871e-15 0)
(1 4.99613e-16 0)
(1 2.8409e-15 0)
(1 2.72938e-15 0)
(1 4.29103e-15 0)
(1 2.68668e-15 0)
(1 1.38165e-15 0)
(1 8.0085e-16 0)
(1 4.12113e-16 0)
(1 4.28337e-15 0)
(1 2.03559e-15 0)
(1 1.59484e-15 0)
(1 3.93919e-15 0)
(1 3.86501e-15 0)
(1 2.69471e-15 0)
(1 2.93547e-15 0)
(1 1.03263e-15 0)
(1 8.45168e-16 0)
(1 1.12688e-15 0)
(1 1.787e-15 0)
(1 6.87866e-16 0)
(1 9.0914e-16 0)
(1 1.31567e-15 0)
(1 4.527e-15 0)
(1 2.2834e-15 0)
(1 2.70685e-15 0)
(1 1.96997e-15 0)
(1 3.70426e-15 0)
(1 2.97931e-15 0)
(1 3.25389e-15 0)
(1 2.93559e-15 0)
(1 3.29804e-15 0)
(1 3.15134e-15 0)
(1 4.47854e-16 0)
(1 7.76562e-16 0)
(1 9.14104e-16 0)
(1 2.02252e-15 0)
(1 6.95999e-16 0)
(1 3.89672e-15 0)
(1 1.48428e-15 0)
(1 2.09628e-15 0)
(1 1.61422e-15 0)
(1 3.57526e-15 0)
(1 4.12583e-15 0)
(1 2.86338e-15 0)
(1 3.96145e-15 0)
(1 3.16984e-15 0)
(1 3.93436e-15 0)
(1 1.69535e-15 0)
(1 2.71147e-15 0)
(1 4.58767e-16 0)
(1 3.685e-15 0)
(1 -5.23756e-16 0)
(1 -3.74365e-16 0)
(1 1.13746e-15 0)
(1 1.63165e-15 0)
(1 6.13674e-16 0)
(1 1.90716e-15 0)
(1 2.37178e-15 0)
(1 2.47363e-15 0)
(1 1.37879e-15 0)
(1 1.34545e-15 0)
(1 -4.68117e-16 0)
(1 8.26114e-17 0)
(1 -6.52374e-16 0)
(1 -1.5217e-15 0)
(1 -1.18975e-15 0)
(1 -5.24997e-16 0)
(1 6.21221e-17 0)
(1 1.3097e-16 0)
(1 1.50403e-16 0)
(1 1.68801e-15 0)
(1 2.65559e-15 0)
(1 3.9056e-15 0)
(1 3.55274e-15 0)
(1 2.66434e-15 0)
(1 4.21288e-15 0)
(1 2.92134e-15 0)
(1 2.78423e-15 0)
(1 3.79799e-15 0)
(1 1.68693e-15 0)
(1 5.57882e-15 0)
(1 3.93553e-15 0)
(1 5.54706e-15 0)
(1 5.97416e-15 0)
(1 6.04103e-15 0)
(1 6.60693e-15 0)
(1 5.55741e-15 0)
(1 2.44849e-15 0)
(1 4.24784e-15 0)
(1 4.64614e-15 0)
(1 4.77848e-15 0)
(1 3.54128e-15 0)
(1 5.71373e-15 0)
(1 6.19841e-15 0)
(1 6.4195e-15 0)
(1 3.74942e-15 0)
(1 4.68797e-15 0)
(1 4.21944e-15 0)
(1 2.11601e-15 0)
(1 2.92917e-15 0)
(1 1.12662e-15 0)
(1 1.59638e-15 0)
(1 3.21217e-15 0)
(1 3.00025e-15 0)
(1 1.23377e-15 0)
(1 6.84724e-16 0)
(1 8.39312e-16 0)
(1 2.79794e-16 0)
(1 1.84972e-15 0)
(1 2.29765e-15 0)
(1 2.1478e-15 0)
(1 4.68748e-15 0)
(1 3.47788e-15 0)
(1 3.03637e-15 0)
(1 3.30422e-15 0)
(1 1.29335e-15 0)
(1 2.63613e-15 0)
(1 8.9904e-16 0)
(1 3.07285e-16 0)
(1 8.10311e-16 0)
(1 2.03335e-15 0)
(1 2.67351e-15 0)
(1 2.60086e-15 0)
(1 1.35731e-15 0)
(1 2.16049e-15 0)
(1 2.96146e-15 0)
(1 3.15158e-15 0)
(1 4.8264e-15 0)
(1 3.74725e-15 0)
(1 3.69852e-15 0)
(1 1.95566e-15 0)
(1 1.16406e-15 0)
(1 2.55886e-16 0)
(1 1.56486e-15 0)
(1 -2.94334e-17 0)
(1 -1.88501e-16 0)
(1 2.1273e-15 0)
(1 1.6413e-15 0)
(1 1.0448e-15 0)
(1 3.0735e-15 0)
(1 2.20666e-15 0)
(1 4.04808e-15 0)
(1 3.63369e-15 0)
(1 2.81035e-15 0)
(1 3.14037e-15 0)
(1 2.68833e-15 0)
(1 3.521e-15 0)
(1 1.82074e-15 0)
(1 1.08093e-15 0)
(1 3.04893e-15 0)
(1 4.92615e-15 0)
(1 3.02483e-15 0)
(1 2.07922e-15 0)
(1 1.1628e-15 0)
(1 -2.38943e-15 0)
(1 -2.38162e-15 0)
(1 7.33087e-17 0)
(1 3.59543e-16 0)
(1 2.10161e-15 0)
(1 9.90525e-16 0)
(1 2.10188e-15 0)
(1 -3.57421e-16 0)
(1 -1.38908e-15 0)
(1 -2.04064e-15 0)
(1 -2.38659e-15 0)
(1 -2.47885e-15 0)
(1 1.44807e-15 0)
(1 7.13215e-17 0)
(1 1.46314e-15 0)
(1 -2.56845e-16 0)
(1 2.10019e-15 0)
(1 3.30347e-15 0)
(1 3.92724e-15 0)
(1 2.92604e-15 0)
(1 1.86623e-15 0)
(1 3.74881e-15 0)
(1 2.20923e-15 0)
(1 4.15922e-15 0)
(1 3.65985e-15 0)
(1 4.42104e-15 0)
(1 3.87125e-15 0)
(1 5.02075e-15 0)
(1 5.34073e-15 0)
(1 4.59008e-15 0)
(1 5.41488e-15 0)
(1 5.59951e-15 0)
(1 4.86426e-15 0)
(1 5.6615e-15 0)
(1 4.68895e-15 0)
(1 4.73786e-15 0)
(1 2.32621e-15 0)
(1 3.72653e-15 0)
(1 2.29255e-15 0)
(1 4.04542e-15 0)
(1 4.85776e-15 0)
(1 4.62904e-15 0)
(1 6.11189e-15 0)
(1 5.39814e-15 0)
(1 3.85461e-15 0)
(1 2.70683e-15 0)
(1 3.00307e-15 0)
(1 1.55764e-15 0)
(1 -1.02294e-15 0)
(1 4.40045e-16 0)
(1 1.49403e-15 0)
(1 3.19448e-15 0)
(1 2.68612e-15 0)
(1 2.08365e-15 0)
(1 -6.40844e-16 0)
(1 1.8451e-15 0)
(1 2.69034e-15 0)
(1 7.98522e-16 0)
(1 1.23338e-15 0)
(1 2.18564e-15 0)
(1 2.11956e-15 0)
(1 2.74507e-15 0)
(1 2.94695e-15 0)
(1 1.91868e-15 0)
(1 1.69885e-15 0)
(1 2.81589e-15 0)
(1 2.66112e-15 0)
(1 3.03233e-15 0)
(1 8.56802e-16 0)
(1 1.79915e-15 0)
(1 1.49075e-15 0)
(1 1.99379e-15 0)
(1 2.55792e-15 0)
(1 2.88493e-15 0)
(1 2.28562e-15 0)
(1 2.48274e-15 0)
(1 1.56367e-15 0)
(1 8.69444e-16 0)
(1 -7.47675e-17 0)
(1 1.27174e-15 0)
(1 1.11925e-15 0)
(1 2.77686e-16 0)
(1 1.70445e-15 0)
(1 3.85112e-16 0)
(1 1.71087e-15 0)
(1 2.07409e-15 0)
(1 4.73326e-15 0)
(1 5.75223e-15 0)
(1 3.91943e-15 0)
(1 2.85549e-15 0)
(1 1.28689e-15 0)
(1 7.90287e-16 0)
(1 1.32327e-15 0)
(1 4.26892e-15 0)
(1 2.51455e-15 0)
(1 3.92655e-15 0)
(1 -2.83417e-16 0)
(1 2.15771e-15 0)
(1 9.20325e-16 0)
(1 2.24893e-15 0)
(1 -1.70921e-15 0)
(1 2.16963e-16 0)
(1 -9.18941e-16 0)
(1 1.2989e-15 0)
(1 1.32215e-15 0)
(1 4.09185e-16 0)
(1 1.25702e-15 0)
(1 -8.50582e-16 0)
(1 -1.51657e-15 0)
(1 -4.24714e-15 0)
(1 -2.00943e-15 0)
(1 -1.67633e-15 0)
(1 -8.09689e-16 0)
(1 1.70115e-15 0)
(1 2.6216e-15 0)
(1 1.0456e-15 0)
(1 2.11641e-15 0)
(1 1.16337e-15 0)
(1 8.62844e-16 0)
(1 1.69419e-15 0)
(1 4.15153e-15 0)
(1 2.94441e-15 0)
(1 3.97322e-15 0)
(1 4.66811e-15 0)
(1 2.60881e-15 0)
(1 5.33157e-15 0)
(1 2.26384e-15 0)
(1 3.29535e-15 0)
(1 1.53744e-15 0)
(1 3.42286e-15 0)
(1 5.78152e-15 0)
(1 5.84912e-15 0)
(1 4.66335e-15 0)
(1 7.64128e-15 0)
(1 5.2631e-15 0)
(1 5.37772e-15 0)
(1 4.15596e-15 0)
(1 5.20634e-15 0)
(1 3.94435e-15 0)
(1 2.74973e-15 0)
(1 3.25442e-15 0)
(1 5.733e-15 0)
(1 3.2776e-15 0)
(1 4.66484e-15 0)
(1 4.37492e-15 0)
(1 3.3428e-15 0)
(1 2.30368e-15 0)
(1 1.45646e-15 0)
(1 -7.96843e-16 0)
(1 3.12519e-15 0)
(1 2.05993e-15 0)
(1 3.34254e-15 0)
(1 1.92767e-15 0)
(1 3.40143e-15 0)
(1 1.40956e-15 0)
(1 2.58413e-15 0)
(1 2.02266e-15 0)
(1 1.41866e-16 0)
(1 1.84453e-15 0)
(1 1.45037e-15 0)
(1 5.771e-16 0)
(1 2.40868e-15 0)
(1 1.99204e-15 0)
(1 2.32065e-15 0)
(1 1.79416e-15 0)
(1 2.76491e-15 0)
(1 1.69776e-15 0)
(1 2.45749e-15 0)
(1 2.22637e-15 0)
(1 2.28948e-15 0)
(1 1.69186e-15 0)
(1 2.56214e-15 0)
(1 1.52916e-15 0)
(1 2.49597e-15 0)
(1 1.93125e-15 0)
(1 2.45973e-15 0)
(1 1.81646e-15 0)
(1 1.78735e-15 0)
(1 3.96314e-17 0)
(1 1.25503e-15 0)
(1 5.60022e-16 0)
(1 8.47036e-16 0)
(1 9.72485e-16 0)
(1 2.19118e-15 0)
(1 7.67863e-16 0)
(1 1.48843e-15 0)
(1 3.42323e-15 0)
(1 1.92715e-15 0)
(1 5.29155e-15 0)
(1 4.43602e-15 0)
(1 3.86034e-15 0)
(1 1.01697e-15 0)
(1 1.28741e-15 0)
(1 2.61751e-15 0)
(1 1.02554e-15 0)
(1 1.00526e-15 0)
(1 -2.16711e-15 0)
(1 1.97354e-15 0)
(1 2.37161e-15 0)
(1 1.70191e-15 0)
(1 2.60587e-15 0)
(1 3.68624e-16 0)
(1 -6.84945e-16 0)
(1 -1.21425e-15 0)
(1 -1.41909e-15 0)
(1 -9.75791e-16 0)
(1 -5.89286e-16 0)
(1 -9.55707e-16 0)
(1 -1.39669e-15 0)
(1 -1.35377e-15 0)
(1 -4.12968e-16 0)
(1 -6.17749e-16 0)
(1 -1.31816e-15 0)
(1 1.30083e-15 0)
(1 -1.02693e-16 0)
(1 9.94883e-16 0)
(1 1.76996e-15 0)
(1 -9.8984e-17 0)
(1 -2.98388e-16 0)
(1 1.25086e-15 0)
(1 3.06349e-15 0)
(1 1.74777e-15 0)
(1 3.70463e-15 0)
(1 3.00237e-15 0)
(1 1.97435e-15 0)
(1 2.83594e-15 0)
(1 2.43751e-15 0)
(1 3.00571e-15 0)
(1 3.68882e-15 0)
(1 5.26725e-15 0)
(1 6.44994e-15 0)
(1 6.36471e-15 0)
(1 7.15502e-15 0)
(1 6.00172e-15 0)
(1 4.39122e-15 0)
(1 5.29991e-15 0)
(1 3.87554e-15 0)
(1 3.46543e-15 0)
(1 4.68611e-15 0)
(1 3.46721e-15 0)
(1 5.41657e-15 0)
(1 3.53091e-15 0)
(1 4.11674e-15 0)
(1 3.86789e-15 0)
(1 4.19575e-15 0)
(1 3.62853e-15 0)
(1 3.81118e-15 0)
(1 3.08192e-15 0)
(1 3.78639e-15 0)
(1 1.3823e-15 0)
(1 2.2498e-16 0)
(1 1.26537e-15 0)
(1 1.46931e-15 0)
(1 2.00505e-15 0)
(1 1.80243e-15 0)
(1 1.85544e-15 0)
(1 4.53415e-16 0)
(1 7.70666e-16 0)
(1 2.03181e-15 0)
(1 9.98618e-16 0)
(1 8.04207e-16 0)
(1 1.46646e-15 0)
(1 1.95564e-15 0)
(1 2.79459e-15 0)
(1 1.68649e-15 0)
(1 2.45267e-15 0)
(1 1.78099e-15 0)
(1 9.92007e-16 0)
(1 1.27625e-15 0)
(1 8.68539e-16 0)
(1 1.70412e-15 0)
(1 2.45985e-15 0)
(1 1.83878e-15 0)
(1 1.64179e-15 0)
(1 7.62883e-16 0)
(1 2.16292e-15 0)
(1 3.04953e-15 0)
(1 2.91228e-15 0)
(1 -2.09583e-16 0)
(1 1.10991e-15 0)
(1 3.39242e-16 0)
(1 1.22473e-15 0)
(1 3.12238e-15 0)
(1 2.72468e-15 0)
(1 3.85424e-15 0)
(1 3.18596e-15 0)
(1 2.53747e-15 0)
(1 2.41321e-16 0)
(1 1.76221e-15 0)
(1 1.57754e-15 0)
(1 3.3676e-15 0)
(1 2.38099e-15 0)
(1 9.7358e-16 0)
(1 3.1644e-16 0)
(1 1.5903e-15 0)
(1 1.35831e-15 0)
(1 2.99145e-15 0)
(1 -9.41748e-16 0)
(1 -3.05535e-16 0)
(1 -1.72729e-15 0)
(1 3.22547e-15 0)
(1 -4.97772e-16 0)
(1 -8.47019e-16 0)
(1 -1.83308e-15 0)
(1 -1.39762e-15 0)
(1 -1.09651e-15 0)
(1 -3.44388e-15 0)
(1 -1.2575e-15 0)
(1 -3.61284e-15 0)
(1 7.9333e-16 0)
(1 -1.59411e-15 0)
(1 -8.36292e-17 0)
(1 -5.45695e-16 0)
(1 -4.11313e-16 0)
(1 -1.29045e-16 0)
(1 -6.02784e-16 0)
(1 -2.11396e-17 0)
(1 5.57543e-16 0)
(1 1.29193e-15 0)
(1 4.44882e-16 0)
(1 6.73261e-16 0)
(1 3.45989e-15 0)
(1 3.03294e-15 0)
(1 3.37523e-15 0)
(1 2.43701e-15 0)
(1 2.01939e-15 0)
(1 1.23719e-15 0)
(1 9.66926e-16 0)
(1 5.66706e-15 0)
(1 7.25274e-15 0)
(1 5.89499e-15 0)
(1 5.32669e-15 0)
(1 6.5834e-15 0)
(1 4.2173e-15 0)
(1 4.26904e-15 0)
(1 4.54834e-15 0)
(1 3.49372e-15 0)
(1 2.40212e-15 0)
(1 2.13039e-15 0)
(1 3.60781e-15 0)
(1 3.52066e-15 0)
(1 2.76427e-15 0)
(1 5.13719e-15 0)
(1 1.38844e-15 0)
(1 1.81728e-15 0)
(1 1.52447e-15 0)
(1 3.1955e-15 0)
(1 3.16479e-15 0)
(1 2.32568e-15 0)
(1 -6.95204e-17 0)
(1 1.22751e-15 0)
(1 1.57922e-15 0)
(1 1.23854e-15 0)
(1 1.95498e-15 0)
(1 1.65655e-15 0)
(1 1.88897e-15 0)
(1 8.62607e-16 0)
(1 2.06229e-15 0)
(1 -7.21168e-16 0)
(1 6.01829e-16 0)
(1 9.77534e-16 0)
(1 1.50451e-15 0)
(1 1.79484e-15 0)
(1 1.77595e-15 0)
(1 1.86408e-15 0)
(1 2.80902e-15 0)
(1 2.17196e-15 0)
(1 1.64194e-15 0)
(1 7.9863e-17 0)
(1 4.93711e-16 0)
(1 1.15808e-15 0)
(1 1.12997e-15 0)
(1 6.9683e-16 0)
(1 9.48236e-16 0)
(1 1.01304e-15 0)
(1 1.2502e-15 0)
(1 2.78549e-15 0)
(1 2.35257e-15 0)
(1 -1.31129e-16 0)
(1 4.66844e-16 0)
(1 1.5005e-15 0)
(1 2.88791e-15 0)
(1 2.88306e-15 0)
(1 1.66078e-15 0)
(1 3.24223e-15 0)
(1 3.21666e-15 0)
(1 2.63734e-15 0)
(1 2.04002e-15 0)
(1 3.02695e-16 0)
(1 -6.78291e-16 0)
(1 8.37571e-16 0)
(1 1.73056e-15 0)
(1 9.03736e-16 0)
(1 1.11089e-15 0)