/*--------------------------------*- C++ -*----------------------------------*\
| =========                 |                                                 |
| \\      /  F ield         | OpenFOAM: The Open Source CFD Toolbox           |
|  \\    /   O peration     | Version:  v2012                                 |
|   \\  /    A nd           | Website:  www.openfoam.com                      |
|    \\/     M anipulation  |                                                 |
\*---------------------------------------------------------------------------*/
FoamFile
{
    version     2.0;
    format      ascii;
    class       volVectorField;
    location    "70";
    object      Usup;
}
// * * * * * * * * * * * * * * * * * * * * * * * * * * * * * * * * * * * * * //

dimensions      [0 1 -1 0 0 0 0];


internalField   nonuniform List<vector> 
4000
(
(0.000224486 0.000147946 0)
(0.000290084 -0.000522543 0)
(0.00183538 -0.0020018 0)
(0.00727925 0.00230311 0)
(0.01413 -0.00056662 0)
(0.00998483 -0.00736623 0)
(-0.00213429 -0.0116691 0)
(-0.0106415 -0.0131995 0)
(-0.00968126 -0.00952763 0)
(0.00101852 -0.00702453 0)
(0.0120215 -0.0133314 0)
(0.0125164 -0.0247585 0)
(0.00475726 -0.0273442 0)
(0.00996073 -0.0233414 0)
(0.0198578 -0.028927 0)
(0.0214335 -0.0419914 0)
(0.0168434 -0.0443871 0)
(0.00910158 -0.0376076 0)
(0.008246 -0.0316085 0)
(0.0152767 -0.0286296 0)
(0.0201703 -0.0335206 0)
(0.0120724 -0.0333543 0)
(-0.00144876 -0.0235144 0)
(-0.012286 -0.0242025 0)
(-0.0122636 -0.0222028 0)
(-0.0157018 -0.0254794 0)
(-0.0246541 -0.0212431 0)
(-0.0244056 -0.0173251 0)
(-0.0242479 -0.013478 0)
(-0.0207649 -0.0128886 0)
(-0.0252228 -0.0194932 0)
(-0.038059 -0.0165629 0)
(-0.0296111 -0.00692581 0)
(-0.00770513 -0.00313487 0)
(0.00290851 -0.00863216 0)
(0.0130172 -0.00507062 0)
(0.0268509 -0.0053601 0)
(0.0336986 -0.00620893 0)
(0.0282154 -0.00434459 0)
(0.0164239 -0.0021394 0)
(0.0124111 -0.00401926 0)
(0.00932467 -0.00750355 0)
(0.00132853 -0.00782644 0)
(-0.000447289 -0.000859643 0)
(0.00181719 0.00564768 0)
(0.00465138 0.00347201 0)
(0.00805095 0.00199352 0)
(0.00377754 -0.00517141 0)
(-0.00221288 -0.00498354 0)
(0.000569062 0.00058454 0)
(-0.000390972 -0.00197341 0)
(-0.00807425 -0.0024229 0)
(-0.0143725 -0.0015407 0)
(-0.0205615 -0.00356047 0)
(-0.0256083 -0.000125743 0)
(-0.0228791 0.00319774 0)
(-0.00835486 0.00889751 0)
(0.00033613 0.00981274 0)
(-0.0086784 0.00999951 0)
(-0.00907343 0.0137153 0)
(0.00530835 0.0112355 0)
(0.0155758 0.00584641 0)
(0.0226519 0.00312202 0)
(0.0240017 0.000704055 0)
(0.0171755 0.00108588 0)
(0.00780862 0.00387505 0)
(0.00130978 0.00591015 0)
(-0.000580029 0.00609131 0)
(-0.00703074 -0.00181594 0)
(-0.0135997 0.00076473 0)
(-0.00720277 0.000534788 0)
(0.000253837 -0.00255698 0)
(-0.00159552 -0.00715597 0)
(-0.00687482 -0.00996321 0)
(-0.00353685 -0.00422403 0)
(0.00580001 -0.00158183 0)
(0.0137165 -0.00234832 0)
(0.018508 -0.00528572 0)
(0.0162442 -0.00886074 0)
(0.0105274 -0.0127779 0)
(0.00340208 -0.0113102 0)
(0.00124238 -0.0101333 0)
(0.0042595 -0.0115125 0)
(0.000984905 -0.0124826 0)
(-0.00531535 -0.00913347 0)
(-0.0133112 -0.0115548 0)
(-0.0194081 -0.00680136 0)
(-0.0177189 -0.0105323 0)
(-0.0155632 -0.0116575 0)
(-0.0116306 -0.00714335 0)
(-0.00834381 -0.00817026 0)
(-0.0070276 -0.00965903 0)
(0.000630633 -0.00983544 0)
(0.00931256 -0.00830884 0)
(0.00860459 -0.0068609 0)
(0.00903186 -0.00305715 0)
(0.0142055 -0.0025388 0)
(0.0153642 -0.00379893 0)
(0.0122399 -0.00438204 0)
(0.00631145 -0.000458091 0)
(9.20632e-05 0.0011715 0)
(0.000261936 -0.00336111 0)
(0.00877569 -0.00356997 0)
(0.0194498 -0.00129752 0)
(0.0235663 -0.00839645 0)
(0.0135732 -0.0212586 0)
(-0.00698113 -0.0294303 0)
(-0.0185134 -0.0334743 0)
(-0.0131768 -0.0299846 0)
(0.00153337 -0.0284358 0)
(0.0142166 -0.0398812 0)
(0.0203597 -0.0689369 0)
(0.0206762 -0.076602 0)
(0.0293454 -0.0781493 0)
(0.0361314 -0.095527 0)
(0.0424499 -0.115841 0)
(0.0478938 -0.121442 0)
(0.0390314 -0.110023 0)
(0.0338961 -0.0955154 0)
(0.0377427 -0.0836533 0)
(0.0422908 -0.091935 0)
(0.0346993 -0.101956 0)
(0.00378938 -0.0854712 0)
(-0.0272533 -0.0771876 0)
(-0.035186 -0.070961 0)
(-0.0440658 -0.0755068 0)
(-0.05732 -0.0666761 0)
(-0.0599998 -0.0570685 0)
(-0.0628189 -0.0464383 0)
(-0.0657031 -0.0412714 0)
(-0.0729028 -0.049732 0)
(-0.0811058 -0.0443191 0)
(-0.0607086 -0.0201226 0)
(-0.0252202 -0.0128983 0)
(0.00450564 -0.0204634 0)
(0.036046 -0.0173107 0)
(0.064212 -0.0125988 0)
(0.0814464 -0.0122966 0)
(0.0736748 -0.0106071 0)
(0.047323 -0.0102893 0)
(0.031353 -0.0136735 0)
(0.0226837 -0.0195893 0)
(0.0135491 -0.0173922 0)
(0.0133098 -0.00137129 0)
(0.0100176 0.0126693 0)
(0.00952902 0.00901971 0)
(0.0110989 0.00181759 0)
(0.00361152 -0.00929742 0)
(0.000944827 -0.0103902 0)
(0.00100505 -0.00807086 0)
(-0.0080261 -0.0136148 0)
(-0.0225066 -0.00629647 0)
(-0.0392616 -0.00500116 0)
(-0.0517815 -0.00673032 0)
(-0.0575572 0.000237734 0)
(-0.0486186 0.0128638 0)
(-0.021311 0.0266957 0)
(-0.00683674 0.0247493 0)
(-0.0165621 0.0253631 0)
(-0.015358 0.0365732 0)
(0.00795842 0.031222 0)
(0.032224 0.0210221 0)
(0.0509291 0.0165473 0)
(0.0561703 0.0100748 0)
(0.0456237 0.00657608 0)
(0.0260574 0.00841417 0)
(0.0080777 0.0137114 0)
(-0.00726349 0.0163352 0)
(-0.020006 -0.001344 0)
(-0.0268223 0.00324255 0)
(-0.0197601 0.00288862 0)
(-0.00882997 -0.00990868 0)
(-0.0106037 -0.0200995 0)
(-0.010704 -0.024605 0)
(0.0015507 -0.0151585 0)
(0.0170157 -0.00951636 0)
(0.0309891 -0.0130896 0)
(0.039435 -0.0172734 0)
(0.0345077 -0.0252421 0)
(0.0256571 -0.0349997 0)
(0.0140191 -0.0339593 0)
(0.00557857 -0.0315738 0)
(0.0064528 -0.0332711 0)
(0.00137378 -0.034925 0)
(-0.01491 -0.0285931 0)
(-0.0321354 -0.0323029 0)
(-0.0464999 -0.0284085 0)
(-0.0490703 -0.0332983 0)
(-0.0379498 -0.0342338 0)
(-0.0287647 -0.0234332 0)
(-0.0245124 -0.0233311 0)
(-0.0174093 -0.0238796 0)
(0.00233078 -0.0240687 0)
(0.0222189 -0.0230179 0)
(0.0260402 -0.0215581 0)
(0.0281273 -0.0142324 0)
(0.0340764 -0.0111079 0)
(0.0347937 -0.00920752 0)
(0.0301721 -0.00825869 0)
(0.0148816 -0.00202075 0)
(-0.00261161 0.00143872 0)
(-0.000145399 -0.00788539 0)
(0.0126798 -0.00986429 0)
(0.022963 -0.00932199 0)
(0.0263601 -0.016398 0)
(0.0138694 -0.0310401 0)
(-0.0103695 -0.0406836 0)
(-0.0236731 -0.0472671 0)
(-0.0160933 -0.0489133 0)
(0.00132953 -0.0501781 0)
(0.00877589 -0.0733139 0)
(0.0182665 -0.108206 0)
(0.0282665 -0.124679 0)
(0.0357335 -0.13257 0)
(0.0461961 -0.160383 0)
(0.0604239 -0.177979 0)
(0.0723959 -0.187046 0)
(0.0684246 -0.180771 0)
(0.0648792 -0.15747 0)
(0.0606487 -0.139622 0)
(0.0496698 -0.145229 0)
(0.0419683 -0.161539 0)
(0.0139337 -0.156088 0)
(-0.0293749 -0.138065 0)
(-0.0518913 -0.124534 0)
(-0.0670011 -0.118903 0)
(-0.081531 -0.104767 0)
(-0.0857669 -0.0941922 0)
(-0.0906346 -0.0814619 0)
(-0.100077 -0.0730727 0)
(-0.110414 -0.0740964 0)
(-0.107102 -0.0661983 0)
(-0.07744 -0.035772 0)
(-0.0383912 -0.0233529 0)
(0.00381603 -0.0237818 0)
(0.0546487 -0.0232139 0)
(0.0961728 -0.018142 0)
(0.11598 -0.0208798 0)
(0.104594 -0.0159973 0)
(0.0711202 -0.0145359 0)
(0.0488436 -0.0156157 0)
(0.037549 -0.0242421 0)
(0.031187 -0.0237452 0)
(0.0315855 -0.00324448 0)
(0.0201211 0.00947005 0)
(0.0104466 0.0126713 0)
(0.010085 -0.00119513 0)
(0.00300314 -0.0127405 0)
(-0.00299433 -0.0121681 0)
(-0.00668082 -0.0169297 0)
(-0.0115047 -0.0236225 0)
(-0.0298571 -0.0177836 0)
(-0.0586963 -0.016111 0)
(-0.0742872 -0.00563587 0)
(-0.0757136 0.00663329 0)
(-0.0602014 0.0234946 0)
(-0.0338157 0.0382305 0)
(-0.0184491 0.0393339 0)
(-0.0183094 0.0431099 0)
(-0.014724 0.0550713 0)
(0.00935006 0.0510054 0)
(0.0440359 0.039271 0)
(0.0697111 0.0333326 0)
(0.0746146 0.025098 0)
(0.0620437 0.019085 0)
(0.0405415 0.0152083 0)
(0.0180793 0.0179273 0)
(-0.012462 0.0202703 0)
(-0.0309419 0.00454712 0)
(-0.0339418 0.00271135 0)
(-0.0338121 -5.54387e-05 0)
(-0.0237566 -0.0182008 0)
(-0.0186608 -0.0308718 0)
(-0.011412 -0.0340545 0)
(0.00816022 -0.0270991 0)
(0.0256369 -0.0250654 0)
(0.0429679 -0.0282617 0)
(0.0538452 -0.0284844 0)
(0.044687 -0.0379659 0)
(0.0346206 -0.0484372 0)
(0.0229325 -0.0576911 0)
(0.0107588 -0.06072 0)
(0.00758794 -0.0517622 0)
(0.000338162 -0.049332 0)
(-0.0228603 -0.0467507 0)
(-0.0497697 -0.0491974 0)
(-0.0688385 -0.0524124 0)
(-0.071442 -0.0564212 0)
(-0.0530509 -0.0542088 0)
(-0.039556 -0.0471992 0)
(-0.0348233 -0.0409199 0)
(-0.0235297 -0.0338764 0)
(0.00204525 -0.0317337 0)
(0.0285604 -0.0377632 0)
(0.0388542 -0.0381903 0)
(0.0452389 -0.028982 0)
(0.0529716 -0.0219042 0)
(0.052155 -0.0153828 0)
(0.0422595 -0.00994978 0)
(0.0198906 -0.00408166 0)
(-0.00649195 0.00311051 0)
(-0.00515995 -0.00854726 0)
(0.0158792 -0.0148208 0)
(0.0286448 -0.0119734 0)
(0.0248425 -0.0252684 0)
(0.00867032 -0.0377909 0)
(-0.0154196 -0.0453032 0)
(-0.0276649 -0.062859 0)
(-0.0163665 -0.0665128 0)
(-0.00724971 -0.0732895 0)
(-0.00777339 -0.0984695 0)
(0.00961098 -0.135354 0)
(0.0325205 -0.173124 0)
(0.0393219 -0.186628 0)
(0.0467573 -0.20747 0)
(0.0695084 -0.230698 0)
(0.0891744 -0.24827 0)
(0.0982394 -0.246945 0)
(0.0985035 -0.219101 0)
(0.0806546 -0.198951 0)
(0.0559087 -0.196598 0)
(0.0430843 -0.199823 0)
(0.0181392 -0.199755 0)
(-0.025452 -0.19099 0)
(-0.0560475 -0.178955 0)
(-0.0766559 -0.163357 0)
(-0.0975459 -0.142291 0)
(-0.107415 -0.128117 0)
(-0.114513 -0.114752 0)
(-0.12814 -0.103842 0)
(-0.137342 -0.0964496 0)
(-0.121146 -0.0826735 0)
(-0.0820159 -0.0563566 0)
(-0.0424034 -0.0362621 0)
(0.00564255 -0.0250751 0)
(0.0662715 -0.0248741 0)
(0.1132 -0.025385 0)
(0.14167 -0.0238134 0)
(0.13576 -0.0159809 0)
(0.0956938 -0.0110181 0)
(0.0623148 -0.015511 0)
(0.0450015 -0.0203829 0)
(0.0476224 -0.0222222 0)
(0.05071 -0.00962918 0)
(0.0331178 -0.00411888 0)
(0.0131212 0.00499268 0)
(0.00280002 -0.002234 0)
(0.000830177 -0.014289 0)
(-0.00361362 -0.0175108 0)
(-0.014182 -0.0232584 0)
(-0.0228692 -0.0327785 0)
(-0.0422092 -0.0398722 0)
(-0.066788 -0.0287537 0)
(-0.0804134 -0.00294 0)
(-0.0849548 0.018611 0)
(-0.0688241 0.0359965 0)
(-0.040187 0.0460453 0)
(-0.0223981 0.0571824 0)
(-0.0183288 0.0671353 0)
(-0.0133515 0.0745772 0)
(0.00914459 0.0718645 0)
(0.0482502 0.0624508 0)
(0.0804097 0.0519015 0)
(0.0878631 0.0391071 0)
(0.0737172 0.0291459 0)
(0.0487509 0.0264845 0)
(0.0233511 0.0261501 0)
(-0.0156304 0.0206482 0)
(-0.0406864 0.0106316 0)
(-0.0434401 -0.000776023 0)
(-0.046284 -0.00720519 0)
(-0.0379215 -0.0258736 0)
(-0.0265302 -0.0404061 0)
(-0.0103088 -0.0410581 0)
(0.0126833 -0.0364175 0)
(0.0319385 -0.0358349 0)
(0.0549168 -0.0325267 0)
(0.0646652 -0.0373713 0)
(0.0509522 -0.0504081 0)
(0.0355356 -0.058161 0)
(0.0205659 -0.073601 0)
(0.0184034 -0.0842129 0)
(0.0175735 -0.0772417 0)
(-0.000746156 -0.0687014 0)
(-0.0319121 -0.0650995 0)
(-0.0650385 -0.0624842 0)
(-0.0886925 -0.0729438 0)
(-0.0889939 -0.0730409 0)
(-0.0668653 -0.0680683 0)
(-0.0484552 -0.0675221 0)
(-0.0362299 -0.0573102 0)
(-0.0229037 -0.0491253 0)
(-0.00086994 -0.0439861 0)
(0.0284626 -0.0503565 0)
(0.0501871 -0.0486078 0)
(0.0621854 -0.0395819 0)
(0.0691339 -0.0348124 0)
(0.0666442 -0.0263749 0)
(0.0527297 -0.0151494 0)
(0.0241709 -0.00652382 0)
(-0.0111126 0.00100687 0)
(-0.010892 -0.00797113 0)
(0.0168473 -0.0133365 0)
(0.0254504 -0.0155994 0)
(0.0190372 -0.0289686 0)
(0.00849267 -0.0415928 0)
(-0.0241108 -0.0523104 0)
(-0.0375166 -0.0716518 0)
(-0.0201524 -0.0791867 0)
(-0.0121453 -0.097986 0)
(-0.0192373 -0.121503 0)
(-0.0133872 -0.154282 0)
(0.0177853 -0.196132 0)
(0.0425415 -0.222685 0)
(0.0505467 -0.241261 0)
(0.0689426 -0.268202 0)
(0.0972209 -0.295945 0)
(0.123043 -0.296939 0)
(0.130186 -0.276837 0)
(0.104304 -0.259805 0)
(0.0705084 -0.245545 0)
(0.0504441 -0.227628 0)
(0.0170125 -0.226532 0)
(-0.0317893 -0.230964 0)
(-0.0613528 -0.220696 0)
(-0.0803268 -0.204696 0)
(-0.104738 -0.183353 0)
(-0.12026 -0.159649 0)
(-0.130329 -0.143432 0)
(-0.144883 -0.132252 0)
(-0.152461 -0.112587 0)
(-0.130887 -0.0906712 0)
(-0.0841659 -0.0698927 0)
(-0.0370707 -0.0534754 0)
(0.0111861 -0.0319042 0)
(0.0728144 -0.0202703 0)
(0.131171 -0.0216553 0)
(0.166185 -0.0190901 0)
(0.158327 -0.0254007 0)
(0.111055 -0.0188608 0)
(0.0747853 -0.0132894 0)
(0.0581721 -0.0099398 0)
(0.0577363 -0.0109697 0)
(0.0587207 -0.0124007 0)
(0.0421324 -0.0204773 0)
(0.0215157 -0.016345 0)
(0.00337003 -0.0129179 0)
(-0.0049544 -0.0172711 0)
(-0.0116593 -0.0223747 0)
(-0.0253851 -0.0321644 0)
(-0.0378052 -0.042915 0)
(-0.0491096 -0.0490563 0)
(-0.0617129 -0.0302828 0)
(-0.0755296 0.00244349 0)
(-0.0849814 0.0304032 0)
(-0.0742022 0.0479627 0)
(-0.0442454 0.0601153 0)
(-0.0204239 0.0739005 0)
(-0.015883 0.0809385 0)
(-0.0127015 0.0887709 0)
(0.0107777 0.0898839 0)
(0.0510371 0.0835138 0)
(0.081903 0.0741082 0)
(0.0891836 0.0580914 0)
(0.0801197 0.0465171 0)
(0.0580391 0.0419689 0)
(0.0249146 0.0346272 0)
(-0.0205683 0.0214461 0)
(-0.0499883 0.0130206 0)
(-0.0541489 -0.00169655 0)
(-0.0590399 -0.0157436 0)
(-0.052544 -0.0366456 0)
(-0.0319553 -0.0505201 0)
(-0.00777375 -0.0456161 0)
(0.0180931 -0.0441841 0)
(0.0420588 -0.0410987 0)
(0.0623309 -0.036822 0)
(0.0650355 -0.0451173 0)
(0.0531208 -0.0608412 0)
(0.0369492 -0.0751231 0)
(0.0170086 -0.0892178 0)
(0.0152487 -0.0953959 0)
(0.0202274 -0.096687 0)
(0.00322704 -0.0905549 0)
(-0.0328322 -0.0844151 0)
(-0.0783149 -0.0765933 0)
(-0.105135 -0.0856444 0)
(-0.0981251 -0.0846137 0)
(-0.077444 -0.0815626 0)
(-0.0555534 -0.0787084 0)
(-0.0388848 -0.0707482 0)
(-0.0236992 -0.0687641 0)
(-1.73127e-05 -0.058963 0)
(0.0322485 -0.056095 0)
(0.0596137 -0.0571022 0)
(0.071792 -0.0467993 0)
(0.0804163 -0.039634 0)
(0.081723 -0.0304878 0)
(0.0641111 -0.0188078 0)
(0.0295362 -0.00595553 0)
(-0.0119532 -0.00401745 0)
(-0.0122621 -0.00414708 0)
(0.0158992 -0.0106306 0)
(0.0245682 -0.0204263 0)
(0.0138597 -0.027166 0)
(-0.00146127 -0.0477945 0)
(-0.0325634 -0.0664806 0)
(-0.0434154 -0.0731995 0)
(-0.02992 -0.0862485 0)
(-0.0281177 -0.11098 0)
(-0.0335278 -0.140236 0)
(-0.0249183 -0.170536 0)
(0.00644392 -0.203863 0)
(0.0341158 -0.239538 0)
(0.0443703 -0.26532 0)
(0.0615751 -0.285222 0)
(0.0992551 -0.309942 0)
(0.140932 -0.317825 0)
(0.151361 -0.314208 0)
(0.12544 -0.308044 0)
(0.0955286 -0.287903 0)
(0.0642012 -0.26691 0)
(0.0118086 -0.264902 0)
(-0.0363759 -0.263791 0)
(-0.0621852 -0.251878 0)
(-0.0835446 -0.232984 0)
(-0.105999 -0.204662 0)
(-0.124517 -0.178107 0)
(-0.143357 -0.162041 0)
(-0.154873 -0.150802 0)
(-0.154496 -0.123578 0)
(-0.132422 -0.0959633 0)
(-0.0872108 -0.0788208 0)
(-0.0326448 -0.0623792 0)
(0.0277104 -0.036601 0)
(0.0864488 -0.00803989 0)
(0.138886 -0.00787 0)
(0.171199 -0.0205448 0)
(0.170278 -0.034127 0)
(0.136786 -0.0256012 0)
(0.0967071 -0.00590188 0)
(0.0693378 -0.000231522 0)
(0.0633313 0.000641918 0)
(0.0571727 -0.00968439 0)
(0.0408082 -0.0299301 0)
(0.0269612 -0.037226 0)
(0.00772336 -0.0356866 0)
(-0.00423171 -0.0323846 0)
(-0.0171902 -0.0270956 0)
(-0.0368271 -0.0360627 0)
(-0.0484192 -0.0459333 0)
(-0.052207 -0.0491315 0)
(-0.053921 -0.0271169 0)
(-0.0647721 0.0100246 0)
(-0.081463 0.0403866 0)
(-0.0742834 0.0559297 0)
(-0.0427999 0.0725395 0)
(-0.0221387 0.0894247 0)
(-0.0157502 0.0904952 0)
(-0.00744511 0.099703 0)
(0.0134161 0.110516 0)
(0.0529701 0.100314 0)
(0.0836287 0.0916297 0)
(0.0911947 0.0802971 0)
(0.0832217 0.0696201 0)
(0.0563623 0.0554907 0)
(0.0185588 0.0378219 0)
(-0.02704 0.0187856 0)
(-0.0580314 0.00938318 0)
(-0.0677642 -0.00416012 0)
(-0.0755048 -0.0218083 0)
(-0.0657254 -0.0369112 0)
(-0.0334327 -0.0516384 0)
(-0.00323851 -0.0536272 0)
(0.0225424 -0.0549284 0)
(0.0489878 -0.0543995 0)
(0.0681753 -0.0511318 0)
(0.0657295 -0.0503737 0)
(0.0472261 -0.0597096 0)
(0.0300332 -0.0872069 0)
(0.0164993 -0.106493 0)
(0.0187087 -0.103721 0)
(0.0215787 -0.104338 0)
(0.00266949 -0.105103 0)
(-0.0337781 -0.0988747 0)
(-0.0840961 -0.0910913 0)
(-0.116953 -0.0893867 0)
(-0.109846 -0.0922101 0)
(-0.085203 -0.0920151 0)
(-0.0598175 -0.0877981 0)
(-0.0432856 -0.0863992 0)
(-0.0225645 -0.0839105 0)
(0.00677961 -0.0719833 0)
(0.0343602 -0.0627127 0)
(0.0661839 -0.0634246 0)
(0.086981 -0.0508613 0)
(0.0936715 -0.0324113 0)
(0.0919456 -0.0241131 0)
(0.0741078 -0.0148289 0)
(0.0339322 -0.0041647 0)
(-0.0082097 -0.00634909 0)
(-0.0104372 -0.00362876 0)
(0.00966474 -0.00629118 0)
(0.0185415 -0.020232 0)
(0.00449388 -0.0267696 0)
(-0.015178 -0.0485157 0)
(-0.0381722 -0.0737995 0)
(-0.047263 -0.0801761 0)
(-0.041347 -0.0946351 0)
(-0.0418865 -0.115612 0)
(-0.0489964 -0.145774 0)
(-0.0422684 -0.17343 0)
(-0.0116689 -0.203119 0)
(0.0216003 -0.244612 0)
(0.0433997 -0.269005 0)
(0.0633861 -0.289861 0)
(0.0997146 -0.305287 0)
(0.144305 -0.318644 0)
(0.158838 -0.328428 0)
(0.141197 -0.329034 0)
(0.112824 -0.30952 0)
(0.0720188 -0.294615 0)
(0.0151446 -0.287842 0)
(-0.0355273 -0.277932 0)
(-0.0605506 -0.270707 0)
(-0.074914 -0.247303 0)
(-0.0996913 -0.219165 0)
(-0.128356 -0.198035 0)
(-0.151823 -0.181027 0)
(-0.158305 -0.153139 0)
(-0.151802 -0.125882 0)
(-0.132784 -0.09572 0)
(-0.0860037 -0.0797599 0)
(-0.0214797 -0.0593961 0)
(0.0479043 -0.0348086 0)
(0.102351 -0.00583343 0)
(0.139945 0.00181892 0)
(0.171076 -0.0085596 0)
(0.181269 -0.0194215 0)
(0.157779 -0.0196894 0)
(0.116737 -0.00765169 0)
(0.0826402 0.00454048 0)
(0.0666156 0.00604274 0)
(0.0486762 -0.00925586 0)
(0.0315044 -0.0370079 0)
(0.0243637 -0.0503654 0)
(0.0112372 -0.0442624 0)
(0.00230694 -0.0320095 0)
(-0.0173278 -0.0336876 0)
(-0.0464774 -0.0445941 0)
(-0.0592798 -0.0444207 0)
(-0.051872 -0.0415217 0)
(-0.0389796 -0.0198161 0)
(-0.0493976 0.00984539 0)
(-0.0752683 0.0375048 0)
(-0.0725929 0.0647631 0)
(-0.0375238 0.0828973 0)
(-0.019875 0.0950107 0)
(-0.0152045 0.104181 0)
(0.00152689 0.110924 0)
(0.0174973 0.124244 0)
(0.0495127 0.121048 0)
(0.0837549 0.10716 0)
(0.0910844 0.0973323 0)
(0.0787277 0.0831326 0)
(0.0482356 0.0618112 0)
(0.00726927 0.0398183 0)
(-0.0363745 0.0139204 0)
(-0.0652812 0.00402142 0)
(-0.0776877 -0.00629016 0)
(-0.084278 -0.0168342 0)
(-0.0749112 -0.0297075 0)
(-0.0431564 -0.045099 0)
(-0.00683476 -0.0555004 0)
(0.0239837 -0.0565538 0)
(0.0548446 -0.0652292 0)
(0.078343 -0.062384 0)
(0.0734103 -0.0657665 0)
(0.0403905 -0.0758678 0)
(0.014731 -0.0930239 0)
(0.0135958 -0.105172 0)
(0.0214294 -0.103687 0)
(0.0192484 -0.107273 0)
(0.00232247 -0.107014 0)
(-0.0325208 -0.104819 0)
(-0.085848 -0.100876 0)
(-0.12362 -0.0947806 0)
(-0.118935 -0.092447 0)
(-0.0922936 -0.0943569 0)
(-0.0669989 -0.0907945 0)
(-0.0477645 -0.0952965 0)
(-0.02012 -0.0900367 0)
(0.0136466 -0.0830596 0)
(0.0413594 -0.0693224 0)
(0.0748107 -0.0625148 0)
(0.103278 -0.0494479 0)
(0.109141 -0.0287696 0)
(0.10173 -0.0115317 0)
(0.0809817 -0.00487388 0)
(0.0370814 -4.79529e-05 0)
(-0.00630203 -0.00398446 0)
(-0.00668119 -0.00165231 0)
(0.00710205 -0.000607875 0)
(0.0126645 -0.0175405 0)
(-0.00354043 -0.0333526 0)
(-0.0324487 -0.047944 0)
(-0.0519885 -0.0717223 0)
(-0.0540474 -0.0875413 0)
(-0.049464 -0.0993615 0)
(-0.0564349 -0.114292 0)
(-0.0635043 -0.139907 0)
(-0.0513545 -0.164251 0)
(-0.0273242 -0.192858 0)
(0.00660592 -0.22638 0)
(0.0336567 -0.254748 0)
(0.0579954 -0.285768 0)
(0.100507 -0.293755 0)
(0.144543 -0.304381 0)
(0.161619 -0.31621 0)
(0.15352 -0.323365 0)
(0.130059 -0.31252 0)
(0.0830952 -0.301402 0)
(0.0198112 -0.295867 0)
(-0.0355244 -0.276393 0)
(-0.0584932 -0.262338 0)
(-0.0706937 -0.246016 0)
(-0.099813 -0.235357 0)
(-0.129968 -0.221023 0)
(-0.14558 -0.199308 0)
(-0.149492 -0.157121 0)
(-0.145397 -0.120785 0)
(-0.127301 -0.0874569 0)
(-0.0825363 -0.062795 0)
(-0.0129375 -0.043254 0)
(0.063276 -0.0337676 0)
(0.118694 -0.0137362 0)
(0.149801 0.00515653 0)
(0.173728 0.0165857 0)
(0.182771 -0.000913989 0)
(0.166265 -0.0101306 0)
(0.133812 -0.00458264 0)
(0.0961905 0.0115609 0)
(0.067096 0.0031613 0)
(0.0366199 -0.0169947 0)
(0.0190918 -0.0421201 0)
(0.0276329 -0.0511252 0)
(0.0245503 -0.0460217 0)
(0.00383741 -0.0408607 0)
(-0.0295455 -0.0489722 0)
(-0.0514702 -0.0464659 0)
(-0.0567008 -0.0328275 0)
(-0.0483305 -0.0214303 0)
(-0.0334485 -0.00695255 0)
(-0.0418381 0.00150275 0)
(-0.0605605 0.0268375 0)
(-0.0588084 0.0690366 0)
(-0.0352966 0.0944981 0)
(-0.0170249 0.102403 0)
(-0.00978108 0.11436 0)
(0.0067905 0.121152 0)
(0.025628 0.126144 0)
(0.049834 0.129261 0)
(0.0788771 0.114921 0)
(0.0875652 0.10426 0)
(0.070541 0.0963561 0)
(0.0358371 0.0759575 0)
(-0.00826117 0.0457006 0)
(-0.048014 0.0163749 0)
(-0.0701305 0.00721528 0)
(-0.0820131 -0.00324284 0)
(-0.0922017 -0.0159255 0)
(-0.0855734 -0.0322062 0)
(-0.0503127 -0.0417407 0)
(-0.00780543 -0.0507858 0)
(0.0215338 -0.0555055 0)
(0.0533125 -0.0635742 0)
(0.0784436 -0.0652772 0)
(0.0675133 -0.0814847 0)
(0.0385498 -0.0948995 0)
(0.0181789 -0.0929272 0)
(0.0156475 -0.0952731 0)
(0.0207881 -0.101179 0)
(0.0189797 -0.106179 0)
(0.000298782 -0.104879 0)
(-0.0374138 -0.103851 0)
(-0.088318 -0.0997065 0)
(-0.124763 -0.0975928 0)
(-0.124517 -0.0904051 0)
(-0.098433 -0.0903481 0)
(-0.0730558 -0.0861796 0)
(-0.0523132 -0.0907846 0)
(-0.0194872 -0.0860882 0)
(0.020025 -0.0820564 0)
(0.0511546 -0.0710413 0)
(0.0853943 -0.0596901 0)
(0.118192 -0.0438597 0)
(0.128393 -0.0224747 0)
(0.115254 1.26734e-05 0)
(0.0856435 0.00371524 0)
(0.0366528 0.00690608 0)
(-0.00431115 0.000335491 0)
(-0.00507058 0.00607265 0)
(-0.000992139 0.000711162 0)
(-0.00474526 -0.0181309 0)
(-0.0166217 -0.0387534 0)
(-0.0414744 -0.0501464 0)
(-0.0645049 -0.0618608 0)
(-0.0635308 -0.0838303 0)
(-0.0550904 -0.0966666 0)
(-0.0633419 -0.0983081 0)
(-0.0746544 -0.118256 0)
(-0.0674569 -0.152816 0)
(-0.0412315 -0.18096 0)
(-0.00588016 -0.200929 0)
(0.018991 -0.22603 0)
(0.0543105 -0.254877 0)
(0.104994 -0.267844 0)
(0.14516 -0.281523 0)
(0.159751 -0.294279 0)
(0.155379 -0.298434 0)
(0.136061 -0.297349 0)
(0.0860268 -0.292091 0)
(0.0293122 -0.283919 0)
(-0.0212708 -0.266002 0)
(-0.0544888 -0.249055 0)
(-0.0765271 -0.242638 0)
(-0.10692 -0.233519 0)
(-0.130323 -0.22227 0)
(-0.134715 -0.200512 0)
(-0.130265 -0.165033 0)
(-0.128388 -0.124655 0)
(-0.114235 -0.080052 0)
(-0.0720805 -0.0411068 0)
(-0.0118247 -0.0198869 0)
(0.065423 -0.0187117 0)
(0.134012 -0.00879888 0)
(0.171399 0.00821592 0)
(0.180169 0.0242849 0)
(0.177609 0.0200338 0)
(0.171673 0.00882022 0)
(0.148491 0.00416827 0)
(0.102445 0.00532025 0)
(0.0575719 -0.00396177 0)
(0.0250346 -0.0302071 0)
(0.0137625 -0.038114 0)
(0.0265193 -0.0418542 0)
(0.0213336 -0.048636 0)
(-2.4678e-05 -0.0540621 0)
(-0.0245506 -0.0567109 0)
(-0.0407905 -0.0387991 0)
(-0.0501484 -0.0264019 0)
(-0.044997 -0.014507 0)
(-0.0365769 -0.00515871 0)
(-0.0403683 -0.00163872 0)
(-0.0415203 0.0252743 0)
(-0.0374705 0.0663948 0)
(-0.0251166 0.0978849 0)
(-0.0140139 0.11043 0)
(-0.00622389 0.116248 0)
(0.0096163 0.129257 0)
(0.0270654 0.128189 0)
(0.0485055 0.124905 0)
(0.0752085 0.113197 0)
(0.0884823 0.106065 0)
(0.0687651 0.103004 0)
(0.020501 0.0880542 0)
(-0.0290325 0.0511184 0)
(-0.0593303 0.0256481 0)
(-0.0762523 0.0127608 0)
(-0.092526 -0.00870766 0)
(-0.103902 -0.0210179 0)
(-0.0919869 -0.0290248 0)
(-0.0540709 -0.0334975 0)
(-0.0128817 -0.0442629 0)
(0.0203172 -0.0567138 0)
(0.0551142 -0.0562116 0)
(0.0739992 -0.0624665 0)
(0.0610844 -0.0841657 0)
(0.0410812 -0.0920939 0)
(0.0222194 -0.0879077 0)
(0.0131341 -0.0874538 0)
(0.0162858 -0.0937378 0)
(0.0163177 -0.0989499 0)
(0.000581785 -0.106168 0)
(-0.0353045 -0.101232 0)
(-0.0905109 -0.0955264 0)
(-0.127904 -0.087274 0)
(-0.125513 -0.0767908 0)
(-0.100718 -0.0753397 0)
(-0.0774152 -0.0788286 0)
(-0.0555077 -0.0779925 0)
(-0.0186675 -0.0724604 0)
(0.0228032 -0.0683554 0)
(0.0587773 -0.0609141 0)
(0.0981072 -0.0501511 0)
(0.135492 -0.0345379 0)
(0.146863 -0.0177065 0)
(0.126219 0.000797555 0)
(0.0907583 0.0146831 0)
(0.0346808 0.00854796 0)
(-0.00255126 0.00113898 0)
(-0.0079586 0.0100234 0)
(-0.0129301 0.00467565 0)
(-0.0182957 -0.0106438 0)
(-0.0281189 -0.024978 0)
(-0.0493004 -0.0378785 0)
(-0.0752624 -0.0522602 0)
(-0.0765398 -0.071142 0)
(-0.0550703 -0.081698 0)
(-0.0650337 -0.0801075 0)
(-0.0939395 -0.0946064 0)
(-0.0855349 -0.126865 0)
(-0.0487757 -0.146084 0)
(-0.0110501 -0.167943 0)
(0.0104285 -0.190525 0)
(0.0438993 -0.215268 0)
(0.0969486 -0.241545 0)
(0.139694 -0.252671 0)
(0.161524 -0.262489 0)
(0.160557 -0.259828 0)
(0.140185 -0.260052 0)
(0.0939 -0.259416 0)
(0.0349203 -0.253584 0)
(-0.0190949 -0.249904 0)
(-0.0554089 -0.231791 0)
(-0.0776795 -0.223376 0)
(-0.106703 -0.216294 0)
(-0.129942 -0.203766 0)
(-0.128871 -0.18304 0)
(-0.118866 -0.167195 0)
(-0.106399 -0.13115 0)
(-0.0862257 -0.0805837 0)
(-0.0541651 -0.0323218 0)
(-0.00683325 0.00011185 0)
(0.0670276 0.0146218 0)
(0.139859 0.0197834 0)
(0.180456 0.0220296 0)
(0.192451 0.0210832 0)
(0.183675 0.0294384 0)
(0.167714 0.0257457 0)
(0.144048 0.0178789 0)
(0.101903 0.00096443 0)
(0.0510474 -0.00636836 0)
(0.0197135 -0.031132 0)
(0.0167417 -0.0317201 0)
(0.0240187 -0.0376324 0)
(0.0174699 -0.0478615 0)
(-0.00259368 -0.050199 0)
(-0.021345 -0.0516159 0)
(-0.0347951 -0.0386537 0)
(-0.0469701 -0.0307557 0)
(-0.0431014 -0.021712 0)
(-0.0361228 -0.0163602 0)
(-0.0325621 -0.00297 0)
(-0.023618 0.0254998 0)
(-0.0174309 0.0585467 0)
(-0.0129113 0.0897579 0)
(-0.010771 0.103723 0)
(2.74441e-05 0.116544 0)
(0.0149636 0.128479 0)
(0.0251636 0.122157 0)
(0.0444428 0.121664 0)
(0.07276 0.116407 0)
(0.0888936 0.101271 0)
(0.0661702 0.091994 0)
(0.0057485 0.0791418 0)
(-0.0474344 0.0533776 0)
(-0.0710306 0.0322562 0)
(-0.0915763 0.0160792 0)
(-0.104 -0.00875913 0)
(-0.104714 -0.0177819 0)
(-0.0922003 -0.0202727 0)
(-0.0583707 -0.02266 0)
(-0.020764 -0.0325992 0)
(0.0180474 -0.0436172 0)
(0.0555685 -0.0408989 0)
(0.0652786 -0.0551336 0)
(0.0534715 -0.0722199 0)
(0.0431773 -0.0838152 0)
(0.0278657 -0.0882538 0)
(0.0158941 -0.0881658 0)
(0.014656 -0.0826427 0)
(0.00965703 -0.0848016 0)
(-0.00416788 -0.0881404 0)
(-0.0348601 -0.0813436 0)
(-0.0854227 -0.0839852 0)
(-0.119809 -0.072863 0)
(-0.125193 -0.0613926 0)
(-0.109123 -0.0585536 0)
(-0.0831081 -0.0664038 0)
(-0.0539689 -0.0615994 0)
(-0.0165258 -0.0565347 0)
(0.0267832 -0.0525979 0)
(0.0650897 -0.0405987 0)
(0.107244 -0.0290847 0)
(0.145851 -0.0201799 0)
(0.158918 -0.0123538 0)
(0.143954 0.000104984 0)
(0.0970045 0.0140077 0)
(0.0290711 0.00352689 0)
(-0.000548574 0.000798858 0)
(-0.00841081 0.013338 0)
(-0.02221 0.0158029 0)
(-0.031552 0.00344368 0)
(-0.0401079 -0.00783438 0)
(-0.0632675 -0.022899 0)
(-0.0888929 -0.0353616 0)
(-0.0832093 -0.0400364 0)
(-0.0576893 -0.0495828 0)
(-0.0667078 -0.0631717 0)
(-0.100773 -0.0680944 0)
(-0.0950496 -0.0808508 0)
(-0.0594658 -0.0963859 0)
(-0.0252901 -0.123953 0)
(-0.00178029 -0.147152 0)
(0.0309387 -0.169134 0)
(0.0910461 -0.200232 0)
(0.142009 -0.214211 0)
(0.164727 -0.217111 0)
(0.164719 -0.21435 0)
(0.140582 -0.21835 0)
(0.0911363 -0.219912 0)
(0.032451 -0.217257 0)
(-0.0133915 -0.210303 0)
(-0.0472088 -0.196461 0)
(-0.0809595 -0.189477 0)
(-0.111212 -0.186324 0)
(-0.126556 -0.177178 0)
(-0.129431 -0.161746 0)
(-0.113493 -0.153448 0)
(-0.0846628 -0.121379 0)
(-0.0589254 -0.0745596 0)
(-0.0264501 -0.0287184 0)
(0.0134104 0.0172058 0)
(0.0753763 0.050268 0)
(0.139586 0.0463573 0)
(0.176534 0.0358163 0)
(0.192918 0.025963 0)
(0.190361 0.0295793 0)
(0.173432 0.033281 0)
(0.140525 0.0317736 0)
(0.0941547 0.00796082 0)
(0.042305 -0.00701046 0)
(0.0132184 -0.0185794 0)
(0.0141117 -0.0234346 0)
(0.0179453 -0.0391265 0)
(0.0134254 -0.0500068 0)
(-0.00353428 -0.0562781 0)
(-0.0189712 -0.0589356 0)
(-0.0305257 -0.0514794 0)
(-0.0448164 -0.043068 0)
(-0.0433199 -0.0272587 0)
(-0.0330296 -0.0185414 0)
(-0.0205056 -0.00331347 0)
(-0.00710956 0.0222383 0)
(-0.000131407 0.048394 0)
(-0.000149438 0.0720192 0)
(-0.000324778 0.0903256 0)
(0.00860029 0.10994 0)
(0.0131535 0.116687 0)
(0.0241634 0.114156 0)
(0.0487262 0.114061 0)
(0.0663977 0.11404 0)
(0.0776931 0.0969528 0)
(0.0598555 0.0803597 0)
(-0.000987416 0.067526 0)
(-0.057492 0.0555082 0)
(-0.081805 0.0316031 0)
(-0.102452 0.0110242 0)
(-0.11419 -0.00451021 0)
(-0.109482 -0.0110235 0)
(-0.0926364 -0.0083686 0)
(-0.0597866 -0.0134208 0)
(-0.0242597 -0.0255499 0)
(0.0190781 -0.0245989 0)
(0.0523174 -0.019605 0)
(0.057221 -0.0400542 0)
(0.0464146 -0.0552535 0)
(0.0353463 -0.0659986 0)
(0.0241531 -0.0726963 0)
(0.0209762 -0.0772526 0)
(0.0206835 -0.0737217 0)
(0.0121764 -0.0673917 0)
(0.000934774 -0.0640061 0)
(-0.0364123 -0.0640475 0)
(-0.0900934 -0.0641911 0)
(-0.11826 -0.0514141 0)
(-0.12247 -0.0423326 0)
(-0.111702 -0.0409838 0)
(-0.0861263 -0.042059 0)
(-0.0533593 -0.0408489 0)
(-0.0154294 -0.0380479 0)
(0.0330258 -0.0345428 0)
(0.0763974 -0.0221705 0)
(0.115024 -0.00512085 0)
(0.150879 -0.0007153 0)
(0.165619 0.0019865 0)
(0.149903 0.00101888 0)
(0.0982374 -0.00279526 0)
(0.0292553 -0.00310707 0)
(0.00122184 0.00669809 0)
(-0.00801695 0.0181077 0)
(-0.0306052 0.0228876 0)
(-0.04402 0.0180284 0)
(-0.0534707 0.0111159 0)
(-0.0731841 -0.00160686 0)
(-0.0892648 -0.00553807 0)
(-0.086231 -0.00145571 0)
(-0.069189 -0.00880362 0)
(-0.0736705 -0.0222176 0)
(-0.0999826 -0.0308262 0)
(-0.0975912 -0.0414036 0)
(-0.0702265 -0.0626698 0)
(-0.0370331 -0.0820088 0)
(-0.0108305 -0.0980329 0)
(0.0168864 -0.105844 0)
(0.0752674 -0.134242 0)
(0.137574 -0.164676 0)
(0.169929 -0.168835 0)
(0.165793 -0.166841 0)
(0.13936 -0.173858 0)
(0.0946684 -0.1693 0)
(0.0383936 -0.163975 0)
(-0.0109995 -0.149436 0)
(-0.0507118 -0.150883 0)
(-0.0838584 -0.156564 0)
(-0.113705 -0.15905 0)
(-0.129563 -0.151158 0)
(-0.129879 -0.131246 0)
(-0.107442 -0.109376 0)
(-0.0654617 -0.088158 0)
(-0.0330192 -0.0558126 0)
(0.00135279 -0.013231 0)
(0.0428548 0.0335884 0)
(0.0839141 0.0738009 0)
(0.128438 0.0686 0)
(0.167991 0.050862 0)
(0.19303 0.0363102 0)
(0.196018 0.0353733 0)
(0.177235 0.03417 0)
(0.133518 0.0313269 0)
(0.0810361 0.0147182 0)
(0.0382891 -0.00101235 0)
(0.0131825 -0.00289662 0)
(0.00575251 -0.0131085 0)
(0.00701664 -0.0400175 0)
(0.00569067 -0.0600586 0)
(-0.0101201 -0.0730073 0)
(-0.0206118 -0.0727151 0)
(-0.0277242 -0.0673396 0)
(-0.0354247 -0.0557735 0)
(-0.0327385 -0.0370296 0)
(-0.027194 -0.0211002 0)
(-0.0117294 -0.00457957 0)
(0.0053985 0.0165037 0)
(0.0109635 0.0436291 0)
(0.0110963 0.0585907 0)
(0.0121419 0.075142 0)
(0.0166019 0.0889208 0)
(0.0175371 0.102398 0)
(0.0249095 0.113768 0)
(0.0479509 0.113514 0)
(0.0652244 0.101111 0)
(0.0700486 0.0870299 0)
(0.0507393 0.0638671 0)