/*--------------------------------*- C++ -*----------------------------------*\
| =========                 |                                                 |
| \\      /  F ield         | OpenFOAM: The Open Source CFD Toolbox           |
|  \\    /   O peration     | Version:  v2012                                 |
|   \\  /    A nd           | Website:  www.openfoam.com                      |
|    \\/     M anipulation  |                                                 |
\*---------------------------------------------------------------------------*/
FoamFile
{
    version     2.0;
    format      ascii;
    class       volVectorField;
    location    "19.5";
    object      Psi;
}
// * * * * * * * * * * * * * * * * * * * * * * * * * * * * * * * * * * * * * //

dimensions      [0 2 -1 0 0 0 0];


internalField   nonuniform List<vector> 
65536
(
(0 0 7.95362e-06)
(0 0 2.38612e-05)
(0 0 3.97698e-05)
(0 0 5.568e-05)
(0 0 7.15925e-05)
(0 0 8.7508e-05)
(0 0 0.000103427)
(0 0 0.00011935)
(0 0 0.000135278)
(0 0 0.000151212)
(0 0 0.000167152)
(0 0 0.000183098)
(0 0 0.000199051)
(0 0 0.000215012)
(0 0 0.000230982)
(0 0 0.00024696)
(0 0 0.000262948)
(0 0 0.000278945)
(0 0 0.000294952)
(0 0 0.00031097)
(0 0 0.000326999)
(0 0 0.00034304)
(0 0 0.000359092)
(0 0 0.000375156)
(0 0 0.000391232)
(0 0 0.00040732)
(0 0 0.000423421)
(0 0 0.000439535)
(0 0 0.000455661)
(0 0 0.0004718)
(0 0 0.000487952)
(0 0 0.000504116)
(0 0 0.000520293)
(0 0 0.000536483)
(0 0 0.000552684)
(0 0 0.000568897)
(0 0 0.000585122)
(0 0 0.000601358)
(0 0 0.000617604)
(0 0 0.00063386)
(0 0 0.000650126)
(0 0 0.000666399)
(0 0 0.000682681)
(0 0 0.00069897)
(0 0 0.000715264)
(0 0 0.000731563)
(0 0 0.000747866)
(0 0 0.000764172)
(0 0 0.000780478)
(0 0 0.000796784)
(0 0 0.000813088)
(0 0 0.000829389)
(0 0 0.000845684)
(0 0 0.000861972)
(0 0 0.00087825)
(0 0 0.000894518)
(0 0 0.000910772)
(0 0 0.00092701)
(0 0 0.000943229)
(0 0 0.000959428)
(0 0 0.000975603)
(0 0 0.000991751)
(0 0 0.00100787)
(0 0 0.00102396)
(0 0 0.00104)
(0 0 0.00105601)
(0 0 0.00107198)
(0 0 0.0010879)
(0 0 0.00110377)
(0 0 0.00111959)
(0 0 0.00113534)
(0 0 0.00115103)
(0 0 0.00116666)
(0 0 0.00118221)
(0 0 0.00119768)
(0 0 0.00121308)
(0 0 0.00122838)
(0 0 0.00124359)
(0 0 0.00125871)
(0 0 0.00127372)
(0 0 0.00128862)
(0 0 0.0013034)
(0 0 0.00131807)
(0 0 0.0013326)
(0 0 0.001347)
(0 0 0.00136126)
(0 0 0.00137538)
(0 0 0.00138934)
(0 0 0.00140314)
(0 0 0.00141677)
(0 0 0.00143023)
(0 0 0.00144351)
(0 0 0.00145659)
(0 0 0.00146948)
(0 0 0.00148217)
(0 0 0.00149465)
(0 0 0.0015069)
(0 0 0.00151893)
(0 0 0.00153073)
(0 0 0.00154228)
(0 0 0.00155359)
(0 0 0.00156463)
(0 0 0.00157541)
(0 0 0.00158592)
(0 0 0.00159615)
(0 0 0.00160609)
(0 0 0.00161574)
(0 0 0.00162508)
(0 0 0.00163411)
(0 0 0.00164282)
(0 0 0.00165121)
(0 0 0.00165927)
(0 0 0.00166699)
(0 0 0.00167436)
(0 0 0.00168138)
(0 0 0.00168805)
(0 0 0.00169434)
(0 0 0.00170027)
(0 0 0.00170583)
(0 0 0.001711)
(0 0 0.00171579)
(0 0 0.00172018)
(0 0 0.00172418)
(0 0 0.00172778)
(0 0 0.00173098)
(0 0 0.00173377)
(0 0 0.00173615)
(0 0 0.00173812)
(0 0 0.00173967)
(0 0 0.0017408)
(0 0 0.00174151)
(0 0 0.00174181)
(0 0 0.00174168)
(0 0 0.00174113)
(0 0 0.00174015)
(0 0 0.00173876)
(0 0 0.00173694)
(0 0 0.0017347)
(0 0 0.00173204)
(0 0 0.00172897)
(0 0 0.00172547)
(0 0 0.00172157)
(0 0 0.00171725)
(0 0 0.00171253)
(0 0 0.0017074)
(0 0 0.00170188)
(0 0 0.00169595)
(0 0 0.00168964)
(0 0 0.00168294)
(0 0 0.00167586)
(0 0 0.00166841)
(0 0 0.00166058)
(0 0 0.00165239)
(0 0 0.00164384)
(0 0 0.00163494)
(0 0 0.0016257)
(0 0 0.00161611)
(0 0 0.0016062)
(0 0 0.00159596)
(0 0 0.00158541)
(0 0 0.00157454)
(0 0 0.00156338)
(0 0 0.00155192)
(0 0 0.00154017)
(0 0 0.00152814)
(0 0 0.00151584)
(0 0 0.00150328)
(0 0 0.00149047)
(0 0 0.0014774)
(0 0 0.0014641)
(0 0 0.00145056)
(0 0 0.0014368)
(0 0 0.00142283)
(0 0 0.00140864)
(0 0 0.00139425)
(0 0 0.00137967)
(0 0 0.00136491)
(0 0 0.00134996)
(0 0 0.00133485)
(0 0 0.00131957)
(0 0 0.00130413)
(0 0 0.00128854)
(0 0 0.00127281)
(0 0 0.00125695)
(0 0 0.00124095)
(0 0 0.00122483)
(0 0 0.00120859)
(0 0 0.00119224)
(0 0 0.00117579)
(0 0 0.00115923)
(0 0 0.00114259)
(0 0 0.00112585)
(0 0 0.00110903)
(0 0 0.00109213)
(0 0 0.00107516)
(0 0 0.00105813)
(0 0 0.00104102)
(0 0 0.00102386)
(0 0 0.00100665)
(0 0 0.000989382)
(0 0 0.00097207)
(0 0 0.000954715)
(0 0 0.000937321)
(0 0 0.000919892)
(0 0 0.000902431)
(0 0 0.000884941)
(0 0 0.000867425)
(0 0 0.000849886)
(0 0 0.000832327)
(0 0 0.000814751)
(0 0 0.000797159)
(0 0 0.000779555)
(0 0 0.00076194)
(0 0 0.000744318)
(0 0 0.000726688)
(0 0 0.000709054)
(0 0 0.000691417)
(0 0 0.000673779)
(0 0 0.000656141)
(0 0 0.000638504)
(0 0 0.00062087)
(0 0 0.00060324)
(0 0 0.000585614)
(0 0 0.000567995)
(0 0 0.000550382)
(0 0 0.000532776)
(0 0 0.000515178)
(0 0 0.000497589)
(0 0 0.000480009)
(0 0 0.000462438)
(0 0 0.000444877)
(0 0 0.000427326)
(0 0 0.000409785)
(0 0 0.000392254)
(0 0 0.000374733)
(0 0 0.000357223)
(0 0 0.000339723)
(0 0 0.000322233)
(0 0 0.000304752)
(0 0 0.000287281)
(0 0 0.00026982)
(0 0 0.000252367)
(0 0 0.000234923)
(0 0 0.000217486)
(0 0 0.000200058)
(0 0 0.000182637)
(0 0 0.000165222)
(0 0 0.000147813)
(0 0 0.00013041)
(0 0 0.000113012)
(0 0 9.56183e-05)
(0 0 7.82281e-05)
(0 0 6.08409e-05)
(0 0 4.34561e-05)
(0 0 2.6073e-05)
(0 0 8.69088e-06)
(0 0 2.38606e-05)
(0 0 7.15827e-05)
(0 0 0.000119308)
(0 0 0.000167038)
(0 0 0.000214775)
(0 0 0.000262521)
(0 0 0.000310277)
(0 0 0.000358046)
(0 0 0.00040583)
(0 0 0.00045363)
(0 0 0.000501448)
(0 0 0.000549287)
(0 0 0.000597146)
(0 0 0.000645029)
(0 0 0.000692937)
(0 0 0.000740871)
(0 0 0.000788834)
(0 0 0.000836825)
(0 0 0.000884847)
(0 0 0.000932901)
(0 0 0.000980987)
(0 0 0.00102911)
(0 0 0.00107726)
(0 0 0.00112546)
(0 0 0.00117368)
(0 0 0.00122195)
(0 0 0.00127025)
(0 0 0.00131859)
(0 0 0.00136697)
(0 0 0.00141539)
(0 0 0.00146384)
(0 0 0.00151234)
(0 0 0.00156087)
(0 0 0.00160944)
(0 0 0.00165804)
(0 0 0.00170668)
(0 0 0.00175536)
(0 0 0.00180406)
(0 0 0.0018528)
(0 0 0.00190157)
(0 0 0.00195037)
(0 0 0.00199919)
(0 0 0.00204804)
(0 0 0.0020969)
(0 0 0.00214579)
(0 0 0.00219469)
(0 0 0.0022436)
(0 0 0.00229252)
(0 0 0.00234144)
(0 0 0.00239036)
(0 0 0.00243927)
(0 0 0.00248817)
(0 0 0.00253706)
(0 0 0.00258593)
(0 0 0.00263476)
(0 0 0.00268357)
(0 0 0.00273233)
(0 0 0.00278105)
(0 0 0.00282971)
(0 0 0.00287831)
(0 0 0.00292684)
(0 0 0.00297528)
(0 0 0.00302364)
(0 0 0.0030719)
(0 0 0.00312006)
(0 0 0.00316809)
(0 0 0.00321599)
(0 0 0.00326376)
(0 0 0.00331137)
(0 0 0.00335882)
(0 0 0.00340609)
(0 0 0.00345317)
(0 0 0.00350005)
(0 0 0.00354671)
(0 0 0.00359314)
(0 0 0.00363932)
(0 0 0.00368524)
(0 0 0.00373088)
(0 0 0.00377623)
(0 0 0.00382126)
(0 0 0.00386597)
(0 0 0.00391033)
(0 0 0.00395433)
(0 0 0.00399794)
(0 0 0.00404115)
(0 0 0.00408395)
(0 0 0.0041263)
(0 0 0.00416818)
(0 0 0.00420959)
(0 0 0.0042505)
(0 0 0.00429088)
(0 0 0.00433071)
(0 0 0.00436998)
(0 0 0.00440866)
(0 0 0.00444673)
(0 0 0.00448416)
(0 0 0.00452094)
(0 0 0.00455703)
(0 0 0.00459243)
(0 0 0.0046271)
(0 0 0.00466102)
(0 0 0.00469416)
(0 0 0.00472651)
(0 0 0.00475805)
(0 0 0.00478874)
(0 0 0.00481857)
(0 0 0.00484751)
(0 0 0.00487554)
(0 0 0.00490265)
(0 0 0.00492879)
(0 0 0.00495397)
(0 0 0.00497815)
(0 0 0.00500131)
(0 0 0.00502344)
(0 0 0.00504451)
(0 0 0.0050645)
(0 0 0.00508341)
(0 0 0.0051012)
(0 0 0.00511787)
(0 0 0.00513339)
(0 0 0.00514775)
(0 0 0.00516094)
(0 0 0.00517295)
(0 0 0.00518375)
(0 0 0.00519335)
(0 0 0.00520172)
(0 0 0.00520886)
(0 0 0.00521476)
(0 0 0.00521942)
(0 0 0.00522282)
(0 0 0.00522496)
(0 0 0.00522584)
(0 0 0.00522546)
(0 0 0.00522381)
(0 0 0.00522088)
(0 0 0.00521669)
(0 0 0.00521124)
(0 0 0.00520452)
(0 0 0.00519654)
(0 0 0.00518731)
(0 0 0.00517684)
(0 0 0.00516512)
(0 0 0.00515217)
(0 0 0.00513799)
(0 0 0.00512261)
(0 0 0.00510603)
(0 0 0.00508826)
(0 0 0.00506931)
(0 0 0.00504921)
(0 0 0.00502796)
(0 0 0.00500559)
(0 0 0.00498211)
(0 0 0.00495753)
(0 0 0.00493188)
(0 0 0.00490517)
(0 0 0.00487743)
(0 0 0.00484868)
(0 0 0.00481893)
(0 0 0.00478821)
(0 0 0.00475653)
(0 0 0.00472393)
(0 0 0.00469043)
(0 0 0.00465604)
(0 0 0.00462079)
(0 0 0.0045847)
(0 0 0.0045478)
(0 0 0.00451011)
(0 0 0.00447165)
(0 0 0.00443245)
(0 0 0.00439253)
(0 0 0.00435191)
(0 0 0.00431062)
(0 0 0.00426868)
(0 0 0.00422612)
(0 0 0.00418295)
(0 0 0.00413921)
(0 0 0.0040949)
(0 0 0.00405006)
(0 0 0.00400471)
(0 0 0.00395886)
(0 0 0.00391254)
(0 0 0.00386577)
(0 0 0.00381858)
(0 0 0.00377097)
(0 0 0.00372297)
(0 0 0.0036746)
(0 0 0.00362588)
(0 0 0.00357683)
(0 0 0.00352746)
(0 0 0.00347779)
(0 0 0.00342784)
(0 0 0.00337763)
(0 0 0.00332717)
(0 0 0.00327647)
(0 0 0.00322556)
(0 0 0.00317444)
(0 0 0.00312313)
(0 0 0.00307164)
(0 0 0.00301999)
(0 0 0.00296819)
(0 0 0.00291625)
(0 0 0.00286418)
(0 0 0.002812)
(0 0 0.00275971)
(0 0 0.00270732)
(0 0 0.00265485)
(0 0 0.0026023)
(0 0 0.00254968)
(0 0 0.002497)
(0 0 0.00244427)
(0 0 0.00239149)
(0 0 0.00233867)
(0 0 0.00228583)
(0 0 0.00223296)
(0 0 0.00218007)
(0 0 0.00212716)
(0 0 0.00207425)
(0 0 0.00202134)
(0 0 0.00196842)
(0 0 0.00191551)
(0 0 0.0018626)
(0 0 0.00180971)
(0 0 0.00175684)
(0 0 0.00170398)
(0 0 0.00165114)
(0 0 0.00159832)
(0 0 0.00154553)
(0 0 0.00149276)
(0 0 0.00144002)
(0 0 0.0013873)
(0 0 0.00133462)
(0 0 0.00128197)
(0 0 0.00122934)
(0 0 0.00117675)
(0 0 0.00112419)
(0 0 0.00107166)
(0 0 0.00101916)
(0 0 0.000966688)
(0 0 0.000914246)
(0 0 0.000861834)
(0 0 0.00080945)
(0 0 0.000757092)
(0 0 0.000704759)
(0 0 0.000652452)
(0 0 0.000600167)
(0 0 0.000547903)
(0 0 0.00049566)
(0 0 0.000443435)
(0 0 0.000391226)
(0 0 0.000339032)
(0 0 0.000286851)
(0 0 0.000234681)
(0 0 0.00018252)
(0 0 0.000130367)
(0 0 7.82179e-05)
(0 0 2.60723e-05)
(0 0 3.97665e-05)
(0 0 0.000119301)
(0 0 0.000198841)
(0 0 0.000278389)
(0 0 0.000357948)
(0 0 0.000437522)
(0 0 0.000517115)
(0 0 0.000596728)
(0 0 0.000676365)
(0 0 0.00075603)
(0 0 0.000835725)
(0 0 0.000915454)
(0 0 0.000995218)
(0 0 0.00107502)
(0 0 0.00115487)
(0 0 0.00123475)
(0 0 0.00131469)
(0 0 0.00139467)
(0 0 0.00147471)
(0 0 0.0015548)
(0 0 0.00163494)
(0 0 0.00171514)
(0 0 0.0017954)
(0 0 0.00187572)
(0 0 0.0019561)
(0 0 0.00203654)
(0 0 0.00211704)
(0 0 0.00219761)
(0 0 0.00227824)
(0 0 0.00235894)
(0 0 0.0024397)
(0 0 0.00252052)
(0 0 0.00260141)
(0 0 0.00268235)
(0 0 0.00276336)
(0 0 0.00284443)
(0 0 0.00292556)
(0 0 0.00300674)
(0 0 0.00308797)
(0 0 0.00316926)
(0 0 0.00325059)
(0 0 0.00333196)
(0 0 0.00341337)
(0 0 0.00349482)
(0 0 0.0035763)
(0 0 0.0036578)
(0 0 0.00373932)
(0 0 0.00382086)
(0 0 0.00390239)
(0 0 0.00398393)
(0 0 0.00406546)
(0 0 0.00414697)
(0 0 0.00422846)
(0 0 0.00430991)
(0 0 0.00439131)
(0 0 0.00447266)
(0 0 0.00455394)
(0 0 0.00463514)
(0 0 0.00471625)
(0 0 0.00479726)
(0 0 0.00487815)
(0 0 0.00495891)
(0 0 0.00503951)
(0 0 0.00511996)
(0 0 0.00520023)
(0 0 0.00528029)
(0 0 0.00536015)
(0 0 0.00543977)
(0 0 0.00551914)
(0 0 0.00559823)
(0 0 0.00567703)
(0 0 0.00575551)
(0 0 0.00583366)
(0 0 0.00591144)
(0 0 0.00598884)
(0 0 0.00606582)
(0 0 0.00614237)
(0 0 0.00621846)
(0 0 0.00629406)
(0 0 0.00636914)
(0 0 0.00644367)
(0 0 0.00651762)
(0 0 0.00659097)
(0 0 0.00666368)
(0 0 0.00673573)
(0 0 0.00680707)
(0 0 0.00687767)
(0 0 0.00694751)
(0 0 0.00701655)
(0 0 0.00708474)
(0 0 0.00715207)
(0 0 0.00721849)
(0 0 0.00728396)
(0 0 0.00734845)
(0 0 0.00741192)
(0 0 0.00747433)
(0 0 0.00753565)
(0 0 0.00759584)
(0 0 0.00765485)
(0 0 0.00771266)
(0 0 0.00776922)
(0 0 0.00782449)
(0 0 0.00787843)
(0 0 0.00793102)
(0 0 0.0079822)
(0 0 0.00803194)
(0 0 0.0080802)
(0 0 0.00812694)
(0 0 0.00817214)
(0 0 0.00821574)
(0 0 0.00825772)
(0 0 0.00829804)
(0 0 0.00833667)
(0 0 0.00837357)
(0 0 0.00840871)
(0 0 0.00844206)
(0 0 0.00847358)
(0 0 0.00850326)
(0 0 0.00853105)
(0 0 0.00855694)
(0 0 0.00858089)
(0 0 0.00860289)
(0 0 0.00862291)
(0 0 0.00864094)
(0 0 0.00865694)
(0 0 0.0086709)
(0 0 0.00868282)
(0 0 0.00869266)
(0 0 0.00870043)
(0 0 0.0087061)
(0 0 0.00870968)
(0 0 0.00871115)
(0 0 0.00871051)
(0 0 0.00870775)
(0 0 0.00870288)
(0 0 0.0086959)
(0 0 0.0086868)
(0 0 0.0086756)
(0 0 0.0086623)
(0 0 0.00864691)
(0 0 0.00862944)
(0 0 0.0086099)
(0 0 0.0085883)
(0 0 0.00856467)
(0 0 0.00853902)
(0 0 0.00851136)
(0 0 0.00848173)
(0 0 0.00845014)
(0 0 0.00841662)
(0 0 0.00838119)
(0 0 0.00834388)
(0 0 0.00830472)
(0 0 0.00826374)
(0 0 0.00822097)
(0 0 0.00817644)
(0 0 0.00813018)
(0 0 0.00808223)
(0 0 0.00803263)
(0 0 0.0079814)
(0 0 0.00792859)
(0 0 0.00787423)
(0 0 0.00781836)
(0 0 0.00776102)
(0 0 0.00770224)
(0 0 0.00764207)
(0 0 0.00758054)
(0 0 0.00751769)
(0 0 0.00745357)
(0 0 0.00738821)
(0 0 0.00732165)
(0 0 0.00725393)
(0 0 0.00718509)
(0 0 0.00711517)
(0 0 0.00704421)
(0 0 0.00697224)
(0 0 0.0068993)
(0 0 0.00682543)
(0 0 0.00675067)
(0 0 0.00667506)
(0 0 0.00659862)
(0 0 0.0065214)
(0 0 0.00644343)
(0 0 0.00636475)
(0 0 0.00628538)
(0 0 0.00620536)
(0 0 0.00612473)
(0 0 0.00604351)
(0 0 0.00596173)
(0 0 0.00587943)
(0 0 0.00579664)
(0 0 0.00571337)
(0 0 0.00562966)
(0 0 0.00554554)
(0 0 0.00546103)
(0 0 0.00537616)
(0 0 0.00529094)
(0 0 0.00520541)
(0 0 0.00511959)
(0 0 0.00503349)
(0 0 0.00494714)
(0 0 0.00486056)
(0 0 0.00477377)
(0 0 0.00468678)
(0 0 0.00459962)
(0 0 0.0045123)
(0 0 0.00442483)
(0 0 0.00433724)
(0 0 0.00424953)
(0 0 0.00416172)
(0 0 0.00407383)
(0 0 0.00398586)
(0 0 0.00389783)
(0 0 0.00380974)
(0 0 0.00372162)
(0 0 0.00363346)
(0 0 0.00354528)
(0 0 0.00345709)
(0 0 0.00336889)
(0 0 0.00328069)
(0 0 0.0031925)
(0 0 0.00310433)
(0 0 0.00301617)
(0 0 0.00292804)
(0 0 0.00283994)
(0 0 0.00275187)
(0 0 0.00266384)
(0 0 0.00257585)
(0 0 0.0024879)
(0 0 0.0024)
(0 0 0.00231214)
(0 0 0.00222433)
(0 0 0.00213658)
(0 0 0.00204887)
(0 0 0.00196122)
(0 0 0.00187361)
(0 0 0.00178606)
(0 0 0.00169856)
(0 0 0.00161111)
(0 0 0.00152371)
(0 0 0.00143636)
(0 0 0.00134905)
(0 0 0.00126179)
(0 0 0.00117457)
(0 0 0.00108739)
(0 0 0.00100025)
(0 0 0.00091315)
(0 0 0.000826079)
(0 0 0.000739039)
(0 0 0.000652027)
(0 0 0.000565039)
(0 0 0.000478073)
(0 0 0.000391125)
(0 0 0.000304193)
(0 0 0.000217272)
(0 0 0.00013036)
(0 0 4.34527e-05)
(0 0 5.56708e-05)
(0 0 0.000167015)
(0 0 0.000278366)
(0 0 0.000389728)
(0 0 0.000501107)
(0 0 0.000612506)
(0 0 0.000723931)
(0 0 0.000835385)
(0 0 0.000946873)
(0 0 0.0010584)
(0 0 0.00116997)
(0 0 0.00128158)
(0 0 0.00139325)
(0 0 0.00150497)
(0 0 0.00161675)
(0 0 0.00172859)
(0 0 0.0018405)
(0 0 0.00195247)
(0 0 0.00206452)
(0 0 0.00217664)
(0 0 0.00228884)
(0 0 0.00240112)
(0 0 0.00251348)
(0 0 0.00262592)
(0 0 0.00273845)
(0 0 0.00285107)
(0 0 0.00296377)
(0 0 0.00307657)
(0 0 0.00318945)
(0 0 0.00330242)
(0 0 0.00341549)
(0 0 0.00352864)
(0 0 0.00364188)
(0 0 0.00375521)
(0 0 0.00386863)
(0 0 0.00398212)
(0 0 0.0040957)
(0 0 0.00420936)
(0 0 0.00432309)
(0 0 0.00443689)
(0 0 0.00455076)
(0 0 0.00466469)
(0 0 0.00477868)
(0 0 0.00489271)
(0 0 0.00500678)
(0 0 0.0051209)
(0 0 0.00523503)
(0 0 0.00534919)
(0 0 0.00546335)
(0 0 0.00557752)
(0 0 0.00569167)
(0 0 0.0058058)
(0 0 0.00591989)
(0 0 0.00603393)
(0 0 0.00614792)
(0 0 0.00626182)
(0 0 0.00637563)
(0 0 0.00648933)
(0 0 0.0066029)
(0 0 0.00671633)
(0 0 0.0068296)
(0 0 0.00694268)
(0 0 0.00705555)
(0 0 0.0071682)
(0 0 0.00728059)
(0 0 0.00739271)
(0 0 0.00750453)
(0 0 0.00761603)
(0 0 0.00772717)
(0 0 0.00783793)
(0 0 0.00794828)
(0 0 0.00805819)
(0 0 0.00816763)
(0 0 0.00827656)
(0 0 0.00838495)
(0 0 0.00849276)
(0 0 0.00859997)
(0 0 0.00870653)
(0 0 0.00881241)
(0 0 0.00891756)
(0 0 0.00902194)
(0 0 0.00912552)
(0 0 0.00922825)
(0 0 0.00933009)
(0 0 0.009431)
(0 0 0.00953092)
(0 0 0.00962982)
(0 0 0.00972764)
(0 0 0.00982434)
(0 0 0.00991986)
(0 0 0.0100142)
(0 0 0.0101072)
(0 0 0.0101989)
(0 0 0.0102893)
(0 0 0.0103782)
(0 0 0.0104656)
(0 0 0.0105515)
(0 0 0.0106358)
(0 0 0.0107185)
(0 0 0.0107995)
(0 0 0.0108787)
(0 0 0.0109561)
(0 0 0.0110317)
(0 0 0.0111054)
(0 0 0.0111771)
(0 0 0.0112468)
(0 0 0.0113144)
(0 0 0.0113799)
(0 0 0.0114432)
(0 0 0.0115043)
(0 0 0.0115631)
(0 0 0.0116196)
(0 0 0.0116738)
(0 0 0.0117255)
(0 0 0.0117747)
(0 0 0.0118214)
(0 0 0.0118656)
(0 0 0.0119072)
(0 0 0.0119461)
(0 0 0.0119824)
(0 0 0.012016)
(0 0 0.0120468)
(0 0 0.0120749)
(0 0 0.0121001)
(0 0 0.0121226)
(0 0 0.0121421)
(0 0 0.0121588)
(0 0 0.0121726)
(0 0 0.0121835)
(0 0 0.0121915)
(0 0 0.0121965)
(0 0 0.0121986)
(0 0 0.0121977)
(0 0 0.0121938)
(0 0 0.012187)
(0 0 0.0121772)
(0 0 0.0121645)
(0 0 0.0121488)
(0 0 0.0121301)
(0 0 0.0121086)
(0 0 0.0120841)
(0 0 0.0120567)
(0 0 0.0120265)
(0 0 0.0119934)
(0 0 0.0119574)
(0 0 0.0119187)
(0 0 0.0118772)
(0 0 0.0118329)
(0 0 0.0117859)
(0 0 0.0117363)
(0 0 0.011684)
(0 0 0.0116292)
(0 0 0.0115717)
(0 0 0.0115118)
(0 0 0.0114494)
(0 0 0.0113846)
(0 0 0.0113174)
(0 0 0.0112479)
(0 0 0.0111762)
(0 0 0.0111022)
(0 0 0.011026)
(0 0 0.0109478)
(0 0 0.0108674)
(0 0 0.0107851)
(0 0 0.0107008)
(0 0 0.0106146)
(0 0 0.0105266)
(0 0 0.0104367)
(0 0 0.0103452)
(0 0 0.0102519)
(0 0 0.0101571)
(0 0 0.0100606)
(0 0 0.0099627)
(0 0 0.00986329)
(0 0 0.00976248)
(0 0 0.00966032)
(0 0 0.00955685)
(0 0 0.00945214)
(0 0 0.00934623)
(0 0 0.00923917)
(0 0 0.00913101)
(0 0 0.00902181)
(0 0 0.0089116)
(0 0 0.00880044)
(0 0 0.00868837)
(0 0 0.00857544)
(0 0 0.00846169)
(0 0 0.00834716)
(0 0 0.0082319)
(0 0 0.00811595)
(0 0 0.00799933)
(0 0 0.00788211)
(0 0 0.0077643)
(0 0 0.00764595)
(0 0 0.00752709)
(0 0 0.00740776)
(0 0 0.00728799)
(0 0 0.0071678)
(0 0 0.00704724)
(0 0 0.00692632)
(0 0 0.00680508)
(0 0 0.00668355)
(0 0 0.00656174)
(0 0 0.00643969)
(0 0 0.00631742)
(0 0 0.00619494)
(0 0 0.00607229)
(0 0 0.00594948)
(0 0 0.00582653)
(0 0 0.00570346)
(0 0 0.00558029)
(0 0 0.00545703)
(0 0 0.0053337)
(0 0 0.00521031)
(0 0 0.00508688)
(0 0 0.00496342)
(0 0 0.00483994)
(0 0 0.00471645)
(0 0 0.00459296)
(0 0 0.00446949)
(0 0 0.00434603)
(0 0 0.00422261)
(0 0 0.00409922)
(0 0 0.00397587)
(0 0 0.00385257)
(0 0 0.00372932)
(0 0 0.00360613)
(0 0 0.00348299)
(0 0 0.00335993)
(0 0 0.00323693)
(0 0 0.003114)
(0 0 0.00299114)
(0 0 0.00286835)
(0 0 0.00274563)
(0 0 0.00262299)
(0 0 0.00250042)
(0 0 0.00237792)
(0 0 0.00225549)
(0 0 0.00213313)
(0 0 0.00201084)
(0 0 0.00188861)
(0 0 0.00176645)
(0 0 0.00164434)
(0 0 0.0015223)
(0 0 0.00140031)
(0 0 0.00127836)
(0 0 0.00115647)
(0 0 0.00103462)
(0 0 0.000912803)
(0 0 0.000791024)
(0 0 0.000669276)
(0 0 0.000547554)
(0 0 0.000425853)
(0 0 0.000304169)
(0 0 0.000182497)
(0 0 6.08314e-05)
(0 0 7.15728e-05)
(0 0 0.000214721)
(0 0 0.000357879)
(0 0 0.000501052)
(0 0 0.000644245)
(0 0 0.000787465)
(0 0 0.000930717)
(0 0 0.00107401)
(0 0 0.00121734)
(0 0 0.00136073)
(0 0 0.00150417)
(0 0 0.00164766)
(0 0 0.00179123)
(0 0 0.00193486)
(0 0 0.00207857)
(0 0 0.00222236)
(0 0 0.00236624)
(0 0 0.0025102)
(0 0 0.00265425)
(0 0 0.00279841)
(0 0 0.00294266)
(0 0 0.00308701)
(0 0 0.00323147)
(0 0 0.00337604)
(0 0 0.00352071)
(0 0 0.00366551)
(0 0 0.00381041)
(0 0 0.00395543)
(0 0 0.00410057)
(0 0 0.00424582)
(0 0 0.00439119)
(0 0 0.00453667)
(0 0 0.00468227)
(0 0 0.00482798)
(0 0 0.0049738)
(0 0 0.00511973)
(0 0 0.00526577)
(0 0 0.00541191)
(0 0 0.00555814)
(0 0 0.00570446)
(0 0 0.00585087)
(0 0 0.00599736)
(0 0 0.00614393)
(0 0 0.00629055)
(0 0 0.00643723)
(0 0 0.00658396)
(0 0 0.00673073)
(0 0 0.00687751)
(0 0 0.00702431)
(0 0 0.00717112)
(0 0 0.0073179)
(0 0 0.00746466)
(0 0 0.00761137)
(0 0 0.00775802)
(0 0 0.0079046)
(0 0 0.00805107)
(0 0 0.00819742)
(0 0 0.00834364)
(0 0 0.0084897)
(0 0 0.00863556)
(0 0 0.00878122)
(0 0 0.00892665)
(0 0 0.00907181)
(0 0 0.00921668)
(0 0 0.00936123)
(0 0 0.00950543)
(0 0 0.00964925)
(0 0 0.00979264)
(0 0 0.00993559)
(0 0 0.010078)
(0 0 0.01022)
(0 0 0.0103613)
(0 0 0.0105021)
(0 0 0.0106422)
(0 0 0.0107816)
(0 0 0.0109203)
(0 0 0.0110582)
(0 0 0.0111953)
(0 0 0.0113315)
(0 0 0.0114667)
(0 0 0.011601)
(0 0 0.0117343)
(0 0 0.0118664)
(0 0 0.0119974)
(0 0 0.0121273)
(0 0 0.0122558)
(0 0 0.012383)
(0 0 0.0125089)
(0 0 0.0126333)
(0 0 0.0127562)
(0 0 0.0128775)
(0 0 0.0129972)
(0 0 0.0131152)
(0 0 0.0132315)
(0 0 0.0133459)
(0 0 0.0134584)
(0 0 0.0135689)
(0 0 0.0136774)
(0 0 0.0137838)
(0 0 0.013888)
(0 0 0.01399)
(0 0 0.0140896)
(0 0 0.0141869)
(0 0 0.0142817)
(0 0 0.014374)
(0 0 0.0144637)
(0 0 0.0145507)
(0 0 0.014635)
(0 0 0.0147165)
(0 0 0.0147952)
(0 0 0.0148709)
(0 0 0.0149436)
(0 0 0.0150133)
(0 0 0.0150798)
(0 0 0.0151432)
(0 0 0.0152034)
(0 0 0.0152602)
(0 0 0.0153138)
(0 0 0.0153639)
(0 0 0.0154106)
(0 0 0.0154538)
(0 0 0.0154935)
(0 0 0.0155296)
(0 0 0.0155622)
(0 0 0.015591)
(0 0 0.0156162)
(0 0 0.0156378)
(0 0 0.0156555)
(0 0 0.0156695)
(0 0 0.0156798)
(0 0 0.0156863)
(0 0 0.0156889)
(0 0 0.0156878)
(0 0 0.0156828)
(0 0 0.0156741)
(0 0 0.0156615)
(0 0 0.0156451)
(0 0 0.0156249)
(0 0 0.0156009)
(0 0 0.0155732)
(0 0 0.0155417)
(0 0 0.0155064)
(0 0 0.0154675)
(0 0 0.0154249)
(0 0 0.0153786)
(0 0 0.0153288)
(0 0 0.0152753)
(0 0 0.0152184)
(0 0 0.0151579)
(0 0 0.015094)
(0 0 0.0150268)
(0 0 0.0149562)
(0 0 0.0148823)
(0 0 0.0148051)
(0 0 0.0147248)
(0 0 0.0146414)
(0 0 0.014555)
(0 0 0.0144655)
(0 0 0.0143732)
(0 0 0.014278)
(0 0 0.01418)
(0 0 0.0140792)
(0 0 0.0139759)
(0 0 0.0138699)
(0 0 0.0137614)
(0 0 0.0136505)
(0 0 0.0135372)
(0 0 0.0134216)
(0 0 0.0133038)
(0 0 0.0131838)
(0 0 0.0130618)
(0 0 0.0129377)
(0 0 0.0128117)
(0 0 0.0126838)
(0 0 0.0125541)
(0 0 0.0124226)
(0 0 0.0122895)
(0 0 0.0121548)
(0 0 0.0120185)
(0 0 0.0118808)
(0 0 0.0117417)
(0 0 0.0116012)
(0 0 0.0114594)
(0 0 0.0113164)
(0 0 0.0111722)
(0 0 0.011027)
(0 0 0.0108806)
(0 0 0.0107333)
(0 0 0.0105851)
(0 0 0.0104359)
(0 0 0.0102859)
(0 0 0.0101351)
(0 0 0.0099836)
(0 0 0.00983138)
(0 0 0.00967851)
(0 0 0.00952502)
(0 0 0.00937097)
(0 0 0.0092164)
(0 0 0.00906134)
(0 0 0.00890583)
(0 0 0.0087499)
(0 0 0.0085936)
(0 0 0.00843695)
(0 0 0.00827998)
(0 0 0.00812274)
(0 0 0.00796523)
(0 0 0.0078075)
(0 0 0.00764957)
(0 0 0.00749146)
(0 0 0.0073332)
(0 0 0.00717481)
(0 0 0.0070163)
(0 0 0.00685771)
(0 0 0.00669904)
(0 0 0.00654033)
(0 0 0.00638157)
(0 0 0.00622279)
(0 0 0.006064)
(0 0 0.00590522)
(0 0 0.00574645)
(0 0 0.00558771)
(0 0 0.00542901)
(0 0 0.00527035)
(0 0 0.00511175)
(0 0 0.00495321)
(0 0 0.00479474)
(0 0 0.00463634)
(0 0 0.00447803)
(0 0 0.00431979)
(0 0 0.00416165)
(0 0 0.00400359)
(0 0 0.00384562)
(0 0 0.00368775)
(0 0 0.00352997)
(0 0 0.00337229)
(0 0 0.0032147)
(0 0 0.0030572)
(0 0 0.0028998)
(0 0 0.00274248)
(0 0 0.00258525)
(0 0 0.00242811)
(0 0 0.00227104)
(0 0 0.00211406)
(0 0 0.00195715)
(0 0 0.00180031)
(0 0 0.00164353)
(0 0 0.00148681)
(0 0 0.00133015)
(0 0 0.00117354)
(0 0 0.00101698)
(0 0 0.000860454)
(0 0 0.000703962)
(0 0 0.000547497)
(0 0 0.000391054)
(0 0 0.000234626)
(0 0 7.82077e-05)
(0 0 8.74718e-05)
(0 0 0.000262419)
(0 0 0.000437377)
(0 0 0.000612354)
(0 0 0.000787356)
(0 0 0.000962391)
(0 0 0.00113747)
(0 0 0.00131259)
(0 0 0.00148776)
(0 0 0.001663)
(0 0 0.0018383)
(0 0 0.00201368)
(0 0 0.00218914)
(0 0 0.00236468)
(0 0 0.00254032)
(0 0 0.00271605)
(0 0 0.00289189)
(0 0 0.00306783)
(0 0 0.00324389)
(0 0 0.00342007)
(0 0 0.00359637)
(0 0 0.0037728)
(0 0 0.00394935)
(0 0 0.00412604)
(0 0 0.00430287)
(0 0 0.00447983)
(0 0 0.00465693)
(0 0 0.00483418)
(0 0 0.00501157)
(0 0 0.0051891)
(0 0 0.00536677)
(0 0 0.00554459)
(0 0 0.00572255)
(0 0 0.00590064)
(0 0 0.00607887)
(0 0 0.00625724)
(0 0 0.00643574)
(0 0 0.00661436)
(0 0 0.0067931)
(0 0 0.00697195)
(0 0 0.00715091)
(0 0 0.00732997)
(0 0 0.00750911)
(0 0 0.00768834)
(0 0 0.00786764)
(0 0 0.00804699)
(0 0 0.00822639)
(0 0 0.00840583)
(0 0 0.00858527)
(0 0 0.00876473)
(0 0 0.00894416)
(0 0 0.00912356)
(0 0 0.00930291)
(0 0 0.00948219)
(0 0 0.00966137)
(0 0 0.00984044)
(0 0 0.0100194)
(0 0 0.0101981)
(0 0 0.0103767)
(0 0 0.010555)
(0 0 0.0107331)
(0 0 0.0109109)
(0 0 0.0110884)
(0 0 0.0112655)
(0 0 0.0114422)
(0 0 0.0116185)
(0 0 0.0117944)
(0 0 0.0119697)
(0 0 0.0121445)
(0 0 0.0123187)
(0 0 0.0124922)
(0 0 0.0126651)
(0 0 0.0128372)
(0 0 0.0130086)
(0 0 0.013179)
(0 0 0.0133486)
(0 0 0.0135173)
(0 0 0.0136849)
(0 0 0.0138515)
(0 0 0.0140169)
(0 0 0.0141811)
(0 0 0.0143441)
(0 0 0.0145057)
(0 0 0.014666)
(0 0 0.0148248)
(0 0 0.014982)
(0 0 0.0151376)
(0 0 0.0152916)
(0 0 0.0154438)
(0 0 0.0155941)
(0 0 0.0157425)
(0 0 0.015889)
(0 0 0.0160333)
(0 0 0.0161755)
(0 0 0.0163155)
(0 0 0.0164532)
(0 0 0.0165884)
(0 0 0.0167211)
(0 0 0.0168513)
(0 0 0.0169788)
(0 0 0.0171036)
(0 0 0.0172255)
(0 0 0.0173446)
(0 0 0.0174606)
(0 0 0.0175735)
(0 0 0.0176833)
(0 0 0.0177898)
(0 0 0.0178929)
(0 0 0.0179927)
(0 0 0.0180889)
(0 0 0.0181816)
(0 0 0.0182706)
(0 0 0.0183559)
(0 0 0.0184373)
(0 0 0.0185149)
(0 0 0.0185886)
(0 0 0.0186582)
(0 0 0.0187237)
(0 0 0.0187851)
(0 0 0.0188423)
(0 0 0.0188952)
(0 0 0.0189438)
(0 0 0.018988)
(0 0 0.0190278)
(0 0 0.0190632)
(0 0 0.0190941)
(0 0 0.0191204)
(0 0 0.0191422)
(0 0 0.0191593)
(0 0 0.0191719)
(0 0 0.0191798)
(0 0 0.0191831)
(0 0 0.0191817)
(0 0 0.0191757)
(0 0 0.019165)
(0 0 0.0191496)
(0 0 0.0191295)
(0 0 0.0191048)
(0 0 0.0190755)
(0 0 0.0190415)
(0 0 0.019003)
(0 0 0.0189599)
(0 0 0.0189122)
(0 0 0.0188601)
(0 0 0.0188035)
(0 0 0.0187424)
(0 0 0.018677)
(0 0 0.0186073)
(0 0 0.0185334)
(0 0 0.0184552)
(0 0 0.0183728)
(0 0 0.0182864)
(0 0 0.018196)
(0 0 0.0181016)
(0 0 0.0180034)
(0 0 0.0179013)
(0 0 0.0177955)
(0 0 0.017686)
(0 0 0.017573)
(0 0 0.0174565)
(0 0 0.0173366)
(0 0 0.0172133)
(0 0 0.0170869)
(0 0 0.0169572)
(0 0 0.0168245)
(0 0 0.0166888)
(0 0 0.0165502)
(0 0 0.0164088)
(0 0 0.0162646)
(0 0 0.0161178)
(0 0 0.0159685)
(0 0 0.0158167)
(0 0 0.0156626)
(0 0 0.0155061)
(0 0 0.0153474)
(0 0 0.0151866)
(0 0 0.0150238)
(0 0 0.014859)
(0 0 0.0146923)
(0 0 0.0145239)
(0 0 0.0143537)
(0 0 0.0141818)
(0 0 0.0140084)
(0 0 0.0138335)
(0 0 0.0136572)
(0 0 0.0134796)
(0 0 0.0133006)
(0 0 0.0131204)
(0 0 0.0129391)
(0 0 0.0127567)
(0 0 0.0125733)
(0 0 0.0123889)
(0 0 0.0122036)
(0 0 0.0120175)
(0 0 0.0118305)
(0 0 0.0116429)
(0 0 0.0114545)
(0 0 0.0112655)
(0 0 0.0110759)
(0 0 0.0108857)
(0 0 0.0106951)
(0 0 0.010504)
(0 0 0.0103125)
(0 0 0.0101206)
(0 0 0.00992831)
(0 0 0.00973575)
(0 0 0.00954292)
(0 0 0.00934984)
(0 0 0.00915654)
(0 0 0.00896307)
(0 0 0.00876943)
(0 0 0.00857567)
(0 0 0.00838179)
(0 0 0.00818783)
(0 0 0.00799381)
(0 0 0.00779974)
(0 0 0.00760565)
(0 0 0.00741155)
(0 0 0.00721746)
(0 0 0.00702338)
(0 0 0.00682935)
(0 0 0.00663536)
(0 0 0.00644143)
(0 0 0.00624757)
(0 0 0.00605378)
(0 0 0.00586009)
(0 0 0.00566648)
(0 0 0.00547297)
(0 0 0.00527957)
(0 0 0.00508628)
(0 0 0.00489309)
(0 0 0.00470002)
(0 0 0.00450706)
(0 0 0.00431422)
(0 0 0.0041215)
(0 0 0.00392889)
(0 0 0.0037364)
(0 0 0.00354401)
(0 0 0.00335174)
(0 0 0.00315958)
(0 0 0.00296752)
(0 0 0.00277556)
(0 0 0.0025837)
(0 0 0.00239193)
(0 0 0.00220024)
(0 0 0.00200864)
(0 0 0.0018171)
(0 0 0.00162564)
(0 0 0.00143424)
(0 0 0.0012429)
(0 0 0.0010516)
(0 0 0.000860342)
(0 0 0.000669119)
(0 0 0.000477923)
(0 0 0.000286746)
(0 0 9.55809e-05)
(0 0 0.000103367)
(0 0 0.000310106)
(0 0 0.000516857)
(0 0 0.000723631)
(0 0 0.000930434)
(0 0 0.00113728)
(0 0 0.00134417)
(0 0 0.00155111)
(0 0 0.00175812)
(0 0 0.0019652)
(0 0 0.00217236)
(0 0 0.00237961)
(0 0 0.00258696)
(0 0 0.0027944)
(0 0 0.00300196)
(0 0 0.00320963)
(0 0 0.00341743)
(0 0 0.00362535)
(0 0 0.00383341)
(0 0 0.00404161)
(0 0 0.00424996)
(0 0 0.00445845)
(0 0 0.0046671)
(0 0 0.00487591)
(0 0 0.00508488)
(0 0 0.00529401)
(0 0 0.00550332)
(0 0 0.00571278)
(0 0 0.00592242)
(0 0 0.00613223)
(0 0 0.00634221)
(0 0 0.00655236)
(0 0 0.00676268)
(0 0 0.00697316)
(0 0 0.00718381)
(0 0 0.00739462)
(0 0 0.00760558)
(0 0 0.00781669)
(0 0 0.00802794)
(0 0 0.00823933)
(0 0 0.00845084)
(0 0 0.00866248)
(0 0 0.00887422)
(0 0 0.00908606)
(0 0 0.00929798)
(0 0 0.00950998)
(0 0 0.00972203)
(0 0 0.00993412)
(0 0 0.0101462)
(0 0 0.0103584)
(0 0 0.0105705)
(0 0 0.0107825)
(0 0 0.0109945)
(0 0 0.0112065)
(0 0 0.0114183)
(0 0 0.0116299)
(0 0 0.0118415)
(0 0 0.0120528)
(0 0 0.0122639)
(0 0 0.0124747)
(0 0 0.0126852)
(0 0 0.0128954)
(0 0 0.0131053)
(0 0 0.0133147)
(0 0 0.0135236)
(0 0 0.0137321)
(0 0 0.01394)
(0 0 0.0141473)
(0 0 0.014354)
(0 0 0.01456)
(0 0 0.0147652)
(0 0 0.0149696)
(0 0 0.0151731)
(0 0 0.0153757)
(0 0 0.0155774)
(0 0 0.0157779)
(0 0 0.0159774)
(0 0 0.0161756)
(0 0 0.0163726)
(0 0 0.0165683)
(0 0 0.0167625)
(0 0 0.0169553)
(0 0 0.0171465)
(0 0 0.017336)
(0 0 0.0175238)
(0 0 0.0177098)
(0 0 0.0178939)
(0 0 0.018076)
(0 0 0.0182561)
(0 0 0.0184339)
(0 0 0.0186095)
(0 0 0.0187828)
(0 0 0.0189536)
(0 0 0.0191218)
(0 0 0.0192875)
(0 0 0.0194503)
(0 0 0.0196104)
(0 0 0.0197674)
(0 0 0.0199215)
(0 0 0.0200724)
(0 0 0.02022)
(0 0 0.0203643)
(0 0 0.0205052)
(0 0 0.0206425)
(0 0 0.0207762)
(0 0 0.0209061)
(0 0 0.0210322)
(0 0 0.0211543)
(0 0 0.0212723)
(0 0 0.0213863)
(0 0 0.021496)
(0 0 0.0216013)
(0 0 0.0217023)
(0 0 0.0217987)
(0 0 0.0218906)
(0 0 0.0219778)
(0 0 0.0220602)
(0 0 0.0221378)
(0 0 0.0222105)
(0 0 0.0222782)
(0 0 0.0223409)
(0 0 0.0223984)
(0 0 0.0224508)
(0 0 0.022498)
(0 0 0.0225398)
(0 0 0.0225764)
(0 0 0.0226076)
(0 0 0.0226334)
(0 0 0.0226538)
(0 0 0.0226686)
(0 0 0.022678)
(0 0 0.0226819)
(0 0 0.0226803)
(0 0 0.0226732)
(0 0 0.0226605)
(0 0 0.0226423)
(0 0 0.0226186)
(0 0 0.0225894)
(0 0 0.0225546)
(0 0 0.0225145)
(0 0 0.0224688)
(0 0 0.0224178)
(0 0 0.0223614)
(0 0 0.0222997)
(0 0 0.0222327)
(0 0 0.0221605)
(0 0 0.0220831)
(0 0 0.0220005)
(0 0 0.021913)
(0 0 0.0218204)
(0 0 0.021723)
(0 0 0.0216207)
(0 0 0.0215137)
(0 0 0.021402)
(0 0 0.0212857)
(0 0 0.0211649)
(0 0 0.0210397)
(0 0 0.0209101)
(0 0 0.0207764)
(0 0 0.0206385)
(0 0 0.0204966)
(0 0 0.0203507)
(0 0 0.020201)
(0 0 0.0200476)
(0 0 0.0198905)
(0 0 0.0197299)
(0 0 0.0195659)
(0 0 0.0193986)
(0 0 0.0192281)
(0 0 0.0190544)
(0 0 0.0188777)
(0 0 0.0186981)
(0 0 0.0185157)
(0 0 0.0183306)
(0 0 0.0181429)
(0 0 0.0179527)
(0 0 0.01776)
(0 0 0.0175651)
(0 0 0.0173679)
(0 0 0.0171686)
(0 0 0.0169673)
(0 0 0.0167641)
(0 0 0.016559)
(0 0 0.0163521)
(0 0 0.0161436)
(0 0 0.0159334)
(0 0 0.0157218)
(0 0 0.0155087)
(0 0 0.0152943)
(0 0 0.0150785)
(0 0 0.0148616)
(0 0 0.0146436)
(0 0 0.0144245)
(0 0 0.0142043)
(0 0 0.0139833)
(0 0 0.0137614)
(0 0 0.0135386)
(0 0 0.0133152)
(0 0 0.013091)
(0 0 0.0128662)
(0 0 0.0126408)
(0 0 0.0124148)
(0 0 0.0121884)
(0 0 0.0119615)
(0 0 0.0117342)
(0 0 0.0115065)