/*--------------------------------*- C++ -*----------------------------------*\
| =========                 |                                                 |
| \\      /  F ield         | OpenFOAM: The Open Source CFD Toolbox           |
|  \\    /   O peration     | Version:  v2012                                 |
|   \\  /    A nd           | Website:  www.openfoam.com                      |
|    \\/     M anipulation  |                                                 |
\*---------------------------------------------------------------------------*/
FoamFile
{
    version     2.0;
    format      ascii;
    class       surfaceScalarField;
    location    "10";
    object      phi;
}
// * * * * * * * * * * * * * * * * * * * * * * * * * * * * * * * * * * * * * //

dimensions      [0 3 -1 0 0 0 0];
oriented        oriented;


internalField   nonuniform List<scalar> 
130560
(
3.68804e-06
-3.68804e-06
7.37617e-06
-3.68813e-06
1.10645e-05
-3.68831e-06
1.47531e-05
-3.68858e-06
1.8442e-05
-3.68893e-06
2.21313e-05
-3.68936e-06
2.58212e-05
-3.68987e-06
2.95117e-05
-3.69045e-06
3.32028e-05
-3.6911e-06
3.68946e-05
-3.69182e-06
4.05872e-05
-3.69258e-06
4.42806e-05
-3.6934e-06
4.79748e-05
-3.69425e-06
5.16699e-05
-3.69512e-06
5.5366e-05
-3.69602e-06
5.90629e-05
-3.69692e-06
6.27607e-05
-3.69782e-06
6.64594e-05
-3.6987e-06
7.01589e-05
-3.69954e-06
7.38593e-05
-3.70034e-06
7.75604e-05
-3.70108e-06
8.12621e-05
-3.70174e-06
8.49644e-05
-3.7023e-06
8.86672e-05
-3.70276e-06
9.23702e-05
-3.70308e-06
9.60735e-05
-3.70325e-06
9.97767e-05
-3.70326e-06
0.00010348
-3.70307e-06
0.000107182
-3.70267e-06
0.000110885
-3.70204e-06
0.000114586
-3.70115e-06
0.000118286
-3.69998e-06
0.000121984
-3.6985e-06
0.000125681
-3.69669e-06
0.000129375
-3.69452e-06
0.000133067
-3.69197e-06
0.000136756
-3.68901e-06
0.000140442
-3.68561e-06
0.000144124
-3.68174e-06
0.000147801
-3.67738e-06
0.000151474
-3.67249e-06
0.000155141
-3.66704e-06
0.000158802
-3.66101e-06
0.000162456
-3.65436e-06
0.000166103
-3.64706e-06
0.000169742
-3.63908e-06
0.000173372
-3.63038e-06
0.000176993
-3.62094e-06
0.000180604
-3.61072e-06
0.000184204
-3.5997e-06
0.000187792
-3.58783e-06
0.000191367
-3.57508e-06
0.000194928
-3.56143e-06
0.000198475
-3.54683e-06
0.000202006
-3.53127e-06
0.000205521
-3.5147e-06
0.000209018
-3.49709e-06
0.000212497
-3.47842e-06
0.000215955
-3.45866e-06
0.000219393
-3.43777e-06
0.000222809
-3.41572e-06
0.000226201
-3.39249e-06
0.000229569
-3.36805e-06
0.000232912
-3.34238e-06
0.000236227
-3.31545e-06
0.000239514
-3.28723e-06
0.000242772
-3.2577e-06
0.000245999
-3.22685e-06
0.000249193
-3.19465e-06
0.000252355
-3.16109e-06
0.000255481
-3.12614e-06
0.00025857
-3.0898e-06
0.000261623
-3.05205e-06
0.000264635
-3.01288e-06
0.000267608
-2.97229e-06
0.000270538
-2.93026e-06
0.000273425
-2.88679e-06
0.000276267
-2.84189e-06
0.000279062
-2.79554e-06
0.00028181
-2.74776e-06
0.000284508
-2.69854e-06
0.000287156
-2.6479e-06
0.000289752
-2.59585e-06
0.000292295
-2.54239e-06
0.000294782
-2.48755e-06
0.000297214
-2.43134e-06
0.000299587
-2.37378e-06
0.000301902
-2.31489e-06
0.000304157
-2.25471e-06
0.00030635
-2.19325e-06
0.000308481
-2.13055e-06
0.000310547
-2.06664e-06
0.000312549
-2.00155e-06
0.000314484
-1.93534e-06
0.000316352
-1.86802e-06
0.000318152
-1.79965e-06
0.000319882
-1.73027e-06
0.000321542
-1.65993e-06
0.000323131
-1.58868e-06
0.000324647
-1.51656e-06
0.000326091
-1.44363e-06
0.000327461
-1.36994e-06
0.000328756
-1.29554e-06
0.000329977
-1.2205e-06
0.000331122
-1.14487e-06
0.000332191
-1.06871e-06
0.000333183
-9.92082e-07
0.000334098
-9.15041e-07
0.000334935
-8.3765e-07
0.000335695
-7.59973e-07
0.000336377
-6.8207e-07
0.000336981
-6.04005e-07
0.000337507
-5.25838e-07
0.000337955
-4.47634e-07
0.000338324
-3.69453e-07
0.000338616
-2.91357e-07
0.000338829
-2.13407e-07
0.000338965
-1.35664e-07
0.000339023
-5.81866e-08
0.000339004
1.89661e-08
0.000338908
9.57368e-08
0.000338736
1.72069e-07
0.000338488
2.47908e-07
0.000338165
3.232e-07
0.000337767
3.97893e-07
0.000337295
4.71936e-07
0.00033675
5.45282e-07
0.000336132
6.17882e-07
0.000335442
6.89691e-07
0.000334682
7.60668e-07
0.000333851
8.30769e-07
0.000332951
8.99957e-07
0.000331983
9.68194e-07
0.000330947
1.03544e-06
0.000329846
1.10168e-06
0.000328679
1.16686e-06
0.000327448
1.23096e-06
0.000326154
1.29396e-06
0.000324798
1.35583e-06
0.000323381
1.41655e-06
0.000321905
1.47609e-06
0.000320371
1.53445e-06
0.000318779
1.5916e-06
0.000317132
1.64754e-06
0.00031543
1.70224e-06
0.000313674
1.7557e-06
0.000311866
1.80792e-06
0.000310007
1.85888e-06
0.000308098
1.90858e-06
0.000306141
1.95703e-06
0.000304137
2.00421e-06
0.000302087
2.05013e-06
0.000299992
2.0948e-06
0.000297854
2.13821e-06
0.000295674
2.18038e-06
0.000293452
2.2213e-06
0.000291191
2.261e-06
0.000288892
2.29947e-06
0.000286555
2.33673e-06
0.000284182
2.37279e-06
0.000281775
2.40767e-06
0.000279333
2.44138e-06
0.000276859
2.47393e-06
0.000274354
2.50534e-06
0.000271818
2.53563e-06
0.000269254
2.56481e-06
0.000266661
2.5929e-06
0.000264041
2.61993e-06
0.000261395
2.64591e-06
0.000258724
2.67085e-06
0.000256029
2.69479e-06
0.000253311
2.71774e-06
0.000250572
2.73973e-06
0.000247811
2.76077e-06
0.00024503
2.78088e-06
0.00024223
2.8001e-06
0.000239412
2.81843e-06
0.000236576
2.83591e-06
0.000233723
2.85255e-06
0.000230855
2.86838e-06
0.000227971
2.88342e-06
0.000225074
2.89769e-06
0.000222162
2.91121e-06
0.000219238
2.92401e-06
0.000216302
2.93612e-06
0.000213355
2.94754e-06
0.000210396
2.9583e-06
0.000207428
2.96843e-06
0.00020445
2.97794e-06
0.000201463
2.98686e-06
0.000198468
2.99521e-06
0.000195465
3.003e-06
0.000192455
3.01027e-06
0.000189438
3.01702e-06
0.000186414
3.02328e-06
0.000183385
3.02907e-06
0.000180351
3.0344e-06
0.000177312
3.0393e-06
0.000174268
3.04379e-06
0.00017122
3.04788e-06
0.000168168
3.05158e-06
0.000165114
3.05493e-06
0.000162056
3.05793e-06
0.000158995
3.0606e-06
0.000155932
3.06296e-06
0.000152867
3.06502e-06
0.0001498
3.06681e-06
0.000146732
3.06832e-06
0.000143662
3.06959e-06
0.000140592
3.07062e-06
0.00013752
3.07142e-06
0.000134448
3.07202e-06
0.000131376
3.07243e-06
0.000128303
3.07265e-06
0.00012523
3.0727e-06
0.000122158
3.07259e-06
0.000119086
3.07234e-06
0.000116014
3.07196e-06
0.000112942
3.07145e-06
0.000109871
3.07083e-06
0.000106801
3.07011e-06
0.000103732
3.06929e-06
0.000100663
3.0684e-06
9.75961e-05
3.06743e-06
9.45297e-05
3.0664e-06
9.14643e-05
3.06532e-06
8.84001e-05
3.06419e-06
8.53371e-05
3.06303e-06
8.22753e-05
3.06183e-06
7.92147e-05
3.06062e-06
7.61553e-05
3.05938e-06
7.30971e-05
3.05814e-06
7.00402e-05
3.0569e-06
6.69846e-05
3.05567e-06
6.39301e-05
3.05445e-06
6.08769e-05
3.05324e-06
5.78248e-05
3.05205e-06
5.47739e-05
3.0509e-06
5.17242e-05
3.04977e-06
4.86755e-05
3.04869e-06
4.56278e-05
3.04764e-06
4.25812e-05
3.04664e-06
3.95355e-05
3.04569e-06
3.64907e-05
3.0448e-06
3.34467e-05
3.04396e-06
3.04036e-05
3.04318e-06
2.73611e-05
3.04246e-06
2.43193e-05
3.0418e-06
2.12781e-05
3.04122e-06
1.82374e-05
3.0407e-06
1.51971e-05
3.04025e-06
1.21573e-05
3.03988e-06
9.11767e-06
3.03958e-06
6.07832e-06
3.03935e-06
3.03912e-06
3.0392e-06
3.03912e-06
3.68795e-06
-7.37599e-06
7.376e-06
-7.37617e-06
1.10642e-05
-7.37653e-06
1.47527e-05
-7.37707e-06
1.84416e-05
-7.37777e-06
2.21308e-05
-7.37864e-06
2.58206e-05
-7.37967e-06
2.9511e-05
-7.38084e-06
3.32021e-05
-7.38215e-06
3.68938e-05
-7.38358e-06
4.05864e-05
-7.38512e-06
4.42797e-05
-7.38676e-06
4.79739e-05
-7.38847e-06
5.16691e-05
-7.39023e-06
5.53651e-05
-7.39203e-06
5.9062e-05
-7.39385e-06
6.27598e-05
-7.39565e-06
6.64586e-05
-7.39742e-06
7.01582e-05
-7.39913e-06
7.38586e-05
-7.40074e-06
7.75597e-05
-7.40223e-06
8.12615e-05
-7.40357e-06
8.4964e-05
-7.40472e-06
8.86668e-05
-7.40564e-06
9.23701e-05
-7.40631e-06
9.60735e-05
-7.40668e-06
9.97769e-05
-7.4067e-06
0.00010348
-7.40635e-06
0.000107183
-7.40558e-06
0.000110885
-7.40433e-06
0.000114587
-7.40258e-06
0.000118287
-7.40026e-06
0.000121986
-7.39733e-06
0.000125683
-7.39373e-06
0.000129378
-7.38943e-06
0.00013307
-7.38436e-06
0.00013676
-7.37846e-06
0.000140446
-7.37169e-06
0.000144128
-7.36399e-06
0.000147806
-7.35529e-06
0.000151479
-7.34554e-06
0.000155147
-7.33467e-06
0.000158808
-7.32264e-06
0.000162463
-7.30937e-06
0.000166111
-7.2948e-06
0.000169751
-7.27887e-06
0.000173382
-7.26151e-06
0.000177004
-7.24266e-06
0.000180615
-7.22226e-06
0.000184216
-7.20023e-06
0.000187804
-7.17652e-06
0.00019138
-7.15107e-06
0.000194943
-7.12379e-06
0.000198491
-7.09464e-06
0.000202023
-7.06354e-06
0.000205539
-7.03043e-06
0.000209037
-6.99525e-06
0.000212516
-6.95794e-06
0.000215976
-6.91844e-06
0.000219415
-6.87669e-06
0.000222832
-6.83262e-06
0.000226226
-6.78619e-06
0.000229595
-6.73734e-06
0.000232939
-6.68602e-06
0.000236255
-6.63218e-06
0.000239544
-6.57576e-06
0.000242803
-6.51673e-06
0.000246031
-6.45505e-06
0.000249227
-6.39067e-06
0.000252389
-6.32355e-06
0.000255517
-6.25368e-06
0.000258608
-6.18101e-06
0.000261662
-6.10552e-06
0.000264676
-6.02719e-06
0.00026765
-5.94601e-06
0.000270581
-5.86195e-06
0.00027347
-5.77502e-06
0.000276313
-5.68521e-06
0.00027911
-5.59251e-06
0.000281859
-5.49694e-06
0.000284559
-5.3985e-06
0.000287208
-5.29721e-06
0.000289806
-5.19309e-06
0.000292349
-5.08617e-06
0.000294838
-4.97646e-06
0.000297271
-4.86402e-06
0.000299646
-4.74888e-06
0.000301962
-4.63108e-06
0.000304218
-4.51068e-06
0.000306413
-4.38773e-06
0.000308545
-4.2623e-06
0.000310612
-4.13445e-06
0.000312615
-4.00424e-06
0.000314551
-3.87177e-06
0.000316421
-3.73709e-06
0.000318221
-3.60031e-06
0.000319952
-3.46151e-06
0.000321613
-3.32078e-06
0.000323203
-3.17822e-06
0.00032472
-3.03393e-06
0.000326165
-2.88801e-06
0.000327535
-2.74058e-06
0.000328831
-2.59173e-06
0.000330052
-2.44159e-06
0.000331198
-2.29028e-06
0.000332267
-2.1379e-06
0.00033326
-1.98457e-06
0.000334175
-1.83043e-06
0.000335013
-1.67559e-06
0.000335773
-1.52017e-06
0.000336455
-1.3643e-06
0.000337059
-1.20811e-06
0.000337585
-1.05171e-06
0.000338033
-8.95243e-07
0.000338402
-7.3882e-07
0.000338693
-5.82567e-07
0.000338907
-4.26607e-07
0.000339042
-2.71061e-07
0.0003391
-1.16048e-07
0.000339081
3.83152e-08
0.000338984
1.91913e-07
0.000338812
3.44632e-07
0.000338563
4.96364e-07
0.00033824
6.47e-07
0.000337841
7.96436e-07
0.000337368
9.44571e-07
0.000336822
1.09131e-06
0.000336204
1.23655e-06
0.000335513
1.38022e-06
0.000334752
1.52221e-06
0.00033392
1.66245e-06
0.000333019
1.80087e-06
0.00033205
1.93737e-06
0.000331013
2.07191e-06
0.000329911
2.2044e-06
0.000328743
2.33479e-06
0.000327511
2.46303e-06
0.000326216
2.58905e-06
0.000324859
2.71281e-06
0.000323441
2.83427e-06
0.000321964
2.95338e-06
0.000320428
3.07011e-06
0.000318835
3.18443e-06
0.000317186
3.29631e-06
0.000315483
3.40572e-06
0.000313726
3.51266e-06
0.000311917
3.61709e-06
0.000310057
3.71902e-06
0.000308147
3.81843e-06
0.000306188
3.91532e-06
0.000304183
4.00968e-06
0.000302132
4.10152e-06
0.000300036
4.19085e-06
0.000297896
4.27767e-06
0.000295715
4.36199e-06
0.000293492
4.44383e-06
0.00029123
4.52321e-06
0.000288929
4.60015e-06
0.000286591
4.67466e-06
0.000284217
4.74677e-06
0.000281808
4.81651e-06
0.000279366
4.88391e-06
0.000276891
4.949e-06
0.000274384
5.0118e-06
0.000271848
5.07236e-06
0.000269282
5.13071e-06
0.000266688
5.18688e-06
0.000264067
5.24091e-06
0.00026142
5.29284e-06
0.000258748
5.34271e-06
0.000256052
5.39057e-06
0.000253333
5.43645e-06
0.000250593
5.4804e-06
0.000247831
5.52245e-06
0.000245049
5.56266e-06
0.000242248
5.60107e-06
0.000239429
5.63771e-06
0.000236592
5.67265e-06
0.000233739
5.70591e-06
0.00023087
5.73754e-06
0.000227986
5.7676e-06
0.000225087
5.79612e-06
0.000222175
5.82315e-06
0.00021925
5.84873e-06
0.000216314
5.87291e-06
0.000213365
5.89573e-06
0.000210407
5.91724e-06
0.000207438
5.93747e-06
0.000204459
5.95647e-06
0.000201472
5.97429e-06
0.000198476
5.99097e-06
0.000195472
6.00654e-06
0.000192461
6.02104e-06
0.000189444
6.03453e-06
0.00018642
6.04703e-06
0.000183391
6.05859e-06
0.000180356
6.06924e-06
0.000177316
6.07902e-06
0.000174272
6.08797e-06
0.000171224
6.09613e-06
0.000168172
6.10353e-06
0.000165116
6.11021e-06
0.000162058
6.11619e-06
0.000158997
6.12152e-06
0.000155934
6.12622e-06
0.000152869
6.13033e-06
0.000149802
6.13388e-06
0.000146733
6.13689e-06
0.000143663
6.13941e-06
0.000140592
6.14146e-06
0.000137521
6.14306e-06
0.000134449
6.14424e-06
0.000131376
6.14503e-06
0.000128303
6.14546e-06
0.00012523
6.14555e-06
0.000122158
6.14533e-06
0.000119085
6.14481e-06
0.000116013
6.14403e-06
0.000112941
6.143e-06
0.000109871
6.14175e-06
0.0001068
6.1403e-06
0.000103731
6.13867e-06
0.000100663
6.13687e-06
9.7595e-05
6.13493e-06
9.45286e-05
6.13286e-06
9.14632e-05
6.13069e-06
8.8399e-05
6.12842e-06
8.53359e-05
6.12608e-06
8.2274e-05
6.12369e-06
7.92134e-05
6.12124e-06
7.6154e-05
6.11877e-06
7.30959e-05
6.11629e-06
7.0039e-05
6.1138e-06
6.69833e-05
6.11133e-06
6.39289e-05
6.10887e-06
6.08757e-05
6.10645e-06
5.78237e-05
6.10408e-06
5.47728e-05
6.10176e-06
5.17231e-05
6.09951e-06
4.86744e-05
6.09733e-06
4.56268e-05
6.09524e-06
4.25802e-05
6.09324e-06
3.95346e-05
6.09133e-06
3.64898e-05
6.08954e-06
3.3446e-05
6.08785e-06
3.04028e-05
6.08629e-06
2.73604e-05
6.08485e-06
2.43187e-05
6.08354e-06
2.12776e-05
6.08237e-06
1.82369e-05
6.08133e-06
1.51968e-05
6.08043e-06
1.21569e-05
6.07968e-06
9.11745e-06
6.07908e-06
6.07817e-06
6.07863e-06
3.03905e-06
6.07832e-06
6.07817e-06
3.68777e-06
-1.10638e-05
7.37564e-06
-1.1064e-05
1.10637e-05
-1.10646e-05
1.4752e-05
-1.10654e-05
1.84407e-05
-1.10665e-05
2.21298e-05
-1.10678e-05
2.58195e-05
-1.10693e-05
2.95097e-05
-1.10711e-05
3.32006e-05
-1.10731e-05
3.68923e-05
-1.10752e-05
4.05847e-05
-1.10776e-05
4.4278e-05
-1.108e-05
4.79722e-05
-1.10826e-05
5.16673e-05
-1.10853e-05
5.53633e-05
-1.1088e-05
5.90602e-05
-1.10908e-05
6.27581e-05
-1.10935e-05
6.64569e-05
-1.10962e-05
7.01565e-05
-1.10988e-05
7.38571e-05
-1.11013e-05
7.75584e-05
-1.11035e-05
8.12604e-05
-1.11056e-05
8.4963e-05
-1.11074e-05
8.86662e-05
-1.11088e-05
9.23697e-05
-1.11098e-05
9.60735e-05
-1.11104e-05
9.97773e-05
-1.11105e-05
0.000103481
-1.11101e-05
0.000107184
-1.1109e-05
0.000110887
-1.11071e-05
0.000114589
-1.11046e-05
0.00011829
-1.11011e-05
0.00012199
-1.10968e-05
0.000125687
-1.10915e-05
0.000129383
-1.10851e-05
0.000133076
-1.10776e-05
0.000136767
-1.10688e-05
0.000140454
-1.10587e-05
0.000144137
-1.10472e-05
0.000147816
-1.10342e-05
0.00015149
-1.10197e-05
0.000155159
-1.10035e-05
0.000158822
-1.09855e-05
0.000162478
-1.09657e-05
0.000166127
-1.09439e-05
0.000169768
-1.09201e-05
0.000173401
-1.08941e-05
0.000177024
-1.08659e-05
0.000180637
-1.08354e-05
0.000184239
-1.08025e-05
0.00018783
-1.0767e-05
0.000191408
-1.07289e-05
0.000194972
-1.0688e-05
0.000198522
-1.06444e-05
0.000202056
-1.05978e-05
0.000205574
-1.05482e-05
0.000209074
-1.04955e-05
0.000212556
-1.04397e-05
0.000216018
-1.03805e-05
0.000219459
-1.03179e-05
0.000222878
-1.02519e-05
0.000226274
-1.01823e-05
0.000229646
-1.01091e-05
0.000232992
-1.00322e-05
0.000236312
-9.95148e-06
0.000239603
-9.86691e-06
0.000242865
-9.77842e-06
0.000246095
-9.68594e-06
0.000249294
-9.58941e-06
0.000252459
-9.48879e-06
0.00025559
-9.38401e-06
0.000258684
-9.27503e-06
0.00026174
-9.16183e-06
0.000264757
-9.04436e-06
0.000267734
-8.9226e-06
0.000270668
-8.79653e-06
0.000273559
-8.66614e-06
0.000276406
-8.53141e-06
0.000279206
-8.39236e-06
0.000281958
-8.24899e-06
0.00028466
-8.10132e-06
0.000287313
-7.94936e-06
0.000289913
-7.79314e-06
0.000292459
-7.63272e-06
0.000294951
-7.46812e-06
0.000297386
-7.2994e-06
0.000299764
-7.12663e-06
0.000302083
-6.94987e-06
0.000304341
-6.7692e-06
0.000306538
-6.58471e-06
0.000308672
-6.39648e-06
0.000310743
-6.20461e-06
0.000312748
-6.00921e-06
0.000314686
-5.81039e-06
0.000316557
-5.60828e-06
0.00031836
-5.40299e-06
0.000320093
-5.19467e-06
0.000321756
-4.98346e-06
0.000323347
-4.76949e-06
0.000324866
-4.55293e-06
0.000326312
-4.33392e-06
0.000327684
-4.11263e-06
0.000328982
-3.88922e-06
0.000330204
-3.66387e-06
0.00033135
-3.43674e-06
0.00033242
-3.20802e-06
0.000333414
-2.97788e-06
0.00033433
-2.74652e-06
0.000335168
-2.5141e-06
0.000335929
-2.28082e-06
0.000336612
-2.04686e-06
0.000337216
-1.81241e-06
0.000337742
-1.57767e-06
0.000338189
-1.34281e-06
0.000338559
-1.10802e-06
0.000338849
-8.73484e-07
0.000339062
-6.39393e-07
0.000339197
-4.05925e-07
0.000339254
-1.73259e-07
0.000339234
5.84294e-08
0.000339137
2.88967e-07
0.000338964
5.18184e-07
0.000338714
7.45915e-07
0.000338389
9.71999e-07
0.000337989
1.19628e-06
0.000337515
1.4186e-06
0.000336968
1.63883e-06
0.000336347
1.85681e-06
0.000335655
2.07241e-06
0.000334892
2.28551e-06
0.000334058
2.49597e-06
0.000333156
2.70368e-06
0.000332184
2.90853e-06
0.000331146
3.11041e-06
0.000330041
3.30923e-06
0.000328871
3.50489e-06
0.000327637
3.69731e-06
0.000326339
3.8864e-06
0.00032498
4.07209e-06
0.00032356
4.25433e-06
0.00032208
4.43304e-06
0.000320542
4.60818e-06
0.000318947
4.77969e-06
0.000317296
4.94754e-06
0.00031559
5.11169e-06
0.00031383
5.27211e-06
0.000312019
5.42878e-06
0.000310156
5.58168e-06
0.000308244
5.7308e-06
0.000306283
5.87613e-06
0.000304275
6.01767e-06
0.000302221
6.15542e-06
0.000300122
6.2894e-06
0.00029798
6.41962e-06
0.000295796
6.54609e-06
0.000293571
6.66883e-06
0.000291307
6.78787e-06
0.000289004
6.90325e-06
0.000286663
7.01499e-06
0.000284287
7.12312e-06
0.000281876
7.2277e-06
0.000279431
7.32876e-06
0.000276954
7.42635e-06
0.000274445
7.52051e-06
0.000271906
7.61131e-06
0.000269338
7.69878e-06
0.000266742
7.78298e-06
0.000264119
7.86398e-06
0.00026147
7.94183e-06
0.000258796
8.01659e-06
0.000256098
8.08833e-06
0.000253377
8.1571e-06
0.000250635
8.22296e-06
0.000247871
8.28599e-06
0.000245088
8.34625e-06
0.000242285
8.4038e-06
0.000239464
8.45872e-06
0.000236626
8.51106e-06
0.000233771
8.56089e-06
0.0002309
8.60829e-06
0.000228014
8.65332e-06
0.000225114
8.69604e-06
0.000222201
8.73653e-06
0.000219275
8.77485e-06
0.000216337
8.81106e-06
0.000213387
8.84524e-06
0.000210427
8.87744e-06
0.000207457
8.90774e-06
0.000204477
8.93619e-06
0.000201488
8.96287e-06
0.000198491
8.98783e-06
0.000195487
9.01113e-06
0.000192475
9.03284e-06
0.000189456
9.05302e-06
0.000186432
9.07172e-06
0.000183401
9.08901e-06
0.000180366
9.10494e-06
0.000177325
9.11957e-06
0.00017428
9.13296e-06
0.000171231
9.14515e-06
0.000168178
9.1562e-06
0.000165122
9.16617e-06
0.000162064
9.1751e-06
0.000159002
9.18305e-06
0.000155938
9.19007e-06
0.000152872
9.19619e-06
0.000149805
9.20148e-06
0.000146736
9.20597e-06
0.000143665
9.20971e-06
0.000140594
9.21274e-06
0.000137522
9.2151e-06
0.000134449
9.21685e-06
0.000131376
9.218e-06
0.000128303
9.21862e-06
0.00012523
9.21872e-06
0.000122157
9.21836e-06
0.000119084
9.21756e-06
0.000116012
9.21635e-06
0.00011294
9.21479e-06
0.000109869
9.21288e-06
0.000106799
9.21068e-06
0.000103729
9.2082e-06
0.000100661
9.20548e-06
9.7593e-05
9.20255e-06
9.45264e-05
9.19943e-06
9.14609e-05
9.19614e-06
8.83966e-05
9.19273e-06
8.53335e-05
9.1892e-06
8.22716e-05
9.18558e-06
7.9211e-05
9.1819e-06
7.61516e-05
9.17818e-06
7.30934e-05
9.17444e-06
7.00365e-05
9.17069e-06
6.69809e-05
9.16696e-06
6.39265e-05
9.16327e-06
6.08733e-05
9.15962e-06
5.78213e-05
9.15605e-06
5.47706e-05
9.15256e-06
5.17209e-05
9.14917e-06
4.86723e-05
9.14589e-06
4.56248e-05
9.14274e-06
4.25783e-05
9.13973e-06
3.95328e-05
9.13687e-06
3.64882e-05
9.13416e-06
3.34444e-05
9.13163e-06
3.04014e-05
9.12928e-06
2.73591e-05
9.12711e-06
2.43175e-05
9.12514e-06
2.12765e-05
9.12338e-06
1.8236e-05
9.12182e-06
1.5196e-05
9.12047e-06
1.21563e-05
9.11934e-06
9.11699e-06
9.11843e-06
6.07787e-06
9.11775e-06
3.0389e-06
9.11729e-06
9.11707e-06
3.6875e-06
-1.47513e-05
7.37509e-06
-1.47516e-05
1.10629e-05
-1.47524e-05
1.47509e-05
-1.47535e-05
1.84394e-05
-1.47549e-05
2.21283e-05
-1.47567e-05
2.58177e-05
-1.47587e-05
2.95077e-05
-1.47611e-05
3.31985e-05
-1.47638e-05
3.689e-05
-1.47667e-05
4.05823e-05
-1.47699e-05
4.42754e-05
-1.47732e-05
4.79695e-05
-1.47767e-05
5.16645e-05
-1.47803e-05
5.53605e-05
-1.4784e-05
5.90575e-05
-1.47877e-05
6.27554e-05
-1.47915e-05
6.64543e-05
-1.47951e-05
7.01541e-05
-1.47986e-05
7.38548e-05
-1.4802e-05
7.75563e-05
-1.48051e-05
8.12586e-05
-1.48079e-05
8.49616e-05
-1.48103e-05
8.86651e-05
-1.48123e-05
9.23691e-05
-1.48138e-05
9.60734e-05
-1.48147e-05
9.97778e-05
-1.48149e-05
0.000103482
-1.48144e-05
0.000107186
-1.4813e-05
0.00011089
-1.48107e-05
0.000114593
-1.48074e-05
0.000118294
-1.4803e-05
0.000121995
-1.47973e-05
0.000125694
-1.47903e-05
0.000129391
-1.47819e-05
0.000133085
-1.4772e-05
0.000136777
-1.47604e-05
0.000140465
-1.47471e-05
0.00014415
-1.47319e-05
0.00014783
-1.47148e-05
0.000151506
-1.46955e-05
0.000155177
-1.4674e-05
0.000158841
-1.46502e-05
0.0001625
-1.46239e-05
0.000166151
-1.4595e-05
0.000169794
-1.45634e-05
0.000173429
-1.4529e-05
0.000177055
-1.44915e-05
0.00018067
-1.4451e-05
0.000184275
-1.44072e-05
0.000187868
-1.43601e-05
0.000191449
-1.43094e-05
0.000195016
-1.42551e-05
0.000198568
-1.4197e-05
0.000202106
-1.41351e-05
0.000205626
-1.40691e-05
0.00020913
-1.3999e-05
0.000212615
-1.39247e-05
0.00021608
-1.38459e-05
0.000219525
-1.37626e-05
0.000222948
-1.36747e-05
0.000226348
-1.35821e-05
0.000229723
-1.34846e-05
0.000233073
-1.33821e-05
0.000236396
-1.32746e-05
0.000239691
-1.3162e-05
0.000242957
-1.30441e-05
0.000246192
-1.29209e-05
0.000249395
-1.27923e-05
0.000252564
-1.26582e-05
0.000255699
-1.25185e-05
0.000258797
-1.23733e-05
0.000261858
-1.22224e-05
0.000264879
-1.20658e-05
0.00026786
-1.19035e-05
0.000270799
-1.17354e-05
0.000273694
-1.15616e-05
0.000276545
-1.13819e-05
0.000279349
-1.11965e-05
0.000282105
-1.10054e-05
0.000284812
-1.08084e-05
0.000287469
-1.06058e-05
0.000290073
-1.03974e-05
0.000292624
-1.01834e-05
0.00029512
-9.96389e-06
0.000297559
-9.73884e-06
0.000299941
-9.50838e-06
0.000302263
-9.27258e-06
0.000304526
-9.03156e-06
0.000306727
-8.78542e-06
0.000308864
-8.53429e-06
0.000310938
-8.2783e-06
0.000312946
-8.01759e-06
0.000314888
-7.75231e-06
0.000316763
-7.48263e-06
0.000318568
-7.20871e-06
0.000320304
-6.93073e-06
0.00032197
-6.64889e-06
0.000323564
-6.36336e-06
0.000325085
-6.07437e-06
0.000326533
-5.7821e-06
0.000327908
-5.48679e-06
0.000329207
-5.18865e-06
0.000330431
-4.88791e-06
0.000331579
-4.5848e-06
0.000332651
-4.27956e-06
0.000333645
-3.97243e-06
0.000334562
-3.66365e-06
0.000335402
-3.35347e-06
0.000336163
-3.04214e-06
0.000336846
-2.72991e-06
0.000337451
-2.41702e-06
0.000337977
-2.10373e-06
0.000338424
-1.7903e-06
0.000338793
-1.47695e-06
0.000339084
-1.16396e-06
0.000339296
-8.51557e-07
0.00033943
-5.39988e-07
0.000339486
-2.29492e-07
0.000339465
7.96944e-08
0.000339366
3.87341e-07
0.000339191
6.9322e-07
0.00033894
9.97112e-07
0.000338613
1.2988e-06
0.000338212
1.59808e-06
0.000337735
1.89474e-06
0.000337186
2.18859e-06
0.000336563
2.47944e-06
0.000335868
2.76711e-06
0.000335102
3.05143e-06
0.000334266
3.33223e-06
0.000333361
3.60935e-06
0.000332386
3.88265e-06
0.000331345
4.15198e-06
0.000330237
4.41722e-06
0.000329064
4.67823e-06
0.000327826
4.93491e-06
0.000326525
5.18714e-06
0.000325162
5.43484e-06
0.000323739
5.67791e-06
0.000322256
5.91628e-06
0.000320714
6.14987e-06
0.000319115
6.37862e-06
0.00031746
6.60247e-06
0.00031575
6.82138e-06
0.000313987
7.03531e-06
0.000312172
7.24423e-06
0.000310305
7.44811e-06
0.000308389
7.64695e-06
0.000306424
7.84073e-06
0.000304413
8.02944e-06
0.000302355
8.21311e-06
0.000300253
8.39173e-06
0.000298107
8.56532e-06
0.000295919
8.73391e-06
0.00029369
8.89753e-06
0.000291422
9.05621e-06
0.000289115
9.20999e-06
0.000286771
9.35891e-06
0.000284392
9.50304e-06
0.000281977
9.64241e-06
0.000279529
9.77708e-06
0.000277048
9.90712e-06
0.000274536
1.00326e-05
0.000271993
1.01536e-05
0.000269422
1.02701e-05
0.000266823
1.03823e-05
0.000264197
1.04902e-05
0.000261544
1.05939e-05
0.000258868
1.06935e-05
0.000256167
1.0789e-05
0.000253443
1.08806e-05
0.000250698
1.09684e-05
0.000247932
1.10523e-05
0.000245145
1.11325e-05
0.00024234
1.12092e-05
0.000239516
1.12823e-05
0.000236675
1.1352e-05
0.000233818
1.14183e-05
0.000230945
1.14814e-05
0.000228057
1.15413e-05
0.000225155
1.15982e-05
0.000222239
1.16521e-05
0.000219311
1.17031e-05
0.000216371
1.17513e-05
0.000213419
1.17967e-05
0.000210457
1.18396e-05
0.000207485
1.18799e-05
0.000204504
1.19177e-05
0.000201513
1.19532e-05
0.000198515
1.19863e-05
0.000195509
1.20173e-05
0.000192495
1.20462e-05
0.000189475
1.2073e-05
0.000186449
1.20978e-05
0.000183417
1.21208e-05
0.00018038
1.21419e-05
0.000177339
1.21614e-05
0.000174292
1.21791e-05
0.000171242
1.21953e-05
0.000168188
1.221e-05
0.000165131
1.22232e-05
0.000162072
1.2235e-05
0.000159009
1.22455e-05
0.000155944
1.22548e-05
0.000152878
1.22629e-05
0.000149809
1.22699e-05
0.000146739
1.22758e-05
0.000143668
1.22807e-05
0.000140596
1.22847e-05
0.000137524
1.22878e-05
0.000134451
1.229e-05
0.000131377
1.22915e-05
0.000128303
1.22923e-05
0.00012523
1.22924e-05
0.000122156
1.22918e-05
0.000119083
1.22907e-05
0.00011601
1.2289e-05
0.000112938
1.22869e-05
0.000109867
1.22843e-05
0.000106796
1.22813e-05
0.000103726
1.2278e-05
0.000100658
1.22743e-05
9.75899e-05
1.22704e-05
9.45231e-05
1.22662e-05
9.14575e-05
1.22617e-05
8.83931e-05
1.22571e-05
8.53299e-05
1.22524e-05
8.2268e-05
1.22475e-05
7.92072e-05
1.22426e-05
7.61478e-05
1.22376e-05
7.30897e-05
1.22326e-05
7.00328e-05
1.22276e-05
6.69772e-05
1.22226e-05
6.39229e-05
1.22176e-05
6.08698e-05
1.22127e-05
5.78179e-05
1.22079e-05
5.47672e-05
1.22033e-05
5.17176e-05
1.21987e-05
4.86692e-05
1.21943e-05
4.56218e-05
1.21901e-05
4.25755e-05
1.21861e-05
3.95301e-05
1.21822e-05
3.64856e-05
1.21786e-05
3.3442e-05
1.21752e-05
3.03992e-05
1.21721e-05
2.73572e-05
1.21692e-05
2.43158e-05
1.21665e-05
2.1275e-05
1.21642e-05
1.82347e-05
1.21621e-05
1.51949e-05
1.21603e-05
1.21554e-05
1.21588e-05
9.11631e-06
1.21576e-05
6.07741e-06
1.21566e-05
3.03867e-06
1.2156e-05
1.21557e-05
3.68713e-06
-1.84384e-05
7.37436e-06
-1.84389e-05
1.10618e-05
-1.84398e-05
1.47495e-05
-1.84412e-05
1.84376e-05
-1.8443e-05
2.21262e-05
-1.84452e-05
2.58153e-05
-1.84479e-05
2.95051e-05
-1.84509e-05
3.31955e-05
-1.84543e-05
3.68868e-05
-1.8458e-05
4.05789e-05
-1.8462e-05
4.42719e-05
-1.84662e-05
4.79659e-05
-1.84707e-05
5.16608e-05
-1.84753e-05
5.53568e-05
-1.848e-05
5.90537e-05
-1.84847e-05
6.27517e-05
-1.84894e-05
6.64507e-05
-1.84941e-05
7.01507e-05
-1.84986e-05
7.38517e-05
-1.85029e-05
7.75535e-05
-1.85069e-05
8.12562e-05
-1.85106e-05
8.49596e-05
-1.85137e-05
8.86636e-05
-1.85164e-05
9.23682e-05
-1.85184e-05
9.60732e-05
-1.85196e-05
9.97783e-05
-1.85201e-05
0.000103483
-1.85196e-05
0.000107188
-1.8518e-05
0.000110893
-1.85153e-05
0.000114597
-1.85114e-05
0.0001183
-1.8506e-05
0.000122002
-1.84991e-05
0.000125702
-1.84906e-05
0.0001294
-1.84803e-05
0.000133097
-1.84681e-05
0.00013679
-1.84538e-05
0.00014048
-1.84374e-05
0.000144167
-1.84186e-05
0.00014785
-1.83974e-05
0.000151528
-1.83736e-05
0.000155201
-1.8347e-05
0.000158868
-1.83174e-05
0.000162529
-1.82848e-05
0.000166182
-1.82489e-05
0.000169829
-1.82096e-05
0.000173466
-1.81668e-05
0.000177095
-1.81203e-05
0.000180714
-1.80698e-05
0.000184322
-1.80153e-05
0.000187919
-1.79566e-05
0.000191503
-1.78936e-05
0.000195074
-1.78259e-05
0.00019863
-1.77536e-05
0.000202172
-1.76764e-05
0.000205697
-1.75942e-05
0.000209204
-1.75068e-05
0.000212694
-1.74141e-05
0.000216164
-1.73158e-05
0.000219613
-1.72119e-05
0.000223041
-1.71023e-05
0.000226445
-1.69867e-05
0.000229826
-1.6865e-05
0.000233181
-1.67371e-05
0.000236509
-1.66029e-05
0.000239809
-1.64623e-05
0.00024308
-1.63151e-05
0.000246321
-1.61612e-05
0.000249529
-1.60006e-05
0.000252704
-1.58331e-05
0.000255844
-1.56587e-05
0.000258948
-1.54772e-05
0.000262014
-1.52887e-05
0.000265041
-1.5093e-05
0.000268028
-1.48902e-05
0.000270973
-1.46801e-05
0.000273874
-1.44628e-05
0.00027673
-1.42383e-05
0.00027954
-1.40065e-05
0.000282302
-1.37675e-05
0.000285015
-1.35212e-05
0.000287677
-1.32678e-05
0.000290287
-1.30073e-05
0.000292843
-1.27397e-05
0.000295345
-1.24652e-05
0.00029779
-1.21837e-05
0.000300177
-1.18954e-05
0.000302505
-1.16005e-05
0.000304772
-1.1299e-05
0.000306978
-1.09911e-05
0.00030912
-1.0677e-05
0.000311199
-1.03567e-05
0.000313212
-1.00305e-05
0.000315158
-9.69864e-06
0.000317037
-9.36122e-06
0.000318846
-9.01849e-06
0.000320586
-8.67067e-06
0.000322255
-8.31799e-06
0.000323853
-7.96071e-06
0.000325378
-7.59907e-06
0.000326829
-7.23334e-06
0.000328206
-6.86378e-06
0.000329508
-6.49068e-06
0.000330734
-6.11432e-06
0.000331884
-5.73499e-06
0.000332958
-5.35299e-06
0.000333954
-4.96862e-06
0.000334873
-4.58219e-06
0.000335713
-4.194e-06
0.000336475
-3.80437e-06
0.000337159
-3.41361e-06
0.000337764
-3.02203e-06
0.00033829
-2.62995e-06
0.000338738
-2.23769e-06
0.000339106
-1.84555e-06
0.000339396
-1.45385e-06
0.000339607
-1.06289e-06
0.00033974
-6.72977e-07
0.000339795
-2.84417e-07
0.000339773
1.02499e-07
0.000339672
4.87481e-07
0.000339495
8.70244e-07
0.000339242
1.25051e-06
0.000338913
1.62802e-06
0.000338508
2.00249e-06
0.000338029
2.37368e-06
0.000337477
2.74135e-06
0.000336851
3.10526e-06
0.000336153
3.46517e-06
0.000335383
3.82088e-06
0.000334543
4.17217e-06
0.000333634
4.51885e-06
0.000332656
4.86074e-06
0.00033161
5.19765e-06
0.000330498
5.52942e-06
0.00032932
5.8559e-06
0.000328078
6.17695e-06
0.000326773
6.49243e-06
0.000325406
6.80222e-06
0.000323977
7.10621e-06
0.000322489
7.4043e-06
0.000320943
7.6964e-06
0.000319339
7.98244e-06
0.000317679
8.26234e-06
0.000315964
8.53605e-06
0.000314196
8.80352e-06
0.000312376
9.06472e-06
0.000310504
9.3196e-06
0.000308583
9.56816e-06
0.000306613
9.81039e-06
0.000304596
1.00463e-05
0.000302534
1.02758e-05
0.000300426
1.04991e-05
0.000298276
1.0716e-05
0.000296083
1.09267e-05
0.000293849
1.11312e-05
0.000291576
1.13294e-05
0.000289264
1.15216e-05
0.000286916
1.17076e-05
0.000284531
1.18877e-05
0.000282112
1.20618e-05
0.000279659
1.223e-05
0.000277173
1.23925e-05
0.000274657
1.25492e-05
0.00027211
1.27003e-05
0.000269534
1.28458e-05
0.000266931
1.29859e-05
0.0002643
1.31206e-05
0.000261644
1.32501e-05
0.000258963
1.33745e-05
0.000256258
1.34937e-05
0.000253531
1.36081e-05
0.000250782
1.37175e-05
0.000248012
1.38223e-05
0.000245222
1.39224e-05
0.000242413
1.40181e-05
0.000239586
1.41093e-05