/*--------------------------------*- C++ -*----------------------------------*\
| =========                 |                                                 |
| \\      /  F ield         | OpenFOAM: The Open Source CFD Toolbox           |
|  \\    /   O peration     | Version:  v2012                                 |
|   \\  /    A nd           | Website:  www.openfoam.com                      |
|    \\/     M anipulation  |                                                 |
\*---------------------------------------------------------------------------*/
FoamFile
{
    version     2.0;
    format      ascii;
    class       volVectorField;
    location    "10";
    object      Psi;
}
// * * * * * * * * * * * * * * * * * * * * * * * * * * * * * * * * * * * * * //

dimensions      [0 2 -1 0 0 0 0];


internalField   nonuniform List<vector> 
65536
(
(0 0 9.21926e-06)
(0 0 2.7658e-05)
(0 0 4.60975e-05)
(0 0 6.4538e-05)
(0 0 8.29801e-05)
(0 0 0.000101424)
(0 0 0.000119871)
(0 0 0.00013832)
(0 0 0.000156772)
(0 0 0.000175228)
(0 0 0.000193687)
(0 0 0.000212151)
(0 0 0.000230618)
(0 0 0.00024909)
(0 0 0.000267567)
(0 0 0.000286048)
(0 0 0.000304533)
(0 0 0.000323023)
(0 0 0.000341518)
(0 0 0.000360016)
(0 0 0.000378519)
(0 0 0.000397024)
(0 0 0.000415534)
(0 0 0.000434045)
(0 0 0.000452559)
(0 0 0.000471074)
(0 0 0.000489589)
(0 0 0.000508104)
(0 0 0.000526618)
(0 0 0.000545129)
(0 0 0.000563637)
(0 0 0.000582139)
(0 0 0.000600635)
(0 0 0.000619123)
(0 0 0.000637601)
(0 0 0.000656067)
(0 0 0.000674519)
(0 0 0.000692956)
(0 0 0.000711375)
(0 0 0.000729773)
(0 0 0.000748148)
(0 0 0.000766497)
(0 0 0.000784818)
(0 0 0.000803107)
(0 0 0.000821362)
(0 0 0.000839578)
(0 0 0.000857753)
(0 0 0.000875883)
(0 0 0.000893963)
(0 0 0.000911991)
(0 0 0.000929961)
(0 0 0.00094787)
(0 0 0.000965713)
(0 0 0.000983486)
(0 0 0.00100118)
(0 0 0.0010188)
(0 0 0.00103633)
(0 0 0.00105377)
(0 0 0.00107112)
(0 0 0.00108836)
(0 0 0.0011055)
(0 0 0.00112252)
(0 0 0.00113943)
(0 0 0.00115621)
(0 0 0.00117286)
(0 0 0.00118937)
(0 0 0.00120573)
(0 0 0.00122195)
(0 0 0.00123801)
(0 0 0.0012539)
(0 0 0.00126962)
(0 0 0.00128517)
(0 0 0.00130052)
(0 0 0.00131569)
(0 0 0.00133066)
(0 0 0.00134542)
(0 0 0.00135997)
(0 0 0.0013743)
(0 0 0.00138839)
(0 0 0.00140226)
(0 0 0.00141588)
(0 0 0.00142925)
(0 0 0.00144236)
(0 0 0.00145522)
(0 0 0.0014678)
(0 0 0.0014801)
(0 0 0.00149212)
(0 0 0.00150385)
(0 0 0.00151528)
(0 0 0.0015264)
(0 0 0.00153722)
(0 0 0.00154772)
(0 0 0.00155789)
(0 0 0.00156774)
(0 0 0.00157725)
(0 0 0.00158643)
(0 0 0.00159526)
(0 0 0.00160374)
(0 0 0.00161187)
(0 0 0.00161964)
(0 0 0.00162704)
(0 0 0.00163408)
(0 0 0.00164075)
(0 0 0.00164705)
(0 0 0.00165297)
(0 0 0.0016585)
(0 0 0.00166366)
(0 0 0.00166843)
(0 0 0.00167282)
(0 0 0.00167682)
(0 0 0.00168043)
(0 0 0.00168365)
(0 0 0.00168648)
(0 0 0.00168892)
(0 0 0.00169096)
(0 0 0.00169262)
(0 0 0.00169388)
(0 0 0.00169476)
(0 0 0.00169525)
(0 0 0.00169535)
(0 0 0.00169507)
(0 0 0.0016944)
(0 0 0.00169335)
(0 0 0.00169193)
(0 0 0.00169013)
(0 0 0.00168795)
(0 0 0.00168541)
(0 0 0.00168251)
(0 0 0.00167924)
(0 0 0.00167561)
(0 0 0.00167164)
(0 0 0.00166731)
(0 0 0.00166264)
(0 0 0.00165763)
(0 0 0.00165229)
(0 0 0.00164662)
(0 0 0.00164062)
(0 0 0.00163431)
(0 0 0.00162769)
(0 0 0.00162075)
(0 0 0.00161352)
(0 0 0.001606)
(0 0 0.00159818)
(0 0 0.00159008)
(0 0 0.0015817)
(0 0 0.00157306)
(0 0 0.00156415)
(0 0 0.00155498)
(0 0 0.00154556)
(0 0 0.00153589)
(0 0 0.00152599)
(0 0 0.00151585)
(0 0 0.00150548)
(0 0 0.0014949)
(0 0 0.0014841)
(0 0 0.00147309)
(0 0 0.00146188)
(0 0 0.00145048)
(0 0 0.00143889)
(0 0 0.00142711)
(0 0 0.00141515)
(0 0 0.00140303)
(0 0 0.00139074)
(0 0 0.00137829)
(0 0 0.00136568)
(0 0 0.00135293)
(0 0 0.00134003)
(0 0 0.00132699)
(0 0 0.00131382)
(0 0 0.00130053)
(0 0 0.00128711)
(0 0 0.00127357)
(0 0 0.00125993)
(0 0 0.00124617)
(0 0 0.00123231)
(0 0 0.00121836)
(0 0 0.00120431)
(0 0 0.00119017)
(0 0 0.00117594)
(0 0 0.00116164)
(0 0 0.00114725)
(0 0 0.0011328)
(0 0 0.00111827)
(0 0 0.00110368)
(0 0 0.00108903)
(0 0 0.00107431)
(0 0 0.00105954)
(0 0 0.00104472)
(0 0 0.00102985)
(0 0 0.00101494)
(0 0 0.00099998)
(0 0 0.000984981)
(0 0 0.000969944)
(0 0 0.000954872)
(0 0 0.000939768)
(0 0 0.000924634)
(0 0 0.000909472)
(0 0 0.000894284)
(0 0 0.000879073)
(0 0 0.000863841)
(0 0 0.000848589)
(0 0 0.000833319)
(0 0 0.000818034)
(0 0 0.000802735)
(0 0 0.000787423)
(0 0 0.0007721)
(0 0 0.000756767)
(0 0 0.000741426)
(0 0 0.000726079)
(0 0 0.000710725)
(0 0 0.000695368)
(0 0 0.000680006)
(0 0 0.000664642)
(0 0 0.000649277)
(0 0 0.000633911)
(0 0 0.000618545)
(0 0 0.000603181)
(0 0 0.000587817)
(0 0 0.000572457)
(0 0 0.000557098)
(0 0 0.000541744)
(0 0 0.000526393)
(0 0 0.000511047)
(0 0 0.000495705)
(0 0 0.000480368)
(0 0 0.000465037)
(0 0 0.000449711)
(0 0 0.000434391)
(0 0 0.000419077)
(0 0 0.000403768)
(0 0 0.000388466)
(0 0 0.000373171)
(0 0 0.000357881)
(0 0 0.000342598)
(0 0 0.000327321)
(0 0 0.00031205)
(0 0 0.000296785)
(0 0 0.000281526)
(0 0 0.000266272)
(0 0 0.000251025)
(0 0 0.000235782)
(0 0 0.000220545)
(0 0 0.000205312)
(0 0 0.000190084)
(0 0 0.000174861)
(0 0 0.000159642)
(0 0 0.000144426)
(0 0 0.000129214)
(0 0 0.000114005)
(0 0 9.87984e-05)
(0 0 8.35945e-05)
(0 0 6.83926e-05)
(0 0 5.31925e-05)
(0 0 3.79937e-05)
(0 0 2.27958e-05)
(0 0 7.59855e-06)
(0 0 2.76576e-05)
(0 0 8.29734e-05)
(0 0 0.000138291)
(0 0 0.000193613)
(0 0 0.000248938)
(0 0 0.00030427)
(0 0 0.000359609)
(0 0 0.000414957)
(0 0 0.000470313)
(0 0 0.00052568)
(0 0 0.000581058)
(0 0 0.000636448)
(0 0 0.000691851)
(0 0 0.000747267)
(0 0 0.000802696)
(0 0 0.000858139)
(0 0 0.000913596)
(0 0 0.000969066)
(0 0 0.00102455)
(0 0 0.00108004)
(0 0 0.00113555)
(0 0 0.00119107)
(0 0 0.0012466)
(0 0 0.00130213)
(0 0 0.00135768)
(0 0 0.00141322)
(0 0 0.00146877)
(0 0 0.00152432)
(0 0 0.00157986)
(0 0 0.00163539)
(0 0 0.00169092)
(0 0 0.00174642)
(0 0 0.00180191)
(0 0 0.00185738)
(0 0 0.00191281)
(0 0 0.00196821)
(0 0 0.00202357)
(0 0 0.00207889)
(0 0 0.00213414)
(0 0 0.00218934)
(0 0 0.00224447)
(0 0 0.00229952)
(0 0 0.00235449)
(0 0 0.00240936)
(0 0 0.00246412)
(0 0 0.00251878)
(0 0 0.0025733)
(0 0 0.0026277)
(0 0 0.00268194)
(0 0 0.00273603)
(0 0 0.00278995)
(0 0 0.00284368)
(0 0 0.00289721)
(0 0 0.00295053)
(0 0 0.00300363)
(0 0 0.00305649)
(0 0 0.00310909)
(0 0 0.00316142)
(0 0 0.00321346)
(0 0 0.0032652)
(0 0 0.00331661)
(0 0 0.00336769)
(0 0 0.00341841)
(0 0 0.00346875)
(0 0 0.00351871)
(0 0 0.00356824)
(0 0 0.00361735)
(0 0 0.003666)
(0 0 0.00371418)
(0 0 0.00376187)
(0 0 0.00380904)
(0 0 0.00385568)
(0 0 0.00390177)
(0 0 0.00394727)
(0 0 0.00399218)
(0 0 0.00403648)
(0 0 0.00408013)
(0 0 0.00412311)
(0 0 0.00416542)
(0 0 0.00420701)
(0 0 0.00424788)
(0 0 0.00428801)
(0 0 0.00432736)
(0 0 0.00436592)
(0 0 0.00440367)
(0 0 0.00444058)
(0 0 0.00447664)
(0 0 0.00451183)
(0 0 0.00454613)
(0 0 0.00457951)
(0 0 0.00461196)
(0 0 0.00464347)
(0 0 0.004674)
(0 0 0.00470355)
(0 0 0.0047321)
(0 0 0.00475963)
(0 0 0.00478613)
(0 0 0.00481157)
(0 0 0.00483596)
(0 0 0.00485927)
(0 0 0.00488149)
(0 0 0.00490261)
(0 0 0.00492263)
(0 0 0.00494151)
(0 0 0.00495927)
(0 0 0.00497589)
(0 0 0.00499137)
(0 0 0.00500569)
(0 0 0.00501885)
(0 0 0.00503085)
(0 0 0.00504168)
(0 0 0.00505134)
(0 0 0.00505982)
(0 0 0.00506714)
(0 0 0.00507328)
(0 0 0.00507824)
(0 0 0.00508204)
(0 0 0.00508467)
(0 0 0.00508613)
(0 0 0.00508643)
(0 0 0.00508558)
(0 0 0.00508357)
(0 0 0.00508043)
(0 0 0.00507615)
(0 0 0.00507075)
(0 0 0.00506422)
(0 0 0.0050566)
(0 0 0.00504788)
(0 0 0.00503807)
(0 0 0.00502719)
(0 0 0.00501525)
(0 0 0.00500227)
(0 0 0.00498826)
(0 0 0.00497323)
(0 0 0.00495719)
(0 0 0.00494018)
(0 0 0.00492219)
(0 0 0.00490324)
(0 0 0.00488336)
(0 0 0.00486256)
(0 0 0.00484086)
(0 0 0.00481827)
(0 0 0.00479482)
(0 0 0.00477051)
(0 0 0.00474538)
(0 0 0.00471944)
(0 0 0.0046927)
(0 0 0.00466518)
(0 0 0.00463692)
(0 0 0.00460791)
(0 0 0.00457819)
(0 0 0.00454777)
(0 0 0.00451667)
(0 0 0.00448491)
(0 0 0.0044525)
(0 0 0.00441948)
(0 0 0.00438584)
(0 0 0.00435163)
(0 0 0.00431684)
(0 0 0.0042815)
(0 0 0.00424563)
(0 0 0.00420925)
(0 0 0.00417237)
(0 0 0.00413501)
(0 0 0.00409719)
(0 0 0.00405892)
(0 0 0.00402022)
(0 0 0.00398111)
(0 0 0.0039416)
(0 0 0.0039017)
(0 0 0.00386145)
(0 0 0.00382084)
(0 0 0.00377989)
(0 0 0.00373862)
(0 0 0.00369704)
(0 0 0.00365517)
(0 0 0.00361301)
(0 0 0.00357059)
(0 0 0.00352791)
(0 0 0.00348499)
(0 0 0.00344183)
(0 0 0.00339846)
(0 0 0.00335488)
(0 0 0.0033111)
(0 0 0.00326713)
(0 0 0.00322299)
(0 0 0.00317868)
(0 0 0.00313422)
(0 0 0.00308961)
(0 0 0.00304486)
(0 0 0.00299998)
(0 0 0.00295498)
(0 0 0.00290987)
(0 0 0.00286465)
(0 0 0.00281933)
(0 0 0.00277393)
(0 0 0.00272844)
(0 0 0.00268287)
(0 0 0.00263724)
(0 0 0.00259154)
(0 0 0.00254578)
(0 0 0.00249997)
(0 0 0.00245412)
(0 0 0.00240822)
(0 0 0.00236228)
(0 0 0.00231631)
(0 0 0.00227031)
(0 0 0.00222429)
(0 0 0.00217824)
(0 0 0.00213218)
(0 0 0.00208611)
(0 0 0.00204002)
(0 0 0.00199393)
(0 0 0.00194783)
(0 0 0.00190173)
(0 0 0.00185563)
(0 0 0.00180954)
(0 0 0.00176345)
(0 0 0.00171737)
(0 0 0.00167129)
(0 0 0.00162523)
(0 0 0.00157917)
(0 0 0.00153313)
(0 0 0.00148711)
(0 0 0.0014411)
(0 0 0.0013951)
(0 0 0.00134913)
(0 0 0.00130317)
(0 0 0.00125722)
(0 0 0.0012113)
(0 0 0.00116539)
(0 0 0.00111951)
(0 0 0.00107364)
(0 0 0.00102779)
(0 0 0.000981956)
(0 0 0.000936143)
(0 0 0.000890349)
(0 0 0.000844571)
(0 0 0.000798811)
(0 0 0.000753068)
(0 0 0.000707341)
(0 0 0.000661629)
(0 0 0.000615932)
(0 0 0.000570249)
(0 0 0.000524579)
(0 0 0.000478921)
(0 0 0.000433274)
(0 0 0.000387638)
(0 0 0.000342011)
(0 0 0.000296393)
(0 0 0.000250781)
(0 0 0.000205176)
(0 0 0.000159576)
(0 0 0.00011398)
(0 0 6.83869e-05)
(0 0 2.27955e-05)
(0 0 4.60952e-05)
(0 0 0.000138287)
(0 0 0.000230482)
(0 0 0.000322682)
(0 0 0.000414891)
(0 0 0.000507109)
(0 0 0.00059934)
(0 0 0.000691584)
(0 0 0.000783844)
(0 0 0.000876121)
(0 0 0.000968417)
(0 0 0.00106073)
(0 0 0.00115307)
(0 0 0.00124543)
(0 0 0.00133781)
(0 0 0.00143022)
(0 0 0.00152264)
(0 0 0.0016151)
(0 0 0.00170757)
(0 0 0.00180006)
(0 0 0.00189258)
(0 0 0.00198511)
(0 0 0.00207766)
(0 0 0.00217022)
(0 0 0.00226279)
(0 0 0.00235537)
(0 0 0.00244795)
(0 0 0.00254053)
(0 0 0.0026331)
(0 0 0.00272567)
(0 0 0.00281821)
(0 0 0.00291073)
(0 0 0.00300322)
(0 0 0.00309566)
(0 0 0.00318806)
(0 0 0.0032804)
(0 0 0.00337268)
(0 0 0.00346487)
(0 0 0.00355698)
(0 0 0.00364898)
(0 0 0.00374087)
(0 0 0.00383263)
(0 0 0.00392425)
(0 0 0.00401571)
(0 0 0.004107)
(0 0 0.0041981)
(0 0 0.00428899)
(0 0 0.00437966)
(0 0 0.00447008)
(0 0 0.00456024)
(0 0 0.00465011)
(0 0 0.00473968)
(0 0 0.00482892)
(0 0 0.00491781)
(0 0 0.00500632)
(0 0 0.00509443)
(0 0 0.00518212)
(0 0 0.00526935)
(0 0 0.0053561)
(0 0 0.00544235)
(0 0 0.00552807)
(0 0 0.00561321)
(0 0 0.00569777)
(0 0 0.0057817)
(0 0 0.00586497)
(0 0 0.00594755)
(0 0 0.00602942)
(0 0 0.00611053)
(0 0 0.00619085)
(0 0 0.00627035)
(0 0 0.006349)
(0 0 0.00642675)
(0 0 0.00650358)
(0 0 0.00657946)
(0 0 0.00665433)
(0 0 0.00672817)
(0 0 0.00680095)
(0 0 0.00687262)
(0 0 0.00694315)
(0 0 0.0070125)
(0 0 0.00708064)
(0 0 0.00714753)
(0 0 0.00721314)
(0 0 0.00727743)
(0 0 0.00734037)
(0 0 0.00740192)
(0 0 0.00746204)
(0 0 0.00752071)
(0 0 0.00757789)
(0 0 0.00763355)
(0 0 0.00768766)
(0 0 0.00774019)
(0 0 0.0077911)
(0 0 0.00784036)
(0 0 0.00788796)
(0 0 0.00793386)
(0 0 0.00797804)
(0 0 0.00802047)
(0 0 0.00806113)
(0 0 0.00809999)
(0 0 0.00813704)
(0 0 0.00817226)
(0 0 0.00820562)
(0 0 0.00823711)
(0 0 0.00826672)
(0 0 0.00829443)
(0 0 0.00832023)
(0 0 0.0083441)
(0 0 0.00836604)
(0 0 0.00838604)
(0 0 0.00840409)
(0 0 0.00842019)
(0 0 0.00843434)
(0 0 0.00844653)
(0 0 0.00845676)
(0 0 0.00846504)
(0 0 0.00847136)
(0 0 0.00847574)
(0 0 0.00847817)
(0 0 0.00847867)
(0 0 0.00847724)
(0 0 0.00847389)
(0 0 0.00846864)
(0 0 0.0084615)
(0 0 0.00845248)
(0 0 0.0084416)
(0 0 0.00842888)
(0 0 0.00841433)
(0 0 0.00839797)
(0 0 0.00837983)
(0 0 0.00835992)
(0 0 0.00833826)
(0 0 0.00831489)
(0 0 0.00828982)
(0 0 0.00826309)
(0 0 0.0082347)
(0 0 0.0082047)
(0 0 0.00817311)
(0 0 0.00813996)
(0 0 0.00810527)
(0 0 0.00806908)
(0 0 0.00803142)
(0 0 0.0079923)
(0 0 0.00795178)
(0 0 0.00790987)
(0 0 0.00786661)
(0 0 0.00782202)
(0 0 0.00777615)
(0 0 0.00772901)
(0 0 0.00768065)
(0 0 0.00763109)
(0 0 0.00758037)
(0 0 0.00752851)
(0 0 0.00747556)
(0 0 0.00742153)
(0 0 0.00736646)
(0 0 0.00731039)
(0 0 0.00725334)
(0 0 0.00719534)
(0 0 0.00713643)
(0 0 0.00707663)
(0 0 0.00701597)
(0 0 0.00695448)
(0 0 0.0068922)
(0 0 0.00682914)
(0 0 0.00676534)
(0 0 0.00670082)
(0 0 0.00663562)
(0 0 0.00656975)
(0 0 0.00650325)
(0 0 0.00643613)
(0 0 0.00636843)
(0 0 0.00630017)
(0 0 0.00623137)
(0 0 0.00616206)
(0 0 0.00609226)
(0 0 0.00602198)
(0 0 0.00595127)
(0 0 0.00588012)
(0 0 0.00580857)
(0 0 0.00573663)
(0 0 0.00566433)
(0 0 0.00559168)
(0 0 0.00551871)
(0 0 0.00544542)
(0 0 0.00537184)
(0 0 0.00529798)
(0 0 0.00522386)
(0 0 0.0051495)
(0 0 0.00507491)
(0 0 0.0050001)
(0 0 0.00492509)
(0 0 0.00484989)
(0 0 0.00477452)
(0 0 0.00469899)
(0 0 0.00462331)
(0 0 0.00454748)
(0 0 0.00447154)
(0 0 0.00439547)
(0 0 0.0043193)
(0 0 0.00424303)
(0 0 0.00416667)
(0 0 0.00409024)
(0 0 0.00401373)
(0 0 0.00393717)
(0 0 0.00386054)
(0 0 0.00378387)
(0 0 0.00370716)
(0 0 0.00363042)
(0 0 0.00355365)
(0 0 0.00347685)
(0 0 0.00340004)
(0 0 0.00332322)
(0 0 0.00324639)
(0 0 0.00316955)
(0 0 0.00309272)
(0 0 0.00301589)
(0 0 0.00293907)
(0 0 0.00286227)
(0 0 0.00278547)
(0 0 0.0027087)
(0 0 0.00263194)
(0 0 0.00255521)
(0 0 0.0024785)
(0 0 0.00240181)
(0 0 0.00232515)
(0 0 0.00224852)
(0 0 0.00217192)
(0 0 0.00209535)
(0 0 0.00201881)
(0 0 0.0019423)
(0 0 0.00186582)
(0 0 0.00178937)
(0 0 0.00171296)
(0 0 0.00163657)
(0 0 0.00156022)
(0 0 0.00148389)
(0 0 0.0014076)
(0 0 0.00133133)
(0 0 0.0012551)
(0 0 0.00117888)
(0 0 0.0011027)
(0 0 0.00102654)
(0 0 0.0009504)
(0 0 0.000874284)
(0 0 0.000798189)
(0 0 0.000722112)
(0 0 0.000646053)
(0 0 0.000570009)
(0 0 0.00049398)
(0 0 0.000417962)
(0 0 0.000341955)
(0 0 0.000265956)
(0 0 0.000189964)
(0 0 0.000113976)
(0 0 3.79918e-05)
(0 0 6.45317e-05)
(0 0 0.000193597)
(0 0 0.000322667)
(0 0 0.000451744)
(0 0 0.000580833)
(0 0 0.000709936)
(0 0 0.000839056)
(0 0 0.000968196)
(0 0 0.00109736)
(0 0 0.00122654)
(0 0 0.00135576)
(0 0 0.001485)
(0 0 0.00161427)
(0 0 0.00174357)
(0 0 0.0018729)
(0 0 0.00200227)
(0 0 0.00213167)
(0 0 0.0022611)
(0 0 0.00239057)
(0 0 0.00252006)
(0 0 0.00264958)
(0 0 0.00277913)
(0 0 0.0029087)
(0 0 0.00303829)
(0 0 0.00316789)
(0 0 0.00329751)
(0 0 0.00342713)
(0 0 0.00355675)
(0 0 0.00368636)
(0 0 0.00381596)
(0 0 0.00394553)
(0 0 0.00407507)
(0 0 0.00420456)
(0 0 0.004334)
(0 0 0.00446337)
(0 0 0.00459266)
(0 0 0.00472186)
(0 0 0.00485095)
(0 0 0.00497991)
(0 0 0.00510873)
(0 0 0.0052374)
(0 0 0.00536588)
(0 0 0.00549417)
(0 0 0.00562224)
(0 0 0.00575007)
(0 0 0.00587763)
(0 0 0.0060049)
(0 0 0.00613186)
(0 0 0.00625848)
(0 0 0.00638473)
(0 0 0.00651059)
(0 0 0.00663601)
(0 0 0.00676098)
(0 0 0.00688546)
(0 0 0.00700941)
(0 0 0.0071328)
(0 0 0.0072556)
(0 0 0.00737776)
(0 0 0.00749926)
(0 0 0.00762004)
(0 0 0.00774008)
(0 0 0.00785933)
(0 0 0.00797775)
(0 0 0.00809529)
(0 0 0.00821192)
(0 0 0.00832758)
(0 0 0.00844224)
(0 0 0.00855584)
(0 0 0.00866834)
(0 0 0.00877969)
(0 0 0.00888984)
(0 0 0.00899875)
(0 0 0.00910636)
(0 0 0.00921263)
(0 0 0.00931751)
(0 0 0.00942094)
(0 0 0.00952287)
(0 0 0.00962326)
(0 0 0.00972205)
(0 0 0.0098192)
(0 0 0.00991464)
(0 0 0.0100083)
(0 0 0.0101002)
(0 0 0.0101903)
(0 0 0.0102785)
(0 0 0.0103647)
(0 0 0.0104489)
(0 0 0.0105311)
(0 0 0.0106112)
(0 0 0.0106892)
(0 0 0.0107649)
(0 0 0.0108385)
(0 0 0.0109098)
(0 0 0.0109788)
(0 0 0.0110455)
(0 0 0.0111098)
(0 0 0.0111717)
(0 0 0.0112311)
(0 0 0.0112881)
(0 0 0.0113425)
(0 0 0.0113944)
(0 0 0.0114438)
(0 0 0.0114905)
(0 0 0.0115346)
(0 0 0.0115761)
(0 0 0.0116149)
(0 0 0.011651)
(0 0 0.0116844)
(0 0 0.0117152)
(0 0 0.0117432)
(0 0 0.0117685)
(0 0 0.011791)
(0 0 0.0118108)
(0 0 0.0118279)
(0 0 0.0118422)
(0 0 0.0118538)
(0 0 0.0118626)
(0 0 0.0118688)
(0 0 0.0118721)
(0 0 0.0118728)
(0 0 0.0118708)
(0 0 0.0118661)
(0 0 0.0118587)
(0 0 0.0118487)
(0 0 0.0118361)
(0 0 0.0118208)
(0 0 0.011803)
(0 0 0.0117826)
(0 0 0.0117597)
(0 0 0.0117342)
(0 0 0.0117063)
(0 0 0.011676)
(0 0 0.0116432)
(0 0 0.0116081)
(0 0 0.0115706)
(0 0 0.0115308)
(0 0 0.0114888)
(0 0 0.0114445)
(0 0 0.0113981)
(0 0 0.0113495)
(0 0 0.0112988)
(0 0 0.011246)
(0 0 0.0111912)
(0 0 0.0111344)
(0 0 0.0110757)
(0 0 0.0110151)
(0 0 0.0109526)
(0 0 0.0108884)
(0 0 0.0108223)
(0 0 0.0107546)
(0 0 0.0106852)
(0 0 0.0106141)
(0 0 0.0105415)
(0 0 0.0104673)
(0 0 0.0103916)
(0 0 0.0103145)
(0 0 0.0102359)
(0 0 0.010156)
(0 0 0.0100748)
(0 0 0.00999224)
(0 0 0.00990848)
(0 0 0.00982352)
(0 0 0.00973739)
(0 0 0.00965015)
(0 0 0.00956183)
(0 0 0.00947248)
(0 0 0.00938211)
(0 0 0.00929079)
(0 0 0.00919854)
(0 0 0.0091054)
(0 0 0.00901141)
(0 0 0.00891659)
(0 0 0.00882099)
(0 0 0.00872464)
(0 0 0.00862757)
(0 0 0.00852982)
(0 0 0.00843141)
(0 0 0.00833237)
(0 0 0.00823274)
(0 0 0.00813254)
(0 0 0.0080318)
(0 0 0.00793055)
(0 0 0.00782882)
(0 0 0.00772662)
(0 0 0.007624)
(0 0 0.00752096)
(0 0 0.00741754)
(0 0 0.00731375)
(0 0 0.00720962)
(0 0 0.00710517)
(0 0 0.00700042)
(0 0 0.00689539)
(0 0 0.00679009)
(0 0 0.00668456)
(0 0 0.00657879)
(0 0 0.00647282)
(0 0 0.00636666)
(0 0 0.00626031)
(0 0 0.00615381)
(0 0 0.00604715)
(0 0 0.00594036)
(0 0 0.00583345)
(0 0 0.00572643)
(0 0 0.00561931)
(0 0 0.00551211)
(0 0 0.00540483)
(0 0 0.00529748)
(0 0 0.00519008)
(0 0 0.00508263)
(0 0 0.00497514)
(0 0 0.00486762)
(0 0 0.00476008)
(0 0 0.00465252)
(0 0 0.00454495)
(0 0 0.00443737)
(0 0 0.0043298)
(0 0 0.00422224)
(0 0 0.00411469)
(0 0 0.00400715)
(0 0 0.00389964)
(0 0 0.00379215)
(0 0 0.00368469)
(0 0 0.00357726)
(0 0 0.00346986)
(0 0 0.0033625)
(0 0 0.00325518)
(0 0 0.00314789)
(0 0 0.00304065)
(0 0 0.00293345)
(0 0 0.00282629)
(0 0 0.00271918)
(0 0 0.00261211)
(0 0 0.00250508)
(0 0 0.0023981)
(0 0 0.00229116)
(0 0 0.00218426)
(0 0 0.00207741)
(0 0 0.0019706)
(0 0 0.00186383)
(0 0 0.0017571)
(0 0 0.0016504)
(0 0 0.00154374)
(0 0 0.00143712)
(0 0 0.00133053)
(0 0 0.00122397)
(0 0 0.00111744)
(0 0 0.00101093)
(0 0 0.000904452)
(0 0 0.000797994)
(0 0 0.000691554)
(0 0 0.000585132)
(0 0 0.000478725)
(0 0 0.000372329)
(0 0 0.000265943)
(0 0 0.000159563)
(0 0 5.31872e-05)
(0 0 8.29666e-05)
(0 0 0.000248902)
(0 0 0.000414844)
(0 0 0.000580795)
(0 0 0.000746762)
(0 0 0.000912746)
(0 0 0.00107875)
(0 0 0.00124479)
(0 0 0.00141085)
(0 0 0.00157694)
(0 0 0.00174307)
(0 0 0.00190923)
(0 0 0.00207543)
(0 0 0.00224168)
(0 0 0.00240796)
(0 0 0.00257429)
(0 0 0.00274066)
(0 0 0.00290708)
(0 0 0.00307353)
(0 0 0.00324003)
(0 0 0.00340656)
(0 0 0.00357313)
(0 0 0.00373972)
(0 0 0.00390635)
(0 0 0.00407299)
(0 0 0.00423965)
(0 0 0.00440631)
(0 0 0.00457298)
(0 0 0.00473964)
(0 0 0.00490627)
(0 0 0.00507288)
(0 0 0.00523945)
(0 0 0.00540596)
(0 0 0.0055724)
(0 0 0.00573875)
(0 0 0.00590501)
(0 0 0.00607115)
(0 0 0.00623714)
(0 0 0.00640298)
(0 0 0.00656864)
(0 0 0.0067341)
(0 0 0.00689933)
(0 0 0.00706431)
(0 0 0.00722901)
(0 0 0.0073934)
(0 0 0.00755745)
(0 0 0.00772113)
(0 0 0.00788441)
(0 0 0.00804726)
(0 0 0.00820963)
(0 0 0.00837149)
(0 0 0.0085328)
(0 0 0.00869353)
(0 0 0.00885363)
(0 0 0.00901305)
(0 0 0.00917176)
(0 0 0.00932971)
(0 0 0.00948684)
(0 0 0.00964312)
(0 0 0.00979848)
(0 0 0.00995289)
(0 0 0.0101063)
(0 0 0.0102586)
(0 0 0.0104098)
(0 0 0.0105598)
(0 0 0.0107086)
(0 0 0.0108561)
(0 0 0.0110023)
(0 0 0.011147)
(0 0 0.0112902)
(0 0 0.0114319)
(0 0 0.011572)
(0 0 0.0117105)
(0 0 0.0118472)
(0 0 0.0119821)
(0 0 0.0121152)
(0 0 0.0122463)
(0 0 0.0123755)
(0 0 0.0125026)
(0 0 0.0126276)
(0 0 0.0127504)
(0 0 0.012871)
(0 0 0.0129892)
(0 0 0.0131051)
(0 0 0.0132185)
(0 0 0.0133294)
(0 0 0.0134378)
(0 0 0.0135435)
(0 0 0.0136466)
(0 0 0.0137469)
(0 0 0.0138444)
(0 0 0.0139391)
(0 0 0.0140309)
(0 0 0.0141197)
(0 0 0.0142055)
(0 0 0.0142882)
(0 0 0.0143678)
(0 0 0.0144443)
(0 0 0.0145176)
(0 0 0.0145876)
(0 0 0.0146544)
(0 0 0.0147178)
(0 0 0.014778)
(0 0 0.0148347)
(0 0 0.0148881)
(0 0 0.014938)
(0 0 0.0149845)
(0 0 0.0150275)
(0 0 0.015067)
(0 0 0.0151031)
(0 0 0.0151356)
(0 0 0.0151646)
(0 0 0.01519)
(0 0 0.015212)
(0 0 0.0152304)
(0 0 0.0152453)
(0 0 0.0152566)
(0 0 0.0152645)
(0 0 0.0152688)
(0 0 0.0152697)
(0 0 0.0152671)
(0 0 0.015261)
(0 0 0.0152515)
(0 0 0.0152386)
(0 0 0.0152223)
(0 0 0.0152026)
(0 0 0.0151797)
(0 0 0.0151534)
(0 0 0.0151239)
(0 0 0.0150911)
(0 0 0.0150552)
(0 0 0.0150161)
(0 0 0.0149739)
(0 0 0.0149287)
(0 0 0.0148805)
(0 0 0.0148293)
(0 0 0.0147751)
(0 0 0.0147182)
(0 0 0.0146584)
(0 0 0.0145958)
(0 0 0.0145305)
(0 0 0.0144626)
(0 0 0.0143921)
(0 0 0.014319)
(0 0 0.0142434)
(0 0 0.0141654)
(0 0 0.0140851)
(0 0 0.0140024)
(0 0 0.0139174)
(0 0 0.0138302)
(0 0 0.0137409)
(0 0 0.0136494)
(0 0 0.013556)
(0 0 0.0134605)
(0 0 0.0133631)
(0 0 0.0132639)
(0 0 0.0131628)
(0 0 0.01306)
(0 0 0.0129555)
(0 0 0.0128493)
(0 0 0.0127415)
(0 0 0.0126322)
(0 0 0.0125214)
(0 0 0.0124092)
(0 0 0.0122956)
(0 0 0.0121806)
(0 0 0.0120644)
(0 0 0.0119469)
(0 0 0.0118282)
(0 0 0.0117084)
(0 0 0.0115875)
(0 0 0.0114655)
(0 0 0.0113426)
(0 0 0.0112186)
(0 0 0.0110938)
(0 0 0.010968)
(0 0 0.0108415)
(0 0 0.0107141)
(0 0 0.0105859)
(0 0 0.010457)
(0 0 0.0103275)
(0 0 0.0101973)
(0 0 0.0100664)
(0 0 0.00993498)
(0 0 0.00980299)
(0 0 0.00967047)
(0 0 0.00953746)
(0 0 0.00940398)
(0 0 0.00927006)
(0 0 0.00913574)
(0 0 0.00900102)
(0 0 0.00886595)
(0 0 0.00873054)
(0 0 0.00859482)
(0 0 0.00845881)
(0 0 0.00832253)
(0 0 0.00818601)
(0 0 0.00804925)
(0 0 0.00791229)
(0 0 0.00777514)
(0 0 0.00763782)
(0 0 0.00750034)
(0 0 0.00736273)
(0 0 0.00722498)
(0 0 0.00708713)
(0 0 0.00694918)
(0 0 0.00681115)
(0 0 0.00667304)
(0 0 0.00653488)
(0 0 0.00639666)
(0 0 0.00625841)
(0 0 0.00612013)
(0 0 0.00598182)
(0 0 0.00584351)
(0 0 0.00570519)
(0 0 0.00556688)
(0 0 0.00542857)
(0 0 0.00529029)
(0 0 0.00515202)
(0 0 0.00501378)
(0 0 0.00487558)
(0 0 0.00473741)
(0 0 0.00459928)
(0 0 0.00446119)
(0 0 0.00432315)
(0 0 0.00418516)
(0 0 0.00404722)
(0 0 0.00390934)
(0 0 0.0037715)
(0 0 0.00363373)
(0 0 0.00349601)
(0 0 0.00335835)
(0 0 0.00322074)
(0 0 0.00308319)
(0 0 0.0029457)
(0 0 0.00280827)
(0 0 0.00267089)
(0 0 0.00253356)
(0 0 0.00239628)
(0 0 0.00225906)
(0 0 0.00212188)
(0 0 0.00198475)
(0 0 0.00184767)
(0 0 0.00171063)
(0 0 0.00157363)
(0 0 0.00143666)
(0 0 0.00129973)
(0 0 0.00116283)
(0 0 0.00102596)
(0 0 0.000889112)
(0 0 0.000752288)
(0 0 0.000615483)
(0 0 0.000478693)
(0 0 0.000341915)
(0 0 0.000205145)
(0 0 6.83812e-05)
(0 0 0.000101399)
(0 0 0.000304201)
(0 0 0.00050701)
(0 0 0.000709832)
(0 0 0.000912672)
(0 0 0.00111553)
(0 0 0.00131842)
(0 0 0.00152135)
(0 0 0.0017243)
(0 0 0.0019273)
(0 0 0.00213034)
(0 0 0.00233343)
(0 0 0.00253656)
(0 0 0.00273975)
(0 0 0.00294298)
(0 0 0.00314627)
(0 0 0.00334962)
(0 0 0.00355301)
(0 0 0.00375646)
(0 0 0.00395996)
(0 0 0.0041635)
(0 0 0.00436709)
(0 0 0.00457072)
(0 0 0.00477438)
(0 0 0.00497807)
(0 0 0.00518178)
(0 0 0.0053855)
(0 0 0.00558922)
(0 0 0.00579293)
(0 0 0.00599662)
(0 0 0.00620028)
(0 0 0.00640388)
(0 0 0.00660742)
(0 0 0.00681088)
(0 0 0.00701424)
(0 0 0.00721748)
(0 0 0.00742057)
(0 0 0.0076235)
(0 0 0.00782624)
(0 0 0.00802876)
(0 0 0.00823103)
(0 0 0.00843303)
(0 0 0.00863473)
(0 0 0.00883608)
(0 0 0.00903707)
(0 0 0.00923764)
(0 0 0.00943776)
(0 0 0.00963739)
(0 0 0.0098365)
(0 0 0.010035)
(0 0 0.0102329)
(0 0 0.0104302)
(0 0 0.0106267)
(0 0 0.0108225)
(0 0 0.0110174)
(0 0 0.0112115)
(0 0 0.0114046)
(0 0 0.0115968)
(0 0 0.0117879)
(0 0 0.0119779)
(0 0 0.0121667)
(0 0 0.0123543)
(0 0 0.0125406)
(0 0 0.0127255)
(0 0 0.012909)
(0 0 0.013091)
(0 0 0.0132713)
(0 0 0.0134501)
(0 0 0.0136271)
(0 0 0.0138023)
(0 0 0.0139756)
(0 0 0.014147)
(0 0 0.0143163)
(0 0 0.0144836)
(0 0 0.0146486)
(0 0 0.0148114)
(0 0 0.0149718)
(0 0 0.0151298)
(0 0 0.0152853)
(0 0 0.0154382)
(0 0 0.0155884)
(0 0 0.0157359)
(0 0 0.0158805)
(0 0 0.0160223)
(0 0 0.016161)
(0 0 0.0162967)
(0 0 0.0164293)
(0 0 0.0165587)
(0 0 0.0166848)
(0 0 0.0168075)
(0 0 0.0169268)
(0 0 0.0170426)
(0 0 0.0171549)
(0 0 0.0172635)
(0 0 0.0173685)
(0 0 0.0174697)
(0 0 0.0175671)
(0 0 0.0176606)
(0 0 0.0177503)
(0 0 0.017836)
(0 0 0.0179176)
(0 0 0.0179953)
(0 0 0.0180688)
(0 0 0.0181383)
(0 0 0.0182035)
(0 0 0.0182646)
(0 0 0.0183214)
(0 0 0.018374)
(0 0 0.0184224)
(0 0 0.0184664)
(0 0 0.0185062)
(0 0 0.0185416)
(0 0 0.0185728)
(0 0 0.0185996)
(0 0 0.0186221)
(0 0 0.0186403)
(0 0 0.0186542)
(0 0 0.0186637)
(0 0 0.018669)
(0 0 0.01867)
(0 0 0.0186668)
(0 0 0.0186593)
(0 0 0.0186477)
(0 0 0.0186318)
(0 0 0.0186119)
(0 0 0.0185878)
(0 0 0.0185596)
(0 0 0.0185274)
(0 0 0.0184913)
(0 0 0.0184512)
(0 0 0.0184072)
(0 0 0.0183593)
(0 0 0.0183077)
(0 0 0.0182523)
(0 0 0.0181933)
(0 0 0.0181306)
(0 0 0.0180643)
(0 0 0.0179946)
(0 0 0.0179214)
(0 0 0.0178448)
(0 0 0.017765)
(0 0 0.0176818)
(0 0 0.0175955)
(0 0 0.0175061)
(0 0 0.0174136)
(0 0 0.0173182)
(0 0 0.0172198)
(0 0 0.0171186)
(0 0 0.0170146)
(0 0 0.016908)
(0 0 0.0167986)
(0 0 0.0166868)
(0 0 0.0165724)
(0 0 0.0164556)
(0 0 0.0163365)
(0 0 0.0162151)
(0 0 0.0160915)
(0 0 0.0159657)
(0 0 0.0158378)
(0 0 0.0157079)
(0 0 0.0155761)
(0 0 0.0154424)
(0 0 0.0153069)
(0 0 0.0151696)
(0 0 0.0150306)
(0 0 0.01489)
(0 0 0.0147479)
(0 0 0.0146042)
(0 0 0.014459)
(0 0 0.0143125)
(0 0 0.0141646)
(0 0 0.0140155)
(0 0 0.0138651)
(0 0 0.0137135)
(0 0 0.0135609)
(0 0 0.0134071)
(0 0 0.0132523)
(0 0 0.0130965)
(0 0 0.0129398)
(0 0 0.0127822)
(0 0 0.0126238)
(0 0 0.0124646)
(0 0 0.0123046)
(0 0 0.0121439)
(0 0 0.0119825)
(0 0 0.0118205)
(0 0 0.0116578)
(0 0 0.0114946)
(0 0 0.0113309)
(0 0 0.0111667)
(0 0 0.011002)
(0 0 0.0108368)
(0 0 0.0106713)
(0 0 0.0105054)
(0 0 0.0103391)
(0 0 0.0101725)
(0 0 0.0100056)
(0 0 0.0098384)
(0 0 0.00967097)
(0 0 0.00950331)
(0 0 0.00933543)
(0 0 0.00916737)
(0 0 0.00899914)
(0 0 0.00883076)
(0 0 0.00866225)
(0 0 0.00849361)
(0 0 0.00832488)
(0 0 0.00815606)
(0 0 0.00798717)
(0 0 0.00781822)
(0 0 0.00764923)
(0 0 0.0074802)
(0 0 0.00731114)
(0 0 0.00714208)
(0 0 0.00697301)
(0 0 0.00680394)
(0 0 0.00663489)
(0 0 0.00646586)
(0 0 0.00629686)
(0 0 0.00612789)
(0 0 0.00595896)
(0 0 0.00579008)
(0 0 0.00562125)
(0 0 0.00545247)
(0 0 0.00528375)
(0 0 0.00511509)
(0 0 0.0049465)
(0 0 0.00477797)
(0 0 0.0046095)
(0 0 0.00444111)
(0 0 0.00427279)
(0 0 0.00410453)
(0 0 0.00393635)
(0 0 0.00376823)
(0 0 0.00360019)
(0 0 0.00343222)
(0 0 0.00326431)
(0 0 0.00309647)
(0 0 0.00292869)
(0 0 0.00276097)
(0 0 0.00259332)
(0 0 0.00242572)
(0 0 0.00225818)
(0 0 0.00209069)
(0 0 0.00192325)
(0 0 0.00175585)
(0 0 0.00158849)
(0 0 0.00142118)
(0 0 0.0012539)
(0 0 0.00108665)
(0 0 0.000919425)
(0 0 0.000752225)
(0 0 0.000585044)
(0 0 0.000417878)
(0 0 0.000250723)
(0 0 8.35735e-05)
(0 0 0.00011983)
(0 0 0.000359492)
(0 0 0.000599164)
(0 0 0.000838851)
(0 0 0.00107856)
(0 0 0.0013183)
(0 0 0.00155806)
(0 0 0.00179787)
(0 0 0.00203772)
(0 0 0.00227762)
(0 0 0.00251757)
(0 0 0.00275757)
(0 0 0.00299764)
(0 0 0.00323776)
(0 0 0.00347795)
(0 0 0.0037182)
(0 0 0.00395852)
(0 0 0.0041989)
(0 0 0.00443934)
(0 0 0.00467984)
(0 0 0.0049204)
(0 0 0.00516102)
(0 0 0.00540168)
(0 0 0.00564239)
(0 0 0.00588313)
(0 0 0.0061239)
(0 0 0.00636468)
(0 0 0.00660547)
(0 0 0.00684625)
(0 0 0.007087)
(0 0 0.00732772)
(0 0 0.00756838)
(0 0 0.00780897)
(0 0 0.00804947)
(0 0 0.00828985)
(0 0 0.00853009)
(0 0 0.00877017)
(0 0 0.00901005)
(0 0 0.00924971)
(0 0 0.00948912)
(0 0 0.00972824)
(0 0 0.00996704)
(0 0 0.0102055)
(0 0 0.0104435)
(0 0 0.0106811)
(0 0 0.0109183)
(0 0 0.0111549)
(0 0 0.0113909)
(0 0 0.0116263)
(0 0 0.0118611)
(0 0 0.0120951)
(0 0 0.0123283)
(0 0 0.0125607)
(0 0 0.0127921)
(0 0 0.0130227)
(0 0 0.0132521)
(0 0 0.0134805)
(0 0 0.0137078)
(0 0 0.0139338)
(0 0 0.0141585)
(0 0 0.0143818)
(0 0 0.0146036)
(0 0 0.0148239)
(0 0 0.0150426)
(0 0 0.0152596)
(0 0 0.0154749)
(0 0 0.0156882)
(0 0 0.0158996)
(0 0 0.016109)
(0 0 0.0163163)
(0 0 0.0165213)
(0 0 0.016724)
(0 0 0.0169243)
(0 0 0.0171221)
(0 0 0.0173174)
(0 0 0.0175099)
(0 0 0.0176997)
(0 0 0.0178866)
(0 0 0.0180705)
(0 0 0.0182514)
(0 0 0.0184291)
(0 0 0.0186036)
(0 0 0.0187748)
(0 0 0.0189425)
(0 0 0.0191066)
(0 0 0.0192672)
(0 0 0.019424)
(0 0 0.0195771)
(0 0 0.0197263)
(0 0 0.0198715)
(0 0 0.0200126)
(0 0 0.0201497)
(0 0 0.0202825)
(0 0 0.020411)
(0 0 0.0205352)
(0 0 0.020655)
(0 0 0.0207702)
(0 0 0.0208809)
(0 0 0.0209869)
(0 0 0.0210883)
(0 0 0.021185)
(0 0 0.0212768)
(0 0 0.0213638)
(0 0 0.0214459)
(0 0 0.0215231)
(0 0 0.0215954)
(0 0 0.0216626)
(0 0 0.0217248)
(0 0 0.021782)
(0 0 0.0218341)
(0 0 0.0218811)
(0 0 0.021923)
(0 0 0.0219599)
(0 0 0.0219915)
(0 0 0.0220181)
(0 0 0.0220396)
(0 0 0.022056)
(0 0 0.0220673)
(0 0 0.0220735)
(0 0 0.0220746)
(0 0 0.0220707)
(0 0 0.0220619)
(0 0 0.022048)
(0 0 0.0220292)
(0 0 0.0220055)
(0 0 0.021977)
(0 0 0.0219436)
(0 0 0.0219055)
(0 0 0.0218626)
(0 0 0.0218151)
(0 0 0.021763)
(0 0 0.0217063)
(0 0 0.0216452)
(0 0 0.0215796)
(0 0 0.0215097)
(0 0 0.0214355)
(0 0 0.0213571)
(0 0 0.0212745)
(0 0 0.0211878)
(0 0 0.0210972)
(0 0 0.0210026)
(0 0 0.0209042)
(0 0 0.0208021)
(0 0 0.0206962)
(0 0 0.0205868)
(0 0 0.0204738)
(0 0 0.0203574)
(0 0 0.0202376)
(0 0 0.0201146)
(0 0 0.0199883)
(0 0 0.019859)
(0 0 0.0197266)
(0 0 0.0195913)
(0 0 0.0194531)
(0 0 0.0193122)
(0 0 0.0191685)
(0 0 0.0190223)
(0 0 0.0188735)
(0 0 0.0187222)
(0 0 0.0185685)
(0 0 0.0184126)
(0 0 0.0182544)
(0 0 0.0180941)
(0 0 0.0179317)
(0 0 0.0177673)
(0 0 0.017601)
(0 0 0.0174329)
(0 0 0.0172629)
(0 0 0.0170913)
(0 0 0.016918)
(0 0 0.0167431)
(0 0 0.0165667)
(0 0 0.0163888)
(0 0 0.0162096)
(0 0 0.016029)
(0 0 0.0158472)
(0 0 0.0156641)
(0 0 0.0154799)
(0 0 0.0152946)
(0 0 0.0151083)
(0 0 0.0149209)
(0 0 0.0147327)
(0 0 0.0145435)
(0 0 0.0143535)
(0 0 0.0141627)
(0 0 0.0139711)
(0 0 0.0137788)
(0 0 0.0135859)
(0 0 0.0133923)
(0 0 0.0131981)
(0 0 0.0130034)
(0 0 0.0128082)
(0 0 0.0126124)
(0 0 0.0124163)
(0 0 0.0122197)
(0 0 0.0120227)
(0 0 0.0118254)
(0 0 0.0116278)
(0 0 0.0114299)
(0 0 0.0112317)
(0 0 0.0110332)
(0 0 0.0108346)
(0 0 0.0106357)
(0 0 0.0104367)
(0 0 0.0102375)