/*--------------------------------*- C++ -*----------------------------------*\
| =========                 |                                                 |
| \\      /  F ield         | OpenFOAM: The Open Source CFD Toolbox           |
|  \\    /   O peration     | Version:  v2012                                 |
|   \\  /    A nd           | Website:  www.openfoam.com                      |
|    \\/     M anipulation  |                                                 |
\*---------------------------------------------------------------------------*/
FoamFile
{
    version     2.0;
    format      ascii;
    class       volScalarField;
    location    "10";
    object      W;
}
// * * * * * * * * * * * * * * * * * * * * * * * * * * * * * * * * * * * * * //

dimensions      [0 0 -1 0 0 0 0];


internalField   nonuniform List<scalar> 
65536
(
2.3744e-17
2.45198e-17
2.61045e-17
2.85396e-17
3.1889e-17
3.624e-17
4.17061e-17
4.84286e-17
5.65805e-17
6.63698e-17
7.80443e-17
9.18963e-17
1.08269e-16
1.27565e-16
1.50249e-16
1.76865e-16
2.08039e-16
2.44496e-16
2.87071e-16
3.36723e-16
3.94556e-16
4.61833e-16
5.4e-16
6.30712e-16
7.35854e-16
8.57576e-16
9.98322e-16
1.16087e-15
1.34837e-15
1.5644e-15
1.81299e-15
2.09869e-15
2.42665e-15
2.80266e-15
3.23321e-15
3.72561e-15
4.28805e-15
4.92967e-15
5.6607e-15
6.49255e-15
7.4379e-15
8.51089e-15
9.72717e-15
1.11041e-14
1.26609e-14
1.44187e-14
1.64009e-14
1.86333e-14
2.11439e-14
2.39639e-14
2.71271e-14
3.06704e-14
3.46342e-14
3.90625e-14
4.40028e-14
4.95069e-14
5.56308e-14
6.24346e-14
6.99836e-14
7.83475e-14
8.76015e-14
9.78258e-14
1.09106e-13
1.21534e-13
1.35206e-13
1.50227e-13
1.66703e-13
1.84752e-13
2.04494e-13
2.26055e-13
2.4957e-13
2.75176e-13
3.03019e-13
3.33248e-13
3.66019e-13
4.01491e-13
4.39827e-13
4.81197e-13
5.25769e-13
5.73718e-13
6.25218e-13
6.80444e-13
7.39571e-13
8.02773e-13
8.7022e-13
9.42079e-13
1.01851e-12
1.09967e-12
1.1857e-12
1.27675e-12
1.37292e-12
1.47434e-12
1.58109e-12
1.69325e-12
1.81089e-12
1.93402e-12
2.06266e-12
2.1968e-12
2.33638e-12
2.48132e-12
2.63153e-12
2.78684e-12
2.94709e-12
3.11203e-12
3.28142e-12
3.45493e-12
3.63222e-12
3.8129e-12
3.99651e-12
4.18256e-12
4.37052e-12
4.5598e-12
4.74976e-12
4.93973e-12
5.12897e-12
5.31671e-12
5.50215e-12
5.68443e-12
5.86269e-12
6.03599e-12
6.20341e-12
6.364e-12
6.51677e-12
6.66076e-12
6.795e-12
6.91852e-12
7.03038e-12
7.12967e-12
7.2155e-12
7.28706e-12
7.34356e-12
7.38432e-12
7.40871e-12
7.4162e-12
7.40636e-12
7.37887e-12
7.33353e-12
7.27026e-12
7.18912e-12
7.09031e-12
6.97416e-12
6.84115e-12
6.69191e-12
6.52721e-12
6.34795e-12
6.15518e-12
5.95006e-12
5.73387e-12
5.508e-12
5.27393e-12
5.0332e-12
4.78743e-12
4.53825e-12
4.28735e-12
4.03638e-12
3.78699e-12
3.54081e-12
3.29939e-12
3.06422e-12
2.83669e-12
2.61808e-12
2.40959e-12
2.21225e-12
2.02699e-12
1.85457e-12
1.69563e-12
1.55064e-12
1.41994e-12
1.30373e-12
1.20205e-12
1.11482e-12
1.04181e-12
9.8267e-13
9.36939e-13
9.04032e-13
8.83257e-13
8.7382e-13
8.74833e-13
8.8532e-13
9.04222e-13
9.30411e-13
9.62696e-13
9.99832e-13
1.04054e-12
1.08351e-12
1.12743e-12
1.171e-12
1.21295e-12
1.25204e-12
1.28714e-12
1.3172e-12
1.34128e-12
1.35857e-12
1.36845e-12
1.37045e-12
1.36426e-12
1.34978e-12
1.3271e-12
1.29648e-12
1.25835e-12
1.21332e-12
1.1621e-12
1.10553e-12
1.04455e-12
9.80146e-13
9.1332e-13
8.45086e-13
7.76424e-13
7.08262e-13
6.41449e-13
5.76742e-13
5.14791e-13
4.56131e-13
4.01179e-13
3.50233e-13
3.03479e-13
2.60997e-13
2.22771e-13
1.88705e-13
1.58632e-13
1.32333e-13
1.09547e-13
8.99853e-14
7.33444e-14
5.93163e-14
4.75969e-14
3.78938e-14
2.99316e-14
2.34559e-14
1.82356e-14
1.40645e-14
1.07611e-14
8.16768e-15
6.14957e-15
4.59285e-15
3.40253e-15
2.5003e-15
1.82239e-15
1.31748e-15
9.44685e-16
6.71832e-16
4.73867e-16
3.31486e-16
2.29973e-16
1.58229e-16
1.07965e-16
7.30589e-17
4.90315e-17
3.26405e-17
2.1563e-17
1.4153e-17
9.25794e-18
6.08293e-18
4.09138e-18
2.93479e-18
2.40506e-18
3.47699e-17
3.5904e-17
3.82219e-17
4.1784e-17
4.66833e-17
5.30477e-17
6.10426e-17
7.08746e-17
8.27963e-17
9.71113e-17
1.14181e-16
1.34433e-16
1.58368e-16
1.86572e-16
2.19724e-16
2.58617e-16
3.04164e-16
3.57421e-16
4.19603e-16
4.9211e-16
5.76546e-16
6.7475e-16
7.88826e-16
9.21177e-16
1.07454e-15
1.25205e-15
1.45724e-15
1.69414e-15
1.96732e-15
2.28195e-15
2.64388e-15
3.05968e-15
3.53679e-15
4.08356e-15
4.70937e-15
5.42473e-15
6.24141e-15
7.17257e-15
8.23289e-15
9.43871e-15
1.08082e-14
1.23616e-14
1.41212e-14
1.61117e-14
1.83605e-14
2.08976e-14
2.37562e-14
2.69726e-14
3.05867e-14
3.4642e-14
3.91862e-14
4.42711e-14
4.99532e-14
5.62936e-14
6.33586e-14
7.122e-14
7.99549e-14
8.96465e-14
1.00384e-13
1.12263e-13
1.25387e-13
1.39863e-13
1.55808e-13
1.73344e-13
1.92603e-13
2.13721e-13
2.36844e-13
2.62122e-13
2.89715e-13
3.19789e-13
3.52516e-13
3.88075e-13
4.26651e-13
4.68435e-13
5.1362e-13
5.62408e-13
6.15001e-13
6.71604e-13
7.32424e-13
7.9767e-13
8.67547e-13
9.42261e-13
1.02201e-12
1.107e-12
1.19741e-12
1.29342e-12
1.39521e-12
1.50293e-12
1.61672e-12
1.73673e-12
1.86304e-12
1.99575e-12
2.13492e-12
2.2806e-12
2.43278e-12
2.59145e-12
2.75655e-12
2.92799e-12
3.10565e-12
3.28936e-12
3.47889e-12
3.67401e-12
3.8744e-12
4.07972e-12
4.28957e-12
4.5035e-12
4.721e-12
4.94153e-12
5.16447e-12
5.38916e-12
5.6149e-12
5.84092e-12
6.0664e-12
6.29049e-12
6.51228e-12
6.73082e-12
6.94513e-12
7.15418e-12
7.35692e-12
7.55227e-12
7.73916e-12
7.91647e-12
8.08311e-12
8.23798e-12
8.37999e-12
8.5081e-12
8.62127e-12
8.71855e-12
8.799e-12
8.86178e-12
8.90612e-12
8.93133e-12
8.93685e-12
8.92219e-12
8.88702e-12
8.83111e-12
8.75441e-12
8.65697e-12
8.53903e-12
8.40097e-12
8.24332e-12
8.0668e-12
7.87226e-12
7.66072e-12
7.43335e-12
7.19145e-12
6.93646e-12
6.66993e-12
6.39353e-12
6.109e-12
5.81816e-12
5.52287e-12
5.22502e-12
4.92652e-12
4.62925e-12
4.33506e-12
4.04575e-12
3.76304e-12
3.48856e-12
3.22381e-12
2.97018e-12
2.72893e-12
2.50115e-12
2.28779e-12
2.08962e-12
1.90727e-12
1.74119e-12
1.59166e-12
1.45881e-12
1.34262e-12
1.24291e-12
1.15935e-12
1.09149e-12
1.03875e-12
1.00041e-12
9.75651e-13
9.63551e-13
9.63083e-13
9.73129e-13
9.92492e-13
1.0199e-12
1.05402e-12
1.09348e-12
1.13685e-12
1.18269e-12
1.22956e-12
1.27603e-12
1.32072e-12
1.3623e-12
1.39953e-12
1.43126e-12
1.4565e-12
1.47439e-12
1.48424e-12
1.48556e-12
1.47804e-12
1.46158e-12
1.43628e-12
1.40245e-12
1.36055e-12
1.31124e-12
1.25531e-12
1.19369e-12
1.12737e-12
1.05742e-12
9.84926e-13
9.10988e-13
8.36656e-13
7.62927e-13
6.90713e-13
6.20823e-13
5.53953e-13
4.90673e-13
4.31425e-13
3.76525e-13
3.26166e-13
2.80428e-13
2.39291e-13
2.02645e-13
1.70308e-13
1.42038e-13
1.17553e-13
9.65394e-14
7.86691e-14
6.3609e-14
5.1031e-14
4.06197e-14
3.20786e-14
2.51338e-14
1.95366e-14
1.50654e-14
1.1525e-14
8.74613e-15
6.5841e-15
4.91667e-15
3.64192e-15
2.67586e-15
1.95011e-15
1.40964e-15
1.01065e-15
7.18664e-16
5.06846e-16
3.5452e-16
2.4593e-16
1.69192e-16
1.15436e-16
7.81078e-17
5.24158e-17
3.48909e-17
2.3048e-17
1.51267e-17
9.89421e-18
6.50057e-18
4.372e-18
3.13591e-18
2.56983e-18
6.14501e-17
6.3451e-17
6.75422e-17
7.38297e-17
8.24776e-17
9.37112e-17
1.07822e-16
1.25173e-16
1.46211e-16
1.7147e-16
2.01586e-16
2.37312e-16
2.79529e-16
3.29268e-16
3.87728e-16
4.56297e-16
5.36585e-16
6.30445e-16
7.40015e-16
8.6775e-16
1.01647e-15
1.18939e-15
1.39022e-15
1.62315e-15
1.89299e-15
2.2052e-15
2.56599e-15
2.9824e-15
3.4624e-15
4.01502e-15
4.65042e-15
5.3801e-15
6.21697e-15
7.17555e-15
8.2721e-15
9.52488e-15
1.09542e-14
1.2583e-14
1.44363e-14
1.65426e-14
1.8933e-14
2.16422e-14
2.47085e-14
2.81743e-14
3.20862e-14
3.64955e-14
4.14585e-14
4.70369e-14
5.3298e-14
6.03155e-14
6.81694e-14
7.69467e-14
8.67418e-14
9.76566e-14
1.09801e-13
1.23294e-13
1.38263e-13
1.54844e-13
1.73184e-13
1.93437e-13
2.15769e-13
2.40357e-13
2.67384e-13
2.97049e-13
3.29556e-13
3.65122e-13
4.03973e-13
4.46344e-13
4.92481e-13
5.42635e-13
5.9707e-13
6.56052e-13
7.19856e-13
7.88763e-13
8.63054e-13
9.43017e-13
1.02894e-12
1.1211e-12
1.2198e-12
1.3253e-12
1.43788e-12
1.5578e-12
1.68532e-12
1.82068e-12
1.96408e-12
2.11574e-12
2.27584e-12
2.44453e-12
2.62193e-12
2.80814e-12
3.00321e-12
3.20717e-12
3.42e-12
3.64163e-12
3.87196e-12
4.11081e-12
4.35799e-12
4.61321e-12
4.87616e-12
5.14644e-12
5.42361e-12
5.70715e-12
5.99649e-12
6.29099e-12
6.58994e-12
6.89256e-12
7.19802e-12
7.5054e-12
7.81373e-12
8.12199e-12
8.42908e-12
8.73385e-12
9.0351e-12
9.33159e-12
9.622e-12
9.90503e-12
1.01793e-11
1.04434e-11
1.0696e-11
1.09357e-11
1.11609e-11
1.13705e-11
1.15629e-11
1.17368e-11
1.18911e-11
1.20243e-11
1.21354e-11
1.22234e-11
1.22871e-11
1.23258e-11
1.23387e-11
1.23252e-11
1.22849e-11
1.22174e-11
1.21226e-11
1.20006e-11
1.18515e-11
1.16758e-11
1.14742e-11
1.12473e-11
1.09963e-11
1.07223e-11
1.04267e-11
1.0111e-11
9.77704e-12
9.42663e-12
9.0618e-12
8.6847e-12
8.29758e-12
7.90275e-12
7.50259e-12
7.09951e-12
6.69592e-12
6.2942e-12
5.8967e-12
5.50567e-12
5.1233e-12
4.75162e-12
4.39254e-12
4.04781e-12
3.71902e-12
3.40753e-12
3.11455e-12
2.84107e-12
2.58787e-12
2.35552e-12
2.14441e-12
1.95471e-12
1.7864e-12
1.63927e-12
1.51296e-12
1.40693e-12
1.32046e-12
1.25273e-12
1.20276e-12
1.16944e-12
1.15157e-12
1.14781e-12
1.15678e-12
1.17695e-12
1.20677e-12
1.24461e-12
1.28879e-12
1.3376e-12
1.38932e-12
1.44225e-12
1.49469e-12
1.54503e-12
1.5917e-12
1.63328e-12
1.66844e-12
1.69603e-12
1.71508e-12
1.72481e-12
1.72468e-12
1.71435e-12
1.69373e-12
1.66295e-12
1.6224e-12
1.57263e-12
1.51442e-12
1.44871e-12
1.37655e-12
1.29912e-12
1.21764e-12
1.13339e-12
1.0476e-12
9.61501e-13
8.76218e-13
7.92796e-13
7.12156e-13
6.35084e-13
5.62223e-13
4.9407e-13
4.30973e-13
3.73144e-13
3.20662e-13
2.73494e-13
2.31504e-13
1.94476e-13
1.62125e-13
1.34122e-13
1.10103e-13
8.96872e-14
7.24909e-14
5.81358e-14
4.62591e-14
3.65201e-14
2.86045e-14
2.22277e-14
1.71355e-14
1.31048e-14
9.94234e-15
7.48264e-15
5.58625e-15
4.1369e-15
3.03883e-15
2.21414e-15
1.60016e-15
1.14701e-15
8.15472e-16
5.75014e-16
4.0213e-16
2.7891e-16
1.9185e-16
1.30875e-16
8.85417e-17
5.94095e-17
3.95411e-17
2.61166e-17
1.71385e-17
1.12089e-17
7.36346e-18
4.95179e-18
3.5514e-18
2.91013e-18
1.14745e-16
1.18476e-16
1.26107e-16
1.37836e-16
1.53967e-16
1.7492e-16
2.01238e-16
2.33599e-16
2.72832e-16
3.19932e-16
3.76086e-16
4.42693e-16
5.21394e-16
6.14105e-16
7.23057e-16
8.50834e-16
1.00043e-15
1.17528e-15
1.37936e-15
1.61724e-15
1.89414e-15
2.21605e-15
2.58981e-15
3.02323e-15
3.5252e-15
4.10583e-15
4.77662e-15
5.55059e-15
6.44247e-15
7.46891e-15
8.64871e-15
1.0003e-14
1.15557e-14
1.33333e-14
1.53659e-14
1.76869e-14
2.03337e-14
2.33479e-14
2.6776e-14
3.06693e-14
3.5085e-14
4.00862e-14
4.57425e-14
5.21307e-14
5.93354e-14
6.74493e-14
7.65739e-14
8.68203e-14
9.83094e-14
1.11173e-13
1.25554e-13
1.41608e-13
1.59502e-13
1.79417e-13
2.01546e-13
2.261e-13
2.53299e-13
2.83384e-13
3.16608e-13
3.53239e-13
3.93562e-13
4.3788e-13
4.86508e-13
5.39778e-13
5.98037e-13
6.61649e-13
7.30988e-13
8.06443e-13
8.88415e-13
9.77316e-13
1.07357e-12
1.17759e-12
1.28982e-12
1.4107e-12
1.54066e-12
1.68013e-12
1.82954e-12
1.98932e-12
2.15986e-12
2.34156e-12
2.53479e-12
2.7399e-12
2.95721e-12
3.18701e-12
3.42954e-12
3.68501e-12
3.95359e-12
4.23539e-12
4.53046e-12
4.8388e-12
5.16033e-12
5.49493e-12
5.84238e-12
6.20238e-12
6.57458e-12
6.95852e-12
7.35365e-12
7.75936e-12
8.17491e-12
8.5995e-12
9.03222e-12
9.47206e-12
9.91794e-12
1.03687e-11
1.08229e-11
1.12794e-11
1.17366e-11
1.2193e-11
1.2647e-11
1.30968e-11
1.35408e-11
1.39772e-11
1.44039e-11
1.48193e-11
1.52212e-11
1.56077e-11
1.5977e-11
1.63269e-11
1.66556e-11
1.6961e-11
1.72414e-11
1.74949e-11
1.77197e-11
1.79141e-11
1.80766e-11
1.82057e-11
1.83002e-11
1.83588e-11
1.83806e-11
1.83648e-11
1.83107e-11
1.82179e-11
1.80863e-11
1.79159e-11
1.7707e-11
1.74602e-11
1.71763e-11
1.68564e-11
1.65017e-11
1.61138e-11
1.56946e-11
1.52461e-11
1.47707e-11
1.42707e-11
1.3749e-11
1.32083e-11
1.26517e-11
1.20824e-11
1.15034e-11
1.09181e-11
1.03299e-11
9.74187e-12
9.1574e-12
8.57962e-12
8.01159e-12
7.45623e-12
6.91629e-12
6.39432e-12
5.89266e-12
5.4134e-12
4.95839e-12
4.5292e-12
4.12713e-12
3.75322e-12
3.40821e-12
3.09257e-12
2.80653e-12
2.55004e-12
2.32281e-12
2.12433e-12
1.95386e-12
1.8105e-12
1.69311e-12
1.60043e-12
1.53102e-12
1.48331e-12
1.45561e-12
1.44612e-12
1.45293e-12
1.47405e-12
1.50741e-12
1.55092e-12
1.6024e-12
1.65968e-12
1.7206e-12
1.78301e-12
1.8448e-12
1.90397e-12
1.95861e-12
2.00695e-12
2.04741e-12
2.0786e-12
2.09934e-12
2.10874e-12
2.10614e-12
2.09118e-12
2.06378e-12
2.02415e-12
1.97277e-12
1.91035e-12
1.83787e-12
1.75647e-12
1.66747e-12
1.57228e-12
1.47241e-12
1.36938e-12
1.26471e-12
1.15985e-12
1.05616e-12
9.549e-13
8.57153e-13
7.63855e-13
6.75763e-13
5.93456e-13
5.17338e-13
4.47643e-13
3.84454e-13
3.27712e-13
2.77243e-13
2.32772e-13
1.9395e-13
1.60368e-13
1.31584e-13
1.07135e-13
8.65539e-14
6.93834e-14
5.51855e-14
4.35493e-14
3.40967e-14
2.64854e-14
2.04104e-14
1.56039e-14
1.18343e-14
8.90365e-15
6.64505e-15
4.91951e-15
3.61268e-15
2.63154e-15
1.9013e-15
1.36253e-15
9.68464e-16
6.82737e-16
4.7736e-16
3.31018e-16
2.27648e-16
1.55265e-16
1.05024e-16
7.04565e-17
4.68859e-17
3.0963e-17
2.03159e-17
1.32849e-17
8.72607e-18
5.86728e-18
4.20743e-18
3.4474e-18
2.1595e-16
2.22965e-16
2.37314e-16
2.59368e-16
2.89699e-16
3.29096e-16
3.78579e-16
4.39421e-16
5.13179e-16
6.01721e-16
7.07275e-16
8.32468e-16
9.80379e-16
1.15461e-15
1.35933e-15
1.5994e-15
1.88043e-15
2.20887e-15
2.59217e-15
3.03886e-15
3.55875e-15
4.16304e-15
4.86454e-15
5.67786e-15
6.61961e-15
7.70871e-15
8.96661e-15
1.04176e-14
1.20892e-14
1.40124e-14
1.62223e-14
1.87582e-14
2.16644e-14
2.49905e-14
2.87921e-14
3.31313e-14
3.80772e-14
4.37071e-14
5.01066e-14
5.73707e-14
6.56045e-14
7.49244e-14
8.54584e-14
9.73475e-14
1.10746e-13
1.25825e-13
1.42768e-13
1.61778e-13
1.83074e-13
2.06897e-13
2.33504e-13
2.63176e-13
2.96213e-13
3.32939e-13
3.73703e-13
4.18875e-13
4.68853e-13
5.24057e-13
5.84935e-13
6.51959e-13
7.25628e-13
8.06464e-13
8.95015e-13
9.91854e-13
1.09757e-12
1.21279e-12
1.33814e-12
1.47427e-12
1.62185e-12
1.78156e-12
1.95408e-12
2.14011e-12
2.34033e-12
2.55543e-12
2.7861e-12
3.03299e-12
3.29675e-12
3.57799e-12
3.8773e-12
4.19522e-12
4.53225e-12
4.88884e-12
5.26537e-12
5.66214e-12
6.07941e-12
6.51732e-12
6.97595e-12
7.45526e-12
7.95511e-12
8.47525e-12
9.01531e-12
9.57482e-12
1.01531e-11
1.07495e-11
1.13631e-11
1.19929e-11
1.26376e-11
1.3296e-11
1.39666e-11
1.46478e-11
1.5338e-11
1.60351e-11
1.67372e-11
1.74421e-11
1.81476e-11
1.88513e-11
1.95507e-11
2.02432e-11
2.09261e-11
2.15966e-11
2.2252e-11
2.28893e-11
2.35057e-11
2.40981e-11
2.46638e-11
2.51998e-11
2.57031e-11
2.61711e-11
2.66008e-11
2.69898e-11
2.73353e-11
2.76351e-11
2.78869e-11
2.80886e-11
2.82384e-11
2.83347e-11
2.83759e-11
2.83611e-11
2.82893e-11
2.816e-11
2.7973e-11
2.77284e-11
2.74265e-11
2.70681e-11
2.66544e-11
2.61869e-11
2.56674e-11
2.50981e-11
2.44814e-11
2.38204e-11
2.31181e-11
2.23781e-11
2.16042e-11
2.08002e-11
1.99705e-11
1.91194e-11
1.82515e-11
1.73715e-11
1.64839e-11
1.55936e-11
1.47051e-11
1.38232e-11
1.29522e-11
1.20965e-11
1.12602e-11
1.0447e-11
9.66067e-12
8.90431e-12
8.18086e-12
7.49287e-12
6.84249e-12
6.23152e-12
5.66134e-12
5.13295e-12
4.64698e-12
4.20369e-12
3.80296e-12
3.44437e-12
3.12717e-12
2.8503e-12
2.61248e-12
2.41214e-12
2.24751e-12
2.11662e-12
2.01734e-12
1.94735e-12
1.90424e-12
1.88544e-12
1.8883e-12
1.91009e-12
1.94801e-12
1.99922e-12
2.06085e-12
2.13002e-12
2.2039e-12
2.27969e-12
2.35471e-12
2.42635e-12
2.49221e-12
2.55005e-12
2.59788e-12
2.63396e-12
2.65685e-12
2.66545e-12
2.65899e-12
2.63705e-12
2.59958e-12
2.54689e-12
2.4796e-12
2.39868e-12
2.30536e-12
2.20111e-12
2.08759e-12
1.9666e-12
1.84003e-12
1.70979e-12
1.57776e-12
1.44575e-12
1.31546e-12
1.18841e-12
1.06595e-12
9.4923e-13
8.39162e-13
7.36444e-13
6.41555e-13
5.54765e-13
4.76154e-13
4.0563e-13
3.42958e-13
2.87782e-13
2.39652e-13
1.98051e-13
1.62419e-13
1.32174e-13
1.06731e-13
8.55179e-14
6.79877e-14
5.36288e-14
4.19708e-14
3.25885e-14
2.51038e-14
1.91849e-14
1.45449e-14
1.09392e-14
8.16154e-15
6.04028e-15
4.43436e-15
3.22911e-15
2.3324e-15
1.67101e-15
1.18742e-15
8.36888e-16
5.85002e-16
4.0557e-16
2.78859e-16
1.90155e-16
1.28598e-16
8.62558e-17
5.73895e-17
3.78931e-17
2.48589e-17
1.62532e-17
1.06741e-17
7.176e-18
5.14517e-18
4.21533e-18
4.04229e-16
4.17348e-16
4.44187e-16
4.85436e-16
5.42169e-16
6.15857e-16
7.08407e-16
8.22197e-16
9.60136e-16
1.12572e-15
1.3231e-15
1.55719e-15
1.83375e-15
2.15948e-15
2.5422e-15
2.99095e-15
3.51621e-15
4.13002e-15
4.84627e-15
5.68089e-15
6.65213e-15
7.78089e-15
9.09103e-15
1.06097e-14
1.23679e-14
1.44008e-14
1.67483e-14
1.94556e-14
2.25736e-14
2.61602e-14
3.02801e-14
3.50065e-14
4.04212e-14
4.66162e-14
5.36942e-14
6.17699e-14
7.09712e-14
8.14402e-14
9.33348e-14
1.0683e-13
1.22118e-13
1.39414e-13
1.58951e-13
1.80987e-13
2.05805e-13
2.33715e-13
2.65054e-13
3.00188e-13
3.39517e-13
3.83473e-13
4.32523e-13
4.8717e-13
5.47955e-13
6.15459e-13
6.90301e-13
7.73143e-13
8.64689e-13
9.65682e-13
1.07691e-12
1.1992e-12
1.33343e-12
1.48049e-12
1.64134e-12
1.81697e-12
2.00838e-12
2.21662e-12
2.44276e-12
2.68789e-12
2.95312e-12
3.23957e-12
3.54834e-12
3.88055e-12
4.23731e-12
4.61968e-12
5.02871e-12
5.46541e-12
5.93073e-12
6.42555e-12
6.95069e-12
7.50686e-12
8.09471e-12
8.71474e-12
9.36734e-12
1.00528e-11
1.07711e-11
1.15224e-11
1.23063e-11
1.31225e-11
1.39704e-11
1.48491e-11
1.57577e-11
1.6695e-11
1.76595e-11
1.86495e-11
1.96633e-11
2.06986e-11
2.17532e-11
2.28245e-11
2.39096e-11
2.50057e-11
2.61094e-11
2.72174e-11
2.83261e-11
2.94317e-11
3.05304e-11
3.1618e-11
3.26903e-11
3.37431e-11
3.4772e-11
3.57725e-11
3.67402e-11
3.76706e-11
3.85592e-11
3.94016e-11
4.01934e-11
4.09305e-11
4.16085e-11
4.22237e-11
4.27722e-11
4.32504e-11
4.36551e-11
4.39832e-11
4.4232e-11
4.4399e-11
4.44823e-11
4.44803e-11
4.43916e-11
4.42155e-11
4.39517e-11
4.36003e-11
4.31618e-11
4.26375e-11
4.20289e-11
4.13382e-11
4.05679e-11
3.97212e-11
3.88017e-11
3.78135e-11
3.67611e-11
3.56495e-11
3.44842e-11
3.32707e-11
3.20152e-11
3.0724e-11
2.94036e-11
2.80607e-11
2.67022e-11
2.5335e-11
2.39658e-11
2.26015e-11
2.12488e-11
1.99141e-11
1.86035e-11
1.73229e-11
1.60779e-11
1.48734e-11
1.37142e-11
1.26043e-11
1.15473e-11
1.05462e-11
9.60366e-12
8.7215e-12
7.90111e-12
7.14334e-12
6.44849e-12
5.81637e-12
5.24629e-12
4.73716e-12
4.28743e-12
3.89522e-12
3.55828e-12
3.2741e-12
3.03987e-12
2.85257e-12
2.70898e-12
2.60571e-12
2.53921e-12
2.50584e-12
2.50184e-12
2.5234e-12
2.56664e-12
2.62768e-12
2.70262e-12
2.78759e-12
2.87882e-12
2.97259e-12
3.06537e-12
3.15376e-12
3.23464e-12
3.30511e-12
3.36262e-12
3.40496e-12
3.43033e-12
3.43734e-12
3.42506e-12
3.393e-12
3.34116e-12
3.26998e-12
3.18032e-12
3.07346e-12
2.95102e-12
2.8149e-12
2.66727e-12
2.51043e-12
2.34681e-12
2.17884e-12
2.00893e-12
1.83936e-12
1.67228e-12
1.50962e-12
1.35306e-12
1.20404e-12
1.06368e-12
9.32845e-13
8.12115e-13
7.01802e-13
6.01982e-13
5.12514e-13
4.33075e-13
3.63195e-13
3.02287e-13
2.49681e-13
2.04655e-13
1.66463e-13
1.34355e-13
1.07601e-13
8.5506e-14
6.74181e-14
5.27405e-14
4.09343e-14
3.15206e-14
2.40798e-14
1.82494e-14
1.37206e-14
1.02333e-14
7.57114e-15
5.55651e-15
4.04508e-15
2.92095e-15
2.09211e-15
1.48627e-15
1.04726e-15
7.31881e-16
5.07283e-16
3.48719e-16
2.37744e-16
1.60751e-16
1.07802e-16
7.17122e-17
4.7342e-17
3.10527e-17
2.02996e-17
1.33294e-17
8.95975e-18
6.42318e-18
5.26185e-18
7.49977e-16
7.743e-16
8.24062e-16
9.00544e-16
1.00573e-15
1.14236e-15
1.31395e-15
1.52492e-15
1.78065e-15
2.08762e-15
2.45353e-15
2.88747e-15
3.40009e-15
4.00383e-15
4.71315e-15
5.5448e-15
6.51815e-15
7.65551e-15
8.98254e-15
1.05287e-14
1.23278e-14
1.44184e-14
1.68446e-14
1.96567e-14
2.29117e-14
2.66747e-14
3.10191e-14
3.60283e-14
4.17964e-14
4.84297e-14
5.60475e-14
6.47843e-14
7.47907e-14
8.62355e-14
9.93072e-14
1.14216e-13
1.31197e-13
1.5051e-13
1.72442e-13
1.97315e-13
2.2548e-13
2.57325e-13
2.93278e-13
3.33807e-13
3.79426e-13
4.30693e-13
4.88219e-13
5.52666e-13
6.24753e-13
7.05257e-13
7.95014e-13
8.94925e-13
1.00595e-12
1.12914e-12
1.26557e-12
1.41642e-12
1.58294e-12
1.76642e-12
1.96825e-12
2.18987e-12
2.43279e-12
2.69857e-12
2.98884e-12
3.30529e-12
3.64963e-12
4.02362e-12
4.42907e-12
4.86777e-12
5.34155e-12
5.85223e-12
6.4016e-12
6.99144e-12
7.62348e-12
8.29937e-12
9.0207e-12
9.78894e-12
1.06055e-11
1.14715e-11
1.23881e-11
1.33561e-11
1.43764e-11
1.54492e-11
1.65749e-11
1.77534e-11
1.89845e-11
2.02674e-11
2.16014e-11
2.29852e-11
2.44172e-11
2.58954e-11
2.74177e-11
2.89814e-11
3.05834e-11
3.22204e-11
3.38886e-11
3.5584e-11
3.73021e-11
3.90381e-11
4.07868e-11
4.25429e-11
4.43007e-11
4.6054e-11
4.77967e-11
4.95224e-11
5.12245e-11
5.28961e-11
5.45303e-11
5.61203e-11
5.7659e-11
5.91395e-11
6.05547e-11
6.18979e-11
6.31623e-11
6.43413e-11
6.54287e-11
6.64184e-11
6.73047e-11
6.80821e-11
6.87456e-11
6.92908e-11
6.97135e-11
7.00101e-11
7.01777e-11
7.02138e-11
7.01167e-11
6.9885e-11
6.95184e-11
6.90171e-11
6.83819e-11
6.76146e-11
6.67173e-11
6.56933e-11
6.45463e-11
6.3281e-11
6.19025e-11
6.04167e-11
5.88303e-11
5.71504e-11
5.53849e-11
5.3542e-11
5.16305e-11
4.96597e-11
4.7639e-11
4.55783e-11
4.34877e-11
4.13771e-11
3.92569e-11
3.7137e-11
3.50274e-11
3.29379e-11
3.08778e-11
2.8856e-11
2.68811e-11
2.4961e-11
2.31031e-11
2.13139e-11
1.95994e-11
1.79647e-11
1.64141e-11
1.49513e-11
1.35789e-11
1.22989e-11
1.11123e-11
1.00197e-11
9.02055e-12
8.11391e-12
7.29809e-12
6.57082e-12
5.92932e-12
5.37032e-12
4.89015e-12
4.48477e-12
4.14982e-12
3.8807e-12
3.67257e-12
3.52042e-12
3.41912e-12
3.3634e-12
3.34793e-12
3.36734e-12
3.41624e-12
3.48925e-12
3.58104e-12
3.68637e-12
3.80012e-12
3.91735e-12
4.03331e-12
4.14356e-12
4.24394e-12
4.33071e-12
4.40054e-12
4.45059e-12
4.47854e-12
4.48266e-12
4.46179e-12
4.41536e-12
4.34345e-12
4.24668e-12
4.12624e-12
3.98383e-12
3.82159e-12
3.64206e-12
3.44803e-12
3.24252e-12
3.02867e-12
2.80963e-12
2.58849e-12
2.36819e-12
2.15148e-12
1.9408e-12
1.7383e-12
1.54578e-12
1.36467e-12
1.19604e-12
1.04059e-12
8.98696e-13
7.70413e-13
6.55534e-13
5.53618e-13
4.64036e-13
3.86014e-13
3.18675e-13
2.61079e-13
2.12255e-13
1.71236e-13
1.37077e-13
1.08882e-13
8.58138e-14
6.71043e-14
5.20626e-14
4.00747e-14
3.06036e-14
2.31856e-14
1.7426e-14
1.29927e-14
9.60976e-15
7.05058e-15
5.13128e-15
3.70429e-15
2.65248e-15
1.88389e-15
1.32711e-15
9.27248e-16
6.42557e-16
4.41617e-16
3.01019e-16
2.03495e-16
1.36442e-16
9.07489e-17
5.98996e-17
3.92832e-17
2.56761e-17
1.68573e-17
1.13294e-17
8.12078e-18
6.65186e-18
1.37796e-15
1.42262e-15
1.514e-15
1.65445e-15
1.84762e-15
2.09852e-15
2.41362e-15
2.80103e-15
3.27062e-15
3.83428e-15
4.50615e-15
5.3029e-15
6.24408e-15
7.35252e-15
8.65473e-15
1.01814e-14
1.19682e-14
1.40558e-14
1.64914e-14
1.9329e-14
2.26305e-14
2.64665e-14
3.09179e-14
3.60764e-14
4.20469e-14
4.89479e-14
5.69141e-14
6.60977e-14
7.66707e-14
8.88269e-14
1.02784e-13
1.18788e-13
1.37113e-13
1.58066e-13
1.81991e-13
2.0927e-13
2.40329e-13
2.75639e-13
3.15725e-13
3.61165e-13
4.12596e-13
4.7072e-13
5.3631e-13
6.10208e-13
6.93337e-13
7.86705e-13
8.91404e-13
1.00862e-12
1.13964e-12
1.28585e-12
1.44873e-12
1.62989e-12
1.83103e-12
2.05398e-12
2.30068e-12
2.57317e-12
2.87364e-12
3.20435e-12
3.5677e-12
3.96618e-12
4.4024e-12
4.87904e-12
5.39888e-12
5.96475e-12
6.57956e-12
7.24626e-12
7.96782e-12
8.74722e-12
9.58743e-12
1.04914e-11
1.14619e-11
1.25018e-11
1.36138e-11
1.48003e-11
1.60637e-11
1.74061e-11
1.88294e-11
2.03351e-11
2.19245e-11
2.35986e-11
2.53579e-11
2.72024e-11
2.9132e-11
3.11457e-11
3.32423e-11
3.54198e-11
3.76761e-11
4.00079e-11
4.24119e-11
4.48838e-11
4.74189e-11
5.00119e-11
5.26568e-11
5.53471e-11
5.80756e-11
6.08347e-11
6.36163e-11
6.64116e-11
6.92115e-11
7.20063e-11
7.47861e-11
7.75407e-11
8.02595e-11
8.29316e-11
8.55462e-11
8.80921e-11
9.05583e-11
9.29338e-11
9.52075e-11
9.73688e-11
9.9407e-11
1.01312e-10
1.03074e-10
1.04683e-10
1.06131e-10
1.0741e-10
1.08511e-10
1.09427e-10
1.10153e-10
1.10683e-10
1.11013e-10
1.11138e-10
1.11057e-10
1.10767e-10
1.10267e-10
1.09559e-10
1.08643e-10
1.07522e-10
1.062e-10
1.0468e-10
1.02969e-10
1.01074e-10
9.90015e-11
9.6761e-11
9.43621e-11
9.18152e-11
8.91319e-11
8.63243e-11
8.34054e-11
8.03886e-11
7.72881e-11
7.41182e-11
7.08938e-11
6.76299e-11
6.43415e-11
6.10437e-11
5.77514e-11
5.44793e-11
5.12416e-11
4.80519e-11
4.49235e-11
4.18685e-11
3.88987e-11
3.60244e-11
3.32554e-11
3.06002e-11
2.80661e-11
2.56593e-11
2.3385e-11
2.1247e-11
1.92479e-11
1.73895e-11
1.5672e-11
1.4095e-11
1.26567e-11
1.13547e-11
1.01856e-11
9.14531e-12
8.22894e-12
7.43111e-12
6.74593e-12
6.16705e-12
5.68779e-12
5.30116e-12
4.99996e-12
4.77683e-12
4.62429e-12
4.53478e-12
4.50072e-12
4.51453e-12
4.56868e-12
4.65571e-12
4.7683e-12
4.89929e-12
5.04174e-12
5.18899e-12
5.33469e-12
5.47292e-12
5.5982e-12
5.70559e-12
5.79073e-12
5.84996e-12
5.88028e-12
5.87948e-12
5.84613e-12
5.77958e-12
5.67997e-12
5.54822e-12
5.38595e-12
5.19545e-12
4.97956e-12
4.74162e-12
4.48532e-12
4.21461e-12
3.93358e-12
3.64631e-12
3.35682e-12
3.06892e-12
2.78611e-12
2.51156e-12
2.24801e-12
1.99774e-12
1.76257e-12
1.54382e-12
1.34237e-12
1.15865e-12
9.92701e-13
8.44213e-13
7.12585e-13
5.96972e-13
4.9635e-13
4.09565e-13
3.35385e-13
2.72542e-13
2.19775e-13
1.75859e-13
1.3963e-13
1.10003e-13
8.59868e-14
6.66878e-14
5.1314e-14
3.91731e-14
2.96681e-14
2.22911e-14
1.6615e-14
1.22852e-14
9.011e-15
6.55625e-15
4.73175e-15
3.38735e-15
2.40524e-15
1.69399e-15
1.18332e-15
8.19837e-16
5.63346e-16
3.83919e-16
2.5949e-16
1.73956e-16
1.15681e-16
7.63438e-17
5.006e-17
3.27151e-17
2.14755e-17
1.4431e-17
1.03426e-17
8.47099e-18
2.50672e-15
2.58793e-15
2.75409e-15
3.00949e-15
3.36075e-15
3.81699e-15
4.38998e-15
5.09444e-15
5.94834e-15
6.97329e-15
8.19497e-15
9.64371e-15
1.1355e-14
1.33704e-14
1.5738e-14
1.85137e-14
2.1762e-14
2.55572e-14
2.99847e-14
3.51427e-14
4.11434e-14
4.81152e-14
5.62045e-14
6.55782e-14
7.6426e-14
8.8963e-14
1.03433e-13
1.20112e-13
1.39312e-13
1.61382e-13
1.86718e-13
2.15763e-13
2.49012e-13
2.87021e-13
3.30409e-13
3.79865e-13
4.36157e-13
5.00133e-13
5.72736e-13
6.55004e-13
7.48082e-13
8.53228e-13
9.71821e-13
1.10537e-12
1.25553e-12
1.42408e-12
1.61298e-12
1.82433e-12
2.06041e-12
2.32367e-12
2.61674e-12
2.94243e-12
3.30376e-12
3.70391e-12
4.14627e-12
4.63443e-12
5.17214e-12
5.76336e-12
6.4122e-12
7.12295e-12
7.90005e-12
8.74807e-12
9.6717e-12
1.06757e-11
1.1765e-11
1.29443e-11
1.42187e-11
1.5593e-11
1.70719e-11
1.866e-11
2.0362e-11
2.21821e-11
2.41243e-11
2.61923e-11
2.83894e-11
3.07185e-11
3.3182e-11
3.57818e-11
3.85191e-11
4.13944e-11
4.44076e-11
4.75577e-11
5.08431e-11
5.42611e-11
5.78082e-11
6.148e-11
6.5271e-11
6.91749e-11
7.31843e-11
7.72907e-11
8.1485e-11
8.57566e-11
9.00944e-11
9.44861e-11
9.89187e-11
1.03378e-10
1.0785e-10
1.12319e-10
1.16768e-10
1.21182e-10
1.25543e-10
1.29835e-10
1.34039e-10
1.38138e-10
1.42113e-10
1.45948e-10
1.49625e-10
1.53127e-10
1.56437e-10
1.59538e-10
1.62415e-10
1.65054e-10
1.6744e-10
1.6956e-10
1.71402e-10
1.72956e-10
1.74211e-10
1.7516e-10
1.75795e-10
1.76111e-10
1.76104e-10
1.7577e-10
1.7511e-10
1.74124e-10
1.72813e-10
1.71182e-10
1.69236e-10
1.66982e-10
1.64428e-10
1.61585e-10
1.58465e-10
1.55079e-10
1.51444e-10
1.47574e-10
1.43487e-10
1.39201e-10
1.34734e-10
1.30107e-10
1.25342e-10
1.20458e-10
1.15479e-10
1.10427e-10
1.05324e-10
1.00193e-10
9.50553e-11
8.99343e-11
8.48511e-11
7.98266e-11
7.4881e-11
7.00332e-11
6.53014e-11
6.07022e-11
5.6251e-11
5.19616e-11
4.78464e-11
4.39158e-11
4.0179e-11
3.6643e-11
3.33134e-11
3.01939e-11
2.72867e-11
2.45921e-11
2.21093e-11
1.98356e-11
1.77673e-11
1.58992e-11
1.42253e-11
1.27383e-11
1.14303e-11
1.02925e-11
9.31564e-12
8.48992e-12
7.80514e-12
7.25083e-12
6.81633e-12
6.49084e-12
6.26352e-12
6.12354e-12
6.06011e-12
6.06255e-12
6.12032e-12
6.22309e-12
6.36078e-12
6.52359e-12
6.70209e-12
6.88728e-12
7.07066e-12
7.2443e-12
7.40094e-12
7.53405e-12
7.63793e-12
7.70778e-12
7.73975e-12
7.731e-12
7.67974e-12
7.58522e-12
7.44772e-12
7.26854e-12
7.04988e-12
6.79482e-12
6.50716e-12
6.19128e-12
5.85207e-12
5.49471e-12
5.12452e-12
4.74686e-12
4.36693e-12
3.98965e-12
3.61958e-12
3.26078e-12
2.91676e-12
2.59045e-12
2.28413e-12
1.99948e-12
1.73759e-12
1.49895e-12
1.28357e-12
1.09101e-12
9.20432e-13
7.70718e-13
6.40506e-13
5.28272e-13
4.32397e-13
3.51224e-13
2.83105e-13
2.26442e-13
1.79721e-13
1.41534e-13
1.10593e-13
8.57411e-14
6.59523e-14
5.03313e-14
3.81068e-14
2.86227e-14
2.13281e-14
1.57657e-14
1.15607e-14
8.40915e-15
6.06749e-15
4.34253e-15
3.08278e-15
2.17069e-15
1.516e-15
1.05011e-15
7.21436e-16
4.91566e-16
3.32191e-16
2.22655e-16
1.48042e-16
9.76858e-17
6.40449e-17
4.18485e-17
2.7467e-17
1.84546e-17
1.32245e-17
1.08304e-17
4.51482e-15
4.66103e-15
4.96021e-15
5.42008e-15
6.05256e-15
6.87408e-15
7.90582e-15
9.17431e-15
1.07119e-14
1.25574e-14
1.47573e-14
1.73659e-14
2.04474e-14
2.40763e-14
2.83394e-14
3.33372e-14
3.91858e-14
4.60189e-14
5.39903e-14
6.32763e-14
7.40791e-14
8.66293e-14
1.0119e-13
1.18062e-13
1.37585e-13
1.60147e-13
1.86184e-13
2.16193e-13
2.50731e-13
2.90428e-13
3.35992e-13
3.88215e-13
4.47988e-13
5.16301e-13
5.94265e-13
6.8311e-13
7.84206e-13
8.99071e-13
1.02938e-12
1.17699e-12
1.34393e-12
1.53244e-12
1.74497e-12
1.98419e-12
2.25303e-12
2.55465e-12
2.8925e-12
3.27028e-12
3.69199e-12
4.16196e-12
4.68477e-12
5.26536e-12
5.90897e-12
6.62115e-12
7.40779e-12
8.27506e-12
9.22945e-12
1.02778e-11
1.1427e-11
1.26846e-11
1.40579e-11
1.55547e-11
1.71829e-11
1.89504e-11
2.08653e-11
2.29355e-11
2.51691e-11
2.75739e-11
3.01575e-11
3.29271e-11
3.58898e-11
3.90521e-11
4.24198e-11
4.59982e-11
4.97919e-11
5.38046e-11
5.80389e-11
6.24965e-11
6.7178e-11
7.20827e-11
7.72085e-11
8.2552e-11
8.81085e-11
9.38713e-11
9.98327e-11
1.05983e-10
1.12311e-10
1.18803e-10
1.25446e-10
1.32223e-10
1.39116e-10
1.46106e-10
1.53172e-10
1.60292e-10
1.67443e-10
1.74599e-10
1.81736e-10
1.88826e-10
1.95843e-10
2.02757e-10
2.09542e-10
2.16167e-10
2.22605e-10
2.28827e-10
2.34805e-10
2.40511e-10
2.45917e-10
2.50998e-10
2.55729e-10
2.60086e-10
2.64046e-10
2.67589e-10
2.70695e-10
2.73347e-10
2.7553e-10
2.77231e-10
2.78438e-10
2.79144e-10
2.79341e-10
2.79025e-10
2.78195e-10
2.76852e-10
2.75e-10
2.72643e-10
2.69792e-10
2.66455e-10
2.62648e-10
2.58384e-10
2.53682e-10
2.48561e-10
2.43045e-10
2.37155e-10
2.30919e-10
2.24364e-10
2.17518e-10
2.10411e-10
2.03075e-10
1.95542e-10
1.87846e-10
1.80019e-10
1.72095e-10
1.64109e-10
1.56094e-10
1.48084e-10
1.4011e-10
1.32206e-10
1.24402e-10
1.16728e-10