/*--------------------------------*- C++ -*----------------------------------*\
| =========                 |                                                 |
| \\      /  F ield         | OpenFOAM: The Open Source CFD Toolbox           |
|  \\    /   O peration     | Version:  v2012                                 |
|   \\  /    A nd           | Website:  www.openfoam.com                      |
|    \\/     M anipulation  |                                                 |
\*---------------------------------------------------------------------------*/
FoamFile
{
    version     2.0;
    format      ascii;
    class       volVectorField;
    location    "70";
    object      Usup;
}
// * * * * * * * * * * * * * * * * * * * * * * * * * * * * * * * * * * * * * //

dimensions      [0 1 -1 0 0 0 0];


internalField   nonuniform List<vector> 
4000
(
(0.00241144 0.00250429 0)
(0.000842337 -0.00718867 0)
(-0.00750712 -0.0071727 0)
(-0.00816942 0.00426603 0)
(0.00617422 0.00412722 0)
(-0.00346734 -0.00773463 0)
(-0.0227561 0.0060924 0)
(-0.0169392 0.00825857 0)
(-0.0102399 0.00434442 0)
(-0.0043633 -0.00523751 0)
(-0.00544676 -0.00454002 0)
(-0.00642368 0.00423877 0)
(-0.00702941 0.0068957 0)
(0.00396139 0.00536967 0)
(0.0193142 -0.0185396 0)
(0.0294225 -0.0242866 0)
(0.0366962 -0.0240262 0)
(0.0248808 -0.0204356 0)
(0.0105083 -0.0159548 0)
(-0.000680049 -0.0102739 0)
(-0.0107481 -0.0168111 0)
(-0.0176608 -0.019315 0)
(-0.0233162 -0.00666107 0)
(-0.0270239 -0.000327362 0)
(-0.017541 -0.00434006 0)
(-0.00882705 -0.0142172 0)
(-0.00890795 -0.00700205 0)
(0.00819418 -0.00697709 0)
(0.025379 -0.0101594 0)
(0.0303596 -0.00493295 0)
(0.0181625 0.00129099 0)
(-0.00727264 -0.00464901 0)
(-0.0187289 -0.00487884 0)
(-0.030953 -0.00499676 0)
(-0.0266674 0.00214169 0)
(-0.0155312 0.00502278 0)
(-0.0107766 0.00529995 0)
(-0.00394515 -0.00112307 0)
(-0.0140189 -4.39199e-05 0)
(-0.0194068 0.0139759 0)
(-0.00589731 0.0144301 0)
(0.0118371 0.0120809 0)
(0.0235196 0.00823555 0)
(0.0437137 0.0092033 0)
(0.0475296 -0.00467547 0)
(0.0299214 -0.00460282 0)
(0.0165149 -0.0031103 0)
(0.0116981 0.00538133 0)
(0.00853898 -0.000165966 0)
(-0.014205 0.00537234 0)
(-0.0234493 0.0104476 0)
(-0.0155894 -0.00198774 0)
(-0.0209819 -0.00799139 0)
(-0.0220598 -0.0083789 0)
(-0.0246297 -0.0159318 0)
(-0.0352711 -0.0159767 0)
(-0.0269509 -0.00953687 0)
(-0.00795793 -0.00132993 0)
(0.0105573 0.00250788 0)
(0.0277825 -8.50412e-05 0)
(0.0389123 0.000122008 0)
(0.0466671 -0.00111597 0)
(0.0436465 -0.00428748 0)
(0.0233366 -0.0154366 0)
(-0.00732086 -0.0158549 0)
(-0.0162427 -0.00294861 0)
(-0.0179623 -0.00434131 0)
(-0.0358403 -0.00599102 0)
(-0.0402558 -0.00661343 0)
(-0.0311703 -0.00239719 0)
(-0.00997562 0.00140685 0)
(0.0206266 -0.00779966 0)
(0.0301559 -0.0102072 0)
(0.0200036 -0.00376528 0)
(0.0177458 -0.00141247 0)
(0.00985761 -0.00408071 0)
(-0.00785593 0.00286655 0)
(-0.0074667 0.0108086 0)
(-0.00130043 0.0078361 0)
(-0.0053301 0.00321556 0)
(-0.0173058 0.00379142 0)
(-0.0200839 0.00801632 0)
(-0.0180049 0.00263417 0)
(-0.0332408 0.00096689 0)
(-0.0233509 0.0158929 0)
(0.00456851 0.0181905 0)
(0.0145138 0.0208779 0)
(0.0214045 0.0115904 0)
(0.0401455 0.00516971 0)
(0.0468215 -0.00221456 0)
(0.0363249 -0.00483787 0)
(0.0261838 -0.00810427 0)
(0.0157107 -0.00349969 0)
(0.015859 -0.0015232 0)
(0.0130849 -0.00440631 0)
(-9.24231e-06 -0.012696 0)
(-0.0136667 -0.0253003 0)
(-0.0261506 -0.0206895 0)
(-0.034508 -0.0182216 0)
(-0.0242187 -0.0097184 0)
(-0.00412751 0.0034945 0)
(-0.00802515 -0.011633 0)
(-0.00716394 -0.0171686 0)
(-0.00845643 0.00391945 0)
(-0.00332682 0.00442507 0)
(-0.012124 -0.00931894 0)
(-0.0373238 0.00784324 0)
(-0.0424401 0.0158661 0)
(-0.0373167 0.0136634 0)
(-0.0213807 0.00320511 0)
(-0.0074504 0.00201065 0)
(-0.00576452 0.00679837 0)
(-0.00997454 0.003224 0)
(-0.00418343 -0.00875829 0)
(0.0268045 -0.050775 0)
(0.0684003 -0.0581697 0)
(0.0883447 -0.0722241 0)
(0.067409 -0.0573796 0)
(0.0360758 -0.0439665 0)
(-0.000622849 -0.0239979 0)
(-0.0321398 -0.0375351 0)
(-0.0365052 -0.0497551 0)
(-0.0437101 -0.033952 0)
(-0.0622499 -0.0182082 0)
(-0.0553282 -0.0260404 0)
(-0.0271212 -0.0377131 0)
(-0.0118406 -0.0252364 0)
(0.0174369 -0.0161549 0)
(0.0573187 -0.0229683 0)
(0.0737553 -0.0186228 0)
(0.038331 -0.0149338 0)
(-0.0196486 -0.0108449 0)
(-0.046001 -0.00410666 0)
(-0.066643 -0.0104602 0)
(-0.0580636 0.00716162 0)
(-0.0413733 0.00763461 0)
(-0.0357368 0.0114194 0)
(-0.0221698 0.00261689 0)
(-0.0226382 0.0106978 0)
(-0.0289341 0.0374677 0)
(-0.0109698 0.0446994 0)
(0.0267045 0.0363683 0)
(0.0611568 0.0320584 0)
(0.0955549 0.0268094 0)
(0.102994 -0.0102152 0)
(0.0802138 -0.00967789 0)
(0.055555 -0.013412 0)
(0.0337355 0.00671701 0)
(0.016252 0.00768013 0)
(-0.0228729 0.0122886 0)
(-0.0588564 0.0184249 0)
(-0.0586032 -0.00629415 0)
(-0.060403 -0.0248259 0)
(-0.0658051 -0.0271975 0)
(-0.0719185 -0.0396071 0)
(-0.0777294 -0.0374001 0)
(-0.0516044 -0.0184836 0)
(-0.00994127 -0.00592641 0)
(0.0275281 -0.00186201 0)
(0.0666751 -0.00501118 0)
(0.095789 -0.00775634 0)
(0.109416 -0.0122413 0)
(0.0921715 -0.0123188 0)
(0.0478772 -0.0295605 0)
(4.6347e-05 -0.0360489 0)
(-0.0286368 -0.0219953 0)
(-0.0522418 -0.02299 0)
(-0.0871589 -0.0197669 0)
(-0.0915593 -0.0113576 0)
(-0.0663064 -0.000913821 0)
(-0.0272517 -0.00392148 0)
(0.0326057 -0.0165013 0)
(0.0684053 -0.0152676 0)
(0.0567832 -0.00939909 0)
(0.0421288 -0.0109381 0)
(0.0258391 -0.0121807 0)
(-0.00161436 0.00393397 0)
(-0.0126905 0.0272398 0)
(-0.0142837 0.0243944 0)
(-0.0217355 0.0199126 0)
(-0.0392428 0.016062 0)
(-0.0519307 0.0251993 0)
(-0.0556851 0.0124835 0)
(-0.0639306 0.0120814 0)
(-0.0376285 0.0401627 0)
(0.0111399 0.0387392 0)
(0.0322477 0.0417716 0)
(0.0484567 0.0301205 0)
(0.0891991 0.0201489 0)
(0.106805 -0.00179976 0)
(0.0902921 -0.00970928 0)
(0.0721924 -0.0152174 0)
(0.0522429 -0.0118504 0)
(0.0405163 -0.0118073 0)
(0.0210748 -0.0262119 0)
(-0.0170301 -0.0421848 0)
(-0.0407821 -0.0607568 0)
(-0.0590175 -0.0542818 0)
(-0.0727328 -0.0445415 0)
(-0.0384467 -0.018395 0)
(-0.00787747 -0.00196147 0)
(-0.0171451 -0.0151461 0)
(-0.00843703 -0.0194558 0)
(-0.00630067 0.0041542 0)
(-0.00856246 0.00745717 0)
(-0.0206469 0.0023039 0)
(-0.047622 0.00684134 0)
(-0.0541047 0.0184091 0)
(-0.0503159 0.0185374 0)
(-0.0328717 0.0172108 0)
(-0.0186679 0.009048 0)
(-0.0174195 0.00548531 0)
(-0.0213411 -0.0067543 0)
(-0.0143746 -0.0240718 0)
(0.034959 -0.068075 0)
(0.0881195 -0.0877414 0)
(0.120083 -0.10442 0)
(0.10907 -0.0878259 0)
(0.0677353 -0.0718775 0)
(0.00639995 -0.0474573 0)
(-0.0545124 -0.0588088 0)
(-0.0605281 -0.0621878 0)
(-0.0595112 -0.0627795 0)
(-0.0844094 -0.0507764 0)
(-0.0805386 -0.0573405 0)
(-0.0378854 -0.0582186 0)
(-0.00635657 -0.046061 0)
(0.0286795 -0.0287023 0)
(0.0718654 -0.0286287 0)
(0.09105 -0.0320255 0)
(0.0543468 -0.041401 0)
(-0.0129458 -0.0127857 0)
(-0.0649256 0.00515286 0)
(-0.0919277 0.0062884 0)
(-0.0809195 0.0131042 0)
(-0.0642761 0.0138063 0)
(-0.053384 0.0229282 0)
(-0.0332151 0.0224163 0)
(-0.022211 0.0313732 0)
(-0.0252603 0.0504556 0)
(-0.00952262 0.0685317 0)
(0.0386324 0.0590675 0)
(0.0880349 0.0477887 0)
(0.11856 0.0306932 0)
(0.133712 -0.00361357 0)
(0.115676 -0.0104615 0)
(0.0876 -0.0238105 0)
(0.0636048 -0.00516542 0)
(0.0252255 0.0086848 0)
(-0.0330784 0.0110811 0)
(-0.0878037 0.0155594 0)
(-0.101441 -0.00848272 0)
(-0.0996782 -0.0374614 0)
(-0.102199 -0.0459496 0)
(-0.10708 -0.0493439 0)
(-0.0999751 -0.0437078 0)
(-0.0631212 -0.0266943 0)
(-0.0135894 -0.0146397 0)
(0.0395275 -0.0149286 0)
(0.0939351 -0.0197405 0)
(0.133342 -0.0231323 0)
(0.156222 -0.025936 0)
(0.131095 -0.0246492 0)
(0.0631393 -0.0333894 0)
(-0.00111316 -0.0397816 0)
(-0.040986 -0.0371825 0)
(-0.0730538 -0.0397575 0)
(-0.111745 -0.0278472 0)
(-0.117025 -0.0136447 0)
(-0.0944728 -0.00156513 0)
(-0.0446911 -0.00988948 0)
(0.0428913 -0.0189659 0)
(0.0915842 -0.0263163 0)
(0.0745117 -0.0295462 0)
(0.0573416 -0.0232055 0)
(0.0426979 -0.00660348 0)
(0.0154931 0.00757538 0)
(-0.00717719 0.0387724 0)
(-0.022228 0.0448456 0)
(-0.0378447 0.0415295 0)
(-0.0587261 0.0350698 0)
(-0.077713 0.0394868 0)
(-0.0856492 0.0301107 0)
(-0.0793149 0.0301009 0)
(-0.0467149 0.052367 0)
(0.0108292 0.0512615 0)
(0.0488913 0.046679 0)
(0.0760238 0.0408392 0)
(0.120735 0.0313501 0)
(0.142539 0.00358973 0)
(0.130989 -0.0103355 0)
(0.107347 -0.0213024 0)
(0.0781119 -0.0273237 0)
(0.0510396 -0.034342 0)
(0.0179215 -0.0594015 0)
(-0.0294357 -0.0717263 0)
(-0.0604258 -0.0772959 0)
(-0.0807992 -0.0721829 0)
(-0.0886516 -0.0545902 0)
(-0.0429774 -0.020653 0)
(-0.0119224 -0.00710538 0)
(-0.0204174 -0.0193937 0)
(0.00110365 -0.0115605 0)
(0.00249162 0.0105341 0)
(-0.0135519 0.0211782 0)
(-0.0300596 0.00766949 0)
(-0.054268 0.010048 0)
(-0.0633607 0.0178953 0)
(-0.0621771 0.0207714 0)
(-0.0453779 0.021746 0)
(-0.0278782 0.00827381 0)
(-0.0232873 -0.00108186 0)
(-0.0278503 -0.00751312 0)
(-0.0284554 -0.0189854 0)
(0.0204057 -0.0590415 0)
(0.0964087 -0.106367 0)
(0.146677 -0.126885 0)
(0.137935 -0.120161 0)
(0.0917941 -0.0994844 0)
(0.0126571 -0.0885613 0)
(-0.0598949 -0.0886806 0)
(-0.0724688 -0.0770816 0)
(-0.0785621 -0.0774182 0)
(-0.103601 -0.0820701 0)
(-0.0978667 -0.0820062 0)
(-0.0426989 -0.0718679 0)
(0.000809204 -0.0609616 0)
(0.0413618 -0.0335041 0)
(0.0827186 -0.0300872 0)
(0.0948853 -0.0366783 0)
(0.0678194 -0.0378011 0)
(0.00361333 -0.00359948 0)
(-0.0659028 0.0112204 0)
(-0.109796 0.0244121 0)
(-0.103109 0.0293215 0)
(-0.0772021 0.0369737 0)
(-0.0637454 0.0464415 0)
(-0.0430051 0.0564039 0)
(-0.0262455 0.0597967 0)
(-0.0178948 0.072888 0)
(-0.000674995 0.0848007 0)
(0.0424025 0.0719457 0)
(0.0971655 0.0478236 0)
(0.135617 0.0266629 0)
(0.155374 0.00661368 0)
(0.134841 -0.0150455 0)
(0.109296 -0.0188324 0)
(0.0877909 -0.0117448 0)
(0.0369892 -0.00890842 0)
(-0.0348365 -0.00758073 0)
(-0.108845 -0.000603894 0)
(-0.141855 -0.00956279 0)
(-0.139721 -0.0377354 0)
(-0.131203 -0.056367 0)
(-0.129417 -0.0592212 0)
(-0.118017 -0.0484164 0)
(-0.0706347 -0.0372491 0)
(-0.0127777 -0.0213508 0)
(0.0453431 -0.0275904 0)
(0.112394 -0.0322117 0)
(0.163969 -0.0330081 0)
(0.18879 -0.0416499 0)
(0.157041 -0.0398995 0)
(0.0789261 -0.0392788 0)
(0.00331713 -0.0397705 0)
(-0.0507806 -0.038654 0)
(-0.0879823 -0.039046 0)
(-0.1272 -0.0291144 0)
(-0.134199 -0.0148689 0)
(-0.110501 -0.00858753 0)
(-0.0578124 -0.0144322 0)
(0.0352493 -0.0264007 0)
(0.0939212 -0.049427 0)
(0.0939948 -0.051152 0)
(0.0876076 -0.0234377 0)
(0.0639503 0.00895703 0)
(0.0309334 0.0290055 0)
(0.00450833 0.0625697 0)
(-0.0278965 0.0675235 0)
(-0.0532452 0.0579163 0)
(-0.0762728 0.0497086 0)
(-0.0980278 0.0475424 0)
(-0.107145 0.0450021 0)
(-0.0907409 0.0440615 0)
(-0.0476482 0.0582443 0)
(0.0117756 0.0573069 0)
(0.057551 0.0468646 0)
(0.0947879 0.0418445 0)
(0.14121 0.0331753 0)
(0.164975 0.00772107 0)
(0.154778 -0.011622 0)
(0.128351 -0.0306412 0)
(0.0946278 -0.0460594 0)
(0.0537544 -0.060576 0)
(0.0123857 -0.0813353 0)
(-0.0351369 -0.0885994 0)
(-0.0710498 -0.0869684 0)
(-0.0930665 -0.0767728 0)
(-0.0965223 -0.0580223 0)
(-0.0418889 -0.0227004 0)
(-0.012681 -0.00572165 0)
(-0.015559 -0.0130671 0)
(0.0122064 -0.0026193 0)
(0.0125349 -0.000128927 0)
(-0.0187486 0.0154162 0)
(-0.0426516 0.0125805 0)
(-0.0600053 0.0198683 0)
(-0.0672089 0.0254834 0)
(-0.0654433 0.0253122 0)
(-0.0552159 0.0256446 0)
(-0.0435744 0.0146527 0)
(-0.0310321 7.4437e-05 0)
(-0.0278092 -0.0145919 0)
(-0.0334262 -0.0285095 0)
(0.00242256 -0.0399445 0)
(0.0789925 -0.088343 0)
(0.152283 -0.133209 0)
(0.163738 -0.158345 0)
(0.111335 -0.136781 0)
(0.018377 -0.120618 0)
(-0.0575131 -0.101036 0)
(-0.0760342 -0.092849 0)
(-0.094648 -0.0937327 0)
(-0.120899 -0.119283 0)
(-0.101169 -0.105534 0)
(-0.0413821 -0.0807846 0)
(0.014157 -0.0671592 0)
(0.0566286 -0.0299605 0)
(0.0845181 -0.0249166 0)
(0.101293 -0.0283513 0)
(0.0849044 -0.0120048 0)
(0.0129831 0.0170395 0)
(-0.0699663 0.0210415 0)
(-0.114657 0.0408648 0)
(-0.110191 0.0636657 0)
(-0.086562 0.077302 0)
(-0.068092 0.0795113 0)
(-0.0463274 0.0829199 0)
(-0.0274911 0.0878575 0)
(-0.0152401 0.0970786 0)
(-0.00311967 0.0975819 0)
(0.0378291 0.0895508 0)
(0.0996067 0.0607262 0)
(0.146804 0.0372088 0)
(0.165015 0.0131249 0)
(0.151313 -0.0154562 0)
(0.13072 -0.0106993 0)
(0.0957378 -0.0136209 0)
(0.0356789 -0.0233215 0)
(-0.038142 -0.0289521 0)
(-0.115142 -0.0287396 0)
(-0.163854 -0.0170857 0)
(-0.175717 -0.0282343 0)
(-0.16335 -0.0500915 0)
(-0.147117 -0.0632978 0)
(-0.125214 -0.0454848 0)
(-0.0714083 -0.0288189 0)
(-0.0138467 -0.0266251 0)
(0.0479254 -0.0385623 0)
(0.127943 -0.0312811 0)
(0.17928 -0.0381029 0)
(0.208897 -0.0511063 0)
(0.183105 -0.0485822 0)
(0.0946284 -0.0389014 0)
(0.00655263 -0.0330093 0)
(-0.0546362 -0.0372167 0)
(-0.0965762 -0.0289015 0)
(-0.135517 -0.019619 0)
(-0.144815 -0.00458056 0)
(-0.126962 -0.00625995 0)
(-0.0718499 -0.023873 0)
(0.0235197 -0.0482687 0)
(0.0929307 -0.0692271 0)
(0.11644 -0.0594032 0)
(0.120801 -0.0267392 0)
(0.092021 0.00806733 0)
(0.0551826 0.0501857 0)
(0.0133498 0.0867146 0)
(-0.0396349 0.0896518 0)
(-0.071835 0.0703859 0)
(-0.0944193 0.060255 0)
(-0.113681 0.0540784 0)
(-0.121216 0.0529286 0)
(-0.0982685 0.0582375 0)
(-0.0520899 0.0608984 0)
(0.00823472 0.0508208 0)
(0.0646392 0.0430397 0)
(0.112178 0.0483891 0)
(0.157074 0.0401682 0)
(0.177925 0.0178827 0)
(0.16821 -0.010915 0)
(0.137959 -0.0307355 0)
(0.0993259 -0.0505057 0)
(0.0545653 -0.0694683 0)
(0.0108357 -0.0903666 0)
(-0.0387834 -0.103704 0)
(-0.0759845 -0.0892924 0)
(-0.0997729 -0.0817155 0)
(-0.0992056 -0.0534559 0)
(-0.0382713 -0.0152191 0)
(-0.0121729 -0.0058614 0)
(-0.0108271 0.00148308 0)
(0.0125459 0.00583803 0)
(0.0135617 -0.00599694 0)
(-0.00993461 0.00289472 0)
(-0.0367601 0.0200728 0)
(-0.0584992 0.0334337 0)
(-0.0740413 0.0271095 0)
(-0.0749556 0.0180734 0)
(-0.0626296 0.0221068 0)
(-0.0517016 0.0224862 0)
(-0.0442935 0.0127757 0)
(-0.0411925 -0.0162536 0)
(-0.0306384 -0.0257718 0)
(0.00149622 -0.0290051 0)
(0.0586469 -0.0702493 0)
(0.126583 -0.112916 0)
(0.161178 -0.162855 0)
(0.135405 -0.16732 0)
(0.0428723 -0.154806 0)
(-0.0471278 -0.11635 0)
(-0.0841509 -0.0996098 0)
(-0.120956 -0.114676 0)
(-0.136746 -0.128796 0)
(-0.0910144 -0.112364 0)
(-0.0296959 -0.0825494 0)
(0.0309416 -0.0564753 0)
(0.0735416 -0.0302782 0)
(0.0907951 -0.0229635 0)
(0.111422 -0.0147657 0)
(0.10193 0.00244856 0)
(0.0181989 0.0325179 0)
(-0.068501 0.0423814 0)
(-0.105823 0.0698256 0)
(-0.10606 0.104191 0)
(-0.0934614 0.128551 0)
(-0.0833647 0.118297 0)
(-0.0554016 0.0974901 0)
(-0.0283068 0.10368 0)
(-0.0146664 0.114371 0)
(0.00194791 0.114812 0)
(0.0375599 0.110477 0)
(0.0941392 0.0804941 0)
(0.145393 0.0492127 0)
(0.163923 0.0140005 0)
(0.159802 -0.0143209 0)
(0.143374 -0.0185867 0)
(0.0988776 -0.0286233 0)
(0.0323117 -0.0314958 0)
(-0.0462241 -0.0354898 0)
(-0.119241 -0.0497065 0)
(-0.168908 -0.0354536 0)
(-0.196976 -0.0228645 0)
(-0.192757 -0.0357772 0)
(-0.161361 -0.0469606 0)
(-0.123228 -0.0287771 0)
(-0.076861 -0.0138295 0)
(-0.024748 -0.0231484 0)
(0.0542761 -0.0228872 0)
(0.140598 -0.0180647 0)
(0.187829 -0.0421509 0)
(0.222753 -0.0418639 0)
(0.202359 -0.0469304 0)
(0.113864 -0.0326497 0)
(0.011396 -0.0238927 0)
(-0.0566869 -0.0172254 0)
(-0.0963995 -0.00807462 0)
(-0.138407 -0.00218866 0)
(-0.154344 0.00540261 0)
(-0.148041 -0.00959155 0)
(-0.0999609 -0.0326468 0)
(0.00380972 -0.0663196 0)
(0.0968903 -0.0842805 0)
(0.13964 -0.0670176 0)
(0.149806 -0.0413674 0)
(0.127635 -0.00501472 0)
(0.0888018 0.0553845 0)
(0.02713 0.0937906 0)
(-0.051847 0.106378 0)
(-0.0921766 0.0859593 0)
(-0.110344 0.0718605 0)
(-0.12811 0.0615856 0)
(-0.128149 0.0599436 0)
(-0.104093 0.0651649 0)
(-0.0617048 0.0620355 0)
(0.00512424 0.0519333 0)
(0.0782425 0.0427629 0)
(0.129618 0.0515921 0)
(0.166732 0.0449005 0)
(0.180538 0.0346253 0)
(0.170665 0.000317943 0)
(0.144193 -0.0183994 0)
(0.101193 -0.0407538 0)
(0.047728 -0.0673526 0)
(-0.00304461 -0.0922141 0)
(-0.0396347 -0.110183 0)
(-0.0751062 -0.0852785 0)
(-0.0997022 -0.0836861 0)
(-0.0896673 -0.0468874 0)
(-0.0391778 -0.0112562 0)
(-0.00135839 -0.00728924 0)
(0.00232667 0.00711333 0)
(0.0112454 0.0127697 0)
(0.0109096 0.00188474 0)
(-0.00257187 0.00942085 0)
(-0.0265955 0.0257691 0)
(-0.0638687 0.0357075 0)
(-0.0883684 0.0166954 0)
(-0.0778742 0.00935422 0)
(-0.0581356 0.013509 0)
(-0.0529671 0.0244395 0)
(-0.0574154 0.0312236 0)
(-0.048366 0.0121048 0)
(-0.0286378 -0.00330147 0)
(-0.0102579 -0.0228899 0)
(0.0409585 -0.0604717 0)
(0.107885 -0.0958851 0)
(0.143384 -0.138333 0)
(0.129676 -0.166658 0)
(0.0594947 -0.167661 0)
(-0.0219683 -0.134734 0)
(-0.0870114 -0.118297 0)
(-0.13293 -0.127782 0)
(-0.137463 -0.117889 0)
(-0.0836906 -0.0901361 0)
(-0.012681 -0.0596554 0)
(0.0456033 -0.0332783 0)
(0.0796564 -0.0264364 0)
(0.0977646 -0.0230061 0)
(0.121641 -0.00384022 0)
(0.117144 0.00865243 0)
(0.0330107 0.0294556 0)
(-0.0588359 0.0648459 0)
(-0.0905413 0.1036 0)
(-0.0902648 0.140805 0)
(-0.0983964 0.161098 0)
(-0.110009 0.150739 0)
(-0.0716676 0.130407 0)
(-0.0239691 0.120635 0)
(-0.00844253 0.121259 0)
(0.00214519 0.124602 0)
(0.0312068 0.107672 0)
(0.0827124 0.0851963 0)
(0.132606 0.054286 0)
(0.154814 0.00567896 0)
(0.160641 -0.0178255 0)
(0.146378 -0.0232365 0)
(0.102908 -0.0417896 0)
(0.0365513 -0.0466494 0)
(-0.056404 -0.0502926 0)
(-0.129324 -0.0476454 0)
(-0.165338 -0.0427496 0)
(-0.201804 -0.0302045 0)
(-0.209004 -0.0282572 0)
(-0.169089 -0.0159781 0)
(-0.123668 0.000686494 0)
(-0.0818735 0.000565713 0)
(-0.0237732 -0.0111785 0)
(0.060887 0.0046711 0)
(0.134187 0.00112324 0)
(0.189748 -0.0135814 0)
(0.235602 -0.00218262 0)
(0.216376 -0.024415 0)
(0.129197 -0.0305554 0)
(0.0238923 -0.0145001 0)
(-0.0484795 0.00944759 0)
(-0.100236 0.0111536 0)
(-0.145941 0.00751741 0)
(-0.171364 0.000288716 0)
(-0.171801 -0.0272209 0)
(-0.122601 -0.0401179 0)
(-0.0148676 -0.0629141 0)
(0.0984276 -0.0767253 0)
(0.156723 -0.0669372 0)
(0.174278 -0.0415005 0)
(0.167521 -0.0125861 0)
(0.127295 0.0382445 0)
(0.0453632 0.0728737 0)
(-0.0553906 0.0953431 0)
(-0.111285 0.0930578 0)
(-0.129599 0.0820151 0)
(-0.141084 0.06935 0)
(-0.13598 0.0704431 0)
(-0.109578 0.0715842 0)
(-0.0663302 0.0655732 0)
(0.000755303 0.0632314 0)
(0.0830607 0.0451597 0)
(0.143277 0.0365582 0)
(0.182235 0.0421428 0)
(0.186665 0.0405128 0)
(0.169873 0.0156725 0)
(0.143476 -0.00504964 0)
(0.0911997 -0.0295657 0)
(0.0347898 -0.068234 0)
(-0.0138845 -0.0875537 0)
(-0.039104 -0.0997254 0)
(-0.0738723 -0.0858688 0)
(-0.0992634 -0.0750706 0)
(-0.0815023 -0.0429659 0)
(-0.0366149 -0.0129903 0)
(0.00503749 -0.00323504 0)
(0.014901 -0.00389202 0)
(0.0154482 0.00882973 0)
(0.0141152 0.0144832 0)
(0.00730354 0.0244797 0)
(-0.0206711 0.0241388 0)
(-0.0705061 0.0203278 0)
(-0.0995149 0.0167371 0)
(-0.0827042 0.0190968 0)
(-0.055017 0.0194686 0)
(-0.0392587 0.0299384 0)
(-0.0502251 0.0449129 0)
(-0.0590546 0.0424198 0)
(-0.0442188 0.0160573 0)
(-0.0243804 -0.0103383 0)
(0.023442 -0.0376213 0)
(0.0875445 -0.0849118 0)
(0.124285 -0.113697 0)
(0.123658 -0.147105 0)
(0.0696377 -0.150001 0)
(-0.0140793 -0.133597 0)
(-0.0877831 -0.129524 0)
(-0.133058 -0.126191 0)
(-0.122844 -0.0966338 0)
(-0.0610884 -0.0508447 0)
(0.00184885 -0.0251153 0)
(0.0486446 -0.0140375 0)
(0.0777877 -0.0258899 0)
(0.10616 -0.025878 0)
(0.133151 -0.00370764 0)
(0.122035 0.0134622 0)
(0.0506471 0.0252637 0)
(-0.0275172 0.087339 0)
(-0.0669494 0.13983 0)
(-0.082154 0.16771 0)
(-0.103785 0.16617 0)
(-0.121072 0.179214 0)
(-0.0888471 0.168788 0)
(-0.041316 0.129352 0)
(-0.0116932 0.106731 0)
(-0.000470309 0.107884 0)
(0.0240599 0.0953407 0)
(0.0773529 0.080799 0)
(0.114087 0.0527424 0)
(0.139387 0.00311783 0)
(0.164739 -0.0246959 0)
(0.14667 -0.0356691 0)
(0.0952812 -0.0581145 0)
(0.0313344 -0.0578382 0)
(-0.0500838 -0.0573095 0)
(-0.124249 -0.0378317 0)
(-0.172388 -0.0370892 0)
(-0.206406 -0.0332783 0)
(-0.203968 -0.0139882 0)
(-0.160873 0.00802765 0)
(-0.128242 0.0179425 0)
(-0.0963895 0.0232553 0)
(-0.0240792 0.0222774 0)
(0.0701182 0.0365218 0)
(0.142089 0.0318859 0)
(0.205766 0.0342593 0)
(0.236789 0.0443177 0)
(0.200925 0.0110205 0)
(0.13442 -0.0125368 0)
(0.0458813 0.00255617 0)
(-0.0410513 0.0323461 0)
(-0.107853 0.029944 0)
(-0.160594 0.0155586 0)
(-0.194841 -0.00591465 0)
(-0.190055 -0.0310855 0)
(-0.133454 -0.0476472 0)
(-0.0246769 -0.0551857 0)
(0.0968037 -0.062721 0)
(0.17052 -0.0596009 0)
(0.194406 -0.0347775 0)
(0.188606 -0.0182741 0)
(0.150549 0.012075 0)
(0.0643179 0.0432283 0)
(-0.045296 0.0661967 0)
(-0.113278 0.0757514 0)
(-0.141187 0.0738883 0)
(-0.150625 0.0765141 0)
(-0.139022 0.0754461 0)
(-0.116206 0.0669488 0)
(-0.0698153 0.0613872 0)
(-0.00340333 0.0680213 0)
(0.0741037 0.0460801 0)
(0.150998 0.0281657 0)
(0.199243 0.0405356 0)
(0.193563 0.036644 0)
(0.169028 0.0309035 0)
(0.138985 0.00398923 0)
(0.0764851 -0.0221176 0)
(0.018735 -0.0659075 0)
(-0.0219099 -0.0853905 0)
(-0.0440798 -0.0870282 0)
(-0.0723604 -0.0818457 0)
(-0.0919673 -0.0610682 0)
(-0.0743282 -0.0248501 0)
(-0.0336463 -0.00883957 0)
(0.00448327 -0.00363858 0)
(0.0227215 -0.00856373 0)
(0.0334401 -0.0018372 0)
(0.0276982 0.0164989 0)
(0.0066429 0.0245204 0)
(-0.0301713 0.0213053 0)
(-0.0716655 0.0126953 0)
(-0.0923857 0.0240081 0)
(-0.0785925 0.0364904 0)
(-0.0514833 0.0427868 0)
(-0.033337 0.0469404 0)
(-0.0444235 0.0442904 0)
(-0.0624529 0.0423827 0)
(-0.0569591 0.0243446 0)
(-0.0365107 0.00883316 0)
(0.000781793 -0.0106156 0)
(0.0661987 -0.0593719 0)
(0.109519 -0.0820573 0)
(0.110841 -0.114757 0)
(0.0723779 -0.135676 0)
(-0.00893205 -0.12425 0)
(-0.0878401 -0.122254 0)
(-0.117961 -0.103691 0)
(-0.0925807 -0.0572765 0)
(-0.0413062 -0.0193732 0)
(0.00575987 -0.00566479 0)
(0.038643 -0.00239193 0)
(0.0666835 -0.0202698 0)
(0.111007 -0.0197544 0)
(0.147172 -0.0159889 0)
(0.13312 0.0023928 0)
(0.0790163 0.0366611 0)
(0.0139783 0.109432 0)
(-0.0451818 0.155013 0)
(-0.085544 0.175795 0)
(-0.103931 0.172782 0)
(-0.120012 0.181931 0)
(-0.117008 0.170447 0)
(-0.0739841 0.13206 0)
(-0.0233658 0.104191 0)
(0.00057667 0.0890649 0)
(0.02412 0.0766009 0)
(0.0694138 0.0602579 0)
(0.096938 0.0292451 0)
(0.120286 -0.0111207 0)
(0.152846 -0.040034 0)
(0.138553 -0.0566789 0)
(0.0977477 -0.0655383 0)
(0.0418026 -0.0587407 0)
(-0.0436045 -0.0551254 0)
(-0.122263 -0.0420194 0)
(-0.174443 -0.0355153 0)
(-0.200328 -0.0307163 0)
(-0.19537 0.000103521 0)
(-0.161559 0.0151619 0)
(-0.125505 0.0286801 0)
(-0.0868154 0.0483954 0)
(-0.0158259 0.0706318 0)
(0.0728792 0.0792276 0)
(0.143379 0.0732748 0)
(0.213721 0.0775307 0)
(0.234575 0.0682563 0)
(0.188873 0.0333955 0)
(0.132973 0.0125245 0)
(0.0610958 0.0197691 0)
(-0.0301275 0.0481719 0)
(-0.119362 0.0523826 0)
(-0.182212 0.0265987 0)
(-0.216304 -0.00037178 0)
(-0.211531 -0.0282189 0)
(-0.146116 -0.0504283 0)
(-0.0279989 -0.0525113 0)
(0.096176 -0.0491985 0)
(0.179825 -0.0451371 0)
(0.207109 -0.0351998 0)
(0.202891 -0.0221291 0)
(0.171025 0.000906021 0)
(0.0809334 0.0260873 0)
(-0.0383205 0.0318142 0)
(-0.114649 0.0391508 0)
(-0.13942 0.0532162 0)
(-0.150436 0.0758233 0)
(-0.151997 0.071402 0)
(-0.125528 0.0537996 0)
(-0.0659883 0.047972 0)
(-0.0045189 0.0554049 0)
(0.0664995 0.045291 0)
(0.158016 0.0392263 0)
(0.211725 0.0321878 0)
(0.204936 0.0287805 0)
(0.170664 0.0391015 0)
(0.126233 0.00722985 0)
(0.0564114 -0.023272 0)
(-0.00183121 -0.0617108 0)
(-0.0272721 -0.0853089 0)
(-0.0425942 -0.0803833 0)
(-0.0688652 -0.0719386 0)
(-0.0783024 -0.0495895 0)
(-0.0688054 -0.0120916 0)
(-0.038859 -0.00527669 0)
(0.00890137 -0.00844556 0)
(0.0300684 -0.00622451 0)
(0.0448009 -0.00779292 0)
(0.0409146 -0.000505078 0)
(0.0151061 0.00429231 0)
(-0.0276087 0.0204384 0)
(-0.068473 0.0256085 0)
(-0.0827645 0.04609 0)
(-0.0694969 0.0627766 0)
(-0.0469434 0.0635085 0)
(-0.0360813 0.0478019 0)
(-0.0493141 0.0394084 0)
(-0.0669973 0.0298208 0)
(-0.0597741 0.019044 0)
(-0.0391076 0.0178353 0)
(-0.014866 0.00952526 0)
(0.0463751 -0.0173869 0)
(0.0930221 -0.0446476 0)
(0.0906233 -0.0736005 0)
(0.0653001 -0.102492 0)
(-0.00539289 -0.110292 0)
(-0.0771808 -0.108934 0)
(-0.0921929 -0.0760648 0)
(-0.0689831 -0.030534 0)
(-0.0313344 -0.00440683 0)
(0.00699726 0.00334833 0)
(0.0319048 -0.00441164 0)
(0.0602941 -0.0128511 0)
(0.105247 -0.0105551 0)
(0.145061 -0.0227278 0)
(0.155044 -0.00754538 0)
(0.121656 0.0432678 0)
(0.0497547 0.106595 0)
(-0.0294064 0.144308 0)
(-0.0808559 0.168521 0)
(-0.110396 0.173004 0)
(-0.132148 0.16808 0)
(-0.132125 0.159909 0)
(-0.0930387 0.133579 0)
(-0.0420165 0.102154 0)
(-0.0147593 0.0773056 0)
(0.013506 0.0504154 0)
(0.057067 0.0211221 0)
(0.0786726 -0.0192336 0)
(0.106213 -0.0432996 0)
(0.14773 -0.0508917 0)
(0.141376 -0.0642634 0)
(0.1029 -0.0600715 0)
(0.0430824 -0.0624266 0)
(-0.0388492 -0.0582052 0)
(-0.115564 -0.050209 0)
(-0.17354 -0.0425142 0)
(-0.192139 -0.0304533 0)
(-0.183131 -0.00170267 0)
(-0.152111 0.024866 0)
(-0.11377 0.0454625 0)
(-0.0717632 0.0781271 0)
(-0.00289625 0.108935 0)
(0.0755553 0.110736 0)
(0.148695 0.115938 0)
(0.21286 0.118906 0)
(0.21607 0.0930017 0)
(0.170495 0.0552167 0)
(0.131946 0.0257052 0)
(0.0755267 0.0262507 0)
(-0.0179512 0.0592414 0)
(-0.128259 0.0585135 0)
(-0.206283 0.0286293 0)
(-0.242744 -0.00152521 0)
(-0.233539 -0.0350889 0)
(-0.155924 -0.0495575 0)
(-0.0259177 -0.047511 0)
(0.102146 -0.0395295 0)
(0.18185 -0.0313758 0)
(0.21234 -0.0290954 0)
(0.215142 -0.0190078 0)
(0.18428 -0.0089341 0)
(0.0833296 -0.00680861 0)
(-0.0413272 -0.0091614 0)
(-0.10472 0.00294181 0)
(-0.12225 0.0315943 0)
(-0.145125 0.0572169 0)
(-0.16167 0.0550736 0)
(-0.137096 0.0553168 0)
(-0.0682414 0.0568564 0)
(-7.63636e-05 0.0467976 0)
(0.0725969 0.043533 0)
(0.156277 0.0334524 0)
(0.209739 0.0232636 0)
(0.218298 0.0161343 0)
(0.172275 0.0259819 0)
(0.109677 -0.00927344 0)
(0.0381022 -0.039637 0)
(-0.0201471 -0.0605886 0)
(-0.0353866 -0.0783909 0)
(-0.0408953 -0.0760584 0)
(-0.0631016 -0.071191 0)
(-0.0671851 -0.0524264 0)
(-0.0647147 -0.0235147 0)
(-0.0424296 -0.00668338 0)
(0.016526 -0.0147161 0)
(0.0414856 -0.0139168 0)
(0.051128 -0.00749717 0)
(0.0459488 -0.00982353 0)
(0.0281186 -0.00668638 0)
(-0.0108924 0.0178631 0)
(-0.0508556 0.0400213 0)
(-0.0639429 0.0656076 0)
(-0.0647161 0.0828019 0)
(-0.060769 0.0680475 0)
(-0.0481103 0.0406717 0)
(-0.0530817 0.0306088 0)
(-0.0710722 0.0250195 0)
(-0.0577327 0.0222639 0)
(-0.0342278 0.0170583 0)
(-0.0153608 0.0169623 0)
(0.0356033 0.0188787 0)
(0.0758742 -0.0136253 0)
(0.0735945 -0.0379406 0)
(0.0477755 -0.0607521 0)
(-0.0142798 -0.0891582 0)
(-0.0659331 -0.0810002 0)
(-0.0655587 -0.0465865 0)
(-0.0462781 -0.00507669 0)
(-0.0230776 0.00987172 0)
(-0.000555889 0.007522 0)
(0.021154 -0.00951283 0)
(0.057306 -0.0160237 0)
(0.0992208 -0.0256359 0)
(0.144578 -0.0287866 0)
(0.175922 -0.001275 0)
(0.155898 0.0372547 0)
(0.0798956 0.0743184 0)
(-0.0089528 0.114798 0)
(-0.07396 0.153091 0)
(-0.113115 0.159115 0)
(-0.136968 0.149475 0)
(-0.147376 0.14116 0)
(-0.118454 0.111975 0)
(-0.0632484 0.0815456 0)
(-0.0322362 0.0650534 0)
(-0.00837514 0.0316552 0)
(0.0299866 -0.0184829 0)
(0.0632521 -0.0611496 0)
(0.111196 -0.072475 0)
(0.150632 -0.064564 0)
(0.142672 -0.0687037 0)
(0.106616 -0.0594178 0)
(0.0467559 -0.0644113 0)
(-0.0350895 -0.0700553 0)
(-0.114901 -0.0683652 0)
(-0.167077 -0.0521728 0)
(-0.17946 -0.0353247 0)
(-0.164626 -0.00365275 0)
(-0.136318 0.0261836 0)
(-0.094027 0.0536812 0)
(-0.0449903 0.103214 0)
(0.00684832 0.12828 0)
(0.0804253 0.134811 0)
(0.155011 0.152646 0)
(0.204664 0.143773 0)
(0.196306 0.110592 0)
(0.147172 0.0923555 0)
(0.117365 0.0624274 0)
(0.0885319 0.0357805 0)
(-0.00673165 0.0569643 0)
(-0.144879 0.0490344 0)
(-0.231149 0.0121585 0)
(-0.268577 -0.0234202 0)
(-0.251781 -0.0476621 0)
(-0.158883 -0.0452116 0)
(-0.022652 -0.0397767 0)
(0.107399 -0.0396883 0)
(0.18763 -0.0289851 0)
(0.216338 -0.0217873 0)
(0.217138 -0.0122442 0)
(0.178198 -0.0198749 0)
(0.0775239 -0.0460227 0)
(-0.0357854 -0.0374841 0)
(-0.0903921 -0.0115196 0)
(-0.10573 0.00711456 0)
(-0.139098 0.0331161 0)
(-0.158062 0.0383048 0)
(-0.126611 0.0432618 0)
(-0.0714775 0.0621827 0)
(-0.00980006 0.0373426 0)
(0.0650273 0.0325527 0)
(0.154807 0.0284999 0)
(0.213054 0.0219728 0)
(0.221984 0.00343842 0)
(0.166437 -0.00364917 0)
(0.0902736 -0.0338014 0)
(0.0274097 -0.0564804 0)
(-0.0262738 -0.0636771 0)
(-0.0400559 -0.0702412 0)
(-0.0445845 -0.0699412 0)
(-0.0646602 -0.0692933 0)
(-0.0618757 -0.0573807 0)
(-0.058194 -0.043043 0)
(-0.0414786 -0.00840693 0)
(0.0231066 -0.0170884 0)
(0.0582404 -0.027302 0)
(0.0634814 -0.0123657 0)
(0.0523722 -0.00816112 0)
(0.0429057 -0.00151073 0)
(0.011748 0.0163268 0)
(-0.0299598 0.0512216 0)
(-0.0487632 0.0751485 0)
(-0.0653444 0.0832061 0)
(-0.0751669 0.0757288 0)
(-0.06 0.0467334 0)
(-0.0560537 0.0210174 0)
(-0.0670901 0.023409 0)
(-0.0584245 0.0246815 0)
(-0.0350053 0.0154884 0)
(-0.00532174 0.0101891 0)
(0.0315547 0.0252271 0)
(0.0576206 0.00732053 0)
(0.0604266 -0.00865753 0)
(0.0297922 -0.032347 0)
(-0.0205042 -0.0522299 0)
(-0.0482436 -0.0303583 0)
(-0.040401 -0.0117371 0)
(-0.0325636 0.00898526 0)
(-0.0276081 0.0205661 0)
(-0.0127393 0.00726046 0)
(0.00944554 -0.00905475 0)
(0.0436506 -0.0307098 0)
(0.0912081 -0.0410132 0)
(0.158075 -0.0297789 0)
(0.198077 -0.00810739 0)
(0.170851 0.0169441 0)
(0.0995498 0.050465 0)
(0.0207683 0.0907161 0)
(-0.0560062 0.123392 0)
(-0.120124 0.134667 0)
(-0.151075 0.11389 0)
(-0.163455 0.0964422 0)
(-0.138144 0.0739219 0)
(-0.0749478 0.0541174 0)
(-0.0469029 0.032573 0)
(-0.0405806 0.00481861 0)
(-0.0015576 -0.0404973 0)
(0.0500204 -0.0733615 0)
(0.115115 -0.0835214 0)
(0.161143 -0.0736122 0)
(0.153987 -0.071241 0)
(0.112272 -0.0655934 0)
(0.0383915 -0.0747794 0)
(-0.0418188 -0.0927025 0)
(-0.105423 -0.0935512 0)
(-0.154644 -0.0681672 0)
(-0.163463 -0.0364049 0)
(-0.145565 0.000295699 0)
(-0.117266 0.0289071 0)
(-0.0631191 0.0637391 0)
(-0.020764 0.109341 0)
(0.0191351 0.12903 0)
(0.0950266 0.14903 0)
(0.159246 0.165472 0)
(0.187544 0.16658 0)
(0.184481 0.137213 0)
(0.140805 0.121901 0)
(0.0946267 0.0999108 0)
(0.0737339 0.0576173 0)
(-0.00820691 0.0336322 0)
(-0.163162 0.0211218 0)
(-0.26286 -0.00782727 0)
(-0.290582 -0.0370509 0)
(-0.253186 -0.0507988 0)
(-0.15295 -0.0459391 0)
(-0.0236439 -0.0439496 0)
(0.109208 -0.037407 0)
(0.194659 -0.0250321 0)
(0.224291 -0.0151519 0)