/*--------------------------------*- C++ -*----------------------------------*\
| =========                 |                                                 |
| \\      /  F ield         | OpenFOAM: The Open Source CFD Toolbox           |
|  \\    /   O peration     | Version:  v2012                                 |
|   \\  /    A nd           | Website:  www.openfoam.com                      |
|    \\/     M anipulation  |                                                 |
\*---------------------------------------------------------------------------*/
FoamFile
{
    version     2.0;
    format      ascii;
    class       volVectorField;
    location    "70";
    object      Usup;
}
// * * * * * * * * * * * * * * * * * * * * * * * * * * * * * * * * * * * * * //

dimensions      [0 1 -1 0 0 0 0];


internalField   nonuniform List<vector> 
4000
(
(-2.59511e-16 -4.0519e-17 0)
(-5.82552e-16 1.29483e-16 0)
(-8.30217e-16 2.6104e-16 0)
(-1.29617e-15 1.79096e-16 0)
(-1.87611e-15 1.34548e-16 0)
(-2.0851e-15 8.34326e-17 0)
(-2.09688e-15 -1.68882e-17 0)
(-2.3904e-15 4.19509e-17 0)
(-2.57163e-15 4.55245e-17 0)
(-2.99833e-15 -1.44398e-16 0)
(-3.7944e-15 -4.98071e-16 0)
(-4.41294e-15 -6.21754e-16 0)
(-5.03846e-15 -4.22534e-16 0)
(-5.63642e-15 -3.52955e-16 0)
(-5.611e-15 -1.62347e-16 0)
(-5.05269e-15 -2.11756e-17 0)
(-4.86123e-15 -1.70875e-16 0)
(-5.31278e-15 -5.35493e-16 0)
(-5.9808e-15 -1.07077e-15 0)
(-6.17221e-15 -1.06616e-15 0)
(-5.76682e-15 -8.45154e-16 0)
(-5.28626e-15 -9.78104e-16 0)
(-5.06124e-15 -1.50805e-15 0)
(-5.05128e-15 -1.2321e-15 0)
(-5.06559e-15 -1.45385e-15 0)
(-4.79637e-15 -1.24271e-15 0)
(-4.52572e-15 -1.62352e-15 0)
(-4.7302e-15 -1.87145e-15 0)
(-5.04425e-15 -1.44671e-15 0)
(-5.07397e-15 -1.10704e-15 0)
(-4.21376e-15 -7.23256e-16 0)
(-3.32784e-15 -8.80375e-16 0)
(-3.42108e-15 -1.26578e-15 0)
(-3.64464e-15 -1.23794e-15 0)
(-3.60023e-15 -1.44125e-15 0)
(-3.8737e-15 -1.27732e-15 0)
(-4.52277e-15 -9.36488e-16 0)
(-4.66971e-15 -3.23198e-16 0)
(-3.86247e-15 -1.73531e-16 0)
(-3.18526e-15 -6.94926e-16 0)
(-2.98175e-15 -8.43319e-16 0)
(-2.57026e-15 -9.12291e-16 0)
(-2.91344e-15 -1.07969e-15 0)
(-3.46388e-15 -1.05397e-15 0)
(-3.19046e-15 -9.04121e-16 0)
(-2.92222e-15 -1.01723e-15 0)
(-2.88562e-15 -8.52567e-16 0)
(-3.06429e-15 -3.80288e-16 0)
(-2.88423e-15 5.04018e-17 0)
(-2.66695e-15 1.95928e-17 0)
(-2.64805e-15 1.6114e-16 0)
(-2.23557e-15 1.09361e-16 0)
(-1.82295e-15 2.63249e-16 0)
(-1.41169e-15 2.23274e-16 0)
(-1.33792e-15 1.00383e-16 0)
(-1.04391e-15 3.22504e-16 0)
(-2.41328e-16 1.26056e-16 0)
(-2.1287e-16 5.16789e-17 0)
(-4.60315e-16 7.77019e-17 0)
(-4.02005e-16 2.35325e-17 0)
(-4.27165e-16 1.3541e-16 0)
(-5.53799e-16 2.04869e-16 0)
(-8.54778e-16 3.08104e-16 0)
(-6.24035e-16 5.75604e-16 0)
(1.99346e-16 4.49991e-16 0)
(5.13603e-16 3.40996e-16 0)
(4.28078e-16 2.78902e-16 0)
(5.92231e-16 4.21774e-16 0)
(8.61905e-16 3.35056e-16 0)
(5.8397e-16 3.34105e-16 0)
(-1.8646e-16 3.79792e-16 0)
(-5.19211e-16 3.58083e-16 0)
(-5.93953e-16 5.58232e-16 0)
(-6.60641e-16 5.27087e-16 0)
(-5.22018e-16 4.38549e-16 0)
(-3.0654e-16 5.80026e-16 0)
(-2.20322e-16 5.67871e-16 0)
(-5.86734e-16 3.50935e-16 0)
(-1.40906e-15 2.94025e-16 0)
(-1.64821e-15 7.88807e-16 0)
(-9.30602e-16 6.86795e-16 0)
(-6.2678e-16 4.80874e-16 0)
(-6.44078e-16 6.10142e-16 0)
(-6.48767e-16 4.23127e-16 0)
(-6.88674e-16 3.3624e-16 0)
(-2.82133e-16 3.7315e-16 0)
(3.86849e-16 1.01629e-16 0)
(7.22172e-16 9.41317e-17 0)
(5.40115e-16 -2.07821e-16 0)
(6.92727e-17 -1.80019e-16 0)
(-3.84544e-16 8.26006e-17 0)
(-7.87282e-16 2.75755e-17 0)
(-1.05239e-15 3.95743e-17 0)
(-1.06373e-15 -3.6618e-16 0)
(-1.12585e-15 -6.50894e-16 0)
(-1.06747e-15 -6.14625e-16 0)
(-1.22402e-15 -4.82661e-16 0)
(-1.34319e-15 -2.12796e-16 0)
(-1.17087e-15 -3.83452e-17 0)
(-6.66214e-16 1.08947e-17 0)
(-5.75901e-16 -1.48043e-18 0)
(-1.52578e-15 3.11578e-16 0)
(-2.58001e-15 3.64829e-16 0)
(-3.93083e-15 3.94075e-16 0)
(-5.28825e-15 4.59926e-16 0)
(-6.03344e-15 3.78684e-16 0)
(-6.28473e-15 7.23943e-17 0)
(-7.00146e-15 5.43157e-17 0)
(-7.89353e-15 -1.43321e-16 0)
(-9.38337e-15 -6.56111e-16 0)
(-1.12561e-14 -1.36798e-15 0)
(-1.25182e-14 -1.37069e-15 0)
(-1.39799e-14 -1.16649e-15 0)
(-1.53573e-14 -1.00748e-15 0)
(-1.54101e-14 -6.19296e-16 0)
(-1.47416e-14 -4.47728e-16 0)
(-1.48451e-14 -1.04933e-15 0)
(-1.60803e-14 -1.83734e-15 0)
(-1.71571e-14 -3.05324e-15 0)
(-1.70116e-14 -3.21068e-15 0)
(-1.63259e-14 -3.02567e-15 0)
(-1.58526e-14 -2.93009e-15 0)
(-1.49731e-14 -3.64456e-15 0)
(-1.45888e-14 -3.73307e-15 0)
(-1.45269e-14 -3.99686e-15 0)
(-1.40599e-14 -3.85641e-15 0)
(-1.3856e-14 -4.7224e-15 0)
(-1.35742e-14 -4.92286e-15 0)
(-1.36358e-14 -4.22948e-15 0)
(-1.3501e-14 -3.38442e-15 0)
(-1.20597e-14 -2.54817e-15 0)
(-1.07855e-14 -2.78257e-15 0)
(-1.0587e-14 -3.69323e-15 0)
(-1.08047e-14 -3.56864e-15 0)
(-1.07341e-14 -3.64891e-15 0)
(-1.09566e-14 -3.5246e-15 0)
(-1.18345e-14 -3.06862e-15 0)
(-1.21486e-14 -1.82155e-15 0)
(-1.13531e-14 -1.177e-15 0)
(-1.00484e-14 -2.10819e-15 0)
(-9.03292e-15 -2.38335e-15 0)
(-8.2407e-15 -2.63977e-15 0)
(-8.74784e-15 -3.13528e-15 0)
(-9.4665e-15 -3.03559e-15 0)
(-9.10453e-15 -2.88099e-15 0)
(-8.54022e-15 -2.78132e-15 0)
(-7.9614e-15 -2.07636e-15 0)
(-7.96709e-15 -1.17085e-15 0)
(-7.91909e-15 -7.75563e-17 0)
(-7.59136e-15 3.4787e-16 0)
(-7.31249e-15 6.13893e-16 0)
(-6.31064e-15 5.67696e-16 0)
(-5.24198e-15 5.20267e-16 0)
(-4.4183e-15 4.3516e-16 0)
(-3.75445e-15 2.79296e-16 0)
(-2.94875e-15 7.54536e-16 0)
(-1.52958e-15 4.52277e-16 0)
(-1.10108e-15 2.7534e-16 0)
(-1.4217e-15 5.28407e-16 0)
(-1.26179e-15 1.83682e-16 0)
(-1.21737e-15 3.38535e-16 0)
(-1.46249e-15 4.23358e-16 0)
(-1.75586e-15 6.79284e-16 0)
(-1.32591e-15 1.37582e-15 0)
(6.69395e-17 1.56739e-15 0)
(9.21755e-16 1.28126e-15 0)
(1.14653e-15 1.08757e-15 0)
(1.48959e-15 1.13024e-15 0)
(1.80349e-15 8.10236e-16 0)
(1.24246e-15 8.81379e-16 0)
(-3.53842e-16 1.02604e-15 0)
(-1.09374e-15 1.15473e-15 0)
(-1.40405e-15 1.2419e-15 0)
(-1.78287e-15 1.539e-15 0)
(-1.41572e-15 1.50223e-15 0)
(-9.84242e-16 1.83149e-15 0)
(-1.19262e-15 1.78654e-15 0)
(-2.07449e-15 1.22618e-15 0)
(-3.1648e-15 1.16443e-15 0)
(-3.67198e-15 2.18643e-15 0)
(-2.89442e-15 2.13355e-15 0)
(-2.01764e-15 1.62607e-15 0)
(-1.89498e-15 1.53473e-15 0)
(-1.9688e-15 9.54239e-16 0)
(-1.69622e-15 9.54786e-16 0)
(-8.8781e-16 1.03233e-15 0)
(4.83188e-16 8.36839e-16 0)
(1.18295e-15 4.46536e-16 0)
(8.42335e-16 -2.10859e-16 0)
(2.19053e-16 -4.24545e-16 0)
(-9.38853e-16 -2.51447e-16 0)
(-2.11131e-15 -1.18618e-16 0)
(-3.04262e-15 -2.87286e-16 0)
(-3.43103e-15 -1.04899e-15 0)
(-3.27762e-15 -1.67991e-15 0)
(-2.93388e-15 -1.70139e-15 0)
(-3.04128e-15 -1.51513e-15 0)
(-3.14299e-15 -7.96383e-16 0)
(-2.76456e-15 -2.66415e-16 0)
(-1.50544e-15 -9.48483e-17 0)
(-9.52744e-16 3.42362e-16 0)
(-2.73047e-15 7.58216e-16 0)
(-4.39544e-15 7.48445e-16 0)
(-6.23466e-15 6.06131e-16 0)
(-8.32546e-15 6.81077e-16 0)
(-9.80534e-15 5.44874e-16 0)
(-1.05167e-14 2.5687e-16 0)
(-1.17237e-14 2.32627e-17 0)
(-1.3358e-14 -6.19149e-16 0)
(-1.56824e-14 -1.61889e-15 0)
(-1.8104e-14 -1.99209e-15 0)
(-1.99601e-14 -1.58905e-15 0)
(-2.22227e-14 -1.62719e-15 0)
(-2.40448e-14 -1.43688e-15 0)
(-2.43722e-14 -9.28303e-16 0)
(-2.41582e-14 -1.329e-15 0)
(-2.46656e-14 -2.52779e-15 0)
(-2.63808e-14 -3.46272e-15 0)
(-2.76366e-14 -4.66849e-15 0)
(-2.71479e-14 -5.40835e-15 0)
(-2.59866e-14 -5.56991e-15 0)
(-2.53024e-14 -4.97958e-15 0)
(-2.45928e-14 -5.26779e-15 0)
(-2.39272e-14 -6.12331e-15 0)
(-2.34886e-14 -6.139e-15 0)
(-2.31298e-14 -6.83536e-15 0)
(-2.26584e-14 -7.60147e-15 0)
(-2.17894e-14 -7.62981e-15 0)
(-2.14876e-14 -6.99524e-15 0)
(-2.09731e-14 -5.55151e-15 0)
(-1.93854e-14 -4.64294e-15 0)
(-1.82589e-14 -4.96113e-15 0)
(-1.77126e-14 -5.7638e-15 0)
(-1.7445e-14 -5.73428e-15 0)
(-1.75332e-14 -5.64812e-15 0)
(-1.79481e-14 -5.8945e-15 0)
(-1.85528e-14 -5.50468e-15 0)
(-1.85182e-14 -4.25042e-15 0)
(-1.8013e-14 -3.42514e-15 0)
(-1.6615e-14 -3.66004e-15 0)
(-1.50374e-14 -3.752e-15 0)
(-1.41328e-14 -4.14461e-15 0)
(-1.44775e-14 -4.71292e-15 0)
(-1.50644e-14 -4.83512e-15 0)
(-1.44969e-14 -4.98205e-15 0)
(-1.33601e-14 -4.56877e-15 0)
(-1.24899e-14 -3.29715e-15 0)
(-1.23071e-14 -1.92008e-15 0)
(-1.20318e-14 -4.58341e-16 0)
(-1.18164e-14 4.58905e-16 0)
(-1.15465e-14 1.0905e-15 0)
(-1.032e-14 1.25775e-15 0)
(-8.76587e-15 9.55357e-16 0)
(-7.30791e-15 7.09542e-16 0)
(-5.9868e-15 4.35284e-16 0)
(-4.74542e-15 8.8347e-16 0)
(-3.05501e-15 8.82089e-16 0)
(-2.11368e-15 5.77945e-16 0)
(-2.49759e-15 7.00109e-16 0)
(-2.41195e-15 3.95214e-16 0)
(-2.11814e-15 5.44124e-16 0)
(-2.28869e-15 1.06487e-15 0)
(-2.23925e-15 1.42494e-15 0)
(-1.40046e-15 1.99768e-15 0)
(4.19398e-17 2.50374e-15 0)
(9.34779e-16 2.00693e-15 0)
(1.39912e-15 1.73049e-15 0)
(1.79745e-15 1.5167e-15 0)
(2.25999e-15 1.33514e-15 0)
(1.68404e-15 1.43209e-15 0)
(-3.24363e-16 1.71727e-15 0)
(-1.59724e-15 2.03311e-15 0)
(-1.99624e-15 2.00595e-15 0)
(-2.35959e-15 2.43787e-15 0)
(-2.09233e-15 2.65786e-15 0)
(-1.69963e-15 3.11428e-15 0)
(-2.39224e-15 3.23251e-15 0)
(-3.563e-15 2.3669e-15 0)
(-4.41886e-15 2.27824e-15 0)
(-5.01492e-15 3.08445e-15 0)
(-4.6005e-15 3.58628e-15 0)
(-3.66737e-15 3.23047e-15 0)
(-3.45569e-15 2.50755e-15 0)
(-3.16497e-15 1.7514e-15 0)
(-2.37707e-15 1.40635e-15 0)
(-1.21065e-15 1.34646e-15 0)
(2.74979e-16 1.37304e-15 0)
(8.81293e-16 8.51971e-16 0)
(5.37881e-16 5.9857e-17 0)
(-2.49529e-16 -4.50047e-16 0)
(-1.54259e-15 -6.78599e-16 0)
(-3.21199e-15 -6.14795e-16 0)
(-4.86868e-15 -9.66376e-16 0)
(-5.56576e-15 -1.61961e-15 0)
(-5.30893e-15 -2.12016e-15 0)
(-4.72672e-15 -2.32669e-15 0)
(-4.50751e-15 -2.50538e-15 0)
(-4.32473e-15 -1.74876e-15 0)
(-3.87449e-15 -1.14213e-15 0)
(-2.06791e-15 -3.75191e-16 0)
(-1.34858e-15 7.50297e-16 0)
(-3.88701e-15 1.53173e-15 0)
(-6.40283e-15 1.4841e-15 0)
(-8.83772e-15 1.06625e-15 0)
(-1.13491e-14 1.04685e-15 0)
(-1.33445e-14 8.97932e-16 0)
(-1.45461e-14 4.30612e-16 0)
(-1.65053e-14 -9.3055e-17 0)
(-1.90682e-14 -1.11666e-15 0)
(-2.17179e-14 -2.42412e-15 0)
(-2.41513e-14 -2.70053e-15 0)
(-2.67375e-14 -2.19048e-15 0)
(-2.97689e-14 -1.74893e-15 0)
(-3.18189e-14 -1.48568e-15 0)
(-3.28143e-14 -1.44486e-15 0)
(-3.35043e-14 -2.20933e-15 0)
(-3.42081e-14 -3.4898e-15 0)
(-3.59825e-14 -4.75971e-15 0)
(-3.7511e-14 -5.86466e-15 0)
(-3.68136e-14 -7.25852e-15 0)
(-3.48646e-14 -7.64524e-15 0)
(-3.39684e-14 -7.54038e-15 0)
(-3.36885e-14 -7.98605e-15 0)
(-3.27612e-14 -8.35626e-15 0)
(-3.22642e-14 -7.99304e-15 0)
(-3.19593e-14 -8.89532e-15 0)
(-3.0934e-14 -9.71288e-15 0)
(-2.94937e-14 -9.82471e-15 0)
(-2.83343e-14 -9.28207e-15 0)
(-2.75198e-14 -7.75939e-15 0)
(-2.64155e-14 -6.85554e-15 0)
(-2.54515e-14 -7.08808e-15 0)
(-2.45693e-14 -7.40502e-15 0)
(-2.40576e-14 -7.75217e-15 0)
(-2.42586e-14 -8.14672e-15 0)
(-2.45186e-14 -8.40424e-15 0)
(-2.45766e-14 -7.84157e-15 0)
(-2.43981e-14 -7.1689e-15 0)
(-2.39085e-14 -6.52599e-15 0)
(-2.2352e-14 -5.47705e-15 0)
(-2.0743e-14 -5.38898e-15 0)
(-1.98325e-14 -5.6991e-15 0)
(-2.01083e-14 -6.00874e-15 0)
(-2.06167e-14 -6.34822e-15 0)
(-1.96648e-14 -6.29291e-15 0)
(-1.77392e-14 -5.94576e-15 0)
(-1.61857e-14 -4.94267e-15 0)
(-1.58102e-14 -3.03685e-15 0)
(-1.56862e-14 -1.11657e-15 0)
(-1.54234e-14 3.59993e-16 0)
(-1.50598e-14 1.60059e-15 0)
(-1.38875e-14 1.95074e-15 0)
(-1.21633e-14 1.64778e-15 0)
(-1.03708e-14 1.00664e-15 0)
(-8.3471e-15 7.07464e-16 0)
(-6.43464e-15 9.0476e-16 0)
(-4.63833e-15 1.13682e-15 0)
(-3.58993e-15 7.24708e-16 0)
(-3.69513e-15 3.50617e-16 0)
(-3.35857e-15 5.95816e-16 0)
(-2.61569e-15 1.01322e-15 0)
(-2.65244e-15 1.92733e-15 0)
(-2.76424e-15 2.48885e-15 0)
(-1.70814e-15 2.96954e-15 0)
(-2.81323e-16 3.27305e-15 0)
(6.39505e-16 2.45294e-15 0)
(1.42488e-15 2.10943e-15 0)
(2.06057e-15 1.96388e-15 0)
(2.61242e-15 1.92958e-15 0)
(1.95905e-15 1.74528e-15 0)
(-2.38517e-16 1.97398e-15 0)
(-1.85401e-15 2.58504e-15 0)
(-2.48502e-15 2.9904e-15 0)
(-2.89668e-15 3.30507e-15 0)
(-2.55485e-15 3.9005e-15 0)
(-2.21369e-15 4.49894e-15 0)
(-3.59062e-15 4.61174e-15 0)
(-5.1351e-15 3.98566e-15 0)
(-5.6239e-15 3.67117e-15 0)
(-5.90051e-15 4.06416e-15 0)
(-5.61576e-15 4.72422e-15 0)
(-5.22074e-15 4.66631e-15 0)
(-5.09165e-15 3.9747e-15 0)
(-4.60483e-15 3.3157e-15 0)
(-3.44039e-15 2.24259e-15 0)
(-1.73732e-15 1.73615e-15 0)
(-2.06538e-17 1.7875e-15 0)
(4.31149e-16 1.10415e-15 0)
(-7.87939e-17 1.79445e-16 0)
(-8.86553e-16 -3.59361e-16 0)
(-2.39258e-15 -9.69034e-16 0)
(-4.40496e-15 -1.36518e-15 0)
(-6.45024e-15 -1.68638e-15 0)
(-7.31365e-15 -2.14028e-15 0)
(-7.06372e-15 -2.38085e-15 0)
(-6.60345e-15 -2.67665e-15 0)
(-6.07119e-15 -2.90347e-15 0)
(-5.46833e-15 -2.56977e-15 0)
(-4.56496e-15 -2.18249e-15 0)
(-2.20909e-15 -6.20948e-16 0)
(-1.65063e-15 8.12104e-16 0)
(-5.10772e-15 1.94546e-15 0)
(-8.48233e-15 2.09417e-15 0)
(-1.12559e-14 1.87834e-15 0)
(-1.41373e-14 1.73233e-15 0)
(-1.6878e-14 1.69272e-15 0)
(-1.87639e-14 8.74191e-16 0)
(-2.13382e-14 -7.56883e-17 0)
(-2.46069e-14 -1.50475e-15 0)
(-2.75869e-14 -2.8203e-15 0)
(-2.99937e-14 -2.84175e-15 0)
(-3.26252e-14 -2.91074e-15 0)
(-3.62378e-14 -2.09459e-15 0)
(-3.92679e-14 -1.8081e-15 0)
(-4.09172e-14 -2.29542e-15 0)
(-4.19892e-14 -2.68447e-15 0)
(-4.31697e-14 -3.72836e-15 0)
(-4.51554e-14 -5.46464e-15 0)
(-4.68795e-14 -6.65169e-15 0)
(-4.60104e-14 -7.92432e-15 0)
(-4.36003e-14 -8.74838e-15 0)
(-4.26392e-14 -9.95271e-15 0)
(-4.19351e-14 -1.03286e-14 0)
(-4.03655e-14 -1.01498e-14 0)
(-4.00187e-14 -9.99904e-15 0)
(-4.02101e-14 -1.05162e-14 0)
(-3.88717e-14 -1.13601e-14 0)
(-3.67869e-14 -1.14691e-14 0)
(-3.50313e-14 -1.10042e-14 0)
(-3.38098e-14 -9.89855e-15 0)
(-3.28514e-14 -9.0636e-15 0)
(-3.19761e-14 -9.10499e-15 0)
(-3.11242e-14 -9.20144e-15 0)
(-3.07551e-14 -9.55726e-15 0)
(-3.07568e-14 -1.02127e-14 0)
(-3.05452e-14 -1.06954e-14 0)
(-3.05102e-14 -1.02733e-14 0)
(-3.02016e-14 -9.62311e-15 0)
(-2.88823e-14 -8.71648e-15 0)
(-2.72452e-14 -7.73125e-15 0)
(-2.61129e-14 -7.61445e-15 0)
(-2.51132e-14 -7.57275e-15 0)
(-2.53157e-14 -7.6509e-15 0)
(-2.555e-14 -7.39584e-15 0)
(-2.42856e-14 -6.84464e-15 0)
(-2.2185e-14 -6.42148e-15 0)
(-1.98926e-14 -5.82605e-15 0)
(-1.87353e-14 -4.37414e-15 0)
(-1.83734e-14 -2.17471e-15 0)
(-1.81512e-14 -6.52717e-17 0)
(-1.81055e-14 1.71003e-15 0)
(-1.72797e-14 2.39565e-15 0)
(-1.56448e-14 1.96384e-15 0)
(-1.3367e-14 1.15222e-15 0)
(-1.06494e-14 1.13693e-15 0)
(-8.24272e-15 1.06672e-15 0)
(-6.27712e-15 1.09345e-15 0)
(-5.27563e-15 6.21319e-16 0)
(-4.86855e-15 3.78679e-16 0)
(-3.98292e-15 9.8092e-16 0)
(-3.03249e-15 1.8922e-15 0)
(-2.94209e-15 2.8888e-15 0)
(-2.97951e-15 3.43443e-15 0)
(-1.90828e-15 3.89265e-15 0)
(-8.63262e-16 3.5754e-15 0)
(3.41094e-17 2.61663e-15 0)
(1.3052e-15 2.34944e-15 0)
(2.09486e-15 2.2275e-15 0)
(2.50112e-15 2.01764e-15 0)
(1.82316e-15 1.92681e-15 0)
(-8.40616e-17 2.56587e-15 0)
(-1.68787e-15 3.56258e-15 0)
(-2.64267e-15 4.12289e-15 0)
(-3.07894e-15 4.64317e-15 0)
(-2.71715e-15 5.44662e-15 0)
(-2.78066e-15 5.78997e-15 0)
(-4.57003e-15 5.77679e-15 0)
(-6.39029e-15 5.74163e-15 0)
(-6.84807e-15 5.58913e-15 0)
(-6.84764e-15 5.63635e-15 0)
(-6.58828e-15 5.83713e-15 0)
(-6.37432e-15 5.65497e-15 0)
(-6.33976e-15 5.2561e-15 0)
(-6.054e-15 4.70322e-15 0)
(-4.81618e-15 3.93194e-15 0)
(-2.38788e-15 3.01345e-15 0)
(-6.1034e-16 2.61943e-15 0)
(-5.15723e-16 1.45477e-15 0)
(-8.76305e-16 4.37492e-16 0)
(-1.83785e-15 -5.01145e-16 0)
(-3.5755e-15 -1.58796e-15 0)
(-5.59324e-15 -2.15335e-15 0)
(-7.76368e-15 -2.41052e-15 0)
(-8.73908e-15 -2.50788e-15 0)
(-8.5928e-15 -2.7398e-15 0)
(-8.13119e-15 -3.05182e-15 0)
(-7.49553e-15 -3.1991e-15 0)
(-6.76133e-15 -3.29004e-15 0)
(-5.09896e-15 -2.67152e-15 0)
(-2.20293e-15 -8.77467e-16 0)
(-1.87207e-15 7.58241e-16 0)
(-5.96306e-15 1.75476e-15 0)
(-1.01616e-14 2.413e-15 0)
(-1.3628e-14 2.47607e-15 0)
(-1.68767e-14 2.39517e-15 0)
(-2.0233e-14 2.46205e-15 0)
(-2.29734e-14 1.58372e-15 0)
(-2.62944e-14 4.70389e-17 0)
(-3.01093e-14 -1.45178e-15 0)
(-3.27926e-14 -2.59359e-15 0)
(-3.54337e-14 -2.71213e-15 0)
(-3.85029e-14 -3.07912e-15 0)
(-4.22619e-14 -2.66858e-15 0)
(-4.6072e-14 -2.00215e-15 0)
(-4.8137e-14 -2.4021e-15 0)
(-4.96331e-14 -3.22278e-15 0)
(-5.16629e-14 -4.13271e-15 0)
(-5.38726e-14 -5.7378e-15 0)
(-5.53312e-14 -7.0788e-15 0)
(-5.44818e-14 -8.07512e-15 0)
(-5.24086e-14 -9.41432e-15 0)
(-5.09774e-14 -1.0435e-14 0)
(-4.94248e-14 -1.03292e-14 0)
(-4.78483e-14 -1.08788e-14 0)
(-4.75971e-14 -1.1848e-14 0)
(-4.775e-14 -1.25669e-14 0)
(-4.61624e-14 -1.31427e-14 0)
(-4.35146e-14 -1.29631e-14 0)
(-4.11796e-14 -1.22669e-14 0)
(-3.97051e-14 -1.14214e-14 0)
(-3.89532e-14 -1.09211e-14 0)
(-3.81986e-14 -1.11233e-14 0)
(-3.72094e-14 -1.11574e-14 0)
(-3.69179e-14 -1.15825e-14 0)
(-3.71239e-14 -1.19993e-14 0)
(-3.65562e-14 -1.28678e-14 0)
(-3.57086e-14 -1.24814e-14 0)
(-3.49504e-14 -1.13129e-14 0)
(-3.38135e-14 -1.03105e-14 0)
(-3.23603e-14 -1.00518e-14 0)
(-3.1007e-14 -9.83993e-15 0)
(-2.99021e-14 -9.65042e-15 0)
(-2.9804e-14 -9.61935e-15 0)
(-2.96828e-14 -8.44687e-15 0)
(-2.84018e-14 -7.37786e-15 0)
(-2.61927e-14 -6.3057e-15 0)
(-2.36043e-14 -5.55864e-15 0)
(-2.1733e-14 -4.95947e-15 0)
(-2.07364e-14 -3.20873e-15 0)
(-2.0314e-14 -9.5412e-16 0)
(-2.04431e-14 8.89944e-16 0)
(-2.02527e-14 2.12715e-15 0)
(-1.89328e-14 2.10233e-15 0)
(-1.61238e-14 1.57552e-15 0)
(-1.2862e-14 1.52416e-15 0)
(-1.02503e-14 1.53069e-15 0)
(-8.1435e-15 1.22632e-15 0)
(-6.82087e-15 6.82985e-16 0)
(-5.79543e-15 8.3012e-16 0)
(-4.35107e-15 1.408e-15 0)
(-3.1035e-15 2.53256e-15 0)
(-3.19916e-15 3.84922e-15 0)
(-3.44784e-15 4.25528e-15 0)
(-2.67186e-15 4.45672e-15 0)
(-1.87254e-15 3.66883e-15 0)
(-5.46662e-16 2.81865e-15 0)
(1.11071e-15 2.47727e-15 0)
(1.91795e-15 2.18819e-15 0)
(2.46861e-15 2.01898e-15 0)
(2.2413e-15 2.53117e-15 0)
(5.24219e-16 3.85788e-15 0)
(-1.47909e-15 4.99122e-15 0)
(-2.7313e-15 5.69399e-15 0)
(-3.16056e-15 6.35055e-15 0)
(-3.08739e-15 7.14374e-15 0)
(-3.4756e-15 7.1218e-15 0)
(-5.30337e-15 7.02878e-15 0)
(-7.17694e-15 7.07356e-15 0)
(-7.8135e-15 7.18361e-15 0)
(-7.90225e-15 7.16757e-15 0)
(-7.68756e-15 7.29023e-15 0)
(-7.54446e-15 6.87789e-15 0)
(-7.47014e-15 6.64952e-15 0)
(-7.01665e-15 6.28578e-15 0)
(-5.8445e-15 5.63668e-15 0)
(-3.55558e-15 4.36648e-15 0)
(-1.75097e-15 3.28823e-15 0)
(-1.63817e-15 2.04608e-15 0)
(-2.07678e-15 7.98163e-16 0)
(-3.22327e-15 -7.85264e-16 0)
(-4.85563e-15 -2.15081e-15 0)
(-6.68358e-15 -2.71983e-15 0)
(-8.76458e-15 -2.84865e-15 0)
(-9.90679e-15 -2.77549e-15 0)
(-1.00285e-14 -3.13294e-15 0)
(-9.64083e-15 -3.52035e-15 0)
(-9.00381e-15 -4.00724e-15 0)
(-7.79938e-15 -3.73054e-15 0)
(-5.3775e-15 -2.59976e-15 0)
(-2.06971e-15 -9.9724e-16 0)
(-2.28206e-15 8.85089e-16 0)
(-6.89107e-15 1.5595e-15 0)
(-1.15591e-14 2.04245e-15 0)
(-1.55894e-14 2.41158e-15 0)
(-1.92423e-14 2.85491e-15 0)
(-2.33684e-14 2.87969e-15 0)
(-2.72516e-14 2.22483e-15 0)
(-3.11351e-14 5.96211e-16 0)
(-3.50135e-14 -8.06705e-16 0)
(-3.79268e-14 -1.66972e-15 0)
(-4.07346e-14 -2.49367e-15 0)
(-4.39173e-14 -2.80423e-15 0)
(-4.76214e-14 -2.97867e-15 0)
(-5.19597e-14 -2.4718e-15 0)
(-5.52536e-14 -2.42146e-15 0)
(-5.71178e-14 -3.2165e-15 0)
(-5.92141e-14 -4.25892e-15 0)
(-6.18064e-14 -5.30809e-15 0)
(-6.33e-14 -6.77298e-15 0)
(-6.25296e-14 -7.64021e-15 0)
(-6.01051e-14 -8.80634e-15 0)
(-5.79468e-14 -9.69723e-15 0)
(-5.6705e-14 -1.02654e-14 0)
(-5.57097e-14 -1.17568e-14 0)
(-5.52574e-14 -1.32101e-14 0)
(-5.49197e-14 -1.4126e-14 0)
(-5.26793e-14 -1.4157e-14 0)
(-4.94139e-14 -1.33995e-14 0)
(-4.68924e-14 -1.26888e-14 0)
(-4.54793e-14 -1.23026e-14 0)
(-4.49065e-14 -1.2438e-14 0)
(-4.40536e-14 -1.2912e-14 0)
(-4.30738e-14 -1.32057e-14 0)
(-4.27872e-14 -1.34096e-14 0)
(-4.29856e-14 -1.35674e-14 0)
(-4.20843e-14 -1.42565e-14 0)
(-4.04235e-14 -1.41737e-14 0)
(-3.94445e-14 -1.32185e-14 0)
(-3.8475e-14 -1.2567e-14 0)
(-3.70489e-14 -1.18068e-14 0)
(-3.56121e-14 -1.14399e-14 0)
(-3.44467e-14 -1.12655e-14 0)
(-3.3694e-14 -1.11097e-14 0)
(-3.2964e-14 -9.81327e-15 0)
(-3.15578e-14 -7.95836e-15 0)
(-2.94491e-14 -6.12855e-15 0)
(-2.72296e-14 -5.57026e-15 0)
(-2.50203e-14 -5.59738e-15 0)
(-2.30703e-14 -4.08855e-15 0)
(-2.23433e-14 -1.55435e-15 0)
(-2.25434e-14 2.26502e-17 0)
(-2.25273e-14 1.20944e-15 0)
(-2.15833e-14 1.84439e-15 0)
(-1.87048e-14 2.11882e-15 0)
(-1.49852e-14 2.09865e-15 0)
(-1.21821e-14 1.84148e-15 0)
(-1.00936e-14 1.59688e-15 0)
(-8.32254e-15 1.35807e-15 0)
(-6.74458e-15 1.59987e-15 0)
(-4.85949e-15 2.05193e-15 0)
(-3.12273e-15 2.87191e-15 0)
(-3.32479e-15 3.93101e-15 0)
(-3.92113e-15 4.66199e-15 0)
(-3.42218e-15 4.9433e-15 0)
(-2.82329e-15 4.45354e-15 0)
(-1.30605e-15 3.76682e-15 0)
(5.88748e-16 3.11048e-15 0)
(1.61393e-15 2.88807e-15 0)
(2.60018e-15 3.16964e-15 0)
(2.89258e-15 3.87592e-15 0)
(1.22771e-15 4.81059e-15 0)
(-1.07157e-15 6.09956e-15 0)
(-2.58922e-15 7.02883e-15 0)
(-3.13008e-15 7.89268e-15 0)
(-3.40418e-15 8.56508e-15 0)
(-4.24696e-15 8.64413e-15 0)
(-6.13027e-15 8.70428e-15 0)
(-7.95841e-15 9.13635e-15 0)
(-8.59016e-15 9.33523e-15 0)
(-8.62263e-15 9.03544e-15 0)
(-8.59064e-15 8.93533e-15 0)
(-8.49823e-15 8.53583e-15 0)
(-8.2538e-15 7.92067e-15 0)
(-8.07921e-15 7.2108e-15 0)
(-7.29029e-15 6.5802e-15 0)
(-4.9571e-15 5.44549e-15 0)
(-2.9835e-15 3.90839e-15 0)
(-2.94619e-15 2.66813e-15 0)
(-3.63554e-15 1.05824e-15 0)
(-4.89606e-15 -1.01026e-15 0)
(-6.18763e-15 -2.35349e-15 0)
(-7.62492e-15 -2.92018e-15 0)
(-9.63146e-15 -3.16845e-15 0)
(-1.10327e-14 -3.19807e-15 0)
(-1.14232e-14 -3.4905e-15 0)
(-1.11948e-14 -3.94877e-15 0)
(-1.01504e-14 -4.25132e-15 0)
(-8.24846e-15 -3.82006e-15 0)
(-5.59601e-15 -2.45465e-15 0)
(-2.08841e-15 -8.92595e-16 0)
(-2.73542e-15 8.63997e-16 0)
(-8.04686e-15 1.54809e-15 0)
(-1.29826e-14 1.74406e-15 0)
(-1.71141e-14 2.30042e-15 0)
(-2.13173e-14 3.08827e-15 0)
(-2.62159e-14 2.89394e-15 0)
(-3.09308e-14 2.45084e-15 0)
(-3.55878e-14 1.62234e-15 0)
(-3.96563e-14 4.43826e-16 0)
(-4.27556e-14 -6.35272e-16 0)
(-4.58361e-14 -1.92293e-15 0)
(-4.92412e-14 -2.59059e-15 0)
(-5.31398e-14 -2.99821e-15 0)
(-5.74194e-14 -2.99565e-15 0)
(-6.09564e-14 -2.52193e-15 0)
(-6.36633e-14 -2.51912e-15 0)
(-6.6207e-14 -3.61823e-15 0)
(-6.89892e-14 -4.63048e-15 0)
(-7.05014e-14 -5.8776e-15 0)
(-6.95256e-14 -6.73877e-15 0)
(-6.74633e-14 -7.77574e-15 0)
(-6.55033e-14 -9.30755e-15 0)
(-6.42484e-14 -1.07295e-14 0)
(-6.31464e-14 -1.26179e-14 0)
(-6.22756e-14 -1.42559e-14 0)
(-6.11724e-14 -1.48993e-14 0)
(-5.81352e-14 -1.41419e-14 0)
(-5.47112e-14 -1.31229e-14 0)
(-5.23943e-14 -1.25865e-14 0)
(-5.12529e-14 -1.26598e-14 0)
(-5.08209e-14 -1.34872e-14 0)
(-4.98821e-14 -1.441e-14 0)
(-4.84413e-14 -1.51882e-14 0)
(-4.78555e-14 -1.51954e-14 0)
(-4.82693e-14 -1.49276e-14 0)
(-4.73937e-14 -1.48807e-14 0)
(-4.51861e-14 -1.51367e-14 0)
(-4.38052e-14 -1.49911e-14 0)
(-4.25468e-14 -1.40741e-14 0)
(-4.10041e-14 -1.3153e-14 0)
(-3.97865e-14 -1.28752e-14 0)
(-3.85719e-14 -1.26407e-14 0)
(-3.74199e-14 -1.20213e-14 0)
(-3.58387e-14 -1.09078e-14 0)
(-3.3948e-14 -8.64018e-15 0)
(-3.24536e-14 -6.70768e-15 0)
(-3.09645e-14 -5.75349e-15 0)
(-2.80924e-14 -5.38598e-15 0)
(-2.48643e-14 -4.13359e-15 0)
(-2.39914e-14 -2.41163e-15 0)
(-2.46588e-14 -1.24141e-15 0)
(-2.46621e-14 -1.37431e-16 0)
(-2.3482e-14 1.25664e-15 0)
(-2.06115e-14 2.60404e-15 0)
(-1.72046e-14 2.969e-15 0)
(-1.42464e-14 2.31014e-15 0)
(-1.16591e-14 1.8398e-15 0)
(-9.5751e-15 1.96194e-15 0)
(-7.7032e-15 2.26404e-15 0)
(-5.54665e-15 2.94097e-15 0)
(-3.5977e-15 3.57577e-15 0)
(-3.51458e-15 4.37298e-15 0)
(-4.08241e-15 5.31624e-15 0)
(-3.93473e-15 5.47843e-15 0)
(-3.57648e-15 4.90301e-15 0)
(-2.134e-15 4.53168e-15 0)
(4.21402e-17 4.28478e-15 0)
(1.63611e-15 4.29387e-15 0)
(2.87654e-15 4.89835e-15 0)
(3.04919e-15 5.6806e-15 0)
(1.61717e-15 6.32436e-15 0)
(-5.58846e-16 7.80362e-15 0)
(-2.28639e-15 9.01128e-15 0)
(-3.04649e-15 9.89236e-15 0)
(-3.67236e-15 1.01161e-14 0)
(-4.62381e-15 1.00731e-14 0)
(-6.30613e-15 1.04561e-14 0)
(-8.18822e-15 1.15234e-14 0)
(-9.44503e-15 1.18481e-14 0)
(-9.77641e-15 1.11928e-14 0)
(-9.58738e-15 1.08717e-14 0)
(-9.71995e-15 1.02681e-14 0)
(-9.73611e-15 9.11328e-15 0)
(-9.13561e-15 7.95155e-15 0)
(-8.10817e-15 7.22864e-15 0)
(-6.32749e-15 6.28343e-15 0)
(-4.48454e-15 4.44587e-15 0)
(-4.38948e-15 3.04207e-15 0)
(-5.50359e-15 1.16721e-15 0)
(-6.61699e-15 -9.08947e-16 0)
(-7.37537e-15 -2.15692e-15 0)
(-8.65732e-15 -3.20922e-15 0)
(-1.05963e-14 -3.67252e-15 0)
(-1.1994e-14 -3.70016e-15 0)
(-1.26137e-14 -3.6908e-15 0)
(-1.23738e-14 -4.03778e-15 0)
(-1.11837e-14 -4.21504e-15 0)
(-8.82336e-15 -3.99197e-15 0)
(-5.63118e-15 -2.50325e-15 0)
(-2.08788e-15 -1.07205e-15 0)
(-3.0476e-15 5.48907e-16 0)
(-8.98443e-15 1.25713e-15 0)
(-1.42271e-14 1.89498e-15 0)
(-1.84126e-14 2.77211e-15 0)
(-2.32625e-14 3.05294e-15 0)
(-2.89696e-14 2.78477e-15 0)
(-3.40166e-14 2.37996e-15 0)
(-3.91582e-14 2.35975e-15 0)
(-4.39566e-14 1.81892e-15 0)
(-4.76969e-14 -1.57476e-16 0)
(-5.09425e-14 -1.63478e-15 0)
(-5.41863e-14 -2.26024e-15 0)
(-5.80456e-14 -2.35903e-15 0)
(-6.23008e-14 -2.51444e-15 0)
(-6.6066e-14 -2.43761e-15 0)
(-6.94694e-14 -2.35944e-15 0)
(-7.2619e-14 -3.03047e-15 0)
(-7.55593e-14 -3.57486e-15 0)
(-7.71099e-14 -4.32273e-15 0)
(-7.62745e-14 -5.96737e-15 0)
(-7.43531e-14 -7.63897e-15 0)
(-7.24196e-14 -9.52576e-15 0)
(-7.13313e-14 -1.13135e-14 0)
(-7.03518e-14 -1.28322e-14 0)
(-6.88175e-14 -1.42535e-14 0)
(-6.65354e-14 -1.44702e-14 0)
(-6.28768e-14 -1.38149e-14 0)
(-5.95643e-14 -1.31009e-14 0)
(-5.76181e-14 -1.27183e-14 0)
(-5.69595e-14 -1.29373e-14 0)
(-5.67518e-14 -1.3811e-14 0)
(-5.56127e-14 -1.5226e-14 0)
(-5.37396e-14 -1.64517e-14 0)
(-5.25009e-14 -1.70103e-14 0)
(-5.2506e-14 -1.67703e-14 0)
(-5.18474e-14 -1.59352e-14 0)
(-4.99586e-14 -1.57362e-14 0)
(-4.79289e-14 -1.60101e-14 0)
(-4.61642e-14 -1.52231e-14 0)
(-4.49605e-14 -1.45613e-14 0)
(-4.37795e-14 -1.41783e-14 0)
(-4.21286e-14 -1.36553e-14 0)
(-4.05138e-14 -1.23582e-14 0)
(-3.83655e-14 -1.08466e-14 0)
(-3.61451e-14 -9.03983e-15 0)
(-3.47734e-14 -7.64967e-15 0)
(-3.34517e-14 -5.97571e-15 0)
(-3.07389e-14 -4.84492e-15 0)
(-2.74706e-14 -4.05612e-15 0)
(-2.64397e-14 -3.51591e-15 0)
(-2.66886e-14 -2.32008e-15 0)
(-2.60663e-14 -7.83801e-16 0)
(-2.44768e-14 1.1583e-15 0)
(-2.18784e-14 2.85909e-15 0)
(-1.91627e-14 3.27112e-15 0)
(-1.65222e-14 2.84497e-15 0)
(-1.34425e-14 2.11457e-15 0)
(-1.07325e-14 2.47891e-15 0)
(-8.4236e-15 3.09016e-15 0)
(-6.011e-15 4.0071e-15 0)
(-3.93032e-15 4.81532e-15 0)
(-3.6635e-15 5.37897e-15 0)
(-4.48668e-15 6.31976e-15 0)
(-4.8632e-15 6.01926e-15 0)
(-4.42445e-15 5.34458e-15 0)
(-2.46276e-15 5.17562e-15 0)
(-1.34652e-16 5.6473e-15 0)
(1.60713e-15 6.12207e-15 0)
(3.18327e-15 6.70551e-15 0)
(3.46063e-15 7.9142e-15 0)
(2.2154e-15 8.71835e-15 0)
(2.13035e-16 1.00836e-14 0)
(-1.86564e-15 1.14801e-14 0)
(-3.24243e-15 1.20281e-14 0)
(-4.29702e-15 1.19128e-14 0)
(-5.11576e-15 1.15053e-14 0)
(-6.27047e-15 1.19444e-14 0)
(-8.21867e-15 1.32998e-14 0)
(-1.01688e-14 1.36922e-14 0)
(-1.06855e-14 1.33132e-14 0)
(-1.05761e-14 1.29146e-14 0)
(-1.1016e-14 1.17407e-14 0)
(-1.1073e-14 1.05981e-14 0)
(-1.04562e-14 9.49736e-15 0)
(-9.38025e-15 8.36959e-15 0)
(-7.75264e-15 6.7362e-15 0)
(-6.03932e-15 4.45065e-15 0)
(-6.01339e-15 2.57853e-15 0)
(-7.25544e-15 1.24086e-15 0)
(-8.18424e-15 -3.43671e-16 0)
(-8.90457e-15 -2.01256e-15 0)
(-9.97316e-15 -3.55248e-15 0)
(-1.14365e-14 -4.13527e-15 0)
(-1.26843e-14 -4.20608e-15 0)
(-1.34781e-14 -4.13175e-15 0)
(-1.35278e-14 -4.33746e-15 0)
(-1.2182e-14 -4.44927e-15 0)
(-9.16291e-15 -3.93489e-15 0)
(-5.74814e-15 -2.58386e-15 0)
(-1.94714e-15 -1.16727e-15 0)
(-3.2815e-15 2.64783e-16 0)
(-9.45218e-15 9.72885e-16 0)
(-1.48042e-14 1.91081e-15 0)
(-1.97726e-14 2.9331e-15 0)
(-2.54198e-14 2.95931e-15 0)
(-3.14444e-14 2.60304e-15 0)
(-3.6614e-14 2.87612e-15 0)
(-4.20207e-14 2.91852e-15 0)
(-4.81867e-14 2.51416e-15 0)
(-5.26355e-14 5.66621e-16 0)
(-5.53716e-14 -1.04358e-15 0)
(-5.83812e-14 -1.56725e-15 0)
(-6.25019e-14 -1.88017e-15 0)
(-6.71532e-14 -2.14311e-15 0)
(-7.09441e-14 -2.21707e-15 0)
(-7.45521e-14 -2.18848e-15 0)
(-7.7836e-14 -2.29653e-15 0)
(-8.08929e-14 -2.44001e-15 0)
(-8.33672e-14 -3.05831e-15 0)
(-8.31566e-14 -5.01723e-15 0)
(-8.12928e-14 -7.29233e-15 0)
(-7.93813e-14 -9.68998e-15 0)
(-7.77734e-14 -1.17339e-14 0)
(-7.62861e-14 -1.26938e-14 0)
(-7.43178e-14 -1.37412e-14 0)
(-7.15297e-14 -1.43434e-14 0)
(-6.76358e-14 -1.38339e-14 0)
(-6.42267e-14 -1.33805e-14 0)
(-6.23962e-14 -1.3106e-14 0)
(-6.19661e-14 -1.3119e-14 0)
(-6.21956e-14 -1.37091e-14 0)
(-6.13051e-14 -1.53551e-14 0)
(-5.90437e-14 -1.7052e-14 0)
(-5.7213e-14 -1.80609e-14 0)
(-5.64538e-14 -1.82391e-14 0)
(-5.54671e-14 -1.75086e-14 0)
(-5.39257e-14 -1.68216e-14 0)
(-5.19431e-14 -1.65125e-14 0)
(-4.9804e-14 -1.60008e-14 0)
(-4.83503e-14 -1.5703e-14 0)
(-4.70229e-14 -1.50551e-14 0)
(-4.49303e-14 -1.39745e-14 0)
(-4.2854e-14 -1.23288e-14 0)
(-4.07037e-14 -1.04836e-14 0)
(-3.87019e-14 -9.10959e-15 0)
(-3.70904e-14 -8.15133e-15 0)
(-3.55561e-14 -6.69765e-15 0)
(-3.30719e-14 -5.35105e-15 0)
(-2.99835e-14 -4.60288e-15 0)
(-2.84827e-14 -4.21968e-15 0)
(-2.8056e-14 -2.48204e-15 0)
(-2.71205e-14 -5.56552e-16 0)
(-2.54096e-14 1.28297e-15 0)
(-2.32459e-14 2.68693e-15 0)
(-2.09881e-14 3.16363e-15 0)
(-1.84704e-14 3.31814e-15 0)
(-1.49288e-14 3.08705e-15 0)
(-1.15191e-14 3.53353e-15 0)
(-8.93761e-15 4.37067e-15 0)
(-6.3644e-15 5.15476e-15 0)
(-4.42687e-15 5.99951e-15 0)
(-4.01253e-15 6.21134e-15 0)
(-4.99004e-15 6.63927e-15 0)
(-5.81159e-15 6.70222e-15 0)
(-5.15212e-15 6.71259e-15 0)
(-2.6892e-15 6.7977e-15 0)
(9.75167e-17 7.36824e-15 0)
(1.86108e-15 8.43942e-15 0)
(3.6749e-15 9.45135e-15 0)
(3.9934e-15 1.04084e-14 0)
(2.62112e-15 1.09286e-14 0)
(8.02371e-16 1.22485e-14 0)
(-1.61228e-15 1.34055e-14 0)
(-3.56828e-15 1.37756e-14 0)
(-4.97505e-15 1.34069e-14 0)
(-5.59049e-15 1.30379e-14 0)
(-6.04075e-15 1.36879e-14 0)
(-8.00926e-15 1.48009e-14 0)
(-1.05719e-14 1.56268e-14 0)
(-1.14844e-14 1.57446e-14 0)
(-1.18446e-14 1.48089e-14 0)
(-1.24587e-14 1.33326e-14 0)
(-1.23342e-14 1.19701e-14 0)
(-1.1625e-14 1.05608e-14 0)
(-1.08921e-14 8.97666e-15 0)
(-9.88047e-15 6.80547e-15 0)
(-8.16229e-15 4.5367e-15 0)
(-7.36664e-15 2.50648e-15 0)
(-8.32133e-15 1.31054e-15 0)
(-9.78373e-15 4.37859e-17 0)
(-1.06561e-14 -1.72548e-15 0)
(-1.13103e-14 -3.32662e-15 0)
(-1.23462e-14 -4.31199e-15 0)
(-1.3431e-14 -4.66034e-15 0)
(-1.43053e-14 -4.67522e-15 0)
(-1.43412e-14 -4.7558e-15 0)