/*--------------------------------*- C++ -*----------------------------------*\
| =========                 |                                                 |
| \\      /  F ield         | OpenFOAM: The Open Source CFD Toolbox           |
|  \\    /   O peration     | Version:  v2012                                 |
|   \\  /    A nd           | Website:  www.openfoam.com                      |
|    \\/     M anipulation  |                                                 |
\*---------------------------------------------------------------------------*/
FoamFile
{
    version     2.0;
    format      ascii;
    class       volVectorField;
    location    "8.5";
    object      U;
}
// * * * * * * * * * * * * * * * * * * * * * * * * * * * * * * * * * * * * * //

dimensions      [0 1 -1 0 0 0 0];


internalField   nonuniform List<vector> 
65536
(
(0.000758488 -0.000758489 0)
(0.00227547 -0.000758491 0)
(0.00379245 -0.000758495 0)
(0.00530944 -0.0007585 0)
(0.00682645 -0.000758505 0)
(0.00834347 -0.000758511 0)
(0.00986049 -0.000758516 0)
(0.0113775 -0.00075852 0)
(0.0128946 -0.000758521 0)
(0.0144116 -0.000758517 0)
(0.0159287 -0.000758509 0)
(0.0174457 -0.000758492 0)
(0.0189626 -0.000758467 0)
(0.0204795 -0.000758431 0)
(0.0219964 -0.000758382 0)
(0.0235131 -0.000758317 0)
(0.0250297 -0.000758234 0)
(0.026546 -0.000758131 0)
(0.0280622 -0.000758005 0)
(0.0295781 -0.000757852 0)
(0.0310936 -0.00075767 0)
(0.0326088 -0.000757455 0)
(0.0341235 -0.000757205 0)
(0.0356377 -0.000756915 0)
(0.0371512 -0.000756581 0)
(0.038664 -0.000756201 0)
(0.0401761 -0.000755769 0)
(0.0416872 -0.000755282 0)
(0.0431972 -0.000754736 0)
(0.0447062 -0.000754125 0)
(0.0462138 -0.000753447 0)
(0.04772 -0.000752695 0)
(0.0492247 -0.000751865 0)
(0.0507276 -0.000750952 0)
(0.0522286 -0.000749951 0)
(0.0537275 -0.000748857 0)
(0.0552241 -0.000747665 0)
(0.0567182 -0.00074637 0)
(0.0582097 -0.000744965 0)
(0.0596982 -0.000743446 0)
(0.0611836 -0.000741806 0)
(0.0626656 -0.000740041 0)
(0.0641439 -0.000738145 0)
(0.0656183 -0.000736111 0)
(0.0670885 -0.000733934 0)
(0.0685542 -0.000731609 0)
(0.0700151 -0.000729129 0)
(0.0714708 -0.000726489 0)
(0.0729212 -0.000723683 0)
(0.0743657 -0.000720705 0)
(0.0758042 -0.00071755 0)
(0.0772361 -0.000714211 0)
(0.0786612 -0.000710683 0)
(0.080079 -0.000706961 0)
(0.0814892 -0.00070304 0)
(0.0828914 -0.000698913 0)
(0.0842851 -0.000694576 0)
(0.0856699 -0.000690024 0)
(0.0870454 -0.000685251 0)
(0.0884112 -0.000680254 0)
(0.0897667 -0.000675027 0)
(0.0911115 -0.000669566 0)
(0.0924452 -0.000663868 0)
(0.0937672 -0.000657928 0)
(0.0950771 -0.000651742 0)
(0.0963744 -0.000645308 0)
(0.0976586 -0.000638622 0)
(0.0989292 -0.000631681 0)
(0.100186 -0.000624484 0)
(0.101427 -0.000617028 0)
(0.102654 -0.000609311 0)
(0.103865 -0.000601332 0)
(0.10506 -0.00059309 0)
(0.106237 -0.000584585 0)
(0.107398 -0.000575815 0)
(0.108541 -0.000566781 0)
(0.109666 -0.000557485 0)
(0.110771 -0.000547926 0)
(0.111857 -0.000538106 0)
(0.112924 -0.000528028 0)
(0.11397 -0.000517693 0)
(0.114995 -0.000507104 0)
(0.115999 -0.000496265 0)
(0.11698 -0.000485178 0)
(0.117939 -0.000473849 0)
(0.118876 -0.000462282 0)
(0.119789 -0.000450481 0)
(0.120678 -0.000438452 0)
(0.121543 -0.000426201 0)
(0.122383 -0.000413734 0)
(0.123198 -0.000401058 0)
(0.123987 -0.00038818 0)
(0.124751 -0.000375108 0)
(0.125488 -0.000361848 0)
(0.126199 -0.000348409 0)
(0.126882 -0.000334801 0)
(0.127538 -0.000321031 0)
(0.128166 -0.000307108 0)
(0.128766 -0.000293043 0)
(0.129338 -0.000278845 0)
(0.129882 -0.000264523 0)
(0.130397 -0.000250089 0)
(0.130882 -0.000235551 0)
(0.131339 -0.000220921 0)
(0.131766 -0.00020621 0)
(0.132164 -0.000191428 0)
(0.132532 -0.000176585 0)
(0.13287 -0.000161694 0)
(0.133179 -0.000146764 0)
(0.133457 -0.000131808 0)
(0.133706 -0.000116835 0)
(0.133925 -0.000101858 0)
(0.134113 -8.68856e-05 0)
(0.134272 -7.19303e-05 0)
(0.134401 -5.70024e-05 0)
(0.1345 -4.21125e-05 0)
(0.13457 -2.72709e-05 0)
(0.134609 -1.24882e-05 0)
(0.134619 2.22579e-06 0)
(0.1346 1.6861e-05 0)
(0.134552 3.14078e-05 0)
(0.134474 4.58568e-05 0)
(0.134368 6.01988e-05 0)
(0.134234 7.4425e-05 0)
(0.134071 8.85267e-05 0)
(0.133879 0.000102496 0)
(0.13366 0.000116324 0)
(0.133414 0.000130004 0)
(0.13314 0.000143528 0)
(0.13284 0.00015689 0)
(0.132512 0.000170082 0)
(0.132159 0.000183099 0)
(0.13178 0.000195934 0)
(0.131375 0.000208583 0)
(0.130945 0.000221039 0)
(0.130491 0.000233299 0)
(0.130012 0.000245357 0)
(0.129509 0.00025721 0)
(0.128983 0.000268854 0)
(0.128434 0.000280285 0)
(0.127862 0.000291501 0)
(0.127267 0.000302499 0)
(0.126651 0.000313277 0)
(0.126014 0.000323832 0)
(0.125356 0.000334164 0)
(0.124677 0.00034427 0)
(0.123979 0.00035415 0)
(0.12326 0.000363803 0)
(0.122523 0.00037323 0)
(0.121767 0.000382428 0)
(0.120993 0.0003914 0)
(0.120201 0.000400145 0)
(0.119392 0.000408664 0)
(0.118566 0.000416958 0)
(0.117724 0.000425029 0)
(0.116866 0.000432877 0)
(0.115993 0.000440504 0)
(0.115104 0.000447912 0)
(0.114201 0.000455104 0)
(0.113283 0.000462081 0)
(0.112352 0.000468846 0)
(0.111408 0.000475401 0)
(0.11045 0.000481749 0)
(0.10948 0.000487893 0)
(0.108499 0.000493836 0)
(0.107505 0.00049958 0)
(0.1065 0.00050513 0)
(0.105484 0.000510488 0)
(0.104458 0.000515657 0)
(0.103421 0.000520642 0)
(0.102375 0.000525445 0)
(0.101319 0.00053007 0)
(0.100255 0.000534522 0)
(0.0991812 0.000538802 0)
(0.0980993 0.000542916 0)
(0.0970094 0.000546867 0)
(0.0959117 0.000550658 0)
(0.0948066 0.000554294 0)
(0.0936944 0.000557778 0)
(0.0925753 0.000561114 0)
(0.0914498 0.000564307 0)
(0.090318 0.000567358 0)
(0.0891802 0.000570274 0)
(0.0880367 0.000573056 0)
(0.0868878 0.000575709 0)
(0.0857338 0.000578238 0)
(0.0845748 0.000580644 0)
(0.0834111 0.000582933 0)
(0.0822429 0.000585107 0)
(0.0810705 0.000587171 0)
(0.0798941 0.000589127 0)
(0.0787139 0.00059098 0)
(0.0775301 0.000592733 0)
(0.0763429 0.000594389 0)
(0.0751525 0.000595952 0)
(0.073959 0.000597425 0)
(0.0727627 0.000598811 0)
(0.0715637 0.000600114 0)
(0.0703622 0.000601336 0)
(0.0691583 0.000602481 0)
(0.0679522 0.000603552 0)
(0.066744 0.000604552 0)
(0.0655339 0.000605484 0)
(0.064322 0.00060635 0)
(0.0631084 0.000607153 0)
(0.0618933 0.000607897 0)
(0.0606768 0.000608584 0)
(0.0594589 0.000609216 0)
(0.0582399 0.000609797 0)
(0.0570197 0.000610328 0)
(0.0557985 0.000610812 0)
(0.0545764 0.000611252 0)
(0.0533534 0.00061165 0)
(0.0521298 0.000612007 0)
(0.0509054 0.000612327 0)
(0.0496804 0.000612611 0)
(0.0484549 0.000612862 0)
(0.0472289 0.000613082 0)
(0.0460025 0.000613272 0)
(0.0447758 0.000613435 0)
(0.0435488 0.000613572 0)
(0.0423215 0.000613685 0)
(0.041094 0.000613776 0)
(0.0398664 0.000613846 0)
(0.0386386 0.000613898 0)
(0.0374108 0.000613932 0)
(0.0361829 0.000613951 0)
(0.034955 0.000613956 0)
(0.033727 0.000613947 0)
(0.0324992 0.000613928 0)
(0.0312713 0.000613898 0)
(0.0300436 0.000613859 0)
(0.0288159 0.000613813 0)
(0.0275883 0.00061376 0)
(0.0263608 0.000613701 0)
(0.0251335 0.000613638 0)
(0.0239063 0.000613572 0)
(0.0226792 0.000613503 0)
(0.0214523 0.000613433 0)
(0.0202255 0.000613362 0)
(0.0189988 0.000613291 0)
(0.0177723 0.000613221 0)
(0.0165459 0.000613153 0)
(0.0153197 0.000613086 0)
(0.0140936 0.000613023 0)
(0.0128676 0.000612962 0)
(0.0116417 0.000612906 0)
(0.010416 0.000612854 0)
(0.00919033 0.000612807 0)
(0.00796477 0.000612765 0)
(0.00673928 0.000612728 0)
(0.00551386 0.000612697 0)
(0.0042885 0.000612672 0)
(0.00306318 0.000612653 0)
(0.0018379 0.00061264 0)
(0.00061263 0.000612634 0)
(0.000758487 -0.00227547 0)
(0.00227546 -0.00227547 0)
(0.00379244 -0.00227548 0)
(0.00530943 -0.0022755 0)
(0.00682644 -0.00227552 0)
(0.00834345 -0.00227553 0)
(0.00986048 -0.00227555 0)
(0.0113775 -0.00227556 0)
(0.0128946 -0.00227557 0)
(0.0144116 -0.00227556 0)
(0.0159287 -0.00227553 0)
(0.0174457 -0.00227549 0)
(0.0189627 -0.00227541 0)
(0.0204796 -0.00227531 0)
(0.0219965 -0.00227516 0)
(0.0235132 -0.00227497 0)
(0.0250298 -0.00227472 0)
(0.0265463 -0.00227442 0)
(0.0280625 -0.00227404 0)
(0.0295784 -0.00227359 0)
(0.031094 -0.00227304 0)
(0.0326093 -0.0022724 0)
(0.034124 -0.00227165 0)
(0.0356383 -0.00227079 0)
(0.0371519 -0.00226979 0)
(0.0386648 -0.00226865 0)
(0.040177 -0.00226736 0)
(0.0416882 -0.00226591 0)
(0.0431984 -0.00226427 0)
(0.0447075 -0.00226244 0)
(0.0462152 -0.00226041 0)
(0.0477216 -0.00225816 0)
(0.0492264 -0.00225568 0)
(0.0507295 -0.00225294 0)
(0.0522307 -0.00224995 0)
(0.0537297 -0.00224667 0)
(0.0552266 -0.0022431 0)
(0.0567209 -0.00223922 0)
(0.0582126 -0.00223501 0)
(0.0597014 -0.00223046 0)
(0.061187 -0.00222554 0)
(0.0626692 -0.00222025 0)
(0.0641478 -0.00221457 0)
(0.0656225 -0.00220847 0)
(0.067093 -0.00220195 0)
(0.068559 -0.00219498 0)
(0.0700202 -0.00218755 0)
(0.0714763 -0.00217963 0)
(0.0729269 -0.00217122 0)
(0.0743719 -0.00216229 0)
(0.0758107 -0.00215283 0)
(0.077243 -0.00214282 0)
(0.0786684 -0.00213224 0)
(0.0800867 -0.00212108 0)
(0.0814973 -0.00210932 0)
(0.0828999 -0.00209695 0)
(0.084294 -0.00208394 0)
(0.0856792 -0.00207029 0)
(0.0870552 -0.00205598 0)
(0.0884214 -0.00204099 0)
(0.0897773 -0.00202531 0)
(0.0911226 -0.00200894 0)
(0.0924568 -0.00199184 0)
(0.0937793 -0.00197403 0)
(0.0950897 -0.00195547 0)
(0.0963875 -0.00193617 0)
(0.0976722 -0.00191612 0)
(0.0989433 -0.0018953 0)
(0.1002 -0.00187371 0)
(0.101443 -0.00185134 0)
(0.10267 -0.00182819 0)
(0.103881 -0.00180426 0)
(0.105076 -0.00177953 0)
(0.106255 -0.00175402 0)
(0.107416 -0.00172771 0)
(0.108559 -0.00170061 0)
(0.109684 -0.00167272 0)
(0.110791 -0.00164404 0)
(0.111877 -0.00161458 0)
(0.112944 -0.00158434 0)
(0.113991 -0.00155333 0)
(0.115016 -0.00152156 0)
(0.11602 -0.00148904 0)
(0.117003 -0.00145578 0)
(0.117962 -0.00142178 0)
(0.118899 -0.00138708 0)
(0.119813 -0.00135167 0)
(0.120702 -0.00131558 0)
(0.121568 -0.00127882 0)
(0.122408 -0.00124141 0)
(0.123224 -0.00120338 0)
(0.124013 -0.00116473 0)
(0.124777 -0.00112551 0)
(0.125515 -0.00108572 0)
(0.126226 -0.0010454 0)
(0.126909 -0.00100456 0)
(0.127566 -0.000963243 0)
(0.128194 -0.000921467 0)
(0.128795 -0.000879262 0)
(0.129367 -0.000836657 0)
(0.129911 -0.000793682 0)
(0.130426 -0.000750368 0)
(0.130912 -0.000706745 0)
(0.131368 -0.000662845 0)
(0.131796 -0.0006187 0)
(0.132193 -0.000574342 0)
(0.132562 -0.000529804 0)
(0.1329 -0.000485119 0)
(0.133209 -0.00044032 0)
(0.133487 -0.000395439 0)
(0.133736 -0.00035051 0)
(0.133955 -0.000305566 0)
(0.134143 -0.00026064 0)
(0.134302 -0.000215763 0)
(0.134431 -0.000170969 0)
(0.13453 -0.000126288 0)
(0.134599 -8.17537e-05 0)
(0.134639 -3.73953e-05 0)
(0.134649 6.75644e-06 0)
(0.134629 5.06717e-05 0)
(0.134581 9.43215e-05 0)
(0.134503 0.000137678 0)
(0.134397 0.000180712 0)
(0.134262 0.000223399 0)
(0.134099 0.000265713 0)
(0.133907 0.000307628 0)
(0.133688 0.00034912 0)
(0.133441 0.000390167 0)
(0.133167 0.000430746 0)
(0.132866 0.000470838 0)
(0.132539 0.000510421 0)
(0.132185 0.000549478 0)
(0.131805 0.00058799 0)
(0.1314 0.00062594 0)
(0.13097 0.000663315 0)
(0.130515 0.000700098 0)
(0.130036 0.000736277 0)
(0.129533 0.000771839 0)
(0.129006 0.000806774 0)
(0.128456 0.000841071 0)
(0.127884 0.000874722 0)
(0.127289 0.000907718 0)
(0.126673 0.000940053 0)
(0.126035 0.00097172 0)
(0.125376 0.00100272 0)
(0.124697 0.00103304 0)
(0.123998 0.00106268 0)
(0.123279 0.00109164 0)
(0.122542 0.00111992 0)
(0.121785 0.00114751 0)
(0.121011 0.00117443 0)
(0.120219 0.00120066 0)
(0.119409 0.00122622 0)
(0.118583 0.0012511 0)
(0.11774 0.00127531 0)
(0.116882 0.00129885 0)
(0.116008 0.00132173 0)
(0.115118 0.00134395 0)
(0.114215 0.00136553 0)
(0.113297 0.00138645 0)
(0.112365 0.00140675 0)
(0.111421 0.00142641 0)
(0.110463 0.00144545 0)
(0.109493 0.00146388 0)
(0.10851 0.0014817 0)
(0.107516 0.00149894 0)
(0.106511 0.00151558 0)
(0.105495 0.00153165 0)
(0.104468 0.00154716 0)
(0.103431 0.00156211 0)
(0.102385 0.00157651 0)
(0.101329 0.00159038 0)
(0.100263 0.00160373 0)
(0.0991896 0.00161657 0)
(0.0981074 0.00162891 0)
(0.0970171 0.00164076 0)
(0.0959191 0.00165213 0)
(0.0948137 0.00166303 0)
(0.0937012 0.00167348 0)
(0.0925818 0.00168349 0)
(0.091456 0.00169306 0)
(0.0903239 0.00170221 0)
(0.0891859 0.00171095 0)
(0.0880421 0.0017193 0)
(0.086893 0.00172725 0)
(0.0857387 0.00173483 0)
(0.0845794 0.00174205 0)
(0.0834155 0.00174891 0)
(0.0822471 0.00175543 0)
(0.0810745 0.00176162 0)
(0.0798979 0.00176748 0)
(0.0787175 0.00177304 0)
(0.0775335 0.0017783 0)
(0.0763461 0.00178326 0)
(0.0751555 0.00178795 0)
(0.0739618 0.00179236 0)
(0.0727654 0.00179652 0)
(0.0715662 0.00180042 0)
(0.0703645 0.00180408 0)
(0.0691605 0.00180752 0)
(0.0679542 0.00181073 0)
(0.0667459 0.00181372 0)
(0.0655357 0.00181652 0)
(0.0643236 0.00181911 0)
(0.0631099 0.00182152 0)
(0.0618947 0.00182375 0)
(0.0606781 0.00182581 0)
(0.0594601 0.0018277 0)
(0.058241 0.00182944 0)
(0.0570207 0.00183103 0)
(0.0557994 0.00183248 0)
(0.0545772 0.0018338 0)
(0.0533542 0.00183499 0)
(0.0521304 0.00183606 0)
(0.050906 0.00183702 0)
(0.0496809 0.00183787 0)
(0.0484554 0.00183862 0)
(0.0472293 0.00183927 0)
(0.0460029 0.00183984 0)
(0.0447761 0.00184033 0)
(0.043549 0.00184074 0)
(0.0423217 0.00184108 0)
(0.0410942 0.00184135 0)
(0.0398665 0.00184156 0)
(0.0386387 0.00184171 0)
(0.0374108 0.00184181 0)
(0.0361829 0.00184187 0)
(0.0349549 0.00184188 0)
(0.033727 0.00184185 0)
(0.0324991 0.00184179 0)
(0.0312712 0.0018417 0)
(0.0300435 0.00184158 0)
(0.0288158 0.00184144 0)
(0.0275882 0.00184128 0)
(0.0263607 0.00184111 0)
(0.0251334 0.00184092 0)
(0.0239061 0.00184072 0)
(0.0226791 0.00184051 0)
(0.0214521 0.0018403 0)
(0.0202253 0.00184009 0)
(0.0189987 0.00183987 0)
(0.0177722 0.00183966 0)
(0.0165458 0.00183946 0)
(0.0153196 0.00183926 0)
(0.0140935 0.00183906 0)
(0.0128675 0.00183888 0)
(0.0116416 0.00183871 0)
(0.0104159 0.00183856 0)
(0.00919024 0.00183841 0)
(0.00796469 0.00183829 0)
(0.00673921 0.00183818 0)
(0.00551381 0.00183808 0)
(0.00428846 0.00183801 0)
(0.00306315 0.00183795 0)
(0.00183788 0.00183791 0)
(0.000612624 0.00183789 0)
(0.000758483 -0.00379244 0)
(0.00227545 -0.00379245 0)
(0.00379242 -0.00379247 0)
(0.00530941 -0.00379249 0)
(0.00682641 -0.00379253 0)
(0.00834343 -0.00379256 0)
(0.00986046 -0.00379259 0)
(0.0113775 -0.00379261 0)
(0.0128946 -0.00379262 0)
(0.0144116 -0.00379262 0)
(0.0159287 -0.00379258 0)
(0.0174458 -0.00379251 0)
(0.0189628 -0.00379239 0)
(0.0204798 -0.00379222 0)
(0.0219967 -0.00379199 0)
(0.0235135 -0.00379168 0)
(0.0250302 -0.00379127 0)
(0.0265467 -0.00379077 0)
(0.028063 -0.00379016 0)
(0.0295791 -0.00378941 0)
(0.0310948 -0.00378851 0)
(0.0326102 -0.00378746 0)
(0.0341251 -0.00378622 0)
(0.0356395 -0.00378479 0)
(0.0371533 -0.00378314 0)
(0.0386665 -0.00378126 0)
(0.0401788 -0.00377912 0)
(0.0416902 -0.00377671 0)
(0.0432007 -0.003774 0)
(0.04471 -0.00377097 0)
(0.0462181 -0.0037676 0)
(0.0477248 -0.00376386 0)
(0.0492299 -0.00375974 0)
(0.0507333 -0.0037552 0)
(0.0522348 -0.00375022 0)
(0.0537343 -0.00374478 0)
(0.0552315 -0.00373884 0)
(0.0567263 -0.00373239 0)
(0.0582184 -0.0037254 0)
(0.0597077 -0.00371783 0)
(0.0611938 -0.00370966 0)
(0.0626765 -0.00370086 0)
(0.0641556 -0.00369141 0)
(0.0656309 -0.00368127 0)
(0.0671019 -0.00367041 0)
(0.0685685 -0.00365882 0)
(0.0700304 -0.00364645 0)
(0.0714871 -0.00363327 0)
(0.0729385 -0.00361927 0)
(0.0743841 -0.00360441 0)
(0.0758236 -0.00358866 0)
(0.0772567 -0.003572 0)
(0.0786829 -0.00355439 0)
(0.0801019 -0.0035358 0)
(0.0815134 -0.00351622 0)
(0.0829168 -0.00349561 0)
(0.0843117 -0.00347396 0)
(0.0856979 -0.00345122 0)
(0.0870747 -0.00342738 0)
(0.0884418 -0.00340241 0)
(0.0897987 -0.0033763 0)
(0.0911449 -0.00334902 0)
(0.0924801 -0.00332055 0)
(0.0938036 -0.00329086 0)
(0.095115 -0.00325995 0)
(0.0964138 -0.0032278 0)
(0.0976995 -0.00319438 0)
(0.0989716 -0.00315969 0)
(0.10023 -0.00312371 0)
(0.101473 -0.00308644 0)
(0.102701 -0.00304786 0)
(0.103914 -0.00300797 0)
(0.10511 -0.00296677 0)
(0.106289 -0.00292424 0)
(0.107452 -0.00288039 0)
(0.108596 -0.00283522 0)
(0.109722 -0.00278873 0)
(0.110829 -0.00274093 0)
(0.111917 -0.00269182 0)
(0.112985 -0.00264142 0)
(0.114033 -0.00258973 0)
(0.115059 -0.00253677 0)
(0.116064 -0.00248256 0)
(0.117047 -0.0024271 0)
(0.118008 -0.00237044 0)
(0.118946 -0.00231257 0)
(0.11986 -0.00225354 0)
(0.120751 -0.00219337 0)
(0.121617 -0.00213208 0)
(0.122458 -0.00206972 0)
(0.123275 -0.0020063 0)
(0.124065 -0.00194187 0)
(0.12483 -0.00187647 0)
(0.125568 -0.00181013 0)
(0.12628 -0.0017429 0)
(0.126964 -0.00167481 0)
(0.127621 -0.00160591 0)
(0.12825 -0.00153625 0)
(0.128851 -0.00146588 0)
(0.129424 -0.00139484 0)
(0.129968 -0.00132318 0)
(0.130484 -0.00125096 0)
(0.13097 -0.00117822 0)
(0.131427 -0.00110501 0)
(0.131855 -0.0010314 0)
(0.132253 -0.000957436 0)
(0.132621 -0.00088317 0)
(0.13296 -0.000808659 0)
(0.133268 -0.000733956 0)
(0.133547 -0.000659119 0)
(0.133796 -0.000584201 0)
(0.134015 -0.000509258 0)
(0.134203 -0.000434344 0)
(0.134362 -0.000359514 0)
(0.134491 -0.000284821 0)
(0.134589 -0.000210319 0)
(0.134658 -0.00013606 0)
(0.134698 -6.20956e-05 0)
(0.134707 1.15235e-05 0)
(0.134688 8.47478e-05 0)
(0.134639 0.000157529 0)
(0.134561 0.00022982 0)
(0.134454 0.000301574 0)
(0.134319 0.000372748 0)
(0.134155 0.000443298 0)
(0.133963 0.000513182 0)
(0.133743 0.000582361 0)
(0.133496 0.000650797 0)
(0.133221 0.000718453 0)
(0.132919 0.000785294 0)
(0.132591 0.000851287 0)
(0.132237 0.000916401 0)
(0.131856 0.000980606 0)
(0.131451 0.00104387 0)
(0.13102 0.00110618 0)
(0.130564 0.0011675 0)
(0.130084 0.00122781 0)
(0.12958 0.0012871 0)
(0.129052 0.00134533 0)
(0.128502 0.0014025 0)
(0.127928 0.0014586 0)
(0.127333 0.0015136 0)
(0.126715 0.0015675 0)
(0.126077 0.00162028 0)
(0.125417 0.00167194 0)
(0.124737 0.00172248 0)
(0.124037 0.00177188 0)
(0.123318 0.00182015 0)
(0.122579 0.00186728 0)
(0.121822 0.00191328 0)
(0.121046 0.00195813 0)
(0.120253 0.00200185 0)
(0.119443 0.00204444 0)
(0.118616 0.00208591 0)
(0.117772 0.00212625 0)
(0.116913 0.00216548 0)
(0.116038 0.00220361 0)
(0.115148 0.00224064 0)
(0.114243 0.00227659 0)
(0.113324 0.00231147 0)
(0.112392 0.00234528 0)
(0.111446 0.00237804 0)
(0.110488 0.00240977 0)
(0.109517 0.00244047 0)
(0.108534 0.00247017 0)
(0.107539 0.00249888 0)
(0.106533 0.00252661 0)
(0.105516 0.00255338 0)
(0.104488 0.00257921 0)
(0.103451 0.00260411 0)
(0.102403 0.00262811 0)
(0.101347 0.00265122 0)
(0.100281 0.00267346 0)
(0.0992064 0.00269484 0)
(0.0981235 0.00271539 0)
(0.0970326 0.00273513 0)
(0.0959339 0.00275407 0)
(0.0948279 0.00277223 0)
(0.0937148 0.00278963 0)
(0.0925949 0.00280629 0)
(0.0914685 0.00282223 0)
(0.0903358 0.00283747 0)
(0.0891973 0.00285203 0)
(0.088053 0.00286592 0)
(0.0869034 0.00287917 0)
(0.0857486 0.00289179 0)
(0.0845888 0.00290381 0)
(0.0834244 0.00291523 0)
(0.0822556 0.00292609 0)
(0.0810826 0.00293639 0)
(0.0799055 0.00294615 0)
(0.0787247 0.0029554 0)
(0.0775403 0.00296415 0)
(0.0763525 0.00297241 0)
(0.0751616 0.00298021 0)
(0.0739676 0.00298756 0)
(0.0727707 0.00299447 0)
(0.0715712 0.00300097 0)
(0.0703692 0.00300707 0)
(0.0691649 0.00301278 0)
(0.0679583 0.00301812 0)
(0.0667498 0.0030231 0)
(0.0655392 0.00302774 0)
(0.064327 0.00303206 0)
(0.063113 0.00303606 0)
(0.0618976 0.00303977 0)
(0.0606807 0.00304319 0)
(0.0594625 0.00304634 0)
(0.0582432 0.00304923 0)
(0.0570227 0.00305187 0)
(0.0558013 0.00305428 0)
(0.0545789 0.00305647 0)
(0.0533557 0.00305845 0)
(0.0521318 0.00306022 0)
(0.0509072 0.00306181 0)
(0.049682 0.00306322 0)
(0.0484563 0.00306447 0)
(0.0472301 0.00306556 0)
(0.0460036 0.0030665 0)
(0.0447767 0.0030673 0)
(0.0435495 0.00306798 0)
(0.0423221 0.00306853 0)
(0.0410945 0.00306898 0)
(0.0398667 0.00306932 0)
(0.0386389 0.00306957 0)
(0.0374109 0.00306974 0)
(0.0361829 0.00306983 0)
(0.0349549 0.00306984 0)
(0.0337269 0.00306979 0)
(0.032499 0.00306969 0)
(0.0312711 0.00306953 0)
(0.0300433 0.00306933 0)
(0.0288156 0.00306909 0)
(0.027588 0.00306882 0)
(0.0263605 0.00306853 0)
(0.0251331 0.00306821 0)
(0.0239059 0.00306787 0)
(0.0226788 0.00306752 0)
(0.0214518 0.00306717 0)
(0.020225 0.00306681 0)
(0.0189984 0.00306645 0)
(0.0177719 0.0030661 0)
(0.0165455 0.00306575 0)
(0.0153193 0.00306542 0)
(0.0140932 0.0030651 0)
(0.0128673 0.00306479 0)
(0.0116414 0.00306451 0)
(0.0104157 0.00306425 0)
(0.00919006 0.00306401 0)
(0.00796453 0.00306379 0)
(0.00673908 0.00306361 0)
(0.00551369 0.00306345 0)
(0.00428837 0.00306333 0)
(0.00306309 0.00306323 0)
(0.00183784 0.00306317 0)
(0.000612611 0.00306314 0)
(0.000758476 -0.0053094 0)
(0.00227543 -0.00530941 0)
(0.0037924 -0.00530944 0)
(0.00530937 -0.00530948 0)
(0.00682637 -0.00530953 0)
(0.00834339 -0.00530959 0)
(0.00986043 -0.00530964 0)
(0.0113775 -0.00530968 0)
(0.0128946 -0.0053097 0)
(0.0144117 -0.0053097 0)
(0.0159288 -0.00530966 0)
(0.0174459 -0.00530957 0)
(0.018963 -0.00530942 0)
(0.02048 -0.0053092 0)
(0.021997 -0.00530889 0)
(0.0235139 -0.00530847 0)
(0.0250307 -0.00530793 0)
(0.0265474 -0.00530724 0)
(0.0280638 -0.0053064 0)
(0.0295801 -0.00530537 0)
(0.031096 -0.00530415 0)
(0.0326115 -0.00530269 0)
(0.0341267 -0.00530099 0)
(0.0356413 -0.00529901 0)
(0.0371554 -0.00529673 0)
(0.0386688 -0.00529412 0)
(0.0401815 -0.00529116 0)
(0.0416933 -0.00528781 0)
(0.0432041 -0.00528404 0)
(0.0447138 -0.00527984 0)
(0.0462223 -0.00527515 0)
(0.0477294 -0.00526995 0)
(0.0492351 -0.00526421 0)
(0.050739 -0.00525789 0)
(0.0522411 -0.00525096 0)
(0.0537411 -0.00524338 0)
(0.0552389 -0.00523511 0)
(0.0567344 -0.00522611 0)
(0.0582271 -0.00521636 0)
(0.0597171 -0.0052058 0)
(0.0612039 -0.0051944 0)
(0.0626874 -0.00518213 0)
(0.0641674 -0.00516893 0)
(0.0656434 -0.00515477 0)
(0.0671154 -0.00513962 0)
(0.0685829 -0.00512342 0)
(0.0700457 -0.00510615 0)
(0.0715034 -0.00508775 0)
(0.0729558 -0.00506818 0)
(0.0744025 -0.00504742 0)
(0.0758431 -0.00502541 0)
(0.0772772 -0.00500212 0)
(0.0787046 -0.0049775 0)
(0.0801248 -0.00495152 0)
(0.0815375 -0.00492415 0)
(0.0829421 -0.00489533 0)
(0.0843384 -0.00486505 0)
(0.0857258 -0.00483325 0)
(0.087104 -0.00479991 0)
(0.0884724 -0.00476499 0)
(0.0898307 -0.00472846 0)
(0.0911784 -0.00469029 0)
(0.0925149 -0.00465046 0)
(0.0938399 -0.00460893 0)
(0.0951528 -0.00456567 0)
(0.0964531 -0.00452068 0)
(0.0977403 -0.00447391 0)
(0.099014 -0.00442537 0)
(0.100273 -0.00437501 0)
(0.101518 -0.00432285 0)
(0.102748 -0.00426885 0)
(0.103962 -0.00421301 0)
(0.10516 -0.00415532 0)
(0.106341 -0.00409579 0)
(0.107505 -0.0040344 0)
(0.108651 -0.00397115 0)
(0.109779 -0.00390606 0)
(0.110888 -0.00383913 0)
(0.111977 -0.00377037 0)
(0.113046 -0.00369979 0)
(0.114095 -0.0036274 0)
(0.115124 -0.00355324 0)
(0.11613 -0.00347731 0)
(0.117115 -0.00339965 0)
(0.118077 -0.00332028 0)
(0.119016 -0.00323924 0)
(0.119932 -0.00315656 0)
(0.120824 -0.00307227 0)
(0.121691 -0.00298643 0)
(0.122534 -0.00289907 0)
(0.123351 -0.00281024 0)
(0.124143 -0.00271999 0)
(0.124909 -0.00262837 0)
(0.125648 -0.00253544 0)
(0.126361 -0.00244125 0)
(0.127046 -0.00234586 0)
(0.127704 -0.00224935 0)
(0.128334 -0.00215176 0)
(0.128936 -0.00205317 0)
(0.12951 -0.00195364 0)
(0.130055 -0.00185325 0)
(0.130571 -0.00175206 0)
(0.131058 -0.00165015 0)
(0.131515 -0.00154759 0)
(0.131943 -0.00144446 0)
(0.132342 -0.00134083 0)
(0.132711 -0.00123678 0)
(0.133049 -0.00113239 0)
(0.133358 -0.00102773 0)
(0.133637 -0.000922879 0)
(0.133886 -0.000817917 0)
(0.134105 -0.00071292 0)
(0.134293 -0.000607964 0)
(0.134452 -0.000503127 0)
(0.13458 -0.000398483 0)
(0.134679 -0.000294107 0)
(0.134747 -0.000190072 0)
(0.134786 -8.64509e-05 0)
(0.134796 1.66853e-05 0)
(0.134775 0.000119267 0)
(0.134726 0.000221227 0)
(0.134647 0.000322498 0)
(0.13454 0.000423016 0)
(0.134404 0.00052272 0)
(0.134239 0.000621548 0)
(0.134046 0.000719442 0)
(0.133826 0.000816346 0)
(0.133577 0.000912208 0)
(0.133302 0.00100697 0)
(0.132999 0.0011006 0)
(0.13267 0.00119303 0)
(0.132314 0.00128423 0)
(0.131933 0.00137416 0)
(0.131526 0.00146277 0)
(0.131094 0.00155003 0)
(0.130637 0.00163591 0)
(0.130156 0.00172038 0)
(0.12965 0.0018034 0)
(0.129121 0.00188495 0)
(0.12857 0.00196501 0)
(0.127995 0.00204356 0)
(0.127398 0.00212058 0)
(0.126779 0.00219605 0)
(0.126139 0.00226996 0)
(0.125478 0.0023423 0)
(0.124797 0.00241306 0)
(0.124096 0.00248223 0)
(0.123375 0.00254981 0)
(0.122635 0.00261579 0)
(0.121876 0.00268018 0)
(0.121099 0.00274297 0)
(0.120305 0.00280418 0)
(0.119493 0.0028638 0)
(0.118665 0.00292184 0)
(0.11782 0.00297831 0)
(0.116959 0.00303322 0)
(0.116083 0.00308659 0)
(0.115191 0.00313842 0)
(0.114286 0.00318873 0)
(0.113366 0.00323754 0)
(0.112432 0.00328486 0)
(0.111485 0.0033307 0)
(0.110525 0.0033751 0)
(0.109553 0.00341807 0)
(0.108569 0.00345962 0)
(0.107573 0.00349979 0)
(0.106565 0.00353859 0)
(0.105547 0.00357605 0)
(0.104519 0.00361219 0)
(0.10348 0.00364703 0)
(0.102432 0.0036806 0)
(0.101374 0.00371293 0)
(0.100307 0.00374404 0)
(0.0992315 0.00377395 0)
(0.0981477 0.00380269 0)
(0.0970558 0.0038303 0)
(0.0959562 0.00385678 0)
(0.0948493 0.00388218 0)
(0.0937352 0.00390652 0)
(0.0926144 0.00392982 0)
(0.0914872 0.00395211 0)
(0.0903537 0.00397342 0)
(0.0892143 0.00399377 0)
(0.0880693 0.0040132 0)
(0.0869189 0.00403172 0)
(0.0857633 0.00404936 0)
(0.0846029 0.00406616 0)
(0.0834378 0.00408213 0)
(0.0822683 0.0040973 0)
(0.0810946 0.00411169 0)
(0.0799169 0.00412534 0)
(0.0787355 0.00413826 0)
(0.0775505 0.00415048 0)
(0.0763622 0.00416203 0)
(0.0751706 0.00417292 0)
(0.0739761 0.00418319 0)
(0.0727788 0.00419284 0)
(0.0715788 0.00420192 0)
(0.0703763 0.00421043 0)
(0.0691715 0.0042184 0)
(0.0679645 0.00422586 0)
(0.0667555 0.00423282 0)
(0.0655446 0.0042393 0)
(0.064332 0.00424532 0)
(0.0631177 0.00425091 0)
(0.0619019 0.00425608 0)
(0.0606846 0.00426085 0)
(0.0594662 0.00426524 0)
(0.0582465 0.00426927 0)
(0.0570257 0.00427295 0)
(0.055804 0.00427631 0)
(0.0545814 0.00427935 0)
(0.0533579 0.0042821 0)
(0.0521338 0.00428458 0)
(0.050909 0.00428679 0)
(0.0496836 0.00428875 0)
(0.0484577 0.00429047 0)
(0.0472314 0.00429198 0)
(0.0460046 0.00429329 0)
(0.0447776 0.0042944 0)
(0.0435503 0.00429533 0)
(0.0423227 0.0042961 0)
(0.041095 0.00429671 0)
(0.0398671 0.00429718 0)
(0.0386391 0.00429752 0)
(0.0374111 0.00429774 0)
(0.036183 0.00429785 0)
(0.0349549 0.00429787 0)
(0.0337269 0.00429779 0)
(0.0324988 0.00429763 0)
(0.0312709 0.00429741 0)
(0.030043 0.00429712 0)
(0.0288153 0.00429678 0)
(0.0275876 0.00429639 0)
(0.0263601 0.00429597 0)
(0.0251327 0.00429551 0)
(0.0239055 0.00429504 0)
(0.0226784 0.00429454 0)
(0.0214514 0.00429404 0)
(0.0202246 0.00429353 0)
(0.018998 0.00429303 0)
(0.0177715 0.00429253 0)
(0.0165451 0.00429204 0)
(0.0153189 0.00429156 0)
(0.0140928 0.00429111 0)
(0.0128669 0.00429068 0)
(0.0116411 0.00429028 0)
(0.0104154 0.00428991 0)
(0.00918979 0.00428957 0)
(0.00796429 0.00428927 0)
(0.00673887 0.00428901 0)
(0.00551352 0.00428879 0)
(0.00428823 0.00428861 0)
(0.00306299 0.00428848 0)
(0.00183778 0.00428839 0)
(0.000612592 0.00428834 0)
(0.000758467 -0.00682635 0)
(0.0022754 -0.00682637 0)
(0.00379235 -0.00682641 0)
(0.00530932 -0.00682647 0)
(0.00682631 -0.00682654 0)
(0.00834332 -0.00682662 0)
(0.00986037 -0.00682669 0)
(0.0113774 -0.00682676 0)
(0.0128945 -0.00682681 0)
(0.0144117 -0.00682682 0)
(0.0159288 -0.00682679 0)
(0.017446 -0.0068267 0)
(0.0189632 -0.00682653 0)
(0.0204803 -0.00682627 0)
(0.0219974 -0.0068259 0)
(0.0235145 -0.00682539 0)
(0.0250314 -0.00682472 0)
(0.0265482 -0.00682388 0)
(0.0280649 -0.00682283 0)
(0.0295813 -0.00682154 0)
(0.0310975 -0.00682 0)
(0.0326133 -0.00681817 0)
(0.0341288 -0.00681603 0)
(0.0356438 -0.00681352 0)
(0.0371582 -0.00681064 0)
(0.038672 -0.00680734 0)
(0.0401851 -0.00680357 0)
(0.0416973 -0.00679932 0)
(0.0432086 -0.00679454 0)
(0.0447189 -0.00678918 0)
(0.0462279 -0.00678321 0)
(0.0477357 -0.00677659 0)
(0.0492419 -0.00676927 0)
(0.0507465 -0.0067612 0)
(0.0522493 -0.00675235 0)
(0.0537501 -0.00674266 0)
(0.0552488 -0.00673209 0)
(0.056745 -0.00672059 0)
(0.0582387 -0.00670812 0)
(0.0597296 -0.00669461 0)
(0.0612174 -0.00668002 0)
(0.062702 -0.00666431 0)
(0.064183 -0.00664741 0)
(0.0656602 -0.00662928 0)
(0.0671333 -0.00660987 0)
(0.068602 -0.00658911 0)
(0.070066 -0.00656697 0)
(0.0715251 -0.00654338 0)
(0.0729788 -0.0065183 0)
(0.0744269 -0.00649167 0)
(0.0758689 -0.00646344 0)
(0.0773046 -0.00643356 0)
(0.0787335 -0.00640198 0)
(0.0801553 -0.00636865 0)
(0.0815695 -0.00633351 0)
(0.0829759 -0.00629653 0)
(0.0843738 -0.00625765 0)
(0.085763 -0.00621682 0)
(0.087143 -0.00617401 0)
(0.0885132 -0.00612917 0)
(0.0898734 -0.00608226 0)
(0.0912229 -0.00603324 0)
(0.0925614 -0.00598206 0)
(0.0938883 -0.00592871 0)
(0.0952032 -0.00587314 0)
(0.0965055 -0.00581532 0)
(0.0977948 -0.00575523 0)
(0.0990705 -0.00569284 0)
(0.100332 -0.00562813 0)
(0.101579 -0.00556108 0)
(0.102811 -0.00549167 0)
(0.104027 -0.00541989 0)
(0.105227 -0.00534573 0)
(0.10641 -0.00526919 0)
(0.107576 -0.00519025 0)
(0.108724 -0.00510894 0)
(0.109854 -0.00502524 0)
(0.110965 -0.00493916 0)
(0.112057 -0.00485073 0)
(0.113128 -0.00475996 0)
(0.114179 -0.00466686 0)
(0.115209 -0.00457146 0)
(0.116218 -0.0044738 0)
(0.117205 -0.0043739 0)
(0.118169 -0.0042718 0)
(0.11911 -0.00416754 0)
(0.120027 -0.00406117 0)
(0.120921 -0.00395274 0)
(0.12179 -0.00384229 0)
(0.122635 -0.00372989 0)
(0.123454 -0.0036156 0)
(0.124247 -0.00349947 0)
(0.125015 -0.00338158 0)
(0.125755 -0.003262 0)
(0.126469 -0.0031408 0)
(0.127156 -0.00301805 0)
(0.127815 -0.00289385 0)
(0.128446 -0.00276826 0)
(0.129049 -0.00264139 0)
(0.129624 -0.0025133 0)
(0.13017 -0.0023841 0)
(0.130687 -0.00225388 0)
(0.131175 -0.00212273 0)
(0.131633 -0.00199074 0)
(0.132062 -0.00185801 0)
(0.132461 -0.00172465 0)
(0.13283 -0.00159074 0)
(0.133169 -0.00145639 0)
(0.133478 -0.00132169 0)
(0.133757 -0.00118675 0)
(0.134006 -0.00105167 0)
(0.134225 -0.00091654 0)
(0.134413 -0.000781467 0)
(0.134572 -0.000646547 0)
(0.1347 -0.000511877 0)
(0.134798 -0.000377553 0)
(0.134866 -0.00024367 0)
(0.134905 -0.000110321 0)
(0.134913 2.24014e-05 0)
(0.134892 0.000154409 0)
(0.134842 0.000285613 0)
(0.134763 0.000415929 0)
(0.134654 0.000545274 0)
(0.134517 0.000673567 0)
(0.134352 0.000800731 0)
(0.134158 0.000926691 0)
(0.133936 0.00105137 0)
(0.133686 0.00117471 0)
(0.133409 0.00129664 0)