/*--------------------------------*- C++ -*----------------------------------*\
| =========                 |                                                 |
| \\      /  F ield         | OpenFOAM: The Open Source CFD Toolbox           |
|  \\    /   O peration     | Version:  v2012                                 |
|   \\  /    A nd           | Website:  www.openfoam.com                      |
|    \\/     M anipulation  |                                                 |
\*---------------------------------------------------------------------------*/
FoamFile
{
    version     2.0;
    format      ascii;
    class       surfaceScalarField;
    location    "13.5";
    object      phi;
}
// * * * * * * * * * * * * * * * * * * * * * * * * * * * * * * * * * * * * * //

dimensions      [0 3 -1 0 0 0 0];
oriented        oriented;


internalField   nonuniform List<scalar> 
130560
(
3.50154e-06
-3.50154e-06
7.00328e-06
-3.50173e-06
1.05054e-05
-3.50216e-06
1.40082e-05
-3.50277e-06
1.75118e-05
-3.50361e-06
2.10165e-05
-3.50465e-06
2.45223e-05
-3.50588e-06
2.80297e-05
-3.50732e-06
3.15386e-05
-3.50895e-06
3.50494e-05
-3.51076e-06
3.85621e-05
-3.51276e-06
4.20771e-05
-3.51493e-06
4.55943e-05
-3.51727e-06
4.91141e-05
-3.51977e-06
5.26365e-05
-3.52243e-06
5.61618e-05
-3.52523e-06
5.96899e-05
-3.52817e-06
6.32212e-05
-3.53124e-06
6.67556e-05
-3.53442e-06
7.02933e-05
-3.5377e-06
7.38344e-05
-3.54107e-06
7.73789e-05
-3.54453e-06
8.09269e-05
-3.54805e-06
8.44786e-05
-3.55162e-06
8.80338e-05
-3.55523e-06
9.15926e-05
-3.55885e-06
9.51551e-05
-3.56248e-06
9.87212e-05
-3.5661e-06
0.000102291
-3.56968e-06
0.000105864
-3.57321e-06
0.000109441
-3.57668e-06
0.000113021
-3.58005e-06
0.000116604
-3.58331e-06
0.000120191
-3.58643e-06
0.00012378
-3.58939e-06
0.000127372
-3.59218e-06
0.000130967
-3.59475e-06
0.000134564
-3.5971e-06
0.000138163
-3.59918e-06
0.000141764
-3.60098e-06
0.000145367
-3.60247e-06
0.00014897
-3.60361e-06
0.000152575
-3.60438e-06
0.000156179
-3.60475e-06
0.000159784
-3.60468e-06
0.000163388
-3.60415e-06
0.000166991
-3.60312e-06
0.000170593
-3.60155e-06
0.000174192
-3.59942e-06
0.000177789
-3.59669e-06
0.000181382
-3.59332e-06
0.000184972
-3.58928e-06
0.000188556
-3.58453e-06
0.000192135
-3.57903e-06
0.000195708
-3.57275e-06
0.000199274
-3.56565e-06
0.000202831
-3.55769e-06
0.00020638
-3.54884e-06
0.000209919
-3.53904e-06
0.000213447
-3.52827e-06
0.000216964
-3.51649e-06
0.000220468
-3.50366e-06
0.000223957
-3.48973e-06
0.000227432
-3.47468e-06
0.00023089
-3.45846e-06
0.000234331
-3.44103e-06
0.000237754
-3.42237e-06
0.000241156
-3.40242e-06
0.000244537
-3.38116e-06
0.000247896
-3.35856e-06
0.000251231
-3.33457e-06
0.00025454
-3.30917e-06
0.000257822
-3.28232e-06
0.000261076
-3.25399e-06
0.0002643
-3.22416e-06
0.000267493
-3.1928e-06
0.000270653
-3.15988e-06
0.000273778
-3.12538e-06
0.000276868
-3.08928e-06
0.000279919
-3.05155e-06
0.000282931
-3.01218e-06
0.000285902
-2.97116e-06
0.000288831
-2.92848e-06
0.000291715
-2.88411e-06
0.000294553
-2.83806e-06
0.000297343
-2.79032e-06
0.000300084
-2.74089e-06
0.000302774
-2.68976e-06
0.000305411
-2.63695e-06
0.000307993
-2.58246e-06
0.00031052
-2.5263e-06
0.000312988
-2.46849e-06
0.000315397
-2.40903e-06
0.000317745
-2.34796e-06
0.000320031
-2.28529e-06
0.000322252
-2.22105e-06
0.000324407
-2.15527e-06
0.000326495
-2.08798e-06
0.000328514
-2.01922e-06
0.000330463
-1.94903e-06
0.000332341
-1.87746e-06
0.000334145
-1.80453e-06
0.000335875
-1.73032e-06
0.00033753
-1.65486e-06
0.000339108
-1.57821e-06
0.000340609
-1.50044e-06
0.00034203
-1.42159e-06
0.000343372
-1.34173e-06
0.000344633
-1.26093e-06
0.000345812
-1.17925e-06
0.000346909
-1.09677e-06
0.000347923
-1.01355e-06
0.000348852
-9.29662e-07
0.000349698
-8.45184e-07
0.000350458
-7.6019e-07
0.000351132
-6.74757e-07
0.000351721
-5.88961e-07
0.000352224
-5.02881e-07
0.000352641
-4.16593e-07
0.000352971
-3.30177e-07
0.000353215
-2.43711e-07
0.000353372
-1.57274e-07
0.000353443
-7.09429e-08
0.000353428
1.52046e-08
0.000353327
1.01092e-07
0.00035314
1.86644e-07
0.000352868
2.71786e-07
0.000352512
3.56444e-07
0.000352071
4.40548e-07
0.000351547
5.24028e-07
0.00035094
6.06815e-07
0.000350252
6.88844e-07
0.000349482
7.70051e-07
0.000348631
8.50374e-07
0.000347701
9.29755e-07
0.000346693
1.00814e-06
0.000345608
1.08546e-06
0.000344446
1.16169e-06
0.000343209
1.23676e-06
0.000341899
1.31063e-06
0.000340516
1.38325e-06
0.000339061
1.4546e-06
0.000337536
1.52462e-06
0.000335943
1.5933e-06
0.000334282
1.66058e-06
0.000332556
1.72646e-06
0.000330765
1.7909e-06
0.000328911
1.85387e-06
0.000326996
1.91536e-06
0.00032502
1.97536e-06
0.000322987
2.03385e-06
0.000320896
2.09081e-06
0.00031875
2.14624e-06
0.000316549
2.20013e-06
0.000314297
2.25249e-06
0.000311994
2.3033e-06
0.000309641
2.35256e-06
0.000307241
2.4003e-06
0.000304794
2.4465e-06
0.000302303
2.49117e-06
0.000299769
2.53433e-06
0.000297193
2.57599e-06
0.000294577
2.61616e-06
0.000291922
2.65486e-06
0.00028923
2.69209e-06
0.000286502
2.72789e-06
0.00028374
2.76227e-06
0.000280944
2.79526e-06
0.000278117
2.82686e-06
0.00027526
2.85711e-06
0.000272374
2.88603e-06
0.000269461
2.91365e-06
0.000266521
2.93999e-06
0.000263556
2.96509e-06
0.000260567
2.98895e-06
0.000257555
3.01162e-06
0.000254522
3.03313e-06
0.000251468
3.0535e-06
0.000248396
3.07276e-06
0.000245305
3.09094e-06
0.000242197
3.10807e-06
0.000239072
3.12418e-06
0.000235933
3.1393e-06
0.00023278
3.15347e-06
0.000229613
3.1667e-06
0.000226434
3.17904e-06
0.000223243
3.19051e-06
0.000220042
3.20114e-06
0.000216831
3.21096e-06
0.000213611
3.22e-06
0.000210383
3.22829e-06
0.000207147
3.23586e-06
0.000203904
3.24274e-06
0.000200655
3.24895e-06
0.000197401
3.25453e-06
0.000194141
3.2595e-06
0.000190878
3.26388e-06
0.00018761
3.26771e-06
0.000184339
3.27101e-06
0.000181065
3.2738e-06
0.000177789
3.27612e-06
0.000174511
3.27798e-06
0.000171232
3.27941e-06
0.000167951
3.28043e-06
0.00016467
3.28107e-06
0.000161389
3.28135e-06
0.000158107
3.28129e-06
0.000154826
3.28091e-06
0.000151546
3.28024e-06
0.000148267
3.27928e-06
0.000144989
3.27807e-06
0.000141712
3.27663e-06
0.000138437
3.27496e-06
0.000135164
3.2731e-06
0.000131893
3.27105e-06
0.000128624
3.26884e-06
0.000125358
3.26648e-06
0.000122094
3.26398e-06
0.000118832
3.26137e-06
0.000115574
3.25866e-06
0.000112318
3.25585e-06
0.000109065
3.25298e-06
0.000105815
3.25005e-06
0.000102568
3.24706e-06
9.93238e-05
3.24405e-06
9.60828e-05
3.24101e-06
9.28448e-05
3.23796e-06
8.96099e-05
3.23491e-06
8.6378e-05
3.23188e-06
8.31492e-05
3.22886e-06
7.99233e-05
3.22588e-06
7.67003e-05
3.22294e-06
7.34803e-05
3.22005e-06
7.02631e-05
3.21721e-06
6.70486e-05
3.21445e-06
6.38369e-05
3.21176e-06
6.06277e-05
3.20915e-06
5.74211e-05
3.20662e-06
5.42169e-05
3.2042e-06
5.1015e-05
3.20187e-06
4.78154e-05
3.19966e-06
4.46178e-05
3.19755e-06
4.14223e-05
3.19557e-06
3.82286e-05
3.1937e-06
3.50366e-05
3.19196e-06
3.18462e-05
3.19036e-06
2.86573e-05
3.18889e-06
2.54698e-05
3.18755e-06
2.22834e-05
3.18636e-06
1.90981e-05
3.18531e-06
1.59137e-05
3.18441e-06
1.27301e-05
3.18365e-06
9.54701e-06
3.18305e-06
6.36442e-06
3.18259e-06
3.18213e-06
3.18229e-06
3.18213e-06
3.50135e-06
-7.00289e-06
7.00289e-06
-7.00327e-06
1.05048e-05
-7.00411e-06
1.40074e-05
-7.00535e-06
1.75108e-05
-7.00702e-06
2.10153e-05
-7.00909e-06
2.4521e-05
-7.01157e-06
2.80281e-05
-7.01445e-06
3.15368e-05
-7.0177e-06
3.50474e-05
-7.02134e-06
3.856e-05
-7.02534e-06
4.20748e-05
-7.02969e-06
4.55919e-05
-7.03438e-06
4.91115e-05
-7.03939e-06
5.26338e-05
-7.04472e-06
5.61589e-05
-7.05033e-06
5.96869e-05
-7.05622e-06
6.3218e-05
-7.06236e-06
6.67524e-05
-7.06873e-06
7.029e-05
-7.07531e-06
7.3831e-05
-7.08207e-06
7.73754e-05
-7.08899e-06
8.09234e-05
-7.09605e-06
8.4475e-05
-7.1032e-06
8.80302e-05
-7.11043e-06
9.15891e-05
-7.1177e-06
9.51516e-05
-7.12498e-06
9.87177e-05
-7.13223e-06
0.000102287
-7.13942e-06
0.000105861
-7.1465e-06
0.000109437
-7.15345e-06
0.000113018
-7.16021e-06
0.000116601
-7.16675e-06
0.000120188
-7.17302e-06
0.000123777
-7.17897e-06
0.00012737
-7.18456e-06
0.000130965
-7.18974e-06
0.000134562
-7.19446e-06
0.000138161
-7.19865e-06
0.000141763
-7.20228e-06
0.000145366
-7.20528e-06
0.00014897
-7.2076e-06
0.000152574
-7.20917e-06
0.00015618
-7.20993e-06
0.000159785
-7.20983e-06
0.000163389
-7.2088e-06
0.000166993
-7.20677e-06
0.000170595
-7.20367e-06
0.000174195
-7.19945e-06
0.000177792
-7.19402e-06
0.000181386
-7.18732e-06
0.000184976
-7.17927e-06
0.000188562
-7.16981e-06
0.000192142
-7.15885e-06
0.000195715
-7.14633e-06
0.000199282
-7.13217e-06
0.00020284
-7.11628e-06
0.00020639
-7.09861e-06
0.00020993
-7.07906e-06
0.000213459
-7.05756e-06
0.000216977
-7.03403e-06
0.000220482
-7.0084e-06
0.000223972
-6.98059e-06
0.000227448
-6.95052e-06
0.000230908
-6.91812e-06
0.00023435
-6.8833e-06
0.000237774
-6.84601e-06
0.000241178
-6.80615e-06
0.00024456
-6.76367e-06
0.00024792
-6.7185e-06
0.000251256
-6.67055e-06
0.000254567
-6.61978e-06
0.00025785
-6.56611e-06
0.000261106
-6.50949e-06
0.000264332
-6.44986e-06
0.000267526
-6.38716e-06
0.000270687
-6.32134e-06
0.000273814
-6.25236e-06
0.000276905
-6.18018e-06
0.000279959
-6.10474e-06
0.000282972
-6.02602e-06
0.000285945
-5.94399e-06
0.000288875
-5.85863e-06
0.000291761
-5.7699e-06
0.000294601
-5.67781e-06
0.000297393
-5.58233e-06
0.000300135
-5.48346e-06
0.000302827
-5.38121e-06
0.000305466
-5.27558e-06
0.00030805
-5.16659e-06
0.000310578
-5.05426e-06
0.000313048
-4.93862e-06
0.000315458
-4.81969e-06
0.000317808
-4.69752e-06
0.000320095
-4.57215e-06
0.000322317
-4.44364e-06
0.000324474
-4.31205e-06
0.000326564
-4.17744e-06
0.000328584
-4.03988e-06
0.000330535
-3.89946e-06
0.000332414
-3.75625e-06
0.000334219
-3.61036e-06
0.000335951
-3.46188e-06
0.000337607
-3.31091e-06
0.000339186
-3.15756e-06
0.000340688
-3.00194e-06
0.00034211
-2.84419e-06
0.000343453
-2.68441e-06
0.000344715
-2.52274e-06
0.000345895
-2.35932e-06
0.000346992
-2.19428e-06
0.000348007
-2.02776e-06
0.000348937
-1.85992e-06
0.000349783
-1.69089e-06
0.000350543
-1.52082e-06
0.000351218
-1.34988e-06
0.000351808
-1.17821e-06
0.000352311
-1.00597e-06
0.000352727
-8.33317e-07
0.000353058
-6.60407e-07
0.000353301
-4.87397e-07
0.000353459
-3.14445e-07
0.000353529
-1.41705e-07
0.000353514
3.06665e-08
0.000353412
2.02517e-07
0.000353225
3.73695e-07
0.000352953
5.44051e-07
0.000352596
7.1344e-07
0.000352155
8.81718e-07
0.00035163
1.04874e-06
0.000351023
1.21439e-06
0.000350333
1.37851e-06
0.000349562
1.54098e-06
0.000348711
1.70169e-06
0.00034778
1.86051e-06
0.000346771
2.01732e-06
0.000345684
2.17203e-06
0.000344521
2.32452e-06
0.000343283
2.47471e-06
0.000341972
2.62249e-06
0.000340587
2.76779e-06
0.000339131
2.91051e-06
0.000337605
3.0506e-06
0.000336011
3.18798e-06
0.000334349
3.32258e-06
0.000332621
3.45436e-06
0.000330828
3.58325e-06
0.000328973
3.70922e-06
0.000327056
3.83223e-06
0.000325079
3.95223e-06
0.000323044
4.06921e-06
0.000320951
4.18315e-06
0.000318804
4.29402e-06
0.000316602
4.40181e-06
0.000314348
4.50651e-06
0.000312043
4.60813e-06
0.000309689
4.70667e-06
0.000307287
4.80212e-06
0.000304839
4.89451e-06
0.000302347
4.98386e-06
0.000299811
5.07017e-06
0.000297233
5.15347e-06
0.000294616
5.2338e-06
0.000291959
5.31117e-06
0.000289266
5.38563e-06
0.000286536
5.45721e-06
0.000283773
5.52595e-06
0.000280976
5.59189e-06
0.000278148
5.65507e-06
0.000275289
5.71555e-06
0.000272402
5.77337e-06
0.000269487
5.82858e-06
0.000266546
5.88124e-06
0.00026358
5.93139e-06
0.000260589
5.9791e-06
0.000257577
6.02442e-06
0.000254542
6.0674e-06
0.000251488
6.1081e-06
0.000248414
6.14659e-06
0.000245322
6.18292e-06
0.000242213
6.21715e-06
0.000239088
6.24935e-06
0.000235947
6.27956e-06
0.000232793
6.30786e-06
0.000229625
6.3343e-06
0.000226446
6.35895e-06
0.000223254
6.38185e-06
0.000220052
6.40309e-06
0.000216841
6.4227e-06
0.00021362
6.44075e-06
0.000210391
6.45731e-06
0.000207154
6.47242e-06
0.000203911
6.48615e-06
0.000200661
6.49855e-06
0.000197406
6.50967e-06
0.000194146
6.51958e-06
0.000190882
6.52832e-06
0.000187613
6.53595e-06
0.000184342
6.54252e-06
0.000181068
6.54809e-06
0.000177791
6.55269e-06
0.000174513
6.55639e-06
0.000171233
6.55923e-06
0.000167952
6.56125e-06
0.00016467
6.56251e-06
0.000161389
6.56304e-06
0.000158107
6.5629e-06
0.000154826
6.56212e-06
0.000151545
6.56075e-06
0.000148266
6.55883e-06
0.000144988
6.55639e-06
0.000141711
6.55348e-06
0.000138436
6.55013e-06
0.000135162
6.54638e-06
0.000131891
6.54227e-06
0.000128622
6.53783e-06
0.000125355
6.53309e-06
0.000122091
6.52808e-06
0.00011883
6.52284e-06
0.000115571
6.5174e-06
0.000112315
6.51179e-06
0.000109062
6.50602e-06
0.000105812
6.50014e-06
0.000102565
6.49417e-06
9.93209e-05
6.48812e-06
9.60798e-05
6.48203e-06
9.28419e-05
6.47593e-06
8.9607e-05
6.46982e-06
8.63751e-05
6.46374e-06
8.31463e-05
6.4577e-06
7.99204e-05
6.45173e-06
7.66975e-05
6.44583e-06
7.34775e-05
6.44004e-06
7.02604e-05
6.43437e-06
6.7046e-05
6.42882e-06
6.38343e-05
6.42343e-06
6.06253e-05
6.41821e-06
5.74187e-05
6.41316e-06
5.42146e-05
6.4083e-06
5.10129e-05
6.40364e-06
4.78133e-05
6.3992e-06
4.46159e-05
6.39499e-06
4.14204e-05
6.39101e-06
3.82269e-05
6.38728e-06
3.5035e-05
6.3838e-06
3.18448e-05
6.38059e-06
2.8656e-05
6.37764e-06
2.54686e-05
6.37497e-06
2.22824e-05
6.37258e-06
1.90972e-05
6.37048e-06
1.5913e-05
6.36867e-06
1.27295e-05
6.36716e-06
9.54657e-06
6.36595e-06
6.36412e-06
6.36503e-06
3.18199e-06
6.36442e-06
6.36412e-06
3.50092e-06
-1.05038e-05
7.00205e-06
-1.05044e-05
1.05036e-05
-1.05057e-05
1.40058e-05
-1.05075e-05
1.75088e-05
-1.051e-05
2.10128e-05
-1.05131e-05
2.45181e-05
-1.05169e-05
2.80249e-05
-1.05212e-05
3.15333e-05
-1.05261e-05
3.50435e-05
-1.05316e-05
3.85557e-05
-1.05376e-05
4.20701e-05
-1.05441e-05
4.55869e-05
-1.05512e-05
4.91062e-05
-1.05587e-05
5.26282e-05
-1.05667e-05
5.61531e-05
-1.05752e-05
5.96809e-05
-1.0584e-05
6.32118e-05
-1.05933e-05
6.67459e-05
-1.06028e-05
7.02833e-05
-1.06127e-05
7.38241e-05
-1.06229e-05
7.73685e-05
-1.06333e-05
8.09164e-05
-1.06439e-05
8.44679e-05
-1.06547e-05
8.80231e-05
-1.06656e-05
9.15819e-05
-1.06765e-05
9.51444e-05
-1.06875e-05
9.87106e-05
-1.06984e-05
0.00010228
-1.07093e-05
0.000105854
-1.07199e-05
0.000109431
-1.07304e-05
0.000113011
-1.07406e-05
0.000116595
-1.07505e-05
0.000120182
-1.07599e-05
0.000123772
-1.07689e-05
0.000127365
-1.07774e-05
0.00013096
-1.07852e-05
0.000134558
-1.07923e-05
0.000138158
-1.07987e-05
0.00014176
-1.08042e-05
0.000145363
-1.08088e-05
0.000148968
-1.08123e-05
0.000152574
-1.08148e-05
0.00015618
-1.0816e-05
0.000159786
-1.08159e-05
0.000163392
-1.08144e-05
0.000166996
-1.08115e-05
0.0001706
-1.08069e-05
0.000174201
-1.08007e-05
0.000177799
-1.07926e-05
0.000181395
-1.07827e-05
0.000184986
-1.07707e-05
0.000188573
-1.07566e-05
0.000192154
-1.07402e-05
0.000195729
-1.07216e-05
0.000199298
-1.07004e-05
0.000202858
-1.06767e-05
0.00020641
-1.06503e-05
0.000209952
-1.0621e-05
0.000213483
-1.05889e-05
0.000217003
-1.05537e-05
0.00022051
-1.05153e-05
0.000224003
-1.04737e-05
0.000227481
-1.04287e-05
0.000230943
-1.03802e-05
0.000234388
-1.03281e-05
0.000237814
-1.02722e-05
0.00024122
-1.02125e-05
0.000244606
-1.01489e-05
0.000247968
-1.00812e-05
0.000251307
-1.00094e-05
0.000254621
-9.93329e-06
0.000257907
-9.85286e-06
0.000261166
-9.768e-06
0.000264395
-9.67862e-06
0.000267592
-9.58464e-06
0.000270757
-9.48597e-06
0.000273887
-9.38256e-06
0.000276981
-9.27432e-06
0.000280037
-9.16121e-06
0.000283055
-9.04318e-06
0.000286031
-8.92016e-06
0.000288964
-8.79214e-06
0.000291853
-8.65907e-06
0.000294697
-8.52094e-06
0.000297492
-8.37772e-06
0.000300238
-8.22942e-06
0.000302933
-8.07604e-06
0.000305575
-7.91758e-06
0.000308162
-7.75407e-06
0.000310694
-7.58554e-06
0.000313167
-7.41203e-06
0.000315581
-7.23359e-06
0.000317934
-7.05027e-06
0.000320224
-6.86216e-06
0.000322449
-6.66932e-06
0.000324609
-6.47184e-06
0.000326701
-6.26984e-06
0.000328725
-6.0634e-06
0.000330678
-5.85266e-06
0.00033256
-5.63774e-06
0.000334368
-5.41878e-06
0.000336102
-5.19593e-06
0.000337761
-4.96933e-06
0.000339342
-4.73917e-06
0.000340846
-4.5056e-06
0.00034227
-4.2688e-06
0.000343615
-4.02897e-06
0.000344879
-3.78631e-06
0.00034606
-3.541e-06
0.000347159
-3.29327e-06
0.000348175
-3.04331e-06
0.000349106
-2.79136e-06
0.000349953
-2.53762e-06
0.000350714
-2.28234e-06
0.00035139
-2.02573e-06
0.00035198
-1.76803e-06
0.000352484
-1.50948e-06
0.000352901
-1.2503e-06
0.000353231
-9.90739e-07
0.000353475
-7.31028e-07
0.000353632
-4.71405e-07
0.000353702
-2.12102e-07
0.000353686
4.66472e-08
0.000353584
3.04611e-07
0.000353396
5.61564e-07
0.000353123
8.17281e-07
0.000352765
1.07154e-06
0.000352322
1.32413e-06
0.000351796
1.57485e-06
0.000351187
1.82347e-06
0.000350496
2.06981e-06
0.000349723
2.31368e-06
0.00034887
2.55489e-06
0.000347937
2.79325e-06
0.000346926
3.02861e-06
0.000345837
3.2608e-06
0.000344672
3.48967e-06
0.000343432
3.71506e-06
0.000342117
3.93684e-06
0.00034073
4.15488e-06
0.000339272
4.36907e-06
0.000337743
4.57928e-06
0.000336145
4.78543e-06
0.000334481
4.9874e-06
0.00033275
5.18513e-06
0.000330955
5.37853e-06
0.000329096
5.56753e-06
0.000327176
5.75208e-06
0.000325197
5.93213e-06
0.000323158
6.10763e-06
0.000321063
6.27855e-06
0.000318912
6.44487e-06
0.000316707
6.60656e-06
0.00031445
6.76362e-06
0.000312142
6.91605e-06
0.000309785
7.06384e-06
0.00030738
7.20701e-06
0.000304929
7.34558e-06
0.000302433
7.47957e-06
0.000299894
7.60901e-06
0.000297314
7.73393e-06
0.000294693
7.85438e-06
0.000292034
7.9704e-06
0.000289338
8.08204e-06
0.000286606
8.18936e-06
0.000283839
8.29242e-06
0.00028104
8.39127e-06
0.000278209
8.48599e-06
0.000275348
8.57665e-06
0.000272458
8.66332e-06
0.00026954
8.74607e-06
0.000266596
8.82499e-06
0.000263628
8.90015e-06
0.000260635
8.97164e-06
0.00025762
9.03954e-06
0.000254584
9.10394e-06
0.000251527
9.16493e-06
0.000248451
9.22259e-06
0.000245357
9.277e-06
0.000242245
9.32828e-06
0.000239118
9.37649e-06
0.000235976
9.42174e-06
0.00023282
9.46411e-06
0.00022965
9.5037e-06
0.000226469
9.54059e-06
0.000223276
9.57488e-06
0.000220072
9.60665e-06
0.000216859
9.636e-06
0.000213637
9.66301e-06
0.000210406
9.68777e-06
0.000207168
9.71037e-06
0.000203924
9.73089e-06
0.000200673
9.74942e-06
0.000197416
9.76603e-06
0.000194155
9.78083e-06
0.00019089
9.79387e-06
0.00018762
9.80526e-06
0.000184348
9.81505e-06
0.000181072
9.82333e-06
0.000177795
9.83018e-06
0.000174516
9.83567e-06
0.000171235
9.83986e-06
0.000167953
9.84284e-06
0.000164671
9.84467e-06
0.000161389
9.84542e-06
0.000158107
9.84515e-06
0.000154825
9.84393e-06
0.000151544
9.84182e-06
0.000148264
9.83889e-06
0.000144985
9.83518e-06
0.000141708
9.83077e-06
0.000138432
9.8257e-06
0.000135158
9.82004e-06
0.000131887
9.81383e-06
0.000128618
9.80712e-06
0.000125351
9.79997e-06
0.000122086
9.79242e-06
0.000118825
9.78453e-06
0.000115566
9.77633e-06
0.00011231
9.76787e-06
0.000109056
9.75919e-06
0.000105806
9.75034e-06
0.000102559
9.74134e-06
9.9315e-05
9.73225e-06
9.60739e-05
9.72309e-06
9.2836e-05
9.7139e-06
8.96011e-05
9.70471e-06
8.63693e-05
9.69556e-06
8.31405e-05
9.68648e-06
7.99147e-05
9.67749e-06
7.66919e-05
9.66863e-06
7.3472e-05
9.65992e-06
7.0255e-05
9.65139e-06
6.70408e-05
9.64306e-06
6.38292e-05
9.63495e-06
6.06204e-05
9.6271e-06
5.7414e-05
9.61951e-06
5.42101e-05
9.6122e-06
5.10085e-05
9.60521e-06
4.78092e-05
9.59853e-06
4.4612e-05
9.5922e-06
4.14168e-05
9.58622e-06
3.82235e-05
9.58061e-06
3.50319e-05
9.57538e-06
3.18419e-05
9.57055e-06
2.86534e-05
9.56612e-06
2.54663e-05
9.56211e-06
2.22804e-05
9.55852e-06
1.90955e-05
9.55537e-06
1.59115e-05
9.55265e-06
1.27283e-05
9.55038e-06
9.54567e-06
9.54855e-06
6.36353e-06
9.54718e-06
3.18169e-06
9.54626e-06
9.54581e-06
3.5003e-06
-1.40041e-05
7.00081e-06
-1.40049e-05
1.05017e-05
-1.40066e-05
1.40033e-05
-1.40091e-05
1.75057e-05
-1.40124e-05
2.10092e-05
-1.40166e-05
2.45139e-05
-1.40216e-05
2.80201e-05
-1.40274e-05
3.15279e-05
-1.40339e-05
3.50376e-05
-1.40412e-05
3.85493e-05
-1.40493e-05
4.20632e-05
-1.4058e-05
4.55795e-05
-1.40675e-05
4.90983e-05
-1.40776e-05
5.26199e-05
-1.40883e-05
5.61443e-05
-1.40996e-05
5.96717e-05
-1.41114e-05
6.32023e-05
-1.41238e-05
6.67361e-05
-1.41366e-05
7.02732e-05
-1.41499e-05
7.38138e-05
-1.41635e-05
7.7358e-05
-1.41775e-05
8.09057e-05
-1.41917e-05
8.44571e-05
-1.42061e-05
8.80123e-05
-1.42207e-05
9.15711e-05
-1.42354e-05
9.51337e-05
-1.42501e-05
9.87e-05
-1.42647e-05
0.00010227
-1.42792e-05
0.000105844
-1.42936e-05
0.000109421
-1.43076e-05
0.000113002
-1.43213e-05
0.000116586
-1.43346e-05
0.000120173
-1.43473e-05
0.000123764
-1.43594e-05
0.000127357
-1.43708e-05
0.000130953
-1.43813e-05
0.000134552
-1.4391e-05
0.000138153
-1.43996e-05
0.000141756
-1.44071e-05
0.00014536
-1.44133e-05
0.000148966
-1.44182e-05
0.000152573
-1.44216e-05
0.00015618
-1.44233e-05
0.000159788
-1.44234e-05
0.000163395
-1.44216e-05
0.000167001
-1.44178e-05
0.000170606
-1.44119e-05
0.000174209
-1.44037e-05
0.00017781
-1.43931e-05
0.000181407
-1.438e-05
0.000185
-1.43642e-05
0.000188589
-1.43456e-05
0.000192173
-1.4324e-05
0.000195751
-1.42992e-05
0.000199322
-1.42712e-05
0.000202885
-1.42398e-05
0.000206439
-1.42047e-05
0.000209984
-1.41659e-05
0.000213519
-1.41232e-05
0.000217041
-1.40765e-05
0.000220552
-1.40255e-05
0.000224048
-1.39702e-05
0.00022753
-1.39104e-05
0.000230995
-1.38459e-05
0.000234444
-1.37766e-05
0.000237874
-1.37022e-05
0.000241284
-1.36228e-05
0.000244674
-1.35381e-05
0.00024804
-1.34481e-05
0.000251383
-1.33524e-05
0.000254701
-1.32511e-05
0.000257993
-1.31441e-05
0.000261256
-1.3031e-05
0.000264489
-1.2912e-05
0.000267691
-1.27868e-05
0.00027086
-1.26554e-05
0.000273995
-1.25176e-05
0.000277094
-1.23733e-05
0.000280156
-1.22226e-05
0.000283178
-1.20653e-05
0.000286159
-1.19013e-05
0.000289098
-1.17307e-05
0.000291992
-1.15533e-05
0.00029484
-1.13691e-05
0.000297641
-1.11782e-05
0.000300392
-1.09805e-05
0.000303092
-1.07759e-05
0.000305739
-1.05646e-05
0.000308331
-1.03466e-05
0.000310867
-1.01218e-05
0.000313346
-9.89037e-06
0.000315765
-9.65235e-06
0.000318122
-9.40783e-06
0.000320417
-9.15688e-06
0.000322647
-8.89962e-06
0.000324811
-8.63617e-06
0.000326908
-8.36666e-06
0.000328936
-8.09123e-06
0.000330893
-7.81005e-06
0.000332779
-7.52327e-06
0.000334591
-7.2311e-06
0.000336329
-6.93372e-06
0.000337991
-6.63134e-06
0.000339576
-6.32418e-06
0.000341083
-6.01247e-06
0.000342511
-5.69646e-06
0.000343858
-5.37638e-06
0.000345124
-5.05251e-06
0.000346308
-4.72512e-06
0.00034741
-4.39447e-06
0.000348427
-4.06086e-06
0.00034936
-3.72458e-06
0.000350209
-3.38591e-06
0.000350971
-3.04518e-06
0.000351648
-2.70267e-06
0.000352239
-2.35871e-06
0.000352743
-2.01361e-06
0.000353161
-1.66767e-06
0.000353491
-1.32122e-06
0.000353735
-9.74576e-07
0.000353891
-6.28047e-07
0.000353961
-2.81948e-07
0.000353944
6.34081e-08
0.000353841
4.07713e-07
0.000353652
7.50665e-07
0.000353377
1.09196e-06
0.000353018
1.43131e-06
0.000352573
1.76843e-06
0.000352045
2.10303e-06
0.000351434
2.43483e-06
0.00035074
2.76359e-06
0.000349965
3.08903e-06
0.000349109
3.41092e-06
0.000348173
3.72901e-06
0.000347159
4.04307e-06
0.000346066
4.3529e-06
0.000344898
4.65827e-06
0.000343654
4.95901e-06
0.000342336
5.25492e-06
0.000340945
5.54583e-06
0.000339482
5.83159e-06
0.00033795
6.11203e-06
0.000336348
6.38704e-06
0.000334679
6.65647e-06
0.000332944
6.92023e-06
0.000331144
7.17819e-06
0.000329281
7.43029e-06
0.000327357
7.67644e-06
0.000325373
7.91657e-06
0.00032333
8.15062e-06
0.00032123
8.37856e-06
0.000319074
8.60034e-06
0.000316865
8.81595e-06
0.000314603
9.02537e-06
0.00031229
9.2286e-06
0.000309929
9.42564e-06
0.000307519
9.61651e-06
0.000305063
9.80123e-06
0.000302563
9.97983e-06
0.00030002
1.01524e-05
0.000297435
1.03189e-05
0.00029481
1.04794e-05
0.000292146
1.0634e-05
0.000289446
1.07828e-05
0.000286709
1.09258e-05
0.000283938
1.10631e-05
0.000281135
1.11948e-05
0.0002783
1.1321e-05
0.000275435
1.14417e-05
0.000272541
1.15572e-05
0.00026962
1.16674e-05
0.000266672
1.17725e-05
0.0002637
1.18726e-05
0.000260704
1.19678e-05
0.000257685
1.20582e-05
0.000254645
1.21439e-05
0.000251585
1.22251e-05
0.000248506
1.23018e-05
0.000245408
1.23742e-05
0.000242294
1.24425e-05
0.000239164
1.25066e-05
0.000236019
1.25668e-05
0.00023286
1.26232e-05
0.000229688
1.26758e-05
0.000226504
1.27248e-05
0.000223308
1.27704e-05
0.000220102
1.28126e-05
0.000216887
1.28516e-05
0.000213662
1.28875e-05
0.000210429
1.29204e-05
0.000207189
1.29504e-05
0.000203943
1.29776e-05
0.00020069
1.30022e-05
0.000197432
1.30242e-05
0.000194169
1.30438e-05
0.000190901
1.30611e-05
0.000187631
1.30762e-05
0.000184356
1.30891e-05
0.00018108
1.31e-05
0.000177801
1.3109e-05
0.00017452
1.31162e-05
0.000171239
1.31217e-05
0.000167956
1.31256e-05
0.000164673
1.31279e-05
0.000161389
1.31288e-05
0.000158106
1.31284e-05
0.000154823
1.31266e-05
0.000151541
1.31237e-05
0.00014826
1.31197e-05
0.000144981
1.31147e-05
0.000141703
1.31087e-05
0.000138427
1.31019e-05
0.000135153
1.30942e-05
0.000131881
1.30859e-05
0.000128611
1.30769e-05
0.000125344
1.30673e-05
0.000122079
1.30571e-05
0.000118817
1.30465e-05
0.000115558
1.30355e-05
0.000112301
1.30242e-05
0.000109048
1.30125e-05
0.000105798
1.30007e-05
0.00010255
1.29886e-05
9.93062e-05
1.29764e-05
9.60651e-05
1.29642e-05
9.28271e-05
1.29519e-05
8.95922e-05
1.29396e-05
8.63605e-05
1.29273e-05
8.31318e-05
1.29152e-05
7.99061e-05
1.29031e-05
7.66835e-05
1.28913e-05
7.34637e-05
1.28796e-05
7.02469e-05
1.28682e-05
6.70329e-05
1.28571e-05
6.38216e-05
1.28462e-05
6.0613e-05
1.28357e-05
5.74069e-05
1.28256e-05
5.42033e-05
1.28158e-05
5.1002e-05
1.28065e-05
4.7803e-05
1.27975e-05
4.46062e-05
1.27891e-05
4.14113e-05
1.27811e-05
3.82184e-05
1.27736e-05
3.50272e-05
1.27666e-05
3.18376e-05
1.27601e-05
2.86495e-05
1.27542e-05
2.54628e-05
1.27488e-05
2.22773e-05
1.2744e-05
1.90928e-05
1.27398e-05
1.59093e-05
1.27362e-05
1.27265e-05
1.27332e-05
9.54433e-06
1.27307e-05
6.36263e-06
1.27289e-05
3.18124e-06
1.27277e-05
1.2727e-05
3.49946e-06
-1.75036e-05
6.99913e-06
-1.75046e-05
1.04992e-05
-1.75067e-05
1.4e-05
-1.75098e-05
1.75016e-05
-1.7514e-05
2.10042e-05
-1.75193e-05
2.45082e-05
-1.75255e-05
2.80136e-05
-1.75328e-05
3.15206e-05
-1.7541e-05
3.50296e-05
-1.75502e-05
3.85406e-05
-1.75603e-05
4.20538e-05
-1.75713e-05
4.55695e-05
-1.75831e-05
4.90877e-05
-1.75958e-05
5.26087e-05
-1.76093e-05
5.61326e-05
-1.76235e-05
5.96595e-05
-1.76384e-05
6.31896e-05
-1.76539e-05
6.6723e-05
-1.767e-05
7.02598e-05
-1.76867e-05
7.38001e-05
-1.77038e-05
7.73439e-05
-1.77214e-05
8.08915e-05
-1.77392e-05
8.44427e-05
-1.77574e-05
8.79978e-05
-1.77757e-05
9.15566e-05
-1.77942e-05
9.51192e-05
-1.78127e-05
9.86856e-05
-1.78311e-05
0.000102256
-1.78494e-05
0.00010583
-1.78675e-05
0.000109407
-1.78852e-05
0.000112989
-1.79025e-05
0.000116573
-1.79192e-05
0.000120161
-1.79353e-05
0.000123752
-1.79506e-05
0.000127347
-1.7965e-05
0.000130944
-1.79784e-05
0.000134543
-1.79907e-05
0.000138145
-1.80016e-05
0.00014175
-1.80112e-05
0.000145356
-1.80192e-05
0.000148963
-1.80255e-05
0.000152571
-1.803e-05
0.00015618
-1.80324e-05
0.00015979
-1.80327e-05
0.000163399
-1.80307e-05
0.000167007
-1.80262e-05
0.000170615
-1.80191e-05
0.00017422
-1.80092e-05
0.000177823
-1.79962e-05
0.000181423
-1.79801e-05
0.000185019
-1.79606e-05
0.000188611
-1.79376e-05
0.000192198
-1.79109e-05
0.000195779
-1.78802e-05
0.000199354
-1.78455e-05
0.00020292
-1.78064e-05
0.000206478
-1.77629e-05
0.000210027
-1.77147e-05
0.000213566
-1.76617e-05
0.000217093
-1.76035e-05
0.000220607
-1.75401e-05
0.000224108
-1.74713e-05
0.000227595
-1.73968e-05
0.000231065
-1.73164e-05
0.000234519
-1.723e-05
0.000237954
-1.71374e-05
0.000241369
-1.70384e-05
0.000244764
-1.69328e-05
0.000248136
-1.68205e-05
0.000251485
-1.67012e-05
0.000254809
-1.65748e-05
0.000258106
-1.64412e-05
0.000261375
-1.63001e-05
0.000264615
-1.61515e-05
0.000267823
-1.59952e-05
0.000270999
-1.58311e-05
0.00027414
-1.5659e-05
0.000277246
-1.54789e-05
0.000280314
-1.52906e-05
0.000283342
-1.50941e-05
0.00028633
-1.48892e-05
0.000289276
-1.4676e-05
0.000292177
-1.44543e-05
0.000295032
-1.42241e-05
0.000297839
-1.39855e-05
0.000300597
-1.37383e-05
0.000303303
-1.34826e-05
0.000305957
-1.32184e-05
0.000308556
-1.29458e-05
0.000311099
-1.26647e-05
0.000313584
-1.23753e-05
0.00031601
-1.20776e-05
0.000318373
-1.17718e-05
0.000320675
-1.14579e-05
0.000322911
-1.11361e-05
0.000325081
-1.08066e-05
0.000327184
-1.04694e-05
0.000329218
-1.01248e-05
0.000331181
-9.77302e-06
0.000333072
-9.41421e-06
0.000334889
-9.04862e-06
0.000336632
-8.6765e-06
0.000338299
-8.29812e-06
0.000339888
-7.91374e-06
0.000341399
-7.52366e-06
0.000342831
-7.12817e-06
0.000344182
-6.72759e-06
0.000345452
-6.32225e-06
0.00034664
-5.91249e-06
0.000347744
-5.49865e-06
0.000348764
-5.08109e-06
0.0003497
-4.66017e-06
0.00035055
-4.23628e-06
0.000351314
-3.80979e-06
0.000351993
-3.38108e-06
0.000352585
-2.95054e-06
0.00035309
-2.51857e-06
0.000353508
-2.08556e-06
0.000353838
-1.65191e-06
0.000354082
-1.21801e-06
0.000354238
-7.84263e-07
0.000354307
-3.51057e-07
0.000354289
8.1214e-08
0.000354185
5.12164e-07
0.000353994
9.41413e-07
0.000353717
1.36858e-06
0.000353355
1.79331e-06
0.000352909
2.21523e-06
0.000352378
2.63399e-06
0.000351763
3.04925e-06
0.000351066
3.46067e-06
0.000350287
3.86794e-06
0.000349427
4.27074e-06
0.000348488
4.66877e-06
0.000347469
5.06176e-06
0.000346372
5.44943e-06
0.000345199
5.83152e-06
0.00034395
6.20778e-06
0.000342627
6.57799e-06
0.000341231
6.94193e-06
0.000339763
7.29941e-06
0.000338225
7.65022e-06
0.000336618
7.99421e-06
0.000334943
8.33122e-06
0.000333202
8.6611e-06
0.000331397
8.98373e-06
0.000329528
9.299e-06
0.000327598
9.60681e-06
0.000325607
9.90707e-06
0.000323558
1.01997e-05
0.000321452
1.04847e-05
0.00031929
1.0762e-05
0.000317075
1.10315e-05
0.000314807
1.12933e-05
0.000312488
1.15473e-05
0.00031012
1.17936e-05
0.000307705
1.20321e-05
0.000305243
1.2263e-05
0.000302736
1.24862e-05
0.000300187
1.27017e-05
0.000297596
1.29098e-05
0.000294965
1.31103e-05
0.000292296
1.33035e-05
0.000289589
1.34893e-05
0.000286847
1.36679e-05
0.000284071
1.38394e-05
0.000281262
1.40038e-05
0.000278422
1.41614e-05
0.000275551
1.43122e-05
0.000272652
1.44563e-05
0.000269726
1.45938e-05
0.000266773
1.4725e-05
0.000263796
1.48499e-05
0.000260795
1.49687e-05
0.000257772