/*--------------------------------*- C++ -*----------------------------------*\
| =========                 |                                                 |
| \\      /  F ield         | OpenFOAM: The Open Source CFD Toolbox           |
|  \\    /   O peration     | Version:  v2012                                 |
|   \\  /    A nd           | Website:  www.openfoam.com                      |
|    \\/     M anipulation  |                                                 |
\*---------------------------------------------------------------------------*/
FoamFile
{
    version     2.0;
    format      ascii;
    class       volVectorField;
    location    "13.5";
    object      U;
}
// * * * * * * * * * * * * * * * * * * * * * * * * * * * * * * * * * * * * * //

dimensions      [0 1 -1 0 0 0 0];


internalField   nonuniform List<vector> 
65536
(
(0.000713317 -0.000713346 0)
(0.00214002 -0.000713377 0)
(0.00356681 -0.000713472 0)
(0.0049938 -0.000713602 0)
(0.00642111 -0.000713772 0)
(0.0078488 -0.000713984 0)
(0.00927696 -0.000714237 0)
(0.0107057 -0.000714529 0)
(0.012135 -0.00071486 0)
(0.013565 -0.000715229 0)
(0.0149958 -0.000715635 0)
(0.0164275 -0.000716078 0)
(0.01786 -0.000716554 0)
(0.0192936 -0.000717064 0)
(0.0207282 -0.000717605 0)
(0.0221639 -0.000718175 0)
(0.0236008 -0.000718773 0)
(0.0250389 -0.000719397 0)
(0.0264783 -0.000720044 0)
(0.027919 -0.000720712 0)
(0.0293611 -0.000721399 0)
(0.0308046 -0.000722102 0)
(0.0322495 -0.000722818 0)
(0.0336958 -0.000723545 0)
(0.0351436 -0.000724279 0)
(0.0365928 -0.000725017 0)
(0.0380436 -0.000725755 0)
(0.0394958 -0.000726491 0)
(0.0409495 -0.00072722 0)
(0.0424046 -0.000727939 0)
(0.0438612 -0.000728643 0)
(0.0453192 -0.000729329 0)
(0.0467785 -0.000729991 0)
(0.0482391 -0.000730626 0)
(0.049701 -0.000731229 0)
(0.051164 -0.000731795 0)
(0.0526282 -0.000732318 0)
(0.0540933 -0.000732794 0)
(0.0555593 -0.000733218 0)
(0.0570262 -0.000733583 0)
(0.0584937 -0.000733884 0)
(0.0599617 -0.000734115 0)
(0.0614302 -0.00073427 0)
(0.0628988 -0.000734344 0)
(0.0643676 -0.000734328 0)
(0.0658362 -0.000734218 0)
(0.0673045 -0.000734006 0)
(0.0687723 -0.000733686 0)
(0.0702393 -0.00073325 0)
(0.0717053 -0.000732691 0)
(0.0731701 -0.000732003 0)
(0.0746334 -0.000731178 0)
(0.0760949 -0.000730208 0)
(0.0775544 -0.000729087 0)
(0.0790114 -0.000727805 0)
(0.0804657 -0.000726357 0)
(0.0819169 -0.000724733 0)
(0.0833648 -0.000722927 0)
(0.0848088 -0.00072093 0)
(0.0862486 -0.000718734 0)
(0.0876839 -0.000716332 0)
(0.0891141 -0.000713715 0)
(0.0905389 -0.000710876 0)
(0.0919578 -0.000707808 0)
(0.0933703 -0.000704501 0)
(0.094776 -0.000700949 0)
(0.0961743 -0.000697145 0)
(0.0975648 -0.00069308 0)
(0.0989468 -0.000688748 0)
(0.10032 -0.000684141 0)
(0.101684 -0.000679252 0)
(0.103037 -0.000674076 0)
(0.10438 -0.000668605 0)
(0.105712 -0.000662833 0)
(0.107032 -0.000656755 0)
(0.108339 -0.000650364 0)
(0.109633 -0.000643657 0)
(0.110914 -0.000636627 0)
(0.11218 -0.000629271 0)
(0.113431 -0.000621585 0)
(0.114667 -0.000613565 0)
(0.115886 -0.000605207 0)
(0.117088 -0.000596511 0)
(0.118272 -0.000587472 0)
(0.119438 -0.00057809 0)
(0.120585 -0.000568365 0)
(0.121712 -0.000558295 0)
(0.122818 -0.00054788 0)
(0.123904 -0.000537122 0)
(0.124967 -0.000526022 0)
(0.126008 -0.000514582 0)
(0.127026 -0.000502805 0)
(0.12802 -0.000490695 0)
(0.128989 -0.000478254 0)
(0.129933 -0.000465488 0)
(0.130851 -0.000452403 0)
(0.131743 -0.000439004 0)
(0.132607 -0.000425298 0)
(0.133444 -0.000411293 0)
(0.134253 -0.000396996 0)
(0.135032 -0.000382417 0)
(0.135783 -0.000367564 0)
(0.136503 -0.000352447 0)
(0.137193 -0.000337078 0)
(0.137851 -0.000321467 0)
(0.138479 -0.000305625 0)
(0.139074 -0.000289566 0)
(0.139637 -0.000273301 0)
(0.140167 -0.000256844 0)
(0.140665 -0.000240209 0)
(0.141128 -0.000223409 0)
(0.141558 -0.000206459 0)
(0.141954 -0.000189373 0)
(0.142316 -0.000172167 0)
(0.142643 -0.000154857 0)
(0.142935 -0.000137456 0)
(0.143193 -0.000119982 0)
(0.143415 -0.00010245 0)
(0.143603 -8.48756e-05 0)
(0.143755 -6.72751e-05 0)
(0.143872 -4.96645e-05 0)
(0.143953 -3.20596e-05 0)
(0.144 -1.44763e-05 0)
(0.144011 3.06966e-06 0)
(0.143988 2.05626e-05 0)
(0.143929 3.79872e-05 0)
(0.143836 5.53284e-05 0)
(0.143707 7.25712e-05 0)
(0.143545 8.97012e-05 0)
(0.143349 0.000106704 0)
(0.143118 0.000123566 0)
(0.142854 0.000140274 0)
(0.142557 0.000156814 0)
(0.142227 0.000173174 0)
(0.141864 0.000189342 0)
(0.141469 0.000205307 0)
(0.141042 0.000221058 0)
(0.140584 0.000236583 0)
(0.140096 0.000251874 0)
(0.139577 0.00026692 0)
(0.139028 0.000281714 0)
(0.138449 0.000296247 0)
(0.137842 0.000310511 0)
(0.137207 0.000324499 0)
(0.136544 0.000338205 0)
(0.135854 0.000351624 0)
(0.135137 0.000364749 0)
(0.134395 0.000377578 0)
(0.133627 0.000390104 0)
(0.132834 0.000402326 0)
(0.132017 0.00041424 0)
(0.131177 0.000425844 0)
(0.130313 0.000437136 0)
(0.129428 0.000448115 0)
(0.12852 0.00045878 0)
(0.127592 0.000469131 0)
(0.126643 0.000479168 0)
(0.125675 0.000488892 0)
(0.124688 0.000498305 0)
(0.123681 0.000507406 0)
(0.122658 0.0005162 0)
(0.121616 0.000524687 0)
(0.120558 0.000532871 0)
(0.119484 0.000540755 0)
(0.118395 0.000548342 0)
(0.117291 0.000555636 0)
(0.116172 0.000562641 0)
(0.11504 0.000569361 0)
(0.113894 0.000575801 0)
(0.112736 0.000581965 0)
(0.111566 0.000587859 0)
(0.110385 0.000593487 0)
(0.109192 0.000598854 0)
(0.107989 0.000603967 0)
(0.106776 0.000608831 0)
(0.105553 0.000613451 0)
(0.104322 0.000617833 0)
(0.103082 0.000621984 0)
(0.101833 0.000625909 0)
(0.100578 0.000629614 0)
(0.0993147 0.000633106 0)
(0.098045 0.000636389 0)
(0.0967689 0.000639472 0)
(0.0954868 0.000642359 0)
(0.0941992 0.000645057 0)
(0.0929064 0.000647572 0)
(0.0916087 0.00064991 0)
(0.0903065 0.000652077 0)
(0.0890002 0.000654079 0)
(0.08769 0.000655923 0)
(0.0863763 0.000657614 0)
(0.0850593 0.000659157 0)
(0.0837394 0.00066056 0)
(0.0824169 0.000661827 0)
(0.0810919 0.000662964 0)
(0.0797649 0.000663978 0)
(0.0784359 0.000664872 0)
(0.0771052 0.000665654 0)
(0.0757731 0.000666327 0)
(0.0744397 0.000666898 0)
(0.0731053 0.00066737 0)
(0.0717701 0.000667751 0)
(0.0704342 0.000668043 0)
(0.0690978 0.000668253 0)
(0.0677611 0.000668385 0)
(0.0664241 0.000668442 0)
(0.0650872 0.000668431 0)
(0.0637503 0.000668355 0)
(0.0624137 0.000668218 0)
(0.0610773 0.000668025 0)
(0.0597414 0.00066778 0)
(0.0584061 0.000667487 0)
(0.0570714 0.000667148 0)
(0.0557374 0.000666769 0)
(0.0544042 0.000666353 0)
(0.0530719 0.000665903 0)
(0.0517406 0.000665423 0)
(0.0504102 0.000664915 0)
(0.0490808 0.000664384 0)
(0.0477526 0.000663832 0)
(0.0464254 0.000663262 0)
(0.0450995 0.000662677 0)
(0.0437747 0.00066208 0)
(0.0424511 0.000661473 0)
(0.0411287 0.000660859 0)
(0.0398076 0.000660241 0)
(0.0384877 0.000659621 0)
(0.0371691 0.000659 0)
(0.0358517 0.000658382 0)
(0.0345355 0.000657769 0)
(0.0332205 0.000657162 0)
(0.0319068 0.000656563 0)
(0.0305943 0.000655974 0)
(0.0292829 0.000655398 0)
(0.0279726 0.000654834 0)
(0.0266635 0.000654286 0)
(0.0253555 0.000653755 0)
(0.0240485 0.000653242 0)
(0.0227425 0.000652748 0)
(0.0214374 0.000652274 0)
(0.0201333 0.000651823 0)
(0.0188301 0.000651395 0)
(0.0175277 0.00065099 0)
(0.0162261 0.000650611 0)
(0.0149253 0.000650257 0)
(0.0136251 0.00064993 0)
(0.0123255 0.00064963 0)
(0.0110266 0.000649359 0)
(0.00972809 0.000649116 0)
(0.00843008 0.000648903 0)
(0.00713247 0.000648719 0)
(0.00583519 0.000648565 0)
(0.00453819 0.000648441 0)
(0.00324141 0.000648348 0)
(0.00194479 0.000648286 0)
(0.000648257 0.000648255 0)
(0.000713286 -0.00213996 0)
(0.00213989 -0.00214008 0)
(0.0035666 -0.00214035 0)
(0.00499352 -0.00214074 0)
(0.00642075 -0.00214125 0)
(0.00784836 -0.00214188 0)
(0.00927643 -0.00214264 0)
(0.0107051 -0.00214352 0)
(0.0121343 -0.00214451 0)
(0.0135642 -0.00214562 0)
(0.014995 -0.00214684 0)
(0.0164266 -0.00214817 0)
(0.0178591 -0.0021496 0)
(0.0192926 -0.00215113 0)
(0.0207271 -0.00215276 0)
(0.0221628 -0.00215447 0)
(0.0235996 -0.00215627 0)
(0.0250377 -0.00215814 0)
(0.026477 -0.00216008 0)
(0.0279177 -0.00216209 0)
(0.0293597 -0.00216415 0)
(0.0308032 -0.00216627 0)
(0.032248 -0.00216842 0)
(0.0336943 -0.0021706 0)
(0.0351421 -0.00217281 0)
(0.0365914 -0.00217502 0)
(0.0380421 -0.00217724 0)
(0.0394944 -0.00217945 0)
(0.0409481 -0.00218164 0)
(0.0424032 -0.0021838 0)
(0.0438599 -0.00218592 0)
(0.0453179 -0.00218798 0)
(0.0467772 -0.00218997 0)
(0.0482379 -0.00219188 0)
(0.0496998 -0.0021937 0)
(0.051163 -0.0021954 0)
(0.0526272 -0.00219698 0)
(0.0540924 -0.00219841 0)
(0.0555586 -0.00219969 0)
(0.0570255 -0.00220079 0)
(0.0584932 -0.0022017 0)
(0.0599614 -0.0022024 0)
(0.06143 -0.00220287 0)
(0.0628988 -0.00220309 0)
(0.0643677 -0.00220305 0)
(0.0658365 -0.00220273 0)
(0.0673051 -0.0022021 0)
(0.0687731 -0.00220115 0)
(0.0702403 -0.00219985 0)
(0.0717066 -0.00219818 0)
(0.0731717 -0.00219612 0)
(0.0746353 -0.00219365 0)
(0.0760971 -0.00219075 0)
(0.0775568 -0.00218739 0)
(0.0790142 -0.00218356 0)
(0.0804688 -0.00217922 0)
(0.0819204 -0.00217436 0)
(0.0833686 -0.00216895 0)
(0.084813 -0.00216296 0)
(0.0862533 -0.00215638 0)
(0.0876889 -0.00214918 0)
(0.0891196 -0.00214134 0)
(0.0905449 -0.00213283 0)
(0.0919642 -0.00212363 0)
(0.0933772 -0.00211372 0)
(0.0947834 -0.00210308 0)
(0.0961822 -0.00209167 0)
(0.0975732 -0.00207948 0)
(0.0989558 -0.00206649 0)
(0.10033 -0.00205268 0)
(0.101694 -0.00203802 0)
(0.103048 -0.0020225 0)
(0.104391 -0.00200609 0)
(0.105724 -0.00198878 0)
(0.107044 -0.00197055 0)
(0.108352 -0.00195138 0)
(0.109647 -0.00193127 0)
(0.110928 -0.00191018 0)
(0.112195 -0.00188812 0)
(0.113447 -0.00186506 0)
(0.114683 -0.001841 0)
(0.115903 -0.00181593 0)
(0.117106 -0.00178984 0)
(0.118291 -0.00176273 0)
(0.119457 -0.00173459 0)
(0.120605 -0.00170541 0)
(0.121732 -0.0016752 0)
(0.12284 -0.00164395 0)
(0.123926 -0.00161168 0)
(0.12499 -0.00157838 0)
(0.126031 -0.00154405 0)
(0.12705 -0.00150872 0)
(0.128044 -0.00147238 0)
(0.129014 -0.00143506 0)
(0.129959 -0.00139675 0)
(0.130878 -0.00135749 0)
(0.13177 -0.00131729 0)
(0.132635 -0.00127616 0)
(0.133473 -0.00123414 0)
(0.134282 -0.00119124 0)
(0.135062 -0.00114749 0)
(0.135813 -0.00110292 0)
(0.136533 -0.00105756 0)
(0.137224 -0.00101144 0)
(0.137883 -0.000964597 0)
(0.138511 -0.00091706 0)
(0.139106 -0.000868868 0)
(0.13967 -0.00082006 0)
(0.140201 -0.000770676 0)
(0.140698 -0.000720755 0)
(0.141162 -0.000670341 0)
(0.141592 -0.000619476 0)
(0.141989 -0.000568204 0)
(0.142351 -0.000516571 0)
(0.142678 -0.000464623 0)
(0.14297 -0.000412407 0)
(0.143228 -0.000359968 0)
(0.143451 -0.000307355 0)
(0.143638 -0.000254616 0)
(0.14379 -0.000201799 0)
(0.143907 -0.000148951 0)
(0.143989 -9.61204e-05 0)
(0.144035 -4.33548e-05 0)
(0.144046 9.29859e-06 0)
(0.144023 6.17929e-05 0)
(0.143964 0.000114082 0)
(0.14387 0.00016612 0)
(0.143742 0.000217863 0)
(0.143579 0.000269268 0)
(0.143382 0.00032029 0)
(0.143152 0.000370889 0)
(0.142887 0.000421025 0)
(0.14259 0.000470658 0)
(0.142259 0.000519751 0)
(0.141896 0.000568267 0)
(0.141501 0.000616173 0)
(0.141074 0.000663435 0)
(0.140615 0.000710021 0)
(0.140126 0.000755902 0)
(0.139607 0.00080105 0)
(0.139057 0.000845439 0)
(0.138478 0.000889044 0)
(0.137871 0.000931843 0)
(0.137235 0.000973814 0)
(0.136571 0.00101494 0)
(0.135881 0.0010552 0)
(0.135163 0.00109458 0)
(0.13442 0.00113307 0)
(0.133651 0.00117065 0)
(0.132858 0.00120732 0)
(0.132041 0.00124306 0)
(0.131199 0.00127788 0)
(0.130336 0.00131175 0)
(0.129449 0.00134469 0)
(0.128541 0.00137669 0)
(0.127613 0.00140774 0)
(0.126663 0.00143785 0)
(0.125694 0.00146702 0)
(0.124706 0.00149526 0)
(0.123699 0.00152256 0)
(0.122675 0.00154894 0)
(0.121633 0.0015744 0)
(0.120575 0.00159895 0)
(0.1195 0.00162259 0)
(0.11841 0.00164535 0)
(0.117305 0.00166723 0)
(0.116186 0.00168824 0)
(0.115053 0.00170839 0)
(0.113907 0.00172771 0)
(0.112748 0.0017462 0)
(0.111578 0.00176387 0)
(0.110396 0.00178075 0)
(0.109202 0.00179685 0)
(0.107999 0.00181218 0)
(0.106785 0.00182676 0)
(0.105562 0.00184062 0)
(0.10433 0.00185376 0)
(0.10309 0.00186621 0)
(0.101841 0.00187797 0)
(0.100585 0.00188908 0)
(0.0993215 0.00189955 0)
(0.0980514 0.0019094 0)
(0.0967749 0.00191864 0)
(0.0954925 0.00192729 0)
(0.0942045 0.00193538 0)
(0.0929113 0.00194292 0)
(0.0916133 0.00194993 0)
(0.0903107 0.00195642 0)
(0.0890041 0.00196242 0)
(0.0876936 0.00196795 0)
(0.0863796 0.00197301 0)
(0.0850623 0.00197764 0)
(0.0837422 0.00198184 0)
(0.0824194 0.00198564 0)
(0.0810942 0.00198904 0)
(0.0797668 0.00199208 0)
(0.0784376 0.00199476 0)
(0.0771067 0.00199709 0)
(0.0757744 0.00199911 0)
(0.0744408 0.00200081 0)
(0.0731063 0.00200223 0)
(0.0717708 0.00200336 0)
(0.0704348 0.00200424 0)
(0.0690982 0.00200486 0)
(0.0677613 0.00200525 0)
(0.0664243 0.00200542 0)
(0.0650872 0.00200538 0)
(0.0637502 0.00200515 0)
(0.0624134 0.00200474 0)
(0.0610769 0.00200415 0)
(0.059741 0.00200341 0)
(0.0584055 0.00200253 0)
(0.0570707 0.00200151 0)
(0.0557367 0.00200037 0)
(0.0544034 0.00199912 0)
(0.0530711 0.00199776 0)
(0.0517396 0.00199632 0)
(0.0504092 0.00199479 0)
(0.0490798 0.0019932 0)
(0.0477515 0.00199154 0)
(0.0464243 0.00198982 0)
(0.0450983 0.00198807 0)
(0.0437735 0.00198627 0)
(0.0424499 0.00198445 0)
(0.0411275 0.00198261 0)
(0.0398064 0.00198075 0)
(0.0384865 0.00197889 0)
(0.0371679 0.00197702 0)
(0.0358505 0.00197517 0)
(0.0345343 0.00197332 0)
(0.0332194 0.0019715 0)
(0.0319056 0.0019697 0)
(0.0305931 0.00196793 0)
(0.0292818 0.0019662 0)
(0.0279715 0.00196451 0)
(0.0266625 0.00196287 0)
(0.0253544 0.00196127 0)
(0.0240475 0.00195973 0)
(0.0227415 0.00195825 0)
(0.0214365 0.00195682 0)
(0.0201325 0.00195547 0)
(0.0188293 0.00195418 0)
(0.017527 0.00195297 0)
(0.0162254 0.00195183 0)
(0.0149246 0.00195077 0)
(0.0136245 0.00194979 0)
(0.012325 0.00194889 0)
(0.0110261 0.00194807 0)
(0.00972765 0.00194734 0)
(0.00842969 0.0019467 0)
(0.00713214 0.00194615 0)
(0.00583492 0.00194569 0)
(0.00453798 0.00194532 0)
(0.00324126 0.00194504 0)
(0.0019447 0.00194485 0)
(0.000648227 0.00194476 0)
(0.000713189 -0.00356648 0)
(0.00213962 -0.00356669 0)
(0.00356617 -0.00356711 0)
(0.00499294 -0.00356774 0)
(0.00642 -0.00356859 0)
(0.00784745 -0.00356965 0)
(0.00927536 -0.00357091 0)
(0.0107038 -0.00357238 0)
(0.0121329 -0.00357404 0)
(0.0135627 -0.00357589 0)
(0.0149933 -0.00357793 0)
(0.0164247 -0.00358015 0)
(0.0178571 -0.00358254 0)
(0.0192905 -0.00358509 0)
(0.0207249 -0.00358781 0)
(0.0221605 -0.00359067 0)
(0.0235972 -0.00359367 0)
(0.0250352 -0.0035968 0)
(0.0264744 -0.00360005 0)
(0.027915 -0.0036034 0)
(0.029357 -0.00360685 0)
(0.0308004 -0.00361038 0)
(0.0322452 -0.00361397 0)
(0.0336914 -0.00361762 0)
(0.0351392 -0.00362131 0)
(0.0365885 -0.00362501 0)
(0.0380392 -0.00362872 0)
(0.0394915 -0.00363242 0)
(0.0409452 -0.00363609 0)
(0.0424004 -0.0036397 0)
(0.0438571 -0.00364324 0)
(0.0453152 -0.00364669 0)
(0.0467747 -0.00365003 0)
(0.0482355 -0.00365323 0)
(0.0496975 -0.00365626 0)
(0.0511608 -0.00365912 0)
(0.0526252 -0.00366176 0)
(0.0540907 -0.00366417 0)
(0.055557 -0.00366631 0)
(0.0570242 -0.00366817 0)
(0.0584921 -0.0036697 0)
(0.0599606 -0.00367089 0)
(0.0614295 -0.0036717 0)
(0.0628987 -0.0036721 0)
(0.064368 -0.00367205 0)
(0.0658372 -0.00367153 0)
(0.0673062 -0.00367051 0)
(0.0687746 -0.00366894 0)
(0.0702424 -0.0036668 0)
(0.0717092 -0.00366404 0)
(0.0731748 -0.00366064 0)
(0.0746389 -0.00365655 0)
(0.0761013 -0.00365174 0)
(0.0775617 -0.00364617 0)
(0.0790197 -0.0036398 0)
(0.080475 -0.0036326 0)
(0.0819273 -0.00362452 0)
(0.0833763 -0.00361552 0)
(0.0848215 -0.00360558 0)
(0.0862625 -0.00359464 0)
(0.087699 -0.00358267 0)
(0.0891306 -0.00356962 0)
(0.0905567 -0.00355547 0)
(0.091977 -0.00354016 0)
(0.093391 -0.00352367 0)
(0.0947982 -0.00350595 0)
(0.096198 -0.00348696 0)
(0.0975901 -0.00346667 0)
(0.0989738 -0.00344505 0)
(0.100349 -0.00342205 0)
(0.101714 -0.00339764 0)
(0.103069 -0.00337179 0)
(0.104414 -0.00334446 0)
(0.105748 -0.00331563 0)
(0.107069 -0.00328527 0)
(0.108379 -0.00325334 0)
(0.109675 -0.00321983 0)
(0.110957 -0.0031847 0)
(0.112226 -0.00314794 0)
(0.113479 -0.00310953 0)
(0.114716 -0.00306944 0)
(0.115937 -0.00302766 0)
(0.117141 -0.00298419 0)
(0.118328 -0.002939 0)
(0.119496 -0.0028921 0)
(0.120644 -0.00284347 0)
(0.121774 -0.00279312 0)
(0.122882 -0.00274104 0)
(0.123969 -0.00268725 0)
(0.125035 -0.00263174 0)
(0.126078 -0.00257452 0)
(0.127098 -0.00251562 0)
(0.128093 -0.00245504 0)
(0.129065 -0.00239282 0)
(0.130011 -0.00232896 0)
(0.130931 -0.0022635 0)
(0.131824 -0.00219648 0)
(0.132691 -0.00212791 0)
(0.133529 -0.00205784 0)
(0.13434 -0.00198631 0)
(0.135121 -0.00191337 0)
(0.135873 -0.00183905 0)
(0.136595 -0.00176342 0)
(0.137286 -0.00168652 0)
(0.137946 -0.0016084 0)
(0.138575 -0.00152913 0)
(0.139171 -0.00144877 0)
(0.139736 -0.00136738 0)
(0.140267 -0.00128503 0)
(0.140765 -0.00120178 0)
(0.14123 -0.00111771 0)
(0.141661 -0.00103288 0)
(0.142057 -0.000947378 0)
(0.14242 -0.000861272 0)
(0.142747 -0.00077464 0)
(0.14304 -0.00068756 0)
(0.143298 -0.000600109 0)
(0.143521 -0.000512369 0)
(0.143708 -0.000424417 0)
(0.143861 -0.000336334 0)
(0.143978 -0.000248201 0)
(0.144059 -0.000160097 0)
(0.144106 -7.21022e-05 0)
(0.144117 1.57053e-05 0)
(0.144093 0.000103247 0)
(0.144034 0.000190446 0)
(0.14394 0.000277227 0)
(0.143811 0.000363514 0)
(0.143648 0.000449234 0)
(0.14345 0.000534318 0)
(0.143219 0.000618695 0)
(0.142954 0.000702297 0)
(0.142656 0.000785061 0)
(0.142324 0.000866922 0)
(0.14196 0.000947822 0)
(0.141564 0.0010277 0)
(0.141136 0.00110651 0)
(0.140677 0.00118418 0)
(0.140187 0.00126068 0)
(0.139666 0.00133596 0)
(0.139116 0.00140997 0)
(0.138536 0.00148267 0)
(0.137927 0.00155402 0)
(0.13729 0.00162399 0)
(0.136626 0.00169255 0)
(0.135934 0.00175967 0)
(0.135215 0.00182532 0)
(0.134471 0.00188948 0)
(0.133701 0.00195213 0)
(0.132906 0.00201326 0)
(0.132088 0.00207284 0)
(0.131245 0.00213086 0)
(0.13038 0.00218733 0)
(0.129493 0.00224223 0)
(0.128584 0.00229555 0)
(0.127654 0.00234731 0)
(0.126703 0.00239749 0)
(0.125733 0.0024461 0)
(0.124743 0.00249316 0)
(0.123735 0.00253866 0)
(0.12271 0.00258261 0)
(0.121667 0.00262503 0)
(0.120607 0.00266594 0)
(0.119531 0.00270534 0)
(0.11844 0.00274326 0)
(0.117334 0.00277971 0)
(0.116214 0.00281471 0)
(0.11508 0.00284828 0)
(0.113932 0.00288046 0)
(0.112773 0.00291125 0)
(0.111601 0.0029407 0)
(0.110418 0.00296881 0)
(0.109224 0.00299562 0)
(0.108019 0.00302115 0)
(0.106804 0.00304544 0)
(0.10558 0.00306852 0)
(0.104347 0.0030904 0)
(0.103106 0.00311112 0)
(0.101857 0.00313071 0)
(0.100599 0.00314921 0)
(0.0993352 0.00316664 0)
(0.0980643 0.00318302 0)
(0.096787 0.0031984 0)
(0.0955038 0.00321281 0)
(0.094215 0.00322627 0)
(0.0929211 0.00323881 0)
(0.0916224 0.00325047 0)
(0.0903192 0.00326128 0)
(0.0890119 0.00327126 0)
(0.0877008 0.00328045 0)
(0.0863862 0.00328887 0)
(0.0850683 0.00329656 0)
(0.0837476 0.00330354 0)
(0.0824243 0.00330985 0)
(0.0810986 0.00331551 0)
(0.0797708 0.00332055 0)
(0.0784411 0.00332499 0)
(0.0771097 0.00332887 0)
(0.075777 0.00333221 0)
(0.0744431 0.00333504 0)
(0.0731081 0.00333738 0)
(0.0717723 0.00333926 0)
(0.0704359 0.00334069 0)
(0.069099 0.00334172 0)
(0.0677618 0.00334235 0)
(0.0664245 0.00334262 0)
(0.0650871 0.00334254 0)
(0.0637498 0.00334214 0)
(0.0624128 0.00334144 0)
(0.0610762 0.00334045 0)
(0.05974 0.0033392 0)
(0.0584044 0.00333772 0)
(0.0570694 0.00333601 0)
(0.0557352 0.00333409 0)
(0.0544018 0.003332 0)
(0.0530693 0.00332973 0)
(0.0517377 0.00332731 0)
(0.0504072 0.00332476 0)
(0.0490777 0.00332209 0)
(0.0477493 0.00331931 0)
(0.0464221 0.00331645 0)
(0.045096 0.00331351 0)
(0.0437712 0.00331051 0)
(0.0424475 0.00330746 0)
(0.0411251 0.00330438 0)
(0.039804 0.00330128 0)
(0.0384841 0.00329816 0)
(0.0371655 0.00329505 0)
(0.0358481 0.00329195 0)
(0.0345319 0.00328887 0)
(0.033217 0.00328583 0)
(0.0319033 0.00328282 0)
(0.0305908 0.00327987 0)
(0.0292795 0.00327698 0)
(0.0279694 0.00327416 0)
(0.0266603 0.00327141 0)
(0.0253524 0.00326874 0)
(0.0240455 0.00326617 0)
(0.0227396 0.00326369 0)
(0.0214347 0.00326132 0)
(0.0201308 0.00325906 0)
(0.0188277 0.00325691 0)
(0.0175254 0.00325489 0)
(0.016224 0.00325298 0)
(0.0149233 0.00325121 0)
(0.0136233 0.00324957 0)
(0.0123239 0.00324807 0)
(0.011025 0.00324671 0)
(0.00972675 0.00324549 0)
(0.00842891 0.00324442 0)
(0.00713147 0.0032435 0)
(0.00583438 0.00324273 0)
(0.00453756 0.00324211 0)
(0.00324096 0.00324165 0)
(0.00194452 0.00324134 0)
(0.000648166 0.00324118 0)
(0.000713059 -0.00499279 0)
(0.00213923 -0.00499308 0)
(0.00356554 -0.00499367 0)
(0.00499205 -0.00499456 0)
(0.00641887 -0.00499575 0)
(0.00784607 -0.00499723 0)
(0.00927374 -0.004999 0)
(0.010702 -0.00500106 0)
(0.0121308 -0.00500339 0)
(0.0135604 -0.00500599 0)
(0.0149908 -0.00500885 0)
(0.016422 -0.00501197 0)
(0.0178542 -0.00501532 0)
(0.0192873 -0.00501891 0)
(0.0207216 -0.00502272 0)
(0.022157 -0.00502674 0)
(0.0235936 -0.00503096 0)
(0.0250314 -0.00503536 0)
(0.0264705 -0.00503992 0)
(0.027911 -0.00504463 0)
(0.0293528 -0.00504948 0)
(0.0307961 -0.00505444 0)
(0.0322409 -0.00505949 0)
(0.0336871 -0.00506462 0)
(0.0351348 -0.0050698 0)
(0.0365841 -0.00507502 0)
(0.0380348 -0.00508024 0)
(0.0394871 -0.00508544 0)
(0.0409409 -0.0050906 0)
(0.0423962 -0.00509568 0)
(0.043853 -0.00510067 0)
(0.0453112 -0.00510553 0)
(0.0467708 -0.00511023 0)
(0.0482318 -0.00511474 0)
(0.0496941 -0.00511903 0)
(0.0511576 -0.00512306 0)
(0.0526222 -0.0051268 0)
(0.054088 -0.00513021 0)
(0.0555547 -0.00513325 0)
(0.0570223 -0.00513589 0)
(0.0584906 -0.00513808 0)
(0.0599595 -0.00513978 0)
(0.0614289 -0.00514095 0)
(0.0628986 -0.00514156 0)
(0.0643684 -0.00514154 0)
(0.0658382 -0.00514086 0)
(0.0673078 -0.00513947 0)
(0.0687769 -0.00513733 0)
(0.0702454 -0.00513437 0)
(0.0717129 -0.00513057 0)
(0.0731793 -0.00512585 0)
(0.0746443 -0.00512018 0)
(0.0761076 -0.0051135 0)
(0.0775689 -0.00510575 0)
(0.0790279 -0.00509689 0)
(0.0804843 -0.00508686 0)
(0.0819376 -0.00507561 0)
(0.0833877 -0.00506307 0)
(0.0848341 -0.0050492 0)
(0.0862763 -0.00503394 0)
(0.0877141 -0.00501723 0)
(0.089147 -0.00499903 0)
(0.0905745 -0.00497927 0)
(0.0919962 -0.00495789 0)
(0.0934116 -0.00493485 0)
(0.0948203 -0.0049101 0)
(0.0962217 -0.00488357 0)
(0.0976153 -0.00485522 0)
(0.0990007 -0.00482499 0)
(0.100377 -0.00479284 0)
(0.101744 -0.00475871 0)
(0.103101 -0.00472256 0)
(0.104448 -0.00468435 0)
(0.105783 -0.00464403 0)
(0.107107 -0.00460156 0)
(0.108418 -0.0045569 0)
(0.109716 -0.00451001 0)
(0.111001 -0.00446087 0)
(0.112271 -0.00440943 0)
(0.113526 -0.00435568 0)
(0.114765 -0.00429958 0)
(0.115989 -0.00424111 0)
(0.117195 -0.00418026 0)
(0.118383 -0.00411701 0)
(0.119553 -0.00405135 0)
(0.120704 -0.00398328 0)
(0.121835 -0.00391278 0)
(0.122946 -0.00383987 0)
(0.124035 -0.00376454 0)
(0.125103 -0.00368681 0)
(0.126148 -0.0036067 0)
(0.127169 -0.00352421 0)
(0.128167 -0.00343937 0)
(0.12914 -0.00335222 0)
(0.130088 -0.00326279 0)
(0.13101 -0.0031711 0)
(0.131906 -0.00307722 0)
(0.132774 -0.00298117 0)
(0.133614 -0.00288302 0)
(0.134426 -0.00278282 0)
(0.135209 -0.00268063 0)
(0.135963 -0.00257652 0)
(0.136686 -0.00247056 0)
(0.137379 -0.00236282 0)
(0.138041 -0.00225338 0)
(0.138671 -0.00214231 0)
(0.139269 -0.00202972 0)
(0.139834 -0.00191568 0)
(0.140367 -0.00180029 0)
(0.140866 -0.00168364 0)
(0.141331 -0.00156584 0)
(0.141763 -0.00144698 0)
(0.142161 -0.00132717 0)
(0.142524 -0.00120652 0)
(0.142852 -0.00108513 0)
(0.143145 -0.000963103 0)
(0.143404 -0.000840562 0)
(0.143627 -0.000717613 0)
(0.143814 -0.000594369 0)
(0.143967 -0.000470941 0)
(0.144084 -0.000347443 0)
(0.144165 -0.000223987 0)
(0.144211 -0.000100683 0)
(0.144222 2.23565e-05 0)
(0.144198 0.000145023 0)
(0.144138 0.000267208 0)
(0.144044 0.000388804 0)
(0.143914 0.000509708 0)
(0.14375 0.000629817 0)
(0.143552 0.000749031 0)
(0.14332 0.000867252 0)
(0.143054 0.000984387 0)
(0.142755 0.00110034 0)
(0.142422 0.00121503 0)
(0.142057 0.00132837 0)
(0.14166 0.00144028 0)
(0.141231 0.00155068 0)
(0.14077 0.0016595 0)
(0.140278 0.00176666 0)
(0.139756 0.00187211 0)
(0.139204 0.00197578 0)
(0.138623 0.00207761 0)
(0.138012 0.00217756 0)
(0.137374 0.00227556 0)
(0.136707 0.00237159 0)
(0.136014 0.00246559 0)
(0.135293 0.00255754 0)
(0.134547 0.00264739 0)
(0.133776 0.00273512 0)
(0.132979 0.00282071 0)
(0.132159 0.00290414 0)
(0.131314 0.00298539 0)
(0.130447 0.00306446 0)
(0.129558 0.00314132 0)
(0.128647 0.00321598 0)
(0.127715 0.00328843 0)
(0.126762 0.00335868 0)
(0.12579 0.00342673 0)
(0.124799 0.00349259 0)
(0.123789 0.00355628 0)
(0.122762 0.0036178 0)
(0.121717 0.00367717 0)
(0.120655 0.00373441 0)
(0.119578 0.00378955 0)
(0.118485 0.00384261 0)
(0.117377 0.00389361 0)
(0.116255 0.00394259 0)
(0.115119 0.00398956 0)
(0.11397 0.00403457 0)
(0.112809 0.00407765 0)
(0.111636 0.00411883 0)
(0.110451 0.00415815 0)
(0.109255 0.00419565 0)
(0.108049 0.00423136 0)
(0.106833 0.00426533 0)
(0.105608 0.00429759 0)
(0.104373 0.00432818 0)
(0.10313 0.00435715 0)
(0.10188 0.00438454 0)
(0.100621 0.00441039 0)
(0.0993557 0.00443474 0)
(0.0980835 0.00445764 0)
(0.0968051 0.00447913 0)
(0.0955207 0.00449926 0)
(0.0942308 0.00451806 0)
(0.0929358 0.00453558 0)
(0.0916361 0.00455186 0)
(0.0903319 0.00456694 0)
(0.0890236 0.00458087 0)
(0.0877115 0.00459369 0)
(0.086396 0.00460545 0)
(0.0850773 0.00461617 0)
(0.0837558 0.00462591 0)
(0.0824317 0.0046347 0)
(0.0811052 0.00464258 0)
(0.0797766 0.0046496 0)
(0.0784463 0.00465578 0)
(0.0771143 0.00466118 0)
(0.0757809 0.00466582 0)
(0.0744463 0.00466974 0)
(0.0731108 0.00467298 0)
(0.0717745 0.00467557 0)
(0.0704376 0.00467755 0)
(0.0691002 0.00467896 0)
(0.0677625 0.00467981 0)
(0.0664247 0.00468015 0)
(0.065087 0.00468001 0)
(0.0637493 0.00467942 0)
(0.062412 0.00467841 0)
(0.061075 0.004677 0)
(0.0597385 0.00467523 0)
(0.0584026 0.00467312 0)
(0.0570674 0.0046707 0)
(0.0557329 0.004668 0)
(0.0543993 0.00466503 0)
(0.0530666 0.00466183 0)
(0.0517349 0.00465843 0)
(0.0504042 0.00465483 0)
(0.0490746 0.00465107 0)
(0.0477461 0.00464716 0)
(0.0464188 0.00464313 0)
(0.0450926 0.004639 0)
(0.0437677 0.00463478 0)
(0.042444 0.0046305 0)
(0.0411216 0.00462617 0)
(0.0398004 0.00462181 0)
(0.0384805 0.00461743 0)
(0.0371618 0.00461306 0)
(0.0358445 0.0046087 0)
(0.0345284 0.00460438 0)
(0.0332135 0.0046001 0)
(0.0318999 0.00459589 0)
(0.0305874 0.00459174 0)
(0.0292762 0.00458768 0)
(0.0279661 0.00458372 0)
(0.0266572 0.00457986 0)
(0.0253493 0.00457612 0)
(0.0240425 0.00457251 0)
(0.0227368 0.00456903 0)
(0.021432 0.0045657 0)
(0.0201282 0.00456253 0)
(0.0188252 0.00455951 0)
(0.0175231 0.00455667 0)
(0.0162218 0.004554 0)
(0.0149213 0.00455151 0)
(0.0136214 0.00454921 0)
(0.0123222 0.00454711 0)
(0.0110235 0.0045452 0)
(0.00972541 0.00454349 0)
(0.00842774 0.00454199 0)
(0.00713048 0.0045407 0)
(0.00583356 0.00453961 0)
(0.00453692 0.00453875 0)
(0.0032405 0.00453809 0)
(0.00194424 0.00453766 0)
(0.000648074 0.00453744 0)
(0.000712887 -0.00641879 0)
(0.00213872 -0.00641916 0)
(0.00356469 -0.00641993 0)
(0.00499087 -0.00642108 0)
(0.00641735 -0.00642261 0)
(0.00784422 -0.00642453 0)
(0.00927157 -0.00642682 0)
(0.0106995 -0.00642947 0)
(0.012128 -0.00643248 0)
(0.0135573 -0.00643583 0)
(0.0149874 -0.00643953 0)
(0.0164183 -0.00644355 0)
(0.0178502 -0.00644788 0)
(0.0192831 -0.00645252 0)
(0.0207172 -0.00645744 0)
(0.0221523 -0.00646263 0)
(0.0235887 -0.00646807 0)
(0.0250263 -0.00647375 0)
(0.0264652 -0.00647965 0)
(0.0279056 -0.00648574 0)
(0.0293473 -0.006492 0)
(0.0307904 -0.00649841 0)
(0.0322351 -0.00650494 0)
(0.0336812 -0.00651157 0)
(0.0351289 -0.00651827 0)
(0.0365781 -0.00652501 0)
(0.0380289 -0.00653177 0)
(0.0394812 -0.0065385 0)
(0.0409351 -0.00654518 0)
(0.0423905 -0.00655177 0)
(0.0438474 -0.00655823 0)
(0.0453058 -0.00656453 0)
(0.0467656 -0.00657063 0)
(0.0482268 -0.00657649 0)
(0.0496894 -0.00658206 0)
(0.0511532 -0.0065873 0)
(0.0526182 -0.00659217 0)
(0.0540844 -0.00659662 0)
(0.0555515 -0.00660059 0)
(0.0570196 -0.00660405 0)
(0.0584884 -0.00660694 0)
(0.0599579 -0.0066092 0)
(0.0614279 -0.00661079 0)
(0.0628983 -0.00661164 0)
(0.0643689 -0.00661169 0)
(0.0658395 -0.0066109 0)
(0.0673099 -0.0066092 0)
(0.0687799 -0.00660652 0)
(0.0702493 -0.00660281 0)
(0.0717179 -0.006598 0)
(0.0731853 -0.00659203 0)
(0.0746515 -0.00658483 0)
(0.0761159 -0.00657633 0)
(0.0775785 -0.00656646 0)
(0.0790388 -0.00655516 0)
(0.0804965 -0.00654236 0)
(0.0819513 -0.00652798 0)
(0.0834029 -0.00651195 0)
(0.0848508 -0.00649422 0)
(0.0862947 -0.00647469 0)
(0.0877342 -0.00645331 0)
(0.0891688 -0.00642999 0)
(0.0905981 -0.00640468 0)
(0.0920217 -0.00637729 0)
(0.093439 -0.00634776 0)
(0.0948497 -0.00631602 0)
(0.0962532 -0.006282 0)
(0.0976489 -0.00624564 0)
(0.0990364 -0.00620686 0)
(0.100415 -0.0061656 0)
(0.101784 -0.00612181 0)
(0.103144 -0.00607541 0)
(0.104493 -0.00602636 0)
(0.105831 -0.00597458 0)
(0.107157 -0.00592005 0)
(0.10847 -0.00586269 0)
(0.109771 -0.00580246 0)
(0.111058 -0.00573933 0)
(0.112331 -0.00567324 0)
(0.113589 -0.00560417 0)
(0.114831 -0.00553208 0)
(0.116057 -0.00545694 0)
(0.117266 -0.00537873 0)
(0.118457 -0.00529743 0)
(0.11963 -0.00521302 0)
(0.120783 -0.0051255 0)
(0.121917 -0.00503486 0)
(0.123031 -0.00494111 0)
(0.124123 -0.00484424 0)
(0.125193 -0.00474428 0)
(0.126241 -0.00464124 0)
(0.127265 -0.00453514 0)
(0.128266 -0.00442602 0)
(0.129242 -0.00431392 0)
(0.130192 -0.00419886 0)
(0.131117 -0.00408091 0)
(0.132015 -0.00396012 0)
(0.132885 -0.00383654 0)
(0.133728 -0.00371025 0)
(0.134542 -0.00358132 0)
(0.135328 -0.00344982 0)
(0.136083 -0.00331585 0)
(0.136809 -0.00317948 0)
(0.137503 -0.00304082 0)
(0.138167 -0.00289997 0)
(0.138799 -0.00275703 0)
(0.139398 -0.00261211 0)
(0.139965 -0.00246533 0)
(0.140499 -0.00231681 0)
(0.141 -0.00216667 0)
(0.141467 -0.00201503 0)
(0.1419 -0.00186204 0)
(0.142298 -0.00170782 0)
(0.142662 -0.00155251 0)
(0.142991 -0.00139624 0)
(0.143285 -0.00123917 0)
(0.143544 -0.00108142 0)
(0.143768 -0.000923156 0)
(0.143956 -0.000764507 0)
(0.144108 -0.000605622 0)
(0.144225 -0.000446647 0)
(0.144307 -0.000287726 0)
(0.144352 -0.000129004 0)
(0.144363 2.9378e-05 0)
(0.144338 0.000187277 0)
(0.144278 0.000344554 0)
(0.144183 0.000501071 0)
(0.144052 0.000656695 0)
(0.143888 0.000811291 0)