/*--------------------------------*- C++ -*----------------------------------*\
| =========                 |                                                 |
| \\      /  F ield         | OpenFOAM: The Open Source CFD Toolbox           |
|  \\    /   O peration     | Version:  v2012                                 |
|   \\  /    A nd           | Website:  www.openfoam.com                      |
|    \\/     M anipulation  |                                                 |
\*---------------------------------------------------------------------------*/
FoamFile
{
    version     2.0;
    format      ascii;
    class       surfaceScalarField;
    location    "12";
    object      phi;
}
// * * * * * * * * * * * * * * * * * * * * * * * * * * * * * * * * * * * * * //

dimensions      [0 3 -1 0 0 0 0];
oriented        oriented;


internalField   nonuniform List<scalar> 
130560
(
3.59428e-06
-3.59428e-06
7.18873e-06
-3.59445e-06
1.07835e-05
-3.5948e-06
1.43788e-05
-3.59531e-06
1.79748e-05
-3.596e-06
2.15717e-05
-3.59685e-06
2.51695e-05
-3.59786e-06
2.87686e-05
-3.59903e-06
3.23689e-05
-3.60036e-06
3.59708e-05
-3.60183e-06
3.95742e-05
-3.60345e-06
4.31794e-05
-3.6052e-06
4.67865e-05
-3.60707e-06
5.03955e-05
-3.60907e-06
5.40067e-05
-3.61117e-06
5.76201e-05
-3.61337e-06
6.12358e-05
-3.61566e-06
6.48538e-05
-3.61803e-06
6.84742e-05
-3.62046e-06
7.20972e-05
-3.62295e-06
7.57227e-05
-3.62547e-06
7.93507e-05
-3.62801e-06
8.29812e-05
-3.63057e-06
8.66144e-05
-3.63311e-06
9.025e-05
-3.63563e-06
9.38881e-05
-3.6381e-06
9.75286e-05
-3.64052e-06
0.000101171
-3.64285e-06
0.000104817
-3.64508e-06
0.000108464
-3.64719e-06
0.000112113
-3.64915e-06
0.000115764
-3.65095e-06
0.000119416
-3.65256e-06
0.00012307
-3.65395e-06
0.000126725
-3.6551e-06
0.000130381
-3.65599e-06
0.000134038
-3.65658e-06
0.000137695
-3.65686e-06
0.000141352
-3.65678e-06
0.000145008
-3.65633e-06
0.000148663
-3.65547e-06
0.000152318
-3.65417e-06
0.00015597
-3.6524e-06
0.00015962
-3.65013e-06
0.000163267
-3.64733e-06
0.000166911
-3.64396e-06
0.000170551
-3.63999e-06
0.000174187
-3.63539e-06
0.000177817
-3.63011e-06
0.000181441
-3.62414e-06
0.000185059
-3.61742e-06
0.000188668
-3.60992e-06
0.00019227
-3.60161e-06
0.000195862
-3.59245e-06
0.000199445
-3.58241e-06
0.000203016
-3.57144e-06
0.000206576
-3.55951e-06
0.000210122
-3.54659e-06
0.000213655
-3.53264e-06
0.000217173
-3.51761e-06
0.000220674
-3.50149e-06
0.000224158
-3.48422e-06
0.000227624
-3.46577e-06
0.00023107
-3.44612e-06
0.000234496
-3.42522e-06
0.000237899
-3.40305e-06
0.000241278
-3.37956e-06
0.000244633
-3.35474e-06
0.000247961
-3.32855e-06
0.000251262
-3.30096e-06
0.000254534
-3.27195e-06
0.000257776
-3.24148e-06
0.000260985
-3.20954e-06
0.000264161
-3.1761e-06
0.000267303
-3.14115e-06
0.000270407
-3.10466e-06
0.000273474
-3.06661e-06
0.000276501
-3.027e-06
0.000279487
-2.98581e-06
0.00028243
-2.94303e-06
0.000285328
-2.89865e-06
0.000288181
-2.85267e-06
0.000290986
-2.80508e-06
0.000293742
-2.75589e-06
0.000296447
-2.70511e-06
0.0002991
-2.65272e-06
0.000301699
-2.59876e-06
0.000304242
-2.54322e-06
0.000306728
-2.48612e-06
0.000309155
-2.42748e-06
0.000311523
-2.36732e-06
0.000313828
-2.30566e-06
0.000316071
-2.24254e-06
0.000318249
-2.17797e-06
0.000320361
-2.112e-06
0.000322406
-2.04466e-06
0.000324382
-1.97599e-06
0.000326288
-1.90603e-06
0.000328122
-1.83483e-06
0.000329885
-1.76242e-06
0.000331574
-1.68887e-06
0.000333188
-1.61422e-06
0.000334726
-1.53853e-06
0.000336188
-1.46186e-06
0.000337573
-1.38426e-06
0.000338878
-1.3058e-06
0.000340105
-1.22654e-06
0.000341251
-1.14654e-06
0.000342317
-1.06588e-06
0.000343302
-9.84606e-07
0.000344205
-9.02803e-07
0.000345025
-8.20538e-07
0.000345763
-7.37881e-07
0.000346418
-6.54903e-07
0.00034699
-5.71677e-07
0.000347478
-4.88274e-07
0.000347883
-4.04767e-07
0.000348204
-3.21229e-07
0.000348442
-2.37732e-07
0.000348596
-1.54346e-07
0.000348667
-7.11444e-08
0.000348655
1.18041e-08
0.000348561
9.44299e-08
0.000348384
1.76665e-07
0.000348126
2.58442e-07
0.000347786
3.39696e-07
0.000347366
4.20363e-07
0.000346865
5.00381e-07
0.000346286
5.79689e-07
0.000345628
6.5823e-07
0.000344892
7.35947e-07
0.000344079
8.12786e-07
0.00034319
8.88695e-07
0.000342226
9.63625e-07
0.000341189
1.03753e-06
0.000340079
1.11036e-06
0.000338896
1.18208e-06
0.000337644
1.25265e-06
0.000336322
1.32203e-06
0.000334932
1.39018e-06
0.000333475
1.45708e-06
0.000331952
1.5227e-06
0.000330365
1.587e-06
0.000328715
1.64998e-06
0.000327003
1.71159e-06
0.000325231
1.77183e-06
0.000323401
1.83068e-06
0.000321513
1.88813e-06
0.000319568
1.94417e-06
0.00031757
1.99878e-06
0.000315518
2.05196e-06
0.000313414
2.1037e-06
0.00031126
2.15401e-06
0.000309057
2.20288e-06
0.000306807
2.25032e-06
0.00030451
2.29633e-06
0.00030217
2.34092e-06
0.000299785
2.38409e-06
0.00029736
2.42585e-06
0.000294893
2.46622e-06
0.000292388
2.50521e-06
0.000289845
2.54283e-06
0.000287266
2.57909e-06
0.000284652
2.61402e-06
0.000282005
2.64763e-06
0.000279325
2.67994e-06
0.000276614
2.71098e-06
0.000273873
2.74075e-06
0.000271104
2.76929e-06
0.000268307
2.79662e-06
0.000265484
2.82276e-06
0.000262637
2.84773e-06
0.000259765
2.87156e-06
0.000256871
2.89428e-06
0.000253955
2.91591e-06
0.000251018
2.93647e-06
0.000248062
2.956e-06
0.000245088
2.97452e-06
0.000242096
2.99205e-06
0.000239087
3.00863e-06
0.000236063
3.02428e-06
0.000233024
3.03902e-06
0.000229971
3.05289e-06
0.000226905
3.06591e-06
0.000223827
3.07812e-06
0.000220737
3.08952e-06
0.000217637
3.10016e-06
0.000214527
3.11006e-06
0.000211408
3.11924e-06
0.00020828
3.12773e-06
0.000205145
3.13556e-06
0.000202002
3.14275e-06
0.000198853
3.14933e-06
0.000195697
3.15532e-06
0.000192536
3.16075e-06
0.000189371
3.16564e-06
0.000186201
3.17001e-06
0.000183027
3.17388e-06
0.00017985
3.17729e-06
0.000176669
3.18025e-06
0.000173487
3.18278e-06
0.000170302
3.18491e-06
0.000167115
3.18666e-06
0.000163927
3.18804e-06
0.000160738
3.18908e-06
0.000157548
3.18979e-06
0.000154358
3.1902e-06
0.000151168
3.19033e-06
0.000147977
3.19019e-06
0.000144788
3.18979e-06
0.000141598
3.18917e-06
0.00013841
3.18832e-06
0.000135223
3.18728e-06
0.000132037
3.18606e-06
0.000128852
3.18466e-06
0.000125669
3.18311e-06
0.000122488
3.18142e-06
0.000119308
3.17961e-06
0.00011613
3.17768e-06
0.000112955
3.17566e-06
0.000109781
3.17355e-06
0.00010661
3.17137e-06
0.000103441
3.16912e-06
0.000100274
3.16682e-06
9.71093e-05
3.16449e-06
9.39472e-05
3.16212e-06
9.07875e-05
3.15973e-06
8.76301e-05
3.15734e-06
8.44752e-05
3.15495e-06
8.13226e-05
3.15256e-06
7.81724e-05
3.1502e-06
7.50246e-05
3.14785e-06
7.1879e-05
3.14555e-06
6.87357e-05
3.14328e-06
6.55947e-05
3.14106e-06
6.24558e-05
3.1389e-06
5.9319e-05
3.1368e-06
5.61842e-05
3.13477e-06
5.30514e-05
3.13281e-06
4.99204e-05
3.13094e-06
4.67913e-05
3.12914e-06
4.36639e-05
3.12744e-06
4.0538e-05
3.12583e-06
3.74137e-05
3.12431e-06
3.42908e-05
3.1229e-06
3.11692e-05
3.1216e-06
2.80488e-05
3.1204e-06
2.49295e-05
3.11931e-06
2.18112e-05
3.11834e-06
1.86937e-05
3.11749e-06
1.55769e-05
3.11675e-06
1.24608e-05
3.11613e-06
9.34517e-06
3.11564e-06
6.22991e-06
3.11526e-06
3.11489e-06
3.11502e-06
3.11489e-06
3.59411e-06
-7.18838e-06
7.18839e-06
-7.18873e-06
1.0783e-05
-7.18942e-06
1.43782e-05
-7.19046e-06
1.7974e-05
-7.19183e-06
2.15707e-05
-7.19354e-06
2.51684e-05
-7.19557e-06
2.87673e-05
-7.19792e-06
3.23675e-05
-7.20057e-06
3.59692e-05
-7.20352e-06
3.95725e-05
-7.20676e-06
4.31776e-05
-7.21027e-06
4.67845e-05
-7.21403e-06
5.03935e-05
-7.21803e-06
5.40045e-05
-7.22224e-06
5.76178e-05
-7.22666e-06
6.12334e-05
-7.23125e-06
6.48514e-05
-7.236e-06
6.84718e-05
-7.24088e-06
7.20947e-05
-7.24586e-06
7.57202e-05
-7.25092e-06
7.93482e-05
-7.25602e-06
8.29787e-05
-7.26114e-06
8.66119e-05
-7.26625e-06
9.02475e-05
-7.2713e-06
9.38857e-05
-7.27627e-06
9.75263e-05
-7.28112e-06
0.000101169
-7.2858e-06
0.000104814
-7.29029e-06
0.000108462
-7.29453e-06
0.000112111
-7.29848e-06
0.000115762
-7.3021e-06
0.000119415
-7.30533e-06
0.000123069
-7.30814e-06
0.000126725
-7.31048e-06
0.000130381
-7.31227e-06
0.000134038
-7.31349e-06
0.000137695
-7.31406e-06
0.000141352
-7.31394e-06
0.000145009
-7.31307e-06
0.000148665
-7.31138e-06
0.000152319
-7.30881e-06
0.000155972
-7.30531e-06
0.000159623
-7.3008e-06
0.000163271
-7.29523e-06
0.000166915
-7.28853e-06
0.000170556
-7.28062e-06
0.000174192
-7.27145e-06
0.000177823
-7.26093e-06
0.000181448
-7.24901e-06
0.000185066
-7.23561e-06
0.000188677
-7.22065e-06
0.000192279
-7.20407e-06
0.000195873
-7.18579e-06
0.000199456
-7.16574e-06
0.000203028
-7.14384e-06
0.000206589
-7.12003e-06
0.000210136
-7.09422e-06
0.00021367
-7.06634e-06
0.000217189
-7.03633e-06
0.000220692
-7.00411e-06
0.000224177
-6.96961e-06
0.000227644
-6.93276e-06
0.000231091
-6.89348e-06
0.000234518
-6.85172e-06
0.000237922
-6.8074e-06
0.000241303
-6.76047e-06
0.000244659
-6.71085e-06
0.000247989
-6.6585e-06
0.000251291
-6.60334e-06
0.000254565
-6.54534e-06
0.000257808
-6.48443e-06
0.000261019
-6.42058e-06
0.000264196
-6.35372e-06
0.000267339
-6.28383e-06
0.000270445
-6.21086e-06
0.000273514
-6.13479e-06
0.000276542
-6.05558e-06
0.000279529
-5.9732e-06
0.000282474
-5.88765e-06
0.000285374
-5.79889e-06
0.000288229
-5.70693e-06
0.000291035
-5.61177e-06
0.000293793
-5.51339e-06
0.000296499
-5.4118e-06
0.000299154
-5.30703e-06
0.000301754
-5.19908e-06
0.000304299
-5.08799e-06
0.000306787
-4.97377e-06
0.000309216
-4.85647e-06
0.000311584
-4.73612e-06
0.000313891
-4.61279e-06
0.000316135
-4.48651e-06
0.000318315
-4.35735e-06
0.000320428
-4.22537e-06
0.000322474
-4.09065e-06
0.000324451
-3.95327e-06
0.000326359
-3.8133e-06
0.000328195
-3.67085e-06
0.000329958
-3.52599e-06
0.000331648
-3.37883e-06
0.000333264
-3.22948e-06
0.000334803
-3.07805e-06
0.000336266
-2.92464e-06
0.000337651
-2.76939e-06
0.000338958
-2.6124e-06
0.000340185
-2.45381e-06
0.000341332
-2.29375e-06
0.000342399
-2.13235e-06
0.000343384
-1.96974e-06
0.000344287
-1.80607e-06
0.000345108
-1.64146e-06
0.000345846
-1.47608e-06
0.000346501
-1.31005e-06
0.000347073
-1.14353e-06
0.000347561
-9.76648e-07
0.000347966
-8.09563e-07
0.000348287
-6.42415e-07
0.000348525
-4.75348e-07
0.000348679
-3.08507e-07
0.00034875
-1.42032e-07
0.000348738
2.39338e-08
0.000348643
1.89253e-07
0.000348466
3.5379e-07
0.000348207
5.1741e-07
0.000347867
6.79981e-07
0.000347446
8.41377e-07
0.000346945
1.00147e-06
0.000346364
1.16015e-06
0.000345705
1.31729e-06
0.000344968
1.47277e-06
0.000344155
1.6265e-06
0.000343265
1.77837e-06
0.0003423
1.92828e-06
0.000341262
2.07613e-06
0.00034015
2.22184e-06
0.000338967
2.36532e-06
0.000337713
2.50649e-06
0.00033639
2.64528e-06
0.000334998
2.78162e-06
0.00033354
2.91545e-06
0.000332016
3.04671e-06
0.000330428
3.17534e-06
0.000328776
3.30131e-06
0.000327063
3.42456e-06
0.00032529
3.54506e-06
0.000323458
3.66277e-06
0.000321569
3.77768e-06
0.000319623
3.88976e-06
0.000317623
3.99898e-06
0.000315569
4.10535e-06
0.000313464
4.20884e-06
0.000311309
4.30946e-06
0.000309104
4.4072e-06
0.000306853
4.50208e-06
0.000304555
4.59409e-06
0.000302213
4.68326e-06
0.000299827
4.76959e-06
0.0002974
4.8531e-06
0.000294932
4.93383e-06
0.000292426
5.01179e-06
0.000289881
5.08701e-06
0.000287301
5.15952e-06
0.000284686
5.22936e-06
0.000282037
5.29656e-06
0.000279356
5.36116e-06
0.000276643
5.42321e-06
0.000273901
5.48274e-06
0.000271131
5.53979e-06
0.000268333
5.59442e-06
0.000265509
5.64668e-06
0.00026266
5.6966e-06
0.000259788
5.74424e-06
0.000256892
5.78965e-06
0.000253975
5.83288e-06
0.000251038
5.87398e-06
0.000248081
5.91301e-06
0.000245105
5.95002e-06
0.000242112
5.98506e-06
0.000239103
6.01819e-06
0.000236077
6.04945e-06
0.000233038
6.07892e-06
0.000229984
6.10663e-06
0.000226917
6.13265e-06
0.000223838
6.15702e-06
0.000220748
6.17981e-06
0.000217647
6.20106e-06
0.000214536
6.22083e-06
0.000211416
6.23916e-06
0.000208288
6.25612e-06
0.000205152
6.27176e-06
0.000202008
6.28612e-06
0.000198858
6.29925e-06
0.000195703
6.31121e-06
0.000192541
6.32204e-06
0.000189375
6.33179e-06
0.000186205
6.3405e-06
0.00018303
6.34824e-06
0.000179853
6.35503e-06
0.000176672
6.36093e-06
0.000173489
6.36597e-06
0.000170303
6.37021e-06
0.000167116
6.37368e-06
0.000163928
6.37642e-06
0.000160739
6.37848e-06
0.000157548
6.37989e-06
0.000154358
6.38069e-06
0.000151167
6.38092e-06
0.000147977
6.38062e-06
0.000144787
6.37981e-06
0.000141598
6.37855e-06
0.000138409
6.37685e-06
0.000135222
6.37475e-06
0.000132035
6.37228e-06
0.000128851
6.36947e-06
0.000125667
6.36636e-06
0.000122486
6.36297e-06
0.000119306
6.35933e-06
0.000116128
6.35547e-06
0.000112953
6.3514e-06
0.000109779
6.34717e-06
0.000106607
6.34279e-06
0.000103438
6.33829e-06
0.000100271
6.33368e-06
9.71069e-05
6.329e-06
9.39448e-05
6.32426e-06
9.0785e-05
6.31948e-06
8.76277e-05
6.31468e-06
8.44728e-05
6.30988e-06
8.13202e-05
6.3051e-06
7.817e-05
6.30036e-06
7.50222e-05
6.29567e-06
7.18767e-05
6.29105e-06
6.87335e-05
6.28651e-06
6.55925e-05
6.28207e-06
6.24536e-05
6.27774e-06
5.93169e-05
6.27354e-06
5.61822e-05
6.26947e-06
5.30495e-05
6.26555e-06
4.99186e-05
6.26179e-06
4.67896e-05
6.25819e-06
4.36622e-05
6.25478e-06
4.05365e-05
6.25155e-06
3.74123e-05
6.24852e-06
3.42895e-05
6.2457e-06
3.1168e-05
6.24308e-06
2.80477e-05
6.24068e-06
2.49285e-05
6.23851e-06
2.18103e-05
6.23656e-06
1.86929e-05
6.23485e-06
1.55763e-05
6.23337e-06
1.24603e-05
6.23214e-06
9.3448e-06
6.23115e-06
6.22966e-06
6.2304e-06
3.11477e-06
6.22991e-06
6.22966e-06
3.59376e-06
-1.07821e-05
7.18769e-06
-1.07827e-05
1.0782e-05
-1.07837e-05
1.43768e-05
-1.07853e-05
1.79723e-05
-1.07873e-05
2.15686e-05
-1.07899e-05
2.5166e-05
-1.0793e-05
2.87646e-05
-1.07965e-05
3.23645e-05
-1.08005e-05
3.59659e-05
-1.08049e-05
3.9569e-05
-1.08098e-05
4.31738e-05
-1.08151e-05
4.67805e-05
-1.08207e-05
5.03892e-05
-1.08268e-05
5.40001e-05
-1.08331e-05
5.76132e-05
-1.08398e-05
6.12287e-05
-1.08467e-05
6.48465e-05
-1.08538e-05
6.84668e-05
-1.08612e-05
7.20896e-05
-1.08687e-05
7.5715e-05
-1.08763e-05
7.9343e-05
-1.0884e-05
8.29736e-05
-1.08917e-05
8.66068e-05
-1.08994e-05
9.02426e-05
-1.09071e-05
9.38809e-05
-1.09146e-05
9.75216e-05
-1.09219e-05
0.000101165
-1.0929e-05
0.00010481
-1.09357e-05
0.000108458
-1.09421e-05
0.000112108
-1.09481e-05
0.000115759
-1.09536e-05
0.000119412
-1.09585e-05
0.000123067
-1.09628e-05
0.000126723
-1.09664e-05
0.00013038
-1.09691e-05
0.000134037
-1.0971e-05
0.000137695
-1.0972e-05
0.000141353
-1.09719e-05
0.000145011
-1.09706e-05
0.000148667
-1.09682e-05
0.000152323
-1.09644e-05
0.000155977
-1.09592e-05
0.000159629
-1.09525e-05
0.000163278
-1.09443e-05
0.000166923
-1.09343e-05
0.000170565
-1.09225e-05
0.000174203
-1.09088e-05
0.000177835
-1.08932e-05
0.000181461
-1.08754e-05
0.000185081
-1.08554e-05
0.000188693
-1.0833e-05
0.000192298
-1.08082e-05
0.000195893
-1.07809e-05
0.000199478
-1.07509e-05
0.000203052
-1.07182e-05
0.000206615
-1.06825e-05
0.000210164
-1.06439e-05
0.0002137
-1.06022e-05
0.000217221
-1.05573e-05
0.000220726
-1.0509e-05
0.000224214
-1.04574e-05
0.000227683
-1.04022e-05
0.000231133
-1.03433e-05
0.000234562
-1.02808e-05
0.000237969
-1.02144e-05
0.000241353
-1.0144e-05
0.000244711
-1.00697e-05
0.000248044
-9.99124e-06
0.000251349
-9.90858e-06
0.000254626
-9.82164e-06
0.000257872
-9.73034e-06
0.000261086
-9.63461e-06
0.000264266
-9.53438e-06
0.000267412
-9.42959e-06
0.000270521
-9.32018e-06
0.000273593
-9.2061e-06
0.000276624
-9.08731e-06
0.000279615
-8.96378e-06
0.000282563
-8.83546e-06
0.000285466
-8.70235e-06
0.000288324
-8.56441e-06
0.000291134
-8.42166e-06
0.000293894
-8.27408e-06
0.000296604
-8.12169e-06
0.000299262
-7.96451e-06
0.000301865
-7.80256e-06
0.000304413
-7.63588e-06
0.000306904
-7.46451e-06
0.000309336
-7.2885e-06
0.000311708
-7.10793e-06
0.000314018
-6.92285e-06
0.000316265
-6.73336e-06
0.000318447
-6.53954e-06
0.000320563
-6.34148e-06
0.000322612
-6.13931e-06
0.000324591
-5.93313e-06
0.000326501
-5.72307e-06
0.00032834
-5.50926e-06
0.000330106
-5.29185e-06
0.000331798
-5.07099e-06
0.000333415
-4.84683e-06
0.000334956
-4.61953e-06
0.000336421
-4.38928e-06
0.000337808
-4.15624e-06
0.000339116
-3.92061e-06
0.000340345
-3.68256e-06
0.000341493
-3.4423e-06
0.000342561
-3.20003e-06
0.000343547
-2.95594e-06
0.000344452
-2.71026e-06
0.000345273
-2.46318e-06
0.000346012
-2.21492e-06
0.000346668
-1.9657e-06
0.00034724
-1.71573e-06
0.000347729
-1.46523e-06
0.000348133
-1.21442e-06
0.000348455
-9.63519e-07
0.000348692
-7.1274e-07
0.000348846
-4.623e-07
0.000348916
-2.12413e-07
0.000348903
3.67098e-08
0.000348808
2.8486e-07
0.00034863
5.31832e-07
0.00034837
7.77425e-07
0.000348028
1.02144e-06
0.000347606
1.26369e-06
0.000347103
1.50399e-06
0.000346521
1.74214e-06
0.000345861
1.97799e-06
0.000345122
2.21136e-06
0.000344306
2.44208e-06
0.000343415
2.67001e-06
0.000342448
2.89499e-06
0.000341407
3.11688e-06
0.000340294
3.33554e-06
0.000339108
3.55086e-06
0.000337852
3.76271e-06
0.000336526
3.97098e-06
0.000335132
4.17557e-06
0.000333671
4.37639e-06
0.000332145
4.57334e-06
0.000330554
4.76635e-06
0.0003289
4.95535e-06
0.000327184
5.14027e-06
0.000325408
5.32106e-06
0.000323573
5.49767e-06
0.000321681
5.67006e-06
0.000319732
5.8382e-06
0.000317729
6.00205e-06
0.000315673
6.16161e-06
0.000313565
6.31685e-06
0.000311407
6.46778e-06
0.000309199
6.61439e-06
0.000306945
6.75669e-06
0.000304644
6.8947e-06
0.000302299
7.02843e-06
0.000299911
7.1579e-06
0.000297481
7.28315e-06
0.00029501
7.4042e-06
0.000292501
7.5211e-06
0.000289954
7.63389e-06
0.000287371
7.74262e-06
0.000284753
7.84733e-06
0.000282101
7.94809e-06
0.000279418
8.04494e-06
0.000276703
8.13796e-06
0.000273958
8.22719e-06
0.000271186
8.31272e-06
0.000268385
8.39461e-06
0.000265559
8.47293e-06
0.000262708
8.54775e-06
0.000259833
8.61914e-06
0.000256935
8.68719e-06
0.000254016
8.75197e-06
0.000251077
8.81356e-06
0.000248118
8.87204e-06
0.00024514
8.92748e-06
0.000242145
8.97998e-06
0.000239134
9.0296e-06
0.000236107
9.07644e-06
0.000233065
9.12057e-06
0.00023001
9.16207e-06
0.000226942
9.20103e-06
0.000223861
9.23752e-06
0.000220769
9.27163e-06
0.000217667
9.30344e-06
0.000214555
9.33303e-06
0.000211433
9.36047e-06
0.000208304
9.38584e-06
0.000205166
9.40923e-06
0.000202022
9.43071e-06
0.00019887
9.45034e-06
0.000195713
9.46822e-06
0.000192551
9.4844e-06
0.000189384
9.49897e-06
0.000186212
9.51199e-06
0.000183037
9.52353e-06
0.000179858
9.53366e-06
0.000176677
9.54245e-06
0.000173493
9.54997e-06
0.000170307
9.55627e-06
0.000167119
9.56142e-06
0.00016393
9.56549e-06
0.00016074
9.56853e-06
0.000157549
9.57059e-06
0.000154358
9.57175e-06
0.000151167
9.57205e-06
0.000147976
9.57155e-06
0.000144786
9.5703e-06
0.000141596
9.56836e-06
0.000138407
9.56577e-06
0.000135219
9.56258e-06
0.000132033
9.55884e-06
0.000128847
9.55459e-06
0.000125664
9.54989e-06
0.000122482
9.54477e-06
0.000119302
9.53927e-06
0.000116124
9.53345e-06
0.000112948
9.52732e-06
0.000109775
9.52094e-06
0.000106603
9.51434e-06
0.000103434
9.50756e-06
0.000100267
9.50062e-06
9.71022e-05
9.49357e-06
9.394e-05
9.48643e-06
9.07802e-05
9.47924e-06
8.76229e-05
9.47202e-06
8.4468e-05
9.4648e-06
8.13155e-05
9.45761e-06
7.81654e-05
9.45048e-06
7.50176e-05
9.44342e-06
7.18722e-05
9.43647e-06
6.87291e-05
9.42965e-06
6.55882e-05
9.42297e-06
6.24494e-05
9.41646e-06
5.93128e-05
9.41014e-06
5.61783e-05
9.40402e-06
5.30457e-05
9.39813e-06
4.9915e-05
9.39247e-06
4.67862e-05
9.38707e-06
4.3659e-05
9.38194e-06
4.05335e-05
9.37709e-06
3.74095e-05
9.37253e-06
3.42869e-05
9.36828e-06
3.11656e-05
9.36435e-06
2.80456e-05
9.36075e-06
2.49266e-05
9.35748e-06
2.18086e-05
9.35455e-06
1.86915e-05
9.35198e-06
1.55751e-05
9.34976e-06
1.24593e-05
9.3479e-06
9.34405e-06
9.34641e-06
6.22916e-06
9.34529e-06
3.11452e-06
9.34455e-06
9.34418e-06
3.59324e-06
-1.43754e-05
7.18665e-06
-1.43761e-05
1.07804e-05
-1.43775e-05
1.43747e-05
-1.43796e-05
1.79697e-05
-1.43823e-05
2.15656e-05
-1.43858e-05
2.51625e-05
-1.43899e-05
2.87606e-05
-1.43946e-05
3.23601e-05
-1.44e-05
3.5961e-05
-1.44059e-05
3.95637e-05
-1.44124e-05
4.31681e-05
-1.44195e-05
4.67745e-05
-1.44271e-05
5.03829e-05
-1.44352e-05
5.39935e-05
-1.44437e-05
5.76063e-05
-1.44526e-05
6.12215e-05
-1.44619e-05
6.48391e-05
-1.44715e-05
6.84593e-05
-1.44813e-05
7.2082e-05
-1.44914e-05
7.57073e-05
-1.45016e-05
7.93353e-05
-1.4512e-05
8.29659e-05
-1.45223e-05
8.65992e-05
-1.45327e-05
9.02351e-05
-1.45429e-05
9.38735e-05
-1.4553e-05
9.75145e-05
-1.45629e-05
0.000101158
-1.45724e-05
0.000104804
-1.45815e-05
0.000108452
-1.45902e-05
0.000112102
-1.45983e-05
0.000115754
-1.46057e-05
0.000119408
-1.46124e-05
0.000123063
-1.46182e-05
0.00012672
-1.46231e-05
0.000130378
-1.46269e-05
0.000134036
-1.46295e-05
0.000137695
-1.46309e-05
0.000141354
-1.46309e-05
0.000145013
-1.46294e-05
0.000148671
-1.46263e-05
0.000152328
-1.46214e-05
0.000155984
-1.46146e-05
0.000159637
-1.46059e-05
0.000163288
-1.4595e-05
0.000166935
-1.45819e-05
0.000170579
-1.45663e-05
0.000174218
-1.45483e-05
0.000177853
-1.45275e-05
0.000181481
-1.45039e-05
0.000185103
-1.44774e-05
0.000188718
-1.44478e-05
0.000192325
-1.44149e-05
0.000195923
-1.43787e-05
0.000199511
-1.43389e-05
0.000203088
-1.42954e-05
0.000206653
-1.4248e-05
0.000210206
-1.41967e-05
0.000213745
-1.41412e-05
0.000217269
-1.40815e-05
0.000220778
-1.40174e-05
0.000224269
-1.39486e-05
0.000227742
-1.38752e-05
0.000231196
-1.37969e-05
0.000234628
-1.37137e-05
0.000238039
-1.36253e-05
0.000241427
-1.35317e-05
0.00024479
-1.34327e-05
0.000248127
-1.33282e-05
0.000251436
-1.32181e-05
0.000254717
-1.31023e-05
0.000257967
-1.29807e-05
0.000261186
-1.28531e-05
0.000264371
-1.27196e-05
0.000267522
-1.258e-05
0.000270636
-1.24342e-05
0.000273712
-1.22821e-05
0.000276748
-1.21238e-05
0.000279743
-1.19591e-05
0.000282696
-1.17881e-05
0.000285604
-1.16106e-05
0.000288467
-1.14267e-05
0.000291281
-1.12364e-05
0.000294047
-1.10396e-05
0.000296762
-1.08364e-05
0.000299424
-1.06268e-05
0.000302032
-1.04108e-05
0.000304585
-1.01885e-05
0.00030708
-9.95988e-06
0.000309517
-9.72511e-06
0.000311893
-9.48423e-06
0.000314207
-9.23734e-06
0.000316459
-8.98454e-06
0.000318645
-8.72596e-06
0.000320765
-8.46172e-06
0.000322818
-8.19197e-06
0.000324802
-7.91687e-06
0.000326715
-7.63658e-06
0.000328557
-7.35129e-06
0.000330326
-7.06118e-06
0.000332022
-6.76645e-06
0.000333642
-6.46731e-06
0.000335187
-6.16398e-06
0.000336654
-5.8567e-06
0.000338044
-5.5457e-06
0.000339354
-5.23122e-06
0.000340585
-4.91352e-06
0.000341736
-4.59287e-06
0.000342805
-4.26952e-06
0.000343793
-3.94375e-06
0.000344699
-3.61584e-06
0.000345522
-3.28607e-06
0.000346261
-2.95472e-06
0.000346918
-2.62209e-06
0.000347491
-2.28846e-06
0.000347979
-1.95413e-06
0.000348384
-1.61938e-06
0.000348705
-1.2845e-06
0.000348942
-9.49794e-07
0.000349096
-6.15541e-07
0.000349165
-2.8203e-07
0.000349152
5.04578e-08
0.000349055
3.81643e-07
0.000348875
7.11252e-07
0.000348614
1.03902e-06
0.000348271
1.36467e-06
0.000347846
1.68796e-06
0.000347342
2.00863e-06
0.000346757
2.32645e-06
0.000346094
2.64118e-06
0.000345353
2.95259e-06
0.000344534
3.26046e-06
0.00034364
3.56459e-06
0.00034267
3.86478e-06
0.000341626
4.16084e-06
0.000340509
4.45259e-06
0.00033932
4.73987e-06
0.00033806
5.02251e-06
0.000336731
5.30037e-06
0.000335333
5.5733e-06
0.000333868
5.84119e-06
0.000332338
6.10392e-06
0.000330743
6.36138e-06
0.000329085
6.61347e-06
0.000327365
6.86012e-06
0.000325585
7.10125e-06
0.000323745
7.33679e-06
0.000321849
7.56669e-06
0.000319896
7.79092e-06
0.000317889
8.00942e-06
0.000315828
8.22218e-06
0.000313716
8.42918e-06
0.000311553
8.63042e-06
0.000309342
8.82589e-06
0.000307083
9.01561e-06
0.000304778
9.19959e-06
0.000302429
9.37785e-06
0.000300036
9.55044e-06
0.000297602
9.71738e-06
0.000295127
9.87873e-06
0.000292614
1.00345e-05
0.000290063
1.01848e-05
0.000287476
1.03297e-05
0.000284854
1.04693e-05
0.000282198
1.06035e-05
0.000279511
1.07326e-05
0.000276792
1.08565e-05
0.000274044
1.09754e-05
0.000271267
1.10893e-05
0.000268464
1.11984e-05
0.000265634
1.13027e-05
0.000262779
1.14023e-05
0.000259901
1.14974e-05
0.000257
1.1588e-05
0.000254078
1.16743e-05
0.000251135
1.17563e-05
0.000248173
1.18341e-05
0.000245193
1.19079e-05
0.000242195
1.19778e-05
0.000239181
1.20438e-05
0.000236151
1.21061e-05
0.000233107
1.21648e-05
0.000230049
1.222e-05
0.000226978
1.22719e-05
0.000223895
1.23204e-05
0.000220801
1.23658e-05
0.000217696
1.2408e-05
0.000214582
1.24474e-05
0.000211459
1.24838e-05
0.000208327
1.25176e-05
0.000205188
1.25486e-05
0.000202041
1.25771e-05
0.000198888
1.26032e-05
0.00019573
1.26269e-05
0.000192566
1.26484e-05
0.000189397
1.26677e-05
0.000186224
1.26849e-05
0.000183047
1.27002e-05
0.000179867
1.27136e-05
0.000176684
1.27253e-05
0.000173499
1.27352e-05
0.000170312
1.27435e-05
0.000167123
1.27503e-05
0.000163933
1.27556e-05
0.000160742
1.27595e-05
0.000157551
1.27622e-05
0.000154359
1.27637e-05
0.000151167
1.2764e-05
0.000147975
1.27632e-05
0.000144784
1.27615e-05
0.000141593
1.27588e-05
0.000138404
1.27553e-05
0.000135215
1.2751e-05
0.000132028
1.27459e-05
0.000128843
1.27402e-05
0.000125659
1.27338e-05
0.000122477
1.27269e-05
0.000119296
1.27196e-05
0.000116118
1.27117e-05
0.000112942
1.27035e-05
0.000109768
1.26949e-05
0.000106596
1.26861e-05
0.000103427
1.2677e-05
0.00010026
1.26677e-05
9.70951e-05
1.26582e-05
9.39328e-05
1.26487e-05
9.07731e-05
1.2639e-05
8.76157e-05
1.26294e-05
8.44608e-05
1.26197e-05
8.13084e-05
1.26101e-05
7.81583e-05
1.26005e-05
7.50107e-05
1.25911e-05
7.18654e-05
1.25818e-05
6.87224e-05
1.25726e-05
6.55817e-05
1.25637e-05
6.24431e-05
1.2555e-05
5.93067e-05
1.25465e-05
5.61724e-05
1.25383e-05
5.30401e-05
1.25305e-05
4.99097e-05
1.25229e-05
4.6781e-05
1.25157e-05
4.36542e-05
1.25088e-05
4.05289e-05
1.25023e-05
3.74052e-05
1.24962e-05
3.4283e-05
1.24906e-05
3.1162e-05
1.24853e-05
2.80423e-05
1.24805e-05
2.49237e-05
1.24761e-05
2.1806e-05
1.24722e-05
1.86893e-05
1.24688e-05
1.55732e-05
1.24658e-05
1.24578e-05
1.24633e-05
9.34293e-06
1.24613e-05
6.22841e-06
1.24598e-05
3.11414e-06
1.24588e-05
1.24583e-05
3.59254e-06
-1.79679e-05
7.18525e-06
-1.79688e-05
1.07783e-05
-1.79706e-05
1.43719e-05
-1.79732e-05
1.79663e-05
-1.79767e-05
2.15615e-05
-1.7981e-05
2.51577e-05
-1.79861e-05
2.87552e-05
-1.79921e-05
3.23541e-05
-1.79988e-05
3.59545e-05
-1.80063e-05
3.95566e-05
-1.80145e-05
4.31605e-05
-1.80234e-05
4.67664e-05
-1.8033e-05
5.03744e-05
-1.80431e-05
5.39845e-05
-1.80539e-05
5.7597e-05
-1.80651e-05
6.12119e-05
-1.80768e-05
6.48293e-05
-1.80889e-05
6.84492e-05
-1.81013e-05
7.20718e-05
-1.8114e-05
7.5697e-05
-1.81269e-05
7.93249e-05
-1.81399e-05
8.29555e-05
-1.8153e-05
8.65889e-05
-1.8166e-05
9.02249e-05
-1.8179e-05
9.38637e-05
-1.81917e-05
9.7505e-05
-1.82042e-05
0.000101149
-1.82163e-05
0.000104795
-1.82278e-05
0.000108444
-1.82388e-05
0.000112095
-1.82491e-05
0.000115747
-1.82586e-05
0.000119402
-1.82671e-05
0.000123058
-1.82745e-05
0.000126716
-1.82808e-05
0.000130375
-1.82858e-05
0.000134035
-1.82893e-05
0.000137695
-1.82912e-05
0.000141356
-1.82915e-05
0.000145016
-1.82898e-05
0.000148676
-1.82861e-05
0.000152335
-1.82802e-05
0.000155992
-1.8272e-05
0.000159648
-1.82613e-05
0.000163301
-1.8248e-05
0.000166951
-1.82318e-05
0.000170597
-1.82127e-05
0.000174239
-1.81903e-05
0.000177876
-1.81647e-05
0.000181508
-1.81355e-05
0.000185133
-1.81026e-05
0.000188751
-1.80659e-05
0.000192361
-1.8025e-05
0.000195962
-1.798e-05
0.000199554
-1.79305e-05
0.000203135
-1.78764e-05
0.000206705
-1.78175e-05
0.000210262
-1.77536e-05
0.000213805
-1.76846e-05
0.000217334
-1.76102e-05
0.000220846
-1.75303e-05
0.000224342
-1.74446e-05
0.00022782
-1.73531e-05
0.000231279
-1.72555e-05
0.000234717
-1.71517e-05
0.000238133
-1.70414e-05
0.000241526
-1.69246e-05
0.000244894
-1.68011e-05
0.000248237
-1.66707e-05
0.000251552
-1.65333e-05
0.000254839
-1.63888e-05
0.000258095
-1.62369e-05
0.00026132
-1.60777e-05
0.000264511
-1.59109e-05
0.000267667
-1.57365e-05
0.000270788
-1.55544e-05
0.00027387
-1.53645e-05
0.000276913
-1.51666e-05
0.000279914
-1.49609e-05
0.000282874
-1.47471e-05
0.000285788
-1.45253e-05
0.000288657
-1.42955e-05
0.000291478
-1.40575e-05
0.00029425
-1.38115e-05
0.000296971
-1.35575e-05
0.00029964
-1.32954e-05
0.000302254
-1.30253e-05
0.000304813
-1.27473e-05
0.000307315
-1.24615e-05
0.000309757
-1.21678e-05
0.00031214
-1.18666e-05
0.00031446
-1.15577e-05
0.000316717
-1.12415e-05
0.000318909
-1.0918e-05
0.000321035
-1.05875e-05
0.000323093
-1.025e-05
0.000325082
-9.9058e-06
0.000327
-9.55511e-06
0.000328847
-9.19813e-06
0.000330621
-8.83512e-06
0.000332321
-8.46631e-06
0.000333946
-8.09198e-06
0.000335494
-7.71239e-06
0.000336965
-7.32784e-06
0.000338358
-6.93863e-06
0.000339672
-6.54505e-06
0.000340906
-6.14744e-06
0.000342059
-5.74612e-06
0.000343131
-5.34143e-06
0.000344121
-4.9337e-06
0.000345029
-4.52328e-06
0.000345853
-4.11054e-06
0.000346594
-3.69582e-06
0.000347252
-3.27948e-06
0.000347825
-2.8619e-06
0.000348314
-2.44344e-06
0.000348719
-2.02445e-06
0.00034904
-1.60532e-06
0.000349277
-1.18639e-06
0.000349429
-7.68042e-07
0.000349498
-3.50624e-07
0.000349483
6.55076e-08
0.000349384
4.80003e-07
0.000349203
8.92517e-07
0.000348939
1.30271e-06
0.000348594
1.71026e-06
0.000348167
2.11484e-06
0.000347659
2.51614e-06
0.000347072
2.91385e-06
0.000346406
3.30768e-06
0.000345661
3.69735e-06
0.000344839
4.08258e-06
0.00034394
4.46312e-06
0.000342966
4.83871e-06
0.000341918
5.20912e-06
0.000340796
5.57412e-06
0.000339603
5.93351e-06
0.000338338
6.28709e-06
0.000337004
6.63467e-06
0.000335601
6.97608e-06
0.000334131
7.31115e-06
0.000332595
7.63976e-06
0.000330995
7.96176e-06
0.000329331
8.27704e-06
0.000327606
8.58549e-06
0.00032582
8.88702e-06
0.000323975
9.18155e-06
0.000322073
9.46901e-06
0.000320115
9.74935e-06
0.000318102
1.00225e-05
0.000316035
1.02885e-05
0.000313917
1.05473e-05
0.000311749
1.07988e-05
0.000309532
1.10431e-05
0.000307267
1.12803e-05
0.000304956
1.15102e-05
0.000302601
1.1733e-05
0.000300203
1.19486e-05
0.000297763
1.21572e-05
0.000295283
1.23588e-05
0.000292764
1.25534e-05
0.000290208
1.27412e-05
0.000287615
1.29222e-05
0.000284988
1.30965e-05
0.000282327
1.32642e-05
0.000279635
1.34253e-05
0.000276911
1.358e-05
0.000274158
1.37285e-05
0.000271377
1.38707e-05
0.000268568
1.40069e-05
0.000265734
1.41371e-05
0.000262875
1.42615e-05
0.000259992
1.43801e-05
0.000257087
1.44932e-05
0.00025416
1.46008e-05