/*--------------------------------*- C++ -*----------------------------------*\
| =========                 |                                                 |
| \\      /  F ield         | OpenFOAM: The Open Source CFD Toolbox           |
|  \\    /   O peration     | Version:  v2012                                 |
|   \\  /    A nd           | Website:  www.openfoam.com                      |
|    \\/     M anipulation  |                                                 |
\*---------------------------------------------------------------------------*/
FoamFile
{
    version     2.0;
    format      ascii;
    class       volVectorField;
    location    "12";
    object      Psi;
}
// * * * * * * * * * * * * * * * * * * * * * * * * * * * * * * * * * * * * * //

dimensions      [0 2 -1 0 0 0 0];


internalField   nonuniform List<vector> 
65536
(
(0 0 8.98431e-06)
(0 0 2.69534e-05)
(0 0 4.49238e-05)
(0 0 6.28964e-05)
(0 0 8.08719e-05)
(0 0 9.88513e-05)
(0 0 0.000116835)
(0 0 0.000134825)
(0 0 0.000152821)
(0 0 0.000170824)
(0 0 0.000188834)
(0 0 0.000206853)
(0 0 0.000224881)
(0 0 0.000242919)
(0 0 0.000260967)
(0 0 0.000279026)
(0 0 0.000297096)
(0 0 0.000315177)
(0 0 0.000333271)
(0 0 0.000351377)
(0 0 0.000369496)
(0 0 0.000387627)
(0 0 0.000405771)
(0 0 0.000423928)
(0 0 0.000442098)
(0 0 0.00046028)
(0 0 0.000478474)
(0 0 0.00049668)
(0 0 0.000514898)
(0 0 0.000533127)
(0 0 0.000551365)
(0 0 0.000569614)
(0 0 0.000587871)
(0 0 0.000606135)
(0 0 0.000624406)
(0 0 0.000642682)
(0 0 0.000660962)
(0 0 0.000679244)
(0 0 0.000697526)
(0 0 0.000715808)
(0 0 0.000734086)
(0 0 0.000752359)
(0 0 0.000770624)
(0 0 0.000788879)
(0 0 0.000807122)
(0 0 0.000825349)
(0 0 0.000843558)
(0 0 0.000861746)
(0 0 0.000879909)
(0 0 0.000898044)
(0 0 0.000916148)
(0 0 0.000934216)
(0 0 0.000952245)
(0 0 0.00097023)
(0 0 0.000988167)
(0 0 0.00100605)
(0 0 0.00102388)
(0 0 0.00104165)
(0 0 0.00105934)
(0 0 0.00107697)
(0 0 0.00109452)
(0 0 0.00111198)
(0 0 0.00112936)
(0 0 0.00114664)
(0 0 0.00116382)
(0 0 0.00118089)
(0 0 0.00119785)
(0 0 0.00121469)
(0 0 0.0012314)
(0 0 0.00124798)
(0 0 0.00126441)
(0 0 0.0012807)
(0 0 0.00129683)
(0 0 0.0013128)
(0 0 0.00132859)
(0 0 0.00134421)
(0 0 0.00135964)
(0 0 0.00137488)
(0 0 0.00138992)
(0 0 0.00140474)
(0 0 0.00141935)
(0 0 0.00143373)
(0 0 0.00144788)
(0 0 0.00146179)
(0 0 0.00147545)
(0 0 0.00148884)
(0 0 0.00150198)
(0 0 0.00151484)
(0 0 0.00152742)
(0 0 0.00153971)
(0 0 0.0015517)
(0 0 0.00156339)
(0 0 0.00157476)
(0 0 0.00158582)
(0 0 0.00159655)
(0 0 0.00160695)
(0 0 0.00161701)
(0 0 0.00162672)
(0 0 0.00163608)
(0 0 0.00164507)
(0 0 0.00165371)
(0 0 0.00166197)
(0 0 0.00166986)
(0 0 0.00167737)
(0 0 0.00168449)
(0 0 0.00169122)
(0 0 0.00169756)
(0 0 0.0017035)
(0 0 0.00170904)
(0 0 0.00171417)
(0 0 0.00171889)
(0 0 0.00172321)
(0 0 0.00172711)
(0 0 0.0017306)
(0 0 0.00173367)
(0 0 0.00173632)
(0 0 0.00173856)
(0 0 0.00174038)
(0 0 0.00174179)
(0 0 0.00174277)
(0 0 0.00174334)
(0 0 0.00174349)
(0 0 0.00174323)
(0 0 0.00174256)
(0 0 0.00174148)
(0 0 0.00173999)
(0 0 0.00173809)
(0 0 0.00173579)
(0 0 0.0017331)
(0 0 0.00173001)
(0 0 0.00172652)
(0 0 0.00172266)
(0 0 0.00171841)
(0 0 0.00171378)
(0 0 0.00170878)
(0 0 0.00170341)
(0 0 0.00169768)
(0 0 0.0016916)
(0 0 0.00168516)
(0 0 0.00167839)
(0 0 0.00167127)
(0 0 0.00166382)
(0 0 0.00165605)
(0 0 0.00164796)
(0 0 0.00163955)
(0 0 0.00163085)
(0 0 0.00162184)
(0 0 0.00161254)
(0 0 0.00160296)
(0 0 0.00159311)
(0 0 0.00158298)
(0 0 0.00157259)
(0 0 0.00156195)
(0 0 0.00155105)
(0 0 0.00153992)
(0 0 0.00152855)
(0 0 0.00151696)
(0 0 0.00150514)
(0 0 0.00149312)
(0 0 0.00148089)
(0 0 0.00146846)
(0 0 0.00145583)
(0 0 0.00144303)
(0 0 0.00143004)
(0 0 0.00141689)
(0 0 0.00140357)
(0 0 0.00139009)
(0 0 0.00137646)
(0 0 0.00136268)
(0 0 0.00134876)
(0 0 0.00133471)
(0 0 0.00132053)
(0 0 0.00130623)
(0 0 0.00129181)
(0 0 0.00127728)
(0 0 0.00126265)
(0 0 0.00124792)
(0 0 0.00123309)
(0 0 0.00121817)
(0 0 0.00120316)
(0 0 0.00118808)
(0 0 0.00117292)
(0 0 0.00115768)
(0 0 0.00114238)
(0 0 0.00112702)
(0 0 0.0011116)
(0 0 0.00109612)
(0 0 0.00108059)
(0 0 0.00106502)
(0 0 0.00104939)
(0 0 0.00103373)
(0 0 0.00101803)
(0 0 0.0010023)
(0 0 0.000986536)
(0 0 0.000970742)
(0 0 0.000954923)
(0 0 0.000939081)
(0 0 0.000923218)
(0 0 0.000907337)
(0 0 0.00089144)
(0 0 0.000875529)
(0 0 0.000859607)
(0 0 0.000843675)
(0 0 0.000827735)
(0 0 0.000811789)
(0 0 0.000795839)
(0 0 0.000779886)
(0 0 0.000763931)
(0 0 0.000747977)
(0 0 0.000732024)
(0 0 0.000716074)
(0 0 0.000700127)
(0 0 0.000684185)
(0 0 0.000668249)
(0 0 0.000652319)
(0 0 0.000636397)
(0 0 0.000620483)
(0 0 0.000604578)
(0 0 0.000588682)
(0 0 0.000572796)
(0 0 0.00055692)
(0 0 0.000541055)
(0 0 0.000525201)
(0 0 0.000509359)
(0 0 0.000493528)
(0 0 0.000477709)
(0 0 0.000461902)
(0 0 0.000446107)
(0 0 0.000430324)
(0 0 0.000414552)
(0 0 0.000398793)
(0 0 0.000383046)
(0 0 0.00036731)
(0 0 0.000351585)
(0 0 0.000335872)
(0 0 0.00032017)
(0 0 0.000304478)
(0 0 0.000288797)
(0 0 0.000273126)
(0 0 0.000257464)
(0 0 0.000241812)
(0 0 0.000226168)
(0 0 0.000210533)
(0 0 0.000194906)
(0 0 0.000179285)
(0 0 0.000163672)
(0 0 0.000148065)
(0 0 0.000132463)
(0 0 0.000116867)
(0 0 0.000101276)
(0 0 8.56879e-05)
(0 0 7.01037e-05)
(0 0 5.45222e-05)
(0 0 3.89429e-05)
(0 0 2.33651e-05)
(0 0 7.78826e-06)
(0 0 2.69526e-05)
(0 0 8.08591e-05)
(0 0 0.000134769)
(0 0 0.000188686)
(0 0 0.000242612)
(0 0 0.00029655)
(0 0 0.000350501)
(0 0 0.000404469)
(0 0 0.000458456)
(0 0 0.000512463)
(0 0 0.000566494)
(0 0 0.000620551)
(0 0 0.000674634)
(0 0 0.000728747)
(0 0 0.000782891)
(0 0 0.000837067)
(0 0 0.000891276)
(0 0 0.000945521)
(0 0 0.000999802)
(0 0 0.00105412)
(0 0 0.00110848)
(0 0 0.00116287)
(0 0 0.0012173)
(0 0 0.00127177)
(0 0 0.00132628)
(0 0 0.00138083)
(0 0 0.00143541)
(0 0 0.00149003)
(0 0 0.00154468)
(0 0 0.00159937)
(0 0 0.00165409)
(0 0 0.00170883)
(0 0 0.00176361)
(0 0 0.0018184)
(0 0 0.00187321)
(0 0 0.00192804)
(0 0 0.00198288)
(0 0 0.00203773)
(0 0 0.00209258)
(0 0 0.00214743)
(0 0 0.00220226)
(0 0 0.00225709)
(0 0 0.00231188)
(0 0 0.00236665)
(0 0 0.00242138)
(0 0 0.00247607)
(0 0 0.0025307)
(0 0 0.00258526)
(0 0 0.00263976)
(0 0 0.00269417)
(0 0 0.00274848)
(0 0 0.00280269)
(0 0 0.00285678)
(0 0 0.00291074)
(0 0 0.00296456)
(0 0 0.00301821)
(0 0 0.0030717)
(0 0 0.00312501)
(0 0 0.00317811)
(0 0 0.00323099)
(0 0 0.00328364)
(0 0 0.00333605)
(0 0 0.00338818)
(0 0 0.00344003)
(0 0 0.00349158)
(0 0 0.0035428)
(0 0 0.00359368)
(0 0 0.0036442)
(0 0 0.00369434)
(0 0 0.00374407)
(0 0 0.00379339)
(0 0 0.00384225)
(0 0 0.00389065)
(0 0 0.00393856)
(0 0 0.00398596)
(0 0 0.00403282)
(0 0 0.00407912)
(0 0 0.00412484)
(0 0 0.00416996)
(0 0 0.00421444)
(0 0 0.00425827)
(0 0 0.00430143)
(0 0 0.00434388)
(0 0 0.00438561)
(0 0 0.00442659)
(0 0 0.0044668)
(0 0 0.00450621)
(0 0 0.0045448)
(0 0 0.00458254)
(0 0 0.00461941)
(0 0 0.0046554)
(0 0 0.00469047)
(0 0 0.00472461)
(0 0 0.00475779)
(0 0 0.00478998)
(0 0 0.00482118)
(0 0 0.00485136)
(0 0 0.0048805)
(0 0 0.00490858)
(0 0 0.00493559)
(0 0 0.0049615)
(0 0 0.00498629)
(0 0 0.00500996)
(0 0 0.00503249)
(0 0 0.00505386)
(0 0 0.00507406)
(0 0 0.00509307)
(0 0 0.00511089)
(0 0 0.00512751)
(0 0 0.00514291)
(0 0 0.00515708)
(0 0 0.00517003)
(0 0 0.00518174)
(0 0 0.0051922)
(0 0 0.00520142)
(0 0 0.00520939)
(0 0 0.0052161)
(0 0 0.00522157)
(0 0 0.00522577)
(0 0 0.00522873)
(0 0 0.00523044)
(0 0 0.00523089)
(0 0 0.00523011)
(0 0 0.00522809)
(0 0 0.00522484)
(0 0 0.00522036)
(0 0 0.00521467)
(0 0 0.00520778)
(0 0 0.00519968)
(0 0 0.00519041)
(0 0 0.00517996)
(0 0 0.00516835)
(0 0 0.00515559)
(0 0 0.0051417)
(0 0 0.0051267)
(0 0 0.00511059)
(0 0 0.0050934)
(0 0 0.00507514)
(0 0 0.00505583)
(0 0 0.00503549)
(0 0 0.00501413)
(0 0 0.00499178)
(0 0 0.00496846)
(0 0 0.00494418)
(0 0 0.00491896)
(0 0 0.00489283)
(0 0 0.00486581)
(0 0 0.00483791)
(0 0 0.00480916)
(0 0 0.00477959)
(0 0 0.0047492)
(0 0 0.00471802)
(0 0 0.00468608)
(0 0 0.0046534)
(0 0 0.00461999)
(0 0 0.00458588)
(0 0 0.00455109)
(0 0 0.00451564)
(0 0 0.00447956)
(0 0 0.00444285)
(0 0 0.00440556)
(0 0 0.00436769)
(0 0 0.00432926)
(0 0 0.0042903)
(0 0 0.00425082)
(0 0 0.00421085)
(0 0 0.00417041)
(0 0 0.00412951)
(0 0 0.00408817)
(0 0 0.00404641)
(0 0 0.00400425)
(0 0 0.00396171)
(0 0 0.0039188)
(0 0 0.00387555)
(0 0 0.00383196)
(0 0 0.00378805)
(0 0 0.00374384)
(0 0 0.00369935)
(0 0 0.00365459)
(0 0 0.00360957)
(0 0 0.00356431)
(0 0 0.00351882)
(0 0 0.00347312)
(0 0 0.00342721)
(0 0 0.00338112)
(0 0 0.00333485)
(0 0 0.00328841)
(0 0 0.00324182)
(0 0 0.00319509)
(0 0 0.00314822)
(0 0 0.00310123)
(0 0 0.00305413)
(0 0 0.00300693)
(0 0 0.00295963)
(0 0 0.00291225)
(0 0 0.00286479)
(0 0 0.00281726)
(0 0 0.00276967)
(0 0 0.00272202)
(0 0 0.00267433)
(0 0 0.0026266)
(0 0 0.00257883)
(0 0 0.00253103)
(0 0 0.00248321)
(0 0 0.00243537)
(0 0 0.00238752)
(0 0 0.00233966)
(0 0 0.00229179)
(0 0 0.00224393)
(0 0 0.00219607)
(0 0 0.00214822)
(0 0 0.00210037)
(0 0 0.00205255)
(0 0 0.00200474)
(0 0 0.00195695)
(0 0 0.00190918)
(0 0 0.00186144)
(0 0 0.00181372)
(0 0 0.00176603)
(0 0 0.00171838)
(0 0 0.00167075)
(0 0 0.00162315)
(0 0 0.00157559)
(0 0 0.00152806)
(0 0 0.00148057)
(0 0 0.00143311)
(0 0 0.00138569)
(0 0 0.00133831)
(0 0 0.00129096)
(0 0 0.00124364)
(0 0 0.00119637)
(0 0 0.00114912)
(0 0 0.00110192)
(0 0 0.00105474)
(0 0 0.0010076)
(0 0 0.000960498)
(0 0 0.000913424)
(0 0 0.000866381)
(0 0 0.000819368)
(0 0 0.000772383)
(0 0 0.000725427)
(0 0 0.000678496)
(0 0 0.000631591)
(0 0 0.000584709)
(0 0 0.000537849)
(0 0 0.000491009)
(0 0 0.000444189)
(0 0 0.000397385)
(0 0 0.000350597)
(0 0 0.000303823)
(0 0 0.00025706)
(0 0 0.000210308)
(0 0 0.000163564)
(0 0 0.000116827)
(0 0 7.00943e-05)
(0 0 2.33645e-05)
(0 0 4.49195e-05)
(0 0 0.000134761)
(0 0 0.000224609)
(0 0 0.000314467)
(0 0 0.000404341)
(0 0 0.000494234)
(0 0 0.00058415)
(0 0 0.000674094)
(0 0 0.00076407)
(0 0 0.00085408)
(0 0 0.000944129)
(0 0 0.00103422)
(0 0 0.00112436)
(0 0 0.00121454)
(0 0 0.00130478)
(0 0 0.00139507)
(0 0 0.00148542)
(0 0 0.00157583)
(0 0 0.0016663)
(0 0 0.00175683)
(0 0 0.00184742)
(0 0 0.00193807)
(0 0 0.00202879)
(0 0 0.00211958)
(0 0 0.00221043)
(0 0 0.00230134)
(0 0 0.00239231)
(0 0 0.00248335)
(0 0 0.00257444)
(0 0 0.00266558)
(0 0 0.00275678)
(0 0 0.00284803)
(0 0 0.00293932)
(0 0 0.00303065)
(0 0 0.00312201)
(0 0 0.00321339)
(0 0 0.0033048)
(0 0 0.00339622)
(0 0 0.00348764)
(0 0 0.00357906)
(0 0 0.00367046)
(0 0 0.00376183)
(0 0 0.00385317)
(0 0 0.00394446)
(0 0 0.00403569)
(0 0 0.00412684)
(0 0 0.0042179)
(0 0 0.00430886)
(0 0 0.00439969)
(0 0 0.00449038)
(0 0 0.00458092)
(0 0 0.00467128)
(0 0 0.00476144)
(0 0 0.00485139)
(0 0 0.0049411)
(0 0 0.00503055)
(0 0 0.00511971)
(0 0 0.00520857)
(0 0 0.00529709)
(0 0 0.00538525)
(0 0 0.00547302)
(0 0 0.00556037)
(0 0 0.00564728)
(0 0 0.00573372)
(0 0 0.00581965)
(0 0 0.00590505)
(0 0 0.00598987)
(0 0 0.00607409)
(0 0 0.00615768)
(0 0 0.0062406)
(0 0 0.00632281)
(0 0 0.00640427)
(0 0 0.00648496)
(0 0 0.00656484)
(0 0 0.00664385)
(0 0 0.00672198)
(0 0 0.00679918)
(0 0 0.00687541)
(0 0 0.00695063)
(0 0 0.0070248)
(0 0 0.00709788)
(0 0 0.00716983)
(0 0 0.00724061)
(0 0 0.00731019)
(0 0 0.00737851)
(0 0 0.00744555)
(0 0 0.00751126)
(0 0 0.0075756)
(0 0 0.00763853)
(0 0 0.00770001)
(0 0 0.00776001)
(0 0 0.00781849)
(0 0 0.00787541)
(0 0 0.00793073)
(0 0 0.00798442)
(0 0 0.00803644)
(0 0 0.00808676)
(0 0 0.00813535)
(0 0 0.00818217)
(0 0 0.0082272)
(0 0 0.0082704)
(0 0 0.00831174)
(0 0 0.00835121)
(0 0 0.00838877)
(0 0 0.0084244)
(0 0 0.00845808)
(0 0 0.00848978)
(0 0 0.00851949)
(0 0 0.0085472)
(0 0 0.00857287)
(0 0 0.00859651)
(0 0 0.00861809)
(0 0 0.00863761)
(0 0 0.00865506)
(0 0 0.00867042)
(0 0 0.00868371)
(0 0 0.0086949)
(0 0 0.008704)
(0 0 0.00871101)
(0 0 0.00871594)
(0 0 0.00871878)
(0 0 0.00871954)
(0 0 0.00871823)
(0 0 0.00871485)
(0 0 0.00870942)
(0 0 0.00870195)
(0 0 0.00869246)
(0 0 0.00868095)
(0 0 0.00866746)
(0 0 0.00865198)
(0 0 0.00863455)
(0 0 0.00861519)
(0 0 0.00859391)
(0 0 0.00857075)
(0 0 0.00854572)
(0 0 0.00851886)
(0 0 0.00849019)
(0 0 0.00845974)
(0 0 0.00842753)
(0 0 0.00839361)
(0 0 0.008358)
(0 0 0.00832072)
(0 0 0.00828183)
(0 0 0.00824134)
(0 0 0.00819929)
(0 0 0.00815571)
(0 0 0.00811065)
(0 0 0.00806413)
(0 0 0.0080162)
(0 0 0.00796687)
(0 0 0.0079162)
(0 0 0.00786422)
(0 0 0.00781096)
(0 0 0.00775646)
(0 0 0.00770076)
(0 0 0.00764389)
(0 0 0.00758588)
(0 0 0.00752678)
(0 0 0.00746661)
(0 0 0.00740542)
(0 0 0.00734323)
(0 0 0.00728009)
(0 0 0.00721602)
(0 0 0.00715107)
(0 0 0.00708525)
(0 0 0.00701862)
(0 0 0.00695119)
(0 0 0.006883)
(0 0 0.00681408)
(0 0 0.00674447)
(0 0 0.00667418)
(0 0 0.00660326)
(0 0 0.00653173)
(0 0 0.00645961)
(0 0 0.00638694)
(0 0 0.00631375)
(0 0 0.00624005)
(0 0 0.00616588)
(0 0 0.00609126)
(0 0 0.00601621)
(0 0 0.00594076)
(0 0 0.00586493)
(0 0 0.00578875)
(0 0 0.00571223)
(0 0 0.00563539)
(0 0 0.00555826)
(0 0 0.00548085)
(0 0 0.00540319)
(0 0 0.00532529)
(0 0 0.00524717)
(0 0 0.00516885)
(0 0 0.00509034)
(0 0 0.00501166)
(0 0 0.00493282)
(0 0 0.00485384)
(0 0 0.00477473)
(0 0 0.0046955)
(0 0 0.00461618)
(0 0 0.00453676)
(0 0 0.00445726)
(0 0 0.0043777)
(0 0 0.00429808)
(0 0 0.00421841)
(0 0 0.0041387)
(0 0 0.00405896)
(0 0 0.0039792)
(0 0 0.00389943)
(0 0 0.00381965)
(0 0 0.00373987)
(0 0 0.0036601)
(0 0 0.00358035)
(0 0 0.00350061)
(0 0 0.00342089)
(0 0 0.00334121)
(0 0 0.00326156)
(0 0 0.00318194)
(0 0 0.00310237)
(0 0 0.00302284)
(0 0 0.00294336)
(0 0 0.00286392)
(0 0 0.00278454)
(0 0 0.00270522)
(0 0 0.00262595)
(0 0 0.00254673)
(0 0 0.00246758)
(0 0 0.00238848)
(0 0 0.00230945)
(0 0 0.00223047)
(0 0 0.00215156)
(0 0 0.0020727)
(0 0 0.0019939)
(0 0 0.00191517)
(0 0 0.00183649)
(0 0 0.00175787)
(0 0 0.0016793)
(0 0 0.00160079)
(0 0 0.00152234)
(0 0 0.00144393)
(0 0 0.00136558)
(0 0 0.00128727)
(0 0 0.00120902)
(0 0 0.0011308)
(0 0 0.00105263)
(0 0 0.00097449)
(0 0 0.000896392)
(0 0 0.000818328)
(0 0 0.000740295)
(0 0 0.000662291)
(0 0 0.000584313)
(0 0 0.000506358)
(0 0 0.000428422)
(0 0 0.000350504)
(0 0 0.0002726)
(0 0 0.000194706)
(0 0 0.000116821)
(0 0 3.89397e-05)
(0 0 6.28843e-05)
(0 0 0.000188656)
(0 0 0.000314437)
(0 0 0.000440233)
(0 0 0.00056605)
(0 0 0.000691895)
(0 0 0.000817772)
(0 0 0.000943688)
(0 0 0.00106965)
(0 0 0.00119566)
(0 0 0.00132172)
(0 0 0.00144785)
(0 0 0.00157403)
(0 0 0.00170029)
(0 0 0.00182662)
(0 0 0.00195302)
(0 0 0.00207951)
(0 0 0.00220608)
(0 0 0.00233273)
(0 0 0.00245947)
(0 0 0.0025863)
(0 0 0.00271321)
(0 0 0.00284022)
(0 0 0.00296732)
(0 0 0.00309451)
(0 0 0.00322179)
(0 0 0.00334915)
(0 0 0.0034766)
(0 0 0.00360414)
(0 0 0.00373175)
(0 0 0.00385943)
(0 0 0.00398718)
(0 0 0.00411499)
(0 0 0.00424286)
(0 0 0.00437077)
(0 0 0.00449872)
(0 0 0.0046267)
(0 0 0.0047547)
(0 0 0.0048827)
(0 0 0.0050107)
(0 0 0.00513868)
(0 0 0.00526662)
(0 0 0.00539451)
(0 0 0.00552233)
(0 0 0.00565007)
(0 0 0.0057777)
(0 0 0.00590521)
(0 0 0.00603257)
(0 0 0.00615976)
(0 0 0.00628676)
(0 0 0.00641353)
(0 0 0.00654007)
(0 0 0.00666633)
(0 0 0.00679228)
(0 0 0.00691791)
(0 0 0.00704317)
(0 0 0.00716803)
(0 0 0.00729246)
(0 0 0.00741643)
(0 0 0.00753989)
(0 0 0.00766281)
(0 0 0.00778515)
(0 0 0.00790686)
(0 0 0.00802792)
(0 0 0.00814826)
(0 0 0.00826786)
(0 0 0.00838666)
(0 0 0.00850462)
(0 0 0.00862169)
(0 0 0.00873782)
(0 0 0.00885297)
(0 0 0.00896707)
(0 0 0.00908009)
(0 0 0.00919196)
(0 0 0.00930265)
(0 0 0.00941208)
(0 0 0.00952021)
(0 0 0.00962698)
(0 0 0.00973234)
(0 0 0.00983624)
(0 0 0.00993861)
(0 0 0.0100394)
(0 0 0.0101386)
(0 0 0.010236)
(0 0 0.0103317)
(0 0 0.0104256)
(0 0 0.0105177)
(0 0 0.0106078)
(0 0 0.010696)
(0 0 0.0107821)
(0 0 0.0108662)
(0 0 0.0109481)
(0 0 0.0110278)
(0 0 0.0111053)
(0 0 0.0111805)
(0 0 0.0112534)
(0 0 0.0113239)
(0 0 0.011392)
(0 0 0.0114576)
(0 0 0.0115206)
(0 0 0.0115811)
(0 0 0.0116391)
(0 0 0.0116944)
(0 0 0.011747)
(0 0 0.0117969)
(0 0 0.0118441)
(0 0 0.0118885)
(0 0 0.0119301)
(0 0 0.0119689)
(0 0 0.0120049)
(0 0 0.012038)
(0 0 0.0120682)
(0 0 0.0120956)
(0 0 0.01212)
(0 0 0.0121415)
(0 0 0.0121601)
(0 0 0.0121758)
(0 0 0.0121885)
(0 0 0.0121983)
(0 0 0.0122052)
(0 0 0.0122092)
(0 0 0.0122103)
(0 0 0.0122084)
(0 0 0.0122037)
(0 0 0.012196)
(0 0 0.0121856)
(0 0 0.0121723)
(0 0 0.0121561)
(0 0 0.0121372)
(0 0 0.0121155)
(0 0 0.0120911)
(0 0 0.0120639)
(0 0 0.0120341)
(0 0 0.0120017)
(0 0 0.0119666)
(0 0 0.0119289)
(0 0 0.0118888)
(0 0 0.0118461)
(0 0 0.011801)
(0 0 0.0117534)
(0 0 0.0117035)
(0 0 0.0116513)
(0 0 0.0115968)
(0 0 0.0115401)
(0 0 0.0114811)
(0 0 0.0114201)
(0 0 0.0113569)
(0 0 0.0112918)
(0 0 0.0112246)
(0 0 0.0111555)
(0 0 0.0110845)
(0 0 0.0110117)
(0 0 0.0109371)
(0 0 0.0108607)
(0 0 0.0107827)
(0 0 0.010703)
(0 0 0.0106218)
(0 0 0.010539)
(0 0 0.0104547)
(0 0 0.010369)
(0 0 0.0102819)
(0 0 0.0101934)
(0 0 0.0101037)
(0 0 0.0100127)
(0 0 0.00992051)
(0 0 0.00982717)
(0 0 0.00973273)
(0 0 0.00963722)
(0 0 0.00954069)
(0 0 0.00944319)
(0 0 0.00934475)
(0 0 0.00924542)
(0 0 0.00914523)
(0 0 0.00904423)
(0 0 0.00894246)
(0 0 0.00883995)
(0 0 0.00873674)
(0 0 0.00863286)
(0 0 0.00852836)
(0 0 0.00842326)
(0 0 0.0083176)
(0 0 0.00821141)
(0 0 0.00810472)
(0 0 0.00799756)
(0 0 0.00788996)
(0 0 0.00778195)
(0 0 0.00767355)
(0 0 0.0075648)
(0 0 0.00745572)
(0 0 0.00734633)
(0 0 0.00723665)
(0 0 0.00712671)
(0 0 0.00701654)
(0 0 0.00690614)
(0 0 0.00679555)
(0 0 0.00668478)
(0 0 0.00657385)
(0 0 0.00646277)
(0 0 0.00635157)
(0 0 0.00624026)
(0 0 0.00612886)
(0 0 0.00601738)
(0 0 0.00590582)
(0 0 0.00579422)
(0 0 0.00568258)
(0 0 0.0055709)
(0 0 0.00545921)
(0 0 0.00534751)
(0 0 0.00523581)
(0 0 0.00512413)
(0 0 0.00501246)
(0 0 0.00490082)
(0 0 0.00478921)
(0 0 0.00467765)
(0 0 0.00456613)
(0 0 0.00445466)
(0 0 0.00434325)
(0 0 0.00423191)
(0 0 0.00412063)
(0 0 0.00400942)
(0 0 0.00389829)
(0 0 0.00378723)
(0 0 0.00367625)
(0 0 0.00356535)
(0 0 0.00345453)
(0 0 0.00334379)
(0 0 0.00323314)
(0 0 0.00312258)
(0 0 0.00301209)
(0 0 0.0029017)
(0 0 0.00279138)
(0 0 0.00268115)
(0 0 0.002571)
(0 0 0.00246094)
(0 0 0.00235095)
(0 0 0.00224104)
(0 0 0.0021312)
(0 0 0.00202144)
(0 0 0.00191175)
(0 0 0.00180212)
(0 0 0.00169256)
(0 0 0.00158306)
(0 0 0.00147362)
(0 0 0.00136423)
(0 0 0.0012549)
(0 0 0.00114562)
(0 0 0.00103637)
(0 0 0.000927171)
(0 0 0.000818006)
(0 0 0.000708873)
(0 0 0.000599768)
(0 0 0.000490686)
(0 0 0.000381625)
(0 0 0.000272578)
(0 0 0.000163542)
(0 0 5.45134e-05)
(0 0 8.0846e-05)
(0 0 0.000242542)
(0 0 0.00040425)
(0 0 0.000565977)
(0 0 0.000727732)
(0 0 0.000889522)
(0 0 0.00105136)
(0 0 0.00121324)
(0 0 0.00137518)
(0 0 0.00153718)
(0 0 0.00169926)
(0 0 0.00186141)
(0 0 0.00202364)
(0 0 0.00218596)
(0 0 0.00234838)
(0 0 0.00251089)
(0 0 0.00267351)
(0 0 0.00283624)
(0 0 0.00299907)
(0 0 0.00316202)
(0 0 0.00332508)
(0 0 0.00348826)
(0 0 0.00365156)
(0 0 0.00381497)
(0 0 0.0039785)
(0 0 0.00414215)
(0 0 0.00430591)
(0 0 0.00446978)
(0 0 0.00463376)
(0 0 0.00479783)
(0 0 0.00496201)
(0 0 0.00512627)
(0 0 0.00529061)
(0 0 0.00545502)
(0 0 0.0056195)
(0 0 0.00578403)
(0 0 0.00594859)
(0 0 0.00611318)
(0 0 0.00627778)
(0 0 0.00644237)
(0 0 0.00660693)
(0 0 0.00677146)
(0 0 0.00693592)
(0 0 0.00710029)
(0 0 0.00726456)
(0 0 0.00742869)
(0 0 0.00759267)
(0 0 0.00775645)
(0 0 0.00792002)
(0 0 0.00808335)
(0 0 0.00824639)
(0 0 0.00840913)
(0 0 0.00857151)
(0 0 0.00873351)
(0 0 0.00889508)
(0 0 0.00905618)
(0 0 0.00921678)
(0 0 0.00937682)
(0 0 0.00953627)
(0 0 0.00969507)
(0 0 0.00985318)
(0 0 0.0100105)
(0 0 0.0101671)
(0 0 0.0103228)
(0 0 0.0104776)
(0 0 0.0106315)
(0 0 0.0107843)
(0 0 0.010936)
(0 0 0.0110866)
(0 0 0.011236)
(0 0 0.0113842)
(0 0 0.011531)
(0 0 0.0116764)
(0 0 0.0118203)
(0 0 0.0119627)
(0 0 0.0121035)
(0 0 0.0122426)
(0 0 0.01238)
(0 0 0.0125155)
(0 0 0.0126492)
(0 0 0.0127809)
(0 0 0.0129106)
(0 0 0.0130382)
(0 0 0.0131636)
(0 0 0.0132867)
(0 0 0.0134076)
(0 0 0.013526)
(0 0 0.013642)
(0 0 0.0137554)
(0 0 0.0138663)
(0 0 0.0139744)
(0 0 0.0140798)
(0 0 0.0141824)
(0 0 0.0142822)
(0 0 0.014379)
(0 0 0.0144727)
(0 0 0.0145635)
(0 0 0.014651)
(0 0 0.0147355)
(0 0 0.0148166)
(0 0 0.0148945)
(0 0 0.014969)
(0 0 0.0150402)
(0 0 0.0151079)
(0 0 0.0151721)
(0 0 0.0152328)
(0 0 0.01529)
(0 0 0.0153435)
(0 0 0.0153935)
(0 0 0.0154397)
(0 0 0.0154823)
(0 0 0.0155212)
(0 0 0.0155564)
(0 0 0.0155878)
(0 0 0.0156155)
(0 0 0.0156394)
(0 0 0.0156596)
(0 0 0.015676)
(0 0 0.0156886)
(0 0 0.0156974)
(0 0 0.0157025)
(0 0 0.0157039)
(0 0 0.0157015)
(0 0 0.0156954)
(0 0 0.0156855)
(0 0 0.015672)
(0 0 0.0156549)
(0 0 0.0156341)
(0 0 0.0156097)
(0 0 0.0155818)
(0 0 0.0155503)
(0 0 0.0155154)
(0 0 0.015477)
(0 0 0.0154352)
(0 0 0.01539)
(0 0 0.0153415)
(0 0 0.0152898)
(0 0 0.0152349)
(0 0 0.0151768)
(0 0 0.0151156)
(0 0 0.0150514)
(0 0 0.0149841)
(0 0 0.014914)
(0 0 0.014841)
(0 0 0.0147651)
(0 0 0.0146865)
(0 0 0.0146053)
(0 0 0.0145214)
(0 0 0.014435)
(0 0 0.014346)
(0 0 0.0142547)
(0 0 0.014161)
(0 0 0.0140649)
(0 0 0.0139667)
(0 0 0.0138663)
(0 0 0.0137638)
(0 0 0.0136592)
(0 0 0.0135527)
(0 0 0.0134442)
(0 0 0.0133339)
(0 0 0.0132218)
(0 0 0.013108)
(0 0 0.0129926)
(0 0 0.0128755)
(0 0 0.0127569)
(0 0 0.0126368)
(0 0 0.0125153)
(0 0 0.0123925)
(0 0 0.0122683)
(0 0 0.0121428)
(0 0 0.0120162)
(0 0 0.0118884)
(0 0 0.0117596)
(0 0 0.0116296)
(0 0 0.0114987)
(0 0 0.0113669)
(0 0 0.0112341)
(0 0 0.0111005)
(0 0 0.0109661)
(0 0 0.0108309)
(0 0 0.010695)
(0 0 0.0105584)
(0 0 0.0104212)
(0 0 0.0102833)
(0 0 0.0101449)
(0 0 0.010006)
(0 0 0.00986661)
(0 0 0.00972675)
(0 0 0.00958645)
(0 0 0.00944576)
(0 0 0.00930471)
(0 0 0.00916333)
(0 0 0.00902164)
(0 0 0.00887967)
(0 0 0.00873744)
(0 0 0.00859499)
(0 0 0.00845234)
(0 0 0.0083095)
(0 0 0.0081665)
(0 0 0.00802336)
(0 0 0.0078801)
(0 0 0.00773674)
(0 0 0.0075933)
(0 0 0.00744978)
(0 0 0.00730622)
(0 0 0.00716262)
(0 0 0.007019)
(0 0 0.00687537)
(0 0 0.00673174)
(0 0 0.00658813)
(0 0 0.00644454)
(0 0 0.00630099)
(0 0 0.00615749)
(0 0 0.00601404)
(0 0 0.00587065)
(0 0 0.00572732)
(0 0 0.00558408)
(0 0 0.00544091)
(0 0 0.00529783)
(0 0 0.00515484)
(0 0 0.00501195)
(0 0 0.00486916)
(0 0 0.00472646)
(0 0 0.00458388)
(0 0 0.00444139)
(0 0 0.00429902)
(0 0 0.00415675)
(0 0 0.0040146)
(0 0 0.00387255)
(0 0 0.00373061)
(0 0 0.00358878)
(0 0 0.00344706)
(0 0 0.00330544)
(0 0 0.00316393)
(0 0 0.00302252)
(0 0 0.00288121)
(0 0 0.00273999)
(0 0 0.00259887)
(0 0 0.00245784)
(0 0 0.0023169)
(0 0 0.00217604)
(0 0 0.00203526)
(0 0 0.00189456)
(0 0 0.00175393)
(0 0 0.00161336)
(0 0 0.00147286)
(0 0 0.00133241)
(0 0 0.00119202)
(0 0 0.00105167)
(0 0 0.00091136)
(0 0 0.000771089)
(0 0 0.000630849)
(0 0 0.000490634)
(0 0 0.000350439)
(0 0 0.000210258)
(0 0 7.00849e-05)
(0 0 9.88038e-05)
(0 0 0.000296416)
(0 0 0.000494043)
(0 0 0.000691694)
(0 0 0.000889379)
(0 0 0.00108711)
(0 0 0.00128489)
(0 0 0.00148273)
(0 0 0.00168064)
(0 0 0.00187863)
(0 0 0.00207671)
(0 0 0.00227488)
(0 0 0.00247316)
(0 0 0.00267154)
(0 0 0.00287004)
(0 0 0.00306866)
(0 0 0.00326741)
(0 0 0.00346629)
(0 0 0.0036653)
(0 0 0.00386446)
(0 0 0.00406375)
(0 0 0.00426319)
(0 0 0.00446278)
(0 0 0.00466251)
(0 0 0.00486238)
(0 0 0.0050624)
(0 0 0.00526256)
(0 0 0.00546285)
(0 0 0.00566327)
(0 0 0.00586383)
(0 0 0.0060645)
(0 0 0.00626528)
(0 0 0.00646616)
(0 0 0.00666713)
(0 0 0.00686818)
(0 0 0.00706929)
(0 0 0.00727045)
(0 0 0.00747164)
(0 0 0.00767285)
(0 0 0.00787405)
(0 0 0.00807523)
(0 0 0.00827636)
(0 0 0.00847741)
(0 0 0.00867836)
(0 0 0.00887918)
(0 0 0.00907984)
(0 0 0.00928031)
(0 0 0.00948055)
(0 0 0.00968054)
(0 0 0.00988022)
(0 0 0.0100796)
(0 0 0.0102785)
(0 0 0.0104771)
(0 0 0.0106752)
(0 0 0.0108727)
(0 0 0.0110697)
(0 0 0.0112661)
(0 0 0.0114618)
(0 0 0.0116568)
(0 0 0.0118509)
(0 0 0.0120443)
(0 0 0.0122367)
(0 0 0.0124282)
(0 0 0.0126186)
(0 0 0.012808)
(0 0 0.0129961)
(0 0 0.013183)
(0 0 0.0133686)
(0 0 0.0135528)
(0 0 0.0137355)
(0 0 0.0139167)
(0 0 0.0140963)
(0 0 0.0142741)
(0 0 0.0144501)
(0 0 0.0146243)
(0 0 0.0147965)
(0 0 0.0149667)
(0 0 0.0151348)
(0 0 0.0153006)
(0 0 0.0154641)
(0 0 0.0156253)
(0 0 0.0157839)
(0 0 0.01594)
(0 0 0.0160934)
(0 0 0.0162441)
(0 0 0.0163919)
(0 0 0.0165368)
(0 0 0.0166787)
(0 0 0.0168175)
(0 0 0.0169531)
(0 0 0.0170854)
(0 0 0.0172144)
(0 0 0.01734)
(0 0 0.017462)
(0 0 0.0175804)
(0 0 0.0176951)
(0 0 0.0178061)
(0 0 0.0179133)
(0 0 0.0180166)
(0 0 0.0181159)
(0 0 0.0182112)
(0 0 0.0183024)
(0 0 0.0183894)
(0 0 0.0184723)
(0 0 0.0185509)
(0 0 0.0186251)
(0 0 0.0186951)
(0 0 0.0187606)
(0 0 0.0188217)
(0 0 0.0188783)
(0 0 0.0189304)
(0 0 0.018978)
(0 0 0.019021)
(0 0 0.0190594)
(0 0 0.0190933)
(0 0 0.0191225)
(0 0 0.0191472)
(0 0 0.0191672)
(0 0 0.0191826)
(0 0 0.0191934)
(0 0 0.0191996)
(0 0 0.0192012)
(0 0 0.0191983)
(0 0 0.0191907)
(0 0 0.0191787)
(0 0 0.0191621)
(0 0 0.0191411)
(0 0 0.0191157)
(0 0 0.0190858)
(0 0 0.0190516)
(0 0 0.019013)
(0 0 0.0189702)
(0 0 0.0189232)
(0 0 0.018872)
(0 0 0.0188168)
(0 0 0.0187574)
(0 0 0.0186941)
(0 0 0.0186268)
(0 0 0.0185557)
(0 0 0.0184808)
(0 0 0.0184022)
(0 0 0.0183199)
(0 0 0.018234)
(0 0 0.0181447)
(0 0 0.0180519)
(0 0 0.0179557)
(0 0 0.0178562)
(0 0 0.0177536)
(0 0 0.0176478)
(0 0 0.017539)
(0 0 0.0174272)
(0 0 0.0173125)
(0 0 0.017195)
(0 0 0.0170748)
(0 0 0.016952)
(0 0 0.0168265)
(0 0 0.0166986)
(0 0 0.0165683)
(0 0 0.0164356)
(0 0 0.0163007)
(0 0 0.0161635)
(0 0 0.0160243)
(0 0 0.0158831)
(0 0 0.0157399)
(0 0 0.0155948)
(0 0 0.0154479)
(0 0 0.0152993)
(0 0 0.015149)
(0 0 0.0149971)
(0 0 0.0148437)
(0 0 0.0146888)
(0 0 0.0145325)
(0 0 0.0143749)
(0 0 0.014216)
(0 0 0.0140559)
(0 0 0.0138947)
(0 0 0.0137323)
(0 0 0.0135689)
(0 0 0.0134045)
(0 0 0.0132392)
(0 0 0.013073)
(0 0 0.012906)
(0 0 0.0127382)
(0 0 0.0125697)
(0 0 0.0124004)
(0 0 0.0122306)
(0 0 0.0120601)
(0 0 0.0118891)
(0 0 0.0117176)
(0 0 0.0115456)
(0 0 0.0113731)
(0 0 0.0112003)
(0 0 0.011027)
(0 0 0.0108534)
(0 0 0.0106796)
(0 0 0.0105054)
(0 0 0.010331)
(0 0 0.0101564)
(0 0 0.00998156)
(0 0 0.00980658)
(0 0 0.00963144)
(0 0 0.00945619)
(0 0 0.00928083)
(0 0 0.0091054)
(0 0 0.0089299)
(0 0 0.00875436)
(0 0 0.0085788)
(0 0 0.00840323)
(0 0 0.00822766)
(0 0 0.00805211)
(0 0 0.0078766)
(0 0 0.00770113)
(0 0 0.00752571)
(0 0 0.00735037)
(0 0 0.0071751)
(0 0 0.00699991)
(0 0 0.00682482)
(0 0 0.00664983)
(0 0 0.00647494)
(0 0 0.00630017)
(0 0 0.00612552)
(0 0 0.00595099)
(0 0 0.00577658)
(0 0 0.0056023)
(0 0 0.00542815)
(0 0 0.00525414)
(0 0 0.00508025)
(0 0 0.00490651)
(0 0 0.00473289)
(0 0 0.00455941)
(0 0 0.00438607)
(0 0 0.00421285)
(0 0 0.00403977)
(0 0 0.00386682)
(0 0 0.00369399)
(0 0 0.00352128)
(0 0 0.00334869)
(0 0 0.00317622)
(0 0 0.00300385)
(0 0 0.0028316)
(0 0 0.00265945)
(0 0 0.00248739)
(0 0 0.00231543)
(0 0 0.00214356)
(0 0 0.00197176)
(0 0 0.00180004)
(0 0 0.0016284)
(0 0 0.00145681)
(0 0 0.00128529)
(0 0 0.00111381)
(0 0 0.00094238)
(0 0 0.000770986)
(0 0 0.000599624)
(0 0 0.000428285)
(0 0 0.000256964)
(0 0 8.56536e-05)
(0 0 0.000116757)
(0 0 0.000350276)
(0 0 0.000583812)
(0 0 0.000817378)
(0 0 0.00105098)
(0 0 0.00128464)
(0 0 0.00151836)
(0 0 0.00175215)
(0 0 0.00198603)
(0 0 0.00222)
(0 0 0.00245407)
(0 0 0.00268826)
(0 0 0.00292257)
(0 0 0.00315701)
(0 0 0.00339158)
(0 0 0.0036263)
(0 0 0.00386117)
(0 0 0.0040962)
(0 0 0.0043314)
(0 0 0.00456675)
(0 0 0.00480228)
(0 0 0.00503798)
(0 0 0.00527385)
(0 0 0.0055099)
(0 0 0.00574612)
(0 0 0.00598251)
(0 0 0.00621907)
(0 0 0.00645579)
(0 0 0.00669267)
(0 0 0.0069297)
(0 0 0.00716687)
(0 0 0.00740418)
(0 0 0.00764161)
(0 0 0.00787915)
(0 0 0.00811679)
(0 0 0.0083545)
(0 0 0.00859228)
(0 0 0.0088301)
(0 0 0.00906793)
(0 0 0.00930577)
(0 0 0.00954358)
(0 0 0.00978133)
(0 0 0.010019)
(0 0 0.0102566)
(0 0 0.010494)
(0 0 0.0107312)
(0 0 0.0109682)
(0 0 0.0112049)
(0 0 0.0114413)
(0 0 0.0116774)
(0 0 0.0119131)
(0 0 0.0121484)
(0 0 0.0123831)
(0 0 0.0126173)
(0 0 0.0128509)
(0 0 0.0130838)
(0 0 0.0133161)
(0 0 0.0135475)
(0 0 0.013778)
(0 0 0.0140077)
(0 0 0.0142363)
(0 0 0.0144639)
(0 0 0.0146903)
(0 0 0.0149155)
(0 0 0.0151395)
(0 0 0.015362)
(0 0 0.015583)
(0 0 0.0158026)
(0 0 0.0160204)
(0 0 0.0162366)
(0 0 0.0164509)
(0 0 0.0166632)
(0 0 0.0168736)
(0 0 0.0170819)
(0 0 0.0172879)
(0 0 0.0174917)
(0 0 0.017693)
(0 0 0.0178918)
(0 0 0.018088)
(0 0 0.0182815)
(0 0 0.0184721)
(0 0 0.0186598)
(0 0 0.0188445)
(0 0 0.019026)
(0 0 0.0192043)
(0 0 0.0193792)
(0 0 0.0195506)
(0 0 0.0197185)
(0 0 0.0198828)
(0 0 0.0200432)
(0 0 0.0201998)
(0 0 0.0203524)
(0 0 0.020501)
(0 0 0.0206454)
(0 0 0.0207855)
(0 0 0.0209213)
(0 0 0.0210527)
(0 0 0.0211795)
(0 0 0.0213017)
(0 0 0.0214192)
(0 0 0.021532)
(0 0 0.0216399)
(0 0 0.0217429)
(0 0 0.0218409)
(0 0 0.0219339)
(0 0 0.0220218)
(0 0 0.0221046)
(0 0 0.0221821)
(0 0 0.0222544)
(0 0 0.0223213)
(0 0 0.022383)
(0 0 0.0224393)
(0 0 0.0224902)
(0 0 0.0225356)
(0 0 0.0225757)
(0 0 0.0226103)
(0 0 0.0226394)
(0 0 0.0226631)
(0 0 0.0226813)
(0 0 0.022694)
(0 0 0.0227013)
(0 0 0.0227032)
(0 0 0.0226996)
(0 0 0.0226907)
(0 0 0.0226764)
(0 0 0.0226567)
(0 0 0.0226318)
(0 0 0.0226016)
(0 0 0.0225662)
(0 0 0.0225257)
(0 0 0.02248)
(0 0 0.0224293)
(0 0 0.0223736)
(0 0 0.022313)
(0 0 0.0222475)
(0 0 0.0221773)
(0 0 0.0221023)
(0 0 0.0220227)
(0 0 0.0219385)
(0 0 0.0218498)
(0 0 0.0217567)
(0 0 0.0216593)
(0 0 0.0215576)
(0 0 0.0214518)
(0 0 0.0213419)
(0 0 0.0212281)
(0 0 0.0211104)
(0 0 0.0209889)
(0 0 0.0208637)
(0 0 0.0207349)
(0 0 0.0206026)
(0 0 0.0204669)
(0 0 0.0203279)
(0 0 0.0201856)
(0 0 0.0200402)
(0 0 0.0198918)
(0 0 0.0197404)
(0 0 0.0195862)
(0 0 0.0194292)
(0 0 0.0192696)
(0 0 0.0191073)
(0 0 0.0189426)
(0 0 0.0187755)
(0 0 0.0186061)
(0 0 0.0184345)
(0 0 0.0182608)
(0 0 0.0180849)
(0 0 0.0179072)
(0 0 0.0177275)
(0 0 0.017546)
(0 0 0.0173628)
(0 0 0.017178)
(0 0 0.0169916)
(0 0 0.0168036)
(0 0 0.0166143)
(0 0 0.0164236)
(0 0 0.0162315)
(0 0 0.0160383)
(0 0 0.0158439)
(0 0 0.0156484)
(0 0 0.0154519)
(0 0 0.0152544)
(0 0 0.015056)
(0 0 0.0148567)
(0 0 0.0146566)
(0 0 0.0144558)
(0 0 0.0142542)
(0 0 0.014052)
(0 0 0.0138492)
(0 0 0.0136458)
(0 0 0.0134419)
(0 0 0.0132375)
(0 0 0.0130327)
(0 0 0.0128275)
(0 0 0.012622)
(0 0 0.0124161)
(0 0 0.0122099)
(0 0 0.0120035)
(0 0 0.0117968)
(0 0 0.0115899)
(0 0 0.0113829)
(0 0 0.0111757)
(0 0 0.0109685)
(0 0 0.0107611)
(0 0 0.0105536)
(0 0 0.0103461)
(0 0 0.0101386)