/*--------------------------------*- C++ -*----------------------------------*\
| =========                 |                                                 |
| \\      /  F ield         | OpenFOAM: The Open Source CFD Toolbox           |
|  \\    /   O peration     | Version:  v2012                                 |
|   \\  /    A nd           | Website:  www.openfoam.com                      |
|    \\/     M anipulation  |                                                 |
\*---------------------------------------------------------------------------*/
FoamFile
{
    version     2.0;
    format      ascii;
    class       volScalarField;
    location    "12";
    object      W;
}
// * * * * * * * * * * * * * * * * * * * * * * * * * * * * * * * * * * * * * //

dimensions      [0 0 -1 0 0 0 0];


internalField   nonuniform List<scalar> 
65536
(
2.03984e-16
2.09024e-16
2.1932e-16
2.3508e-16
2.5662e-16
2.84374e-16
3.18897e-16
3.60879e-16
4.11151e-16
4.70704e-16
5.40702e-16
6.22501e-16
7.17674e-16
8.28028e-16
9.55638e-16
1.10288e-15
1.27245e-15
1.46743e-15
1.6913e-15
1.94802e-15
2.24205e-15
2.57843e-15
2.96284e-15
3.40169e-15
3.90213e-15
4.47225e-15
5.12106e-15
5.85868e-15
6.69639e-15
7.64679e-15
8.72393e-15
9.94343e-15
1.13227e-14
1.28809e-14
1.46394e-14
1.6622e-14
1.88546e-14
2.13661e-14
2.41881e-14
2.73557e-14
3.09071e-14
3.48842e-14
3.93332e-14
4.43043e-14
4.98522e-14
5.60368e-14
6.2923e-14
7.05813e-14
7.90882e-14
8.85262e-14
9.89847e-14
1.1056e-13
1.23355e-13
1.37481e-13
1.53057e-13
1.70211e-13
1.89077e-13
2.09801e-13
2.32537e-13
2.57446e-13
2.84701e-13
3.14485e-13
3.46988e-13
3.82411e-13
4.20965e-13
4.62869e-13
5.08354e-13
5.57657e-13
6.11025e-13
6.68712e-13
7.30983e-13
7.98106e-13
8.70356e-13
9.48016e-13
1.03137e-12
1.12071e-12
1.21632e-12
1.3185e-12
1.42753e-12
1.54371e-12
1.66732e-12
1.79864e-12
1.93794e-12
2.08549e-12
2.24152e-12
2.40629e-12
2.58001e-12
2.76289e-12
2.9551e-12
3.15681e-12
3.36816e-12
3.58924e-12
3.82015e-12
4.06092e-12
4.31156e-12
4.57206e-12
4.84234e-12
5.12231e-12
5.4118e-12
5.71064e-12
6.01858e-12
6.33532e-12
6.66054e-12
6.99384e-12
7.33477e-12
7.68283e-12
8.03748e-12
8.3981e-12
8.76402e-12
9.13452e-12
9.50881e-12
9.88606e-12
1.02654e-11
1.06458e-11
1.10263e-11
1.14058e-11
1.17832e-11
1.21574e-11
1.2527e-11
1.28909e-11
1.32477e-11
1.35961e-11
1.39347e-11
1.42619e-11
1.45765e-11
1.48769e-11
1.51616e-11
1.54291e-11
1.56779e-11
1.59065e-11
1.61134e-11
1.62972e-11
1.64564e-11
1.65897e-11
1.66957e-11
1.67733e-11
1.68214e-11
1.68387e-11
1.68245e-11
1.6778e-11
1.66986e-11
1.65856e-11
1.6439e-11
1.62585e-11
1.60444e-11
1.57969e-11
1.55165e-11
1.52042e-11
1.48608e-11
1.44878e-11
1.40867e-11
1.36592e-11
1.32074e-11
1.27335e-11
1.22399e-11
1.17293e-11
1.12046e-11
1.06687e-11
1.01247e-11
9.5757e-12
9.02501e-12
8.47583e-12
7.93138e-12
7.39479e-12
6.86912e-12
6.35727e-12
5.86197e-12
5.38577e-12
4.93097e-12
4.49961e-12
4.09346e-12
3.71401e-12
3.36242e-12
3.03959e-12
2.74608e-12
2.48214e-12
2.24777e-12
2.04264e-12
1.86616e-12
1.71751e-12
1.59559e-12
1.49911e-12
1.42655e-12
1.37622e-12
1.34625e-12
1.33463e-12
1.3392e-12
1.3577e-12
1.3878e-12
1.42709e-12
1.47312e-12
1.52346e-12
1.5757e-12
1.6275e-12
1.67663e-12
1.721e-12
1.75874e-12
1.78816e-12
1.80788e-12
1.81679e-12
1.8141e-12
1.79935e-12
1.77242e-12
1.73353e-12
1.6832e-12
1.62226e-12
1.55179e-12
1.47307e-12
1.38755e-12
1.2968e-12
1.20242e-12
1.10604e-12
1.00922e-12
9.1342e-13
8.1997e-13
7.30034e-13
6.44585e-13
5.64401e-13
4.90051e-13
4.21911e-13
3.60168e-13
3.04841e-13
2.55804e-13
2.12808e-13
1.75508e-13
1.43488e-13
1.16287e-13
9.34158e-14
7.43829e-14
5.87045e-14
4.59198e-14
3.55995e-14
2.73519e-14
2.08266e-14
1.57153e-14
1.17512e-14
8.70739e-15
6.39329e-15
4.65135e-15
3.35302e-15
2.39489e-15
1.69478e-15
1.18824e-15
8.25369e-16
5.67979e-16
3.8721e-16
2.6151e-16
1.74972e-16
1.15996e-16
7.62218e-17
4.96987e-17
3.22479e-17
2.09812e-17
1.3948e-17
9.88104e-18
8.02397e-18
3.04421e-16
3.11933e-16
3.27293e-16
3.50805e-16
3.82943e-16
4.24354e-16
4.75866e-16
5.38507e-16
6.13521e-16
7.02385e-16
8.06836e-16
9.28901e-16
1.07092e-15
1.2356e-15
1.42603e-15
1.64576e-15
1.89881e-15
2.18977e-15
2.52385e-15
2.90694e-15
3.3457e-15
3.84764e-15
4.42123e-15
5.07599e-15
5.82263e-15
6.67314e-15
7.64096e-15
8.74112e-15
9.99043e-15
1.14076e-14
1.30135e-14
1.48313e-14
1.68869e-14
1.92086e-14
2.18283e-14
2.47808e-14
2.81047e-14
3.18427e-14
3.60415e-14
4.07524e-14
4.60321e-14
5.19421e-14
5.85501e-14
6.59297e-14
7.41611e-14
8.33317e-14
9.35361e-14
1.04877e-13
1.17465e-13
1.31421e-13
1.46873e-13
1.63959e-13
1.82829e-13
2.03642e-13
2.26568e-13
2.51788e-13
2.79494e-13
3.09892e-13
3.43197e-13
3.79638e-13
4.19455e-13
4.62901e-13
5.1024e-13
5.6175e-13
6.17716e-13
6.7844e-13
7.44229e-13
8.15403e-13
8.92291e-13
9.75229e-13
1.06456e-12
1.16063e-12
1.2638e-12
1.37442e-12
1.49285e-12
1.61945e-12
1.75457e-12
1.89856e-12
2.05176e-12
2.21451e-12
2.38713e-12
2.56992e-12
2.76317e-12
2.96716e-12
3.18212e-12
3.40829e-12
3.64585e-12
3.89496e-12
4.15575e-12
4.42831e-12
4.71268e-12
5.00889e-12
5.31688e-12
5.63658e-12
5.96784e-12
6.31048e-12
6.66426e-12
7.02888e-12
7.40398e-12
7.78916e-12
8.18394e-12
8.58778e-12
9.00009e-12
9.42022e-12
9.84744e-12
1.0281e-11
1.072e-11
1.11635e-11
1.16107e-11
1.20605e-11
1.25117e-11
1.29633e-11
1.34141e-11
1.38627e-11
1.4308e-11
1.47486e-11
1.5183e-11
1.561e-11
1.60278e-11
1.64352e-11
1.68305e-11
1.72122e-11
1.75787e-11
1.79283e-11
1.82596e-11
1.85709e-11
1.88605e-11
1.9127e-11
1.93686e-11
1.9584e-11
1.97715e-11
1.99298e-11
2.00575e-11
2.01532e-11
2.02157e-11
2.0244e-11
2.02371e-11
2.0194e-11
2.0114e-11
1.99966e-11
1.98414e-11
1.96483e-11
1.94171e-11
1.91482e-11
1.8842e-11
1.84992e-11
1.81207e-11
1.77077e-11
1.72618e-11
1.67846e-11
1.6278e-11
1.57443e-11
1.5186e-11
1.46058e-11
1.40065e-11
1.33912e-11
1.27633e-11
1.21259e-11
1.14827e-11
1.08372e-11
1.01928e-11
9.55329e-12
8.92199e-12
8.30235e-12
7.69762e-12
7.1109e-12
6.54505e-12
6.00271e-12
5.48625e-12
4.99774e-12
4.53895e-12
4.1113e-12
3.71591e-12
3.35355e-12
3.02465e-12
2.72932e-12
2.46736e-12
2.23825e-12
2.04122e-12
1.87518e-12
1.73883e-12
1.63063e-12
1.54883e-12
1.49148e-12
1.45646e-12
1.44153e-12
1.44428e-12
1.46222e-12
1.49278e-12
1.53333e-12
1.5812e-12
1.63376e-12
1.6884e-12
1.7426e-12
1.79396e-12
1.84027e-12
1.87949e-12
1.90986e-12
1.9299e-12
1.93842e-12
1.93462e-12
1.91799e-12
1.88845e-12
1.84622e-12
1.79188e-12
1.72632e-12
1.65069e-12
1.56637e-12
1.47491e-12
1.37796e-12
1.27726e-12
1.1745e-12
1.07135e-12
9.6936e-13
8.69933e-13
7.74299e-13
6.83484e-13
5.98303e-13
5.19356e-13
4.47031e-13
3.81522e-13
3.22841e-13
2.70849e-13
2.25276e-13
1.85753e-13
1.51834e-13
1.23027e-13
9.88129e-14
7.86666e-14
6.20748e-14
4.85482e-14
3.76313e-14
2.89087e-14
2.20088e-14
1.6605e-14
1.24149e-14
9.19802e-15
6.75271e-15
4.91226e-15
3.54072e-15
2.52868e-15
1.78927e-15
1.25437e-15
8.71224e-16
5.99482e-16
4.08652e-16
2.75969e-16
1.84633e-16
1.22392e-16
8.04187e-17
5.24318e-17
3.4019e-17
2.21322e-17
1.47122e-17
1.04218e-17
8.46295e-18
5.49449e-16
5.62997e-16
5.9071e-16
6.33139e-16
6.91136e-16
7.65867e-16
8.58832e-16
9.71886e-16
1.10727e-15
1.26766e-15
1.45619e-15
1.67651e-15
1.93287e-15
2.23013e-15
2.57388e-15
2.97052e-15
3.42732e-15
3.95257e-15
4.55566e-15
5.24721e-15
6.03924e-15
6.9453e-15
7.98066e-15
9.16249e-15
1.05101e-14
1.2045e-14
1.37915e-14
1.57766e-14
1.80306e-14
2.0587e-14
2.34834e-14
2.67614e-14
3.04673e-14
3.46522e-14
3.93728e-14
4.46916e-14
5.06777e-14
5.7407e-14
6.49629e-14
7.34371e-14
8.29299e-14
9.35509e-14
1.0542e-13
1.18667e-13
1.33434e-13
1.49875e-13
1.68156e-13
1.88458e-13
2.10975e-13
2.35915e-13
2.63503e-13
2.9398e-13
3.27603e-13
3.64646e-13
4.05401e-13
4.50178e-13
4.99306e-13
5.53129e-13
6.12015e-13
6.76344e-13
7.46519e-13
8.22959e-13
9.06098e-13
9.96389e-13
1.0943e-12
1.20031e-12
1.31492e-12
1.43862e-12
1.57193e-12
1.71538e-12
1.86948e-12
2.03477e-12
2.21176e-12
2.40098e-12
2.60294e-12
2.81813e-12
3.04705e-12
3.29016e-12
3.5479e-12
3.82068e-12
4.10889e-12
4.41286e-12
4.73291e-12
5.06928e-12
5.42218e-12
5.79176e-12
6.17811e-12
6.58126e-12
7.00117e-12
7.43772e-12
7.89073e-12
8.35994e-12
8.845e-12
9.34548e-12
9.86088e-12
1.03906e-11
1.09339e-11
1.14902e-11
1.20584e-11
1.26376e-11
1.32269e-11
1.38251e-11
1.44311e-11
1.50434e-11
1.56609e-11
1.6282e-11
1.69052e-11
1.75291e-11
1.81519e-11
1.8772e-11
1.93876e-11
1.99969e-11
2.05982e-11
2.11895e-11
2.1769e-11
2.23347e-11
2.28846e-11
2.34169e-11
2.39296e-11
2.44207e-11
2.48881e-11
2.53301e-11
2.57446e-11
2.61298e-11
2.64838e-11
2.68048e-11
2.7091e-11
2.73408e-11
2.75524e-11
2.77243e-11
2.78552e-11
2.79436e-11
2.79884e-11
2.79884e-11
2.79426e-11
2.78504e-11
2.7711e-11
2.7524e-11
2.72892e-11
2.70065e-11
2.66762e-11
2.62986e-11
2.58745e-11
2.54049e-11
2.48908e-11
2.43339e-11
2.3736e-11
2.3099e-11
2.24253e-11
2.17176e-11
2.09787e-11
2.02119e-11
1.94204e-11
1.8608e-11
1.77784e-11
1.69357e-11
1.60838e-11
1.52272e-11
1.43699e-11
1.35163e-11
1.26707e-11
1.18372e-11
1.10199e-11
1.02226e-11
9.44903e-12
8.70264e-12
7.98654e-12
7.30354e-12
6.65612e-12
6.04637e-12
5.476e-12
4.94633e-12
4.45827e-12
4.01237e-12
3.60874e-12
3.24714e-12
2.927e-12
2.64735e-12
2.40697e-12
2.20429e-12
2.03752e-12
1.9046e-12
1.80327e-12
1.73105e-12
1.68532e-12
1.6633e-12
1.66208e-12
1.67869e-12
1.71005e-12
1.75306e-12
1.80462e-12
1.86165e-12
1.92115e-12
1.98023e-12
2.03614e-12
2.08637e-12
2.12861e-12
2.16087e-12
2.1815e-12
2.1892e-12
2.18304e-12
2.16252e-12
2.12755e-12
2.07841e-12
2.01578e-12
1.94067e-12
1.85439e-12
1.75852e-12
1.65479e-12
1.54508e-12
1.43132e-12
1.31542e-12
1.19923e-12
1.08449e-12
9.72753e-13
8.65384e-13
7.63519e-13
6.68053e-13
5.79643e-13
4.98707e-13
4.25447e-13
3.59865e-13
3.01793e-13
2.50919e-13
2.06822e-13
1.68997e-13
1.36888e-13
1.0991e-13
8.74738e-14
6.90037e-14
5.39517e-14
4.18082e-14
3.21088e-14
2.44389e-14
1.84339e-14
1.37791e-14
1.02064e-14
7.49137e-15
5.44847e-15
3.92643e-15
2.80362e-15
1.98345e-15
1.39026e-15
9.65446e-16
6.6421e-16
4.52708e-16
3.05677e-16
2.0448e-16
1.35531e-16
8.90407e-17
5.80463e-17
3.76575e-17
2.44965e-17
1.6282e-17
1.15326e-17
9.3643e-18
1.04414e-15
1.06988e-15
1.12254e-15
1.20317e-15
1.31339e-15
1.45542e-15
1.6321e-15
1.84698e-15
2.10431e-15
2.40917e-15
2.76754e-15
3.18636e-15
3.6737e-15
4.23882e-15
4.89236e-15
5.64647e-15
6.515e-15
7.51369e-15
8.66041e-15
9.97535e-15
1.14814e-14
1.32042e-14
1.51729e-14
1.74201e-14
1.99823e-14
2.29007e-14
2.62211e-14
2.99949e-14
3.42793e-14
3.91383e-14
4.46428e-14
5.08717e-14
5.79124e-14
6.58618e-14
7.48268e-14
8.49257e-14
9.62885e-14
1.09058e-13
1.23393e-13
1.39463e-13
1.57458e-13
1.77584e-13
2.00064e-13
2.25143e-13
2.53084e-13
2.84175e-13
3.18724e-13
3.57067e-13
3.99563e-13
4.46597e-13
4.98583e-13
5.55963e-13
6.19208e-13
6.88819e-13
7.65327e-13
8.49292e-13
9.41308e-13
1.042e-12
1.15201e-12
1.27203e-12
1.40277e-12
1.54496e-12
1.69936e-12
1.86677e-12
2.04797e-12
2.24381e-12
2.45511e-12
2.68271e-12
2.92748e-12
3.19025e-12
3.47188e-12
3.77321e-12
4.09505e-12
4.43821e-12
4.80343e-12
5.19147e-12
5.603e-12
6.03865e-12
6.49899e-12
6.98453e-12
7.49569e-12
8.03281e-12
8.59614e-12
9.18583e-12
9.80192e-12
1.04443e-11
1.11129e-11
1.18072e-11
1.25269e-11
1.32714e-11
1.40399e-11
1.48315e-11
1.56453e-11
1.64801e-11
1.73345e-11
1.82072e-11
1.90965e-11
2.00007e-11
2.09179e-11
2.18461e-11
2.27832e-11
2.3727e-11
2.4675e-11
2.5625e-11
2.65742e-11
2.75202e-11
2.84602e-11
2.93914e-11
3.0311e-11
3.12163e-11
3.21043e-11
3.29721e-11
3.38169e-11
3.46357e-11
3.54257e-11
3.61841e-11
3.69081e-11
3.75949e-11
3.82418e-11
3.88462e-11
3.94056e-11
3.99176e-11
4.03797e-11
4.07899e-11
4.11458e-11
4.14457e-11
4.16876e-11
4.18699e-11
4.1991e-11
4.20495e-11
4.20444e-11
4.19746e-11
4.18394e-11
4.16382e-11
4.13707e-11
4.10367e-11
4.06365e-11
4.01705e-11
3.96394e-11
3.90442e-11
3.83863e-11
3.76671e-11
3.68887e-11
3.60533e-11
3.51634e-11
3.42219e-11
3.32322e-11
3.21977e-11
3.11222e-11
3.00099e-11
2.88653e-11
2.76931e-11
2.64981e-11
2.52854e-11
2.40605e-11
2.28286e-11
2.15952e-11
2.03659e-11
1.91462e-11
1.79415e-11
1.6757e-11
1.5598e-11
1.44692e-11
1.33752e-11
1.23205e-11
1.13087e-11
1.03434e-11
9.42756e-12
8.5638e-12
7.75412e-12
7.00009e-12
6.30275e-12
5.66264e-12
5.07983e-12
4.55389e-12
4.08397e-12
3.66878e-12
3.30665e-12
2.99555e-12
2.73312e-12
2.51671e-12
2.34344e-12
2.21016e-12
2.11356e-12
2.05015e-12
2.01631e-12
2.00832e-12
2.02237e-12
2.05462e-12
2.1012e-12
2.15831e-12
2.22216e-12
2.28911e-12
2.35568e-12
2.41859e-12
2.47481e-12
2.52165e-12
2.55675e-12
2.57817e-12
2.58442e-12
2.57443e-12
2.54766e-12
2.50403e-12
2.4439e-12
2.36811e-12
2.27789e-12
2.17479e-12
2.06067e-12
1.93759e-12
1.80775e-12
1.67341e-12
1.53681e-12
1.4001e-12
1.26529e-12
1.13419e-12
1.00837e-12
8.89137e-13
7.7751e-13
6.74232e-13
5.79771e-13
4.94341e-13
4.17926e-13
3.50312e-13
2.91121e-13
2.39849e-13
1.95897e-13
1.58609e-13
1.27298e-13
1.01272e-13
7.98583e-14
6.24157e-14
4.83499e-14
3.71204e-14
2.82441e-14
2.12975e-14
1.59147e-14
1.17849e-14
8.6476e-15
6.28773e-15
4.5301e-15
3.23387e-15
2.28731e-15
1.60289e-15
1.11287e-15
7.65477e-16
5.21628e-16
3.52149e-16
2.35525e-16
1.56082e-16
1.02526e-16
6.68271e-17
4.33476e-17
2.81938e-17
1.87367e-17
1.32694e-17
1.07736e-17
1.99386e-15
2.04302e-15
2.14359e-15
2.29759e-15
2.50812e-15
2.77941e-15
3.11692e-15
3.52739e-15
4.01899e-15
4.60143e-15
5.28613e-15
6.08638e-15
7.0176e-15
8.09751e-15
9.34645e-15
1.07877e-14
1.24476e-14
1.43565e-14
1.65484e-14
1.90619e-14
2.19408e-14
2.52342e-14
2.89977e-14
3.32935e-14
3.81917e-14
4.37706e-14
5.01179e-14
5.73317e-14
6.55213e-14
7.48084e-14
8.53284e-14
9.72316e-14
1.10685e-13
1.25872e-13
1.42997e-13
1.62284e-13
1.83981e-13
2.08359e-13
2.35716e-13
2.66378e-13
3.00702e-13
3.39077e-13
3.81924e-13
4.29704e-13
4.82915e-13
5.42094e-13
6.07823e-13
6.80727e-13
7.61478e-13
8.50795e-13
9.49446e-13
1.05825e-12
1.17808e-12
1.30986e-12
1.45457e-12
1.61322e-12
1.78691e-12
1.97676e-12
2.18396e-12
2.40973e-12
2.65534e-12
2.9221e-12
3.21137e-12
3.52452e-12
3.86295e-12
4.22808e-12
4.62136e-12
5.04421e-12
5.49805e-12
5.9843e-12
6.50434e-12
7.05951e-12
7.65109e-12
8.28031e-12
8.94831e-12
9.65613e-12
1.04047e-11
1.11949e-11
1.20273e-11
1.29025e-11
1.38209e-11
1.47826e-11
1.57876e-11
1.68357e-11
1.79265e-11
1.90594e-11
2.02333e-11
2.14472e-11
2.26997e-11
2.39892e-11
2.53137e-11
2.66711e-11
2.8059e-11
2.94748e-11
3.09155e-11
3.2378e-11
3.38589e-11
3.53548e-11
3.68617e-11
3.83757e-11
3.98928e-11
4.14086e-11
4.29187e-11
4.44186e-11
4.59037e-11
4.73693e-11
4.88108e-11
5.02234e-11
5.16024e-11
5.2943e-11
5.42407e-11
5.54908e-11
5.66889e-11
5.78306e-11
5.89117e-11
5.99281e-11
6.08758e-11
6.17511e-11
6.25504e-11
6.32705e-11
6.39083e-11
6.44607e-11
6.49253e-11
6.52997e-11
6.55817e-11
6.57695e-11
6.58616e-11
6.58568e-11
6.5754e-11
6.55526e-11
6.52524e-11
6.48532e-11
6.43555e-11
6.37598e-11
6.30673e-11
6.22792e-11
6.13973e-11
6.04237e-11
5.93608e-11
5.82115e-11
5.6979e-11
5.5667e-11
5.42794e-11
5.28207e-11
5.12956e-11
4.97092e-11
4.80672e-11
4.63752e-11
4.46396e-11
4.28667e-11
4.10633e-11
3.92364e-11
3.73932e-11
3.55409e-11
3.36869e-11
3.18388e-11
3.00039e-11
2.81896e-11
2.6403e-11
2.46511e-11
2.29406e-11
2.12778e-11
1.96687e-11
1.81188e-11
1.6633e-11
1.52156e-11
1.38705e-11
1.26008e-11
1.1409e-11
1.02969e-11
9.26565e-12
8.31574e-12
7.44703e-12
6.65875e-12
5.94955e-12
5.31754e-12
4.76031e-12
4.27503e-12
3.85841e-12
3.50685e-12
3.2164e-12
2.98285e-12
2.80178e-12
2.66856e-12
2.57843e-12
2.5265e-12
2.50781e-12
2.51738e-12
2.55019e-12
2.60129e-12
2.66578e-12
2.73891e-12
2.8161e-12
2.89299e-12
2.96552e-12
3.02998e-12
3.08307e-12
3.12192e-12
3.1442e-12
3.14811e-12
3.13242e-12
3.09651e-12
3.04031e-12
2.96433e-12
2.86963e-12
2.75771e-12
2.63051e-12
2.4903e-12
2.33957e-12
2.181e-12
2.01732e-12
1.85121e-12
1.68528e-12
1.52191e-12
1.36327e-12
1.21121e-12
1.06729e-12
9.32705e-13
8.08315e-13
6.94656e-13
5.91958e-13
5.00175e-13
4.19029e-13
3.48047e-13
2.86605e-13
2.33973e-13
1.89349e-13
1.51901e-13
1.20793e-13
9.52116e-14
7.43856e-14
5.76001e-14
4.42057e-14
3.36232e-14
2.53448e-14
1.89329e-14
1.40154e-14
1.02812e-14
7.47336e-15
5.3828e-15
3.84155e-15
2.71643e-15
1.90314e-15
1.32102e-15
9.08451e-16
6.18925e-16
4.17749e-16
2.79347e-16
1.85087e-16
1.21558e-16
7.92188e-17
5.13771e-17
3.34109e-17
2.22002e-17
1.57199e-17
1.27618e-17
3.77839e-15
3.87157e-15
4.06224e-15
4.35419e-15
4.75331e-15
5.26766e-15
5.90759e-15
6.68591e-15
7.61812e-15
8.72266e-15
1.00212e-14
1.1539e-14
1.33054e-14
1.53539e-14
1.77233e-14
2.04576e-14
2.36072e-14
2.72293e-14
3.13886e-14
3.61587e-14
4.16224e-14
4.78732e-14
5.50165e-14
6.31704e-14
7.24679e-14
8.30577e-14
9.51063e-14
1.08799e-13
1.24345e-13
1.41972e-13
1.61939e-13
1.8453e-13
2.10061e-13
2.38879e-13
2.71371e-13
3.0796e-13
3.49114e-13
3.95344e-13
4.47213e-13
5.05336e-13
5.70382e-13
6.43082e-13
7.24231e-13
8.1469e-13
9.15391e-13
1.02734e-12
1.15162e-12
1.2894e-12
1.44193e-12
1.61054e-12
1.79666e-12
2.00179e-12
2.22755e-12
2.47562e-12
2.74781e-12
3.04598e-12
3.37209e-12
3.7282e-12
4.11644e-12
4.539e-12
4.99817e-12
5.49625e-12
6.03564e-12
6.61875e-12
7.24801e-12
7.92588e-12
8.6548e-12
9.43719e-12
1.02754e-11
1.11718e-11
1.21286e-11
1.31479e-11
1.42317e-11
1.53818e-11
1.65998e-11
1.78873e-11
1.92453e-11
2.06749e-11
2.21766e-11
2.37507e-11
2.53973e-11
2.7116e-11
2.8906e-11
3.07661e-11
3.26948e-11
3.469e-11
3.67493e-11
3.88697e-11
4.10478e-11
4.328e-11
4.55617e-11
4.78885e-11
5.0255e-11
5.26558e-11
5.50848e-11
5.75358e-11
6.00021e-11
6.24766e-11
6.49523e-11
6.74214e-11
6.98765e-11
7.23096e-11
7.47127e-11
7.70779e-11
7.9397e-11
8.16621e-11
8.38652e-11
8.59985e-11
8.80542e-11
9.00248e-11
9.19031e-11
9.36821e-11
9.53551e-11
9.69157e-11
9.8358e-11
9.96763e-11
1.00866e-10
1.01921e-10
1.02838e-10
1.03613e-10
1.04243e-10
1.04725e-10
1.05057e-10
1.05236e-10
1.05261e-10
1.05132e-10
1.04848e-10
1.04409e-10
1.03816e-10
1.0307e-10
1.02173e-10
1.01127e-10
9.99347e-11
9.85989e-11
9.71234e-11
9.55124e-11
9.37704e-11
9.19025e-11
8.99142e-11
8.78117e-11
8.56013e-11
8.32899e-11
8.08851e-11
7.83945e-11
7.58264e-11
7.31893e-11
7.04923e-11
6.77447e-11
6.49559e-11
6.2136e-11
5.92948e-11
5.64427e-11
5.359e-11
5.07468e-11
4.79236e-11
4.51306e-11
4.23776e-11
3.96743e-11
3.70302e-11
3.44541e-11
3.19544e-11
2.95389e-11
2.72146e-11
2.49881e-11
2.28649e-11
2.08498e-11
1.89466e-11
1.71585e-11
1.54874e-11
1.39347e-11
1.25005e-11
1.11844e-11
9.98501e-12
8.90011e-12
7.92685e-12
7.06166e-12
6.30041e-12
5.63841e-12
5.07053e-12
4.59122e-12
4.19462e-12
3.8746e-12
3.6248e-12
3.43871e-12
3.3097e-12
3.23109e-12
3.19617e-12
3.19822e-12
3.23063e-12
3.28686e-12
3.36055e-12
3.44555e-12
3.53597e-12
3.62629e-12
3.71135e-12
3.78648e-12
3.84755e-12
3.89102e-12
3.91401e-12
3.91432e-12
3.89048e-12
3.84177e-12
3.76815e-12
3.67034e-12
3.54967e-12
3.40806e-12
3.24793e-12
3.07212e-12
2.88374e-12
2.68609e-12
2.48252e-12
2.27636e-12
2.07076e-12
1.86867e-12
1.6727e-12
1.48513e-12
1.30779e-12
1.14215e-12
9.89216e-13
8.49611e-13
7.23584e-13
6.11051e-13
5.11639e-13
4.24747e-13
3.49588e-13
2.8525e-13
2.30738e-13
1.8502e-13
1.47065e-13
1.15871e-13
9.04888e-14
7.0042e-14
5.37341e-14
4.08556e-14
3.07859e-14
2.29897e-14
1.70131e-14
1.24763e-14
9.06628e-15
6.52826e-15
4.65777e-15
3.29274e-15
2.30633e-15
1.6005e-15
1.1004e-15
7.49537e-16
5.05801e-16
3.3816e-16
2.24014e-16
1.47097e-16
9.58459e-17
6.21502e-17
4.041e-17
2.68464e-17
1.90068e-17
1.54285e-17
7.08337e-15
7.25814e-15
7.61579e-15
8.16344e-15
8.91217e-15
9.8771e-15
1.10777e-14
1.2538e-14
1.42872e-14
1.63599e-14
1.87969e-14
2.16457e-14
2.49612e-14
2.88067e-14
3.3255e-14
3.83889e-14
4.43031e-14
5.11051e-14
5.89168e-14
6.78762e-14
7.81392e-14
8.98817e-14
1.03301e-13
1.18621e-13
1.3609e-13
1.55988e-13
1.78628e-13
2.04358e-13
2.33569e-13
2.66693e-13
3.04213e-13
3.46662e-13
3.94632e-13
4.48776e-13
5.09816e-13
5.78548e-13
6.55844e-13
7.42664e-13
8.40056e-13
9.49169e-13
1.07125e-12
1.20767e-12
1.3599e-12
1.52954e-12
1.71832e-12
1.92812e-12
2.16093e-12
2.41892e-12
2.70438e-12
3.01977e-12
3.36772e-12
3.75099e-12
4.17251e-12
4.63539e-12
5.14286e-12
5.69834e-12
6.30536e-12
6.96761e-12
7.68891e-12
8.47316e-12
9.32441e-12
1.02468e-11
1.12444e-11
1.23214e-11
1.34821e-11
1.47307e-11
1.60712e-11
1.75078e-11
1.90443e-11
2.06844e-11
2.24318e-11
2.42896e-11
2.62609e-11
2.83483e-11
3.0554e-11
3.28797e-11
3.53268e-11
3.7896e-11
4.05874e-11
4.34006e-11
4.63344e-11
4.93869e-11
5.25555e-11
5.58369e-11
5.92269e-11
6.27205e-11
6.6312e-11
6.99948e-11
7.37614e-11
7.76038e-11
8.15128e-11
8.54789e-11
8.94916e-11
9.35399e-11
9.76121e-11
1.01696e-10
1.05779e-10
1.09847e-10
1.13889e-10
1.17889e-10
1.21833e-10
1.25709e-10
1.29502e-10
1.33198e-10
1.36784e-10
1.40246e-10
1.43571e-10
1.46746e-10
1.4976e-10
1.52601e-10
1.55258e-10
1.5772e-10
1.59979e-10
1.62025e-10
1.63852e-10
1.65451e-10
1.66816e-10
1.67943e-10
1.68828e-10
1.69466e-10
1.69855e-10
1.69994e-10
1.69882e-10
1.69519e-10
1.68906e-10
1.68046e-10
1.66941e-10
1.65594e-10
1.6401e-10
1.62194e-10
1.60152e-10
1.5789e-10
1.55415e-10
1.52736e-10
1.4986e-10
1.46797e-10
1.43556e-10
1.40148e-10
1.36583e-10
1.32873e-10
1.29028e-10
1.25063e-10
1.20988e-10
1.16818e-10
1.12565e-10
1.08243e-10
1.03867e-10
9.94501e-11
9.50074e-11
9.05534e-11
8.61026e-11
8.16696e-11
7.72689e-11
7.29147e-11
6.86212e-11
6.44019e-11
6.02699e-11
5.62378e-11
5.23176e-11
4.85203e-11
4.48561e-11
4.13344e-11
3.79633e-11
3.47501e-11
3.17008e-11
2.882e-11
2.61115e-11
2.35774e-11
2.1219e-11
1.9036e-11
1.70272e-11
1.51902e-11
1.35215e-11
1.20165e-11
1.06701e-11
9.47601e-12
8.42741e-12
7.51686e-12
6.7364e-12
6.07765e-12
5.53193e-12
5.09029e-12
4.74362e-12
4.48271e-12
4.29829e-12
4.18113e-12
4.12204e-12
4.11197e-12
4.14203e-12
4.20354e-12
4.2881e-12
4.38768e-12
4.49463e-12
4.6018e-12
4.7026e-12
4.79106e-12
4.86196e-12
4.91083e-12
4.93408e-12
4.92898e-12
4.89375e-12
4.82752e-12
4.73035e-12
4.60317e-12
4.44773e-12
4.26648e-12
4.06252e-12
3.83939e-12
3.60103e-12
3.35157e-12
3.09519e-12
2.83604e-12
2.57803e-12
2.32481e-12
2.07959e-12
1.84517e-12
1.62381e-12
1.41726e-12
1.22675e-12
1.05301e-12
8.96312e-13
7.56503e-13
6.33094e-13
5.25307e-13
4.32141e-13
3.52442e-13
2.84958e-13
2.28396e-13
1.81465e-13
1.42915e-13
1.11564e-13
8.63223e-14
6.61993e-14
5.03155e-14
3.79012e-14
2.82938e-14
2.09317e-14
1.53453e-14
1.11479e-14
8.02492e-15
5.72408e-15
4.04551e-15
2.8329e-15
1.96547e-15
1.35102e-15
9.20054e-16
6.20744e-16
4.14927e-16
2.74817e-16
1.80425e-16
1.17542e-16
7.62064e-17
4.95413e-17
3.29075e-17
2.32944e-17
1.89069e-17
1.31271e-14
1.34513e-14
1.41146e-14
1.51303e-14
1.65191e-14
1.8309e-14
2.05361e-14
2.32453e-14
2.64907e-14
3.03368e-14
3.48592e-14
4.01462e-14
4.63002e-14
5.34389e-14
6.16973e-14
7.12298e-14
8.22124e-14
9.4845e-14
1.09354e-13
1.25997e-13
1.45064e-13
1.66881e-13
1.91817e-13
2.20286e-13
2.52751e-13
2.89734e-13
3.31814e-13
3.79642e-13
4.33942e-13
4.95519e-13
5.65267e-13
6.44178e-13
7.33352e-13
8.34001e-13
9.47464e-13
1.07522e-12
1.21887e-12
1.38021e-12
1.56118e-12
1.76389e-12
1.99067e-12
2.24401e-12
2.52666e-12
2.84155e-12
3.19188e-12
3.58108e-12
4.01282e-12
4.49106e-12
5.02001e-12
5.60415e-12
6.24825e-12
6.95736e-12
7.73679e-12
8.59214e-12
9.52926e-12
1.05543e-11
1.16735e-11
1.28936e-11
1.42212e-11
1.56633e-11
1.72271e-11
1.89196e-11
2.07481e-11
2.27198e-11
2.4842e-11
2.71216e-11
2.95656e-11
3.21808e-11
3.49733e-11
3.79492e-11
4.11139e-11
4.44725e-11
4.8029e-11
5.17871e-11
5.57496e-11
5.99181e-11
6.42935e-11
6.88755e-11
7.36628e-11
7.86526e-11
8.3841e-11
8.92228e-11
9.47912e-11
1.00538e-10
1.06454e-10
1.12528e-10
1.18748e-10
1.251e-10
1.31567e-10
1.38135e-10
1.44785e-10
1.51498e-10
1.58253e-10
1.6503e-10
1.71806e-10
1.78558e-10
1.85264e-10
1.91899e-10
1.98439e-10
2.0486e-10
2.11138e-10
2.17247e-10
2.23166e-10
2.2887e-10
2.34336e-10
2.39545e-10
2.44473e-10
2.49103e-10
2.53416e-10
2.57395e-10
2.61023e-10
2.64288e-10
2.67177e-10
2.69678e-10
2.71784e-10
2.73486e-10
2.74778e-10
2.75657e-10
2.76121e-10
2.76168e-10
2.75799e-10
2.75018e-10
2.73828e-10
2.72235e-10
2.70245e-10
2.67866e-10
2.65109e-10
2.61984e-10
2.58502e-10
2.54676e-10
2.50521e-10
2.4605e-10
2.41279e-10
2.36224e-10
2.30903e-10
2.25333e-10
2.19531e-10
2.13517e-10
2.0731e-10
2.00929e-10
1.94395e-10
1.87727e-10
1.80947e-10
1.74075e-10
1.67132e-10
1.6014e-10
1.53119e-10
1.46091e-10
1.39078e-10
1.32099e-10
1.25176e-10
1.18328e-10
1.11576e-10
1.0494e-10
9.84364e-11
9.20844e-11
8.59004e-11
7.99002e-11
7.40984e-11
6.85084e-11
6.31422e-11
5.80101e-11
5.31212e-11
4.84829e-11
4.41007e-11
3.99787e-11
3.61191e-11
3.25226e-11
2.91881e-11
2.61129e-11
2.32928e-11
2.07223e-11
1.83944e-11
1.63009e-11
1.44327e-11
1.27797e-11
1.13307e-11
1.00744e-11
8.99843e-12
8.09042e-12
7.33752e-12
6.72676e-12
6.2451e-12
5.87949e-12
5.61699e-12
5.44479e-12
5.35031e-12
5.32124e-12
5.34558e-12
5.41174e-12
5.50861e-12
5.62556e-12
5.75261e-12
5.88044e-12
6.00055e-12
6.10526e-12
6.1879e-12
6.2428e-12
6.26542e-12
6.25236e-12
6.20141e-12
6.11157e-12
5.98298e-12
5.81688e-12
5.61556e-12
5.38218e-12
5.12068e-12
4.83559e-12
4.53189e-12
4.21478e-12
3.88954e-12
3.56136e-12
3.23515e-12
2.91543e-12
2.60624e-12
2.311e-12
2.03252e-12
1.77293e-12
1.53373e-12
1.31579e-12
1.11938e-12
9.44282e-13
7.89843e-13
6.55048e-13
5.38618e-13
4.3908e-13
3.54851e-13
2.84294e-13
2.25784e-13
1.77748e-13
1.38704e-13
1.07282e-13
8.22434e-14
6.24886e-14
4.70553e-14
3.51164e-14
2.59711e-14
1.90343e-14
1.38239e-14
9.94862e-15
7.09441e-15
5.01277e-15
3.5094e-15
2.43428e-15
1.67292e-15
1.13903e-15
7.68336e-16
5.13487e-16
3.40036e-16
2.23205e-16
1.45389e-16
9.42455e-17
6.12589e-17
4.06845e-17
2.87953e-17
2.33693e-17
2.40453e-14
2.46395e-14
2.58558e-14
2.77182e-14
3.02647e-14
3.35471e-14
3.76316e-14
4.26006e-14
4.85537e-14
5.56092e-14
6.39066e-14
7.36082e-14
8.49019e-14
9.80044e-14
1.13164e-13
1.30665e-13
1.50831e-13
1.7403e-13
2.00679e-13
2.31251e-13
2.66279e-13
3.06366e-13
3.52188e-13
4.04508e-13
4.6418e-13
5.3216e-13
6.0952e-13
6.97453e-13
7.9729e-13
9.10515e-13
1.03877e-12
1.18388e-12
1.34787e-12
1.53296e-12
1.74161e-12
1.97653e-12
2.24069e-12
2.53735e-12
2.87006e-12
3.24272e-12
3.65955e-12
4.12515e-12
4.6445e-12
5.22299e-12
5.86643e-12
6.58105e-12
7.37356e-12
8.25113e-12
9.22138e-12
1.02924e-11
1.14729e-11
1.27719e-11
1.4199e-11
1.57641e-11
1.74779e-11
1.9351e-11
2.1395e-11
2.36213e-11
2.6042e-11
2.86691e-11
3.1515e-11
3.45922e-11
3.7913e-11
4.149e-11
4.53351e-11
4.94604e-11
5.38771e-11
5.85962e-11
6.36278e-11
6.89811e-11
7.46645e-11
8.06851e-11
8.70486e-11
9.37594e-11
1.0082e-10
1.08232e-10
1.15993e-10
1.24101e-10
1.3255e-10
1.41332e-10
1.50438e-10
1.59855e-10
1.69567e-10
1.79558e-10
1.89806e-10
2.00289e-10
2.10982e-10
2.21856e-10
2.32881e-10
2.44026e-10
2.55254e-10
2.66531e-10
2.77817e-10
2.89073e-10
3.0026e-10
3.11334e-10
3.22254e-10
3.32978e-10
3.43463e-10
3.53666e-10
3.63546e-10
3.73063e-10
3.82177e-10
3.9085e-10
3.99046e-10
4.06732e-10
4.13874e-10
4.20446e-10
4.26419e-10
4.3177e-10
4.36478e-10
4.40526e-10
4.439e-10
4.46587e-10
4.48581e-10
4.49875e-10
4.50468e-10
4.50362e-10
4.49559e-10
4.48068e-10
4.45898e-10
4.43062e-10
4.39573e-10
4.35449e-10
4.30709e-10
4.25374e-10
4.19467e-10
4.13012e-10
4.06035e-10
3.98563e-10
3.90624e-10
3.82247e-10
3.73462e-10
3.64299e-10
3.54791e-10
3.44968e-10
3.34863e-10
3.24508e-10
3.13935e-10
3.03177e-10
2.92267e-10
2.81237e-10
2.7012e-10
2.58947e-10
2.47752e-10
2.36564e-10
2.25416e-10
2.14337e-10
2.03358e-10
1.92508e-10
1.81815e-10
1.71307e-10
1.61009e-10
1.50948e-10
1.41146e-10
1.31625e-10
1.22407e-10
1.1351e-10
1.04952e-10
9.67467e-11
8.89078e-11
8.14459e-11
7.43697e-11
6.76853e-11
6.13968e-11
5.55056e-11
5.00111e-11
4.49104e-11
4.01983e-11
3.58677e-11
3.19094e-11
2.83127e-11
2.50648e-11
2.2152e-11
1.9559e-11
1.72695e-11
1.52665e-11
1.35321e-11
1.20483e-11
1.07963e-11
9.7575e-12
8.91318e-12
8.24472e-12
7.7337e-12
7.36201e-12
7.11193e-12
6.96619e-12
6.90801e-12
6.92122e-12
6.99028e-12
7.10037e-12
7.23748e-12
7.38847e-12
7.54119e-12
7.68457e-12
7.80873e-12
7.90508e-12
7.96639e-12
7.98689e-12
7.96231e-12
7.88992e-12
7.76852e-12
7.59837e-12
7.38115e-12
7.11982e-12
6.81849e-12
6.48218e-12
6.1167e-12
5.72835e-12
5.32374e-12
4.90955e-12
4.49229e-12
4.07815e-12
3.67281e-12
3.28127e-12
2.90783e-12
2.55594e-12
2.22826e-12
1.92658e-12
1.65193e-12
1.40462e-12
1.18432e-12
9.90145e-13
8.20784e-13
6.74591e-13
5.49685e-13
4.4405e-13
3.55613e-13
2.82313e-13
2.22167e-13
1.73301e-13
1.33994e-13
1.02687e-13
7.79957e-14
5.8714e-14
4.38038e-14
3.23866e-14
2.37295e-14
1.72293e-14
1.23962e-14
8.8376e-15
6.24301e-15
4.3697e-15
3.03036e-15
2.08214e-15
1.41738e-15
9.55918e-16
6.38737e-16
4.22907e-16
2.77558e-16
1.80765e-16
1.1716e-16
7.61416e-17
5.05611e-17
3.57808e-17
2.90357e-17
4.35323e-14
4.46095e-14
4.6814e-14
5.019e-14
5.48064e-14
6.0757e-14
6.81625e-14
7.71727e-14
8.79686e-14
1.00765e-13
1.15816e-13
1.33417e-13
1.53909e-13
1.77687e-13
2.05203e-13
2.36973e-13
2.73586e-13
3.15713e-13
3.64113e-13
4.19645e-13
4.83283e-13
5.56121e-13
6.39394e-13
7.34488e-13
8.42959e-13
9.66549e-13
1.10721e-12
1.26711e-12
1.44868e-12
1.65461e-12
1.8879e-12
2.15187e-12
2.45019e-12
2.78691e-12
3.16652e-12
3.59392e-12
4.07451e-12
4.6142e-12
5.21947e-12
5.89735e-12
6.65553e-12
7.50232e-12
8.44674e-12
9.49853e-12
1.06682e-11
1.1967e-11
1.34069e-11
1.5001e-11
1.67629e-11
1.87071e-11
2.08492e-11
2.32052e-11
2.57924e-11
2.86285e-11
3.1732e-11
3.51224e-11
3.88194e-11
4.28434e-11
4.72154e-11
5.19564e-11
5.70879e-11
6.26312e-11
6.86076e-11
7.5038e-11
8.19428e-11
8.93417e-11
9.72534e-11
1.05695e-10
1.14683e-10
1.24231e-10
1.34352e-10
1.45054e-10
1.56346e-10
1.68232e-10
1.80712e-10
1.93784e-10
2.07442e-10
2.21677e-10
2.36473e-10
2.51813e-10
2.67674e-10
2.84027e-10
3.00842e-10
3.18082e-10
3.35704e-10
3.53665e-10
3.71913e-10
3.90395e-10
4.09052e-10
4.27824e-10
4.46644e-10
4.65446e-10
4.8416e-10
5.02712e-10
5.21031e-10
5.39042e-10
5.56671e-10
5.73843e-10
5.90485e-10
6.06526e-10
6.21895e-10
6.36527e-10
6.50356e-10
6.63323e-10
6.75372e-10
6.8645e-10
6.96512e-10
7.05514e-10
7.13423e-10
7.20205e-10
7.25839e-10
7.30303e-10
7.33585e-10
7.35679e-10
7.36582e-10
7.363e-10
7.34841e-10
7.32221e-10
7.28459e-10
7.23581e-10
7.17614e-10
7.10592e-10
7.02551e-10
6.93531e-10
6.83575e-10
6.72729e-10
6.61039e-10
6.48555e-10
6.35329e-10
6.21412e-10
6.06859e-10
5.91722e-10
5.76057e-10
5.59917e-10
5.43358e-10
5.26434e-10
5.09199e-10
4.91706e-10
4.74009e-10
4.56159e-10
4.38209e-10
4.20207e-10
4.02203e-10
3.84246e-10
3.66382e-10
3.48657e-10