/*--------------------------------*- C++ -*----------------------------------*\
| =========                 |                                                 |
| \\      /  F ield         | OpenFOAM: The Open Source CFD Toolbox           |
|  \\    /   O peration     | Version:  v2012                                 |
|   \\  /    A nd           | Website:  www.openfoam.com                      |
|    \\/     M anipulation  |                                                 |
\*---------------------------------------------------------------------------*/
FoamFile
{
    version     2.0;
    format      ascii;
    class       volScalarField;
    location    "0";
    object      pRec;
}
// * * * * * * * * * * * * * * * * * * * * * * * * * * * * * * * * * * * * * //

dimensions      [0 2 -2 0 0 0 0];


internalField   nonuniform List<scalar> 
4000
(
-7.03845e-13
-6.98056e-13
-6.99343e-13
-7.02583e-13
-7.00324e-13
-7.00878e-13
-6.99609e-13
-6.94435e-13
-6.83769e-13
-6.79888e-13
-6.81216e-13
-6.75549e-13
-6.6386e-13
-6.4923e-13
-6.35468e-13
-6.28834e-13
-6.24001e-13
-6.21209e-13
-6.13608e-13
-5.99392e-13
-5.8824e-13
-5.81076e-13
-5.75502e-13
-5.68381e-13
-5.57599e-13
-5.46635e-13
-5.44778e-13
-5.38965e-13
-5.32432e-13
-5.21399e-13
-5.04732e-13
-4.97687e-13
-4.95831e-13
-4.94109e-13
-4.89168e-13
-4.8655e-13
-4.77448e-13
-4.5831e-13
-4.40307e-13
-4.36783e-13
-4.37813e-13
-4.36297e-13
-4.36737e-13
-4.30171e-13
-4.18379e-13
-4.09342e-13
-4.0049e-13
-3.91067e-13
-3.81439e-13
-3.7352e-13
-3.64189e-13
-3.55904e-13
-3.48287e-13
-3.39176e-13
-3.30699e-13
-3.17775e-13
-3.10974e-13
-3.08109e-13
-3.05543e-13
-3.02586e-13
-2.94391e-13
-2.87071e-13
-2.76847e-13
-2.64599e-13
-2.56493e-13
-2.49195e-13
-2.44949e-13
-2.36998e-13
-2.26353e-13
-2.18718e-13
-2.11393e-13
-2.04945e-13
-1.91985e-13
-1.85136e-13
-1.84444e-13
-1.80189e-13
-1.76824e-13
-1.70662e-13
-1.61894e-13
-1.4896e-13
-1.36074e-13
-1.3042e-13
-1.21937e-13
-1.17869e-13
-1.13877e-13
-1.08082e-13
-9.84073e-14
-9.02939e-14
-8.66753e-14
-8.2755e-14
-7.64102e-14
-6.99098e-14
-6.24894e-14
-5.6317e-14
-4.72286e-14
-3.7777e-14
-2.93698e-14
-2.09555e-14
-1.19721e-14
-2.98245e-15
-7.0028e-13
-6.99093e-13
-7.02354e-13
-7.02258e-13
-7.02869e-13
-6.99449e-13
-6.96594e-13
-6.94103e-13
-6.88583e-13
-6.83597e-13
-6.77554e-13
-6.71845e-13
-6.61973e-13
-6.5006e-13
-6.3879e-13
-6.32095e-13
-6.27044e-13
-6.19737e-13
-6.10303e-13
-6.0275e-13
-5.92054e-13
-5.79773e-13
-5.71568e-13
-5.64993e-13
-5.55393e-13
-5.49181e-13
-5.45999e-13
-5.39836e-13
-5.31199e-13
-5.17491e-13
-5.07965e-13
-5.01212e-13
-4.95254e-13
-4.90838e-13
-4.86525e-13
-4.82742e-13
-4.75343e-13
-4.62188e-13
-4.47512e-13
-4.41121e-13
-4.37637e-13
-4.35438e-13
-4.33335e-13
-4.281e-13
-4.20183e-13
-4.09581e-13
-3.99003e-13
-3.90899e-13
-3.81777e-13
-3.70947e-13
-3.63082e-13
-3.54992e-13
-3.48208e-13
-3.40281e-13
-3.3185e-13
-3.20619e-13
-3.10892e-13
-3.06257e-13
-3.03807e-13
-3.01105e-13
-2.96687e-13
-2.87065e-13
-2.78007e-13
-2.6639e-13
-2.58154e-13
-2.48903e-13
-2.42439e-13
-2.3617e-13
-2.28445e-13
-2.20193e-13
-2.11815e-13
-2.04951e-13
-1.97164e-13
-1.88256e-13
-1.84102e-13
-1.76783e-13
-1.75424e-13
-1.68404e-13
-1.58842e-13
-1.4699e-13
-1.37168e-13
-1.31956e-13
-1.25957e-13
-1.20427e-13
-1.11684e-13
-1.05629e-13
-9.65591e-14
-8.82509e-14
-8.49802e-14
-8.12506e-14
-7.80649e-14
-7.25093e-14
-6.63943e-14
-5.44592e-14
-4.56451e-14
-3.85133e-14
-2.89983e-14
-2.11269e-14
-1.3683e-14
-4.83233e-15
-6.99908e-13
-6.98912e-13
-7.01144e-13
-7.04464e-13
-7.05553e-13
-7.00866e-13
-6.95706e-13
-6.92957e-13
-6.86938e-13
-6.83235e-13
-6.77883e-13
-6.71151e-13
-6.61673e-13
-6.51381e-13
-6.40676e-13
-6.32584e-13
-6.26586e-13
-6.19228e-13
-6.10813e-13
-6.01631e-13
-5.90783e-13
-5.81484e-13
-5.72556e-13
-5.65856e-13
-5.57351e-13
-5.5165e-13
-5.46926e-13
-5.38878e-13
-5.28877e-13
-5.15461e-13
-5.08612e-13
-5.01555e-13
-4.95336e-13
-4.92347e-13
-4.88425e-13
-4.841e-13
-4.7412e-13
-4.63904e-13
-4.52573e-13
-4.41373e-13
-4.36737e-13
-4.31995e-13
-4.32584e-13
-4.28777e-13
-4.21425e-13
-4.09978e-13
-3.97818e-13
-3.88118e-13
-3.82318e-13
-3.77002e-13
-3.65332e-13
-3.55248e-13
-3.45884e-13
-3.37146e-13
-3.30057e-13
-3.21738e-13
-3.11036e-13
-3.08469e-13
-3.08753e-13
-3.02431e-13
-2.94319e-13
-2.81956e-13
-2.73512e-13
-2.67818e-13
-2.61084e-13
-2.52696e-13
-2.45343e-13
-2.34924e-13
-2.27098e-13
-2.17127e-13
-2.0874e-13
-2.02171e-13
-1.93494e-13
-1.87767e-13
-1.83593e-13
-1.79357e-13
-1.74135e-13
-1.68459e-13
-1.58222e-13
-1.47682e-13
-1.42605e-13
-1.34194e-13
-1.21975e-13
-1.16537e-13
-1.11213e-13
-1.0793e-13
-1.01532e-13
-9.16786e-14
-8.48765e-14
-7.91495e-14
-7.56236e-14
-7.18025e-14
-6.44878e-14
-5.57249e-14
-4.49223e-14
-3.57896e-14
-2.95563e-14
-2.21764e-14
-1.74818e-14
-5.5655e-15
-7.01e-13
-7.02254e-13
-7.03073e-13
-6.99161e-13
-7.0379e-13
-6.9778e-13
-6.95666e-13
-6.93214e-13
-6.91143e-13
-6.85715e-13
-6.76022e-13
-6.66237e-13
-6.58132e-13
-6.52331e-13
-6.49741e-13
-6.39238e-13
-6.24599e-13
-6.15677e-13
-6.09981e-13
-6.0055e-13
-5.91406e-13
-5.83547e-13
-5.73328e-13
-5.59675e-13
-5.52485e-13
-5.49299e-13
-5.46254e-13
-5.40832e-13
-5.28715e-13
-5.19709e-13
-5.12777e-13
-5.04867e-13
-4.96154e-13
-4.90225e-13
-4.83954e-13
-4.83552e-13
-4.74322e-13
-4.62386e-13
-4.5373e-13
-4.44182e-13
-4.40234e-13
-4.3737e-13
-4.32429e-13
-4.25832e-13
-4.16218e-13
-4.06055e-13
-3.97589e-13
-3.92203e-13
-3.83898e-13
-3.70355e-13
-3.60493e-13
-3.54318e-13
-3.48099e-13
-3.41354e-13
-3.29443e-13
-3.22642e-13
-3.13237e-13
-3.08296e-13
-3.07633e-13
-3.01253e-13
-2.9257e-13
-2.83205e-13
-2.77851e-13
-2.70344e-13
-2.60446e-13
-2.51806e-13
-2.44115e-13
-2.34939e-13
-2.27822e-13
-2.19597e-13
-2.1269e-13
-2.0559e-13
-1.96689e-13
-1.8926e-13
-1.83046e-13
-1.77815e-13
-1.74567e-13
-1.67585e-13
-1.58066e-13
-1.48388e-13
-1.41243e-13
-1.35027e-13
-1.24191e-13
-1.14705e-13
-1.10352e-13
-1.05487e-13
-9.898e-14
-9.12203e-14
-8.38196e-14
-7.96374e-14
-7.77114e-14
-7.20827e-14
-6.63443e-14
-5.42406e-14
-4.50676e-14
-3.83955e-14
-3.1173e-14
-2.12825e-14
-1.40883e-14
-5.08762e-15
-7.02246e-13
-7.06756e-13
-7.03181e-13
-6.98324e-13
-6.94588e-13
-6.98325e-13
-6.98629e-13
-6.96936e-13
-6.90293e-13
-6.82563e-13
-6.73769e-13
-6.67995e-13
-6.5789e-13
-6.49813e-13
-6.48488e-13
-6.42645e-13
-6.31624e-13
-6.20565e-13
-6.07578e-13
-5.95235e-13
-5.90133e-13
-5.82596e-13
-5.67979e-13
-5.58493e-13
-5.55731e-13
-5.52538e-13
-5.48016e-13
-5.39623e-13
-5.31072e-13
-5.22141e-13
-5.13495e-13
-5.06209e-13
-4.97078e-13
-4.90853e-13
-4.8501e-13
-4.82712e-13
-4.73273e-13
-4.6229e-13
-4.51114e-13
-4.43591e-13
-4.40206e-13
-4.39628e-13
-4.32723e-13
-4.24289e-13
-4.13803e-13
-4.03896e-13
-3.96153e-13
-3.905e-13
-3.82661e-13
-3.74123e-13
-3.64233e-13
-3.57295e-13
-3.49133e-13
-3.40664e-13
-3.30223e-13
-3.21162e-13
-3.14513e-13
-3.09831e-13
-3.06594e-13
-2.99686e-13
-2.92212e-13
-2.83767e-13
-2.75462e-13
-2.69368e-13
-2.63863e-13
-2.57311e-13
-2.49309e-13
-2.36419e-13
-2.27485e-13
-2.17104e-13
-2.08851e-13
-2.02644e-13
-1.96359e-13
-1.89495e-13
-1.79656e-13
-1.74656e-13
-1.72701e-13
-1.67277e-13
-1.60424e-13
-1.50327e-13
-1.42669e-13
-1.37278e-13
-1.24441e-13
-1.13884e-13
-1.06909e-13
-1.02097e-13
-9.84593e-14
-9.41574e-14
-8.62352e-14
-8.11942e-14
-7.65675e-14
-7.1729e-14
-6.40368e-14
-5.81878e-14
-4.99273e-14
-3.89396e-14
-3.13387e-14
-2.36648e-14
-1.36209e-14
-2.62584e-15
-6.9873e-13
-7.08483e-13
-7.04943e-13
-6.95499e-13
-6.99393e-13
-7.03356e-13
-7.01506e-13
-6.97122e-13
-6.88478e-13
-6.7475e-13
-6.70893e-13
-6.66769e-13
-6.62628e-13
-6.52147e-13
-6.45293e-13
-6.44526e-13
-6.33457e-13
-6.23219e-13
-6.12484e-13
-5.98491e-13
-5.87723e-13
-5.76164e-13
-5.58608e-13
-5.5501e-13
-5.56281e-13
-5.55985e-13
-5.47995e-13
-5.38347e-13
-5.30035e-13
-5.25412e-13
-5.15261e-13
-5.05626e-13
-4.96923e-13
-4.94078e-13
-4.9089e-13
-4.81511e-13
-4.70934e-13
-4.61974e-13
-4.51219e-13
-4.46123e-13
-4.43151e-13
-4.40169e-13
-4.30985e-13
-4.24771e-13
-4.14091e-13
-4.01887e-13
-3.92079e-13
-3.86685e-13
-3.82857e-13
-3.74014e-13
-3.66653e-13
-3.5667e-13
-3.47545e-13
-3.38382e-13
-3.28684e-13
-3.22845e-13
-3.17327e-13
-3.11295e-13
-3.04852e-13
-3.00501e-13
-2.94304e-13
-2.84703e-13
-2.76474e-13
-2.69254e-13
-2.60105e-13
-2.5554e-13
-2.50209e-13
-2.37649e-13
-2.2855e-13
-2.20335e-13
-2.1046e-13
-2.02897e-13
-1.97764e-13
-1.91458e-13
-1.81662e-13
-1.7724e-13
-1.71353e-13
-1.63927e-13
-1.59166e-13
-1.52796e-13
-1.45424e-13
-1.36374e-13
-1.22115e-13
-1.11533e-13
-1.07482e-13
-1.04562e-13
-1.00767e-13
-9.19987e-14
-8.52777e-14
-8.08132e-14
-7.61472e-14
-7.18731e-14
-6.2271e-14
-5.74669e-14
-5.01512e-14
-4.24457e-14
-3.15005e-14
-2.24544e-14
-1.1538e-14
-1.4648e-15
-7.04199e-13
-7.05154e-13
-7.04497e-13
-7.00934e-13
-6.98287e-13
-7.01825e-13
-7.01073e-13
-6.94744e-13
-6.8655e-13
-6.75289e-13
-6.66806e-13
-6.65825e-13
-6.64836e-13
-6.5351e-13
-6.46563e-13
-6.41449e-13
-6.37435e-13
-6.28785e-13
-6.09581e-13
-5.91169e-13
-5.74809e-13
-5.71034e-13
-5.69134e-13
-5.66723e-13
-5.61913e-13
-5.55473e-13
-5.44656e-13
-5.35722e-13
-5.31997e-13
-5.27437e-13
-5.18399e-13
-5.04672e-13
-4.98167e-13
-4.89932e-13
-4.84852e-13
-4.79e-13
-4.72851e-13
-4.67498e-13
-4.56621e-13
-4.44824e-13
-4.38037e-13
-4.33602e-13
-4.28915e-13
-4.24709e-13
-4.17992e-13
-4.0729e-13
-3.95465e-13
-3.85871e-13
-3.79523e-13
-3.7361e-13
-3.66109e-13
-3.59963e-13
-3.50874e-13
-3.38894e-13
-3.30304e-13
-3.24026e-13
-3.17129e-13
-3.05516e-13
-3.00808e-13
-2.9972e-13
-2.98748e-13
-2.90543e-13
-2.78946e-13
-2.66686e-13
-2.57073e-13
-2.52067e-13
-2.44597e-13
-2.33144e-13
-2.23911e-13
-2.19539e-13
-2.19093e-13
-2.0951e-13
-1.99119e-13
-1.94321e-13
-1.84573e-13
-1.75186e-13
-1.67259e-13
-1.60184e-13
-1.5484e-13
-1.50799e-13
-1.44425e-13
-1.35467e-13
-1.27334e-13
-1.18093e-13
-1.11468e-13
-1.00939e-13
-9.75949e-14
-9.39534e-14
-8.57134e-14
-8.25721e-14
-7.56223e-14
-6.71292e-14
-6.26289e-14
-5.70523e-14
-5.05387e-14
-3.99325e-14
-3.12762e-14
-2.10146e-14
-1.1471e-14
-3.78518e-15
-7.03644e-13
-7.03391e-13
-7.01165e-13
-7.01882e-13
-7.04706e-13
-7.04308e-13
-7.00942e-13
-6.94021e-13
-6.84914e-13
-6.76825e-13
-6.70514e-13
-6.64704e-13
-6.61089e-13
-6.51384e-13
-6.47308e-13
-6.41295e-13
-6.37557e-13
-6.27946e-13
-6.04447e-13
-5.92519e-13
-5.881e-13
-5.81123e-13
-5.70374e-13
-5.60459e-13
-5.57518e-13
-5.51209e-13
-5.39989e-13
-5.33683e-13
-5.29134e-13
-5.24766e-13
-5.18193e-13
-5.10521e-13
-5.0432e-13
-4.97813e-13
-4.85965e-13
-4.77939e-13
-4.71476e-13
-4.62455e-13
-4.54203e-13
-4.45008e-13
-4.39378e-13
-4.37579e-13
-4.30368e-13
-4.28726e-13
-4.22815e-13
-4.07431e-13
-3.91733e-13
-3.77697e-13
-3.76579e-13
-3.7557e-13
-3.71462e-13
-3.63601e-13
-3.50708e-13
-3.38963e-13
-3.2766e-13
-3.21087e-13
-3.17542e-13
-3.11871e-13
-3.0302e-13
-2.96703e-13
-2.94061e-13
-2.87202e-13
-2.79895e-13
-2.71415e-13
-2.62961e-13
-2.54276e-13
-2.45316e-13
-2.34979e-13
-2.29057e-13
-2.22048e-13
-2.14754e-13
-2.09454e-13
-1.98096e-13
-1.85584e-13
-1.78435e-13
-1.75712e-13
-1.71371e-13
-1.64075e-13
-1.59825e-13
-1.53951e-13
-1.45041e-13
-1.3562e-13
-1.23521e-13
-1.12612e-13
-1.03968e-13
-1.00334e-13
-9.85982e-14
-9.55104e-14
-8.79773e-14
-8.09952e-14
-7.3124e-14
-6.75409e-14
-6.30843e-14
-5.82813e-14
-4.89072e-14
-3.82906e-14
-3.12684e-14
-2.24739e-14
-1.28479e-14
-2.11835e-15
-7.0616e-13
-7.08214e-13
-7.02878e-13
-6.96144e-13
-7.00397e-13
-7.03459e-13
-7.03247e-13
-6.95379e-13
-6.82228e-13
-6.78581e-13
-6.71488e-13
-6.61207e-13
-6.55091e-13
-6.51204e-13
-6.4823e-13
-6.43949e-13
-6.37151e-13
-6.2571e-13
-6.08318e-13
-5.94872e-13
-5.86986e-13
-5.78672e-13
-5.74473e-13
-5.66981e-13
-5.57384e-13
-5.47354e-13
-5.39092e-13
-5.33909e-13
-5.32454e-13
-5.25894e-13
-5.19176e-13
-5.11796e-13
-5.01013e-13
-4.90549e-13
-4.86437e-13
-4.79081e-13
-4.70441e-13
-4.6144e-13
-4.56618e-13
-4.51376e-13
-4.45966e-13
-4.39045e-13
-4.27203e-13
-4.18751e-13
-4.15338e-13
-4.08128e-13
-3.97343e-13
-3.86669e-13
-3.80056e-13
-3.72907e-13
-3.66087e-13
-3.58976e-13
-3.49202e-13
-3.40305e-13
-3.32163e-13
-3.27034e-13
-3.18611e-13
-3.11609e-13
-3.0375e-13
-2.97576e-13
-2.91083e-13
-2.84434e-13
-2.78397e-13
-2.70703e-13
-2.60117e-13
-2.49868e-13
-2.43709e-13
-2.35719e-13
-2.28028e-13
-2.20812e-13
-2.13325e-13
-2.09892e-13
-2.02292e-13
-1.92098e-13
-1.80904e-13
-1.76137e-13
-1.72225e-13
-1.65576e-13
-1.60282e-13
-1.51227e-13
-1.45537e-13
-1.36415e-13
-1.23713e-13
-1.14115e-13
-1.06314e-13
-1.0108e-13
-9.94195e-14
-9.46689e-14
-8.72703e-14
-8.09494e-14
-7.27887e-14
-6.66422e-14
-6.00014e-14
-5.53308e-14
-4.85081e-14
-3.94338e-14
-2.97778e-14
-1.84638e-14
-8.64862e-15
7.44017e-16
-7.06284e-13
-7.05633e-13
-7.05446e-13
-7.02332e-13
-6.9881e-13
-7.01361e-13
-6.99707e-13
-6.98165e-13
-6.8987e-13
-6.74758e-13
-6.66009e-13
-6.58296e-13
-6.56246e-13
-6.54494e-13
-6.50151e-13
-6.43277e-13
-6.32961e-13
-6.25817e-13
-6.15529e-13
-5.997e-13
-5.87186e-13
-5.74272e-13
-5.68977e-13
-5.61705e-13
-5.5904e-13
-5.52742e-13
-5.42392e-13
-5.36614e-13
-5.30971e-13
-5.25706e-13
-5.20331e-13
-5.11795e-13
-5.01198e-13
-4.89443e-13
-4.82959e-13
-4.77488e-13
-4.73131e-13
-4.62993e-13
-4.57328e-13
-4.52046e-13
-4.42537e-13
-4.33187e-13
-4.26472e-13
-4.19347e-13
-4.18144e-13
-4.12661e-13
-4.01651e-13
-3.88964e-13
-3.8025e-13
-3.70311e-13
-3.62958e-13
-3.58831e-13
-3.50839e-13
-3.41584e-13
-3.32807e-13
-3.25048e-13
-3.17996e-13
-3.10481e-13
-3.03501e-13
-2.99829e-13
-2.94957e-13
-2.91147e-13
-2.83733e-13
-2.71241e-13
-2.56797e-13
-2.42586e-13
-2.35522e-13
-2.30715e-13
-2.27257e-13
-2.2722e-13
-2.21177e-13
-2.12446e-13
-2.0519e-13
-1.94683e-13
-1.82079e-13
-1.73234e-13
-1.68771e-13
-1.63285e-13
-1.59391e-13
-1.51042e-13
-1.44906e-13
-1.36715e-13
-1.25438e-13
-1.17625e-13
-1.08634e-13
-1.00044e-13
-9.58413e-14
-9.00119e-14
-8.64477e-14
-8.16927e-14
-7.12812e-14
-6.23669e-14
-5.71147e-14
-5.24834e-14
-4.37379e-14
-3.47176e-14
-2.61192e-14
-1.64792e-14
-6.46525e-15
-2.1848e-16
-7.04615e-13
-7.03975e-13
-7.03137e-13
-7.04505e-13
-7.04665e-13
-6.99243e-13
-6.97117e-13
-6.94337e-13
-6.87956e-13
-6.80215e-13
-6.66841e-13
-6.56827e-13
-6.55884e-13
-6.55682e-13
-6.50387e-13
-6.4595e-13
-6.33022e-13
-6.24157e-13
-6.1537e-13
-6.01113e-13
-5.9155e-13
-5.75603e-13
-5.65111e-13
-5.60513e-13
-5.54327e-13
-5.49321e-13
-5.44865e-13
-5.38262e-13
-5.3292e-13
-5.27824e-13
-5.19403e-13
-5.10388e-13
-5.00128e-13
-4.91792e-13
-4.87219e-13
-4.79025e-13
-4.70475e-13
-4.63305e-13
-4.5917e-13
-4.50519e-13
-4.42308e-13
-4.32925e-13
-4.26548e-13
-4.24319e-13
-4.21599e-13
-4.11142e-13
-3.98264e-13
-3.85179e-13
-3.7692e-13
-3.68881e-13
-3.66082e-13
-3.60792e-13
-3.50383e-13
-3.41102e-13
-3.31318e-13
-3.28009e-13
-3.20873e-13
-3.12912e-13
-3.02628e-13
-2.93488e-13
-2.9168e-13
-2.83781e-13
-2.7829e-13
-2.73997e-13
-2.59761e-13
-2.45377e-13
-2.35447e-13
-2.30026e-13
-2.27677e-13
-2.30447e-13
-2.22633e-13
-2.15073e-13
-2.05881e-13
-1.93728e-13
-1.79862e-13
-1.69201e-13
-1.68413e-13
-1.67197e-13
-1.63305e-13
-1.54847e-13
-1.48871e-13
-1.40389e-13
-1.25134e-13
-1.13954e-13
-1.0336e-13
-9.43401e-14
-9.66539e-14
-9.49413e-14
-8.70296e-14
-8.00595e-14
-6.96033e-14
-6.33127e-14
-5.66684e-14
-5.04323e-14
-4.55037e-14
-3.80809e-14
-2.22826e-14
-7.5248e-15
1.25657e-15
-1.65596e-15
-7.07998e-13
-7.06067e-13
-7.03848e-13
-7.05519e-13
-7.03913e-13
-6.98681e-13
-6.98711e-13
-6.95246e-13
-6.87426e-13
-6.77202e-13
-6.68602e-13
-6.60438e-13
-6.52321e-13
-6.48976e-13
-6.45538e-13
-6.39442e-13
-6.363e-13
-6.29864e-13
-6.17824e-13
-6.02673e-13
-5.90812e-13
-5.82854e-13
-5.7149e-13
-5.61295e-13
-5.54354e-13
-5.43769e-13
-5.40279e-13
-5.37524e-13
-5.34268e-13
-5.30423e-13
-5.2171e-13
-5.11191e-13
-4.98963e-13
-4.89433e-13
-4.83676e-13
-4.76669e-13
-4.72684e-13
-4.66328e-13
-4.61713e-13
-4.49015e-13
-4.40919e-13
-4.3e-13
-4.26262e-13
-4.26771e-13
-4.19872e-13
-4.1118e-13
-3.99253e-13
-3.88911e-13
-3.7826e-13
-3.68721e-13
-3.61844e-13
-3.58877e-13
-3.50336e-13
-3.44128e-13
-3.36637e-13
-3.26974e-13
-3.1897e-13
-3.105e-13
-3.02318e-13
-2.96442e-13
-2.94268e-13
-2.94138e-13
-2.8309e-13
-2.7071e-13
-2.51786e-13
-2.41788e-13
-2.35338e-13
-2.32289e-13
-2.2771e-13
-2.25737e-13
-2.19557e-13
-2.18563e-13
-2.12541e-13
-1.99696e-13
-1.78577e-13
-1.61995e-13
-1.61256e-13
-1.68259e-13
-1.65637e-13
-1.54959e-13
-1.47829e-13
-1.37407e-13
-1.27287e-13
-1.18697e-13
-1.08295e-13
-9.74141e-14
-9.13171e-14
-9.05967e-14
-8.53617e-14
-7.85545e-14
-6.74994e-14
-6.26486e-14
-5.66261e-14
-4.91849e-14
-4.094e-14
-3.39916e-14
-2.1147e-14
-9.29592e-15
-2.69117e-15
-1.79766e-15
-7.05573e-13
-7.05365e-13
-6.97491e-13
-7.06858e-13
-7.06396e-13
-7.03226e-13
-6.96844e-13
-6.89777e-13
-6.82465e-13
-6.72087e-13
-6.67048e-13
-6.6169e-13
-6.60738e-13
-6.54329e-13
-6.47664e-13
-6.43391e-13
-6.38389e-13
-6.3132e-13
-6.1877e-13
-6.0389e-13
-5.84152e-13
-5.69968e-13
-5.60501e-13
-5.59075e-13
-5.54576e-13
-5.50177e-13
-5.43363e-13
-5.37071e-13
-5.35166e-13
-5.32682e-13
-5.25091e-13
-5.11996e-13
-5.01819e-13
-4.93619e-13
-4.89168e-13
-4.78806e-13
-4.69323e-13
-4.64791e-13
-4.59126e-13
-4.4897e-13
-4.39546e-13
-4.35598e-13
-4.31193e-13
-4.25388e-13
-4.14056e-13
-4.0478e-13
-3.97245e-13
-3.89354e-13
-3.80437e-13
-3.72698e-13
-3.65851e-13
-3.5928e-13
-3.47739e-13
-3.37421e-13
-3.39051e-13
-3.38313e-13
-3.22409e-13
-3.07192e-13
-2.98389e-13
-2.90175e-13
-2.87825e-13
-2.85028e-13
-2.84013e-13
-2.73919e-13
-2.56691e-13
-2.47431e-13
-2.34283e-13
-2.33033e-13
-2.27906e-13
-2.22806e-13
-2.19189e-13
-2.19397e-13
-2.13432e-13
-1.97442e-13
-1.80078e-13
-1.67017e-13
-1.64629e-13
-1.68728e-13
-1.61923e-13
-1.52489e-13
-1.45843e-13
-1.38194e-13
-1.30157e-13
-1.20466e-13
-1.09622e-13
-9.68278e-14
-9.12035e-14
-9.10158e-14
-8.41817e-14
-7.68834e-14
-6.80725e-14
-6.11407e-14
-5.31115e-14
-4.7077e-14
-4.15286e-14
-3.28379e-14
-2.14423e-14
-1.11483e-14
-1.66225e-15
3.20133e-16
-7.02241e-13
-7.12489e-13
-7.07178e-13
-7.02139e-13
-7.02567e-13
-7.00972e-13
-6.96053e-13
-6.94535e-13
-6.83177e-13
-6.68271e-13
-6.64163e-13
-6.62077e-13
-6.59241e-13
-6.55112e-13
-6.50418e-13
-6.40309e-13
-6.294e-13
-6.21293e-13
-6.15457e-13
-6.06512e-13
-5.99622e-13
-5.90765e-13
-5.77498e-13
-5.58888e-13
-5.44631e-13
-5.38537e-13
-5.41027e-13
-5.39081e-13
-5.3672e-13
-5.34933e-13
-5.26049e-13
-5.13263e-13
-4.97621e-13
-4.85112e-13
-4.79878e-13
-4.75626e-13
-4.75859e-13
-4.71818e-13
-4.60075e-13
-4.5371e-13
-4.42509e-13
-4.32099e-13
-4.29804e-13
-4.22538e-13
-4.13402e-13
-4.04275e-13
-3.94446e-13
-3.89444e-13
-3.84501e-13
-3.75303e-13
-3.67118e-13
-3.57173e-13
-3.49455e-13
-3.41872e-13
-3.36841e-13
-3.31192e-13
-3.24449e-13
-3.17161e-13
-3.08317e-13
-2.96213e-13
-2.86526e-13
-2.79702e-13
-2.74107e-13
-2.68429e-13
-2.58141e-13
-2.49715e-13
-2.40931e-13
-2.34191e-13
-2.28491e-13
-2.25632e-13
-2.21738e-13
-2.13939e-13
-2.06395e-13
-1.98392e-13
-1.83319e-13
-1.72314e-13
-1.65204e-13
-1.63486e-13
-1.61567e-13
-1.53339e-13
-1.46647e-13
-1.36039e-13
-1.28803e-13
-1.19288e-13
-1.0825e-13
-9.86553e-14
-9.37794e-14
-8.94979e-14
-8.53044e-14
-7.64541e-14
-6.83696e-14
-6.43005e-14
-5.58471e-14
-4.67477e-14
-3.64732e-14
-2.76522e-14
-2.00073e-14
-1.26342e-14
-4.59521e-15
-1.57463e-16
-7.01764e-13
-7.05999e-13
-7.08288e-13
-7.04034e-13
-7.02991e-13
-7.04163e-13
-6.92978e-13
-6.8104e-13
-6.75433e-13
-6.73121e-13
-6.70487e-13
-6.66194e-13
-6.62799e-13
-6.56716e-13
-6.50706e-13
-6.41774e-13
-6.34908e-13
-6.30675e-13
-6.20866e-13
-6.06056e-13
-5.85656e-13
-5.71781e-13
-5.62152e-13
-5.51875e-13
-5.52675e-13
-5.51339e-13
-5.46537e-13
-5.39286e-13
-5.34978e-13
-5.34024e-13
-5.28194e-13
-5.16869e-13
-5.03494e-13
-4.85576e-13
-4.7491e-13
-4.76185e-13
-4.77551e-13
-4.73346e-13
-4.66418e-13
-4.55091e-13
-4.40069e-13
-4.3087e-13
-4.23251e-13
-4.18183e-13
-4.12861e-13
-4.07297e-13
-4.0006e-13
-3.90885e-13
-3.84194e-13
-3.82578e-13
-3.73509e-13
-3.55015e-13
-3.43969e-13
-3.36545e-13
-3.30753e-13
-3.29326e-13
-3.25447e-13
-3.16383e-13
-3.03393e-13
-2.93033e-13
-2.89716e-13
-2.85119e-13
-2.77723e-13
-2.68366e-13
-2.53858e-13
-2.43197e-13
-2.39061e-13
-2.36991e-13
-2.32289e-13
-2.25457e-13
-2.18509e-13
-2.13968e-13
-2.06965e-13
-1.96933e-13
-1.8477e-13
-1.68963e-13
-1.63884e-13
-1.62466e-13
-1.63672e-13
-1.58992e-13
-1.5025e-13
-1.39798e-13
-1.28561e-13
-1.1639e-13
-1.06401e-13
-9.91484e-14
-9.46283e-14
-8.89036e-14
-8.26213e-14
-7.55752e-14
-6.87325e-14
-6.30253e-14
-5.66223e-14
-4.68376e-14
-3.55968e-14
-2.48486e-14
-1.58686e-14
-9.73778e-15
-2.7156e-15
-9.69104e-16
-7.00301e-13
-7.09693e-13
-7.10541e-13
-7.05043e-13
-7.01566e-13
-7.07316e-13
-7.03135e-13
-6.8796e-13
-6.68593e-13
-6.64018e-13
-6.63009e-13
-6.64262e-13
-6.63167e-13
-6.59931e-13
-6.54317e-13
-6.43024e-13
-6.33038e-13
-6.24609e-13
-6.11266e-13
-6.02357e-13
-5.9388e-13
-5.80296e-13
-5.67745e-13
-5.53025e-13
-5.51995e-13
-5.50158e-13
-5.48552e-13
-5.43806e-13
-5.35782e-13
-5.33205e-13
-5.2463e-13
-5.12302e-13
-5.02304e-13
-4.86705e-13
-4.74315e-13
-4.73695e-13
-4.75767e-13
-4.74305e-13
-4.65899e-13
-4.55811e-13
-4.39383e-13
-4.29783e-13
-4.2697e-13
-4.21096e-13
-4.132e-13
-4.05315e-13
-4.02602e-13
-3.95479e-13
-3.84201e-13
-3.72329e-13
-3.63949e-13
-3.57895e-13
-3.48216e-13
-3.34873e-13
-3.35775e-13
-3.33225e-13
-3.24991e-13
-3.18395e-13
-3.10462e-13
-2.95588e-13
-2.8795e-13
-2.81018e-13
-2.7267e-13
-2.64908e-13
-2.5336e-13
-2.45843e-13
-2.3665e-13
-2.33916e-13
-2.28837e-13
-2.28743e-13
-2.21194e-13
-2.17401e-13
-2.10551e-13
-1.96389e-13
-1.81701e-13
-1.69725e-13
-1.67175e-13
-1.64575e-13
-1.59549e-13
-1.54709e-13
-1.48939e-13
-1.4018e-13
-1.2941e-13
-1.16856e-13
-1.09821e-13
-1.02797e-13
-9.51629e-14
-8.83216e-14
-8.2533e-14
-7.44624e-14
-6.72804e-14
-6.0835e-14
-5.24127e-14
-4.30866e-14
-3.51801e-14
-2.84591e-14
-1.40648e-14
-6.6099e-15
1.76168e-16
2.37012e-16
-7.07703e-13
-7.067e-13
-7.03046e-13
-6.9888e-13
-7.00376e-13
-6.94895e-13
-6.89956e-13
-6.9129e-13
-6.86209e-13
-6.77851e-13
-6.72244e-13
-6.62808e-13
-6.56358e-13
-6.55125e-13
-6.52813e-13
-6.44918e-13
-6.35393e-13
-6.32218e-13
-6.19992e-13
-6.02277e-13
-5.81758e-13
-5.68113e-13
-5.6229e-13
-5.60599e-13
-5.53791e-13
-5.5286e-13
-5.48773e-13
-5.41929e-13
-5.36423e-13
-5.31539e-13
-5.24437e-13
-5.1198e-13
-4.99388e-13
-4.86265e-13
-4.77786e-13
-4.76907e-13
-4.80803e-13
-4.74444e-13
-4.6514e-13
-4.54078e-13
-4.40116e-13
-4.26973e-13
-4.24687e-13
-4.21934e-13
-4.18074e-13
-4.06763e-13
-3.97317e-13
-3.93427e-13
-3.8794e-13
-3.75774e-13
-3.63135e-13
-3.57551e-13
-3.4988e-13
-3.38907e-13
-3.30458e-13
-3.28139e-13
-3.22531e-13
-3.17493e-13
-3.11321e-13
-3.01125e-13
-2.89974e-13
-2.81549e-13
-2.72089e-13
-2.64228e-13
-2.57538e-13
-2.47082e-13
-2.37059e-13
-2.28525e-13
-2.25855e-13
-2.2864e-13
-2.20469e-13
-2.15564e-13
-2.08549e-13
-1.97083e-13
-1.86009e-13
-1.73432e-13
-1.63306e-13
-1.59288e-13
-1.58798e-13
-1.60261e-13
-1.5415e-13
-1.38863e-13
-1.28203e-13
-1.15193e-13
-1.10311e-13
-1.05139e-13
-9.76774e-14
-8.73221e-14
-7.80238e-14
-7.334e-14
-6.73828e-14
-6.02602e-14
-5.41936e-14
-4.52833e-14
-3.41776e-14
-2.37007e-14
-1.43739e-14
-7.94302e-15
-2.85412e-16
1.64806e-15
-7.07249e-13
-7.05924e-13
-7.03372e-13
-7.01015e-13
-7.07088e-13
-7.04066e-13
-6.90237e-13
-6.83225e-13
-6.77884e-13
-6.74363e-13
-6.73125e-13
-6.70593e-13
-6.58319e-13
-6.50775e-13
-6.47385e-13
-6.42055e-13
-6.37215e-13
-6.2973e-13
-6.16588e-13
-5.99655e-13
-5.84949e-13
-5.69873e-13
-5.6032e-13
-5.61003e-13
-5.61306e-13
-5.52581e-13
-5.44849e-13
-5.42278e-13
-5.39896e-13
-5.34321e-13
-5.26901e-13
-5.13912e-13
-4.9957e-13
-4.85499e-13
-4.74548e-13
-4.75511e-13
-4.7465e-13
-4.72383e-13
-4.69093e-13
-4.5895e-13
-4.44033e-13
-4.31369e-13
-4.24416e-13
-4.16237e-13
-4.14018e-13
-4.08438e-13
-3.99902e-13
-3.90147e-13
-3.8316e-13
-3.75971e-13
-3.63986e-13
-3.58236e-13
-3.50242e-13
-3.40242e-13
-3.36941e-13
-3.32468e-13
-3.2067e-13
-3.11335e-13
-3.06476e-13
-2.98106e-13
-2.92144e-13
-2.81724e-13
-2.73186e-13
-2.65719e-13
-2.56612e-13
-2.45664e-13
-2.39158e-13
-2.28863e-13
-2.22772e-13
-2.20787e-13
-2.19357e-13
-2.16478e-13
-2.10342e-13
-1.97121e-13
-1.84599e-13
-1.74534e-13
-1.68255e-13
-1.61629e-13
-1.61079e-13
-1.58157e-13
-1.51104e-13
-1.4086e-13
-1.29643e-13
-1.18192e-13
-1.09096e-13
-9.98527e-14
-9.31683e-14
-8.89237e-14
-8.29819e-14
-7.36459e-14
-6.64193e-14
-5.90401e-14
-5.10658e-14
-4.24343e-14
-3.26131e-14
-2.56001e-14
-1.61524e-14
-5.82039e-15
6.78952e-17
-6.87217e-17
-7.0196e-13
-7.05062e-13
-7.05145e-13
-7.03517e-13
-7.01696e-13
-6.95007e-13
-6.89946e-13
-6.86298e-13
-6.84961e-13
-6.80112e-13
-6.74211e-13
-6.69317e-13
-6.61187e-13
-6.52212e-13
-6.45897e-13
-6.38141e-13
-6.35222e-13
-6.28234e-13
-6.14904e-13
-6.02028e-13
-5.84609e-13
-5.70777e-13
-5.66009e-13
-5.62286e-13
-5.5373e-13
-5.4959e-13
-5.49389e-13
-5.46853e-13
-5.39426e-13
-5.29631e-13
-5.21558e-13
-5.12541e-13
-4.99272e-13
-4.86813e-13
-4.77031e-13
-4.81349e-13
-4.82826e-13
-4.74776e-13
-4.6404e-13
-4.51444e-13
-4.40557e-13
-4.34173e-13
-4.26419e-13
-4.16384e-13
-4.11089e-13
-4.04221e-13
-4.02554e-13
-4.00841e-13
-3.86488e-13
-3.72601e-13
-3.62044e-13
-3.59547e-13
-3.50637e-13
-3.39539e-13
-3.3566e-13
-3.32348e-13
-3.24138e-13
-3.12773e-13
-3.04102e-13
-2.97397e-13
-2.94556e-13
-2.85276e-13
-2.74317e-13
-2.64396e-13
-2.52572e-13
-2.45048e-13
-2.35873e-13
-2.30381e-13
-2.23592e-13
-2.19165e-13
-2.15186e-13
-2.16119e-13
-2.10957e-13
-1.97045e-13
-1.84687e-13
-1.74456e-13
-1.7021e-13
-1.6465e-13
-1.56732e-13
-1.49319e-13
-1.53774e-13
-1.48456e-13
-1.31347e-13
-1.18692e-13
-1.09257e-13
-9.88155e-14
-9.1294e-14
-8.83151e-14
-8.25132e-14
-7.38056e-14
-6.57816e-14
-5.90965e-14
-5.1978e-14
-4.10506e-14
-3.50979e-14
-2.42999e-14
-1.33632e-14
-4.08068e-15
1.06614e-15
-4.82337e-16
-7.09606e-13
-7.06361e-13
-7.04335e-13
-7.0104e-13
-6.95773e-13
-6.92893e-13
-6.89534e-13
-6.89481e-13
-6.86382e-13
-6.80447e-13
-6.73414e-13
-6.68905e-13
-6.62506e-13
-6.56356e-13
-6.4802e-13
-6.364e-13
-6.25806e-13
-6.1946e-13
-6.14668e-13
-6.06065e-13
-5.8717e-13
-5.75139e-13
-5.66225e-13
-5.59174e-13
-5.55947e-13
-5.52254e-13
-5.50652e-13
-5.47284e-13
-5.37717e-13
-5.32726e-13
-5.22987e-13
-5.11703e-13
-4.9754e-13
-4.84804e-13
-4.79627e-13
-4.8082e-13
-4.7917e-13
-4.7331e-13
-4.64058e-13
-4.52722e-13
-4.40939e-13
-4.31537e-13
-4.27157e-13
-4.21098e-13
-4.16086e-13
-4.08835e-13
-3.98294e-13
-3.90901e-13
-3.85569e-13
-3.7718e-13
-3.6985e-13
-3.5937e-13
-3.49166e-13
-3.40479e-13
-3.34128e-13
-3.26786e-13
-3.2227e-13
-3.14747e-13
-3.03648e-13
-2.97552e-13
-2.95504e-13
-2.87359e-13
-2.75563e-13
-2.62482e-13
-2.5379e-13
-2.45181e-13
-2.35706e-13
-2.28495e-13
-2.23255e-13
-2.19231e-13
-2.16844e-13
-2.16233e-13
-2.09726e-13
-1.93778e-13
-1.83557e-13
-1.74688e-13
-1.69556e-13
-1.64289e-13
-1.60389e-13
-1.56109e-13
-1.50112e-13
-1.42021e-13
-1.32497e-13
-1.22684e-13
-1.14463e-13
-9.87368e-14
-9.00964e-14
-8.52036e-14
-8.22642e-14
-7.042e-14
-6.28379e-14
-5.80069e-14
-5.61293e-14
-4.2943e-14
-3.10694e-14
-2.33897e-14
-1.49889e-14
-1.44095e-15
1.87958e-16
-1.75334e-15
-7.12314e-13
-7.05748e-13
-6.99762e-13
-7.00346e-13
-6.92137e-13
-6.93146e-13
-6.89941e-13
-6.90697e-13
-6.89838e-13
-6.79197e-13
-6.72638e-13
-6.69469e-13
-6.67553e-13
-6.57757e-13
-6.48223e-13
-6.39671e-13
-6.30741e-13
-6.20077e-13
-6.13796e-13
-5.99252e-13
-5.87099e-13
-5.74614e-13
-5.63111e-13
-5.5753e-13
-5.54047e-13
-5.56075e-13
-5.51917e-13
-5.46168e-13
-5.38556e-13
-5.3081e-13
-5.23309e-13
-5.1374e-13
-4.98e-13
-4.87856e-13
-4.78322e-13
-4.7617e-13
-4.77359e-13
-4.73611e-13
-4.64705e-13
-4.53769e-13
-4.4434e-13
-4.35161e-13
-4.26735e-13
-4.20262e-13
-4.14254e-13
-4.07087e-13
-3.98094e-13
-3.93314e-13
-3.88633e-13
-3.7762e-13
-3.66466e-13
-3.55159e-13
-3.48677e-13
-3.43469e-13
-3.37612e-13
-3.31012e-13
-3.23643e-13
-3.13236e-13
-3.06389e-13
-3.01508e-13
-2.96366e-13
-2.85986e-13
-2.714e-13
-2.60971e-13
-2.51774e-13
-2.4283e-13
-2.33611e-13
-2.29501e-13
-2.22739e-13
-2.23086e-13
-2.17922e-13
-2.12242e-13
-2.02797e-13
-1.91035e-13
-1.81814e-13
-1.72881e-13
-1.73038e-13
-1.71556e-13
-1.62217e-13
-1.53498e-13
-1.47194e-13
-1.39433e-13
-1.31094e-13
-1.21472e-13
-1.09029e-13
-9.64143e-14
-9.13947e-14
-8.79762e-14
-8.12419e-14
-7.64303e-14
-7.03752e-14
-5.86614e-14
-4.84532e-14
-4.02276e-14
-3.12784e-14
-2.09248e-14
-1.32003e-14
-8.04326e-15
-2.60762e-15
-1.55655e-15
-7.10261e-13
-7.03999e-13
-7.02451e-13
-7.00486e-13
-6.96793e-13
-6.93059e-13
-6.87049e-13
-6.89667e-13
-6.89105e-13
-6.83076e-13
-6.76451e-13
-6.6884e-13
-6.66085e-13
-6.55728e-13
-6.45205e-13
-6.34792e-13
-6.24408e-13
-6.20071e-13
-6.14392e-13
-6.01812e-13
-5.88797e-13
-5.76275e-13
-5.65159e-13
-5.61283e-13
-5.60389e-13
-5.53617e-13
-5.47489e-13
-5.40256e-13
-5.33605e-13
-5.31517e-13
-5.25597e-13
-5.1841e-13
-5.06095e-13
-4.94821e-13
-4.76138e-13
-4.72423e-13
-4.72374e-13
-4.70157e-13
-4.64739e-13
-4.53768e-13
-4.4634e-13
-4.35393e-13
-4.29596e-13
-4.18621e-13
-4.14636e-13
-4.08754e-13
-4.03953e-13
-3.95321e-13
-3.84764e-13
-3.70105e-13
-3.65951e-13
-3.60669e-13
-3.53144e-13
-3.39489e-13
-3.32076e-13
-3.25392e-13
-3.17871e-13
-3.15658e-13
-3.07296e-13
-3.05822e-13
-3.0631e-13
-2.83279e-13
-2.6928e-13
-2.62894e-13
-2.54435e-13
-2.46505e-13
-2.36557e-13
-2.29572e-13
-2.19636e-13
-2.16981e-13
-2.12545e-13
-2.1522e-13
-2.08449e-13
-1.95705e-13
-1.79712e-13
-1.68264e-13
-1.73057e-13
-1.70096e-13
-1.62314e-13
-1.55991e-13
-1.49096e-13
-1.39862e-13
-1.3011e-13
-1.19379e-13
-1.09609e-13
-9.78847e-14
-9.05076e-14
-8.85237e-14
-8.27901e-14
-7.20973e-14
-6.37283e-14
-5.80986e-14
-4.95491e-14
-3.95657e-14
-3.56955e-14
-2.80247e-14
-1.36231e-14
-4.03308e-15
2.39294e-15
-5.27296e-16
-7.0452e-13
-7.0668e-13
-7.06328e-13
-7.00104e-13
-6.94173e-13
-6.94501e-13
-6.92115e-13
-6.8814e-13
-6.8682e-13
-6.81856e-13
-6.78145e-13
-6.729e-13
-6.64173e-13
-6.54341e-13
-6.46144e-13
-6.38282e-13
-6.32458e-13
-6.27614e-13
-6.16938e-13
-5.99161e-13
-5.79481e-13
-5.65565e-13
-5.62331e-13
-5.6304e-13
-5.60794e-13
-5.53281e-13
-5.44104e-13
-5.4021e-13
-5.33705e-13
-5.32766e-13
-5.29989e-13
-5.13671e-13
-5.00538e-13
-4.92072e-13
-4.83176e-13
-4.78872e-13
-4.75083e-13
-4.69016e-13
-4.6277e-13
-4.54223e-13
-4.45893e-13
-4.35216e-13
-4.27426e-13
-4.22336e-13
-4.20065e-13
-4.09966e-13
-4.02116e-13
-3.89145e-13
-3.85603e-13
-3.77331e-13
-3.64962e-13
-3.59335e-13
-3.52687e-13
-3.43879e-13
-3.35092e-13
-3.21347e-13
-3.09291e-13
-3.13086e-13
-3.17239e-13
-3.07955e-13