/*--------------------------------*- C++ -*----------------------------------*\
| =========                 |                                                 |
| \\      /  F ield         | OpenFOAM: The Open Source CFD Toolbox           |
|  \\    /   O peration     | Version:  v2012                                 |
|   \\  /    A nd           | Website:  www.openfoam.com                      |
|    \\/     M anipulation  |                                                 |
\*---------------------------------------------------------------------------*/
FoamFile
{
    version     2.0;
    format      ascii;
    class       volScalarField;
    location    "0";
    object      pRec;
}
// * * * * * * * * * * * * * * * * * * * * * * * * * * * * * * * * * * * * * //

dimensions      [0 2 -2 0 0 0 0];


internalField   nonuniform List<scalar> 
4000
(
-6.72274e-13
-6.6803e-13
-6.68772e-13
-6.70585e-13
-6.70058e-13
-6.69556e-13
-6.68718e-13
-6.65281e-13
-6.57404e-13
-6.52993e-13
-6.53432e-13
-6.49137e-13
-6.41648e-13
-6.31919e-13
-6.21324e-13
-6.17004e-13
-6.132e-13
-6.10778e-13
-6.04397e-13
-5.95164e-13
-5.86369e-13
-5.79878e-13
-5.74444e-13
-5.67048e-13
-5.5795e-13
-5.48863e-13
-5.44159e-13
-5.39618e-13
-5.33061e-13
-5.23488e-13
-5.11581e-13
-5.04258e-13
-4.99563e-13
-4.94702e-13
-4.88453e-13
-4.83287e-13
-4.74429e-13
-4.60853e-13
-4.46197e-13
-4.41203e-13
-4.38662e-13
-4.33991e-13
-4.3125e-13
-4.24555e-13
-4.15534e-13
-4.06871e-13
-3.98079e-13
-3.89546e-13
-3.80831e-13
-3.72959e-13
-3.64138e-13
-3.568e-13
-3.49727e-13
-3.41405e-13
-3.33882e-13
-3.23104e-13
-3.15948e-13
-3.13498e-13
-3.09862e-13
-3.0566e-13
-2.97427e-13
-2.90369e-13
-2.82075e-13
-2.72121e-13
-2.65159e-13
-2.57924e-13
-2.52459e-13
-2.45039e-13
-2.36211e-13
-2.29573e-13
-2.22438e-13
-2.14453e-13
-2.02828e-13
-1.95941e-13
-1.93503e-13
-1.88337e-13
-1.81984e-13
-1.75084e-13
-1.66508e-13
-1.54536e-13
-1.43205e-13
-1.36472e-13
-1.28363e-13
-1.22788e-13
-1.16717e-13
-1.10011e-13
-1.01199e-13
-9.28062e-14
-8.78185e-14
-8.25448e-14
-7.59855e-14
-6.87003e-14
-6.16297e-14
-5.45149e-14
-4.58315e-14
-3.63038e-14
-2.7829e-14
-1.89317e-14
-1.07303e-14
-2.81712e-15
-6.69872e-13
-6.68831e-13
-6.70609e-13
-6.7059e-13
-6.71291e-13
-6.68997e-13
-6.67156e-13
-6.65329e-13
-6.60386e-13
-6.55813e-13
-6.51097e-13
-6.47113e-13
-6.40333e-13
-6.3183e-13
-6.23503e-13
-6.18927e-13
-6.15043e-13
-6.09731e-13
-6.03019e-13
-5.97388e-13
-5.88134e-13
-5.78607e-13
-5.72306e-13
-5.65265e-13
-5.56511e-13
-5.50677e-13
-5.45869e-13
-5.39985e-13
-5.32646e-13
-5.21075e-13
-5.12916e-13
-5.0612e-13
-4.99573e-13
-4.92704e-13
-4.86495e-13
-4.81017e-13
-4.73611e-13
-4.62575e-13
-4.50987e-13
-4.43439e-13
-4.38399e-13
-4.33967e-13
-4.2939e-13
-4.23505e-13
-4.16459e-13
-4.06801e-13
-3.97279e-13
-3.89128e-13
-3.80641e-13
-3.71293e-13
-3.63697e-13
-3.56142e-13
-3.49821e-13
-3.42294e-13
-3.34362e-13
-3.24947e-13
-3.16315e-13
-3.12383e-13
-3.08858e-13
-3.04318e-13
-2.98888e-13
-2.90199e-13
-2.82343e-13
-2.73381e-13
-2.66638e-13
-2.58043e-13
-2.50969e-13
-2.44433e-13
-2.37626e-13
-2.30364e-13
-2.22452e-13
-2.14793e-13
-2.06143e-13
-1.98251e-13
-1.93307e-13
-1.8555e-13
-1.81213e-13
-1.73795e-13
-1.64167e-13
-1.53624e-13
-1.44193e-13
-1.37454e-13
-1.31135e-13
-1.24311e-13
-1.15315e-13
-1.08362e-13
-9.97293e-14
-9.18182e-14
-8.69698e-14
-8.11975e-14
-7.67229e-14
-7.06103e-14
-6.42205e-14
-5.32626e-14
-4.43251e-14
-3.65196e-14
-2.74915e-14
-1.93155e-14
-1.17541e-14
-4.17375e-15
-6.69188e-13
-6.68595e-13
-6.70236e-13
-6.72041e-13
-6.73134e-13
-6.70054e-13
-6.66277e-13
-6.64414e-13
-6.58779e-13
-6.55614e-13
-6.51817e-13
-6.46861e-13
-6.4029e-13
-6.33076e-13
-6.24529e-13
-6.19164e-13
-6.14106e-13
-6.09286e-13
-6.0392e-13
-5.95909e-13
-5.8764e-13
-5.80368e-13
-5.72773e-13
-5.66114e-13
-5.58122e-13
-5.52448e-13
-5.46668e-13
-5.38975e-13
-5.31037e-13
-5.20416e-13
-5.1338e-13
-5.05797e-13
-4.98834e-13
-4.94027e-13
-4.88295e-13
-4.82346e-13
-4.72666e-13
-4.63277e-13
-4.53429e-13
-4.43663e-13
-4.3778e-13
-4.31566e-13
-4.29282e-13
-4.24381e-13
-4.16718e-13
-4.06461e-13
-3.96273e-13
-3.87697e-13
-3.8117e-13
-3.75297e-13
-3.64935e-13
-3.56827e-13
-3.48195e-13
-3.40116e-13
-3.32904e-13
-3.25885e-13
-3.16562e-13
-3.13491e-13
-3.1156e-13
-3.05399e-13
-2.97025e-13
-2.87145e-13
-2.80207e-13
-2.74447e-13
-2.684e-13
-2.6038e-13
-2.5274e-13
-2.43804e-13
-2.36635e-13
-2.28068e-13
-2.20492e-13
-2.12818e-13
-2.04106e-13
-1.98233e-13
-1.9276e-13
-1.86605e-13
-1.80767e-13
-1.7373e-13
-1.63674e-13
-1.54189e-13
-1.47898e-13
-1.39031e-13
-1.28319e-13
-1.21742e-13
-1.15304e-13
-1.09962e-13
-1.02805e-13
-9.39889e-14
-8.69555e-14
-8.02129e-14
-7.51655e-14
-6.98531e-14
-6.2591e-14
-5.40218e-14
-4.44455e-14
-3.5041e-14
-2.83848e-14
-1.98872e-14
-1.37849e-14
-4.60459e-15
-6.69791e-13
-6.70762e-13
-6.7066e-13
-6.68299e-13
-6.72299e-13
-6.67934e-13
-6.66219e-13
-6.64149e-13
-6.62231e-13
-6.57295e-13
-6.51086e-13
-6.43681e-13
-6.3767e-13
-6.32947e-13
-6.30569e-13
-6.23454e-13
-6.13016e-13
-6.07088e-13
-6.02934e-13
-5.95482e-13
-5.88044e-13
-5.81349e-13
-5.72957e-13
-5.62365e-13
-5.55324e-13
-5.51399e-13
-5.46822e-13
-5.4101e-13
-5.3125e-13
-5.23093e-13
-5.15626e-13
-5.07277e-13
-4.99312e-13
-4.92567e-13
-4.85022e-13
-4.82048e-13
-4.73553e-13
-4.62428e-13
-4.54246e-13
-4.4522e-13
-4.39539e-13
-4.34612e-13
-4.29071e-13
-4.22576e-13
-4.13523e-13
-4.04223e-13
-3.96174e-13
-3.90138e-13
-3.81521e-13
-3.71008e-13
-3.62277e-13
-3.55869e-13
-3.4917e-13
-3.43192e-13
-3.32639e-13
-3.26313e-13
-3.18142e-13
-3.1271e-13
-3.10773e-13
-3.0434e-13
-2.96377e-13
-2.8854e-13
-2.82714e-13
-2.76199e-13
-2.68229e-13
-2.59684e-13
-2.52307e-13
-2.43846e-13
-2.37016e-13
-2.29645e-13
-2.22951e-13
-2.15024e-13
-2.06301e-13
-1.98962e-13
-1.92448e-13
-1.85649e-13
-1.80301e-13
-1.7346e-13
-1.63494e-13
-1.54652e-13
-1.47222e-13
-1.39599e-13
-1.29661e-13
-1.20963e-13
-1.15027e-13
-1.08408e-13
-1.01409e-13
-9.33757e-14
-8.57356e-14
-8.0489e-14
-7.65478e-14
-7.07119e-14
-6.37227e-14
-5.27954e-14
-4.40056e-14
-3.708e-14
-2.95838e-14
-1.99404e-14
-1.22372e-14
-4.44703e-15
-6.70245e-13
-6.73255e-13
-6.70821e-13
-6.67903e-13
-6.6618e-13
-6.68123e-13
-6.68134e-13
-6.66206e-13
-6.61399e-13
-6.55932e-13
-6.49435e-13
-6.45105e-13
-6.37315e-13
-6.31849e-13
-6.29737e-13
-6.25073e-13
-6.17547e-13
-6.09864e-13
-6.0131e-13
-5.92647e-13
-5.87824e-13
-5.80897e-13
-5.69718e-13
-5.61579e-13
-5.57892e-13
-5.52787e-13
-5.47548e-13
-5.39986e-13
-5.33129e-13
-5.24828e-13
-5.15987e-13
-5.08008e-13
-4.995e-13
-4.92909e-13
-4.86356e-13
-4.81709e-13
-4.72411e-13
-4.62542e-13
-4.52964e-13
-4.4519e-13
-4.39499e-13
-4.36006e-13
-4.29131e-13
-4.21165e-13
-4.12144e-13
-4.02277e-13
-3.9527e-13
-3.89029e-13
-3.80928e-13
-3.73535e-13
-3.64401e-13
-3.57153e-13
-3.49505e-13
-3.43066e-13
-3.3287e-13
-3.25583e-13
-3.1914e-13
-3.13258e-13
-3.09716e-13
-3.03388e-13
-2.96759e-13
-2.8903e-13
-2.81516e-13
-2.75838e-13
-2.69735e-13
-2.62747e-13
-2.55415e-13
-2.44657e-13
-2.3685e-13
-2.27806e-13
-2.20438e-13
-2.13407e-13
-2.06451e-13
-1.99067e-13
-1.89902e-13
-1.83227e-13
-1.79543e-13
-1.73015e-13
-1.65384e-13
-1.55965e-13
-1.48659e-13
-1.41161e-13
-1.29406e-13
-1.20154e-13
-1.1269e-13
-1.06218e-13
-1.01518e-13
-9.5353e-14
-8.72336e-14
-8.15742e-14
-7.58582e-14
-7.03821e-14
-6.23756e-14
-5.52246e-14
-4.68102e-14
-3.71621e-14
-2.9332e-14
-2.17047e-14
-1.18216e-14
-2.63216e-15
-6.67832e-13
-6.7422e-13
-6.71878e-13
-6.65875e-13
-6.6937e-13
-6.71502e-13
-6.69524e-13
-6.6588e-13
-6.59459e-13
-6.50408e-13
-6.47524e-13
-6.44665e-13
-6.41068e-13
-6.32964e-13
-6.2798e-13
-6.26239e-13
-6.18143e-13
-6.11508e-13
-6.04598e-13
-5.95244e-13
-5.86226e-13
-5.76605e-13
-5.63323e-13
-5.59505e-13
-5.58359e-13
-5.55558e-13
-5.47901e-13
-5.39613e-13
-5.32425e-13
-5.26526e-13
-5.16891e-13
-5.08236e-13
-4.99994e-13
-4.94394e-13
-4.89645e-13
-4.80752e-13
-4.71329e-13
-4.62496e-13
-4.52625e-13
-4.46524e-13
-4.41077e-13
-4.36501e-13
-4.28003e-13
-4.21533e-13
-4.12099e-13
-4.01305e-13
-3.93021e-13
-3.86533e-13
-3.81184e-13
-3.73428e-13
-3.65501e-13
-3.56731e-13
-3.48523e-13
-3.41368e-13
-3.32228e-13
-3.26555e-13
-3.20632e-13
-3.14043e-13
-3.0865e-13
-3.03546e-13
-2.98566e-13
-2.90086e-13
-2.82095e-13
-2.75524e-13
-2.67166e-13
-2.61376e-13
-2.55763e-13
-2.45626e-13
-2.37718e-13
-2.29564e-13
-2.21073e-13
-2.1339e-13
-2.07591e-13
-2.00015e-13
-1.91469e-13
-1.85078e-13
-1.79049e-13
-1.70853e-13
-1.64559e-13
-1.57283e-13
-1.50067e-13
-1.40655e-13
-1.2798e-13
-1.18743e-13
-1.13577e-13
-1.07776e-13
-1.02462e-13
-9.37867e-14
-8.6463e-14
-8.11731e-14
-7.56286e-14
-7.06432e-14
-6.10973e-14
-5.42603e-14
-4.62994e-14
-3.93503e-14
-2.99776e-14
-2.13474e-14
-1.07053e-14
-2.11538e-15
-6.7127e-13
-6.71566e-13
-6.71844e-13
-6.69216e-13
-6.67864e-13
-6.70068e-13
-6.68376e-13
-6.64277e-13
-6.58407e-13
-6.50938e-13
-6.44591e-13
-6.43995e-13
-6.42415e-13
-6.33799e-13
-6.28723e-13
-6.2471e-13
-6.21911e-13
-6.15645e-13
-6.02957e-13
-5.90225e-13
-5.7758e-13
-5.72929e-13
-5.70349e-13
-5.6717e-13
-5.61288e-13
-5.54909e-13
-5.46417e-13
-5.38826e-13
-5.33429e-13
-5.27987e-13
-5.18574e-13
-5.07127e-13
-5.00458e-13
-4.92292e-13
-4.86103e-13
-4.78949e-13
-4.72218e-13
-4.66062e-13
-4.56241e-13
-4.45824e-13
-4.37917e-13
-4.3251e-13
-4.26777e-13
-4.21695e-13
-4.13946e-13
-4.0445e-13
-3.9462e-13
-3.86031e-13
-3.78945e-13
-3.73451e-13
-3.6609e-13
-3.59149e-13
-3.50639e-13
-3.4131e-13
-3.33577e-13
-3.27157e-13
-3.20163e-13
-3.10726e-13
-3.06257e-13
-3.03311e-13
-3.01645e-13
-2.93721e-13
-2.83794e-13
-2.73742e-13
-2.6523e-13
-2.58621e-13
-2.51626e-13
-2.42859e-13
-2.34713e-13
-2.29035e-13
-2.25973e-13
-2.17452e-13
-2.08445e-13
-2.02073e-13
-1.93074e-13
-1.83737e-13
-1.76181e-13
-1.68077e-13
-1.61953e-13
-1.56389e-13
-1.49667e-13
-1.40078e-13
-1.30921e-13
-1.22482e-13
-1.15924e-13
-1.06073e-13
-1.0076e-13
-9.47114e-14
-8.70953e-14
-8.23118e-14
-7.53035e-14
-6.71334e-14
-6.09858e-14
-5.37035e-14
-4.58515e-14
-3.78604e-14
-3.02097e-14
-2.03006e-14
-1.12008e-14
-3.55139e-15
-6.701e-13
-6.69796e-13
-6.68959e-13
-6.7051e-13
-6.71775e-13
-6.71075e-13
-6.67693e-13
-6.63291e-13
-6.5691e-13
-6.51916e-13
-6.4732e-13
-6.42991e-13
-6.39905e-13
-6.32638e-13
-6.29427e-13
-6.2501e-13
-6.21969e-13
-6.15337e-13
-6.00001e-13
-5.91341e-13
-5.86623e-13
-5.80117e-13
-5.70699e-13
-5.62165e-13
-5.58986e-13
-5.52521e-13
-5.43974e-13
-5.38048e-13
-5.32002e-13
-5.26044e-13
-5.19233e-13
-5.10374e-13
-5.03939e-13
-4.96949e-13
-4.87168e-13
-4.78596e-13
-4.70954e-13
-4.62619e-13
-4.55046e-13
-4.45776e-13
-4.38812e-13
-4.34604e-13
-4.27656e-13
-4.23529e-13
-4.16842e-13
-4.04729e-13
-3.91949e-13
-3.80631e-13
-3.77773e-13
-3.74435e-13
-3.69272e-13
-3.61767e-13
-3.50696e-13
-3.41706e-13
-3.31831e-13
-3.25538e-13
-3.20214e-13
-3.14722e-13
-3.07443e-13
-3.01859e-13
-2.9902e-13
-2.92059e-13
-2.84433e-13
-2.76261e-13
-2.68491e-13
-2.60167e-13
-2.52366e-13
-2.43735e-13
-2.37686e-13
-2.30661e-13
-2.23377e-13
-2.17547e-13
-2.07293e-13
-1.96411e-13
-1.89413e-13
-1.84095e-13
-1.78529e-13
-1.70778e-13
-1.64762e-13
-1.58561e-13
-1.5005e-13
-1.40083e-13
-1.28783e-13
-1.18828e-13
-1.10852e-13
-1.05846e-13
-1.01705e-13
-9.60001e-14
-8.84788e-14
-8.14146e-14
-7.36698e-14
-6.68293e-14
-6.1179e-14
-5.4731e-14
-4.48211e-14
-3.6666e-14
-2.96344e-14
-2.13326e-14
-1.22256e-14
-2.6539e-15
-6.7155e-13
-6.73111e-13
-6.69816e-13
-6.66152e-13
-6.67982e-13
-6.69674e-13
-6.68822e-13
-6.63362e-13
-6.5475e-13
-6.52826e-13
-6.48273e-13
-6.411e-13
-6.36317e-13
-6.33119e-13
-6.3074e-13
-6.2676e-13
-6.21656e-13
-6.13855e-13
-6.03278e-13
-5.9259e-13
-5.85017e-13
-5.7794e-13
-5.73499e-13
-5.67477e-13
-5.59862e-13
-5.51023e-13
-5.42778e-13
-5.37752e-13
-5.3402e-13
-5.26527e-13
-5.2006e-13
-5.11739e-13
-5.02278e-13
-4.92988e-13
-4.87062e-13
-4.79227e-13
-4.70099e-13
-4.61918e-13
-4.55356e-13
-4.49339e-13
-4.43835e-13
-4.36316e-13
-4.25216e-13
-4.17602e-13
-4.11746e-13
-4.04489e-13
-3.94923e-13
-3.86542e-13
-3.79908e-13
-3.72709e-13
-3.66176e-13
-3.59391e-13
-3.50263e-13
-3.42275e-13
-3.3435e-13
-3.28857e-13
-3.21685e-13
-3.14917e-13
-3.08254e-13
-3.03005e-13
-2.96984e-13
-2.89654e-13
-2.83143e-13
-2.7586e-13
-2.66816e-13
-2.57508e-13
-2.51639e-13
-2.4451e-13
-2.37362e-13
-2.2977e-13
-2.22239e-13
-2.17843e-13
-2.09841e-13
-2.00761e-13
-1.90528e-13
-1.84435e-13
-1.79536e-13
-1.71733e-13
-1.65076e-13
-1.56687e-13
-1.49947e-13
-1.40497e-13
-1.29159e-13
-1.20069e-13
-1.12589e-13
-1.05879e-13
-1.0202e-13
-9.55965e-14
-8.82769e-14
-8.14051e-14
-7.32816e-14
-6.63596e-14
-5.8913e-14
-5.27026e-14
-4.43897e-14
-3.64178e-14
-2.86917e-14
-1.8994e-14
-9.67577e-15
-8.65447e-16
-6.71449e-13
-6.71566e-13
-6.71515e-13
-6.68892e-13
-6.66805e-13
-6.67683e-13
-6.67156e-13
-6.65131e-13
-6.59922e-13
-6.50682e-13
-6.44319e-13
-6.38821e-13
-6.36776e-13
-6.35195e-13
-6.31922e-13
-6.26306e-13
-6.1913e-13
-6.14731e-13
-6.0777e-13
-5.95347e-13
-5.8528e-13
-5.7551e-13
-5.69987e-13
-5.63909e-13
-5.60464e-13
-5.55133e-13
-5.46057e-13
-5.39558e-13
-5.3354e-13
-5.26824e-13
-5.20059e-13
-5.11864e-13
-5.02376e-13
-4.91952e-13
-4.84674e-13
-4.7799e-13
-4.72143e-13
-4.62577e-13
-4.56542e-13
-4.49918e-13
-4.41608e-13
-4.32387e-13
-4.242e-13
-4.17691e-13
-4.13606e-13
-4.07775e-13
-3.97469e-13
-3.87644e-13
-3.79724e-13
-3.71054e-13
-3.64298e-13
-3.59028e-13
-3.51221e-13
-3.43324e-13
-3.34801e-13
-3.27949e-13
-3.21749e-13
-3.14443e-13
-3.07787e-13
-3.04061e-13
-2.99419e-13
-2.93738e-13
-2.86871e-13
-2.76781e-13
-2.65124e-13
-2.53179e-13
-2.45739e-13
-2.40791e-13
-2.36195e-13
-2.33632e-13
-2.2756e-13
-2.19197e-13
-2.11336e-13
-2.02027e-13
-1.90838e-13
-1.82997e-13
-1.77651e-13
-1.70294e-13
-1.65008e-13
-1.56585e-13
-1.49282e-13
-1.40748e-13
-1.30121e-13
-1.22021e-13
-1.13058e-13
-1.04946e-13
-1.00173e-13
-9.31681e-14
-8.78935e-14
-8.11403e-14
-7.22003e-14
-6.31158e-14
-5.65544e-14
-5.10077e-14
-4.14446e-14
-3.32432e-14
-2.60571e-14
-1.77233e-14
-8.09685e-15
-9.83411e-16
-6.70266e-13
-6.69895e-13
-6.69277e-13
-6.70242e-13
-6.70125e-13
-6.6642e-13
-6.6479e-13
-6.62484e-13
-6.58267e-13
-6.54064e-13
-6.45299e-13
-6.37964e-13
-6.36902e-13
-6.36741e-13
-6.32515e-13
-6.27954e-13
-6.19146e-13
-6.12634e-13
-6.06552e-13
-5.96576e-13
-5.88595e-13
-5.76438e-13
-5.67845e-13
-5.63448e-13
-5.58743e-13
-5.53183e-13
-5.47283e-13
-5.40478e-13
-5.34826e-13
-5.27474e-13
-5.19436e-13
-5.10811e-13
-5.01746e-13
-4.9328e-13
-4.87411e-13
-4.79373e-13
-4.71081e-13
-4.62473e-13
-4.56753e-13
-4.48677e-13
-4.4168e-13
-4.32484e-13
-4.24814e-13
-4.20274e-13
-4.15326e-13
-4.06653e-13
-3.95205e-13
-3.84953e-13
-3.77843e-13
-3.70223e-13
-3.66318e-13
-3.6045e-13
-3.50428e-13
-3.42968e-13
-3.3438e-13
-3.2998e-13
-3.23529e-13
-3.16247e-13
-3.07639e-13
-2.99835e-13
-2.96341e-13
-2.88746e-13
-2.8373e-13
-2.78226e-13
-2.66376e-13
-2.5472e-13
-2.46529e-13
-2.40341e-13
-2.36024e-13
-2.35604e-13
-2.28667e-13
-2.20735e-13
-2.11592e-13
-2.01473e-13
-1.89562e-13
-1.80263e-13
-1.77229e-13
-1.7257e-13
-1.6749e-13
-1.58591e-13
-1.51276e-13
-1.42827e-13
-1.29795e-13
-1.19948e-13
-1.0958e-13
-1.00695e-13
-1.0003e-13
-9.57125e-14
-8.79474e-14
-8.05146e-14
-7.05738e-14
-6.27862e-14
-5.58417e-14
-4.90206e-14
-4.24348e-14
-3.49918e-14
-2.35413e-14
-1.20384e-14
-2.88069e-15
-1.72075e-15
-6.71935e-13
-6.70697e-13
-6.69397e-13
-6.70245e-13
-6.69289e-13
-6.65451e-13
-6.65559e-13
-6.6302e-13
-6.57499e-13
-6.51845e-13
-6.46561e-13
-6.40426e-13
-6.34287e-13
-6.31963e-13
-6.30025e-13
-6.24572e-13
-6.21138e-13
-6.16285e-13
-6.08454e-13
-5.97121e-13
-5.87963e-13
-5.8131e-13
-5.72243e-13
-5.63645e-13
-5.58348e-13
-5.49851e-13
-5.45001e-13
-5.40661e-13
-5.3575e-13
-5.29071e-13
-5.20183e-13
-5.10814e-13
-5.00721e-13
-4.91545e-13
-4.85607e-13
-4.77998e-13
-4.72417e-13
-4.64646e-13
-4.5865e-13
-4.48011e-13
-4.40227e-13
-4.30111e-13
-4.24753e-13
-4.21701e-13
-4.14388e-13
-4.06595e-13
-3.96029e-13
-3.86855e-13
-3.78577e-13
-3.69597e-13
-3.63534e-13
-3.59032e-13
-3.50752e-13
-3.44799e-13
-3.37694e-13
-3.29129e-13
-3.22448e-13
-3.14863e-13
-3.06902e-13
-3.01246e-13
-2.97776e-13
-2.95442e-13
-2.86346e-13
-2.76146e-13
-2.61953e-13
-2.53171e-13
-2.46643e-13
-2.41783e-13
-2.35854e-13
-2.32253e-13
-2.25831e-13
-2.22581e-13
-2.1608e-13
-2.04902e-13
-1.89346e-13
-1.76046e-13
-1.72039e-13
-1.72663e-13
-1.68592e-13
-1.58629e-13
-1.50561e-13
-1.41365e-13
-1.31151e-13
-1.22037e-13
-1.12219e-13
-1.02622e-13
-9.59904e-14
-9.31192e-14
-8.66351e-14
-7.87565e-14
-6.86312e-14
-6.23373e-14
-5.56959e-14
-4.78835e-14
-3.97155e-14
-3.28698e-14
-2.239e-14
-1.24261e-14
-4.76858e-15
-1.66577e-15
-6.7019e-13
-6.69758e-13
-6.64766e-13
-6.70816e-13
-6.70464e-13
-6.68294e-13
-6.63589e-13
-6.59186e-13
-6.55226e-13
-6.48796e-13
-6.45066e-13
-6.41373e-13
-6.39485e-13
-6.34684e-13
-6.3128e-13
-6.27494e-13
-6.22439e-13
-6.16867e-13
-6.08906e-13
-5.97591e-13
-5.84082e-13
-5.73567e-13
-5.66568e-13
-5.63289e-13
-5.57819e-13
-5.53157e-13
-5.4594e-13
-5.40706e-13
-5.36534e-13
-5.30613e-13
-5.22212e-13
-5.10945e-13
-5.02195e-13
-4.94305e-13
-4.88371e-13
-4.79308e-13
-4.70221e-13
-4.64204e-13
-4.57313e-13
-4.477e-13
-4.38686e-13
-4.33298e-13
-4.27374e-13
-4.21008e-13
-4.11445e-13
-4.02077e-13
-3.94153e-13
-3.86655e-13
-3.79221e-13
-3.7225e-13
-3.65498e-13
-3.59179e-13
-3.49135e-13
-3.40955e-13
-3.3907e-13
-3.36729e-13
-3.24118e-13
-3.11927e-13
-3.03738e-13
-2.97078e-13
-2.93408e-13
-2.89486e-13
-2.86645e-13
-2.78177e-13
-2.6485e-13
-2.5681e-13
-2.45359e-13
-2.42287e-13
-2.36171e-13
-2.30574e-13
-2.2542e-13
-2.23253e-13
-2.16041e-13
-2.03523e-13
-1.90218e-13
-1.78869e-13
-1.73939e-13
-1.73732e-13
-1.65344e-13
-1.56197e-13
-1.49284e-13
-1.41268e-13
-1.32844e-13
-1.23105e-13
-1.12894e-13
-1.02212e-13
-9.55508e-14
-9.27918e-14
-8.50816e-14
-7.69845e-14
-6.86441e-14
-6.12265e-14
-5.32323e-14
-4.6571e-14
-4.04896e-14
-3.21747e-14
-2.20034e-14
-1.33213e-14
-3.82518e-15
-6.99781e-16
-6.67553e-13
-6.74161e-13
-6.70484e-13
-6.67492e-13
-6.679e-13
-6.66881e-13
-6.62956e-13
-6.61882e-13
-6.54821e-13
-6.45897e-13
-6.42635e-13
-6.41467e-13
-6.38833e-13
-6.36154e-13
-6.32577e-13
-6.25308e-13
-6.16632e-13
-6.11082e-13
-6.07057e-13
-5.99397e-13
-5.93549e-13
-5.86469e-13
-5.77254e-13
-5.62989e-13
-5.51802e-13
-5.45624e-13
-5.45346e-13
-5.41053e-13
-5.36308e-13
-5.31844e-13
-5.23069e-13
-5.12264e-13
-4.99855e-13
-4.89217e-13
-4.8269e-13
-4.77484e-13
-4.74569e-13
-4.68457e-13
-4.57262e-13
-4.49785e-13
-4.40287e-13
-4.3153e-13
-4.26346e-13
-4.19167e-13
-4.10213e-13
-4.01206e-13
-3.92159e-13
-3.86938e-13
-3.8119e-13
-3.73493e-13
-3.65995e-13
-3.57388e-13
-3.50534e-13
-3.43269e-13
-3.378e-13
-3.32131e-13
-3.26053e-13
-3.17776e-13
-3.10196e-13
-3.00668e-13
-2.92406e-13
-2.859e-13
-2.8014e-13
-2.74799e-13
-2.65886e-13
-2.58133e-13
-2.49563e-13
-2.42891e-13
-2.36721e-13
-2.31757e-13
-2.27015e-13
-2.19381e-13
-2.11825e-13
-2.03715e-13
-1.92041e-13
-1.82283e-13
-1.73833e-13
-1.69719e-13
-1.64738e-13
-1.56765e-13
-1.5008e-13
-1.39967e-13
-1.31409e-13
-1.21843e-13
-1.11839e-13
-1.02893e-13
-9.72741e-14
-9.13497e-14
-8.52942e-14
-7.65918e-14
-6.85266e-14
-6.28472e-14
-5.49484e-14
-4.61492e-14
-3.7418e-14
-2.87085e-14
-2.09941e-14
-1.41817e-14
-5.96854e-15
-1.14938e-15
-6.66896e-13
-6.69792e-13
-6.70983e-13
-6.68256e-13
-6.67846e-13
-6.68403e-13
-6.60997e-13
-6.53558e-13
-6.49712e-13
-6.48706e-13
-6.47067e-13
-6.44177e-13
-6.40928e-13
-6.36449e-13
-6.3182e-13
-6.26363e-13
-6.21151e-13
-6.1765e-13
-6.10517e-13
-5.98338e-13
-5.84543e-13
-5.73691e-13
-5.67671e-13
-5.59862e-13
-5.57335e-13
-5.53581e-13
-5.48431e-13
-5.40537e-13
-5.35078e-13
-5.317e-13
-5.24834e-13
-5.14867e-13
-5.03101e-13
-4.89354e-13
-4.79849e-13
-4.76947e-13
-4.75085e-13
-4.69066e-13
-4.61102e-13
-4.50885e-13
-4.39024e-13
-4.29714e-13
-4.2189e-13
-4.16544e-13
-4.09831e-13
-4.02845e-13
-3.95342e-13
-3.87038e-13
-3.80547e-13
-3.78236e-13
-3.70955e-13
-3.5675e-13
-3.47031e-13
-3.39811e-13
-3.34233e-13
-3.31002e-13
-3.26533e-13
-3.17651e-13
-3.06476e-13
-2.98385e-13
-2.93937e-13
-2.88784e-13
-2.82343e-13
-2.74806e-13
-2.62962e-13
-2.54165e-13
-2.48047e-13
-2.44542e-13
-2.38646e-13
-2.31718e-13
-2.25175e-13
-2.19402e-13
-2.11989e-13
-2.02256e-13
-1.92208e-13
-1.79863e-13
-1.72482e-13
-1.6883e-13
-1.66391e-13
-1.60362e-13
-1.52257e-13
-1.41812e-13
-1.30643e-13
-1.1989e-13
-1.10815e-13
-1.02919e-13
-9.71671e-14
-9.05193e-14
-8.29131e-14
-7.54614e-14
-6.84577e-14
-6.21531e-14
-5.52981e-14
-4.56893e-14
-3.63326e-14
-2.70693e-14
-1.8351e-14
-1.17088e-14
-4.99884e-15
-1.39607e-15
-6.65917e-13
-6.71277e-13
-6.71914e-13
-6.69005e-13
-6.66509e-13
-6.69516e-13
-6.66961e-13
-6.57659e-13
-6.45184e-13
-6.42747e-13
-6.42109e-13
-6.42681e-13
-6.41076e-13
-6.39607e-13
-6.34415e-13
-6.27001e-13
-6.19649e-13
-6.13634e-13
-6.04039e-13
-5.96886e-13
-5.90978e-13
-5.8051e-13
-5.69946e-13
-5.58863e-13
-5.56812e-13
-5.53565e-13
-5.49758e-13
-5.43221e-13
-5.36038e-13
-5.30728e-13
-5.22444e-13
-5.11722e-13
-5.02034e-13
-4.89329e-13
-4.79013e-13
-4.76211e-13
-4.74427e-13
-4.69455e-13
-4.60778e-13
-4.51378e-13
-4.37877e-13
-4.28072e-13
-4.23854e-13
-4.18178e-13
-4.10264e-13
-4.01382e-13
-3.96853e-13
-3.90428e-13
-3.80885e-13
-3.70809e-13
-3.641e-13
-3.57993e-13
-3.49952e-13
-3.38929e-13
-3.37482e-13
-3.33588e-13
-3.25273e-13
-3.18627e-13
-3.11629e-13
-3.00529e-13
-2.92654e-13
-2.86457e-13
-2.78786e-13
-2.72159e-13
-2.62504e-13
-2.55453e-13
-2.46865e-13
-2.42218e-13
-2.35873e-13
-2.33296e-13
-2.26781e-13
-2.21402e-13
-2.14199e-13
-2.01973e-13
-1.89851e-13
-1.79462e-13
-1.74149e-13
-1.68709e-13
-1.63667e-13
-1.57886e-13
-1.5112e-13
-1.42281e-13
-1.3138e-13
-1.19624e-13
-1.12092e-13
-1.0428e-13
-9.7009e-14
-9.04876e-14
-8.34962e-14
-7.45475e-14
-6.711e-14
-6.00299e-14
-5.19909e-14
-4.31885e-14
-3.58337e-14
-2.98494e-14
-1.73701e-14
-9.06331e-15
-2.79504e-15
-8.60545e-16
-6.70173e-13
-6.69348e-13
-6.66796e-13
-6.63944e-13
-6.65303e-13
-6.62021e-13
-6.58993e-13
-6.59403e-13
-6.56684e-13
-6.50876e-13
-6.48073e-13
-6.41786e-13
-6.3691e-13
-6.36128e-13
-6.33189e-13
-6.28189e-13
-6.21222e-13
-6.17983e-13
-6.09912e-13
-5.97066e-13
-5.82554e-13
-5.72572e-13
-5.66448e-13
-5.63893e-13
-5.57566e-13
-5.54355e-13
-5.49904e-13
-5.42726e-13
-5.36377e-13
-5.29711e-13
-5.22575e-13
-5.1167e-13
-5.0073e-13
-4.89151e-13
-4.81038e-13
-4.77809e-13
-4.76833e-13
-4.69494e-13
-4.59451e-13
-4.50287e-13
-4.38265e-13
-4.26543e-13
-4.22197e-13
-4.17328e-13
-4.12554e-13
-4.02182e-13
-3.93562e-13
-3.89173e-13
-3.83272e-13
-3.73123e-13
-3.63383e-13
-3.57875e-13
-3.51017e-13
-3.414e-13
-3.34173e-13
-3.30346e-13
-3.2357e-13
-3.17675e-13
-3.12038e-13
-3.03455e-13
-2.93543e-13
-2.86811e-13
-2.78722e-13
-2.71863e-13
-2.65215e-13
-2.56105e-13
-2.46685e-13
-2.37863e-13
-2.33492e-13
-2.33603e-13
-2.25959e-13
-2.20168e-13
-2.12932e-13
-2.02344e-13
-1.91968e-13
-1.81535e-13
-1.71584e-13
-1.65386e-13
-1.62992e-13
-1.60511e-13
-1.53767e-13
-1.40616e-13
-1.30397e-13
-1.18026e-13
-1.11813e-13
-1.05554e-13
-9.86197e-14
-8.9395e-14
-8.056e-14
-7.39642e-14
-6.67555e-14
-5.8877e-14
-5.2736e-14
-4.40845e-14
-3.55965e-14
-2.66132e-14
-1.73968e-14
-1.00516e-14
-2.63959e-15
2.74563e-16
-6.69544e-13
-6.68783e-13
-6.66621e-13
-6.65232e-13
-6.69451e-13
-6.67144e-13
-6.5906e-13
-6.54194e-13
-6.50875e-13
-6.4884e-13
-6.4773e-13
-6.46431e-13
-6.382e-13
-6.32633e-13
-6.30289e-13
-6.26005e-13
-6.22817e-13
-6.1696e-13
-6.08028e-13
-5.95329e-13
-5.84401e-13
-5.73831e-13
-5.6564e-13
-5.63941e-13
-5.62089e-13
-5.54032e-13
-5.47333e-13
-5.42604e-13
-5.38902e-13
-5.31167e-13
-5.23893e-13
-5.12336e-13
-5.00415e-13
-4.88762e-13
-4.78812e-13
-4.76623e-13
-4.72826e-13
-4.68699e-13
-4.62408e-13
-4.52955e-13
-4.40634e-13
-4.29822e-13
-4.2188e-13
-4.1298e-13
-4.10096e-13
-4.03219e-13
-3.95569e-13
-3.86263e-13
-3.79234e-13
-3.73466e-13
-3.63662e-13
-3.57774e-13
-3.50953e-13
-3.42342e-13
-3.38066e-13
-3.32917e-13
-3.22454e-13
-3.13628e-13
-3.09303e-13
-3.01971e-13
-2.94666e-13
-2.86229e-13
-2.80023e-13
-2.7348e-13
-2.6484e-13
-2.54389e-13
-2.47552e-13
-2.38167e-13
-2.3106e-13
-2.28813e-13
-2.2534e-13
-2.20452e-13
-2.13891e-13
-2.02381e-13
-1.91381e-13
-1.81631e-13
-1.73253e-13
-1.66451e-13
-1.64037e-13
-1.59347e-13
-1.51755e-13
-1.414e-13
-1.30902e-13
-1.19537e-13
-1.1089e-13
-1.01233e-13
-9.50855e-14
-9.05911e-14
-8.37023e-14
-7.39802e-14
-6.56084e-14
-5.7885e-14
-5.0497e-14
-4.27058e-14
-3.42665e-14
-2.72474e-14
-1.84433e-14
-8.8051e-15
-2.32039e-15
-1.19297e-15
-6.65798e-13
-6.67971e-13
-6.6792e-13
-6.66469e-13
-6.65557e-13
-6.61045e-13
-6.5847e-13
-6.56151e-13
-6.54809e-13
-6.5208e-13
-6.48256e-13
-6.45481e-13
-6.40219e-13
-6.33847e-13
-6.29178e-13
-6.2373e-13
-6.21372e-13
-6.1569e-13
-6.06281e-13
-5.96953e-13
-5.84515e-13
-5.7401e-13
-5.69006e-13
-5.64393e-13
-5.57042e-13
-5.52278e-13
-5.49808e-13
-5.45531e-13
-5.38258e-13
-5.28763e-13
-5.20532e-13
-5.11412e-13
-5.00109e-13
-4.89914e-13
-4.80782e-13
-4.79844e-13
-4.77529e-13
-4.69166e-13
-4.58988e-13
-4.47597e-13
-4.38278e-13
-4.31739e-13
-4.23426e-13
-4.13531e-13
-4.08036e-13
-3.9984e-13
-3.9664e-13
-3.93765e-13
-3.82689e-13
-3.70827e-13
-3.61834e-13
-3.58452e-13
-3.51516e-13
-3.41657e-13
-3.36648e-13
-3.31821e-13
-3.24512e-13
-3.14782e-13
-3.07661e-13
-3.00568e-13
-2.96891e-13
-2.88866e-13
-2.80144e-13
-2.72097e-13
-2.61886e-13
-2.53879e-13
-2.45786e-13
-2.39273e-13
-2.31813e-13
-2.26997e-13
-2.22184e-13
-2.20925e-13
-2.14733e-13
-2.02185e-13
-1.91143e-13
-1.81253e-13
-1.74565e-13
-1.6827e-13
-1.60872e-13
-1.5295e-13
-1.52831e-13
-1.46447e-13
-1.31436e-13
-1.19244e-13
-1.09663e-13
-1.00251e-13
-9.3576e-14
-8.93757e-14
-8.30516e-14
-7.37179e-14
-6.51229e-14
-5.85155e-14
-5.06293e-14
-4.15191e-14
-3.55118e-14
-2.59683e-14
-1.67521e-14
-7.81551e-15
-1.60194e-15
-1.54425e-15
-6.7011e-13
-6.68499e-13
-6.67224e-13
-6.64941e-13
-6.61516e-13
-6.5979e-13
-6.57526e-13
-6.57325e-13
-6.55476e-13
-6.52145e-13
-6.47263e-13
-6.44865e-13
-6.406e-13
-6.35918e-13
-6.30181e-13
-6.22771e-13
-6.15635e-13
-6.10449e-13
-6.06026e-13
-5.99422e-13
-5.86437e-13
-5.76779e-13
-5.69399e-13
-5.62552e-13
-5.57916e-13
-5.53695e-13
-5.50325e-13
-5.45974e-13
-5.36877e-13
-5.3029e-13
-5.21072e-13
-5.10318e-13
-4.99503e-13
-4.88213e-13
-4.82527e-13
-4.79265e-13
-4.75079e-13
-4.68168e-13
-4.58723e-13
-4.48704e-13
-4.38549e-13
-4.29272e-13
-4.23408e-13
-4.16387e-13
-4.10688e-13
-4.03252e-13
-3.94169e-13
-3.86718e-13
-3.81542e-13
-3.7392e-13
-3.66774e-13
-3.58268e-13
-3.49904e-13
-3.4187e-13
-3.35653e-13
-3.28099e-13
-3.23693e-13
-3.16559e-13
-3.07932e-13
-3.00866e-13
-2.97045e-13
-2.89806e-13
-2.80269e-13
-2.70575e-13
-2.62637e-13
-2.54608e-13
-2.45511e-13
-2.37744e-13
-2.31662e-13
-2.26788e-13
-2.23003e-13
-2.21104e-13
-2.13708e-13
-2.00267e-13
-1.90477e-13
-1.81294e-13
-1.73852e-13
-1.67163e-13
-1.62495e-13
-1.56918e-13
-1.49853e-13
-1.41921e-13
-1.31651e-13
-1.21503e-13
-1.12872e-13
-1.00623e-13
-9.26627e-14
-8.69655e-14
-8.23975e-14
-7.13319e-14
-6.31756e-14
-5.77337e-14
-5.29175e-14
-4.21084e-14
-3.23563e-14
-2.53899e-14
-1.78796e-14
-6.51206e-15
-2.56099e-15
-1.92749e-15
-6.71689e-13
-6.67761e-13
-6.63757e-13
-6.64066e-13
-6.58897e-13
-6.5927e-13
-6.57706e-13
-6.5805e-13
-6.57428e-13
-6.50965e-13
-6.47031e-13
-6.45328e-13
-6.43398e-13
-6.36938e-13
-6.30026e-13
-6.2439e-13
-6.18738e-13
-6.1117e-13
-6.04839e-13
-5.94499e-13
-5.86387e-13
-5.77086e-13
-5.67054e-13
-5.60923e-13
-5.56482e-13
-5.56205e-13
-5.50862e-13
-5.44875e-13
-5.3675e-13
-5.29288e-13
-5.2102e-13
-5.11734e-13
-4.99175e-13
-4.90387e-13
-4.81191e-13
-4.76544e-13
-4.73697e-13
-4.6785e-13
-4.58714e-13
-4.48791e-13
-4.40641e-13
-4.31241e-13
-4.22222e-13
-4.15262e-13
-4.09172e-13
-4.02129e-13
-3.9423e-13
-3.88671e-13
-3.83288e-13
-3.74475e-13
-3.64439e-13
-3.5511e-13
-3.49127e-13
-3.43579e-13
-3.37261e-13
-3.31172e-13
-3.23883e-13
-3.15497e-13
-3.09791e-13
-3.03794e-13
-2.97731e-13
-2.88525e-13
-2.77469e-13
-2.69597e-13
-2.61322e-13
-2.52733e-13
-2.4429e-13
-2.38605e-13
-2.31348e-13
-2.29347e-13
-2.23899e-13
-2.17991e-13
-2.0852e-13
-1.98551e-13
-1.89219e-13
-1.79858e-13
-1.75806e-13
-1.7169e-13
-1.63101e-13
-1.54984e-13
-1.47903e-13
-1.39816e-13
-1.30463e-13
-1.20518e-13
-1.09627e-13
-9.83633e-14
-9.28234e-14
-8.83263e-14
-8.09717e-14
-7.48268e-14
-6.80441e-14
-5.75543e-14
-4.8768e-14
-4.03419e-14
-3.23352e-14
-2.36732e-14
-1.60909e-14
-1.02169e-14
-4.80427e-15
-2.31701e-15
-6.7016e-13
-6.66248e-13
-6.65196e-13
-6.63477e-13
-6.61578e-13
-6.59154e-13
-6.55456e-13
-6.57535e-13
-6.57113e-13
-6.53209e-13
-6.48387e-13
-6.43934e-13
-6.42969e-13
-6.35563e-13
-6.28074e-13
-6.21022e-13
-6.14344e-13
-6.10609e-13
-6.05085e-13
-5.96013e-13
-5.87677e-13
-5.78512e-13
-5.68599e-13
-5.63371e-13
-5.59911e-13
-5.53779e-13
-5.47881e-13
-5.41341e-13
-5.33709e-13
-5.29221e-13
-5.21827e-13
-5.15123e-13
-5.04461e-13
-4.94344e-13
-4.79729e-13
-4.74161e-13
-4.70907e-13
-4.65977e-13
-4.58021e-13
-4.48245e-13
-4.41511e-13
-4.31245e-13
-4.23814e-13
-4.1383e-13
-4.09282e-13
-4.02795e-13
-3.97581e-13
-3.89574e-13
-3.80348e-13
-3.6927e-13
-3.63711e-13
-3.59043e-13
-3.51554e-13
-3.40298e-13
-3.33553e-13
-3.27318e-13
-3.20435e-13
-3.17324e-13
-3.09672e-13
-3.05706e-13
-3.03912e-13
-2.87185e-13
-2.75907e-13
-2.70273e-13
-2.63173e-13
-2.54445e-13
-2.45965e-13
-2.3902e-13
-2.29694e-13
-2.25369e-13
-2.20734e-13
-2.18894e-13
-2.11654e-13
-2.00678e-13
-1.8738e-13
-1.76756e-13
-1.75278e-13
-1.70595e-13
-1.62705e-13
-1.55889e-13
-1.48406e-13
-1.399e-13
-1.29735e-13
-1.19406e-13
-1.10236e-13
-9.95746e-14
-9.21038e-14
-8.78233e-14
-8.145e-14
-7.1146e-14
-6.37333e-14
-5.72052e-14
-4.92648e-14
-4.03326e-14
-3.48775e-14
-2.78219e-14
-1.63607e-14
-7.97624e-15
-1.65019e-15
-1.37783e-15
-6.66173e-13
-6.67663e-13
-6.67541e-13
-6.62916e-13
-6.59558e-13
-6.59966e-13
-6.58574e-13
-6.55502e-13
-6.55399e-13
-6.52296e-13
-6.49852e-13
-6.46914e-13
-6.41249e-13
-6.34328e-13
-6.28608e-13
-6.23128e-13
-6.19538e-13
-6.14976e-13
-6.06781e-13
-5.94662e-13
-5.81594e-13
-5.71144e-13
-5.66513e-13
-5.64949e-13
-5.60886e-13
-5.5378e-13
-5.4541e-13
-5.40695e-13
-5.33131e-13
-5.29665e-13
-5.24095e-13
-5.12483e-13
-5.01333e-13
-4.93106e-13
-4.84428e-13
-4.78265e-13
-4.72107e-13
-4.64773e-13
-4.57174e-13
-4.48601e-13
-4.40314e-13
-4.30744e-13
-4.21711e-13
-4.16007e-13
-4.12465e-13
-4.03837e-13
-3.95807e-13
-3.85711e-13
-3.80957e-13
-3.73784e-13
-3.63048e-13
-3.57735e-13
-3.50599e-13
-3.42358e-13
-3.35502e-13
-3.24916e-13
-3.15513e-13
-3.1559e-13
-3.15659e-13
-3.06925e-13