/*--------------------------------*- C++ -*----------------------------------*\
| =========                 |                                                 |
| \\      /  F ield         | OpenFOAM: The Open Source CFD Toolbox           |
|  \\    /   O peration     | Version:  v2012                                 |
|   \\  /    A nd           | Website:  www.openfoam.com                      |
|    \\/     M anipulation  |                                                 |
\*---------------------------------------------------------------------------*/
FoamFile
{
    version     2.0;
    format      ascii;
    class       volScalarField;
    location    "0";
    object      p;
}
// * * * * * * * * * * * * * * * * * * * * * * * * * * * * * * * * * * * * * //

dimensions      [0 2 -2 0 0 0 0];


internalField   nonuniform List<scalar> 
4000
(
3.83095e-14
3.20476e-14
3.39463e-14
4.42245e-14
3.74131e-14
3.22119e-14
3.18185e-14
2.45166e-14
2.81347e-14
2.79433e-14
2.92542e-14
2.18532e-14
2.04199e-14
1.56281e-14
8.48081e-15
-5.71819e-15
-6.45604e-15
-3.39506e-15
-1.2454e-14
-2.7359e-14
-3.59934e-14
-3.97506e-14
-4.05714e-14
-4.26678e-14
-4.06591e-14
-4.89684e-14
-4.57046e-14
-5.3902e-14
-5.76684e-14
-6.26239e-14
-7.3813e-14
-7.27011e-14
-5.95067e-14
-5.51131e-14
-4.65437e-14
-4.15143e-14
-4.56026e-14
-5.83645e-14
-6.79827e-14
-6.39892e-14
-6.25193e-14
-5.19758e-14
-4.30087e-14
-3.15322e-14
-3.87096e-14
-4.01984e-14
-3.89501e-14
-4.7196e-14
-4.61312e-14
-4.75766e-14
-4.76617e-14
-4.59138e-14
-4.92151e-14
-4.93487e-14
-4.58255e-14
-5.09126e-14
-4.9518e-14
-5.2344e-14
-5.12727e-14
-3.89351e-14
-4.24224e-14
-3.68606e-14
-4.18041e-14
-5.10813e-14
-5.67913e-14
-6.19508e-14
-5.19114e-14
-5.43061e-14
-5.80109e-14
-5.90131e-14
-5.84603e-14
-5.09154e-14
-5.70863e-14
-6.46031e-14
-6.91669e-14
-5.98881e-14
-5.47672e-14
-5.37485e-14
-5.26331e-14
-5.23486e-14
-5.3789e-14
-4.63071e-14
-4.13463e-14
-4.67343e-14
-5.12134e-14
-4.09307e-14
-3.59492e-14
-2.83897e-14
-2.25629e-14
-2.3494e-14
-2.36629e-14
-2.43934e-14
-2.11245e-14
-8.57899e-15
-9.68657e-15
-9.7174e-15
-1.53893e-15
1.63117e-15
-1.89624e-15
-1.67485e-15
3.78412e-14
3.40852e-14
3.88132e-14
3.86962e-14
4.16382e-14
3.17207e-14
3.05196e-14
2.72331e-14
2.83261e-14
2.65375e-14
2.50423e-14
1.99889e-14
2.30982e-14
1.58442e-14
9.43707e-15
2.80461e-15
-2.51909e-15
-8.48518e-15
-1.67957e-14
-2.52566e-14
-3.08045e-14
-3.94023e-14
-4.24148e-14
-4.94762e-14
-4.24446e-14
-4.71185e-14
-5.04504e-14
-5.30623e-14
-5.99201e-14
-6.25702e-14
-6.85219e-14
-6.60599e-14
-6.48186e-14
-5.80433e-14
-5.13094e-14
-4.20381e-14
-4.95097e-14
-5.61754e-14
-6.27609e-14
-6.17421e-14
-5.28134e-14
-5.26456e-14
-4.58957e-14
-3.68707e-14
-3.87713e-14
-4.06973e-14
-4.13999e-14
-4.07125e-14
-4.65748e-14
-5.16799e-14
-4.84493e-14
-4.53431e-14
-4.78484e-14
-4.90203e-14
-3.8699e-14
-4.78518e-14
-5.66051e-14
-5.80774e-14
-5.33143e-14
-4.15374e-14
-3.82182e-14
-3.72098e-14
-4.00375e-14
-4.98192e-14
-5.45094e-14
-6.07438e-14
-5.57205e-14
-5.59944e-14
-5.69677e-14
-5.82323e-14
-5.65746e-14
-5.50113e-14
-5.65284e-14
-5.94166e-14
-6.5403e-14
-6.45427e-14
-5.8994e-14
-5.47084e-14
-5.14411e-14
-5.41428e-14
-5.43203e-14
-4.66247e-14
-4.33818e-14
-4.4286e-14
-4.9566e-14
-4.01538e-14
-3.4482e-14
-3.15401e-14
-2.72706e-14
-2.20155e-14
-2.13385e-14
-2.2542e-14
-1.76218e-14
-1.3549e-14
-9.47008e-15
-6.16538e-15
-6.00216e-15
-4.85589e-16
4.68458e-16
5.03168e-16
3.94139e-14
3.82929e-14
3.59846e-14
3.73832e-14
3.83388e-14
3.41771e-14
2.71899e-14
2.92152e-14
2.60657e-14
2.7166e-14
2.00881e-14
2.01965e-14
1.61131e-14
1.8342e-14
1.29e-14
6.18199e-15
-3.67831e-15
-1.16807e-14
-1.74807e-14
-2.28033e-14
-3.12477e-14
-4.1656e-14
-3.97701e-14
-4.60312e-14
-4.53428e-14
-4.57554e-14
-4.84406e-14
-5.14588e-14
-5.99149e-14
-6.60475e-14
-7.08938e-14
-6.47294e-14
-5.90498e-14
-5.55418e-14
-5.44521e-14
-4.82871e-14
-5.11894e-14
-5.35781e-14
-5.93091e-14
-6.21287e-14
-5.35537e-14
-5.34825e-14
-4.63731e-14
-4.15999e-14
-4.11754e-14
-3.78467e-14
-4.48522e-14
-4.41157e-14
-4.5882e-14
-4.56049e-14
-4.41011e-14
-4.89989e-14
-5.30479e-14
-4.96235e-14
-4.19439e-14
-4.81004e-14
-5.44309e-14
-5.41687e-14
-4.56617e-14
-4.29992e-14
-3.39028e-14
-4.09154e-14
-4.72477e-14
-4.99239e-14
-5.63731e-14
-5.3941e-14
-5.02885e-14
-5.57463e-14
-5.82893e-14
-5.92769e-14
-5.76854e-14
-5.73182e-14
-5.81512e-14
-6.02833e-14
-6.39458e-14
-6.10338e-14
-6.13643e-14
-5.4761e-14
-5.10287e-14
-4.87606e-14
-5.02267e-14
-5.00251e-14
-4.64277e-14
-4.56708e-14
-5.07264e-14
-3.88125e-14
-2.92881e-14
-2.81496e-14
-2.83564e-14
-3.24845e-14
-2.1795e-14
-1.92925e-14
-1.58959e-14
-1.39195e-14
-1.60731e-14
-8.86257e-15
-9.27305e-15
1.29939e-15
3.84396e-15
-6.24977e-16
4.15957e-14
3.93805e-14
3.60909e-14
3.39935e-14
3.02618e-14
3.32075e-14
2.84117e-14
2.95692e-14
2.6438e-14
2.24401e-14
1.90353e-14
2.03965e-14
1.54121e-14
1.4615e-14
1.63558e-14
7.7159e-15
-3.54332e-15
-1.33803e-14
-2.05673e-14
-2.40299e-14
-3.13915e-14
-3.64961e-14
-3.36336e-14
-4.72988e-14
-4.76655e-14
-5.04693e-14
-5.35982e-14
-5.72435e-14
-5.89402e-14
-6.49584e-14
-6.2029e-14
-6.08061e-14
-6.04626e-14
-5.39364e-14
-5.30678e-14
-5.16474e-14
-5.60272e-14
-5.807e-14
-5.66645e-14
-5.78979e-14
-5.03745e-14
-4.95009e-14
-4.55518e-14
-4.50871e-14
-4.5156e-14
-4.53733e-14
-4.19792e-14
-4.11799e-14
-3.99937e-14
-4.55812e-14
-4.95675e-14
-4.76196e-14
-4.7207e-14
-4.74007e-14
-4.30221e-14
-4.32488e-14
-5.20308e-14
-5.68772e-14
-5.04639e-14
-4.20605e-14
-3.72674e-14
-4.12102e-14
-4.58421e-14
-4.73953e-14
-5.55921e-14
-5.30345e-14
-5.11639e-14
-5.73424e-14
-5.73471e-14
-5.2985e-14
-5.38408e-14
-5.52311e-14
-5.82811e-14
-6.02494e-14
-5.96057e-14
-5.94904e-14
-5.79121e-14
-5.79666e-14
-5.18723e-14
-5.32194e-14
-4.80935e-14
-4.4805e-14
-4.32901e-14
-5.01249e-14
-4.83824e-14
-3.92198e-14
-3.38568e-14
-3.16601e-14
-2.81533e-14
-2.80554e-14
-2.26705e-14
-2.28656e-14
-1.56009e-14
-1.29496e-14
-1.2551e-14
-7.06445e-15
-8.32405e-15
-1.44092e-15
-4.09942e-15
-4.85656e-15
3.72381e-14
4.47837e-14
3.55955e-14
3.03234e-14
2.66014e-14
3.20632e-14
2.63369e-14
3.22546e-14
2.70881e-14
1.46077e-14
1.48522e-14
1.92115e-14
1.99777e-14
1.60221e-14
1.18726e-14
1.25766e-14
2.76558e-15
-5.94727e-15
-2.01649e-14
-3.12333e-14
-3.91504e-14
-4.25315e-14
-4.30142e-14
-4.48992e-14
-4.46569e-14
-4.97318e-14
-5.17308e-14
-5.81163e-14
-5.74031e-14
-6.22296e-14
-5.99065e-14
-5.90844e-14
-5.77194e-14
-5.5936e-14
-5.81178e-14
-5.07654e-14
-5.41377e-14
-5.79644e-14
-6.40208e-14
-5.67814e-14
-5.04141e-14
-4.37245e-14
-4.29356e-14
-4.12858e-14
-4.93192e-14
-4.96969e-14
-4.27659e-14
-3.97777e-14
-3.60643e-14
-4.31517e-14
-4.45735e-14
-4.16432e-14
-4.48686e-14
-4.77772e-14
-4.18047e-14
-4.55385e-14
-5.07818e-14
-5.27204e-14
-4.83221e-14
-4.28593e-14
-3.9469e-14
-4.33639e-14
-4.99283e-14
-4.98894e-14
-4.47624e-14
-4.56349e-14
-4.5507e-14
-5.48716e-14
-5.49088e-14
-5.30208e-14
-5.58992e-14
-6.19454e-14
-5.77236e-14
-5.8137e-14
-5.62632e-14
-5.72181e-14
-5.57417e-14
-5.55091e-14
-5.4642e-14
-5.1814e-14
-4.87681e-14
-4.41656e-14
-4.10599e-14
-4.78603e-14
-4.77668e-14
-4.39394e-14
-3.75477e-14
-3.20925e-14
-2.59835e-14
-2.72662e-14
-2.49259e-14
-2.21145e-14
-1.67419e-14
-1.09187e-14
-1.04406e-14
-4.84852e-15
-6.68852e-15
-3.69271e-15
-8.97077e-15
-7.01231e-15
4.03949e-14
4.58283e-14
3.63244e-14
2.80901e-14
2.47383e-14
2.59612e-14
2.72192e-14
2.98099e-14
3.00618e-14
2.06266e-14
1.59518e-14
1.66622e-14
1.87296e-14
1.36373e-14
5.95864e-15
1.29941e-14
5.86617e-15
-6.03949e-15
-1.43113e-14
-3.14596e-14
-4.03786e-14
-4.37185e-14
-5.3796e-14
-5.0319e-14
-4.72712e-14
-5.06306e-14
-5.31565e-14
-5.63105e-14
-5.88123e-14
-5.89206e-14
-6.33338e-14
-6.08271e-14
-5.46885e-14
-4.58467e-14
-4.85671e-14
-5.43395e-14
-5.6218e-14
-5.68123e-14
-5.66448e-14
-5.43033e-14
-4.90901e-14
-4.28709e-14
-4.11157e-14
-4.455e-14
-4.67351e-14
-4.94823e-14
-4.75745e-14
-4.35758e-14
-3.5109e-14
-4.14879e-14
-4.24576e-14
-3.78181e-14
-4.15808e-14
-4.74966e-14
-4.47672e-14
-4.69559e-14
-4.74745e-14
-5.24393e-14
-4.66904e-14
-3.95873e-14
-3.35627e-14
-4.13489e-14
-4.91071e-14
-4.50318e-14
-4.59552e-14
-4.69975e-14
-4.93817e-14
-5.43081e-14
-5.02773e-14
-4.71549e-14
-5.31869e-14
-5.74257e-14
-5.37125e-14
-5.46845e-14
-5.98212e-14
-5.51529e-14
-5.70533e-14
-5.91544e-14
-4.88248e-14
-4.64716e-14
-4.34271e-14
-4.54003e-14
-4.57353e-14
-5.37545e-14
-4.98075e-14
-4.52753e-14
-3.68388e-14
-3.17284e-14
-2.87713e-14
-2.78906e-14
-2.80259e-14
-2.19019e-14
-2.07669e-14
-9.11472e-15
-6.81841e-15
-6.2809e-15
-1.20968e-14
-8.11193e-15
-1.07141e-14
-7.9481e-15
4.44709e-14
4.42261e-14
3.32957e-14
2.71687e-14
2.10068e-14
2.62163e-14
3.1382e-14
2.83055e-14
2.25278e-14
1.53602e-14
1.80796e-14
1.82694e-14
2.19425e-14
1.46706e-14
1.16447e-14
8.98307e-15
3.82866e-15
-1.09967e-14
-1.69202e-14
-3.5053e-14
-4.34573e-14
-4.5939e-14
-4.39217e-14
-4.4327e-14
-4.28971e-14
-4.80885e-14
-5.6248e-14
-6.47248e-14
-6.37265e-14
-5.68252e-14
-5.71631e-14
-6.10446e-14
-4.97115e-14
-5.27019e-14
-5.5706e-14
-5.23343e-14
-5.24999e-14
-5.62101e-14
-4.89038e-14
-5.39243e-14
-4.80089e-14
-4.55248e-14
-4.35152e-14
-4.3864e-14
-4.17826e-14
-4.27674e-14
-4.40284e-14
-4.49722e-14
-4.45931e-14
-4.1307e-14
-3.93842e-14
-3.38957e-14
-3.20623e-14
-4.4425e-14
-4.40043e-14
-4.28311e-14
-4.79727e-14
-5.36367e-14
-4.70239e-14
-3.82861e-14
-3.2522e-14
-3.43491e-14
-4.55268e-14
-4.80421e-14
-4.78389e-14
-4.78771e-14
-5.15226e-14
-5.43349e-14
-5.05214e-14
-4.53798e-14
-4.32101e-14
-5.24292e-14
-5.61104e-14
-5.2167e-14
-5.19945e-14
-5.26873e-14
-5.83164e-14
-5.92629e-14
-5.08929e-14
-4.62747e-14
-4.49151e-14
-4.77865e-14
-4.1863e-14
-4.98994e-14
-5.55119e-14
-4.99514e-14
-4.07152e-14
-3.23882e-14
-3.26396e-14
-2.94414e-14
-2.69634e-14
-2.35787e-14
-1.97022e-14
-8.67584e-15
-7.36642e-15
-1.25855e-14
-1.72316e-14
-1.36947e-14
-9.71522e-15
-4.36785e-15
4.86798e-14
4.08389e-14
2.70784e-14
2.56342e-14
2.5885e-14
3.32079e-14
2.96863e-14
1.93936e-14
2.11076e-14
1.55447e-14
2.13472e-14
1.97851e-14
1.77367e-14
1.36339e-14
1.01052e-14
5.65689e-15
-7.97246e-16
-4.73763e-15
-2.1059e-14
-3.28274e-14
-3.68677e-14
-4.56138e-14
-5.42535e-14
-4.62926e-14
-3.90532e-14
-4.67986e-14
-5.65344e-14
-6.69072e-14
-6.49895e-14
-5.60765e-14
-5.69824e-14
-4.99752e-14
-4.37664e-14
-4.93539e-14
-5.56954e-14
-5.48334e-14
-5.25846e-14
-5.26969e-14
-4.99279e-14
-4.64356e-14
-4.70895e-14
-4.61434e-14
-4.58639e-14
-3.79972e-14
-3.49964e-14
-4.20854e-14
-4.73687e-14
-4.86982e-14
-4.48966e-14
-4.13916e-14
-3.07513e-14
-2.92315e-14
-3.13895e-14
-4.16952e-14
-4.51452e-14
-4.0478e-14
-3.86291e-14
-4.25806e-14
-4.34311e-14
-3.89638e-14
-3.60215e-14
-4.05462e-14
-4.08648e-14
-4.18372e-14
-4.22695e-14
-4.59656e-14
-4.67368e-14
-5.12047e-14
-4.3664e-14
-4.63467e-14
-4.92065e-14
-5.30158e-14
-5.63771e-14
-5.9134e-14
-5.94438e-14
-5.3173e-14
-5.38673e-14
-4.93656e-14
-4.36668e-14
-4.46117e-14
-4.59224e-14
-4.94523e-14
-4.856e-14
-5.40687e-14
-5.78101e-14
-5.02385e-14
-3.99723e-14
-3.70524e-14
-3.67816e-14
-3.26266e-14
-2.70597e-14
-2.22102e-14
-1.55194e-14
-1.13491e-14
-1.20173e-14
-1.54854e-14
-1.75895e-14
-1.89506e-14
-1.11115e-14
-6.47511e-15
4.55349e-14
3.59879e-14
2.84385e-14
2.21677e-14
2.88909e-14
2.88118e-14
2.89073e-14
2.37888e-14
1.88255e-14
1.97941e-14
1.83547e-14
1.57865e-14
1.29721e-14
1.04337e-14
1.22622e-14
8.86969e-15
3.12585e-15
-1.17607e-14
-2.41943e-14
-2.67507e-14
-3.75514e-14
-4.40617e-14
-4.74256e-14
-4.49974e-14
-4.75267e-14
-4.76478e-14
-5.41593e-14
-6.02511e-14
-5.21652e-14
-5.44999e-14
-5.72314e-14
-5.34927e-14
-5.14405e-14
-5.98114e-14
-5.19145e-14
-4.94773e-14
-4.99792e-14
-5.03842e-14
-4.01207e-14
-4.21534e-14
-4.48235e-14
-4.69464e-14
-4.54642e-14
-3.93283e-14
-3.8715e-14
-3.93983e-14
-3.95288e-14
-4.08555e-14
-4.19507e-14
-4.26919e-14
-3.39605e-14
-3.52411e-14
-2.95397e-14
-3.77009e-14
-3.73723e-14
-3.71246e-14
-4.17411e-14
-4.1064e-14
-4.04061e-14
-3.88146e-14
-3.54071e-14
-3.45952e-14
-3.84119e-14
-4.31448e-14
-4.96272e-14
-4.83768e-14
-4.51552e-14
-4.96156e-14
-4.71167e-14
-4.85467e-14
-4.77401e-14
-4.93336e-14
-5.319e-14
-5.18271e-14
-5.86586e-14
-5.33769e-14
-5.0598e-14
-4.94006e-14
-4.56904e-14
-4.62172e-14
-4.3697e-14
-4.89677e-14
-5.13405e-14
-5.58417e-14
-5.72519e-14
-4.85826e-14
-4.1547e-14
-4.06411e-14
-3.69785e-14
-3.232e-14
-3.03662e-14
-2.29188e-14
-2.00837e-14
-1.67209e-14
-1.35894e-14
-1.39644e-14
-1.95685e-14
-2.06289e-14
-1.4395e-14
-9.19611e-15
4.37062e-14
3.4099e-14
3.2281e-14
2.8712e-14
2.59038e-14
2.76282e-14
2.0462e-14
2.23496e-14
1.98822e-14
1.25909e-14
1.58044e-14
1.528e-14
1.98201e-14
1.31736e-14
7.56362e-15
3.93604e-15
-1.07978e-15
-6.86357e-15
-1.51741e-14
-2.35168e-14
-3.73302e-14
-4.98759e-14
-4.5412e-14
-4.62149e-14
-4.10087e-14
-4.59612e-14
-5.35564e-14
-5.57106e-14
-5.53172e-14
-5.29158e-14
-5.58987e-14
-5.47283e-14
-5.32941e-14
-5.18342e-14
-5.0598e-14
-5.14368e-14
-4.97639e-14
-4.73841e-14
-4.32672e-14
-3.3196e-14
-4.85924e-14
-5.0875e-14
-4.06824e-14
-3.91205e-14
-3.35657e-14
-3.73188e-14
-3.61717e-14
-3.86178e-14
-3.83309e-14
-4.07922e-14
-3.50595e-14
-3.08591e-14
-2.90616e-14
-3.96824e-14
-3.40315e-14
-3.8556e-14
-4.34742e-14
-4.04678e-14
-3.53355e-14
-3.53546e-14
-3.35154e-14
-2.85084e-14
-2.86888e-14
-4.78007e-14
-5.38106e-14
-5.51468e-14
-4.74811e-14
-5.15036e-14
-4.84006e-14
-3.98615e-14
-3.95554e-14
-4.58731e-14
-5.00561e-14
-5.01802e-14
-5.45999e-14
-5.83446e-14
-5.79328e-14
-4.93148e-14
-4.7547e-14
-4.77334e-14
-5.16351e-14
-4.97998e-14
-4.54503e-14
-5.07367e-14
-5.33859e-14
-4.85552e-14
-5.0851e-14
-4.56254e-14
-4.04938e-14
-3.26188e-14
-3.23903e-14
-2.68005e-14
-2.65539e-14
-2.50192e-14
-1.75865e-14
-1.24834e-14
-2.07155e-14
-1.84647e-14
-1.82499e-14
-7.42895e-15
3.93548e-14
3.43068e-14
2.94363e-14
2.73638e-14
2.81942e-14
2.12872e-14
2.45432e-14
2.22916e-14
2.15386e-14
1.54575e-14
1.42296e-14
1.50645e-14
2.00103e-14
1.56229e-14
7.12486e-15
5.33589e-15
-1.01343e-15
-5.79304e-15
-1.38868e-14
-2.83922e-14
-3.85103e-14
-4.76766e-14
-4.85321e-14
-4.78894e-14
-5.46648e-14
-5.02311e-14
-4.48353e-14
-4.59852e-14
-4.89733e-14
-4.48324e-14
-4.98135e-14
-5.49208e-14
-5.41704e-14
-5.12556e-14
-5.09387e-14
-5.31317e-14
-4.89594e-14
-4.3619e-14
-4.03064e-14
-3.89486e-14
-4.95089e-14
-4.79504e-14
-4.14035e-14
-3.50957e-14
-3.25696e-14
-3.43506e-14
-3.41592e-14
-4.16349e-14
-4.06858e-14
-4.14414e-14
-3.12137e-14
-2.71212e-14
-2.96859e-14
-3.76924e-14
-3.31717e-14
-3.4844e-14
-3.65811e-14
-4.15703e-14
-3.56502e-14
-3.7554e-14
-3.47314e-14
-3.42412e-14
-3.32317e-14
-3.9741e-14
-4.4594e-14
-4.35133e-14
-4.88844e-14
-5.13293e-14
-4.68387e-14
-3.81747e-14
-4.32042e-14
-4.61684e-14
-4.45215e-14
-4.94389e-14
-5.87755e-14
-6.03076e-14
-5.68702e-14
-4.95377e-14
-4.60527e-14
-3.87373e-14
-4.32248e-14
-4.54997e-14
-4.93814e-14
-5.62081e-14
-5.33284e-14
-5.25856e-14
-5.11749e-14
-4.12559e-14
-4.35306e-14
-3.6791e-14
-3.34644e-14
-2.46516e-14
-2.5289e-14
-2.64107e-14
-1.59765e-14
-1.3795e-14
-2.58633e-14
-2.51849e-14
-1.75093e-14
-3.94729e-15
3.77464e-14
3.57374e-14
2.88245e-14
2.83651e-14
2.90791e-14
2.58077e-14
2.32192e-14
2.09889e-14
2.6925e-14
2.23238e-14
1.12114e-14
9.94851e-15
1.18959e-14
1.16882e-14
4.34753e-15
3.34041e-16
2.83899e-15
-1.31908e-15
-1.6044e-14
-2.70951e-14
-3.91942e-14
-4.42666e-14
-4.33393e-14
-4.35413e-14
-5.12007e-14
-5.82504e-14
-5.81742e-14
-4.47891e-14
-4.38266e-14
-3.98617e-14
-4.16334e-14
-4.94213e-14
-5.38508e-14
-5.67459e-14
-5.47336e-14
-5.28564e-14
-4.48056e-14
-3.89196e-14
-4.20781e-14
-4.36504e-14
-4.48128e-14
-4.52353e-14
-4.31563e-14
-3.25876e-14
-3.53796e-14
-3.48415e-14
-4.01758e-14
-3.91848e-14
-3.78962e-14
-3.57715e-14
-2.97559e-14
-2.75497e-14
-2.8534e-14
-3.25446e-14
-3.03156e-14
-3.23145e-14
-3.29006e-14
-3.76377e-14
-3.4899e-14
-3.5533e-14
-3.30296e-14
-2.52147e-14
-2.77209e-14
-3.71829e-14
-4.97914e-14
-5.28163e-14
-5.18656e-14
-4.8203e-14
-4.72624e-14
-4.44085e-14
-3.79567e-14
-3.51427e-14
-3.79601e-14
-4.17597e-14
-5.83673e-14
-6.65738e-14
-5.91059e-14
-4.66968e-14
-3.9984e-14
-4.31647e-14
-4.81478e-14
-4.84651e-14
-5.02111e-14
-4.79958e-14
-5.15245e-14
-5.41132e-14
-5.0401e-14
-4.46685e-14
-4.28436e-14
-3.46037e-14
-3.21351e-14
-2.77541e-14
-2.60209e-14
-2.57282e-14
-2.44381e-14
-2.47029e-14
-2.42182e-14
-2.21536e-14
-1.45022e-14
-5.10524e-15
3.33581e-14
3.29633e-14
2.4204e-14
3.18456e-14
3.0856e-14
2.59642e-14
2.50662e-14
1.37835e-14
1.50269e-14
1.22682e-14
2.11325e-14
2.13745e-14
2.332e-14
1.37014e-14
3.52617e-15
-2.33657e-15
3.85285e-15
5.88683e-15
-1.24131e-14
-2.47607e-14
-3.90366e-14
-4.80244e-14
-5.39839e-14
-5.48261e-14
-5.27379e-14
-5.07863e-14
-4.46402e-14
-5.19159e-14
-5.07103e-14
-4.24352e-14
-4.14144e-14
-4.17364e-14
-4.52194e-14
-4.88917e-14
-4.88058e-14
-4.91524e-14
-4.60931e-14
-4.46236e-14
-4.09323e-14
-4.19622e-14
-4.23387e-14
-4.01007e-14
-3.97908e-14
-4.16074e-14
-4.34963e-14
-3.89202e-14
-3.60989e-14
-3.62183e-14
-3.34539e-14
-3.54e-14
-2.87159e-14
-2.64681e-14
-3.26301e-14
-3.87065e-14
-2.64657e-14
-2.00578e-14
-2.82744e-14
-3.96068e-14
-4.03508e-14
-3.95539e-14
-3.69781e-14
-3.27026e-14
-2.6229e-14
-3.08611e-14
-3.80319e-14
-4.65967e-14
-5.31962e-14
-4.62914e-14
-4.81939e-14
-4.84908e-14
-4.15974e-14
-4.14682e-14
-3.02568e-14
-4.44004e-14
-5.54849e-14
-5.6594e-14
-5.85914e-14
-4.90858e-14
-3.89433e-14
-4.60608e-14
-4.49005e-14
-4.22801e-14
-4.58597e-14
-5.00004e-14
-5.2189e-14
-5.35515e-14
-4.79364e-14
-4.11347e-14
-3.99356e-14
-3.90446e-14
-3.74507e-14
-2.3346e-14
-2.40004e-14
-2.6953e-14
-2.85222e-14
-2.83941e-14
-1.97404e-14
-2.02347e-14
-1.47154e-14
-6.67889e-15
2.91843e-14
3.74987e-14
3.17944e-14
2.76024e-14
2.42173e-14
2.28258e-14
2.57793e-14
2.86826e-14
2.07432e-14
9.64313e-15
1.32227e-14
1.35472e-14
1.78435e-14
1.07767e-14
9.46837e-15
1.76905e-15
-5.78176e-16
-6.84349e-16
-1.38992e-14
-2.11544e-14
-3.16046e-14
-3.83006e-14
-4.11659e-14
-5.14722e-14
-5.85893e-14
-5.73238e-14
-5.07685e-14
-4.74615e-14
-4.49822e-14
-4.15076e-14
-4.00685e-14
-4.03543e-14
-4.76511e-14
-5.50109e-14
-5.5851e-14
-5.36728e-14
-4.21544e-14
-3.85573e-14
-3.48171e-14
-3.42561e-14
-3.99671e-14
-4.79096e-14
-4.33544e-14
-4.04672e-14
-3.3276e-14
-3.6082e-14
-3.56673e-14
-3.76825e-14
-3.45693e-14
-2.90317e-14
-2.44588e-14
-3.23806e-14
-3.3296e-14
-3.53334e-14
-2.67546e-14
-2.30835e-14
-3.05771e-14
-3.13195e-14
-3.36657e-14
-3.92397e-14
-3.7548e-14
-3.45041e-14
-3.64788e-14
-3.65911e-14
-3.4835e-14
-4.30893e-14
-4.89664e-14
-4.67061e-14
-5.20108e-14
-4.92156e-14
-4.20084e-14
-4.04874e-14
-3.37436e-14
-4.39174e-14
-5.10103e-14
-5.1084e-14
-5.65412e-14
-4.75158e-14
-4.02777e-14
-4.55007e-14
-4.50528e-14
-4.65293e-14
-4.80962e-14
-4.72868e-14
-5.29976e-14
-5.07418e-14
-4.54062e-14
-4.08648e-14
-3.84261e-14
-3.93425e-14
-3.3424e-14
-2.70583e-14
-2.41702e-14
-2.59663e-14
-3.29112e-14
-3.22341e-14
-2.04579e-14
-2.02896e-14
-1.50001e-14
-7.23955e-15
2.82356e-14
3.18293e-14
3.38655e-14
2.76711e-14
2.72869e-14
2.82334e-14
2.48774e-14
1.70116e-14
1.61983e-14
1.65004e-14
1.26359e-14
1.32489e-14
1.91445e-14
1.88373e-14
1.99685e-14
2.6776e-15
-8.45753e-15
-8.17067e-15
-9.60998e-15
-1.62718e-14
-2.69734e-14
-3.90394e-14
-5.28285e-14
-6.12327e-14
-5.4908e-14
-5.02943e-14
-4.98424e-14
-4.88123e-14
-4.90528e-14
-4.26574e-14
-3.57529e-14
-3.90496e-14
-4.27204e-14
-5.38805e-14
-5.78761e-14
-4.62418e-14
-3.74924e-14
-3.89076e-14
-3.5316e-14
-3.7071e-14
-3.74049e-14
-4.28254e-14
-4.75397e-14
-4.78715e-14
-3.05758e-14
-3.32363e-14
-3.24061e-14
-3.60848e-14
-3.54748e-14
-2.864e-14
-2.28172e-14
-3.47068e-14
-3.05384e-14
-3.55623e-14
-3.53657e-14
-2.68431e-14
-3.05279e-14
-3.50711e-14
-3.22538e-14
-3.41739e-14
-3.43649e-14
-2.84162e-14
-3.20789e-14
-3.52937e-14
-4.26859e-14
-4.80959e-14
-4.88469e-14
-4.9828e-14
-4.86755e-14
-4.54765e-14
-4.40545e-14
-4.20432e-14
-4.05792e-14
-4.41648e-14
-4.92413e-14
-5.30467e-14
-4.81482e-14
-4.27433e-14
-4.22936e-14
-4.65278e-14
-4.15303e-14
-4.20727e-14
-4.22647e-14
-5.01268e-14
-5.38757e-14
-5.01733e-14
-4.75693e-14
-4.54994e-14
-3.98296e-14
-3.42327e-14
-3.36615e-14
-2.94852e-14
-2.90414e-14
-2.94815e-14
-2.91029e-14
-3.05178e-14
-2.74544e-14
-2.03583e-14
-1.33658e-14
-3.67411e-15
2.53342e-14
3.47094e-14
3.02836e-14
2.83655e-14
3.30664e-14
3.78709e-14
3.64118e-14
2.17901e-14
1.18286e-14
9.06569e-15
1.25539e-14
1.48145e-14
1.90063e-14
1.62749e-14
1.63613e-14
7.47025e-15
-2.97151e-15
-1.18946e-14
-1.34721e-14
-1.997e-14
-3.39089e-14
-4.46859e-14
-4.49258e-14
-5.00708e-14
-5.45548e-14
-5.43692e-14
-4.99676e-14
-4.18702e-14
-4.73787e-14
-3.9887e-14
-3.70376e-14
-3.92086e-14
-4.10893e-14
-4.95172e-14
-5.79096e-14
-5.3937e-14
-4.57424e-14
-3.91588e-14
-3.46169e-14
-3.89078e-14
-3.73028e-14
-4.01851e-14
-3.60334e-14
-3.86283e-14
-3.75501e-14
-3.34008e-14
-3.14755e-14
-3.75691e-14
-3.15512e-14
-3.08274e-14
-2.95396e-14
-3.00608e-14
-2.98412e-14
-3.42308e-14
-3.12278e-14
-2.58086e-14
-2.80509e-14
-2.91847e-14
-3.35839e-14
-3.89016e-14
-3.54386e-14
-2.7121e-14
-3.18129e-14
-3.49646e-14
-3.61948e-14
-4.5165e-14
-5.13506e-14
-5.22721e-14
-4.88718e-14
-4.39279e-14
-4.51504e-14
-3.69523e-14
-3.90564e-14
-4.36781e-14
-4.77353e-14
-5.1631e-14
-4.34296e-14
-3.57647e-14
-4.36759e-14
-4.79428e-14
-3.90957e-14
-4.35668e-14
-4.59373e-14
-4.58716e-14
-5.00789e-14
-4.6287e-14
-4.57834e-14
-4.72358e-14
-4.26437e-14
-3.74084e-14
-3.74654e-14
-2.71594e-14
-3.25818e-14
-2.95442e-14
-3.33539e-14
-3.13405e-14
-2.78297e-14
-2.03511e-14
-1.33547e-14
-2.68605e-15
3.28245e-14
3.31378e-14
3.36962e-14
2.89567e-14
3.31183e-14
2.63744e-14
2.55081e-14
2.50359e-14
2.50236e-14
2.36284e-14
1.98206e-14
1.62406e-14
1.1691e-14
1.13989e-14
1.29858e-14
1.02207e-14
8.48078e-15
-2.53285e-16
-1.56295e-14
-2.60253e-14
-3.89028e-14
-4.03042e-14
-4.14439e-14
-4.63289e-14
-5.47602e-14
-5.27342e-14
-5.13333e-14
-4.9918e-14
-4.23388e-14
-3.99582e-14
-4.39933e-14
-4.15017e-14
-4.69038e-14
-4.90822e-14
-5.2097e-14
-4.80678e-14
-3.93481e-14
-3.8342e-14
-3.33631e-14
-3.74245e-14
-4.32158e-14
-3.92989e-14
-3.35824e-14
-2.87833e-14
-3.15615e-14
-3.60181e-14
-4.3298e-14
-3.89151e-14
-2.65437e-14
-3.22933e-14
-3.50411e-14
-2.84342e-14
-3.19533e-14
-3.33759e-14
-3.61354e-14
-3.33678e-14
-2.96304e-14
-3.04746e-14
-3.26841e-14
-2.87071e-14
-2.64247e-14
-3.03436e-14
-3.79744e-14
-3.48884e-14
-3.95831e-14
-4.64618e-14
-4.67994e-14
-5.22355e-14
-4.8604e-14
-4.20245e-14
-4.61943e-14
-3.49503e-14
-4.00537e-14
-4.5847e-14
-4.52609e-14
-4.90164e-14
-4.25493e-14
-4.04606e-14
-3.88513e-14
-3.59169e-14
-3.46516e-14
-4.11505e-14
-4.27846e-14
-4.65493e-14
-4.54445e-14
-4.73237e-14
-5.05368e-14
-4.76952e-14
-4.78862e-14
-4.12325e-14
-3.73811e-14
-2.6113e-14
-2.98876e-14
-2.66055e-14
-2.95134e-14
-3.18675e-14
-2.64144e-14
-1.94975e-14
-1.0361e-14
-6.54555e-15
3.24015e-14
3.23422e-14
3.36941e-14
2.91548e-14
3.38601e-14
3.8346e-14
3.1911e-14
2.41758e-14
2.20669e-14
1.63509e-14
2.03589e-14
2.5703e-14
1.44666e-14
9.09613e-15
1.3632e-14
1.10615e-14
6.07647e-15
-6.43433e-15
-1.66406e-14
-2.73305e-14
-3.46055e-14
-4.04425e-14
-4.46481e-14
-4.70198e-14
-4.32723e-14
-5.31184e-14
-5.38208e-14
-4.95108e-14
-3.96076e-14
-3.43255e-14
-3.36152e-14
-4.13828e-14
-4.83921e-14
-5.04335e-14
-5.37921e-14
-4.92556e-14
-4.40922e-14
-4.04152e-14
-3.37275e-14
-3.68946e-14
-4.30419e-14
-3.89481e-14
-3.79766e-14
-2.95326e-14
-3.42753e-14
-3.76326e-14
-3.71925e-14
-3.63958e-14
-2.73707e-14
-3.23302e-14
-3.26955e-14
-3.32185e-14
-3.16107e-14
-3.28865e-14
-3.20064e-14
-3.0996e-14
-3.84144e-14
-3.78352e-14
-3.73152e-14
-3.12097e-14
-2.48442e-14
-2.3995e-14
-3.95131e-14
-4.17012e-14
-3.60764e-14
-4.12895e-14
-4.35378e-14
-4.76512e-14
-4.839e-14
-4.85764e-14
-4.41288e-14
-3.59726e-14
-3.43506e-14
-4.31572e-14
-4.31773e-14
-4.0566e-14
-3.64832e-14
-3.80604e-14
-3.90274e-14
-3.93405e-14
-3.79048e-14
-3.69778e-14
-4.06463e-14
-4.21677e-14
-4.74132e-14
-4.85596e-14
-5.32284e-14
-4.79699e-14
-4.6159e-14
-3.74268e-14
-3.42097e-14
-2.72841e-14
-3.07613e-14
-3.09767e-14
-2.95852e-14
-2.45803e-14
-1.89042e-14
-2.20792e-14
-1.0073e-14
-3.80232e-15
3.20108e-14
3.38143e-14
3.55436e-14
3.26008e-14
3.25803e-14
3.37405e-14
3.24573e-14
2.19153e-14
2.4617e-14
2.27814e-14
2.73388e-14
2.71827e-14
1.36998e-14
1.07027e-14
1.29547e-14
8.04913e-15
2.71754e-15
-5.16488e-15
-1.30913e-14
-2.3064e-14
-3.35924e-14
-3.47005e-14
-4.02292e-14
-4.63185e-14
-4.60149e-14
-5.31503e-14
-4.81998e-14
-4.23952e-14
-3.94562e-14
-4.52361e-14
-4.21434e-14
-4.45073e-14
-4.58939e-14
-5.10095e-14
-5.05148e-14
-4.19588e-14
-3.88601e-14
-3.83822e-14
-3.84927e-14
-4.00209e-14
-4.89852e-14
-4.14802e-14
-3.58023e-14
-3.39704e-14
-3.4902e-14
-3.23355e-14
-3.51147e-14
-3.56409e-14
-3.28299e-14
-3.24487e-14
-3.50392e-14
-3.39728e-14
-3.36317e-14
-3.50532e-14
-3.24465e-14
-3.24785e-14
-3.29546e-14
-3.10281e-14
-3.36793e-14
-3.5372e-14
-2.94078e-14
-2.86939e-14
-3.37108e-14
-3.7948e-14
-3.6958e-14
-3.48e-14
-4.50351e-14
-4.57427e-14
-4.24077e-14
-4.7499e-14
-4.50128e-14
-4.3652e-14
-3.13268e-14
-3.4356e-14
-3.94595e-14
-3.67936e-14
-3.91449e-14
-3.70126e-14
-4.02082e-14
-4.32997e-14
-3.33514e-14
-3.61863e-14
-3.83104e-14
-3.56908e-14
-3.80087e-14
-4.85884e-14
-5.67885e-14
-4.70146e-14
-4.49345e-14
-3.73094e-14
-3.3826e-14
-3.06627e-14
-2.93826e-14
-2.87589e-14
-2.66576e-14
-2.5757e-14
-1.89652e-14
-1.51797e-14
-1.18316e-14
-9.50283e-15
4.22546e-14
3.81826e-14
3.16998e-14
2.96617e-14
3.01318e-14
2.9441e-14
3.20351e-14
2.87383e-14
2.70014e-14
2.81898e-14
2.81512e-14
2.34447e-14
1.23069e-14
1.40854e-14
1.53618e-14
8.46237e-15
-3.90987e-15
-9.82443e-15
-1.07013e-14
-1.60235e-14
-3.03987e-14
-3.16247e-14
-3.96594e-14
-4.33138e-14
-4.13755e-14
-4.79627e-14
-4.98213e-14
-4.18425e-14
-4.40883e-14
-3.86598e-14
-4.00509e-14
-4.25967e-14
-5.02263e-14
-5.05438e-14
-5.11063e-14
-4.01668e-14
-3.74938e-14
-4.4678e-14
-4.21763e-14
-4.50098e-14
-4.78263e-14
-3.97693e-14
-3.58724e-14
-3.30954e-14
-3.08695e-14
-3.21593e-14
-3.83584e-14
-3.37615e-14
-3.15135e-14
-3.61971e-14
-3.22892e-14
-3.26223e-14
-3.42826e-14
-2.91654e-14
-3.77991e-14
-3.94929e-14
-3.84055e-14
-3.42921e-14
-3.69764e-14
-3.26856e-14
-3.09167e-14
-2.92154e-14
-2.79781e-14
-3.76358e-14
-3.679e-14
-3.9121e-14
-4.69104e-14
-4.34184e-14
-4.0157e-14
-4.49816e-14
-3.88698e-14
-4.41349e-14
-3.22367e-14
-2.98573e-14
-3.89571e-14
-4.00306e-14
-3.61626e-14
-3.5813e-14
-3.84893e-14
-3.30979e-14
-3.01601e-14
-3.803e-14
-3.1139e-14
-3.45072e-14
-3.61027e-14
-4.85324e-14
-5.6674e-14
-5.17949e-14
-4.16949e-14
-4.10599e-14
-3.59226e-14
-3.23396e-14
-2.01872e-14
-2.73149e-14
-2.98354e-14
-2.56972e-14
-2.40489e-14
-1.63985e-14
-6.10231e-15
-4.86737e-15
4.6968e-14
3.91357e-14
3.29048e-14
3.38561e-14
2.80134e-14
2.94727e-14
3.09132e-14
2.93892e-14
3.41352e-14
2.55947e-14
2.21542e-14
2.01512e-14
1.71891e-14
1.4848e-14
1.43483e-14
1.4226e-14
3.20757e-16
-1.54977e-14
-1.13329e-14
-1.64096e-14
-2.8867e-14
-3.58717e-14
-3.879e-14
-3.86398e-14
-4.18387e-14
-4.7636e-14
-4.74687e-14
-4.37167e-14
-4.3364e-14
-4.13165e-14
-3.97434e-14
-3.76313e-14
-4.69153e-14
-5.56074e-14
-5.40555e-14
-4.21657e-14
-3.56154e-14
-3.90095e-14
-4.47392e-14
-4.56046e-14
-4.46091e-14
-3.77365e-14
-3.51249e-14
-3.68188e-14
-3.35959e-14
-3.4466e-14
-3.80898e-14
-3.53844e-14
-3.49849e-14
-3.77831e-14
-3.51806e-14
-3.46253e-14
-3.57746e-14
-2.90738e-14
-3.04921e-14
-3.43718e-14
-3.68761e-14
-3.96667e-14
-3.53089e-14
-3.02766e-14
-3.02135e-14
-2.82662e-14
-3.21249e-14
-4.15072e-14
-3.2957e-14
-3.7231e-14
-4.3071e-14
-4.19798e-14
-3.84841e-14
-4.04879e-14
-3.89872e-14
-4.36106e-14
-3.94026e-14
-3.20938e-14
-3.65192e-14
-3.9059e-14
-3.40168e-14
-3.2374e-14
-3.42882e-14
-3.71769e-14
-3.57796e-14
-3.41142e-14
-2.72037e-14
-3.12586e-14
-4.25995e-14
-4.77926e-14
-5.04281e-14
-4.74985e-14
-4.22151e-14
-3.58228e-14
-3.30341e-14
-3.23051e-14
-2.89781e-14
-2.75137e-14
-3.07371e-14
-2.65847e-14
-2.29508e-14
-1.47747e-14
-7.02796e-15
-9.54909e-16
4.43228e-14
3.74296e-14
3.51126e-14
3.41072e-14
3.21494e-14
2.70289e-14
2.76531e-14
2.63317e-14
2.85832e-14
3.07752e-14
2.52416e-14
2.14031e-14
1.21001e-14
1.0975e-14
9.34521e-15
5.09291e-15
-4.78041e-15
-7.31467e-15
-8.81383e-15
-9.42191e-15
-2.52466e-14
-4.07838e-14
-4.20907e-14
-3.66694e-14
-3.07035e-14
-3.95463e-14
-4.73334e-14
-5.64265e-14
-4.99751e-14
-4.2063e-14
-4.26287e-14
-3.7409e-14
-3.72989e-14
-4.45504e-14
-4.88493e-14
-5.14704e-14
-4.74604e-14
-5.24556e-14
-4.1196e-14
-4.09888e-14
-3.97041e-14
-3.87432e-14
-3.16616e-14
-3.71237e-14
-3.42705e-14
-3.44931e-14
-3.80369e-14
-3.54822e-14
-3.48003e-14
-3.85178e-14
-3.72158e-14
-3.82442e-14
-3.57015e-14
-3.37675e-14
-3.34222e-14
-3.67775e-14
-4.33524e-14
-3.53356e-14
-2.77671e-14
-2.43312e-14
-2.04989e-14
-3.66481e-14
-3.6886e-14
-3.47494e-14
-3.49947e-14
-3.57857e-14
-3.91857e-14
-3.6811e-14
-4.23928e-14
-4.50482e-14
-4.20294e-14
-3.54393e-14
-3.30646e-14
-2.87079e-14
-4.03831e-14
-3.92234e-14
-3.32869e-14
-3.01599e-14
-3.24966e-14
-3.1526e-14
-2.955e-14
-3.06435e-14
-3.29814e-14
-3.78964e-14
-4.12425e-14
-4.30488e-14
-4.75737e-14
-4.19943e-14
-4.53179e-14
-4.03235e-14
-3.75345e-14
-2.84933e-14
-3.18412e-14
-3.11e-14
-2.52044e-14
-1.98125e-14
-2.61708e-14
-2.21448e-14
-1.48471e-14
-2.51457e-15
4.15517e-14
3.96014e-14
3.88472e-14
3.57765e-14
3.32505e-14
2.46608e-14
2.64043e-14
2.64954e-14
2.61836e-14
2.93462e-14
1.70255e-14
1.44838e-14
1.30377e-14
1.24018e-14
9.55361e-15
4.28346e-15
1.47803e-15
4.25571e-15
-7.74492e-15
-1.51371e-14
-2.89796e-14
-3.9321e-14
-3.98134e-14
-4.10364e-14
-4.21984e-14
-4.2271e-14
-4.42727e-14
-4.57204e-14
-4.41651e-14
-4.12813e-14
-3.28858e-14
-3.89953e-14
-4.92669e-14
-5.28189e-14
-5.03594e-14
-4.46881e-14
-4.40805e-14
-4.97382e-14
-4.51751e-14
-4.11072e-14
-3.7415e-14
-3.82734e-14
-4.15121e-14
-3.9757e-14
-3.22082e-14
-3.35187e-14
-3.73408e-14
-4.67985e-14
-3.30157e-14
-3.09407e-14
-3.83327e-14
-3.88218e-14
-3.68563e-14
-3.21905e-14
-3.08463e-14
-4.36688e-14
-4.82114e-14
-3.44846e-14
-2.04441e-14
-2.25702e-14
-2.63867e-14
-2.99526e-14
-3.16867e-14
-3.47504e-14
-3.58018e-14
-4.09095e-14
-4.48212e-14
-3.80377e-14
-3.67262e-14
-3.94829e-14
-3.80322e-14
-3.82198e-14
-4.17218e-14
-3.58656e-14
-3.57454e-14
-3.32075e-14
-3.38138e-14
-3.09884e-14
-2.65526e-14
-2.81304e-14
-3.02702e-14
-2.97485e-14
-3.1173e-14
-3.42184e-14
-4.04167e-14
-4.38793e-14
-4.26613e-14
-4.35184e-14