/*--------------------------------*- C++ -*----------------------------------*\
| =========                 |                                                 |
| \\      /  F ield         | OpenFOAM: The Open Source CFD Toolbox           |
|  \\    /   O peration     | Version:  v2012                                 |
|   \\  /    A nd           | Website:  www.openfoam.com                      |
|    \\/     M anipulation  |                                                 |
\*---------------------------------------------------------------------------*/
FoamFile
{
    version     2.0;
    format      ascii;
    class       surfaceScalarField;
    location    "13";
    object      phi;
}
// * * * * * * * * * * * * * * * * * * * * * * * * * * * * * * * * * * * * * //

dimensions      [0 3 -1 0 0 0 0];
oriented        oriented;


internalField   nonuniform List<scalar> 
130560
(
3.53303e-06
-3.53303e-06
7.06626e-06
-3.53323e-06
1.05999e-05
-3.53362e-06
1.41341e-05
-3.53422e-06
1.76691e-05
-3.535e-06
2.12051e-05
-3.53598e-06
2.47422e-05
-3.53714e-06
2.82807e-05
-3.5385e-06
3.18207e-05
-3.54003e-06
3.53625e-05
-3.54173e-06
3.89061e-05
-3.54361e-06
4.24517e-05
-3.54565e-06
4.59996e-05
-3.54784e-06
4.95498e-05
-3.55019e-06
5.31024e-05
-3.55267e-06
5.66577e-05
-3.55529e-06
6.02157e-05
-3.55802e-06
6.37766e-05
-3.56087e-06
6.73404e-05
-3.56381e-06
7.09073e-05
-3.56684e-06
7.44772e-05
-3.56995e-06
7.80503e-05
-3.57312e-06
8.16267e-05
-3.57634e-06
8.52063e-05
-3.57959e-06
8.87891e-05
-3.58285e-06
9.23752e-05
-3.58611e-06
9.59646e-05
-3.58936e-06
9.95572e-05
-3.59257e-06
0.000103153
-3.59573e-06
0.000106752
-3.59882e-06
0.000110354
-3.60181e-06
0.000113958
-3.60468e-06
0.000117566
-3.60742e-06
0.000121176
-3.61e-06
0.000124788
-3.61239e-06
0.000128403
-3.61457e-06
0.000132019
-3.61652e-06
0.000135637
-3.61821e-06
0.000139257
-3.61961e-06
0.000142878
-3.6207e-06
0.000146499
-3.62144e-06
0.000150121
-3.6218e-06
0.000153743
-3.62177e-06
0.000157364
-3.6213e-06
0.000160984
-3.62036e-06
0.000164603
-3.61892e-06
0.00016822
-3.61695e-06
0.000171835
-3.61442e-06
0.000175446
-3.61128e-06
0.000179053
-3.60751e-06
0.000182656
-3.60307e-06
0.000186254
-3.59792e-06
0.000189846
-3.59203e-06
0.000193432
-3.58536e-06
0.00019701
-3.57787e-06
0.000200579
-3.56953e-06
0.000204139
-3.56029e-06
0.00020769
-3.55012e-06
0.000211229
-3.53898e-06
0.000214755
-3.52684e-06
0.000218269
-3.51365e-06
0.000221768
-3.49938e-06
0.000225252
-3.48399e-06
0.00022872
-3.46744e-06
0.00023217
-3.4497e-06
0.0002356
-3.43073e-06
0.000239011
-3.4105e-06
0.0002424
-3.38896e-06
0.000245766
-3.36609e-06
0.000249108
-3.34186e-06
0.000252424
-3.31623e-06
0.000255713
-3.28916e-06
0.000258974
-3.26064e-06
0.000262204
-3.23064e-06
0.000265404
-3.19912e-06
0.00026857
-3.16607e-06
0.000271701
-3.13146e-06
0.000274796
-3.09527e-06
0.000277854
-3.05748e-06
0.000280872
-3.01808e-06
0.000283849
-2.97705e-06
0.000286783
-2.93438e-06
0.000289673
-2.89006e-06
0.000292517
-2.84409e-06
0.000295314
-2.79645e-06
0.000298061
-2.74716e-06
0.000300757
-2.6962e-06
0.000303401
-2.64359e-06
0.00030599
-2.58934e-06
0.000308524
-2.53345e-06
0.000311
-2.47593e-06
0.000313416
-2.41681e-06
0.000315772
-2.35611e-06
0.000318066
-2.29384e-06
0.000320296
-2.23004e-06
0.000322461
-2.16473e-06
0.000324559
-2.09795e-06
0.000326589
-2.02973e-06
0.000328549
-1.96012e-06
0.000330438
-1.88914e-06
0.000332255
-1.81686e-06
0.000333998
-1.74332e-06
0.000335667
-1.66856e-06
0.000337259
-1.59265e-06
0.000338775
-1.51563e-06
0.000340213
-1.43757e-06
0.000341571
-1.35853e-06
0.00034285
-1.27857e-06
0.000344048
-1.19776e-06
0.000345164
-1.11616e-06
0.000346198
-1.03385e-06
0.000347148
-9.50889e-07
0.000348016
-8.67354e-07
0.000348799
-7.83318e-07
0.000349498
-6.98856e-07
0.000350112
-6.14042e-07
0.000350641
-5.28951e-07
0.000351085
-4.43661e-07
0.000351443
-3.58246e-07
0.000351716
-2.72784e-07
0.000351903
-1.8735e-07
0.000352005
-1.02021e-07
0.000352022
-1.68706e-08
0.000351954
6.80264e-08
0.000351801
1.52597e-07
0.000351564
2.36768e-07
0.000351244
3.20469e-07
0.00035084
4.03631e-07
0.000350354
4.86186e-07
0.000349786
5.68068e-07
0.000349137
6.49213e-07
0.000348407
7.2956e-07
0.000347598
8.09047e-07
0.000346711
8.87618e-07
0.000345745
9.65218e-07
0.000344704
1.04179e-06
0.000343586
1.1173e-06
0.000342395
1.19168e-06
0.00034113
1.26489e-06
0.000339793
1.3369e-06
0.000338385
1.40766e-06
0.000336908
1.47714e-06
0.000335363
1.5453e-06
0.000333751
1.61211e-06
0.000332073
1.67755e-06
0.000330332
1.74159e-06
0.000328527
1.8042e-06
0.000326662
1.86538e-06
0.000324737
1.92509e-06
0.000322754
1.98333e-06
0.000320713
2.04009e-06
0.000318618
2.09535e-06
0.000316469
2.14912e-06
0.000314268
2.20138e-06
0.000312015
2.25213e-06
0.000309714
2.30138e-06
0.000307365
2.34913e-06
0.00030497
2.39538e-06
0.000302529
2.44014e-06
0.000300046
2.48342e-06
0.000297521
2.52523e-06
0.000294955
2.56558e-06
0.000292351
2.60449e-06
0.000289709
2.64197e-06
0.000287031
2.67804e-06
0.000284318
2.71271e-06
0.000281572
2.74602e-06
0.000278794
2.77797e-06
0.000275985
2.80859e-06
0.000273148
2.83791e-06
0.000270282
2.86594e-06
0.000267389
2.89272e-06
0.000264471
2.91827e-06
0.000261528
2.94261e-06
0.000258562
2.96577e-06
0.000255574
2.98778e-06
0.000252566
3.00866e-06
0.000249537
3.02845e-06
0.00024649
3.04718e-06
0.000243425
3.06486e-06
0.000240344
3.08154e-06
0.000237247
3.09723e-06
0.000234135
3.11198e-06
0.000231009
3.1258e-06
0.00022787
3.13873e-06
0.000224719
3.15079e-06
0.000221557
3.16202e-06
0.000218385
3.17245e-06
0.000215203
3.1821e-06
0.000212012
3.19099e-06
0.000208813
3.19917e-06
0.000205606
3.20665e-06
0.000202392
3.21347e-06
0.000199173
3.21964e-06
0.000195948
3.2252e-06
0.000192717
3.23018e-06
0.000189483
3.2346e-06
0.000186244
3.23848e-06
0.000183002
3.24185e-06
0.000179758
3.24473e-06
0.000176511
3.24716e-06
0.000173261
3.24914e-06
0.000170011
3.25071e-06
0.000166759
3.25189e-06
0.000163506
3.2527e-06
0.000160253
3.25316e-06
0.000157
3.25328e-06
0.000153747
3.25311e-06
0.000150494
3.25264e-06
0.000147242
3.25191e-06
0.000143991
3.25092e-06
0.000140741
3.24971e-06
0.000137493
3.24828e-06
0.000134246
3.24666e-06
0.000131002
3.24486e-06
0.000127759
3.2429e-06
0.000124518
3.24079e-06
0.000121279
3.23855e-06
0.000118043
3.23619e-06
0.000114809
3.23373e-06
0.000111578
3.23118e-06
0.00010835
3.22856e-06
0.000105124
3.22588e-06
0.000101901
3.22315e-06
9.86803e-05
3.22038e-06
9.54627e-05
3.21759e-06
9.22479e-05
3.21478e-06
8.90359e-05
3.21197e-06
8.58268e-05
3.20916e-06
8.26204e-05
3.20638e-06
7.94168e-05
3.20361e-06
7.62159e-05
3.20089e-06
7.30177e-05
3.19821e-06
6.98221e-05
3.19558e-06
6.66291e-05
3.19301e-06
6.34386e-05
3.1905e-06
6.02505e-05
3.18807e-06
5.70648e-05
3.18573e-06
5.38813e-05
3.18347e-06
5.07e-05
3.1813e-06
4.75208e-05
3.17923e-06
4.43435e-05
3.17727e-06
4.11681e-05
3.17541e-06
3.79944e-05
3.17367e-06
3.48224e-05
3.17205e-06
3.16518e-05
3.17055e-06
2.84827e-05
3.16917e-06
2.53147e-05
3.16793e-06
2.21479e-05
3.16681e-06
1.89821e-05
3.16583e-06
1.58171e-05
3.16498e-06
1.26528e-05
3.16428e-06
9.48914e-06
3.16371e-06
6.32585e-06
3.16328e-06
3.16286e-06
3.163e-06
3.16286e-06
3.53284e-06
-7.06586e-06
7.06587e-06
-7.06626e-06
1.05993e-05
-7.06705e-06
1.41333e-05
-7.06824e-06
1.76681e-05
-7.06981e-06
2.12039e-05
-7.07177e-06
2.47409e-05
-7.07411e-06
2.82792e-05
-7.07681e-06
3.18191e-05
-7.07988e-06
3.53606e-05
-7.0833e-06
3.89041e-05
-7.08706e-06
4.24496e-05
-7.09114e-06
4.59973e-05
-7.09554e-06
4.95473e-05
-7.10024e-06
5.30999e-05
-7.10521e-06
5.6655e-05
-7.11045e-06
6.02129e-05
-7.11593e-06
6.37737e-05
-7.12164e-06
6.73374e-05
-7.12754e-06
7.09042e-05
-7.13362e-06
7.44741e-05
-7.13985e-06
7.80472e-05
-7.1462e-06
8.16235e-05
-7.15264e-06
8.52031e-05
-7.15916e-06
8.87859e-05
-7.1657e-06
9.2372e-05
-7.17225e-06
9.59614e-05
-7.17876e-06
9.95541e-05
-7.18521e-06
0.00010315
-7.19154e-06
0.000106749
-7.19773e-06
0.000110351
-7.20373e-06
0.000113956
-7.20951e-06
0.000117563
-7.215e-06
0.000121173
-7.22018e-06
0.000124786
-7.22499e-06
0.000128401
-7.22938e-06
0.000132018
-7.23331e-06
0.000135636
-7.23671e-06
0.000139256
-7.23954e-06
0.000142877
-7.24174e-06
0.000146499
-7.24325e-06
0.000150121
-7.24402e-06
0.000153743
-7.24397e-06
0.000157365
-7.24306e-06
0.000160986
-7.24122e-06
0.000164605
-7.23838e-06
0.000168223
-7.23447e-06
0.000171838
-7.22944e-06
0.00017545
-7.2232e-06
0.000179058
-7.2157e-06
0.000182662
-7.20685e-06
0.00018626
-7.19659e-06
0.000189853
-7.18485e-06
0.000193439
-7.17154e-06
0.000197018
-7.1566e-06
0.000200589
-7.13995e-06
0.00020415
-7.12151e-06
0.000207701
-7.10121e-06
0.000211241
-7.07897e-06
0.000214769
-7.05472e-06
0.000218283
-7.02839e-06
0.000221784
-6.99988e-06
0.000225269
-6.96914e-06
0.000228738
-6.93608e-06
0.000232189
-6.90064e-06
0.000235621
-6.86273e-06
0.000239032
-6.82229e-06
0.000242423
-6.77926e-06
0.00024579
-6.73355e-06
0.000249133
-6.68511e-06
0.000252451
-6.63388e-06
0.000255742
-6.57978e-06
0.000259004
-6.52277e-06
0.000262236
-6.46279e-06
0.000265437
-6.39978e-06
0.000268604
-6.3337e-06
0.000271737
-6.2645e-06
0.000274834
-6.19213e-06
0.000277893
-6.11657e-06
0.000280913
-6.03779e-06
0.000283892
-5.95574e-06
0.000286828
-5.87041e-06
0.000289719
-5.78178e-06
0.000292565
-5.68983e-06
0.000295363
-5.59456e-06
0.000298112
-5.49597e-06
0.00030081
-5.39406e-06
0.000303455
-5.28883e-06
0.000306046
-5.18031e-06
0.000308581
-5.06851e-06
0.000311059
-4.95347e-06
0.000313477
-4.83521e-06
0.000315835
-4.71377e-06
0.00031813
-4.58921e-06
0.000320362
-4.46158e-06
0.000322528
-4.33093e-06
0.000324627
-4.19733e-06
0.000326658
-4.06086e-06
0.00032862
-3.92158e-06
0.00033051
-3.77959e-06
0.000332328
-3.63498e-06
0.000334073
-3.48784e-06
0.000335743
-3.33828e-06
0.000337336
-3.18639e-06
0.000338853
-3.0323e-06
0.000340292
-2.87612e-06
0.000341651
-2.71798e-06
0.000342931
-2.558e-06
0.000344129
-2.39631e-06
0.000345246
-2.23304e-06
0.00034628
-2.06834e-06
0.000347232
-1.90235e-06
0.0003481
-1.73521e-06
0.000348883
-1.56706e-06
0.000349583
-1.39806e-06
0.000350197
-1.22836e-06
0.000350726
-1.0581e-06
0.00035117
-8.87441e-07
0.000351528
-7.16536e-07
0.000351801
-5.45536e-07
0.000351988
-3.74593e-07
0.00035209
-2.03859e-07
0.000352107
-3.34838e-08
0.000352038
1.36383e-07
0.000351885
3.05596e-07
0.000351648
4.74009e-07
0.000351327
6.41481e-07
0.000350923
8.07873e-07
0.000350436
9.73049e-07
0.000349867
1.13688e-06
0.000349217
1.29923e-06
0.000348487
1.45998e-06
0.000347677
1.61901e-06
0.000346788
1.77621e-06
0.000345822
1.93146e-06
0.000344779
2.08467e-06
0.000343661
2.23572e-06
0.000342468
2.38453e-06
0.000341202
2.531e-06
0.000339864
2.67505e-06
0.000338455
2.81661e-06
0.000336976
2.9556e-06
0.000335429
3.09195e-06
0.000333816
3.2256e-06
0.000332137
3.35651e-06
0.000330394
3.4846e-06
0.000328588
3.60985e-06
0.000326722
3.73221e-06
0.000324795
3.85166e-06
0.00032281
3.96815e-06
0.000320769
4.08167e-06
0.000318672
4.19221e-06
0.000316521
4.29974e-06
0.000314318
4.40426e-06
0.000312065
4.50577e-06
0.000309762
4.60426e-06
0.000307411
4.69975e-06
0.000305014
4.79225e-06
0.000302573
4.88176e-06
0.000300088
4.96831e-06
0.000297561
5.05191e-06
0.000294994
5.1326e-06
0.000292388
5.2104e-06
0.000289745
5.28535e-06
0.000287065
5.35746e-06
0.000284351
5.4268e-06
0.000281604
5.49339e-06
0.000278824
5.55727e-06
0.000276015
5.61849e-06
0.000273175
5.6771e-06
0.000270308
5.73315e-06
0.000267414
5.78667e-06
0.000264495
5.83774e-06
0.000261551
5.88639e-06
0.000258584
5.93268e-06
0.000255595
5.97667e-06
0.000252585
6.01842e-06
0.000249556
6.05797e-06
0.000246508
6.09539e-06
0.000243442
6.13073e-06
0.000240359
6.16405e-06
0.000237261
6.19541e-06
0.000234148
6.22487e-06
0.000231022
6.25249e-06
0.000227882
6.27832e-06
0.00022473
6.30242e-06
0.000221567
6.32485e-06
0.000218394
6.34567e-06
0.000215211
6.36494e-06
0.00021202
6.3827e-06
0.00020882
6.39903e-06
0.000205613
6.41396e-06
0.000202398
6.42757e-06
0.000199178
6.43989e-06
0.000195952
6.45099e-06
0.000192722
6.46092e-06
0.000189487
6.46973e-06
0.000186248
6.47747e-06
0.000183005
6.48418e-06
0.00017976
6.48993e-06
0.000176512
6.49475e-06
0.000173263
6.4987e-06
0.000170012
6.50182e-06
0.000166759
6.50415e-06
0.000163506
6.50574e-06
0.000160253
6.50664e-06
0.000156999
6.50687e-06
0.000153746
6.5065e-06
0.000150493
6.50555e-06
0.000147241
6.50406e-06
0.00014399
6.50208e-06
0.00014074
6.49963e-06
0.000137491
6.49676e-06
0.000134245
6.4935e-06
0.000131
6.48988e-06
0.000127756
6.48594e-06
0.000124516
6.4817e-06
0.000121277
6.47721e-06
0.000118041
6.47248e-06
0.000114807
6.46755e-06
0.000111576
6.46244e-06
0.000108347
6.45719e-06
0.000105121
6.45181e-06
0.000101898
6.44633e-06
9.86774e-05
6.44079e-06
9.54598e-05
6.43519e-06
9.2245e-05
6.42956e-06
8.90331e-05
6.42393e-06
8.58239e-05
6.41831e-06
8.26176e-05
6.41272e-06
7.9414e-05
6.40719e-06
7.62132e-05
6.40173e-06
7.3015e-05
6.39636e-06
6.98195e-05
6.39109e-06
6.66266e-05
6.38594e-06
6.34361e-05
6.38093e-06
6.02481e-05
6.37606e-06
5.70625e-05
6.37136e-06
5.38791e-05
6.36684e-06
5.06979e-05
6.3625e-06
4.75188e-05
6.35836e-06
4.43417e-05
6.35442e-06
4.11664e-05
6.35071e-06
3.79928e-05
6.34723e-06
3.48209e-05
6.34398e-06
3.16505e-05
6.34097e-06
2.84814e-05
6.33822e-06
2.53136e-05
6.33572e-06
2.21469e-05
6.33349e-06
1.89812e-05
6.33152e-06
1.58164e-05
6.32983e-06
1.26523e-05
6.32841e-06
9.48871e-06
6.32727e-06
6.32557e-06
6.32642e-06
3.16271e-06
6.32585e-06
6.32557e-06
3.53244e-06
-1.05983e-05
7.06507e-06
-1.05989e-05
1.05981e-05
-1.06001e-05
1.41317e-05
-1.06019e-05
1.76662e-05
-1.06042e-05
2.12016e-05
-1.06072e-05
2.47382e-05
-1.06107e-05
2.82761e-05
-1.06148e-05
3.18156e-05
-1.06194e-05
3.53569e-05
-1.06245e-05
3.89e-05
-1.06302e-05
4.24452e-05
-1.06363e-05
4.59926e-05
-1.06429e-05
4.95423e-05
-1.065e-05
5.30946e-05
-1.06575e-05
5.66495e-05
-1.06654e-05
6.02072e-05
-1.06736e-05
6.37678e-05
-1.06822e-05
6.73313e-05
-1.06911e-05
7.0898e-05
-1.07002e-05
7.44677e-05
-1.07096e-05
7.80407e-05
-1.07192e-05
8.1617e-05
-1.07289e-05
8.51965e-05
-1.07387e-05
8.87793e-05
-1.07486e-05
9.23655e-05
-1.07584e-05
9.5955e-05
-1.07682e-05
9.95477e-05
-1.07779e-05
0.000103144
-1.07875e-05
0.000106743
-1.07968e-05
0.000110345
-1.08059e-05
0.00011395
-1.08146e-05
0.000117558
-1.08229e-05
0.000121168
-1.08307e-05
0.000124781
-1.0838e-05
0.000128397
-1.08447e-05
0.000132014
-1.08506e-05
0.000135633
-1.08558e-05
0.000139254
-1.08601e-05
0.000142875
-1.08635e-05
0.000146498
-1.08658e-05
0.000150121
-1.0867e-05
0.000153744
-1.0867e-05
0.000157367
-1.08658e-05
0.000160989
-1.08631e-05
0.000164609
-1.08589e-05
0.000168228
-1.08531e-05
0.000171844
-1.08457e-05
0.000175457
-1.08364e-05
0.000179067
-1.08252e-05
0.000182672
-1.0812e-05
0.000186272
-1.07967e-05
0.000189866
-1.07792e-05
0.000193454
-1.07594e-05
0.000197035
-1.0737e-05
0.000200607
-1.07122e-05
0.00020417
-1.06846e-05
0.000207723
-1.06542e-05
0.000211265
-1.0621e-05
0.000214795
-1.05847e-05
0.000218312
-1.05453e-05
0.000221815
-1.05026e-05
0.000225302
-1.04566e-05
0.000228773
-1.04071e-05
0.000232227
-1.0354e-05
0.000235661
-1.02973e-05
0.000239075
-1.02367e-05
0.000242468
-1.01722e-05
0.000245839
-1.01037e-05
0.000249185
-1.00312e-05
0.000252505
-9.95439e-06
0.000255799
-9.87332e-06
0.000259064
-9.78787e-06
0.000262299
-9.69796e-06
0.000265503
-9.60351e-06
0.000268673
-9.50444e-06
0.00027181
-9.40069e-06
0.00027491
-9.2922e-06
0.000277972
-9.1789e-06
0.000280995
-9.06075e-06
0.000283977
-8.93771e-06
0.000286916
-8.80974e-06
0.000289811
-8.67681e-06
0.00029266
-8.5389e-06
0.000295462
-8.396e-06
0.000298214
-8.24811e-06
0.000300915
-8.09522e-06
0.000303564
-7.93737e-06
0.000306158
-7.77456e-06
0.000308696
-7.60683e-06
0.000311177
-7.43422e-06
0.000313599
-7.25678e-06
0.000315959
-7.07457e-06
0.000318258
-6.88766e-06
0.000320492
-6.69614e-06
0.000322662
-6.50008e-06
0.000324764
-6.29959e-06
0.000326798
-6.09478e-06
0.000328762
-5.88577e-06
0.000330655
-5.67267e-06
0.000332476
-5.45563e-06
0.000334223
-5.23479e-06
0.000335895
-5.01031e-06
0.000337491
-4.78234e-06
0.000339009
-4.55106e-06
0.00034045
-4.31664e-06
0.000341811
-4.07927e-06
0.000343092
-3.83913e-06
0.000344292
-3.59642e-06
0.000345411
-3.35135e-06
0.000346446
-3.10413e-06
0.000347399
-2.85496e-06
0.000348268
-2.60406e-06
0.000349053
-2.35166e-06
0.000349752
-2.09797e-06
0.000350367
-1.84322e-06
0.000350897
-1.58765e-06
0.000351341
-1.33147e-06
0.000351699
-1.07492e-06
0.000351972
-8.18231e-07
0.000352159
-5.61627e-07
0.00035226
-3.05338e-07
0.000352277
-4.95899e-08
0.000352208
2.05394e-07
0.000352054
4.59394e-07
0.000351816
7.12191e-07
0.000351494
9.63572e-07
0.000351088
1.21333e-06
0.0003506
1.46126e-06
0.00035003
1.70716e-06
0.000349378
1.95084e-06
0.000348646
2.19212e-06
0.000347834
2.43081e-06
0.000346943
2.66675e-06
0.000345975
2.89976e-06
0.00034493
3.12969e-06
0.000343809
3.35638e-06
0.000342614
3.57971e-06
0.000341346
3.79952e-06
0.000340005
4.0157e-06
0.000338594
4.22813e-06
0.000337113
4.43669e-06
0.000335563
4.6413e-06
0.000333947
4.84185e-06
0.000332265
5.03826e-06
0.000330519
5.23046e-06
0.000328711
5.41839e-06
0.000326841
5.60197e-06
0.000324911
5.78117e-06
0.000322924
5.95594e-06
0.000320879
6.12625e-06
0.000318779
6.29206e-06
0.000316626
6.45337e-06
0.00031442
6.61015e-06
0.000312163
6.76241e-06
0.000309857
6.91015e-06
0.000307504
7.05337e-06
0.000305104
7.1921e-06
0.000302659
7.32634e-06
0.000300171
7.45614e-06
0.000297642
7.58152e-06
0.000295072
7.70252e-06
0.000292463
7.81918e-06
0.000289817
7.93155e-06
0.000287135
8.03968e-06
0.000284418
8.14363e-06
0.000281668
8.24346e-06
0.000278886
8.33923e-06
0.000276073
8.431e-06
0.000273231
8.51886e-06
0.000270362
8.60286e-06
0.000267465
8.68309e-06
0.000264543
8.75962e-06
0.000261597
8.83253e-06
0.000258628
8.9019e-06
0.000255637
8.96782e-06
0.000252625
9.03036e-06
0.000249593
9.08962e-06
0.000246543
9.14568e-06
0.000243475
9.19862e-06
0.000240391
9.24853e-06
0.000237291
9.2955e-06
0.000234176
9.33961e-06
0.000231047
9.38096e-06
0.000227906
9.41964e-06
0.000224753
9.45572e-06
0.000221588
9.4893e-06
0.000218414
9.52045e-06
0.000215229
9.54928e-06
0.000212036
9.57586e-06
0.000208835
9.60027e-06
0.000205626
9.62261e-06
0.000202411
9.64295e-06
0.000199189
9.66137e-06
0.000195962
9.67796e-06
0.000192731
9.69278e-06
0.000189494
9.70593e-06
0.000186254
9.71747e-06
0.000183011
9.72749e-06
0.000179765
9.73605e-06
0.000176516
9.74322e-06
0.000173266
9.74909e-06
0.000170014
9.75371e-06
0.000166761
9.75715e-06
0.000163507
9.75948e-06
0.000160253
9.76077e-06
0.000156999
9.76108e-06
0.000153745
9.76047e-06
0.000150492
9.75899e-06
0.000147239
9.75671e-06
0.000143987
9.75369e-06
0.000140737
9.74998e-06
0.000137488
9.74563e-06
0.000134241
9.74069e-06
0.000130996
9.73523e-06
0.000127752
9.72927e-06
0.000124511
9.72288e-06
0.000121272
9.7161e-06
0.000118036
9.70897e-06
0.000114802
9.70154e-06
0.00011157
9.69385e-06
0.000108342
9.68593e-06
0.000105116
9.67783e-06
0.000101892
9.66959e-06
9.86718e-05
9.66124e-06
9.54542e-05
9.65281e-06
9.22394e-05
9.64435e-06
8.90275e-05
9.63587e-06
8.58184e-05
9.62742e-06
8.26121e-05
9.61902e-06
7.94085e-05
9.6107e-06
7.62078e-05
9.60249e-06
7.30097e-05
9.59441e-06
6.98144e-05
9.58648e-06
6.66216e-05
9.57874e-06
6.34313e-05
9.5712e-06
6.02434e-05
9.56389e-06
5.7058e-05
9.55682e-06
5.38748e-05
9.55002e-06
5.06938e-05
9.5435e-06
4.75149e-05
9.53727e-06
4.43379e-05
9.53136e-06
4.11629e-05
9.52578e-06
3.79896e-05
9.52054e-06
3.48179e-05
9.51566e-06
3.16477e-05
9.51114e-06
2.84789e-05
9.507e-06
2.53114e-05
9.50325e-06
2.2145e-05
9.49989e-06
1.89796e-05
9.49694e-06
1.5815e-05
9.4944e-06
1.26511e-05
9.49227e-06
9.48785e-06
9.49056e-06
6.325e-06
9.48928e-06
3.16243e-06
9.48842e-06
9.488e-06
3.53184e-06
-1.41301e-05
7.06388e-06
-1.41309e-05
1.05963e-05
-1.41325e-05
1.41294e-05
-1.41349e-05
1.76632e-05
-1.41381e-05
2.11981e-05
-1.4142e-05
2.47341e-05
-1.41467e-05
2.82715e-05
-1.41522e-05
3.18105e-05
-1.41584e-05
3.53512e-05
-1.41652e-05
3.88938e-05
-1.41728e-05
4.24385e-05
-1.4181e-05
4.59855e-05
-1.41899e-05
4.95348e-05
-1.41994e-05
5.30867e-05
-1.42094e-05
5.66413e-05
-1.42199e-05
6.01986e-05
-1.4231e-05
6.37589e-05
-1.42425e-05
6.73222e-05
-1.42544e-05
7.08886e-05
-1.42666e-05
7.44581e-05
-1.42792e-05
7.8031e-05
-1.4292e-05
8.16071e-05
-1.4305e-05
8.51866e-05
-1.43182e-05
8.87695e-05
-1.43314e-05
9.23557e-05
-1.43446e-05
9.59452e-05
-1.43578e-05
9.95381e-05
-1.43708e-05
0.000103134
-1.43837e-05
0.000106734
-1.43962e-05
0.000110336
-1.44084e-05
0.000113942
-1.44201e-05
0.00011755
-1.44313e-05
0.000121161
-1.44418e-05
0.000124775
-1.44516e-05
0.000128391
-1.44606e-05
0.000132009
-1.44687e-05
0.000135629
-1.44757e-05
0.00013925
-1.44816e-05
0.000142873
-1.44862e-05
0.000146497
-1.44895e-05
0.000150121
-1.44913e-05
0.000153745
-1.44914e-05
0.000157369
-1.44899e-05
0.000160993
-1.44864e-05
0.000164615
-1.4481e-05
0.000168235
-1.44735e-05
0.000171853
-1.44637e-05
0.000175468
-1.44515e-05
0.00017908
-1.44368e-05
0.000182687
-1.44194e-05
0.00018629
-1.43991e-05
0.000189886
-1.43759e-05
0.000193477
-1.43496e-05
0.00019706
-1.432e-05
0.000200634
-1.4287e-05
0.0002042
-1.42505e-05
0.000207756
-1.42102e-05
0.000211301
-1.4166e-05
0.000214834
-1.41178e-05
0.000218355
-1.40654e-05
0.000221861
-1.40087e-05
0.000225352
-1.39475e-05
0.000228826
-1.38817e-05
0.000232283
-1.38111e-05
0.000235722
-1.37356e-05
0.00023914
-1.3655e-05
0.000242537
-1.35692e-05
0.000245911
-1.3478e-05
0.000249261
-1.33814e-05
0.000252586
-1.32792e-05
0.000255884
-1.31712e-05
0.000259154
-1.30574e-05
0.000262393
-1.29377e-05
0.000265602
-1.28119e-05
0.000268777
-1.26799e-05
0.000271918
-1.25416e-05
0.000275023
-1.23971e-05
0.00027809
-1.22461e-05
0.000281118
-1.20886e-05
0.000284105
-1.19246e-05
0.000287049
-1.1754e-05
0.000289949
-1.15768e-05
0.000292803
-1.1393e-05
0.00029561
-1.12024e-05
0.000298367
-1.10052e-05
0.000301073
-1.08014e-05
0.000303727
-1.05909e-05
0.000306326
-1.03737e-05
0.000308869
-1.015e-05
0.000311354
-9.9198e-06
0.000313781
-9.68312e-06
0.000316146
-9.44006e-06
0.000318449
-9.19073e-06
0.000320688
-8.93523e-06
0.000322862
-8.67366e-06
0.000324969
-8.40618e-06
0.000327007
-8.13291e-06
0.000328975
-7.85403e-06
0.000330872
-7.56969e-06
0.000332696
-7.28008e-06
0.000334447
-6.98539e-06
0.000336123
-6.68583e-06
0.000337722
-6.38161e-06
0.000339244
-6.07296e-06
0.000340687
-5.76012e-06
0.000342051
-5.44332e-06
0.000343335
-5.12283e-06
0.000344537
-4.79891e-06
0.000345658
-4.47182e-06
0.000346696
-4.14186e-06
0.00034765
-3.8093e-06
0.00034852
-3.47442e-06
0.000349306
-3.13754e-06
0.000350007
-2.79894e-06
0.000350623
-2.45892e-06
0.000351153
-2.1178e-06
0.000351597
-1.77587e-06
0.000351956
-1.43345e-06
0.000352229
-1.09084e-06
0.000352415
-7.48349e-07
0.000352516
-4.06279e-07
0.000352532
-6.49332e-08
0.000352462
2.75389e-07
0.000352307
6.14392e-07
0.000352067
9.51787e-07
0.000351743
1.28729e-06
0.000351336
1.62061e-06
0.000350846
1.95149e-06
0.000350273
2.27966e-06
0.000349619
2.60486e-06
0.000348885
2.92685e-06
0.00034807
3.24537e-06
0.000347177
3.56021e-06
0.000346205
3.87113e-06
0.000345157
4.17794e-06
0.000344033
4.48042e-06
0.000342834
4.77839e-06
0.000341562
5.07168e-06
0.000340218
5.3601e-06
0.000338802
5.6435e-06
0.000337317
5.92175e-06
0.000335764
6.1947e-06
0.000334143
6.46223e-06
0.000332457
6.72423e-06
0.000330707
6.9806e-06
0.000328894
7.23126e-06
0.00032702
7.47612e-06
0.000325086
7.71511e-06
0.000323094
7.94819e-06
0.000321045
8.17531e-06
0.000318941
8.39642e-06
0.000316783
8.61152e-06
0.000314572
8.82057e-06
0.000312311
9.02358e-06
0.000310001
9.22055e-06
0.000307642
9.41149e-06
0.000305238
9.59643e-06
0.000302789
9.77538e-06
0.000300297
9.94839e-06
0.000297763
1.01155e-05
0.000295189
1.02768e-05
0.000292576
1.04322e-05
0.000289925
1.0582e-05
0.000287239
1.07261e-05
0.000284518
1.08646e-05
0.000281764
1.09976e-05
0.000278978
1.11252e-05
0.000276161
1.12474e-05
0.000273316
1.13645e-05
0.000270442
1.14764e-05
0.000267542
1.15832e-05
0.000264616
1.16851e-05
0.000261667
1.17822e-05
0.000258694
1.18746e-05
0.0002557
1.19623e-05
0.000252684
1.20456e-05
0.00024965
1.21245e-05
0.000246596
1.21991e-05
0.000243525
1.22695e-05
0.000240438
1.23359e-05
0.000237335
1.23984e-05
0.000234217
1.24571e-05
0.000231086
1.25121e-05
0.000227942
1.25635e-05
0.000224786
1.26115e-05
0.00022162
1.26562e-05
0.000218442
1.26976e-05
0.000215256
1.27359e-05
0.000212061
1.27712e-05
0.000208857
1.28036e-05
0.000205647
1.28333e-05
0.000202429
1.28602e-05
0.000199206
1.28847e-05
0.000195977
1.29067e-05
0.000192744
1.29263e-05
0.000189506
1.29437e-05
0.000186264
1.2959e-05
0.00018302
1.29722e-05
0.000179772
1.29835e-05
0.000176522
1.2993e-05
0.000173271
1.30007e-05
0.000170018
1.30068e-05
0.000166764
1.30113e-05
0.000163509
1.30143e-05
0.000160254
1.30159e-05
0.000156998
1.30162e-05
0.000153744
1.30153e-05
0.000150489
1.30132e-05
0.000147236
1.30101e-05
0.000143984
1.3006e-05
0.000140733
1.3001e-05
0.000137483
1.29951e-05
0.000134236
1.29884e-05
0.00013099
1.29811e-05
0.000127746
1.2973e-05
0.000124504
1.29645e-05
0.000121265
1.29553e-05
0.000118028
1.29458e-05
0.000114794
1.29358e-05
0.000111562
1.29255e-05
0.000108334
1.29149e-05
0.000105107
1.2904e-05
0.000101884
1.2893e-05
9.86634e-05
1.28818e-05
9.54458e-05
1.28705e-05
9.2231e-05
1.28591e-05
8.9019e-05
1.28478e-05
8.581e-05
1.28365e-05
8.26038e-05
1.28252e-05
7.94004e-05
1.28141e-05
7.61997e-05
1.28031e-05
7.30018e-05
1.27923e-05
6.98066e-05
1.27817e-05
6.6614e-05
1.27713e-05
6.3424e-05
1.27613e-05
6.02364e-05
1.27515e-05
5.70512e-05
1.2742e-05
5.38683e-05
1.27329e-05
5.06876e-05
1.27242e-05
4.7509e-05
1.27159e-05
4.43324e-05
1.2708e-05
4.11576e-05
1.27005e-05
3.79847e-05
1.26935e-05
3.48134e-05
1.2687e-05
3.16436e-05
1.26809e-05
2.84752e-05
1.26754e-05
2.5308e-05
1.26704e-05
2.2142e-05
1.26659e-05
1.8977e-05
1.2662e-05
1.58129e-05
1.26585e-05
1.26494e-05
1.26557e-05
9.48657e-06
1.26534e-05
6.32414e-06
1.26517e-05
3.162e-06
1.26506e-05
1.265e-05
3.53104e-06
-1.76612e-05
7.06228e-06
-1.76622e-05
1.05939e-05
-1.76642e-05
1.41262e-05
-1.76672e-05
1.76593e-05
-1.76712e-05
2.11934e-05
-1.76761e-05
2.47286e-05
-1.7682e-05
2.82653e-05
-1.76889e-05
3.18036e-05
-1.76966e-05
3.53436e-05
-1.77053e-05
3.88856e-05
-1.77148e-05
4.24297e-05
-1.77251e-05
4.5976e-05
-1.77362e-05
4.95248e-05
-1.77481e-05
5.30761e-05
-1.77607e-05
5.66302e-05
-1.7774e-05
6.01871e-05
-1.77879e-05
6.3747e-05
-1.78023e-05
6.73099e-05
-1.78173e-05
7.0876e-05
-1.78327e-05
7.44453e-05
-1.78485e-05
7.80179e-05
-1.78647e-05
8.15939e-05
-1.7881e-05
8.51734e-05
-1.78976e-05
8.87562e-05
-1.79142e-05
9.23425e-05
-1.79309e-05
9.59322e-05
-1.79475e-05
9.95253e-05
-1.79639e-05
0.000103122
-1.79801e-05
0.000106721
-1.7996e-05
0.000110324
-1.80113e-05
0.00011393
-1.80262e-05
0.000117539
-1.80403e-05
0.000121151
-1.80537e-05
0.000124766
-1.80661e-05
0.000128383
-1.80775e-05
0.000132002
-1.80878e-05
0.000135623
-1.80968e-05
0.000139246
-1.81044e-05
0.00014287
-1.81104e-05
0.000146495
-1.81146e-05
0.000150121
-1.81171e-05
0.000153747
-1.81175e-05
0.000157373
-1.81158e-05
0.000160998
-1.81118e-05
0.000164622
-1.81052e-05
0.000168245
-1.80961e-05
0.000171865
-1.80841e-05
0.000175483
-1.80691e-05
0.000179097
-1.8051e-05
0.000182707
-1.80295e-05
0.000186313
-1.80045e-05
0.000189913
-1.79758e-05
0.000193506
-1.79432e-05
0.000197093
-1.79065e-05
0.000200671
-1.78655e-05
0.000204241
-1.78201e-05
0.0002078
-1.777e-05
0.000211349
-1.77151e-05
0.000214887
-1.76551e-05
0.000218411
-1.75899e-05
0.000221922
-1.75193e-05
0.000225417
-1.74431e-05
0.000228897
-1.73611e-05
0.000232359
-1.72731e-05
0.000235802
-1.7179e-05
0.000239226
-1.70785e-05
0.000242628
-1.69715e-05
0.000246008
-1.68578e-05
0.000249364
-1.67373e-05
0.000252694
-1.66097e-05
0.000255998
-1.6475e-05
0.000259273
-1.6333e-05
0.000262519
-1.61835e-05
0.000265734
-1.60264e-05
0.000268915
-1.58616e-05
0.000272063
-1.56889e-05
0.000275174
-1.55083e-05
0.000278248
-1.53197e-05
0.000281282
-1.5123e-05
0.000284276
-1.49181e-05
0.000287226
-1.47049e-05
0.000290133
-1.44835e-05
0.000292994
-1.42537e-05
0.000295807
-1.40155e-05
0.000298571
-1.3769e-05
0.000301284
-1.35142e-05
0.000303944
-1.3251e-05
0.000306549
-1.29795e-05
0.000309099
-1.26997e-05
0.000311591
-1.24118e-05
0.000314024
-1.21158e-05
0.000316396
-1.18118e-05
0.000318705
-1.15e-05
0.00032095
-1.11804e-05
0.00032313
-1.08532e-05
0.000325242
-1.05185e-05
0.000327286
-1.01767e-05
0.000329259
-9.82775e-06
0.000331162
-9.47198e-06
0.000332991
-9.10961e-06
0.000334747
-8.74087e-06
0.000336427
-8.36601e-06
0.000338031
-7.98531e-06
0.000339557
-7.59906e-06
0.000341004
-7.20754e-06
0.000342372
-6.81107e-06
0.000343659
-6.40996e-06
0.000344865
-6.00455e-06
0.000345988
-5.59518e-06
0.000347028
-5.18219e-06
0.000347985
-4.76594e-06
0.000348857
-4.3468e-06
0.000349645
-3.92513e-06
0.000350347
-3.50132e-06
0.000350964
-3.07573e-06
0.000351495
-2.64875e-06
0.00035194
-2.22077e-06
0.000352299
-1.79217e-06
0.000352571
-1.36333e-06
0.000352758
-9.34649e-07
0.000352858
-5.06496e-07
0.000352872
-7.92541e-08
0.000352801
3.46701e-07
0.000352644
7.70999e-07
0.000352403
1.19328e-06
0.000352077
1.61317e-06
0.000351667
2.03034e-06
0.000351174
2.44444e-06
0.000350599
2.85513e-06
0.000349941
3.2621e-06
0.000349203
3.66503e-06
0.000348385
4.06362e-06
0.000347488
4.45758e-06
0.000346512
4.84663e-06
0.00034546
5.23051e-06
0.000344331
5.60897e-06
0.000343128
5.98177e-06
0.000341851
6.34869e-06
0.000340501
6.70951e-06
0.000339081
7.06404e-06
0.00033759
7.4121e-06
0.000336031
7.75352e-06
0.000334406
8.08814e-06
0.000332714
8.41583e-06
0.000330958
8.73646e-06
0.000329139
9.04993e-06
0.000327259
9.35612e-06
0.00032532
9.65498e-06
0.000323321
9.94641e-06
0.000321266
1.02304e-05
0.000319156
1.05068e-05
0.000316992
1.07757e-05
0.000314775
1.1037e-05
0.000312508
1.12908e-05
0.000310192
1.1537e-05
0.000307827
1.17756e-05
0.000305417
1.20067e-05
0.000302962
1.22304e-05
0.000300464
1.24465e-05
0.000297924
1.26553e-05
0.000295344
1.28568e-05
0.000292725
1.3051e-05
0.000290069
1.32381e-05
0.000287377
1.34181e-05
0.000284651
1.3591e-05
0.000281891
1.37571e-05
0.0002791
1.39165e-05
0.000276278
1.40691e-05
0.000273428
1.42152e-05
0.000270549
1.43549e-05
0.000267644
1.44883e-05
0.000264714
1.46155e-05
0.000261759
1.47366e-05
0.000258782
1.48519e-05
0.000255783
1.49614e-05
0.000252763