/*--------------------------------*- C++ -*----------------------------------*\
| =========                 |                                                 |
| \\      /  F ield         | OpenFOAM: The Open Source CFD Toolbox           |
|  \\    /   O peration     | Version:  v2012                                 |
|   \\  /    A nd           | Website:  www.openfoam.com                      |
|    \\/     M anipulation  |                                                 |
\*---------------------------------------------------------------------------*/
FoamFile
{
    version     2.0;
    format      ascii;
    class       volScalarField;
    location    "13";
    object      Psi_z;
}
// * * * * * * * * * * * * * * * * * * * * * * * * * * * * * * * * * * * * * //

dimensions      [0 2 -1 0 0 0 0];


internalField   nonuniform List<scalar> 
65536
(
8.83095e-06
2.64934e-05
4.41573e-05
6.18237e-05
7.94935e-05
9.71678e-05
0.000114847
0.000132533
0.000150226
0.000167928
0.000185638
0.000203358
0.000221088
0.00023883
0.000256584
0.000274351
0.000292131
0.000309926
0.000327734
0.000345558
0.000363397
0.000381252
0.000399122
0.000417009
0.000434912
0.000452832
0.000470768
0.00048872
0.000506688
0.000524672
0.00054267
0.000560684
0.000578712
0.000596753
0.000614806
0.000632871
0.000650947
0.000669031
0.000687123
0.000705222
0.000723325
0.000741431
0.000759538
0.000777644
0.000795746
0.000813843
0.000831931
0.000850008
0.000868071
0.000886116
0.000904142
0.000922143
0.000940117
0.00095806
0.000975967
0.000993835
0.00101166
0.00102943
0.00104716
0.00106482
0.00108242
0.00109996
0.00111741
0.00113479
0.00115209
0.00116929
0.00118639
0.00120339
0.00122028
0.00123705
0.0012537
0.00127021
0.00128659
0.00130282
0.0013189
0.00133481
0.00135056
0.00136613
0.00138151
0.00139671
0.0014117
0.00142648
0.00144104
0.00145538
0.00146949
0.00148335
0.00149696
0.00151032
0.00152341
0.00153622
0.00154875
0.00156098
0.00157292
0.00158455
0.00159587
0.00160686
0.00161752
0.00162785
0.00163783
0.00164746
0.00165673
0.00166563
0.00167417
0.00168233
0.00169011
0.0016975
0.00170449
0.00171109
0.00171729
0.00172308
0.00172846
0.00173343
0.00173799
0.00174212
0.00174583
0.00174912
0.00175198
0.00175442
0.00175643
0.00175802
0.00175917
0.0017599
0.00176021
0.00176008
0.00175954
0.00175857
0.00175718
0.00175538
0.00175316
0.00175053
0.00174749
0.00174405
0.00174021
0.00173597
0.00173134
0.00172633
0.00172093
0.00171517
0.00170903
0.00170253
0.00169567
0.00168846
0.00168091
0.00167302
0.00166479
0.00165625
0.00164739
0.00163821
0.00162874
0.00161897
0.00160891
0.00159858
0.00158796
0.00157709
0.00156596
0.00155457
0.00154295
0.00153109
0.001519
0.00150669
0.00149417
0.00148144
0.00146851
0.0014554
0.00144209
0.00142862
0.00141497
0.00140116
0.00138719
0.00137307
0.00135881
0.00134441
0.00132988
0.00131523
0.00130046
0.00128557
0.00127058
0.00125548
0.00124029
0.00122501
0.00120964
0.00119419
0.00117866
0.00116307
0.0011474
0.00113168
0.00111589
0.00110005
0.00108416
0.00106823
0.00105225
0.00103623
0.00102018
0.00100409
0.000987976
0.000971834
0.000955669
0.000939484
0.00092328
0.00090706
0.000890827
0.000874583
0.000858331
0.000842071
0.000825806
0.000809538
0.000793269
0.000777
0.000760733
0.000744468
0.000728208
0.000711953
0.000695705
0.000679465
0.000663233
0.000647011
0.000630798
0.000614597
0.000598407
0.00058223
0.000566064
0.000549912
0.000533773
0.000517648
0.000501536
0.000485438
0.000469354
0.000453285
0.000437229
0.000421187
0.00040516
0.000389146
0.000373145
0.000357158
0.000341184
0.000325222
0.000309273
0.000293336
0.00027741
0.000261496
0.000245592
0.000229698
0.000213814
0.000197938
0.000182071
0.000166212
0.00015036
0.000134515
0.000118676
0.000102842
8.7012e-05
7.11863e-05
5.53638e-05
3.95438e-05
2.37256e-05
7.90841e-06
2.64924e-05
7.94788e-05
0.00013247
0.000185468
0.000238477
0.000291498
0.000344536
0.000397593
0.000450672
0.000503775
0.000556904
0.000610064
0.000663255
0.00071648
0.000769741
0.000823041
0.000876381
0.000929763
0.000983189
0.00103666
0.00109018
0.00114374
0.00119735
0.00125101
0.00130472
0.00135848
0.00141229
0.00146615
0.00152005
0.001574
0.001628
0.00168204
0.00173612
0.00179025
0.00184441
0.00189861
0.00195283
0.00200709
0.00206137
0.00211566
0.00216997
0.0022243
0.00227862
0.00233294
0.00238725
0.00244154
0.00249581
0.00255004
0.00260423
0.00265837
0.00271245
0.00276646
0.00282038
0.00287422
0.00292794
0.00298155
0.00303503
0.00308836
0.00314153
0.00319453
0.00324734
0.00329994
0.00335232
0.00340447
0.00345635
0.00350796
0.00355928
0.00361029
0.00366096
0.00371128
0.00376123
0.00381078
0.00385992
0.00390862
0.00395686
0.00400461
0.00405186
0.00409857
0.00414474
0.00419032
0.0042353
0.00427966
0.00432336
0.00436639
0.00440871
0.00445031
0.00449115
0.00453122
0.00457049
0.00460894
0.00464653
0.00468325
0.00471907
0.00475397
0.00478792
0.00482091
0.0048529
0.00488388
0.00491383
0.00494273
0.00497055
0.00499727
0.00502289
0.00504737
0.00507071
0.00509288
0.00511388
0.00513368
0.00515228
0.00516966
0.0051858
0.00520071
0.00521437
0.00522678
0.00523791
0.00524778
0.00525637
0.00526369
0.00526972
0.00527447
0.00527794
0.00528013
0.00528104
0.00528067
0.00527903
0.00527613
0.00527196
0.00526655
0.00525989
0.00525199
0.00524287
0.00523254
0.00522101
0.0052083
0.00519441
0.00517936
0.00516318
0.00514586
0.00512744
0.00510793
0.00508735
0.00506572
0.00504305
0.00501937
0.0049947
0.00496906
0.00494246
0.00491494
0.00488651
0.00485719
0.00482701
0.00479599
0.00476416
0.00473152
0.00469812
0.00466396
0.00462907
0.00459348
0.00455721
0.00452027
0.0044827
0.00444451
0.00440572
0.00436637
0.00432646
0.00428602
0.00424507
0.00420362
0.00416171
0.00411935
0.00407656
0.00403336
0.00398977
0.0039458
0.00390148
0.00385681
0.00381183
0.00376654
0.00372096
0.0036751
0.00362899
0.00358264
0.00353606
0.00348926
0.00344226
0.00339508
0.00334772
0.0033002
0.00325253
0.00320472
0.00315678
0.00310872
0.00306056
0.0030123
0.00296395
0.00291552
0.00286703
0.00281847
0.00276985
0.00272119
0.00267249
0.00262376
0.002575
0.00252622
0.00247742
0.00242861
0.00237981
0.002331
0.00228219
0.0022334
0.00218462
0.00213585
0.00208711
0.00203838
0.00198969
0.00194102
0.00189238
0.00184378
0.00179521
0.00174667
0.00169818
0.00164972
0.0016013
0.00155293
0.00150459
0.0014563
0.00140805
0.00135984
0.00131167
0.00126355
0.00121546
0.00116742
0.00111942
0.00107146
0.00102354
0.000975654
0.000927807
0.000879996
0.000832219
0.000784476
0.000736765
0.000689084
0.000641431
0.000593806
0.000546206
0.000498629
0.000451074
0.000403539
0.000356022
0.00030852
0.000261032
0.000213556
0.000166089
0.00011863
7.11756e-05
2.37248e-05
4.41524e-05
0.00013246
0.000220775
0.000309102
0.000397446
0.000485813
0.000574206
0.000662631
0.000751093
0.000839595
0.000928142
0.00101674
0.00110539
0.00119409
0.00128286
0.00137169
0.00146059
0.00154956
0.0016386
0.00172771
0.00181691
0.00190618
0.00199553
0.00208497
0.00217448
0.00226408
0.00235376
0.00244352
0.00253336
0.00262328
0.00271328
0.00280335
0.0028935
0.0029837
0.00307398
0.00316431
0.00325469
0.00334512
0.00343559
0.00352609
0.00361662
0.00370716
0.0037977
0.00388824
0.00397877
0.00406926
0.00415971
0.00425011
0.00434044
0.00443069
0.00452083
0.00461086
0.00470075
0.00479048
0.00488004
0.0049694
0.00505854
0.00514744
0.00523608
0.00532443
0.00541246
0.00550015
0.00558747
0.0056744
0.00576089
0.00584693
0.00593249
0.00601752
0.006102
0.00618589
0.00626916
0.00635177
0.00643369
0.00651488
0.0065953
0.00667491
0.00675368
0.00683157
0.00690854
0.00698454
0.00705953
0.00713349
0.00720635
0.00727809
0.00734866
0.00741801
0.00748612
0.00755293
0.00761841
0.00768251
0.00774519
0.00780641
0.00786614
0.00792433
0.00798095
0.00803595
0.0080893
0.00814096
0.00819089
0.00823907
0.00828546
0.00833003
0.00837274
0.00841356
0.00845247
0.00848945
0.00852446
0.00855748
0.00858848
0.00861746
0.00864439
0.00866924
0.00869202
0.0087127
0.00873127
0.00874772
0.00876204
0.00877424
0.0087843
0.00879222
0.008798
0.00880164
0.00880315
0.00880254
0.0087998
0.00879495
0.008788
0.00877896
0.00876785
0.00875468
0.00873947
0.00872224
0.008703
0.00868179
0.00865863
0.00863354
0.00860654
0.00857767
0.00854695
0.00851441
0.00848009
0.00844401
0.00840621
0.00836673
0.00832558
0.00828282
0.00823847
0.00819257
0.00814517
0.00809628
0.00804596
0.00799423
0.00794114
0.00788673
0.00783103
0.00777407
0.0077159
0.00765656
0.00759608
0.0075345
0.00747185
0.00740818
0.00734351
0.00727789
0.00721135
0.00714393
0.00707565
0.00700656
0.00693669
0.00686607
0.00679473
0.00672271
0.00665003
0.00657673
0.00650283
0.00642838
0.00635338
0.00627788
0.0062019
0.00612546
0.00604859
0.00597132
0.00589367
0.00581566
0.00573732
0.00565866
0.00557972
0.0055005
0.00542104
0.00534134
0.00526143
0.00518132
0.00510104
0.0050206
0.00494001
0.00485928
0.00477845
0.0046975
0.00461647
0.00453536
0.00445419
0.00437296
0.00429168
0.00421037
0.00412904
0.0040477
0.00396634
0.00388499
0.00380364
0.00372232
0.00364101
0.00355973
0.00347848
0.00339728
0.00331611
0.003235
0.00315393
0.00307292
0.00299197
0.00291108
0.00283025
0.00274949
0.00266879
0.00258817
0.00250761
0.00242712
0.0023467
0.00226635
0.00218607
0.00210586
0.00202573
0.00194566
0.00186566
0.00178572
0.00170585
0.00162605
0.0015463
0.00146662
0.00138699
0.00130742
0.00122791
0.00114844
0.00106902
0.000989648
0.000910317
0.000831025
0.000751769
0.000672546
0.000593352
0.000514185
0.00043504
0.000355915
0.000276806
0.00019771
0.000118622
3.95402e-05
6.18099e-05
0.000185433
0.000309067
0.000432718
0.000556394
0.0006801
0.000803845
0.000927633
0.00105147
0.00117537
0.00129933
0.00142336
0.00154746
0.00167165
0.00179591
0.00192027
0.00204473
0.00216928
0.00229393
0.00241869
0.00254356
0.00266854
0.00279363
0.00291884
0.00304416
0.0031696
0.00329515
0.00342082
0.0035466
0.00367249
0.00379849
0.00392459
0.0040508
0.0041771
0.00430349
0.00442996
0.0045565
0.00468311
0.00480978
0.00493649
0.00506324
0.00519001
0.00531679
0.00544356
0.00557031
0.00569702
0.00582368
0.00595026
0.00607674
0.00620311
0.00632933
0.00645539
0.00658126
0.00670692
0.00683232
0.00695746
0.00708229
0.00720679
0.00733092
0.00745464
0.00757792
0.00770073
0.00782302
0.00794475
0.00806589
0.00818639
0.00830621
0.0084253
0.00854362
0.00866111
0.00877774
0.00889345
0.00900818
0.0091219
0.00923455
0.00934606
0.0094564
0.00956549
0.0096733
0.00977976
0.00988481
0.0099884
0.0100905
0.010191
0.0102898
0.010387
0.0104824
0.010576
0.0106677
0.0107575
0.0108453
0.0109311
0.0110148
0.0110963
0.0111756
0.0112526
0.0113274
0.0113998
0.0114697
0.0115372
0.0116022
0.0116646
0.0117245
0.0117817
0.0118362
0.011888
0.011937
0.0119833
0.0120267
0.0120673
0.012105
0.0121399
0.0121718
0.0122007
0.0122267
0.0122498
0.0122698
0.0122869
0.012301
0.0123121
0.0123202
0.0123253
0.0123274
0.0123265
0.0123227
0.0123159
0.0123061
0.0122934
0.0122779
0.0122594
0.0122381
0.0122139
0.012187
0.0121572
0.0121248
0.0120896
0.0120518
0.0120113
0.0119683
0.0119227
0.0118746
0.011824
0.0117711
0.0117157
0.0116581
0.0115982
0.011536
0.0114717
0.0114053
0.0113368
0.0112663
0.0111938
0.0111195
0.0110432
0.0109652
0.0108854
0.0108039
0.0107208
0.0106361
0.0105498
0.010462
0.0103728
0.0102823
0.0101903
0.0100971
0.0100027
0.00990705
0.00981028
0.00971241
0.0096135
0.00951358
0.0094127
0.00931091
0.00920825
0.00910476
0.00900048
0.00889545
0.0087897
0.00868329
0.00857624
0.00846859
0.00836038
0.00825163
0.00814239
0.00803268
0.00792253
0.00781198
0.00770105
0.00758977
0.00747817
0.00736627
0.0072541
0.00714169
0.00702904
0.00691619
0.00680316
0.00668997
0.00657663
0.00646317
0.0063496
0.00623594
0.0061222
0.0060084
0.00589456
0.00578068
0.00566678
0.00555288
0.00543897
0.00532508
0.00521121
0.00509737
0.00498358
0.00486982
0.00475613
0.00464249
0.00452893
0.00441543
0.00430201
0.00418868
0.00407543
0.00396226
0.00384919
0.00373622
0.00362334
0.00351055
0.00339787
0.00328528
0.00317279
0.0030604
0.00294811
0.00283592
0.00272383
0.00261183
0.00249992
0.00238811
0.00227638
0.00216474
0.00205319
0.00194171
0.00183032
0.001719
0.00160775
0.00149657
0.00138545
0.00127439
0.00116338
0.00105243
0.000941522
0.000830656
0.000719826
0.000609029
0.000498259
0.000387511
0.000276781
0.000166064
5.53538e-05
7.94639e-05
0.000238396
0.000397342
0.00055631
0.00071531
0.00087435
0.00103344
0.00119258
0.0013518
0.00151108
0.00167045
0.0018299
0.00198946
0.00214911
0.00230888
0.00246876
0.00262877
0.0027889
0.00294916
0.00310956
0.0032701
0.00343079
0.00359162
0.0037526
0.00391372
0.004075
0.00423643
0.004398
0.00455972
0.00472159
0.00488359
0.00504574
0.00520801
0.0053704
0.00553291
0.00569553
0.00585825
0.00602105
0.00618392
0.00634686
0.00650984
0.00667286
0.00683588
0.0069989
0.0071619
0.00732484
0.00748772
0.0076505
0.00781315
0.00797566
0.00813799
0.00830011
0.00846199
0.0086236
0.00878489
0.00894583
0.00910638
0.0092665
0.00942616
0.00958529
0.00974386
0.00990182
0.0100591
0.0102157
0.0103715
0.0105265
0.0106807
0.0108339
0.0109861
0.0111372
0.0112872
0.0114361
0.0115837
0.01173
0.0118749
0.0120184
0.0121603
0.0123007
0.0124394
0.0125764
0.0127116
0.0128448
0.0129762
0.0131055
0.0132327
0.0133577
0.0134805
0.0136009
0.0137189
0.0138345
0.0139475
0.0140578
0.0141655
0.0142704
0.0143725
0.0144716
0.0145678
0.014661
0.014751
0.0148379
0.0149215
0.0150018
0.0150788
0.0151524
0.0152226
0.0152893
0.0153524
0.0154119
0.0154678
0.01552
0.0155686
0.0156134
0.0156544
0.0156917
0.0157252
0.0157548
0.0157806
0.0158026
0.0158207
0.015835
0.0158454
0.0158519
0.0158546
0.0158535
0.0158485
0.0158397
0.0158272
0.0158108
0.0157908
0.015767
0.0157395
0.0157084
0.0156737
0.0156354
0.0155936
0.0155484
0.0154997
0.0154476
0.0153921
0.0153335
0.0152715
0.0152065
0.0151383
0.0150671
0.0149929
0.0149157
0.0148358
0.014753
0.0146675
0.0145793
0.0144886
0.0143953
0.0142996
0.0142015
0.0141011
0.0139984
0.0138936
0.0137866
0.0136776
0.0135666
0.0134536
0.0133389
0.0132223
0.0131041
0.0129841
0.0128626
0.0127396
0.0126151
0.0124892
0.0123619
0.0122334
0.0121036
0.0119727
0.0118406
0.0117075
0.0115733
0.0114382
0.0113022
0.0111653
0.0110276
0.0108892
0.01075
0.0106101
0.0104696
0.0103285
0.0101868
0.0100446
0.00990195
0.00975884
0.0096153
0.00947139
0.00932713
0.00918256
0.00903769
0.00889256
0.0087472
0.00860164
0.00845588
0.00830997
0.00816393
0.00801776
0.00787151
0.00772517
0.00757878
0.00743234
0.00728588
0.00713941
0.00699294
0.00684649
0.00670008
0.0065537
0.00640737
0.00626111
0.00611492
0.00596881
0.00582278
0.00567685
0.00553102
0.0053853
0.00523968
0.00509418
0.0049488
0.00480354
0.00465841
0.0045134
0.00436852
0.00422376
0.00407913
0.00393464
0.00379026
0.00364602
0.0035019
0.0033579
0.00321403
0.00307027
0.00292663
0.0027831
0.00263967
0.00249636
0.00235314
0.00221002
0.00206699
0.00192405
0.00178119
0.00163841
0.00149569
0.00135305
0.00121046
0.00106792
0.000925436
0.000782991
0.00064058
0.000498199
0.00035584
0.000213498
7.11649e-05
9.71134e-05
0.000291346
0.000485595
0.000679871
0.000874186
0.00106855
0.00126297
0.00145747
0.00165204
0.00184671
0.00204148
0.00223635
0.00243135
0.00262647
0.00282173
0.00301713
0.00321268
0.00340838
0.00360425
0.00380029
0.0039965
0.00419289
0.00438945
0.0045862
0.00478313
0.00498025
0.00517755
0.00537504
0.0055727
0.00577055
0.00596856
0.00616675
0.00636509
0.00656359
0.00676223
0.00696101
0.00715991
0.00735891
0.00755801
0.00775718
0.00795642
0.00815569
0.00835498
0.00855427
0.00875353
0.00895273
0.00915185
0.00935086
0.00954972
0.0097484
0.00994687
0.0101451
0.010343
0.0105406
0.0107378
0.0109346
0.0111309
0.0113267
0.0115219
0.0117165
0.0119104
0.0121036
0.0122959
0.0124874
0.012678
0.0128675
0.013056
0.0132434
0.0134296
0.0136144
0.0137979
0.01398
0.0141605
0.0143395
0.0145167
0.0146922
0.0148659
0.0150376
0.0152073
0.0153748
0.0155402
0.0157032
0.0158639
0.0160221
0.0161777
0.0163307
0.0164809
0.0166282
0.0167726
0.016914
0.0170522
0.0171873
0.017319
0.0174474
0.0175723
0.0176936
0.0178113
0.0179253
0.0180354
0.0181417
0.0182441
0.0183424
0.0184366
0.0185267
0.0186125
0.0186941
0.0187713
0.0188442
0.0189126
0.0189765
0.0190359
0.0190907
0.0191409
0.0191865
0.0192274
0.0192637
0.0192953
0.0193221
0.0193443
0.0193617
0.0193744
0.0193824
0.0193857
0.0193843
0.0193782
0.0193674
0.019352
0.019332
0.0193074
0.0192783
0.0192446
0.0192065
0.019164
0.0191172
0.019066
0.0190105
0.0189509
0.0188871
0.0188193
0.0187474
0.0186717
0.018592
0.0185085
0.0184214
0.0183305
0.0182362
0.0181383
0.018037
0.0179324
0.0178245
0.0177134
0.0175993
0.0174822
0.0173621
0.0172393
0.0171136
0.0169853
0.0168545
0.0167211
0.0165853
0.0164471
0.0163067
0.0161641
0.0160195
0.0158728
0.0157241
0.0155736
0.0154213
0.0152673
0.0151117
0.0149544
0.0147957
0.0146355
0.014474
0.0143112
0.0141471
0.0139819
0.0138156
0.0136482
0.0134798
0.0133105
0.0131402
0.0129692
0.0127974
0.0126248
0.0124516
0.0122778
0.0121033
0.0119283
0.0117528
0.0115769
0.0114005
0.0112237
0.0110466
0.0108692
0.0106915
0.0105135
0.0103353
0.0101569
0.00997837
0.00979969
0.00962089
0.009442
0.00926304
0.00908403
0.00890499
0.00872594
0.0085469
0.00836788
0.0081889
0.00800997
0.00783111
0.00765233
0.00747363
0.00729503
0.00711654
0.00693817
0.00675992
0.00658181
0.00640383
0.00622599
0.00604829
0.00587075
0.00569336
0.00551612
0.00533904
0.00516212
0.00498535
0.00480874
0.00463229
0.00445599
0.00427985
0.00410386
0.00392801
0.00375232
0.00357676
0.00340134
0.00322606
0.0030509
0.00287587
0.00270095
0.00252615
0.00235145
0.00217686
0.00200235
0.00182794
0.0016536
0.00147934
0.00130514
0.001131
0.000956917
0.000782873
0.000608864
0.000434883
0.000260922
8.69727e-05
0.000114757
0.000344279
0.00057382
0.000803393
0.00103301
0.00126269
0.00149244
0.00172227
0.0019522
0.00218224
0.0024124
0.00264268
0.00287311
0.00310369
0.00333443
0.00356534
0.00379643
0.00402771
0.00425918
0.00449085
0.00472272
0.00495481
0.00518711
0.00541962
0.00565236
0.00588532
0.0061185
0.00635189
0.00658551
0.00681933
0.00705336
0.0072876
0.00752202
0.00775663
0.00799142
0.00822636
0.00846146
0.00869668
0.00893201
0.00916745
0.00940295
0.0096385
0.00987409
0.0101097
0.0103452
0.0105807
0.0108161
0.0110514
0.0112865
0.0115213
0.011756
0.0119903
0.0122243
0.012458
0.0126911
0.0129238
0.0131559
0.0133875
0.0136183
0.0138484
0.0140777
0.0143061
0.0145336
0.0147601
0.0149854
0.0152096
0.0154326
0.0156542
0.0158743
0.016093
0.01631
0.0165254
0.016739
0.0169506
0.0171603
0.0173679
0.0175734
0.0177765
0.0179772
0.0181755
0.0183711
0.018564
0.0187541
0.0189413
0.0191254
0.0193064
0.0194841
0.0196585
0.0198293
0.0199966
0.0201602
0.0203201
0.020476
0.0206279
0.0207757
0.0209192
0.0210585
0.0211934
0.0213238
0.0214496
0.0215707
0.021687
0.0217985
0.0219051
0.0220067
0.0221033
0.0221947
0.0222808
0.0223618
0.0224374
0.0225077
0.0225726
0.022632
0.0226859
0.0227344
0.0227773
0.0228146
0.0228464
0.0228726
0.0228932
0.0229082
0.0229176
0.0229214
0.0229197
0.0229125
0.0228997
0.0228814
0.0228577
0.0228285
0.022794
0.0227542
0.0227091
0.0226587
0.0226032
0.0225426
0.0224769
0.0224063
0.0223308
0.0222504
0.0221654
0.0220756
0.0219813
0.0218825
0.0217793
0.0216718
0.0215601
0.0214442
0.0213243
0.0212005
0.0210728
0.0209414
0.0208063
0.0206677
0.0205256
0.0203802
0.0202315
0.0200797
0.0199248
0.019767
0.0196063
0.0194428
0.0192767
0.019108
0.0189369
0.0187633
0.0185875
0.0184094
0.0182293
0.0180471
0.017863
0.017677
0.0174892
0.0172998
0.0171087
0.0169162
0.0167221
0.0165267
0.01633
0.016132
0.0159329
0.0157326
0.0155313
0.0153291
0.0151259
0.0149219
0.014717
0.0145115
0.0143052
0.0140983
0.0138908
0.0136828
0.0134742
0.0132652
0.0130558
0.0128461
0.012636
0.0124256
0.0122149
0.012004
0.011793
0.0115817
0.0113704
0.0111589
0.0109473
0.0107357
0.0105241
0.0103125
0.0101008
0.00988923
0.00967767
0.00946618
0.00925477
0.00904345
0.00883224
0.00862115
0.00841019
0.00819937
0.0079887
0.00777818
0.00756783
0.00735764
0.00714763
0.0069378
0.00672815
0.00651868
0.0063094
0.00610031
0.00589141
0.00568269
0.00547416
0.00526581
0.00505765
0.00484967
0.00464186
0.00443422
0.00422676
0.00401945
0.00381231
0.00360532
0.00339847
0.00319177
0.0029852
0.00277875
0.00257243
0.00236621
0.0021601
0.00195408
0.00174816
0.0015423
0.00133652
0.0011308
0.00092513
0.000719502
0.000513906
0.000308334
0.000102777
0.000132395
0.000397192
0.000662012
0.00092687
0.00119178
0.00145676
0.00172182
0.00198698
0.00225225
0.00251765
0.00278319
0.00304887
0.00331472
0.00358075
0.00384696
0.00411338
0.00438
0.00464684
0.0049139
0.00518119
0.00544873
0.00571651
0.00598454
0.00625283
0.00652137
0.00679017
0.00705922
0.00732853
0.00759809
0.00786791
0.00813796
0.00840825
0.00867877
0.00894951
0.00922044
0.00949157
0.00976287
0.0100343
0.0103059
0.0105776
0.0108494
0.0111213
0.0113932
0.0116651
0.011937
0.0122088
0.0124805
0.012752
0.0130234
0.0132945
0.0135654
0.0138359
0.0141061
0.0143758
0.014645
0.0149136
0.0151816
0.0154489
0.0157154
0.0159811
0.0162459
0.0165096
0.0167723
0.0170338
0.0172941
0.017553
0.0178104
0.0180663
0.0183206
0.0185732
0.0188239
0.0190726
0.0193193
0.0195638
0.019806
0.0200458
0.0202831
0.0205178
0.0207497
0.0209787
0.0212047
0.0214276
0.0216472
0.0218635
0.0220762
0.0222854
0.0224907
0.0226922
0.0228896
0.023083
0.023272
0.0234567
0.0236369
0.0238124
0.0239832
0.0241492
0.0243101
0.024466
0.0246167
0.0247621
0.024902
0.0250365
0.0251654
0.0252886
0.025406
0.0255176
0.0256232
0.0257228
0.0258163
0.0259037
0.0259849
0.0260599
0.0261286
0.0261909
0.0262469
0.0262964
0.0263395
0.0263762
0.0264065
0.0264302
0.0264475
0.0264584
0.0264628
0.0264607
0.0264523
0.0264375
0.0264163
0.0263888
0.0263551
0.0263151
0.026269
0.0262168
0.0261585
0.0260943
0.0260242
0.0259483
0.0258666
0.0257792
0.0256863
0.025588
0.0254842
0.0253751
0.0252609
0.0251416
0.0250173
0.0248881
0.0247542
0.0246156
0.0244724
0.0243248
0.0241729
0.0240168
0.0238566
0.0236924
0.0235244
0.0233525
0.0231771
0.0229981
0.0228158
0.0226301
0.0224412
0.0222493
0.0220544
0.0218566
0.0216562
0.021453
0.0212473
0.0210392
0.0208288
0.0206161
0.0204013
0.0201844
0.0199656
0.019745
0.0195226
0.0192985
0.0190728
0.0188456
0.018617
0.0183871
0.0181558
0.0179234
0.0176899
0.0174553
0.0172197
0.0169832
0.0167459
0.0165077
0.0162689
0.0160293
0.0157891
0.0155484
0.0153071
0.0150654
0.0148233
0.0145808
0.0143379
0.0140947
0.0138513
0.0136077
0.0133639
0.0131199
0.0128759
0.0126317
0.0123875
0.0121432
0.011899
0.0116547
0.0114105
0.0111664
0.0109223
0.0106783
0.0104345
0.0101907
0.00994714
0.0097037
0.00946042
0.00921731
0.00897439
0.00873166
0.00848912
0.00824679
0.00800467
0.00776276
0.00752106
0.00727958
0.00703832
0.00679728
0.00655645
0.00631584
0.00607545
0.00583527
0.0055953
0.00535553
0.00511596
0.00487659
0.00463741
0.00439841
0.00415959
0.00392094
0.00368245
0.00344412
0.00320594
0.00296789
0.00272997
0.00249217
0.00225448
0.00201689
0.0017794
0.00154198
0.00130463
0.00106734
0.000830106
0.000592906
0.000355733
0.000118576
0.000150024
0.000450082
0.000750165
0.00105029
0.00135048
0.00165075
0.00195111
0.00225158
0.00255218
0.00285292
0.00315382
0.0034549
0.00375616
0.00405762
0.0043593
0.00466121
0.00496335
0.00526574
0.00556839
0.0058713
0.00617449
0.00647797
0.00678173
0.00708577
0.00739012
0.00769476
0.00799969
0.00830492
0.00861043
0.00891624
0.00922232
0.00952868
0.0098353
0.0101422
0.0104493
0.0107566
0.0110641
0.0113718
0.0116797
0.0119877
0.0122958
0.012604
0.0129123
0.0132205
0.0135288
0.0138369
0.014145
0.0144529
0.0147606
0.015068
0.0153752
0.0156819
0.0159882
0.0162941
0.0165994
0.016904
0.0172079
0.0175111
0.0178134
0.0181147
0.018415
0.0187142
0.0190122
0.0193088
0.019604
0.0198977
0.0201898
0.0204802
0.0207687
0.0210552
0.0213396
0.0216219
0.0219018
0.0221792
0.0224541
0.0227262
0.0229955
0.0232618
0.023525
0.023785
0.0240415
0.0242945
0.0245438
0.0247892
0.0250307
0.0252681
0.0255012
0.0257299
0.0259541
0.0261736
0.0263882
0.0265979
0.0268024
0.0270017
0.0271957
0.0273841
0.0275668
0.0277438
0.0279149
0.02808
0.0282389
0.0283916
0.0285379
0.0286778
0.0288111
0.0289378
0.0290577
0.0291708
0.029277
0.0293763
0.0294684
0.0295535
0.0296315
0.0297022
0.0297657
0.029822
0.0298709
0.0299125
0.0299468
0.0299737
0.0299933
0.0300056
0.0300105
0.0300081
0.0299985
0.0299816
0.0299575
0.0299262
0.0298878
0.0298424
0.0297899
0.0297306
0.0296644
0.0295914
0.0295117
0.0294253
0.0293325
0.0292333
0.0291277
0.0290159
0.028898
0.0287742
0.0286444
0.0285088
0.0283676
0.0282209
0.0280688
0.0279114
0.0277488
0.0275812
0.0274087
0.0272314
0.0270495
0.0268631
0.0266723
0.0264772
0.026278
0.0260749
0.0258678
0.0256571
0.0254427
0.0252248
0.0250036
0.0247792
0.0245516
0.0243211
0.0240877
0.0238515
0.0236127
0.0233714
0.0231277
0.0228816
0.0226334
0.022383
0.0221307
0.0218765
0.0216204
0.0213627
0.0211034
0.0208425
0.0205803
0.0203166
0.0200517
0.0197857
0.0195185
0.0192503
0.0189811
0.018711
0.0184401
0.0181685
0.0178961
0.0176231
0.0173495
0.0170754
0.0168009
0.0165259
0.0162505
0.0159748
0.0156989
0.0154226
0.0151462
0.0148696
0.0145929
0.0143161
0.0140393
0.0137624
0.0134855
0.0132086
0.0129318
0.012655
0.0123783
0.0121018
0.0118254
0.0115491
0.011273
0.010997
0.0107213
0.0104457
0.0101704
0.00989529
0.0096204
0.00934575
0.00907133
0.00879715
0.00852323
0.00824955
0.00797611
0.00770293
0.00743
0.00715732
0.00688488
0.00661268
0.00634072
0.006069
0.00579751
0.00552623
0.00525518
0.00498434
0.00471369
0.00444325
0.00417298
0.0039029
0.00363298
0.00336322
0.00309361
0.00282413
0.00255478
0.00228554
0.00201641
0.00174737
0.0014784
0.00120951
0.000940673
0.000671878
0.000403114
0.000134369
0.000167645
0.000502946
0.000838276
0.00117365
0.0015091
0.00184464
0.00218028
0.00251605
0.00285196
0.00318803
0.00352429
0.00386073
0.00419739
0.00453428
0.00487141
0.00520879
0.00554645
0.00588438
0.00622261
0.00656114
0.00689998
0.00723913
0.00757862
0.00791843
0.00825857
0.00859905
0.00893986
0.00928101
0.00962249
0.00996429
0.0103064
0.0106488
0.0109916
0.0113346
0.0116779
0.0120214
0.0123652
0.0127092
0.0130534
0.0133977
0.0137422
0.0140868
0.0144314
0.014776
0.0151207
0.0154652
0.0158097
0.016154
0.016498
0.0168418
0.0171853
0.0175283
0.0178709
0.018213
0.0185544
0.0188951
0.0192351
0.0195742
0.0199123
0.0202494
0.0205853
0.02092
0.0212534
0.0215852
0.0219155
0.0222442
0.022571
0.0228958
0.0232187
0.0235393
0.0238576
0.0241735
0.0244867
0.0247972
0.0251049
0.0254095
0.0257109
0.026009
0.0263036
0.0265946
0.0268818
0.027165
0.0274441
0.0277189
0.0279893
0.0282551
0.0285161
0.0287722
0.0290232
0.029269
0.0295094
0.0297442
0.0299732
0.0301964
0.0304136
0.0306246
0.0308293
0.0310275
0.0312191
0.031404
0.031582
0.031753
0.0319169
0.0320736
0.0322229
0.0323648
0.0324991
0.0326257
0.0327447
0.0328558
0.032959
0.0330543
0.0331416
0.0332208
0.0332919
0.0333548
0.0334096
0.0334561
0.0334945
0.0335246
0.0335465
0.0335601
0.0335656
0.0335628
0.0335519
0.0335329
0.0335058
0.0334707
0.0334276
0.0333766
0.0333178
0.0332512
0.0331769
0.0330951
0.0330057
0.032909
0.0328049
0.0326936
0.0325753
0.03245
0.0323179
0.0321791
0.0320336
0.0318817
0.0317235
0.0315591
0.0313887
0.0312123
0.0310302
0.0308425
0.0306493
0.0304507
0.0302469
0.0300381
0.0298245
0.029606
0.029383
0.0291555
0.0289237
0.0286877
0.0284476
0.0282037
0.0279561
0.0277048
0.0274501
0.0271921
0.0269308
0.0266665
0.0263992
0.0261291
0.0258563
0.025581
0.0253032
0.025023
0.0247407
0.0244562
0.0241698
0.0238814
0.0235913
0.0232994
0.023006
0.0227111
0.0224148
0.0221171
0.0218183
0.0215183
0.0212172
0.0209151
0.0206121
0.0203083
0.0200037
0.0196984
0.0193925
0.0190859
0.0187789
0.0184714
0.0181635
0.0178552
0.0175466
0.0172378
0.0169287
0.0166195
0.0163101
0.0160006
0.0156911
0.0153815
0.015072
0.0147624
0.0144529
0.0141436
0.0138343
0.0135251
0.0132161
0.0129073
0.0125986
0.0122902
0.011982
0.011674
0.0113662
0.0110587
0.0107515
0.0104445
0.0101377
0.0098313
0.00952514
0.00921926
0.00891366
0.00860834
0.0083033
0.00799854
0.00769406
0.00738985
0.00708592
0.00678224
0.00647883
0.00617566
0.00587274
0.00557006
0.0052676
0.00496536
0.00466334
0.00436151
0.00405987
0.0037584
0.00345711
0.00315596
0.00285496
0.00255409
0.00225333
0.00195267
0.00165211
0.00135162
0.0010512
0.000750819
0.000450478
0.000150157
0.000185256
0.00055578
0.000926337
0.00129695
0.00166764
0.00203842
0.00240933
0.00278037
0.00315158
0.00352297
0.00389455
0.00426636
0.0046384
0.0050107
0.00538326
0.00575611
0.00612927
0.00650274
0.00687653
0.00725066
0.00762514
0.00799998
0.00837518
0.00875075
0.00912669
0.00950301
0.0098797
0.0102568
0.0106342
0.011012
0.0113902
0.0117687
0.0121476
0.0125268
0.0129062
0.013286
0.0136661
0.0140464
0.0144269
0.0148076
0.0151884
0.0155694
0.0159504
0.0163315
0.0167126
0.0170936
0.0174745
0.0178552
0.0182357
0.0186159
0.0189958
0.0193752
0.0197541
0.0201325
0.0205101
0.020887
0.0212631
0.0216382
0.0220123
0.0223852
0.0227569
0.0231272
0.023496
0.0238632
0.0242287
0.0245924
0.024954
0.0253136
0.0256708
0.0260257
0.026378
0.0267276
0.0270744
0.0274181
0.0277587
0.0280959
0.0284296
0.0287597
0.0290859
0.0294081
0.029726
0.0300397
0.0303487
0.0306531
0.0309525
0.0312469
0.031536
0.0318196
0.0320976
0.0323698
0.0326361
0.0328962
0.0331499
0.0333972
0.0336378
0.0338715
0.0340983
0.0343178
0.0345301
0.0347349
0.0349321
0.0351216
0.0353032
0.0354767
0.0356421
0.0357993
0.0359481
0.0360884
0.0362202
0.0363432
0.0364576
0.0365631
0.0366598
0.0367475
0.0368262
0.0368959
0.0369565
0.037008
0.0370504
0.0370837
0.0371078
0.0371229
0.0371288
0.0371257
0.0371135
0.0370924
0.0370622
0.0370232
0.0369754
0.0369187
0.0368534
0.0367795
0.0366971
0.0366063
0.0365072
0.0363999
0.0362844
0.0361611
0.0360299
0.035891
0.0357445
0.0355905
0.0354293
0.035261
0.0350856
0.0349034
0.0347145
0.0345191
0.0343173
0.0341092
0.0338951
0.0336751
0.0334494
0.0332181
0.0329814
0.0327394
0.0324924
0.0322404
0.0319836
0.0317223
0.0314565
0.0311864
0.0309122
0.030634
0.0303519
0.0300662
0.029777
0.0294843
0.0291885
0.0288895
0.0285876
0.0282828
0.0279753
0.0276653
0.0273528
0.027038
0.026721
0.0264019
0.0260808
0.0257579
0.0254333
0.025107
0.0247791
0.0244499
0.0241192
0.0237873
0.0234543
0.0231201
0.022785
0.0224489
0.022112
0.0217743
0.021436
0.0210969
0.0207574
0.0204173
0.0200768
0.0197359
0.0193946
0.0190531
0.0187114
0.0183694
0.0180274
0.0176852
0.0173429
0.0170007
0.0166584
0.0163162
0.015974
0.015632