/*--------------------------------*- C++ -*----------------------------------*\
| =========                 |                                                 |
| \\      /  F ield         | OpenFOAM: The Open Source CFD Toolbox           |
|  \\    /   O peration     | Version:  v2012                                 |
|   \\  /    A nd           | Website:  www.openfoam.com                      |
|    \\/     M anipulation  |                                                 |
\*---------------------------------------------------------------------------*/
FoamFile
{
    version     2.0;
    format      ascii;
    class       volVectorField;
    location    "13";
    object      U;
}
// * * * * * * * * * * * * * * * * * * * * * * * * * * * * * * * * * * * * * //

dimensions      [0 1 -1 0 0 0 0];


internalField   nonuniform List<vector> 
65536
(
(0.000720097 -0.000720116 0)
(0.00216033 -0.000720158 0)
(0.00360069 -0.000720239 0)
(0.00504125 -0.000720359 0)
(0.00648209 -0.000720519 0)
(0.00792329 -0.000720718 0)
(0.00936493 -0.000720956 0)
(0.0108071 -0.000721231 0)
(0.0122498 -0.000721542 0)
(0.0136932 -0.00072189 0)
(0.0151373 -0.000722272 0)
(0.0165823 -0.000722687 0)
(0.0180281 -0.000723134 0)
(0.0194748 -0.000723612 0)
(0.0209225 -0.000724117 0)
(0.0223712 -0.00072465 0)
(0.0238211 -0.000725207 0)
(0.025272 -0.000725786 0)
(0.0267242 -0.000726386 0)
(0.0281776 -0.000727004 0)
(0.0296322 -0.000727636 0)
(0.0310881 -0.000728281 0)
(0.0325453 -0.000728936 0)
(0.0340038 -0.000729597 0)
(0.0354637 -0.000730262 0)
(0.0369249 -0.000730927 0)
(0.0383874 -0.000731588 0)
(0.0398512 -0.000732241 0)
(0.0413164 -0.000732884 0)
(0.0427828 -0.000733512 0)
(0.0442504 -0.00073412 0)
(0.0457193 -0.000734705 0)
(0.0471893 -0.000735262 0)
(0.0486604 -0.000735786 0)
(0.0501325 -0.000736272 0)
(0.0516055 -0.000736716 0)
(0.0530794 -0.000737112 0)
(0.054554 -0.000737455 0)
(0.0560293 -0.000737739 0)
(0.057505 -0.000737958 0)
(0.0589812 -0.000738108 0)
(0.0604575 -0.000738181 0)
(0.061934 -0.000738172 0)
(0.0634103 -0.000738075 0)
(0.0648864 -0.000737882 0)
(0.066362 -0.000737588 0)
(0.0678368 -0.000737185 0)
(0.0693108 -0.000736666 0)
(0.0707836 -0.000736025 0)
(0.072255 -0.000735255 0)
(0.0737248 -0.000734348 0)
(0.0751926 -0.000733297 0)
(0.0766581 -0.000732094 0)
(0.0781211 -0.000730732 0)
(0.0795812 -0.000729204 0)
(0.0810381 -0.000727501 0)
(0.0824914 -0.000725616 0)
(0.0839408 -0.000723542 0)
(0.0853858 -0.00072127 0)
(0.086826 -0.000718793 0)
(0.0882612 -0.000716103 0)
(0.0896907 -0.000713193 0)
(0.0911142 -0.000710054 0)
(0.0925311 -0.00070668 0)
(0.0939411 -0.000703062 0)
(0.0953436 -0.000699193 0)
(0.0967381 -0.000695067 0)
(0.0981242 -0.000690676 0)
(0.0995011 -0.000686013 0)
(0.100868 -0.000681072 0)
(0.102226 -0.000675846 0)
(0.103572 -0.000670329 0)
(0.104907 -0.000664515 0)
(0.106231 -0.000658398 0)
(0.107541 -0.000651973 0)
(0.108839 -0.000645235 0)
(0.110122 -0.000638179 0)
(0.111392 -0.000630802 0)
(0.112646 -0.000623099 0)
(0.113884 -0.000615068 0)
(0.115107 -0.000606704 0)
(0.116312 -0.000598007 0)
(0.117499 -0.000588973 0)
(0.118668 -0.000579603 0)
(0.119818 -0.000569894 0)
(0.120948 -0.000559846 0)
(0.122057 -0.000549461 0)
(0.123146 -0.000538739 0)
(0.124213 -0.000527681 0)
(0.125257 -0.00051629 0)
(0.126278 -0.000504568 0)
(0.127276 -0.000492519 0)
(0.128249 -0.000480147 0)
(0.129197 -0.000467457 0)
(0.130119 -0.000454454 0)
(0.131015 -0.000441145 0)
(0.131884 -0.000427535 0)
(0.132725 -0.000413633 0)
(0.133538 -0.000399446 0)
(0.134323 -0.000384983 0)
(0.135079 -0.000370252 0)
(0.135804 -0.000355265 0)
(0.1365 -0.000340031 0)
(0.137165 -0.000324561 0)
(0.137798 -0.000308866 0)
(0.1384 -0.00029296 0)
(0.13897 -0.000276853 0)
(0.139508 -0.000260559 0)
(0.140013 -0.000244091 0)
(0.140485 -0.000227463 0)
(0.140923 -0.000210689 0)
(0.141327 -0.000193783 0)
(0.141698 -0.000176761 0)
(0.142035 -0.000159636 0)
(0.142337 -0.000142425 0)
(0.142604 -0.000125142 0)
(0.142837 -0.000107802 0)
(0.143036 -9.04222e-05 0)
(0.143199 -7.30168e-05 0)
(0.143328 -5.56016e-05 0)
(0.143421 -3.81922e-05 0)
(0.14348 -2.0804e-05 0)
(0.143505 -3.45229e-06 0)
(0.143494 1.38478e-05 0)
(0.143449 3.10814e-05 0)
(0.14337 4.82337e-05 0)
(0.143256 6.52903e-05 0)
(0.143108 8.22371e-05 0)
(0.142927 9.90603e-05 0)
(0.142712 0.000115746 0)
(0.142464 0.000132282 0)
(0.142183 0.000148656 0)
(0.141869 0.000164854 0)
(0.141523 0.000180866 0)
(0.141145 0.00019668 0)
(0.140736 0.000212285 0)
(0.140296 0.000227672 0)
(0.139825 0.00024283 0)
(0.139324 0.000257751 0)
(0.138794 0.000272425 0)
(0.138235 0.000286846 0)
(0.137646 0.000301006 0)
(0.13703 0.000314897 0)
(0.136387 0.000328513 0)
(0.135716 0.00034185 0)
(0.135019 0.000354901 0)
(0.134296 0.000367662 0)
(0.133548 0.00038013 0)
(0.132775 0.0003923 0)
(0.131978 0.00040417 0)
(0.131158 0.000415738 0)
(0.130315 0.000427002 0)
(0.12945 0.00043796 0)
(0.128563 0.000448611 0)
(0.127655 0.000458956 0)
(0.126727 0.000468994 0)
(0.125779 0.000478727 0)
(0.124812 0.000488154 0)
(0.123826 0.000497278 0)
(0.122822 0.0005061 0)
(0.121801 0.000514622 0)
(0.120763 0.000522847 0)
(0.11971 0.000530778 0)
(0.11864 0.000538418 0)
(0.117556 0.000545771 0)
(0.116457 0.00055284 0)
(0.115344 0.000559629 0)
(0.114218 0.000566143 0)
(0.113079 0.000572386 0)
(0.111928 0.000578362 0)
(0.110765 0.000584078 0)
(0.109592 0.000589537 0)
(0.108407 0.000594745 0)
(0.107212 0.000599707 0)
(0.106008 0.000604429 0)
(0.104794 0.000608916 0)
(0.103572 0.000613175 0)
(0.102341 0.00061721 0)
(0.101103 0.000621028 0)
(0.0998571 0.000624634 0)
(0.0986043 0.000628034 0)
(0.0973448 0.000631235 0)
(0.0960791 0.000634242 0)
(0.0948076 0.00063706 0)
(0.0935307 0.000639697 0)
(0.0922487 0.000642158 0)
(0.0909619 0.000644448 0)
(0.0896707 0.000646575 0)
(0.0883755 0.000648542 0)
(0.0870764 0.000650357 0)
(0.0857739 0.000652025 0)
(0.0844682 0.000653551 0)
(0.0831595 0.000654942 0)
(0.0818483 0.000656202 0)
(0.0805346 0.000657337 0)
(0.0792188 0.000658353 0)
(0.0779011 0.000659254 0)
(0.0765817 0.000660047 0)
(0.0752608 0.000660735 0)
(0.0739386 0.000661324 0)
(0.0726154 0.000661819 0)
(0.0712913 0.000662225 0)
(0.0699664 0.000662546 0)
(0.068641 0.000662787 0)
(0.0673152 0.000662953 0)
(0.0659891 0.000663047 0)
(0.064663 0.000663075 0)
(0.0633368 0.000663039 0)
(0.0620107 0.000662945 0)
(0.0606849 0.000662797 0)
(0.0593595 0.000662597 0)
(0.0580345 0.000662351 0)
(0.0567101 0.000662061 0)
(0.0553862 0.000661731 0)
(0.0540631 0.000661365 0)
(0.0527407 0.000660966 0)
(0.0514192 0.000660536 0)
(0.0500986 0.00066008 0)
(0.0487789 0.000659601 0)
(0.0474601 0.0006591 0)
(0.0461424 0.000658582 0)
(0.0448258 0.000658048 0)
(0.0435102 0.000657502 0)
(0.0421958 0.000656946 0)
(0.0408824 0.000656383 0)
(0.0395702 0.000655814 0)
(0.0382592 0.000655242 0)
(0.0369493 0.00065467 0)
(0.0356405 0.000654098 0)
(0.0343329 0.000653531 0)
(0.0330264 0.000652968 0)
(0.031721 0.000652413 0)
(0.0304168 0.000651867 0)
(0.0291136 0.000651331 0)
(0.0278115 0.000650808 0)
(0.0265104 0.000650298 0)
(0.0252103 0.000649803 0)
(0.0239112 0.000649325 0)
(0.022613 0.000648864 0)
(0.0213157 0.000648423 0)
(0.0200193 0.000648002 0)
(0.0187237 0.000647602 0)
(0.0174289 0.000647224 0)
(0.0161349 0.00064687 0)
(0.0148415 0.000646539 0)
(0.0135487 0.000646233 0)
(0.0122566 0.000645953 0)
(0.010965 0.000645699 0)
(0.00967382 0.000645472 0)
(0.0083831 0.000645272 0)
(0.00709276 0.0006451 0)
(0.00580273 0.000644956 0)
(0.00451296 0.00064484 0)
(0.0032234 0.000644753 0)
(0.00193398 0.000644695 0)
(0.000644651 0.000644666 0)
(0.000720058 -0.00216031 0)
(0.00216021 -0.00216044 0)
(0.00360049 -0.00216068 0)
(0.00504097 -0.00216104 0)
(0.00648174 -0.00216152 0)
(0.00792286 -0.00216212 0)
(0.00936442 -0.00216283 0)
(0.0108065 -0.00216366 0)
(0.0122492 -0.00216459 0)
(0.0136925 -0.00216564 0)
(0.0151366 -0.00216679 0)
(0.0165814 -0.00216803 0)
(0.0180271 -0.00216938 0)
(0.0194738 -0.00217081 0)
(0.0209215 -0.00217233 0)
(0.0223701 -0.00217393 0)
(0.0238199 -0.0021756 0)
(0.0252709 -0.00217734 0)
(0.026723 -0.00217914 0)
(0.0281763 -0.002181 0)
(0.0296309 -0.0021829 0)
(0.0310868 -0.00218484 0)
(0.032544 -0.0021868 0)
(0.0340025 -0.00218879 0)
(0.0354624 -0.00219079 0)
(0.0369236 -0.00219278 0)
(0.0383861 -0.00219477 0)
(0.03985 -0.00219674 0)
(0.0413151 -0.00219867 0)
(0.0427816 -0.00220056 0)
(0.0442493 -0.00220239 0)
(0.0457182 -0.00220414 0)
(0.0471882 -0.00220582 0)
(0.0486594 -0.0022074 0)
(0.0501316 -0.00220886 0)
(0.0516047 -0.0022102 0)
(0.0530787 -0.00221139 0)
(0.0545534 -0.00221242 0)
(0.0560288 -0.00221328 0)
(0.0575047 -0.00221395 0)
(0.058981 -0.0022144 0)
(0.0604575 -0.00221463 0)
(0.0619341 -0.00221461 0)
(0.0634106 -0.00221432 0)
(0.0648869 -0.00221375 0)
(0.0663627 -0.00221287 0)
(0.0678378 -0.00221167 0)
(0.069312 -0.00221012 0)
(0.0707851 -0.00220821 0)
(0.0722568 -0.0022059 0)
(0.0737268 -0.00220319 0)
(0.0751949 -0.00220004 0)
(0.0766607 -0.00219644 0)
(0.078124 -0.00219236 0)
(0.0795845 -0.00218779 0)
(0.0810417 -0.00218269 0)
(0.0824954 -0.00217704 0)
(0.0839451 -0.00217082 0)
(0.0853906 -0.00216402 0)
(0.0868312 -0.00215659 0)
(0.0882668 -0.00214853 0)
(0.0896968 -0.00213981 0)
(0.0911207 -0.0021304 0)
(0.0925382 -0.00212028 0)
(0.0939486 -0.00210944 0)
(0.0953517 -0.00209784 0)
(0.0967467 -0.00208547 0)
(0.0981332 -0.0020723 0)
(0.0995108 -0.00205832 0)
(0.100879 -0.0020435 0)
(0.102236 -0.00202783 0)
(0.103584 -0.00201128 0)
(0.104919 -0.00199384 0)
(0.106243 -0.0019755 0)
(0.107554 -0.00195623 0)
(0.108853 -0.00193602 0)
(0.110137 -0.00191486 0)
(0.111407 -0.00189273 0)
(0.112662 -0.00186962 0)
(0.113901 -0.00184553 0)
(0.115124 -0.00182044 0)
(0.116329 -0.00179435 0)
(0.117517 -0.00176725 0)
(0.118687 -0.00173914 0)
(0.119837 -0.00171002 0)
(0.120968 -0.00167987 0)
(0.122079 -0.00164872 0)
(0.123168 -0.00161655 0)
(0.124235 -0.00158337 0)
(0.12528 -0.0015492 0)
(0.126302 -0.00151403 0)
(0.1273 -0.00147788 0)
(0.128274 -0.00144076 0)
(0.129222 -0.00140268 0)
(0.130145 -0.00136367 0)
(0.131042 -0.00132373 0)
(0.131911 -0.0012829 0)
(0.132753 -0.00124118 0)
(0.133567 -0.00119861 0)
(0.134352 -0.00115521 0)
(0.135108 -0.00111101 0)
(0.135835 -0.00106604 0)
(0.136531 -0.00102032 0)
(0.137196 -0.000973903 0)
(0.13783 -0.000926808 0)
(0.138432 -0.000879075 0)
(0.139003 -0.000830741 0)
(0.139541 -0.000781846 0)
(0.140046 -0.000732429 0)
(0.140518 -0.000682531 0)
(0.140956 -0.000632195 0)
(0.141361 -0.000581464 0)
(0.141732 -0.000530381 0)
(0.142069 -0.000478993 0)
(0.142371 -0.000427343 0)
(0.142639 -0.000375478 0)
(0.142872 -0.000323444 0)
(0.14307 -0.000271288 0)
(0.143234 -0.000219057 0)
(0.143362 -0.000166796 0)
(0.143456 -0.000114552 0)
(0.143515 -6.23723e-05 0)
(0.143539 -1.0302e-05 0)
(0.143529 4.16132e-05 0)
(0.143483 9.33285e-05 0)
(0.143404 0.0001448 0)
(0.14329 0.000195984 0)
(0.143142 0.000246838 0)
(0.14296 0.000297321 0)
(0.142745 0.000347392 0)
(0.142497 0.000397013 0)
(0.142215 0.000446144 0)
(0.141901 0.000494751 0)
(0.141555 0.000542798 0)
(0.141177 0.00059025 0)
(0.140767 0.000637076 0)
(0.140327 0.000683246 0)
(0.139855 0.000728729 0)
(0.139354 0.0007735 0)
(0.138823 0.000817532 0)
(0.138263 0.000860802 0)
(0.137674 0.000903287 0)
(0.137058 0.000944966 0)
(0.136413 0.000985821 0)
(0.135742 0.00102584 0)
(0.135045 0.00106499 0)
(0.134321 0.00110328 0)
(0.133573 0.00114069 0)
(0.132799 0.0011772 0)
(0.132002 0.00121281 0)
(0.131181 0.00124752 0)
(0.130337 0.00128131 0)
(0.129471 0.00131419 0)
(0.128584 0.00134614 0)
(0.127675 0.00137718 0)
(0.126747 0.00140729 0)
(0.125798 0.00143649 0)
(0.12483 0.00146477 0)
(0.123844 0.00149214 0)
(0.12284 0.0015186 0)
(0.121818 0.00154416 0)
(0.12078 0.00156884 0)
(0.119725 0.00159263 0)
(0.118655 0.00161554 0)
(0.11757 0.0016376 0)
(0.11647 0.0016588 0)
(0.115357 0.00167916 0)
(0.114231 0.0016987 0)
(0.113091 0.00171742 0)
(0.11194 0.00173535 0)
(0.110777 0.00175249 0)
(0.109602 0.00176886 0)
(0.108417 0.00178448 0)
(0.107222 0.00179936 0)
(0.106017 0.00181352 0)
(0.104803 0.00182698 0)
(0.10358 0.00183975 0)
(0.102349 0.00185185 0)
(0.10111 0.00186329 0)
(0.0998641 0.00187411 0)
(0.0986108 0.0018843 0)
(0.0973509 0.0018939 0)
(0.0960849 0.00190291 0)
(0.094813 0.00191136 0)
(0.0935357 0.00191927 0)
(0.0922534 0.00192664 0)
(0.0909663 0.00193351 0)
(0.0896748 0.00193988 0)
(0.0883792 0.00194578 0)
(0.0870798 0.00195122 0)
(0.085777 0.00195621 0)
(0.084471 0.00196079 0)
(0.0831621 0.00196495 0)
(0.0818506 0.00196873 0)
(0.0805367 0.00197213 0)
(0.0792207 0.00197517 0)
(0.0779027 0.00197787 0)
(0.0765831 0.00198024 0)
(0.075262 0.0019823 0)
(0.0739397 0.00198406 0)
(0.0726163 0.00198555 0)
(0.071292 0.00198676 0)
(0.0699669 0.00198772 0)
(0.0686414 0.00198844 0)
(0.0673154 0.00198893 0)
(0.0659892 0.00198921 0)
(0.0646629 0.00198928 0)
(0.0633366 0.00198917 0)
(0.0620104 0.00198889 0)
(0.0606845 0.00198844 0)
(0.059359 0.00198784 0)
(0.0580339 0.00198709 0)
(0.0567094 0.00198622 0)
(0.0553855 0.00198523 0)
(0.0540623 0.00198413 0)
(0.0527399 0.00198292 0)
(0.0514183 0.00198163 0)
(0.0500976 0.00198026 0)
(0.0487778 0.00197882 0)
(0.0474591 0.00197732 0)
(0.0461414 0.00197576 0)
(0.0448247 0.00197416 0)
(0.0435091 0.00197252 0)
(0.0421946 0.00197084 0)
(0.0408813 0.00196915 0)
(0.0395691 0.00196744 0)
(0.038258 0.00196572 0)
(0.0369481 0.00196401 0)
(0.0356394 0.00196229 0)
(0.0343317 0.00196059 0)
(0.0330253 0.0019589 0)
(0.0317199 0.00195723 0)
(0.0304157 0.00195559 0)
(0.0291125 0.00195398 0)
(0.0278104 0.00195241 0)
(0.0265093 0.00195088 0)
(0.0252093 0.00194939 0)
(0.0239102 0.00194795 0)
(0.0226121 0.00194657 0)
(0.0213149 0.00194525 0)
(0.0200185 0.00194398 0)
(0.018723 0.00194278 0)
(0.0174282 0.00194165 0)
(0.0161342 0.00194058 0)
(0.0148408 0.00193959 0)
(0.0135481 0.00193867 0)
(0.012256 0.00193783 0)
(0.0109645 0.00193707 0)
(0.00967338 0.00193639 0)
(0.00838272 0.00193579 0)
(0.00709244 0.00193527 0)
(0.00580247 0.00193484 0)
(0.00451276 0.00193449 0)
(0.00322326 0.00193423 0)
(0.0019339 0.00193405 0)
(0.000644622 0.00193397 0)
(0.000719977 -0.00360039 0)
(0.00215997 -0.00360059 0)
(0.00360009 -0.003601 0)
(0.00504041 -0.0036016 0)
(0.00648101 -0.0036024 0)
(0.00792198 -0.0036034 0)
(0.00936339 -0.00360459 0)
(0.0108053 -0.00360597 0)
(0.0122478 -0.00360754 0)
(0.013691 -0.00360928 0)
(0.015135 -0.0036112 0)
(0.0165797 -0.00361328 0)
(0.0180253 -0.00361552 0)
(0.0194718 -0.00361792 0)
(0.0209194 -0.00362046 0)
(0.022368 -0.00362313 0)
(0.0238176 -0.00362593 0)
(0.0252685 -0.00362883 0)
(0.0267205 -0.00363185 0)
(0.0281738 -0.00363495 0)
(0.0296284 -0.00363812 0)
(0.0310842 -0.00364136 0)
(0.0325414 -0.00364465 0)
(0.0339999 -0.00364797 0)
(0.0354597 -0.00365131 0)
(0.0369209 -0.00365465 0)
(0.0383835 -0.00365798 0)
(0.0398474 -0.00366127 0)
(0.0413126 -0.0036645 0)
(0.0427791 -0.00366766 0)
(0.0442469 -0.00367072 0)
(0.0457159 -0.00367367 0)
(0.0471861 -0.00367648 0)
(0.0486574 -0.00367912 0)
(0.0501297 -0.00368158 0)
(0.051603 -0.00368382 0)
(0.0530772 -0.00368583 0)
(0.0545521 -0.00368757 0)
(0.0560278 -0.00368902 0)
(0.0575039 -0.00369015 0)
(0.0589805 -0.00369092 0)
(0.0604574 -0.00369132 0)
(0.0619343 -0.00369131 0)
(0.0634112 -0.00369085 0)
(0.0648878 -0.00368992 0)
(0.066364 -0.00368848 0)
(0.0678396 -0.0036865 0)
(0.0693143 -0.00368394 0)
(0.0707879 -0.00368078 0)
(0.0722601 -0.00367696 0)
(0.0737307 -0.00367246 0)
(0.0751993 -0.00366724 0)
(0.0766658 -0.00366127 0)
(0.0781298 -0.0036545 0)
(0.0795909 -0.00364689 0)
(0.0810489 -0.00363842 0)
(0.0825033 -0.00362903 0)
(0.0839538 -0.0036187 0)
(0.0854 -0.00360738 0)
(0.0868415 -0.00359503 0)
(0.088278 -0.00358162 0)
(0.0897088 -0.0035671 0)
(0.0911337 -0.00355145 0)
(0.0925521 -0.00353461 0)
(0.0939636 -0.00351656 0)
(0.0953676 -0.00349725 0)
(0.0967637 -0.00347666 0)
(0.0981513 -0.00345474 0)
(0.0995299 -0.00343146 0)
(0.100899 -0.00340678 0)
(0.102258 -0.00338068 0)
(0.103606 -0.00335313 0)
(0.104943 -0.00332408 0)
(0.106268 -0.00329353 0)
(0.107581 -0.00326143 0)
(0.10888 -0.00322776 0)
(0.110166 -0.0031925 0)
(0.111437 -0.00315563 0)
(0.112693 -0.00311714 0)
(0.113934 -0.00307699 0)
(0.115158 -0.00303519 0)
(0.116365 -0.00299171 0)
(0.117554 -0.00294655 0)
(0.118725 -0.0028997 0)
(0.119877 -0.00285116 0)
(0.121009 -0.00280092 0)
(0.122121 -0.00274899 0)
(0.123211 -0.00269537 0)
(0.12428 -0.00264006 0)
(0.125326 -0.00258309 0)
(0.12635 -0.00252447 0)
(0.127349 -0.0024642 0)
(0.128324 -0.00240232 0)
(0.129274 -0.00233884 0)
(0.130198 -0.0022738 0)
(0.131095 -0.00220722 0)
(0.131966 -0.00213913 0)
(0.132809 -0.00206958 0)
(0.133624 -0.0019986 0)
(0.134411 -0.00192624 0)
(0.135168 -0.00185254 0)
(0.135895 -0.00177755 0)
(0.136592 -0.00170133 0)
(0.137258 -0.00162392 0)
(0.137893 -0.00154539 0)
(0.138497 -0.00146579 0)
(0.139068 -0.00138519 0)
(0.139606 -0.00130365 0)
(0.140112 -0.00122125 0)
(0.140585 -0.00113804 0)
(0.141024 -0.0010541 0)
(0.141429 -0.000969495 0)
(0.141801 -0.000884308 0)
(0.142138 -0.00079861 0)
(0.14244 -0.000712476 0)
(0.142708 -0.000625983 0)
(0.142942 -0.000539209 0)
(0.14314 -0.00045223 0)
(0.143304 -0.000365126 0)
(0.143432 -0.000277972 0)
(0.143526 -0.000190848 0)
(0.143585 -0.000103831 0)
(0.143609 -1.69969e-05 0)
(0.143598 6.95783e-05 0)
(0.143552 0.00015582 0)
(0.143472 0.000241653 0)
(0.143358 0.000327007 0)
(0.14321 0.00041181 0)
(0.143028 0.000495993 0)
(0.142812 0.000579488 0)
(0.142563 0.000662231 0)
(0.142281 0.000744158 0)
(0.141966 0.000825209 0)
(0.141619 0.000905323 0)
(0.14124 0.000984446 0)
(0.140829 0.00106252 0)
(0.140388 0.00113951 0)
(0.139916 0.00121534 0)
(0.139413 0.00128999 0)
(0.138881 0.0013634 0)
(0.13832 0.00143554 0)
(0.137731 0.00150637 0)
(0.137113 0.00157586 0)
(0.136467 0.00164397 0)
(0.135795 0.00171068 0)
(0.135096 0.00177596 0)
(0.134372 0.00183978 0)
(0.133622 0.00190214 0)
(0.132847 0.001963 0)
(0.132049 0.00202237 0)
(0.131227 0.00208021 0)
(0.130382 0.00213654 0)
(0.129515 0.00219133 0)
(0.128626 0.00224459 0)
(0.127716 0.00229632 0)
(0.126786 0.0023465 0)
(0.125836 0.00239516 0)
(0.124867 0.00244229 0)
(0.12388 0.0024879 0)
(0.122874 0.002532 0)
(0.121851 0.0025746 0)
(0.120812 0.00261571 0)
(0.119756 0.00265535 0)
(0.118685 0.00269353 0)
(0.117599 0.00273027 0)
(0.116498 0.0027656 0)
(0.115384 0.00279952 0)
(0.114256 0.00283207 0)
(0.113116 0.00286326 0)
(0.111963 0.00289312 0)
(0.110799 0.00292167 0)
(0.109623 0.00294894 0)
(0.108437 0.00297495 0)
(0.107241 0.00299973 0)
(0.106036 0.00302332 0)
(0.104821 0.00304573 0)
(0.103597 0.00306699 0)
(0.102365 0.00308713 0)
(0.101125 0.00310619 0)
(0.0998781 0.00312419 0)
(0.098624 0.00314117 0)
(0.0973633 0.00315714 0)
(0.0960965 0.00317214 0)
(0.0948239 0.00318621 0)
(0.0935459 0.00319936 0)
(0.0922629 0.00321164 0)
(0.0909751 0.00322306 0)
(0.0896829 0.00323366 0)
(0.0883867 0.00324347 0)
(0.0870868 0.00325252 0)
(0.0857834 0.00326083 0)
(0.0844769 0.00326843 0)
(0.0831674 0.00327536 0)
(0.0818554 0.00328163 0)
(0.080541 0.00328728 0)
(0.0792245 0.00329233 0)
(0.0779061 0.00329681 0)
(0.0765861 0.00330075 0)
(0.0752646 0.00330417 0)
(0.0739418 0.00330709 0)
(0.0726181 0.00330954 0)
(0.0712934 0.00331154 0)
(0.0699681 0.00331313 0)
(0.0686422 0.00331431 0)
(0.0673159 0.00331512 0)
(0.0659895 0.00331557 0)
(0.0646629 0.00331568 0)
(0.0633363 0.00331549 0)
(0.06201 0.003315 0)
(0.0606839 0.00331423 0)
(0.0593581 0.00331322 0)
(0.0580329 0.00331197 0)
(0.0567082 0.0033105 0)
(0.0553841 0.00330883 0)
(0.0540608 0.00330699 0)
(0.0527382 0.00330497 0)
(0.0514165 0.00330281 0)
(0.0500957 0.00330052 0)
(0.0487759 0.0032981 0)
(0.047457 0.00329559 0)
(0.0461393 0.00329298 0)
(0.0448225 0.0032903 0)
(0.0435069 0.00328756 0)
(0.0421924 0.00328477 0)
(0.040879 0.00328193 0)
(0.0395668 0.00327908 0)
(0.0382557 0.00327621 0)
(0.0369458 0.00327334 0)
(0.0356371 0.00327047 0)
(0.0343295 0.00326762 0)
(0.033023 0.0032648 0)
(0.0317177 0.00326202 0)
(0.0304135 0.00325928 0)
(0.0291104 0.00325659 0)
(0.0278083 0.00325397 0)
(0.0265073 0.00325141 0)
(0.0252073 0.00324893 0)
(0.0239083 0.00324653 0)
(0.0226103 0.00324422 0)
(0.0213131 0.00324201 0)
(0.0200168 0.0032399 0)
(0.0187214 0.0032379 0)
(0.0174267 0.003236 0)
(0.0161328 0.00323422 0)
(0.0148396 0.00323257 0)
(0.013547 0.00323104 0)
(0.012255 0.00322963 0)
(0.0109635 0.00322836 0)
(0.00967253 0.00322722 0)
(0.00838198 0.00322622 0)
(0.0070918 0.00322535 0)
(0.00580195 0.00322463 0)
(0.00451235 0.00322405 0)
(0.00322296 0.00322362 0)
(0.00193372 0.00322333 0)
(0.000644564 0.00322318 0)
(0.000719855 -0.00504026 0)
(0.00215961 -0.00504055 0)
(0.00359948 -0.00504112 0)
(0.00503956 -0.00504196 0)
(0.00647993 -0.00504309 0)
(0.00792066 -0.00504449 0)
(0.00936184 -0.00504617 0)
(0.0108035 -0.00504811 0)
(0.0122458 -0.0050503 0)
(0.0136888 -0.00505275 0)
(0.0151325 -0.00505544 0)
(0.0165771 -0.00505837 0)
(0.0180225 -0.00506152 0)
(0.0194689 -0.00506489 0)
(0.0209162 -0.00506845 0)
(0.0223647 -0.00507221 0)
(0.0238142 -0.00507614 0)
(0.0252649 -0.00508023 0)
(0.0267168 -0.00508446 0)
(0.02817 -0.00508882 0)
(0.0296245 -0.00509328 0)
(0.0310803 -0.00509784 0)
(0.0325374 -0.00510247 0)
(0.0339958 -0.00510714 0)
(0.0354557 -0.00511184 0)
(0.0369169 -0.00511654 0)
(0.0383795 -0.00512122 0)
(0.0398434 -0.00512585 0)
(0.0413087 -0.0051304 0)
(0.0427753 -0.00513486 0)
(0.0442432 -0.00513917 0)
(0.0457124 -0.00514333 0)
(0.0471827 -0.00514729 0)
(0.0486543 -0.00515103 0)
(0.0501268 -0.0051545 0)
(0.0516004 -0.00515768 0)
(0.0530749 -0.00516053 0)
(0.0545502 -0.00516301 0)
(0.0560262 -0.00516507 0)
(0.0575027 -0.00516669 0)
(0.0589798 -0.00516783 0)
(0.0604571 -0.00516843 0)
(0.0619345 -0.00516845 0)
(0.063412 -0.00516786 0)
(0.0648892 -0.0051666 0)
(0.066366 -0.00516463 0)
(0.0678423 -0.00516191 0)
(0.0693177 -0.00515838 0)
(0.070792 -0.00515399 0)
(0.072265 -0.0051487 0)
(0.0737364 -0.00514245 0)
(0.075206 -0.0051352 0)
(0.0766734 -0.00512689 0)
(0.0781384 -0.00511746 0)
(0.0796005 -0.00510687 0)
(0.0810595 -0.00509506 0)
(0.0825151 -0.00508197 0)
(0.0839667 -0.00506756 0)
(0.0854142 -0.00505176 0)
(0.0868569 -0.00503453 0)
(0.0882947 -0.00501581 0)
(0.0897269 -0.00499554 0)
(0.0911531 -0.00497368 0)
(0.092573 -0.00495016 0)
(0.0939859 -0.00492494 0)
(0.0953915 -0.00489796 0)
(0.0967892 -0.00486918 0)
(0.0981784 -0.00483854 0)
(0.0995587 -0.00480599 0)
(0.100929 -0.00477149 0)
(0.10229 -0.004735 0)
(0.10364 -0.00469646 0)
(0.104979 -0.00465584 0)
(0.106306 -0.00461309 0)
(0.10762 -0.00456819 0)
(0.108921 -0.00452109 0)
(0.110209 -0.00447176 0)
(0.111482 -0.00442017 0)
(0.11274 -0.0043663 0)
(0.113983 -0.00431012 0)
(0.115209 -0.00425161 0)
(0.116418 -0.00419075 0)
(0.117609 -0.00412753 0)
(0.118782 -0.00406195 0)
(0.119936 -0.00399399 0)
(0.12107 -0.00392365 0)
(0.122184 -0.00385094 0)
(0.123277 -0.00377586 0)
(0.124347 -0.00369843 0)
(0.125396 -0.00361865 0)
(0.126421 -0.00353655 0)
(0.127422 -0.00345215 0)
(0.128399 -0.00336548 0)
(0.129351 -0.00327658 0)
(0.130277 -0.00318547 0)
(0.131176 -0.00309221 0)
(0.132049 -0.00299684 0)
(0.132894 -0.00289941 0)
(0.13371 -0.00279998 0)
(0.134498 -0.00269861 0)
(0.135257 -0.00259536 0)
(0.135986 -0.0024903 0)
(0.136684 -0.00238351 0)
(0.137352 -0.00227506 0)
(0.137988 -0.00216503 0)
(0.138593 -0.00205351 0)
(0.139165 -0.00194058 0)
(0.139705 -0.00182634 0)
(0.140212 -0.00171087 0)
(0.140685 -0.00159428 0)
(0.141125 -0.00147666 0)
(0.141531 -0.00135811 0)
(0.141903 -0.00123875 0)
(0.142241 -0.00111866 0)
(0.142544 -0.000997969 0)
(0.142812 -0.000876771 0)
(0.143046 -0.000755178 0)
(0.143245 -0.000633299 0)
(0.143408 -0.000511244 0)
(0.143537 -0.00038912 0)
(0.14363 -0.000267039 0)
(0.143689 -0.000145107 0)
(0.143713 -2.34332e-05 0)
(0.143702 9.78769e-05 0)
(0.143656 0.000218718 0)
(0.143575 0.000338986 0)
(0.14346 0.000458581 0)
(0.143311 0.000577401 0)
(0.143128 0.000695352 0)
(0.142912 0.000812337 0)
(0.142662 0.000928266 0)
(0.142378 0.00104305 0)
(0.142063 0.0011566 0)
(0.141714 0.00126884 0)
(0.141334 0.00137969 0)
(0.140922 0.00148907 0)
(0.140479 0.00159691 0)
(0.140006 0.00170314 0)
(0.139502 0.00180771 0)
(0.138969 0.00191054 0)
(0.138406 0.00201159 0)
(0.137815 0.0021108 0)
(0.137195 0.00220813 0)
(0.136548 0.00230352 0)
(0.135874 0.00239695 0)
(0.135174 0.00248837 0)
(0.134447 0.00257776 0)
(0.133696 0.00266508 0)
(0.132919 0.00275031 0)
(0.132119 0.00283343 0)
(0.131295 0.00291443 0)
(0.130449 0.0029933 0)
(0.12958 0.00307001 0)
(0.128689 0.00314458 0)
(0.127777 0.00321699 0)
(0.126845 0.00328725 0)
(0.125894 0.00335536 0)
(0.124923 0.00342133 0)
(0.123934 0.00348517 0)
(0.122926 0.00354689 0)
(0.121902 0.00360651 0)
(0.12086 0.00366405 0)
(0.119803 0.00371952 0)
(0.11873 0.00377295 0)
(0.117642 0.00382437 0)
(0.11654 0.0038738 0)
(0.115424 0.00392126 0)
(0.114294 0.00396679 0)
(0.113152 0.00401043 0)
(0.111998 0.00405219 0)
(0.110832 0.00409213 0)
(0.109655 0.00413027 0)
(0.108468 0.00416665 0)
(0.10727 0.00420131 0)
(0.106063 0.00423429 0)
(0.104847 0.00426562 0)
(0.103622 0.00429535 0)
(0.102388 0.00432351 0)
(0.101147 0.00435015 0)
(0.0998991 0.00437531 0)
(0.0986438 0.00439903 0)
(0.0973819 0.00442135 0)
(0.096114 0.00444232 0)
(0.0948403 0.00446197 0)
(0.0935612 0.00448034 0)
(0.0922771 0.00449748 0)
(0.0909883 0.00451343 0)
(0.0896952 0.00452824 0)
(0.088398 0.00454193 0)
(0.0870972 0.00455455 0)
(0.0857929 0.00456615 0)
(0.0844856 0.00457675 0)
(0.0831753 0.00458641 0)
(0.0818625 0.00459516 0)
(0.0805474 0.00460303 0)
(0.0792302 0.00461006 0)
(0.0779112 0.0046163 0)
(0.0765905 0.00462178 0)
(0.0752684 0.00462652 0)
(0.0739451 0.00463058 0)
(0.0726207 0.00463398 0)
(0.0712956 0.00463675 0)
(0.0699697 0.00463894 0)
(0.0686434 0.00464056 0)
(0.0673167 0.00464166 0)
(0.0659898 0.00464226 0)
(0.0646628 0.00464239 0)
(0.0633359 0.00464209 0)
(0.0620092 0.00464138 0)
(0.0606828 0.00464028 0)
(0.0593568 0.00463884 0)
(0.0580312 0.00463706 0)
(0.0567063 0.00463498 0)
(0.055382 0.00463262 0)
(0.0540584 0.00463001 0)
(0.0527357 0.00462717 0)
(0.0514138 0.00462412 0)
(0.0500929 0.00462089 0)
(0.0487729 0.00461749 0)
(0.047454 0.00461395 0)
(0.0461361 0.00461028 0)
(0.0448193 0.00460651 0)
(0.0435036 0.00460265 0)
(0.042189 0.00459872 0)
(0.0408756 0.00459474 0)
(0.0395634 0.00459073 0)
(0.0382523 0.0045867 0)
(0.0369424 0.00458266 0)
(0.0356337 0.00457864 0)
(0.0343261 0.00457464 0)
(0.0330197 0.00457067 0)
(0.0317144 0.00456676 0)
(0.0304102 0.00456291 0)
(0.0291072 0.00455914 0)
(0.0278052 0.00455546 0)
(0.0265043 0.00455187 0)
(0.0252044 0.00454838 0)
(0.0239055 0.00454502 0)
(0.0226076 0.00454178 0)
(0.0213105 0.00453867 0)
(0.0200144 0.00453571 0)
(0.0187191 0.0045329 0)
(0.0174245 0.00453024 0)
(0.0161307 0.00452775 0)
(0.0148377 0.00452542 0)
(0.0135452 0.00452327 0)
(0.0122534 0.0045213 0)
(0.0109621 0.00451951 0)
(0.00967124 0.00451792 0)
(0.00838086 0.00451651 0)
(0.00709085 0.0045153 0)
(0.00580117 0.00451429 0)
(0.00451174 0.00451347 0)
(0.00322253 0.00451286 0)
(0.00193346 0.00451246 0)
(0.000644476 0.00451225 0)
(0.000719692 -0.00647985 0)
(0.00215912 -0.00648022 0)
(0.00359867 -0.00648095 0)
(0.00503843 -0.00648205 0)
(0.00647847 -0.0064835 0)
(0.00791889 -0.00648531 0)
(0.00935976 -0.00648747 0)
(0.0108012 -0.00648998 0)
(0.0122432 -0.00649281 0)
(0.0136859 -0.00649598 0)
(0.0151293 -0.00649945 0)
(0.0165736 -0.00650324 0)
(0.0180187 -0.00650731 0)
(0.0194649 -0.00651165 0)
(0.020912 -0.00651626 0)
(0.0223602 -0.00652111 0)
(0.0238096 -0.00652619 0)
(0.0252601 -0.00653147 0)
(0.0267119 -0.00653694 0)
(0.0281649 -0.00654258 0)
(0.0296193 -0.00654835 0)
(0.031075 -0.00655425 0)
(0.032532 -0.00656023 0)
(0.0339904 -0.00656628 0)
(0.0354503 -0.00657236 0)
(0.0369115 -0.00657845 0)
(0.0383741 -0.00658451 0)
(0.0398381 -0.00659051 0)
(0.0413035 -0.00659641 0)
(0.0427703 -0.00660218 0)
(0.0442383 -0.00660779 0)
(0.0457077 -0.00661319 0)
(0.0471783 -0.00661834 0)
(0.0486501 -0.0066232 0)
(0.050123 -0.00662773 0)
(0.0515969 -0.00663188 0)
(0.0530718 -0.0066356 0)
(0.0545475 -0.00663885 0)
(0.056024 -0.00664158 0)
(0.0575011 -0.00664373 0)
(0.0589787 -0.00664526 0)
(0.0604567 -0.0066461 0)
(0.0619348 -0.00664621 0)
(0.063413 -0.00664553 0)
(0.064891 -0.00664399 0)
(0.0663687 -0.00664154 0)
(0.0678458 -0.00663812 0)
(0.0693221 -0.00663367 0)
(0.0707975 -0.00662811 0)
(0.0722715 -0.0066214 0)
(0.0737441 -0.00661346 0)
(0.0752148 -0.00660422 0)
(0.0766835 -0.00659362 0)
(0.0781497 -0.00658159 0)
(0.0796132 -0.00656806 0)
(0.0810737 -0.00655297 0)
(0.0825307 -0.00653624 0)
(0.0839839 -0.0065178 0)
(0.085433 -0.00649759 0)
(0.0868774 -0.00647553 0)
(0.0883169 -0.00645155 0)
(0.0897509 -0.00642558 0)
(0.091179 -0.00639756 0)
(0.0926008 -0.00636741 0)
(0.0940157 -0.00633508 0)
(0.0954233 -0.00630048 0)
(0.0968231 -0.00626355 0)
(0.0982144 -0.00622424 0)
(0.0995969 -0.00618248 0)
(0.10097 -0.0061382 0)
(0.102333 -0.00609135 0)
(0.103685 -0.00604188 0)
(0.105026 -0.00598972 0)
(0.106356 -0.00593482 0)
(0.107673 -0.00587715 0)
(0.108977 -0.00581664 0)
(0.110267 -0.00575327 0)
(0.111542 -0.00568699 0)
(0.112803 -0.00561777 0)
(0.114048 -0.00554557 0)
(0.115277 -0.00547037 0)
(0.116489 -0.00539215 0)
(0.117683 -0.00531089 0)
(0.118859 -0.00522658 0)
(0.120015 -0.0051392 0)
(0.121152 -0.00504877 0)
(0.122269 -0.00495527 0)
(0.123364 -0.00485872 0)
(0.124437 -0.00475913 0)
(0.125488 -0.00465653 0)
(0.126516 -0.00455093 0)
(0.12752 -0.00444237 0)
(0.128499 -0.00433088 0)
(0.129454 -0.00421651 0)
(0.130382 -0.0040993 0)
(0.131284 -0.00397931 0)
(0.132159 -0.00385661 0)
(0.133006 -0.00373124 0)
(0.133825 -0.0036033 0)
(0.134615 -0.00347286 0)
(0.135376 -0.00333999 0)
(0.136107 -0.00320479 0)
(0.136807 -0.00306736 0)
(0.137477 -0.00292778 0)
(0.138115 -0.00278617 0)
(0.138721 -0.00264264 0)
(0.139295 -0.00249729 0)
(0.139836 -0.00235024 0)
(0.140344 -0.00220162 0)
(0.140819 -0.00205154 0)
(0.14126 -0.00190014 0)
(0.141667 -0.00174755 0)
(0.14204 -0.0015939 0)
(0.142379 -0.00143933 0)
(0.142682 -0.00128397 0)
(0.142951 -0.00112795 0)
(0.143185 -0.000971434 0)
(0.143384 -0.000814545 0)
(0.143548 -0.00065743 0)
(0.143677 -0.000500228 0)
(0.14377 -0.00034308 0)
(0.143828 -0.000186126 0)
(0.143852 -2.9506e-05 0)
(0.14384 0.000126644 0)
(0.143794 0.000282188 0)
(0.143712 0.000436993 0)
(0.143597 0.000590927 0)
(0.143447 0.000743863 0)
(0.143263 0.000895675 0)
(0.143045 0.00104624 0)