/*--------------------------------*- C++ -*----------------------------------*\
| =========                 |                                                 |
| \\      /  F ield         | OpenFOAM: The Open Source CFD Toolbox           |
|  \\    /   O peration     | Version:  v2012                                 |
|   \\  /    A nd           | Website:  www.openfoam.com                      |
|    \\/     M anipulation  |                                                 |
\*---------------------------------------------------------------------------*/
FoamFile
{
    version     2.0;
    format      ascii;
    class       volScalarField;
    location    "13";
    object      W;
}
// * * * * * * * * * * * * * * * * * * * * * * * * * * * * * * * * * * * * * //

dimensions      [0 0 -1 0 0 0 0];


internalField   nonuniform List<scalar> 
65536
(
6.12122e-16
6.25371e-16
6.52456e-16
6.93855e-16
7.50306e-16
8.22812e-16
9.1266e-16
1.02144e-15
1.15105e-15
1.30376e-15
1.48222e-15
1.6895e-15
1.92913e-15
2.20516e-15
2.5222e-15
2.88549e-15
3.30098e-15
3.77538e-15
4.31625e-15
4.93212e-15
5.63254e-15
6.42825e-15
7.33125e-15
8.35499e-15
9.51445e-15
1.08263e-14
1.23093e-14
1.3984e-14
1.58735e-14
1.80032e-14
2.04013e-14
2.30992e-14
2.61312e-14
2.95353e-14
3.33536e-14
3.76319e-14
4.24209e-14
4.77761e-14
5.37582e-14
6.04336e-14
6.78748e-14
7.61607e-14
8.53773e-14
9.56179e-14
1.06984e-13
1.19585e-13
1.33539e-13
1.48975e-13
1.66029e-13
1.84851e-13
2.05598e-13
2.2844e-13
2.5356e-13
2.81151e-13
3.11419e-13
3.44583e-13
3.80875e-13
4.20541e-13
4.63838e-13
5.1104e-13
5.62432e-13
6.18313e-13
6.78996e-13
7.44805e-13
8.16078e-13
8.93166e-13
9.76428e-13
1.06624e-12
1.16297e-12
1.26702e-12
1.37878e-12
1.49866e-12
1.62705e-12
1.76436e-12
1.911e-12
2.06739e-12
2.2339e-12
2.41095e-12
2.59891e-12
2.79815e-12
3.00904e-12
3.23192e-12
3.46709e-12
3.71486e-12
3.97549e-12
4.24922e-12
4.53626e-12
4.83676e-12
5.15087e-12
5.47867e-12
5.8202e-12
6.17545e-12
6.54437e-12
6.92684e-12
7.3227e-12
7.73174e-12
8.15367e-12
8.58815e-12
9.03478e-12
9.4931e-12
9.96258e-12
1.04426e-11
1.09326e-11
1.14318e-11
1.19394e-11
1.24546e-11
1.29765e-11
1.35042e-11
1.40365e-11
1.45725e-11
1.5111e-11
1.56508e-11
1.61907e-11
1.67295e-11
1.72657e-11
1.77981e-11
1.83251e-11
1.88454e-11
1.93575e-11
1.98598e-11
2.03509e-11
2.0829e-11
2.12927e-11
2.17403e-11
2.21702e-11
2.25807e-11
2.29702e-11
2.3337e-11
2.36795e-11
2.3996e-11
2.42849e-11
2.45445e-11
2.47733e-11
2.49697e-11
2.51322e-11
2.52595e-11
2.535e-11
2.54024e-11
2.54157e-11
2.53886e-11
2.53202e-11
2.52096e-11
2.50561e-11
2.48592e-11
2.46186e-11
2.43341e-11
2.40057e-11
2.36338e-11
2.3219e-11
2.2762e-11
2.22641e-11
2.17265e-11
2.1151e-11
2.05396e-11
1.98946e-11
1.92185e-11
1.85143e-11
1.77851e-11
1.70343e-11
1.62656e-11
1.54828e-11
1.469e-11
1.38913e-11
1.3091e-11
1.22933e-11
1.15026e-11
1.07231e-11
9.95897e-12
9.2141e-12
8.49229e-12
7.79705e-12
7.13159e-12
6.49879e-12
5.90115e-12
5.34078e-12
4.81939e-12
4.33827e-12
3.89825e-12
3.49977e-12
3.14284e-12
2.82706e-12
2.55166e-12
2.31548e-12
2.11704e-12
1.95455e-12
1.82591e-12
1.72879e-12
1.66059e-12
1.61855e-12
1.59972e-12
1.60099e-12
1.61918e-12
1.65101e-12
1.69319e-12
1.74242e-12
1.79548e-12
1.84925e-12
1.90079e-12
1.94734e-12
1.98644e-12
2.01594e-12
2.03405e-12
2.0394e-12
2.03102e-12
2.00841e-12
1.97149e-12
1.92062e-12
1.85658e-12
1.78049e-12
1.69378e-12
1.59815e-12
1.49546e-12
1.38767e-12
1.27677e-12
1.16471e-12
1.05336e-12
9.4439e-13
8.39303e-13
7.3935e-13
6.45537e-13
5.58608e-13
4.79054e-13
4.07129e-13
3.42869e-13
2.86123e-13
2.36584e-13
1.93823e-13
1.57325e-13
1.26515e-13
1.00791e-13
7.95458e-14
6.21891e-14
4.8161e-14
3.6944e-14
2.80702e-14
2.11244e-14
1.5745e-14
1.16227e-14
8.49698e-15
6.15172e-15
4.41051e-15
3.13132e-15
2.20139e-15
1.53243e-15
1.05626e-15
7.20856e-16
4.87093e-16
3.25887e-16
2.15906e-16
1.41697e-16
9.22158e-17
5.96791e-17
3.8694e-17
2.56104e-17
1.80541e-17
1.46069e-17
9.17729e-16
9.37582e-16
9.78199e-16
1.04029e-15
1.12497e-15
1.23373e-15
1.36852e-15
1.53172e-15
1.72619e-15
1.95534e-15
2.22315e-15
2.53423e-15
2.89389e-15
3.30822e-15
3.78416e-15
4.3296e-15
4.95345e-15
5.66582e-15
6.47808e-15
7.40304e-15
8.45509e-15
9.65034e-15
1.10069e-14
1.25449e-14
1.42868e-14
1.62579e-14
1.84861e-14
2.10024e-14
2.38415e-14
2.70414e-14
3.06446e-14
3.4698e-14
3.92531e-14
4.4367e-14
5.01023e-14
5.6528e-14
6.37196e-14
7.17601e-14
8.07401e-14
9.07585e-14
1.01923e-13
1.14352e-13
1.28173e-13
1.43523e-13
1.60554e-13
1.79427e-13
2.00318e-13
2.23414e-13
2.48919e-13
2.77049e-13
3.08037e-13
3.42131e-13
3.79596e-13
4.20713e-13
4.65781e-13
5.15116e-13
5.69052e-13
6.2794e-13
6.92149e-13
7.62066e-13
8.38094e-13
9.20656e-13
1.01019e-12
1.10714e-12
1.21198e-12
1.32519e-12
1.44726e-12
1.57869e-12
1.71999e-12
1.87167e-12
2.03426e-12
2.20827e-12
2.39423e-12
2.59264e-12
2.80401e-12
3.02883e-12
3.26759e-12
3.52073e-12
3.7887e-12
4.0719e-12
4.37071e-12
4.68547e-12
5.01648e-12
5.36399e-12
5.72822e-12
6.10932e-12
6.50739e-12
6.92246e-12
7.35451e-12
7.80345e-12
8.26911e-12
8.75126e-12
9.24959e-12
9.76371e-12
1.02932e-11
1.08374e-11
1.13957e-11
1.19676e-11
1.2552e-11
1.31483e-11
1.37555e-11
1.43724e-11
1.49981e-11
1.56314e-11
1.62711e-11
1.69158e-11
1.75643e-11
1.8215e-11
1.88665e-11
1.95174e-11
2.0166e-11
2.08108e-11
2.14501e-11
2.20823e-11
2.27056e-11
2.33184e-11
2.39189e-11
2.45054e-11
2.50762e-11
2.56293e-11
2.61632e-11
2.66761e-11
2.71661e-11
2.76316e-11
2.80708e-11
2.8482e-11
2.88635e-11
2.92137e-11
2.9531e-11
2.98137e-11
3.00603e-11
3.02693e-11
3.04393e-11
3.05689e-11
3.06567e-11
3.07016e-11
3.07024e-11
3.06581e-11
3.05678e-11
3.04306e-11
3.0246e-11
3.00135e-11
2.97326e-11
2.94034e-11
2.90259e-11
2.86004e-11
2.81274e-11
2.76076e-11
2.70423e-11
2.64326e-11
2.57802e-11
2.5087e-11
2.43553e-11
2.35874e-11
2.27864e-11
2.19552e-11
2.10974e-11
2.02164e-11
1.93164e-11
1.84013e-11
1.74756e-11
1.65436e-11
1.56099e-11
1.46793e-11
1.37562e-11
1.28454e-11
1.19513e-11
1.10783e-11
1.02305e-11
9.41179e-12
8.62583e-12
7.87585e-12
7.16471e-12
6.49489e-12
5.86842e-12
5.28685e-12
4.75133e-12
4.26249e-12
3.82054e-12
3.42524e-12
3.07593e-12
2.77153e-12
2.51058e-12
2.29131e-12
2.11157e-12
1.96897e-12
1.86082e-12
1.78424e-12
1.73611e-12
1.71319e-12
1.71206e-12
1.72923e-12
1.76116e-12
1.80427e-12
1.85501e-12
1.90993e-12
1.96567e-12
2.01909e-12
2.06727e-12
2.10759e-12
2.13776e-12
2.1559e-12
2.16056e-12
2.15074e-12
2.12589e-12
2.08597e-12
2.03137e-12
1.9629e-12
1.88178e-12
1.78954e-12
1.68794e-12
1.57898e-12
1.46471e-12
1.34726e-12
1.22867e-12
1.11089e-12
9.95708e-13
8.84683e-13
7.79134e-13
6.8011e-13
5.8839e-13
5.04484e-13
4.28649e-13
3.60918e-13
3.01125e-13
2.48941e-13
2.0391e-13
1.65483e-13
1.33053e-13
1.05982e-13
8.36294e-14
6.53718e-14
5.06184e-14
3.88238e-14
2.94945e-14
2.21934e-14
1.65398e-14
1.2208e-14
8.92382e-15
6.46005e-15
4.63109e-15
3.2876e-15
2.31104e-15
1.60862e-15
1.10868e-15
7.56569e-16
5.11184e-16
3.4198e-16
2.26552e-16
1.48674e-16
9.67501e-17
6.26096e-17
4.05915e-17
2.68646e-17
1.89372e-17
1.53212e-17
1.66419e-15
1.70019e-15
1.77389e-15
1.88656e-15
2.04022e-15
2.23762e-15
2.48226e-15
2.77848e-15
3.13151e-15
3.54753e-15
4.03378e-15
4.59867e-15
5.25186e-15
6.00443e-15
6.86901e-15
7.85994e-15
8.99349e-15
1.0288e-14
1.17643e-14
1.34455e-14
1.5358e-14
1.7531e-14
1.99975e-14
2.27941e-14
2.5962e-14
2.95467e-14
3.35992e-14
3.8176e-14
4.33398e-14
4.91602e-14
5.5714e-14
6.30864e-14
7.1371e-14
8.06712e-14
9.11007e-14
1.02784e-13
1.15859e-13
1.30474e-13
1.46793e-13
1.64995e-13
1.85275e-13
2.07844e-13
2.32932e-13
2.60786e-13
2.91677e-13
3.25893e-13
3.63747e-13
4.05574e-13
4.51735e-13
5.02613e-13
5.58621e-13
6.20195e-13
6.87801e-13
7.6193e-13
8.43105e-13
9.31873e-13
1.02881e-12
1.13453e-12
1.24965e-12
1.37484e-12
1.51078e-12
1.65818e-12
1.81777e-12
1.9903e-12
2.17654e-12
2.37726e-12
2.59327e-12
2.82536e-12
3.07432e-12
3.34098e-12
3.62611e-12
3.9305e-12
4.25491e-12
4.60009e-12
4.96675e-12
5.35554e-12
5.76711e-12
6.20202e-12
6.6608e-12
7.14389e-12
7.65166e-12
8.18442e-12
8.74237e-12
9.32561e-12
9.93417e-12
1.05679e-11
1.12267e-11
1.19102e-11
1.26178e-11
1.33491e-11
1.41034e-11
1.48797e-11
1.56772e-11
1.64948e-11
1.73311e-11
1.81849e-11
1.90546e-11
1.99387e-11
2.08354e-11
2.1743e-11
2.26594e-11
2.35826e-11
2.45105e-11
2.5441e-11
2.63717e-11
2.73002e-11
2.82243e-11
2.91414e-11
3.00492e-11
3.09451e-11
3.18266e-11
3.26913e-11
3.35367e-11
3.43603e-11
3.51596e-11
3.59324e-11
3.66762e-11
3.73887e-11
3.80677e-11
3.87109e-11
3.93164e-11
3.98819e-11
4.04056e-11
4.08856e-11
4.132e-11
4.17072e-11
4.20455e-11
4.23334e-11
4.25695e-11
4.27523e-11
4.28808e-11
4.29537e-11
4.29701e-11
4.29291e-11
4.28299e-11
4.26718e-11
4.24544e-11
4.21773e-11
4.18404e-11
4.14436e-11
4.09871e-11
4.04712e-11
3.98965e-11
3.92639e-11
3.85743e-11
3.78289e-11
3.70294e-11
3.61776e-11
3.52755e-11
3.43256e-11
3.33305e-11
3.22933e-11
3.12172e-11
3.01059e-11
2.89633e-11
2.77935e-11
2.66011e-11
2.53908e-11
2.41674e-11
2.29361e-11
2.17021e-11
2.04707e-11
1.92474e-11
1.80375e-11
1.68463e-11
1.5679e-11
1.45406e-11
1.34359e-11
1.23694e-11
1.13452e-11
1.0367e-11
9.43821e-12
8.56153e-12
7.73934e-12
6.97344e-12
6.2651e-12
5.61507e-12
5.02355e-12
4.49026e-12
4.01438e-12
3.59468e-12
3.22943e-12
2.91655e-12
2.65356e-12
2.43766e-12
2.26574e-12
2.13446e-12
2.04022e-12
1.97925e-12
1.94764e-12
1.94135e-12
1.95626e-12
1.98823e-12
2.03313e-12
2.08687e-12
2.1455e-12
2.20521e-12
2.26245e-12
2.31391e-12
2.35667e-12
2.38817e-12
2.40633e-12
2.40954e-12
2.39669e-12
2.36724e-12
2.32112e-12
2.25881e-12
2.18125e-12
2.08978e-12
1.98612e-12
1.87227e-12
1.75041e-12
1.62286e-12
1.49193e-12
1.35991e-12
1.22895e-12
1.10101e-12
9.77794e-13
8.60756e-13
7.51039e-13
6.49487e-13
5.56647e-13
4.72791e-13
3.97939e-13
3.31895e-13
2.74285e-13
2.24595e-13
1.82212e-13
1.46459e-13
1.16626e-13
9.2003e-14
7.18978e-14
5.56571e-14
4.26777e-14
3.24146e-14
2.4385e-14
1.81691e-14
1.34077e-14
9.79883e-15
7.0921e-15
5.08326e-15
3.60795e-15
2.5358e-15
1.76478e-15
1.21612e-15
8.29764e-16
5.60561e-16
3.74963e-16
2.4837e-16
1.62972e-16
1.06042e-16
6.8615e-17
4.44799e-17
2.94347e-17
2.07468e-17
1.6784e-17
3.1732e-15
3.24189e-15
3.38251e-15
3.59754e-15
3.89081e-15
4.26757e-15
4.73454e-15
5.30002e-15
5.974e-15
6.76834e-15
7.69689e-15
8.77574e-15
1.00234e-14
1.1461e-14
1.31129e-14
1.50064e-14
1.71727e-14
1.9647e-14
2.2469e-14
2.56833e-14
2.93401e-14
3.34956e-14
3.82128e-14
4.35621e-14
4.96219e-14
5.64799e-14
6.42333e-14
7.29905e-14
8.28714e-14
9.40091e-14
1.06551e-13
1.20659e-13
1.36512e-13
1.54309e-13
1.74266e-13
1.9662e-13
2.21633e-13
2.49591e-13
2.80805e-13
3.15614e-13
3.54388e-13
3.97528e-13
4.4547e-13
4.98683e-13
5.57677e-13
6.22996e-13
6.95231e-13
7.75011e-13
8.63011e-13
9.59952e-13
1.0666e-12
1.18377e-12
1.31233e-12
1.45319e-12
1.60731e-12
1.77569e-12
1.9594e-12
2.15954e-12
2.37725e-12
2.61373e-12
2.8702e-12
3.14792e-12
3.4482e-12
3.77234e-12
4.12169e-12
4.49759e-12
4.9014e-12
5.33447e-12
5.79815e-12
6.29374e-12
6.82253e-12
7.38575e-12
7.98459e-12
8.62016e-12
9.29349e-12
1.00055e-11
1.0757e-11
1.15488e-11
1.23813e-11
1.3255e-11
1.41702e-11
1.51268e-11
1.61249e-11
1.71641e-11
1.82438e-11
1.93633e-11
2.05217e-11
2.17177e-11
2.29499e-11
2.42167e-11
2.55161e-11
2.6846e-11
2.8204e-11
2.95875e-11
3.09936e-11
3.24194e-11
3.38615e-11
3.53165e-11
3.67809e-11
3.82509e-11
3.97225e-11
4.11919e-11
4.26548e-11
4.41072e-11
4.55449e-11
4.69634e-11
4.83587e-11
4.97265e-11
5.10625e-11
5.23627e-11
5.3623e-11
5.48394e-11
5.60081e-11
5.71255e-11
5.81878e-11
5.91918e-11
6.01342e-11
6.10121e-11
6.18225e-11
6.25629e-11
6.32307e-11
6.38239e-11
6.43403e-11
6.47782e-11
6.5136e-11
6.54123e-11
6.56059e-11
6.5716e-11
6.57416e-11
6.56824e-11
6.55378e-11
6.53078e-11
6.49924e-11
6.45919e-11
6.41066e-11
6.35373e-11
6.28847e-11
6.215e-11
6.13343e-11
6.04391e-11
5.94662e-11
5.84175e-11
5.72952e-11
5.61017e-11
5.48398e-11
5.35124e-11
5.21227e-11
5.06745e-11
4.91714e-11
4.76177e-11
4.6018e-11
4.43768e-11
4.26994e-11
4.0991e-11
3.92574e-11
3.75044e-11
3.57382e-11
3.39649e-11
3.21912e-11
3.04235e-11
2.86684e-11
2.69327e-11
2.52229e-11
2.35454e-11
2.19064e-11
2.03121e-11
1.8768e-11
1.72796e-11
1.58516e-11
1.44884e-11
1.31939e-11
1.19714e-11
1.08234e-11
9.75188e-12
8.75826e-12
7.8432e-12
7.00672e-12
6.24825e-12
5.5666e-12
4.96002e-12
4.42623e-12
3.96246e-12
3.56551e-12
3.23179e-12
2.95737e-12
2.73799e-12
2.56919e-12
2.44625e-12
2.36433e-12
2.31843e-12
2.30349e-12
2.31441e-12
2.34608e-12
2.39346e-12
2.45165e-12
2.51587e-12
2.5816e-12
2.64463e-12
2.70107e-12
2.7475e-12
2.78095e-12
2.799e-12
2.7998e-12
2.78212e-12
2.74533e-12
2.68942e-12
2.61496e-12
2.52306e-12
2.41532e-12
2.29374e-12
2.16064e-12
2.01856e-12
1.87016e-12
1.71813e-12
1.56508e-12
1.41347e-12
1.26555e-12
1.12327e-12
9.8826e-13
8.61821e-13
7.44898e-13
6.38096e-13
5.41705e-13
4.55727e-13
3.79919e-13
3.13835e-13
2.56872e-13
2.08313e-13
1.67373e-13
1.3323e-13
1.05063e-13
8.20751e-14
6.35142e-14
4.86868e-14
3.69671e-14
2.78016e-14
2.07088e-14
1.52777e-14
1.11626e-14
8.07711e-15
5.78787e-15
4.10712e-15
2.886e-15
2.00808e-15
1.3835e-15
9.4379e-16
6.37477e-16
4.26338e-16
2.82354e-16
1.85242e-16
1.20514e-16
7.79677e-17
5.05355e-17
3.34371e-17
2.35645e-17
1.90618e-17
6.07279e-15
6.20438e-15
6.47379e-15
6.88574e-15
7.44763e-15
8.16953e-15
9.06436e-15
1.01481e-14
1.14399e-14
1.29625e-14
1.47426e-14
1.68111e-14
1.92037e-14
2.19609e-14
2.51294e-14
2.8762e-14
3.29187e-14
3.7667e-14
4.30833e-14
4.92535e-14
5.62742e-14
6.42534e-14
7.33124e-14
8.35865e-14
9.52268e-14
1.08402e-13
1.23298e-13
1.40125e-13
1.59113e-13
1.80517e-13
2.04621e-13
2.31736e-13
2.62208e-13
2.96414e-13
3.34771e-13
3.77737e-13
4.2581e-13
4.79538e-13
5.39518e-13
6.06399e-13
6.80887e-13
7.63749e-13
8.55815e-13
9.5798e-13
1.07121e-12
1.19655e-12
1.33511e-12
1.48808e-12
1.65674e-12
1.84246e-12
2.04667e-12
2.27091e-12
2.51678e-12
2.78601e-12
3.08037e-12
3.40173e-12
3.75206e-12
4.13338e-12
4.5478e-12
4.99748e-12
5.48465e-12
6.01159e-12
6.58062e-12
7.19408e-12
7.85433e-12
8.56373e-12
9.32461e-12
1.01393e-11
1.101e-11
1.1939e-11
1.29282e-11
1.39798e-11
1.50954e-11
1.62768e-11
1.75254e-11
1.88424e-11
2.02288e-11
2.16854e-11
2.32125e-11
2.48103e-11
2.64786e-11
2.82166e-11
3.00235e-11
3.18977e-11
3.38376e-11
3.58409e-11
3.79049e-11
4.00264e-11
4.22019e-11
4.44275e-11
4.66986e-11
4.90104e-11
5.13577e-11
5.37348e-11
5.61357e-11
5.85541e-11
6.09834e-11
6.34165e-11
6.58465e-11
6.82659e-11
7.06674e-11
7.30433e-11
7.5386e-11
7.76879e-11
7.99414e-11
8.21391e-11
8.42735e-11
8.63374e-11
8.8324e-11
9.02265e-11
9.20384e-11
9.37537e-11
9.53666e-11
9.68719e-11
9.82645e-11
9.954e-11
1.00694e-10
1.01724e-10
1.02625e-10
1.03395e-10
1.04033e-10
1.04536e-10
1.04902e-10
1.05131e-10
1.05223e-10
1.05177e-10
1.04993e-10
1.04673e-10
1.04217e-10
1.03626e-10
1.02903e-10
1.02049e-10
1.01067e-10
9.99592e-11
9.87284e-11
9.73778e-11
9.5911e-11
9.43315e-11
9.26433e-11
9.08505e-11
8.89576e-11
8.69692e-11
8.48903e-11
8.27261e-11
8.0482e-11
7.81637e-11
7.57773e-11
7.3329e-11
7.08255e-11
6.82735e-11
6.56802e-11
6.3053e-11
6.03995e-11
5.77275e-11
5.50452e-11
5.23608e-11
4.96827e-11
4.70194e-11
4.43793e-11
4.1771e-11
3.9203e-11
3.66834e-11
3.42203e-11
3.18216e-11
2.94946e-11
2.72461e-11
2.50828e-11
2.30103e-11
2.10338e-11
1.91579e-11
1.73862e-11
1.57216e-11
1.41663e-11
1.27214e-11
1.13875e-11
1.01641e-11
9.0501e-12
8.04356e-12
7.14184e-12
6.34164e-12
5.63907e-12
5.02969e-12
4.50859e-12
4.07047e-12
3.70964e-12
3.42016e-12
3.19585e-12
3.03035e-12
2.91717e-12
2.84975e-12
2.82152e-12
2.82591e-12
2.85644e-12
2.90676e-12
2.97072e-12
3.04243e-12
3.1163e-12
3.18718e-12
3.25037e-12
3.3017e-12
3.33763e-12
3.35527e-12
3.35243e-12
3.32768e-12
3.2803e-12
3.21034e-12
3.11851e-12
3.00618e-12
2.87529e-12
2.72825e-12
2.56785e-12
2.3971e-12
2.21918e-12
2.03728e-12
1.85448e-12
1.67369e-12
1.49754e-12
1.32832e-12
1.16794e-12
1.0179e-12
8.79293e-13
7.52801e-13
6.38736e-13
5.37078e-13
4.47512e-13
3.69491e-13
3.02285e-13
2.45031e-13
1.96788e-13
1.56579e-13
1.23426e-13
9.63829e-14
7.45586e-14
5.71323e-14
4.33648e-14
3.26022e-14
2.4277e-14
1.79047e-14
1.30781e-14
9.46053e-15
6.77738e-15
4.80806e-15
3.37771e-15
2.34967e-15
1.61848e-15
1.10385e-15
7.45437e-16
4.98444e-16
3.30047e-16
2.16493e-16
1.40822e-16
9.1091e-17
5.90319e-17
3.90524e-17
2.75176e-17
2.22572e-17
1.15222e-14
1.17722e-14
1.2284e-14
1.30666e-14
1.41341e-14
1.55058e-14
1.72062e-14
1.92657e-14
2.1721e-14
2.46154e-14
2.79997e-14
3.19329e-14
3.64829e-14
4.17273e-14
4.77549e-14
5.46666e-14
6.25766e-14
7.16142e-14
8.19249e-14
9.36727e-14
1.07042e-13
1.22239e-13
1.39495e-13
1.59069e-13
1.81249e-13
2.06357e-13
2.34749e-13
2.66825e-13
3.03023e-13
3.43832e-13
3.89793e-13
4.415e-13
4.9961e-13
5.64845e-13
6.38e-13
7.19943e-13
8.11628e-13
9.14095e-13
1.02848e-12
1.15601e-12
1.29804e-12
1.45602e-12
1.63151e-12
1.82622e-12
2.04198e-12
2.28074e-12
2.54462e-12
2.83586e-12
3.15686e-12
3.51018e-12
3.89851e-12
4.32472e-12
4.79182e-12
5.30299e-12
5.86153e-12
6.4709e-12
7.13472e-12
7.85669e-12
8.64066e-12
9.49058e-12
1.04105e-11
1.14044e-11
1.24766e-11
1.3631e-11
1.4872e-11
1.62036e-11
1.76298e-11
1.91546e-11
2.07816e-11
2.25145e-11
2.43566e-11
2.6311e-11
2.83804e-11
3.0567e-11
3.2873e-11
3.52996e-11
3.78479e-11
4.05181e-11
4.331e-11
4.62227e-11
4.92546e-11
5.24033e-11
5.56657e-11
5.9038e-11
6.25154e-11
6.60924e-11
6.97627e-11
7.35191e-11
7.73537e-11
8.12578e-11
8.52218e-11
8.92356e-11
9.32881e-11
9.7368e-11
1.01463e-10
1.05561e-10
1.09648e-10
1.13712e-10
1.17739e-10
1.21714e-10
1.25625e-10
1.29457e-10
1.33197e-10
1.36831e-10
1.40347e-10
1.4373e-10
1.4697e-10
1.50053e-10
1.5297e-10
1.55709e-10
1.58262e-10
1.60618e-10
1.62771e-10
1.64713e-10
1.66437e-10
1.67939e-10
1.69214e-10
1.70258e-10
1.7107e-10
1.71647e-10
1.7199e-10
1.72097e-10
1.7197e-10
1.71611e-10
1.71022e-10
1.70207e-10
1.69169e-10
1.67914e-10
1.66445e-10
1.64768e-10
1.6289e-10
1.60818e-10
1.58556e-10
1.56115e-10
1.53499e-10
1.50718e-10
1.4778e-10
1.44692e-10
1.41463e-10
1.38103e-10
1.3462e-10
1.31023e-10
1.27321e-10
1.23525e-10
1.19644e-10
1.15687e-10
1.11665e-10
1.07588e-10
1.03467e-10
9.93126e-11
9.51349e-11
9.09453e-11
8.67549e-11
8.25749e-11
7.84165e-11
7.4291e-11
7.02097e-11
6.61837e-11
6.22241e-11
5.83418e-11
5.45471e-11
5.08502e-11
4.72609e-11
4.37882e-11
4.04406e-11
3.72258e-11
3.41508e-11
3.12216e-11
2.84435e-11
2.58204e-11
2.33555e-11
2.10508e-11
1.89072e-11
1.69246e-11
1.51018e-11
1.34366e-11
1.19258e-11
1.05653e-11
9.35016e-12
8.27468e-12
7.3325e-12
6.51665e-12
5.81968e-12
5.23371e-12
4.75055e-12
4.36175e-12
4.05866e-12
3.83254e-12
3.6746e-12
3.57604e-12
3.52815e-12
3.52232e-12
3.55013e-12
3.60343e-12
3.67434e-12
3.75541e-12
3.83962e-12
3.92051e-12
3.99225e-12
4.04971e-12
4.08853e-12
4.10519e-12
4.09706e-12
4.06242e-12
4.00046e-12
3.91127e-12
3.79578e-12
3.65571e-12
3.49346e-12
3.31199e-12
3.1147e-12
2.90528e-12
2.68757e-12
2.46544e-12
2.2426e-12
2.02257e-12
1.80848e-12
1.60307e-12
1.40863e-12
1.22692e-12
1.05922e-12
9.06328e-13
7.68577e-13
6.45909e-13
5.37917e-13
4.43914e-13
3.62997e-13
2.94108e-13
2.36098e-13
1.87776e-13
1.47956e-13
1.15492e-13
8.93067e-14
6.84082e-14
5.19051e-14
3.90096e-14
2.90388e-14
2.14099e-14
1.56337e-14
1.1306e-14
8.09718e-15
5.74284e-15
4.03339e-15
2.80511e-15
1.93174e-15
1.31722e-15
8.89342e-16
5.9455e-16
3.93609e-16
2.5814e-16
1.67882e-16
1.08577e-16
7.03518e-17
4.65333e-17
3.27837e-17
2.65136e-17
2.16083e-14
2.20778e-14
2.3039e-14
2.4509e-14
2.65142e-14
2.90909e-14
3.22854e-14
3.61551e-14
4.07689e-14
4.62088e-14
5.25704e-14
5.99649e-14
6.85203e-14
7.83834e-14
8.97215e-14
1.02725e-13
1.17609e-13
1.34619e-13
1.54028e-13
1.76147e-13
2.01323e-13
2.29946e-13
2.62454e-13
2.99335e-13
3.41133e-13
3.88456e-13
4.41979e-13
5.02453e-13
5.70711e-13
6.47674e-13
7.34361e-13
8.31898e-13
9.41523e-13
1.0646e-12
1.20263e-12
1.35724e-12
1.53025e-12
1.7236e-12
1.93944e-12
2.18008e-12
2.44806e-12
2.7461e-12
3.07716e-12
3.44442e-12
3.85132e-12
4.30152e-12
4.79896e-12
5.34784e-12
5.95263e-12
6.61809e-12
7.34923e-12
8.15136e-12
9.03006e-12
9.99115e-12
1.10408e-11
1.21852e-11
1.34311e-11
1.47852e-11
1.62544e-11
1.7846e-11
1.9567e-11
2.14248e-11
2.34268e-11
2.55802e-11
2.78923e-11
3.03701e-11
3.30204e-11
3.58499e-11
3.88648e-11
4.20708e-11
4.54731e-11
4.90763e-11
5.28844e-11
5.69004e-11
6.11265e-11
6.5564e-11
7.02129e-11
7.50723e-11
8.01399e-11
8.54121e-11
9.08842e-11
9.65496e-11
1.02401e-10
1.08428e-10
1.14621e-10
1.20967e-10
1.27453e-10
1.34063e-10
1.4078e-10
1.47587e-10
1.54463e-10
1.61389e-10
1.68343e-10
1.75302e-10
1.82243e-10
1.89141e-10
1.95973e-10
2.02712e-10
2.09335e-10
2.15816e-10
2.22131e-10
2.28254e-10
2.34162e-10
2.39832e-10
2.45242e-10
2.5037e-10
2.55197e-10
2.59705e-10
2.63877e-10
2.67696e-10
2.7115e-10
2.74226e-10
2.76915e-10
2.79208e-10
2.81099e-10
2.82583e-10
2.83657e-10
2.84321e-10
2.84576e-10
2.84423e-10
2.83867e-10
2.82914e-10
2.81571e-10
2.79845e-10
2.77747e-10
2.75286e-10
2.72476e-10
2.69327e-10
2.65854e-10
2.6207e-10
2.5799e-10
2.53629e-10
2.49002e-10
2.44125e-10
2.39013e-10
2.33683e-10
2.28151e-10
2.22433e-10
2.16545e-10
2.10504e-10
2.04326e-10
1.98027e-10
1.91623e-10
1.85131e-10
1.78567e-10
1.71946e-10
1.65284e-10
1.58598e-10
1.51904e-10
1.45216e-10
1.38551e-10
1.31925e-10
1.25352e-10
1.18849e-10
1.12429e-10
1.06109e-10
9.99029e-11
9.38243e-11
8.78873e-11
8.21052e-11
7.64904e-11
7.10549e-11
6.58098e-11
6.0765e-11
5.59299e-11
5.13124e-11
4.69193e-11
4.27563e-11
3.88275e-11
3.51359e-11
3.1683e-11
2.84688e-11
2.54921e-11
2.27501e-11
2.02388e-11
1.7953e-11
1.58861e-11
1.40307e-11
1.23783e-11
1.09195e-11
9.64418e-12
8.54167e-12
7.60077e-12
6.80989e-12
6.15718e-12
5.63061e-12
5.21807e-12
4.90747e-12
4.68676e-12
4.54406e-12
4.4677e-12
4.44628e-12
4.46874e-12
4.52442e-12
4.60319e-12
4.69543e-12
4.79223e-12
4.88539e-12
4.96756e-12
5.03233e-12
5.07426e-12
5.08902e-12
5.07337e-12
5.02523e-12
4.94365e-12
4.82882e-12
4.68194e-12
4.50519e-12
4.30156e-12
4.07475e-12
3.82896e-12
3.56875e-12
3.29886e-12
3.02401e-12
2.74876e-12
2.47738e-12
2.21369e-12
1.96101e-12
1.72209e-12
1.49905e-12
1.29341e-12
1.10609e-12
9.3747e-13
7.87434e-13
6.55449e-13
5.40643e-13
4.41885e-13
3.57862e-13
2.87151e-13
2.28284e-13
1.798e-13
1.40295e-13
1.08445e-13
8.30375e-14
6.29831e-14
4.73195e-14
3.52133e-14
2.59542e-14
1.89464e-14
1.36978e-14
9.8075e-15
6.95406e-15
4.88286e-15
3.39508e-15
2.3375e-15
1.59355e-15
1.07569e-15
7.18988e-16
4.75901e-16
3.12054e-16
2.02911e-16
1.31209e-16
8.50027e-17
5.62148e-17
3.95983e-17
3.20214e-17
4.00254e-14
4.08966e-14
4.26802e-14
4.54079e-14
4.91291e-14
5.39112e-14
5.98406e-14
6.7024e-14
7.55902e-14
8.56914e-14
9.75063e-14
1.11242e-13
1.27137e-13
1.45465e-13
1.66539e-13
1.90712e-13
2.18389e-13
2.50022e-13
2.86127e-13
3.27281e-13
3.74134e-13
4.27413e-13
4.87935e-13
5.56611e-13
6.3446e-13
7.22616e-13
8.22342e-13
9.35038e-13
1.06226e-12
1.20573e-12
1.36736e-12
1.54923e-12
1.75368e-12
1.98324e-12
2.24071e-12
2.52915e-12
2.85191e-12
3.21265e-12
3.61536e-12
4.06436e-12
4.56435e-12
5.12041e-12
5.73805e-12
6.42317e-12
7.18214e-12
8.02177e-12
8.94934e-12
9.97263e-12
1.10999e-11
1.23399e-11
1.37019e-11
1.51956e-11
1.68312e-11
1.86194e-11
2.05714e-11
2.26987e-11
2.50132e-11
2.75271e-11
3.02529e-11
3.32035e-11
3.63916e-11
3.98301e-11
4.3532e-11
4.75099e-11
5.17764e-11
5.63434e-11
6.12226e-11
6.64248e-11
7.19602e-11
7.78377e-11
8.40653e-11
9.06498e-11
9.75962e-11
1.04908e-10
1.12587e-10
1.20633e-10
1.29044e-10
1.37815e-10
1.46938e-10
1.56405e-10
1.66203e-10
1.76317e-10
1.8673e-10
1.97421e-10
2.08367e-10
2.19542e-10
2.30917e-10
2.42462e-10
2.54142e-10
2.65922e-10
2.77763e-10
2.89625e-10
3.01467e-10
3.13246e-10
3.24918e-10
3.36437e-10
3.47758e-10
3.58836e-10
3.69626e-10
3.80084e-10
3.90165e-10
3.99829e-10
4.09034e-10
4.17741e-10
4.25916e-10
4.33524e-10
4.40535e-10
4.4692e-10
4.52656e-10
4.57722e-10
4.621e-10
4.65776e-10
4.68739e-10
4.70983e-10
4.72505e-10
4.73305e-10
4.73386e-10
4.72755e-10
4.71423e-10
4.69403e-10
4.66709e-10
4.6336e-10
4.59376e-10
4.5478e-10
4.49596e-10
4.43849e-10
4.37567e-10
4.30777e-10
4.23509e-10
4.15792e-10
4.07656e-10
3.99132e-10
3.9025e-10
3.81041e-10
3.71534e-10
3.61761e-10
3.5175e-10
3.41531e-10
3.31132e-10
3.20582e-10
3.09909e-10
2.99138e-10
2.88297e-10
2.77411e-10
2.66506e-10
2.55605e-10
2.44734e-10
2.33914e-10
2.23169e-10
2.12522e-10
2.01993e-10
1.91604e-10
1.81376e-10
1.71328e-10
1.61479e-10
1.51849e-10
1.42455e-10
1.33313e-10
1.24441e-10
1.15853e-10
1.07563e-10
9.95842e-11
9.1928e-11
8.46045e-11
7.76223e-11
7.09885e-11
6.47085e-11
5.87858e-11
5.32224e-11
4.80183e-11
4.31717e-11
3.86788e-11
3.45344e-11
3.07313e-11
2.72608e-11
2.41127e-11
2.12753e-11
1.87358e-11
1.64802e-11
1.44936e-11
1.27605e-11
1.12646e-11
9.98938e-12
8.91781e-12
8.03288e-12
7.31751e-12
6.75473e-12
6.32777e-12
6.02012e-12
5.81565e-12
5.69864e-12
5.65391e-12
5.66683e-12
5.72343e-12
5.81049e-12
5.91558e-12
6.02724e-12
6.135e-12
6.22952e-12
6.30269e-12
6.34769e-12
6.3591e-12
6.33293e-12
6.26661e-12
6.15906e-12
6.01053e-12
5.82263e-12
5.5981e-12
5.34074e-12
5.05516e-12
4.74662e-12
4.42079e-12
4.08355e-12
3.74073e-12
3.39796e-12
3.06049e-12
2.73301e-12
2.41958e-12
2.12353e-12
1.84744e-12
1.59312e-12
1.36166e-12
1.15348e-12
9.68387e-13
8.05679e-13
6.64247e-13
5.42665e-13
4.39286e-13
3.52337e-13
2.79992e-13
2.2044e-13
1.7194e-13
1.32857e-13
1.01695e-13
7.71084e-14
5.79132e-14
4.30833e-14
3.17453e-14
2.31673e-14
1.67447e-14
1.19859e-14
8.49656e-15
5.9645e-15
4.1462e-15
2.85402e-15
1.94528e-15
1.31285e-15
8.7734e-16
5.80611e-16
3.80648e-16
2.47473e-16
1.59999e-16
1.03638e-16
6.85279e-17
4.82646e-17
3.90255e-17
7.32183e-14
7.48152e-14
7.80845e-14
8.30844e-14
8.9906e-14
9.86732e-14
1.09545e-13
1.22718e-13
1.38429e-13
1.56959e-13
1.78636e-13
2.03843e-13
2.33018e-13
2.66667e-13
3.05363e-13
3.49763e-13
4.00608e-13
4.58737e-13
5.25097e-13
6.00756e-13
6.8691e-13
7.84906e-13
8.96249e-13
1.02262e-12
1.16591e-12
1.3282e-12
1.51183e-12
1.71939e-12
1.95375e-12
2.21809e-12
2.51593e-12
2.85115e-12
3.22803e-12
3.65127e-12
4.12603e-12
4.65796e-12
5.25326e-12
5.91866e-12
6.66152e-12
7.48982e-12
8.41221e-12
9.43807e-12
1.05775e-11
1.18414e-11
1.32414e-11
1.47901e-11
1.65008e-11
1.83878e-11
2.04661e-11
2.27518e-11
2.52617e-11
2.80135e-11
3.10258e-11
3.4318e-11
3.79103e-11
4.18232e-11
4.60784e-11
5.06977e-11
5.57035e-11
6.11183e-11
6.69648e-11
7.32658e-11
8.00435e-11
8.73201e-11
9.51169e-11
1.03454e-10
1.12351e-10
1.21826e-10
1.31894e-10
1.42571e-10
1.53866e-10
1.6579e-10
1.78349e-10
1.91544e-10
2.05377e-10
2.19841e-10
2.34929e-10
2.50626e-10
2.66916e-10
2.83776e-10
3.01178e-10
3.19091e-10
3.37476e-10
3.56291e-10
3.75488e-10
3.95015e-10
4.14815e-10
4.34826e-10
4.54982e-10
4.75214e-10
4.95448e-10
5.15609e-10
5.35618e-10
5.55396e-10
5.74861e-10
5.93931e-10
6.12524e-10
6.30561e-10
6.4796e-10
6.64646e-10
6.80543e-10
6.95581e-10
7.09693e-10
7.22817e-10
7.34895e-10
7.45876e-10
7.55716e-10
7.64374e-10
7.71818e-10
7.78023e-10
7.82969e-10
7.86645e-10
7.89045e-10
7.90171e-10
7.9003e-10
7.88638e-10
7.86014e-10
7.82184e-10
7.7718e-10
7.71037e-10
7.63795e-10
7.55499e-10
7.46196e-10
7.35936e-10
7.24772e-10
7.12759e-10
6.99953e-10
6.86411e-10
6.7219e-10
6.57349e-10
6.41945e-10
6.26035e-10
6.09676e-10
5.92924e-10
5.75833e-10
5.58455e-10
5.40842e-10
5.23044e-10
5.05108e-10
4.8708e-10
4.69006e-10
4.50928e-10
4.32886e-10
4.14919e-10
3.97065e-10
3.79359e-10
3.61836e-10
3.44528e-10
3.27466e-10
3.10679e-10
2.94197e-10
2.78044e-10
2.62248e-10
2.46832e-10
2.3182e-10
2.17231e-10
2.03088e-10
1.89407e-10
1.76206e-10
1.635e-10
1.51304e-10
1.39628e-10
1.28483e-10
1.17877e-10
1.07815e-10
9.83014e-11
8.93369e-11
8.09207e-11
7.30496e-11
6.57179e-11
5.89176e-11
5.26384e-11
4.68681e-11
4.15921e-11
3.6794e-11
3.24557e-11
2.85576e-11
2.50786e-11
2.19966e-11
1.92885e-11
1.69306e-11
1.48987e-11
1.31683e-11
1.1715e-11
1.05143e-11
9.54212e-12
8.77463e-12
8.18864e-12
7.7615e-12
7.47129e-12
7.29685e-12
7.21786e-12
7.21493e-12
7.26966e-12
7.36476e-12
7.48409e-12
7.61284e-12
7.73756e-12
7.84632e-12
7.92882e-12
7.97645e-12
7.9824e-12
7.94168e-12
7.85115e-12
7.70949e-12
7.51712e-12
7.2761e-12
6.98996e-12
6.66348e-12
6.30248e-12
5.91354e-12
5.50377e-12
5.08046e-12
4.65089e-12
4.22204e-12
3.80037e-12
3.39168e-12
3.00097e-12
2.63229e-12
2.2888e-12
1.97268e-12
1.68521e-12
1.42686e-12
1.19732e-12
9.95682e-13
8.20527e-13
6.70048e-13
5.42174e-13
4.34684e-13
3.45295e-13
2.71752e-13
2.11885e-13
1.63665e-13
1.25234e-13
9.49262e-14
7.12732e-14
5.30064e-14
3.90458e-14
2.84872e-14
2.05844e-14
1.47307e-14
1.04397e-14
7.3269e-15
5.09215e-15
3.50443e-15
2.38811e-15
1.61141e-15
1.07666e-15
7.12399e-16
4.66971e-16
3.03548e-16
1.96224e-16
1.27082e-16
8.40177e-17
5.91659e-17
4.78352e-17
1.32273e-13
1.35164e-13
1.41084e-13
1.50137e-13
1.6249e-13
1.78368e-13
1.9806e-13
2.21924e-13
2.5039e-13
2.8397e-13
3.23262e-13
3.6896e-13
4.21865e-13
4.82896e-13
5.53101e-13
6.33672e-13
7.25962e-13
8.31502e-13
9.52017e-13
1.08945e-12
1.246e-12
1.42411e-12
1.62652e-12
1.85633e-12
2.11695e-12
2.41221e-12
2.74638e-12
3.12418e-12
3.55086e-12
4.03224e-12
4.57474e-12
5.18545e-12
5.87219e-12
6.64355e-12
7.50895e-12
8.47873e-12
9.56417e-12
1.07776e-11
1.21324e-11
1.36433e-11
1.53258e-11
1.71973e-11
1.92759e-11
2.15817e-11
2.41358e-11
2.69609e-11
3.00815e-11
3.35232e-11
3.73135e-11
4.14813e-11
4.60571e-11
5.10729e-11
5.6562e-11
6.25594e-11
6.9101e-11
7.6224e-11
8.39667e-11
9.23678e-11
1.01467e-10
1.11304e-10
1.21919e-10
1.3335e-10
1.45638e-10
1.58819e-10
1.7293e-10
1.88004e-10
2.04075e-10
2.21169e-10
2.39313e-10
2.58528e-10
2.7883e-10
3.0023e-10
3.22733e-10
3.46339e-10
3.7104e-10
3.9682e-10
4.23657e-10
4.51519e-10
4.80366e-10
5.10149e-10
5.4081e-10
5.72282e-10
6.04489e-10
6.37345e-10
6.70756e-10
7.04618e-10
7.38822e-10
7.73248e-10
8.07771e-10
8.4226e-10
8.76576e-10
9.10581e-10
9.44129e-10
9.77074e-10
1.00927e-09
1.04057e-09
1.07083e-09
1.09991e-09
1.12767e-09
1.15398e-09
1.17871e-09
1.20175e-09
1.22299e-09
1.24234e-09
1.2597e-09
1.275e-09
1.28818e-09
1.29918e-09
1.30797e-09
1.31452e-09
1.31883e-09
1.32088e-09
1.3207e-09
1.3183e-09
1.31373e-09
1.30704e-09
1.29827e-09
1.2875e-09
1.27481e-09
1.26027e-09
1.24398e-09
1.22603e-09
1.20652e-09
1.18555e-09
1.16323e-09
1.13967e-09
1.11498e-09
1.08926e-09
1.06263e-09
1.03519e-09
1.00704e-09
9.78295e-10
9.49046e-10
9.19391e-10
8.89425e-10
8.59234e-10
8.28906e-10
7.9852e-10
7.68153e-10
7.37877e-10
7.07762e-10
6.77871e-10
6.48264e-10
6.18998e-10
5.90125e-10
5.61695e-10
5.33754e-10