/*--------------------------------*- C++ -*----------------------------------*\
| =========                 |                                                 |
| \\      /  F ield         | OpenFOAM: The Open Source CFD Toolbox           |
|  \\    /   O peration     | Version:  v2012                                 |
|   \\  /    A nd           | Website:  www.openfoam.com                      |
|    \\/     M anipulation  |                                                 |
\*---------------------------------------------------------------------------*/
FoamFile
{
    version     2.0;
    format      ascii;
    class       volScalarField;
    location    "0";
    object      pRec;
}
// * * * * * * * * * * * * * * * * * * * * * * * * * * * * * * * * * * * * * //

dimensions      [0 2 -2 0 0 0 0];


internalField   nonuniform List<scalar> 
4000
(
-6.93453e-13
-6.87711e-13
-6.88926e-13
-6.91809e-13
-6.89831e-13
-6.90434e-13
-6.88583e-13
-6.83367e-13
-6.73425e-13
-6.69245e-13
-6.70529e-13
-6.64987e-13
-6.54783e-13
-6.41005e-13
-6.26721e-13
-6.20272e-13
-6.16064e-13
-6.13646e-13
-6.06149e-13
-5.92742e-13
-5.81493e-13
-5.74108e-13
-5.68852e-13
-5.60654e-13
-5.49876e-13
-5.38804e-13
-5.36674e-13
-5.31239e-13
-5.24623e-13
-5.13098e-13
-4.97123e-13
-4.89982e-13
-4.88023e-13
-4.85786e-13
-4.80611e-13
-4.77183e-13
-4.67071e-13
-4.48537e-13
-4.30804e-13
-4.26947e-13
-4.27166e-13
-4.25409e-13
-4.25573e-13
-4.19524e-13
-4.08797e-13
-3.99774e-13
-3.90831e-13
-3.81454e-13
-3.72553e-13
-3.64837e-13
-3.5634e-13
-3.48579e-13
-3.41454e-13
-3.3275e-13
-3.24749e-13
-3.12199e-13
-3.05213e-13
-3.02817e-13
-3.00839e-13
-2.98223e-13
-2.90109e-13
-2.83013e-13
-2.73004e-13
-2.61274e-13
-2.53303e-13
-2.46105e-13
-2.41951e-13
-2.33706e-13
-2.22978e-13
-2.15793e-13
-2.08492e-13
-2.01235e-13
-1.87917e-13
-1.80665e-13
-1.79385e-13
-1.75453e-13
-1.71362e-13
-1.64978e-13
-1.55546e-13
-1.41829e-13
-1.29059e-13
-1.23394e-13
-1.14849e-13
-1.10192e-13
-1.05279e-13
-9.95556e-14
-9.06569e-14
-8.29012e-14
-7.96432e-14
-7.57035e-14
-6.99276e-14
-6.34451e-14
-5.69424e-14
-5.18811e-14
-4.27819e-14
-3.4068e-14
-2.6367e-14
-1.85093e-14
-1.01491e-14
-2.40879e-15
-6.899e-13
-6.88501e-13
-6.91726e-13
-6.91753e-13
-6.92448e-13
-6.89048e-13
-6.85837e-13
-6.83444e-13
-6.77944e-13
-6.72493e-13
-6.66829e-13
-6.61725e-13
-6.52946e-13
-6.41394e-13
-6.30044e-13
-6.236e-13
-6.18855e-13
-6.12148e-13
-6.03471e-13
-5.96037e-13
-5.8496e-13
-5.72645e-13
-5.64891e-13
-5.57527e-13
-5.47682e-13
-5.41503e-13
-5.37941e-13
-5.31923e-13
-5.23324e-13
-5.09552e-13
-5.00328e-13
-4.9347e-13
-4.87352e-13
-4.82398e-13
-4.77849e-13
-4.73289e-13
-4.65295e-13
-4.52117e-13
-4.37857e-13
-4.31029e-13
-4.27092e-13
-4.24943e-13
-4.22267e-13
-4.17701e-13
-4.10202e-13
-3.99922e-13
-3.89419e-13
-3.8132e-13
-3.72561e-13
-3.62406e-13
-3.55208e-13
-3.47657e-13
-3.41654e-13
-3.3407e-13
-3.26041e-13
-3.14952e-13
-3.04919e-13
-3.00986e-13
-2.99026e-13
-2.9658e-13
-2.92322e-13
-2.83158e-13
-2.74038e-13
-2.63208e-13
-2.5513e-13
-2.46098e-13
-2.39377e-13
-2.32674e-13
-2.25324e-13
-2.17355e-13
-2.08683e-13
-2.01186e-13
-1.92773e-13
-1.8399e-13
-1.79266e-13
-1.71814e-13
-1.69955e-13
-1.62678e-13
-1.5241e-13
-1.40275e-13
-1.30242e-13
-1.24794e-13
-1.18675e-13
-1.12463e-13
-1.0351e-13
-9.7381e-14
-8.86156e-14
-8.08103e-14
-7.78746e-14
-7.42692e-14
-7.14342e-14
-6.61061e-14
-6.06921e-14
-4.98906e-14
-4.12778e-14
-3.46526e-14
-2.58022e-14
-1.86528e-14
-1.17553e-14
-4.2667e-15
-6.89315e-13
-6.88382e-13
-6.90648e-13
-6.93962e-13
-6.94858e-13
-6.90375e-13
-6.84852e-13
-6.82298e-13
-6.75922e-13
-6.72267e-13
-6.67421e-13
-6.60936e-13
-6.52365e-13
-6.42763e-13
-6.32075e-13
-6.24502e-13
-6.1807e-13
-6.11191e-13
-6.03963e-13
-5.94758e-13
-5.83831e-13
-5.74579e-13
-5.65812e-13
-5.58375e-13
-5.49498e-13
-5.43993e-13
-5.38946e-13
-5.3053e-13
-5.20959e-13
-5.0773e-13
-5.00696e-13
-4.93652e-13
-4.87154e-13
-4.84187e-13
-4.79847e-13
-4.74484e-13
-4.63924e-13
-4.53534e-13
-4.42321e-13
-4.31143e-13
-4.26232e-13
-4.21616e-13
-4.22038e-13
-4.18249e-13
-4.11083e-13
-4.001e-13
-3.87933e-13
-3.78497e-13
-3.73485e-13
-3.68437e-13
-3.57121e-13
-3.48084e-13
-3.39152e-13
-3.30818e-13
-3.24032e-13
-3.15892e-13
-3.05427e-13
-3.03419e-13
-3.0373e-13
-2.98179e-13
-2.89894e-13
-2.7817e-13
-2.70099e-13
-2.64422e-13
-2.57863e-13
-2.49773e-13
-2.42186e-13
-2.31798e-13
-2.23972e-13
-2.14083e-13
-2.05619e-13
-1.98442e-13
-1.89336e-13
-1.83545e-13
-1.78919e-13
-1.74008e-13
-1.68983e-13
-1.62648e-13
-1.51943e-13
-1.41348e-13
-1.35536e-13
-1.26806e-13
-1.14569e-13
-1.08815e-13
-1.03283e-13
-9.97553e-14
-9.35353e-14
-8.44313e-14
-7.78591e-14
-7.21952e-14
-6.87724e-14
-6.56372e-14
-5.89271e-14
-5.07732e-14
-4.06351e-14
-3.2084e-14
-2.64962e-14
-1.96663e-14
-1.54266e-14
-4.90096e-15
-6.9039e-13
-6.9148e-13
-6.92291e-13
-6.88475e-13
-6.93079e-13
-6.87383e-13
-6.84943e-13
-6.82543e-13
-6.80245e-13
-6.74523e-13
-6.65602e-13
-6.56309e-13
-6.48575e-13
-6.43165e-13
-6.40875e-13
-6.30518e-13
-6.16174e-13
-6.07894e-13
-6.02767e-13
-5.93589e-13
-5.84308e-13
-5.76402e-13
-5.66529e-13
-5.5245e-13
-5.4504e-13
-5.41617e-13
-5.3795e-13
-5.32472e-13
-5.21154e-13
-5.11842e-13
-5.04888e-13
-4.96448e-13
-4.8787e-13
-4.82067e-13
-4.75241e-13
-4.7386e-13
-4.64361e-13
-4.52222e-13
-4.43498e-13
-4.33817e-13
-4.29539e-13
-4.26684e-13
-4.21779e-13
-4.15354e-13
-4.05953e-13
-3.96297e-13
-3.87827e-13
-3.82455e-13
-3.74432e-13
-3.62008e-13
-3.52757e-13
-3.46897e-13
-3.41209e-13
-3.35006e-13
-3.23463e-13
-3.1695e-13
-3.07776e-13
-3.02794e-13
-3.02629e-13
-2.96586e-13
-2.88217e-13
-2.7984e-13
-2.74298e-13
-2.66873e-13
-2.57415e-13
-2.48632e-13
-2.40955e-13
-2.31865e-13
-2.24577e-13
-2.16594e-13
-2.09541e-13
-2.01864e-13
-1.92441e-13
-1.84924e-13
-1.78466e-13
-1.72597e-13
-1.69125e-13
-1.62023e-13
-1.51869e-13
-1.41965e-13
-1.34399e-13
-1.27498e-13
-1.16817e-13
-1.07301e-13
-1.02417e-13
-9.77712e-14
-9.12566e-14
-8.374e-14
-7.64063e-14
-7.27606e-14
-7.09499e-14
-6.61272e-14
-6.06904e-14
-4.94239e-14
-4.04661e-14
-3.46261e-14
-2.81298e-14
-1.89296e-14
-1.23098e-14
-4.5838e-15
-6.91291e-13
-6.95755e-13
-6.92107e-13
-6.87696e-13
-6.84243e-13
-6.8779e-13
-6.87643e-13
-6.85763e-13
-6.79282e-13
-6.71499e-13
-6.62968e-13
-6.57923e-13
-6.48146e-13
-6.41371e-13
-6.39818e-13
-6.33497e-13
-6.23009e-13
-6.12496e-13
-6.00073e-13
-5.88104e-13
-5.83179e-13
-5.75338e-13
-5.60969e-13
-5.51676e-13
-5.48579e-13
-5.44536e-13
-5.39556e-13
-5.31217e-13
-5.23462e-13
-5.14298e-13
-5.05436e-13
-4.9753e-13
-4.88488e-13
-4.82404e-13
-4.76401e-13
-4.73097e-13
-4.63177e-13
-4.5218e-13
-4.41071e-13
-4.33663e-13
-4.29739e-13
-4.28696e-13
-4.21994e-13
-4.13858e-13
-4.03732e-13
-3.93576e-13
-3.86445e-13
-3.80918e-13
-3.73424e-13
-3.6585e-13
-3.56511e-13
-3.49567e-13
-3.41805e-13
-3.34288e-13
-3.23711e-13
-3.15465e-13
-3.09133e-13
-3.04378e-13
-3.01745e-13
-2.953e-13
-2.88227e-13
-2.80125e-13
-2.71837e-13
-2.65901e-13
-2.60576e-13
-2.53946e-13
-2.45717e-13
-2.33166e-13
-2.24236e-13
-2.13917e-13
-2.05843e-13
-1.99185e-13
-1.92441e-13
-1.84965e-13
-1.75072e-13
-1.69617e-13
-1.67741e-13
-1.6174e-13
-1.5431e-13
-1.44106e-13
-1.35748e-13
-1.29605e-13
-1.16806e-13
-1.06411e-13
-9.91525e-14
-9.4436e-14
-9.12474e-14
-8.65394e-14
-7.87918e-14
-7.42314e-14
-6.98529e-14
-6.58204e-14
-5.84878e-14
-5.30078e-14
-4.50489e-14
-3.50509e-14
-2.80445e-14
-2.11092e-14
-1.18587e-14
-1.99257e-15
-6.87749e-13
-6.97322e-13
-6.93601e-13
-6.84506e-13
-6.88755e-13
-6.92225e-13
-6.90131e-13
-6.8582e-13
-6.7738e-13
-6.64099e-13
-6.60476e-13
-6.56829e-13
-6.52866e-13
-6.42992e-13
-6.3623e-13
-6.3529e-13
-6.24772e-13
-6.15036e-13
-6.05109e-13
-5.91555e-13
-5.80536e-13
-5.68933e-13
-5.5166e-13
-5.48203e-13
-5.49116e-13
-5.4783e-13
-5.39544e-13
-5.30539e-13
-5.22552e-13
-5.17227e-13
-5.06757e-13
-4.97068e-13
-4.88826e-13
-4.85466e-13
-4.81869e-13
-4.71864e-13
-4.60932e-13
-4.52034e-13
-4.4112e-13
-4.36154e-13
-4.32374e-13
-4.2908e-13
-4.20368e-13
-4.14125e-13
-4.04016e-13
-3.91801e-13
-3.82772e-13
-3.77286e-13
-3.73512e-13
-3.65635e-13
-3.58338e-13
-3.48972e-13
-3.4047e-13
-3.31827e-13
-3.22327e-13
-3.16997e-13
-3.11742e-13
-3.05474e-13
-3.0021e-13
-2.96035e-13
-2.90491e-13
-2.81097e-13
-2.72643e-13
-2.6586e-13
-2.569e-13
-2.51907e-13
-2.46357e-13
-2.34433e-13
-2.25259e-13
-2.17159e-13
-2.07412e-13
-1.99509e-13
-1.93921e-13
-1.8679e-13
-1.77036e-13
-1.72208e-13
-1.66581e-13
-1.58412e-13
-1.53345e-13
-1.46381e-13
-1.387e-13
-1.2872e-13
-1.14457e-13
-1.04312e-13
-1.00075e-13
-9.68068e-14
-9.3034e-14
-8.45584e-14
-7.78558e-14
-7.35788e-14
-6.95391e-14
-6.61225e-14
-5.67014e-14
-5.19996e-14
-4.49606e-14
-3.81103e-14
-2.82571e-14
-1.989e-14
-9.8258e-15
-8.2625e-16
-6.92945e-13
-6.9363e-13
-6.92983e-13
-6.89589e-13
-6.8673e-13
-6.90476e-13
-6.89641e-13
-6.83379e-13
-6.75084e-13
-6.64725e-13
-6.56662e-13
-6.55984e-13
-6.54911e-13
-6.44384e-13
-6.37635e-13
-6.32713e-13
-6.28973e-13
-6.20258e-13
-6.02028e-13
-5.8395e-13
-5.68028e-13
-5.63747e-13
-5.62253e-13
-5.59735e-13
-5.54109e-13
-5.47352e-13
-5.36715e-13
-5.28119e-13
-5.23826e-13
-5.1914e-13
-5.09756e-13
-4.9606e-13
-4.89636e-13
-4.81134e-13
-4.75984e-13
-4.69455e-13
-4.62944e-13
-4.57294e-13
-4.46321e-13
-4.34718e-13
-4.27749e-13
-4.22951e-13
-4.18326e-13
-4.14377e-13
-4.07432e-13
-3.96937e-13
-3.85462e-13
-3.76243e-13
-3.70129e-13
-3.65385e-13
-3.58227e-13
-3.52576e-13
-3.43623e-13
-3.32191e-13
-3.23797e-13
-3.17893e-13
-3.11187e-13
-3.00112e-13
-2.96125e-13
-2.95441e-13
-2.9501e-13
-2.86704e-13
-2.75221e-13
-2.63395e-13
-2.53861e-13
-2.4827e-13
-2.40663e-13
-2.29905e-13
-2.20862e-13
-2.16616e-13
-2.15913e-13
-2.05777e-13
-1.95209e-13
-1.89816e-13
-1.80196e-13
-1.70506e-13
-1.62344e-13
-1.5455e-13
-1.49148e-13
-1.44704e-13
-1.37841e-13
-1.28139e-13
-1.19687e-13
-1.10545e-13
-1.03607e-13
-9.35344e-14
-9.00108e-14
-8.61427e-14
-7.86425e-14
-7.53476e-14
-6.90526e-14
-6.14565e-14
-5.68615e-14
-5.11864e-14
-4.4877e-14
-3.5666e-14
-2.7936e-14
-1.84008e-14
-1.00451e-14
-3.07289e-15
-6.919e-13
-6.91247e-13
-6.89134e-13
-6.90495e-13
-6.93091e-13
-6.92802e-13
-6.89239e-13
-6.82092e-13
-6.7326e-13
-6.65925e-13
-6.60548e-13
-6.54998e-13
-6.51026e-13
-6.42024e-13
-6.3795e-13
-6.32832e-13
-6.28834e-13
-6.19877e-13
-5.97173e-13
-5.85749e-13
-5.81001e-13
-5.7361e-13
-5.62736e-13
-5.5306e-13
-5.50081e-13
-5.43164e-13
-5.32452e-13
-5.26647e-13
-5.21373e-13
-5.16236e-13
-5.09696e-13
-5.01635e-13
-4.95595e-13
-4.88609e-13
-4.76897e-13
-4.68559e-13
-4.6134e-13
-4.52313e-13
-4.4429e-13
-4.34934e-13
-4.28829e-13
-4.26134e-13
-4.19402e-13
-4.1803e-13
-4.12343e-13
-3.97413e-13
-3.81484e-13
-3.68096e-13
-3.67605e-13
-3.67106e-13
-3.63209e-13
-3.56087e-13
-3.43329e-13
-3.32128e-13
-3.21192e-13
-3.15053e-13
-3.1177e-13
-3.06212e-13
-2.98238e-13
-2.92644e-13
-2.90616e-13
-2.83672e-13
-2.76227e-13
-2.67724e-13
-2.59433e-13
-2.50514e-13
-2.4168e-13
-2.31926e-13
-2.25845e-13
-2.18926e-13
-2.11585e-13
-2.05817e-13
-1.93996e-13
-1.81469e-13
-1.74349e-13
-1.70815e-13
-1.66246e-13
-1.58582e-13
-1.53939e-13
-1.47729e-13
-1.38676e-13
-1.28434e-13
-1.15991e-13
-1.05073e-13
-9.68699e-14
-9.31508e-14
-9.1086e-14
-8.76667e-14
-8.05829e-14
-7.38584e-14
-6.6659e-14
-6.15015e-14
-5.71307e-14
-5.25505e-14
-4.33255e-14
-3.39595e-14
-2.77306e-14
-1.99602e-14
-1.14208e-14
-1.5197e-15
-6.94186e-13
-6.95675e-13
-6.90703e-13
-6.84666e-13
-6.88453e-13
-6.91213e-13
-6.90966e-13
-6.83043e-13
-6.70634e-13
-6.67716e-13
-6.61389e-13
-6.51498e-13
-6.45083e-13
-6.42021e-13
-6.39541e-13
-6.35304e-13
-6.28629e-13
-6.17522e-13
-6.01134e-13
-5.87841e-13
-5.79669e-13
-5.70945e-13
-5.66543e-13
-5.59424e-13
-5.50234e-13
-5.4007e-13
-5.31466e-13
-5.26597e-13
-5.24759e-13
-5.17228e-13
-5.10605e-13
-5.02835e-13
-4.92206e-13
-4.81559e-13
-4.77103e-13
-4.69713e-13
-4.60541e-13
-4.51505e-13
-4.46195e-13
-4.40423e-13
-4.35185e-13
-4.27761e-13
-4.15934e-13
-4.08627e-13
-4.04913e-13
-3.98032e-13
-3.86828e-13
-3.77155e-13
-3.71044e-13
-3.64603e-13
-3.58269e-13
-3.51461e-13
-3.41878e-13
-3.33392e-13
-3.2556e-13
-3.20605e-13
-3.13028e-13
-3.06306e-13
-2.98833e-13
-2.93676e-13
-2.87648e-13
-2.81019e-13
-2.74738e-13
-2.67147e-13
-2.56534e-13
-2.46445e-13
-2.40404e-13
-2.32852e-13
-2.24968e-13
-2.17859e-13
-2.10071e-13
-2.06301e-13
-1.9833e-13
-1.8815e-13
-1.76533e-13
-1.7109e-13
-1.67229e-13
-1.60138e-13
-1.54397e-13
-1.4531e-13
-1.38966e-13
-1.29292e-13
-1.1648e-13
-1.06724e-13
-9.9153e-14
-9.38939e-14
-9.19053e-14
-8.69788e-14
-8.01117e-14
-7.37382e-14
-6.62583e-14
-6.06659e-14
-5.39304e-14
-4.93769e-14
-4.28503e-14
-3.47351e-14
-2.63882e-14
-1.62701e-14
-7.50278e-15
1.32032e-15
-6.93938e-13
-6.93168e-13
-6.93379e-13
-6.89956e-13
-6.86689e-13
-6.88856e-13
-6.87703e-13
-6.85675e-13
-6.77719e-13
-6.63545e-13
-6.5558e-13
-6.48602e-13
-6.4617e-13
-6.44854e-13
-6.41012e-13
-6.34298e-13
-6.24464e-13
-6.18169e-13
-6.08811e-13
-5.92703e-13
-5.7955e-13
-5.66628e-13
-5.61353e-13
-5.54608e-13
-5.51413e-13
-5.45282e-13
-5.35285e-13
-5.29077e-13
-5.23144e-13
-5.17332e-13
-5.11425e-13
-5.02631e-13
-4.92399e-13
-4.80791e-13
-4.73856e-13
-4.68046e-13
-4.63184e-13
-4.52772e-13
-4.47036e-13
-4.41146e-13
-4.31387e-13
-4.21917e-13
-4.15113e-13
-4.08911e-13
-4.07554e-13
-4.02608e-13
-3.91299e-13
-3.79301e-13
-3.71176e-13
-3.62083e-13
-3.5523e-13
-3.51123e-13
-3.43482e-13
-3.34566e-13
-3.25993e-13
-3.18842e-13
-3.1228e-13
-3.05386e-13
-2.98809e-13
-2.95782e-13
-2.91394e-13
-2.87497e-13
-2.80592e-13
-2.67761e-13
-2.5331e-13
-2.39128e-13
-2.32255e-13
-2.27777e-13
-2.24203e-13
-2.24092e-13
-2.18041e-13
-2.0858e-13
-2.01061e-13
-1.90442e-13
-1.77648e-13
-1.68395e-13
-1.64142e-13
-1.5819e-13
-1.53703e-13
-1.44897e-13
-1.38039e-13
-1.29576e-13
-1.18601e-13
-1.1036e-13
-1.01008e-13
-9.27549e-14
-8.86017e-14
-8.32194e-14
-7.91694e-14
-7.3852e-14
-6.48077e-14
-5.61558e-14
-5.07035e-14
-4.647e-14
-3.85308e-14
-3.0358e-14
-2.24025e-14
-1.45277e-14
-5.37032e-15
4.21575e-16
-6.92019e-13
-6.91261e-13
-6.90314e-13
-6.91868e-13
-6.92236e-13
-6.86541e-13
-6.84679e-13
-6.8175e-13
-6.75889e-13
-6.69028e-13
-6.56346e-13
-6.47017e-13
-6.4618e-13
-6.46539e-13
-6.41389e-13
-6.36822e-13
-6.24186e-13
-6.16198e-13
-6.08066e-13
-5.94086e-13
-5.83761e-13
-5.67729e-13
-5.57587e-13
-5.53296e-13
-5.47507e-13
-5.42193e-13
-5.37675e-13
-5.30883e-13
-5.24915e-13
-5.19142e-13
-5.10594e-13
-5.01308e-13
-4.91152e-13
-4.8291e-13
-4.7794e-13
-4.69655e-13
-4.60886e-13
-4.52886e-13
-4.48285e-13
-4.39193e-13
-4.31297e-13
-4.21712e-13
-4.15378e-13
-4.13166e-13
-4.10447e-13
-4.011e-13
-3.88332e-13
-3.75375e-13
-3.67943e-13
-3.60518e-13
-3.58132e-13
-3.53226e-13
-3.42881e-13
-3.34007e-13
-3.24833e-13
-3.2194e-13
-3.15376e-13
-3.07886e-13
-2.98191e-13
-2.89541e-13
-2.87632e-13
-2.79955e-13
-2.75052e-13
-2.70514e-13
-2.56576e-13
-2.42286e-13
-2.32681e-13
-2.26889e-13
-2.24711e-13
-2.27119e-13
-2.18951e-13
-2.11266e-13
-2.0179e-13
-1.89758e-13
-1.7566e-13
-1.64634e-13
-1.63822e-13
-1.61573e-13
-1.57419e-13
-1.48691e-13
-1.42149e-13
-1.33313e-13
-1.18242e-13
-1.06907e-13
-9.60972e-14
-8.70217e-14
-8.94104e-14
-8.75013e-14
-7.95485e-14
-7.24605e-14
-6.28475e-14
-5.65006e-14
-5.01367e-14
-4.44385e-14
-4.02656e-14
-3.35641e-14
-1.87384e-14
-5.53102e-15
2.3584e-15
-8.42433e-16
-6.94953e-13
-6.92974e-13
-6.90755e-13
-6.92331e-13
-6.91094e-13
-6.85838e-13
-6.86174e-13
-6.8272e-13
-6.7538e-13
-6.66294e-13
-6.57791e-13
-6.5015e-13
-6.42258e-13
-6.39546e-13
-6.36623e-13
-6.31036e-13
-6.27483e-13
-6.2171e-13
-6.10371e-13
-5.95406e-13
-5.82879e-13
-5.74761e-13
-5.64016e-13
-5.54235e-13
-5.47545e-13
-5.36599e-13
-5.33163e-13
-5.30244e-13
-5.26315e-13
-5.21563e-13
-5.12952e-13
-5.02051e-13
-4.89808e-13
-4.80087e-13
-4.74558e-13
-4.67494e-13
-4.62828e-13
-4.55755e-13
-4.50395e-13
-4.37893e-13
-4.29772e-13
-4.18797e-13
-4.15022e-13
-4.15353e-13
-4.08786e-13
-4.00673e-13
-3.89174e-13
-3.78779e-13
-3.69126e-13
-3.60295e-13
-3.54231e-13
-3.51239e-13
-3.4302e-13
-3.3708e-13
-3.29959e-13
-3.20839e-13
-3.13689e-13
-3.05758e-13
-2.97825e-13
-2.92201e-13
-2.90074e-13
-2.90275e-13
-2.79785e-13
-2.67304e-13
-2.48834e-13
-2.39034e-13
-2.32722e-13
-2.2934e-13
-2.24526e-13
-2.22163e-13
-2.16094e-13
-2.14882e-13
-2.08563e-13
-1.95431e-13
-1.746e-13
-1.58057e-13
-1.56767e-13
-1.62298e-13
-1.59382e-13
-1.48828e-13
-1.41048e-13
-1.30541e-13
-1.2028e-13
-1.11355e-13
-1.00754e-13
-9.00767e-14
-8.39923e-14
-8.33224e-14
-7.8006e-14
-7.10663e-14
-6.07155e-14
-5.55794e-14
-4.99531e-14
-4.30703e-14
-3.57926e-14
-2.97416e-14
-1.74786e-14
-7.02808e-15
-1.06732e-15
-9.33779e-16
-6.9259e-13
-6.92094e-13
-6.84246e-13
-6.93436e-13
-6.93143e-13
-6.90118e-13
-6.83765e-13
-6.77063e-13
-6.70465e-13
-6.61241e-13
-6.56564e-13
-6.51921e-13
-6.50848e-13
-6.44755e-13
-6.38567e-13
-6.34521e-13
-6.29643e-13
-6.22925e-13
-6.11209e-13
-5.96188e-13
-5.76741e-13
-5.62639e-13
-5.5391e-13
-5.52107e-13
-5.4731e-13
-5.42459e-13
-5.36083e-13
-5.29838e-13
-5.26911e-13
-5.23893e-13
-5.15896e-13
-5.02613e-13
-4.92428e-13
-4.8431e-13
-4.79827e-13
-4.69369e-13
-4.59362e-13
-4.54253e-13
-4.47966e-13
-4.37514e-13
-4.27979e-13
-4.23964e-13
-4.19541e-13
-4.13799e-13
-4.03098e-13
-3.93748e-13
-3.86905e-13
-3.79165e-13
-3.71197e-13
-3.64123e-13
-3.57586e-13
-3.51767e-13
-3.40601e-13
-3.309e-13
-3.32594e-13
-3.3222e-13
-3.17075e-13
-3.0209e-13
-2.93279e-13
-2.85956e-13
-2.83973e-13
-2.8139e-13
-2.80563e-13
-2.70725e-13
-2.54049e-13
-2.44781e-13
-2.31534e-13
-2.30089e-13
-2.24815e-13
-2.19731e-13
-2.15596e-13
-2.15289e-13
-2.09295e-13
-1.93446e-13
-1.76399e-13
-1.62876e-13
-1.59761e-13
-1.63119e-13
-1.55679e-13
-1.45875e-13
-1.39288e-13
-1.3154e-13
-1.23222e-13
-1.12732e-13
-1.02025e-13
-8.97609e-14
-8.38203e-14
-8.33414e-14
-7.64536e-14
-6.90948e-14
-6.09524e-14
-5.41458e-14
-4.68094e-14
-4.13675e-14
-3.62136e-14
-2.83259e-14
-1.77172e-14
-8.64166e-15
-2.03191e-16
8.98695e-16
-6.89053e-13
-6.99083e-13
-6.93435e-13
-6.88465e-13
-6.89159e-13
-6.8785e-13
-6.8309e-13
-6.82006e-13
-6.71466e-13
-6.5722e-13
-6.5296e-13
-6.51726e-13
-6.49177e-13
-6.46049e-13
-6.41456e-13
-6.31913e-13
-6.21144e-13
-6.13543e-13
-6.07928e-13
-5.98482e-13
-5.91092e-13
-5.82465e-13
-5.6996e-13
-5.52256e-13
-5.38046e-13
-5.31508e-13
-5.33783e-13
-5.31539e-13
-5.28301e-13
-5.25691e-13
-5.16543e-13
-5.03947e-13
-4.88486e-13
-4.76247e-13
-4.70504e-13
-4.65871e-13
-4.65766e-13
-4.60625e-13
-4.48644e-13
-4.4202e-13
-4.30492e-13
-4.20402e-13
-4.17977e-13
-4.11038e-13
-4.02112e-13
-3.93296e-13
-3.83942e-13
-3.79131e-13
-3.74616e-13
-3.66737e-13
-3.58798e-13
-3.49478e-13
-3.42395e-13
-3.35239e-13
-3.30648e-13
-3.25106e-13
-3.19083e-13
-3.11421e-13
-3.03072e-13
-2.91736e-13
-2.82735e-13
-2.76345e-13
-2.70974e-13
-2.65507e-13
-2.55594e-13
-2.47255e-13
-2.38076e-13
-2.31357e-13
-2.25418e-13
-2.21862e-13
-2.18218e-13
-2.10335e-13
-2.02771e-13
-1.94084e-13
-1.79482e-13
-1.68336e-13
-1.60124e-13
-1.57805e-13
-1.55126e-13
-1.46923e-13
-1.40242e-13
-1.29521e-13
-1.21562e-13
-1.11592e-13
-1.00606e-13
-9.12905e-14
-8.64754e-14
-8.17584e-14
-7.73482e-14
-6.8656e-14
-6.12222e-14
-5.71715e-14
-4.94934e-14
-4.0913e-14
-3.14596e-14
-2.31494e-14
-1.62923e-14
-1.02493e-14
-2.93534e-15
4.48515e-16
-6.88124e-13
-6.92669e-13
-6.94455e-13
-6.90046e-13
-6.89443e-13
-6.90619e-13
-6.79899e-13
-6.68693e-13
-6.63899e-13
-6.61823e-13
-6.59322e-13
-6.55962e-13
-6.52844e-13
-6.47511e-13
-6.41899e-13
-6.33115e-13
-6.2629e-13
-6.22331e-13
-6.13036e-13
-5.97999e-13
-5.78327e-13
-5.64031e-13
-5.55157e-13
-5.45782e-13
-5.45728e-13
-5.44005e-13
-5.38976e-13
-5.30984e-13
-5.26254e-13
-5.24808e-13
-5.18566e-13
-5.07456e-13
-4.93989e-13
-4.76447e-13
-4.65767e-13
-4.66057e-13
-4.66941e-13
-4.62013e-13
-4.54512e-13
-4.4287e-13
-4.28281e-13
-4.18817e-13
-4.10978e-13
-4.06654e-13
-4.01686e-13
-3.95925e-13
-3.88942e-13
-3.80341e-13
-3.74335e-13
-3.73588e-13
-3.65289e-13
-3.47647e-13
-3.37408e-13
-3.30198e-13
-3.24877e-13
-3.23266e-13
-3.19573e-13
-3.10504e-13
-2.98315e-13
-2.89183e-13
-2.85925e-13
-2.81556e-13
-2.7453e-13
-2.65419e-13
-2.51187e-13
-2.41128e-13
-2.36344e-13
-2.34062e-13
-2.2907e-13
-2.21697e-13
-2.15142e-13
-2.10368e-13
-2.03128e-13
-1.92563e-13
-1.80757e-13
-1.64974e-13
-1.58601e-13
-1.56969e-13
-1.5742e-13
-1.52527e-13
-1.43755e-13
-1.33068e-13
-1.21247e-13
-1.08831e-13
-9.90851e-14
-9.17176e-14
-8.68198e-14
-8.07727e-14
-7.48215e-14
-6.78053e-14
-6.14898e-14
-5.59295e-14
-4.99087e-14
-4.099e-14
-3.0833e-14
-2.05988e-14
-1.26087e-14
-7.39163e-15
-1.23904e-15
-1.92506e-16
-6.86633e-13
-6.95565e-13
-6.96014e-13
-6.91197e-13
-6.87993e-13
-6.93468e-13
-6.89804e-13
-6.75399e-13
-6.56933e-13
-6.53123e-13
-6.52459e-13
-6.5421e-13
-6.53237e-13
-6.50653e-13
-6.45144e-13
-6.34283e-13
-6.2442e-13
-6.16585e-13
-6.03832e-13
-5.9473e-13
-5.86265e-13
-5.72649e-13
-5.60255e-13
-5.46181e-13
-5.45071e-13
-5.43228e-13
-5.40917e-13
-5.35538e-13
-5.27322e-13
-5.23695e-13
-5.15123e-13
-5.02812e-13
-4.92818e-13
-4.77138e-13
-4.64579e-13
-4.63423e-13
-4.64906e-13
-4.62712e-13
-4.5406e-13
-4.43717e-13
-4.26834e-13
-4.17248e-13
-4.14725e-13
-4.0938e-13
-4.01759e-13
-3.94316e-13
-3.91378e-13
-3.8475e-13
-3.74572e-13
-3.63489e-13
-3.56171e-13
-3.50383e-13
-3.41568e-13
-3.28593e-13
-3.29647e-13
-3.26899e-13
-3.18667e-13
-3.1258e-13
-3.05401e-13
-2.91443e-13
-2.84081e-13
-2.78009e-13
-2.69582e-13
-2.62158e-13
-2.51277e-13
-2.43522e-13
-2.34126e-13
-2.31255e-13
-2.25606e-13
-2.24896e-13
-2.17703e-13
-2.13412e-13
-2.06725e-13
-1.92535e-13
-1.77656e-13
-1.65445e-13
-1.61909e-13
-1.58437e-13
-1.53667e-13
-1.48431e-13
-1.42627e-13
-1.33632e-13
-1.22051e-13
-1.09528e-13
-1.02451e-13
-9.48431e-14
-8.73547e-14
-8.06625e-14
-7.49411e-14
-6.65347e-14
-5.95617e-14
-5.36743e-14
-4.59154e-14
-3.72904e-14
-3.03292e-14
-2.46369e-14
-1.12632e-14
-4.04165e-15
1.67181e-15
7.72657e-16
-6.93597e-13
-6.92766e-13
-6.88791e-13
-6.8471e-13
-6.86643e-13
-6.81176e-13
-6.76889e-13
-6.7837e-13
-6.74281e-13
-6.66623e-13
-6.61582e-13
-6.5285e-13
-6.4687e-13
-6.45715e-13
-6.43428e-13
-6.36121e-13
-6.27108e-13
-6.23682e-13
-6.11818e-13
-5.94416e-13
-5.74271e-13
-5.61521e-13
-5.55722e-13
-5.53854e-13
-5.46553e-13
-5.44985e-13
-5.40946e-13
-5.33702e-13
-5.27804e-13
-5.22207e-13
-5.14924e-13
-5.02167e-13
-4.89721e-13
-4.76583e-13
-4.67898e-13
-4.66533e-13
-4.6931e-13
-4.62742e-13
-4.52755e-13
-4.42067e-13
-4.27602e-13
-4.14855e-13
-4.12538e-13
-4.09846e-13
-4.06052e-13
-3.95251e-13
-3.86066e-13
-3.82844e-13
-3.78097e-13
-3.66653e-13
-3.55415e-13
-3.50294e-13
-3.43341e-13
-3.32253e-13
-3.24515e-13
-3.21826e-13
-3.16146e-13
-3.11613e-13
-3.06299e-13
-2.97004e-13
-2.86239e-13
-2.7846e-13
-2.68994e-13
-2.61615e-13
-2.55144e-13
-2.44876e-13
-2.34488e-13
-2.25939e-13
-2.22686e-13
-2.25217e-13
-2.16905e-13
-2.11694e-13
-2.04894e-13
-1.93279e-13
-1.81784e-13
-1.6913e-13
-1.58395e-13
-1.53472e-13
-1.53091e-13
-1.54006e-13
-1.47497e-13
-1.32241e-13
-1.20772e-13
-1.07432e-13
-1.02598e-13
-9.73093e-14
-8.99169e-14
-7.9441e-14
-7.04148e-14
-6.5369e-14
-5.97244e-14
-5.28795e-14
-4.75066e-14
-3.94082e-14
-2.93191e-14
-2.00279e-14
-1.1707e-14
-5.42566e-15
1.30169e-15
2.18329e-15
-6.92964e-13
-6.91716e-13
-6.89034e-13
-6.86512e-13
-6.92934e-13
-6.90204e-13
-6.77286e-13
-6.70543e-13
-6.65944e-13
-6.63161e-13
-6.62254e-13
-6.60502e-13
-6.48859e-13
-6.41186e-13
-6.38284e-13
-6.33262e-13
-6.28962e-13
-6.21452e-13
-6.08831e-13
-5.92009e-13
-5.77669e-13
-5.63232e-13
-5.53769e-13
-5.54103e-13
-5.53875e-13
-5.44765e-13
-5.37266e-13
-5.33998e-13
-5.31513e-13
-5.24913e-13
-5.17159e-13
-5.03714e-13
-4.89497e-13
-4.75611e-13
-4.64302e-13
-4.64786e-13
-4.63324e-13
-4.60968e-13
-4.5666e-13
-4.46184e-13
-4.31136e-13
-4.1913e-13
-4.12315e-13
-4.03882e-13
-4.02233e-13
-3.96647e-13
-3.88967e-13
-3.79648e-13
-3.73331e-13
-3.66905e-13
-3.5623e-13
-3.50513e-13
-3.43197e-13
-3.33502e-13
-3.30858e-13
-3.2628e-13
-3.14543e-13
-3.05386e-13
-3.01933e-13
-2.94384e-13
-2.88185e-13
-2.78328e-13
-2.70474e-13
-2.63475e-13
-2.54621e-13
-2.43273e-13
-2.36498e-13
-2.26547e-13
-2.19441e-13
-2.17953e-13
-2.16051e-13
-2.12764e-13
-2.06816e-13
-1.93594e-13
-1.80728e-13
-1.69901e-13
-1.62489e-13
-1.55844e-13
-1.55576e-13
-1.52147e-13
-1.44549e-13
-1.33891e-13
-1.22358e-13
-1.10231e-13
-1.01431e-13
-9.21218e-14
-8.54745e-14
-8.12825e-14
-7.5245e-14
-6.56348e-14
-5.88062e-14
-5.16576e-14
-4.4368e-14
-3.66309e-14
-2.76862e-14
-2.17215e-14
-1.34983e-14
-3.74614e-15
1.75824e-15
4.42399e-16
-6.87702e-13
-6.90628e-13
-6.9069e-13
-6.89074e-13
-6.87514e-13
-6.81424e-13
-6.76834e-13
-6.73532e-13
-6.72542e-13
-6.68666e-13
-6.63447e-13
-6.58996e-13
-6.51733e-13
-6.4303e-13
-6.36922e-13
-6.29568e-13
-6.26794e-13
-6.19766e-13
-6.06959e-13
-5.94376e-13
-5.77743e-13
-5.64243e-13
-5.59189e-13
-5.5503e-13
-5.4634e-13
-5.4219e-13
-5.41515e-13
-5.38259e-13
-5.308e-13
-5.20452e-13
-5.12019e-13
-5.02216e-13
-4.88975e-13
-4.76659e-13
-4.67061e-13
-4.70246e-13
-4.70946e-13
-4.62822e-13
-4.51704e-13
-4.38452e-13
-4.27833e-13
-4.22061e-13
-4.14072e-13
-4.04274e-13
-3.99212e-13
-3.92696e-13
-3.91305e-13
-3.89698e-13
-3.7722e-13
-3.63202e-13
-3.53806e-13
-3.51539e-13
-3.43751e-13
-3.32987e-13
-3.29163e-13
-3.25699e-13
-3.18025e-13
-3.07701e-13
-2.99738e-13
-2.93007e-13
-2.90648e-13
-2.81761e-13
-2.71491e-13
-2.62164e-13
-2.50737e-13
-2.42727e-13
-2.33834e-13
-2.2805e-13
-2.20705e-13
-2.16194e-13
-2.11999e-13
-2.12826e-13
-2.07796e-13
-1.93795e-13
-1.80895e-13
-1.70051e-13
-1.64668e-13
-1.58996e-13
-1.51014e-13
-1.43269e-13
-1.4696e-13
-1.4114e-13
-1.23966e-13
-1.11094e-13
-1.0139e-13
-9.08633e-14
-8.36053e-14
-8.07197e-14
-7.48683e-14
-6.58961e-14
-5.79967e-14
-5.20946e-14
-4.51096e-14
-3.52989e-14
-3.01217e-14
-2.03476e-14
-1.0449e-14
-2.23964e-15
2.66729e-15
-6.213e-18
-6.94874e-13
-6.91826e-13
-6.89595e-13
-6.86532e-13
-6.81633e-13
-6.79199e-13
-6.76289e-13
-6.76332e-13
-6.73916e-13
-6.69326e-13
-6.62567e-13
-6.58352e-13
-6.52427e-13
-6.46568e-13
-6.38854e-13
-6.2807e-13
-6.17705e-13
-6.11484e-13
-6.06717e-13
-5.98645e-13
-5.80591e-13
-5.68413e-13
-5.59515e-13
-5.52363e-13
-5.48511e-13
-5.44649e-13
-5.42398e-13
-5.38856e-13
-5.28887e-13
-5.23115e-13
-5.13242e-13
-5.01441e-13
-4.8721e-13
-4.74429e-13
-4.69568e-13
-4.69732e-13
-4.67391e-13
-4.61088e-13
-4.51227e-13
-4.39868e-13
-4.28151e-13
-4.19333e-13
-4.14889e-13
-4.08817e-13
-4.03772e-13
-3.97149e-13
-3.87218e-13
-3.80362e-13
-3.75931e-13
-3.67554e-13
-3.6098e-13
-3.51365e-13
-3.41976e-13
-3.33939e-13
-3.27699e-13
-3.2035e-13
-3.1648e-13
-3.0971e-13
-2.99689e-13
-2.93489e-13
-2.91381e-13
-2.84144e-13
-2.72688e-13
-2.60488e-13
-2.51811e-13
-2.4303e-13
-2.33604e-13
-2.26472e-13
-2.20708e-13
-2.16419e-13
-2.14114e-13
-2.13362e-13
-2.06531e-13
-1.9081e-13
-1.79866e-13
-1.70437e-13
-1.64127e-13
-1.58185e-13
-1.54466e-13
-1.49895e-13
-1.43535e-13
-1.35249e-13
-1.25233e-13
-1.14784e-13
-1.06692e-13
-9.13671e-14
-8.24031e-14
-7.76304e-14
-7.44585e-14
-6.27583e-14
-5.52853e-14
-5.12726e-14
-4.9266e-14
-3.69699e-14
-2.58404e-14
-1.9439e-14
-1.19135e-14
1.63847e-16
1.34722e-15
-1.23207e-15
-6.97531e-13
-6.91103e-13
-6.8513e-13
-6.85665e-13
-6.77936e-13
-6.79143e-13
-6.76618e-13
-6.77612e-13
-6.77318e-13
-6.677e-13
-6.61779e-13
-6.59183e-13
-6.57362e-13
-6.48151e-13
-6.38956e-13
-6.31126e-13
-6.22688e-13
-6.11864e-13
-6.05248e-13
-5.91724e-13
-5.80571e-13
-5.6828e-13
-5.56544e-13
-5.50491e-13
-5.46887e-13
-5.48392e-13
-5.43378e-13
-5.3749e-13
-5.29205e-13
-5.21538e-13
-5.13681e-13
-5.03406e-13
-4.87501e-13
-4.76938e-13
-4.67959e-13
-4.65281e-13
-4.657e-13
-4.61464e-13
-4.51781e-13
-4.40489e-13
-4.31527e-13
-4.22385e-13
-4.1408e-13
-4.07697e-13
-4.01809e-13
-3.95188e-13
-3.87239e-13
-3.8269e-13
-3.78301e-13
-3.68283e-13
-3.57656e-13
-3.47274e-13
-3.4145e-13
-3.36574e-13
-3.30994e-13
-3.24923e-13
-3.17709e-13
-3.08278e-13
-3.0223e-13
-2.97725e-13
-2.9283e-13
-2.82931e-13
-2.68567e-13
-2.58688e-13
-2.50087e-13
-2.41289e-13
-2.31911e-13
-2.27381e-13
-2.20525e-13
-2.20202e-13
-2.1529e-13
-2.09433e-13
-1.99975e-13
-1.88396e-13
-1.78443e-13
-1.68758e-13
-1.67891e-13
-1.6575e-13
-1.56154e-13
-1.47147e-13
-1.40569e-13
-1.32962e-13
-1.24076e-13
-1.13606e-13
-1.01543e-13
-8.88937e-14
-8.38649e-14
-8.0285e-14
-7.3474e-14
-6.86887e-14
-6.28177e-14
-5.15647e-14
-4.21372e-14
-3.47338e-14
-2.59126e-14
-1.6776e-14
-9.92926e-15
-5.93627e-15
-1.75127e-15
-1.29808e-15
-6.9527e-13
-6.89339e-13
-6.87471e-13
-6.85518e-13
-6.82277e-13
-6.78836e-13
-6.73795e-13
-6.76517e-13
-6.76494e-13
-6.7161e-13
-6.65279e-13
-6.58451e-13
-6.5607e-13
-6.46391e-13
-6.35881e-13
-6.25773e-13
-6.1632e-13
-6.12006e-13
-6.06069e-13
-5.9456e-13
-5.82151e-13
-5.69882e-13
-5.58881e-13
-5.54271e-13
-5.52724e-13
-5.46113e-13
-5.39413e-13
-5.31552e-13
-5.24514e-13
-5.21785e-13
-5.15109e-13
-5.0801e-13
-4.95808e-13
-4.83947e-13
-4.66108e-13
-4.61537e-13
-4.60775e-13
-4.57649e-13
-4.51192e-13
-4.40368e-13
-4.33392e-13
-4.2264e-13
-4.16709e-13
-4.06114e-13
-4.0223e-13
-3.96439e-13
-3.92165e-13
-3.84364e-13
-3.7437e-13
-3.6101e-13
-3.5684e-13
-3.52696e-13
-3.45555e-13
-3.32718e-13
-3.25835e-13
-3.19583e-13
-3.1238e-13
-3.10931e-13
-3.0337e-13
-3.0198e-13
-3.0227e-13
-2.80222e-13
-2.668e-13
-2.60831e-13
-2.52962e-13
-2.44349e-13
-2.34661e-13
-2.28069e-13
-2.17831e-13
-2.14267e-13
-2.1036e-13
-2.12376e-13
-2.05286e-13
-1.92485e-13
-1.76364e-13
-1.64327e-13
-1.67691e-13
-1.64364e-13
-1.56165e-13
-1.50123e-13
-1.42874e-13
-1.33604e-13
-1.22751e-13
-1.11767e-13
-1.02402e-13
-9.04898e-14
-8.31804e-14
-8.07449e-14
-7.4805e-14
-6.44269e-14
-5.65676e-14
-5.12113e-14
-4.30288e-14
-3.42647e-14
-3.0084e-14
-2.33865e-14
-1.02473e-14
-2.20935e-15
3.36396e-15
-7.2446e-17
-6.89607e-13
-6.91783e-13
-6.91451e-13
-6.85239e-13
-6.79675e-13
-6.80032e-13
-6.78169e-13
-6.74353e-13
-6.74314e-13
-6.70375e-13
-6.66958e-13
-6.62412e-13
-6.5436e-13
-6.44927e-13
-6.36731e-13
-6.29385e-13
-6.24227e-13
-6.19449e-13
-6.08484e-13
-5.92018e-13
-5.73253e-13
-5.59484e-13
-5.55881e-13
-5.56264e-13
-5.53372e-13
-5.45445e-13
-5.36204e-13
-5.317e-13
-5.24684e-13
-5.23074e-13
-5.19305e-13
-5.03763e-13
-4.90297e-13
-4.8142e-13
-4.72764e-13
-4.67739e-13
-4.63183e-13
-4.56337e-13
-4.4975e-13
-4.41349e-13
-4.32146e-13
-4.21964e-13
-4.13673e-13
-4.08968e-13
-4.0746e-13
-3.97841e-13
-3.89993e-13
-3.77941e-13
-3.75331e-13
-3.6783e-13
-3.56101e-13
-3.51216e-13
-3.45002e-13
-3.3661e-13
-3.29e-13
-3.15835e-13
-3.04569e-13
-3.08621e-13
-3.12671e-13
-3.03944e-13
-2.93957e-13
-2.82489e-13