/*--------------------------------*- C++ -*----------------------------------*\
| =========                 |                                                 |
| \\      /  F ield         | OpenFOAM: The Open Source CFD Toolbox           |
|  \\    /   O peration     | Version:  v2012                                 |
|   \\  /    A nd           | Website:  www.openfoam.com                      |
|    \\/     M anipulation  |                                                 |
\*---------------------------------------------------------------------------*/
FoamFile
{
    version     2.0;
    format      ascii;
    class       volVectorField;
    location    "15";
    object      U;
}
// * * * * * * * * * * * * * * * * * * * * * * * * * * * * * * * * * * * * * //

dimensions      [0 1 -1 0 0 0 0];


internalField   nonuniform List<vector> 
65536
(
(0.000693573 -0.000693593 0)
(0.00208076 -0.000693638 0)
(0.00346808 -0.000693725 0)
(0.00485562 -0.000693855 0)
(0.00624346 -0.000694028 0)
(0.00763169 -0.000694243 0)
(0.0090204 -0.000694501 0)
(0.0104097 -0.0006948 0)
(0.0117996 -0.000695139 0)
(0.0131902 -0.000695518 0)
(0.0145816 -0.000695936 0)
(0.0159739 -0.000696392 0)
(0.0173671 -0.000696885 0)
(0.0187614 -0.000697414 0)
(0.0201568 -0.000697976 0)
(0.0215533 -0.000698571 0)
(0.022951 -0.000699197 0)
(0.02435 -0.000699853 0)
(0.0257504 -0.000700536 0)
(0.0271522 -0.000701245 0)
(0.0285554 -0.000701977 0)
(0.02996 -0.000702731 0)
(0.0313663 -0.000703504 0)
(0.032774 -0.000704293 0)
(0.0341834 -0.000705096 0)
(0.0355944 -0.000705911 0)
(0.0370071 -0.000706733 0)
(0.0384214 -0.000707562 0)
(0.0398373 -0.000708392 0)
(0.0412549 -0.000709221 0)
(0.0426742 -0.000710046 0)
(0.0440951 -0.000710862 0)
(0.0455177 -0.000711667 0)
(0.0469418 -0.000712455 0)
(0.0483675 -0.000713224 0)
(0.0497947 -0.000713969 0)
(0.0512234 -0.000714685 0)
(0.0526535 -0.000715368 0)
(0.0540849 -0.000716013 0)
(0.0555176 -0.000716615 0)
(0.0569514 -0.00071717 0)
(0.0583863 -0.000717672 0)
(0.0598222 -0.000718115 0)
(0.0612589 -0.000718495 0)
(0.0626962 -0.000718805 0)
(0.0641341 -0.000719039 0)
(0.0655725 -0.000719192 0)
(0.067011 -0.000719257 0)
(0.0684496 -0.000719228 0)
(0.069888 -0.000719098 0)
(0.0713261 -0.000718861 0)
(0.0727636 -0.00071851 0)
(0.0742003 -0.000718039 0)
(0.0756359 -0.000717439 0)
(0.0770701 -0.000716704 0)
(0.0785028 -0.000715826 0)
(0.0799336 -0.000714798 0)
(0.0813622 -0.000713613 0)
(0.0827882 -0.000712263 0)
(0.0842114 -0.00071074 0)
(0.0856314 -0.000709037 0)
(0.0870477 -0.000707145 0)
(0.0884601 -0.000705057 0)
(0.0898682 -0.000702765 0)
(0.0912714 -0.000700262 0)
(0.0926694 -0.000697538 0)
(0.0940618 -0.000694588 0)
(0.095448 -0.000691402 0)
(0.0968276 -0.000687973 0)
(0.0982002 -0.000684293 0)
(0.0995651 -0.000680355 0)
(0.100922 -0.000676152 0)
(0.10227 -0.000671676 0)
(0.103609 -0.000666921 0)
(0.104938 -0.000661878 0)
(0.106257 -0.000656543 0)
(0.107564 -0.000650907 0)
(0.108861 -0.000644966 0)
(0.110145 -0.000638714 0)
(0.111416 -0.000632144 0)
(0.112673 -0.000625252 0)
(0.113917 -0.000618033 0)
(0.115146 -0.000610482 0)
(0.116359 -0.000602597 0)
(0.117557 -0.000594372 0)
(0.118737 -0.000585806 0)
(0.1199 -0.000576895 0)
(0.121045 -0.000567639 0)
(0.122171 -0.000558034 0)
(0.123278 -0.000548081 0)
(0.124364 -0.000537779 0)
(0.125429 -0.000527128 0)
(0.126473 -0.000516129 0)
(0.127494 -0.000504785 0)
(0.128492 -0.000493097 0)
(0.129467 -0.000481067 0)
(0.130417 -0.000468701 0)
(0.131342 -0.000456001 0)
(0.132241 -0.000442973 0)
(0.133114 -0.000429622 0)
(0.13396 -0.000415954 0)
(0.134778 -0.000401978 0)
(0.135568 -0.000387699 0)
(0.136329 -0.000373127 0)
(0.137061 -0.000358271 0)
(0.137763 -0.00034314 0)
(0.138434 -0.000327744 0)
(0.139074 -0.000312094 0)
(0.139682 -0.000296202 0)
(0.140259 -0.000280081 0)
(0.140803 -0.000263741 0)
(0.141314 -0.000247197 0)
(0.141792 -0.000230462 0)
(0.142236 -0.000213551 0)
(0.142646 -0.000196477 0)
(0.143022 -0.000179256 0)
(0.143363 -0.000161902 0)
(0.14367 -0.000144432 0)
(0.143941 -0.00012686 0)
(0.144177 -0.000109204 0)
(0.144378 -9.14792e-05 0)
(0.144543 -7.37018e-05 0)
(0.144673 -5.58884e-05 0)
(0.144767 -3.80554e-05 0)
(0.144825 -2.02194e-05 0)
(0.144848 -2.39663e-06 0)
(0.144835 1.53965e-05 0)
(0.144786 3.31437e-05 0)
(0.144702 5.08291e-05 0)
(0.144583 6.84367e-05 0)
(0.144428 8.59511e-05 0)
(0.144239 0.000103357 0)
(0.144015 0.000120639 0)
(0.143756 0.000137784 0)
(0.143463 0.000154776 0)
(0.143137 0.000171602 0)
(0.142777 0.000188249 0)
(0.142384 0.000204705 0)
(0.141958 0.000220956 0)
(0.1415 0.00023699 0)
(0.141009 0.000252798 0)
(0.140488 0.000268368 0)
(0.139936 0.000283691 0)
(0.139353 0.000298756 0)
(0.13874 0.000313555 0)
(0.138099 0.00032808 0)
(0.137428 0.000342324 0)
(0.136729 0.000356279 0)
(0.136002 0.000369939 0)
(0.135249 0.000383298 0)
(0.134469 0.000396352 0)
(0.133663 0.000409096 0)
(0.132832 0.000421526 0)
(0.131977 0.00043364 0)
(0.131097 0.000445433 0)
(0.130195 0.000456905 0)
(0.129269 0.000468054 0)
(0.128322 0.000478879 0)
(0.127354 0.00048938 0)
(0.126364 0.000499556 0)
(0.125355 0.000509408 0)
(0.124326 0.000518938 0)
(0.123279 0.000528147 0)
(0.122213 0.000537037 0)
(0.121131 0.000545611 0)
(0.120031 0.00055387 0)
(0.118915 0.000561819 0)
(0.117783 0.000569461 0)
(0.116637 0.0005768 0)
(0.115476 0.00058384 0)
(0.114301 0.000590585 0)
(0.113113 0.00059704 0)
(0.111912 0.00060321 0)
(0.1107 0.000609101 0)
(0.109476 0.000614718 0)
(0.108241 0.000620065 0)
(0.106995 0.00062515 0)
(0.10574 0.000629978 0)
(0.104475 0.000634555 0)
(0.103201 0.000638887 0)
(0.101919 0.000642981 0)
(0.100629 0.000646842 0)
(0.0993317 0.000650478 0)
(0.0980271 0.000653894 0)
(0.0967159 0.000657097 0)
(0.0953985 0.000660094 0)
(0.0940753 0.000662891 0)
(0.0927468 0.000665495 0)
(0.0914132 0.000667912 0)
(0.0900749 0.000670148 0)
(0.0887324 0.000672211 0)
(0.0873859 0.000674106 0)
(0.0860358 0.00067584 0)
(0.0846824 0.000677419 0)
(0.083326 0.00067885 0)
(0.0819669 0.000680137 0)
(0.0806053 0.000681289 0)
(0.0792416 0.00068231 0)
(0.077876 0.000683207 0)
(0.0765087 0.000683985 0)
(0.0751399 0.00068465 0)
(0.0737699 0.000685207 0)
(0.072399 0.000685663 0)
(0.0710272 0.000686022 0)
(0.0696548 0.00068629 0)
(0.068282 0.000686472 0)
(0.0669088 0.000686573 0)
(0.0655356 0.000686597 0)
(0.0641624 0.000686551 0)
(0.0627893 0.000686438 0)
(0.0614166 0.000686263 0)
(0.0600442 0.00068603 0)
(0.0586724 0.000685744 0)
(0.0573012 0.000685409 0)
(0.0559307 0.000685029 0)
(0.054561 0.000684609 0)
(0.0531922 0.000684151 0)
(0.0518244 0.00068366 0)
(0.0504576 0.000683139 0)
(0.0490918 0.000682592 0)
(0.0477272 0.000682022 0)
(0.0463637 0.000681432 0)
(0.0450014 0.000680827 0)
(0.0436404 0.000680207 0)
(0.0422806 0.000679578 0)
(0.0409221 0.00067894 0)
(0.0395648 0.000678298 0)
(0.0382089 0.000677654 0)
(0.0368542 0.000677009 0)
(0.0355009 0.000676368 0)
(0.0341488 0.000675731 0)
(0.0327979 0.000675102 0)
(0.0314484 0.000674482 0)
(0.0301 0.000673873 0)
(0.0287529 0.000673277 0)
(0.0274069 0.000672697 0)
(0.0260621 0.000672133 0)
(0.0247184 0.000671587 0)
(0.0233758 0.000671061 0)
(0.0220342 0.000670557 0)
(0.0206936 0.000670076 0)
(0.0193539 0.000669618 0)
(0.0180151 0.000669186 0)
(0.0166772 0.00066878 0)
(0.0153401 0.000668401 0)
(0.0140036 0.00066805 0)
(0.0126679 0.000667729 0)
(0.0113328 0.000667438 0)
(0.00999817 0.000667177 0)
(0.00866408 0.000666948 0)
(0.00733041 0.00066675 0)
(0.00599711 0.000666584 0)
(0.00466411 0.000666451 0)
(0.00333134 0.000666352 0)
(0.00199874 0.000666285 0)
(0.000666235 0.000666252 0)
(0.000693531 -0.00208074 0)
(0.00208064 -0.00208087 0)
(0.00346787 -0.00208113 0)
(0.00485532 -0.00208152 0)
(0.00624308 -0.00208204 0)
(0.00763123 -0.00208269 0)
(0.00901985 -0.00208346 0)
(0.010409 -0.00208436 0)
(0.0117988 -0.00208538 0)
(0.0131894 -0.00208652 0)
(0.0145807 -0.00208777 0)
(0.015973 -0.00208914 0)
(0.0173661 -0.00209062 0)
(0.0187603 -0.00209221 0)
(0.0201556 -0.0020939 0)
(0.0215521 -0.00209568 0)
(0.0229497 -0.00209757 0)
(0.0243487 -0.00209953 0)
(0.025749 -0.00210159 0)
(0.0271507 -0.00210371 0)
(0.0285539 -0.00210591 0)
(0.0299585 -0.00210818 0)
(0.0313647 -0.0021105 0)
(0.0327725 -0.00211287 0)
(0.0341818 -0.00211528 0)
(0.0355928 -0.00211773 0)
(0.0370054 -0.0021202 0)
(0.0384197 -0.00212268 0)
(0.0398357 -0.00212518 0)
(0.0412533 -0.00212767 0)
(0.0426726 -0.00213015 0)
(0.0440935 -0.0021326 0)
(0.0455161 -0.00213502 0)
(0.0469403 -0.00213739 0)
(0.048366 -0.0021397 0)
(0.0497933 -0.00214194 0)
(0.051222 -0.00214409 0)
(0.0526522 -0.00214614 0)
(0.0540837 -0.00214808 0)
(0.0555165 -0.0021499 0)
(0.0569504 -0.00215157 0)
(0.0583854 -0.00215308 0)
(0.0598214 -0.00215441 0)
(0.0612582 -0.00215556 0)
(0.0626957 -0.00215649 0)
(0.0641338 -0.0021572 0)
(0.0655723 -0.00215766 0)
(0.067011 -0.00215787 0)
(0.0684498 -0.00215779 0)
(0.0698884 -0.0021574 0)
(0.0713267 -0.0021567 0)
(0.0727644 -0.00215565 0)
(0.0742014 -0.00215425 0)
(0.0756372 -0.00215245 0)
(0.0770718 -0.00215025 0)
(0.0785048 -0.00214763 0)
(0.0799359 -0.00214455 0)
(0.0813648 -0.00214101 0)
(0.0827911 -0.00213696 0)
(0.0842147 -0.0021324 0)
(0.085635 -0.0021273 0)
(0.0870518 -0.00212163 0)
(0.0884646 -0.00211538 0)
(0.089873 -0.00210851 0)
(0.0912767 -0.00210101 0)
(0.0926752 -0.00209284 0)
(0.094068 -0.002084 0)
(0.0954547 -0.00207445 0)
(0.0968348 -0.00206417 0)
(0.0982078 -0.00205314 0)
(0.0995733 -0.00204133 0)
(0.100931 -0.00202873 0)
(0.102279 -0.00201531 0)
(0.103619 -0.00200105 0)
(0.104948 -0.00198593 0)
(0.106268 -0.00196993 0)
(0.107576 -0.00195303 0)
(0.108873 -0.00193521 0)
(0.110157 -0.00191646 0)
(0.111429 -0.00189675 0)
(0.112688 -0.00187608 0)
(0.113932 -0.00185443 0)
(0.115161 -0.00183178 0)
(0.116376 -0.00180813 0)
(0.117573 -0.00178346 0)
(0.118755 -0.00175776 0)
(0.119918 -0.00173103 0)
(0.121064 -0.00170326 0)
(0.122191 -0.00167445 0)
(0.123298 -0.00164459 0)
(0.124385 -0.00161368 0)
(0.125451 -0.00158173 0)
(0.126495 -0.00154873 0)
(0.127517 -0.0015147 0)
(0.128516 -0.00147963 0)
(0.129491 -0.00144354 0)
(0.130442 -0.00140643 0)
(0.131368 -0.00136833 0)
(0.132267 -0.00132924 0)
(0.133141 -0.00128918 0)
(0.133988 -0.00124817 0)
(0.134806 -0.00120623 0)
(0.135597 -0.00116339 0)
(0.136359 -0.00111966 0)
(0.137091 -0.00107508 0)
(0.137793 -0.00102968 0)
(0.138465 -0.000983481 0)
(0.139105 -0.000936521 0)
(0.139714 -0.000888834 0)
(0.140291 -0.000840455 0)
(0.140836 -0.000791424 0)
(0.141347 -0.000741778 0)
(0.141825 -0.00069156 0)
(0.14227 -0.000640811 0)
(0.14268 -0.000589574 0)
(0.143057 -0.000537895 0)
(0.143398 -0.000485819 0)
(0.143705 -0.000433392 0)
(0.143976 -0.000380662 0)
(0.144213 -0.000327677 0)
(0.144414 -0.000274486 0)
(0.144579 -0.000221138 0)
(0.144709 -0.000167681 0)
(0.144802 -0.000114166 0)
(0.144861 -6.0641e-05 0)
(0.144883 -7.15651e-06 0)
(0.14487 4.62389e-05 0)
(0.144821 9.94967e-05 0)
(0.144737 0.000152569 0)
(0.144618 0.000205407 0)
(0.144463 0.000257965 0)
(0.144273 0.000310198 0)
(0.144049 0.00036206 0)
(0.14379 0.000413507 0)
(0.143497 0.000464497 0)
(0.14317 0.00051499 0)
(0.14281 0.000564944 0)
(0.142416 0.000614321 0)
(0.14199 0.000663086 0)
(0.141531 0.000711202 0)
(0.141041 0.000758635 0)
(0.140519 0.000805356 0)
(0.139966 0.000851332 0)
(0.139383 0.000896536 0)
(0.13877 0.000940942 0)
(0.138127 0.000984525 0)
(0.137456 0.00102726 0)
(0.136757 0.00106913 0)
(0.136029 0.00111012 0)
(0.135275 0.0011502 0)
(0.134495 0.00118937 0)
(0.133688 0.0012276 0)
(0.132857 0.0012649 0)
(0.132001 0.00130124 0)
(0.131121 0.00133662 0)
(0.130217 0.00137104 0)
(0.129291 0.00140449 0)
(0.128343 0.00143696 0)
(0.127374 0.00146846 0)
(0.126384 0.00149899 0)
(0.125374 0.00152855 0)
(0.124345 0.00155714 0)
(0.123297 0.00158476 0)
(0.122231 0.00161143 0)
(0.121147 0.00163715 0)
(0.120047 0.00166192 0)
(0.11893 0.00168577 0)
(0.117798 0.00170869 0)
(0.116651 0.0017307 0)
(0.115489 0.00175181 0)
(0.114314 0.00177204 0)
(0.113126 0.00179141 0)
(0.111924 0.00180991 0)
(0.110711 0.00182758 0)
(0.109487 0.00184442 0)
(0.108251 0.00186046 0)
(0.107005 0.00187571 0)
(0.105749 0.00189019 0)
(0.104484 0.00190391 0)
(0.10321 0.0019169 0)
(0.101927 0.00192917 0)
(0.100637 0.00194075 0)
(0.0993387 0.00195165 0)
(0.0980337 0.00196189 0)
(0.0967221 0.0019715 0)
(0.0954043 0.00198048 0)
(0.0940807 0.00198887 0)
(0.0927517 0.00199667 0)
(0.0914178 0.00200392 0)
(0.0900792 0.00201062 0)
(0.0887363 0.0020168 0)
(0.0873895 0.00202248 0)
(0.0860391 0.00202767 0)
(0.0846854 0.0020324 0)
(0.0833287 0.00203669 0)
(0.0819693 0.00204055 0)
(0.0806074 0.002044 0)
(0.0792435 0.00204705 0)
(0.0778776 0.00204974 0)
(0.07651 0.00205207 0)
(0.0751411 0.00205405 0)
(0.0737709 0.00205572 0)
(0.0723997 0.00205708 0)
(0.0710278 0.00205816 0)
(0.0696552 0.00205895 0)
(0.0682822 0.00205949 0)
(0.0669089 0.00205979 0)
(0.0655355 0.00205986 0)
(0.0641622 0.00205972 0)
(0.062789 0.00205937 0)
(0.0614161 0.00205884 0)
(0.0600437 0.00205814 0)
(0.0586717 0.00205728 0)
(0.0573004 0.00205627 0)
(0.0559299 0.00205513 0)
(0.0545601 0.00205386 0)
(0.0531913 0.00205248 0)
(0.0518234 0.00205101 0)
(0.0504565 0.00204944 0)
(0.0490907 0.0020478 0)
(0.047726 0.00204608 0)
(0.0463625 0.00204431 0)
(0.0450002 0.00204249 0)
(0.0436391 0.00204063 0)
(0.0422793 0.00203874 0)
(0.0409208 0.00203682 0)
(0.0395635 0.00203489 0)
(0.0382076 0.00203296 0)
(0.0368529 0.00203102 0)
(0.0354996 0.0020291 0)
(0.0341475 0.00202718 0)
(0.0327967 0.00202529 0)
(0.0314471 0.00202343 0)
(0.0300988 0.0020216 0)
(0.0287517 0.00201981 0)
(0.0274058 0.00201807 0)
(0.026061 0.00201638 0)
(0.0247173 0.00201474 0)
(0.0233748 0.00201316 0)
(0.0220332 0.00201165 0)
(0.0206926 0.0020102 0)
(0.019353 0.00200883 0)
(0.0180143 0.00200753 0)
(0.0166764 0.00200631 0)
(0.0153393 0.00200517 0)
(0.014003 0.00200412 0)
(0.0126673 0.00200316 0)
(0.0113322 0.00200228 0)
(0.00999767 0.0020015 0)
(0.00866365 0.00200081 0)
(0.00733005 0.00200022 0)
(0.00599681 0.00199972 0)
(0.00466388 0.00199932 0)
(0.00333117 0.00199902 0)
(0.00199864 0.00199882 0)
(0.000666202 0.00199872 0)
(0.000693443 -0.00346776 0)
(0.00208037 -0.00346798 0)
(0.00346743 -0.00346841 0)
(0.00485472 -0.00346907 0)
(0.0062423 -0.00346993 0)
(0.00763028 -0.00347101 0)
(0.00901873 -0.0034723 0)
(0.0104077 -0.0034738 0)
(0.0117974 -0.0034755 0)
(0.0131878 -0.0034774 0)
(0.014579 -0.0034795 0)
(0.015971 -0.00348178 0)
(0.0173641 -0.00348425 0)
(0.0187581 -0.0034869 0)
(0.0201533 -0.00348972 0)
(0.0215496 -0.0034927 0)
(0.0229472 -0.00349584 0)
(0.024346 -0.00349913 0)
(0.0257462 -0.00350256 0)
(0.0271478 -0.00350611 0)
(0.0285509 -0.00350978 0)
(0.0299555 -0.00351356 0)
(0.0313616 -0.00351744 0)
(0.0327693 -0.0035214 0)
(0.0341786 -0.00352543 0)
(0.0355895 -0.00352952 0)
(0.0370021 -0.00353364 0)
(0.0384164 -0.0035378 0)
(0.0398323 -0.00354197 0)
(0.04125 -0.00354613 0)
(0.0426693 -0.00355027 0)
(0.0440903 -0.00355437 0)
(0.0455129 -0.00355842 0)
(0.0469371 -0.00356238 0)
(0.048363 -0.00356624 0)
(0.0497903 -0.00356999 0)
(0.0512192 -0.00357359 0)
(0.0526495 -0.00357703 0)
(0.0540812 -0.00358028 0)
(0.0555141 -0.00358332 0)
(0.0569483 -0.00358612 0)
(0.0583835 -0.00358865 0)
(0.0598197 -0.0035909 0)
(0.0612568 -0.00359282 0)
(0.0626946 -0.0035944 0)
(0.064133 -0.00359561 0)
(0.0655718 -0.0035964 0)
(0.0670109 -0.00359676 0)
(0.0684501 -0.00359665 0)
(0.0698891 -0.00359603 0)
(0.0713279 -0.00359488 0)
(0.072766 -0.00359316 0)
(0.0742035 -0.00359084 0)
(0.0756399 -0.00358787 0)
(0.077075 -0.00358423 0)
(0.0785085 -0.00357988 0)
(0.0799402 -0.00357478 0)
(0.0813698 -0.00356889 0)
(0.0827968 -0.00356218 0)
(0.0842211 -0.0035546 0)
(0.0856421 -0.00354613 0)
(0.0870597 -0.00353671 0)
(0.0884733 -0.00352631 0)
(0.0898826 -0.00351489 0)
(0.0912871 -0.00350241 0)
(0.0926865 -0.00348883 0)
(0.0940802 -0.00347412 0)
(0.0954679 -0.00345822 0)
(0.096849 -0.00344112 0)
(0.098223 -0.00342276 0)
(0.0995895 -0.0034031 0)
(0.100948 -0.00338213 0)
(0.102298 -0.00335978 0)
(0.103638 -0.00333604 0)
(0.104969 -0.00331086 0)
(0.10629 -0.00328421 0)
(0.107599 -0.00325606 0)
(0.108897 -0.00322639 0)
(0.110183 -0.00319515 0)
(0.111456 -0.00316233 0)
(0.112716 -0.00312789 0)
(0.113961 -0.00309182 0)
(0.115192 -0.00305409 0)
(0.116408 -0.00301468 0)
(0.117607 -0.00297357 0)
(0.11879 -0.00293075 0)
(0.119955 -0.00288621 0)
(0.121102 -0.00283993 0)
(0.12223 -0.00279191 0)
(0.123338 -0.00274214 0)
(0.124427 -0.00269063 0)
(0.125494 -0.00263737 0)
(0.12654 -0.00258237 0)
(0.127563 -0.00252564 0)
(0.128563 -0.00246718 0)
(0.12954 -0.00240702 0)
(0.130492 -0.00234516 0)
(0.131419 -0.00228164 0)
(0.13232 -0.00221647 0)
(0.133195 -0.00214968 0)
(0.134043 -0.00208131 0)
(0.134863 -0.00201139 0)
(0.135655 -0.00193996 0)
(0.136418 -0.00186705 0)
(0.137151 -0.00179272 0)
(0.137854 -0.00171701 0)
(0.138527 -0.00163998 0)
(0.139168 -0.00156168 0)
(0.139778 -0.00148216 0)
(0.140356 -0.00140148 0)
(0.140902 -0.00131972 0)
(0.141414 -0.00123693 0)
(0.141893 -0.00115319 0)
(0.142338 -0.00106856 0)
(0.142749 -0.000983114 0)
(0.143126 -0.000896931 0)
(0.143468 -0.000810086 0)
(0.143775 -0.000722655 0)
(0.144047 -0.000634719 0)
(0.144284 -0.000546357 0)
(0.144485 -0.000457651 0)
(0.14465 -0.000368682 0)
(0.14478 -0.000279532 0)
(0.144874 -0.000190285 0)
(0.144932 -0.000101023 0)
(0.144955 -1.18274e-05 0)
(0.144941 7.7219e-05 0)
(0.144892 0.000166035 0)
(0.144808 0.000254541 0)
(0.144688 0.000342657 0)
(0.144533 0.000430306 0)
(0.144343 0.00051741 0)
(0.144118 0.000603894 0)
(0.143858 0.000689687 0)
(0.143565 0.000774717 0)
(0.143237 0.000858915 0)
(0.142876 0.000942214 0)
(0.142482 0.00102455 0)
(0.142055 0.00110586 0)
(0.141595 0.00118609 0)
(0.141104 0.00126519 0)
(0.140581 0.00134309 0)
(0.140027 0.00141975 0)
(0.139443 0.00149511 0)
(0.138828 0.00156915 0)
(0.138185 0.00164181 0)
(0.137512 0.00171307 0)
(0.136812 0.00178287 0)
(0.136084 0.0018512 0)
(0.135328 0.00191802 0)
(0.134546 0.00198332 0)
(0.133739 0.00204705 0)
(0.132906 0.00210922 0)
(0.132048 0.0021698 0)
(0.131167 0.00222878 0)
(0.130263 0.00228615 0)
(0.129335 0.00234189 0)
(0.128386 0.00239602 0)
(0.127416 0.00244852 0)
(0.126424 0.0024994 0)
(0.125413 0.00254866 0)
(0.124383 0.0025963 0)
(0.123333 0.00264233 0)
(0.122266 0.00268677 0)
(0.121181 0.00272963 0)
(0.120079 0.00277091 0)
(0.118961 0.00281063 0)
(0.117828 0.00284882 0)
(0.11668 0.0028855 0)
(0.115517 0.00292067 0)
(0.11434 0.00295437 0)
(0.113151 0.00298663 0)
(0.111949 0.00301745 0)
(0.110734 0.00304688 0)
(0.109509 0.00307493 0)
(0.108272 0.00310164 0)
(0.107025 0.00312704 0)
(0.105768 0.00315115 0)
(0.104502 0.003174 0)
(0.103227 0.00319563 0)
(0.101943 0.00321606 0)
(0.100652 0.00323534 0)
(0.0993528 0.00325349 0)
(0.0980469 0.00327053 0)
(0.0967345 0.00328652 0)
(0.0954158 0.00330147 0)
(0.0940915 0.00331542 0)
(0.0927618 0.00332841 0)
(0.0914271 0.00334046 0)
(0.0900878 0.00335161 0)
(0.0887442 0.00336189 0)
(0.0873967 0.00337133 0)
(0.0860457 0.00337997 0)
(0.0846914 0.00338784 0)
(0.0833341 0.00339496 0)
(0.0819741 0.00340137 0)
(0.0806118 0.00340709 0)
(0.0792473 0.00341217 0)
(0.0778809 0.00341662 0)
(0.0765129 0.00342049 0)
(0.0751435 0.00342378 0)
(0.0737729 0.00342654 0)
(0.0724014 0.00342879 0)
(0.071029 0.00343056 0)
(0.0696561 0.00343188 0)
(0.0682827 0.00343276 0)
(0.0669092 0.00343324 0)
(0.0655355 0.00343334 0)
(0.0641618 0.00343308 0)
(0.0627884 0.0034325 0)
(0.0614153 0.0034316 0)
(0.0600426 0.00343041 0)
(0.0586705 0.00342896 0)
(0.057299 0.00342727 0)
(0.0559283 0.00342535 0)
(0.0545584 0.00342323 0)
(0.0531894 0.00342092 0)
(0.0518213 0.00341844 0)
(0.0504543 0.00341582 0)
(0.0490884 0.00341307 0)
(0.0477237 0.0034102 0)
(0.0463601 0.00340724 0)
(0.0449977 0.0034042 0)
(0.0436366 0.00340108 0)
(0.0422768 0.00339792 0)
(0.0409182 0.00339472 0)
(0.0395609 0.0033915 0)
(0.038205 0.00338826 0)
(0.0368503 0.00338503 0)
(0.035497 0.00338181 0)
(0.0341449 0.00337862 0)
(0.0327942 0.00337546 0)
(0.0314447 0.00337235 0)
(0.0300964 0.00336929 0)
(0.0287493 0.00336631 0)
(0.0274035 0.0033634 0)
(0.0260588 0.00336057 0)
(0.0247152 0.00335783 0)
(0.0233727 0.0033552 0)
(0.0220312 0.00335267 0)
(0.0206908 0.00335025 0)
(0.0193512 0.00334796 0)
(0.0180126 0.00334579 0)
(0.0166748 0.00334376 0)
(0.0153379 0.00334186 0)
(0.0140016 0.0033401 0)
(0.012666 0.00333849 0)
(0.0113311 0.00333703 0)
(0.00999669 0.00333573 0)
(0.00866279 0.00333458 0)
(0.00732932 0.00333358 0)
(0.00599621 0.00333276 0)
(0.00466341 0.00333209 0)
(0.00333084 0.00333159 0)
(0.00199844 0.00333126 0)
(0.000666135 0.00333109 0)
(0.000693312 -0.00485456 0)
(0.00207998 -0.00485487 0)
(0.00346678 -0.00485548 0)
(0.0048538 -0.00485639 0)
(0.00624113 -0.00485761 0)
(0.00762885 -0.00485912 0)
(0.00901705 -0.00486093 0)
(0.0104058 -0.00486303 0)
(0.0117952 -0.00486542 0)
(0.0131854 -0.00486809 0)
(0.0145763 -0.00487103 0)
(0.0159682 -0.00487424 0)
(0.017361 -0.0048777 0)
(0.0187548 -0.00488142 0)
(0.0201498 -0.00488538 0)
(0.0215459 -0.00488957 0)
(0.0229433 -0.00489398 0)
(0.024342 -0.00489859 0)
(0.025742 -0.0049034 0)
(0.0271435 -0.00490839 0)
(0.0285464 -0.00491355 0)
(0.0299509 -0.00491886 0)
(0.0313569 -0.0049243 0)
(0.0327645 -0.00492986 0)
(0.0341737 -0.00493552 0)
(0.0355846 -0.00494126 0)
(0.0369971 -0.00494706 0)
(0.0384114 -0.0049529 0)
(0.0398273 -0.00495876 0)
(0.0412449 -0.00496462 0)
(0.0426643 -0.00497044 0)
(0.0440853 -0.00497621 0)
(0.045508 -0.00498189 0)
(0.0469324 -0.00498747 0)
(0.0483584 -0.00499291 0)
(0.0497859 -0.00499818 0)
(0.0512149 -0.00500326 0)
(0.0526455 -0.00500811 0)
(0.0540774 -0.00501269 0)
(0.0555106 -0.00501698 0)
(0.056945 -0.00502094 0)
(0.0583806 -0.00502452 0)
(0.0598172 -0.00502771 0)
(0.0612546 -0.00503044 0)
(0.0626929 -0.00503269 0)
(0.0641317 -0.00503442 0)
(0.0655711 -0.00503557 0)
(0.0670107 -0.00503612 0)
(0.0684504 -0.00503601 0)
(0.0698901 -0.00503519 0)
(0.0713295 -0.00503363 0)
(0.0727684 -0.00503127 0)
(0.0742066 -0.00502807 0)
(0.0756438 -0.00502397 0)
(0.0770797 -0.00501892 0)
(0.0785141 -0.00501288 0)
(0.0799468 -0.0050058 0)
(0.0813773 -0.00499761 0)
(0.0828054 -0.00498826 0)
(0.0842306 -0.00497771 0)
(0.0856528 -0.00496589 0)
(0.0870715 -0.00495276 0)
(0.0884863 -0.00493826 0)
(0.0898968 -0.00492233 0)
(0.0913027 -0.00490491 0)
(0.0927034 -0.00488596 0)
(0.0940985 -0.00486541 0)
(0.0954876 -0.00484322 0)
(0.0968702 -0.00481932 0)
(0.0982458 -0.00479367 0)
(0.0996138 -0.00476621 0)
(0.100974 -0.00473689 0)
(0.102325 -0.00470565 0)
(0.103668 -0.00467246 0)
(0.105 -0.00463726 0)
(0.106322 -0.0046 0)
(0.107634 -0.00456063 0)
(0.108934 -0.00451913 0)
(0.110221 -0.00447544 0)
(0.111496 -0.00442952 0)
(0.112758 -0.00438134 0)
(0.114006 -0.00433087 0)
(0.115239 -0.00427807 0)
(0.116456 -0.00422292 0)
(0.117657 -0.00416539 0)
(0.118842 -0.00410546 0)
(0.120009 -0.00404312 0)
(0.121158 -0.00397834 0)
(0.122288 -0.00391112 0)
(0.123399 -0.00384145 0)
(0.12449 -0.00376933 0)
(0.125559 -0.00369476 0)
(0.126607 -0.00361775 0)
(0.127632 -0.00353831 0)
(0.128635 -0.00345645 0)
(0.129613 -0.00337219 0)
(0.130567 -0.00328557 0)
(0.131496 -0.0031966 0)
(0.132399 -0.00310532 0)
(0.133276 -0.00301178 0)
(0.134126 -0.00291601 0)
(0.134948 -0.00281806 0)
(0.135741 -0.002718 0)
(0.136506 -0.00261587 0)
(0.137241 -0.00251174 0)
(0.137946 -0.00240568 0)
(0.13862 -0.00229775 0)
(0.139263 -0.00218804 0)
(0.139875 -0.00207663 0)
(0.140454 -0.0019636 0)
(0.141 -0.00184904 0)
(0.141514 -0.00173304 0)
(0.141994 -0.0016157 0)
(0.14244 -0.00149712 0)
(0.142852 -0.00137739 0)
(0.14323 -0.00125663 0)
(0.143573 -0.00113494 0)
(0.14388 -0.00101243 0)
(0.144153 -0.000889202 0)
(0.14439 -0.000765382 0)
(0.144591 -0.000641078 0)
(0.144757 -0.000516407 0)
(0.144887 -0.000391482 0)
(0.144981 -0.000266421 0)
(0.145039 -0.000141338 0)
(0.145062 -1.63501e-05 0)
(0.145048 0.000108429 0)
(0.144999 0.000232884 0)
(0.144914 0.000356903 0)
(0.144794 0.000480375 0)
(0.144638 0.000603189 0)
(0.144447 0.00072524 0)
(0.144221 0.000846421 0)
(0.143961 0.00096663 0)
(0.143666 0.00108577 0)
(0.143338 0.00120374 0)
(0.142976 0.00132045 0)
(0.14258 0.0014358 0)
(0.142152 0.00154972 0)
(0.141691 0.00166213 0)
(0.141198 0.00177293 0)
(0.140674 0.00188206 0)
(0.140118 0.00198945 0)
(0.139532 0.00209503 0)
(0.138917 0.00219873 0)
(0.138271 0.00230052 0)
(0.137597 0.00240032 0)
(0.136895 0.00249809 0)
(0.136165 0.00259379 0)
(0.135407 0.00268738 0)
(0.134624 0.00277881 0)
(0.133814 0.00286808 0)
(0.13298 0.00295513 0)
(0.13212 0.00303996 0)
(0.131237 0.00312254 0)
(0.13033 0.00320287 0)
(0.129401 0.00328092 0)
(0.12845 0.0033567 0)
(0.127478 0.00343021 0)
(0.126484 0.00350143 0)
(0.125471 0.00357038 0)
(0.124439 0.00363707 0)
(0.123388 0.0037015 0)
(0.122318 0.0037637 0)
(0.121231 0.00382367 0)
(0.120128 0.00388145 0)
(0.119008 0.00393704 0)
(0.117873 0.00399048 0)
(0.116723 0.00404179 0)
(0.115558 0.004091 0)
(0.11438 0.00413815 0)
(0.113189 0.00418327 0)
(0.111985 0.00422639 0)
(0.110769 0.00426755 0)
(0.109541 0.00430679 0)
(0.108303 0.00434414 0)
(0.107055 0.00437965 0)
(0.105796 0.00441336 0)
(0.104528 0.00444531 0)
(0.103252 0.00447555 0)
(0.101967 0.00450412 0)
(0.100674 0.00453106 0)
(0.0993739 0.00455642 0)
(0.0980667 0.00458024 0)
(0.096753 0.00460257 0)
(0.0954332 0.00462346 0)
(0.0941076 0.00464294 0)
(0.0927768 0.00466108 0)
(0.091441 0.00467791 0)
(0.0901006 0.00469347 0)
(0.088756 0.00470782 0)
(0.0874076 0.004721 0)
(0.0860556 0.00473304 0)
(0.0847004 0.00474401 0)
(0.0833422 0.00475394 0)
(0.0819814 0.00476287 0)
(0.0806182 0.00477084 0)
(0.079253 0.00477791 0)
(0.0778859 0.0047841 0)
(0.0765172 0.00478947 0)
(0.0751471 0.00479405 0)
(0.0737759 0.00479787 0)
(0.0724038 0.00480099 0)
(0.0710309 0.00480343 0)
(0.0696574 0.00480523 0)
(0.0682836 0.00480643 0)
(0.0669095 0.00480707 0)
(0.0655354 0.00480717 0)
(0.0641613 0.00480678 0)
(0.0627875 0.00480593 0)
(0.061414 0.00480464 0)
(0.060041 0.00480295 0)
(0.0586686 0.00480089 0)
(0.0572968 0.00479849 0)
(0.0559258 0.00479577 0)
(0.0545557 0.00479277 0)
(0.0531865 0.00478952 0)
(0.0518183 0.00478603 0)
(0.0504511 0.00478233 0)
(0.0490851 0.00477846 0)
(0.0477202 0.00477442 0)
(0.0463565 0.00477025 0)
(0.044994 0.00476597 0)
(0.0436329 0.00476159 0)
(0.042273 0.00475714 0)
(0.0409144 0.00475264 0)
(0.0395571 0.00474811 0)
(0.0382011 0.00474357 0)
(0.0368465 0.00473902 0)
(0.0354931 0.0047345 0)
(0.0341411 0.00473001 0)
(0.0327904 0.00472558 0)
(0.031441 0.00472121 0)
(0.0300928 0.00471692 0)
(0.0287458 0.00471272 0)
(0.0274 0.00470864 0)
(0.0260554 0.00470467 0)
(0.024712 0.00470082 0)
(0.0233696 0.00469712 0)
(0.0220283 0.00469358 0)
(0.0206879 0.00469019 0)
(0.0193486 0.00468697 0)
(0.0180101 0.00468392 0)
(0.0166725 0.00468107 0)
(0.0153357 0.0046784 0)
(0.0139996 0.00467594 0)
(0.0126642 0.00467368 0)
(0.0113294 0.00467163 0)
(0.00999522 0.0046698 0)
(0.00866151 0.00466818 0)
(0.00732823 0.00466679 0)
(0.00599532 0.00466563 0)
(0.00466271 0.00466469 0)
(0.00333034 0.00466399 0)
(0.00199814 0.00466353 0)
(0.000666034 0.00466329 0)
(0.000693136 -0.00624105 0)
(0.00207945 -0.00624145 0)
(0.0034659 -0.00624223 0)
(0.00485258 -0.00624341 0)
(0.00623956 -0.00624498 0)
(0.00762694 -0.00624694 0)
(0.00901481 -0.00624927 0)
(0.0104032 -0.00625198 0)
(0.0117923 -0.00625506 0)
(0.0131822 -0.0062585 0)
(0.0145728 -0.00626229 0)
(0.0159643 -0.00626643 0)
(0.0173569 -0.00627091 0)
(0.0187504 -0.0062757 0)
(0.0201451 -0.00628081 0)
(0.021541 -0.00628621 0)
(0.0229381 -0.0062919 0)
(0.0243366 -0.00629785 0)
(0.0257364 -0.00630406 0)
(0.0271376 -0.0063105 0)
(0.0285404 -0.00631716 0)
(0.0299447 -0.00632401 0)
(0.0313505 -0.00633104 0)
(0.032758 -0.00633822 0)
(0.0341671 -0.00634553 0)
(0.0355779 -0.00635295 0)
(0.0369904 -0.00636044 0)
(0.0384046 -0.00636799 0)
(0.0398206 -0.00637556 0)
(0.0412382 -0.00638313 0)
(0.0426576 -0.00639066 0)
(0.0440787 -0.00639812 0)
(0.0455016 -0.00640548 0)
(0.046926 -0.0064127 0)
(0.0483522 -0.00641974 0)
(0.0497799 -0.00642658 0)
(0.0512092 -0.00643316 0)
(0.05264 -0.00643945 0)
(0.0540722 -0.0064454 0)
(0.0555058 -0.00645097 0)
(0.0569406 -0.00645612 0)
(0.0583766 -0.0064608 0)
(0.0598137 -0.00646496 0)
(0.0612517 -0.00646854 0)
(0.0626905 -0.00647151 0)
(0.06413 -0.0064738 0)
(0.06557 -0.00647536 0)
(0.0670104 -0.00647614 0)
(0.0684509 -0.00647607 0)
(0.0698914 -0.0064751 0)
(0.0713317 -0.00647318 0)
(0.0727715 -0.00647023 0)
(0.0742107 -0.00646619 0)
(0.0756489 -0.00646101 0)
(0.077086 -0.00645461 0)
(0.0785216 -0.00644693 0)
(0.0799554 -0.00643791 0)
(0.0813872 -0.00642747 0)
(0.0828166 -0.00641555 0)
(0.0842433 -0.00640208 0)
(0.085667 -0.00638698 0)
(0.0870872 -0.00637019 0)
(0.0885036 -0.00635164 0)
(0.0899158 -0.00633125 0)
(0.0913234 -0.00630895 0)
(0.0927259 -0.00628468 0)
(0.0941228 -0.00625835 0)
(0.0955139 -0.00622991 0)
(0.0968984 -0.00619928 0)
(0.098276 -0.00616639 0)
(0.0996462 -0.00613117 0)
(0.101008 -0.00609356 0)
(0.102362 -0.00605349 0)
(0.103707 -0.00601089 0)
(0.105041 -0.00596571 0)
(0.106366 -0.00591788 0)
(0.10768 -0.00586735 0)
(0.108982 -0.00581405 0)
(0.110273 -0.00575794 0)
(0.11155 -0.00569897 0)
(0.112814 -0.00563708 0)
(0.114065 -0.00557225 0)
(0.1153 -0.00550441 0)
(0.11652 -0.00543354 0)
(0.117724 -0.00535961 0)
(0.118912 -0.00528259 0)
(0.120082 -0.00520246 0)
(0.121234 -0.00511919 0)
(0.122367 -0.00503277 0)
(0.12348 -0.0049432 0)
(0.124573 -0.00485048 0)
(0.125646 -0.00475459 0)
(0.126696 -0.00465556 0)
(0.127724 -0.00455339 0)
(0.128729 -0.00444811 0)
(0.129711 -0.00433974 0)
(0.130668 -0.00422831 0)
(0.131599 -0.00411386 0)
(0.132505 -0.00399644 0)
(0.133384 -0.0038761 0)
(0.134237 -0.00375288 0)
(0.135061 -0.00362686 0)
(0.135857 -0.0034981 0)
(0.136624 -0.00336669 0)
(0.137361 -0.00323269 0)
(0.138068 -0.0030962 0)
(0.138745 -0.00295731 0)
(0.13939 -0.00281612 0)
(0.140003 -0.00267273 0)
(0.140584 -0.00252725 0)
(0.141132 -0.0023798 0)
(0.141647 -0.0022305 0)
(0.142129 -0.00207946 0)
(0.142576 -0.00192682 0)
(0.14299 -0.00177271 0)
(0.143368 -0.00161726 0)
(0.143712 -0.00146061 0)
(0.144021 -0.00130291 0)
(0.144294 -0.00114428 0)
(0.144532 -0.000984891 0)
(0.144734 -0.000824875 0)
(0.1449 -0.000664385 0)
(0.14503 -0.00050357 0)
(0.145124 -0.000342578 0)
(0.145182 -0.00018156 0)
(0.145205 -2.0664e-05 0)
(0.145191 0.000139961 0)
(0.145141 0.000300168 0)
(0.145056 0.000459812 0)
(0.144935 0.000618748 0)
(0.144778 0.000776837 0)