/*--------------------------------*- C++ -*----------------------------------*\
| =========                 |                                                 |
| \\      /  F ield         | OpenFOAM: The Open Source CFD Toolbox           |
|  \\    /   O peration     | Version:  v2012                                 |
|   \\  /    A nd           | Website:  www.openfoam.com                      |
|    \\/     M anipulation  |                                                 |
\*---------------------------------------------------------------------------*/
FoamFile
{
    version     2.0;
    format      ascii;
    class       volScalarField;
    location    "15";
    object      W;
}
// * * * * * * * * * * * * * * * * * * * * * * * * * * * * * * * * * * * * * //

dimensions      [0 0 -1 0 0 0 0];


internalField   nonuniform List<scalar> 
65536
(
5.50872e-15
5.60195e-15
5.79282e-15
6.08404e-15
6.47975e-15
6.98558e-15
7.60874e-15
8.35803e-15
9.24403e-15
1.02792e-14
1.14779e-14
1.28569e-14
1.4435e-14
1.62338e-14
1.82777e-14
2.05941e-14
2.32137e-14
2.61709e-14
2.95041e-14
3.32562e-14
3.74747e-14
4.22125e-14
4.75283e-14
5.34869e-14
6.01599e-14
6.76266e-14
7.59743e-14
8.52989e-14
9.57063e-14
1.07312e-13
1.20245e-13
1.34642e-13
1.50658e-13
1.68458e-13
1.88224e-13
2.10155e-13
2.34466e-13
2.61391e-13
2.91184e-13
3.2412e-13
3.60496e-13
4.00635e-13
4.44881e-13
4.93609e-13
5.47219e-13
6.0614e-13
6.70833e-13
7.41789e-13
8.19532e-13
9.04621e-13
9.97649e-13
1.09924e-12
1.21007e-12
1.33083e-12
1.46226e-12
1.60515e-12
1.76029e-12
1.92854e-12
2.11079e-12
2.30795e-12
2.52098e-12
2.75086e-12
2.99859e-12
3.26522e-12
3.5518e-12
3.8594e-12
4.18912e-12
4.54205e-12
4.91929e-12
5.32194e-12
5.75108e-12
6.20777e-12
6.69305e-12
7.20794e-12
7.75339e-12
8.33031e-12
8.93956e-12
9.5819e-12
1.0258e-11
1.09685e-11
1.17139e-11
1.24946e-11
1.33108e-11
1.41626e-11
1.50501e-11
1.5973e-11
1.6931e-11
1.79236e-11
1.89502e-11
2.00099e-11
2.11016e-11
2.22241e-11
2.3376e-11
2.45556e-11
2.57612e-11
2.69908e-11
2.82422e-11
2.95131e-11
3.08009e-11
3.2103e-11
3.34166e-11
3.47387e-11
3.60662e-11
3.73959e-11
3.87247e-11
4.0049e-11
4.13656e-11
4.2671e-11
4.39618e-11
4.52344e-11
4.64856e-11
4.77118e-11
4.89098e-11
5.00763e-11
5.12081e-11
5.23022e-11
5.33557e-11
5.43657e-11
5.53296e-11
5.62449e-11
5.71092e-11
5.79205e-11
5.86766e-11
5.93758e-11
6.00165e-11
6.0597e-11
6.11163e-11
6.1573e-11
6.19662e-11
6.22951e-11
6.25591e-11
6.27575e-11
6.28899e-11
6.29561e-11
6.29558e-11
6.2889e-11
6.27556e-11
6.25557e-11
6.22894e-11
6.1957e-11
6.15586e-11
6.10947e-11
6.05655e-11
5.99715e-11
5.93132e-11
5.85911e-11
5.78058e-11
5.69581e-11
5.60485e-11
5.50782e-11
5.40481e-11
5.29592e-11
5.1813e-11
5.0611e-11
4.93548e-11
4.80465e-11
4.66883e-11
4.52826e-11
4.38323e-11
4.23406e-11
4.0811e-11
3.92473e-11
3.76539e-11
3.60353e-11
3.43966e-11
3.2743e-11
3.10804e-11
2.94146e-11
2.77518e-11
2.60987e-11
2.44616e-11
2.28473e-11
2.12625e-11
1.97138e-11
1.82074e-11
1.67497e-11
1.53464e-11
1.40028e-11
1.27239e-11
1.15138e-11
1.03764e-11
9.31432e-12
8.32994e-12
7.42465e-12
6.5991e-12
5.85319e-12
5.18606e-12
4.59612e-12
4.08112e-12
3.63814e-12
3.2637e-12
2.95378e-12
2.70389e-12
2.50914e-12
2.36429e-12
2.26384e-12
2.20205e-12
2.17309e-12
2.17103e-12
2.18996e-12
2.22408e-12
2.26778e-12
2.31572e-12
2.36292e-12
2.40489e-12
2.43765e-12
2.45786e-12
2.46289e-12
2.4508e-12
2.42042e-12
2.37134e-12
2.30386e-12
2.21896e-12
2.11822e-12
2.0037e-12
1.87787e-12
1.74345e-12
1.60327e-12
1.46021e-12
1.31702e-12
1.17626e-12
1.04018e-12
9.10711e-13
7.89386e-13
6.77342e-13
5.7532e-13
4.83692e-13
4.02498e-13
3.3149e-13
2.70188e-13
2.17937e-13
1.73958e-13
1.37399e-13
1.07383e-13
8.30371e-14
6.35301e-14
4.80881e-14
3.60105e-14
2.66768e-14
1.95494e-14
1.41713e-14
1.01612e-14
7.20647e-15
5.05499e-15
3.50689e-15
2.40609e-15
1.6326e-15
1.09553e-15
7.27091e-16
4.77432e-16
3.10464e-16
2.00474e-16
1.29479e-16
8.5217e-17
5.96669e-17
4.80174e-17
8.25097e-15
8.39078e-15
8.67729e-15
9.1145e-15
9.70866e-15
1.04683e-14
1.14042e-14
1.25297e-14
1.38608e-14
1.54163e-14
1.7218e-14
1.9291e-14
2.1664e-14
2.43695e-14
2.74445e-14
3.09302e-14
3.48734e-14
3.9326e-14
4.43461e-14
4.99988e-14
5.6356e-14
6.34979e-14
7.15133e-14
8.05005e-14
9.05683e-14
1.01837e-13
1.14438e-13
1.28518e-13
1.44237e-13
1.61772e-13
1.81314e-13
2.03076e-13
2.27289e-13
2.54206e-13
2.84102e-13
3.17279e-13
3.54061e-13
3.94805e-13
4.39894e-13
4.89746e-13
5.44811e-13
6.05574e-13
6.72558e-13
7.46328e-13
8.27486e-13
9.16681e-13
1.0146e-12
1.12199e-12
1.23964e-12
1.36838e-12
1.50909e-12
1.66272e-12
1.83026e-12
2.01275e-12
2.21128e-12
2.427e-12
2.66112e-12
2.91487e-12
3.18954e-12
3.48649e-12
3.80708e-12
4.15274e-12
4.52492e-12
4.92508e-12
5.35474e-12
5.81539e-12
6.30855e-12
6.83574e-12
7.39845e-12
7.99816e-12
8.63631e-12
9.31428e-12
1.00334e-11
1.07949e-11
1.16e-11
1.24498e-11
1.33451e-11
1.42868e-11
1.52755e-11
1.63117e-11
1.73958e-11
1.85278e-11
1.97077e-11
2.0935e-11
2.22093e-11
2.35298e-11
2.48953e-11
2.63046e-11
2.77559e-11
2.92476e-11
3.07773e-11
3.23426e-11
3.39408e-11
3.5569e-11
3.72239e-11
3.89019e-11
4.05993e-11
4.23122e-11
4.40364e-11
4.57676e-11
4.75011e-11
4.92324e-11
5.09568e-11
5.26693e-11
5.43651e-11
5.60393e-11
5.7687e-11
5.93033e-11
6.08834e-11
6.24227e-11
6.39165e-11
6.53606e-11
6.67506e-11
6.80826e-11
6.93528e-11
7.05576e-11
7.16939e-11
7.27585e-11
7.37489e-11
7.46626e-11
7.54975e-11
7.62519e-11
7.69241e-11
7.75131e-11
7.80178e-11
7.84376e-11
7.87722e-11
7.90214e-11
7.91854e-11
7.92643e-11
7.92588e-11
7.91695e-11
7.89973e-11
7.87431e-11
7.84081e-11
7.79935e-11
7.75005e-11
7.69304e-11
7.62848e-11
7.5565e-11
7.47725e-11
7.39087e-11
7.29752e-11
7.19736e-11
7.09052e-11
6.97716e-11
6.85745e-11
6.73154e-11
6.5996e-11
6.46178e-11
6.31829e-11
6.16929e-11
6.015e-11
5.85562e-11
5.6914e-11
5.52259e-11
5.34947e-11
5.17234e-11
4.99153e-11
4.80742e-11
4.62039e-11
4.43087e-11
4.23934e-11
4.04629e-11
3.85226e-11
3.65782e-11
3.46356e-11
3.27011e-11
3.07812e-11
2.88825e-11
2.70118e-11
2.51759e-11
2.33815e-11
2.16353e-11
1.99436e-11
1.83126e-11
1.67479e-11
1.52547e-11
1.38377e-11
1.2501e-11
1.12477e-11
1.00804e-11
9.00106e-12
8.01053e-12
7.10902e-12
6.29591e-12
5.56981e-12
4.92859e-12
4.36943e-12
3.88885e-12
3.48279e-12
3.14666e-12
2.87543e-12
2.66365e-12
2.50556e-12
2.39513e-12
2.32616e-12
2.29232e-12
2.28725e-12
2.30463e-12
2.33828e-12
2.38223e-12
2.43081e-12
2.47877e-12
2.52137e-12
2.55442e-12
2.57443e-12
2.57861e-12
2.56495e-12
2.53224e-12
2.48004e-12
2.40869e-12
2.31922e-12
2.21328e-12
2.09305e-12
1.96108e-12
1.82023e-12
1.67348e-12
1.52379e-12
1.37406e-12
1.22693e-12
1.08476e-12
9.49553e-13
8.22895e-13
7.05963e-13
5.99523e-13
5.03954e-13
4.19289e-13
3.45264e-13
2.81372e-13
2.26925e-13
1.81107e-13
1.43026e-13
1.11766e-13
8.64158e-14
6.61072e-14
5.00332e-14
3.74629e-14
2.77498e-14
2.03337e-14
1.47385e-14
1.05669e-14
7.49354e-15
5.25592e-15
3.646e-15
2.50135e-15
1.69711e-15
1.13874e-15
7.55719e-16
4.96199e-16
3.22649e-16
2.0833e-16
1.34545e-16
8.85459e-17
6.19945e-17
4.98898e-17
1.49256e-14
1.51791e-14
1.56989e-14
1.64922e-14
1.75704e-14
1.89489e-14
2.06477e-14
2.26911e-14
2.51082e-14
2.79334e-14
3.12066e-14
3.49737e-14
3.92871e-14
4.42066e-14
4.97994e-14
5.61416e-14
6.33182e-14
7.14249e-14
8.05681e-14
9.08668e-14
1.02453e-13
1.15474e-13
1.30093e-13
1.46491e-13
1.64866e-13
1.85439e-13
2.08454e-13
2.34178e-13
2.62907e-13
2.94962e-13
3.307e-13
3.70509e-13
4.14815e-13
4.64081e-13
5.18814e-13
5.79567e-13
6.46938e-13
7.21579e-13
8.04197e-13
8.95555e-13
9.96478e-13
1.10786e-12
1.23065e-12
1.36589e-12
1.51467e-12
1.67818e-12
1.85768e-12
2.05452e-12
2.27013e-12
2.50602e-12
2.76379e-12
3.04515e-12
3.35188e-12
3.68586e-12
4.04904e-12
4.44347e-12
4.87128e-12
5.33469e-12
5.83598e-12
6.3775e-12
6.96165e-12
7.5909e-12
8.26774e-12
8.9947e-12
9.77432e-12
1.06091e-11
1.15016e-11
1.24543e-11
1.34697e-11
1.45499e-11
1.56973e-11
1.6914e-11
1.82019e-11
1.95628e-11
2.09982e-11
2.25095e-11
2.40977e-11
2.57635e-11
2.75075e-11
2.93296e-11
3.12295e-11
3.32066e-11
3.52597e-11
3.73872e-11
3.95871e-11
4.18567e-11
4.41932e-11
4.65929e-11
4.90518e-11
5.15653e-11
5.41285e-11
5.67357e-11
5.93809e-11
6.20577e-11
6.47592e-11
6.74781e-11
7.02069e-11
7.29375e-11
7.56617e-11
7.83712e-11
8.10573e-11
8.37114e-11
8.63248e-11
8.88886e-11
9.13944e-11
9.38336e-11
9.61979e-11
9.84793e-11
1.0067e-10
1.02763e-10
1.04751e-10
1.06627e-10
1.08387e-10
1.10024e-10
1.11533e-10
1.12911e-10
1.14153e-10
1.15257e-10
1.16221e-10
1.17043e-10
1.17721e-10
1.18255e-10
1.18646e-10
1.18894e-10
1.19e-10
1.18966e-10
1.18794e-10
1.18487e-10
1.18047e-10
1.17479e-10
1.16784e-10
1.15968e-10
1.15035e-10
1.13988e-10
1.12831e-10
1.11569e-10
1.10207e-10
1.08749e-10
1.07198e-10
1.05561e-10
1.03839e-10
1.02039e-10
1.00163e-10
9.82157e-11
9.6201e-11
9.41225e-11
9.19838e-11
8.97884e-11
8.75396e-11
8.5241e-11
8.28958e-11
8.05073e-11
7.80791e-11
7.56144e-11
7.31169e-11
7.05902e-11
6.80381e-11
6.54646e-11
6.28739e-11
6.02706e-11
5.76594e-11
5.50454e-11
5.24339e-11
4.98305e-11
4.72412e-11
4.46722e-11
4.213e-11
3.96212e-11
3.71527e-11
3.47314e-11
3.23643e-11
3.00583e-11
2.78202e-11
2.56566e-11
2.35738e-11
2.15775e-11
1.96732e-11
1.78657e-11
1.61589e-11
1.45564e-11
1.30606e-11
1.16734e-11
1.03955e-11
9.22698e-12
8.167e-12
7.21381e-12
6.36489e-12
5.61692e-12
4.96588e-12
4.40708e-12
3.93527e-12
3.54466e-12
3.22905e-12
2.98185e-12
2.79619e-12
2.66497e-12
2.58098e-12
2.53691e-12
2.52549e-12
2.53954e-12
2.57209e-12
2.61642e-12
2.66623e-12
2.71569e-12
2.75951e-12
2.79312e-12
2.81265e-12
2.81507e-12
2.79819e-12
2.76069e-12
2.70211e-12
2.62284e-12
2.52401e-12
2.40745e-12
2.27551e-12
2.13101e-12
1.97704e-12
1.81683e-12
1.65362e-12
1.49051e-12
1.33039e-12
1.17579e-12
1.02886e-12
8.91308e-13
7.64396e-13
6.48935e-13
5.45318e-13
4.53568e-13
3.73383e-13
3.04203e-13
2.45273e-13
1.957e-13
1.54513e-13
1.20713e-13
9.33128e-14
7.13679e-14
5.40034e-14
4.04276e-14
2.99402e-14
2.19347e-14
1.58961e-14
1.1395e-14
8.07949e-15
5.66604e-15
3.92992e-15
2.69576e-15
1.82877e-15
1.22693e-15
8.14149e-16
5.34503e-16
3.47517e-16
2.24363e-16
1.44884e-16
9.53403e-17
6.67449e-17
5.37092e-17
2.83442e-14
2.88271e-14
2.98172e-14
3.13283e-14
3.33824e-14
3.60091e-14
3.92465e-14
4.31412e-14
4.77492e-14
5.31364e-14
5.93794e-14
6.65663e-14
7.4798e-14
8.41888e-14
9.48684e-14
1.06983e-13
1.20695e-13
1.3619e-13
1.53672e-13
1.7337e-13
1.95539e-13
2.20462e-13
2.48452e-13
2.79859e-13
3.15066e-13
3.54498e-13
3.98625e-13
4.47964e-13
5.03082e-13
5.64604e-13
6.33215e-13
7.09665e-13
7.94774e-13
8.8944e-13
9.9464e-13
1.11144e-12
1.24099e-12
1.38456e-12
1.5435e-12
1.71928e-12
1.91351e-12
2.12788e-12
2.36425e-12
2.6246e-12
2.91104e-12
3.22585e-12
3.57144e-12
3.9504e-12
4.36546e-12
4.81951e-12
5.31562e-12
5.85702e-12
6.4471e-12
7.08941e-12
7.78765e-12
8.54569e-12
9.36753e-12
1.02573e-11
1.12193e-11
1.22578e-11
1.33773e-11
1.45824e-11
1.58775e-11
1.72673e-11
1.87563e-11
2.03489e-11
2.20498e-11
2.3863e-11
2.57929e-11
2.78431e-11
3.00176e-11
3.23194e-11
3.47517e-11
3.7317e-11
4.00173e-11
4.28542e-11
4.58286e-11
4.89408e-11
5.21905e-11
5.55764e-11
5.90967e-11
6.27484e-11
6.65281e-11
7.0431e-11
7.44517e-11
7.85836e-11
8.28192e-11
8.71502e-11
9.15672e-11
9.60597e-11
1.00617e-10
1.05226e-10
1.09874e-10
1.14547e-10
1.19232e-10
1.23912e-10
1.28573e-10
1.33198e-10
1.37772e-10
1.42276e-10
1.46696e-10
1.51014e-10
1.55215e-10
1.59281e-10
1.63198e-10
1.66951e-10
1.70524e-10
1.73905e-10
1.77081e-10
1.8004e-10
1.82772e-10
1.85266e-10
1.87516e-10
1.89513e-10
1.91253e-10
1.92731e-10
1.93944e-10
1.9489e-10
1.95569e-10
1.95982e-10
1.96131e-10
1.96019e-10
1.95651e-10
1.95033e-10
1.9417e-10
1.9307e-10
1.9174e-10
1.90191e-10
1.8843e-10
1.86467e-10
1.84312e-10
1.81977e-10
1.7947e-10
1.76803e-10
1.73987e-10
1.71031e-10
1.67946e-10
1.64742e-10
1.61429e-10
1.58016e-10
1.54513e-10
1.50929e-10
1.47272e-10
1.4355e-10
1.39771e-10
1.35941e-10
1.32069e-10
1.2816e-10
1.24221e-10
1.20258e-10
1.16276e-10
1.12281e-10
1.08278e-10
1.04272e-10
1.00269e-10
9.62728e-11
9.22896e-11
8.83241e-11
8.43816e-11
8.04676e-11
7.65877e-11
7.27477e-11
6.89536e-11
6.52116e-11
6.15283e-11
5.79103e-11
5.43643e-11
5.08975e-11
4.75167e-11
4.4229e-11
4.10413e-11
3.79605e-11
3.49931e-11
3.21452e-11
2.94226e-11
2.68304e-11
2.43733e-11
2.2055e-11
1.98785e-11
1.78459e-11
1.59585e-11
1.42165e-11
1.2619e-11
1.11645e-11
9.85015e-12
8.67243e-12
7.62685e-12
6.70813e-12
5.91025e-12
5.22656e-12
4.64982e-12
4.1723e-12
3.78589e-12
3.48216e-12
3.25246e-12
3.08799e-12
2.97988e-12
2.9193e-12
2.89751e-12
2.90599e-12
2.93649e-12
2.98117e-12
3.03267e-12
3.08424e-12
3.12982e-12
3.16415e-12
3.18283e-12
3.18241e-12
3.16042e-12
3.11539e-12
3.04683e-12
2.9552e-12
2.84179e-12
2.70868e-12
2.55855e-12
2.39456e-12
2.2202e-12
2.0391e-12
1.85488e-12
1.67102e-12
1.49073e-12
1.31684e-12
1.15173e-12
9.97295e-13
8.54912e-13
7.25468e-13
6.09381e-13
5.06651e-13
4.16923e-13
3.39552e-13
2.73677e-13
2.18289e-13
1.72293e-13
1.34562e-13
1.03987e-13
7.95087e-14
6.0147e-14
4.50149e-14
3.3329e-14
2.44115e-14
1.7687e-14
1.2676e-14
8.98585e-15
6.30039e-15
4.36906e-15
2.99644e-15
2.0324e-15
1.36332e-15
9.04505e-16
5.93733e-16
3.85971e-16
2.49154e-16
1.60871e-16
1.05845e-16
7.40894e-17
5.96138e-17
5.39394e-14
5.48614e-14
5.67517e-14
5.96369e-14
6.35591e-14
6.85753e-14
7.47587e-14
8.21989e-14
9.10035e-14
1.01299e-13
1.13234e-13
1.26976e-13
1.42721e-13
1.60688e-13
1.81127e-13
2.04319e-13
2.3058e-13
2.60264e-13
2.93767e-13
3.31529e-13
3.74043e-13
4.21855e-13
4.75571e-13
5.35864e-13
6.03477e-13
6.79231e-13
7.64035e-13
8.58886e-13
9.64884e-13
1.08324e-12
1.21527e-12
1.36244e-12
1.52632e-12
1.70867e-12
1.91136e-12
2.13646e-12
2.38621e-12
2.66304e-12
2.96958e-12
3.3087e-12
3.68345e-12
4.09715e-12
4.55337e-12
5.05594e-12
5.60894e-12
6.21675e-12
6.88404e-12
7.61576e-12
8.41717e-12
9.29385e-12
1.02517e-11
1.12968e-11
1.24357e-11
1.36752e-11
1.50223e-11
1.64843e-11
1.80689e-11
1.97837e-11
2.1637e-11
2.36367e-11
2.57911e-11
2.81088e-11
3.0598e-11
3.3267e-11
3.61243e-11
3.91778e-11
4.24354e-11
4.59047e-11
4.95928e-11
5.35062e-11
5.7651e-11
6.20325e-11
6.6655e-11
7.15222e-11
7.66365e-11
8.19993e-11
8.76107e-11
9.34693e-11
9.95725e-11
1.05916e-10
1.12494e-10
1.19298e-10
1.2632e-10
1.33547e-10
1.40968e-10
1.48566e-10
1.56326e-10
1.64227e-10
1.7225e-10
1.80373e-10
1.88571e-10
1.96818e-10
2.05089e-10
2.13353e-10
2.21584e-10
2.29749e-10
2.37818e-10
2.45759e-10
2.53541e-10
2.61133e-10
2.68502e-10
2.75619e-10
2.82452e-10
2.88974e-10
2.95156e-10
3.00972e-10
3.06398e-10
3.11411e-10
3.15991e-10
3.20121e-10
3.23785e-10
3.26969e-10
3.29665e-10
3.31863e-10
3.33561e-10
3.34754e-10
3.35446e-10
3.35637e-10
3.35335e-10
3.34548e-10
3.33286e-10
3.31562e-10
3.2939e-10
3.26787e-10
3.2377e-10
3.2036e-10
3.16576e-10
3.12439e-10
3.07972e-10
3.03197e-10
2.98137e-10
2.92814e-10
2.87252e-10
2.81473e-10
2.75498e-10
2.69351e-10
2.63051e-10
2.56619e-10
2.50075e-10
2.43436e-10
2.36721e-10
2.29945e-10
2.23125e-10
2.16275e-10
2.09409e-10
2.02539e-10
1.95676e-10
1.88833e-10
1.82018e-10
1.7524e-10
1.6851e-10
1.61833e-10
1.55219e-10
1.48673e-10
1.42202e-10
1.35813e-10
1.29512e-10
1.23304e-10
1.17196e-10
1.11194e-10
1.05302e-10
9.95286e-11
9.38783e-11
8.83577e-11
8.29731e-11
7.7731e-11
7.26379e-11
6.77004e-11
6.29248e-11
5.83176e-11
5.38849e-11
4.96326e-11
4.55663e-11
4.16907e-11
3.80104e-11
3.45289e-11
3.12491e-11
2.81728e-11
2.5301e-11
2.26336e-11
2.01693e-11
1.79058e-11
1.58398e-11
1.39666e-11
1.22806e-11
1.07754e-11
9.44349e-12
8.27648e-12
7.26536e-12
6.40046e-12
5.67159e-12
5.06812e-12
4.57912e-12
4.19346e-12
3.89985e-12
3.687e-12
3.54369e-12
3.45883e-12
3.42161e-12
3.42153e-12
3.44856e-12
3.49322e-12
3.54666e-12
3.60084e-12
3.64857e-12
3.68364e-12
3.70088e-12
3.69628e-12
3.66697e-12
3.61125e-12
3.5286e-12
3.41955e-12
3.28565e-12
3.12932e-12
2.95368e-12
2.76241e-12
2.55951e-12
2.34919e-12
2.1356e-12
1.92275e-12
1.71429e-12
1.51347e-12
1.32299e-12
1.14499e-12
9.81021e-13
8.32078e-13
6.98605e-13
5.80572e-13
4.77545e-13
3.88762e-13
3.13215e-13
2.49729e-13
1.97035e-13
1.53831e-13
1.18837e-13
9.08334e-14
6.86924e-14
5.13949e-14
3.80418e-14
2.78557e-14
2.01771e-14
1.44569e-14
1.02459e-14
7.18219e-15
4.97946e-15
3.41436e-15
2.31539e-15
1.55285e-15
1.03007e-15
6.76038e-16
4.39402e-16
2.83599e-16
1.83082e-16
1.2044e-16
8.42928e-17
6.78165e-17
1.01609e-13
1.03352e-13
1.06925e-13
1.1238e-13
1.19795e-13
1.2928e-13
1.40973e-13
1.55047e-13
1.71704e-13
1.91187e-13
2.13777e-13
2.39797e-13
2.69616e-13
3.03654e-13
3.42388e-13
3.86355e-13
4.36155e-13
4.92467e-13
5.56045e-13
6.27733e-13
7.08471e-13
7.99303e-13
9.01391e-13
1.01602e-12
1.14461e-12
1.28874e-12
1.45015e-12
1.63075e-12
1.83264e-12
2.05815e-12
2.3098e-12
2.5904e-12
2.90298e-12
3.25088e-12
3.63772e-12
4.06746e-12
4.5444e-12
5.07321e-12
5.65893e-12
6.30703e-12
7.02341e-12
7.81443e-12
8.68691e-12
9.64819e-12
1.07061e-11
1.1869e-11
1.31458e-11
1.4546e-11
1.60797e-11
1.77574e-11
1.95904e-11
2.15903e-11
2.37695e-11
2.61409e-11
2.87177e-11
3.15138e-11
3.45435e-11
3.78214e-11
4.13624e-11
4.51818e-11
4.9295e-11
5.37174e-11
5.84643e-11
6.35511e-11
6.89927e-11
7.48036e-11
8.09976e-11
8.7588e-11
9.45868e-11
1.02005e-10
1.09853e-10
1.18138e-10
1.26867e-10
1.36044e-10
1.45672e-10
1.5575e-10
1.66276e-10
1.77243e-10
1.88645e-10
2.00468e-10
2.12699e-10
2.25318e-10
2.38304e-10
2.51632e-10
2.65271e-10
2.79191e-10
2.93353e-10
3.0772e-10
3.22247e-10
3.36888e-10
3.51594e-10
3.66313e-10
3.80992e-10
3.95572e-10
4.09998e-10
4.24208e-10
4.38144e-10
4.51745e-10
4.64952e-10
4.77704e-10
4.89944e-10
5.01616e-10
5.12666e-10
5.23043e-10
5.32699e-10
5.4159e-10
5.49675e-10
5.56921e-10
5.63295e-10
5.68772e-10
5.73332e-10
5.7696e-10
5.79647e-10
5.81388e-10
5.82185e-10
5.82044e-10
5.80979e-10
5.79005e-10
5.76144e-10
5.72423e-10
5.6787e-10
5.62521e-10
5.56411e-10
5.4958e-10
5.4207e-10
5.33926e-10
5.25191e-10
5.15912e-10
5.06137e-10
4.95911e-10
4.85283e-10
4.74297e-10
4.63001e-10
4.51436e-10
4.39647e-10
4.27674e-10
4.15557e-10
4.03333e-10
3.91036e-10
3.787e-10
3.66356e-10
3.54031e-10
3.41752e-10
3.29544e-10
3.17427e-10
3.05421e-10
2.93545e-10
2.81814e-10
2.70243e-10
2.58844e-10
2.47628e-10
2.36605e-10
2.25784e-10
2.15174e-10
2.04779e-10
1.94608e-10
1.84666e-10
1.74957e-10
1.65487e-10
1.56261e-10
1.47283e-10
1.38558e-10
1.30089e-10
1.21883e-10
1.13942e-10
1.06272e-10
9.88764e-11
9.17607e-11
8.49288e-11
7.83848e-11
7.21323e-11
6.61748e-11
6.0515e-11
5.51551e-11
5.00964e-11
4.53394e-11
4.08837e-11
3.67274e-11
3.2868e-11
2.93014e-11
2.60223e-11
2.30244e-11
2.02998e-11
1.78396e-11
1.56339e-11
1.36716e-11
1.19406e-11
1.04282e-11
9.12085e-12
8.00455e-12
7.06481e-12
6.28687e-12
5.6558e-12
5.15659e-12
4.77433e-12
4.49421e-12
4.30173e-12
4.1827e-12
4.12343e-12
4.11075e-12
4.13216e-12
4.17596e-12
4.2313e-12
4.28837e-12
4.33845e-12
4.37406e-12
4.38902e-12
4.37852e-12
4.33918e-12
4.26902e-12
4.16741e-12
4.03505e-12
3.87379e-12
3.68652e-12
3.47693e-12
3.24937e-12
3.00857e-12
2.75946e-12
2.50692e-12
2.25563e-12
2.00986e-12
1.77337e-12
1.54929e-12
1.34011e-12
1.1476e-12
9.72869e-13
8.16411e-13
6.78154e-13
5.57557e-13
4.537e-13
3.6538e-13
2.91203e-13
2.29668e-13
1.79241e-13
1.38417e-13
1.05763e-13
7.99565e-14
5.98037e-14
4.42525e-14
3.2394e-14
2.34578e-14
1.68031e-14
1.19056e-14
8.34363e-15
5.78336e-15
3.9647e-15
2.68804e-15
1.80241e-15
1.19538e-15
7.84393e-16
5.09741e-16
3.28942e-16
2.12318e-16
1.3965e-16
9.77218e-17
7.8612e-17
1.889e-13
1.92154e-13
1.98822e-13
2.09002e-13
2.22841e-13
2.40547e-13
2.62378e-13
2.88657e-13
3.19769e-13
3.56168e-13
3.98382e-13
4.47019e-13
5.02775e-13
5.66442e-13
6.38915e-13
7.21207e-13
8.14452e-13
9.19927e-13
1.03906e-12
1.17343e-12
1.32483e-12
1.49523e-12
1.68681e-12
1.90201e-12
2.14352e-12
2.41432e-12
2.7177e-12
3.05727e-12
3.43704e-12
3.86138e-12
4.33511e-12
4.86351e-12
5.45236e-12
6.10796e-12
6.83721e-12
7.64759e-12
8.54728e-12
9.5451e-12
1.06507e-11
1.18743e-11
1.32272e-11
1.47215e-11
1.637e-11
1.81867e-11
2.01864e-11
2.2385e-11
2.47993e-11
2.74473e-11
3.03479e-11
3.35212e-11
3.69882e-11
4.07711e-11
4.48931e-11
4.93781e-11
5.42513e-11
5.95386e-11
6.52664e-11
7.14621e-11
7.81534e-11
8.53685e-11
9.31356e-11
1.01483e-10
1.10439e-10
1.20031e-10
1.30285e-10
1.41228e-10
1.52885e-10
1.65277e-10
1.78425e-10
1.92348e-10
2.0706e-10
2.22575e-10
2.38901e-10
2.56042e-10
2.73998e-10
2.92764e-10
3.12331e-10
3.32683e-10
3.53798e-10
3.75648e-10
3.98199e-10
4.21411e-10
4.45235e-10
4.69617e-10
4.94495e-10
5.19801e-10
5.45461e-10
5.71392e-10
5.97508e-10
6.23715e-10
6.49916e-10
6.76007e-10
7.01882e-10
7.27432e-10
7.52544e-10
7.77106e-10
8.01004e-10
8.24125e-10
8.46359e-10
8.67595e-10
8.8773e-10
9.06664e-10
9.24302e-10
9.40555e-10
9.55345e-10
9.68599e-10
9.80254e-10
9.90257e-10
9.98564e-10
1.00514e-09
1.00997e-09
1.01304e-09
1.01434e-09
1.01389e-09
1.01172e-09
1.00784e-09
1.0023e-09
9.95148e-10
9.86444e-10
9.76251e-10
9.64641e-10
9.51692e-10
9.37486e-10
9.2211e-10
9.05652e-10
8.88206e-10
8.69864e-10
8.5072e-10
8.30867e-10
8.10398e-10
7.89403e-10
7.67969e-10
7.46183e-10
7.24126e-10
7.01875e-10
6.79505e-10
6.57084e-10
6.34678e-10
6.12346e-10
5.90143e-10
5.68119e-10
5.46321e-10
5.24788e-10
5.03558e-10
4.82663e-10
4.62131e-10
4.41986e-10
4.22249e-10
4.02938e-10
3.84067e-10
3.65648e-10
3.4769e-10
3.30201e-10
3.13187e-10
2.9665e-10
2.80595e-10
2.65023e-10
2.49933e-10
2.35328e-10
2.21205e-10
2.07566e-10
1.94409e-10
1.81732e-10
1.69536e-10
1.57819e-10
1.46581e-10
1.3582e-10
1.25535e-10
1.15725e-10
1.0639e-10
9.75266e-11
8.91332e-11
8.12069e-11
7.37441e-11
6.67405e-11
6.01906e-11
5.40877e-11
4.84242e-11
4.31909e-11
3.83775e-11
3.39721e-11
2.99617e-11
2.6332e-11
2.30671e-11
2.01505e-11
1.75643e-11
1.529e-11
1.33081e-11
1.15988e-11
1.01418e-11
8.9166e-12
7.90265e-12
7.07942e-12
6.42661e-12
5.92424e-12
5.55276e-12
5.29319e-12
5.12717e-12
5.03712e-12
5.00631e-12
5.01896e-12
5.0604e-12
5.11716e-12
5.17706e-12
5.22943e-12
5.26508e-12
5.27652e-12
5.25792e-12
5.20521e-12
5.11602e-12
4.98965e-12
4.82696e-12
4.63021e-12
4.40286e-12
4.14939e-12
3.87498e-12
3.5853e-12
3.28621e-12
2.98352e-12
2.68276e-12
2.389e-12
2.10665e-12
1.83943e-12
1.5902e-12
1.36104e-12
1.15323e-12
9.67293e-13
8.03105e-13
6.59987e-13
5.36815e-13
4.32133e-13
3.44264e-13
2.71411e-13
2.1174e-13
1.63455e-13
1.24851e-13
9.43554e-14
7.05509e-14
5.21891e-14
3.81926e-14
2.76492e-14
1.98001e-14
1.40255e-14
9.82691e-15
6.80991e-15
4.66741e-15
3.1638e-15
2.12101e-15
1.40641e-15
9.22699e-16
5.99516e-16
3.8681e-16
2.49629e-16
1.64164e-16
1.14858e-16
9.23867e-17
3.46346e-13
3.52338e-13
3.64615e-13
3.83356e-13
4.0884e-13
4.41444e-13
4.81655e-13
5.30067e-13
5.87397e-13
6.54485e-13
7.32313e-13
8.2201e-13
9.2487e-13
1.04236e-12
1.17616e-12
1.32813e-12
1.5004e-12
1.69533e-12
1.91559e-12
2.16414e-12
2.44428e-12
2.75971e-12
3.1145e-12
3.51319e-12
3.96082e-12
4.46293e-12
5.02568e-12
5.65584e-12
6.36087e-12
7.14897e-12
8.02915e-12
9.0113e-12
1.01062e-11
1.13257e-11
1.26828e-11
1.41913e-11
1.58667e-11
1.77255e-11
1.97856e-11
2.20665e-11
2.45892e-11
2.73763e-11
3.04519e-11
3.38422e-11
3.75748e-11
4.16796e-11
4.6188e-11
5.11336e-11
5.65519e-11
6.24802e-11
6.8958e-11
7.60264e-11
8.37286e-11
9.21093e-11
1.01215e-10
1.11094e-10
1.21795e-10
1.33368e-10
1.45864e-10
1.59336e-10
1.73834e-10
1.8941e-10
2.06114e-10
2.23997e-10
2.43106e-10
2.63487e-10
2.85181e-10
3.08229e-10
3.32664e-10
3.58516e-10
3.8581e-10
4.14561e-10
4.44782e-10
4.76472e-10
5.09626e-10
5.44226e-10
5.80246e-10
6.17648e-10
6.56381e-10
6.96385e-10
7.37586e-10
7.79896e-10
8.23217e-10
8.67434e-10
9.12423e-10
9.58045e-10
1.00415e-09
1.05058e-09
1.09715e-09
1.14369e-09
1.19e-09
1.23589e-09
1.28115e-09
1.32558e-09
1.36895e-09
1.41106e-09
1.45171e-09
1.49067e-09
1.52775e-09
1.56275e-09
1.59549e-09
1.62579e-09
1.65349e-09
1.67845e-09
1.70052e-09
1.71961e-09
1.73561e-09
1.74845e-09
1.75807e-09
1.76444e-09
1.76756e-09
1.76742e-09
1.76405e-09
1.75751e-09
1.74786e-09
1.73519e-09
1.71961e-09
1.70123e-09
1.68019e-09
1.65663e-09
1.63071e-09
1.60259e-09
1.57245e-09
1.54047e-09
1.50682e-09
1.47169e-09
1.43526e-09
1.39772e-09
1.35923e-09
1.31998e-09
1.28013e-09
1.23984e-09
1.19927e-09
1.15855e-09
1.11783e-09
1.07724e-09
1.03689e-09
9.96879e-10
9.57317e-10
9.18286e-10
8.79866e-10
8.42124e-10
8.0512e-10
7.68906e-10
7.33525e-10
6.99012e-10
6.65396e-10
6.32699e-10
6.00939e-10
5.70125e-10
5.40265e-10
5.1136e-10
4.83411e-10
4.56413e-10
4.3036e-10
4.05243e-10
3.81051e-10
3.57774e-10
3.35399e-10
3.13913e-10
2.93302e-10
2.73554e-10
2.54655e-10
2.36592e-10
2.19351e-10
2.0292e-10
1.87286e-10
1.72437e-10
1.58359e-10
1.45041e-10
1.32471e-10
1.20634e-10
1.09517e-10
9.91076e-11
8.93893e-11
8.03467e-11
7.19627e-11
6.42193e-11
5.70969e-11
5.05748e-11
4.4631e-11
3.9242e-11
3.43831e-11
3.00287e-11
2.61519e-11
2.27252e-11
1.97204e-11
1.71086e-11
1.4861e-11
1.29484e-11
1.1342e-11
1.00131e-11
8.93347e-12
8.07564e-12
7.41276e-12
6.91888e-12
6.56901e-12
6.33925e-12
6.20685e-12
6.15037e-12
6.14974e-12
6.18642e-12
6.24348e-12
6.30575e-12
6.35994e-12
6.39474e-12
6.40091e-12
6.37134e-12
6.30107e-12
6.18725e-12
6.02906e-12
5.82756e-12
5.58554e-12
5.30722e-12
4.99801e-12
4.66418e-12
4.31257e-12
3.95021e-12
3.58409e-12
3.22082e-12
2.86645e-12
2.52624e-12
2.20457e-12
1.90486e-12
1.62952e-12
1.38003e-12
1.15697e-12
9.60147e-13
7.88693e-13
6.41226e-13
5.1597e-13
4.10891e-13
3.23814e-13
2.52529e-13
1.94874e-13
1.48799e-13
1.12418e-13
8.40303e-14
6.21418e-14
4.54631e-14
3.29036e-14
2.35568e-14
1.66824e-14
1.16857e-14
8.09617e-15
5.5478e-15
3.75981e-15
2.52008e-15
1.67072e-15
1.09591e-15
7.1194e-16
4.59273e-16
2.96346e-16
1.94856e-16
1.36311e-16
1.09631e-16
6.26199e-13
6.37082e-13
6.59379e-13
6.93415e-13
7.39701e-13
7.98929e-13
8.71987e-13
9.59966e-13
1.06418e-12
1.18616e-12
1.32771e-12
1.4909e-12
1.6781e-12
1.89201e-12
2.13568e-12
2.41257e-12
2.72656e-12
3.08202e-12
3.48381e-12
3.9374e-12
4.44887e-12
5.02499e-12
5.6733e-12
6.40215e-12
7.22081e-12
8.13953e-12
9.16965e-12
1.03237e-11
1.16153e-11
1.30598e-11
1.46738e-11
1.64755e-11
1.84849e-11
2.07239e-11
2.32163e-11
2.59882e-11
2.90678e-11
3.24858e-11
3.62754e-11
4.04728e-11
4.51166e-11
5.02487e-11
5.5914e-11
6.21607e-11
6.90402e-11
7.66075e-11
8.49211e-11
9.40428e-11
1.04038e-10
1.14977e-10
1.26931e-10
1.39977e-10
1.54193e-10
1.69663e-10
1.86472e-10
2.04708e-10
2.24461e-10
2.45822e-10
2.68885e-10
2.93743e-10
3.2049e-10
3.49219e-10
3.8002e-10
4.12982e-10
4.48189e-10
4.85721e-10
5.25652e-10
5.68047e-10
6.12965e-10
6.60452e-10
7.10545e-10
7.63267e-10
8.18626e-10
8.76615e-10
9.37209e-10
1.00036e-09
1.06602e-09
1.13409e-09
1.20446e-09
1.27701e-09
1.35159e-09
1.42801e-09
1.50607e-09
1.58555e-09
1.66621e-09
1.74775e-09
1.8299e-09
1.91233e-09
1.99472e-09
2.07671e-09
2.15793e-09
2.23801e-09
2.31656e-09
2.39319e-09
2.46752e-09
2.53914e-09
2.60768e-09
2.67275e-09
2.734e-09
2.79107e-09
2.84365e-09
2.89144e-09
2.93416e-09
2.97158e-09
3.00348e-09
3.02969e-09
3.05008e-09
3.06456e-09
3.07306e-09
3.07558e-09
3.07214e-09
3.06281e-09
3.04769e-09
3.02692e-09
3.00068e-09
2.96917e-09
2.93264e-09
2.89133e-09
2.84556e-09
2.79561e-09
2.74182e-09
2.68451e-09
2.62403e-09
2.56074e-09
2.49498e-09
2.4271e-09
2.35745e-09
2.28637e-09
2.21417e-09
2.14118e-09
2.0677e-09
1.99401e-09
1.92037e-09
1.84705e-09
1.77426e-09
1.70221e-09
1.6311e-09
1.5611e-09
1.49236e-09
1.42501e-09
1.35916e-09
1.29491e-09
1.23235e-09
1.17152e-09
1.1125e-09
1.0553e-09
9.99964e-10
9.46495e-10
8.949e-10
8.45173e-10
7.97303e-10
7.5127e-10
7.07051e-10
6.64616e-10
6.23933e-10
5.84967e-10
5.4768e-10
5.12034e-10
4.77989e-10
4.45506e-10
4.14543e-10
3.85062e-10
3.57022e-10
3.30387e-10
3.05119e-10
2.81181e-10
2.58538e-10
2.37156e-10
2.17e-10
1.98038e-10
1.80236e-10
1.63564e-10
1.47987e-10
1.33474e-10
1.19992e-10
1.07508e-10
9.59858e-11
8.53921e-11
7.56903e-11
6.68433e-11
5.88129e-11
5.15599e-11
4.50445e-11
3.92256e-11
3.40619e-11
2.95114e-11
2.55321e-11
2.20819e-11
1.9119e-11
1.66021e-11
1.44906e-11
1.27447e-11
1.13259e-11
1.01967e-11
9.32113e-12
8.66464e-12
8.1943e-12
7.87881e-12
7.68871e-12
7.59635e-12
7.5761e-12
7.60437e-12
7.65979e-12
7.72333e-12
7.77836e-12
7.81084e-12
7.80933e-12
7.76507e-12
7.67198e-12
7.52659e-12
7.32793e-12
7.07733e-12
6.77822e-12
6.43575e-12
6.05654e-12
5.64819e-12
5.219e-12
4.77748e-12
4.33205e-12
3.89069e-12
3.46066e-12
3.04826e-12
2.65872e-12
2.29609e-12
1.96323e-12
1.66186e-12
1.3926e-12
1.15518e-12
9.48491e-13
7.70827e-13
6.20008e-13
4.93552e-13
3.88814e-13
3.03113e-13
2.33829e-13
1.78486e-13
1.34803e-13
1.00733e-13
7.44721e-14
5.4469e-14
3.94111e-14
2.82087e-14
1.9972e-14
1.39867e-14
9.68831e-15
6.63743e-15
4.49737e-15
3.01388e-15
1.99775e-15
1.3102e-15
8.51016e-16
5.48907e-16
3.54129e-16
2.32815e-16
1.62842e-16
1.30957e-16
1.11646e-12
1.13596e-12
1.17591e-12
1.23688e-12
1.31981e-12
1.42595e-12
1.55689e-12
1.71461e-12
1.90147e-12
2.12027e-12
2.37425e-12
2.66715e-12
3.00326e-12
3.38747e-12
3.82532e-12
4.32305e-12
4.88771e-12
5.5272e-12
6.25037e-12
7.06712e-12
7.98851e-12
9.02684e-12
1.01958e-11
1.15106e-11
1.29881e-11
1.46469e-11
1.65077e-11
1.85933e-11
2.09288e-11
2.35417e-11
2.64625e-11
2.97246e-11
3.33643e-11
3.74217e-11
4.19404e-11
4.69677e-11
5.25556e-11
5.87601e-11
6.5642e-11
7.32672e-11
8.17067e-11
9.1037e-11
1.0134e-10
1.12705e-10
1.25225e-10
1.39001e-10
1.5414e-10
1.70755e-10
1.88966e-10
2.089e-10
2.30689e-10
2.54472e-10
2.80394e-10
3.08604e-10
3.3926e-10
3.72519e-10
4.08547e-10
4.47508e-10
4.89571e-10
5.34904e-10
5.83677e-10
6.36054e-10
6.92197e-10
7.52263e-10
8.16399e-10
8.84746e-10
9.57429e-10
1.03456e-09
1.11623e-09
1.20253e-09
1.29349e-09
1.38915e-09
1.48951e-09
1.59453e-09
1.70416e-09
1.81828e-09
1.93677e-09
2.05945e-09
2.18609e-09
2.31643e-09
2.45017e-09
2.58695e-09
2.72637e-09
2.86799e-09
3.01133e-09
3.15587e-09
3.30103e-09
3.44621e-09
3.59078e-09
3.73408e-09
3.87542e-09
4.0141e-09
4.1494e-09
4.2806e-09
4.40698e-09
4.52784e-09
4.64248e-09
4.75022e-09
4.85044e-09
4.94252e-09
5.02591e-09
5.1001e-09
5.16466e-09
5.21918e-09
5.26336e-09
5.29694e-09
5.31975e-09
5.3317e-09
5.33276e-09
5.32298e-09
5.3025e-09
5.27152e-09
5.23031e-09
5.17921e-09
5.11862e-09
5.049e-09
4.97085e-09
4.88472e-09
4.7912e-09
4.69091e-09
4.58447e-09
4.47256e-09
4.35582e-09
4.23493e-09
4.11053e-09
3.9833e-09
3.85384e-09
3.72278e-09
3.5907e-09
3.45816e-09
3.32567e-09
3.19374e-09
3.06281e-09
2.9333e-09
2.80557e-09
2.67998e-09
2.55682e-09
2.43634e-09
2.31877e-09
2.2043e-09
2.09308e-09
1.98524e-09
1.88088e-09
1.78005e-09
1.6828e-09
1.58915e-09