/*--------------------------------*- C++ -*----------------------------------*\
| =========                 |                                                 |
| \\      /  F ield         | OpenFOAM: The Open Source CFD Toolbox           |
|  \\    /   O peration     | Version:  v2012                                 |
|   \\  /    A nd           | Website:  www.openfoam.com                      |
|    \\/     M anipulation  |                                                 |
\*---------------------------------------------------------------------------*/
FoamFile
{
    version     2.0;
    format      ascii;
    class       volVectorField;
    location    "70";
    object      Usup;
}
// * * * * * * * * * * * * * * * * * * * * * * * * * * * * * * * * * * * * * //

dimensions      [0 1 -1 0 0 0 0];


internalField   nonuniform List<vector> 
4000
(
(6.51002e-06 -0.000648679 0)
(0.000238621 -0.0018746 0)
(0.000558019 -0.00317922 0)
(0.000548279 -0.00413384 0)
(0.000370205 -0.00508929 0)
(0.000408253 -0.00552588 0)
(0.000438795 -0.00639242 0)
(0.000361447 -0.00711443 0)
(0.000324718 -0.00782792 0)
(0.000173627 -0.0083402 0)
(-0.000237938 -0.00898049 0)
(-0.00103767 -0.00925344 0)
(-0.00179512 -0.00947337 0)
(-0.00212505 -0.00949133 0)
(-0.00232327 -0.00963196 0)
(-0.00273311 -0.00996606 0)
(-0.00315712 -0.0100386 0)
(-0.00328052 -0.0098133 0)
(-0.00351443 -0.00968059 0)
(-0.00359607 -0.00956695 0)
(-0.00342657 -0.00959439 0)
(-0.00313511 -0.00943339 0)
(-0.00300941 -0.00960689 0)
(-0.00313863 -0.00925772 0)
(-0.00325118 -0.00880445 0)
(-0.00311262 -0.00830048 0)
(-0.00268546 -0.00825954 0)
(-0.0026662 -0.0085131 0)
(-0.00307715 -0.00830493 0)
(-0.0031591 -0.00776421 0)
(-0.00270584 -0.00764462 0)
(-0.00232509 -0.0077098 0)
(-0.0025775 -0.0078206 0)
(-0.00334319 -0.0074113 0)
(-0.00359358 -0.00672252 0)
(-0.00419204 -0.00637766 0)
(-0.00450925 -0.00543806 0)
(-0.00397497 -0.00466529 0)
(-0.00377203 -0.0041622 0)
(-0.00385846 -0.00388254 0)
(-0.00352935 -0.00323352 0)
(-0.00284313 -0.00289967 0)
(-0.00266706 -0.00261359 0)
(-0.00245808 -0.00202272 0)
(-0.00210502 -0.00166142 0)
(-0.00171011 -0.00133711 0)
(-0.00169081 -0.000934693 0)
(-0.00185938 -0.000266534 0)
(-0.00185333 0.000410644 0)
(-0.00212337 0.00133069 0)
(-0.00204948 0.00189905 0)
(-0.00138078 0.0021826 0)
(-0.000737427 0.00241818 0)
(-0.000252346 0.0028571 0)
(1.15949e-05 0.00313952 0)
(0.000196751 0.00359452 0)
(0.0004662 0.00406541 0)
(0.000766184 0.00432349 0)
(0.000948349 0.00445103 0)
(0.000554902 0.00442268 0)
(0.000419389 0.00474801 0)
(0.000906291 0.00513288 0)
(0.0012973 0.00527807 0)
(0.00110734 0.00545253 0)
(0.000676511 0.00576555 0)
(0.000647397 0.00602125 0)
(0.000666918 0.00611674 0)
(0.000589119 0.00641055 0)
(0.00054602 0.00682692 0)
(0.000133327 0.00687615 0)
(-0.000567703 0.00682813 0)
(-0.0009876 0.00685955 0)
(-0.00102463 0.00717013 0)
(-0.000959212 0.00722569 0)
(-0.000711104 0.00729403 0)
(-0.000450674 0.00719914 0)
(-0.000788451 0.00718439 0)
(-0.00141545 0.00702169 0)
(-0.00215839 0.00708168 0)
(-0.00237065 0.00733095 0)
(-0.00173267 0.00724242 0)
(-0.00156927 0.0068556 0)
(-0.00157666 0.00666914 0)
(-0.0011759 0.00642973 0)
(-0.00116443 0.00561964 0)
(-0.0011938 0.00530211 0)
(-0.00109765 0.00484858 0)
(-0.00123949 0.00440338 0)
(-0.00126859 0.00393314 0)
(-0.000571188 0.00374243 0)
(-0.000232582 0.0033318 0)
(-0.000651138 0.00269123 0)
(-0.000837356 0.00238328 0)
(-0.000737498 0.00229298 0)
(-0.000550284 0.00187262 0)
(-0.000760753 0.00154301 0)
(-0.000659142 0.00116441 0)
(-0.000573898 0.000839453 0)
(-0.000622057 0.000678342 0)
(-0.000202747 0.000178469 0)
(0.000138661 -0.00219334 0)
(0.000579343 -0.00586251 0)
(0.00125307 -0.00954882 0)
(0.00137291 -0.0124785 0)
(0.00128842 -0.0149244 0)
(0.00122609 -0.0169326 0)
(0.000878922 -0.019442 0)
(0.000650932 -0.0214987 0)
(0.000461588 -0.0236162 0)
(-0.00012671 -0.0250481 0)
(-0.00118393 -0.0266743 0)
(-0.00285948 -0.0277605 0)
(-0.00458237 -0.028214 0)
(-0.00563779 -0.0285362 0)
(-0.00668017 -0.028944 0)
(-0.00774485 -0.0297009 0)
(-0.0084208 -0.0300608 0)
(-0.0087985 -0.0297509 0)
(-0.00947775 -0.0293335 0)
(-0.00983572 -0.0290305 0)
(-0.00951214 -0.0290548 0)
(-0.00907569 -0.0284501 0)
(-0.00869376 -0.0284743 0)
(-0.00845536 -0.0276684 0)
(-0.00852688 -0.0264113 0)
(-0.00852977 -0.0253162 0)
(-0.00830791 -0.0250447 0)
(-0.00814999 -0.0253113 0)
(-0.00829694 -0.0247256 0)
(-0.00850208 -0.0233711 0)
(-0.00812624 -0.022787 0)
(-0.00765261 -0.0228724 0)
(-0.00790704 -0.0229149 0)
(-0.0089124 -0.021867 0)
(-0.00979234 -0.0203013 0)
(-0.0108972 -0.0190044 0)
(-0.0112249 -0.0164314 0)
(-0.0106222 -0.0144887 0)
(-0.0104836 -0.0129547 0)
(-0.0102999 -0.0117176 0)
(-0.0094157 -0.0097419 0)
(-0.00820029 -0.00874516 0)
(-0.00735495 -0.00764342 0)
(-0.00663864 -0.00616349 0)
(-0.00594442 -0.00496388 0)
(-0.00501824 -0.00389766 0)
(-0.00458804 -0.00249094 0)
(-0.00460716 -0.000649107 0)
(-0.00440844 0.00134646 0)
(-0.00484644 0.00373282 0)
(-0.00495182 0.00562096 0)
(-0.00367793 0.00659833 0)
(-0.00198454 0.00736319 0)
(-0.000676188 0.00852258 0)
(0.000159406 0.00953819 0)
(0.000926701 0.010835 0)
(0.00151143 0.0120486 0)
(0.00198545 0.0129145 0)
(0.00217893 0.0133525 0)
(0.00171737 0.0135971 0)
(0.00186797 0.0143464 0)
(0.00268409 0.0152946 0)
(0.00329566 0.015698 0)
(0.00308887 0.0162471 0)
(0.00232674 0.017186 0)
(0.001992 0.0178809 0)
(0.00195874 0.0185121 0)
(0.00195108 0.0193721 0)
(0.00147728 0.0202887 0)
(0.000116466 0.0204802 0)
(-0.00144331 0.0204736 0)
(-0.00219419 0.0206371 0)
(-0.00240614 0.021238 0)
(-0.00249386 0.0217735 0)
(-0.0021618 0.02202 0)
(-0.00185081 0.021619 0)
(-0.00267754 0.0216286 0)
(-0.00403845 0.0215178 0)
(-0.00529696 0.021415 0)
(-0.00586869 0.0218238 0)
(-0.00521385 0.0217185 0)
(-0.00482998 0.0207405 0)
(-0.0045474 0.0198472 0)
(-0.004204 0.0187927 0)
(-0.00410697 0.0171366 0)
(-0.00381086 0.0159722 0)
(-0.00369809 0.0146498 0)
(-0.0038629 0.0132553 0)
(-0.00353999 0.0118503 0)
(-0.00212305 0.0111793 0)
(-0.00173155 0.00971601 0)
(-0.00230354 0.00821742 0)
(-0.00223094 0.00748726 0)
(-0.00211554 0.00697462 0)
(-0.00193451 0.00570396 0)
(-0.0021741 0.00448176 0)
(-0.00193522 0.00365555 0)
(-0.00151555 0.00246046 0)
(-0.00150905 0.00150916 0)
(-0.000643645 0.0004759 0)
(0.000366775 -0.00366527 0)
(0.000989195 -0.00991809 0)
(0.00179857 -0.0160383 0)
(0.00227298 -0.0211633 0)
(0.00211442 -0.0250075 0)
(0.00159923 -0.0289836 0)
(0.00107989 -0.0326082 0)
(0.000627977 -0.0358355 0)
(0.000279578 -0.0390081 0)
(-0.000602006 -0.0417333 0)
(-0.00238348 -0.044059 0)
(-0.00448995 -0.0457082 0)
(-0.00681176 -0.0467829 0)
(-0.00869306 -0.0478409 0)
(-0.0105062 -0.0485324 0)
(-0.0122488 -0.0492681 0)
(-0.0131471 -0.0497803 0)
(-0.0135511 -0.0497226 0)
(-0.0144999 -0.0494526 0)
(-0.0152582 -0.0490204 0)
(-0.0147699 -0.048508 0)
(-0.0141595 -0.0478041 0)
(-0.0137422 -0.0470915 0)
(-0.0130758 -0.0459295 0)
(-0.0130847 -0.0443726 0)
(-0.0134387 -0.0429474 0)
(-0.0135276 -0.0421934 0)
(-0.0132689 -0.0415566 0)
(-0.0129493 -0.0405379 0)
(-0.0131314 -0.0388676 0)
(-0.0132515 -0.0376338 0)
(-0.0130319 -0.0374523 0)
(-0.0130726 -0.0369637 0)
(-0.0139977 -0.0358103 0)
(-0.0151193 -0.0339716 0)
(-0.016109 -0.0313585 0)
(-0.0164812 -0.0275957 0)
(-0.0161754 -0.024482 0)
(-0.0159789 -0.0221456 0)
(-0.0153426 -0.0195457 0)
(-0.014264 -0.0162812 0)
(-0.0128822 -0.0142102 0)
(-0.0114176 -0.0124899 0)
(-0.0102598 -0.0103666 0)
(-0.00924002 -0.00820192 0)
(-0.00781365 -0.0060183 0)
(-0.00686003 -0.00352444 0)
(-0.00656253 -0.000588187 0)
(-0.00606178 0.00260286 0)
(-0.00638979 0.00588429 0)
(-0.00673324 0.00901675 0)
(-0.00542127 0.0109508 0)
(-0.00299746 0.0126173 0)
(-0.000887372 0.0143321 0)
(0.000568262 0.0161489 0)
(0.00178762 0.0181266 0)
(0.00260863 0.019881 0)
(0.00311021 0.0212588 0)
(0.00326189 0.0222976 0)
(0.00290235 0.0231391 0)
(0.00334863 0.0243126 0)
(0.00429833 0.0255525 0)
(0.00497168 0.026267 0)
(0.00499161 0.0270588 0)
(0.00408819 0.0286466 0)
(0.0035517 0.0298634 0)
(0.00349223 0.0310398 0)
(0.00328241 0.0322483 0)
(0.00222776 0.0333248 0)
(7.85585e-05 0.0338547 0)
(-0.0020429 0.0342875 0)
(-0.0030419 0.0348285 0)
(-0.00320966 0.0354109 0)
(-0.00343481 0.0362884 0)
(-0.00365124 0.0367141 0)
(-0.00349787 0.0364487 0)
(-0.00437268 0.0361183 0)
(-0.00636807 0.0361306 0)
(-0.00802176 0.0359884 0)
(-0.00865216 0.0362104 0)
(-0.00835499 0.0357984 0)
(-0.00826427 0.0343829 0)
(-0.00794707 0.03277 0)
(-0.00744681 0.0306381 0)
(-0.00720658 0.0287628 0)
(-0.00681055 0.0265197 0)
(-0.00665336 0.0243944 0)
(-0.00676472 0.0222247 0)
(-0.00589027 0.0200017 0)
(-0.00416929 0.0185108 0)
(-0.00379209 0.0160339 0)
(-0.00389746 0.0141732 0)
(-0.00351061 0.0128237 0)
(-0.0036201 0.0116134 0)
(-0.00365686 0.00955942 0)
(-0.00352789 0.00739985 0)
(-0.00312531 0.00607286 0)
(-0.0027618 0.00401513 0)
(-0.00225992 0.00204276 0)
(-0.00084713 0.000666839 0)
(0.000497289 -0.0050304 0)
(0.00108259 -0.0139928 0)
(0.00192512 -0.0225846 0)
(0.0029316 -0.029788 0)
(0.00281276 -0.035742 0)
(0.00207445 -0.0411072 0)
(0.00143247 -0.0456661 0)
(0.000607394 -0.0500538 0)
(-0.000259702 -0.0543341 0)
(-0.00150112 -0.0582792 0)
(-0.00336389 -0.0612938 0)
(-0.00599087 -0.0634485 0)
(-0.00913297 -0.0653664 0)
(-0.0114971 -0.0669691 0)
(-0.0136888 -0.0681113 0)
(-0.0159316 -0.0690318 0)
(-0.017191 -0.0692771 0)
(-0.0179025 -0.0692363 0)
(-0.0190118 -0.0693829 0)
(-0.0196229 -0.0688346 0)
(-0.019241 -0.0676518 0)
(-0.0186401 -0.066972 0)
(-0.0179414 -0.065955 0)
(-0.0172005 -0.0640011 0)
(-0.0171627 -0.0620708 0)
(-0.0176829 -0.0603712 0)
(-0.0178819 -0.0591453 0)
(-0.0175704 -0.0577625 0)
(-0.0171883 -0.0558516 0)
(-0.0173312 -0.053951 0)
(-0.0179379 -0.0523205 0)
(-0.0180388 -0.0513839 0)
(-0.0180749 -0.0502644 0)
(-0.0189574 -0.0489484 0)
(-0.0195921 -0.0466722 0)
(-0.0200258 -0.0431445 0)
(-0.020336 -0.038887 0)
(-0.0205804 -0.0346547 0)
(-0.0204497 -0.0309989 0)
(-0.0191254 -0.0269069 0)
(-0.0178882 -0.0230977 0)
(-0.0168585 -0.0198032 0)
(-0.015129 -0.0171489 0)
(-0.0132838 -0.0141523 0)
(-0.0117462 -0.0109805 0)
(-0.0098815 -0.0076856 0)
(-0.00846614 -0.0046049 0)
(-0.00772873 -0.000536423 0)
(-0.00703446 0.00390791 0)
(-0.00720819 0.00828952 0)
(-0.00764016 0.0121991 0)
(-0.00632914 0.0153951 0)
(-0.00351898 0.0179961 0)
(-0.00089993 0.0202273 0)
(0.00114261 0.0227483 0)
(0.00272897 0.0251905 0)
(0.0036516 0.0275424 0)
(0.0042517 0.029504 0)
(0.00446618 0.0312428 0)
(0.00423784 0.0329249 0)
(0.00488653 0.0348088 0)
(0.00579316 0.0359784 0)
(0.00640382 0.037224 0)
(0.00679504 0.0383128 0)
(0.00606308 0.0403828 0)
(0.00518501 0.0420688 0)
(0.00490676 0.0434642 0)
(0.00448338 0.0446717 0)
(0.00300193 0.0459261 0)
(0.000378704 0.0471702 0)
(-0.002112 0.0482711 0)
(-0.00350394 0.0492133 0)
(-0.0038765 0.0498769 0)
(-0.00423015 0.0506286 0)
(-0.00475892 0.0510913 0)
(-0.0051452 0.0510982 0)
(-0.00630642 0.0504203 0)
(-0.00834297 0.0503079 0)
(-0.0102064 0.0502456 0)
(-0.0112526 0.0501835 0)
(-0.0115192 0.0492783 0)
(-0.0116493 0.0474239 0)
(-0.0115178 0.0451755 0)
(-0.0109083 0.0425068 0)
(-0.0105596 0.0399088 0)
(-0.0101889 0.0369537 0)
(-0.00976227 0.034131 0)
(-0.00974883 0.0312097 0)
(-0.00851437 0.028387 0)
(-0.00661953 0.0257183 0)
(-0.00602113 0.0227011 0)
(-0.00566189 0.0204045 0)
(-0.00504049 0.0180068 0)
(-0.00524027 0.0158593 0)
(-0.00549239 0.0134128 0)
(-0.00499071 0.0103788 0)
(-0.00435506 0.00788738 0)
(-0.00399901 0.00527153 0)
(-0.00298748 0.00293579 0)
(-0.00094871 0.000906296 0)
(0.000565162 -0.00647847 0)
(0.00107929 -0.0179634 0)
(0.0020291 -0.0285728 0)
(0.00327842 -0.0380592 0)
(0.00329885 -0.0461528 0)
(0.0026682 -0.0527921 0)
(0.00173227 -0.0587649 0)
(0.000307035 -0.0645822 0)
(-0.000978854 -0.0700777 0)
(-0.00233967 -0.0748258 0)
(-0.004399 -0.078538 0)
(-0.00743075 -0.0816056 0)
(-0.0110612 -0.0839597 0)
(-0.0139362 -0.0858994 0)
(-0.0166558 -0.0874902 0)
(-0.0190268 -0.0883392 0)
(-0.0203556 -0.0882651 0)
(-0.0216235 -0.0884584 0)
(-0.0229381 -0.0884107 0)
(-0.0232382 -0.0878186 0)
(-0.0229626 -0.086816 0)
(-0.0226522 -0.0857575 0)
(-0.0214487 -0.0842721 0)
(-0.0202727 -0.0816446 0)
(-0.0205949 -0.0795073 0)
(-0.0215139 -0.0774063 0)
(-0.0218489 -0.0756013 0)
(-0.0211826 -0.0735006 0)
(-0.0206579 -0.071009 0)
(-0.0211788 -0.0685582 0)
(-0.0220811 -0.0667142 0)
(-0.0224114 -0.0648726 0)
(-0.022596 -0.0633062 0)
(-0.0232927 -0.0611754 0)
(-0.0234132 -0.0581027 0)
(-0.0234682 -0.0542124 0)
(-0.0235799 -0.0495385 0)
(-0.023641 -0.0446216 0)
(-0.0232769 -0.0395451 0)
(-0.0221148 -0.0343225 0)
(-0.0210243 -0.0301529 0)
(-0.0197618 -0.0258787 0)
(-0.017791 -0.0217432 0)
(-0.0155468 -0.017742 0)
(-0.0136267 -0.0133751 0)
(-0.0116661 -0.0092568 0)
(-0.00968567 -0.00548932 0)
(-0.00803124 -0.000605329 0)
(-0.00694767 0.00487013 0)
(-0.00723267 0.0102698 0)
(-0.00778926 0.0150702 0)
(-0.00652279 0.0194317 0)
(-0.00376886 0.0229576 0)
(-0.000699291 0.0260323 0)
(0.00182771 0.0292588 0)
(0.00373015 0.0321809 0)
(0.00490946 0.0348849 0)
(0.00555233 0.0376762 0)
(0.00592691 0.0401742 0)
(0.00594689 0.0428347 0)
(0.00628001 0.0453187 0)
(0.00707374 0.0467891 0)
(0.00791666 0.0485007 0)
(0.00856542 0.0500248 0)
(0.00796527 0.0519278 0)
(0.00675365 0.0538604 0)
(0.00612177 0.055648 0)
(0.00549979 0.0567814 0)
(0.00403643 0.0585296 0)
(0.00118307 0.0604654 0)
(-0.00182138 0.0620824 0)
(-0.00370172 0.0636414 0)
(-0.00437548 0.0642997 0)
(-0.00495095 0.0648181 0)
(-0.00584411 0.0651769 0)
(-0.00672974 0.0651887 0)
(-0.00808519 0.0647041 0)
(-0.0101488 0.0641633 0)
(-0.0122224 0.0638783 0)
(-0.0136494 0.0633051 0)
(-0.0145285 0.0621745 0)
(-0.0151506 0.0599676 0)
(-0.0151031 0.0570635 0)
(-0.0144894 0.0541352 0)
(-0.0141299 0.0507651 0)
(-0.0136035 0.0472442 0)
(-0.0131257 0.0436013 0)
(-0.0129213 0.0399895 0)
(-0.0114564 0.0366475 0)
(-0.0093788 0.0328876 0)
(-0.00831458 0.0295249 0)
(-0.00772034 0.0264522 0)
(-0.00701919 0.0229701 0)
(-0.00690918 0.0196498 0)
(-0.00730111 0.0167851 0)
(-0.00689789 0.0134207 0)
(-0.00581092 0.00957146 0)
(-0.00488342 0.00623697 0)
(-0.00343202 0.00388516 0)
(-0.00106211 0.00128135 0)
(0.000656841 -0.00783291 0)
(0.00121178 -0.0219685 0)
(0.00190405 -0.0343733 0)
(0.00321598 -0.0459614 0)
(0.00370329 -0.0560502 0)
(0.00309291 -0.0644536 0)
(0.00165608 -0.0719989 0)
(-0.000221803 -0.0789956 0)
(-0.00174793 -0.0854497 0)
(-0.00320209 -0.0911034 0)
(-0.00544666 -0.0957548 0)
(-0.00875053 -0.0997206 0)
(-0.0127103 -0.102534 0)
(-0.0160538 -0.1047 0)
(-0.0188544 -0.106378 0)
(-0.0211551 -0.107014 0)
(-0.0230674 -0.107018 0)
(-0.0247609 -0.107155 0)
(-0.026077 -0.107054 0)
(-0.0265874 -0.106586 0)
(-0.0262975 -0.10566 0)
(-0.0256592 -0.103798 0)
(-0.024067 -0.101277 0)
(-0.023078 -0.0987195 0)
(-0.023619 -0.096635 0)
(-0.0245261 -0.0939862 0)
(-0.0248473 -0.0915606 0)
(-0.0241843 -0.08858 0)
(-0.0237315 -0.0858854 0)
(-0.0245284 -0.0828204 0)
(-0.0257552 -0.0806017 0)
(-0.0263023 -0.0783325 0)
(-0.026502 -0.0759411 0)
(-0.0267574 -0.0728037 0)
(-0.0265779 -0.0688728 0)
(-0.0262221 -0.064744 0)
(-0.0259791 -0.0592228 0)
(-0.0259037 -0.0537226 0)
(-0.0253478 -0.0479155 0)
(-0.0243462 -0.0423675 0)
(-0.0233223 -0.0372493 0)
(-0.0217339 -0.0316516 0)
(-0.0195924 -0.0264704 0)
(-0.0169646 -0.0212459 0)
(-0.0147482 -0.0159896 0)
(-0.0127839 -0.0105633 0)
(-0.0103428 -0.00579143 0)
(-0.00794003 -0.000542348 0)
(-0.0064493 0.00559774 0)
(-0.00662937 0.0117503 0)
(-0.0071907 0.0176367 0)
(-0.00602565 0.0230122 0)
(-0.00328257 0.0274418 0)
(-3.32401e-06 0.0314217 0)
(0.00274924 0.0356421 0)
(0.00469437 0.0392126 0)
(0.00617801 0.0424957 0)
(0.00718227 0.0456899 0)
(0.00773776 0.0489774 0)
(0.00783147 0.052212 0)
(0.00789551 0.05533 0)
(0.00850563 0.0578448 0)
(0.00935076 0.0599441 0)
(0.0099464 0.0617248 0)
(0.00946323 0.0632069 0)
(0.00838181 0.065216 0)
(0.00733893 0.0672141 0)
(0.00663291 0.0689152 0)
(0.00539424 0.0710794 0)
(0.00223501 0.0734207 0)
(-0.00100826 0.0757767 0)
(-0.00352411 0.0778545 0)
(-0.00496872 0.0785564 0)
(-0.00574846 0.0787415 0)
(-0.00680955 0.0789312 0)
(-0.00800957 0.0790198 0)
(-0.00985898 0.0784533 0)
(-0.0120804 0.0774965 0)
(-0.0142393 0.0769444 0)
(-0.016005 0.0760834 0)
(-0.0173724 0.0746429 0)
(-0.0185835 0.072261 0)
(-0.018693 0.0689134 0)
(-0.0180998 0.065143 0)
(-0.0178642 0.0610699 0)
(-0.0173796 0.0568568 0)
(-0.016699 0.0526 0)
(-0.0161202 0.0485766 0)
(-0.0146008 0.044631 0)
(-0.0122884 0.0402824 0)
(-0.0107919 0.036287 0)
(-0.0102047 0.0319893 0)
(-0.00947542 0.0275635 0)
(-0.00890823 0.0234999 0)
(-0.00884741 0.0197477 0)
(-0.00869387 0.016025 0)
(-0.00760592 0.0118372 0)
(-0.00565855 0.00801629 0)
(-0.00356879 0.00508239 0)
(-0.00113778 0.0016982 0)
(0.000543754 -0.00920998 0)
(0.0012433 -0.0261038 0)
(0.00201262 -0.0405199 0)
(0.00305059 -0.0534432 0)
(0.00361135 -0.0653395 0)
(0.00314223 -0.0757153 0)
(0.00159745 -0.0848522 0)
(-0.000635204 -0.0928442 0)
(-0.0025408 -0.100258 0)
(-0.00420618 -0.106829 0)
(-0.00668429 -0.112369 0)
(-0.0100306 -0.117421 0)
(-0.0139593 -0.121013 0)
(-0.0175294 -0.122995 0)
(-0.0205374 -0.12467 0)
(-0.0229632 -0.125471 0)
(-0.0250712 -0.125761 0)
(-0.0272542 -0.125456 0)
(-0.0289566 -0.125442 0)
(-0.0293248 -0.124822 0)
(-0.0285573 -0.123353 0)
(-0.0274994 -0.121149 0)
(-0.0261388 -0.118248 0)
(-0.0255895 -0.115966 0)
(-0.0261072 -0.11315 0)
(-0.0269982 -0.109953 0)
(-0.027292 -0.106901 0)
(-0.0266369 -0.103348 0)
(-0.0262711 -0.100209 0)
(-0.0273635 -0.0969221 0)
(-0.0290812 -0.0939379 0)
(-0.0295592 -0.0912807 0)
(-0.0294515 -0.0877834 0)
(-0.0294119 -0.0837712 0)
(-0.0291865 -0.0792652 0)
(-0.028377 -0.0743284 0)
(-0.027647 -0.0687645 0)
(-0.0274995 -0.0630063 0)
(-0.0269523 -0.0564397 0)
(-0.0260196 -0.0502981 0)
(-0.0245009 -0.0439178 0)
(-0.0227166 -0.0371178 0)
(-0.0205037 -0.0307589 0)
(-0.0176749 -0.0243179 0)
(-0.0150847 -0.0183721 0)
(-0.0129869 -0.011662 0)
(-0.0106824 -0.00600237 0)
(-0.00759025 -0.000389118 0)
(-0.00539551 0.00631462 0)
(-0.00536172 0.0133664 0)
(-0.00588752 0.0201534 0)
(-0.00498893 0.0266311 0)
(-0.00249558 0.0318133 0)
(0.00119428 0.0366138 0)
(0.00416016 0.0417256 0)
(0.00605541 0.0461903 0)
(0.0075691 0.0502433 0)
(0.0087438 0.0539359 0)
(0.00958663 0.0577137 0)
(0.00983977 0.0613191 0)
(0.00994826 0.0651179 0)
(0.0102534 0.0684933 0)
(0.0107475 0.0709987 0)
(0.0110385 0.072908 0)
(0.0106127 0.0746159 0)
(0.00971814 0.0767123 0)
(0.00873616 0.0788034 0)
(0.00804659 0.0812792 0)
(0.00679462 0.083469 0)
(0.00376373 0.0860439 0)
(0.000225708 0.088684 0)
(-0.00317886 0.0908679 0)
(-0.00548661 0.0920484 0)
(-0.00661789 0.0920687 0)
(-0.00772916 0.092157 0)
(-0.00932846 0.0923713 0)
(-0.0116444 0.0916325 0)
(-0.0138988 0.0907726 0)
(-0.0160501 0.0896967 0)
(-0.0181625 0.0885191 0)
(-0.0200591 0.0865331 0)
(-0.0218823 0.0839484 0)
(-0.0225897 0.0801919 0)
(-0.0222052 0.0754573 0)
(-0.0218531 0.0707316 0)
(-0.021137 0.066134 0)
(-0.0201827 0.0614818 0)
(-0.019391 0.0569343 0)
(-0.0177766 0.0523866 0)
(-0.0153272 0.0474548 0)
(-0.0138331 0.0424081 0)
(-0.0131957 0.0374077 0)
(-0.0119736 0.0323632 0)
(-0.0110027 0.0276729 0)
(-0.0107489 0.0230877 0)
(-0.0102347 0.0185961 0)
(-0.0087391 0.0147413 0)
(-0.00635362 0.0106083 0)
(-0.00399356 0.00644617 0)
(-0.00134669 0.00206437 0)
(0.000331731 -0.0104962 0)
(0.00108719 -0.0296867 0)
(0.00222211 -0.0462148 0)
(0.00311688 -0.0609841 0)
(0.0033728 -0.074285 0)
(0.00281999 -0.0863001 0)
(0.00126626 -0.0969786 0)
(-0.00114375 -0.106166 0)
(-0.00338071 -0.11452 0)
(-0.00518906 -0.122043 0)
(-0.00803161 -0.128428 0)
(-0.0115867 -0.13428 0)
(-0.0149126 -0.13834 0)
(-0.0183787 -0.140289 0)
(-0.0217309 -0.142123 0)
(-0.0243115 -0.143359 0)
(-0.026576 -0.143836 0)
(-0.0290686 -0.143384 0)
(-0.0310329 -0.143052 0)
(-0.0312138 -0.142194 0)
(-0.0303729 -0.140685 0)
(-0.0291945 -0.138801 0)
(-0.0279805 -0.135519 0)
(-0.0274326 -0.132742 0)
(-0.0276322 -0.129263 0)
(-0.0286578 -0.12547 0)
(-0.028986 -0.121675 0)
(-0.0285214 -0.11773 0)
(-0.0285258 -0.114027 0)
(-0.029697 -0.110553 0)
(-0.0316557 -0.106702 0)
(-0.0321188 -0.103132 0)
(-0.0316494 -0.0990907 0)
(-0.0315078 -0.0946289 0)
(-0.0309706 -0.0895602 0)
(-0.0300911 -0.083402 0)
(-0.0293905 -0.0778545 0)
(-0.0285963 -0.0720313 0)
(-0.0276525 -0.0646221 0)
(-0.0265693 -0.0572035 0)
(-0.0247452 -0.0497666 0)
(-0.0227826 -0.0426545 0)
(-0.0204695 -0.0351801 0)
(-0.0176879 -0.0277627 0)
(-0.0148118 -0.0203443 0)
(-0.0126058 -0.0131919 0)
(-0.0105339 -0.00624042 0)
(-0.00693005 0.000507354 0)
(-0.00392856 0.00770856 0)
(-0.00354741 0.0150999 0)
(-0.00396298 0.0224288 0)
(-0.00334165 0.0297441 0)
(-0.00115067 0.0360929 0)
(0.00276811 0.0420888 0)
(0.00594408 0.0475858 0)
(0.0077385 0.0530644 0)
(0.00922602 0.0577147 0)
(0.0105335 0.0623111 0)
(0.0114595 0.0666144 0)
(0.0119371 0.0708024 0)
(0.0121462 0.0749266 0)
(0.0120683 0.0786716 0)
(0.0120358 0.0813454 0)
(0.0121711 0.0837942 0)
(0.0118784 0.0858519 0)
(0.0110685 0.0882049 0)
(0.010237 0.090481 0)
(0.00947969 0.0932852 0)
(0.00813689 0.0955414 0)
(0.00509065 0.0982221 0)
(0.00132688 0.100627 0)
(-0.00247754 0.102973 0)
(-0.00568912 0.104755 0)
(-0.00740774 0.105209 0)
(-0.00843774 0.105065 0)
(-0.0103547 0.104973 0)
(-0.0131091 0.104335 0)
(-0.0156834 0.103435 0)
(-0.0181344 0.101944 0)
(-0.0205451 0.100199 0)
(-0.0228285 0.0978109 0)
(-0.0251428 0.0947638 0)
(-0.026576 0.0908123 0)
(-0.0264002 0.0857205 0)
(-0.0257464 0.0803803 0)
(-0.0248754 0.0753332 0)
(-0.0238097 0.0701276 0)
(-0.0227864 0.065068 0)
(-0.0211603 0.0596609 0)
(-0.0188113 0.0541419 0)
(-0.0169641 0.0482639 0)
(-0.0159839 0.0428652 0)
(-0.0146335 0.0375511 0)
(-0.0133175 0.031899 0)
(-0.0126695 0.0268309 0)
(-0.011499 0.0218933 0)
(-0.00961911 0.0174942 0)
(-0.00731412 0.012599 0)
(-0.00476127 0.00757916 0)
(-0.00157721 0.00249274 0)
(0.000172855 -0.0117002 0)
(0.000951756 -0.0328537 0)
(0.00210413 -0.05139 0)
(0.00291178 -0.0682055 0)
(0.00310749 -0.0830088 0)
(0.00234933 -0.0964924 0)
(0.000804455 -0.108352 0)
(-0.00169251 -0.118672 0)
(-0.00426743 -0.127846 0)
(-0.00631641 -0.136489 0)
(-0.00934395 -0.143846 0)
(-0.0126978 -0.149805 0)
(-0.0153965 -0.153866 0)
(-0.0188748 -0.156546 0)
(-0.0227937 -0.158655 0)
(-0.0255372 -0.160351 0)
(-0.0275917 -0.161238 0)
(-0.0302359 -0.160458 0)
(-0.0325646 -0.159519 0)
(-0.0328653 -0.158883 0)
(-0.0320263 -0.15773 0)
(-0.0302501 -0.155745 0)
(-0.0287398 -0.152555 0)
(-0.0284904 -0.148956 0)
(-0.0286561 -0.144908 0)
(-0.0296701 -0.14052 0)
(-0.0301784 -0.135805 0)
(-0.0299012 -0.131667 0)
(-0.0301833 -0.127632 0)
(-0.031464 -0.123726 0)
(-0.0334081 -0.11936 0)
(-0.034053 -0.114714 0)
(-0.0336077 -0.110203 0)
(-0.0331275 -0.10518 0)
(-0.0319405 -0.0992759 0)
(-0.031004 -0.0927652 0)
(-0.0306575 -0.0862258 0)
(-0.0291747 -0.0796371 0)
(-0.0273835 -0.0720152 0)
(-0.0262625 -0.0637419 0)
(-0.0247161 -0.0556484 0)
(-0.0225841 -0.0478478 0)
(-0.0197798 -0.0394699 0)
(-0.0165966 -0.030856 0)
(-0.0137917 -0.0221597 0)
(-0.0116238 -0.0146759 0)
(-0.00920236 -0.00658288 0)
(-0.00550441 0.00152174 0)
(-0.00239199 0.00928701 0)
(-0.00178103 0.016898 0)
(-0.00182937 0.0249214 0)
(-0.00106928 0.0329787 0)
(0.0010693 0.0406511 0)
(0.00475806 0.047563 0)
(0.00795578 0.0533201 0)
(0.00980971 0.0594174 0)
(0.0112122 0.0647582 0)
(0.0126167 0.0704029 0)
(0.0135875 0.075454 0)
(0.0140817 0.0801808 0)
(0.0141865 0.0845928 0)
(0.0136971 0.088597 0)
(0.0134542 0.0917542 0)
(0.0134473 0.0947147 0)
(0.0130454 0.0967629 0)
(0.0123501 0.0990581 0)
(0.0116876 0.101658 0)
(0.0109238 0.104838 0)
(0.00947965 0.107185 0)
(0.00642648 0.109822 0)
(0.00249842 0.112497 0)
(-0.00149821 0.114837 0)
(-0.00530717 0.116599 0)
(-0.00793949 0.117617 0)
(-0.00951604 0.117672 0)
(-0.0115333 0.116862 0)
(-0.0144909 0.116116 0)
(-0.017401 0.115015 0)
(-0.0201614 0.113434 0)
(-0.0228594 0.111456 0)
(-0.0255697 0.108646 0)
(-0.0283341 0.10489 0)
(-0.0302864 0.100713 0)
(-0.0306278 0.0956662 0)
(-0.0299222 0.0897236 0)
(-0.0287674 0.084146 0)
(-0.0274651 0.0784729 0)
(-0.0264458 0.0728173 0)
(-0.0247752 0.0666392 0)
(-0.0222644 0.0608174 0)
(-0.0202682 0.0545468 0)
(-0.0187987 0.0483067 0)
(-0.0173347 0.0424706 0)
(-0.0157328 0.0362162 0)
(-0.0144713 0.0308247 0)
(-0.0129419 0.0252649 0)
(-0.0108431 0.0196766 0)
(-0.00828671 0.0139552 0)
(-0.00537358 0.00832184 0)
(-0.00189821 0.00280904 0)
(5.88651e-05 -0.0127694 0)
(0.000769492 -0.0358858 0)
(0.00187351 -0.0564915 0)
(0.00260432 -0.0747341 0)
(0.0026561 -0.0910322 0)
(0.00182345 -0.105902 0)
(0.00032381 -0.118885 0)
(-0.0022445 -0.130468 0)
(-0.00526919 -0.140568 0)
(-0.00766868 -0.149762 0)
(-0.0103811 -0.157751 0)
(-0.0132726 -0.163827 0)
(-0.0158555 -0.168341 0)
(-0.0194516 -0.172022 0)
(-0.0235344 -0.174577 0)
(-0.0265534 -0.176069 0)
(-0.0282118 -0.177004 0)
(-0.0304505 -0.176965 0)
(-0.0334872 -0.175691 0)
(-0.0343597 -0.17447 0)
(-0.0332686 -0.173237 0)
(-0.0312407 -0.171332 0)
(-0.0294093 -0.168843 0)
(-0.0287365 -0.16466 0)
(-0.0288094 -0.160021 0)
(-0.0297544 -0.155392 0)
(-0.0306438 -0.149892 0)
(-0.0310354 -0.145102 0)
(-0.0315502 -0.14073 0)
(-0.0328061 -0.136287 0)
(-0.0345434 -0.131471 0)
(-0.0352201 -0.126155 0)
(-0.0347881 -0.120901 0)
(-0.0339217 -0.114751 0)
(-0.0325574 -0.108329 0)
(-0.0314214 -0.101936 0)
(-0.0307994 -0.0945631 0)
(-0.0292588 -0.0867516 0)
(-0.0270367 -0.0787143 0)
(-0.0254826 -0.0703648 0)
(-0.0238067 -0.061395 0)
(-0.0213736 -0.0525868 0)
(-0.0181542 -0.0429896 0)
(-0.0147971 -0.0333487 0)
(-0.0123893 -0.0241627 0)
(-0.0102505 -0.0156905 0)
(-0.00733412 -0.00693543 0)
(-0.00356818 0.0021407 0)
(-0.000502616 0.0106228 0)
(0.000528811 0.01896 0)
(0.000940903 0.0280176 0)
(0.00184055 0.0367214 0)
(0.00375153 0.0449463 0)
(0.00683363 0.0526205 0)
(0.00997456 0.0592579 0)
(0.0120044 0.0654302 0)
(0.0136672 0.071556 0)
(0.0152283 0.0777616 0)
(0.0159005 0.0836134 0)
(0.0162829 0.0886836 0)
(0.0162901 0.0935352 0)
(0.0155732 0.0979248 0)
(0.0150084 0.1018 0)
(0.0145121 0.105038 0)
(0.0138631 0.107687 0)
(0.0135443 0.110157 0)
(0.013404 0.113353 0)
(0.0124625 0.116535 0)
(0.0106889 0.118893 0)
(0.00782771 0.121248 0)
(0.00378076 0.123876 0)
(-0.000755794 0.126064 0)
(-0.00498646 0.127726 0)
(-0.00798837 0.129074 0)
(-0.0103749 0.12928 0)
(-0.0128802 0.127848 0)
(-0.0158334 0.127298 0)
(-0.0189859 0.126149 0)
(-0.0220108 0.124417 0)
(-0.025206 0.122031 0)
(-0.0286235 0.118923 0)
(-0.0317177 0.114526 0)
(-0.0338326 0.109777 0)
(-0.0346542 0.104497 0)
(-0.0340633 0.0984058 0)
(-0.0326464 0.0925189 0)
(-0.031272 0.08657 0)
(-0.0302362 0.0801158 0)
(-0.0283313 0.0737927 0)
(-0.0256344 0.0673763 0)
(-0.0236672 0.0607113 0)
(-0.0219278 0.0537804 0)
(-0.0201306 0.0471924 0)
(-0.0180041 0.0405034 0)
(-0.0163265 0.0345755 0)
(-0.0147384 0.0284458 0)
(-0.012365 0.0216209 0)
(-0.00942783 0.0152194 0)
(-0.00600378 0.0088978 0)
(-0.00203357 0.00295924 0)
(-0.000125195 -0.0136986 0)
(0.000346841 -0.038592 0)
(0.00155751 -0.0612092 0)
(0.00234894 -0.0807458 0)
(0.00213085 -0.0985461 0)
(0.00116012 -0.114455 0)
(-0.000415438 -0.128682 0)
(-0.0030711 -0.141577 0)
(-0.00602725 -0.152791 0)
(-0.00854217 -0.162362 0)
(-0.0111869 -0.170517 0)
(-0.0137916 -0.176811 0)
(-0.0164295 -0.182232 0)
(-0.0200587 -0.186452 0)
(-0.0238465 -0.189067 0)
(-0.0267594 -0.190556 0)
(-0.0289284 -0.191354 0)
(-0.03107 -0.192161 0)
(-0.0335355 -0.1913 0)
(-0.0347607 -0.189377 0)
(-0.0342117 -0.187861 0)
(-0.032215 -0.185566 0)
(-0.0296548 -0.183135 0)
(-0.0283842 -0.179145 0)
(-0.0287276 -0.174605 0)
(-0.0295691 -0.169652 0)
(-0.0303831 -0.163764 0)
(-0.0313319 -0.158222 0)
(-0.032244 -0.15309 0)
(-0.0335574 -0.14779 0)
(-0.0352042 -0.142379 0)
(-0.0358598 -0.136898 0)
(-0.0351203 -0.131048 0)
(-0.0340763 -0.124178 0)
(-0.0329691 -0.117193 0)
(-0.0315405 -0.110381 0)
(-0.0302924 -0.102442 0)
(-0.0283874 -0.0936359 0)
(-0.02619 -0.0847611 0)
(-0.024298 -0.076037 0)
(-0.0222615 -0.0666061 0)
(-0.0194574 -0.0569027 0)
(-0.0157834 -0.046293 0)
(-0.0126093 -0.0361403 0)
(-0.0103439 -0.0262631 0)
(-0.00815215 -0.0166644 0)
(-0.00492744 -0.00694821 0)
(-0.00105066 0.0029466 0)
(0.00192288 0.0122782 0)
(0.00339148 0.021366 0)
(0.00407967 0.0308197 0)
(0.00472406 0.0401816 0)
(0.00662351 0.0489758 0)
(0.00967223 0.0573756 0)
(0.0122891 0.0648492 0)
(0.0142749 0.0714938 0)
(0.0161847 0.0782878 0)
(0.0178385 0.0844762 0)
(0.0183888 0.0908331 0)
(0.0185236 0.0965067 0)
(0.0184649 0.102071 0)
(0.0175546 0.106798 0)
(0.0167207 0.110981 0)
(0.0160241 0.114444 0)
(0.0152277 0.118004 0)
(0.015064 0.121492 0)
(0.0150171 0.124965 0)
(0.0136972 0.127862 0)
(0.011677 0.130202 0)
(0.00883602 0.132242 0)
(0.00478996 0.134513 0)
(8.89845e-05 0.136727 0)
(-0.00432195 0.13866 0)
(-0.00799605 0.140052 0)
(-0.0115741 0.139702 0)
(-0.0140912 0.138301 0)
(-0.0167695 0.137626 0)
(-0.0204553 0.136482 0)
(-0.0240027 0.134542 0)
(-0.0275512 0.13153 0)
(-0.0315355 0.128232 0)
(-0.035261 0.123461 0)
(-0.0375811 0.118488 0)
(-0.0385973 0.112797 0)
(-0.0380013 0.106989 0)
(-0.0363855 0.100812 0)
(-0.0351251 0.0940766 0)
(-0.0339884 0.0871821 0)
(-0.0318805 0.0806318 0)
(-0.0291956 0.0736375 0)
(-0.0271364 0.0662325 0)
(-0.0251515 0.0587166 0)
(-0.0230278 0.0517787 0)
(-0.0204282 0.0447317 0)
(-0.0182044 0.0377607 0)
(-0.0167367 0.0313247 0)
(-0.0141869 0.0236963 0)
(-0.0105568 0.0166039 0)
(-0.00656385 0.00983544 0)
(-0.00208904 0.00346202 0)
(-0.000248633 -0.0146791 0)
(-0.000163931 -0.0408954 0)
(0.00108493 -0.0649778 0)
(0.0019274 -0.0862914 0)
(0.00153843 -0.105506 0)
(0.000498363 -0.122415 0)
(-0.00138889 -0.137965 0)
(-0.0041514 -0.151652 0)
(-0.00697653 -0.163681 0)
(-0.00922798 -0.174081 0)
(-0.0115034 -0.18253 0)
(-0.0142379 -0.188897 0)
(-0.0170327 -0.194503 0)
(-0.0201853 -0.199085 0)
(-0.0237628 -0.201948 0)
(-0.0268315 -0.203938 0)
(-0.029256 -0.205459 0)
(-0.0314269 -0.20606 0)
(-0.0334979 -0.205215 0)
(-0.0348241 -0.203452 0)
(-0.0342974 -0.201771 0)
(-0.0323477 -0.199065 0)
(-0.0299442 -0.196094 0)
(-0.0283293 -0.192615 0)
(-0.0282457 -0.188274 0)
(-0.028705 -0.182972 0)
(-0.0296279 -0.176661 0)
(-0.0310096 -0.170207 0)
(-0.0321116 -0.16449 0)
(-0.0335484 -0.158645 0)
(-0.0355195 -0.152634 0)
(-0.0362214 -0.146743 0)
(-0.035094 -0.140406 0)
(-0.0336908 -0.133437 0)
(-0.0326291 -0.125792 0)
(-0.0310023 -0.118198 0)
(-0.0290645 -0.109505 0)
(-0.0269208 -0.0998633 0)