/*--------------------------------*- C++ -*----------------------------------*\
| =========                 |                                                 |
| \\      /  F ield         | OpenFOAM: The Open Source CFD Toolbox           |
|  \\    /   O peration     | Version:  v2012                                 |
|   \\  /    A nd           | Website:  www.openfoam.com                      |
|    \\/     M anipulation  |                                                 |
\*---------------------------------------------------------------------------*/
FoamFile
{
    version     2.0;
    format      ascii;
    class       volScalarField;
    location    "0";
    object      p;
}
// * * * * * * * * * * * * * * * * * * * * * * * * * * * * * * * * * * * * * //

dimensions      [0 2 -2 0 0 0 0];


internalField   nonuniform List<scalar> 
4000
(
6.89264e-13
6.80747e-13
6.84799e-13
6.87108e-13
6.90517e-13
6.77513e-13
6.69496e-13
6.66911e-13
6.61327e-13
6.65261e-13
6.75331e-13
6.67197e-13
6.54783e-13
6.53438e-13
6.40541e-13
6.34919e-13
6.30738e-13
6.30717e-13
6.2641e-13
6.20122e-13
6.1662e-13
6.00764e-13
6.0344e-13
6.00004e-13
5.96989e-13
5.93918e-13
5.91786e-13
5.8712e-13
5.86269e-13
5.80224e-13
5.53821e-13
5.50052e-13
5.51584e-13
5.49309e-13
5.39212e-13
5.33483e-13
5.30666e-13
5.13813e-13
4.93893e-13
4.92434e-13
4.91347e-13
4.8448e-13
4.87599e-13
4.93465e-13
4.79086e-13
4.67957e-13
4.63127e-13
4.53454e-13
4.48042e-13
4.43621e-13
4.34927e-13
4.23694e-13
4.1651e-13
4.12503e-13
4.01529e-13
3.93254e-13
3.81209e-13
3.73008e-13
3.66942e-13
3.61996e-13
3.58522e-13
3.44133e-13
3.36201e-13
3.22943e-13
3.18072e-13
3.16992e-13
3.05463e-13
2.99648e-13
2.85437e-13
2.80921e-13
2.67557e-13
2.51993e-13
2.29742e-13
2.21154e-13
2.11106e-13
2.06132e-13
1.93377e-13
1.843e-13
1.72597e-13
1.55351e-13
1.48277e-13
1.42339e-13
1.26846e-13
1.21759e-13
1.18611e-13
9.73868e-14
9.13022e-14
8.40025e-14
8.30072e-14
7.79428e-14
6.80877e-14
6.11311e-14
5.86051e-14
5.68352e-14
4.59767e-14
3.80086e-14
3.13558e-14
2.37294e-14
1.21249e-14
4.5115e-15
6.90022e-13
6.85761e-13
6.85243e-13
6.8083e-13
6.83676e-13
6.80664e-13
6.74663e-13
6.70045e-13
6.67096e-13
6.64512e-13
6.70159e-13
6.61741e-13
6.55896e-13
6.5437e-13
6.41887e-13
6.35797e-13
6.33707e-13
6.31698e-13
6.23462e-13
6.27162e-13
6.18086e-13
6.00035e-13
5.97177e-13
5.9802e-13
5.95543e-13
5.93762e-13
5.93411e-13
5.88346e-13
5.82413e-13
5.71714e-13
5.57919e-13
5.54205e-13
5.47826e-13
5.44479e-13
5.42052e-13
5.35217e-13
5.2768e-13
5.21548e-13
5.01126e-13
4.93234e-13
4.85084e-13
4.87344e-13
4.89009e-13
4.92056e-13
4.79467e-13
4.65705e-13
4.59344e-13
4.55501e-13
4.53291e-13
4.39099e-13
4.32699e-13
4.20915e-13
4.199e-13
4.12244e-13
4.05875e-13
3.94202e-13
3.77913e-13
3.73775e-13
3.67209e-13
3.58175e-13
3.54625e-13
3.45062e-13
3.38039e-13
3.29288e-13
3.20789e-13
3.14641e-13
3.04411e-13
2.95702e-13
2.89556e-13
2.81985e-13
2.67637e-13
2.49384e-13
2.31734e-13
2.23802e-13
2.1445e-13
2.03229e-13
1.94062e-13
1.8154e-13
1.67631e-13
1.56324e-13
1.49801e-13
1.40808e-13
1.28709e-13
1.22955e-13
1.1635e-13
9.82823e-14
9.08949e-14
8.23987e-14
8.09924e-14
7.2341e-14
6.98713e-14
6.35791e-14
6.47699e-14
5.29088e-14
4.28493e-14
4.08915e-14
3.10674e-14
2.53298e-14
1.57203e-14
5.25412e-15
6.85351e-13
6.85259e-13
6.82744e-13
6.83489e-13
6.8662e-13
6.81667e-13
6.74005e-13
6.74411e-13
6.66025e-13
6.64881e-13
6.67955e-13
6.52707e-13
6.59376e-13
6.56091e-13
6.47125e-13
6.37135e-13
6.32415e-13
6.29379e-13
6.28005e-13
6.24037e-13
6.12559e-13
6.04646e-13
5.99909e-13
5.97232e-13
5.95116e-13
5.91691e-13
5.94342e-13
5.88758e-13
5.78874e-13
5.69076e-13
5.62694e-13
5.57981e-13
5.4501e-13
5.44601e-13
5.4553e-13
5.39084e-13
5.26802e-13
5.19059e-13
5.08988e-13
4.91005e-13
4.84866e-13
4.8604e-13
4.92699e-13
4.92174e-13
4.75695e-13
4.64798e-13
4.5934e-13
4.55407e-13
4.49187e-13
4.44595e-13
4.36215e-13
4.25881e-13
4.18165e-13
4.04908e-13
4.04777e-13
3.9536e-13
3.78686e-13
3.76942e-13
3.7078e-13
3.60162e-13
3.53243e-13
3.42617e-13
3.31035e-13
3.30325e-13
3.25449e-13
3.13277e-13
3.08343e-13
2.99502e-13
2.9102e-13
2.79477e-13
2.64771e-13
2.44786e-13
2.32665e-13
2.23455e-13
2.16908e-13
2.01007e-13
1.89927e-13
1.81124e-13
1.68328e-13
1.58511e-13
1.52148e-13
1.3869e-13
1.29303e-13
1.18845e-13
1.11815e-13
1.05668e-13
9.2574e-14
8.18649e-14
7.64805e-14
7.20868e-14
6.9761e-14
6.32554e-14
6.12088e-14
5.13127e-14
4.2164e-14
3.9608e-14
3.15703e-14
2.49948e-14
1.67762e-14
5.99266e-15
6.84602e-13
6.87656e-13
6.84104e-13
6.8057e-13
6.85745e-13
6.7718e-13
6.72669e-13
6.71113e-13
6.68422e-13
6.6944e-13
6.66097e-13
6.55238e-13
6.56569e-13
6.52208e-13
6.5491e-13
6.4614e-13
6.33794e-13
6.26623e-13
6.2266e-13
6.20304e-13
6.12587e-13
6.05043e-13
6.03135e-13
5.92785e-13
5.89335e-13
5.90161e-13
5.88343e-13
5.92752e-13
5.77315e-13
5.70817e-13
5.61345e-13
5.59078e-13
5.48329e-13
5.40231e-13
5.37799e-13
5.35971e-13
5.25856e-13
5.23198e-13
5.12959e-13
4.9135e-13
4.89334e-13
4.92526e-13
4.95145e-13
4.89057e-13
4.72553e-13
4.62796e-13
4.60796e-13
4.61367e-13
4.51973e-13
4.37076e-13
4.30421e-13
4.20199e-13
4.19476e-13
4.10997e-13
3.99763e-13
3.95894e-13
3.80321e-13
3.78188e-13
3.7191e-13
3.6262e-13
3.5248e-13
3.42541e-13
3.35399e-13
3.30029e-13
3.25175e-13
3.14024e-13
3.05044e-13
3.04446e-13
2.90001e-13
2.81117e-13
2.66107e-13
2.46407e-13
2.36992e-13
2.23657e-13
2.1071e-13
1.99885e-13
1.9189e-13
1.82619e-13
1.69298e-13
1.59324e-13
1.55137e-13
1.38516e-13
1.27412e-13
1.17261e-13
1.07771e-13
1.01551e-13
9.08457e-14
8.32854e-14
7.48038e-14
7.13373e-14
7.59354e-14
6.67726e-14
5.83657e-14
5.24073e-14
4.35821e-14
3.80713e-14
2.98654e-14
2.24626e-14
1.39738e-14
7.35325e-15
6.82193e-13
6.87176e-13
6.81612e-13
6.79103e-13
6.78203e-13
6.76539e-13
6.71001e-13
6.70223e-13
6.68866e-13
6.67955e-13
6.64088e-13
6.57477e-13
6.60423e-13
6.53984e-13
6.52479e-13
6.48348e-13
6.3697e-13
6.29518e-13
6.23534e-13
6.14462e-13
6.06824e-13
6.00706e-13
5.9546e-13
5.90279e-13
5.92839e-13
6.00292e-13
5.86718e-13
5.85846e-13
5.79295e-13
5.69002e-13
5.61132e-13
5.58163e-13
5.53889e-13
5.40238e-13
5.37879e-13
5.36784e-13
5.23885e-13
5.19584e-13
5.0715e-13
4.9519e-13
4.94666e-13
4.97275e-13
4.96079e-13
4.86887e-13
4.76827e-13
4.63386e-13
4.56281e-13
4.60002e-13
4.49327e-13
4.41973e-13
4.30664e-13
4.2524e-13
4.20221e-13
4.10107e-13
3.98398e-13
3.8912e-13
3.84047e-13
3.81411e-13
3.73699e-13
3.59842e-13
3.49795e-13
3.47279e-13
3.35644e-13
3.278e-13
3.27505e-13
3.21983e-13
3.07594e-13
3.05095e-13
2.89363e-13
2.78583e-13
2.66098e-13
2.44801e-13
2.36473e-13
2.2284e-13
2.06419e-13
1.9828e-13
1.89895e-13
1.80883e-13
1.72096e-13
1.60952e-13
1.58626e-13
1.42468e-13
1.25664e-13
1.17763e-13
1.04957e-13
9.98916e-14
9.32991e-14
8.50446e-14
7.79598e-14
7.35849e-14
7.03357e-14
7.10848e-14
6.0499e-14
5.59045e-14
4.78036e-14
3.17221e-14
2.48086e-14
2.53182e-14
1.42178e-14
5.32996e-15
6.77076e-13
6.88183e-13
6.80773e-13
6.74064e-13
6.78499e-13
6.81106e-13
6.77866e-13
6.73318e-13
6.67248e-13
6.62861e-13
6.62386e-13
6.59057e-13
6.56222e-13
6.52591e-13
6.49422e-13
6.49388e-13
6.44123e-13
6.35221e-13
6.21068e-13
6.11231e-13
6.07014e-13
5.93174e-13
5.83526e-13
5.89669e-13
5.9235e-13
5.9795e-13
5.91268e-13
5.82642e-13
5.74619e-13
5.7069e-13
5.61691e-13
5.55359e-13
5.49774e-13
5.44993e-13
5.43473e-13
5.34913e-13
5.25415e-13
5.1817e-13
5.07785e-13
5.03713e-13
5.01061e-13
4.95988e-13
4.92753e-13
4.86645e-13
4.81892e-13
4.6294e-13
4.55451e-13
4.54859e-13
4.46858e-13
4.42792e-13
4.33297e-13
4.2214e-13
4.19078e-13
4.07114e-13
3.96664e-13
3.92537e-13
3.85732e-13
3.8168e-13
3.69487e-13
3.6552e-13
3.53795e-13
3.47366e-13
3.38074e-13
3.3105e-13
3.17938e-13
3.17664e-13
3.1224e-13
3.02183e-13
2.90304e-13
2.75662e-13
2.65542e-13
2.52294e-13
2.36363e-13
2.2238e-13
2.04026e-13
1.98621e-13
1.91184e-13
1.77477e-13
1.7703e-13
1.66318e-13
1.58198e-13
1.41788e-13
1.2671e-13
1.16499e-13
1.06531e-13
1.00518e-13
9.06206e-14
8.43616e-14
7.99529e-14
7.15658e-14
6.88205e-14
6.94141e-14
6.13539e-14
5.60814e-14
4.96818e-14
3.83969e-14
2.37488e-14
1.94878e-14
1.62387e-14
4.24195e-15
6.77538e-13
6.77408e-13
6.78551e-13
6.77743e-13
6.77339e-13
6.77537e-13
6.76887e-13
6.73111e-13
6.6745e-13
6.62772e-13
6.53774e-13
6.62693e-13
6.58441e-13
6.48911e-13
6.52395e-13
6.46958e-13
6.38372e-13
6.3333e-13
6.18237e-13
6.04862e-13
5.9484e-13
5.96951e-13
5.94033e-13
5.9512e-13
5.98604e-13
6.03113e-13
5.87266e-13
5.77403e-13
5.71715e-13
5.67814e-13
5.60908e-13
5.52379e-13
5.49479e-13
5.44772e-13
5.40481e-13
5.27121e-13
5.30278e-13
5.2574e-13
5.13067e-13
5.01313e-13
4.97614e-13
4.92849e-13
4.85352e-13
4.83521e-13
4.81863e-13
4.70281e-13
4.65035e-13
4.61538e-13
4.47297e-13
4.3843e-13
4.32036e-13
4.27284e-13
4.20052e-13
4.04578e-13
3.95725e-13
3.91012e-13
3.87507e-13
3.77145e-13
3.68565e-13
3.62849e-13
3.58096e-13
3.51289e-13
3.37844e-13
3.26768e-13
3.17326e-13
3.14088e-13
3.07171e-13
2.99995e-13
2.84433e-13
2.74271e-13
2.73128e-13
2.55231e-13
2.37097e-13
2.23655e-13
2.07242e-13
1.97841e-13
1.8785e-13
1.74601e-13
1.68225e-13
1.64264e-13
1.60727e-13
1.41216e-13
1.30242e-13
1.22754e-13
1.11101e-13
1.02741e-13
8.78481e-14
8.32945e-14
8.07812e-14
7.129e-14
7.08523e-14
6.68522e-14
5.68385e-14
5.28268e-14
5.13521e-14
3.5182e-14
2.53983e-14
1.77871e-14
1.59553e-14
5.09315e-15
6.78072e-13
6.7648e-13
6.75792e-13
6.73417e-13
6.73539e-13
6.703e-13
6.75865e-13
6.72651e-13
6.65155e-13
6.6397e-13
6.61663e-13
6.55537e-13
6.46523e-13
6.47698e-13
6.46811e-13
6.46255e-13
6.38894e-13
6.30136e-13
6.16223e-13
6.04126e-13
6.01107e-13
6.01441e-13
5.93689e-13
5.90343e-13
6.04058e-13
5.97376e-13
5.82085e-13
5.79777e-13
5.68885e-13
5.65518e-13
5.60866e-13
5.52375e-13
5.51446e-13
5.4778e-13
5.4233e-13
5.31727e-13
5.28576e-13
5.1598e-13
5.12591e-13
5.04397e-13
4.9813e-13
4.95837e-13
4.90399e-13
4.86523e-13
4.85311e-13
4.76251e-13
4.58437e-13
4.45992e-13
4.42342e-13
4.44295e-13
4.38806e-13
4.32452e-13
4.16099e-13
4.03816e-13
3.9746e-13
3.86691e-13
3.86168e-13
3.80357e-13
3.71457e-13
3.61468e-13
3.57688e-13
3.50249e-13
3.3741e-13
3.25958e-13
3.16929e-13
3.16134e-13
3.09019e-13
2.99505e-13
2.90554e-13
2.78727e-13
2.65382e-13
2.55531e-13
2.3574e-13
2.1947e-13
2.02076e-13
2.00722e-13
1.89649e-13
1.77378e-13
1.72034e-13
1.65777e-13
1.56635e-13
1.42127e-13
1.27772e-13
1.15831e-13
1.10566e-13
1.03473e-13
9.14882e-14
8.49059e-14
8.36421e-14
7.281e-14
7.0325e-14
6.58416e-14
5.4582e-14
5.29027e-14
4.19641e-14
3.40407e-14
3.16764e-14
2.21366e-14
1.56455e-14
5.55105e-15
6.75599e-13
6.76878e-13
6.69932e-13
6.68997e-13
6.71791e-13
6.70092e-13
6.71598e-13
6.71171e-13
6.63325e-13
6.64474e-13
6.60099e-13
6.49728e-13
6.44986e-13
6.44279e-13
6.47225e-13
6.44955e-13
6.34853e-13
6.27034e-13
6.15796e-13
6.01333e-13
6.02644e-13
5.99474e-13
5.98463e-13
5.97881e-13
5.99695e-13
5.92356e-13
5.8299e-13
5.81314e-13
5.743e-13
5.68146e-13
5.60412e-13
5.55184e-13
5.4843e-13
5.41398e-13
5.42446e-13
5.34505e-13
5.24246e-13
5.08167e-13
5.16712e-13
5.16626e-13
5.03377e-13
4.89584e-13
4.85863e-13
4.81453e-13
4.83203e-13
4.71764e-13
4.61585e-13
4.58594e-13
4.52645e-13
4.44895e-13
4.34092e-13
4.28234e-13
4.13404e-13
4.06461e-13
4.00254e-13
3.93508e-13
3.87733e-13
3.78578e-13
3.70445e-13
3.62232e-13
3.57622e-13
3.48609e-13
3.34148e-13
3.25418e-13
3.13893e-13
3.14272e-13
3.04102e-13
3.00968e-13
2.88598e-13
2.79133e-13
2.66616e-13
2.5666e-13
2.43441e-13
2.24125e-13
2.06685e-13
1.97608e-13
1.92884e-13
1.80564e-13
1.71778e-13
1.58692e-13
1.57802e-13
1.45135e-13
1.32697e-13
1.17686e-13
1.09458e-13
9.94262e-14
9.62557e-14
8.7525e-14
8.71105e-14
7.30442e-14
6.6301e-14
6.24457e-14
5.11056e-14
5.02865e-14
4.03392e-14
3.46106e-14
2.98832e-14
2.30047e-14
1.55423e-14
2.65854e-15
6.72431e-13
6.71558e-13
6.70657e-13
6.7239e-13
6.72484e-13
6.66179e-13
6.65741e-13
6.70251e-13
6.72953e-13
6.52814e-13
6.53491e-13
6.4639e-13
6.46117e-13
6.4333e-13
6.44925e-13
6.36279e-13
6.23747e-13
6.27044e-13
6.27165e-13
6.06731e-13
5.95412e-13
5.92456e-13
5.89123e-13
5.93809e-13
5.9904e-13
5.98832e-13
5.84983e-13
5.81539e-13
5.75899e-13
5.69474e-13
5.64489e-13
5.55463e-13
5.42045e-13
5.37531e-13
5.37246e-13
5.35052e-13
5.30511e-13
5.18945e-13
5.13548e-13
5.0947e-13
5.01577e-13
4.95398e-13
4.88638e-13
4.84219e-13
4.86688e-13
4.73474e-13
4.64658e-13
4.58124e-13
4.48479e-13
4.40046e-13
4.36282e-13
4.28244e-13
4.16774e-13
4.09928e-13
3.98204e-13
3.96336e-13
3.87166e-13
3.80381e-13
3.67992e-13
3.64582e-13
3.59513e-13
3.52801e-13
3.42859e-13
3.25505e-13
3.10597e-13
3.04504e-13
3.01074e-13
2.98097e-13
2.85787e-13
2.83183e-13
2.70511e-13
2.59077e-13
2.45183e-13
2.2441e-13
2.12856e-13
1.97631e-13
1.92522e-13
1.79968e-13
1.71809e-13
1.59515e-13
1.55865e-13
1.42095e-13
1.32491e-13
1.25591e-13
1.10419e-13
1.01923e-13
9.13257e-14
8.10484e-14
8.55278e-14
7.23931e-14
6.71364e-14
5.82273e-14
4.75985e-14
4.72981e-14
3.93908e-14
3.69203e-14
3.19321e-14
2.14261e-14
7.6883e-15
3.38053e-15
6.69737e-13
6.67341e-13
6.65554e-13
6.72003e-13
6.70956e-13
6.62795e-13
6.69921e-13
6.68812e-13
6.69538e-13
6.58157e-13
6.48541e-13
6.41695e-13
6.3988e-13
6.44732e-13
6.39592e-13
6.39292e-13
6.31033e-13
6.24228e-13
6.21761e-13
6.08209e-13
5.97126e-13
5.89526e-13
5.88408e-13
5.9556e-13
5.94097e-13
5.95829e-13
5.9e-13
5.83281e-13
5.77787e-13
5.72785e-13
5.64747e-13
5.53948e-13
5.40761e-13
5.40315e-13
5.38595e-13
5.35955e-13
5.22951e-13
5.20641e-13
5.13507e-13
5.10389e-13
5.03117e-13
4.91197e-13
4.8237e-13
4.87112e-13
4.89439e-13
4.74314e-13
4.63892e-13
4.54845e-13
4.46893e-13
4.3692e-13
4.38054e-13
4.36648e-13
4.16817e-13
4.09059e-13
4.00128e-13
3.96444e-13
3.92501e-13
3.80052e-13
3.67115e-13
3.60156e-13
3.55632e-13
3.44871e-13
3.37509e-13
3.35667e-13
3.10845e-13
3.05707e-13
3.02204e-13
2.93054e-13
2.82902e-13
2.84957e-13
2.72977e-13
2.62353e-13
2.44964e-13
2.23439e-13
2.09681e-13
1.96534e-13
1.8827e-13
1.82083e-13
1.73582e-13
1.6756e-13
1.64297e-13
1.46423e-13
1.34738e-13
1.21526e-13
1.02266e-13
9.06217e-14
9.07993e-14
9.06082e-14
8.54726e-14
6.92883e-14
6.52597e-14
5.9191e-14
4.79175e-14
4.28246e-14
4.06031e-14
3.89248e-14
2.76311e-14
1.48316e-14
1.30178e-15
5.41784e-15
6.76088e-13
6.69157e-13
6.62224e-13
6.71696e-13
6.69686e-13
6.66337e-13
6.71461e-13
6.65544e-13
6.65411e-13
6.55314e-13
6.47638e-13
6.4108e-13
6.35523e-13
6.4027e-13
6.33242e-13
6.35055e-13
6.33944e-13
6.31374e-13
6.20458e-13
6.01917e-13
5.97259e-13
5.9936e-13
5.90734e-13
5.86813e-13
5.93139e-13
5.91226e-13
5.87649e-13
5.80218e-13
5.77045e-13
5.7659e-13
5.68874e-13
5.51031e-13
5.371e-13
5.37806e-13
5.39114e-13
5.3235e-13
5.3076e-13
5.24871e-13
5.18809e-13
5.01131e-13
4.98976e-13
4.9038e-13
4.86548e-13
4.8409e-13
4.88564e-13
4.80408e-13
4.62463e-13
4.51298e-13
4.45554e-13
4.40777e-13
4.38584e-13
4.27584e-13
4.16562e-13
4.12992e-13
4.03427e-13
3.95653e-13
3.86798e-13
3.79875e-13
3.68635e-13
3.59507e-13
3.61519e-13
3.53187e-13
3.38604e-13
3.24676e-13
3.05185e-13
3.01346e-13
3.00362e-13
2.96563e-13
2.85478e-13
2.86418e-13
2.73633e-13
2.63785e-13
2.43642e-13
2.27538e-13
2.0677e-13
1.89013e-13
1.84491e-13
1.84821e-13
1.79825e-13
1.65399e-13
1.6558e-13
1.46814e-13
1.38745e-13
1.22491e-13
1.06219e-13
9.28427e-14
8.44424e-14
8.64526e-14
8.02855e-14
7.24828e-14
6.14709e-14
5.5075e-14
5.0859e-14
4.20752e-14
4.05147e-14
4.0936e-14
2.562e-14
1.25166e-14
6.85814e-15
3.94162e-15
6.70718e-13
6.682e-13
6.61815e-13
6.68976e-13
6.67133e-13
6.67127e-13
6.68826e-13
6.673e-13
6.612e-13
6.45356e-13
6.37022e-13
6.39379e-13
6.47626e-13
6.45315e-13
6.4147e-13
6.32956e-13
6.32531e-13
6.30644e-13
6.1982e-13
6.10099e-13
5.91703e-13
5.87315e-13
5.87951e-13
5.85236e-13
5.86861e-13
5.8825e-13
5.88205e-13
5.88744e-13
5.80596e-13
5.68717e-13
5.62874e-13
5.53374e-13
5.47173e-13
5.45049e-13
5.33507e-13
5.30807e-13
5.29699e-13
5.2353e-13
5.0794e-13
5.02483e-13
4.99129e-13
4.89557e-13
4.88006e-13
4.82298e-13
4.81867e-13
4.73461e-13
4.65587e-13
4.53227e-13
4.44496e-13
4.40554e-13
4.36583e-13
4.305e-13
4.18433e-13
4.08879e-13
4.07149e-13
4.0225e-13
3.89634e-13
3.77542e-13
3.7195e-13
3.60246e-13
3.51672e-13
3.42722e-13
3.42639e-13
3.3421e-13
3.14007e-13
3.03538e-13
2.98996e-13
2.96348e-13
2.88195e-13
2.81802e-13
2.69939e-13
2.59345e-13
2.43058e-13
2.20991e-13
2.06941e-13
1.96892e-13
1.89694e-13
1.87855e-13
1.73877e-13
1.66994e-13
1.63865e-13
1.47408e-13
1.36742e-13
1.21419e-13
1.12478e-13
9.59443e-14
8.68096e-14
8.72857e-14
7.8691e-14
7.20032e-14
6.19048e-14
5.34956e-14
4.62369e-14
4.16652e-14
4.38612e-14
3.40765e-14
2.88227e-14
1.74013e-14
5.68834e-15
1.27389e-15
6.66717e-13
6.73245e-13
6.68814e-13
6.65004e-13
6.67094e-13
6.66456e-13
6.63291e-13
6.64054e-13
6.55793e-13
6.40759e-13
6.40561e-13
6.43467e-13
6.44174e-13
6.47268e-13
6.41791e-13
6.30469e-13
6.25392e-13
6.23771e-13
6.20151e-13
6.09409e-13
6.00842e-13
5.98227e-13
6.0047e-13
5.88134e-13
5.78415e-13
5.68344e-13
5.78646e-13
5.85583e-13
5.80481e-13
5.74876e-13
5.66828e-13
5.51795e-13
5.39521e-13
5.33186e-13
5.3136e-13
5.25939e-13
5.2845e-13
5.24087e-13
5.10792e-13
5.05655e-13
5.01533e-13
4.8793e-13
4.84341e-13
4.81656e-13
4.84241e-13
4.70306e-13
4.61883e-13
4.53574e-13
4.48324e-13
4.46119e-13
4.40558e-13
4.31438e-13
4.21187e-13
4.15625e-13
4.04863e-13
3.93854e-13
3.86966e-13
3.77679e-13
3.77198e-13
3.62915e-13
3.51953e-13
3.45511e-13
3.37388e-13
3.29528e-13
3.1379e-13
3.06333e-13
3.03913e-13
2.98603e-13
2.87517e-13
2.80762e-13
2.68973e-13
2.59208e-13
2.42155e-13
2.2675e-13
2.10288e-13
1.9872e-13
1.88587e-13
1.75902e-13
1.75684e-13
1.69832e-13
1.62461e-13
1.4704e-13
1.34574e-13
1.23722e-13
1.11858e-13
9.84813e-14
8.91798e-14
8.43425e-14
7.87511e-14
7.04789e-14
6.37738e-14
5.89837e-14
4.66993e-14
4.24664e-14
3.85561e-14
3.15065e-14
2.44576e-14
1.54447e-14
6.23582e-15
1.4549e-15
6.66913e-13
6.64784e-13
6.69106e-13
6.68569e-13
6.6898e-13
6.6621e-13
6.59987e-13
6.51681e-13
6.48481e-13
6.4496e-13
6.46442e-13
6.44508e-13
6.45991e-13
6.48823e-13
6.44005e-13
6.36213e-13
6.34913e-13
6.313e-13
6.21764e-13
6.05788e-13
5.91652e-13
5.82464e-13
5.82352e-13
5.83598e-13
5.84765e-13
5.83668e-13
5.84671e-13
5.8075e-13
5.74019e-13
5.6822e-13
5.62447e-13
5.53332e-13
5.4676e-13
5.35193e-13
5.19002e-13
5.235e-13
5.24636e-13
5.22355e-13
5.12929e-13
5.01271e-13
4.97761e-13
4.89226e-13
4.83444e-13
4.80272e-13
4.76983e-13
4.70379e-13
4.69944e-13
4.53163e-13
4.48724e-13
4.51931e-13
4.45923e-13
4.31579e-13
4.21416e-13
4.15107e-13
4.01547e-13
3.87858e-13
3.82325e-13
3.78307e-13
3.75643e-13
3.57813e-13
3.56509e-13
3.53226e-13
3.43155e-13
3.29254e-13
3.1185e-13
3.03882e-13
3.02059e-13
2.99743e-13
2.91096e-13
2.75932e-13
2.70642e-13
2.57801e-13
2.40699e-13
2.23572e-13
2.12995e-13
1.95675e-13
1.83704e-13
1.74291e-13
1.78055e-13
1.77319e-13
1.68247e-13
1.52673e-13
1.35329e-13
1.15841e-13
1.09231e-13
1.04089e-13
9.16914e-14
8.50918e-14
7.33084e-14
6.47292e-14
6.7768e-14
5.72165e-14
4.83625e-14
4.0935e-14
3.9619e-14
2.46725e-14
1.71161e-14
1.24218e-14
2.14699e-15
6.12004e-16
6.64393e-13
6.71649e-13
6.71353e-13
6.67469e-13
6.67611e-13
6.6838e-13
6.64051e-13
6.58642e-13
6.44015e-13
6.36397e-13
6.38774e-13
6.44016e-13
6.47952e-13
6.5165e-13
6.51849e-13
6.39627e-13
6.32407e-13
6.27381e-13
6.16148e-13
6.05425e-13
6.0249e-13
5.90354e-13
5.77923e-13
5.69195e-13
5.83822e-13
5.83221e-13
5.83257e-13
5.80787e-13
5.73971e-13
5.70974e-13
5.62536e-13
5.46739e-13
5.45768e-13
5.30421e-13
5.15701e-13
5.14627e-13
5.22329e-13
5.27203e-13
5.12701e-13
5.03015e-13
4.93482e-13
4.85672e-13
4.85604e-13
4.80206e-13
4.74076e-13
4.69839e-13
4.65862e-13
4.59783e-13
4.49482e-13
4.43046e-13
4.39756e-13
4.34882e-13
4.26965e-13
4.10022e-13
4.03131e-13
3.8987e-13
3.81741e-13
3.7173e-13
3.75626e-13
3.62967e-13
3.61078e-13
3.48e-13
3.39441e-13
3.26895e-13
3.12476e-13
3.03783e-13
3.00424e-13
2.96323e-13
2.88858e-13
2.76926e-13
2.67365e-13
2.59961e-13
2.48196e-13
2.27732e-13
2.09316e-13
1.95563e-13
1.83856e-13
1.78795e-13
1.74978e-13
1.67318e-13
1.63822e-13
1.56221e-13
1.38831e-13
1.13773e-13
1.06999e-13
1.07277e-13
9.56403e-14
8.26206e-14
7.4682e-14
6.66941e-14
6.34382e-14
5.48487e-14
4.86625e-14
4.19233e-14
3.70419e-14
2.83657e-14
1.63967e-14
8.4542e-15
-4.43469e-16
-4.27227e-15
6.69546e-13
6.69159e-13
6.68717e-13
6.63638e-13
6.67986e-13
6.5934e-13
6.54995e-13
6.59339e-13
6.57017e-13
6.47529e-13
6.48445e-13
6.41452e-13
6.41451e-13
6.48906e-13
6.50709e-13
6.4032e-13
6.40287e-13
6.36566e-13
6.19539e-13
6.01648e-13
5.89421e-13
5.79866e-13
5.83671e-13
5.8471e-13
5.79009e-13
5.85403e-13
5.84204e-13
5.81007e-13
5.73974e-13
5.66732e-13
5.61479e-13
5.47968e-13
5.41077e-13
5.22311e-13
5.12762e-13
5.17338e-13
5.27926e-13
5.2616e-13
5.11281e-13
5.00766e-13
4.91285e-13
4.79182e-13
4.805e-13
4.82652e-13
4.77793e-13
4.65935e-13
4.59426e-13
4.53719e-13
4.55695e-13
4.47776e-13
4.38566e-13
4.29474e-13
4.25999e-13
4.10344e-13
3.99623e-13
3.83179e-13
3.78652e-13
3.75379e-13
3.73627e-13
3.70783e-13
3.63449e-13
3.53986e-13
3.37706e-13
3.25672e-13
3.18046e-13
3.05964e-13
2.96925e-13
2.85682e-13
2.83375e-13
2.80144e-13
2.71063e-13
2.5569e-13
2.48312e-13
2.27786e-13
2.08349e-13
1.98473e-13
1.81547e-13
1.7488e-13
1.72681e-13
1.77216e-13
1.7291e-13
1.53642e-13
1.37448e-13
1.17447e-13
1.05381e-13
1.06581e-13
9.46158e-14
8.25395e-14
7.38076e-14
6.48917e-14
5.97336e-14
5.23182e-14
5.51581e-14
4.93979e-14
3.48013e-14
2.04134e-14
1.38707e-14
8.03952e-15
-2.23182e-16
-3.78922e-16
6.71037e-13
6.708e-13
6.68708e-13
6.66327e-13
6.7424e-13
6.68269e-13
6.58131e-13
6.55264e-13
6.44068e-13
6.47129e-13
6.52825e-13
6.46169e-13
6.47231e-13
6.46499e-13
6.45924e-13
6.42087e-13
6.39191e-13
6.30405e-13
6.17055e-13
5.96501e-13
5.91773e-13
5.86711e-13
5.83915e-13
5.84735e-13
5.88944e-13
5.84482e-13
5.79478e-13
5.76883e-13
5.72677e-13
5.64998e-13
5.66382e-13
5.52471e-13
5.43774e-13
5.18266e-13
5.06223e-13
5.19346e-13
5.2524e-13
5.1556e-13
5.0858e-13
5.07006e-13
4.92144e-13
4.78123e-13
4.76888e-13
4.77758e-13
4.7207e-13
4.66882e-13
4.60334e-13
4.59378e-13
4.50377e-13
4.49102e-13
4.40609e-13
4.31706e-13
4.23068e-13
4.08e-13
4.00826e-13
3.91209e-13
3.80361e-13
3.72455e-13
3.71036e-13
3.67058e-13
3.6583e-13
3.53797e-13
3.38723e-13
3.26753e-13
3.13809e-13
3.06372e-13
2.96876e-13
2.82397e-13
2.78575e-13
2.71064e-13
2.64237e-13
2.57543e-13
2.49667e-13
2.30219e-13
2.12475e-13
2.0104e-13
1.94439e-13
1.7893e-13
1.72369e-13
1.70594e-13
1.6568e-13
1.52394e-13
1.39698e-13
1.2464e-13
1.06062e-13
9.82965e-14
9.98436e-14
8.51761e-14
7.41465e-14
6.99585e-14
5.86208e-14
5.2067e-14
5.28168e-14
4.23128e-14
2.86701e-14
2.46006e-14
1.8091e-14
9.80456e-15
-1.90117e-16
-8.49208e-16
6.68784e-13
6.71851e-13
6.70976e-13
6.67959e-13
6.68593e-13
6.66215e-13
6.62554e-13
6.59764e-13
6.54653e-13
6.51798e-13
6.51512e-13
6.46828e-13
6.49108e-13
6.4763e-13
6.45049e-13
6.36219e-13
6.38996e-13
6.34174e-13
6.19801e-13
6.07501e-13
5.93802e-13
5.86863e-13
5.88909e-13
5.86216e-13
5.83674e-13
5.76103e-13
5.8521e-13
5.7658e-13
5.68856e-13
5.61342e-13
5.5591e-13
5.53501e-13
5.39108e-13
5.26793e-13
5.09829e-13
5.21382e-13
5.27181e-13
5.15162e-13
5.02577e-13
4.94978e-13
4.89585e-13
4.79546e-13
4.78296e-13
4.76107e-13
4.67339e-13
4.6476e-13
4.66088e-13
4.63801e-13
4.50817e-13
4.4555e-13
4.37669e-13
4.26371e-13
4.24172e-13
4.08439e-13
4.02076e-13
3.95165e-13
3.84916e-13
3.75583e-13
3.68862e-13
3.64232e-13
3.67029e-13
3.55354e-13
3.39365e-13
3.24067e-13
3.12595e-13
3.05733e-13
2.90943e-13
2.83181e-13
2.82238e-13
2.66389e-13
2.57602e-13
2.57791e-13
2.5362e-13
2.29636e-13
2.1301e-13
2.01434e-13
1.95919e-13
1.8327e-13
1.70681e-13
1.59213e-13
1.67427e-13
1.61851e-13
1.36784e-13
1.21054e-13
1.07646e-13
1.05574e-13
1.00499e-13
8.60375e-14
7.89182e-14
7.23684e-14
5.93841e-14
5.32402e-14
5.44159e-14
4.6583e-14
3.33707e-14
2.33792e-14
9.69484e-15
6.1732e-15
-1.92366e-15
1.27351e-15
6.7648e-13
6.73246e-13
6.70785e-13
6.6947e-13
6.66701e-13
6.65837e-13
6.62865e-13
6.56559e-13
6.50098e-13
6.55612e-13
6.51607e-13
6.45066e-13
6.49308e-13
6.48378e-13
6.43855e-13
6.39304e-13
6.31116e-13
6.30287e-13
6.23438e-13
6.13439e-13
5.93771e-13
5.91859e-13
5.8812e-13
5.86408e-13
5.84378e-13
5.78553e-13
5.84827e-13
5.76055e-13
5.63854e-13
5.61715e-13
5.59001e-13
5.51113e-13
5.37125e-13
5.25489e-13
5.19188e-13
5.17267e-13
5.20319e-13
5.08991e-13
4.99263e-13
4.95015e-13
4.92119e-13
4.82747e-13
4.77676e-13
4.74818e-13
4.67967e-13
4.67647e-13
4.5997e-13
4.55542e-13
4.53403e-13
4.49974e-13
4.43326e-13
4.29762e-13
4.22004e-13
4.05499e-13
3.96943e-13
3.86973e-13
3.82548e-13
3.79196e-13
3.70869e-13
3.64392e-13
3.63922e-13
3.56197e-13
3.44056e-13
3.28733e-13
3.15026e-13
3.03581e-13
2.90151e-13
2.81975e-13
2.78048e-13
2.6378e-13
2.56329e-13
2.5772e-13
2.49091e-13
2.33432e-13
2.15968e-13
2.03603e-13
1.94578e-13
1.82446e-13
1.74704e-13
1.68563e-13
1.68429e-13
1.55321e-13
1.41387e-13
1.24838e-13
1.16827e-13
1.02729e-13
9.40235e-14
8.65733e-14
8.29339e-14
6.84748e-14
6.0276e-14
5.73005e-14
5.77666e-14
4.85963e-14
3.00952e-14
2.82353e-14
1.28493e-14
3.15892e-15
2.01494e-15
2.64076e-15
6.78191e-13
6.73549e-13
6.66668e-13
6.70916e-13
6.65235e-13
6.65474e-13
6.60923e-13
6.58777e-13
6.5859e-13
6.55284e-13
6.50982e-13
6.47e-13
6.5258e-13
6.50607e-13
6.39478e-13
6.4161e-13
6.40697e-13
6.35897e-13
6.21174e-13
6.08907e-13
5.96764e-13
5.89632e-13
5.87479e-13
5.8446e-13
5.79513e-13
5.82578e-13
5.83598e-13
5.75841e-13
5.65604e-13
5.60539e-13
5.5731e-13
5.50402e-13
5.37423e-13
5.26607e-13
5.19033e-13
5.2019e-13
5.13893e-13
5.03705e-13
4.96117e-13
4.969e-13
4.93845e-13
4.8567e-13
4.79525e-13
4.75429e-13
4.68313e-13
4.63284e-13
4.58755e-13
4.56005e-13
4.51794e-13
4.49536e-13
4.38355e-13
4.28016e-13
4.17175e-13
4.08475e-13
3.97411e-13
3.93892e-13
3.84946e-13
3.80873e-13
3.7496e-13
3.65053e-13
3.67735e-13
3.59098e-13
3.37478e-13
3.23949e-13
3.12623e-13
3.02135e-13
2.93776e-13
2.84933e-13
2.75127e-13
2.65656e-13
2.59035e-13
2.5462e-13
2.4732e-13
2.29878e-13
2.14509e-13
1.99469e-13
1.99942e-13
1.88563e-13
1.77054e-13
1.66397e-13
1.62934e-13
1.52228e-13
1.44405e-13
1.27417e-13
1.12311e-13
1.01354e-13
9.56772e-14
9.32233e-14
8.54758e-14
7.86325e-14
6.72249e-14
5.58191e-14
5.52387e-14
4.50275e-14
3.2544e-14
2.40395e-14
1.07338e-14
1.01037e-14
1.08221e-14
3.33418e-15
6.78552e-13
6.72502e-13
6.71968e-13
6.73182e-13
6.69064e-13
6.68332e-13
6.64866e-13
6.6063e-13
6.62668e-13
6.58604e-13
6.5442e-13
6.48427e-13
6.52843e-13
6.42286e-13
6.41002e-13
6.44257e-13
6.33285e-13
6.33407e-13
6.26703e-13
6.14899e-13
6.07276e-13
5.8684e-13
5.84686e-13
5.86123e-13
5.87115e-13
5.81997e-13
5.78054e-13
5.69666e-13
5.5478e-13
5.57998e-13
5.58981e-13
5.529e-13
5.41288e-13
5.33213e-13
5.19265e-13
5.14556e-13
5.11067e-13
5.00658e-13
4.93006e-13
4.96021e-13
4.9038e-13
4.84974e-13
4.83103e-13
4.75917e-13
4.68278e-13
4.62708e-13
4.59292e-13
4.55295e-13
4.48071e-13
4.38703e-13
4.41123e-13
4.31886e-13
4.17497e-13
4.06234e-13
3.9772e-13
3.89156e-13
3.84043e-13
3.81039e-13
3.76244e-13
3.73867e-13
3.76071e-13
3.53682e-13
3.42183e-13
3.26479e-13
3.14063e-13
3.01413e-13
2.93424e-13
2.8583e-13
2.75515e-13
2.609e-13
2.5361e-13
2.54427e-13
2.50115e-13
2.37912e-13
2.10867e-13
1.92652e-13
2.01893e-13
1.89359e-13
1.7919e-13
1.70152e-13
1.6533e-13
1.53943e-13
1.45494e-13
1.25533e-13
1.11245e-13
1.0468e-13
9.85887e-14
9.51019e-14
8.59643e-14
7.51717e-14
6.84151e-14
6.20107e-14
5.71018e-14
4.24154e-14
3.35159e-14
2.73146e-14
1.53906e-14
8.41004e-15
2.71377e-15
-3.04003e-16
6.78329e-13
6.78416e-13
6.75504e-13
6.74358e-13
6.69324e-13
6.68893e-13
6.68505e-13
6.63415e-13
6.61268e-13
6.58779e-13
6.56329e-13
6.56429e-13
6.51789e-13
6.47013e-13
6.41182e-13
6.4281e-13
6.41036e-13
6.41576e-13
6.30119e-13
6.11796e-13
5.9641e-13
5.84563e-13
5.82697e-13
5.85738e-13
5.8224e-13
5.80795e-13
5.73288e-13
5.73108e-13
5.64065e-13
5.60867e-13
5.58083e-13
5.50424e-13
5.35727e-13
5.32549e-13
5.24727e-13
5.1338e-13
5.09177e-13
4.98448e-13
4.94471e-13
4.92672e-13
4.87356e-13
4.82313e-13
4.78418e-13
4.73975e-13
4.70688e-13
4.63138e-13
4.61205e-13
4.47138e-13
4.46197e-13
4.41313e-13
4.34907e-13
4.29251e-13
4.20453e-13
4.15108e-13
4.00945e-13
3.86696e-13
3.76924e-13
3.81747e-13
3.9113e-13
3.76292e-13
3.72033e-13
3.55249e-13
3.39288e-13
3.2509e-13
3.08581e-13
3.00412e-13
2.92848e-13
2.87237e-13
2.82179e-13
2.6748e-13
2.57243e-13
2.52929e-13
2.38373e-13
2.29524e-13
2.12888e-13
2.01039e-13
1.99658e-13
1.8891e-13
1.82069e-13
1.79435e-13
1.62158e-13
1.50126e-13
1.40989e-13
1.26512e-13
1.12269e-13
1.09056e-13
9.37789e-14
9.42752e-14
8.52254e-14
7.59779e-14
7.52583e-14
6.5285e-14
5.69683e-14
4.00952e-14
3.55702e-14
2.59435e-14
2.05107e-14
1.01923e-14
2.8199e-15
-2.04095e-15
6.81929e-13
6.74209e-13
6.72299e-13
6.68612e-13
6.69628e-13
6.72955e-13
6.78054e-13
6.7566e-13
6.61734e-13
6.57195e-13
6.54304e-13
6.49297e-13
6.48731e-13
6.4914e-13
6.4573e-13
6.45708e-13
6.43159e-13
6.32973e-13
6.24148e-13
6.09571e-13
6.00962e-13
5.85502e-13
5.8542e-13
5.82836e-13
5.84681e-13
5.80657e-13
5.73485e-13
5.72376e-13
5.60376e-13
5.64483e-13
5.5391e-13
5.47244e-13
5.3628e-13
5.37019e-13
5.28087e-13
5.12626e-13
5.07139e-13
4.93001e-13
4.86116e-13
4.90028e-13
4.87078e-13
4.87982e-13
4.7991e-13
4.71127e-13
4.69576e-13
4.62302e-13
4.5645e-13
4.525e-13
4.45735e-13
4.36745e-13
4.33266e-13
4.28055e-13
4.23386e-13
4.09787e-13
3.99231e-13
3.94068e-13
3.85782e-13
3.88644e-13
3.86395e-13
3.71742e-13
3.70121e-13
3.60536e-13
3.42917e-13
3.25606e-13
3.08088e-13
3.04409e-13
2.96035e-13
2.87424e-13
2.77473e-13
2.67973e-13
2.59485e-13
2.46085e-13
2.36535e-13
2.18955e-13
2.12615e-13
2.09691e-13
1.96385e-13
1.90868e-13
1.8224e-13
1.78127e-13
1.62047e-13
1.48739e-13
1.40085e-13
1.30517e-13
1.16151e-13
1.09219e-13
1.03607e-13
8.98009e-14
8.12821e-14
8.28842e-14
7.3334e-14
6.37882e-14
5.64517e-14
3.87231e-14
3.96758e-14
2.50203e-14
2.02636e-14
1.08403e-14
-5.37478e-16
-4.75603e-15
6.78111e-13
6.75942e-13
6.73404e-13
6.73101e-13
6.75662e-13
6.76492e-13
6.7079e-13
6.66626e-13
6.6739e-13
6.65053e-13
6.58244e-13
6.48492e-13
6.44207e-13
6.50717e-13
6.44687e-13
6.44886e-13
6.42732e-13
6.34259e-13
6.25188e-13
6.13372e-13
6.01198e-13
5.89215e-13
5.80504e-13
5.81082e-13
5.80816e-13
5.82495e-13
5.78209e-13
5.71685e-13
5.62285e-13
5.62969e-13
5.54936e-13
5.45389e-13
5.38655e-13
5.38243e-13
5.29949e-13
5.12335e-13
4.99659e-13
4.95076e-13
4.92443e-13
4.8682e-13
4.82989e-13
4.82127e-13
4.77464e-13
4.71099e-13
4.71297e-13
4.64563e-13
4.56592e-13
4.48915e-13
4.4434e-13
4.37235e-13
4.29691e-13