/*--------------------------------*- C++ -*----------------------------------*\
| =========                 |                                                 |
| \\      /  F ield         | OpenFOAM: The Open Source CFD Toolbox           |
|  \\    /   O peration     | Version:  v2012                                 |
|   \\  /    A nd           | Website:  www.openfoam.com                      |
|    \\/     M anipulation  |                                                 |
\*---------------------------------------------------------------------------*/
FoamFile
{
    version     2.0;
    format      ascii;
    class       volVectorField;
    location    "0";
    object      uRec;
}
// * * * * * * * * * * * * * * * * * * * * * * * * * * * * * * * * * * * * * //

dimensions      [0 1 -1 0 0 0 0];


internalField   nonuniform List<vector> 
4000
(
(1 1.749e-15 0)
(1 1.52033e-15 0)
(1 -1.89599e-15 0)
(1 2.8026e-16 0)
(1 3.36166e-16 0)
(1 -8.12614e-16 0)
(1 3.37333e-15 0)
(1 -2.39619e-15 0)
(1 4.97888e-15 0)
(1 3.15199e-16 0)
(1 -5.01894e-15 0)
(1 1.43067e-16 0)
(1 1.3826e-15 0)
(1 9.09741e-16 0)
(1 -1.71671e-15 0)
(1 7.21975e-16 0)
(1 -1.89911e-15 0)
(1 -1.28588e-15 0)
(1 2.39571e-15 0)
(1 2.4037e-15 0)
(1 -2.66563e-16 0)
(1 3.40393e-15 0)
(1 -1.53508e-15 0)
(1 2.90924e-15 0)
(1 -8.55009e-16 0)
(1 -9.54965e-16 0)
(1 1.62047e-15 0)
(1 -3.03196e-15 0)
(1 -2.4817e-16 0)
(1 -1.67015e-15 0)
(1 1.59617e-15 0)
(1 2.49778e-15 0)
(1 -1.82046e-15 0)
(1 -2.14674e-15 0)
(1 -3.57035e-16 0)
(1 -2.26701e-15 0)
(1 -1.56238e-15 0)
(1 1.77568e-15 0)
(1 2.84739e-15 0)
(1 -1.21403e-15 0)
(1 1.3117e-15 0)
(1 -3.30651e-15 0)
(1 -1.03282e-15 0)
(1 1.88861e-15 0)
(1 2.27913e-15 0)
(1 -2.2559e-15 0)
(1 1.15667e-15 0)
(1 -7.42066e-16 0)
(1 3.50107e-16 0)
(1 -3.99066e-16 0)
(1 -1.12827e-15 0)
(1 8.93871e-16 0)
(1 3.27089e-16 0)
(1 4.27299e-15 0)
(1 1.97271e-15 0)
(1 2.44362e-15 0)
(1 5.53317e-16 0)
(1 -3.03781e-16 0)
(1 3.66851e-16 0)
(1 1.08195e-15 0)
(1 -1.90554e-15 0)
(1 -2.76032e-15 0)
(1 -1.32704e-15 0)
(1 1.40179e-15 0)
(1 1.16539e-15 0)
(1 4.98508e-16 0)
(1 -3.05275e-16 0)
(1 -1.13622e-15 0)
(1 7.55032e-16 0)
(1 -1.63216e-15 0)
(1 -5.92005e-16 0)
(1 5.24472e-16 0)
(1 -7.70262e-16 0)
(1 -1.06779e-15 0)
(1 -2.02834e-15 0)
(1 -2.41415e-15 0)
(1 -5.54284e-16 0)
(1 -1.39128e-16 0)
(1 2.2746e-16 0)
(1 1.27035e-15 0)
(1 1.0452e-15 0)
(1 2.06838e-15 0)
(1 -1.76881e-15 0)
(1 -1.22666e-16 0)
(1 -2.16982e-15 0)
(1 -2.15785e-15 0)
(1 7.27876e-16 0)
(1 1.01773e-15 0)
(1 1.07943e-15 0)
(1 8.45433e-16 0)
(1 -3.21993e-17 0)
(1 -7.86823e-16 0)
(1 1.7241e-15 0)
(1 2.30928e-15 0)
(1 -7.20628e-16 0)
(1 -1.70045e-15 0)
(1 4.42044e-16 0)
(1 9.7435e-16 0)
(1 -4.69288e-16 0)
(1 -3.11638e-16 0)
(1 9.73784e-16 0)
(1 4.31664e-15 0)
(1 -2.28696e-15 0)
(1 -9.60665e-16 0)
(1 -2.50807e-15 0)
(1 7.33579e-16 0)
(1 3.10483e-15 0)
(1 -1.64612e-15 0)
(1 4.84955e-15 0)
(1 1.86789e-15 0)
(1 -2.03334e-15 0)
(1 -1.82023e-15 0)
(1 -2.83237e-16 0)
(1 -2.00026e-15 0)
(1 -2.99997e-15 0)
(1 3.54548e-15 0)
(1 -5.11259e-16 0)
(1 -1.56888e-16 0)
(1 2.43279e-15 0)
(1 1.96983e-15 0)
(1 -1.02005e-15 0)
(1 1.25049e-15 0)
(1 -2.05506e-15 0)
(1 1.78609e-15 0)
(1 -8.6258e-16 0)
(1 -4.80848e-17 0)
(1 4.39958e-15 0)
(1 -5.05859e-15 0)
(1 -4.25653e-16 0)
(1 -7.98151e-17 0)
(1 -4.24836e-16 0)
(1 2.46043e-15 0)
(1 -3.762e-15 0)
(1 -2.55269e-15 0)
(1 1.12517e-15 0)
(1 -2.1609e-15 0)
(1 6.96616e-16 0)
(1 4.21199e-15 0)
(1 2.30369e-16 0)
(1 -3.04692e-15 0)
(1 -3.0698e-15 0)
(1 -3.98461e-15 0)
(1 -2.00817e-15 0)
(1 8.86045e-16 0)
(1 1.4298e-15 0)
(1 -2.00314e-15 0)
(1 3.74872e-15 0)
(1 3.07845e-15 0)
(1 3.92031e-15 0)
(1 8.62756e-16 0)
(1 2.13772e-16 0)
(1 -1.37949e-15 0)
(1 1.56877e-15 0)
(1 1.18945e-15 0)
(1 1.62709e-15 0)
(1 6.67292e-18 0)
(1 1.95882e-15 0)
(1 2.30945e-15 0)
(1 1.69628e-15 0)
(1 -2.52232e-15 0)
(1 -1.48852e-16 0)
(1 8.99246e-17 0)
(1 -1.30662e-15 0)
(1 9.06564e-16 0)
(1 -4.38645e-16 0)
(1 1.72667e-15 0)
(1 -3.18154e-15 0)
(1 -2.64711e-15 0)
(1 1.37652e-15 0)
(1 -1.24348e-15 0)
(1 -1.47851e-15 0)
(1 2.84176e-16 0)
(1 1.77744e-15 0)
(1 -7.25286e-16 0)
(1 1.58536e-16 0)
(1 -1.10543e-15 0)
(1 7.57167e-16 0)
(1 1.64634e-15 0)
(1 -4.55833e-16 0)
(1 2.43697e-15 0)
(1 1.79163e-15 0)
(1 1.05957e-15 0)
(1 5.39416e-16 0)
(1 -1.93271e-15 0)
(1 -1.42015e-15 0)
(1 -3.24249e-15 0)
(1 -9.304e-16 0)
(1 1.71659e-16 0)
(1 1.08166e-15 0)
(1 2.05041e-15 0)
(1 2.27296e-16 0)
(1 -1.69656e-15 0)
(1 3.25531e-15 0)
(1 2.59915e-15 0)
(1 -3.48796e-15 0)
(1 -2.03045e-15 0)
(1 1.24304e-15 0)
(1 -1.01493e-15 0)
(1 -1.76292e-15 0)
(1 -1.31722e-15 0)
(1 -1.7476e-15 0)
(1 4.88611e-15 0)
(1 -1.91872e-15 0)
(1 -1.58239e-16 0)
(1 -1.18764e-15 0)
(1 1.41814e-15 0)
(1 3.32113e-15 0)
(1 6.87248e-15 0)
(1 -2.38274e-15 0)
(1 -2.07471e-15 0)
(1 4.37806e-16 0)
(1 1.6572e-15 0)
(1 1.76993e-15 0)
(1 -1.87456e-15 0)
(1 -9.07215e-16 0)
(1 1.51063e-15 0)
(1 2.49619e-15 0)
(1 3.51154e-15 0)
(1 -1.08862e-15 0)
(1 5.80525e-17 0)
(1 -1.36872e-15 0)
(1 -5.12476e-15 0)
(1 -1.47433e-15 0)
(1 -6.83339e-16 0)
(1 5.51864e-15 0)
(1 3.96786e-15 0)
(1 4.32618e-15 0)
(1 -3.75106e-15 0)
(1 -6.27842e-16 0)
(1 1.07443e-15 0)
(1 -5.4577e-16 0)
(1 -3.33468e-15 0)
(1 -1.34026e-15 0)
(1 -1.21186e-15 0)
(1 -2.28843e-15 0)
(1 -1.01657e-15 0)
(1 -2.30889e-15 0)
(1 3.12145e-15 0)
(1 3.26533e-15 0)
(1 -4.33516e-15 0)
(1 -2.54203e-15 0)
(1 -2.27557e-15 0)
(1 -9.75577e-16 0)
(1 -2.04294e-15 0)
(1 9.18736e-17 0)
(1 -1.40035e-15 0)
(1 7.05099e-16 0)
(1 5.35141e-15 0)
(1 5.62807e-15 0)
(1 2.23647e-15 0)
(1 4.1928e-15 0)
(1 -2.82758e-16 0)
(1 2.31183e-15 0)
(1 -3.40128e-15 0)
(1 1.15743e-15 0)
(1 -5.56748e-16 0)
(1 3.0936e-15 0)
(1 3.67504e-15 0)
(1 5.74702e-15 0)
(1 2.58144e-16 0)
(1 -1.12329e-15 0)
(1 1.10495e-15 0)
(1 2.70316e-16 0)
(1 -3.02446e-15 0)
(1 -2.06755e-15 0)
(1 -7.0225e-16 0)
(1 -1.95432e-15 0)
(1 -4.02507e-16 0)
(1 2.66364e-15 0)
(1 5.30467e-16 0)
(1 7.1103e-16 0)
(1 -8.90899e-16 0)
(1 -1.08533e-15 0)
(1 -3.36011e-15 0)
(1 9.10652e-17 0)
(1 -1.23253e-15 0)
(1 2.98149e-16 0)
(1 4.80737e-16 0)
(1 3.79862e-16 0)
(1 -6.9743e-16 0)
(1 -2.04305e-15 0)
(1 6.08329e-16 0)
(1 1.83009e-15 0)
(1 -1.58094e-15 0)
(1 -1.46632e-15 0)
(1 -1.19601e-15 0)
(1 -2.77295e-15 0)
(1 -4.01792e-16 0)
(1 -3.26851e-16 0)
(1 2.50837e-15 0)
(1 8.58609e-16 0)
(1 3.40327e-16 0)
(1 -9.86683e-16 0)
(1 1.52248e-15 0)
(1 -2.11974e-15 0)
(1 4.58364e-16 0)
(1 1.7812e-15 0)
(1 -3.6759e-15 0)
(1 -6.82228e-16 0)
(1 -9.51267e-16 0)
(1 -6.05788e-16 0)
(1 2.48034e-15 0)
(1 1.14659e-17 0)
(1 -2.89678e-15 0)
(1 2.50232e-15 0)
(1 -4.93172e-16 0)
(1 4.11486e-15 0)
(1 5.36226e-15 0)
(1 -2.22165e-16 0)
(1 -1.93876e-15 0)
(1 -3.09395e-15 0)
(1 3.70057e-15 0)
(1 -2.00192e-15 0)
(1 1.78914e-15 0)
(1 5.59662e-15 0)
(1 -1.94278e-15 0)
(1 2.51629e-15 0)
(1 -7.89559e-17 0)
(1 -3.22071e-15 0)
(1 4.63973e-15 0)
(1 -2.05781e-15 0)
(1 -5.90964e-16 0)
(1 -1.87833e-15 0)
(1 -2.0662e-16 0)
(1 7.4423e-15 0)
(1 3.89953e-15 0)
(1 3.74296e-15 0)
(1 -1.39587e-15 0)
(1 5.77952e-16 0)
(1 1.27927e-15 0)
(1 -2.88889e-16 0)
(1 -1.68745e-15 0)
(1 -1.04777e-15 0)
(1 -7.99598e-16 0)
(1 -3.32922e-15 0)
(1 -4.08485e-15 0)
(1 -4.2883e-15 0)
(1 -2.83213e-15 0)
(1 3.60259e-15 0)
(1 -1.21823e-15 0)
(1 1.99303e-15 0)
(1 -2.22607e-15 0)
(1 -3.11433e-15 0)
(1 -8.30494e-16 0)
(1 1.03508e-15 0)
(1 1.3318e-15 0)
(1 -3.39046e-16 0)
(1 3.27749e-15 0)
(1 3.45787e-15 0)
(1 3.42169e-15 0)
(1 4.48836e-15 0)
(1 1.77131e-15 0)
(1 1.13357e-15 0)
(1 8.86472e-16 0)
(1 2.96039e-15 0)
(1 1.76796e-15 0)
(1 4.01888e-15 0)
(1 5.37915e-15 0)
(1 4.48939e-15 0)
(1 5.01063e-15 0)
(1 1.59381e-15 0)
(1 -4.00974e-15 0)
(1 -2.54088e-15 0)
(1 -1.61193e-15 0)
(1 -2.12258e-15 0)
(1 -6.75632e-16 0)
(1 -7.93944e-16 0)
(1 2.85223e-15 0)
(1 -4.42354e-16 0)
(1 -1.09866e-15 0)
(1 3.15394e-16 0)
(1 -2.26545e-15 0)
(1 -2.92243e-15 0)
(1 -3.30031e-15 0)
(1 -3.11038e-15 0)
(1 4.59392e-16 0)
(1 3.39531e-15 0)
(1 -5.92315e-16 0)
(1 3.06045e-15 0)
(1 1.79134e-17 0)
(1 -4.6585e-15 0)
(1 1.90533e-15 0)
(1 -1.22084e-15 0)
(1 -2.44006e-16 0)
(1 -8.07335e-16 0)
(1 -3.06522e-15 0)
(1 4.27159e-16 0)
(1 -1.27159e-15 0)
(1 2.98487e-16 0)
(1 1.42897e-15 0)
(1 -1.4337e-15 0)
(1 1.80432e-15 0)
(1 -3.6337e-16 0)
(1 1.64803e-15 0)
(1 1.1667e-15 0)
(1 1.01178e-16 0)
(1 1.89806e-16 0)
(1 7.58037e-16 0)
(1 -3.09778e-15 0)
(1 -2.62649e-15 0)
(1 1.47842e-15 0)
(1 -1.37631e-15 0)
(1 3.31591e-15 0)
(1 -2.18755e-15 0)
(1 1.10432e-15 0)
(1 1.92307e-15 0)
(1 5.11209e-16 0)
(1 1.3718e-17 0)
(1 5.19337e-15 0)
(1 2.61158e-15 0)
(1 1.62617e-15 0)
(1 3.89708e-15 0)
(1 -2.02777e-15 0)
(1 -1.70079e-15 0)
(1 2.16936e-15 0)
(1 8.085e-16 0)
(1 4.64414e-15 0)
(1 1.86421e-15 0)
(1 -1.09223e-15 0)
(1 -2.18672e-15 0)
(1 -1.5011e-15 0)
(1 2.88875e-15 0)
(1 4.76663e-16 0)
(1 2.53136e-15 0)
(1 -2.70841e-15 0)
(1 -2.11169e-15 0)
(1 -1.74761e-15 0)
(1 1.51742e-15 0)
(1 2.84408e-16 0)
(1 -1.23944e-15 0)
(1 -9.72079e-16 0)
(1 1.92892e-15 0)
(1 -4.20441e-15 0)
(1 3.16015e-15 0)
(1 -3.64349e-15 0)
(1 -5.89756e-15 0)
(1 -1.47374e-15 0)
(1 -3.93933e-15 0)
(1 -1.68516e-16 0)
(1 2.5638e-15 0)
(1 1.45853e-15 0)
(1 -1.76382e-15 0)
(1 -4.93449e-15 0)
(1 -1.77421e-15 0)
(1 -2.53789e-15 0)
(1 4.31904e-15 0)
(1 3.90072e-15 0)
(1 5.97872e-15 0)
(1 2.79852e-15 0)
(1 2.68578e-15 0)
(1 6.89776e-16 0)
(1 1.48902e-17 0)
(1 -7.21725e-16 0)
(1 2.68808e-15 0)
(1 2.73941e-15 0)
(1 1.784e-15 0)
(1 1.90501e-15 0)
(1 2.0273e-15 0)
(1 -6.23891e-16 0)
(1 8.4022e-16 0)
(1 5.28992e-15 0)
(1 -5.97872e-16 0)
(1 3.638e-16 0)
(1 1.88776e-16 0)
(1 6.25379e-16 0)
(1 2.04882e-15 0)
(1 1.94416e-15 0)
(1 3.26373e-15 0)
(1 -3.27873e-15 0)
(1 1.30955e-15 0)
(1 -3.3711e-15 0)
(1 -2.20834e-15 0)
(1 2.26205e-15 0)
(1 -4.61363e-16 0)
(1 -1.29437e-15 0)
(1 -1.85833e-16 0)
(1 2.62362e-15 0)
(1 6.02061e-16 0)
(1 1.31488e-15 0)
(1 -1.7951e-15 0)
(1 -2.33921e-15 0)
(1 -2.63979e-15 0)
(1 -2.21343e-15 0)
(1 -2.25119e-15 0)
(1 1.1585e-15 0)
(1 -1.77252e-15 0)
(1 8.09454e-16 0)
(1 -1.11973e-15 0)
(1 -1.06366e-15 0)
(1 -5.89074e-16 0)
(1 -8.76811e-16 0)
(1 -2.35978e-16 0)
(1 2.82516e-15 0)
(1 8.00507e-16 0)
(1 3.49059e-15 0)
(1 8.68649e-16 0)
(1 -7.04585e-16 0)
(1 1.44433e-15 0)
(1 -3.0725e-15 0)
(1 -7.93701e-16 0)
(1 5.06782e-16 0)
(1 -3.49937e-15 0)
(1 3.72158e-15 0)
(1 2.8483e-15 0)
(1 5.4272e-17 0)
(1 9.72876e-16 0)
(1 -6.48084e-16 0)
(1 3.62322e-15 0)
(1 2.74117e-15 0)
(1 3.06272e-15 0)
(1 4.93283e-15 0)
(1 2.61879e-15 0)
(1 6.69654e-17 0)
(1 -6.68978e-16 0)
(1 1.76342e-16 0)
(1 1.98319e-15 0)
(1 -7.5042e-16 0)
(1 9.58199e-16 0)
(1 -2.0813e-15 0)
(1 -5.80987e-15 0)
(1 -8.57347e-16 0)
(1 -1.37901e-15 0)
(1 7.30267e-15 0)
(1 4.73813e-15 0)
(1 2.51148e-16 0)
(1 2.27647e-15 0)
(1 8.71229e-17 0)
(1 1.62462e-15 0)
(1 -4.32141e-15 0)
(1 -1.88151e-15 0)
(1 -4.03271e-15 0)
(1 -2.26794e-16 0)
(1 -3.29567e-15 0)
(1 1.09386e-15 0)
(1 -4.41665e-15 0)
(1 -1.43213e-15 0)
(1 4.1168e-16 0)
(1 1.0991e-15 0)
(1 -1.20673e-15 0)
(1 1.20916e-15 0)
(1 5.70082e-16 0)
(1 1.03853e-15 0)
(1 -3.36794e-15 0)
(1 -4.46338e-15 0)
(1 -5.59861e-16 0)
(1 1.83241e-15 0)
(1 1.56591e-15 0)
(1 5.31754e-15 0)
(1 6.43052e-15 0)
(1 3.57004e-15 0)
(1 -5.40988e-16 0)
(1 1.45439e-15 0)
(1 3.55134e-15 0)
(1 3.45393e-15 0)
(1 3.93668e-16 0)
(1 1.91091e-15 0)
(1 2.9986e-15 0)
(1 2.911e-15 0)
(1 3.3028e-15 0)
(1 6.42711e-15 0)
(1 1.8646e-15 0)
(1 -5.6519e-16 0)
(1 -1.22772e-15 0)
(1 -9.5444e-16 0)
(1 2.22006e-15 0)
(1 2.62182e-15 0)
(1 5.48941e-15 0)
(1 1.64481e-15 0)
(1 1.04143e-15 0)
(1 -8.58027e-16 0)
(1 3.01468e-16 0)
(1 -2.60805e-16 0)
(1 2.6613e-15 0)
(1 -1.27362e-15 0)
(1 -1.16968e-15 0)
(1 -1.22102e-15 0)
(1 4.34105e-16 0)
(1 2.7272e-15 0)
(1 -2.95603e-15 0)
(1 -3.60147e-15 0)
(1 -1.62462e-15 0)
(1 -5.14993e-16 0)
(1 -1.86167e-15 0)
(1 -2.49316e-16 0)
(1 -1.35005e-15 0)
(1 -1.88155e-15 0)
(1 -3.14379e-15 0)
(1 -5.01792e-15 0)
(1 -3.58461e-15 0)
(1 -1.32857e-15 0)
(1 2.11278e-16 0)
(1 4.79635e-16 0)
(1 2.43644e-15 0)
(1 3.59268e-15 0)
(1 4.89457e-15 0)
(1 4.00717e-15 0)
(1 9.95453e-16 0)
(1 -2.82074e-15 0)
(1 2.15897e-15 0)
(1 3.27231e-15 0)
(1 -3.84313e-16 0)
(1 -1.36228e-16 0)
(1 3.7389e-15 0)
(1 5.11508e-16 0)
(1 2.05475e-15 0)
(1 -2.29942e-15 0)
(1 2.80528e-17 0)
(1 8.09026e-15 0)
(1 9.53081e-16 0)
(1 4.55607e-15 0)
(1 3.10248e-15 0)
(1 -6.58517e-16 0)
(1 -1.33606e-15 0)
(1 2.71531e-15 0)
(1 1.23331e-15 0)
(1 4.74479e-15 0)
(1 1.29274e-15 0)
(1 -2.74828e-15 0)
(1 -1.94085e-15 0)
(1 7.03702e-16 0)
(1 4.13157e-16 0)
(1 -7.42274e-15 0)
(1 4.74027e-15 0)
(1 -4.64073e-15 0)
(1 4.12058e-15 0)
(1 8.10403e-16 0)
(1 5.35171e-16 0)
(1 -8.46111e-17 0)
(1 1.19615e-17 0)
(1 1.41655e-15 0)
(1 -3.00995e-16 0)
(1 -1.08129e-15 0)
(1 6.45687e-16 0)
(1 -4.43521e-15 0)
(1 -2.26098e-15 0)
(1 2.19164e-15 0)
(1 -9.61742e-16 0)
(1 5.4027e-16 0)
(1 -5.35981e-15 0)
(1 1.55127e-15 0)
(1 -1.9136e-15 0)
(1 -2.018e-16 0)
(1 2.60181e-16 0)
(1 -1.32495e-15 0)
(1 8.9307e-17 0)
(1 2.4508e-15 0)
(1 4.22032e-15 0)
(1 1.17941e-15 0)
(1 2.16442e-15 0)
(1 1.70717e-15 0)
(1 6.21338e-16 0)
(1 1.52344e-15 0)
(1 4.0217e-15 0)
(1 3.65691e-15 0)
(1 7.47289e-16 0)
(1 1.04088e-15 0)
(1 2.61829e-15 0)
(1 4.27233e-15 0)
(1 4.35736e-15 0)
(1 4.96804e-15 0)
(1 -7.71769e-17 0)
(1 2.20224e-15 0)
(1 -2.00517e-16 0)
(1 6.71708e-16 0)
(1 -3.86596e-16 0)
(1 -9.64836e-16 0)
(1 -6.93265e-16 0)
(1 2.55524e-15 0)
(1 2.56323e-15 0)
(1 -1.19848e-15 0)
(1 4.76554e-15 0)
(1 2.52061e-15 0)
(1 -1.73784e-15 0)
(1 -1.98549e-15 0)
(1 -2.66603e-15 0)
(1 2.88733e-15 0)
(1 -7.64537e-16 0)
(1 2.95752e-15 0)
(1 -6.05397e-16 0)
(1 -1.41972e-15 0)
(1 -5.44043e-16 0)
(1 -7.02188e-16 0)
(1 1.06607e-16 0)
(1 -5.31517e-16 0)
(1 -1.49632e-15 0)
(1 5.12192e-16 0)
(1 -1.85379e-15 0)
(1 -8.34973e-16 0)
(1 -9.17887e-16 0)
(1 -1.19783e-15 0)
(1 -6.43296e-16 0)
(1 1.51179e-15 0)
(1 3.38598e-15 0)
(1 3.52978e-15 0)
(1 1.16817e-15 0)
(1 3.59442e-15 0)
(1 1.01528e-15 0)
(1 3.47045e-16 0)
(1 2.59009e-15 0)
(1 1.70282e-15 0)
(1 -1.19672e-15 0)
(1 1.29668e-15 0)
(1 -1.50601e-15 0)
(1 1.14221e-15 0)
(1 2.89888e-15 0)
(1 1.57322e-15 0)
(1 -4.77037e-16 0)
(1 3.31506e-15 0)
(1 6.60444e-15 0)
(1 7.81959e-15 0)
(1 4.30442e-15 0)
(1 -3.72334e-15 0)
(1 1.61541e-15 0)
(1 -3.73593e-16 0)
(1 1.4948e-15 0)
(1 4.62162e-15 0)
(1 3.54972e-15 0)
(1 4.78689e-15 0)
(1 1.40601e-15 0)
(1 -3.68252e-15 0)
(1 -9.92324e-16 0)
(1 -7.52574e-15 0)
(1 4.89806e-17 0)
(1 -2.12428e-15 0)
(1 -3.16147e-15 0)
(1 -7.90798e-15 0)
(1 -6.04956e-15 0)
(1 -1.94636e-15 0)
(1 2.91881e-15 0)
(1 5.40019e-15 0)
(1 8.67834e-15 0)
(1 -2.33396e-16 0)
(1 1.25623e-15 0)
(1 -5.33027e-15 0)
(1 -3.28989e-15 0)
(1 -1.48454e-15 0)
(1 -1.5183e-15 0)
(1 -1.97921e-15 0)
(1 3.82965e-16 0)
(1 4.11028e-15 0)
(1 -1.31654e-16 0)
(1 -2.18187e-15 0)
(1 7.46781e-16 0)
(1 -3.89357e-15 0)
(1 -3.02832e-15 0)
(1 4.18641e-15 0)
(1 6.36334e-15 0)
(1 4.33843e-15 0)
(1 -2.08889e-15 0)
(1 1.95729e-15 0)
(1 3.72797e-15 0)
(1 1.8939e-15 0)
(1 -1.7928e-15 0)
(1 4.34305e-15 0)
(1 6.52898e-15 0)
(1 8.09435e-15 0)
(1 1.78172e-15 0)
(1 1.40516e-15 0)
(1 2.74834e-15 0)
(1 -2.00499e-15 0)
(1 -2.94275e-15 0)
(1 4.73899e-15 0)
(1 6.61128e-15 0)
(1 6.0209e-15 0)
(1 1.60789e-15 0)
(1 1.49376e-15 0)
(1 1.64668e-15 0)
(1 -2.33558e-16 0)
(1 2.28964e-15 0)
(1 2.21315e-15 0)
(1 2.20771e-15 0)
(1 7.36217e-16 0)
(1 3.912e-18 0)
(1 -2.57242e-15 0)
(1 -7.82959e-16 0)
(1 3.3992e-15 0)
(1 -6.38304e-16 0)
(1 -1.58965e-15 0)
(1 -2.08795e-15 0)
(1 -2.80799e-15 0)
(1 2.53199e-16 0)
(1 -2.87831e-15 0)
(1 7.2641e-16 0)
(1 2.5333e-17 0)
(1 -3.90615e-15 0)
(1 -9.21066e-16 0)
(1 -8.38486e-16 0)
(1 1.19542e-15 0)
(1 1.16147e-15 0)
(1 -4.20342e-15 0)
(1 -1.45281e-15 0)
(1 1.09823e-15 0)
(1 2.80592e-15 0)
(1 3.05181e-15 0)
(1 2.57597e-15 0)
(1 3.21505e-15 0)
(1 -7.13904e-16 0)
(1 5.77658e-16 0)
(1 3.242e-15 0)
(1 3.41623e-15 0)
(1 -1.06084e-15 0)
(1 -6.43649e-16 0)
(1 -2.52799e-15 0)
(1 8.36271e-16 0)
(1 5.35291e-16 0)
(1 5.98294e-15 0)
(1 1.86385e-15 0)
(1 -2.20419e-15 0)
(1 6.49664e-15 0)
(1 1.69245e-15 0)
(1 2.00056e-15 0)
(1 -1.08541e-15 0)
(1 7.9464e-16 0)
(1 4.13888e-15 0)
(1 3.00477e-15 0)
(1 3.77575e-15 0)
(1 1.4563e-16 0)
(1 4.32249e-15 0)
(1 4.62103e-15 0)
(1 -3.49182e-15 0)
(1 -6.98266e-15 0)
(1 -2.3269e-15 0)
(1 -1.49397e-15 0)
(1 3.20837e-15 0)
(1 -2.45912e-15 0)
(1 -5.34591e-15 0)
(1 -1.56993e-15 0)
(1 -4.57585e-15 0)
(1 -2.90714e-16 0)
(1 3.71672e-15 0)
(1 3.4451e-15 0)
(1 -1.71935e-15 0)
(1 3.98232e-17 0)
(1 -2.10452e-15 0)
(1 -4.30442e-15 0)
(1 -1.54909e-15 0)
(1 3.4591e-16 0)
(1 2.08514e-15 0)
(1 1.30465e-15 0)
(1 -3.83441e-16 0)
(1 -2.59696e-15 0)
(1 -2.36407e-16 0)
(1 9.77504e-16 0)
(1 -8.75447e-16 0)
(1 4.72403e-15 0)
(1 -1.2898e-15 0)
(1 3.46114e-15 0)
(1 1.69453e-15 0)
(1 -1.81892e-15 0)
(1 1.48112e-15 0)
(1 1.9848e-15 0)
(1 4.64961e-15 0)
(1 4.28281e-16 0)
(1 5.5994e-15 0)
(1 8.41831e-15 0)
(1 6.27344e-15 0)
(1 6.27018e-15 0)
(1 -2.01042e-16 0)
(1 5.97119e-15 0)
(1 8.0464e-16 0)
(1 4.01769e-15 0)
(1 1.20859e-15 0)
(1 1.70742e-15 0)
(1 6.63081e-15 0)
(1 -4.1942e-15 0)
(1 2.42655e-15 0)
(1 3.7906e-16 0)
(1 -1.56244e-15 0)
(1 7.53301e-15 0)
(1 4.79832e-15 0)
(1 4.37729e-15 0)
(1 -8.34635e-16 0)
(1 2.03495e-15 0)
(1 -1.32005e-15 0)
(1 -2.25903e-16 0)
(1 2.36631e-15 0)
(1 -6.12018e-16 0)
(1 -6.21544e-16 0)
(1 -1.51933e-16 0)
(1 2.53623e-15 0)
(1 7.84156e-16 0)
(1 1.59567e-15 0)
(1 -2.08869e-15 0)
(1 -1.18723e-15 0)
(1 -5.08687e-15 0)
(1 -4.71621e-15 0)
(1 -2.43624e-15 0)
(1 -1.34731e-15 0)
(1 -8.00815e-16 0)
(1 -1.29678e-15 0)
(1 -2.01053e-15 0)
(1 3.90887e-16 0)
(1 1.46246e-15 0)
(1 4.0213e-15 0)
(1 4.90039e-15 0)
(1 4.1865e-15 0)
(1 2.30444e-15 0)
(1 2.67253e-15 0)
(1 5.94247e-15 0)
(1 5.74204e-15 0)
(1 4.00446e-16 0)
(1 3.04257e-16 0)
(1 2.58125e-15 0)
(1 -1.6933e-15 0)
(1 2.13161e-15 0)
(1 -2.84046e-15 0)
(1 3.47495e-15 0)
(1 2.64139e-15 0)
(1 4.28968e-15 0)
(1 2.56802e-15 0)
(1 3.76065e-16 0)
(1 8.69109e-15 0)
(1 2.42929e-15 0)
(1 3.46587e-15 0)
(1 1.7335e-15 0)
(1 -1.70707e-15 0)
(1 -2.55986e-15 0)
(1 4.41749e-16 0)
(1 1.40846e-15 0)
(1 4.71147e-15 0)
(1 -2.35085e-15 0)
(1 -7.06718e-16 0)
(1 -9.66355e-15 0)
(1 -1.96737e-15 0)
(1 1.36069e-15 0)
(1 2.42277e-15 0)
(1 -1.89309e-15 0)
(1 -3.24956e-16 0)
(1 7.25837e-16 0)
(1 -2.66839e-15 0)
(1 -2.60507e-15 0)
(1 2.20896e-15 0)
(1 4.01347e-16 0)
(1 1.41777e-15 0)
(1 3.66078e-16 0)
(1 -1.51502e-15 0)
(1 -5.63704e-15 0)
(1 -4.57064e-16 0)
(1 -4.32218e-15 0)
(1 -5.96515e-15 0)
(1 -3.5387e-15 0)
(1 2.02802e-15 0)
(1 2.53123e-15 0)
(1 3.3094e-15 0)
(1 6.92646e-15 0)
(1 -3.20892e-16 0)
(1 1.39347e-15 0)
(1 2.53431e-16 0)
(1 1.47986e-15 0)
(1 2.35279e-15 0)
(1 -1.56772e-15 0)
(1 -1.36366e-15 0)
(1 4.1717e-15 0)
(1 5.17758e-15 0)
(1 8.59934e-15 0)
(1 5.01261e-15 0)
(1 2.83526e-15 0)
(1 -2.11605e-15 0)
(1 3.99342e-15 0)
(1 4.82474e-15 0)
(1 5.90322e-15 0)
(1 5.13993e-15 0)
(1 5.73255e-16 0)
(1 2.97736e-15 0)
(1 2.85668e-15 0)
(1 -1.0239e-15 0)
(1 2.28112e-15 0)
(1 2.67692e-15 0)
(1 6.1558e-15 0)
(1 5.60977e-15 0)
(1 5.84398e-15 0)
(1 1.71318e-15 0)
(1 -2.79091e-16 0)
(1 1.14927e-16 0)
(1 5.41556e-16 0)
(1 -7.68145e-16 0)
(1 -3.26463e-16 0)
(1 -1.68921e-15 0)
(1 1.18097e-15 0)
(1 2.80139e-16 0)
(1 1.55306e-15 0)
(1 7.29016e-16 0)
(1 -2.08722e-15 0)
(1 -1.15667e-15 0)
(1 -4.65887e-15 0)
(1 -3.12429e-15 0)
(1 2.31126e-16 0)
(1 3.67338e-16 0)
(1 -3.19487e-15 0)
(1 -1.09101e-15 0)
(1 1.93354e-15 0)
(1 2.4059e-17 0)
(1 1.33974e-15 0)
(1 -1.10391e-15 0)
(1 6.68159e-15 0)
(1 1.42989e-15 0)
(1 3.0024e-15 0)
(1 5.23185e-15 0)
(1 5.46177e-15 0)
(1 6.25295e-15 0)
(1 -1.40722e-16 0)
(1 5.47613e-16 0)
(1 1.47546e-15 0)
(1 1.9011e-15 0)
(1 -1.27841e-15 0)
(1 -3.98278e-15 0)
(1 3.83944e-15 0)
(1 2.264e-15 0)
(1 4.24867e-15 0)
(1 7.14228e-15 0)
(1 1.4623e-15 0)
(1 5.6706e-15 0)
(1 -7.94257e-16 0)
(1 -6.25653e-16 0)
(1 -1.21958e-15 0)
(1 -4.04693e-15 0)
(1 2.32075e-15 0)
(1 2.43694e-15 0)
(1 3.55339e-15 0)
(1 2.43391e-15 0)
(1 -3.30212e-15 0)
(1 -3.37076e-15 0)
(1 -8.1669e-15 0)
(1 -1.86376e-15 0)
(1 -4.87699e-15 0)
(1 7.88362e-15 0)
(1 4.15527e-15 0)
(1 4.79677e-15 0)
(1 -1.52593e-16 0)
(1 -5.64972e-15 0)
(1 -3.91454e-15 0)
(1 2.60708e-16 0)
(1 -1.68919e-15 0)
(1 3.94747e-16 0)
(1 5.82093e-16 0)
(1 -4.45385e-15 0)
(1 -2.94421e-15 0)
(1 -5.0506e-15 0)
(1 -5.50653e-15 0)
(1 -2.91748e-15 0)
(1 2.04396e-15 0)
(1 4.3973e-16 0)
(1 6.23617e-16 0)
(1 4.24541e-16 0)
(1 2.46113e-15 0)
(1 3.00771e-15 0)
(1 1.47846e-15 0)
(1 1.39161e-15 0)
(1 6.77325e-15 0)
(1 2.03894e-15 0)
(1 2.12649e-15 0)
(1 1.88931e-15 0)
(1 5.39991e-15 0)
(1 7.08604e-15 0)
(1 6.48951e-15 0)
(1 4.5716e-15 0)
(1 3.16262e-15 0)
(1 1.77167e-15 0)
(1 3.36692e-15 0)
(1 2.41052e-15 0)
(1 3.63255e-15 0)
(1 5.13033e-15 0)
(1 2.72226e-15 0)
(1 1.58113e-15 0)
(1 6.07369e-15 0)
(1 1.81204e-15 0)
(1 1.77032e-15 0)
(1 2.23942e-15 0)
(1 -5.25993e-15 0)
(1 9.6652e-17 0)
(1 3.74456e-15 0)
(1 6.41344e-15 0)
(1 3.01221e-15 0)
(1 1.54703e-15 0)
(1 -2.18157e-16 0)
(1 -4.7566e-15 0)
(1 3.56396e-15 0)
(1 -2.79586e-15 0)
(1 -3.93829e-15 0)
(1 1.04913e-15 0)
(1 3.6894e-15 0)
(1 2.29544e-15 0)
(1 5.49232e-15 0)
(1 -3.88577e-16 0)
(1 -3.38117e-15 0)
(1 -1.27347e-15 0)
(1 -2.15127e-15 0)
(1 -4.9403e-15 0)
(1 -4.10765e-15 0)
(1 -5.45246e-15 0)
(1 5.78206e-15 0)
(1 -8.88164e-16 0)
(1 1.29744e-15 0)
(1 2.68621e-16 0)
(1 4.48723e-15 0)
(1 3.47948e-15 0)
(1 3.44609e-15 0)
(1 4.13167e-15 0)
(1 2.43421e-15 0)
(1 4.4014e-15 0)
(1 -4.77108e-16 0)
(1 1.35817e-15 0)
(1 -2.45937e-17 0)
(1 3.46596e-15 0)
(1 -3.35188e-15 0)
(1 4.44232e-15 0)
(1 -3.1595e-16 0)
(1 2.71673e-15 0)
(1 3.21918e-15 0)
(1 4.50747e-15 0)
(1 3.74632e-15 0)
(1 -2.22584e-15 0)
(1 -1.15463e-16 0)
(1 8.62711e-16 0)
(1 2.89003e-15 0)
(1 -5.61841e-16 0)
(1 4.193e-17 0)
(1 -4.25157e-15 0)
(1 5.45213e-15 0)
(1 -2.15279e-15 0)
(1 -2.64819e-15 0)
(1 1.3845e-15 0)
(1 1.48826e-15 0)
(1 -2.25564e-15 0)
(1 -1.18169e-15 0)
(1 -7.07942e-16 0)
(1 2.88023e-15 0)
(1 1.52302e-15 0)
(1 1.64105e-15 0)
(1 -2.87687e-15 0)
(1 -1.16835e-15 0)
(1 -5.69449e-16 0)
(1 -5.35508e-15 0)
(1 -4.11068e-15 0)
(1 -4.75403e-15 0)
(1 -2.81542e-15 0)
(1 -2.05742e-15 0)
(1 -5.08852e-15 0)
(1 -1.17397e-15 0)
(1 1.25796e-16 0)
(1 3.647e-15 0)
(1 3.33876e-16 0)
(1 -2.81771e-15 0)
(1 3.9442e-15 0)
(1 3.3885e-15 0)
(1 1.06418e-15 0)
(1 3.17514e-15 0)
(1 -2.9485e-15 0)
(1 4.60069e-15 0)
(1 2.31102e-15 0)
(1 3.33429e-15 0)
(1 4.04716e-15 0)
(1 4.14158e-15 0)
(1 5.42023e-15 0)
(1 3.88874e-15 0)
(1 -3.34059e-15 0)
(1 1.58776e-15 0)
(1 2.7841e-15 0)
(1 3.6755e-15 0)
(1 2.03277e-15 0)
(1 7.18994e-15 0)
(1 6.25956e-15 0)
(1 8.41236e-15 0)
(1 2.36088e-15 0)
(1 1.63335e-15 0)
(1 3.97632e-15 0)
(1 -2.64601e-16 0)
(1 9.63338e-16 0)
(1 -4.25574e-16 0)
(1 6.32615e-18 0)
(1 5.18122e-15 0)
(1 3.85047e-15 0)
(1 -2.21884e-15 0)
(1 -4.25787e-16 0)
(1 1.93474e-16 0)
(1 -4.28008e-15 0)
(1 -5.8379e-16 0)
(1 -6.16691e-16 0)
(1 -1.96441e-15 0)
(1 3.89361e-15 0)
(1 4.13025e-15 0)
(1 1.20005e-15 0)
(1 2.99272e-15 0)
(1 -3.79091e-15 0)
(1 -2.08193e-16 0)
(1 1.2815e-15 0)
(1 -4.43873e-15 0)
(1 -4.12069e-15 0)
(1 -1.24667e-15 0)
(1 1.56106e-15 0)
(1 3.25417e-15 0)
(1 -2.1472e-15 0)
(1 -1.80721e-15 0)
(1 6.12006e-16 0)
(1 1.51016e-15 0)
(1 6.14044e-15 0)
(1 4.57191e-15 0)
(1 4.84073e-15 0)
(1 2.00987e-15 0)
(1 1.32756e-15 0)
(1 3.72532e-16 0)
(1 8.36646e-16 0)
(1 -4.94568e-16 0)
(1 -1.38845e-15 0)
(1 2.56225e-15 0)
(1 1.07072e-15 0)
(1 4.42215e-16 0)
(1 1.83525e-15 0)
(1 5.40074e-16 0)
(1 3.66589e-15 0)
(1 4.87133e-15 0)
(1 -1.82285e-15 0)
(1 1.02341e-15 0)
(1 4.25097e-17 0)
(1 3.66927e-15 0)
(1 -1.04647e-15 0)
(1 -3.1201e-15 0)
(1 -2.20355e-15 0)
(1 4.19908e-15 0)
(1 2.98705e-15 0)
(1 5.49809e-15 0)
(1 4.42099e-15 0)
(1 -3.58729e-15 0)
(1 -8.00282e-15 0)
(1 4.114e-15 0)
(1 -3.05547e-15 0)
(1 -3.1913e-15 0)
(1 -2.44157e-15 0)
(1 1.98321e-15 0)
(1 7.83805e-16 0)
(1 -3.82928e-15 0)
(1 -2.07694e-15 0)
(1 -5.68271e-15 0)
(1 -6.88666e-15 0)
(1 1.07117e-15 0)
(1 -2.54753e-15 0)
(1 -2.55615e-16 0)
(1 -5.96736e-15 0)
(1 -7.21668e-16 0)
(1 1.08173e-15 0)
(1 3.07017e-15 0)
(1 2.61479e-15 0)
(1 -2.66744e-15 0)
(1 2.89874e-15 0)
(1 -4.73843e-16 0)
(1 4.94208e-15 0)
(1 3.44472e-15 0)
(1 2.78006e-15 0)
(1 -1.33776e-15 0)
(1 3.08069e-15 0)
(1 4.19584e-15 0)
(1 2.43777e-15 0)
(1 6.67216e-15 0)
(1 5.71211e-15 0)
(1 3.23401e-15 0)
(1 4.39137e-15 0)
(1 2.2671e-15 0)
(1 4.2754e-15 0)
(1 -3.14388e-15 0)
(1 1.10406e-15 0)
(1 -5.07048e-16 0)
(1 2.2093e-15 0)
(1 3.76542e-15 0)
(1 4.12158e-15 0)
(1 5.64071e-15 0)
(1 4.52758e-15 0)
(1 5.29948e-15 0)
(1 2.94162e-15 0)
(1 2.48387e-15 0)
(1 6.95752e-16 0)
(1 -6.14685e-15 0)
(1 -1.49627e-15 0)
(1 1.48452e-16 0)
(1 2.32589e-15 0)
(1 1.65478e-15 0)
(1 1.20715e-15 0)
(1 -3.33209e-15 0)
(1 8.70757e-16 0)
(1 3.42597e-15 0)
(1 -1.23501e-15 0)
(1 -1.56986e-15 0)
(1 -2.40934e-15 0)
(1 -1.70122e-15 0)
(1 -9.2581e-16 0)
(1 1.65044e-15 0)
(1 -5.84294e-16 0)
(1 -1.80242e-15 0)
(1 9.42458e-16 0)
(1 4.46312e-16 0)
(1 4.04745e-15 0)
(1 -2.41308e-15 0)
(1 -1.51229e-16 0)
(1 2.28467e-16 0)
(1 -1.49961e-15 0)
(1 1.94819e-15 0)
(1 3.01891e-15 0)
(1 -4.69398e-16 0)
(1 1.72602e-15 0)
(1 7.35575e-16 0)
(1 -1.67212e-16 0)
(1 6.2443e-16 0)
(1 5.35269e-16 0)
(1 -1.20707e-15 0)
(1 7.8454e-17 0)
(1 3.41477e-15 0)
(1 2.19261e-15 0)
(1 1.97188e-15 0)
(1 -6.71556e-16 0)
(1 -1.25613e-15 0)
(1 2.5328e-15 0)
(1 4.16047e-15 0)
(1 4.13618e-15 0)
(1 5.21835e-16 0)
(1 -9.98681e-16 0)
(1 -2.96745e-15 0)
(1 1.74939e-15 0)
(1 -1.0709e-15 0)
(1 3.54496e-15 0)
(1 -4.51489e-15 0)
(1 1.01745e-15 0)
(1 3.227e-15 0)
(1 4.22033e-15 0)
(1 -2.09389e-15 0)
(1 -3.26839e-15 0)
(1 -2.08472e-15 0)
(1 1.10595e-15 0)
(1 2.51451e-15 0)
(1 -1.67933e-15 0)
(1 3.58629e-15 0)
(1 -2.52072e-16 0)
(1 -1.78715e-15 0)
(1 -7.80573e-15 0)
(1 -3.29757e-15 0)
(1 -2.9631e-15 0)
(1 -5.82563e-15 0)
(1 -5.13168e-15 0)
(1 5.96867e-16 0)
(1 -4.85462e-15 0)
(1 2.03139e-15 0)
(1 -2.23245e-15 0)
(1 -2.02298e-15 0)
(1 -5.35931e-16 0)
(1 7.96689e-15 0)
(1 5.42954e-15 0)
(1 1.52443e-15 0)
(1 5.9866e-15 0)
(1 -1.56787e-15 0)
(1 7.17704e-15 0)
(1 -2.91603e-15 0)
(1 -8.57396e-16 0)
(1 -3.17853e-15 0)
(1 3.14041e-16 0)
(1 6.97361e-15 0)
(1 7.79742e-15 0)
(1 1.13589e-15 0)
(1 9.85701e-15 0)
(1 4.11437e-15 0)
(1 4.30633e-15 0)
(1 5.66045e-16 0)
(1 2.15566e-15 0)
(1 9.07392e-16 0)
(1 2.85361e-17 0)
(1 -2.5715e-16 0)
(1 7.50681e-15 0)
(1 2.07472e-15 0)
(1 3.06839e-15 0)
(1 5.52077e-15 0)
(1 4.04483e-15 0)
(1 9.50329e-16 0)
(1 3.25203e-16 0)
(1 -4.60769e-15 0)
(1 4.37957e-15 0)
(1 4.22377e-15 0)
(1 2.95614e-15 0)
(1 2.41447e-16 0)
(1 4.42745e-15 0)
(1 -5.46821e-16 0)
(1 2.19111e-15 0)
(1 -1.35191e-16 0)
(1 -5.20417e-15 0)
(1 -5.9079e-16 0)
(1 5.62444e-16 0)
(1 -3.66131e-15 0)
(1 1.29223e-15 0)
(1 4.41509e-16 0)
(1 -1.84205e-15 0)
(1 -2.09946e-15 0)
(1 1.47845e-15 0)
(1 6.94045e-16 0)
(1 9.11924e-16 0)
(1 -3.67331e-16 0)
(1 6.2454e-17 0)
(1 1.1147e-15 0)
(1 3.21831e-15 0)
(1 1.18709e-17 0)
(1 1.91616e-15 0)
(1 -5.03147e-16 0)
(1 3.22651e-15 0)
(1 -5.57903e-16 0)
(1 -2.01357e-15 0)
(1 7.87017e-17 0)
(1 1.56719e-15 0)
(1 7.28133e-17 0)
(1 2.55007e-15 0)
(1 4.29511e-16 0)
(1 3.58225e-15 0)
(1 -1.92782e-15 0)
(1 1.72921e-16 0)
(1 3.05086e-15 0)
(1 -1.82812e-15 0)
(1 6.01939e-15 0)
(1 5.28698e-15 0)
(1 3.59702e-15 0)
(1 -5.71162e-15 0)
(1 -5.71567e-15 0)
(1 1.9302e-15 0)
(1 -4.9636e-15 0)
(1 5.7526e-15 0)
(1 -5.8372e-15 0)
(1 3.10684e-15 0)
(1 5.87142e-15 0)
(1 -2.17783e-16 0)
(1 3.32096e-15 0)
(1 -2.46665e-15 0)
(1 -6.56314e-15 0)
(1 -5.45003e-15 0)
(1 -2.24738e-15 0)
(1 3.00266e-16 0)
(1 1.35457e-15 0)
(1 -1.65123e-15 0)
(1 -1.85576e-15 0)
(1 -2.11388e-15 0)
(1 -1.04742e-15 0)
(1 -1.38583e-15 0)
(1 -4.52942e-15 0)
(1 -1.03881e-15 0)
(1 -6.06774e-15 0)
(1 -1.66509e-15 0)
(1 1.75704e-15 0)
(1 -3.15116e-15 0)
(1 -3.41222e-15 0)
(1 -8.94423e-16 0)
(1 8.65603e-15 0)
(1 3.16248e-15 0)
(1 5.50157e-15 0)
(1 2.16923e-15 0)
(1 -5.13789e-15 0)
(1 2.67155e-15 0)
(1 -8.66114e-16 0)
(1 -2.97134e-15 0)
(1 -1.30552e-15 0)
(1 3.36626e-15 0)
(1 7.26972e-15 0)
(1 6.75548e-15 0)
(1 6.98827e-15 0)
(1 7.468e-15 0)
(1 2.47379e-15 0)
(1 5.45369e-15 0)
(1 3.79985e-15 0)
(1 1.41413e-15 0)
(1 4.42056e-15 0)
(1 7.83038e-17 0)
(1 5.01892e-15 0)
(1 2.48611e-15 0)
(1 4.70985e-15 0)
(1 4.84606e-15 0)
(1 5.23445e-15 0)
(1 3.2772e-15 0)
(1 3.70354e-15 0)
(1 1.74071e-15 0)
(1 4.48852e-15 0)
(1 1.094e-15 0)
(1 -2.29542e-16 0)
(1 1.14993e-15 0)
(1 -4.17235e-16 0)
(1 1.2413e-15 0)
(1 3.10283e-16 0)
(1 3.18226e-15 0)
(1 -1.83616e-15 0)
(1 -5.26091e-15 0)
(1 4.08791e-16 0)
(1 3.06763e-16 0)
(1 -3.0322e-15 0)
(1 1.62948e-16 0)
(1 -2.00635e-15 0)
(1 -1.19985e-15 0)
(1 -2.21089e-15 0)
(1 1.99529e-15 0)
(1 -1.44618e-16 0)
(1 -2.18572e-15 0)
(1 -7.13637e-16 0)
(1 -1.15097e-15 0)
(1 1.17484e-16 0)
(1 2.64191e-15 0)
(1 1.42907e-15 0)
(1 -1.62697e-16 0)
(1 -2.37742e-15 0)
(1 1.09512e-15 0)
(1 2.37032e-15 0)
(1 2.16682e-15 0)
(1 -5.18953e-16 0)
(1 1.52409e-15 0)
(1 1.8434e-15 0)
(1 3.67264e-16 0)
(1 3.66331e-15 0)
(1 2.92315e-15 0)
(1 3.13018e-15 0)
(1 1.55653e-15 0)
(1 2.84163e-15 0)
(1 -1.55158e-15 0)
(1 -1.39023e-15 0)
(1 3.14497e-16 0)
(1 1.77492e-15 0)
(1 -4.76995e-16 0)
(1 -2.62074e-15 0)
(1 -1.90807e-15 0)
(1 -3.21932e-15 0)
(1 9.16253e-16 0)
(1 5.16816e-15 0)
(1 -2.49032e-16 0)
(1 -1.14021e-15 0)
(1 -3.06472e-15 0)
(1 3.7942e-15 0)
(1 8.41912e-16 0)
(1 -4.62893e-15 0)
(1 -3.21024e-15 0)
(1 -7.80726e-16 0)
(1 3.45029e-15 0)
(1 -4.7264e-15 0)
(1 -9.3811e-16 0)
(1 -4.39314e-15 0)
(1 -1.29907e-17 0)
(1 -1.73408e-15 0)
(1 -4.32537e-15 0)
(1 -2.0756e-15 0)
(1 -3.30154e-15 0)
(1 -4.65967e-15 0)
(1 -1.45197e-15 0)
(1 -2.5458e-15 0)
(1 4.92756e-16 0)
(1 1.89009e-15 0)
(1 2.7952e-15 0)
(1 -5.00529e-16 0)
(1 3.09244e-15 0)
(1 2.79124e-15 0)
(1 1.75213e-15 0)
(1 9.61603e-16 0)
(1 -1.52489e-15 0)
(1 -3.312e-15 0)
(1 -6.58645e-15 0)
(1 4.04264e-15 0)
(1 9.66904e-15 0)
(1 7.72861e-15 0)
(1 4.83589e-15 0)
(1 8.9368e-15 0)
(1 5.44352e-15 0)
(1 2.04967e-15 0)
(1 3.93944e-15 0)
(1 1.59899e-15 0)
(1 7.25789e-16 0)
(1 -4.38644e-16 0)
(1 2.0407e-15 0)
(1 2.8058e-15 0)
(1 -3.45188e-15 0)
(1 8.00207e-15 0)
(1 3.63715e-15 0)
(1 2.85615e-15 0)
(1 2.49545e-15 0)
(1 2.05416e-15 0)
(1 2.28508e-15 0)
(1 1.42344e-15 0)
(1 -3.07269e-15 0)
(1 -5.42068e-17 0)
(1 3.77118e-15 0)
(1 1.30018e-16 0)
(1 3.02989e-16 0)
(1 1.12148e-16 0)
(1 1.91876e-16 0)
(1 -3.52112e-16 0)
(1 5.06363e-16 0)
(1 -3.83408e-15 0)
(1 -4.00507e-15 0)
(1 5.16974e-16 0)
(1 -5.66445e-16 0)
(1 -8.39125e-16 0)
(1 -1.22491e-15 0)
(1 -3.65992e-16 0)
(1 2.61392e-15 0)
(1 1.70321e-15 0)
(1 -3.36918e-16 0)
(1 -1.79385e-15 0)