/*--------------------------------*- C++ -*----------------------------------*\
| =========                 |                                                 |
| \\      /  F ield         | OpenFOAM: The Open Source CFD Toolbox           |
|  \\    /   O peration     | Version:  v2012                                 |
|   \\  /    A nd           | Website:  www.openfoam.com                      |
|    \\/     M anipulation  |                                                 |
\*---------------------------------------------------------------------------*/
FoamFile
{
    version     2.0;
    format      ascii;
    class       volScalarField;
    location    "16.5";
    object      Psi_z;
}
// * * * * * * * * * * * * * * * * * * * * * * * * * * * * * * * * * * * * * //

dimensions      [0 2 -1 0 0 0 0];


internalField   nonuniform List<scalar> 
65536
(
8.27966e-06
2.48395e-05
4.14009e-05
5.79648e-05
7.45321e-05
9.11039e-05
0.000107681
0.000124265
0.000140856
0.000157455
0.000174063
0.000190681
0.000207311
0.000223952
0.000240606
0.000257273
0.000273954
0.00029065
0.000307362
0.00032409
0.000340835
0.000357597
0.000374378
0.000391176
0.000407994
0.000424831
0.000441687
0.000458563
0.000475459
0.000492375
0.000509311
0.000526268
0.000543244
0.00056024
0.000577256
0.000594291
0.000611345
0.000628417
0.000645507
0.000662614
0.000679737
0.000696875
0.000714027
0.000731192
0.000748369
0.000765556
0.000782752
0.000799955
0.000817163
0.000834375
0.000851588
0.000868799
0.000886008
0.00090321
0.000920404
0.000937586
0.000954754
0.000971904
0.000989034
0.00100614
0.00102321
0.00104026
0.00105727
0.00107423
0.00109116
0.00110803
0.00112485
0.00114161
0.0011583
0.00117493
0.00119148
0.00120795
0.00122433
0.00124062
0.00125681
0.00127289
0.00128886
0.00130472
0.00132044
0.00133604
0.00135149
0.00136679
0.00138194
0.00139693
0.00141174
0.00142637
0.00144082
0.00145508
0.00146912
0.00148296
0.00149658
0.00150997
0.00152312
0.00153603
0.00154868
0.00156107
0.00157319
0.00158503
0.00159658
0.00160784
0.00161879
0.00162943
0.00163975
0.00164974
0.0016594
0.00166871
0.00167767
0.00168627
0.00169451
0.00170238
0.00170986
0.00171697
0.00172368
0.00173
0.00173591
0.00174142
0.00174652
0.0017512
0.00175546
0.0017593
0.00176272
0.0017657
0.00176826
0.00177038
0.00177206
0.00177331
0.00177412
0.00177449
0.00177443
0.00177392
0.00177298
0.00177161
0.0017698
0.00176756
0.00176489
0.00176179
0.00175827
0.00175432
0.00174997
0.00174519
0.00174002
0.00173443
0.00172845
0.00172208
0.00171532
0.00170818
0.00170066
0.00169278
0.00168453
0.00167593
0.00166698
0.0016577
0.00164807
0.00163813
0.00162786
0.00161729
0.00160641
0.00159523
0.00158377
0.00157204
0.00156003
0.00154776
0.00153523
0.00152246
0.00150945
0.00149621
0.00148275
0.00146907
0.00145518
0.0014411
0.00142683
0.00141237
0.00139774
0.00138294
0.00136797
0.00135285
0.00133759
0.00132219
0.00130665
0.00129098
0.00127519
0.00125929
0.00124329
0.00122718
0.00121097
0.00119467
0.00117829
0.00116183
0.00114529
0.00112868
0.00111201
0.00109528
0.0010785
0.00106166
0.00104477
0.00102785
0.00101088
0.000993877
0.000976843
0.000959781
0.000942694
0.000925584
0.000908456
0.000891311
0.000874152
0.000856983
0.000839804
0.000822619
0.00080543
0.000788238
0.000771046
0.000753855
0.000736667
0.000719483
0.000702304
0.000685133
0.00066797
0.000650816
0.000633672
0.00061654
0.000599419
0.000582311
0.000565215
0.000548134
0.000531066
0.000514013
0.000496975
0.000479951
0.000462943
0.000445949
0.000428971
0.000412008
0.000395059
0.000378125
0.000361206
0.000344301
0.000327409
0.000310531
0.000293667
0.000276814
0.000259974
0.000243145
0.000226327
0.000209519
0.000192721
0.000175932
0.000159151
0.000142377
0.000125611
0.00010885
9.20952e-05
7.53444e-05
5.85974e-05
4.18532e-05
2.51111e-05
8.37023e-06
2.48386e-05
7.45172e-05
0.0001242
0.000173891
0.000223592
0.000273306
0.000323037
0.000372787
0.000422559
0.000472355
0.00052218
0.000572034
0.000621921
0.000671844
0.000721804
0.000771805
0.000821848
0.000871936
0.000922071
0.000972255
0.00102249
0.00107278
0.00112312
0.00117351
0.00122396
0.00127447
0.00132504
0.00137567
0.00142636
0.00147711
0.00152792
0.00157878
0.00162971
0.0016807
0.00173175
0.00178286
0.00183402
0.00188524
0.00193651
0.00198783
0.0020392
0.00209061
0.00214207
0.00219357
0.0022451
0.00229666
0.00234825
0.00239986
0.00245149
0.00250313
0.00255477
0.0026064
0.00265803
0.00270964
0.00276123
0.00281278
0.00286428
0.00291574
0.00296713
0.00301845
0.00306968
0.00312082
0.00317184
0.00322275
0.00327352
0.00332415
0.00337461
0.00342489
0.00347499
0.00352487
0.00357452
0.00362394
0.00367309
0.00372196
0.00377054
0.0038188
0.00386672
0.00391428
0.00396147
0.00400825
0.00405461
0.00410053
0.00414599
0.00419095
0.0042354
0.00427931
0.00432267
0.00436543
0.00440759
0.00444911
0.00448997
0.00453015
0.00456961
0.00460834
0.00464631
0.00468349
0.00471985
0.00475538
0.00479005
0.00482382
0.00485669
0.00488862
0.00491958
0.00494956
0.00497854
0.00500648
0.00503337
0.00505918
0.0050839
0.00510751
0.00512998
0.00515129
0.00517144
0.00519039
0.00520814
0.00522468
0.00523997
0.00525403
0.00526682
0.00527834
0.00528859
0.00529754
0.00530521
0.00531157
0.00531662
0.00532037
0.0053228
0.00532392
0.00532372
0.00532221
0.00531939
0.00531526
0.00530983
0.0053031
0.00529509
0.00528579
0.00527522
0.00526339
0.00525031
0.00523599
0.00522045
0.0052037
0.00518575
0.00516662
0.00514634
0.00512491
0.00510236
0.0050787
0.00505395
0.00502815
0.00500129
0.00497342
0.00494455
0.0049147
0.00488389
0.00485216
0.00481951
0.00478599
0.0047516
0.00471638
0.00468034
0.00464352
0.00460594
0.00456761
0.00452858
0.00448885
0.00444845
0.00440741
0.00436575
0.0043235
0.00428067
0.00423729
0.00419338
0.00414897
0.00410407
0.00405871
0.00401291
0.00396669
0.00392006
0.00387306
0.0038257
0.00377799
0.00372996
0.00368162
0.00363299
0.0035841
0.00353494
0.00348555
0.00343594
0.00338611
0.0033361
0.0032859
0.00323553
0.00318502
0.00313436
0.00308357
0.00303267
0.00298166
0.00293056
0.00287937
0.0028281
0.00277677
0.00272538
0.00267394
0.00262247
0.00257095
0.00251942
0.00246786
0.00241629
0.00236471
0.00231313
0.00226156
0.00220999
0.00215844
0.0021069
0.00205539
0.0020039
0.00195244
0.001901
0.00184961
0.00179824
0.00174692
0.00169563
0.00164439
0.00159318
0.00154202
0.00149091
0.00143984
0.00138881
0.00133783
0.0012869
0.00123601
0.00118516
0.00113436
0.0010836
0.00103289
0.000982214
0.000931581
0.000880986
0.00083043
0.000779909
0.000729423
0.000678969
0.000628547
0.000578153
0.000527786
0.000477444
0.000427125
0.000376826
0.000326546
0.000276281
0.000226029
0.000175789
0.000125558
7.53321e-05
2.51103e-05
4.1396e-05
0.00012419
0.000206992
0.000289807
0.000372639
0.000455493
0.000538374
0.000621287
0.000704237
0.000787229
0.000870266
0.000953354
0.0010365
0.0011197
0.00120296
0.00128629
0.0013697
0.00145318
0.00153673
0.00162037
0.00170409
0.0017879
0.0018718
0.00195579
0.00203988
0.00212406
0.00220834
0.00229272
0.0023772
0.00246178
0.00254646
0.00263124
0.00271612
0.00280111
0.00288619
0.00297137
0.00305664
0.003142
0.00322745
0.00331299
0.00339861
0.00348431
0.00357008
0.00365591
0.0037418
0.00382774
0.00391373
0.00399975
0.00408581
0.00417187
0.00425795
0.00434402
0.00443007
0.0045161
0.00460208
0.00468801
0.00477386
0.00485963
0.0049453
0.00503084
0.00511624
0.00520148
0.00528654
0.0053714
0.00545604
0.00554043
0.00562455
0.00570837
0.00579188
0.00587503
0.00595781
0.00604019
0.00612213
0.0062036
0.00628458
0.00636504
0.00644493
0.00652422
0.00660289
0.00668089
0.00675819
0.00683474
0.00691052
0.00698549
0.0070596
0.00713282
0.0072051
0.0072764
0.00734669
0.00741592
0.00748405
0.00755104
0.00761684
0.00768141
0.00774472
0.00780671
0.00786735
0.00792659
0.0079844
0.00804072
0.00809552
0.00814876
0.0082004
0.00825039
0.00829871
0.0083453
0.00839014
0.00843319
0.00847441
0.00851377
0.00855124
0.00858679
0.00862038
0.00865199
0.00868159
0.00870916
0.00873467
0.00875811
0.00877944
0.00879866
0.00881574
0.00883068
0.00884346
0.00885406
0.00886249
0.00886874
0.00887279
0.00887465
0.00887432
0.00887181
0.0088671
0.00886022
0.00885116
0.00883994
0.00882657
0.00881107
0.00879344
0.00877371
0.00875189
0.00872801
0.00870209
0.00867415
0.00864422
0.00861233
0.0085785
0.00854276
0.00850515
0.0084657
0.00842444
0.0083814
0.00833662
0.00829014
0.008242
0.00819222
0.00814086
0.00808794
0.00803351
0.0079776
0.00792026
0.00786153
0.00780145
0.00774005
0.00767738
0.00761349
0.00754839
0.00748215
0.0074148
0.00734637
0.00727691
0.00720646
0.00713505
0.00706273
0.00698953
0.00691548
0.00684063
0.00676501
0.00668865
0.00661159
0.00653386
0.0064555
0.00637654
0.00629701
0.00621694
0.00613635
0.00605529
0.00597378
0.00589184
0.0058095
0.00572679
0.00564374
0.00556036
0.00547668
0.00539273
0.00530852
0.00522408
0.00513942
0.00505457
0.00496954
0.00488435
0.00479903
0.00471357
0.00462801
0.00454236
0.00445662
0.00437081
0.00428495
0.00419905
0.00411311
0.00402716
0.00394119
0.00385522
0.00376926
0.00368331
0.00359738
0.00351148
0.00342562
0.0033398
0.00325403
0.0031683
0.00308264
0.00299703
0.00291148
0.00282601
0.0027406
0.00265526
0.00256999
0.0024848
0.00239968
0.00231464
0.00222967
0.00214478
0.00205996
0.00197522
0.00189055
0.00180596
0.00172143
0.00163698
0.00155259
0.00146827
0.00138401
0.00129981
0.00121567
0.00113158
0.00104755
0.000963558
0.000879616
0.000795715
0.000711852
0.000628024
0.000544225
0.000460453
0.000376703
0.000292972
0.000209256
0.000125549
4.18491e-05
5.79509e-05
0.000173856
0.000289772
0.000405705
0.000521663
0.000637652
0.000753679
0.000869751
0.000985874
0.00110206
0.0012183
0.00133462
0.00145101
0.00156749
0.00168405
0.00180071
0.00191747
0.00203434
0.00215131
0.0022684
0.0023856
0.00250293
0.00262039
0.00273797
0.00285569
0.00297354
0.00309153
0.00320966
0.00332793
0.00344635
0.0035649
0.0036836
0.00380243
0.00392141
0.00404053
0.00415978
0.00427916
0.00439868
0.00451832
0.00463808
0.00475795
0.00487793
0.00499801
0.00511819
0.00523845
0.00535878
0.00547917
0.00559962
0.0057201
0.00584061
0.00596113
0.00608165
0.00620214
0.0063226
0.00644299
0.00656331
0.00668353
0.00680363
0.00692358
0.00704337
0.00716296
0.00728232
0.00740144
0.00752028
0.0076388
0.00775698
0.00787478
0.00799217
0.00810911
0.00822557
0.0083415
0.00845687
0.00857163
0.00868574
0.00879916
0.00891184
0.00902373
0.00913479
0.00924498
0.00935423
0.00946249
0.00956973
0.00967588
0.00978088
0.00988469
0.00998725
0.0100885
0.0101884
0.0102868
0.0103838
0.0104793
0.0105731
0.0106653
0.0107558
0.0108444
0.0109313
0.0110162
0.0110992
0.0111802
0.0112591
0.0113359
0.0114105
0.0114829
0.0115529
0.0116206
0.0116859
0.0117487
0.011809
0.0118668
0.0119219
0.0119744
0.0120242
0.0120713
0.0121156
0.0121571
0.0121957
0.0122315
0.0122643
0.0122942
0.0123211
0.012345
0.012366
0.0123839
0.0123987
0.0124105
0.0124193
0.012425
0.0124276
0.0124271
0.0124236
0.012417
0.0124073
0.0123947
0.0123789
0.0123602
0.0123385
0.0123138
0.0122861
0.0122555
0.0122221
0.0121858
0.0121466
0.0121047
0.01206
0.0120126
0.0119625
0.0119098
0.0118545
0.0117967
0.0117364
0.0116737
0.0116085
0.0115411
0.0114713
0.0113994
0.0113252
0.011249
0.0111706
0.0110903
0.011008
0.0109239
0.0108379
0.0107501
0.0106605
0.0105694
0.0104766
0.0103822
0.0102864
0.0101891
0.0100904
0.00999036
0.00988905
0.00978652
0.0096828
0.00957796
0.00947204
0.00936509
0.00925716
0.0091483
0.00903855
0.00892795
0.00881657
0.00870442
0.00859157
0.00847804
0.00836388
0.00824913
0.00813382
0.008018
0.00790168
0.00778492
0.00766774
0.00755018
0.00743225
0.00731401
0.00719546
0.00707664
0.00695758
0.00683829
0.00671881
0.00659916
0.00647935
0.00635941
0.00623936
0.00611922
0.00599899
0.00587871
0.00575839
0.00563804
0.00551767
0.0053973
0.00527694
0.0051566
0.00503629
0.00491603
0.00479581
0.00467566
0.00455556
0.00443555
0.00431561
0.00419575
0.00407599
0.00395631
0.00383674
0.00371726
0.00359788
0.00347861
0.00335945
0.00324039
0.00312143
0.00300258
0.00288384
0.00276521
0.00264667
0.00252824
0.00240991
0.00229168
0.00217354
0.00205549
0.00193753
0.00181965
0.00170186
0.00158414
0.0014665
0.00134892
0.0012314
0.00111395
0.000996546
0.000879191
0.000761878
0.000644603
0.000527359
0.000410141
0.000292943
0.00017576
5.85858e-05
7.45023e-05
0.000223511
0.000372534
0.000521579
0.000670656
0.000819773
0.000968939
0.00111816
0.00126745
0.00141682
0.00156627
0.00171581
0.00186545
0.00201519
0.00216505
0.00231503
0.00246514
0.00261539
0.00276577
0.00291631
0.00306699
0.00321784
0.00336885
0.00352002
0.00367137
0.00382289
0.00397459
0.00412647
0.00427853
0.00443077
0.0045832
0.00473581
0.0048886
0.00504158
0.00519473
0.00534806
0.00550156
0.00565523
0.00580906
0.00596305
0.00611718
0.00627146
0.00642586
0.00658039
0.00673502
0.00688975
0.00704456
0.00719944
0.00735437
0.00750934
0.00766432
0.0078193
0.00797425
0.00812915
0.00828398
0.00843872
0.00859332
0.00874777
0.00890204
0.0090561
0.0092099
0.00936342
0.00951662
0.00966946
0.0098219
0.00997391
0.0101254
0.0102764
0.0104268
0.0105766
0.0107258
0.0108742
0.0110218
0.0111686
0.0113145
0.0114594
0.0116034
0.0117462
0.011888
0.0120285
0.0121678
0.0123058
0.0124424
0.0125775
0.012711
0.012843
0.0129733
0.0131018
0.0132285
0.0133533
0.0134761
0.0135968
0.0137155
0.0138319
0.013946
0.0140578
0.0141671
0.0142739
0.0143781
0.0144797
0.0145785
0.0146745
0.0147676
0.0148578
0.0149449
0.0150289
0.0151098
0.0151874
0.0152618
0.0153327
0.0154003
0.0154644
0.015525
0.015582
0.0156354
0.0156851
0.0157311
0.0157734
0.0158119
0.0158465
0.0158774
0.0159043
0.0159273
0.0159465
0.0159617
0.0159729
0.0159802
0.0159836
0.015983
0.0159784
0.0159699
0.0159575
0.0159412
0.0159209
0.0158968
0.0158688
0.015837
0.0158014
0.0157621
0.015719
0.0156722
0.0156218
0.0155679
0.0155103
0.0154493
0.0153849
0.015317
0.0152459
0.0151714
0.0150938
0.0150131
0.0149293
0.0148424
0.0147527
0.0146601
0.0145646
0.0144665
0.0143657
0.0142623
0.0141564
0.0140481
0.0139374
0.0138245
0.0137093
0.0135919
0.0134725
0.0133511
0.0132278
0.0131026
0.0129756
0.012847
0.0127166
0.0125847
0.0124513
0.0123164
0.0121801
0.0120425
0.0119037
0.0117636
0.0116224
0.0114802
0.0113369
0.0111926
0.0110475
0.0109014
0.0107546
0.010607
0.0104587
0.0103097
0.0101601
0.0100099
0.00985919
0.00970798
0.00955632
0.00940423
0.00925177
0.00909896
0.00894584
0.00879243
0.00863877
0.00848489
0.00833082
0.00817658
0.0080222
0.00786769
0.0077131
0.00755842
0.0074037
0.00724893
0.00709415
0.00693937
0.0067846
0.00662986
0.00647516
0.00632052
0.00616595
0.00601144
0.00585703
0.00570271
0.00554849
0.00539439
0.00524039
0.00508652
0.00493278
0.00477916
0.00462567
0.00447232
0.00431911
0.00416603
0.00401309
0.00386028
0.00370762
0.00355509
0.00340269
0.00325043
0.00309829
0.00294628
0.00279439
0.00264262
0.00249096
0.00233942
0.00218797
0.00203663
0.00188538
0.00173422
0.00158314
0.00143213
0.00128119
0.00113032
0.000979494
0.000828721
0.000677988
0.00052729
0.000376617
0.000225963
7.53196e-05
9.10491e-05
0.000273153
0.000455273
0.000637422
0.000819608
0.00100184
0.00118414
0.00136651
0.00154896
0.0017315
0.00191414
0.00209689
0.00227977
0.00246278
0.00264593
0.00282922
0.00301268
0.0031963
0.00338009
0.00356406
0.00374823
0.00393258
0.00411714
0.0043019
0.00448687
0.00467206
0.00485747
0.00504309
0.00522894
0.00541502
0.00560132
0.00578784
0.00597459
0.00616156
0.00634876
0.00653617
0.00672379
0.00691162
0.00709965
0.00728787
0.00747627
0.00766485
0.00785359
0.00804247
0.0082315
0.00842064
0.00860988
0.00879922
0.00898861
0.00917805
0.00936752
0.00955698
0.00974641
0.00993578
0.0101251
0.0103142
0.0105033
0.0106921
0.0108807
0.0110691
0.0112571
0.0114448
0.0116322
0.011819
0.0120054
0.0121913
0.0123766
0.0125612
0.0127452
0.0129284
0.0131107
0.0132922
0.0134728
0.0136523
0.0138307
0.014008
0.0141841
0.0143588
0.0145322
0.0147041
0.0148745
0.0150433
0.0152103
0.0153756
0.015539
0.0157004
0.0158598
0.016017
0.016172
0.0163247
0.016475
0.0166227
0.0167678
0.0169103
0.0170499
0.0171867
0.0173205
0.0174512
0.0175787
0.017703
0.0178239
0.0179414
0.0180553
0.0181657
0.0182723
0.0183751
0.0184741
0.0185691
0.0186601
0.018747
0.0188297
0.0189081
0.0189823
0.0190521
0.0191174
0.0191783
0.0192346
0.0192863
0.0193334
0.0193758
0.0194135
0.0194465
0.0194747
0.0194981
0.0195167
0.0195305
0.0195394
0.0195435
0.0195428
0.0195372
0.0195268
0.0195116
0.0194916
0.0194668
0.0194373
0.019403
0.0193641
0.0193205
0.0192723
0.0192196
0.0191624
0.0191007
0.0190346
0.0189642
0.0188895
0.0188106
0.0187276
0.0186405
0.0185494
0.0184544
0.0183556
0.018253
0.0181467
0.0180369
0.0179235
0.0178068
0.0176867
0.0175633
0.0174368
0.0173073
0.0171747
0.0170393
0.0169011
0.0167602
0.0166166
0.0164705
0.016322
0.0161711
0.016018
0.0158626
0.0157052
0.0155457
0.0153844
0.0152212
0.0150562
0.0148895
0.0147212
0.0145514
0.0143801
0.0142074
0.0140334
0.0138582
0.0136817
0.0135042
0.0133256
0.013146
0.0129655
0.0127842
0.012602
0.0124191
0.0122354
0.0120511
0.0118662
0.0116808
0.0114948
0.0113084
0.0111216
0.0109344
0.0107468
0.010559
0.0103708
0.0101825
0.00999389
0.00980515
0.00961627
0.00942727
0.00923819
0.00904904
0.00885985
0.00867064
0.00848142
0.00829223
0.00810308
0.00791398
0.00772495
0.007536
0.00734715
0.0071584
0.00696977
0.00678127
0.00659291
0.00640468
0.00621661
0.00602869
0.00584093
0.00565333
0.0054659
0.00527863
0.00509153
0.00490461
0.00471785
0.00453126
0.00434484
0.00415858
0.00397248
0.00378654
0.00360076
0.00341513
0.00322964
0.00304429
0.00285907
0.00267399
0.00248902
0.00230417
0.00211943
0.00193479
0.00175024
0.00156577
0.00138138
0.00119706
0.0010128
0.000828585
0.000644412
0.000460271
0.000276154
9.20497e-05
0.00010759
0.000322778
0.000537985
0.000753225
0.000968511
0.00118386
0.00139927
0.00161477
0.00183037
0.00204607
0.0022619
0.00247786
0.00269397
0.00291022
0.00312665
0.00334325
0.00356004
0.00377703
0.00399423
0.00421163
0.00442926
0.00464713
0.00486523
0.00508357
0.00530216
0.00552101
0.00574012
0.00595949
0.00617913
0.00639903
0.0066192
0.00683965
0.00706035
0.00728133
0.00750257
0.00772406
0.00794581
0.0081678
0.00839004
0.0086125
0.00883519
0.00905808
0.00928116
0.00950442
0.00972785
0.00995142
0.0101751
0.0103989
0.0106228
0.0108467
0.0110707
0.0112947
0.0115186
0.0117425
0.0119663
0.0121899
0.0124134
0.0126366
0.0128596
0.0130823
0.0133047
0.0135266
0.0137481
0.0139691
0.0141895
0.0144093
0.0146284
0.0148468
0.0150643
0.0152809
0.0154966
0.0157112
0.0159248
0.0161371
0.0163481
0.0165578
0.0167661
0.0169728
0.0171779
0.0173812
0.0175828
0.0177824
0.0179801
0.0181756
0.0183689
0.0185599
0.0187485
0.0189345
0.0191179
0.0192985
0.0194763
0.0196512
0.0198229
0.0199915
0.0201567
0.0203186
0.0204769
0.0206316
0.0207825
0.0209296
0.0210727
0.0212118
0.0213467
0.0214773
0.0216035
0.0217252
0.0218423
0.0219548
0.0220625
0.0221654
0.0222633
0.0223562
0.0224439
0.0225265
0.0226039
0.0226759
0.0227426
0.0228039
0.0228596
0.0229098
0.0229545
0.0229935
0.0230269
0.0230546
0.0230766
0.0230929
0.0231035
0.0231083
0.0231074
0.0231008
0.0230885
0.0230705
0.0230468
0.0230174
0.0229825
0.0229419
0.0228958
0.0228442
0.0227871
0.0227247
0.0226569
0.0225839
0.0225057
0.0224223
0.0223339
0.0222405
0.0221422
0.0220391
0.0219313
0.0218188
0.0217018
0.0215804
0.0214546
0.0213246
0.0211904
0.0210522
0.0209101
0.0207641
0.0206144
0.0204611
0.0203042
0.020144
0.0199804
0.0198136
0.0196438
0.0194709
0.0192952
0.0191167
0.0189355
0.0187517
0.0185654
0.0183768
0.0181859
0.0179928
0.0177976
0.0176005
0.0174014
0.0172005
0.0169979
0.0167937
0.0165879
0.0163806
0.016172
0.015962
0.0157508
0.0155384
0.015325
0.0151105
0.0148951
0.0146787
0.0144616
0.0142437
0.0140251
0.0138058
0.0135859
0.0133655
0.0131446
0.0129233
0.0127015
0.0124794
0.012257
0.0120343
0.0118114
0.0115883
0.011365
0.0111415
0.010918
0.0106944
0.0104708
0.0102471
0.0100235
0.00979983
0.00957625
0.00935273
0.0091293
0.00890596
0.00868275
0.00845966
0.00823671
0.00801392
0.00779128
0.00756882
0.00734654
0.00712444
0.00690253
0.00668082
0.0064593
0.00623799
0.00601687
0.00579596
0.00557524
0.00535473
0.00513442
0.0049143
0.00469438
0.00447464
0.00425509
0.00403572
0.00381651
0.00359748
0.00337861
0.00315988
0.0029413
0.00272286
0.00250455
0.00228635
0.00206827
0.00185028
0.00163239
0.00141457
0.00119683
0.00097914
0.000761502
0.000543903
0.000326331
0.000108775
0.000124125
0.000372383
0.000620664
0.000868983
0.00111736
0.0013658
0.00161432
0.00186294
0.00211167
0.00236053
0.00260953
0.00285868
0.003108
0.0033575
0.0036072
0.0038571
0.00410722
0.00435756
0.00460815
0.00485898
0.00511007
0.00536143
0.00561307
0.00586499
0.0061172
0.0063697
0.00662251
0.00687562
0.00712905
0.00738278
0.00763683
0.00789118
0.00814585
0.00840083
0.00865612
0.0089117
0.00916758
0.00942375
0.0096802
0.00993692
0.0101939
0.0104511
0.0107086
0.0109662
0.0112241
0.0114821
0.0117403
0.0119985
0.0122569
0.0125154
0.0127739
0.0130324
0.0132909
0.0135493
0.0138076
0.0140658
0.0143237
0.0145815
0.0148389
0.015096
0.0153527
0.0156089
0.0158646
0.0161197
0.0163742
0.016628
0.016881
0.0171331
0.0173843
0.0176344
0.0178835
0.0181314
0.0183779
0.0186232
0.0188669
0.0191091
0.0193496
0.0195884
0.0198253
0.0200602
0.020293
0.0205236
0.0207519
0.0209778
0.0212011
0.0214218
0.0216397
0.0218546
0.0220665
0.0222752
0.0224807
0.0226827
0.0228812
0.023076
0.023267
0.023454
0.023637
0.0238158
0.0239902
0.0241602
0.0243257
0.0244864
0.0246423
0.0247932
0.0249391
0.0250798
0.0252153
0.0253453
0.0254698
0.0255887
0.0257019
0.0258093
0.0259108
0.0260063
0.0260957
0.026179
0.0262561
0.0263269
0.0263913
0.0264494
0.026501
0.0265461
0.0265847
0.0266168
0.0266422
0.026661
0.0266733
0.0266789
0.0266778
0.0266702
0.0266559
0.0266351
0.0266076
0.0265737
0.0265332
0.0264863
0.026433
0.0263733
0.0263074
0.0262351
0.0261568
0.0260723
0.0259819
0.0258855
0.0257832
0.0256752
0.0255616
0.0254424
0.0253177
0.0251877
0.0250525
0.0249121
0.0247668
0.0246165
0.0244614
0.0243017
0.0241374
0.0239687
0.0237956
0.0236184
0.0234372
0.023252
0.0230629
0.0228702
0.022674
0.0224742
0.0222712
0.0220649
0.0218556
0.0216432
0.0214281
0.0212102
0.0209896
0.0207666
0.0205411
0.0203134
0.0200834
0.0198514
0.0196174
0.0193815
0.0191438
0.0189045
0.0186635
0.018421
0.0181771
0.0179319
0.0176854
0.0174378
0.017189
0.0169392
0.0166885
0.0164369
0.0161845
0.0159314
0.0156775
0.0154231
0.0151681
0.0149125
0.0146566
0.0144002
0.0141434
0.0138864
0.0136291
0.0133715
0.0131138
0.0128559
0.0125979
0.0123399
0.0120817
0.0118236
0.0115655
0.0113074
0.0110493
0.0107914
0.0105335
0.0102758
0.0100182
0.00976077
0.0095035
0.0092464
0.00898949
0.00873278
0.00847629
0.00822
0.00796394
0.00770811
0.00745251
0.00719714
0.00694201
0.00668711
0.00643244
0.00617801
0.00592381
0.00566984
0.00541609
0.00516256
0.00490924
0.00465613
0.00440323
0.00415051
0.00389798
0.00364563
0.00339345
0.00314142
0.00288955
0.00263781
0.0023862
0.0021347
0.00188331
0.00163201
0.00138079
0.00112965
0.000878555
0.000627507
0.000376492
0.000125495
0.000140652
0.000421966
0.000703305
0.000984688
0.00126613
0.00154765
0.00182927
0.00211099
0.00239285
0.00267485
0.002957
0.00323934
0.00352186
0.00380459
0.00408754
0.00437073
0.00465416
0.00493785
0.00522182
0.00550606
0.00579061
0.00607546
0.00636063
0.00664611
0.00693193
0.00721809
0.0075046
0.00779145
0.00807865
0.00836621
0.00865413
0.00894241
0.00923104
0.00952003
0.00980936
0.010099
0.0103891
0.0106794
0.0109701
0.0112611
0.0115524
0.0118439
0.0121357
0.0124278
0.0127201
0.0130126
0.0133053
0.0135981
0.013891
0.014184
0.0144771
0.0147702
0.0150632
0.0153562
0.0156491
0.0159418
0.0162343
0.0165265
0.0168185
0.01711
0.0174011
0.0176917
0.0179817
0.018271
0.0185596
0.0188475
0.0191344
0.0194204
0.0197053
0.0199891
0.0202716
0.0205528
0.0208325
0.0211107
0.0213872
0.021662
0.0219349
0.0222058
0.0224746
0.0227412
0.0230054
0.0232671
0.0235262
0.0237826
0.024036
0.0242865
0.0245338
0.0247777
0.0250183
0.0252552
0.0254885
0.0257178
0.0259431
0.0261643
0.0263811
0.0265935
0.0268013
0.0270043
0.0272024
0.0273954
0.0275833
0.0277658
0.0279428
0.0281143
0.02828
0.0284398
0.0285936
0.0287413
0.0288827
0.0290178
0.0291463
0.0292683
0.0293836
0.0294921
0.0295937
0.0296883
0.0297758
0.0298562
0.0299295
0.0299954
0.030054
0.0301053
0.0301491
0.0301855
0.0302144
0.0302358
0.0302497
0.030256
0.0302548
0.0302461
0.0302299
0.0302062
0.030175
0.0301364
0.0300905
0.0300372
0.0299766
0.0299088
0.0298338
0.0297518
0.0296627
0.0295668
0.029464
0.0293545
0.0292383
0.0291156
0.0289866
0.0288512
0.0287096
0.0285619
0.0284083
0.0282489
0.0280838
0.0279131
0.027737
0.0275556
0.0273691
0.0271775
0.026981
0.0267798
0.026574
0.0263638
0.0261492
0.0259304
0.0257076
0.0254809
0.0252504
0.0250162
0.0247786
0.0245376
0.0242934
0.0240461
0.0237959
0.0235427
0.0232869
0.0230285
0.0227676
0.0225043
0.0222388
0.0219711
0.0217015
0.0214299
0.0211566
0.0208815
0.0206048
0.0203266
0.0200471
0.0197661
0.019484
0.0192007
0.0189163
0.018631
0.0183447
0.0180576
0.0177698
0.0174812
0.017192
0.0169023
0.016612
0.0163213
0.0160302
0.0157387
0.015447
0.015155
0.0148628
0.0145704
0.0142779
0.0139853
0.0136927
0.0134001
0.0131074
0.0128149
0.0125224
0.01223
0.0119377
0.0116455
0.0113535
0.0110617
0.0107701
0.0104787
0.0101875
0.00989654
0.00960582
0.00931535
0.00902513
0.00873517
0.00844548
0.00815606
0.00786691
0.00757802
0.0072894
0.00700105
0.00671297
0.00642515
0.00613758
0.00585026
0.00556319
0.00527635
0.00498974
0.00470336
0.00441719
0.00413121
0.00384544
0.00355984
0.00327441
0.00298913
0.00270401
0.00241901
0.00213414
0.00184937
0.00156469
0.0012801
0.000995563
0.00071108
0.000426634
0.000142209
0.000157171
0.000471522
0.000785903
0.00110033
0.00141483
0.00172941
0.0020441
0.00235892
0.00267388
0.002989
0.0033043
0.0036198
0.00393551
0.00425146
0.00456765
0.00488411
0.00520084
0.00551787
0.0058352
0.00615286
0.00647084
0.00678917
0.00710786
0.00742691
0.00774633
0.00806614
0.00838633
0.00870692
0.0090279
0.00934929
0.00967108
0.00999328
0.0103159
0.0106389
0.0109623
0.0112861
0.0116102
0.0119348
0.0122597
0.0125849
0.0129105
0.0132365
0.0135627
0.0138892
0.0142159
0.0145429
0.0148701
0.0151975
0.015525
0.0158526
0.0161803
0.016508
0.0168356
0.0171632
0.0174907
0.0178181
0.0181452
0.018472
0.0187984
0.0191245
0.01945
0.019775
0.0200994
0.020423
0.0207459
0.0210678
0.0213888
0.0217087
0.0220274
0.0223449
0.022661
0.0229756
0.0232886
0.0235999
0.0239093
0.0242168
0.0245222
0.0248254
0.0251262
0.0254246
0.0257203
0.0260132
0.0263032
0.0265902
0.026874
0.0271543
0.0274312
0.0277043
0.0279737
0.028239
0.0285001
0.0287569
0.0290093
0.0292569
0.0294998
0.0297376
0.0299703
0.0301977
0.0304195
0.0306358
0.0308462
0.0310507
0.031249
0.0314411
0.0316267
0.0318057
0.0319781
0.0321435
0.032302
0.0324533
0.0325973
0.032734
0.0328632
0.0329847
0.0330986
0.0332046
0.0333027
0.0333928
0.0334749
0.0335488
0.0336145
0.0336719
0.033721
0.0337617
0.0337941
0.0338181
0.0338336
0.0338407
0.0338393
0.0338296
0.0338114
0.0337848
0.0337498
0.0337066
0.033655
0.0335953
0.0335273
0.0334513
0.0333673
0.0332754
0.0331756
0.033068
0.0329528
0.0328301
0.0326999
0.0325625
0.0324178
0.0322661
0.0321075
0.0319421
0.03177
0.0315914
0.0314064
0.0312152
0.0310179
0.0308147
0.0306058
0.0303912
0.0301712
0.0299458
0.0297153
0.0294799
0.0292396
0.0289946
0.0287451
0.0284913
0.0282332
0.0279711
0.0277051
0.0274353
0.0271619
0.0268851
0.0266049
0.0263216
0.0260353
0.025746
0.025454
0.0251594
0.0248623
0.0245628
0.0242611
0.0239572
0.0236513
0.0233436
0.023034
0.0227228
0.02241
0.0220957
0.0217801
0.0214632
0.0211451
0.020826
0.0205058
0.0201847
0.0198627
0.01954
0.0192166
0.0188925
0.0185679
0.0182428
0.0179173
0.0175914
0.0172651
0.0169386
0.0166119
0.016285
0.015958
0.0156309
0.0153037
0.0149765
0.0146494
0.0143223
0.0139953
0.0136684
0.0133417
0.0130151
0.0126887
0.0123625
0.0120365
0.0117108
0.0113853
0.0110601
0.0107351
0.0104104
0.0100861
0.00976197
0.00943819
0.00911471
0.00879154
0.00846867
0.0081461
0.00782384
0.00750187
0.0071802
0.00685882
0.00653772
0.00621689
0.00589634
0.00557604
0.00525599
0.00493619
0.00461661
0.00429724
0.00397808
0.00365911
0.00334032
0.00302169
0.00270321
0.00238486
0.00206664
0.00174851
0.00143048
0.00111252
0.000794617
0.000476754
0.000158915
0.000173679
0.000521049
0.000868452
0.00121591
0.00156344
0.00191107
0.00225882
0.0026067
0.00295475
0.00330297
0.0036514
0.00400005
0.00434893
0.00469808
0.00504749
0.00539721
0.00574723
0.00609758
0.00644827
0.00679931
0.00715073
0.00750253
0.00785473
0.00820733
0.00856035
0.00891379
0.00926767
0.00962199
0.00997675
0.010332
0.0106876
0.0110437
0.0114003
0.0117573
0.0121148
0.0124727
0.012831
0.0131897
0.0135489
0.0139085
0.0142684
0.0146287
0.0149893
0.0153503
0.0157115
0.016073
0.0164348
0.0167967
0.0171589
0.0175211
0.0178834
0.0182458
0.0186081
0.0189704
0.0193326
0.0196945
0.0200563
0.0204177
0.0207788
0.0211394
0.0214995
0.021859
0.0222178
0.0225758
0.022933
0.0232891
0.0236443
0.0239982
0.0243509
0.0247021
0.0250519
0.0254
0.0257464
0.0260909
0.0264334
0.0267737
0.0271117
0.0274473
0.0277803
0.0281106
0.0284379
0.0287622
0.0290833
0.0294011
0.0297152
0.0300257
0.0303323
0.0306348
0.030933
0.0312269
0.0315161
0.0318005
0.03208
0.0323544
0.0326234
0.0328869
0.0331446
0.0333965
0.0336424
0.033882
0.0341151
0.0343417
0.0345615
0.0347743
0.03498
0.0351784
0.0353694
0.0355528
0.0357284
0.0358961
0.0360557
0.0362072
0.0363504
0.0364851
0.0366113
0.0367288
0.0368376
0.0369375
0.0370284
0.0371103
0.0371831
0.0372468
0.0373012
0.0373464
0.0373822
0.0374088
0.037426
0.0374338
0.0374323
0.0374214
0.0374012
0.0373717
0.037333
0.037285
0.0372278
0.0371615
0.0370862
0.0370019
0.0369088
0.0368068
0.0366962
0.0365769
0.0364492
0.0363132
0.0361689
0.0360165
0.0358562
0.035688
0.0355122
0.0353288
0.0351381
0.0349402
0.0347352
0.0345233
0.0343047
0.0340796
0.0338481
0.0336104
0.0333666
0.033117
0.0328617
0.0326008
0.0323347
0.0320633
0.031787
0.0315059
0.0312201
0.0309298
0.0306352
0.0303365
0.0300338
0.0297273
0.0294172
0.0291035
0.0287865
0.0284663
0.0281431
0.027817
0.0274881
0.0271567
0.0268227
0.0264865
0.026148
0.0258074
0.0254649
0.0251205
0.0247744
0.0244267
0.0240775
0.0237269
0.023375
0.0230219
0.0226678
0.0223126
0.0219564
0.0215995
0.0212417
0.0208833
0.0205243
0.0201648
0.0198048
0.0194443
0.0190836
0.0187225
0.0183612
0.0179997