/*--------------------------------*- C++ -*----------------------------------*\
| =========                 |                                                 |
| \\      /  F ield         | OpenFOAM: The Open Source CFD Toolbox           |
|  \\    /   O peration     | Version:  v2012                                 |
|   \\  /    A nd           | Website:  www.openfoam.com                      |
|    \\/     M anipulation  |                                                 |
\*---------------------------------------------------------------------------*/
FoamFile
{
    version     2.0;
    format      ascii;
    class       volVectorField;
    location    "16.5";
    object      U;
}
// * * * * * * * * * * * * * * * * * * * * * * * * * * * * * * * * * * * * * //

dimensions      [0 1 -1 0 0 0 0];


internalField   nonuniform List<vector> 
65536
(
(0.000675135 -0.000675155 0)
(0.00202545 -0.000675196 0)
(0.00337588 -0.000675278 0)
(0.00472652 -0.000675399 0)
(0.00607744 -0.000675561 0)
(0.00742873 -0.000675762 0)
(0.00878045 -0.000676003 0)
(0.0101327 -0.000676283 0)
(0.0114855 -0.000676601 0)
(0.0128391 -0.000676956 0)
(0.0141933 -0.000677349 0)
(0.0155484 -0.000677777 0)
(0.0169044 -0.000678241 0)
(0.0182614 -0.000678738 0)
(0.0196193 -0.000679269 0)
(0.0209784 -0.000679831 0)
(0.0223386 -0.000680424 0)
(0.0237001 -0.000681045 0)
(0.0250628 -0.000681694 0)
(0.0264268 -0.000682369 0)
(0.0277922 -0.000683069 0)
(0.0291591 -0.00068379 0)
(0.0305274 -0.000684532 0)
(0.0318972 -0.000685292 0)
(0.0332685 -0.000686068 0)
(0.0346415 -0.000686858 0)
(0.036016 -0.00068766 0)
(0.0373921 -0.000688471 0)
(0.0387698 -0.000689288 0)
(0.0401492 -0.000690108 0)
(0.0415303 -0.000690929 0)
(0.042913 -0.000691748 0)
(0.0442973 -0.000692562 0)
(0.0456832 -0.000693366 0)
(0.0470708 -0.000694158 0)
(0.0484599 -0.000694934 0)
(0.0498505 -0.000695691 0)
(0.0512427 -0.000696424 0)
(0.0526362 -0.00069713 0)
(0.0540312 -0.000697803 0)
(0.0554275 -0.000698441 0)
(0.056825 -0.000699038 0)
(0.0582237 -0.00069959 0)
(0.0596234 -0.000700092 0)
(0.0610241 -0.000700539 0)
(0.0624256 -0.000700926 0)
(0.0638279 -0.000701247 0)
(0.0652307 -0.000701498 0)
(0.066634 -0.000701672 0)
(0.0680375 -0.000701764 0)
(0.0694411 -0.000701767 0)
(0.0708446 -0.000701677 0)
(0.0722479 -0.000701486 0)
(0.0736507 -0.000701189 0)
(0.0750528 -0.000700779 0)
(0.0764539 -0.000700248 0)
(0.0778539 -0.000699591 0)
(0.0792524 -0.000698801 0)
(0.0806492 -0.00069787 0)
(0.0820441 -0.000696792 0)
(0.0834366 -0.000695559 0)
(0.0848265 -0.000694164 0)
(0.0862134 -0.000692599 0)
(0.087597 -0.000690857 0)
(0.088977 -0.000688931 0)
(0.0903529 -0.000686813 0)
(0.0917245 -0.000684496 0)
(0.0930911 -0.000681971 0)
(0.0944526 -0.000679231 0)
(0.0958083 -0.000676269 0)
(0.0971579 -0.000673077 0)
(0.0985008 -0.000669647 0)
(0.0998367 -0.000665972 0)
(0.101165 -0.000662045 0)
(0.102485 -0.000657859 0)
(0.103797 -0.000653405 0)
(0.105099 -0.000648678 0)
(0.106392 -0.00064367 0)
(0.107674 -0.000638375 0)
(0.108945 -0.000632786 0)
(0.110205 -0.000626898 0)
(0.111453 -0.000620704 0)
(0.112689 -0.000614199 0)
(0.11391 -0.000607378 0)
(0.115118 -0.000600235 0)
(0.116312 -0.000592766 0)
(0.11749 -0.000584967 0)
(0.118652 -0.000576835 0)
(0.119797 -0.000568365 0)
(0.120926 -0.000559556 0)
(0.122036 -0.000550404 0)
(0.123128 -0.000540909 0)
(0.1242 -0.000531069 0)
(0.125252 -0.000520883 0)
(0.126284 -0.00051035 0)
(0.127294 -0.000499473 0)
(0.128282 -0.000488251 0)
(0.129247 -0.000476687 0)
(0.130189 -0.000464783 0)
(0.131107 -0.000452541 0)
(0.132 -0.000439967 0)
(0.132867 -0.000427063 0)
(0.133708 -0.000413836 0)
(0.134523 -0.00040029 0)
(0.13531 -0.000386434 0)
(0.136069 -0.000372273 0)
(0.136799 -0.000357815 0)
(0.1375 -0.000343069 0)
(0.138172 -0.000328045 0)
(0.138813 -0.000312752 0)
(0.139423 -0.0002972 0)
(0.140002 -0.000281401 0)
(0.140549 -0.000265366 0)
(0.141063 -0.000249107 0)
(0.141545 -0.000232639 0)
(0.141994 -0.000215972 0)
(0.142409 -0.000199123 0)
(0.142791 -0.000182104 0)
(0.143138 -0.000164931 0)
(0.143451 -0.000147618 0)
(0.143729 -0.000130182 0)
(0.143972 -0.000112637 0)
(0.144179 -9.50004e-05 0)
(0.144352 -7.72877e-05 0)
(0.144489 -5.95155e-05 0)
(0.14459 -4.17003e-05 0)
(0.144655 -2.38587e-05 0)
(0.144685 -6.00737e-06 0)
(0.144679 1.18371e-05 0)
(0.144638 2.9658e-05 0)
(0.144561 4.74389e-05 0)
(0.144448 6.51635e-05 0)
(0.1443 8.28157e-05 0)
(0.144117 0.000100379 0)
(0.143898 0.000117839 0)
(0.143645 0.000135179 0)
(0.143357 0.000152385 0)
(0.143035 0.000169443 0)
(0.14268 0.000186336 0)
(0.14229 0.000203054 0)
(0.141867 0.000219581 0)
(0.141411 0.000235905 0)
(0.140923 0.000252015 0)
(0.140403 0.000267898 0)
(0.139851 0.000283543 0)
(0.139269 0.000298941 0)
(0.138655 0.00031408 0)
(0.138012 0.000328953 0)
(0.137339 0.000343551 0)
(0.136638 0.000357864 0)
(0.135908 0.000371888 0)
(0.13515 0.000385614 0)
(0.134365 0.000399036 0)
(0.133553 0.000412151 0)
(0.132716 0.000424951 0)
(0.131853 0.000437435 0)
(0.130966 0.000449598 0)
(0.130054 0.000461437 0)
(0.12912 0.000472951 0)
(0.128162 0.000484137 0)
(0.127183 0.000494996 0)
(0.126182 0.000505525 0)
(0.12516 0.000515725 0)
(0.124119 0.000525597 0)
(0.123058 0.000535142 0)
(0.121978 0.000544362 0)
(0.12088 0.000553257 0)
(0.119765 0.000561832 0)
(0.118632 0.000570088 0)
(0.117484 0.00057803 0)
(0.11632 0.00058566 0)
(0.115141 0.000592982 0)
(0.113948 0.000600001 0)
(0.112741 0.000606722 0)
(0.11152 0.000613148 0)
(0.110288 0.000619287 0)
(0.109043 0.000625142 0)
(0.107787 0.000630719 0)
(0.10652 0.000636024 0)
(0.105243 0.000641064 0)
(0.103955 0.000645844 0)
(0.102659 0.00065037 0)
(0.101354 0.000654648 0)
(0.10004 0.000658687 0)
(0.0987187 0.00066249 0)
(0.0973899 0.000666067 0)
(0.0960542 0.000669422 0)
(0.094712 0.000672563 0)
(0.0933637 0.000675496 0)
(0.0920098 0.000678229 0)
(0.0906506 0.000680768 0)
(0.0892865 0.000683119 0)
(0.087918 0.000685289 0)
(0.0865452 0.000687286 0)
(0.0851686 0.000689115 0)
(0.0837886 0.000690784 0)
(0.0824054 0.000692298 0)
(0.0810192 0.000693664 0)
(0.0796306 0.000694889 0)
(0.0782396 0.000695978 0)
(0.0768465 0.000696938 0)
(0.0754517 0.000697776 0)
(0.0740553 0.000698496 0)
(0.0726576 0.000699105 0)
(0.0712588 0.000699608 0)
(0.0698591 0.000700012 0)
(0.0684586 0.000700322 0)
(0.0670577 0.000700542 0)
(0.0656564 0.000700679 0)
(0.0642549 0.000700738 0)
(0.0628534 0.000700724 0)
(0.0614519 0.000700641 0)
(0.0600507 0.000700495 0)
(0.0586499 0.000700289 0)
(0.0572495 0.00070003 0)
(0.0558497 0.00069972 0)
(0.0544506 0.000699365 0)
(0.0530522 0.000698968 0)
(0.0516547 0.000698534 0)
(0.0502581 0.000698067 0)
(0.0488624 0.000697569 0)
(0.0474678 0.000697046 0)
(0.0460742 0.0006965 0)
(0.0446817 0.000695935 0)
(0.0432904 0.000695354 0)
(0.0419003 0.000694761 0)
(0.0405114 0.000694157 0)
(0.0391237 0.000693548 0)
(0.0377372 0.000692934 0)
(0.0363519 0.00069232 0)
(0.0349679 0.000691707 0)
(0.0335851 0.000691097 0)
(0.0322035 0.000690495 0)
(0.0308231 0.000689901 0)
(0.0294439 0.000689317 0)
(0.0280659 0.000688747 0)
(0.026689 0.000688191 0)
(0.0253131 0.000687652 0)
(0.0239384 0.000687132 0)
(0.0225646 0.000686631 0)
(0.0211919 0.000686152 0)
(0.0198201 0.000685696 0)
(0.0184491 0.000685265 0)
(0.017079 0.000684859 0)
(0.0157097 0.000684479 0)
(0.0143411 0.000684128 0)
(0.0129732 0.000683806 0)
(0.0116059 0.000683513 0)
(0.0102392 0.000683251 0)
(0.00887298 0.00068302 0)
(0.00750717 0.000682821 0)
(0.00614173 0.000682655 0)
(0.00477659 0.000682521 0)
(0.00341168 0.00068242 0)
(0.00204694 0.000682353 0)
(0.000682302 0.000682319 0)
(0.000675096 -0.00202543 0)
(0.00202533 -0.00202555 0)
(0.00337568 -0.00202579 0)
(0.00472624 -0.00202616 0)
(0.00607708 -0.00202664 0)
(0.00742829 -0.00202725 0)
(0.00877994 -0.00202797 0)
(0.0101321 -0.00202881 0)
(0.0114849 -0.00202977 0)
(0.0128383 -0.00203083 0)
(0.0141925 -0.00203201 0)
(0.0155475 -0.0020333 0)
(0.0169035 -0.00203469 0)
(0.0182603 -0.00203618 0)
(0.0196183 -0.00203778 0)
(0.0209773 -0.00203946 0)
(0.0223374 -0.00204124 0)
(0.0236988 -0.00204311 0)
(0.0250615 -0.00204506 0)
(0.0264255 -0.00204709 0)
(0.0277908 -0.00204919 0)
(0.0291576 -0.00205135 0)
(0.0305259 -0.00205358 0)
(0.0318957 -0.00205586 0)
(0.033267 -0.00205819 0)
(0.0346399 -0.00206057 0)
(0.0360144 -0.00206297 0)
(0.0373905 -0.00206541 0)
(0.0387682 -0.00206786 0)
(0.0401476 -0.00207033 0)
(0.0415287 -0.00207279 0)
(0.0429114 -0.00207525 0)
(0.0442957 -0.0020777 0)
(0.0456816 -0.00208011 0)
(0.0470692 -0.00208249 0)
(0.0484584 -0.00208482 0)
(0.0498491 -0.0020871 0)
(0.0512412 -0.0020893 0)
(0.0526349 -0.00209142 0)
(0.0540299 -0.00209345 0)
(0.0554263 -0.00209537 0)
(0.0568239 -0.00209716 0)
(0.0582227 -0.00209882 0)
(0.0596225 -0.00210033 0)
(0.0610233 -0.00210168 0)
(0.062425 -0.00210284 0)
(0.0638273 -0.00210381 0)
(0.0652303 -0.00210457 0)
(0.0666337 -0.0021051 0)
(0.0680374 -0.00210538 0)
(0.0694412 -0.0021054 0)
(0.070845 -0.00210513 0)
(0.0722484 -0.00210457 0)
(0.0736514 -0.00210368 0)
(0.0750538 -0.00210246 0)
(0.0764552 -0.00210087 0)
(0.0778554 -0.00209891 0)
(0.0792542 -0.00209655 0)
(0.0806513 -0.00209376 0)
(0.0820464 -0.00209053 0)
(0.0834392 -0.00208684 0)
(0.0848295 -0.00208266 0)
(0.0862167 -0.00207797 0)
(0.0876007 -0.00207276 0)
(0.0889811 -0.00206699 0)
(0.0903574 -0.00206064 0)
(0.0917294 -0.00205369 0)
(0.0930965 -0.00204613 0)
(0.0944583 -0.00203792 0)
(0.0958145 -0.00202904 0)
(0.0971645 -0.00201947 0)
(0.098508 -0.00200919 0)
(0.0998444 -0.00199817 0)
(0.101173 -0.0019864 0)
(0.102494 -0.00197384 0)
(0.103806 -0.00196049 0)
(0.105109 -0.00194631 0)
(0.106402 -0.0019313 0)
(0.107685 -0.00191542 0)
(0.108957 -0.00189866 0)
(0.110218 -0.001881 0)
(0.111466 -0.00186242 0)
(0.112702 -0.00184291 0)
(0.113924 -0.00182245 0)
(0.115133 -0.00180103 0)
(0.116327 -0.00177863 0)
(0.117506 -0.00175523 0)
(0.118669 -0.00173084 0)
(0.119815 -0.00170543 0)
(0.120944 -0.00167901 0)
(0.122055 -0.00165156 0)
(0.123147 -0.00162307 0)
(0.12422 -0.00159355 0)
(0.125273 -0.00156299 0)
(0.126305 -0.00153139 0)
(0.127316 -0.00149876 0)
(0.128305 -0.00146509 0)
(0.129271 -0.0014304 0)
(0.130213 -0.00139468 0)
(0.131132 -0.00135795 0)
(0.132025 -0.00132023 0)
(0.132893 -0.00128151 0)
(0.133735 -0.00124182 0)
(0.13455 -0.00120118 0)
(0.135338 -0.0011596 0)
(0.136097 -0.00111711 0)
(0.136828 -0.00107373 0)
(0.13753 -0.00102948 0)
(0.138202 -0.000984401 0)
(0.138844 -0.000938511 0)
(0.139454 -0.000891844 0)
(0.140034 -0.000844435 0)
(0.140581 -0.000796318 0)
(0.141096 -0.00074753 0)
(0.141579 -0.00069811 0)
(0.142028 -0.000648097 0)
(0.142443 -0.000597534 0)
(0.142825 -0.000546463 0)
(0.143173 -0.000494928 0)
(0.143486 -0.000442975 0)
(0.143764 -0.00039065 0)
(0.144007 -0.000338 0)
(0.144215 -0.000285074 0)
(0.144387 -0.000231919 0)
(0.144524 -0.000178586 0)
(0.144625 -0.000125124 0)
(0.144691 -7.15824e-05 0)
(0.144721 -1.80118e-05 0)
(0.144715 3.55381e-05 0)
(0.144673 8.90173e-05 0)
(0.144596 0.000142376 0)
(0.144483 0.000195566 0)
(0.144335 0.000248539 0)
(0.144152 0.000301246 0)
(0.143933 0.00035364 0)
(0.14368 0.000405676 0)
(0.143392 0.000457309 0)
(0.143069 0.000508494 0)
(0.142713 0.000559189 0)
(0.142323 0.000609354 0)
(0.1419 0.000658948 0)
(0.141444 0.000707934 0)
(0.140955 0.000756274 0)
(0.140435 0.000803934 0)
(0.139882 0.000850881 0)
(0.139299 0.000897083 0)
(0.138685 0.000942511 0)
(0.138042 0.000987138 0)
(0.137368 0.00103094 0)
(0.136666 0.00107389 0)
(0.135935 0.00111596 0)
(0.135177 0.00115715 0)
(0.134391 0.00119742 0)
(0.133579 0.00123677 0)
(0.132741 0.00127517 0)
(0.131878 0.00131263 0)
(0.13099 0.00134912 0)
(0.130078 0.00138464 0)
(0.129142 0.00141918 0)
(0.128184 0.00145274 0)
(0.127204 0.00148532 0)
(0.126203 0.0015169 0)
(0.12518 0.00154751 0)
(0.124138 0.00157712 0)
(0.123076 0.00160575 0)
(0.121996 0.00163341 0)
(0.120897 0.0016601 0)
(0.119781 0.00168582 0)
(0.118648 0.00171058 0)
(0.117499 0.0017344 0)
(0.116335 0.00175729 0)
(0.115155 0.00177925 0)
(0.113961 0.0018003 0)
(0.112754 0.00182046 0)
(0.111533 0.00183973 0)
(0.1103 0.00185814 0)
(0.109054 0.0018757 0)
(0.107798 0.00189243 0)
(0.10653 0.00190834 0)
(0.105252 0.00192345 0)
(0.103965 0.00193778 0)
(0.102668 0.00195136 0)
(0.101362 0.00196419 0)
(0.100048 0.00197629 0)
(0.098726 0.0019877 0)
(0.0973968 0.00199842 0)
(0.0960606 0.00200848 0)
(0.094718 0.0020179 0)
(0.0933693 0.00202669 0)
(0.092015 0.00203488 0)
(0.0906555 0.00204249 0)
(0.089291 0.00204954 0)
(0.0879221 0.00205604 0)
(0.086549 0.00206203 0)
(0.0851721 0.00206751 0)
(0.0837917 0.0020725 0)
(0.0824082 0.00207704 0)
(0.0810218 0.00208113 0)
(0.0796328 0.0020848 0)
(0.0782416 0.00208806 0)
(0.0768483 0.00209094 0)
(0.0754532 0.00209344 0)
(0.0740566 0.0020956 0)
(0.0726587 0.00209742 0)
(0.0712596 0.00209892 0)
(0.0698597 0.00210013 0)
(0.0684591 0.00210105 0)
(0.067058 0.00210171 0)
(0.0656565 0.00210212 0)
(0.0642549 0.00210229 0)
(0.0628532 0.00210224 0)
(0.0614517 0.00210199 0)
(0.0600503 0.00210154 0)
(0.0586494 0.00210092 0)
(0.0572489 0.00210014 0)
(0.055849 0.0020992 0)
(0.0544498 0.00209813 0)
(0.0530514 0.00209694 0)
(0.0516538 0.00209563 0)
(0.0502571 0.00209423 0)
(0.0488613 0.00209273 0)
(0.0474667 0.00209116 0)
(0.046073 0.00208952 0)
(0.0446806 0.00208782 0)
(0.0432892 0.00208607 0)
(0.0418991 0.00208429 0)
(0.0405101 0.00208248 0)
(0.0391224 0.00208065 0)
(0.0377359 0.0020788 0)
(0.0363507 0.00207696 0)
(0.0349667 0.00207511 0)
(0.0335839 0.00207328 0)
(0.0322023 0.00207147 0)
(0.030822 0.00206969 0)
(0.0294428 0.00206794 0)
(0.0280648 0.00206622 0)
(0.0266879 0.00206456 0)
(0.0253121 0.00206294 0)
(0.0239373 0.00206137 0)
(0.0225636 0.00205987 0)
(0.0211909 0.00205843 0)
(0.0198192 0.00205706 0)
(0.0184483 0.00205577 0)
(0.0170782 0.00205455 0)
(0.015709 0.00205341 0)
(0.0143405 0.00205235 0)
(0.0129726 0.00205139 0)
(0.0116054 0.00205051 0)
(0.0102387 0.00204972 0)
(0.00887254 0.00204903 0)
(0.0075068 0.00204843 0)
(0.00614142 0.00204793 0)
(0.00477635 0.00204753 0)
(0.00341151 0.00204723 0)
(0.00204684 0.00204702 0)
(0.000682268 0.00204692 0)
(0.000675014 -0.00337558 0)
(0.00202508 -0.00337578 0)
(0.00337528 -0.00337619 0)
(0.00472567 -0.0033768 0)
(0.00607635 -0.00337761 0)
(0.0074274 -0.00337862 0)
(0.00877889 -0.00337982 0)
(0.0101309 -0.00338123 0)
(0.0114835 -0.00338282 0)
(0.0128368 -0.0033846 0)
(0.0141909 -0.00338657 0)
(0.0155458 -0.00338871 0)
(0.0169015 -0.00339104 0)
(0.0182583 -0.00339353 0)
(0.0196161 -0.00339619 0)
(0.0209749 -0.00339901 0)
(0.022335 -0.00340198 0)
(0.0236963 -0.00340509 0)
(0.0250588 -0.00340835 0)
(0.0264227 -0.00341173 0)
(0.027788 -0.00341523 0)
(0.0291547 -0.00341885 0)
(0.0305229 -0.00342257 0)
(0.0318926 -0.00342638 0)
(0.0332638 -0.00343027 0)
(0.0346367 -0.00343424 0)
(0.0360111 -0.00343826 0)
(0.0373872 -0.00344233 0)
(0.0387649 -0.00344642 0)
(0.0401443 -0.00345054 0)
(0.0415254 -0.00345466 0)
(0.0429081 -0.00345877 0)
(0.0442924 -0.00346286 0)
(0.0456784 -0.0034669 0)
(0.0470661 -0.00347087 0)
(0.0484553 -0.00347477 0)
(0.049846 -0.00347858 0)
(0.0512383 -0.00348226 0)
(0.0526321 -0.00348581 0)
(0.0540273 -0.0034892 0)
(0.0554238 -0.00349241 0)
(0.0568216 -0.00349542 0)
(0.0582205 -0.0034982 0)
(0.0596206 -0.00350074 0)
(0.0610216 -0.003503 0)
(0.0624235 -0.00350496 0)
(0.0638262 -0.00350659 0)
(0.0652294 -0.00350787 0)
(0.0666332 -0.00350877 0)
(0.0680372 -0.00350926 0)
(0.0694414 -0.00350931 0)
(0.0708455 -0.00350889 0)
(0.0722494 -0.00350797 0)
(0.0736528 -0.00350652 0)
(0.0750556 -0.0035045 0)
(0.0764575 -0.00350188 0)
(0.0778582 -0.00349863 0)
(0.0792576 -0.00349471 0)
(0.0806553 -0.00349009 0)
(0.082051 -0.00348474 0)
(0.0834445 -0.00347861 0)
(0.0848353 -0.00347167 0)
(0.0862233 -0.00346388 0)
(0.087608 -0.00345521 0)
(0.0889891 -0.00344562 0)
(0.0903663 -0.00343507 0)
(0.091739 -0.00342352 0)
(0.0931069 -0.00341093 0)
(0.0944697 -0.00339727 0)
(0.0958268 -0.0033825 0)
(0.0971777 -0.00336657 0)
(0.0985222 -0.00334946 0)
(0.0998595 -0.00333113 0)
(0.101189 -0.00331153 0)
(0.102511 -0.00329063 0)
(0.103824 -0.0032684 0)
(0.105128 -0.00324479 0)
(0.106423 -0.00321979 0)
(0.107707 -0.00319334 0)
(0.10898 -0.00316543 0)
(0.110242 -0.00313602 0)
(0.111491 -0.00310508 0)
(0.112729 -0.00307258 0)
(0.113952 -0.00303849 0)
(0.115162 -0.0030028 0)
(0.116358 -0.00296548 0)
(0.117538 -0.0029265 0)
(0.118702 -0.00288586 0)
(0.119849 -0.00284352 0)
(0.12098 -0.00279949 0)
(0.122092 -0.00275374 0)
(0.123186 -0.00270627 0)
(0.12426 -0.00265707 0)
(0.125315 -0.00260614 0)
(0.126348 -0.00255348 0)
(0.12736 -0.00249908 0)
(0.128351 -0.00244297 0)
(0.129318 -0.00238513 0)
(0.130262 -0.00232559 0)
(0.131181 -0.00226437 0)
(0.132076 -0.00220147 0)
(0.132946 -0.00213693 0)
(0.133789 -0.00207076 0)
(0.134605 -0.00200301 0)
(0.135394 -0.00193369 0)
(0.136155 -0.00186284 0)
(0.136887 -0.00179051 0)
(0.13759 -0.00171674 0)
(0.138263 -0.00164156 0)
(0.138905 -0.00156505 0)
(0.139517 -0.00148723 0)
(0.140097 -0.00140818 0)
(0.140646 -0.00132794 0)
(0.141162 -0.00124658 0)
(0.141645 -0.00116417 0)
(0.142095 -0.00108077 0)
(0.142511 -0.000996454 0)
(0.142894 -0.000911286 0)
(0.143242 -0.000825345 0)
(0.143555 -0.000738704 0)
(0.143834 -0.000651443 0)
(0.144077 -0.00056364 0)
(0.144285 -0.000475375 0)
(0.144458 -0.00038673 0)
(0.144595 -0.000297786 0)
(0.144697 -0.000208627 0)
(0.144763 -0.000119335 0)
(0.144792 -2.99955e-05 0)
(0.144786 5.93096e-05 0)
(0.144745 0.000148497 0)
(0.144667 0.000237483 0)
(0.144554 0.000326187 0)
(0.144406 0.000414527 0)
(0.144222 0.000502424 0)
(0.144003 0.000589799 0)
(0.143749 0.000676576 0)
(0.14346 0.000762679 0)
(0.143137 0.000848035 0)
(0.14278 0.000932573 0)
(0.14239 0.00101623 0)
(0.141966 0.00109892 0)
(0.141509 0.00118061 0)
(0.141019 0.00126121 0)
(0.140498 0.00134068 0)
(0.139945 0.00141896 0)
(0.13936 0.001496 0)
(0.138745 0.00157174 0)
(0.138101 0.00164615 0)
(0.137426 0.00171918 0)
(0.136723 0.00179078 0)
(0.135991 0.00186093 0)
(0.135231 0.00192959 0)
(0.134444 0.00199673 0)
(0.133631 0.00206232 0)
(0.132792 0.00212635 0)
(0.131927 0.00218878 0)
(0.131038 0.00224961 0)
(0.130125 0.00230882 0)
(0.129188 0.0023664 0)
(0.128228 0.00242233 0)
(0.127247 0.00247663 0)
(0.126244 0.00252927 0)
(0.125221 0.00258027 0)
(0.124177 0.00262963 0)
(0.123114 0.00267734 0)
(0.122032 0.00272343 0)
(0.120932 0.0027679 0)
(0.119815 0.00281076 0)
(0.118681 0.00285202 0)
(0.117531 0.00289171 0)
(0.116365 0.00292984 0)
(0.115184 0.00296643 0)
(0.113989 0.0030015 0)
(0.11278 0.00303508 0)
(0.111558 0.00306719 0)
(0.110324 0.00309785 0)
(0.109077 0.0031271 0)
(0.107819 0.00315496 0)
(0.106551 0.00318145 0)
(0.105272 0.00320662 0)
(0.103983 0.00323049 0)
(0.102685 0.00325308 0)
(0.101379 0.00327445 0)
(0.100064 0.0032946 0)
(0.0987407 0.00331359 0)
(0.0974106 0.00333144 0)
(0.0960736 0.00334818 0)
(0.0947301 0.00336385 0)
(0.0933807 0.00337848 0)
(0.0920255 0.00339211 0)
(0.0906652 0.00340477 0)
(0.0893 0.0034165 0)
(0.0879304 0.00342732 0)
(0.0865566 0.00343727 0)
(0.0851791 0.00344638 0)
(0.0837981 0.00345469 0)
(0.0824139 0.00346223 0)
(0.081027 0.00346903 0)
(0.0796374 0.00347512 0)
(0.0782456 0.00348053 0)
(0.0768519 0.00348531 0)
(0.0754563 0.00348946 0)
(0.0740592 0.00349303 0)
(0.0726609 0.00349605 0)
(0.0712614 0.00349854 0)
(0.0698611 0.00350053 0)
(0.0684602 0.00350205 0)
(0.0670587 0.00350313 0)
(0.0656569 0.00350379 0)
(0.064255 0.00350406 0)
(0.062853 0.00350396 0)
(0.0614512 0.00350352 0)
(0.0600496 0.00350276 0)
(0.0586485 0.00350172 0)
(0.0572478 0.0035004 0)
(0.0558477 0.00349883 0)
(0.0544483 0.00349703 0)
(0.0530497 0.00349503 0)
(0.0516519 0.00349284 0)
(0.0502551 0.00349048 0)
(0.0488593 0.00348797 0)
(0.0474645 0.00348534 0)
(0.0460708 0.00348259 0)
(0.0446783 0.00347975 0)
(0.0432869 0.00347683 0)
(0.0418967 0.00347385 0)
(0.0405077 0.00347082 0)
(0.03912 0.00346775 0)
(0.0377335 0.00346467 0)
(0.0363482 0.00346159 0)
(0.0349642 0.00345851 0)
(0.0335815 0.00345545 0)
(0.0321999 0.00345243 0)
(0.0308196 0.00344945 0)
(0.0294405 0.00344652 0)
(0.0280625 0.00344366 0)
(0.0266857 0.00344087 0)
(0.02531 0.00343817 0)
(0.0239353 0.00343555 0)
(0.0225617 0.00343304 0)
(0.0211891 0.00343064 0)
(0.0198174 0.00342836 0)
(0.0184466 0.00342619 0)
(0.0170767 0.00342416 0)
(0.0157075 0.00342225 0)
(0.0143391 0.00342049 0)
(0.0129714 0.00341888 0)
(0.0116043 0.00341741 0)
(0.0102377 0.0034161 0)
(0.00887168 0.00341494 0)
(0.00750607 0.00341394 0)
(0.00614082 0.0034131 0)
(0.00477588 0.00341243 0)
(0.00341117 0.00341193 0)
(0.00204664 0.00341159 0)
(0.000682201 0.00341143 0)
(0.000674892 -0.00472553 0)
(0.00202472 -0.00472581 0)
(0.00337466 -0.00472638 0)
(0.00472482 -0.00472724 0)
(0.00607526 -0.00472837 0)
(0.00742607 -0.00472979 0)
(0.00877732 -0.00473148 0)
(0.0101291 -0.00473345 0)
(0.0114815 -0.00473568 0)
(0.0128346 -0.00473818 0)
(0.0141884 -0.00474094 0)
(0.0155431 -0.00474395 0)
(0.0168986 -0.00474721 0)
(0.0182552 -0.00475071 0)
(0.0196128 -0.00475444 0)
(0.0209715 -0.0047584 0)
(0.0223313 -0.00476256 0)
(0.0236924 -0.00476694 0)
(0.0250548 -0.0047715 0)
(0.0264186 -0.00477625 0)
(0.0277837 -0.00478117 0)
(0.0291503 -0.00478625 0)
(0.0305183 -0.00479147 0)
(0.0318879 -0.00479682 0)
(0.0332591 -0.00480229 0)
(0.0346319 -0.00480785 0)
(0.0360062 -0.0048135 0)
(0.0373823 -0.00481921 0)
(0.03876 -0.00482497 0)
(0.0401393 -0.00483075 0)
(0.0415204 -0.00483654 0)
(0.0429031 -0.00484232 0)
(0.0442875 -0.00484806 0)
(0.0456736 -0.00485374 0)
(0.0470613 -0.00485933 0)
(0.0484506 -0.00486482 0)
(0.0498415 -0.00487017 0)
(0.051234 -0.00487536 0)
(0.0526279 -0.00488036 0)
(0.0540233 -0.00488513 0)
(0.05542 -0.00488966 0)
(0.056818 -0.0048939 0)
(0.0582173 -0.00489784 0)
(0.0596177 -0.00490142 0)
(0.061019 -0.00490462 0)
(0.0624213 -0.0049074 0)
(0.0638244 -0.00490972 0)
(0.0652281 -0.00491156 0)
(0.0666323 -0.00491286 0)
(0.0680368 -0.00491358 0)
(0.0694415 -0.00491369 0)
(0.0708462 -0.00491315 0)
(0.0722507 -0.0049119 0)
(0.0736548 -0.00490991 0)
(0.0750583 -0.00490713 0)
(0.076461 -0.00490351 0)
(0.0778625 -0.00489901 0)
(0.0792627 -0.00489358 0)
(0.0806612 -0.00488716 0)
(0.0820578 -0.00487971 0)
(0.0834522 -0.00487118 0)
(0.0848441 -0.00486152 0)
(0.0862331 -0.00485067 0)
(0.0876189 -0.00483859 0)
(0.0890012 -0.00482521 0)
(0.0903795 -0.00481049 0)
(0.0917534 -0.00479437 0)
(0.0931226 -0.00477681 0)
(0.0944867 -0.00475773 0)
(0.0958451 -0.00473711 0)
(0.0971975 -0.00471487 0)
(0.0985434 -0.00469096 0)
(0.0998822 -0.00466534 0)
(0.101214 -0.00463795 0)
(0.102537 -0.00460875 0)
(0.103852 -0.00457767 0)
(0.105157 -0.00454468 0)
(0.106453 -0.00450971 0)
(0.107739 -0.00447274 0)
(0.109014 -0.0044337 0)
(0.110278 -0.00439257 0)
(0.111529 -0.00434929 0)
(0.112768 -0.00430383 0)
(0.113994 -0.00425614 0)
(0.115206 -0.00420621 0)
(0.116403 -0.00415398 0)
(0.117585 -0.00409944 0)
(0.118752 -0.00404256 0)
(0.119901 -0.00398331 0)
(0.121033 -0.00392168 0)
(0.122148 -0.00385765 0)
(0.123244 -0.0037912 0)
(0.12432 -0.00372232 0)
(0.125377 -0.00365102 0)
(0.126412 -0.00357729 0)
(0.127427 -0.00350113 0)
(0.128419 -0.00342255 0)
(0.129388 -0.00334157 0)
(0.130334 -0.0032582 0)
(0.131256 -0.00317245 0)
(0.132153 -0.00308437 0)
(0.133024 -0.00299397 0)
(0.133869 -0.0029013 0)
(0.134687 -0.00280639 0)
(0.135478 -0.00270929 0)
(0.136241 -0.00261006 0)
(0.136975 -0.00250873 0)
(0.137679 -0.00240539 0)
(0.138354 -0.00230008 0)
(0.138998 -0.00219288 0)
(0.139611 -0.00208386 0)
(0.140193 -0.0019731 0)
(0.140743 -0.00186068 0)
(0.14126 -0.0017467 0)
(0.141744 -0.00163123 0)
(0.142196 -0.00151437 0)
(0.142613 -0.00139622 0)
(0.142996 -0.00127688 0)
(0.143345 -0.00115646 0)
(0.14366 -0.00103506 0)
(0.143939 -0.000912779 0)
(0.144183 -0.000789743 0)
(0.144392 -0.000666058 0)
(0.144565 -0.000541839 0)
(0.144702 -0.000417202 0)
(0.144804 -0.000292262 0)
(0.14487 -0.000167138 0)
(0.1449 -4.1945e-05 0)
(0.144894 8.31984e-05 0)
(0.144852 0.000208176 0)
(0.144774 0.000332872 0)
(0.144661 0.00045717 0)
(0.144512 0.000580958 0)
(0.144327 0.000704124 0)
(0.144107 0.000826557 0)
(0.143853 0.000948149 0)
(0.143563 0.0010688 0)
(0.143239 0.00118839 0)
(0.142881 0.00130684 0)
(0.14249 0.00142405 0)
(0.142064 0.00153992 0)
(0.141606 0.00165436 0)
(0.141115 0.00176729 0)
(0.140592 0.00187862 0)
(0.140038 0.00198829 0)
(0.139452 0.00209621 0)
(0.138836 0.00220231 0)
(0.138189 0.00230654 0)
(0.137513 0.00240883 0)
(0.136808 0.00250913 0)
(0.136074 0.00260739 0)
(0.135313 0.00270355 0)
(0.134524 0.00279759 0)
(0.133709 0.00288945 0)
(0.132868 0.00297911 0)
(0.132001 0.00306655 0)
(0.13111 0.00315173 0)
(0.130195 0.00323463 0)
(0.129256 0.00331525 0)
(0.128295 0.00339357 0)
(0.127311 0.00346958 0)
(0.126306 0.00354329 0)
(0.125281 0.00361468 0)
(0.124235 0.00368377 0)
(0.12317 0.00375056 0)
(0.122087 0.00381507 0)
(0.120985 0.00387731 0)
(0.119865 0.00393729 0)
(0.118729 0.00399504 0)
(0.117577 0.00405057 0)
(0.11641 0.00410393 0)
(0.115227 0.00415512 0)
(0.11403 0.00420419 0)
(0.112819 0.00425117 0)
(0.111596 0.00429608 0)
(0.11036 0.00433898 0)
(0.109112 0.00437988 0)
(0.107852 0.00441884 0)
(0.106582 0.0044559 0)
(0.105301 0.00449109 0)
(0.104011 0.00452446 0)
(0.102712 0.00455605 0)
(0.101403 0.00458591 0)
(0.100087 0.00461409 0)
(0.0987628 0.00464062 0)
(0.0974314 0.00466556 0)
(0.096093 0.00468895 0)
(0.0947483 0.00471084 0)
(0.0933976 0.00473128 0)
(0.0920413 0.00475032 0)
(0.0906798 0.00476799 0)
(0.0893136 0.00478436 0)
(0.0879428 0.00479946 0)
(0.086568 0.00481334 0)
(0.0851895 0.00482606 0)
(0.0838076 0.00483764 0)
(0.0824225 0.00484815 0)
(0.0810347 0.00485763 0)
(0.0796443 0.00486611 0)
(0.0782517 0.00487365 0)
(0.0768572 0.00488029 0)
(0.0754609 0.00488606 0)
(0.0740632 0.00489102 0)
(0.0726642 0.00489521 0)
(0.0712641 0.00489865 0)
(0.0698632 0.0049014 0)
(0.0684617 0.00490349 0)
(0.0670597 0.00490496 0)
(0.0656575 0.00490585 0)
(0.0642551 0.00490619 0)
(0.0628527 0.00490602 0)
(0.0614505 0.00490537 0)
(0.0600485 0.00490428 0)
(0.058647 0.00490278 0)
(0.057246 0.0049009 0)
(0.0558457 0.00489868 0)
(0.054446 0.00489613 0)
(0.0530472 0.0048933 0)
(0.0516492 0.0048902 0)
(0.0502522 0.00488688 0)
(0.0488562 0.00488334 0)
(0.0474613 0.00487963 0)
(0.0460675 0.00487576 0)
(0.0446748 0.00487176 0)
(0.0432833 0.00486765 0)
(0.0418931 0.00486345 0)
(0.0405041 0.00485919 0)
(0.0391163 0.00485488 0)
(0.0377298 0.00485055 0)
(0.0363445 0.00484621 0)
(0.0349605 0.00484189 0)
(0.0335778 0.00483759 0)
(0.0321963 0.00483334 0)
(0.030816 0.00482915 0)
(0.029437 0.00482504 0)
(0.0280591 0.00482102 0)
(0.0266824 0.0048171 0)
(0.0253068 0.0048133 0)
(0.0239322 0.00480964 0)
(0.0225587 0.00480611 0)
(0.0211862 0.00480274 0)
(0.0198147 0.00479953 0)
(0.0184441 0.00479649 0)
(0.0170743 0.00479363 0)
(0.0157053 0.00479096 0)
(0.0143371 0.00478849 0)
(0.0129695 0.00478622 0)
(0.0116026 0.00478416 0)
(0.0102362 0.00478232 0)
(0.00887039 0.00478069 0)
(0.00750497 0.00477929 0)
(0.00613992 0.00477812 0)
(0.00477517 0.00477717 0)
(0.00341067 0.00477647 0)
(0.00204633 0.004776 0)
(0.000682099 0.00477576 0)
(0.000674728 -0.00607519 0)
(0.00202422 -0.00607556 0)
(0.00337385 -0.00607629 0)
(0.00472367 -0.00607739 0)
(0.00607379 -0.00607886 0)
(0.00742428 -0.00608068 0)
(0.00877522 -0.00608286 0)
(0.0101267 -0.0060854 0)
(0.0114788 -0.00608828 0)
(0.0128315 -0.0060915 0)
(0.0141851 -0.00609506 0)
(0.0155395 -0.00609895 0)
(0.0168948 -0.00610315 0)
(0.018251 -0.00610766 0)
(0.0196083 -0.00611247 0)
(0.0209668 -0.00611757 0)
(0.0223264 -0.00612295 0)
(0.0236873 -0.00612859 0)
(0.0250495 -0.00613448 0)
(0.026413 -0.0061406 0)
(0.027778 -0.00614695 0)
(0.0291444 -0.0061535 0)
(0.0305123 -0.00616024 0)
(0.0318817 -0.00616714 0)
(0.0332528 -0.0061742 0)
(0.0346254 -0.00618138 0)
(0.0359997 -0.00618867 0)
(0.0373757 -0.00619605 0)
(0.0387533 -0.00620348 0)
(0.0401327 -0.00621096 0)
(0.0415137 -0.00621844 0)
(0.0428965 -0.0062259 0)
(0.0442809 -0.00623332 0)
(0.0456671 -0.00624067 0)
(0.0470549 -0.0062479 0)
(0.0484444 -0.006255 0)
(0.0498354 -0.00626193 0)
(0.0512281 -0.00626864 0)
(0.0526223 -0.00627512 0)
(0.0540179 -0.00628131 0)
(0.0554149 -0.00628719 0)
(0.0568133 -0.0062927 0)
(0.0582129 -0.00629781 0)
(0.0596137 -0.00630248 0)
(0.0610155 -0.00630666 0)
(0.0624183 -0.00631029 0)
(0.0638219 -0.00631335 0)
(0.0652262 -0.00631577 0)
(0.066631 -0.00631751 0)
(0.0680363 -0.00631852 0)
(0.0694417 -0.00631873 0)
(0.0708472 -0.00631811 0)
(0.0722525 -0.00631658 0)
(0.0736575 -0.0063141 0)
(0.0750619 -0.0063106 0)
(0.0764655 -0.00630603 0)
(0.0778681 -0.00630033 0)
(0.0792693 -0.00629343 0)
(0.080669 -0.00628526 0)
(0.0820669 -0.00627577 0)
(0.0834625 -0.00626489 0)
(0.0848557 -0.00625256 0)
(0.0862461 -0.0062387 0)
(0.0876334 -0.00622325 0)
(0.0890171 -0.00620614 0)
(0.090397 -0.00618731 0)
(0.0917726 -0.00616668 0)
(0.0931435 -0.00614419 0)
(0.0945093 -0.00611976 0)
(0.0958695 -0.00609333 0)
(0.0972238 -0.00606482 0)
(0.0985716 -0.00603418 0)
(0.0999124 -0.00600133 0)
(0.101246 -0.0059662 0)
(0.102571 -0.00592874 0)
(0.103888 -0.00588887 0)
(0.105196 -0.00584652 0)
(0.106494 -0.00580165 0)
(0.107783 -0.00575419 0)
(0.10906 -0.00570408 0)
(0.110326 -0.00565126 0)
(0.11158 -0.00559568 0)
(0.112822 -0.00553729 0)
(0.11405 -0.00547605 0)
(0.115264 -0.0054119 0)
(0.116464 -0.0053448 0)
(0.117649 -0.00527473 0)
(0.118818 -0.00520163 0)
(0.11997 -0.00512549 0)
(0.121105 -0.00504628 0)
(0.122222 -0.00496397 0)
(0.123321 -0.00487855 0)
(0.1244 -0.00479 0)
(0.12546 -0.00469833 0)
(0.126498 -0.00460353 0)
(0.127515 -0.0045056 0)
(0.12851 -0.00440455 0)
(0.129482 -0.0043004 0)
(0.130431 -0.00419317 0)
(0.131355 -0.00408288 0)
(0.132255 -0.00396958 0)
(0.133129 -0.00385329 0)
(0.133976 -0.00373407 0)
(0.134797 -0.00361197 0)
(0.13559 -0.00348704 0)
(0.136355 -0.00335936 0)
(0.137092 -0.00322898 0)
(0.137798 -0.003096 0)
(0.138475 -0.00296048 0)
(0.139122 -0.00282253 0)
(0.139737 -0.00268223 0)
(0.140321 -0.00253968 0)
(0.140872 -0.002395 0)
(0.141391 -0.00224829 0)
(0.141877 -0.00209967 0)
(0.14233 -0.00194926 0)
(0.142749 -0.00179718 0)
(0.143133 -0.00164357 0)
(0.143484 -0.00148856 0)
(0.143799 -0.00133228 0)
(0.144079 -0.00117488 0)
(0.144324 -0.00101649 0)
(0.144533 -0.000857275 0)
(0.144707 -0.000697367 0)
(0.144845 -0.00053692 0)
(0.144947 -0.000376084 0)
(0.145013 -0.000215008 0)
(0.145043 -5.3846e-05 0)
(0.145037 0.000107253 0)