/*--------------------------------*- C++ -*----------------------------------*\
| =========                 |                                                 |
| \\      /  F ield         | OpenFOAM: The Open Source CFD Toolbox           |
|  \\    /   O peration     | Version:  v2012                                 |
|   \\  /    A nd           | Website:  www.openfoam.com                      |
|    \\/     M anipulation  |                                                 |
\*---------------------------------------------------------------------------*/
FoamFile
{
    version     2.0;
    format      ascii;
    class       volScalarField;
    location    "16.5";
    object      W;
}
// * * * * * * * * * * * * * * * * * * * * * * * * * * * * * * * * * * * * * //

dimensions      [0 0 -1 0 0 0 0];


internalField   nonuniform List<scalar> 
65536
(
2.75538e-14
2.79484e-14
2.87573e-14
2.99902e-14
3.16626e-14
3.37949e-14
3.64133e-14
3.955e-14
4.32434e-14
4.75384e-14
5.24872e-14
5.81492e-14
6.45924e-14
7.18933e-14
8.01381e-14
8.94233e-14
9.98568e-14
1.11559e-13
1.24662e-13
1.39314e-13
1.55679e-13
1.73937e-13
1.94287e-13
2.16949e-13
2.42162e-13
2.70193e-13
3.01331e-13
3.35895e-13
3.74231e-13
4.16721e-13
4.6378e-13
5.15859e-13
5.73452e-13
6.37093e-13
7.07365e-13
7.84899e-13
8.70376e-13
9.64538e-13
1.06818e-12
1.18217e-12
1.30742e-12
1.44495e-12
1.59581e-12
1.76115e-12
1.94221e-12
2.1403e-12
2.35681e-12
2.59323e-12
2.85115e-12
3.13225e-12
3.43829e-12
3.77116e-12
4.13282e-12
4.52536e-12
4.95095e-12
5.41186e-12
5.91046e-12
6.44923e-12
7.03073e-12
7.65758e-12
8.33253e-12
9.05836e-12
9.83793e-12
1.06742e-11
1.157e-11
1.25284e-11
1.35523e-11
1.46448e-11
1.58088e-11
1.70471e-11
1.83627e-11
1.97583e-11
2.12363e-11
2.27995e-11
2.44499e-11
2.61897e-11
2.80207e-11
2.99446e-11
3.19624e-11
3.40752e-11
3.62834e-11
3.85872e-11
4.09864e-11
4.348e-11
4.60668e-11
4.87451e-11
5.15123e-11
5.43657e-11
5.73016e-11
6.0316e-11
6.34041e-11
6.65604e-11
6.97791e-11
7.30535e-11
7.63765e-11
7.97402e-11
8.31363e-11
8.6556e-11
8.999e-11
9.34285e-11
9.68613e-11
1.00278e-10
1.03668e-10
1.0702e-10
1.10323e-10
1.13566e-10
1.16738e-10
1.19827e-10
1.22824e-10
1.25717e-10
1.28496e-10
1.31152e-10
1.33674e-10
1.36055e-10
1.38286e-10
1.4036e-10
1.4227e-10
1.44009e-10
1.45574e-10
1.46959e-10
1.48162e-10
1.49179e-10
1.50009e-10
1.50651e-10
1.51106e-10
1.51374e-10
1.51457e-10
1.51358e-10
1.51079e-10
1.50625e-10
1.5e-10
1.49209e-10
1.48258e-10
1.47152e-10
1.45899e-10
1.44503e-10
1.42973e-10
1.41316e-10
1.39537e-10
1.37645e-10
1.35647e-10
1.33548e-10
1.31357e-10
1.29079e-10
1.26721e-10
1.24289e-10
1.2179e-10
1.19228e-10
1.16608e-10
1.13937e-10
1.11217e-10
1.08455e-10
1.05652e-10
1.02814e-10
9.99435e-11
9.70438e-11
9.41181e-11
9.11691e-11
8.81997e-11
8.52126e-11
8.22107e-11
7.91966e-11
7.61734e-11
7.31441e-11
7.01122e-11
6.70812e-11
6.4055e-11
6.1038e-11
5.80349e-11
5.50508e-11
5.20913e-11
4.91622e-11
4.62701e-11
4.34216e-11
4.06238e-11
3.7884e-11
3.52098e-11
3.26087e-11
3.00883e-11
2.76559e-11
2.53187e-11
2.30833e-11
2.0956e-11
1.89423e-11
1.70468e-11
1.52736e-11
1.36253e-11
1.2104e-11
1.07104e-11
9.44412e-12
8.30379e-12
7.28688e-12
6.38985e-12
5.60817e-12
4.93639e-12
4.36827e-12
3.89682e-12
3.51443e-12
3.21297e-12
2.98392e-12
2.81844e-12
2.70753e-12
2.64214e-12
2.61327e-12
2.61215e-12
2.63033e-12
2.65983e-12
2.6933e-12
2.72413e-12
2.74655e-12
2.75578e-12
2.74807e-12
2.72076e-12
2.67229e-12
2.60218e-12
2.51097e-12
2.40011e-12
2.27181e-12
2.12893e-12
1.97476e-12
1.81282e-12
1.64675e-12
1.48005e-12
1.31602e-12
1.15755e-12
1.0071e-12
8.66625e-13
7.37536e-13
6.20727e-13
5.16603e-13
4.25134e-13
3.45926e-13
2.78295e-13
2.21345e-13
1.74042e-13
1.35281e-13
1.03943e-13
7.89424e-14
5.92598e-14
4.39667e-14
3.22389e-14
2.3362e-14
1.67297e-14
1.18386e-14
8.27791e-15
5.71916e-15
3.9041e-15
2.6332e-15
1.75491e-15
1.15602e-15
7.53398e-16
4.87045e-16
3.14565e-16
2.06782e-16
1.44469e-16
1.16033e-16
4.09084e-14
4.1496e-14
4.27016e-14
4.45397e-14
4.7033e-14
5.02126e-14
5.41177e-14
5.87968e-14
6.43075e-14
7.07175e-14
7.81051e-14
8.65601e-14
9.61845e-14
1.07094e-13
1.19418e-13
1.33302e-13
1.4891e-13
1.66421e-13
1.86037e-13
2.07982e-13
2.32501e-13
2.59868e-13
2.90384e-13
3.24381e-13
3.62222e-13
4.0431e-13
4.51083e-13
5.03023e-13
5.60658e-13
6.24564e-13
6.9537e-13
7.73763e-13
8.60491e-13
9.56365e-13
1.06227e-12
1.17916e-12
1.30807e-12
1.45014e-12
1.60656e-12
1.77864e-12
1.9678e-12
2.17554e-12
2.4035e-12
2.6534e-12
2.92712e-12
3.22664e-12
3.55407e-12
3.91168e-12
4.30185e-12
4.72711e-12
5.19015e-12
5.69378e-12
6.24098e-12
6.83487e-12
7.47869e-12
8.17586e-12
8.92991e-12
9.74452e-12
1.06235e-11
1.15707e-11
1.25902e-11
1.36861e-11
1.48625e-11
1.61237e-11
1.74739e-11
1.89174e-11
2.04584e-11
2.21012e-11
2.38498e-11
2.57083e-11
2.76805e-11
2.977e-11
3.19802e-11
3.43143e-11
3.67751e-11
3.93649e-11
4.20858e-11
4.49392e-11
4.79262e-11
5.1047e-11
5.43015e-11
5.76888e-11
6.12071e-11
6.4854e-11
6.86264e-11
7.252e-11
7.653e-11
8.06504e-11
8.48746e-11
8.91947e-11
9.36021e-11
9.80873e-11
1.0264e-10
1.07248e-10
1.11901e-10
1.16584e-10
1.21284e-10
1.25987e-10
1.30678e-10
1.35342e-10
1.39962e-10
1.44522e-10
1.49006e-10
1.53398e-10
1.57681e-10
1.6184e-10
1.65857e-10
1.69719e-10
1.73409e-10
1.76913e-10
1.80219e-10
1.83314e-10
1.86185e-10
1.88823e-10
1.91218e-10
1.93362e-10
1.95249e-10
1.96873e-10
1.9823e-10
1.99317e-10
2.00133e-10
2.00678e-10
2.00954e-10
2.00963e-10
2.0071e-10
2.00199e-10
1.99437e-10
1.9843e-10
1.97188e-10
1.9572e-10
1.94034e-10
1.92142e-10
1.90053e-10
1.8778e-10
1.85334e-10
1.82726e-10
1.79969e-10
1.77073e-10
1.74051e-10
1.70913e-10
1.67671e-10
1.64336e-10
1.60917e-10
1.57425e-10
1.53869e-10
1.50257e-10
1.46598e-10
1.429e-10
1.39169e-10
1.35412e-10
1.31635e-10
1.27843e-10
1.24041e-10
1.20233e-10
1.16423e-10
1.12616e-10
1.08813e-10
1.05018e-10
1.01233e-10
9.7462e-11
9.37063e-11
8.99687e-11
8.62517e-11
8.25579e-11
7.88903e-11
7.52519e-11
7.16461e-11
6.80768e-11
6.4548e-11
6.10643e-11
5.76308e-11
5.42529e-11
5.09363e-11
4.76873e-11
4.45125e-11
4.14185e-11
3.84124e-11
3.55012e-11
3.26917e-11
2.99909e-11
2.74052e-11
2.49407e-11
2.26029e-11
2.03966e-11
1.83258e-11
1.63936e-11
1.46021e-11
1.29523e-11
1.14442e-11
1.00766e-11
8.84726e-12
7.75269e-12
6.7885e-12
5.94928e-12
5.22873e-12
4.61976e-12
4.11453e-12
3.70466e-12
3.38123e-12
3.13499e-12
2.95641e-12
2.83582e-12
2.76355e-12
2.73005e-12
2.72601e-12
2.7425e-12
2.77112e-12
2.80415e-12
2.83464e-12
2.85657e-12
2.86493e-12
2.85581e-12
2.82644e-12
2.77519e-12
2.70159e-12
2.60617e-12
2.49045e-12
2.35675e-12
2.20801e-12
2.04765e-12
1.87934e-12
1.70683e-12
1.53376e-12
1.36351e-12
1.19911e-12
1.04308e-12
8.9744e-13
7.63641e-13
6.426e-13
5.34729e-13
4.39989e-13
3.57966e-13
2.87944e-13
2.28991e-13
1.80033e-13
1.39922e-13
1.07498e-13
8.16336e-14
6.12739e-14
4.54567e-14
3.33285e-14
2.41494e-14
1.72922e-14
1.22357e-14
8.55492e-15
5.91013e-15
4.03418e-15
2.72076e-15
1.81316e-15
1.19432e-15
7.78314e-16
5.03125e-16
3.24933e-16
2.13585e-16
1.49215e-16
1.19844e-16
7.31803e-14
7.42363e-14
7.64036e-14
7.97085e-14
8.41921e-14
8.99106e-14
9.69355e-14
1.05355e-13
1.15273e-13
1.26813e-13
1.40117e-13
1.55349e-13
1.72695e-13
1.92364e-13
2.14594e-13
2.39649e-13
2.67825e-13
2.99454e-13
3.34901e-13
3.74575e-13
4.18926e-13
4.68453e-13
5.23706e-13
5.85292e-13
6.5388e-13
7.30201e-13
8.15063e-13
9.09349e-13
1.01403e-12
1.13015e-12
1.25888e-12
1.40147e-12
1.5593e-12
1.73385e-12
1.92676e-12
2.13978e-12
2.37481e-12
2.63393e-12
2.91935e-12
3.23349e-12
3.57892e-12
3.95843e-12
4.37501e-12
4.83184e-12
5.33235e-12
5.88019e-12
6.47923e-12
7.13361e-12
7.8477e-12
8.62614e-12
9.47382e-12
1.03959e-11
1.13977e-11
1.2485e-11
1.36637e-11
1.49399e-11
1.632e-11
1.78107e-11
1.94186e-11
2.11509e-11
2.30146e-11
2.50171e-11
2.71656e-11
2.94675e-11
3.19303e-11
3.45613e-11
3.73677e-11
4.03567e-11
4.3535e-11
4.69092e-11
5.04855e-11
5.42695e-11
5.82665e-11
6.24809e-11
6.69166e-11
7.15765e-11
7.64627e-11
8.15762e-11
8.6917e-11
9.24839e-11
9.82743e-11
1.04284e-10
1.10508e-10
1.1694e-10
1.2357e-10
1.30389e-10
1.37385e-10
1.44544e-10
1.51852e-10
1.59291e-10
1.66843e-10
1.74487e-10
1.82202e-10
1.89964e-10
1.9775e-10
2.05532e-10
2.13284e-10
2.20979e-10
2.28586e-10
2.36078e-10
2.43424e-10
2.50595e-10
2.57561e-10
2.64292e-10
2.7076e-10
2.76937e-10
2.82797e-10
2.88313e-10
2.93462e-10
2.98221e-10
3.02571e-10
3.06493e-10
3.09971e-10
3.12993e-10
3.15547e-10
3.17625e-10
3.19222e-10
3.20335e-10
3.20964e-10
3.21112e-10
3.20783e-10
3.19986e-10
3.18731e-10
3.17029e-10
3.14896e-10
3.12348e-10
3.09402e-10
3.06079e-10
3.02399e-10
2.98384e-10
2.94057e-10
2.89441e-10
2.8456e-10
2.79437e-10
2.74096e-10
2.68562e-10
2.62857e-10
2.57004e-10
2.51024e-10
2.44939e-10
2.38769e-10
2.32533e-10
2.26249e-10
2.19933e-10
2.13602e-10
2.07268e-10
2.00946e-10
1.94647e-10
1.88382e-10
1.82159e-10
1.75987e-10
1.69874e-10
1.63824e-10
1.57845e-10
1.51939e-10
1.4611e-10
1.40362e-10
1.34696e-10
1.29116e-10
1.23621e-10
1.18214e-10
1.12896e-10
1.07668e-10
1.0253e-10
9.74857e-11
9.25349e-11
8.76801e-11
8.29233e-11
7.82671e-11
7.37146e-11
6.92693e-11
6.49351e-11
6.07163e-11
5.66178e-11
5.26446e-11
4.88021e-11
4.50959e-11
4.15315e-11
3.81144e-11
3.48501e-11
3.17436e-11
2.87994e-11
2.60215e-11
2.34131e-11
2.09766e-11
1.87133e-11
1.66236e-11
1.47068e-11
1.2961e-11
1.13832e-11
9.9691e-12
8.71358e-12
7.61029e-12
6.65197e-12
5.83052e-12
5.13703e-12
4.56197e-12
4.09527e-12
3.72641e-12
3.44461e-12
3.23889e-12
3.09823e-12
3.01169e-12
2.96853e-12
2.95836e-12
2.97128e-12
2.99801e-12
3.03005e-12
3.0598e-12
3.08067e-12
3.08722e-12
3.0752e-12
3.04162e-12
2.98472e-12
2.90397e-12
2.79998e-12
2.67438e-12
2.52966e-12
2.369e-12
2.19605e-12
2.01476e-12
1.82913e-12
1.64307e-12
1.46019e-12
1.28371e-12
1.11633e-12
9.60168e-13
8.16781e-13
6.87127e-13
5.71629e-13
4.70231e-13
3.82476e-13
3.07587e-13
2.44558e-13
1.9223e-13
1.49371e-13
1.14734e-13
8.71122e-14
6.53742e-14
4.84902e-14
3.55467e-14
2.57526e-14
1.84374e-14
1.30441e-14
9.11889e-15
6.29892e-15
4.29903e-15
2.89904e-15
1.93174e-15
1.2723e-15
8.29042e-16
5.35863e-16
3.46042e-16
2.27438e-16
1.58878e-16
1.27597e-16
1.37386e-13
1.39378e-13
1.43468e-13
1.49704e-13
1.58165e-13
1.68959e-13
1.8222e-13
1.98117e-13
2.1685e-13
2.38652e-13
2.63795e-13
2.92592e-13
3.25396e-13
3.62609e-13
4.04683e-13
4.52123e-13
5.05499e-13
5.65439e-13
6.32648e-13
7.07906e-13
7.92076e-13
8.86115e-13
9.91078e-13
1.10813e-12
1.23855e-12
1.38375e-12
1.54528e-12
1.72483e-12
1.92427e-12
2.14563e-12
2.39113e-12
2.66321e-12
2.9645e-12
3.29788e-12
3.66648e-12
4.07369e-12
4.52319e-12
5.01896e-12
5.56529e-12
6.16682e-12
6.82854e-12
7.55581e-12
8.35438e-12
9.23043e-12
1.01905e-11
1.12417e-11
1.23915e-11
1.36478e-11
1.5019e-11
1.6514e-11
1.81423e-11
1.99137e-11
2.18385e-11
2.39276e-11
2.61923e-11
2.86443e-11
3.12958e-11
3.41592e-11
3.72476e-11
4.05739e-11
4.41517e-11
4.79945e-11
5.2116e-11
5.65299e-11
6.12497e-11
6.62889e-11
7.16605e-11
7.73772e-11
8.34511e-11
8.98936e-11
9.6715e-11
1.03925e-10
1.11531e-10
1.19541e-10
1.27959e-10
1.3679e-10
1.46034e-10
1.5569e-10
1.65757e-10
1.76228e-10
1.87094e-10
1.98346e-10
2.09969e-10
2.21946e-10
2.34257e-10
2.46877e-10
2.59781e-10
2.72939e-10
2.86315e-10
2.99875e-10
3.13578e-10
3.27381e-10
3.41239e-10
3.55103e-10
3.68922e-10
3.82645e-10
3.96216e-10
4.09581e-10
4.22682e-10
4.35461e-10
4.47864e-10
4.59831e-10
4.71309e-10
4.82242e-10
4.92578e-10
5.02269e-10
5.11266e-10
5.19526e-10
5.2701e-10
5.33682e-10
5.39512e-10
5.44473e-10
5.48544e-10
5.5171e-10
5.53961e-10
5.55291e-10
5.55702e-10
5.552e-10
5.53797e-10
5.51509e-10
5.48357e-10
5.44368e-10
5.39573e-10
5.34005e-10
5.27703e-10
5.20708e-10
5.13063e-10
5.04813e-10
4.96007e-10
4.86693e-10
4.76919e-10
4.66736e-10
4.56193e-10
4.45338e-10
4.34219e-10
4.22884e-10
4.11375e-10
3.99738e-10
3.88012e-10
3.76236e-10
3.64446e-10
3.52676e-10
3.40957e-10
3.29316e-10
3.1778e-10
3.06371e-10
2.9511e-10
2.84013e-10
2.73096e-10
2.62372e-10
2.51852e-10
2.41544e-10
2.31455e-10
2.2159e-10
2.11952e-10
2.02543e-10
1.93365e-10
1.84416e-10
1.75697e-10
1.67205e-10
1.58939e-10
1.50896e-10
1.43073e-10
1.35468e-10
1.28079e-10
1.20903e-10
1.13938e-10
1.07183e-10
1.00636e-10
9.42983e-11
8.81684e-11
8.22475e-11
7.65366e-11
7.10374e-11
6.5752e-11
6.06826e-11
5.5832e-11
5.1203e-11
4.67981e-11
4.26199e-11
3.86707e-11
3.49521e-11
3.14652e-11
2.82104e-11
2.51869e-11
2.23933e-11
1.98269e-11
1.74838e-11
1.5359e-11
1.34465e-11
1.17388e-11
1.02277e-11
8.90381e-12
7.75678e-12
6.77555e-12
5.94835e-12
5.26285e-12
4.70628e-12
4.26559e-12
3.92755e-12
3.67888e-12
3.5064e-12
3.39716e-12
3.33857e-12
3.31854e-12
3.32563e-12
3.34919e-12
3.3795e-12
3.40793e-12
3.42704e-12
3.43069e-12
3.4141e-12
3.37392e-12
3.30821e-12
3.21638e-12
3.09911e-12
2.95821e-12
2.79645e-12
2.61735e-12
2.42495e-12
2.22361e-12
2.01774e-12
1.81163e-12
1.60926e-12
1.41415e-12
1.22924e-12
1.05686e-12
8.98683e-13
7.55747e-13
6.28491e-13
5.1683e-13
4.2024e-13
3.37851e-13
2.68539e-13
2.11018e-13
1.63924e-13
1.25879e-13
9.555e-14
7.1689e-14
5.31616e-14
3.89625e-14
2.82212e-14
2.02007e-14
1.42888e-14
9.9872e-15
6.89748e-15
4.70676e-15
3.17348e-15
2.11429e-15
1.39233e-15
9.07128e-16
5.86256e-16
3.78534e-16
2.4876e-16
1.73751e-16
1.3953e-16
2.5833e-13
2.62097e-13
2.69827e-13
2.81614e-13
2.97609e-13
3.18014e-13
3.43091e-13
3.73158e-13
4.08597e-13
4.49855e-13
4.97451e-13
5.51981e-13
6.14122e-13
6.84641e-13
7.64403e-13
8.54378e-13
9.55651e-13
1.06943e-12
1.19707e-12
1.34005e-12
1.50005e-12
1.67888e-12
1.87859e-12
2.1014e-12
2.34979e-12
2.62646e-12
2.93439e-12
3.27686e-12
3.65744e-12
4.08005e-12
4.54899e-12
5.06893e-12
5.64498e-12
6.28268e-12
6.98808e-12
7.76773e-12
8.62873e-12
9.57877e-12
1.06262e-11
1.17798e-11
1.30495e-11
1.44454e-11
1.59788e-11
1.76616e-11
1.95064e-11
2.15269e-11
2.37376e-11
2.61537e-11
2.87915e-11
3.16682e-11
3.48019e-11
3.82116e-11
4.19172e-11
4.59395e-11
5.03002e-11
5.50218e-11
6.01275e-11
6.56412e-11
7.15873e-11
7.7991e-11
8.48776e-11
9.22726e-11
1.00202e-10
1.0869e-10
1.17764e-10
1.27447e-10
1.37764e-10
1.48737e-10
1.60388e-10
1.72736e-10
1.858e-10
1.99596e-10
2.14136e-10
2.29431e-10
2.45486e-10
2.62305e-10
2.79887e-10
2.98227e-10
3.17312e-10
3.37129e-10
3.57655e-10
3.78864e-10
4.00723e-10
4.23193e-10
4.46228e-10
4.69777e-10
4.93781e-10
5.18176e-10
5.4289e-10
5.67846e-10
5.92961e-10
6.18147e-10
6.4331e-10
6.68351e-10
6.93169e-10
7.17659e-10
7.41712e-10
7.65219e-10
7.88071e-10
8.10156e-10
8.31366e-10
8.51595e-10
8.70738e-10
8.88697e-10
9.05378e-10
9.20691e-10
9.34557e-10
9.46902e-10
9.57663e-10
9.66782e-10
9.74217e-10
9.79932e-10
9.83903e-10
9.86117e-10
9.86573e-10
9.8528e-10
9.82257e-10
9.77536e-10
9.71158e-10
9.63172e-10
9.53638e-10
9.42625e-10
9.30206e-10
9.16463e-10
9.01485e-10
8.85361e-10
8.68189e-10
8.50065e-10
8.31091e-10
8.11365e-10
7.90989e-10
7.70061e-10
7.48679e-10
7.26938e-10
7.04928e-10
6.82738e-10
6.6045e-10
6.38142e-10
6.15888e-10
5.93755e-10
5.71805e-10
5.50096e-10
5.28676e-10
5.07593e-10
4.86885e-10
4.66586e-10
4.46726e-10
4.27328e-10
4.08412e-10
3.89994e-10
3.72084e-10
3.54689e-10
3.37814e-10
3.2146e-10
3.05624e-10
2.90304e-10
2.75493e-10
2.61183e-10
2.47367e-10
2.34034e-10
2.21173e-10
2.08774e-10
1.96826e-10
1.85317e-10
1.74237e-10
1.63575e-10
1.5332e-10
1.43464e-10
1.33998e-10
1.24914e-10
1.16205e-10
1.07865e-10
9.98881e-11
9.22705e-11
8.5008e-11
7.80972e-11
7.15352e-11
6.53192e-11
5.94468e-11
5.39153e-11
4.87219e-11
4.38633e-11
3.93357e-11
3.51343e-11
3.12538e-11
2.76875e-11
2.4428e-11
2.14664e-11
1.87931e-11
1.63968e-11
1.42657e-11
1.23865e-11
1.07453e-11
9.32722e-12
8.11676e-12
7.09789e-12
6.25419e-12
5.56896e-12
5.02542e-12
4.60682e-12
4.29656e-12
4.07836e-12
3.93641e-12
3.85545e-12
3.82099e-12
3.81939e-12
3.83806e-12
3.8656e-12
3.89189e-12
3.90828e-12
3.90767e-12
3.88455e-12
3.83508e-12
3.75701e-12
3.64968e-12
3.51389e-12
3.35169e-12
3.16622e-12
2.9615e-12
2.74209e-12
2.51291e-12
2.27895e-12
2.04504e-12
1.81564e-12
1.5947e-12
1.38551e-12
1.19066e-12
1.01201e-12
8.5068e-13
7.07145e-13
5.81279e-13
4.72465e-13
3.79698e-13
3.01694e-13
2.36992e-13
1.84042e-13
1.41284e-13
1.07211e-13
8.04155e-14
5.96166e-14
4.3682e-14
3.16319e-14
2.26367e-14
1.60082e-14
1.11866e-14
7.72424e-15
5.2699e-15
3.55251e-15
2.3664e-15
1.55808e-15
1.01496e-15
6.55841e-16
4.23398e-16
2.78201e-16
1.94286e-16
1.56004e-16
4.80454e-13
4.875e-13
5.01955e-13
5.23997e-13
5.5391e-13
5.92077e-13
6.38991e-13
6.95253e-13
7.61585e-13
8.38831e-13
9.27972e-13
1.03013e-12
1.1466e-12
1.27881e-12
1.42842e-12
1.59725e-12
1.78737e-12
2.00106e-12
2.24089e-12
2.50968e-12
2.81059e-12
3.1471e-12
3.52306e-12
3.94274e-12
4.41081e-12
4.93244e-12
5.5133e-12
6.15963e-12
6.87825e-12
7.67664e-12
8.56299e-12
9.54622e-12
1.06361e-11
1.18432e-11
1.31791e-11
1.46563e-11
1.62884e-11
1.80901e-11
2.00773e-11
2.22672e-11
2.46782e-11
2.73301e-11
3.02444e-11
3.34437e-11
3.69526e-11
4.07969e-11
4.50043e-11
4.96043e-11
5.46279e-11
6.01079e-11
6.6079e-11
7.25774e-11
7.96411e-11
8.73099e-11
9.56251e-11
1.04629e-10
1.14367e-10
1.24882e-10
1.36223e-10
1.48436e-10
1.61568e-10
1.75668e-10
1.90783e-10
2.06962e-10
2.2425e-10
2.42694e-10
2.62335e-10
2.83217e-10
3.05377e-10
3.2885e-10
3.53666e-10
3.79852e-10
4.07427e-10
4.36406e-10
4.66795e-10
4.98595e-10
5.31796e-10
5.6638e-10
6.02319e-10
6.39574e-10
6.78098e-10
7.17828e-10
7.58693e-10
8.00607e-10
8.43473e-10
8.87183e-10
9.31612e-10
9.76628e-10
1.02208e-09
1.06782e-09
1.11367e-09
1.15946e-09
1.20499e-09
1.25008e-09
1.29451e-09
1.3381e-09
1.38061e-09
1.42186e-09
1.46161e-09
1.49967e-09
1.53584e-09
1.5699e-09
1.60168e-09
1.631e-09
1.65768e-09
1.68159e-09
1.70257e-09
1.72051e-09
1.73531e-09
1.74689e-09
1.75519e-09
1.76017e-09
1.76181e-09
1.76012e-09
1.75512e-09
1.74687e-09
1.73544e-09
1.72091e-09
1.70339e-09
1.683e-09
1.6599e-09
1.63423e-09
1.60616e-09
1.57587e-09
1.54354e-09
1.50938e-09
1.47357e-09
1.43632e-09
1.39782e-09
1.35828e-09
1.31788e-09
1.27683e-09
1.23529e-09
1.19346e-09
1.15149e-09
1.10954e-09
1.06777e-09
1.02631e-09
9.85278e-10
9.44795e-10
9.04961e-10
8.65867e-10
8.27591e-10
7.90201e-10
7.53754e-10
7.18297e-10
6.83865e-10
6.50488e-10
6.18185e-10
5.86967e-10
5.5684e-10
5.27801e-10
4.99843e-10
4.72954e-10
4.47119e-10
4.22317e-10
3.98525e-10
3.75718e-10
3.5387e-10
3.32952e-10
3.12935e-10
2.93791e-10
2.75489e-10
2.58001e-10
2.41299e-10
2.25355e-10
2.10144e-10
1.9564e-10
1.81819e-10
1.6866e-10
1.56143e-10
1.44248e-10
1.32957e-10
1.22255e-10
1.12126e-10
1.02557e-10
9.35343e-11
8.5046e-11
7.70802e-11
6.96254e-11
6.267e-11
5.62024e-11
5.02106e-11
4.46818e-11
3.96027e-11
3.49591e-11
3.07357e-11
2.69163e-11
2.34838e-11
2.04197e-11
1.7705e-11
1.53197e-11
1.32428e-11
1.14532e-11
9.92894e-12
8.64801e-12
7.58817e-12
6.72726e-12
6.0433e-12
5.51465e-12
5.12017e-12
4.83931e-12
4.65234e-12
4.54041e-12
4.48573e-12
4.47174e-12
4.48322e-12
4.50646e-12
4.52943e-12
4.54184e-12
4.53527e-12
4.50327e-12
4.4413e-12
4.34676e-12
4.21889e-12
4.05858e-12
3.86825e-12
3.65154e-12
3.41307e-12
3.15811e-12
2.89233e-12
2.62146e-12
2.35102e-12
2.08613e-12
1.83129e-12
1.59024e-12
1.36592e-12
1.16042e-12
9.74983e-13
8.10118e-13
6.65641e-13
5.40813e-13
4.34456e-13
3.45074e-13
2.70971e-13
2.10356e-13
1.61431e-13
1.22461e-13
9.18256e-14
6.80558e-14
4.98517e-14
3.60899e-14
2.58204e-14
1.82553e-14
1.27539e-14
8.80453e-15
6.00568e-15
4.0477e-15
2.69574e-15
1.77461e-15
1.15581e-15
7.46733e-16
4.81997e-16
3.16653e-16
2.21105e-16
1.7752e-16
8.81091e-13
8.94091e-13
9.20753e-13
9.61408e-13
1.01659e-12
1.087e-12
1.17357e-12
1.27741e-12
1.39987e-12
1.54253e-12
1.7072e-12
1.896e-12
2.1113e-12
2.35583e-12
2.63264e-12
2.94515e-12
3.29722e-12
3.69312e-12
4.13765e-12
4.63612e-12
5.19442e-12
5.81908e-12
6.51734e-12
7.29717e-12
8.16738e-12
9.13766e-12
1.02187e-11
1.14221e-11
1.27609e-11
1.42491e-11
1.59021e-11
1.77366e-11
1.97712e-11
2.20259e-11
2.45223e-11
2.72841e-11
3.03371e-11
3.37089e-11
3.74297e-11
4.15318e-11
4.60502e-11
5.10225e-11
5.64889e-11
6.24925e-11
6.90796e-11
7.62993e-11
8.4204e-11
9.28492e-11
1.02294e-10
1.126e-10
1.23832e-10
1.36061e-10
1.49356e-10
1.63793e-10
1.7945e-10
1.96407e-10
2.14748e-10
2.34556e-10
2.5592e-10
2.78927e-10
3.03666e-10
3.30227e-10
3.58698e-10
3.89167e-10
4.21719e-10
4.56437e-10
4.93401e-10
5.32683e-10
5.74352e-10
6.18468e-10
6.65083e-10
7.14238e-10
7.65966e-10
8.20283e-10
8.77194e-10
9.36688e-10
9.98736e-10
1.06329e-09
1.13029e-09
1.19964e-09
1.27125e-09
1.34497e-09
1.42065e-09
1.49813e-09
1.57719e-09
1.65762e-09
1.73915e-09
1.82154e-09
1.90447e-09
1.98763e-09
2.0707e-09
2.15332e-09
2.23511e-09
2.31571e-09
2.39473e-09
2.47175e-09
2.5464e-09
2.61826e-09
2.68694e-09
2.75206e-09
2.81323e-09
2.8701e-09
2.92233e-09
2.9696e-09
3.01162e-09
3.04813e-09
3.07891e-09
3.10377e-09
3.12255e-09
3.13516e-09
3.14152e-09
3.14161e-09
3.13544e-09
3.12309e-09
3.10465e-09
3.08026e-09
3.05011e-09
3.01443e-09
2.97345e-09
2.92747e-09
2.8768e-09
2.82177e-09
2.76274e-09
2.70007e-09
2.63414e-09
2.56535e-09
2.49407e-09
2.42071e-09
2.34564e-09
2.26925e-09
2.1919e-09
2.11394e-09
2.03571e-09
1.95753e-09
1.87969e-09
1.80247e-09
1.72613e-09
1.65089e-09
1.57696e-09
1.50452e-09
1.43373e-09
1.36473e-09
1.29764e-09
1.23254e-09
1.16951e-09
1.10861e-09
1.04987e-09
9.93308e-10
9.38939e-10
8.86753e-10
8.36732e-10
7.88847e-10
7.43061e-10
6.99329e-10
6.57601e-10
6.17819e-10
5.79925e-10
5.43854e-10
5.09544e-10
4.76927e-10
4.45937e-10
4.16509e-10
3.88578e-10
3.6208e-10
3.36955e-10
3.13142e-10
2.90586e-10
2.69232e-10
2.4903e-10
2.29931e-10
2.1189e-10
1.94864e-10
1.78815e-10
1.63705e-10
1.49501e-10
1.36168e-10
1.23678e-10
1.12001e-10
1.0111e-10
9.09779e-11
8.15797e-11
7.28898e-11
6.48828e-11
5.75334e-11
5.08158e-11
4.47039e-11
3.91709e-11
3.41892e-11
2.97307e-11
2.57665e-11
2.2267e-11
1.92024e-11
1.65421e-11
1.42558e-11
1.23127e-11
1.06824e-11
9.33466e-12
8.23992e-12
7.3691e-12
6.69395e-12
6.18719e-12
5.82261e-12
5.57524e-12
5.42146e-12
5.33916e-12
5.3079e-12
5.30904e-12
5.32589e-12
5.34385e-12
5.35053e-12
5.33585e-12
5.29206e-12
5.21379e-12
5.09794e-12
4.9436e-12
4.75184e-12
4.52548e-12
4.26882e-12
3.98724e-12
3.68693e-12
3.37449e-12
3.05658e-12
2.73965e-12
2.4296e-12
2.13163e-12
1.85008e-12
1.58831e-12
1.34869e-12
1.13264e-12
9.40697e-13
7.72599e-13
6.27454e-13
5.03857e-13
4.00043e-13
3.1402e-13
2.4369e-13
1.86949e-13
1.41772e-13
1.06273e-13
7.87401e-14
5.76617e-14
4.17327e-14
2.98498e-14
2.10989e-14
1.47371e-14
1.01714e-14
6.93653e-15
4.67414e-15
3.11235e-15
2.0485e-15
1.33396e-15
8.61685e-16
5.56105e-16
3.65279e-16
2.55019e-16
2.04726e-16
1.5921e-12
1.61574e-12
1.66421e-12
1.73813e-12
1.83845e-12
1.9665e-12
2.12395e-12
2.31287e-12
2.53572e-12
2.7954e-12
3.09527e-12
3.43919e-12
3.83155e-12
4.27735e-12
4.78221e-12
5.35245e-12
5.99516e-12
6.71825e-12
7.53054e-12
8.44184e-12
9.46305e-12
1.06062e-11
1.18848e-11
1.33134e-11
1.49085e-11
1.6688e-11
1.86716e-11
2.0881e-11
2.33403e-11
2.60754e-11
2.9115e-11
3.24904e-11
3.62358e-11
4.03884e-11
4.49888e-11
5.0081e-11
5.57129e-11
6.19362e-11
6.8807e-11
7.63857e-11
8.47375e-11
9.39326e-11
1.04046e-10
1.15159e-10
1.27357e-10
1.40732e-10
1.55383e-10
1.71412e-10
1.88929e-10
2.08052e-10
2.28901e-10
2.51605e-10
2.76298e-10
3.03119e-10
3.32214e-10
3.63732e-10
3.97827e-10
4.34657e-10
4.74384e-10
5.17171e-10
5.63183e-10
6.12583e-10
6.65534e-10
7.22198e-10
7.8273e-10
8.4728e-10
9.1599e-10
9.88991e-10
1.0664e-09
1.14833e-09
1.23485e-09
1.32605e-09
1.42196e-09
1.52261e-09
1.62798e-09
1.73804e-09
1.85272e-09
1.97192e-09
2.09548e-09
2.22322e-09
2.35492e-09
2.49032e-09
2.62909e-09
2.77088e-09
2.91529e-09
3.06187e-09
3.21012e-09
3.35951e-09
3.50947e-09
3.65938e-09
3.80859e-09
3.95642e-09
4.10217e-09
4.24511e-09
4.3845e-09
4.5196e-09
4.64964e-09
4.77389e-09
4.89161e-09
5.00209e-09
5.10465e-09
5.19864e-09
5.28347e-09
5.35857e-09
5.42347e-09
5.47772e-09
5.52096e-09
5.55292e-09
5.57339e-09
5.58222e-09
5.57939e-09
5.56493e-09
5.53896e-09
5.50168e-09
5.45338e-09
5.39441e-09
5.3252e-09
5.24624e-09
5.15808e-09
5.06132e-09
4.95662e-09
4.84466e-09
4.72616e-09
4.60184e-09
4.47246e-09
4.33877e-09
4.20151e-09
4.06143e-09
3.91925e-09
3.77567e-09
3.63136e-09
3.48694e-09
3.34303e-09
3.20018e-09
3.0589e-09
2.91966e-09
2.78288e-09
2.64893e-09
2.51815e-09
2.39082e-09
2.26717e-09
2.14739e-09
2.03164e-09
1.92004e-09
1.81266e-09
1.70954e-09
1.6107e-09
1.51613e-09
1.42579e-09
1.33962e-09
1.25755e-09
1.17948e-09
1.10531e-09
1.03492e-09
9.68187e-10
9.04976e-10
8.45154e-10
7.88581e-10
7.3512e-10
6.84631e-10
6.36976e-10
5.92022e-10
5.49636e-10
5.09691e-10
4.72065e-10
4.36642e-10
4.03309e-10
3.7196e-10
3.42496e-10
3.14822e-10
2.8885e-10
2.64497e-10
2.41686e-10
2.20344e-10
2.00404e-10
1.81802e-10
1.64478e-10
1.48376e-10
1.33443e-10
1.19629e-10
1.06884e-10
9.51607e-11
8.4414e-11
7.45983e-11
6.5669e-11
5.75817e-11
5.02923e-11
4.37565e-11
3.79302e-11
3.2769e-11
2.82287e-11
2.42651e-11
2.08346e-11
1.78936e-11
1.53994e-11
1.33101e-11
1.15847e-11
1.01833e-11
9.06744e-12
8.20014e-12
7.54594e-12
7.07114e-12
6.74392e-12
6.53443e-12
6.41496e-12
6.36003e-12
6.34658e-12
6.3541e-12
6.36471e-12
6.36334e-12
6.33775e-12
6.2786e-12
6.1794e-12
6.03645e-12
5.84864e-12
5.61724e-12
5.3456e-12
5.0388e-12
4.70321e-12
4.34613e-12
3.97534e-12
3.59866e-12
3.22365e-12
2.85724e-12
2.50549e-12
2.17343e-12
1.86498e-12
1.58287e-12
1.3287e-12
1.10304e-12
9.05543e-13
7.3512e-13
5.90082e-13
4.68326e-13
3.67486e-13
2.85081e-13
2.1863e-13
1.65744e-13
1.24205e-13
9.19989e-14
6.73523e-14
4.87332e-14
3.48481e-14
2.46259e-14
1.71967e-14
1.18663e-14
8.09074e-15
5.45081e-15
3.62883e-15
2.38801e-15
1.55478e-15
1.00417e-15
6.47954e-16
4.25543e-16
2.97048e-16
2.38442e-16
2.83431e-12
2.87668e-12
2.96353e-12
3.09597e-12
3.27574e-12
3.50523e-12
3.78749e-12
4.12623e-12
4.52593e-12
4.99183e-12
5.53003e-12
6.14751e-12
6.85227e-12
7.65334e-12
8.56095e-12
9.58657e-12
1.07431e-11
1.20449e-11
1.3508e-11
1.51503e-11
1.69917e-11
1.90541e-11
2.13619e-11
2.39421e-11
2.68245e-11
3.00418e-11
3.36301e-11
3.76294e-11
4.20832e-11
4.70394e-11
5.25504e-11
5.86738e-11
6.5472e-11
7.30136e-11
8.1373e-11
9.06312e-11
1.00876e-10
1.12203e-10
1.24715e-10
1.38523e-10
1.53748e-10
1.70518e-10
1.88973e-10
2.09261e-10
2.31541e-10
2.55983e-10
2.82766e-10
3.12083e-10
3.44137e-10
3.79141e-10
4.1732e-10
4.58912e-10
5.04162e-10
5.53329e-10
6.0668e-10
6.64489e-10
7.27043e-10
7.9463e-10
8.67547e-10
9.46093e-10
1.03057e-09
1.12127e-09
1.21851e-09
1.32256e-09
1.43371e-09
1.55223e-09
1.67838e-09
1.81238e-09
1.95445e-09
2.10475e-09
2.26345e-09
2.43065e-09
2.60641e-09
2.79074e-09
2.98361e-09
3.18492e-09
3.39451e-09
3.61216e-09
3.83755e-09
4.07033e-09
4.31003e-09
4.55611e-09
4.80796e-09
5.06486e-09
5.32604e-09
5.59061e-09
5.85762e-09
6.12604e-09
6.39476e-09
6.6626e-09
6.92832e-09
7.19064e-09
7.44822e-09
7.69969e-09
7.94368e-09
8.17878e-09
8.4036e-09
8.61678e-09
8.81698e-09
9.00291e-09
9.17335e-09
9.32716e-09
9.46328e-09
9.58077e-09
9.67881e-09
9.75669e-09
9.81386e-09
9.84989e-09
9.86454e-09
9.85769e-09
9.82941e-09
9.7799e-09
9.70953e-09
9.61882e-09
9.50845e-09
9.3792e-09
9.23201e-09
9.06791e-09
8.88806e-09
8.69367e-09
8.48606e-09
8.26657e-09
8.03661e-09
7.79759e-09
7.55095e-09
7.2981e-09
7.04045e-09
6.77937e-09
6.51617e-09
6.25212e-09
5.98841e-09
5.72617e-09
5.46644e-09
5.21017e-09
4.95823e-09
4.71139e-09
4.47033e-09
4.23564e-09
4.00782e-09
3.78729e-09
3.57437e-09
3.36932e-09
3.17232e-09
2.98346e-09
2.80281e-09
2.63035e-09
2.46601e-09
2.30969e-09
2.16125e-09
2.02051e-09
1.88725e-09
1.76125e-09
1.64226e-09
1.53001e-09
1.42424e-09
1.32466e-09
1.231e-09
1.14297e-09
1.0603e-09
9.82702e-10
9.09916e-10
8.4168e-10
7.77743e-10
7.17864e-10
6.61812e-10
6.09368e-10
5.60325e-10
5.14487e-10
4.71669e-10
4.31698e-10
3.94413e-10
3.59663e-10
3.27305e-10
2.97209e-10
2.69252e-10
2.43319e-10
2.19303e-10
1.97104e-10
1.76626e-10
1.57781e-10
1.40482e-10
1.2465e-10
1.10206e-10
9.70743e-11
8.51819e-11
7.44574e-11
6.48309e-11
5.62337e-11
4.85984e-11
4.18586e-11
3.59493e-11
3.08064e-11
2.63674e-11
2.25712e-11
1.93584e-11
1.66714e-11
1.44546e-11
1.26548e-11
1.12206e-11
1.01036e-11
9.25757e-12
8.63903e-12
8.20724e-12
7.92431e-12
7.75528e-12
7.66827e-12
7.63456e-12
7.62873e-12
7.6288e-12
7.61627e-12
7.5762e-12
7.49723e-12
7.37148e-12
7.19445e-12
6.9648e-12
6.68404e-12
6.35617e-12
5.9872e-12
5.58476e-12
5.1575e-12
4.71463e-12
4.26543e-12
3.8188e-12
3.38291e-12
2.96491e-12
2.57069e-12
2.2048e-12
1.87041e-12
1.56936e-12
1.30227e-12
1.06866e-12
8.67192e-13
6.9583e-13
5.5205e-13
4.3303e-13
3.35813e-13
2.57452e-13
1.95115e-13
1.46171e-13
1.08238e-13
7.92196e-14
5.7305e-14
4.09674e-14
2.89434e-14
2.02071e-14
1.39406e-14
9.50315e-15
6.40115e-15
4.26074e-15
2.80337e-15
1.82492e-15
1.17845e-15
7.603e-16
4.99252e-16
3.48451e-16
2.79676e-16
4.97122e-12
5.04607e-12
5.19944e-12
5.43332e-12
5.75083e-12
6.15621e-12
6.6549e-12
7.25355e-12
7.96014e-12
8.78404e-12
9.73612e-12
1.08289e-11
1.20766e-11
1.34955e-11
1.51039e-11
1.69222e-11
1.89736e-11
2.12839e-11
2.38819e-11
2.67996e-11
3.00727e-11
3.37407e-11
3.78475e-11
4.24416e-11
4.75766e-11
5.33115e-11
5.97117e-11
6.68488e-11
7.48016e-11
8.36567e-11
9.35089e-11
1.04462e-10
1.1663e-10
1.30135e-10
1.45114e-10
1.61713e-10
1.80091e-10
2.00421e-10
2.22891e-10
2.47704e-10
2.75076e-10
3.05243e-10
3.38459e-10
3.74992e-10
4.15133e-10
4.5919e-10
5.07493e-10
5.6039e-10
6.18251e-10
6.81467e-10
7.50447e-10
8.25622e-10
9.07444e-10
9.96381e-10
1.09292e-09
1.19756e-09
1.31083e-09
1.43324e-09
1.56535e-09
1.70768e-09
1.86079e-09
2.02522e-09
2.20151e-09
2.39017e-09
2.59173e-09
2.80665e-09
3.03538e-09
3.27835e-09
3.53591e-09
3.80836e-09
4.09596e-09
4.39887e-09
4.71718e-09
5.05088e-09
5.39986e-09
5.76392e-09
6.1427e-09
6.53574e-09
6.94245e-09
7.36207e-09
7.79372e-09
8.23635e-09
8.68876e-09
9.14959e-09
9.61732e-09
1.00903e-08
1.05667e-08
1.10445e-08
1.15218e-08
1.19961e-08
1.24653e-08
1.2927e-08
1.33785e-08
1.38175e-08
1.42413e-08
1.46474e-08
1.50333e-08
1.53964e-08
1.57344e-08
1.60449e-08
1.63258e-08
1.65751e-08
1.6791e-08
1.69719e-08
1.71164e-08
1.72234e-08
1.7292e-08
1.73217e-08
1.73122e-08
1.72636e-08
1.71762e-08
1.70506e-08
1.68878e-08
1.66888e-08
1.64552e-08
1.61886e-08
1.5891e-08
1.55645e-08
1.52113e-08
1.4834e-08
1.44349e-08
1.40168e-08
1.35822e-08
1.3134e-08
1.26746e-08
1.22068e-08
1.17332e-08
1.12561e-08
1.07781e-08
1.03012e-08
9.82768e-09
9.35939e-09
8.89813e-09
8.4455e-09
8.00291e-09
7.57162e-09
7.1527e-09
6.74704e-09
6.35538e-09
5.97828e-09
5.61617e-09
5.26934e-09
4.93792e-09
4.62195e-09
4.32137e-09
4.03599e-09