/*--------------------------------*- C++ -*----------------------------------*\
| =========                 |                                                 |
| \\      /  F ield         | OpenFOAM: The Open Source CFD Toolbox           |
|  \\    /   O peration     | Version:  v2012                                 |
|   \\  /    A nd           | Website:  www.openfoam.com                      |
|    \\/     M anipulation  |                                                 |
\*---------------------------------------------------------------------------*/
FoamFile
{
    version     2.0;
    format      ascii;
    class       volScalarField;
    location    "1";
    object      Psi_z;
}
// * * * * * * * * * * * * * * * * * * * * * * * * * * * * * * * * * * * * * //

dimensions      [0 2 -1 0 0 0 0];


internalField   nonuniform List<scalar> 
65536
(
8.46474e-06
2.53936e-05
4.23208e-05
5.92451e-05
7.61655e-05
9.30807e-05
0.00010999
0.000126891
0.000143784
0.000160667
0.000177539
0.000194398
0.000211244
0.000228075
0.00024489
0.000261688
0.000278466
0.000295225
0.000311961
0.000328674
0.000345363
0.000362025
0.000378659
0.000395264
0.000411837
0.000428378
0.000444884
0.000461353
0.000477784
0.000494175
0.000510523
0.000526827
0.000543085
0.000559294
0.000575453
0.000591559
0.000607609
0.000623603
0.000639536
0.000655407
0.000671213
0.000686952
0.00070262
0.000718217
0.000733738
0.00074918
0.000764542
0.000779821
0.000795012
0.000810114
0.000825124
0.000840038
0.000854853
0.000869567
0.000884176
0.000898677
0.000913066
0.000927341
0.000941498
0.000955534
0.000969446
0.00098323
0.000996883
0.0010104
0.00102378
0.00103702
0.00105012
0.00106307
0.00107586
0.0010885
0.00110099
0.00111331
0.00112547
0.00113746
0.00114927
0.00116092
0.00117239
0.00118367
0.00119477
0.00120569
0.00121641
0.00122694
0.00123728
0.00124741
0.00125735
0.00126708
0.0012766
0.00128591
0.00129501
0.0013039
0.00131256
0.00132101
0.00132923
0.00133724
0.00134501
0.00135255
0.00135987
0.00136695
0.0013738
0.00138041
0.00138679
0.00139292
0.00139882
0.00140447
0.00140988
0.00141505
0.00141997
0.00142464
0.00142907
0.00143324
0.00143717
0.00144085
0.00144428
0.00144746
0.00145039
0.00145306
0.00145548
0.00145766
0.00145958
0.00146124
0.00146266
0.00146382
0.00146473
0.00146539
0.0014658
0.00146596
0.00146587
0.00146553
0.00146494
0.0014641
0.00146301
0.00146167
0.00146009
0.00145826
0.00145619
0.00145388
0.00145132
0.00144852
0.00144548
0.0014422
0.00143868
0.00143493
0.00143094
0.00142672
0.00142227
0.00141758
0.00141266
0.00140752
0.00140215
0.00139656
0.00139074
0.0013847
0.00137845
0.00137197
0.00136528
0.00135838
0.00135126
0.00134394
0.0013364
0.00132866
0.00132072
0.00131258
0.00130424
0.0012957
0.00128696
0.00127804
0.00126892
0.00125962
0.00125013
0.00124046
0.00123061
0.00122058
0.00121038
0.0012
0.00118946
0.00117875
0.00116787
0.00115683
0.00114563
0.00113428
0.00112277
0.00111111
0.00109931
0.00108736
0.00107526
0.00106303
0.00105066
0.00103815
0.00102551
0.00101275
0.000999858
0.000986844
0.000973711
0.000960459
0.000947094
0.000933616
0.000920029
0.000906336
0.00089254
0.000878642
0.000864646
0.000850555
0.00083637
0.000822095
0.000807733
0.000793285
0.000778755
0.000764144
0.000749455
0.000734691
0.000719855
0.000704947
0.000689971
0.000674929
0.000659824
0.000644657
0.00062943
0.000614146
0.000598807
0.000583415
0.000567972
0.00055248
0.00053694
0.000521355
0.000505726
0.000490056
0.000474346
0.000458598
0.000442813
0.000426993
0.00041114
0.000395256
0.000379341
0.000363398
0.000347428
0.000331432
0.000315412
0.000299369
0.000283305
0.00026722
0.000251117
0.000234996
0.000218859
0.000202706
0.00018654
0.000170361
0.000154171
0.00013797
0.000121759
0.000105541
8.93159e-05
7.30847e-05
5.68486e-05
4.06088e-05
2.43664e-05
8.1223e-06
2.53947e-05
7.61825e-05
0.000126965
0.000177739
0.000228501
0.000279248
0.000329976
0.000380682
0.000431361
0.000482011
0.000532628
0.000583208
0.000633748
0.000684242
0.000734688
0.000785082
0.000835419
0.000885695
0.000935905
0.000986046
0.00103611
0.0010861
0.00113601
0.00118582
0.00123554
0.00128517
0.00133469
0.0013841
0.00143339
0.00148257
0.00153161
0.00158053
0.0016293
0.00167793
0.00172641
0.00177473
0.00182288
0.00187087
0.00191867
0.00196628
0.0020137
0.00206092
0.00210793
0.00215472
0.00220129
0.00224762
0.00229371
0.00233955
0.00238512
0.00243043
0.00247547
0.00252021
0.00256466
0.0026088
0.00265263
0.00269614
0.00273931
0.00278214
0.00282461
0.00286673
0.00290846
0.00294982
0.00299078
0.00303134
0.00307149
0.00311121
0.0031505
0.00318935
0.00322774
0.00326567
0.00330312
0.00334009
0.00337657
0.00341254
0.003448
0.00348293
0.00351733
0.00355119
0.0035845
0.00361725
0.00364942
0.00368102
0.00371203
0.00374244
0.00377225
0.00380144
0.00383001
0.00385795
0.00388525
0.0039119
0.00393791
0.00396325
0.00398793
0.00401193
0.00403526
0.00405789
0.00407984
0.00410109
0.00412164
0.00414147
0.0041606
0.00417901
0.00419669
0.00421365
0.00422989
0.00424538
0.00426014
0.00427417
0.00428744
0.00429998
0.00431177
0.0043228
0.00433309
0.00434263
0.00435141
0.00435943
0.00436671
0.00437322
0.00437898
0.00438398
0.00438823
0.00439172
0.00439445
0.00439643
0.00439766
0.00439813
0.00439786
0.00439683
0.00439505
0.00439253
0.00438927
0.00438526
0.00438052
0.00437503
0.00436882
0.00436187
0.0043542
0.0043458
0.00433668
0.00432684
0.00431629
0.00430503
0.00429306
0.00428039
0.00426703
0.00425297
0.00423822
0.00422279
0.00420668
0.0041899
0.00417245
0.00415433
0.00413556
0.00411613
0.00409606
0.00407534
0.00405399
0.00403201
0.00400941
0.0039862
0.00396237
0.00393793
0.00391291
0.00388729
0.00386108
0.0038343
0.00380695
0.00377904
0.00375057
0.00372156
0.00369201
0.00366192
0.00363131
0.00360018
0.00356854
0.0035364
0.00350377
0.00347065
0.00343706
0.00340299
0.00336847
0.00333349
0.00329807
0.00326221
0.00322592
0.00318922
0.0031521
0.00311458
0.00307667
0.00303837
0.0029997
0.00296065
0.00292125
0.00288149
0.00284139
0.00280096
0.0027602
0.00271911
0.00267772
0.00263603
0.00259404
0.00255176
0.0025092
0.00246638
0.00242329
0.00237994
0.00233635
0.00229251
0.00224844
0.00220415
0.00215964
0.00211491
0.00206998
0.00202485
0.00197953
0.00193403
0.00188835
0.0018425
0.00179648
0.0017503
0.00170397
0.00165749
0.00161087
0.00156411
0.00151722
0.00147021
0.00142308
0.00137583
0.00132847
0.00128101
0.00123345
0.0011858
0.00113805
0.00109022
0.00104231
0.000994322
0.00094626
0.00089813
0.000849935
0.00080168
0.000753369
0.000705005
0.000656592
0.000608133
0.000559633
0.000511095
0.000462522
0.000413918
0.000365287
0.000316631
0.000267954
0.000219259
0.00017055
0.000121829
7.31007e-05
2.43674e-05
4.23264e-05
0.000126976
0.000211618
0.000296245
0.000380853
0.000465435
0.000549985
0.000634498
0.000718968
0.000803389
0.000887755
0.000972059
0.0010563
0.00114046
0.00122454
0.00130853
0.00139243
0.00147623
0.00155992
0.00164349
0.00172694
0.00181026
0.00189344
0.00197647
0.00205935
0.00214206
0.0022246
0.00230696
0.00238912
0.00247108
0.00255284
0.00263437
0.00271567
0.00279672
0.00287753
0.00295807
0.00303833
0.00311831
0.00319799
0.00327735
0.0033564
0.00343511
0.00351346
0.00359146
0.00366908
0.0037463
0.00382313
0.00389953
0.00397551
0.00405103
0.00412609
0.00420068
0.00427477
0.00434836
0.00442142
0.00449394
0.0045659
0.00463729
0.00470809
0.00477829
0.00484787
0.0049168
0.00498509
0.0050527
0.00511962
0.00518583
0.00525133
0.00531608
0.00538008
0.0054433
0.00550574
0.00556736
0.00562817
0.00568813
0.00574724
0.00580548
0.00586283
0.00591927
0.00597479
0.00602938
0.00608302
0.00613569
0.00618738
0.00623807
0.00628776
0.00633642
0.00638404
0.00643062
0.00647613
0.00652056
0.00656391
0.00660616
0.00664729
0.00668731
0.00672619
0.00676392
0.00680051
0.00683593
0.00687018
0.00690325
0.00693513
0.00696581
0.0069953
0.00702357
0.00705062
0.00707646
0.00710106
0.00712443
0.00714657
0.00716746
0.00718711
0.00720551
0.00722266
0.00723855
0.00725319
0.00726656
0.00727868
0.00728954
0.00729914
0.00730748
0.00731455
0.00732037
0.00732493
0.00732823
0.00733027
0.00733106
0.00733059
0.00732888
0.00732592
0.00732172
0.00731627
0.00730959
0.00730168
0.00729254
0.00728218
0.00727059
0.0072578
0.0072438
0.00722859
0.0072122
0.00719461
0.00717583
0.00715588
0.00713476
0.00711248
0.00708905
0.00706446
0.00703874
0.00701188
0.00698391
0.00695481
0.00692461
0.00689332
0.00686094
0.00682747
0.00679294
0.00675735
0.00672072
0.00668304
0.00664434
0.00660462
0.00656389
0.00652216
0.00647946
0.00643578
0.00639114
0.00634555
0.00629902
0.00625157
0.0062032
0.00615394
0.00610378
0.00605276
0.00600087
0.00594813
0.00589455
0.00584016
0.00578495
0.00572895
0.00567217
0.00561462
0.00555631
0.00549726
0.00543749
0.00537701
0.00531582
0.00525395
0.00519141
0.00512822
0.00506438
0.00499991
0.00493483
0.00486914
0.00480287
0.00473603
0.00466863
0.00460068
0.0045322
0.0044632
0.0043937
0.00432371
0.00425324
0.00418231
0.00411092
0.00403909
0.00396684
0.00389418
0.00382111
0.00374766
0.00367382
0.00359963
0.00352508
0.00345019
0.00337497
0.00329943
0.00322358
0.00314744
0.00307101
0.0029943
0.00291733
0.00284011
0.00276264
0.00268493
0.00260699
0.00252884
0.00245048
0.00237192
0.00229317
0.00221424
0.00213513
0.00205586
0.00197643
0.00189685
0.00181713
0.00173727
0.00165728
0.00157718
0.00149695
0.00141663
0.0013362
0.00125567
0.00117506
0.00109437
0.0010136
0.000932764
0.000851864
0.000770905
0.000689895
0.000608838
0.000527741
0.000446609
0.000365448
0.000284262
0.000203058
0.00012184
4.06142e-05
5.92609e-05
0.000177779
0.000296285
0.000414771
0.00053323
0.000651652
0.000770031
0.000888358
0.00100662
0.00112482
0.00124294
0.00136098
0.00147892
0.00159675
0.00171448
0.00183208
0.00194955
0.00206687
0.00218405
0.00230106
0.0024179
0.00253456
0.00265102
0.00276728
0.00288332
0.00299913
0.00311469
0.00323001
0.00334505
0.00345981
0.00357428
0.00368844
0.00380227
0.00391577
0.00402891
0.00414168
0.00425407
0.00436605
0.00447762
0.00458875
0.00469943
0.00480964
0.00491936
0.00502857
0.00513725
0.00524539
0.00535296
0.00545995
0.00556634
0.00567209
0.0057772
0.00588164
0.00598539
0.00608843
0.00619074
0.00629229
0.00639306
0.00649303
0.00659218
0.00669048
0.00678791
0.00688444
0.00698006
0.00707474
0.00716845
0.00726118
0.00735289
0.00744357
0.00753319
0.00762173
0.00770916
0.00779546
0.00788061
0.00796459
0.00804736
0.00812891
0.00820922
0.00828827
0.00836602
0.00844246
0.00851758
0.00859134
0.00866372
0.00873472
0.00880429
0.00887244
0.00893913
0.00900435
0.00906809
0.00913031
0.00919102
0.00925018
0.00930778
0.00936382
0.00941826
0.00947111
0.00952234
0.00957194
0.0096199
0.00966621
0.00971085
0.00975382
0.00979511
0.0098347
0.00987258
0.00990876
0.00994321
0.00997594
0.0100069
0.0100362
0.0100637
0.0100895
0.0101135
0.0101357
0.0101562
0.010175
0.0101919
0.0102071
0.0102206
0.0102322
0.0102421
0.0102503
0.0102567
0.0102613
0.0102641
0.0102652
0.0102646
0.0102622
0.010258
0.0102521
0.0102445
0.0102352
0.0102241
0.0102113
0.0101968
0.0101805
0.0101626
0.010143
0.0101217
0.0100987
0.0100741
0.0100478
0.0100199
0.0099903
0.00995909
0.00992627
0.00989184
0.00985582
0.00981821
0.00977903
0.00973829
0.009696
0.00965217
0.00960682
0.00955996
0.0095116
0.00946176
0.00941046
0.0093577
0.0093035
0.00924787
0.00919084
0.00913241
0.0090726
0.00901143
0.00894892
0.00888508
0.00881992
0.00875347
0.00868574
0.00861675
0.00854652
0.00847506
0.0084024
0.00832855
0.00825353
0.00817735
0.00810004
0.00802162
0.00794211
0.00786152
0.00777987
0.00769719
0.00761348
0.00752879
0.00744311
0.00735647
0.0072689
0.0071804
0.00709101
0.00700073
0.0069096
0.00681762
0.00672482
0.00663122
0.00653684
0.0064417
0.00634581
0.00624919
0.00615187
0.00605386
0.00595519
0.00585586
0.0057559
0.00565533
0.00555416
0.00545241
0.0053501
0.00524724
0.00514386
0.00503997
0.00493559
0.00483073
0.0047254
0.00461963
0.00451343
0.00440682
0.0042998
0.0041924
0.00408463
0.0039765
0.00386802
0.00375922
0.0036501
0.00354067
0.00343095
0.00332096
0.0032107
0.00310018
0.00298942
0.00287843
0.00276721
0.00265579
0.00254417
0.00243236
0.00232037
0.00220821
0.00209589
0.00198342
0.00187081
0.00175807
0.0016452
0.00153222
0.00141914
0.00130596
0.00119269
0.00107934
0.000965918
0.000852431
0.000738887
0.000625295
0.000511661
0.000397993
0.000284299
0.000170587
5.68636e-05
7.61994e-05
0.000228593
0.000380972
0.000533325
0.000685642
0.000837914
0.00099013
0.00114228
0.00129435
0.00144633
0.00159822
0.00174999
0.00190164
0.00205316
0.00220454
0.00235576
0.0025068
0.00265767
0.00280834
0.00295881
0.00310905
0.00325906
0.00340881
0.00355831
0.00370752
0.00385644
0.00400505
0.00415333
0.00430126
0.00444884
0.00459603
0.00474283
0.00488921
0.00503516
0.00518066
0.00532568
0.0054702
0.00561421
0.00575769
0.0059006
0.00604293
0.00618466
0.00632576
0.0064662
0.00660597
0.00674504
0.00688339
0.00702098
0.00715779
0.0072938
0.00742898
0.0075633
0.00769673
0.00782924
0.00796082
0.00809142
0.00822102
0.0083496
0.00847711
0.00860353
0.00872884
0.008853
0.00897598
0.00909775
0.00921827
0.00933753
0.00945549
0.00957212
0.00968739
0.00980126
0.00991371
0.0100247
0.0101342
0.0102422
0.0103487
0.0104536
0.0105569
0.0106586
0.0107586
0.0108569
0.0109535
0.0110484
0.0111415
0.0112328
0.0113223
0.0114099
0.0114957
0.0115796
0.0116616
0.0117416
0.0118197
0.0118958
0.0119698
0.0120419
0.0121119
0.0121799
0.0122458
0.0123096
0.0123713
0.0124308
0.0124883
0.0125435
0.0125966
0.0126475
0.0126963
0.0127428
0.0127871
0.0128292
0.012869
0.0129067
0.012942
0.0129752
0.013006
0.0130347
0.013061
0.0130851
0.0131069
0.0131265
0.0131437
0.0131588
0.0131715
0.013182
0.0131902
0.0131961
0.0131998
0.0132012
0.0132003
0.0131972
0.0131919
0.0131843
0.0131745
0.0131624
0.0131482
0.0131317
0.013113
0.0130922
0.0130691
0.0130439
0.0130165
0.0129869
0.0129553
0.0129214
0.0128855
0.0128475
0.0128073
0.0127651
0.0127208
0.0126745
0.0126261
0.0125757
0.0125233
0.0124689
0.0124125
0.0123542
0.0122939
0.0122317
0.0121676
0.0121017
0.0120338
0.0119641
0.0118925
0.0118192
0.011744
0.0116671
0.0115884
0.011508
0.0114259
0.0113421
0.0112567
0.0111695
0.0110808
0.0109905
0.0108986
0.0108051
0.0107101
0.0106136
0.0105157
0.0104163
0.0103154
0.0102131
0.0101095
0.0100045
0.00989813
0.00979048
0.00968154
0.00957135
0.00945993
0.0093473
0.00923349
0.00911852
0.00900242
0.00888521
0.00876692
0.00864758
0.0085272
0.00840582
0.00828346
0.00816014
0.00803589
0.00791073
0.00778469
0.00765778
0.00753005
0.0074015
0.00727216
0.00714205
0.0070112
0.00687963
0.00674736
0.00661441
0.00648081
0.00634657
0.00621172
0.00607628
0.00594026
0.0058037
0.00566659
0.00552898
0.00539086
0.00525227
0.00511323
0.00497374
0.00483382
0.0046935
0.00455279
0.00441171
0.00427026
0.00412848
0.00398636
0.00384394
0.00370121
0.00355821
0.00341493
0.0032714
0.00312762
0.00298362
0.0028394
0.00269497
0.00255035
0.00240555
0.00226058
0.00211545
0.00197018
0.00182477
0.00167924
0.0015336
0.00138785
0.001242
0.00109608
0.000950082
0.000804021
0.000657907
0.00051175
0.00036556
0.000219345
7.31167e-05
9.3143e-05
0.000279423
0.000465684
0.000651914
0.000838101
0.00102423
0.00121029
0.00139628
0.00158216
0.00176794
0.0019536
0.00213913
0.0023245
0.00250972
0.00269476
0.0028796
0.00306424
0.00324866
0.00343284
0.00361677
0.00380043
0.0039838
0.00416687
0.00434961
0.00453201
0.00471406
0.00489572
0.00507699
0.00525783
0.00543824
0.00561818
0.00579764
0.00597659
0.00615502
0.00633288
0.00651017
0.00668686
0.00686291
0.00703831
0.00721303
0.00738704
0.00756031
0.00773281
0.00790452
0.0080754
0.00824542
0.00841456
0.00858278
0.00875005
0.00891634
0.00908161
0.00924584
0.00940898
0.009571
0.00973187
0.00989155
0.01005
0.0102072
0.0103631
0.0105177
0.0106709
0.0108227
0.0109731
0.011122
0.0112694
0.0114152
0.0115594
0.011702
0.011843
0.0119822
0.0121197
0.0122554
0.0123894
0.0125214
0.0126516
0.0127799
0.0129062
0.0130305
0.0131528
0.013273
0.0133911
0.0135071
0.013621
0.0137326
0.0138421
0.0139493
0.0140541
0.0141567
0.014257
0.0143548
0.0144503
0.0145433
0.0146339
0.0147221
0.0148077
0.0148908
0.0149714
0.0150494
0.0151248
0.0151976
0.0152678
0.0153354
0.0154003
0.0154626
0.0155221
0.015579
0.0156332
0.0156846
0.0157334
0.0157794
0.0158226
0.0158631
0.0159009
0.0159359
0.0159681
0.0159975
0.0160242
0.0160481
0.0160692
0.0160875
0.0161031
0.0161159
0.0161259
0.0161332
0.0161376
0.0161393
0.0161383
0.0161345
0.016128
0.0161187
0.0161067
0.0160919
0.0160745
0.0160544
0.0160315
0.016006
0.0159778
0.0159469
0.0159134
0.0158773
0.0158385
0.0157972
0.0157532
0.0157067
0.0156576
0.015606
0.0155518
0.0154952
0.015436
0.0153744
0.0153103
0.0152438
0.0151749
0.0151035
0.0150298
0.0149538
0.0148754
0.0147947
0.0147117
0.0146265
0.014539
0.0144493
0.0143574
0.0142634
0.0141672
0.0140689
0.0139685
0.013866
0.0137615
0.013655
0.0135465
0.013436
0.0133236
0.0132094
0.0130932
0.0129753
0.0128555
0.0127339
0.0126106
0.0124855
0.0123588
0.0122304
0.0121004
0.0119688
0.0118356
0.0117008
0.0115646
0.0114269
0.0112877
0.0111472
0.0110052
0.0108619
0.0107173
0.0105714
0.0104242
0.0102758
0.0101262
0.0099754
0.00982349
0.00967047
0.00951637
0.00936122
0.00920505
0.00904788
0.00888975
0.00873069
0.00857071
0.00840986
0.00824815
0.00808562
0.00792228
0.00775817
0.00759332
0.00742773
0.00726145
0.00709449
0.00692688
0.00675865
0.00658981
0.00642038
0.0062504
0.00607987
0.00590883
0.0057373
0.00556528
0.00539281
0.00521991
0.00504658
0.00487286
0.00469875
0.00452428
0.00434947
0.00417433
0.00399887
0.00382312
0.00364709
0.00347079
0.00329424
0.00311746
0.00294046
0.00276325
0.00258585
0.00240828
0.00223053
0.00205264
0.00187461
0.00169645
0.00151817
0.0013398
0.00116134
0.0009828
0.000804197
0.000625541
0.000446844
0.000268118
8.93747e-05
0.000110093
0.000330271
0.000550427
0.000770547
0.000990616
0.00121062
0.00143054
0.00165037
0.00187008
0.00208967
0.00230912
0.00252841
0.00274752
0.00296645
0.00318516
0.00340365
0.0036219
0.00383989
0.0040576
0.00427501
0.0044921
0.00470885
0.00492524
0.00514126
0.00535687
0.00557206
0.0057868
0.00600107
0.00621485
0.00642811
0.00664082
0.00685296
0.0070645
0.00727542
0.00748569
0.00769527
0.00790414
0.00811227
0.00831962
0.00852617
0.00873188
0.00893672
0.00914066
0.00934366
0.00954568
0.00974669
0.00994666
0.0101455
0.0103433
0.0105399
0.0107353
0.0109295
0.0111223
0.0113139
0.0115041
0.0116929
0.0118803
0.0120661
0.0122505
0.0124333
0.0126144
0.0127939
0.0129717
0.0131478
0.013322
0.0134944
0.013665
0.0138336
0.0140003
0.0141649
0.0143275
0.014488
0.0146463
0.0148025
0.0149564
0.0151081
0.0152575
0.0154045
0.0155491
0.0156912
0.0158309
0.0159681
0.0161027
0.0162347
0.0163641
0.0164909
0.0166149
0.0167362
0.0168547
0.0169705
0.0170833
0.0171934
0.0173005
0.0174047
0.0175059
0.0176042
0.0176995
0.0177917
0.0178809
0.017967
0.01805
0.0181299
0.0182067
0.0182803
0.0183507
0.018418
0.018482
0.0185428
0.0186005
0.0186548
0.018706
0.0187539
0.0187985
0.0188398
0.0188779
0.0189127
0.0189442
0.0189725
0.0189974
0.0190191
0.0190375
0.0190526
0.0190644
0.019073
0.0190783
0.0190803
0.019079
0.0190745
0.0190668
0.0190558
0.0190416
0.0190242
0.0190035
0.0189797
0.0189527
0.0189225
0.0188891
0.0188526
0.018813
0.0187703
0.0187244
0.0186755
0.0186235
0.0185685
0.0185105
0.0184494
0.0183854
0.0183184
0.0182484
0.0181755
0.0180998
0.0180211
0.0179396
0.0178553
0.0177681
0.0176782
0.0175855
0.0174901
0.0173919
0.0172911
0.0171877
0.0170816
0.016973
0.0168618
0.016748
0.0166318
0.016513
0.0163919
0.0162683
0.0161424
0.0160141
0.0158835
0.0157506
0.0156155
0.0154782
0.0153387
0.015197
0.0150533
0.0149075
0.0147596
0.0146098
0.014458
0.0143042
0.0141486
0.0139911
0.0138318
0.0136707
0.0135079
0.0133434
0.0131772
0.0130093
0.0128399
0.0126689
0.0124964
0.0123224
0.0121469
0.0119701
0.0117918
0.0116122
0.0114313
0.0112491
0.0110657
0.010881
0.0106952
0.0105083
0.0103202
0.0101311
0.00994095
0.00974977
0.00955763
0.00936453
0.00917052
0.00897563
0.00877988
0.00858331
0.00838594
0.0081878
0.00798892
0.00778933
0.00758905
0.00738811
0.00718653
0.00698434
0.00678157
0.00657823
0.00637436
0.00616997
0.00596509
0.00575973
0.00555393
0.0053477
0.00514106
0.00493403
0.00472664
0.0045189
0.00431082
0.00410243
0.00389375
0.00368479
0.00347558
0.00326612
0.00305643
0.00284653
0.00263644
0.00242617
0.00221574
0.00200516
0.00179445
0.00158361
0.00137267
0.00116164
0.00095054
0.000739373
0.000528158
0.000316908
0.000105638
0.00012705
0.000381141
0.000635207
0.000889231
0.0011432
0.00139709
0.00165088
0.00190457
0.00215813
0.00241155
0.0026648
0.00291787
0.00317074
0.00342339
0.0036758
0.00392795
0.00417982
0.0044314
0.00468265
0.00493356
0.0051841
0.00543426
0.005684
0.00593331
0.00618215
0.00643051
0.00667835
0.00692565
0.00717238
0.00741852
0.00766403
0.00790888
0.00815304
0.00839648
0.00863917
0.00888108
0.00912217
0.0093624
0.00960174
0.00984015
0.0100776
0.010314
0.0105494
0.0107838
0.011017
0.011249
0.0114798
0.0117094
0.0119377
0.0121647
0.0123902
0.0126144
0.012837
0.0130582
0.0132778
0.0134957
0.013712
0.0139266
0.0141394
0.0143504
0.0145596
0.0147668
0.0149721
0.0151753
0.0153765
0.0155756
0.0157725
0.0159672
0.0161596
0.0163497
0.0165374
0.0167227
0.0169055
0.0170858
0.0172636
0.0174387
0.0176111
0.0177808
0.0179478
0.0181119
0.0182732
0.0184316
0.018587
0.0187395
0.0188889
0.0190352
0.0191784
0.0193185
0.0194553
0.0195889
0.0197193
0.0198463
0.01997
0.0200903
0.0202072
0.0203206
0.0204306
0.0205371
0.0206401
0.0207395
0.0208353
0.0209275
0.0210162
0.0211011
0.0211825
0.0212601
0.021334
0.0214043
0.0214708
0.0215335
0.0215926
0.0216478
0.0216993
0.0217471
0.021791
0.0218312
0.0218676
0.0219002
0.021929
0.021954
0.0219752
0.0219926
0.0220063
0.0220161
0.0220222
0.0220245
0.022023
0.0220178
0.0220089
0.0219962
0.0219797
0.0219596
0.0219357
0.0219082
0.021877
0.0218421
0.0218036
0.0217615
0.0217157
0.0216663
0.0216134
0.0215569
0.0214969
0.0214334
0.0213663
0.0212958
0.0212219
0.0211445
0.0210637
0.0209796
0.0208921
0.0208013
0.0207072
0.0206098
0.0205091
0.0204053
0.0202983
0.0201881
0.0200748
0.0199585
0.019839
0.0197166
0.0195911
0.0194627
0.0193314
0.0191971
0.0190601
0.0189202
0.0187775
0.0186321
0.018484
0.0183332
0.0181798
0.0180238
0.0178653
0.0177042
0.0175407
0.0173747
0.0172064
0.0170357
0.0168627
0.0166874
0.01651
0.0163303
0.0161485
0.0159646
0.0157786
0.0155906
0.0154007
0.0152088
0.0150151
0.0148195
0.0146221
0.0144229
0.0142221
0.0140195
0.0138153
0.0136095
0.0134022
0.0131934
0.0129831
0.0127713
0.0125582
0.0123437
0.0121279
0.0119108
0.0116925
0.011473
0.0112524
0.0110306
0.0108077
0.0105838
0.0103588
0.0101329
0.00990597
0.00967816
0.00944946
0.00921991
0.00898954
0.00875838
0.00852645
0.0082938
0.00806044
0.0078264
0.00759172
0.00735642
0.00712053
0.00688406
0.00664706
0.00640954
0.00617152
0.00593304
0.00569411
0.00545476
0.005215
0.00497487
0.00473437
0.00449354
0.00425239
0.00401094
0.00376921
0.00352722
0.00328499
0.00304253
0.00279987
0.00255703
0.00231401
0.00207083
0.00182753
0.0015841
0.00134056
0.00109694
0.000853253
0.000609506
0.000365719
0.000121909
0.000144015
0.000432036
0.000720028
0.00100797
0.00129585
0.00158365
0.00187134
0.0021589
0.00244632
0.00273358
0.00302066
0.00330753
0.00359417
0.00388056
0.00416669
0.00445253
0.00473805
0.00502323
0.00530805
0.00559248
0.0058765
0.00616008
0.0064432
0.00672582
0.00700792
0.00728947
0.00757044
0.0078508
0.00813051
0.00840956
0.00868789
0.00896548
0.0092423
0.0095183
0.00979345
0.0100677
0.010341
0.0106134
0.0108848
0.0111551
0.0114243
0.0116924
0.0119593
0.012225
0.0124894
0.0127525
0.0130143
0.0132746
0.0135334
0.0137908
0.0140466
0.0143007
0.0145532
0.014804
0.015053
0.0153002
0.0155455
0.0157888
0.0160301
0.0162694
0.0165066
0.0167416
0.0169744
0.0172049
0.0174331
0.0176589
0.0178822
0.018103
0.0183212
0.0185368
0.0187497
0.0189598
0.0191672
0.0193717
0.0195733
0.0197719
0.0199675
0.02016
0.0203493
0.0205355
0.0207184
0.0208981
0.0210743
0.0212472
0.0214167
0.0215827
0.0217451
0.0219039
0.0220591
0.0222107
0.0223585
0.0225026
0.0226428
0.0227793
0.0229119
0.0230405
0.0231653
0.023286
0.0234028
0.0235155
0.0236242
0.0237288
0.0238293
0.0239257
0.0240179
0.0241059
0.0241898
0.0242694
0.0243448
0.024416
0.0244829
0.0245456
0.024604
0.0246581
0.0247079
0.0247535
0.0247947
0.0248316
0.0248643
0.0248926
0.0249167
0.0249364
0.0249518
0.024963
0.0249699
0.0249725
0.0249708
0.0249649
0.0249547
0.0249402
0.0249216
0.0248987
0.0248717
0.0248404
0.024805
0.0247654
0.0247217
0.0246739
0.024622
0.024566
0.0245059
0.0244419
0.0243738
0.0243017
0.0242257
0.0241457
0.0240618
0.0239741
0.0238824
0.023787
0.0236877
0.0235847
0.023478
0.0233675
0.0232534
0.0231356
0.0230142
0.0228893
0.0227608
0.0226288
0.0224934
0.0223545
0.0222122
0.0220665
0.0219176
0.0217654
0.0216099
0.0214513
0.0212895
0.0211246
0.0209566
0.0207856
0.0206116
0.0204347
0.0202549
0.0200722
0.0198868
0.0196986
0.0195077
0.0193141
0.0191179
0.0189192
0.0187179
0.0185141
0.0183079
0.0180994
0.0178885
0.0176754
0.01746
0.0172424
0.0170227
0.0168009
0.016577
0.0163512
0.0161234
0.0158937
0.0156622
0.0154288
0.0151938
0.0149569
0.0147185
0.0144784
0.0142367
0.0139935
0.0137488
0.0135027
0.0132552
0.0130063
0.0127561
0.0125046
0.0122519
0.011998
0.011743
0.0114868
0.0112295
0.0109713
0.010712
0.0104517
0.0101905
0.00992847
0.00966553
0.00940176
0.0091372
0.00887188
0.00860583
0.00833907
0.00807165
0.00780358
0.0075349
0.00726564
0.00699582
0.00672547
0.00645461
0.00618328
0.00591149
0.00563927
0.00536665
0.00509364
0.00482028
0.00454657
0.00427256
0.00399825
0.00372366
0.00344883
0.00317376
0.00289848
0.00262301
0.00234736
0.00207156
0.00179563
0.00151957
0.00124342
0.000967188
0.000690893
0.000414554
0.000138187
0.00016099
0.000482959
0.000804897
0.00112678
0.00144859
0.00177031
0.00209191
0.00241338
0.00273468
0.0030558
0.00337672
0.00369741
0.00401785
0.00433801
0.00465788
0.00497742
0.00529661
0.00561542
0.00593383
0.00625181
0.00656933
0.00688637
0.00720288
0.00751885
0.00783424
0.00814901
0.00846314
0.00877659
0.00908932
0.0094013
0.0097125
0.0100229
0.0103324
0.010641
0.0109486
0.0112553
0.0115609
0.0118654
0.0121689
0.0124711
0.0127722
0.013072
0.0133704
0.0136675
0.0139632
0.0142574
0.0145501
0.0148412
0.0151307
0.0154185
0.0157045
0.0159888
0.0162712
0.0165516
0.0168301
0.0171065
0.0173809
0.017653
0.0179229
0.0181906
0.0184559
0.0187187
0.0189791
0.0192369
0.0194921
0.0197446
0.0199944
0.0202414
0.0204854
0.0207266
0.0209647
0.0211998
0.0214318
0.0216605
0.021886
0.0221081
0.0223269
0.0225422
0.022754
0.0229623
0.0231669
0.0233679
0.0235651
0.0237585
0.023948
0.0241336
0.0243153
0.024493
0.0246666
0.0248361
0.0250015
0.0251626
0.0253195
0.0254721
0.0256204
0.0257644
0.0259039
0.026039
0.0261696
0.0262957
0.0264172
0.0265342
0.0266466
0.0267544
0.0268575
0.0269559
0.0270497
0.0271388
0.0272231
0.0273027
0.0273775
0.0274476
0.0275129
0.0275734
0.0276291
0.02768
0.0277261
0.0277674
0.0278039
0.0278356
0.0278624
0.0278845
0.0279017
0.0279142
0.0279218
0.0279247
0.0279228
0.0279161
0.0279047
0.0278885
0.0278677
0.0278421
0.0278118
0.0277768
0.0277371
0.0276928
0.0276439
0.0275904
0.0275323
0.0274697
0.0274025
0.0273308
0.0272546
0.027174
0.0270889
0.0269995
0.0269056
0.0268074
0.026705
0.0265982
0.0264872
0.0263719
0.0262525
0.026129
0.0260013
0.0258695
0.0257338
0.025594
0.0254503
0.0253026
0.0251511
0.0249958
0.0248366
0.0246737
0.0245071
0.0243368
0.024163
0.0239855
0.0238045
0.0236201
0.0234322
0.0232409
0.0230463
0.0228485
0.0226474
0.0224431
0.0222356
0.0220251
0.0218116
0.0215951
0.0213757
0.0211534
0.0209283
0.0207004
0.0204698
0.0202365
0.0200007
0.0197623
0.0195214
0.0192781
0.0190323
0.0187843
0.0185339
0.0182814
0.0180266
0.0177698
0.0175108
0.0172499
0.016987
0.0167222
0.0164555
0.016187
0.0159168
0.0156448
0.0153712
0.015096
0.0148192
0.0145409
0.0142611
0.0139799
0.0136973
0.0134134
0.0131282
0.0128418
0.0125542
0.0122654
0.0119755
0.0116845
0.0113924
0.0110994
0.0108054
0.0105105
0.0102147
0.00991809
0.00962064
0.0093224
0.00902341
0.00872371
0.00842333
0.00812229
0.00782064
0.0075184
0.00721559
0.00691225
0.0066084
0.00630408
0.0059993
0.0056941
0.0053885
0.00508253
0.0047762
0.00446955
0.00416259
0.00385535
0.00354786
0.00324013
0.00293218
0.00262404
0.00231573
0.00200727
0.00169868
0.00138998
0.00108119
0.000772325
0.000463415
0.000154475
0.000177975
0.000533914
0.000889818
0.00124566
0.00160143
0.00195709
0.00231263
0.00266801
0.00302322
0.00337823
0.00373301
0.00408755
0.0044418
0.00479576
0.00514939
0.00550266
0.00585554
0.00620802
0.00656005
0.0069116
0.00726266
0.00761317
0.00796312
0.00831246
0.00866117
0.0090092
0.00935652
0.00970309
0.0100489
0.0103938
0.0107379
0.0110811
0.0114233
0.0117646
0.0121048
0.0124439
0.0127818
0.0131186
0.0134541
0.0137884
0.0141213
0.0144528
0.0147829
0.0151114
0.0154384
0.0157638
0.0160875
0.0164095
0.0167296
0.0170479
0.0173643
0.0176787
0.017991
0.0183012
0.0186092
0.018915
0.0192184
0.0195195
0.019818
0.0201141
0.0204075
0.0206983
0.0209863
0.0212715
0.0215538
0.0218331
0.0221094
0.0223826
0.0226526
0.0229194
0.0231829
0.0234429
0.0236995
0.0239526
0.024202
0.0244478
0.0246898
0.024928
0.0251623
0.0253927
0.0256191
0.0258414
0.0260596
0.0262735
0.0264832
0.0266886
0.0268896
0.0270861
0.0272782
0.0274657
0.0276486
0.0278269
0.0280005
0.0281693
0.0283334
0.0284926
0.0286469
0.0287964
0.0289408
0.0290803
0.0292148
0.0293442
0.0294685
0.0295877
0.0297018
0.0298107
0.0299144
0.0300129
0.0301061
0.0301942
0.0302769
0.0303544
0.0304266
0.0304935
0.0305551
0.0306114
0.0306624
0.030708
0.0307483
0.0307833
0.030813
0.0308374
0.0308564
0.0308701
0.0308786
0.0308817
0.0308796
0.0308722
0.0308595
0.0308416
0.0308184
0.0307901
0.0307565
0.0307178
0.0306739
0.0306249
0.0305708
0.0305115
0.0304472
0.0303779
0.0303036
0.0302242
0.0301399
0.0300507
0.0299566
0.0298576
0.0297538
0.0296452
0.0295318
0.0294136
0.0292908
0.0291633
0.0290312
0.0288945
0.0287533
0.0286075
0.0284573
0.0283027
0.0281437
0.0279803
0.0278127
0.0276409
0.0274648
0.0272846
0.0271003
0.0269119
0.0267196
0.0265233
0.0263231
0.026119
0.0259112
0.0256996
0.0254844
0.0252655
0.025043
0.024817
0.0245876
0.0243547
0.0241185
0.023879
0.0236363
0.0233904
0.0231414
0.0228894
0.0226343
0.0223763
0.0221154
0.0218517
0.0215853
0.0213161
0.0210443
0.02077
0.0204931
0.0202137
0.019932
0.0196479
0.0193615
0.0190729