/*--------------------------------*- C++ -*----------------------------------*\
| =========                 |                                                 |
| \\      /  F ield         | OpenFOAM: The Open Source CFD Toolbox           |
|  \\    /   O peration     | Version:  v2012                                 |
|   \\  /    A nd           | Website:  www.openfoam.com                      |
|    \\/     M anipulation  |                                                 |
\*---------------------------------------------------------------------------*/
FoamFile
{
    version     2.0;
    format      ascii;
    class       volVectorField;
    location    "1";
    object      U;
}
// * * * * * * * * * * * * * * * * * * * * * * * * * * * * * * * * * * * * * //

dimensions      [0 1 -1 0 0 0 0];


internalField   nonuniform List<vector> 
65536
(
(0.000689984 -0.000689962 0)
(0.00206991 -0.000689915 0)
(0.00344969 -0.000689822 0)
(0.00482924 -0.000689683 0)
(0.00620847 -0.000689498 0)
(0.00758728 -0.000689265 0)
(0.00896557 -0.000688984 0)
(0.0103433 -0.000688656 0)
(0.0117202 -0.000688279 0)
(0.0130964 -0.000687852 0)
(0.0144717 -0.000687376 0)
(0.015846 -0.000686848 0)
(0.0172191 -0.000686268 0)
(0.0185911 -0.000685635 0)
(0.0199617 -0.000684947 0)
(0.0213309 -0.000684205 0)
(0.0226986 -0.000683406 0)
(0.0240646 -0.000682548 0)
(0.0254289 -0.000681631 0)
(0.0267912 -0.000680654 0)
(0.0281515 -0.000679613 0)
(0.0295097 -0.000678509 0)
(0.0308656 -0.000677339 0)
(0.0322191 -0.000676101 0)
(0.0335701 -0.000674794 0)
(0.0349184 -0.000673415 0)
(0.0362638 -0.000671964 0)
(0.0376063 -0.000670438 0)
(0.0389457 -0.000668834 0)
(0.0402817 -0.000667151 0)
(0.0416144 -0.000665388 0)
(0.0429434 -0.000663541 0)
(0.0442686 -0.000661609 0)
(0.0455899 -0.000659589 0)
(0.046907 -0.00065748 0)
(0.0482199 -0.000655279 0)
(0.0495283 -0.000652983 0)
(0.0508319 -0.000650592 0)
(0.0521307 -0.000648103 0)
(0.0534244 -0.000645513 0)
(0.0547129 -0.00064282 0)
(0.0559958 -0.000640022 0)
(0.0572731 -0.000637118 0)
(0.0585444 -0.000634104 0)
(0.0598096 -0.00063098 0)
(0.0610684 -0.000627742 0)
(0.0623207 -0.00062439 0)
(0.0635661 -0.00062092 0)
(0.0648045 -0.000617331 0)
(0.0660355 -0.000613622 0)
(0.0672591 -0.00060979 0)
(0.0684748 -0.000605834 0)
(0.0696825 -0.000601753 0)
(0.070882 -0.000597544 0)
(0.0720728 -0.000593206 0)
(0.0732549 -0.000588739 0)
(0.0744279 -0.00058414 0)
(0.0755916 -0.000579409 0)
(0.0767457 -0.000574544 0)
(0.0778899 -0.000569545 0)
(0.079024 -0.000564411 0)
(0.0801477 -0.000559141 0)
(0.0812607 -0.000553735 0)
(0.0823628 -0.000548191 0)
(0.0834536 -0.000542511 0)
(0.084533 -0.000536693 0)
(0.0856005 -0.000530737 0)
(0.0866561 -0.000524645 0)
(0.0876992 -0.000518415 0)
(0.0887298 -0.000512048 0)
(0.0897476 -0.000505545 0)
(0.0907522 -0.000498907 0)
(0.0917433 -0.000492133 0)
(0.0927208 -0.000485226 0)
(0.0936844 -0.000478186 0)
(0.0946337 -0.000471015 0)
(0.0955686 -0.000463713 0)
(0.0964887 -0.000456282 0)
(0.0973938 -0.000448724 0)
(0.0982837 -0.000441041 0)
(0.0991581 -0.000433235 0)
(0.100017 -0.000425307 0)
(0.100859 -0.00041726 0)
(0.101686 -0.000409096 0)
(0.102496 -0.000400817 0)
(0.103289 -0.000392426 0)
(0.104066 -0.000383926 0)
(0.104825 -0.000375319 0)
(0.105567 -0.000366608 0)
(0.106292 -0.000357796 0)
(0.106998 -0.000348887 0)
(0.107687 -0.000339882 0)
(0.108358 -0.000330786 0)
(0.109011 -0.000321601 0)
(0.109645 -0.000312331 0)
(0.11026 -0.000302979 0)
(0.110857 -0.000293549 0)
(0.111434 -0.000284043 0)
(0.111993 -0.000274466 0)
(0.112532 -0.000264821 0)
(0.113052 -0.000255112 0)
(0.113553 -0.000245342 0)
(0.114034 -0.000235514 0)
(0.114495 -0.000225633 0)
(0.114936 -0.000215701 0)
(0.115358 -0.000205722 0)
(0.115759 -0.000195701 0)
(0.11614 -0.00018564 0)
(0.116502 -0.000175543 0)
(0.116843 -0.000165413 0)
(0.117163 -0.000155254 0)
(0.117464 -0.000145069 0)
(0.117744 -0.000134862 0)
(0.118003 -0.000124636 0)
(0.118242 -0.000114394 0)
(0.118461 -0.000104139 0)
(0.118659 -9.38753e-05 0)
(0.118836 -8.36053e-05 0)
(0.118993 -7.33322e-05 0)
(0.11913 -6.3059e-05 0)
(0.119245 -5.27886e-05 0)
(0.119341 -4.25241e-05 0)
(0.119416 -3.22682e-05 0)
(0.11947 -2.20237e-05 0)
(0.119504 -1.17933e-05 0)
(0.119517 -1.57984e-06 0)
(0.11951 8.61417e-06 0)
(0.119482 1.87861e-05 0)
(0.119435 2.89335e-05 0)
(0.119367 3.90539e-05 0)
(0.119279 4.91449e-05 0)
(0.11917 5.9204e-05 0)
(0.119042 6.9229e-05 0)
(0.118893 7.92176e-05 0)
(0.118725 8.91676e-05 0)
(0.118536 9.90767e-05 0)
(0.118328 0.000108943 0)
(0.118101 0.000118764 0)
(0.117853 0.000128538 0)
(0.117586 0.000138262 0)
(0.1173 0.000147935 0)
(0.116995 0.000157555 0)
(0.11667 0.00016712 0)
(0.116326 0.000176628 0)
(0.115963 0.000186076 0)
(0.115582 0.000195463 0)
(0.115181 0.000204788 0)
(0.114763 0.000214047 0)
(0.114325 0.00022324 0)
(0.11387 0.000232364 0)
(0.113396 0.000241418 0)
(0.112904 0.0002504 0)
(0.112394 0.000259307 0)
(0.111866 0.000268139 0)
(0.111321 0.000276894 0)
(0.110759 0.000285569 0)
(0.110179 0.000294163 0)
(0.109582 0.000302675 0)
(0.108968 0.000311102 0)
(0.108338 0.000319443 0)
(0.10769 0.000327697 0)
(0.107027 0.000335861 0)
(0.106347 0.000343934 0)
(0.105651 0.000351915 0)
(0.104939 0.000359802 0)
(0.104212 0.000367593 0)
(0.103469 0.000375288 0)
(0.10271 0.000382884 0)
(0.101937 0.00039038 0)
(0.101149 0.000397775 0)
(0.100346 0.000405068 0)
(0.0995283 0.000412258 0)
(0.0986966 0.000419343 0)
(0.0978509 0.000426322 0)
(0.0969912 0.000433194 0)
(0.096118 0.000439958 0)
(0.0952313 0.000446613 0)
(0.0943314 0.000453159 0)
(0.0934186 0.000459594 0)
(0.0924929 0.000465918 0)
(0.0915548 0.00047213 0)
(0.0906043 0.000478229 0)
(0.0896417 0.000484215 0)
(0.0886673 0.000490089 0)
(0.0876813 0.000495848 0)
(0.0866838 0.000501493 0)
(0.0856752 0.000507024 0)
(0.0846556 0.00051244 0)
(0.0836253 0.000517742 0)
(0.0825845 0.00052293 0)
(0.0815335 0.000528004 0)
(0.0804724 0.000532963 0)
(0.0794015 0.000537809 0)
(0.0783211 0.000542541 0)
(0.0772312 0.00054716 0)
(0.0761323 0.000551667 0)
(0.0750245 0.000556062 0)
(0.0739079 0.000560346 0)
(0.072783 0.00056452 0)
(0.0716498 0.000568583 0)
(0.0705085 0.000572538 0)
(0.0693595 0.000576386 0)
(0.0682029 0.000580126 0)
(0.0670389 0.000583761 0)
(0.0658677 0.000587291 0)
(0.0646896 0.000590718 0)
(0.0635047 0.000594042 0)
(0.0623133 0.000597266 0)
(0.0611156 0.00060039 0)
(0.0599117 0.000603417 0)
(0.0587018 0.000606346 0)
(0.0574862 0.00060918 0)
(0.056265 0.00061192 0)
(0.0550384 0.000614568 0)
(0.0538066 0.000617125 0)
(0.0525698 0.000619593 0)
(0.0513282 0.000621974 0)
(0.0500819 0.000624268 0)
(0.048831 0.000626478 0)
(0.0475759 0.000628606 0)
(0.0463165 0.000630652 0)
(0.0450532 0.000632618 0)
(0.043786 0.000634507 0)
(0.0425151 0.00063632 0)
(0.0412406 0.000638057 0)
(0.0399628 0.000639722 0)
(0.0386817 0.000641315 0)
(0.0373974 0.000642839 0)
(0.0361102 0.000644294 0)
(0.0348202 0.000645682 0)
(0.0335274 0.000647005 0)
(0.0322321 0.000648264 0)
(0.0309343 0.00064946 0)
(0.0296342 0.000650595 0)
(0.0283319 0.000651671 0)
(0.0270275 0.000652688 0)
(0.0257211 0.000653648 0)
(0.0244128 0.000654552 0)
(0.0231028 0.000655401 0)
(0.0217911 0.000656197 0)
(0.020478 0.00065694 0)
(0.0191633 0.000657631 0)
(0.0178474 0.000658272 0)
(0.0165302 0.000658864 0)
(0.0152119 0.000659406 0)
(0.0138925 0.000659901 0)
(0.0125722 0.000660348 0)
(0.0112511 0.000660748 0)
(0.00992918 0.000661103 0)
(0.00860662 0.000661411 0)
(0.00728349 0.000661675 0)
(0.00595987 0.000661895 0)
(0.00463586 0.00066207 0)
(0.00331155 0.000662201 0)
(0.00198702 0.000662288 0)
(0.000662353 0.000662332 0)
(0.000690029 -0.00206993 0)
(0.00207004 -0.00206979 0)
(0.00344992 -0.00206951 0)
(0.00482956 -0.0020691 0)
(0.00620888 -0.00206854 0)
(0.00758778 -0.00206784 0)
(0.00896618 -0.002067 0)
(0.010344 -0.00206602 0)
(0.011721 -0.00206488 0)
(0.0130973 -0.00206361 0)
(0.0144727 -0.00206218 0)
(0.0158471 -0.00206059 0)
(0.0172203 -0.00205885 0)
(0.0185924 -0.00205696 0)
(0.0199632 -0.0020549 0)
(0.0213325 -0.00205267 0)
(0.0227003 -0.00205027 0)
(0.0240664 -0.0020477 0)
(0.0254307 -0.00204495 0)
(0.0267932 -0.00204202 0)
(0.0281537 -0.0020389 0)
(0.029512 -0.00203559 0)
(0.030868 -0.00203208 0)
(0.0322217 -0.00202837 0)
(0.0335728 -0.00202445 0)
(0.0349212 -0.00202032 0)
(0.0362668 -0.00201597 0)
(0.0376094 -0.00201139 0)
(0.0389489 -0.00200658 0)
(0.0402852 -0.00200153 0)
(0.0416179 -0.00199625 0)
(0.0429471 -0.00199071 0)
(0.0442725 -0.00198491 0)
(0.045594 -0.00197886 0)
(0.0469113 -0.00197253 0)
(0.0482244 -0.00196593 0)
(0.0495329 -0.00195905 0)
(0.0508368 -0.00195187 0)
(0.0521358 -0.00194441 0)
(0.0534297 -0.00193664 0)
(0.0547183 -0.00192856 0)
(0.0560015 -0.00192017 0)
(0.057279 -0.00191146 0)
(0.0585505 -0.00190242 0)
(0.0598159 -0.00189305 0)
(0.061075 -0.00188334 0)
(0.0623275 -0.00187328 0)
(0.0635731 -0.00186288 0)
(0.0648117 -0.00185211 0)
(0.0660431 -0.00184099 0)
(0.0672668 -0.00182949 0)
(0.0684828 -0.00181763 0)
(0.0696908 -0.00180538 0)
(0.0708905 -0.00179276 0)
(0.0720816 -0.00177975 0)
(0.073264 -0.00176635 0)
(0.0744372 -0.00175255 0)
(0.0756012 -0.00173836 0)
(0.0767555 -0.00172377 0)
(0.0779 -0.00170877 0)
(0.0790344 -0.00169337 0)
(0.0801584 -0.00167756 0)
(0.0812716 -0.00166134 0)
(0.082374 -0.00164471 0)
(0.0834651 -0.00162767 0)
(0.0845447 -0.00161022 0)
(0.0856125 -0.00159235 0)
(0.0866683 -0.00157407 0)
(0.0877118 -0.00155538 0)
(0.0887427 -0.00153628 0)
(0.0897607 -0.00151677 0)
(0.0907655 -0.00149686 0)
(0.091757 -0.00147653 0)
(0.0927347 -0.00145581 0)
(0.0936986 -0.00143469 0)
(0.0946481 -0.00141317 0)
(0.0955833 -0.00139127 0)
(0.0965036 -0.00136897 0)
(0.097409 -0.0013463 0)
(0.0982992 -0.00132325 0)
(0.0991738 -0.00129983 0)
(0.100033 -0.00127604 0)
(0.100876 -0.0012519 0)
(0.101702 -0.0012274 0)
(0.102513 -0.00120256 0)
(0.103306 -0.00117739 0)
(0.104083 -0.00115189 0)
(0.104842 -0.00112606 0)
(0.105585 -0.00109993 0)
(0.106309 -0.00107349 0)
(0.107016 -0.00104676 0)
(0.107705 -0.00101974 0)
(0.108376 -0.000992447 0)
(0.109029 -0.000964889 0)
(0.109663 -0.000937075 0)
(0.110279 -0.000909016 0)
(0.110875 -0.000880722 0)
(0.111453 -0.000852202 0)
(0.112012 -0.000823468 0)
(0.112551 -0.00079453 0)
(0.113072 -0.000765398 0)
(0.113572 -0.000736084 0)
(0.114053 -0.000706597 0)
(0.114515 -0.000676949 0)
(0.114956 -0.000647151 0)
(0.115378 -0.000617212 0)
(0.115779 -0.000587144 0)
(0.116161 -0.000556957 0)
(0.116522 -0.000526662 0)
(0.116863 -0.000496269 0)
(0.117184 -0.000465788 0)
(0.117484 -0.000435231 0)
(0.117764 -0.000404606 0)
(0.118024 -0.000373924 0)
(0.118263 -0.000343195 0)
(0.118481 -0.000312428 0)
(0.118679 -0.000281634 0)
(0.118857 -0.000250821 0)
(0.119014 -0.000219998 0)
(0.11915 -0.000189176 0)
(0.119266 -0.000158362 0)
(0.119361 -0.000127565 0)
(0.119436 -9.67948e-05 0)
(0.11949 -6.60585e-05 0)
(0.119524 -3.53649e-05 0)
(0.119537 -4.72181e-06 0)
(0.11953 2.58628e-05 0)
(0.119503 5.63812e-05 0)
(0.119455 8.68259e-05 0)
(0.119387 0.000117189 0)
(0.119299 0.000147465 0)
(0.11919 0.000177644 0)
(0.119062 0.000207722 0)
(0.118913 0.00023769 0)
(0.118745 0.000267542 0)
(0.118556 0.000297271 0)
(0.118348 0.000326872 0)
(0.11812 0.000356337 0)
(0.117873 0.000385661 0)
(0.117606 0.000414836 0)
(0.11732 0.000443858 0)
(0.117014 0.00047272 0)
(0.116689 0.000501416 0)
(0.116345 0.000529941 0)
(0.115982 0.000558288 0)
(0.1156 0.000586451 0)
(0.1152 0.000614426 0)
(0.114781 0.000642206 0)
(0.114344 0.000669787 0)
(0.113888 0.000697161 0)
(0.113414 0.000724325 0)
(0.112922 0.000751272 0)
(0.112412 0.000777997 0)
(0.111884 0.000804495 0)
(0.111339 0.00083076 0)
(0.110776 0.000856787 0)
(0.110196 0.000882572 0)
(0.109599 0.000908108 0)
(0.108985 0.000933391 0)
(0.108354 0.000958416 0)
(0.107707 0.000983178 0)
(0.107043 0.00100767 0)
(0.106363 0.00103189 0)
(0.105667 0.00105584 0)
(0.104955 0.0010795 0)
(0.104227 0.00110288 0)
(0.103484 0.00112596 0)
(0.102725 0.00114875 0)
(0.101952 0.00117124 0)
(0.101163 0.00119343 0)
(0.10036 0.00121531 0)
(0.0995426 0.00123688 0)
(0.0987107 0.00125813 0)
(0.0978647 0.00127907 0)
(0.0970049 0.00129969 0)
(0.0961314 0.00131998 0)
(0.0952445 0.00133995 0)
(0.0943444 0.00135959 0)
(0.0934313 0.00137889 0)
(0.0925055 0.00139786 0)
(0.0915671 0.0014165 0)
(0.0906164 0.0014348 0)
(0.0896536 0.00145276 0)
(0.088679 0.00147038 0)
(0.0876927 0.00148766 0)
(0.086695 0.00150459 0)
(0.0856862 0.00152119 0)
(0.0846664 0.00153744 0)
(0.0836358 0.00155334 0)
(0.0825948 0.0015689 0)
(0.0815435 0.00158413 0)
(0.0804822 0.001599 0)
(0.0794111 0.00161354 0)
(0.0783304 0.00162774 0)
(0.0772404 0.00164159 0)
(0.0761412 0.00165511 0)
(0.0750332 0.0016683 0)
(0.0739164 0.00168115 0)
(0.0727912 0.00169367 0)
(0.0716578 0.00170586 0)
(0.0705163 0.00171772 0)
(0.0693671 0.00172926 0)
(0.0682103 0.00174048 0)
(0.0670461 0.00175139 0)
(0.0658747 0.00176198 0)
(0.0646964 0.00177226 0)
(0.0635113 0.00178223 0)
(0.0623197 0.0017919 0)
(0.0611218 0.00180127 0)
(0.0599177 0.00181035 0)
(0.0587076 0.00181913 0)
(0.0574918 0.00182763 0)
(0.0562704 0.00183585 0)
(0.0550437 0.0018438 0)
(0.0538117 0.00185147 0)
(0.0525747 0.00185887 0)
(0.0513329 0.00186601 0)
(0.0500864 0.00187289 0)
(0.0488354 0.00187952 0)
(0.04758 0.0018859 0)
(0.0463205 0.00189204 0)
(0.045057 0.00189793 0)
(0.0437897 0.0019036 0)
(0.0425186 0.00190903 0)
(0.041244 0.00191425 0)
(0.039966 0.00191924 0)
(0.0386848 0.00192402 0)
(0.0374004 0.00192859 0)
(0.0361131 0.00193295 0)
(0.0348229 0.00193711 0)
(0.03353 0.00194108 0)
(0.0322346 0.00194485 0)
(0.0309367 0.00194844 0)
(0.0296364 0.00195185 0)
(0.028334 0.00195507 0)
(0.0270294 0.00195812 0)
(0.0257229 0.001961 0)
(0.0244146 0.00196371 0)
(0.0231045 0.00196626 0)
(0.0217927 0.00196864 0)
(0.0204794 0.00197087 0)
(0.0191647 0.00197295 0)
(0.0178486 0.00197487 0)
(0.0165313 0.00197664 0)
(0.0152129 0.00197827 0)
(0.0138935 0.00197975 0)
(0.0125731 0.00198109 0)
(0.0112518 0.00198229 0)
(0.00992985 0.00198335 0)
(0.0086072 0.00198428 0)
(0.00728397 0.00198507 0)
(0.00596027 0.00198573 0)
(0.00463617 0.00198625 0)
(0.00331177 0.00198665 0)
(0.00198715 0.00198691 0)
(0.000662397 0.00198704 0)
(0.000690122 -0.00345003 0)
(0.00207032 -0.0034498 0)
(0.00345038 -0.00344934 0)
(0.00483021 -0.00344865 0)
(0.00620972 -0.00344772 0)
(0.00758881 -0.00344656 0)
(0.00896739 -0.00344516 0)
(0.0103454 -0.00344352 0)
(0.0117226 -0.00344164 0)
(0.0130991 -0.00343951 0)
(0.0144747 -0.00343713 0)
(0.0158493 -0.0034345 0)
(0.0172228 -0.0034316 0)
(0.018595 -0.00342844 0)
(0.019966 -0.00342501 0)
(0.0213356 -0.0034213 0)
(0.0227036 -0.00341732 0)
(0.0240699 -0.00341304 0)
(0.0254345 -0.00340846 0)
(0.0267972 -0.00340358 0)
(0.028158 -0.00339838 0)
(0.0295165 -0.00339287 0)
(0.0308728 -0.00338703 0)
(0.0322268 -0.00338085 0)
(0.0335781 -0.00337432 0)
(0.0349269 -0.00336744 0)
(0.0362728 -0.00336019 0)
(0.0376157 -0.00335257 0)
(0.0389555 -0.00334456 0)
(0.040292 -0.00333616 0)
(0.0416252 -0.00332735 0)
(0.0429547 -0.00331813 0)
(0.0442804 -0.00330848 0)
(0.0456022 -0.00329839 0)
(0.04692 -0.00328785 0)
(0.0482334 -0.00327686 0)
(0.0495423 -0.0032654 0)
(0.0508465 -0.00325345 0)
(0.0521459 -0.00324101 0)
(0.0534403 -0.00322807 0)
(0.0547293 -0.00321462 0)
(0.0560129 -0.00320064 0)
(0.0572908 -0.00318613 0)
(0.0585628 -0.00317108 0)
(0.0598287 -0.00315546 0)
(0.0610882 -0.00313929 0)
(0.0623411 -0.00312253 0)
(0.0635873 -0.00310519 0)
(0.0648263 -0.00308726 0)
(0.0660581 -0.00306872 0)
(0.0672824 -0.00304957 0)
(0.0684989 -0.0030298 0)
(0.0697074 -0.0030094 0)
(0.0709076 -0.00298836 0)
(0.0720992 -0.00296668 0)
(0.0732821 -0.00294435 0)
(0.0744559 -0.00292136 0)
(0.0756204 -0.00289771 0)
(0.0767753 -0.00287339 0)
(0.0779203 -0.0028484 0)
(0.0790552 -0.00282273 0)
(0.0801797 -0.00279639 0)
(0.0812935 -0.00276936 0)
(0.0823964 -0.00274164 0)
(0.0834881 -0.00271324 0)
(0.0845683 -0.00268415 0)
(0.0856367 -0.00265437 0)
(0.086693 -0.00262391 0)
(0.087737 -0.00259276 0)
(0.0887684 -0.00256092 0)
(0.089787 -0.0025284 0)
(0.0907924 -0.00249521 0)
(0.0917844 -0.00246134 0)
(0.0927627 -0.0024268 0)
(0.093727 -0.00239159 0)
(0.0946771 -0.00235572 0)
(0.0956127 -0.00231921 0)
(0.0965336 -0.00228205 0)
(0.0974395 -0.00224425 0)
(0.0983302 -0.00220582 0)
(0.0992053 -0.00216678 0)
(0.100065 -0.00212713 0)
(0.100908 -0.00208688 0)
(0.101735 -0.00204605 0)
(0.102546 -0.00200465 0)
(0.10334 -0.00196268 0)
(0.104117 -0.00192016 0)
(0.104877 -0.00187712 0)
(0.10562 -0.00183355 0)
(0.106345 -0.00178947 0)
(0.107052 -0.00174491 0)
(0.107742 -0.00169987 0)
(0.108413 -0.00165437 0)
(0.109066 -0.00160843 0)
(0.1097 -0.00156207 0)
(0.110316 -0.00151529 0)
(0.110913 -0.00146812 0)
(0.111491 -0.00142058 0)
(0.11205 -0.00137267 0)
(0.11259 -0.00132443 0)
(0.113111 -0.00127587 0)
(0.113611 -0.001227 0)
(0.114093 -0.00117784 0)
(0.114554 -0.00112842 0)
(0.114996 -0.00107874 0)
(0.115418 -0.00102883 0)
(0.115819 -0.000978705 0)
(0.116201 -0.000928382 0)
(0.116562 -0.000877879 0)
(0.116904 -0.000827212 0)
(0.117224 -0.0007764 0)
(0.117525 -0.000725459 0)
(0.117805 -0.000674407 0)
(0.118065 -0.00062326 0)
(0.118304 -0.000572034 0)
(0.118522 -0.000520745 0)
(0.11872 -0.000469411 0)
(0.118898 -0.000418045 0)
(0.119055 -0.000366665 0)
(0.119191 -0.000315284 0)
(0.119307 -0.000263918 0)
(0.119402 -0.000212581 0)
(0.119477 -0.000161287 0)
(0.119531 -0.000110051 0)
(0.119565 -5.88857e-05 0)
(0.119578 -7.80519e-06 0)
(0.119571 4.31777e-05 0)
(0.119543 9.40501e-05 0)
(0.119496 0.000144799 0)
(0.119427 0.000195413 0)
(0.119339 0.00024588 0)
(0.11923 0.000296187 0)
(0.119102 0.000346324 0)
(0.118953 0.000396278 0)
(0.118784 0.000446039 0)
(0.118596 0.000495595 0)
(0.118387 0.000544936 0)
(0.118159 0.000594052 0)
(0.117912 0.000642931 0)
(0.117645 0.000691564 0)
(0.117358 0.000739941 0)
(0.117052 0.000788051 0)
(0.116727 0.000835884 0)
(0.116383 0.000883431 0)
(0.11602 0.000930682 0)
(0.115638 0.000977628 0)
(0.115237 0.00102426 0)
(0.114818 0.00107057 0)
(0.11438 0.00111654 0)
(0.113924 0.00116217 0)
(0.11345 0.00120745 0)
(0.112957 0.00125237 0)
(0.112447 0.00129691 0)
(0.111919 0.00134108 0)
(0.111374 0.00138486 0)
(0.110811 0.00142825 0)
(0.11023 0.00147123 0)
(0.109633 0.00151379 0)
(0.109019 0.00155594 0)
(0.108387 0.00159765 0)
(0.10774 0.00163893 0)
(0.107075 0.00167976 0)
(0.106395 0.00172013 0)
(0.105699 0.00176004 0)
(0.104986 0.00179948 0)
(0.104258 0.00183845 0)
(0.103515 0.00187693 0)
(0.102756 0.00191492 0)
(0.101982 0.0019524 0)
(0.101193 0.00198939 0)
(0.100389 0.00202586 0)
(0.0995712 0.00206181 0)
(0.0987388 0.00209724 0)
(0.0978924 0.00213214 0)
(0.0970322 0.00216651 0)
(0.0961583 0.00220033 0)
(0.0952709 0.00223361 0)
(0.0943704 0.00226635 0)
(0.0934569 0.00229852 0)
(0.0925306 0.00233015 0)
(0.0915917 0.00236121 0)
(0.0906406 0.00239171 0)
(0.0896773 0.00242164 0)
(0.0887022 0.00245101 0)
(0.0877155 0.00247981 0)
(0.0867174 0.00250804 0)
(0.0857081 0.00253569 0)
(0.0846878 0.00256277 0)
(0.0836568 0.00258928 0)
(0.0826153 0.00261522 0)
(0.0815636 0.00264059 0)
(0.0805018 0.00266538 0)
(0.0794303 0.00268961 0)
(0.0783491 0.00271327 0)
(0.0772586 0.00273636 0)
(0.076159 0.0027589 0)
(0.0750505 0.00278087 0)
(0.0739333 0.00280228 0)
(0.0728077 0.00282315 0)
(0.0716738 0.00284346 0)
(0.0705319 0.00286323 0)
(0.0693823 0.00288246 0)
(0.068225 0.00290116 0)
(0.0670604 0.00291933 0)
(0.0658886 0.00293697 0)
(0.0647099 0.0029541 0)
(0.0635244 0.00297072 0)
(0.0623324 0.00298683 0)
(0.061134 0.00300244 0)
(0.0599296 0.00301757 0)
(0.0587191 0.00303221 0)
(0.0575029 0.00304637 0)
(0.0562812 0.00306006 0)
(0.055054 0.0030733 0)
(0.0538217 0.00308607 0)
(0.0525844 0.00309841 0)
(0.0513422 0.0031103 0)
(0.0500954 0.00312176 0)
(0.048844 0.00313281 0)
(0.0475884 0.00314344 0)
(0.0463286 0.00315366 0)
(0.0450647 0.00316348 0)
(0.0437971 0.00317292 0)
(0.0425257 0.00318197 0)
(0.0412508 0.00319065 0)
(0.0399725 0.00319897 0)
(0.038691 0.00320693 0)
(0.0374064 0.00321454 0)
(0.0361188 0.00322181 0)
(0.0348283 0.00322874 0)
(0.0335352 0.00323535 0)
(0.0322395 0.00324163 0)
(0.0309413 0.00324761 0)
(0.0296408 0.00325328 0)
(0.0283382 0.00325865 0)
(0.0270334 0.00326373 0)
(0.0257267 0.00326852 0)
(0.0244181 0.00327304 0)
(0.0231077 0.00327728 0)
(0.0217958 0.00328125 0)
(0.0204823 0.00328496 0)
(0.0191673 0.00328841 0)
(0.0178511 0.00329161 0)
(0.0165336 0.00329457 0)
(0.015215 0.00329727 0)
(0.0138953 0.00329974 0)
(0.0125748 0.00330197 0)
(0.0112533 0.00330397 0)
(0.00993117 0.00330574 0)
(0.00860834 0.00330728 0)
(0.00728494 0.0033086 0)
(0.00596106 0.0033097 0)
(0.00463678 0.00331057 0)
(0.0033122 0.00331122 0)
(0.00198741 0.00331166 0)
(0.000662484 0.00331188 0)
(0.00069026 -0.00483037 0)
(0.00207074 -0.00483005 0)
(0.00345107 -0.0048294 0)
(0.00483118 -0.00482843 0)
(0.00621097 -0.00482714 0)
(0.00759035 -0.00482552 0)
(0.00896922 -0.00482356 0)
(0.0103475 -0.00482127 0)
(0.0117251 -0.00481864 0)
(0.0131018 -0.00481566 0)
(0.0144777 -0.00481234 0)
(0.0158526 -0.00480866 0)
(0.0172264 -0.00480461 0)
(0.018599 -0.0048002 0)
(0.0199703 -0.0047954 0)
(0.0213402 -0.00479022 0)
(0.0227085 -0.00478465 0)
(0.0240752 -0.00477867 0)
(0.0254402 -0.00477227 0)
(0.0268033 -0.00476545 0)
(0.0281644 -0.00475819 0)
(0.0295233 -0.00475048 0)
(0.0308801 -0.00474231 0)
(0.0322344 -0.00473367 0)
(0.0335862 -0.00472455 0)
(0.0349353 -0.00471493 0)
(0.0362817 -0.00470479 0)
(0.0376251 -0.00469414 0)
(0.0389653 -0.00468294 0)
(0.0403024 -0.00467119 0)
(0.041636 -0.00465888 0)
(0.042966 -0.00464598 0)
(0.0442923 -0.00463248 0)
(0.0456146 -0.00461837 0)
(0.0469329 -0.00460364 0)
(0.0482468 -0.00458826 0)
(0.0495563 -0.00457223 0)
(0.0508612 -0.00455552 0)
(0.0521612 -0.00453812 0)
(0.0534561 -0.00452002 0)
(0.0547458 -0.0045012 0)
(0.05603 -0.00448165 0)
(0.0573085 -0.00446135 0)
(0.0585812 -0.00444028 0)
(0.0598477 -0.00441844 0)
(0.0611079 -0.00439581 0)
(0.0623616 -0.00437236 0)
(0.0636084 -0.0043481 0)
(0.0648482 -0.00432301 0)
(0.0660808 -0.00429707 0)
(0.0673058 -0.00427027 0)
(0.068523 -0.0042426 0)
(0.0697323 -0.00421405 0)
(0.0709332 -0.00418461 0)
(0.0721257 -0.00415426 0)
(0.0733093 -0.00412301 0)
(0.0744839 -0.00409083 0)
(0.0756492 -0.00405773 0)
(0.0768049 -0.00402369 0)
(0.0779507 -0.00398871 0)
(0.0790864 -0.00395278 0)
(0.0802118 -0.0039159 0)
(0.0813264 -0.00387806 0)
(0.0824301 -0.00383926 0)
(0.0835226 -0.0037995 0)
(0.0846036 -0.00375877 0)
(0.0856728 -0.00371709 0)
(0.08673 -0.00367443 0)
(0.0877748 -0.00363082 0)
(0.0888071 -0.00358625 0)
(0.0898264 -0.00354072 0)
(0.0908326 -0.00349424 0)
(0.0918254 -0.00344681 0)
(0.0928045 -0.00339844 0)
(0.0937697 -0.00334915 0)
(0.0947206 -0.00329893 0)
(0.095657 -0.00324779 0)
(0.0965786 -0.00319576 0)
(0.0974853 -0.00314283 0)
(0.0983767 -0.00308902 0)
(0.0992525 -0.00303434 0)
(0.100113 -0.00297882 0)
(0.100957 -0.00292246 0)
(0.101785 -0.00286527 0)
(0.102596 -0.00280729 0)
(0.103391 -0.00274852 0)
(0.104168 -0.00268898 0)
(0.104929 -0.00262869 0)
(0.105672 -0.00256767 0)
(0.106398 -0.00250595 0)
(0.107106 -0.00244354 0)
(0.107796 -0.00238046 0)
(0.108468 -0.00231674 0)
(0.109121 -0.0022524 0)
(0.109756 -0.00218746 0)
(0.110373 -0.00212195 0)
(0.11097 -0.00205589 0)
(0.111549 -0.00198931 0)
(0.112108 -0.00192222 0)
(0.112648 -0.00185466 0)
(0.113169 -0.00178664 0)
(0.11367 -0.0017182 0)
(0.114152 -0.00164936 0)
(0.114614 -0.00158014 0)
(0.115056 -0.00151056 0)
(0.115478 -0.00144066 0)
(0.11588 -0.00137046 0)
(0.116261 -0.00129999 0)
(0.116623 -0.00122926 0)
(0.116964 -0.0011583 0)
(0.117285 -0.00108714 0)
(0.117586 -0.0010158 0)
(0.117866 -0.000944303 0)
(0.118126 -0.000872673 0)
(0.118365 -0.000800934 0)
(0.118584 -0.000729108 0)
(0.118782 -0.000657218 0)
(0.11896 -0.000585285 0)
(0.119117 -0.000513331 0)
(0.119253 -0.000441377 0)
(0.119369 -0.000369444 0)
(0.119464 -0.000297552 0)
(0.119539 -0.000225721 0)
(0.119593 -0.000153971 0)
(0.119626 -8.23216e-05 0)
(0.119639 -1.07905e-05 0)
(0.119632 6.06035e-05 0)
(0.119604 0.000131842 0)
(0.119556 0.000202909 0)
(0.119488 0.000273785 0)
(0.119399 0.000344455 0)
(0.119291 0.000414901 0)
(0.119162 0.000485108 0)
(0.119013 0.00055506 0)
(0.118844 0.00062474 0)
(0.118655 0.000694134 0)
(0.118447 0.000763227 0)
(0.118218 0.000832003 0)
(0.11797 0.000900449 0)
(0.117703 0.000968549 0)
(0.117416 0.00103629 0)
(0.11711 0.00110366 0)
(0.116784 0.00117064 0)
(0.11644 0.00123722 0)
(0.116076 0.00130338 0)
(0.115694 0.00136912 0)
(0.115293 0.00143442 0)
(0.114873 0.00149926 0)
(0.114435 0.00156363 0)
(0.113979 0.00162753 0)
(0.113504 0.00169093 0)
(0.113011 0.00175383 0)
(0.1125 0.00181621 0)
(0.111972 0.00187806 0)
(0.111426 0.00193936 0)
(0.110862 0.00200011 0)
(0.110282 0.0020603 0)
(0.109684 0.0021199 0)
(0.109069 0.00217892 0)
(0.108437 0.00223733 0)
(0.107789 0.00229512 0)
(0.107124 0.0023523 0)
(0.106443 0.00240883 0)
(0.105746 0.00246472 0)
(0.105033 0.00251995 0)
(0.104305 0.00257451 0)
(0.10356 0.00262839 0)
(0.102801 0.00268158 0)
(0.102026 0.00273407 0)
(0.101237 0.00278586 0)
(0.100433 0.00283693 0)
(0.099614 0.00288727 0)
(0.098781 0.00293688 0)
(0.097934 0.00298575 0)
(0.0970731 0.00303386 0)
(0.0961985 0.00308123 0)
(0.0953105 0.00312783 0)
(0.0944093 0.00317366 0)
(0.0934951 0.00321871 0)
(0.0925682 0.00326299 0)
(0.0916287 0.00330648 0)
(0.0906768 0.00334918 0)
(0.0897129 0.0033911 0)
(0.0887371 0.00343221 0)
(0.0877497 0.00347253 0)
(0.0867509 0.00351205 0)
(0.0857409 0.00355077 0)
(0.0847199 0.00358868 0)
(0.0836883 0.0036258 0)
(0.0826461 0.00366211 0)
(0.0815937 0.00369762 0)
(0.0805312 0.00373234 0)
(0.079459 0.00376625 0)
(0.0783772 0.00379937 0)
(0.077286 0.0038317 0)
(0.0761857 0.00386324 0)
(0.0750765 0.00389399 0)
(0.0739587 0.00392397 0)
(0.0728324 0.00395317 0)
(0.0716979 0.00398161 0)
(0.0705553 0.00400928 0)
(0.069405 0.0040362 0)
(0.0682471 0.00406236 0)
(0.0670819 0.00408779 0)
(0.0659095 0.00411249 0)
(0.0647301 0.00413646 0)
(0.063544 0.00415971 0)
(0.0623514 0.00418226 0)
(0.0611525 0.00420411 0)
(0.0599474 0.00422527 0)
(0.0587364 0.00424576 0)
(0.0575196 0.00426557 0)
(0.0562973 0.00428474 0)
(0.0550696 0.00430325 0)
(0.0538368 0.00432113 0)
(0.0525989 0.00433838 0)
(0.0513562 0.00435502 0)
(0.0501089 0.00437106 0)
(0.048857 0.00438651 0)
(0.0476009 0.00440138 0)
(0.0463406 0.00441568 0)
(0.0450763 0.00442942 0)
(0.0438082 0.00444262 0)
(0.0425363 0.00445528 0)
(0.041261 0.00446743 0)
(0.0399823 0.00447906 0)
(0.0387003 0.00449019 0)
(0.0374153 0.00450083 0)
(0.0361273 0.004511 0)
(0.0348364 0.00452069 0)
(0.0335429 0.00452993 0)
(0.0322468 0.00453872 0)
(0.0309483 0.00454708 0)
(0.0296474 0.00455501 0)
(0.0283444 0.00456252 0)
(0.0270393 0.00456962 0)
(0.0257322 0.00457632 0)
(0.0244233 0.00458263 0)
(0.0231127 0.00458856 0)
(0.0218004 0.00459412 0)
(0.0204865 0.0045993 0)
(0.0191713 0.00460413 0)
(0.0178548 0.00460861 0)
(0.016537 0.00461273 0)
(0.0152181 0.00461652 0)
(0.0138982 0.00461997 0)
(0.0125773 0.00462309 0)
(0.0112556 0.00462588 0)
(0.00993315 0.00462836 0)
(0.00861005 0.00463051 0)
(0.00728638 0.00463236 0)
(0.00596224 0.00463389 0)
(0.0046377 0.00463511 0)
(0.00331286 0.00463602 0)
(0.0019878 0.00463663 0)
(0.000662614 0.00463693 0)
(0.000690444 -0.00621103 0)
(0.00207129 -0.00621062 0)
(0.003452 -0.00620979 0)
(0.00483248 -0.00620855 0)
(0.00621264 -0.00620689 0)
(0.00759239 -0.0062048 0)
(0.00897164 -0.0062023 0)
(0.0103503 -0.00619936 0)
(0.0117283 -0.00619599 0)
(0.0131054 -0.00619217 0)
(0.0144817 -0.00618791 0)
(0.015857 -0.00618318 0)
(0.0172312 -0.006178 0)
(0.0186043 -0.00617233 0)
(0.019976 -0.00616618 0)
(0.0213463 -0.00615954 0)
(0.0227151 -0.00615238 0)
(0.0240823 -0.00614471 0)
(0.0254478 -0.0061365 0)
(0.0268113 -0.00612775 0)
(0.0281729 -0.00611844 0)
(0.0295324 -0.00610855 0)
(0.0308897 -0.00609807 0)
(0.0322445 -0.00608698 0)
(0.0335969 -0.00607527 0)
(0.0349466 -0.00606293 0)
(0.0362936 -0.00604992 0)
(0.0376375 -0.00603624 0)
(0.0389785 -0.00602187 0)
(0.0403161 -0.00600679 0)
(0.0416504 -0.00599098 0)
(0.0429811 -0.00597442 0)
(0.044308 -0.0059571 0)
(0.0456311 -0.00593899 0)
(0.0469501 -0.00592007 0)
(0.0482648 -0.00590032 0)
(0.049575 -0.00587973 0)
(0.0508807 -0.00585828 0)
(0.0521814 -0.00583594 0)
(0.0534772 -0.00581269 0)
(0.0547677 -0.00578852 0)
(0.0560528 -0.00576341 0)
(0.0573322 -0.00573733 0)
(0.0586057 -0.00571027 0)
(0.0598732 -0.00568221 0)
(0.0611343 -0.00565313 0)
(0.0623888 -0.00562302 0)
(0.0636366 -0.00559184 0)
(0.0648774 -0.0055596 0)
(0.0661109 -0.00552627 0)
(0.0673369 -0.00549184 0)
(0.0685552 -0.00545628 0)
(0.0697654 -0.00541959 0)
(0.0709674 -0.00538176 0)
(0.0721609 -0.00534276 0)
(0.0733456 -0.00530259 0)
(0.0745212 -0.00526123 0)
(0.0756876 -0.00521868 0)
(0.0768443 -0.00517493 0)
(0.0779912 -0.00512997 0)
(0.0791281 -0.00508378 0)
(0.0802545 -0.00503637 0)
(0.0813702 -0.00498772 0)
(0.082475 -0.00493784 0)
(0.0835686 -0.00488672 0)
(0.0846507 -0.00483436 0)
(0.085721 -0.00478076 0)
(0.0867793 -0.00472592 0)
(0.0878252 -0.00466984 0)
(0.0888586 -0.00461253 0)
(0.089879 -0.00455398 0)
(0.0908863 -0.00449421 0)
(0.0918802 -0.00443322 0)
(0.0928604 -0.00437102 0)
(0.0938266 -0.00430763 0)
(0.0947785 -0.00424304 0)
(0.095716 -0.00417728 0)
(0.0966387 -0.00411036 0)
(0.0975463 -0.00404228 0)
(0.0984387 -0.00397308 0)
(0.0993156 -0.00390276 0)
(0.100177 -0.00383134 0)
(0.101022 -0.00375885 0)
(0.10185 -0.0036853 0)
(0.102663 -0.00361072 0)
(0.103458 -0.00353512 0)
(0.104237 -0.00345854 0)
(0.104998 -0.00338099 0)
(0.105743 -0.00330251 0)
(0.106469 -0.00322311 0)
(0.107178 -0.00314283 0)
(0.107868 -0.00306169 0)
(0.108541 -0.00297973 0)
(0.109195 -0.00289697 0)
(0.109831 -0.00281344 0)
(0.110448 -0.00272917 0)
(0.111046 -0.00264419 0)
(0.111625 -0.00255854 0)
(0.112185 -0.00247224 0)
(0.112726 -0.00238533 0)
(0.113247 -0.00229784 0)
(0.113749 -0.0022098 0)
(0.114231 -0.00212125 0)
(0.114693 -0.0020322 0)
(0.115135 -0.00194271 0)
(0.115558 -0.0018528 0)
(0.11596 -0.0017625 0)
(0.116342 -0.00167184 0)
(0.116704 -0.00158086 0)
(0.117046 -0.00148959 0)
(0.117367 -0.00139806 0)
(0.117668 -0.00130629 0)
(0.117948 -0.00121433 0)
(0.118208 -0.0011222 0)
(0.118447 -0.00102992 0)
(0.118666 -0.000937536 0)
(0.118864 -0.000845068 0)
(0.119042 -0.000752545 0)
(0.119199 -0.000659996 0)
(0.119335 -0.000567448 0)
(0.119451 -0.000474928 0)
(0.119546 -0.000382461 0)
(0.119621 -0.000290074 0)