/*--------------------------------*- C++ -*----------------------------------*\
| =========                 |                                                 |
| \\      /  F ield         | OpenFOAM: The Open Source CFD Toolbox           |
|  \\    /   O peration     | Version:  v2012                                 |
|   \\  /    A nd           | Website:  www.openfoam.com                      |
|    \\/     M anipulation  |                                                 |
\*---------------------------------------------------------------------------*/
FoamFile
{
    version     2.0;
    format      ascii;
    class       volScalarField;
    location    "1";
    object      W;
}
// * * * * * * * * * * * * * * * * * * * * * * * * * * * * * * * * * * * * * //

dimensions      [0 0 -1 0 0 0 0];


internalField   nonuniform List<scalar> 
65536
(
5.36615e-21
6.29496e-21
8.17378e-21
1.10891e-20
1.52453e-20
2.09927e-20
2.88482e-20
3.95242e-20
5.39758e-20
7.3469e-20
9.96723e-20
1.34775e-19
1.81639e-19
2.43989e-19
3.26661e-19
4.35901e-19
5.79751e-19
7.68527e-19
1.01541e-18
1.33716e-18
1.75506e-18
2.29594e-18
2.9936e-18
3.89036e-18
5.03904e-18
6.5053e-18
8.37047e-18
1.07348e-17
1.37214e-17
1.7481e-17
2.2197e-17
2.8092e-17
3.54349e-17
4.45493e-17
5.58226e-17
6.97171e-17
8.67815e-17
1.07665e-16
1.33131e-16
1.64075e-16
2.01542e-16
2.46742e-16
3.01078e-16
3.6616e-16
4.43831e-16
5.36193e-16
6.45622e-16
7.748e-16
9.26732e-16
1.10477e-15
1.31263e-15
1.5544e-15
1.83457e-15
2.15801e-15
2.53002e-15
2.95626e-15
3.44277e-15
3.99594e-15
4.62248e-15
5.32937e-15
6.12378e-15
7.01301e-15
8.00444e-15
9.10535e-15
1.03229e-14
1.16638e-14
1.31346e-14
1.4741e-14
1.64881e-14
1.83799e-14
2.04196e-14
2.26089e-14
2.4948e-14
2.74359e-14
3.00693e-14
3.28435e-14
3.57514e-14
3.87842e-14
4.19306e-14
4.51774e-14
4.85089e-14
5.19075e-14
5.53536e-14
5.88255e-14
6.22999e-14
6.57519e-14
6.91556e-14
7.24837e-14
7.57088e-14
7.88029e-14
8.17382e-14
8.44877e-14
8.7025e-14
8.93254e-14
9.13657e-14
9.31252e-14
9.45855e-14
9.5731e-14
9.65495e-14
9.7032e-14
9.71731e-14
9.69713e-14
9.64286e-14
9.55508e-14
9.43475e-14
9.28317e-14
9.10201e-14
8.89322e-14
8.65907e-14
8.40204e-14
8.12487e-14
7.83047e-14
7.52187e-14
7.20224e-14
6.87476e-14
6.54268e-14
6.2092e-14
5.87748e-14
5.55062e-14
5.23156e-14
4.92315e-14
4.62807e-14
4.3488e-14
4.08766e-14
3.84676e-14
3.62801e-14
3.4331e-14
3.26352e-14
3.12052e-14
3.00517e-14
2.91831e-14
2.86056e-14
2.83233e-14
2.83384e-14
2.86508e-14
2.92583e-14
3.01566e-14
3.13392e-14
3.27975e-14
3.45204e-14
3.64947e-14
3.8705e-14
4.11335e-14
4.37599e-14
4.65621e-14
4.95153e-14
5.25931e-14
5.57667e-14
5.9006e-14
6.22791e-14
6.55529e-14
6.87935e-14
7.19665e-14
7.50373e-14
7.79717e-14
8.07362e-14
8.32986e-14
8.56286e-14
8.76979e-14
8.9481e-14
9.09555e-14
9.21024e-14
9.29064e-14
9.33566e-14
9.34461e-14
9.31723e-14
9.25373e-14
9.15472e-14
9.02125e-14
8.85478e-14
8.65713e-14
8.43046e-14
8.17723e-14
7.90015e-14
7.60213e-14
7.28622e-14
6.9556e-14
6.61344e-14
6.26296e-14
5.90728e-14
5.54944e-14
5.19231e-14
4.83861e-14
4.49082e-14
4.15121e-14
3.82176e-14
3.50422e-14
3.20004e-14
2.9104e-14
2.63623e-14
2.37817e-14
2.13664e-14
1.91181e-14
1.70366e-14
1.51197e-14
1.33636e-14
1.17632e-14
1.0312e-14
9.00272e-15
7.82746e-15
6.77768e-15
5.84456e-15
5.01918e-15
4.29262e-15
3.65612e-15
3.10116e-15
2.61958e-15
2.20366e-15
1.84612e-15
1.5402e-15
1.27967e-15
1.0588e-15
8.72436e-16
7.15896e-16
5.85012e-16
4.76075e-16
3.85819e-16
3.11377e-16
2.50256e-16
2.00298e-16
1.59648e-16
1.26719e-16
1.00165e-16
7.8846e-17
6.18068e-17
4.82486e-17
3.7508e-17
2.90372e-17
2.2386e-17
1.71865e-17
1.31398e-17
1.00041e-17
7.58508e-18
5.72704e-18
4.30615e-18
3.22431e-18
2.40422e-18
1.78525e-18
1.32012e-18
9.72114e-19
7.12868e-19
5.20582e-19
3.7858e-19
2.74166e-19
1.97724e-19
1.42001e-19
1.01558e-19
7.23313e-20
5.13012e-20
3.62352e-20
2.54916e-20
1.78742e-20
1.25294e-20
8.87818e-21
6.57147e-21
5.44357e-21
7.0833e-21
8.30956e-21
1.079e-20
1.46389e-20
2.01257e-20
2.77132e-20
3.80836e-20
5.21774e-20
7.12553e-20
9.69886e-20
1.3158e-19
1.77918e-19
2.39781e-19
3.22086e-19
4.31213e-19
5.75407e-19
7.65282e-19
1.01445e-18
1.3403e-18
1.76496e-18
2.31649e-18
3.03031e-18
3.95099e-18
5.13436e-18
6.65011e-18
8.58483e-18
1.10458e-17
1.41651e-17
1.81053e-17
2.30648e-17
2.92857e-17
3.70612e-17
4.67459e-17
5.8766e-17
7.36322e-17
9.19533e-17
1.14452e-16
1.41984e-16
1.75554e-16
2.16342e-16
2.65721e-16
3.25287e-16
3.96883e-16
4.82628e-16
5.84949e-16
7.06604e-16
8.50722e-16
1.02083e-15
1.22086e-15
1.45524e-15
1.72883e-15
2.047e-15
2.41565e-15
2.84117e-15
3.33049e-15
3.89103e-15
4.53072e-15
5.25791e-15
6.08139e-15
7.01028e-15
8.05394e-15
9.22193e-15
1.05238e-14
1.19692e-14
1.35672e-14
1.53268e-14
1.72562e-14
1.9363e-14
2.16536e-14
2.41333e-14
2.6806e-14
2.96738e-14
3.27369e-14
3.59936e-14
3.94398e-14
4.30687e-14
4.68713e-14
5.08355e-14
5.49465e-14
5.91868e-14
6.35358e-14
6.79703e-14
7.24645e-14
7.69898e-14
8.15158e-14
8.60099e-14
9.0438e-14
9.47647e-14
9.8954e-14
1.02969e-13
1.06775e-13
1.10335e-13
1.13616e-13
1.16586e-13
1.19214e-13
1.21474e-13
1.23342e-13
1.24798e-13
1.25827e-13
1.26417e-13
1.26562e-13
1.2626e-13
1.25514e-13
1.24332e-13
1.22728e-13
1.20718e-13
1.18324e-13
1.15573e-13
1.12494e-13
1.09119e-13
1.05485e-13
1.0163e-13
9.75928e-14
9.3415e-14
8.91383e-14
8.48045e-14
8.04555e-14
7.61322e-14
7.18745e-14
6.77208e-14
6.37075e-14
5.98692e-14
5.62381e-14
5.28437e-14
4.97133e-14
4.68711e-14
4.43388e-14
4.21351e-14
4.02762e-14
3.87752e-14
3.76426e-14
3.68863e-14
3.65111e-14
3.65194e-14
3.69108e-14
3.7682e-14
3.88272e-14
4.03376e-14
4.22017e-14
4.44051e-14
4.69304e-14
4.97576e-14
5.28633e-14
5.62216e-14
5.98035e-14
6.35772e-14
6.75085e-14
7.15605e-14
7.56943e-14
7.98691e-14
8.40424e-14
8.81709e-14
9.22104e-14
9.61167e-14
9.98463e-14
1.03356e-13
1.06606e-13
1.09557e-13
1.12173e-13
1.14421e-13
1.16274e-13
1.17708e-13
1.18703e-13
1.19246e-13
1.19329e-13
1.18948e-13
1.18106e-13
1.16812e-13
1.1508e-13
1.12928e-13
1.1038e-13
1.07463e-13
1.0421e-13
1.00655e-13
9.68347e-14
9.27892e-14
8.85584e-14
8.41831e-14
7.97041e-14
7.51612e-14
7.0593e-14
6.60362e-14
6.1525e-14
5.70911e-14
5.27631e-14
4.85662e-14
4.45224e-14
4.065e-14
3.69639e-14
3.34757e-14
3.01935e-14
2.71222e-14
2.42642e-14
2.16188e-14
1.91832e-14
1.69525e-14
1.492e-14
1.30773e-14
1.14153e-14
9.92371e-15
8.59159e-15
7.40775e-15
6.36078e-15
5.43932e-15
4.63221e-15
3.92862e-15
3.31816e-15
2.79101e-15
2.33792e-15
1.9503e-15
1.62022e-15
1.34045e-15
1.1044e-15
9.06158e-16
7.40423e-16
6.02495e-16
4.88231e-16
3.93998e-16
3.16635e-16
2.53408e-16
2.01965e-16
1.60297e-16
1.26698e-16
9.9726e-17
7.817e-17
6.10189e-17
4.7433e-17
3.67189e-17
2.83067e-17
2.17311e-17
1.66136e-17
1.26485e-17
9.58963e-18
7.2403e-18
5.44379e-18
4.07602e-18
3.03921e-18
2.25671e-18
1.6687e-18
1.22878e-18
9.01064e-19
6.58003e-19
4.78508e-19
3.46529e-19
2.49908e-19
1.79477e-19
1.2836e-19
9.14191e-20
6.4839e-20
4.57972e-20
3.22183e-20
2.25908e-20
1.58356e-20
1.12206e-20
8.305e-21
6.87949e-21
1.08429e-20
1.27202e-20
1.65175e-20
2.24094e-20
3.08087e-20
4.24235e-20
5.8298e-20
7.98717e-20
1.09074e-19
1.48463e-19
2.01408e-19
2.72333e-19
3.67015e-19
4.92982e-19
6.59993e-19
8.80662e-19
1.17123e-18
1.55251e-18
2.05111e-18
2.70088e-18
3.54473e-18
4.63682e-18
6.04531e-18
7.85556e-18
1.01741e-17
1.31333e-17
1.68971e-17
2.16675e-17
2.76927e-17
3.52761e-17
4.47872e-17
5.66742e-17
7.14784e-17
8.98507e-17
1.12571e-16
1.40568e-16
1.74945e-16
2.17007e-16
2.68288e-16
3.30586e-16
4.05996e-16
4.9695e-16
6.06258e-16
7.37148e-16
8.93315e-16
1.07896e-15
1.29885e-15
1.55834e-15
1.86343e-15
2.22083e-15
2.63794e-15
3.12293e-15
3.68474e-15
4.33307e-15
5.07845e-15
5.93212e-15
6.90608e-15
8.01301e-15
9.26618e-15
1.06794e-14
1.22668e-14
1.40427e-14
1.60218e-14
1.82181e-14
2.06458e-14
2.3318e-14
2.62472e-14
2.94446e-14
3.29196e-14
3.66802e-14
4.07319e-14
4.50776e-14
4.97174e-14
5.46484e-14
5.98639e-14
6.53535e-14
7.1103e-14
7.70939e-14
8.33034e-14
8.97047e-14
9.62663e-14
1.02953e-13
1.09725e-13
1.16539e-13
1.2335e-13
1.30107e-13
1.36759e-13
1.43253e-13
1.49534e-13
1.55548e-13
1.61239e-13
1.66556e-13
1.71446e-13
1.75863e-13
1.79761e-13
1.831e-13
1.85846e-13
1.87969e-13
1.89446e-13
1.90261e-13
1.90405e-13
1.89876e-13
1.8868e-13
1.86829e-13
1.84344e-13
1.81252e-13
1.77587e-13
1.73387e-13
1.68698e-13
1.63571e-13
1.58058e-13
1.52218e-13
1.46111e-13
1.39798e-13
1.33342e-13
1.26806e-13
1.20252e-13
1.13742e-13
1.07336e-13
1.0109e-13
9.5059e-14
8.92938e-14
8.38424e-14
7.87484e-14
7.40517e-14
6.97883e-14
6.59896e-14
6.26831e-14
5.9892e-14
5.76354e-14
5.59281e-14
5.47811e-14
5.4201e-14
5.41904e-14
5.47482e-14
5.58687e-14
5.75426e-14
5.97564e-14
6.24921e-14
6.5728e-14
6.94377e-14
7.35909e-14
7.81528e-14
8.30843e-14
8.83423e-14
9.38797e-14
9.96454e-14
1.05585e-13
1.11641e-13
1.17752e-13
1.23857e-13
1.29892e-13
1.35791e-13
1.4149e-13
1.46925e-13
1.52033e-13
1.56756e-13
1.61035e-13
1.6482e-13
1.68063e-13
1.70724e-13
1.72768e-13
1.74168e-13
1.74904e-13
1.74964e-13
1.74346e-13
1.73054e-13
1.71102e-13
1.68509e-13
1.65304e-13
1.61522e-13
1.57204e-13
1.52397e-13
1.47153e-13
1.41525e-13
1.35572e-13
1.29352e-13
1.22926e-13
1.16352e-13
1.09689e-13
1.02994e-13
9.63193e-14
8.97153e-14
8.3228e-14
7.68986e-14
7.0764e-14
6.48557e-14
5.92004e-14
5.38193e-14
4.8729e-14
4.39411e-14
3.94627e-14
3.52965e-14
3.14416e-14
2.78935e-14
2.46449e-14
2.16857e-14
1.90038e-14
1.65854e-14
1.44156e-14
1.24782e-14
1.0757e-14
9.23505e-15
7.8959e-15
6.72318e-15
5.70109e-15
4.81449e-15
4.04902e-15
3.39122e-15
2.82857e-15
2.34954e-15
1.94358e-15
1.60112e-15
1.31356e-15
1.07318e-15
8.7317e-16
7.07495e-16
5.70882e-16
4.58741e-16
3.67102e-16
2.92551e-16
2.32174e-16
1.83494e-16
1.44419e-16
1.13194e-16
8.83514e-17
6.86751e-17
5.31592e-17
4.0978e-17
3.14569e-17
2.40477e-17
1.83073e-17
1.38792e-17
1.04785e-17
7.87813e-18
5.89847e-18
4.39791e-18
3.26546e-18
2.41454e-18
1.77792e-18
1.30372e-18
9.52015e-19
6.923e-19
5.01344e-19
3.61549e-19
2.59651e-19
1.85696e-19
1.32253e-19
9.37993e-20
6.62519e-20
4.6608e-20
3.26803e-20
2.29078e-20
1.62315e-20
1.20133e-20
9.95085e-21
1.74189e-20
2.04345e-20
2.65345e-20
3.59992e-20
4.94913e-20
6.81484e-20
9.36474e-20
1.283e-19
1.75205e-19
2.3847e-19
3.23506e-19
4.37414e-19
5.89475e-19
7.91769e-19
1.05997e-18
1.41432e-18
1.88089e-18
2.49311e-18
3.29365e-18
4.33686e-18
5.69157e-18
7.44473e-18
9.70566e-18
1.26113e-17
1.63326e-17
2.10818e-17
2.71218e-17
3.47767e-17
4.44443e-17
5.66109e-17
7.18691e-17
9.0937e-17
1.14682e-16
1.44147e-16
1.80581e-16
2.25473e-16
2.80589e-16
3.48017e-16
4.30215e-16
5.30057e-16
6.50899e-16
7.96629e-16
9.71742e-16
1.1814e-15
1.4315e-15
1.72878e-15
2.08082e-15
2.49619e-15
2.98449e-15
3.55639e-15
4.22371e-15
4.99948e-15
5.89794e-15
6.93458e-15
8.12611e-15
9.49045e-15
1.10467e-14
1.2815e-14
1.48164e-14
1.70728e-14
1.96067e-14
2.24408e-14
2.55981e-14
2.91012e-14
3.2972e-14
3.72315e-14
4.18991e-14
4.69923e-14
5.2526e-14
5.85124e-14
6.49597e-14
7.18723e-14
7.92501e-14
8.70875e-14
9.53737e-14
1.04092e-13
1.13218e-13
1.22724e-13
1.32571e-13
1.42717e-13
1.53112e-13
1.63698e-13
1.74414e-13
1.85189e-13
1.95951e-13
2.0662e-13
2.17115e-13
2.27352e-13
2.37243e-13
2.46702e-13
2.55644e-13
2.63984e-13
2.71643e-13
2.78545e-13
2.8462e-13
2.89805e-13
2.94047e-13
2.97299e-13
2.99528e-13
3.00707e-13
3.00825e-13
2.99879e-13
2.97879e-13
2.94847e-13
2.90816e-13
2.8583e-13
2.79943e-13
2.73218e-13
2.65728e-13
2.57551e-13
2.48775e-13
2.3949e-13
2.29791e-13
2.19776e-13
2.09544e-13
1.99193e-13
1.88824e-13
1.7853e-13
1.68407e-13
1.58544e-13
1.49024e-13
1.3993e-13
1.31333e-13
1.23303e-13
1.15901e-13
1.09182e-13
1.03196e-13
9.7984e-14
9.35812e-14
9.00167e-14
8.73128e-14
8.54852e-14
8.45435e-14
8.44907e-14
8.53237e-14
8.70331e-14
8.9603e-14
9.30114e-14
9.72296e-14
1.02223e-13
1.07949e-13
1.1436e-13
1.21401e-13
1.29012e-13
1.37124e-13
1.45663e-13
1.5455e-13
1.63701e-13
1.73025e-13
1.8243e-13
1.91818e-13
2.0109e-13
2.10147e-13
2.18888e-13
2.27215e-13
2.35032e-13
2.42247e-13
2.48774e-13
2.54533e-13
2.59453e-13
2.63471e-13
2.66536e-13
2.68606e-13
2.69652e-13
2.69657e-13
2.68618e-13
2.66542e-13
2.63451e-13
2.59378e-13
2.54366e-13
2.4847e-13
2.41756e-13
2.34294e-13
2.26165e-13
2.17452e-13
2.08246e-13
1.98636e-13
1.88715e-13
1.78574e-13
1.68303e-13
1.57988e-13
1.47711e-13
1.37549e-13
1.2757e-13
1.1784e-13
1.08413e-13
9.93374e-14
9.06542e-14
8.23953e-14
7.45856e-14
6.72423e-14
6.0376e-14
5.39906e-14
4.80842e-14
4.26495e-14
3.76749e-14
3.31448e-14
2.90403e-14
2.53401e-14
2.20209e-14
1.90582e-14
1.64265e-14
1.41001e-14
1.20536e-14
1.02618e-14
8.70041e-15
7.34629e-15
6.1774e-15
5.17311e-15
4.31425e-15
3.58315e-15
2.96367e-15
2.44118e-15
2.0025e-15
1.63587e-15
1.33084e-15
1.07821e-15
8.69927e-16
6.98975e-16
5.59293e-16
4.45672e-16
3.53662e-16
2.79486e-16
2.19952e-16
1.72382e-16
1.3454e-16
1.0457e-16
8.09388e-17
6.2388e-17
4.78894e-17
3.66077e-17
2.78675e-17
2.1126e-17
1.59488e-17
1.19904e-17
8.97697e-18
6.69297e-18
4.96935e-18
3.67428e-18
2.70544e-18
1.98378e-18
1.44858e-18
1.05337e-18
7.628e-19
5.50089e-19
3.95044e-19
2.8252e-19
2.01208e-19
1.42704e-19
1.00792e-19
7.09064e-20
4.97173e-20
3.48497e-20
2.46925e-20
1.8275e-20
1.51369e-20
2.82528e-20
3.31432e-20
4.3036e-20
5.83855e-20
8.02663e-20
1.10523e-19
1.51874e-19
2.08068e-19
2.84128e-19
3.86714e-19
5.24599e-19
7.09293e-19
9.55839e-19
1.28382e-18
1.71864e-18
2.2931e-18
3.04946e-18
4.04188e-18
5.33952e-18
7.0304e-18
9.22608e-18
1.20674e-17
1.57314e-17
2.04399e-17
2.64697e-17
3.41647e-17
4.39504e-17
5.63514e-17
7.20118e-17
9.17189e-17
1.16431e-16
1.47311e-16
1.85762e-16
2.33472e-16
2.92459e-16
3.65131e-16
4.54346e-16
5.63478e-16
6.96498e-16
8.58054e-16
1.05356e-15
1.28931e-15
1.57255e-15
1.91162e-15
2.31605e-15
2.79667e-15
3.36575e-15
4.03711e-15
4.8262e-15
5.75022e-15
6.82825e-15
8.08123e-15
9.5321e-15
1.12058e-14
1.31291e-14
1.5331e-14
1.7842e-14
2.06946e-14
2.39224e-14
2.75607e-14
3.16454e-14
3.62129e-14
4.12999e-14
4.69426e-14
5.31758e-14
6.0033e-14
6.7545e-14
7.57394e-14
8.46399e-14
9.42652e-14
1.04628e-13
1.15735e-13
1.27585e-13
1.40169e-13
1.53468e-13
1.67455e-13
1.82091e-13
1.97327e-13
2.13105e-13
2.29353e-13
2.45991e-13
2.62927e-13
2.8006e-13
2.97278e-13
3.14463e-13
3.31489e-13
3.48225e-13
3.64534e-13
3.80278e-13
3.9532e-13
4.09522e-13
4.2275e-13
4.34878e-13
4.45785e-13
4.55361e-13
4.63506e-13
4.70136e-13
4.75179e-13
4.78581e-13
4.80304e-13
4.80329e-13
4.78655e-13
4.753e-13
4.703e-13
4.63709e-13
4.556e-13
4.46058e-13
4.35189e-13
4.23107e-13
4.09942e-13
3.95831e-13
3.80919e-13
3.6536e-13
3.49309e-13
3.32924e-13
3.16363e-13
2.99783e-13
2.83336e-13
2.6717e-13
2.51428e-13
2.36242e-13
2.2174e-13
2.08037e-13
1.95241e-13
1.83449e-13
1.72747e-13
1.6321e-13
1.54903e-13
1.47882e-13
1.4219e-13
1.37861e-13
1.34919e-13
1.33376e-13
1.33236e-13
1.34494e-13
1.37131e-13
1.41122e-13
1.46431e-13
1.53011e-13
1.60806e-13
1.69748e-13
1.79762e-13
1.90759e-13
2.02643e-13
2.15306e-13
2.28633e-13
2.42497e-13
2.56765e-13
2.71296e-13
2.85943e-13
3.00555e-13
3.14977e-13
3.29053e-13
3.42626e-13
3.55542e-13
3.67654e-13
3.78817e-13
3.88899e-13
3.97775e-13
4.05335e-13
4.11483e-13
4.1614e-13
4.19242e-13
4.20746e-13
4.20628e-13
4.18881e-13
4.15522e-13
4.10583e-13
4.04117e-13
3.96195e-13
3.86904e-13
3.76343e-13
3.64627e-13
3.51879e-13
3.38234e-13
3.23828e-13
3.08804e-13
2.93305e-13
2.77474e-13
2.61449e-13
2.45366e-13
2.29349e-13
2.13519e-13
1.97983e-13
1.8284e-13
1.68175e-13
1.54063e-13
1.40566e-13
1.27733e-13
1.15602e-13
1.04199e-13
9.35403e-14
8.36311e-14
7.44678e-14
6.60388e-14
5.83254e-14
5.1303e-14
4.49421e-14
3.92091e-14
3.40677e-14
2.94793e-14
2.54046e-14
2.18034e-14
1.8636e-14
1.58633e-14
1.34478e-14
1.13532e-14
9.54552e-15
7.99262e-15
6.66482e-15
5.53471e-15
4.57729e-15
3.76989e-15
3.0921e-15
2.5257e-15
2.05454e-15
1.66437e-15
1.34273e-15
1.07876e-15
8.63106e-16
6.87706e-16
5.45683e-16
4.31198e-16
3.39322e-16
2.65915e-16
2.07526e-16
1.61287e-16
1.2483e-16
9.62139e-17
7.385e-17
5.64493e-17
4.29696e-17
3.2573e-17
2.45894e-17
1.84856e-17
1.38392e-17
1.03177e-17
7.6603e-18
5.66374e-18
4.17016e-18
3.0577e-18
2.2327e-18
1.62352e-18
1.17564e-18
8.47788e-19
6.08822e-19
4.35398e-19
3.1008e-19
2.19916e-19
1.55326e-19
1.09268e-19
7.66146e-20
5.37029e-20
3.80501e-20
2.81602e-20
2.33241e-20
4.57718e-20
5.36934e-20
6.97183e-20
9.45824e-20
1.30026e-19
1.79035e-19
2.46015e-19
3.37033e-19
4.60226e-19
6.26377e-19
8.49691e-19
1.14881e-18
1.54808e-18
2.07921e-18
2.78332e-18
3.71353e-18
4.93821e-18
6.54503e-18
8.64595e-18
1.13834e-17
1.49379e-17
1.95373e-17
2.54681e-17
3.30892e-17
4.28482e-17
5.53013e-17
7.11369e-17
9.12033e-17
1.16542e-16
1.48425e-16
1.88403e-16
2.38354e-16
3.00547e-16
3.77706e-16
4.73097e-16
5.90606e-16
7.34849e-16
9.11275e-16
1.1263e-15
1.38741e-15
1.70337e-15
2.0843e-15
2.54192e-15
3.08966e-15
3.74289e-15
4.51908e-15
5.43801e-15
6.5219e-15
7.79567e-15
9.28701e-15
1.10266e-14
1.30482e-14
1.53886e-14
1.80879e-14
2.11893e-14
2.47391e-14
2.87865e-14
3.33833e-14
3.85839e-14
4.44443e-14
5.10223e-14
5.83762e-14
6.65643e-14
7.56445e-14
8.56724e-14
9.67011e-14
1.08779e-13
1.21951e-13
1.36254e-13
1.51716e-13
1.68359e-13
1.8619e-13
2.05207e-13
2.25395e-13
2.46722e-13
2.69143e-13
2.92596e-13
3.17e-13
3.42261e-13
3.68263e-13
3.94876e-13
4.21952e-13
4.49327e-13
4.76823e-13
5.04249e-13
5.31403e-13
5.58075e-13
5.84046e-13
6.09096e-13
6.33004e-13
6.55552e-13
6.76527e-13
6.95726e-13
7.12958e-13
7.2805e-13
7.40844e-13
7.51206e-13
7.59025e-13
7.64216e-13
7.66723e-13
7.66516e-13
7.63597e-13
7.57997e-13
7.49776e-13
7.39024e-13
7.25858e-13
7.10419e-13
6.92875e-13
6.73411e-13
6.52235e-13
6.29568e-13
6.05644e-13
5.80705e-13
5.55001e-13
5.28784e-13
5.02304e-13
4.75811e-13
4.49547e-13
4.23747e-13
3.98635e-13
3.74423e-13
3.5131e-13
3.29478e-13
3.09097e-13
2.90318e-13
2.73276e-13
2.58088e-13
2.44856e-13
2.33663e-13
2.24577e-13
2.1765e-13
2.12915e-13
2.10392e-13
2.10084e-13
2.11978e-13
2.16046e-13
2.22244e-13
2.30513e-13
2.40777e-13
2.52946e-13
2.66912e-13
2.82554e-13
2.99732e-13
3.18292e-13
3.38065e-13
3.58866e-13
3.80498e-13
4.02751e-13
4.25403e-13
4.48224e-13
4.70976e-13
4.93417e-13
5.15302e-13
5.36388e-13
5.56435e-13
5.7521e-13
5.92493e-13
6.08075e-13
6.21765e-13
6.33392e-13
6.42808e-13
6.4989e-13
6.54544e-13
6.56702e-13
6.56329e-13
6.53418e-13
6.47996e-13
6.40116e-13
6.29863e-13
6.17348e-13
6.02708e-13
5.86101e-13
5.67706e-13
5.47718e-13
5.26343e-13
5.03799e-13
4.80306e-13
4.56088e-13
4.31367e-13
4.06359e-13
3.81272e-13
3.56303e-13
3.31635e-13
3.07437e-13
2.8386e-13
2.61037e-13
2.39082e-13
2.18092e-13
1.98141e-13
1.79287e-13
1.61571e-13
1.45016e-13
1.2963e-13
1.15405e-13
1.02324e-13
9.0357e-14
7.94645e-14
6.96003e-14
6.07119e-14
5.27425e-14
4.56319e-14
3.93186e-14
3.37401e-14
2.88344e-14
2.45411e-14
2.08013e-14
1.75591e-14
1.47614e-14
1.23584e-14
1.03041e-14
8.55589e-15
7.07505e-15
5.82642e-15
4.77838e-15
3.9027e-15
3.17434e-15
2.57127e-15
2.07417e-15
1.66626e-15
1.33304e-15
1.06205e-15
8.42655e-16
6.65814e-16
5.23908e-16
4.1054e-16
3.20373e-16
2.48973e-16
1.92685e-16
1.48504e-16
1.13979e-16
8.71184e-17
6.63116e-17
5.02648e-17
3.79432e-17
2.85232e-17
2.1353e-17
1.59188e-17
1.18184e-17
8.73776e-18
6.43331e-18
4.71697e-18
3.44417e-18
2.50437e-18
1.81345e-18
1.3077e-18
9.39076e-19
6.71564e-19
4.78263e-19
3.39189e-19
2.39564e-19
1.68526e-19
1.18162e-19
8.28243e-20
5.86825e-20
4.34287e-20
3.59696e-20
7.38875e-20
8.66727e-20
1.12537e-19
1.52668e-19
2.09874e-19
2.88973e-19
3.97073e-19
5.43965e-19
7.42778e-19
1.01091e-18
1.37128e-18
1.85395e-18
2.49821e-18
3.35522e-18
4.49128e-18
5.99209e-18
7.96793e-18
1.05601e-17
1.39493e-17
1.83651e-17
2.40985e-17
3.15169e-17
4.10823e-17
5.3373e-17
6.91106e-17
8.91915e-17
1.14725e-16
1.47078e-16
1.87927e-16
2.39324e-16
3.03765e-16
3.84275e-16
4.84506e-16
6.08847e-16
7.62551e-16
9.51878e-16
1.18425e-15
1.46845e-15
1.81477e-15
2.23529e-15
2.74406e-15
3.35739e-15
4.0941e-15
4.97577e-15
6.02711e-15
7.27617e-15
8.7547e-15
1.04984e-14
1.25472e-14
1.49457e-14
1.77428e-14
2.09929e-14
2.47549e-14
2.90929e-14
3.40763e-14
3.9779e-14
4.62798e-14
5.36615e-14
6.2011e-14
7.14178e-14
8.1974e-14
9.37725e-14
1.06906e-13
1.21467e-13
1.37544e-13
1.55221e-13
1.74574e-13
1.95674e-13
2.18578e-13
2.43333e-13
2.69967e-13
2.98496e-13
3.28912e-13
3.61188e-13
3.95274e-13
4.31095e-13
4.6855e-13
5.07509e-13
5.47817e-13
5.8929e-13
6.31717e-13
6.74861e-13
7.18458e-13
7.62224e-13
8.05852e-13
8.4902e-13
8.9139e-13
9.32616e-13
9.72345e-13
1.01023e-12
1.04591e-12
1.07907e-12
1.10937e-12
1.13651e-12
1.16022e-12
1.18026e-12
1.19641e-12
1.20849e-12
1.21638e-12
1.22e-12
1.21929e-12
1.21426e-12
1.20498e-12
1.19153e-12
1.17407e-12
1.15278e-12
1.1279e-12
1.09968e-12
1.06844e-12
1.03451e-12
9.98223e-13
9.59971e-13
9.20135e-13
8.79111e-13
8.37301e-13
7.95102e-13
7.52909e-13
7.11105e-13
6.70062e-13
6.30133e-13
5.91652e-13
5.54931e-13
5.20259e-13
4.87898e-13
4.58085e-13
4.31031e-13
4.06919e-13
3.85904e-13
3.68117e-13
3.53659e-13
3.42608e-13
3.35016e-13
3.30907e-13
3.30284e-13
3.33122e-13
3.39375e-13
3.4897e-13
3.6181e-13
3.77774e-13
3.96717e-13
4.18468e-13
4.42831e-13
4.69588e-13
4.98493e-13
5.29281e-13
5.6166e-13
5.95321e-13
6.29933e-13
6.65149e-13
7.00609e-13
7.35941e-13
7.70767e-13
8.04705e-13
8.37377e-13
8.68411e-13
8.97444e-13
9.24133e-13
9.48156e-13
9.69219e-13
9.87057e-13
1.00144e-12
1.01219e-12
1.01915e-12
1.02222e-12
1.02136e-12
1.01655e-12
1.00784e-12
9.95319e-13
9.79117e-13
9.59411e-13
9.36417e-13
9.10382e-13
8.81587e-13
8.50335e-13
8.1695e-13
7.81768e-13
7.45135e-13
7.07397e-13
6.68899e-13
6.29975e-13
5.9095e-13
5.52126e-13
5.13789e-13
4.76198e-13
4.39586e-13
4.04159e-13
3.70091e-13
3.37531e-13
3.06593e-13
2.77367e-13
2.49913e-13
2.24264e-13
2.00433e-13
1.78408e-13
1.58158e-13
1.39637e-13
1.22784e-13
1.07525e-13
9.37785e-14
8.14559e-14
7.04637e-14
6.07059e-14
5.20855e-14
4.45064e-14
3.78744e-14
3.20986e-14
2.7092e-14
2.27725e-14
1.90632e-14
1.58924e-14
1.31946e-14
1.09097e-14
8.98336e-15
7.36668e-15
6.01607e-15
4.89283e-15
3.96289e-15
3.19646e-15
2.56762e-15
2.05397e-15
1.6363e-15
1.29817e-15
1.02565e-15
8.06995e-16
6.32327e-16
4.93414e-16
3.83425e-16
2.96721e-16
2.28672e-16
1.755e-16
1.34133e-16
1.02092e-16
7.73832e-17
5.84112e-17
4.39078e-17
3.28686e-17
2.45029e-17
1.81906e-17
1.34485e-17
9.90132e-18
7.2595e-18
5.30048e-18
3.85405e-18
2.7907e-18
2.01235e-18
1.44506e-18
1.03339e-18
7.35926e-19
5.21916e-19
3.68615e-19
2.59306e-19
1.8181e-19
1.27435e-19
9.02886e-20
6.68175e-20
5.534e-20
1.18787e-19
1.39338e-19
1.80914e-19
2.45422e-19
3.37375e-19
4.64517e-19
6.3827e-19
8.74368e-19
1.19391e-18
1.62485e-18
2.20401e-18
2.9797e-18
4.01505e-18
5.39221e-18
7.21775e-18
9.62929e-18
1.2804e-17
1.69688e-17
2.24138e-17
2.95078e-17
3.87181e-17
5.06346e-17
6.59989e-17
8.57396e-17
1.11015e-16
1.43263e-16
1.84266e-16
2.36215e-16
3.01802e-16
3.84319e-16
4.87768e-16
6.17002e-16
7.77879e-16
9.77436e-16
1.2241e-15
1.52789e-15
1.90072e-15
2.35665e-15
2.91218e-15
3.58666e-15
4.40261e-15
5.38611e-15
6.5673e-15
7.98075e-15
9.66596e-15
1.16678e-14
1.40371e-14
1.68309e-14
2.01131e-14
2.39548e-14
2.84344e-14
3.36384e-14
3.96611e-14
4.66048e-14
5.45799e-14
6.37045e-14
7.41039e-14
8.59104e-14
9.92617e-14
1.14301e-13
1.31173e-13
1.50027e-13
1.7101e-13
1.94268e-13
2.1994e-13
2.48159e-13
2.79047e-13
3.12713e-13
3.49248e-13
3.88722e-13
4.31181e-13
4.76645e-13
5.25102e-13
5.76504e-13
6.30771e-13
6.87778e-13
7.47361e-13
8.09314e-13
8.73385e-13
9.3928e-13
1.00666e-12
1.07514e-12
1.14431e-12
1.21371e-12
1.28285e-12
1.35122e-12
1.41827e-12
1.48347e-12
1.54624e-12
1.60604e-12
1.66232e-12
1.71453e-12
1.76217e-12
1.80478e-12
1.8419e-12
1.87316e-12
1.89823e-12
1.91684e-12
1.92878e-12
1.93393e-12
1.93222e-12
1.92367e-12
1.90837e-12
1.88649e-12
1.85827e-12
1.82401e-12
1.78407e-12
1.7389e-12
1.68896e-12
1.63479e-12
1.57695e-12
1.51603e-12
1.45265e-12
1.38743e-12
1.32101e-12
1.25402e-12
1.18708e-12
1.12079e-12
1.05575e-12
9.92496e-13
9.31564e-13
8.73442e-13
8.18579e-13
7.67386e-13
7.20231e-13
6.77442e-13
6.39301e-13
6.06048e-13
5.77883e-13
5.54961e-13
5.37398e-13
5.25269e-13
5.18608e-13
5.17413e-13
5.21642e-13
5.31214e-13
5.46011e-13
5.65877e-13
5.90617e-13
6.2e-13
6.53754e-13
6.9157e-13
7.33101e-13
7.77963e-13
8.25736e-13
8.75966e-13
9.28164e-13
9.81817e-13
1.03638e-12
1.09129e-12
1.14598e-12
1.19985e-12
1.2523e-12
1.30276e-12
1.35064e-12
1.39539e-12
1.43647e-12
1.47339e-12
1.5057e-12
1.53298e-12
1.55488e-12
1.57113e-12
1.5815e-12
1.58584e-12
1.58408e-12
1.5762e-12
1.56229e-12
1.54247e-12
1.51697e-12
1.48606e-12
1.45008e-12
1.40941e-12
1.3645e-12
1.31581e-12
1.26385e-12
1.20913e-12
1.15221e-12
1.0936e-12
1.03385e-12
9.73473e-13
9.12968e-13
8.52805e-13
7.93421e-13
7.35217e-13
6.78551e-13
6.23739e-13
5.7105e-13
5.20708e-13
4.7289e-13
4.27731e-13
3.85323e-13
3.45715e-13
3.08924e-13
2.74929e-13
2.43683e-13
2.15111e-13
1.89118e-13
1.65589e-13
1.44397e-13
1.25404e-13
1.08466e-13
9.34318e-14
8.0153e-14
6.84804e-14
5.82683e-14
4.9376e-14
4.16694e-14
3.50215e-14
2.93134e-14
2.44349e-14
2.02847e-14
1.67702e-14
1.38076e-14
1.13216e-14
9.24496e-15
7.51814e-15
6.08867e-15
4.91067e-15
3.94425e-15
3.15495e-15
2.51319e-15
1.9937e-15
1.57506e-15
1.23918e-15
9.70905e-16
7.57561e-16
5.88652e-16
4.55512e-16
3.51026e-16
2.69388e-16
2.0588e-16
1.56693e-16
1.18763e-16
8.96416e-17
6.73806e-17
5.04379e-17
3.75989e-17
2.79118e-17
2.06347e-17
1.51916e-17
1.11379e-17
8.13199e-18
5.91271e-18
4.28125e-18
3.08709e-18
2.21678e-18
1.58522e-18
1.12889e-18
8.00589e-19
5.65424e-19
3.97746e-19
2.78872e-19
1.95466e-19
1.38486e-19
1.02483e-19
8.4877e-20
1.90179e-19
2.23075e-19
2.89627e-19
3.92888e-19
5.40079e-19
7.43596e-19
1.02171e-18
1.39961e-18
1.91105e-18
2.60077e-18
3.52769e-18
4.7691e-18
6.426e-18
8.62984e-18
1.15511e-17
1.54098e-17
2.04895e-17
2.71532e-17
3.58647e-17
4.72139e-17
6.1948e-17
8.10103e-17
1.05586e-16
1.37161e-16
1.77585e-16
2.29159e-16
2.94728e-16
3.77796e-16
4.82666e-16
6.14593e-16
7.79973e-16
9.86559e-16
1.2437e-15
1.56265e-15
1.95684e-15
2.44229e-15
3.038e-15
3.7664e-15
4.65385e-15
5.73118e-15
7.03432e-15
8.60489e-15
1.04909e-14
1.27475e-14
1.54376e-14
1.86328e-14
2.24138e-14
2.68717e-14
3.21081e-14
3.82361e-14
4.53806e-14
5.36791e-14
6.32813e-14
7.43502e-14
8.70608e-14
1.01601e-13
1.18169e-13
1.36975e-13
1.58238e-13
1.82183e-13
2.09042e-13
2.39048e-13
2.72435e-13
3.09432e-13
3.5026e-13
3.95127e-13
4.44226e-13
4.97725e-13
5.55767e-13
6.1846e-13
6.85875e-13
7.58038e-13
8.34926e-13
9.16463e-13
1.00251e-12
1.09287e-12
1.18729e-12
1.28541e-12
1.38686e-12
1.49114e-12
1.59773e-12
1.70601e-12
1.81532e-12
1.92493e-12
2.03408e-12
2.14193e-12
2.24765e-12
2.35035e-12
2.44917e-12
2.54321e-12
2.63161e-12
2.71352e-12
2.78816e-12
2.85477e-12
2.91268e-12
2.96128e-12
3.00005e-12
3.02859e-12
3.04657e-12
3.05381e-12
3.05021e-12
3.03581e-12
3.01077e-12
2.97536e-12
2.92996e-12
2.87506e-12
2.81125e-12
2.73922e-12
2.65974e-12
2.57363e-12
2.4818e-12
2.38517e-12
2.28473e-12
2.18146e-12
2.07637e-12
1.97043e-12
1.86465e-12
1.75995e-12
1.65727e-12
1.55746e-12
1.46135e-12
1.3697e-12
1.28322e-12
1.20255e-12
1.12824e-12
1.06082e-12
1.00072e-12
9.48296e-13
9.03866e-13
8.67661e-13
8.39853e-13
8.20551e-13
8.09803e-13
8.07595e-13
8.13853e-13
8.28443e-13
8.51174e-13
8.81794e-13
9.19993e-13
9.65401e-13
1.01759e-12
1.07607e-12
1.14031e-12
1.20968e-12
1.28355e-12
1.36119e-12
1.44185e-12
1.52472e-12
1.60897e-12
1.69371e-12
1.77805e-12
1.86108e-12
1.94188e-12
2.01954e-12
2.09317e-12
2.16191e-12
2.22493e-12
2.28148e-12
2.33085e-12
2.37243e-12
2.40568e-12
2.43017e-12
2.44556e-12
2.45162e-12
2.44825e-12
2.43545e-12
2.41333e-12
2.38212e-12
2.34215e-12
2.29386e-12
2.23777e-12
2.17449e-12
2.10469e-12
2.0291e-12
1.94852e-12
1.86374e-12
1.77559e-12
1.6849e-12
1.59249e-12
1.49916e-12
1.40568e-12
1.31277e-12
1.22111e-12
1.1313e-12
1.0439e-12
9.59382e-13
8.7817e-13
8.00601e-13
7.26945e-13
6.57405e-13
5.92118e-13
5.3116e-13
4.74552e-13
4.2226e-13
3.74207e-13
3.30278e-13
2.90322e-13
2.54163e-13
2.21602e-13
1.92426e-13
1.6641e-13
1.43325e-13
1.22939e-13
1.05021e-13
8.93482e-14
7.57033e-14
6.38796e-14
5.36818e-14
4.49271e-14
3.74459e-14
3.10824e-14
2.56943e-14
2.1153e-14
1.73427e-14
1.41603e-14
1.15143e-14
9.32418e-15
7.51953e-15
6.03917e-15
4.83025e-15
3.8474e-15
3.05189e-15
2.41087e-15
1.89663e-15
1.48591e-15
1.15932e-15
9.0078e-16
6.97e-16
5.3709e-16
4.12156e-16
3.14974e-16
2.3971e-16
1.81676e-16
1.37122e-16
1.03065e-16
7.71463e-17
5.75063e-17
4.26886e-17
3.15577e-17
2.32324e-17
1.70326e-17
1.24354e-17
9.04145e-18
6.54651e-18
4.72038e-18
3.38953e-18
2.4238e-18
1.72604e-18
1.22405e-18
8.64483e-19
6.08108e-19
4.26356e-19
2.98835e-19
2.11717e-19
1.56672e-19
1.29754e-19
3.03209e-19
3.55646e-19
4.61735e-19
6.26341e-19
8.60972e-19
1.18538e-18
1.62869e-18
2.23104e-18
3.04621e-18
4.1455e-18
5.6228e-18
7.60125e-18
1.02418e-17
1.37538e-17
1.84089e-17
2.45577e-17
3.26516e-17
4.3269e-17
5.71485e-17
7.52294e-17
9.8702e-17
1.29068e-16
1.68215e-16
2.18507e-16
2.82891e-16
3.65027e-16
4.69444e-16
6.0172e-16
7.687e-16
9.78746e-16
1.24203e-15
1.5709e-15
1.98021e-15
2.48784e-15
3.11518e-15
3.88769e-15
4.83556e-15
5.99444e-15
7.40622e-15
9.11989e-15
1.11925e-14
1.36902e-14
1.66891e-14
2.02769e-14
2.45533e-14
2.9632e-14
3.56411e-14
4.27249e-14
5.10446e-14
6.07793e-14
7.21271e-14
8.53055e-14
1.00552e-13
1.18124e-13
1.38299e-13
1.61373e-13
1.87661e-13
2.17494e-13
2.51217e-13
2.89187e-13
3.31769e-13
3.79329e-13
4.32236e-13
4.9085e-13
5.55518e-13
6.26566e-13
7.04295e-13
7.88968e-13
8.80806e-13
9.79975e-13
1.08658e-12
1.20066e-12
1.32218e-12
1.451e-12
1.5869e-12
1.72956e-12
1.87857e-12
2.03338e-12
2.19335e-12
2.35774e-12
2.52568e-12
2.69622e-12
2.86829e-12
3.04075e-12
3.21237e-12
3.38186e-12
3.54788e-12
3.70906e-12
3.864e-12
4.01132e-12
4.14966e-12
4.27769e-12
4.39418e-12
4.49794e-12
4.58792e-12
4.66318e-12
4.72293e-12
4.76651e-12
4.79346e-12
4.80348e-12
4.79644e-12
4.77243e-12
4.73169e-12
4.67467e-12
4.60198e-12
4.51441e-12
4.41291e-12
4.29856e-12
4.17257e-12
4.03627e-12
3.89106e-12
3.73842e-12
3.57989e-12
3.41703e-12
3.25139e-12
3.08455e-12
2.91802e-12
2.7533e-12
2.59182e-12
2.43494e-12
2.28393e-12
2.13998e-12
2.00418e-12
1.87752e-12
1.76088e-12
1.65505e-12
1.56069e-12
1.47836e-12
1.40854e-12
1.35157e-12
1.30771e-12
1.27711e-12
1.25985e-12
1.25588e-12
1.26507e-12
1.28722e-12
1.322e-12
1.36901e-12
1.42777e-12
1.49768e-12
1.57808e-12
1.66819e-12
1.76717e-12
1.87407e-12
1.98787e-12
2.10746e-12
2.23165e-12
2.35921e-12