/*--------------------------------*- C++ -*----------------------------------*\
| =========                 |                                                 |
| \\      /  F ield         | OpenFOAM: The Open Source CFD Toolbox           |
|  \\    /   O peration     | Version:  v2012                                 |
|   \\  /    A nd           | Website:  www.openfoam.com                      |
|    \\/     M anipulation  |                                                 |
\*---------------------------------------------------------------------------*/
FoamFile
{
    version     2.0;
    format      ascii;
    class       volScalarField;
    location    "0";
    object      pRec;
}
// * * * * * * * * * * * * * * * * * * * * * * * * * * * * * * * * * * * * * //

dimensions      [0 2 -2 0 0 0 0];


internalField   nonuniform List<scalar> 
4000
(
-6.93495e-13
-6.87959e-13
-6.89179e-13
-6.92176e-13
-6.90037e-13
-6.90534e-13
-6.89169e-13
-6.84181e-13
-6.74106e-13
-6.702e-13
-6.71414e-13
-6.65919e-13
-6.55149e-13
-6.41305e-13
-6.27708e-13
-6.21224e-13
-6.16603e-13
-6.14065e-13
-6.06845e-13
-5.93281e-13
-5.82369e-13
-5.75282e-13
-5.69989e-13
-5.62637e-13
-5.5213e-13
-5.41389e-13
-5.39321e-13
-5.33765e-13
-5.27328e-13
-5.16364e-13
-5.00347e-13
-4.93442e-13
-4.91377e-13
-4.89411e-13
-4.844e-13
-4.81393e-13
-4.72163e-13
-4.53788e-13
-4.36339e-13
-4.32691e-13
-4.33255e-13
-4.31381e-13
-4.31548e-13
-4.25264e-13
-4.13956e-13
-4.05027e-13
-3.96218e-13
-3.86938e-13
-3.7758e-13
-3.69673e-13
-3.6062e-13
-3.52519e-13
-3.45097e-13
-3.3612e-13
-3.27883e-13
-3.15253e-13
-3.08321e-13
-3.05421e-13
-3.02878e-13
-2.99791e-13
-2.9154e-13
-2.84267e-13
-2.74219e-13
-2.62326e-13
-2.54164e-13
-2.46773e-13
-2.42451e-13
-2.3439e-13
-2.23765e-13
-2.16287e-13
-2.08925e-13
-2.02065e-13
-1.89131e-13
-1.82111e-13
-1.80987e-13
-1.76668e-13
-1.72899e-13
-1.66574e-13
-1.57569e-13
-1.44559e-13
-1.31915e-13
-1.26302e-13
-1.17747e-13
-1.13425e-13
-1.08995e-13
-1.03289e-13
-9.41314e-14
-8.62802e-14
-8.2765e-14
-7.8792e-14
-7.27939e-14
-6.6343e-14
-5.93313e-14
-5.36543e-14
-4.47056e-14
-3.57011e-14
-2.76643e-14
-1.96084e-14
-1.10698e-14
-2.72714e-15
-6.90096e-13
-6.88858e-13
-6.92021e-13
-6.91927e-13
-6.92492e-13
-6.89222e-13
-6.86362e-13
-6.84012e-13
-6.78645e-13
-6.73636e-13
-6.67876e-13
-6.62529e-13
-6.53343e-13
-6.41897e-13
-6.30843e-13
-6.24428e-13
-6.19558e-13
-6.12631e-13
-6.03831e-13
-5.96503e-13
-5.85933e-13
-5.74009e-13
-5.66168e-13
-5.59431e-13
-5.50003e-13
-5.43896e-13
-5.40557e-13
-5.34503e-13
-5.26169e-13
-5.12702e-13
-5.03463e-13
-4.9679e-13
-4.90821e-13
-4.86254e-13
-4.81836e-13
-4.77718e-13
-4.70226e-13
-4.57393e-13
-4.43234e-13
-4.36748e-13
-4.33095e-13
-4.30758e-13
-4.28329e-13
-4.23322e-13
-4.15558e-13
-4.0521e-13
-3.94798e-13
-3.86826e-13
-3.77819e-13
-3.67253e-13
-3.59546e-13
-3.51648e-13
-3.45098e-13
-3.37282e-13
-3.28992e-13
-3.17958e-13
-3.08198e-13
-3.03691e-13
-3.01179e-13
-2.98307e-13
-2.9372e-13
-2.84307e-13
-2.75272e-13
-2.6407e-13
-2.55851e-13
-2.46613e-13
-2.40038e-13
-2.33519e-13
-2.2588e-13
-2.177e-13
-2.09234e-13
-2.0204e-13
-1.94005e-13
-1.85198e-13
-1.80767e-13
-1.733e-13
-1.71504e-13
-1.6438e-13
-1.54576e-13
-1.42799e-13
-1.32999e-13
-1.27721e-13
-1.21552e-13
-1.1579e-13
-1.07058e-13
-1.01017e-13
-9.22651e-14
-8.43181e-14
-8.11083e-14
-7.73275e-14
-7.43093e-14
-6.88635e-14
-6.30325e-14
-5.1776e-14
-4.3177e-14
-3.6377e-14
-2.72401e-14
-1.97805e-14
-1.26963e-14
-4.51077e-15
-6.89654e-13
-6.88713e-13
-6.909e-13
-6.94063e-13
-6.95006e-13
-6.90552e-13
-6.85456e-13
-6.82919e-13
-6.7695e-13
-6.73296e-13
-6.68249e-13
-6.61842e-13
-6.52947e-13
-6.43175e-13
-6.32688e-13
-6.2502e-13
-6.19024e-13
-6.12017e-13
-6.0428e-13
-5.95312e-13
-5.84765e-13
-5.75813e-13
-5.67092e-13
-5.60227e-13
-5.5178e-13
-5.4631e-13
-5.41539e-13
-5.33439e-13
-5.23915e-13
-5.10805e-13
-5.04025e-13
-4.97057e-13
-4.90768e-13
-4.87769e-13
-4.83692e-13
-4.79006e-13
-4.68957e-13
-4.58933e-13
-4.47962e-13
-4.36977e-13
-4.32252e-13
-4.27512e-13
-4.27761e-13
-4.23877e-13
-4.1657e-13
-4.05493e-13
-3.93588e-13
-3.84104e-13
-3.78431e-13
-3.73079e-13
-3.61638e-13
-3.51971e-13
-3.4279e-13
-3.34255e-13
-3.27246e-13
-3.18968e-13
-3.08428e-13
-3.05839e-13
-3.05836e-13
-2.99653e-13
-2.91465e-13
-2.79449e-13
-2.71147e-13
-2.65361e-13
-2.58606e-13
-2.5026e-13
-2.42811e-13
-2.32427e-13
-2.24543e-13
-2.1469e-13
-2.06325e-13
-1.9938e-13
-1.90564e-13
-1.84744e-13
-1.80266e-13
-1.75619e-13
-1.70409e-13
-1.64425e-13
-1.54047e-13
-1.43558e-13
-1.38191e-13
-1.29796e-13
-1.17735e-13
-1.12126e-13
-1.06734e-13
-1.03322e-13
-9.70184e-14
-8.76222e-14
-8.09858e-14
-7.53344e-14
-7.18595e-14
-6.82515e-14
-6.12138e-14
-5.28432e-14
-4.2525e-14
-3.37923e-14
-2.78551e-14
-2.07923e-14
-1.62782e-14
-5.16947e-15
-6.90709e-13
-6.91855e-13
-6.9264e-13
-6.88895e-13
-6.93279e-13
-6.87617e-13
-6.85509e-13
-6.83133e-13
-6.81028e-13
-6.75562e-13
-6.66466e-13
-6.57192e-13
-6.49403e-13
-6.43827e-13
-6.41369e-13
-6.31224e-13
-6.17108e-13
-6.08675e-13
-6.03352e-13
-5.94214e-13
-5.8533e-13
-5.77709e-13
-5.67853e-13
-5.5434e-13
-5.47211e-13
-5.43999e-13
-5.40769e-13
-5.35352e-13
-5.23787e-13
-5.14862e-13
-5.08005e-13
-5.00077e-13
-4.91508e-13
-4.85724e-13
-4.79393e-13
-4.78419e-13
-4.69244e-13
-4.57519e-13
-4.49108e-13
-4.39652e-13
-4.35469e-13
-4.32536e-13
-4.2756e-13
-4.21075e-13
-4.11626e-13
-4.0174e-13
-3.93339e-13
-3.87921e-13
-3.79761e-13
-3.66719e-13
-3.5713e-13
-3.50972e-13
-3.44882e-13
-3.38315e-13
-3.26614e-13
-3.19887e-13
-3.10617e-13
-3.05496e-13
-3.04756e-13
-2.98404e-13
-2.89825e-13
-2.80788e-13
-2.75278e-13
-2.67784e-13
-2.58029e-13
-2.49355e-13
-2.41629e-13
-2.32443e-13
-2.25197e-13
-2.17076e-13
-2.10073e-13
-2.02697e-13
-1.93626e-13
-1.86098e-13
-1.79756e-13
-1.7423e-13
-1.70705e-13
-1.63691e-13
-1.53915e-13
-1.4424e-13
-1.37011e-13
-1.30551e-13
-1.1987e-13
-1.10451e-13
-1.05929e-13
-1.01145e-13
-9.46906e-14
-8.71014e-14
-7.97982e-14
-7.58644e-14
-7.39022e-14
-6.86147e-14
-6.29746e-14
-5.14451e-14
-4.25133e-14
-3.6288e-14
-2.94386e-14
-1.99649e-14
-1.30704e-14
-4.78748e-15
-6.91741e-13
-6.96109e-13
-6.92641e-13
-6.88044e-13
-6.84572e-13
-6.88083e-13
-6.88245e-13
-6.86531e-13
-6.80145e-13
-6.72564e-13
-6.6414e-13
-6.58831e-13
-6.49094e-13
-6.41638e-13
-6.40212e-13
-6.34388e-13
-6.23838e-13
-6.13292e-13
-6.00903e-13
-5.89027e-13
-5.84129e-13
-5.76728e-13
-5.62623e-13
-5.53287e-13
-5.50405e-13
-5.46951e-13
-5.42342e-13
-5.34178e-13
-5.26031e-13
-5.17161e-13
-5.08609e-13
-5.0126e-13
-4.92293e-13
-4.86233e-13
-4.80394e-13
-4.77631e-13
-4.68253e-13
-4.57488e-13
-4.46533e-13
-4.39149e-13
-4.35553e-13
-4.34622e-13
-4.27789e-13
-4.19576e-13
-4.09361e-13
-3.99464e-13
-3.91944e-13
-3.86297e-13
-3.7855e-13
-3.70349e-13
-3.60723e-13
-3.53729e-13
-3.45729e-13
-3.37616e-13
-3.27167e-13
-3.18469e-13
-3.11895e-13
-3.06992e-13
-3.03774e-13
-2.96932e-13
-2.89621e-13
-2.81311e-13
-2.72963e-13
-2.66844e-13
-2.61266e-13
-2.54567e-13
-2.46465e-13
-2.33829e-13
-2.24899e-13
-2.14593e-13
-2.06435e-13
-1.99937e-13
-1.93395e-13
-1.86254e-13
-1.76484e-13
-1.71233e-13
-1.69114e-13
-1.63395e-13
-1.56262e-13
-1.46207e-13
-1.38342e-13
-1.3267e-13
-1.20042e-13
-1.09693e-13
-1.02685e-13
-9.79355e-14
-9.435e-14
-8.98401e-14
-8.20842e-14
-7.73118e-14
-7.28266e-14
-6.82708e-14
-6.07945e-14
-5.51335e-14
-4.71203e-14
-3.67298e-14
-2.94706e-14
-2.22647e-14
-1.26561e-14
-2.40514e-15
-6.88355e-13
-6.97681e-13
-6.94246e-13
-6.85243e-13
-6.89056e-13
-6.92642e-13
-6.90866e-13
-6.86648e-13
-6.78339e-13
-6.65209e-13
-6.61521e-13
-6.5761e-13
-6.53637e-13
-6.43607e-13
-6.36973e-13
-6.36126e-13
-6.25585e-13
-6.15789e-13
-6.05638e-13
-5.9223e-13
-5.81709e-13
-5.7042e-13
-5.53534e-13
-5.49998e-13
-5.5097e-13
-5.50231e-13
-5.42298e-13
-5.33094e-13
-5.25007e-13
-5.20167e-13
-5.10111e-13
-5.00662e-13
-4.92295e-13
-4.89262e-13
-4.85879e-13
-4.76438e-13
-4.65947e-13
-4.57255e-13
-4.46674e-13
-4.41565e-13
-4.382e-13
-4.35083e-13
-4.26158e-13
-4.19973e-13
-4.09574e-13
-3.97606e-13
-3.88136e-13
-3.82627e-13
-3.78672e-13
-3.70227e-13
-3.62848e-13
-3.5312e-13
-3.44216e-13
-3.35294e-13
-3.25735e-13
-3.20067e-13
-3.14545e-13
-3.08281e-13
-3.02133e-13
-2.97686e-13
-2.91712e-13
-2.82201e-13
-2.73881e-13
-2.66802e-13
-2.57636e-13
-2.52724e-13
-2.47192e-13
-2.35006e-13
-2.25902e-13
-2.1767e-13
-2.07967e-13
-2.00218e-13
-1.9475e-13
-1.88101e-13
-1.78397e-13
-1.73721e-13
-1.67858e-13
-1.60208e-13
-1.55222e-13
-1.48545e-13
-1.41032e-13
-1.31788e-13
-1.17803e-13
-1.07499e-13
-1.03407e-13
-1.0025e-13
-9.64352e-14
-8.78193e-14
-8.11801e-14
-7.68665e-14
-7.24229e-14
-6.8457e-14
-5.91023e-14
-5.43475e-14
-4.72402e-14
-3.99736e-14
-2.9659e-14
-2.11313e-14
-1.07107e-14
-1.23679e-15
-6.93517e-13
-6.9433e-13
-6.9373e-13
-6.90284e-13
-6.87644e-13
-6.91157e-13
-6.90403e-13
-6.84313e-13
-6.76362e-13
-6.65752e-13
-6.5763e-13
-6.56777e-13
-6.55687e-13
-6.44905e-13
-6.38239e-13
-6.33313e-13
-6.29464e-13
-6.2103e-13
-6.02782e-13
-5.85078e-13
-5.69383e-13
-5.65443e-13
-5.63618e-13
-5.61161e-13
-5.56188e-13
-5.4972e-13
-5.39173e-13
-5.30627e-13
-5.26667e-13
-5.22009e-13
-5.13029e-13
-4.99678e-13
-4.93401e-13
-4.8523e-13
-4.80069e-13
-4.74046e-13
-4.678e-13
-4.62478e-13
-4.51785e-13
-4.4022e-13
-4.33397e-13
-4.28845e-13
-4.24168e-13
-4.20031e-13
-4.1316e-13
-4.02667e-13
-3.91165e-13
-3.81753e-13
-3.75423e-13
-3.6987e-13
-3.62458e-13
-3.56416e-13
-3.47342e-13
-3.35683e-13
-3.27236e-13
-3.21098e-13
-3.14211e-13
-3.02818e-13
-2.98172e-13
-2.96988e-13
-2.96032e-13
-2.87792e-13
-2.76314e-13
-2.64297e-13
-2.54704e-13
-2.49294e-13
-2.41743e-13
-2.30687e-13
-2.21519e-13
-2.1699e-13
-2.1618e-13
-2.06416e-13
-1.96046e-13
-1.90941e-13
-1.81299e-13
-1.71858e-13
-1.63906e-13
-1.56485e-13
-1.51021e-13
-1.46742e-13
-1.40179e-13
-1.31007e-13
-1.22812e-13
-1.13722e-13
-1.07123e-13
-9.68672e-14
-9.34435e-14
-8.96035e-14
-8.17414e-14
-7.85526e-14
-7.19354e-14
-6.39119e-14
-5.94112e-14
-5.38195e-14
-4.74381e-14
-3.75967e-14
-2.94462e-14
-1.97026e-14
-1.07922e-14
-3.48183e-15
-6.92812e-13
-6.92429e-13
-6.90326e-13
-6.91173e-13
-6.93753e-13
-6.93399e-13
-6.90175e-13
-6.83419e-13
-6.74732e-13
-6.67124e-13
-6.61275e-13
-6.55686e-13
-6.52028e-13
-6.42805e-13
-6.38797e-13
-6.33206e-13
-6.29489e-13
-6.20387e-13
-5.97884e-13
-5.8646e-13
-5.82043e-13
-5.75012e-13
-5.64536e-13
-5.5503e-13
-5.52116e-13
-5.4567e-13
-5.3481e-13
-5.28757e-13
-5.24008e-13
-5.19385e-13
-5.12915e-13
-5.05179e-13
-4.99139e-13
-4.92635e-13
-4.81038e-13
-4.73032e-13
-4.66417e-13
-4.57603e-13
-4.49598e-13
-4.40447e-13
-4.34663e-13
-4.32382e-13
-4.25393e-13
-4.23629e-13
-4.17778e-13
-4.02893e-13
-3.87475e-13
-3.73865e-13
-3.72728e-13
-3.71664e-13
-3.67446e-13
-3.59862e-13
-3.47131e-13
-3.35731e-13
-3.24681e-13
-3.18269e-13
-3.1465e-13
-3.08875e-13
-3.00265e-13
-2.94152e-13
-2.91605e-13
-2.84647e-13
-2.77234e-13
-2.68694e-13
-2.60258e-13
-2.51397e-13
-2.42503e-13
-2.3249e-13
-2.26421e-13
-2.19366e-13
-2.11963e-13
-2.06382e-13
-1.95007e-13
-1.82653e-13
-1.75494e-13
-1.72334e-13
-1.67742e-13
-1.60278e-13
-1.55784e-13
-1.49752e-13
-1.40836e-13
-1.31202e-13
-1.19192e-13
-1.08448e-13
-1.00146e-13
-9.64153e-14
-9.44301e-14
-9.11288e-14
-8.38464e-14
-7.70459e-14
-6.9565e-14
-6.42201e-14
-5.97696e-14
-5.50355e-14
-4.58725e-14
-3.60182e-14
-2.94043e-14
-2.11553e-14
-1.21453e-14
-1.91507e-15
-6.95103e-13
-6.96913e-13
-6.91828e-13
-6.85546e-13
-6.89508e-13
-6.92367e-13
-6.92181e-13
-6.84559e-13
-6.72087e-13
-6.6876e-13
-6.62207e-13
-6.52355e-13
-6.46288e-13
-6.42686e-13
-6.39867e-13
-6.3569e-13
-6.29139e-13
-6.18119e-13
-6.01616e-13
-5.88596e-13
-5.80859e-13
-5.72613e-13
-5.68432e-13
-5.61243e-13
-5.52031e-13
-5.42201e-13
-5.33941e-13
-5.28896e-13
-5.27209e-13
-5.20328e-13
-5.1374e-13
-5.06301e-13
-4.95925e-13
-4.85706e-13
-4.81468e-13
-4.74178e-13
-4.65459e-13
-4.5665e-13
-4.51719e-13
-4.46233e-13
-4.40891e-13
-4.3383e-13
-4.22273e-13
-4.14237e-13
-4.10621e-13
-4.03492e-13
-3.92756e-13
-3.82597e-13
-3.7604e-13
-3.69098e-13
-3.62369e-13
-3.55408e-13
-3.45685e-13
-3.36962e-13
-3.28931e-13
-3.23851e-13
-3.1564e-13
-3.08703e-13
-3.0098e-13
-2.95119e-13
-2.88724e-13
-2.81992e-13
-2.75756e-13
-2.68072e-13
-2.5748e-13
-2.47263e-13
-2.41074e-13
-2.33265e-13
-2.25509e-13
-2.18264e-13
-2.10574e-13
-2.06844e-13
-1.99048e-13
-1.88957e-13
-1.77735e-13
-1.72654e-13
-1.68675e-13
-1.61769e-13
-1.5621e-13
-1.4716e-13
-1.41248e-13
-1.32009e-13
-1.1946e-13
-1.09971e-13
-1.02371e-13
-9.71257e-14
-9.52223e-14
-9.03741e-14
-8.32724e-14
-7.70109e-14
-6.92386e-14
-6.33561e-14
-5.67719e-14
-5.21414e-14
-4.54742e-14
-3.69482e-14
-2.80394e-14
-1.74032e-14
-8.15697e-15
8.53445e-16
-6.95088e-13
-6.94401e-13
-6.94309e-13
-6.91242e-13
-6.87936e-13
-6.9023e-13
-6.8881e-13
-6.8718e-13
-6.79316e-13
-6.64964e-13
-6.56764e-13
-6.49492e-13
-6.4736e-13
-6.45651e-13
-6.41489e-13
-6.34907e-13
-6.25104e-13
-6.18386e-13
-6.0864e-13
-5.9325e-13
-5.80969e-13
-5.68438e-13
-5.63193e-13
-5.56191e-13
-5.53403e-13
-5.47377e-13
-5.37245e-13
-5.31407e-13
-5.2571e-13
-5.2024e-13
-5.14697e-13
-5.06216e-13
-4.96013e-13
-4.84729e-13
-4.78213e-13
-4.72597e-13
-4.68035e-13
-4.57991e-13
-4.52397e-13
-4.46944e-13
-4.37487e-13
-4.28201e-13
-4.21452e-13
-4.14662e-13
-4.13258e-13
-4.07821e-13
-3.96883e-13
-3.84723e-13
-3.76188e-13
-3.66569e-13
-3.59366e-13
-3.55152e-13
-3.47226e-13
-3.38119e-13
-3.29502e-13
-3.21984e-13
-3.14989e-13
-3.07697e-13
-3.00801e-13
-2.97176e-13
-2.9237e-13
-2.88333e-13
-2.81069e-13
-2.68617e-13
-2.54309e-13
-2.40275e-13
-2.33262e-13
-2.28387e-13
-2.24689e-13
-2.2438e-13
-2.18197e-13
-2.09245e-13
-2.01797e-13
-1.9135e-13
-1.78834e-13
-1.6992e-13
-1.65445e-13
-1.59645e-13
-1.55431e-13
-1.46949e-13
-1.40552e-13
-1.32285e-13
-1.21193e-13
-1.13423e-13
-1.04464e-13
-9.61104e-14
-9.18591e-14
-8.61714e-14
-8.24539e-14
-7.75393e-14
-6.78318e-14
-5.91623e-14
-5.38582e-14
-4.93696e-14
-4.10399e-14
-3.25643e-14
-2.43862e-14
-1.55866e-14
-6.025e-15
-3.51026e-17
-6.93377e-13
-6.92672e-13
-6.91826e-13
-6.93192e-13
-6.93469e-13
-6.8807e-13
-6.86137e-13
-6.83451e-13
-6.77469e-13
-6.70205e-13
-6.57471e-13
-6.48005e-13
-6.47074e-13
-6.46964e-13
-6.41844e-13
-6.37425e-13
-6.24997e-13
-6.16615e-13
-6.08274e-13
-5.94492e-13
-5.85092e-13
-5.6968e-13
-5.59528e-13
-5.5498e-13
-5.49118e-13
-5.44166e-13
-5.39619e-13
-5.32968e-13
-5.27464e-13
-5.22168e-13
-5.13856e-13
-5.04908e-13
-4.94904e-13
-4.86837e-13
-4.82192e-13
-4.74085e-13
-4.65622e-13
-4.58242e-13
-4.53943e-13
-4.45247e-13
-4.37233e-13
-4.27894e-13
-4.21594e-13
-4.19213e-13
-4.16331e-13
-4.06366e-13
-3.93732e-13
-3.80936e-13
-3.72995e-13
-3.65107e-13
-3.62279e-13
-3.57066e-13
-3.46701e-13
-3.37592e-13
-3.28185e-13
-3.24838e-13
-3.17806e-13
-3.10006e-13
-2.99982e-13
-2.91062e-13
-2.89035e-13
-2.81221e-13
-2.75791e-13
-2.71219e-13
-2.5721e-13
-2.43094e-13
-2.33368e-13
-2.27639e-13
-2.25152e-13
-2.27386e-13
-2.1945e-13
-2.1181e-13
-2.02484e-13
-1.90486e-13
-1.76774e-13
-1.66171e-13
-1.65045e-13
-1.63163e-13
-1.59182e-13
-1.50605e-13
-1.44404e-13
-1.35819e-13
-1.20961e-13
-1.0997e-13
-9.94664e-14
-9.0577e-14
-9.26588e-14
-9.07417e-14
-8.29223e-14
-7.6077e-14
-6.60868e-14
-5.98567e-14
-5.33731e-14
-4.73901e-14
-4.27485e-14
-3.57267e-14
-2.0729e-14
-6.97037e-15
1.41499e-15
-1.33612e-15
-6.96461e-13
-6.94537e-13
-6.92341e-13
-6.93976e-13
-6.92568e-13
-6.8747e-13
-6.87612e-13
-6.84299e-13
-6.76922e-13
-6.67395e-13
-6.59067e-13
-6.51322e-13
-6.43468e-13
-6.40377e-13
-6.37157e-13
-6.31391e-13
-6.28123e-13
-6.22019e-13
-6.10585e-13
-5.9591e-13
-5.84343e-13
-5.76518e-13
-5.65613e-13
-5.55756e-13
-5.49092e-13
-5.38665e-13
-5.35164e-13
-5.32322e-13
-5.28833e-13
-5.24613e-13
-5.16032e-13
-5.05602e-13
-4.93727e-13
-4.84379e-13
-4.78837e-13
-4.71863e-13
-4.67669e-13
-4.61056e-13
-4.56166e-13
-4.43811e-13
-4.35839e-13
-4.25026e-13
-4.21254e-13
-4.21472e-13
-4.14647e-13
-4.0622e-13
-3.94575e-13
-3.84343e-13
-3.74192e-13
-3.64927e-13
-3.58299e-13
-3.55103e-13
-3.46664e-13
-3.40525e-13
-3.33261e-13
-3.23756e-13
-3.16035e-13
-3.07745e-13
-2.99643e-13
-2.93759e-13
-2.91437e-13
-2.91122e-13
-2.80383e-13
-2.68073e-13
-2.49599e-13
-2.39742e-13
-2.33213e-13
-2.29901e-13
-2.25135e-13
-2.22783e-13
-2.16506e-13
-2.1517e-13
-2.08957e-13
-1.96214e-13
-1.75645e-13
-1.5937e-13
-1.58187e-13
-1.64175e-13
-1.6128e-13
-1.50642e-13
-1.43384e-13
-1.33055e-13
-1.23083e-13
-1.14428e-13
-1.0413e-13
-9.35009e-14
-8.74773e-14
-8.6624e-14
-8.13352e-14
-7.46033e-14
-6.40233e-14
-5.91783e-14
-5.33404e-14
-4.61505e-14
-3.83465e-14
-3.18529e-14
-1.96377e-14
-8.58917e-15
-2.26663e-15
-1.47795e-15
-6.94084e-13
-6.93762e-13
-6.86175e-13
-6.95114e-13
-6.94772e-13
-6.91735e-13
-6.85609e-13
-6.78902e-13
-6.72087e-13
-6.62475e-13
-6.57697e-13
-6.52678e-13
-6.51582e-13
-6.45412e-13
-6.39114e-13
-6.35036e-13
-6.30137e-13
-6.23357e-13
-6.11393e-13
-5.96907e-13
-5.78116e-13
-5.6433e-13
-5.55342e-13
-5.5362e-13
-5.49091e-13
-5.44643e-13
-5.38073e-13
-5.3186e-13
-5.29549e-13
-5.26728e-13
-5.19133e-13
-5.0634e-13
-4.96407e-13
-4.88408e-13
-4.83951e-13
-4.73808e-13
-4.64365e-13
-4.59543e-13
-4.53631e-13
-4.43667e-13
-4.34374e-13
-4.30277e-13
-4.25812e-13
-4.19973e-13
-4.08999e-13
-3.99822e-13
-3.92538e-13
-3.8471e-13
-3.76137e-13
-3.68636e-13
-3.61897e-13
-3.55504e-13
-3.44213e-13
-3.34225e-13
-3.3559e-13
-3.34672e-13
-3.19316e-13
-3.04436e-13
-2.95649e-13
-2.87718e-13
-2.85222e-13
-2.82356e-13
-2.81244e-13
-2.71271e-13
-2.54445e-13
-2.45179e-13
-2.32187e-13
-2.30603e-13
-2.25297e-13
-2.20093e-13
-2.1614e-13
-2.15872e-13
-2.09718e-13
-1.94058e-13
-1.77198e-13
-1.64195e-13
-1.61276e-13
-1.64705e-13
-1.57652e-13
-1.48155e-13
-1.41595e-13
-1.33848e-13
-1.25836e-13
-1.16064e-13
-1.05405e-13
-9.30072e-14
-8.73584e-14
-8.68775e-14
-8.00845e-14
-7.28545e-14
-6.44217e-14
-5.77357e-14
-5.01e-14
-4.42547e-14
-3.891e-14
-3.06527e-14
-1.98785e-14
-1.03156e-14
-1.33072e-15
4.75852e-16
-6.90749e-13
-7.00538e-13
-6.95325e-13
-6.90482e-13
-6.90999e-13
-6.89525e-13
-6.84858e-13
-6.83509e-13
-6.72785e-13
-6.58725e-13
-6.54685e-13
-6.52813e-13
-6.50017e-13
-6.4634e-13
-6.41773e-13
-6.3223e-13
-6.21657e-13
-6.13916e-13
-6.08252e-13
-5.99368e-13
-5.92433e-13
-5.83931e-13
-5.714e-13
-5.53566e-13
-5.39722e-13
-5.33561e-13
-5.35868e-13
-5.3366e-13
-5.30965e-13
-5.28773e-13
-5.19903e-13
-5.0753e-13
-4.92402e-13
-4.80274e-13
-4.74995e-13
-4.70584e-13
-4.70481e-13
-4.66107e-13
-4.54523e-13
-4.48125e-13
-4.36987e-13
-4.26754e-13
-4.24337e-13
-4.17292e-13
-4.08313e-13
-3.99281e-13
-3.89715e-13
-3.84724e-13
-3.79752e-13
-3.71049e-13
-3.63007e-13
-3.53324e-13
-3.4586e-13
-3.38446e-13
-3.33541e-13
-3.2779e-13
-3.21272e-13
-3.13809e-13
-3.05154e-13
-2.93399e-13
-2.83998e-13
-2.77342e-13
-2.71703e-13
-2.66006e-13
-2.5583e-13
-2.4747e-13
-2.38522e-13
-2.31765e-13
-2.25831e-13
-2.22573e-13
-2.18639e-13
-2.1073e-13
-2.03157e-13
-1.94936e-13
-1.80243e-13
-1.69335e-13
-1.61797e-13
-1.59664e-13
-1.57281e-13
-1.49008e-13
-1.42383e-13
-1.31867e-13
-1.24449e-13
-1.14944e-13
-1.04026e-13
-9.46716e-14
-8.98786e-14
-8.54204e-14
-8.11114e-14
-7.24266e-14
-6.47091e-14
-6.06837e-14
-5.26951e-14
-4.39122e-14
-3.41673e-14
-2.57337e-14
-1.84917e-14
-1.17264e-14
-4.07851e-15
6.38591e-20
-6.90085e-13
-6.94268e-13
-6.96313e-13
-6.92165e-13
-6.91303e-13
-6.92403e-13
-6.81852e-13
-6.70546e-13
-6.65372e-13
-6.63244e-13
-6.60665e-13
-6.56734e-13
-6.53469e-13
-6.47824e-13
-6.42096e-13
-6.33523e-13
-6.26808e-13
-6.22723e-13
-6.13392e-13
-5.98931e-13
-5.79409e-13
-5.65925e-13
-5.56685e-13
-5.46972e-13
-5.47315e-13
-5.45751e-13
-5.40988e-13
-5.33563e-13
-5.29166e-13
-5.2789e-13
-5.21885e-13
-5.10939e-13
-4.97886e-13
-4.80614e-13
-4.70248e-13
-4.70964e-13
-4.71919e-13
-4.67496e-13
-4.60356e-13
-4.49182e-13
-4.3469e-13
-4.25427e-13
-4.17837e-13
-4.13e-13
-4.07764e-13
-4.02067e-13
-3.94833e-13
-3.85933e-13
-3.79393e-13
-3.77949e-13
-3.69213e-13
-3.51337e-13
-3.40713e-13
-3.33346e-13
-3.27719e-13
-3.26006e-13
-3.22041e-13
-3.12909e-13
-3.00382e-13
-2.90564e-13
-2.8703e-13
-2.82428e-13
-2.75152e-13
-2.65888e-13
-2.51654e-13
-2.41337e-13
-2.36751e-13
-2.34405e-13
-2.2945e-13
-2.22406e-13
-2.15541e-13
-2.10775e-13
-2.03618e-13
-1.93489e-13
-1.81567e-13
-1.66091e-13
-1.60478e-13
-1.58722e-13
-1.59349e-13
-1.54478e-13
-1.45776e-13
-1.35382e-13
-1.2418e-13
-1.12205e-13
-1.02404e-13
-9.51649e-14
-9.05367e-14
-8.47249e-14
-7.85554e-14
-7.15594e-14
-6.50491e-14
-5.94727e-14
-5.329e-14
-4.39676e-14
-3.34202e-14
-2.3145e-14
-1.46268e-14
-8.97198e-15
-2.26219e-15
-7.06723e-16
-6.88678e-13
-6.97494e-13
-6.98206e-13
-6.93185e-13
-6.89878e-13
-6.953e-13
-6.91477e-13
-6.77079e-13
-6.58755e-13
-6.54579e-13
-6.53638e-13
-6.54923e-13
-6.53822e-13
-6.50877e-13
-6.45446e-13
-6.3466e-13
-6.25029e-13
-6.16947e-13
-6.04285e-13
-5.95439e-13
-5.87164e-13
-5.74046e-13
-5.61905e-13
-5.47825e-13
-5.46639e-13
-5.4471e-13
-5.42846e-13
-5.37894e-13
-5.29954e-13
-5.26954e-13
-5.18479e-13
-5.06473e-13
-4.96688e-13
-4.81476e-13
-4.69412e-13
-4.68457e-13
-4.70075e-13
-4.68275e-13
-4.59852e-13
-4.49864e-13
-4.33673e-13
-4.24204e-13
-4.21384e-13
-4.15732e-13
-4.07902e-13
-4.00197e-13
-3.97214e-13
-3.90247e-13
-3.79436e-13
-3.68062e-13
-3.60067e-13
-3.5403e-13
-3.44762e-13
-3.31668e-13
-3.32425e-13
-3.29651e-13
-3.2141e-13
-3.14806e-13
-3.07184e-13
-2.92837e-13
-2.85267e-13
-2.78636e-13
-2.70244e-13
-2.62593e-13
-2.51354e-13
-2.43708e-13
-2.34475e-13
-2.31508e-13
-2.26112e-13
-2.25534e-13
-2.18092e-13
-2.1398e-13
-2.07116e-13
-1.93143e-13
-1.78624e-13
-1.66704e-13
-1.63575e-13
-1.60528e-13
-1.5552e-13
-1.50433e-13
-1.4458e-13
-1.35785e-13
-1.2503e-13
-1.12672e-13
-1.05638e-13
-9.85271e-14
-9.10698e-14
-8.43067e-14
-7.85552e-14
-7.04729e-14
-6.35082e-14
-5.73264e-14
-4.92951e-14
-4.03756e-14
-3.2977e-14
-2.67517e-14
-1.3004e-14
-5.82245e-15
5.03555e-16
3.53473e-16
-6.95621e-13
-6.94656e-13
-6.91003e-13
-6.87107e-13
-6.8869e-13
-6.83373e-13
-6.78869e-13
-6.80105e-13
-6.7556e-13
-6.6771e-13
-6.6249e-13
-6.53505e-13
-6.47356e-13
-6.46167e-13
-6.43917e-13
-6.3646e-13
-6.2742e-13
-6.24112e-13
-6.12389e-13
-5.95333e-13
-5.75597e-13
-5.62646e-13
-5.56822e-13
-5.55082e-13
-5.48199e-13
-5.47021e-13
-5.42934e-13
-5.36134e-13
-5.30497e-13
-5.25372e-13
-5.18254e-13
-5.0598e-13
-4.93789e-13
-4.80986e-13
-4.72639e-13
-4.71437e-13
-4.74651e-13
-4.68351e-13
-4.58837e-13
-4.48104e-13
-4.34333e-13
-4.21663e-13
-4.1916e-13
-4.16271e-13
-4.12316e-13
-4.0131e-13
-3.92105e-13
-3.88249e-13
-3.83036e-13
-3.71235e-13
-3.59224e-13
-3.53741e-13
-3.46322e-13
-3.35406e-13
-3.27327e-13
-3.24674e-13
-3.18988e-13
-3.13877e-13
-3.07983e-13
-2.98138e-13
-2.87259e-13
-2.7909e-13
-2.69623e-13
-2.61915e-13
-2.55215e-13
-2.44893e-13
-2.34833e-13
-2.26277e-13
-2.2324e-13
-2.25608e-13
-2.17389e-13
-2.12259e-13
-2.05307e-13
-1.93847e-13
-1.8264e-13
-1.70244e-13
-1.5998e-13
-1.55526e-13
-1.54885e-13
-1.55771e-13
-1.49482e-13
-1.34557e-13
-1.23835e-13
-1.10927e-13
-1.06039e-13
-1.00808e-13
-9.34339e-14
-8.3243e-14
-7.41944e-14
-6.94078e-14
-6.35821e-14
-5.67164e-14
-5.09371e-14
-4.24378e-14
-3.20403e-14
-2.21918e-14
-1.33389e-14
-7.12591e-15
1.08829e-16
1.7389e-15
-6.95086e-13
-6.93804e-13
-6.91275e-13
-6.88988e-13
-6.94942e-13
-6.92069e-13
-6.79147e-13
-6.72465e-13
-6.67543e-13
-6.64346e-13
-6.63193e-13
-6.60892e-13
-6.49232e-13
-6.41899e-13
-6.38827e-13
-6.33699e-13
-6.29135e-13
-6.2176e-13
-6.09173e-13
-5.92779e-13
-5.78593e-13
-5.64268e-13
-5.54987e-13
-5.55353e-13
-5.55351e-13
-5.46744e-13
-5.39192e-13
-5.36379e-13
-5.33881e-13
-5.27955e-13
-5.20547e-13
-5.07671e-13
-4.93748e-13
-4.80143e-13
-4.69362e-13
-4.69953e-13
-4.68727e-13
-4.66333e-13
-4.62637e-13
-4.52518e-13
-4.37917e-13
-4.25796e-13
-4.1882e-13
-4.1059e-13
-4.08423e-13
-4.0278e-13
-3.9461e-13
-3.85097e-13
-3.78326e-13
-3.71374e-13
-3.59931e-13
-3.54197e-13
-3.46481e-13
-3.36659e-13
-3.33473e-13
-3.2888e-13
-3.17217e-13
-3.07873e-13
-3.03429e-13
-2.95321e-13
-2.89271e-13
-2.79092e-13
-2.70785e-13
-2.63409e-13
-2.544e-13
-2.43429e-13
-2.36783e-13
-2.26675e-13
-2.20184e-13
-2.1823e-13
-2.16437e-13
-2.13242e-13
-2.07063e-13
-1.93991e-13
-1.81453e-13
-1.71168e-13
-1.64392e-13
-1.57788e-13
-1.5714e-13
-1.53847e-13
-1.46615e-13
-1.36361e-13
-1.25247e-13
-1.13749e-13
-1.04929e-13
-9.57307e-14
-8.91027e-14
-8.48697e-14
-7.89306e-14
-6.97152e-14
-6.26417e-14
-5.55569e-14
-4.79e-14
-3.96815e-14
-3.04511e-14
-2.39507e-14
-1.5075e-14
-5.17798e-15
4.7341e-16
2.62608e-17
-6.89987e-13
-6.9288e-13
-6.92914e-13
-6.91382e-13
-6.89706e-13
-6.83444e-13
-6.78801e-13
-6.75354e-13
-6.74118e-13
-6.69703e-13
-6.64252e-13
-6.59623e-13
-6.51998e-13
-6.43378e-13
-6.37372e-13
-6.29927e-13
-6.27091e-13
-6.20259e-13
-6.07499e-13
-5.95099e-13
-5.78417e-13
-5.65141e-13
-5.60283e-13
-5.56409e-13
-5.48029e-13
-5.44016e-13
-5.43444e-13
-5.40612e-13
-5.33255e-13
-5.23437e-13
-5.15404e-13
-5.06315e-13
-4.93411e-13
-4.81272e-13
-4.71818e-13
-4.75434e-13
-4.76367e-13
-4.68386e-13
-4.57772e-13
-4.45231e-13
-4.34556e-13
-4.28426e-13
-4.20623e-13
-4.10738e-13
-4.05529e-13
-3.98761e-13
-3.97026e-13
-3.95127e-13
-3.81655e-13
-3.68e-13
-3.57854e-13
-3.5529e-13
-3.46877e-13
-3.36012e-13
-3.32011e-13
-3.28554e-13
-3.20501e-13
-3.09563e-13
-3.01164e-13
-2.94332e-13
-2.91532e-13
-2.82429e-13
-2.71836e-13
-2.62142e-13
-2.50534e-13
-2.42827e-13
-2.33778e-13
-2.28136e-13
-2.21132e-13
-2.16581e-13
-2.12419e-13
-2.1304e-13
-2.07795e-13
-1.93959e-13
-1.81535e-13
-1.71165e-13
-1.66362e-13
-1.60749e-13
-1.52879e-13
-1.45378e-13
-1.49138e-13
-1.43606e-13
-1.26877e-13
-1.14394e-13
-1.04985e-13
-9.46345e-14
-8.72347e-14
-8.42668e-14
-7.85438e-14
-6.98757e-14
-6.19798e-14
-5.57147e-14
-4.87337e-14
-3.83606e-14
-3.27712e-14
-2.26237e-14
-1.23534e-14
-3.6318e-15
1.38578e-15
-3.53455e-16
-6.97166e-13
-6.94107e-13
-6.91978e-13
-6.88934e-13
-6.84026e-13
-6.81375e-13
-6.78304e-13
-6.78246e-13
-6.75415e-13
-6.70129e-13
-6.63474e-13
-6.59122e-13
-6.53007e-13
-6.47123e-13
-6.39317e-13
-6.28338e-13
-6.18128e-13
-6.11977e-13
-6.07189e-13
-5.98999e-13
-5.80966e-13
-5.69202e-13
-5.60451e-13
-5.5352e-13
-5.50094e-13
-5.46433e-13
-5.44495e-13
-5.41057e-13
-5.31454e-13
-5.26284e-13
-5.16617e-13
-5.05505e-13
-4.91637e-13
-4.7924e-13
-4.74249e-13
-4.74897e-13
-4.72841e-13
-4.66856e-13
-4.5757e-13
-4.46488e-13
-4.34909e-13
-4.25804e-13
-4.21218e-13
-4.15151e-13
-4.10161e-13
-4.03162e-13
-3.92888e-13
-3.85639e-13
-3.80616e-13
-3.72251e-13
-3.65143e-13
-3.55123e-13
-3.45344e-13
-3.3685e-13
-3.3051e-13
-3.23205e-13
-3.18768e-13
-3.11489e-13
-3.00804e-13
-2.94607e-13
-2.92336e-13
-2.845e-13
-2.72916e-13
-2.60333e-13
-2.51666e-13
-2.43032e-13
-2.33629e-13
-2.26402e-13
-2.20901e-13
-2.16696e-13
-2.14158e-13
-2.13285e-13
-2.06622e-13
-1.90911e-13
-1.80417e-13
-1.71414e-13
-1.65836e-13
-1.60254e-13
-1.56285e-13
-1.51908e-13
-1.45744e-13
-1.37581e-13
-1.28011e-13
-1.18097e-13
-1.10025e-13
-9.47712e-14
-8.61469e-14
-8.12542e-14
-7.82295e-14
-6.67038e-14
-5.92495e-14
-5.47574e-14
-5.27136e-14
-4.00971e-14
-2.87378e-14
-2.17569e-14
-1.39168e-14
-1.21554e-15
3.75146e-16
-1.52676e-15
-6.99719e-13
-6.93435e-13
-6.87625e-13
-6.88196e-13
-6.8047e-13
-6.81513e-13
-6.78637e-13
-6.79393e-13
-6.78736e-13
-6.68826e-13
-6.62659e-13
-6.59685e-13
-6.5781e-13
-6.48524e-13
-6.39429e-13
-6.31439e-13
-6.22867e-13
-6.12426e-13
-6.06192e-13
-5.92415e-13
-5.8089e-13
-5.68791e-13
-5.57482e-13
-5.51805e-13
-5.48297e-13
-5.49981e-13
-5.45557e-13
-5.39841e-13
-5.3207e-13
-5.24438e-13
-5.16929e-13
-5.07407e-13
-4.92001e-13
-4.81966e-13
-4.72858e-13
-4.70454e-13
-4.71149e-13
-4.6715e-13
-4.58025e-13
-4.47185e-13
-4.38141e-13
-4.29061e-13
-4.2072e-13
-4.14245e-13
-4.0829e-13
-4.01325e-13
-3.92751e-13
-3.879e-13
-3.8323e-13
-3.72719e-13
-3.61875e-13
-3.51101e-13
-3.44769e-13
-3.39599e-13
-3.33758e-13
-3.27316e-13
-3.2002e-13
-3.10049e-13
-3.0332e-13
-2.98483e-13
-2.93355e-13
-2.83168e-13
-2.68947e-13
-2.58816e-13
-2.498e-13
-2.40871e-13
-2.31686e-13
-2.27395e-13
-2.20553e-13
-2.20414e-13
-2.15171e-13
-2.09426e-13
-2.00003e-13
-1.88365e-13
-1.78868e-13
-1.69702e-13
-1.69319e-13
-1.67371e-13
-1.58004e-13
-1.49353e-13
-1.42943e-13
-1.35218e-13
-1.26744e-13
-1.16934e-13
-1.04881e-13
-9.25139e-14
-8.74399e-14
-8.39068e-14
-7.71978e-14
-7.24479e-14
-6.6503e-14
-5.52414e-14
-4.54788e-14
-3.76494e-14
-2.894e-14
-1.9361e-14
-1.2087e-14
-7.39246e-15
-2.41377e-15
-1.47854e-15
-6.97673e-13
-6.917e-13
-6.90114e-13
-6.88206e-13
-6.84818e-13
-6.81362e-13
-6.75833e-13
-6.78375e-13
-6.78006e-13
-6.72504e-13
-6.66163e-13
-6.59032e-13
-6.56466e-13
-6.46672e-13
-6.36486e-13
-6.2654e-13
-6.16693e-13
-6.12499e-13
-6.06806e-13
-5.94901e-13
-5.82468e-13
-5.70288e-13
-5.59434e-13
-5.55413e-13
-5.54237e-13
-5.47615e-13
-5.41344e-13
-5.34008e-13
-5.27337e-13
-5.24988e-13
-5.18805e-13
-5.11806e-13
-4.99812e-13
-4.88689e-13
-4.70837e-13
-4.66792e-13
-4.66284e-13
-4.63639e-13
-4.5787e-13
-4.47115e-13
-4.39963e-13
-4.29274e-13
-4.23356e-13
-4.12636e-13
-4.08601e-13
-4.02762e-13
-3.98067e-13
-3.89709e-13
-3.79502e-13
-3.65482e-13
-3.61183e-13
-3.56247e-13
-3.48912e-13
-3.35703e-13
-3.2845e-13
-3.21975e-13
-3.14608e-13
-3.12425e-13
-3.04276e-13
-3.02537e-13
-3.02704e-13
-2.80539e-13
-2.66979e-13
-2.60685e-13
-2.5238e-13
-2.44189e-13
-2.3445e-13
-2.27584e-13
-2.17737e-13
-2.14576e-13
-2.10131e-13
-2.12257e-13
-2.05264e-13
-1.92699e-13
-1.76843e-13
-1.65328e-13
-1.69202e-13
-1.66007e-13
-1.58124e-13
-1.51892e-13
-1.44861e-13
-1.35683e-13
-1.25723e-13
-1.15007e-13
-1.05492e-13
-9.39601e-14
-8.66622e-14
-8.44238e-14
-7.86304e-14
-6.82668e-14
-6.0238e-14
-5.47856e-14
-4.64622e-14
-3.70742e-14
-3.31488e-14
-2.6038e-14
-1.24691e-14
-3.64882e-15
2.46001e-15
-4.21347e-16
-6.92136e-13
-6.94197e-13
-6.93844e-13
-6.87871e-13
-6.82293e-13
-6.827e-13
-6.80524e-13
-6.76726e-13
-6.75821e-13
-6.71306e-13
-6.67761e-13
-6.62877e-13
-6.54637e-13
-6.45261e-13
-6.3732e-13
-6.29911e-13
-6.24363e-13
-6.19707e-13
-6.09167e-13
-5.92386e-13
-5.7363e-13
-5.60112e-13
-5.56624e-13
-5.57071e-13
-5.54587e-13
-5.47104e-13
-5.38141e-13
-5.34045e-13
-5.27398e-13
-5.26076e-13
-5.22948e-13
-5.0746e-13
-4.94486e-13
-4.86052e-13
-4.77406e-13
-4.72878e-13
-4.68762e-13
-4.62426e-13
-4.56061e-13
-4.47672e-13
-4.39243e-13
-4.28878e-13
-4.20952e-13
-4.15945e-13
-4.1371e-13
-4.03966e-13
-3.96088e-13
-3.83601e-13
-3.80273e-13
-3.72303e-13
-3.6031e-13
-3.5485e-13
-3.48333e-13
-3.39714e-13
-3.31437e-13
-3.18176e-13
-3.06539e-13
-3.09978e-13
-3.13637e-13
-3.04514e-13
-2.94508e-13
-2.82742e-13