/*--------------------------------*- C++ -*----------------------------------*\
| =========                 |                                                 |
| \\      /  F ield         | OpenFOAM: The Open Source CFD Toolbox           |
|  \\    /   O peration     | Version:  v2012                                 |
|   \\  /    A nd           | Website:  www.openfoam.com                      |
|    \\/     M anipulation  |                                                 |
\*---------------------------------------------------------------------------*/
FoamFile
{
    version     2.0;
    format      ascii;
    class       volVectorField;
    location    "70";
    object      Usup;
}
// * * * * * * * * * * * * * * * * * * * * * * * * * * * * * * * * * * * * * //

dimensions      [0 1 -1 0 0 0 0];


internalField   nonuniform List<vector> 
4000
(
(-3.11139e-16 -1.44133e-16 0)
(-4.32666e-16 8.38292e-18 0)
(-2.62288e-16 3.3977e-16 0)
(-7.83209e-16 4.3614e-16 0)
(-1.48321e-15 6.17473e-16 0)
(-1.32009e-15 6.11186e-16 0)
(-1.03424e-15 5.27637e-16 0)
(-8.83323e-16 6.39495e-16 0)
(-1.42129e-15 8.38943e-17 0)
(-2.56421e-15 1.13686e-18 0)
(-2.99092e-15 2.59267e-16 0)
(-3.11761e-15 3.83444e-16 0)
(-3.2199e-15 3.60233e-16 0)
(-3.50551e-15 5.69018e-16 0)
(-3.99628e-15 9.34445e-16 0)
(-3.99448e-15 1.19224e-15 0)
(-3.64e-15 1.17774e-15 0)
(-3.89656e-15 6.5241e-16 0)
(-4.38867e-15 9.84854e-16 0)
(-4.33241e-15 1.19546e-15 0)
(-3.78855e-15 9.39629e-16 0)
(-3.59528e-15 3.00665e-16 0)
(-4.31311e-15 -7.55946e-17 0)
(-5.08262e-15 1.96525e-16 0)
(-4.97202e-15 6.24267e-16 0)
(-4.15202e-15 9.81167e-16 0)
(-3.76876e-15 9.93952e-16 0)
(-3.55886e-15 1.08498e-15 0)
(-3.41597e-15 7.97156e-16 0)
(-4.17038e-15 6.21091e-16 0)
(-4.35968e-15 7.94001e-16 0)
(-3.79265e-15 1.08226e-15 0)
(-3.83415e-15 6.67344e-16 0)
(-4.05266e-15 7.46322e-16 0)
(-4.1093e-15 7.80916e-16 0)
(-4.25544e-15 6.73793e-16 0)
(-4.50301e-15 7.34473e-16 0)
(-4.26464e-15 8.39341e-16 0)
(-4.12764e-15 7.25542e-16 0)
(-4.1415e-15 1.08083e-15 0)
(-3.41893e-15 1.33357e-15 0)
(-2.78142e-15 1.29738e-15 0)
(-2.49084e-15 1.36432e-15 0)
(-2.43725e-15 1.14467e-15 0)
(-2.46904e-15 8.92325e-16 0)
(-2.76068e-15 7.59161e-16 0)
(-2.75355e-15 1.12758e-15 0)
(-2.32944e-15 1.19134e-15 0)
(-2.18866e-15 1.39927e-15 0)
(-1.94637e-15 1.5777e-15 0)
(-1.66388e-15 1.54857e-15 0)
(-1.11233e-15 1.42594e-15 0)
(-4.92493e-16 1.47176e-15 0)
(-3.78217e-16 1.75619e-15 0)
(1.41901e-18 2.04671e-15 0)
(6.41752e-16 1.93586e-15 0)
(1.08787e-15 1.86487e-15 0)
(1.5032e-15 1.4708e-15 0)
(1.53413e-15 1.28723e-15 0)
(9.90171e-16 1.30002e-15 0)
(8.14064e-17 1.38861e-15 0)
(-4.12578e-16 1.56443e-15 0)
(-4.59712e-16 1.45377e-15 0)
(-9.97468e-17 1.66701e-15 0)
(3.19629e-16 1.62478e-15 0)
(1.77537e-16 1.52577e-15 0)
(4.78777e-17 1.30251e-15 0)
(5.84596e-16 1.36582e-15 0)
(1.1955e-15 1.47626e-15 0)
(1.13329e-15 1.48741e-15 0)
(1.26297e-15 1.61259e-15 0)
(1.27375e-15 1.59101e-15 0)
(1.28198e-15 1.6703e-15 0)
(1.75706e-15 1.43241e-15 0)
(1.75617e-15 8.92579e-16 0)
(1.61281e-15 8.1954e-16 0)
(1.13378e-15 6.44321e-16 0)
(8.34173e-17 5.65912e-16 0)
(-5.54445e-16 7.24149e-16 0)
(-6.53715e-16 1.06722e-15 0)
(-1.6443e-16 1.20578e-15 0)
(4.41494e-16 9.31894e-16 0)
(2.84296e-16 6.69154e-16 0)
(6.11145e-17 6.45464e-16 0)
(7.29181e-16 4.28646e-16 0)
(1.38619e-15 3.85401e-16 0)
(1.23212e-15 -1.15512e-16 0)
(7.48941e-16 -3.53961e-16 0)
(1.56989e-16 -1.15262e-16 0)
(1.90857e-16 5.35544e-17 0)
(4.05369e-16 6.87435e-18 0)
(1.51759e-16 2.62289e-16 0)
(1.28231e-16 3.32808e-16 0)
(1.05244e-16 2.28178e-18 0)
(-3.22682e-16 -3.27209e-16 0)
(-4.98948e-16 -2.74892e-16 0)
(-6.17575e-16 -4.60507e-16 0)
(-8.10977e-16 -3.13565e-16 0)
(-4.13946e-16 8.66871e-17 0)
(-5.65298e-18 1.20508e-16 0)
(-5.28847e-16 -2.02042e-16 0)
(-7.90438e-16 3.91719e-16 0)
(-8.82894e-16 9.21379e-16 0)
(-2.17249e-15 1.25185e-15 0)
(-3.68223e-15 1.54889e-15 0)
(-3.78317e-15 1.72913e-15 0)
(-3.29422e-15 1.52607e-15 0)
(-3.5993e-15 1.55878e-15 0)
(-5.07821e-15 5.2828e-16 0)
(-6.92286e-15 3.02558e-16 0)
(-8.00145e-15 8.27671e-16 0)
(-8.77953e-15 1.00517e-15 0)
(-9.18063e-15 1.07786e-15 0)
(-9.66298e-15 1.93305e-15 0)
(-1.06743e-14 2.8964e-15 0)
(-1.10919e-14 3.26707e-15 0)
(-1.11857e-14 3.04117e-15 0)
(-1.14789e-14 2.24661e-15 0)
(-1.18788e-14 2.98444e-15 0)
(-1.22428e-14 3.14061e-15 0)
(-1.19246e-14 2.50821e-15 0)
(-1.17659e-14 1.52512e-15 0)
(-1.25151e-14 6.14644e-16 0)
(-1.34117e-14 9.19864e-16 0)
(-1.31428e-14 1.94555e-15 0)
(-1.18556e-14 2.82132e-15 0)
(-1.11129e-14 3.02422e-15 0)
(-1.08119e-14 2.8098e-15 0)
(-1.08146e-14 2.11095e-15 0)
(-1.18212e-14 1.83276e-15 0)
(-1.18629e-14 2.53402e-15 0)
(-1.13557e-14 2.85346e-15 0)
(-1.15445e-14 2.41313e-15 0)
(-1.16252e-14 2.56935e-15 0)
(-1.19483e-14 2.57298e-15 0)
(-1.22494e-14 2.25951e-15 0)
(-1.25035e-14 2.15594e-15 0)
(-1.21709e-14 2.19563e-15 0)
(-1.15881e-14 2.0024e-15 0)
(-1.103e-14 3.04221e-15 0)
(-9.7308e-15 3.78199e-15 0)
(-8.37571e-15 3.85822e-15 0)
(-7.70012e-15 3.97402e-15 0)
(-7.6664e-15 3.44286e-15 0)
(-7.60172e-15 2.89346e-15 0)
(-7.57957e-15 2.54766e-15 0)
(-7.30335e-15 3.1999e-15 0)
(-6.51547e-15 3.62283e-15 0)
(-5.90402e-15 4.38601e-15 0)
(-5.35744e-15 4.94314e-15 0)
(-4.70345e-15 4.66908e-15 0)
(-3.26488e-15 4.32714e-15 0)
(-1.48002e-15 4.23625e-15 0)
(-6.50214e-16 4.95428e-15 0)
(1.32996e-16 5.64683e-15 0)
(1.38293e-15 5.70797e-15 0)
(2.32996e-15 5.58802e-15 0)
(3.16861e-15 5.06979e-15 0)
(3.49503e-15 4.41608e-15 0)
(2.50042e-15 4.1023e-15 0)
(7.10316e-16 4.02828e-15 0)
(-5.80077e-16 4.34012e-15 0)
(-7.19817e-16 4.3613e-15 0)
(2.83458e-17 4.68756e-15 0)
(6.34963e-16 4.62332e-15 0)
(4.02565e-16 4.38157e-15 0)
(4.85689e-16 4.2772e-15 0)
(1.88341e-15 4.30936e-15 0)
(3.13552e-15 4.40189e-15 0)
(3.27702e-15 4.45173e-15 0)
(3.57931e-15 4.65385e-15 0)
(3.66284e-15 4.75176e-15 0)
(3.64339e-15 4.66247e-15 0)
(4.045e-15 3.97476e-15 0)
(4.16022e-15 3.03729e-15 0)
(3.96443e-15 2.59329e-15 0)
(2.72162e-15 2.16039e-15 0)
(7.11784e-16 2.05494e-15 0)
(-4.5722e-16 2.42861e-15 0)
(-7.64167e-16 3.02434e-15 0)
(-2.85794e-16 3.33682e-15 0)
(5.97472e-16 2.6936e-15 0)
(6.6902e-16 1.76053e-15 0)
(5.05101e-16 1.62563e-15 0)
(1.82592e-15 1.40841e-15 0)
(2.90322e-15 1.02862e-15 0)
(2.51047e-15 2.75471e-16 0)
(2.03435e-15 -4.08163e-16 0)
(1.12307e-15 -3.90601e-16 0)
(8.11135e-16 -9.85231e-17 0)
(1.13478e-15 -1.26193e-16 0)
(7.30468e-16 4.03776e-16 0)
(1.33487e-16 4.4818e-16 0)
(-3.69667e-16 -1.45521e-16 0)
(-9.76571e-16 -8.25212e-16 0)
(-1.35341e-15 -8.7964e-16 0)
(-1.59783e-15 -8.70907e-16 0)
(-1.45741e-15 -5.08047e-16 0)
(-7.39724e-16 -1.6232e-18 0)
(-2.74521e-16 6.55595e-17 0)
(-5.05591e-16 1.25757e-16 0)
(-1.08428e-15 1.04112e-15 0)
(-1.67446e-15 1.3129e-15 0)
(-3.49473e-15 1.39289e-15 0)
(-5.50852e-15 1.8425e-15 0)
(-5.98801e-15 2.62959e-15 0)
(-5.81164e-15 2.65375e-15 0)
(-6.64689e-15 2.61749e-15 0)
(-8.79342e-15 1.31329e-15 0)
(-1.09466e-14 9.09454e-16 0)
(-1.25617e-14 1.48753e-15 0)
(-1.3952e-14 1.74085e-15 0)
(-1.43236e-14 2.20289e-15 0)
(-1.48563e-14 2.92621e-15 0)
(-1.6657e-14 4.28044e-15 0)
(-1.78726e-14 4.89362e-15 0)
(-1.833e-14 4.69338e-15 0)
(-1.83816e-14 4.36872e-15 0)
(-1.88717e-14 4.71828e-15 0)
(-1.9858e-14 4.52782e-15 0)
(-1.96472e-14 3.85099e-15 0)
(-1.9661e-14 3.02739e-15 0)
(-2.04988e-14 2.43641e-15 0)
(-2.09101e-14 2.26251e-15 0)
(-2.02385e-14 3.27553e-15 0)
(-1.88637e-14 4.18138e-15 0)
(-1.83697e-14 4.45092e-15 0)
(-1.82962e-14 4.25714e-15 0)
(-1.81282e-14 3.74671e-15 0)
(-1.86788e-14 3.3549e-15 0)
(-1.87227e-14 4.45275e-15 0)
(-1.85083e-14 4.34308e-15 0)
(-1.86568e-14 4.2846e-15 0)
(-1.88321e-14 4.02197e-15 0)
(-1.94514e-14 4.11033e-15 0)
(-1.9937e-14 4.01321e-15 0)
(-2.01188e-14 3.6155e-15 0)
(-1.95684e-14 3.63976e-15 0)
(-1.81862e-14 3.51534e-15 0)
(-1.68605e-14 4.77785e-15 0)
(-1.53888e-14 5.85017e-15 0)
(-1.37473e-14 6.39078e-15 0)
(-1.29406e-14 6.19061e-15 0)
(-1.29051e-14 5.75971e-15 0)
(-1.26419e-14 5.24049e-15 0)
(-1.21339e-14 4.87818e-15 0)
(-1.12518e-14 5.65549e-15 0)
(-9.9042e-15 6.47456e-15 0)
(-8.88874e-15 7.12804e-15 0)
(-8.46979e-15 7.81856e-15 0)
(-7.70219e-15 7.97346e-15 0)
(-5.51244e-15 7.7637e-15 0)
(-2.55893e-15 7.75585e-15 0)
(-7.54606e-16 8.53651e-15 0)
(4.53207e-16 9.21168e-15 0)
(2.02959e-15 9.50654e-15 0)
(3.30481e-15 9.33832e-15 0)
(4.18115e-15 8.63339e-15 0)
(4.36376e-15 7.63826e-15 0)
(3.22125e-15 6.96886e-15 0)
(1.20701e-15 6.69084e-15 0)
(-2.75207e-16 7.13912e-15 0)
(-5.39032e-16 7.58133e-15 0)
(2.56804e-16 7.73094e-15 0)
(9.15155e-16 7.39542e-15 0)
(9.26573e-16 7.00589e-15 0)
(1.28296e-15 7.33286e-15 0)
(2.98568e-15 7.46863e-15 0)
(4.72419e-15 7.41901e-15 0)
(5.18037e-15 7.82624e-15 0)
(5.72691e-15 8.11212e-15 0)
(5.75912e-15 8.04983e-15 0)
(5.44542e-15 7.64345e-15 0)
(5.83648e-15 6.78345e-15 0)
(5.96264e-15 5.6698e-15 0)
(5.58241e-15 4.34247e-15 0)
(4.03381e-15 3.57e-15 0)
(1.62621e-15 3.53187e-15 0)
(1.02825e-16 4.26326e-15 0)
(-4.16112e-16 4.70495e-15 0)
(-2.14477e-16 4.88454e-15 0)
(3.36401e-16 4.23267e-15 0)
(7.2684e-16 3.3309e-15 0)
(1.19554e-15 2.7723e-15 0)
(2.71621e-15 2.4327e-15 0)
(3.9238e-15 1.43632e-15 0)
(3.41616e-15 6.55857e-16 0)
(2.6613e-15 -3.41565e-16 0)
(1.80893e-15 -5.15544e-16 0)
(1.49685e-15 9.20872e-18 0)
(1.84437e-15 1.26446e-17 0)
(1.23673e-15 1.14275e-16 0)
(8.06295e-17 -1.99742e-17 0)
(-8.62029e-16 -4.97618e-16 0)
(-1.65072e-15 -1.11044e-15 0)
(-1.86405e-15 -1.13592e-15 0)
(-2.0179e-15 -8.0181e-16 0)
(-1.967e-15 -4.40696e-16 0)
(-1.16655e-15 -3.43011e-16 0)
(-3.95944e-16 -2.37395e-16 0)
(-5.50984e-16 4.01662e-16 0)
(-1.60573e-15 1.54731e-15 0)
(-2.95025e-15 1.77906e-15 0)
(-4.92839e-15 1.85502e-15 0)
(-6.73312e-15 2.3011e-15 0)
(-7.5997e-15 3.19537e-15 0)
(-8.05432e-15 3.58795e-15 0)
(-9.92555e-15 3.43575e-15 0)
(-1.2803e-14 2.20303e-15 0)
(-1.47455e-14 1.6437e-15 0)
(-1.65906e-14 1.91814e-15 0)
(-1.8407e-14 2.56232e-15 0)
(-1.92712e-14 3.46492e-15 0)
(-1.98922e-14 4.0716e-15 0)
(-2.17119e-14 5.1104e-15 0)
(-2.37017e-14 6.19945e-15 0)
(-2.47253e-14 6.49984e-15 0)
(-2.50087e-14 6.65222e-15 0)
(-2.57335e-14 6.34731e-15 0)
(-2.69808e-14 5.98838e-15 0)
(-2.70396e-14 5.2491e-15 0)
(-2.69622e-14 4.20699e-15 0)
(-2.78079e-14 3.85481e-15 0)
(-2.80502e-14 4.32419e-15 0)
(-2.69197e-14 5.07023e-15 0)
(-2.55873e-14 5.38706e-15 0)
(-2.50751e-14 5.43695e-15 0)
(-2.49891e-14 5.40351e-15 0)
(-2.50903e-14 5.46231e-15 0)
(-2.52389e-14 5.3551e-15 0)
(-2.52233e-14 5.96699e-15 0)
(-2.54212e-14 5.58858e-15 0)
(-2.57159e-14 5.37768e-15 0)
(-2.58213e-14 5.10875e-15 0)
(-2.6155e-14 5.34667e-15 0)
(-2.69279e-14 5.53972e-15 0)
(-2.70963e-14 5.47902e-15 0)
(-2.62682e-14 5.458e-15 0)
(-2.42972e-14 5.44879e-15 0)
(-2.21841e-14 6.43965e-15 0)
(-2.03778e-14 7.52719e-15 0)
(-1.8889e-14 8.12289e-15 0)
(-1.81079e-14 8.05982e-15 0)
(-1.77857e-14 8.12927e-15 0)
(-1.73603e-14 7.92709e-15 0)
(-1.61706e-14 7.59409e-15 0)
(-1.46199e-14 8.5596e-15 0)
(-1.32457e-14 9.51105e-15 0)
(-1.19686e-14 1.01445e-14 0)
(-1.08967e-14 1.10614e-14 0)
(-9.85149e-15 1.16243e-14 0)
(-7.29483e-15 1.18003e-14 0)
(-3.51305e-15 1.18635e-14 0)
(-1.06184e-15 1.2344e-14 0)
(5.19473e-16 1.27554e-14 0)
(2.3308e-15 1.30376e-14 0)
(3.51814e-15 1.28855e-14 0)
(4.36259e-15 1.18537e-14 0)
(4.75366e-15 1.09401e-14 0)
(3.713e-15 1.031e-14 0)
(1.8659e-15 1.01073e-14 0)
(4.51481e-16 1.0356e-14 0)
(-9.13212e-17 1.08515e-14 0)
(3.31607e-16 1.08395e-14 0)
(9.40946e-16 1.03053e-14 0)
(1.49207e-15 9.96986e-15 0)
(2.35332e-15 1.0102e-14 0)
(4.17526e-15 1.05846e-14 0)
(6.37123e-15 1.06098e-14 0)
(7.23107e-15 1.12503e-14 0)
(7.54351e-15 1.16704e-14 0)
(7.3717e-15 1.12308e-14 0)
(6.98668e-15 1.08047e-14 0)
(7.08901e-15 9.60603e-15 0)
(6.74372e-15 8.05296e-15 0)
(6.27399e-15 6.07823e-15 0)
(5.01738e-15 4.75195e-15 0)
(2.8796e-15 4.56116e-15 0)
(1.11993e-15 5.63962e-15 0)
(6.50075e-17 6.10434e-15 0)
(-2.412e-17 6.15704e-15 0)
(5.01116e-16 5.89396e-15 0)
(8.9171e-16 4.88555e-15 0)
(1.41971e-15 4.15069e-15 0)
(2.99709e-15 3.30046e-15 0)
(4.2298e-15 1.90724e-15 0)
(3.78108e-15 9.70614e-16 0)
(3.26976e-15 -1.2652e-16 0)
(2.88965e-15 -2.83355e-16 0)
(2.36425e-15 1.14479e-16 0)
(2.16224e-15 4.50144e-18 0)
(1.33489e-15 -2.50596e-16 0)
(-1.28936e-17 -6.13362e-16 0)
(-1.25412e-15 -1.0953e-15 0)
(-2.04261e-15 -1.30645e-15 0)
(-2.14386e-15 -1.14548e-15 0)
(-2.3659e-15 -8.08413e-16 0)
(-2.44111e-15 -4.3433e-16 0)
(-1.57983e-15 -3.3037e-16 0)
(-3.79194e-16 -3.49113e-16 0)
(-5.37432e-16 6.15033e-16 0)
(-2.06225e-15 2.00727e-15 0)
(-3.95744e-15 2.31054e-15 0)
(-6.23091e-15 2.47196e-15 0)
(-8.26292e-15 3.11076e-15 0)
(-9.27867e-15 3.56475e-15 0)
(-1.03492e-14 3.84671e-15 0)
(-1.30251e-14 3.50178e-15 0)
(-1.64092e-14 2.9554e-15 0)
(-1.85805e-14 2.52063e-15 0)
(-2.03602e-14 2.78442e-15 0)
(-2.2181e-14 3.44035e-15 0)
(-2.33598e-14 4.26827e-15 0)
(-2.45085e-14 4.95059e-15 0)
(-2.65803e-14 5.48044e-15 0)
(-2.87953e-14 6.94967e-15 0)
(-3.0281e-14 7.87329e-15 0)
(-3.11309e-14 8.42358e-15 0)
(-3.23219e-14 8.2501e-15 0)
(-3.3808e-14 7.73055e-15 0)
(-3.41835e-14 6.69039e-15 0)
(-3.40925e-14 5.56618e-15 0)
(-3.41591e-14 4.77244e-15 0)
(-3.40415e-14 5.98356e-15 0)
(-3.34512e-14 6.73252e-15 0)
(-3.22732e-14 6.79868e-15 0)
(-3.16822e-14 6.79597e-15 0)
(-3.13621e-14 6.81994e-15 0)
(-3.11933e-14 6.94071e-15 0)
(-3.1456e-14 7.25174e-15 0)
(-3.1771e-14 6.74822e-15 0)
(-3.21232e-14 6.26046e-15 0)
(-3.2191e-14 6.23195e-15 0)
(-3.20937e-14 6.36269e-15 0)
(-3.24302e-14 6.33279e-15 0)
(-3.31539e-14 6.59851e-15 0)
(-3.34071e-14 7.14358e-15 0)
(-3.2546e-14 7.42019e-15 0)
(-2.99815e-14 7.46504e-15 0)
(-2.72424e-14 8.13164e-15 0)
(-2.52639e-14 8.81669e-15 0)
(-2.36405e-14 9.05491e-15 0)
(-2.25185e-14 9.70139e-15 0)
(-2.20554e-14 1.04636e-14 0)
(-2.16893e-14 1.09129e-14 0)
(-1.99659e-14 1.1036e-14 0)
(-1.76807e-14 1.16417e-14 0)
(-1.59622e-14 1.22826e-14 0)
(-1.42545e-14 1.32799e-14 0)
(-1.30588e-14 1.44463e-14 0)
(-1.18884e-14 1.49131e-14 0)
(-9.01093e-15 1.54809e-14 0)
(-4.75303e-15 1.55154e-14 0)
(-1.66865e-15 1.55454e-14 0)
(3.98238e-16 1.59444e-14 0)
(2.5154e-15 1.60671e-14 0)
(3.60434e-15 1.59983e-14 0)
(4.41047e-15 1.51714e-14 0)
(4.98384e-15 1.47302e-14 0)
(4.07656e-15 1.4288e-14 0)
(2.22947e-15 1.43289e-14 0)
(8.79139e-16 1.40798e-14 0)
(3.05684e-16 1.4208e-14 0)
(4.89042e-16 1.38776e-14 0)
(1.18927e-15 1.30589e-14 0)
(1.99324e-15 1.2886e-14 0)
(3.33467e-15 1.28841e-14 0)
(5.48361e-15 1.35989e-14 0)
(7.88281e-15 1.39567e-14 0)
(9.05032e-15 1.4409e-14 0)
(9.12414e-15 1.48265e-14 0)
(8.76852e-15 1.43639e-14 0)
(8.06525e-15 1.37064e-14 0)
(7.71196e-15 1.19161e-14 0)
(7.1239e-15 1.0125e-14 0)
(6.48432e-15 8.2407e-15 0)
(5.55333e-15 6.23968e-15 0)
(4.09278e-15 5.63704e-15 0)
(2.39741e-15 6.37329e-15 0)
(8.265e-16 7.16873e-15 0)
(5.47371e-16 7.62233e-15 0)
(5.40702e-16 7.23448e-15 0)
(7.95191e-16 5.91514e-15 0)
(1.62483e-15 5.34628e-15 0)
(3.00127e-15 4.38215e-15 0)
(4.39551e-15 2.73916e-15 0)
(4.06645e-15 1.62782e-15 0)
(3.58857e-15 4.87061e-16 0)
(3.44732e-15 -3.23758e-16 0)
(2.8566e-15 -4.80573e-16 0)
(2.46481e-15 -3.16281e-16 0)
(1.37835e-15 -6.74588e-16 0)
(-2.56448e-16 -1.23708e-15 0)
(-1.43673e-15 -1.61545e-15 0)
(-2.14316e-15 -1.56416e-15 0)
(-2.28693e-15 -1.37945e-15 0)
(-2.4989e-15 -1.1546e-15 0)
(-2.66415e-15 -5.52461e-16 0)
(-1.97717e-15 -1.65841e-16 0)
(-4.8139e-16 -2.38601e-16 0)
(-6.02829e-16 1.03897e-15 0)
(-2.65637e-15 2.15766e-15 0)
(-5.2511e-15 2.68869e-15 0)
(-7.42979e-15 2.77127e-15 0)
(-9.51573e-15 3.48134e-15 0)
(-1.11298e-14 4.15156e-15 0)
(-1.26872e-14 3.93294e-15 0)
(-1.5802e-14 3.45386e-15 0)
(-1.95498e-14 3.27794e-15 0)
(-2.18107e-14 3.26259e-15 0)
(-2.37468e-14 3.65529e-15 0)
(-2.59561e-14 4.24577e-15 0)
(-2.75246e-14 4.91776e-15 0)
(-2.90171e-14 5.24643e-15 0)
(-3.08252e-14 5.70228e-15 0)
(-3.29804e-14 7.37448e-15 0)
(-3.50483e-14 8.93395e-15 0)
(-3.6473e-14 9.46202e-15 0)
(-3.82736e-14 9.13444e-15 0)
(-4.03645e-14 8.69968e-15 0)
(-4.10203e-14 8.34607e-15 0)
(-4.09421e-14 7.44879e-15 0)
(-4.02967e-14 6.94134e-15 0)
(-3.95708e-14 7.29052e-15 0)
(-3.92744e-14 7.79165e-15 0)
(-3.83243e-14 7.84288e-15 0)
(-3.76288e-14 7.77451e-15 0)
(-3.72923e-14 8.11982e-15 0)
(-3.71254e-14 8.17824e-15 0)
(-3.77653e-14 8.48145e-15 0)
(-3.83647e-14 7.75126e-15 0)
(-3.82012e-14 7.11581e-15 0)
(-3.80369e-14 6.98112e-15 0)
(-3.81567e-14 6.79261e-15 0)
(-3.83936e-14 6.78683e-15 0)
(-3.87018e-14 7.2893e-15 0)
(-3.87312e-14 8.20991e-15 0)
(-3.80081e-14 9.19527e-15 0)
(-3.53536e-14 9.57908e-15 0)
(-3.22421e-14 9.61372e-15 0)
(-3.0108e-14 9.97886e-15 0)
(-2.79765e-14 1.02562e-14 0)
(-2.62e-14 1.1334e-14 0)
(-2.55085e-14 1.27533e-14 0)
(-2.51139e-14 1.39747e-14 0)
(-2.33875e-14 1.46834e-14 0)
(-2.09739e-14 1.45729e-14 0)
(-1.87304e-14 1.48782e-14 0)
(-1.6396e-14 1.56814e-14 0)
(-1.49532e-14 1.6978e-14 0)
(-1.35e-14 1.80424e-14 0)
(-1.03444e-14 1.90477e-14 0)
(-6.02125e-15 1.90533e-14 0)
(-2.39336e-15 1.86074e-14 0)
(1.26763e-16 1.89689e-14 0)
(2.39092e-15 1.89314e-14 0)
(3.52659e-15 1.89005e-14 0)
(4.51893e-15 1.83293e-14 0)
(5.33922e-15 1.83154e-14 0)
(4.54786e-15 1.79536e-14 0)
(2.60703e-15 1.83005e-14 0)
(1.05788e-15 1.82742e-14 0)
(4.03381e-16 1.80017e-14 0)
(2.41631e-16 1.71383e-14 0)
(1.18765e-15 1.59645e-14 0)
(2.61676e-15 1.5612e-14 0)
(4.47327e-15 1.56191e-14 0)
(6.974e-15 1.64252e-14 0)
(9.3995e-15 1.73027e-14 0)
(1.06605e-14 1.76021e-14 0)
(1.05809e-14 1.79127e-14 0)
(9.8221e-15 1.72189e-14 0)
(8.5872e-15 1.60999e-14 0)
(7.88152e-15 1.44309e-14 0)
(7.32621e-15 1.22128e-14 0)
(6.36696e-15 1.02772e-14 0)
(5.54998e-15 8.01619e-15 0)
(4.85729e-15 7.00474e-15 0)
(3.65891e-15 7.00513e-15 0)
(2.14516e-15 7.98829e-15 0)
(1.15753e-15 8.8192e-15 0)
(4.84703e-16 8.26488e-15 0)
(8.89093e-16 7.35751e-15 0)
(1.85571e-15 6.43894e-15 0)
(2.84449e-15 5.20532e-15 0)
(4.09767e-15 3.39512e-15 0)
(3.97785e-15 1.96195e-15 0)
(3.48634e-15 8.66101e-16 0)
(3.55139e-15 -2.57569e-16 0)
(3.47213e-15 -7.15609e-16 0)
(2.86543e-15 -7.29968e-16 0)
(1.23159e-15 -1.25583e-15 0)
(-4.20003e-16 -1.58231e-15 0)
(-1.51973e-15 -1.80817e-15 0)
(-2.21421e-15 -1.95421e-15 0)
(-2.46762e-15 -1.7021e-15 0)
(-2.57828e-15 -1.65719e-15 0)
(-2.60932e-15 -1.16252e-15 0)
(-2.167e-15 -5.21767e-16 0)
(-6.57087e-16 -1.03219e-16 0)
(-1.00517e-15 1.16995e-15 0)
(-3.43804e-15 2.03762e-15 0)
(-6.22693e-15 2.72726e-15 0)
(-8.68112e-15 3.41871e-15 0)
(-1.06864e-14 4.07828e-15 0)
(-1.28357e-14 4.77095e-15 0)
(-1.52565e-14 4.30431e-15 0)
(-1.8497e-14 3.40301e-15 0)
(-2.22432e-14 3.4412e-15 0)
(-2.4769e-14 3.6347e-15 0)
(-2.68741e-14 4.14821e-15 0)
(-2.92122e-14 4.65882e-15 0)
(-3.12441e-14 5.07488e-15 0)
(-3.31478e-14 5.58136e-15 0)
(-3.47544e-14 6.37593e-15 0)
(-3.65976e-14 8.12476e-15 0)
(-3.92941e-14 9.37945e-15 0)
(-4.18534e-14 9.89505e-15 0)
(-4.40261e-14 9.54239e-15 0)
(-4.57479e-14 9.99733e-15 0)
(-4.664e-14 1.02252e-14 0)
(-4.68337e-14 9.018e-15 0)
(-4.61527e-14 8.431e-15 0)
(-4.54088e-14 8.02126e-15 0)
(-4.50468e-14 8.336e-15 0)
(-4.41977e-14 8.58025e-15 0)
(-4.32628e-14 8.51776e-15 0)
(-4.2744e-14 8.77655e-15 0)
(-4.25547e-14 8.91007e-15 0)
(-4.33935e-14 8.63101e-15 0)
(-4.44016e-14 8.58537e-15 0)
(-4.43044e-14 8.12362e-15 0)
(-4.40298e-14 7.73483e-15 0)
(-4.38227e-14 7.21947e-15 0)
(-4.3617e-14 7.46916e-15 0)
(-4.35811e-14 8.20063e-15 0)
(-4.33269e-14 9.05578e-15 0)
(-4.26086e-14 1.01006e-14 0)
(-4.03862e-14 1.10945e-14 0)
(-3.72042e-14 1.10613e-14 0)
(-3.4512e-14 1.11495e-14 0)
(-3.18022e-14 1.17134e-14 0)
(-2.93034e-14 1.27037e-14 0)
(-2.82473e-14 1.45223e-14 0)
(-2.79555e-14 1.66688e-14 0)
(-2.67673e-14 1.74173e-14 0)
(-2.42937e-14 1.7317e-14 0)
(-2.13506e-14 1.7657e-14 0)
(-1.82898e-14 1.82752e-14 0)
(-1.62076e-14 1.93886e-14 0)
(-1.44926e-14 2.07045e-14 0)
(-1.15885e-14 2.18157e-14 0)
(-7.57884e-15 2.22086e-14 0)
(-3.43404e-15 2.19065e-14 0)
(-3.10909e-16 2.16715e-14 0)
(2.19743e-15 2.17578e-14 0)
(3.44747e-15 2.20111e-14 0)
(4.64704e-15 2.2003e-14 0)
(5.55882e-15 2.17015e-14 0)
(4.92863e-15 2.10225e-14 0)
(3.24522e-15 2.13656e-14 0)
(1.36363e-15 2.16897e-14 0)
(1.79831e-16 2.1365e-14 0)
(-1.91758e-16 2.04679e-14 0)
(1.07479e-15 1.9607e-14 0)
(2.99454e-15 1.88175e-14 0)
(5.48578e-15 1.88601e-14 0)
(8.61298e-15 1.93193e-14 0)
(1.09799e-14 2.00682e-14 0)
(1.203e-14 2.02918e-14 0)
(1.16138e-14 2.00911e-14 0)
(1.03795e-14 1.92898e-14 0)
(9.05608e-15 1.78756e-14 0)
(7.89702e-15 1.62627e-14 0)
(6.98969e-15 1.382e-14 0)
(6.05984e-15 1.18445e-14 0)
(5.44142e-15 1.00529e-14 0)
(5.24e-15 8.9575e-15 0)
(4.66971e-15 8.62487e-15 0)
(3.50153e-15 9.30375e-15 0)
(2.0285e-15 9.69571e-15 0)
(7.82276e-16 9.24549e-15 0)
(8.5758e-16 8.52433e-15 0)
(1.56123e-15 7.27856e-15 0)
(2.39664e-15 5.56395e-15 0)
(3.70359e-15 3.89518e-15 0)
(3.85369e-15 2.4763e-15 0)
(3.45222e-15 1.33719e-15 0)
(3.56565e-15 -3.07625e-19 0)
(3.55829e-15 -7.75037e-16 0)
(2.8789e-15 -1.09285e-15 0)
(1.3125e-15 -1.52435e-15 0)
(-3.6591e-16 -1.71549e-15 0)
(-1.68974e-15 -1.92571e-15 0)
(-2.3216e-15 -2.06187e-15 0)
(-2.57473e-15 -2.07865e-15 0)
(-2.80443e-15 -2.03069e-15 0)
(-2.65327e-15 -1.90507e-15 0)
(-2.0503e-15 -1.32328e-15 0)
(-7.56589e-16 -3.28522e-16 0)
(-1.337e-15 1.02194e-15 0)
(-4.19631e-15 2.17569e-15 0)
(-6.93679e-15 2.85807e-15 0)
(-9.36236e-15 3.58068e-15 0)
(-1.17876e-14 4.35634e-15 0)
(-1.46411e-14 4.61873e-15 0)
(-1.78458e-14 4.55481e-15 0)
(-2.11382e-14 3.84422e-15 0)
(-2.47032e-14 3.69645e-15 0)
(-2.72841e-14 3.98686e-15 0)
(-2.9661e-14 4.37099e-15 0)
(-3.2587e-14 4.759e-15 0)
(-3.47574e-14 5.05943e-15 0)
(-3.65163e-14 6.30374e-15 0)
(-3.78942e-14 7.54667e-15 0)
(-4.01288e-14 8.81335e-15 0)
(-4.34618e-14 9.37512e-15 0)
(-4.63776e-14 9.95035e-15 0)
(-4.84861e-14 1.01547e-14 0)
(-5.03674e-14 1.07876e-14 0)
(-5.24272e-14 1.0348e-14 0)
(-5.31096e-14 9.13237e-15 0)
(-5.20173e-14 8.72118e-15 0)
(-5.07211e-14 8.64008e-15 0)
(-4.99662e-14 9.10914e-15 0)
(-4.92512e-14 9.33455e-15 0)
(-4.84714e-14 9.36256e-15 0)
(-4.79223e-14 9.59236e-15 0)
(-4.81086e-14 9.61167e-15 0)
(-4.88628e-14 8.70695e-15 0)
(-4.95856e-14 8.51196e-15 0)
(-4.96571e-14 8.28315e-15 0)
(-4.95085e-14 8.09226e-15 0)
(-4.91249e-14 7.67145e-15 0)
(-4.83879e-14 8.29627e-15 0)
(-4.81523e-14 9.27243e-15 0)
(-4.77911e-14 1.01086e-14 0)
(-4.67282e-14 1.08934e-14 0)
(-4.45461e-14 1.19017e-14 0)
(-4.17037e-14 1.21505e-14 0)
(-3.8675e-14 1.23583e-14 0)
(-3.53979e-14 1.32778e-14 0)
(-3.22221e-14 1.426e-14 0)
(-3.02253e-14 1.58869e-14 0)
(-3.01791e-14 1.80166e-14 0)
(-2.96624e-14 1.96184e-14 0)
(-2.70759e-14 2.04142e-14 0)
(-2.37817e-14 2.0958e-14 0)
(-2.03011e-14 2.11398e-14 0)
(-1.77136e-14 2.1475e-14 0)
(-1.5583e-14 2.24171e-14 0)
(-1.23951e-14 2.32231e-14 0)
(-8.39213e-15 2.44371e-14 0)
(-4.52471e-15 2.48584e-14 0)
(-1.05948e-15 2.45426e-14 0)
(2.15314e-15 2.46504e-14 0)
(3.70498e-15 2.48016e-14 0)
(4.64242e-15 2.51791e-14 0)
(5.17921e-15 2.45519e-14 0)
(4.94838e-15 2.37222e-14 0)
(3.75975e-15 2.39946e-14 0)
(1.72697e-15 2.43585e-14 0)
(2.25029e-16 2.4208e-14 0)
(-2.16393e-16 2.35376e-14 0)
(9.83132e-16 2.26984e-14 0)
(3.29786e-15 2.16681e-14 0)
(6.33127e-15 2.17544e-14 0)
(9.63407e-15 2.19799e-14 0)
(1.21675e-14 2.2308e-14 0)
(1.29819e-14 2.22846e-14 0)
(1.23531e-14 2.16963e-14 0)
(1.0848e-14 2.1016e-14 0)
(9.09399e-15 1.9796e-14 0)
(7.62807e-15 1.76804e-14 0)
(6.7058e-15 1.51829e-14 0)
(6.02841e-15 1.32162e-14 0)
(5.58883e-15 1.19096e-14 0)
(5.67561e-15 1.10386e-14 0)
(5.52688e-15 1.06324e-14 0)
(4.3751e-15 1.07934e-14 0)
(2.48186e-15 1.05544e-14 0)
(9.90247e-16 1.00696e-14 0)
(8.53495e-16 9.29797e-15 0)
(1.15327e-15 8.0472e-15 0)
(1.88918e-15 6.48994e-15 0)
(3.37722e-15 4.6581e-15 0)
(3.59477e-15 3.0358e-15 0)
(3.03926e-15 1.85362e-15 0)
(3.19757e-15 2.90326e-16 0)
(3.66749e-15 -6.45295e-16 0)
(3.09819e-15 -1.10095e-15 0)
(1.32923e-15 -1.39895e-15 0)
(-3.99912e-16 -2.01512e-15 0)
(-1.70802e-15 -2.1988e-15 0)
(-2.50901e-15 -2.13389e-15 0)
(-2.86117e-15 -2.37994e-15 0)
(-3.07491e-15 -2.53739e-15 0)
(-2.89253e-15 -2.60507e-15 0)
(-1.97242e-15 -2.00044e-15 0)
(-5.70921e-16 -6.58089e-16 0)
(-1.45459e-15 7.96599e-16 0)
(-4.64003e-15 2.14453e-15 0)
(-7.76277e-15 3.25231e-15 0)
(-1.0336e-14 3.55687e-15 0)
(-1.29784e-14 3.87702e-15 0)
(-1.61212e-14 4.00955e-15 0)
(-1.96977e-14 4.24845e-15 0)
(-2.35013e-14 4.31854e-15 0)
(-2.70668e-14 3.85467e-15 0)
(-2.9791e-14 4.055e-15 0)
(-3.24198e-14 4.03872e-15 0)
(-3.5396e-14 4.6871e-15 0)
(-3.73398e-14 5.84959e-15 0)
(-3.90477e-14 7.46336e-15 0)
(-4.1084e-14 8.33794e-15 0)
(-4.38204e-14 8.70327e-15 0)
(-4.73665e-14 9.14859e-15 0)
(-5.04839e-14 1.0095e-14 0)
(-5.28669e-14 1.0641e-14 0)
(-5.52748e-14 1.00762e-14 0)
(-5.7705e-14 9.07748e-15 0)
(-5.80297e-14 8.58526e-15 0)
(-5.66379e-14 8.95813e-15 0)
(-5.53298e-14 9.17473e-15 0)
(-5.4775e-14 9.59672e-15 0)
(-5.42372e-14 9.91457e-15 0)
(-5.32601e-14 1.00971e-14 0)
(-5.27049e-14 1.00191e-14 0)
(-5.33173e-14 1.00021e-14 0)
(-5.42925e-14 9.51202e-15 0)
(-5.47855e-14 8.63314e-15 0)
(-5.46625e-14 8.29418e-15 0)
(-5.44975e-14 8.02426e-15 0)
(-5.36447e-14 8.2528e-15 0)
(-5.23416e-14 8.93006e-15 0)
(-5.20425e-14 1.00167e-14 0)
(-5.17696e-14 1.10654e-14 0)
(-5.07033e-14 1.19156e-14 0)
(-4.85885e-14 1.29745e-14 0)
(-4.56485e-14 1.31392e-14 0)
(-4.20697e-14 1.35017e-14 0)
(-3.8371e-14 1.47239e-14 0)
(-3.49268e-14 1.58833e-14 0)
(-3.26068e-14 1.74203e-14 0)
(-3.19164e-14 1.90012e-14 0)
(-3.12827e-14 2.13619e-14 0)
(-2.91355e-14 2.26634e-14 0)
(-2.61549e-14 2.33769e-14 0)
(-2.27163e-14 2.33124e-14 0)
(-1.95022e-14 2.33702e-14 0)
(-1.68334e-14 2.43045e-14 0)
(-1.30999e-14 2.51459e-14 0)
(-8.73968e-15 2.61972e-14 0)
(-5.10323e-15 2.67094e-14 0)
(-1.63225e-15 2.71294e-14 0)
(1.7369e-15 2.73584e-14 0)
(3.61838e-15 2.70611e-14 0)
(4.57648e-15 2.72694e-14 0)
(4.82511e-15 2.69957e-14 0)
(4.98994e-15 2.64448e-14 0)
(4.26133e-15 2.66209e-14 0)
(2.13219e-15 2.69532e-14 0)
(2.72459e-16 2.71622e-14 0)
(-4.81728e-16 2.62178e-14 0)
(6.85237e-16 2.49835e-14 0)
(3.4857e-15 2.38263e-14 0)
(7.12712e-15 2.3751e-14 0)
(1.06732e-14 2.41224e-14 0)
(1.30942e-14 2.42645e-14 0)
(1.3684e-14 2.42382e-14 0)
(1.29594e-14 2.34478e-14 0)
(1.13854e-14 2.26603e-14 0)
(9.07212e-15 2.14301e-14 0)
(6.97108e-15 1.91055e-14 0)
(6.09615e-15 1.64673e-14 0)
(5.89406e-15 1.43563e-14 0)
(5.88207e-15 1.29681e-14 0)
(6.1264e-15 1.25498e-14 0)
(6.12166e-15 1.2143e-14 0)
(4.93668e-15 1.17478e-14 0)
(2.9125e-15 1.11157e-14 0)
(1.25209e-15 1.08926e-14 0)
(7.76279e-16 1.0348e-14 0)
(9.29306e-16 9.08494e-15 0)
(1.35826e-15 7.68633e-15 0)
(2.60831e-15 5.57303e-15 0)
(3.17924e-15 3.6363e-15 0)
(2.71334e-15 2.12639e-15 0)
(2.85955e-15 6.78118e-16 0)
(3.4915e-15 -1.26571e-16 0)
(3.08816e-15 -9.68849e-16 0)
(1.19693e-15 -1.58283e-15 0)
(-6.15582e-16 -2.28735e-15 0)
(-1.66468e-15 -2.34572e-15 0)
(-2.57091e-15 -2.10545e-15 0)
(-3.21237e-15 -2.47086e-15 0)
(-3.53163e-15 -2.99486e-15 0)
(-3.05078e-15 -3.0723e-15 0)
(-1.6946e-15 -2.24433e-15 0)
(-3.19176e-16 -7.59398e-16 0)
(-1.48182e-15 5.88566e-16 0)
(-4.66632e-15 1.61093e-15 0)
(-8.24264e-15 2.46286e-15 0)
(-1.14299e-14 3.10246e-15 0)
(-1.42574e-14 3.44576e-15 0)
(-1.75186e-14 3.31915e-15 0)
(-2.11761e-14 3.36114e-15 0)
(-2.54432e-14 3.73748e-15 0)
(-2.94118e-14 3.84194e-15 0)
(-3.21883e-14 4.18958e-15 0)
(-3.47659e-14 4.24631e-15 0)
(-3.73419e-14 4.99013e-15 0)
(-3.9292e-14 6.50409e-15 0)
(-4.17157e-14 7.86581e-15 0)
(-4.44223e-14 8.3877e-15 0)
(-4.7338e-14 8.41764e-15 0)
(-5.05649e-14 8.59193e-15 0)
(-5.36863e-14 9.7156e-15 0)
(-5.71466e-14 9.96825e-15 0)
(-6.03682e-14 8.9351e-15 0)
(-6.25469e-14 7.90416e-15 0)
(-6.23641e-14 7.99992e-15 0)
(-6.08643e-14 8.22762e-15 0)
(-5.96108e-14 8.67869e-15 0)
(-5.88215e-14 9.33672e-15 0)
(-5.82884e-14 1.0159e-14 0)
(-5.77833e-14 1.03704e-14 0)
(-5.73562e-14 1.02053e-14 0)
(-5.7822e-14 1.00652e-14 0)
(-5.91896e-14 1.0297e-14 0)
(-5.97805e-14 9.64792e-15 0)
(-5.93779e-14 9.11989e-15 0)
(-5.87754e-14 8.43471e-15 0)
(-5.76431e-14 8.96381e-15 0)
(-5.61991e-14 9.48164e-15 0)
(-5.55807e-14 1.05866e-14 0)
(-5.52404e-14 1.173e-14 0)
(-5.39667e-14 1.2913e-14 0)
(-5.20333e-14 1.41236e-14 0)
(-4.93993e-14 1.43095e-14 0)
(-4.52503e-14 1.49355e-14 0)
(-4.10198e-14 1.60054e-14 0)
(-3.7233e-14 1.7276e-14 0)
(-3.45421e-14 1.87714e-14 0)
(-3.35009e-14 2.01809e-14 0)
(-3.27883e-14 2.21552e-14 0)
(-3.09898e-14 2.34215e-14 0)
(-2.82472e-14 2.41569e-14 0)
(-2.47631e-14 2.47341e-14 0)
(-2.09239e-14 2.48202e-14 0)
(-1.7674e-14 2.59006e-14 0)
(-1.38418e-14 2.71324e-14 0)
(-9.522e-15 2.78689e-14 0)
(-5.57578e-15 2.82155e-14 0)
(-1.80927e-15 2.90256e-14 0)
(1.3342e-15 2.96257e-14 0)
(3.26123e-15 2.94724e-14 0)
(4.52713e-15 2.93898e-14 0)
(4.73621e-15 2.93482e-14 0)
(4.998e-15 2.88293e-14 0)
(4.5756e-15 2.8839e-14 0)
(2.66755e-15 2.88298e-14 0)
(3.35722e-16 2.90144e-14 0)
(-1.03522e-15 2.90133e-14 0)
(1.66986e-16 2.78973e-14 0)
(3.51756e-15 2.67009e-14 0)
(7.87637e-15 2.63451e-14 0)
(1.15485e-14 2.62336e-14 0)
(1.39933e-14 2.60838e-14 0)
(1.43055e-14 2.58208e-14 0)
(1.32678e-14 2.48153e-14 0)
(1.15479e-14 2.37438e-14 0)
(8.72198e-15 2.20256e-14 0)
(6.22301e-15 1.98304e-14 0)
(5.40168e-15 1.74296e-14 0)
(5.53407e-15 1.53803e-14 0)
(6.19187e-15 1.42596e-14 0)
(6.83919e-15 1.38677e-14 0)
(6.55955e-15 1.34048e-14 0)
(5.12795e-15 1.24788e-14 0)
(3.28917e-15 1.19984e-14 0)
(1.82755e-15 1.17444e-14 0)
(9.17269e-16 1.10717e-14 0)
(5.90925e-16 9.99146e-15 0)
(6.9785e-16 8.67335e-15 0)
(1.76437e-15 6.81258e-15 0)
(2.36564e-15 4.66118e-15 0)
(2.07194e-15 2.60278e-15 0)
(2.61885e-15 1.14965e-15 0)
(3.37983e-15 3.76259e-16 0)
(2.77815e-15 -7.24919e-16 0)
(9.23722e-16 -1.49454e-15 0)
(-5.94841e-16 -1.88704e-15 0)
(-1.4145e-15 -1.91423e-15 0)
(-2.65285e-15 -1.89043e-15 0)
(-3.78276e-15 -2.36792e-15 0)
(-4.01081e-15 -3.1426e-15 0)
(-3.0933e-15 -2.99537e-15 0)
(-1.37354e-15 -2.06736e-15 0)
(-3.43866e-17 -7.51774e-16 0)
(-1.65574e-15 5.89188e-16 0)
(-5.2069e-15 1.10999e-15 0)
(-8.72422e-15 1.34948e-15 0)
(-1.18602e-14 2.12756e-15 0)
(-1.53303e-14 2.5128e-15 0)
(-1.90213e-14 2.55042e-15 0)
(-2.26057e-14 2.51046e-15 0)
(-2.67832e-14 2.49872e-15 0)
(-3.08217e-14 3.20068e-15 0)
(-3.40519e-14 3.84869e-15 0)
(-3.68642e-14 4.07807e-15 0)
(-3.92333e-14 4.99698e-15 0)
(-4.11654e-14 5.92872e-15 0)
(-4.4015e-14 6.74562e-15 0)
(-4.74072e-14 7.64183e-15 0)
(-5.07375e-14 8.05739e-15 0)
(-5.3779e-14 8.45332e-15 0)
(-5.71013e-14 8.78183e-15 0)
(-6.12974e-14 8.40778e-15 0)
(-6.48432e-14 7.2731e-15 0)
(-6.6607e-14 6.57659e-15 0)
(-6.61416e-14 7.14507e-15 0)