/*--------------------------------*- C++ -*----------------------------------*\
| =========                 |                                                 |
| \\      /  F ield         | OpenFOAM: The Open Source CFD Toolbox           |
|  \\    /   O peration     | Version:  v2012                                 |
|   \\  /    A nd           | Website:  www.openfoam.com                      |
|    \\/     M anipulation  |                                                 |
\*---------------------------------------------------------------------------*/
FoamFile
{
    version     2.0;
    format      ascii;
    class       surfaceScalarField;
    location    "17.5";
    object      phi;
}
// * * * * * * * * * * * * * * * * * * * * * * * * * * * * * * * * * * * * * //

dimensions      [0 3 -1 0 0 0 0];
oriented        oriented;


internalField   nonuniform List<scalar> 
130560
(
3.26395e-06
-3.26395e-06
6.52809e-06
-3.26414e-06
9.79259e-06
-3.2645e-06
1.30576e-05
-3.26505e-06
1.63234e-05
-3.26577e-06
1.95901e-05
-3.26667e-06
2.28578e-05
-3.26775e-06
2.61268e-05
-3.26901e-06
2.93973e-05
-3.27043e-06
3.26693e-05
-3.27202e-06
3.59431e-05
-3.27378e-06
3.92188e-05
-3.27571e-06
4.24966e-05
-3.27779e-06
4.57766e-05
-3.28002e-06
4.9059e-05
-3.2824e-06
5.23439e-05
-3.28493e-06
5.56315e-05
-3.28759e-06
5.89219e-05
-3.29038e-06
6.22152e-05
-3.2933e-06
6.55115e-05
-3.29634e-06
6.8811e-05
-3.29948e-06
7.21137e-05
-3.30273e-06
7.54198e-05
-3.30607e-06
7.87293e-05
-3.3095e-06
8.20423e-05
-3.31301e-06
8.53589e-05
-3.31658e-06
8.86791e-05
-3.3202e-06
9.2003e-05
-3.32387e-06
9.53305e-05
-3.32757e-06
9.86618e-05
-3.33129e-06
0.000101997
-3.33502e-06
0.000105336
-3.33875e-06
0.000108678
-3.34246e-06
0.000112024
-3.34613e-06
0.000115374
-3.34975e-06
0.000118727
-3.35331e-06
0.000122084
-3.35679e-06
0.000125444
-3.36017e-06
0.000128808
-3.36344e-06
0.000132174
-3.36657e-06
0.000135544
-3.36955e-06
0.000138916
-3.37236e-06
0.000142291
-3.37498e-06
0.000145668
-3.37738e-06
0.000149048
-3.37954e-06
0.000152429
-3.38145e-06
0.000155813
-3.38307e-06
0.000159197
-3.38439e-06
0.000162582
-3.38538e-06
0.000165968
-3.38601e-06
0.000169355
-3.38626e-06
0.000172741
-3.38609e-06
0.000176126
-3.38549e-06
0.000179511
-3.38443e-06
0.000182893
-3.38287e-06
0.000186274
-3.38078e-06
0.000189652
-3.37814e-06
0.000193027
-3.37491e-06
0.000196398
-3.37106e-06
0.000199765
-3.36656e-06
0.000203126
-3.36138e-06
0.000206482
-3.35548e-06
0.000209831
-3.34883e-06
0.000213172
-3.3414e-06
0.000216505
-3.33314e-06
0.000219829
-3.32403e-06
0.000223143
-3.31403e-06
0.000226446
-3.3031e-06
0.000229738
-3.29121e-06
0.000233016
-3.27832e-06
0.00023628
-3.26439e-06
0.00023953
-3.2494e-06
0.000242763
-3.2333e-06
0.000245979
-3.21606e-06
0.000249177
-3.19764e-06
0.000252355
-3.178e-06
0.000255512
-3.15712e-06
0.000258647
-3.13496e-06
0.000261758
-3.11149e-06
0.000264845
-3.08667e-06
0.000267905
-3.06047e-06
0.000270938
-3.03286e-06
0.000273942
-3.00381e-06
0.000276915
-2.9733e-06
0.000279857
-2.94129e-06
0.000282764
-2.90776e-06
0.000285637
-2.87269e-06
0.000288473
-2.83605e-06
0.000291271
-2.79783e-06
0.000294029
-2.758e-06
0.000296745
-2.71656e-06
0.000299419
-2.67347e-06
0.000302048
-2.62874e-06
0.00030463
-2.58236e-06
0.000307164
-2.53431e-06
0.000309649
-2.48459e-06
0.000312082
-2.43321e-06
0.000314462
-2.38016e-06
0.000316788
-2.32544e-06
0.000319057
-2.26907e-06
0.000321268
-2.21106e-06
0.000323419
-2.15141e-06
0.000325509
-2.09015e-06
0.000327537
-2.02729e-06
0.0003295
-1.96286e-06
0.000331396
-1.89689e-06
0.000333226
-1.8294e-06
0.000334986
-1.76043e-06
0.000336676
-1.69002e-06
0.000338295
-1.6182e-06
0.00033984
-1.54502e-06
0.00034131
-1.47052e-06
0.000342705
-1.39476e-06
0.000344023
-1.31779e-06
0.000345262
-1.23966e-06
0.000346423
-1.16043e-06
0.000347503
-1.08016e-06
0.000348502
-9.98925e-07
0.000349419
-9.1678e-07
0.000350252
-8.33796e-07
0.000351002
-7.50046e-07
0.000351668
-6.65603e-07
0.000352249
-5.80539e-07
0.000352743
-4.94934e-07
0.000353152
-4.08863e-07
0.000353475
-3.22406e-07
0.00035371
-2.35644e-07
0.000353859
-1.48656e-07
0.000353921
-6.15234e-08
0.000353895
2.56714e-08
0.000353782
1.12847e-07
0.000353582
1.99923e-07
0.000353295
2.86817e-07
0.000352922
3.73449e-07
0.000352462
4.59739e-07
0.000351917
5.4561e-07
0.000351286
6.30984e-07
0.00035057
7.15784e-07
0.00034977
7.99938e-07
0.000348886
8.83372e-07
0.00034792
9.66017e-07
0.000346873
1.0478e-06
0.000345744
1.12867e-06
0.000344535
1.20855e-06
0.000343248
1.28738e-06
0.000341883
1.3651e-06
0.000340441
1.44167e-06
0.000338924
1.51703e-06
0.000337333
1.59112e-06
0.000335669
1.66391e-06
0.000333934
1.73535e-06
0.000332128
1.80541e-06
0.000330254
1.87403e-06
0.000328313
1.9412e-06
0.000326306
2.00689e-06
0.000324235
2.07105e-06
0.000322102
2.13369e-06
0.000319907
2.19476e-06
0.000317653
2.25426e-06
0.00031534
2.31216e-06
0.000312972
2.36847e-06
0.000310549
2.42317e-06
0.000308072
2.47626e-06
0.000305545
2.52773e-06
0.000302967
2.57759e-06
0.000300341
2.62583e-06
0.000297669
2.67246e-06
0.000294951
2.71749e-06
0.00029219
2.76094e-06
0.000289388
2.8028e-06
0.000286545
2.8431e-06
0.000283663
2.88185e-06
0.000280744
2.91908e-06
0.000277789
2.95479e-06
0.0002748
2.98901e-06
0.000271778
3.02177e-06
0.000268725
3.05308e-06
0.000265642
3.08298e-06
0.00026253
3.11149e-06
0.000259392
3.13864e-06
0.000256227
3.16445e-06
0.000253038
3.18896e-06
0.000249826
3.2122e-06
0.000246592
3.2342e-06
0.000243337
3.25498e-06
0.000240062
3.27459e-06
0.000236769
3.29305e-06
0.000233459
3.3104e-06
0.000230132
3.32666e-06
0.00022679
3.34188e-06
0.000223434
3.35609e-06
0.000220065
3.36932e-06
0.000216683
3.3816e-06
0.00021329
3.39297e-06
0.000209887
3.40346e-06
0.000206474
3.4131e-06
0.000203052
3.42193e-06
0.000199622
3.42998e-06
0.000196185
3.43728e-06
0.000192741
3.44386e-06
0.000189291
3.44975e-06
0.000185836
3.455e-06
0.000182377
3.45961e-06
0.000178913
3.46363e-06
0.000175446
3.46709e-06
0.000171976
3.47001e-06
0.000168503
3.47243e-06
0.000165029
3.47436e-06
0.000161553
3.47585e-06
0.000158076
3.4769e-06
0.000154599
3.47756e-06
0.000151121
3.47785e-06
0.000147643
3.47779e-06
0.000144166
3.4774e-06
0.000140689
3.47671e-06
0.000137213
3.47575e-06
0.000133739
3.47453e-06
0.000130266
3.47307e-06
0.000126794
3.47141e-06
0.000123325
3.46955e-06
0.000119857
3.46752e-06
0.000116392
3.46533e-06
0.000112929
3.46301e-06
0.000109468
3.46058e-06
0.00010601
3.45804e-06
0.000102555
3.45542e-06
9.9102e-05
3.45274e-06
9.5652e-05
3.45e-06
9.22047e-05
3.44723e-06
8.87603e-05
3.44444e-06
8.53187e-05
3.44163e-06
8.18798e-05
3.43883e-06
7.84438e-05
3.43605e-06
7.50105e-05
3.4333e-06
7.15799e-05
3.43059e-06
6.8152e-05
3.42793e-06
6.47266e-05
3.42533e-06
6.13039e-05
3.4228e-06
5.78835e-05
3.42035e-06
5.44655e-05
3.41799e-06
5.10498e-05
3.41573e-06
4.76362e-05
3.41357e-06
4.42247e-05
3.41153e-06
4.08151e-05
3.4096e-06
3.74073e-05
3.4078e-06
3.40012e-05
3.40613e-06
3.05966e-05
3.40459e-06
2.71934e-05
3.4032e-06
2.37914e-05
3.40195e-06
2.03906e-05
3.40084e-06
1.69907e-05
3.39989e-06
1.35916e-05
3.3991e-06
1.01931e-05
3.39846e-06
6.79515e-06
3.39798e-06
3.39749e-06
3.39766e-06
3.39749e-06
3.26378e-06
-6.52773e-06
6.52773e-06
-6.5281e-06
9.79206e-06
-6.52882e-06
1.30569e-05
-6.52991e-06
1.63225e-05
-6.53136e-06
1.9589e-05
-6.53317e-06
2.28566e-05
-6.53533e-06
2.61254e-05
-6.53784e-06
2.93957e-05
-6.54069e-06
3.26676e-05
-6.54389e-06
3.59412e-05
-6.54741e-06
3.92167e-05
-6.55126e-06
4.24944e-05
-6.55542e-06
4.57742e-05
-6.55989e-06
4.90565e-05
-6.56466e-06
5.23413e-05
-6.56971e-06
5.56287e-05
-6.57505e-06
5.8919e-05
-6.58064e-06
6.22122e-05
-6.58648e-06
6.55084e-05
-6.59256e-06
6.88078e-05
-6.59886e-06
7.21104e-05
-6.60537e-06
7.54164e-05
-6.61207e-06
7.87259e-05
-6.61893e-06
8.20388e-05
-6.62595e-06
8.53553e-05
-6.6331e-06
8.86755e-05
-6.64036e-06
9.19993e-05
-6.64771e-06
9.53269e-05
-6.65512e-06
9.86582e-05
-6.66258e-06
0.000101993
-6.67005e-06
0.000105332
-6.67752e-06
0.000108674
-6.68495e-06
0.000112021
-6.69231e-06
0.00011537
-6.69957e-06
0.000118724
-6.70671e-06
0.000122081
-6.71368e-06
0.000125441
-6.72047e-06
0.000128805
-6.72702e-06
0.000132171
-6.7333e-06
0.000135541
-6.73928e-06
0.000138914
-6.74492e-06
0.000142289
-6.75017e-06
0.000145666
-6.75499e-06
0.000149046
-6.75935e-06
0.000152428
-6.76318e-06
0.000155811
-6.76645e-06
0.000159196
-6.76912e-06
0.000162582
-6.77111e-06
0.000165968
-6.7724e-06
0.000169355
-6.77292e-06
0.000172741
-6.77263e-06
0.000176127
-6.77145e-06
0.000179512
-6.76935e-06
0.000182896
-6.76626e-06
0.000186277
-6.76212e-06
0.000189656
-6.75686e-06
0.000193031
-6.75044e-06
0.000196403
-6.74278e-06
0.00019977
-6.73381e-06
0.000203132
-6.72348e-06
0.000206489
-6.71172e-06
0.000209838
-6.69845e-06
0.00021318
-6.68361e-06
0.000216514
-6.66714e-06
0.000219839
-6.64895e-06
0.000223154
-6.62898e-06
0.000226458
-6.60716e-06
0.000229751
-6.58341e-06
0.00023303
-6.55767e-06
0.000236295
-6.52986e-06
0.000239546
-6.4999e-06
0.00024278
-6.46774e-06
0.000245998
-6.43329e-06
0.000249196
-6.39648e-06
0.000252376
-6.35725e-06
0.000255534
-6.31553e-06
0.00025867
-6.27124e-06
0.000261783
-6.22433e-06
0.000264871
-6.17472e-06
0.000267933
-6.12235e-06
0.000270967
-6.06716e-06
0.000273973
-6.00909e-06
0.000276947
-5.94809e-06
0.00027989
-5.8841e-06
0.0002828
-5.81707e-06
0.000285674
-5.74695e-06
0.000288511
-5.67369e-06
0.000291311
-5.59727e-06
0.000294071
-5.51763e-06
0.000296789
-5.43475e-06
0.000299464
-5.34859e-06
0.000302094
-5.25914e-06
0.000304678
-5.16638e-06
0.000307214
-5.07028e-06
0.0003097
-4.97085e-06
0.000312135
-4.86808e-06
0.000314517
-4.76197e-06
0.000316844
-4.65254e-06
0.000319115
-4.53979e-06
0.000321328
-4.42374e-06
0.000323481
-4.30443e-06
0.000325572
-4.18188e-06
0.000327601
-4.05615e-06
0.000329566
-3.92726e-06
0.000331464
-3.79529e-06
0.000333295
-3.66028e-06
0.000335057
-3.5223e-06
0.000336748
-3.38143e-06
0.000338368
-3.23775e-06
0.000339914
-3.09135e-06
0.000341386
-2.94231e-06
0.000342782
-2.79073e-06
0.000344101
-2.63673e-06
0.000345342
-2.48041e-06
0.000346503
-2.32189e-06
0.000347584
-2.1613e-06
0.000348584
-1.99875e-06
0.000349502
-1.83439e-06
0.000350336
-1.66836e-06
0.000351087
-1.50078e-06
0.000351753
-1.33182e-06
0.000352334
-1.16162e-06
0.00035283
-9.90329e-07
0.000353239
-8.18108e-07
0.000353562
-6.45115e-07
0.000353797
-4.71509e-07
0.000353946
-2.97451e-07
0.000354008
-1.23106e-07
0.000353982
5.13656e-08
0.000353869
2.25799e-07
0.000353669
4.0003e-07
0.000353382
5.73899e-07
0.000353008
7.47243e-07
0.000352548
9.19902e-07
0.000352002
1.09172e-06
0.00035137
1.26254e-06
0.000350654
1.43222e-06
0.000349853
1.6006e-06
0.000348969
1.76754e-06
0.000348002
1.9329e-06
0.000346953
2.09654e-06
0.000345824
2.25833e-06
0.000344614
2.41814e-06
0.000343326
2.57586e-06
0.000341959
2.73137e-06
0.000340517
2.88456e-06
0.000338998
3.03532e-06
0.000337406
3.18356e-06
0.000335741
3.32918e-06
0.000334004
3.4721e-06
0.000332197
3.61224e-06
0.000330322
3.74953e-06
0.000328379
3.8839e-06
0.00032637
4.01529e-06
0.000324298
4.14365e-06
0.000322163
4.26893e-06
0.000319966
4.39109e-06
0.00031771
4.5101e-06
0.000315397
4.62593e-06
0.000313027
4.73856e-06
0.000310602
4.84796e-06
0.000308124
4.95414e-06
0.000305595
5.05708e-06
0.000303015
5.15679e-06
0.000300388
5.25326e-06
0.000297714
5.34652e-06
0.000294995
5.43658e-06
0.000292232
5.52345e-06
0.000289428
5.60717e-06
0.000286583
5.68775e-06
0.0002837
5.76524e-06
0.000280779
5.83966e-06
0.000277823
5.91106e-06
0.000274833
5.97949e-06
0.000271809
6.04498e-06
0.000268755
6.10758e-06
0.00026567
6.16735e-06
0.000262558
6.22434e-06
0.000259418
6.27861e-06
0.000256252
6.33021e-06
0.000253062
6.3792e-06
0.000249848
6.42564e-06
0.000246613
6.4696e-06
0.000243357
6.51114e-06
0.000240081
6.55032e-06
0.000236787
6.58721e-06
0.000233475
6.62187e-06
0.000230148
6.65437e-06
0.000226805
6.68478e-06
0.000223448
6.71316e-06
0.000220077
6.73959e-06
0.000216695
6.76412e-06
0.000213301
6.78682e-06
0.000209897
6.80777e-06
0.000206483
6.82702e-06
0.00020306
6.84465e-06
0.000199629
6.86071e-06
0.000196191
6.87527e-06
0.000192747
6.8884e-06
0.000189296
6.90016e-06
0.000185841
6.91061e-06
0.00018238
6.91982e-06
0.000178916
6.92783e-06
0.000175449
6.93472e-06
0.000171978
6.94053e-06
0.000168505
6.94533e-06
0.00016503
6.94918e-06
0.000161554
6.95212e-06
0.000158077
6.95421e-06
0.000154599
6.9555e-06
0.000151121
6.95605e-06
0.000147643
6.9559e-06
0.000144165
6.9551e-06
0.000140688
6.9537e-06
0.000137212
6.95175e-06
0.000133737
6.94929e-06
0.000130264
6.94636e-06
0.000126792
6.943e-06
0.000123323
6.93927e-06
0.000119855
6.93518e-06
0.000116389
6.9308e-06
0.000112926
6.92614e-06
0.000109466
6.92125e-06
0.000106007
6.91617e-06
0.000102552
6.91091e-06
9.90992e-05
6.90553e-06
9.56492e-05
6.90004e-06
9.22019e-05
6.89448e-06
8.87575e-05
6.88888e-06
8.53158e-05
6.88326e-06
8.1877e-05
6.87765e-06
7.8441e-05
6.87208e-06
7.50077e-05
6.86656e-06
7.15772e-05
6.86112e-06
6.81493e-05
6.85579e-06
6.47241e-05
6.85058e-06
6.13014e-05
6.84551e-06
5.78811e-05
6.84061e-06
5.44632e-05
6.83588e-06
5.10476e-05
6.83135e-06
4.76341e-05
6.82703e-06
4.42227e-05
6.82293e-06
4.08133e-05
6.81907e-06
3.74056e-05
6.81547e-06
3.39996e-05
6.81212e-06
3.05952e-05
6.80904e-06
2.71921e-05
6.80625e-06
2.37903e-05
6.80374e-06
2.03896e-05
6.80154e-06
1.69899e-05
6.79963e-06
1.35909e-05
6.79804e-06
1.01926e-05
6.79675e-06
6.79483e-06
6.79579e-06
3.39733e-06
6.79515e-06
6.79483e-06
3.26341e-06
-9.79114e-06
6.52701e-06
-9.79169e-06
9.79096e-06
-9.79278e-06
1.30555e-05
-9.79442e-06
1.63207e-05
-9.7966e-06
1.95869e-05
-9.79931e-06
2.28541e-05
-9.80256e-06
2.61226e-05
-9.80633e-06
2.93925e-05
-9.81062e-06
3.2664e-05
-9.81541e-06
3.59373e-05
-9.82071e-06
3.92126e-05
-9.82649e-06
4.24899e-05
-9.83275e-06
4.57695e-05
-9.83946e-06
4.90514e-05
-9.84663e-06
5.23359e-05
-9.85423e-06
5.56231e-05
-9.86224e-06
5.89131e-05
-9.87065e-06
6.22061e-05
-9.87943e-06
6.55021e-05
-9.88857e-06
6.88013e-05
-9.89804e-06
7.21037e-05
-9.90782e-06
7.54095e-05
-9.91789e-06
7.87188e-05
-9.92821e-06
8.20316e-05
-9.93876e-06
8.5348e-05
-9.94951e-06
8.86681e-05
-9.96042e-06
9.19919e-05
-9.97148e-06
9.53194e-05
-9.98263e-06
9.86507e-05
-9.99385e-06
0.000101986
-1.00051e-05
0.000105325
-1.00163e-05
0.000108667
-1.00275e-05
0.000112013
-1.00386e-05
0.000115363
-1.00495e-05
0.000118717
-1.00603e-05
0.000122074
-1.00708e-05
0.000125434
-1.0081e-05
0.000128798
-1.00909e-05
0.000132165
-1.01003e-05
0.000135535
-1.01094e-05
0.000138908
-1.01179e-05
0.000142284
-1.01258e-05
0.000145662
-1.01331e-05
0.000149042
-1.01397e-05
0.000152425
-1.01455e-05
0.000155809
-1.01504e-05
0.000159194
-1.01545e-05
0.00016258
-1.01576e-05
0.000165968
-1.01596e-05
0.000169355
-1.01604e-05
0.000172743
-1.016e-05
0.000176129
-1.01583e-05
0.000179515
-1.01553e-05
0.0001829
-1.01507e-05
0.000186282
-1.01446e-05
0.000189662
-1.01368e-05
0.000193039
-1.01272e-05
0.000196412
-1.01158e-05
0.000199781
-1.01024e-05
0.000203144
-1.0087e-05
0.000206502
-1.00695e-05
0.000209853
-1.00496e-05
0.000213197
-1.00275e-05
0.000216533
-1.00028e-05
0.000219859
-9.97565e-06
0.000223176
-9.94579e-06
0.000226482
-9.91314e-06
0.000229776
-9.87762e-06
0.000233058
-9.83909e-06
0.000236325
-9.79746e-06
0.000239578
-9.75262e-06
0.000242815
-9.70446e-06
0.000246034
-9.65288e-06
0.000249236
-9.59776e-06
0.000252417
-9.539e-06
0.000255578
-9.4765e-06
0.000258717
-9.41015e-06
0.000261833
-9.33986e-06
0.000264924
-9.26552e-06
0.000267988
-9.18705e-06
0.000271025
-9.10434e-06
0.000274034
-9.01731e-06
0.000277011
-8.92587e-06
0.000279957
-8.82995e-06
0.00028287
-8.72946e-06
0.000285747
-8.62434e-06
0.000288588
-8.51451e-06
0.000291391
-8.39991e-06
0.000294153
-8.2805e-06
0.000296875
-8.15621e-06
0.000299553
-8.02701e-06
0.000302187
-7.89286e-06
0.000304774
-7.75373e-06
0.000307314
-7.6096e-06
0.000309803
-7.46045e-06
0.000312241
-7.30629e-06
0.000314627
-7.14712e-06
0.000316957
-6.98295e-06
0.000319231
-6.81379e-06
0.000321447
-6.63969e-06
0.000323603
-6.46068e-06
0.000325698
-6.27682e-06
0.00032773
-6.08815e-06
0.000329698
-5.89476e-06
0.000331599
-5.69672e-06
0.000333433
-5.49412e-06
0.000335198
-5.28707e-06
0.000336892
-5.07567e-06
0.000338514
-4.86004e-06
0.000340063
-4.64031e-06
0.000341537
-4.41663e-06
0.000342936
-4.18913e-06
0.000344257
-3.95799e-06
0.0003455
-3.72337e-06
0.000346664
-3.48543e-06
0.000347747
-3.24438e-06
0.000348748
-3.0004e-06
0.000349668
-2.75369e-06
0.000350504
-2.50445e-06
0.000351256
-2.25291e-06
0.000351923
-1.99928e-06
0.000352506
-1.74378e-06
0.000353002
-1.48666e-06
0.000353412
-1.22813e-06
0.000353735
-9.68437e-07
0.000353972
-7.07826e-07
0.000354121
-4.46537e-07
0.000354182
-1.84814e-07
0.000354157
7.7097e-08
0.000354043
3.3895e-07
0.000353843
6.00501e-07
0.000353555
8.61505e-07
0.000353181
1.12172e-06
0.00035272
1.38091e-06
0.000352173
1.63883e-06
0.00035154
1.89525e-06
0.000350822
2.14995e-06
0.00035002
2.4027e-06
0.000349134
2.65328e-06
0.000348166
2.90149e-06
0.000347115
3.14712e-06
0.000345984
3.38996e-06
0.000344772
3.62984e-06
0.000343481
3.86656e-06
0.000342113
4.09996e-06
0.000340667
4.32987e-06
0.000339147
4.55613e-06
0.000337552
4.7786e-06
0.000335884
4.99714e-06
0.000334144
5.21162e-06
0.000332334
5.42192e-06
0.000330456
5.62794e-06
0.00032851
5.82957e-06
0.000326499
6.02672e-06
0.000324423
6.21932e-06
0.000322285
6.40729e-06
0.000320085
6.59058e-06
0.000317826
6.76913e-06
0.000315509
6.9429e-06
0.000313136
7.11186e-06
0.000310708
7.27598e-06
0.000308227
7.43525e-06
0.000305694
7.58966e-06
0.000303112
7.73922e-06
0.000300481
7.88392e-06
0.000297804
8.02379e-06
0.000295082
8.15885e-06
0.000292316
8.28913e-06
0.000289508
8.41466e-06
0.000286661
8.5355e-06
0.000283774
8.65168e-06
0.000280851
8.76327e-06
0.000277891
8.87032e-06
0.000274898
8.9729e-06
0.000271872
9.07107e-06
0.000268815
9.16492e-06
0.000265727
9.25451e-06
0.000262612
9.33992e-06
0.000259469
9.42125e-06
0.000256301
9.49857e-06
0.000253108
9.57198e-06
0.000249892
9.64157e-06
0.000246654
9.70743e-06
0.000243396
9.76966e-06
0.000240118
9.82835e-06
0.000236821
9.8836e-06
0.000233508
9.93551e-06
0.000230178
9.98418e-06
0.000226833
1.00297e-05
0.000223474
1.00722e-05
0.000220102
1.01117e-05
0.000216717
1.01485e-05
0.000213322
1.01824e-05
0.000209916
1.02138e-05
0.0002065
1.02426e-05
0.000203076
1.02689e-05
0.000199644
1.02929e-05
0.000196204
1.03147e-05
0.000192758
1.03343e-05
0.000189307
1.03519e-05
0.00018585
1.03675e-05
0.000182388
1.03812e-05
0.000178923
1.03932e-05
0.000175454
1.04034e-05
0.000171983
1.04121e-05
0.000168509
1.04192e-05
0.000165033
1.04249e-05
0.000161556
1.04292e-05
0.000158078
1.04323e-05
0.000154599
1.04342e-05
0.000151121
1.04349e-05
0.000147642
1.04347e-05
0.000144164
1.04334e-05
0.000140686
1.04312e-05
0.000137209
1.04283e-05
0.000133734
1.04245e-05
0.000130261
1.04201e-05
0.000126789
1.0415e-05
0.000123318
1.04093e-05
0.00011985
1.04032e-05
0.000116385
1.03965e-05
0.000112921
1.03895e-05
0.000109461
1.03821e-05
0.000106002
1.03745e-05
0.000102547
1.03665e-05
9.90937e-05
1.03584e-05
9.56436e-05
1.03502e-05
9.21963e-05
1.03418e-05
8.87519e-05
1.03333e-05
8.53102e-05
1.03249e-05
8.18715e-05
1.03164e-05
7.84355e-05
1.0308e-05
7.50023e-05
1.02997e-05
7.15719e-05
1.02916e-05
6.81441e-05
1.02835e-05
6.4719e-05
1.02757e-05
6.12965e-05
1.02681e-05
5.78764e-05
1.02607e-05
5.44587e-05
1.02536e-05
5.10433e-05
1.02468e-05
4.763e-05
1.02403e-05
4.42189e-05
1.02341e-05
4.08097e-05
1.02283e-05
3.74023e-05
1.02229e-05
3.39965e-05
1.02178e-05
3.05924e-05
1.02132e-05
2.71896e-05
1.0209e-05
2.37881e-05
1.02052e-05
2.03877e-05
1.02019e-05
1.69883e-05
1.01991e-05
1.35897e-05
1.01967e-05
1.01917e-05
1.01947e-05
6.79418e-06
1.01933e-05
3.39701e-06
1.01923e-05
1.01918e-05
3.26286e-06
-1.3054e-05
6.52591e-06
-1.30547e-05
9.78932e-06
-1.30562e-05
1.30533e-05
-1.30584e-05
1.6318e-05
-1.30613e-05
1.95836e-05
-1.30649e-05
2.28503e-05
-1.30693e-05
2.61183e-05
-1.30743e-05
2.93877e-05
-1.308e-05
3.26587e-05
-1.30864e-05
3.59315e-05
-1.30935e-05
3.92063e-05
-1.31012e-05
4.24831e-05
-1.31096e-05
4.57623e-05
-1.31186e-05
4.90438e-05
-1.31282e-05
5.23279e-05
-1.31383e-05
5.56147e-05
-1.3149e-05
5.89043e-05
-1.31603e-05
6.21969e-05
-1.3172e-05
6.54926e-05
-1.31842e-05
6.87915e-05
-1.31969e-05
7.20936e-05
-1.321e-05
7.53992e-05
-1.32234e-05
7.87082e-05
-1.32373e-05
8.20208e-05
-1.32514e-05
8.53371e-05
-1.32657e-05
8.8657e-05
-1.32804e-05
9.19807e-05
-1.32951e-05
9.53081e-05
-1.33101e-05
9.86394e-05
-1.33251e-05
0.000101974
-1.33401e-05
0.000105313
-1.33552e-05
0.000108656
-1.33702e-05
0.000112002
-1.3385e-05
0.000115352
-1.33997e-05
0.000118706
-1.34141e-05
0.000122064
-1.34281e-05
0.000125425
-1.34418e-05
0.000128789
-1.34551e-05
0.000132156
-1.34678e-05
0.000135527
-1.34799e-05
0.0001389
-1.34914e-05
0.000142277
-1.35021e-05
0.000145655
-1.35119e-05
0.000149036
-1.35208e-05
0.00015242
-1.35286e-05
0.000155805
-1.35354e-05
0.000159191
-1.35409e-05
0.000162578
-1.35451e-05
0.000165967
-1.35479e-05
0.000169355
-1.35491e-05
0.000172744
-1.35488e-05
0.000176132
-1.35466e-05
0.00017952
-1.35427e-05
0.000182906
-1.35367e-05
0.00018629
-1.35287e-05
0.000189672
-1.35184e-05
0.00019305
-1.35058e-05
0.000196425
-1.34908e-05
0.000199796
-1.34731e-05
0.000203162
-1.34527e-05
0.000206522
-1.34294e-05
0.000209875
-1.34032e-05
0.000213221
-1.33738e-05
0.00021656
-1.33411e-05
0.000219889
-1.3305e-05
0.000223209
-1.32654e-05
0.000226517
-1.3222e-05
0.000229815
-1.31748e-05
0.000233099
-1.31236e-05
0.00023637
-1.30683e-05
0.000239626
-1.30087e-05
0.000242866
-1.29446e-05
0.000246089
-1.2876e-05
0.000249294
-1.28027e-05
0.00025248
-1.27245e-05
0.000255645
-1.26413e-05
0.000258787
-1.2553e-05
0.000261907
-1.24594e-05
0.000265002
-1.23605e-05
0.000268071
-1.2256e-05
0.000271112
-1.21458e-05
0.000274125
-1.20299e-05
0.000277107
-1.19081e-05
0.000280058
-1.17804e-05
0.000282975
-1.16465e-05
0.000285857
-1.15064e-05
0.000288702
-1.13601e-05
0.00029151
-1.12074e-05
0.000294278
-1.10482e-05
0.000297004
-1.08826e-05
0.000299687
-1.07104e-05
0.000302326
-1.05315e-05
0.000304918
-1.03461e-05
0.000307463
-1.01539e-05
0.000309957
-9.95507e-06
0.000312401
-9.74952e-06
0.000314791
-9.53727e-06
0.000317126
-9.31834e-06
0.000319405
-9.09275e-06
0.000321626
-8.86055e-06
0.000323787
-8.6218e-06
0.000325887
-8.37655e-06
0.000327923
-8.12489e-06
0.000329896
-7.86691e-06
0.000331802
-7.60271e-06
0.00033364
-7.33243e-06
0.000335409
-7.05618e-06
0.000337108
-6.77413e-06
0.000338734
-6.48642e-06
0.000340287
-6.19323e-06
0.000341765
-5.89476e-06
0.000343167
-5.59119e-06
0.000344492
-5.28274e-06
0.000345738
-4.96963e-06
0.000346905
-4.6521e-06
0.000347991
-4.33039e-06
0.000348995
-4.00477e-06
0.000349917
-3.6755e-06
0.000350755
-3.34286e-06
0.000351509
-3.00713e-06
0.000352179
-2.6686e-06
0.000352763
-2.32759e-06
0.00035326
-1.98438e-06
0.000353672
-1.63931e-06
0.000353996
-1.29268e-06
0.000354233
-9.44823e-07
0.000354382
-5.96057e-07
0.000354444
-2.46712e-07
0.000354418
1.02884e-07
0.000354305
4.52403e-07
0.000354104
8.01516e-07
0.000353816
1.1499e-06
0.00035344
1.49722e-06
0.000352978
1.84317e-06
0.000352429
2.18743e-06
0.000351795
2.52968e-06
0.000351075
2.86963e-06
0.000350271
3.20697e-06
0.000349383
3.54141e-06
0.000348412
3.87267e-06
0.000347358
4.20047e-06
0.000346224
4.52456e-06
0.000345009
4.84468e-06
0.000343715
5.16058e-06
0.000342343
5.47204e-06
0.000340894
5.77883e-06
0.000339369
6.08074e-06
0.00033777
6.37758e-06
0.000336098
6.66917e-06
0.000334354
6.95532e-06
0.00033254
7.2359e-06
0.000330658
7.51074e-06
0.000328707
7.77971e-06
0.000326691
8.04271e-06
0.000324611
8.29962e-06
0.000322468
8.55034e-06
0.000320264
8.79481e-06
0.000318
9.03294e-06
0.000315678
9.26469e-06
0.0003133
9.49e-06
0.000310867
9.70885e-06
0.000308381
9.92123e-06
0.000305844
1.01271e-05
0.000303257
1.03265e-05
0.000300621
1.05194e-05
0.000297939
1.07059e-05
0.000295212
1.08859e-05
0.000292442
1.10595e-05
0.000289629
1.12269e-05
0.000286777
1.13879e-05
0.000283886
1.15427e-05
0.000280958
1.16914e-05
0.000277994
1.18341e-05
0.000274996
1.19707e-05
0.000271966
1.21015e-05
0.000268904
1.22265e-05
0.000265813
1.23458e-05
0.000262693
1.24596e-05
0.000259547
1.25679e-05
0.000256374
1.26709e-05
0.000253178
1.27686e-05
0.000249958
1.28612e-05
0.000246717
1.29489e-05
0.000243455
1.30317e-05
0.000240173
1.31098e-05
0.000236873
1.31833e-05
0.000233556
1.32524e-05
0.000230224
1.33171e-05
0.000226876
1.33777e-05
0.000223514
1.34342e-05
0.000220139
1.34867e-05
0.000216751
1.35355e-05
0.000213353
1.35807e-05
0.000209945
1.36223e-05
0.000206527
1.36606e-05
0.0002031
1.36955e-05
0.000199666
1.37274e-05
0.000196224
1.37563e-05
0.000192776
1.37823e-05
0.000189322
1.38056e-05
0.000185864
1.38262e-05
0.0001824
1.38444e-05
0.000178933
1.38602e-05
0.000175463
1.38737e-05
0.00017199
1.38851e-05
0.000168515
1.38945e-05
0.000165038
1.3902e-05
0.000161559
1.39076e-05
0.00015808
1.39116e-05
0.0001546
1.3914e-05
0.00015112
1.39149e-05
0.000147641
1.39144e-05
0.000144161
1.39126e-05
0.000140683
1.39096e-05
0.000137206
1.39055e-05
0.00013373
1.39004e-05
0.000130255
1.38944e-05
0.000126783
1.38875e-05
0.000123312
1.38799e-05
0.000119844
1.38716e-05
0.000116378
1.38627e-05
0.000112914
1.38532e-05
0.000109453
1.38433e-05
0.000105994
1.3833e-05
0.000102539
1.38224e-05
9.90855e-05
1.38115e-05
9.56353e-05
1.38004e-05
9.21879e-05
1.37891e-05
8.87434e-05
1.37778e-05
8.53018e-05
1.37665e-05
8.18631e-05
1.37552e-05
7.84272e-05
1.37439e-05
7.49941e-05
1.37328e-05
7.15639e-05
1.37218e-05
6.81363e-05
1.37111e-05
6.47114e-05
1.37006e-05
6.12891e-05
1.36904e-05
5.78693e-05
1.36805e-05
5.44519e-05
1.3671e-05
5.10368e-05
1.36619e-05
4.76239e-05
1.36532e-05
4.42131e-05
1.36449e-05
4.08042e-05
1.36371e-05
3.73972e-05
1.36299e-05
3.39919e-05
1.36231e-05
3.05882e-05
1.3617e-05
2.71858e-05
1.36113e-05
2.37848e-05
1.36063e-05
2.03849e-05
1.36019e-05
1.69859e-05
1.3598e-05
1.35877e-05
1.35948e-05
1.01902e-05
1.35922e-05
6.79321e-06
1.35903e-05
3.39653e-06
1.3589e-05
1.35884e-05
3.26213e-06
-1.63161e-05
6.52444e-06
-1.63171e-05
9.78713e-06
-1.63189e-05
1.30504e-05
-1.63216e-05
1.63144e-05
-1.63253e-05
1.95793e-05
-1.63298e-05
2.28453e-05
-1.63353e-05
2.61125e-05
-1.63416e-05
2.93813e-05
-1.63488e-05
3.26516e-05
-1.63568e-05
3.59238e-05
-1.63657e-05
3.91979e-05
-1.63754e-05
4.24741e-05
-1.63859e-05
4.57527e-05
-1.63971e-05
4.90336e-05
-1.64091e-05
5.23172e-05
-1.64219e-05
5.56034e-05
-1.64353e-05
5.88926e-05
-1.64494e-05
6.21847e-05
-1.64641e-05
6.54799e-05
-1.64795e-05
6.87784e-05
-1.64954e-05
7.20801e-05
-1.65118e-05
7.53854e-05
-1.65287e-05
7.86941e-05
-1.6546e-05
8.20064e-05
-1.65637e-05
8.53224e-05
-1.65818e-05
8.86422e-05
-1.66001e-05
9.19657e-05
-1.66187e-05
9.52931e-05
-1.66374e-05
9.86243e-05
-1.66563e-05
0.000101959
-1.66752e-05
0.000105298
-1.66941e-05
0.000108641
-1.67129e-05
0.000111988
-1.67316e-05
0.000115338
-1.675e-05
0.000118692
-1.67682e-05
0.00012205
-1.67859e-05
0.000125411
-1.68032e-05
0.000128776
-1.68199e-05
0.000132144
-1.68359e-05
0.000135515
-1.68512e-05
0.00013889
-1.68657e-05
0.000142267
-1.68792e-05
0.000145646
-1.68916e-05
0.000149029
-1.69029e-05
0.000152413
-1.69129e-05
0.000155799
-1.69215e-05
0.000159187
-1.69286e-05
0.000162576
-1.6934e-05
0.000165965
-1.69377e-05
0.000169356
-1.69395e-05
0.000172746
-1.69392e-05
0.000176136
-1.69368e-05
0.000179526
-1.6932e-05
0.000182914
-1.69248e-05
0.0001863
-1.6915e-05
0.000189684
-1.69024e-05
0.000193065
-1.68869e-05
0.000196443
-1.68683e-05
0.000199816
-1.68465e-05
0.000203185
-1.68212e-05
0.000206548
-1.67924e-05
0.000209904
-1.67599e-05
0.000213254
-1.67234e-05
0.000216596
-1.66828e-05
0.000219929
-1.6638e-05
0.000223252
-1.65887e-05
0.000226565
-1.65347e-05
0.000229866
-1.6476e-05
0.000233154
-1.64123e-05
0.00023643
-1.63434e-05
0.00023969
-1.62691e-05
0.000242935
-1.61893e-05
0.000246163
-1.61038e-05
0.000249372
-1.60124e-05
0.000252563
-1.5915e-05
0.000255733
-1.58113e-05
0.000258881
-1.57011e-05
0.000262006
-1.55844e-05
0.000265106
-1.54609e-05
0.000268181
-1.53306e-05
0.000271228
-1.51931e-05
0.000274247
-1.50484e-05
0.000277235
-1.48964e-05
0.000280191
-1.47369e-05
0.000283115
-1.45697e-05
0.000286003
-1.43948e-05
0.000288855
-1.4212e-05
0.000291669
-1.40213e-05
0.000294443
-1.38225e-05
0.000297176
-1.36155e-05
0.000299866
-1.34004e-05
0.000302511
-1.31769e-05
0.00030511
-1.29451e-05
0.000307661
-1.27049e-05
0.000310163
-1.24564e-05
0.000312613
-1.21994e-05
0.00031501
-1.19341e-05
0.000317352
-1.16604e-05
0.000319637
-1.13783e-05
0.000321865
-1.1088e-05
0.000324032
-1.07894e-05
0.000326138
-1.04827e-05
0.000328181
-1.01679e-05
0.00033016
-9.84527e-06
0.000332072
-9.5148e-06
0.000333916
-9.17669e-06
0.000335691
-8.83111e-06
0.000337395
-8.47824e-06
0.000339027
-8.11828e-06
0.000340585
-7.75145e-06
0.000342068
-7.37798e-06
0.000343475
-6.99812e-06
0.000344805
-6.61214e-06
0.000346055
-6.22031e-06
0.000347226
-5.82294e-06
0.000348316
-5.42033e-06
0.000349324
-5.0128e-06
0.000350249
-4.60069e-06
0.000351091
-4.18436e-06
0.000351848
-3.76414e-06
0.00035252
-3.34042e-06
0.000353106
-2.91357e-06
0.000353605
-2.48399e-06
0.000354018
-2.05205e-06
0.000354344
-1.61816e-06
0.000354582
-1.18273e-06
0.000354732
-7.46159e-07
0.000354794
-3.08863e-07
0.000354768
1.28748e-07
0.000354654
5.6626e-07
0.000354452
1.00326e-06
0.000354163
1.43935e-06
0.000353786
1.8741e-06
0.000353322
2.30713e-06
0.000352771
2.73803e-06
0.000352135
3.16642e-06
0.000351412
3.59191e-06
0.000350605
4.01413e-06
0.000349714
4.43271e-06
0.000348739
4.84729e-06
0.000347682
5.25755e-06
0.000346544
5.66313e-06
0.000345325
6.06374e-06
0.000344026
6.45905e-06
0.000342649
6.84878e-06
0.000341196
7.23266e-06
0.000339666
7.61042e-06
0.000338062
7.98181e-06
0.000336384
8.34661e-06
0.000334635
8.70461e-06
0.000332815
9.0556e-06
0.000330927
9.3994e-06
0.00032897
9.73584e-06
0.000326948
1.00648e-05
0.000324862
1.03861e-05
0.000322713
1.06997e-05
0.000320502
1.10054e-05
0.000318232
1.13031e-05
0.000315904
1.15929e-05
0.000313519
1.18746e-05
0.00031108
1.21482e-05
0.000308587
1.24137e-05
0.000306043
1.2671e-05
0.00030345
1.29203e-05
0.000300808
1.31614e-05
0.000298119
1.33944e-05
0.000295386
1.36193e-05
0.000292609
1.38363e-05
0.00028979
1.40453e-05
0.000286932
1.42465e-05
0.000284035
1.44399e-05
0.0002811
1.46256e-05
0.000278131
1.48038e-05
0.000275127