/*--------------------------------*- C++ -*----------------------------------*\
| =========                 |                                                 |
| \\      /  F ield         | OpenFOAM: The Open Source CFD Toolbox           |
|  \\    /   O peration     | Version:  v2012                                 |
|   \\  /    A nd           | Website:  www.openfoam.com                      |
|    \\/     M anipulation  |                                                 |
\*---------------------------------------------------------------------------*/
FoamFile
{
    version     2.0;
    format      ascii;
    class       volScalarField;
    location    "17.5";
    object      W;
}
// * * * * * * * * * * * * * * * * * * * * * * * * * * * * * * * * * * * * * //

dimensions      [0 0 -1 0 0 0 0];


internalField   nonuniform List<scalar> 
65536
(
8.31821e-14
8.32624e-14
8.45346e-14
8.69975e-14
9.06671e-14
9.5575e-14
1.01769e-13
1.09312e-13
1.18284e-13
1.2878e-13
1.40914e-13
1.54818e-13
1.70641e-13
1.88556e-13
2.08755e-13
2.31454e-13
2.56896e-13
2.85351e-13
3.17116e-13
3.52523e-13
3.91938e-13
4.35762e-13
4.84439e-13
5.38457e-13
5.98349e-13
6.647e-13
7.38152e-13
8.19405e-13
9.09222e-13
1.00844e-12
1.11796e-12
1.23877e-12
1.37195e-12
1.51865e-12
1.68015e-12
1.85779e-12
2.05307e-12
2.26757e-12
2.503e-12
2.76123e-12
3.04423e-12
3.35414e-12
3.69325e-12
4.06402e-12
4.46905e-12
4.91115e-12
5.39328e-12
5.91862e-12
6.49051e-12
7.11252e-12
7.7884e-12
8.52213e-12
9.31787e-12
1.018e-11
1.11132e-11
1.21221e-11
1.32118e-11
1.43875e-11
1.56547e-11
1.70187e-11
1.84855e-11
2.00608e-11
2.17507e-11
2.35613e-11
2.54988e-11
2.75694e-11
2.97794e-11
3.2135e-11
3.46425e-11
3.73078e-11
4.01369e-11
4.31356e-11
4.63091e-11
4.96628e-11
5.32011e-11
5.69285e-11
6.08485e-11
6.49644e-11
6.92785e-11
7.37925e-11
7.85072e-11
8.34226e-11
8.85377e-11
9.38502e-11
9.9357e-11
1.05054e-10
1.10934e-10
1.16992e-10
1.23219e-10
1.29605e-10
1.36138e-10
1.42808e-10
1.49598e-10
1.56495e-10
1.63481e-10
1.70538e-10
1.77647e-10
1.84788e-10
1.91937e-10
1.99073e-10
2.06172e-10
2.13209e-10
2.2016e-10
2.26998e-10
2.33698e-10
2.40234e-10
2.4658e-10
2.52711e-10
2.58601e-10
2.64226e-10
2.69562e-10
2.74588e-10
2.79281e-10
2.83623e-10
2.87595e-10
2.91182e-10
2.94368e-10
2.97142e-10
2.99494e-10
3.01416e-10
3.02902e-10
3.0395e-10
3.04559e-10
3.0473e-10
3.04467e-10
3.03777e-10
3.02667e-10
3.01149e-10
2.99233e-10
2.96934e-10
2.94268e-10
2.91251e-10
2.87903e-10
2.84241e-10
2.80286e-10
2.76059e-10
2.71581e-10
2.66873e-10
2.61958e-10
2.56856e-10
2.51588e-10
2.46177e-10
2.4064e-10
2.34999e-10
2.29272e-10
2.23475e-10
2.17628e-10
2.11744e-10
2.05838e-10
1.99924e-10
1.94014e-10
1.8812e-10
1.8225e-10
1.76415e-10
1.7062e-10
1.64874e-10
1.59181e-10
1.53547e-10
1.47975e-10
1.42468e-10
1.3703e-10
1.3166e-10
1.26362e-10
1.21136e-10
1.15984e-10
1.10904e-10
1.059e-10
1.0097e-10
9.61165e-11
9.13406e-11
8.66437e-11
8.20281e-11
7.74964e-11
7.30519e-11
6.86983e-11
6.44401e-11
6.02825e-11
5.62309e-11
5.22917e-11
4.84714e-11
4.47769e-11
4.12152e-11
3.77937e-11
3.45191e-11
3.13984e-11
2.84377e-11
2.56427e-11
2.3018e-11
2.05676e-11
1.82939e-11
1.61985e-11
1.42813e-11
1.25412e-11
1.09753e-11
9.5796e-12
8.34858e-12
7.27553e-12
6.35248e-12
5.57045e-12
4.91944e-12
4.38871e-12
3.96682e-12
3.64186e-12
3.40158e-12
3.23357e-12
3.12546e-12
3.06507e-12
3.04063e-12
3.04095e-12
3.05561e-12
3.07515e-12
3.09126e-12
3.09687e-12
3.08631e-12
3.05537e-12
3.00131e-12
2.92285e-12
2.82009e-12
2.69436e-12
2.54809e-12
2.38451e-12
2.20752e-12
2.02135e-12
1.83036e-12
1.63882e-12
1.45069e-12
1.26946e-12
1.09806e-12
9.3878e-13
7.93224e-13
6.62359e-13
5.46548e-13
4.4563e-13
3.59009e-13
2.85758e-13
2.24713e-13
1.74572e-13
1.33971e-13
1.01558e-13
7.60445e-14
5.62399e-14
4.10794e-14
2.96335e-14
2.11106e-14
1.48509e-14
1.03163e-14
7.07602e-15
4.79235e-15
3.20501e-15
2.11715e-15
1.38257e-15
8.94766e-16
5.77757e-16
3.78839e-16
2.62983e-16
2.08811e-16
1.23488e-13
1.23614e-13
1.2552e-13
1.29203e-13
1.34687e-13
1.4202e-13
1.51274e-13
1.62545e-13
1.75953e-13
1.91643e-13
2.09786e-13
2.3058e-13
2.54254e-13
2.81066e-13
3.11308e-13
3.45308e-13
3.83433e-13
4.26089e-13
4.73731e-13
5.26859e-13
5.86029e-13
6.5185e-13
7.24996e-13
8.06206e-13
8.96294e-13
9.96148e-13
1.10674e-12
1.22915e-12
1.36452e-12
1.51414e-12
1.67938e-12
1.86174e-12
2.06287e-12
2.28454e-12
2.52868e-12
2.79736e-12
3.09285e-12
3.41757e-12
3.77414e-12
4.16541e-12
4.59439e-12
5.06437e-12
5.57882e-12
6.14151e-12
6.75642e-12
7.42782e-12
8.16026e-12
8.95856e-12
9.82784e-12
1.07735e-11
1.18013e-11
1.29173e-11
1.41278e-11
1.54394e-11
1.68592e-11
1.83943e-11
2.00524e-11
2.18412e-11
2.37689e-11
2.58438e-11
2.80745e-11
3.04698e-11
3.30384e-11
3.57896e-11
3.87323e-11
4.18757e-11
4.52289e-11
4.88008e-11
5.26002e-11
5.66357e-11
6.09156e-11
6.54476e-11
7.0239e-11
7.52964e-11
8.06259e-11
8.62325e-11
9.21204e-11
9.82927e-11
1.04751e-10
1.11497e-10
1.18529e-10
1.25845e-10
1.33441e-10
1.41311e-10
1.49448e-10
1.57842e-10
1.66482e-10
1.75355e-10
1.84444e-10
1.93732e-10
2.03199e-10
2.12823e-10
2.2258e-10
2.32443e-10
2.42384e-10
2.52373e-10
2.62378e-10
2.72366e-10
2.823e-10
2.92146e-10
3.01865e-10
3.1142e-10
3.20772e-10
3.29883e-10
3.38714e-10
3.47226e-10
3.55383e-10
3.63147e-10
3.70484e-10
3.7736e-10
3.83744e-10
3.89607e-10
3.94922e-10
3.99666e-10
4.03817e-10
4.07358e-10
4.10276e-10
4.12559e-10
4.14201e-10
4.15198e-10
4.1555e-10
4.15262e-10
4.14342e-10
4.12799e-10
4.10649e-10
4.07909e-10
4.04599e-10
4.00743e-10
3.96365e-10
3.91494e-10
3.86158e-10
3.8039e-10
3.7422e-10
3.67683e-10
3.60811e-10
3.53638e-10
3.462e-10
3.38528e-10
3.30656e-10
3.22617e-10
3.14441e-10
3.06158e-10
2.97797e-10
2.89386e-10
2.80949e-10
2.72509e-10
2.6409e-10
2.5571e-10
2.47388e-10
2.39139e-10
2.30978e-10
2.22918e-10
2.14969e-10
2.0714e-10
1.99439e-10
1.91871e-10
1.84441e-10
1.77153e-10
1.70007e-10
1.63007e-10
1.56151e-10
1.4944e-10
1.42872e-10
1.36446e-10
1.3016e-10
1.24012e-10
1.18001e-10
1.12125e-10
1.06381e-10
1.0077e-10
9.52897e-11
8.99403e-11
8.47222e-11
7.96364e-11
7.46847e-11
6.98696e-11
6.51941e-11
6.06621e-11
5.62779e-11
5.20464e-11
4.7973e-11
4.4063e-11
4.03221e-11
3.67558e-11
3.33693e-11
3.01675e-11
2.71546e-11
2.43338e-11
2.17077e-11
1.92774e-11
1.70431e-11
1.50036e-11
1.31561e-11
1.14969e-11
1.00205e-11
8.72033e-12
7.58848e-12
6.61592e-12
5.79261e-12
5.1076e-12
4.5492e-12
4.10513e-12
3.76267e-12
3.50882e-12
3.33052e-12
3.21476e-12
3.14882e-12
3.12042e-12
3.11796e-12
3.13062e-12
3.14864e-12
3.16343e-12
3.16771e-12
3.15564e-12
3.12291e-12
3.06668e-12
2.98566e-12
2.87995e-12
2.75089e-12
2.60096e-12
2.43348e-12
2.25241e-12
2.06206e-12
1.8669e-12
1.67125e-12
1.47916e-12
1.29418e-12
1.11928e-12
9.56788e-13
8.08332e-13
6.74889e-13
5.56821e-13
4.53953e-13
3.65675e-13
2.91033e-13
2.28838e-13
1.77759e-13
1.36404e-13
1.03394e-13
7.74127e-14
5.72473e-14
4.18121e-14
3.01599e-14
2.14841e-14
1.51127e-14
1.04974e-14
7.19986e-15
4.87595e-15
3.26074e-15
2.15385e-15
1.40647e-15
9.10188e-16
5.87687e-16
3.85331e-16
2.67477e-16
2.12378e-16
2.1921e-13
2.19452e-13
2.22873e-13
2.29468e-13
2.39282e-13
2.52402e-13
2.68959e-13
2.89126e-13
3.13121e-13
3.41206e-13
3.73693e-13
4.1094e-13
4.53361e-13
5.01426e-13
5.55665e-13
6.16672e-13
6.85114e-13
7.61732e-13
8.47349e-13
9.42879e-13
1.04933e-12
1.16781e-12
1.29956e-12
1.44592e-12
1.60837e-12
1.78854e-12
1.98821e-12
2.20933e-12
2.45403e-12
2.72463e-12
3.02367e-12
3.3539e-12
3.71832e-12
4.12019e-12
4.56304e-12
5.0507e-12
5.5873e-12
6.17732e-12
6.82557e-12
7.53725e-12
8.31794e-12
9.17365e-12
1.01108e-11
1.11363e-11
1.22574e-11
1.34821e-11
1.48186e-11
1.62759e-11
1.78632e-11
1.95907e-11
2.14687e-11
2.35083e-11
2.57211e-11
2.81192e-11
3.07154e-11
3.35229e-11
3.65554e-11
3.98272e-11
4.33528e-11
4.71473e-11
5.12261e-11
5.5605e-11
6.02997e-11
6.53263e-11
7.07009e-11
7.64395e-11
8.25577e-11
8.90712e-11
9.59948e-11
1.03343e-10
1.11129e-10
1.19367e-10
1.28066e-10
1.37238e-10
1.46891e-10
1.57032e-10
1.67665e-10
1.78794e-10
1.90419e-10
2.02536e-10
2.15142e-10
2.28227e-10
2.4178e-10
2.55786e-10
2.70226e-10
2.85079e-10
3.00317e-10
3.15911e-10
3.31826e-10
3.48024e-10
3.64464e-10
3.81099e-10
3.9788e-10
4.14752e-10
4.3166e-10
4.48543e-10
4.65339e-10
4.81982e-10
4.98405e-10
5.1454e-10
5.30316e-10
5.45662e-10
5.60509e-10
5.74787e-10
5.88427e-10
6.01362e-10
6.13528e-10
6.24863e-10
6.35311e-10
6.44817e-10
6.53333e-10
6.60817e-10
6.6723e-10
6.72542e-10
6.76727e-10
6.79768e-10
6.81653e-10
6.82378e-10
6.81946e-10
6.80368e-10
6.77659e-10
6.73844e-10
6.68951e-10
6.63018e-10
6.56085e-10
6.48198e-10
6.39408e-10
6.29771e-10
6.19344e-10
6.0819e-10
5.9637e-10
5.83949e-10
5.70994e-10
5.5757e-10
5.43742e-10
5.29575e-10
5.15133e-10
5.00476e-10
4.85663e-10
4.70752e-10
4.55796e-10
4.40844e-10
4.25944e-10
4.11138e-10
3.96466e-10
3.81964e-10
3.67663e-10
3.53592e-10
3.39775e-10
3.26232e-10
3.12982e-10
3.00038e-10
2.87412e-10
2.75111e-10
2.63141e-10
2.51505e-10
2.40204e-10
2.29237e-10
2.18601e-10
2.08291e-10
1.98303e-10
1.88629e-10
1.79263e-10
1.70196e-10
1.61421e-10
1.52928e-10
1.44711e-10
1.3676e-10
1.29068e-10
1.21628e-10
1.14434e-10
1.07479e-10
1.00759e-10
9.42701e-11
8.80089e-11
8.19734e-11
7.61624e-11
7.05756e-11
6.52133e-11
6.00769e-11
5.51678e-11
5.04883e-11
4.60406e-11
4.18269e-11
3.78496e-11
3.41102e-11
3.06102e-11
2.73498e-11
2.43287e-11
2.15453e-11
1.8997e-11
1.66797e-11
1.45882e-11
1.27159e-11
1.10548e-11
9.59584e-12
8.32865e-12
7.24187e-12
6.32318e-12
5.5595e-12
4.93708e-12
4.44171e-12
4.05887e-12
3.77388e-12
3.57211e-12
3.43914e-12
3.36093e-12
3.32405e-12
3.31584e-12
3.32458e-12
3.33971e-12
3.35199e-12
3.35362e-12
3.33833e-12
3.30151e-12
3.24015e-12
3.15286e-12
3.03973e-12
2.90219e-12
2.74285e-12
2.56521e-12
2.37344e-12
2.17209e-12
1.96585e-12
1.75927e-12
1.55658e-12
1.36151e-12
1.17719e-12
1.00602e-12
8.49704e-13
7.09257e-13
5.85038e-13
4.76851e-13
3.84037e-13
3.05584e-13
2.40233e-13
1.86575e-13
1.43144e-13
1.08484e-13
8.12102e-14
6.00461e-14
4.38497e-14
3.16252e-14
2.25248e-14
1.58427e-14
1.10032e-14
7.54584e-15
5.10969e-15
3.41669e-15
2.25663e-15
1.47344e-15
9.5344e-16
6.15556e-16
4.03567e-16
2.80112e-16
2.22398e-16
4.07486e-13
4.07973e-13
4.14403e-13
4.2677e-13
4.4516e-13
4.69738e-13
5.00753e-13
5.38535e-13
5.83495e-13
6.36133e-13
6.97037e-13
7.6689e-13
8.46476e-13
9.36686e-13
1.03853e-12
1.15313e-12
1.28176e-12
1.42582e-12
1.58689e-12
1.76669e-12
1.96717e-12
2.19042e-12
2.4388e-12
2.71488e-12
3.02149e-12
3.36174e-12
3.73903e-12
4.15708e-12
4.61998e-12
5.13217e-12
5.69851e-12
6.32428e-12
7.01522e-12
7.7776e-12
8.61819e-12
9.54434e-12
1.0564e-11
1.16857e-11
1.29189e-11
1.42733e-11
1.57599e-11
1.73901e-11
1.91763e-11
2.11318e-11
2.32706e-11
2.56079e-11
2.81598e-11
3.09432e-11
3.39762e-11
3.7278e-11
4.08687e-11
4.47696e-11
4.90027e-11
5.35916e-11
5.85603e-11
6.39343e-11
6.97398e-11
7.60037e-11
8.2754e-11
9.00192e-11
9.78284e-11
1.06211e-10
1.15198e-10
1.24817e-10
1.351e-10
1.46076e-10
1.57774e-10
1.70222e-10
1.83447e-10
1.97474e-10
2.12328e-10
2.28031e-10
2.44601e-10
2.62054e-10
2.80404e-10
2.9966e-10
3.19826e-10
3.40904e-10
3.62887e-10
3.85767e-10
4.09526e-10
4.34142e-10
4.59587e-10
4.85825e-10
5.12811e-10
5.40495e-10
5.6882e-10
5.97718e-10
6.27116e-10
6.56932e-10
6.87077e-10
7.17454e-10
7.47961e-10
7.78487e-10
8.08915e-10
8.39125e-10
8.68991e-10
8.98381e-10
9.27165e-10
9.55206e-10
9.8237e-10
1.00852e-09
1.03353e-09
1.05726e-09
1.07958e-09
1.10038e-09
1.11954e-09
1.13696e-09
1.15253e-09
1.16617e-09
1.1778e-09
1.18736e-09
1.19479e-09
1.20005e-09
1.20312e-09
1.20398e-09
1.20265e-09
1.19912e-09
1.19345e-09
1.18566e-09
1.17582e-09
1.164e-09
1.15027e-09
1.13472e-09
1.11747e-09
1.09861e-09
1.07827e-09
1.05656e-09
1.03362e-09
1.00956e-09
9.84534e-10
9.5866e-10
9.32075e-10
9.04908e-10
8.77286e-10
8.49333e-10
8.21167e-10
7.92902e-10
7.64644e-10
7.36493e-10
7.08542e-10
6.80877e-10
6.53575e-10
6.26706e-10
6.00331e-10
5.74506e-10
5.49275e-10
5.24678e-10
5.00748e-10
4.77509e-10
4.5498e-10
4.33175e-10
4.121e-10
3.91758e-10
3.72147e-10
3.53262e-10
3.35093e-10
3.17628e-10
3.00851e-10
2.84745e-10
2.69292e-10
2.54471e-10
2.40262e-10
2.26643e-10
2.13591e-10
2.01086e-10
1.89106e-10
1.77629e-10
1.66637e-10
1.56111e-10
1.46031e-10
1.36383e-10
1.2715e-10
1.1832e-10
1.09879e-10
1.01817e-10
9.41253e-11
8.67949e-11
7.98194e-11
7.31928e-11
6.69103e-11
6.09679e-11
5.53618e-11
5.00887e-11
4.51454e-11
4.05282e-11
3.62334e-11
3.22565e-11
2.8592e-11
2.52338e-11
2.21744e-11
1.94054e-11
1.6917e-11
1.46982e-11
1.2737e-11
1.102e-11
9.53296e-12
8.26062e-12
7.18703e-12
6.29558e-12
5.56921e-12
4.9906e-12
4.54227e-12
4.20682e-12
3.9671e-12
3.80634e-12
3.70841e-12
3.65796e-12
3.64063e-12
3.64321e-12
3.65386e-12
3.66226e-12
3.65973e-12
3.63933e-12
3.59596e-12
3.52629e-12
3.4288e-12
3.30355e-12
3.15213e-12
2.97735e-12
2.78301e-12
2.57363e-12
2.35415e-12
2.12963e-12
1.905e-12
1.68481e-12
1.47308e-12
1.27316e-12
1.08763e-12
9.18311e-13
7.66265e-13
6.31856e-13
5.14851e-13
4.14518e-13
3.29744e-13
2.59155e-13
2.01219e-13
1.5434e-13
1.16941e-13
8.75215e-14
6.46986e-14
4.72375e-14
3.40618e-14
2.42557e-14
1.70571e-14
1.18445e-14
8.12151e-15
5.49865e-15
3.67623e-15
2.42771e-15
1.58494e-15
1.02545e-15
6.61963e-16
4.33937e-16
3.01155e-16
2.39086e-16
7.58095e-13
7.59072e-13
7.7117e-13
7.94382e-13
8.28871e-13
8.74955e-13
9.33106e-13
1.00395e-12
1.08827e-12
1.187e-12
1.30128e-12
1.43239e-12
1.58182e-12
1.75127e-12
1.94264e-12
2.15809e-12
2.40002e-12
2.67111e-12
2.97435e-12
3.31304e-12
3.69085e-12
4.11182e-12
4.58042e-12
5.10157e-12
5.68066e-12
6.32364e-12
7.03701e-12
7.8279e-12
8.70413e-12
9.6742e-12
1.07474e-11
1.19339e-11
1.32448e-11
1.46919e-11
1.62884e-11
1.80484e-11
1.9987e-11
2.2121e-11
2.4468e-11
2.70473e-11
2.98796e-11
3.29871e-11
3.63937e-11
4.01247e-11
4.42076e-11
4.86713e-11
5.35467e-11
5.88668e-11
6.46662e-11
7.09819e-11
7.78525e-11
8.5319e-11
9.3424e-11
1.02212e-10
1.11731e-10
1.22028e-10
1.33153e-10
1.45159e-10
1.58099e-10
1.72027e-10
1.86998e-10
2.03069e-10
2.20296e-10
2.38735e-10
2.58443e-10
2.79475e-10
3.01884e-10
3.25723e-10
3.5104e-10
3.77882e-10
4.06292e-10
4.36306e-10
4.67958e-10
5.01273e-10
5.3627e-10
5.72961e-10
6.11348e-10
6.51425e-10
6.93173e-10
7.36564e-10
7.81558e-10
8.28101e-10
8.76126e-10
9.25553e-10
9.76286e-10
1.02822e-09
1.08122e-09
1.13515e-09
1.18986e-09
1.24517e-09
1.3009e-09
1.35686e-09
1.41283e-09
1.46859e-09
1.52391e-09
1.57854e-09
1.63223e-09
1.68473e-09
1.73578e-09
1.78511e-09
1.83247e-09
1.8776e-09
1.92025e-09
1.96017e-09
1.99714e-09
2.03093e-09
2.06134e-09
2.08818e-09
2.11129e-09
2.13053e-09
2.14577e-09
2.15692e-09
2.16392e-09
2.16672e-09
2.16531e-09
2.1597e-09
2.14995e-09
2.13611e-09
2.1183e-09
2.09663e-09
2.07125e-09
2.04233e-09
2.01006e-09
1.97465e-09
1.93633e-09
1.89533e-09
1.8519e-09
1.8063e-09
1.75878e-09
1.70962e-09
1.65907e-09
1.6074e-09
1.55486e-09
1.5017e-09
1.44817e-09
1.39448e-09
1.34086e-09
1.2875e-09
1.23461e-09
1.18235e-09
1.13087e-09
1.08032e-09
1.03083e-09
9.82498e-10
9.35423e-10
8.89681e-10
8.45337e-10
8.02437e-10
7.6102e-10
7.21107e-10
6.82711e-10
6.45836e-10
6.10472e-10
5.76606e-10
5.44214e-10
5.13267e-10
4.83732e-10
4.55569e-10
4.28736e-10
4.03189e-10
3.7888e-10
3.5576e-10
3.33782e-10
3.12895e-10
2.93052e-10
2.74204e-10
2.56304e-10
2.39308e-10
2.23172e-10
2.07855e-10
1.93319e-10
1.79527e-10
1.66445e-10
1.54041e-10
1.42288e-10
1.31159e-10
1.20629e-10
1.10677e-10
1.01284e-10
9.2432e-11
8.41045e-11
7.62869e-11
6.89658e-11
6.21282e-11
5.57618e-11
4.98546e-11
4.43943e-11
3.93686e-11
3.47643e-11
3.05679e-11
2.67646e-11
2.33391e-11
2.02746e-11
1.75538e-11
1.5158e-11
1.30678e-11
1.12631e-11
9.72292e-12
8.42587e-12
7.35024e-12
6.47412e-12
5.77562e-12
5.23301e-12
4.82493e-12
4.53056e-12
4.32981e-12
4.20347e-12
4.13346e-12
4.10298e-12
4.09668e-12
4.10088e-12
4.10371e-12
4.09523e-12
4.06756e-12
4.01487e-12
3.9334e-12
3.82139e-12
3.67894e-12
3.50777e-12
3.31103e-12
3.09294e-12
2.85852e-12
2.61325e-12
2.36273e-12
2.11241e-12
1.86731e-12
1.63187e-12
1.40976e-12
1.2038e-12
1.01597e-12
8.47414e-13
6.98503e-13
5.68946e-13
4.57909e-13
3.64138e-13
2.86094e-13
2.22066e-13
1.7028e-13
1.28982e-13
9.6507e-14
7.13225e-14
5.20608e-14
3.75309e-14
2.67201e-14
1.87861e-14
1.30425e-14
8.94119e-15
6.0525e-15
4.04581e-15
2.67133e-15
1.7437e-15
1.128e-15
7.28052e-16
4.77188e-16
3.31125e-16
2.62853e-16
1.39424e-12
1.39618e-12
1.41869e-12
1.46177e-12
1.52573e-12
1.61118e-12
1.71898e-12
1.85033e-12
2.00669e-12
2.18983e-12
2.40185e-12
2.64519e-12
2.92263e-12
3.23735e-12
3.59295e-12
3.99346e-12
4.44341e-12
4.94785e-12
5.51238e-12
6.14323e-12
6.84732e-12
7.63227e-12
8.50649e-12
9.47928e-12
1.05608e-11
1.17624e-11
1.30962e-11
1.45758e-11
1.6216e-11
1.80329e-11
2.00442e-11
2.2269e-11
2.47283e-11
2.74449e-11
3.04435e-11
3.37509e-11
3.73962e-11
4.14109e-11
4.58289e-11
5.06867e-11
5.60238e-11
6.18824e-11
6.83081e-11
7.53494e-11
8.30583e-11
9.14902e-11
1.00704e-10
1.10763e-10
1.21732e-10
1.33683e-10
1.46689e-10
1.60828e-10
1.76181e-10
1.92834e-10
2.10876e-10
2.30398e-10
2.51497e-10
2.7427e-10
2.98819e-10
3.25246e-10
3.53656e-10
3.84155e-10
4.16848e-10
4.51842e-10
4.89242e-10
5.2915e-10
5.71665e-10
6.16882e-10
6.64892e-10
7.15777e-10
7.69612e-10
8.26464e-10
8.86385e-10
9.49417e-10
1.01559e-09
1.08491e-09
1.15737e-09
1.23295e-09
1.31161e-09
1.39326e-09
1.47782e-09
1.56517e-09
1.65517e-09
1.74764e-09
1.84238e-09
1.93916e-09
2.03773e-09
2.13779e-09
2.23902e-09
2.34109e-09
2.44362e-09
2.54622e-09
2.64845e-09
2.74989e-09
2.85006e-09
2.94851e-09
3.04472e-09
3.13822e-09
3.2285e-09
3.31507e-09
3.39743e-09
3.4751e-09
3.54761e-09
3.61452e-09
3.6754e-09
3.72988e-09
3.77758e-09
3.8182e-09
3.85146e-09
3.87713e-09
3.89504e-09
3.90506e-09
3.90712e-09
3.90121e-09
3.88736e-09
3.86567e-09
3.83629e-09
3.79942e-09
3.75531e-09
3.70427e-09
3.64662e-09
3.58277e-09
3.51312e-09
3.43811e-09
3.35824e-09
3.27398e-09
3.18584e-09
3.09433e-09
2.99999e-09
2.90331e-09
2.80481e-09
2.70499e-09
2.60433e-09
2.50328e-09
2.4023e-09
2.30179e-09
2.20213e-09
2.10368e-09
2.00676e-09
1.91166e-09
1.81865e-09
1.72793e-09
1.63971e-09
1.55414e-09
1.47136e-09
1.39147e-09
1.31453e-09
1.24061e-09
1.16973e-09
1.10188e-09
1.03705e-09
9.75222e-10
9.16334e-10
8.60329e-10
8.07136e-10
7.56673e-10
7.08852e-10
6.63577e-10
6.20752e-10
5.80273e-10
5.42038e-10
5.05943e-10
4.71884e-10
4.39761e-10
4.09473e-10
3.80923e-10
3.54019e-10
3.2867e-10
3.04792e-10
2.82302e-10
2.61125e-10
2.4119e-10
2.22429e-10
2.04779e-10
1.88185e-10
1.72592e-10
1.57951e-10
1.44219e-10
1.31353e-10
1.19317e-10
1.08074e-10
9.75939e-11
8.78458e-11
7.88017e-11
7.04349e-11
6.27197e-11
5.56309e-11
4.91437e-11
4.32333e-11
3.78746e-11
3.30424e-11
2.87106e-11
2.48527e-11
2.14416e-11
1.84494e-11
1.58479e-11
1.36085e-11
1.17022e-11
1.01001e-11
8.77332e-12
7.69311e-12
6.8313e-12
6.16028e-12
5.65325e-12
5.2844e-12
5.02905e-12
4.86386e-12
4.76702e-12
4.71842e-12
4.69982e-12
4.69507e-12
4.69021e-12
4.67362e-12
4.6361e-12
4.57089e-12
4.47364e-12
4.34229e-12
4.17693e-12
3.9795e-12
3.75357e-12
3.50393e-12
3.23627e-12
2.95676e-12
2.67174e-12
2.38734e-12
2.10921e-12
1.84232e-12
1.59078e-12
1.35773e-12
1.14536e-12
9.54925e-13
7.86793e-13
6.40604e-13
5.15384e-13
4.09692e-13
3.21771e-13
2.49674e-13
1.91388e-13
1.44926e-13
1.08405e-13
8.00926e-14
5.84467e-14
4.21237e-14
2.99826e-14
2.10749e-14
1.46283e-14
1.00262e-14
6.78561e-15
4.535e-15
2.99378e-15
1.95385e-15
1.26373e-15
8.15526e-16
5.34435e-16
3.70793e-16
2.94311e-16
2.52703e-12
2.5308e-12
2.5721e-12
2.65094e-12
2.76788e-12
2.92406e-12
3.1211e-12
3.36118e-12
3.64703e-12
3.98193e-12
4.36974e-12
4.81498e-12
5.32282e-12
5.89913e-12
6.55057e-12
7.28463e-12
8.10969e-12
9.0351e-12
1.00713e-11
1.12298e-11
1.25236e-11
1.39666e-11
1.55748e-11
1.73652e-11
1.93569e-11
2.15708e-11
2.403e-11
2.67595e-11
2.97869e-11
3.31425e-11
3.68591e-11
4.09729e-11
4.55228e-11
5.05517e-11
5.61058e-11
6.22355e-11
6.89953e-11
7.64442e-11
8.46459e-11
9.36692e-11
1.03588e-10
1.14482e-10
1.26437e-10
1.39544e-10
1.53901e-10
1.69612e-10
1.86789e-10
2.05549e-10
2.26018e-10
2.48327e-10
2.72616e-10
2.99032e-10
3.27728e-10
3.58865e-10
3.92609e-10
4.29135e-10
4.68621e-10
5.11253e-10
5.57218e-10
6.06711e-10
6.59928e-10
7.17065e-10
7.7832e-10
8.4389e-10
9.13968e-10
9.88745e-10
1.0684e-09
1.15311e-09
1.24304e-09
1.33833e-09
1.43912e-09
1.54553e-09
1.65763e-09
1.77549e-09
1.89916e-09
2.02864e-09
2.16389e-09
2.30485e-09
2.4514e-09
2.6034e-09
2.76064e-09
2.92287e-09
3.0898e-09
3.26105e-09
3.43623e-09
3.61486e-09
3.79643e-09
3.98036e-09
4.16602e-09
4.35272e-09
4.53973e-09
4.72628e-09
4.91153e-09
5.09462e-09
5.27468e-09
5.45078e-09
5.62198e-09
5.78735e-09
5.94595e-09
6.09682e-09
6.23907e-09
6.3718e-09
6.49415e-09
6.60531e-09
6.70454e-09
6.79116e-09
6.86454e-09
6.92417e-09
6.9696e-09
7.00049e-09
7.01659e-09
7.01777e-09
7.00399e-09
6.97533e-09
6.93196e-09
6.87419e-09
6.80239e-09
6.71706e-09
6.61878e-09
6.50821e-09
6.3861e-09
6.25325e-09
6.11055e-09
5.95889e-09
5.79925e-09
5.6326e-09
5.45994e-09
5.28227e-09
5.10059e-09
4.91587e-09
4.72908e-09
4.54114e-09
4.35292e-09
4.16527e-09
3.97896e-09
3.79472e-09
3.61321e-09
3.43504e-09
3.26073e-09
3.09076e-09
2.92553e-09
2.76539e-09
2.6106e-09
2.4614e-09
2.31794e-09
2.18034e-09
2.04866e-09
1.92291e-09
1.80307e-09
1.68909e-09
1.58088e-09
1.47831e-09
1.38124e-09
1.28952e-09
1.20295e-09
1.12137e-09
1.04455e-09
9.72306e-10
9.04418e-10
8.40677e-10
7.80872e-10
7.24795e-10
6.72241e-10
6.23013e-10
5.76916e-10
5.33767e-10
4.93388e-10
4.5561e-10
4.20274e-10
3.87228e-10
3.56331e-10
3.27451e-10
3.00464e-10
2.75256e-10
2.51721e-10
2.29761e-10
2.09285e-10
1.9021e-10
1.7246e-10
1.55964e-10
1.40658e-10
1.2648e-10
1.13375e-10
1.01292e-10
9.01791e-11
7.99909e-11
7.06821e-11
6.22091e-11
5.45294e-11
4.76011e-11
4.13829e-11
3.58336e-11
3.09123e-11
2.6578e-11
2.279e-11
1.95075e-11
1.66902e-11
1.4298e-11
1.22916e-11
1.06322e-11
9.28197e-12
8.20421e-12
7.36342e-12
6.72554e-12
6.25808e-12
5.93032e-12
5.71345e-12
5.58076e-12
5.50779e-12
5.47255e-12
5.45563e-12
5.44037e-12
5.41296e-12
5.3625e-12
5.28102e-12
5.16337e-12
5.00713e-12
4.81234e-12
4.58126e-12
4.31797e-12
4.02799e-12
3.71784e-12
3.39461e-12
3.06554e-12
2.73765e-12
2.41738e-12
2.11039e-12
1.82132e-12
1.55374e-12
1.31011e-12
1.09179e-12
8.9917e-13
7.31799e-13
5.8852e-13
4.67653e-13
3.6716e-13
2.84794e-13
2.18236e-13
1.65204e-13
1.23534e-13
9.12445e-14
6.65661e-14
4.79628e-14
3.41301e-14
2.39844e-14
1.6644e-14
1.14053e-14
7.71738e-15
5.15672e-15
3.40358e-15
2.22091e-15
1.43622e-15
9.26684e-16
6.07181e-16
4.212e-16
3.34286e-16
4.5105e-12
4.51774e-12
4.59241e-12
4.73454e-12
4.9452e-12
5.22643e-12
5.58123e-12
6.01357e-12
6.52842e-12
7.13174e-12
7.83062e-12
8.63326e-12
9.54908e-12
1.05888e-11
1.17646e-11
1.30902e-11
1.45808e-11
1.62535e-11
1.81275e-11
2.02239e-11
2.25661e-11
2.51803e-11
2.8095e-11
3.1342e-11
3.49563e-11
3.89761e-11
4.34437e-11
4.84056e-11
5.39123e-11
6.00195e-11
6.6788e-11
7.4284e-11
8.25799e-11
9.17546e-11
1.01894e-10
1.1309e-10
1.25444e-10
1.39066e-10
1.54074e-10
1.70594e-10
1.88764e-10
2.08732e-10
2.30656e-10
2.54707e-10
2.81065e-10
3.09925e-10
3.41493e-10
3.75989e-10
4.13645e-10
4.54707e-10
4.99433e-10
5.48097e-10
6.00985e-10
6.58393e-10
7.20635e-10
7.88031e-10
8.60914e-10
9.39629e-10
1.02452e-09
1.11596e-09
1.2143e-09
1.3199e-09
1.43314e-09
1.55437e-09
1.68394e-09
1.82222e-09
1.96952e-09
2.12616e-09
2.29244e-09
2.46862e-09
2.65493e-09
2.85156e-09
3.05867e-09
3.27636e-09
3.50467e-09
3.74358e-09
3.99301e-09
4.25279e-09
4.52269e-09
4.80239e-09
5.09146e-09
5.38939e-09
5.69559e-09
6.00933e-09
6.3298e-09
6.65608e-09
6.98714e-09
7.32187e-09
7.65901e-09
7.99726e-09
8.33519e-09
8.6713e-09
9.00401e-09
9.33167e-09
9.65261e-09
9.96507e-09
1.02673e-08
1.05575e-08
1.0834e-08
1.1095e-08
1.13389e-08
1.15639e-08
1.17686e-08
1.19515e-08
1.21113e-08
1.22468e-08
1.2357e-08
1.2441e-08
1.24982e-08
1.2528e-08
1.25301e-08
1.25045e-08
1.24512e-08
1.23705e-08
1.22631e-08
1.21296e-08
1.19708e-08
1.1788e-08
1.15824e-08
1.13553e-08
1.11082e-08
1.0843e-08
1.05612e-08
1.02647e-08
9.95546e-09
9.63527e-09
9.30607e-09
8.96977e-09
8.62824e-09
8.28329e-09
7.93668e-09
7.59009e-09
7.24509e-09
6.90317e-09
6.56568e-09
6.23387e-09
5.90886e-09
5.59163e-09
5.28306e-09
4.98387e-09
4.69467e-09
4.41597e-09
4.14813e-09
3.89142e-09
3.646e-09
3.41196e-09
3.18929e-09
2.97788e-09
2.77759e-09
2.58821e-09
2.40947e-09
2.24106e-09
2.08263e-09
1.93383e-09
1.79425e-09
1.66349e-09
1.54114e-09
1.42678e-09
1.31998e-09
1.22033e-09
1.12743e-09
1.04086e-09
9.60256e-10
8.85231e-10
8.15431e-10
7.50516e-10
6.90163e-10
6.34066e-10
5.81937e-10
5.33506e-10
4.88522e-10
4.4675e-10
4.07972e-10
3.71986e-10
3.38606e-10
3.0766e-10
2.7899e-10
2.52452e-10
2.2791e-10
2.05243e-10
1.84338e-10
1.6509e-10
1.47401e-10
1.31183e-10
1.16352e-10
1.02826e-10
9.0533e-11
7.93996e-11
6.93573e-11
6.03397e-11
5.22823e-11
4.51221e-11
3.87975e-11
3.32482e-11
2.8415e-11
2.42402e-11
2.06671e-11
1.76407e-11
1.51072e-11
1.30148e-11
1.13133e-11
9.95489e-12
8.89348e-12
8.08547e-12
7.48968e-12
7.06748e-12
6.78298e-12
6.60312e-12
6.49789e-12
6.44042e-12
6.40719e-12
6.37806e-12
6.33643e-12
6.26926e-12
6.167e-12
6.02353e-12
5.83591e-12
5.60418e-12
5.33093e-12
5.0209e-12
4.68049e-12
4.31728e-12
3.93949e-12
3.5555e-12
3.17339e-12
2.80062e-12
2.44368e-12
2.1079e-12
1.79735e-12
1.51482e-12
1.26182e-12
1.03876e-12
8.45061e-13
6.79338e-13
5.39615e-13
4.23505e-13
3.28385e-13
2.51556e-13
1.90366e-13
1.42307e-13
1.05079e-13
7.66379e-14
5.52052e-14
3.92739e-14
2.75926e-14
1.91436e-14
1.31153e-14
8.87263e-15
5.92751e-15
3.91161e-15
2.55196e-15
1.65003e-15
1.06447e-15
6.97349e-16
4.83677e-16
3.83832e-16
7.92742e-12
7.94108e-12
8.07408e-12
8.32652e-12
8.70034e-12
9.19923e-12
9.82858e-12
1.05955e-11
1.1509e-11
1.25797e-11
1.38204e-11
1.52458e-11
1.68729e-11
1.87208e-11
2.08116e-11
2.31698e-11
2.58229e-11
2.88017e-11
3.21408e-11
3.58781e-11
4.00562e-11
4.47219e-11
4.99271e-11
5.57292e-11
6.21912e-11
6.93829e-11
7.73806e-11
8.62683e-11
9.61381e-11
1.07091e-10
1.19237e-10
1.32698e-10
1.47603e-10
1.64098e-10
1.82338e-10
2.02492e-10
2.24745e-10
2.49296e-10
2.76359e-10
3.06169e-10
3.38977e-10
3.75051e-10
4.14682e-10
4.58182e-10
5.05884e-10
5.58141e-10
6.15334e-10
6.77864e-10
7.46159e-10
8.20668e-10
9.01869e-10
9.90262e-10
1.08637e-09
1.19074e-09
1.30395e-09
1.42658e-09
1.55926e-09
1.70259e-09
1.85725e-09
2.02386e-09
2.20311e-09
2.39566e-09
2.60217e-09
2.8233e-09
3.05971e-09
3.31202e-09
3.58082e-09
3.8667e-09
4.17017e-09
4.4917e-09
4.83169e-09
5.19048e-09
5.56832e-09
5.96536e-09
6.38165e-09
6.81712e-09
7.27156e-09
7.74462e-09
8.23582e-09
8.7445e-09
9.26983e-09
9.8108e-09
1.03662e-08
1.09347e-08
1.15146e-08
1.21043e-08
1.27017e-08
1.33047e-08
1.39109e-08
1.45177e-08
1.51226e-08
1.57226e-08
1.63148e-08
1.68962e-08
1.74634e-08
1.80133e-08
1.85427e-08
1.90482e-08
1.95266e-08
1.99748e-08
2.03897e-08
2.07683e-08
2.1108e-08
2.14061e-08
2.16604e-08
2.18689e-08
2.20298e-08
2.21418e-08
2.22037e-08
2.2215e-08
2.21754e-08
2.20849e-08
2.1944e-08
2.17536e-08
2.1515e-08
2.12298e-08
2.08999e-08
2.05277e-08
2.01157e-08
1.96668e-08
1.91839e-08
1.86705e-08
1.81299e-08
1.75655e-08
1.69811e-08
1.63801e-08
1.57662e-08
1.51428e-08
1.45135e-08
1.38815e-08
1.32499e-08
1.26219e-08
1.20001e-08
1.13871e-08
1.07852e-08
1.01966e-08
9.62308e-09
9.06621e-09
8.52736e-09
8.00764e-09
7.50793e-09
7.0289e-09
6.57099e-09
6.13446e-09
5.7194e-09
5.32572e-09
4.95319e-09
4.60147e-09
4.2701e-09
3.95852e-09
3.66609e-09
3.39213e-09
3.13588e-09
2.89658e-09
2.67341e-09
2.46556e-09
2.27222e-09
2.09255e-09
1.92577e-09
1.77109e-09
1.62773e-09
1.49497e-09
1.37209e-09
1.25841e-09
1.1533e-09
1.05615e-09
9.66381e-10
8.83456e-10
8.06874e-10
7.36166e-10
6.70897e-10
6.10662e-10
5.55089e-10
5.03834e-10
4.56581e-10
4.1304e-10
3.72944e-10
3.36048e-10
3.0213e-10
2.70983e-10
2.42421e-10
2.16269e-10
1.92368e-10
1.7057e-10
1.5074e-10
1.32747e-10
1.16474e-10
1.01806e-10
8.86359e-11
7.68617e-11
6.63855e-11
5.7113e-11
4.89537e-11
4.182e-11
3.56276e-11
3.02949e-11
2.57433e-11
2.1897e-11
1.86835e-11
1.60332e-11
1.38798e-11
1.21603e-11
1.08152e-11
9.78831e-12
9.02724e-12
8.48315e-12
8.11103e-12
7.86977e-12
7.72222e-12
7.63539e-12
7.58049e-12
7.53304e-12
7.47294e-12
7.3844e-12
7.25594e-12
7.08018e-12
6.85357e-12
6.57609e-12
6.25074e-12
5.88306e-12
5.48055e-12
5.05207e-12
4.6072e-12
4.15573e-12
3.70708e-12
3.26989e-12
2.85169e-12
2.45864e-12
2.09544e-12
1.76525e-12
1.46979e-12
1.20946e-12
9.83533e-13
7.9035e-13
6.27563e-13
4.92353e-13
3.8164e-13
2.92257e-13
2.21098e-13
1.65231e-13
1.21972e-13
8.89341e-14
6.40461e-14
4.55523e-14
3.19961e-14
2.21938e-14
1.52019e-14
1.02822e-14
6.86789e-15
4.53138e-15
2.95581e-15
1.91084e-15
1.23253e-15
8.0733e-16
5.59881e-16
4.44263e-16
1.37198e-11
1.37451e-11
1.39786e-11
1.44203e-11
1.50738e-11
1.59456e-11
1.70454e-11
1.83858e-11
1.99825e-11
2.18545e-11
2.40244e-11
2.65182e-11
2.93659e-11
3.26018e-11
3.62645e-11
4.03977e-11
4.50503e-11
5.02769e-11
5.61387e-11
6.27035e-11
7.00466e-11
7.82516e-11
8.7411e-11
9.76267e-11
1.09012e-10
1.2169e-10
1.35797e-10
1.51485e-10
1.68917e-10
1.88275e-10
2.09755e-10
2.33574e-10
2.59968e-10
2.89194e-10
3.21533e-10
3.57289e-10
3.96792e-10
4.40403e-10
4.88507e-10
5.41527e-10
5.99912e-10
6.64152e-10
7.3477e-10
8.12327e-10
8.97425e-10
9.90707e-10
1.09286e-09
1.2046e-09
1.32672e-09
1.46002e-09
1.60538e-09
1.76368e-09
1.9359e-09
2.12302e-09
2.32607e-09
2.54613e-09
2.78432e-09
3.04176e-09
3.31963e-09
3.61912e-09
3.94143e-09
4.28776e-09
4.65933e-09
5.05732e-09
5.48291e-09
5.93722e-09
6.42133e-09
6.93626e-09
7.48294e-09
8.06219e-09
8.67472e-09
9.32111e-09
1.00018e-08
1.07169e-08
1.14666e-08
1.22507e-08
1.30686e-08
1.39198e-08
1.48032e-08
1.57176e-08
1.66613e-08
1.76324e-08
1.86287e-08
1.96475e-08
2.06857e-08
2.17401e-08
2.28069e-08
2.38821e-08
2.49612e-08
2.60395e-08
2.7112e-08
2.81734e-08
2.92182e-08
3.02407e-08
3.12349e-08
3.21951e-08
3.31151e-08
3.3989e-08
3.4811e-08
3.55754e-08
3.62765e-08
3.69093e-08
3.74689e-08
3.79507e-08
3.8351e-08
3.86662e-08
3.88935e-08
3.90308e-08
3.90765e-08
3.90297e-08
3.88905e-08
3.86594e-08
3.83377e-08
3.79276e-08
3.74317e-08
3.68537e-08
3.61974e-08
3.54674e-08
3.46691e-08
3.38078e-08
3.28896e-08
3.19207e-08
3.09075e-08
2.98568e-08
2.87751e-08
2.76692e-08
2.65456e-08
2.54108e-08
2.4271e-08
2.3132e-08
2.19995e-08
2.08787e-08
1.97744e-08
1.8691e-08
1.76323e-08
1.66019e-08
1.56028e-08
1.46373e-08
1.37077e-08
1.28154e-08
1.19618e-08
1.11475e-08
1.0373e-08
9.63843e-09
8.94353e-09
8.28782e-09