/*--------------------------------*- C++ -*----------------------------------*\
| =========                 |                                                 |
| \\      /  F ield         | OpenFOAM: The Open Source CFD Toolbox           |
|  \\    /   O peration     | Version:  v2012                                 |
|   \\  /    A nd           | Website:  www.openfoam.com                      |
|    \\/     M anipulation  |                                                 |
\*---------------------------------------------------------------------------*/
FoamFile
{
    version     2.0;
    format      ascii;
    class       volVectorField;
    location    "70";
    object      Usup;
}
// * * * * * * * * * * * * * * * * * * * * * * * * * * * * * * * * * * * * * //

dimensions      [0 1 -1 0 0 0 0];


internalField   nonuniform List<vector> 
4000
(
(-3.67384e-16 -1.74031e-16 0)
(-9.62374e-16 -3.29914e-16 0)
(-1.55435e-15 -1.98126e-16 0)
(-2.26652e-15 -4.16385e-17 0)
(-2.95738e-15 1.00148e-16 0)
(-3.74854e-15 -1.90668e-16 0)
(-4.30386e-15 -9.12857e-17 0)
(-4.43247e-15 1.36491e-17 0)
(-4.91066e-15 -2.65498e-16 0)
(-5.64454e-15 -5.47841e-16 0)
(-6.14764e-15 -2.97246e-16 0)
(-6.40069e-15 1.03718e-16 0)
(-6.95127e-15 -6.73026e-17 0)
(-7.73405e-15 1.24498e-17 0)
(-7.79939e-15 4.67549e-16 0)
(-7.79141e-15 5.82295e-16 0)
(-7.99515e-15 2.9154e-16 0)
(-8.33015e-15 8.97545e-17 0)
(-9.08073e-15 3.43604e-16 0)
(-9.63744e-15 3.03331e-16 0)
(-9.72251e-15 -2.36899e-16 0)
(-9.93747e-15 -7.87253e-16 0)
(-1.05455e-14 -8.15015e-16 0)
(-1.09983e-14 -7.68312e-16 0)
(-1.08763e-14 -5.09464e-16 0)
(-1.00363e-14 -7.14902e-17 0)
(-9.65436e-15 -2.63514e-16 0)
(-9.86069e-15 -1.00832e-16 0)
(-9.7813e-15 -1.68696e-16 0)
(-9.81102e-15 -2.21605e-16 0)
(-1.00976e-14 -2.45529e-16 0)
(-1.03313e-14 -3.10753e-16 0)
(-1.00805e-14 -6.5818e-16 0)
(-9.61682e-15 -8.30851e-16 0)
(-9.48375e-15 -8.57167e-16 0)
(-9.56948e-15 -6.18689e-16 0)
(-1.00811e-14 -6.64534e-16 0)
(-1.02993e-14 -2.49964e-16 0)
(-9.7756e-15 -2.0166e-16 0)
(-9.17702e-15 -1.10807e-16 0)
(-8.8973e-15 -2.08918e-16 0)
(-8.49687e-15 1.10359e-16 0)
(-8.52007e-15 -7.93256e-17 0)
(-8.69463e-15 -2.45926e-16 0)
(-9.07953e-15 -7.56271e-16 0)
(-1.0003e-14 -8.23948e-16 0)
(-9.96526e-15 -4.40816e-16 0)
(-9.5807e-15 -1.47251e-16 0)
(-9.35774e-15 2.16225e-16 0)
(-9.18379e-15 4.27892e-16 0)
(-8.72212e-15 5.05505e-16 0)
(-8.07144e-15 2.41001e-16 0)
(-8.00413e-15 2.33235e-16 0)
(-8.19424e-15 3.52912e-16 0)
(-8.44207e-15 3.79672e-16 0)
(-8.18447e-15 5.24408e-16 0)
(-6.81487e-15 2.43548e-16 0)
(-5.63627e-15 1.52814e-16 0)
(-5.23422e-15 1.094e-16 0)
(-5.43546e-15 1.08717e-16 0)
(-5.74779e-15 2.59e-16 0)
(-6.05045e-15 2.16793e-16 0)
(-6.70043e-15 1.51692e-16 0)
(-6.92727e-15 4.68565e-16 0)
(-6.77902e-15 3.21529e-16 0)
(-6.40395e-15 4.09701e-16 0)
(-6.12427e-15 2.73682e-16 0)
(-6.0784e-15 1.27026e-16 0)
(-6.03113e-15 -1.48599e-16 0)
(-6.27988e-15 -4.84979e-16 0)
(-6.49594e-15 -4.52395e-16 0)
(-6.49752e-15 -4.86264e-16 0)
(-6.53342e-15 -2.99569e-16 0)
(-6.22104e-15 -4.99598e-16 0)
(-5.72292e-15 -1.00178e-15 0)
(-5.95663e-15 -1.37116e-15 0)
(-6.53423e-15 -1.30003e-15 0)
(-7.12673e-15 -1.24972e-15 0)
(-7.81865e-15 -7.78015e-16 0)
(-7.77951e-15 -2.30646e-16 0)
(-6.74558e-15 -7.96625e-17 0)
(-6.17386e-15 -3.52186e-16 0)
(-6.82304e-15 -6.59712e-16 0)
(-7.26668e-15 -7.20394e-16 0)
(-6.72953e-15 -5.95312e-16 0)
(-6.33384e-15 -4.73117e-16 0)
(-6.37667e-15 -6.44537e-16 0)
(-5.83677e-15 -6.03283e-16 0)
(-5.05641e-15 -4.39989e-16 0)
(-4.43655e-15 -1.68944e-16 0)
(-3.60481e-15 -3.09727e-16 0)
(-2.70353e-15 -3.74152e-16 0)
(-2.14886e-15 -5.70674e-16 0)
(-2.38181e-15 -9.14033e-16 0)
(-2.56855e-15 -6.65788e-16 0)
(-2.02425e-15 -6.54922e-16 0)
(-1.61621e-15 -7.41148e-16 0)
(-1.8666e-15 -8.30667e-16 0)
(-1.68893e-15 -1.96579e-16 0)
(-5.16486e-16 7.08594e-17 0)
(-1.03271e-15 -2.49235e-16 0)
(-2.66476e-15 -4.58869e-16 0)
(-4.2505e-15 -5.86919e-16 0)
(-6.23502e-15 -3.88772e-16 0)
(-8.52901e-15 -6.96613e-17 0)
(-1.06319e-14 -4.42106e-16 0)
(-1.19192e-14 -3.45226e-16 0)
(-1.30169e-14 -1.09282e-17 0)
(-1.46916e-14 -6.79093e-16 0)
(-1.61427e-14 -1.18358e-15 0)
(-1.7078e-14 -7.88388e-16 0)
(-1.83889e-14 -1.84334e-16 0)
(-2.01087e-14 -2.79688e-16 0)
(-2.14407e-14 4.86992e-16 0)
(-2.19326e-14 1.56746e-15 0)
(-2.27768e-14 1.4183e-15 0)
(-2.36858e-14 8.57575e-16 0)
(-2.43027e-14 2.51554e-16 0)
(-2.59364e-14 5.83945e-16 0)
(-2.79184e-14 9.27857e-17 0)
(-2.88385e-14 -9.15876e-16 0)
(-2.91855e-14 -1.72068e-15 0)
(-3.00933e-14 -1.9818e-15 0)
(-3.08415e-14 -1.8815e-15 0)
(-3.02948e-14 -1.35987e-15 0)
(-2.90217e-14 -4.44167e-16 0)
(-2.83767e-14 -7.99217e-16 0)
(-2.85165e-14 -6.42625e-16 0)
(-2.85554e-14 -7.80086e-16 0)
(-2.86289e-14 -8.25547e-16 0)
(-2.91936e-14 -8.21976e-16 0)
(-2.98353e-14 -1.19137e-15 0)
(-2.9402e-14 -1.67559e-15 0)
(-2.8243e-14 -1.87189e-15 0)
(-2.7617e-14 -2.07484e-15 0)
(-2.78219e-14 -1.8106e-15 0)
(-2.86187e-14 -1.857e-15 0)
(-2.88741e-14 -9.38873e-16 0)
(-2.80253e-14 -7.69123e-16 0)
(-2.68026e-14 -5.18675e-16 0)
(-2.58366e-14 -6.45198e-16 0)
(-2.50509e-14 -1.04846e-16 0)
(-2.53943e-14 -4.94985e-16 0)
(-2.60609e-14 -8.45593e-16 0)
(-2.69266e-14 -2.01628e-15 0)
(-2.80365e-14 -2.12137e-15 0)
(-2.78131e-14 -1.22385e-15 0)
(-2.7069e-14 -3.1128e-16 0)
(-2.6517e-14 7.96011e-16 0)
(-2.61244e-14 1.34604e-15 0)
(-2.5336e-14 1.4232e-15 0)
(-2.39837e-14 1.05907e-15 0)
(-2.33483e-14 5.58327e-16 0)
(-2.3513e-14 6.71029e-16 0)
(-2.36977e-14 8.9229e-16 0)
(-2.30056e-14 1.45245e-15 0)
(-2.02004e-14 1.17388e-15 0)
(-1.73495e-14 9.37172e-16 0)
(-1.61724e-14 4.43947e-16 0)
(-1.62542e-14 3.45101e-16 0)
(-1.69331e-14 6.54275e-16 0)
(-1.7862e-14 7.40356e-16 0)
(-1.89234e-14 7.28303e-16 0)
(-1.95137e-14 9.98736e-16 0)
(-1.94026e-14 9.69202e-16 0)
(-1.86235e-14 9.73967e-16 0)
(-1.81758e-14 6.53721e-16 0)
(-1.81073e-14 9.44528e-17 0)
(-1.81867e-14 -4.63429e-16 0)
(-1.84457e-14 -1.2458e-15 0)
(-1.86692e-14 -1.41262e-15 0)
(-1.86048e-14 -1.32568e-15 0)
(-1.87253e-14 -1.39565e-15 0)
(-1.85958e-14 -1.85651e-15 0)
(-1.7852e-14 -2.88605e-15 0)
(-1.79377e-14 -3.66568e-15 0)
(-1.89132e-14 -3.67597e-15 0)
(-2.00052e-14 -3.32576e-15 0)
(-2.10275e-14 -2.19332e-15 0)
(-2.11426e-14 -8.77325e-16 0)
(-1.97809e-14 -4.89583e-16 0)
(-1.89696e-14 -1.18642e-15 0)
(-1.98365e-14 -2.19161e-15 0)
(-2.02178e-14 -2.388e-15 0)
(-1.90268e-14 -1.86816e-15 0)
(-1.82788e-14 -1.61272e-15 0)
(-1.79914e-14 -1.39084e-15 0)
(-1.63362e-14 -1.17889e-15 0)
(-1.42147e-14 -1.22904e-15 0)
(-1.265e-14 -9.17687e-16 0)
(-1.07462e-14 -1.10281e-15 0)
(-8.59402e-15 -1.24188e-15 0)
(-7.39254e-15 -1.95826e-15 0)
(-7.15049e-15 -2.58095e-15 0)
(-6.9494e-15 -2.07699e-15 0)
(-6.00707e-15 -1.89411e-15 0)
(-5.09366e-15 -1.9372e-15 0)
(-4.62055e-15 -1.84675e-15 0)
(-3.53907e-15 -7.03105e-16 0)
(-1.40045e-15 -3.92656e-17 0)
(-1.55973e-15 -2.45064e-18 0)
(-4.42996e-15 -1.2646e-16 0)
(-7.08813e-15 -9.18017e-16 0)
(-9.9196e-15 -1.32223e-15 0)
(-1.34647e-14 -1.0621e-15 0)
(-1.68211e-14 -6.2897e-16 0)
(-1.88554e-14 -4.23061e-16 0)
(-2.10627e-14 2.48736e-17 0)
(-2.39504e-14 -7.93504e-16 0)
(-2.59532e-14 -1.34211e-15 0)
(-2.74472e-14 -1.15209e-15 0)
(-2.95969e-14 -5.80041e-16 0)
(-3.17847e-14 -3.70956e-16 0)
(-3.35088e-14 7.7083e-16 0)
(-3.5253e-14 2.17084e-15 0)
(-3.72072e-14 2.01665e-15 0)
(-3.87348e-14 1.59447e-15 0)
(-3.97307e-14 8.00103e-16 0)
(-4.21612e-14 3.12714e-16 0)
(-4.5234e-14 -8.09718e-16 0)
(-4.65269e-14 -1.75741e-15 0)
(-4.71909e-14 -2.4433e-15 0)
(-4.83838e-14 -2.76506e-15 0)
(-4.9096e-14 -2.67335e-15 0)
(-4.81987e-14 -2.08817e-15 0)
(-4.68886e-14 -1.3755e-15 0)
(-4.63286e-14 -1.41788e-15 0)
(-4.63372e-14 -9.43984e-16 0)
(-4.63461e-14 -8.41748e-16 0)
(-4.63997e-14 -1.21165e-15 0)
(-4.7316e-14 -1.62655e-15 0)
(-4.81316e-14 -2.10701e-15 0)
(-4.73441e-14 -2.36125e-15 0)
(-4.59711e-14 -2.64926e-15 0)
(-4.51792e-14 -2.87804e-15 0)
(-4.52849e-14 -2.92432e-15 0)
(-4.58706e-14 -2.72394e-15 0)
(-4.60082e-14 -1.76309e-15 0)
(-4.50627e-14 -1.18659e-15 0)
(-4.34771e-14 -1.23392e-15 0)
(-4.20686e-14 -1.17738e-15 0)
(-4.1116e-14 -9.63976e-16 0)
(-4.17028e-14 -1.67348e-15 0)
(-4.28687e-14 -1.96836e-15 0)
(-4.39679e-14 -2.75855e-15 0)
(-4.46236e-14 -2.53354e-15 0)
(-4.39853e-14 -1.59417e-15 0)
(-4.28568e-14 -4.31778e-16 0)
(-4.21917e-14 7.49125e-16 0)
(-4.19492e-14 1.6047e-15 0)
(-4.09657e-14 2.17455e-15 0)
(-3.94419e-14 2.2014e-15 0)
(-3.84062e-14 1.43563e-15 0)
(-3.78637e-14 1.33018e-15 0)
(-3.74616e-14 1.59663e-15 0)
(-3.62842e-14 2.23941e-15 0)
(-3.28408e-14 2.2138e-15 0)
(-2.93177e-14 1.53998e-15 0)
(-2.75226e-14 8.28638e-16 0)
(-2.7027e-14 5.80804e-16 0)
(-2.76846e-14 1.16038e-15 0)
(-2.89807e-14 1.55502e-15 0)
(-3.05351e-14 1.44672e-15 0)
(-3.12641e-14 1.25379e-15 0)
(-3.11232e-14 1.18697e-15 0)
(-3.03511e-14 8.31232e-16 0)
(-2.99369e-14 3.74485e-16 0)
(-2.98375e-14 -4.06814e-16 0)
(-2.99359e-14 -9.95578e-16 0)
(-3.02491e-14 -1.49709e-15 0)
(-3.01785e-14 -1.94066e-15 0)
(-3.01949e-14 -2.17313e-15 0)
(-3.05576e-14 -2.68818e-15 0)
(-3.04755e-14 -3.33773e-15 0)
(-2.97238e-14 -4.41407e-15 0)
(-2.96754e-14 -5.49529e-15 0)
(-3.05731e-14 -5.66272e-15 0)
(-3.16231e-14 -5.04824e-15 0)
(-3.2676e-14 -3.57866e-15 0)
(-3.30566e-14 -2.16634e-15 0)
(-3.21281e-14 -1.55853e-15 0)
(-3.16717e-14 -2.43753e-15 0)
(-3.23523e-14 -3.46967e-15 0)
(-3.19099e-14 -3.76643e-15 0)
(-3.01653e-14 -3.2996e-15 0)
(-2.89439e-14 -2.78462e-15 0)
(-2.81207e-14 -2.04284e-15 0)
(-2.61577e-14 -1.73809e-15 0)
(-2.31824e-14 -2.12567e-15 0)
(-2.04795e-14 -1.97005e-15 0)
(-1.75905e-14 -2.10372e-15 0)
(-1.47835e-14 -2.48416e-15 0)
(-1.29952e-14 -3.46576e-15 0)
(-1.17906e-14 -3.79376e-15 0)
(-1.09198e-14 -3.43355e-15 0)
(-9.62013e-15 -2.80743e-15 0)
(-8.18528e-15 -2.71681e-15 0)
(-6.931e-15 -2.23334e-15 0)
(-5.00513e-15 -1.36146e-15 0)
(-1.99194e-15 -4.00578e-16 0)
(-2.05643e-15 -9.43834e-17 0)
(-6.26536e-15 -1.05993e-16 0)
(-1.02393e-14 -9.87786e-16 0)
(-1.36943e-14 -1.7088e-15 0)
(-1.75965e-14 -2.12789e-15 0)
(-2.18804e-14 -1.27338e-15 0)
(-2.50633e-14 -5.73039e-16 0)
(-2.8588e-14 -3.09055e-16 0)
(-3.27231e-14 -1.1223e-15 0)
(-3.52316e-14 -1.45524e-15 0)
(-3.70279e-14 -1.44123e-15 0)
(-3.98771e-14 -6.61821e-16 0)
(-4.27503e-14 -6.55961e-18 0)
(-4.47028e-14 1.11589e-15 0)
(-4.72778e-14 2.09468e-15 0)
(-5.0424e-14 2.33674e-15 0)
(-5.28472e-14 2.3828e-15 0)
(-5.47317e-14 1.76477e-15 0)
(-5.80003e-14 3.1261e-16 0)
(-6.15983e-14 -1.46297e-15 0)
(-6.32113e-14 -2.53676e-15 0)
(-6.40321e-14 -3.38143e-15 0)
(-6.52747e-14 -3.82501e-15 0)
(-6.59364e-14 -3.19044e-15 0)
(-6.49237e-14 -2.26898e-15 0)
(-6.36148e-14 -2.0565e-15 0)
(-6.27293e-14 -1.94868e-15 0)
(-6.26399e-14 -1.34639e-15 0)
(-6.32636e-14 -7.11022e-16 0)
(-6.37961e-14 -1.37029e-15 0)
(-6.46165e-14 -2.49243e-15 0)
(-6.52002e-14 -3.01994e-15 0)
(-6.43861e-14 -3.14149e-15 0)
(-6.28246e-14 -3.58369e-15 0)
(-6.17979e-14 -3.74519e-15 0)
(-6.17002e-14 -3.81006e-15 0)
(-6.19128e-14 -3.3227e-15 0)
(-6.17837e-14 -2.4503e-15 0)
(-6.10834e-14 -1.94141e-15 0)
(-5.9448e-14 -2.04543e-15 0)
(-5.76014e-14 -1.934e-15 0)
(-5.68782e-14 -2.41605e-15 0)
(-5.74818e-14 -3.37324e-15 0)
(-5.84541e-14 -3.38943e-15 0)
(-5.94684e-14 -3.37504e-15 0)
(-5.99133e-14 -2.70264e-15 0)
(-5.90928e-14 -1.66173e-15 0)
(-5.78003e-14 -5.77305e-16 0)
(-5.68909e-14 5.50646e-16 0)
(-5.62078e-14 2.01999e-15 0)
(-5.50984e-14 3.19247e-15 0)
(-5.37735e-14 3.11832e-15 0)
(-5.25631e-14 2.50147e-15 0)
(-5.14746e-14 2.28559e-15 0)
(-5.04742e-14 2.31359e-15 0)
(-4.88176e-14 2.783e-15 0)
(-4.5182e-14 3.06928e-15 0)
(-4.1116e-14 2.16123e-15 0)
(-3.85691e-14 1.45026e-15 0)
(-3.73854e-14 1.3154e-15 0)
(-3.77622e-14 2.05065e-15 0)
(-3.96347e-14 2.13173e-15 0)
(-4.16831e-14 1.63449e-15 0)
(-4.25333e-14 1.29703e-15 0)
(-4.24558e-14 9.62866e-16 0)
(-4.16261e-14 3.65763e-16 0)
(-4.11525e-14 -4.95767e-16 0)
(-4.10016e-14 -1.19269e-15 0)
(-4.08592e-14 -1.70254e-15 0)
(-4.11809e-14 -1.97541e-15 0)
(-4.13941e-14 -2.58057e-15 0)
(-4.14472e-14 -3.22958e-15 0)
(-4.18165e-14 -3.88598e-15 0)
(-4.18886e-14 -4.85851e-15 0)
(-4.13294e-14 -5.84764e-15 0)
(-4.10873e-14 -6.96737e-15 0)
(-4.15462e-14 -7.31127e-15 0)
(-4.22529e-14 -6.76694e-15 0)
(-4.32767e-14 -5.11923e-15 0)
(-4.39554e-14 -3.68124e-15 0)
(-4.36022e-14 -3.14113e-15 0)
(-4.34434e-14 -3.77723e-15 0)
(-4.38052e-14 -4.40404e-15 0)
(-4.29236e-14 -4.58821e-15 0)
(-4.04704e-14 -4.44502e-15 0)
(-3.8621e-14 -3.63609e-15 0)
(-3.74678e-14 -2.95287e-15 0)
(-3.52233e-14 -2.78947e-15 0)
(-3.14635e-14 -3.06969e-15 0)
(-2.78348e-14 -3.19589e-15 0)
(-2.4369e-14 -3.4758e-15 0)
(-2.10094e-14 -3.92871e-15 0)
(-1.83676e-14 -4.70318e-15 0)
(-1.62669e-14 -4.59257e-15 0)
(-1.46027e-14 -4.3175e-15 0)
(-1.28675e-14 -3.56234e-15 0)
(-1.10485e-14 -3.3546e-15 0)
(-9.05562e-15 -2.57013e-15 0)
(-6.29244e-15 -1.71919e-15 0)
(-2.31485e-15 -5.85778e-16 0)
(-2.32689e-15 -4.52075e-16 0)
(-7.6231e-15 -3.66268e-16 0)
(-1.28671e-14 -9.88056e-16 0)
(-1.74419e-14 -2.01473e-15 0)
(-2.18758e-14 -2.52721e-15 0)
(-2.63716e-14 -2.08789e-15 0)
(-3.06535e-14 -1.39475e-15 0)
(-3.56503e-14 -1.4808e-15 0)
(-4.063e-14 -1.86021e-15 0)
(-4.36718e-14 -1.58391e-15 0)
(-4.59218e-14 -1.04048e-15 0)
(-4.90865e-14 -5.51506e-16 0)
(-5.24616e-14 5.55785e-16 0)
(-5.52911e-14 1.07273e-15 0)
(-5.88304e-14 1.56684e-15 0)
(-6.25046e-14 2.30608e-15 0)
(-6.57125e-14 2.79862e-15 0)
(-6.89327e-14 2.13672e-15 0)
(-7.33941e-14 5.70293e-16 0)
(-7.72937e-14 -1.35986e-15 0)
(-7.88532e-14 -2.99091e-15 0)
(-7.98948e-14 -3.84873e-15 0)
(-8.07245e-14 -4.45907e-15 0)
(-8.09013e-14 -3.58368e-15 0)
(-8.0416e-14 -2.30657e-15 0)
(-7.95168e-14 -2.02603e-15 0)
(-7.84598e-14 -1.75444e-15 0)
(-7.79836e-14 -1.75058e-15 0)
(-7.88947e-14 -1.50473e-15 0)
(-8.02805e-14 -2.03742e-15 0)
(-8.11707e-14 -3.44596e-15 0)
(-8.12477e-14 -4.09693e-15 0)
(-8.02445e-14 -4.14255e-15 0)
(-7.86709e-14 -4.28534e-15 0)
(-7.74352e-14 -4.58585e-15 0)
(-7.70046e-14 -4.57078e-15 0)
(-7.68796e-14 -4.0516e-15 0)
(-7.68262e-14 -3.17798e-15 0)
(-7.61729e-14 -2.75146e-15 0)
(-7.43279e-14 -2.80497e-15 0)
(-7.26907e-14 -3.04743e-15 0)
(-7.21607e-14 -4.02516e-15 0)
(-7.22842e-14 -4.66516e-15 0)
(-7.28516e-14 -4.48014e-15 0)
(-7.37244e-14 -3.97605e-15 0)
(-7.39048e-14 -2.74951e-15 0)
(-7.29726e-14 -1.37112e-15 0)
(-7.14923e-14 -6.87166e-16 0)
(-7.00569e-14 6.93269e-16 0)
(-6.91462e-14 2.49922e-15 0)
(-6.85411e-14 3.66795e-15 0)
(-6.7556e-14 3.74289e-15 0)
(-6.5954e-14 3.30685e-15 0)
(-6.43231e-14 2.95691e-15 0)
(-6.26864e-14 2.99693e-15 0)
(-6.02883e-14 3.51372e-15 0)
(-5.6543e-14 3.97564e-15 0)
(-5.25013e-14 3.20533e-15 0)
(-4.92745e-14 2.62111e-15 0)
(-4.73267e-14 2.45453e-15 0)
(-4.78035e-14 2.75755e-15 0)
(-5.02054e-14 2.3312e-15 0)
(-5.23439e-14 1.75051e-15 0)
(-5.3105e-14 1.1196e-15 0)
(-5.3103e-14 4.33977e-16 0)
(-5.25198e-14 -3.3442e-16 0)
(-5.19637e-14 -1.45531e-15 0)
(-5.14726e-14 -1.95953e-15 0)
(-5.12338e-14 -2.14924e-15 0)
(-5.16944e-14 -2.61693e-15 0)
(-5.19988e-14 -3.56487e-15 0)
(-5.2097e-14 -4.28473e-15 0)
(-5.26745e-14 -5.36369e-15 0)
(-5.27644e-14 -6.46209e-15 0)
(-5.21299e-14 -7.43623e-15 0)
(-5.1866e-14 -8.26157e-15 0)
(-5.2013e-14 -8.8781e-15 0)
(-5.21095e-14 -8.23787e-15 0)
(-5.28417e-14 -6.69261e-15 0)
(-5.39967e-14 -5.13585e-15 0)
(-5.42208e-14 -4.52723e-15 0)
(-5.42336e-14 -5.08264e-15 0)
(-5.43313e-14 -5.42007e-15 0)
(-5.29936e-14 -5.24715e-15 0)
(-4.99168e-14 -4.5457e-15 0)
(-4.74837e-14 -4.23525e-15 0)
(-4.61429e-14 -4.00602e-15 0)
(-4.36335e-14 -4.04999e-15 0)
(-3.93898e-14 -4.25531e-15 0)
(-3.5087e-14 -4.67094e-15 0)
(-3.08039e-14 -4.79607e-15 0)
(-2.68308e-14 -5.07393e-15 0)
(-2.33594e-14 -5.68365e-15 0)
(-2.04061e-14 -5.49588e-15 0)
(-1.81874e-14 -5.04467e-15 0)
(-1.5999e-14 -4.54078e-15 0)
(-1.35707e-14 -3.98159e-15 0)
(-1.08284e-14 -2.90004e-15 0)
(-7.40578e-15 -1.75632e-15 0)
(-2.66225e-15 -5.71663e-16 0)
(-2.51235e-15 -4.82053e-16 0)
(-8.72461e-15 -9.45334e-16 0)
(-1.55324e-14 -1.31923e-15 0)
(-2.08603e-14 -2.23595e-15 0)
(-2.55815e-14 -2.58565e-15 0)
(-3.07976e-14 -2.59986e-15 0)
(-3.60805e-14 -2.5923e-15 0)
(-4.20117e-14 -2.88253e-15 0)
(-4.74494e-14 -2.53894e-15 0)
(-5.08114e-14 -1.83264e-15 0)
(-5.39218e-14 -8.65485e-16 0)
(-5.77553e-14 -3.41351e-16 0)
(-6.19415e-14 6.02761e-16 0)
(-6.55887e-14 7.35182e-16 0)
(-6.91214e-14 1.00987e-15 0)
(-7.33062e-14 2.2301e-15 0)
(-7.77786e-14 2.66373e-15 0)
(-8.22123e-14 1.75272e-15 0)
(-8.74511e-14 9.8504e-17 0)
(-9.20715e-14 -1.31467e-15 0)
(-9.37607e-14 -2.67341e-15 0)
(-9.45827e-14 -3.47834e-15 0)
(-9.51685e-14 -3.57114e-15 0)
(-9.48582e-14 -3.39213e-15 0)
(-9.44538e-14 -2.70235e-15 0)
(-9.3863e-14 -2.32156e-15 0)
(-9.31023e-14 -1.88558e-15 0)
(-9.29835e-14 -2.19418e-15 0)
(-9.39902e-14 -2.58803e-15 0)
(-9.57586e-14 -3.04354e-15 0)
(-9.66898e-14 -4.26041e-15 0)
(-9.62467e-14 -4.89945e-15 0)
(-9.49529e-14 -5.2533e-15 0)
(-9.34265e-14 -5.53974e-15 0)
(-9.21503e-14 -5.64056e-15 0)
(-9.13564e-14 -5.49083e-15 0)
(-9.08416e-14 -4.75912e-15 0)
(-9.05907e-14 -3.91534e-15 0)
(-9.02461e-14 -3.06956e-15 0)
(-8.87017e-14 -3.58366e-15 0)
(-8.7157e-14 -4.22969e-15 0)
(-8.64473e-14 -5.33766e-15 0)
(-8.60709e-14 -5.40649e-15 0)
(-8.62269e-14 -4.83168e-15 0)
(-8.6593e-14 -3.93125e-15 0)
(-8.64936e-14 -2.33894e-15 0)
(-8.60117e-14 -1.28656e-15 0)
(-8.44608e-14 -8.15173e-16 0)
(-8.23069e-14 5.88151e-16 0)
(-8.12337e-14 2.40587e-15 0)
(-8.076e-14 3.82957e-15 0)
(-7.99474e-14 4.52209e-15 0)
(-7.84076e-14 4.34923e-15 0)
(-7.63281e-14 3.81243e-15 0)
(-7.39632e-14 4.04635e-15 0)
(-7.11055e-14 4.50384e-15 0)
(-6.73975e-14 4.62321e-15 0)
(-6.31403e-14 4.00203e-15 0)
(-5.94333e-14 3.70103e-15 0)
(-5.71939e-14 3.17973e-15 0)
(-5.76261e-14 2.93763e-15 0)
(-6.01878e-14 2.782e-15 0)
(-6.24933e-14 2.28059e-15 0)
(-6.34771e-14 1.14582e-15 0)
(-6.34519e-14 -2.23733e-17 0)
(-6.28113e-14 -1.14071e-15 0)
(-6.19983e-14 -2.11036e-15 0)
(-6.10625e-14 -2.53713e-15 0)
(-6.08608e-14 -2.66711e-15 0)
(-6.17696e-14 -3.14356e-15 0)
(-6.22183e-14 -4.01814e-15 0)
(-6.23982e-14 -5.35459e-15 0)
(-6.30477e-14 -6.82826e-15 0)
(-6.30378e-14 -7.9023e-15 0)
(-6.23375e-14 -8.98776e-15 0)
(-6.20294e-14 -9.9222e-15 0)
(-6.17211e-14 -1.04051e-14 0)
(-6.11565e-14 -9.48112e-15 0)
(-6.17005e-14 -8.55997e-15 0)
(-6.3034e-14 -6.83052e-15 0)
(-6.39942e-14 -5.74184e-15 0)
(-6.42233e-14 -6.16522e-15 0)
(-6.37425e-14 -6.14844e-15 0)
(-6.17045e-14 -5.78438e-15 0)
(-5.8579e-14 -4.65982e-15 0)
(-5.63282e-14 -5.09368e-15 0)
(-5.45173e-14 -5.41943e-15 0)
(-5.14827e-14 -5.34898e-15 0)
(-4.67232e-14 -5.32302e-15 0)
(-4.1668e-14 -5.84639e-15 0)
(-3.67133e-14 -6.10115e-15 0)
(-3.23969e-14 -6.27299e-15 0)
(-2.82602e-14 -6.56078e-15 0)
(-2.43995e-14 -6.58081e-15 0)
(-2.16068e-14 -6.1363e-15 0)
(-1.88903e-14 -5.68008e-15 0)
(-1.57184e-14 -4.67327e-15 0)
(-1.23092e-14 -3.43439e-15 0)
(-8.3365e-15 -1.89845e-15 0)
(-3.04014e-15 -5.68612e-16 0)
(-3.03168e-15 -4.56636e-16 0)
(-9.93817e-15 -1.53641e-15 0)
(-1.74117e-14 -1.67832e-15 0)
(-2.37882e-14 -1.66038e-15 0)
(-2.93169e-14 -2.26257e-15 0)
(-3.52392e-14 -2.94305e-15 0)
(-4.13332e-14 -3.42589e-15 0)
(-4.76167e-14 -3.88787e-15 0)
(-5.33424e-14 -3.15263e-15 0)
(-5.73558e-14 -2.16752e-15 0)
(-6.11121e-14 -1.16237e-15 0)
(-6.56015e-14 -5.53006e-16 0)
(-7.05057e-14 -2.05836e-16 0)
(-7.49895e-14 5.25938e-16 0)
(-7.88025e-14 7.97138e-16 0)
(-8.33653e-14 1.7103e-15 0)
(-8.91115e-14 1.77684e-15 0)
(-9.48225e-14 1.35932e-15 0)
(-1.00584e-13 -2.7461e-16 0)
(-1.05136e-13 -8.6761e-16 0)
(-1.07028e-13 -1.44832e-15 0)
(-1.07813e-13 -2.75461e-15 0)
(-1.08466e-13 -3.41042e-15 0)
(-1.08455e-13 -3.46947e-15 0)
(-1.08033e-13 -3.04104e-15 0)
(-1.07392e-13 -2.65074e-15 0)
(-1.06848e-13 -2.58835e-15 0)
(-1.06979e-13 -2.95502e-15 0)
(-1.08003e-13 -3.41852e-15 0)
(-1.10007e-13 -4.3748e-15 0)
(-1.11038e-13 -4.91365e-15 0)
(-1.10452e-13 -5.30798e-15 0)
(-1.09111e-13 -5.92236e-15 0)
(-1.07242e-13 -6.68578e-15 0)
(-1.05573e-13 -6.73912e-15 0)
(-1.04426e-13 -6.3296e-15 0)
(-1.03669e-13 -5.66553e-15 0)
(-1.0335e-13 -4.84545e-15 0)
(-1.03436e-13 -3.84266e-15 0)
(-1.02384e-13 -4.15797e-15 0)
(-1.00894e-13 -5.368e-15 0)
(-9.97158e-14 -6.16618e-15 0)
(-9.84746e-14 -6.08021e-15 0)
(-9.82944e-14 -4.97695e-15 0)
(-9.84347e-14 -3.50829e-15 0)
(-9.84966e-14 -1.93853e-15 0)
(-9.82793e-14 -1.22006e-15 0)
(-9.62963e-14 -3.42746e-16 0)
(-9.34999e-14 1.04493e-15 0)
(-9.20992e-14 2.31634e-15 0)
(-9.17709e-14 3.71407e-15 0)
(-9.13706e-14 4.63621e-15 0)
(-9.00731e-14 5.13431e-15 0)
(-8.75225e-14 4.89224e-15 0)
(-8.44728e-14 5.04477e-15 0)
(-8.13887e-14 5.35231e-15 0)
(-7.7613e-14 5.6095e-15 0)
(-7.31109e-14 5.23805e-15 0)
(-6.92044e-14 4.37211e-15 0)
(-6.68197e-14 3.64936e-15 0)
(-6.68286e-14 3.04651e-15 0)
(-6.93588e-14 2.73647e-15 0)
(-7.22179e-14 2.31161e-15 0)
(-7.34597e-14 1.20916e-15 0)
(-7.33878e-14 2.56732e-17 0)
(-7.25588e-14 -1.13499e-15 0)
(-7.13872e-14 -1.92311e-15 0)
(-7.01989e-14 -2.683e-15 0)
(-6.99604e-14 -3.43088e-15 0)
(-7.09727e-14 -4.13046e-15 0)
(-7.19328e-14 -5.04427e-15 0)
(-7.2493e-14 -6.60313e-15 0)
(-7.28925e-14 -8.26753e-15 0)
(-7.27216e-14 -9.75345e-15 0)
(-7.20554e-14 -1.08246e-14 0)
(-7.14961e-14 -1.16955e-14 0)
(-7.04819e-14 -1.1627e-14 0)
(-6.9743e-14 -1.05081e-14 0)
(-6.99909e-14 -9.59471e-15 0)
(-7.09828e-14 -7.99625e-15 0)
(-7.26087e-14 -7.03518e-15 0)
(-7.31457e-14 -6.99471e-15 0)
(-7.23477e-14 -6.7855e-15 0)
(-6.97897e-14 -6.10724e-15 0)
(-6.67588e-14 -5.79539e-15 0)
(-6.47052e-14 -6.31095e-15 0)
(-6.21607e-14 -6.47121e-15 0)
(-5.84132e-14 -6.19612e-15 0)
(-5.35044e-14 -6.30689e-15 0)
(-4.82322e-14 -7.00341e-15 0)
(-4.24989e-14 -7.45832e-15 0)
(-3.7407e-14 -7.43175e-15 0)
(-3.27811e-14 -7.38568e-15 0)
(-2.83544e-14 -7.46395e-15 0)
(-2.4916e-14 -7.25726e-15 0)
(-2.14595e-14 -6.70885e-15 0)
(-1.75887e-14 -5.26405e-15 0)
(-1.35475e-14 -4.06049e-15 0)
(-9.05132e-15 -2.41908e-15 0)
(-3.42835e-15 -7.57424e-16 0)
(-3.57062e-15 -3.94291e-16 0)
(-1.10369e-14 -1.34558e-15 0)
(-1.8775e-14 -1.59332e-15 0)
(-2.61189e-14 -1.64851e-15 0)
(-3.29778e-14 -2.40915e-15 0)
(-3.96719e-14 -3.38422e-15 0)
(-4.6296e-14 -3.69743e-15 0)
(-5.27707e-14 -4.04208e-15 0)
(-5.8529e-14 -3.49861e-15 0)
(-6.30257e-14 -2.34957e-15 0)
(-6.76903e-14 -1.6111e-15 0)
(-7.32256e-14 -1.16302e-15 0)
(-7.84766e-14 -8.85355e-16 0)
(-8.32655e-14 1.4746e-16 0)
(-8.76796e-14 7.79506e-16 0)
(-9.29701e-14 9.27261e-16 0)
(-9.93343e-14 8.45828e-16 0)
(-1.05899e-13 8.25017e-16 0)
(-1.12109e-13 9.6427e-17 0)
(-1.16738e-13 -2.47703e-16 0)
(-1.19655e-13 -1.28782e-15 0)
(-1.21139e-13 -2.85161e-15 0)
(-1.21303e-13 -3.77708e-15 0)
(-1.20562e-13 -3.40518e-15 0)
(-1.2006e-13 -3.01556e-15 0)
(-1.19863e-13 -2.78646e-15 0)
(-1.19719e-13 -2.97376e-15 0)
(-1.20019e-13 -3.43299e-15 0)
(-1.21482e-13 -4.09633e-15 0)
(-1.23322e-13 -5.59998e-15 0)
(-1.23841e-13 -5.91621e-15 0)
(-1.23428e-13 -6.14516e-15 0)
(-1.22347e-13 -6.51703e-15 0)
(-1.20324e-13 -7.41479e-15 0)
(-1.1809e-13 -7.59002e-15 0)
(-1.16666e-13 -7.06339e-15 0)
(-1.15726e-13 -6.54094e-15 0)
(-1.15062e-13 -5.78118e-15 0)
(-1.15341e-13 -5.21247e-15 0)
(-1.15187e-13 -5.22598e-15 0)
(-1.13768e-13 -6.28536e-15 0)
(-1.11919e-13 -6.42165e-15 0)
(-1.10017e-13 -6.28127e-15 0)
(-1.09084e-13 -5.46077e-15 0)
(-1.0906e-13 -3.61797e-15 0)
(-1.09444e-13 -1.7711e-15 0)
(-1.09331e-13 -3.91025e-16 0)
(-1.0705e-13 1.05248e-15 0)
(-1.04272e-13 1.98788e-15 0)
(-1.02772e-13 2.38825e-15 0)
(-1.02071e-13 3.18299e-15 0)
(-1.01394e-13 4.06438e-15 0)
(-1.00159e-13 5.19229e-15 0)
(-9.77547e-14 5.80576e-15 0)
(-9.43641e-14 6.00415e-15 0)
(-9.07606e-14 6.2103e-15 0)
(-8.68658e-14 6.59264e-15 0)
(-8.27966e-14 6.34255e-15 0)
(-7.88251e-14 5.09112e-15 0)
(-7.60183e-14 4.16873e-15 0)
(-7.59156e-14 3.49083e-15 0)
(-7.8222e-14 2.64868e-15 0)
(-8.10443e-14 2.13066e-15 0)
(-8.25312e-14 1.22542e-15 0)
(-8.24783e-14 -1.09149e-16 0)
(-8.14596e-14 -1.11453e-15 0)
(-8.02645e-14 -2.03058e-15 0)
(-7.92308e-14 -2.96707e-15 0)
(-7.89465e-14 -4.22932e-15 0)
(-7.99675e-14 -5.39404e-15 0)
(-8.10561e-14 -6.49344e-15 0)
(-8.18029e-14 -7.69296e-15 0)
(-8.24184e-14 -9.10247e-15 0)
(-8.20061e-14 -1.10016e-14 0)
(-8.09195e-14 -1.2391e-14 0)
(-7.98824e-14 -1.30138e-14 0)
(-7.82465e-14 -1.26865e-14 0)
(-7.71804e-14 -1.14671e-14 0)
(-7.74251e-14 -9.9569e-15 0)
(-7.86742e-14 -8.96819e-15 0)
(-8.06256e-14 -8.31987e-15 0)
(-8.11711e-14 -7.73003e-15 0)
(-7.99146e-14 -7.33747e-15 0)
(-7.74073e-14 -6.58751e-15 0)
(-7.46549e-14 -7.02119e-15 0)
(-7.21257e-14 -7.62633e-15 0)
(-6.89866e-14 -7.44488e-15 0)
(-6.50534e-14 -7.08667e-15 0)
(-6.00515e-14 -7.25293e-15 0)
(-5.42337e-14 -8.00012e-15 0)
(-4.77167e-14 -8.1627e-15 0)
(-4.2031e-14 -8.30863e-15 0)
(-3.70337e-14 -8.32186e-15 0)
(-3.21883e-14 -8.30318e-15 0)
(-2.81192e-14 -8.15262e-15 0)
(-2.36996e-14 -7.26283e-15 0)
(-1.92567e-14 -5.94337e-15 0)
(-1.48988e-14 -4.82489e-15 0)
(-9.74687e-15 -3.16475e-15 0)
(-3.62207e-15 -1.15654e-15 0)
(-3.92296e-15 -4.3772e-16 0)
(-1.19937e-14 -9.83238e-16 0)
(-2.0374e-14 -1.23705e-15 0)
(-2.866e-14 -1.82538e-15 0)
(-3.63574e-14 -2.87089e-15 0)
(-4.33965e-14 -3.73458e-15 0)
(-5.04204e-14 -3.87068e-15 0)
(-5.74141e-14 -3.81474e-15 0)
(-6.33304e-14 -3.44441e-15 0)
(-6.84389e-14 -2.73259e-15 0)
(-7.38964e-14 -2.37064e-15 0)
(-7.98549e-14 -1.92291e-15 0)
(-8.54008e-14 -9.75587e-16 0)
(-9.06346e-14 1.7101e-16 0)
(-9.6048e-14 4.74875e-16 0)
(-1.02031e-13 8.89073e-17 0)
(-1.08752e-13 7.60147e-17 0)
(-1.15748e-13 3.6693e-16 0)
(-1.22512e-13 4.85798e-16 0)
(-1.28001e-13 -4.42952e-16 0)
(-1.31424e-13 -2.24124e-15 0)
(-1.32674e-13 -3.31308e-15 0)
(-1.32356e-13 -3.33886e-15 0)
(-1.31724e-13 -3.11729e-15 0)
(-1.31649e-13 -3.30245e-15 0)
(-1.31587e-13 -3.15673e-15 0)
(-1.31642e-13 -3.25615e-15 0)
(-1.32181e-13 -4.06315e-15 0)
(-1.34012e-13 -5.03099e-15 0)
(-1.35783e-13 -6.2002e-15 0)
(-1.35882e-13 -6.77619e-15 0)
(-1.35318e-13 -7.23676e-15 0)
(-1.34426e-13 -7.28407e-15 0)
(-1.32346e-13 -7.73467e-15 0)
(-1.29549e-13 -7.82477e-15 0)
(-1.27794e-13 -7.53075e-15 0)
(-1.26752e-13 -7.04181e-15 0)
(-1.26255e-13 -6.92401e-15 0)
(-1.26736e-13 -6.68105e-15 0)
(-1.26692e-13 -6.57462e-15 0)
(-1.25107e-13 -7.02464e-15 0)
(-1.22886e-13 -6.90262e-15 0)
(-1.20817e-13 -6.19028e-15 0)
(-1.19292e-13 -5.45647e-15 0)
(-1.18594e-13 -3.71035e-15 0)
(-1.18892e-13 -1.93183e-15 0)
(-1.18813e-13 -4.86951e-17 0)
(-1.16928e-13 1.5803e-15 0)
(-1.14593e-13 2.43684e-15 0)
(-1.12921e-13 2.95805e-15 0)
(-1.11808e-13 3.58862e-15 0)
(-1.10692e-13 4.30155e-15 0)
(-1.0909e-13 4.99784e-15 0)
(-1.06694e-13 5.99449e-15 0)
(-1.03385e-13 6.61901e-15 0)
(-9.95816e-14 7.07051e-15 0)
(-9.55574e-14 7.26268e-15 0)
(-9.17144e-14 6.86509e-15 0)
(-8.78441e-14 5.86976e-15 0)
(-8.46871e-14 4.71833e-15 0)
(-8.43924e-14 3.81969e-15 0)
(-8.66449e-14 3.06889e-15 0)
(-8.94432e-14 2.51614e-15 0)
(-9.12004e-14 1.18599e-15 0)
(-9.11195e-14 -3.97348e-16 0)
(-8.98986e-14 -1.90572e-15 0)
(-8.8598e-14 -3.05129e-15 0)
(-8.7602e-14 -3.99503e-15 0)
(-8.74914e-14 -5.31269e-15 0)
(-8.83661e-14 -6.39151e-15 0)
(-8.93507e-14 -7.21537e-15 0)
(-9.01485e-14 -8.64815e-15 0)
(-9.10815e-14 -9.51967e-15 0)
(-9.09292e-14 -1.14713e-14 0)
(-8.93798e-14 -1.3431e-14 0)
(-8.7637e-14 -1.43004e-14 0)
(-8.53567e-14 -1.3933e-14 0)
(-8.3818e-14 -1.2398e-14 0)
(-8.42539e-14 -1.08727e-14 0)
(-8.5822e-14 -1.00553e-14 0)
(-8.76013e-14 -9.53806e-15 0)
(-8.8111e-14 -8.47057e-15 0)
(-8.69076e-14 -7.72751e-15 0)
(-8.45881e-14 -7.33465e-15 0)
(-8.20904e-14 -7.97071e-15 0)
(-7.90206e-14 -9.04441e-15 0)
(-7.51039e-14 -8.73749e-15 0)
(-7.08557e-14 -8.32599e-15 0)
(-6.59284e-14 -8.37879e-15 0)
(-5.97745e-14 -8.74829e-15 0)
(-5.27052e-14 -8.69122e-15 0)
(-4.66265e-14 -9.21707e-15 0)
(-4.10433e-14 -9.25241e-15 0)
(-3.57086e-14 -9.15023e-15 0)
(-3.08828e-14 -8.70043e-15 0)
(-2.58469e-14 -7.66166e-15 0)
(-2.1106e-14 -6.74013e-15 0)
(-1.61286e-14 -5.49162e-15 0)
(-1.03223e-14 -3.89813e-15 0)
(-3.63708e-15 -1.39078e-15 0)
(-4.08096e-15 -4.31186e-16 0)
(-1.25563e-14 -1.0013e-15 0)
(-2.174e-14 -1.6022e-15 0)
(-3.10568e-14 -1.8741e-15 0)
(-3.94823e-14 -2.54884e-15 0)
(-4.68364e-14 -3.73708e-15 0)
(-5.40702e-14 -4.13301e-15 0)
(-6.14123e-14 -4.0862e-15 0)
(-6.78811e-14 -3.30904e-15 0)
(-7.3529e-14 -2.82949e-15 0)
(-7.94831e-14 -2.35598e-15 0)
(-8.56318e-14 -1.99817e-15 0)
(-9.1359e-14 -1.03767e-15 0)
(-9.75562e-14 1.48706e-16 0)
(-1.03978e-13 2.16176e-16 0)
(-1.10332e-13 -4.61088e-16 0)
(-1.16984e-13 -6.79839e-16 0)
(-1.24194e-13 -3.70161e-16 0)
(-1.31995e-13 -4.76173e-16 0)
(-1.38672e-13 -1.51195e-15 0)
(-1.42267e-13 -3.02377e-15 0)
(-1.42945e-13 -3.50885e-15 0)
(-1.42573e-13 -3.56403e-15 0)
(-1.42275e-13 -3.68053e-15 0)
(-1.42072e-13 -3.93532e-15 0)
(-1.4198e-13 -3.73998e-15 0)
(-1.4265e-13 -3.88896e-15 0)
(-1.43665e-13 -4.77312e-15 0)
(-1.45444e-13 -6.02961e-15 0)
(-1.47027e-13 -6.53637e-15 0)
(-1.47037e-13 -6.89808e-15 0)
(-1.46225e-13 -7.62449e-15 0)
(-1.45105e-13 -8.03147e-15 0)
(-1.43063e-13 -7.86086e-15 0)
(-1.40215e-13 -7.97523e-15 0)
(-1.38282e-13 -7.85348e-15 0)
(-1.37371e-13 -7.69915e-15 0)
(-1.36765e-13 -7.91566e-15 0)
(-1.3691e-13 -7.84667e-15 0)
(-1.37111e-13 -7.62759e-15 0)
(-1.35528e-13 -7.4145e-15 0)
(-1.32685e-13 -7.16568e-15 0)
(-1.30214e-13 -6.13978e-15 0)
(-1.28418e-13 -4.90499e-15 0)
(-1.27523e-13 -3.62004e-15 0)
(-1.27683e-13 -2.20164e-15 0)
(-1.27515e-13 -6.36658e-16 0)
(-1.2577e-13 8.40219e-16 0)
(-1.23526e-13 2.31385e-15 0)
(-1.21855e-13 3.25392e-15 0)
(-1.20628e-13 3.89233e-15 0)
(-1.1948e-13 4.74956e-15 0)
(-1.17584e-13 5.16568e-15 0)
(-1.14755e-13 5.90302e-15 0)
(-1.11266e-13 6.9018e-15 0)
(-1.07468e-13 7.99359e-15 0)
(-1.03693e-13 7.93389e-15 0)
(-1.00028e-13 7.31538e-15 0)
(-9.62044e-14 6.62835e-15 0)
(-9.30002e-14 5.21296e-15 0)
(-9.23567e-14 3.5472e-15 0)
(-9.42301e-14 2.67517e-15 0)
(-9.73466e-14 2.07306e-15 0)
(-9.94863e-14 1.47841e-15 0)
(-9.9472e-14 3.13392e-17 0)
(-9.80466e-14 -1.94017e-15 0)
(-9.63614e-14 -3.47864e-15 0)
(-9.53946e-14 -5.06958e-15 0)
(-9.51682e-14 -6.71984e-15 0)
(-9.58033e-14 -7.42872e-15 0)
(-9.71449e-14 -8.29205e-15 0)
(-9.79315e-14 -9.6249e-15 0)
(-9.89446e-14 -1.05823e-14 0)
(-9.93613e-14 -1.21661e-14 0)
(-9.75226e-14 -1.42795e-14 0)
(-9.48304e-14 -1.51398e-14 0)
(-9.14835e-14 -1.44478e-14 0)
(-8.9604e-14 -1.29996e-14 0)
(-9.03729e-14 -1.15272e-14 0)
(-9.2301e-14 -1.0803e-14 0)
(-9.39395e-14 -1.01697e-14 0)
(-9.4123e-14 -9.17728e-15 0)
(-9.30987e-14 -8.68041e-15 0)
(-9.12679e-14 -8.82063e-15 0)
(-8.91758e-14 -9.05521e-15 0)
(-8.54508e-14 -9.96272e-15 0)