/*--------------------------------*- C++ -*----------------------------------*\
| =========                 |                                                 |
| \\      /  F ield         | OpenFOAM: The Open Source CFD Toolbox           |
|  \\    /   O peration     | Version:  v2012                                 |
|   \\  /    A nd           | Website:  www.openfoam.com                      |
|    \\/     M anipulation  |                                                 |
\*---------------------------------------------------------------------------*/
FoamFile
{
    version     2.0;
    format      ascii;
    class       volScalarField;
    location    "16.25";
    object      W;
}
// * * * * * * * * * * * * * * * * * * * * * * * * * * * * * * * * * * * * * //

dimensions      [0 0 -1 0 0 0 0];


internalField   nonuniform List<scalar> 
65536
(
2.25073e-14
2.25639e-14
2.29847e-14
2.37706e-14
2.49283e-14
2.64694e-14
2.84112e-14
3.07763e-14
3.35925e-14
3.68939e-14
4.07201e-14
4.51176e-14
5.01394e-14
5.58459e-14
6.23055e-14
6.95951e-14
7.78006e-14
8.70182e-14
9.73549e-14
1.08929e-13
1.21873e-13
1.36332e-13
1.52467e-13
1.70454e-13
1.90489e-13
2.12787e-13
2.37582e-13
2.65133e-13
2.95723e-13
3.2966e-13
3.67282e-13
4.08957e-13
4.55087e-13
5.06108e-13
5.62495e-13
6.24764e-13
6.93471e-13
7.69221e-13
8.52668e-13
9.44517e-13
1.04553e-12
1.15651e-12
1.27836e-12
1.412e-12
1.55844e-12
1.71877e-12
1.89414e-12
2.08576e-12
2.29495e-12
2.52308e-12
2.77161e-12
3.04209e-12
3.33615e-12
3.65551e-12
4.00195e-12
4.37735e-12
4.78368e-12
5.22299e-12
5.69738e-12
6.20905e-12
6.76025e-12
7.3533e-12
7.99058e-12
8.67451e-12
9.40753e-12
1.01921e-11
1.10308e-11
1.1926e-11
1.28802e-11
1.38959e-11
1.49755e-11
1.61211e-11
1.73351e-11
1.86196e-11
1.99764e-11
2.14074e-11
2.29142e-11
2.44981e-11
2.61603e-11
2.79016e-11
2.97226e-11
3.16236e-11
3.36043e-11
3.56642e-11
3.78026e-11
4.0018e-11
4.23087e-11
4.46724e-11
4.71064e-11
4.96076e-11
5.21722e-11
5.47961e-11
5.74744e-11
6.02022e-11
6.29736e-11
6.57825e-11
6.86224e-11
7.14861e-11
7.43664e-11
7.72554e-11
8.0145e-11
8.30268e-11
8.58922e-11
8.87325e-11
9.15387e-11
9.43018e-11
9.7013e-11
9.96632e-11
1.02244e-10
1.04746e-10
1.07161e-10
1.09482e-10
1.117e-10
1.13808e-10
1.158e-10
1.17668e-10
1.19409e-10
1.21015e-10
1.22483e-10
1.23808e-10
1.24988e-10
1.2602e-10
1.26902e-10
1.27633e-10
1.28212e-10
1.2864e-10
1.28917e-10
1.29044e-10
1.29023e-10
1.28857e-10
1.28548e-10
1.281e-10
1.27517e-10
1.26802e-10
1.2596e-10
1.24995e-10
1.23912e-10
1.22716e-10
1.21413e-10
1.20005e-10
1.185e-10
1.16902e-10
1.15215e-10
1.13444e-10
1.11595e-10
1.0967e-10
1.07675e-10
1.05614e-10
1.0349e-10
1.01307e-10
9.9068e-11
9.67769e-11
9.44364e-11
9.20494e-11
8.96186e-11
8.71468e-11
8.46364e-11
8.20901e-11
7.95105e-11
7.69002e-11
7.42619e-11
7.15988e-11
6.89138e-11
6.62105e-11
6.34926e-11
6.07642e-11
5.80298e-11
5.52943e-11
5.2563e-11
4.98418e-11
4.71368e-11
4.44547e-11
4.18025e-11
3.91877e-11
3.66177e-11
3.41005e-11
3.1644e-11
2.9256e-11
2.69443e-11
2.47165e-11
2.25797e-11
2.05405e-11
1.86049e-11
1.67782e-11
1.50648e-11
1.34681e-11
1.19907e-11
1.06338e-11
9.39782e-12
8.28196e-12
7.28435e-12
6.40211e-12
5.63133e-12
4.96722e-12
4.40412e-12
3.93563e-12
3.55471e-12
3.25373e-12
3.02463e-12
2.85901e-12
2.74823e-12
2.68354e-12
2.65619e-12
2.65758e-12
2.67937e-12
2.71363e-12
2.75295e-12
2.79062e-12
2.8207e-12
2.83818e-12
2.83903e-12
2.82028e-12
2.78005e-12
2.71755e-12
2.63298e-12
2.52753e-12
2.4032e-12
2.26265e-12
2.10909e-12
1.94601e-12
1.7771e-12
1.60597e-12
1.43608e-12
1.27056e-12
1.11212e-12
9.62964e-13
8.2479e-13
6.98751e-13
5.8549e-13
4.85188e-13
3.9762e-13
3.22235e-13
2.58225e-13
2.04609e-13
1.60299e-13
1.24164e-13
9.50811e-14
7.19798e-14
5.38671e-14
3.98485e-14
2.91377e-14
2.10589e-14
1.50428e-14
1.06198e-14
7.40935e-15
5.10857e-15
3.48064e-15
2.34347e-15
1.55929e-15
1.02563e-15
6.67473e-16
4.30857e-16
2.77741e-16
1.81984e-16
1.26349e-16
1.00382e-16
3.37848e-14
3.38712e-14
3.45066e-14
3.56923e-14
3.74382e-14
3.97623e-14
4.26908e-14
4.62579e-14
5.05063e-14
5.54874e-14
6.1262e-14
6.79005e-14
7.54837e-14
8.41037e-14
9.38644e-14
1.04883e-13
1.17291e-13
1.31234e-13
1.46877e-13
1.64399e-13
1.84003e-13
2.05909e-13
2.30365e-13
2.57641e-13
2.88034e-13
3.21874e-13
3.5952e-13
4.01367e-13
4.47849e-13
4.99437e-13
5.56651e-13
6.20054e-13
6.90261e-13
7.67941e-13
8.53823e-13
9.48696e-13
1.05342e-12
1.16891e-12
1.29618e-12
1.4363e-12
1.59044e-12
1.75985e-12
1.94588e-12
2.14996e-12
2.37364e-12
2.61857e-12
2.88651e-12
3.17931e-12
3.49898e-12
3.84761e-12
4.22742e-12
4.64076e-12
5.09011e-12
5.57804e-12
6.10728e-12
6.68065e-12
7.30111e-12
7.9717e-12
8.69559e-12
9.47603e-12
1.03164e-11
1.122e-11
1.21905e-11
1.32313e-11
1.43459e-11
1.55381e-11
1.68111e-11
1.81687e-11
1.96143e-11
2.11511e-11
2.27825e-11
2.45114e-11
2.63408e-11
2.82733e-11
3.03112e-11
3.24566e-11
3.47113e-11
3.70765e-11
3.95531e-11
4.21416e-11
4.48417e-11
4.76528e-11
5.05737e-11
5.36025e-11
5.67365e-11
5.99725e-11
6.33066e-11
6.67341e-11
7.02495e-11
7.38465e-11
7.75184e-11
8.12572e-11
8.50547e-11
8.89016e-11
9.27881e-11
9.67038e-11
1.00637e-10
1.04578e-10
1.08512e-10
1.12428e-10
1.16314e-10
1.20155e-10
1.23939e-10
1.27653e-10
1.31282e-10
1.34814e-10
1.38237e-10
1.41537e-10
1.44702e-10
1.47721e-10
1.50582e-10
1.53276e-10
1.55792e-10
1.58122e-10
1.60259e-10
1.62195e-10
1.63924e-10
1.65442e-10
1.66746e-10
1.67832e-10
1.68699e-10
1.69347e-10
1.69776e-10
1.69988e-10
1.69985e-10
1.69771e-10
1.69351e-10
1.68729e-10
1.67912e-10
1.66906e-10
1.65717e-10
1.64355e-10
1.62827e-10
1.6114e-10
1.59304e-10
1.57328e-10
1.55219e-10
1.52987e-10
1.50641e-10
1.48189e-10
1.45639e-10
1.43e-10
1.40278e-10
1.37482e-10
1.34619e-10
1.31696e-10
1.28717e-10
1.2569e-10
1.2262e-10
1.19512e-10
1.1637e-10
1.13199e-10
1.10003e-10
1.06784e-10
1.03547e-10
1.00294e-10
9.70291e-11
9.37539e-11
9.04714e-11
8.71844e-11
8.38954e-11
8.06073e-11
7.73231e-11
7.4046e-11
7.07794e-11
6.75271e-11
6.42932e-11
6.10824e-11
5.78996e-11
5.47501e-11
5.16398e-11
4.85749e-11
4.5562e-11
4.26079e-11
3.97199e-11
3.69052e-11
3.41712e-11
3.15254e-11
2.89748e-11
2.65264e-11
2.41867e-11
2.19617e-11
1.98566e-11
1.78761e-11
1.60236e-11
1.4302e-11
1.27128e-11
1.12567e-11
9.93313e-12
8.74046e-12
7.67603e-12
6.73609e-12
5.91596e-12
5.21005e-12
4.61192e-12
4.11445e-12
3.70987e-12
3.38988e-12
3.14581e-12
2.96863e-12
2.84916e-12
2.77814e-12
2.74635e-12
2.74475e-12
2.76463e-12
2.7977e-12
2.83627e-12
2.87335e-12
2.90281e-12
2.91946e-12
2.91914e-12
2.89879e-12
2.85649e-12
2.79139e-12
2.70375e-12
2.59476e-12
2.46649e-12
2.32168e-12
2.16362e-12
1.99589e-12
1.82227e-12
1.64647e-12
1.47202e-12
1.30212e-12
1.13954e-12
9.8655e-13
8.44859e-13
7.15645e-13
5.9956e-13
4.96779e-13
4.07066e-13
3.29848e-13
2.64294e-13
2.09394e-13
1.6403e-13
1.2704e-13
9.72739e-14
7.36328e-14
5.50991e-14
4.07563e-14
2.97991e-14
2.15351e-14
1.53818e-14
1.08584e-14
7.57526e-15
5.22261e-15
3.55812e-15
2.39549e-15
1.59382e-15
1.04829e-15
6.82178e-16
4.40326e-16
2.8383e-16
1.85964e-16
1.29106e-16
1.02571e-16
6.07875e-14
6.09469e-14
6.20987e-14
6.42454e-14
6.7405e-14
7.16105e-14
7.69098e-14
8.33656e-14
9.10558e-14
1.00075e-13
1.10533e-13
1.2256e-13
1.36303e-13
1.51931e-13
1.69634e-13
1.89627e-13
2.1215e-13
2.37471e-13
2.65891e-13
2.97742e-13
3.33392e-13
3.7325e-13
4.17767e-13
4.67441e-13
5.22821e-13
5.8451e-13
6.53172e-13
7.29533e-13
8.14392e-13
9.0862e-13
1.01317e-12
1.12909e-12
1.2575e-12
1.39965e-12
1.55688e-12
1.73064e-12
1.92251e-12
2.13421e-12
2.36758e-12
2.62461e-12
2.90746e-12
3.21844e-12
3.56001e-12
3.93484e-12
4.34578e-12
4.79585e-12
5.28829e-12
5.82653e-12
6.41422e-12
7.05522e-12
7.7536e-12
8.51364e-12
9.33986e-12
1.0237e-11
1.12099e-11
1.22638e-11
1.3404e-11
1.4636e-11
1.59654e-11
1.73981e-11
1.89401e-11
2.05974e-11
2.23761e-11
2.42825e-11
2.63226e-11
2.85026e-11
3.08285e-11
3.33063e-11
3.59416e-11
3.874e-11
4.17065e-11
4.4846e-11
4.81627e-11
5.16605e-11
5.53425e-11
5.92113e-11
6.32685e-11
6.75151e-11
7.19512e-11
7.65756e-11
8.13865e-11
8.63805e-11
9.15534e-11
9.68995e-11
1.02412e-10
1.08082e-10
1.13901e-10
1.19857e-10
1.25938e-10
1.3213e-10
1.38418e-10
1.44786e-10
1.51215e-10
1.57687e-10
1.64181e-10
1.70676e-10
1.77152e-10
1.83583e-10
1.89948e-10
1.96223e-10
2.02382e-10
2.08403e-10
2.14261e-10
2.19931e-10
2.25392e-10
2.30619e-10
2.35591e-10
2.40288e-10
2.44689e-10
2.48777e-10
2.52535e-10
2.55948e-10
2.59003e-10
2.61689e-10
2.63997e-10
2.65921e-10
2.67454e-10
2.68595e-10
2.69343e-10
2.69699e-10
2.69668e-10
2.69254e-10
2.68466e-10
2.67312e-10
2.65803e-10
2.63952e-10
2.61773e-10
2.5928e-10
2.5649e-10
2.53419e-10
2.50085e-10
2.46506e-10
2.427e-10
2.38685e-10
2.34481e-10
2.30104e-10
2.25575e-10
2.20909e-10
2.16124e-10
2.11237e-10
2.06263e-10
2.01217e-10
1.96114e-10
1.90966e-10
1.85786e-10
1.80584e-10
1.75372e-10
1.70159e-10
1.64954e-10
1.59763e-10
1.54594e-10
1.49453e-10
1.44344e-10
1.39274e-10
1.34244e-10
1.2926e-10
1.24324e-10
1.19439e-10
1.14606e-10
1.09829e-10
1.05109e-10
1.00449e-10
9.58507e-11
9.13161e-11
8.68482e-11
8.24495e-11
7.81234e-11
7.38733e-11
6.97031e-11
6.56173e-11
6.16205e-11
5.7718e-11
5.39152e-11
5.02179e-11
4.66322e-11
4.31644e-11
3.98206e-11
3.6607e-11
3.35296e-11
3.05941e-11
2.78055e-11
2.51685e-11
2.26869e-11
2.03637e-11
1.82011e-11
1.62e-11
1.43605e-11
1.26815e-11
1.11607e-11
9.79472e-12
8.57915e-12
7.50851e-12
6.57636e-12
5.77541e-12
5.09757e-12
4.53409e-12
4.07564e-12
3.71245e-12
3.43441e-12
3.23117e-12
3.09228e-12
3.0073e-12
2.96594e-12
2.95815e-12
2.97433e-12
3.00536e-12
3.04286e-12
3.07922e-12
3.10779e-12
3.12296e-12
3.12025e-12
3.09637e-12
3.04927e-12
2.97806e-12
2.883e-12
2.76538e-12
2.62742e-12
2.47205e-12
2.30275e-12
2.12337e-12
1.9379e-12
1.75028e-12
1.56428e-12
1.38326e-12
1.21015e-12
1.04735e-12
8.96654e-13
7.59299e-13
6.35957e-13
5.26796e-13
4.31553e-13
3.49605e-13
2.80059e-13
2.21835e-13
1.73738e-13
1.34531e-13
1.0299e-13
7.7945e-14
5.83154e-14
4.3128e-14
3.1528e-14
2.2781e-14
1.62693e-14
1.14832e-14
8.0101e-15
5.52169e-15
3.76142e-15
2.53206e-15
1.6845e-15
1.10781e-15
7.20838e-16
4.65234e-16
2.99856e-16
1.96445e-16
1.3637e-16
1.08336e-16
1.14513e-13
1.14822e-13
1.17009e-13
1.21078e-13
1.27065e-13
1.35033e-13
1.45073e-13
1.57306e-13
1.7188e-13
1.88977e-13
2.08808e-13
2.31619e-13
2.57695e-13
2.87357e-13
3.20971e-13
3.58947e-13
4.01748e-13
4.49887e-13
5.0394e-13
5.64545e-13
6.3241e-13
7.08321e-13
7.93145e-13
8.8784e-13
9.93462e-13
1.11117e-12
1.24225e-12
1.38809e-12
1.55024e-12
1.73038e-12
1.93035e-12
2.15215e-12
2.39798e-12
2.67022e-12
2.97147e-12
3.30454e-12
3.67248e-12
4.0786e-12
4.52647e-12
5.01995e-12
5.56317e-12
6.16061e-12
6.81705e-12
7.53762e-12
8.32782e-12
9.19349e-12
1.01409e-11
1.11766e-11
1.23076e-11
1.35415e-11
1.48859e-11
1.63491e-11
1.79398e-11
1.96671e-11
2.15402e-11
2.3569e-11
2.57636e-11
2.81345e-11
3.06924e-11
3.34483e-11
3.64133e-11
3.95988e-11
4.30161e-11
4.66766e-11
5.05917e-11
5.47724e-11
5.92298e-11
6.39742e-11
6.90158e-11
7.43639e-11
8.00272e-11
8.60136e-11
9.23297e-11
9.89813e-11
1.05973e-10
1.13306e-10
1.20984e-10
1.29005e-10
1.37366e-10
1.46063e-10
1.5509e-10
1.64436e-10
1.74091e-10
1.8404e-10
1.94267e-10
2.04752e-10
2.15472e-10
2.26404e-10
2.3752e-10
2.48788e-10
2.60177e-10
2.71652e-10
2.83175e-10
2.94706e-10
3.06204e-10
3.17625e-10
3.28927e-10
3.40062e-10
3.50984e-10
3.61649e-10
3.72007e-10
3.82015e-10
3.91625e-10
4.00795e-10
4.09482e-10
4.17644e-10
4.25245e-10
4.32249e-10
4.38624e-10
4.4434e-10
4.49373e-10
4.53701e-10
4.57307e-10
4.60179e-10
4.62307e-10
4.63688e-10
4.64321e-10
4.64211e-10
4.63367e-10
4.61801e-10
4.5953e-10
4.56575e-10
4.52959e-10
4.48709e-10
4.43854e-10
4.38427e-10
4.32461e-10
4.25993e-10
4.1906e-10
4.11699e-10
4.03949e-10
3.95849e-10
3.87439e-10
3.78755e-10
3.69837e-10
3.6072e-10
3.5144e-10
3.42031e-10
3.32527e-10
3.22956e-10
3.13349e-10
3.03731e-10
2.94128e-10
2.84563e-10
2.75056e-10
2.65625e-10
2.56288e-10
2.47059e-10
2.3795e-10
2.28973e-10
2.20137e-10
2.11449e-10
2.02917e-10
1.94544e-10
1.86335e-10
1.78292e-10
1.70418e-10
1.62713e-10
1.55178e-10
1.47814e-10
1.4062e-10
1.33597e-10
1.26743e-10
1.20059e-10
1.13544e-10
1.07199e-10
1.01024e-10
9.50209e-11
8.91901e-11
8.35337e-11
7.80541e-11
7.27539e-11
6.76364e-11
6.27049e-11
5.79632e-11
5.34152e-11
4.90647e-11
4.49156e-11
4.09714e-11
3.72354e-11
3.37103e-11
3.03982e-11
2.73002e-11
2.44168e-11
2.17474e-11
1.92901e-11
1.70423e-11
1.49999e-11
1.31577e-11
1.15094e-11
1.00478e-11
8.76448e-12
7.65009e-12
6.69458e-12
5.88712e-12
5.21634e-12
4.67037e-12
4.23701e-12
3.90383e-12
3.6583e-12
3.48794e-12
3.3804e-12
3.3236e-12
3.3059e-12
3.31619e-12
3.34408e-12
3.37999e-12
3.41532e-12
3.44257e-12
3.45546e-12
3.44897e-12
3.41946e-12
3.36463e-12
3.28351e-12
3.17641e-12
3.04476e-12
2.89101e-12
2.71839e-12
2.53076e-12
2.33233e-12
2.12749e-12
1.92055e-12
1.71562e-12
1.51638e-12
1.32603e-12
1.14715e-12
9.81691e-13
8.30983e-13
6.95734e-13
5.76105e-13
4.71783e-13
3.82068e-13
3.05968e-13
2.42283e-13
1.89697e-13
1.46848e-13
1.12388e-13
8.50362e-14
6.36051e-14
4.7029e-14
3.4372e-14
2.48307e-14
1.77295e-14
1.25114e-14
8.72569e-15
6.01391e-15
4.09603e-15
2.75686e-15
1.83377e-15
1.2058e-15
7.84491e-16
5.06247e-16
3.26247e-16
2.13706e-16
1.48334e-16
1.1783e-16
2.15924e-13
2.16523e-13
2.20679e-13
2.28401e-13
2.39758e-13
2.5487e-13
2.73912e-13
2.97116e-13
3.24767e-13
3.57209e-13
3.9485e-13
4.38162e-13
4.87688e-13
5.44046e-13
6.07935e-13
6.80145e-13
7.6156e-13
8.5317e-13
9.56078e-13
1.07151e-12
1.20083e-12
1.34555e-12
1.50733e-12
1.68803e-12
1.88966e-12
2.11449e-12
2.36496e-12
2.64378e-12
2.95392e-12
3.29862e-12
3.68145e-12
4.10627e-12
4.57733e-12
5.09924e-12
5.677e-12
6.31607e-12
7.02235e-12
7.80224e-12
8.66264e-12
9.61102e-12
1.06554e-11
1.18044e-11
1.30674e-11
1.44542e-11
1.59754e-11
1.76424e-11
1.94673e-11
2.14628e-11
2.36424e-11
2.60206e-11
2.86123e-11
3.14335e-11
3.45007e-11
3.78314e-11
4.14435e-11
4.53559e-11
4.95878e-11
5.41592e-11
5.90905e-11
6.44025e-11
7.01163e-11
7.62532e-11
8.28346e-11
8.98816e-11
9.74151e-11
1.05456e-10
1.14023e-10
1.23136e-10
1.32813e-10
1.4307e-10
1.53921e-10
1.65381e-10
1.77458e-10
1.90162e-10
2.03497e-10
2.17466e-10
2.32067e-10
2.47296e-10
2.63144e-10
2.79597e-10
2.96638e-10
3.14243e-10
3.32386e-10
3.51034e-10
3.7015e-10
3.89689e-10
4.09604e-10
4.29841e-10
4.50342e-10
4.71042e-10
4.91873e-10
5.12763e-10
5.33634e-10
5.54406e-10
5.74995e-10
5.95315e-10
6.15278e-10
6.34794e-10
6.53774e-10
6.72128e-10
6.89767e-10
7.06605e-10
7.22557e-10
7.37544e-10
7.51489e-10
7.6432e-10
7.75972e-10
7.86386e-10
7.95511e-10
8.03302e-10
8.09722e-10
8.14744e-10
8.18348e-10
8.20523e-10
8.21269e-10
8.20593e-10
8.18509e-10
8.15043e-10
8.10227e-10
8.041e-10
7.96711e-10
7.88111e-10
7.78361e-10
7.67526e-10
7.55673e-10
7.42876e-10
7.29211e-10
7.14754e-10
6.99585e-10
6.83784e-10
6.67429e-10
6.50599e-10
6.33372e-10
6.15821e-10
5.98021e-10
5.8004e-10
5.61944e-10
5.43796e-10
5.25655e-10
5.07574e-10
4.89604e-10
4.71791e-10
4.54174e-10
4.36792e-10
4.19677e-10
4.02858e-10
3.86357e-10
3.70198e-10
3.54395e-10
3.38963e-10
3.23912e-10
3.0925e-10
2.94981e-10
2.81109e-10
2.67634e-10
2.54555e-10
2.4187e-10
2.29573e-10
2.17662e-10
2.06129e-10
1.9497e-10
1.84177e-10
1.73744e-10
1.63665e-10
1.53933e-10
1.44543e-10
1.3549e-10
1.26768e-10
1.18373e-10
1.10302e-10
1.02551e-10
9.51191e-11
8.80033e-11
8.12025e-11
7.47159e-11
6.85426e-11
6.26822e-11
5.7134e-11
5.18973e-11
4.6971e-11
4.23533e-11
3.80419e-11
3.40339e-11
3.0325e-11
2.69103e-11
2.37835e-11
2.09373e-11
1.83633e-11
1.60517e-11
1.39917e-11
1.21717e-11
1.05788e-11
9.19951e-12
8.01951e-12
7.02396e-12
6.19755e-12
5.5247e-12
4.98962e-12
4.57652e-12
4.2697e-12
4.05367e-12
3.91333e-12
3.83405e-12
3.80184e-12
3.80348e-12
3.82666e-12
3.86014e-12
3.89389e-12
3.91918e-12
3.92875e-12
3.91684e-12
3.87926e-12
3.8134e-12
3.71817e-12
3.59391e-12
3.44228e-12
3.26605e-12
3.0689e-12
2.85518e-12
2.62964e-12
2.39722e-12
2.16279e-12
1.93092e-12
1.70577e-12
1.49087e-12
1.28911e-12
1.10266e-12
9.32952e-13
7.80764e-13
6.46241e-13
5.29005e-13
4.28243e-13
3.42817e-13
2.71365e-13
2.12394e-13
1.64364e-13
1.25755e-13
9.5121e-14
7.11279e-14
5.25768e-14
3.84166e-14
2.77455e-14
1.9806e-14
1.39736e-14
9.74328e-15
6.71385e-15
4.57185e-15
3.07654e-15
2.04604e-15
1.34515e-15
8.75009e-16
5.64571e-16
3.63776e-16
2.38252e-16
1.65348e-16
1.31332e-16
4.02666e-13
4.03818e-13
4.11634e-13
4.26132e-13
4.47443e-13
4.75797e-13
5.11528e-13
5.5507e-13
6.06966e-13
6.67871e-13
7.38553e-13
8.19909e-13
9.12968e-13
1.0189e-12
1.13904e-12
1.27488e-12
1.42809e-12
1.60057e-12
1.7944e-12
2.01192e-12
2.25573e-12
2.52869e-12
2.83398e-12
3.17512e-12
3.55598e-12
3.98084e-12
4.4544e-12
4.98181e-12
5.56875e-12
6.22141e-12
6.9466e-12
7.75173e-12
8.64491e-12
9.63495e-12
1.07315e-11
1.19449e-11
1.32865e-11
1.47686e-11
1.64043e-11
1.82081e-11
2.01953e-11
2.23825e-11
2.47874e-11
2.7429e-11
3.03278e-11
3.35053e-11
3.69848e-11
4.07907e-11
4.49489e-11
4.94869e-11
5.44335e-11
5.98191e-11
6.56752e-11
7.20351e-11
7.89332e-11
8.64049e-11
9.44872e-11
1.03218e-10
1.12635e-10
1.22778e-10
1.33687e-10
1.45402e-10
1.57962e-10
1.71406e-10
1.85774e-10
2.01103e-10
2.17428e-10
2.34784e-10
2.53201e-10
2.7271e-10
2.93334e-10
3.15094e-10
3.38007e-10
3.62083e-10
3.87328e-10
4.13741e-10
4.41312e-10
4.70027e-10
4.99862e-10
5.30783e-10
5.62749e-10
5.95709e-10
6.29601e-10
6.64356e-10
6.99891e-10
7.36115e-10
7.72927e-10
8.10215e-10
8.47858e-10
8.85725e-10
9.23678e-10
9.61568e-10
9.99243e-10
1.03654e-09
1.0733e-09
1.10934e-09
1.14451e-09
1.17862e-09
1.21151e-09
1.243e-09
1.27293e-09
1.30115e-09
1.32749e-09
1.35181e-09
1.37398e-09
1.39387e-09
1.41139e-09
1.42642e-09
1.43889e-09
1.44874e-09
1.45592e-09
1.4604e-09
1.46216e-09
1.46121e-09
1.45758e-09
1.45131e-09
1.44244e-09
1.43106e-09
1.41724e-09
1.4011e-09
1.38274e-09
1.36228e-09
1.33987e-09
1.31564e-09
1.28974e-09
1.26233e-09
1.23356e-09
1.20359e-09
1.17258e-09
1.14069e-09
1.10807e-09
1.07487e-09
1.04124e-09
1.00732e-09
9.73237e-10
9.39127e-10
9.05104e-10
8.71276e-10
8.37745e-10
8.04602e-10
7.71929e-10
7.398e-10
7.08279e-10
6.77422e-10
6.47275e-10
6.1788e-10
5.89266e-10
5.6146e-10
5.34479e-10
5.08335e-10
4.83034e-10
4.5858e-10
4.34968e-10
4.12193e-10
3.90244e-10
3.69109e-10
3.48773e-10
3.29219e-10
3.10429e-10
2.92383e-10
2.75062e-10
2.58447e-10
2.42516e-10
2.2725e-10
2.12631e-10
1.98638e-10
1.85256e-10
1.72466e-10
1.60254e-10
1.48605e-10
1.37505e-10
1.26943e-10
1.16907e-10
1.07385e-10
9.83696e-11
8.98502e-11
8.18184e-11
7.42657e-11
6.71835e-11
6.05632e-11
5.43958e-11
4.86716e-11
4.33803e-11
3.85109e-11
3.4051e-11
2.99876e-11
2.63064e-11
2.2992e-11
2.00281e-11
1.73971e-11
1.50808e-11
1.306e-11
1.1315e-11
9.82554e-12
8.57092e-12
7.53036e-12
6.68298e-12
6.00803e-12
5.48501e-12
5.0938e-12
4.81482e-12
4.62913e-12
4.51861e-12
4.46606e-12
4.45538e-12
4.47167e-12
4.50143e-12
4.53267e-12
4.55503e-12
4.55992e-12
4.54057e-12
4.49206e-12
4.41135e-12
4.29718e-12
4.14996e-12
3.97161e-12
3.76536e-12
3.53547e-12
3.28694e-12
3.02526e-12
2.7561e-12
2.48503e-12
2.2173e-12
1.95764e-12
1.71007e-12
1.47787e-12
1.26347e-12
1.0685e-12
8.93779e-13
7.39451e-13
6.05044e-13
4.89594e-13
3.91774e-13
3.09999e-13
2.42544e-13
1.8763e-13
1.43507e-13
1.08514e-13
8.11172e-14
5.9943e-14
4.37865e-14
3.16153e-14
2.25626e-14
1.59145e-14
1.1094e-14
7.64292e-15
5.2034e-15
3.50082e-15
2.32776e-15
1.53009e-15
9.95134e-16
6.41969e-16
4.13579e-16
2.70826e-16
1.87925e-16
1.49249e-16
7.40466e-13
7.42652e-13
7.57152e-13
7.84005e-13
8.23454e-13
8.75934e-13
9.42067e-13
1.02267e-12
1.11875e-12
1.23154e-12
1.36247e-12
1.51322e-12
1.68571e-12
1.88214e-12
2.105e-12
2.35708e-12
2.64154e-12
2.96189e-12
3.32208e-12
3.72647e-12
4.17994e-12
4.68788e-12
5.25627e-12
5.89171e-12
6.6015e-12
7.39367e-12
8.27708e-12
9.26145e-12
1.03575e-11
1.15768e-11
1.29324e-11
1.44381e-11
1.61093e-11
1.79626e-11
2.00162e-11
2.22898e-11
2.48049e-11
2.75846e-11
3.06539e-11
3.40399e-11
3.77719e-11
4.18811e-11
4.64012e-11
5.13682e-11
5.68208e-11
6.28e-11
6.93495e-11
7.65158e-11
8.43479e-11
9.28977e-11
1.0222e-10
1.12371e-10
1.23413e-10
1.35406e-10
1.48415e-10
1.62509e-10
1.77756e-10
1.94226e-10
2.11992e-10
2.31127e-10
2.51706e-10
2.73801e-10
2.97488e-10
3.22837e-10
3.4992e-10
3.78805e-10
4.09557e-10
4.42236e-10
4.76898e-10
5.13591e-10
5.52357e-10
5.9323e-10
6.36234e-10
6.81381e-10
7.28674e-10
7.781e-10
8.29635e-10
8.83238e-10
9.38852e-10
9.96402e-10
1.0558e-09
1.11693e-09
1.17967e-09
1.24386e-09
1.30934e-09
1.37593e-09
1.44341e-09
1.51155e-09
1.58013e-09
1.64886e-09
1.71748e-09
1.78571e-09
1.85322e-09
1.91972e-09
1.98489e-09
2.04839e-09
2.10991e-09
2.16912e-09
2.22569e-09
2.27932e-09
2.32969e-09
2.37652e-09
2.41954e-09
2.45848e-09
2.49313e-09
2.52326e-09
2.54871e-09
2.56933e-09
2.58499e-09
2.59562e-09
2.60116e-09
2.6016e-09
2.59696e-09
2.58729e-09
2.57268e-09
2.55325e-09
2.52914e-09
2.50054e-09
2.46765e-09
2.43069e-09
2.38993e-09
2.34563e-09
2.29806e-09
2.24754e-09
2.19435e-09
2.13882e-09
2.08125e-09
2.02194e-09
1.96122e-09
1.89937e-09
1.8367e-09
1.77347e-09
1.70996e-09
1.64643e-09
1.5831e-09
1.5202e-09
1.45793e-09
1.39647e-09
1.336e-09
1.27665e-09
1.21856e-09
1.16184e-09
1.10658e-09
1.05287e-09
1.00075e-09
9.50284e-10
9.015e-10
8.5442e-10
8.09054e-10
7.65401e-10
7.23451e-10
6.83186e-10
6.44582e-10
6.07607e-10
5.72225e-10
5.38397e-10
5.06079e-10
4.75227e-10
4.45792e-10
4.17728e-10
3.90986e-10
3.65518e-10
3.41276e-10
3.18215e-10
2.9629e-10
2.75457e-10
2.55675e-10
2.36906e-10
2.19111e-10
2.02256e-10
1.86308e-10
1.71237e-10
1.57013e-10
1.4361e-10
1.31002e-10
1.19164e-10
1.08074e-10
9.771e-11
8.80497e-11
7.90719e-11
7.07555e-11
6.30789e-11
5.60204e-11
4.95576e-11
4.36673e-11
3.83257e-11
3.35079e-11
2.91886e-11
2.53411e-11
2.19385e-11
1.8953e-11
1.63563e-11
1.412e-11
1.22152e-11
1.06135e-11
9.28624e-12
8.20539e-12
7.34337e-12
6.67328e-12
6.16905e-12
5.80556e-12
5.55879e-12
5.40592e-12
5.32553e-12
5.29766e-12
5.30404e-12
5.32817e-12
5.35549e-12
5.37352e-12
5.37192e-12
5.3426e-12
5.2797e-12
5.17962e-12
5.04086e-12
4.86392e-12
4.65108e-12
4.40612e-12
4.13405e-12
3.84073e-12
3.53258e-12
3.2162e-12
2.89808e-12
2.5843e-12
2.28035e-12
1.99087e-12
1.71962e-12
1.4694e-12
1.24203e-12
1.03845e-12
8.58747e-13
7.02347e-13
5.68091e-13
4.54403e-13
3.59416e-13
2.81103e-13
2.1738e-13
1.66205e-13
1.25635e-13
9.38865e-14
6.93583e-14
5.06495e-14
3.65606e-14
2.60849e-14
1.83944e-14
1.28197e-14
8.82979e-15
6.01014e-15
4.04277e-15
2.68759e-15
1.76628e-15
1.14855e-15
7.40813e-16
4.77179e-16
3.12422e-16
2.16755e-16
1.72127e-16
1.34179e-12
1.34589e-12
1.37241e-12
1.42144e-12
1.49343e-12
1.58919e-12
1.70985e-12
1.85693e-12
2.0323e-12
2.2382e-12
2.4773e-12
2.75267e-12
3.06788e-12
3.42697e-12
3.83453e-12
4.29574e-12
4.81641e-12
5.40306e-12
6.06295e-12
6.8042e-12
7.63581e-12
8.56778e-12
9.61118e-12
1.07783e-11
1.20826e-11
1.3539e-11
1.51641e-11
1.69758e-11
1.8994e-11
2.12406e-11
2.37393e-11
2.65163e-11
2.96001e-11
3.30217e-11
3.6815e-11
4.10168e-11
4.56671e-11
5.08091e-11
5.64898e-11
6.27595e-11
6.9673e-11
7.72887e-11
8.56697e-11
9.48834e-11
1.05002e-10
1.16102e-10
1.28266e-10
1.4158e-10
1.56136e-10
1.72031e-10
1.89367e-10
2.08251e-10
2.28796e-10
2.51117e-10
2.75335e-10
3.01576e-10
3.29967e-10
3.60641e-10
3.93731e-10
4.29374e-10
4.67704e-10
5.0886e-10
5.52974e-10
6.00181e-10
6.50608e-10
7.04378e-10
7.61607e-10
8.22403e-10
8.86861e-10
9.55067e-10
1.02709e-09
1.10298e-09
1.18277e-09
1.26648e-09
1.35409e-09
1.44557e-09
1.54085e-09
1.63984e-09
1.74242e-09
1.84842e-09
1.95766e-09
2.0699e-09
2.18489e-09
2.30231e-09
2.42184e-09
2.54309e-09
2.66565e-09
2.78909e-09
2.91291e-09
3.03661e-09
3.15965e-09
3.28148e-09
3.4015e-09
3.51913e-09
3.63376e-09
3.74478e-09
3.85156e-09
3.95352e-09
4.05004e-09
4.14057e-09
4.22455e-09
4.30145e-09
4.37081e-09
4.43217e-09
4.48515e-09
4.52941e-09
4.56467e-09
4.59071e-09
4.60737e-09
4.61456e-09
4.61226e-09
4.60051e-09
4.57941e-09
4.54914e-09
4.50993e-09
4.46209e-09
4.40596e-09
4.34194e-09
4.27049e-09
4.19209e-09
4.10726e-09
4.01657e-09
3.92057e-09
3.81987e-09
3.71506e-09
3.60674e-09
3.4955e-09
3.38195e-09
3.26665e-09
3.15015e-09
3.033e-09
2.9157e-09
2.79872e-09
2.6825e-09
2.56746e-09
2.45396e-09
2.34236e-09
2.23293e-09
2.12595e-09
2.02164e-09
1.9202e-09
1.82179e-09
1.72652e-09
1.63449e-09
1.54578e-09
1.46042e-09
1.37844e-09
1.29982e-09
1.22455e-09
1.15259e-09
1.08388e-09
1.01835e-09
9.55934e-10
8.9654e-10
8.40077e-10
7.86447e-10
7.35548e-10
6.87278e-10
6.41531e-10
5.98203e-10
5.57191e-10
5.18393e-10
4.81709e-10
4.47044e-10
4.14305e-10
3.83404e-10
3.54256e-10
3.2678e-10
3.00902e-10
2.7655e-10
2.53656e-10
2.32157e-10
2.11994e-10
1.93111e-10
1.75455e-10
1.58978e-10
1.4363e-10
1.29369e-10
1.16149e-10
1.0393e-10
9.26708e-11
8.23305e-11
7.28693e-11
6.42477e-11
5.64257e-11
4.93632e-11
4.30201e-11
3.73555e-11
3.23287e-11
2.78986e-11
2.40239e-11
2.06637e-11
1.77772e-11
1.53239e-11
1.32642e-11
1.15591e-11
1.01708e-11
9.06252e-12
8.19874e-12
7.5455e-12
7.07035e-12
6.74253e-12
6.53311e-12
6.41511e-12
6.3636e-12
6.3559e-12
6.37165e-12
6.39301e-12
6.40472e-12
6.39424e-12
6.35176e-12
6.27025e-12
6.14536e-12
5.97531e-12
5.76069e-12
5.50422e-12
5.2104e-12
4.88514e-12
4.53542e-12
4.16878e-12
3.79303e-12
3.41577e-12
3.04417e-12
2.68461e-12
2.34255e-12
2.02233e-12
1.72719e-12
1.45923e-12
1.21947e-12
1.00799e-12
8.24055e-13
6.66258e-13
5.32712e-13
4.21194e-13
3.29298e-13
2.54561e-13
1.94566e-13
1.47026e-13
1.09838e-13
8.1118e-14
5.92204e-14
4.27357e-14
3.04829e-14
2.14904e-14
1.49739e-14
1.03112e-14
7.01704e-15
4.71912e-15
3.13663e-15
2.06102e-15
1.33998e-15
8.64142e-16
5.56529e-16
3.64317e-16
2.52722e-16
2.00668e-16
2.39573e-12
2.40329e-12
2.45112e-12
2.53937e-12
2.66887e-12
2.84109e-12
3.05811e-12
3.32267e-12
3.63817e-12
4.0087e-12
4.43909e-12
4.93495e-12
5.50275e-12
6.14985e-12
6.88461e-12
7.71645e-12
8.65597e-12
9.71505e-12
1.09069e-11
1.22464e-11
1.375e-11
1.54359e-11
1.73243e-11
1.94377e-11
2.18009e-11
2.44412e-11
2.73886e-11
3.06764e-11
3.4341e-11
3.84224e-11
4.29643e-11
4.80148e-11
5.36262e-11
5.98558e-11
6.67657e-11
7.44239e-11
8.29038e-11
9.22853e-11
1.02655e-10
1.14105e-10
1.26738e-10
1.4066e-10
1.55989e-10
1.72848e-10
1.91371e-10
2.11701e-10
2.33987e-10
2.58391e-10
2.85082e-10
3.1424e-10
3.46053e-10
3.80718e-10
4.18442e-10
4.5944e-10
5.03935e-10
5.52158e-10
6.04344e-10
6.60735e-10
7.21578e-10
7.87121e-10
8.57614e-10
9.33305e-10
1.01444e-09
1.10126e-09
1.19399e-09
1.29286e-09
1.39807e-09
1.50981e-09
1.62825e-09
1.75353e-09
1.88576e-09
2.02503e-09
2.17138e-09
2.32482e-09
2.4853e-09
2.65272e-09
2.82696e-09
3.0078e-09
3.19498e-09
3.38818e-09
3.58701e-09
3.79101e-09
3.99965e-09
4.21234e-09
4.42841e-09
4.64713e-09
4.8677e-09
5.08925e-09
5.31086e-09
5.53156e-09
5.75032e-09
5.96608e-09
6.17773e-09
6.38416e-09
6.58423e-09
6.77679e-09
6.96073e-09
7.13493e-09
7.29831e-09
7.44982e-09
7.5885e-09
7.71342e-09
7.82376e-09
7.91875e-09
7.99777e-09
8.06026e-09
8.10579e-09
8.13406e-09
8.14489e-09
8.13822e-09
8.11412e-09
8.07279e-09
8.01455e-09
7.93984e-09
7.84923e-09
7.74338e-09
7.62305e-09
7.48911e-09
7.34247e-09
7.18414e-09
7.01517e-09
6.83666e-09
6.64972e-09
6.45551e-09
6.25516e-09
6.04982e-09
5.84059e-09
5.62857e-09
5.41482e-09
5.20032e-09
4.98605e-09
4.77287e-09
4.56163e-09
4.35307e-09
4.14789e-09
3.9467e-09
3.75003e-09
3.55837e-09
3.37211e-09
3.19157e-09
3.01704e-09
2.84871e-09
2.68673e-09
2.53119e-09
2.38215e-09
2.23959e-09
2.10348e-09
1.97374e-09
1.85027e-09
1.73294e-09
1.62159e-09
1.51604e-09
1.41612e-09
1.32162e-09
1.23233e-09
1.14805e-09
1.06855e-09
9.93627e-10
9.23061e-10
8.56644e-10
7.94169e-10
7.35436e-10
6.80251e-10
6.28429e-10
5.79791e-10
5.34168e-10
4.91401e-10
4.51336e-10
4.1383e-10
3.7875e-10
3.45969e-10
3.15367e-10
2.86836e-10
2.60269e-10
2.35571e-10
2.12648e-10
1.91414e-10
1.71788e-10
1.53691e-10
1.37048e-10
1.21788e-10
1.0784e-10
9.51376e-11
8.36139e-11
7.3204e-11
6.38437e-11
5.547e-11
4.80201e-11
4.14324e-11
3.56458e-11
3.06003e-11
2.62369e-11
2.24978e-11
1.93265e-11
1.66682e-11
1.447e-11
1.26807e-11
1.12512e-11
1.01348e-11
9.28698e-12
8.66567e-12
8.23135e-12
7.94713e-12
7.77883e-12
7.69513e-12
7.66769e-12
7.67124e-12
7.68371e-12
7.68637e-12
7.66385e-12
7.60421e-12
7.49888e-12
7.3426e-12
7.13321e-12
6.87143e-12
6.56049e-12
6.20579e-12
5.8144e-12
5.39459e-12
4.95537e-12
4.50597e-12
4.05544e-12
3.61222e-12
3.18384e-12
2.77671e-12
2.39594e-12
2.04528e-12
1.72716e-12
1.44273e-12
1.19202e-12
9.7409e-13
7.87246e-13
6.29205e-13
4.97302e-13
3.88662e-13
3.00349e-13
2.29487e-13
1.7336e-13
1.29472e-13
9.5591e-14
6.97672e-14
5.03335e-14
3.58933e-14
2.52988e-14
1.76235e-14
1.21332e-14
8.25523e-15
5.55076e-15
3.68872e-15
2.42337e-15
1.5753e-15
1.01574e-15
6.54066e-16
4.28103e-16
2.96928e-16
2.35747e-16
4.21475e-12
4.22853e-12
4.31356e-12
4.47015e-12
4.69979e-12
5.00512e-12
5.38988e-12
5.85897e-12
6.4185e-12
7.07579e-12
7.8395e-12
8.71971e-12
9.72799e-12
1.08776e-11
1.21834e-11
1.36625e-11
1.53339e-11
1.72188e-11
1.93412e-11
2.17277e-11
2.44079e-11
2.74147e-11
3.07847e-11
3.45581e-11
3.87799e-11
4.34992e-11
4.87706e-11
5.46541e-11
6.12155e-11
6.85272e-11
7.66686e-11
8.57267e-11
9.57966e-11
1.06982e-10
1.19396e-10
1.33162e-10
1.48413e-10
1.65295e-10
1.83964e-10
2.04592e-10
2.2736e-10
2.52466e-10
2.80122e-10
3.10555e-10
3.44007e-10
3.80739e-10
4.21026e-10
4.65161e-10
5.13453e-10
5.6623e-10
6.23835e-10
6.8663e-10
7.54991e-10
8.2931e-10
9.09994e-10
9.97463e-10
1.09215e-09
1.19449e-09
1.30493e-09
1.42393e-09
1.55193e-09
1.68939e-09
1.83674e-09
1.99443e-09
2.16286e-09
2.34243e-09
2.5335e-09
2.7364e-09
2.95143e-09
3.17882e-09
3.41876e-09
3.67138e-09
3.93673e-09
4.21478e-09
4.50543e-09
4.80846e-09
5.12358e-09
5.45037e-09
5.7883e-09
6.13673e-09
6.4949e-09
6.8619e-09
7.23671e-09
7.61819e-09
8.00505e-09
8.39588e-09
8.78917e-09
9.18328e-09
9.57645e-09
9.96685e-09
1.03526e-08
1.07316e-08
1.11018e-08
1.14613e-08
1.18079e-08
1.21395e-08
1.2454e-08
1.27494e-08
1.30238e-08
1.32754e-08
1.35024e-08
1.37032e-08
1.38764e-08
1.40207e-08
1.41351e-08
1.42187e-08
1.4271e-08
1.42914e-08
1.428e-08
1.42366e-08
1.41618e-08
1.4056e-08
1.392e-08
1.37549e-08
1.35618e-08
1.33422e-08
1.30977e-08
1.28299e-08
1.25408e-08
1.22324e-08
1.19066e-08
1.15656e-08
1.12115e-08
1.08464e-08
1.04726e-08
1.00921e-08
9.70702e-09
9.31922e-09
8.93064e-09
8.54304e-09
8.1581e-09
7.77734e-09
7.40217e-09
7.03384e-09
6.6735e-09
6.32212e-09
5.98055e-09
5.64949e-09
5.32954e-09
5.02114e-09
4.72464e-09
4.44026e-09
4.16813e-09
3.90828e-09
3.66066e-09
3.42515e-09
3.20157e-09