/*--------------------------------*- C++ -*----------------------------------*\
| =========                 |                                                 |
| \\      /  F ield         | OpenFOAM: The Open Source CFD Toolbox           |
|  \\    /   O peration     | Version:  v2012                                 |
|   \\  /    A nd           | Website:  www.openfoam.com                      |
|    \\/     M anipulation  |                                                 |
\*---------------------------------------------------------------------------*/
FoamFile
{
    version     2.0;
    format      ascii;
    class       volScalarField;
    location    "16.5";
    object      p;
}
// * * * * * * * * * * * * * * * * * * * * * * * * * * * * * * * * * * * * * //

dimensions      [0 2 -2 0 0 0 0];


internalField   nonuniform List<scalar> 
65536
(
1.02817e-09
-1.22905e-06
-3.70321e-06
-7.43366e-06
-1.24227e-05
-1.86685e-05
-2.61711e-05
-3.49321e-05
-4.4953e-05
-5.62359e-05
-6.87831e-05
-8.25972e-05
-9.76813e-05
-0.000114039
-0.000131673
-0.000150587
-0.000170786
-0.000192273
-0.000215053
-0.00023913
-0.00026451
-0.000291196
-0.000319194
-0.000348509
-0.000379145
-0.000411108
-0.000444404
-0.000479037
-0.000515012
-0.000552335
-0.000591011
-0.000631044
-0.000672439
-0.000715201
-0.000759335
-0.000804843
-0.00085173
-0.0009
-0.000949654
-0.0010007
-0.00105313
-0.00110695
-0.00116217
-0.00121877
-0.00127677
-0.00133616
-0.00139693
-0.00145909
-0.00152263
-0.00158754
-0.00165382
-0.00172147
-0.00179046
-0.00186079
-0.00193245
-0.00200543
-0.0020797
-0.00215526
-0.00223208
-0.00231014
-0.00238943
-0.00246991
-0.00255155
-0.00263434
-0.00271823
-0.0028032
-0.0028892
-0.00297621
-0.00306416
-0.00315303
-0.00324276
-0.0033333
-0.00342461
-0.00351661
-0.00360926
-0.0037025
-0.00379625
-0.00389044
-0.00398502
-0.00407989
-0.00417499
-0.00427024
-0.00436554
-0.00446081
-0.00455596
-0.00465091
-0.00474554
-0.00483977
-0.0049335
-0.00502661
-0.00511901
-0.00521059
-0.00530124
-0.00539084
-0.00547928
-0.00556645
-0.00565224
-0.00573652
-0.00581918
-0.00590011
-0.00597917
-0.00605627
-0.00613128
-0.00620408
-0.00627456
-0.00634261
-0.00640812
-0.00647097
-0.00653107
-0.0065883
-0.00664257
-0.00669378
-0.00674183
-0.00678664
-0.00682813
-0.00686621
-0.0069008
-0.00693185
-0.00695928
-0.00698303
-0.00700306
-0.00701931
-0.00703176
-0.00704035
-0.00704507
-0.0070459
-0.00704283
-0.00703584
-0.00702493
-0.00701013
-0.00699143
-0.00696885
-0.00694244
-0.00691222
-0.00687822
-0.00684051
-0.00679912
-0.00675413
-0.00670559
-0.00665357
-0.00659816
-0.00653942
-0.00647745
-0.00641233
-0.00634417
-0.00627305
-0.00619907
-0.00612235
-0.00604299
-0.00596109
-0.00587678
-0.00579015
-0.00570134
-0.00561045
-0.00551761
-0.00542293
-0.00532652
-0.00522852
-0.00512903
-0.00502818
-0.00492608
-0.00482285
-0.0047186
-0.00461344
-0.0045075
-0.00440088
-0.00429368
-0.00418602
-0.00407799
-0.0039697
-0.00386125
-0.00375273
-0.00364424
-0.00353586
-0.00342769
-0.00331981
-0.0032123
-0.00310524
-0.0029987
-0.00289276
-0.00278749
-0.00268295
-0.0025792
-0.00247631
-0.00237434
-0.00227333
-0.00217334
-0.00207442
-0.00197662
-0.00187996
-0.00178451
-0.00169029
-0.00159734
-0.00150569
-0.00141537
-0.00132641
-0.00123884
-0.00115268
-0.00106794
-0.000984656
-0.000902837
-0.0008225
-0.00074366
-0.000666327
-0.000590513
-0.000516226
-0.000443475
-0.000372265
-0.000302602
-0.000234489
-0.000167929
-0.000102923
-3.94722e-05
2.2424e-05
8.27666e-05
0.000141557
0.0001988
0.000254496
0.000308651
0.000361269
0.000412354
0.000461913
0.000509952
0.000556475
0.00060149
0.000645003
0.000687022
0.000727553
0.000766603
0.000804179
0.000840289
0.000874939
0.000908137
0.00093989
0.000970206
0.00099909
0.00102655
0.00105259
0.00107722
0.00110045
0.00112228
0.00114271
0.00116176
0.00117942
0.0011957
0.00121062
0.00122416
0.00123634
0.00124715
0.00125661
0.00126471
0.00127145
0.00127685
0.00128089
0.00128359
0.00128494
-2.36497e-06
-3.59878e-06
-6.07976e-06
-9.81513e-06
-1.48066e-05
-2.10541e-05
-2.85583e-05
-3.73208e-05
-4.73432e-05
-5.86276e-05
-7.11764e-05
-8.49923e-05
-0.000100078
-0.000116438
-0.000134074
-0.00015299
-0.000173192
-0.000194681
-0.000217464
-0.000241544
-0.000266927
-0.000293616
-0.000321617
-0.000350935
-0.000381575
-0.000413542
-0.000446842
-0.000481479
-0.000517458
-0.000554786
-0.000593466
-0.000633503
-0.000674903
-0.00071767
-0.000761809
-0.000807322
-0.000854215
-0.00090249
-0.00095215
-0.0010032
-0.00105564
-0.00110946
-0.00116469
-0.0012213
-0.0012793
-0.0013387
-0.00139948
-0.00146165
-0.00152519
-0.00159011
-0.0016564
-0.00172405
-0.00179305
-0.00186339
-0.00193506
-0.00200805
-0.00208233
-0.0021579
-0.00223473
-0.00231281
-0.0023921
-0.0024726
-0.00255426
-0.00263705
-0.00272096
-0.00280594
-0.00289196
-0.00297897
-0.00306695
-0.00315583
-0.00324558
-0.00333614
-0.00342746
-0.00351948
-0.00361215
-0.0037054
-0.00379917
-0.00389339
-0.00398798
-0.00408288
-0.004178
-0.00427326
-0.00436859
-0.00446388
-0.00455906
-0.00465403
-0.00474869
-0.00484294
-0.00493669
-0.00502984
-0.00512226
-0.00521387
-0.00530454
-0.00539417
-0.00548264
-0.00556984
-0.00565565
-0.00573996
-0.00582265
-0.0059036
-0.00598269
-0.00605981
-0.00613485
-0.00620768
-0.00627818
-0.00634626
-0.00641179
-0.00647467
-0.00653478
-0.00659204
-0.00664633
-0.00669756
-0.00674563
-0.00679046
-0.00683196
-0.00687006
-0.00690467
-0.00693572
-0.00696316
-0.00698692
-0.00700696
-0.00702322
-0.00703567
-0.00704427
-0.00704899
-0.00704982
-0.00704674
-0.00703975
-0.00702884
-0.00701402
-0.00699531
-0.00697273
-0.0069463
-0.00691606
-0.00688205
-0.00684432
-0.00680292
-0.0067579
-0.00670934
-0.0066573
-0.00660186
-0.0065431
-0.00648111
-0.00641596
-0.00634777
-0.00627662
-0.00620262
-0.00612586
-0.00604647
-0.00596454
-0.0058802
-0.00579354
-0.0057047
-0.00561378
-0.0055209
-0.00542619
-0.00532975
-0.00523171
-0.00513219
-0.00503131
-0.00492918
-0.00482592
-0.00472164
-0.00461646
-0.00451048
-0.00440383
-0.00429661
-0.00418891
-0.00408086
-0.00397255
-0.00386407
-0.00375553
-0.00364701
-0.00353861
-0.00343042
-0.00332252
-0.00321498
-0.0031079
-0.00300134
-0.00289539
-0.00279009
-0.00268554
-0.00258178
-0.00247887
-0.00237688
-0.00227586
-0.00217586
-0.00207693
-0.00197911
-0.00188245
-0.00178698
-0.00169275
-0.00159979
-0.00150813
-0.00141781
-0.00132884
-0.00124126
-0.00115509
-0.00107035
-0.000987055
-0.000905231
-0.00082489
-0.000746044
-0.000668707
-0.000592889
-0.000518599
-0.000445845
-0.000374632
-0.000304966
-0.000236851
-0.000170288
-0.00010528
-4.18277e-05
2.00699e-05
8.04139e-05
0.000139206
0.000196449
0.000252146
0.000306302
0.00035892
0.000410007
0.000459566
0.000507604
0.000554128
0.000599143
0.000642657
0.000684675
0.000725206
0.000764256
0.000801832
0.000837941
0.000872591
0.000905789
0.000937542
0.000967857
0.000996741
0.0010242
0.00105024
0.00107487
0.0010981
0.00111993
0.00114036
0.00115941
0.00117707
0.00119335
0.00120826
0.00122181
0.00123398
0.0012448
0.00125425
0.00126235
0.0012691
0.0012745
0.00127854
0.00128124
0.00128258
-7.11366e-06
-8.35423e-06
-1.08441e-05
-1.45854e-05
-1.95807e-05
-2.58313e-05
-3.33385e-05
-4.21037e-05
-5.2129e-05
-6.34165e-05
-7.59686e-05
-8.97881e-05
-0.000104878
-0.000121241
-0.000138882
-0.000157803
-0.000178009
-0.000199504
-0.000222292
-0.000246378
-0.000271766
-0.000298462
-0.00032647
-0.000355795
-0.000386442
-0.000418416
-0.000451723
-0.000486368
-0.000522356
-0.000559692
-0.000598381
-0.000638428
-0.000679837
-0.000722614
-0.000766762
-0.000812286
-0.00085919
-0.000907476
-0.000957147
-0.00100821
-0.00106066
-0.0011145
-0.00116973
-0.00122636
-0.00128438
-0.00134379
-0.00140458
-0.00146676
-0.00153033
-0.00159526
-0.00166157
-0.00172923
-0.00179825
-0.00186861
-0.0019403
-0.00201331
-0.00208761
-0.0021632
-0.00224005
-0.00231815
-0.00239747
-0.00247798
-0.00255967
-0.00264249
-0.00272642
-0.00281143
-0.00289748
-0.00298452
-0.00307252
-0.00316144
-0.00325122
-0.00334181
-0.00343316
-0.00352522
-0.00361793
-0.00371122
-0.00380503
-0.00389928
-0.00399392
-0.00408886
-0.00418402
-0.00427933
-0.0043747
-0.00447004
-0.00456527
-0.00466028
-0.00475499
-0.0048493
-0.0049431
-0.00503629
-0.00512877
-0.00522043
-0.00531116
-0.00540084
-0.00548936
-0.00557662
-0.00566249
-0.00574685
-0.00582959
-0.0059106
-0.00598975
-0.00606692
-0.00614201
-0.00621489
-0.00628545
-0.00635357
-0.00641915
-0.00648207
-0.00654224
-0.00659954
-0.00665387
-0.00670513
-0.00675325
-0.00679811
-0.00683965
-0.00687777
-0.00691241
-0.00694349
-0.00697095
-0.00699473
-0.00701478
-0.00703105
-0.00704351
-0.00705211
-0.00705684
-0.00705767
-0.00705458
-0.00704758
-0.00703666
-0.00702183
-0.0070031
-0.00698049
-0.00695404
-0.00692377
-0.00688973
-0.00685197
-0.00681053
-0.00676547
-0.00671687
-0.00666478
-0.00660929
-0.00655048
-0.00648843
-0.00642324
-0.00635499
-0.00628378
-0.00620972
-0.00613291
-0.00605345
-0.00597146
-0.00588705
-0.00580033
-0.00571142
-0.00562044
-0.0055275
-0.00543272
-0.00533622
-0.00523812
-0.00513854
-0.00503759
-0.00493539
-0.00483207
-0.00472773
-0.00462249
-0.00451646
-0.00440975
-0.00430247
-0.00419472
-0.00408661
-0.00397825
-0.00386972
-0.00376112
-0.00365256
-0.00354412
-0.00343588
-0.00332793
-0.00322036
-0.00311323
-0.00300664
-0.00290064
-0.00279532
-0.00269073
-0.00258693
-0.002484
-0.00238198
-0.00228093
-0.0021809
-0.00208194
-0.0019841
-0.00188742
-0.00179193
-0.00169768
-0.0016047
-0.00151302
-0.00142268
-0.0013337
-0.0012461
-0.00115992
-0.00107516
-0.000991862
-0.000910027
-0.000829675
-0.00075082
-0.000673475
-0.000597649
-0.000523352
-0.000450591
-0.000379372
-0.000309701
-0.00024158
-0.000175013
-0.000110001
-4.65453e-05
1.53555e-05
7.57022e-05
0.000134497
0.000191742
0.000247441
0.000301598
0.000354218
0.000405305
0.000454865
0.000502904
0.000549428
0.000594444
0.000637957
0.000679976
0.000720506
0.000759556
0.000797132
0.000833241
0.00086789
0.000901088
0.00093284
0.000963155
0.000992038
0.0010195
0.00104554
0.00107017
0.00109339
0.00111522
0.00113565
0.0011547
0.00117236
0.00118864
0.00120356
0.0012171
0.00122927
0.00124009
0.00124954
0.00125764
0.00126439
0.00126978
0.00127383
0.00127653
0.00127787
-1.42531e-05
-1.54986e-05
-1.79944e-05
-2.17409e-05
-2.67405e-05
-3.29951e-05
-4.05062e-05
-4.92756e-05
-5.93051e-05
-7.05971e-05
-8.31542e-05
-9.69789e-05
-0.000112074
-0.000128444
-0.000146091
-0.000165019
-0.000185232
-0.000206735
-0.000229531
-0.000253626
-0.000279023
-0.000305728
-0.000333746
-0.000363081
-0.000393739
-0.000425725
-0.000459044
-0.000493701
-0.000529701
-0.00056705
-0.000605752
-0.000645813
-0.000687237
-0.000730028
-0.000774192
-0.000819731
-0.000866651
-0.000914953
-0.000964642
-0.00101572
-0.00106819
-0.00112205
-0.0011773
-0.00123395
-0.00129199
-0.00135142
-0.00141223
-0.00147444
-0.00153802
-0.00160299
-0.00166932
-0.00173701
-0.00180605
-0.00187644
-0.00194816
-0.00202119
-0.00209552
-0.00217114
-0.00224803
-0.00232616
-0.00240551
-0.00248606
-0.00256779
-0.00265065
-0.00273462
-0.00281967
-0.00290576
-0.00299285
-0.00308089
-0.00316985
-0.00325968
-0.00335032
-0.00344173
-0.00353384
-0.0036266
-0.00371995
-0.00381382
-0.00390813
-0.00400283
-0.00409783
-0.00419306
-0.00428844
-0.00438388
-0.00447929
-0.00457458
-0.00466967
-0.00476446
-0.00485884
-0.00495272
-0.00504599
-0.00513855
-0.00523028
-0.00532109
-0.00541085
-0.00549946
-0.0055868
-0.00567275
-0.00575719
-0.00584002
-0.00592111
-0.00600034
-0.00607759
-0.00615276
-0.00622572
-0.00629635
-0.00636455
-0.0064302
-0.0064932
-0.00655343
-0.00661079
-0.00666519
-0.00671652
-0.00676468
-0.0068096
-0.00685119
-0.00688935
-0.00692403
-0.00695515
-0.00698264
-0.00700645
-0.00702653
-0.00704282
-0.00705528
-0.0070639
-0.00706862
-0.00706945
-0.00706636
-0.00705934
-0.0070484
-0.00703355
-0.00701479
-0.00699216
-0.00696566
-0.00693536
-0.00690127
-0.00686345
-0.00682195
-0.00677684
-0.00672817
-0.00667601
-0.00662045
-0.00656157
-0.00649944
-0.00643416
-0.00636583
-0.00629453
-0.00622038
-0.00614348
-0.00606393
-0.00598185
-0.00589734
-0.00581053
-0.00572152
-0.00563044
-0.0055374
-0.00544253
-0.00534593
-0.00524773
-0.00514805
-0.00504701
-0.00494472
-0.00484131
-0.00473688
-0.00463154
-0.00452543
-0.00441863
-0.00431126
-0.00420343
-0.00409524
-0.0039868
-0.00387819
-0.00376953
-0.00366089
-0.00355238
-0.00344407
-0.00333606
-0.00322842
-0.00312124
-0.00301459
-0.00290854
-0.00280315
-0.00269851
-0.00259467
-0.00249169
-0.00238963
-0.00228853
-0.00218847
-0.00208947
-0.00199159
-0.00189487
-0.00179935
-0.00170507
-0.00161206
-0.00152036
-0.00142999
-0.00134099
-0.00125337
-0.00116717
-0.00108239
-0.000999073
-0.000917221
-0.000836854
-0.000757985
-0.000680627
-0.000604789
-0.000530481
-0.00045771
-0.000386482
-0.000316802
-0.000248674
-0.000182101
-0.000117083
-5.36212e-05
8.28433e-06
6.86352e-05
0.000127433
0.000184682
0.000240384
0.000294543
0.000347165
0.000398254
0.000447815
0.000495855
0.00054238
0.000587396
0.00063091
0.000672928
0.000713459
0.000752508
0.000790083
0.000826192
0.000860841
0.000894038
0.000925789
0.000956103
0.000984985
0.00101244
0.00103848
0.00106311
0.00108634
0.00110816
0.00112859
0.00114764
0.0011653
0.00118158
0.00119649
0.00121004
0.00122221
0.00123302
0.00124248
0.00125058
0.00125732
0.00126272
0.00126676
0.00126946
0.00127081
-2.37833e-05
-2.50311e-05
-2.75309e-05
-3.12816e-05
-3.62857e-05
-4.25449e-05
-5.00609e-05
-5.88355e-05
-6.88706e-05
-8.01687e-05
-9.27322e-05
-0.000106564
-0.000121667
-0.000138045
-0.0001557
-0.000174638
-0.000194861
-0.000216374
-0.000239182
-0.000263288
-0.000288697
-0.000315415
-0.000343446
-0.000372795
-0.000403467
-0.000435468
-0.000468803
-0.000503476
-0.000539493
-0.000576859
-0.000615579
-0.000655659
-0.000697102
-0.000739913
-0.000784097
-0.000829658
-0.000876599
-0.000924924
-0.000974636
-0.00102574
-0.00107823
-0.00113212
-0.0011874
-0.00124407
-0.00130214
-0.00136159
-0.00142244
-0.00148468
-0.00154829
-0.00161329
-0.00167965
-0.00174738
-0.00181646
-0.00188688
-0.00195863
-0.00203171
-0.00210608
-0.00218174
-0.00225867
-0.00233685
-0.00241625
-0.00249685
-0.00257862
-0.00266153
-0.00274556
-0.00283066
-0.00291681
-0.00300395
-0.00309206
-0.00318108
-0.00327098
-0.00336169
-0.00345316
-0.00354535
-0.00363818
-0.0037316
-0.00382555
-0.00391995
-0.00401473
-0.00410981
-0.00420513
-0.0043006
-0.00439612
-0.00449163
-0.00458702
-0.00468221
-0.00477709
-0.00487158
-0.00496556
-0.00505893
-0.0051516
-0.00524344
-0.00533436
-0.00542423
-0.00551295
-0.00560039
-0.00568645
-0.00577101
-0.00585395
-0.00593514
-0.00601448
-0.00609185
-0.00616712
-0.00624018
-0.00631092
-0.00637922
-0.00644497
-0.00650806
-0.00656838
-0.00662583
-0.00668031
-0.00673172
-0.00677996
-0.00682495
-0.0068666
-0.00690483
-0.00693956
-0.00697073
-0.00699827
-0.00702211
-0.00704222
-0.00705853
-0.00707102
-0.00707964
-0.00708437
-0.00708519
-0.00708209
-0.00707506
-0.0070641
-0.00704921
-0.00703042
-0.00700774
-0.00698119
-0.00695083
-0.00691668
-0.00687879
-0.00683721
-0.00679202
-0.00674326
-0.00669102
-0.00663536
-0.00657637
-0.00651414
-0.00644875
-0.00638031
-0.0063089
-0.00623463
-0.0061576
-0.00607793
-0.00599572
-0.00591109
-0.00582415
-0.00573501
-0.0056438
-0.00555063
-0.00545563
-0.0053589
-0.00526057
-0.00516077
-0.0050596
-0.00495718
-0.00485364
-0.00474909
-0.00464364
-0.0045374
-0.00443049
-0.00432301
-0.00421507
-0.00410677
-0.00399822
-0.00388951
-0.00378074
-0.00367201
-0.0035634
-0.00345501
-0.00334691
-0.00323919
-0.00313192
-0.00302519
-0.00291907
-0.00281362
-0.0027089
-0.002605
-0.00250195
-0.00239983
-0.00229868
-0.00219856
-0.00209951
-0.00200159
-0.00190482
-0.00180926
-0.00171494
-0.00162189
-0.00153015
-0.00143975
-0.00135071
-0.00126307
-0.00117683
-0.00109204
-0.00100869
-0.000926818
-0.00084643
-0.000767542
-0.000690166
-0.000614312
-0.000539989
-0.000467204
-0.000395964
-0.000326273
-0.000258135
-0.000191552
-0.000126526
-6.30576e-05
-1.14548e-06
5.92112e-05
0.000118015
0.000175267
0.000230973
0.000285136
0.00033776
0.000388851
0.000438415
0.000486456
0.000532982
0.000577999
0.000621513
0.000663532
0.000704062
0.000743111
0.000780686
0.000816794
0.000851442
0.000884638
0.000916389
0.000946701
0.000975582
0.00100304
0.00102908
0.00105371
0.00107693
0.00109875
0.00111919
0.00113823
0.00115589
0.00117217
0.00118708
0.00120062
0.0012128
0.00122361
0.00123306
0.00124116
0.00124791
0.0012533
0.00125735
0.00126004
0.00126139
-3.56989e-05
-3.69483e-05
-3.94511e-05
-4.3206e-05
-4.82147e-05
-5.44791e-05
-6.20008e-05
-7.07817e-05
-8.08237e-05
-9.21293e-05
-0.000104701
-0.000118542
-0.000133654
-0.000150042
-0.000167709
-0.000186658
-0.000206894
-0.00022842
-0.000251241
-0.000275362
-0.000300787
-0.000327521
-0.000355568
-0.000384935
-0.000415625
-0.000447645
-0.000480999
-0.000515693
-0.000551731
-0.00058912
-0.000627863
-0.000667965
-0.000709433
-0.000752269
-0.000796479
-0.000842067
-0.000889036
-0.000937389
-0.00098713
-0.00103826
-0.00109079
-0.0011447
-0.00120002
-0.00125672
-0.00131482
-0.00137432
-0.0014352
-0.00149748
-0.00156113
-0.00162617
-0.00169257
-0.00176034
-0.00182947
-0.00189994
-0.00197174
-0.00204486
-0.00211929
-0.002195
-0.00227199
-0.00235022
-0.00242968
-0.00251034
-0.00259217
-0.00267515
-0.00275924
-0.00284442
-0.00293063
-0.00301785
-0.00310604
-0.00319514
-0.00328511
-0.00337591
-0.00346747
-0.00355975
-0.00365267
-0.00374619
-0.00384024
-0.00393474
-0.00402962
-0.00412481
-0.00422024
-0.00431582
-0.00441146
-0.00450709
-0.0046026
-0.00469791
-0.00479292
-0.00488753
-0.00498164
-0.00507515
-0.00516794
-0.00525992
-0.00535097
-0.00544098
-0.00552984
-0.00561742
-0.00570362
-0.00578832
-0.00587139
-0.00595273
-0.0060322
-0.0061097
-0.00618511
-0.0062583
-0.00632917
-0.00639759
-0.00646347
-0.00652668
-0.00658711
-0.00664468
-0.00669926
-0.00675077
-0.00679911
-0.00684419
-0.00688592
-0.00692422
-0.00695903
-0.00699025
-0.00701785
-0.00704174
-0.00706188
-0.00707823
-0.00709073
-0.00709937
-0.00710411
-0.00710493
-0.00710181
-0.00709476
-0.00708377
-0.00706884
-0.00705
-0.00702726
-0.00700066
-0.00697022
-0.00693599
-0.00689801
-0.00685634
-0.00681104
-0.00676218
-0.00670982
-0.00665404
-0.00659493
-0.00653256
-0.00646704
-0.00639845
-0.00632689
-0.00625247
-0.0061753
-0.00609547
-0.0060131
-0.00592831
-0.00584121
-0.00575191
-0.00566054
-0.00556721
-0.00547204
-0.00537515
-0.00527666
-0.00517669
-0.00507536
-0.00497279
-0.00486909
-0.00476438
-0.00465878
-0.00455239
-0.00444533
-0.00433771
-0.00422963
-0.0041212
-0.00401252
-0.00390368
-0.00379479
-0.00368593
-0.00357721
-0.0034687
-0.00336049
-0.00325266
-0.0031453
-0.00303847
-0.00293225
-0.00282671
-0.00272191
-0.00261792
-0.0025148
-0.0024126
-0.00231138
-0.00221119
-0.00211208
-0.00201409
-0.00191727
-0.00182165
-0.00172728
-0.00163419
-0.0015424
-0.00145196
-0.00136288
-0.0012752
-0.00118893
-0.0011041
-0.00102072
-0.00093882
-0.000858407
-0.000779495
-0.000702096
-0.000626222
-0.00055188
-0.000479078
-0.000407822
-0.000338117
-0.000269966
-0.000203371
-0.000138335
-7.48565e-05
-1.29359e-05
4.74283e-05
0.000106238
0.000163497
0.000219208
0.000273375
0.000326003
0.000377097
0.000426663
0.000474706
0.000521234
0.000566252
0.000609767
0.000651786
0.000692316
0.000731365
0.000768939
0.000805047
0.000839694
0.000872889
0.000904639
0.00093495
0.00096383
0.000991286
0.00101732
0.00104195
0.00106517
0.001087
0.00110743
0.00112647
0.00114413
0.00116041
0.00117532
0.00118886
0.00120103
0.00121184
0.0012213
0.00122939
0.00123614
0.00124153
0.00124558
0.00124827
0.00124962
-4.99958e-05
-5.12466e-05
-5.37522e-05
-5.75111e-05
-6.25249e-05
-6.8795e-05
-7.63233e-05
-8.51115e-05
-9.51617e-05
-0.000106476
-0.000119058
-0.000132909
-0.000148033
-0.000164434
-0.000182114
-0.000201077
-0.000221328
-0.00024287
-0.000265708
-0.000289846
-0.00031529
-0.000342043
-0.000370111
-0.000399499
-0.000430212
-0.000462255
-0.000495633
-0.000530352
-0.000566416
-0.000603831
-0.000642601
-0.000682733
-0.00072423
-0.000767097
-0.000811338
-0.000856958
-0.00090396
-0.000952348
-0.00100213
-0.00105329
-0.00110585
-0.00115981
-0.00121516
-0.00127191
-0.00133006
-0.00138959
-0.00145052
-0.00151284
-0.00157655
-0.00164163
-0.00170809
-0.00177591
-0.00184509
-0.00191562
-0.00198748
-0.00206066
-0.00213515
-0.00221093
-0.00228798
-0.00236628
-0.00244581
-0.00252654
-0.00260845
-0.00269151
-0.00277568
-0.00286094
-0.00294724
-0.00303455
-0.00312283
-0.00321203
-0.0033021
-0.003393
-0.00348467
-0.00357705
-0.00367009
-0.00376373
-0.00385789
-0.00395251
-0.00404752
-0.00414285
-0.00423841
-0.00433412
-0.0044299
-0.00452567
-0.00462133
-0.00471679
-0.00481195
-0.00490671
-0.00500098
-0.00509465
-0.0051876
-0.00527975
-0.00537096
-0.00546114
-0.00555016
-0.00563791
-0.00572428
-0.00580914
-0.00589238
-0.00597388
-0.00605352
-0.00613119
-0.00620675
-0.00628011
-0.00635113
-0.00641971
-0.00648573
-0.00654908
-0.00660966
-0.00666736
-0.00672207
-0.0067737
-0.00682215
-0.00686734
-0.00690917
-0.00694757
-0.00698246
-0.00701376
-0.00704142
-0.00706537
-0.00708555
-0.00710194
-0.00711447
-0.00712312
-0.00712787
-0.00712868
-0.00712555
-0.00711847
-0.00710744
-0.00709247
-0.00707357
-0.00705077
-0.00702409
-0.00699356
-0.00695923
-0.00692115
-0.00687937
-0.00683395
-0.00678495
-0.00673245
-0.00667653
-0.00661726
-0.00655474
-0.00648905
-0.00642028
-0.00634855
-0.00627395
-0.00619659
-0.00611658
-0.00603402
-0.00594904
-0.00586174
-0.00577224
-0.00568067
-0.00558715
-0.00549178
-0.00539469
-0.00529601
-0.00519584
-0.00509432
-0.00499156
-0.00488767
-0.00478278
-0.00467699
-0.00457043
-0.00446319
-0.0043554
-0.00424715
-0.00413855
-0.00402971
-0.00392072
-0.00381167
-0.00370267
-0.00359381
-0.00348516
-0.00337682
-0.00326886
-0.00316137
-0.00305443
-0.00294809
-0.00284244
-0.00273754
-0.00263345
-0.00253023
-0.00242795
-0.00232664
-0.00222637
-0.00212718
-0.00202912
-0.00193223
-0.00183654
-0.00174211
-0.00164896
-0.00155712
-0.00146662
-0.00137749
-0.00128976
-0.00120345
-0.00111858
-0.00103517
-0.000953235
-0.000872789
-0.000793847
-0.000716422
-0.000640522
-0.000566157
-0.000493334
-0.000422059
-0.000352336
-0.000284169
-0.00021756
-0.00015251
-8.902e-05
-2.70889e-05
3.32847e-05
9.2103e-05
0.000149369
0.000205086
0.000259259
0.000311892
0.00036299
0.000412559
0.000460605
0.000507135
0.000552154
0.000595671
0.000637691
0.000678221
0.00071727
0.000754844
0.000790951
0.000825598
0.000858792
0.000890541
0.000920851
0.00094973
0.000977184
0.00100322
0.00102785
0.00105107
0.00107289
0.00109332
0.00111236
0.00113001
0.00114629
0.0011612
0.00117474
0.00118691
0.00119772
0.00120718
0.00121527
0.00122202
0.00122741
0.00123145
0.00123415
0.0012355
-6.66696e-05
-6.79219e-05
-7.04304e-05
-7.41935e-05
-7.92126e-05
-8.54892e-05
-9.30249e-05
-0.000101822
-0.000111881
-0.000123206
-0.000135799
-0.000149663
-0.000164801
-0.000181216
-0.000198912
-0.000217892
-0.00023816
-0.000259721
-0.000282579
-0.000306739
-0.000332204
-0.000358981
-0.000387073
-0.000416486
-0.000447225
-0.000479295
-0.000512702
-0.00054745
-0.000583545
-0.000620991
-0.000659795
-0.00069996
-0.000741492
-0.000784395
-0.000828673
-0.000874332
-0.000921374
-0.000969803
-0.00101962
-0.00107083
-0.00112344
-0.00117744
-0.00123284
-0.00128964
-0.00134783
-0.00140742
-0.00146841
-0.00153078
-0.00159454
-0.00165969
-0.0017262
-0.00179409
-0.00186333
-0.00193393
-0.00200586
-0.00207911
-0.00215367
-0.00222953
-0.00230665
-0.00238504
-0.00246465
-0.00254547
-0.00262747
-0.00271062
-0.00279489
-0.00288025
-0.00296665
-0.00305407
-0.00314246
-0.00323177
-0.00332196
-0.00341298
-0.00350477
-0.00359728
-0.00369045
-0.00378423
-0.00387853
-0.00397329
-0.00406845
-0.00416393
-0.00425965
-0.00435552
-0.00445147
-0.0045474
-0.00464323
-0.00473886
-0.0048342
-0.00492915
-0.0050236
-0.00511746
-0.0052106
-0.00530294
-0.00539435
-0.00548472
-0.00557394
-0.00566189
-0.00574845
-0.00583351
-0.00591695
-0.00599865
-0.00607848
-0.00615634
-0.00623209
-0.00630563
-0.00637684
-0.0064456
-0.0065118
-0.00657532
-0.00663606
-0.00669391
-0.00674878
-0.00680055
-0.00684914
-0.00689445
-0.0069364
-0.00697491
-0.00700989
-0.00704128
-0.00706902
-0.00709303
-0.00711328
-0.0071297
-0.00714227
-0.00715094
-0.00715569
-0.0071565
-0.00715335
-0.00714624
-0.00713517
-0.00712015
-0.00710118
-0.0070783
-0.00705153
-0.0070209
-0.00698646
-0.00694825
-0.00690633
-0.00686077
-0.00681161
-0.00675895
-0.00670286
-0.00664341
-0.0065807
-0.00651481
-0.00644585
-0.00637391
-0.0062991
-0.00622152
-0.00614129
-0.00605851
-0.00597329
-0.00588577
-0.00579604
-0.00570424
-0.00561048
-0.00551488
-0.00541756
-0.00531865
-0.00521826
-0.00511651
-0.00501352
-0.00490941
-0.0048043
-0.0046983
-0.00459152
-0.00448408
-0.00437608
-0.00426764
-0.00415885
-0.00404981
-0.00394064
-0.00383142
-0.00372225
-0.00361321
-0.0035044
-0.0033959
-0.0032878
-0.00318017
-0.00307308
-0.00296661
-0.00286083
-0.00275581
-0.0026516
-0.00254827
-0.00244588
-0.00234447
-0.0022441
-0.00214482
-0.00204667
-0.0019497
-0.00185394
-0.00175943
-0.00166621
-0.0015743
-0.00148374
-0.00139456
-0.00130678
-0.00122042
-0.0011355
-0.00105204
-0.000970066
-0.000889582
-0.000810605
-0.000733147
-0.000657218
-0.000582825
-0.000509977
-0.000438678
-0.000368934
-0.000300748
-0.000234121
-0.000169055
-0.000105551
-4.36069e-05
1.67782e-05
7.56067e-05
0.000132882
0.000188607
0.000242786
0.000295425
0.000346529
0.000396102
0.000444152
0.000490685
0.000535707
0.000579225
0.000621246
0.000661778
0.000700827
0.000738401
0.000774508
0.000809154
0.000842347
0.000874095
0.000904404
0.000933282
0.000960735
0.00098677
0.00101139
0.00103461
0.00105643
0.00107686
0.0010959
0.00111356
0.00112983
0.00114474
0.00115828
0.00117045
0.00118126
0.00119071
0.00119881
0.00120555
0.00121094
0.00121499
0.00121768
0.00121903
-8.57157e-05
-8.69697e-05
-8.94812e-05
-9.32488e-05
-9.82737e-05
-0.000104557
-0.000112102
-0.000120908
-0.000130978
-0.000142316
-0.000154922
-0.0001688
-0.000183954
-0.000200386
-0.0002181
-0.000237099
-0.000257388
-0.000278971
-0.000301852
-0.000326036
-0.000351527
-0.00037833
-0.000406451
-0.000435893
-0.000466663
-0.000498765
-0.000532204
-0.000566986
-0.000603117
-0.0006406
-0.000679441
-0.000719646
-0.000761219
-0.000804164
-0.000848486
-0.000894189
-0.000941277
-0.000989753
-0.00103962
-0.00109088
-0.00114354
-0.0011976
-0.00125305
-0.00130991
-0.00136816
-0.00142781
-0.00148886
-0.0015513
-0.00161512
-0.00168033
-0.00174692
-0.00181488
-0.0018842
-0.00195487
-0.00202688
-0.00210021
-0.00217486
-0.0022508
-0.00232802
-0.0024065
-0.00248621
-0.00256713
-0.00264923
-0.00273249
-0.00281687
-0.00290235
-0.00298887
-0.00307641
-0.00316492
-0.00325437
-0.00334469
-0.00343585
-0.00352779
-0.00362045
-0.00371378
-0.0038077
-0.00390217
-0.0039971
-0.00409243
-0.00418809
-0.00428398
-0.00438004
-0.00447618
-0.00457231
-0.00466834
-0.00476417
-0.00485972
-0.00495487
-0.00504954
-0.00514361
-0.00523697
-0.00532953
-0.00542116
-0.00551176
-0.0056012
-0.00568938
-0.00577617
-0.00586146
-0.00594513
-0.00602705
-0.00610711
-0.00618519
-0.00626116
-0.00633492
-0.00640634
-0.0064753
-0.0065417
-0.00660542
-0.00666635
-0.00672439
-0.00677942
-0.00683136
-0.00688011
-0.00692557
-0.00696765
-0.00700628
-0.00704138
-0.00707288
-0.0071007
-0.00712479
-0.0071451
-0.00716158
-0.00717418
-0.00718287
-0.00718763
-0.00718843
-0.00718527
-0.00717812
-0.007167
-0.00715191
-0.00713287
-0.0071099
-0.00708302
-0.00705227
-0.0070177
-0.00697935
-0.00693728
-0.00689155
-0.00684222
-0.00678937
-0.00673307
-0.00667342
-0.00661049
-0.00654438
-0.00647518
-0.00640301
-0.00632795
-0.00625012
-0.00616963
-0.0060866
-0.00600112
-0.00591333
-0.00582334
-0.00573127
-0.00563724
-0.00554138
-0.00544379
-0.00534461
-0.00524396
-0.00514195
-0.0050387
-0.00493434
-0.00482897
-0.00472273
-0.0046157
-0.00450802
-0.00439979
-0.00429112
-0.0041821
-0.00407286
-0.00396347
-0.00385404
-0.00374467
-0.00363544
-0.00352645
-0.00341777
-0.00330949
-0.00320169
-0.00309444
-0.00298782
-0.0028819
-0.00277673
-0.00267239
-0.00256893
-0.00246641
-0.00236489
-0.00226441
-0.00216502
-0.00206677
-0.0019697
-0.00187385
-0.00177925
-0.00168595
-0.00159397
-0.00150334
-0.00141409
-0.00132625
-0.00123983
-0.00115485
-0.00107135
-0.00098932
-0.000908792
-0.000829775
-0.000752278
-0.000676314
-0.000601889
-0.00052901
-0.000457684
-0.000387915
-0.000319706
-0.000253058
-0.000187974
-0.000124452
-6.24926e-05
-2.09373e-06
5.67472e-05
0.000114033
0.000169768
0.000223956
0.000276603
0.000327713
0.000377292
0.000425347
0.000471883
0.000516908
0.000560429
0.000602452
0.000642985
0.000682035
0.00071961
0.000755717
0.000790363
0.000823556
0.000855303
0.000885611
0.000914488
0.00094194
0.000967974
0.000992596
0.00101581
0.00103763
0.00105806
0.0010771
0.00109475
0.00111103
0.00112593
0.00113947
0.00115164
0.00116245
0.0011719
0.00117999
0.00118674
0.00119213
0.00119617
0.00119887
0.00120021
-0.000107129
-0.000108385
-0.0001109
-0.000114672
-0.000119703
-0.000125995
-0.000133549
-0.000142366
-0.000152449
-0.0001638
-0.000176421
-0.000190316
-0.000205488
-0.000221939
-0.000239673
-0.000258695
-0.000279008
-0.000300616
-0.000323523
-0.000347735
-0.000373255
-0.000400089
-0.000428241
-0.000457717
-0.000488522
-0.00052066
-0.000554138
-0.000588959
-0.00062513
-0.000662656
-0.000701541
-0.000741791
-0.00078341
-0.000826403
-0.000870775
-0.000916529
-0.00096367
-0.0010122
-0.00106213
-0.00111345
-0.00116616
-0.00122028
-0.0012758
-0.00133272
-0.00139104
-0.00145076
-0.00151188
-0.00157439
-0.00163829
-0.00170358
-0.00177025
-0.00183829
-0.0019077
-0.00197845
-0.00205056
-0.00212399
-0.00219873
-0.00227477
-0.0023521
-0.00243068
-0.0025105
-0.00259154
-0.00267376
-0.00275714
-0.00284165
-0.00292725
-0.00301391
-0.0031016
-0.00319025
-0.00327985
-0.00337033
-0.00346165
-0.00355375
-0.00364658
-0.00374008
-0.00383419
-0.00392884
-0.00402396
-0.00411949
-0.00421534
-0.00431144
-0.00440771
-0.00450407
-0.00460042
-0.00469667
-0.00479274
-0.00488852
-0.00498391
-0.00507882
-0.00517313
-0.00526675
-0.00535956
-0.00545144
-0.00554229
-0.005632
-0.00572043
-0.00580748
-0.00589303
-0.00597696
-0.00605914
-0.00613945
-0.00621778
-0.00629401
-0.00636801
-0.00643967
-0.00650887
-0.0065755
-0.00663944
-0.00670059
-0.00675883
-0.00681406
-0.00686619
-0.00691511
-0.00696074
-0.00700298
-0.00704175
-0.00707698
-0.00710859