/*--------------------------------*- C++ -*----------------------------------*\
| =========                 |                                                 |
| \\      /  F ield         | OpenFOAM: The Open Source CFD Toolbox           |
|  \\    /   O peration     | Version:  v2012                                 |
|   \\  /    A nd           | Website:  www.openfoam.com                      |
|    \\/     M anipulation  |                                                 |
\*---------------------------------------------------------------------------*/
FoamFile
{
    version     2.0;
    format      ascii;
    class       surfaceScalarField;
    location    "16.5";
    object      phi;
}
// * * * * * * * * * * * * * * * * * * * * * * * * * * * * * * * * * * * * * //

dimensions      [0 3 -1 0 0 0 0];
oriented        oriented;


internalField   nonuniform List<scalar> 
130560
(
3.3102e-06
-3.3102e-06
6.62058e-06
-3.31039e-06
9.93138e-06
-3.3108e-06
1.32428e-05
-3.31139e-06
1.6555e-05
-3.3122e-06
1.98682e-05
-3.31321e-06
2.31826e-05
-3.31442e-06
2.64984e-05
-3.31582e-06
2.98158e-05
-3.31741e-06
3.3135e-05
-3.31919e-06
3.64562e-05
-3.32115e-06
3.97795e-05
-3.3233e-06
4.31051e-05
-3.32562e-06
4.64332e-05
-3.32811e-06
4.9764e-05
-3.33077e-06
5.30976e-05
-3.33358e-06
5.64341e-05
-3.33655e-06
5.97738e-05
-3.33967e-06
6.31167e-05
-3.34292e-06
6.6463e-05
-3.3463e-06
6.98128e-05
-3.34981e-06
7.31662e-05
-3.35342e-06
7.65234e-05
-3.35715e-06
7.98843e-05
-3.36096e-06
8.32492e-05
-3.36486e-06
8.6618e-05
-3.36883e-06
8.99909e-05
-3.37286e-06
9.33678e-05
-3.37693e-06
9.67488e-05
-3.38104e-06
0.000100134
-3.38517e-06
0.000103523
-3.38931e-06
0.000106917
-3.39344e-06
0.000110314
-3.39755e-06
0.000113716
-3.40161e-06
0.000117122
-3.40562e-06
0.000120531
-3.40955e-06
0.000123944
-3.41339e-06
0.000127362
-3.41711e-06
0.000130782
-3.4207e-06
0.000134206
-3.42414e-06
0.000137634
-3.42741e-06
0.000141064
-3.43047e-06
0.000144498
-3.43332e-06
0.000147934
-3.43592e-06
0.000151372
-3.43826e-06
0.000154812
-3.4403e-06
0.000158254
-3.44202e-06
0.000161698
-3.4434e-06
0.000165142
-3.4444e-06
0.000168587
-3.445e-06
0.000172032
-3.44516e-06
0.000175477
-3.44487e-06
0.000178921
-3.44408e-06
0.000182364
-3.44277e-06
0.000185805
-3.4409e-06
0.000189243
-3.43845e-06
0.000192679
-3.43537e-06
0.00019611
-3.43164e-06
0.000199537
-3.42721e-06
0.000202959
-3.42206e-06
0.000206376
-3.41615e-06
0.000209785
-3.40944e-06
0.000213187
-3.40189e-06
0.00021658
-3.39348e-06
0.000219965
-3.38415e-06
0.000223338
-3.37388e-06
0.000226701
-3.36263e-06
0.000230051
-3.35035e-06
0.000233388
-3.33702e-06
0.000236711
-3.32258e-06
0.000240018
-3.30702e-06
0.000243308
-3.29028e-06
0.000246581
-3.27233e-06
0.000249834
-3.25314e-06
0.000253066
-3.23266e-06
0.000256277
-3.21087e-06
0.000259465
-3.18773e-06
0.000262628
-3.1632e-06
0.000265765
-3.13725e-06
0.000268875
-3.10986e-06
0.000271956
-3.08098e-06
0.000275007
-3.05059e-06
0.000278026
-3.01867e-06
0.000281011
-2.98518e-06
0.000283961
-2.9501e-06
0.000286874
-2.91342e-06
0.000289749
-2.8751e-06
0.000292584
-2.83513e-06
0.000295378
-2.7935e-06
0.000298128
-2.75018e-06
0.000300833
-2.70518e-06
0.000303492
-2.65848e-06
0.000306102
-2.61007e-06
0.000308662
-2.55994e-06
0.00031117
-2.50811e-06
0.000313625
-2.45458e-06
0.000316024
-2.39934e-06
0.000318366
-2.3424e-06
0.00032065
-2.28379e-06
0.000322874
-2.22351e-06
0.000325035
-2.16158e-06
0.000327133
-2.09803e-06
0.000329166
-2.03287e-06
0.000331132
-1.96615e-06
0.00033303
-1.89789e-06
0.000334858
-1.82812e-06
0.000336615
-1.75689e-06
0.000338299
-1.68423e-06
0.00033991
-1.6102e-06
0.000341444
-1.53484e-06
0.000342903
-1.45821e-06
0.000344283
-1.38035e-06
0.000345584
-1.30134e-06
0.000346805
-1.22122e-06
0.000347946
-1.14007e-06
0.000349003
-1.05794e-06
0.000349978
-9.7491e-07
0.000350869
-8.9105e-07
0.000351676
-8.06432e-07
0.000352397
-7.21131e-07
0.000353032
-6.35222e-07
0.000353581
-5.48786e-07
0.000354043
-4.619e-07
0.000354418
-3.74646e-07
0.000354705
-2.87106e-07
0.000354904
-1.9936e-07
0.000355016
-1.11492e-07
0.000355039
-2.35844e-08
0.000354975
6.42815e-08
0.000354823
1.52022e-07
0.000354583
2.39555e-07
0.000354256
3.26801e-07
0.000353843
4.1368e-07
0.000353343
5.00112e-07
0.000352757
5.86021e-07
0.000352085
6.7133e-07
0.000351329
7.55966e-07
0.000350489
8.39856e-07
0.000349567
9.2293e-07
0.000348561
1.00512e-06
0.000347475
1.08636e-06
0.000346308
1.1666e-06
0.000345063
1.24576e-06
0.000343739
1.32379e-06
0.000342338
1.40064e-06
0.000340862
1.47626e-06
0.000339311
1.55059e-06
0.000337688
1.6236e-06
0.000335993
1.69524e-06
0.000334227
1.76548e-06
0.000332393
1.83427e-06
0.000330491
1.90159e-06
0.000328524
1.9674e-06
0.000326492
2.03168e-06
0.000324398
2.09442e-06
0.000322242
2.15558e-06
0.000320027
2.21515e-06
0.000317754
2.27312e-06
0.000315424
2.32948e-06
0.00031304
2.38422e-06
0.000310603
2.43734e-06
0.000308114
2.48884e-06
0.000305575
2.53871e-06
0.000302988
2.58696e-06
0.000300355
2.63359e-06
0.000297676
2.67862e-06
0.000294954
2.72205e-06
0.00029219
2.7639e-06
0.000289386
2.80418e-06
0.000286543
2.8429e-06
0.000283663
2.8801e-06
0.000280747
2.91577e-06
0.000277797
2.94996e-06
0.000274815
2.98267e-06
0.000271801
3.01394e-06
0.000268757
3.0438e-06
0.000265685
3.07225e-06
0.000262585
3.09935e-06
0.00025946
3.1251e-06
0.000256311
3.14956e-06
0.000253138
3.17273e-06
0.000249943
3.19466e-06
0.000246728
3.21538e-06
0.000243493
3.23491e-06
0.00024024
3.2533e-06
0.000236969
3.27057e-06
0.000233682
3.28676e-06
0.00023038
3.30189e-06
0.000227064
3.31601e-06
0.000223735
3.32915e-06
0.000220394
3.34134e-06
0.000217041
3.35261e-06
0.000213678
3.36299e-06
0.000210306
3.37253e-06
0.000206925
3.38125e-06
0.000203535
3.38918e-06
0.000200139
3.39635e-06
0.000196736
3.40281e-06
0.000193328
3.40857e-06
0.000189914
3.41368e-06
0.000186496
3.41815e-06
0.000183074
3.42202e-06
0.000179648
3.42533e-06
0.00017622
3.42809e-06
0.00017279
3.43034e-06
0.000169358
3.4321e-06
0.000165925
3.4334e-06
0.00016249
3.43428e-06
0.000159056
3.43474e-06
0.000155621
3.43483e-06
0.000152186
3.43456e-06
0.000148752
3.43396e-06
0.000145319
3.43306e-06
0.000141887
3.43187e-06
0.000138457
3.43041e-06
0.000135028
3.42872e-06
0.000131601
3.4268e-06
0.000128177
3.42469e-06
0.000124754
3.4224e-06
0.000121334
3.41995e-06
0.000117917
3.41736e-06
0.000114502
3.41464e-06
0.00011109
3.41182e-06
0.000107682
3.40891e-06
0.000104276
3.40592e-06
0.000100873
3.40288e-06
9.74729e-05
3.3998e-06
9.40762e-05
3.39669e-06
9.06827e-05
3.39357e-06
8.72922e-05
3.39044e-06
8.39049e-05
3.38733e-06
8.05207e-05
3.38424e-06
7.71395e-05
3.38118e-06
7.37613e-05
3.37818e-06
7.03861e-05
3.37523e-06
6.70137e-05
3.37235e-06
6.36442e-05
3.36954e-06
6.02774e-05
3.36682e-06
5.69132e-05
3.3642e-06
5.35515e-05
3.36168e-06
5.01922e-05
3.35927e-06
4.68352e-05
3.35697e-06
4.34804e-05
3.3548e-06
4.01277e-05
3.35276e-06
3.67768e-05
3.35086e-06
3.34277e-05
3.3491e-06
3.00802e-05
3.34748e-06
2.67342e-05
3.34601e-06
2.33895e-05
3.34469e-06
2.0046e-05
3.34354e-06
1.67035e-05
3.34254e-06
1.33618e-05
3.3417e-06
1.00207e-05
3.34103e-06
6.68021e-06
3.34053e-06
3.34002e-06
3.34019e-06
3.34002e-06
3.31001e-06
-6.62021e-06
6.6202e-06
-6.62058e-06
9.9308e-06
-6.62139e-06
1.3242e-05
-6.6226e-06
1.6554e-05
-6.62421e-06
1.9867e-05
-6.62623e-06
2.31812e-05
-6.62864e-06
2.64969e-05
-6.63144e-06
2.98141e-05
-6.63463e-06
3.31331e-05
-6.63819e-06
3.64541e-05
-6.64213e-06
3.97772e-05
-6.64642e-06
4.31026e-05
-6.65107e-06
4.64306e-05
-6.65606e-06
4.97612e-05
-6.66138e-06
5.30946e-05
-6.66701e-06
5.6431e-05
-6.67296e-06
5.97706e-05
-6.67919e-06
6.31134e-05
-6.68571e-06
6.64595e-05
-6.69248e-06
6.98092e-05
-6.6995e-06
7.31625e-05
-6.70675e-06
7.65196e-05
-6.7142e-06
7.98805e-05
-6.72184e-06
8.32453e-05
-6.72965e-06
8.6614e-05
-6.7376e-06
8.99868e-05
-6.74567e-06
9.33637e-05
-6.75383e-06
9.67448e-05
-6.76207e-06
0.00010013
-6.77034e-06
0.000103519
-6.77863e-06
0.000106913
-6.78691e-06
0.00011031
-6.79513e-06
0.000113712
-6.80328e-06
0.000117118
-6.81131e-06
0.000120527
-6.81919e-06
0.000123941
-6.82689e-06
0.000127358
-6.83436e-06
0.000130779
-6.84156e-06
0.000134203
-6.84846e-06
0.000137631
-6.85501e-06
0.000141062
-6.86117e-06
0.000144495
-6.86688e-06
0.000147931
-6.87211e-06
0.00015137
-6.87681e-06
0.00015481
-6.88092e-06
0.000158253
-6.88439e-06
0.000161697
-6.88717e-06
0.000165141
-6.8892e-06
0.000168587
-6.89042e-06
0.000172032
-6.89079e-06
0.000175478
-6.89023e-06
0.000178922
-6.88869e-06
0.000182366
-6.8861e-06
0.000185807
-6.88239e-06
0.000189246
-6.87752e-06
0.000192682
-6.8714e-06
0.000196115
-6.86396e-06
0.000199543
-6.85515e-06
0.000202965
-6.84488e-06
0.000206382
-6.83309e-06
0.000209793
-6.81971e-06
0.000213195
-6.80466e-06
0.00021659
-6.78786e-06
0.000219975
-6.76925e-06
0.00022335
-6.74875e-06
0.000226713
-6.72628e-06
0.000230065
-6.70176e-06
0.000233403
-6.67513e-06
0.000236727
-6.6463e-06
0.000240035
-6.61521e-06
0.000243326
-6.58177e-06
0.0002466
-6.54591e-06
0.000249854
-6.50756e-06
0.000253088
-6.46664e-06
0.000256301
-6.42309e-06
0.00025949
-6.37684e-06
0.000262654
-6.32782e-06
0.000265793
-6.27596e-06
0.000268904
-6.22119e-06
0.000271987
-6.16347e-06
0.000275039
-6.10272e-06
0.000278059
-6.0389e-06
0.000281046
-5.97194e-06
0.000283998
-5.90181e-06
0.000286913
-5.82846e-06
0.000289789
-5.75184e-06
0.000292626
-5.67193e-06
0.000295421
-5.58867e-06
0.000298173
-5.50206e-06
0.00030088
-5.41206e-06
0.00030354
-5.31866e-06
0.000306152
-5.22184e-06
0.000308714
-5.1216e-06
0.000311224
-5.01794e-06
0.00031368
-4.91085e-06
0.000316081
-4.80037e-06
0.000318425
-4.68649e-06
0.00032071
-4.56924e-06
0.000322936
-4.44866e-06
0.000325099
-4.32479e-06
0.000327198
-4.19765e-06
0.000329233
-4.06732e-06
0.000331201
-3.93384e-06
0.0003331
-3.79727e-06
0.000334929
-3.6577e-06
0.000336688
-3.51519e-06
0.000338373
-3.36984e-06
0.000339985
-3.22173e-06
0.000341521
-3.07096e-06
0.00034298
-2.91764e-06
0.000344362
-2.76187e-06
0.000345664
-2.60378e-06
0.000346887
-2.44348e-06
0.000348028
-2.2811e-06
0.000349087
-2.11678e-06
0.000350062
-1.95065e-06
0.000350954
-1.78286e-06
0.000351761
-1.61355e-06
0.000352483
-1.44287e-06
0.000353119
-1.27098e-06
0.000353668
-1.09802e-06
0.00035413
-9.24171e-07
0.000354505
-7.49582e-07
0.000354793
-5.74419e-07
0.000354992
-3.98845e-07
0.000355104
-2.23027e-07
0.000355127
-4.71278e-08
0.000355063
1.28684e-07
0.00035491
3.04246e-07
0.000354671
4.79395e-07
0.000354343
6.53967e-07
0.000353929
8.27803e-07
0.000353429
1.00075e-06
0.000352842
1.17264e-06
0.00035217
1.34333e-06
0.000351413
1.51267e-06
0.000350573
1.68052e-06
0.000349649
1.84674e-06
0.000348643
2.01119e-06
0.000347555
2.17374e-06
0.000346388
2.33426e-06
0.000345141
2.49264e-06
0.000343816
2.64876e-06
0.000342414
2.80251e-06
0.000340937
2.9538e-06
0.000339385
3.10251e-06
0.00033776
3.24857e-06
0.000336063
3.39189e-06
0.000334296
3.5324e-06
0.00033246
3.67001e-06
0.000330557
3.80467e-06
0.000328588
3.93633e-06
0.000326555
4.06492e-06
0.000324459
4.1904e-06
0.000322302
4.31274e-06
0.000320085
4.4319e-06
0.00031781
4.54785e-06
0.000315479
4.66058e-06
0.000313093
4.77007e-06
0.000310655
4.87631e-06
0.000308164
4.9793e-06
0.000305624
5.07903e-06
0.000303035
5.17553e-06
0.0003004
5.26879e-06
0.00029772
5.35883e-06
0.000294996
5.44568e-06
0.000292231
5.52937e-06
0.000289425
5.60991e-06
0.00028658
5.68734e-06
0.000283699
5.76171e-06
0.000280782
5.83304e-06
0.00027783
5.90139e-06
0.000274846
5.96679e-06
0.000271831
6.02931e-06
0.000268786
6.08898e-06
0.000265712
6.14587e-06
0.000262611
6.20003e-06
0.000259485
6.25152e-06
0.000256334
6.30039e-06
0.00025316
6.34671e-06
0.000249964
6.39053e-06
0.000246748
6.43194e-06
0.000243511
6.47097e-06
0.000240257
6.50771e-06
0.000236985
6.54222e-06
0.000233698
6.57456e-06
0.000230395
6.6048e-06
0.000227078
6.63301e-06
0.000223748
6.65925e-06
0.000220405
6.68359e-06
0.000217052
6.7061e-06
0.000213688
6.72684e-06
0.000210315
6.74588e-06
0.000206933
6.76328e-06
0.000203543
6.77911e-06
0.000200146
6.79343e-06
0.000196742
6.80631e-06
0.000193333
6.81781e-06
0.000189919
6.82798e-06
0.0001865
6.8369e-06
0.000183077
6.84462e-06
0.000179651
6.85119e-06
0.000176223
6.85669e-06
0.000172792
6.86116e-06
0.000169359
6.86466e-06
0.000165926
6.86724e-06
0.000162491
6.86896e-06
0.000159056
6.86987e-06
0.000155621
6.87002e-06
0.000152186
6.86946e-06
0.000148751
6.86824e-06
0.000145318
6.8664e-06
0.000141886
6.86399e-06
0.000138455
6.86107e-06
0.000135026
6.85766e-06
0.000131599
6.85381e-06
0.000128174
6.84956e-06
0.000124752
6.84496e-06
0.000121332
6.84004e-06
0.000117914
6.83484e-06
0.0001145
6.82939e-06
0.000111088
6.82373e-06
0.000107679
6.81789e-06
0.000104273
6.81191e-06
0.00010087
6.80581e-06
9.74699e-05
6.79963e-06
9.40732e-05
6.7934e-06
9.06796e-05
6.78714e-06
8.72892e-05
6.78087e-06
8.39019e-05
6.77463e-06
8.05177e-05
6.76844e-06
7.71366e-05
6.76233e-06
7.37584e-05
6.7563e-06
7.03833e-05
6.75039e-06
6.7011e-05
6.74462e-06
6.36415e-05
6.739e-06
6.02748e-05
6.73356e-06
5.69107e-05
6.7283e-06
5.35491e-05
6.72325e-06
5.019e-05
6.71842e-06
4.68331e-05
6.71383e-06
4.34784e-05
6.70948e-06
4.01258e-05
6.7054e-06
3.67751e-05
6.70158e-06
3.34261e-05
6.69805e-06
3.00788e-05
6.69481e-06
2.67329e-05
6.69187e-06
2.33884e-05
6.68923e-06
2.0045e-05
6.68691e-06
1.67026e-05
6.68491e-06
1.33611e-05
6.68324e-06
1.00202e-05
6.6819e-06
6.67988e-06
6.68089e-06
3.33985e-06
6.68021e-06
6.67987e-06
3.30959e-06
-9.9298e-06
6.61939e-06
-9.93038e-06
9.92959e-06
-9.93159e-06
1.32404e-05
-9.9334e-06
1.6552e-05
-9.93583e-06
1.98646e-05
-9.93886e-06
2.31785e-05
-9.94248e-06
2.64937e-05
-9.94669e-06
2.98106e-05
-9.95148e-06
3.31292e-05
-9.95683e-06
3.64498e-05
-9.96274e-06
3.97726e-05
-9.9692e-06
4.30977e-05
-9.97618e-06
4.64253e-05
-9.98367e-06
4.97556e-05
-9.99167e-06
5.30888e-05
-1.00001e-05
5.64249e-05
-1.00091e-05
5.97641e-05
-1.00184e-05
6.31067e-05
-1.00282e-05
6.64526e-05
-1.00384e-05
6.98021e-05
-1.0049e-05
7.31552e-05
-1.00599e-05
7.6512e-05
-1.00711e-05
7.98728e-05
-1.00826e-05
8.32374e-05
-1.00943e-05
8.66061e-05
-1.01062e-05
8.99788e-05
-1.01184e-05
9.33556e-05
-1.01307e-05
9.67366e-05
-1.01431e-05
0.000100122
-1.01555e-05
0.000103511
-1.0168e-05
0.000106905
-1.01804e-05
0.000110302
-1.01928e-05
0.000113704
-1.02051e-05
0.00011711
-1.02172e-05
0.00012052
-1.0229e-05
0.000123933
-1.02406e-05
0.000127351
-1.02519e-05
0.000130772
-1.02627e-05
0.000134197
-1.02731e-05
0.000137625
-1.0283e-05
0.000141056
-1.02923e-05
0.00014449
-1.03009e-05
0.000147927
-1.03088e-05
0.000151366
-1.0316e-05
0.000154807
-1.03222e-05
0.00015825
-1.03275e-05
0.000161695
-1.03317e-05
0.00016514
-1.03348e-05
0.000168587
-1.03367e-05
0.000172033
-1.03373e-05
0.00017548
-1.03366e-05
0.000178925
-1.03343e-05
0.00018237
-1.03305e-05
0.000185812
-1.03251e-05
0.000189253
-1.03178e-05
0.00019269
-1.03087e-05
0.000196124
-1.02977e-05
0.000199553
-1.02845e-05
0.000202977
-1.02692e-05
0.000206396
-1.02516e-05
0.000209808
-1.02317e-05
0.000213212
-1.02092e-05
0.000216609
-1.01841e-05
0.000219996
-1.01562e-05
0.000223372
-1.01256e-05
0.000226738
-1.0092e-05
0.000230092
-1.00553e-05
0.000233432
-1.00154e-05
0.000236758
-9.97229e-06
0.000240068
-9.92574e-06
0.000243362
-9.87567e-06
0.000246638
-9.82198e-06
0.000249895
-9.76454e-06
0.000253132
-9.70326e-06
0.000256347
-9.63802e-06
0.000259539
-9.56873e-06
0.000262706
-9.49527e-06
0.000265848
-9.41756e-06
0.000268962
-9.33549e-06
0.000272048
-9.24898e-06
0.000275103
-9.15792e-06
0.000278126
-9.06225e-06
0.000281116
-8.96189e-06
0.000284071
-8.85675e-06
0.000286989
-8.74677e-06
0.00028987
-8.63189e-06
0.00029271
-8.51206e-06
0.000295508
-8.38721e-06
0.000298263
-8.25732e-06
0.000300974
-8.12234e-06
0.000303637
-7.98225e-06
0.000306253
-7.83703e-06
0.000308818
-7.68668e-06
0.000311331
-7.53117e-06
0.000313791
-7.37054e-06
0.000316195
-7.20478e-06
0.000318542
-7.03394e-06
0.000320831
-6.85803e-06
0.00032306
-6.67712e-06
0.000325226
-6.49125e-06
0.000327329
-6.30048e-06
0.000329367
-6.10491e-06
0.000331337
-5.90461e-06
0.00033324
-5.69967e-06
0.000335072
-5.49021e-06
0.000336833
-5.27635e-06
0.000338522
-5.0582e-06
0.000340136
-4.83592e-06
0.000341675
-4.60963e-06
0.000343136
-4.37951e-06
0.00034452
-4.14572e-06
0.000345825
-3.90842e-06
0.000347049
-3.66782e-06
0.000348192
-3.42409e-06
0.000349253
-3.17743e-06
0.00035023
-2.92806e-06
0.000351124
-2.67619e-06
0.000351932
-2.42204e-06
0.000352655
-2.16582e-06
0.000353292
-1.90779e-06
0.000353842
-1.64816e-06
0.000354305
-1.38718e-06
0.000354681
-1.12509e-06
0.000354968
-8.62144e-07
0.000355168
-5.98578e-07
0.00035528
-3.34643e-07
0.000355303
-7.05874e-08
0.000355238
1.93335e-07
0.000355086
4.56883e-07
0.000354845
7.19808e-07
0.000354517
9.81866e-07
0.000354102
1.24282e-06
0.000353601
1.50242e-06
0.000353013
1.76045e-06
0.00035234
2.01668e-06
0.000351581
2.27087e-06
0.000350739
2.52282e-06
0.000349814
2.77232e-06
0.000348806
3.01915e-06
0.000347716
3.26313e-06
0.000346546
3.50407e-06
0.000345297
3.74178e-06
0.00034397
3.97609e-06
0.000342566
4.20685e-06
0.000341085
4.4339e-06
0.000339531
4.65708e-06
0.000337903
4.87628e-06
0.000336204
5.09136e-06
0.000334434
5.3022e-06
0.000332595
5.5087e-06
0.000330689
5.71077e-06
0.000328717
5.90831e-06
0.000326681
6.10125e-06
0.000324582
6.28953e-06
0.000322421
6.47307e-06
0.000320201
6.65185e-06
0.000317923
6.8258e-06
0.000315589
6.99492e-06
0.0003132
7.15916e-06
0.000310758
7.31853e-06
0.000308264
7.47301e-06
0.000305721
7.6226e-06
0.000303129
7.76733e-06
0.00030049
7.9072e-06
0.000297807
8.04224e-06
0.00029508
8.17249e-06
0.000292312
8.29797e-06
0.000289503
8.41874e-06
0.000286655
8.53485e-06
0.000283771
8.64634e-06
0.00028085
8.75329e-06
0.000277896
8.85575e-06
0.000274909
8.9538e-06
0.000271891
9.04751e-06
0.000268843
9.13696e-06
0.000265766
9.22222e-06
0.000262663
9.30339e-06
0.000259534
9.38054e-06
0.000256381
9.45377e-06
0.000253204
9.52317e-06
0.000250006
9.58884e-06
0.000246787
9.65086e-06
0.000243549
9.70933e-06
0.000240292
9.76436e-06
0.000237018
9.81604e-06
0.000233728
9.86447e-06
0.000230423
9.90975e-06
0.000227104
9.95198e-06
0.000223772
9.99125e-06
0.000220428
1.00277e-05
0.000217073
1.00614e-05
0.000213707
1.00924e-05
0.000210332
1.01209e-05
0.000206949
1.01469e-05
0.000203557
1.01706e-05
0.000200159
1.0192e-05
0.000196754
1.02112e-05
0.000193343
1.02284e-05
0.000189928
1.02435e-05
0.000186508
1.02569e-05
0.000183084
1.02684e-05
0.000179657
1.02781e-05
0.000176228
1.02863e-05
0.000172796
1.0293e-05
0.000169362
1.02981e-05
0.000165928
1.03019e-05
0.000162492
1.03045e-05
0.000159056
1.03058e-05
0.00015562
1.03059e-05
0.000152185
1.0305e-05
0.00014875
1.03031e-05
0.000145316
1.03003e-05
0.000141883
1.02967e-05
0.000138452
1.02922e-05
0.000135023
1.0287e-05
0.000131595
1.02812e-05
0.00012817
1.02748e-05
0.000124747
1.02678e-05
0.000121327
1.02604e-05
0.000117909
1.02526e-05
0.000114494
1.02444e-05
0.000111082
1.02358e-05
0.000107673
1.0227e-05
0.000104267
1.0218e-05
0.000100864
1.02088e-05
9.74639e-05
1.01995e-05
9.40671e-05
1.01901e-05
9.06736e-05
1.01807e-05
8.72831e-05
1.01713e-05
8.38959e-05
1.01619e-05
8.05117e-05
1.01526e-05
7.71307e-05
1.01434e-05
7.37527e-05
1.01343e-05
7.03776e-05
1.01254e-05
6.70055e-05
1.01167e-05
6.36362e-05
1.01083e-05
6.02697e-05
1.01001e-05
5.69058e-05
1.00922e-05
5.35444e-05
1.00846e-05
5.01855e-05
1.00773e-05
4.68289e-05
1.00704e-05
4.34744e-05
1.00639e-05
4.01221e-05
1.00578e-05
3.67716e-05
1.0052e-05
3.3423e-05
1.00467e-05
3.00759e-05
1.00418e-05
2.67304e-05
1.00374e-05
2.33861e-05
1.00335e-05
2.00431e-05
1.003e-05
1.6701e-05
1.0027e-05
1.33598e-05
1.00245e-05
1.00192e-05
1.00224e-05
6.67922e-06
1.00209e-05
3.33952e-06
1.00199e-05
1.00194e-05
3.30899e-06
-1.32388e-05
6.61818e-06
-1.32396e-05
9.92778e-06
-1.32412e-05
1.3238e-05
-1.32436e-05
1.6549e-05
-1.32469e-05
1.98611e-05
-1.32509e-05
2.31743e-05
-1.32557e-05
2.6489e-05
-1.32614e-05
2.98053e-05
-1.32678e-05
3.31234e-05
-1.32749e-05
3.64434e-05
-1.32828e-05
3.97657e-05
-1.32914e-05
4.30903e-05
-1.33008e-05
4.64174e-05
-1.33108e-05
4.97472e-05
-1.33215e-05
5.30799e-05
-1.33328e-05
5.64156e-05
-1.33448e-05
5.97544e-05
-1.33573e-05
6.30966e-05
-1.33704e-05
6.64421e-05
-1.3384e-05
6.97913e-05
-1.33981e-05
7.31441e-05
-1.34127e-05
7.65007e-05
-1.34277e-05
7.98611e-05
-1.3443e-05
8.32256e-05
-1.34587e-05
8.65941e-05
-1.34747e-05
8.99666e-05
-1.3491e-05
9.33434e-05
-1.35074e-05
9.67243e-05
-1.3524e-05
0.000100109
-1.35406e-05
0.000103499
-1.35573e-05
0.000106892
-1.3574e-05
0.00011029
-1.35906e-05
0.000113692
-1.3607e-05
0.000117098
-1.36232e-05
0.000120508
-1.36391e-05
0.000123922
-1.36547e-05
0.00012734
-1.36698e-05
0.000130762
-1.36844e-05
0.000134187
-1.36983e-05
0.000137616
-1.37116e-05
0.000141048
-1.37241e-05
0.000144482
-1.37357e-05
0.00014792
-1.37464e-05
0.00015136
-1.3756e-05
0.000154802
-1.37644e-05
0.000158246
-1.37716e-05
0.000161692
-1.37773e-05
0.000165139
-1.37816e-05
0.000168586
-1.37843e-05
0.000172034
-1.37853e-05
0.000175482
-1.37844e-05
0.000178929
-1.37816e-05
0.000182375
-1.37766e-05
0.00018582
-1.37695e-05
0.000189262
-1.376e-05
0.000192701
-1.3748e-05
0.000196137
-1.37335e-05
0.000199569
-1.37161e-05
0.000202995
-1.36959e-05
0.000206416
-1.36726e-05
0.000209831
-1.36461e-05
0.000213238
-1.36163e-05
0.000216637
-1.3583e-05
0.000220026
-1.35461e-05
0.000223406
-1.35054e-05
0.000226775
-1.34607e-05
0.000230132
-1.3412e-05
0.000233475
-1.3359e-05
0.000236805
-1.33017e-05
0.000240119
-1.32398e-05
0.000243416
-1.31732e-05
0.000246696
-1.31018e-05
0.000249957
-1.30254e-05
0.000253198
-1.29438e-05
0.000256417
-1.2857e-05
0.000259613
-1.27648e-05
0.000262784
-1.2667e-05
0.00026593
-1.25635e-05
0.000269049
-1.24542e-05
0.000272139
-1.2339e-05
0.000275199
-1.22177e-05
0.000278227
-1.20903e-05
0.000281222
-1.19566e-05
0.000284181
-1.18165e-05
0.000287105
-1.167e-05
0.00028999
-1.15169e-05
0.000292835
-1.13572e-05
0.000295638
-1.11908e-05
0.000298399
-1.10177e-05
0.000301114
-1.08377e-05
0.000303783
-1.0651e-05
0.000306403
-1.04574e-05
0.000308973
-1.02569e-05
0.000311492
-1.00495e-05
0.000313957
-9.83534e-06
0.000316366
-9.61429e-06
0.000318719
-9.38644e-06
0.000321012
-9.15183e-06
0.000323246
-8.91052e-06
0.000325417
-8.66259e-06
0.000327525
-8.40813e-06
0.000329567
-8.14723e-06
0.000331542
-7.88e-06
0.000333449
-7.60659e-06
0.000335286
-7.32713e-06
0.000337052
-7.04178e-06
0.000338744
-6.75071e-06
0.000340362
-6.4541e-06
0.000341905
-6.15214e-06
0.00034337
-5.84506e-06
0.000344758
-5.53306e-06
0.000346066
-5.21638e-06
0.000347293
-4.89527e-06
0.000348439
-4.56999e-06
0.000349503
-4.2408e-06
0.000350482
-3.90798e-06
0.000351378
-3.5718e-06
0.000352189
-3.23258e-06
0.000352913
-2.89061e-06
0.000353552
-2.54619e-06
0.000354103
-2.19965e-06
0.000354567
-1.8513e-06
0.000354944
-1.50147e-06
0.000355232
-1.15049e-06
0.000355432
-7.98681e-07
0.000355544
-4.46383e-07
0.000355567
-9.39219e-08
0.000355502
2.58359e-07
0.000355349
6.10138e-07
0.000355108
9.61083e-07
0.000354779
1.31087e-06
0.000354362
1.65917e-06
0.000353859
2.00568e-06
0.00035327
2.35007e-06
0.000352594
2.69205e-06
0.000351834
3.03131e-06
0.000350989
3.36757e-06
0.000350061
3.70055e-06
0.00034905
4.02996e-06
0.000347957
4.35556e-06
0.000346784
4.67709e-06
0.000345532
4.99431e-06
0.000344201
5.30698e-06
0.000342793
5.6149e-06
0.000341309
5.91785e-06
0.00033975
6.21564e-06
0.000338119
6.5081e-06
0.000336415
6.79505e-06
0.000334641
7.07634e-06
0.000332798
7.35183e-06
0.000330887
7.62138e-06
0.000328911
7.88489e-06
0.00032687
8.14225e-06
0.000324766
8.39338e-06
0.000322601
8.63818e-06
0.000320376
8.87661e-06
0.000318093
9.1086e-06
0.000315754
9.33412e-06
0.00031336
9.55313e-06
0.000310913
9.76563e-06
0.000308414
9.9716e-06
0.000305866
1.0171e-05
0.000303269
1.0364e-05
0.000300626
1.05504e-05
0.000297938
1.07304e-05
0.000295206
1.0904e-05
0.000292433
1.10713e-05
0.000289619
1.12322e-05
0.000286767
1.1387e-05
0.000283878
1.15355e-05
0.000280953
1.1678e-05
0.000277994
1.18145e-05
0.000275003
1.19452e-05
0.000271981
1.207e-05
0.000268928
1.21891e-05
0.000265848
1.23027e-05
0.000262741
1.24108e-05
0.000259608
1.25135e-05
0.00025645
1.2611e-05
0.00025327
1.27034e-05
0.000250068
1.27908e-05
0.000246846
1.28733e-05
0.000243604
1.29511e-05
0.000240344
1.30244e-05
0.000237067
1.30931e-05
0.000233774
1.31575e-05
0.000230466
1.32177e-05
0.000227144
1.32739e-05
0.000223809
1.33261e-05
0.000220462
1.33745e-05
0.000217104
1.34193e-05
0.000213736
1.34605e-05
0.000210359
1.34983e-05
0.000206973
1.35329e-05
0.000203579
1.35643e-05
0.000200178
1.35926e-05
0.000196772
1.36182e-05
0.000193359
1.36409e-05
0.000189942
1.3661e-05
0.00018652
1.36786e-05
0.000183094
1.36938e-05
0.000179666
1.37067e-05
0.000176235
1.37175e-05
0.000172801
1.37262e-05
0.000169366
1.3733e-05
0.00016593
1.37379e-05
0.000162494
1.37412e-05
0.000159057
1.37428e-05
0.00015562
1.37429e-05
0.000152183
1.37416e-05
0.000148747
1.37389e-05
0.000145313
1.37351e-05
0.000141879
1.37301e-05
0.000138447
1.37241e-05
0.000135017
1.37171e-05
0.000131589
1.37092e-05
0.000128163
1.37006e-05
0.00012474
1.36912e-05
0.000121319
1.36812e-05
0.000117901
1.36707e-05
0.000114486
1.36596e-05
0.000111074
1.36482e-05
0.000107664
1.36364e-05
0.000104258
1.36243e-05
0.000100855
1.3612e-05
9.74548e-05
1.35995e-05
9.4058e-05
1.35869e-05
9.06644e-05
1.35743e-05
8.7274e-05
1.35617e-05
8.38868e-05
1.35491e-05
8.05028e-05
1.35366e-05
7.71219e-05
1.35243e-05
7.3744e-05
1.35122e-05
7.03692e-05
1.35003e-05
6.69973e-05
1.34887e-05
6.36282e-05
1.34773e-05
6.02619e-05
1.34664e-05
5.68983e-05
1.34558e-05
5.35373e-05
1.34456e-05
5.01787e-05
1.34359e-05
4.68225e-05
1.34267e-05
4.34684e-05
1.34179e-05
4.01165e-05
1.34097e-05
3.67664e-05
1.34021e-05
3.34182e-05
1.3395e-05
3.00716e-05
1.33884e-05
2.67265e-05
1.33825e-05
2.33827e-05
1.33772e-05
2.00401e-05
1.33726e-05
1.66985e-05
1.33686e-05
1.33578e-05
1.33652e-05
1.00178e-05
1.33625e-05
6.67822e-06
1.33605e-05
3.33902e-06
1.33591e-05
1.33584e-05
3.30818e-06
-1.6547e-05
6.61656e-06
-1.6548e-05
9.92535e-06
-1.655e-05
1.32348e-05
-1.6553e-05
1.6545e-05
-1.65571e-05
1.98563e-05
-1.65622e-05
2.31687e-05
-1.65682e-05
2.64827e-05
-1.65753e-05
2.97982e-05
-1.65833e-05
3.31155e-05
-1.65923e-05
3.64349e-05
-1.66022e-05
3.97564e-05
-1.6613e-05
4.30804e-05
-1.66247e-05
4.64068e-05
-1.66373e-05
4.9736e-05
-1.66507e-05
5.30681e-05
-1.66649e-05
5.64032e-05
-1.66799e-05
5.97415e-05
-1.66956e-05
6.30831e-05
-1.6712e-05
6.64282e-05
-1.67291e-05
6.97768e-05
-1.67468e-05
7.31292e-05
-1.67651e-05
7.64855e-05
-1.67839e-05
7.98456e-05
-1.68032e-05
8.32097e-05
-1.68229e-05
8.6578e-05
-1.6843e-05
8.99504e-05
-1.68633e-05
9.3327e-05
-1.6884e-05
9.67078e-05
-1.69048e-05
0.000100093
-1.69258e-05
0.000103482
-1.69467e-05
0.000106876
-1.69677e-05
0.000110274
-1.69885e-05
0.000113676
-1.70092e-05
0.000117083
-1.70296e-05
0.000120493
-1.70496e-05
0.000123908
-1.70692e-05
0.000127326
-1.70882e-05
0.000130748
-1.71066e-05
0.000134174
-1.71242e-05
0.000137603
-1.7141e-05
0.000141036
-1.71568e-05
0.000144472
-1.71715e-05
0.00014791
-1.7185e-05
0.000151352
-1.71972e-05
0.000154795
-1.72079e-05
0.000158241
-1.7217e-05
0.000161688
-1.72245e-05
0.000165136
-1.723e-05
0.000168586
-1.72336e-05
0.000172035
-1.72351e-05
0.000175485
-1.72342e-05
0.000178934
-1.72309e-05
0.000182383
-1.7225e-05
0.00018583
-1.72163e-05
0.000189274
-1.72047e-05
0.000192716
-1.719e-05
0.000196155
-1.7172e-05
0.000199589
-1.71506e-05
0.000203019
-1.71255e-05
0.000206443
-1.70967e-05
0.000209861
-1.70639e-05
0.000213271
-1.70269e-05
0.000216674
-1.69856e-05
0.000220068
-1.69397e-05
0.000223451
-1.68891e-05
0.000226824
-1.68336e-05
0.000230185
-1.6773e-05
0.000233533
-1.6707e-05
0.000236867
-1.66356e-05
0.000240186
-1.65585e-05
0.000243488
-1.64756e-05
0.000246773
-1.63866e-05
0.000250039
-1.62913e-05
0.000253285
-1.61897e-05
0.000256509
-1.60814e-05
0.000259711
-1.59664e-05
0.000262888
-1.58444e-05
0.00026604
-1.57153e-05
0.000269165
-1.55789e-05
0.000272261
-1.54351e-05
0.000275327
-1.52837e-05
0.000278361
-1.51246e-05
0.000281362
-1.49577e-05
0.000284328
-1.47828e-05
0.000287258
-1.45997e-05
0.00029015
-1.44085e-05
0.000293002
-1.4209e-05
0.000295812
-1.40011e-05
0.000298579
-1.37848e-05
0.000301301
-1.35599e-05
0.000303977
-1.33266e-05
0.000306604
-1.30846e-05
0.000309181
-1.2834e-05
0.000311706
-1.25748e-05
0.000314178
-1.2307e-05
0.000316594
-1.20306e-05
0.000318954
-1.17457e-05
0.000321254
-1.14523e-05
0.000323494
-1.11506e-05
0.000325672
-1.08405e-05
0.000327786
-1.05222e-05
0.000329835
-1.01959e-05
0.000331816
-9.86159e-06
0.000333729
-9.51956e-06
0.000335572
-9.16994e-06
0.000337343
-8.81293e-06
0.000339041
-8.44875e-06
0.000340665
-8.07762e-06
0.000342212
-7.69978e-06
0.000343683
-7.31551e-06
0.000345075
-6.92508e-06
0.000346387
-6.52877e-06
0.000347619
-6.12691e-06
0.000348769
-5.71981e-06
0.000349836
-5.3078e-06
0.000350819
-4.89124e-06
0.000351718
-4.47047e-06
0.000352531
-4.04588e-06
0.000353258
-3.61783e-06
0.000353899
-3.18673e-06
0.000354452
-2.75295e-06
0.000354918
-2.31691e-06
0.000355295
-1.87901e-06
0.000355584
-1.43966e-06
0.000355785
-9.99281e-07
0.000355897
-5.58285e-07
0.00035592
-1.17088e-07
0.000355854
3.23882e-07
0.0003557
7.64221e-07
0.000355458
1.20351e-06
0.000355127
1.64135e-06
0.000354709
2.07732e-06
0.000354204
2.51103e-06
0.000353612
2.9421e-06
0.000352934
3.37012e-06
0.00035217
3.79475e-06
0.000351322
4.2156e-06
0.000350391
4.63233e-06
0.000349376
5.04459e-06
0.000348279
5.45206e-06
0.000347102
5.85442e-06
0.000345845
6.25137e-06
0.000344509
6.64262e-06
0.000343096
7.0279e-06
0.000341607
7.40695e-06
0.000340043
7.77953e-06
0.000338406
8.14541e-06
0.000336697
8.50439e-06
0.000334917
8.85627e-06
0.000333068
9.20087e-06
0.000331151
9.53803e-06
0.000329168
9.86762e-06
0.000327121
1.01895e-05
0.000325011
1.05035e-05
0.00032284
1.08097e-05
0.000320608
1.11078e-05
0.000318319
1.13979e-05
0.000315973
1.16798e-05
0.000313573
1.19536e-05
0.000311119
1.22192e-05
0.000308614
1.24767e-05
0.000306059
1.2726e-05
0.000303456
1.29671e-05
0.000300806
1.32001e-05
0.000298112
1.34251e-05
0.000295374
1.3642e-05
0.000292594
1.38509e-05
0.000289775
1.4052e-05
0.000286916
1.42452e-05
0.000284021
1.44308e-05
0.00028109
1.46087e-05
0.000278126
1.47792e-05
0.000275129
1.49423e-05
0.0002721
1.50981e-05
0.000269043
1.52469e-05
0.000265957
1.53886e-05