/*--------------------------------*- C++ -*----------------------------------*\
| =========                 |                                                 |
| \\      /  F ield         | OpenFOAM: The Open Source CFD Toolbox           |
|  \\    /   O peration     | Version:  v2012                                 |
|   \\  /    A nd           | Website:  www.openfoam.com                      |
|    \\/     M anipulation  |                                                 |
\*---------------------------------------------------------------------------*/
FoamFile
{
    version     2.0;
    format      ascii;
    class       volScalarField;
    location    "16.5";
    object      W_z;
}
// * * * * * * * * * * * * * * * * * * * * * * * * * * * * * * * * * * * * * //

dimensions      [0 0 -1 0 0 0 0];


internalField   nonuniform List<scalar> 
65536
(
1.85921e-08
3.50091e-08
-2.42335e-07
-3.13588e-07
-3.28577e-07
-3.2561e-07
-3.18244e-07
-3.11644e-07
-3.07403e-07
-3.05144e-07
-3.04233e-07
-3.04449e-07
-3.05675e-07
-3.07798e-07
-3.10927e-07
-3.1485e-07
-3.19426e-07
-3.24572e-07
-3.30095e-07
-3.36003e-07
-3.42127e-07
-3.48476e-07
-3.55269e-07
-3.62347e-07
-3.69573e-07
-3.76904e-07
-3.84198e-07
-3.91519e-07
-3.98905e-07
-4.06246e-07
-4.13676e-07
-4.21244e-07
-4.28639e-07
-4.35739e-07
-4.4272e-07
-4.49672e-07
-4.56611e-07
-4.63493e-07
-4.70093e-07
-4.76347e-07
-4.82531e-07
-4.88798e-07
-4.94997e-07
-5.01035e-07
-5.0693e-07
-5.1264e-07
-5.18244e-07
-5.23956e-07
-5.29776e-07
-5.35502e-07
-5.41093e-07
-5.46672e-07
-5.52322e-07
-5.58141e-07
-5.64239e-07
-5.70468e-07
-5.76515e-07
-5.8237e-07
-5.88361e-07
-5.94708e-07
-6.01329e-07
-6.0807e-07
-6.1484e-07
-6.21572e-07
-6.28292e-07
-6.35151e-07
-6.42231e-07
-6.49405e-07
-6.5655e-07
-6.63736e-07
-6.71068e-07
-6.78445e-07
-6.85685e-07
-6.92803e-07
-7.00013e-07
-7.07444e-07
-7.14955e-07
-7.22303e-07
-7.29428e-07
-7.36502e-07
-7.43719e-07
-7.51096e-07
-7.58487e-07
-7.65764e-07
-7.72974e-07
-7.8029e-07
-7.87806e-07
-7.9543e-07
-8.02998e-07
-8.10519e-07
-8.18216e-07
-8.2622e-07
-8.34392e-07
-8.42591e-07
-8.50861e-07
-8.59313e-07
-8.67998e-07
-8.76866e-07
-8.85818e-07
-8.94849e-07
-9.04004e-07
-9.13281e-07
-9.22657e-07
-9.32128e-07
-9.41745e-07
-9.51561e-07
-9.61514e-07
-9.71467e-07
-9.81388e-07
-9.91353e-07
-1.00144e-06
-1.01165e-06
-1.02189e-06
-1.03213e-06
-1.04238e-06
-1.05264e-06
-1.06288e-06
-1.07309e-06
-1.08321e-06
-1.09327e-06
-1.10327e-06
-1.11319e-06
-1.12291e-06
-1.13233e-06
-1.14144e-06
-1.15033e-06
-1.15899e-06
-1.16738e-06
-1.17545e-06
-1.1831e-06
-1.19022e-06
-1.1969e-06
-1.20329e-06
-1.20939e-06
-1.21501e-06
-1.21999e-06
-1.22452e-06
-1.22876e-06
-1.23276e-06
-1.23645e-06
-1.23976e-06
-1.24262e-06
-1.2452e-06
-1.24766e-06
-1.24998e-06
-1.25203e-06
-1.25377e-06
-1.25536e-06
-1.25678e-06
-1.25805e-06
-1.25907e-06
-1.25985e-06
-1.26036e-06
-1.26051e-06
-1.2603e-06
-1.2598e-06
-1.25898e-06
-1.25796e-06
-1.25659e-06
-1.25483e-06
-1.25286e-06
-1.2506e-06
-1.24809e-06
-1.24528e-06
-1.24238e-06
-1.23923e-06
-1.23589e-06
-1.23255e-06
-1.22912e-06
-1.22559e-06
-1.22206e-06
-1.21856e-06
-1.21496e-06
-1.2114e-06
-1.20792e-06
-1.20456e-06
-1.20113e-06
-1.19782e-06
-1.19459e-06
-1.19133e-06
-1.18806e-06
-1.1848e-06
-1.18145e-06
-1.17805e-06
-1.17464e-06
-1.17117e-06
-1.1677e-06
-1.16409e-06
-1.16038e-06
-1.15647e-06
-1.15259e-06
-1.1487e-06
-1.14474e-06
-1.14067e-06
-1.13639e-06
-1.13204e-06
-1.12757e-06
-1.12287e-06
-1.11798e-06
-1.11292e-06
-1.10769e-06
-1.10231e-06
-1.09672e-06
-1.09086e-06
-1.08471e-06
-1.07828e-06
-1.0715e-06
-1.06432e-06
-1.05653e-06
-1.04794e-06
-1.0386e-06
-1.02841e-06
-1.01728e-06
-1.00505e-06
-9.91667e-07
-9.77103e-07
-9.61523e-07
-9.45033e-07
-9.27613e-07
-9.09308e-07
-8.90237e-07
-8.70599e-07
-8.50569e-07
-8.30197e-07
-8.09409e-07
-7.88073e-07
-7.66203e-07
-7.43709e-07
-7.20502e-07
-6.96432e-07
-6.71388e-07
-6.45345e-07
-6.18486e-07
-5.91031e-07
-5.63255e-07
-5.35425e-07
-5.07808e-07
-4.80677e-07
-4.54026e-07
-4.27806e-07
-4.01794e-07
-3.75773e-07
-3.49505e-07
-3.22766e-07
-2.95551e-07
-2.68037e-07
-2.40559e-07
-2.13472e-07
-1.86995e-07
-1.61203e-07
-1.36059e-07
-1.11364e-07
-8.68834e-08
-6.23476e-08
-3.7605e-08
-1.26437e-08
5.32089e-08
9.88925e-08
-3.38694e-07
-4.97069e-07
-5.69459e-07
-6.06527e-07
-6.30212e-07
-6.49712e-07
-6.67998e-07
-6.85737e-07
-7.03207e-07
-7.21103e-07
-7.39939e-07
-7.59739e-07
-7.80289e-07
-8.01392e-07
-8.22929e-07
-8.44644e-07
-8.66686e-07
-8.8928e-07
-9.12197e-07
-9.35404e-07
-9.58921e-07
-9.82588e-07
-1.0063e-06
-1.02989e-06
-1.0534e-06
-1.07711e-06
-1.10083e-06
-1.1243e-06
-1.1476e-06
-1.17071e-06
-1.19348e-06
-1.216e-06
-1.2383e-06
-1.26027e-06
-1.28197e-06
-1.30338e-06
-1.32425e-06
-1.34464e-06
-1.3648e-06
-1.3847e-06
-1.40421e-06
-1.42339e-06
-1.44228e-06
-1.46082e-06
-1.4792e-06
-1.49759e-06
-1.51584e-06
-1.53378e-06
-1.55153e-06
-1.56925e-06
-1.58704e-06
-1.60509e-06
-1.62346e-06
-1.6419e-06
-1.66017e-06
-1.67848e-06
-1.69722e-06
-1.71642e-06
-1.73585e-06
-1.75546e-06
-1.77528e-06
-1.79531e-06
-1.81558e-06
-1.8362e-06
-1.85713e-06
-1.87819e-06
-1.8993e-06
-1.92056e-06
-1.94205e-06
-1.96364e-06
-1.9852e-06
-2.00674e-06
-2.0284e-06
-2.05018e-06
-2.07196e-06
-2.09362e-06
-2.11514e-06
-2.13663e-06
-2.15823e-06
-2.17998e-06
-2.2018e-06
-2.2236e-06
-2.2454e-06
-2.2674e-06
-2.2897e-06
-2.31226e-06
-2.33497e-06
-2.35788e-06
-2.38129e-06
-2.40529e-06
-2.42965e-06
-2.45421e-06
-2.47921e-06
-2.50486e-06
-2.53112e-06
-2.5578e-06
-2.58476e-06
-2.61208e-06
-2.63994e-06
-2.66833e-06
-2.69714e-06
-2.72623e-06
-2.75562e-06
-2.78544e-06
-2.81567e-06
-2.84615e-06
-2.87679e-06
-2.90764e-06
-2.93877e-06
-2.97013e-06
-3.00161e-06
-3.03315e-06
-3.06476e-06
-3.09635e-06
-3.12788e-06
-3.15939e-06
-3.19079e-06
-3.22197e-06
-3.25278e-06
-3.28305e-06
-3.31273e-06
-3.3418e-06
-3.37028e-06
-3.3981e-06
-3.42502e-06
-3.45084e-06
-3.47552e-06
-3.49905e-06
-3.52142e-06
-3.54264e-06
-3.5627e-06
-3.58141e-06
-3.59869e-06
-3.61454e-06
-3.62926e-06
-3.64295e-06
-3.65552e-06
-3.66694e-06
-3.67725e-06
-3.68664e-06
-3.69534e-06
-3.70344e-06
-3.71073e-06
-3.71727e-06
-3.72318e-06
-3.72876e-06
-3.73392e-06
-3.73835e-06
-3.74198e-06
-3.74481e-06
-3.74702e-06
-3.74847e-06
-3.74896e-06
-3.74844e-06
-3.74693e-06
-3.7445e-06
-3.7413e-06
-3.73703e-06
-3.73194e-06
-3.72604e-06
-3.71952e-06
-3.71226e-06
-3.70452e-06
-3.69625e-06
-3.68738e-06
-3.67833e-06
-3.66919e-06
-3.65988e-06
-3.65049e-06
-3.6412e-06
-3.63182e-06
-3.62255e-06
-3.61349e-06
-3.6048e-06
-3.59613e-06
-3.5876e-06
-3.5792e-06
-3.57089e-06
-3.56264e-06
-3.55435e-06
-3.54592e-06
-3.53731e-06
-3.52858e-06
-3.51962e-06
-3.51045e-06
-3.50086e-06
-3.49102e-06
-3.48082e-06
-3.47036e-06
-3.45957e-06
-3.44826e-06
-3.4364e-06
-3.42395e-06
-3.41104e-06
-3.39751e-06
-3.38305e-06
-3.36767e-06
-3.35149e-06
-3.33458e-06
-3.3169e-06
-3.29837e-06
-3.27894e-06
-3.25864e-06
-3.23752e-06
-3.21537e-06
-3.19194e-06
-3.16696e-06
-3.14013e-06
-3.11142e-06
-3.08056e-06
-3.04719e-06
-3.01098e-06
-2.9718e-06
-2.92965e-06
-2.88461e-06
-2.83671e-06
-2.78581e-06
-2.73207e-06
-2.67581e-06
-2.6174e-06
-2.55708e-06
-2.49494e-06
-2.43108e-06
-2.36552e-06
-2.29843e-06
-2.22977e-06
-2.15934e-06
-2.08692e-06
-2.01241e-06
-1.93586e-06
-1.85747e-06
-1.7776e-06
-1.69662e-06
-1.61511e-06
-1.53342e-06
-1.45209e-06
-1.37128e-06
-1.29106e-06
-1.21124e-06
-1.13148e-06
-1.05148e-06
-9.70873e-07
-8.89673e-07
-8.08153e-07
-7.26775e-07
-6.46034e-07
-5.66395e-07
-4.88125e-07
-4.11341e-07
-3.35812e-07
-2.61101e-07
-1.86737e-07
-1.12426e-07
-3.77138e-08
3.24447e-07
5.1303e-07
6.78562e-08
-2.01004e-07
-3.81964e-07
-5.10945e-07
-6.09817e-07
-6.90685e-07
-7.60174e-07
-8.22046e-07
-8.78689e-07
-9.31806e-07
-9.82563e-07
-1.03153e-06
-1.079e-06
-1.1254e-06
-1.17088e-06
-1.2156e-06
-1.25986e-06
-1.30365e-06
-1.34703e-06
-1.39005e-06
-1.43265e-06
-1.47497e-06
-1.51697e-06
-1.55854e-06
-1.59986e-06
-1.64088e-06
-1.68144e-06
-1.72165e-06
-1.76151e-06
-1.80083e-06
-1.83971e-06
-1.87819e-06
-1.9161e-06
-1.95348e-06
-1.9904e-06
-2.02677e-06
-2.06253e-06
-2.0978e-06
-2.13248e-06
-2.16642e-06
-2.19983e-06
-2.23282e-06
-2.26527e-06
-2.29718e-06
-2.32871e-06
-2.35987e-06
-2.39062e-06
-2.42113e-06
-2.45149e-06
-2.4816e-06
-2.51148e-06
-2.5414e-06
-2.57143e-06
-2.60152e-06
-2.6318e-06
-2.66246e-06
-2.69342e-06
-2.72456e-06
-2.75595e-06
-2.78774e-06
-2.81993e-06
-2.85249e-06
-2.8855e-06
-2.91902e-06
-2.95292e-06
-2.98703e-06
-3.02133e-06
-3.05585e-06
-3.09058e-06
-3.12554e-06
-3.16077e-06
-3.19619e-06
-3.23161e-06
-3.26687e-06
-3.30211e-06
-3.3375e-06
-3.37303e-06
-3.40852e-06
-3.44395e-06
-3.47948e-06
-3.51525e-06
-3.5512e-06
-3.58729e-06
-3.62363e-06
-3.66037e-06
-3.69761e-06
-3.73533e-06
-3.77357e-06
-3.81245e-06
-3.85214e-06
-3.89264e-06
-3.93381e-06
-3.97573e-06
-4.01857e-06
-4.06234e-06
-4.10696e-06
-4.15237e-06
-4.19855e-06
-4.24561e-06
-4.29357e-06
-4.34235e-06
-4.39185e-06
-4.44194e-06
-4.49263e-06
-4.54398e-06
-4.59597e-06
-4.64848e-06
-4.70145e-06
-4.75479e-06
-4.80845e-06
-4.86242e-06
-4.91662e-06
-4.971e-06
-5.02546e-06
-5.07979e-06
-5.13398e-06
-5.18796e-06
-5.24156e-06
-5.29457e-06
-5.34675e-06
-5.39805e-06
-5.44839e-06
-5.49765e-06
-5.54566e-06
-5.59221e-06
-5.63702e-06
-5.67996e-06
-5.72104e-06
-5.76028e-06
-5.79748e-06
-5.83252e-06
-5.86529e-06
-5.89594e-06
-5.92443e-06
-5.95081e-06
-5.97524e-06
-5.99772e-06
-6.01841e-06
-6.03732e-06
-6.05471e-06
-6.07065e-06
-6.08545e-06
-6.09913e-06
-6.11184e-06
-6.12348e-06
-6.13412e-06
-6.14399e-06
-6.15287e-06
-6.16063e-06
-6.16706e-06
-6.17226e-06
-6.17616e-06
-6.17881e-06
-6.17974e-06
-6.17916e-06
-6.17679e-06
-6.17307e-06
-6.16781e-06
-6.16105e-06
-6.15306e-06
-6.14393e-06
-6.13377e-06
-6.12259e-06
-6.11083e-06
-6.09827e-06
-6.0852e-06
-6.07187e-06
-6.05836e-06
-6.04475e-06
-6.03126e-06
-6.01805e-06
-6.00494e-06
-5.99209e-06
-5.97963e-06
-5.9675e-06
-5.95556e-06
-5.94392e-06
-5.93238e-06
-5.92089e-06
-5.9094e-06
-5.89772e-06
-5.88579e-06
-5.87355e-06
-5.86093e-06
-5.84781e-06
-5.83413e-06
-5.81981e-06
-5.80491e-06
-5.78926e-06
-5.77281e-06
-5.75546e-06
-5.73697e-06
-5.71726e-06
-5.69622e-06
-5.67386e-06
-5.64987e-06
-5.62407e-06
-5.59648e-06
-5.56718e-06
-5.53625e-06
-5.50371e-06
-5.46956e-06
-5.43379e-06
-5.39639e-06
-5.35728e-06
-5.31617e-06
-5.27284e-06
-5.22687e-06
-5.17794e-06
-5.12574e-06
-5.06988e-06
-5.01008e-06
-4.94595e-06
-4.87735e-06
-4.80397e-06
-4.72588e-06
-4.64293e-06
-4.55526e-06
-4.46301e-06
-4.36644e-06
-4.26591e-06
-4.1617e-06
-4.0542e-06
-3.94367e-06
-3.8303e-06
-3.71432e-06
-3.59579e-06
-3.47479e-06
-3.35122e-06
-3.22526e-06
-3.09689e-06
-2.96653e-06
-2.83431e-06
-2.70084e-06
-2.56637e-06
-2.43141e-06
-2.29626e-06
-2.16111e-06
-2.02612e-06
-1.89117e-06
-1.75621e-06
-1.62114e-06
-1.48599e-06
-1.35092e-06
-1.21628e-06
-1.08244e-06
-9.49849e-07
-8.1879e-07
-6.89432e-07
-5.61803e-07
-4.35667e-07
-3.1067e-07
-1.86613e-07
-6.24397e-08
3.50252e-07
5.62941e-07
2.07962e-07
-6.49379e-08
-2.84226e-07
-4.61792e-07
-6.09172e-07
-7.35022e-07
-8.4528e-07
-9.44056e-07
-1.03429e-06
-1.11819e-06
-1.19726e-06
-1.27248e-06
-1.34476e-06
-1.41458e-06
-1.48232e-06
-1.54844e-06
-1.61315e-06
-1.67669e-06
-1.73926e-06
-1.80085e-06
-1.86163e-06
-1.92164e-06
-1.98085e-06
-2.03943e-06
-2.09741e-06
-2.15462e-06
-2.21122e-06
-2.26727e-06
-2.3226e-06
-2.37718e-06
-2.43114e-06
-2.48438e-06
-2.53687e-06
-2.58865e-06
-2.63958e-06
-2.6896e-06
-2.73891e-06
-2.7875e-06
-2.83516e-06
-2.88193e-06
-2.92796e-06
-2.97317e-06
-3.01755e-06
-3.06126e-06
-3.10432e-06
-3.14666e-06
-3.18842e-06
-3.22981e-06
-3.27084e-06
-3.31156e-06
-3.35216e-06
-3.39272e-06
-3.43312e-06
-3.47347e-06
-3.51408e-06
-3.55512e-06
-3.59651e-06
-3.63827e-06
-3.68053e-06
-3.7233e-06
-3.76651e-06
-3.81022e-06
-3.85457e-06
-3.89952e-06
-3.94492e-06
-3.99077e-06
-4.03712e-06
-4.08387e-06
-4.13085e-06
-4.17802e-06
-4.22549e-06
-4.27329e-06
-4.32128e-06
-4.36925e-06
-4.4172e-06
-4.46524e-06
-4.51346e-06
-4.56181e-06
-4.61025e-06
-4.65881e-06
-4.70757e-06
-4.75666e-06
-4.80616e-06
-4.85617e-06
-4.90672e-06
-4.95789e-06
-5.00984e-06
-5.06273e-06
-5.11655e-06
-5.17139e-06
-5.22739e-06
-5.28464e-06
-5.34315e-06
-5.40294e-06
-5.464e-06
-5.52635e-06
-5.59005e-06
-5.65509e-06
-5.72139e-06
-5.78891e-06
-5.85766e-06
-5.92769e-06
-5.99888e-06
-6.07102e-06
-6.14404e-06
-6.21798e-06
-6.29285e-06
-6.36852e-06
-6.44482e-06
-6.52166e-06
-6.59906e-06
-6.67688e-06
-6.75499e-06
-6.83325e-06
-6.91142e-06
-6.98937e-06
-7.06701e-06
-7.14415e-06
-7.22059e-06
-7.29608e-06
-7.37037e-06
-7.44325e-06
-7.51453e-06
-7.58406e-06
-7.65162e-06
-7.71687e-06
-7.77969e-06
-7.8399e-06
-7.89742e-06
-7.95205e-06
-8.00372e-06
-8.05238e-06
-8.09802e-06
-8.14068e-06
-8.18033e-06
-8.21721e-06
-8.25134e-06
-8.28299e-06
-8.31217e-06
-8.33917e-06
-8.36413e-06
-8.38734e-06
-8.409e-06
-8.42924e-06
-8.44805e-06
-8.46532e-06
-8.48132e-06
-8.49594e-06
-8.50921e-06
-8.52074e-06
-8.53042e-06
-8.53803e-06
-8.54386e-06
-8.54751e-06
-8.54896e-06
-8.54808e-06
-8.54506e-06
-8.54001e-06
-8.53287e-06
-8.52405e-06
-8.5134e-06
-8.50148e-06
-8.48808e-06
-8.47378e-06
-8.45861e-06
-8.44276e-06
-8.42632e-06
-8.40972e-06
-8.39295e-06
-8.37617e-06
-8.3598e-06
-8.34371e-06
-8.32794e-06
-8.31257e-06
-8.29774e-06
-8.28317e-06
-8.26894e-06
-8.25495e-06
-8.2409e-06
-8.22689e-06
-8.21266e-06
-8.19807e-06
-8.18302e-06
-8.16746e-06
-8.15118e-06
-8.13414e-06
-8.11609e-06
-8.09712e-06
-8.0771e-06
-8.05583e-06
-8.0332e-06
-8.009e-06
-7.98298e-06
-7.95485e-06
-7.92461e-06
-7.89198e-06
-7.85681e-06
-7.81896e-06
-7.77845e-06
-7.73537e-06
-7.68984e-06
-7.64193e-06
-7.59165e-06
-7.53888e-06
-7.48353e-06
-7.42533e-06
-7.364e-06
-7.29915e-06
-7.23022e-06
-7.15685e-06
-7.07848e-06
-6.99489e-06
-6.9055e-06
-6.81011e-06
-6.70829e-06
-6.59995e-06
-6.48502e-06
-6.3635e-06
-6.23559e-06
-6.10147e-06
-5.96152e-06
-5.81621e-06
-5.66598e-06
-5.51134e-06
-5.35255e-06
-5.19002e-06
-5.02388e-06
-4.85447e-06
-4.6818e-06
-4.5061e-06
-4.32746e-06
-4.14622e-06
-3.96264e-06
-3.77713e-06
-3.59015e-06
-3.40209e-06
-3.21338e-06
-3.02424e-06
-2.83492e-06
-2.64555e-06
-2.45619e-06
-2.2669e-06
-2.07782e-06
-1.88914e-06
-1.70117e-06
-1.51435e-06
-1.32907e-06
-1.14572e-06
-9.64553e-07
-7.85623e-07
-6.08832e-07
-4.33816e-07
-2.60472e-07
-8.71264e-08
3.15347e-07
5.0791e-07
2.22471e-07
-2.95721e-08
-2.5607e-07
-4.55606e-07
-6.31317e-07
-7.87387e-07
-9.2767e-07
-1.05537e-06
-1.17311e-06
-1.28295e-06
-1.3864e-06
-1.48482e-06
-1.57915e-06
-1.67001e-06
-1.75805e-06
-1.84366e-06
-1.92718e-06
-2.00896e-06
-2.08917e-06
-2.168e-06
-2.24559e-06
-2.32193e-06
-2.39723e-06
-2.47159e-06
-2.54486e-06
-2.61713e-06
-2.68856e-06
-2.75904e-06
-2.82852e-06
-2.89709e-06
-2.96467e-06
-3.03124e-06
-3.09688e-06
-3.16148e-06
-3.2249e-06
-3.28723e-06
-3.34854e-06
-3.40868e-06
-3.46764e-06
-3.52556e-06
-3.58238e-06
-3.63803e-06
-3.69265e-06
-3.74634e-06
-3.79906e-06
-3.8509e-06
-3.90204e-06
-3.95253e-06
-4.00236e-06
-4.05179e-06
-4.1011e-06
-4.15027e-06
-4.19927e-06
-4.24833e-06
-4.29765e-06
-4.34725e-06
-4.39721e-06
-4.44774e-06
-4.49894e-06
-4.55077e-06
-4.60322e-06
-4.65644e-06
-4.71043e-06
-4.76508e-06
-4.82029e-06
-4.87611e-06
-4.93263e-06
-4.98975e-06
-5.04734e-06
-5.10527e-06
-5.1635e-06
-5.222e-06
-5.28078e-06
-5.33982e-06
-5.39904e-06
-5.45836e-06
-5.5178e-06
-5.5775e-06
-5.63754e-06
-5.69785e-06
-5.7584e-06
-5.81936e-06
-5.88094e-06
-5.9433e-06
-6.00647e-06
-6.07047e-06
-6.13557e-06
-6.20201e-06
-6.26981e-06
-6.33895e-06
-6.40959e-06
-6.48197e-06
-6.55616e-06
-6.63214e-06
-6.70986e-06
-6.78939e-06
-6.87088e-06
-6.95432e-06
-7.03955e-06
-7.12647e-06
-7.21514e-06
-7.3056e-06
-7.39778e-06
-7.49144e-06
-7.58646e-06
-7.68283e-06
-7.78048e-06
-7.87932e-06
-7.97918e-06
-8.07996e-06
-8.18157e-06
-8.28385e-06
-8.38653e-06
-8.48947e-06
-8.59249e-06
-8.69536e-06
-8.79786e-06
-8.89973e-06
-9.00078e-06
-9.10073e-06
-9.19923e-06
-9.29608e-06
-9.39098e-06
-9.48357e-06
-9.57357e-06
-9.66078e-06
-9.74511e-06
-9.82609e-06
-9.90356e-06
-9.97746e-06
-1.00477e-05
-1.01141e-05
-1.01766e-05
-1.02354e-05
-1.02903e-05
-1.03416e-05
-1.03894e-05
-1.04339e-05
-1.04753e-05
-1.05139e-05
-1.05499e-05
-1.05835e-05
-1.0615e-05
-1.06444e-05
-1.06721e-05
-1.06979e-05
-1.07219e-05
-1.07439e-05
-1.07642e-05
-1.07823e-05
-1.07981e-05
-1.08113e-05
-1.08218e-05
-1.08297e-05
-1.08347e-05
-1.08368e-05
-1.0836e-05
-1.08326e-05
-1.08266e-05
-1.08183e-05
-1.08078e-05
-1.07954e-05
-1.07813e-05
-1.07658e-05
-1.07493e-05
-1.07319e-05
-1.07137e-05
-1.06952e-05
-1.06764e-05
-1.06578e-05
-1.06392e-05
-1.06211e-05
-1.06034e-05
-1.05862e-05
-1.05695e-05
-1.05533e-05
-1.05373e-05
-1.05216e-05
-1.05059e-05
-1.04901e-05
-1.0474e-05
-1.04576e-05
-1.04405e-05
-1.04227e-05
-1.0404e-05
-1.03843e-05
-1.03634e-05
-1.03411e-05
-1.03174e-05
-1.02921e-05
-1.02649e-05
-1.02357e-05
-1.02043e-05
-1.017e-05
-1.01328e-05
-1.00924e-05
-1.00487e-05
-1.00015e-05
-9.95078e-06
-9.89659e-06
-9.83906e-06
-9.77833e-06
-9.71444e-06
-9.64724e-06
-9.57655e-06
-9.50205e-06
-9.42338e-06
-9.34021e-06
-9.25179e-06
-9.15774e-06
-9.05731e-06
-8.9502e-06
-8.83579e-06
-8.71378e-06
-8.5838e-06
-8.44552e-06
-8.29893e-06
-8.14391e-06
-7.98073e-06
-7.80965e-06
-7.63099e-06
-7.44536e-06
-7.25323e-06
-7.05526e-06
-6.85187e-06
-6.64361e-06
-6.43073e-06
-6.21356e-06
-5.99238e-06
-5.7674e-06
-5.53896e-06
-5.30727e-06
-5.0728e-06
-4.83586e-06
-4.59703e-06
-4.35668e-06
-4.11525e-06
-3.87315e-06
-3.6306e-06
-3.38783e-06
-3.14502e-06
-2.90237e-06
-2.66006e-06
-2.41843e-06
-2.17779e-06
-1.93864e-06
-1.70144e-06
-1.46664e-06
-1.23457e-06
-1.00536e-06
-7.78912e-07
-5.54911e-07
-3.33346e-07
-1.11595e-07
2.67396e-07
4.22589e-07
1.77775e-07
-5.48427e-08
-2.78e-07
-4.85681e-07
-6.76468e-07
-8.5134e-07
-1.01219e-06
-1.16111e-06
-1.30002e-06
-1.43051e-06
-1.55413e-06
-1.67207e-06
-1.7852e-06
-1.89436e-06
-2.00012e-06
-2.10291e-06
-2.20321e-06
-2.30125e-06
-2.39733e-06
-2.49167e-06
-2.58429e-06
-2.6754e-06
-2.76519e-06
-2.85357e-06
-2.94058e-06
-3.02641e-06
-3.11099e-06
-3.19426e-06
-3.27632e-06
-3.35714e-06
-3.43664e-06
-3.5149e-06
-3.59185e-06
-3.66735e-06
-3.74146e-06
-3.81428e-06
-3.88565e-06
-3.95548e-06
-4.02392e-06
-4.09096e-06
-4.15651e-06
-4.22065e-06
-4.28352e-06
-4.34507e-06
-4.40537e-06
-4.46466e-06
-4.52306e-06
-4.58053e-06
-4.63724e-06
-4.69347e-06
-4.74931e-06
-4.80481e-06
-4.86022e-06
-4.91581e-06
-4.97163e-06
-5.02771e-06
-5.08427e-06
-5.1415e-06
-5.19943e-06
-5.25808e-06
-5.31759e-06
-5.37807e-06
-5.43946e-06
-5.50164e-06
-5.56461e-06
-5.6284e-06
-5.69294e-06
-5.75819e-06
-5.82412e-06
-5.89067e-06
-5.95768e-06
-6.02499e-06
-6.09263e-06
-6.16071e-06
-6.22919e-06
-6.2979e-06
-6.36682e-06
-6.43609e-06
-6.50586e-06
-6.57611e-06
-6.64683e-06
-6.71813e-06
-6.79026e-06
-6.86339e-06
-6.93762e-06
-7.01306e-06
-7.08994e-06
-7.16852e-06
-7.24892e-06
-7.33115e-06
-7.41535e-06
-7.5018e-06
-7.5906e-06
-7.68173e-06
-7.77525e-06
-7.87124e-06
-7.9698e-06
-8.07088e-06
-8.17442e-06
-8.28043e-06
-8.38886e-06
-8.49961e-06
-8.61259e-06
-8.72771e-06
-8.84486e-06
-8.96393e-06
-9.08478e-06
-9.20726e-06
-9.33127e-06
-9.45664e-06
-9.58317e-06
-9.71065e-06
-9.83876e-06
-9.96733e-06
-1.00962e-05
-1.02251e-05
-1.03537e-05
-1.04816e-05
-1.06085e-05
-1.07342e-05
-1.08583e-05
-1.09805e-05
-1.11005e-05
-1.12177e-05
-1.1332e-05
-1.14428e-05
-1.15503e-05
-1.16539e-05
-1.17534e-05
-1.18486e-05
-1.19393e-05
-1.20255e-05
-1.21071e-05
-1.21841e-05
-1.22566e-05
-1.23246e-05
-1.23883e-05
-1.2448e-05
-1.25039e-05
-1.25562e-05
-1.26054e-05
-1.26515e-05
-1.26949e-05
-1.27357e-05
-1.27743e-05
-1.28105e-05
-1.28445e-05
-1.28761e-05
-1.29052e-05
-1.29317e-05
-1.29553e-05
-1.29759e-05
-1.29931e-05
-1.30069e-05
-1.30172e-05
-1.30241e-05
-1.30273e-05
-1.30273e-05
-1.30242e-05
-1.3018e-05
-1.30093e-05
-1.29982e-05
-1.29851e-05
-1.29701e-05
-1.29538e-05
-1.29363e-05
-1.29179e-05
-1.28989e-05
-1.28796e-05
-1.28603e-05
-1.2841e-05
-1.28221e-05
-1.28037e-05
-1.27858e-05
-1.27683e-05
-1.27514e-05
-1.27347e-05
-1.27182e-05
-1.27018e-05
-1.26852e-05
-1.26681e-05
-1.26506e-05
-1.26324e-05
-1.26132e-05
-1.25929e-05
-1.25713e-05
-1.25483e-05
-1.25236e-05
-1.24971e-05
-1.24686e-05
-1.24378e-05
-1.24045e-05
-1.23683e-05
-1.23288e-05
-1.22856e-05
-1.22384e-05
-1.21871e-05
-1.21315e-05
-1.20715e-05
-1.20073e-05
-1.19389e-05
-1.18665e-05
-1.17899e-05
-1.17093e-05
-1.16243e-05
-1.15345e-05
-1.14395e-05
-1.13387e-05
-1.12316e-05
-1.11175e-05
-1.09957e-05
-1.08656e-05
-1.07268e-05
-1.05787e-05
-1.0421e-05
-1.02533e-05
-1.00755e-05
-9.88764e-06
-9.68975e-06
-9.4823e-06
-9.26565e-06
-9.04049e-06
-8.80733e-06
-8.56695e-06
-8.31993e-06
-8.0668e-06
-7.80814e-06
-7.5442e-06
-7.27548e-06
-7.00213e-06
-6.72472e-06
-6.44347e-06
-6.15896e-06
-5.87152e-06
-5.58176e-06
-5.29017e-06
-4.99715e-06
-4.7032e-06
-4.40861e-06
-4.11373e-06
-3.81869e-06
-3.52385e-06
-3.22943e-06
-2.93585e-06
-2.64357e-06
-2.35311e-06
-2.06504e-06
-1.77989e-06
-1.49808e-06
-1.21977e-06
-9.44889e-07
-6.7317e-07
-4.04749e-07
-1.35691e-07
2.20446e-07
3.34428e-07
1.09755e-07
-1.10513e-07
-3.28909e-07
-5.38856e-07
-7.37243e-07
-9.23331e-07
-1.09772e-06
-1.26152e-06
-1.41592e-06
-1.56232e-06
-1.70189e-06
-1.83559e-06
-1.96434e-06
-2.08882e-06
-2.20957e-06
-2.32713e-06
-2.44184e-06
-2.55402e-06
-2.66397e-06
-2.77176e-06
-2.87759e-06
-2.9817e-06
-3.08403e-06
-3.18463e-06
-3.28369e-06
-3.38119e-06
-3.47708e-06
-3.57141e-06
-3.66419e-06
-3.75536e-06
-3.84498e-06
-3.93303e-06
-4.01929e-06
-4.10381e-06
-4.1867e-06
-4.26787e-06
-4.34721e-06
-4.42478e-06
-4.50061e-06
-4.5746e-06
-4.6468e-06
-4.71736e-06
-4.78627e-06
-4.85354e-06
-4.91936e-06
-4.98391e-06
-5.04721e-06
-5.1094e-06
-5.17081e-06
-5.23158e-06
-5.29172e-06
-5.35142e-06
-5.41101e-06
-5.47071e-06
-5.53058e-06
-5.59081e-06
-5.65166e-06
-5.71321e-06
-5.77549e-06
-5.83864e-06
-5.90284e-06
-5.9681e-06
-6.03431e-06
-6.10152e-06
-6.1698e-06
-6.23912e-06
-6.30931e-06
-6.38031e-06
-6.45212e-06
-6.52474e-06
-6.59804e-06
-6.67187e-06
-6.74619e-06
-6.82104e-06
-6.89641e-06
-6.97225e-06
-7.04854e-06
-7.12535e-06
-7.20276e-06
-7.28084e-06
-7.3597e-06
-7.43947e-06
-7.52032e-06
-7.60241e-06
-7.68593e-06
-7.77116e-06
-7.85826e-06
-7.94741e-06
-8.0388e-06
-8.13263e-06
-8.22907e-06
-8.32832e-06
-8.43045e-06
-8.53556e-06
-8.64383e-06
-8.75535e-06
-8.87007e-06
-8.98797e-06
-9.10913e-06
-9.23362e-06
-9.36135e-06
-9.49208e-06
-9.62571e-06
-9.76219e-06
-9.90145e-06
-1.00433e-05
-1.01876e-05
-1.03341e-05
-1.04827e-05
-1.06331e-05
-1.07852e-05
-1.09386e-05
-1.1093e-05
-1.12482e-05
-1.14039e-05
-1.15597e-05
-1.17154e-05
-1.18705e-05
-1.20246e-05
-1.21775e-05
-1.23286e-05
-1.24776e-05
-1.26241e-05
-1.27677e-05
-1.29079e-05
-1.30442e-05
-1.31767e-05
-1.33048e-05
-1.34282e-05
-1.35468e-05
-1.36602e-05
-1.37685e-05
-1.38714e-05
-1.3969e-05
-1.40613e-05
-1.41484e-05
-1.42306e-05
-1.43079e-05
-1.43807e-05
-1.44492e-05
-1.45138e-05
-1.45748e-05
-1.46325e-05
-1.4687e-05
-1.47385e-05
-1.47873e-05
-1.48334e-05
-1.48766e-05
-1.49166e-05
-1.49535e-05
-1.49868e-05
-1.50167e-05
-1.50425e-05
-1.50644e-05
-1.50819e-05
-1.50955e-05
-1.51047e-05
-1.51101e-05
-1.51116e-05
-1.51097e-05
-1.51045e-05
-1.50965e-05
-1.50862e-05
-1.50736e-05
-1.50593e-05
-1.50434e-05
-1.50264e-05
-1.50086e-05
-1.49903e-05
-1.49718e-05
-1.49534e-05
-1.49351e-05
-1.49173e-05
-1.49e-05
-1.4883e-05
-1.48665e-05
-1.48502e-05
-1.4834e-05
-1.48178e-05
-1.48014e-05
-1.47844e-05
-1.47669e-05
-1.47484e-05
-1.47288e-05
-1.47078e-05
-1.46853e-05
-1.4661e-05
-1.46348e-05
-1.46065e-05
-1.45757e-05
-1.45422e-05
-1.45056e-05
-1.44655e-05
-1.44217e-05
-1.43735e-05
-1.43206e-05
-1.42627e-05
-1.41998e-05
-1.41317e-05
-1.40585e-05
-1.39804e-05
-1.38973e-05
-1.38093e-05
-1.37163e-05
-1.36179e-05
-1.35139e-05
-1.34036e-05
-1.32863e-05
-1.31613e-05
-1.3028e-05
-1.28856e-05
-1.27334e-05
-1.25709e-05
-1.23975e-05
-1.22127e-05
-1.20163e-05
-1.1808e-05
-1.15879e-05
-1.13561e-05
-1.1113e-05
-1.08592e-05
-1.05954e-05
-1.03221e-05
-1.00403e-05
-9.75068e-06
-9.45379e-06
-9.15037e-06
-8.84078e-06
-8.5256e-06
-8.20513e-06
-7.87984e-06
-7.55017e-06
-7.21671e-06
-6.87996e-06
-6.54047e-06
-6.19885e-06
-5.85556e-06
-5.51113e-06
-5.16585e-06
-4.82017e-06
-4.47434e-06
-4.12862e-06
-3.78346e-06
-3.43923e-06
-3.09654e-06
-2.75605e-06
-2.4184e-06
-2.08422e-06
-1.754e-06
-1.42798e-06
-1.10606e-06
-7.88003e-07
-4.74183e-07
-1.59198e-07
1.79244e-07
2.54155e-07
3.71963e-08
-1.77101e-07
-3.92249e-07
-6.02587e-07
-8.048e-07
-9.97549e-07
-1.18066e-06
-1.35455e-06
-1.52015e-06
-1.67841e-06
-1.83018e-06
-1.97635e-06
-2.11763e-06
-2.25459e-06
-2.38781e-06
-2.51767e-06
-2.64453e-06
-2.76874e-06
-2.89039e-06
-3.00968e-06
-3.12687e-06
-3.24197e-06
-3.35497e-06
-3.46607e-06
-3.57529e-06
-3.68257e-06
-3.78799e-06
-3.89154e-06
-3.99314e-06
-4.09284e-06
-4.19067e-06
-4.28645e-06
-4.38012e-06
-4.47179e-06
-4.56142e-06
-4.64888e-06
-4.73421e-06
-4.81746e-06
-4.89851e-06
-4.97737e-06
-5.05418e-06
-5.12896e-06
-5.20172e-06
-5.27262e-06
-5.34186e-06
-5.40944e-06
-5.47545e-06
-5.54022e-06
-5.60403e-06
-5.66695e-06
-5.7291e-06
-5.7908e-06
-5.8523e-06
-5.91373e-06
-5.9753e-06
-6.03731e-06
-6.09996e-06
-6.16329e-06
-6.22742e-06
-6.2926e-06
-6.35892e-06
-6.42633e-06
-6.49481e-06
-6.56444e-06
-6.63532e-06
-6.70738e-06
-6.78053e-06
-6.85468e-06
-6.9298e-06
-7.00581e-06
-7.08267e-06
-7.16035e-06
-7.2388e-06
-7.31789e-06
-7.39761e-06
-7.47802e-06
-7.55923e-06
-7.64121e-06
-7.72398e-06
-7.80762e-06
-7.89238e-06
-7.97843e-06
-8.0659e-06
-8.15492e-06
-8.24579e-06
-8.33888e-06
-8.43437e-06
-8.53235e-06
-8.63304e-06
-8.73682e-06
-8.84393e-06
-8.95446e-06
-9.06854e-06
-9.18635e-06
-9.30813e-06
-9.43396e-06
-9.56378e-06
-9.69766e-06
-9.83568e-06
-9.97788e-06
-1.01242e-05
-1.02743e-05
-1.04283e-05
-1.05859e-05
-1.07471e-05
-1.09117e-05
-1.10795e-05
-1.12502e-05
-1.14236e-05
-1.15995e-05
-1.17776e-05
-1.19574e-05
-1.21389e-05
-1.23215e-05
-1.25049e-05
-1.26887e-05
-1.28724e-05
-1.30557e-05
-1.32382e-05
-1.34195e-05
-1.3599e-05
-1.37762e-05
-1.39507e-05
-1.4122e-05
-1.42898e-05
-1.44535e-05
-1.46128e-05
-1.47673e-05
-1.49167e-05
-1.50607e-05
-1.5199e-05
-1.53316e-05
-1.54582e-05
-1.55787e-05
-1.56934e-05
-1.58021e-05
-1.59051e-05
-1.60025e-05
-1.60946e-05
-1.61817e-05
-1.62643e-05
-1.63425e-05
-1.64167e-05
-1.64872e-05
-1.65541e-05
-1.66176e-05
-1.66777e-05
-1.67345e-05
-1.67875e-05
-1.68369e-05
-1.68821e-05
-1.69232e-05
-1.69597e-05
-1.69916e-05
-1.70184e-05
-1.70406e-05
-1.70578e-05
-1.70705e-05
-1.70787e-05
-1.70829e-05
-1.70834e-05
-1.70805e-05
-1.70746e-05
-1.70662e-05
-1.70557e-05
-1.70434e-05
-1.70296e-05
-1.70148e-05
-1.69991e-05
-1.69831e-05
-1.6967e-05
-1.69509e-05
-1.69351e-05
-1.69196e-05
-1.69045e-05
-1.68896e-05
-1.68748e-05
-1.68601e-05
-1.68452e-05
-1.68299e-05
-1.68141e-05
-1.67975e-05
-1.67798e-05
-1.67607e-05
-1.67401e-05
-1.67176e-05
-1.66931e-05
-1.66663e-05
-1.6637e-05
-1.66049e-05
-1.65696e-05
-1.65308e-05
-1.6488e-05
-1.64406e-05
-1.63884e-05
-1.63308e-05
-1.62675e-05
-1.61984e-05
-1.61234e-05
-1.60424e-05
-1.59558e-05
-1.58633e-05
-1.5765e-05
-1.56608e-05
-1.55503e-05
-1.5433e-05
-1.53085e-05
-1.51756e-05
-1.50339e-05
-1.48823e-05
-1.47202e-05
-1.45468e-05
-1.43614e-05
-1.41636e-05
-1.39526e-05
-1.37282e-05
-1.34903e-05
-1.32389e-05
-1.29741e-05
-1.26963e-05
-1.24062e-05
-1.21045e-05
-1.17923e-05
-1.14701e-05
-1.11389e-05
-1.07995e-05
-1.04525e-05
-1.00986e-05
-9.73809e-06
-9.37175e-06
-8.99996e-06
-8.62324e-06
-8.24218e-06
-7.85745e-06
-7.46963e-06
-7.07942e-06
-6.68733e-06
-6.2939e-06
-5.89955e-06
-5.50456e-06
-5.10942e-06
-4.71438e-06
-4.31991e-06
-3.92658e-06
-3.535e-06
-3.14593e-06
-2.76021e-06
-2.37852e-06
-2.00143e-06
-1.62922e-06
-1.2618e-06
-8.98923e-07
-5.41173e-07
-1.81873e-07
1.44923e-07
1.84637e-07
-3.09735e-08
-2.43325e-07
-4.5699e-07
-6.67454e-07
-8.71796e-07
-1.06855e-06
-1.25719e-06
-1.438e-06
-1.61156e-06
-1.77846e-06
-1.93949e-06
-2.09529e-06
-2.24641e-06
-2.39342e-06
-2.53672e-06
-2.67668e-06
-2.81365e-06
-2.94776e-06
-3.07917e-06
-3.20817e-06
-3.33479e-06
-3.45901e-06
-3.58099e-06
-3.7008e-06
-3.81835e-06
-3.93371e-06
-4.04689e-06
-4.15781e-06
-4.26649e-06
-4.37296e-06
-4.47706e-06
-4.57869e-06
-4.67797e-06
-4.77488e-06
-4.86927e-06
-4.96113e-06
-5.05054e-06
-5.13739e-06
-5.22165e-06
-5.30345e-06
-5.38282e-06
-5.45974e-06
-5.53433e-06
-5.60682e-06
-5.67728e-06
-5.74573e-06
-5.81245e-06
-5.87776e-06
-5.94176e-06
-6.00459e-06
-6.06657e-06
-6.12801e-06
-6.18907e-06
-6.24995e-06
-6.31097e-06
-6.3724e-06
-6.43437e-06
-6.49698e-06
-6.5605e-06
-6.62511e-06
-6.69084e-06
-6.7577e-06
-6.8258e-06
-6.89522e-06
-6.96592e-06
-7.03787e-06
-7.11108e-06
-7.18553e-06
-7.26113e-06
-7.33774e-06
-7.41534e-06
-7.49401e-06
-7.57368e-06
-7.65421e-06
-7.73556e-06
-7.81788e-06
-7.90127e-06
-7.98575e-06
-8.07131e-06
-8.15808e-06
-8.24632e-06
-8.33624e-06
-8.42799e-06
-8.52176e-06
-8.61788e-06
-8.7167e-06
-8.81846e-06
-8.92332e-06
-9.03154e-06
-9.14353e-06
-9.25952e-06
-9.37966e-06
-9.50416e-06
-9.63327e-06
-9.76715e-06
-9.90593e-06
-1.00497e-05
-1.01985e-05
-1.03525e-05
-1.05115e-05
-1.06755e-05
-1.08445e-05
-1.10182e-05
-1.11965e-05
-1.13794e-05
-1.15665e-05
-1.17576e-05
-1.19525e-05
-1.21509e-05
-1.23525e-05
-1.25569e-05
-1.27638e-05
-1.29727e-05
-1.31833e-05
-1.33951e-05
-1.36077e-05
-1.38204e-05
-1.4033e-05
-1.4245e-05
-1.44557e-05
-1.46647e-05
-1.48715e-05
-1.50754e-05
-1.5276e-05
-1.5473e-05
-1.56657e-05
-1.58536e-05
-1.60364e-05
-1.62136e-05
-1.63851e-05
-1.65506e-05
-1.67096e-05
-1.68621e-05
-1.70081e-05
-1.71474e-05
-1.72801e-05
-1.74064e-05
-1.75263e-05
-1.76402e-05
-1.77484e-05
-1.78512e-05
-1.7949e-05
-1.8042e-05
-1.81308e-05
-1.82151e-05
-1.82955e-05
-1.83718e-05
-1.8444e-05
-1.85122e-05
-1.85759e-05
-1.8635e-05
-1.86892e-05
-1.87383e-05
-1.8782e-05
-1.88203e-05
-1.88529e-05
-1.88802e-05
-1.89021e-05
-1.89191e-05
-1.89311e-05
-1.89391e-05
-1.89432e-05
-1.89438e-05
-1.89415e-05
-1.89366e-05
-1.89295e-05
-1.89207e-05
-1.89105e-05
-1.88993e-05
-1.88874e-05
-1.88751e-05
-1.88627e-05
-1.88503e-05
-1.8838e-05
-1.88259e-05
-1.88138e-05
-1.88018e-05
-1.87896e-05
-1.87772e-05
-1.87642e-05
-1.87505e-05
-1.87358e-05
-1.87199e-05
-1.87023e-05
-1.8683e-05
-1.86616e-05
-1.86378e-05
-1.86114e-05
-1.85821e-05
-1.85496e-05
-1.85135e-05
-1.84735e-05
-1.84289e-05
-1.83792e-05
-1.83239e-05
-1.82627e-05
-1.81952e-05
-1.81211e-05
-1.80402e-05
-1.79527e-05
-1.78587e-05
-1.7758e-05
-1.76507e-05
-1.75365e-05
-1.74151e-05
-1.72858e-05
-1.7148e-05
-1.70007e-05
-1.68433e-05
-1.66745e-05
-1.64937e-05