/*--------------------------------*- C++ -*----------------------------------*\
| =========                 |                                                 |
| \\      /  F ield         | OpenFOAM: The Open Source CFD Toolbox           |
|  \\    /   O peration     | Version:  v2012                                 |
|   \\  /    A nd           | Website:  www.openfoam.com                      |
|    \\/     M anipulation  |                                                 |
\*---------------------------------------------------------------------------*/
FoamFile
{
    version     2.0;
    format      ascii;
    class       volScalarField;
    location    "0";
    object      p;
}
// * * * * * * * * * * * * * * * * * * * * * * * * * * * * * * * * * * * * * //

dimensions      [0 2 -2 0 0 0 0];


internalField   nonuniform List<scalar> 
4000
(
-1.4612e-14
-2.17023e-14
-2.02194e-14
-2.15124e-14
-1.94328e-14
-1.05277e-14
-2.04881e-14
-2.41705e-14
-2.9644e-14
-3.36897e-14
-2.76254e-14
-2.35602e-14
-3.61305e-14
-5.6105e-14
-6.21644e-14
-5.7761e-14
-5.17811e-14
-5.36241e-14
-5.48541e-14
-5.07954e-14
-5.20658e-14
-6.81418e-14
-6.78884e-14
-6.97667e-14
-6.69802e-14
-7.29163e-14
-6.66912e-14
-6.803e-14
-6.96902e-14
-7.01488e-14
-6.61981e-14
-6.61505e-14
-6.22e-14
-5.17719e-14
-4.68907e-14
-4.16185e-14
-5.62664e-14
-6.05586e-14
-6.89112e-14
-7.03529e-14
-6.78748e-14
-5.94295e-14
-4.77986e-14
-4.5355e-14
-3.2574e-14
-3.53094e-14
-2.86625e-14
-3.43185e-14
-2.64619e-14
-2.06221e-14
-2.4438e-14
-2.24385e-14
-1.88177e-14
-1.97451e-14
-2.05523e-14
-2.23158e-14
-1.39034e-14
-1.16716e-14
-9.91172e-15
-4.27665e-15
-2.98481e-15
4.57722e-15
6.61656e-15
1.07616e-14
1.25114e-14
9.12502e-15
9.65297e-15
8.07093e-15
3.96803e-15
3.99736e-15
2.52074e-15
-6.1698e-16
2.74544e-16
5.25067e-15
1.26775e-15
2.5609e-15
1.06721e-14
2.08284e-14
1.79051e-14
1.51679e-14
1.27091e-14
7.72503e-15
8.23607e-15
5.99284e-15
8.32263e-15
3.04469e-15
-2.1324e-15
-5.486e-15
-2.87174e-15
1.39396e-15
-3.62682e-15
-9.33225e-15
-8.71473e-15
-4.52582e-15
7.0729e-15
3.37207e-15
1.30537e-15
2.94257e-16
-2.7727e-16
-1.74703e-15
-1.85013e-14
-1.95339e-14
-2.04268e-14
-2.26306e-14
-1.41044e-14
-1.51541e-14
-2.08795e-14
-2.05445e-14
-2.57236e-14
-3.31283e-14
-3.11365e-14
-2.84063e-14
-3.93926e-14
-5.09062e-14
-5.74292e-14
-5.77236e-14
-5.41792e-14
-5.42221e-14
-5.3497e-14
-5.18747e-14
-5.30789e-14
-6.65701e-14
-6.73536e-14
-7.195e-14
-6.6551e-14
-6.86581e-14
-7.03955e-14
-6.87649e-14
-7.41556e-14
-6.85807e-14
-6.33788e-14
-6.6547e-14
-6.47154e-14
-5.55446e-14
-4.60853e-14
-4.81698e-14
-5.3584e-14
-5.8923e-14
-6.31206e-14
-6.39308e-14
-6.52274e-14
-6.02312e-14
-5.63664e-14
-4.45225e-14
-3.49363e-14
-3.33806e-14
-2.90384e-14
-3.1226e-14
-2.99782e-14
-2.3473e-14
-2.04643e-14
-2.32941e-14
-1.82815e-14
-2.15453e-14
-2.16968e-14
-2.09961e-14
-1.5231e-14
-1.42599e-14
-1.05541e-14
-2.17325e-15
-9.49354e-16
7.2679e-15
1.14907e-14
1.02393e-14
6.70809e-15
7.85112e-15
9.93964e-15
9.33564e-15
1.03515e-14
2.08691e-15
1.52876e-15
4.51385e-15
5.90238e-15
1.07641e-15
-2.62285e-16
2.79105e-15
1.12592e-14
1.56313e-14
1.70713e-14
1.22892e-14
1.05381e-14
1.25361e-14
1.01756e-14
7.23821e-15
7.51127e-15
4.44211e-15
-2.14291e-15
-7.8948e-15
-7.17497e-15
-7.08754e-16
-9.00995e-16
-6.59991e-15
-7.14672e-15
-1.04736e-15
3.71274e-15
3.39783e-15
-1.81468e-15
4.32391e-16
1.40587e-15
-5.65822e-16
-1.79583e-14
-1.86847e-14
-2.14999e-14
-1.95671e-14
-1.50184e-14
-1.31453e-14
-2.2287e-14
-2.22061e-14
-2.99033e-14
-3.22574e-14
-2.61024e-14
-3.2533e-14
-3.97989e-14
-5.03414e-14
-5.69225e-14
-5.54151e-14
-5.45464e-14
-5.51258e-14
-5.24603e-14
-4.48479e-14
-5.79723e-14
-6.57683e-14
-7.05107e-14
-6.87611e-14
-6.34932e-14
-6.9956e-14
-6.77797e-14
-6.79574e-14
-6.84049e-14
-6.7451e-14
-6.59139e-14
-7.0313e-14
-6.40373e-14
-5.33862e-14
-4.82703e-14
-5.17672e-14
-4.91367e-14
-5.80946e-14
-6.06572e-14
-6.74286e-14
-6.06416e-14
-6.50358e-14
-5.45073e-14
-4.22993e-14
-3.25648e-14
-3.37977e-14
-3.05536e-14
-3.71824e-14
-2.75855e-14
-2.04821e-14
-1.78984e-14
-2.30534e-14
-2.10425e-14
-2.18155e-14
-2.54578e-14
-2.03245e-14
-1.70045e-14
-8.57696e-15
-6.55039e-15
3.12831e-17
-3.56913e-15
5.11309e-16
7.11796e-15
1.0276e-14
7.0538e-15
7.51651e-15
1.10925e-14
1.1732e-14
1.46864e-14
3.6023e-15
-3.64036e-15
-2.63905e-16
4.47374e-15
3.67236e-15
4.66326e-15
1.64432e-15
8.75269e-15
1.88502e-14
1.25807e-14
1.43089e-14
1.1911e-14
1.57508e-14
9.40676e-15
6.99768e-15
2.33312e-15
6.97616e-15
2.36738e-15
-1.51323e-15
-7.33648e-15
-3.59494e-15
-5.60578e-15
-2.59985e-15
-1.50749e-15
-6.10896e-16
1.96579e-15
-1.29247e-15
-3.47617e-15
1.27777e-15
3.73e-15
-1.06741e-15
-2.08922e-14
-1.91842e-14
-2.20958e-14
-2.56399e-14
-1.67848e-14
-2.13058e-14
-2.42785e-14
-2.35396e-14
-2.33523e-14
-2.61358e-14
-3.2374e-14
-3.83243e-14
-4.14032e-14
-4.23086e-14
-5.15831e-14
-5.69288e-14
-5.46315e-14
-5.31108e-14
-5.35743e-14
-4.98616e-14
-5.51361e-14
-6.53597e-14
-7.33353e-14
-6.99134e-14
-6.67081e-14
-6.95803e-14
-7.0945e-14
-6.56852e-14
-5.9852e-14
-6.38082e-14
-6.34267e-14
-6.6541e-14
-6.11668e-14
-5.7502e-14
-5.89806e-14
-5.30749e-14
-4.85778e-14
-5.77272e-14
-5.67816e-14
-6.52244e-14
-5.47765e-14
-5.57422e-14
-5.40966e-14
-4.626e-14
-4.15332e-14
-3.45715e-14
-3.06476e-14
-2.76976e-14
-2.49212e-14
-2.37697e-14
-2.36752e-14
-2.28906e-14
-2.02522e-14
-1.79644e-14
-2.35202e-14
-1.88861e-14
-1.71043e-14
-1.20518e-14
-7.68358e-15
-2.87432e-15
4.23981e-16
5.06329e-15
9.10006e-15
8.92595e-15
6.54949e-15
3.34452e-15
1.19283e-14
1.20253e-14
1.75414e-14
1.10715e-14
6.86482e-15
5.48606e-15
4.83444e-15
5.13284e-15
1.99648e-15
4.07006e-15
1.01992e-14
1.56679e-14
1.39047e-14
1.36876e-14
6.62333e-15
1.59182e-14
1.2175e-14
6.41878e-15
1.06922e-15
4.07305e-15
1.92387e-15
-2.37241e-15
-7.33011e-15
-2.98154e-15
-3.5206e-15
-6.03199e-16
1.94348e-15
2.19122e-15
-1.128e-15
-2.62016e-15
-1.06736e-15
2.67592e-15
-1.35172e-16
-1.45999e-15
-2.08826e-14
-1.81835e-14
-2.45913e-14
-2.39877e-14
-2.40814e-14
-2.30909e-14
-2.41517e-14
-2.43556e-14
-2.42114e-14
-2.33441e-14
-2.89472e-14
-3.94711e-14
-4.33074e-14
-4.43709e-14
-4.66268e-14
-5.60919e-14
-5.41852e-14
-5.07227e-14
-5.41887e-14
-5.91608e-14
-5.97762e-14
-6.33099e-14
-7.41549e-14
-7.2213e-14
-6.44781e-14
-5.9393e-14
-5.96958e-14
-6.69853e-14
-5.98805e-14
-5.80027e-14
-5.94946e-14
-6.10592e-14
-5.8051e-14
-6.04865e-14
-6.04048e-14
-5.57388e-14
-5.37261e-14
-5.54578e-14
-5.44098e-14
-5.89222e-14
-5.46311e-14
-5.27101e-14
-5.30302e-14
-4.49174e-14
-4.60599e-14
-3.95498e-14
-3.35735e-14
-2.62585e-14
-2.23353e-14
-2.21265e-14
-2.43761e-14
-1.9893e-14
-1.85052e-14
-2.16777e-14
-2.20876e-14
-2.03919e-14
-1.8175e-14
-8.76604e-15
-6.59935e-15
-4.46063e-15
2.86769e-15
3.79766e-15
6.09789e-15
6.89867e-15
7.76757e-15
8.62214e-15
1.33475e-14
1.30492e-14
1.62804e-14
1.15459e-14
8.2552e-15
7.93919e-15
7.1893e-15
4.7015e-15
2.04733e-16
1.73512e-15
9.15228e-15
1.41577e-14
1.29106e-14
1.7549e-14
1.28438e-14
1.29177e-14
9.76868e-15
7.23568e-15
-3.99732e-16
-9.81772e-16
6.15532e-15
2.78271e-15
-3.6474e-15
3.75984e-17
-1.63567e-15
3.69233e-15
-1.02747e-15
2.50288e-15
1.49535e-15
-3.27143e-15
1.98906e-17
6.39043e-15
7.18462e-17
-4.15095e-15
-2.62112e-14
-1.89861e-14
-2.6056e-14
-3.29447e-14
-2.14461e-14
-1.69039e-14
-2.04831e-14
-2.51064e-14
-2.39359e-14
-3.09027e-14
-3.39398e-14
-3.93858e-14
-3.80121e-14
-4.67244e-14
-4.83019e-14
-4.83116e-14
-5.31974e-14
-5.245e-14
-4.91412e-14
-4.83747e-14
-6.67659e-14
-6.98752e-14
-7.98274e-14
-7.00191e-14
-6.51906e-14
-6.40152e-14
-6.48714e-14
-6.46224e-14
-5.25403e-14
-5.38062e-14
-5.24723e-14
-5.47438e-14
-6.14226e-14
-6.22497e-14
-5.2765e-14
-5.32792e-14
-5.05066e-14
-5.47547e-14
-5.88261e-14
-5.51399e-14
-5.4359e-14
-5.25683e-14
-5.09478e-14
-4.61202e-14
-4.31067e-14
-4.3046e-14
-3.50627e-14
-2.76208e-14
-1.86279e-14
-2.51491e-14
-2.30568e-14
-1.87277e-14
-1.70832e-14
-1.93653e-14
-2.29179e-14
-2.53198e-14
-1.99714e-14
-7.66687e-15
-7.71499e-15
-2.12399e-15
4.26275e-15
5.68427e-15
1.0083e-14
8.3324e-15
7.27733e-15
1.00135e-14
1.77405e-14
1.47753e-14
1.32694e-14
1.82043e-14
1.36177e-14
9.16626e-15
4.82327e-15
1.28299e-14
1.29174e-15
4.10082e-15
1.0047e-14
1.18786e-14
8.60776e-15
1.58672e-14
1.94289e-14
1.38659e-14
7.11541e-15
3.41395e-15
1.73802e-15
3.79166e-15
6.89812e-15
4.79023e-15
1.43121e-15
-8.19014e-16
-1.32528e-15
4.1825e-15
1.98334e-15
-4.91797e-16
2.62644e-15
2.48338e-15
2.12968e-15
1.12581e-15
-1.33892e-15
-2.01643e-15
-2.38512e-14
-2.43781e-14
-2.63574e-14
-2.84018e-14
-2.62499e-14
-2.63093e-14
-2.18917e-14
-2.56799e-14
-2.70314e-14
-3.24573e-14
-3.55465e-14
-3.5895e-14
-3.9112e-14
-4.41161e-14
-4.67624e-14
-4.48803e-14
-4.51376e-14
-4.89823e-14
-5.20424e-14
-5.94092e-14
-7.89797e-14
-7.31675e-14
-6.56616e-14
-6.15229e-14
-6.28569e-14
-5.72299e-14
-6.45592e-14
-6.79888e-14
-5.47917e-14
-4.847e-14
-5.21956e-14
-5.39904e-14
-5.78391e-14
-6.50132e-14
-5.52045e-14
-5.46953e-14
-4.96696e-14
-5.57857e-14
-5.22669e-14
-5.06812e-14
-6.34794e-14
-5.81387e-14
-5.32356e-14
-4.66275e-14
-4.08797e-14
-3.82667e-14
-3.56366e-14
-2.81568e-14
-2.07698e-14
-2.33926e-14
-2.33904e-14
-2.02374e-14
-1.51656e-14
-1.33195e-14
-2.23707e-14
-2.96601e-14
-2.20173e-14
-8.43557e-15
-7.45232e-15
-1.24465e-15
6.79547e-15
4.94977e-15
1.0694e-14
1.03884e-14
6.48821e-15
1.36993e-14
1.53225e-14
8.3475e-15
6.88618e-15
1.73252e-14
2.25354e-14
1.57818e-14
5.81e-15
1.22374e-14
6.43151e-15
4.87503e-15
5.73625e-15
1.02067e-14
1.72021e-14
1.6248e-14
1.76619e-14
1.33985e-14
1.0805e-14
6.31246e-15
6.24876e-15
1.16741e-15
3.3369e-15
7.90609e-15
4.52045e-15
3.74176e-15
3.03377e-16
7.42256e-15
5.04063e-15
1.7147e-15
-5.24343e-16
-5.02414e-16
2.87744e-15
2.83263e-15
-5.27302e-16
-2.43034e-15
-2.89479e-14
-3.06762e-14
-3.32671e-14
-3.17589e-14
-2.27536e-14
-2.32629e-14
-2.24851e-14
-2.75821e-14
-2.82594e-14
-2.7826e-14
-3.21025e-14
-3.83876e-14
-4.17766e-14
-4.5462e-14
-4.68619e-14
-4.66753e-14
-4.21668e-14
-4.62289e-14
-5.68038e-14
-6.56587e-14
-7.31882e-14
-6.37171e-14
-6.06941e-14
-6.79747e-14
-7.52199e-14
-6.85211e-14
-6.6175e-14
-6.38901e-14
-5.82335e-14
-5.33886e-14
-5.0835e-14
-5.42234e-14
-5.24937e-14
-5.41192e-14
-5.40713e-14
-5.07504e-14
-5.19625e-14
-6.05719e-14
-5.82604e-14
-5.84403e-14
-6.34514e-14
-5.39716e-14
-4.71774e-14
-4.06989e-14
-4.16123e-14
-2.78507e-14
-3.31873e-14
-2.92016e-14
-2.48853e-14
-2.68105e-14
-1.26735e-14
-1.20245e-14
-1.90823e-14
-2.14934e-14
-2.47947e-14
-2.44521e-14
-2.10223e-14
-9.49488e-15
-9.13864e-15
-1.03342e-15
1.27945e-15
7.16787e-15
9.23118e-15
1.28007e-14
1.38984e-14
1.82495e-14
1.65822e-14
1.24418e-14
9.26964e-15
1.81318e-14
2.12802e-14
1.51505e-14
6.9863e-15
7.88148e-15
1.89819e-15
5.6293e-15
1.08371e-14
1.73082e-14
2.10614e-14
1.95971e-14
1.97172e-14
1.6444e-14
7.23442e-15
5.98293e-15
-4.23104e-15
5.13277e-16
5.96194e-15
8.47258e-15
6.82825e-15
7.29064e-15
3.23983e-15
2.91431e-15
8.06563e-15
7.19746e-15
2.79632e-16
-5.33713e-15
3.21733e-15
3.74941e-15
1.43357e-15
-2.63668e-15
-2.92341e-14
-3.05454e-14
-3.34482e-14
-3.69101e-14
-2.99033e-14
-2.60089e-14
-2.88478e-14
-3.01266e-14
-2.93381e-14
-2.61924e-14
-3.22599e-14
-4.23461e-14
-4.59256e-14
-4.22446e-14
-4.1181e-14
-4.74054e-14
-4.2746e-14
-4.46472e-14
-5.72417e-14
-6.84107e-14
-7.37563e-14
-7.00906e-14
-6.09096e-14
-6.54674e-14
-6.94867e-14
-6.95098e-14
-6.59893e-14
-6.98094e-14
-5.96625e-14
-5.07177e-14
-4.92427e-14
-5.13558e-14
-5.24305e-14
-5.69316e-14
-5.99508e-14
-5.50647e-14
-5.44235e-14
-6.09571e-14
-5.6244e-14
-4.767e-14
-4.8675e-14
-5.12699e-14
-5.20819e-14
-4.61913e-14
-4.48084e-14
-2.95036e-14
-2.9314e-14
-2.72071e-14
-2.33199e-14
-2.55593e-14
-1.98829e-14
-1.09402e-14
-2.11278e-14
-1.78497e-14
-2.30721e-14
-1.69741e-14
-1.65039e-14
-1.01853e-14
-1.35459e-14
-5.58007e-15
-2.24981e-15
3.53201e-15
4.50292e-15
1.20418e-14
1.6218e-14
1.71736e-14
1.5158e-14
1.01821e-14
1.02178e-14
1.82567e-14
1.6693e-14
1.67884e-14
1.13648e-14
1.38503e-14
4.88984e-15
7.4281e-15
1.18387e-14
1.89475e-14
2.3812e-14
2.26451e-14
2.19151e-14
1.92475e-14
1.27613e-14
4.67456e-15
3.10839e-15
3.06517e-15
4.17822e-15
7.78498e-15
6.12464e-15
8.25492e-15
6.67194e-15
4.24624e-15
5.50815e-15
4.15554e-15
-1.56963e-18
-2.35341e-16
3.80826e-15
2.67651e-15
-3.53751e-16
-4.03589e-15
-3.26791e-14
-3.71163e-14
-3.68293e-14
-3.51926e-14
-3.27741e-14
-3.23736e-14
-3.2232e-14
-2.97123e-14
-2.45068e-14
-3.3132e-14
-3.80366e-14
-4.58494e-14
-4.46404e-14
-4.12709e-14
-3.56379e-14
-4.30207e-14
-4.93474e-14
-4.53119e-14
-4.62666e-14
-6.7246e-14
-7.69932e-14
-7.38337e-14
-7.09702e-14
-6.40742e-14
-6.89832e-14
-6.64876e-14
-6.14104e-14
-6.2812e-14
-6.43099e-14
-5.14539e-14
-5.26368e-14
-5.2843e-14
-5.03833e-14
-6.2152e-14
-6.72019e-14
-5.75148e-14
-4.99351e-14
-5.75051e-14
-5.61299e-14
-4.78878e-14
-5.07465e-14
-5.35476e-14
-5.12421e-14
-4.65478e-14
-4.38345e-14
-2.48925e-14
-2.65484e-14
-2.59883e-14
-2.27894e-14
-2.14525e-14
-2.28874e-14
-1.69339e-14
-1.2723e-14
-1.14131e-14
-2.57602e-14
-2.2194e-14
-2.54907e-14
-9.73719e-15
-1.53123e-14
-4.09405e-15
7.0283e-15
7.8846e-15
9.40221e-15
1.12577e-14
1.27216e-14
1.06702e-14
5.16241e-15
6.56137e-15
9.33081e-15
2.29175e-14
2.40774e-14
1.62575e-14
1.66538e-14
1.49135e-14
1.20696e-14
1.15391e-14
1.24909e-14
2.09411e-14
1.97491e-14
2.52266e-14
2.20953e-14
1.97892e-14
1.91967e-14
7.73795e-15
1.93902e-16
4.85497e-15
4.99165e-15
6.67252e-15
3.42538e-15
7.509e-15
1.0078e-14
4.2143e-15
4.07058e-15
1.64682e-15
-4.34509e-16
-5.24343e-15
3.60606e-17
-8.45534e-16
2.69877e-15
-4.0608e-15
-3.75847e-14
-4.15456e-14
-4.05537e-14
-3.62912e-14
-3.37392e-14
-3.47698e-14
-3.34859e-14
-3.45768e-14
-3.13948e-14
-3.14428e-14
-3.90861e-14
-4.93243e-14
-4.62416e-14
-4.61219e-14
-4.52692e-14
-3.61527e-14
-4.37565e-14
-4.42219e-14
-4.92205e-14
-5.7495e-14
-6.44102e-14
-7.6983e-14
-8.25832e-14
-6.92118e-14
-6.47811e-14
-7.17305e-14
-6.34559e-14
-6.02339e-14
-5.74088e-14
-5.57177e-14
-5.71906e-14
-5.78266e-14
-5.49217e-14
-5.42051e-14
-5.92268e-14
-5.93536e-14
-4.9887e-14
-5.71174e-14
-5.73351e-14
-5.06571e-14
-4.84154e-14
-5.28983e-14
-5.04612e-14
-4.88068e-14
-3.73831e-14
-2.19372e-14
-2.56132e-14
-2.94179e-14
-2.64513e-14
-2.29916e-14
-1.18374e-14
-1.80843e-14
-2.15756e-14
-1.73218e-14
-1.80437e-14
-2.24379e-14
-1.99505e-14
-1.07958e-14
-1.33138e-14
-1.05367e-14
-3.35258e-16
2.34523e-15
6.59703e-15
1.24724e-14
1.422e-14
9.08963e-15
5.6577e-15
3.79745e-15
1.47613e-14
2.41054e-14
2.19686e-14
1.82846e-14
2.09833e-14
1.71385e-14
1.27367e-14
9.68877e-15
1.73109e-14
3.03114e-14
2.25457e-14
2.82873e-14
2.61124e-14
2.35574e-14
1.55546e-14
8.75573e-15
1.02298e-15
2.82677e-15
7.52547e-15
8.73106e-15
6.59649e-15
4.85823e-15
6.18399e-15
9.37824e-15
4.72367e-15
5.80416e-16
-2.66119e-16
1.63514e-15
-5.40932e-15
-5.91278e-15
-5.61809e-15
-4.41008e-15
-4.03379e-14
-4.33217e-14
-4.50793e-14
-3.62303e-14
-3.57525e-14
-4.09318e-14
-3.50396e-14
-3.42186e-14
-3.53827e-14
-3.97382e-14
-3.95848e-14
-4.85557e-14
-5.24411e-14
-5.37272e-14
-4.8835e-14
-4.35694e-14
-3.9223e-14
-4.18428e-14
-4.75907e-14
-5.53384e-14
-6.76282e-14
-6.99034e-14
-7.20424e-14
-6.92377e-14
-6.56127e-14
-7.13296e-14
-6.19771e-14
-6.25578e-14
-6.42439e-14
-5.71234e-14
-5.23639e-14
-5.334e-14
-6.22719e-14
-6.14916e-14
-6.11187e-14
-5.53738e-14
-4.91474e-14
-4.91396e-14
-5.453e-14
-5.19533e-14
-4.82356e-14
-5.40453e-14
-5.05311e-14
-4.83334e-14
-3.45697e-14
-2.41404e-14
-2.1737e-14
-2.4863e-14
-2.272e-14
-2.2832e-14
-2.3909e-14
-1.56856e-14
-1.69803e-14
-1.92387e-14
-1.73374e-14
-1.61781e-14
-2.00524e-14
-1.64365e-14
-1.21322e-14
-9.12006e-15
1.14282e-15
1.02166e-14
1.09309e-14
8.85954e-15
4.61221e-15
6.77937e-15
1.11499e-14
9.29151e-15
1.20953e-14
1.38411e-14
2.41444e-14
2.60865e-14
2.68951e-14
2.30194e-14
1.52311e-14
7.41248e-15
1.12301e-14
2.19162e-14
2.91953e-14
3.4301e-14
2.87504e-14
2.05559e-14
1.46045e-14
1.28091e-14
7.08683e-15
8.17668e-15
4.76429e-15
2.51409e-15
9.54522e-15
6.24917e-15
2.62594e-15
3.35985e-15
4.60493e-15
1.20094e-15
-2.23932e-15
-8.47204e-16
-5.73543e-15
-6.09307e-15
-4.44157e-15
-1.13323e-15
-4.53413e-14
-4.55311e-14
-5.03917e-14
-3.8719e-14
-3.74506e-14
-4.16133e-14
-3.78221e-14
-3.78789e-14
-3.92949e-14
-4.34597e-14
-4.77309e-14
-4.85006e-14
-4.83132e-14
-4.74161e-14
-4.51761e-14
-4.35296e-14
-4.14392e-14
-4.24755e-14
-4.83413e-14
-5.48201e-14
-7.32768e-14
-7.87461e-14
-7.88055e-14
-6.84819e-14
-6.29607e-14
-7.17361e-14
-6.47464e-14
-6.3074e-14
-6.35075e-14
-5.41665e-14
-5.17933e-14
-5.90679e-14
-6.18475e-14
-6.05269e-14
-5.81828e-14
-5.39464e-14
-5.04779e-14
-5.31276e-14
-5.22932e-14
-5.46282e-14
-5.28375e-14
-5.28856e-14
-4.74399e-14
-4.02421e-14
-3.40372e-14
-3.37924e-14
-2.58521e-14
-2.50574e-14
-1.83085e-14
-1.88089e-14
-2.15854e-14
-1.71623e-14
-2.30592e-14
-2.58475e-14
-1.64796e-14
-7.5158e-15
-1.47515e-14
-1.98987e-14
-1.7033e-14
-1.07786e-14
2.43754e-15
7.59276e-15
5.31627e-15
8.34791e-15
1.75204e-15
1.50068e-14
5.52683e-15
1.37734e-14
1.13113e-14
1.75319e-14
2.03244e-14
2.74094e-14
3.79152e-14
2.94442e-14
2.01663e-14
9.35888e-15
1.73287e-14
2.61123e-14
2.86879e-14
2.2916e-14
2.83136e-14
2.48787e-14
2.13612e-14
1.32754e-14
8.18377e-15
1.02286e-14
3.75118e-15
3.40101e-15
8.40538e-15
9.85753e-15
8.77794e-15
6.30231e-16
2.90222e-15
-6.46032e-16
-6.15242e-15
-2.63482e-15
-5.48427e-16
-9.30314e-15
-7.4944e-15
-1.15388e-15
-5.02416e-14
-4.21356e-14
-4.66025e-14
-4.55207e-14
-4.25889e-14
-4.58462e-14
-4.05953e-14
-4.02413e-14
-4.22968e-14
-5.1331e-14
-5.02561e-14
-4.72436e-14
-4.30287e-14
-5.04413e-14
-4.97739e-14
-4.83435e-14
-5.42772e-14
-5.70004e-14
-5.29497e-14
-5.35312e-14
-4.70468e-14
-4.9294e-14
-6.32912e-14
-7.20871e-14
-7.5495e-14
-7.43185e-14
-6.93588e-14
-6.79939e-14
-6.38327e-14
-5.51572e-14
-5.22778e-14
-6.07635e-14
-6.0023e-14
-6.13146e-14
-6.45817e-14
-5.44933e-14
-4.65401e-14
-5.07454e-14
-5.61026e-14
-6.00827e-14
-5.25393e-14
-5.13062e-14
-4.10333e-14
-4.62936e-14
-4.2173e-14
-3.51939e-14
-2.64245e-14
-2.51217e-14
-1.38969e-14
-1.50759e-14
-1.88233e-14
-2.01321e-14
-2.05483e-14
-2.25648e-14
-1.5147e-14
-1.16845e-14
-1.05036e-14
-1.66086e-14
-1.05821e-14
-6.96845e-15
2.45482e-15
2.71274e-15
2.90494e-15
8.08038e-15
5.33645e-15
1.19299e-14
8.89343e-15
1.44292e-14
1.53249e-14
2.3311e-14
2.56216e-14
2.69689e-14
3.12657e-14
2.74521e-14
2.23163e-14
1.78741e-14
1.8454e-14
2.18812e-14
2.83095e-14
2.65083e-14
2.72776e-14
2.30054e-14
1.66299e-14
9.59381e-15
1.06849e-14
1.15388e-14
6.34429e-15
2.52733e-15
1.09528e-14
1.23734e-14
9.82047e-15
2.11278e-15
5.14317e-15
-1.04717e-15
-1.02303e-14
-6.37667e-15
-3.58418e-15
-1.85584e-15
-5.39557e-15
1.02208e-15
-5.5675e-14
-4.93995e-14
-4.84527e-14
-4.80615e-14
-4.16453e-14
-4.37929e-14
-5.21926e-14
-5.63258e-14
-5.08368e-14
-4.73254e-14
-4.48947e-14
-4.07956e-14
-4.32026e-14
-5.00632e-14
-5.08839e-14
-4.71592e-14
-5.20007e-14
-4.59889e-14
-5.4639e-14
-5.57368e-14
-6.37898e-14
-7.29281e-14
-7.07472e-14
-7.54831e-14
-6.63983e-14
-6.48981e-14
-6.17482e-14
-6.62063e-14
-6.24457e-14
-5.89328e-14
-5.51379e-14
-5.85091e-14
-5.54093e-14
-6.48366e-14
-7.04239e-14
-5.69492e-14
-4.59135e-14
-5.22495e-14
-4.76888e-14
-5.29257e-14
-6.14519e-14
-5.58927e-14
-4.82645e-14
-4.45621e-14
-3.93402e-14
-3.19299e-14
-2.562e-14
-2.16764e-14
-1.56432e-14
-1.50785e-14
-1.65115e-14
-2.37093e-14
-2.39309e-14
-2.19374e-14
-1.97779e-14
-1.23976e-14
-5.95106e-15
-1.00719e-14
-1.05685e-14
-6.48769e-15
7.26677e-15
7.18095e-15
1.89394e-15
6.94802e-15
4.60253e-15
5.8233e-15
7.10307e-15
1.69761e-14
2.03383e-14
2.79621e-14
2.58195e-14
3.30955e-14
3.33016e-14
2.95893e-14
2.2393e-14
1.5628e-14
1.56613e-14
2.71688e-14
2.56982e-14
2.65945e-14
2.84071e-14
3.15143e-14
1.86525e-14
7.00273e-15
8.3495e-15
8.14436e-15
8.56405e-15
4.74404e-16
1.21272e-14
1.57748e-14
8.90679e-15
7.95066e-15
2.73093e-15
-8.38147e-16
-6.83993e-15
-7.405e-15
-4.63379e-16
-3.81918e-16
-3.54698e-15
5.08647e-17
-5.67755e-14
-4.77757e-14
-5.31493e-14
-5.63534e-14
-4.76356e-14
-3.74055e-14
-4.50439e-14
-5.26567e-14
-6.08944e-14
-5.92277e-14
-5.5492e-14
-4.73062e-14
-4.42879e-14
-4.46168e-14
-4.99259e-14
-5.35896e-14
-5.46905e-14
-5.06548e-14
-6.27642e-14
-5.78531e-14
-5.65921e-14
-6.18116e-14
-6.98047e-14
-7.78166e-14
-6.58952e-14
-6.71006e-14
-6.55762e-14
-6.24741e-14
-6.01992e-14
-5.68908e-14
-5.7087e-14
-6.0084e-14
-6.06691e-14
-6.54787e-14
-6.8236e-14
-5.71369e-14
-5.51806e-14
-4.96759e-14
-4.70864e-14
-5.11851e-14
-6.38939e-14
-5.71335e-14
-4.50996e-14
-4.06774e-14
-3.83008e-14
-3.45628e-14
-2.11339e-14
-1.56416e-14
-1.90045e-14
-2.0161e-14
-1.63823e-14
-2.21408e-14
-2.12198e-14
-2.18589e-14
-1.37446e-14
-9.31189e-15
-6.76384e-15
-6.00737e-15
-4.33133e-15
-1.19876e-15
7.03766e-15
1.6628e-15
1.82432e-15
9.14933e-15
8.99855e-15
1.07675e-14
5.30287e-15
1.25336e-14
1.88322e-14
3.18687e-14
3.11502e-14
3.35919e-14
3.11333e-14
3.49046e-14
2.10106e-14
1.4275e-14
1.96847e-14
2.7942e-14
2.38138e-14
2.54009e-14
2.72944e-14
3.06148e-14
2.31257e-14
1.50444e-14
8.94044e-15
8.20241e-15
7.42075e-15
7.37486e-15
1.03868e-14
1.16551e-14
1.11072e-14
6.72329e-15
1.05552e-15
8.16575e-16
-3.48307e-15
-3.57432e-15
-1.32457e-15
-1.09847e-15
-7.49334e-16
-2.7802e-15
-5.50233e-14
-5.66636e-14
-5.77315e-14
-5.91561e-14
-5.47374e-14
-5.5646e-14
-6.47944e-14
-5.09062e-14
-4.61038e-14
-5.23629e-14
-4.88212e-14
-4.82596e-14
-5.07013e-14
-4.93145e-14
-5.00622e-14
-5.38931e-14
-5.71621e-14
-4.83791e-14
-5.31685e-14
-6.43506e-14
-6.9966e-14
-7.62956e-14
-6.25891e-14
-6.42519e-14
-6.99014e-14
-6.53751e-14
-6.56681e-14
-6.51098e-14
-6.55724e-14
-6.10474e-14
-5.67815e-14
-5.87243e-14
-6.85484e-14
-6.74039e-14
-6.40204e-14
-5.40294e-14
-4.81718e-14
-4.81e-14
-4.68792e-14
-5.83224e-14
-6.25362e-14
-5.58635e-14
-4.83211e-14
-4.01862e-14
-2.96912e-14
-3.36447e-14
-2.60895e-14
-1.83983e-14
-2.10666e-14
-2.19549e-14
-1.7682e-14
-1.69755e-14
-1.93658e-14
-2.05069e-14
-1.30921e-14
-8.73418e-15
-5.91463e-15
-4.29433e-15
-4.76387e-16
1.56783e-15
3.94629e-15
1.62162e-15
3.695e-15
1.27841e-14
1.54319e-14
1.35432e-14
6.28512e-15
9.69717e-15
1.79294e-14
3.24343e-14
2.89894e-14
3.08858e-14
3.23289e-14
3.55522e-14
2.43958e-14
1.52232e-14
2.05409e-14
1.79463e-14
2.24257e-14
3.59549e-14
3.33809e-14
2.83764e-14
1.96475e-14
1.14577e-14
9.6534e-15
1.23826e-14
1.05261e-14
5.83338e-15
6.05739e-15
9.97525e-15
1.13678e-14
4.42774e-15
3.30309e-15
5.24277e-15
-7.14856e-15
-5.13756e-15
2.59272e-16
-3.51519e-16
1.49524e-15
1.88713e-15
-6.01228e-14
-6.18256e-14
-6.02317e-14
-5.69507e-14
-4.92601e-14
-5.03825e-14
-6.60733e-14
-6.7286e-14
-6.0308e-14
-5.86054e-14
-4.85571e-14
-4.16977e-14
-5.38547e-14
-5.41033e-14
-5.89751e-14
-6.13122e-14
-5.41522e-14
-4.82023e-14
-5.27836e-14
-6.30964e-14
-6.38068e-14
-7.47091e-14
-7.08567e-14
-6.87187e-14
-6.8463e-14
-6.89208e-14
-6.55859e-14
-5.83349e-14
-6.03539e-14
-5.70779e-14
-6.17453e-14
-5.94221e-14
-5.87644e-14
-6.4106e-14
-7.24958e-14
-5.63956e-14
-5.22837e-14
-4.77911e-14
-4.6647e-14
-5.29601e-14
-5.59054e-14
-5.44864e-14
-4.87087e-14
-4.02017e-14
-3.28483e-14
-2.59871e-14
-2.13593e-14
-2.83753e-14
-2.05596e-14
-1.90044e-14
-1.59418e-14
-1.9054e-14
-1.55157e-14
-1.77223e-14
-1.17085e-14
-5.09073e-15
-4.4783e-16
-7.0258e-15
-7.27476e-16
-3.56938e-15
8.00126e-15
5.68813e-15
5.04045e-15
1.67003e-14
1.43891e-14
1.38134e-14
9.15007e-15
1.16132e-14
1.82441e-14
2.62648e-14
2.87392e-14
3.10169e-14
3.54311e-14
3.43708e-14
2.41894e-14
2.18136e-14
2.57782e-14
2.66931e-14
2.55399e-14
3.2506e-14
3.22828e-14
2.76854e-14
2.16622e-14
1.68428e-14
9.56081e-15
5.39225e-15
1.00775e-14
6.32242e-15
9.51561e-15
5.86475e-15
8.07072e-15
1.77171e-15
5.95369e-15
7.00972e-15
-6.18019e-15
-6.33326e-15
1.07385e-15
2.50136e-15
-2.58544e-15
1.06935e-15
-6.81684e-14
-6.12746e-14
-5.83456e-14
-5.9691e-14
-5.75732e-14
-6.25633e-14
-6.95012e-14
-6.46709e-14
-5.68051e-14
-5.39249e-14
-5.37261e-14
-5.2795e-14
-5.29305e-14
-5.20509e-14
-5.73542e-14
-6.52512e-14
-5.73729e-14
-5.31075e-14
-5.7731e-14
-6.94133e-14
-7.41384e-14
-7.46299e-14
-6.85418e-14
-6.3089e-14
-7.54697e-14
-7.06108e-14
-6.15323e-14
-5.44132e-14
-5.89661e-14
-5.76415e-14
-6.40485e-14
-6.21421e-14
-6.05049e-14
-6.56169e-14
-6.90108e-14
-5.53884e-14
-4.78587e-14
-4.62547e-14
-5.50935e-14
-6.08251e-14
-5.55806e-14
-4.66592e-14
-4.44787e-14
-3.9918e-14
-3.84284e-14
-3.32202e-14
-1.9814e-14
-1.70855e-14
-1.7478e-14
-2.53387e-14
-1.7512e-14
-1.84451e-14
-1.87753e-14
-1.34419e-14
-6.02398e-15
5.86054e-16
-2.31372e-16
-5.21768e-15
-2.20848e-15
3.50942e-15
1.11411e-14
8.71693e-15
7.20124e-15
1.17215e-14
1.16979e-14
1.86605e-14
1.49776e-14
1.44387e-14
1.58324e-14
2.62153e-14
3.07786e-14
3.5879e-14
3.37796e-14
3.41146e-14
2.74902e-14
2.44368e-14
3.18994e-14
3.00099e-14
2.37166e-14
2.52741e-14
3.72748e-14
3.43486e-14
1.89297e-14
1.2567e-14
9.35775e-15
7.04678e-15
1.47427e-14
9.24772e-15
5.25291e-15
5.20472e-15
1.00394e-14
4.48127e-15
4.47135e-15
1.71068e-15
-5.57372e-15
-5.82969e-15
-5.3251e-15
3.47474e-15
-6.16602e-15
-4.76049e-16
-6.83456e-14
-6.49146e-14
-5.4982e-14
-6.07447e-14
-6.54223e-14
-6.63873e-14
-6.95505e-14
-5.70907e-14
-5.8465e-14
-6.00273e-14
-6.08658e-14
-5.62366e-14
-5.42342e-14
-5.48161e-14
-5.68545e-14
-6.53389e-14
-6.9e-14
-7.08868e-14
-6.26611e-14
-6.20085e-14
-6.22293e-14
-7.35249e-14
-7.39033e-14
-6.83071e-14
-7.25064e-14
-7.07126e-14
-5.88988e-14
-5.38794e-14
-6.16608e-14
-6.01261e-14
-6.26963e-14
-6.20199e-14
-5.53843e-14
-6.34023e-14
-6.57559e-14
-6.09047e-14
-5.2074e-14
-4.80081e-14
-5.88645e-14
-6.12235e-14
-6.18608e-14
-5.26356e-14
-3.0745e-14
-3.56155e-14
-3.64208e-14
-2.81498e-14
-2.36827e-14
-1.91544e-14
-1.59797e-14
-1.96505e-14
-1.73671e-14
-1.90777e-14
-1.57833e-14
-6.28001e-15
-7.95374e-15
-6.00937e-15
-1.2022e-15
2.82475e-15
2.27459e-15
4.07194e-15
1.07513e-14
1.37498e-14
1.3029e-14
1.3049e-14
1.33016e-14
1.43858e-14
1.86021e-14
1.68161e-14
2.14471e-14
2.60774e-14
2.99754e-14
3.46944e-14
3.21503e-14
3.1208e-14
3.26745e-14
2.95109e-14
3.42338e-14
3.25866e-14
3.49733e-14
2.91609e-14
3.28481e-14
3.10797e-14
2.36821e-14
1.55015e-14
1.40346e-14
9.38057e-15
7.88006e-15
8.60958e-15
8.40759e-15
5.45957e-15
6.65071e-15
7.05741e-15
5.09218e-15
-4.45192e-15
-4.40442e-15
-5.08584e-15
-2.73489e-15
-7.3841e-15
-5.7395e-15
5.54728e-16
-6.65156e-14
-6.7196e-14
-6.30132e-14
-6.23574e-14
-6.99971e-14
-6.79457e-14
-6.62559e-14
-6.26252e-14
-6.28892e-14
-6.23184e-14
-5.97443e-14
-5.63689e-14
-5.40947e-14
-5.92431e-14
-5.79005e-14
-6.64779e-14
-6.67853e-14
-6.95477e-14
-6.64255e-14
-7.0189e-14
-7.12624e-14
-7.72942e-14
-7.91025e-14
-7.32093e-14
-7.19361e-14
-6.4669e-14
-6.02637e-14
-5.59603e-14
-6.27073e-14
-5.88975e-14
-5.80544e-14
-5.79782e-14
-6.07724e-14
-6.35313e-14
-6.57637e-14
-6.25163e-14
-5.86338e-14
-5.39096e-14
-5.12722e-14
-5.48393e-14
-5.33938e-14
-5.25245e-14
-4.26376e-14
-4.03038e-14
-3.3973e-14
-2.60836e-14
-2.17024e-14
-1.79993e-14
-1.50309e-14
-1.6213e-14
-1.9846e-14
-2.69689e-14
-1.25171e-14
-3.24693e-15
-2.82886e-15
-3.28465e-15
-2.56574e-15
7.23063e-15
3.55546e-15
1.17063e-14
1.30273e-14
1.44698e-14
9.18148e-15
3.59337e-15
6.48147e-15
2.06067e-14
2.17807e-14
1.70407e-14
2.21825e-14
2.67441e-14
3.58683e-14
3.10086e-14
3.03583e-14
3.37547e-14
3.34686e-14
3.55734e-14
3.19971e-14
4.02016e-14
4.11903e-14
3.27599e-14
3.06457e-14
2.80599e-14
2.15173e-14
1.72941e-14
1.4165e-14
7.74601e-15
7.73436e-15
1.212e-14
1.10751e-14
1.23244e-14
8.38741e-15
1.03502e-14
2.77861e-15
-2.96976e-15
-4.64781e-15
-8.77675e-15
-5.06528e-15
-3.96935e-15
-6.20748e-15
-2.13407e-15
-6.81874e-14
-6.77558e-14
-6.46801e-14
-6.35532e-14
-6.98373e-14
-7.22779e-14
-6.87605e-14
-6.55679e-14
-6.27558e-14
-5.76031e-14
-5.9676e-14
-6.30442e-14
-5.54735e-14
-6.15781e-14
-6.1606e-14
-7.17115e-14
-7.71665e-14
-7.22427e-14
-6.75464e-14
-6.73216e-14
-6.69292e-14
-7.55572e-14
-7.47053e-14
-7.59878e-14
-7.34045e-14
-6.53528e-14
-5.98039e-14
-6.30482e-14
-6.50939e-14
-6.08175e-14
-5.31135e-14
-5.40178e-14
-5.3956e-14
-6.05138e-14
-7.32672e-14
-6.23745e-14
-5.90712e-14
-6.12823e-14
-5.41506e-14
-5.71437e-14
-5.18668e-14
-5.25487e-14
-4.52159e-14
-4.37152e-14
-3.10292e-14
-2.60415e-14
-1.9707e-14
-1.82979e-14
-1.99664e-14
-2.00889e-14
-1.58313e-14
-1.53193e-14
-9.34053e-15
-4.30447e-15
-4.57906e-15
-5.35241e-15
-6.29798e-15
3.57789e-15
6.5497e-15
1.84851e-14
2.28904e-14
1.35274e-14
9.96769e-15
6.37706e-15
1.04173e-14
2.1208e-14
2.26903e-14
2.35429e-14
2.52835e-14
2.05667e-14
2.78557e-14
3.72904e-14
3.59709e-14
4.03395e-14
3.28727e-14
2.59566e-14
4.08086e-14
4.08033e-14
4.15335e-14
3.93824e-14
3.35886e-14
2.80677e-14
2.05006e-14
1.48503e-14
1.68812e-14
1.24928e-14
6.70442e-15
1.2561e-14
1.48733e-14
1.34156e-14
4.28839e-15
6.43022e-15
9.50613e-15
3.00894e-15
4.19049e-16
-9.25941e-15
-7.28288e-15
-1.06654e-14
-1.23371e-14
-4.91768e-15
-7.00937e-14
-6.72754e-14
-6.17893e-14
-6.33884e-14
-7.17972e-14
-7.67937e-14
-7.42762e-14
-6.97309e-14
-6.38384e-14
-5.93611e-14
-6.1227e-14
-5.85686e-14
-5.93153e-14
-5.90228e-14
-6.5556e-14
-7.39635e-14
-7.23431e-14
-6.76523e-14
-7.06141e-14
-6.92961e-14
-7.7061e-14
-8.84571e-14
-8.16844e-14
-7.57542e-14
-6.51489e-14
-6.70415e-14
-6.54478e-14
-7.00113e-14
-6.64485e-14
-5.30063e-14
-5.15642e-14
-6.64212e-14
-6.00402e-14
-5.87977e-14
-6.0469e-14
-5.85231e-14
-5.6955e-14
-6.06855e-14
-5.91395e-14
-5.68451e-14
-5.2813e-14
-5.49158e-14
-5.00784e-14
-3.87888e-14
-2.78147e-14
-2.7193e-14
-1.7266e-14
-2.03665e-14
-1.44639e-14
-1.59663e-14
-2.47375e-14
-1.13225e-14
-5.59464e-15
-3.26039e-15
6.0051e-16
-7.60363e-15
-8.11182e-15
4.79798e-15
1.22543e-14
2.42007e-14
1.43377e-14
1.55674e-14
1.72571e-14
6.64794e-15
1.00018e-14
1.30569e-14
1.62381e-14
2.19042e-14
3.23846e-14
2.85784e-14
2.76362e-14
3.15588e-14
3.93622e-14
4.03491e-14
3.94219e-14
3.56728e-14
3.36509e-14
3.81258e-14
5.03129e-14
4.7018e-14
3.04524e-14
2.52823e-14
1.76284e-14
1.12171e-14
1.3227e-14
1.17579e-14
9.58967e-15
1.14984e-14
1.3437e-14
1.37901e-14
9.91439e-15
8.5783e-15
1.28958e-14
1.01009e-14
-5.04369e-15
-1.11147e-14
-6.88186e-15
-7.22699e-15
-1.20849e-14
-5.1191e-15
-6.57883e-14
-7.25552e-14
-7.18674e-14
-7.65833e-14
-7.28984e-14
-7.07298e-14
-6.06276e-14
-6.27625e-14
-6.49384e-14
-6.27416e-14
-6.19016e-14
-6.46455e-14
-6.48015e-14
-6.10589e-14
-6.6989e-14
-7.34277e-14
-7.53755e-14
-7.28539e-14
-7.94364e-14
-7.24838e-14
-7.09555e-14