/*--------------------------------*- C++ -*----------------------------------*\
| =========                 |                                                 |
| \\      /  F ield         | OpenFOAM: The Open Source CFD Toolbox           |
|  \\    /   O peration     | Version:  v2012                                 |
|   \\  /    A nd           | Website:  www.openfoam.com                      |
|    \\/     M anipulation  |                                                 |
\*---------------------------------------------------------------------------*/
FoamFile
{
    version     2.0;
    format      ascii;
    class       volVectorField;
    location    "0";
    object      U;
}
// * * * * * * * * * * * * * * * * * * * * * * * * * * * * * * * * * * * * * //

dimensions      [0 1 -1 0 0 0 0];


internalField   nonuniform List<vector> 
4000
(
(1 2.88692e-15 0)
(1 3.12699e-15 0)
(1 -9.11416e-16 0)
(1 4.51398e-15 0)
(1 -4.35079e-15 0)
(1 6.60987e-17 0)
(1 3.75988e-15 0)
(1 -2.27168e-15 0)
(1 -7.73882e-16 0)
(1 -6.23339e-15 0)
(1 -1.59365e-15 0)
(1 -1.64582e-15 0)
(1 7.54551e-15 0)
(1 2.57294e-15 0)
(1 -3.67617e-15 0)
(1 -6.37844e-16 0)
(1 1.51831e-15 0)
(1 -6.01156e-15 0)
(1 -6.69078e-16 0)
(1 5.19291e-16 0)
(1 -5.88336e-16 0)
(1 -3.6046e-17 0)
(1 -1.15346e-15 0)
(1 1.04132e-15 0)
(1 -1.08934e-15 0)
(1 -3.02078e-15 0)
(1 -1.87626e-15 0)
(1 2.40352e-18 0)
(1 -2.04565e-15 0)
(1 3.65911e-15 0)
(1 -1.38122e-15 0)
(1 -2.94138e-17 0)
(1 -1.72132e-15 0)
(1 4.73509e-15 0)
(1 -1.10855e-17 0)
(1 6.49633e-15 0)
(1 6.06192e-15 0)
(1 6.92303e-15 0)
(1 -1.61555e-15 0)
(1 -3.612e-15 0)
(1 -3.89713e-15 0)
(1 -7.36474e-15 0)
(1 4.49945e-16 0)
(1 3.27219e-15 0)
(1 2.83027e-15 0)
(1 -3.26096e-15 0)
(1 4.99803e-16 0)
(1 3.24736e-16 0)
(1 2.75966e-15 0)
(1 2.4482e-15 0)
(1 1.92159e-16 0)
(1 1.70357e-15 0)
(1 8.36884e-17 0)
(1 3.12005e-15 0)
(1 2.73498e-15 0)
(1 1.90622e-15 0)
(1 -2.35156e-15 0)
(1 3.52207e-15 0)
(1 6.66347e-16 0)
(1 3.12433e-15 0)
(1 -1.3689e-15 0)
(1 8.65623e-16 0)
(1 -3.42228e-15 0)
(1 -1.46205e-15 0)
(1 -2.18943e-15 0)
(1 1.24444e-15 0)
(1 8.77121e-16 0)
(1 1.26762e-15 0)
(1 -9.99648e-16 0)
(1 -9.56202e-16 0)
(1 -3.5944e-15 0)
(1 -4.117e-15 0)
(1 -2.32159e-15 0)
(1 -1.95206e-15 0)
(1 -3.08434e-15 0)
(1 -2.83253e-15 0)
(1 -6.27743e-15 0)
(1 -1.88194e-16 0)
(1 9.01973e-16 0)
(1 2.06079e-15 0)
(1 3.86219e-15 0)
(1 1.04888e-15 0)
(1 -2.03941e-15 0)
(1 1.42238e-15 0)
(1 2.70556e-16 0)
(1 -1.53111e-15 0)
(1 -1.24089e-15 0)
(1 2.63553e-16 0)
(1 6.3972e-16 0)
(1 4.3466e-15 0)
(1 7.97202e-16 0)
(1 3.87008e-15 0)
(1 1.63427e-15 0)
(1 8.73896e-16 0)
(1 -1.87804e-15 0)
(1 -1.9312e-15 0)
(1 -1.13158e-15 0)
(1 1.03392e-15 0)
(1 3.41765e-16 0)
(1 -1.13144e-15 0)
(1 3.56381e-15 0)
(1 2.88132e-15 0)
(1 2.32273e-16 0)
(1 3.89734e-15 0)
(1 -2.23906e-15 0)
(1 -4.15943e-15 0)
(1 1.80084e-15 0)
(1 -3.57299e-15 0)
(1 2.26924e-15 0)
(1 -2.0648e-15 0)
(1 -4.41244e-15 0)
(1 -4.15229e-15 0)
(1 8.22249e-15 0)
(1 5.46386e-15 0)
(1 2.7573e-16 0)
(1 4.0284e-16 0)
(1 2.67593e-15 0)
(1 5.10954e-18 0)
(1 6.21576e-16 0)
(1 -1.14046e-15 0)
(1 -3.55157e-15 0)
(1 -1.35077e-15 0)
(1 -2.3222e-15 0)
(1 2.30786e-15 0)
(1 -4.25689e-15 0)
(1 -4.61312e-15 0)
(1 -3.81605e-15 0)
(1 -1.98329e-15 0)
(1 -1.31413e-15 0)
(1 2.98312e-17 0)
(1 -1.37898e-15 0)
(1 2.68836e-17 0)
(1 -1.18216e-15 0)
(1 3.32515e-15 0)
(1 -4.28259e-15 0)
(1 9.97595e-15 0)
(1 7.33043e-15 0)
(1 5.92213e-15 0)
(1 -4.05476e-15 0)
(1 -1.78603e-15 0)
(1 -6.96354e-15 0)
(1 -5.98429e-15 0)
(1 1.32264e-15 0)
(1 2.94944e-15 0)
(1 -4.04158e-15 0)
(1 -6.32819e-15 0)
(1 -2.70684e-16 0)
(1 5.048e-15 0)
(1 7.17408e-15 0)
(1 1.30705e-15 0)
(1 -1.45047e-15 0)
(1 -2.61887e-15 0)
(1 -1.70435e-15 0)
(1 -1.73933e-15 0)
(1 3.63867e-15 0)
(1 5.30721e-15 0)
(1 -1.69162e-15 0)
(1 -2.77593e-16 0)
(1 -4.33306e-16 0)
(1 -2.10409e-15 0)
(1 -3.38005e-15 0)
(1 -9.05515e-16 0)
(1 2.18297e-15 0)
(1 3.15448e-15 0)
(1 -6.70162e-16 0)
(1 4.06343e-15 0)
(1 -1.70774e-16 0)
(1 2.39542e-15 0)
(1 -6.6801e-16 0)
(1 -5.64594e-15 0)
(1 -1.97317e-15 0)
(1 1.58368e-15 0)
(1 8.15063e-15 0)
(1 4.6453e-15 0)
(1 1.13027e-15 0)
(1 -3.82605e-15 0)
(1 -3.77944e-15 0)
(1 -8.78365e-17 0)
(1 3.18917e-16 0)
(1 3.83718e-15 0)
(1 6.44359e-15 0)
(1 -2.79122e-17 0)
(1 -3.89711e-15 0)
(1 2.57302e-15 0)
(1 1.61348e-15 0)
(1 9.69061e-16 0)
(1 -1.23098e-15 0)
(1 -3.13462e-15 0)
(1 -2.87547e-15 0)
(1 1.05094e-15 0)
(1 1.36375e-15 0)
(1 1.71696e-15 0)
(1 3.97057e-16 0)
(1 2.91275e-16 0)
(1 -6.87985e-15 0)
(1 -4.52037e-16 0)
(1 -1.03267e-15 0)
(1 2.97464e-15 0)
(1 -6.94659e-17 0)
(1 -7.23685e-16 0)
(1 -3.30954e-15 0)
(1 4.46483e-15 0)
(1 -7.62625e-15 0)
(1 4.66187e-15 0)
(1 2.04729e-16 0)
(1 1.04779e-15 0)
(1 2.12461e-15 0)
(1 5.86471e-15 0)
(1 3.58449e-16 0)
(1 -2.86675e-15 0)
(1 -5.52355e-15 0)
(1 -5.24306e-16 0)
(1 5.06299e-15 0)
(1 7.1182e-15 0)
(1 2.91515e-16 0)
(1 -1.10016e-16 0)
(1 -6.61822e-16 0)
(1 -1.02065e-15 0)
(1 1.63055e-15 0)
(1 1.70477e-15 0)
(1 -1.17403e-15 0)
(1 -3.42092e-15 0)
(1 6.80386e-16 0)
(1 2.70212e-15 0)
(1 -5.12943e-17 0)
(1 4.26174e-15 0)
(1 7.29358e-15 0)
(1 6.28599e-15 0)
(1 1.71502e-15 0)
(1 -3.76801e-15 0)
(1 -1.41003e-15 0)
(1 -3.32646e-15 0)
(1 -1.27678e-15 0)
(1 -8.7828e-15 0)
(1 -9.73771e-16 0)
(1 8.7756e-15 0)
(1 1.66859e-15 0)
(1 4.25049e-15 0)
(1 5.10067e-15 0)
(1 4.16608e-15 0)
(1 6.39411e-15 0)
(1 -3.61222e-15 0)
(1 -9.07499e-16 0)
(1 -3.92909e-15 0)
(1 -3.29018e-15 0)
(1 -1.42855e-15 0)
(1 2.43279e-15 0)
(1 6.28038e-15 0)
(1 -2.68049e-16 0)
(1 -4.36239e-15 0)
(1 -2.29892e-15 0)
(1 -2.11582e-15 0)
(1 3.19445e-15 0)
(1 -8.03394e-16 0)
(1 2.94037e-15 0)
(1 3.60791e-15 0)
(1 1.52479e-15 0)
(1 -4.72044e-16 0)
(1 -2.83878e-15 0)
(1 -5.16972e-15 0)
(1 1.85849e-16 0)
(1 -2.69945e-15 0)
(1 1.71352e-15 0)
(1 4.53732e-15 0)
(1 6.02467e-16 0)
(1 2.52451e-15 0)
(1 6.54598e-16 0)
(1 -6.50639e-16 0)
(1 -1.86328e-15 0)
(1 -2.36518e-15 0)
(1 9.64343e-18 0)
(1 -3.05036e-15 0)
(1 2.01286e-15 0)
(1 -3.6924e-16 0)
(1 -1.61735e-16 0)
(1 -1.94146e-15 0)
(1 -2.27528e-15 0)
(1 -8.37052e-16 0)
(1 -5.7629e-16 0)
(1 1.42731e-16 0)
(1 1.73364e-15 0)
(1 1.3168e-15 0)
(1 -2.13248e-15 0)
(1 6.53585e-17 0)
(1 5.20474e-17 0)
(1 3.62207e-15 0)
(1 3.21788e-15 0)
(1 -8.24448e-16 0)
(1 -2.95612e-15 0)
(1 -1.43029e-16 0)
(1 -3.75987e-16 0)
(1 8.03963e-16 0)
(1 -1.4389e-15 0)
(1 -8.66625e-16 0)
(1 -3.54713e-15 0)
(1 -3.0606e-16 0)
(1 -3.17e-15 0)
(1 -8.11485e-16 0)
(1 1.26491e-15 0)
(1 5.48168e-16 0)
(1 -5.01881e-16 0)
(1 -2.43367e-15 0)
(1 -7.91862e-15 0)
(1 -3.6003e-15 0)
(1 3.31237e-15 0)
(1 4.65624e-15 0)
(1 6.60097e-15 0)
(1 4.86053e-15 0)
(1 -1.69545e-15 0)
(1 -2.6926e-15 0)
(1 -4.17371e-15 0)
(1 5.71136e-15 0)
(1 7.40047e-15 0)
(1 1.1528e-14 0)
(1 -2.36771e-15 0)
(1 -3.10343e-15 0)
(1 2.66972e-15 0)
(1 -5.54073e-15 0)
(1 -4.31039e-15 0)
(1 3.72628e-15 0)
(1 4.91045e-15 0)
(1 -7.88696e-17 0)
(1 8.40891e-15 0)
(1 1.10769e-14 0)
(1 8.02671e-15 0)
(1 3.55976e-15 0)
(1 -4.08874e-16 0)
(1 3.04762e-15 0)
(1 7.68093e-16 0)
(1 -1.71483e-15 0)
(1 -7.12752e-15 0)
(1 -2.53529e-15 0)
(1 -7.39179e-15 0)
(1 -1.08706e-14 0)
(1 -1.1991e-15 0)
(1 2.98675e-16 0)
(1 4.42092e-15 0)
(1 7.58642e-15 0)
(1 1.26546e-14 0)
(1 1.60615e-15 0)
(1 1.10379e-14 0)
(1 -7.02034e-15 0)
(1 -6.24923e-15 0)
(1 -9.00655e-15 0)
(1 5.14777e-15 0)
(1 5.2395e-15 0)
(1 9.28813e-15 0)
(1 4.67824e-15 0)
(1 3.67341e-15 0)
(1 -1.62271e-15 0)
(1 -2.63748e-15 0)
(1 1.11916e-15 0)
(1 -1.27258e-15 0)
(1 1.86889e-15 0)
(1 -2.88928e-15 0)
(1 -5.01319e-15 0)
(1 4.18251e-15 0)
(1 3.98342e-15 0)
(1 -8.08482e-15 0)
(1 4.63931e-16 0)
(1 1.41081e-15 0)
(1 -2.88387e-15 0)
(1 4.45054e-16 0)
(1 1.08095e-15 0)
(1 3.09136e-15 0)
(1 -2.07407e-16 0)
(1 -3.24328e-16 0)
(1 -5.31106e-15 0)
(1 -1.94899e-15 0)
(1 5.43722e-16 0)
(1 -3.64114e-15 0)
(1 -9.12783e-15 0)
(1 -7.95228e-15 0)
(1 -9.30129e-15 0)
(1 -2.88485e-15 0)
(1 1.94115e-15 0)
(1 4.21858e-16 0)
(1 1.41304e-15 0)
(1 6.22061e-15 0)
(1 8.10757e-16 0)
(1 1.36427e-15 0)
(1 3.79946e-15 0)
(1 9.89388e-16 0)
(1 -1.89443e-15 0)
(1 -8.08475e-16 0)
(1 2.34072e-15 0)
(1 1.01212e-14 0)
(1 6.51667e-15 0)
(1 4.00604e-15 0)
(1 2.9242e-15 0)
(1 -1.88988e-15 0)
(1 1.96643e-15 0)
(1 -4.41913e-17 0)
(1 -1.14681e-15 0)
(1 -1.95682e-15 0)
(1 -5.37472e-15 0)
(1 -5.08972e-15 0)
(1 -5.44244e-15 0)
(1 -3.61688e-15 0)
(1 8.10414e-16 0)
(1 5.08801e-15 0)
(1 -3.9191e-15 0)
(1 1.02323e-15 0)
(1 -2.98541e-15 0)
(1 9.98818e-15 0)
(1 3.31141e-15 0)
(1 -3.72049e-15 0)
(1 -6.50006e-15 0)
(1 -8.2479e-15 0)
(1 -4.13719e-15 0)
(1 3.80122e-15 0)
(1 2.15103e-15 0)
(1 2.98739e-15 0)
(1 2.59371e-15 0)
(1 1.07644e-14 0)
(1 2.52193e-16 0)
(1 -2.6071e-15 0)
(1 -1.40129e-15 0)
(1 -1.48647e-15 0)
(1 -9.72099e-15 0)
(1 2.88539e-15 0)
(1 4.07961e-16 0)
(1 6.41004e-15 0)
(1 8.90801e-15 0)
(1 1.30885e-14 0)
(1 1.04825e-14 0)
(1 4.8182e-15 0)
(1 5.84934e-16 0)
(1 4.46816e-15 0)
(1 7.06408e-16 0)
(1 -4.91494e-15 0)
(1 -2.8517e-15 0)
(1 -6.61165e-15 0)
(1 3.00931e-15 0)
(1 -9.04013e-15 0)
(1 -9.24492e-15 0)
(1 1.74821e-15 0)
(1 2.50064e-16 0)
(1 6.32818e-15 0)
(1 2.96539e-15 0)
(1 2.59348e-15 0)
(1 2.54386e-15 0)
(1 -5.72916e-15 0)
(1 -3.88996e-15 0)
(1 -4.6605e-15 0)
(1 2.77573e-15 0)
(1 5.61569e-15 0)
(1 5.71464e-15 0)
(1 7.82668e-15 0)
(1 3.81874e-16 0)
(1 -5.52189e-16 0)
(1 -4.05439e-15 0)
(1 -6.40333e-15 0)
(1 -1.61869e-15 0)
(1 -4.65142e-15 0)
(1 -2.68453e-15 0)
(1 7.48245e-15 0)
(1 4.5088e-15 0)
(1 -3.12247e-16 0)
(1 5.79787e-15 0)
(1 1.21427e-15 0)
(1 -2.04042e-15 0)
(1 5.1862e-15 0)
(1 3.11331e-15 0)
(1 5.73409e-15 0)
(1 4.54233e-15 0)
(1 1.96966e-16 0)
(1 -6.02617e-15 0)
(1 -8.95958e-16 0)
(1 -9.15465e-16 0)
(1 -6.89448e-15 0)
(1 -3.3439e-16 0)
(1 -4.69116e-16 0)
(1 -4.05005e-15 0)
(1 1.37755e-15 0)
(1 -4.92204e-16 0)
(1 -1.04598e-15 0)
(1 -5.26705e-15 0)
(1 4.80354e-15 0)
(1 7.4753e-15 0)
(1 2.13182e-15 0)
(1 -1.62033e-17 0)
(1 3.75208e-15 0)
(1 2.60946e-15 0)
(1 5.13815e-15 0)
(1 2.56485e-15 0)
(1 7.10402e-15 0)
(1 2.61728e-15 0)
(1 3.28566e-15 0)
(1 -2.11393e-15 0)
(1 1.9516e-15 0)
(1 -2.53696e-15 0)
(1 2.78333e-15 0)
(1 3.61319e-16 0)
(1 1.66721e-15 0)
(1 -2.29931e-15 0)
(1 -4.19803e-15 0)
(1 -4.94003e-15 0)
(1 6.17133e-16 0)
(1 4.56652e-15 0)
(1 -7.71325e-16 0)
(1 1.38368e-15 0)
(1 7.53296e-16 0)
(1 1.28472e-15 0)
(1 -5.17131e-17 0)
(1 6.71229e-15 0)
(1 -7.1592e-15 0)
(1 -7.1881e-15 0)
(1 -8.59762e-15 0)
(1 -5.59163e-15 0)
(1 8.65714e-15 0)
(1 1.53556e-15 0)
(1 3.22364e-15 0)
(1 -4.10651e-16 0)
(1 1.23518e-14 0)
(1 5.87919e-15 0)
(1 -5.12593e-15 0)
(1 -9.89267e-15 0)
(1 -1.13294e-16 0)
(1 -9.40087e-15 0)
(1 8.97729e-15 0)
(1 1.80919e-14 0)
(1 1.29932e-14 0)
(1 1.30318e-15 0)
(1 2.94661e-15 0)
(1 1.76097e-15 0)
(1 3.30157e-15 0)
(1 4.1859e-15 0)
(1 2.57953e-15 0)
(1 -1.30567e-16 0)
(1 -5.10819e-15 0)
(1 -8.11708e-15 0)
(1 -5.36648e-15 0)
(1 3.97272e-15 0)
(1 9.66457e-16 0)
(1 6.87298e-16 0)
(1 2.18287e-15 0)
(1 2.33728e-15 0)
(1 6.31174e-15 0)
(1 1.05519e-15 0)
(1 3.18933e-15 0)
(1 5.65853e-15 0)
(1 1.98688e-15 0)
(1 4.75438e-15 0)
(1 -1.97897e-15 0)
(1 2.03487e-15 0)
(1 5.76571e-16 0)
(1 4.9111e-15 0)
(1 2.35982e-15 0)
(1 -1.89156e-16 0)
(1 -2.47943e-15 0)
(1 5.54809e-16 0)
(1 4.26105e-15 0)
(1 -4.76241e-15 0)
(1 -8.98126e-15 0)
(1 -6.42147e-16 0)
(1 4.70055e-15 0)
(1 6.62019e-15 0)
(1 1.01882e-14 0)
(1 7.38634e-15 0)
(1 9.52869e-16 0)
(1 5.69661e-16 0)
(1 3.08506e-15 0)
(1 9.89933e-16 0)
(1 3.1606e-15 0)
(1 4.77324e-15 0)
(1 1.13905e-15 0)
(1 6.74083e-15 0)
(1 9.45234e-15 0)
(1 1.16031e-14 0)
(1 1.13499e-15 0)
(1 -5.31649e-16 0)
(1 -2.1684e-15 0)
(1 -2.9166e-15 0)
(1 -3.48867e-15 0)
(1 -8.81377e-15 0)
(1 -3.36427e-15 0)
(1 -7.60089e-16 0)
(1 3.51084e-16 0)
(1 4.29162e-15 0)
(1 2.33997e-15 0)
(1 5.5331e-15 0)
(1 2.49472e-15 0)
(1 3.06831e-15 0)
(1 -5.19208e-17 0)
(1 -3.31243e-15 0)
(1 2.92334e-15 0)
(1 2.30367e-15 0)
(1 1.78061e-15 0)
(1 7.33719e-16 0)
(1 -3.71262e-16 0)
(1 1.79777e-15 0)
(1 -1.37723e-15 0)
(1 6.4964e-15 0)
(1 5.05927e-15 0)
(1 4.78294e-15 0)
(1 2.73801e-15 0)
(1 1.66574e-15 0)
(1 8.00378e-15 0)
(1 6.65769e-15 0)
(1 -1.43974e-17 0)
(1 -6.48705e-16 0)
(1 7.80345e-15 0)
(1 3.14986e-15 0)
(1 -3.18333e-15 0)
(1 2.78579e-15 0)
(1 8.25276e-16 0)
(1 -5.37864e-15 0)
(1 -2.49073e-15 0)
(1 1.05352e-15 0)
(1 -4.04121e-15 0)
(1 -1.14837e-15 0)
(1 2.55707e-15 0)
(1 7.95584e-15 0)
(1 1.79335e-15 0)
(1 4.07454e-15 0)
(1 -8.29629e-16 0)
(1 -5.21132e-15 0)
(1 -6.94275e-15 0)
(1 8.17836e-15 0)
(1 8.83891e-15 0)
(1 1.58994e-14 0)
(1 1.52079e-15 0)
(1 -2.16075e-15 0)
(1 -1.59798e-16 0)
(1 1.72636e-15 0)
(1 1.66245e-17 0)
(1 1.04595e-15 0)
(1 1.76245e-15 0)
(1 2.78151e-15 0)
(1 8.46481e-16 0)
(1 -3.74344e-16 0)
(1 -1.00298e-17 0)
(1 -6.36216e-15 0)
(1 5.68028e-17 0)
(1 -1.04451e-15 0)
(1 2.24942e-15 0)
(1 2.31567e-15 0)
(1 4.83258e-15 0)
(1 4.52918e-15 0)
(1 1.78486e-14 0)
(1 8.93707e-15 0)
(1 7.70883e-15 0)
(1 -2.05862e-15 0)
(1 3.46784e-15 0)
(1 -2.01461e-15 0)
(1 -4.35139e-15 0)
(1 -2.20579e-15 0)
(1 2.20713e-15 0)
(1 3.93143e-15 0)
(1 -2.22118e-17 0)
(1 -7.28128e-15 0)
(1 -7.32217e-15 0)
(1 -3.11264e-15 0)
(1 -2.71776e-15 0)
(1 1.16871e-15 0)
(1 6.16037e-16 0)
(1 3.82226e-15 0)
(1 6.71864e-15 0)
(1 3.45478e-16 0)
(1 4.70936e-15 0)
(1 9.30182e-15 0)
(1 6.89766e-15 0)
(1 3.60925e-15 0)
(1 3.08465e-15 0)
(1 -3.27549e-15 0)
(1 -4.516e-15 0)
(1 6.04148e-15 0)
(1 5.78355e-15 0)
(1 2.30798e-15 0)
(1 2.65621e-15 0)
(1 -2.52177e-15 0)
(1 -6.69209e-15 0)
(1 7.72559e-16 0)
(1 -1.52095e-16 0)
(1 1.2021e-15 0)
(1 3.03972e-15 0)
(1 1.05539e-14 0)
(1 3.41358e-15 0)
(1 2.99363e-15 0)
(1 4.57196e-15 0)
(1 1.32539e-15 0)
(1 3.9481e-15 0)
(1 8.9974e-16 0)
(1 1.64633e-15 0)
(1 4.80313e-15 0)
(1 9.16325e-15 0)
(1 6.66103e-15 0)
(1 4.14594e-15 0)
(1 3.23538e-15 0)
(1 6.10519e-16 0)
(1 6.41788e-15 0)
(1 4.92383e-15 0)
(1 5.6838e-15 0)
(1 2.61081e-15 0)
(1 8.24682e-15 0)
(1 1.08512e-14 0)
(1 8.79693e-15 0)
(1 3.96212e-15 0)
(1 7.28674e-15 0)
(1 7.2295e-16 0)
(1 2.74617e-16 0)
(1 1.10664e-15 0)
(1 1.05319e-15 0)
(1 4.11886e-15 0)
(1 -2.5602e-15 0)
(1 2.23034e-15 0)
(1 -2.53987e-15 0)
(1 -3.76567e-15 0)
(1 9.8688e-16 0)
(1 -7.86004e-15 0)
(1 2.40605e-15 0)
(1 2.40681e-15 0)
(1 1.11279e-14 0)
(1 -3.11538e-17 0)
(1 2.30095e-15 0)
(1 -2.37709e-15 0)
(1 6.88019e-15 0)
(1 -4.44219e-15 0)
(1 1.07454e-14 0)
(1 -7.39419e-16 0)
(1 2.76663e-15 0)
(1 -6.03762e-15 0)
(1 -8.43607e-16 0)
(1 -4.81235e-15 0)
(1 7.06607e-15 0)
(1 6.18656e-15 0)
(1 -6.46365e-16 0)
(1 2.92522e-15 0)
(1 8.46158e-15 0)
(1 1.85205e-15 0)
(1 1.5599e-15 0)
(1 -3.11483e-15 0)
(1 -8.24337e-15 0)
(1 -5.0885e-15 0)
(1 -3.34784e-15 0)
(1 -6.56433e-16 0)
(1 1.28328e-15 0)
(1 6.03922e-15 0)
(1 1.2917e-14 0)
(1 7.13291e-15 0)
(1 -1.92127e-15 0)
(1 -3.40329e-16 0)
(1 -3.23494e-15 0)
(1 2.13691e-15 0)
(1 6.21894e-15 0)
(1 5.2065e-16 0)
(1 2.5534e-15 0)
(1 4.58647e-15 0)
(1 5.31736e-15 0)
(1 4.43081e-15 0)
(1 -2.39029e-15 0)
(1 -2.81696e-15 0)
(1 2.74468e-15 0)
(1 8.67686e-15 0)
(1 -8.35328e-16 0)
(1 -1.38933e-15 0)
(1 -6.59027e-15 0)
(1 1.76181e-15 0)
(1 -3.07682e-15 0)
(1 1.34559e-14 0)
(1 1.42341e-14 0)
(1 8.56261e-15 0)
(1 6.25867e-15 0)
(1 5.27881e-15 0)
(1 4.94798e-16 0)
(1 1.04556e-15 0)
(1 5.18106e-16 0)
(1 -1.08532e-15 0)
(1 -2.58084e-15 0)
(1 6.28815e-15 0)
(1 7.45282e-15 0)
(1 -6.6014e-17 0)
(1 3.2122e-16 0)
(1 4.32626e-15 0)
(1 5.90884e-15 0)
(1 -1.90893e-15 0)
(1 1.43715e-15 0)
(1 3.71612e-15 0)
(1 3.48115e-15 0)
(1 4.41429e-15 0)
(1 -2.71944e-15 0)
(1 1.98799e-15 0)
(1 1.13093e-15 0)
(1 3.27481e-15 0)
(1 4.58442e-15 0)
(1 2.92826e-15 0)
(1 3.4357e-16 0)
(1 2.6465e-15 0)
(1 3.89875e-16 0)
(1 2.27006e-15 0)
(1 3.30218e-15 0)
(1 7.86697e-15 0)
(1 6.10157e-15 0)
(1 1.1097e-14 0)
(1 8.7881e-15 0)
(1 6.6206e-15 0)
(1 1.04333e-14 0)
(1 6.52794e-15 0)
(1 1.26388e-14 0)
(1 -2.45011e-15 0)
(1 -1.31521e-15 0)
(1 -4.40763e-15 0)
(1 -5.28668e-15 0)
(1 -3.36783e-15 0)
(1 -7.77758e-17 0)
(1 -7.50053e-16 0)
(1 2.3452e-15 0)
(1 -4.98588e-15 0)
(1 9.26324e-16 0)
(1 -2.05267e-15 0)
(1 5.77617e-15 0)
(1 9.86538e-15 0)
(1 1.23522e-14 0)
(1 -1.09547e-15 0)
(1 -2.43935e-15 0)
(1 1.05244e-15 0)
(1 8.44969e-15 0)
(1 -5.39438e-15 0)
(1 8.99862e-16 0)
(1 -4.16977e-15 0)
(1 5.34751e-15 0)
(1 1.07563e-14 0)
(1 1.36784e-14 0)
(1 -2.51458e-16 0)
(1 3.39248e-15 0)
(1 -5.21334e-15 0)
(1 -5.96201e-15 0)
(1 5.39286e-16 0)
(1 -1.78909e-15 0)
(1 -8.41157e-15 0)
(1 -5.76754e-15 0)
(1 -9.38129e-15 0)
(1 -7.94335e-15 0)
(1 3.16758e-16 0)
(1 7.22551e-15 0)
(1 5.49428e-15 0)
(1 3.91692e-15 0)
(1 4.58404e-15 0)
(1 7.19182e-15 0)
(1 -8.66271e-15 0)
(1 -3.45441e-15 0)
(1 4.92153e-16 0)
(1 5.24238e-15 0)
(1 6.85159e-15 0)
(1 9.30329e-15 0)
(1 7.58508e-15 0)
(1 3.21381e-15 0)
(1 3.44532e-15 0)
(1 -2.1033e-15 0)
(1 1.78963e-15 0)
(1 1.06858e-14 0)
(1 9.89714e-15 0)
(1 -4.11585e-15 0)
(1 4.19365e-15 0)
(1 4.79593e-16 0)
(1 3.38621e-15 0)
(1 -1.5203e-15 0)
(1 4.9786e-15 0)
(1 1.45647e-15 0)
(1 5.37262e-15 0)
(1 7.50228e-19 0)
(1 4.22266e-16 0)
(1 -2.04841e-15 0)
(1 -2.47188e-15 0)
(1 2.13624e-15 0)
(1 1.01985e-14 0)
(1 1.51222e-14 0)
(1 1.5439e-14 0)
(1 1.27529e-14 0)
(1 1.25375e-14 0)
(1 1.15758e-14 0)
(1 7.68283e-15 0)
(1 2.67213e-16 0)
(1 -3.59865e-16 0)
(1 -1.36956e-15 0)
(1 -1.94596e-15 0)
(1 3.16289e-15 0)
(1 4.60883e-15 0)
(1 3.73565e-15 0)
(1 7.19154e-15 0)
(1 7.94189e-15 0)
(1 2.32905e-15 0)
(1 -2.71832e-16 0)
(1 -1.42814e-15 0)
(1 -2.04989e-15 0)
(1 -1.74743e-15 0)
(1 -2.09196e-15 0)
(1 2.67974e-15 0)
(1 -3.50337e-16 0)
(1 2.27759e-15 0)
(1 2.5444e-15 0)
(1 6.43021e-15 0)
(1 9.87932e-15 0)
(1 1.73115e-14 0)
(1 1.87656e-14 0)
(1 2.01715e-14 0)
(1 1.78398e-14 0)
(1 1.80668e-14 0)
(1 2.11488e-14 0)
(1 -1.53288e-16 0)
(1 2.2799e-15 0)
(1 4.96846e-15 0)
(1 3.72214e-15 0)
(1 -7.56096e-15 0)
(1 1.20777e-15 0)
(1 -4.13924e-16 0)
(1 -6.39803e-16 0)
(1 7.47216e-16 0)
(1 -3.45368e-15 0)
(1 -2.88888e-15 0)
(1 -2.42629e-15 0)
(1 4.41317e-15 0)
(1 -1.07628e-15 0)
(1 7.27147e-15 0)
(1 1.083e-15 0)
(1 1.42323e-15 0)
(1 5.05072e-15 0)
(1 5.99204e-15 0)
(1 -9.32072e-16 0)
(1 -6.16755e-15 0)
(1 -1.34482e-14 0)
(1 4.31466e-15 0)
(1 1.04136e-14 0)
(1 7.8535e-15 0)
(1 5.39631e-15 0)
(1 6.03284e-15 0)
(1 2.47596e-15 0)
(1 -5.63856e-15 0)
(1 -7.44814e-15 0)
(1 2.6346e-15 0)
(1 1.21727e-15 0)
(1 4.85312e-15 0)
(1 -3.96003e-15 0)
(1 -3.25022e-15 0)
(1 -4.65879e-15 0)
(1 -1.34617e-15 0)
(1 -4.32898e-16 0)
(1 -9.88943e-16 0)
(1 4.30615e-15 0)
(1 -1.41805e-15 0)
(1 6.3207e-15 0)
(1 4.66736e-15 0)
(1 6.46714e-15 0)
(1 8.81415e-15 0)
(1 6.92652e-16 0)
(1 1.91126e-15 0)
(1 -1.7346e-15 0)
(1 2.9095e-15 0)
(1 5.73078e-15 0)
(1 3.48534e-15 0)
(1 2.07259e-15 0)
(1 3.03379e-15 0)
(1 4.37131e-15 0)
(1 3.70158e-15 0)
(1 6.87856e-15 0)
(1 3.74809e-15 0)
(1 6.5795e-15 0)
(1 -1.60363e-16 0)
(1 3.13262e-15 0)
(1 1.71476e-15 0)
(1 1.83057e-15 0)
(1 4.74374e-15 0)
(1 5.38425e-15 0)
(1 2.65466e-15 0)
(1 3.41468e-15 0)
(1 1.27709e-14 0)
(1 1.40188e-14 0)
(1 1.79414e-14 0)
(1 1.18467e-14 0)
(1 7.67574e-15 0)
(1 4.99425e-15 0)
(1 3.34424e-15 0)
(1 -1.91774e-16 0)
(1 6.01113e-16 0)
(1 2.11836e-15 0)
(1 6.96705e-15 0)
(1 4.884e-15 0)
(1 5.75893e-15 0)
(1 1.83983e-15 0)
(1 4.36616e-15 0)
(1 -8.53321e-16 0)
(1 9.70404e-16 0)
(1 1.882e-15 0)
(1 -2.60192e-15 0)
(1 4.87507e-15 0)
(1 2.33128e-15 0)
(1 6.35392e-16 0)
(1 5.57497e-15 0)
(1 8.91376e-16 0)
(1 8.48275e-15 0)
(1 4.31311e-15 0)
(1 7.2486e-15 0)
(1 7.15613e-15 0)
(1 1.45016e-14 0)
(1 1.52796e-14 0)
(1 2.04376e-14 0)
(1 1.46104e-14 0)
(1 2.65078e-14 0)
(1 2.39332e-14 0)
(1 9.15767e-16 0)
(1 1.753e-16 0)
(1 2.40852e-15 0)
(1 6.09021e-16 0)
(1 -6.73544e-15 0)
(1 -4.92756e-15 0)
(1 -2.12384e-16 0)
(1 -5.85294e-15 0)
(1 -9.18157e-17 0)
(1 -1.19967e-15 0)
(1 4.3855e-16 0)
(1 -5.71245e-15 0)
(1 -6.71312e-15 0)
(1 1.1377e-15 0)
(1 1.17315e-14 0)
(1 1.11579e-14 0)
(1 1.34462e-14 0)
(1 4.22311e-15 0)
(1 1.61505e-14 0)
(1 8.60745e-16 0)
(1 1.73249e-15 0)
(1 -1.2334e-14 0)
(1 -9.2545e-15 0)
(1 -1.11239e-14 0)
(1 -4.40215e-15 0)
(1 -9.46248e-15 0)
(1 6.93833e-15 0)
(1 3.05934e-15 0)
(1 -7.04112e-15 0)
(1 -2.83985e-15 0)
(1 7.81488e-15 0)
(1 -2.10034e-15 0)
(1 1.50522e-16 0)
(1 2.39417e-15 0)
(1 -3.46174e-16 0)
(1 -5.38221e-15 0)
(1 -3.54801e-15 0)
(1 2.63177e-15 0)
(1 -3.2275e-15 0)
(1 1.40063e-15 0)
(1 -3.36925e-15 0)
(1 2.51104e-15 0)
(1 3.80049e-15 0)
(1 7.19038e-15 0)
(1 5.81098e-15 0)
(1 4.64626e-15 0)
(1 9.63727e-15 0)
(1 4.44454e-15 0)
(1 7.02073e-15 0)
(1 3.58218e-15 0)
(1 6.40634e-15 0)
(1 -3.21012e-16 0)
(1 2.90192e-15 0)
(1 9.39724e-15 0)
(1 3.06052e-15 0)
(1 5.13669e-16 0)
(1 2.62142e-15 0)
(1 2.57287e-15 0)
(1 1.3629e-15 0)
(1 1.3285e-15 0)
(1 7.55293e-15 0)
(1 3.22049e-15 0)
(1 2.48292e-15 0)
(1 4.50534e-15 0)
(1 6.23189e-15 0)
(1 1.05788e-14 0)
(1 8.80119e-15 0)
(1 3.82402e-15 0)
(1 6.59724e-15 0)
(1 1.20094e-14 0)
(1 1.73465e-14 0)
(1 1.03484e-14 0)
(1 5.28537e-15 0)
(1 -1.47638e-15 0)
(1 1.95425e-16 0)
(1 2.381e-15 0)
(1 1.03467e-14 0)
(1 1.00954e-14 0)
(1 8.29005e-15 0)
(1 5.01636e-15 0)
(1 1.434e-15 0)
(1 2.26638e-15 0)
(1 3.05842e-15 0)
(1 5.40983e-15 0)
(1 -1.55115e-15 0)
(1 -4.09905e-15 0)
(1 -3.67522e-15 0)
(1 2.93661e-15 0)
(1 1.54253e-15 0)
(1 1.13935e-15 0)
(1 5.62031e-15 0)
(1 5.8438e-15 0)
(1 1.05228e-14 0)
(1 8.42413e-15 0)
(1 1.64472e-14 0)
(1 6.88553e-15 0)
(1 1.18178e-14 0)
(1 1.06118e-14 0)
(1 2.03864e-14 0)
(1 1.67814e-14 0)
(1 2.50362e-15 0)
(1 -4.03317e-15 0)
(1 3.60026e-15 0)
(1 -9.40762e-17 0)
(1 -1.60822e-15 0)
(1 -4.24807e-15 0)
(1 -2.15501e-15 0)
(1 -2.36682e-15 0)
(1 -7.43768e-15 0)
(1 2.14154e-15 0)
(1 3.94535e-15 0)
(1 6.19532e-15 0)
(1 1.01498e-15 0)
(1 5.56499e-15 0)
(1 -6.241e-15 0)
(1 -3.43971e-15 0)
(1 5.62812e-15 0)
(1 -5.70259e-16 0)
(1 7.22156e-15 0)
(1 -8.93795e-15 0)
(1 5.74777e-15 0)
(1 7.21916e-15 0)
(1 1.87386e-15 0)
(1 1.02924e-15 0)
(1 4.91555e-15 0)
(1 3.68815e-15 0)
(1 1.67015e-15 0)
(1 -6.83596e-16 0)
(1 1.68343e-15 0)
(1 1.34744e-15 0)
(1 -3.50426e-15 0)
(1 -3.91028e-15 0)
(1 -6.34393e-15 0)
(1 2.44161e-15 0)
(1 -3.84501e-15 0)
(1 -1.16655e-15 0)
(1 -5.20677e-15 0)
(1 -1.49883e-15 0)
(1 -2.5408e-15 0)
(1 -4.62475e-15 0)
(1 3.78365e-15 0)
(1 7.94827e-15 0)
(1 7.94281e-15 0)
(1 6.43121e-15 0)
(1 8.19152e-16 0)
(1 5.49575e-15 0)
(1 1.08397e-14 0)
(1 8.86025e-15 0)
(1 5.03653e-15 0)
(1 -1.86797e-15 0)
(1 2.95126e-15 0)
(1 -1.39953e-15 0)
(1 -9.75007e-18 0)
(1 8.61303e-15 0)
(1 7.53509e-15 0)
(1 4.73377e-15 0)
(1 -4.05774e-15 0)
(1 2.86879e-15 0)
(1 6.39423e-15 0)
(1 4.08087e-15 0)
(1 3.4781e-15 0)
(1 2.55358e-15 0)
(1 -1.10314e-15 0)
(1 1.44635e-15 0)
(1 1.13548e-14 0)
(1 6.76323e-15 0)
(1 4.76201e-15 0)
(1 7.0449e-15 0)
(1 2.26376e-15 0)
(1 1.11758e-14 0)
(1 1.44945e-14 0)
(1 1.52484e-14 0)
(1 3.00918e-15 0)
(1 3.46963e-15 0)
(1 4.99632e-17 0)
(1 -3.43421e-16 0)
(1 -1.59841e-15 0)
(1 5.2733e-15 0)
(1 1.83285e-15 0)
(1 8.89613e-15 0)
(1 8.07297e-15 0)
(1 1.40588e-14 0)
(1 5.61023e-15 0)
(1 2.32088e-15 0)
(1 5.93137e-15 0)
(1 -5.90618e-15 0)
(1 -2.46352e-15 0)
(1 6.78521e-15 0)
(1 1.30222e-15 0)
(1 1.39648e-15 0)
(1 -2.12893e-15 0)
(1 3.65409e-15 0)
(1 1.22647e-14 0)
(1 1.16888e-14 0)
(1 1.19416e-14 0)
(1 1.28586e-14 0)
(1 1.2563e-14 0)
(1 1.40235e-14 0)
(1 1.22412e-14 0)
(1 1.21699e-14 0)
(1 2.35364e-15 0)
(1 1.47071e-15 0)
(1 -4.56633e-15 0)
(1 -2.10705e-15 0)
(1 -1.85237e-15 0)
(1 -7.9057e-16 0)
(1 -4.19438e-15 0)
(1 2.50799e-15 0)
(1 -6.14109e-15 0)
(1 2.14966e-15 0)
(1 3.90452e-15 0)
(1 2.11878e-14 0)
(1 3.10711e-16 0)
(1 -3.04242e-15 0)
(1 -9.15561e-15 0)
(1 -2.30833e-15 0)
(1 -5.64772e-15 0)
(1 1.54791e-14 0)
(1 1.21003e-14 0)
(1 1.54332e-14 0)
(1 2.20455e-15 0)
(1 -1.03091e-14 0)
(1 -2.31077e-14 0)
(1 -1.13906e-14 0)
(1 -9.80529e-15 0)
(1 4.26268e-15 0)
(1 9.67887e-16 0)
(1 3.98142e-15 0)
(1 7.5506e-15 0)
(1 1.41029e-15 0)
(1 -4.78113e-15 0)
(1 -1.65592e-15 0)
(1 -1.60427e-15 0)
(1 -1.39975e-15 0)
(1 -5.64423e-15 0)
(1 -1.48808e-15 0)
(1 -4.45143e-15 0)
(1 -5.73898e-15 0)
(1 1.83135e-15 0)
(1 5.25823e-16 0)
(1 4.98896e-15 0)
(1 4.82272e-15 0)
(1 9.8883e-17 0)
(1 8.4092e-16 0)
(1 7.49368e-15 0)
(1 1.27222e-14 0)
(1 6.27687e-15 0)
(1 1.77076e-14 0)
(1 9.02177e-15 0)
(1 1.08364e-14 0)
(1 -4.54013e-15 0)
(1 -5.66411e-16 0)
(1 1.02104e-15 0)
(1 5.10438e-15 0)
(1 3.31297e-15 0)
(1 1.77994e-15 0)
(1 -6.46212e-15 0)
(1 -2.99705e-16 0)
(1 -3.92887e-15 0)
(1 -4.21951e-15 0)
(1 -3.29776e-15 0)
(1 5.43101e-15 0)
(1 7.92589e-15 0)
(1 1.38367e-14 0)
(1 1.25548e-14 0)
(1 6.482e-15 0)
(1 6.56811e-15 0)
(1 6.42945e-15 0)
(1 3.95965e-15 0)
(1 1.22277e-15 0)
(1 -2.85798e-15 0)
(1 4.6151e-15 0)
(1 2.16757e-15 0)
(1 1.30122e-14 0)
(1 8.36954e-15 0)
(1 3.58453e-15 0)
(1 -2.8309e-15 0)
(1 -2.14855e-15 0)
(1 -1.88983e-15 0)
(1 5.98339e-15 0)
(1 6.3564e-15 0)
(1 1.03063e-14 0)
(1 4.07557e-15 0)
(1 7.30993e-15 0)
(1 5.91236e-15 0)
(1 5.6967e-15 0)
(1 3.83798e-15 0)
(1 5.00077e-15 0)
(1 2.5153e-15 0)
(1 2.78311e-15 0)
(1 -3.10486e-16 0)
(1 4.19677e-15 0)
(1 1.47119e-15 0)
(1 4.54424e-15 0)
(1 2.62965e-15 0)
(1 1.19863e-14 0)
(1 1.08508e-14 0)
(1 1.15352e-14 0)
(1 4.83302e-15 0)
(1 6.27009e-15 0)
(1 -7.47074e-16 0)
(1 4.62914e-15 0)
(1 -2.59989e-15 0)
(1 -5.02857e-15 0)
(1 -9.56236e-16 0)
(1 -8.58706e-15 0)
(1 -5.90809e-15 0)
(1 6.49778e-15 0)
(1 1.06215e-14 0)
(1 7.16698e-15 0)
(1 4.76269e-15 0)
(1 5.65611e-16 0)
(1 -4.71167e-15 0)
(1 -2.27248e-15 0)
(1 6.09655e-16 0)
(1 1.86206e-15 0)
(1 -5.64016e-15 0)
(1 3.85646e-15 0)
(1 -2.45412e-15 0)
(1 1.24652e-14 0)
(1 -3.89083e-15 0)
(1 1.54314e-15 0)
(1 -1.39752e-14 0)
(1 -5.01867e-15 0)
(1 2.87356e-15 0)
(1 2.54022e-16 0)
(1 1.68379e-15 0)
(1 -1.6459e-15 0)
(1 -1.09612e-15 0)
(1 -3.25805e-16 0)
(1 1.73947e-15 0)
(1 -4.50491e-15 0)
(1 -3.75869e-15 0)
(1 -1.01967e-14 0)
(1 -4.31458e-15 0)
(1 6.25172e-15 0)
(1 4.94942e-16 0)
(1 8.35592e-16 0)
(1 1.67929e-15 0)
(1 -6.57354e-15 0)
(1 -9.50346e-16 0)
(1 4.96402e-15 0)
(1 7.36312e-15 0)
(1 8.22404e-15 0)
(1 1.25188e-14 0)
(1 7.04609e-15 0)
(1 3.18544e-15 0)
(1 5.83314e-15 0)
(1 5.19545e-15 0)
(1 5.46907e-15 0)
(1 -7.34923e-16 0)
(1 2.94419e-15 0)
(1 3.71146e-15 0)
(1 -5.75181e-16 0)
(1 2.34944e-15 0)
(1 6.83235e-15 0)
(1 6.46867e-15 0)
(1 6.23748e-15 0)
(1 -3.24332e-15 0)
(1 1.66822e-16 0)
(1 5.44687e-16 0)
(1 2.29254e-15 0)
(1 2.10597e-15 0)
(1 1.00794e-14 0)
(1 -3.60996e-15 0)
(1 1.28171e-14 0)
(1 1.33969e-14 0)
(1 8.41337e-15 0)
(1 7.08316e-15 0)
(1 4.0452e-15 0)
(1 -2.71574e-15 0)
(1 -2.34174e-15 0)
(1 5.51522e-15 0)
(1 1.35969e-14 0)
(1 9.46231e-15 0)
(1 1.0056e-14 0)
(1 9.63509e-15 0)
(1 8.71772e-15 0)
(1 3.32343e-15 0)
(1 8.97511e-15 0)
(1 6.78362e-15 0)
(1 4.74739e-15 0)
(1 9.32859e-16 0)
(1 5.51199e-15 0)
(1 5.273e-15 0)
(1 8.10685e-15 0)
(1 5.84154e-15 0)
(1 5.28409e-15 0)
(1 4.48611e-15 0)
(1 3.39979e-15 0)
(1 -2.43102e-16 0)
(1 4.45911e-15 0)
(1 3.17391e-15 0)
(1 3.17894e-15 0)
(1 2.91652e-15 0)
(1 1.05325e-14 0)
(1 1.50868e-14 0)
(1 1.06077e-14 0)
(1 5.41352e-15 0)
(1 5.22272e-15 0)
(1 5.89813e-16 0)
(1 2.26277e-16 0)
(1 2.23992e-15 0)
(1 -6.73382e-15 0)
(1 8.75045e-15 0)
(1 -9.53778e-15 0)
(1 -1.08458e-14 0)
(1 -9.66043e-15 0)
(1 5.17575e-15 0)
(1 -3.84091e-16 0)
(1 1.10242e-14 0)
(1 -5.55657e-15 0)
(1 1.05441e-14 0)
(1 1.61979e-15 0)
(1 1.2872e-15 0)
(1 -3.39162e-15 0)
(1 -3.49702e-15 0)
(1 -1.27903e-14 0)
(1 -9.77676e-15 0)
(1 -5.91971e-15 0)
(1 -4.98748e-15 0)
(1 9.19747e-15 0)
(1 1.05405e-14 0)
(1 7.77255e-15 0)
(1 1.76917e-14 0)
(1 7.23385e-15 0)
(1 2.06403e-15 0)
(1 -2.05454e-15 0)
(1 -7.94649e-15 0)
(1 -7.93741e-15 0)
(1 -5.02336e-15 0)
(1 -2.2151e-15 0)
(1 -9.86793e-16 0)
(1 -1.12433e-14 0)
(1 -1.41476e-15 0)
(1 -2.70413e-15 0)
(1 4.10458e-15 0)
(1 1.06838e-14 0)
(1 -1.59572e-15 0)
(1 -6.16536e-15 0)
(1 1.01129e-16 0)
(1 9.09928e-15 0)
(1 1.01743e-14 0)
(1 1.1123e-14 0)
(1 3.29541e-15 0)
(1 -4.35322e-18 0)
(1 2.92999e-16 0)
(1 -6.21853e-15 0)
(1 -2.39003e-15 0)
(1 5.74396e-15 0)
(1 9.22714e-15 0)
(1 1.16932e-14 0)
(1 5.39698e-15 0)
(1 5.09998e-15 0)
(1 6.10686e-15 0)
(1 3.75685e-15 0)
(1 6.56369e-15 0)
(1 4.31278e-15 0)
(1 2.76414e-15 0)
(1 4.40224e-15 0)
(1 -1.55543e-15 0)
(1 -9.76985e-16 0)
(1 9.40785e-16 0)
(1 -1.21187e-15 0)
(1 5.38454e-15 0)
(1 6.19561e-15 0)
(1 1.18521e-14 0)
(1 1.22511e-14 0)
(1 1.43143e-14 0)
(1 1.16202e-14 0)
(1 6.02563e-15 0)
(1 1.82985e-15 0)
(1 9.78881e-15 0)
(1 4.94166e-15 0)
(1 7.30033e-15 0)
(1 1.14898e-14 0)
(1 1.08904e-14 0)
(1 4.58771e-15 0)
(1 6.69824e-15 0)
(1 6.81759e-15 0)
(1 1.02468e-14 0)
(1 -2.96584e-16 0)
(1 2.86365e-15 0)
(1 -2.80377e-15 0)
(1 2.99036e-15 0)
(1 1.06328e-15 0)
(1 6.29888e-15 0)
(1 2.20206e-15 0)
(1 -1.85626e-15 0)
(1 1.17351e-15 0)
(1 1.42737e-15 0)
(1 2.56016e-15 0)
(1 7.5359e-15 0)
(1 1.19571e-14 0)
(1 8.46618e-15 0)
(1 6.63413e-15 0)
(1 7.60255e-15 0)
(1 9.41789e-15 0)
(1 8.00801e-15 0)
(1 7.2161e-15 0)
(1 -2.27673e-15 0)
(1 -2.62586e-15 0)
(1 -4.25753e-15 0)
(1 -1.84232e-15 0)
(1 7.12918e-15 0)
(1 3.51761e-15 0)
(1 1.26691e-14 0)
(1 6.59445e-15 0)
(1 -1.78569e-15 0)
(1 -1.02053e-14 0)
(1 -2.35147e-15 0)
(1 -8.71533e-15 0)
(1 3.05502e-15 0)
(1 -6.7111e-16 0)
(1 -2.26717e-15 0)
(1 -4.93147e-15 0)
(1 1.50641e-15 0)
(1 1.86051e-15 0)
(1 -7.46669e-15 0)
(1 1.70232e-16 0)
(1 4.79135e-16 0)
(1 3.27545e-15 0)
(1 3.37649e-15 0)
(1 -1.09978e-14 0)
(1 -6.03986e-15 0)
(1 1.13758e-15 0)
(1 -3.05038e-15 0)
(1 -4.81633e-15 0)
(1 -6.54102e-16 0)
(1 -4.06517e-15 0)
(1 1.07081e-16 0)
(1 -2.20597e-15 0)
(1 -8.49839e-17 0)
(1 4.7863e-15 0)
(1 2.93732e-15 0)
(1 -2.08109e-15 0)
(1 5.52643e-15 0)
(1 2.01029e-15 0)
(1 -7.5907e-15 0)
(1 4.94651e-16 0)
(1 4.2027e-15 0)
(1 3.3431e-15 0)
(1 4.11216e-15 0)
(1 5.40892e-15 0)
(1 -2.40136e-15 0)
(1 -3.93576e-15 0)
(1 4.44894e-15 0)
(1 -3.16191e-15 0)
(1 3.25864e-15 0)
(1 9.48367e-15 0)
(1 1.26655e-14 0)
(1 1.09989e-14 0)
(1 6.39921e-15 0)
(1 1.93612e-15 0)
(1 3.11773e-15 0)
(1 -7.25024e-15 0)
(1 4.36157e-15 0)
(1 1.49091e-15 0)
(1 6.46147e-15 0)
(1 9.04607e-16 0)
(1 -6.14369e-15 0)
(1 1.97891e-15 0)
(1 1.07213e-15 0)
(1 6.81387e-16 0)
(1 5.73746e-15 0)
(1 -4.19906e-15 0)
(1 -1.70787e-15 0)
(1 3.73138e-15 0)
(1 1.14028e-14 0)
(1 7.38522e-15 0)
(1 4.30996e-15 0)
(1 3.59897e-15 0)
(1 1.30221e-14 0)
(1 9.3418e-15 0)
(1 9.06941e-15 0)
(1 4.53151e-15 0)
(1 5.06091e-15 0)
(1 1.61111e-15 0)
(1 1.6136e-14 0)
(1 7.97315e-15 0)
(1 2.36882e-15 0)
(1 3.51801e-15 0)
(1 7.80763e-15 0)
(1 5.57562e-15 0)
(1 5.79534e-15 0)
(1 8.32055e-17 0)
(1 -2.21444e-15 0)
(1 -4.94439e-15 0)
(1 -3.12734e-15 0)
(1 1.29691e-16 0)
(1 6.89686e-15 0)
(1 4.00308e-15 0)
(1 1.24837e-14 0)
(1 7.48413e-15 0)