/*--------------------------------*- C++ -*----------------------------------*\
| =========                 |                                                 |
| \\      /  F ield         | OpenFOAM: The Open Source CFD Toolbox           |
|  \\    /   O peration     | Version:  v2012                                 |
|   \\  /    A nd           | Website:  www.openfoam.com                      |
|    \\/     M anipulation  |                                                 |
\*---------------------------------------------------------------------------*/
FoamFile
{
    version     2.0;
    format      ascii;
    class       volVectorField;
    location    "70";
    object      Usup;
}
// * * * * * * * * * * * * * * * * * * * * * * * * * * * * * * * * * * * * * //

dimensions      [0 1 -1 0 0 0 0];


internalField   nonuniform List<vector> 
4000
(
(-3.94397e-16 -1.06955e-16 0)
(-9.3981e-16 1.86388e-16 0)
(-8.90171e-16 2.65241e-16 0)
(-8.46986e-16 -7.03547e-17 0)
(-1.19424e-15 -1.53406e-16 0)
(-1.85405e-15 -4.85999e-16 0)
(-2.84599e-15 -4.32861e-16 0)
(-3.89031e-15 -2.56153e-16 0)
(-4.23136e-15 5.25716e-16 0)
(-3.56143e-15 7.46098e-16 0)
(-3.12344e-15 1.8618e-16 0)
(-3.57795e-15 1.41555e-16 0)
(-3.96996e-15 2.5032e-16 0)
(-4.15344e-15 3.1879e-16 0)
(-4.47056e-15 4.71684e-16 0)
(-4.89147e-15 5.12609e-16 0)
(-4.82752e-15 8.49972e-16 0)
(-4.75255e-15 5.90462e-16 0)
(-4.99442e-15 4.96117e-16 0)
(-5.06365e-15 7.37886e-16 0)
(-5.2344e-15 8.71065e-16 0)
(-5.01594e-15 7.24591e-16 0)
(-4.63304e-15 4.48631e-16 0)
(-4.60924e-15 3.14517e-16 0)
(-4.41341e-15 3.81684e-16 0)
(-3.77463e-15 2.93651e-16 0)
(-3.51059e-15 5.39434e-16 0)
(-3.4849e-15 4.77849e-16 0)
(-3.21413e-15 4.29926e-16 0)
(-2.88078e-15 3.71845e-16 0)
(-2.49474e-15 3.34285e-16 0)
(-2.0822e-15 5.22411e-16 0)
(-1.63791e-15 4.24882e-16 0)
(-1.34987e-15 4.61028e-16 0)
(-1.22577e-15 2.95338e-16 0)
(-1.28668e-15 2.39737e-16 0)
(-1.99632e-15 3.74299e-17 0)
(-2.62758e-15 2.45332e-16 0)
(-2.03726e-15 4.27881e-16 0)
(-1.01601e-15 5.90244e-16 0)
(-4.51618e-16 3.36542e-16 0)
(-4.7613e-16 1.69794e-16 0)
(-8.44016e-16 2.21619e-16 0)
(-9.5189e-16 4.73678e-16 0)
(-6.21954e-16 8.38713e-16 0)
(-1.28318e-17 7.14097e-16 0)
(4.32693e-16 3.40036e-16 0)
(4.0057e-16 4.71733e-16 0)
(5.25369e-16 5.93369e-16 0)
(1.23467e-15 5.81662e-16 0)
(1.38416e-15 6.25204e-16 0)
(1.14154e-15 6.08599e-16 0)
(9.11807e-16 5.32774e-16 0)
(6.59878e-16 8.54511e-16 0)
(1.05499e-15 9.27027e-16 0)
(1.53845e-15 8.26753e-16 0)
(2.14991e-15 6.56318e-16 0)
(2.56537e-15 5.97668e-16 0)
(2.50079e-15 7.44828e-16 0)
(2.47005e-15 5.82102e-16 0)
(2.54879e-15 4.50117e-16 0)
(2.64727e-15 1.23173e-16 0)
(2.04947e-15 1.9292e-16 0)
(1.39353e-15 8.25126e-16 0)
(1.43453e-15 1.05994e-15 0)
(1.56492e-15 1.14752e-15 0)
(1.64364e-15 1.05481e-15 0)
(1.58422e-15 8.92575e-16 0)
(1.48823e-15 1.22297e-15 0)
(1.46751e-15 9.09149e-16 0)
(1.50263e-15 1.04839e-15 0)
(1.36659e-15 1.48372e-15 0)
(1.12226e-15 1.60244e-15 0)
(1.20391e-15 1.07419e-15 0)
(1.1075e-15 6.80178e-16 0)
(9.66291e-16 4.51195e-16 0)
(7.48549e-16 4.25372e-16 0)
(3.42836e-16 4.84319e-16 0)
(3.51295e-17 2.35965e-16 0)
(-1.95846e-16 3.6006e-16 0)
(-2.08366e-16 4.27246e-16 0)
(-3.8257e-16 1.56028e-16 0)
(-8.36598e-16 7.97027e-17 0)
(-6.81213e-16 3.02748e-16 0)
(-3.87488e-16 4.09075e-18 0)
(-1.02784e-15 -3.57301e-16 0)
(-1.82462e-15 -3.14681e-16 0)
(-1.76627e-15 -7.97927e-17 0)
(-1.49519e-15 -2.8478e-16 0)
(-1.78483e-15 -1.60124e-16 0)
(-2.02245e-15 -4.59269e-17 0)
(-1.91291e-15 -8.53267e-17 0)
(-2.30026e-15 -4.80307e-17 0)
(-2.61758e-15 -1.67496e-17 0)
(-2.47482e-15 7.6442e-18 0)
(-2.42233e-15 1.27054e-16 0)
(-2.16978e-15 2.12605e-16 0)
(-1.55099e-15 1.33256e-16 0)
(-8.82551e-16 3.22942e-17 0)
(-5.15522e-16 -1.11686e-17 0)
(-6.75048e-16 -1.00161e-16 0)
(-1.97073e-15 3.09867e-16 0)
(-2.73096e-15 4.35279e-16 0)
(-3.1177e-15 -2.7169e-16 0)
(-4.15603e-15 -6.59916e-16 0)
(-5.80935e-15 -1.17454e-15 0)
(-7.83855e-15 -9.66626e-16 0)
(-9.67862e-15 -3.6886e-16 0)
(-1.05474e-14 9.89587e-16 0)
(-1.05028e-14 1.45959e-15 0)
(-1.00066e-14 8.99874e-16 0)
(-1.04197e-14 7.32115e-16 0)
(-1.12716e-14 1.03281e-15 0)
(-1.18524e-14 1.0345e-15 0)
(-1.2688e-14 1.2682e-15 0)
(-1.34687e-14 1.69368e-15 0)
(-1.3738e-14 2.30644e-15 0)
(-1.40297e-14 2.14612e-15 0)
(-1.41376e-14 1.80852e-15 0)
(-1.41668e-14 1.95604e-15 0)
(-1.47081e-14 2.24449e-15 0)
(-1.45231e-14 2.141e-15 0)
(-1.36866e-14 1.46043e-15 0)
(-1.31395e-14 1.11486e-15 0)
(-1.24701e-14 1.19827e-15 0)
(-1.09447e-14 1.08874e-15 0)
(-1.01517e-14 1.47289e-15 0)
(-1.00249e-14 1.33625e-15 0)
(-9.27194e-15 1.05355e-15 0)
(-8.34963e-15 1.03688e-15 0)
(-7.13083e-15 1.26476e-15 0)
(-6.08331e-15 1.4657e-15 0)
(-5.09556e-15 1.24875e-15 0)
(-4.39817e-15 1.15575e-15 0)
(-4.14188e-15 1.0129e-15 0)
(-4.35692e-15 8.58225e-16 0)
(-5.51082e-15 4.1104e-16 0)
(-6.29871e-15 9.9622e-16 0)
(-5.10279e-15 1.24598e-15 0)
(-3.26757e-15 1.22664e-15 0)
(-2.16915e-15 9.29622e-16 0)
(-1.79523e-15 4.34051e-16 0)
(-2.03009e-15 6.40784e-16 0)
(-1.86785e-15 1.53618e-15 0)
(-1.3312e-15 2.19548e-15 0)
(-4.9774e-16 1.97977e-15 0)
(7.69952e-16 1.4194e-15 0)
(1.37597e-15 1.45856e-15 0)
(1.77564e-15 1.91678e-15 0)
(3.155e-15 1.94541e-15 0)
(3.58825e-15 1.93301e-15 0)
(3.13218e-15 1.88031e-15 0)
(2.96217e-15 1.98494e-15 0)
(2.73365e-15 2.56446e-15 0)
(3.29891e-15 2.76931e-15 0)
(4.30907e-15 2.44571e-15 0)
(5.75111e-15 1.92903e-15 0)
(6.96712e-15 1.66494e-15 0)
(6.94865e-15 1.80018e-15 0)
(6.74322e-15 1.67151e-15 0)
(6.74227e-15 1.26692e-15 0)
(6.9026e-15 8.78966e-16 0)
(6.35846e-15 7.22054e-16 0)
(5.12373e-15 1.9614e-15 0)
(4.61677e-15 2.84799e-15 0)
(4.55461e-15 3.21991e-15 0)
(4.48517e-15 3.32677e-15 0)
(4.65926e-15 3.09143e-15 0)
(4.33063e-15 3.34619e-15 0)
(4.09444e-15 3.00484e-15 0)
(4.62156e-15 3.46843e-15 0)
(4.2693e-15 4.01315e-15 0)
(3.043e-15 3.94307e-15 0)
(2.66854e-15 3.08564e-15 0)
(2.5981e-15 2.37981e-15 0)
(2.44015e-15 1.96147e-15 0)
(2.02602e-15 1.48422e-15 0)
(8.91315e-16 1.32629e-15 0)
(1.27263e-16 8.66909e-16 0)
(-2.66451e-16 1.1641e-15 0)
(-7.99017e-16 1.13852e-15 0)
(-1.41531e-15 5.15378e-16 0)
(-1.97427e-15 4.86514e-17 0)
(-2.02419e-15 4.8237e-16 0)
(-2.16857e-15 -3.92411e-17 0)
(-3.27945e-15 -5.98187e-16 0)
(-4.48549e-15 -4.07172e-16 0)
(-4.79616e-15 -1.82748e-16 0)
(-4.55808e-15 -5.49648e-16 0)
(-4.91715e-15 -6.07619e-16 0)
(-5.57323e-15 -3.51355e-16 0)
(-5.62273e-15 -3.54577e-16 0)
(-6.35429e-15 -4.44388e-16 0)
(-6.98481e-15 -2.65907e-16 0)
(-6.67279e-15 -1.72462e-17 0)
(-6.35346e-15 2.51266e-16 0)
(-5.73457e-15 4.96045e-16 0)
(-4.35032e-15 2.8791e-16 0)
(-2.62418e-15 5.17679e-17 0)
(-1.21493e-15 -1.24877e-16 0)
(-9.77864e-16 7.73538e-17 0)
(-2.91444e-15 3.40123e-16 0)
(-4.5132e-15 1.3652e-16 0)
(-5.64018e-15 -8.17046e-16 0)
(-7.22161e-15 -1.23811e-15 0)
(-9.4489e-15 -1.48167e-15 0)
(-1.20896e-14 -8.69666e-16 0)
(-1.4568e-14 -8.33462e-17 0)
(-1.6081e-14 1.03549e-15 0)
(-1.65211e-14 1.54703e-15 0)
(-1.6347e-14 1.35896e-15 0)
(-1.69408e-14 1.14167e-15 0)
(-1.8165e-14 1.49305e-15 0)
(-1.92215e-14 1.7945e-15 0)
(-2.01259e-14 2.50698e-15 0)
(-2.11183e-14 3.14438e-15 0)
(-2.17769e-14 3.60201e-15 0)
(-2.25641e-14 3.63815e-15 0)
(-2.29581e-14 3.17623e-15 0)
(-2.27751e-14 2.77969e-15 0)
(-2.3212e-14 2.90147e-15 0)
(-2.32459e-14 3.20559e-15 0)
(-2.22838e-14 2.41732e-15 0)
(-2.11179e-14 1.66103e-15 0)
(-1.99005e-14 1.84972e-15 0)
(-1.77489e-14 2.10772e-15 0)
(-1.65329e-14 2.41052e-15 0)
(-1.62899e-14 2.3479e-15 0)
(-1.50006e-14 1.91716e-15 0)
(-1.31975e-14 2.00236e-15 0)
(-1.14451e-14 2.53045e-15 0)
(-1.01198e-14 2.54962e-15 0)
(-8.72167e-15 2.07708e-15 0)
(-7.54216e-15 1.77875e-15 0)
(-7.07644e-15 1.64041e-15 0)
(-7.52147e-15 1.43572e-15 0)
(-8.56528e-15 9.55537e-16 0)
(-9.21635e-15 1.31513e-15 0)
(-8.01869e-15 1.72498e-15 0)
(-5.57585e-15 1.59038e-15 0)
(-4.03064e-15 1.48627e-15 0)
(-3.25149e-15 1.09353e-15 0)
(-2.69021e-15 1.09056e-15 0)
(-2.25402e-15 2.17548e-15 0)
(-1.86353e-15 3.1917e-15 0)
(-8.39992e-16 3.13608e-15 0)
(9.25155e-16 2.67288e-15 0)
(2.27491e-15 2.65499e-15 0)
(3.15326e-15 3.18201e-15 0)
(4.706e-15 3.31824e-15 0)
(5.34414e-15 3.07964e-15 0)
(5.10672e-15 3.44212e-15 0)
(5.14402e-15 3.83111e-15 0)
(4.96247e-15 4.26246e-15 0)
(5.52911e-15 4.4556e-15 0)
(6.70157e-15 4.01703e-15 0)
(8.71091e-15 3.44131e-15 0)
(1.05902e-14 2.68693e-15 0)
(1.09317e-14 2.56749e-15 0)
(1.06018e-14 2.69165e-15 0)
(1.05303e-14 2.35493e-15 0)
(1.0591e-14 2.02669e-15 0)
(1.01512e-14 1.65063e-15 0)
(9.14888e-15 2.59808e-15 0)
(8.2206e-15 3.90368e-15 0)
(7.77443e-15 4.69752e-15 0)
(7.41005e-15 5.39801e-15 0)
(7.30778e-15 5.66072e-15 0)
(6.91374e-15 5.58197e-15 0)
(6.87957e-15 5.54231e-15 0)
(7.40506e-15 6.06444e-15 0)
(6.50746e-15 6.15878e-15 0)
(4.75633e-15 5.81339e-15 0)
(4.13706e-15 5.02888e-15 0)
(3.96241e-15 4.21364e-15 0)
(3.42406e-15 3.79617e-15 0)
(2.62877e-15 2.8446e-15 0)
(1.23345e-15 2.30893e-15 0)
(3.36903e-16 1.99384e-15 0)
(-3.27633e-16 1.89837e-15 0)
(-1.53258e-15 1.48978e-15 0)
(-2.67913e-15 7.20601e-16 0)
(-3.15495e-15 1.06709e-16 0)
(-3.26366e-15 2.53005e-16 0)
(-3.90877e-15 -2.56464e-16 0)
(-5.22613e-15 -6.41394e-16 0)
(-6.82195e-15 -6.1381e-16 0)
(-7.62119e-15 -5.36254e-16 0)
(-7.63832e-15 -6.07461e-16 0)
(-7.99664e-15 -1.12089e-15 0)
(-8.71443e-15 -9.9135e-16 0)
(-9.12159e-15 -7.59834e-16 0)
(-9.99793e-15 -8.38757e-16 0)
(-1.05136e-14 -5.57504e-16 0)
(-1.01196e-14 -2.43479e-16 0)
(-9.60292e-15 1.91568e-16 0)
(-8.72227e-15 3.05219e-16 0)
(-6.84558e-15 2.26272e-16 0)
(-4.28422e-15 2.39071e-17 0)
(-1.72417e-15 -2.35784e-16 0)
(-1.20115e-15 1.41466e-16 0)
(-3.91413e-15 3.06164e-16 0)
(-6.55894e-15 -3.83656e-16 0)
(-8.1321e-15 -1.24329e-15 0)
(-9.98629e-15 -1.70457e-15 0)
(-1.25699e-14 -1.30019e-15 0)
(-1.57297e-14 -5.0172e-16 0)
(-1.88858e-14 1.52426e-16 0)
(-2.09663e-14 8.34243e-16 0)
(-2.21862e-14 1.34818e-15 0)
(-2.24681e-14 1.18962e-15 0)
(-2.30974e-14 1.43812e-15 0)
(-2.43262e-14 1.61877e-15 0)
(-2.53797e-14 2.17256e-15 0)
(-2.67007e-14 3.36826e-15 0)
(-2.83074e-14 4.39842e-15 0)
(-2.93856e-14 5.22203e-15 0)
(-3.0595e-14 4.99581e-15 0)
(-3.12681e-14 4.19803e-15 0)
(-3.0995e-14 3.31989e-15 0)
(-3.0982e-14 3.18317e-15 0)
(-3.11178e-14 3.84012e-15 0)
(-3.05007e-14 3.28049e-15 0)
(-2.86337e-14 2.69248e-15 0)
(-2.64488e-14 2.87092e-15 0)
(-2.38762e-14 3.22194e-15 0)
(-2.24429e-14 3.27686e-15 0)
(-2.20716e-14 3.43006e-15 0)
(-2.03388e-14 3.34498e-15 0)
(-1.77431e-14 3.32788e-15 0)
(-1.55412e-14 3.65654e-15 0)
(-1.41982e-14 3.61665e-15 0)
(-1.25053e-14 3.01689e-15 0)
(-1.08605e-14 2.57172e-15 0)
(-1.01567e-14 2.22711e-15 0)
(-1.06025e-14 1.7608e-15 0)
(-1.16157e-14 1.62171e-15 0)
(-1.1781e-14 1.68903e-15 0)
(-1.02253e-14 1.98006e-15 0)
(-7.61437e-15 1.91109e-15 0)
(-5.72955e-15 1.8596e-15 0)
(-4.74e-15 1.68234e-15 0)
(-3.61455e-15 1.68183e-15 0)
(-2.29974e-15 2.67901e-15 0)
(-1.86445e-15 3.92737e-15 0)
(-1.15111e-15 4.40767e-15 0)
(1.05718e-15 4.08545e-15 0)
(3.10836e-15 3.97367e-15 0)
(4.35196e-15 4.25326e-15 0)
(5.97932e-15 4.63235e-15 0)
(7.08314e-15 4.6347e-15 0)
(7.26078e-15 5.12057e-15 0)
(7.22585e-15 5.3681e-15 0)
(7.08782e-15 5.65345e-15 0)
(7.65991e-15 5.92972e-15 0)
(9.00639e-15 5.59538e-15 0)
(1.11742e-14 5.08287e-15 0)
(1.34633e-14 4.10202e-15 0)
(1.44568e-14 3.74902e-15 0)
(1.42361e-14 3.70885e-15 0)
(1.38945e-14 3.76281e-15 0)
(1.37775e-14 3.20791e-15 0)
(1.35397e-14 2.63205e-15 0)
(1.28625e-14 2.98782e-15 0)
(1.18906e-14 4.26468e-15 0)
(1.12419e-14 5.55063e-15 0)
(1.06831e-14 6.97604e-15 0)
(1.01307e-14 8.03408e-15 0)
(9.38694e-15 7.89917e-15 0)
(9.40049e-15 8.0035e-15 0)
(9.80805e-15 7.93467e-15 0)
(8.498e-15 7.73019e-15 0)
(6.2473e-15 7.58252e-15 0)
(5.19788e-15 7.00413e-15 0)
(4.98011e-15 5.84347e-15 0)
(4.18284e-15 5.06242e-15 0)
(3.00346e-15 4.31726e-15 0)
(1.53886e-15 3.58061e-15 0)
(3.21561e-16 3.38491e-15 0)
(-8.2488e-16 2.85587e-15 0)
(-2.43029e-15 1.98352e-15 0)
(-3.79847e-15 1.05597e-15 0)
(-4.2982e-15 3.36569e-16 0)
(-4.68482e-15 -1.33146e-16 0)
(-5.6724e-15 -6.4392e-16 0)
(-7.23051e-15 -9.8316e-16 0)
(-9.00098e-15 -1.13418e-15 0)
(-9.90553e-15 -1.0461e-15 0)
(-1.04137e-14 -1.05599e-15 0)
(-1.10404e-14 -1.59339e-15 0)
(-1.15526e-14 -1.51851e-15 0)
(-1.20621e-14 -1.22547e-15 0)
(-1.3121e-14 -1.28309e-15 0)
(-1.36657e-14 -6.9065e-16 0)
(-1.30711e-14 -6.33267e-16 0)
(-1.24161e-14 -3.02242e-16 0)
(-1.13012e-14 -4.16719e-16 0)
(-8.86389e-15 -1.46831e-16 0)
(-5.74128e-15 -1.8692e-16 0)
(-2.18347e-15 -3.15846e-16 0)
(-1.44141e-15 -1.99137e-16 0)
(-4.99449e-15 -2.57812e-16 0)
(-8.3917e-15 -9.05595e-16 0)
(-1.04624e-14 -1.07195e-15 0)
(-1.23928e-14 -1.40755e-15 0)
(-1.5151e-14 -9.05159e-16 0)
(-1.91317e-14 -5.50293e-16 0)
(-2.30528e-14 -1.2467e-16 0)
(-2.56249e-14 1.63607e-16 0)
(-2.72416e-14 6.86502e-16 0)
(-2.77186e-14 9.07534e-16 0)
(-2.86385e-14 1.49344e-15 0)
(-3.02875e-14 2.43888e-15 0)
(-3.12429e-14 2.99079e-15 0)
(-3.24103e-14 3.65881e-15 0)
(-3.41995e-14 4.90505e-15 0)
(-3.61446e-14 6.078e-15 0)
(-3.83732e-14 6.32031e-15 0)
(-3.94297e-14 5.60385e-15 0)
(-3.88314e-14 4.21786e-15 0)
(-3.80571e-14 3.75517e-15 0)
(-3.81128e-14 4.31689e-15 0)
(-3.76102e-14 4.47046e-15 0)
(-3.53475e-14 4.70112e-15 0)
(-3.2762e-14 4.74432e-15 0)
(-2.99144e-14 4.79643e-15 0)
(-2.80612e-14 4.26359e-15 0)
(-2.71581e-14 4.50668e-15 0)
(-2.51873e-14 4.66085e-15 0)
(-2.22191e-14 4.69333e-15 0)
(-1.95922e-14 4.53511e-15 0)
(-1.80769e-14 4.25954e-15 0)
(-1.61918e-14 3.83248e-15 0)
(-1.42117e-14 3.21346e-15 0)
(-1.3372e-14 3.07948e-15 0)
(-1.34989e-14 2.1601e-15 0)
(-1.41108e-14 2.19712e-15 0)
(-1.42542e-14 2.102e-15 0)
(-1.25868e-14 2.28362e-15 0)
(-9.58354e-15 2.11955e-15 0)
(-7.35732e-15 2.12525e-15 0)
(-5.98196e-15 1.94712e-15 0)
(-4.13045e-15 2.43226e-15 0)
(-2.29164e-15 3.56821e-15 0)
(-1.62813e-15 4.52957e-15 0)
(-9.81036e-16 5.28387e-15 0)
(1.11845e-15 5.42271e-15 0)
(3.5987e-15 5.07714e-15 0)
(5.50182e-15 5.46262e-15 0)
(7.49244e-15 6.20757e-15 0)
(8.6827e-15 6.46216e-15 0)
(8.91888e-15 6.53636e-15 0)
(9.04685e-15 6.57486e-15 0)
(9.21714e-15 6.76087e-15 0)
(9.87027e-15 7.27895e-15 0)
(1.11541e-14 7.05165e-15 0)
(1.33994e-14 6.73187e-15 0)
(1.59684e-14 6.12323e-15 0)
(1.7346e-14 5.3079e-15 0)
(1.74693e-14 4.82556e-15 0)
(1.70102e-14 5.0125e-15 0)
(1.64082e-14 4.31559e-15 0)
(1.62316e-14 3.73767e-15 0)
(1.61449e-14 3.41192e-15 0)
(1.55912e-14 4.31376e-15 0)
(1.50647e-14 6.04806e-15 0)
(1.43846e-14 7.9172e-15 0)
(1.29712e-14 9.36007e-15 0)
(1.16888e-14 9.66922e-15 0)
(1.15004e-14 1.00506e-14 0)
(1.15648e-14 9.72803e-15 0)
(1.03151e-14 9.13116e-15 0)
(7.95053e-15 9.21421e-15 0)
(6.2347e-15 8.9951e-15 0)
(5.49615e-15 7.80032e-15 0)
(4.75976e-15 6.65903e-15 0)
(3.39884e-15 5.78846e-15 0)
(1.73845e-15 4.84975e-15 0)
(3.25312e-16 4.4085e-15 0)
(-1.45952e-15 3.62615e-15 0)
(-3.52647e-15 2.52934e-15 0)
(-5.12011e-15 1.48273e-15 0)
(-5.80363e-15 5.62648e-16 0)
(-6.23267e-15 -3.74502e-16 0)
(-7.28862e-15 -7.40648e-16 0)
(-9.00161e-15 -1.10685e-15 0)
(-1.09581e-14 -1.24489e-15 0)
(-1.21548e-14 -1.51302e-15 0)
(-1.30055e-14 -1.92534e-15 0)
(-1.36671e-14 -2.10532e-15 0)
(-1.4108e-14 -1.84763e-15 0)
(-1.48802e-14 -1.77473e-15 0)
(-1.57596e-14 -2.08933e-15 0)
(-1.62642e-14 -1.36789e-15 0)
(-1.58767e-14 -1.27882e-15 0)
(-1.50291e-14 -1.12437e-15 0)
(-1.34353e-14 -1.00289e-15 0)
(-1.0454e-14 -7.78002e-16 0)
(-6.9319e-15 -6.66332e-16 0)
(-2.49433e-15 -3.46777e-16 0)
(-1.61423e-15 -3.53408e-16 0)
(-5.75668e-15 -9.24567e-16 0)
(-9.62288e-15 -1.32549e-15 0)
(-1.21095e-14 -1.04915e-15 0)
(-1.46839e-14 -9.9041e-16 0)
(-1.80453e-14 -7.95316e-16 0)
(-2.25471e-14 -1.07559e-15 0)
(-2.6904e-14 -6.19743e-16 0)
(-2.9813e-14 -1.96305e-16 0)
(-3.1737e-14 4.01483e-16 0)
(-3.25221e-14 8.71618e-16 0)
(-3.31819e-14 1.18595e-15 0)
(-3.50176e-14 2.72257e-15 0)
(-3.68428e-14 3.57374e-15 0)
(-3.81786e-14 4.12331e-15 0)
(-3.986e-14 5.32804e-15 0)
(-4.20093e-14 6.43742e-15 0)
(-4.48395e-14 7.19139e-15 0)
(-4.6854e-14 6.95056e-15 0)
(-4.64308e-14 5.54954e-15 0)
(-4.4889e-14 5.10112e-15 0)
(-4.43202e-14 5.31628e-15 0)
(-4.35581e-14 6.06584e-15 0)
(-4.1279e-14 6.70011e-15 0)
(-3.86323e-14 6.66345e-15 0)
(-3.58115e-14 6.4121e-15 0)
(-3.35401e-14 5.83368e-15 0)
(-3.19557e-14 5.92046e-15 0)
(-2.96412e-14 5.85236e-15 0)
(-2.65087e-14 5.84027e-15 0)
(-2.37561e-14 5.50454e-15 0)
(-2.18593e-14 5.06399e-15 0)
(-1.9742e-14 4.72715e-15 0)
(-1.73296e-14 3.80974e-15 0)
(-1.64468e-14 3.35027e-15 0)
(-1.65048e-14 2.75995e-15 0)
(-1.67098e-14 2.5883e-15 0)
(-1.64764e-14 2.35049e-15 0)
(-1.44811e-14 2.60808e-15 0)
(-1.13697e-14 2.25542e-15 0)
(-8.86889e-15 2.04647e-15 0)
(-6.98835e-15 2.08747e-15 0)
(-4.41973e-15 3.29178e-15 0)
(-2.2493e-15 4.31722e-15 0)
(-1.50227e-15 5.34928e-15 0)
(-7.32169e-16 6.14142e-15 0)
(1.3334e-15 6.31985e-15 0)
(4.19377e-15 6.01393e-15 0)
(6.83516e-15 6.93142e-15 0)
(8.91774e-15 7.72788e-15 0)
(9.97794e-15 7.7546e-15 0)
(1.03435e-14 7.76408e-15 0)
(1.07026e-14 7.91128e-15 0)
(1.12799e-14 8.4126e-15 0)
(1.20195e-14 8.66512e-15 0)
(1.33008e-14 8.396e-15 0)
(1.57388e-14 8.22769e-15 0)
(1.81192e-14 7.79066e-15 0)
(1.95078e-14 6.91184e-15 0)
(2.01729e-14 6.27346e-15 0)
(1.96781e-14 6.40676e-15 0)
(1.88567e-14 5.70599e-15 0)
(1.86205e-14 5.03518e-15 0)
(1.87211e-14 4.27041e-15 0)
(1.90067e-14 4.89186e-15 0)
(1.8874e-14 6.69432e-15 0)
(1.79345e-14 8.30726e-15 0)
(1.60649e-14 9.63218e-15 0)
(1.43549e-14 1.08828e-14 0)
(1.36991e-14 1.15461e-14 0)
(1.31528e-14 1.1523e-14 0)
(1.18641e-14 1.10792e-14 0)
(9.57563e-15 1.1063e-14 0)
(7.23968e-15 1.07249e-14 0)
(5.94504e-15 9.40155e-15 0)
(4.9214e-15 8.32822e-15 0)
(3.35983e-15 7.17572e-15 0)
(1.63241e-15 6.16678e-15 0)
(-5.6695e-17 5.33251e-15 0)
(-2.25066e-15 3.97594e-15 0)
(-4.58692e-15 2.82833e-15 0)
(-6.34643e-15 1.80683e-15 0)
(-7.27041e-15 9.44046e-16 0)
(-7.72768e-15 1.50817e-16 0)
(-8.79138e-15 -2.98763e-16 0)
(-1.07349e-14 -1.22396e-15 0)
(-1.29804e-14 -1.53294e-15 0)
(-1.45428e-14 -1.88068e-15 0)
(-1.53573e-14 -2.47756e-15 0)
(-1.58201e-14 -2.35937e-15 0)
(-1.64285e-14 -2.13078e-15 0)
(-1.75757e-14 -2.53644e-15 0)
(-1.82972e-14 -2.63727e-15 0)
(-1.8548e-14 -2.24855e-15 0)
(-1.81751e-14 -2.11031e-15 0)
(-1.70805e-14 -1.95347e-15 0)
(-1.52666e-14 -1.48362e-15 0)
(-1.19749e-14 -1.27816e-15 0)
(-7.7637e-15 -9.23287e-16 0)
(-2.67861e-15 -1.32831e-16 0)
(-2.05965e-15 -3.94338e-16 0)
(-6.71764e-15 -1.32992e-15 0)
(-1.06743e-14 -1.58855e-15 0)
(-1.35444e-14 -1.30218e-15 0)
(-1.66776e-14 -1.21875e-15 0)
(-2.08386e-14 -1.14408e-15 0)
(-2.57472e-14 -1.37944e-15 0)
(-3.01615e-14 -7.16609e-16 0)
(-3.34698e-14 -2.05611e-16 0)
(-3.57272e-14 3.74683e-16 0)
(-3.69914e-14 1.02834e-15 0)
(-3.7675e-14 1.37072e-15 0)
(-3.94618e-14 2.22976e-15 0)
(-4.16479e-14 3.40603e-15 0)
(-4.30132e-14 4.77068e-15 0)
(-4.47777e-14 5.83702e-15 0)
(-4.73511e-14 6.8306e-15 0)
(-5.07784e-14 7.53655e-15 0)
(-5.35359e-14 7.45126e-15 0)
(-5.31061e-14 7.33341e-15 0)
(-5.10442e-14 7.767e-15 0)
(-4.99957e-14 7.82452e-15 0)
(-4.88467e-14 8.16945e-15 0)
(-4.67268e-14 8.29834e-15 0)
(-4.42727e-14 8.09934e-15 0)
(-4.12382e-14 7.7493e-15 0)
(-3.8515e-14 7.38136e-15 0)
(-3.65935e-14 7.2416e-15 0)
(-3.40302e-14 6.87425e-15 0)
(-3.05762e-14 6.87449e-15 0)
(-2.75813e-14 6.73789e-15 0)
(-2.54105e-14 6.56767e-15 0)
(-2.32795e-14 6.18122e-15 0)
(-2.08837e-14 5.16184e-15 0)
(-1.94012e-14 3.74919e-15 0)
(-1.90011e-14 3.36767e-15 0)
(-1.90705e-14 2.81407e-15 0)
(-1.85632e-14 2.68134e-15 0)
(-1.65381e-14 2.62799e-15 0)
(-1.3353e-14 2.59823e-15 0)
(-1.02998e-14 2.27366e-15 0)
(-7.38126e-15 2.59289e-15 0)
(-4.3274e-15 3.98985e-15 0)
(-2.12018e-15 4.79727e-15 0)
(-1.08701e-15 5.75903e-15 0)
(-4.87862e-16 6.73703e-15 0)
(1.38961e-15 7.27665e-15 0)
(4.97759e-15 7.50572e-15 0)
(8.22611e-15 8.5149e-15 0)
(1.0054e-14 9.03179e-15 0)
(1.10916e-14 8.99998e-15 0)
(1.17799e-14 9.12632e-15 0)
(1.26088e-14 9.49638e-15 0)
(1.322e-14 1.03206e-14 0)
(1.37232e-14 1.00149e-14 0)
(1.51509e-14 9.65277e-15 0)
(1.77139e-14 9.75642e-15 0)
(2.01311e-14 9.32225e-15 0)
(2.16205e-14 8.56736e-15 0)
(2.26268e-14 7.77563e-15 0)
(2.21415e-14 7.34378e-15 0)
(2.08545e-14 6.87848e-15 0)
(2.04457e-14 6.37769e-15 0)
(2.10856e-14 6.07577e-15 0)
(2.22093e-14 6.64083e-15 0)
(2.22292e-14 7.62758e-15 0)
(2.10305e-14 8.6778e-15 0)
(1.9181e-14 9.83659e-15 0)
(1.72296e-14 1.12902e-14 0)
(1.59034e-14 1.2214e-14 0)
(1.49257e-14 1.24909e-14 0)
(1.34192e-14 1.2613e-14 0)
(1.08358e-14 1.22313e-14 0)
(7.82777e-15 1.16537e-14 0)
(6.17355e-15 1.04367e-14 0)
(5.13701e-15 9.36937e-15 0)
(3.34913e-15 8.6427e-15 0)
(1.41374e-15 7.71009e-15 0)
(-7.75355e-16 6.81726e-15 0)
(-3.30295e-15 5.05356e-15 0)
(-5.62024e-15 3.72036e-15 0)
(-7.48816e-15 2.49725e-15 0)
(-8.47451e-15 1.27367e-15 0)
(-9.05768e-15 5.88576e-16 0)
(-1.06746e-14 -2.23451e-16 0)
(-1.27646e-14 -1.44866e-15 0)
(-1.47615e-14 -1.92262e-15 0)
(-1.65782e-14 -2.03368e-15 0)
(-1.74315e-14 -2.40551e-15 0)
(-1.77806e-14 -2.39748e-15 0)
(-1.88471e-14 -2.61821e-15 0)
(-2.00347e-14 -3.14689e-15 0)
(-2.04175e-14 -2.96583e-15 0)
(-2.0712e-14 -2.72398e-15 0)
(-2.03023e-14 -2.69175e-15 0)
(-1.88427e-14 -2.50872e-15 0)
(-1.66675e-14 -1.93814e-15 0)
(-1.30666e-14 -1.63028e-15 0)
(-8.28883e-15 -9.85037e-16 0)
(-2.99908e-15 -1.07942e-16 0)
(-2.38618e-15 -4.43054e-16 0)
(-7.40803e-15 -1.26872e-15 0)
(-1.15436e-14 -1.6161e-15 0)
(-1.48828e-14 -1.92312e-15 0)
(-1.86849e-14 -1.7115e-15 0)
(-2.33258e-14 -1.70436e-15 0)
(-2.83894e-14 -1.26099e-15 0)
(-3.31001e-14 -8.50049e-16 0)
(-3.68485e-14 -2.399e-16 0)
(-3.93256e-14 4.06504e-16 0)
(-4.08581e-14 1.1452e-15 0)
(-4.18911e-14 1.68019e-15 0)
(-4.36039e-14 2.15392e-15 0)
(-4.55097e-14 3.72812e-15 0)
(-4.73294e-14 5.41807e-15 0)
(-4.96221e-14 6.44972e-15 0)
(-5.22977e-14 7.2698e-15 0)
(-5.61006e-14 7.88681e-15 0)
(-5.88157e-14 8.66279e-15 0)
(-5.8014e-14 9.43828e-15 0)
(-5.62465e-14 1.023e-14 0)
(-5.55425e-14 9.83118e-15 0)
(-5.44299e-14 9.88113e-15 0)
(-5.2167e-14 1.01285e-14 0)
(-4.94153e-14 9.82117e-15 0)
(-4.62043e-14 9.33077e-15 0)
(-4.32256e-14 8.77421e-15 0)
(-4.10627e-14 8.49408e-15 0)
(-3.80485e-14 8.45604e-15 0)
(-3.41388e-14 8.43875e-15 0)
(-3.09079e-14 8.28312e-15 0)
(-2.86155e-14 8.13461e-15 0)
(-2.65902e-14 7.43032e-15 0)
(-2.44655e-14 6.30555e-15 0)
(-2.2718e-14 4.77357e-15 0)
(-2.18052e-14 3.76806e-15 0)
(-2.15082e-14 3.03456e-15 0)
(-2.05591e-14 3.06405e-15 0)
(-1.80808e-14 2.8098e-15 0)
(-1.47112e-14 3.09923e-15 0)
(-1.14798e-14 3.03059e-15 0)
(-7.86841e-15 3.62674e-15 0)
(-4.48344e-15 4.45794e-15 0)
(-2.16434e-15 4.95646e-15 0)
(-7.97714e-16 5.55469e-15 0)
(1.77646e-16 6.93035e-15 0)
(2.21176e-15 8.64511e-15 0)
(5.92271e-15 9.48582e-15 0)
(9.25651e-15 9.81981e-15 0)
(1.10195e-14 1.00566e-14 0)
(1.2193e-14 1.02076e-14 0)
(1.32136e-14 1.06806e-14 0)
(1.44264e-14 1.08938e-14 0)
(1.48553e-14 1.14309e-14 0)
(1.50932e-14 1.14614e-14 0)
(1.70577e-14 1.11741e-14 0)
(1.9806e-14 1.13901e-14 0)
(2.18623e-14 1.10605e-14 0)
(2.32112e-14 1.02272e-14 0)
(2.42416e-14 9.27111e-15 0)
(2.40185e-14 8.21117e-15 0)
(2.3089e-14 7.68044e-15 0)
(2.28453e-14 7.80859e-15 0)
(2.35646e-14 8.09429e-15 0)
(2.4627e-14 8.41367e-15 0)
(2.46876e-14 8.40835e-15 0)
(2.37154e-14 8.92666e-15 0)
(2.19788e-14 9.87028e-15 0)
(1.99203e-14 1.10385e-14 0)
(1.82055e-14 1.22455e-14 0)
(1.68523e-14 1.29768e-14 0)
(1.48329e-14 1.33365e-14 0)
(1.17525e-14 1.30771e-14 0)
(8.49204e-15 1.23932e-14 0)
(6.48956e-15 1.14816e-14 0)
(5.43863e-15 1.03966e-14 0)
(3.55108e-15 9.8668e-15 0)
(1.24937e-15 9.21439e-15 0)
(-1.51517e-15 8.37383e-15 0)
(-4.49634e-15 6.56322e-15 0)
(-6.89057e-15 5.12347e-15 0)
(-9.01564e-15 3.41458e-15 0)
(-9.98047e-15 1.96962e-15 0)
(-1.0563e-14 1.06637e-15 0)
(-1.245e-14 2.0994e-17 0)
(-1.45698e-14 -1.09625e-15 0)
(-1.64016e-14 -1.9797e-15 0)
(-1.82526e-14 -2.32532e-15 0)
(-1.92922e-14 -2.38254e-15 0)
(-1.99059e-14 -2.63721e-15 0)
(-2.11149e-14 -3.22744e-15 0)
(-2.21055e-14 -3.3536e-15 0)
(-2.23158e-14 -3.30856e-15 0)
(-2.26243e-14 -3.07992e-15 0)
(-2.21139e-14 -2.81076e-15 0)
(-2.03037e-14 -2.50648e-15 0)
(-1.79439e-14 -2.11136e-15 0)
(-1.40304e-14 -2.12041e-15 0)
(-8.7529e-15 -1.57868e-15 0)
(-3.2471e-15 -6.69278e-16 0)
(-2.66826e-15 -4.17427e-16 0)
(-8.17308e-15 -1.27503e-15 0)
(-1.28813e-14 -1.5216e-15 0)
(-1.6394e-14 -1.74526e-15 0)
(-2.02941e-14 -1.9131e-15 0)
(-2.52346e-14 -2.01744e-15 0)
(-3.07375e-14 -1.46862e-15 0)
(-3.58407e-14 -1.01862e-15 0)
(-3.96913e-14 -1.10076e-16 0)
(-4.24757e-14 6.09713e-16 0)
(-4.43682e-14 1.35294e-15 0)
(-4.57394e-14 1.83898e-15 0)
(-4.72119e-14 2.78548e-15 0)
(-4.89102e-14 4.67968e-15 0)
(-5.10307e-14 6.31904e-15 0)
(-5.37316e-14 7.3439e-15 0)
(-5.6838e-14 8.08719e-15 0)
(-6.04524e-14 8.34564e-15 0)
(-6.31703e-14 9.939e-15 0)
(-6.27235e-14 1.13962e-14 0)
(-6.14327e-14 1.18363e-14 0)
(-6.07491e-14 1.09966e-14 0)
(-5.88608e-14 1.09285e-14 0)
(-5.66647e-14 1.12262e-14 0)
(-5.435e-14 1.134e-14 0)
(-5.10446e-14 1.10907e-14 0)
(-4.76759e-14 1.05358e-14 0)
(-4.48569e-14 1.04804e-14 0)
(-4.15672e-14 1.0645e-14 0)
(-3.76594e-14 1.04777e-14 0)
(-3.42258e-14 9.8407e-15 0)
(-3.19438e-14 9.34386e-15 0)
(-3.00523e-14 8.21166e-15 0)
(-2.78342e-14 6.68164e-15 0)
(-2.58829e-14 5.48142e-15 0)
(-2.45527e-14 4.25196e-15 0)
(-2.35323e-14 3.63403e-15 0)
(-2.23288e-14 3.60893e-15 0)
(-1.9735e-14 3.54568e-15 0)
(-1.60047e-14 3.44831e-15 0)
(-1.2302e-14 3.35354e-15 0)
(-8.29638e-15 3.70528e-15 0)
(-4.88829e-15 4.59483e-15 0)
(-2.41779e-15 5.3724e-15 0)
(-2.90311e-16 6.21889e-15 0)
(1.59107e-15 7.64294e-15 0)
(3.53776e-15 9.54831e-15 0)
(6.56251e-15 1.07538e-14 0)
(9.79937e-15 1.08326e-14 0)
(1.18978e-14 1.09129e-14 0)
(1.34817e-14 1.11695e-14 0)
(1.45594e-14 1.1944e-14 0)
(1.57628e-14 1.20489e-14 0)
(1.65651e-14 1.21209e-14 0)
(1.67927e-14 1.271e-14 0)
(1.86846e-14 1.28438e-14 0)
(2.15218e-14 1.27084e-14 0)
(2.34263e-14 1.20097e-14 0)
(2.46478e-14 1.12619e-14 0)
(2.56045e-14 1.07475e-14 0)
(2.54718e-14 9.85643e-15 0)
(2.50271e-14 9.3614e-15 0)
(2.51307e-14 9.43781e-15 0)
(2.57879e-14 9.68946e-15 0)
(2.65593e-14 9.57934e-15 0)
(2.65827e-14 9.14694e-15 0)
(2.59356e-14 8.99331e-15 0)
(2.44106e-14 9.38214e-15 0)
(2.24871e-14 1.05523e-14 0)
(2.06567e-14 1.21148e-14 0)
(1.88516e-14 1.33016e-14 0)
(1.63869e-14 1.39018e-14 0)
(1.27788e-14 1.38506e-14 0)
(9.00413e-15 1.30807e-14 0)
(6.73603e-15 1.20626e-14 0)
(5.62868e-15 1.08773e-14 0)
(3.77774e-15 1.02992e-14 0)
(1.21052e-15 9.93192e-15 0)
(-2.24564e-15 9.36408e-15 0)
(-5.63205e-15 7.92336e-15 0)
(-8.28948e-15 6.4552e-15 0)
(-1.05701e-14 4.46448e-15 0)
(-1.13656e-14 3.02604e-15 0)
(-1.20492e-14 1.89907e-15 0)
(-1.42115e-14 4.84515e-16 0)
(-1.65615e-14 -8.04754e-16 0)
(-1.83495e-14 -1.81806e-15 0)
(-1.98824e-14 -2.30321e-15 0)
(-2.09491e-14 -2.58204e-15 0)
(-2.19223e-14 -3.02826e-15 0)
(-2.3072e-14 -3.4179e-15 0)
(-2.39058e-14 -3.59753e-15 0)
(-2.40637e-14 -3.38976e-15 0)
(-2.41361e-14 -3.24481e-15 0)
(-2.35073e-14 -2.77571e-15 0)
(-2.16814e-14 -2.6738e-15 0)
(-1.93622e-14 -2.59031e-15 0)
(-1.52066e-14 -2.42867e-15 0)
(-9.2878e-15 -1.88544e-15 0)
(-3.02572e-15 -8.039e-16 0)
(-2.96988e-15 -6.07871e-16 0)
(-8.69201e-15 -1.37281e-15 0)
(-1.34428e-14 -1.13204e-15 0)
(-1.77146e-14 -5.96259e-16 0)
(-2.23484e-14 -1.01926e-15 0)
(-2.73229e-14 -1.71296e-15 0)
(-3.27785e-14 -1.86084e-15 0)
(-3.79538e-14 -1.28093e-15 0)
(-4.21551e-14 -3.46738e-16 0)
(-4.53284e-14 8.48183e-16 0)
(-4.75417e-14 1.87614e-15 0)
(-4.88807e-14 2.68153e-15 0)
(-4.99675e-14 3.93476e-15 0)
(-5.1728e-14 5.73297e-15 0)
(-5.45019e-14 7.34991e-15 0)
(-5.7713e-14 7.83836e-15 0)
(-6.11502e-14 8.35851e-15 0)
(-6.44598e-14 9.1675e-15 0)
(-6.63552e-14 1.09657e-14 0)
(-6.63901e-14 1.29445e-14 0)
(-6.62242e-14 1.35024e-14 0)
(-6.57308e-14 1.29745e-14 0)
(-6.35468e-14 1.23804e-14 0)
(-6.08502e-14 1.18021e-14 0)
(-5.81447e-14 1.20381e-14 0)
(-5.50239e-14 1.21874e-14 0)
(-5.14672e-14 1.22693e-14 0)
(-4.8316e-14 1.23989e-14 0)
(-4.49097e-14 1.25987e-14 0)
(-4.11095e-14 1.248e-14 0)
(-3.7646e-14 1.12511e-14 0)
(-3.52594e-14 1.02658e-14 0)
(-3.3563e-14 8.88003e-15 0)
(-3.10926e-14 7.35569e-15 0)
(-2.87635e-14 6.06594e-15 0)
(-2.70889e-14 4.81753e-15 0)
(-2.55837e-14 4.11409e-15 0)
(-2.38969e-14 3.9959e-15 0)
(-2.11228e-14 4.24226e-15 0)
(-1.74076e-14 3.87479e-15 0)
(-1.34648e-14 3.83181e-15 0)
(-8.74319e-15 4.08923e-15 0)
(-4.65479e-15 5.17938e-15 0)
(-1.97023e-15 6.37055e-15 0)
(2.77855e-16 7.22104e-15 0)
(2.4444e-15 8.13009e-15 0)
(4.73005e-15 9.34352e-15 0)
(7.50167e-15 1.08724e-14 0)
(1.03963e-14 1.13529e-14 0)
(1.2657e-14 1.16276e-14 0)
(1.46838e-14 1.2038e-14 0)
(1.59139e-14 1.26394e-14 0)
(1.69165e-14 1.28904e-14 0)
(1.80004e-14 1.31138e-14 0)
(1.85782e-14 1.33024e-14 0)
(2.02941e-14 1.40947e-14 0)
(2.26908e-14 1.3911e-14 0)
(2.45177e-14 1.28207e-14 0)
(2.61697e-14 1.20715e-14 0)
(2.72017e-14 1.15931e-14 0)
(2.70376e-14 1.10324e-14 0)
(2.68067e-14 1.09391e-14 0)
(2.70521e-14 1.10495e-14 0)
(2.75417e-14 1.11565e-14 0)
(2.79894e-14 1.06466e-14 0)
(2.78955e-14 1.01506e-14 0)
(2.73963e-14 9.38557e-15 0)
(2.64925e-14 9.45986e-15 0)
(2.51436e-14 1.03942e-14 0)
(2.32714e-14 1.19389e-14 0)
(2.10214e-14 1.31545e-14 0)
(1.788e-14 1.39244e-14 0)
(1.35558e-14 1.37711e-14 0)
(9.32192e-15 1.31033e-14 0)
(6.72417e-15 1.20235e-14 0)
(5.67981e-15 1.08814e-14 0)
(4.0525e-15 1.05698e-14 0)
(1.39833e-15 1.05831e-14 0)
(-2.5271e-15 9.71517e-15 0)
(-6.54661e-15 8.61872e-15 0)
(-9.72117e-15 7.01336e-15 0)
(-1.21967e-14 5.52326e-15 0)
(-1.28931e-14 3.9882e-15 0)
(-1.38179e-14 2.34406e-15 0)
(-1.61758e-14 4.14041e-16 0)
(-1.834e-14 -9.75522e-16 0)
(-1.98996e-14 -1.51516e-15 0)
(-2.14991e-14 -1.76926e-15 0)
(-2.27603e-14 -2.6689e-15 0)
(-2.36614e-14 -3.23661e-15 0)
(-2.48291e-14 -3.38398e-15 0)
(-2.54755e-14 -3.39425e-15 0)
(-2.54721e-14 -3.16175e-15 0)
(-2.55327e-14 -3.1575e-15 0)
(-2.49099e-14 -2.72468e-15 0)
(-2.31504e-14 -2.64547e-15 0)
(-2.04368e-14 -2.87629e-15 0)
(-1.58293e-14 -2.49305e-15 0)
(-9.53874e-15 -1.85798e-15 0)
(-3.07647e-15 -5.73837e-16 0)
(-3.13606e-15 -4.07864e-16 0)
(-8.93767e-15 -8.12875e-16 0)
(-1.37403e-14 -5.09622e-16 0)
(-1.86577e-14 -2.14348e-17 0)
(-2.42967e-14 -1.74251e-16 0)
(-2.98069e-14 -9.44877e-16 0)
(-3.50864e-14 -1.31243e-15 0)
(-4.00449e-14 -1.01835e-15 0)
(-4.40294e-14 -3.76818e-16 0)
(-4.7267e-14 1.36663e-15 0)
(-4.99105e-14 3.06526e-15 0)
(-5.15303e-14 4.22339e-15 0)
(-5.26414e-14 4.93272e-15 0)
(-5.43962e-14 6.17821e-15 0)
(-5.77568e-14 7.53148e-15 0)
(-6.14899e-14 8.03261e-15 0)