/*--------------------------------*- C++ -*----------------------------------*\
| =========                 |                                                 |
| \\      /  F ield         | OpenFOAM: The Open Source CFD Toolbox           |
|  \\    /   O peration     | Version:  v2012                                 |
|   \\  /    A nd           | Website:  www.openfoam.com                      |
|    \\/     M anipulation  |                                                 |
\*---------------------------------------------------------------------------*/
FoamFile
{
    version     2.0;
    format      ascii;
    class       volScalarField;
    location    "5";
    object      Psi_z;
}
// * * * * * * * * * * * * * * * * * * * * * * * * * * * * * * * * * * * * * //

dimensions      [0 2 -1 0 0 0 0];


internalField   nonuniform List<scalar> 
65536
(
9.10432e-06
2.73126e-05
4.55197e-05
6.37249e-05
8.19273e-05
0.000100126
0.000118321
0.00013651
0.000154693
0.000172869
0.000191037
0.000209196
0.000227346
0.000245484
0.00026361
0.000281724
0.000299823
0.000317906
0.000335973
0.000354022
0.000372051
0.000390059
0.000408045
0.000426007
0.000443943
0.000461852
0.000479731
0.00049758
0.000515396
0.000533176
0.00055092
0.000568624
0.000586287
0.000603905
0.000621477
0.000639
0.000656472
0.000673889
0.000691249
0.000708549
0.000725785
0.000742955
0.000760056
0.000777084
0.000794036
0.000810908
0.000827697
0.000844399
0.00086101
0.000877527
0.000893946
0.000910262
0.000926471
0.00094257
0.000958554
0.000974418
0.000990159
0.00100577
0.00102125
0.0010366
0.0010518
0.00106685
0.00108176
0.0010965
0.00111109
0.00112551
0.00113976
0.00115384
0.00116773
0.00118145
0.00119497
0.00120829
0.00122142
0.00123434
0.00124706
0.00125956
0.00127184
0.0012839
0.00129573
0.00130733
0.00131869
0.00132981
0.00134069
0.00135132
0.00136169
0.0013718
0.00138166
0.00139125
0.00140056
0.00140961
0.00141838
0.00142687
0.00143508
0.00144301
0.00145064
0.00145799
0.00146504
0.0014718
0.00147826
0.00148442
0.00149028
0.00149583
0.00150108
0.00150603
0.00151067
0.001515
0.00151902
0.00152273
0.00152614
0.00152923
0.00153202
0.00153449
0.00153666
0.00153852
0.00154006
0.00154131
0.00154224
0.00154288
0.0015432
0.00154323
0.00154296
0.00154238
0.00154151
0.00154035
0.00153889
0.00153715
0.00153511
0.00153279
0.00153019
0.00152731
0.00152415
0.00152072
0.00151701
0.00151304
0.00150881
0.00150431
0.00149956
0.00149455
0.00148929
0.00148378
0.00147803
0.00147204
0.00146582
0.00145936
0.00145267
0.00144576
0.00143862
0.00143127
0.0014237
0.00141593
0.00140795
0.00139976
0.00139138
0.0013828
0.00137403
0.00136508
0.00135594
0.00134662
0.00133712
0.00132746
0.00131762
0.00130762
0.00129746
0.00128714
0.00127667
0.00126605
0.00125527
0.00124436
0.00123331
0.00122211
0.00121079
0.00119933
0.00118775
0.00117604
0.00116422
0.00115227
0.00114021
0.00112804
0.00111576
0.00110338
0.00109089
0.00107831
0.00106562
0.00105284
0.00103997
0.00102701
0.00101396
0.00100083
0.00098762
0.000974328
0.00096096
0.000947517
0.000934003
0.000920418
0.000906766
0.000893048
0.000879267
0.000865424
0.000851522
0.000837563
0.000823548
0.00080948
0.00079536
0.00078119
0.000766972
0.000752708
0.000738399
0.000724047
0.000709653
0.000695219
0.000680747
0.000666237
0.000651693
0.000637113
0.000622502
0.000607858
0.000593185
0.000578482
0.000563752
0.000548995
0.000534212
0.000519405
0.000504575
0.000489723
0.000474849
0.000459955
0.000445042
0.000430111
0.000415162
0.000400196
0.000385215
0.000370219
0.000355208
0.000340184
0.000325148
0.0003101
0.00029504
0.00027997
0.00026489
0.000249801
0.000234703
0.000219597
0.000204483
0.000189363
0.000174237
0.000159105
0.000143967
0.000128825
0.000113679
9.85291e-05
8.33761e-05
6.82204e-05
5.30626e-05
3.7903e-05
2.27423e-05
7.58084e-06
2.73133e-05
8.19389e-05
0.000136561
0.000191177
0.000245785
0.000300383
0.000354967
0.000409536
0.000464086
0.000518615
0.00057312
0.000627599
0.000682048
0.000736464
0.000790844
0.000845185
0.000899483
0.000953735
0.00100794
0.00106208
0.00111617
0.0011702
0.00122416
0.00127805
0.00133186
0.00138558
0.00143922
0.00149277
0.00154622
0.00159957
0.0016528
0.00170591
0.0017589
0.00181176
0.00186448
0.00191705
0.00196947
0.00202172
0.00207381
0.00212571
0.00217742
0.00222894
0.00228024
0.00233133
0.00238219
0.00243281
0.00248318
0.00253329
0.00258313
0.00263268
0.00268194
0.00273089
0.00277952
0.00282782
0.00287578
0.00292338
0.00297061
0.00301745
0.00306389
0.00310993
0.00315554
0.00320071
0.00324542
0.00328967
0.00333343
0.0033767
0.00341946
0.0034617
0.00350339
0.00354453
0.0035851
0.00362508
0.00366447
0.00370324
0.00374139
0.0037789
0.00381575
0.00385193
0.00388742
0.00392223
0.00395632
0.00398969
0.00402232
0.0040542
0.00408532
0.00411567
0.00414524
0.004174
0.00420196
0.00422911
0.00425542
0.0042809
0.00430553
0.00432931
0.00435222
0.00437426
0.00439542
0.00441569
0.00443507
0.00445355
0.00447113
0.0044878
0.00450355
0.00451839
0.00453231
0.0045453
0.00455737
0.00456851
0.00457872
0.004588
0.00459636
0.00460378
0.00461028
0.00461585
0.0046205
0.00462423
0.00462704
0.00462893
0.00462991
0.00462999
0.00462917
0.00462745
0.00462484
0.00462134
0.00461697
0.00461173
0.00460562
0.00459866
0.00459085
0.0045822
0.00457272
0.00456242
0.00455131
0.00453939
0.00452668
0.00451319
0.00449893
0.0044839
0.00446812
0.00445159
0.00443434
0.00441637
0.00439768
0.0043783
0.00435823
0.00433749
0.00431608
0.00429402
0.00427132
0.00424799
0.00422404
0.00419948
0.00417433
0.00414859
0.00412228
0.00409541
0.00406799
0.00404003
0.00401155
0.00398254
0.00395303
0.00392303
0.00389254
0.00386158
0.00383016
0.00379828
0.00376597
0.00373322
0.00370005
0.00366648
0.0036325
0.00359813
0.00356338
0.00352826
0.00349277
0.00345694
0.00342076
0.00338424
0.0033474
0.00331024
0.00327278
0.00323501
0.00319696
0.00315862
0.00312
0.00308112
0.00304197
0.00300258
0.00296294
0.00292306
0.00288296
0.00284263
0.00280208
0.00276132
0.00272036
0.00267921
0.00263786
0.00259633
0.00255463
0.00251275
0.0024707
0.00242849
0.00238613
0.00234362
0.00230096
0.00225817
0.00221524
0.00217218
0.002129
0.0020857
0.00204228
0.00199875
0.00195511
0.00191137
0.00186754
0.00182361
0.00177958
0.00173547
0.00169128
0.00164701
0.00160266
0.00155824
0.00151375
0.00146919
0.00142457
0.00137989
0.00133515
0.00129035
0.0012455
0.00120061
0.00115566
0.00111067
0.00106564
0.00102057
0.000975456
0.000930311
0.000885131
0.00083992
0.000794679
0.000749411
0.000704116
0.000658798
0.000613457
0.000568096
0.000522716
0.000477319
0.000431907
0.00038648
0.000341041
0.000295591
0.000250131
0.000204663
0.000159189
0.00011371
6.82276e-05
2.27428e-05
4.55235e-05
0.000136569
0.000227608
0.000318638
0.000409654
0.000500653
0.00059163
0.00068258
0.0007735
0.000864385
0.000955231
0.00104603
0.00113678
0.00122748
0.00131812
0.00140869
0.00149919
0.00158962
0.00167996
0.00177021
0.00186036
0.00195041
0.00204034
0.00213016
0.00221985
0.00230941
0.00239881
0.00248807
0.00257715
0.00266607
0.0027548
0.00284333
0.00293165
0.00301976
0.00310763
0.00319526
0.00328263
0.00336973
0.00345655
0.00354306
0.00362926
0.00371513
0.00380065
0.0038858
0.00397058
0.00405496
0.00413892
0.00422245
0.00430553
0.00438813
0.00447024
0.00455184
0.00463291
0.00471343
0.00479337
0.00487271
0.00495144
0.00502953
0.00510695
0.00518369
0.00525972
0.00533502
0.00540956
0.00548332
0.00555628
0.00562841
0.00569969
0.0057701
0.0058396
0.00590818
0.00597581
0.00604247
0.00610813
0.00617277
0.00623637
0.00629889
0.00636032
0.00642064
0.00647982
0.00653784
0.00659467
0.0066503
0.0067047
0.00675785
0.00680973
0.00686033
0.00690961
0.00695757
0.00700419
0.00704944
0.00709331
0.00713578
0.00717684
0.00721648
0.00725467
0.00729141
0.00732669
0.00736048
0.00739279
0.0074236
0.0074529
0.00748068
0.00750695
0.00753168
0.00755488
0.00757653
0.00759665
0.00761522
0.00763224
0.00764771
0.00766163
0.00767401
0.00768484
0.00769412
0.00770186
0.00770807
0.00771275
0.0077159
0.00771754
0.00771766
0.00771628
0.0077134
0.00770905
0.00770321
0.00769592
0.00768717
0.00767699
0.00766538
0.00765235
0.00763793
0.00762212
0.00760494
0.00758641
0.00756654
0.00754535
0.00752285
0.00749906
0.00747401
0.00744769
0.00742014
0.00739137
0.0073614
0.00733025
0.00729794
0.00726448
0.0072299
0.0071942
0.00715742
0.00711957
0.00708068
0.00704075
0.0069998
0.00695787
0.00691496
0.0068711
0.0068263
0.00678059
0.00673398
0.00668649
0.00663814
0.00658894
0.00653892
0.0064881
0.00643649
0.0063841
0.00633097
0.0062771
0.00622251
0.00616722
0.00611124
0.0060546
0.00599731
0.00593938
0.00588084
0.00582169
0.00576195
0.00570164
0.00564077
0.00557936
0.00551742
0.00545497
0.00539202
0.00532858
0.00526467
0.0052003
0.00513549
0.00507024
0.00500458
0.0049385
0.00487203
0.00480518
0.00473795
0.00467037
0.00460243
0.00453416
0.00446556
0.00439665
0.00432742
0.0042579
0.0041881
0.00411801
0.00404766
0.00397706
0.0039062
0.0038351
0.00376377
0.00369222
0.00362045
0.00354847
0.00347629
0.00340392
0.00333137
0.00325864
0.00318574
0.00311267
0.00303945
0.00296607
0.00289255
0.0028189
0.0027451
0.00267119
0.00259715
0.00252299
0.00244872
0.00237435
0.00229988
0.00222531
0.00215064
0.0020759
0.00200106
0.00192615
0.00185117
0.00177611
0.00170099
0.0016258
0.00155056
0.00147525
0.0013999
0.0013245
0.00124905
0.00117356
0.00109802
0.00102245
0.000946849
0.000871214
0.00079555
0.000719861
0.000644148
0.000568414
0.000492662
0.000416894
0.000341113
0.000265321
0.000189521
0.000113715
3.79055e-05
6.37358e-05
0.000191205
0.000318666
0.000446113
0.000573542
0.000700946
0.000828319
0.000955656
0.00108295
0.0012102
0.00133739
0.00146451
0.00159157
0.00171856
0.00184546
0.00197227
0.00209898
0.00222558
0.00235207
0.00247843
0.00260465
0.00273073
0.00285665
0.00298241
0.00310799
0.00323337
0.00335856
0.00348353
0.00360826
0.00373276
0.00385699
0.00398096
0.00410463
0.00422799
0.00435103
0.00447373
0.00459607
0.00471803
0.00483959
0.00496073
0.00508143
0.00520167
0.00532142
0.00544066
0.00555937
0.00567753
0.0057951
0.00591207
0.0060284
0.00614408
0.00625906
0.00637333
0.00648686
0.00659961
0.00671155
0.00682267
0.00693292
0.00704227
0.0071507
0.00725816
0.00736464
0.00747009
0.00757448
0.00767778
0.00777996
0.00788098
0.0079808
0.0080794
0.00817674
0.00827279
0.00836751
0.00846086
0.00855282
0.00864335
0.00873242
0.00881999
0.00890602
0.0089905
0.00907338
0.00915464
0.00923424
0.00931214
0.00938834
0.00946278
0.00953544
0.0096063
0.00967533
0.0097425
0.00980778
0.00987115
0.00993259
0.00999208
0.0100496
0.0101051
0.0101586
0.01021
0.0102594
0.0103068
0.010352
0.0103952
0.0104362
0.0104751
0.0105119
0.0105465
0.010579
0.0106093
0.0106375
0.0106635
0.0106873
0.010709
0.0107285
0.0107458
0.0107609
0.0107739
0.0107848
0.0107935
0.0108
0.0108044
0.0108067
0.0108068
0.0108049
0.0108009
0.0107947
0.0107866
0.0107763
0.0107641
0.0107498
0.0107335
0.0107153
0.0106951
0.0106729
0.0106488
0.0106229
0.010595
0.0105653
0.0105338
0.0105005
0.0104654
0.0104285
0.0103899
0.0103496
0.0103076
0.010264
0.0102187
0.0101719
0.0101234
0.0100734
0.0100219
0.00996889
0.0099144
0.00985847
0.00980113
0.00974239
0.0096823
0.00962086
0.00955812
0.0094941
0.00942881
0.0093623
0.00929458
0.00922568
0.00915563
0.00908445
0.00901217
0.00893881
0.0088644
0.00878895
0.0087125
0.00863507
0.00855669
0.00847737
0.00839713
0.00831601
0.00823402
0.00815119
0.00806754
0.00798308
0.00789785
0.00781185
0.00772512
0.00763767
0.00754952
0.00746068
0.00737119
0.00728106
0.0071903
0.00709894
0.00700699
0.00691447
0.00682139
0.00672778
0.00663365
0.00653901
0.00644389
0.00634829
0.00625224
0.00615574
0.00605882
0.00596147
0.00586373
0.0057656
0.0056671
0.00556823
0.00546902
0.00536947
0.0052696
0.00516941
0.00506892
0.00496814
0.00486709
0.00476576
0.00466417
0.00456234
0.00446027
0.00435797
0.00425544
0.00415271
0.00404977
0.00394665
0.00384333
0.00373984
0.00363617
0.00353235
0.00342837
0.00332424
0.00321997
0.00311556
0.00301103
0.00290637
0.0028016
0.00269672
0.00259174
0.00248665
0.00238147
0.00227621
0.00217086
0.00206543
0.00195993
0.00185436
0.00174873
0.00164304
0.00153729
0.00143148
0.00132563
0.00121974
0.00111381
0.00100784
0.000901837
0.000795806
0.000689749
0.000583671
0.000477574
0.000371462
0.000265339
0.000159206
5.30694e-05
8.19508e-05
0.000245849
0.000409737
0.000573608
0.000737455
0.00090127
0.00106505
0.00122878
0.00139245
0.00155606
0.00171961
0.00188307
0.00204644
0.00220972
0.00237289
0.00253595
0.00269887
0.00286166
0.00302431
0.00318678
0.00334909
0.00351121
0.00367313
0.00383484
0.00399632
0.00415755
0.00431852
0.00447922
0.00463962
0.00479971
0.00495947
0.00511888
0.00527791
0.00543655
0.00559478
0.00575257
0.00590989
0.00606673
0.00622306
0.00637885
0.00653407
0.0066887
0.0068427
0.00699606
0.00714873
0.00730069
0.0074519
0.00760233
0.00775195
0.00790072
0.0080486
0.00819557
0.00834158
0.0084866
0.00863058
0.0087735
0.0089153
0.00905595
0.00919541
0.00933364
0.00947059
0.00960622
0.0097405
0.00987337
0.0100048
0.0101347
0.0102631
0.01039
0.0105152
0.0106387
0.0107606
0.0108807
0.010999
0.0111154
0.01123
0.0113426
0.0114533
0.011562
0.0116686
0.0117731
0.0118755
0.0119757
0.0120737
0.0121695
0.012263
0.0123541
0.0124429
0.0125293
0.0126133
0.0126948
0.0127738
0.0128504
0.0129243
0.0129957
0.0130646
0.0131307
0.0131943
0.0132552
0.0133134
0.0133688
0.0134216
0.0134717
0.013519
0.0135635
0.0136053
0.0136443
0.0136805
0.0137139
0.0137446
0.0137724
0.0137975
0.0138197
0.0138392
0.0138559
0.0138698
0.013881
0.0138894
0.013895
0.0138979
0.0138981
0.0138956
0.0138904
0.0138825
0.013872
0.0138588
0.013843
0.0138246
0.0138036
0.0137801
0.0137541
0.0137256
0.0136946
0.0136612
0.0136254
0.0135872
0.0135466
0.0135037
0.0134585
0.0134111
0.0133614
0.0133095
0.0132555
0.0131994
0.0131411
0.0130808
0.0130185
0.0129542
0.0128879
0.0128197
0.0127496
0.0126776
0.0126039
0.0125283
0.012451
0.0123719
0.0122912
0.0122089
0.0121249
0.0120393
0.0119522
0.0118636
0.0117735
0.0116819
0.0115889
0.0114946
0.0113989
0.0113018
0.0112035
0.0111039
0.0110031
0.0109011
0.0107979
0.0106935
0.0105881
0.0104815
0.0103739
0.0102653
0.0101557
0.0100451
0.00993355
0.00982107
0.0097077
0.00959346
0.00947836
0.00936245
0.00924573
0.00912823
0.00900998
0.00889099
0.0087713
0.00865091
0.00852986
0.00840816
0.00828583
0.00816289
0.00803937
0.00791527
0.00779063
0.00766545
0.00753976
0.00741357
0.0072869
0.00715977
0.00703219
0.00690418
0.00677574
0.00664691
0.00651769
0.0063881
0.00625815
0.00612786
0.00599723
0.00586629
0.00573503
0.00560349
0.00547166
0.00533956
0.0052072
0.00507459
0.00494174
0.00480866
0.00467537
0.00454186
0.00440816
0.00427427
0.0041402
0.00400595
0.00387154
0.00373697
0.00360226
0.0034674
0.00333241
0.00319729
0.00306205
0.0029267
0.00279125
0.00265569
0.00252004
0.0023843
0.00224847
0.00211257
0.0019766
0.00184056
0.00170446
0.00156831
0.0014321
0.00129585
0.00115956
0.00102322
0.00088686
0.000750467
0.000614051
0.000477615
0.000341164
0.000204703
6.8235e-05
0.00010017
0.000300505
0.000500827
0.000701129
0.000901401
0.00110163
0.00130182
0.00150195
0.00170201
0.001902
0.00210191
0.00230171
0.00250141
0.00270099
0.00290045
0.00309976
0.00329891
0.0034979
0.00369671
0.00389532
0.00409372
0.0042919
0.00448983
0.0046875
0.00488489
0.00508199
0.00527877
0.00547521
0.0056713
0.005867
0.0060623
0.00625717
0.00645159
0.00664553
0.00683897
0.00703187
0.00722421
0.00741595
0.00760707
0.00779753
0.00798731
0.00817636
0.00836465
0.00855215
0.00873881
0.0089246
0.00910948
0.00929341
0.00947635
0.00965825
0.00983907
0.0100188
0.0101973
0.0103746
0.0105507
0.0107254
0.0108988
0.0110708
0.0112414
0.0114104
0.0115779
0.0117437
0.0119079
0.0120704
0.0122311
0.01239
0.0125471
0.0127022
0.0128553
0.0130064
0.0131554
0.0133023
0.0134469
0.0135894
0.0137295
0.0138672
0.0140026
0.0141355
0.0142659
0.0143937
0.0145189
0.0146415
0.0147614
0.0148785
0.0149928
0.0151043
0.0152129
0.0153186
0.0154213
0.015521
0.0156176
0.0157112
0.0158017
0.015889
0.0159731
0.0160541
0.0161318
0.0162062
0.0162774
0.0163453
0.0164098
0.016471
0.0165288
0.0165833
0.0166344
0.016682
0.0167263
0.0167672
0.0168046
0.0168387
0.0168693
0.0168965
0.0169203
0.0169407
0.0169577
0.0169713
0.0169815
0.0169884
0.016992
0.0169922
0.016989
0.0169826
0.016973
0.01696
0.0169439
0.0169245
0.016902
0.0168763
0.0168476
0.0168157
0.0167808
0.0167429
0.016702
0.0166581
0.0166113
0.0165617
0.0165092
0.0164539
0.0163959
0.0163351
0.0162717
0.0162056
0.0161369
0.0160656
0.0159918
0.0159156
0.0158369
0.0157558
0.0156724
0.0155866
0.0154986
0.0154084
0.015316
0.0152214
0.0151247
0.015026
0.0149253
0.0148226
0.0147179
0.0146114
0.014503
0.0143928
0.0142808
0.0141671
0.0140517
0.0139347
0.013816
0.0136958
0.013574
0.0134507
0.0133259
0.0131997
0.0130721
0.0129432
0.0128129
0.0126814
0.0125486
0.0124145
0.0122793
0.0121429
0.0120054
0.0118668
0.0117271
0.0115864
0.0114446
0.0113019
0.0111583
0.0110137
0.0108682
0.0107219
0.0105747
0.0104267
0.0102779
0.0101284
0.00997809
0.00982708
0.00967537
0.00952299
0.00936996
0.0092163
0.00906203
0.00890718
0.00875176
0.0085958
0.0084393
0.0082823
0.00812481
0.00796685
0.00780843
0.00764957
0.0074903
0.00733062
0.00717055
0.0070101
0.0068493
0.00668815
0.00652667
0.00636487
0.00620277
0.00604038
0.00587771
0.00571478
0.00555159
0.00538815
0.00522449
0.0050606
0.00489651
0.00473221
0.00456772
0.00440305
0.00423821
0.00407321
0.00390805
0.00374275
0.00357731
0.00341173
0.00324604
0.00308023
0.00291431
0.0027483
0.00258219
0.00241599
0.00224971
0.00208335
0.00191693
0.00175045
0.00158391
0.00141731
0.00125068
0.001084
0.000917287
0.000750547
0.000583783
0.000417001
0.000250206
8.34028e-05
0.000118393
0.000355173
0.000591939
0.00082868
0.00106539
0.00130205
0.00153865
0.00177519
0.00201166
0.00224803
0.0024843
0.00272046
0.0029565
0.0031924
0.00342814
0.00366372
0.00389912
0.00413432
0.00436931
0.00460407
0.00483858
0.00507283
0.00530679
0.00554044
0.00577377
0.00600675
0.00623936
0.00647157
0.00670336
0.0069347
0.00716557
0.00739593
0.00762576
0.00785503
0.0080837
0.00831174
0.00853912
0.0087658
0.00899175
0.00921692
0.00944128
0.00966479
0.0098874
0.0101091
0.0103298
0.0105494
0.010768
0.0109855
0.0112018
0.0114169
0.0116307
0.0118432
0.0120543
0.0122639
0.0124721
0.0126788
0.0128838
0.0130872
0.0132888
0.0134887
0.0136868
0.0138829
0.0140771
0.0142692
0.0144593
0.0146472
0.014833
0.0150164
0.0151975
0.0153762
0.0155524
0.0157261
0.0158972
0.0160656
0.0162313
0.0163943
0.0165544
0.0167115
0.0168658
0.017017
0.0171651
0.01731
0.0174518
0.0175903
0.0177255
0.0178574
0.0179858
0.0181108
0.0182323
0.0183502
0.0184645
0.0185752
0.0186822
0.0187855
0.018885
0.0189807
0.0190726
0.0191606
0.0192448
0.019325
0.0194013
0.0194737
0.0195421
0.0196065
0.0196668
0.0197232
0.0197755
0.0198239
0.0198681
0.0199083
0.0199445
0.0199767
0.0200048
0.0200289
0.020049
0.020065
0.0200771
0.0200852
0.0200893
0.0200895
0.0200858
0.0200781
0.0200667
0.0200513
0.0200322
0.0200092
0.0199826
0.0199522
0.0199181
0.0198804
0.019839
0.0197941
0.0197457
0.0196938
0.0196384
0.0195797
0.0195175
0.0194521
0.0193834
0.0193115
0.0192364
0.0191582
0.0190769
0.0189926
0.0189053
0.0188151
0.018722
0.0186261
0.0185274
0.018426
0.0183218
0.0182151
0.0181058
0.0179939
0.0178796
0.0177628
0.0176437
0.0175222
0.0173984
0.0172724
0.0171442
0.0170139
0.0168815
0.016747
0.0166105
0.0164721
0.0163318
0.0161896
0.0160456
0.0158998
0.0157522
0.015603
0.0154522
0.0152997
0.0151457
0.0149901
0.0148331
0.0146746
0.0145147
0.0143534
0.0141908
0.0140269
0.0138618
0.0136954
0.0135278
0.0133591
0.0131893
0.0130184
0.0128464
0.0126734
0.0124994
0.0123244
0.0121485
0.0119717
0.011794
0.0116155
0.0114361
0.011256
0.0110751
0.0108935
0.0107111
0.010528
0.0103443
0.0101599
0.00997495
0.00978936
0.00960319
0.00941647
0.0092292
0.00904143
0.00885315
0.0086644
0.00847519
0.00828553
0.00809546
0.00790498
0.0077141
0.00752286
0.00733125
0.00713931
0.00694703
0.00675444
0.00656156
0.00636838
0.00617493
0.00598123
0.00578727
0.00559308
0.00539866
0.00520403
0.0050092
0.00481417
0.00461896
0.00442358
0.00422804
0.00403235
0.00383651
0.00364054
0.00344444
0.00324822
0.00305189
0.00285546
0.00265893
0.00246231
0.00226562
0.00206885
0.00187201
0.00167512
0.00147817
0.00128117
0.00108414
0.000887068
0.00068997
0.000492851
0.000295717
9.85733e-05
0.000136621
0.000409857
0.000683076
0.000956267
0.00122942
0.00150252
0.00177555
0.00204852
0.00232139
0.00259416
0.00286682
0.00313934
0.00341173
0.00368396
0.00395601
0.00422787
0.00449953
0.00477096
0.00504215
0.00531307
0.00558371
0.00585405
0.00612406
0.00639372
0.006663
0.00693189
0.00720035
0.00746835
0.00773587
0.00800288
0.00826934
0.00853523
0.0088005
0.00906512
0.00932906
0.00959228
0.00985474
0.0101164
0.0103772
0.0106371
0.0108961
0.0111541
0.0114111
0.011667
0.0119218
0.0121753
0.0124277
0.0126788
0.0129285
0.0131768
0.0134236
0.0136689
0.0139127
0.0141547
0.0143951
0.0146337
0.0148704
0.0151053
0.0153381
0.0155689
0.0157976
0.0160241
0.0162483
0.0164702
0.0166897
0.0169067
0.0171211
0.0173329
0.0175421
0.0177484
0.0179519
0.0181525
0.0183501
0.0185446
0.018736
0.0189242
0.019109
0.0192906
0.0194687
0.0196433
0.0198143
0.0199818
0.0201455
0.0203055
0.0204616
0.0206139
0.0207622
0.0209066
0.0210468
0.021183
0.021315
0.0214429
0.0215664
0.0216857
0.0218006
0.0219111
0.0220172
0.0221189
0.0222161
0.0223087
0.0223968
0.0224804
0.0225593
0.0226336
0.0227034
0.0227684
0.0228288
0.0228846
0.0229357
0.0229821
0.0230238
0.0230609
0.0230933
0.0231211
0.0231442
0.0231627
0.0231766
0.0231859
0.0231906
0.0231908
0.0231864
0.0231776
0.0231642
0.0231465
0.0231243
0.0230977
0.0230669
0.0230317
0.0229923
0.0229486
0.0229008
0.0228489
0.0227929
0.0227329
0.0226689
0.022601
0.0225292
0.0224536
0.0223742
0.0222911
0.0222043
0.022114
0.0220201
0.0219226
0.0218218
0.0217176
0.02161
0.0214992
0.0213852
0.021268
0.0211477
0.0210244
0.0208981
0.0207689
0.0206369
0.020502
0.0203644
0.0202241
0.0200812
0.0199356
0.0197876
0.0196371
0.0194842
0.0193289
0.0191713
0.0190115
0.0188494
0.0186852
0.0185189
0.0183506
0.0181803
0.018008
0.0178338
0.0176578
0.0174799
0.0173003
0.017119
0.016936
0.0167514
0.0165653
0.0163776
0.0161884
0.0159977
0.0158056
0.0156122
0.0154174
0.0152214
0.0150241
0.0148255
0.0146258
0.014425
0.014223
0.01402
0.0138159
0.0136108
0.0134047
0.0131977
0.0129898
0.012781
0.0125713
0.0123609
0.0121496
0.0119375
0.0117247
0.0115112
0.011297
0.0110821
0.0108666
0.0106505
0.0104338
0.0102165
0.00999865
0.00978028
0.0095614
0.00934204
0.0091222
0.00890192
0.00868121
0.00846009
0.00823857
0.00801668
0.00779442
0.00757182
0.00734889
0.00712565
0.0069021
0.00667827
0.00645417
0.00622982
0.00600521
0.00578038
0.00555532
0.00533005
0.00510459
0.00487894
0.00465311
0.00442712
0.00420097
0.00397468
0.00374825
0.0035217
0.00329502
0.00306824
0.00284136
0.00261438
0.00238732
0.00216018
0.00193298
0.00170571
0.00147839
0.00125102
0.00102362
0.00079618
0.000568717
0.000341237
0.000113747
0.000154855
0.000464558
0.000774242
0.00108389
0.0013935
0.00170305
0.00201253
0.00232193
0.00263122
0.00294041
0.00324946
0.00355837
0.00386712
0.00417569
0.00448407
0.00479223
0.00510016
0.00540784
0.00571525
0.00602236
0.00632915
0.0066356
0.00694168
0.00724737
0.00755264
0.00785746
0.0081618
0.00846562
0.00876891
0.00907161
0.0093737
0.00967514
0.00997589
0.0102759
0.0105752
0.0108736
0.0111712
0.0114678
0.0117636
0.0120583
0.0123519
0.0126445
0.0129359
0.013226
0.0135149
0.0138025
0.0140887
0.0143734
0.0146566
0.0149381
0.0152181
0.0154963
0.0157727
0.0160473
0.0163199
0.0165905
0.016859
0.0171253
0.0173894
0.0176512
0.0179106
0.0181675
0.0184218
0.0186735
0.0189225
0.0191686
0.0194119
0.0196522
0.0198894
0.0201235
0.0203544
0.0205819
0.0208061
0.0210268
0.0212439
0.0214573
0.0216671
0.021873
0.0220751
0.0222732
0.0224673
0.0226572
0.022843
0.0230244
0.0232016
0.0233744
0.0235426
0.0237064
0.0238655
0.02402
0.0241698
0.0243148
0.024455
0.0245903
0.0247206
0.024846
0.0249664
0.0250817
0.0251919
0.025297
0.0253969
0.0254917
0.0255812
0.0256655
0.0257445
0.0258183
0.0258868
0.02595
0.0260079
0.0260605
0.0261078
0.0261498
0.0261866
0.026218
0.0262442
0.0262651
0.0262808
0.0262912
0.0262965
0.0262966
0.0262916
0.0262815
0.0262662
0.026246
0.0262208
0.0261906
0.0261555
0.0261155
0.0260707
0.0260211
0.0259668
0.0259078
0.0258442
0.025776
0.0257034
0.0256262
0.0255447
0.0254589
0.0253687
0.0252744
0.0251759
0.0250733
0.0249667
0.0248561
0.0247416
0.0246233
0.0245013
0.0243755
0.0242461
0.0241131
0.0239767
0.0238367
0.0236935
0.0235469
0.023397
0.023244
0.0230879
0.0229287
0.0227665
0.0226014
0.0224335
0.0222627
0.0220893
0.0219131
0.0217344
0.021553
0.0213692
0.021183
0.0209944
0.0208034
0.0206102
0.0204148
0.0202173
0.0200176
0.0198159
0.0196123
0.0194066
0.0191991
0.0189898
0.0187787
0.0185658
0.0183512
0.018135
0.0179173
0.0176979
0.0174771
0.0172547
0.017031
0.0168059
0.0165795
0.0163517
0.0161227
0.0158925
0.0156611
0.0154286
0.0151949
0.0149602
0.0147245
0.0144878
0.0142501
0.0140114
0.0137719
0.0135315
0.0132902
0.0130482
0.0128053
0.0125617
0.0123174
0.0120724
0.0118267
0.0115804
0.0113334
0.0110859
0.0108378
0.0105891
0.0103399
0.0100902
0.00983999
0.00958933
0.00933822
0.00908669
0.00883475
0.00858242
0.00832972
0.00807667
0.00782327
0.00756956
0.00731554
0.00706122
0.00680663
0.00655178
0.00629668
0.00604134
0.00578578
0.00553001
0.00527404
0.00501789
0.00476156
0.00450506
0.00424842
0.00399163
0.0037347
0.00347765
0.00322049
0.00296323
0.00270587
0.00244842
0.0021909
0.00193331
0.00167565
0.00141795
0.0011602
0.000902414
0.000644601
0.000386769
0.000128924
0.000173095
0.000519278
0.000865441
0.00121157
0.00155765
0.00190366
0.0022496
0.00259544
0.00294118
0.00328678
0.00363225
0.00397756
0.00432269
0.00466762
0.00501234
0.00535683
0.00570106
0.006045
0.00638865
0.00673197
0.00707494
0.00741752
0.00775971
0.00810145
0.00844273
0.00878351
0.00912376
0.00946344
0.00980252
0.010141
0.0104787
0.0108157
0.011152
0.0114875
0.0118221
0.0121558
0.0124885
0.0128202
0.0131509
0.0134805
0.0138089
0.014136
0.0144619
0.0147864
0.0151095
0.0154311
0.0157511
0.0160695
0.0163862
0.0167012
0.0170143
0.0173255
0.0176346
0.0179417
0.0182467
0.0185493
0.0188497
0.0191476
0.0194431
0.0197359
0.0200261
0.0203135
0.020598
0.0208796
0.0211581
0.0214335
0.0217057
0.0219745
0.02224
0.0225019
0.0227602
0.0230148
0.0232656
0.0235125
0.0237554
0.0239943
0.024229
0.0244594
0.0246855
0.0249072
0.0251243
0.0253368
0.0255447
0.0257478
0.025946
0.0261393
0.0263276
0.0265108
0.0266889
0.0268618
0.0270294
0.0271916
0.0273484
0.0274998
0.0276456
0.0277859
0.0279206
0.0280496
0.0281729
0.0282904
0.0284022
0.0285082
0.0286083
0.0287026
0.028791
0.0288735
0.0289501
0.0290207
0.0290855
0.0291443
0.0291971
0.0292441
0.0292851
0.0293202
0.0293494
0.0293727
0.0293901
0.0294018
0.0294076
0.0294076
0.0294019
0.0293904
0.0293733
0.0293506
0.0293222
0.0292883
0.029249
0.0292041
0.0291539
0.0290983
0.0290374
0.0289713
0.0289001
0.0288237
0.0287423
0.0286559
0.0285646
0.0284684
0.0283675
0.0282618
0.0281515
0.0280367
0.0279173
0.0277935
0.0276654
0.0275329
0.0273963
0.0272555
0.0271106
0.0269618
0.0268091
0.0266525
0.0264921
0.026328
0.0261603
0.0259891
0.0258144
0.0256363
0.0254548
0.0252701
0.0250822
0.0248911
0.024697
0.0245
0.0243
0.0240971
0.0238915
0.0236832
0.0234722
0.0232586
0.0230424
0.0228239
0.0226029
0.0223796
0.022154
0.0219262
0.0216962
0.0214641
0.02123
0.0209938
0.0207558
0.0205158
0.020274
0.0200304
0.0197851
0.0195382
0.0192895
0.0190393
0.0187876
0.0185344
0.0182797
0.0180237
0.0177662
0.0175075
0.0172475
0.0169862
0.0167238
0.0164602
0.0161955
0.0159297
0.0156629
0.0153951
0.0151263
0.0148566
0.0145859
0.0143144
0.0140421
0.0137689
0.013495
0.0132203
0.0129449
0.0126688
0.0123921
0.0121147
0.0118367
0.0115581
0.0112789
0.0109992
0.010719
0.0104383
0.0101571
0.00987548
0.0095934
0.00931091
0.00902803
0.00874477
0.00846116
0.0081772
0.00789292
0.00760833
0.00732344
0.00703828
0.00675286
0.00646719
0.00618129
0.00589517
0.00560884
0.00532231
0.00503561
0.00474873
0.00446169
0.00417451
0.00388719
0.00359974
0.00331217
0.00302451
0.00273674
0.00244889
0.00216096
0.00187297
0.00158492
0.00129682
0.00100868
0.000720506
0.000432312
0.000144106
0.000191343
0.00057402
0.000956675
0.00133929
0.00172186
0.00210435
0.00248676
0.00286907
0.00325126
0.00363331
0.0040152
0.00439693
0.00477846
0.00515978
0.00554086
0.00592168
0.00630223
0.00668247
0.00706238
0.00744194
0.00782111
0.00819986
0.00857817
0.00895601
0.00933333
0.00971011
0.0100863
0.0104619
0.0108368
0.011211
0.0115845
0.0119571
0.012329
0.0126999
0.0130699
0.0134389
0.0138069
0.0141737
0.0145394
0.0149039
0.015267
0.0156289
0.0159893
0.0163482
0.0167055
0.0170612
0.0174152
0.0177674
0.0181177
0.0184661
0.0188124
0.0191566
0.0194987
0.0198384
0.0201757
0.0205106
0.0208429
0.0211725
0.0214993
0.0218233
0.0221444
0.0224624
0.0227772
0.0230887
0.0233969
0.0237017
0.0240028
0.0243003
0.024594
0.0248838
0.0251697
0.0254514
0.025729
0.0260022
0.026271
0.0265354
0.0267951
0.0270501
0.0273003
0.0275457
0.027786
0.0280212
0.0282512
0.028476
0.0286954
0.0289093
0.0291177
0.0293204
0.0295175
0.0297088
0.0298943
0.0300738
0.0302474
0.0304149
0.0305762
0.0307315
0.0308805
0.0310232
0.0311596
0.0312897
0.0314134
0.0315306
0.0316413
0.0317456
0.0318434
0.0319346
0.0320193
0.0320974
0.032169
0.032234
0.0322924
0.0323442
0.0323895
0.0324283
0.0324605
0.0324862
0.0325054
0.0325181
0.0325244
0.0325244
0.0325179
0.0325051
0.0324861
0.0324608
0.0324293
0.0323916
0.0323479
0.0322982
0.0322424
0.0321808
0.0321133
0.0320401
0.0319611
0.0318764
0.0317862
0.0316905
0.0315893
0.0314828
0.031371
0.0312539
0.0311318
0.0310046
0.0308724
0.0307353
0.0305934
0.0304467
0.0302954
0.0301396
0.0299792
0.0298144
0.0296453
0.029472
0.0292944
0.0291128
0.0289272
0.0287377
0.0285443
0.0283472
0.0281464
0.027942
0.027734
0.0275226
0.0273078
0.0270898
0.0268685
0.026644
0.0264165
0.026186
0.0259525
0.0257162
0.0254771
0.0252353
0.0249909
0.0247438
0.0244943
0.0242422
0.0239878
0.0237311
0.0234721
0.0232109
0.0229476
0.0226822
0.0224148
0.0221454
0.0218741
0.0216009
0.0213259
0.0210492
0.0207708
0.0204908
0.0202092
0.019926
0.0196413
0.0193552
0.0190676
0.0187787
0.0184885
0.0181971
0.0179043
0.0176105
0.0173154
0.0170193
0.0167221
0.0164238
0.0161246