/*--------------------------------*- C++ -*----------------------------------*\
| =========                 |                                                 |
| \\      /  F ield         | OpenFOAM: The Open Source CFD Toolbox           |
|  \\    /   O peration     | Version:  v2012                                 |
|   \\  /    A nd           | Website:  www.openfoam.com                      |
|    \\/     M anipulation  |                                                 |
\*---------------------------------------------------------------------------*/
FoamFile
{
    version     2.0;
    format      ascii;
    class       volScalarField;
    location    "5";
    object      W_z;
}
// * * * * * * * * * * * * * * * * * * * * * * * * * * * * * * * * * * * * * //

dimensions      [0 0 -1 0 0 0 0];


internalField   nonuniform List<scalar> 
65536
(
-4.7808e-08
-1.24627e-07
1.80548e-08
1.93514e-08
-1.36399e-08
-5.40908e-08
-9.35369e-08
-1.29988e-07
-1.63896e-07
-1.96637e-07
-2.29612e-07
-2.6366e-07
-2.98996e-07
-3.35247e-07
-3.72019e-07
-4.0896e-07
-4.45852e-07
-4.82482e-07
-5.18536e-07
-5.5403e-07
-5.8902e-07
-6.2357e-07
-6.57863e-07
-6.91897e-07
-7.2575e-07
-7.59564e-07
-7.9328e-07
-8.26886e-07
-8.60287e-07
-8.93146e-07
-9.25336e-07
-9.56919e-07
-9.87856e-07
-1.01819e-06
-1.048e-06
-1.07724e-06
-1.10586e-06
-1.134e-06
-1.16162e-06
-1.18869e-06
-1.21533e-06
-1.24178e-06
-1.26842e-06
-1.29585e-06
-1.32463e-06
-1.35492e-06
-1.3867e-06
-1.41992e-06
-1.45423e-06
-1.48905e-06
-1.52381e-06
-1.55787e-06
-1.59057e-06
-1.62151e-06
-1.65074e-06
-1.6784e-06
-1.7047e-06
-1.7301e-06
-1.75533e-06
-1.78104e-06
-1.80771e-06
-1.83566e-06
-1.86481e-06
-1.8946e-06
-1.92432e-06
-1.95338e-06
-1.98139e-06
-2.00817e-06
-2.03381e-06
-2.05888e-06
-2.08411e-06
-2.11002e-06
-2.13677e-06
-2.1642e-06
-2.19182e-06
-2.21892e-06
-2.24474e-06
-2.26869e-06
-2.2904e-06
-2.30983e-06
-2.32747e-06
-2.34434e-06
-2.36167e-06
-2.3804e-06
-2.40099e-06
-2.42349e-06
-2.44765e-06
-2.47278e-06
-2.49783e-06
-2.52153e-06
-2.54279e-06
-2.56101e-06
-2.57614e-06
-2.58877e-06
-2.59998e-06
-2.6111e-06
-2.62328e-06
-2.63715e-06
-2.65281e-06
-2.66992e-06
-2.68776e-06
-2.70541e-06
-2.72206e-06
-2.7371e-06
-2.75031e-06
-2.76178e-06
-2.77156e-06
-2.77973e-06
-2.78636e-06
-2.79151e-06
-2.79549e-06
-2.79885e-06
-2.80231e-06
-2.80682e-06
-2.81334e-06
-2.82247e-06
-2.83426e-06
-2.84805e-06
-2.86259e-06
-2.87654e-06
-2.88872e-06
-2.89828e-06
-2.90478e-06
-2.90821e-06
-2.90907e-06
-2.9081e-06
-2.90602e-06
-2.90329e-06
-2.8999e-06
-2.89574e-06
-2.89074e-06
-2.88521e-06
-2.87989e-06
-2.87571e-06
-2.87347e-06
-2.87355e-06
-2.87595e-06
-2.87989e-06
-2.8841e-06
-2.887e-06
-2.88715e-06
-2.88388e-06
-2.87739e-06
-2.86868e-06
-2.85919e-06
-2.85029e-06
-2.84278e-06
-2.83707e-06
-2.83274e-06
-2.82887e-06
-2.82428e-06
-2.81794e-06
-2.80932e-06
-2.79858e-06
-2.78636e-06
-2.77342e-06
-2.76005e-06
-2.74605e-06
-2.73057e-06
-2.71259e-06
-2.69151e-06
-2.66768e-06
-2.6425e-06
-2.61821e-06
-2.59694e-06
-2.58002e-06
-2.56755e-06
-2.5584e-06
-2.55077e-06
-2.54277e-06
-2.53306e-06
-2.52102e-06
-2.5069e-06
-2.49123e-06
-2.47515e-06
-2.45939e-06
-2.44442e-06
-2.43011e-06
-2.4158e-06
-2.40086e-06
-2.38473e-06
-2.36719e-06
-2.34844e-06
-2.32865e-06
-2.30805e-06
-2.28678e-06
-2.26486e-06
-2.24241e-06
-2.21951e-06
-2.19625e-06
-2.17274e-06
-2.14889e-06
-2.12447e-06
-2.09928e-06
-2.07305e-06
-2.0457e-06
-2.01744e-06
-1.98885e-06
-1.96055e-06
-1.93276e-06
-1.90537e-06
-1.87793e-06
-1.84991e-06
-1.82101e-06
-1.79126e-06
-1.76081e-06
-1.72987e-06
-1.69869e-06
-1.66718e-06
-1.63497e-06
-1.60164e-06
-1.56702e-06
-1.53117e-06
-1.49448e-06
-1.45749e-06
-1.42066e-06
-1.38424e-06
-1.34834e-06
-1.31288e-06
-1.27758e-06
-1.24199e-06
-1.20574e-06
-1.16857e-06
-1.13039e-06
-1.09142e-06
-1.05207e-06
-1.01281e-06
-9.74117e-07
-9.36313e-07
-8.99498e-07
-8.63631e-07
-8.28538e-07
-7.93982e-07
-7.59694e-07
-7.25418e-07
-6.90971e-07
-6.56243e-07
-6.21139e-07
-5.85592e-07
-5.4962e-07
-5.13336e-07
-4.76897e-07
-4.40404e-07
-4.03852e-07
-3.67162e-07
-3.30264e-07
-2.93181e-07
-2.56099e-07
-2.19365e-07
-1.8345e-07
-1.48917e-07
-1.16391e-07
-8.64209e-08
-5.91276e-08
-3.37764e-08
-1.07919e-08
-1.40867e-07
-3.68225e-07
-2.23401e-07
-2.58891e-07
-3.38289e-07
-4.27305e-07
-5.13461e-07
-5.94481e-07
-6.72612e-07
-7.51399e-07
-8.33733e-07
-9.21021e-07
-1.0133e-06
-1.10975e-06
-1.2091e-06
-1.30996e-06
-1.41131e-06
-1.51228e-06
-1.61236e-06
-1.71152e-06
-1.80971e-06
-1.90708e-06
-2.00381e-06
-2.10013e-06
-2.19652e-06
-2.29323e-06
-2.39011e-06
-2.48697e-06
-2.58325e-06
-2.67836e-06
-2.77211e-06
-2.86434e-06
-2.95491e-06
-3.04397e-06
-3.13161e-06
-3.21774e-06
-3.3024e-06
-3.38558e-06
-3.46708e-06
-3.54689e-06
-3.62538e-06
-3.70318e-06
-3.78152e-06
-3.86209e-06
-3.9463e-06
-4.03496e-06
-4.12838e-06
-4.22619e-06
-4.32716e-06
-4.42967e-06
-4.53195e-06
-4.63206e-06
-4.72814e-06
-4.81912e-06
-4.90472e-06
-4.98514e-06
-5.06132e-06
-5.13503e-06
-5.20843e-06
-5.28342e-06
-5.36141e-06
-5.44321e-06
-5.52853e-06
-5.61598e-06
-5.70365e-06
-5.78969e-06
-5.87266e-06
-5.95187e-06
-6.02779e-06
-6.10199e-06
-6.17643e-06
-6.25268e-06
-6.33149e-06
-6.41256e-06
-6.49446e-06
-6.57487e-06
-6.65141e-06
-6.72223e-06
-6.78637e-06
-6.84406e-06
-6.897e-06
-6.94808e-06
-7.00054e-06
-7.05705e-06
-7.11916e-06
-7.18724e-06
-7.26046e-06
-7.33661e-06
-7.4124e-06
-7.48415e-06
-7.54866e-06
-7.60407e-06
-7.65032e-06
-7.68918e-06
-7.72377e-06
-7.75777e-06
-7.79447e-06
-7.83596e-06
-7.88282e-06
-7.93404e-06
-7.98733e-06
-8.03985e-06
-8.08923e-06
-8.13402e-06
-8.17374e-06
-8.20852e-06
-8.23858e-06
-8.26401e-06
-8.28485e-06
-8.30114e-06
-8.31354e-06
-8.3237e-06
-8.33409e-06
-8.34767e-06
-8.36715e-06
-8.39413e-06
-8.42865e-06
-8.46898e-06
-8.51189e-06
-8.55353e-06
-8.59025e-06
-8.61939e-06
-8.63968e-06
-8.65119e-06
-8.65534e-06
-8.65419e-06
-8.64965e-06
-8.64296e-06
-8.63437e-06
-8.62365e-06
-8.61071e-06
-8.59616e-06
-8.58182e-06
-8.57026e-06
-8.56392e-06
-8.56416e-06
-8.57085e-06
-8.58178e-06
-8.59316e-06
-8.60055e-06
-8.60003e-06
-8.58977e-06
-8.5704e-06
-8.54494e-06
-8.51736e-06
-8.49168e-06
-8.47049e-06
-8.45457e-06
-8.4426e-06
-8.43176e-06
-8.41862e-06
-8.40027e-06
-8.37522e-06
-8.34387e-06
-8.30807e-06
-8.27005e-06
-8.23092e-06
-8.18988e-06
-8.14446e-06
-8.09152e-06
-8.02921e-06
-7.95868e-06
-7.88416e-06
-7.8121e-06
-7.74891e-06
-7.6985e-06
-7.66133e-06
-7.6341e-06
-7.6116e-06
-7.58785e-06
-7.55895e-06
-7.5226e-06
-7.47974e-06
-7.43219e-06
-7.38315e-06
-7.33507e-06
-7.28904e-06
-7.24489e-06
-7.20077e-06
-7.15475e-06
-7.10537e-06
-7.05188e-06
-6.99467e-06
-6.93437e-06
-6.87157e-06
-6.80673e-06
-6.73996e-06
-6.67147e-06
-6.60155e-06
-6.53063e-06
-6.45904e-06
-6.3868e-06
-6.31308e-06
-6.23695e-06
-6.15745e-06
-6.07446e-06
-5.98883e-06
-5.90221e-06
-5.81633e-06
-5.73194e-06
-5.64864e-06
-5.56525e-06
-5.48045e-06
-5.3934e-06
-5.3041e-06
-5.21317e-06
-5.12127e-06
-5.02867e-06
-4.93489e-06
-4.83876e-06
-4.73908e-06
-4.6353e-06
-4.52777e-06
-4.41768e-06
-4.3066e-06
-4.19599e-06
-4.0868e-06
-3.97952e-06
-3.87387e-06
-3.76905e-06
-3.6638e-06
-3.5568e-06
-3.44714e-06
-3.3346e-06
-3.21977e-06
-3.10386e-06
-2.98834e-06
-2.87458e-06
-2.76349e-06
-2.65535e-06
-2.55001e-06
-2.44688e-06
-2.34526e-06
-2.24445e-06
-2.14377e-06
-2.04262e-06
-1.94051e-06
-1.83714e-06
-1.73238e-06
-1.62639e-06
-1.51952e-06
-1.41214e-06
-1.30446e-06
-1.19645e-06
-1.08796e-06
-9.78868e-07
-8.69275e-07
-7.59647e-07
-6.50904e-07
-5.44436e-07
-4.42025e-07
-3.45623e-07
-2.5683e-07
-1.75966e-07
-1.00911e-07
-3.22868e-08
-3.99596e-07
-8.51255e-07
-8.10288e-07
-8.64089e-07
-9.51494e-07
-1.04945e-06
-1.14763e-06
-1.24453e-06
-1.34305e-06
-1.44723e-06
-1.56021e-06
-1.68333e-06
-1.81624e-06
-1.95736e-06
-2.10444e-06
-2.25528e-06
-2.40796e-06
-2.56106e-06
-2.71383e-06
-2.8658e-06
-3.01684e-06
-3.16713e-06
-3.31691e-06
-3.46674e-06
-3.61708e-06
-3.76803e-06
-3.91964e-06
-4.07156e-06
-4.22305e-06
-4.37354e-06
-4.52245e-06
-4.66929e-06
-4.81402e-06
-4.95687e-06
-5.09785e-06
-5.23697e-06
-5.37407e-06
-5.50864e-06
-5.64026e-06
-5.76896e-06
-5.89523e-06
-6.02031e-06
-6.14634e-06
-6.27578e-06
-6.41084e-06
-6.55329e-06
-6.70387e-06
-6.86177e-06
-7.025e-06
-7.19096e-06
-7.35649e-06
-7.51821e-06
-7.67329e-06
-7.81989e-06
-7.95708e-06
-8.08512e-06
-8.2058e-06
-8.32215e-06
-8.43768e-06
-8.55584e-06
-8.67948e-06
-8.81005e-06
-8.94702e-06
-9.08815e-06
-9.23029e-06
-9.37011e-06
-9.50487e-06
-9.63342e-06
-9.75663e-06
-9.87683e-06
-9.997e-06
-1.01199e-05
-1.0247e-05
-1.0378e-05
-1.05105e-05
-1.06405e-05
-1.07641e-05
-1.08784e-05
-1.0982e-05
-1.10758e-05
-1.11626e-05
-1.12471e-05
-1.13341e-05
-1.14282e-05
-1.15321e-05
-1.16465e-05
-1.17696e-05
-1.18974e-05
-1.20243e-05
-1.21446e-05
-1.22534e-05
-1.23475e-05
-1.24265e-05
-1.24932e-05
-1.25525e-05
-1.26104e-05
-1.26718e-05
-1.27404e-05
-1.28171e-05
-1.29004e-05
-1.29868e-05
-1.30719e-05
-1.31523e-05
-1.32258e-05
-1.32916e-05
-1.33499e-05
-1.3401e-05
-1.34449e-05
-1.34813e-05
-1.35102e-05
-1.35321e-05
-1.35496e-05
-1.35666e-05
-1.35881e-05
-1.36184e-05
-1.36606e-05
-1.37149e-05
-1.37789e-05
-1.38479e-05
-1.39158e-05
-1.39765e-05
-1.40257e-05
-1.40613e-05
-1.40837e-05
-1.40948e-05
-1.40975e-05
-1.40946e-05
-1.40882e-05
-1.40788e-05
-1.40663e-05
-1.40505e-05
-1.40319e-05
-1.4013e-05
-1.39972e-05
-1.39886e-05
-1.39893e-05
-1.3999e-05
-1.40144e-05
-1.40295e-05
-1.4038e-05
-1.40343e-05
-1.40161e-05
-1.39847e-05
-1.39446e-05
-1.39022e-05
-1.38633e-05
-1.38321e-05
-1.38094e-05
-1.3793e-05
-1.37779e-05
-1.37587e-05
-1.37307e-05
-1.36916e-05
-1.36424e-05
-1.35859e-05
-1.35258e-05
-1.34639e-05
-1.33989e-05
-1.33266e-05
-1.32418e-05
-1.31415e-05
-1.30276e-05
-1.29069e-05
-1.279e-05
-1.26874e-05
-1.26055e-05
-1.25455e-05
-1.2502e-05
-1.24664e-05
-1.24288e-05
-1.23824e-05
-1.23233e-05
-1.22525e-05
-1.21736e-05
-1.20916e-05
-1.20109e-05
-1.19334e-05
-1.18589e-05
-1.1785e-05
-1.17083e-05
-1.16264e-05
-1.15381e-05
-1.14435e-05
-1.1344e-05
-1.12404e-05
-1.11333e-05
-1.10228e-05
-1.09093e-05
-1.07933e-05
-1.06757e-05
-1.05572e-05
-1.04377e-05
-1.03158e-05
-1.01896e-05
-1.00576e-05
-9.91941e-06
-9.7766e-06
-9.63161e-06
-9.4872e-06
-9.345e-06
-9.20475e-06
-9.06481e-06
-8.92331e-06
-8.7791e-06
-8.63218e-06
-8.48356e-06
-8.33423e-06
-8.18413e-06
-8.03182e-06
-7.87517e-06
-7.71211e-06
-7.54168e-06
-7.36455e-06
-7.18286e-06
-6.99938e-06
-6.81689e-06
-6.63729e-06
-6.46143e-06
-6.28892e-06
-6.11828e-06
-5.94739e-06
-5.77403e-06
-5.59662e-06
-5.41466e-06
-5.22899e-06
-5.04156e-06
-4.85478e-06
-4.67085e-06
-4.49122e-06
-4.3164e-06
-4.14603e-06
-3.97921e-06
-3.81481e-06
-3.65169e-06
-3.48875e-06
-3.32501e-06
-3.15963e-06
-2.99214e-06
-2.82239e-06
-2.65061e-06
-2.47729e-06
-2.30298e-06
-2.12798e-06
-1.95234e-06
-1.77587e-06
-1.59835e-06
-1.41989e-06
-1.2412e-06
-1.06374e-06
-8.89828e-07
-7.2248e-07
-5.64956e-07
-4.19855e-07
-2.87689e-07
-1.65019e-07
-5.26822e-08
-4.71984e-07
-1.04456e-06
-1.16696e-06
-1.30759e-06
-1.44687e-06
-1.57979e-06
-1.70514e-06
-1.82626e-06
-1.94895e-06
-2.07908e-06
-2.22083e-06
-2.37597e-06
-2.54408e-06
-2.72317e-06
-2.91058e-06
-3.10354e-06
-3.29959e-06
-3.49703e-06
-3.69463e-06
-3.89172e-06
-4.0881e-06
-4.28373e-06
-4.47899e-06
-4.6744e-06
-4.8703e-06
-5.06705e-06
-5.2647e-06
-5.46275e-06
-5.66068e-06
-5.85785e-06
-6.05349e-06
-6.2472e-06
-6.43899e-06
-6.62888e-06
-6.81694e-06
-7.00311e-06
-7.18678e-06
-7.36703e-06
-7.54315e-06
-7.71487e-06
-7.88283e-06
-8.04904e-06
-8.21645e-06
-8.38834e-06
-8.56794e-06
-8.7578e-06
-8.95881e-06
-9.17005e-06
-9.38911e-06
-9.61231e-06
-9.83496e-06
-1.00524e-05
-1.02605e-05
-1.04565e-05
-1.06386e-05
-1.08074e-05
-1.09653e-05
-1.11165e-05
-1.12661e-05
-1.14194e-05
-1.1581e-05
-1.17532e-05
-1.19353e-05
-1.21245e-05
-1.23162e-05
-1.25054e-05
-1.26878e-05
-1.28616e-05
-1.30278e-05
-1.31893e-05
-1.33503e-05
-1.35147e-05
-1.36846e-05
-1.38596e-05
-1.40364e-05
-1.421e-05
-1.43751e-05
-1.45274e-05
-1.46654e-05
-1.47906e-05
-1.49075e-05
-1.50224e-05
-1.51421e-05
-1.52724e-05
-1.54171e-05
-1.55769e-05
-1.57489e-05
-1.59274e-05
-1.61049e-05
-1.62736e-05
-1.64267e-05
-1.65602e-05
-1.66734e-05
-1.67697e-05
-1.68553e-05
-1.69376e-05
-1.70235e-05
-1.71176e-05
-1.72212e-05
-1.73327e-05
-1.74477e-05
-1.75614e-05
-1.76694e-05
-1.77692e-05
-1.78598e-05
-1.79413e-05
-1.8014e-05
-1.80775e-05
-1.81311e-05
-1.8174e-05
-1.82067e-05
-1.8232e-05
-1.82551e-05
-1.82823e-05
-1.83203e-05
-1.83733e-05
-1.84426e-05
-1.85255e-05
-1.86163e-05
-1.87073e-05
-1.87908e-05
-1.88607e-05
-1.89138e-05
-1.89502e-05
-1.89723e-05
-1.89838e-05
-1.89882e-05
-1.89881e-05
-1.89842e-05
-1.89764e-05
-1.89643e-05
-1.89487e-05
-1.89317e-05
-1.89173e-05
-1.89097e-05
-1.89117e-05
-1.89228e-05
-1.8939e-05
-1.89536e-05
-1.89588e-05
-1.89489e-05
-1.89217e-05
-1.88796e-05
-1.88284e-05
-1.87761e-05
-1.87299e-05
-1.86944e-05
-1.86702e-05
-1.86538e-05
-1.86385e-05
-1.86171e-05
-1.85833e-05
-1.85346e-05
-1.8472e-05
-1.83996e-05
-1.83222e-05
-1.82423e-05
-1.81581e-05
-1.8064e-05
-1.79527e-05
-1.78202e-05
-1.76685e-05
-1.75072e-05
-1.73507e-05
-1.72134e-05
-1.71047e-05
-1.70261e-05
-1.69703e-05
-1.69255e-05
-1.68782e-05
-1.68178e-05
-1.67394e-05
-1.66436e-05
-1.65359e-05
-1.6423e-05
-1.63113e-05
-1.62043e-05
-1.61015e-05
-1.60001e-05
-1.58958e-05
-1.57851e-05
-1.56662e-05
-1.55394e-05
-1.54057e-05
-1.52665e-05
-1.51225e-05
-1.49738e-05
-1.48206e-05
-1.4664e-05
-1.45052e-05
-1.43451e-05
-1.41834e-05
-1.40181e-05
-1.38463e-05
-1.36654e-05
-1.3475e-05
-1.32769e-05
-1.30749e-05
-1.28728e-05
-1.26732e-05
-1.24765e-05
-1.22812e-05
-1.20851e-05
-1.1887e-05
-1.16873e-05
-1.14871e-05
-1.1287e-05
-1.10865e-05
-1.08828e-05
-1.06722e-05
-1.04515e-05
-1.02198e-05
-9.97796e-06
-9.72935e-06
-9.47822e-06
-9.22866e-06
-8.98364e-06
-8.74448e-06
-8.51071e-06
-8.2803e-06
-8.05007e-06
-7.81681e-06
-7.57815e-06
-7.33325e-06
-7.08323e-06
-6.83072e-06
-6.57902e-06
-6.33105e-06
-6.08872e-06
-5.85269e-06
-5.62243e-06
-5.39673e-06
-5.17412e-06
-4.95313e-06
-4.73235e-06
-4.51053e-06
-4.28662e-06
-4.05993e-06
-3.83023e-06
-3.5978e-06
-3.36325e-06
-3.12726e-06
-2.89023e-06
-2.6522e-06
-2.41292e-06
-2.17214e-06
-1.92995e-06
-1.68725e-06
-1.446e-06
-1.20937e-06
-9.8156e-07
-7.67128e-07
-5.69727e-07
-3.90112e-07
-2.23599e-07
-7.13055e-08
-4.88443e-07
-1.12927e-06
-1.38405e-06
-1.61648e-06
-1.82025e-06
-1.99999e-06
-2.16161e-06
-2.31309e-06
-2.46327e-06
-2.61994e-06
-2.78852e-06
-2.97159e-06
-3.16902e-06
-3.37895e-06
-3.59859e-06
-3.82497e-06
-4.05561e-06
-4.28849e-06
-4.52218e-06
-4.75582e-06
-4.98883e-06
-5.22112e-06
-5.45293e-06
-5.68454e-06
-5.91647e-06
-6.14919e-06
-6.38272e-06
-6.61687e-06
-6.85126e-06
-7.08518e-06
-7.31808e-06
-7.54977e-06
-7.78017e-06
-8.00929e-06
-8.23715e-06
-8.46322e-06
-8.68642e-06
-8.90544e-06
-9.11906e-06
-9.32667e-06
-9.52914e-06
-9.72894e-06
-9.92971e-06
-1.01358e-05
-1.03515e-05
-1.058e-05
-1.08224e-05
-1.10779e-05
-1.13437e-05
-1.1615e-05
-1.1886e-05
-1.21508e-05
-1.24039e-05
-1.26411e-05
-1.28599e-05
-1.30609e-05
-1.32472e-05
-1.3424e-05
-1.35983e-05
-1.37778e-05
-1.39686e-05
-1.41741e-05
-1.4394e-05
-1.46249e-05
-1.48605e-05
-1.5094e-05
-1.53195e-05
-1.55343e-05
-1.57389e-05
-1.59369e-05
-1.61335e-05
-1.63338e-05
-1.65404e-05
-1.67526e-05
-1.69666e-05
-1.71765e-05
-1.73756e-05
-1.75592e-05
-1.77253e-05
-1.78764e-05
-1.80185e-05
-1.81597e-05
-1.83085e-05
-1.84723e-05
-1.86553e-05
-1.88577e-05
-1.90758e-05
-1.93024e-05
-1.95282e-05
-1.97436e-05
-1.99403e-05
-2.01134e-05
-2.02621e-05
-2.03897e-05
-2.05032e-05
-2.06109e-05
-2.07206e-05
-2.08379e-05
-2.09648e-05
-2.10995e-05
-2.12378e-05
-2.13748e-05
-2.1506e-05
-2.16288e-05
-2.17424e-05
-2.18466e-05
-2.19416e-05
-2.20264e-05
-2.2099e-05
-2.21579e-05
-2.2203e-05
-2.22372e-05
-2.22662e-05
-2.22978e-05
-2.23401e-05
-2.23995e-05
-2.24782e-05
-2.25743e-05
-2.26819e-05
-2.27923e-05
-2.28966e-05
-2.29873e-05
-2.306e-05
-2.31138e-05
-2.31512e-05
-2.31762e-05
-2.31931e-05
-2.32048e-05
-2.32127e-05
-2.32165e-05
-2.32156e-05
-2.32103e-05
-2.32026e-05
-2.31959e-05
-2.31937e-05
-2.31985e-05
-2.32099e-05
-2.32236e-05
-2.32329e-05
-2.32305e-05
-2.32113e-05
-2.31741e-05
-2.31227e-05
-2.30642e-05
-2.30075e-05
-2.29601e-05
-2.29263e-05
-2.29059e-05
-2.2894e-05
-2.28826e-05
-2.28629e-05
-2.28278e-05
-2.27742e-05
-2.27036e-05
-2.2621e-05
-2.25322e-05
-2.24402e-05
-2.23427e-05
-2.22327e-05
-2.21016e-05
-2.1944e-05
-2.17624e-05
-2.15685e-05
-2.13801e-05
-2.12153e-05
-2.10864e-05
-2.0995e-05
-2.09328e-05
-2.0884e-05
-2.08318e-05
-2.07621e-05
-2.06685e-05
-2.05515e-05
-2.04177e-05
-2.02765e-05
-2.01361e-05
-2.00015e-05
-1.9873e-05
-1.9747e-05
-1.96186e-05
-1.9483e-05
-1.93382e-05
-1.91841e-05
-1.9022e-05
-1.88531e-05
-1.86781e-05
-1.84972e-05
-1.83109e-05
-1.81205e-05
-1.79275e-05
-1.7733e-05
-1.75361e-05
-1.73341e-05
-1.71226e-05
-1.68981e-05
-1.66597e-05
-1.64097e-05
-1.61529e-05
-1.58948e-05
-1.56391e-05
-1.53872e-05
-1.51381e-05
-1.48903e-05
-1.4643e-05
-1.43968e-05
-1.41527e-05
-1.39109e-05
-1.36691e-05
-1.34229e-05
-1.31667e-05
-1.28961e-05
-1.26098e-05
-1.23096e-05
-1.20002e-05
-1.16874e-05
-1.13769e-05
-1.10729e-05
-1.07771e-05
-1.04891e-05
-1.02061e-05
-9.92406e-06
-9.63855e-06
-9.34633e-06
-9.04628e-06
-8.73975e-06
-8.43005e-06
-8.12126e-06
-7.81696e-06
-7.51929e-06
-7.2288e-06
-6.94475e-06
-6.66569e-06
-6.38996e-06
-6.11596e-06
-5.84221e-06
-5.56738e-06
-5.29028e-06
-5.01008e-06
-4.72651e-06
-4.43979e-06
-4.15058e-06
-3.85959e-06
-3.5673e-06
-3.27373e-06
-2.97852e-06
-2.68136e-06
-2.38233e-06
-2.08247e-06
-1.78419e-06
-1.49146e-06
-1.20958e-06
-9.4436e-07
-7.00517e-07
-4.79103e-07
-2.74318e-07
-8.74022e-08
-4.8419e-07
-1.16023e-06
-1.50689e-06
-1.81394e-06
-2.07738e-06
-2.30472e-06
-2.50529e-06
-2.68987e-06
-2.86927e-06
-3.05268e-06
-3.2465e-06
-3.45398e-06
-3.67563e-06
-3.90999e-06
-4.15448e-06
-4.40647e-06
-4.66352e-06
-4.92359e-06
-5.18518e-06
-5.44705e-06
-5.70841e-06
-5.96893e-06
-6.22845e-06
-6.48723e-06
-6.74586e-06
-7.00479e-06
-7.26442e-06
-7.52495e-06
-7.78611e-06
-8.04749e-06
-8.30884e-06
-8.56999e-06
-8.83093e-06
-9.09173e-06
-9.35204e-06
-9.61084e-06
-9.86656e-06
-1.01173e-05
-1.03612e-05
-1.05976e-05
-1.08273e-05
-1.10531e-05
-1.12791e-05
-1.15109e-05
-1.17536e-05
-1.20109e-05
-1.22844e-05
-1.25737e-05
-1.28753e-05
-1.3184e-05
-1.34931e-05
-1.37954e-05
-1.40841e-05
-1.43536e-05
-1.46007e-05
-1.48255e-05
-1.50315e-05
-1.52253e-05
-1.54159e-05
-1.5613e-05
-1.58248e-05
-1.60559e-05
-1.63068e-05
-1.65732e-05
-1.68475e-05
-1.71206e-05
-1.73852e-05
-1.76371e-05
-1.78763e-05
-1.81067e-05
-1.83345e-05
-1.85654e-05
-1.88026e-05
-1.90456e-05
-1.92897e-05
-1.95283e-05
-1.97539e-05
-1.99611e-05
-2.01485e-05
-2.03193e-05
-2.04809e-05
-2.06433e-05
-2.08166e-05
-2.10093e-05
-2.12257e-05
-2.14658e-05
-2.17247e-05
-2.19941e-05
-2.22634e-05
-2.25218e-05
-2.27598e-05
-2.29719e-05
-2.31566e-05
-2.33171e-05
-2.34599e-05
-2.35935e-05
-2.37263e-05
-2.38642e-05
-2.40099e-05
-2.41624e-05
-2.4318e-05
-2.44724e-05
-2.46217e-05
-2.47638e-05
-2.48978e-05
-2.50239e-05
-2.51414e-05
-2.52486e-05
-2.53424e-05
-2.54196e-05
-2.54795e-05
-2.55242e-05
-2.55597e-05
-2.55949e-05
-2.56392e-05
-2.57007e-05
-2.57837e-05
-2.58874e-05
-2.60063e-05
-2.61316e-05
-2.62538e-05
-2.63642e-05
-2.64571e-05
-2.65304e-05
-2.65858e-05
-2.66273e-05
-2.66596e-05
-2.66864e-05
-2.67098e-05
-2.67299e-05
-2.67459e-05
-2.67577e-05
-2.67661e-05
-2.6773e-05
-2.67809e-05
-2.6791e-05
-2.68022e-05
-2.68108e-05
-2.6811e-05
-2.6797e-05
-2.67658e-05
-2.67179e-05
-2.66586e-05
-2.65961e-05
-2.65394e-05
-2.64956e-05
-2.64681e-05
-2.64553e-05
-2.64511e-05
-2.64462e-05
-2.6431e-05
-2.63978e-05
-2.63435e-05
-2.627e-05
-2.61828e-05
-2.60883e-05
-2.59898e-05
-2.58847e-05
-2.5765e-05
-2.56207e-05
-2.54459e-05
-2.52434e-05
-2.50264e-05
-2.48158e-05
-2.46327e-05
-2.44917e-05
-2.43948e-05
-2.43324e-05
-2.42854e-05
-2.42333e-05
-2.41589e-05
-2.40539e-05
-2.3919e-05
-2.37623e-05
-2.35953e-05
-2.34287e-05
-2.3269e-05
-2.31173e-05
-2.29696e-05
-2.28202e-05
-2.26636e-05
-2.24969e-05
-2.23199e-05
-2.2134e-05
-2.19404e-05
-2.17399e-05
-2.15329e-05
-2.13203e-05
-2.11035e-05
-2.08844e-05
-2.06637e-05
-2.04399e-05
-2.02086e-05
-1.99645e-05
-1.97025e-05
-1.94214e-05
-1.91237e-05
-1.88155e-05
-1.85036e-05
-1.81937e-05
-1.78884e-05
-1.75881e-05
-1.72922e-05
-1.70009e-05
-1.67152e-05
-1.6436e-05
-1.61622e-05
-1.58893e-05
-1.56103e-05
-1.53176e-05
-1.50055e-05
-1.46723e-05
-1.43211e-05
-1.3958e-05
-1.3591e-05
-1.32271e-05
-1.28717e-05
-1.25271e-05
-1.21928e-05
-1.18652e-05
-1.15393e-05
-1.12095e-05
-1.08718e-05
-1.05248e-05
-1.01704e-05
-9.81239e-06
-9.45561e-06
-9.104e-06
-8.75965e-06
-8.42267e-06
-8.09187e-06
-7.76556e-06
-7.44205e-06
-7.11995e-06
-6.79808e-06
-6.47533e-06
-6.15064e-06
-5.82314e-06
-5.49244e-06
-5.15868e-06
-4.82237e-06
-4.48415e-06
-4.14442e-06
-3.80317e-06
-3.45998e-06
-3.11442e-06
-2.76654e-06
-2.41749e-06
-2.07006e-06
-1.72893e-06
-1.40047e-06
-1.0917e-06
-8.08381e-07
-5.51918e-07
-3.15569e-07
-1.00455e-07
-4.70883e-07
-1.15945e-06
-1.56378e-06
-1.92381e-06
-2.23484e-06
-2.50405e-06
-2.74145e-06
-2.95866e-06
-3.16719e-06
-3.3768e-06
-3.59431e-06
-3.82352e-06
-4.06546e-06
-4.31918e-06
-4.58282e-06
-4.85414e-06
-5.13099e-06
-5.41155e-06
-5.69411e-06
-5.97725e-06
-6.25991e-06
-6.54121e-06
-6.82079e-06
-7.09888e-06
-7.37596e-06
-7.65277e-06
-7.93019e-06
-8.20875e-06
-8.48861e-06
-8.76982e-06
-9.05231e-06
-9.33596e-06
-9.62083e-06
-9.90678e-06
-1.0193e-05
-1.04782e-05
-1.07602e-05
-1.10362e-05
-1.13041e-05
-1.15628e-05
-1.18132e-05
-1.2058e-05
-1.23022e-05
-1.25517e-05
-1.28125e-05
-1.30888e-05
-1.33831e-05
-1.36951e-05
-1.40212e-05
-1.4356e-05
-1.46923e-05
-1.5022e-05
-1.53368e-05
-1.56302e-05
-1.5898e-05
-1.61397e-05
-1.63588e-05
-1.65632e-05
-1.67637e-05
-1.69722e-05
-1.71987e-05
-1.74496e-05
-1.77259e-05
-1.80228e-05
-1.83311e-05
-1.86401e-05
-1.89405e-05
-1.92266e-05
-1.94976e-05
-1.97576e-05
-2.0013e-05
-2.02702e-05
-2.05329e-05
-2.08006e-05
-2.10684e-05
-2.13288e-05
-2.15737e-05
-2.17977e-05
-2.19998e-05
-2.21844e-05
-2.23601e-05
-2.25384e-05
-2.27307e-05
-2.29463e-05
-2.31896e-05
-2.34599e-05
-2.37518e-05
-2.40562e-05
-2.43618e-05
-2.46572e-05
-2.49325e-05
-2.51816e-05
-2.54021e-05
-2.55962e-05
-2.57695e-05
-2.59296e-05
-2.60844e-05
-2.62403e-05
-2.64006e-05
-2.65651e-05
-2.67319e-05
-2.68977e-05
-2.70598e-05
-2.72168e-05
-2.73684e-05
-2.75146e-05
-2.76542e-05
-2.77845e-05
-2.79009e-05
-2.79988e-05
-2.8076e-05
-2.81337e-05
-2.81775e-05
-2.82167e-05
-2.82619e-05
-2.83228e-05
-2.84056e-05
-2.85115e-05
-2.86364e-05
-2.8772e-05
-2.89083e-05
-2.90359e-05
-2.91473e-05
-2.92393e-05
-2.93123e-05
-2.93698e-05
-2.94169e-05
-2.94582e-05
-2.94969e-05
-2.95341e-05
-2.95695e-05
-2.96021e-05
-2.96313e-05
-2.96569e-05
-2.96791e-05
-2.96973e-05
-2.97095e-05
-2.97122e-05
-2.97012e-05
-2.96733e-05
-2.96283e-05
-2.95692e-05
-2.9503e-05
-2.94386e-05
-2.93847e-05
-2.93472e-05
-2.93281e-05
-2.93241e-05
-2.9328e-05
-2.93299e-05
-2.93198e-05
-2.92903e-05
-2.92381e-05
-2.91654e-05
-2.9078e-05
-2.89824e-05
-2.88819e-05
-2.87737e-05
-2.86493e-05
-2.8498e-05
-2.83135e-05
-2.80991e-05
-2.78694e-05
-2.76473e-05
-2.74562e-05
-2.73121e-05
-2.72176e-05
-2.7161e-05
-2.71209e-05
-2.70727e-05
-2.6997e-05
-2.68835e-05
-2.67334e-05
-2.65562e-05
-2.63661e-05
-2.6176e-05
-2.59939e-05
-2.58216e-05
-2.5655e-05
-2.54875e-05
-2.53126e-05
-2.5127e-05
-2.493e-05
-2.47232e-05
-2.45083e-05
-2.42865e-05
-2.40586e-05
-2.38258e-05
-2.359e-05
-2.33528e-05
-2.31144e-05
-2.28719e-05
-2.26194e-05
-2.23497e-05
-2.20566e-05
-2.17382e-05
-2.13977e-05
-2.1042e-05
-2.06798e-05
-2.03183e-05
-1.99622e-05
-1.96137e-05
-1.92738e-05
-1.89441e-05
-1.86264e-05
-1.83209e-05
-1.80245e-05
-1.77302e-05
-1.7428e-05
-1.71076e-05
-1.6762e-05
-1.63899e-05
-1.59954e-05
-1.55868e-05
-1.51738e-05
-1.47651e-05
-1.4367e-05
-1.39822e-05
-1.36099e-05
-1.32459e-05
-1.28839e-05
-1.25174e-05
-1.21419e-05
-1.1756e-05
-1.13622e-05
-1.09652e-05
-1.05704e-05
-1.01816e-05
-9.80025e-06
-9.42562e-06
-9.05573e-06
-8.68852e-06
-8.32251e-06
-7.95691e-06
-7.59132e-06
-7.22532e-06
-6.85834e-06
-6.4897e-06
-6.11889e-06
-5.74575e-06
-5.37046e-06
-4.99338e-06
-4.6147e-06
-4.23425e-06
-3.85155e-06
-3.46608e-06
-3.07783e-06
-2.68802e-06
-2.29976e-06
-1.91839e-06
-1.55128e-06
-1.20667e-06
-8.91338e-07
-6.07102e-07
-3.46457e-07
-1.1016e-07
-4.53036e-07
-1.13785e-06
-1.57459e-06
-1.96872e-06
-2.31436e-06
-2.61739e-06
-2.88707e-06
-3.13453e-06
-3.3709e-06
-3.60561e-06
-3.84551e-06
-4.09452e-06
-4.35403e-06
-4.62381e-06
-4.90264e-06
-5.18888e-06
-5.4809e-06
-5.77697e-06
-6.07541e-06
-6.37463e-06
-6.67303e-06
-6.96935e-06
-7.26302e-06
-7.55404e-06
-7.84304e-06
-8.13128e-06
-8.42004e-06
-8.71035e-06
-9.00303e-06
-9.29851e-06
-9.59683e-06
-9.89801e-06
-1.02019e-05
-1.0508e-05
-1.08153e-05
-1.11217e-05
-1.14247e-05
-1.17209e-05
-1.20078e-05
-1.22839e-05
-1.25497e-05
-1.28081e-05
-1.30644e-05
-1.3325e-05
-1.35961e-05
-1.38829e-05
-1.41885e-05
-1.45127e-05
-1.48527e-05
-1.52032e-05
-1.55565e-05
-1.59041e-05
-1.62368e-05
-1.65472e-05
-1.683e-05
-1.70839e-05
-1.73126e-05
-1.75245e-05
-1.77321e-05
-1.79487e-05
-1.81866e-05
-1.84537e-05
-1.87515e-05
-1.9075e-05
-1.94138e-05
-1.97557e-05
-2.00891e-05
-2.0407e-05
-2.07078e-05
-2.0995e-05
-2.12754e-05
-2.15555e-05
-2.18394e-05
-2.21266e-05
-2.24123e-05
-2.26884e-05
-2.29469e-05
-2.31824e-05
-2.33945e-05
-2.35885e-05
-2.37741e-05
-2.3964e-05
-2.41705e-05
-2.44029e-05
-2.46655e-05
-2.49575e-05
-2.52731e-05
-2.56029e-05
-2.59358e-05
-2.62608e-05
-2.65681e-05
-2.6851e-05
-2.71061e-05
-2.73339e-05
-2.7538e-05
-2.77247e-05
-2.79008e-05
-2.80722e-05
-2.82429e-05
-2.84146e-05
-2.85868e-05
-2.87584e-05
-2.89281e-05
-2.90956e-05
-2.92613e-05
-2.94251e-05
-2.95854e-05
-2.97383e-05
-2.98781e-05
-2.99987e-05
-3.00958e-05
-3.01694e-05
-3.02241e-05
-3.0269e-05
-3.03155e-05
-3.03746e-05
-3.04546e-05
-3.05586e-05
-3.06846e-05
-3.08256e-05
-3.09716e-05
-3.11121e-05
-3.12383e-05
-3.13449e-05
-3.14312e-05
-3.15001e-05
-3.15568e-05
-3.16072e-05
-3.16562e-05
-3.17067e-05
-3.17593e-05
-3.18128e-05
-3.18646e-05
-3.1912e-05
-3.19519e-05
-3.19813e-05
-3.19967e-05
-3.19947e-05
-3.1973e-05
-3.19313e-05
-3.18723e-05
-3.18024e-05
-3.17301e-05
-3.16646e-05
-3.16142e-05
-3.15831e-05
-3.15715e-05
-3.15747e-05
-3.15846e-05
-3.15911e-05
-3.15846e-05
-3.15581e-05
-3.15088e-05
-3.14388e-05
-3.13536e-05
-3.12597e-05
-3.11599e-05
-3.10516e-05
-3.09261e-05
-3.07728e-05
-3.05854e-05
-3.03677e-05
-3.01353e-05
-2.99122e-05
-2.97233e-05
-2.95851e-05
-2.94999e-05
-2.94541e-05
-2.94237e-05
-2.93814e-05
-2.93056e-05
-2.91851e-05
-2.90215e-05
-2.88262e-05
-2.86156e-05
-2.84048e-05
-2.82034e-05
-2.80135e-05
-2.78306e-05
-2.76472e-05
-2.74562e-05
-2.72534e-05
-2.7038e-05
-2.68118e-05
-2.65771e-05
-2.63363e-05
-2.60909e-05
-2.58428e-05
-2.55941e-05
-2.53462e-05
-2.50978e-05
-2.48442e-05
-2.45776e-05
-2.42885e-05
-2.39701e-05
-2.36199e-05
-2.32414e-05
-2.2843e-05
-2.24345e-05
-2.20253e-05
-2.16219e-05
-2.12288e-05
-2.08494e-05
-2.0487e-05
-2.01439e-05
-1.98198e-05
-1.95093e-05
-1.92019e-05
-1.88843e-05
-1.85436e-05
-1.81718e-05
-1.7768e-05
-1.7338e-05
-1.6892e-05
-1.64418e-05
-1.59974e-05
-1.55659e-05
-1.51499e-05
-1.47482e-05
-1.43555e-05
-1.39644e-05
-1.35678e-05
-1.3161e-05
-1.27433e-05
-1.23182e-05
-1.18914e-05
-1.14687e-05
-1.10533e-05
-1.06453e-05
-1.02423e-05
-9.84126e-06
-9.43943e-06
-9.03574e-06
-8.6305e-06
-8.22474e-06
-7.81938e-06
-7.41479e-06
-7.0107e-06
-6.60651e-06
-6.20158e-06
-5.79548e-06
-5.38799e-06
-4.9789e-06
-4.56781e-06
-4.15408e-06
-3.73712e-06
-3.31688e-06
-2.89461e-06
-2.47368e-06
-2.06007e-06
-1.66211e-06
-1.28922e-06
-9.49248e-07
-6.44492e-07
-3.6686e-07
-1.16476e-07
-4.32919e-07
-1.1031e-06
-1.55551e-06
-1.96984e-06
-2.33939e-06
-2.66864e-06
-2.96565e-06
-3.24038e-06
-3.50277e-06
-3.76143e-06
-4.02267e-06
-4.29023e-06
-4.56584e-06
-4.84976e-06
-5.14144e-06
-5.43998e-06
-5.74417e-06
-6.0526e-06
-6.36365e-06
-6.67538e-06
-6.98573e-06
-7.29312e-06
-7.59655e-06
-7.89589e-06
-8.19218e-06
-8.48711e-06
-8.78255e-06
-9.08035e-06
-9.38192e-06
-9.68796e-06
-9.99877e-06
-1.03143e-05
-1.0634e-05
-1.0957e-05
-1.12818e-05
-1.1606e-05
-1.19263e-05
-1.22394e-05
-1.2542e-05
-1.28322e-05
-1.311e-05
-1.33785e-05
-1.36428e-05
-1.39094e-05
-1.41851e-05
-1.44757e-05
-1.47848e-05
-1.5113e-05
-1.54583e-05
-1.58156e-05
-1.61777e-05
-1.65357e-05
-1.68803e-05
-1.7203e-05
-1.74977e-05
-1.77622e-05
-1.80001e-05
-1.82201e-05
-1.84352e-05
-1.86602e-05
-1.89091e-05
-1.91909e-05
-1.95079e-05
-1.98549e-05
-2.02211e-05
-2.05926e-05
-2.09563e-05
-2.13035e-05
-2.16317e-05
-2.19439e-05
-2.22466e-05
-2.25465e-05
-2.28477e-05
-2.315e-05
-2.34487e-05
-2.37358e-05
-2.40036e-05
-2.42474e-05
-2.44672e-05
-2.46688e-05
-2.4863e-05
-2.50628e-05
-2.52805e-05
-2.55252e-05
-2.58009e-05
-2.61065e-05
-2.64365e-05
-2.6782e-05
-2.71331e-05
-2.74796e-05
-2.78127e-05
-2.81254e-05
-2.84128e-05
-2.86733e-05
-2.89081e-05
-2.9121e-05
-2.93172e-05
-2.9502e-05
-2.96802e-05
-2.9855e-05
-3.00283e-05
-3.02009e-05
-3.03734e-05
-3.05471e-05
-3.07228e-05
-3.0901e-05
-3.10795e-05
-3.12537e-05
-3.14167e-05
-3.15608e-05
-3.168e-05
-3.17724e-05
-3.18411e-05
-3.18944e-05
-3.19439e-05
-3.20018e-05
-3.20778e-05
-3.21777e-05
-3.23012e-05
-3.24431e-05
-3.25936e-05
-3.27414e-05
-3.28762e-05
-3.29908e-05
-3.30827e-05
-3.31543e-05
-3.32112e-05
-3.32611e-05
-3.33112e-05
-3.33669e-05
-3.34303e-05
-3.35003e-05
-3.35729e-05
-3.36422e-05
-3.37018e-05
-3.37451e-05
-3.37669e-05
-3.37634e-05
-3.37338e-05
-3.36806e-05
-3.36097e-05
-3.35302e-05
-3.34524e-05
-3.3386e-05
-3.33379e-05
-3.3311e-05
-3.33038e-05
-3.33102e-05
-3.33217e-05
-3.33286e-05
-3.33222e-05
-3.32962e-05
-3.32485e-05
-3.31811e-05
-3.30988e-05
-3.30075e-05
-3.29097e-05
-3.28027e-05
-3.26781e-05
-3.25262e-05
-3.23414e-05
-3.21278e-05
-3.19017e-05
-3.16871e-05
-3.15091e-05
-3.13838e-05
-3.13122e-05
-3.12795e-05
-3.12592e-05
-3.12222e-05
-3.11454e-05
-3.10176e-05
-3.08414e-05
-3.06301e-05
-3.04019e-05
-3.01739e-05
-2.99566e-05
-2.97522e-05
-2.9556e-05
-2.93592e-05
-2.91538e-05
-2.89348e-05
-2.87015e-05
-2.8456e-05
-2.82017e-05
-2.79423e-05
-2.7681e-05
-2.74207e-05
-2.71637e-05
-2.69104e-05
-2.66579e-05
-2.63991e-05
-2.61236e-05
-2.58202e-05
-2.54811e-05
-2.51038e-05
-2.46924e-05
-2.42562e-05
-2.38065e-05
-2.33542e-05
-2.29078e-05
-2.24746e-05
-2.20604e-05
-2.16705e-05
-2.1308e-05
-2.09714e-05
-2.06528e-05
-2.03383e-05
-2.00107e-05
-1.96548e-05
-1.9262e-05
-1.88323e-05