/*--------------------------------*- C++ -*----------------------------------*\
| =========                 |                                                 |
| \\      /  F ield         | OpenFOAM: The Open Source CFD Toolbox           |
|  \\    /   O peration     | Version:  v2012                                 |
|   \\  /    A nd           | Website:  www.openfoam.com                      |
|    \\/     M anipulation  |                                                 |
\*---------------------------------------------------------------------------*/
FoamFile
{
    version     2.0;
    format      ascii;
    class       volVectorField;
    location    "5.5";
    object      Psi;
}
// * * * * * * * * * * * * * * * * * * * * * * * * * * * * * * * * * * * * * //

dimensions      [0 2 -1 0 0 0 0];


internalField   nonuniform List<vector> 
65536
(
(0 0 9.1509e-06)
(0 0 2.74523e-05)
(0 0 4.57527e-05)
(0 0 6.40513e-05)
(0 0 8.23475e-05)
(0 0 0.00010064)
(0 0 0.00011893)
(0 0 0.000137214)
(0 0 0.000155493)
(0 0 0.000173766)
(0 0 0.000192031)
(0 0 0.000210289)
(0 0 0.000228537)
(0 0 0.000246776)
(0 0 0.000265004)
(0 0 0.000283221)
(0 0 0.000301424)
(0 0 0.000319613)
(0 0 0.000337787)
(0 0 0.000355945)
(0 0 0.000374084)
(0 0 0.000392205)
(0 0 0.000410305)
(0 0 0.000428382)
(0 0 0.000446436)
(0 0 0.000464465)
(0 0 0.000482466)
(0 0 0.000500438)
(0 0 0.00051838)
(0 0 0.000536288)
(0 0 0.000554162)
(0 0 0.000571998)
(0 0 0.000589795)
(0 0 0.000607551)
(0 0 0.000625262)
(0 0 0.000642926)
(0 0 0.000660541)
(0 0 0.000678104)
(0 0 0.000695612)
(0 0 0.000713063)
(0 0 0.000730452)
(0 0 0.000747777)
(0 0 0.000765035)
(0 0 0.000782223)
(0 0 0.000799336)
(0 0 0.000816372)
(0 0 0.000833327)
(0 0 0.000850197)
(0 0 0.000866978)
(0 0 0.000883667)
(0 0 0.000900259)
(0 0 0.00091675)
(0 0 0.000933136)
(0 0 0.000949413)
(0 0 0.000965577)
(0 0 0.000981623)
(0 0 0.000997546)
(0 0 0.00101334)
(0 0 0.00102901)
(0 0 0.00104454)
(0 0 0.00105992)
(0 0 0.00107516)
(0 0 0.00109025)
(0 0 0.00110519)
(0 0 0.00111996)
(0 0 0.00113457)
(0 0 0.00114901)
(0 0 0.00116327)
(0 0 0.00117735)
(0 0 0.00119125)
(0 0 0.00120495)
(0 0 0.00121846)
(0 0 0.00123177)
(0 0 0.00124487)
(0 0 0.00125776)
(0 0 0.00127044)
(0 0 0.00128289)
(0 0 0.00129512)
(0 0 0.00130712)
(0 0 0.00131888)
(0 0 0.00133041)
(0 0 0.00134168)
(0 0 0.00135271)
(0 0 0.00136349)
(0 0 0.00137401)
(0 0 0.00138426)
(0 0 0.00139425)
(0 0 0.00140397)
(0 0 0.00141342)
(0 0 0.00142259)
(0 0 0.00143147)
(0 0 0.00144008)
(0 0 0.00144839)
(0 0 0.00145641)
(0 0 0.00146414)
(0 0 0.00147157)
(0 0 0.00147871)
(0 0 0.00148554)
(0 0 0.00149206)
(0 0 0.00149828)
(0 0 0.00150419)
(0 0 0.00150979)
(0 0 0.00151508)
(0 0 0.00152006)
(0 0 0.00152472)
(0 0 0.00152907)
(0 0 0.0015331)
(0 0 0.00153681)
(0 0 0.00154021)
(0 0 0.00154329)
(0 0 0.00154605)
(0 0 0.0015485)
(0 0 0.00155063)
(0 0 0.00155244)
(0 0 0.00155394)
(0 0 0.00155512)
(0 0 0.00155599)
(0 0 0.00155654)
(0 0 0.00155679)
(0 0 0.00155672)
(0 0 0.00155635)
(0 0 0.00155567)
(0 0 0.00155469)
(0 0 0.00155341)
(0 0 0.00155183)
(0 0 0.00154995)
(0 0 0.00154778)
(0 0 0.00154531)
(0 0 0.00154256)
(0 0 0.00153952)
(0 0 0.0015362)
(0 0 0.0015326)
(0 0 0.00152872)
(0 0 0.00152457)
(0 0 0.00152016)
(0 0 0.00151547)
(0 0 0.00151053)
(0 0 0.00150532)
(0 0 0.00149986)
(0 0 0.00149415)
(0 0 0.00148819)
(0 0 0.00148199)
(0 0 0.00147555)
(0 0 0.00146887)
(0 0 0.00146197)
(0 0 0.00145483)
(0 0 0.00144747)
(0 0 0.0014399)
(0 0 0.0014321)
(0 0 0.0014241)
(0 0 0.00141589)
(0 0 0.00140747)
(0 0 0.00139886)
(0 0 0.00139005)
(0 0 0.00138105)
(0 0 0.00137186)
(0 0 0.00136249)
(0 0 0.00135294)
(0 0 0.00134322)
(0 0 0.00133332)
(0 0 0.00132326)
(0 0 0.00131303)
(0 0 0.00130265)
(0 0 0.00129211)
(0 0 0.00128141)
(0 0 0.00127057)
(0 0 0.00125959)
(0 0 0.00124846)
(0 0 0.00123719)
(0 0 0.00122579)
(0 0 0.00121426)
(0 0 0.00120261)
(0 0 0.00119083)
(0 0 0.00117893)
(0 0 0.00116691)
(0 0 0.00115478)
(0 0 0.00114253)
(0 0 0.00113018)
(0 0 0.00111773)
(0 0 0.00110517)
(0 0 0.00109251)
(0 0 0.00107976)
(0 0 0.00106692)
(0 0 0.00105399)
(0 0 0.00104096)
(0 0 0.00102786)
(0 0 0.00101467)
(0 0 0.0010014)
(0 0 0.000988056)
(0 0 0.000974636)
(0 0 0.000961145)
(0 0 0.000947583)
(0 0 0.000933954)
(0 0 0.00092026)
(0 0 0.000906503)
(0 0 0.000892685)
(0 0 0.000878808)
(0 0 0.000864874)
(0 0 0.000850886)
(0 0 0.000836845)
(0 0 0.000822753)
(0 0 0.000808612)
(0 0 0.000794423)
(0 0 0.000780189)
(0 0 0.000765912)
(0 0 0.000751592)
(0 0 0.000737232)
(0 0 0.000722832)
(0 0 0.000708396)
(0 0 0.000693923)
(0 0 0.000679416)
(0 0 0.000664877)
(0 0 0.000650305)
(0 0 0.000635703)
(0 0 0.000621072)
(0 0 0.000606413)
(0 0 0.000591727)
(0 0 0.000577016)
(0 0 0.000562281)
(0 0 0.000547522)
(0 0 0.000532741)
(0 0 0.000517939)
(0 0 0.000503117)
(0 0 0.000488275)
(0 0 0.000473416)
(0 0 0.000458539)
(0 0 0.000443645)
(0 0 0.000428736)
(0 0 0.000413812)
(0 0 0.000398874)
(0 0 0.000383922)
(0 0 0.000368958)
(0 0 0.000353982)
(0 0 0.000338994)
(0 0 0.000323996)
(0 0 0.000308988)
(0 0 0.000293971)
(0 0 0.000278945)
(0 0 0.000263911)
(0 0 0.000248869)
(0 0 0.00023382)
(0 0 0.000218764)
(0 0 0.000203702)
(0 0 0.000188635)
(0 0 0.000173563)
(0 0 0.000158486)
(0 0 0.000143404)
(0 0 0.000128319)
(0 0 0.00011323)
(0 0 9.8139e-05)
(0 0 8.30449e-05)
(0 0 6.79488e-05)
(0 0 5.28508e-05)
(0 0 3.77516e-05)
(0 0 2.26513e-05)
(0 0 7.5505e-06)
(0 0 2.7453e-05)
(0 0 8.23579e-05)
(0 0 0.00013726)
(0 0 0.000192156)
(0 0 0.000247046)
(0 0 0.000301925)
(0 0 0.000356793)
(0 0 0.000411647)
(0 0 0.000466485)
(0 0 0.000521304)
(0 0 0.000576101)
(0 0 0.000630875)
(0 0 0.000685622)
(0 0 0.00074034)
(0 0 0.000795025)
(0 0 0.000849675)
(0 0 0.000904286)
(0 0 0.000958855)
(0 0 0.00101338)
(0 0 0.00106785)
(0 0 0.00112227)
(0 0 0.00117663)
(0 0 0.00123094)
(0 0 0.00128517)
(0 0 0.00133933)
(0 0 0.00139342)
(0 0 0.00144743)
(0 0 0.00150134)
(0 0 0.00155517)
(0 0 0.0016089)
(0 0 0.00166252)
(0 0 0.00171603)
(0 0 0.00176943)
(0 0 0.0018227)
(0 0 0.00187583)
(0 0 0.00192883)
(0 0 0.00198167)
(0 0 0.00203437)
(0 0 0.00208689)
(0 0 0.00213925)
(0 0 0.00219142)
(0 0 0.0022434)
(0 0 0.00229518)
(0 0 0.00234674)
(0 0 0.00239808)
(0 0 0.0024492)
(0 0 0.00250006)
(0 0 0.00255068)
(0 0 0.00260103)
(0 0 0.0026511)
(0 0 0.00270088)
(0 0 0.00275035)
(0 0 0.00279952)
(0 0 0.00284835)
(0 0 0.00289685)
(0 0 0.00294499)
(0 0 0.00299276)
(0 0 0.00304016)
(0 0 0.00308716)
(0 0 0.00313375)
(0 0 0.00317991)
(0 0 0.00322564)
(0 0 0.00327092)
(0 0 0.00331573)
(0 0 0.00336006)
(0 0 0.00340389)
(0 0 0.0034472)
(0 0 0.00349)
(0 0 0.00353224)
(0 0 0.00357394)
(0 0 0.00361506)
(0 0 0.00365559)
(0 0 0.00369552)
(0 0 0.00373483)
(0 0 0.00377351)
(0 0 0.00381154)
(0 0 0.0038489)
(0 0 0.00388559)
(0 0 0.00392159)
(0 0 0.00395689)
(0 0 0.00399146)
(0 0 0.0040253)
(0 0 0.00405839)
(0 0 0.00409073)
(0 0 0.00412228)
(0 0 0.00415306)
(0 0 0.00418303)
(0 0 0.00421219)
(0 0 0.00424053)
(0 0 0.00426804)
(0 0 0.00429471)
(0 0 0.00432052)
(0 0 0.00434546)
(0 0 0.00436953)
(0 0 0.00439272)
(0 0 0.00441502)
(0 0 0.00443642)
(0 0 0.00445691)
(0 0 0.00447649)
(0 0 0.00449515)
(0 0 0.00451289)
(0 0 0.00452969)
(0 0 0.00454556)
(0 0 0.00456049)
(0 0 0.00457448)
(0 0 0.00458752)
(0 0 0.00459961)
(0 0 0.00461076)
(0 0 0.00462095)
(0 0 0.00463019)
(0 0 0.00463847)
(0 0 0.00464581)
(0 0 0.00465219)
(0 0 0.00465763)
(0 0 0.00466212)
(0 0 0.00466567)
(0 0 0.00466827)
(0 0 0.00466994)
(0 0 0.00467067)
(0 0 0.00467048)
(0 0 0.00466936)
(0 0 0.00466733)
(0 0 0.00466438)
(0 0 0.00466053)
(0 0 0.00465578)
(0 0 0.00465014)
(0 0 0.00464362)
(0 0 0.00463623)
(0 0 0.00462796)
(0 0 0.00461885)
(0 0 0.00460888)
(0 0 0.00459808)
(0 0 0.00458644)
(0 0 0.00457399)
(0 0 0.00456073)
(0 0 0.00454668)
(0 0 0.00453183)
(0 0 0.00451622)
(0 0 0.00449983)
(0 0 0.0044827)
(0 0 0.00446482)
(0 0 0.00444621)
(0 0 0.00442688)
(0 0 0.00440685)
(0 0 0.00438613)
(0 0 0.00436472)
(0 0 0.00434264)
(0 0 0.0043199)
(0 0 0.00429652)
(0 0 0.0042725)
(0 0 0.00424786)
(0 0 0.00422261)
(0 0 0.00419677)
(0 0 0.00417033)
(0 0 0.00414333)
(0 0 0.00411577)
(0 0 0.00408765)
(0 0 0.004059)
(0 0 0.00402982)
(0 0 0.00400014)
(0 0 0.00396994)
(0 0 0.00393926)
(0 0 0.0039081)
(0 0 0.00387647)
(0 0 0.00384439)
(0 0 0.00381186)
(0 0 0.0037789)
(0 0 0.00374551)
(0 0 0.00371171)
(0 0 0.00367751)
(0 0 0.00364292)
(0 0 0.00360794)
(0 0 0.0035726)
(0 0 0.00353689)
(0 0 0.00350084)
(0 0 0.00346444)
(0 0 0.0034277)
(0 0 0.00339065)
(0 0 0.00335328)
(0 0 0.00331561)
(0 0 0.00327764)
(0 0 0.00323938)
(0 0 0.00320085)
(0 0 0.00316204)
(0 0 0.00312298)
(0 0 0.00308365)
(0 0 0.00304409)
(0 0 0.00300428)
(0 0 0.00296424)
(0 0 0.00292398)
(0 0 0.0028835)
(0 0 0.00284282)
(0 0 0.00280193)
(0 0 0.00276084)
(0 0 0.00271957)
(0 0 0.00267811)
(0 0 0.00263648)
(0 0 0.00259468)
(0 0 0.00255271)
(0 0 0.00251059)
(0 0 0.00246831)
(0 0 0.00242588)
(0 0 0.00238332)
(0 0 0.00234061)
(0 0 0.00229778)
(0 0 0.00225482)
(0 0 0.00221173)
(0 0 0.00216854)
(0 0 0.00212522)
(0 0 0.0020818)
(0 0 0.00203828)
(0 0 0.00199466)
(0 0 0.00195095)
(0 0 0.00190714)
(0 0 0.00186324)
(0 0 0.00181926)
(0 0 0.00177521)
(0 0 0.00173107)
(0 0 0.00168687)
(0 0 0.00164259)
(0 0 0.00159824)
(0 0 0.00155384)
(0 0 0.00150937)
(0 0 0.00146484)
(0 0 0.00142027)
(0 0 0.00137563)
(0 0 0.00133095)
(0 0 0.00128622)
(0 0 0.00124145)
(0 0 0.00119663)
(0 0 0.00115178)
(0 0 0.00110689)
(0 0 0.00106196)
(0 0 0.00101699)
(0 0 0.000971999)
(0 0 0.000926974)
(0 0 0.000881922)
(0 0 0.000836843)
(0 0 0.00079174)
(0 0 0.000746614)
(0 0 0.000701466)
(0 0 0.000656299)
(0 0 0.000611113)
(0 0 0.000565911)
(0 0 0.000520693)
(0 0 0.000475461)
(0 0 0.000430216)
(0 0 0.00038496)
(0 0 0.000339694)
(0 0 0.00029442)
(0 0 0.000249137)
(0 0 0.000203848)
(0 0 0.000158554)
(0 0 0.000113256)
(0 0 6.79545e-05)
(0 0 2.26517e-05)
(0 0 4.57561e-05)
(0 0 0.000137267)
(0 0 0.000228772)
(0 0 0.000320269)
(0 0 0.000411753)
(0 0 0.000503222)
(0 0 0.000594671)
(0 0 0.000686097)
(0 0 0.000777495)
(0 0 0.000868863)
(0 0 0.000960195)
(0 0 0.00105149)
(0 0 0.00114274)
(0 0 0.00123394)
(0 0 0.00132508)
(0 0 0.00141617)
(0 0 0.00150719)
(0 0 0.00159814)
(0 0 0.00168902)
(0 0 0.00177981)
(0 0 0.00187052)
(0 0 0.00196113)
(0 0 0.00205163)
(0 0 0.00214203)
(0 0 0.00223231)
(0 0 0.00232246)
(0 0 0.00241247)
(0 0 0.00250234)
(0 0 0.00259206)
(0 0 0.00268161)
(0 0 0.00277099)
(0 0 0.00286019)
(0 0 0.00294918)
(0 0 0.00303797)
(0 0 0.00312654)
(0 0 0.00321488)
(0 0 0.00330296)
(0 0 0.00339079)
(0 0 0.00347835)
(0 0 0.00356562)
(0 0 0.00365258)
(0 0 0.00373922)
(0 0 0.00382553)
(0 0 0.00391148)
(0 0 0.00399707)
(0 0 0.00408226)
(0 0 0.00416706)
(0 0 0.00425143)
(0 0 0.00433535)
(0 0 0.00441881)
(0 0 0.00450179)
(0 0 0.00458427)
(0 0 0.00466622)
(0 0 0.00474763)
(0 0 0.00482847)
(0 0 0.00490872)
(0 0 0.00498836)
(0 0 0.00506737)
(0 0 0.00514572)
(0 0 0.00522338)
(0 0 0.00530034)
(0 0 0.00537657)
(0 0 0.00545205)
(0 0 0.00552675)
(0 0 0.00560064)
(0 0 0.00567371)
(0 0 0.00574593)
(0 0 0.00581726)
(0 0 0.00588769)
(0 0 0.0059572)
(0 0 0.00602575)
(0 0 0.00609332)
(0 0 0.00615988)
(0 0 0.00622542)
(0 0 0.0062899)
(0 0 0.0063533)
(0 0 0.00641559)
(0 0 0.00647676)
(0 0 0.00653677)
(0 0 0.00659561)
(0 0 0.00665325)
(0 0 0.00670966)
(0 0 0.00676483)
(0 0 0.00681873)
(0 0 0.00687135)
(0 0 0.00692265)
(0 0 0.00697262)
(0 0 0.00702124)
(0 0 0.00706848)
(0 0 0.00711434)
(0 0 0.00715879)
(0 0 0.00720182)
(0 0 0.00724341)
(0 0 0.00728354)
(0 0 0.0073222)
(0 0 0.00735937)
(0 0 0.00739504)
(0 0 0.00742921)
(0 0 0.00746185)
(0 0 0.00749295)
(0 0 0.00752252)
(0 0 0.00755053)
(0 0 0.00757698)
(0 0 0.00760187)
(0 0 0.00762518)
(0 0 0.00764692)
(0 0 0.00766708)
(0 0 0.00768565)
(0 0 0.00770264)
(0 0 0.00771804)
(0 0 0.00773185)
(0 0 0.00774407)
(0 0 0.00775471)
(0 0 0.00776377)
(0 0 0.00777125)
(0 0 0.00777715)
(0 0 0.00778149)
(0 0 0.00778426)
(0 0 0.00778548)
(0 0 0.00778515)
(0 0 0.00778329)
(0 0 0.00777989)
(0 0 0.00777497)
(0 0 0.00776854)
(0 0 0.00776062)
(0 0 0.00775122)
(0 0 0.00774034)
(0 0 0.007728)
(0 0 0.00771422)
(0 0 0.00769902)
(0 0 0.0076824)
(0 0 0.00766438)
(0 0 0.00764498)
(0 0 0.00762422)
(0 0 0.00760211)
(0 0 0.00757867)
(0 0 0.00755392)
(0 0 0.00752788)
(0 0 0.00750056)
(0 0 0.00747198)
(0 0 0.00744218)
(0 0 0.00741115)
(0 0 0.00737893)
(0 0 0.00734553)
(0 0 0.00731097)
(0 0 0.00727527)
(0 0 0.00723846)
(0 0 0.00720055)
(0 0 0.00716156)
(0 0 0.00712152)
(0 0 0.00708044)
(0 0 0.00703835)
(0 0 0.00699526)
(0 0 0.00695119)
(0 0 0.00690617)
(0 0 0.00686022)
(0 0 0.00681335)
(0 0 0.00676559)
(0 0 0.00671695)
(0 0 0.00666745)
(0 0 0.00661712)
(0 0 0.00656597)
(0 0 0.00651402)
(0 0 0.0064613)
(0 0 0.00640781)
(0 0 0.00635358)
(0 0 0.00629863)
(0 0 0.00624298)
(0 0 0.00618663)
(0 0 0.00612962)
(0 0 0.00607195)
(0 0 0.00601365)
(0 0 0.00595473)
(0 0 0.00589521)
(0 0 0.00583511)
(0 0 0.00577443)
(0 0 0.0057132)
(0 0 0.00565143)
(0 0 0.00558914)
(0 0 0.00552634)
(0 0 0.00546305)
(0 0 0.00539928)
(0 0 0.00533505)
(0 0 0.00527036)
(0 0 0.00520524)
(0 0 0.0051397)
(0 0 0.00507374)
(0 0 0.00500739)
(0 0 0.00494065)
(0 0 0.00487354)
(0 0 0.00480607)
(0 0 0.00473825)
(0 0 0.0046701)
(0 0 0.00460162)
(0 0 0.00453282)
(0 0 0.00446372)
(0 0 0.00439432)
(0 0 0.00432465)
(0 0 0.00425469)
(0 0 0.00418448)
(0 0 0.00411401)
(0 0 0.00404329)
(0 0 0.00397234)
(0 0 0.00390117)
(0 0 0.00382977)
(0 0 0.00375816)
(0 0 0.00368635)
(0 0 0.00361435)
(0 0 0.00354216)
(0 0 0.00346979)
(0 0 0.00339725)
(0 0 0.00332454)
(0 0 0.00325168)
(0 0 0.00317866)
(0 0 0.0031055)
(0 0 0.0030322)
(0 0 0.00295876)
(0 0 0.0028852)
(0 0 0.00281152)
(0 0 0.00273772)
(0 0 0.00266381)
(0 0 0.0025898)
(0 0 0.00251568)
(0 0 0.00244147)
(0 0 0.00236717)
(0 0 0.00229278)
(0 0 0.0022183)
(0 0 0.00214375)
(0 0 0.00206913)
(0 0 0.00199443)
(0 0 0.00191967)
(0 0 0.00184485)
(0 0 0.00176996)
(0 0 0.00169502)
(0 0 0.00162003)
(0 0 0.00154499)
(0 0 0.0014699)
(0 0 0.00139477)
(0 0 0.00131959)
(0 0 0.00124438)
(0 0 0.00116913)
(0 0 0.00109385)
(0 0 0.00101854)
(0 0 0.000943202)
(0 0 0.000867837)
(0 0 0.000792449)
(0 0 0.00071704)
(0 0 0.000641612)
(0 0 0.000566167)
(0 0 0.000490708)
(0 0 0.000415235)
(0 0 0.000339753)
(0 0 0.000264261)
(0 0 0.000188763)
(0 0 0.000113259)
(0 0 3.77535e-05)
(0 0 6.4061e-05)
(0 0 0.000192181)
(0 0 0.000320293)
(0 0 0.000448393)
(0 0 0.000576477)
(0 0 0.000704538)
(0 0 0.000832572)
(0 0 0.000960574)
(0 0 0.00108854)
(0 0 0.00121646)
(0 0 0.00134433)
(0 0 0.00147214)
(0 0 0.0015999)
(0 0 0.00172758)
(0 0 0.0018552)
(0 0 0.00198272)
(0 0 0.00211016)
(0 0 0.00223751)
(0 0 0.00236474)
(0 0 0.00249186)
(0 0 0.00261886)
(0 0 0.00274572)
(0 0 0.00287244)
(0 0 0.00299901)
(0 0 0.00312541)
(0 0 0.00325163)
(0 0 0.00337766)
(0 0 0.0035035)
(0 0 0.00362912)
(0 0 0.0037545)
(0 0 0.00387965)
(0 0 0.00400454)
(0 0 0.00412915)
(0 0 0.00425347)
(0 0 0.00437748)
(0 0 0.00450117)
(0 0 0.00462452)
(0 0 0.0047475)
(0 0 0.00487009)
(0 0 0.00499229)
(0 0 0.00511406)
(0 0 0.00523538)
(0 0 0.00535623)
(0 0 0.00547659)
(0 0 0.00559644)
(0 0 0.00571574)
(0 0 0.00583447)
(0 0 0.00595262)
(0 0 0.00607014)
(0 0 0.00618702)
(0 0 0.00630322)
(0 0 0.00641871)
(0 0 0.00653348)
(0 0 0.00664748)
(0 0 0.00676069)
(0 0 0.00687307)
(0 0 0.0069846)
(0 0 0.00709524)
(0 0 0.00720496)
(0 0 0.00731372)
(0 0 0.0074215)
(0 0 0.00752826)
(0 0 0.00763396)
(0 0 0.00773857)
(0 0 0.00784206)
(0 0 0.00794439)
(0 0 0.00804553)
(0 0 0.00814543)
(0 0 0.00824407)
(0 0 0.00834141)
(0 0 0.00843742)
(0 0 0.00853205)
(0 0 0.00862527)
(0 0 0.00871706)
(0 0 0.00880737)
(0 0 0.00889616)
(0 0 0.00898341)
(0 0 0.00906908)
(0 0 0.00915313)
(0 0 0.00923554)
(0 0 0.00931626)
(0 0 0.00939527)
(0 0 0.00947254)
(0 0 0.00954803)
(0 0 0.00962172)
(0 0 0.00969357)
(0 0 0.00976355)
(0 0 0.00983165)
(0 0 0.00989782)
(0 0 0.00996205)
(0 0 0.0100243)
(0 0 0.0100846)
(0 0 0.0101428)
(0 0 0.010199)
(0 0 0.0102532)
(0 0 0.0103052)
(0 0 0.0103552)
(0 0 0.010403)
(0 0 0.0104487)
(0 0 0.0104923)
(0 0 0.0105337)
(0 0 0.0105729)
(0 0 0.01061)
(0 0 0.0106448)
(0 0 0.0106775)
(0 0 0.0107079)
(0 0 0.0107361)
(0 0 0.0107621)
(0 0 0.0107859)
(0 0 0.0108075)
(0 0 0.0108268)
(0 0 0.0108439)
(0 0 0.0108588)
(0 0 0.0108715)
(0 0 0.010882)
(0 0 0.0108902)
(0 0 0.0108963)
(0 0 0.0109001)
(0 0 0.0109018)
(0 0 0.0109014)
(0 0 0.0108987)
(0 0 0.010894)
(0 0 0.0108871)
(0 0 0.0108781)
(0 0 0.0108669)
(0 0 0.0108538)
(0 0 0.0108385)
(0 0 0.0108212)
(0 0 0.0108019)
(0 0 0.0107806)
(0 0 0.0107573)
(0 0 0.0107321)
(0 0 0.0107049)
(0 0 0.0106758)
(0 0 0.0106448)
(0 0 0.010612)
(0 0 0.0105773)
(0 0 0.0105408)
(0 0 0.0105025)
(0 0 0.0104625)
(0 0 0.0104207)
(0 0 0.0103773)
(0 0 0.0103321)
(0 0 0.0102854)
(0 0 0.0102369)
(0 0 0.0101869)
(0 0 0.0101354)
(0 0 0.0100823)
(0 0 0.0100277)
(0 0 0.00997158)
(0 0 0.00991404)
(0 0 0.00985508)
(0 0 0.00979473)
(0 0 0.00973301)
(0 0 0.00966995)
(0 0 0.00960559)
(0 0 0.00953994)
(0 0 0.00947304)
(0 0 0.00940492)
(0 0 0.0093356)
(0 0 0.00926511)
(0 0 0.00919347)
(0 0 0.00912072)
(0 0 0.00904688)
(0 0 0.00897197)
(0 0 0.00889603)
(0 0 0.00881907)
(0 0 0.00874113)
(0 0 0.00866222)
(0 0 0.00858238)
(0 0 0.00850163)
(0 0 0.00841998)
(0 0 0.00833747)
(0 0 0.00825412)
(0 0 0.00816995)
(0 0 0.00808498)
(0 0 0.00799923)
(0 0 0.00791274)
(0 0 0.00782551)
(0 0 0.00773757)
(0 0 0.00764894)
(0 0 0.00755964)
(0 0 0.0074697)
(0 0 0.00737912)
(0 0 0.00728793)
(0 0 0.00719615)
(0 0 0.00710379)
(0 0 0.00701088)
(0 0 0.00691743)
(0 0 0.00682346)
(0 0 0.00672899)
(0 0 0.00663403)
(0 0 0.00653859)
(0 0 0.0064427)
(0 0 0.00634637)
(0 0 0.00624962)
(0 0 0.00615245)
(0 0 0.00605489)
(0 0 0.00595694)
(0 0 0.00585863)
(0 0 0.00575996)
(0 0 0.00566094)
(0 0 0.0055616)
(0 0 0.00546194)
(0 0 0.00536197)
(0 0 0.00526171)
(0 0 0.00516117)
(0 0 0.00506035)
(0 0 0.00495927)
(0 0 0.00485795)
(0 0 0.00475638)
(0 0 0.00465458)
(0 0 0.00455256)
(0 0 0.00445033)
(0 0 0.00434789)
(0 0 0.00424526)
(0 0 0.00414245)
(0 0 0.00403945)
(0 0 0.00393629)
(0 0 0.00383296)
(0 0 0.00372948)
(0 0 0.00362586)
(0 0 0.00352209)
(0 0 0.00341818)
(0 0 0.00331415)
(0 0 0.00321)
(0 0 0.00310574)
(0 0 0.00300136)
(0 0 0.00289688)
(0 0 0.0027923)
(0 0 0.00268763)
(0 0 0.00258287)
(0 0 0.00247803)
(0 0 0.00237311)
(0 0 0.00226811)
(0 0 0.00216305)
(0 0 0.00205792)
(0 0 0.00195273)
(0 0 0.00184748)
(0 0 0.00174218)
(0 0 0.00163683)
(0 0 0.00153143)
(0 0 0.001426)
(0 0 0.00132052)
(0 0 0.001215)
(0 0 0.00110946)
(0 0 0.00100388)
(0 0 0.00089828)
(0 0 0.000792655)
(0 0 0.000687009)
(0 0 0.000581345)
(0 0 0.000475666)
(0 0 0.000369975)
(0 0 0.000264274)
(0 0 0.000158567)
(0 0 5.28562e-05)
(0 0 8.23683e-05)
(0 0 0.000247102)
(0 0 0.000411826)
(0 0 0.000576535)
(0 0 0.000741222)
(0 0 0.000905881)
(0 0 0.00107051)
(0 0 0.00123509)
(0 0 0.00139962)
(0 0 0.0015641)
(0 0 0.00172852)
(0 0 0.00189286)
(0 0 0.00205713)
(0 0 0.00222131)
(0 0 0.00238539)
(0 0 0.00254937)
(0 0 0.00271324)
(0 0 0.00287697)
(0 0 0.00304058)
(0 0 0.00320403)
(0 0 0.00336733)
(0 0 0.00353046)
(0 0 0.0036934)
(0 0 0.00385615)
(0 0 0.00401868)
(0 0 0.00418099)
(0 0 0.00434306)
(0 0 0.00450487)
(0 0 0.0046664)
(0 0 0.00482764)
(0 0 0.00498857)
(0 0 0.00514916)
(0 0 0.0053094)
(0 0 0.00546928)
(0 0 0.00562875)
(0 0 0.00578781)
(0 0 0.00594643)
(0 0 0.00610458)
(0 0 0.00626224)
(0 0 0.00641938)
(0 0 0.00657598)
(0 0 0.00673201)
(0 0 0.00688743)
(0 0 0.00704222)
(0 0 0.00719635)
(0 0 0.00734978)
(0 0 0.00750248)
(0 0 0.00765443)
(0 0 0.00780557)
(0 0 0.00795589)
(0 0 0.00810534)
(0 0 0.00825389)
(0 0 0.00840149)
(0 0 0.00854812)
(0 0 0.00869373)
(0 0 0.00883827)
(0 0 0.00898172)
(0 0 0.00912403)
(0 0 0.00926515)
(0 0 0.00940505)
(0 0 0.00954368)
(0 0 0.009681)
(0 0 0.00981696)
(0 0 0.00995152)
(0 0 0.0100846)
(0 0 0.0102163)
(0 0 0.0103464)
(0 0 0.0104749)
(0 0 0.0106018)
(0 0 0.010727)
(0 0 0.0108505)
(0 0 0.0109722)
(0 0 0.0110921)
(0 0 0.0112102)
(0 0 0.0113263)
(0 0 0.0114406)
(0 0 0.0115528)
(0 0 0.011663)
(0 0 0.0117711)
(0 0 0.0118771)
(0 0 0.011981)
(0 0 0.0120826)
(0 0 0.012182)
(0 0 0.0122791)
(0 0 0.0123739)
(0 0 0.0124664)
(0 0 0.0125564)
(0 0 0.012644)
(0 0 0.0127291)
(0 0 0.0128117)
(0 0 0.0128918)
(0 0 0.0129693)
(0 0 0.0130443)
(0 0 0.0131165)
(0 0 0.0131862)
(0 0 0.0132532)
(0 0 0.0133174)
(0 0 0.013379)
(0 0 0.0134378)
(0 0 0.0134938)
(0 0 0.013547)
(0 0 0.0135975)
(0 0 0.0136451)
(0 0 0.01369)
(0 0 0.013732)
(0 0 0.0137711)
(0 0 0.0138074)
(0 0 0.0138408)
(0 0 0.0138714)
(0 0 0.0138991)
(0 0 0.013924)
(0 0 0.013946)
(0 0 0.0139651)
(0 0 0.0139814)
(0 0 0.0139949)
(0 0 0.0140055)
(0 0 0.0140132)
(0 0 0.0140182)
(0 0 0.0140204)
(0 0 0.0140197)
(0 0 0.0140163)
(0 0 0.0140102)
(0 0 0.0140013)
(0 0 0.0139897)
(0 0 0.0139754)
(0 0 0.0139584)
(0 0 0.0139387)
(0 0 0.0139165)
(0 0 0.0138916)
(0 0 0.0138642)
(0 0 0.0138342)
(0 0 0.0138017)
(0 0 0.0137667)
(0 0 0.0137293)
(0 0 0.0136894)
(0 0 0.0136471)
(0 0 0.0136025)
(0 0 0.0135555)
(0 0 0.0135063)
(0 0 0.0134548)
(0 0 0.013401)
(0 0 0.0133451)
(0 0 0.013287)
(0 0 0.0132268)
(0 0 0.0131645)
(0 0 0.0131002)
(0 0 0.0130338)
(0 0 0.0129655)
(0 0 0.0128953)
(0 0 0.0128231)
(0 0 0.0127491)
(0 0 0.0126732)
(0 0 0.0125956)
(0 0 0.0125162)
(0 0 0.012435)
(0 0 0.0123522)
(0 0 0.0122678)
(0 0 0.0121817)
(0 0 0.0120941)
(0 0 0.0120049)
(0 0 0.0119142)
(0 0 0.0118221)
(0 0 0.0117285)
(0 0 0.0116335)
(0 0 0.0115372)
(0 0 0.0114395)
(0 0 0.0113405)
(0 0 0.0112402)
(0 0 0.0111388)
(0 0 0.0110361)
(0 0 0.0109322)
(0 0 0.0108272)
(0 0 0.010721)
(0 0 0.0106138)
(0 0 0.0105056)
(0 0 0.0103963)
(0 0 0.010286)
(0 0 0.0101748)
(0 0 0.0100626)
(0 0 0.00994949)
(0 0 0.0098355)
(0 0 0.00972066)
(0 0 0.00960498)
(0 0 0.00948849)
(0 0 0.00937121)
(0 0 0.00925318)
(0 0 0.0091344)
(0 0 0.00901492)
(0 0 0.00889474)
(0 0 0.00877389)
(0 0 0.0086524)
(0 0 0.00853027)
(0 0 0.00840755)
(0 0 0.00828423)
(0 0 0.00816035)
(0 0 0.00803593)
(0 0 0.00791097)
(0 0 0.00778551)
(0 0 0.00765956)
(0 0 0.00753313)
(0 0 0.00740625)
(0 0 0.00727892)
(0 0 0.00715117)
(0 0 0.00702302)
(0 0 0.00689447)
(0 0 0.00676554)
(0 0 0.00663625)
(0 0 0.00650661)
(0 0 0.00637664)
(0 0 0.00624634)
(0 0 0.00611574)
(0 0 0.00598484)
(0 0 0.00585365)
(0 0 0.0057222)
(0 0 0.00559048)
(0 0 0.00545851)
(0 0 0.00532631)
(0 0 0.00519387)
(0 0 0.00506122)
(0 0 0.00492836)
(0 0 0.0047953)
(0 0 0.00466206)
(0 0 0.00452863)
(0 0 0.00439503)
(0 0 0.00426126)
(0 0 0.00412734)
(0 0 0.00399328)
(0 0 0.00385907)
(0 0 0.00372473)
(0 0 0.00359026)
(0 0 0.00345568)
(0 0 0.00332098)
(0 0 0.00318617)
(0 0 0.00305127)
(0 0 0.00291626)
(0 0 0.00278117)
(0 0 0.002646)
(0 0 0.00251075)
(0 0 0.00237543)
(0 0 0.00224003)
(0 0 0.00210458)
(0 0 0.00196906)
(0 0 0.00183349)
(0 0 0.00169787)
(0 0 0.0015622)
(0 0 0.0014265)
(0 0 0.00129075)
(0 0 0.00115497)
(0 0 0.00101916)
(0 0 0.000883327)
(0 0 0.000747469)
(0 0 0.000611591)
(0 0 0.000475698)
(0 0 0.000339793)
(0 0 0.000203879)
(0 0 6.79603e-05)
(0 0 0.000100679)
(0 0 0.000302032)
(0 0 0.000503375)
(0 0 0.000704699)
(0 0 0.000905996)
(0 0 0.00110726)
(0 0 0.00130848)
(0 0 0.00150965)
(0 0 0.00171076)
(0 0 0.00191181)
(0 0 0.00211278)
(0 0 0.00231366)
(0 0 0.00251445)
(0 0 0.00271513)
(0 0 0.0029157)
(0 0 0.00311613)
(0 0 0.00331643)
(0 0 0.00351658)
(0 0 0.00371656)
(0 0 0.00391637)
(0 0 0.00411598)
(0 0 0.00431538)
(0 0 0.00451456)
(0 0 0.0047135)
(0 0 0.00491219)
(0 0 0.0051106)
(0 0 0.00530871)
(0 0 0.00550651)
(0 0 0.00570398)
(0 0 0.00590108)
(0 0 0.00609781)
(0 0 0.00629414)
(0 0 0.00649003)
(0 0 0.00668548)
(0 0 0.00688044)
(0 0 0.00707489)
(0 0 0.00726881)
(0 0 0.00746216)
(0 0 0.00765491)
(0 0 0.00784703)
(0 0 0.00803848)
(0 0 0.00822924)
(0 0 0.00841926)
(0 0 0.00860851)
(0 0 0.00879695)
(0 0 0.00898455)
(0 0 0.00917125)
(0 0 0.00935703)
(0 0 0.00954184)
(0 0 0.00972564)
(0 0 0.00990837)
(0 0 0.01009)
(0 0 0.0102705)
(0 0 0.0104498)
(0 0 0.0106278)
(0 0 0.0108046)
(0 0 0.01098)
(0 0 0.011154)
(0 0 0.0113266)
(0 0 0.0114976)
(0 0 0.0116672)
(0 0 0.0118351)
(0 0 0.0120014)
(0 0 0.0121659)
(0 0 0.0123287)
(0 0 0.0124897)
(0 0 0.0126488)
(0 0 0.0128059)
(0 0 0.0129611)
(0 0 0.0131142)
(0 0 0.0132653)
(0 0 0.0134141)
(0 0 0.0135608)
(0 0 0.0137052)
(0 0 0.0138473)
(0 0 0.013987)
(0 0 0.0141242)
(0 0 0.014259)
(0 0 0.0143913)
(0 0 0.0145209)
(0 0 0.0146479)
(0 0 0.0147722)
(0 0 0.0148938)
(0 0 0.0150126)
(0 0 0.0151285)
(0 0 0.0152415)
(0 0 0.0153517)
(0 0 0.0154588)
(0 0 0.0155629)
(0 0 0.0156639)
(0 0 0.0157619)
(0 0 0.0158567)
(0 0 0.0159483)
(0 0 0.0160367)
(0 0 0.0161219)
(0 0 0.0162038)
(0 0 0.0162824)
(0 0 0.0163577)
(0 0 0.0164296)
(0 0 0.0164981)
(0 0 0.0165632)
(0 0 0.0166249)
(0 0 0.0166832)
(0 0 0.016738)
(0 0 0.0167893)
(0 0 0.0168371)
(0 0 0.0168815)
(0 0 0.0169224)
(0 0 0.0169598)
(0 0 0.0169937)
(0 0 0.017024)
(0 0 0.0170509)
(0 0 0.0170743)
(0 0 0.0170942)
(0 0 0.0171106)
(0 0 0.0171236)
(0 0 0.017133)
(0 0 0.0171391)
(0 0 0.0171417)
(0 0 0.0171409)
(0 0 0.0171367)
(0 0 0.0171291)
(0 0 0.0171182)
(0 0 0.017104)
(0 0 0.0170864)
(0 0 0.0170656)
(0 0 0.0170416)
(0 0 0.0170143)
(0 0 0.0169839)
(0 0 0.0169503)
(0 0 0.0169136)
(0 0 0.0168738)
(0 0 0.016831)
(0 0 0.0167851)
(0 0 0.0167363)
(0 0 0.0166846)
(0 0 0.01663)
(0 0 0.0165725)
(0 0 0.0165123)
(0 0 0.0164492)
(0 0 0.0163835)
(0 0 0.0163151)
(0 0 0.016244)
(0 0 0.0161703)
(0 0 0.0160941)
(0 0 0.0160154)
(0 0 0.0159343)
(0 0 0.0158507)
(0 0 0.0157647)
(0 0 0.0156765)
(0 0 0.0155859)
(0 0 0.0154931)
(0 0 0.0153982)
(0 0 0.015301)
(0 0 0.0152018)
(0 0 0.0151005)
(0 0 0.0149972)
(0 0 0.014892)
(0 0 0.0147848)
(0 0 0.0146757)
(0 0 0.0145648)
(0 0 0.0144522)
(0 0 0.0143377)
(0 0 0.0142215)
(0 0 0.0141037)
(0 0 0.0139842)
(0 0 0.0138632)
(0 0 0.0137406)
(0 0 0.0136165)
(0 0 0.0134909)
(0 0 0.0133639)
(0 0 0.0132355)
(0 0 0.0131057)
(0 0 0.0129746)
(0 0 0.0128422)
(0 0 0.0127086)
(0 0 0.0125738)
(0 0 0.0124377)
(0 0 0.0123006)
(0 0 0.0121623)
(0 0 0.0120229)
(0 0 0.0118825)
(0 0 0.0117411)
(0 0 0.0115986)
(0 0 0.0114553)
(0 0 0.0113109)
(0 0 0.0111657)
(0 0 0.0110196)
(0 0 0.0108727)
(0 0 0.010725)
(0 0 0.0105764)
(0 0 0.0104271)
(0 0 0.0102771)
(0 0 0.0101263)
(0 0 0.00997488)
(0 0 0.00982276)
(0 0 0.00967001)
(0 0 0.00951663)
(0 0 0.00936265)
(0 0 0.00920809)
(0 0 0.00905297)
(0 0 0.00889732)
(0 0 0.00874115)
(0 0 0.00858449)
(0 0 0.00842734)
(0 0 0.00826974)
(0 0 0.00811169)
(0 0 0.00795321)
(0 0 0.00779433)
(0 0 0.00763505)
(0 0 0.0074754)
(0 0 0.00731538)
(0 0 0.00715502)
(0 0 0.00699433)
(0 0 0.00683332)
(0 0 0.006672)
(0 0 0.0065104)
(0 0 0.00634851)
(0 0 0.00618636)
(0 0 0.00602396)
(0 0 0.00586131)
(0 0 0.00569844)
(0 0 0.00553534)
(0 0 0.00537203)
(0 0 0.00520853)
(0 0 0.00504483)
(0 0 0.00488096)
(0 0 0.00471691)
(0 0 0.0045527)
(0 0 0.00438834)
(0 0 0.00422383)
(0 0 0.00405919)
(0 0 0.00389441)
(0 0 0.00372952)
(0 0 0.00356451)
(0 0 0.00339938)
(0 0 0.00323416)
(0 0 0.00306884)
(0 0 0.00290344)
(0 0 0.00273795)
(0 0 0.00257238)
(0 0 0.00240674)
(0 0 0.00224103)
(0 0 0.00207527)
(0 0 0.00190945)
(0 0 0.00174357)
(0 0 0.00157765)
(0 0 0.00141169)
(0 0 0.0012457)
(0 0 0.00107967)
(0 0 0.000913612)
(0 0 0.000747532)
(0 0 0.000581433)
(0 0 0.00041532)
(0 0 0.000249196)
(0 0 8.30661e-05)
(0 0 0.000118993)
(0 0 0.000356974)
(0 0 0.000594942)
(0 0 0.000832888)
(0 0 0.0010708)
(0 0 0.00130868)
(0 0 0.00154651)
(0 0 0.00178427)
(0 0 0.00202197)
(0 0 0.00225959)
(0 0 0.00249712)
(0 0 0.00273455)
(0 0 0.00297187)
(0 0 0.00320907)
(0 0 0.00344613)
(0 0 0.00368304)
(0 0 0.00391978)
(0 0 0.00415635)
(0 0 0.00439273)
(0 0 0.00462889)
(0 0 0.00486483)
(0 0 0.00510053)
(0 0 0.00533596)
(0 0 0.00557112)
(0 0 0.00580597)
(0 0 0.0060405)
(0 0 0.00627468)
(0 0 0.00650849)
(0 0 0.00674191)
(0 0 0.00697491)
(0 0 0.00720746)
(0 0 0.00743954)
(0 0 0.00767112)
(0 0 0.00790216)
(0 0 0.00813264)
(0 0 0.00836251)
(0 0 0.00859176)
(0 0 0.00882033)
(0 0 0.00904821)
(0 0 0.00927533)
(0 0 0.00950168)
(0 0 0.0097272)
(0 0 0.00995186)
(0 0 0.0101756)
(0 0 0.0103984)
(0 0 0.0106202)
(0 0 0.010841)
(0 0 0.0110606)
(0 0 0.0112791)
(0 0 0.0114964)
(0 0 0.0117125)
(0 0 0.0119273)
(0 0 0.0121407)
(0 0 0.0123527)
(0 0 0.0125632)
(0 0 0.0127722)
(0 0 0.0129796)
(0 0 0.0131854)
(0 0 0.0133895)
(0 0 0.0135918)
(0 0 0.0137923)
(0 0 0.0139908)
(0 0 0.0141875)
(0 0 0.0143821)
(0 0 0.0145746)
(0 0 0.014765)
(0 0 0.0149531)
(0 0 0.015139)
(0 0 0.0153225)
(0 0 0.0155036)
(0 0 0.0156822)
(0 0 0.0158583)
(0 0 0.0160318)
(0 0 0.0162025)
(0 0 0.0163706)
(0 0 0.0165358)
(0 0 0.0166982)
(0 0 0.0168576)
(0 0 0.017014)
(0 0 0.0171673)
(0 0 0.0173175)
(0 0 0.0174646)
(0 0 0.0176084)
(0 0 0.0177488)
(0 0 0.017886)
(0 0 0.0180197)
(0 0 0.0181499)
(0 0 0.0182766)
(0 0 0.0183997)
(0 0 0.0185193)
(0 0 0.0186351)
(0 0 0.0187472)
(0 0 0.0188556)
(0 0 0.0189602)
(0 0 0.0190609)
(0 0 0.0191578)
(0 0 0.0192507)
(0 0 0.0193397)
(0 0 0.0194247)
(0 0 0.0195058)
(0 0 0.0195828)
(0 0 0.0196557)
(0 0 0.0197246)
(0 0 0.0197894)
(0 0 0.0198501)
(0 0 0.0199067)
(0 0 0.0199591)
(0 0 0.0200075)
(0 0 0.0200516)
(0 0 0.0200917)
(0 0 0.0201276)
(0 0 0.0201593)
(0 0 0.020187)
(0 0 0.0202105)
(0 0 0.0202298)
(0 0 0.0202451)
(0 0 0.0202563)
(0 0 0.0202634)
(0 0 0.0202664)
(0 0 0.0202654)
(0 0 0.0202604)
(0 0 0.0202514)
(0 0 0.0202385)
(0 0 0.0202216)
(0 0 0.0202008)
(0 0 0.0201761)
(0 0 0.0201476)
(0 0 0.0201153)
(0 0 0.0200793)
(0 0 0.0200395)
(0 0 0.019996)
(0 0 0.0199489)
(0 0 0.0198982)
(0 0 0.019844)
(0 0 0.0197862)
(0 0 0.019725)
(0 0 0.0196604)
(0 0 0.0195924)
(0 0 0.019521)
(0 0 0.0194465)
(0 0 0.0193686)
(0 0 0.0192877)
(0 0 0.0192036)
(0 0 0.0191164)
(0 0 0.0190263)
(0 0 0.0189331)
(0 0 0.0188371)
(0 0 0.0187382)
(0 0 0.0186365)
(0 0 0.0185321)
(0 0 0.018425)
(0 0 0.0183152)
(0 0 0.0182029)
(0 0 0.018088)
(0 0 0.0179706)
(0 0 0.0178508)
(0 0 0.0177287)
(0 0 0.0176042)
(0 0 0.0174774)
(0 0 0.0173484)
(0 0 0.0172172)
(0 0 0.017084)
(0 0 0.0169486)
(0 0 0.0168112)
(0 0 0.0166719)
(0 0 0.0165306)
(0 0 0.0163874)
(0 0 0.0162425)
(0 0 0.0160957)
(0 0 0.0159472)
(0 0 0.015797)
(0 0 0.0156451)
(0 0 0.0154917)
(0 0 0.0153367)
(0 0 0.0151802)
(0 0 0.0150221)
(0 0 0.0148627)
(0 0 0.0147019)
(0 0 0.0145397)
(0 0 0.0143762)
(0 0 0.0142114)
(0 0 0.0140454)
(0 0 0.0138781)
(0 0 0.0137098)
(0 0 0.0135402)
(0 0 0.0133696)
(0 0 0.0131979)
(0 0 0.0130252)
(0 0 0.0128515)
(0 0 0.0126768)
(0 0 0.0125012)
(0 0 0.0123247)
(0 0 0.0121473)
(0 0 0.0119691)
(0 0 0.0117901)
(0 0 0.0116102)
(0 0 0.0114297)
(0 0 0.0112483)
(0 0 0.0110663)
(0 0 0.0108836)
(0 0 0.0107002)
(0 0 0.0105162)