/*--------------------------------*- C++ -*----------------------------------*\
| =========                 |                                                 |
| \\      /  F ield         | OpenFOAM: The Open Source CFD Toolbox           |
|  \\    /   O peration     | Version:  v2012                                 |
|   \\  /    A nd           | Website:  www.openfoam.com                      |
|    \\/     M anipulation  |                                                 |
\*---------------------------------------------------------------------------*/
FoamFile
{
    version     2.0;
    format      ascii;
    class       volScalarField;
    location    "17.5";
    object      p;
}
// * * * * * * * * * * * * * * * * * * * * * * * * * * * * * * * * * * * * * //

dimensions      [0 2 -2 0 0 0 0];


internalField   nonuniform List<scalar> 
65536
(
1.03402e-09
-1.25355e-06
-3.7739e-06
-7.56915e-06
-1.26409e-05
-1.89876e-05
-2.66094e-05
-3.55069e-05
-4.5681e-05
-5.71331e-05
-6.98646e-05
-8.38772e-05
-9.91729e-05
-0.000115754
-0.000133621
-0.000152778
-0.000173228
-0.000194971
-0.000218011
-0.000242352
-0.000267994
-0.000294942
-0.000323197
-0.000352764
-0.000383644
-0.000415841
-0.000449357
-0.000484195
-0.000520358
-0.000557847
-0.000596666
-0.000636816
-0.0006783
-0.000721118
-0.000765273
-0.000810766
-0.000857596
-0.000905765
-0.000955273
-0.00100612
-0.0010583
-0.00111182
-0.00116667
-0.00122285
-0.00128036
-0.00133919
-0.00139933
-0.00146079
-0.00152355
-0.00158761
-0.00165295
-0.00171957
-0.00178745
-0.00185659
-0.00192696
-0.00199856
-0.00207136
-0.00214535
-0.0022205
-0.0022968
-0.00237422
-0.00245273
-0.00253232
-0.00261294
-0.00269456
-0.00277716
-0.00286069
-0.00294512
-0.00303041
-0.00311651
-0.00320338
-0.00329097
-0.00337922
-0.00346809
-0.00355751
-0.00364743
-0.00373779
-0.00382851
-0.00391954
-0.0040108
-0.00410222
-0.00419372
-0.00428523
-0.00437665
-0.00446791
-0.00455892
-0.00464958
-0.00473981
-0.00482951
-0.00491858
-0.00500692
-0.00509443
-0.005181
-0.00526654
-0.00535093
-0.00543406
-0.00551582
-0.0055961
-0.00567479
-0.00575178
-0.00582695
-0.00590019
-0.00597138
-0.00604042
-0.00610719
-0.00617157
-0.00623347
-0.00629278
-0.00634937
-0.00640317
-0.00645405
-0.00650193
-0.00654671
-0.0065883
-0.00662662
-0.00666157
-0.00669308
-0.00672108
-0.0067455
-0.00676628
-0.00678335
-0.00679668
-0.0068062
-0.00681188
-0.00681369
-0.0068116
-0.00680559
-0.00679564
-0.00678176
-0.00676393
-0.00674217
-0.00671649
-0.00668692
-0.00665346
-0.00661617
-0.00657508
-0.00653023
-0.00648169
-0.0064295
-0.00637374
-0.00631447
-0.00625177
-0.00618572
-0.00611641
-0.00604392
-0.00596835
-0.00588981
-0.00580839
-0.00572419
-0.00563734
-0.00554793
-0.00545609
-0.00536193
-0.00526556
-0.00516711
-0.0050667
-0.00496444
-0.00486047
-0.0047549
-0.00464785
-0.00453945
-0.00442982
-0.00431907
-0.00420733
-0.00409471
-0.00398132
-0.00386729
-0.00375273
-0.00363774
-0.00352243
-0.0034069
-0.00329127
-0.00317563
-0.00306007
-0.00294469
-0.00282958
-0.00271483
-0.00260053
-0.00248675
-0.00237358
-0.00226109
-0.00214935
-0.00203843
-0.00192839
-0.00181931
-0.00171124
-0.00160423
-0.00149834
-0.00139362
-0.00129012
-0.00118788
-0.00108695
-0.000987354
-0.000889139
-0.000792336
-0.000696977
-0.00060309
-0.000510701
-0.000419836
-0.000330514
-0.000242757
-0.000156582
-7.20049e-05
1.09608e-05
9.23026e-05
0.00017201
0.000250074
0.000326488
0.000401245
0.000474341
0.000545772
0.000615536
0.000683632
0.00075006
0.000814821
0.000877916
0.000939348
0.000999121
0.00105724
0.00111371
0.00116853
0.00122171
0.00127326
0.00132318
0.00137148
0.00141817
0.00146325
0.00150673
0.00154862
0.00158893
0.00162767
0.00166484
0.00170045
0.0017345
0.00176702
0.001798
0.00182744
0.00185537
0.00188178
0.00190669
0.00193009
0.001952
0.00197242
0.00199136
0.00200882
0.00202481
0.00203932
0.00205238
0.00206397
0.00207411
0.00208279
0.00209002
0.0020958
0.00210014
0.00210303
0.00210447
-2.23385e-06
-3.49107e-06
-6.01714e-06
-9.81644e-06
-1.48905e-05
-2.1239e-05
-2.88625e-05
-3.77617e-05
-4.79378e-05
-5.9392e-05
-7.21257e-05
-8.61407e-05
-0.000101439
-0.000118022
-0.000135893
-0.000155054
-0.000175506
-0.000197253
-0.000220297
-0.000244641
-0.000270288
-0.00029724
-0.0003255
-0.000355072
-0.000385957
-0.000418159
-0.000451681
-0.000486525
-0.000522693
-0.000560188
-0.000599014
-0.00063917
-0.00068066
-0.000723486
-0.000767648
-0.000813148
-0.000859986
-0.000908163
-0.000957679
-0.00100853
-0.00106072
-0.00111425
-0.00116911
-0.0012253
-0.00128282
-0.00134165
-0.00140181
-0.00146328
-0.00152605
-0.00159012
-0.00165547
-0.0017221
-0.00179
-0.00185914
-0.00192953
-0.00200114
-0.00207395
-0.00214795
-0.00222312
-0.00229944
-0.00237687
-0.0024554
-0.002535
-0.00261563
-0.00269727
-0.00277989
-0.00286344
-0.00294789
-0.00303319
-0.00311931
-0.0032062
-0.0032938
-0.00338207
-0.00347096
-0.0035604
-0.00365035
-0.00374072
-0.00383147
-0.00392252
-0.00401381
-0.00410525
-0.00419677
-0.0042883
-0.00437975
-0.00447103
-0.00456206
-0.00465275
-0.00474301
-0.00483273
-0.00492183
-0.0050102
-0.00509773
-0.00518434
-0.0052699
-0.00535432
-0.00543747
-0.00551926
-0.00559957
-0.00567829
-0.00575531
-0.0058305
-0.00590377
-0.00597499
-0.00604405
-0.00611084
-0.00617526
-0.00623718
-0.0062965
-0.00635313
-0.00640694
-0.00645785
-0.00650575
-0.00655055
-0.00659215
-0.00663048
-0.00666545
-0.00669698
-0.00672499
-0.00674942
-0.00677021
-0.00678729
-0.00680062
-0.00681014
-0.00681583
-0.00681764
-0.00681555
-0.00680953
-0.00679959
-0.0067857
-0.00676786
-0.00674609
-0.0067204
-0.00669081
-0.00665734
-0.00662004
-0.00657893
-0.00653406
-0.0064855
-0.00643329
-0.0063775
-0.00631821
-0.00625548
-0.0061894
-0.00612006
-0.00604755
-0.00597195
-0.00589338
-0.00581192
-0.0057277
-0.00564081
-0.00555137
-0.00545949
-0.0053653
-0.0052689
-0.00517041
-0.00506997
-0.00496768
-0.00486367
-0.00475807
-0.00465099
-0.00454255
-0.00443288
-0.0043221
-0.00421033
-0.00409768
-0.00398426
-0.0038702
-0.00375561
-0.00364059
-0.00352525
-0.0034097
-0.00329404
-0.00317837
-0.00306279
-0.00294738
-0.00283225
-0.00271748
-0.00260316
-0.00248936
-0.00237617
-0.00226366
-0.0021519
-0.00204096
-0.00193091
-0.00182182
-0.00171373
-0.00160671
-0.00150081
-0.00139608
-0.00129256
-0.00119031
-0.00108937
-0.000989763
-0.000891539
-0.000794728
-0.000699362
-0.000605468
-0.000513073
-0.000422202
-0.000332876
-0.000245114
-0.000158935
-7.43534e-05
8.61561e-06
8.99604e-05
0.000169671
0.000247737
0.000324153
0.000398911
0.000472008
0.00054344
0.000613205
0.000681301
0.00074773
0.00081249
0.000875586
0.000937018
0.000996791
0.00105491
0.00111137
0.00116619
0.00121938
0.00127092
0.00132084
0.00136914
0.00141583
0.00146091
0.00150439
0.00154628
0.00158659
0.00162533
0.00166249
0.0016981
0.00173216
0.00176467
0.00179565
0.00182509
0.00185302
0.00187943
0.00190433
0.00192774
0.00194965
0.00197007
0.001989
0.00200646
0.00202245
0.00203696
0.00205002
0.00206161
0.00207174
0.00208043
0.00208766
0.00209344
0.00209777
0.00210067
0.00210211
-6.71699e-06
-7.97985e-06
-1.0513e-05
-1.43175e-05
-1.93952e-05
-2.57471e-05
-3.33739e-05
-4.22767e-05
-5.24565e-05
-6.39148e-05
-7.6653e-05
-9.06728e-05
-0.000105976
-0.000122565
-0.000140442
-0.000159609
-0.000180068
-0.000201822
-0.000224874
-0.000249226
-0.000274881
-0.000301842
-0.000330112
-0.000359693
-0.000390589
-0.000422801
-0.000456334
-0.000491189
-0.000527369
-0.000564877
-0.000603714
-0.000643884
-0.000685388
-0.000728227
-0.000772404
-0.000817918
-0.000864772
-0.000912964
-0.000962496
-0.00101337
-0.00106557
-0.00111912
-0.001174
-0.0012302
-0.00128774
-0.0013466
-0.00140678
-0.00146826
-0.00153106
-0.00159514
-0.00166052
-0.00172717
-0.00179509
-0.00186426
-0.00193468
-0.00200631
-0.00207915
-0.00215318
-0.00222837
-0.00230471
-0.00238218
-0.00246074
-0.00254036
-0.00262103
-0.0027027
-0.00278535
-0.00286894
-0.00295342
-0.00303876
-0.00312491
-0.00321184
-0.00329948
-0.00338779
-0.00347672
-0.0035662
-0.00365619
-0.00374661
-0.0038374
-0.0039285
-0.00401982
-0.00411131
-0.00420289
-0.00429446
-0.00438596
-0.00447729
-0.00456837
-0.00465911
-0.00474942
-0.0048392
-0.00492835
-0.00501677
-0.00510436
-0.00519102
-0.00527664
-0.00536111
-0.00544432
-0.00552616
-0.00560653
-0.0056853
-0.00576237
-0.00583762
-0.00591094
-0.00598221
-0.00605132
-0.00611817
-0.00618263
-0.0062446
-0.00630397
-0.00636064
-0.0064145
-0.00646545
-0.00651339
-0.00655822
-0.00659987
-0.00663823
-0.00667323
-0.00670478
-0.00673282
-0.00675727
-0.00677808
-0.00679518
-0.00680851
-0.00681805
-0.00682374
-0.00682555
-0.00682346
-0.00681744
-0.00680749
-0.00679359
-0.00677574
-0.00675395
-0.00672824
-0.00669862
-0.00666512
-0.00662778
-0.00658664
-0.00654174
-0.00649313
-0.00644088
-0.00638504
-0.0063257
-0.00626292
-0.00619679
-0.00612739
-0.00605482
-0.00597916
-0.00590053
-0.00581901
-0.00573472
-0.00564777
-0.00555826
-0.00546632
-0.00537205
-0.00527558
-0.00517703
-0.00507651
-0.00497416
-0.00487008
-0.00476441
-0.00465726
-0.00454876
-0.00443903
-0.00432818
-0.00421634
-0.00410363
-0.00399015
-0.00387603
-0.00376138
-0.0036463
-0.0035309
-0.0034153
-0.00329959
-0.00318386
-0.00306823
-0.00295278
-0.00283761
-0.00272279
-0.00260842
-0.00249458
-0.00238135
-0.0022688
-0.00215701
-0.00204604
-0.00193596
-0.00182683
-0.00171871
-0.00161167
-0.00150574
-0.00140098
-0.00129745
-0.00119518
-0.00109421
-0.000994589
-0.000896348
-0.000799521
-0.00070414
-0.000610232
-0.000517825
-0.000426942
-0.000337605
-0.000249834
-0.000163646
-7.90574e-05
3.91846e-06
8.52692e-05
0.000164985
0.000243055
0.000319475
0.000394236
0.000467336
0.00053877
0.000608536
0.000676634
0.000743063
0.000807824
0.000870919
0.000932351
0.000992123
0.00105024
0.0011067
0.00116152
0.0012147
0.00126625
0.00131616
0.00136446
0.00141115
0.00145622
0.0014997
0.00154159
0.0015819
0.00162063
0.0016578
0.0016934
0.00172746
0.00175997
0.00179094
0.00182038
0.00184831
0.00187472
0.00189962
0.00192302
0.00194493
0.00196534
0.00198428
0.00200173
0.00201772
0.00203223
0.00204529
0.00205688
0.00206701
0.00207569
0.00208292
0.00208871
0.00209304
0.00209593
0.00209737
-1.3454e-05
-1.47209e-05
-1.72592e-05
-2.10685e-05
-2.61507e-05
-3.25071e-05
-4.01387e-05
-4.90465e-05
-5.92318e-05
-7.06962e-05
-8.34411e-05
-9.74681e-05
-0.000112779
-0.000129377
-0.000147262
-0.000166439
-0.000186908
-0.000208673
-0.000231737
-0.000256101
-0.000281769
-0.000308743
-0.000337027
-0.000366622
-0.000397533
-0.000429761
-0.00046331
-0.000498183
-0.00053438
-0.000571907
-0.000610763
-0.000650953
-0.000692477
-0.000735337
-0.000779535
-0.000825072
-0.000871948
-0.000920165
-0.000969721
-0.00102062
-0.00107285
-0.00112642
-0.00118133
-0.00123756
-0.00129513
-0.00135401
-0.00141422
-0.00147574
-0.00153856
-0.00160269
-0.0016681
-0.00173478
-0.00180274
-0.00187195
-0.00194239
-0.00201407
-0.00208695
-0.00216101
-0.00223625
-0.00231264
-0.00239014
-0.00246875
-0.00254842
-0.00262913
-0.00271085
-0.00279355
-0.00287719
-0.00296172
-0.00304711
-0.00313332
-0.0032203
-0.003308
-0.00339637
-0.00348536
-0.00357491
-0.00366495
-0.00375544
-0.00384629
-0.00393746
-0.00402886
-0.00412041
-0.00421206
-0.00430371
-0.00439528
-0.00448668
-0.00457784
-0.00466866
-0.00475905
-0.0048489
-0.00493813
-0.00502663
-0.00511431
-0.00520105
-0.00528675
-0.0053713
-0.00545459
-0.00553652
-0.00561697
-0.00569582
-0.00577297
-0.00584831
-0.0059217
-0.00599306
-0.00606225
-0.00612917
-0.0061937
-0.00625575
-0.00631519
-0.00637193
-0.00642585
-0.00647686
-0.00652486
-0.00656976
-0.00661145
-0.00664986
-0.00668491
-0.0067165
-0.00674458
-0.00676906
-0.0067899
-0.00680702
-0.00682038
-0.00682993
-0.00683562
-0.00683744
-0.00683535
-0.00682932
-0.00681936
-0.00680544
-0.00678757
-0.00676575
-0.00674001
-0.00671035
-0.00667681
-0.00663942
-0.00659822
-0.00655326
-0.00650459
-0.00645228
-0.00639637
-0.00633695
-0.0062741
-0.00620789
-0.0061384
-0.00606574
-0.00599
-0.00591126
-0.00582965
-0.00574527
-0.00565821
-0.00556861
-0.00547656
-0.00538219
-0.00528562
-0.00518697
-0.00508635
-0.00498389
-0.00487971
-0.00477393
-0.00466669
-0.00455808
-0.00444825
-0.00433731
-0.00422537
-0.00411256
-0.00399899
-0.00388478
-0.00377004
-0.00365487
-0.00353939
-0.00342371
-0.00330791
-0.00319211
-0.00307641
-0.00296088
-0.00284564
-0.00273076
-0.00261633
-0.00250243
-0.00238913
-0.00227653
-0.00216468
-0.00205366
-0.00194353
-0.00183436
-0.0017262
-0.00161911
-0.00151314
-0.00140835
-0.00130478
-0.00120248
-0.00110148
-0.00100183
-0.000903562
-0.000806712
-0.000711308
-0.00061738
-0.000524954
-0.000434053
-0.000344701
-0.000256915
-0.000170714
-8.61142e-05
-3.12808e-06
7.82317e-05
0.000157955
0.000236033
0.000312458
0.000387224
0.000460328
0.000531765
0.000601534
0.000669633
0.000736063
0.000800825
0.00086392
0.000925351
0.000985122
0.00104324
0.0010997
0.00115452
0.00120769
0.00125924
0.00130915
0.00135744
0.00140413
0.0014492
0.00149268
0.00153456
0.00157486
0.00161359
0.00165075
0.00168636
0.00172041
0.00175291
0.00178388
0.00181332
0.00184124
0.00186765
0.00189255
0.00191595
0.00193785
0.00195826
0.0019772
0.00199465
0.00201063
0.00202514
0.00203819
0.00204978
0.00205992
0.0020686
0.00207583
0.00208161
0.00208594
0.00208883
0.00209027
-2.24442e-05
-2.37133e-05
-2.62554e-05
-3.00692e-05
-3.51563e-05
-4.15182e-05
-4.91558e-05
-5.80703e-05
-6.8263e-05
-7.97354e-05
-9.2489e-05
-0.000106526
-0.000121847
-0.000138456
-0.000156354
-0.000175543
-0.000196026
-0.000217806
-0.000240884
-0.000265265
-0.00029095
-0.000317942
-0.000346244
-0.000375859
-0.00040679
-0.00043904
-0.000472611
-0.000507506
-0.000543728
-0.000581279
-0.000620161
-0.000660377
-0.000701928
-0.000744816
-0.000789043
-0.00083461
-0.000881517
-0.000929765
-0.000979354
-0.00103028
-0.00108255
-0.00113616
-0.0011911
-0.00124737
-0.00130498
-0.0013639
-0.00142415
-0.00148571
-0.00154858
-0.00161274
-0.0016782
-0.00174493
-0.00181294
-0.00188219
-0.00195269
-0.00202441
-0.00209735
-0.00217147
-0.00224676
-0.0023232
-0.00240077
-0.00247943
-0.00255916
-0.00263994
-0.00272173
-0.00280449
-0.00288819
-0.0029728
-0.00305826
-0.00314454
-0.0032316
-0.00331938
-0.00340782
-0.00349689
-0.00358652
-0.00367665
-0.00376722
-0.00385817
-0.00394942
-0.00404091
-0.00413256
-0.0042243
-0.00431605
-0.00440771
-0.00449922
-0.00459048
-0.0046814
-0.00477189
-0.00486186
-0.00495119
-0.0050398
-0.00512759
-0.00521444
-0.00530025
-0.00538491
-0.00546831
-0.00555035
-0.00563091
-0.00570988
-0.00578714
-0.00586258
-0.00593608
-0.00600754
-0.00607684
-0.00614386
-0.0062085
-0.00627064
-0.00633017
-0.006387
-0.00644101
-0.00649211
-0.00654019
-0.00658516
-0.00662693
-0.0066654
-0.00670051
-0.00673216
-0.00676029
-0.00678482
-0.00680569
-0.00682284
-0.00683622
-0.00684579
-0.0068515
-0.00685332
-0.00685123
-0.0068452
-0.00683521
-0.00682127
-0.00680337
-0.00678152
-0.00675573
-0.00672602
-0.00669242
-0.00665497
-0.0066137
-0.00656866
-0.00651991
-0.0064675
-0.0064115
-0.00635199
-0.00628903
-0.0062227
-0.00615311
-0.00608033
-0.00600446
-0.00592561
-0.00584387
-0.00575935
-0.00567217
-0.00558243
-0.00549024
-0.00539574
-0.00529903
-0.00520024
-0.00509948
-0.00499688
-0.00489257
-0.00478666
-0.00467927
-0.00457053
-0.00446057
-0.00434949
-0.00423743
-0.00412449
-0.0040108
-0.00389646
-0.0037816
-0.00366632
-0.00355073
-0.00343493
-0.00331903
-0.00320313
-0.00308732
-0.0029717
-0.00285636
-0.00274139
-0.00262687
-0.00251289
-0.00239952
-0.00228684
-0.00217492
-0.00206383
-0.00195364
-0.0018444
-0.00173618
-0.00162904
-0.00152302
-0.00141818
-0.00131456
-0.00121221
-0.00111118
-0.00101149
-0.000913188
-0.000816305
-0.000720871
-0.000626915
-0.000534464
-0.00044354
-0.000354166
-0.000266361
-0.000180143
-9.55275e-05
-1.25275e-05
6.88446e-05
0.000148578
0.000226666
0.000303099
0.000377872
0.000450981
0.000522422
0.000592195
0.000660297
0.000726728
0.000791491
0.000854586
0.000916017
0.000975787
0.0010339
0.00109036
0.00114517
0.00119835
0.00124989
0.0012998
0.00134809
0.00139476
0.00143983
0.00148331
0.00152519
0.00156548
0.00160421
0.00164136
0.00167696
0.00171101
0.00174351
0.00177447
0.00180391
0.00183182
0.00185823
0.00188312
0.00190651
0.00192841
0.00194882
0.00196775
0.0019852
0.00200118
0.00201569
0.00202874
0.00204033
0.00205046
0.00205914
0.00206637
0.00207215
0.00207648
0.00207937
0.00208081
-3.36832e-05
-3.49541e-05
-3.74995e-05
-4.13178e-05
-4.64105e-05
-5.27786e-05
-6.04234e-05
-6.93461e-05
-7.9548e-05
-9.10304e-05
-0.000103795
-0.000117844
-0.000133179
-0.000149801
-0.000167714
-0.00018692
-0.00020742
-0.000229218
-0.000252316
-0.000276717
-0.000302423
-0.000329437
-0.000357763
-0.000387403
-0.00041836
-0.000450636
-0.000484235
-0.000519159
-0.00055541
-0.000592992
-0.000631906
-0.000672155
-0.000713741
-0.000756665
-0.000800928
-0.000846532
-0.000893479
-0.000941767
-0.000991396
-0.00104237
-0.00109468
-0.00114833
-0.00120332
-0.00125964
-0.00131729
-0.00137627
-0.00143657
-0.00149818
-0.0015611
-0.00162532
-0.00169083
-0.00175763
-0.00182569
-0.00189501
-0.00196557
-0.00203735
-0.00211035
-0.00218454
-0.00225991
-0.00233642
-0.00241406
-0.00249279
-0.00257261
-0.00265346
-0.00273533
-0.00281818
-0.00290196
-0.00298666
-0.00307221
-0.00315859
-0.00324573
-0.00333361
-0.00342216
-0.00351132
-0.00360106
-0.00369129
-0.00378197
-0.00387303
-0.00396439
-0.004056
-0.00414777
-0.00423963
-0.00433149
-0.00442329
-0.00451492
-0.00460631
-0.00469736
-0.00478798
-0.00487808
-0.00496755
-0.0050563
-0.00514422
-0.0052312
-0.00531715
-0.00540195
-0.0054855
-0.00556768
-0.00564838
-0.00572748
-0.00580488
-0.00588045
-0.00595409
-0.00602568
-0.00609511
-0.00616226
-0.00622703
-0.00628929
-0.00634895
-0.00640589
-0.00646001
-0.00651121
-0.00655939
-0.00660446
-0.00664632
-0.00668488
-0.00672006
-0.00675178
-0.00677997
-0.00680456
-0.00682547
-0.00684267
-0.00685608
-0.00686567
-0.0068714
-0.00687323
-0.00687113
-0.00686509
-0.00685508
-0.00684111
-0.00682317
-0.00680127
-0.00677543
-0.00674566
-0.00671199
-0.00667445
-0.0066331
-0.00658796
-0.0065391
-0.00648659
-0.00643047
-0.00637083
-0.00630773
-0.00624128
-0.00617154
-0.00609861
-0.00602259
-0.00594358
-0.00586168
-0.005777
-0.00568965
-0.00559974
-0.00550739
-0.00541271
-0.00531583
-0.00521686
-0.00511593
-0.00501316
-0.00490867
-0.00480259
-0.00469503
-0.00458613
-0.00447599
-0.00436475
-0.00425253
-0.00413943
-0.00402558
-0.00391109
-0.00379608
-0.00368065
-0.00356492
-0.00344898
-0.00333295
-0.00321692
-0.00310098
-0.00298524
-0.00286979
-0.0027547
-0.00264008
-0.00252599
-0.00241252
-0.00229975
-0.00218774
-0.00207656
-0.00196628
-0.00185697
-0.00174868
-0.00164146
-0.00153538
-0.00143048
-0.0013268
-0.0012244
-0.00112331
-0.00102358
-0.000925231
-0.000828306
-0.000732835
-0.000638844
-0.00054636
-0.000455407
-0.000366006
-0.000278177
-0.000191937
-0.000107301
-2.42838e-05
5.71039e-05
0.000136852
0.000214951
0.000291394
0.000366176
0.000439292
0.00051074
0.000580517
0.000648622
0.000715056
0.00077982
0.000842915
0.000904346
0.000964114
0.00102223
0.00107868
0.00113349
0.00118666
0.0012382
0.00128811
0.00133639
0.00138306
0.00142813
0.00147159
0.00151347
0.00155376
0.00159248
0.00162963
0.00166522
0.00169926
0.00173175
0.00176271
0.00179214
0.00182005
0.00184645
0.00187134
0.00189473
0.00191662
0.00193703
0.00195595
0.0019734
0.00198937
0.00200388
0.00201693
0.00202851
0.00203864
0.00204732
0.00205454
0.00206032
0.00206465
0.00206754
0.00206898
-4.7167e-05
-4.84395e-05
-5.09882e-05
-5.48114e-05
-5.99102e-05
-6.62856e-05
-7.39389e-05
-8.28712e-05
-9.30839e-05
-0.000104578
-0.000117356
-0.00013142
-0.00014677
-0.00016341
-0.000181341
-0.000200566
-0.000221087
-0.000242907
-0.000266028
-0.000290454
-0.000316186
-0.000343228
-0.000371582
-0.000401251
-0.000432239
-0.000464547
-0.00049818
-0.000533139
-0.000569426
-0.000607046
-0.000645999
-0.000686288
-0.000727915
-0.000770881
-0.000815189
-0.000860839
-0.000907832
-0.000956168
-0.00100585
-0.00105687
-0.00110923
-0.00116294
-0.00121798
-0.00127436
-0.00133207
-0.00139111
-0.00145147
-0.00151315
-0.00157613
-0.00164042
-0.001706
-0.00177286
-0.001841
-0.00191039
-0.00198103
-0.00205289
-0.00212597
-0.00220024
-0.00227569
-0.00235229
-0.00243002
-0.00250885
-0.00258875
-0.0026697
-0.00275167
-0.00283462
-0.00291851
-0.00300331
-0.00308897
-0.00317546
-0.00326272
-0.00335071
-0.00343938
-0.00352867
-0.00361853
-0.00370889
-0.0037997
-0.00389089
-0.00398239
-0.00407414
-0.00416605
-0.00425805
-0.00435007
-0.00444201
-0.0045338
-0.00462534
-0.00471655
-0.00480733
-0.00489759
-0.00498722
-0.00507613
-0.00516422
-0.00525137
-0.00533749
-0.00542246
-0.00550617
-0.00558852
-0.00566938
-0.00574866
-0.00582622
-0.00590196
-0.00597576
-0.00604752
-0.0061171
-0.00618441
-0.00624933
-0.00631174
-0.00637154
-0.00642862
-0.00648287
-0.0065342
-0.00658251
-0.00662769
-0.00666965
-0.00670832
-0.00674359
-0.0067754
-0.00680366
-0.00682832
-0.00684929
-0.00686653
-0.00687999
-0.00688961
-0.00689535
-0.00689719
-0.00689509
-0.00688903
-0.006879
-0.006865
-0.00684701
-0.00682506
-0.00679914
-0.0067693
-0.00673554
-0.00669791
-0.00665644
-0.00661119
-0.00656221
-0.00650956
-0.0064533
-0.0063935
-0.00633025
-0.00626363
-0.00619372
-0.00612061
-0.00604441
-0.00596521
-0.00588312
-0.00579824
-0.00571069
-0.00562058
-0.00552802
-0.00543314
-0.00533605
-0.00523687
-0.00513573
-0.00503275
-0.00492805
-0.00482176
-0.004714
-0.00460489
-0.00449455
-0.00438311
-0.00427069
-0.0041574
-0.00404336
-0.00392869
-0.00381349
-0.00369789
-0.00358198
-0.00346588
-0.00334969
-0.0032335
-0.00311741
-0.00300152
-0.00288593
-0.00277071
-0.00265595
-0.00254174
-0.00242815
-0.00231526
-0.00220314
-0.00209186
-0.00198148
-0.00187207
-0.00176369
-0.00165639
-0.00155023
-0.00144525
-0.00134151
-0.00123904
-0.00113789
-0.0010381
-0.000939698
-0.000842723
-0.000747205
-0.000653172
-0.000560649
-0.00046966
-0.000380227
-0.000292368
-0.000206101
-0.000121441
-3.84014e-05
4.30057e-05
0.000122771
0.000200885
0.000277341
0.000352134
0.000425259
0.000496715
0.000566497
0.000634607
0.000701044
0.00076581
0.000828906
0.000890336
0.000950104
0.00100821
0.00106467
0.00111948
0.00117264
0.00122417
0.00127407
0.00132235
0.00136902
0.00141408
0.00145753
0.0014994
0.00153969
0.0015784
0.00161554
0.00165113
0.00168516
0.00171765
0.0017486
0.00177802
0.00180593
0.00183232
0.0018572
0.00188058
0.00190247
0.00192287
0.00194179
0.00195924
0.00197521
0.00198971
0.00200275
0.00201433
0.00202446
0.00203313
0.00204036
0.00204613
0.00205046
0.00205335
0.00205479
-6.28914e-05
-6.41657e-05
-6.67179e-05
-7.05462e-05
-7.56518e-05
-8.20355e-05
-8.96985e-05
-9.8642e-05
-0.000108867
-0.000120376
-0.000133169
-0.00014725
-0.000162619
-0.000179278
-0.000197231
-0.000216479
-0.000237025
-0.00025887
-0.000282019
-0.000306473
-0.000332236
-0.00035931
-0.000387697
-0.000417402
-0.000448426
-0.000480772
-0.000514444
-0.000549444
-0.000585774
-0.000623438
-0.000662437
-0.000702773
-0.000744449
-0.000787466
-0.000831825
-0.000877529
-0.000924577
-0.00097297
-0.00102271
-0.00107379
-0.00112622
-0.00117999
-0.0012351
-0.00129154
-0.00134932
-0.00140843
-0.00146886
-0.00153061
-0.00159368
-0.00165804
-0.0017237
-0.00179065
-0.00185887
-0.00192835
-0.00199908
-0.00207104
-0.00214421
-0.00221858
-0.00229412
-0.00237083
-0.00244866
-0.00252759
-0.00260761
-0.00268867
-0.00277076
-0.00285382
-0.00293784
-0.00302276
-0.00310855
-0.00319517
-0.00328256
-0.00337069
-0.0034595
-0.00354894
-0.00363894
-0.00372946
-0.00382042
-0.00391177
-0.00400343
-0.00409534
-0.00418742
-0.0042796
-0.00437178
-0.0044639
-0.00455587
-0.0046476
-0.00473899
-0.00482996
-0.0049204
-0.00501023
-0.00509933
-0.00518761
-0.00527496
-0.00536128
-0.00544645
-0.00553036
-0.0056129
-0.00569397
-0.00577343
-0.00585119
-0.00592713
-0.00600113
-0.00607307
-0.00614284
-0.00621033
-0.00627542
-0.00633801
-0.00639798
-0.00645523
-0.00650964
-0.00656112
-0.00660957
-0.00665488
-0.00669698
-0.00673576
-0.00677114
-0.00680305
-0.0068314
-0.00685614
-0.00687718
-0.00689448
-0.00690798
-0.00691763
-0.0069234
-0.00692525
-0.00692314
-0.00691707
-0.00690701
-0.00689297
-0.00687493
-0.00685291
-0.00682692
-0.00679698
-0.00676312
-0.00672537
-0.00668378
-0.0066384
-0.00658927
-0.00653646
-0.00648003
-0.00642006
-0.00635662
-0.0062898
-0.00621969
-0.00614638
-0.00606996
-0.00599054
-0.00590822
-0.00582311
-0.00573532
-0.00564497
-0.00555217
-0.00545704
-0.00535971
-0.00526028
-0.0051589
-0.00505567
-0.00495073
-0.00484419
-0.00473619
-0.00462684
-0.00451626
-0.00440459
-0.00429194
-0.00417842
-0.00406416
-0.00394927
-0.00383386
-0.00371805
-0.00360194
-0.00348565
-0.00336926
-0.00325289
-0.00313662
-0.00302056
-0.0029048
-0.00278942
-0.00267451
-0.00256015
-0.00244642
-0.00233339
-0.00222114
-0.00210974
-0.00199925
-0.00188973
-0.00178124
-0.00167384
-0.00156758
-0.00146252
-0.00135869
-0.00125614
-0.00115492
-0.00105506
-0.000956597
-0.000859564
-0.000763991
-0.000669907
-0.000577338
-0.000486306
-0.000396834
-0.000308939
-0.00022264
-0.000137951
-5.48855e-05
2.65449e-05
0.00010633
0.000184462
0.000260935
0.000335741
0.000408878
0.000480342
0.000550133
0.000618248
0.00068469
0.000749458
0.000812556
0.000873987
0.000933753
0.00099186
0.00104831
0.00110312
0.00115628
0.0012078
0.0012577
0.00130597
0.00135263
0.00139768
0.00144113
0.001483
0.00152327
0.00156198
0.00159911
0.00163469
0.00166871
0.00170119
0.00173214
0.00176155
0.00178945
0.00181583
0.00184071
0.00186409
0.00188597
0.00190636
0.00192528
0.00194271
0.00195868
0.00197318
0.00198622
0.00199779
0.00200792
0.00201659
0.00202381
0.00202958
0.00203391
0.0020368
0.00203824
-8.08517e-05
-8.2128e-05
-8.46841e-05
-8.8518e-05
-9.36311e-05
-0.000100024
-0.000107698
-0.000116654
-0.000126894
-0.000138419
-0.00015123
-0.00016533
-0.00018072
-0.000197403
-0.00021538
-0.000234655
-0.000255229
-0.000277104
-0.000300285
-0.000324772
-0.00035057
-0.000377681
-0.000406107
-0.000435852
-0.000466918
-0.000499308
-0.000533026
-0.000568073
-0.000604453
-0.000642167
-0.000681219
-0.00072161
-0.000763342
-0.000806417
-0.000850837
-0.000896602
-0.000943715
-0.000992174
-0.00104198
-0.00109313
-0.00114563
-0.00119947
-0.00125466
-0.00131118
-0.00136904
-0.00142823
-0.00148875
-0.00155059
-0.00161374
-0.0016782
-0.00174395
-0.00181099
-0.00187931
-0.00194889
-0.00201972
-0.00209179
-0.00216507
-0.00223955
-0.00231521
-0.00239203
-0.00246999
-0.00254905
-0.00262919
-0.00271038
-0.0027926
-0.0028758
-0.00295996
-0.00304503
-0.00313096
-0.00321773
-0.00330529
-0.00339357
-0.00348254
-0.00357215
-0.00366232
-0.00375301
-0.00384415
-0.00393569
-0.00402753
-0.00411963
-0.00421191
-0.00430428
-0.00439666
-0.00448899
-0.00458116
-0.0046731
-0.0047647
-0.00485589
-0.00494655
-0.0050366
-0.00512593
-0.00521443
-0.00530201
-0.00538855
-0.00547395
-0.00555809
-0.00564086
-0.00572215
-0.00580185
-0.00587984
-0.005956
-0.00603021
-0.00610238
-0.00617236
-0.00624006
-0.00630536
-0.00636815
-0.00642832
-0.00648575
-0.00654035
-0.006592
-0.00664061
-0.00668609
-0.00672833
-0.00676725
-0.00680276
-0.00683478
-0.00686324
-0.00688807
-0.00690919
-0.00692656
-0.00694011
-0.0069498
-0.00695559
-0.00695745
-0.00695535
-0.00694926
-0.00693917
-0.00692507
-0.00690698
-0.00688488
-0.0068588
-0.00682876
-0.00679478
-0.0067569
-0.00671517
-0.00666962
-0.00662032
-0.00656733
-0.00651071
-0.00645053
-0.00638688
-0.00631984
-0.00624949
-0.00617594
-0.00609927
-0.0060196
-0.00593701
-0.00585164
-0.00576358
-0.00567295
-0.00557988
-0.00548447
-0.00538685
-0.00528714
-0.00518547
-0.00508196
-0.00497673
-0.00486992
-0.00476163
-0.00465201
-0.00454116
-0.00442922
-0.0043163
-0.00420252
-0.004088
-0.00397286
-0.00385721
-0.00374116
-0.00362482
-0.0035083
-0.00339169
-0.0032751
-0.00315863
-0.00304237
-0.00292642
-0.00281085
-0.00269577
-0.00258124
-0.00246734
-0.00235416
-0.00224176
-0.00213022
-0.00201959
-0.00190994
-0.00180133
-0.00169382
-0.00158745
-0.00148228
-0.00137836
-0.00127572
-0.00117442
-0.00107448
-0.000975939
-0.000878837
-0.000783201
-0.000689058
-0.000596435
-0.000505353
-0.000415835
-0.000327899
-0.000241562
-0.000156838
-7.37422e-05
7.71575e-06
8.75256e-05
0.000165679
0.00024217
0.000316993
0.000390144
0.00046162
0.000531419
0.000599543
0.00066599
0.000730762
0.000793862
0.000855293
0.00091506
0.000973165
0.00102962
0.00108442
0.00113757
0.00118909
0.00123898
0.00128725
0.0013339
0.00137895
0.00142239
0.00146424
0.00150451
0.00154321
0.00158033
0.0016159
0.00164992
0.00168239
0.00171333
0.00174273
0.00177062
0.001797
0.00182187
0.00184524
0.00186711
0.0018875
0.00190641
0.00192384
0.0019398
0.00195429
0.00196732
0.0019789
0.00198902
0.00199769
0.00200491
0.00201068
0.00201501
0.00201789
0.00201933
-0.000101043
-0.000102321
-0.000104882
-0.000108722
-0.000113843
-0.000120247
-0.000127933
-0.000136904
-0.00014716
-0.000158703
-0.000171534
-0.000185656
-0.000201071
-0.00021778
-0.000235785
-0.00025509
-0.000275695
-0.000297605
-0.000320822
-0.000345347
-0.000371185
-0.000398337
-0.000426807
-0.000456598
-0.000487712
-0.000520153
-0.000553922
-0.000589023
-0.000625459
-0.000663231
-0.000702343
-0.000742796
-0.000784593
-0.000827734
-0.000872222
-0.000918059
-0.000965243
-0.00101378
-0.00106366
-0.00111489
-0.00116747
-0.0012214
-0.00127667
-0.00133328
-0.00139123
-0.00145052
-0.00151113
-0.00157307
-0.00163632
-0.00170088
-0.00176674
-0.0018339
-0.00190233
-0.00197202
-0.00204297
-0.00211516
-0.00218856
-0.00226317
-0.00233897
-0.00241592
-0.00249401
-0.00257321
-0.0026535
-0.00273485
-0.00281721
-0.00290057
-0.00298489
-0.00307012
-0.00315623
-0.00324317
-0.0033309
-0.00341937
-0.00350852
-0.00359831
-0.00368868
-0.00377957
-0.00387092
-0.00396266
-0.00405472
-0.00414703
-0.00423952
-0.00433212
-0.00442474
-0.00451729
-0.0046097
-0.00470188
-0.00479373
-0.00488516
-0.00497607
-0.00506637
-0.00515595
-0.00524471
-0.00533254
-0.00541934
-0.005505
-0.0055894
-0.00567244
-0.00575399
-0.00583394
-0.00591219
-0.0059886
-0.00606307
-0.00613548
-0.00620571
-0.00627366
-0.00633919
-0.00640221
-0.0064626
-0.00652024
-0.00657505
-0.0066269
-0.0066757
-0.00672135
-0.00676376
-0.00680284
-0.0068385
-0.00687065
-0.00689923
-0.00692416
-0.00694537
-0.00696282
-0.00697643
-0.00698617
-0.00699199
-0.00699386
-0.00699175
-0.00698564
-0.00697552
-0.00696137
-0.0069432
-0.00692102
-0.00689484
-0.00686468
-0.00683057
-0.00679254
-0.00675064
-0.00670492