/*--------------------------------*- C++ -*----------------------------------*\
| =========                 |                                                 |
| \\      /  F ield         | OpenFOAM: The Open Source CFD Toolbox           |
|  \\    /   O peration     | Version:  v2012                                 |
|   \\  /    A nd           | Website:  www.openfoam.com                      |
|    \\/     M anipulation  |                                                 |
\*---------------------------------------------------------------------------*/
FoamFile
{
    version     2.0;
    format      ascii;
    class       volVectorField;
    location    "17.5";
    object      Psi;
}
// * * * * * * * * * * * * * * * * * * * * * * * * * * * * * * * * * * * * * //

dimensions      [0 2 -1 0 0 0 0];


internalField   nonuniform List<vector> 
65536
(
(0 0 8.14432e-06)
(0 0 2.44334e-05)
(0 0 4.07239e-05)
(0 0 5.70166e-05)
(0 0 7.33126e-05)
(0 0 8.96127e-05)
(0 0 0.000105918)
(0 0 0.000122229)
(0 0 0.000138547)
(0 0 0.000154872)
(0 0 0.000171206)
(0 0 0.00018755)
(0 0 0.000203903)
(0 0 0.000220268)
(0 0 0.000236644)
(0 0 0.000253033)
(0 0 0.000269435)
(0 0 0.000285851)
(0 0 0.000302281)
(0 0 0.000318726)
(0 0 0.000335188)
(0 0 0.000351665)
(0 0 0.000368159)
(0 0 0.000384671)
(0 0 0.0004012)
(0 0 0.000417747)
(0 0 0.000434313)
(0 0 0.000450897)
(0 0 0.0004675)
(0 0 0.000484122)
(0 0 0.000500763)
(0 0 0.000517423)
(0 0 0.000534102)
(0 0 0.0005508)
(0 0 0.000567517)
(0 0 0.000584252)
(0 0 0.000601005)
(0 0 0.000617776)
(0 0 0.000634564)
(0 0 0.000651368)
(0 0 0.000668188)
(0 0 0.000685024)
(0 0 0.000701873)
(0 0 0.000718735)
(0 0 0.00073561)
(0 0 0.000752495)
(0 0 0.000769389)
(0 0 0.000786292)
(0 0 0.000803201)
(0 0 0.000820114)
(0 0 0.000837031)
(0 0 0.000853948)
(0 0 0.000870863)
(0 0 0.000887776)
(0 0 0.000904682)
(0 0 0.00092158)
(0 0 0.000938466)
(0 0 0.000955339)
(0 0 0.000972194)
(0 0 0.00098903)
(0 0 0.00100584)
(0 0 0.00102263)
(0 0 0.00103938)
(0 0 0.0010561)
(0 0 0.00107278)
(0 0 0.00108942)
(0 0 0.00110601)
(0 0 0.00112255)
(0 0 0.00113903)
(0 0 0.00115545)
(0 0 0.0011718)
(0 0 0.00118809)
(0 0 0.00120429)
(0 0 0.00122041)
(0 0 0.00123645)
(0 0 0.00125239)
(0 0 0.00126822)
(0 0 0.00128396)
(0 0 0.00129957)
(0 0 0.00131507)
(0 0 0.00133044)
(0 0 0.00134567)
(0 0 0.00136077)
(0 0 0.00137571)
(0 0 0.0013905)
(0 0 0.00140513)
(0 0 0.00141958)
(0 0 0.00143386)
(0 0 0.00144795)
(0 0 0.00146184)
(0 0 0.00147553)
(0 0 0.00148901)
(0 0 0.00150227)
(0 0 0.0015153)
(0 0 0.00152809)
(0 0 0.00154064)
(0 0 0.00155294)
(0 0 0.00156497)
(0 0 0.00157674)
(0 0 0.00158823)
(0 0 0.00159943)
(0 0 0.00161034)
(0 0 0.00162094)
(0 0 0.00163124)
(0 0 0.00164121)
(0 0 0.00165086)
(0 0 0.00166017)
(0 0 0.00166915)
(0 0 0.00167777)
(0 0 0.00168604)
(0 0 0.00169394)
(0 0 0.00170147)
(0 0 0.00170863)
(0 0 0.00171541)
(0 0 0.0017218)
(0 0 0.00172779)
(0 0 0.00173338)
(0 0 0.00173857)
(0 0 0.00174335)
(0 0 0.00174772)
(0 0 0.00175166)
(0 0 0.00175519)
(0 0 0.0017583)
(0 0 0.00176097)
(0 0 0.00176322)
(0 0 0.00176503)
(0 0 0.00176641)
(0 0 0.00176735)
(0 0 0.00176786)
(0 0 0.00176794)
(0 0 0.00176757)
(0 0 0.00176677)
(0 0 0.00176554)
(0 0 0.00176387)
(0 0 0.00176176)
(0 0 0.00175923)
(0 0 0.00175627)
(0 0 0.00175288)
(0 0 0.00174907)
(0 0 0.00174484)
(0 0 0.0017402)
(0 0 0.00173514)
(0 0 0.00172968)
(0 0 0.00172381)
(0 0 0.00171755)
(0 0 0.0017109)
(0 0 0.00170386)
(0 0 0.00169645)
(0 0 0.00168865)
(0 0 0.0016805)
(0 0 0.00167198)
(0 0 0.00166311)
(0 0 0.00165389)
(0 0 0.00164433)
(0 0 0.00163444)
(0 0 0.00162423)
(0 0 0.0016137)
(0 0 0.00160286)
(0 0 0.00159172)
(0 0 0.00158029)
(0 0 0.00156857)
(0 0 0.00155658)
(0 0 0.00154432)
(0 0 0.00153179)
(0 0 0.00151902)
(0 0 0.001506)
(0 0 0.00149274)
(0 0 0.00147926)
(0 0 0.00146555)
(0 0 0.00145163)
(0 0 0.00143751)
(0 0 0.00142319)
(0 0 0.00140869)
(0 0 0.001394)
(0 0 0.00137914)
(0 0 0.00136411)
(0 0 0.00134892)
(0 0 0.00133358)
(0 0 0.00131809)
(0 0 0.00130247)
(0 0 0.00128671)
(0 0 0.00127083)
(0 0 0.00125483)
(0 0 0.00123872)
(0 0 0.00122251)
(0 0 0.00120619)
(0 0 0.00118978)
(0 0 0.00117328)
(0 0 0.0011567)
(0 0 0.00114004)
(0 0 0.00112331)
(0 0 0.00110651)
(0 0 0.00108964)
(0 0 0.00107272)
(0 0 0.00105575)
(0 0 0.00103872)
(0 0 0.00102165)
(0 0 0.00100454)
(0 0 0.000987394)
(0 0 0.000970212)
(0 0 0.000952999)
(0 0 0.000935759)
(0 0 0.000918496)
(0 0 0.000901211)
(0 0 0.000883909)
(0 0 0.000866592)
(0 0 0.000849262)
(0 0 0.000831922)
(0 0 0.000814574)
(0 0 0.00079722)
(0 0 0.000779863)
(0 0 0.000762504)
(0 0 0.000745146)
(0 0 0.000727789)
(0 0 0.000710436)
(0 0 0.000693087)
(0 0 0.000675744)
(0 0 0.000658409)
(0 0 0.000641082)
(0 0 0.000623765)
(0 0 0.000606458)
(0 0 0.000589162)
(0 0 0.000571877)
(0 0 0.000554605)
(0 0 0.000537347)
(0 0 0.000520101)
(0 0 0.000502869)
(0 0 0.000485651)
(0 0 0.000468448)
(0 0 0.000451258)
(0 0 0.000434084)
(0 0 0.000416923)
(0 0 0.000399777)
(0 0 0.000382645)
(0 0 0.000365527)
(0 0 0.000348423)
(0 0 0.000331332)
(0 0 0.000314254)
(0 0 0.00029719)
(0 0 0.000280137)
(0 0 0.000263096)
(0 0 0.000246066)
(0 0 0.000229048)
(0 0 0.000212039)
(0 0 0.000195039)
(0 0 0.000178049)
(0 0 0.000161067)
(0 0 0.000144092)
(0 0 0.000127124)
(0 0 0.000110162)
(0 0 9.32049e-05)
(0 0 7.62525e-05)
(0 0 5.93037e-05)
(0 0 4.23577e-05)
(0 0 2.54138e-05)
(0 0 8.47114e-06)
(0 0 2.44326e-05)
(0 0 7.32991e-05)
(0 0 0.00012217)
(0 0 0.000171047)
(0 0 0.000219934)
(0 0 0.000268833)
(0 0 0.000317748)
(0 0 0.00036668)
(0 0 0.000415633)
(0 0 0.000464609)
(0 0 0.00051361)
(0 0 0.00056264)
(0 0 0.0006117)
(0 0 0.000660793)
(0 0 0.000709921)
(0 0 0.000759086)
(0 0 0.000808292)
(0 0 0.000857538)
(0 0 0.000906829)
(0 0 0.000956165)
(0 0 0.00100555)
(0 0 0.00105498)
(0 0 0.00110446)
(0 0 0.001154)
(0 0 0.00120358)
(0 0 0.00125323)
(0 0 0.00130292)
(0 0 0.00135267)
(0 0 0.00140248)
(0 0 0.00145235)
(0 0 0.00150227)
(0 0 0.00155225)
(0 0 0.00160229)
(0 0 0.00165238)
(0 0 0.00170253)
(0 0 0.00175274)
(0 0 0.001803)
(0 0 0.00185331)
(0 0 0.00190368)
(0 0 0.00195409)
(0 0 0.00200455)
(0 0 0.00205506)
(0 0 0.00210561)
(0 0 0.0021562)
(0 0 0.00220682)
(0 0 0.00225748)
(0 0 0.00230816)
(0 0 0.00235887)
(0 0 0.0024096)
(0 0 0.00246034)
(0 0 0.00251109)
(0 0 0.00256185)
(0 0 0.0026126)
(0 0 0.00266334)
(0 0 0.00271406)
(0 0 0.00276475)
(0 0 0.00281542)
(0 0 0.00286604)
(0 0 0.00291661)
(0 0 0.00296712)
(0 0 0.00301755)
(0 0 0.00306791)
(0 0 0.00311818)
(0 0 0.00316834)
(0 0 0.00321838)
(0 0 0.0032683)
(0 0 0.00331808)
(0 0 0.0033677)
(0 0 0.00341715)
(0 0 0.00346642)
(0 0 0.00351549)
(0 0 0.00356434)
(0 0 0.00361296)
(0 0 0.00366133)
(0 0 0.00370944)
(0 0 0.00375726)
(0 0 0.00380478)
(0 0 0.00385198)
(0 0 0.00389884)
(0 0 0.00394534)
(0 0 0.00399146)
(0 0 0.00403717)
(0 0 0.00408246)
(0 0 0.0041273)
(0 0 0.00417168)
(0 0 0.00421556)
(0 0 0.00425893)
(0 0 0.00430176)
(0 0 0.00434404)
(0 0 0.00438572)
(0 0 0.0044268)
(0 0 0.00446724)
(0 0 0.00450703)
(0 0 0.00454613)
(0 0 0.00458452)
(0 0 0.00462218)
(0 0 0.00465908)
(0 0 0.0046952)
(0 0 0.0047305)
(0 0 0.00476497)
(0 0 0.00479859)
(0 0 0.00483132)
(0 0 0.00486314)
(0 0 0.00489403)
(0 0 0.00492396)
(0 0 0.00495291)
(0 0 0.00498086)
(0 0 0.00500779)
(0 0 0.00503367)
(0 0 0.00505848)
(0 0 0.00508219)
(0 0 0.0051048)
(0 0 0.00512628)
(0 0 0.00514662)
(0 0 0.00516578)
(0 0 0.00518377)
(0 0 0.00520055)
(0 0 0.00521612)
(0 0 0.00523047)
(0 0 0.00524357)
(0 0 0.00525542)
(0 0 0.005266)
(0 0 0.00527531)
(0 0 0.00528334)
(0 0 0.00529008)
(0 0 0.00529552)
(0 0 0.00529967)
(0 0 0.0053025)
(0 0 0.00530403)
(0 0 0.00530425)
(0 0 0.00530315)
(0 0 0.00530075)
(0 0 0.00529705)
(0 0 0.00529203)
(0 0 0.00528573)
(0 0 0.00527812)
(0 0 0.00526923)
(0 0 0.00525907)
(0 0 0.00524764)
(0 0 0.00523494)
(0 0 0.00522101)
(0 0 0.00520583)
(0 0 0.00518944)
(0 0 0.00517184)
(0 0 0.00515305)
(0 0 0.00513309)
(0 0 0.00511197)
(0 0 0.00508971)
(0 0 0.00506633)
(0 0 0.00504185)
(0 0 0.00501629)
(0 0 0.00498966)
(0 0 0.004962)
(0 0 0.00493332)
(0 0 0.00490365)
(0 0 0.004873)
(0 0 0.0048414)
(0 0 0.00480888)
(0 0 0.00477545)
(0 0 0.00474115)
(0 0 0.00470599)
(0 0 0.00467)
(0 0 0.00463321)
(0 0 0.00459563)
(0 0 0.0045573)
(0 0 0.00451823)
(0 0 0.00447845)
(0 0 0.00443799)
(0 0 0.00439687)
(0 0 0.00435511)
(0 0 0.00431274)
(0 0 0.00426977)
(0 0 0.00422624)
(0 0 0.00418217)
(0 0 0.00413757)
(0 0 0.00409248)
(0 0 0.0040469)
(0 0 0.00400088)
(0 0 0.00395441)
(0 0 0.00390754)
(0 0 0.00386026)
(0 0 0.00381262)
(0 0 0.00376462)
(0 0 0.00371628)
(0 0 0.00366762)
(0 0 0.00361867)
(0 0 0.00356943)
(0 0 0.00351993)
(0 0 0.00347018)
(0 0 0.00342019)
(0 0 0.00336999)
(0 0 0.00331958)
(0 0 0.00326899)
(0 0 0.00321822)
(0 0 0.00316729)
(0 0 0.00311621)
(0 0 0.003065)
(0 0 0.00301366)
(0 0 0.00296221)
(0 0 0.00291066)
(0 0 0.00285902)
(0 0 0.0028073)
(0 0 0.00275551)
(0 0 0.00270365)
(0 0 0.00265174)
(0 0 0.00259979)
(0 0 0.00254779)
(0 0 0.00249577)
(0 0 0.00244373)
(0 0 0.00239166)
(0 0 0.00233959)
(0 0 0.00228751)
(0 0 0.00223544)
(0 0 0.00218336)
(0 0 0.0021313)
(0 0 0.00207925)
(0 0 0.00202723)
(0 0 0.00197522)
(0 0 0.00192324)
(0 0 0.00187128)
(0 0 0.00181936)
(0 0 0.00176747)
(0 0 0.00171562)
(0 0 0.0016638)
(0 0 0.00161203)
(0 0 0.00156029)
(0 0 0.00150859)
(0 0 0.00145694)
(0 0 0.00140533)
(0 0 0.00135376)
(0 0 0.00130224)
(0 0 0.00125075)
(0 0 0.00119932)
(0 0 0.00114792)
(0 0 0.00109657)
(0 0 0.00104525)
(0 0 0.000993983)
(0 0 0.00094275)
(0 0 0.000891556)
(0 0 0.000840399)
(0 0 0.000789276)
(0 0 0.000738188)
(0 0 0.000687132)
(0 0 0.000636107)
(0 0 0.000585109)
(0 0 0.000534139)
(0 0 0.000483193)
(0 0 0.000432269)
(0 0 0.000381366)
(0 0 0.00033048)
(0 0 0.00027961)
(0 0 0.000228754)
(0 0 0.000177908)
(0 0 0.000127071)
(0 0 7.62402e-05)
(0 0 2.5413e-05)
(0 0 4.07195e-05)
(0 0 0.000122161)
(0 0 0.000203609)
(0 0 0.000285068)
(0 0 0.000366543)
(0 0 0.000448039)
(0 0 0.000529561)
(0 0 0.000611112)
(0 0 0.000692697)
(0 0 0.00077432)
(0 0 0.000855986)
(0 0 0.0009377)
(0 0 0.00101946)
(0 0 0.00110128)
(0 0 0.00118316)
(0 0 0.0012651)
(0 0 0.00134711)
(0 0 0.00142918)
(0 0 0.00151133)
(0 0 0.00159356)
(0 0 0.00167586)
(0 0 0.00175824)
(0 0 0.00184071)
(0 0 0.00192327)
(0 0 0.00200591)
(0 0 0.00208865)
(0 0 0.00217148)
(0 0 0.0022544)
(0 0 0.00233741)
(0 0 0.00242052)
(0 0 0.00250372)
(0 0 0.00258702)
(0 0 0.00267042)
(0 0 0.00275391)
(0 0 0.0028375)
(0 0 0.00292117)
(0 0 0.00300494)
(0 0 0.0030888)
(0 0 0.00317274)
(0 0 0.00325677)
(0 0 0.00334087)
(0 0 0.00342505)
(0 0 0.0035093)
(0 0 0.00359362)
(0 0 0.003678)
(0 0 0.00376243)
(0 0 0.00384691)
(0 0 0.00393143)
(0 0 0.00401599)
(0 0 0.00410056)
(0 0 0.00418515)
(0 0 0.00426975)
(0 0 0.00435434)
(0 0 0.00443891)
(0 0 0.00452346)
(0 0 0.00460796)
(0 0 0.00469241)
(0 0 0.00477679)
(0 0 0.00486108)
(0 0 0.00494527)
(0 0 0.00502935)
(0 0 0.00511329)
(0 0 0.00519708)
(0 0 0.00528069)
(0 0 0.00536412)
(0 0 0.00544733)
(0 0 0.0055303)
(0 0 0.00561302)
(0 0 0.00569546)
(0 0 0.00577759)
(0 0 0.00585938)
(0 0 0.00594082)
(0 0 0.00602188)
(0 0 0.00610252)
(0 0 0.00618272)
(0 0 0.00626244)
(0 0 0.00634167)
(0 0 0.00642035)
(0 0 0.00649847)
(0 0 0.00657599)
(0 0 0.00665287)
(0 0 0.00672909)
(0 0 0.00680459)
(0 0 0.00687936)
(0 0 0.00695334)
(0 0 0.00702651)
(0 0 0.00709882)
(0 0 0.00717023)
(0 0 0.00724071)
(0 0 0.00731022)
(0 0 0.00737871)
(0 0 0.00744614)
(0 0 0.00751248)
(0 0 0.00757767)
(0 0 0.00764169)
(0 0 0.00770448)
(0 0 0.00776601)
(0 0 0.00782623)
(0 0 0.0078851)
(0 0 0.00794258)
(0 0 0.00799863)
(0 0 0.00805321)
(0 0 0.00810627)
(0 0 0.00815778)
(0 0 0.00820769)
(0 0 0.00825597)
(0 0 0.00830258)
(0 0 0.00834748)
(0 0 0.00839064)
(0 0 0.00843201)
(0 0 0.00847156)
(0 0 0.00850926)
(0 0 0.00854508)
(0 0 0.00857899)
(0 0 0.00861095)
(0 0 0.00864095)
(0 0 0.00866894)
(0 0 0.00869491)
(0 0 0.00871883)
(0 0 0.00874068)
(0 0 0.00876044)
(0 0 0.00877809)
(0 0 0.00879362)
(0 0 0.00880701)
(0 0 0.00881825)
(0 0 0.00882732)
(0 0 0.00883423)
(0 0 0.00883896)
(0 0 0.00884151)
(0 0 0.00884187)
(0 0 0.00884005)
(0 0 0.00883604)
(0 0 0.00882986)
(0 0 0.0088215)
(0 0 0.00881098)
(0 0 0.0087983)
(0 0 0.00878348)
(0 0 0.00876653)
(0 0 0.00874746)
(0 0 0.00872629)
(0 0 0.00870305)
(0 0 0.00867775)
(0 0 0.00865041)
(0 0 0.00862106)
(0 0 0.00858973)
(0 0 0.00855644)
(0 0 0.00852122)
(0 0 0.0084841)
(0 0 0.00844511)
(0 0 0.00840428)
(0 0 0.00836166)
(0 0 0.00831726)
(0 0 0.00827113)
(0 0 0.00822331)
(0 0 0.00817383)
(0 0 0.00812272)
(0 0 0.00807004)
(0 0 0.00801581)
(0 0 0.00796007)
(0 0 0.00790287)
(0 0 0.00784425)
(0 0 0.00778424)
(0 0 0.00772288)
(0 0 0.00766023)
(0 0 0.00759631)
(0 0 0.00753117)
(0 0 0.00746485)
(0 0 0.00739739)
(0 0 0.00732882)
(0 0 0.0072592)
(0 0 0.00718855)
(0 0 0.00711692)
(0 0 0.00704434)
(0 0 0.00697086)
(0 0 0.00689651)
(0 0 0.00682133)
(0 0 0.00674535)
(0 0 0.00666861)
(0 0 0.00659115)
(0 0 0.006513)
(0 0 0.00643419)
(0 0 0.00635476)
(0 0 0.00627474)
(0 0 0.00619415)
(0 0 0.00611304)
(0 0 0.00603143)
(0 0 0.00594935)
(0 0 0.00586683)
(0 0 0.00578389)
(0 0 0.00570056)
(0 0 0.00561687)
(0 0 0.00553285)
(0 0 0.00544851)
(0 0 0.00536388)
(0 0 0.00527899)
(0 0 0.00519384)
(0 0 0.00510847)
(0 0 0.0050229)
(0 0 0.00493714)
(0 0 0.00485121)
(0 0 0.00476513)
(0 0 0.00467891)
(0 0 0.00459258)
(0 0 0.00450615)
(0 0 0.00441962)
(0 0 0.00433302)
(0 0 0.00424636)
(0 0 0.00415965)
(0 0 0.0040729)
(0 0 0.00398612)
(0 0 0.00389932)
(0 0 0.00381252)
(0 0 0.00372572)
(0 0 0.00363893)
(0 0 0.00355215)
(0 0 0.0034654)
(0 0 0.00337869)
(0 0 0.003292)
(0 0 0.00320536)
(0 0 0.00311877)
(0 0 0.00303223)
(0 0 0.00294575)
(0 0 0.00285932)
(0 0 0.00277296)
(0 0 0.00268667)
(0 0 0.00260044)
(0 0 0.00251428)
(0 0 0.00242819)
(0 0 0.00234217)
(0 0 0.00225622)
(0 0 0.00217035)
(0 0 0.00208454)
(0 0 0.00199881)
(0 0 0.00191316)
(0 0 0.00182757)
(0 0 0.00174205)
(0 0 0.0016566)
(0 0 0.00157121)
(0 0 0.00148589)
(0 0 0.00140063)
(0 0 0.00131542)
(0 0 0.00123028)
(0 0 0.00114519)
(0 0 0.00106015)
(0 0 0.000975153)
(0 0 0.000890205)
(0 0 0.000805297)
(0 0 0.000720426)
(0 0 0.00063559)
(0 0 0.000550783)
(0 0 0.000466002)
(0 0 0.000381244)
(0 0 0.000296504)
(0 0 0.000211778)
(0 0 0.000127063)
(0 0 4.23537e-05)
(0 0 5.70041e-05)
(0 0 0.000171015)
(0 0 0.000285036)
(0 0 0.000399073)
(0 0 0.000513132)
(0 0 0.00062722)
(0 0 0.000741344)
(0 0 0.000855509)
(0 0 0.000969722)
(0 0 0.00108399)
(0 0 0.00119832)
(0 0 0.00131271)
(0 0 0.00142717)
(0 0 0.00154171)
(0 0 0.00165634)
(0 0 0.00177105)
(0 0 0.00188585)
(0 0 0.00200075)
(0 0 0.00211576)
(0 0 0.00223087)
(0 0 0.00234609)
(0 0 0.00246143)
(0 0 0.00257688)
(0 0 0.00269245)
(0 0 0.00280815)
(0 0 0.00292398)
(0 0 0.00303994)
(0 0 0.00315602)
(0 0 0.00327224)
(0 0 0.00338859)
(0 0 0.00350508)
(0 0 0.0036217)
(0 0 0.00373846)
(0 0 0.00385534)
(0 0 0.00397237)
(0 0 0.00408952)
(0 0 0.00420679)
(0 0 0.0043242)
(0 0 0.00444172)
(0 0 0.00455936)
(0 0 0.00467712)
(0 0 0.00479498)
(0 0 0.00491293)
(0 0 0.00503099)
(0 0 0.00514913)
(0 0 0.00526734)
(0 0 0.00538562)
(0 0 0.00550396)
(0 0 0.00562235)
(0 0 0.00574077)
(0 0 0.00585921)
(0 0 0.00597766)
(0 0 0.0060961)
(0 0 0.00621452)
(0 0 0.0063329)
(0 0 0.00645123)
(0 0 0.00656947)
(0 0 0.00668762)
(0 0 0.00680566)
(0 0 0.00692355)
(0 0 0.00704128)
(0 0 0.00715882)
(0 0 0.00727615)
(0 0 0.00739324)
(0 0 0.00751007)
(0 0 0.00762659)
(0 0 0.00774279)
(0 0 0.00785863)
(0 0 0.00797407)
(0 0 0.00808909)
(0 0 0.00820364)
(0 0 0.0083177)
(0 0 0.00843121)
(0 0 0.00854415)
(0 0 0.00865647)
(0 0 0.00876813)
(0 0 0.00887908)
(0 0 0.00898929)
(0 0 0.00909871)
(0 0 0.00920728)
(0 0 0.00931497)
(0 0 0.00942171)
(0 0 0.00952747)
(0 0 0.0096322)
(0 0 0.00973583)
(0 0 0.00983831)
(0 0 0.0099396)
(0 0 0.0100396)
(0 0 0.0101384)
(0 0 0.0102357)
(0 0 0.0103317)
(0 0 0.0104261)
(0 0 0.0105191)
(0 0 0.0106104)
(0 0 0.0107001)
(0 0 0.010788)
(0 0 0.0108742)
(0 0 0.0109586)
(0 0 0.0110411)
(0 0 0.0111216)
(0 0 0.0112001)
(0 0 0.0112766)
(0 0 0.011351)
(0 0 0.0114231)
(0 0 0.0114931)
(0 0 0.0115607)
(0 0 0.011626)
(0 0 0.0116889)
(0 0 0.0117494)
(0 0 0.0118074)
(0 0 0.0118628)
(0 0 0.0119156)
(0 0 0.0119658)
(0 0 0.0120133)
(0 0 0.0120581)
(0 0 0.0121001)
(0 0 0.0121393)
(0 0 0.0121757)
(0 0 0.0122093)
(0 0 0.0122399)
(0 0 0.0122676)
(0 0 0.0122923)
(0 0 0.0123141)
(0 0 0.0123328)
(0 0 0.0123486)
(0 0 0.0123613)
(0 0 0.012371)
(0 0 0.0123776)
(0 0 0.0123812)
(0 0 0.0123817)
(0 0 0.0123791)
(0 0 0.0123735)
(0 0 0.0123649)
(0 0 0.0123531)
(0 0 0.0123384)
(0 0 0.0123206)
(0 0 0.0122999)
(0 0 0.0122761)
(0 0 0.0122494)
(0 0 0.0122197)
(0 0 0.0121872)
(0 0 0.0121517)
(0 0 0.0121134)
(0 0 0.0120723)
(0 0 0.0120284)
(0 0 0.0119817)
(0 0 0.0119324)
(0 0 0.0118804)
(0 0 0.0118257)
(0 0 0.0117685)
(0 0 0.0117088)
(0 0 0.0116466)
(0 0 0.011582)
(0 0 0.011515)
(0 0 0.0114456)
(0 0 0.011374)
(0 0 0.0113002)
(0 0 0.0112242)
(0 0 0.0111462)
(0 0 0.011066)
(0 0 0.0109839)
(0 0 0.0108998)
(0 0 0.0108139)
(0 0 0.0107261)
(0 0 0.0106366)
(0 0 0.0105453)
(0 0 0.0104524)
(0 0 0.0103579)
(0 0 0.0102618)
(0 0 0.0101643)
(0 0 0.0100654)
(0 0 0.00996501)
(0 0 0.00986335)
(0 0 0.00976043)
(0 0 0.00965628)
(0 0 0.00955098)
(0 0 0.00944456)
(0 0 0.00933708)
(0 0 0.00922858)
(0 0 0.00911912)
(0 0 0.00900874)
(0 0 0.00889749)
(0 0 0.00878542)
(0 0 0.00867256)
(0 0 0.00855896)
(0 0 0.00844466)
(0 0 0.00832971)
(0 0 0.00821414)
(0 0 0.00809799)
(0 0 0.0079813)
(0 0 0.0078641)
(0 0 0.00774643)
(0 0 0.00762833)
(0 0 0.00750981)
(0 0 0.00739093)
(0 0 0.0072717)
(0 0 0.00715216)
(0 0 0.00703233)
(0 0 0.00691223)
(0 0 0.00679191)
(0 0 0.00667137)
(0 0 0.00655065)
(0 0 0.00642976)
(0 0 0.00630873)
(0 0 0.00618758)
(0 0 0.00606632)
(0 0 0.00594498)
(0 0 0.00582356)
(0 0 0.0057021)
(0 0 0.0055806)
(0 0 0.00545907)
(0 0 0.00533753)
(0 0 0.005216)
(0 0 0.00509448)
(0 0 0.00497299)
(0 0 0.00485153)
(0 0 0.00473011)
(0 0 0.00460875)
(0 0 0.00448745)
(0 0 0.00436621)
(0 0 0.00424505)
(0 0 0.00412397)
(0 0 0.00400297)
(0 0 0.00388206)
(0 0 0.00376124)
(0 0 0.00364052)
(0 0 0.00351989)
(0 0 0.00339936)
(0 0 0.00327894)
(0 0 0.00315861)
(0 0 0.00303839)
(0 0 0.00291826)
(0 0 0.00279824)
(0 0 0.00267832)
(0 0 0.0025585)
(0 0 0.00243877)
(0 0 0.00231914)
(0 0 0.00219961)
(0 0 0.00208016)
(0 0 0.00196079)
(0 0 0.00184152)
(0 0 0.00172232)
(0 0 0.00160319)
(0 0 0.00148414)
(0 0 0.00136515)
(0 0 0.00124623)
(0 0 0.00112736)
(0 0 0.00100855)
(0 0 0.000889784)
(0 0 0.00077106)
(0 0 0.000652373)
(0 0 0.000533717)
(0 0 0.000415086)
(0 0 0.000296476)
(0 0 0.00017788)
(0 0 5.92923e-05)
(0 0 7.32854e-05)
(0 0 0.00021986)
(0 0 0.000366447)
(0 0 0.000513055)
(0 0 0.000659692)
(0 0 0.000806366)
(0 0 0.000953086)
(0 0 0.00109986)
(0 0 0.00124669)
(0 0 0.0013936)
(0 0 0.00154058)
(0 0 0.00168765)
(0 0 0.00183481)
(0 0 0.00198206)
(0 0 0.00212943)
(0 0 0.00227691)
(0 0 0.0024245)
(0 0 0.00257223)
(0 0 0.00272008)
(0 0 0.00286807)
(0 0 0.00301621)
(0 0 0.00316449)
(0 0 0.00331292)
(0 0 0.00346152)
(0 0 0.00361027)
(0 0 0.00375918)
(0 0 0.00390827)
(0 0 0.00405752)
(0 0 0.00420694)
(0 0 0.00435654)
(0 0 0.0045063)
(0 0 0.00465625)
(0 0 0.00480636)
(0 0 0.00495665)
(0 0 0.00510711)
(0 0 0.00525773)
(0 0 0.00540852)
(0 0 0.00555948)
(0 0 0.00571059)
(0 0 0.00586185)
(0 0 0.00601325)
(0 0 0.0061648)
(0 0 0.00631647)
(0 0 0.00646827)
(0 0 0.00662018)
(0 0 0.00677218)
(0 0 0.00692428)
(0 0 0.00707645)
(0 0 0.00722868)
(0 0 0.00738096)
(0 0 0.00753326)
(0 0 0.00768558)
(0 0 0.00783789)
(0 0 0.00799017)
(0 0 0.00814241)
(0 0 0.00829457)
(0 0 0.00844663)
(0 0 0.00859858)
(0 0 0.00875037)
(0 0 0.00890199)
(0 0 0.0090534)
(0 0 0.00920457)
(0 0 0.00935547)
(0 0 0.00950606)
(0 0 0.00965631)
(0 0 0.00980618)
(0 0 0.00995563)
(0 0 0.0101046)
(0 0 0.0102531)
(0 0 0.0104011)
(0 0 0.0105484)
(0 0 0.0106951)
(0 0 0.0108411)
(0 0 0.0109864)
(0 0 0.0111309)
(0 0 0.0112745)
(0 0 0.0114173)
(0 0 0.011559)
(0 0 0.0116998)
(0 0 0.0118395)
(0 0 0.011978)
(0 0 0.0121153)
(0 0 0.0122514)
(0 0 0.0123861)
(0 0 0.0125195)
(0 0 0.0126513)
(0 0 0.0127816)
(0 0 0.0129104)
(0 0 0.0130374)
(0 0 0.0131627)
(0 0 0.0132861)
(0 0 0.0134077)
(0 0 0.0135273)
(0 0 0.0136448)
(0 0 0.0137602)
(0 0 0.0138734)
(0 0 0.0139843)
(0 0 0.0140929)
(0 0 0.014199)
(0 0 0.0143027)
(0 0 0.0144037)
(0 0 0.0145021)
(0 0 0.0145978)
(0 0 0.0146907)
(0 0 0.0147807)
(0 0 0.0148678)
(0 0 0.0149518)
(0 0 0.0150328)
(0 0 0.0151106)
(0 0 0.0151853)
(0 0 0.0152566)
(0 0 0.0153246)
(0 0 0.0153892)
(0 0 0.0154504)
(0 0 0.015508)
(0 0 0.0155621)
(0 0 0.0156126)
(0 0 0.0156594)
(0 0 0.0157026)
(0 0 0.015742)
(0 0 0.0157777)
(0 0 0.0158095)
(0 0 0.0158375)
(0 0 0.0158617)
(0 0 0.0158819)
(0 0 0.0158983)
(0 0 0.0159108)
(0 0 0.0159193)
(0 0 0.0159239)
(0 0 0.0159246)
(0 0 0.0159213)
(0 0 0.015914)
(0 0 0.0159029)
(0 0 0.0158878)
(0 0 0.0158688)
(0 0 0.015846)
(0 0 0.0158192)
(0 0 0.0157886)
(0 0 0.0157543)
(0 0 0.0157161)
(0 0 0.0156741)
(0 0 0.0156285)
(0 0 0.0155792)
(0 0 0.0155263)
(0 0 0.0154698)
(0 0 0.0154097)
(0 0 0.0153462)
(0 0 0.0152792)
(0 0 0.0152089)
(0 0 0.0151353)
(0 0 0.0150584)
(0 0 0.0149784)
(0 0 0.0148952)
(0 0 0.0148089)
(0 0 0.0147197)
(0 0 0.0146276)
(0 0 0.0145326)
(0 0 0.0144348)
(0 0 0.0143343)
(0 0 0.0142312)
(0 0 0.0141255)
(0 0 0.0140173)
(0 0 0.0139067)
(0 0 0.0137937)
(0 0 0.0136785)
(0 0 0.0135611)
(0 0 0.0134415)
(0 0 0.0133199)
(0 0 0.0131964)
(0 0 0.0130709)
(0 0 0.0129435)
(0 0 0.0128144)
(0 0 0.0126836)
(0 0 0.0125512)
(0 0 0.0124172)
(0 0 0.0122817)
(0 0 0.0121448)
(0 0 0.0120066)
(0 0 0.011867)
(0 0 0.0117262)
(0 0 0.0115842)
(0 0 0.0114411)
(0 0 0.0112969)
(0 0 0.0111517)
(0 0 0.0110056)
(0 0 0.0108586)
(0 0 0.0107107)
(0 0 0.010562)
(0 0 0.0104126)
(0 0 0.0102625)
(0 0 0.0101118)
(0 0 0.00996046)
(0 0 0.00980855)
(0 0 0.00965613)
(0 0 0.00950322)
(0 0 0.00934988)
(0 0 0.00919613)
(0 0 0.00904202)
(0 0 0.00888757)
(0 0 0.00873282)
(0 0 0.00857781)
(0 0 0.00842256)
(0 0 0.00826709)
(0 0 0.00811145)
(0 0 0.00795565)
(0 0 0.00779971)
(0 0 0.00764367)
(0 0 0.00748754)
(0 0 0.00733134)
(0 0 0.0071751)
(0 0 0.00701883)
(0 0 0.00686255)
(0 0 0.00670627)
(0 0 0.00655001)
(0 0 0.00639379)
(0 0 0.00623761)
(0 0 0.00608149)
(0 0 0.00592544)
(0 0 0.00576947)
(0 0 0.00561358)
(0 0 0.0054578)
(0 0 0.00530211)
(0 0 0.00514653)
(0 0 0.00499107)
(0 0 0.00483573)
(0 0 0.00468051)
(0 0 0.00452541)
(0 0 0.00437044)
(0 0 0.00421561)
(0 0 0.0040609)
(0 0 0.00390633)
(0 0 0.00375189)
(0 0 0.00359757)
(0 0 0.00344339)
(0 0 0.00328934)
(0 0 0.00313541)
(0 0 0.0029816)
(0 0 0.00282791)
(0 0 0.00267434)
(0 0 0.00252088)
(0 0 0.00236753)
(0 0 0.00221428)
(0 0 0.00206113)
(0 0 0.00190807)
(0 0 0.00175509)
(0 0 0.0016022)
(0 0 0.00144938)
(0 0 0.00129663)
(0 0 0.00114394)
(0 0 0.000991301)
(0 0 0.000838712)
(0 0 0.000686164)
(0 0 0.000533649)
(0 0 0.000381159)
(0 0 0.000228688)
(0 0 7.62281e-05)
(0 0 8.95625e-05)
(0 0 0.000268692)
(0 0 0.000447838)
(0 0 0.000627008)
(0 0 0.000806214)
(0 0 0.000985466)
(0 0 0.00116477)
(0 0 0.00134415)
(0 0 0.0015236)
(0 0 0.00170313)
(0 0 0.00188276)
(0 0 0.00206249)
(0 0 0.00224234)
(0 0 0.00242231)
(0 0 0.00260241)
(0 0 0.00278264)
(0 0 0.00296303)
(0 0 0.00314357)
(0 0 0.00332427)
(0 0 0.00350513)
(0 0 0.00368618)
(0 0 0.0038674)
(0 0 0.00404881)
(0 0 0.00423042)
(0 0 0.00441222)
(0 0 0.00459422)
(0 0 0.00477643)
(0 0 0.00495884)
(0 0 0.00514147)
(0 0 0.0053243)
(0 0 0.00550735)
(0 0 0.00569062)
(0 0 0.00587409)
(0 0 0.00605778)
(0 0 0.00624168)
(0 0 0.00642579)
(0 0 0.00661009)
(0 0 0.0067946)
(0 0 0.0069793)
(0 0 0.00716419)
(0 0 0.00734926)
(0 0 0.00753449)
(0 0 0.00771989)
(0 0 0.00790544)
(0 0 0.00809113)
(0 0 0.00827694)
(0 0 0.00846286)
(0 0 0.00864887)
(0 0 0.00883497)
(0 0 0.00902112)
(0 0 0.0092073)
(0 0 0.00939351)
(0 0 0.00957971)
(0 0 0.00976587)
(0 0 0.00995198)
(0 0 0.010138)
(0 0 0.0103239)
(0 0 0.0105097)
(0 0 0.0106953)
(0 0 0.0108806)
(0 0 0.0110658)
(0 0 0.0112506)
(0 0 0.0114351)
(0 0 0.0116192)
(0 0 0.0118029)
(0 0 0.0119862)
(0 0 0.0121689)
(0 0 0.0123511)
(0 0 0.0125327)
(0 0 0.0127136)
(0 0 0.0128938)
(0 0 0.0130732)
(0 0 0.0132518)
(0 0 0.0134294)
(0 0 0.0136061)
(0 0 0.0137818)
(0 0 0.0139564)
(0 0 0.0141298)
(0 0 0.0143019)
(0 0 0.0144728)
(0 0 0.0146422)
(0 0 0.0148102)
(0 0 0.0149767)
(0 0 0.0151415)
(0 0 0.0153046)
(0 0 0.0154659)
(0 0 0.0156253)
(0 0 0.0157828)
(0 0 0.0159382)
(0 0 0.0160914)
(0 0 0.0162425)
(0 0 0.0163912)
(0 0 0.0165375)
(0 0 0.0166813)
(0 0 0.0168225)
(0 0 0.016961)
(0 0 0.0170967)
(0 0 0.0172296)
(0 0 0.0173595)
(0 0 0.0174863)
(0 0 0.01761)
(0 0 0.0177304)
(0 0 0.0178475)
(0 0 0.0179612)
(0 0 0.0180713)
(0 0 0.0181779)
(0 0 0.0182807)
(0 0 0.0183799)
(0 0 0.0184751)
(0 0 0.0185664)
(0 0 0.0186537)
(0 0 0.018737)
(0 0 0.0188161)
(0 0 0.0188909)
(0 0 0.0189615)
(0 0 0.0190277)
(0 0 0.0190895)
(0 0 0.0191468)
(0 0 0.0191997)
(0 0 0.0192479)
(0 0 0.0192915)
(0 0 0.0193305)
(0 0 0.0193648)
(0 0 0.0193944)
(0 0 0.0194192)
(0 0 0.0194393)
(0 0 0.0194545)
(0 0 0.0194649)
(0 0 0.0194706)
(0 0 0.0194714)
(0 0 0.0194674)
(0 0 0.0194585)
(0 0 0.0194449)
(0 0 0.0194264)
(0 0 0.0194032)
(0 0 0.0193752)
(0 0 0.0193424)
(0 0 0.019305)
(0 0 0.0192629)
(0 0 0.0192162)
(0 0 0.0191649)
(0 0 0.019109)
(0 0 0.0190486)
(0 0 0.0189838)
(0 0 0.0189147)
(0 0 0.0188412)
(0 0 0.0187634)
(0 0 0.0186815)
(0 0 0.0185954)
(0 0 0.0185053)
(0 0 0.0184112)
(0 0 0.0183133)
(0 0 0.0182115)
(0 0 0.0181059)
(0 0 0.0179967)
(0 0 0.017884)
(0 0 0.0177677)
(0 0 0.017648)
(0 0 0.0175251)
(0 0 0.0173989)
(0 0 0.0172696)
(0 0 0.0171372)
(0 0 0.0170018)
(0 0 0.0168636)
(0 0 0.0167227)
(0 0 0.016579)
(0 0 0.0164327)
(0 0 0.016284)
(0 0 0.0161328)
(0 0 0.0159793)
(0 0 0.0158235)
(0 0 0.0156656)
(0 0 0.0155056)
(0 0 0.0153436)
(0 0 0.0151797)
(0 0 0.0150139)
(0 0 0.0148465)
(0 0 0.0146773)
(0 0 0.0145066)
(0 0 0.0143344)
(0 0 0.0141607)
(0 0 0.0139857)
(0 0 0.0138094)
(0 0 0.0136318)
(0 0 0.0134531)
(0 0 0.0132733)
(0 0 0.0130925)
(0 0 0.0129107)
(0 0 0.012728)
(0 0 0.0125445)
(0 0 0.0123601)
(0 0 0.0121751)
(0 0 0.0119893)
(0 0 0.0118029)
(0 0 0.011616)
(0 0 0.0114285)
(0 0 0.0112405)
(0 0 0.011052)
(0 0 0.0108632)
(0 0 0.010674)
(0 0 0.0104845)
(0 0 0.0102947)
(0 0 0.0101046)
(0 0 0.00991433)
(0 0 0.00972385)
(0 0 0.00953322)
(0 0 0.00934245)
(0 0 0.00915158)
(0 0 0.00896064)
(0 0 0.00876964)
(0 0 0.0085786)
(0 0 0.00838756)
(0 0 0.00819652)
(0 0 0.00800551)
(0 0 0.00781455)
(0 0 0.00762364)
(0 0 0.0074328)
(0 0 0.00724206)
(0 0 0.00705141)
(0 0 0.00686086)
(0 0 0.00667044)
(0 0 0.00648015)
(0 0 0.00628998)
(0 0 0.00609996)
(0 0 0.00591009)
(0 0 0.00572037)
(0 0 0.00553081)
(0 0 0.0053414)
(0 0 0.00515215)
(0 0 0.00496307)
(0 0 0.00477414)
(0 0 0.00458538)
(0 0 0.00439678)
(0 0 0.00420834)
(0 0 0.00402005)
(0 0 0.00383192)
(0 0 0.00364394)
(0 0 0.00345611)
(0 0 0.00326842)
(0 0 0.00308087)
(0 0 0.00289344)
(0 0 0.00270615)
(0 0 0.00251897)
(0 0 0.00233191)
(0 0 0.00214495)
(0 0 0.0019581)
(0 0 0.00177133)
(0 0 0.00158465)
(0 0 0.00139804)
(0 0 0.0012115)
(0 0 0.00102501)
(0 0 0.000838579)
(0 0 0.000652185)
(0 0 0.000465824)
(0 0 0.000279485)
(0 0 9.31603e-05)
(0 0 0.000105834)
(0 0 0.000317509)
(0 0 0.000529203)
(0 0 0.000740926)
(0 0 0.000952691)
(0 0 0.00116451)
(0 0 0.0013764)
(0 0 0.00158836)
(0 0 0.00180042)
(0 0 0.00201257)
(0 0 0.00222484)
(0 0 0.00243723)
(0 0 0.00264975)
(0 0 0.00286242)
(0 0 0.00307525)
(0 0 0.00328823)
(0 0 0.0035014)
(0 0 0.00371474)
(0 0 0.00392828)
(0 0 0.00414202)
(0 0 0.00435597)
(0 0 0.00457013)
(0 0 0.00478451)
(0 0 0.00499912)
(0 0 0.00521397)
(0 0 0.00542906)
(0 0 0.00564438)
(0 0 0.00585996)
(0 0 0.00607579)
(0 0 0.00629186)
(0 0 0.00650819)
(0 0 0.00672478)
(0 0 0.00694162)
(0 0 0.00715871)
(0 0 0.00737605)
(0 0 0.00759364)
(0 0 0.00781147)
(0 0 0.00802953)
(0 0 0.00824783)
(0 0 0.00846635)
(0 0 0.00868509)
(0 0 0.00890403)
(0 0 0.00912316)
(0 0 0.00934248)
(0 0 0.00956196)
(0 0 0.00978159)
(0 0 0.0100013)
(0 0 0.0102212)
(0 0 0.0104412)
(0 0 0.0106612)
(0 0 0.0108813)
(0 0 0.0111014)
(0 0 0.0113216)
(0 0 0.0115416)
(0 0 0.0117616)
(0 0 0.0119816)
(0 0 0.0122013)
(0 0 0.012421)
(0 0 0.0126404)
(0 0 0.0128595)
(0 0 0.0130784)
(0 0 0.0132969)
(0 0 0.0135151)
(0 0 0.0137328)
(0 0 0.01395)
(0 0 0.0141667)
(0 0 0.0143828)
(0 0 0.0145982)
(0 0 0.014813)
(0 0 0.0150269)
(0 0 0.01524)
(0 0 0.0154522)
(0 0 0.0156633)
(0 0 0.0158735)
(0 0 0.0160824)
(0 0 0.0162902)
(0 0 0.0164967)
(0 0 0.0167018)
(0 0 0.0169054)
(0 0 0.0171075)
(0 0 0.0173079)
(0 0 0.0175067)
(0 0 0.0177035)
(0 0 0.0178985)
(0 0 0.0180915)
(0 0 0.0182823)
(0 0 0.0184709)
(0 0 0.0186572)
(0 0 0.0188411)
(0 0 0.0190224)
(0 0 0.0192011)
(0 0 0.0193771)
(0 0 0.0195502)
(0 0 0.0197204)
(0 0 0.0198875)
(0 0 0.0200514)
(0 0 0.020212)
(0 0 0.0203693)
(0 0 0.020523)
(0 0 0.0206731)
(0 0 0.0208195)
(0 0 0.020962)
(0 0 0.0211006)
(0 0 0.0212351)
(0 0 0.0213655)
(0 0 0.0214917)
(0 0 0.0216134)
(0 0 0.0217307)
(0 0 0.0218435)
(0 0 0.0219516)
(0 0 0.022055)
(0 0 0.0221535)
(0 0 0.0222471)
(0 0 0.0223358)
(0 0 0.0224193)
(0 0 0.0224977)
(0 0 0.0225709)
(0 0 0.0226388)
(0 0 0.0227013)
(0 0 0.0227584)
(0 0 0.0228101)
(0 0 0.0228563)
(0 0 0.0228969)
(0 0 0.0229319)
(0 0 0.0229613)
(0 0 0.022985)
(0 0 0.023003)
(0 0 0.0230154)
(0 0 0.0230221)
(0 0 0.023023)
(0 0 0.0230183)
(0 0 0.0230078)
(0 0 0.0229916)
(0 0 0.0229698)
(0 0 0.0229423)
(0 0 0.0229091)
(0 0 0.0228704)
(0 0 0.0228261)
(0 0 0.0227762)
(0 0 0.0227209)
(0 0 0.0226601)
(0 0 0.022594)
(0 0 0.0225225)
(0 0 0.0224458)
(0 0 0.0223639)
(0 0 0.0222769)
(0 0 0.0221849)
(0 0 0.0220879)
(0 0 0.021986)
(0 0 0.0218793)
(0 0 0.021768)
(0 0 0.021652)
(0 0 0.0215315)
(0 0 0.0214066)
(0 0 0.0212773)
(0 0 0.0211438)
(0 0 0.0210062)
(0 0 0.0208646)
(0 0 0.0207191)
(0 0 0.0205697)
(0 0 0.0204167)
(0 0 0.02026)
(0 0 0.0200999)
(0 0 0.0199363)
(0 0 0.0197695)
(0 0 0.0195995)
(0 0 0.0194265)
(0 0 0.0192504)
(0 0 0.0190715)
(0 0 0.0188899)
(0 0 0.0187056)
(0 0 0.0185188)
(0 0 0.0183295)
(0 0 0.0181378)
(0 0 0.0179439)
(0 0 0.0177479)
(0 0 0.0175498)
(0 0 0.0173497)
(0 0 0.0171478)
(0 0 0.0169441)
(0 0 0.0167387)
(0 0 0.0165316)
(0 0 0.0163231)
(0 0 0.0161131)
(0 0 0.0159017)
(0 0 0.0156891)
(0 0 0.0154752)
(0 0 0.0152603)
(0 0 0.0150442)
(0 0 0.0148272)
(0 0 0.0146092)
(0 0 0.0143903)
(0 0 0.0141707)
(0 0 0.0139503)
(0 0 0.0137292)
(0 0 0.0135075)
(0 0 0.0132853)
(0 0 0.0130625)
(0 0 0.0128392)
(0 0 0.0126155)
(0 0 0.0123915)
(0 0 0.0121671)
(0 0 0.0119424)
(0 0 0.0117174)
(0 0 0.0114922)
(0 0 0.0112669)