/*--------------------------------*- C++ -*----------------------------------*\
| =========                 |                                                 |
| \\      /  F ield         | OpenFOAM: The Open Source CFD Toolbox           |
|  \\    /   O peration     | Version:  v2012                                 |
|   \\  /    A nd           | Website:  www.openfoam.com                      |
|    \\/     M anipulation  |                                                 |
\*---------------------------------------------------------------------------*/
FoamFile
{
    version     2.0;
    format      ascii;
    class       volVectorField;
    location    "17.5";
    object      U;
}
// * * * * * * * * * * * * * * * * * * * * * * * * * * * * * * * * * * * * * //

dimensions      [0 1 -1 0 0 0 0];


internalField   nonuniform List<vector> 
65536
(
(0.000663525 -0.000663554 0)
(0.00199063 -0.000663584 0)
(0.00331783 -0.000663665 0)
(0.0046452 -0.000663779 0)
(0.00597285 -0.000663929 0)
(0.00730084 -0.000664116 0)
(0.00862924 -0.00066434 0)
(0.00995812 -0.0006646 0)
(0.0112876 -0.000664895 0)
(0.0126176 -0.000665224 0)
(0.0139484 -0.000665589 0)
(0.0152799 -0.000665987 0)
(0.0166122 -0.000666417 0)
(0.0179455 -0.000666879 0)
(0.0192797 -0.000667373 0)
(0.0206149 -0.000667895 0)
(0.0219512 -0.000668447 0)
(0.0232886 -0.000669026 0)
(0.0246272 -0.00066963 0)
(0.0259671 -0.00067026 0)
(0.0273082 -0.000670912 0)
(0.0286506 -0.000671586 0)
(0.0299945 -0.000672279 0)
(0.0313397 -0.00067299 0)
(0.0326864 -0.000673718 0)
(0.0340345 -0.000674459 0)
(0.0353841 -0.000675212 0)
(0.0367353 -0.000675974 0)
(0.038088 -0.000676744 0)
(0.0394422 -0.000677519 0)
(0.040798 -0.000678295 0)
(0.0421553 -0.000679072 0)
(0.0435142 -0.000679844 0)
(0.0448747 -0.000680611 0)
(0.0462366 -0.000681368 0)
(0.0476001 -0.000682113 0)
(0.0489651 -0.000682841 0)
(0.0503315 -0.000683551 0)
(0.0516992 -0.000684237 0)
(0.0530684 -0.000684896 0)
(0.0544388 -0.000685525 0)
(0.0558105 -0.000686119 0)
(0.0571833 -0.000686675 0)
(0.0585572 -0.000687187 0)
(0.059932 -0.000687651 0)
(0.0613078 -0.000688063 0)
(0.0626843 -0.000688418 0)
(0.0640614 -0.000688711 0)
(0.0654391 -0.000688937 0)
(0.0668172 -0.00068909 0)
(0.0681955 -0.000689166 0)
(0.0695739 -0.000689159 0)
(0.0709522 -0.000689063 0)
(0.0723302 -0.000688871 0)
(0.0737077 -0.00068858 0)
(0.0750846 -0.000688181 0)
(0.0764605 -0.000687669 0)
(0.0778353 -0.000687038 0)
(0.0792087 -0.000686281 0)
(0.0805805 -0.000685392 0)
(0.0819504 -0.000684363 0)
(0.0833181 -0.000683188 0)
(0.0846832 -0.00068186 0)
(0.0860456 -0.000680371 0)
(0.0874048 -0.000678716 0)
(0.0887606 -0.000676886 0)
(0.0901125 -0.000674874 0)
(0.0914602 -0.000672673 0)
(0.0928033 -0.000670276 0)
(0.0941415 -0.000667675 0)
(0.0954742 -0.000664863 0)
(0.0968011 -0.000661832 0)
(0.0981217 -0.000658575 0)
(0.0994356 -0.000655086 0)
(0.100742 -0.000651355 0)
(0.102041 -0.000647377 0)
(0.103332 -0.000643145 0)
(0.104614 -0.00063865 0)
(0.105887 -0.000633887 0)
(0.10715 -0.000628849 0)
(0.108402 -0.000623529 0)
(0.109644 -0.00061792 0)
(0.110874 -0.000612018 0)
(0.112092 -0.000605816 0)
(0.113298 -0.000599308 0)
(0.11449 -0.00059249 0)
(0.115668 -0.000585355 0)
(0.116832 -0.000577901 0)
(0.11798 -0.000570122 0)
(0.119112 -0.000562015 0)
(0.120228 -0.000553576 0)
(0.121327 -0.000544803 0)
(0.122408 -0.000535693 0)
(0.12347 -0.000526244 0)
(0.124513 -0.000516455 0)
(0.125536 -0.000506325 0)
(0.126538 -0.000495853 0)
(0.12752 -0.00048504 0)
(0.128479 -0.000473886 0)
(0.129416 -0.000462394 0)
(0.130329 -0.000450565 0)
(0.131218 -0.000438403 0)
(0.132083 -0.000425909 0)
(0.132922 -0.00041309 0)
(0.133735 -0.000399949 0)
(0.134522 -0.000386491 0)
(0.135282 -0.000372724 0)
(0.136013 -0.000358654 0)
(0.136716 -0.000344288 0)
(0.137391 -0.000329635 0)
(0.138035 -0.000314703 0)
(0.13865 -0.000299503 0)
(0.139233 -0.000284043 0)
(0.139786 -0.000268336 0)
(0.140307 -0.000252392 0)
(0.140796 -0.000236224 0)
(0.141252 -0.000219844 0)
(0.141675 -0.000203265 0)
(0.142065 -0.000186502 0)
(0.142421 -0.000169567 0)
(0.142744 -0.000152476 0)
(0.143031 -0.000135243 0)
(0.143285 -0.000117884 0)
(0.143503 -0.000100415 0)
(0.143686 -8.28519e-05 0)
(0.143834 -6.52102e-05 0)
(0.143947 -4.75068e-05 0)
(0.144024 -2.97581e-05 0)
(0.144066 -1.19808e-05 0)
(0.144072 5.80833e-06 0)
(0.144043 2.35925e-05 0)
(0.143978 4.13552e-05 0)
(0.143877 5.90797e-05 0)
(0.143741 7.67495e-05 0)
(0.14357 9.43484e-05 0)
(0.143364 0.00011186 0)
(0.143123 0.000129269 0)
(0.142847 0.00014656 0)
(0.142536 0.000163717 0)
(0.142192 0.000180726 0)
(0.141813 0.000197572 0)
(0.141401 0.000214241 0)
(0.140956 0.000230721 0)
(0.140478 0.000246997 0)
(0.139968 0.000263059 0)
(0.139426 0.000278893 0)
(0.138852 0.000294489 0)
(0.138247 0.000309837 0)
(0.137612 0.000324925 0)
(0.136947 0.000339746 0)
(0.136253 0.00035429 0)
(0.13553 0.000368549 0)
(0.134778 0.000382515 0)
(0.133999 0.000396183 0)
(0.133193 0.000409546 0)
(0.132361 0.000422599 0)
(0.131503 0.000435337 0)
(0.130619 0.000447756 0)
(0.129711 0.000459852 0)
(0.128779 0.000471623 0)
(0.127824 0.000483067 0)
(0.126847 0.000494181 0)
(0.125847 0.000504966 0)
(0.124826 0.00051542 0)
(0.123785 0.000525543 0)
(0.122724 0.000535337 0)
(0.121643 0.000544802 0)
(0.120544 0.00055394 0)
(0.119427 0.000562754 0)
(0.118293 0.000571245 0)
(0.117142 0.000579416 0)
(0.115975 0.000587272 0)
(0.114792 0.000594816 0)
(0.113595 0.000602051 0)
(0.112384 0.000608983 0)
(0.111159 0.000615616 0)
(0.109921 0.000621954 0)
(0.108671 0.000628004 0)
(0.107409 0.000633771 0)
(0.106135 0.00063926 0)
(0.104851 0.000644478 0)
(0.103557 0.00064943 0)
(0.102253 0.000654122 0)
(0.10094 0.000658562 0)
(0.0996187 0.000662756 0)
(0.098289 0.000666709 0)
(0.0969516 0.00067043 0)
(0.095607 0.000673924 0)
(0.0942556 0.000677198 0)
(0.0928979 0.000680259 0)
(0.0915343 0.000683115 0)
(0.0901652 0.000685771 0)
(0.088791 0.000688235 0)
(0.087412 0.000690513 0)
(0.0860287 0.000692613 0)
(0.0846414 0.000694541 0)
(0.0832503 0.000696303 0)
(0.0818559 0.000697907 0)
(0.0804585 0.000699358 0)
(0.0790583 0.000700664 0)
(0.0776557 0.000701831 0)
(0.0762508 0.000702865 0)
(0.074844 0.000703773 0)
(0.0734355 0.00070456 0)
(0.0720256 0.000705233 0)
(0.0706145 0.000705797 0)
(0.0692023 0.000706258 0)
(0.0677893 0.000706622 0)
(0.0663756 0.000706895 0)
(0.0649616 0.000707082 0)
(0.0635472 0.000707188 0)
(0.0621327 0.000707219 0)
(0.0607182 0.00070718 0)
(0.0593039 0.000707075 0)
(0.0578898 0.000706909 0)
(0.0564761 0.000706687 0)
(0.0550629 0.000706414 0)
(0.0536504 0.000706094 0)
(0.0522385 0.000705731 0)
(0.0508274 0.00070533 0)
(0.0494171 0.000704895 0)
(0.0480077 0.000704429 0)
(0.0465993 0.000703936 0)
(0.0451919 0.00070342 0)
(0.0437855 0.000702884 0)
(0.0423803 0.000702332 0)
(0.0409761 0.000701768 0)
(0.0395732 0.000701193 0)
(0.0381713 0.000700612 0)
(0.0367707 0.000700027 0)
(0.0353712 0.000699441 0)
(0.0339728 0.000698856 0)
(0.0325757 0.000698276 0)
(0.0311797 0.000697702 0)
(0.0297849 0.000697137 0)
(0.0283911 0.000696583 0)
(0.0269985 0.000696042 0)
(0.0256069 0.000695517 0)
(0.0242164 0.000695008 0)
(0.0228269 0.000694518 0)
(0.0214383 0.000694049 0)
(0.0200506 0.000693601 0)
(0.0186639 0.000693177 0)
(0.0172779 0.000692778 0)
(0.0158927 0.000692405 0)
(0.0145083 0.000692059 0)
(0.0131245 0.000691741 0)
(0.0117413 0.000691452 0)
(0.0103586 0.000691193 0)
(0.00897649 0.000690965 0)
(0.00759477 0.000690769 0)
(0.0062134 0.000690604 0)
(0.00483234 0.000690472 0)
(0.0034515 0.000690372 0)
(0.00207084 0.000690305 0)
(0.000690275 0.000690272 0)
(0.000663494 -0.0019906 0)
(0.00199052 -0.00199071 0)
(0.00331764 -0.00199094 0)
(0.00464495 -0.00199128 0)
(0.00597253 -0.00199173 0)
(0.00730044 -0.00199229 0)
(0.00862877 -0.00199296 0)
(0.00995758 -0.00199374 0)
(0.0112869 -0.00199463 0)
(0.0126169 -0.00199562 0)
(0.0139476 -0.00199671 0)
(0.0152791 -0.0019979 0)
(0.0166114 -0.0019992 0)
(0.0179445 -0.00200058 0)
(0.0192787 -0.00200207 0)
(0.0206138 -0.00200363 0)
(0.0219501 -0.00200529 0)
(0.0232874 -0.00200703 0)
(0.024626 -0.00200884 0)
(0.0259658 -0.00201073 0)
(0.0273069 -0.00201269 0)
(0.0286493 -0.00201471 0)
(0.0299931 -0.0020168 0)
(0.0313383 -0.00201893 0)
(0.0326849 -0.00202112 0)
(0.034033 -0.00202334 0)
(0.0353826 -0.0020256 0)
(0.0367338 -0.00202789 0)
(0.0380865 -0.0020302 0)
(0.0394407 -0.00203253 0)
(0.0407965 -0.00203486 0)
(0.0421538 -0.00203719 0)
(0.0435127 -0.00203952 0)
(0.0448732 -0.00204182 0)
(0.0462352 -0.00204409 0)
(0.0475987 -0.00204633 0)
(0.0489636 -0.00204852 0)
(0.0503301 -0.00205065 0)
(0.0516979 -0.00205271 0)
(0.0530671 -0.0020547 0)
(0.0544376 -0.00205659 0)
(0.0558093 -0.00205837 0)
(0.0571822 -0.00206004 0)
(0.0585562 -0.00206158 0)
(0.0599312 -0.00206298 0)
(0.061307 -0.00206422 0)
(0.0626837 -0.00206529 0)
(0.0640609 -0.00206618 0)
(0.0654388 -0.00206686 0)
(0.066817 -0.00206732 0)
(0.0681955 -0.00206756 0)
(0.069574 -0.00206754 0)
(0.0709525 -0.00206726 0)
(0.0723307 -0.00206669 0)
(0.0737084 -0.00206582 0)
(0.0750855 -0.00206463 0)
(0.0764617 -0.0020631 0)
(0.0778367 -0.00206121 0)
(0.0792104 -0.00205895 0)
(0.0805825 -0.00205629 0)
(0.0819526 -0.00205321 0)
(0.0833206 -0.00204969 0)
(0.0846861 -0.00204571 0)
(0.0860488 -0.00204125 0)
(0.0874083 -0.00203629 0)
(0.0887645 -0.00203081 0)
(0.0901167 -0.00202478 0)
(0.0914648 -0.00201819 0)
(0.0928084 -0.002011 0)
(0.0941469 -0.00200321 0)
(0.0954801 -0.00199478 0)
(0.0968074 -0.00198569 0)
(0.0981285 -0.00197593 0)
(0.0994428 -0.00196547 0)
(0.10075 -0.00195428 0)
(0.102049 -0.00194236 0)
(0.103341 -0.00192967 0)
(0.104623 -0.00191619 0)
(0.105897 -0.00190191 0)
(0.10716 -0.0018868 0)
(0.108413 -0.00187084 0)
(0.109656 -0.00185403 0)
(0.110886 -0.00183632 0)
(0.112105 -0.00181772 0)
(0.113311 -0.0017982 0)
(0.114504 -0.00177775 0)
(0.115683 -0.00175635 0)
(0.116847 -0.001734 0)
(0.117996 -0.00171066 0)
(0.119129 -0.00168634 0)
(0.120245 -0.00166103 0)
(0.121345 -0.00163471 0)
(0.122426 -0.00160739 0)
(0.123489 -0.00157904 0)
(0.124533 -0.00154967 0)
(0.125557 -0.00151928 0)
(0.12656 -0.00148787 0)
(0.127542 -0.00145542 0)
(0.128502 -0.00142196 0)
(0.129439 -0.00138748 0)
(0.130353 -0.00135199 0)
(0.131243 -0.0013155 0)
(0.132108 -0.00127802 0)
(0.132948 -0.00123955 0)
(0.133762 -0.00120013 0)
(0.134549 -0.00115975 0)
(0.135309 -0.00111844 0)
(0.136042 -0.00107622 0)
(0.136745 -0.00103311 0)
(0.13742 -0.000989146 0)
(0.138065 -0.000944341 0)
(0.13868 -0.000898729 0)
(0.139265 -0.00085234 0)
(0.139818 -0.000805207 0)
(0.140339 -0.000757364 0)
(0.140828 -0.000708847 0)
(0.141285 -0.000659693 0)
(0.141709 -0.000609943 0)
(0.142099 -0.000559637 0)
(0.142455 -0.000508818 0)
(0.142778 -0.00045753 0)
(0.143066 -0.000405816 0)
(0.143319 -0.000353725 0)
(0.143538 -0.000301302 0)
(0.143722 -0.000248595 0)
(0.14387 -0.000195654 0)
(0.143983 -0.000142527 0)
(0.14406 -8.92645e-05 0)
(0.144102 -3.59161e-05 0)
(0.144108 1.74679e-05 0)
(0.144079 7.08372e-05 0)
(0.144013 0.000124142 0)
(0.143913 0.000177332 0)
(0.143777 0.000230357 0)
(0.143605 0.00028317 0)
(0.143399 0.000335721 0)
(0.143157 0.000387963 0)
(0.142881 0.00043985 0)
(0.142571 0.000491336 0)
(0.142226 0.000542376 0)
(0.141847 0.000592928 0)
(0.141434 0.00064295 0)
(0.140989 0.000692401 0)
(0.14051 0.000741243 0)
(0.14 0.000789439 0)
(0.139457 0.000836953 0)
(0.138883 0.000883751 0)
(0.138278 0.000929803 0)
(0.137642 0.000975078 0)
(0.136977 0.00101955 0)
(0.136282 0.00106319 0)
(0.135558 0.00110597 0)
(0.134806 0.00114788 0)
(0.134026 0.00118889 0)
(0.13322 0.00122898 0)
(0.132387 0.00126815 0)
(0.131528 0.00130636 0)
(0.130644 0.00134362 0)
(0.129735 0.00137991 0)
(0.128803 0.00141523 0)
(0.127847 0.00144956 0)
(0.126869 0.0014829 0)
(0.125868 0.00151526 0)
(0.124847 0.00154662 0)
(0.123805 0.00157699 0)
(0.122743 0.00160637 0)
(0.121662 0.00163476 0)
(0.120562 0.00166217 0)
(0.119445 0.00168861 0)
(0.11831 0.00171408 0)
(0.117158 0.00173859 0)
(0.11599 0.00176216 0)
(0.114807 0.00178478 0)
(0.113609 0.00180648 0)
(0.112397 0.00182727 0)
(0.111172 0.00184717 0)
(0.109933 0.00186618 0)
(0.108683 0.00188432 0)
(0.10742 0.00190162 0)
(0.106146 0.00191808 0)
(0.104862 0.00193372 0)
(0.103567 0.00194857 0)
(0.102262 0.00196265 0)
(0.100949 0.00197596 0)
(0.0996269 0.00198853 0)
(0.0982967 0.00200039 0)
(0.0969589 0.00201154 0)
(0.0956138 0.00202202 0)
(0.094262 0.00203183 0)
(0.0929039 0.00204101 0)
(0.0915399 0.00204957 0)
(0.0901704 0.00205753 0)
(0.0887958 0.00206491 0)
(0.0874165 0.00207174 0)
(0.0860328 0.00207803 0)
(0.0846451 0.00208381 0)
(0.0832538 0.00208909 0)
(0.0818591 0.0020939 0)
(0.0804613 0.00209824 0)
(0.0790608 0.00210216 0)
(0.0776579 0.00210565 0)
(0.0762528 0.00210875 0)
(0.0748458 0.00211146 0)
(0.0734371 0.00211382 0)
(0.0720269 0.00211583 0)
(0.0706155 0.00211752 0)
(0.0692032 0.00211889 0)
(0.06779 0.00211998 0)
(0.0663762 0.0021208 0)
(0.0649619 0.00212135 0)
(0.0635474 0.00212166 0)
(0.0621327 0.00212175 0)
(0.0607181 0.00212163 0)
(0.0593036 0.00212131 0)
(0.0578894 0.00212081 0)
(0.0564757 0.00212014 0)
(0.0550624 0.00211931 0)
(0.0536497 0.00211835 0)
(0.0522378 0.00211726 0)
(0.0508266 0.00211605 0)
(0.0494162 0.00211474 0)
(0.0480068 0.00211334 0)
(0.0465983 0.00211185 0)
(0.0451909 0.0021103 0)
(0.0437845 0.00210869 0)
(0.0423792 0.00210703 0)
(0.040975 0.00210534 0)
(0.039572 0.00210361 0)
(0.0381702 0.00210186 0)
(0.0367695 0.00210011 0)
(0.03537 0.00209834 0)
(0.0339717 0.00209659 0)
(0.0325746 0.00209484 0)
(0.0311786 0.00209312 0)
(0.0297838 0.00209142 0)
(0.0283901 0.00208976 0)
(0.0269974 0.00208814 0)
(0.0256059 0.00208656 0)
(0.0242154 0.00208503 0)
(0.0228259 0.00208356 0)
(0.0214374 0.00208215 0)
(0.0200498 0.0020808 0)
(0.0186631 0.00207953 0)
(0.0172771 0.00207833 0)
(0.015892 0.00207721 0)
(0.0145076 0.00207617 0)
(0.0131239 0.00207522 0)
(0.0117407 0.00207435 0)
(0.0103582 0.00207357 0)
(0.00897608 0.00207289 0)
(0.00759441 0.0020723 0)
(0.00621311 0.0020718 0)
(0.00483211 0.00207141 0)
(0.00345134 0.00207111 0)
(0.00207074 0.00207091 0)
(0.000690242 0.00207081 0)
(0.000663412 -0.00331754 0)
(0.00199029 -0.00331773 0)
(0.00331727 -0.0033181 0)
(0.00464444 -0.00331866 0)
(0.00597187 -0.00331941 0)
(0.00729964 -0.00332034 0)
(0.00862782 -0.00332146 0)
(0.00995648 -0.00332276 0)
(0.0112857 -0.00332424 0)
(0.0126156 -0.00332589 0)
(0.0139461 -0.00332772 0)
(0.0152774 -0.00332971 0)
(0.0166096 -0.00333187 0)
(0.0179426 -0.00333419 0)
(0.0192767 -0.00333666 0)
(0.0206117 -0.00333928 0)
(0.0219478 -0.00334204 0)
(0.0232851 -0.00334494 0)
(0.0246236 -0.00334797 0)
(0.0259633 -0.00335113 0)
(0.0273042 -0.0033544 0)
(0.0286466 -0.00335777 0)
(0.0299903 -0.00336125 0)
(0.0313354 -0.00336481 0)
(0.032682 -0.00336846 0)
(0.0340301 -0.00337218 0)
(0.0353796 -0.00337595 0)
(0.0367307 -0.00337978 0)
(0.0380834 -0.00338364 0)
(0.0394376 -0.00338752 0)
(0.0407934 -0.00339142 0)
(0.0421507 -0.00339532 0)
(0.0435097 -0.00339919 0)
(0.0448702 -0.00340304 0)
(0.0462322 -0.00340684 0)
(0.0475958 -0.00341058 0)
(0.0489608 -0.00341424 0)
(0.0503273 -0.00341781 0)
(0.0516953 -0.00342126 0)
(0.0530646 -0.00342457 0)
(0.0544352 -0.00342774 0)
(0.0558071 -0.00343073 0)
(0.0571801 -0.00343353 0)
(0.0585543 -0.00343611 0)
(0.0599294 -0.00343845 0)
(0.0613055 -0.00344054 0)
(0.0626824 -0.00344234 0)
(0.0640599 -0.00344383 0)
(0.0654381 -0.00344498 0)
(0.0668166 -0.00344578 0)
(0.0681954 -0.00344618 0)
(0.0695743 -0.00344618 0)
(0.0709531 -0.00344572 0)
(0.0723317 -0.0034448 0)
(0.0737099 -0.00344337 0)
(0.0750874 -0.00344141 0)
(0.076464 -0.00343888 0)
(0.0778395 -0.00343576 0)
(0.0792137 -0.003432 0)
(0.0805863 -0.00342759 0)
(0.0819571 -0.00342248 0)
(0.0833256 -0.00341664 0)
(0.0846918 -0.00341003 0)
(0.0860551 -0.00340263 0)
(0.0874154 -0.00339438 0)
(0.0887722 -0.00338527 0)
(0.0901252 -0.00337525 0)
(0.0914741 -0.00336428 0)
(0.0928184 -0.00335233 0)
(0.0941578 -0.00333936 0)
(0.0954918 -0.00332534 0)
(0.09682 -0.00331022 0)
(0.098142 -0.00329397 0)
(0.0994573 -0.00327656 0)
(0.100765 -0.00325794 0)
(0.102066 -0.00323809 0)
(0.103358 -0.00321696 0)
(0.104642 -0.00319452 0)
(0.105916 -0.00317074 0)
(0.107181 -0.00314558 0)
(0.108435 -0.00311901 0)
(0.109679 -0.003091 0)
(0.110911 -0.00306151 0)
(0.112131 -0.00303053 0)
(0.113338 -0.00299802 0)
(0.114532 -0.00296395 0)
(0.115712 -0.0029283 0)
(0.116877 -0.00289105 0)
(0.118028 -0.00285217 0)
(0.119162 -0.00281165 0)
(0.12028 -0.00276947 0)
(0.121381 -0.00272562 0)
(0.122463 -0.00268008 0)
(0.123528 -0.00263284 0)
(0.124573 -0.0025839 0)
(0.125598 -0.00253324 0)
(0.126602 -0.00248088 0)
(0.127586 -0.00242681 0)
(0.128547 -0.00237104 0)
(0.129486 -0.00231357 0)
(0.130401 -0.00225441 0)
(0.131292 -0.00219358 0)
(0.132159 -0.00213109 0)
(0.133 -0.00206697 0)
(0.133815 -0.00200123 0)
(0.134604 -0.00193391 0)
(0.135365 -0.00186504 0)
(0.136099 -0.00179465 0)
(0.136804 -0.00172278 0)
(0.137479 -0.00164947 0)
(0.138126 -0.00157477 0)
(0.138742 -0.00149871 0)
(0.139327 -0.00142136 0)
(0.139881 -0.00134277 0)
(0.140403 -0.00126299 0)
(0.140894 -0.00118208 0)
(0.141351 -0.00110012 0)
(0.141775 -0.00101716 0)
(0.142166 -0.000933266 0)
(0.142524 -0.000848519 0)
(0.142847 -0.000762988 0)
(0.143135 -0.000676748 0)
(0.143389 -0.000589877 0)
(0.143608 -0.000502452 0)
(0.143792 -0.000414553 0)
(0.143941 -0.000326263 0)
(0.144054 -0.000237663 0)
(0.144131 -0.000148837 0)
(0.144173 -5.98672e-05 0)
(0.144179 2.91618e-05 0)
(0.14415 0.000118166 0)
(0.144085 0.000207062 0)
(0.143984 0.000295767 0)
(0.143847 0.000384197 0)
(0.143676 0.000472272 0)
(0.143469 0.00055991 0)
(0.143227 0.000647032 0)
(0.14295 0.00073356 0)
(0.142639 0.000819419 0)
(0.142293 0.000904534 0)
(0.141914 0.000988833 0)
(0.141501 0.00107225 0)
(0.141054 0.00115471 0)
(0.140575 0.00123615 0)
(0.140064 0.00131652 0)
(0.13952 0.00139575 0)
(0.138945 0.00147378 0)
(0.138339 0.00155056 0)
(0.137702 0.00162605 0)
(0.137036 0.0017002 0)
(0.136339 0.00177296 0)
(0.135615 0.00184429 0)
(0.134861 0.00191415 0)
(0.134081 0.00198252 0)
(0.133273 0.00204937 0)
(0.132438 0.00211465 0)
(0.131578 0.00217836 0)
(0.130693 0.00224047 0)
(0.129783 0.00230097 0)
(0.128849 0.00235983 0)
(0.127892 0.00241706 0)
(0.126913 0.00247263 0)
(0.125911 0.00252656 0)
(0.124888 0.00257883 0)
(0.123845 0.00262944 0)
(0.122782 0.0026784 0)
(0.121699 0.00272572 0)
(0.120598 0.0027714 0)
(0.119479 0.00281545 0)
(0.118343 0.00285789 0)
(0.11719 0.00289873 0)
(0.116021 0.00293799 0)
(0.114837 0.00297569 0)
(0.113638 0.00301184 0)
(0.112425 0.00304648 0)
(0.111198 0.00307962 0)
(0.109958 0.00311128 0)
(0.108706 0.0031415 0)
(0.107443 0.00317031 0)
(0.106168 0.00319772 0)
(0.104882 0.00322378 0)
(0.103586 0.00324851 0)
(0.102281 0.00327194 0)
(0.100966 0.00329411 0)
(0.0996433 0.00331504 0)
(0.0983122 0.00333478 0)
(0.0969734 0.00335334 0)
(0.0956274 0.00337078 0)
(0.0942748 0.00338712 0)
(0.0929158 0.00340239 0)
(0.091551 0.00341663 0)
(0.0901807 0.00342988 0)
(0.0888054 0.00344216 0)
(0.0874253 0.00345352 0)
(0.0860409 0.00346399 0)
(0.0846526 0.00347359 0)
(0.0832606 0.00348237 0)
(0.0818653 0.00349035 0)
(0.0804669 0.00349758 0)
(0.0790659 0.00350408 0)
(0.0776624 0.00350988 0)
(0.0762568 0.00351502 0)
(0.0748492 0.00351953 0)
(0.0734401 0.00352343 0)
(0.0720295 0.00352677 0)
(0.0706177 0.00352956 0)
(0.0692049 0.00353184 0)
(0.0677913 0.00353363 0)
(0.0663772 0.00353497 0)
(0.0649626 0.00353587 0)
(0.0635477 0.00353638 0)
(0.0621328 0.00353651 0)
(0.0607179 0.00353629 0)
(0.0593032 0.00353574 0)
(0.0578888 0.00353488 0)
(0.0564748 0.00353375 0)
(0.0550613 0.00353237 0)
(0.0536484 0.00353074 0)
(0.0522363 0.00352891 0)
(0.050825 0.00352689 0)
(0.0494145 0.00352469 0)
(0.0480049 0.00352234 0)
(0.0465964 0.00351986 0)
(0.0451888 0.00351726 0)
(0.0437824 0.00351456 0)
(0.042377 0.00351179 0)
(0.0409728 0.00350895 0)
(0.0395698 0.00350606 0)
(0.0381679 0.00350314 0)
(0.0367672 0.0035002 0)
(0.0353677 0.00349726 0)
(0.0339694 0.00349432 0)
(0.0325723 0.00349141 0)
(0.0311764 0.00348853 0)
(0.0297816 0.00348569 0)
(0.0283879 0.00348291 0)
(0.0269954 0.0034802 0)
(0.0256039 0.00347756 0)
(0.0242135 0.00347501 0)
(0.022824 0.00347255 0)
(0.0214356 0.0034702 0)
(0.0200481 0.00346795 0)
(0.0186614 0.00346583 0)
(0.0172756 0.00346382 0)
(0.0158906 0.00346195 0)
(0.0145063 0.00346022 0)
(0.0131227 0.00345862 0)
(0.0117397 0.00345717 0)
(0.0103572 0.00345588 0)
(0.00897524 0.00345473 0)
(0.0075937 0.00345375 0)
(0.00621253 0.00345292 0)
(0.00483165 0.00345226 0)
(0.00345101 0.00345176 0)
(0.00207055 0.00345142 0)
(0.000690176 0.00345126 0)
(0.000663298 -0.00464431 0)
(0.00198994 -0.00464456 0)
(0.00331671 -0.00464508 0)
(0.00464365 -0.00464587 0)
(0.00597086 -0.00464692 0)
(0.00729841 -0.00464823 0)
(0.00862638 -0.0046498 0)
(0.00995483 -0.00465162 0)
(0.0112838 -0.00465369 0)
(0.0126135 -0.00465601 0)
(0.0139438 -0.00465857 0)
(0.015275 -0.00466137 0)
(0.0166069 -0.0046644 0)
(0.0179398 -0.00466765 0)
(0.0192736 -0.00467111 0)
(0.0206085 -0.00467479 0)
(0.0219445 -0.00467867 0)
(0.0232816 -0.00468274 0)
(0.0246199 -0.00468699 0)
(0.0259594 -0.00469142 0)
(0.0273003 -0.00469601 0)
(0.0286425 -0.00470075 0)
(0.0299861 -0.00470562 0)
(0.0313311 -0.00471063 0)
(0.0326776 -0.00471575 0)
(0.0340256 -0.00472097 0)
(0.0353751 -0.00472627 0)
(0.0367262 -0.00473164 0)
(0.0380788 -0.00473706 0)
(0.039433 -0.00474252 0)
(0.0407888 -0.00474799 0)
(0.0421461 -0.00475347 0)
(0.0435051 -0.00475892 0)
(0.0448656 -0.00476433 0)
(0.0462277 -0.00476967 0)
(0.0475914 -0.00477493 0)
(0.0489565 -0.00478008 0)
(0.0503232 -0.00478509 0)
(0.0516912 -0.00478995 0)
(0.0530607 -0.00479462 0)
(0.0544316 -0.00479908 0)
(0.0558036 -0.00480329 0)
(0.057177 -0.00480724 0)
(0.0585514 -0.00481089 0)
(0.0599268 -0.0048142 0)
(0.0613032 -0.00481715 0)
(0.0626805 -0.00481971 0)
(0.0640584 -0.00482183 0)
(0.0654369 -0.00482348 0)
(0.0668159 -0.00482463 0)
(0.0681952 -0.00482524 0)
(0.0695746 -0.00482527 0)
(0.070954 -0.00482468 0)
(0.0723332 -0.00482342 0)
(0.073712 -0.00482146 0)
(0.0750901 -0.00481876 0)
(0.0764675 -0.00481527 0)
(0.0778437 -0.00481094 0)
(0.0792187 -0.00480573 0)
(0.0805921 -0.0047996 0)
(0.0819637 -0.00479249 0)
(0.0833332 -0.00478436 0)
(0.0847002 -0.00477517 0)
(0.0860646 -0.00476485 0)
(0.0874258 -0.00475336 0)
(0.0887837 -0.00474065 0)
(0.0901379 -0.00472667 0)
(0.0914879 -0.00471137 0)
(0.0928334 -0.00469469 0)
(0.094174 -0.00467658 0)
(0.0955093 -0.004657 0)
(0.0968389 -0.00463589 0)
(0.0981623 -0.00461319 0)
(0.099479 -0.00458887 0)
(0.100789 -0.00456285 0)
(0.102091 -0.00453511 0)
(0.103384 -0.00450557 0)
(0.10467 -0.00447421 0)
(0.105946 -0.00444096 0)
(0.107212 -0.00440578 0)
(0.108468 -0.00436863 0)
(0.109713 -0.00432946 0)
(0.110947 -0.00428822 0)
(0.112169 -0.00424488 0)
(0.113378 -0.0041994 0)
(0.114574 -0.00415174 0)
(0.115756 -0.00410186 0)
(0.116923 -0.00404974 0)
(0.118075 -0.00399534 0)
(0.119212 -0.00393863 0)
(0.120332 -0.0038796 0)
(0.121434 -0.00381823 0)
(0.122519 -0.00375448 0)
(0.123586 -0.00368836 0)
(0.124633 -0.00361984 0)
(0.12566 -0.00354894 0)
(0.126666 -0.00347563 0)
(0.127652 -0.00339992 0)
(0.128615 -0.00332183 0)
(0.129556 -0.00324135 0)
(0.130473 -0.00315851 0)
(0.131366 -0.00307332 0)
(0.132235 -0.00298581 0)
(0.133078 -0.00289601 0)
(0.133895 -0.00280394 0)
(0.134686 -0.00270965 0)
(0.135449 -0.00261319 0)
(0.136184 -0.00251459 0)
(0.136891 -0.00241391 0)
(0.137568 -0.00231122 0)
(0.138216 -0.00220656 0)
(0.138834 -0.00210001 0)
(0.139421 -0.00199165 0)
(0.139976 -0.00188153 0)
(0.1405 -0.00176976 0)
(0.140991 -0.0016564 0)
(0.14145 -0.00154156 0)
(0.141876 -0.00142532 0)
(0.142268 -0.00130777 0)
(0.142626 -0.00118902 0)
(0.14295 -0.00106918 0)
(0.143239 -0.000948333 0)
(0.143494 -0.000826603 0)
(0.143714 -0.000704096 0)
(0.143898 -0.000580925 0)
(0.144047 -0.000457204 0)
(0.14416 -0.000333048 0)
(0.144238 -0.000208574 0)
(0.14428 -8.38994e-05 0)
(0.144286 4.08584e-05 0)
(0.144257 0.000165582 0)
(0.144191 0.000290153 0)
(0.14409 0.000414455 0)
(0.143954 0.000538371 0)
(0.143781 0.000661788 0)
(0.143574 0.000784592 0)
(0.143331 0.000906672 0)
(0.143054 0.00102792 0)
(0.142742 0.00114822 0)
(0.142395 0.00126749 0)
(0.142015 0.0013856 0)
(0.141601 0.00150248 0)
(0.141153 0.00161801 0)
(0.140673 0.00173212 0)
(0.14016 0.00184471 0)
(0.139615 0.00195571 0)
(0.139038 0.00206503 0)
(0.13843 0.0021726 0)
(0.137792 0.00227835 0)
(0.137124 0.00238222 0)
(0.136426 0.00248413 0)
(0.1357 0.00258405 0)
(0.134945 0.00268191 0)
(0.134162 0.00277767 0)
(0.133352 0.00287128 0)
(0.132516 0.00296272 0)
(0.131654 0.00305194 0)
(0.130767 0.00313892 0)
(0.129855 0.00322363 0)
(0.128919 0.00330606 0)
(0.12796 0.00338618 0)
(0.126978 0.003464 0)
(0.125975 0.0035395 0)
(0.12495 0.00361267 0)
(0.123905 0.00368352 0)
(0.12284 0.00375206 0)
(0.121755 0.0038183 0)
(0.120652 0.00388223 0)
(0.119531 0.00394389 0)
(0.118393 0.00400329 0)
(0.117238 0.00406044 0)
(0.116067 0.00411538 0)
(0.114881 0.00416812 0)
(0.11368 0.00421871 0)
(0.112465 0.00426716 0)
(0.111237 0.00431352 0)
(0.109996 0.00435782 0)
(0.108742 0.00440009 0)
(0.107476 0.00444038 0)
(0.1062 0.00447872 0)
(0.104913 0.00451515 0)
(0.103615 0.00454973 0)
(0.102308 0.00458249 0)
(0.100992 0.00461348 0)
(0.0996678 0.00464274 0)
(0.0983353 0.00467032 0)
(0.0969951 0.00469627 0)
(0.0956478 0.00472063 0)
(0.0942939 0.00474345 0)
(0.0929337 0.00476479 0)
(0.0915676 0.00478468 0)
(0.0901962 0.00480318 0)
(0.0888197 0.00482033 0)
(0.0874386 0.00483618 0)
(0.0860531 0.00485078 0)
(0.0846638 0.00486418 0)
(0.0832708 0.00487643 0)
(0.0818745 0.00488756 0)
(0.0804753 0.00489763 0)
(0.0790734 0.00490668 0)
(0.0776691 0.00491476 0)
(0.0762627 0.00492192 0)
(0.0748544 0.00492818 0)
(0.0734445 0.00493361 0)
(0.0720333 0.00493823 0)
(0.0706209 0.0049421 0)
(0.0692075 0.00494525 0)
(0.0677933 0.00494772 0)
(0.0663786 0.00494956 0)
(0.0649636 0.00495079 0)
(0.0635483 0.00495146 0)
(0.0621329 0.00495161 0)
(0.0607176 0.00495126 0)
(0.0593025 0.00495046 0)
(0.0578877 0.00494923 0)
(0.0564734 0.00494762 0)
(0.0550596 0.00494564 0)
(0.0536465 0.00494334 0)
(0.0522341 0.00494075 0)
(0.0508226 0.00493788 0)
(0.0494119 0.00493478 0)
(0.0480022 0.00493146 0)
(0.0465934 0.00492796 0)
(0.0451858 0.0049243 0)
(0.0437792 0.0049205 0)
(0.0423738 0.0049166 0)
(0.0409695 0.0049126 0)
(0.0395664 0.00490854 0)
(0.0381645 0.00490443 0)
(0.0367638 0.00490029 0)
(0.0353643 0.00489615 0)
(0.033966 0.00489203 0)
(0.0325689 0.00488793 0)
(0.031173 0.00488388 0)
(0.0297783 0.00487989 0)
(0.0283847 0.00487599 0)
(0.0269922 0.00487218 0)
(0.0256008 0.00486847 0)
(0.0242105 0.00486489 0)
(0.0228212 0.00486143 0)
(0.0214329 0.00485813 0)
(0.0200455 0.00485497 0)
(0.018659 0.00485199 0)
(0.0172734 0.00484917 0)
(0.0158885 0.00484655 0)
(0.0145044 0.00484411 0)
(0.0131209 0.00484187 0)
(0.0117381 0.00483984 0)
(0.0103558 0.00483802 0)
(0.00897399 0.00483641 0)
(0.00759263 0.00483503 0)
(0.00621165 0.00483387 0)
(0.00483097 0.00483293 0)
(0.00345052 0.00483223 0)
(0.00207025 0.00483176 0)
(0.000690078 0.00483153 0)
(0.000663146 -0.0059708 0)
(0.00198949 -0.00597113 0)
(0.00331596 -0.00597181 0)
(0.0046426 -0.00597282 0)
(0.00596952 -0.00597417 0)
(0.00729678 -0.00597586 0)
(0.00862445 -0.00597788 0)
(0.00995262 -0.00598023 0)
(0.0112814 -0.0059829 0)
(0.0126107 -0.00598589 0)
(0.0139408 -0.00598919 0)
(0.0152717 -0.0059928 0)
(0.0166034 -0.0059967 0)
(0.017936 -0.00600089 0)
(0.0192696 -0.00600536 0)
(0.0206042 -0.0060101 0)
(0.02194 -0.0060151 0)
(0.0232768 -0.00602035 0)
(0.0246149 -0.00602584 0)
(0.0259543 -0.00603155 0)
(0.027295 -0.00603747 0)
(0.028637 -0.00604358 0)
(0.0299805 -0.00604988 0)
(0.0313254 -0.00605633 0)
(0.0326718 -0.00606294 0)
(0.0340196 -0.00606967 0)
(0.0353691 -0.00607652 0)
(0.03672 -0.00608345 0)
(0.0380726 -0.00609045 0)
(0.0394268 -0.0060975 0)
(0.0407826 -0.00610457 0)
(0.0421399 -0.00611164 0)
(0.0434989 -0.00611869 0)
(0.0448595 -0.00612568 0)
(0.0462217 -0.00613259 0)
(0.0475855 -0.00613939 0)
(0.0489508 -0.00614605 0)
(0.0503176 -0.00615254 0)
(0.0516859 -0.00615883 0)
(0.0530556 -0.00616488 0)
(0.0544267 -0.00617066 0)
(0.055799 -0.00617613 0)
(0.0571727 -0.00618126 0)
(0.0585475 -0.006186 0)
(0.0599233 -0.00619032 0)
(0.0613002 -0.00619417 0)
(0.0626779 -0.00619751 0)
(0.0640563 -0.0062003 0)
(0.0654354 -0.00620249 0)
(0.066815 -0.00620403 0)
(0.0681949 -0.00620488 0)
(0.069575 -0.00620498 0)
(0.0709551 -0.00620429 0)
(0.0723351 -0.00620275 0)
(0.0737147 -0.00620031 0)
(0.0750937 -0.00619691 0)
(0.076472 -0.00619249 0)
(0.0778492 -0.00618701 0)
(0.0792253 -0.00618039 0)
(0.0805997 -0.00617259 0)
(0.0819725 -0.00616353 0)
(0.0833431 -0.00615317 0)
(0.0847114 -0.00614142 0)
(0.0860771 -0.00612824 0)
(0.0874397 -0.00611356 0)
(0.088799 -0.0060973 0)
(0.0901547 -0.00607942 0)
(0.0915062 -0.00605983 0)
(0.0928534 -0.00603847 0)
(0.0941956 -0.00601529 0)
(0.0955327 -0.0059902 0)
(0.096864 -0.00596314 0)
(0.0981892 -0.00593405 0)
(0.0995078 -0.00590286 0)
(0.100819 -0.0058695 0)
(0.102123 -0.00583391 0)
(0.103419 -0.00579603 0)
(0.104707 -0.00575578 0)
(0.105985 -0.00571311 0)
(0.107253 -0.00566796 0)
(0.108512 -0.00562027 0)
(0.109759 -0.00556998 0)
(0.110995 -0.00551703 0)
(0.11222 -0.00546138 0)
(0.113431 -0.00540296 0)
(0.11463 -0.00534174 0)
(0.115814 -0.00527767 0)
(0.116984 -0.00521071 0)
(0.118139 -0.00514081 0)
(0.119278 -0.00506795 0)
(0.120401 -0.00499209 0)
(0.121506 -0.0049132 0)
(0.122594 -0.00483127 0)
(0.123663 -0.00474627 0)
(0.124712 -0.00465819 0)
(0.125742 -0.00456702 0)
(0.126752 -0.00447277 0)
(0.12774 -0.00437542 0)
(0.128706 -0.004275 0)
(0.129649 -0.0041715 0)
(0.130569 -0.00406496 0)
(0.131465 -0.00395539 0)
(0.132336 -0.00384283 0)
(0.133182 -0.00372731 0)
(0.134002 -0.00360887 0)
(0.134795 -0.00348757 0)
(0.135561 -0.00336346 0)
(0.136298 -0.0032366 0)
(0.137007 -0.00310706 0)
(0.137687 -0.00297492 0)
(0.138337 -0.00284024 0)
(0.138957 -0.00270313 0)
(0.139546 -0.00256367 0)
(0.140103 -0.00242196 0)
(0.140629 -0.00227811 0)
(0.141122 -0.00213222 0)
(0.141582 -0.0019844 0)
(0.14201 -0.00183478 0)
(0.142403 -0.00168348 0)
(0.142763 -0.00153063 0)
(0.143088 -0.00137636 0)
(0.143378 -0.00122081 0)
(0.143634 -0.00106411 0)
(0.143854 -0.000906407 0)
(0.144039 -0.000747849 0)
(0.144189 -0.000588582 0)
(0.144303 -0.000428754 0)