/*--------------------------------*- C++ -*----------------------------------*\
| =========                 |                                                 |
| \\      /  F ield         | OpenFOAM: The Open Source CFD Toolbox           |
|  \\    /   O peration     | Version:  v2012                                 |
|   \\  /    A nd           | Website:  www.openfoam.com                      |
|    \\/     M anipulation  |                                                 |
\*---------------------------------------------------------------------------*/
FoamFile
{
    version     2.0;
    format      ascii;
    class       volScalarField;
    location    "0";
    object      pRec;
}
// * * * * * * * * * * * * * * * * * * * * * * * * * * * * * * * * * * * * * //

dimensions      [0 2 -2 0 0 0 0];


internalField   nonuniform List<scalar> 
4000
(
-6.86079e-13
-6.81363e-13
-6.82019e-13
-6.84128e-13
-6.82734e-13
-6.83225e-13
-6.81049e-13
-6.76549e-13
-6.68438e-13
-6.63699e-13
-6.63971e-13
-6.58969e-13
-6.51541e-13
-6.40743e-13
-6.27377e-13
-6.2166e-13
-6.183e-13
-6.16047e-13
-6.09089e-13
-5.98221e-13
-5.8816e-13
-5.8109e-13
-5.75717e-13
-5.66443e-13
-5.55991e-13
-5.45332e-13
-5.41581e-13
-5.36631e-13
-5.30213e-13
-5.18945e-13
-5.05104e-13
-4.9721e-13
-4.93476e-13
-4.8965e-13
-4.83464e-13
-4.78005e-13
-4.67687e-13
-4.51877e-13
-4.35584e-13
-4.30434e-13
-4.28413e-13
-4.24926e-13
-4.2319e-13
-4.17134e-13
-4.0793e-13
-3.98955e-13
-3.89493e-13
-3.80203e-13
-3.7178e-13
-3.63996e-13
-3.55808e-13
-3.48494e-13
-3.41409e-13
-3.33205e-13
-3.25562e-13
-3.1383e-13
-3.06049e-13
-3.03713e-13
-3.01062e-13
-2.97572e-13
-2.89427e-13
-2.82171e-13
-2.72745e-13
-2.6218e-13
-2.5454e-13
-2.47152e-13
-2.42309e-13
-2.33813e-13
-2.23708e-13
-2.16828e-13
-2.09395e-13
-2.01161e-13
-1.88037e-13
-1.80631e-13
-1.78552e-13
-1.74196e-13
-1.67964e-13
-1.61123e-13
-1.51252e-13
-1.3794e-13
-1.26077e-13
-1.20182e-13
-1.11753e-13
-1.06164e-13
-9.98151e-14
-9.36521e-14
-8.5879e-14
-7.86404e-14
-7.51644e-14
-7.07563e-14
-6.5179e-14
-5.83263e-14
-5.23791e-14
-4.8328e-14
-3.91453e-14
-3.06692e-14
-2.38526e-14
-1.60546e-14
-8.5072e-15
-1.91214e-15
-6.83231e-13
-6.81714e-13
-6.84165e-13
-6.84285e-13
-6.85146e-13
-6.82238e-13
-6.79043e-13
-6.76944e-13
-6.71792e-13
-6.66128e-13
-6.60928e-13
-6.56942e-13
-6.50172e-13
-6.40228e-13
-6.30218e-13
-6.24578e-13
-6.20365e-13
-6.14686e-13
-6.07621e-13
-6.01197e-13
-5.90385e-13
-5.79148e-13
-5.72542e-13
-5.64261e-13
-5.54102e-13
-5.47777e-13
-5.43184e-13
-5.37256e-13
-5.29303e-13
-5.16292e-13
-5.07227e-13
-5.00009e-13
-4.93177e-13
-4.86747e-13
-4.80914e-13
-4.74906e-13
-4.66587e-13
-4.54125e-13
-4.41233e-13
-4.33543e-13
-4.28377e-13
-4.25028e-13
-4.2076e-13
-4.1596e-13
-4.08587e-13
-3.98824e-13
-3.88529e-13
-3.80089e-13
-3.71495e-13
-3.6194e-13
-3.54904e-13
-3.47646e-13
-3.41907e-13
-3.34638e-13
-3.26863e-13
-3.16059e-13
-3.05704e-13
-3.02055e-13
-2.99448e-13
-2.95995e-13
-2.91285e-13
-2.82358e-13
-2.73239e-13
-2.6377e-13
-2.56372e-13
-2.47616e-13
-2.40185e-13
-2.32748e-13
-2.25787e-13
-2.18129e-13
-2.09262e-13
-2.01208e-13
-1.92007e-13
-1.83722e-13
-1.78475e-13
-1.70498e-13
-1.6688e-13
-1.59275e-13
-1.48522e-13
-1.36957e-13
-1.27218e-13
-1.21222e-13
-1.14972e-13
-1.07708e-13
-9.87115e-14
-9.21437e-14
-8.40395e-14
-7.6823e-14
-7.38398e-14
-6.94071e-14
-6.60804e-14
-6.07448e-14
-5.56228e-14
-4.62916e-14
-3.7758e-14
-3.10601e-14
-2.31614e-14
-1.61945e-14
-9.50872e-15
-3.55139e-15
-6.8255e-13
-6.81645e-13
-6.83664e-13
-6.86248e-13
-6.86879e-13
-6.83245e-13
-6.78026e-13
-6.76029e-13
-6.69822e-13
-6.66062e-13
-6.61917e-13
-6.56238e-13
-6.49404e-13
-6.41634e-13
-6.32192e-13
-6.2572e-13
-6.1919e-13
-6.13399e-13
-6.08217e-13
-5.9961e-13
-5.89779e-13
-5.81129e-13
-5.73188e-13
-5.65092e-13
-5.55572e-13
-5.50155e-13
-5.44116e-13
-5.3556e-13
-5.27155e-13
-5.15031e-13
-5.07458e-13
-4.9998e-13
-4.92614e-13
-4.88581e-13
-4.83035e-13
-4.76043e-13
-4.6521e-13
-4.54828e-13
-4.44302e-13
-4.33709e-13
-4.27686e-13
-4.22402e-13
-4.21189e-13
-4.16431e-13
-4.08851e-13
-3.98586e-13
-3.86746e-13
-3.78016e-13
-3.72981e-13
-3.67158e-13
-3.56058e-13
-3.48327e-13
-3.3974e-13
-3.31718e-13
-3.24779e-13
-3.16724e-13
-3.06492e-13
-3.0417e-13
-3.03111e-13
-2.97737e-13
-2.89222e-13
-2.78399e-13
-2.70823e-13
-2.64809e-13
-2.58515e-13
-2.50528e-13
-2.42378e-13
-2.32306e-13
-2.24531e-13
-2.15118e-13
-2.06873e-13
-1.99062e-13
-1.8956e-13
-1.83337e-13
-1.77936e-13
-1.71917e-13
-1.66463e-13
-1.59087e-13
-1.48346e-13
-1.38227e-13
-1.31469e-13
-1.22801e-13
-1.11227e-13
-1.0474e-13
-9.87905e-14
-9.42635e-14
-8.79475e-14
-8.0138e-14
-7.38245e-14
-6.77928e-14
-6.37878e-14
-6.05409e-14
-5.4146e-14
-4.65938e-14
-3.74553e-14
-2.91448e-14
-2.39647e-14
-1.70064e-14
-1.244e-14
-4.01632e-15
-6.83348e-13
-6.84108e-13
-6.84524e-13
-6.81415e-13
-6.85382e-13
-6.8085e-13
-6.78334e-13
-6.76385e-13
-6.73445e-13
-6.67727e-13
-6.60717e-13
-6.5251e-13
-6.45923e-13
-6.4129e-13
-6.39365e-13
-6.30385e-13
-6.17801e-13
-6.11061e-13
-6.07024e-13
-5.98804e-13
-5.89789e-13
-5.82377e-13
-5.73584e-13
-5.60323e-13
-5.52308e-13
-5.48275e-13
-5.43459e-13
-5.37673e-13
-5.27757e-13
-5.18402e-13
-5.10788e-13
-5.0171e-13
-4.93377e-13
-4.87019e-13
-4.79034e-13
-4.7562e-13
-4.66088e-13
-4.53991e-13
-4.45487e-13
-4.35719e-13
-4.30217e-13
-4.26262e-13
-4.20854e-13
-4.14124e-13
-4.04834e-13
-3.95833e-13
-3.86902e-13
-3.80851e-13
-3.72869e-13
-3.62021e-13
-3.53147e-13
-3.47281e-13
-3.41346e-13
-3.35352e-13
-3.24308e-13
-3.1774e-13
-3.08776e-13
-3.03072e-13
-3.02093e-13
-2.95941e-13
-2.87971e-13
-2.80317e-13
-2.74377e-13
-2.6711e-13
-2.58443e-13
-2.49373e-13
-2.41508e-13
-2.32451e-13
-2.24875e-13
-2.17289e-13
-2.10086e-13
-2.01792e-13
-1.92135e-13
-1.84429e-13
-1.77596e-13
-1.70696e-13
-1.66102e-13
-1.58881e-13
-1.48295e-13
-1.38659e-13
-1.30876e-13
-1.23119e-13
-1.13166e-13
-1.03948e-13
-9.80779e-14
-9.29731e-14
-8.64335e-14
-7.91902e-14
-7.2015e-14
-6.82831e-14
-6.58313e-14
-6.14772e-14
-5.5467e-14
-4.52785e-14
-3.68307e-14
-3.13562e-14
-2.53956e-14
-1.66073e-14
-1.02336e-14
-3.91329e-15
-6.83612e-13
-6.8742e-13
-6.84326e-13
-6.81024e-13
-6.78346e-13
-6.81096e-13
-6.80532e-13
-6.78371e-13
-6.72553e-13
-6.65507e-13
-6.57989e-13
-6.53968e-13
-6.45446e-13
-6.40585e-13
-6.38627e-13
-6.32551e-13
-6.23801e-13
-6.14577e-13
-6.04371e-13
-5.94573e-13
-5.89449e-13
-5.81566e-13
-5.68923e-13
-5.60171e-13
-5.55685e-13
-5.49991e-13
-5.44474e-13
-5.36616e-13
-5.29886e-13
-5.2067e-13
-5.1129e-13
-5.02365e-13
-4.93161e-13
-4.87122e-13
-4.80632e-13
-4.7541e-13
-4.64966e-13
-4.54163e-13
-4.43926e-13
-4.36292e-13
-4.30692e-13
-4.27703e-13
-4.20883e-13
-4.12887e-13
-4.03398e-13
-3.92772e-13
-3.85811e-13
-3.79845e-13
-3.721e-13
-3.65421e-13
-3.56458e-13
-3.48953e-13
-3.41262e-13
-3.35118e-13
-3.24088e-13
-3.16531e-13
-3.10046e-13
-3.04485e-13
-3.01433e-13
-2.95272e-13
-2.88515e-13
-2.80687e-13
-2.72507e-13
-2.66566e-13
-2.60478e-13
-2.53519e-13
-2.45192e-13
-2.33421e-13
-2.24735e-13
-2.14755e-13
-2.07014e-13
-1.99858e-13
-1.92521e-13
-1.84392e-13
-1.74797e-13
-1.68284e-13
-1.65451e-13
-1.58499e-13
-1.50569e-13
-1.40535e-13
-1.31967e-13
-1.24826e-13
-1.12639e-13
-1.02934e-13
-9.54678e-14
-9.03241e-14
-8.69101e-14
-8.14746e-14
-7.4004e-14
-6.94378e-14
-6.48511e-14
-6.11028e-14
-5.3728e-14
-4.79424e-14
-4.02106e-14
-3.14895e-14
-2.48816e-14
-1.84577e-14
-9.80691e-15
-1.52447e-15
-6.80728e-13
-6.88619e-13
-6.85348e-13
-6.78076e-13
-6.82085e-13
-6.84135e-13
-6.81901e-13
-6.78163e-13
-6.70793e-13
-6.5968e-13
-6.56354e-13
-6.53416e-13
-6.49743e-13
-6.41378e-13
-6.35565e-13
-6.33894e-13
-6.24813e-13
-6.16771e-13
-6.09106e-13
-5.97824e-13
-5.87007e-13
-5.76459e-13
-5.6106e-13
-5.57186e-13
-5.56366e-13
-5.53035e-13
-5.44825e-13
-5.3679e-13
-5.29362e-13
-5.22767e-13
-5.11893e-13
-5.02352e-13
-4.94518e-13
-4.89587e-13
-4.84696e-13
-4.74188e-13
-4.63302e-13
-4.54581e-13
-4.43836e-13
-4.38324e-13
-4.32636e-13
-4.27994e-13
-4.19567e-13
-4.12887e-13
-4.03569e-13
-3.91919e-13
-3.83618e-13
-3.76998e-13
-3.72157e-13
-3.65172e-13
-3.57456e-13
-3.48547e-13
-3.40486e-13
-3.32801e-13
-3.23132e-13
-3.17881e-13
-3.12251e-13
-3.05095e-13
-3.00436e-13
-2.95755e-13
-2.90727e-13
-2.81754e-13
-2.73044e-13
-2.66376e-13
-2.57709e-13
-2.51747e-13
-2.45462e-13
-2.34642e-13
-2.25786e-13
-2.17452e-13
-2.08215e-13
-1.99943e-13
-1.93817e-13
-1.85649e-13
-1.76319e-13
-1.70455e-13
-1.64546e-13
-1.55658e-13
-1.50164e-13
-1.42275e-13
-1.34487e-13
-1.24068e-13
-1.10712e-13
-1.01466e-13
-9.66081e-14
-9.21606e-14
-8.78899e-14
-7.99267e-14
-7.30536e-14
-6.86981e-14
-6.46884e-14
-6.13964e-14
-5.22162e-14
-4.66777e-14
-3.95723e-14
-3.34525e-14
-2.52542e-14
-1.78918e-14
-8.34397e-15
-6.58551e-16
-6.84884e-13
-6.85147e-13
-6.8477e-13
-6.81914e-13
-6.7931e-13
-6.82529e-13
-6.81259e-13
-6.76054e-13
-6.68697e-13
-6.60504e-13
-6.5348e-13
-6.52852e-13
-6.51362e-13
-6.42556e-13
-6.36871e-13
-6.32453e-13
-6.29284e-13
-6.21334e-13
-6.06394e-13
-5.91227e-13
-5.77232e-13
-5.71911e-13
-5.69978e-13
-5.66778e-13
-5.59842e-13
-5.52399e-13
-5.43299e-13
-5.35416e-13
-5.29975e-13
-5.24497e-13
-5.14424e-13
-5.01364e-13
-4.948e-13
-4.86099e-13
-4.80023e-13
-4.72412e-13
-4.65164e-13
-4.58628e-13
-4.47897e-13
-4.37062e-13
-4.29567e-13
-4.23501e-13
-4.18365e-13
-4.13603e-13
-4.0608e-13
-3.95809e-13
-3.84961e-13
-3.75899e-13
-3.69296e-13
-3.65367e-13
-3.58181e-13
-3.52084e-13
-3.42999e-13
-3.33052e-13
-3.24621e-13
-3.1861e-13
-3.11463e-13
-3.01026e-13
-2.97181e-13
-2.956e-13
-2.94967e-13
-2.86472e-13
-2.75299e-13
-2.6446e-13
-2.55216e-13
-2.48399e-13
-2.40591e-13
-2.31156e-13
-2.22457e-13
-2.17317e-13
-2.15012e-13
-2.04859e-13
-1.94696e-13
-1.88304e-13
-1.79115e-13
-1.6926e-13
-1.60782e-13
-1.52125e-13
-1.46563e-13
-1.41269e-13
-1.33966e-13
-1.23759e-13
-1.14994e-13
-1.06284e-13
-9.90139e-14
-8.99376e-14
-8.55751e-14
-8.06903e-14
-7.41318e-14
-7.01612e-14
-6.41105e-14
-5.72501e-14
-5.21475e-14
-4.55339e-14
-3.88467e-14
-3.16165e-14
-2.50751e-14
-1.63855e-14
-8.77712e-15
-2.54784e-15
-6.83489e-13
-6.82421e-13
-6.8099e-13
-6.83077e-13
-6.84813e-13
-6.84266e-13
-6.80527e-13
-6.74304e-13
-6.66754e-13
-6.61099e-13
-6.5705e-13
-6.52276e-13
-6.48241e-13
-6.40548e-13
-6.36786e-13
-6.33127e-13
-6.29174e-13
-6.21619e-13
-6.02899e-13
-5.93514e-13
-5.88067e-13
-5.80225e-13
-5.69432e-13
-5.60601e-13
-5.57209e-13
-5.49645e-13
-5.40418e-13
-5.34783e-13
-5.28454e-13
-5.21796e-13
-5.14937e-13
-5.06044e-13
-4.99719e-13
-4.91854e-13
-4.80911e-13
-4.71904e-13
-4.63612e-13
-4.54718e-13
-4.47156e-13
-4.37609e-13
-4.30259e-13
-4.25343e-13
-4.18693e-13
-4.16219e-13
-4.10471e-13
-3.9645e-13
-3.81411e-13
-3.69528e-13
-3.68369e-13
-3.66442e-13
-3.61811e-13
-3.55149e-13
-3.43124e-13
-3.33101e-13
-3.22421e-13
-3.16399e-13
-3.122e-13
-3.06172e-13
-2.9897e-13
-2.9395e-13
-2.9179e-13
-2.84216e-13
-2.76321e-13
-2.67735e-13
-2.59561e-13
-2.50506e-13
-2.41918e-13
-2.32984e-13
-2.26365e-13
-2.19053e-13
-2.11561e-13
-2.05096e-13
-1.93366e-13
-1.81491e-13
-1.74633e-13
-1.69195e-13
-1.63858e-13
-1.55701e-13
-1.50278e-13
-1.43851e-13
-1.34921e-13
-1.23943e-13
-1.12015e-13
-1.01769e-13
-9.41668e-14
-8.98897e-14
-8.65475e-14
-8.197e-14
-7.52534e-14
-6.8836e-14
-6.20903e-14
-5.6709e-14
-5.20971e-14
-4.68732e-14
-3.7785e-14
-3.02859e-14
-2.43848e-14
-1.77257e-14
-1.01048e-14
-1.34105e-15
-6.85276e-13
-6.85859e-13
-6.82096e-13
-6.78016e-13
-6.80384e-13
-6.82116e-13
-6.81638e-13
-6.74444e-13
-6.64595e-13
-6.62615e-13
-6.57853e-13
-6.49615e-13
-6.43527e-13
-6.41136e-13
-6.39168e-13
-6.35362e-13
-6.29166e-13
-6.19662e-13
-6.06959e-13
-5.95051e-13
-5.86451e-13
-5.77834e-13
-5.72342e-13
-5.66139e-13
-5.58144e-13
-5.48273e-13
-5.39415e-13
-5.34591e-13
-5.31386e-13
-5.22276e-13
-5.15767e-13
-5.07253e-13
-4.97026e-13
-4.86327e-13
-4.80858e-13
-4.72991e-13
-4.63334e-13
-4.5485e-13
-4.4797e-13
-4.40963e-13
-4.35635e-13
-4.27773e-13
-4.15768e-13
-4.09157e-13
-4.04153e-13
-3.97043e-13
-3.85597e-13
-3.77278e-13
-3.71203e-13
-3.64768e-13
-3.58628e-13
-3.51527e-13
-3.42384e-13
-3.34195e-13
-3.26092e-13
-3.2065e-13
-3.13686e-13
-3.06834e-13
-2.99691e-13
-2.95363e-13
-2.89431e-13
-2.82056e-13
-2.75222e-13
-2.67511e-13
-2.57259e-13
-2.47518e-13
-2.41322e-13
-2.34107e-13
-2.26061e-13
-2.1853e-13
-2.1023e-13
-2.05509e-13
-1.97111e-13
-1.87139e-13
-1.75971e-13
-1.6938e-13
-1.64925e-13
-1.57026e-13
-1.50817e-13
-1.42089e-13
-1.34866e-13
-1.24713e-13
-1.12666e-13
-1.03279e-13
-9.61724e-14
-9.02923e-14
-8.69773e-14
-8.1415e-14
-7.51504e-14
-6.85945e-14
-6.14724e-14
-5.61501e-14
-4.92637e-14
-4.40563e-14
-3.72833e-14
-3.02202e-14
-2.34132e-14
-1.48801e-14
-7.11806e-15
8.61274e-16
-6.84596e-13
-6.84045e-13
-6.84726e-13
-6.81283e-13
-6.78749e-13
-6.79883e-13
-6.79555e-13
-6.76636e-13
-6.70018e-13
-6.5933e-13
-6.52696e-13
-6.47133e-13
-6.44371e-13
-6.43215e-13
-6.40013e-13
-6.34264e-13
-6.26136e-13
-6.21157e-13
-6.13835e-13
-5.99322e-13
-5.86362e-13
-5.74502e-13
-5.69015e-13
-5.62819e-13
-5.58582e-13
-5.52446e-13
-5.43495e-13
-5.36799e-13
-5.30225e-13
-5.23016e-13
-5.15788e-13
-5.06943e-13
-4.9747e-13
-4.86387e-13
-4.78586e-13
-4.71675e-13
-4.65794e-13
-4.55372e-13
-4.49514e-13
-4.42037e-13
-4.32173e-13
-4.22742e-13
-4.1479e-13
-4.09329e-13
-4.06413e-13
-4.0129e-13
-3.89634e-13
-3.79056e-13
-3.7149e-13
-3.63003e-13
-3.5652e-13
-3.51267e-13
-3.43692e-13
-3.35223e-13
-3.26592e-13
-3.19628e-13
-3.13422e-13
-3.06423e-13
-2.99806e-13
-2.96839e-13
-2.92527e-13
-2.87357e-13
-2.80817e-13
-2.68448e-13
-2.54944e-13
-2.41688e-13
-2.34468e-13
-2.29786e-13
-2.2535e-13
-2.23623e-13
-2.1733e-13
-2.0711e-13
-1.99208e-13
-1.88768e-13
-1.76494e-13
-1.67425e-13
-1.62716e-13
-1.55747e-13
-1.50643e-13
-1.41382e-13
-1.33831e-13
-1.25065e-13
-1.14619e-13
-1.06482e-13
-9.69035e-14
-8.88774e-14
-8.46016e-14
-7.92623e-14
-7.42493e-14
-6.77463e-14
-6.02234e-14
-5.20524e-14
-4.60061e-14
-4.18582e-14
-3.40822e-14
-2.6824e-14
-1.96244e-14
-1.35254e-14
-5.36238e-15
2.9058e-16
-6.82939e-13
-6.82191e-13
-6.81258e-13
-6.82663e-13
-6.83056e-13
-6.77958e-13
-6.76237e-13
-6.73351e-13
-6.68586e-13
-6.63871e-13
-6.53758e-13
-6.46113e-13
-6.4499e-13
-6.45715e-13
-6.40989e-13
-6.36386e-13
-6.25593e-13
-6.19147e-13
-6.12475e-13
-6.00274e-13
-5.8981e-13
-5.75572e-13
-5.66406e-13
-5.617e-13
-5.56506e-13
-5.50973e-13
-5.45581e-13
-5.38468e-13
-5.31673e-13
-5.24148e-13
-5.15388e-13
-5.06127e-13
-4.96434e-13
-4.87677e-13
-4.81976e-13
-4.73726e-13
-4.64838e-13
-4.55573e-13
-4.49678e-13
-4.40166e-13
-4.32562e-13
-4.22894e-13
-4.15763e-13
-4.12238e-13
-4.0814e-13
-3.99959e-13
-3.87659e-13
-3.75701e-13
-3.69094e-13
-3.62015e-13
-3.58786e-13
-3.53436e-13
-3.43116e-13
-3.34847e-13
-3.26254e-13
-3.22832e-13
-3.16081e-13
-3.08764e-13
-2.99864e-13
-2.91838e-13
-2.8865e-13
-2.80874e-13
-2.76237e-13
-2.70819e-13
-2.57914e-13
-2.44716e-13
-2.35725e-13
-2.2896e-13
-2.2585e-13
-2.25954e-13
-2.17579e-13
-2.09535e-13
-1.99799e-13
-1.88499e-13
-1.75087e-13
-1.64535e-13
-1.62384e-13
-1.57996e-13
-1.53471e-13
-1.44426e-13
-1.37047e-13
-1.28108e-13
-1.14392e-13
-1.03728e-13
-9.32199e-14
-8.39349e-14
-8.48918e-14
-8.19342e-14
-7.40735e-14
-6.69176e-14
-5.81354e-14
-5.13246e-14
-4.53418e-14
-3.98877e-14
-3.5466e-14
-2.91669e-14
-1.6891e-14
-6.21131e-15
1.20399e-15
-4.84555e-16
-6.84952e-13
-6.83229e-13
-6.81484e-13
-6.82371e-13
-6.81654e-13
-6.77099e-13
-6.77491e-13
-6.74333e-13
-6.68413e-13
-6.62105e-13
-6.54792e-13
-6.48546e-13
-6.41555e-13
-6.39433e-13
-6.3746e-13
-6.32679e-13
-6.28555e-13
-6.2362e-13
-6.14469e-13
-6.01193e-13
-5.89032e-13
-5.81365e-13
-5.72067e-13
-5.63069e-13
-5.56863e-13
-5.46277e-13
-5.42247e-13
-5.38415e-13
-5.33122e-13
-5.26066e-13
-5.17253e-13
-5.06681e-13
-4.95342e-13
-4.8524e-13
-4.79769e-13
-4.72302e-13
-4.66263e-13
-4.58039e-13
-4.51426e-13
-4.39651e-13
-4.31413e-13
-4.20477e-13
-4.1545e-13
-4.14029e-13
-4.06972e-13
-3.99451e-13
-3.88555e-13
-3.78281e-13
-3.70067e-13
-3.61664e-13
-3.56101e-13
-3.51844e-13
-3.43607e-13
-3.37548e-13
-3.30408e-13
-3.21837e-13
-3.15197e-13
-3.0772e-13
-2.99543e-13
-2.93636e-13
-2.90607e-13
-2.89602e-13
-2.80152e-13
-2.6856e-13
-2.51817e-13
-2.42742e-13
-2.36033e-13
-2.3137e-13
-2.25469e-13
-2.216e-13
-2.15259e-13
-2.12516e-13
-2.05538e-13
-1.92773e-13
-1.7472e-13
-1.59926e-13
-1.56704e-13
-1.58336e-13
-1.54482e-13
-1.44475e-13
-1.35929e-13
-1.26071e-13
-1.15756e-13
-1.0677e-13
-9.64498e-14
-8.63627e-14
-8.01372e-14
-7.8712e-14
-7.28287e-14
-6.54699e-14
-5.62165e-14
-5.04746e-14
-4.49296e-14
-3.83866e-14
-3.17561e-14
-2.63456e-14
-1.56498e-14
-6.87317e-15
-1.06039e-15
-2.28745e-16
-6.83142e-13
-6.82234e-13
-6.75761e-13
-6.83254e-13
-6.83125e-13
-6.80666e-13
-6.74755e-13
-6.69203e-13
-6.64698e-13
-6.58267e-13
-6.54627e-13
-6.50559e-13
-6.4901e-13
-6.43621e-13
-6.38922e-13
-6.35432e-13
-6.30711e-13
-6.24339e-13
-6.15068e-13
-6.01389e-13
-5.84786e-13
-5.72339e-13
-5.65255e-13
-5.62082e-13
-5.56246e-13
-5.50783e-13
-5.44227e-13
-5.38106e-13
-5.33562e-13
-5.28365e-13
-5.19537e-13
-5.07023e-13
-4.97323e-13
-4.89189e-13
-4.83905e-13
-4.73947e-13
-4.63728e-13
-4.57454e-13
-4.49916e-13
-4.39446e-13
-4.29614e-13
-4.24625e-13
-4.18939e-13
-4.12476e-13
-4.02812e-13
-3.93451e-13
-3.8631e-13
-3.78455e-13
-3.71531e-13
-3.64919e-13
-3.58213e-13
-3.52514e-13
-3.42074e-13
-3.33248e-13
-3.33035e-13
-3.31543e-13
-3.18087e-13
-3.04256e-13
-2.95058e-13
-2.88487e-13
-2.85804e-13
-2.82613e-13
-2.80922e-13
-2.71754e-13
-2.56473e-13
-2.47561e-13
-2.34983e-13
-2.32077e-13
-2.25914e-13
-2.20128e-13
-2.14735e-13
-2.12544e-13
-2.05713e-13
-1.91519e-13
-1.76635e-13
-1.63498e-13
-1.58516e-13
-1.59544e-13
-1.51264e-13
-1.41214e-13
-1.34638e-13
-1.26913e-13
-1.1831e-13
-1.0772e-13
-9.74018e-14
-8.62594e-14
-7.95623e-14
-7.81179e-14
-7.08189e-14
-6.32218e-14
-5.59569e-14
-4.95178e-14
-4.24733e-14
-3.71281e-14
-3.22386e-14
-2.49918e-14
-1.55479e-14
-7.82883e-15
-2.1962e-16
9.33973e-16
-6.79956e-13
-6.88031e-13
-6.82945e-13
-6.78933e-13
-6.79671e-13
-6.78904e-13
-6.74627e-13
-6.73906e-13
-6.65843e-13
-6.54836e-13
-6.50562e-13
-6.5001e-13
-6.47654e-13
-6.45549e-13
-6.41687e-13
-6.33739e-13
-6.24396e-13
-6.17856e-13
-6.12601e-13
-6.03139e-13
-5.9541e-13
-5.8767e-13
-5.77707e-13
-5.62652e-13
-5.49715e-13
-5.42567e-13
-5.43324e-13
-5.39511e-13
-5.34146e-13
-5.29443e-13
-5.20007e-13
-5.08593e-13
-4.94766e-13
-4.83243e-13
-4.76352e-13
-4.70929e-13
-4.69278e-13
-4.62429e-13
-4.50442e-13
-4.4291e-13
-4.31474e-13
-4.21803e-13
-4.17654e-13
-4.10691e-13
-4.01809e-13
-3.93185e-13
-3.83852e-13
-3.78739e-13
-3.73739e-13
-3.66881e-13
-3.59166e-13
-3.50484e-13
-3.43863e-13
-3.36825e-13
-3.31737e-13
-3.25811e-13
-3.20149e-13
-3.11783e-13
-3.0357e-13
-2.93248e-13
-2.8494e-13
-2.78628e-13
-2.73245e-13
-2.67691e-13
-2.58299e-13
-2.49864e-13
-2.40284e-13
-2.33133e-13
-2.26482e-13
-2.21135e-13
-2.17099e-13
-2.08903e-13
-2.0096e-13
-1.91815e-13
-1.78874e-13
-1.68098e-13
-1.58621e-13
-1.55009e-13
-1.50393e-13
-1.42222e-13
-1.35894e-13
-1.25317e-13
-1.1651e-13
-1.06368e-13
-9.60543e-14
-8.70868e-14
-8.19093e-14
-7.64569e-14
-7.12151e-14
-6.28499e-14
-5.617e-14
-5.1535e-14
-4.46458e-14
-3.66814e-14
-2.85044e-14
-2.06561e-14
-1.43272e-14
-9.12963e-15
-2.32161e-15
5.0173e-16
-6.78804e-13
-6.82945e-13
-6.83864e-13
-6.79777e-13
-6.79671e-13
-6.80856e-13
-6.72296e-13
-6.63451e-13
-6.5977e-13
-6.58206e-13
-6.56192e-13
-6.53737e-13
-6.51004e-13
-6.46878e-13
-6.4224e-13
-6.34563e-13
-6.28401e-13
-6.24909e-13
-6.16872e-13
-6.02717e-13
-5.86349e-13
-5.73151e-13
-5.66145e-13
-5.5836e-13
-5.56152e-13
-5.52812e-13
-5.4692e-13
-5.38258e-13
-5.32305e-13
-5.29273e-13
-5.22091e-13
-5.11606e-13
-4.98965e-13
-4.8354e-13
-4.73446e-13
-4.70934e-13
-4.69894e-13
-4.63463e-13
-4.5507e-13
-4.43525e-13
-4.30208e-13
-4.20123e-13
-4.1139e-13
-4.07219e-13
-4.01977e-13
-3.95073e-13
-3.87678e-13
-3.79396e-13
-3.7358e-13
-3.72743e-13
-3.65251e-13
-3.49737e-13
-3.40247e-13
-3.32941e-13
-3.2759e-13
-3.24634e-13
-3.20336e-13
-3.1108e-13
-2.99585e-13
-2.91719e-13
-2.87564e-13
-2.82931e-13
-2.76417e-13
-2.67801e-13
-2.54657e-13
-2.45344e-13
-2.38915e-13
-2.35416e-13
-2.29191e-13
-2.21026e-13
-2.1463e-13
-2.08889e-13
-2.01114e-13
-1.90383e-13
-1.79621e-13
-1.65411e-13
-1.56882e-13
-1.54396e-13
-1.52799e-13
-1.4702e-13
-1.38549e-13
-1.27907e-13
-1.15958e-13
-1.04084e-13
-9.52147e-14
-8.7242e-14
-8.16328e-14
-7.49799e-14
-6.88752e-14
-6.19199e-14
-5.60801e-14
-5.04722e-14
-4.46099e-14
-3.66727e-14
-2.78925e-14
-1.88149e-14
-1.16734e-14
-6.46951e-15
-1.10593e-15
1.83038e-16
-6.77572e-13
-6.84323e-13
-6.84467e-13
-6.81234e-13
-6.78668e-13
-6.82722e-13
-6.80129e-13
-6.68836e-13
-6.54037e-13
-6.51646e-13
-6.51218e-13
-6.52646e-13
-6.51542e-13
-6.49874e-13
-6.44632e-13
-6.35574e-13
-6.26908e-13
-6.20687e-13
-6.09707e-13
-6.00829e-13
-5.93325e-13
-5.80853e-13
-5.69804e-13
-5.57811e-13
-5.55944e-13
-5.53021e-13
-5.48939e-13
-5.42267e-13
-5.33791e-13
-5.28116e-13
-5.19427e-13
-5.08052e-13
-4.98197e-13
-4.83797e-13
-4.71846e-13
-4.69094e-13
-4.68601e-13
-4.64027e-13
-4.54842e-13
-4.44469e-13
-4.28275e-13
-4.18248e-13
-4.14669e-13
-4.09758e-13
-4.02367e-13
-3.94436e-13
-3.898e-13
-3.83211e-13
-3.74464e-13
-3.64344e-13
-3.57739e-13
-3.51846e-13
-3.43794e-13
-3.31902e-13
-3.31498e-13
-3.27748e-13
-3.19147e-13
-3.12923e-13
-3.06009e-13
-2.93777e-13
-2.86292e-13
-2.80916e-13
-2.72394e-13
-2.65078e-13
-2.55101e-13
-2.46947e-13
-2.37639e-13
-2.33484e-13
-2.26232e-13
-2.23498e-13
-2.16632e-13
-2.11211e-13
-2.04209e-13
-1.90802e-13
-1.77004e-13
-1.65275e-13
-1.59485e-13
-1.54371e-13
-1.49898e-13
-1.44014e-13
-1.37793e-13
-1.28597e-13
-1.16532e-13
-1.04546e-13
-9.75354e-14
-8.89649e-14
-8.1812e-14
-7.54476e-14
-6.95011e-14
-6.04766e-14
-5.37886e-14
-4.82595e-14
-4.12605e-14
-3.34181e-14
-2.72011e-14
-2.25798e-14
-1.07917e-14
-3.34882e-15
1.53563e-15
6.38896e-16
-6.829e-13
-6.82468e-13
-6.78777e-13
-6.75317e-13
-6.77553e-13
-6.72924e-13
-6.70034e-13
-6.70833e-13
-6.68369e-13
-6.62386e-13
-6.58803e-13
-6.51855e-13
-6.46842e-13
-6.45652e-13
-6.43033e-13
-6.37404e-13
-6.29833e-13
-6.25819e-13
-6.15736e-13
-6.00745e-13
-5.83552e-13
-5.73026e-13
-5.66812e-13
-5.64325e-13
-5.56966e-13
-5.53454e-13
-5.48909e-13
-5.41323e-13
-5.34346e-13
-5.27467e-13
-5.1977e-13
-5.07473e-13
-4.96044e-13
-4.83857e-13
-4.74906e-13
-4.71781e-13
-4.7166e-13
-4.64039e-13
-4.53096e-13
-4.43411e-13
-4.29329e-13
-4.17169e-13
-4.13393e-13
-4.09509e-13
-4.05223e-13
-3.94986e-13
-3.85765e-13
-3.82147e-13
-3.77299e-13
-3.66993e-13
-3.57381e-13
-3.5208e-13
-3.45795e-13
-3.3476e-13
-3.27633e-13
-3.23784e-13
-3.17066e-13
-3.12036e-13
-3.06968e-13
-2.98737e-13
-2.88385e-13
-2.81332e-13
-2.72214e-13
-2.64927e-13
-2.57882e-13
-2.48199e-13
-2.37959e-13
-2.28836e-13
-2.23907e-13
-2.24303e-13
-2.15799e-13
-2.09855e-13
-2.03084e-13
-1.91436e-13
-1.80118e-13
-1.68424e-13
-1.57091e-13
-1.50563e-13
-1.49588e-13
-1.48056e-13
-1.41058e-13
-1.27178e-13
-1.15283e-13
-1.02342e-13
-9.71459e-14
-9.10592e-14
-8.39383e-14
-7.40357e-14
-6.55744e-14
-5.94816e-14
-5.36675e-14
-4.72369e-14
-4.23079e-14
-3.47087e-14
-2.66104e-14
-1.88088e-14
-1.12075e-14
-4.5989e-15
1.50595e-15
2.11145e-15
-6.82238e-13
-6.81534e-13
-6.78837e-13
-6.76457e-13
-6.82379e-13
-6.8018e-13
-6.70487e-13
-6.64858e-13
-6.6152e-13
-6.59709e-13
-6.58936e-13
-6.58211e-13
-6.48618e-13
-6.41489e-13
-6.3939e-13
-6.35116e-13
-6.31727e-13
-6.24635e-13
-6.14094e-13
-5.99115e-13
-5.8656e-13
-5.74578e-13
-5.65674e-13
-5.64634e-13
-5.62951e-13
-5.53698e-13
-5.46455e-13
-5.41503e-13
-5.38092e-13
-5.29896e-13
-5.21608e-13
-5.08507e-13
-4.95399e-13
-4.8303e-13
-4.72031e-13
-4.70252e-13
-4.66964e-13
-4.63538e-13
-4.56864e-13
-4.46032e-13
-4.31703e-13
-4.21257e-13
-4.13911e-13
-4.04578e-13
-4.02503e-13
-3.95878e-13
-3.88785e-13
-3.7955e-13
-3.73236e-13
-3.67587e-13
-3.5829e-13
-3.51956e-13
-3.45299e-13
-3.36127e-13
-3.32966e-13
-3.27655e-13
-3.16064e-13
-3.06996e-13
-3.04122e-13
-2.9722e-13
-2.90004e-13
-2.80817e-13
-2.74056e-13
-2.6728e-13
-2.58265e-13
-2.46605e-13
-2.39546e-13
-2.29515e-13
-2.20871e-13
-2.19249e-13
-2.15789e-13
-2.10849e-13
-2.04684e-13
-1.9203e-13
-1.79605e-13
-1.68497e-13
-1.59337e-13
-1.52276e-13
-1.5152e-13
-1.4706e-13
-1.38887e-13
-1.27928e-13
-1.16577e-13
-1.04036e-13
-9.59007e-14
-8.67217e-14
-8.00133e-14
-7.58158e-14
-6.9538e-14
-5.966e-14
-5.28761e-14
-4.5888e-14
-3.95635e-14
-3.26104e-14
-2.50997e-14
-1.97514e-14
-1.2676e-14
-3.37966e-15
1.94836e-15
2.4067e-16
-6.78026e-13
-6.80264e-13
-6.80333e-13
-6.78995e-13
-6.77917e-13
-6.73135e-13
-6.69828e-13
-6.67231e-13
-6.66263e-13
-6.64059e-13
-6.60277e-13
-6.56924e-13
-6.51348e-13
-6.43702e-13
-6.38548e-13
-6.32581e-13
-6.29874e-13
-6.23094e-13
-6.12116e-13
-6.01306e-13
-5.87509e-13
-5.75694e-13
-5.7003e-13
-5.65014e-13
-5.56917e-13
-5.52237e-13
-5.49749e-13
-5.44931e-13
-5.37382e-13
-5.26806e-13
-5.17905e-13
-5.07537e-13
-4.95186e-13
-4.84011e-13
-4.75043e-13
-4.74607e-13
-4.72809e-13
-4.64491e-13
-4.53119e-13
-4.39719e-13
-4.29608e-13
-4.24003e-13
-4.15344e-13
-4.05501e-13
-4.00227e-13
-3.92973e-13
-3.90439e-13
-3.88013e-13
-3.77839e-13
-3.64569e-13
-3.55969e-13
-3.52982e-13
-3.46394e-13
-3.35691e-13
-3.31051e-13
-3.26335e-13
-3.19318e-13
-3.10234e-13
-3.02844e-13
-2.95328e-13
-2.92179e-13
-2.83802e-13
-2.74721e-13
-2.66531e-13
-2.55304e-13
-2.463e-13
-2.3784e-13
-2.30891e-13
-2.22547e-13
-2.17538e-13
-2.12508e-13
-2.11446e-13
-2.05945e-13
-1.92576e-13
-1.79846e-13
-1.68726e-13
-1.61427e-13
-1.55223e-13
-1.47622e-13
-1.3937e-13
-1.40079e-13
-1.33404e-13
-1.17707e-13
-1.05131e-13
-9.52938e-14
-8.48375e-14
-7.80573e-14
-7.4965e-14
-6.91463e-14
-5.98695e-14
-5.18252e-14
-4.6666e-14
-3.98843e-14
-3.16268e-14
-2.70381e-14
-1.8314e-14
-9.797e-15
-2.29336e-15
2.60987e-15
-2.54205e-16
-6.83651e-13
-6.81364e-13
-6.79101e-13
-6.76869e-13
-6.73004e-13
-6.71305e-13
-6.69052e-13
-6.69051e-13
-6.6763e-13
-6.65147e-13
-6.59508e-13
-6.5613e-13
-6.51428e-13
-6.46193e-13
-6.4013e-13
-6.31751e-13
-6.22966e-13
-6.17141e-13
-6.12209e-13
-6.05262e-13
-5.90246e-13
-5.79138e-13
-5.70858e-13
-5.63452e-13
-5.58502e-13
-5.54093e-13
-5.50177e-13
-5.4599e-13
-5.35725e-13
-5.28844e-13
-5.1914e-13
-5.07024e-13
-4.93948e-13
-4.82115e-13
-4.77239e-13
-4.74609e-13
-4.70301e-13
-4.63024e-13
-4.5253e-13
-4.41622e-13
-4.30261e-13
-4.21479e-13
-4.15997e-13
-4.09454e-13
-4.03743e-13
-3.97045e-13
-3.87711e-13
-3.80772e-13
-3.76466e-13
-3.68114e-13
-3.6167e-13
-3.53111e-13
-3.44667e-13
-3.3673e-13
-3.30314e-13
-3.22485e-13
-3.18616e-13
-3.12094e-13
-3.03445e-13
-2.96248e-13
-2.92811e-13
-2.86135e-13
-2.75557e-13
-2.65072e-13
-2.56299e-13
-2.47178e-13
-2.3761e-13
-2.29783e-13
-2.22957e-13
-2.17909e-13
-2.14563e-13
-2.12577e-13
-2.05022e-13
-1.90633e-13
-1.79098e-13
-1.68795e-13
-1.61015e-13
-1.53981e-13
-1.49798e-13
-1.4448e-13
-1.37179e-13
-1.28918e-13
-1.18307e-13
-1.07361e-13
-9.94703e-14
-8.61832e-14
-7.74234e-14
-7.21863e-14
-6.82917e-14
-5.74426e-14
-4.96793e-14
-4.61305e-14
-4.30445e-14
-3.25436e-14
-2.29108e-14
-1.73074e-14
-1.07496e-14
-7.80461e-16
1.18087e-15
-1.00621e-15
-6.85832e-13
-6.80592e-13
-6.75605e-13
-6.7589e-13
-6.6985e-13
-6.709e-13
-6.69379e-13
-6.70407e-13
-6.70485e-13
-6.63453e-13
-6.58915e-13
-6.57186e-13
-6.55464e-13
-6.48053e-13
-6.40288e-13
-6.34357e-13
-6.27177e-13
-6.17293e-13
-6.10559e-13
-5.99563e-13
-5.90593e-13
-5.79794e-13
-5.68528e-13
-5.61825e-13
-5.57633e-13
-5.57278e-13
-5.50757e-13
-5.44742e-13
-5.35699e-13
-5.28298e-13
-5.19632e-13
-5.08928e-13
-4.94372e-13
-4.84073e-13
-4.75795e-13
-4.71476e-13
-4.69415e-13
-4.6361e-13
-4.53119e-13
-4.41708e-13
-4.33289e-13
-4.23757e-13
-4.14946e-13
-4.08223e-13
-4.02126e-13
-3.95628e-13
-3.88372e-13
-3.83165e-13
-3.78187e-13
-3.69373e-13
-3.59257e-13
-3.49899e-13
-3.44362e-13
-3.38731e-13
-3.32994e-13
-3.26965e-13
-3.19652e-13
-3.10923e-13
-3.05329e-13
-3.0034e-13
-2.94679e-13
-2.85345e-13
-2.72486e-13
-2.6367e-13
-2.5509e-13
-2.46206e-13
-2.36489e-13
-2.30739e-13
-2.23245e-13
-2.21035e-13
-2.15755e-13
-2.09332e-13
-1.99883e-13
-1.88936e-13
-1.78186e-13
-1.67467e-13
-1.64358e-13
-1.60237e-13
-1.50819e-13
-1.41758e-13
-1.34614e-13
-1.27109e-13
-1.17487e-13
-1.06422e-13
-9.52899e-14
-8.35137e-14
-7.84967e-14
-7.41182e-14
-6.71488e-14
-6.19089e-14
-5.6028e-14
-4.57522e-14
-3.75361e-14
-3.10311e-14
-2.27592e-14
-1.4953e-14
-8.64191e-15
-5.04907e-15
-1.97242e-15
-1.54889e-15
-6.83829e-13
-6.79209e-13
-6.77286e-13
-6.75274e-13
-6.73252e-13
-6.70625e-13
-6.67019e-13
-6.69668e-13
-6.70021e-13
-6.66706e-13
-6.61386e-13
-6.56452e-13
-6.54977e-13
-6.47062e-13
-6.37812e-13
-6.2943e-13
-6.22084e-13
-6.17789e-13
-6.11612e-13
-6.02267e-13
-5.91974e-13
-5.81341e-13
-5.71006e-13
-5.65148e-13
-5.61925e-13
-5.55511e-13
-5.4839e-13
-5.40025e-13
-5.32485e-13
-5.28148e-13
-5.19912e-13
-5.12998e-13
-5.01735e-13
-4.90234e-13
-4.74844e-13
-4.68697e-13
-4.65744e-13
-4.6059e-13
-4.51873e-13
-4.41634e-13
-4.34944e-13
-4.24265e-13
-4.17244e-13
-4.07146e-13
-4.02579e-13
-3.96451e-13
-3.91831e-13
-3.84332e-13
-3.75031e-13
-3.63635e-13
-3.58195e-13
-3.54769e-13
-3.4754e-13
-3.35828e-13
-3.29162e-13
-3.22939e-13
-3.15753e-13
-3.1382e-13
-3.06677e-13
-3.03743e-13
-3.02092e-13
-2.83196e-13
-2.71133e-13
-2.65404e-13
-2.5783e-13
-2.48136e-13
-2.38647e-13
-2.32015e-13
-2.21391e-13
-2.1644e-13
-2.124e-13
-2.11775e-13
-2.03866e-13
-1.91408e-13
-1.76211e-13
-1.64295e-13
-1.63682e-13
-1.59094e-13
-1.5056e-13
-1.44444e-13
-1.366e-13
-1.27528e-13
-1.15951e-13
-1.05232e-13
-9.63221e-14
-8.5024e-14
-7.78174e-14
-7.40742e-14
-6.78956e-14
-5.80515e-14
-5.11518e-14
-4.55316e-14
-3.78231e-14
-3.07838e-14
-2.57343e-14
-1.99596e-14
-8.86379e-15
-2.47246e-15
2.17736e-15
-2.53493e-16
-6.79139e-13
-6.81048e-13
-6.808e-13
-6.7527e-13
-6.71109e-13
-6.71654e-13
-6.70463e-13
-6.67002e-13
-6.68466e-13
-6.65873e-13
-6.63088e-13
-6.59768e-13
-6.53733e-13
-6.4598e-13
-6.38728e-13
-6.32646e-13
-6.28657e-13
-6.23791e-13
-6.13755e-13
-6.00622e-13
-5.85293e-13
-5.73051e-13
-5.6839e-13
-5.67392e-13
-5.6314e-13
-5.54908e-13
-5.45903e-13
-5.40482e-13
-5.32633e-13
-5.292e-13
-5.23444e-13
-5.10714e-13
-4.97767e-13
-4.88634e-13
-4.8015e-13
-4.73894e-13
-4.67688e-13
-4.59504e-13
-4.51824e-13
-4.43317e-13
-4.32973e-13
-4.23456e-13
-4.14047e-13
-4.08965e-13
-4.06956e-13
-3.98166e-13
-3.89699e-13
-3.79077e-13
-3.76277e-13
-3.69296e-13
-3.58333e-13
-3.53489e-13
-3.46777e-13
-3.38525e-13
-3.32192e-13
-3.20509e-13
-3.10407e-13
-3.12376e-13
-3.13824e-13
-3.05203e-13