/*--------------------------------*- C++ -*----------------------------------*\
| =========                 |                                                 |
| \\      /  F ield         | OpenFOAM: The Open Source CFD Toolbox           |
|  \\    /   O peration     | Version:  v2012                                 |
|   \\  /    A nd           | Website:  www.openfoam.com                      |
|    \\/     M anipulation  |                                                 |
\*---------------------------------------------------------------------------*/
FoamFile
{
    version     2.0;
    format      ascii;
    class       volVectorField;
    location    "0";
    object      uRec;
}
// * * * * * * * * * * * * * * * * * * * * * * * * * * * * * * * * * * * * * //

dimensions      [0 1 -1 0 0 0 0];


internalField   nonuniform List<vector> 
4000
(
(1 4.43745e-15 0)
(1 6.59482e-16 0)
(1 -2.57419e-16 0)
(1 -2.68399e-15 0)
(1 -1.10051e-15 0)
(1 -1.43452e-15 0)
(1 1.58285e-15 0)
(1 3.14205e-15 0)
(1 6.74162e-15 0)
(1 -3.38776e-15 0)
(1 -7.15831e-15 0)
(1 -9.69422e-16 0)
(1 3.49158e-15 0)
(1 2.36942e-15 0)
(1 -3.38557e-15 0)
(1 9.91393e-16 0)
(1 -5.06692e-16 0)
(1 -1.58739e-15 0)
(1 2.25974e-15 0)
(1 1.96375e-15 0)
(1 1.38506e-15 0)
(1 7.09661e-16 0)
(1 -3.60162e-15 0)
(1 3.66018e-16 0)
(1 -2.76813e-15 0)
(1 -6.0135e-17 0)
(1 -2.2249e-15 0)
(1 -1.9314e-15 0)
(1 -1.10058e-15 0)
(1 1.06187e-15 0)
(1 2.60256e-15 0)
(1 2.40876e-15 0)
(1 -4.47881e-16 0)
(1 -1.2476e-15 0)
(1 -1.22446e-15 0)
(1 -5.43838e-16 0)
(1 3.28916e-16 0)
(1 3.68521e-15 0)
(1 9.74633e-16 0)
(1 -2.85867e-15 0)
(1 -1.57056e-15 0)
(1 -4.41533e-15 0)
(1 -2.22973e-15 0)
(1 2.89026e-15 0)
(1 2.61651e-15 0)
(1 -1.93476e-15 0)
(1 -5.41297e-16 0)
(1 4.32334e-16 0)
(1 1.28144e-15 0)
(1 3.27439e-16 0)
(1 2.06943e-15 0)
(1 6.1417e-16 0)
(1 3.89247e-15 0)
(1 3.33267e-15 0)
(1 4.96481e-15 0)
(1 5.0904e-15 0)
(1 -4.44452e-17 0)
(1 -1.38754e-15 0)
(1 -3.55189e-15 0)
(1 -2.53961e-16 0)
(1 -2.9384e-15 0)
(1 -7.8904e-16 0)
(1 -1.17044e-15 0)
(1 1.21134e-15 0)
(1 -2.09132e-15 0)
(1 6.54921e-16 0)
(1 -1.0797e-15 0)
(1 1.79444e-15 0)
(1 6.58325e-16 0)
(1 -1.93797e-15 0)
(1 -1.19155e-15 0)
(1 4.37799e-16 0)
(1 -4.23648e-15 0)
(1 -2.86491e-15 0)
(1 -2.82909e-15 0)
(1 -2.70921e-15 0)
(1 -1.32292e-15 0)
(1 -2.54606e-15 0)
(1 -7.54122e-16 0)
(1 1.29763e-15 0)
(1 3.07273e-16 0)
(1 2.72408e-15 0)
(1 -2.2933e-15 0)
(1 -2.51127e-15 0)
(1 -3.68987e-15 0)
(1 -9.15996e-16 0)
(1 4.32511e-15 0)
(1 3.52334e-15 0)
(1 -3.1319e-16 0)
(1 4.2101e-15 0)
(1 1.6955e-15 0)
(1 1.69061e-15 0)
(1 1.28682e-15 0)
(1 1.37726e-15 0)
(1 -1.24874e-15 0)
(1 1.51036e-15 0)
(1 1.36016e-15 0)
(1 3.95693e-16 0)
(1 -2.32651e-15 0)
(1 -2.70155e-15 0)
(1 2.65619e-15 0)
(1 3.87457e-15 0)
(1 -1.69872e-16 0)
(1 -2.77678e-15 0)
(1 -3.13472e-15 0)
(1 -3.88759e-16 0)
(1 1.15962e-15 0)
(1 3.55242e-15 0)
(1 7.64044e-15 0)
(1 7.394e-16 0)
(1 -4.33438e-15 0)
(1 -3.50871e-15 0)
(1 -5.0403e-16 0)
(1 -3.27047e-15 0)
(1 -3.82876e-15 0)
(1 5.602e-15 0)
(1 3.27876e-15 0)
(1 -1.76272e-16 0)
(1 1.64552e-15 0)
(1 2.11549e-15 0)
(1 2.81478e-15 0)
(1 -2.97395e-16 0)
(1 -2.78204e-15 0)
(1 1.14396e-15 0)
(1 -4.91736e-15 0)
(1 -2.31951e-15 0)
(1 -2.93944e-15 0)
(1 -4.79693e-15 0)
(1 -1.5384e-15 0)
(1 1.26626e-15 0)
(1 -6.37134e-16 0)
(1 1.64226e-15 0)
(1 -1.81513e-15 0)
(1 -4.82578e-16 0)
(1 1.38649e-15 0)
(1 2.33987e-16 0)
(1 1.56981e-15 0)
(1 5.12132e-15 0)
(1 -3.93204e-15 0)
(1 -5.73169e-15 0)
(1 -6.74138e-15 0)
(1 -4.24803e-15 0)
(1 -1.64834e-15 0)
(1 4.61297e-15 0)
(1 2.3268e-15 0)
(1 -8.14484e-16 0)
(1 -3.51488e-16 0)
(1 1.51319e-15 0)
(1 2.57199e-15 0)
(1 2.99198e-15 0)
(1 2.24742e-15 0)
(1 -1.01038e-15 0)
(1 2.79415e-15 0)
(1 8.73138e-16 0)
(1 2.98455e-15 0)
(1 8.14104e-16 0)
(1 -1.25821e-15 0)
(1 3.19677e-16 0)
(1 -9.71508e-16 0)
(1 -4.37804e-15 0)
(1 -2.54421e-16 0)
(1 3.59988e-16 0)
(1 1.89757e-15 0)
(1 2.26333e-15 0)
(1 -2.30179e-15 0)
(1 5.61967e-16 0)
(1 -3.13017e-15 0)
(1 -3.94915e-16 0)
(1 2.05491e-15 0)
(1 -1.72727e-15 0)
(1 -2.0651e-16 0)
(1 -1.60413e-16 0)
(1 1.82804e-15 0)
(1 -1.45553e-17 0)
(1 1.37104e-15 0)
(1 -4.96945e-16 0)
(1 -3.7448e-17 0)
(1 -5.16768e-16 0)
(1 4.89706e-16 0)
(1 5.6846e-15 0)
(1 1.12518e-15 0)
(1 8.89007e-16 0)
(1 -2.66342e-15 0)
(1 -4.21947e-15 0)
(1 -4.82216e-15 0)
(1 -5.80472e-16 0)
(1 8.8344e-16 0)
(1 2.98459e-15 0)
(1 -1.79547e-15 0)
(1 3.40566e-15 0)
(1 -8.06326e-17 0)
(1 -1.08719e-15 0)
(1 1.76781e-15 0)
(1 3.36804e-15 0)
(1 -3.33257e-15 0)
(1 2.62543e-15 0)
(1 1.6585e-15 0)
(1 2.8001e-17 0)
(1 -3.1729e-15 0)
(1 -4.68642e-15 0)
(1 -3.73086e-15 0)
(1 6.59595e-15 0)
(1 -5.57507e-15 0)
(1 3.6492e-15 0)
(1 -5.96213e-15 0)
(1 1.13304e-15 0)
(1 6.22814e-16 0)
(1 6.29091e-15 0)
(1 1.43016e-15 0)
(1 9.74025e-16 0)
(1 -4.33256e-16 0)
(1 1.32121e-15 0)
(1 2.09768e-15 0)
(1 -3.16886e-16 0)
(1 1.02883e-16 0)
(1 -1.34341e-15 0)
(1 6.86848e-16 0)
(1 1.94859e-15 0)
(1 -1.99339e-15 0)
(1 1.88802e-15 0)
(1 2.88184e-16 0)
(1 -3.12516e-15 0)
(1 1.11389e-15 0)
(1 2.00699e-15 0)
(1 4.02193e-15 0)
(1 -4.95939e-16 0)
(1 9.31894e-16 0)
(1 -6.13397e-15 0)
(1 -8.15137e-16 0)
(1 -6.17234e-16 0)
(1 -1.60331e-15 0)
(1 -3.89388e-15 0)
(1 -1.88058e-15 0)
(1 1.2337e-15 0)
(1 1.92905e-15 0)
(1 3.91175e-15 0)
(1 -4.46089e-16 0)
(1 3.2522e-15 0)
(1 1.19303e-15 0)
(1 -5.49722e-15 0)
(1 -4.62167e-15 0)
(1 -4.60364e-15 0)
(1 2.55717e-17 0)
(1 -1.55901e-15 0)
(1 4.69389e-16 0)
(1 8.98831e-16 0)
(1 4.5578e-15 0)
(1 3.84514e-15 0)
(1 3.50964e-15 0)
(1 9.34247e-16 0)
(1 4.40642e-15 0)
(1 1.14137e-15 0)
(1 2.91842e-15 0)
(1 -7.63888e-16 0)
(1 7.14676e-17 0)
(1 -7.0681e-16 0)
(1 1.47027e-15 0)
(1 3.8996e-15 0)
(1 4.80737e-15 0)
(1 -2.40965e-15 0)
(1 -2.0971e-15 0)
(1 -2.08746e-15 0)
(1 1.11985e-15 0)
(1 -1.06108e-15 0)
(1 -2.29598e-15 0)
(1 -1.04844e-15 0)
(1 -8.23816e-16 0)
(1 -1.22025e-16 0)
(1 2.65047e-15 0)
(1 4.14768e-16 0)
(1 1.46675e-16 0)
(1 -3.7099e-15 0)
(1 -8.0149e-16 0)
(1 -3.36878e-15 0)
(1 -5.29849e-16 0)
(1 -3.50869e-15 0)
(1 -9.73553e-16 0)
(1 -3.55129e-15 0)
(1 1.71284e-15 0)
(1 -7.15816e-16 0)
(1 -8.56615e-18 0)
(1 -1.61135e-15 0)
(1 -3.72685e-16 0)
(1 -1.54967e-15 0)
(1 -2.50296e-15 0)
(1 1.52604e-15 0)
(1 -2.11545e-15 0)
(1 2.55198e-15 0)
(1 -1.23752e-15 0)
(1 2.21426e-15 0)
(1 -1.49868e-15 0)
(1 8.89098e-16 0)
(1 -1.03683e-15 0)
(1 3.51109e-15 0)
(1 -2.54513e-16 0)
(1 2.65948e-15 0)
(1 5.81544e-16 0)
(1 -1.96465e-15 0)
(1 -2.09938e-15 0)
(1 -3.85119e-15 0)
(1 -5.35255e-16 0)
(1 -1.30512e-15 0)
(1 -4.10653e-15 0)
(1 -4.25687e-15 0)
(1 1.85467e-15 0)
(1 2.53324e-15 0)
(1 5.00042e-15 0)
(1 5.20698e-15 0)
(1 2.90972e-15 0)
(1 -2.43865e-15 0)
(1 -4.06305e-15 0)
(1 -1.91285e-16 0)
(1 -1.02305e-15 0)
(1 7.74727e-15 0)
(1 6.59874e-15 0)
(1 -2.80691e-15 0)
(1 -3.02778e-17 0)
(1 -3.37348e-16 0)
(1 -9.24967e-16 0)
(1 4.18816e-15 0)
(1 1.1621e-15 0)
(1 8.56969e-16 0)
(1 -5.28079e-16 0)
(1 2.75316e-15 0)
(1 9.40025e-15 0)
(1 5.16069e-15 0)
(1 4.44644e-15 0)
(1 -3.07175e-15 0)
(1 8.30502e-16 0)
(1 -3.2722e-15 0)
(1 -1.21826e-15 0)
(1 -6.14355e-15 0)
(1 -4.44205e-15 0)
(1 -5.75665e-15 0)
(1 -3.07386e-15 0)
(1 -1.56998e-15 0)
(1 3.2839e-16 0)
(1 -1.13556e-15 0)
(1 5.08416e-15 0)
(1 -4.04569e-15 0)
(1 2.69523e-15 0)
(1 -3.43274e-15 0)
(1 -1.63087e-15 0)
(1 -2.40182e-15 0)
(1 1.99232e-15 0)
(1 3.31498e-15 0)
(1 4.24249e-15 0)
(1 4.64244e-15 0)
(1 3.83176e-15 0)
(1 -4.2699e-17 0)
(1 5.16596e-15 0)
(1 4.54781e-15 0)
(1 4.02204e-15 0)
(1 3.5505e-15 0)
(1 2.4382e-15 0)
(1 2.29681e-15 0)
(1 2.19008e-15 0)
(1 2.46926e-15 0)
(1 4.67473e-15 0)
(1 2.18924e-15 0)
(1 -7.0143e-16 0)
(1 -6.29686e-15 0)
(1 -3.07331e-15 0)
(1 -2.20905e-15 0)
(1 -5.18541e-16 0)
(1 8.53881e-16 0)
(1 5.55918e-16 0)
(1 6.07437e-16 0)
(1 -1.27755e-15 0)
(1 -4.13184e-15 0)
(1 -3.05403e-15 0)
(1 -6.62554e-15 0)
(1 -5.48183e-15 0)
(1 -6.31517e-15 0)
(1 -4.71821e-15 0)
(1 8.5928e-16 0)
(1 2.58253e-15 0)
(1 7.85427e-16 0)
(1 2.21012e-15 0)
(1 -1.72005e-15 0)
(1 -3.38741e-15 0)
(1 -8.8907e-16 0)
(1 -2.18923e-15 0)
(1 -2.42492e-15 0)
(1 -7.79177e-16 0)
(1 3.3869e-16 0)
(1 5.66036e-15 0)
(1 3.05944e-15 0)
(1 2.87376e-15 0)
(1 3.03825e-15 0)
(1 -6.45911e-17 0)
(1 3.38858e-15 0)
(1 2.86122e-16 0)
(1 2.80435e-15 0)
(1 5.57076e-16 0)
(1 -3.87144e-16 0)
(1 -9.64746e-16 0)
(1 -2.21858e-15 0)
(1 -6.71614e-15 0)
(1 -4.46581e-15 0)
(1 3.45328e-15 0)
(1 -3.41302e-15 0)
(1 5.71391e-15 0)
(1 -4.80234e-15 0)
(1 5.74731e-15 0)
(1 3.45692e-16 0)
(1 -2.58799e-15 0)
(1 -4.98094e-15 0)
(1 4.58496e-17 0)
(1 1.55827e-15 0)
(1 4.71085e-15 0)
(1 5.03798e-15 0)
(1 4.25517e-16 0)
(1 -1.02546e-15 0)
(1 2.76506e-15 0)
(1 7.25141e-16 0)
(1 3.50894e-15 0)
(1 -6.02543e-16 0)
(1 -2.59681e-15 0)
(1 -2.52375e-15 0)
(1 3.84701e-16 0)
(1 2.55342e-15 0)
(1 2.56158e-15 0)
(1 1.87084e-15 0)
(1 -3.58915e-16 0)
(1 -3.78347e-16 0)
(1 -3.18479e-15 0)
(1 2.00563e-15 0)
(1 9.16173e-16 0)
(1 -8.62646e-16 0)
(1 -2.97619e-15 0)
(1 -3.80725e-16 0)
(1 -5.86834e-15 0)
(1 3.1478e-15 0)
(1 -3.76808e-15 0)
(1 -4.48436e-15 0)
(1 -6.83064e-16 0)
(1 -4.21575e-15 0)
(1 -8.79517e-17 0)
(1 -4.7081e-16 0)
(1 1.51816e-15 0)
(1 -2.99202e-15 0)
(1 -5.37897e-15 0)
(1 -3.41037e-15 0)
(1 -3.6373e-15 0)
(1 3.97371e-15 0)
(1 9.61963e-16 0)
(1 8.25749e-15 0)
(1 5.64488e-15 0)
(1 4.12163e-15 0)
(1 1.52018e-15 0)
(1 8.22883e-16 0)
(1 -3.02565e-16 0)
(1 1.97974e-15 0)
(1 9.44191e-16 0)
(1 -1.45967e-15 0)
(1 1.05278e-15 0)
(1 1.97398e-16 0)
(1 1.52676e-15 0)
(1 3.71076e-15 0)
(1 5.40969e-15 0)
(1 -1.21967e-16 0)
(1 6.49833e-16 0)
(1 -4.21075e-16 0)
(1 5.6734e-15 0)
(1 4.90589e-15 0)
(1 4.49516e-15 0)
(1 5.36413e-16 0)
(1 -3.74719e-15 0)
(1 -1.66636e-15 0)
(1 -5.29388e-15 0)
(1 -3.80833e-15 0)
(1 8.5724e-16 0)
(1 -1.93857e-15 0)
(1 -3.25148e-15 0)
(1 -1.39652e-15 0)
(1 -1.48338e-15 0)
(1 5.24731e-16 0)
(1 -1.35413e-15 0)
(1 2.1577e-15 0)
(1 -3.75884e-15 0)
(1 -2.63172e-15 0)
(1 -4.7089e-15 0)
(1 -2.89487e-15 0)
(1 2.55756e-15 0)
(1 5.21532e-16 0)
(1 5.14488e-15 0)
(1 1.90268e-15 0)
(1 4.55754e-15 0)
(1 3.06244e-18 0)
(1 3.10637e-15 0)
(1 2.33149e-17 0)
(1 4.55313e-15 0)
(1 2.42978e-15 0)
(1 4.43689e-15 0)
(1 -1.02205e-15 0)
(1 -1.81993e-15 0)
(1 -1.50674e-15 0)
(1 -2.38614e-15 0)
(1 1.46092e-15 0)
(1 -3.41579e-16 0)
(1 1.03588e-15 0)
(1 7.3935e-15 0)
(1 4.51098e-15 0)
(1 -1.61699e-15 0)
(1 -5.48538e-15 0)
(1 -5.46079e-15 0)
(1 -2.39974e-15 0)
(1 -4.04443e-15 0)
(1 2.74926e-16 0)
(1 4.7203e-15 0)
(1 1.03721e-14 0)
(1 6.72298e-15 0)
(1 -1.97379e-15 0)
(1 -3.86855e-16 0)
(1 -1.79547e-16 0)
(1 1.97694e-16 0)
(1 -2.46234e-15 0)
(1 -5.16714e-15 0)
(1 -8.53261e-15 0)
(1 -3.90557e-16 0)
(1 6.98579e-15 0)
(1 1.30665e-14 0)
(1 5.27221e-15 0)
(1 1.80799e-16 0)
(1 -1.27439e-15 0)
(1 -5.01368e-15 0)
(1 1.91489e-15 0)
(1 -6.91622e-15 0)
(1 -3.43491e-16 0)
(1 -4.40085e-15 0)
(1 1.54988e-15 0)
(1 -1.1311e-15 0)
(1 5.88676e-15 0)
(1 -2.1257e-15 0)
(1 6.08998e-16 0)
(1 1.12474e-15 0)
(1 6.24423e-16 0)
(1 -4.00072e-15 0)
(1 -2.91109e-15 0)
(1 -4.27678e-15 0)
(1 -5.02319e-17 0)
(1 -3.07437e-15 0)
(1 -1.77356e-15 0)
(1 2.40534e-15 0)
(1 3.75593e-15 0)
(1 3.67195e-15 0)
(1 5.38625e-15 0)
(1 4.95749e-15 0)
(1 3.14319e-15 0)
(1 -6.45913e-16 0)
(1 1.69324e-15 0)
(1 3.80544e-15 0)
(1 3.01161e-15 0)
(1 -2.86687e-17 0)
(1 5.89473e-16 0)
(1 3.13769e-15 0)
(1 3.48031e-15 0)
(1 1.45275e-15 0)
(1 8.76501e-15 0)
(1 1.14253e-15 0)
(1 8.24044e-16 0)
(1 -3.3269e-15 0)
(1 -5.46887e-16 0)
(1 3.50995e-15 0)
(1 5.22324e-15 0)
(1 7.20605e-15 0)
(1 4.07138e-15 0)
(1 3.36926e-15 0)
(1 4.02842e-15 0)
(1 4.61665e-15 0)
(1 2.7404e-15 0)
(1 3.12072e-16 0)
(1 -2.68477e-15 0)
(1 -4.03165e-15 0)
(1 -5.19576e-15 0)
(1 -3.05896e-15 0)
(1 -1.71264e-15 0)
(1 -3.89617e-15 0)
(1 -2.467e-15 0)
(1 -2.14847e-15 0)
(1 6.63881e-16 0)
(1 -1.92716e-15 0)
(1 1.60621e-15 0)
(1 -4.30286e-15 0)
(1 -4.35167e-15 0)
(1 -2.76403e-15 0)
(1 -2.28672e-15 0)
(1 -6.13346e-17 0)
(1 1.86936e-16 0)
(1 2.47619e-15 0)
(1 2.41398e-15 0)
(1 5.22396e-15 0)
(1 5.31629e-15 0)
(1 8.03958e-15 0)
(1 4.211e-15 0)
(1 2.70311e-15 0)
(1 -1.14758e-15 0)
(1 4.93282e-15 0)
(1 5.62731e-15 0)
(1 -8.35232e-16 0)
(1 -5.10116e-17 0)
(1 6.10556e-15 0)
(1 1.13603e-15 0)
(1 1.47852e-15 0)
(1 -3.38867e-15 0)
(1 4.91952e-15 0)
(1 7.04661e-15 0)
(1 -7.18837e-17 0)
(1 1.29369e-15 0)
(1 -4.05041e-15 0)
(1 3.11324e-15 0)
(1 -3.16341e-15 0)
(1 5.32793e-15 0)
(1 -3.46433e-15 0)
(1 3.41874e-15 0)
(1 -2.36578e-15 0)
(1 -2.62386e-15 0)
(1 -3.17425e-15 0)
(1 1.36178e-15 0)
(1 3.01995e-15 0)
(1 2.21537e-15 0)
(1 1.15563e-15 0)
(1 -6.08486e-15 0)
(1 1.49526e-15 0)
(1 -3.54482e-15 0)
(1 2.44775e-15 0)
(1 -1.79343e-15 0)
(1 -9.5209e-16 0)
(1 -2.98054e-16 0)
(1 -2.39537e-16 0)
(1 1.13981e-15 0)
(1 4.66881e-15 0)
(1 -3.8949e-15 0)
(1 -3.56643e-15 0)
(1 3.93012e-16 0)
(1 -1.68201e-15 0)
(1 1.33112e-15 0)
(1 -4.97197e-15 0)
(1 3.58679e-15 0)
(1 7.19574e-16 0)
(1 5.19998e-15 0)
(1 1.85223e-15 0)
(1 8.67746e-16 0)
(1 1.89401e-15 0)
(1 2.49553e-15 0)
(1 3.04466e-15 0)
(1 -2.15386e-15 0)
(1 2.89384e-15 0)
(1 3.5859e-17 0)
(1 -8.23909e-16 0)
(1 -7.91421e-16 0)
(1 2.9656e-15 0)
(1 1.21074e-15 0)
(1 6.70218e-16 0)
(1 8.3645e-16 0)
(1 4.44392e-15 0)
(1 4.71778e-15 0)
(1 4.3328e-15 0)
(1 4.82568e-15 0)
(1 2.62772e-15 0)
(1 4.16257e-15 0)
(1 1.38885e-15 0)
(1 2.11984e-15 0)
(1 -1.16272e-15 0)
(1 -1.61481e-15 0)
(1 7.26157e-17 0)
(1 4.0301e-15 0)
(1 4.39169e-15 0)
(1 1.50803e-15 0)
(1 5.52215e-15 0)
(1 1.47828e-15 0)
(1 -3.59991e-15 0)
(1 -2.92898e-15 0)
(1 -2.18894e-15 0)
(1 4.49657e-15 0)
(1 1.481e-16 0)
(1 3.57434e-15 0)
(1 -1.72697e-15 0)
(1 -4.52165e-15 0)
(1 -1.23379e-15 0)
(1 -8.64673e-16 0)
(1 -6.3726e-17 0)
(1 -3.9874e-17 0)
(1 -1.35893e-15 0)
(1 2.96045e-15 0)
(1 1.55526e-15 0)
(1 3.88525e-15 0)
(1 9.34714e-16 0)
(1 1.27832e-15 0)
(1 6.20618e-16 0)
(1 4.75575e-15 0)
(1 5.58487e-15 0)
(1 6.19687e-15 0)
(1 3.2485e-15 0)
(1 8.17107e-15 0)
(1 6.72872e-15 0)
(1 5.31013e-15 0)
(1 5.12142e-15 0)
(1 4.02858e-15 0)
(1 1.37031e-15 0)
(1 -2.39435e-15 0)
(1 -5.02426e-15 0)
(1 -1.82679e-15 0)
(1 4.23403e-15 0)
(1 3.54034e-15 0)
(1 2.90196e-15 0)
(1 4.75426e-15 0)
(1 5.38388e-15 0)
(1 5.41851e-15 0)
(1 -9.8714e-16 0)
(1 -2.38981e-15 0)
(1 -1.21345e-15 0)
(1 5.13644e-15 0)
(1 -7.22289e-16 0)
(1 6.14254e-15 0)
(1 1.01232e-15 0)
(1 7.29339e-15 0)
(1 -5.80589e-16 0)
(1 4.22671e-15 0)
(1 -8.90314e-16 0)
(1 -6.05299e-15 0)
(1 -6.66271e-15 0)
(1 -1.38855e-14 0)
(1 -1.28685e-14 0)
(1 -1.11782e-14 0)
(1 -3.54418e-16 0)
(1 -1.33434e-15 0)
(1 1.1941e-14 0)
(1 7.25725e-15 0)
(1 8.73177e-15 0)
(1 -7.38358e-16 0)
(1 -4.48794e-16 0)
(1 -6.00635e-15 0)
(1 -4.83089e-15 0)
(1 -3.15417e-15 0)
(1 -4.55695e-15 0)
(1 4.2538e-16 0)
(1 5.6913e-15 0)
(1 9.85882e-15 0)
(1 8.84471e-16 0)
(1 -4.90797e-15 0)
(1 -5.87486e-15 0)
(1 -6.82248e-15 0)
(1 -3.47497e-15 0)
(1 3.82862e-15 0)
(1 7.4743e-15 0)
(1 3.34984e-15 0)
(1 4.17603e-15 0)
(1 2.67451e-15 0)
(1 5.86077e-15 0)
(1 -8.25153e-16 0)
(1 -5.64217e-16 0)
(1 4.0839e-15 0)
(1 8.64131e-15 0)
(1 7.54587e-15 0)
(1 2.39009e-15 0)
(1 1.47229e-15 0)
(1 6.81094e-16 0)
(1 -3.47283e-15 0)
(1 -1.82119e-15 0)
(1 7.37324e-15 0)
(1 9.72203e-15 0)
(1 1.03288e-14 0)
(1 1.0301e-15 0)
(1 1.13581e-17 0)
(1 3.7453e-15 0)
(1 2.82009e-15 0)
(1 3.49879e-15 0)
(1 3.16562e-15 0)
(1 2.43418e-15 0)
(1 8.83703e-16 0)
(1 9.11703e-16 0)
(1 -2.00866e-15 0)
(1 4.77878e-16 0)
(1 1.22444e-15 0)
(1 -1.78366e-15 0)
(1 -3.01266e-15 0)
(1 -4.86798e-15 0)
(1 -5.44604e-15 0)
(1 1.62964e-16 0)
(1 -3.29496e-15 0)
(1 -6.90514e-16 0)
(1 -2.3792e-15 0)
(1 4.05483e-16 0)
(1 2.968e-15 0)
(1 2.81611e-15 0)
(1 1.07164e-15 0)
(1 1.91129e-15 0)
(1 -1.54583e-15 0)
(1 1.0791e-15 0)
(1 3.93304e-15 0)
(1 6.34587e-15 0)
(1 7.10651e-15 0)
(1 6.39803e-15 0)
(1 7.95332e-15 0)
(1 4.25414e-15 0)
(1 6.88235e-15 0)
(1 7.27125e-15 0)
(1 9.53507e-15 0)
(1 -4.46483e-16 0)
(1 -5.17999e-15 0)
(1 -5.64268e-15 0)
(1 -5.43025e-16 0)
(1 -1.59798e-16 0)
(1 9.03132e-15 0)
(1 1.53323e-15 0)
(1 4.34802e-15 0)
(1 3.07991e-15 0)
(1 -3.47247e-15 0)
(1 -1.86244e-16 0)
(1 -3.43124e-15 0)
(1 2.50526e-15 0)
(1 4.6624e-15 0)
(1 3.61658e-15 0)
(1 2.1399e-15 0)
(1 -3.83199e-15 0)
(1 2.25777e-15 0)
(1 4.09646e-16 0)
(1 -1.38567e-15 0)
(1 -5.88291e-15 0)
(1 -3.46621e-15 0)
(1 1.3563e-15 0)
(1 3.99631e-15 0)
(1 -2.44141e-15 0)
(1 -2.92176e-15 0)
(1 -1.91668e-15 0)
(1 6.5664e-16 0)
(1 2.8834e-15 0)
(1 2.64872e-15 0)
(1 1.74906e-15 0)
(1 -7.10606e-15 0)
(1 -9.90385e-15 0)
(1 -8.50266e-15 0)
(1 -3.18088e-15 0)
(1 -4.78767e-17 0)
(1 9.24917e-16 0)
(1 4.68306e-15 0)
(1 2.88295e-15 0)
(1 1.76566e-15 0)
(1 -6.05114e-15 0)
(1 -6.02548e-15 0)
(1 -3.34917e-15 0)
(1 -1.14137e-15 0)
(1 7.3058e-15 0)
(1 1.82939e-15 0)
(1 7.03155e-15 0)
(1 2.13958e-15 0)
(1 -7.08369e-16 0)
(1 3.60329e-15 0)
(1 4.37998e-15 0)
(1 7.48439e-15 0)
(1 2.97347e-15 0)
(1 9.4078e-15 0)
(1 1.04067e-14 0)
(1 7.53684e-15 0)
(1 3.67679e-15 0)
(1 -3.71479e-15 0)
(1 5.11731e-15 0)
(1 -4.85578e-16 0)
(1 2.23655e-15 0)
(1 -1.19932e-15 0)
(1 3.49774e-15 0)
(1 4.96261e-15 0)
(1 -4.04454e-15 0)
(1 6.36841e-16 0)
(1 2.4389e-15 0)
(1 6.64037e-15 0)
(1 1.37106e-14 0)
(1 1.04815e-14 0)
(1 1.08224e-14 0)
(1 4.81537e-15 0)
(1 6.24689e-15 0)
(1 3.07191e-16 0)
(1 1.22989e-15 0)
(1 -5.22789e-16 0)
(1 -5.33472e-16 0)
(1 7.80751e-16 0)
(1 1.69973e-15 0)
(1 2.03804e-16 0)
(1 1.36083e-15 0)
(1 -2.24328e-15 0)
(1 -1.84161e-15 0)
(1 -2.94692e-15 0)
(1 -4.82662e-15 0)
(1 -4.96121e-15 0)
(1 -5.07868e-15 0)
(1 -3.09715e-15 0)
(1 5.14018e-16 0)
(1 2.39663e-16 0)
(1 1.08893e-16 0)
(1 4.18871e-15 0)
(1 5.81581e-15 0)
(1 9.96698e-15 0)
(1 1.08346e-14 0)
(1 1.15783e-14 0)
(1 1.14242e-14 0)
(1 1.20352e-14 0)
(1 1.46914e-14 0)
(1 1.63528e-14 0)
(1 -5.42098e-16 0)
(1 5.4409e-16 0)
(1 5.34689e-15 0)
(1 -2.74733e-16 0)
(1 7.71857e-17 0)
(1 -4.20739e-15 0)
(1 2.27933e-15 0)
(1 -3.43799e-16 0)
(1 3.59948e-15 0)
(1 -3.93343e-15 0)
(1 -4.48572e-16 0)
(1 3.05146e-15 0)
(1 4.39751e-15 0)
(1 4.32652e-15 0)
(1 3.35602e-15 0)
(1 -8.01843e-16 0)
(1 -5.68136e-15 0)
(1 8.3038e-16 0)
(1 2.92511e-15 0)
(1 4.7443e-15 0)
(1 -4.8791e-15 0)
(1 -1.00831e-14 0)
(1 -1.19774e-14 0)
(1 2.71723e-15 0)
(1 1.51729e-15 0)
(1 5.02132e-15 0)
(1 -4.96099e-16 0)
(1 6.29138e-15 0)
(1 -8.00908e-16 0)
(1 -4.58079e-16 0)
(1 -4.55715e-15 0)
(1 1.82721e-15 0)
(1 -2.7614e-15 0)
(1 -1.39613e-15 0)
(1 -2.23097e-15 0)
(1 -2.43706e-15 0)
(1 -3.22311e-15 0)
(1 1.00148e-15 0)
(1 -4.1866e-15 0)
(1 -5.04239e-15 0)
(1 -1.16546e-15 0)
(1 1.99339e-15 0)
(1 4.83048e-15 0)
(1 2.34694e-15 0)
(1 3.72745e-15 0)
(1 -4.1611e-15 0)
(1 -4.95831e-16 0)
(1 1.799e-15 0)
(1 -2.03412e-15 0)
(1 4.92321e-15 0)
(1 -1.1137e-15 0)
(1 1.67356e-15 0)
(1 7.38146e-15 0)
(1 6.28432e-15 0)
(1 8.75865e-15 0)
(1 9.19919e-15 0)
(1 4.44987e-15 0)
(1 -1.99294e-15 0)
(1 2.56771e-15 0)
(1 7.37825e-15 0)
(1 7.3602e-15 0)
(1 3.8001e-15 0)
(1 1.51963e-15 0)
(1 -1.82566e-16 0)
(1 2.89413e-15 0)
(1 2.69132e-15 0)
(1 6.59821e-15 0)
(1 9.50072e-15 0)
(1 1.45298e-14 0)
(1 1.19414e-14 0)
(1 6.34959e-15 0)
(1 1.98986e-15 0)
(1 1.11682e-15 0)
(1 5.7283e-16 0)
(1 1.58949e-15 0)
(1 -7.20311e-16 0)
(1 2.33892e-15 0)
(1 -4.51491e-16 0)
(1 2.84112e-15 0)
(1 -1.65331e-15 0)
(1 -1.44849e-16 0)
(1 -3.24417e-15 0)
(1 -3.13548e-15 0)
(1 -2.71825e-15 0)
(1 -3.92723e-15 0)
(1 4.74229e-16 0)
(1 1.54601e-15 0)
(1 4.43733e-15 0)
(1 8.44574e-16 0)
(1 -3.74896e-16 0)
(1 4.30801e-15 0)
(1 2.47733e-15 0)
(1 5.00468e-15 0)
(1 5.14141e-15 0)
(1 1.40056e-14 0)
(1 7.04851e-15 0)
(1 1.08255e-14 0)
(1 1.10146e-14 0)
(1 1.88633e-14 0)
(1 1.80555e-14 0)
(1 -3.38561e-16 0)
(1 1.5723e-15 0)
(1 1.58053e-15 0)
(1 -1.4667e-15 0)
(1 -4.39637e-15 0)
(1 -7.79632e-15 0)
(1 1.60637e-16 0)
(1 -5.64591e-15 0)
(1 4.01094e-15 0)
(1 9.4436e-15 0)
(1 4.43146e-15 0)
(1 -1.22373e-15 0)
(1 5.02504e-16 0)
(1 -1.92403e-15 0)
(1 -9.38897e-17 0)
(1 -1.21273e-15 0)
(1 6.29406e-15 0)
(1 5.66575e-15 0)
(1 5.27228e-15 0)
(1 1.99303e-15 0)
(1 -6.16826e-15 0)
(1 -9.52527e-15 0)
(1 -1.49677e-14 0)
(1 -6.02129e-15 0)
(1 -6.87435e-15 0)
(1 4.16695e-15 0)
(1 2.65241e-15 0)
(1 4.49106e-15 0)
(1 -1.17314e-15 0)
(1 -2.5925e-15 0)
(1 -7.22216e-15 0)
(1 1.49407e-15 0)
(1 -1.36907e-16 0)
(1 6.37816e-16 0)
(1 -3.56932e-15 0)
(1 -4.90136e-15 0)
(1 3.7986e-17 0)
(1 -4.00214e-15 0)
(1 -4.98919e-15 0)
(1 -6.98758e-15 0)
(1 -1.3298e-16 0)
(1 4.08121e-15 0)
(1 4.9264e-15 0)
(1 2.13352e-15 0)
(1 1.52892e-15 0)
(1 -1.54816e-16 0)
(1 2.64532e-15 0)
(1 2.89307e-15 0)
(1 4.33511e-15 0)
(1 3.02909e-15 0)
(1 7.17927e-15 0)
(1 5.06525e-15 0)
(1 8.42039e-15 0)
(1 6.6181e-15 0)
(1 5.10061e-15 0)
(1 2.83796e-15 0)
(1 9.19818e-16 0)
(1 1.07805e-15 0)
(1 1.06939e-15 0)
(1 2.81205e-15 0)
(1 5.61709e-15 0)
(1 6.51622e-15 0)
(1 2.65703e-15 0)
(1 3.74346e-15 0)
(1 8.46575e-15 0)
(1 5.57003e-15 0)
(1 4.70938e-15 0)
(1 4.17609e-15 0)
(1 -1.71224e-15 0)
(1 5.06134e-15 0)
(1 4.60242e-15 0)
(1 1.18621e-14 0)
(1 4.73e-15 0)
(1 -7.91825e-16 0)
(1 -8.8569e-17 0)
(1 -3.55171e-15 0)
(1 7.35987e-15 0)
(1 1.8951e-15 0)
(1 1.45802e-15 0)
(1 5.1933e-15 0)
(1 2.27178e-15 0)
(1 2.51674e-15 0)
(1 2.35801e-15 0)
(1 -2.10888e-15 0)
(1 -4.33147e-15 0)
(1 -5.81217e-15 0)
(1 1.59416e-16 0)
(1 -3.93705e-15 0)
(1 -1.8605e-15 0)
(1 -1.60622e-15 0)
(1 8.70008e-15 0)
(1 5.93359e-16 0)
(1 6.15465e-15 0)
(1 4.30441e-15 0)
(1 1.07784e-14 0)
(1 6.8934e-15 0)
(1 8.20261e-15 0)
(1 8.87175e-15 0)
(1 1.33432e-14 0)
(1 1.30574e-14 0)
(1 3.69281e-16 0)
(1 3.80828e-16 0)
(1 -1.27631e-15 0)
(1 2.51754e-15 0)
(1 -5.62936e-15 0)
(1 3.74147e-15 0)
(1 -4.71468e-15 0)
(1 1.14655e-15 0)
(1 -3.99601e-15 0)
(1 3.00525e-15 0)
(1 5.37906e-15 0)
(1 1.17264e-15 0)
(1 2.54077e-15 0)
(1 1.4931e-15 0)
(1 4.13182e-15 0)
(1 -4.90668e-15 0)
(1 2.08727e-15 0)
(1 -7.33132e-15 0)
(1 3.29041e-15 0)
(1 -1.01886e-14 0)
(1 -3.79744e-15 0)
(1 4.65651e-16 0)
(1 4.52265e-15 0)
(1 7.63901e-16 0)
(1 5.07667e-15 0)
(1 5.96869e-16 0)
(1 4.11706e-15 0)
(1 2.15671e-15 0)
(1 2.77855e-16 0)
(1 -4.35172e-15 0)
(1 -4.58202e-15 0)
(1 -5.98637e-15 0)
(1 -5.94445e-15 0)
(1 -5.50184e-15 0)
(1 -4.14875e-15 0)
(1 -3.526e-15 0)
(1 -1.31758e-15 0)
(1 -3.1661e-15 0)
(1 -1.60525e-15 0)
(1 -5.4937e-16 0)
(1 3.54711e-15 0)
(1 5.54157e-15 0)
(1 1.53634e-15 0)
(1 5.99179e-15 0)
(1 -1.1073e-15 0)
(1 -1.68907e-16 0)
(1 2.33267e-15 0)
(1 -1.2532e-15 0)
(1 8.65194e-15 0)
(1 3.8066e-15 0)
(1 6.09019e-15 0)
(1 4.61908e-15 0)
(1 2.68184e-15 0)
(1 3.69268e-15 0)
(1 3.66895e-15 0)
(1 -6.81032e-15 0)
(1 -1.6149e-15 0)
(1 1.94704e-15 0)
(1 6.70416e-15 0)
(1 2.31575e-15 0)
(1 9.22909e-15 0)
(1 6.78775e-15 0)
(1 1.03962e-14 0)
(1 5.97781e-15 0)
(1 1.04574e-14 0)
(1 6.48037e-15 0)
(1 5.5276e-16 0)
(1 2.65957e-15 0)
(1 -1.91283e-15 0)
(1 1.05965e-15 0)
(1 8.90217e-15 0)
(1 9.80933e-15 0)
(1 -1.50969e-16 0)
(1 -2.05624e-15 0)
(1 -2.18098e-15 0)
(1 -3.65866e-15 0)
(1 -1.20892e-15 0)
(1 -1.06765e-15 0)
(1 4.89509e-17 0)
(1 8.88508e-15 0)
(1 3.00377e-15 0)
(1 6.12288e-15 0)
(1 5.75523e-15 0)
(1 -2.05143e-16 0)
(1 5.87285e-16 0)
(1 -5.55291e-15 0)
(1 -2.91388e-15 0)
(1 -4.7313e-15 0)
(1 1.75179e-15 0)
(1 4.81196e-15 0)
(1 2.71806e-15 0)
(1 9.98296e-18 0)
(1 3.61723e-15 0)
(1 5.85159e-15 0)
(1 5.63391e-15 0)
(1 1.11098e-14 0)
(1 1.16429e-14 0)
(1 1.1867e-14 0)
(1 7.43399e-15 0)
(1 6.28265e-15 0)
(1 2.50683e-16 0)
(1 2.367e-15 0)
(1 -4.92535e-15 0)
(1 -3.61892e-15 0)
(1 -1.44157e-15 0)
(1 -3.53706e-15 0)
(1 -4.53938e-15 0)
(1 2.65603e-15 0)
(1 -2.7922e-15 0)
(1 3.8797e-15 0)
(1 4.76829e-15 0)
(1 4.01209e-15 0)
(1 -2.41327e-15 0)
(1 -1.28851e-15 0)
(1 -1.18305e-15 0)
(1 -9.00034e-16 0)
(1 -1.03638e-15 0)
(1 8.53172e-15 0)
(1 1.08379e-14 0)
(1 7.1869e-15 0)
(1 3.76201e-15 0)
(1 -3.45858e-15 0)
(1 -1.39043e-14 0)
(1 -1.51662e-14 0)
(1 -5.69677e-15 0)
(1 -1.38114e-15 0)
(1 -8.97556e-16 0)
(1 3.82381e-16 0)
(1 4.56446e-15 0)
(1 -1.29394e-15 0)
(1 -5.29677e-15 0)
(1 -9.54244e-15 0)
(1 -7.09705e-15 0)
(1 -8.33227e-15 0)
(1 2.83154e-15 0)
(1 -2.03723e-15 0)
(1 5.84291e-16 0)
(1 -4.42637e-15 0)
(1 -4.28325e-17 0)
(1 4.66977e-15 0)
(1 7.44076e-15 0)
(1 2.40882e-15 0)
(1 -2.85544e-15 0)
(1 2.44868e-15 0)
(1 -1.27677e-15 0)
(1 7.01565e-15 0)
(1 4.72514e-15 0)
(1 8.68679e-15 0)
(1 6.683e-15 0)
(1 5.21025e-15 0)
(1 3.1333e-15 0)
(1 9.81856e-16 0)
(1 1.51851e-15 0)
(1 2.31395e-15 0)
(1 1.5195e-15 0)
(1 4.54681e-15 0)
(1 -2.09972e-17 0)
(1 3.45961e-15 0)
(1 -4.98304e-15 0)
(1 -1.22686e-15 0)
(1 -5.16812e-15 0)
(1 1.43363e-15 0)
(1 4.9159e-15 0)
(1 8.83288e-15 0)
(1 1.35691e-14 0)
(1 1.27528e-14 0)
(1 9.25934e-15 0)
(1 4.01681e-15 0)
(1 2.63609e-15 0)
(1 -1.34772e-15 0)
(1 -6.02472e-15 0)
(1 -3.85469e-15 0)
(1 2.41822e-15 0)
(1 6.1633e-15 0)
(1 2.44248e-15 0)
(1 2.53215e-15 0)
(1 -6.49221e-15 0)
(1 -2.21502e-15 0)
(1 6.75604e-16 0)
(1 -4.53951e-16 0)
(1 7.24272e-17 0)
(1 3.10669e-15 0)
(1 1.89831e-15 0)
(1 2.65512e-15 0)
(1 2.62625e-15 0)
(1 2.52774e-15 0)
(1 1.13315e-16 0)
(1 3.78008e-15 0)
(1 3.98414e-15 0)
(1 3.76352e-15 0)
(1 -1.17601e-16 0)
(1 1.75978e-15 0)
(1 -1.46683e-17 0)
(1 2.38456e-15 0)
(1 2.76965e-15 0)
(1 6.47819e-15 0)
(1 5.83715e-15 0)
(1 6.26023e-15 0)
(1 3.69656e-15 0)
(1 3.06596e-15 0)
(1 3.86431e-16 0)
(1 1.37034e-16 0)
(1 -1.75703e-16 0)
(1 -5.60401e-15 0)
(1 -1.63808e-15 0)
(1 -5.2077e-15 0)
(1 -1.57038e-15 0)
(1 -1.04144e-15 0)
(1 7.2561e-15 0)
(1 1.06043e-14 0)
(1 4.5768e-15 0)
(1 -6.43391e-16 0)
(1 -7.09924e-15 0)
(1 -6.94284e-15 0)
(1 -3.90472e-15 0)
(1 8.47319e-15 0)
(1 7.52542e-16 0)
(1 5.39743e-15 0)
(1 -7.00929e-15 0)
(1 2.24857e-15 0)
(1 -3.84674e-15 0)
(1 5.59256e-15 0)
(1 -9.93413e-15 0)
(1 -2.81853e-15 0)
(1 -5.89997e-15 0)
(1 6.26057e-15 0)
(1 8.69403e-16 0)
(1 -1.348e-15 0)
(1 9.85002e-16 0)
(1 -2.86864e-15 0)
(1 -5.21937e-15 0)
(1 -1.48211e-14 0)
(1 -9.58766e-15 0)
(1 -9.41481e-15 0)
(1 -2.12109e-15 0)
(1 5.70552e-15 0)
(1 7.10375e-15 0)
(1 -2.42914e-16 0)
(1 1.54515e-15 0)
(1 -2.50761e-15 0)
(1 -1.52941e-15 0)
(1 -1.10134e-16 0)
(1 5.86515e-15 0)
(1 1.60392e-15 0)
(1 8.74612e-15 0)
(1 9.72667e-15 0)
(1 3.35323e-15 0)
(1 7.49965e-15 0)
(1 -7.06757e-16 0)
(1 -1.3384e-15 0)
(1 -7.1743e-15 0)
(1 -3.45214e-15 0)
(1 2.17579e-15 0)
(1 8.67082e-15 0)
(1 8.53687e-16 0)
(1 1.2595e-14 0)
(1 5.42582e-15 0)
(1 5.27362e-15 0)
(1 -1.95699e-15 0)
(1 5.47632e-15 0)
(1 -7.3514e-16 0)
(1 1.23745e-15 0)
(1 -5.58489e-17 0)
(1 9.863e-15 0)
(1 2.99877e-15 0)
(1 9.86526e-15 0)
(1 1.09639e-14 0)
(1 7.22772e-15 0)
(1 3.04273e-15 0)
(1 7.42356e-16 0)
(1 -7.48717e-15 0)
(1 4.03861e-15 0)
(1 2.87643e-15 0)
(1 7.94109e-15 0)
(1 8.02509e-16 0)
(1 5.0793e-15 0)
(1 4.32482e-16 0)
(1 6.81976e-15 0)
(1 3.666e-15 0)
(1 -2.58973e-15 0)
(1 1.52872e-15 0)
(1 -5.86222e-16 0)
(1 -3.63478e-15 0)
(1 9.33641e-16 0)
(1 1.20003e-15 0)
(1 5.02393e-15 0)
(1 2.19064e-17 0)
(1 4.51619e-15 0)
(1 1.67696e-15 0)
(1 3.05159e-15 0)
(1 4.88843e-15 0)
(1 4.42936e-15 0)
(1 -2.65545e-16 0)
(1 2.30304e-15 0)
(1 8.53829e-16 0)
(1 6.1058e-15 0)
(1 5.02841e-15 0)
(1 7.96099e-15 0)
(1 4.14997e-15 0)
(1 3.82644e-15 0)
(1 -2.61908e-16 0)
(1 9.86724e-16 0)
(1 -3.25573e-15 0)
(1 -3.79302e-15 0)
(1 -2.47301e-15 0)
(1 4.45232e-16 0)
(1 -2.69186e-15 0)
(1 -5.80001e-15 0)
(1 3.2281e-15 0)
(1 -2.59341e-15 0)
(1 6.90851e-15 0)
(1 4.42756e-15 0)
(1 6.57536e-15 0)
(1 -2.12132e-15 0)
(1 1.97471e-15 0)
(1 2.92813e-15 0)
(1 -2.75906e-15 0)
(1 -7.68009e-15 0)
(1 -9.21517e-15 0)
(1 -1.12531e-15 0)
(1 1.67613e-15 0)
(1 2.13003e-15 0)
(1 6.18462e-15 0)
(1 2.44729e-15 0)
(1 -2.28284e-15 0)
(1 -4.28216e-15 0)
(1 -2.30423e-15 0)
(1 -3.93339e-15 0)
(1 -3.90168e-15 0)
(1 -5.5033e-15 0)
(1 -4.15623e-15 0)
(1 -3.95978e-15 0)
(1 -1.65284e-15 0)
(1 -1.06836e-15 0)
(1 -1.23199e-15 0)
(1 3.21396e-15 0)
(1 -4.1908e-16 0)
(1 3.62128e-16 0)
(1 1.42742e-15 0)
(1 -5.17223e-15 0)
(1 -7.14919e-15 0)
(1 1.78147e-16 0)
(1 6.37798e-15 0)
(1 2.7274e-15 0)
(1 5.22062e-15 0)
(1 3.67406e-15 0)
(1 1.48782e-15 0)
(1 -1.96911e-15 0)
(1 -4.09881e-15 0)
(1 -1.21876e-16 0)
(1 2.30689e-16 0)
(1 5.976e-15 0)
(1 7.87125e-15 0)
(1 1.20721e-14 0)
(1 1.0512e-14 0)
(1 8.56629e-15 0)
(1 5.5337e-15 0)
(1 5.67583e-15 0)
(1 2.28496e-15 0)
(1 2.77258e-16 0)
(1 3.30997e-15 0)
(1 1.5175e-15 0)
(1 6.25603e-15 0)
(1 3.02592e-15 0)
(1 7.59158e-15 0)
(1 6.80299e-15 0)
(1 9.85851e-15 0)
(1 7.5068e-15 0)
(1 1.08043e-14 0)
(1 6.9508e-15 0)
(1 8.10664e-15 0)
(1 7.27635e-16 0)
(1 -3.24564e-15 0)
(1 9.83581e-16 0)
(1 2.95507e-16 0)
(1 3.25274e-15 0)
(1 2.69951e-15 0)
(1 4.05045e-15 0)
(1 -1.94289e-17 0)
(1 -2.24868e-15 0)
(1 3.19849e-15 0)
(1 -4.69282e-16 0)
(1 -3.50846e-15 0)
(1 -1.64636e-16 0)
(1 1.83479e-15 0)
(1 2.95331e-15 0)
(1 6.58798e-16 0)
(1 2.88475e-15 0)
(1 4.81576e-16 0)
(1 9.77559e-16 0)
(1 1.04521e-15 0)
(1 -2.19391e-17 0)
(1 3.09586e-15 0)
(1 3.12618e-15 0)
(1 3.02963e-15 0)
(1 1.06206e-15 0)
(1 6.31692e-16 0)
(1 7.06514e-15 0)
(1 8.26162e-15 0)
(1 8.74517e-15 0)
(1 -1.45961e-15 0)
(1 -8.29471e-16 0)
(1 -2.51316e-15 0)
(1 -2.44479e-15 0)
(1 7.24147e-15 0)
(1 5.19292e-15 0)
(1 8.42395e-15 0)
(1 3.89331e-15 0)
(1 -1.26708e-15 0)
(1 -9.1992e-15 0)
(1 -3.50507e-15 0)
(1 -4.92763e-15 0)
(1 4.47081e-15 0)
(1 -1.08919e-15 0)
(1 -2.34267e-15 0)
(1 -8.75644e-15 0)
(1 -1.32527e-15 0)
(1 3.34622e-15 0)
(1 4.49047e-15 0)
(1 -5.9881e-15 0)
(1 -3.37234e-15 0)
(1 -9.78526e-15 0)
(1 8.22045e-15 0)
(1 -1.08776e-15 0)
(1 -9.16097e-16 0)
(1 -7.67498e-15 0)
(1 -5.18445e-15 0)
(1 -6.47133e-15 0)
(1 -1.12437e-14 0)
(1 -6.8194e-15 0)
(1 -7.03362e-15 0)
(1 2.28895e-15 0)
(1 -1.56549e-15 0)
(1 2.68828e-15 0)
(1 -3.35231e-16 0)
(1 -2.83215e-16 0)
(1 -1.86958e-15 0)
(1 -1.73549e-15 0)
(1 -2.16631e-15 0)
(1 -1.24583e-16 0)
(1 -3.3752e-15 0)
(1 -1.06037e-15 0)
(1 4.41713e-15 0)
(1 1.09148e-14 0)
(1 6.97367e-15 0)
(1 4.82544e-15 0)
(1 3.60473e-15 0)
(1 -1.10315e-15 0)
(1 -4.78613e-15 0)
(1 -6.49797e-15 0)
(1 8.38233e-15 0)
(1 1.24181e-14 0)
(1 1.0022e-14 0)
(1 5.2496e-15 0)
(1 8.90547e-15 0)
(1 2.28105e-15 0)
(1 2.06036e-15 0)
(1 2.35604e-15 0)
(1 1.00261e-15 0)
(1 -5.39978e-15 0)
(1 3.94685e-16 0)
(1 4.58378e-15 0)
(1 3.1029e-15 0)
(1 1.69934e-15 0)
(1 6.96038e-15 0)
(1 -5.0914e-16 0)
(1 2.38601e-16 0)
(1 1.45916e-15 0)
(1 6.12378e-15 0)
(1 4.92542e-15 0)
(1 6.40168e-15 0)
(1 -1.49465e-15 0)
(1 2.84998e-15 0)
(1 3.98155e-15 0)
(1 2.86162e-15 0)
(1 3.34555e-15 0)
(1 1.87276e-15 0)
(1 4.47682e-15 0)
(1 1.41168e-16 0)
(1 5.61332e-15 0)
(1 -2.78762e-15 0)
(1 4.836e-16 0)
(1 4.7377e-16 0)
(1 2.96702e-15 0)
(1 2.91562e-15 0)
(1 4.76985e-16 0)
(1 3.42317e-16 0)
(1 1.68214e-15 0)
(1 6.73428e-16 0)
(1 -1.92348e-16 0)
(1 -3.45676e-15 0)