/*--------------------------------*- C++ -*----------------------------------*\
| =========                 |                                                 |
| \\      /  F ield         | OpenFOAM: The Open Source CFD Toolbox           |
|  \\    /   O peration     | Version:  v2012                                 |
|   \\  /    A nd           | Website:  www.openfoam.com                      |
|    \\/     M anipulation  |                                                 |
\*---------------------------------------------------------------------------*/
FoamFile
{
    version     2.0;
    format      ascii;
    class       volVectorField;
    location    "0";
    object      U;
}
// * * * * * * * * * * * * * * * * * * * * * * * * * * * * * * * * * * * * * //

dimensions      [0 1 -1 0 0 0 0];


internalField   nonuniform List<vector> 
4000
(
(-0.00918616 -0.0157731 0)
(0.0304241 -0.0330947 0)
(-0.0270024 0.111638 0)
(-0.113709 0.0329547 0)
(0.0546839 0.0333269 0)
(-0.101971 -0.0195983 0)
(-0.116559 -0.0761749 0)
(0.00392787 -0.0588875 0)
(-0.0209807 -0.0963161 0)
(-0.106945 0.119746 0)
(0.0677904 0.143251 0)
(-0.313171 0.0662797 0)
(-0.119495 -0.0914699 0)
(0.098955 -0.062724 0)
(0.0291461 -0.0584694 0)
(0.104902 0.00342579 0)
(-0.0271726 0.0689278 0)
(-0.146552 -0.0636081 0)
(-0.0568987 -0.0623354 0)
(0.0582581 -0.01195 0)
(-0.0810161 0.138327 0)
(-0.0539309 0.0772086 0)
(-0.171421 -0.152825 0)
(-0.0231441 -0.0322143 0)
(-0.0297554 0.0694638 0)
(0.0604141 -0.0508126 0)
(-0.0289538 -0.104465 0)
(0.0248973 0.0253959 0)
(-0.0219485 0.0692884 0)
(0.165973 0.0268421 0)
(-0.025069 -0.0509032 0)
(0.197069 0.0339763 0)
(-0.137867 0.0725507 0)
(-0.0944121 -0.0172176 0)
(0.0611019 -0.0742693 0)
(-0.0171987 0.145813 0)
(-0.0616543 0.0708943 0)
(0.045801 -0.215661 0)
(0.19784 -0.0600526 0)
(-0.0383367 0.134151 0)
(-0.168449 0.0289026 0)
(-0.0715646 -0.0318393 0)
(0.0178798 0.0426452 0)
(0.107002 -0.0815551 0)
(0.0676313 0.00231678 0)
(-0.131238 0.0709488 0)
(0.048153 -0.000251145 0)
(-0.089323 0.0622365 0)
(0.0370884 -0.0641025 0)
(-0.00370714 -0.0575937 0)
(0.0501502 0.0286184 0)
(-0.0058325 0.0242897 0)
(0.0152768 -0.00225336 0)
(0.0501646 -0.132799 0)
(0.0485812 0.0772117 0)
(-0.0286038 0.0684767 0)
(-0.0281453 0.000623653 0)
(-0.0208884 -0.0390401 0)
(0.151993 -0.0430769 0)
(-0.0155166 -0.0507203 0)
(-0.00590938 0.0816144 0)
(-0.0389286 0.0805556 0)
(-0.0106072 -0.110239 0)
(-0.0512413 0.023752 0)
(-0.026721 0.0408713 0)
(0.00600752 -0.0315878 0)
(0.0183916 -0.0219648 0)
(0.0194607 0.027883 0)
(0.00623201 0.0121412 0)
(-0.0225961 0.0346398 0)
(-0.0343438 0.0368002 0)
(-0.0497379 -0.0524998 0)
(-0.0793307 0.0502147 0)
(-0.0605782 -0.0630631 0)
(-0.0337809 0.0205238 0)
(-0.0708274 -0.024489 0)
(0.139996 -0.00701163 0)
(-0.0100438 -0.0503409 0)
(0.0933384 -0.00472029 0)
(-0.0107645 0.0228563 0)
(-0.0707156 -0.0735643 0)
(0.0653837 0.0338934 0)
(-0.0414413 0.0859752 0)
(-0.108516 -0.0501845 0)
(-0.0594461 0.028033 0)
(0.0797402 0.0577265 0)
(-0.283128 0.0519895 0)
(-0.147932 -0.0509052 0)
(0.0321996 -0.106258 0)
(0.0806664 0.0829457 0)
(-0.0654679 0.0345016 0)
(-0.0255491 -0.0996496 0)
(-0.0355523 0.0145352 0)
(-0.00443768 0.150809 0)
(-0.0412899 -0.0587192 0)
(-0.0254922 -0.0965537 0)
(0.113018 -0.03353 0)
(0.0637834 0.0386149 0)
(-0.00128455 0.0516263 0)
(-0.0034982 0.00417088 0)
(0.0272053 -0.0262763 0)
(-0.174231 0.0310961 0)
(0.0466003 0.125482 0)
(-0.00296675 -0.0429498 0)
(0.0202998 -0.0405469 0)
(-0.0102663 0.0351604 0)
(-0.0528336 0.0343118 0)
(0.000753096 -0.0803119 0)
(-0.0478658 0.00206748 0)
(-0.209124 0.114841 0)
(-0.0159951 -0.016154 0)
(0.0732449 0.0825484 0)
(0.0185533 -0.0493474 0)
(-0.0248367 -0.101763 0)
(0.00793783 -0.184018 0)
(-0.00495382 0.126918 0)
(-0.0447454 0.200023 0)
(-0.032195 -0.211141 0)
(0.0226337 -0.142656 0)
(0.0451281 0.0631963 0)
(0.0366953 0.176247 0)
(-0.0136155 0.0667675 0)
(0.0303177 -0.0955393 0)
(0.0335755 -0.0921183 0)
(0.032779 -0.0772499 0)
(0.00333894 0.105475 0)
(-0.0604539 -0.0116624 0)
(-0.0615539 -0.0191062 0)
(0.0622713 -0.0102167 0)
(-0.0898953 0.161869 0)
(-0.0830294 -0.0586409 0)
(-0.038136 -0.101222 0)
(0.201736 0.172686 0)
(0.0504883 0.00841269 0)
(0.00809431 -0.138002 0)
(-0.194539 -0.00973395 0)
(0.218267 -0.0384487 0)
(-0.0464519 -0.128034 0)
(-0.085022 0.0681679 0)
(-0.0204932 0.193375 0)
(0.0347392 0.0389768 0)
(-0.00769571 -0.0474319 0)
(0.104634 -0.0487672 0)
(-0.0362278 -0.0417884 0)
(-0.0762535 0.0567038 0)
(0.0925951 0.0350708 0)
(0.00452419 0.00741109 0)
(0.13043 0.0359584 0)
(0.048669 -0.0449325 0)
(-0.0292111 -0.0166547 0)
(-0.0626682 -0.00282784 0)
(-0.0162188 -0.148761 0)
(0.156575 0.125818 0)
(-0.0979147 0.0505527 0)
(-0.163388 0.0303275 0)
(-0.0386322 -0.0213235 0)
(-0.0277049 -0.0527359 0)
(-0.0307945 -0.0364248 0)
(-0.130736 0.104739 0)
(-0.0338819 -0.049099 0)
(-0.139759 -0.0649081 0)
(-0.0441982 -0.00440189 0)
(-0.0677908 0.0222108 0)
(-0.0538765 0.0978154 0)
(0.0100581 -0.0523195 0)
(0.0547076 0.0570852 0)
(-0.149072 0.00583156 0)
(-0.053562 -0.0106189 0)
(-0.0396334 -0.00423374 0)
(-0.0792537 0.0275635 0)
(0.0406179 0.111985 0)
(-0.0530365 -0.139343 0)
(-0.0690114 0.0391583 0)
(-0.0489966 0.0496277 0)
(0.0161106 -0.10627 0)
(-0.00782528 -0.0854373 0)
(0.00786228 0.0208935 0)
(-0.0128773 -0.0221871 0)
(-0.0207201 0.0173371 0)
(-0.126281 0.0881399 0)
(-0.0547519 -0.158207 0)
(0.0145313 -0.0256136 0)
(-0.207902 0.202888 0)
(0.0441905 0.0290534 0)
(-0.0942643 -0.0731411 0)
(0.0891836 -0.0358854 0)
(0.125998 0.0324294 0)
(-0.0529943 0.0159332 0)
(-0.00887463 -0.0859524 0)
(0.0199493 -0.00922438 0)
(0.00994124 0.0362065 0)
(0.059065 -0.0182525 0)
(-0.0423277 0.0270395 0)
(-0.0516197 0.0889692 0)
(0.0956042 -0.154638 0)
(-0.0901021 -0.0540803 0)
(0.0389882 -0.00454689 0)
(-0.00993939 0.0512342 0)
(0.00079742 0.0868527 0)
(0.0947047 0.0360218 0)
(0.00535355 0.0248888 0)
(0.00647731 0.0107558 0)
(-0.00118313 0.0842064 0)
(-0.0046262 -0.00831291 0)
(-0.00452543 -0.0984444 0)
(0.0101308 0.0791393 0)
(0.00586405 0.0771352 0)
(0.0233722 -0.119982 0)
(-0.0210015 0.0303867 0)
(-0.100914 0.0131429 0)
(0.105459 -0.121451 0)
(-0.0732478 0.0474693 0)
(0.156636 0.144275 0)
(-0.0963955 -0.12782 0)
(0.0152664 -0.146736 0)
(-0.0470779 0.0440104 0)
(-0.0315631 0.146683 0)
(-0.0249682 -0.112908 0)
(-0.0187046 -0.141618 0)
(0.111028 0.0390951 0)
(0.0324941 0.148379 0)
(-0.0727318 -0.0186303 0)
(0.0515425 -0.0755157 0)
(0.0372989 0.000255954 0)
(-0.125859 0.0428063 0)
(-0.0606451 0.0172811 0)
(-0.0171538 -0.0474892 0)
(-0.0077564 -0.0157844 0)
(-0.187892 0.0669188 0)
(0.0972578 0.113473 0)
(0.107103 -0.0291678 0)
(-0.141509 -0.0907963 0)
(-0.0907454 0.0157608 0)
(-0.038601 -0.0146476 0)
(0.0443414 -0.0175257 0)
(0.113798 -0.0689407 0)
(0.00341404 -0.0855608 0)
(-0.0561845 0.0770067 0)
(-0.0863275 0.179761 0)
(-0.106817 -0.00889983 0)
(0.21134 -0.131986 0)
(0.0608218 -0.000798195 0)
(-0.0912087 0.0811622 0)
(-0.0184557 0.0569516 0)
(-0.0162551 -0.0319775 0)
(0.115466 -0.0344009 0)
(0.189695 0.0195819 0)
(-0.089751 -0.0367229 0)
(0.0232386 0.0406937 0)
(0.0228227 0.0404192 0)
(-0.0254561 -0.070988 0)
(0.0599159 -0.187147 0)
(0.0561284 0.102936 0)
(-0.00302155 0.176339 0)
(-0.0426888 0.0324954 0)
(-0.293726 -0.09123 0)
(-0.0196321 -0.0944438 0)
(0.137202 0.0293173 0)
(0.101701 0.0980632 0)
(-0.106732 -0.0339389 0)
(-0.0653118 0.0285803 0)
(-0.119269 -0.00526877 0)
(-0.169118 0.000870498 0)
(0.0299965 -0.0561268 0)
(0.133224 -0.00161609 0)
(-0.122627 0.0542915 0)
(0.0637379 0.0589459 0)
(0.0836127 -0.0435705 0)
(0.0597849 0.0196656 0)
(-0.150846 0.0950757 0)
(-0.0824193 -0.0324504 0)
(-0.0340792 -0.0861243 0)
(0.0389516 0.0862757 0)
(-0.00679847 0.126091 0)
(-0.0663921 -0.134122 0)
(-0.162148 -0.0288748 0)
(-0.0289921 -0.0237279 0)
(-0.149917 -0.151593 0)
(-0.0787739 0.072033 0)
(-0.042125 0.0933247 0)
(0.0610679 -0.140181 0)
(0.0287058 0.06295 0)
(-0.0033449 0.142369 0)
(0.0159165 -0.0362453 0)
(0.0912759 -0.163152 0)
(-0.00271448 -0.0110903 0)
(0.0438706 0.0597007 0)
(0.149161 0.0564135 0)
(-0.100921 -0.0373158 0)
(-0.0280401 -0.0702298 0)
(0.0803116 -0.0313626 0)
(0.0699656 -0.0706544 0)
(0.111114 0.0977166 0)
(0.0358965 0.0914996 0)
(-0.0651734 -0.109286 0)
(-0.0150661 -0.0464041 0)
(-0.0200028 0.0451336 0)
(-0.143043 -0.0261209 0)
(-0.0543158 0.046204 0)
(-0.011092 0.06665 0)
(-0.000109651 -0.00288654 0)
(0.00472653 -0.00407909 0)
(-0.000611695 0.103067 0)
(0.050705 0.0105183 0)
(0.0764779 -0.0421751 0)
(0.144217 0.0217285 0)
(0.0204861 -0.107794 0)
(0.0557849 -0.0601961 0)
(0.033027 0.0959296 0)
(0.052729 0.0584219 0)
(0.0741798 -0.0854187 0)
(-0.0636745 0.0135297 0)
(-0.05063 0.119148 0)
(0.00788605 -0.0860424 0)
(-0.0285781 -0.0899824 0)
(0.109103 -0.0445416 0)
(0.0278843 0.0770411 0)
(0.0237315 0.00423636 0)
(0.109814 -0.144444 0)
(0.0295223 0.0396 0)
(0.0651856 0.115258 0)
(-0.0408408 0.0416817 0)
(0.0874046 -0.0237483 0)
(-0.202937 0.00747915 0)
(-0.0611754 0.0629175 0)
(0.110476 -0.109303 0)
(0.0280446 0.0124006 0)
(-0.00107814 -0.0605844 0)
(-0.0842255 0.0609527 0)
(0.14848 0.0323083 0)
(-0.000473574 0.00775991 0)
(0.087307 -0.00720704 0)
(0.178062 -0.0342202 0)
(-0.0997838 0.0378196 0)
(-0.0528351 0.0028314 0)
(0.00757196 -0.0457751 0)
(0.0875793 0.0326352 0)
(0.0591961 0.0273289 0)
(0.0655065 -0.0822806 0)
(0.0035875 0.0785023 0)
(0.148222 -0.0284011 0)
(-0.164547 0.0430697 0)
(0.106186 0.0976149 0)
(0.0418683 -0.0627687 0)
(0.111693 -0.107122 0)
(0.0305334 0.138633 0)
(-0.0356842 0.085423 0)
(0.0163347 -0.0532977 0)
(-0.0213843 -0.124818 0)
(0.00057469 0.0469213 0)
(0.0687644 0.0312174 0)
(0.0564213 -0.121735 0)
(-0.0440166 -0.103931 0)
(0.0136317 0.202019 0)
(-0.00528946 0.301348 0)
(-0.0612432 -0.0433594 0)
(-0.0159769 -0.352073 0)
(-0.0409653 -0.0400608 0)
(0.0624726 0.198183 0)
(-0.0632333 0.0685983 0)
(0.175277 0.065091 0)
(0.0125277 -0.0420193 0)
(0.0639689 -0.108859 0)
(-0.0133736 -0.0876982 0)
(-0.0240437 0.0523198 0)
(0.0230172 0.0320328 0)
(0.13612 -0.00448129 0)
(0.0654819 -0.0625909 0)
(-0.0536544 0.0853062 0)
(0.0351362 0.19362 0)
(0.0207782 -0.120763 0)
(0.0614888 -0.163889 0)
(-0.0103583 0.105663 0)
(-0.0720977 0.224277 0)
(0.147256 -0.0370824 0)
(0.0203809 -0.117042 0)
(-0.0761575 -0.0250994 0)
(0.0147742 -0.096752 0)
(0.0346138 0.0292722 0)
(0.0246464 0.0200198 0)
(-0.00942982 -0.138117 0)
(-0.0988427 0.0626821 0)
(0.0805563 0.103705 0)
(0.0905877 -0.0306568 0)
(-0.035195 -0.0585285 0)
(-0.0263734 -0.04971 0)
(0.0319123 0.0713303 0)
(-0.0226826 0.120855 0)
(0.0452691 -0.043192 0)
(0.0534614 -0.0208444 0)
(-0.0598723 -0.0790393 0)
(-0.0513697 -0.0862441 0)
(-0.0440549 0.0734336 0)
(0.094319 0.0600524 0)
(0.159116 0.0146797 0)
(0.0185677 -0.10955 0)
(0.153374 0.0670891 0)
(-0.0769448 0.0802603 0)
(-0.258386 -0.0425981 0)
(0.200988 -0.0556586 0)
(0.00115891 0.00191241 0)
(-0.0144352 -0.00310937 0)
(-0.157134 0.102555 0)
(0.0130971 0.0212516 0)
(0.0609523 -0.142907 0)
(0.0394665 -0.0352989 0)
(0.083552 0.0553967 0)
(-0.0973789 0.0565512 0)
(0.0526074 -0.00371876 0)
(0.0725479 0.0185053 0)
(0.00533599 0.0123068 0)
(0.00291122 0.00800304 0)
(0.0313572 0.0676356 0)
(-0.00682334 -0.080763 0)
(-0.0358108 -0.130645 0)
(-0.0338323 -0.0177043 0)
(-0.0470106 0.043123 0)
(0.103393 0.0157377 0)
(0.0570095 0.0146425 0)
(0.00294531 0.148388 0)
(-0.268629 -0.0053539 0)
(0.0828286 -0.0737674 0)
(0.127706 -0.026736 0)
(-0.0520192 0.157692 0)
(-0.1311 -0.032096 0)
(0.0128676 -0.0809402 0)
(0.0868264 0.0723118 0)
(0.0399618 -0.00846187 0)
(0.00344072 -0.0786906 0)
(0.0132786 -0.00685626 0)
(0.0300493 -0.100366 0)
(-0.0784791 0.0432604 0)
(0.116795 0.163466 0)
(-0.0495185 0.152849 0)
(-0.150173 -0.0912987 0)
(-0.000293035 -0.208708 0)
(-0.0254035 -0.021174 0)
(0.126801 0.190502 0)
(0.0274742 -0.0218119 0)
(-0.018866 -0.0433623 0)
(-0.00971433 -0.0122343 0)
(0.0527422 0.0489605 0)
(0.0251513 0.0655606 0)
(-0.0399839 -0.0156439 0)
(-0.0870866 -0.051078 0)
(-0.0219373 -0.0454474 0)
(0.0926319 0.0434852 0)
(0.196451 -0.0165063 0)
(0.022261 0.0454519 0)
(-0.131388 -0.0152907 0)
(0.0274828 -0.0470801 0)
(0.169182 0.0383516 0)
(-0.148379 0.00501304 0)
(-0.145064 0.0345019 0)
(0.317587 0.102491 0)
(0.194177 0.024723 0)
(-0.0386386 -0.145578 0)
(-0.0981301 0.05946 0)
(0.0605775 0.0709187 0)
(0.0840021 -0.110818 0)
(0.0602275 -0.0150112 0)
(0.0343064 0.0622976 0)
(0.00486904 -0.00981719 0)
(0.0715821 -0.0449551 0)
(0.0166605 0.014762 0)
(-0.0251083 0.0636352 0)
(-0.0393752 0.0216616 0)
(-0.0371875 -0.0935984 0)
(-0.0683514 -0.026104 0)
(-0.0421701 0.161658 0)
(0.0591422 0.0470992 0)
(-0.00768897 -0.175507 0)
(-0.0372481 0.119204 0)
(0.0267413 0.0566597 0)
(0.196192 0.0100862 0)
(-0.0226472 -0.0208484 0)
(-0.103644 -0.118948 0)
(0.0260403 -0.117004 0)
(0.0146557 0.133443 0)
(-0.0252148 0.0481117 0)
(-0.125979 -0.124639 0)
(0.0513318 -0.0563733 0)
(-0.0624148 0.0163755 0)
(0.118924 0.0744193 0)
(-0.230673 0.0473137 0)
(0.036734 -0.104156 0)
(-0.118591 0.0625969 0)
(0.070686 0.121099 0)
(0.0898848 -0.0381847 0)
(0.050181 -0.089762 0)
(0.0396728 -0.0519994 0)
(0.0064838 0.035229 0)
(0.0296007 0.0263311 0)
(0.0116867 -0.099993 0)
(0.195848 -0.0143357 0)
(-0.0885515 0.0467413 0)
(0.0589329 0.024971 0)
(0.103926 0.0894534 0)
(-0.0418587 -0.0508479 0)
(-0.00497823 -0.0753233 0)
(0.00118158 -0.00979478 0)
(0.000485477 0.0297441 0)
(0.00901933 0.150953 0)
(0.0414012 -0.0830395 0)
(-0.0046225 -0.113329 0)
(-0.0195959 -0.112155 0)
(-0.0100975 0.19958 0)
(0.0132085 0.151964 0)
(-0.0728968 -0.234452 0)
(0.094057 -0.104695 0)
(-0.0945754 0.126434 0)
(-0.0724732 -0.0265443 0)
(0.0525396 0.0415768 0)
(0.138338 0.0977936 0)
(-0.102599 -0.0446581 0)
(0.00421936 -0.078319 0)
(-0.00848975 -0.00511217 0)
(-0.0291936 -0.161969 0)
(0.0159518 0.0511431 0)
(-0.0138774 0.221978 0)
(-0.0164102 0.0153781 0)
(-0.0334794 -0.277391 0)
(0.00490145 -0.153805 0)
(-0.101685 0.21897 0)
(0.126801 0.117576 0)
(-0.0148188 -0.0566293 0)
(0.033657 -0.0360172 0)
(-0.0765381 0.000655688 0)
(-0.0222838 0.00348999 0)
(0.0427172 0.0770227 0)
(-0.0890895 -0.026006 0)
(-0.073428 -0.064092 0)
(0.00244704 0.0704714 0)
(0.0503448 0.0929055 0)
(0.191552 0.0439923 0)
(-0.0378882 -0.0808719 0)
(-0.197396 -0.171787 0)
(0.0297793 0.0762426 0)
(0.171923 0.302187 0)
(-0.0222543 -0.0842381 0)
(-0.0317189 -0.184625 0)
(-0.0415705 -0.0659017 0)
(0.0106462 0.0663421 0)
(0.0084765 0.0399873 0)
(-0.00441136 -0.0847033 0)
(-0.060895 -0.0856639 0)
(0.126428 -0.0493088 0)
(0.0533878 0.0175049 0)
(0.0743557 0.0670137 0)
(-0.00783993 0.066761 0)
(0.0142251 -0.0756628 0)
(-0.0117078 0.00194543 0)
(-0.0136905 -0.029807 0)
(-0.00197491 -0.111395 0)
(0.0264044 0.159337 0)
(0.0195605 0.0780417 0)
(0.050371 -0.0755611 0)
(0.030508 0.0632184 0)
(0.108438 -0.0750616 0)
(-0.0691789 0.0252898 0)
(-0.0342481 0.117572 0)
(0.0903703 -0.0355708 0)
(0.0402434 -0.141515 0)
(-0.0169807 0.0364306 0)
(0.00946734 0.128558 0)
(-0.0244259 -0.00321551 0)
(-0.00129273 0.0213521 0)
(0.0253338 -0.0117862 0)
(-0.0841846 0.043078 0)
(0.00218129 0.0175948 0)
(0.102568 -0.0769673 0)
(0.0441389 0.0142379 0)
(-0.0776659 0.155977 0)
(0.0515556 -0.081822 0)
(0.0567692 -0.0261682 0)
(0.0489001 0.0325271 0)
(0.00524258 -0.115939 0)
(0.0427385 -0.0327836 0)
(-0.0150048 0.188854 0)
(0.0791357 -0.0290639 0)
(-0.142637 -0.170968 0)
(0.0532841 -0.10781 0)
(-0.0548286 0.031964 0)
(0.00397472 0.165026 0)
(-0.0589398 0.105115 0)
(0.00495085 -0.153075 0)
(-0.100908 0.00224286 0)
(-0.013221 -0.0196749 0)
(0.124301 -0.120002 0)
(0.015368 0.0577329 0)
(-0.00583265 0.0900459 0)
(-0.0146754 -0.138139 0)
(-0.0325218 0.0368258 0)
(-0.0131785 0.0393881 0)
(0.0275664 -0.118795 0)
(0.0180642 0.0465145 0)
(0.000981335 0.0501445 0)
(-0.0449189 0.0557449 0)
(0.0377256 -0.0496168 0)
(-0.0527698 -0.0120557 0)
(0.00234965 -0.00694533 0)
(0.00897076 -0.057978 0)
(0.00634668 0.0597027 0)
(0.0712037 0.0435284 0)
(-0.0570425 -0.0298256 0)
(-0.0310237 -0.183264 0)
(0.0789716 -0.0178487 0)
(-0.0133023 0.189854 0)
(-0.00966108 -0.0566693 0)
(-0.0395544 -0.0734258 0)
(0.0805282 0.130016 0)
(0.00276294 0.0167816 0)
(-0.0245158 -0.00924276 0)
(0.0428412 0.0768023 0)
(0.0699947 -0.0700161 0)
(-0.00983438 -0.0840262 0)
(0.0529683 0.016319 0)
(0.107172 0.00901419 0)
(-0.0497425 0.00113271 0)
(-0.00318793 0.0668701 0)
(0.0248269 0.116235 0)
(0.0858062 -0.150413 0)
(-0.0831594 0.0474333 0)
(-0.190141 -0.119221 0)
(-0.00120391 -0.168302 0)
(0.12296 0.18463 0)
(0.0125928 0.234369 0)
(-0.0623657 -0.199552 0)
(-0.00418776 -0.204455 0)
(0.0208889 0.137752 0)
(0.153464 0.0375563 0)
(0.0806711 -0.0893427 0)
(-0.0856079 0.0026584 0)
(-0.0627452 0.0978783 0)
(0.269638 -0.00998086 0)
(0.0549788 -0.0920714 0)
(0.0988291 0.0360046 0)
(-0.00295892 -0.00773829 0)
(0.0838151 0.084793 0)
(0.119186 -0.119873 0)
(0.144413 -0.108924 0)
(0.315977 0.103933 0)
(-0.155651 0.0466126 0)
(0.0456226 -0.00825097 0)
(-0.0300303 -0.0600251 0)
(-0.0639078 0.0562532 0)
(-0.0361686 -0.122098 0)
(-0.0286081 0.00303512 0)
(0.113374 0.0926874 0)
(-0.0161534 0.0184628 0)
(-0.040752 -0.0215861 0)
(0.110792 -0.0473248 0)
(-0.181369 -0.0161261 0)
(-0.0586948 -0.0448278 0)
(0.0554365 0.0765682 0)
(0.129767 0.166903 0)
(0.049227 -0.0626152 0)
(-0.127865 -0.132219 0)
(-0.0803346 -0.00437679 0)
(0.0619338 0.197062 0)
(0.124603 0.0189667 0)
(-0.172057 -0.154579 0)
(0.0678238 -0.196697 0)
(-0.0314276 0.154435 0)
(-0.0317921 0.196356 0)
(-0.0194253 -0.00344292 0)
(0.0345739 -0.127605 0)
(-0.026563 -0.0464354 0)
(0.0108997 0.200653 0)
(0.00629921 -0.00862622 0)
(0.0414431 -0.132579 0)
(0.00108459 0.0598004 0)
(-0.0227137 0.0565207 0)
(0.034212 -0.0334566 0)
(0.039557 0.041955 0)
(-0.123197 0.0762406 0)
(-0.0138075 -0.0550531 0)
(-0.00943451 -0.0275707 0)
(-0.0930129 -0.0545061 0)
(0.0128621 0.021802 0)
(0.0452967 0.00934067 0)
(-0.102758 -0.143475 0)
(-0.257418 -0.00469997 0)
(0.210318 0.102284 0)
(0.0797908 0.0392939 0)
(0.18181 -0.0625331 0)
(-0.00202414 -0.0158996 0)
(0.10398 -0.0376845 0)
(-0.00588809 0.017916 0)
(-0.167662 0.125748 0)
(0.0464825 -0.16687 0)
(-0.0150129 -0.0603775 0)
(0.0178913 0.0826027 0)
(0.154535 -0.0509232 0)
(0.0554423 -0.0677853 0)
(-0.00966302 0.0577038 0)
(-0.012059 0.0828353 0)
(0.0392034 -0.00604713 0)
(0.0162862 0.0446778 0)
(-0.0117431 0.0330602 0)
(-0.00858806 0.0189071 0)
(-0.00503788 -0.0765583 0)
(0.0173602 -0.0942708 0)
(0.128396 0.0726677 0)
(0.000773556 0.0138524 0)
(0.0354498 -0.0765849 0)
(-0.0233199 0.0233902 0)
(-0.131853 0.0957574 0)
(-0.0360622 0.0524074 0)
(0.02707 -0.0959936 0)
(0.166099 0.0780695 0)
(-0.0683647 -0.0234523 0)
(0.188946 0.0540154 0)
(0.0106035 -0.00930328 0)
(-0.0464191 -0.00814587 0)
(0.0537012 -0.0107738 0)
(-0.076899 -0.0820686 0)
(-0.0879573 0.122649 0)
(-0.0218532 0.184072 0)
(-0.0287921 0.0314283 0)
(0.00516163 -0.0598763 0)
(-0.0155698 -0.140372 0)
(-0.0567425 0.0946005 0)
(-0.0139426 -0.0753042 0)
(0.0552407 -0.233548 0)
(0.0143623 0.106434 0)
(0.021425 0.191114 0)
(-0.0106412 -0.0604204 0)
(0.0362531 -0.16023 0)
(0.0140154 -0.0438907 0)
(0.0791093 -0.00624751 0)
(0.0231303 0.134255 0)
(-0.0194294 0.132207 0)
(0.00556077 -0.0634807 0)
(0.0110101 -0.144451 0)
(-0.056533 0.00892131 0)
(-0.021984 0.0224993 0)
(-0.0961187 -0.056357 0)
(0.0323016 -0.0717451 0)
(0.0347821 0.0570803 0)
(0.0647672 0.0540549 0)
(-0.0205871 0.111816 0)
(-0.0106189 0.119796 0)
(0.0319029 -0.0952292 0)
(-0.178704 -0.0986489 0)
(0.162482 -0.0547731 0)
(-0.0058893 -0.0226404 0)
(0.0276966 0.0911549 0)
(-0.0225692 0.0728101 0)
(-0.00619676 -0.0827027 0)
(0.162076 -0.0486978 0)
(-0.0770736 0.0774981 0)
(0.233727 -0.065744 0)
(-0.0337463 -0.0926634 0)
(0.0121614 0.0637828 0)
(-0.00475808 0.156735 0)
(0.0442091 -0.0158075 0)
(0.00609257 -0.0383666 0)
(-0.0849315 -0.0117864 0)
(-0.0472458 0.11755 0)
(0.00369603 -0.0461604 0)
(0.0481529 -0.0134907 0)
(-0.0581504 -0.072105 0)
(-0.101979 0.0169983 0)
(0.044126 0.00710443 0)
(0.0148705 0.0895775 0)
(0.137622 -0.0469159 0)
(-0.214076 -0.0192407 0)
(0.0817105 0.105535 0)
(0.0505165 0.0271349 0)
(-0.0232403 -0.0952106 0)
(-0.101854 0.0350509 0)
(-0.0680643 0.0332827 0)
(0.0156087 0.00831442 0)
(-0.060571 0.0706117 0)
(-0.000279077 0.0230297 0)
(0.194827 -0.0983858 0)
(0.0849236 -0.0618959 0)
(-0.0251763 -0.0164123 0)
(-0.0209085 0.0354263 0)
(0.103168 0.0457342 0)
(0.0887174 -0.051708 0)
(-0.217606 -0.168372 0)
(0.180163 -0.00693842 0)
(-0.0475059 0.11448 0)
(0.0939273 0.0505552 0)
(-0.116488 -0.022393 0)
(0.126704 -0.111322 0)
(-0.0124962 0.124413 0)
(0.0735702 0.117398 0)
(-0.111834 -0.191449 0)
(-0.143692 -0.0799288 0)
(0.167655 -0.0559569 0)
(-0.11208 -0.0644487 0)
(0.0187276 0.0935013 0)
(0.00738854 0.116082 0)
(-0.0684172 -0.0257741 0)
(0.053723 -0.0983833 0)
(-0.00754461 0.0711046 0)
(-0.0323799 0.0467599 0)
(-0.00299428 0.00178622 0)
(-0.0110383 -0.0308552 0)
(-0.0076243 -0.0590632 0)
(-0.00515205 0.0193026 0)
(-0.0628919 -0.0451871 0)
(-0.079843 -0.0368626 0)
(-0.00658252 0.202474 0)
(-0.0234765 0.0758887 0)
(0.0259922 -0.103742 0)
(0.00424537 -0.0806286 0)
(-0.0199262 0.189107 0)
(-0.0505059 -0.0512931 0)
(0.0561752 -0.0900555 0)
(-0.0506942 0.0273674 0)
(-0.017949 0.11475 0)
(0.0799458 -0.0860445 0)
(-0.0450221 -0.0367139 0)
(-0.109062 0.0358505 0)
(0.0781876 -0.0817631 0)
(0.266099 0.110165 0)
(-0.072527 -0.0399171 0)
(-0.0605234 0.0321037 0)
(-0.0290062 0.00434222 0)
(-0.0890504 -0.171072 0)
(0.0156774 0.0714118 0)
(-0.0928345 0.16161 0)
(0.141859 0.0103416 0)
(0.180605 -0.145468 0)
(-0.138867 -0.120879 0)
(-0.198923 -0.00362673 0)
(-0.0318413 0.0718611 0)
(-0.095628 -0.000509265 0)
(0.125513 0.115567 0)
(0.220772 0.0394131 0)
(0.0520013 -0.0750825 0)
(-0.0519718 -0.00565333 0)
(-0.0437677 0.0170404 0)
(-0.230875 -0.140286 0)
(-0.175997 0.0224027 0)
(0.0293942 0.173823 0)
(-0.0258689 0.033401 0)
(0.0490214 -0.0171447 0)
(0.181355 0.00525214 0)
(-0.0861631 -0.0606099 0)
(0.0444792 0.0822022 0)
(-0.0324114 -0.0971939 0)
(-0.158598 -0.101574 0)
(-0.0132486 0.0887224 0)
(-0.0311728 0.0609713 0)
(0.0586055 -0.0246687 0)
(0.0743057 -0.0361608 0)
(0.120422 -0.027905 0)
(-0.0802426 -0.115152 0)
(-0.0806899 0.000361777 0)
(0.0195076 0.148111 0)
(0.137872 0.0134107 0)
(0.0081646 0.0215454 0)
(-0.0684336 0.0345707 0)
(-0.0278935 0.0819855 0)
(-0.000325097 0.0842182 0)
(0.0468496 -0.0561732 0)
(0.00769995 -0.11439 0)
(-0.0975226 -0.0361118 0)
(0.0714814 0.026989 0)
(-0.04411 -0.0387254 0)
(0.0790925 0.167853 0)
(0.130246 0.0354309 0)
(-0.217037 -0.132271 0)
(-0.148402 -0.0010522 0)
(0.121495 0.166286 0)
(0.00717057 -0.0242316 0)
(-0.0149869 -0.0705078 0)
(0.0304288 0.0520146 0)
(0.0134456 0.044647 0)
(-0.0335755 -0.0334113 0)
(0.236226 -0.0881191 0)
(-0.00291319 -0.103789 0)
(0.0388064 0.127216 0)
(0.00777272 -0.0717394 0)
(0.0102541 -0.103437 0)
(0.0695523 0.0962164 0)
(-0.00274175 0.0643176 0)
(-0.020698 -0.184081 0)
(-0.00684913 -0.0392476 0)
(-0.0620426 0.140433 0)
(0.0320389 0.0411814 0)
(0.176423 -0.12386 0)
(0.098186 -0.0539438 0)
(-0.0434354 0.028463 0)
(0.0558437 0.0852146 0)
(-0.00313987 0.0913477 0)
(-0.0238172 -0.195736 0)
(0.0901055 -0.138677 0)
(0.005967 0.0181991 0)
(0.0360747 0.0984895 0)
(0.0982495 0.0842897 0)
(0.0161479 -0.0873631 0)
(0.0120734 -0.00386304 0)
(0.0404956 0.107181 0)
(0.0274852 0.0195686 0)
(0.00634269 0.00314833 0)
(0.0205242 -0.0723288 0)
(-0.0137162 -0.0227834 0)
(-0.0498954 0.11688 0)
(-0.0177036 -0.0395965 0)
(0.0178028 -0.0769137 0)
(0.0886436 -0.0474374 0)
(0.0255084 0.103742 0)
(0.0363965 0.0519118 0)
(-0.0526031 -0.00126514 0)
(-0.00708229 -0.0618336 0)
(0.0938155 0.0257883 0)
(0.100402 0.148516 0)
(0.115031 0.0141454 0)
(0.0389809 -0.104258 0)
(0.00144406 0.0542407 0)
(-0.206333 0.0251383 0)
(0.134435 -0.0641408 0)
(0.145163 -0.152208 0)
(-0.0346293 0.250914 0)
(-0.0682499 0.237141 0)
(-0.0546613 -0.0294358 0)
(0.126516 -0.159877 0)
(0.153242 -0.2245 0)
(-0.126052 -0.00643431 0)
(0.00925457 0.0156493 0)
(0.151468 0.0492958 0)
(0.234712 0.0424598 0)
(-0.0595344 -0.0142358 0)
(-0.00189442 -0.0349037 0)
(-0.0160959 -0.109413 0)
(-0.034907 -0.0336629 0)
(-0.00414335 0.0835114 0)
(-0.0341972 0.027795 0)
(-0.00863287 0.00342922 0)
(-0.00403745 -0.0359827 0)
(0.0561762 0.179064 0)
(0.0178448 -0.0895748 0)
(-0.0261962 -0.172417 0)
(0.0107225 0.0677282 0)
(-0.0570024 0.00761827 0)
(0.0448571 -0.0947035 0)
(-0.00813988 0.0734141 0)
(0.0262951 0.0601463 0)
(0.0886003 0.0182192 0)
(0.116481 -0.115936 0)
(-0.047851 -0.0155355 0)
(-0.100208 0.0801368 0)
(-0.105453 0.156317 0)
(-0.0495811 -0.0921438 0)
(-0.0395308 -0.00511587 0)
(-0.0819051 0.119791 0)
(-0.14569 -0.00753005 0)
(0.0142914 -0.0274339 0)
(-0.112443 -0.126899 0)
(-0.0175251 0.0735089 0)
(-0.0341707 0.146298 0)
(-0.0217386 -0.124056 0)
(0.0228908 0.0827396 0)
(0.0418513 0.088141 0)
(-0.0154737 -0.0775556 0)
(0.061213 -0.102628 0)
(-0.111051 0.0516482 0)
(0.0903527 -0.0950458 0)
(0.0522972 0.00510772 0)
(0.0804527 0.0550993 0)
(0.123285 0.13212 0)
(-0.0370001 0.153961 0)
(-0.2888 -0.11906 0)
(0.15378 -0.170021 0)
(0.205177 0.062151 0)
(0.0794365 0.0864094 0)
(0.0172956 0.0157235 0)
(-0.0692099 0.0231075 0)
(0.0885932 0.00614535 0)
(-0.134736 -0.110504 0)
(0.00846015 0.0313397 0)
(0.0811822 0.105006 0)
(-0.105601 0.00902568 0)
(0.0555235 -0.129905 0)
(-0.0470809 -0.0290537 0)
(0.0985325 0.0511141 0)
(0.106482 -0.0729086 0)
(0.0172565 -0.017624 0)
(-0.180076 0.0586866 0)
(0.0151765 0.00256555 0)
(-0.00278995 -0.0555701 0)
(-0.135278 0.0146985 0)
(-0.0853577 -0.0129158 0)
(0.068494 -0.023784 0)
(0.0474179 0.0351688 0)
(0.0953741 -0.102461 0)
(0.00433989 -0.0837239 0)
(-0.000295483 0.00794418 0)
(0.0772591 0.0172508 0)
(0.00763159 0.111768 0)
(-0.0433355 -0.0960553 0)
(-0.00532877 -0.0207584 0)
(0.0392302 0.0862087 0)
(0.0806563 0.116138 0)
(-0.000113177 -0.0230847 0)
(0.00357748 0.0370822 0)
(-0.000810344 -0.110221 0)
(-0.0060255 -0.007998 0)
(-0.00343026 0.0993526 0)
(-0.00487862 -0.0692841 0)
(0.0311437 -0.0808616 0)
(-0.0135474 0.109236 0)
(-0.00162215 0.143054 0)
(0.0084101 -0.0984647 0)
(0.0124753 -0.263214 0)
(-0.0239317 0.221384 0)
(-0.0643502 0.0451522 0)
(-0.0427365 -0.0568066 0)
(-0.0744634 -0.00210548 0)
(-0.0025141 0.121965 0)
(-0.00536023 0.02294 0)
(-0.00529687 -0.214438 0)
(0.0039748 0.0252135 0)
(0.0498036 0.272148 0)
(0.277555 0.0712839 0)
(0.144404 -0.112385 0)
(-0.0400987 -0.127096 0)
(0.0695507 0.0480681 0)
(-0.109705 0.00257938 0)
(0.0467083 -0.150466 0)
(0.0661522 -0.0354644 0)
(-0.0201502 0.223196 0)
(0.00260653 0.0658364 0)
(0.0448523 -0.117013 0)
(-0.0790829 -0.13908 0)
(-0.0337449 0.0053658 0)
(-0.0733445 0.0712402 0)
(-0.0702195 -0.0587434 0)
(0.0725564 -0.0336481 0)
(-0.162825 0.108222 0)
(-0.0122498 0.118844 0)
(-0.0755583 0.0334946 0)
(0.012599 -0.235934 0)
(-0.0866708 -0.0344441 0)
(-0.00442292 0.119633 0)
(0.0728913 0.0470023 0)
(-0.0641426 -0.0353607 0)
(-0.0309487 0.0726749 0)
(0.0687958 -0.066736 0)
(0.00939117 -0.11542 0)
(-0.0138159 0.0936769 0)
(0.00902196 0.0748679 0)
(-0.1355 -0.00305726 0)
(0.145895 0.000780364 0)
(-0.0171763 -0.0499738 0)
(-0.00584781 0.0536719 0)
(-0.0862911 0.0401357 0)
(-0.0169436 0.0404209 0)
(0.0126297 -0.0712281 0)
(-0.108865 0.00266235 0)
(0.0138014 0.0382127 0)
(-0.068809 -0.0854302 0)
(-0.0547409 0.0100415 0)
(0.166072 0.20449 0)
(0.0104105 0.0319557 0)
(-0.0244895 -0.0755703 0)
(0.00195154 -0.147813 0)
(-0.0419961 -0.14895 0)
(-0.0028852 0.0373673 0)
(-0.0110448 0.0467185 0)
(0.00751933 0.166555 0)
(-0.143469 0.236304 0)
(0.142962 -0.0943225 0)
(0.0278025 -0.307776 0)
(0.0299545 -0.0121995 0)
(0.0457895 0.197226 0)
(-0.190681 0.00569733 0)
(0.00423216 -0.0585658 0)
(0.0664848 0.0855542 0)
(-0.167656 -0.0724801 0)
(0.0969392 -0.0760346 0)
(0.16792 0.0238354 0)
(0.0485763 0.120889 0)
(0.0235719 -0.0523546 0)
(0.0631284 -0.212409 0)
(0.0117754 -0.0307129 0)
(-0.0272306 0.0333129 0)
(-0.00343619 0.0803332 0)
(0.00493636 0.0787973 0)
(-0.00379444 0.00412719 0)
(-0.00909007 0.0123495 0)
(-0.0365648 -0.0303195 0)
(0.00582379 -0.0150625 0)
(-0.0295086 -0.0161598 0)
(0.0596867 0.00594031 0)
(0.0637163 -0.0696603 0)
(-0.149348 -0.0583356 0)
(-0.0216861 0.0647113 0)
(0.00708912 0.0150503 0)
(-0.0606299 0.0593124 0)
(-0.0606366 -0.0233342 0)
(0.0265501 -0.0829778 0)
(-0.0240493 0.0064924 0)
(0.0348225 0.0556463 0)
(-0.00205316 0.00293096 0)
(0.00398558 -0.0631785 0)
(0.00133936 -0.0594329 0)
(-0.00483362 0.0874927 0)
(-0.00235865 0.0593139 0)
(-0.00303481 -0.185722 0)
(0.0376318 0.0415552 0)
(0.0337111 0.0379078 0)
(-0.0130903 0.105929 0)
(0.016453 -0.0996525 0)
(-0.0158306 -0.0795036 0)
(0.0123465 0.176744 0)
(-0.0198564 -0.00479939 0)
(0.0223983 -0.053119 0)
(-0.0508695 0.0901021 0)
(-0.0644543 0.0990782 0)
(-0.0207401 0.0324375 0)
(0.0148595 -0.0692862 0)
(-0.0860908 -0.171115 0)
(0.184315 0.0356581 0)
(0.0102448 0.256628 0)
(-0.16129 0.0649921 0)
(0.0638208 -0.195853 0)
(-0.0787778 -0.020358 0)
(-0.00066662 -0.0409076 0)
(0.0117263 -0.0647508 0)
(0.00737037 -0.0156182 0)
(0.00636915 0.197279 0)
(0.17967 -0.0458478 0)
(-0.110559 -0.158224 0)
(0.0266747 -0.0443234 0)
(-0.0533649 0.0263642 0)
(-0.108453 -0.0327992 0)
(-0.0436672 0.137773 0)
(-0.0126775 0.0582543 0)
(-0.261327 0.0226053 0)
(-0.0285353 0.0034526 0)
(0.107962 -0.0873941 0)
(0.0290968 -0.112949 0)
(-0.0709864 -0.0284819 0)
(0.00367694 0.107421 0)
(-0.0473219 0.0751025 0)
(0.0139107 -0.0507094 0)
(-0.1137 -0.0168773 0)
(0.0293435 0.00720993 0)
(0.0538662 0.00361409 0)
(-0.00730351 -0.0338396 0)
(0.0461458 0.051648 0)
(-0.023112 -0.0341131 0)
(0.0149678 0.00829826 0)
(-0.0697958 0.0663413 0)
(-0.0564703 -0.111827 0)
(-0.0112707 0.0223422 0)
(-0.0907391 0.0526797 0)
(-0.0477983 -0.0306871 0)
(0.00888853 -0.126734 0)
(0.0799666 0.0973958 0)
(-0.0507529 0.0275365 0)
(0.0117603 -0.0176654 0)
(-0.00201298 0.0845511 0)
(-0.00536812 -0.00141424 0)
(-0.0123684 -0.0179727 0)
(0.0047901 -0.115088 0)
(-0.0697611 -0.109938 0)
(-0.0784372 -0.0313692 0)
(-0.0614069 0.126673 0)
(-0.0175526 0.0779392 0)
(-0.00117545 -0.0363886 0)
(0.00538873 -0.0957675 0)
(-0.00521049 -0.0938307 0)
(-0.0961873 0.0678615 0)
(-0.0417822 0.303847 0)
(0.0406807 -0.117774 0)
(-0.0615992 -0.176124 0)
(0.0297089 0.00072093 0)
(0.120533 0.0761795 0)
(-0.055936 -0.0292209 0)
(-0.12288 -0.0192572 0)
(-0.0939201 0.0381067 0)
(0.0550927 -0.0166068 0)
(-0.0426626 -0.0499477 0)
(-0.0820748 0.0249807 0)
(-0.101171 -0.0154015 0)