/*--------------------------------*- C++ -*----------------------------------*\
| =========                 |                                                 |
| \\      /  F ield         | OpenFOAM: The Open Source CFD Toolbox           |
|  \\    /   O peration     | Version:  v2012                                 |
|   \\  /    A nd           | Website:  www.openfoam.com                      |
|    \\/     M anipulation  |                                                 |
\*---------------------------------------------------------------------------*/
FoamFile
{
    version     2.0;
    format      ascii;
    class       volScalarField;
    location    "0";
    object      pRec;
}
// * * * * * * * * * * * * * * * * * * * * * * * * * * * * * * * * * * * * * //

dimensions      [0 2 -2 0 0 0 0];


internalField   nonuniform List<scalar> 
4000
(
-6.73737e-13
-6.6952e-13
-6.70216e-13
-6.71953e-13
-6.71528e-13
-6.71025e-13
-6.70165e-13
-6.6674e-13
-6.58975e-13
-6.54421e-13
-6.54736e-13
-6.50478e-13
-6.43237e-13
-6.33703e-13
-6.23071e-13
-6.18869e-13
-6.15199e-13
-6.12626e-13
-6.06103e-13
-5.97103e-13
-5.8834e-13
-5.8175e-13
-5.76222e-13
-5.68538e-13
-5.5929e-13
-5.5007e-13
-5.45067e-13
-5.40595e-13
-5.33968e-13
-5.24238e-13
-5.12491e-13
-5.04919e-13
-5.00016e-13
-4.94822e-13
-4.88316e-13
-4.82876e-13
-4.73751e-13
-4.6034e-13
-4.45657e-13
-4.40418e-13
-4.37551e-13
-4.32718e-13
-4.29711e-13
-4.22894e-13
-4.14066e-13
-4.05318e-13
-3.96417e-13
-3.87829e-13
-3.79147e-13
-3.71288e-13
-3.62502e-13
-3.55245e-13
-3.48195e-13
-3.4001e-13
-3.32568e-13
-3.21864e-13
-3.14643e-13
-3.12355e-13
-3.08729e-13
-3.04568e-13
-2.9634e-13
-2.89334e-13
-2.81161e-13
-2.71351e-13
-2.64547e-13
-2.57376e-13
-2.51877e-13
-2.4446e-13
-2.35793e-13
-2.29277e-13
-2.22202e-13
-2.14152e-13
-2.02526e-13
-1.95705e-13
-1.9328e-13
-1.88169e-13
-1.81598e-13
-1.74724e-13
-1.66145e-13
-1.54134e-13
-1.42872e-13
-1.36099e-13
-1.28075e-13
-1.22465e-13
-1.16295e-13
-1.09515e-13
-1.00806e-13
-9.24502e-14
-8.75133e-14
-8.21921e-14
-7.56518e-14
-6.83431e-14
-6.13595e-14
-5.43219e-14
-4.56035e-14
-3.60072e-14
-2.76177e-14
-1.87437e-14
-1.05718e-14
-2.75416e-15
-6.71373e-13
-6.70299e-13
-6.71981e-13
-6.71993e-13
-6.7276e-13
-6.70505e-13
-6.68659e-13
-6.66842e-13
-6.61841e-13
-6.5719e-13
-6.52456e-13
-6.48583e-13
-6.41944e-13
-6.33494e-13
-6.25287e-13
-6.20747e-13
-6.16881e-13
-6.11598e-13
-6.04935e-13
-5.99321e-13
-5.8995e-13
-5.80374e-13
-5.74139e-13
-5.66856e-13
-5.57866e-13
-5.51932e-13
-5.46867e-13
-5.40968e-13
-5.33567e-13
-5.21924e-13
-5.13669e-13
-5.06742e-13
-5.00032e-13
-4.92809e-13
-4.86363e-13
-4.80636e-13
-4.73038e-13
-4.61933e-13
-4.50355e-13
-4.42587e-13
-4.37305e-13
-4.32738e-13
-4.27921e-13
-4.21929e-13
-4.14889e-13
-4.05206e-13
-3.95657e-13
-3.87371e-13
-3.78891e-13
-3.69654e-13
-3.62087e-13
-3.54581e-13
-3.48329e-13
-3.40921e-13
-3.33073e-13
-3.23675e-13
-3.15014e-13
-3.11215e-13
-3.07742e-13
-3.03196e-13
-2.97789e-13
-2.89162e-13
-2.81344e-13
-2.72603e-13
-2.66053e-13
-2.57558e-13
-2.50384e-13
-2.43855e-13
-2.37199e-13
-2.30066e-13
-2.22194e-13
-2.14529e-13
-2.05798e-13
-1.98018e-13
-1.93054e-13
-1.85315e-13
-1.80866e-13
-1.73447e-13
-1.63829e-13
-1.533e-13
-1.43856e-13
-1.37063e-13
-1.30858e-13
-1.23951e-13
-1.14916e-13
-1.07912e-13
-9.93327e-14
-9.14771e-14
-8.66954e-14
-8.08582e-14
-7.63457e-14
-7.02474e-14
-6.39242e-14
-5.30656e-14
-4.4092e-14
-3.62192e-14
-2.72576e-14
-1.91044e-14
-1.15345e-14
-4.10151e-15
-6.70632e-13
-6.70048e-13
-6.71685e-13
-6.73427e-13
-6.7456e-13
-6.7155e-13
-6.67753e-13
-6.659e-13
-6.60179e-13
-6.5701e-13
-6.53268e-13
-6.48318e-13
-6.41883e-13
-6.34801e-13
-6.26332e-13
-6.21014e-13
-6.15836e-13
-6.11077e-13
-6.05914e-13
-5.9781e-13
-5.89513e-13
-5.82147e-13
-5.74557e-13
-5.67731e-13
-5.59533e-13
-5.53716e-13
-5.47652e-13
-5.39863e-13
-5.31938e-13
-5.21344e-13
-5.14101e-13
-5.06372e-13
-4.99208e-13
-4.94185e-13
-4.88223e-13
-4.81948e-13
-4.72095e-13
-4.62553e-13
-4.52625e-13
-4.42807e-13
-4.36691e-13
-4.3034e-13
-4.27896e-13
-4.22833e-13
-4.151e-13
-4.04801e-13
-3.94562e-13
-3.85992e-13
-3.7952e-13
-3.73623e-13
-3.6324e-13
-3.55304e-13
-3.46729e-13
-3.38736e-13
-3.31533e-13
-3.24605e-13
-3.1533e-13
-3.12333e-13
-3.10357e-13
-3.04336e-13
-2.95907e-13
-2.86145e-13
-2.79353e-13
-2.73666e-13
-2.67774e-13
-2.59812e-13
-2.52099e-13
-2.43283e-13
-2.36227e-13
-2.27752e-13
-2.20254e-13
-2.12588e-13
-2.03837e-13
-1.97995e-13
-1.92505e-13
-1.86287e-13
-1.80485e-13
-1.73372e-13
-1.63353e-13
-1.53923e-13
-1.47523e-13
-1.38634e-13
-1.28002e-13
-1.21404e-13
-1.14924e-13
-1.09495e-13
-1.02351e-13
-9.36815e-14
-8.66872e-14
-7.99228e-14
-7.4826e-14
-6.95005e-14
-6.23044e-14
-5.37775e-14
-4.42696e-14
-3.48035e-14
-2.8188e-14
-1.9649e-14
-1.35141e-14
-4.54074e-15
-6.71213e-13
-6.72168e-13
-6.71975e-13
-6.69665e-13
-6.73758e-13
-6.69454e-13
-6.6767e-13
-6.6565e-13
-6.63647e-13
-6.58659e-13
-6.526e-13
-6.45206e-13
-6.39259e-13
-6.3459e-13
-6.32243e-13
-6.25212e-13
-6.14801e-13
-6.08971e-13
-6.04889e-13
-5.97421e-13
-5.89866e-13
-5.83054e-13
-5.74673e-13
-5.64066e-13
-5.56827e-13
-5.52726e-13
-5.47872e-13
-5.41974e-13
-5.32253e-13
-5.23959e-13
-5.16291e-13
-5.07693e-13
-4.99691e-13
-4.92741e-13
-4.84903e-13
-4.81688e-13
-4.73085e-13
-4.61775e-13
-4.53429e-13
-4.44262e-13
-4.38437e-13
-4.33309e-13
-4.27658e-13
-4.21047e-13
-4.11937e-13
-4.02666e-13
-3.94554e-13
-3.88376e-13
-3.7971e-13
-3.69422e-13
-3.60746e-13
-3.54366e-13
-3.47656e-13
-3.41787e-13
-3.3131e-13
-3.25053e-13
-3.16931e-13
-3.11485e-13
-3.09562e-13
-3.03199e-13
-2.95294e-13
-2.87619e-13
-2.81817e-13
-2.754e-13
-2.67651e-13
-2.59067e-13
-2.51723e-13
-2.43339e-13
-2.3658e-13
-2.29318e-13
-2.22666e-13
-2.14735e-13
-2.06014e-13
-1.98738e-13
-1.92213e-13
-1.85326e-13
-1.79932e-13
-1.73138e-13
-1.63172e-13
-1.54369e-13
-1.46922e-13
-1.39174e-13
-1.29346e-13
-1.20724e-13
-1.14674e-13
-1.07988e-13
-1.0101e-13
-9.30156e-14
-8.53858e-14
-8.01808e-14
-7.6202e-14
-7.04313e-14
-6.33733e-14
-5.25556e-14
-4.37756e-14
-3.68354e-14
-2.94012e-14
-1.97629e-14
-1.20615e-14
-4.3818e-15
-6.71594e-13
-6.74568e-13
-6.72112e-13
-6.69324e-13
-6.6769e-13
-6.69616e-13
-6.69584e-13
-6.67602e-13
-6.62776e-13
-6.57369e-13
-6.50912e-13
-6.46628e-13
-6.3887e-13
-6.33605e-13
-6.31446e-13
-6.26708e-13
-6.19288e-13
-6.11649e-13
-6.03205e-13
-5.94708e-13
-5.89798e-13
-5.82658e-13
-5.71462e-13
-5.63353e-13
-5.59434e-13
-5.53971e-13
-5.48568e-13
-5.40921e-13
-5.34149e-13
-5.25729e-13
-5.16678e-13
-5.08369e-13
-4.99729e-13
-4.93064e-13
-4.8634e-13
-4.81409e-13
-4.71851e-13
-4.61858e-13
-4.52289e-13
-4.44417e-13
-4.384e-13
-4.3466e-13
-4.27713e-13
-4.19662e-13
-4.10647e-13
-4.00637e-13
-3.9365e-13
-3.87328e-13
-3.79203e-13
-3.71981e-13
-3.62867e-13
-3.55554e-13
-3.47919e-13
-3.41733e-13
-3.31487e-13
-3.2434e-13
-3.17926e-13
-3.11999e-13
-3.08542e-13
-3.02324e-13
-2.95752e-13
-2.88081e-13
-2.80667e-13
-2.7509e-13
-2.6899e-13
-2.62045e-13
-2.54745e-13
-2.44104e-13
-2.36421e-13
-2.27455e-13
-2.20183e-13
-2.13181e-13
-2.06226e-13
-1.98827e-13
-1.89711e-13
-1.82933e-13
-1.79225e-13
-1.72663e-13
-1.65065e-13
-1.55662e-13
-1.48384e-13
-1.40739e-13
-1.28999e-13
-1.1985e-13
-1.12361e-13
-1.05851e-13
-1.01215e-13
-9.49838e-14
-8.68729e-14
-8.12459e-14
-7.55006e-14
-7.00998e-14
-6.20561e-14
-5.49051e-14
-4.6487e-14
-3.68993e-14
-2.91002e-14
-2.14848e-14
-1.16304e-14
-2.53233e-15
-6.692e-13
-6.75511e-13
-6.73129e-13
-6.67259e-13
-6.70851e-13
-6.72902e-13
-6.7084e-13
-6.67177e-13
-6.60796e-13
-6.51902e-13
-6.49035e-13
-6.46288e-13
-6.42661e-13
-6.34645e-13
-6.29701e-13
-6.27821e-13
-6.19772e-13
-6.13266e-13
-6.06578e-13
-5.97334e-13
-5.88133e-13
-5.78489e-13
-5.65173e-13
-5.61247e-13
-5.59885e-13
-5.56754e-13
-5.48969e-13
-5.40682e-13
-5.33497e-13
-5.27353e-13
-5.17512e-13
-5.0874e-13
-5.00386e-13
-4.94483e-13
-4.89505e-13
-4.80421e-13
-4.70849e-13
-4.61876e-13
-4.51863e-13
-4.45702e-13
-4.39976e-13
-4.35146e-13
-4.26569e-13
-4.19974e-13
-4.10613e-13
-3.99785e-13
-3.91561e-13
-3.84935e-13
-3.79515e-13
-3.71872e-13
-3.63878e-13
-3.55157e-13
-3.47047e-13
-3.40067e-13
-3.3089e-13
-3.25272e-13
-3.1936e-13
-3.12752e-13
-3.07535e-13
-3.02441e-13
-2.97603e-13
-2.89197e-13
-2.8119e-13
-2.74694e-13
-2.66512e-13
-2.60726e-13
-2.55098e-13
-2.45075e-13
-2.37309e-13
-2.29194e-13
-2.20778e-13
-2.13136e-13
-2.07358e-13
-1.99702e-13
-1.9124e-13
-1.84771e-13
-1.78793e-13
-1.70508e-13
-1.64255e-13
-1.56914e-13
-1.49765e-13
-1.40255e-13
-1.2759e-13
-1.18519e-13
-1.133e-13
-1.07378e-13
-1.0205e-13
-9.3448e-14
-8.60724e-14
-8.07991e-14
-7.5306e-14
-7.03754e-14
-6.07969e-14
-5.3847e-14
-4.58656e-14
-3.89919e-14
-2.97786e-14
-2.11619e-14
-1.05376e-14
-2.0776e-15
-6.72543e-13
-6.72805e-13
-6.73094e-13
-6.70503e-13
-6.69187e-13
-6.7138e-13
-6.69596e-13
-6.65592e-13
-6.5973e-13
-6.5245e-13
-6.4614e-13
-6.45597e-13
-6.43983e-13
-6.35443e-13
-6.30413e-13
-6.26397e-13
-6.23669e-13
-6.17406e-13
-6.04923e-13
-5.92317e-13
-5.79654e-13
-5.74803e-13
-5.72163e-13
-5.68854e-13
-5.62627e-13
-5.56072e-13
-5.47658e-13
-5.40006e-13
-5.34417e-13
-5.28882e-13
-5.19183e-13
-5.07587e-13
-5.00758e-13
-4.92472e-13
-4.8607e-13
-4.78632e-13
-4.71751e-13
-4.6534e-13
-4.55398e-13
-4.45032e-13
-4.36971e-13
-4.31331e-13
-4.25454e-13
-4.202e-13
-4.12362e-13
-4.02844e-13
-3.92988e-13
-3.8442e-13
-3.77292e-13
-3.71966e-13
-3.64619e-13
-3.57634e-13
-3.49138e-13
-3.4001e-13
-3.32301e-13
-3.25873e-13
-3.1886e-13
-3.09524e-13
-3.05222e-13
-3.02247e-13
-3.00705e-13
-2.92786e-13
-2.8288e-13
-2.72995e-13
-2.64599e-13
-2.57928e-13
-2.50979e-13
-2.42369e-13
-2.34373e-13
-2.28709e-13
-2.25594e-13
-2.17129e-13
-2.08189e-13
-2.01734e-13
-1.92829e-13
-1.83487e-13
-1.75881e-13
-1.67711e-13
-1.61701e-13
-1.5611e-13
-1.49394e-13
-1.39721e-13
-1.30486e-13
-1.22123e-13
-1.15518e-13
-1.05795e-13
-1.00404e-13
-9.42588e-14
-8.67567e-14
-8.19261e-14
-7.49732e-14
-6.68525e-14
-6.06173e-14
-5.32376e-14
-4.53101e-14
-3.75477e-14
-2.99965e-14
-2.01052e-14
-1.10498e-14
-3.48601e-15
-6.71261e-13
-6.70901e-13
-6.70124e-13
-6.71887e-13
-6.73087e-13
-6.72357e-13
-6.68807e-13
-6.64453e-13
-6.58142e-13
-6.53347e-13
-6.48882e-13
-6.44625e-13
-6.41463e-13
-6.34254e-13
-6.31046e-13
-6.26763e-13
-6.23689e-13
-6.17147e-13
-6.02089e-13
-5.93544e-13
-5.88627e-13
-5.81973e-13
-5.7234e-13
-5.63728e-13
-5.60473e-13
-5.53807e-13
-5.45348e-13
-5.39385e-13
-5.33111e-13
-5.26885e-13
-5.19931e-13
-5.10784e-13
-5.0421e-13
-4.96998e-13
-4.87176e-13
-4.78359e-13
-4.70412e-13
-4.6198e-13
-4.54343e-13
-4.44981e-13
-4.3776e-13
-4.33263e-13
-4.2626e-13
-4.22014e-13
-4.15314e-13
-4.03172e-13
-3.90331e-13
-3.79166e-13
-3.76356e-13
-3.7286e-13
-3.6769e-13
-3.60289e-13
-3.49296e-13
-3.40414e-13
-3.30569e-13
-3.24307e-13
-3.18919e-13
-3.13471e-13
-3.06368e-13
-3.00929e-13
-2.98189e-13
-2.91191e-13
-2.83551e-13
-2.75421e-13
-2.67757e-13
-2.59509e-13
-2.51812e-13
-2.43265e-13
-2.37253e-13
-2.30288e-13
-2.23092e-13
-2.17256e-13
-2.06982e-13
-1.96133e-13
-1.89268e-13
-1.83763e-13
-1.78202e-13
-1.70433e-13
-1.64389e-13
-1.5825e-13
-1.49804e-13
-1.39725e-13
-1.2842e-13
-1.18506e-13
-1.10571e-13
-1.05561e-13
-1.01348e-13
-9.5525e-14
-8.80762e-14
-8.10465e-14
-7.33355e-14
-6.64286e-14
-6.07773e-14
-5.4285e-14
-4.43237e-14
-3.63454e-14
-2.93268e-14
-2.11489e-14
-1.20772e-14
-2.60407e-15
-6.7267e-13
-6.74124e-13
-6.70969e-13
-6.67537e-13
-6.69168e-13
-6.70788e-13
-6.69854e-13
-6.64387e-13
-6.5601e-13
-6.54214e-13
-6.49784e-13
-6.42734e-13
-6.37908e-13
-6.34818e-13
-6.32502e-13
-6.28487e-13
-6.23373e-13
-6.15695e-13
-6.05459e-13
-5.9472e-13
-5.86901e-13
-5.7969e-13
-5.75043e-13
-5.69053e-13
-5.61499e-13
-5.52528e-13
-5.44085e-13
-5.39046e-13
-5.35128e-13
-5.2732e-13
-5.20805e-13
-5.12244e-13
-5.02597e-13
-4.93125e-13
-4.86963e-13
-4.79004e-13
-4.69655e-13
-4.61387e-13
-4.54498e-13
-4.48326e-13
-4.4281e-13
-4.35135e-13
-4.23804e-13
-4.16271e-13
-4.10231e-13
-4.02937e-13
-3.9323e-13
-3.84999e-13
-3.7844e-13
-3.71264e-13
-3.64807e-13
-3.58008e-13
-3.48939e-13
-3.40988e-13
-3.33065e-13
-3.27529e-13
-3.20521e-13
-3.13761e-13
-3.07178e-13
-3.0212e-13
-2.96198e-13
-2.888e-13
-2.82281e-13
-2.75039e-13
-2.66122e-13
-2.56928e-13
-2.51152e-13
-2.44085e-13
-2.37e-13
-2.29432e-13
-2.21911e-13
-2.17533e-13
-2.09531e-13
-2.00476e-13
-1.90289e-13
-1.84103e-13
-1.79211e-13
-1.7136e-13
-1.64715e-13
-1.5646e-13
-1.49653e-13
-1.40133e-13
-1.28849e-13
-1.19749e-13
-1.12327e-13
-1.05534e-13
-1.01593e-13
-9.51376e-14
-8.78948e-14
-8.10042e-14
-7.28797e-14
-6.59885e-14
-5.85214e-14
-5.22265e-14
-4.38675e-14
-3.59883e-14
-2.84213e-14
-1.88749e-14
-9.64782e-15
-8.89834e-16
-6.72482e-13
-6.72628e-13
-6.72677e-13
-6.69962e-13
-6.67939e-13
-6.68738e-13
-6.68313e-13
-6.66099e-13
-6.61013e-13
-6.52123e-13
-6.45814e-13
-6.40439e-13
-6.38288e-13
-6.3681e-13
-6.33626e-13
-6.27996e-13
-6.20891e-13
-6.16711e-13
-6.09953e-13
-5.97418e-13
-5.87133e-13
-5.77313e-13
-5.71699e-13
-5.65621e-13
-5.62011e-13
-5.5654e-13
-5.47518e-13
-5.40884e-13
-5.34701e-13
-5.2771e-13
-5.20668e-13
-5.12355e-13
-5.0278e-13
-4.92151e-13
-4.8464e-13
-4.77762e-13
-4.71704e-13
-4.61976e-13
-4.55837e-13
-4.48951e-13
-4.40536e-13
-4.31207e-13
-4.22759e-13
-4.16366e-13
-4.12091e-13
-4.06295e-13
-3.95815e-13
-3.86065e-13
-3.78299e-13
-3.69733e-13
-3.63034e-13
-3.57649e-13
-3.49886e-13
-3.42078e-13
-3.33505e-13
-3.26721e-13
-3.20651e-13
-3.13358e-13
-3.0674e-13
-3.03128e-13
-2.98618e-13
-2.92864e-13
-2.86063e-13
-2.76018e-13
-2.64505e-13
-2.52696e-13
-2.45226e-13
-2.40387e-13
-2.35823e-13
-2.33226e-13
-2.27217e-13
-2.18795e-13
-2.10947e-13
-2.01658e-13
-1.90527e-13
-1.82741e-13
-1.77389e-13
-1.69994e-13
-1.64708e-13
-1.56288e-13
-1.48942e-13
-1.40395e-13
-1.29827e-13
-1.21666e-13
-1.12626e-13
-1.04533e-13
-9.98415e-14
-9.28713e-14
-8.74902e-14
-8.05762e-14
-7.17923e-14
-6.27423e-14
-5.61155e-14
-5.05886e-14
-4.10354e-14
-3.28374e-14
-2.5767e-14
-1.76341e-14
-8.1014e-15
-9.55325e-16
-6.71286e-13
-6.70904e-13
-6.70274e-13
-6.71256e-13
-6.71112e-13
-6.67492e-13
-6.65836e-13
-6.63455e-13
-6.59304e-13
-6.55384e-13
-6.46882e-13
-6.3963e-13
-6.38526e-13
-6.38484e-13
-6.34211e-13
-6.2958e-13
-6.20853e-13
-6.14493e-13
-6.08551e-13
-5.98628e-13
-5.90399e-13
-5.78194e-13
-5.69609e-13
-5.6517e-13
-5.60506e-13
-5.54764e-13
-5.487e-13
-5.41834e-13
-5.36004e-13
-5.28244e-13
-5.20047e-13
-5.11305e-13
-5.02148e-13
-4.93445e-13
-4.87377e-13
-4.79248e-13
-4.70789e-13
-4.61825e-13
-4.55911e-13
-4.47697e-13
-4.40724e-13
-4.31372e-13
-4.23519e-13
-4.1881e-13
-4.13683e-13
-4.05164e-13
-3.93645e-13
-3.83441e-13
-3.76499e-13
-3.68974e-13
-3.65042e-13
-3.59115e-13
-3.49068e-13
-3.41762e-13
-3.33225e-13
-3.28827e-13
-3.22413e-13
-3.15179e-13
-3.06714e-13
-2.99e-13
-2.95442e-13
-2.87867e-13
-2.82984e-13
-2.77463e-13
-2.6577e-13
-2.54212e-13
-2.46152e-13
-2.39969e-13
-2.35626e-13
-2.3513e-13
-2.2825e-13
-2.2028e-13
-2.1116e-13
-2.0119e-13
-1.89317e-13
-1.79972e-13
-1.76992e-13
-1.72193e-13
-1.67098e-13
-1.58233e-13
-1.50833e-13
-1.42441e-13
-1.29459e-13
-1.19637e-13
-1.0927e-13
-1.00302e-13
-9.95915e-14
-9.52211e-14
-8.74758e-14
-7.99792e-14
-7.01242e-14
-6.22328e-14
-5.53869e-14
-4.85575e-14
-4.1986e-14
-3.45299e-14
-2.33245e-14
-1.20787e-14
-2.92129e-15
-1.6455e-15
-6.72825e-13
-6.716e-13
-6.70337e-13
-6.71119e-13
-6.70204e-13
-6.66404e-13
-6.66539e-13
-6.63975e-13
-6.58525e-13
-6.53204e-13
-6.48032e-13
-6.41992e-13
-6.35899e-13
-6.33642e-13
-6.31848e-13
-6.26375e-13
-6.22796e-13
-6.18045e-13
-6.1041e-13
-5.99094e-13
-5.89705e-13
-5.83019e-13
-5.74007e-13
-5.65394e-13
-5.60133e-13
-5.51551e-13
-5.46581e-13
-5.42079e-13
-5.36885e-13
-5.29767e-13
-5.20718e-13
-5.11275e-13
-5.01139e-13
-4.91728e-13
-4.85675e-13
-4.77923e-13
-4.7206e-13
-4.64032e-13
-4.57844e-13
-4.47157e-13
-4.3925e-13
-4.29043e-13
-4.23498e-13
-4.20206e-13
-4.12821e-13
-4.05088e-13
-3.94512e-13
-3.85286e-13
-3.77221e-13
-3.68306e-13
-3.62383e-13
-3.57797e-13
-3.49513e-13
-3.4359e-13
-3.3643e-13
-3.27981e-13
-3.21426e-13
-3.13938e-13
-3.05972e-13
-3.00328e-13
-2.9688e-13
-2.94521e-13
-2.85552e-13
-2.75461e-13
-2.61481e-13
-2.5282e-13
-2.46364e-13
-2.41412e-13
-2.354e-13
-2.31745e-13
-2.2542e-13
-2.22081e-13
-2.15564e-13
-2.04454e-13
-1.89167e-13
-1.75995e-13
-1.71854e-13
-1.72175e-13
-1.68096e-13
-1.58289e-13
-1.50087e-13
-1.40994e-13
-1.3069e-13
-1.21576e-13
-1.11724e-13
-1.02213e-13
-9.55658e-14
-9.26906e-14
-8.61696e-14
-7.82116e-14
-6.8173e-14
-6.17616e-14
-5.51678e-14
-4.74008e-14
-3.93131e-14
-3.25377e-14
-2.21201e-14
-1.22935e-14
-4.65486e-15
-1.54376e-15
-6.71097e-13
-6.706e-13
-6.65647e-13
-6.71654e-13
-6.71286e-13
-6.69181e-13
-6.64406e-13
-6.6011e-13
-6.56372e-13
-6.50207e-13
-6.46583e-13
-6.42967e-13
-6.41021e-13
-6.36241e-13
-6.33012e-13
-6.29238e-13
-6.24074e-13
-6.1849e-13
-6.10795e-13
-5.99462e-13
-5.85962e-13
-5.75515e-13
-5.68622e-13
-5.65185e-13
-5.59514e-13
-5.54675e-13
-5.47349e-13
-5.42124e-13
-5.37661e-13
-5.31384e-13
-5.22709e-13
-5.11336e-13
-5.02513e-13
-4.94482e-13
-4.8837e-13
-4.79218e-13
-4.69946e-13
-4.63748e-13
-4.56659e-13
-4.46847e-13
-4.37639e-13
-4.3212e-13
-4.26044e-13
-4.19549e-13
-4.10083e-13
-4.00584e-13
-3.92584e-13
-3.85088e-13
-3.7783e-13
-3.70973e-13
-3.64225e-13
-3.57983e-13
-3.4801e-13
-3.39941e-13
-3.37873e-13
-3.3556e-13
-3.23072e-13
-3.10917e-13
-3.027e-13
-2.96238e-13
-2.9266e-13
-2.88714e-13
-2.85827e-13
-2.775e-13
-2.64331e-13
-2.56443e-13
-2.45022e-13
-2.41932e-13
-2.35757e-13
-2.30177e-13
-2.24932e-13
-2.22686e-13
-2.15501e-13
-2.03171e-13
-1.90042e-13
-1.78695e-13
-1.73669e-13
-1.73347e-13
-1.6483e-13
-1.55704e-13
-1.48825e-13
-1.40853e-13
-1.3237e-13
-1.22541e-13
-1.12367e-13
-1.01823e-13
-9.50258e-14
-9.22401e-14
-8.45019e-14
-7.63613e-14
-6.81227e-14
-6.07115e-14
-5.27472e-14
-4.61161e-14
-4.00691e-14
-3.18443e-14
-2.16944e-14
-1.31127e-14
-3.67661e-15
-6.56998e-16
-6.68416e-13
-6.74912e-13
-6.71169e-13
-6.68275e-13
-6.68692e-13
-6.67751e-13
-6.63771e-13
-6.62798e-13
-6.55963e-13
-6.47247e-13
-6.43932e-13
-6.42942e-13
-6.40404e-13
-6.37819e-13
-6.34282e-13
-6.27056e-13
-6.1835e-13
-6.12917e-13
-6.08929e-13
-6.01148e-13
-5.95192e-13
-5.88096e-13
-5.79057e-13
-5.64879e-13
-5.53663e-13
-5.47393e-13
-5.46889e-13
-5.42416e-13
-5.3727e-13
-5.32493e-13
-5.23574e-13
-5.12735e-13
-5.00315e-13
-4.89599e-13
-4.82814e-13
-4.77429e-13
-4.74327e-13
-4.6792e-13
-4.56517e-13
-4.48812e-13
-4.39231e-13
-4.30473e-13
-4.25069e-13
-4.17808e-13
-4.08747e-13
-3.9971e-13
-3.90652e-13
-3.85462e-13
-3.79706e-13
-3.72192e-13
-3.64741e-13
-3.56243e-13
-3.49452e-13
-3.42192e-13
-3.36673e-13
-3.31054e-13
-3.25081e-13
-3.16648e-13
-3.09157e-13
-2.99799e-13
-2.91655e-13
-2.85158e-13
-2.79495e-13
-2.74269e-13
-2.65469e-13
-2.57755e-13
-2.49172e-13
-2.42492e-13
-2.36334e-13
-2.31219e-13
-2.26499e-13
-2.1894e-13
-2.11407e-13
-2.03238e-13
-1.91798e-13
-1.82067e-13
-1.73482e-13
-1.69333e-13
-1.64141e-13
-1.56286e-13
-1.49653e-13
-1.39544e-13
-1.30838e-13
-1.21215e-13
-1.11283e-13
-1.02389e-13
-9.67307e-14
-9.07487e-14
-8.4626e-14
-7.59742e-14
-6.79976e-14
-6.22412e-14
-5.44249e-14
-4.56824e-14
-3.70718e-14
-2.83426e-14
-2.06826e-14
-1.39923e-14
-5.8189e-15
-1.11227e-15
-6.67691e-13
-6.70587e-13
-6.71642e-13
-6.68891e-13
-6.68551e-13
-6.69155e-13
-6.61825e-13
-6.54627e-13
-6.50883e-13
-6.49911e-13
-6.48388e-13
-6.45656e-13
-6.42426e-13
-6.37985e-13
-6.33421e-13
-6.28054e-13
-6.22846e-13
-6.19377e-13
-6.12288e-13
-5.99981e-13
-5.86401e-13
-5.75445e-13
-5.697e-13
-5.61976e-13
-5.59139e-13
-5.55177e-13
-5.49824e-13
-5.41739e-13
-5.36032e-13
-5.32448e-13
-5.25429e-13
-5.15356e-13
-5.03454e-13
-4.89725e-13
-4.80142e-13
-4.76857e-13
-4.74766e-13
-4.68465e-13
-4.6034e-13
-4.49947e-13
-4.38074e-13
-4.28593e-13
-4.20592e-13
-4.15286e-13
-4.08482e-13
-4.01302e-13
-3.93775e-13
-3.85539e-13
-3.79082e-13
-3.76893e-13
-3.69758e-13
-3.55768e-13
-3.46091e-13
-3.38823e-13
-3.33286e-13
-3.29981e-13
-3.2553e-13
-3.16626e-13
-3.05489e-13
-2.97587e-13
-2.93159e-13
-2.88017e-13
-2.81691e-13
-2.74312e-13
-2.62606e-13
-2.53888e-13
-2.47646e-13
-2.44127e-13
-2.38172e-13
-2.31196e-13
-2.24764e-13
-2.18933e-13
-2.11518e-13
-2.01743e-13
-1.91892e-13
-1.79671e-13
-1.72048e-13
-1.68446e-13
-1.65871e-13
-1.59832e-13
-1.5178e-13
-1.41286e-13
-1.29995e-13
-1.19239e-13
-1.10296e-13
-1.02347e-13
-9.65167e-14
-8.98168e-14
-8.22143e-14
-7.48128e-14
-6.78645e-14
-6.1563e-14
-5.47337e-14
-4.52102e-14
-3.59403e-14
-2.67524e-14
-1.81069e-14
-1.14796e-14
-4.94559e-15
-1.31868e-15
-6.66645e-13
-6.71855e-13
-6.7242e-13
-6.69661e-13
-6.67175e-13
-6.70095e-13
-6.67634e-13
-6.58598e-13
-6.4635e-13
-6.44066e-13
-6.43494e-13
-6.44109e-13
-6.42556e-13
-6.41202e-13
-6.35912e-13
-6.28618e-13
-6.21266e-13
-6.15405e-13
-6.05827e-13
-5.98711e-13
-5.92901e-13
-5.82342e-13
-5.71741e-13
-5.60748e-13
-5.58673e-13
-5.55284e-13
-5.51187e-13
-5.44406e-13
-5.37091e-13
-5.31433e-13
-5.23059e-13
-5.12263e-13
-5.02411e-13
-4.89663e-13
-4.7925e-13
-4.76244e-13
-4.74211e-13
-4.68865e-13
-4.6006e-13
-4.50485e-13
-4.36848e-13
-4.26864e-13
-4.22536e-13
-4.16925e-13
-4.09004e-13
-3.99982e-13
-3.95289e-13
-3.88963e-13
-3.79555e-13
-3.69559e-13
-3.6299e-13
-3.56943e-13
-3.49022e-13
-3.38083e-13
-3.36509e-13
-3.32559e-13
-3.24189e-13
-3.17617e-13
-3.10689e-13
-2.99822e-13
-2.91941e-13
-2.85832e-13
-2.78202e-13
-2.7167e-13
-2.62165e-13
-2.55188e-13
-2.46588e-13
-2.41872e-13
-2.35408e-13
-2.32716e-13
-2.26338e-13
-2.20863e-13
-2.13678e-13
-2.01518e-13
-1.89495e-13
-1.79162e-13
-1.73713e-13
-1.68077e-13
-1.63177e-13
-1.57421e-13
-1.50645e-13
-1.41798e-13
-1.3067e-13
-1.18951e-13
-1.11497e-13
-1.03488e-13
-9.62692e-14
-8.98799e-14
-8.28762e-14
-7.38382e-14
-6.64391e-14
-5.93867e-14
-5.14126e-14
-4.27138e-14
-3.53915e-14
-2.95578e-14
-1.72095e-14
-8.83011e-15
-2.69649e-15
-8.2657e-16
-6.70721e-13
-6.69957e-13
-6.67365e-13
-6.64481e-13
-6.6591e-13
-6.62711e-13
-6.59797e-13
-6.60199e-13
-6.57667e-13
-6.51973e-13
-6.4933e-13
-6.43232e-13
-6.3845e-13
-6.37677e-13
-6.3462e-13
-6.29795e-13
-6.22858e-13
-6.19556e-13
-6.11588e-13
-5.98825e-13
-5.84448e-13
-5.74609e-13
-5.68432e-13
-5.65743e-13
-5.59374e-13
-5.55825e-13
-5.51315e-13
-5.43976e-13
-5.37446e-13
-5.30495e-13
-5.23251e-13
-5.12234e-13
-5.01207e-13
-4.89543e-13
-4.81301e-13
-4.77834e-13
-4.76469e-13
-4.68888e-13
-4.58675e-13
-4.49501e-13
-4.3729e-13
-4.25457e-13
-4.20978e-13
-4.15997e-13
-4.11175e-13
-4.00782e-13
-3.92092e-13
-3.87824e-13
-3.8189e-13
-3.71882e-13
-3.62368e-13
-3.56921e-13
-3.50145e-13
-3.40495e-13
-3.33318e-13
-3.29433e-13
-3.22539e-13
-3.16702e-13
-3.11138e-13
-3.02707e-13
-2.9281e-13
-2.86218e-13
-2.78226e-13
-2.7146e-13
-2.64815e-13
-2.55836e-13
-2.46397e-13
-2.37538e-13
-2.33088e-13
-2.33097e-13
-2.25453e-13
-2.19637e-13
-2.12448e-13
-2.01878e-13
-1.91545e-13
-1.81209e-13
-1.71221e-13
-1.64865e-13
-1.62501e-13
-1.59882e-13
-1.53102e-13
-1.40011e-13
-1.29702e-13
-1.17283e-13
-1.11084e-13
-1.04767e-13
-9.79165e-14
-8.87313e-14
-7.99372e-14
-7.32441e-14
-6.60347e-14
-5.81299e-14
-5.20892e-14
-4.34952e-14
-3.52106e-14
-2.6387e-14
-1.72601e-14
-9.80782e-15
-2.49483e-15
3.23849e-16
-6.70023e-13
-6.69324e-13
-6.67094e-13
-6.65685e-13
-6.6994e-13
-6.6766e-13
-6.59829e-13
-6.55026e-13
-6.5186e-13
-6.49922e-13
-6.48844e-13
-6.47769e-13
-6.39649e-13
-6.34084e-13
-6.31791e-13
-6.27539e-13
-6.24456e-13
-6.18617e-13
-6.09842e-13
-5.97181e-13
-5.8632e-13
-5.75847e-13
-5.67648e-13
-5.65805e-13
-5.63777e-13
-5.55535e-13
-5.48835e-13
-5.43858e-13
-5.40009e-13
-5.31953e-13
-5.24526e-13
-5.12812e-13
-5.00825e-13
-4.89175e-13
-4.79112e-13
-4.76619e-13
-4.72565e-13
-4.68293e-13
-4.61642e-13
-4.5201e-13
-4.39573e-13
-4.28834e-13
-4.20796e-13
-4.11724e-13
-4.08836e-13
-4.01804e-13
-3.94227e-13
-3.84877e-13
-3.77897e-13
-3.72306e-13
-3.6274e-13
-3.56764e-13
-3.50029e-13
-3.41453e-13
-3.37186e-13
-3.31997e-13
-3.21529e-13
-3.1274e-13
-3.08583e-13
-3.01376e-13
-2.93918e-13
-2.85606e-13
-2.79615e-13
-2.73208e-13
-2.6459e-13
-2.54091e-13
-2.47222e-13
-2.37875e-13
-2.30655e-13
-2.28509e-13
-2.24943e-13
-2.19869e-13
-2.13374e-13
-2.01938e-13
-1.91015e-13
-1.81225e-13
-1.72686e-13
-1.65824e-13
-1.63474e-13
-1.58779e-13
-1.51145e-13
-1.40723e-13
-1.3016e-13
-1.18658e-13
-1.10091e-13
-1.00469e-13
-9.43884e-14
-8.99308e-14
-8.30215e-14
-7.32232e-14
-6.48623e-14
-5.70615e-14
-4.98482e-14
-4.21864e-14
-3.38941e-14
-2.69319e-14
-1.82632e-14
-8.65109e-15
-2.14564e-15
-1.16322e-15
-6.66263e-13
-6.68408e-13
-6.68353e-13
-6.66897e-13
-6.66039e-13
-6.61593e-13
-6.59111e-13
-6.56874e-13
-6.55577e-13
-6.53055e-13
-6.49357e-13
-6.46722e-13
-6.41631e-13
-6.35347e-13
-6.30685e-13
-6.25336e-13
-6.22986e-13
-6.17275e-13
-6.07971e-13
-5.9875e-13
-5.86501e-13
-5.76017e-13
-5.7093e-13
-5.66185e-13
-5.58792e-13
-5.53859e-13
-5.51208e-13
-5.46715e-13
-5.39357e-13
-5.29704e-13
-5.21271e-13
-5.11902e-13
-5.00517e-13
-4.9038e-13
-4.81149e-13
-4.79734e-13
-4.77131e-13
-4.68648e-13
-4.58268e-13
-4.46671e-13
-4.37368e-13
-4.30819e-13
-4.2233e-13
-4.12384e-13
-4.06845e-13
-3.98506e-13
-3.95255e-13
-3.92384e-13
-3.81605e-13
-3.69713e-13
-3.60861e-13
-3.57484e-13
-3.50703e-13
-3.40776e-13
-3.35719e-13
-3.30797e-13
-3.23644e-13
-3.1405e-13
-3.07053e-13
-2.99912e-13
-2.96212e-13
-2.88289e-13
-2.79706e-13
-2.71847e-13
-2.61709e-13
-2.53591e-13
-2.45579e-13
-2.39009e-13
-2.31483e-13
-2.2664e-13
-2.2183e-13
-2.2045e-13
-2.14271e-13
-2.01784e-13
-1.90796e-13
-1.80849e-13
-1.73977e-13
-1.67644e-13
-1.60322e-13
-1.52342e-13
-1.52047e-13
-1.4561e-13
-1.30624e-13
-1.18383e-13
-1.08763e-13
-9.93552e-14
-9.28529e-14
-8.86526e-14
-8.23067e-14
-7.2922e-14
-6.43293e-14
-5.77906e-14
-4.98872e-14
-4.10261e-14
-3.51099e-14
-2.56247e-14
-1.65254e-14
-7.66971e-15
-1.41937e-15
-1.56379e-15
-6.70392e-13
-6.68856e-13
-6.67604e-13
-6.65355e-13
-6.61953e-13
-6.6029e-13
-6.58049e-13
-6.57895e-13
-6.56216e-13
-6.53102e-13
-6.48261e-13
-6.45992e-13
-6.41905e-13
-6.37242e-13
-6.31585e-13
-6.24379e-13
-6.17356e-13
-6.12177e-13
-6.07753e-13
-6.01206e-13
-5.88414e-13
-5.78748e-13
-5.71414e-13
-5.64421e-13
-5.59571e-13
-5.55222e-13
-5.51639e-13
-5.4724e-13
-5.38002e-13
-5.31118e-13
-5.2183e-13
-5.10795e-13
-5.00035e-13
-4.88662e-13
-4.82895e-13
-4.79183e-13
-4.74767e-13
-4.67687e-13
-4.57976e-13
-4.47853e-13
-4.37676e-13
-4.2829e-13
-4.22358e-13
-4.15262e-13
-4.09443e-13
-4.01932e-13
-3.9295e-13
-3.85497e-13
-3.8042e-13
-3.72809e-13
-3.6573e-13
-3.57336e-13
-3.49051e-13
-3.41043e-13
-3.34853e-13
-3.27223e-13
-3.22928e-13
-3.1584e-13
-3.07455e-13
-3.00307e-13
-2.96399e-13
-2.89264e-13
-2.79827e-13
-2.70373e-13
-2.62438e-13
-2.54399e-13
-2.45291e-13
-2.37505e-13
-2.31358e-13
-2.26454e-13
-2.22663e-13
-2.20703e-13
-2.13286e-13
-1.99967e-13
-1.90183e-13
-1.80875e-13
-1.73207e-13
-1.66431e-13
-1.61831e-13
-1.56154e-13
-1.49008e-13
-1.41159e-13
-1.30758e-13
-1.20514e-13
-1.11875e-13
-9.98757e-14
-9.19652e-14
-8.62449e-14
-8.15826e-14
-7.05621e-14
-6.23845e-14
-5.70135e-14
-5.20933e-14
-4.15125e-14
-3.19295e-14
-2.50208e-14
-1.75873e-14
-6.39908e-15
-2.42374e-15
-1.89261e-15
-6.71885e-13
-6.68054e-13
-6.64121e-13
-6.64371e-13
-6.59281e-13
-6.5962e-13
-6.58209e-13
-6.586e-13
-6.58034e-13
-6.51806e-13
-6.48023e-13
-6.46475e-13
-6.4457e-13
-6.38258e-13
-6.31367e-13
-6.25862e-13
-6.2039e-13
-6.12859e-13
-6.06403e-13
-5.96234e-13
-5.88387e-13
-5.79161e-13
-5.69054e-13
-5.62755e-13
-5.58212e-13
-5.57739e-13
-5.52158e-13
-5.46112e-13
-5.37758e-13
-5.30265e-13
-5.21766e-13
-5.12245e-13
-4.99683e-13
-4.90781e-13
-4.81537e-13
-4.76604e-13
-4.73427e-13
-4.6735e-13
-4.58003e-13
-4.47938e-13
-4.39784e-13
-4.30216e-13
-4.21068e-13
-4.14053e-13
-4.07957e-13
-4.00913e-13
-3.93123e-13
-3.87532e-13
-3.82152e-13
-3.7348e-13
-3.63458e-13
-3.54215e-13
-3.48333e-13
-3.42724e-13
-3.36435e-13
-3.30389e-13
-3.23077e-13
-3.14817e-13
-3.09304e-13
-3.03301e-13
-2.97175e-13
-2.88037e-13
-2.77116e-13
-2.69407e-13
-2.61156e-13
-2.5267e-13
-2.44186e-13
-2.38348e-13
-2.31089e-13
-2.28952e-13
-2.23617e-13
-2.17632e-13
-2.08195e-13
-1.98332e-13
-1.88947e-13
-1.79452e-13
-1.75117e-13
-1.70884e-13
-1.62331e-13
-1.54167e-13
-1.47069e-13
-1.39062e-13
-1.29603e-13
-1.19536e-13
-1.08678e-13
-9.74866e-14
-9.20624e-14
-8.75375e-14
-8.01419e-14
-7.3961e-14
-6.71838e-14
-5.67327e-14
-4.81003e-14
-3.97907e-14
-3.18848e-14
-2.32915e-14
-1.57456e-14
-9.91005e-15
-4.72862e-15
-2.33154e-15
-6.70298e-13
-6.66517e-13
-6.65416e-13
-6.63623e-13
-6.61861e-13
-6.5945e-13
-6.55895e-13
-6.58049e-13
-6.57689e-13
-6.5398e-13
-6.49197e-13
-6.44943e-13
-6.44174e-13
-6.3686e-13
-6.29406e-13
-6.22467e-13
-6.16021e-13
-6.1226e-13
-6.06635e-13
-5.97743e-13
-5.89649e-13
-5.80605e-13
-5.70682e-13
-5.65172e-13
-5.61442e-13
-5.55311e-13
-5.49347e-13
-5.42666e-13
-5.34832e-13
-5.30105e-13
-5.22445e-13
-5.1566e-13
-5.04958e-13
-4.94669e-13
-4.80107e-13
-4.74291e-13
-4.70784e-13
-4.65571e-13
-4.57184e-13
-4.47369e-13
-4.40641e-13
-4.30255e-13
-4.2266e-13
-4.12683e-13
-4.08129e-13
-4.01535e-13
-3.96348e-13
-3.88404e-13
-3.79217e-13
-3.6837e-13
-3.62729e-13
-3.58263e-13
-3.507e-13
-3.39541e-13
-3.32876e-13
-3.26657e-13
-3.19775e-13
-3.16747e-13
-3.0918e-13
-3.05176e-13
-3.03252e-13
-2.86786e-13
-2.75594e-13
-2.70073e-13
-2.63109e-13
-2.54233e-13
-2.45812e-13
-2.38898e-13
-2.29471e-13
-2.25066e-13
-2.20588e-13
-2.18509e-13
-2.11254e-13
-2.00267e-13
-1.87087e-13
-1.76423e-13
-1.74526e-13
-1.69765e-13
-1.61846e-13
-1.55043e-13
-1.47566e-13
-1.39134e-13
-1.28789e-13
-1.18509e-13
-1.09364e-13
-9.87218e-14
-9.12974e-14
-8.69158e-14
-8.05625e-14
-7.02676e-14
-6.29821e-14
-5.63853e-14
-4.85249e-14
-3.98204e-14
-3.42849e-14
-2.72979e-14
-1.60098e-14
-7.79016e-15
-1.63148e-15
-1.3359e-15
-6.66313e-13
-6.67801e-13
-6.67705e-13
-6.63031e-13
-6.59795e-13
-6.60174e-13
-6.58875e-13
-6.5578e-13
-6.5594e-13
-6.53019e-13
-6.50663e-13
-6.47862e-13
-6.42423e-13
-6.35584e-13
-6.29913e-13
-6.24516e-13
-6.21115e-13
-6.16447e-13
-6.08293e-13
-5.96421e-13
-5.83645e-13
-5.73269e-13
-5.68546e-13
-5.66853e-13
-5.62576e-13
-5.55311e-13
-5.46882e-13
-5.41996e-13
-5.34204e-13
-5.30549e-13
-5.24622e-13
-5.13144e-13
-5.01949e-13
-4.93565e-13
-4.84781e-13
-4.78336e-13
-4.71915e-13
-4.64376e-13
-4.56533e-13
-4.47859e-13
-4.39316e-13
-4.29765e-13
-4.20495e-13
-4.14742e-13
-4.11272e-13
-4.02676e-13
-3.94601e-13
-3.84647e-13
-3.79918e-13
-3.72835e-13
-3.62149e-13
-3.56962e-13
-3.49742e-13
-3.41505e-13
-3.34856e-13
-3.2439e-13
-3.15142e-13
-3.15099e-13
-3.15002e-13
-3.06352e-13
-2.97635e-13