/*--------------------------------*- C++ -*----------------------------------*\
| =========                 |                                                 |
| \\      /  F ield         | OpenFOAM: The Open Source CFD Toolbox           |
|  \\    /   O peration     | Version:  v2012                                 |
|   \\  /    A nd           | Website:  www.openfoam.com                      |
|    \\/     M anipulation  |                                                 |
\*---------------------------------------------------------------------------*/
FoamFile
{
    version     2.0;
    format      ascii;
    class       volVectorField;
    location    "70";
    object      Usup;
}
// * * * * * * * * * * * * * * * * * * * * * * * * * * * * * * * * * * * * * //

dimensions      [0 1 -1 0 0 0 0];


internalField   nonuniform List<vector> 
4000
(
(-4.56781e-16 -3.15104e-16 0)
(-1.04806e-15 -2.47108e-17 0)
(-1.46238e-15 3.16221e-16 0)
(-2.03726e-15 2.5095e-16 0)
(-2.90948e-15 2.17893e-16 0)
(-3.76081e-15 1.49494e-16 0)
(-4.25785e-15 3.10527e-16 0)
(-4.99039e-15 5.75531e-16 0)
(-5.56802e-15 7.63475e-16 0)
(-5.73958e-15 4.1982e-16 0)
(-6.32997e-15 2.18993e-16 0)
(-7.11533e-15 3.69211e-16 0)
(-7.37766e-15 7.75359e-16 0)
(-7.41886e-15 1.35383e-15 0)
(-7.12814e-15 1.45569e-15 0)
(-7.11313e-15 1.25314e-15 0)
(-7.947e-15 1.08795e-15 0)
(-8.83124e-15 1.09635e-15 0)
(-9.87309e-15 9.02148e-16 0)
(-1.08447e-14 1.01319e-15 0)
(-1.09379e-14 1.01107e-15 0)
(-1.0451e-14 9.95802e-16 0)
(-9.98506e-15 8.64895e-16 0)
(-9.8228e-15 8.25976e-16 0)
(-9.69278e-15 7.22017e-16 0)
(-9.37359e-15 6.66287e-16 0)
(-9.95585e-15 2.34805e-16 0)
(-1.05721e-14 4.67407e-16 0)
(-9.97882e-15 6.06164e-16 0)
(-9.59382e-15 3.36524e-16 0)
(-9.28047e-15 7.73335e-16 0)
(-8.24754e-15 6.2811e-16 0)
(-7.4625e-15 2.6678e-16 0)
(-7.27296e-15 -2.85878e-17 0)
(-7.32187e-15 -3.64756e-16 0)
(-7.21877e-15 -2.77613e-16 0)
(-7.07531e-15 -3.00723e-16 0)
(-6.69529e-15 5.57864e-17 0)
(-5.55967e-15 1.2893e-16 0)
(-4.69992e-15 -4.57741e-16 0)
(-4.67394e-15 -8.67954e-16 0)
(-5.02458e-15 -1.01854e-15 0)
(-5.02596e-15 -9.92768e-16 0)
(-4.76534e-15 -1.01173e-15 0)
(-4.96865e-15 -1.06295e-15 0)
(-4.93637e-15 -1.18286e-15 0)
(-4.37303e-15 -1.51894e-15 0)
(-3.94787e-15 -1.75037e-15 0)
(-4.00408e-15 -1.8204e-15 0)
(-3.82148e-15 -1.91837e-15 0)
(-3.64475e-15 -1.93966e-15 0)
(-4.15465e-15 -1.85697e-15 0)
(-4.67041e-15 -1.79363e-15 0)
(-4.7098e-15 -1.87608e-15 0)
(-4.5821e-15 -1.92486e-15 0)
(-4.02749e-15 -1.36295e-15 0)
(-3.33394e-15 -1.39982e-15 0)
(-3.49206e-15 -1.42265e-15 0)
(-3.74462e-15 -1.55565e-15 0)
(-3.81448e-15 -1.72702e-15 0)
(-4.08379e-15 -1.73306e-15 0)
(-4.13089e-15 -1.4947e-15 0)
(-3.83941e-15 -1.05263e-15 0)
(-3.78894e-15 -1.15044e-15 0)
(-4.01872e-15 -1.25507e-15 0)
(-3.98313e-15 -1.2878e-15 0)
(-3.89983e-15 -1.06238e-15 0)
(-4.15599e-15 -9.486e-16 0)
(-4.52358e-15 -8.50951e-16 0)
(-4.75239e-15 -6.31032e-16 0)
(-4.62691e-15 -5.9377e-16 0)
(-4.59273e-15 -5.55727e-16 0)
(-4.93246e-15 -4.56984e-16 0)
(-5.00573e-15 2.85666e-17 0)
(-4.50856e-15 2.05424e-16 0)
(-4.37375e-15 3.27223e-17 0)
(-4.69277e-15 1.96223e-17 0)
(-5.00018e-15 -8.44411e-18 0)
(-5.78244e-15 -6.34284e-17 0)
(-6.27704e-15 3.08338e-16 0)
(-6.1887e-15 5.05695e-16 0)
(-6.24814e-15 3.38022e-16 0)
(-6.45592e-15 2.62483e-16 0)
(-6.19713e-15 3.9821e-16 0)
(-5.57747e-15 2.65788e-16 0)
(-5.38267e-15 7.4362e-17 0)
(-5.35904e-15 1.37483e-16 0)
(-4.94463e-15 2.76832e-16 0)
(-4.35687e-15 -4.53977e-17 0)
(-4.11836e-15 -2.73428e-16 0)
(-3.95609e-15 1.89995e-16 0)
(-3.29295e-15 5.97105e-16 0)
(-2.9118e-15 2.41445e-16 0)
(-3.02566e-15 -2.07872e-16 0)
(-2.97449e-15 -3.45054e-16 0)
(-2.86857e-15 -1.27115e-16 0)
(-2.48064e-15 1.14017e-16 0)
(-1.72994e-15 2.40366e-16 0)
(-8.88517e-16 3.21668e-16 0)
(-3.19826e-16 1.64994e-16 0)
(-8.32167e-16 -5.17901e-16 0)
(-2.33306e-15 -1.0065e-16 0)
(-4.15934e-15 5.31119e-16 0)
(-6.21547e-15 6.3176e-16 0)
(-8.5163e-15 6.60071e-16 0)
(-1.0621e-14 6.56907e-16 0)
(-1.20055e-14 9.96038e-16 0)
(-1.39131e-14 1.41037e-15 0)
(-1.59541e-14 1.63188e-15 0)
(-1.71321e-14 1.42099e-15 0)
(-1.83291e-14 1.06551e-15 0)
(-1.97198e-14 1.491e-15 0)
(-2.02597e-14 2.49395e-15 0)
(-2.07833e-14 3.52613e-15 0)
(-2.10798e-14 4.11602e-15 0)
(-2.16096e-14 3.8421e-15 0)
(-2.34145e-14 3.14721e-15 0)
(-2.56957e-14 2.94173e-15 0)
(-2.81468e-14 2.74614e-15 0)
(-3.0204e-14 2.87644e-15 0)
(-3.07129e-14 2.89805e-15 0)
(-2.99444e-14 2.98645e-15 0)
(-2.8994e-14 2.74042e-15 0)
(-2.85101e-14 2.48862e-15 0)
(-2.81676e-14 2.26634e-15 0)
(-2.7894e-14 1.93439e-15 0)
(-2.87265e-14 1.14826e-15 0)
(-2.9331e-14 1.58352e-15 0)
(-2.85597e-14 1.96146e-15 0)
(-2.72925e-14 1.47637e-15 0)
(-2.61094e-14 1.90969e-15 0)
(-2.43608e-14 1.64834e-15 0)
(-2.25773e-14 9.04761e-16 0)
(-2.18199e-14 1.83879e-16 0)
(-2.13344e-14 -6.69449e-16 0)
(-2.0675e-14 -7.1027e-16 0)
(-1.98754e-14 -6.97575e-16 0)
(-1.86219e-14 -1.8219e-16 0)
(-1.67994e-14 -4.86779e-16 0)
(-1.5179e-14 -1.80223e-15 0)
(-1.45105e-14 -2.76178e-15 0)
(-1.46568e-14 -3.10622e-15 0)
(-1.44957e-14 -2.86346e-15 0)
(-1.40531e-14 -2.95796e-15 0)
(-1.43439e-14 -3.30353e-15 0)
(-1.4317e-14 -3.74217e-15 0)
(-1.32095e-14 -4.48964e-15 0)
(-1.2056e-14 -4.96843e-15 0)
(-1.18566e-14 -5.12903e-15 0)
(-1.1435e-14 -5.27115e-15 0)
(-1.10574e-14 -5.59953e-15 0)
(-1.19917e-14 -5.74699e-15 0)
(-1.31478e-14 -5.55441e-15 0)
(-1.33592e-14 -5.65286e-15 0)
(-1.25194e-14 -5.50058e-15 0)
(-1.13096e-14 -4.45911e-15 0)
(-1.03596e-14 -4.3523e-15 0)
(-1.05838e-14 -4.25324e-15 0)
(-1.11664e-14 -4.23409e-15 0)
(-1.13104e-14 -4.89535e-15 0)
(-1.15378e-14 -5.20083e-15 0)
(-1.13112e-14 -4.58044e-15 0)
(-1.10636e-14 -3.80855e-15 0)
(-1.13809e-14 -3.80125e-15 0)
(-1.17459e-14 -3.84054e-15 0)
(-1.15113e-14 -3.60513e-15 0)
(-1.13684e-14 -3.02376e-15 0)
(-1.20497e-14 -2.70105e-15 0)
(-1.27865e-14 -2.39585e-15 0)
(-1.33649e-14 -2.09978e-15 0)
(-1.33919e-14 -1.7945e-15 0)
(-1.33798e-14 -1.81536e-15 0)
(-1.36849e-14 -1.37801e-15 0)
(-1.37548e-14 -1.80609e-16 0)
(-1.33874e-14 2.93054e-16 0)
(-1.33256e-14 1.75357e-16 0)
(-1.39282e-14 1.22682e-16 0)
(-1.48404e-14 1.13674e-16 0)
(-1.62408e-14 1.09034e-16 0)
(-1.72023e-14 8.56456e-16 0)
(-1.76493e-14 1.25431e-15 0)
(-1.80131e-14 1.11543e-15 0)
(-1.80782e-14 7.62902e-16 0)
(-1.74967e-14 1.01608e-15 0)
(-1.6425e-14 8.55614e-16 0)
(-1.5643e-14 5.18756e-16 0)
(-1.50359e-14 7.26129e-16 0)
(-1.42583e-14 6.11415e-16 0)
(-1.31424e-14 6.21668e-17 0)
(-1.17558e-14 -1.81012e-16 0)
(-1.05947e-14 3.75958e-16 0)
(-9.69718e-15 1.11482e-15 0)
(-9.34479e-15 3.38353e-16 0)
(-9.10277e-15 -3.73507e-16 0)
(-8.29774e-15 -6.309e-16 0)
(-7.50169e-15 -3.84058e-16 0)
(-6.41452e-15 1.73834e-16 0)
(-4.60756e-15 5.4605e-16 0)
(-2.63619e-15 7.53862e-16 0)
(-1.10447e-15 2.02239e-16 0)
(-1.2633e-15 -1.63794e-16 0)
(-3.68427e-15 1.76094e-16 0)
(-6.66804e-15 4.51159e-16 0)
(-1.00669e-14 7.13392e-16 0)
(-1.36852e-14 1.00607e-15 0)
(-1.69196e-14 1.28648e-15 0)
(-1.93375e-14 1.80384e-15 0)
(-2.24064e-14 1.84865e-15 0)
(-2.53986e-14 2.39471e-15 0)
(-2.75188e-14 2.64128e-15 0)
(-2.946e-14 2.47036e-15 0)
(-3.11234e-14 3.05103e-15 0)
(-3.21246e-14 4.18679e-15 0)
(-3.31156e-14 5.1897e-15 0)
(-3.40912e-14 6.22096e-15 0)
(-3.58569e-14 6.18642e-15 0)
(-3.86369e-14 5.26091e-15 0)
(-4.15884e-14 4.45787e-15 0)
(-4.49521e-14 4.40721e-15 0)
(-4.78504e-14 4.48382e-15 0)
(-4.8646e-14 4.7794e-15 0)
(-4.78908e-14 4.78019e-15 0)
(-4.69249e-14 4.58641e-15 0)
(-4.62311e-14 4.06304e-15 0)
(-4.5771e-14 3.95077e-15 0)
(-4.55796e-14 3.54207e-15 0)
(-4.62049e-14 2.61034e-15 0)
(-4.6442e-14 2.83657e-15 0)
(-4.56163e-14 3.09922e-15 0)
(-4.39714e-14 2.97217e-15 0)
(-4.20065e-14 3.01312e-15 0)
(-3.9609e-14 2.61043e-15 0)
(-3.72075e-14 1.50964e-15 0)
(-3.5972e-14 2.58515e-16 0)
(-3.48631e-14 -9.64627e-16 0)
(-3.33832e-14 -9.89821e-16 0)
(-3.18582e-14 -9.88935e-16 0)
(-3.01897e-14 -1.1476e-15 0)
(-2.8075e-14 -1.81933e-15 0)
(-2.57815e-14 -3.15165e-15 0)
(-2.43204e-14 -4.40761e-15 0)
(-2.37699e-14 -4.99656e-15 0)
(-2.33825e-14 -4.62484e-15 0)
(-2.31304e-14 -5.09806e-15 0)
(-2.34737e-14 -5.97018e-15 0)
(-2.32999e-14 -6.63842e-15 0)
(-2.17356e-14 -7.26255e-15 0)
(-1.99786e-14 -7.63772e-15 0)
(-1.943e-14 -8.25835e-15 0)
(-1.90288e-14 -8.80429e-15 0)
(-1.87786e-14 -9.49282e-15 0)
(-1.96278e-14 -9.87258e-15 0)
(-2.08823e-14 -9.37969e-15 0)
(-2.10865e-14 -9.1086e-15 0)
(-1.97046e-14 -8.61515e-15 0)
(-1.81542e-14 -7.93247e-15 0)
(-1.70912e-14 -7.66203e-15 0)
(-1.72305e-14 -7.6935e-15 0)
(-1.835e-14 -7.40547e-15 0)
(-1.89432e-14 -7.79685e-15 0)
(-1.86693e-14 -8.00805e-15 0)
(-1.80272e-14 -7.40143e-15 0)
(-1.79281e-14 -6.75027e-15 0)
(-1.84464e-14 -6.49305e-15 0)
(-1.8791e-14 -6.43474e-15 0)
(-1.84234e-14 -5.8415e-15 0)
(-1.84361e-14 -5.02354e-15 0)
(-1.94672e-14 -4.63106e-15 0)
(-2.06003e-14 -3.86608e-15 0)
(-2.13652e-14 -3.42277e-15 0)
(-2.15988e-14 -2.66229e-15 0)
(-2.16413e-14 -2.369e-15 0)
(-2.15417e-14 -1.87191e-15 0)
(-2.16948e-14 -9.16231e-16 0)
(-2.172e-14 -8.86285e-17 0)
(-2.19504e-14 7.51339e-17 0)
(-2.28686e-14 3.41096e-16 0)
(-2.41644e-14 4.40231e-16 0)
(-2.58857e-14 5.21017e-16 0)
(-2.71897e-14 1.25815e-15 0)
(-2.80872e-14 1.67622e-15 0)
(-2.88843e-14 2.06978e-15 0)
(-2.88573e-14 1.61703e-15 0)
(-2.7818e-14 1.48586e-15 0)
(-2.64817e-14 1.33471e-15 0)
(-2.51547e-14 9.46601e-16 0)
(-2.42159e-14 1.05051e-15 0)
(-2.3163e-14 6.55182e-16 0)
(-2.12455e-14 4.44436e-16 0)
(-1.90616e-14 4.35987e-16 0)
(-1.70919e-14 5.0089e-16 0)
(-1.59336e-14 6.98073e-16 0)
(-1.54865e-14 1.41974e-16 0)
(-1.46614e-14 -3.15012e-16 0)
(-1.32616e-14 -4.76223e-16 0)
(-1.16435e-14 -3.56206e-16 0)
(-9.66787e-15 -4.53295e-18 0)
(-7.0233e-15 4.06468e-16 0)
(-4.40183e-15 6.01081e-16 0)
(-1.82785e-15 8.33056e-18 0)
(-1.68173e-15 1.2837e-16 0)
(-5.23965e-15 6.5563e-16 0)
(-9.4049e-15 5.89928e-16 0)
(-1.37196e-14 8.65687e-16 0)
(-1.83638e-14 1.24141e-15 0)
(-2.2604e-14 2.18875e-15 0)
(-2.62712e-14 3.02135e-15 0)
(-3.01692e-14 3.07044e-15 0)
(-3.38735e-14 3.55762e-15 0)
(-3.71719e-14 3.75017e-15 0)
(-3.9738e-14 4.05739e-15 0)
(-4.1705e-14 5.01389e-15 0)
(-4.31044e-14 5.94389e-15 0)
(-4.45487e-14 6.84998e-15 0)
(-4.63177e-14 7.7288e-15 0)
(-4.92992e-14 7.7703e-15 0)
(-5.32589e-14 7.31182e-15 0)
(-5.67855e-14 6.67814e-15 0)
(-6.04924e-14 6.15291e-15 0)
(-6.3802e-14 5.72567e-15 0)
(-6.50503e-14 6.30269e-15 0)
(-6.46009e-14 6.22588e-15 0)
(-6.36878e-14 6.07689e-15 0)
(-6.28022e-14 5.75603e-15 0)
(-6.20943e-14 6.01335e-15 0)
(-6.22554e-14 5.31004e-15 0)
(-6.27623e-14 4.02227e-15 0)
(-6.24809e-14 3.85439e-15 0)
(-6.13033e-14 3.9539e-15 0)
(-5.91711e-14 4.10606e-15 0)
(-5.68781e-14 3.89768e-15 0)
(-5.4327e-14 3.50239e-15 0)
(-5.16391e-14 2.03678e-15 0)
(-4.98406e-14 2.85017e-16 0)
(-4.75916e-14 -9.33717e-16 0)
(-4.51657e-14 -1.33976e-15 0)
(-4.34352e-14 -1.53562e-15 0)
(-4.13329e-14 -2.19447e-15 0)
(-3.87186e-14 -3.00493e-15 0)
(-3.61083e-14 -4.53302e-15 0)
(-3.40898e-14 -5.97968e-15 0)
(-3.267e-14 -6.76818e-15 0)
(-3.20934e-14 -6.75865e-15 0)
(-3.21905e-14 -7.29012e-15 0)
(-3.23221e-14 -8.56799e-15 0)
(-3.16529e-14 -9.46698e-15 0)
(-2.96305e-14 -9.71576e-15 0)
(-2.78335e-14 -1.05914e-14 0)
(-2.73758e-14 -1.16591e-14 0)
(-2.67535e-14 -1.24008e-14 0)
(-2.62311e-14 -1.31515e-14 0)
(-2.66392e-14 -1.3402e-14 0)
(-2.76898e-14 -1.32505e-14 0)
(-2.7955e-14 -1.26798e-14 0)
(-2.65078e-14 -1.20472e-14 0)
(-2.48456e-14 -1.15378e-14 0)
(-2.3822e-14 -1.13347e-14 0)
(-2.38729e-14 -1.15527e-14 0)
(-2.48341e-14 -1.14769e-14 0)
(-2.55326e-14 -1.08788e-14 0)
(-2.52488e-14 -1.04335e-14 0)
(-2.44792e-14 -9.8827e-15 0)
(-2.44378e-14 -9.34963e-15 0)
(-2.52278e-14 -9.04363e-15 0)
(-2.55215e-14 -8.67026e-15 0)
(-2.48996e-14 -7.89039e-15 0)
(-2.514e-14 -7.14338e-15 0)
(-2.62889e-14 -6.84243e-15 0)
(-2.75052e-14 -5.96252e-15 0)
(-2.85049e-14 -4.68606e-15 0)
(-2.8879e-14 -3.46076e-15 0)
(-2.9282e-14 -2.47563e-15 0)
(-2.93812e-14 -1.97751e-15 0)
(-2.93293e-14 -1.47212e-15 0)
(-2.9477e-14 -6.60279e-16 0)
(-2.99705e-14 -2.96755e-16 0)
(-3.11435e-14 5.12172e-16 0)
(-3.29817e-14 7.38283e-16 0)
(-3.48926e-14 9.6364e-16 0)
(-3.63812e-14 1.97931e-15 0)
(-3.74504e-14 2.53754e-15 0)
(-3.85953e-14 3.00504e-15 0)
(-3.89602e-14 2.66353e-15 0)
(-3.76623e-14 2.15329e-15 0)
(-3.59778e-14 1.79683e-15 0)
(-3.42148e-14 1.45508e-15 0)
(-3.27955e-14 1.3718e-15 0)
(-3.12198e-14 1.08093e-15 0)
(-2.86628e-14 9.71539e-16 0)
(-2.59895e-14 8.41104e-16 0)
(-2.35993e-14 4.83517e-16 0)
(-2.19734e-14 5.11008e-17 0)
(-2.10744e-14 -3.81947e-16 0)
(-1.97528e-14 -3.54522e-16 0)
(-1.77005e-14 -2.53763e-16 0)
(-1.54953e-14 -2.63557e-16 0)
(-1.27851e-14 -1.67997e-16 0)
(-9.27825e-15 -1.74042e-16 0)
(-5.9786e-15 -8.78351e-17 0)
(-2.39921e-15 -1.19186e-16 0)
(-2.05897e-15 8.49738e-17 0)
(-6.77304e-15 7.94786e-16 0)
(-1.20564e-14 9.06707e-16 0)
(-1.72419e-14 1.21276e-15 0)
(-2.24863e-14 2.03645e-15 0)
(-2.74479e-14 3.63319e-15 0)
(-3.2467e-14 4.66669e-15 0)
(-3.76178e-14 5.03701e-15 0)
(-4.21834e-14 4.68268e-15 0)
(-4.59682e-14 4.79071e-15 0)
(-4.88122e-14 5.73202e-15 0)
(-5.13711e-14 6.90463e-15 0)
(-5.35424e-14 7.82626e-15 0)
(-5.55088e-14 8.37258e-15 0)
(-5.79969e-14 9.15944e-15 0)
(-6.17883e-14 9.44818e-15 0)
(-6.63975e-14 9.24574e-15 0)
(-7.08953e-14 8.78344e-15 0)
(-7.55651e-14 7.62375e-15 0)
(-7.88118e-14 7.153e-15 0)
(-7.99917e-14 7.57754e-15 0)
(-7.99287e-14 7.53108e-15 0)
(-7.90267e-14 7.31401e-15 0)
(-7.78348e-14 7.58385e-15 0)
(-7.74547e-14 7.56637e-15 0)
(-7.82446e-14 6.34039e-15 0)
(-7.83993e-14 4.89301e-15 0)
(-7.73994e-14 4.72261e-15 0)
(-7.57552e-14 4.78213e-15 0)
(-7.3458e-14 4.935e-15 0)
(-7.07819e-14 4.62473e-15 0)
(-6.80149e-14 3.95261e-15 0)
(-6.53555e-14 2.2485e-15 0)
(-6.28724e-14 6.40962e-16 0)
(-5.98553e-14 -2.92728e-16 0)
(-5.67157e-14 -1.46226e-15 0)
(-5.43733e-14 -2.20869e-15 0)
(-5.19898e-14 -3.11839e-15 0)
(-4.92345e-14 -4.22644e-15 0)
(-4.62795e-14 -6.16173e-15 0)
(-4.34875e-14 -7.80247e-15 0)
(-4.13579e-14 -8.5762e-15 0)
(-4.03713e-14 -8.87845e-15 0)
(-4.06767e-14 -9.45329e-15 0)
(-4.09222e-14 -1.07177e-14 0)
(-3.95532e-14 -1.19213e-14 0)
(-3.74423e-14 -1.26268e-14 0)
(-3.57988e-14 -1.39355e-14 0)
(-3.4808e-14 -1.50777e-14 0)
(-3.39631e-14 -1.55564e-14 0)
(-3.33099e-14 -1.61829e-14 0)
(-3.3639e-14 -1.64118e-14 0)
(-3.44504e-14 -1.71496e-14 0)
(-3.42953e-14 -1.66979e-14 0)
(-3.27396e-14 -1.6041e-14 0)
(-3.11232e-14 -1.54137e-14 0)
(-3.02328e-14 -1.52097e-14 0)
(-3.03169e-14 -1.53068e-14 0)
(-3.08652e-14 -1.50172e-14 0)
(-3.12971e-14 -1.39878e-14 0)
(-3.11943e-14 -1.31112e-14 0)
(-3.05727e-14 -1.21597e-14 0)
(-3.06865e-14 -1.16329e-14 0)
(-3.13955e-14 -1.12477e-14 0)
(-3.15382e-14 -1.11198e-14 0)
(-3.1077e-14 -1.02571e-14 0)
(-3.16834e-14 -9.67352e-15 0)
(-3.29586e-14 -9.06601e-15 0)
(-3.37638e-14 -8.08909e-15 0)
(-3.46187e-14 -6.08235e-15 0)
(-3.53244e-14 -4.50826e-15 0)
(-3.61302e-14 -2.98559e-15 0)
(-3.66079e-14 -1.90631e-15 0)
(-3.66816e-14 -1.17287e-15 0)
(-3.6906e-14 -6.50325e-16 0)
(-3.73528e-14 -2.74647e-16 0)
(-3.88e-14 5.68907e-16 0)
(-4.11228e-14 8.4041e-16 0)
(-4.29406e-14 1.47643e-15 0)
(-4.45536e-14 2.67035e-15 0)
(-4.61633e-14 3.45241e-15 0)
(-4.77166e-14 3.77063e-15 0)
(-4.82812e-14 3.58612e-15 0)
(-4.68484e-14 3.08018e-15 0)
(-4.47644e-14 2.71753e-15 0)
(-4.2529e-14 2.5605e-15 0)
(-4.07711e-14 2.00612e-15 0)
(-3.88275e-14 1.6173e-15 0)
(-3.57948e-14 1.32104e-15 0)
(-3.27935e-14 8.79071e-16 0)
(-3.00366e-14 1.68913e-16 0)
(-2.78965e-14 -5.5371e-16 0)
(-2.61448e-14 -1.10172e-15 0)
(-2.40533e-14 -6.79361e-16 0)
(-2.17732e-14 -2.71776e-16 0)
(-1.90985e-14 -3.12894e-16 0)
(-1.58134e-14 -3.16868e-16 0)
(-1.16121e-14 -7.36431e-16 0)
(-7.27415e-15 -8.54193e-16 0)
(-2.7728e-15 -2.83517e-16 0)
(-2.39096e-15 2.96215e-16 0)
(-8.1014e-15 7.90479e-16 0)
(-1.45447e-14 1.35796e-15 0)
(-2.02804e-14 1.93482e-15 0)
(-2.58942e-14 3.08671e-15 0)
(-3.18408e-14 4.68394e-15 0)
(-3.81768e-14 5.84696e-15 0)
(-4.4759e-14 6.29918e-15 0)
(-5.02011e-14 6.09858e-15 0)
(-5.39754e-14 6.43052e-15 0)
(-5.70967e-14 7.51211e-15 0)
(-6.03069e-14 8.38348e-15 0)
(-6.32492e-14 9.61751e-15 0)
(-6.57517e-14 1.0172e-14 0)
(-6.86319e-14 1.08952e-14 0)
(-7.33448e-14 1.11343e-14 0)
(-7.90007e-14 1.08331e-14 0)
(-8.44474e-14 9.97974e-15 0)
(-8.93138e-14 8.66834e-15 0)
(-9.2387e-14 8.48162e-15 0)
(-9.39057e-14 8.49999e-15 0)
(-9.41723e-14 9.12792e-15 0)
(-9.30405e-14 9.59784e-15 0)
(-9.19071e-14 9.14171e-15 0)
(-9.21519e-14 8.05012e-15 0)
(-9.32052e-14 6.81434e-15 0)
(-9.27588e-14 5.69673e-15 0)
(-9.10655e-14 5.60598e-15 0)
(-8.91117e-14 5.79415e-15 0)
(-8.64891e-14 5.78543e-15 0)
(-8.38584e-14 5.48969e-15 0)
(-8.1268e-14 4.32789e-15 0)
(-7.8204e-14 2.4013e-15 0)
(-7.48607e-14 6.91088e-16 0)
(-7.13879e-14 -4.44048e-16 0)
(-6.79334e-14 -1.74951e-15 0)
(-6.5071e-14 -3.04707e-15 0)
(-6.2217e-14 -4.04279e-15 0)
(-5.93092e-14 -5.36587e-15 0)
(-5.61482e-14 -7.66674e-15 0)
(-5.25389e-14 -9.6379e-15 0)
(-4.9585e-14 -1.07819e-14 0)
(-4.84139e-14 -1.13571e-14 0)
(-4.8815e-14 -1.19742e-14 0)
(-4.90251e-14 -1.29882e-14 0)
(-4.75389e-14 -1.40023e-14 0)
(-4.51632e-14 -1.55725e-14 0)
(-4.32946e-14 -1.68442e-14 0)
(-4.19292e-14 -1.81265e-14 0)
(-4.0738e-14 -1.85627e-14 0)
(-3.9962e-14 -1.90411e-14 0)
(-4.04867e-14 -1.94941e-14 0)
(-4.10844e-14 -2.02134e-14 0)
(-4.02843e-14 -2.02553e-14 0)
(-3.85479e-14 -1.98513e-14 0)
(-3.69728e-14 -1.93075e-14 0)
(-3.62511e-14 -1.89631e-14 0)
(-3.61212e-14 -1.87706e-14 0)
(-3.62496e-14 -1.80139e-14 0)
(-3.65805e-14 -1.67635e-14 0)
(-3.64453e-14 -1.56159e-14 0)
(-3.60124e-14 -1.44647e-14 0)
(-3.64538e-14 -1.37328e-14 0)
(-3.76294e-14 -1.3519e-14 0)
(-3.771e-14 -1.34774e-14 0)
(-3.69301e-14 -1.27712e-14 0)
(-3.75839e-14 -1.25023e-14 0)
(-3.87274e-14 -1.1412e-14 0)
(-3.92268e-14 -9.88877e-15 0)
(-4.00792e-14 -7.48447e-15 0)
(-4.10577e-14 -5.24612e-15 0)
(-4.20466e-14 -3.29671e-15 0)
(-4.29315e-14 -1.87332e-15 0)
(-4.34611e-14 -8.13506e-16 0)
(-4.4034e-14 -6.13434e-16 0)
(-4.45266e-14 -2.73663e-16 0)
(-4.61328e-14 5.06733e-16 0)
(-4.85786e-14 1.11963e-15 0)
(-5.02952e-14 2.19972e-15 0)
(-5.20745e-14 2.93863e-15 0)
(-5.40199e-14 3.75993e-15 0)
(-5.59282e-14 4.27241e-15 0)
(-5.67601e-14 4.43644e-15 0)
(-5.52475e-14 4.22598e-15 0)
(-5.27877e-14 3.73155e-15 0)
(-5.05385e-14 3.41641e-15 0)
(-4.85732e-14 2.41649e-15 0)
(-4.59949e-14 1.98566e-15 0)
(-4.25937e-14 1.50758e-15 0)
(-3.93125e-14 8.29716e-16 0)
(-3.61982e-14 -1.32831e-16 0)
(-3.35102e-14 -1.11425e-15 0)
(-3.08521e-14 -1.36551e-15 0)
(-2.79377e-14 -1.25401e-15 0)
(-2.5298e-14 -7.61279e-16 0)
(-2.23573e-14 -6.45786e-16 0)
(-1.87265e-14 -7.04601e-16 0)
(-1.39456e-14 -1.14863e-15 0)
(-8.46462e-15 -9.56649e-16 0)
(-2.95061e-15 -3.51985e-16 0)
(-3.02998e-15 4.57887e-16 0)
(-9.5659e-15 8.86349e-16 0)
(-1.65864e-14 1.65179e-15 0)
(-2.31137e-14 2.72479e-15 0)
(-2.93428e-14 4.12794e-15 0)
(-3.59736e-14 5.48668e-15 0)
(-4.34331e-14 6.53412e-15 0)
(-5.10949e-14 7.38094e-15 0)
(-5.71583e-14 7.69871e-15 0)
(-6.13114e-14 8.69698e-15 0)
(-6.498e-14 9.52493e-15 0)
(-6.85514e-14 1.01434e-14 0)
(-7.19746e-14 1.11847e-14 0)
(-7.52507e-14 1.21024e-14 0)
(-7.8873e-14 1.23201e-14 0)
(-8.43516e-14 1.21969e-14 0)
(-9.07562e-14 1.18845e-14 0)
(-9.70048e-14 1.10167e-14 0)
(-1.02121e-13 9.86185e-15 0)
(-1.05153e-13 9.89234e-15 0)
(-1.06253e-13 1.0381e-14 0)
(-1.06129e-13 1.11137e-14 0)
(-1.06106e-13 1.15281e-14 0)
(-1.06022e-13 1.00464e-14 0)
(-1.06103e-13 8.12582e-15 0)
(-1.06752e-13 7.02882e-15 0)
(-1.05846e-13 6.76901e-15 0)
(-1.03554e-13 6.61453e-15 0)
(-1.0135e-13 6.89632e-15 0)
(-9.87397e-14 6.65052e-15 0)
(-9.61029e-14 5.90832e-15 0)
(-9.36357e-14 4.5642e-15 0)
(-9.0461e-14 2.80016e-15 0)
(-8.65101e-14 8.05753e-16 0)
(-8.23463e-14 -7.17486e-16 0)
(-7.84846e-14 -2.55581e-15 0)
(-7.50506e-14 -4.04928e-15 0)
(-7.17923e-14 -5.64959e-15 0)
(-6.91082e-14 -7.27736e-15 0)
(-6.58198e-14 -9.215e-15 0)
(-6.1501e-14 -1.08675e-14 0)
(-5.77998e-14 -1.25819e-14 0)
(-5.59699e-14 -1.35696e-14 0)
(-5.61937e-14 -1.43867e-14 0)
(-5.6354e-14 -1.55406e-14 0)
(-5.50221e-14 -1.63221e-14 0)
(-5.2735e-14 -1.8271e-14 0)
(-5.05518e-14 -2.01145e-14 0)
(-4.86888e-14 -2.11899e-14 0)
(-4.70778e-14 -2.12502e-14 0)
(-4.63469e-14 -2.15692e-14 0)
(-4.68291e-14 -2.24167e-14 0)
(-4.73264e-14 -2.28519e-14 0)
(-4.62897e-14 -2.29884e-14 0)
(-4.41827e-14 -2.27995e-14 0)
(-4.24459e-14 -2.23223e-14 0)
(-4.16618e-14 -2.20159e-14 0)
(-4.13555e-14 -2.15876e-14 0)
(-4.11123e-14 -2.07503e-14 0)
(-4.12967e-14 -1.94334e-14 0)
(-4.13346e-14 -1.7939e-14 0)
(-4.10928e-14 -1.6557e-14 0)
(-4.19749e-14 -1.60765e-14 0)
(-4.3292e-14 -1.58322e-14 0)
(-4.32059e-14 -1.53813e-14 0)
(-4.27451e-14 -1.47753e-14 0)
(-4.32742e-14 -1.45945e-14 0)
(-4.3869e-14 -1.32684e-14 0)
(-4.39685e-14 -1.1335e-14 0)
(-4.45501e-14 -8.82177e-15 0)
(-4.58199e-14 -6.21562e-15 0)
(-4.74351e-14 -3.88234e-15 0)
(-4.87623e-14 -2.24604e-15 0)
(-4.9916e-14 -1.26377e-15 0)
(-5.08544e-14 -1.26492e-15 0)
(-5.1104e-14 -3.88093e-16 0)
(-5.26481e-14 4.7664e-16 0)
(-5.51003e-14 1.40753e-15 0)
(-5.71783e-14 2.53105e-15 0)
(-5.92672e-14 3.04449e-15 0)
(-6.12065e-14 4.01074e-15 0)
(-6.326e-14 4.55333e-15 0)
(-6.4214e-14 4.85225e-15 0)
(-6.296e-14 4.88099e-15 0)
(-6.05045e-14 4.12211e-15 0)
(-5.80835e-14 3.66058e-15 0)
(-5.57632e-14 2.93788e-15 0)
(-5.27067e-14 2.30276e-15 0)
(-4.90635e-14 1.76904e-15 0)
(-4.55882e-14 9.52657e-16 0)
(-4.21997e-14 -3.38347e-16 0)
(-3.86671e-14 -1.29813e-15 0)
(-3.52435e-14 -1.29307e-15 0)
(-3.17335e-14 -1.45559e-15 0)
(-2.85407e-14 -1.24212e-15 0)
(-2.52832e-14 -1.24842e-15 0)
(-2.13176e-14 -1.23763e-15 0)
(-1.57456e-14 -1.3331e-15 0)
(-9.40183e-15 -9.08978e-16 0)
(-3.31176e-15 -3.2203e-16 0)
(-3.51057e-15 4.83369e-16 0)
(-1.09079e-14 1.50569e-15 0)
(-1.85031e-14 2.4777e-15 0)
(-2.53741e-14 3.62011e-15 0)
(-3.23402e-14 4.92119e-15 0)
(-4.00543e-14 6.09008e-15 0)
(-4.82028e-14 7.14136e-15 0)
(-5.6679e-14 8.55194e-15 0)
(-6.32833e-14 9.34898e-15 0)
(-6.78716e-14 1.08566e-14 0)
(-7.23799e-14 1.15518e-14 0)
(-7.64588e-14 1.21236e-14 0)
(-8.01255e-14 1.28181e-14 0)
(-8.41136e-14 1.3972e-14 0)
(-8.86073e-14 1.37262e-14 0)
(-9.45604e-14 1.30873e-14 0)
(-1.01627e-13 1.28068e-14 0)
(-1.0854e-13 1.21679e-14 0)
(-1.1352e-13 1.1557e-14 0)
(-1.16023e-13 1.20888e-14 0)
(-1.17481e-13 1.26104e-14 0)
(-1.1807e-13 1.22566e-14 0)
(-1.18678e-13 1.16362e-14 0)
(-1.19256e-13 1.0425e-14 0)
(-1.19129e-13 8.73165e-15 0)
(-1.18804e-13 7.78707e-15 0)
(-1.17435e-13 7.78756e-15 0)
(-1.15012e-13 7.46104e-15 0)
(-1.12665e-13 7.77311e-15 0)
(-1.10205e-13 7.55658e-15 0)
(-1.07682e-13 6.08953e-15 0)
(-1.0507e-13 4.51904e-15 0)
(-1.01683e-13 2.68144e-15 0)
(-9.7367e-14 6.02484e-16 0)
(-9.29988e-14 -1.04411e-15 0)
(-8.87464e-14 -3.3243e-15 0)
(-8.4926e-14 -5.13974e-15 0)
(-8.13823e-14 -7.57156e-15 0)
(-7.79536e-14 -9.26054e-15 0)
(-7.41033e-14 -1.00708e-14 0)
(-6.9716e-14 -1.17705e-14 0)
(-6.57551e-14 -1.44057e-14 0)
(-6.34814e-14 -1.61989e-14 0)
(-6.36132e-14 -1.74276e-14 0)
(-6.34384e-14 -1.8562e-14 0)
(-6.21981e-14 -1.92009e-14 0)
(-6.02857e-14 -2.0685e-14 0)
(-5.74943e-14 -2.2555e-14 0)
(-5.45924e-14 -2.38101e-14 0)
(-5.26835e-14 -2.44005e-14 0)
(-5.23866e-14 -2.49239e-14 0)
(-5.29427e-14 -2.53068e-14 0)
(-5.2977e-14 -2.53032e-14 0)
(-5.1658e-14 -2.50195e-14 0)
(-4.93775e-14 -2.47875e-14 0)
(-4.76032e-14 -2.4759e-14 0)
(-4.68156e-14 -2.42537e-14 0)
(-4.62341e-14 -2.37072e-14 0)
(-4.56974e-14 -2.29619e-14 0)
(-4.55744e-14 -2.16448e-14 0)
(-4.54471e-14 -2.00983e-14 0)
(-4.58298e-14 -1.84879e-14 0)
(-4.71905e-14 -1.82195e-14 0)
(-4.849e-14 -1.77579e-14 0)
(-4.84327e-14 -1.72626e-14 0)
(-4.80075e-14 -1.7078e-14 0)
(-4.83166e-14 -1.64358e-14 0)
(-4.83815e-14 -1.46954e-14 0)
(-4.82314e-14 -1.24155e-14 0)
(-4.88103e-14 -1.00562e-14 0)
(-5.013e-14 -7.34322e-15 0)
(-5.20279e-14 -4.63027e-15 0)
(-5.40915e-14 -2.64634e-15 0)
(-5.60037e-14 -1.79296e-15 0)
(-5.68388e-14 -1.41046e-15 0)
(-5.69062e-14 -7.44172e-16 0)
(-5.87203e-14 5.1808e-17 0)
(-6.12468e-14 1.17543e-15 0)
(-6.35302e-14 2.04183e-15 0)
(-6.56281e-14 2.80402e-15 0)
(-6.76589e-14 3.95745e-15 0)
(-7.00457e-14 4.50778e-15 0)
(-7.11124e-14 4.9658e-15 0)
(-7.01017e-14 5.04025e-15 0)
(-6.76056e-14 4.56399e-15 0)
(-6.48322e-14 3.85505e-15 0)
(-6.24119e-14 3.31244e-15 0)
(-5.90386e-14 2.47661e-15 0)
(-5.50563e-14 1.84257e-15 0)
(-5.15764e-14 1.01852e-15 0)
(-4.7783e-14 -1.00227e-16 0)
(-4.33374e-14 -1.15139e-15 0)
(-3.92761e-14 -1.57505e-15 0)
(-3.53745e-14 -1.39468e-15 0)
(-3.17507e-14 -1.42338e-15 0)
(-2.80337e-14 -1.56161e-15 0)
(-2.34788e-14 -1.80694e-15 0)
(-1.73542e-14 -1.55996e-15 0)
(-1.03169e-14 -1.40703e-15 0)
(-3.58723e-15 -5.51906e-16 0)
(-3.78418e-15 6.33497e-16 0)
(-1.18681e-14 2.06524e-15 0)
(-2.02927e-14 3.61965e-15 0)
(-2.80256e-14 5.00614e-15 0)
(-3.56332e-14 5.74058e-15 0)
(-4.37893e-14 6.48354e-15 0)
(-5.23494e-14 7.80592e-15 0)
(-6.14078e-14 9.57124e-15 0)
(-6.85377e-14 1.10066e-14 0)
(-7.38313e-14 1.21698e-14 0)
(-7.91829e-14 1.30802e-14 0)
(-8.36807e-14 1.38829e-14 0)
(-8.75366e-14 1.47286e-14 0)
(-9.23125e-14 1.58653e-14 0)
(-9.80289e-14 1.5387e-14 0)
(-1.04294e-13 1.42062e-14 0)
(-1.11447e-13 1.38446e-14 0)
(-1.18656e-13 1.37982e-14 0)
(-1.23558e-13 1.38889e-14 0)
(-1.26294e-13 1.38708e-14 0)
(-1.28441e-13 1.346e-14 0)
(-1.29406e-13 1.23724e-14 0)
(-1.30131e-13 1.09613e-14 0)
(-1.30847e-13 1.03461e-14 0)
(-1.30658e-13 9.60438e-15 0)
(-1.29912e-13 9.11837e-15 0)
(-1.28326e-13 8.83629e-15 0)
(-1.25487e-13 7.80457e-15 0)
(-1.22782e-13 7.80609e-15 0)
(-1.20958e-13 7.49878e-15 0)
(-1.18707e-13 6.01908e-15 0)
(-1.1584e-13 4.19486e-15 0)
(-1.12337e-13 2.09773e-15 0)
(-1.07535e-13 -2.52748e-16 0)
(-1.02813e-13 -1.90399e-15 0)
(-9.83714e-14 -3.82263e-15 0)
(-9.43458e-14 -6.05648e-15 0)
(-9.0298e-14 -8.39167e-15 0)
(-8.57492e-14 -1.05258e-14 0)
(-8.18463e-14 -1.17908e-14 0)
(-7.83165e-14 -1.40362e-14 0)
(-7.42041e-14 -1.67302e-14 0)
(-7.09231e-14 -1.91869e-14 0)
(-7.02937e-14 -2.08157e-14 0)
(-6.9687e-14 -2.148e-14 0)
(-6.83062e-14 -2.17538e-14 0)
(-6.66459e-14 -2.28515e-14 0)
(-6.40518e-14 -2.45029e-14 0)
(-6.10506e-14 -2.61935e-14 0)
(-5.87541e-14 -2.75327e-14 0)
(-5.77701e-14 -2.82333e-14 0)
(-5.77986e-14 -2.80148e-14 0)
(-5.77538e-14 -2.75492e-14 0)
(-5.64917e-14 -2.7021e-14 0)
(-5.4501e-14 -2.67897e-14 0)
(-5.24849e-14 -2.6917e-14 0)
(-5.12522e-14 -2.60343e-14 0)
(-5.07295e-14 -2.52754e-14 0)
(-4.99144e-14 -2.45065e-14 0)
(-4.95361e-14 -2.32096e-14 0)
(-4.94085e-14 -2.17633e-14 0)
(-5.01737e-14 -2.04866e-14 0)
(-5.1983e-14 -1.98584e-14 0)
(-5.32337e-14 -1.94035e-14 0)
(-5.3473e-14 -1.90519e-14 0)
(-5.30485e-14 -1.91884e-14 0)
(-5.25998e-14 -1.85156e-14 0)
(-5.2175e-14 -1.62769e-14 0)
(-5.20142e-14 -1.35996e-14 0)
(-5.24726e-14 -1.07918e-14 0)
(-5.36711e-14 -7.93216e-15 0)
(-5.60026e-14 -5.29847e-15 0)
(-5.88703e-14 -3.31641e-15 0)
(-6.1371e-14 -2.37348e-15 0)
(-6.26209e-14 -1.75174e-15 0)
(-6.27546e-14 -2.02627e-15 0)
(-6.41673e-14 -1.15384e-15 0)
(-6.67781e-14 2.20522e-16 0)
(-6.93135e-14 1.27551e-15 0)
(-7.13328e-14 2.34223e-15 0)
(-7.3491e-14 3.29755e-15 0)
(-7.6021e-14 4.12704e-15 0)
(-7.71821e-14 4.91491e-15 0)
(-7.63621e-14 5.00735e-15 0)
(-7.41268e-14 4.80194e-15 0)
(-7.13081e-14 3.84947e-15 0)
(-6.85568e-14 3.27276e-15 0)
(-6.49763e-14 2.78073e-15 0)
(-6.06789e-14 1.85447e-15 0)
(-5.68725e-14 1.0733e-15 0)
(-5.29318e-14 9.43835e-17 0)
(-4.81445e-14 -1.22435e-15 0)
(-4.30517e-14 -1.72762e-15 0)
(-3.84652e-14 -1.44018e-15 0)
(-3.4689e-14 -1.76858e-15 0)
(-3.07331e-14 -1.87388e-15 0)
(-2.55888e-14 -2.18935e-15 0)
(-1.88119e-14 -1.97713e-15 0)
(-1.1138e-14 -1.61052e-15 0)
(-3.57227e-15 -6.82253e-16 0)
(-4.05576e-15 5.67035e-16 0)
(-1.25975e-14 2.24224e-15 0)
(-2.15767e-14 4.12881e-15 0)
(-3.03444e-14 5.90554e-15 0)
(-3.90208e-14 7.10242e-15 0)
(-4.74837e-14 7.56949e-15 0)
(-5.60039e-14 8.85292e-15 0)
(-6.54607e-14 1.04902e-14 0)
(-7.351e-14 1.24629e-14 0)
(-7.94255e-14 1.37545e-14 0)
(-8.50802e-14 1.43216e-14 0)
(-9.00303e-14 1.49048e-14 0)
(-9.42219e-14 1.6003e-14 0)
(-9.99098e-14 1.67726e-14 0)
(-1.06801e-13 1.66239e-14 0)
(-1.13339e-13 1.59052e-14 0)
(-1.20216e-13 1.553e-14 0)
(-1.27403e-13 1.54535e-14 0)
(-1.32905e-13 1.5955e-14 0)
(-1.36227e-13 1.54738e-14 0)
(-1.38811e-13 1.43381e-14 0)
(-1.40358e-13 1.26725e-14 0)
(-1.4073e-13 1.08458e-14 0)
(-1.40832e-13 1.01767e-14 0)
(-1.40544e-13 9.43666e-15 0)
(-1.39742e-13 8.98818e-15 0)
(-1.38559e-13 8.80371e-15 0)
(-1.35631e-13 8.12973e-15 0)
(-1.32371e-13 7.24457e-15 0)
(-1.30537e-13 6.51811e-15 0)
(-1.28596e-13 5.30614e-15 0)
(-1.25851e-13 3.3168e-15 0)
(-1.22234e-13 1.37086e-15 0)
(-1.1696e-13 -6.42758e-16 0)
(-1.11641e-13 -2.57511e-15 0)
(-1.07187e-13 -4.44577e-15 0)
(-1.03046e-13 -7.02428e-15 0)
(-9.88151e-14 -9.14419e-15 0)
(-9.40099e-14 -1.19668e-14 0)
(-8.96935e-14 -1.44722e-14 0)
(-8.58632e-14 -1.69447e-14 0)
(-8.16217e-14 -1.90455e-14 0)
(-7.81814e-14 -2.15258e-14 0)
(-7.66559e-14 -2.33371e-14 0)
(-7.51813e-14 -2.37775e-14 0)
(-7.39863e-14 -2.47016e-14 0)
(-7.28431e-14 -2.59005e-14 0)
(-7.02778e-14 -2.7216e-14 0)
(-6.69747e-14 -2.84952e-14 0)
(-6.42062e-14 -2.97463e-14 0)
(-6.26691e-14 -3.02448e-14 0)
(-6.23005e-14 -3.02647e-14 0)
(-6.20543e-14 -3.00481e-14 0)
(-6.08571e-14 -2.93368e-14 0)
(-5.9005e-14 -2.90103e-14 0)
(-5.66985e-14 -2.84235e-14 0)
(-5.52164e-14 -2.73676e-14 0)
(-5.46959e-14 -2.64045e-14 0)
(-5.37667e-14 -2.56615e-14 0)
(-5.31734e-14 -2.4693e-14 0)
(-5.31093e-14 -2.334e-14 0)
(-5.41589e-14 -2.24186e-14 0)
(-5.62045e-14 -2.16361e-14 0)
(-5.78043e-14 -2.1151e-14 0)
(-5.82966e-14 -2.07362e-14 0)
(-5.7768e-14 -2.01622e-14 0)
(-5.64804e-14 -1.95652e-14 0)
(-5.52348e-14 -1.75556e-14 0)
(-5.48376e-14 -1.47643e-14 0)
(-5.54554e-14 -1.14524e-14 0)
(-5.70727e-14 -8.75658e-15 0)
(-5.97799e-14 -6.42226e-15 0)
(-6.32457e-14 -4.59278e-15 0)
(-6.63143e-14 -3.65202e-15 0)
(-6.82024e-14 -3.1616e-15 0)
(-6.82489e-14 -3.41988e-15 0)
(-6.90187e-14 -2.67446e-15 0)
(-7.1574e-14 -1.10484e-15 0)
(-7.42239e-14 4.7332e-16 0)
(-7.64905e-14 1.82123e-15 0)
(-7.87253e-14 2.59076e-15 0)
(-8.11835e-14 3.50416e-15 0)
(-8.26506e-14 4.09473e-15 0)
(-8.21364e-14 4.33533e-15 0)
(-8.00867e-14 4.16932e-15 0)
(-7.71846e-14 3.55921e-15 0)
(-7.39535e-14 3.27795e-15 0)
(-7.03043e-14 2.99567e-15 0)
(-6.59509e-14 2.17509e-15 0)
(-6.18849e-14 1.17628e-15 0)
(-5.78289e-14 1.71593e-16 0)
(-5.23486e-14 -6.98397e-16 0)
(-4.63974e-14 -1.1685e-15 0)
(-4.16338e-14 -1.21936e-15 0)
(-3.75371e-14 -1.88849e-15 0)