/*--------------------------------*- C++ -*----------------------------------*\
| =========                 |                                                 |
| \\      /  F ield         | OpenFOAM: The Open Source CFD Toolbox           |
|  \\    /   O peration     | Version:  v2012                                 |
|   \\  /    A nd           | Website:  www.openfoam.com                      |
|    \\/     M anipulation  |                                                 |
\*---------------------------------------------------------------------------*/
FoamFile
{
    version     2.0;
    format      ascii;
    class       surfaceScalarField;
    location    "14";
    object      phi;
}
// * * * * * * * * * * * * * * * * * * * * * * * * * * * * * * * * * * * * * //

dimensions      [0 3 -1 0 0 0 0];
oriented        oriented;


internalField   nonuniform List<scalar> 
130560
(
3.47199e-06
-3.47199e-06
6.94419e-06
-3.4722e-06
1.04168e-05
-3.47262e-06
1.38901e-05
-3.47326e-06
1.73642e-05
-3.4741e-06
2.08393e-05
-3.47515e-06
2.43157e-05
-3.47641e-06
2.77936e-05
-3.47786e-06
3.12731e-05
-3.47951e-06
3.47545e-05
-3.48135e-06
3.82378e-05
-3.48338e-06
4.17234e-05
-3.48559e-06
4.52114e-05
-3.48798e-06
4.87019e-05
-3.49053e-06
5.21952e-05
-3.49324e-06
5.56913e-05
-3.49611e-06
5.91904e-05
-3.49912e-06
6.26927e-05
-3.50226e-06
6.61982e-05
-3.50553e-06
6.97071e-05
-3.50891e-06
7.32195e-05
-3.51239e-06
7.67355e-05
-3.51596e-06
8.02551e-05
-3.5196e-06
8.37784e-05
-3.52331e-06
8.73054e-05
-3.52707e-06
9.08363e-05
-3.53086e-06
9.4371e-05
-3.53467e-06
9.79095e-05
-3.53848e-06
0.000101452
-3.54228e-06
0.000104998
-3.54604e-06
0.000108548
-3.54975e-06
0.000112101
-3.55339e-06
0.000115658
-3.55693e-06
0.000119218
-3.56036e-06
0.000122782
-3.56366e-06
0.000126349
-3.56679e-06
0.000129918
-3.56975e-06
0.000133491
-3.57249e-06
0.000137066
-3.57501e-06
0.000140643
-3.57726e-06
0.000144222
-3.57923e-06
0.000147803
-3.58089e-06
0.000151385
-3.5822e-06
0.000154969
-3.58315e-06
0.000158552
-3.58369e-06
0.000162136
-3.5838e-06
0.00016572
-3.58344e-06
0.000169302
-3.58259e-06
0.000172883
-3.58121e-06
0.000176463
-3.57926e-06
0.000180039
-3.57671e-06
0.000183613
-3.57353e-06
0.000187183
-3.56968e-06
0.000190748
-3.56513e-06
0.000194308
-3.55983e-06
0.000197861
-3.55375e-06
0.000201408
-3.54686e-06
0.000204947
-3.5391e-06
0.000208478
-3.53046e-06
0.000211999
-3.52088e-06
0.000215509
-3.51033e-06
0.000219008
-3.49876e-06
0.000222494
-3.48615e-06
0.000225966
-3.47246e-06
0.000229424
-3.45763e-06
0.000232866
-3.44164e-06
0.00023629
-3.42445e-06
0.000239696
-3.40603e-06
0.000243082
-3.38632e-06
0.000246448
-3.36531e-06
0.000249791
-3.34294e-06
0.00025311
-3.3192e-06
0.000256404
-3.29404e-06
0.000259671
-3.26744e-06
0.000262911
-3.23936e-06
0.00026612
-3.20977e-06
0.000269299
-3.17865e-06
0.000272445
-3.14598e-06
0.000275557
-3.11171e-06
0.000278633
-3.07584e-06
0.000281671
-3.03835e-06
0.00028467
-2.99921e-06
0.000287629
-2.95841e-06
0.000290544
-2.91594e-06
0.000293416
-2.87178e-06
0.000296242
-2.82593e-06
0.000299021
-2.77838e-06
0.00030175
-2.72913e-06
0.000304428
-2.67817e-06
0.000307053
-2.62552e-06
0.000309625
-2.57118e-06
0.00031214
-2.51516e-06
0.000314597
-2.45746e-06
0.000316995
-2.39811e-06
0.000319332
-2.33713e-06
0.000321607
-2.27453e-06
0.000323817
-2.21034e-06
0.000325962
-2.1446e-06
0.000328039
-2.07733e-06
0.000330048
-2.00857e-06
0.000331986
-1.93835e-06
0.000333853
-1.86673e-06
0.000335647
-1.79374e-06
0.000337366
-1.71944e-06
0.00033901
-1.64387e-06
0.000340577
-1.56709e-06
0.000342066
-1.48916e-06
0.000343476
-1.41013e-06
0.000344806
-1.33007e-06
0.000346055
-1.24904e-06
0.000347223
-1.16711e-06
0.000348307
-1.08435e-06
0.000349308
-1.00083e-06
0.000350224
-9.16619e-07
0.000351056
-8.31796e-07
0.000351803
-7.46434e-07
0.000352463
-6.60611e-07
0.000353038
-5.74404e-07
0.000353525
-4.8789e-07
0.000353927
-4.0115e-07
0.000354241
-3.14262e-07
0.000354468
-2.27306e-07
0.000354609
-1.40361e-07
0.000354662
-5.35059e-08
0.000354629
3.31812e-08
0.000354509
1.19622e-07
0.000354303
2.05741e-07
0.000354012
2.91461e-07
0.000353635
3.76709e-07
0.000353174
4.61412e-07
0.000352628
5.45498e-07
0.000352
6.28898e-07
0.000351288
7.11546e-07
0.000350495
7.93375e-07
0.00034962
8.74323e-07
0.000348666
9.54329e-07
0.000347633
1.03334e-06
0.000346521
1.11129e-06
0.000345333
1.18813e-06
0.000344069
1.26382e-06
0.000342731
1.3383e-06
0.00034132
1.41153e-06
0.000339836
1.48347e-06
0.000338282
1.55408e-06
0.000336659
1.62333e-06
0.000334967
1.69119e-06
0.00033321
1.75761e-06
0.000331387
1.82259e-06
0.000329501
1.88608e-06
0.000327553
1.94809e-06
0.000325545
2.00857e-06
0.000323477
2.06753e-06
0.000321352
2.12495e-06
0.000319171
2.18082e-06
0.000316936
2.23513e-06
0.000314648
2.28789e-06
0.000312309
2.33908e-06
0.00030992
2.3887e-06
0.000307484
2.43678e-06
0.000305
2.48329e-06
0.000302472
2.52827e-06
0.0002999
2.57171e-06
0.000297287
2.61362e-06
0.000294633
2.65403e-06
0.00029194
2.69294e-06
0.000289209
2.73037e-06
0.000286443
2.76635e-06
0.000283642
2.80088e-06
0.000280808
2.834e-06
0.000277942
2.86572e-06
0.000275046
2.89607e-06
0.000272121
2.92507e-06
0.000269169
2.95275e-06
0.000266189
2.97913e-06
0.000263185
3.00425e-06
0.000260157
3.02812e-06
0.000257106
3.05079e-06
0.000254034
3.07227e-06
0.000250941
3.0926e-06
0.00024783
3.11181e-06
0.0002447
3.12993e-06
0.000241553
3.14698e-06
0.00023839
3.163e-06
0.000235212
3.17803e-06
0.00023202
3.19208e-06
0.000228814
3.2052e-06
0.000225597
3.2174e-06
0.000222368
3.22874e-06
0.000219129
3.23922e-06
0.00021588
3.24889e-06
0.000212622
3.25777e-06
0.000209356
3.2659e-06
0.000206083
3.2733e-06
0.000202803
3.28001e-06
0.000199517
3.28604e-06
0.000196226
3.29144e-06
0.000192929
3.29622e-06
0.000189629
3.30042e-06
0.000186325
3.30406e-06
0.000183018
3.30717e-06
0.000179708
3.30978e-06
0.000176396
3.31191e-06
0.000173083
3.31358e-06
0.000169768
3.31483e-06
0.000166452
3.31567e-06
0.000163136
3.31613e-06
0.00015982
3.31623e-06
0.000156504
3.31599e-06
0.000153188
3.31544e-06
0.000149874
3.3146e-06
0.00014656
3.31348e-06
0.000143248
3.31212e-06
0.000139938
3.31052e-06
0.000136629
3.3087e-06
0.000133322
3.30669e-06
0.000130018
3.30451e-06
0.000126715
3.30216e-06
0.000123416
3.29968e-06
0.000120119
3.29706e-06
0.000116824
3.29434e-06
0.000113533
3.29152e-06
0.000110244
3.28861e-06
0.000106959
3.28565e-06
0.000103676
3.28263e-06
0.000100396
3.27957e-06
9.712e-05
3.27648e-06
9.38466e-05
3.27338e-06
9.05763e-05
3.27027e-06
8.73091e-05
3.26718e-06
8.4045e-05
3.2641e-06
8.0784e-05
3.26106e-06
7.75259e-05
3.25805e-06
7.42708e-05
3.25509e-06
7.10186e-05
3.25219e-06
6.77693e-05
3.24935e-06
6.45227e-05
3.2466e-06
6.12788e-05
3.24392e-06
5.80374e-05
3.24133e-06
5.47986e-05
3.23884e-06
5.15622e-05
3.23645e-06
4.8328e-05
3.23418e-06
4.5096e-05
3.23201e-06
4.1866e-05
3.22997e-06
3.86379e-05
3.22805e-06
3.54117e-05
3.22627e-06
3.21871e-05
3.22461e-06
2.8964e-05
3.2231e-06
2.57422e-05
3.22173e-06
2.25217e-05
3.2205e-06
1.93023e-05
3.21942e-06
1.60838e-05
3.21849e-06
1.28661e-05
3.21771e-06
9.64905e-06
3.21708e-06
6.43244e-06
3.21661e-06
3.21614e-06
3.2163e-06
3.21614e-06
3.47178e-06
-6.94377e-06
6.94377e-06
-6.94419e-06
1.04162e-05
-6.94504e-06
1.38892e-05
-6.94631e-06
1.73631e-05
-6.948e-06
2.08381e-05
-6.9501e-06
2.43143e-05
-6.95261e-06
2.7792e-05
-6.95553e-06
3.12713e-05
-6.95883e-06
3.47525e-05
-6.96252e-06
3.82357e-05
-6.96659e-06
4.17211e-05
-6.97101e-06
4.52089e-05
-6.97579e-06
4.86993e-05
-6.9809e-06
5.21924e-05
-6.98634e-06
5.56883e-05
-6.99208e-06
5.91873e-05
-6.99811e-06
6.26895e-05
-7.0044e-06
6.61949e-05
-7.01094e-06
6.97037e-05
-7.01771e-06
7.3216e-05
-7.02469e-06
7.67319e-05
-7.03184e-06
8.02514e-05
-7.03915e-06
8.37747e-05
-7.04658e-06
8.73017e-05
-7.05411e-06
9.08326e-05
-7.06171e-06
9.43672e-05
-7.06935e-06
9.79057e-05
-7.07699e-06
0.000101448
-7.0846e-06
0.000104994
-7.09214e-06
0.000108544
-7.09958e-06
0.000112097
-7.10687e-06
0.000115655
-7.11398e-06
0.000119215
-7.12086e-06
0.000122779
-7.12747e-06
0.000126346
-7.13377e-06
0.000129916
-7.1397e-06
0.000133488
-7.14522e-06
0.000137064
-7.15027e-06
0.000140641
-7.15481e-06
0.000144221
-7.15878e-06
0.000147802
-7.16212e-06
0.000151385
-7.16478e-06
0.000154968
-7.16669e-06
0.000158552
-7.16781e-06
0.000162137
-7.16806e-06
0.000165721
-7.16738e-06
0.000169304
-7.16571e-06
0.000172885
-7.16298e-06
0.000176465
-7.15912e-06
0.000180043
-7.15406e-06
0.000183617
-7.14774e-06
0.000187187
-7.14008e-06
0.000190753
-7.131e-06
0.000194314
-7.12044e-06
0.000197868
-7.10832e-06
0.000201416
-7.09457e-06
0.000204956
-7.0791e-06
0.000208487
-7.06185e-06
0.000212009
-7.04273e-06
0.000215521
-7.02166e-06
0.00021902
-6.99858e-06
0.000222508
-6.97339e-06
0.000225981
-6.94604e-06
0.00022944
-6.91643e-06
0.000232883
-6.88449e-06
0.000236309
-6.85015e-06
0.000239716
-6.81333e-06
0.000243103
-6.77395e-06
0.00024647
-6.73196e-06
0.000249814
-6.68727e-06
0.000253135
-6.63981e-06
0.000256431
-6.58953e-06
0.000259699
-6.53635e-06
0.00026294
-6.48022e-06
0.000266152
-6.42108e-06
0.000269332
-6.35887e-06
0.000272479
-6.29353e-06
0.000275593
-6.22503e-06
0.00027867
-6.15331e-06
0.00028171
-6.07834e-06
0.000284711
-6.00008e-06
0.000287671
-5.91849e-06
0.000290589
-5.83356e-06
0.000293462
-5.74525e-06
0.00029629
-5.65355e-06
0.00029907
-5.55846e-06
0.000301801
-5.45995e-06
0.000304481
-5.35804e-06
0.000307108
-5.25274e-06
0.000309681
-5.14404e-06
0.000312198
-5.03198e-06
0.000314657
-4.91657e-06
0.000317056
-4.79785e-06
0.000319395
-4.67586e-06
0.000321671
-4.55064e-06
0.000323883
-4.42224e-06
0.000326029
-4.29072e-06
0.000328108
-4.15614e-06
0.000330118
-4.01858e-06
0.000332058
-3.87811e-06
0.000333926
-3.73482e-06
0.000335721
-3.5888e-06
0.000337442
-3.44014e-06
0.000339087
-3.28895e-06
0.000340655
-3.13533e-06
0.000342145
-2.9794e-06
0.000343556
-2.82128e-06
0.000344887
-2.6611e-06
0.000346137
-2.49897e-06
0.000347305
-2.33505e-06
0.00034839
-2.16945e-06
0.000349392
-2.00234e-06
0.000350309
-1.83385e-06
0.000351141
-1.66413e-06
0.000351888
-1.49333e-06
0.000352549
-1.3216e-06
0.000353124
-1.14911e-06
0.000353612
-9.76003e-07
0.000354013
-8.02443e-07
0.000354328
-6.28589e-07
0.000354555
-4.54597e-07
0.000354695
-2.80628e-07
0.000354749
-1.06839e-07
0.000354715
6.66125e-08
0.000354595
2.39572e-07
0.000354389
4.11884e-07
0.000354097
5.83399e-07
0.00035372
7.53968e-07
0.000353258
9.23444e-07
0.000352712
1.09169e-06
0.000352082
1.25855e-06
0.00035137
1.42391e-06
0.000350575
1.58763e-06
0.0003497
1.74959e-06
0.000348745
1.90966e-06
0.00034771
2.06773e-06
0.000346598
2.22369e-06
0.000345409
2.37742e-06
0.000344144
2.52884e-06
0.000342804
2.67785e-06
0.000341391
2.82435e-06
0.000339907
2.96828e-06
0.000338351
3.10954e-06
0.000336726
3.24807e-06
0.000335034
3.3838e-06
0.000333275
3.51668e-06
0.000331451
3.64665e-06
0.000329563
3.77367e-06
0.000327613
3.89769e-06
0.000325603
4.01868e-06
0.000323534
4.13661e-06
0.000321408
4.25146e-06
0.000319225
4.3632e-06
0.000316989
4.47183e-06
0.000314699
4.57733e-06
0.000312359
4.67971e-06
0.000309968
4.77897e-06
0.00030753
4.8751e-06
0.000305045
4.96813e-06
0.000302515
5.05807e-06
0.000299942
5.14494e-06
0.000297327
5.22876e-06
0.000294671
5.30955e-06
0.000291977
5.38736e-06
0.000289245
5.4622e-06
0.000286477
5.53413e-06
0.000283675
5.60318e-06
0.00028084
5.66939e-06
0.000277973
5.73281e-06
0.000275075
5.79348e-06
0.000272149
5.85145e-06
0.000269195
5.90679e-06
0.000266214
5.95953e-06
0.000263209
6.00973e-06
0.00026018
6.05746e-06
0.000257128
6.10276e-06
0.000254054
6.14569e-06
0.00025096
6.18632e-06
0.000247848
6.22471e-06
0.000244717
6.26091e-06
0.000241569
6.29499e-06
0.000238405
6.32701e-06
0.000235226
6.35702e-06
0.000232033
6.3851e-06
0.000228826
6.4113e-06
0.000225608
6.43569e-06
0.000222379
6.45832e-06
0.000219139
6.47926e-06
0.000215889
6.49857e-06
0.00021263
6.5163e-06
0.000209364
6.53253e-06
0.00020609
6.5473e-06
0.000202809
6.56068e-06
0.000199522
6.57272e-06
0.00019623
6.58348e-06
0.000192934
6.59302e-06
0.000189633
6.60139e-06
0.000186328
6.60865e-06
0.00018302
6.61485e-06
0.00017971
6.62004e-06
0.000176398
6.62427e-06
0.000173084
6.62759e-06
0.000169768
6.63006e-06
0.000166452
6.63172e-06
0.000163136
6.63261e-06
0.000159819
6.63279e-06
0.000156503
6.6323e-06
0.000153187
6.63117e-06
0.000149872
6.62947e-06
0.000146559
6.62722e-06
0.000143246
6.62446e-06
0.000139936
6.62124e-06
0.000136627
6.6176e-06
0.00013332
6.61356e-06
0.000130015
6.60917e-06
0.000126713
6.60447e-06
0.000123413
6.59947e-06
0.000120116
6.59423e-06
0.000116822
6.58877e-06
0.00011353
6.58311e-06
0.000110241
6.57729e-06
0.000106956
6.57134e-06
0.000103673
6.56529e-06
0.000100393
6.55916e-06
9.71168e-05
6.55297e-06
9.38434e-05
6.54676e-06
9.05732e-05
6.54054e-06
8.7306e-05
6.53434e-06
8.40419e-05
6.52817e-06
8.07809e-05
6.52207e-06
7.75229e-05
6.51605e-06
7.42679e-05
6.51012e-06
7.10158e-05
6.50431e-06
6.77665e-05
6.49863e-06
6.452e-05
6.49311e-06
6.12761e-05
6.48775e-06
5.80349e-05
6.48256e-06
5.47962e-05
6.47758e-06
5.15598e-05
6.4728e-06
4.83258e-05
6.46823e-06
4.50939e-05
6.4639e-06
4.1864e-05
6.45981e-06
3.86361e-05
6.45597e-06
3.541e-05
6.4524e-06
3.21855e-05
6.44909e-06
2.89626e-05
6.44605e-06
2.5741e-05
6.4433e-06
2.25206e-05
6.44084e-06
1.93014e-05
6.43868e-06
1.60831e-05
6.43682e-06
1.28655e-05
6.43526e-06
9.64858e-06
6.434e-06
6.43213e-06
6.43306e-06
3.21598e-06
6.43244e-06
6.43213e-06
3.47135e-06
-1.04151e-05
6.94292e-06
-1.04158e-05
1.04149e-05
-1.0417e-05
1.38875e-05
-1.04189e-05
1.7361e-05
-1.04215e-05
2.08356e-05
-1.04246e-05
2.43114e-05
-1.04284e-05
2.77887e-05
-1.04328e-05
3.12676e-05
-1.04378e-05
3.47484e-05
-1.04433e-05
3.82312e-05
-1.04494e-05
4.17163e-05
-1.04561e-05
4.52038e-05
-1.04633e-05
4.86938e-05
-1.0471e-05
5.21866e-05
-1.04791e-05
5.56823e-05
-1.04878e-05
5.9181e-05
-1.04968e-05
6.26829e-05
-1.05063e-05
6.61881e-05
-1.05161e-05
6.96967e-05
-1.05263e-05
7.32088e-05
-1.05368e-05
7.67245e-05
-1.05476e-05
8.0244e-05
-1.05586e-05
8.37671e-05
-1.05697e-05
8.72941e-05
-1.05811e-05
9.08249e-05
-1.05925e-05
9.43596e-05
-1.0604e-05
9.78981e-05
-1.06155e-05
0.00010144
-1.0627e-05
0.000104987
-1.06383e-05
0.000108537
-1.06495e-05
0.00011209
-1.06605e-05
0.000115648
-1.06713e-05
0.000119208
-1.06816e-05
0.000122773
-1.06916e-05
0.00012634
-1.07011e-05
0.00012991
-1.07101e-05
0.000133483
-1.07184e-05
0.000137059
-1.07261e-05
0.000140637
-1.07329e-05
0.000144217
-1.07389e-05
0.000147799
-1.0744e-05
0.000151383
-1.07481e-05
0.000154967
-1.0751e-05
0.000158552
-1.07528e-05
0.000162137
-1.07532e-05
0.000165722
-1.07523e-05
0.000169306
-1.07499e-05
0.000172889
-1.07459e-05
0.00017647
-1.07402e-05
0.000180049
-1.07327e-05
0.000183624
-1.07233e-05
0.000187196
-1.07119e-05
0.000190764
-1.06984e-05
0.000194326
-1.06826e-05
0.000197882
-1.06645e-05
0.000201431
-1.0644e-05
0.000204973
-1.06209e-05
0.000208506
-1.05951e-05
0.00021203
-1.05665e-05
0.000215544
-1.0535e-05
0.000219046
-1.05005e-05
0.000222535
-1.04628e-05
0.000226011
-1.04219e-05
0.000229472
-1.03776e-05
0.000232917
-1.03297e-05
0.000236345
-1.02783e-05
0.000239755
-1.02232e-05
0.000243145
-1.01642e-05
0.000246515
-1.01013e-05
0.000249862
-1.00344e-05
0.000253185
-9.96326e-06
0.000256484
-9.88791e-06
0.000259756
-9.80822e-06
0.000262999
-9.7241e-06
0.000266214
-9.63546e-06
0.000269397
-9.5422e-06
0.000272548
-9.44426e-06
0.000275664
-9.34156e-06
0.000278745
-9.23404e-06
0.000281788
-9.12163e-06
0.000284793
-9.00427e-06
0.000287756
-8.88193e-06
0.000290677
-8.75455e-06
0.000293554
-8.62211e-06
0.000296385
-8.48458e-06
0.000299168
-8.34194e-06
0.000301903
-8.19418e-06
0.000304586
-8.04131e-06
0.000307217
-7.88334e-06
0.000309793
-7.72027e-06
0.000312313
-7.55215e-06
0.000314775
-7.379e-06
0.000317178
-7.20087e-06
0.00031952
-7.01783e-06
0.0003218
-6.82993e-06
0.000324015
-6.63726e-06
0.000326164
-6.4399e-06
0.000328246
-6.23794e-06
0.000330259
-6.0315e-06
0.000332201
-5.82069e-06
0.000334072
-5.60565e-06
0.00033587
-5.38649e-06
0.000337593
-5.16337e-06
0.00033924
-4.93645e-06
0.000340811
-4.70588e-06
0.000342303
-4.47184e-06
0.000343717
-4.2345e-06
0.00034505
-3.99406e-06
0.000346301
-3.75071e-06
0.000347471
-3.50465e-06
0.000348558
-3.25608e-06
0.00034956
-3.00523e-06
0.000350479
-2.75231e-06
0.000351312
-2.49753e-06
0.00035206
-2.24114e-06
0.000352722
-1.98336e-06
0.000353297
-1.72443e-06
0.000353786
-1.46457e-06
0.000354187
-1.20403e-06
0.000354502
-9.43052e-07
0.000354729
-6.81867e-07
0.000354869
-4.20716e-07
0.000354922
-1.59836e-07
0.000354888
1.00536e-07
0.000354768
3.60166e-07
0.000354561
6.18824e-07
0.000354268
8.76283e-07
0.000353889
1.13232e-06
0.000353426
1.38671e-06
0.000352879
1.63925e-06
0.000352247
1.88972e-06
0.000351533
2.13792e-06
0.000350737
2.38366e-06
0.00034986
2.62674e-06
0.000348903
2.867e-06
0.000347866
3.10424e-06
0.000346752
3.3383e-06
0.00034556
3.56903e-06
0.000344293
3.79628e-06
0.000342951
4.0199e-06
0.000341535
4.23976e-06
0.000340048
4.45574e-06
0.00033849
4.66772e-06
0.000336862
4.87559e-06
0.000335167
5.07927e-06
0.000333405
5.27865e-06
0.000331578
5.47367e-06
0.000329687
5.66424e-06
0.000327734
5.85032e-06
0.000325721
6.03184e-06
0.000323649
6.20877e-06
0.00032152
6.38106e-06
0.000319334
6.54869e-06
0.000317094
6.71165e-06
0.000314802
6.86991e-06
0.000312458
7.02348e-06
0.000310065
7.17235e-06
0.000307623
7.31654e-06
0.000305135
7.45607e-06
0.000302602
7.59095e-06
0.000300026
7.72122e-06
0.000297408
7.84691e-06
0.000294749
7.96807e-06
0.000292052
8.08473e-06
0.000289317
8.19696e-06
0.000286547
8.3048e-06
0.000283741
8.40832e-06
0.000280903
8.50757e-06
0.000278033
8.60264e-06
0.000275133
8.69359e-06
0.000272204
8.78049e-06
0.000269248
8.86342e-06
0.000266265
8.94246e-06
0.000263257
9.0177e-06
0.000260225
9.08921e-06
0.000257171
9.15709e-06
0.000254095
9.22142e-06
0.000250999
9.28229e-06
0.000247884
9.3398e-06
0.000244751
9.39402e-06
0.000241601
9.44506e-06
0.000238435
9.49301e-06
0.000235254
9.53795e-06
0.000232059
9.57999e-06
0.000228851
9.61922e-06
0.000225631
9.65572e-06
0.0002224
9.68959e-06
0.000219158
9.72093e-06
0.000215907
9.74981e-06
0.000212647
9.77634e-06
0.000209379
9.80061e-06
0.000206103
9.82269e-06
0.000202821
9.84269e-06
0.000199533
9.86068e-06
0.00019624
9.87675e-06
0.000192942
9.89099e-06
0.00018964
9.90348e-06
0.000186334
9.9143e-06
0.000183026
9.92353e-06
0.000179714
9.93125e-06
0.000176401
9.93753e-06
0.000173086
9.94246e-06
0.00016977
9.9461e-06
0.000166453
9.94853e-06
0.000163136
9.94981e-06
0.000159819
9.95002e-06
0.000156502
9.94923e-06
0.000153186
9.94749e-06
0.00014987
9.94488e-06
0.000146556
9.94145e-06
0.000143243
9.93727e-06
0.000139932
9.9324e-06
0.000136623
9.92688e-06
0.000133316
9.92078e-06
0.000130011
9.91416e-06
0.000126708
9.90706e-06
0.000123408
9.89953e-06
0.000120111
9.89162e-06
0.000116816
9.88339e-06
0.000113524
9.87487e-06
0.000110235
9.86611e-06
0.00010695
9.85715e-06
0.000103667
9.84803e-06
0.000100387
9.8388e-06
9.71106e-05
9.8295e-06
9.38372e-05
9.82014e-06
9.0567e-05
9.81079e-06
8.72998e-05
9.80146e-06
8.40358e-05
9.79218e-06
8.07749e-05
9.783e-06
7.7517e-05
9.77394e-06
7.42621e-05
9.76503e-06
7.10101e-05
9.7563e-06
6.7761e-05
9.74776e-06
6.45146e-05
9.73945e-06
6.1271e-05
9.73139e-06
5.80299e-05
9.7236e-06
5.47914e-05
9.71611e-06
5.15553e-05
9.70892e-06
4.83215e-05
9.70206e-06
4.50898e-05
9.69555e-06
4.18602e-05
9.6894e-06
3.86326e-05
9.68363e-06
3.54067e-05
9.67826e-06
3.21825e-05
9.67328e-06
2.89598e-05
9.66872e-06
2.57385e-05
9.66459e-06
2.25185e-05
9.6609e-06
1.92995e-05
9.65764e-06
1.60815e-05
9.65484e-06
1.28643e-05
9.6525e-06
9.64764e-06
9.65062e-06
6.4315e-06
9.64921e-06
3.21567e-06
9.64827e-06
9.6478e-06
3.47071e-06
-1.38858e-05
6.94164e-06
-1.38867e-05
1.0413e-05
-1.38884e-05
1.3885e-05
-1.3891e-05
1.73579e-05
-1.38943e-05
2.08318e-05
-1.38986e-05
2.4307e-05
-1.39036e-05
2.77837e-05
-1.39095e-05
3.1262e-05
-1.39161e-05
3.47423e-05
-1.39235e-05
3.82245e-05
-1.39317e-05
4.17091e-05
-1.39406e-05
4.51961e-05
-1.39502e-05
4.86856e-05
-1.39605e-05
5.2178e-05
-1.39715e-05
5.56732e-05
-1.3983e-05
5.91715e-05
-1.39951e-05
6.2673e-05
-1.40078e-05
6.61779e-05
-1.4021e-05
6.96862e-05
-1.40346e-05
7.3198e-05
-1.40487e-05
7.67135e-05
-1.40631e-05
8.02327e-05
-1.40778e-05
8.37558e-05
-1.40928e-05
8.72826e-05
-1.41079e-05
9.08134e-05
-1.41233e-05
9.4348e-05
-1.41387e-05
9.78866e-05
-1.41541e-05
0.000101429
-1.41695e-05
0.000104975
-1.41847e-05
0.000108526
-1.41997e-05
0.00011208
-1.42145e-05
0.000115637
-1.42289e-05
0.000119198
-1.42428e-05
0.000122763
-1.42562e-05
0.000126331
-1.4269e-05
0.000129902
-1.42811e-05
0.000133476
-1.42923e-05
0.000137052
-1.43026e-05
0.000140631
-1.43119e-05
0.000144212
-1.43201e-05
0.000147795
-1.4327e-05
0.00015138
-1.43325e-05
0.000154965
-1.43366e-05
0.000158552
-1.43391e-05
0.000162138
-1.43398e-05
0.000165725
-1.43387e-05
0.00016931
-1.43357e-05
0.000172895
-1.43305e-05
0.000176478
-1.4323e-05
0.000180058
-1.43132e-05
0.000183636
-1.43008e-05
0.00018721
-1.42858e-05
0.000190779
-1.42679e-05
0.000194344
-1.42471e-05
0.000197902
-1.42232e-05
0.000201454
-1.4196e-05
0.000204999
-1.41654e-05
0.000208535
-1.41312e-05
0.000212062
-1.40932e-05
0.000215578
-1.40514e-05
0.000219083
-1.40055e-05
0.000222576
-1.39555e-05
0.000226055
-1.39011e-05
0.00022952
-1.38422e-05
0.000232969
-1.37786e-05
0.0002364
-1.37102e-05
0.000239814
-1.36369e-05
0.000243208
-1.35584e-05
0.000246582
-1.34747e-05
0.000249933
-1.33856e-05
0.000253261
-1.32909e-05
0.000256563
-1.31906e-05
0.00025984
-1.30845e-05
0.000263088
-1.29725e-05
0.000266307
-1.28544e-05
0.000269495
-1.27302e-05
0.000272651
-1.25998e-05
0.000275772
-1.24629e-05
0.000278858
-1.23197e-05
0.000281906
-1.21699e-05
0.000284915
-1.20135e-05
0.000287883
-1.18504e-05
0.000290809
-1.16806e-05
0.000293691
-1.15041e-05
0.000296528
-1.13207e-05
0.000299316
-1.11305e-05
0.000302055
-1.09335e-05
0.000304744
-1.07297e-05
0.00030738
-1.0519e-05
0.000309961
-1.03016e-05
0.000312486
-1.00773e-05
0.000314953
-9.8464e-06
0.000317361
-9.60881e-06
0.000319708
-9.36465e-06
0.000321992
-9.114e-06
0.000324212
-8.85697e-06
0.000326366
-8.59367e-06
0.000328452
-8.32423e-06
0.000330469
-8.0488e-06
0.000332416
-7.76752e-06
0.000334291
-7.48058e-06
0.000336093
-7.18814e-06
0.00033782
-6.89041e-06
0.000339471
-6.58759e-06
0.000341045
-6.2799e-06
0.000342541
-5.96757e-06
0.000343957
-5.65083e-06
0.000345293
-5.32994e-06
0.000346547
-5.00516e-06
0.000347719
-4.67676e-06
0.000348808
-4.34501e-06
0.000349813
-4.01019e-06
0.000350734
-3.67261e-06
0.000351569
-3.33257e-06
0.000352318
-2.99035e-06
0.000352981
-2.64628e-06
0.000353557
-2.30067e-06
0.000354046
-1.95382e-06
0.000354448
-1.60607e-06
0.000354763
-1.25772e-06
0.00035499
-9.09104e-07
0.00035513
-5.60533e-07
0.000355183
-2.12327e-07
0.000355148
1.35199e-07
0.000355026
4.81732e-07
0.000354818
8.26963e-07
0.000354524
1.17059e-06
0.000354144
1.51231e-06
0.000353679
1.85183e-06
0.000353129
2.18887e-06
0.000352496
2.52314e-06
0.000351779
2.85439e-06
0.000350981
3.18233e-06
0.000350101
3.50673e-06
0.00034914
3.82734e-06
0.000348101
4.14392e-06
0.000346983
4.45625e-06
0.000345788
4.76413e-06
0.000344516
5.06734e-06
0.000343171
5.36571e-06
0.000341751
5.65905e-06
0.00034026
5.9472e-06
0.000338698
6.23e-06
0.000337066
6.50732e-06
0.000335366
6.77902e-06
0.0003336
7.04499e-06
0.000331768
7.30512e-06
0.000329873
7.55932e-06
0.000327916
7.8075e-06
0.000325898
8.0496e-06
0.000323822
8.28556e-06
0.000321687
8.51533e-06
0.000319497
8.73887e-06
0.000317253
8.95616e-06
0.000314955
9.16718e-06
0.000312607
9.37193e-06
0.000310209
9.57041e-06
0.000307763
9.76264e-06
0.00030527
9.94864e-06
0.000302733
1.01284e-05
0.000300152
1.03021e-05
0.000297529
1.04696e-05
0.000294866
1.06311e-05
0.000292164
1.07865e-05
0.000289425
1.09361e-05
0.00028665
1.10798e-05
0.000283841
1.12177e-05
0.000280998
1.135e-05
0.000278124
1.14766e-05
0.00027522
1.15977e-05
0.000272287
1.17135e-05
0.000269327
1.18239e-05
0.00026634
1.19292e-05
0.000263328
1.20294e-05
0.000260293
1.21246e-05
0.000257235
1.2215e-05
0.000254156
1.23006e-05
0.000251056
1.23816e-05
0.000247938
1.24582e-05
0.000244802
1.25303e-05
0.000241649
1.25982e-05
0.00023848
1.2662e-05
0.000235296
1.27218e-05
0.000232098
1.27777e-05
0.000228887
1.28299e-05
0.000225665
1.28784e-05
0.000222431
1.29234e-05
0.000219187
1.2965e-05
0.000215933
1.30034e-05
0.000212671
1.30387e-05
0.000209401
1.30709e-05
0.000206123
1.31002e-05
0.000202839
1.31267e-05
0.000199549
1.31506e-05
0.000196254
1.31719e-05
0.000192955
1.31907e-05
0.000189651
1.32072e-05
0.000186344
1.32215e-05
0.000183033
1.32337e-05
0.000179721
1.32439e-05
0.000176406
1.32522e-05
0.00017309
1.32586e-05
0.000169773
1.32634e-05
0.000166455
1.32665e-05
0.000163136
1.32681e-05
0.000159818
1.32683e-05
0.0001565
1.32671e-05
0.000153183
1.32647e-05
0.000149867
1.32611e-05
0.000146552
1.32564e-05
0.000143238
1.32508e-05
0.000139927
1.32442e-05
0.000136617
1.32368e-05
0.000133309
1.32285e-05
0.000130003
1.32196e-05
0.0001267
1.32101e-05
0.0001234
1.32e-05
0.000120102
1.31893e-05
0.000116807
1.31783e-05
0.000113515
1.31669e-05
0.000110226
1.31551e-05
0.00010694
1.31431e-05
0.000103658
1.31309e-05
0.000100378
1.31185e-05
9.71013e-05
1.31061e-05
9.38279e-05
1.30935e-05
9.05577e-05
1.3081e-05
8.72906e-05
1.30685e-05
8.40267e-05
1.30561e-05
8.07659e-05
1.30438e-05
7.75081e-05
1.30317e-05
7.42534e-05
1.30198e-05
7.10016e-05
1.30081e-05
6.77527e-05
1.29967e-05
6.45066e-05
1.29856e-05
6.12632e-05
1.29748e-05
5.80225e-05
1.29644e-05
5.47842e-05
1.29543e-05
5.15484e-05
1.29447e-05
4.8315e-05
1.29355e-05
4.50837e-05
1.29268e-05
4.18545e-05
1.29186e-05
3.86272e-05
1.29109e-05
3.54017e-05
1.29037e-05
3.21779e-05
1.28971e-05
2.89557e-05
1.2891e-05
2.57348e-05
1.28854e-05
2.25152e-05
1.28805e-05
1.92967e-05
1.28762e-05
1.60792e-05
1.28724e-05
1.28624e-05
1.28693e-05
9.64623e-06
1.28668e-05
6.43055e-06
1.28649e-05
3.2152e-06
1.28636e-05
1.2863e-05
3.46986e-06
-1.73557e-05
6.93993e-06
-1.73568e-05
1.04104e-05
-1.73589e-05
1.38816e-05
-1.73621e-05
1.73536e-05
-1.73664e-05
2.08267e-05
-1.73717e-05
2.43011e-05
-1.7378e-05
2.7777e-05
-1.73854e-05
3.12546e-05
-1.73937e-05
3.47341e-05
-1.7403e-05
3.82156e-05
-1.74133e-05
4.16995e-05
-1.74245e-05
4.51858e-05
-1.74365e-05
4.86747e-05
-1.74494e-05
5.21664e-05
-1.74632e-05
5.5661e-05
-1.74777e-05
5.91588e-05
-1.74929e-05
6.26598e-05
-1.75088e-05
6.61642e-05
-1.75254e-05
6.96721e-05
-1.75425e-05
7.31836e-05
-1.75601e-05
7.66988e-05
-1.75782e-05
8.02177e-05
-1.75967e-05
8.37405e-05
-1.76156e-05
8.72673e-05
-1.76347e-05
9.07979e-05
-1.76539e-05
9.43326e-05
-1.76733e-05
9.78712e-05
-1.76927e-05
0.000101414
-1.77121e-05
0.00010496
-1.77312e-05
0.000108511
-1.77502e-05
0.000112065
-1.77688e-05
0.000115623
-1.77869e-05
0.000119185
-1.78045e-05
0.00012275
-1.78214e-05
0.000126319
-1.78376e-05
0.000129891
-1.78529e-05
0.000133465
-1.78671e-05
0.000137043
-1.78802e-05
0.000140623
-1.7892e-05
0.000144205
-1.79024e-05
0.00014779
-1.79113e-05
0.000151376
-1.79184e-05
0.000154963
-1.79237e-05
0.000158551
-1.79271e-05
0.000162139
-1.79283e-05
0.000165728
-1.79271e-05
0.000169315
-1.79235e-05
0.000172902
-1.79173e-05
0.000176488
-1.79083e-05
0.000180071
-1.78962e-05
0.000183651
-1.78811e-05
0.000187228
-1.78625e-05
0.0001908
-1.78405e-05
0.000194368
-1.78148e-05
0.00019793
-1.77851e-05
0.000201485
-1.77514e-05
0.000205033
-1.77134e-05
0.000208573
-1.76709e-05
0.000212103
-1.76238e-05
0.000215624
-1.75718e-05
0.000219133
-1.75148e-05
0.00022263
-1.74525e-05
0.000226114
-1.73848e-05
0.000229583
-1.73115e-05
0.000233037
-1.72323e-05
0.000236474
-1.71471e-05
0.000239893
-1.70557e-05
0.000243292
-1.69579e-05
0.000246671
-1.68535e-05
0.000250028
-1.67424e-05
0.000253361
-1.66243e-05
0.000256669
-1.64992e-05
0.000259952
-1.63668e-05
0.000263206
-1.62269e-05
0.000266431
-1.60796e-05
0.000269625
-1.59245e-05
0.000272787
-1.57616e-05
0.000275915
-1.55907e-05
0.000279007
-1.54118e-05
0.000282062
-1.52247e-05
0.000285078
-1.50293e-05
0.000288053
-1.48256e-05
0.000290986
-1.46134e-05
0.000293875
-1.43928e-05
0.000296718
-1.41637e-05
0.000299513
-1.3926e-05
0.000302259
-1.36797e-05
0.000304955
-1.34249e-05
0.000307597
-1.31615e-05
0.000310185
-1.28896e-05
0.000312717
-1.26092e-05
0.000315191
-1.23205e-05
0.000317606
-1.20233e-05
0.000319959
-1.1718e-05
0.000322249
-1.14045e-05
0.000324475
-1.10829e-05
0.000326635
-1.07536e-05
0.000328728
-1.04165e-05
0.000330751
-1.00719e-05
0.000332703
-9.72002e-06
0.000334584
-9.361e-06
0.000336391
-8.9951e-06
0.000338123
-8.62255e-06
0.000339779
-8.24362e-06
0.000341357
-7.85857e-06
0.000342857
-7.46771e-06
0.000344278
-7.07132e-06
0.000345618
-6.66972e-06
0.000346876
-6.26324e-06
0.000348051
-5.85221e-06
0.000349143
-5.43699e-06
0.000350151
-5.01793e-06
0.000351074
-4.59539e-06
0.000351911
-4.16976e-06
0.000352662
-3.74142e-06
0.000353326
-3.31074e-06
0.000353904
-2.87813e-06
0.000354394
-2.44399e-06
0.000354797
-2.0087e-06
0.000355112
-1.57267e-06
0.000355339
-1.1363e-06
0.000355478
-6.99988e-07
0.00035553
-2.64139e-07
0.000355494
1.70853e-07
0.000355372
6.04598e-07
0.000355162
1.03671e-06
0.000354866
1.4668e-06
0.000354483
1.8945e-06
0.000354016
2.31943e-06
0.000353464
2.74125e-06
0.000352827
3.15961e-06
0.000352107
3.57415e-06
0.000351305
3.98456e-06
0.000350421
4.39051e-06
0.000349457
4.7917e-06
0.000348413
5.18785e-06
0.000347291
5.57866e-06
0.000346091
5.96388e-06
0.000344815
6.34325e-06
0.000343464
6.71654e-06
0.00034204
7.08353e-06
0.000340543
7.44401e-06
0.000338975
7.79778e-06
0.000337338
8.14467e-06
0.000335632
8.48451e-06
0.00033386
8.81717e-06
0.000332023
9.14251e-06
0.000330122
9.46041e-06
0.000328158
9.77077e-06
0.000326134
1.00735e-05
0.000324051
1.03685e-05
0.000321911
1.06558e-05
0.000319714
1.09353e-05
0.000317464
1.12069e-05
0.00031516
1.14707e-05
0.000312805
1.17267e-05
0.000310401
1.19747e-05
0.000307949
1.2215e-05
0.00030545
1.24474e-05
0.000302906
1.26721e-05
0.000300319
1.2889e-05
0.000297691
1.30984e-05
0.000295022
1.33001e-05
0.000292314
1.34943e-05
0.000289569
1.36811e-05
0.000286788
1.38606e-05
0.000283973
1.40328e-05
0.000281125
1.41979e-05
0.000278246
1.43561e-05
0.000275336
1.45073e-05
0.000272398
1.46518e-05
0.000269432
1.47896e-05
0.00026644
1.4921e-05
0.000263424
1.5046e-05
0.000260383
1.51648e-05
0.000257321
1.52776e-05
0.000254237