/*--------------------------------*- C++ -*----------------------------------*\
| =========                 |                                                 |
| \\      /  F ield         | OpenFOAM: The Open Source CFD Toolbox           |
|  \\    /   O peration     | Version:  v2012                                 |
|   \\  /    A nd           | Website:  www.openfoam.com                      |
|    \\/     M anipulation  |                                                 |
\*---------------------------------------------------------------------------*/
FoamFile
{
    version     2.0;
    format      ascii;
    class       volScalarField;
    location    "14";
    object      W;
}
// * * * * * * * * * * * * * * * * * * * * * * * * * * * * * * * * * * * * * //

dimensions      [0 0 -1 0 0 0 0];


internalField   nonuniform List<scalar> 
65536
(
1.94804e-15
1.96052e-15
2.01333e-15
2.10688e-15
2.24232e-15
2.42152e-15
2.64709e-15
2.92239e-15
3.2516e-15
3.63973e-15
4.09268e-15
4.61735e-15
5.22166e-15
5.9147e-15
6.7068e-15
7.60968e-15
8.63654e-15
9.80228e-15
1.11236e-14
1.26191e-14
1.43098e-14
1.6219e-14
1.83726e-14
2.07995e-14
2.35319e-14
2.66052e-14
3.00589e-14
3.39367e-14
3.82865e-14
4.31617e-14
4.86205e-14
5.47275e-14
6.15533e-14
6.91756e-14
7.76793e-14
8.71574e-14
9.77117e-14
1.09453e-13
1.22502e-13
1.3699e-13
1.5306e-13
1.70867e-13
1.90578e-13
2.12374e-13
2.3645e-13
2.63018e-13
2.92302e-13
3.24546e-13
3.60011e-13
3.98973e-13
4.4173e-13
4.88598e-13
5.39912e-13
5.96028e-13
6.57324e-13
7.24196e-13
7.97064e-13
8.76368e-13
9.62567e-13
1.05614e-12
1.1576e-12
1.26746e-12
1.38626e-12
1.51456e-12
1.65294e-12
1.80198e-12
1.96228e-12
2.13447e-12
2.31915e-12
2.51697e-12
2.72854e-12
2.95451e-12
3.19549e-12
3.45211e-12
3.72496e-12
4.01465e-12
4.32175e-12
4.64679e-12
4.99029e-12
5.35273e-12
5.73456e-12
6.13616e-12
6.55787e-12
6.99999e-12
7.46274e-12
7.94628e-12
8.45069e-12
8.97599e-12
9.52211e-12
1.00889e-11
1.06761e-11
1.12835e-11
1.19105e-11
1.25567e-11
1.32214e-11
1.3904e-11
1.46036e-11
1.53194e-11
1.60503e-11
1.67953e-11
1.75532e-11
1.83226e-11
1.91023e-11
1.98909e-11
2.06867e-11
2.14883e-11
2.22939e-11
2.3102e-11
2.39107e-11
2.47182e-11
2.55227e-11
2.63224e-11
2.71154e-11
2.78996e-11
2.86733e-11
2.94345e-11
3.01813e-11
3.09116e-11
3.16237e-11
3.23157e-11
3.29856e-11
3.36316e-11
3.42518e-11
3.48446e-11
3.5408e-11
3.59404e-11
3.64401e-11
3.69055e-11
3.73348e-11
3.77266e-11
3.80793e-11
3.83914e-11
3.86614e-11
3.88879e-11
3.90697e-11
3.92053e-11
3.92936e-11
3.93333e-11
3.93233e-11
3.92627e-11
3.91503e-11
3.89854e-11
3.87672e-11
3.84951e-11
3.81685e-11
3.77871e-11
3.73506e-11
3.68591e-11
3.63127e-11
3.5712e-11
3.50574e-11
3.435e-11
3.3591e-11
3.27818e-11
3.19243e-11
3.10208e-11
3.00737e-11
2.90858e-11
2.80605e-11
2.70014e-11
2.59124e-11
2.47977e-11
2.36621e-11
2.25104e-11
2.13477e-11
2.01794e-11
1.9011e-11
1.78482e-11
1.66966e-11
1.55617e-11
1.44492e-11
1.33645e-11
1.23125e-11
1.12983e-11
1.03261e-11
9.40008e-12
8.52373e-12
7.70008e-12
6.93157e-12
6.22008e-12
5.56688e-12
4.97265e-12
4.43746e-12
3.96083e-12
3.54168e-12
3.17844e-12
2.86904e-12
2.61094e-12
2.4012e-12
2.23651e-12
2.11323e-12
2.02743e-12
1.97496e-12
1.95148e-12
1.95249e-12
1.97344e-12
2.00975e-12
2.05686e-12
2.11036e-12
2.16597e-12
2.2197e-12
2.26788e-12
2.30724e-12
2.33497e-12
2.34879e-12
2.34699e-12
2.32845e-12
2.29266e-12
2.23971e-12
2.17026e-12
2.08549e-12
1.98702e-12
1.87685e-12
1.75725e-12
1.63066e-12
1.49961e-12
1.36659e-12
1.23398e-12
1.10396e-12
9.7846e-13
8.59111e-13
7.47214e-13
6.43731e-13
5.49293e-13
4.64215e-13
3.88534e-13
3.22041e-13
2.64329e-13
2.14837e-13
1.72897e-13
1.37771e-13
1.08694e-13
8.48996e-14
6.56518e-14
5.02584e-14
3.80869e-14
2.85712e-14
2.12155e-14
1.5593e-14
1.13434e-14
8.16732e-15
5.81993e-15
4.10434e-15
2.86444e-15
1.97829e-15
1.35202e-15
9.14336e-16
6.11877e-16
4.05226e-16
2.65672e-16
1.72589e-16
1.11386e-16
7.19152e-17
4.72842e-17
3.29918e-17
2.63264e-17
2.95209e-15
2.97103e-15
3.0512e-15
3.19321e-15
3.3988e-15
3.67082e-15
4.01325e-15
4.43123e-15
4.93111e-15
5.52052e-15
6.20849e-15
7.0055e-15
7.92366e-15
8.97682e-15
1.01807e-14
1.15533e-14
1.31146e-14
1.48875e-14
1.68973e-14
1.91727e-14
2.17454e-14
2.46512e-14
2.79296e-14
3.16249e-14
3.57859e-14
4.04671e-14
4.57285e-14
5.16368e-14
5.82655e-14
6.56955e-14
7.40163e-14
8.3326e-14
9.37326e-14
1.05354e-13
1.18321e-13
1.32774e-13
1.48868e-13
1.66772e-13
1.86669e-13
2.0876e-13
2.33261e-13
2.60407e-13
2.90451e-13
3.23668e-13
3.60352e-13
4.00822e-13
4.45418e-13
4.94505e-13
5.48474e-13
6.07742e-13
6.72753e-13
7.43977e-13
8.21914e-13
9.07094e-13
1.00007e-12
1.10143e-12
1.2118e-12
1.3318e-12
1.46213e-12
1.60346e-12
1.75654e-12
1.92209e-12
2.10091e-12
2.29378e-12
2.5015e-12
2.7249e-12
2.96481e-12
3.22207e-12
3.49753e-12
3.79202e-12
4.10638e-12
4.44143e-12
4.79797e-12
5.17677e-12
5.57858e-12
6.0041e-12
6.45398e-12
6.92883e-12
7.42919e-12
7.95554e-12
8.50826e-12
9.08767e-12
9.69398e-12
1.03273e-11
1.09877e-11
1.1675e-11
1.2389e-11
1.31294e-11
1.38957e-11
1.46874e-11
1.55035e-11
1.63434e-11
1.7206e-11
1.80901e-11
1.89944e-11
1.99176e-11
2.08581e-11
2.18142e-11
2.27841e-11
2.37659e-11
2.47576e-11
2.57571e-11
2.67622e-11
2.77706e-11
2.87799e-11
2.97878e-11
3.07918e-11
3.17895e-11
3.27782e-11
3.37556e-11
3.4719e-11
3.56661e-11
3.65942e-11
3.75011e-11
3.83842e-11
3.92413e-11
4.00701e-11
4.08683e-11
4.16339e-11
4.23647e-11
4.30587e-11
4.37142e-11
4.43292e-11
4.49021e-11
4.54312e-11
4.59151e-11
4.63522e-11
4.67412e-11
4.70808e-11
4.73699e-11
4.76073e-11
4.7792e-11
4.79231e-11
4.79996e-11
4.80208e-11
4.7986e-11
4.78944e-11
4.77455e-11
4.75388e-11
4.7274e-11
4.69506e-11
4.65684e-11
4.61274e-11
4.56276e-11
4.5069e-11
4.4452e-11
4.37771e-11
4.30448e-11
4.2256e-11
4.14118e-11
4.05134e-11
3.95624e-11
3.85607e-11
3.75103e-11
3.64137e-11
3.52737e-11
3.40933e-11
3.28761e-11
3.16257e-11
3.03464e-11
2.90425e-11
2.77189e-11
2.63805e-11
2.50328e-11
2.36812e-11
2.23314e-11
2.09893e-11
1.96607e-11
1.83515e-11
1.70675e-11
1.58143e-11
1.45974e-11
1.34219e-11
1.22927e-11
1.1214e-11
1.01898e-11
9.22345e-12
8.31771e-12
7.4748e-12
6.69629e-12
5.98312e-12
5.33561e-12
4.75346e-12
4.23576e-12
3.78107e-12
3.38738e-12
3.05218e-12
2.77254e-12
2.5451e-12
2.36612e-12
2.23159e-12
2.13718e-12
2.07838e-12
2.05047e-12
2.04866e-12
2.06805e-12
2.10377e-12
2.151e-12
2.20506e-12
2.26146e-12
2.316e-12
2.36484e-12
2.40456e-12
2.43224e-12
2.44549e-12
2.44255e-12
2.42226e-12
2.38411e-12
2.32819e-12
2.25521e-12
2.1664e-12
2.06345e-12
1.94845e-12
1.82375e-12
1.6919e-12
1.55552e-12
1.41717e-12
1.27934e-12
1.14426e-12
1.01395e-12
8.90079e-13
7.73986e-13
6.66661e-13
5.68749e-13
4.80569e-13
4.02149e-13
3.33269e-13
2.735e-13
2.22257e-13
1.78841e-13
1.42487e-13
1.12399e-13
8.77819e-14
6.7872e-14
5.19518e-14
3.93656e-14
2.95272e-14
2.1923e-14
1.61114e-14
1.17194e-14
8.43721e-15
6.01172e-15
4.23923e-15
2.95834e-15
2.04299e-15
1.39613e-15
9.44102e-16
6.31754e-16
4.18363e-16
2.74268e-16
1.78163e-16
1.14977e-16
7.42291e-17
4.88027e-17
3.40495e-17
2.71701e-17
5.37656e-15
5.41118e-15
5.55755e-15
5.81675e-15
6.19199e-15
6.68849e-15
7.31354e-15
8.07658e-15
8.98925e-15
1.00656e-14
1.13221e-14
1.2778e-14
1.44556e-14
1.63803e-14
1.85809e-14
2.10904e-14
2.39458e-14
2.71886e-14
3.08659e-14
3.50299e-14
3.97393e-14
4.50596e-14
5.10637e-14
5.78325e-14
6.54563e-14
7.40349e-14
8.36789e-14
9.45107e-14
1.06665e-13
1.20292e-13
1.35554e-13
1.52633e-13
1.71727e-13
1.93052e-13
2.16847e-13
2.43371e-13
2.72909e-13
3.0577e-13
3.42289e-13
3.82832e-13
4.27796e-13
4.77608e-13
5.32732e-13
5.93667e-13
6.60949e-13
7.35156e-13
8.16906e-13
9.06859e-13
1.00572e-12
1.11424e-12
1.23323e-12
1.36351e-12
1.50599e-12
1.66161e-12
1.83136e-12
2.01627e-12
2.21743e-12
2.43596e-12
2.67305e-12
2.9299e-12
3.20777e-12
3.50793e-12
3.83169e-12
4.1804e-12
4.55541e-12
4.95807e-12
5.38976e-12
5.85183e-12
6.34563e-12
6.87247e-12
7.43365e-12
8.03038e-12
8.66385e-12
9.33516e-12
1.00453e-11
1.07953e-11
1.15858e-11
1.24175e-11
1.32911e-11
1.42068e-11
1.51649e-11
1.61654e-11
1.72082e-11
1.82928e-11
1.94187e-11
2.05851e-11
2.17909e-11
2.30349e-11
2.43156e-11
2.56312e-11
2.69796e-11
2.83587e-11
2.97659e-11
3.11986e-11
3.26538e-11
3.41283e-11
3.56188e-11
3.71217e-11
3.86334e-11
4.01501e-11
4.16676e-11
4.3182e-11
4.46891e-11
4.61847e-11
4.76645e-11
4.91242e-11
5.05597e-11
5.19666e-11
5.3341e-11
5.46786e-11
5.59757e-11
5.72284e-11
5.8433e-11
5.9586e-11
6.06843e-11
6.17246e-11
6.27041e-11
6.36201e-11
6.44701e-11
6.52521e-11
6.59639e-11
6.66038e-11
6.71703e-11
6.7662e-11
6.80779e-11
6.84171e-11
6.86789e-11
6.88628e-11
6.89684e-11
6.89957e-11
6.89447e-11
6.88153e-11
6.86081e-11
6.83233e-11
6.79615e-11
6.75234e-11
6.70095e-11
6.64209e-11
6.57583e-11
6.50228e-11
6.42155e-11
6.33375e-11
6.23903e-11
6.13752e-11
6.02937e-11
5.91476e-11
5.79385e-11
5.66686e-11
5.534e-11
5.39551e-11
5.25164e-11
5.10267e-11
4.94893e-11
4.79073e-11
4.62846e-11
4.46249e-11
4.29326e-11
4.12123e-11
3.94688e-11
3.77072e-11
3.59331e-11
3.41522e-11
3.23705e-11
3.0594e-11
2.88291e-11
2.70822e-11
2.53597e-11
2.36681e-11
2.20137e-11
2.04026e-11
1.88407e-11
1.73337e-11
1.58867e-11
1.45044e-11
1.31911e-11
1.19504e-11
1.07853e-11
9.69817e-12
8.6906e-12
7.76357e-12
6.91734e-12
6.15147e-12
5.46487e-12
4.85579e-12
4.32189e-12
3.86028e-12
3.46755e-12
3.13986e-12
2.87293e-12
2.66217e-12
2.50264e-12
2.38921e-12
2.31651e-12
2.27908e-12
2.27133e-12
2.28768e-12
2.32257e-12
2.37058e-12
2.42642e-12
2.48512e-12
2.54198e-12
2.59277e-12
2.63371e-12
2.66161e-12
2.67386e-12
2.66854e-12
2.64442e-12
2.60094e-12
2.53825e-12
2.45713e-12
2.35893e-12
2.24553e-12
2.1192e-12
1.98252e-12
1.83825e-12
1.68924e-12
1.53827e-12
1.38802e-12
1.24093e-12
1.09914e-12
9.6447e-13
8.38347e-13
7.21826e-13
6.15589e-13
5.19965e-13
4.34972e-13
3.60354e-13
2.95636e-13
2.40174e-13
1.93203e-13
1.53888e-13
1.2136e-13
9.47568e-14
7.32473e-14
5.60532e-14
4.24639e-14
3.18444e-14
2.36386e-14
1.73688e-14
1.26317e-14
9.09241e-15
6.47746e-15
4.56691e-15
3.18652e-15
2.20024e-15
1.50338e-15
1.01649e-15
6.80105e-16
4.50327e-16
2.95187e-16
1.91731e-16
1.23719e-16
7.98646e-17
5.25022e-17
3.66269e-17
2.92249e-17
1.02614e-14
1.03278e-14
1.0608e-14
1.11038e-14
1.18217e-14
1.27714e-14
1.39673e-14
1.54272e-14
1.71737e-14
1.92336e-14
2.16388e-14
2.44263e-14
2.76388e-14
3.13252e-14
3.55413e-14
4.035e-14
4.58228e-14
5.20399e-14
5.90913e-14
6.70782e-14
7.61134e-14
8.63229e-14
9.78474e-14
1.10843e-13
1.25483e-13
1.41961e-13
1.60488e-13
1.81302e-13
2.04663e-13
2.30858e-13
2.60202e-13
2.93045e-13
3.29767e-13
3.70786e-13
4.16561e-13
4.67593e-13
5.24426e-13
5.87656e-13
6.57929e-13
7.35946e-13
8.22468e-13
9.18315e-13
1.02438e-12
1.1416e-12
1.27103e-12
1.41375e-12
1.57094e-12
1.74386e-12
1.93386e-12
2.14235e-12
2.37085e-12
2.62096e-12
2.89434e-12
3.19278e-12
3.51812e-12
3.8723e-12
4.25734e-12
4.67532e-12
5.12841e-12
5.61882e-12
6.14884e-12
6.72079e-12
7.33704e-12
7.99996e-12
8.71196e-12
9.47541e-12
1.02927e-11
1.11661e-11
1.2098e-11
1.30904e-11
1.41455e-11
1.52652e-11
1.64514e-11
1.77055e-11
1.90291e-11
2.04234e-11
2.18891e-11
2.3427e-11
2.50375e-11
2.67203e-11
2.84753e-11
3.03016e-11
3.21981e-11
3.41631e-11
3.61947e-11
3.82904e-11
4.04472e-11
4.26617e-11
4.49302e-11
4.72483e-11
4.96112e-11
5.20138e-11
5.44503e-11
5.69149e-11
5.94011e-11
6.19023e-11
6.44113e-11
6.6921e-11
6.94237e-11
7.19119e-11
7.43778e-11
7.68134e-11
7.92109e-11
8.15624e-11
8.38601e-11
8.60965e-11
8.8264e-11
9.03554e-11
9.23638e-11
9.42826e-11
9.61056e-11
9.7827e-11
9.94413e-11
1.00944e-10
1.02329e-10
1.03595e-10
1.04737e-10
1.05752e-10
1.06638e-10
1.07393e-10
1.08016e-10
1.08505e-10
1.08861e-10
1.09084e-10
1.09173e-10
1.09131e-10
1.08957e-10
1.08655e-10
1.08225e-10
1.07671e-10
1.06994e-10
1.06197e-10
1.05284e-10
1.04257e-10
1.03119e-10
1.01874e-10
1.00526e-10
9.90774e-11
9.75324e-11
9.58946e-11
9.41676e-11
9.23553e-11
9.04614e-11
8.849e-11
8.64448e-11
8.433e-11
8.21496e-11
7.99079e-11
7.76092e-11
7.5258e-11
7.28589e-11
7.04168e-11
6.79366e-11
6.54237e-11
6.28835e-11
6.03217e-11
5.77443e-11
5.51575e-11
5.25677e-11
4.99817e-11
4.74063e-11
4.48486e-11
4.23157e-11
3.98151e-11
3.73541e-11
3.49401e-11
3.25801e-11
3.02815e-11
2.8051e-11
2.58952e-11
2.38203e-11
2.18318e-11
1.99349e-11
1.81342e-11
1.64334e-11
1.48355e-11
1.3343e-11
1.19572e-11
1.06789e-11
9.50796e-12
8.44336e-12
7.48341e-12
6.62563e-12
5.86687e-12
5.20332e-12
4.63059e-12
4.14377e-12
3.73751e-12
3.40604e-12
3.14329e-12
2.94292e-12
2.79838e-12
2.70297e-12
2.64993e-12
2.63246e-12
2.6438e-12
2.67732e-12
2.72655e-12
2.7853e-12
2.84772e-12
2.90837e-12
2.96235e-12
3.00532e-12
3.03361e-12
3.04428e-12
3.03516e-12
3.00486e-12
2.9528e-12
2.87916e-12
2.78486e-12
2.67147e-12
2.54114e-12
2.39645e-12
2.24033e-12
2.07592e-12
1.90641e-12
1.73496e-12
1.56457e-12
1.39796e-12
1.23755e-12
1.08534e-12
9.42926e-13
8.11469e-13
6.91709e-13
5.83994e-13
4.88319e-13
4.04378e-13
3.31618e-13
2.693e-13
2.16551e-13
1.72422e-13
1.35929e-13
1.06097e-13
8.19869e-14
6.27219e-14
4.75019e-14
3.56124e-14
2.64285e-14
1.94137e-14
1.41153e-14
1.01579e-14
7.23489e-15
5.09983e-15
3.55762e-15
2.45599e-15
1.67781e-15
1.13423e-15
7.58749e-16
5.02319e-16
3.29217e-16
2.13802e-16
1.37941e-16
8.90323e-17
5.85205e-17
4.082e-17
3.25675e-17
1.96245e-14
1.97524e-14
2.02898e-14
2.12407e-14
2.26169e-14
2.4438e-14
2.67309e-14
2.95306e-14
3.28801e-14
3.68316e-14
4.14461e-14
4.67952e-14
5.29611e-14
6.00381e-14
6.81338e-14
7.73698e-14
8.78837e-14
9.98304e-14
1.13384e-13
1.28739e-13
1.46114e-13
1.65753e-13
1.87926e-13
2.12936e-13
2.41118e-13
2.72844e-13
3.08527e-13
3.48621e-13
3.93631e-13
4.44112e-13
5.00674e-13
5.6399e-13
6.34798e-13
7.13906e-13
8.02198e-13
9.00642e-13
1.01029e-12
1.13229e-12
1.26789e-12
1.41844e-12
1.58541e-12
1.77038e-12
1.97505e-12
2.20126e-12
2.45099e-12
2.72634e-12
3.02957e-12
3.36309e-12
3.72946e-12
4.1314e-12
4.57178e-12
5.05364e-12
5.58015e-12
6.15467e-12
6.78068e-12
7.46183e-12
8.20189e-12
9.00476e-12
9.87445e-12
1.08151e-11
1.18308e-11
1.2926e-11
1.41048e-11
1.53716e-11
1.67306e-11
1.81861e-11
1.97422e-11
2.1403e-11
2.31722e-11
2.50535e-11
2.70503e-11
2.91657e-11
3.14023e-11
3.37624e-11
3.62479e-11
3.88601e-11
4.15999e-11
4.44672e-11
4.74617e-11
5.05821e-11
5.38265e-11
5.71921e-11
6.06753e-11
6.42718e-11
6.79762e-11
7.17825e-11
7.56835e-11
7.96714e-11
8.37374e-11
8.78719e-11
9.20645e-11
9.63039e-11
1.00578e-10
1.04875e-10
1.09181e-10
1.13483e-10
1.17765e-10
1.22016e-10
1.26218e-10
1.30358e-10
1.34421e-10
1.38391e-10
1.42256e-10
1.45999e-10
1.49608e-10
1.53069e-10
1.56369e-10
1.59496e-10
1.6244e-10
1.65189e-10
1.67734e-10
1.70067e-10
1.7218e-10
1.74067e-10
1.75723e-10
1.77142e-10
1.78323e-10
1.79264e-10
1.79962e-10
1.80418e-10
1.80634e-10
1.80612e-10
1.80353e-10
1.79863e-10
1.79145e-10
1.78205e-10
1.77049e-10
1.75683e-10
1.74115e-10
1.7235e-10
1.70398e-10
1.68265e-10
1.65961e-10
1.63494e-10
1.60871e-10
1.58102e-10
1.55195e-10
1.52158e-10
1.49e-10
1.45729e-10
1.42353e-10
1.3888e-10
1.35319e-10
1.31677e-10
1.27962e-10
1.24182e-10
1.20344e-10
1.16456e-10
1.12525e-10
1.08559e-10
1.04565e-10
1.00552e-10
9.65259e-11
9.24954e-11
8.84682e-11
8.44523e-11
8.04557e-11
7.64867e-11
7.25537e-11
6.86652e-11
6.48296e-11
6.10557e-11
5.7352e-11
5.3727e-11
5.01893e-11
4.67472e-11
4.34085e-11
4.01809e-11
3.70717e-11
3.40877e-11
3.12347e-11
2.85184e-11
2.59432e-11
2.35131e-11
2.12308e-11
1.90983e-11
1.71166e-11
1.52857e-11
1.36046e-11
1.20713e-11
1.06828e-11
9.43549e-12
8.3246e-12
7.34478e-12
6.48996e-12
5.75344e-12
5.12803e-12
4.60609e-12
4.17961e-12
3.84033e-12
3.57976e-12
3.38929e-12
3.26026e-12
3.18398e-12
3.15186e-12
3.15546e-12
3.18653e-12
3.23714e-12
3.29973e-12
3.36722e-12
3.43308e-12
3.49143e-12
3.53714e-12
3.56586e-12
3.57415e-12
3.55947e-12
3.52024e-12
3.45581e-12
3.36644e-12
3.25323e-12
3.11807e-12
2.96348e-12
2.79251e-12
2.60858e-12
2.41534e-12
2.21653e-12
2.0158e-12
1.81661e-12
1.62213e-12
1.4351e-12
1.25785e-12
1.09217e-12
9.39381e-13
8.00314e-13
6.75338e-13
5.64418e-13
4.67172e-13
3.82937e-13
3.10837e-13
2.49846e-13
1.9885e-13
1.56702e-13
1.22264e-13
9.44459e-14
7.22281e-14
5.46829e-14
4.09829e-14
3.04046e-14
2.23279e-14
1.62296e-14
1.16763e-14
8.31417e-15
5.85916e-15
4.08636e-15
2.82037e-15
1.92632e-15
1.30196e-15
8.70784e-16
5.76383e-16
3.7769e-16
2.4524e-16
1.58198e-16
1.02091e-16
6.70928e-17
4.67922e-17
3.73284e-17
3.71699e-14
3.7414e-14
3.84353e-14
4.02417e-14
4.28558e-14
4.63147e-14
5.06701e-14
5.59887e-14
6.23529e-14
6.98619e-14
7.86327e-14
8.88016e-14
1.00526e-13
1.13986e-13
1.29387e-13
1.46962e-13
1.66974e-13
1.89719e-13
2.1553e-13
2.4478e-13
2.77887e-13
3.15317e-13
3.57589e-13
4.05281e-13
4.59037e-13
5.19569e-13
5.87667e-13
6.64204e-13
7.50145e-13
8.46555e-13
9.54604e-13
1.07558e-12
1.2109e-12
1.36211e-12
1.5309e-12
1.71914e-12
1.92883e-12
2.16217e-12
2.42155e-12
2.70956e-12
3.029e-12
3.38289e-12
3.77449e-12
4.20731e-12
4.6851e-12
5.2119e-12
5.79198e-12
6.42995e-12
7.13064e-12
7.89921e-12
8.74111e-12
9.66205e-12
1.0668e-11
1.17654e-11
1.29606e-11
1.42605e-11
1.56721e-11
1.72028e-11
1.88598e-11
2.06508e-11
2.25834e-11
2.46655e-11
2.69047e-11
2.93089e-11
3.18855e-11
3.46421e-11
3.75859e-11
4.07237e-11
4.4062e-11
4.76068e-11
5.13635e-11
5.53368e-11
5.95305e-11
6.39479e-11
6.85908e-11
7.34603e-11
7.85562e-11
8.3877e-11
8.94199e-11
9.51807e-11
1.01154e-10
1.07331e-10
1.13705e-10
1.20264e-10
1.26996e-10
1.33887e-10
1.40921e-10
1.48082e-10
1.55351e-10
1.62707e-10
1.70128e-10
1.77592e-10
1.85074e-10
1.9255e-10
1.99992e-10
2.07375e-10
2.1467e-10
2.21851e-10
2.28889e-10
2.35757e-10
2.42427e-10
2.48873e-10
2.55068e-10
2.60988e-10
2.66608e-10
2.71907e-10
2.76863e-10
2.81457e-10
2.85672e-10
2.89492e-10
2.92903e-10
2.95895e-10
2.98459e-10
3.00587e-10
3.02275e-10
3.03521e-10
3.04324e-10
3.04686e-10
3.04612e-10
3.04108e-10
3.0318e-10
3.01838e-10
3.00094e-10
2.97959e-10
2.95447e-10
2.92573e-10
2.89353e-10
2.85802e-10
2.81938e-10
2.77779e-10
2.73341e-10
2.68643e-10
2.63704e-10
2.5854e-10
2.53171e-10
2.47612e-10
2.41883e-10
2.36e-10
2.29978e-10
2.23835e-10
2.17586e-10
2.11245e-10
2.04828e-10
1.98348e-10
1.91818e-10
1.85252e-10
1.78663e-10
1.72062e-10
1.65461e-10
1.58872e-10
1.52306e-10
1.45774e-10
1.39287e-10
1.32855e-10
1.2649e-10
1.20201e-10
1.14e-10
1.07895e-10
1.01898e-10
9.60184e-11
9.02667e-11
8.46526e-11
7.91858e-11
7.38758e-11
6.87317e-11
6.37623e-11
5.89756e-11
5.43794e-11
4.99806e-11
4.57853e-11
4.17989e-11
3.80256e-11
3.44686e-11
3.11303e-11
2.80114e-11
2.5112e-11
2.24305e-11
1.99643e-11
1.77096e-11
1.56616e-11
1.38141e-11
1.21602e-11
1.06918e-11
9.4003e-12
8.27614e-12
7.30927e-12
6.48911e-12
5.8047e-12
5.24482e-12
4.79802e-12
4.45279e-12
4.19759e-12
4.02094e-12
3.91151e-12
3.85819e-12
3.85016e-12
3.87697e-12
3.92865e-12
3.99576e-12
4.06953e-12
4.14193e-12
4.20576e-12
4.25477e-12
4.28374e-12
4.28852e-12
4.26609e-12
4.21458e-12
4.13326e-12
4.02249e-12
3.88365e-12
3.71901e-12
3.53162e-12
3.32515e-12
3.10369e-12
2.8716e-12
2.6333e-12
2.39313e-12
2.15519e-12
1.92318e-12
1.70037e-12
1.48943e-12
1.29248e-12
1.11103e-12
9.46031e-13
7.97874e-13
6.66485e-13
5.5138e-13
4.51746e-13
3.66521e-13
2.94473e-13
2.34269e-13
1.84538e-13
1.43926e-13
1.11137e-13
8.49616e-14
6.43008e-14
4.81749e-14
3.57288e-14
2.62297e-14
1.90601e-14
1.37088e-14
9.7588e-15
6.87544e-15
4.79396e-15
3.30798e-15
2.25886e-15
1.52638e-15
1.02068e-15
6.75469e-16
4.42538e-16
2.87295e-16
1.85296e-16
1.19557e-16
7.85584e-17
5.478e-17
4.36959e-17
6.95249e-14
6.99854e-14
7.19031e-14
7.52929e-14
8.01978e-14
8.66879e-14
9.48607e-14
1.04842e-13
1.16787e-13
1.30884e-13
1.47352e-13
1.6645e-13
1.88475e-13
2.13766e-13
2.42712e-13
2.75753e-13
3.13385e-13
3.56169e-13
4.04734e-13
4.59786e-13
5.22115e-13
5.92603e-13
6.72233e-13
7.62101e-13
8.63423e-13
9.77549e-13
1.10598e-12
1.25036e-12
1.41253e-12
1.59449e-12
1.79848e-12
2.02693e-12
2.28253e-12
2.5682e-12
2.88717e-12
3.24293e-12
3.63933e-12
4.08051e-12
4.571e-12
5.1157e-12
5.71991e-12
6.38934e-12
7.13017e-12
7.94901e-12
8.85295e-12
9.8496e-12
1.09471e-11
1.21539e-11
1.34793e-11
1.4933e-11
1.6525e-11
1.82662e-11
2.01677e-11
2.22414e-11
2.44992e-11
2.6954e-11
2.96187e-11
3.25065e-11
3.56313e-11
3.90068e-11
4.2647e-11
4.65658e-11
5.07774e-11
5.52953e-11
6.01331e-11
6.53039e-11
7.08199e-11
7.66929e-11
8.29337e-11
8.95518e-11
9.65558e-11
1.03953e-10
1.11747e-10
1.19944e-10
1.28543e-10
1.37544e-10
1.46945e-10
1.56738e-10
1.66917e-10
1.77469e-10
1.88381e-10
1.99635e-10
2.11211e-10
2.23086e-10
2.35232e-10
2.47621e-10
2.60219e-10
2.7299e-10
2.85896e-10
2.98897e-10
3.11947e-10
3.25002e-10
3.38014e-10
3.50933e-10
3.6371e-10
3.76292e-10
3.88629e-10
4.00669e-10
4.12361e-10
4.23653e-10
4.34498e-10
4.44847e-10
4.54656e-10
4.63881e-10
4.72484e-10
4.80426e-10
4.87676e-10
4.94203e-10
4.99983e-10
5.04994e-10
5.0922e-10
5.12647e-10
5.15269e-10
5.17081e-10
5.18084e-10
5.18282e-10
5.17686e-10
5.16308e-10
5.14165e-10
5.11276e-10
5.07664e-10
5.03355e-10
4.98378e-10
4.92763e-10
4.86543e-10
4.79751e-10
4.72422e-10
4.64593e-10
4.56299e-10
4.47577e-10
4.38464e-10
4.28996e-10
4.19209e-10
4.09138e-10
3.98818e-10
3.88281e-10
3.7756e-10
3.66686e-10
3.55689e-10
3.44596e-10
3.33435e-10
3.22231e-10
3.11008e-10
2.99789e-10
2.88596e-10
2.77448e-10
2.66365e-10
2.55366e-10
2.44466e-10
2.33683e-10
2.23031e-10
2.12526e-10
2.0218e-10
1.92009e-10
1.82024e-10
1.72238e-10
1.62663e-10
1.53311e-10
1.44193e-10
1.3532e-10
1.26702e-10
1.1835e-10
1.10274e-10
1.02482e-10
9.49828e-11
8.77847e-11
8.08948e-11
7.43191e-11
6.80628e-11
6.21301e-11
5.6524e-11
5.12459e-11
4.62964e-11
4.16742e-11
3.73767e-11
3.34e-11
2.97385e-11
2.63853e-11
2.3332e-11
2.0569e-11
1.80854e-11
1.58693e-11
1.39077e-11
1.21869e-11
1.06923e-11
9.40914e-12
8.32182e-12
7.4147e-12
6.67196e-12
6.07774e-12
5.61626e-12
5.27193e-12
5.02941e-12
4.87372e-12
4.79032e-12
4.76518e-12
4.78486e-12
4.83664e-12
4.90857e-12
4.98962e-12
5.06976e-12
5.14004e-12
5.19277e-12
5.2215e-12
5.22119e-12
5.18817e-12
5.12023e-12
5.0165e-12
4.87749e-12
4.70492e-12
4.50159e-12
4.27124e-12
4.01832e-12
3.74782e-12
3.46498e-12
3.17516e-12
2.88357e-12
2.59512e-12
2.31426e-12
2.04485e-12
1.79009e-12
1.55248e-12
1.33378e-12
1.13508e-12
9.56811e-13
7.98843e-13
6.60555e-13
5.40937e-13
4.38686e-13
3.52298e-13
2.80152e-13
2.20591e-13
1.71978e-13
1.32748e-13
1.01446e-13
7.675e-14
5.74828e-14
4.26184e-14
3.12779e-14
2.27218e-14
1.63379e-14
1.16272e-14
8.18972e-15
5.70896e-15
3.93843e-15
2.68877e-15
1.8165e-15
1.21443e-15
8.0354e-16
5.26348e-16
3.41646e-16
2.20312e-16
1.42127e-16
9.33733e-17
6.51006e-17
5.19227e-17
1.28339e-13
1.29198e-13
1.32753e-13
1.39033e-13
1.48119e-13
1.6014e-13
1.7528e-13
1.93772e-13
2.15907e-13
2.42032e-13
2.72561e-13
3.07971e-13
3.48819e-13
3.95738e-13
4.49451e-13
5.10781e-13
5.80653e-13
6.60116e-13
7.50343e-13
8.52654e-13
9.68526e-13
1.09961e-12
1.24773e-12
1.41496e-12
1.60356e-12
1.81605e-12
2.05525e-12
2.32425e-12
2.62647e-12
2.96569e-12
3.34607e-12
3.77219e-12
4.24905e-12
4.78218e-12
5.37758e-12
6.04183e-12
6.7821e-12
7.60619e-12
8.52255e-12
9.54036e-12
1.06695e-11
1.19208e-11
1.33057e-11
1.48365e-11
1.65266e-11
1.83901e-11
2.04421e-11
2.26986e-11
2.51768e-11
2.78944e-11
3.08706e-11
3.41251e-11
3.76788e-11
4.15532e-11
4.57708e-11
5.03549e-11
5.53292e-11
6.07181e-11
6.65466e-11
7.28396e-11
7.96223e-11
8.692e-11
9.47575e-11
1.03159e-10
1.12148e-10
1.21748e-10
1.31979e-10
1.42861e-10
1.54411e-10
1.66646e-10
1.79577e-10
1.93215e-10
2.07565e-10
2.2263e-10
2.3841e-10
2.54897e-10
2.72082e-10
2.89949e-10
3.08477e-10
3.27639e-10
3.47404e-10
3.67735e-10
3.88586e-10
4.09909e-10
4.31649e-10
4.53744e-10
4.76128e-10
4.98729e-10
5.2147e-10
5.4427e-10
5.67044e-10
5.89703e-10
6.12156e-10
6.34308e-10
6.56066e-10
6.77334e-10
6.98016e-10
7.18018e-10
7.37248e-10
7.55615e-10
7.73034e-10
7.89423e-10
8.04706e-10
8.1881e-10
8.31672e-10
8.43234e-10
8.53447e-10
8.62268e-10
8.69664e-10
8.75609e-10
8.80087e-10
8.83089e-10
8.84616e-10
8.84677e-10
8.83289e-10
8.80476e-10
8.7627e-10
8.70709e-10
8.6384e-10
8.55711e-10
8.4638e-10
8.35906e-10
8.24353e-10
8.11788e-10
7.9828e-10
7.839e-10
7.68719e-10
7.5281e-10
7.36245e-10
7.19095e-10
7.01432e-10
6.83323e-10
6.64836e-10
6.46035e-10
6.26982e-10
6.07736e-10
5.88354e-10
5.68888e-10
5.49389e-10
5.29904e-10
5.10476e-10
4.91146e-10
4.71951e-10
4.52927e-10
4.34106e-10
4.15516e-10
3.97184e-10
3.79136e-10
3.61393e-10
3.43976e-10
3.26905e-10
3.10195e-10
2.93864e-10
2.77925e-10
2.62392e-10
2.47278e-10
2.32594e-10
2.18351e-10
2.0456e-10
1.91228e-10
1.78365e-10
1.65979e-10
1.54077e-10
1.42664e-10
1.31747e-10
1.2133e-10
1.11415e-10
1.02006e-10
9.31019e-11
8.4703e-11
7.6807e-11
6.941e-11
6.25067e-11
5.60898e-11
5.01505e-11
4.46781e-11
3.96603e-11
3.50831e-11
3.0931e-11
2.7187e-11
2.38329e-11
2.08492e-11
1.82157e-11
1.59112e-11
1.3914e-11
1.22021e-11
1.07531e-11
9.54475e-12
8.55472e-12
7.76104e-12
7.14208e-12
6.67667e-12
6.34422e-12
6.12484e-12
5.99933e-12
5.94938e-12
5.95759e-12
6.00757e-12
6.08408e-12
6.1731e-12
6.26197e-12
6.33949e-12
6.39604e-12
6.42365e-12
6.41607e-12
6.36883e-12
6.27922e-12
6.14627e-12
5.97063e-12
5.75447e-12
5.50127e-12
5.21565e-12
4.90308e-12
4.56965e-12
4.22179e-12
3.86601e-12
3.50865e-12
3.15565e-12
2.81237e-12
2.48348e-12
2.17281e-12
1.88334e-12
1.61715e-12
1.37551e-12
1.15889e-12
9.67085e-13
7.99294e-13
6.54254e-13
5.30349e-13
4.25729e-13
3.38408e-13
2.66356e-13
2.07578e-13
1.60169e-13
1.22359e-13
9.25404e-14
6.92869e-14
5.13542e-14
3.7678e-14
2.73633e-14
1.96699e-14
1.39949e-14
9.855e-15
6.86818e-15
4.73707e-15
3.2333e-15
2.18394e-15
1.4598e-15
9.65712e-16
6.32466e-16
4.10456e-16
2.64642e-16
1.70698e-16
1.12126e-16
7.81635e-17
6.23351e-17
2.33774e-13
2.35353e-13
2.4186e-13
2.53345e-13
2.69959e-13
2.9194e-13
3.19624e-13
3.53443e-13
3.9393e-13
4.41727e-13
4.97591e-13
5.62406e-13
6.37193e-13
7.23119e-13
8.21519e-13
9.33904e-13
1.06199e-12
1.20769e-12
1.3732e-12
1.56093e-12
1.77361e-12
2.01429e-12
2.28636e-12
2.59362e-12
2.94026e-12
3.33096e-12
3.7709e-12
4.26582e-12
4.82203e-12
5.44655e-12
6.14706e-12
6.93204e-12
7.81078e-12
8.79346e-12
9.89125e-12
1.11163e-11
1.24819e-11
1.40025e-11
1.56938e-11
1.75727e-11
1.96576e-11
2.19683e-11
2.45261e-11
2.7354e-11
3.04764e-11
3.39195e-11
3.77111e-11
4.1881e-11
4.64604e-11
5.14824e-11
5.69818e-11
6.29952e-11
6.95605e-11
7.67174e-11
8.45068e-11
9.29711e-11
1.02154e-10
1.12098e-10
1.2285e-10
1.34454e-10
1.46956e-10
1.604e-10
1.7483e-10
1.90288e-10
2.06816e-10
2.24453e-10
2.43234e-10
2.63192e-10
2.84355e-10
3.06747e-10
3.30387e-10
3.55286e-10
3.81451e-10
4.0888e-10
4.37564e-10
4.67484e-10
4.98613e-10
5.30914e-10
5.6434e-10
5.98834e-10
6.34327e-10
6.70741e-10
7.07986e-10
7.45961e-10
7.84554e-10
8.23645e-10
8.631e-10
9.02781e-10
9.42538e-10
9.82215e-10
1.02165e-09
1.06067e-09
1.09911e-09
1.13679e-09
1.17354e-09
1.20918e-09
1.24354e-09
1.27645e-09
1.30775e-09
1.33728e-09
1.36489e-09
1.39044e-09
1.41381e-09
1.43489e-09
1.45356e-09
1.46975e-09
1.48338e-09
1.49441e-09
1.50278e-09
1.50848e-09
1.51151e-09
1.51186e-09
1.50958e-09
1.5047e-09
1.49728e-09
1.48738e-09
1.4751e-09
1.46052e-09
1.44375e-09
1.4249e-09
1.4041e-09
1.38147e-09
1.35714e-09
1.33125e-09
1.30394e-09
1.27535e-09
1.24562e-09
1.21489e-09
1.18329e-09
1.15095e-09
1.118e-09
1.08458e-09
1.05079e-09
1.01675e-09
9.8257e-10
9.48347e-10
9.14175e-10
8.80143e-10
8.4633e-10
8.12811e-10
7.79653e-10
7.46917e-10
7.14658e-10
6.82926e-10
6.51764e-10
6.21213e-10
5.91304e-10
5.6207e-10
5.33535e-10
5.05721e-10
4.78649e-10
4.52333e-10
4.26788e-10
4.02025e-10
3.78054e-10
3.54882e-10
3.32515e-10
3.10959e-10
2.90216e-10
2.7029e-10
2.5118e-10
2.32889e-10
2.15415e-10
1.98756e-10
1.8291e-10
1.67872e-10
1.53636e-10
1.40195e-10
1.27542e-10
1.15665e-10
1.04553e-10
9.41916e-11
8.45655e-11
7.56568e-11
6.74459e-11
5.99113e-11
5.30295e-11
4.67755e-11
4.11224e-11
3.60422e-11
3.15054e-11
2.74816e-11
2.39395e-11
2.08475e-11
1.81733e-11
1.58849e-11
1.39503e-11
1.23376e-11
1.10159e-11
9.95455e-12
9.12396e-12
8.49542e-12
8.04124e-12
7.73487e-12
7.55099e-12
7.46556e-12
7.45593e-12
7.50092e-12
7.58096e-12
7.67817e-12
7.77646e-12
7.86171e-12
7.92183e-12
7.94686e-12
7.92905e-12
7.86287e-12
7.74501e-12
7.57433e-12
7.35168e-12
7.0798e-12
6.76304e-12
6.40712e-12
6.01881e-12
5.60561e-12
5.1754e-12
4.73618e-12
4.29567e-12
3.86112e-12
3.43907e-12
3.03516e-12
2.654e-12
2.29918e-12
1.9732e-12
1.67751e-12
1.41265e-12
1.17829e-12
9.73415e-13
7.9643e-13
6.45327e-13
5.17815e-13
4.11444e-13
3.2372e-13
2.52192e-13
1.94525e-13
1.48554e-13
1.12316e-13
8.40674e-14
6.22907e-14
4.5689e-14
3.31722e-14
2.38394e-14
1.69572e-14
1.19382e-14
8.31811e-15
5.73587e-15
3.91423e-15
2.64336e-15
1.76656e-15
1.16844e-15
7.65109e-16
4.9646e-16
3.20044e-16
2.06402e-16
1.35559e-16
9.44856e-17
7.53448e-17
4.20195e-13
4.23067e-13
4.34822e-13
4.55558e-13
4.85544e-13
5.25219e-13
5.75191e-13
6.36245e-13
7.09349e-13
7.9567e-13
8.96585e-13
1.0137e-12
1.14887e-12
1.30423e-12
1.48219e-12
1.68551e-12
1.91731e-12
2.1811e-12
2.48082e-12
2.82093e-12
3.20638e-12
3.64272e-12
4.13617e-12
4.69363e-12
5.32277e-12
6.03214e-12
6.8312e-12
7.73042e-12
8.7414e-12
9.8769e-12
1.1151e-11
1.25793e-11
1.41786e-11
1.59677e-11
1.7967e-11
2.01988e-11
2.26874e-11
2.54591e-11
2.85428e-11
3.19694e-11
3.57727e-11
3.99889e-11
4.46569e-11
4.98187e-11
5.5519e-11
6.18057e-11
6.87298e-11
7.63452e-11
8.47091e-11
9.38819e-11
1.03927e-10
1.1491e-10
1.26902e-10
1.39972e-10
1.54196e-10
1.69651e-10
1.86413e-10
2.04562e-10
2.24179e-10
2.45344e-10
2.68138e-10
2.92638e-10
3.18923e-10
3.47066e-10
3.77138e-10
4.09206e-10
4.4333e-10
4.79562e-10
5.17948e-10
5.58524e-10
6.01316e-10
6.46336e-10
6.93587e-10
7.43053e-10
7.94707e-10
8.48503e-10
9.04378e-10
9.62252e-10
1.02202e-09
1.08358e-09
1.14677e-09
1.21144e-09
1.27742e-09
1.34449e-09
1.41245e-09
1.48106e-09
1.55007e-09
1.6192e-09
1.68817e-09
1.75669e-09
1.82445e-09
1.89114e-09
1.95645e-09
2.02004e-09
2.08161e-09
2.14084e-09
2.19742e-09
2.25105e-09
2.30145e-09
2.34835e-09
2.3915e-09
2.43066e-09
2.46565e-09
2.49626e-09
2.52237e-09
2.54383e-09
2.56056e-09
2.5725e-09
2.57962e-09
2.58192e-09
2.57942e-09
2.5722e-09
2.56033e-09
2.54395e-09
2.52319e-09
2.49822e-09
2.46923e-09
2.43642e-09
2.40001e-09
2.36025e-09
2.31738e-09
2.27166e-09
2.22334e-09
2.1727e-09
2.12e-09
2.06549e-09
2.00945e-09
1.95212e-09
1.89376e-09
1.8346e-09
1.77486e-09
1.71477e-09
1.65453e-09
1.59432e-09
1.53434e-09
1.47473e-09
1.41566e-09
1.35726e-09
1.29966e-09
1.24295e-09
1.18725e-09
1.13265e-09
1.0792e-09
1.02699e-09
9.76062e-10
9.26463e-10